/*--------------------------------*- C++ -*----------------------------------*\
| =========                 |                                                 |
| \\      /  F ield         | OpenFOAM: The Open Source CFD Toolbox           |
|  \\    /   O peration     | Version:  plus                                  |
|   \\  /    A nd           | Web:      www.OpenFOAM.com                      |
|    \\/     M anipulation  |                                                 |
\*---------------------------------------------------------------------------*/
FoamFile
{
    version     2.0;
    format      ascii;
    class       volScalarField;
    object      p;
}
// * * * * * * * * * * * * * * * * * * * * * * * * * * * * * * * * * * * * * //

dimensions      [0 2 -2 0 0 0 0 ];

internalField   uniform 0 ;

boundaryField
{
    top_surface
    {
        type                }


    bottom_surface
    {
        type            
    }

    lateral_surface_4
    {
        type            
    }

    lateral_surface_3
    {
        type            
    }

    lateral_surface_2
    {
        type            
    }

    lateral_surface_1
    {
        type            
    }
}