/*--------------------------------*- C++ -*----------------------------------*\
| =========                 |                                                 |
| \\      /  F ield         | OpenFOAM: The Open Source CFD Toolbox           |
|  \\    /   O peration     | Version:  v1612+                                |
|   \\  /    A nd           | Web:      www.OpenFOAM.com                      |
|    \\/     M anipulation  |                                                 |
\*---------------------------------------------------------------------------*/
FoamFile
{
    version     2.0;
    format      ascii;
    class       volScalarField;
    location    "0.6";
    object      p_rgh;
}
// * * * * * * * * * * * * * * * * * * * * * * * * * * * * * * * * * * * * * //

dimensions      [1 -1 -2 0 0 0 0];

internalField   nonuniform List<scalar> 
320
(
-9800.21
-9800.21
-9800.21
-9800.21
0.00171256
0.00251927
0.00228413
0.000289223
0.00167226
-0.00288625
0.00114699
0.00267722
-0.00629727
-0.000674522
0.00347947
-2.48701e-05
-9800.17
-9800.18
-9800.14
-9800.22
-9800.19
-9800.17
-9800.22
-9800.19
-9800.13
-9800.18
-9800.19
-9800.18
-9800.21
-9800.21
-9800.2
-9800.21
-9800.21
-9800.2
-9800.21
-9800.22
-9800.21
-9800.2
-9800.22
-9800.2
-9800.21
-9800.21
-9800.21
-9800.21
-9800.21
-9800.22
-9800.21
-9800.21
-9800.21
-9800.2
-9800.21
-9800.21
-9800.21
-9800.2
-9800.21
-9800.21
0.00244968
-0.00038343
-0.000312241
-0.00113184
-0.000343055
-0.00205858
-0.000142224
-0.000245812
-4.43531e-05
0.00124636
-0.00083974
-0.00044509
-0.00201193
0.00106028
0.000286166
-0.0044488
-0.00162797
0.000434744
-0.000247218
-0.00304422
-9800.15
-9800.22
-9800.22
-9800.22
-9800.18
-9800.18
-9800.22
-9800.18
-9800.18
-9800.18
-9800.18
-9800.18
-9800.14
-9800.2
-9800.21
-9800.15
-9800.18
-9800.21
-9800.18
-9800.18
-9800.2
-9800.21
-9800.21
-9800.21
-9800.21
-9800.2
-9800.21
-9800.2
-9800.2
-9800.21
-9800.2
-9800.2
-9800.21
-9800.21
-9800.21
-9800.21
-9800.2
-9800.21
-9800.2
-9800.21
-9800.21
-9800.21
-9800.21
-9800.21
-9800.21
-9800.21
-9800.21
-9800.2
-9800.2
-9800.21
-9800.2
-9800.2
-9800.21
-9800.21
-9800.21
-9800.21
-9800.2
-9800.21
-9800.21
-9800.21
-9800.21
-9800.21
-9800.21
-9800.21
-9800.21
-9800.21
-9800.21
-9800.21
-9800.21
-9800.2
-9800.21
-9800.21
-9800.21
-9800.2
-9800.21
-9800.21
-9800.21
-9800.21
-9800.21
-9800.21
-9800.21
-9800.21
-9800.21
-9800.2
-9800.2
-9800.2
-9800.2
-9800.21
-9800.21
-9800.21
-9800.21
-9800.21
-9800.2
-9800.21
-9800.21
-9800.21
7.79205e-05
-0.00183202
-0.00041997
-0.000877015
0.000415444
0.00173868
-0.00283753
0.000920991
-0.000111312
0.000111253
-0.00241093
0.000838224
-0.00155907
-0.0017957
-0.00743614
0.00271305
0.00022536
-0.00206238
-0.00121943
-0.00043452
-0.000655669
0.00375423
0.00172709
-0.000137233
0.000108731
-0.00311658
-0.00622187
0.00372149
-9800.22
-9800.18
-9800.22
-9800.22
-9800.22
-9800.2
-9800.15
-9800.19
-9800.21
-9800.22
-9800.16
-9800.14
-9800.18
-9800.21
-9800.22
-9800.19
-9800.17
-9800.14
-9800.14
-9800.18
-9800.21
-9800.19
-9800.22
-9800.21
-9800.18
-9800.15
-9800.2
-9800.18
-9800.21
-9800.21
-9800.21
-9800.21
-9800.21
-9800.22
-9800.21
-9800.22
-9800.21
-9800.21
-9800.2
-9800.21
-9800.2
-9800.21
-9800.22
-9800.21
-9800.2
-9800.21
-9800.21
-9800.2
-9800.21
-9800.21
-9800.21
-9800.21
-9800.21
-9800.21
-9800.23
-9800.23
-9800.21
-9800.21
-9800.21
-9800.21
-9800.21
-9800.21
-9800.21
-9800.21
-9800.21
-9800.21
-9800.2
-9800.2
-9800.2
-9800.2
-9800.21
-9800.21
-9800.21
-9800.21
-9800.21
-9800.21
-9800.21
-9800.22
-9800.21
-9800.21
-9800.21
-9800.21
-9800.21
-9800.22
-9800.21
-9800.21
-9800.21
-9800.21
-9800.21
-9800.21
-9800.21
-9800.21
-9800.21
-9800.21
-9800.2
-9800.2
-9800.2
-9800.2
-9800.21
-9800.21
-9800.21
-9800.21
-9800.21
-9800.21
-9800.21
-9800.21
-9800.21
-9800.21
-9800.21
-9800.21
-9800.21
-9800.21
0.00131432
0.00112263
0.00297378
0.0030899
-9800.22
-9800.22
-9800.2
-9800.2
)
;

boundaryField
{
    top_fluid_surface
    {
        type            totalPressure;
        rho             rho;
        psi             none;
        gamma           1;
        p0              uniform 0;
        value           nonuniform List<scalar> 
64
(
0
0
-1.19025e-09
0
0
-2.7053e-09
0
0
-8.04218e-09
-1.04179e-10
0
-1.09145e-10
-2.14512e-10
0
0
-1.50582e-11
-1.1571e-10
-7.13099e-10
0
-4.77294e-11
-1.65151e-10
0
-4.35426e-10
-2.75843e-10
-1.26168e-09
0
0
-4.27179e-09
-1.1643e-10
0
-5.49671e-12
-3.88603e-10
0
-3.39276e-10
0
-3.44227e-12
0
0
-3.63917e-09
0
0
0
-1.95895e-09
0
-5.23242e-11
-2.82903e-11
0
0
-1.17681e-13
-1.63117e-09
-8.62175e-10
-4.73434e-13
-1.65381e-11
0
0
-4.84599e-11
-4.71105e-11
-1.64128e-09
0
0
0
0
0
0
)
;
    }
    bottom_fluid_surface
    {
        type            fixedFluxPressure;
        gradient        uniform 0;
        value           nonuniform List<scalar> 
64
(
-9800.21
-9800.21
-9800.21
-9800.21
-9800.21
-9800.21
-9800.21
-9800.21
-9800.21
-9800.2
-9800.21
-9800.21
-9800.21
-9800.2
-9800.21
-9800.21
-9800.21
-9800.21
-9800.21
-9800.21
-9800.21
-9800.21
-9800.21
-9800.2
-9800.2
-9800.2
-9800.2
-9800.21
-9800.21
-9800.21
-9800.21
-9800.21
-9800.2
-9800.21
-9800.21
-9800.21
-9800.21
-9800.21
-9800.21
-9800.21
-9800.21
-9800.21
-9800.21
-9800.21
-9800.21
-9800.21
-9800.2
-9800.2
-9800.2
-9800.2
-9800.21
-9800.21
-9800.21
-9800.21
-9800.21
-9800.21
-9800.21
-9800.21
-9800.21
-9800.21
-9800.21
-9800.21
-9800.21
-9800.21
)
;
    }
    lateral_surface_1
    {
        type            fixedFluxPressure;
        gradient        uniform 0;
        value           nonuniform List<scalar> 
40
(
7.79205e-05
-0.00183202
-0.00041997
-0.000877015
0.000415444
0.00173868
-0.00283753
0.00372149
-9800.22
-9800.18
-9800.22
-9800.22
-9800.22
-9800.2
-9800.15
-9800.18
-9800.21
-9800.21
-9800.21
-9800.21
-9800.21
-9800.22
-9800.21
-9800.23
-9800.21
-9800.21
-9800.21
-9800.21
-9800.21
-9800.21
-9800.21
-9800.22
-9800.21
-9800.21
-9800.21
-9800.21
-9800.21
-9800.21
-9800.21
-9800.21
)
;
    }
    lateral_surface_2
    {
        type            fixedFluxPressure;
        gradient        uniform 0;
        value           nonuniform List<scalar> 
40
(
-0.0017957
-0.00743614
0.00271305
0.00022536
-0.00206238
-0.00121943
-0.00043452
-0.000655669
-9800.21
-9800.22
-9800.19
-9800.17
-9800.14
-9800.14
-9800.18
-9800.21
-9800.21
-9800.22
-9800.21
-9800.2
-9800.21
-9800.21
-9800.2
-9800.21
-9800.2
-9800.21
-9800.21
-9800.21
-9800.21
-9800.21
-9800.21
-9800.21
-9800.2
-9800.21
-9800.21
-9800.21
-9800.21
-9800.21
-9800.21
-9800.21
)
;
    }
    lateral_surface_3
    {
        type            fixedFluxPressure;
        gradient        uniform 0;
        value           nonuniform List<scalar> 
40
(
-0.00283753
0.000920991
-0.000111312
0.000111253
-0.00241093
0.000838224
-0.00155907
-0.0017957
-9800.15
-9800.19
-9800.21
-9800.22
-9800.16
-9800.14
-9800.18
-9800.21
-9800.21
-9800.22
-9800.21
-9800.21
-9800.2
-9800.21
-9800.2
-9800.21
-9800.21
-9800.21
-9800.21
-9800.21
-9800.2
-9800.2
-9800.2
-9800.2
-9800.21
-9800.21
-9800.21
-9800.21
-9800.2
-9800.2
-9800.2
-9800.2
)
;
    }
    lateral_surface_4
    {
        type            fixedFluxPressure;
        gradient        uniform 0;
        value           nonuniform List<scalar> 
40
(
-0.000655669
0.00375423
0.00172709
-0.000137233
0.000108731
-0.00311658
-0.00622187
0.00372149
-9800.21
-9800.19
-9800.22
-9800.21
-9800.18
-9800.15
-9800.2
-9800.18
-9800.21
-9800.21
-9800.21
-9800.21
-9800.21
-9800.21
-9800.23
-9800.23
-9800.21
-9800.22
-9800.21
-9800.21
-9800.21
-9800.21
-9800.21
-9800.22
-9800.21
-9800.21
-9800.21
-9800.21
-9800.21
-9800.21
-9800.21
-9800.21
)
;
    }
}


// ************************************************************************* //
