/*--------------------------------*- C++ -*----------------------------------*\
| =========                 |                                                 |
| \\      /  F ield         | OpenFOAM: The Open Source CFD Toolbox           |
|  \\    /   O peration     | Version:  v1612+                                |
|   \\  /    A nd           | Web:      www.OpenFOAM.com                      |
|    \\/     M anipulation  |                                                 |
\*---------------------------------------------------------------------------*/
FoamFile
{
    version     2.0;
    format      ascii;
    class       volVectorField;
    location    "0.6";
    object      U;
}
// * * * * * * * * * * * * * * * * * * * * * * * * * * * * * * * * * * * * * //

dimensions      [0 1 -1 0 0 0 0];

internalField   nonuniform List<vector> 
320
(
(1.65528e-07 -1.65729e-07 9.69355e-07)
(-4.15005e-08 -9.878e-08 1.12314e-06)
(5.95636e-07 -7.2548e-07 -6.72861e-07)
(2.82284e-07 -5.34594e-07 1.26167e-06)
(5.16915e-05 2.03092e-05 1.45415e-05)
(-1.51902e-05 3.68559e-05 2.82487e-05)
(-5.19687e-05 1.18196e-05 -4.87903e-05)
(-3.67315e-05 8.98828e-06 2.01592e-05)
(-6.92127e-05 -9.95594e-05 4.97334e-05)
(-4.69155e-05 -6.56602e-05 -7.35568e-05)
(-7.95531e-05 -7.74702e-05 3.39253e-05)
(9.0645e-05 -8.11087e-05 6.93815e-05)
(7.83971e-05 1.64167e-05 -0.000126824)
(5.58317e-05 -0.000128307 -1.44346e-05)
(3.03553e-05 -5.34813e-06 7.36495e-05)
(3.12016e-05 7.64583e-05 -1.47746e-05)
(-1.43391e-06 -8.44555e-07 -3.57218e-07)
(2.1881e-06 -5.6022e-07 8.6213e-08)
(1.73094e-06 -1.05312e-07 -1.38824e-06)
(6.11297e-07 8.35739e-07 9.79787e-07)
(-8.23337e-07 -4.9846e-06 1.80878e-06)
(-3.45519e-06 -2.49747e-06 -1.57025e-06)
(-1.1537e-06 -2.49597e-06 1.02551e-06)
(4.02425e-06 -1.47648e-06 6.57744e-07)
(-1.33736e-06 8.22294e-07 -1.70354e-06)
(-3.78247e-06 -2.45868e-06 -1.59666e-06)
(-7.14934e-07 -1.48923e-06 1.86566e-06)
(-2.04497e-06 2.50546e-07 -7.68674e-07)
(5.16883e-07 -6.53038e-08 -5.73458e-07)
(-5.61162e-08 -6.8137e-08 2.10639e-07)
(-2.818e-07 -7.2513e-08 -1.48065e-06)
(-2.10457e-07 1.72672e-07 1.60436e-06)
(-5.19967e-07 -1.34724e-06 1.97824e-06)
(-7.66246e-07 -1.15714e-06 -2.30215e-06)
(-6.63265e-07 -1.00488e-06 1.52862e-06)
(6.75631e-07 -5.87517e-07 8.18259e-07)
(-5.36066e-08 1.22279e-07 -2.05311e-06)
(-6.89733e-08 -1.0447e-06 -1.96554e-06)
(1.71716e-07 -1.77531e-07 2.28811e-06)
(4.69443e-07 5.83024e-07 -8.08565e-07)
(2.79301e-07 -2.19188e-07 4.2301e-07)
(3.71767e-08 -5.44485e-08 4.36145e-07)
(2.5658e-07 -7.07657e-07 7.2496e-09)
(2.88321e-07 -4.36358e-07 1.97189e-07)
(1.71507e-07 -1.27887e-07 -1.5486e-08)
(2.02221e-07 -1.16961e-07 1.36216e-07)
(8.29487e-08 -1.1709e-07 -2.06538e-07)
(-1.02446e-07 -1.33087e-07 4.18317e-07)
(-1.6304e-07 -9.88128e-07 2.11499e-07)
(-4.85217e-07 -6.66356e-07 -3.58003e-07)
(-2.43294e-07 -5.91256e-07 2.44996e-07)
(4.27057e-07 -3.29385e-07 1.94138e-07)
(-2.96461e-07 -1.56513e-07 -2.71815e-07)
(-4.27398e-07 -5.84114e-07 -2.87742e-07)
(6.87435e-08 -1.39522e-07 4.6964e-07)
(8.29634e-08 1.38192e-07 -2.10149e-07)
(2.91979e-05 -2.56873e-06 -2.07129e-05)
(3.17111e-05 -3.29633e-06 5.25586e-06)
(-1.62986e-05 2.37436e-05 5.73567e-06)
(-1.60489e-05 -2.41015e-05 -5.48451e-06)
(-1.65559e-05 -4.19793e-05 -1.52125e-05)
(-1.35004e-05 1.61581e-05 -3.7765e-05)
(-2.55897e-05 -4.86928e-07 2.04874e-05)
(-7.09998e-05 -4.0059e-05 -9.7703e-06)
(2.93776e-05 -6.9102e-06 -1.81742e-05)
(-4.10248e-06 -1.68199e-05 2.4268e-05)
(1.37681e-06 2.37704e-05 -2.95102e-05)
(4.99287e-06 -5.24845e-05 -2.3488e-05)
(-2.0172e-05 -7.9413e-05 -5.0233e-05)
(-3.92397e-05 1.05419e-05 4.08703e-05)
(-3.37982e-05 2.99062e-05 3.92048e-06)
(-6.57112e-05 1.40066e-05 -9.24315e-05)
(-2.15122e-06 -9.2937e-05 -1.52597e-05)
(4.79297e-05 -2.04271e-05 1.23522e-05)
(2.67695e-05 1.91539e-05 -3.31563e-06)
(-2.84206e-05 -2.06119e-05 -2.78784e-05)
(2.00355e-06 -1.26399e-06 -7.83324e-07)
(2.6951e-06 -5.90614e-06 1.08484e-06)
(-4.1772e-08 -4.2338e-06 1.06402e-06)
(-2.85279e-06 -3.81365e-06 1.06932e-06)
(-4.13788e-06 -2.67081e-07 -1.05042e-06)
(3.4291e-06 2.90387e-06 -7.07495e-07)
(-4.53262e-07 -7.80905e-07 1.18131e-06)
(-8.93402e-07 -4.38522e-06 -1.07116e-06)
(-1.56761e-06 -2.40379e-06 -1.60043e-06)
(3.59843e-06 2.00263e-06 1.85006e-07)
(-7.31166e-07 -3.5099e-07 -2.10725e-06)
(1.45483e-06 -5.39035e-07 -2.13597e-06)
(-1.48961e-06 -3.04365e-06 -1.13675e-06)
(-4.22333e-06 -1.20736e-06 4.9448e-07)
(-1.15175e-07 1.7696e-06 -4.41402e-07)
(-4.87866e-06 -1.03563e-06 -2.58021e-08)
(-4.22736e-06 -2.51095e-06 3.85412e-07)
(4.06557e-07 2.28548e-06 1.28248e-06)
(3.78993e-06 1.87394e-06 -1.25577e-06)
(2.71514e-06 -1.12613e-06 3.9116e-08)
(6.56945e-07 -3.7026e-07 -7.14814e-07)
(8.16691e-07 -6.81429e-07 1.61133e-06)
(-3.4294e-08 -4.10439e-07 1.48698e-06)
(-5.80728e-07 -8.89752e-07 1.54137e-06)
(-4.79246e-07 -5.28148e-07 -9.90378e-07)
(4.8989e-07 3.02134e-07 -7.40621e-07)
(-2.78972e-07 -3.36944e-07 1.80714e-06)
(-3.31311e-07 -1.09039e-06 -1.25723e-06)
(2.51531e-07 -7.71547e-08 -1.84219e-06)
(8.11152e-07 3.13876e-07 -4.94766e-07)
(4.07755e-07 -7.04078e-08 -2.61579e-06)
(-2.8733e-07 -3.01196e-07 -2.56689e-06)
(-5.31512e-07 -8.88116e-07 -1.84994e-06)
(-5.7241e-07 -9.71951e-08 4.57488e-07)
(-3.19914e-07 6.39616e-09 -3.58708e-07)
(-8.46493e-07 -8.40761e-08 -1.83785e-07)
(-5.53881e-07 -5.00166e-07 5.7314e-07)
(6.04758e-07 3.72686e-07 1.67863e-06)
(2.48456e-07 4.19923e-07 -1.43804e-06)
(2.62943e-07 -4.41194e-07 5.57589e-08)
(3.98805e-07 -3.54728e-07 -1.36106e-07)
(5.34454e-07 -7.34487e-07 3.86889e-07)
(2.638e-08 -5.26416e-07 3.7641e-07)
(-3.45028e-07 -6.62559e-07 3.26144e-07)
(-5.29025e-07 -2.1942e-07 -7.26056e-08)
(3.41237e-07 1.25621e-07 -1.69068e-07)
(-2.12256e-07 -3.00437e-07 3.02652e-07)
(-1.1692e-08 -8.19129e-07 -2.86927e-07)
(-5.76741e-08 -4.07765e-07 -3.06803e-07)
(5.66061e-07 1.10478e-07 -7.8887e-08)
(2.04516e-08 -2.9808e-07 -5.74969e-07)
(-4.865e-08 -2.54408e-07 -4.78148e-07)
(-1.78164e-07 -5.80775e-07 -3.32689e-07)
(-5.72577e-07 -1.98719e-07 -1.68313e-08)
(-2.73194e-07 -4.47328e-08 -6.65601e-08)
(-5.95652e-07 -1.84206e-07 8.15113e-08)
(-3.68524e-07 -3.42453e-07 -5.81214e-08)
(2.2895e-07 2.91174e-07 3.4955e-07)
(3.45265e-07 2.02175e-07 -3.8606e-07)
(3.66078e-07 -3.48196e-07 -2.15547e-08)
(1.96664e-07 -1.86401e-07 1.80907e-07)
(-2.20848e-09 -1.472e-07 2.11635e-07)
(1.31862e-07 -4.85091e-07 -2.14384e-07)
(4.82317e-08 -3.9607e-07 1.17276e-08)
(1.97333e-07 -7.88886e-08 -1.8388e-07)
(1.07708e-07 -8.9731e-08 -8.71502e-08)
(8.13001e-09 -1.37807e-07 -1.03829e-07)
(-1.13206e-07 -2.45877e-07 2.32537e-07)
(-9.84212e-08 -6.29164e-07 3.54487e-09)
(-2.34156e-07 -4.32558e-07 -1.57356e-07)
(-1.46281e-07 -3.98084e-07 1.38122e-07)
(1.50088e-07 -2.97122e-07 -4.22314e-08)
(-1.48471e-07 -1.77061e-07 -1.31478e-07)
(-1.0323e-07 -3.49494e-07 -1.22162e-07)
(1.08903e-07 -8.17297e-08 1.26003e-07)
(1.63641e-07 4.84988e-08 -7.71259e-08)
(2.85439e-07 -1.85484e-07 -3.31879e-09)
(3.34893e-07 -3.44396e-07 2.11065e-07)
(5.67097e-08 -2.59756e-07 2.1562e-07)
(-1.37142e-07 -3.56127e-07 1.98359e-07)
(-2.29458e-07 -1.65961e-07 5.826e-09)
(9.32007e-08 -6.57957e-08 -1.93105e-08)
(-1.51311e-07 -2.53751e-07 1.98613e-07)
(2.33857e-08 -5.17019e-07 -8.66577e-08)
(-2.16676e-08 -3.13455e-07 -1.2465e-07)
(2.49516e-07 -7.39583e-08 -1.96838e-07)
(-1.37919e-08 -2.63985e-07 -2.62518e-07)
(-8.72041e-08 -2.08345e-07 -2.16897e-07)
(-8.91608e-08 -3.58511e-07 -2.76753e-07)
(-3.00049e-07 -1.59822e-07 -1.17957e-07)
(-1.74286e-07 -9.70027e-08 -5.62494e-09)
(-2.5307e-07 -1.00304e-07 9.9031e-08)
(-8.54265e-08 -2.27717e-07 9.05664e-08)
(1.35218e-07 8.04711e-08 2.0817e-07)
(1.84658e-07 9.76476e-08 -1.43002e-07)
(1.93565e-07 -2.08768e-07 7.65715e-08)
(-4.29885e-05 9.13159e-06 -5.62649e-07)
(1.38854e-05 1.72238e-05 -2.6049e-05)
(2.53908e-05 2.44415e-05 8.28908e-06)
(5.6555e-06 2.35445e-05 -2.62215e-06)
(1.37141e-05 2.48837e-06 2.34213e-05)
(-7.0534e-05 -6.23584e-06 4.39786e-05)
(-6.90271e-05 5.64581e-05 -8.53132e-05)
(-6.32475e-06 3.28575e-05 1.85386e-05)
(5.82347e-06 2.79775e-06 2.06672e-05)
(-1.97736e-05 -4.85208e-05 1.81772e-05)
(-4.2159e-05 -4.45336e-05 -6.25931e-05)
(-2.42484e-05 1.23185e-06 -1.93063e-06)
(-3.4068e-05 -2.17795e-05 -1.02298e-05)
(-2.92546e-05 7.26877e-06 7.51675e-06)
(-1.61725e-05 2.4543e-06 -1.91886e-05)
(-1.12664e-05 1.94042e-05 4.16554e-05)
(2.3706e-05 1.51314e-05 -4.85141e-07)
(2.75617e-05 6.46099e-07 -5.71169e-05)
(-3.08053e-05 -3.26346e-05 -4.15253e-05)
(-4.27238e-05 -7.75342e-06 -9.73071e-07)
(-3.23642e-05 -2.3713e-05 -5.74747e-06)
(-4.83689e-05 -1.25091e-05 4.4843e-05)
(-7.48098e-05 4.8102e-05 4.1389e-05)
(-1.4263e-05 -1.46361e-05 9.83794e-06)
(3.52495e-06 2.35665e-05 -9.70675e-06)
(2.96337e-05 7.11006e-08 -5.72936e-05)
(-1.55445e-05 -7.22362e-05 -2.47247e-05)
(-2.20556e-05 2.64075e-06 6.49608e-05)
(2.20998e-06 8.29434e-07 -7.41805e-07)
(2.73504e-06 -8.72589e-07 3.36178e-09)
(1.53585e-06 9.79302e-08 1.10432e-06)
(9.55723e-08 2.86659e-07 9.088e-07)
(-2.23576e-06 -3.94131e-08 1.06372e-06)
(-6.14401e-06 -3.3036e-07 9.24378e-07)
(-3.53206e-06 1.96667e-06 -1.63946e-06)
(-1.23505e-06 5.7595e-06 -2.39629e-08)
(2.49447e-06 3.5793e-06 1.1948e-06)
(-5.59541e-07 -3.48676e-06 8.79216e-07)
(-2.1141e-07 -6.09893e-06 -7.55664e-07)
(-2.27328e-06 1.99433e-06 -3.61788e-07)
(4.18675e-06 5.10019e-06 6.03052e-07)
(8.24338e-07 2.80271e-07 8.40051e-07)
(3.88358e-06 3.64268e-06 2.6858e-07)
(-9.13542e-07 -4.92443e-09 -5.21382e-07)
(1.53893e-06 3.82502e-06 9.5854e-07)
(4.69257e-06 -8.89884e-08 -1.59549e-06)
(-6.15063e-06 -2.35712e-06 -1.20334e-06)
(-4.79235e-06 1.8383e-06 9.96715e-07)
(5.39123e-07 2.32006e-06 5.1657e-07)
(1.0209e-06 -1.29368e-06 2.7142e-07)
(-2.52414e-06 -3.2899e-06 1.27453e-06)
(-1.23337e-06 2.82658e-06 1.26885e-06)
(2.8134e-06 6.52806e-06 -8.22651e-07)
(3.0093e-06 2.55916e-06 -9.33161e-07)
(3.49863e-06 -2.84397e-06 -1.39723e-06)
(1.29145e-06 -1.37773e-06 1.38297e-06)
(-2.25391e-07 2.35813e-07 -7.87164e-07)
(7.09679e-07 -6.07203e-08 7.42964e-08)
(5.57068e-07 1.83079e-07 1.55116e-06)
(1.52208e-07 1.98902e-07 1.25431e-06)
(-1.64093e-07 -3.42286e-09 1.67021e-06)
(-8.45607e-07 -2.17734e-07 1.14562e-06)
(-5.27044e-07 3.62939e-07 -2.62506e-06)
(5.36286e-08 4.45744e-07 -2.10604e-07)
(4.46849e-07 1.27761e-07 1.85036e-06)
(-1.20746e-07 -6.48529e-07 1.53108e-06)
(1.35263e-07 -8.16745e-07 -1.15794e-06)
(1.52899e-07 -1.46708e-08 -1.22651e-06)
(1.97746e-07 1.35109e-07 7.48328e-07)
(-2.58702e-08 2.65195e-08 1.07994e-06)
(4.57047e-07 2.50135e-07 3.52152e-07)
(-1.51172e-07 3.80626e-07 -8.16068e-07)
(1.5445e-07 8.09065e-07 1.20636e-06)
(4.71631e-07 -6.11568e-08 -2.1814e-06)
(-9.48116e-07 -1.94082e-07 -1.60887e-06)
(-6.20187e-07 3.14551e-07 1.33927e-06)
(1.10229e-08 1.06191e-07 7.21659e-07)
(-1.97337e-07 -3.235e-07 3.94478e-07)
(-3.18876e-07 -1.11685e-07 1.9446e-06)
(-2.24947e-07 4.06551e-07 1.83632e-06)
(5.87841e-07 6.24806e-07 -7.31174e-07)
(2.71685e-08 2.41207e-07 -2.21034e-06)
(4.09125e-07 -8.44101e-07 -1.83501e-06)
(-3.75747e-07 -5.49058e-07 1.16074e-06)
(2.04026e-07 1.71671e-07 -1.8211e-07)
(4.69254e-07 -6.15591e-08 -9.89136e-08)
(3.43195e-07 1.01222e-07 2.67267e-07)
(1.30293e-07 1.297e-07 2.45183e-07)
(-2.24047e-07 -2.69119e-09 3.15541e-07)
(-6.53042e-07 8.71895e-09 1.6834e-07)
(-3.06443e-07 1.21325e-07 -2.68248e-07)
(-1.93837e-07 3.3172e-07 6.45606e-08)
(2.44697e-07 1.99679e-07 1.7639e-07)
(-1.19779e-07 -4.86016e-07 2.36627e-07)
(5.91174e-08 -8.33546e-07 -1.78053e-07)
(-1.34196e-07 -8.86025e-08 -1.0811e-07)
(3.7828e-07 2.82387e-07 -1.50196e-08)
(3.77126e-08 1.27442e-08 4.46443e-08)
(5.22792e-07 3.53311e-07 4.88295e-08)
(-1.20331e-07 5.60134e-08 -1.88218e-07)
(3.94008e-08 4.94094e-07 1.38137e-07)
(3.71368e-07 -3.20376e-08 -3.76011e-07)
(-8.32503e-07 -5.54379e-08 -2.24971e-07)
(-5.91823e-07 2.27888e-07 1.6666e-07)
(-3.27637e-08 2.63191e-07 1.12656e-07)
(2.53871e-09 -2.02547e-07 1.15502e-07)
(-1.90578e-07 -2.51843e-07 3.15655e-07)
(-6.50978e-08 2.40487e-07 1.44479e-07)
(3.92362e-07 5.74267e-07 -6.59242e-08)
(2.17995e-07 2.75319e-07 -3.24412e-07)
(4.65507e-07 -4.95966e-07 -2.39015e-07)
(7.02244e-08 -2.23612e-07 2.51805e-07)
(1.17215e-07 7.97306e-08 -1.78556e-08)
(2.99269e-07 1.44465e-08 5.58973e-08)
(2.71605e-07 6.58999e-08 1.78562e-07)
(1.19439e-07 7.77349e-08 1.59291e-07)
(-8.56649e-08 3.17024e-09 1.95219e-07)
(-2.72206e-07 2.62581e-08 2.02252e-08)
(-9.8706e-08 4.59186e-08 -1.91693e-07)
(-7.90454e-08 9.2797e-09 -1.08261e-07)
(7.65352e-08 -5.96596e-08 1.3556e-07)
(-7.29092e-08 -3.15692e-07 1.42462e-07)
(1.45943e-08 -4.99521e-07 -4.83856e-08)
(-5.54109e-08 -2.06428e-07 -2.06867e-07)
(1.21621e-07 -1.65954e-08 5.55699e-08)
(1.95213e-09 -1.70167e-08 9.58326e-08)
(2.25722e-07 1.02652e-07 4.66772e-08)
(-9.97693e-08 6.7776e-09 -2.01245e-07)
(-5.1755e-08 1.8863e-07 8.83034e-08)
(1.01565e-07 -2.86718e-08 -2.84125e-07)
(-4.0998e-07 -2.09623e-09 -1.79366e-07)
(-2.79561e-07 8.12595e-08 1.41267e-07)
(-3.98005e-08 1.03179e-07 1.32649e-07)
(-1.7881e-08 -1.33331e-07 -2.40483e-08)
(-7.61288e-08 -8.82015e-08 2.08128e-07)
(-5.77826e-09 3.87936e-08 1.39889e-07)
(1.90382e-07 1.88355e-07 -3.58883e-09)
(1.02106e-07 1.06846e-07 -2.64576e-07)
(1.9958e-07 -2.52927e-07 -1.90146e-07)
(5.79462e-08 -6.19036e-08 -2.30621e-08)
(-7.92625e-06 4.19953e-06 2.0534e-05)
(-2.47585e-05 1.6661e-05 2.3387e-05)
(7.37347e-05 -4.47518e-05 5.3048e-05)
(-1.03882e-05 -2.98302e-05 6.75496e-05)
(1.88434e-06 5.47991e-07 5.18761e-07)
(6.97449e-07 1.77341e-06 5.9464e-07)
(1.82871e-06 -3.13345e-06 -4.53079e-07)
(2.47583e-06 -3.18766e-07 8.69537e-07)
)
;

boundaryField
{
    top_fluid_surface
    {
        type            pressureInletOutletVelocity;
        value           nonuniform List<vector> 
64
(
(5.16915e-05 2.03092e-05 1.45415e-05)
(-1.51902e-05 3.68559e-05 2.82487e-05)
(0 0 -4.87903e-05)
(-3.67315e-05 8.98828e-06 2.01592e-05)
(-6.92127e-05 -9.95594e-05 4.97334e-05)
(0 0 -7.35568e-05)
(-7.95531e-05 -7.74702e-05 3.39253e-05)
(9.0645e-05 -8.11087e-05 6.93815e-05)
(0 0 -0.000126824)
(0 0 -1.44346e-05)
(3.03553e-05 -5.34813e-06 7.36495e-05)
(0 0 -1.47746e-05)
(0 0 -2.07129e-05)
(3.17111e-05 -3.29633e-06 5.25586e-06)
(-1.62986e-05 2.37436e-05 5.73567e-06)
(0 0 -5.48451e-06)
(0 0 -1.52125e-05)
(0 0 -3.7765e-05)
(-2.55897e-05 -4.86928e-07 2.04874e-05)
(0 0 -9.7703e-06)
(0 0 -1.81742e-05)
(-4.10248e-06 -1.68199e-05 2.4268e-05)
(0 0 -2.95102e-05)
(0 0 -2.3488e-05)
(0 0 -5.0233e-05)
(-3.92397e-05 1.05419e-05 4.08703e-05)
(-3.37982e-05 2.99062e-05 3.92048e-06)
(0 0 -9.24315e-05)
(0 0 -1.52597e-05)
(4.79297e-05 -2.04271e-05 1.23522e-05)
(0 0 -3.31563e-06)
(0 0 -2.78784e-05)
(-4.29885e-05 9.13159e-06 -5.62649e-07)
(0 0 -2.6049e-05)
(2.53908e-05 2.44415e-05 8.28908e-06)
(0 0 -2.62215e-06)
(1.37141e-05 2.48837e-06 2.34213e-05)
(-7.0534e-05 -6.23584e-06 4.39786e-05)
(0 0 -8.53132e-05)
(-6.32475e-06 3.28575e-05 1.85386e-05)
(5.82347e-06 2.79775e-06 2.06672e-05)
(-1.97736e-05 -4.85208e-05 1.81772e-05)
(0 0 -6.25931e-05)
(-2.42484e-05 1.23185e-06 -1.93063e-06)
(0 0 -1.02298e-05)
(0 0 7.51675e-06)
(-1.61725e-05 2.4543e-06 -1.91886e-05)
(-1.12664e-05 1.94042e-05 4.16554e-05)
(0 0 -4.85141e-07)
(0 0 -5.71169e-05)
(0 0 -4.15253e-05)
(0 0 -9.73071e-07)
(0 0 -5.74747e-06)
(-4.83689e-05 -1.25091e-05 4.4843e-05)
(-7.48098e-05 4.8102e-05 4.1389e-05)
(0 0 9.83794e-06)
(0 0 -9.70675e-06)
(0 0 -5.72936e-05)
(-1.55445e-05 -7.22362e-05 -2.47247e-05)
(-2.20556e-05 2.64075e-06 6.49608e-05)
(-7.92625e-06 4.19953e-06 2.0534e-05)
(-2.47585e-05 1.6661e-05 2.3387e-05)
(7.37347e-05 -4.47518e-05 5.3048e-05)
(-1.03882e-05 -2.98302e-05 6.75496e-05)
)
;
    }
    bottom_fluid_surface
    {
        type            noSlip;
    }
    lateral_surface_1
    {
        type            noSlip;
    }
    lateral_surface_2
    {
        type            noSlip;
    }
    lateral_surface_3
    {
        type            noSlip;
    }
    lateral_surface_4
    {
        type            noSlip;
    }
}


// ************************************************************************* //
