/*--------------------------------*- C++ -*----------------------------------*\
| =========                 |                                                 |
| \\      /  F ield         | OpenFOAM: The Open Source CFD Toolbox           |
|  \\    /   O peration     | Version:  v1612+                                |
|   \\  /    A nd           | Web:      www.OpenFOAM.com                      |
|    \\/     M anipulation  |                                                 |
\*---------------------------------------------------------------------------*/
FoamFile
{
    version     2.0;
    format      ascii;
    class       volVectorField;
    location    "3.7";
    object      U;
}
// * * * * * * * * * * * * * * * * * * * * * * * * * * * * * * * * * * * * * //

dimensions      [0 1 -1 0 0 0 0];

internalField   nonuniform List<vector> 
1116
(
(0.307985 2.3742e-06 -0.302895)
(0.307984 9.2767e-06 -0.302899)
(0.307987 1.11043e-05 -0.302886)
(0.307987 1.39338e-05 -0.302885)
(0.307986 -7.11014e-06 -0.302896)
(0.307983 -9.2732e-06 -0.302886)
(1.01322 1.37318e-05 -0.3787)
(1.01323 1.43136e-05 -0.378712)
(1.01323 1.02441e-05 -0.378696)
(1.01323 1.45648e-05 -0.37869)
(1.01323 -7.71857e-06 -0.378707)
(1.01322 -1.81282e-05 -0.378701)
(1.50836 1.45803e-05 -0.269962)
(1.50838 1.43154e-05 -0.269981)
(1.50838 6.73569e-06 -0.269966)
(1.50838 9.54368e-06 -0.269961)
(1.50839 -1.66093e-06 -0.269979)
(1.50836 -1.13163e-05 -0.26997)
(1.83361 1.44779e-05 -0.134258)
(1.83365 1.51008e-05 -0.134279)
(1.83364 4.85285e-06 -0.134267)
(1.83364 8.95335e-06 -0.134265)
(1.83365 -1.08182e-06 -0.134281)
(1.83361 -8.80208e-06 -0.134268)
(2.04981 1.37918e-05 -0.0237847)
(2.04987 1.55347e-05 -0.0238038)
(2.04985 3.06045e-06 -0.0237937)
(2.04985 7.96714e-06 -0.0237933)
(2.04986 -3.30302e-06 -0.0238063)
(2.04981 -8.30114e-06 -0.0237914)
(2.1883 1.19036e-05 0.0550998)
(2.18836 1.51918e-05 0.0550852)
(2.18835 2.06043e-06 0.0550936)
(2.18835 5.86541e-06 0.0550936)
(2.18835 -5.68534e-06 0.055083)
(2.1883 -7.3616e-06 0.0550978)
(2.19181 8.58587e-06 0.128807)
(2.19187 1.43309e-05 0.128798)
(2.19186 1.819e-06 0.128805)
(2.19186 2.43522e-06 0.128805)
(2.19187 -8.73663e-06 0.128796)
(2.19181 -5.57399e-06 0.12881)
(1.95889 2.10447e-06 0.289879)
(1.95895 1.1066e-05 0.289876)
(1.95895 8.9135e-07 0.28988)
(1.95894 -9.60278e-07 0.28988)
(1.95895 -1.1297e-05 0.289872)
(1.95888 -2.99653e-06 0.289888)
(1.263 -1.45196e-06 0.687101)
(1.26305 1.21103e-05 0.687106)
(1.26306 1.82309e-07 0.687104)
(1.26305 -7.46985e-07 0.687105)
(1.26306 -1.66029e-05 0.687101)
(1.26298 -6.38761e-06 0.687116)
(0.117436 9.04905e-06 0.824749)
(0.117489 2.17833e-05 0.824797)
(0.117504 -2.43737e-06 0.824783)
(0.117494 4.19611e-06 0.824784)
(0.117523 -2.21097e-05 0.824797)
(0.117361 -1.75666e-05 0.824767)
(-1.08775 2.75841e-05 -0.0179575)
(-1.08769 2.58758e-05 -0.0178756)
(-1.08767 -8.56938e-06 -0.017885)
(-1.08768 7.0805e-06 -0.0178941)
(-1.08763 -2.04889e-05 -0.0178557)
(-1.08785 -1.94769e-05 -0.018007)
(-0.975467 -4.1216e-06 -1.07569)
(-0.975404 -1.37289e-05 -1.07572)
(-0.975407 -1.20376e-05 -1.07572)
(-0.975407 -1.4597e-05 -1.07573)
(-0.975373 4.3873e-06 -1.07573)
(-0.975469 2.23468e-05 -1.07574)
(0.659115 2.88976e-05 -1.30468)
(0.659102 -3.76321e-05 -1.30471)
(0.659116 3.04572e-05 -1.30473)
(0.659111 2.88803e-05 -1.30466)
(0.659104 -3.85062e-05 -1.30463)
(0.659123 -0.000106978 -1.30472)
(2.83949 -1.08315e-06 -1.31761)
(2.8396 -0.000109061 -1.31752)
(2.83957 1.61239e-05 -1.31757)
(2.83955 -6.29572e-05 -1.31751)
(2.83956 5.28184e-05 -1.31742)
(2.8394 -3.10358e-05 -1.31761)
(4.52258 -2.30233e-05 -0.669774)
(4.52241 -0.000132095 -0.669726)
(4.52258 4.0833e-05 -0.66972)
(4.52225 -0.000115845 -0.669741)
(4.52193 0.000177646 -0.669723)
(4.52252 7.91467e-05 -0.669714)
(4.32951 1.58549e-05 -0.403304)
(4.32938 -8.70506e-05 -0.403266)
(4.32946 7.02499e-05 -0.403254)
(4.32931 -4.97683e-05 -0.403292)
(4.32918 0.000130906 -0.403296)
(4.32954 1.1827e-05 -0.403248)
(4.29614 4.01141e-05 -0.357566)
(4.29614 -5.07209e-05 -0.357491)
(4.29612 5.01044e-05 -0.357502)
(4.29606 -3.83325e-05 -0.357513)
(4.29605 7.85692e-05 -0.357491)
(4.29616 -2.25636e-05 -0.357519)
(4.23685 5.63343e-05 -0.253956)
(4.23697 -2.35107e-05 -0.253863)
(4.23688 2.80624e-05 -0.253881)
(4.23685 -2.60228e-05 -0.253884)
(4.23689 4.69655e-05 -0.253857)
(4.23685 -3.69942e-05 -0.253918)
(4.16709 5.9948e-05 0.054451)
(4.16733 -7.84856e-06 0.0545186)
(4.16719 1.14793e-05 0.0545115)
(4.16717 -1.38315e-05 0.0545122)
(4.16725 2.07664e-05 0.054524)
(4.16709 -4.6593e-05 0.0544756)
(3.72109 6.52074e-05 0.593988)
(3.72138 1.55605e-05 0.594029)
(3.72124 8.27022e-07 0.594029)
(3.72123 -5.47475e-07 0.594031)
(3.72133 -8.26434e-06 0.594028)
(3.7211 -5.58863e-05 0.594003)
(2.74035 5.56893e-05 1.10431)
(2.74068 3.15943e-05 1.10435)
(2.74054 5.50497e-06 1.10435)
(2.74053 7.60038e-06 1.10435)
(2.74064 -2.37064e-05 1.10434)
(2.7404 -5.18045e-05 1.10432)
(1.93761 6.52227e-05 1.29235)
(1.938 5.24846e-05 1.29244)
(1.93784 4.62899e-07 1.29241)
(1.93784 1.77547e-05 1.29241)
(1.93796 -2.48356e-05 1.29241)
(1.93768 -4.47863e-05 1.29238)
(0.806349 8.03739e-05 0.705602)
(0.806727 6.75705e-05 0.705792)
(0.806614 -8.2809e-06 0.705718)
(0.806613 2.79239e-05 0.705712)
(0.806728 -2.68347e-05 0.705752)
(0.806415 -4.6178e-05 0.705618)
(0.0147981 -3.16757e-05 -0.747499)
(0.0152151 -3.06729e-05 -0.74737)
(0.0151221 5.50917e-07 -0.74741)
(0.015116 -1.06093e-05 -0.747426)
(0.0152242 2.42143e-05 -0.747384)
(0.0148764 3.77529e-05 -0.747531)
(-0.137479 -0.000105013 -3.15139)
(-0.137489 -0.000114423 -3.15138)
(-0.137505 -2.76716e-05 -3.15158)
(-0.137491 -5.4707e-05 -3.15129)
(-0.137467 0.000137522 -3.15104)
(-0.137509 0.000150448 -3.15162)
(-0.361259 -9.07025e-05 -2.06542)
(-0.361324 -9.08013e-05 -2.06558)
(-0.361366 9.36221e-06 -2.06558)
(-0.361322 -9.9654e-06 -2.06553)
(-0.361252 0.000136866 -2.0655)
(-0.361281 0.000130396 -2.06544)
(-0.143118 -5.83332e-05 -1.48523)
(-0.143195 -6.06673e-05 -1.48553)
(-0.143211 5.27969e-05 -1.48542)
(-0.143167 3.53733e-05 -1.48551)
(-0.143086 0.000118117 -1.48564)
(-0.143032 8.7077e-05 -1.48511)
(0.897592 -5.90178e-05 -0.40911)
(0.897503 -6.79682e-05 -0.409516)
(0.897517 5.29108e-05 -0.409312)
(0.897544 2.82234e-05 -0.409527)
(0.897605 0.000119165 -0.409787)
(0.897744 8.84995e-05 -0.40899)
(2.41715 -7.0016e-05 -0.0345327)
(2.41706 -9.3643e-05 -0.0348781)
(2.41705 1.00038e-05 -0.0346797)
(2.41705 -2.79515e-05 -0.0348428)
(2.41711 8.34775e-05 -0.0350483)
(2.41725 8.03669e-05 -0.0343635)
(3.74209 -0.000108942 0.0467188)
(3.74202 -0.000186496 0.0465952)
(3.74197 -9.46419e-05 0.0467087)
(3.74196 -0.000115 0.0466287)
(3.74205 1.34406e-05 0.046566)
(3.74212 4.87635e-05 0.0468744)
(5.9831 -0.000137356 0.462223)
(5.98282 -0.000212018 0.462162)
(5.98266 -9.35347e-05 0.462183)
(5.98261 -0.000137234 0.462131)
(5.98265 1.14685e-05 0.462106)
(5.98278 6.49003e-05 0.462227)
(6.48563 -9.93453e-05 1.89772)
(6.48519 -0.000109668 1.89796)
(6.4852 4.27481e-05 1.89783)
(6.48516 -6.99519e-05 1.89781)
(6.48509 5.28511e-05 1.89788)
(6.48539 7.79197e-05 1.89769)
(3.69815 -0.000181973 2.55365)
(3.69905 -0.000165262 2.55322)
(3.69857 7.45644e-05 2.55351)
(3.69859 -8.72063e-05 2.5535)
(3.69872 4.01242e-05 2.55335)
(3.69838 9.31684e-05 2.55347)
(2.10536 0.000242622 2.18505)
(2.10625 0.000164003 2.18549)
(2.10582 -1.97473e-05 2.18533)
(2.10583 7.41744e-05 2.18533)
(2.10607 -4.73299e-05 2.18542)
(2.10563 -0.000120226 2.18519)
(1.28585 0.00032004 1.3225)
(1.28674 0.000206685 1.32318)
(1.28639 -8.69664e-05 1.32289)
(1.28641 9.90822e-05 1.32288)
(1.28665 -8.52041e-05 1.32308)
(1.28607 -0.000175434 1.32265)
(-0.163787 -0.000108605 -0.144382)
(-0.163027 -8.42605e-05 -0.143909)
(-0.163249 2.03525e-05 -0.14407)
(-0.163234 -3.27047e-05 -0.144079)
(-0.163025 6.69114e-05 -0.143939)
(-0.163644 8.99296e-05 -0.144285)
(-0.386955 -1.0126e-05 -1.82525)
(-0.386903 2.37107e-05 -1.82571)
(-0.386923 -2.00531e-05 -1.82564)
(-0.38691 -9.38837e-06 -1.82564)
(-0.386886 -1.71891e-05 -1.82571)
(-0.386993 2.10759e-05 -1.82521)
(-1.05097 -3.03962e-06 -1.80081)
(-1.05079 2.97965e-05 -1.80134)
(-1.05083 -2.52077e-06 -1.80127)
(-1.05081 9.89677e-06 -1.80127)
(-1.05075 -3.99641e-06 -1.80136)
(-1.05103 2.1864e-05 -1.80075)
(-1.39999 -1.50425e-06 -1.68894)
(-1.39966 1.59737e-05 -1.68944)
(-1.39971 7.09906e-07 -1.68937)
(-1.39969 1.54152e-05 -1.68937)
(-1.3996 -1.23473e-05 -1.68945)
(-1.4 2.34798e-06 -1.68887)
(-1.5194 -3.3312e-05 -1.89178)
(-1.51907 -3.3718e-05 -1.89226)
(-1.51912 -3.0918e-05 -1.89218)
(-1.51912 -1.70395e-05 -1.89219)
(-1.51904 -2.85351e-05 -1.89227)
(-1.51939 -3.18748e-06 -1.89171)
(-1.67547 -7.21612e-05 -2.27729)
(-1.6752 -9.07326e-05 -2.27768)
(-1.67527 -6.37168e-05 -2.27763)
(-1.6753 -5.56804e-05 -2.27763)
(-1.67526 -2.94031e-05 -2.27769)
(-1.67552 1.50727e-05 -2.27724)
(-2.03263 -9.80637e-05 -2.76707)
(-2.03247 -0.000116664 -2.76744)
(-2.03256 -4.84287e-05 -2.76743)
(-2.03261 -6.8406e-05 -2.76746)
(-2.0326 1.09919e-05 -2.76749)
(-2.03272 7.33047e-05 -2.76713)
(-1.68411 -8.65703e-05 -2.22943)
(-1.68403 -6.17991e-05 -2.22992)
(-1.68415 6.804e-05 -2.22991)
(-1.68424 3.17556e-05 -2.23)
(-1.68424 0.000147832 -2.2301)
(-1.6842 0.000176663 -2.22975)
(1.4078 0.000169518 3.17626)
(1.40755 0.000117975 3.17541)
(1.40737 7.13338e-05 3.17564)
(1.40735 0.000126136 3.17567)
(1.40725 0.000136877 3.1754)
(1.4079 0.000104139 3.17595)
(4.39168 0.00112089 7.67702)
(4.39534 0.000779478 7.67276)
(4.39353 -0.000206104 7.67495)
(4.39373 0.000442687 7.67513)
(4.39456 -0.000113399 7.67349)
(4.39316 -0.000511236 7.67574)
(-2.36093 0.00190292 3.37401)
(-2.3581 0.0012397 3.3777)
(-2.35998 -0.000682567 3.37601)
(-2.36044 0.000573436 3.37595)
(-2.3589 -0.000503316 3.37679)
(-2.36062 -0.0011363 3.37515)
(1.38433 0.00133049 2.24647)
(1.38616 0.0008117 2.2491)
(1.38535 -0.00059053 2.24789)
(1.3853 0.000397048 2.2478)
(1.38574 -0.000295396 2.24845)
(1.38492 -0.000790861 2.24722)
(-0.538872 -4.05777e-05 -0.0374533)
(-0.538267 8.99174e-06 -0.0369233)
(-0.538427 1.40932e-05 -0.0370797)
(-0.538472 3.62878e-05 -0.0370667)
(-0.538604 3.4709e-05 -0.0369047)
(-0.538572 -4.27053e-05 -0.0373667)
(0.0267289 -1.38607e-06 0.0271052)
(0.0267306 -3.18127e-06 0.0271055)
(0.0267315 -3.98558e-06 0.0271054)
(0.0267324 -4.21376e-06 0.0271054)
(0.0267333 -3.5072e-06 0.0271053)
(0.0267338 -1.46767e-06 0.0271045)
(0.0811119 -2.14004e-06 0.0281435)
(0.0811172 -4.79308e-06 0.0281449)
(0.0811202 -6.01413e-06 0.028145)
(0.0811228 -6.30285e-06 0.0281448)
(0.0811256 -5.57246e-06 0.0281444)
(0.0811272 -2.33122e-06 0.0281427)
(0.138373 -3.23622e-06 0.0306013)
(0.138384 -7.55746e-06 0.0306046)
(0.138391 -9.63872e-06 0.0306052)
(0.138396 -1.00406e-05 0.0306047)
(0.138401 -8.83687e-06 0.0306035)
(0.138405 -3.76487e-06 0.0306006)
(0.200315 -6.52175e-06 0.0357625)
(0.200336 -1.42179e-05 0.0357631)
(0.200346 -1.6264e-05 0.0357615)
(0.200353 -1.55589e-05 0.0357586)
(0.20036 -1.30429e-05 0.0357547)
(0.200365 -5.58982e-06 0.0357483)
(0.267925 -1.29039e-05 0.0462554)
(0.267958 -2.27872e-05 0.0462411)
(0.267968 -1.87269e-05 0.0462326)
(0.267972 -1.31148e-05 0.0462248)
(0.267972 -7.46661e-06 0.0462178)
(0.267973 -2.50304e-06 0.0462097)
(0.34009 -2.02433e-05 0.0660675)
(0.340131 -2.26397e-05 0.0660205)
(0.340128 1.10074e-06 0.0659995)
(0.340112 1.65521e-05 0.0659879)
(0.340091 2.54657e-05 0.065983)
(0.340071 1.35439e-05 0.0659828)
(0.411621 -1.89819e-05 0.0995322)
(0.411649 8.94167e-06 0.099451)
(0.411611 6.96345e-05 0.0994245)
(0.411555 9.69497e-05 0.0994218)
(0.411492 0.000103254 0.0994356)
(0.411425 4.99046e-05 0.0994625)
(0.470283 -2.12536e-06 0.147753)
(0.47026 8.18763e-05 0.14766)
(0.470164 0.000190718 0.147649)
(0.470054 0.000225044 0.147677)
(0.46994 0.000214051 0.147728)
(0.469812 9.8815e-05 0.147795)
(0.49409 4.17985e-05 0.197168)
(0.493991 0.000183882 0.197122)
(0.493835 0.00030642 0.19716)
(0.493682 0.000328367 0.197251)
(0.493531 0.000291408 0.197352)
(0.493362 0.000131809 0.197452)
(0.448369 7.64337e-05 0.198691)
(0.44817 0.000215702 0.198789)
(0.448004 0.000299225 0.198922)
(0.447851 0.000303467 0.199131)
(0.447722 0.000250443 0.199281)
(0.447525 0.000112614 0.199489)
(0.282111 5.86691e-05 0.100165)
(0.281873 9.34542e-05 0.100413)
(0.281764 0.000106158 0.100454)
(0.28168 8.02463e-05 0.100565)
(0.281598 4.08093e-05 0.10052)
(0.281377 3.78776e-05 0.100684)
(0.0512944 -6.16895e-05 0.131604)
(0.0511711 -0.000177096 0.131752)
(0.0511495 -0.000188115 0.131664)
(0.0511362 -0.000182958 0.131702)
(0.0510794 -0.000209482 0.13164)
(0.0510292 -9.23052e-05 0.131574)
(0.0262608 -1.63974e-06 0.0791001)
(0.0262629 -3.70771e-06 0.0791019)
(0.026264 -4.12552e-06 0.0791021)
(0.0262649 -4.16663e-06 0.0791024)
(0.0262657 -3.24372e-06 0.0791026)
(0.0262661 -1.37548e-06 0.0791008)
(0.079328 -2.70428e-06 0.0815912)
(0.079335 -5.55877e-06 0.0815946)
(0.0793384 -5.75598e-06 0.0815952)
(0.079341 -5.45627e-06 0.0815954)
(0.0793433 -4.2916e-06 0.0815949)
(0.0793445 -1.75097e-06 0.0815914)
(0.133571 -4.18387e-06 0.0857561)
(0.133585 -8.00055e-06 0.0857623)
(0.133591 -7.4681e-06 0.0857632)
(0.133595 -6.56819e-06 0.0857625)
(0.133598 -4.95591e-06 0.0857602)
(0.133601 -2.10209e-06 0.0857539)
(0.188483 -5.03351e-06 0.0891509)
(0.188508 -7.78954e-06 0.0891489)
(0.188516 -4.80119e-06 0.089144)
(0.188519 -2.65888e-06 0.0891371)
(0.188522 -1.11982e-06 0.0891284)
(0.188524 -6.57044e-07 0.0891154)
(0.242258 -2.3963e-06 0.0869275)
(0.242296 3.06677e-06 0.0868923)
(0.242303 1.25785e-05 0.0868705)
(0.242302 1.6326e-05 0.0868529)
(0.242298 1.61831e-05 0.0868377)
(0.242294 6.68291e-06 0.0868236)
(0.291886 5.19056e-06 0.0700719)
(0.291926 2.84504e-05 0.0699711)
(0.291919 5.02174e-05 0.0699267)
(0.291898 5.51269e-05 0.0699049)
(0.291872 4.92139e-05 0.0698996)
(0.291846 2.05636e-05 0.0699117)
(0.334236 3.43142e-05 0.0258762)
(0.334261 9.14859e-05 0.0256951)
(0.334216 0.000118266 0.0256429)
(0.334155 0.000117596 0.0256459)
(0.334088 9.80593e-05 0.0256888)
(0.334013 4.08757e-05 0.0257734)
(0.372418 6.29205e-05 -0.0641623)
(0.372382 0.00015265 -0.064377)
(0.372269 0.000180778 -0.0643753)
(0.372145 0.000170618 -0.0642887)
(0.372023 0.000140063 -0.0641499)
(0.371883 5.96558e-05 -0.0639684)
(0.420867 9.69442e-05 -0.211177)
(0.420674 0.00020087 -0.211317)
(0.420427 0.000204873 -0.211166)
(0.420149 0.000162485 -0.21092)
(0.419947 0.000119544 -0.210644)
(0.419683 5.71375e-05 -0.210394)
(0.479832 0.000124991 -0.407687)
(0.479456 0.000229462 -0.407673)
(0.479125 0.000269206 -0.4075)
(0.478751 0.000153173 -0.407259)
(0.478556 9.2136e-05 -0.407125)
(0.478167 0.00010203 -0.40692)
(0.270889 -3.55744e-05 -0.668557)
(0.270361 -0.000203304 -0.668382)
(0.270136 -0.000149551 -0.6685)
(0.270043 -0.000301965 -0.667982)
(0.269803 -0.000380704 -0.668298)
(0.269653 -6.45702e-05 -0.668092)
(0.00675147 -0.000212071 -0.537301)
(0.00650823 -0.000601461 -0.537371)
(0.00634166 -0.000437861 -0.537694)
(0.00659831 -0.000274177 -0.537138)
(0.00625748 -0.000687446 -0.537608)
(0.00620807 -0.000475688 -0.537461)
(0.0250883 -9.65778e-07 0.128644)
(0.0250899 -2.26615e-06 0.128647)
(0.0250904 -2.48393e-06 0.128647)
(0.0250906 -2.3856e-06 0.128648)
(0.0250907 -1.65072e-06 0.128649)
(0.0250901 -6.50998e-07 0.128646)
(0.0769749 -1.84454e-06 0.133649)
(0.0769801 -3.26416e-06 0.133653)
(0.0769815 -2.61774e-06 0.133654)
(0.0769821 -1.8765e-06 0.133654)
(0.076982 -8.37892e-07 0.133654)
(0.07698 -1.17e-07 0.133649)
(0.134732 -2.77326e-06 0.143268)
(0.134743 -3.53341e-06 0.143274)
(0.134745 -8.34946e-07 0.143274)
(0.134745 9.28977e-07 0.143272)
(0.134743 2.26102e-06 0.14327)
(0.134738 1.35829e-06 0.143262)
(0.203976 -2.25766e-06 0.156789)
(0.203997 7.7168e-07 0.156783)
(0.203998 7.43183e-06 0.156776)
(0.203995 1.05322e-05 0.156768)
(0.203989 1.12819e-05 0.156758)
(0.203976 5.38739e-06 0.156743)
(0.292408 2.52553e-06 0.17387)
(0.292441 1.60352e-05 0.173832)
(0.292437 2.9582e-05 0.173807)
(0.292423 3.36693e-05 0.173788)
(0.292403 3.08511e-05 0.173773)
(0.292373 1.37223e-05 0.17376)
(0.407636 1.446e-05 0.194784)
(0.407681 4.762e-05 0.194693)
(0.407661 6.89249e-05 0.194646)
(0.407623 6.99938e-05 0.194625)
(0.407577 5.83804e-05 0.194623)
(0.407514 2.49808e-05 0.19464)
(0.554303 2.74778e-05 0.221178)
(0.554343 7.76385e-05 0.221033)
(0.554284 0.000100778 0.220982)
(0.554205 9.38928e-05 0.220986)
(0.554119 7.14198e-05 0.221031)
(0.554021 2.93903e-05 0.221118)
(0.717129 4.17306e-05 0.258173)
(0.717113 9.30707e-05 0.258049)
(0.716978 9.60294e-05 0.258047)
(0.716827 6.93536e-05 0.25812)
(0.716687 1.38703e-05 0.258254)
(0.716578 -9.01912e-06 0.258418)
(0.838501 4.10405e-05 0.302637)
(0.838388 5.94866e-05 0.302676)
(0.838233 4.25448e-05 0.302771)
(0.838091 -1.26521e-05 0.302956)
(0.837996 -0.000148181 0.303099)
(0.837955 -0.00010913 0.303317)
(0.803531 -6.61704e-05 0.123704)
(0.803255 -0.00029425 0.124021)
(0.803343 -0.000159945 0.123818)
(0.80308 -0.000414489 0.125471)
(0.803525 -0.000472314 0.124088)
(0.803277 9.51087e-06 0.125009)
(0.236505 -0.000146887 -0.627068)
(0.236336 -0.000873829 -0.626707)
(0.236808 0.000508156 -0.627704)
(0.235773 -0.000277623 -0.623964)
(0.238847 -0.000944367 -0.626659)
(0.235153 0.000542559 -0.626737)
(-0.268244 -0.000347385 0.459961)
(-0.268118 -0.00122346 0.460154)
(-0.267057 0.000679504 0.459057)
(-0.269289 0.00044223 0.459375)
(-0.26442 -0.00110914 0.460937)
(-0.270269 -9.15844e-06 0.45787)
(0.0221076 -6.96092e-07 0.173254)
(0.0221088 -1.29607e-06 0.173258)
(0.0221089 -1.00576e-06 0.173259)
(0.0221087 -7.6611e-07 0.173259)
(0.0221082 -2.08694e-07 0.17326)
(0.0221074 -3.15746e-08 0.173256)
(0.0674431 -8.78538e-07 0.181174)
(0.0674469 -8.6495e-07 0.181179)
(0.0674469 4.05695e-07 0.181179)
(0.0674459 1.18025e-06 0.181179)
(0.0674444 1.74432e-06 0.181178)
(0.0674414 9.31839e-07 0.181173)
(0.115444 -1.78838e-07 0.196632)
(0.11545 1.92846e-06 0.196636)
(0.115449 5.08344e-06 0.196635)
(0.115446 6.35054e-06 0.196632)
(0.115442 6.34481e-06 0.196628)
(0.115435 2.86694e-06 0.19662)
(0.166122 3.54335e-06 0.217532)
(0.166131 1.12619e-05 0.217526)
(0.166127 1.69328e-05 0.217516)
(0.166119 1.81683e-05 0.217507)
(0.16611 1.60366e-05 0.217497)
(0.166096 6.80729e-06 0.217483)
(0.217954 1.25209e-05 0.239098)
(0.217964 2.93719e-05 0.239069)
(0.217953 3.47574e-05 0.239045)
(0.217938 3.2966e-05 0.239028)
(0.217921 2.62382e-05 0.239014)
(0.217894 1.05892e-05 0.239005)
(0.268097 2.44518e-05 0.248975)
(0.268096 4.54631e-05 0.248912)
(0.268077 3.91266e-05 0.248876)
(0.268054 2.80996e-05 0.248863)
(0.268029 1.52313e-05 0.248862)
(0.267991 4.15589e-06 0.248877)
(0.313264 2.78512e-05 0.221483)
(0.313236 2.75935e-05 0.22139)
(0.313219 -9.93508e-06 0.221366)
(0.313197 -3.6915e-05 0.221384)
(0.31319 -4.89388e-05 0.221423)
(0.313151 -2.34693e-05 0.221484)
(0.353964 6.13947e-07 0.112836)
(0.353899 -7.5321e-05 0.11274)
(0.353949 -0.000156315 0.11277)
(0.35393 -0.000205208 0.112879)
(0.354077 -0.000197068 0.112974)
(0.353994 -7.47195e-05 0.113024)
(0.499149 -6.63731e-05 -0.274037)
(0.499024 -0.000329258 -0.274059)
(0.499564 -0.000339272 -0.27388)
(0.498387 -0.000519141 -0.273365)
(0.499854 -0.000484162 -0.273099)
(0.499199 -4.58636e-05 -0.274026)
(0.95473 -0.000124251 -1.16047)
(0.954473 -0.00140174 -1.16051)
(0.955504 0.00158215 -1.16007)
(0.952176 -0.000463071 -1.15945)
(0.955257 -0.00191348 -1.15836)
(0.954228 0.00140061 -1.16174)
(0.925424 0.000209373 -1.22073)
(0.928707 -0.00235853 -1.22177)
(0.934826 0.00534028 -1.22184)
(0.909865 0.0019068 -1.21985)
(0.934559 -0.00278027 -1.21847)
(0.925801 0.00350091 -1.22509)
(4.47714 0.000529914 -0.68475)
(4.48364 -0.00110041 -0.689101)
(4.49687 0.00236108 -0.696912)
(4.45122 0.00326879 -0.677732)
(4.48943 0.00311401 -0.698404)
(4.48164 0.00501584 -0.683996)
(0.0435728 3.54916e-05 -1.55086)
(0.0435809 2.27939e-05 -1.55128)
(0.0435807 -9.98081e-06 -1.55121)
(0.043583 -5.55516e-06 -1.5512)
(0.0435845 -3.313e-05 -1.55127)
(0.0435709 -3.96609e-05 -1.55086)
(-0.0226766 3.64956e-05 -1.6715)
(-0.0226795 3.24063e-05 -1.67178)
(-0.0226791 -7.2122e-06 -1.67174)
(-0.0226799 2.57162e-06 -1.67174)
(-0.0226808 -3.50106e-05 -1.67179)
(-0.0226788 -3.87554e-05 -1.6715)
(0.00114073 2.02615e-05 -1.57574)
(0.00114118 2.04106e-05 -1.57589)
(0.00114131 6.2068e-07 -1.57587)
(0.0011411 2.14359e-06 -1.57586)
(0.00114111 -1.87095e-05 -1.57588)
(0.00114068 -2.09798e-05 -1.57572)
(0.00525365 4.37781e-05 -1.57336)
(0.00527111 2.60349e-05 -1.57381)
(0.00527421 -7.71925e-06 -1.57373)
(0.00527195 -2.38979e-06 -1.57373)
(0.00526825 -3.66334e-05 -1.57381)
(0.00525331 -5.2176e-05 -1.57332)
(-0.142594 3.7385e-05 -1.67774)
(-0.142599 3.60851e-05 -1.67803)
(-0.1426 -8.22053e-06 -1.67798)
(-0.1426 1.87842e-06 -1.67798)
(-0.1426 -4.49055e-05 -1.67803)
(-0.142602 -4.53727e-05 -1.67772)
(0.00281974 2.10993e-05 -1.57405)
(0.0028198 2.07175e-05 -1.5742)
(0.00281923 5.77273e-07 -1.57418)
(0.00281873 2.13487e-06 -1.57418)
(0.0028184 -1.93652e-05 -1.5742)
(0.00281843 -2.24429e-05 -1.57404)
(0.167416 3.17002e-05 -1.25646)
(0.167413 1.66497e-05 -1.25691)
(0.167415 -7.21962e-06 -1.25683)
(0.167409 4.0594e-07 -1.25683)
(0.167403 -3.01982e-05 -1.25692)
(0.167407 -4.7355e-05 -1.25639)
(-0.214256 3.87898e-05 -1.56542)
(-0.214276 3.66151e-05 -1.56569)
(-0.214275 -1.10233e-05 -1.56565)
(-0.214272 -4.81901e-07 -1.56564)
(-0.214274 -5.09086e-05 -1.5657)
(-0.214254 -4.97501e-05 -1.5654)
(-0.000647312 2.08099e-05 -1.39566)
(-0.000647222 1.77284e-05 -1.3958)
(-0.000649617 -2.30066e-06 -1.39579)
(-0.000650829 -5.37764e-07 -1.39579)
(-0.000652265 -2.13842e-05 -1.39582)
(-0.000652693 -2.35137e-05 -1.39567)
(0.243446 2.45299e-05 -1.11028)
(0.243396 1.33757e-05 -1.11073)
(0.243404 -7.72212e-06 -1.11064)
(0.243402 4.63175e-07 -1.11065)
(0.243392 -3.09766e-05 -1.11074)
(0.243433 -4.72237e-05 -1.11026)
(-0.30247 3.79093e-05 -1.56057)
(-0.302496 3.20279e-05 -1.56084)
(-0.30249 -1.39504e-05 -1.56079)
(-0.302486 -4.03532e-08 -1.56079)
(-0.302488 -4.38887e-05 -1.56084)
(-0.30245 -4.32085e-05 -1.56057)
(-0.0236433 1.88445e-05 -1.30329)
(-0.0236388 1.21538e-05 -1.30345)
(-0.0236415 -6.75275e-06 -1.30343)
(-0.023642 -3.11682e-06 -1.30344)
(-0.0236416 -2.06202e-05 -1.30347)
(-0.0236458 -2.1688e-05 -1.30332)
(0.239799 2.19175e-05 -0.842495)
(0.239726 1.58691e-05 -0.842942)
(0.239737 2.08745e-06 -0.842866)
(0.239735 8.6019e-06 -0.842871)
(0.239717 -1.63181e-05 -0.842967)
(0.239775 -3.4815e-05 -0.842523)
(-0.409477 4.08134e-05 -1.4469)
(-0.409512 3.74292e-05 -1.44718)
(-0.409502 -8.15923e-06 -1.44714)
(-0.409497 8.91955e-06 -1.44714)
(-0.409503 -3.49127e-05 -1.44719)
(-0.409457 -3.95159e-05 -1.44692)
(-0.0952221 1.89224e-05 -1.11869)
(-0.0952132 1.24183e-05 -1.11885)
(-0.0952143 -5.07854e-06 -1.11884)
(-0.0952139 -4.29702e-08 -1.11884)
(-0.0952125 -1.52937e-05 -1.11886)
(-0.0952212 -1.83083e-05 -1.1187)
(-0.0799139 2.45394e-05 -0.83558)
(-0.0799534 1.35077e-05 -0.835939)
(-0.0799338 -1.12226e-05 -0.835875)
(-0.0799138 -1.2525e-07 -0.835867)
(-0.0799234 -9.95051e-06 -0.835914)
(-0.0798831 -2.81206e-05 -0.835565)
(-0.455591 3.3564e-05 -1.29775)
(-0.455624 3.04226e-05 -1.298)
(-0.455616 -4.34293e-06 -1.29797)
(-0.455613 7.20257e-06 -1.29797)
(-0.455618 -3.64059e-05 -1.29801)
(-0.455592 -3.84863e-05 -1.29775)
(-0.168596 1.75305e-05 -0.954373)
(-0.168585 1.46191e-05 -0.954513)
(-0.168592 -1.06516e-06 -0.954495)
(-0.168595 -1.28273e-06 -0.954495)
(-0.168599 -1.4888e-05 -0.954514)
(-0.168603 -1.4943e-05 -0.954355)
(-0.670657 1.72595e-05 -2.12042)
(-0.670722 2.4863e-05 -2.12079)
(-0.670753 8.20791e-06 -2.12072)
(-0.670833 3.30773e-05 -2.12076)
(-0.670799 5.35508e-06 -2.12085)
(-0.670751 -1.51811e-05 -2.12046)
(-0.392914 2.66107e-05 -0.82057)
(-0.392963 1.73497e-05 -0.820817)
(-0.392955 -5.15324e-06 -0.820794)
(-0.392918 7.14385e-06 -0.820791)
(-0.392911 -3.56661e-05 -0.820832)
(-0.392962 -3.72716e-05 -0.820626)
(-0.465854 1.64595e-05 -0.781228)
(-0.465838 3.70225e-06 -0.78136)
(-0.465851 -1.70953e-05 -0.781338)
(-0.465849 -1.55649e-05 -0.781356)
(-0.465855 -4.03397e-06 -0.781399)
(-0.465848 5.98182e-06 -0.781242)
(-2.95883 0.000132758 -1.89393)
(-2.959 0.000140159 -1.89485)
(-2.95908 6.48025e-05 -1.89448)
(-2.95913 0.000125253 -1.89431)
(-2.95906 1.69435e-05 -1.8946)
(-2.95895 -4.72984e-05 -1.89388)
(-2.10359 -1.0589e-05 -0.794411)
(-2.10366 -1.23213e-05 -0.794657)
(-2.10364 2.89317e-05 -0.794557)
(-2.10358 -4.46535e-05 -0.794494)
(-2.10363 1.49074e-05 -0.794434)
(-2.10362 8.69584e-05 -0.794564)
(-0.126414 5.06151e-06 -0.733262)
(-0.126426 -2.2053e-05 -0.733364)
(-0.126481 -4.24253e-05 -0.733375)
(-0.126482 -3.8618e-05 -0.733452)
(-0.126595 1.13241e-05 -0.733455)
(-0.126395 4.13831e-05 -0.733351)
(4.23663 0.00109919 7.52245)
(4.23662 0.000818588 7.52182)
(4.23632 -0.000119897 7.5223)
(4.2366 0.000639698 7.52236)
(4.23636 -0.000200666 7.52171)
(4.23708 -0.000753845 7.52309)
(0.249195 -0.000142077 5.31937)
(0.248313 7.26234e-05 5.31936)
(0.248509 0.000302845 5.31961)
(0.248792 -0.000182849 5.32004)
(0.248343 0.00038275 5.32004)
(0.249003 0.000622428 5.31984)
(-1.80419 -0.000363095 1.54063)
(-1.80439 -0.000285499 1.54104)
(-1.80448 5.2966e-05 1.54101)
(-1.80436 -0.000418979 1.54128)
(-1.80444 0.000361732 1.54205)
(-1.80435 0.000742316 1.54039)
(-2.64629 -8.46312e-05 5.21797)
(-2.64005 -0.00035964 5.23423)
(-2.64214 -0.000106496 5.22741)
(-2.64172 0.000278277 5.22648)
(-2.63845 0.000456592 5.23173)
(-2.64468 0.000300301 5.22256)
(2.8699 -0.000349384 7.74843)
(2.86834 -0.000582933 7.75387)
(2.86929 -0.000243664 7.75201)
(2.86866 -0.000315878 7.75187)
(2.86454 0.000666391 7.75168)
(2.87515 0.000902102 7.75237)
(5.89571 -0.000717311 8.67326)
(5.89222 -0.000693982 8.67503)
(5.89378 0.000259216 8.67495)
(5.89356 -0.000500745 8.67543)
(5.88977 0.000838047 8.6761)
(5.89804 0.00151191 8.67445)
(-1.78061 -0.000468913 -1.75144)
(-1.77529 -0.000159624 -1.74284)
(-1.77756 0.000452335 -1.74727)
(-1.77851 -0.000475718 -1.74979)
(-1.77703 0.000333622 -1.74561)
(-1.77902 0.000958326 -1.75041)
(-4.79928 -0.00203436 -0.477755)
(-4.79886 -0.000874452 -0.474694)
(-4.79969 0.00149579 -0.475641)
(-4.80033 -0.00101628 -0.476767)
(-4.80397 0.001071 -0.477319)
(-4.7953 0.00234649 -0.474362)
(-3.8269 -0.000831676 5.44642)
(-3.83033 -0.000436988 5.44255)
(-3.82912 0.00071975 5.44393)
(-3.82981 -0.000140804 5.44364)
(-3.83492 0.00041538 5.43851)
(-3.82289 0.000772538 5.44983)
(0.783209 2.62824e-05 0.232965)
(0.784008 8.47779e-05 0.234384)
(0.783805 1.5439e-05 0.233873)
(0.78365 -5.296e-05 0.233786)
(0.784099 1.9455e-05 0.234137)
(0.783325 4.27172e-06 0.233567)
(-0.828247 -0.000625733 -2.92207)
(-0.826208 -0.000231776 -2.91311)
(-0.827064 0.000713278 -2.91655)
(-0.828067 0.000781598 -2.91723)
(-0.829953 -0.000682738 -2.91565)
(-0.824775 -0.00120457 -2.9183)
(-1.18348 6.67449e-05 -7.93051)
(-1.18419 0.000290362 -7.9343)
(-1.18321 0.000669129 -7.93345)
(-1.1826 0.000747717 -7.93203)
(-1.18162 0.000884551 -7.93449)
(-1.18217 0.000565778 -7.93305)
(7.15387 -0.00131915 -4.94715)
(7.1521 -0.00306827 -4.95407)
(7.15004 0.00140918 -4.95564)
(7.16478 -0.00972357 -4.93984)
(7.17253 0.010143 -4.93663)
(7.14061 0.0248327 -4.95762)
(6.55434 0.000307786 -1.38788)
(6.56623 0.00311878 -1.39311)
(6.56037 -0.0153811 -1.3835)
(6.5634 -0.0339301 -1.39997)
(6.59139 0.0302925 -1.41745)
(6.51845 0.0482591 -1.36756)
(5.79511 0.00395495 8.24161)
(5.8258 0.00771335 8.24244)
(5.83145 -0.0286401 8.22628)
(5.77331 -0.0584882 8.25811)
(5.75638 0.0328317 8.24905)
(5.86875 0.060331 8.23612)
(5.71579 -0.0010598 -3.6241)
(5.7153 -0.00238237 -3.62353)
(5.71458 0.00184231 -3.62287)
(5.7204 -0.00533267 -3.62426)
(5.72511 0.00436022 -3.6079)
(5.70375 0.0129721 -3.64401)
(7.40683 -0.00211327 -2.42121)
(7.40709 -0.00199953 -2.42586)
(7.40514 -0.0041234 -2.42026)
(7.40468 -0.0181448 -2.43661)
(7.40429 0.0290836 -2.4882)
(7.42943 0.0458658 -2.35271)
(6.6086 0.00243704 -6.79713)
(6.6477 0.00242805 -6.8428)
(6.64054 -0.00283948 -6.83084)
(6.59003 -0.00913259 -6.85094)
(6.73444 0.0451327 -7.01769)
(6.76535 0.0538966 -6.38357)
(3.87705 7.93477e-05 -2.15373)
(3.8766 -8.84864e-05 -2.1539)
(3.87537 -0.000116521 -2.15424)
(3.87744 -0.00190968 -2.15312)
(3.87329 -0.00135831 -2.14509)
(3.88063 -0.000403986 -2.15857)
(5.4015 0.00034683 -4.7972)
(5.39686 0.00112699 -4.79268)
(5.39504 0.00554889 -4.78648)
(5.40733 0.00669623 -4.81537)
(5.40522 0.0158153 -4.82817)
(5.44415 0.0151793 -4.81028)
(4.39939 0.00431288 -6.93687)
(4.40068 0.00870406 -6.94037)
(4.4042 0.0149743 -6.92713)
(4.39314 0.0237809 -6.96718)
(4.38307 0.052987 -6.93237)
(4.45938 0.0400724 -6.965)
(1.78656 0.000170132 -1.43502)
(1.7872 0.000516984 -1.43599)
(1.78698 0.000289873 -1.4359)
(1.78553 0.000881718 -1.43387)
(1.78328 -0.000123994 -1.43208)
(1.78572 -0.00133945 -1.43667)
(4.1887 -0.000783019 -2.11687)
(4.18874 -0.000586327 -2.11513)
(4.18944 0.000170997 -2.11476)
(4.18936 -0.00381057 -2.11563)
(4.18995 0.00731296 -2.11128)
(4.19255 0.0106633 -2.11772)
(3.11968 0.00167113 -5.17028)
(3.12239 0.00422905 -5.17385)
(3.12564 0.00817229 -5.17275)
(3.1326 0.00929529 -5.18596)
(3.14534 0.0163174 -5.20699)
(3.16933 0.0114034 -5.17506)
(0.96211 0.000204649 -0.270655)
(0.961754 0.000324898 -0.271615)
(0.961729 7.61387e-05 -0.271514)
(0.962179 0.000658863 -0.269491)
(0.963298 -0.000956088 -0.264751)
(0.960667 -0.00155694 -0.274652)
(3.1246 -0.000493783 -1.07777)
(3.12483 -0.000230735 -1.07595)
(3.12503 -0.000303415 -1.07672)
(3.12404 -0.00286533 -1.07463)
(3.12389 0.0036468 -1.07135)
(3.12782 0.00595507 -1.08036)
(2.0953 0.000510728 -4.61728)
(2.09669 0.0018798 -4.61974)
(2.09878 0.00391254 -4.61812)
(2.09883 0.00540898 -4.62689)
(2.10054 0.00744731 -4.63918)
(2.11517 0.00483964 -4.61817)
(0.948121 3.09089e-05 0.672759)
(0.947954 0.000231347 0.671513)
(0.948182 0.000100481 0.672197)
(0.947925 0.000770145 0.672304)
(0.94848 -0.000743185 0.67172)
(0.947227 -0.00163436 0.672826)
(1.83105 -0.000316798 -0.910759)
(1.83175 -6.56056e-05 -0.907873)
(1.83151 0.00028475 -0.909178)
(1.83096 1.00822e-05 -0.908517)
(1.82924 0.000286605 -0.905484)
(1.83346 0.000297198 -0.912308)
(0.450326 3.72951e-05 -5.14106)
(0.451851 0.00067181 -5.14263)
(0.452863 0.00134131 -5.14236)
(0.453096 0.00136742 -5.14199)
(0.452658 0.00345621 -5.14516)
(0.461039 0.00287983 -5.1454)
(0.0182498 -7.11759e-08 0.210876)
(0.0182501 -2.00533e-07 0.210881)