/*--------------------------------*- C++ -*----------------------------------*\
| =========                 |                                                 |
| \\      /  F ield         | OpenFOAM: The Open Source CFD Toolbox           |
|  \\    /   O peration     | Version:  v1612+                                |
|   \\  /    A nd           | Web:      www.OpenFOAM.com                      |
|    \\/     M anipulation  |                                                 |
\*---------------------------------------------------------------------------*/
FoamFile
{
    version     2.0;
    format      ascii;
    class       volScalarField;
    location    "3.05";
    object      alpha.water;
}
// * * * * * * * * * * * * * * * * * * * * * * * * * * * * * * * * * * * * * //

dimensions      [0 0 0 0 0 0 0];

internalField   nonuniform List<scalar> 
1116
(
0.859173
0.859169
0.85917
0.859168
0.859165
0.85917
0.860596
0.860591
0.860592
0.860591
0.860587
0.860592
0.874497
0.874491
0.874493
0.874491
0.874488
0.874493
0.900004
0.899997
0.9
0.899999
0.899996
0.900001
0.925717
0.92571
0.925712
0.925711
0.925709
0.925714
0.944582
0.944577
0.944577
0.944576
0.944574
0.944578
0.955655
0.955649
0.955648
0.955647
0.955646
0.955649
0.970437
0.970433
0.970432
0.970431
0.97043
0.970432
0.973114
0.973114
0.973114
0.973114
0.973114
0.973114
0.973116
0.973116
0.973116
0.973116
0.973116
0.973116
0.973116
0.973116
0.973116
0.973116
0.973116
0.973116
0.969584
0.969584
0.969584
0.969585
0.969586
0.969581
0.259967
0.259968
0.259966
0.259964
0.259964
0.259964
0.137733
0.137732
0.137733
0.13773
0.137728
0.137733
0.113317
0.113315
0.113315
0.113314
0.113312
0.113316
0.135223
0.13522
0.135221
0.135219
0.135217
0.135221
0.181387
0.181383
0.181383
0.181383
0.18138
0.181384
0.247313
0.247308
0.24731
0.247309
0.247307
0.247312
0.326672
0.326666
0.326668
0.326668
0.326667
0.32667
0.352913
0.352909
0.35291
0.35291
0.352911
0.352912
0.410549
0.410539
0.410541
0.410541
0.410541
0.410545
0.645845
0.645815
0.645824
0.645825
0.645819
0.645836
0.955941
0.95593
0.955933
0.955933
0.95593
0.955939
0.969547
0.969548
0.969547
0.969548
0.96955
0.969544
3.03557e-08
3.03556e-08
3.03563e-08
3.03579e-08
3.036e-08
3.03611e-08
1.00353e-08
1.00349e-08
1.0035e-08
1.0034e-08
1.0033e-08
1.00347e-08
7.35866e-09
7.35841e-09
7.35853e-09
7.35775e-09
7.35703e-09
7.358e-09
3.51208e-09
3.51215e-09
3.51216e-09
3.512e-09
3.51182e-09
3.51156e-09
3.92929e-10
3.92948e-10
3.92937e-10
3.92913e-10
3.9289e-10
3.92823e-10
4.72954e-11
4.72966e-11
4.72947e-11
4.72921e-11
4.7289e-11
4.72804e-11
5.07853e-12
5.07858e-12
5.07803e-12
5.07848e-12
5.07811e-12
5.07516e-12
-1.00719e-11
-1.00597e-11
-1.0067e-11
-1.00771e-11
-1.00879e-11
-1.00631e-11
-4.98717e-08
-4.94328e-08
-4.93254e-08
-4.92603e-08
-4.93238e-08
-4.98244e-08
0.00545989
0.00545284
0.00545528
0.00545555
0.00545445
0.00545736
0.583545
0.583487
0.583502
0.583506
0.583497
0.583524
0.943362
0.943358
0.943364
0.943357
0.943348
0.94338
5.74276e-07
5.74288e-07
5.74381e-07
5.74481e-07
5.74493e-07
5.74461e-07
3.94673e-06
3.94649e-06
3.94657e-06
3.94657e-06
3.94643e-06
3.94686e-06
1.24023e-08
1.24041e-08
1.24017e-08
1.24016e-08
1.24054e-08
1.24017e-08
1.4328e-07
1.43248e-07
1.43253e-07
1.43218e-07
1.4319e-07
1.43284e-07
1.53235e-07
1.53227e-07
1.53226e-07
1.53222e-07
1.53216e-07
1.53215e-07
1.45553e-09
1.45657e-09
1.45602e-09
1.45573e-09
1.4556e-09
1.45323e-09
1.4087e-12
1.4087e-12
1.40871e-12
1.40946e-12
1.409e-12
1.40768e-12
1.32764e-12
1.32735e-12
1.32749e-12
1.32807e-12
1.32731e-12
1.32648e-12
-2.46612e-06
-2.46647e-06
-2.46639e-06
-2.46642e-06
-2.46661e-06
-2.46625e-06
6.68941e-05
6.68858e-05
6.68899e-05
6.68897e-05
6.68877e-05
6.68943e-05
0.0523858
0.0523513
0.052358
0.0523622
0.0523558
0.0523744
0.931173
0.931148
0.931151
0.931163
0.931178
0.931146
3.12115e-60
3.1272e-60
3.12677e-60
3.12679e-60
3.12784e-60
3.12133e-60
7.8384e-56
7.84764e-56
7.84497e-56
7.84499e-56
7.84872e-56
7.83552e-56
1.03741e-51
1.03682e-51
1.03593e-51
1.03585e-51
1.03657e-51
1.03541e-51
1.27752e-47
1.27393e-47
1.27109e-47
1.27251e-47
1.28155e-47
1.26471e-47
1.14656e-41
1.14469e-41
1.14289e-41
1.15106e-41
1.18009e-41
1.13089e-41
4.47866e-37
4.5177e-37
4.5372e-37
4.58968e-37
4.72272e-37
4.53959e-37
2.00928e-33
2.06909e-33
2.09756e-33
2.13264e-33
2.19831e-33
2.11071e-33
1.64977e-30
1.74587e-30
1.78304e-30
1.81152e-30
1.8529e-30
1.75288e-30
1.42085e-28
1.54884e-28
1.57479e-28
1.56322e-28
1.54384e-28
1.38512e-28
1.01003e-30
1.10097e-30
1.10816e-30
1.08742e-30
1.0609e-30
9.44115e-31
3.95818e-30
3.96632e-30
3.96712e-30
3.96917e-30
3.97405e-30
3.97392e-30
1.91122e-27
1.9159e-27
1.91611e-27
1.91624e-27
1.9169e-27
1.91439e-27
2.34462e-57
2.34916e-57
2.34882e-57
2.34881e-57
2.34955e-57
2.34465e-57
5.82412e-53
5.83332e-53
5.83186e-53
5.83175e-53
5.83396e-53
5.82317e-53
7.4308e-49
7.43651e-49
7.43276e-49
7.43213e-49
7.43567e-49
7.42436e-49
2.58066e-44
2.57686e-44
2.56831e-44
2.57504e-44
2.61559e-44
2.52206e-44
3.21258e-38
3.21536e-38
3.21095e-38
3.23163e-38
3.30763e-38
3.16111e-38
9.2454e-34
9.3101e-34
9.32952e-34
9.41359e-34
9.65425e-34
9.24017e-34
3.51152e-30
3.57439e-30
3.5986e-30
3.63966e-30
3.73368e-30
3.56784e-30
2.76623e-27
2.84921e-27
2.87506e-27
2.90283e-27
2.95997e-27
2.80089e-27
2.76633e-25
2.8801e-25
2.89461e-25
2.87161e-25
2.86576e-25
2.62209e-25
2.94677e-27
3.04906e-27
3.06131e-27
3.04938e-27
3.05759e-27
2.82037e-27
5.81922e-27
5.82892e-27
5.82889e-27
5.83044e-27
5.83599e-27
5.83308e-27
1.7913e-24
1.79488e-24
1.79474e-24
1.79454e-24
1.79476e-24
1.79205e-24
6.72319e-55
6.73633e-55
6.73552e-55
6.73564e-55
6.73789e-55
6.72394e-55
1.63602e-50
1.63898e-50
1.63872e-50
1.63874e-50
1.63933e-50
1.63618e-50
1.9798e-46
1.9827e-46
1.98218e-46
1.98215e-46
1.98294e-46
1.97948e-46
4.43615e-41
4.43337e-41
4.4173e-41
4.43216e-41
4.51822e-41
4.31231e-41
3.56605e-35
3.57247e-35
3.56784e-35
3.58984e-35
3.67089e-35
3.5031e-35
6.35937e-31
6.39214e-31
6.39649e-31
6.44555e-31
6.59833e-31
6.301e-31
1.76825e-27
1.78681e-27
1.79205e-27
1.80791e-27
1.85049e-27
1.76509e-27
1.17556e-24
1.19327e-24
1.19715e-24
1.20605e-24
1.22944e-24
1.16649e-24
1.40703e-22
1.42167e-22
1.42479e-22
1.41664e-22
1.43391e-22
1.34174e-22
3.5447e-21
3.43255e-21
3.15348e-21
2.89343e-21
1.96642e-21
2.03805e-21
3.88773e-23
3.82144e-23
3.62112e-23
3.42215e-23
2.78922e-23
2.748e-23
8.14189e-22
8.15512e-22
8.15337e-22
8.15137e-22
8.15091e-22
8.13781e-22
8.85582e-53
8.87311e-53
8.87217e-53
8.87244e-53
8.87548e-53
8.85721e-53
2.08898e-48
2.09297e-48
2.09274e-48
2.09281e-48
2.09353e-48
2.08942e-48
2.36001e-44
2.36422e-44
2.36389e-44
2.36392e-44
2.36472e-44
2.36025e-44
5.28982e-38
5.28902e-38
5.27008e-38
5.28798e-38
5.39229e-38
5.13675e-38
2.49855e-32
2.50326e-32
2.4995e-32
2.51404e-32
2.5688e-32
2.44908e-32
2.90882e-28
2.91788e-28
2.91577e-28
2.93464e-28
2.99982e-28
2.86065e-28
6.17067e-25
6.19917e-25
6.19829e-25
6.24065e-25
6.37755e-25
6.07948e-25
3.52035e-22
3.53879e-22
3.53693e-22
3.559e-22
3.62927e-22
3.45668e-22
4.79556e-20
4.7636e-20
4.80129e-20
4.76377e-20
4.89571e-20
4.65434e-20
6.81404e-18
6.76081e-18
6.59247e-18
6.6668e-18
4.34418e-18
6.43934e-18
2.40207e-19
2.0822e-19
1.71977e-19
2.05919e-19
1.14103e-19
1.99673e-19
8.14197e-22
8.1552e-22
8.15343e-22
8.15144e-22
8.15095e-22
8.13788e-22
4.13482e-07
4.13418e-07
4.13549e-07
4.13695e-07
4.13718e-07
4.13719e-07
1.83546e-08
1.83428e-08
1.83475e-08
1.83528e-08
1.83557e-08
1.83674e-08
-2.02665e-15
-2.21974e-15
-2.27848e-15
-2.22782e-15
-2.21466e-15
-2.2677e-15
4.59015e-06
4.59017e-06
4.59019e-06
4.59022e-06
4.59024e-06
4.59024e-06
1.51284e-06
1.51202e-06
1.51242e-06
1.51233e-06
1.51147e-06
1.51304e-06
-1.10015e-14
-1.2049e-14
-1.23686e-14
-1.20935e-14
-1.2022e-14
-1.23111e-14
5.11635e-07
5.11621e-07
5.11608e-07
5.11677e-07
5.11748e-07
5.117e-07
4.41624e-08
4.41472e-08
4.41514e-08
4.4156e-08
4.41521e-08
4.41736e-08
-7.40124e-14
-8.1062e-14
-8.32098e-14
-8.13588e-14
-8.08792e-14
-8.28175e-14
1.54138e-07
1.53989e-07
1.54021e-07
1.53894e-07
1.53851e-07
1.54287e-07
5.57049e-19
5.57454e-19
5.57377e-19
5.58047e-19
5.58273e-19
5.56716e-19
-5.38172e-14
-5.89395e-14
-6.04991e-14
-5.91501e-14
-5.88012e-14
-6.02087e-14
1.91061e-07
1.91061e-07
1.91059e-07
1.91057e-07
1.91054e-07
1.91052e-07
4.75957e-08
4.75436e-08
4.75467e-08
4.75258e-08
4.74968e-08
4.75425e-08
-2.01778e-15
-2.2113e-15
-2.27169e-15
-2.22051e-15
-2.20652e-15
-2.23978e-15
3.53002e-08
3.52962e-08
3.52936e-08
3.52901e-08
3.52861e-08
3.52838e-08
2.51664e-18
2.51242e-18
2.51366e-18
2.5133e-18
2.51172e-18
2.51731e-18
-5.15696e-18
-5.63304e-18
-5.78249e-18
-5.65577e-18
-5.6199e-18
-5.70049e-18
8.35368e-13
8.34078e-13
8.35183e-13
8.36915e-13
8.38505e-13
8.34643e-13
-7.02166e-16
-7.00648e-16
-7.01719e-16
-7.02958e-16
-7.04125e-16
-7.0263e-16
-6.49091e-18
-6.41641e-18
-6.46451e-18
-6.50423e-18
-6.47704e-18
-6.66707e-18
-3.43365e-12
-3.4272e-12
-3.43223e-12
-3.4393e-12
-3.44655e-12
-3.42993e-12
-6.08351e-14
-6.06922e-14
-6.08138e-14
-6.09172e-14
-6.09961e-14
-6.07662e-14
-2.33362e-15
-2.32026e-15
-2.3296e-15
-2.33629e-15
-2.33014e-15
-2.36636e-15
-1.59479e-07
-1.59459e-07
-1.59469e-07
-1.59502e-07
-1.59566e-07
-1.59399e-07
-8.21541e-13
-8.33811e-13
-8.50338e-13
-8.20731e-13
-8.27312e-13
-8.32166e-13
-7.31974e-13
-7.2835e-13
-7.30371e-13
-7.31766e-13
-7.29322e-13
-7.40193e-13
6.14523e-06
6.14519e-06
6.14504e-06
6.14536e-06
6.14592e-06
6.14523e-06
-1.79916e-07
-1.79988e-07
-1.79976e-07
-1.79857e-07
-1.79666e-07
-1.80169e-07
7.72267e-18
-6.74774e-13
-2.89278e-12
-2.93541e-12
-5.22176e-12
-2.31927e-11
7.35034e-05
7.34921e-05
7.34963e-05
7.35006e-05
7.35061e-05
7.34927e-05
6.31052e-06
6.31022e-06
6.3105e-06
6.31076e-06
6.31078e-06
6.3096e-06
3.32817e-07
3.3282e-07
3.32857e-07
3.32888e-07
3.32872e-07
3.32881e-07
0.587484
0.587463
0.587469
0.587436
0.587366
0.587537
0.0513369
0.0513178
0.0513198
0.051361
0.0514479
0.0512208
2.02088e-05
2.02092e-05
2.02088e-05
2.02096e-05
2.02112e-05
2.02083e-05
2.70189e-08
2.70477e-08
2.69495e-08
2.73823e-08
2.82919e-08
2.58372e-08
4.86199e-08
4.84544e-08
4.74248e-08
5.20574e-08
6.36601e-08
3.65102e-08
5.60656e-40
5.69839e-40
5.68921e-40
5.5285e-40
3.04492e-41
7.09888e-40
6.84472e-05
6.51673e-05
6.44413e-05
7.02859e-05
8.64866e-05
4.44374e-05
2.57775e-07
2.57151e-07
2.55481e-07
2.64464e-07
2.8471e-07
2.36247e-07
0.0121495
0.0122547
0.0122693
0.0119722
0.0124821
0.0108215
0.0221465
0.022067
0.0220427
0.02224
0.0226433
0.0214618
0.131002
0.130561
0.130503
0.131159
0.133008
0.12812
0.118762
0.118374
0.118145
0.119692
0.121232
0.118336
0.051325
0.0513191
0.0513094
0.0514093
0.0513952
0.0514668
0.384762
0.384876
0.384963
0.385173
0.385367
0.385367
0.0917411
0.0920765
0.0921488
0.091015
0.0894561
0.0930972
0.512899
0.512814
0.512759
0.51322
0.514212
0.511924
0.358077
0.358344
0.358419
0.357562
0.355497
0.360704
0.00418481
0.00418568
0.00418567
0.00418659
0.00418783
0.00418375
0.583718
0.583707
0.583704
0.583686
0.583678
0.583767
0.113006
0.11298
0.112974
0.113035
0.113112
0.112854
0.00206023
0.00206019
0.00206032
0.00206124
0.0020619
0.00206059
4.60451e-51
4.61342e-51
4.61298e-51
4.61314e-51
4.61472e-51
4.6053e-51
7.92373e-53
7.93995e-53
7.93984e-53
7.94015e-53
7.94237e-53
7.92554e-53
3.16752e-56
3.17436e-56
3.17427e-56
3.17441e-56
3.17536e-56
3.16836e-56
1.03931e-46
1.04131e-46
1.04122e-46
1.04126e-46
1.04161e-46
1.03956e-46
3.61504e-48
3.62226e-48
3.62225e-48
3.62239e-48
3.62332e-48
3.61606e-48
1.66247e-51
1.66595e-51
1.66592e-51
1.66597e-51
1.66643e-51
1.66292e-51
1.06995e-42
1.07195e-42
1.07184e-42
1.07186e-42
1.07219e-42
1.07011e-42
7.76039e-44
7.77514e-44
7.77506e-44
7.77517e-44
7.77686e-44
7.76195e-44
4.46563e-47
4.47459e-47
4.47448e-47
4.47456e-47
4.47562e-47
4.46654e-47
3.72121e-35
3.72103e-35
3.70756e-35
3.71971e-35
3.79247e-35
3.61146e-35
1.79689e-32
1.79675e-32
1.79017e-32
1.79591e-32
1.83081e-32
1.74334e-32
8.14349e-30
8.14609e-30
8.11966e-30
8.14983e-30
8.31019e-30
7.91483e-30
9.88951e-30
9.90703e-30
9.89026e-30
9.94564e-30
1.01578e-29
9.68133e-30
2.85652e-27
2.86125e-27
2.85611e-27
2.87187e-27
2.93251e-27
2.79505e-27
5.06971e-25
5.07765e-25
5.0682e-25
5.09609e-25
5.20305e-25
4.95997e-25
6.42582e-26
6.43946e-26
6.43023e-26
6.46808e-26
6.60678e-26
6.29769e-26
1.02489e-23
1.02671e-23
1.02496e-23
1.0308e-23
1.05254e-23
1.00337e-23
8.73453e-22
8.74903e-22
8.73326e-22
8.78292e-22
8.96649e-22
8.54969e-22
8.56745e-23
8.58786e-23
8.57577e-23
8.62709e-23
8.8099e-23
8.39827e-23
7.84158e-21
7.85548e-21
7.84135e-21
7.88657e-21
8.05098e-21
7.67668e-21
3.03836e-19
3.04339e-19
3.03763e-19
3.05519e-19
3.11821e-19
2.97433e-19
3.24031e-20
3.24782e-20
3.24222e-20
3.26115e-20
3.32393e-20
3.17257e-20
1.62118e-18
1.62393e-18
1.62068e-18
1.63008e-18
1.6581e-18
1.58668e-18
2.32372e-17
2.32745e-17
2.32268e-17
2.33628e-17
2.38331e-17
2.27499e-17
3.32545e-18
3.25096e-18
3.32389e-18
3.25174e-18
3.39933e-18
3.24612e-18
6.75187e-17
6.21997e-17
6.74753e-17
6.20317e-17
6.90816e-17
6.59701e-17
1.65726e-17
1.65436e-17
1.65728e-17
1.65369e-17
1.62651e-17
1.65723e-17
7.8649e-16
7.80797e-16
7.61332e-16
7.80968e-16
3.82788e-16
7.64091e-16
1.32025e-14
1.32493e-14
1.32295e-14
1.32891e-14
2.02409e-17
1.2735e-14
1.49514e-17
1.25701e-17
1.49513e-17
1.24949e-17
1.46058e-17
1.48496e-17
2.40176e-19
2.08185e-19
1.71977e-19
2.05831e-19
1.14103e-19
1.99594e-19
6.7669e-19
6.4186e-19
5.94847e-19
4.69504e-19
3.06508e-19
4.6905e-19
4.58706e-18
4.65133e-18
4.55676e-18
4.77851e-18
4.69198e-19
3.48431e-18
6.71629e-18
6.71629e-18
-2.33339e-16
-1.57331e-16
-9.52497e-17
6.71001e-18
1.12476e-18
1.12707e-18
1.12457e-18
1.13339e-18
1.16988e-18
1.08888e-18
5.36158e-29
5.42774e-29
5.42149e-29
5.12192e-29
2.77636e-30
6.5926e-29
)
;

boundaryField
{
    seabed_topleft_surface
    {
        type            zeroGradient;
    }
    seabed_topright_surface
    {
        type            zeroGradient;
    }
    breakwater_top_surface
    {
        type            zeroGradient;
    }
    breakwater_left_surface
    {
        type            zeroGradient;
    }
    breakwater_right_surface
    {
        type            zeroGradient;
    }
    water_front_surface
    {
        type            zeroGradient;
    }
    water_back_surface
    {
        type            zeroGradient;
    }
    water_left_surface
    {
        type            zeroGradient;
    }
    water_right_surface
    {
        type            zeroGradient;
    }
    water_top_surface
    {
        type            inletOutlet;
        inletValue      uniform 0;
        value           nonuniform List<scalar> 
180
(
0
0
0
0
0
0
0
0
0
0
0
0
0
0
0
0
0
0
0
0
0
0
0
0
0
0
0
0
0
0
0
0
0
0
0
0
0
0
0
0
0
0
0
0
0
0
0
0
0
0
0
0
0
0
7.72267e-18
-6.74774e-13
-2.89278e-12
-2.93541e-12
-5.22176e-12
-2.31927e-11
3.32817e-07
3.3282e-07
3.32857e-07
3.32888e-07
3.32872e-07
3.32881e-07
2.02088e-05
2.02092e-05
2.02088e-05
2.02096e-05
2.02112e-05
2.02083e-05
0
0
0
0
0
0
0.0121495
0.0122547
0.0122693
0.0119722
0.0124821
0.0108215
0.118762
0.118374
0.118145
0.119692
0.121232
0.118336
0.0917411
0.0920765
0.0921488
0.091015
0.0894561
0.0930972
0.00418481
0.00418568
0.00418567
0.00418659
0.00418783
0.00418375
0.00206023
0.00206019
0.00206032
0.00206124
0.0020619
0.00206059
0
0
0
0
0
0
0
0
0
0
0
0
0
0
0
0
0
0
0
0
0
0
0
0
0
0
0
0
0
0
0
0
0
0
0
0
0
0
0
0
0
0
0
0
0
0
0
0
0
0
0
0
0
0
0
0
0
0
0
0
0
0
0
0
0
0
0
0
0
0
0
0
)
;
    }
}


// ************************************************************************* //
