/*--------------------------------*- C++ -*----------------------------------*\
| =========                 |                                                 |
| \\      /  F ield         | OpenFOAM: The Open Source CFD Toolbox           |
|  \\    /   O peration     | Version:  v1612+                                |
|   \\  /    A nd           | Web:      www.OpenFOAM.com                      |
|    \\/     M anipulation  |                                                 |
\*---------------------------------------------------------------------------*/
FoamFile
{
    version     2.0;
    format      ascii;
    class       surfaceScalarField;
    location    "1.4";
    object      alphaPhi;
}
// * * * * * * * * * * * * * * * * * * * * * * * * * * * * * * * * * * * * * //

dimensions      [0 3 -1 0 0 0 0];

internalField   nonuniform List<scalar> 
816
(
-3.35606e-08
1.6611e-06
7.78383e-07
1.63552e-06
3.6488e-06
-7.69049e-06
1.17388e-06
4.8074e-07
1.99205e-06
3.23667e-06
-6.88612e-06
1.00833e-06
2.61807e-06
-8.85966e-07
4.59158e-07
-1.51148e-06
3.09955e-07
1.28827e-06
-6.19843e-07
1.18996e-06
2.06682e-10
9.52865e-11
1.28182e-06
3.29116e-10
-1.435e-10
3.66295e-10
2.58205e-06
3.21815e-10
1.08125e-10
3.29187e-10
2.6505e-07
-4.30163e-11
3.83891e-10
1.04412e-10
-6.30556e-06
1.06725e-10
-4.74878e-10
-7.88227e-11
-6.44673e-06
-4.96386e-11
-2.21127e-10
-9.27739e-11
-8.86517e-06
-2.75605e-12
3.66214e-10
-5.41789e-10
6.35368e-12
-9.63337e-11
7.2317e-11
-1.01837e-09
-4.66171e-06
-4.13916e-11
-1.19501e-10
4.12814e-10
-8.32397e-06
7.68846e-11
-1.15411e-10
2.419e-10
-2.66531e-06
6.25082e-11
1.81348e-10
4.18326e-10
1.54861e-06
7.46505e-11
1.21152e-10
-9.48035e-06
2.3999e-10
-1.53847e-10
-1.32255e-06
7.65618e-06
-1.93927e-06
1.57762e-06
-1.96782e-06
4.88946e-06
-1.14287e-06
3.79343e-06
1.50642e-06
2.10844e-06
8.08087e-07
1.03336e-07
5.24995e-06
9.58222e-07
4.13957e-07
1.83015e-06
-7.76338e-06
1.34459e-06
-3.22826e-06
-2.07379e-06
-2.59736e-06
-2.08958e-06
-5.37291e-06
-1.41746e-06
-3.47077e-07
-1.06914e-07
1.35105e-06
7.98567e-07
-1.23372e-06
-1.3592e-07
-2.39074e-06
1.37035e-06
-5.76831e-06
-1.46606e-06
-5.26607e-06
-1.1742e-06
-3.59241e-06
3.26509e-07
2.44227e-06
9.20337e-07
-1.20245e-06
5.36157e-06
-1.00414e-07
2.45517e-06
-2.80592e-06
8.33312e-07
1.58285e-06
8.52733e-07
4.15613e-08
5.09001e-08
-1.3825e-06
1.54424e-07
-1.9084e-07
-7.99838e-07
3.64239e-07
1.06477e-06
8.39398e-08
-6.91749e-07
1.61924e-07
1.91142e-06
5.25093e-07
1.02311e-06
9.78428e-07
-1.53399e-06
-4.59551e-07
-5.1031e-07
-2.84185e-06
-6.31015e-07
-4.1397e-07
4.96048e-08
1.54919e-06
5.21797e-07
2.14154e-08
-1.11033e-06
1.36143e-06
-1.23049e-06
-3.02181e-06
6.52995e-07
-1.64998e-06
-3.00826e-07
7.58539e-07
-1.50141e-07
3.01627e-07
4.44702e-08
8.73476e-07
1.00016e-07
2.9958e-07
7.88709e-07
-9.73297e-09
1.11092e-06
4.4988e-07
8.77997e-07
1.24791e-06
4.69375e-07
2.87419e-07
1.33985e-06
1.11087e-06
6.17745e-07
1.6944e-06
-6.71979e-07
-7.84496e-08
1.6651e-07
4.92588e-07
-2.13871e-07
3.96852e-08
-1.4313e-07
-5.69237e-07
-2.62114e-07
-1.88482e-07
-1.17341e-07
-1.71459e-07
4.26795e-07
-5.17701e-07
-2.203e-08
6.03481e-09
1.25425e-06
7.46715e-07
2.77054e-07
9.02298e-07
-4.55238e-07
-5.65191e-07
-8.16872e-07
2.38236e-09
-2.61429e-07
-8.68123e-07
2.70152e-07
5.29977e-07
4.17637e-07
3.32518e-08
1.12136e-06
-3.19182e-07
-7.19349e-07
2.15659e-07
-1.81406e-06
-6.80365e-07
-2.81429e-07
-5.6728e-07
2.24212e-07
3.65185e-07
2.02336e-07
6.97756e-08
7.45639e-08
2.94427e-07
-4.59622e-08
2.45848e-10
-3.71002e-10
-3.33977e-06
2.8986e-10
1.70924e-10
-3.73652e-06
1.84615e-10
-3.73384e-11
6.55411e-07
2.33178e-10
-3.26724e-10
2.40302e-06
2.54702e-10
3.739e-10
2.92168e-12
2.02675e-10
-6.84842e-10
1.68229e-10
-8.22578e-06
2.72476e-10
-1.53481e-10
-6.48388e-06
-1.15148e-10
-3.19731e-10
-4.65503e-06
-1.02391e-10
-1.65866e-11
4.90118e-12
-6.97968e-11
-1.36956e-10
1.72955e-06
2.63066e-10
4.14273e-11
-4.22128e-10
-5.01302e-06
2.97182e-10
-5.86208e-10
-4.44301e-06
2.081e-10
-2.42681e-10
-6.94264e-06
-1.77748e-10
-2.39575e-10
-1.78658e-05
-6.75182e-11
5.32826e-11
2.00282e-06
-1.28629e-10
-4.88176e-10
6.38371e-10
1.29205e-06
4.73365e-10
1.40147e-10
-6.86518e-06
-4.28296e-12
-1.06254e-10
-5.43466e-06
-2.05952e-10
-2.25848e-11
-9.13584e-06
-6.54399e-10
-5.12652e-06
1.40374e-10
-1.12467e-09
-1.39072e-06
-2.21224e-06
2.26419e-06
-5.45569e-07
-2.20739e-06
1.3725e-07
-3.78266e-06
1.9727e-06
3.41061e-06
3.98985e-06
1.71789e-06
5.16236e-06
2.48932e-06
3.57407e-06
1.20475e-06
-2.09995e-06
-3.34816e-06
-6.25586e-07
-4.51452e-07
-8.09962e-07
-2.29348e-06
5.94363e-07
-3.13613e-06
-5.93106e-06
2.35338e-06
-5.30096e-06
-5.12879e-06
2.94994e-06
-4.47862e-06
5.1693e-06
-1.91137e-06
1.7063e-06
-3.53853e-06
1.091e-06
-7.03901e-08
-3.89218e-06
-2.41429e-06
-1.36302e-06
-2.05679e-07
-3.39472e-06
-5.62637e-06
-4.87632e-07
-7.72348e-06
-4.34625e-06
-5.60465e-06
3.75374e-06
5.56542e-06
-3.12731e-06
-4.83926e-06
6.2325e-06
1.57649e-07
-1.99945e-06
1.74825e-06
-7.08959e-07
-3.93324e-06
8.72466e-08
2.30623e-06
-4.17687e-06
-3.19231e-06
-2.33735e-06
-5.87744e-06
-2.79863e-06
-4.0792e-06
-5.48247e-06
-8.90591e-07
1.706e-06
8.08531e-07
9.3994e-07
-7.80123e-07
4.98931e-07
-3.11872e-07
9.34781e-08
2.1388e-06
7.63132e-07
1.50498e-06
2.3896e-06
6.59784e-07
-2.83654e-07
1.04546e-07
1.46074e-06
1.42266e-06
-2.97104e-07
-5.88909e-07
2.98512e-07
-6.4572e-08
2.80097e-07
1.09621e-06
3.22592e-07
8.36923e-07
6.70213e-07
1.35192e-06
9.43987e-07
3.43835e-07
5.58403e-07
-1.00088e-06
-7.10875e-07
5.91486e-07
4.58169e-07
-3.86625e-07
-9.71378e-09
3.82672e-07
-1.22033e-06
4.45673e-07
-1.60135e-06
-3.34395e-06
1.05372e-06
-3.18732e-06
-1.74168e-06
-3.78346e-07
9.16805e-07
3.12882e-06
-3.42238e-07
-1.33144e-06
5.69757e-07
1.57546e-07
-1.28211e-06
1.23734e-07
-3.73989e-07
-1.48295e-08
1.18923e-06
1.34775e-06
7.65796e-07
5.37038e-07
-1.32453e-06
4.27343e-07
-9.75919e-07
-3.36611e-07
7.63386e-07
-6.50636e-07
1.00702e-06
1.73258e-07
3.55204e-07
-3.73591e-07
3.8675e-07
-7.21552e-07
5.20759e-07
7.24707e-07
4.12182e-07
1.44822e-06
8.26651e-07
1.15168e-07
-8.02209e-08
1.3439e-07
5.79878e-07
9.159e-07
-3.75485e-07
-1.56806e-07
-1.65065e-07
-6.53931e-08
1.69609e-07
5.43662e-07
1.87858e-07
1.72478e-07
-4.21459e-08
4.38046e-07
4.22547e-07
2.72122e-07
6.15337e-07
-2.47824e-07
-6.76278e-07
-2.53403e-07
3.46638e-07
-1.9801e-07
-1.84325e-07
8.86733e-08
-4.53014e-07
1.3661e-08
-1.62914e-06
-1.11551e-06
5.95221e-07
-2.56802e-06
-4.48653e-07
-1.39715e-07
8.56107e-07
9.66867e-07
-3.71624e-07
-8.85999e-07
4.32552e-07
1.61549e-07
-1.42018e-06
9.98021e-08
3.35317e-08
-6.57508e-07
9.49948e-07
4.49028e-07
2.43469e-07
-5.80826e-08
-4.07271e-07
3.8417e-07
-2.16472e-07
-4.63668e-07
6.64335e-07
7.49467e-08
7.35444e-07
5.21537e-08
3.78003e-07
3.88389e-07
6.85294e-08
7.15715e-07
3.17388e-07
7.65643e-07
-4.39331e-07
1.60571e-07
3.20757e-07
7.70641e-08
-2.95821e-08
-2.6573e-07
4.13382e-08
-7.13186e-08
2.13828e-07
-2.87582e-07
1.2035e-07
7.73709e-07
4.30801e-07
4.79012e-07
-1.1565e-07
-4.34348e-07
-4.09456e-08
8.58305e-08
-7.3353e-08
3.71575e-07
-2.3318e-07
5.89247e-07
-2.41298e-07
1.56666e-07
-8.46799e-07
-1.07804e-07
-3.76606e-07
2.27904e-07
1.01399e-07
6.63938e-08
9.12342e-08
-3.8827e-07
4.41815e-07
1.95122e-07
-9.97244e-08
-1.55539e-07
2.99829e-07
2.60981e-07
6.97681e-07
1.40345e-07
1.00338e-08
3.37478e-07
4.87552e-07
-8.92147e-08
7.05594e-08
9.45792e-08
4.15409e-07
1.108e-07
3.93469e-08
3.62566e-07
1.26522e-07
2.76797e-07
-2.22577e-07
6.89125e-08
7.25994e-08
9.64583e-08
-1.1357e-07
9.61938e-08
-9.67735e-07
3.09644e-07
-1.28455e-06
-4.08595e-09
3.35892e-07
-1.32931e-07
-5.41504e-07
1.82936e-07
-5.65961e-07
7.02169e-08
-2.41593e-07
4.61413e-07
1.52042e-07
1.94247e-08
1.29923e-07
-7.15856e-08
3.33015e-07
2.04278e-10
-4.3453e-10
-3.71387e-07
1.03485e-10
-2.62193e-06
1.84734e-10
2.2733e-06
6.71242e-11
-2.35741e-06
-1.99862e-10
-4.01382e-06
-1.08477e-09
-2.86868e-06
3.94883e-10
-2.47454e-07
1.26035e-09
1.13534e-06
1.12687e-10
-3.73071e-06
-1.61962e-10
3.78003e-07
9.67187e-11
2.01859e-06
5.11913e-10
2.04672e-06
2.61582e-10
-1.32343e-06
-2.78245e-10
-3.31748e-06
-3.54158e-11
2.88808e-06
-3.00873e-10
1.00784e-11
-1.25343e-09
-4.77544e-06
-4.32652e-10
-6.67451e-06
-2.78262e-10
8.65079e-07
-2.82062e-10
-2.43263e-06
3.462e-10
-9.06974e-07
4.91975e-10
3.70655e-06
1.44755e-10
3.28873e-10
-2.93338e-10
1.07698e-11
-4.85591e-10
9.98783e-07
-1.52221e-10
1.48348e-07
6.214e-10
5.59426e-08
2.72351e-06
2.51005e-06
-7.42076e-06
2.03001e-07
-1.48898e-06
-1.43887e-06
3.43124e-06
2.94264e-06
2.71418e-06
-5.40881e-07
-1.02876e-06
7.91472e-07
-2.46291e-06
-3.79941e-06
-3.38371e-07
-4.26841e-06
2.29919e-06
-1.29264e-06
-2.56747e-06
6.44185e-07
-4.41905e-06
-1.01468e-07
9.61396e-07
-2.75238e-06
5.17839e-06
-1.34753e-06
8.66226e-07
2.45516e-06
-3.8584e-06
7.80521e-07
2.35359e-06
-2.64207e-07
3.50351e-06
7.32298e-08
-1.62758e-06
-5.58793e-07
-4.08433e-06
-6.82236e-06
-2.9773e-06
-1.23511e-06
6.11055e-07
4.30294e-06
-1.38365e-06
1.92089e-06
3.24061e-06
4.55464e-06
1.64282e-06
4.63791e-06
1.85591e-07
1.27706e-06
1.04912e-06
-1.22539e-06
-1.58804e-06
-2.69775e-06
-3.48012e-06
-3.60632e-06
-7.09631e-09
-7.74854e-07
3.10823e-07
3.33914e-07
-4.93623e-07
-7.6731e-07
1.0312e-08
2.13796e-06
5.66489e-07
-3.23509e-07
1.43797e-06
5.77677e-07
5.88583e-07
-1.4956e-06
-1.00557e-06
-2.67327e-06
-3.27325e-07
-5.58249e-07
2.21674e-07
3.9011e-07
8.35899e-07
3.79215e-07
-3.42499e-07
-8.99891e-07
-4.59417e-07
-8.83783e-07
1.79181e-07
1.10976e-06
3.86871e-07
5.71053e-07
2.42768e-07
4.37556e-07
3.6636e-07
-5.7057e-08
3.25927e-07
-7.45942e-08
-1.70944e-06
-3.73817e-06
-2.42072e-06
-8.89645e-07
-9.69839e-07
2.51272e-06
-3.51035e-07
1.30586e-06
7.5339e-07
2.1239e-06
1.19495e-06
2.90303e-06
1.18125e-06
1.27152e-06
9.26905e-07
-2.05351e-07
6.32794e-07
-1.97792e-06
-1.04968e-07
-2.10397e-06
2.05576e-07
-3.33314e-07
1.75494e-07
3.44617e-08
-4.90225e-07
-2.36257e-07
3.77895e-07
5.59947e-07
6.02689e-07
-1.31584e-07
1.17966e-06
1.14418e-07
8.29604e-07
-5.63323e-07
-1.10197e-06
-7.38088e-07
-5.41115e-07
-2.0038e-07
-2.88041e-07
-2.72456e-08
6.60535e-07
-2.86085e-08
5.32682e-08
-3.40948e-07
-3.70036e-07
-1.99488e-07
-2.45619e-07
3.04205e-07
2.64073e-07
7.90226e-08
4.30292e-07
3.28819e-10
4.76159e-07
-2.9733e-07
4.85203e-07
-7.69386e-08
-1.48303e-06
-1.18709e-06
-2.24427e-06
-2.76347e-07
-8.87255e-07
7.96841e-07
-1.45802e-07
5.78828e-07
2.56733e-07
8.1318e-07
9.12035e-07
8.06531e-07
1.26643e-06
2.47499e-07
1.3223e-06
-2.33205e-08
2.97793e-07
-5.66567e-07
-5.60068e-07
-5.72673e-07
-1.68525e-07
-2.09673e-07
1.80333e-07
-2.36361e-07
1.73563e-07
3.07074e-07
5.64371e-07
3.37389e-07
-4.02881e-07
-1.10915e-07
-6.43109e-08
3.28902e-07
3.45311e-08
-3.87121e-08
2.06078e-08
1.04293e-07
1.8527e-07
-2.07998e-08
-1.38687e-08
-9.07183e-07
-1.19263e-06
-5.41598e-07
3.23143e-08
2.81936e-07
5.17553e-07
5.19361e-07
6.46545e-07
2.12938e-07
-1.99984e-08
6.78503e-10
2.96814e-10
4.84497e-06
1.08029e-10
3.32364e-06
5.27055e-10
2.34836e-06
-2.83411e-06
3.25082e-06
2.69437e-06
3.11867e-06
3.30983e-06
)
;

boundaryField
{
    top_fluid_surface
    {
        type            calculated;
        value           nonuniform List<scalar> 
64
(
0
0
0
4.36196e-10
4.3867e-10
0
3.35958e-10
2.49142e-10
0
0
0
3.69846e-10
1.13322e-10
1.44921e-10
1.6043e-10
0
0
2.41168e-10
4.69508e-10
1.71096e-10
0
0
2.35013e-10
0
0
1.39762e-10
3.23413e-10
0
3.80516e-10
4.83441e-10
2.62051e-10
1.52903e-10
2.72314e-10
3.512e-10
7.49644e-11
3.46361e-10
5.12345e-10
4.26653e-10
0
0
5.19418e-10
1.82638e-10
0
0
3.184e-10
4.31839e-10
0
4.23304e-10
4.7018e-10
0
0
0
0
0
4.08095e-10
3.39423e-10
0
0
0
0
0
0
0
3.68259e-10
)
;
    }
    bottom_fluid_surface
    {
        type            calculated;
        value           uniform 0;
    }
    lateral_surface_1
    {
        type            calculated;
        value           uniform 0;
    }
    lateral_surface_2
    {
        type            calculated;
        value           uniform 0;
    }
    lateral_surface_3
    {
        type            calculated;
        value           uniform 0;
    }
    lateral_surface_4
    {
        type            calculated;
        value           uniform 0;
    }
}


// ************************************************************************* //
