/*--------------------------------*- C++ -*----------------------------------*\
| =========                 |                                                 |
| \\      /  F ield         | OpenFOAM: The Open Source CFD Toolbox           |
|  \\    /   O peration     | Version:  v1612+                                |
|   \\  /    A nd           | Web:      www.OpenFOAM.com                      |
|    \\/     M anipulation  |                                                 |
\*---------------------------------------------------------------------------*/
FoamFile
{
    version     2.0;
    format      ascii;
    class       volVectorField;
    location    "1.4";
    object      U;
}
// * * * * * * * * * * * * * * * * * * * * * * * * * * * * * * * * * * * * * //

dimensions      [0 1 -1 0 0 0 0];

internalField   nonuniform List<vector> 
320
(
(-1.77124e-06 -1.83714e-08 -7.39258e-06)
(1.66544e-06 1.23122e-07 -6.2313e-06)
(8.7936e-07 2.97461e-06 -1.41111e-06)
(9.95173e-07 1.78358e-06 1.40082e-06)
(-9.05716e-06 -0.000113531 -7.24676e-05)
(0.000114083 -4.35799e-05 -9.34976e-05)
(0.000105496 6.75134e-05 -5.2163e-05)
(0.000116329 8.72605e-05 9.29391e-05)
(1.55141e-05 -3.16042e-05 9.3539e-05)
(1.25143e-05 6.56981e-06 -3.78332e-05)
(8.55484e-05 -8.23207e-05 6.80058e-05)
(0.000222419 -1.16428e-05 4.70608e-05)
(0.000141345 -5.59193e-05 -0.000125431)
(-3.34099e-05 -8.84202e-05 -2.99232e-05)
(-7.5663e-05 -5.32986e-05 -0.000261306)
(-4.73116e-05 -9.08546e-05 6.69597e-05)
(-7.06622e-06 -4.44945e-06 3.12028e-06)
(3.53881e-06 -1.37905e-06 2.25546e-06)
(7.79758e-06 1.94167e-06 -8.6192e-07)
(7.36282e-06 1.08208e-06 -1.00342e-06)
(1.56921e-06 1.24365e-06 2.22193e-06)
(2.83548e-06 2.47725e-06 4.76124e-06)
(2.13148e-06 8.38126e-07 -1.7501e-06)
(-1.96048e-06 4.23393e-06 1.76832e-06)
(2.47824e-06 5.22452e-07 6.21348e-06)
(-4.27371e-06 3.18735e-06 -2.25797e-06)
(-5.57982e-06 -3.95077e-06 1.42255e-07)
(-6.46905e-06 -5.69097e-06 -1.81219e-06)
(2.15699e-07 -1.4234e-06 1.71592e-06)
(-2.11838e-07 -9.06701e-07 7.50408e-07)
(-5.71816e-08 8.70076e-07 -4.16736e-07)
(1.66633e-06 1.18865e-06 -1.80768e-07)
(-4.45888e-07 2.39174e-06 3.135e-06)
(-1.10506e-07 -2.90948e-07 5.18223e-06)
(1.08257e-06 5.3889e-07 -1.74914e-06)
(-1.1989e-06 1.75351e-06 2.28658e-06)
(1.13566e-06 1.28739e-06 5.20946e-06)
(5.05087e-07 1.21128e-06 -1.77308e-06)
(-1.34985e-06 -5.40515e-07 -3.2748e-08)
(-3.62355e-07 -1.14989e-07 -8.85262e-08)
(-1.01234e-06 -1.83182e-07 -1.48313e-06)
(1.03061e-06 -7.17219e-08 -1.45686e-06)
(5.8843e-07 2.10458e-06 5.49152e-09)
(5.10986e-07 7.66491e-07 1.69079e-07)
(2.24443e-07 -6.18441e-07 1.48032e-07)
(-2.42743e-07 -3.50559e-07 7.875e-08)
(1.32789e-08 3.00224e-07 -1.67265e-07)
(1.24852e-06 5.70548e-07 -3.47591e-07)
(-2.10244e-07 1.79275e-06 6.49222e-07)
(5.16004e-07 3.98521e-08 9.41703e-07)
(7.18772e-07 4.503e-07 -3.14283e-07)
(-1.12861e-06 1.26287e-06 3.89466e-07)
(1.08351e-06 5.26062e-07 6.5111e-07)
(7.21062e-07 8.82762e-07 -4.38214e-07)
(-5.95748e-07 -4.35708e-07 -1.05215e-07)
(8.65597e-08 -1.90886e-07 -1.43252e-07)
(5.593e-05 -5.48082e-05 2.56113e-05)
(8.26439e-05 -6.85102e-05 2.88477e-05)
(2.52849e-05 -0.000112702 3.60405e-05)
(-5.47258e-05 -3.44333e-05 -0.000173783)
(-0.000154016 2.81431e-05 -4.58051e-05)
(0.000111609 0.000127568 5.64511e-05)
(-1.32167e-05 -5.9703e-06 9.84074e-05)
(-3.86007e-05 -9.98268e-05 3.02497e-05)
(-1.58901e-05 -4.80832e-05 -3.90518e-05)
(3.59332e-05 4.0772e-05 -3.22676e-05)
(4.97283e-05 0.000142997 3.19985e-05)
(0.000182684 4.76796e-05 -2.59578e-05)
(0.000101977 -2.30708e-05 -1.65462e-05)
(4.54095e-05 6.1567e-05 3.28013e-05)
(0.000101367 4.32554e-05 -0.000172646)
(-9.81302e-05 -9.03538e-05 -0.000105638)
(-3.3959e-06 -0.000128307 8.04926e-05)
(4.63835e-05 2.295e-05 0.000106925)
(0.000164981 1.8062e-05 5.03333e-05)
(0.000227691 -9.07128e-06 3.13657e-05)
(3.83981e-07 1.535e-06 -2.36167e-06)
(-4.02427e-06 1.46401e-06 4.40274e-08)
(-4.07968e-07 -5.00805e-06 -3.06398e-06)
(4.7843e-06 -1.70892e-06 -4.65408e-06)
(-1.6738e-06 3.68524e-06 -1.65369e-06)
(1.66776e-06 1.19917e-06 -6.79979e-07)
(-2.1e-06 -1.73138e-06 -1.71643e-06)
(-4.89692e-06 -3.58793e-06 -2.75097e-06)
(-5.97401e-06 -6.2812e-06 -2.8207e-06)
(-2.28237e-06 -5.78627e-06 2.70034e-06)
(-5.55017e-06 -3.5009e-06 -8.80745e-07)
(2.51309e-06 1.62193e-06 1.04205e-06)
(1.6973e-06 -3.18953e-07 5.69174e-06)
(6.26644e-06 -3.92169e-06 3.76012e-06)
(7.29101e-06 -4.00474e-06 -4.65955e-06)
(3.62913e-06 -6.30624e-06 4.49754e-07)
(2.51876e-06 -2.9624e-06 -4.46008e-08)
(1.35786e-06 -1.84426e-06 -3.24386e-06)
(5.31848e-06 1.51437e-06 1.22901e-06)
(5.90327e-06 5.59681e-06 2.41065e-06)
(-1.26485e-06 -6.37499e-07 -1.67196e-06)
(-9.79509e-07 9.19548e-07 -3.86094e-07)
(-6.27999e-07 2.05913e-08 -3.60983e-06)
(8.18717e-07 2.41849e-07 -4.47173e-06)
(1.88346e-06 -8.31679e-07 -3.13647e-07)
(3.65994e-07 -5.90432e-08 1.36099e-06)
(9.74473e-07 -2.65549e-07 1.25524e-07)
(-9.92383e-08 6.72912e-09 -1.54531e-06)
(-8.69708e-07 9.52893e-07 -2.03812e-06)
(-8.04105e-07 1.31067e-06 1.55005e-06)
(-3.1886e-08 -4.07887e-07 9.05068e-07)
(-1.04928e-06 9.38273e-07 2.01283e-06)
(1.30871e-07 1.52117e-06 5.76563e-06)
(3.49658e-06 -2.50384e-07 3.69939e-06)
(2.34673e-06 -8.37399e-07 -5.46079e-06)
(2.10476e-06 -1.23798e-06 -6.16648e-07)
(-1.53248e-07 4.89083e-07 1.11482e-06)
(-4.16438e-07 -8.85804e-07 -2.02821e-06)
(-8.19712e-07 -1.3384e-06 2.73411e-06)
(-1.30996e-06 3.88688e-07 2.24846e-06)
(-7.87778e-07 -1.00016e-07 -3.24855e-07)
(-8.52665e-07 1.51918e-06 -3.45132e-07)
(1.11942e-07 3.66154e-07 -7.95597e-07)
(1.05005e-06 4.75473e-07 -1.09168e-06)
(1.4853e-06 -1.95277e-07 -4.56823e-07)
(-3.69079e-08 -1.5209e-07 -9.94849e-08)
(7.18651e-07 -2.95245e-07 -4.92687e-07)
(-3.64728e-07 3.3973e-08 -4.10218e-07)
(-4.38549e-07 5.40176e-07 -6.82411e-07)
(-8.34173e-07 1.50844e-07 2.3745e-07)
(-1.20368e-07 -3.90786e-07 7.65879e-08)
(-7.12032e-07 7.23653e-07 2.88091e-07)
(5.12668e-07 1.12293e-06 1.08185e-06)
(3.02721e-06 -1.92181e-07 5.78433e-07)
(1.76659e-06 -8.12139e-07 -8.91914e-07)
(2.18851e-06 -1.04328e-06 -1.0729e-07)
(6.37561e-07 4.25321e-07 -3.72852e-08)
(1.29389e-07 -8.17684e-07 -4.35265e-07)
(-5.52693e-07 -8.10472e-07 3.64475e-07)
(-7.64906e-07 7.95663e-07 4.13255e-07)
(-4.2977e-07 1.15496e-07 -6.79153e-07)
(5.99104e-07 5.2576e-08 -5.36792e-07)
(3.27321e-07 1.11885e-06 1.8574e-07)
(2.76815e-07 5.09446e-07 2.72341e-07)
(5.32891e-08 -2.25265e-07 4.86696e-07)
(3.81969e-08 -1.51495e-07 3.85774e-07)
(8.45176e-08 1.85304e-07 1.70184e-07)
(6.12235e-07 3.54114e-07 -2.26221e-07)
(-1.46277e-08 9.82747e-07 3.69619e-07)
(2.08621e-07 1.38062e-07 5.19133e-07)
(4.63001e-07 2.72411e-07 -3.59626e-07)
(-2.70124e-07 5.58388e-07 3.01718e-07)
(6.83153e-07 2.10204e-07 5.18992e-07)
(5.28083e-07 3.49799e-07 -9.45733e-09)
(-2.70327e-07 -2.21456e-07 4.09395e-08)
(6.6636e-09 -1.70129e-07 1.80353e-07)
(-4.1924e-07 -5.93393e-08 -3.05812e-08)
(-4.48404e-07 5.71896e-07 -3.38384e-07)
(1.88535e-07 1.4829e-07 -3.9437e-07)
(4.7478e-07 2.16007e-07 -3.70289e-07)
(7.43029e-07 -7.8593e-08 1.81435e-07)
(1.427e-07 -1.40406e-08 2.95909e-07)
(4.61315e-07 -4.65693e-08 4.29587e-08)
(-8.51226e-08 1.05832e-07 -1.97608e-09)
(-2.26472e-07 2.47929e-07 -8.20557e-08)
(-3.34461e-07 3.08296e-07 2.56349e-07)
(-3.91098e-08 6.79294e-08 1.96004e-07)
(-1.43511e-07 4.31128e-07 3.7242e-07)
(3.89528e-07 5.77062e-07 8.19999e-07)
(1.53616e-06 1.86469e-08 2.66817e-07)
(9.69878e-07 -2.92299e-07 -6.72862e-07)
(9.12886e-07 -4.49693e-07 -1.17561e-07)
(3.28934e-07 1.6537e-07 -4.95606e-08)
(4.58043e-08 -4.05924e-07 -3.86736e-07)
(-1.4001e-07 -3.74178e-07 3.12628e-07)
(-3.01291e-07 2.66009e-07 -1.60216e-08)
(0.000177059 -8.84223e-05 5.67203e-05)
(1.22344e-05 -0.000122136 6.98834e-05)
(4.88634e-05 -4.47276e-05 3.87979e-05)
(8.01574e-05 -8.83836e-05 4.10476e-05)
(-3.55195e-05 -9.96685e-05 0.000138773)
(-0.00017664 -0.000107821 0.000108816)
(-0.000196763 -7.71219e-05 -0.000164281)
(-0.000166433 0.000252969 -0.000152818)
(2.83659e-05 0.000208803 0.000143177)
(-8.57069e-05 -6.2919e-05 2.90124e-05)
(-2.85815e-05 -3.41802e-05 -6.10599e-05)
(-2.02546e-05 8.11335e-05 -7.95048e-05)
(0.000100538 0.000172243 6.77227e-05)
(0.00011096 -2.51744e-06 0.000109984)
(1.32457e-05 -1.28886e-05 -4.56652e-05)
(5.87545e-06 2.02319e-05 0.000117649)
(0.000252032 3.09781e-05 0.000104764)
(0.000208217 -4.88749e-05 -9.73021e-05)
(7.53509e-05 -7.55164e-05 -2.69717e-05)
(3.81486e-05 -7.8698e-05 -1.0931e-05)
(2.29837e-05 -1.21952e-05 -0.000315545)
(8.94639e-05 -7.49197e-05 -8.59985e-05)
(-9.53676e-05 -0.000160909 8.89603e-05)
(1.91104e-05 5.61232e-05 7.6182e-05)
(8.89862e-05 0.000114864 -1.51376e-05)
(0.000110877 9.04261e-05 -0.000121871)
(0.000161286 -4.23933e-05 -0.000190298)
(7.72102e-05 -0.000172657 -2.84279e-05)
(8.77824e-06 1.71916e-06 -3.42609e-07)
(-2.33639e-06 -6.02853e-08 5.17576e-07)
(-5.23295e-07 4.43956e-06 -2.67153e-06)
(6.71176e-06 -3.56119e-06 -4.19483e-08)
(-8.95417e-07 -2.68015e-06 -1.73737e-06)
(-2.35982e-06 2.1187e-06 2.97346e-06)
(-1.5351e-06 -1.99411e-06 5.72696e-06)
(-5.64789e-06 2.3189e-06 2.65228e-06)
(-2.90164e-06 1.51547e-06 -1.73133e-06)
(-5.33173e-06 -5.48277e-06 3.60811e-08)
(-6.65304e-06 -2.63044e-06 3.00987e-06)
(-4.37396e-06 5.09168e-06 2.63639e-06)
(4.72008e-06 3.54318e-06 -3.10095e-06)
(4.95573e-06 -1.4937e-06 -1.63632e-06)
(1.07007e-06 -1.72933e-06 1.09069e-06)
(-4.57303e-06 -4.84614e-06 -3.73064e-07)
(-1.0507e-06 -2.70647e-06 3.78122e-07)
(3.58313e-06 -1.28223e-06 7.00851e-06)
(6.1639e-06 -4.59226e-06 2.00637e-06)
(4.27488e-07 -1.17989e-06 -3.75573e-06)
(-1.78999e-06 2.2712e-06 -1.63633e-06)
(1.66103e-06 -7.19933e-07 -2.93903e-06)
(1.49486e-06 -4.24994e-06 -5.17717e-06)
(3.71759e-06 9.16199e-07 -1.97928e-06)
(5.37354e-06 -1.15094e-06 1.62031e-06)
(4.41089e-06 -1.14571e-06 4.06168e-06)
(2.71337e-06 4.99436e-06 5.47918e-06)
(3.80885e-06 2.81449e-06 1.00655e-06)
(-1.5226e-07 1.49648e-07 -2.08355e-07)
(-8.9319e-07 -9.64289e-07 1.75029e-06)
(-4.42378e-07 -2.22001e-07 -3.67293e-06)
(4.65839e-07 -1.50143e-06 8.46709e-07)
(7.95041e-07 -1.31586e-06 -3.89348e-07)
(1.39293e-06 -1.47777e-06 3.26933e-06)
(1.03032e-07 -8.25344e-07 4.24234e-06)
(7.5546e-07 -7.85105e-07 6.48732e-07)
(1.49624e-07 -3.89056e-08 -1.3767e-07)
(7.75625e-07 7.23437e-07 8.80932e-08)
(1.13859e-06 5.47551e-07 1.82821e-06)
(1.31643e-06 -9.95806e-07 7.94844e-07)
(-8.10126e-07 -2.03949e-07 -1.96454e-06)
(-1.9821e-07 5.36864e-07 -4.81021e-07)
(-6.6576e-07 -7.50665e-08 -5.40662e-07)
(2.61921e-07 3.98508e-07 8.72441e-08)
(-8.46452e-07 -3.68864e-07 4.801e-07)
(-1.02529e-08 1.95663e-07 6.60637e-06)
(3.49424e-06 -2.27772e-07 1.00356e-06)
(1.7515e-06 1.98023e-07 -4.5195e-06)
(-1.77028e-07 3.67471e-07 -2.06478e-06)
(-7.56192e-09 1.0285e-07 -4.55411e-06)
(7.63203e-07 -1.21252e-06 -5.1102e-06)
(1.77902e-08 -1.30992e-06 -1.35765e-06)
(-1.03579e-06 -1.20698e-06 4.87491e-07)
(-3.03388e-07 -1.0085e-06 2.56593e-06)
(-7.05895e-07 3.00085e-08 3.06965e-06)
(-6.62104e-07 1.93438e-07 -9.51341e-07)
(1.51363e-07 1.37888e-07 1.61804e-07)
(-6.36957e-07 -4.90559e-07 2.54955e-07)
(-2.41727e-07 -1.29348e-08 -3.41891e-07)
(8.00962e-07 -1.1015e-06 1.12451e-07)
(5.74709e-07 -7.01956e-07 -2.24715e-07)
(1.42738e-06 -6.26155e-07 5.9612e-07)
(4.72257e-07 -6.4404e-07 5.31789e-07)
(4.54372e-07 -9.88815e-07 4.07333e-08)
(-3.2128e-07 -4.66419e-07 7.41063e-09)
(1.40043e-07 2.42728e-07 4.61899e-08)
(2.16691e-07 6.35547e-07 5.57397e-07)
(7.41615e-07 -4.29593e-07 2.44316e-07)
(-7.53078e-07 -5.97769e-07 -3.94754e-07)
(-6.99928e-09 1.02999e-07 7.29408e-08)
(-6.45534e-07 -6.4308e-07 2.47666e-07)
(-5.68047e-08 -8.56405e-08 4.1202e-07)
(-7.94946e-07 -7.06644e-07 1.6516e-07)
(-2.12775e-07 -2.72678e-09 1.24856e-06)
(3.01858e-06 1.87985e-08 3.3747e-07)
(1.81346e-06 5.89875e-09 -6.87938e-07)
(-4.12267e-08 -2.80705e-08 -4.25899e-07)
(-7.51956e-08 1.82868e-07 -8.23635e-07)
(9.53779e-07 -6.02966e-07 -5.66168e-07)
(3.65117e-07 -1.17636e-06 -2.83229e-08)
(-6.47898e-07 -1.62596e-06 1.96859e-07)
(-4.4316e-07 -1.08518e-06 4.22352e-07)
(-9.22606e-07 6.04039e-07 5.97208e-07)
(-6.34783e-07 4.2571e-07 4.11749e-07)
(-2.69058e-08 -9.70419e-08 -2.55769e-07)
(-2.99224e-07 -2.85528e-07 1.31089e-07)
(-1.54341e-07 -2.17059e-07 -5.31571e-07)
(3.94085e-07 -5.79592e-07 1.23771e-07)
(3.114e-07 -4.2261e-07 -1.05237e-07)
(6.18799e-07 -4.16213e-07 3.83288e-07)
(1.60015e-07 -2.98381e-07 6.89422e-07)
(2.77847e-07 -2.60092e-07 3.62191e-07)
(-2.1484e-08 -9.6409e-08 -3.4705e-08)
(1.95478e-07 1.26291e-07 -3.38683e-08)
(1.51376e-07 2.9496e-07 5.16892e-08)
(3.84606e-07 -1.11277e-07 2.7455e-07)
(-2.0783e-07 -3.77471e-08 -2.99011e-07)
(3.85626e-08 1.075e-07 -2.78597e-07)
(-3.32149e-07 -1.38892e-07 -2.67912e-07)
(8.57894e-08 1.05188e-07 3.62661e-08)
(-4.61309e-08 -2.63791e-07 -7.38642e-08)
(1.42357e-07 7.80827e-09 8.03763e-07)
(1.55251e-06 -1.66206e-08 2.87277e-07)
(9.91915e-07 -8.54074e-09 -6.57902e-07)
(8.43921e-08 -3.86582e-08 -5.31421e-07)
(5.42743e-08 -6.03826e-08 -5.37261e-07)
(3.16308e-07 -4.30739e-07 -7.63259e-07)
(7.32282e-08 -5.17282e-07 -3.65135e-07)
(-3.66345e-07 -6.90399e-07 -1.27247e-07)
(-2.11248e-07 -5.17224e-07 5.3097e-07)
(-5.09391e-07 5.37643e-08 4.00948e-07)
(-4.23491e-07 -1.11431e-08 -2.1447e-08)
(0.000129675 3.67556e-05 -0.000128906)
(0.00020657 8.38338e-05 -1.14154e-05)
(0.000128121 8.93031e-05 -3.99083e-05)
(0.000164613 3.98173e-06 7.98974e-05)
(2.87727e-07 3.51084e-07 -5.58094e-06)
(5.98311e-06 4.49725e-06 -5.78013e-06)
(1.38174e-06 5.09543e-06 -1.0094e-06)
(4.26987e-06 9.3932e-07 4.85565e-07)
)
;

boundaryField
{
    top_fluid_surface
    {
        type            pressureInletOutletVelocity;
        value           nonuniform List<vector> 
64
(
(0 0 -7.24676e-05)
(0 0 -9.34976e-05)
(0 0 -5.2163e-05)
(0.000116329 8.72605e-05 9.29391e-05)
(1.55141e-05 -3.16042e-05 9.3539e-05)
(0 0 -3.78332e-05)
(8.55484e-05 -8.23207e-05 6.80058e-05)
(0.000222419 -1.16428e-05 4.70608e-05)
(0 0 -0.000125431)
(0 0 -2.99232e-05)
(0 0 -0.000261306)
(-4.73116e-05 -9.08546e-05 6.69597e-05)
(5.593e-05 -5.48082e-05 2.56113e-05)
(8.26439e-05 -6.85102e-05 2.88477e-05)
(2.52849e-05 -0.000112702 3.60405e-05)
(0 0 -0.000173783)
(0 0 -4.58051e-05)
(0.000111609 0.000127568 5.64511e-05)
(-1.32167e-05 -5.9703e-06 9.84074e-05)
(-3.86007e-05 -9.98268e-05 3.02497e-05)
(0 0 -3.90518e-05)
(0 0 -3.22676e-05)
(4.97283e-05 0.000142997 3.19985e-05)
(0 0 -2.59578e-05)
(0 0 -1.65462e-05)
(4.54095e-05 6.1567e-05 3.28013e-05)
(0 0 -0.000172646)
(0 0 -0.000105638)
(-3.3959e-06 -0.000128307 8.04926e-05)
(4.63835e-05 2.295e-05 0.000106925)
(0.000164981 1.8062e-05 5.03333e-05)
(0.000227691 -9.07128e-06 3.13657e-05)
(0.000177059 -8.84223e-05 5.67203e-05)
(1.22344e-05 -0.000122136 6.98834e-05)
(4.88634e-05 -4.47276e-05 3.87979e-05)
(8.01574e-05 -8.83836e-05 4.10476e-05)
(-3.55195e-05 -9.96685e-05 0.000138773)
(-0.00017664 -0.000107821 0.000108816)
(0 0 -0.000164281)
(0 0 -0.000152818)
(2.83659e-05 0.000208803 0.000143177)
(-8.57069e-05 -6.2919e-05 2.90124e-05)
(0 0 -6.10599e-05)
(0 0 -7.95048e-05)
(0.000100538 0.000172243 6.77227e-05)
(0.00011096 -2.51744e-06 0.000109984)
(0 0 -4.56652e-05)
(5.87545e-06 2.02319e-05 0.000117649)
(0.000252032 3.09781e-05 0.000104764)
(0 0 -9.73021e-05)
(0 0 -2.69717e-05)
(0 0 -1.0931e-05)
(0 0 -0.000315545)
(0 0 -8.59985e-05)
(-9.53676e-05 -0.000160909 8.89603e-05)
(1.91104e-05 5.61232e-05 7.6182e-05)
(0 0 -1.51376e-05)
(0 0 -0.000121871)
(0 0 -0.000190298)
(0 0 -2.84279e-05)
(0 0 -0.000128906)
(0.00020657 8.38338e-05 -1.14154e-05)
(0 0 -3.99083e-05)
(0.000164613 3.98173e-06 7.98974e-05)
)
;
    }
    bottom_fluid_surface
    {
        type            noSlip;
    }
    lateral_surface_1
    {
        type            noSlip;
    }
    lateral_surface_2
    {
        type            noSlip;
    }
    lateral_surface_3
    {
        type            noSlip;
    }
    lateral_surface_4
    {
        type            noSlip;
    }
}


// ************************************************************************* //
