/*--------------------------------*- C++ -*----------------------------------*\
| =========                 |                                                 |
| \\      /  F ield         | OpenFOAM: The Open Source CFD Toolbox           |
|  \\    /   O peration     | Version:  v1612+                                |
|   \\  /    A nd           | Web:      www.OpenFOAM.com                      |
|    \\/     M anipulation  |                                                 |
\*---------------------------------------------------------------------------*/
FoamFile
{
    version     2.0;
    format      ascii;
    class       volScalarField;
    location    "3.6";
    object      alpha.water;
}
// * * * * * * * * * * * * * * * * * * * * * * * * * * * * * * * * * * * * * //

dimensions      [0 0 0 0 0 0 0];

internalField   nonuniform List<scalar> 
1116
(
0.677626
0.677621
0.677622
0.677624
0.677622
0.677622
0.678595
0.67859
0.678591
0.678593
0.678591
0.678591
0.712882
0.712878
0.712879
0.712881
0.712879
0.712879
0.764577
0.764573
0.764575
0.764575
0.764574
0.764575
0.816159
0.816155
0.816157
0.816157
0.816156
0.816158
0.862845
0.862841
0.862842
0.862843
0.862841
0.862844
0.905929
0.905921
0.905922
0.905921
0.905918
0.905925
0.97301
0.97301
0.97301
0.97301
0.97301
0.97301
0.973025
0.973025
0.973025
0.973025
0.973025
0.973025
0.973025
0.973025
0.973025
0.973025
0.973025
0.973025
0.97301
0.97301
0.97301
0.97301
0.97301
0.97301
0.970674
0.970674
0.970674
0.970674
0.970674
0.970674
0.0271482
0.0271467
0.0271473
0.0271457
0.027145
0.0271502
0.00795718
0.00795625
0.00795612
0.00795654
0.0079569
0.00795767
0.00722148
0.0072216
0.00722112
0.00722206
0.00722293
0.00722159
0.0131629
0.0131633
0.0131628
0.0131637
0.0131647
0.0131632
0.0265643
0.0265649
0.0265644
0.0265651
0.0265662
0.0265649
0.0479458
0.0479462
0.047946
0.0479467
0.0479479
0.0479469
0.0757016
0.0757025
0.0757024
0.075703
0.0757044
0.0757032
0.127248
0.127242
0.127243
0.127244
0.127243
0.127247
0.337947
0.33793
0.337935
0.337935
0.337931
0.337945
0.832158
0.832133
0.83214
0.83214
0.832132
0.832153
0.973
0.973
0.973
0.973
0.973
0.973
0.972948
0.972948
0.972948
0.972948
0.972948
0.972948
1.21927e-08
1.21935e-08
1.21936e-08
1.21944e-08
1.21951e-08
1.21946e-08
2.45164e-09
2.45227e-09
2.45267e-09
2.45247e-09
2.45183e-09
2.4516e-09
1.33027e-09
1.33038e-09
1.33079e-09
1.33068e-09
1.33006e-09
1.33012e-09
7.92834e-10
7.93295e-10
7.93638e-10
7.93738e-10
7.93333e-10
7.92432e-10
3.66874e-10
3.67302e-10
3.67753e-10
3.679e-10
3.674e-10
3.66556e-10
3.06774e-10
3.06995e-10
3.07444e-10
3.07612e-10
3.06956e-10
3.06535e-10
1.85595e-10
1.85594e-10
1.85821e-10
1.85895e-10
1.85472e-10
1.85476e-10
-9.94518e-09
-9.86972e-09
-9.86542e-09
-9.86746e-09
-9.83859e-09
-9.88389e-09
0.000144074
0.000144095
0.000144087
0.000144085
0.000144093
0.000144076
0.165634
0.165576
0.165599
0.165599
0.165582
0.165615
0.826599
0.826558
0.826574
0.826569
0.826553
0.826589
0.972934
0.972934
0.972934
0.972934
0.972934
0.972934
3.95302e-07
3.95184e-07
3.95255e-07
3.95314e-07
3.95298e-07
3.95419e-07
1.73162e-06
1.73144e-06
1.73149e-06
1.7315e-06
1.73141e-06
1.73168e-06
1.06759e-07
1.06818e-07
1.068e-07
1.06794e-07
1.06825e-07
1.06765e-07
4.19756e-08
4.19311e-08
4.194e-08
4.19115e-08
4.18977e-08
4.20062e-08
4.57997e-08
4.57956e-08
4.57944e-08
4.57926e-08
4.57909e-08
4.57964e-08
7.15113e-09
7.1524e-09
7.15167e-09
7.15055e-09
7.15048e-09
7.14607e-09
6.48779e-11
6.48798e-11
6.48887e-11
6.48816e-11
6.48811e-11
6.48798e-11
-1.85808e-08
-1.86367e-08
-1.86098e-08
-1.8604e-08
-1.86301e-08
-1.85919e-08
7.92708e-06
7.92961e-06
7.92844e-06
7.92827e-06
7.92918e-06
7.92788e-06
0.00574156
0.00571503
0.00572512
0.00572675
0.00571711
0.0057324
0.511109
0.511048
0.511063
0.511062
0.511057
0.511072
0.972521
0.97252
0.972521
0.972521
0.97252
0.972521
1.11249e-36
1.10177e-36
1.09466e-36
1.11182e-36
1.12168e-36
1.08386e-36
1.42495e-33
1.41196e-33
1.40323e-33
1.42065e-33
1.43693e-33
1.38713e-33
8.58829e-31
8.51458e-31
8.4645e-31
8.54006e-31
8.65947e-31
8.35337e-31
3.18921e-28
3.16355e-28
3.14603e-28
3.16247e-28
3.21423e-28
3.09951e-28
8.0735e-26
8.01294e-26
7.972e-26
7.98247e-26
8.13059e-26
7.8416e-26
1.46752e-23
1.45739e-23
1.45079e-23
1.44665e-23
1.47638e-23
1.42504e-23
1.98704e-21
1.97473e-21
1.96744e-21
1.95294e-21
1.99676e-21
1.93023e-21
2.08017e-19
2.0692e-19
2.06402e-19
2.03842e-19
2.08849e-19
2.02299e-19
1.78251e-17
1.77518e-17
1.77372e-17
1.74147e-17
1.79002e-17
1.7368e-17
6.62664e-17
6.59013e-17
6.5678e-17
6.52974e-17
6.61582e-17
6.47028e-17
7.41573e-16
7.3953e-16
7.40393e-16
7.22613e-16
7.46537e-16
7.24383e-16
1.66669e-13
1.66338e-13
1.66759e-13
1.62812e-13
1.6791e-13
1.63916e-13
1.63921e-35
1.62333e-35
1.60917e-35
1.60403e-35
1.63987e-35
1.56132e-35
2.31999e-32
2.29811e-32
2.27881e-32
2.26855e-32
2.32145e-32
2.2114e-32
1.5627e-29
1.5484e-29
1.53595e-29
1.52657e-29
1.56351e-29
1.49052e-29
6.6446e-27
6.58596e-27
6.53572e-27
6.483e-27
6.64509e-27
6.34154e-27
2.01077e-24
1.99383e-24
1.97968e-24
1.95898e-24
2.00947e-24
1.92048e-24
4.66435e-22
4.62759e-22
4.59821e-22
4.53697e-22
4.65754e-22
4.46041e-22
8.78319e-20
8.7207e-20
8.67501e-20
8.5305e-20
8.76515e-20
8.41825e-20
1.22523e-17
1.21874e-17
1.21471e-17
1.1933e-17
1.22331e-17
1.18413e-17
8.18518e-17
8.07274e-17
7.93621e-17
7.8541e-17
8.00929e-17
7.57784e-17
9.20983e-14
9.13167e-14
9.05059e-14
8.90087e-14
9.13519e-14
8.72286e-14
1.19982e-13
1.19791e-13
1.20195e-13
1.17169e-13
1.21578e-13
1.18058e-13
3.92946e-12
3.93371e-12
3.96023e-12
3.89815e-12
4.15294e-12
3.91439e-12
2.95769e-31
2.94799e-31
2.9409e-31
2.92974e-31
2.99061e-31
2.91612e-31
3.66617e-28
3.65412e-28
3.6446e-28
3.63029e-28
3.71193e-28
3.60998e-28
2.07842e-25
2.07159e-25
2.06591e-25
2.05701e-25
2.10701e-25
2.04377e-25
6.89687e-23
6.87443e-23
6.85563e-23
6.82056e-23
6.99887e-23
6.77348e-23
1.43364e-20
1.42917e-20
1.42567e-20
1.41616e-20
1.4557e-20
1.40688e-20
1.88163e-18
1.87649e-18
1.87339e-18
1.85538e-18
1.91037e-18
1.84672e-18
3.61596e-17
3.60209e-17
3.58957e-17
3.5809e-17
3.68161e-17
3.547e-17
2.6649e-16
2.66092e-16
2.65975e-16
2.63607e-16
2.68051e-16
2.63631e-16
1.11281e-15
1.10737e-15
1.10544e-15
1.07839e-15
1.11269e-15
1.07454e-15
1.78171e-10
1.77574e-10
1.77129e-10
1.76272e-10
1.81819e-10
1.74438e-10
2.92055e-08
2.92046e-08
2.92849e-08
2.86671e-08
2.95797e-08
2.88249e-08
1.21137e-07
1.20826e-07
1.20611e-07
1.24503e-07
1.43529e-07
1.19432e-07
2.35557e-32
2.34286e-32
2.34e-32
2.32496e-32
2.40998e-32
2.31072e-32
3.99814e-29
3.97798e-29
3.97509e-29
3.93985e-29
4.08787e-29
3.92099e-29
3.21943e-26
3.20483e-26
3.20479e-26
3.16628e-26
3.2875e-26
3.15761e-26
1.61539e-23
1.60919e-23
1.61079e-23
1.58498e-23
1.64642e-23
1.58537e-23
5.65092e-21
5.63453e-21
5.648e-21
5.52908e-21
5.74463e-21
5.55362e-21
1.42352e-18
1.42106e-18
1.42681e-18
1.38944e-18
1.4425e-18
1.40231e-18
1.76965e-17
1.7687e-17
1.76977e-17
1.76288e-17
1.77674e-17
1.76296e-17
2.13221e-16
2.12888e-16
2.13623e-16
2.09279e-16
2.15516e-16
2.10877e-16
5.62345e-14
5.6244e-14
5.66307e-14
5.45663e-14
5.67474e-14
5.55511e-14
2.08201e-11
2.08323e-11
2.09733e-11
2.0201e-11
2.10007e-11
2.0557e-11
2.69354e-06
2.69818e-06
2.71417e-06
2.63064e-06
2.70066e-06
2.67042e-06
4.956e-05
4.96681e-05
4.99611e-05
4.86203e-05
4.93748e-05
4.94425e-05
5.01184e-08
5.00774e-08
5.01019e-08
5.01241e-08
5.01213e-08
5.01549e-08
1.50325e-10
1.49831e-10
1.4988e-10
1.49433e-10
1.48613e-10
1.50055e-10
-5.93996e-16
-6.50535e-16
-6.67758e-16
-6.52911e-16
-6.49048e-16
-6.64649e-16
1.74313e-06
1.74314e-06
1.74315e-06
1.74316e-06
1.74317e-06
1.74317e-06
4.23276e-07
4.22651e-07
4.22888e-07
4.22841e-07
4.22367e-07
4.234e-07
-3.06231e-15
-3.35362e-15
-3.44262e-15
-3.36604e-15
-3.34612e-15
-3.42687e-15
6.08143e-07
6.08051e-07
6.08075e-07
6.08103e-07
6.08092e-07
6.08191e-07
8.27087e-23
7.94933e-23
7.98454e-23
7.90082e-23
7.73456e-23
7.94129e-23
-2.14921e-14
-2.35374e-14
-2.41613e-14
-2.36238e-14
-2.34843e-14
-2.4049e-14
1.69608e-09
1.6409e-09
1.65238e-09
1.61424e-09
1.60192e-09
1.74677e-09
8.18873e-12
7.86127e-12
7.90229e-12
7.82382e-12
7.6316e-12
7.78022e-12
-1.50818e-14
-1.6516e-14
-1.69533e-14
-1.65752e-14
-1.64773e-14
-1.68729e-14
4.77567e-08
4.77567e-08
4.77561e-08
4.77553e-08
4.77549e-08
4.77547e-08
1.87311e-09
1.81765e-09
1.82624e-09
1.80307e-09
1.7787e-09
1.85215e-09
-8.51787e-16
-9.33222e-16
-9.5842e-16
-9.36892e-16
-9.31114e-16
-9.48259e-16
2.53671e-08
2.53544e-08
2.53552e-08
2.53502e-08
2.53443e-08
2.53578e-08
9.95466e-17
9.95052e-17
9.95745e-17
9.96319e-17
9.96528e-17
9.95888e-17
1.712e-18
1.71076e-18
1.71189e-18
1.71288e-18
1.71312e-18
1.71253e-18
5.73461e-11
5.73457e-11
5.73504e-11
5.735e-11
5.73486e-11
5.73488e-11
5.81292e-14
5.81098e-14
5.81469e-14
5.81782e-14
5.81901e-14
5.8152e-14
1.5506e-17
1.55146e-17
1.55137e-17
1.55112e-17
1.55052e-17
1.54995e-17
5.86744e-11
5.87439e-11
5.87183e-11
5.87001e-11
5.8726e-11
5.86996e-11
-3.52352e-11
-3.50692e-11
-3.51238e-11
-3.51308e-11
-3.50628e-11
-3.51723e-11
-7.49993e-14
-7.49408e-14
-7.498e-14
-7.50008e-14
-7.49282e-14
-7.50583e-14
-3.31628e-08
-3.31107e-08
-3.30969e-08
-3.30502e-08
-3.29303e-08
-3.32973e-08
5.42468e-09
5.42593e-09
5.42609e-09
5.42523e-09
5.42412e-09
5.42535e-09
3.65505e-11
3.65478e-11
3.65582e-11
3.65692e-11
3.65729e-11
3.65592e-11
8.03114e-06
8.0331e-06
8.03228e-06
8.03222e-06
8.03292e-06
8.03168e-06
3.33323e-07
3.33394e-07
3.33372e-07
3.3339e-07
3.33405e-07
3.33365e-07
5.80819e-09
5.80787e-09
5.80867e-09
5.81012e-09
5.81015e-09
5.80935e-09
0.000524239
0.000523361
0.000523711
0.000523799
0.000523397
0.000524002
0.00615834
0.0061525
0.00615307
0.00615385
0.0061443
0.00616254
0.00226594
0.0022651
0.00226503
0.00226493
0.00226219
0.00226818
0.692246
0.69225
0.692239
0.692214
0.692108
0.692323
0.104104
0.104165
0.104134
0.104126
0.104115
0.104133
-5.65333e-21
-7.14061e-21
-7.71081e-21
-7.90186e-21
-7.66153e-21
-5.44048e-21
0.0155101
0.0155907
0.0157444
0.0149781
0.0151603
0.0153634
0.042776
0.0429957
0.0435924
0.0415774
0.0412673
0.0434084
0.0217075
0.0218593
0.0220277
0.0213355
0.0210751
0.022
0.191598
0.191541
0.191612
0.191579
0.19241
0.191754
0.168813
0.168926
0.169193
0.168821
0.168259
0.169848
0.0178034
0.017815
0.017904
0.0175407
0.0169765
0.0185288
0.352158
0.35195
0.351899
0.353223
0.354518
0.352373
0.0946361
0.0946861
0.0945166
0.0948047
0.0943985
0.0947779
-3.11229e-23
-3.93241e-23
-4.24142e-23
-4.33811e-23
-4.18815e-23
-2.95586e-23
0.539594
0.539487
0.539403
0.540767
0.542203
0.538843
0.092359
0.0924328
0.0923352
0.0924972
0.0928858
0.0917032
-1.39474e-22
-1.76246e-22
-1.90132e-22
-1.94929e-22
-1.88659e-22
-1.33519e-22
0.697831
0.697831
0.697833
0.697833
0.697835
0.697837
0.216315
0.216438
0.216417
0.216563
0.217096
0.215816
-5.67689e-22
-7.17582e-22
-7.74555e-22
-7.92663e-22
-7.66205e-22
-5.46308e-22
0.697831
0.697833
0.697833
0.697835
0.697837
0.697837
0.238777
0.238922
0.238885
0.238855
0.238965
0.238753
-1.78357e-21
-2.25452e-21
-2.43415e-21
-2.49147e-21
-2.40998e-21
-1.71851e-21
1.23561e-27
1.2378e-27
1.23899e-27
1.22296e-27
1.23287e-27
1.23522e-27
1.28586e-29
1.28788e-29
1.28882e-29
1.27436e-29
1.2854e-29
1.28499e-29
7.79756e-32
7.8078e-32
7.81215e-32
7.73972e-32
7.80599e-32
7.78943e-32
1.98387e-24
1.98786e-24
1.99046e-24
1.96052e-24
1.97532e-24
1.98413e-24
2.21233e-26
2.21626e-26
2.21845e-26
2.18925e-26
2.20705e-26
2.21149e-26
1.69395e-28
1.69632e-28
1.69757e-28
1.67959e-28
1.69076e-28
1.69251e-28
1.37177e-21
1.37489e-21
1.37739e-21
1.35341e-21
1.36281e-21
1.37291e-21
1.68543e-23
1.68882e-23
1.69111e-23
1.66505e-23
1.67771e-23
1.68545e-23
1.81708e-25
1.81969e-25
1.82144e-25
1.79969e-25
1.80595e-25
1.8156e-25
4.98408e-19
4.99712e-19
5.01009e-19
4.9091e-19
4.93909e-19
4.99511e-19
7.13337e-21
7.14969e-21
7.16344e-21
7.03424e-21
7.08376e-21
7.13819e-21
1.16796e-22
1.16964e-22
1.17107e-22
1.15545e-22
1.15538e-22
1.16666e-22
3.36903e-17
3.3765e-17
3.3817e-17
3.32023e-17
3.34425e-17
3.36742e-17
1.79615e-18
1.80096e-18
1.80605e-18
1.76758e-18
1.77866e-18
1.79984e-18
4.54535e-20
4.55179e-20
4.55849e-20
4.4921e-20
4.48825e-20
4.53665e-20
2.8351e-17
2.81759e-17
2.79683e-17
2.93255e-17
2.93676e-17
2.80977e-17
1.4885e-16
1.49302e-16
1.4985e-16
1.46219e-16
1.47049e-16
1.49304e-16
9.88478e-18
9.89689e-18
9.91301e-18
9.77618e-18
9.82255e-18
9.85762e-18
2.29798e-16
2.29622e-16
2.30867e-16
2.2397e-16
2.32095e-16
2.27014e-16
4.53466e-14
4.54908e-14
4.56736e-14
4.44976e-14
4.47422e-14
4.54993e-14
3.21326e-16
3.22012e-16
3.22692e-16
3.16505e-16
3.10219e-16
3.20888e-16
5.6233e-14
5.62425e-14
5.66292e-14
5.45648e-14
5.67459e-14
5.55497e-14
7.17728e-12
7.2018e-12
7.23248e-12
7.04028e-12
7.06355e-12
7.22573e-12
7.79963e-14
7.83537e-14
7.86495e-14
7.63854e-14
7.50211e-14
7.85907e-14
2.08201e-11
2.08323e-11
2.09734e-11
2.02011e-11
2.10008e-11
2.05571e-11
9.77891e-10
9.8325e-10
9.91469e-10
9.44189e-10
9.54113e-10
9.79698e-10
3.10172e-11
3.09179e-11
3.11211e-11
3.12564e-11
3.47571e-11
3.0462e-11
6.83425e-09
6.84355e-09
6.88914e-09
6.63426e-09
6.88229e-09
6.75231e-09
1.44677e-07
1.44073e-07
1.43503e-07
1.47048e-07
1.49033e-07
1.42228e-07
3.61944e-09
3.56499e-09
3.54763e-09
3.80458e-09
4.27073e-09
3.50693e-09
1.45133e-06
1.45438e-06
1.46329e-06
1.41619e-06
1.45559e-06
1.43955e-06
5.85764e-06
5.78229e-06
5.59322e-06
6.18925e-06
6.37802e-06
5.47731e-06
1.32943e-18
1.23761e-18
1.1892e-18
1.49235e-18
1.72959e-18
1.22878e-18
3.99781e-05
4.00931e-05
4.03676e-05
3.91474e-05
3.97284e-05
3.98495e-05
8.42583e-06
8.37237e-06
8.22036e-06
8.66565e-06
8.83758e-06
8.09263e-06
5.46809e-05
6.0461e-05
6.37013e-05
4.63956e-05
4.0378e-05
6.05741e-05
)
;

boundaryField
{
    seabed_topleft_surface
    {
        type            zeroGradient;
    }
    seabed_topright_surface
    {
        type            zeroGradient;
    }
    breakwater_top_surface
    {
        type            zeroGradient;
    }
    breakwater_left_surface
    {
        type            zeroGradient;
    }
    breakwater_right_surface
    {
        type            zeroGradient;
    }
    water_front_surface
    {
        type            zeroGradient;
    }
    water_back_surface
    {
        type            zeroGradient;
    }
    water_left_surface
    {
        type            zeroGradient;
    }
    water_right_surface
    {
        type            zeroGradient;
    }
    water_top_surface
    {
        type            inletOutlet;
        inletValue      uniform 0;
        value           nonuniform List<scalar> 
180
(
0
0
0
0
0
0
0
0
0
0
0
0
0
0
0
0
0
0
0
0
0
0
0
0
0
0
0
0
0
0
0
0
0
0
0
0
0
0
0
0
0
0
0
0
0
0
0
0
3.65505e-11
3.65478e-11
3.65582e-11
3.65692e-11
3.65729e-11
3.65592e-11
5.80819e-09
5.80787e-09
5.80867e-09
5.81012e-09
5.81015e-09
5.80935e-09
0.00226594
0.0022651
0.00226503
0.00226493
0.00226219
0.00226818
0
0
0
0
0
0
0.0217075
0.0218593
0.0220277
0.0213355
0.0210751
0.022
0.0178034
0.017815
0.017904
0.0175407
0.0169765
0.0185288
0
0
0
0
0
0
0
0
0
0
0
0
0
0
0
0
0
0
0
0
0
0
0
0
7.79756e-32
7.8078e-32
7.81215e-32
7.73972e-32
7.80599e-32
7.78943e-32
1.69395e-28
1.69632e-28
1.69757e-28
1.67959e-28
1.69076e-28
1.69251e-28
1.81708e-25
1.81969e-25
1.82144e-25
1.79969e-25
1.80595e-25
1.8156e-25
1.16796e-22
1.16964e-22
1.17107e-22
1.15545e-22
1.15538e-22
1.16666e-22
4.54535e-20
4.55179e-20
4.55849e-20
4.4921e-20
4.48825e-20
4.53665e-20
9.88478e-18
9.89689e-18
9.91301e-18
9.77618e-18
9.82255e-18
9.85762e-18
3.21326e-16
3.22012e-16
3.22692e-16
3.16505e-16
3.10219e-16
3.20888e-16
7.79963e-14
7.83537e-14
7.86495e-14
7.63854e-14
7.50211e-14
7.85907e-14
3.10172e-11
3.09179e-11
3.11211e-11
3.12564e-11
3.47571e-11
3.0462e-11
3.61944e-09
3.56499e-09
3.54763e-09
3.80458e-09
4.27073e-09
3.50693e-09
0
0
0
0
0
0
5.46809e-05
6.0461e-05
6.37013e-05
4.63956e-05
4.0378e-05
6.05741e-05
)
;
    }
}


// ************************************************************************* //
