/*--------------------------------*- C++ -*----------------------------------*\
| =========                 |                                                 |
| \\      /  F ield         | OpenFOAM: The Open Source CFD Toolbox           |
|  \\    /   O peration     | Version:  v1612+                                |
|   \\  /    A nd           | Web:      www.OpenFOAM.com                      |
|    \\/     M anipulation  |                                                 |
\*---------------------------------------------------------------------------*/
FoamFile
{
    version     2.0;
    format      ascii;
    class       volScalarField;
    location    "3.6";
    object      p_rgh;
}
// * * * * * * * * * * * * * * * * * * * * * * * * * * * * * * * * * * * * * //

dimensions      [1 -1 -2 0 0 0 0];

internalField   nonuniform List<scalar> 
1116
(
7071.83
7071.79
7071.81
7071.81
7071.79
7071.81
6922.23
6922.17
6922.19
6922.2
6922.18
6922.2
7148.05
7148.02
7148.03
7148.05
7148.04
7148.03
7675.01
7674.98
7674.99
7675.01
7675
7674.99
8311.49
8311.46
8311.47
8311.49
8311.48
8311.49
9034.56
9034.53
9034.54
9034.54
9034.54
9034.56
9971.8
9971.73
9971.73
9971.73
9971.72
9971.77
11753.8
11753.8
11753.8
11753.8
11753.8
11753.8
14444.5
14444.5
14444.5
14444.5
14444.5
14444.5
18510.5
18510.4
18510.4
18510.4
18510.4
18510.4
21860.9
21860.8
21860.8
21860.8
21860.8
21860.8
24047.1
24047.1
24047.1
24047.1
24047.1
24047.1
532.116
532.089
532.099
532.072
532.059
532.152
162.099
162.083
162.081
162.088
162.095
162.108
146.517
146.519
146.511
146.527
146.542
146.52
271.52
271.528
271.519
271.534
271.551
271.526
542.275
542.285
542.277
542.29
542.31
542.285
966.002
966.009
966.005
966.018
966.039
966.02
1517.62
1517.63
1517.63
1517.64
1517.67
1517.65
2565.86
2565.76
2565.78
2565.78
2565.77
2565.85
6893.03
6892.74
6892.82
6892.83
6892.76
6893.01
17787.7
17787.2
17787.4
17787.3
17787.2
17787.6
23919.1
23918.8
23918.9
23918.9
23918.8
23918.9
26635.7
26635.7
26635.7
26635.8
26635.6
26635.6
3.4468
3.44703
3.44688
3.44683
3.44673
3.44616
3.84771
3.84783
3.8477
3.84756
3.84747
3.84723
4.3636
4.36364
4.36355
4.36343
4.36337
4.36336
6.4777
6.47774
6.47768
6.47754
6.47742
6.47735
7.94981
7.94975
7.94968
7.94952
7.94932
7.94924
9.09165
9.09163
9.09173
9.09182
9.0918
9.09191
16.1356
16.1353
16.1352
16.1352
16.1353
16.1354
36.5856
36.5843
36.5833
36.5828
36.5829
36.5827
133.862
133.844
133.847
133.847
133.845
133.856
4687.59
4686.05
4686.67
4686.65
4686.24
4687.11
24796.7
24794.5
24795.3
24795.2
24794.4
24796
31689.8
31689.7
31689.6
31689.6
31689.7
31689.8
3.30463
3.30466
3.30454
3.30444
3.30431
3.3041
4.0243
4.02432
4.02418
4.02406
4.02398
4.02381
4.64221
4.64215
4.64202
4.64183
4.64171
4.64162
6.81732
6.81721
6.81707
6.81681
6.8166
6.81648
9.08567
9.08555
9.08546
9.08529
9.08512
9.08505
9.98425
9.98423
9.98425
9.98432
9.98438
9.98441
11.3159
11.3168
11.3168
11.3167
11.3168
11.3155
12.4475
12.4462
12.4465
12.4462
12.446
12.4476
20.4284
20.4183
20.4215
20.4223
20.4198
20.4281
260.413
259.483
259.835
259.89
259.558
260.091
19331.5
19323.3
19326.3
19326.9
19324.2
19328.6
37020.4
37020.2
37020.2
37020.3
37020.2
37020.3
3.1346
3.13461
3.13462
3.13463
3.13465
3.13466
3.28068
3.2807
3.28071
3.28073
3.28073
3.28074
3.57648
3.5765
3.5765
3.57648
3.57646
3.57644
4.02865
4.02866
4.02864
4.0286
4.02856
4.02853
4.64568
4.64569
4.64568
4.64569
4.64571
4.64572
5.43402
5.43406
5.43412
5.43424
5.43437
5.43445
6.39114
6.39122
6.39133
6.39149
6.39162
6.39167
7.49259
7.49264
7.49268
7.4927
7.49268
7.49264
8.67149
8.67146
8.67136
8.67121
8.67104
8.67098
9.77419
9.77413
9.77402
9.7739
9.77383
9.77386
10.6038
10.6039
10.6042
10.6043
10.6046
10.6048
10.7142
10.715
10.7163
10.7174
10.7184
10.7191
2.98888
2.98888
2.98889
2.98891
2.98893
2.98894
3.13617
3.13618
3.13619
3.1362
3.13621
3.13622
3.43426
3.43427
3.43427
3.43426
3.43425
3.43423
3.88827
3.88828
3.88827
3.88826
3.88824
3.88823
4.50311
4.50313
4.50315
4.50318
4.50321
4.50324
5.28054
5.28058
5.28063
5.28069
5.28072
5.28073
6.21309
6.21309
6.21308
6.21301
6.21289
6.21277
7.28527
7.28513
7.28493
7.28467
7.28439
7.28425
8.50628
8.50608
8.50582
8.50558
8.50546
8.50546
9.94155
9.94166
9.94187
9.94203
9.9428
9.94314
11.0415
11.0424
11.0435
11.043
11.0446
11.0455
10.6111
10.6136
10.6183
10.6209
10.6241
10.6264
2.69969
2.6997
2.69971
2.69973
2.69974
2.69975
2.84502
2.84504
2.84505
2.84506
2.84507
2.84507
3.1446
3.14461
3.14462
3.14462
3.14462
3.14462
3.61753
3.61754
3.61754
3.61754
3.61754
3.61754
4.29447
4.29447
4.29447
4.29447
4.29448
4.29448
5.21755
5.21752
5.21747
5.21739
5.21729
5.21721
6.43588
6.43574
6.43551
6.43521
6.43491
6.43471
7.97947
7.9792
7.97881
7.97838
7.97807
7.97805
9.80792
9.80762
9.80717
9.80673
9.80651
9.80688
11.603
11.603
11.6029
11.6023
11.6023
11.6018
12.9096
12.9117
12.9162
12.9122
12.9166
12.9169
10.9091
10.9161
10.9331
10.9442
10.9607
10.9576
2.27387
2.27388
2.27389
2.2739
2.27391
2.27392
2.40715
2.40716
2.40717
2.40719
2.4072
2.40721
2.68268
2.68269
2.6827
2.68271
2.68272
2.68272
3.1156
3.1156
3.11559
3.11559
3.11559
3.11558
3.72507
3.72503
3.72499
3.72496
3.72493
3.72491
4.53353
4.53345
4.53334
4.53321
4.53307
4.53297
5.56103
5.56084
5.56056
5.56025
5.55994
5.55976
6.81186
6.81153
6.81085
6.81006
6.80953
6.80925
8.39844
8.39744
8.39575
8.39361
8.39242
8.39097
11.5566
11.5558
11.5564
11.5464
11.5531
11.5434
15.7279
15.7338
15.7586
15.7037
15.7338
15.7293
5.75157
5.76654
5.82437
5.85817
5.93668
5.8963
2.15149
2.15146
2.15131
2.15115
2.15102
2.15091
1.0301
1.02999
1.02983
1.02963
1.02945
1.02934
-0.71079
-0.710915
-0.710987
-0.71106
-0.711146
-0.71114
2.52943
2.52932
2.52915
2.52901
2.52889
2.52876
1.2455
1.24532
1.24523
1.24512
1.24498
1.24503
-0.665409
-0.665474
-0.66549
-0.665523
-0.665555
-0.665439
2.90022
2.90013
2.90003
2.89997
2.89991
2.8998
1.75071
1.75067
1.75073
1.75076
1.75075
1.75083
-0.539885
-0.53979
-0.539683
-0.53963
-0.539604
-0.539494
3.835
3.83492
3.83477
3.83468
3.83462
3.83454
2.5488
2.54881
2.54892
2.549
2.54905
2.54917
-0.354887
-0.354854
-0.35477
-0.354731
-0.354735
-0.3547
5.09236
5.09234
5.09218
5.09205
5.09203
5.09199
3.51302
3.51295
3.51293
3.51293
3.51298
3.51318
0.0697587
0.0695911
0.0695548
0.0695346
0.0695165
0.0695467
6.65369
6.65392
6.65399
6.65405
6.6541
6.654
4.48129
4.48119
4.4811
4.48106
4.48109
4.48117
0.900964
0.900876
0.90084
0.900844
0.90088
0.900882
10.0515
10.0519
10.0521
10.0521
10.0519
10.0517
5.41275
5.41288
5.41288
5.41276
5.41265
5.4125
1.89981
1.89984
1.89997
1.90007
1.90014
1.90008
4.98587
4.98541
4.98528
4.98514
4.98532
4.98593
2.179
2.18003
2.17987
2.17955
2.17993
2.17888
5.57808
5.57828
5.57852
5.57859
5.57878
5.57836
15.451
15.4505
15.4506
15.4508
15.4502
15.449
16.5842
16.5912
16.5915
16.5938
16.5961
16.5834
2.86243
2.86535
2.86579
2.86596
2.86703
2.86256
23.2633
23.2514
23.2523
23.254
23.2521
23.2547
20.6151
20.6273
20.6264
20.6295
20.6474
20.5983
8.67015
8.67262
8.67288
8.67187
8.67554
8.66711
49.9054
49.7522
49.793
49.8081
49.7662
49.8459
307.322
307.536
307.41
307.371
307.024
307.753
89.6078
89.5539
89.5467
89.5277
89.3648
89.7514
30723.6
30725.1
30724
30722.8
30718.6
30727.3
6085.79
6089.37
6087.55
6087.07
6086.43
6087.45
-17.2604
-17.2617
-17.2639
-17.2681
-17.2687
-17.2646
778.722
782.249
789.485
755.488
764.022
773.268
2275.21
2287.17
2319.72
2210.81
2195.61
2308.64
1379.49
1388.32
1399.07
1357.91
1342.88
1397.72
8997.98
8996.02
9002.01
8989.36
9025.78
9008.78
8179.45
8189.55
8204.34
8186.87
8173.87
8221.76
987.703
988.4
994.163
971.373
935.67
1032.11
16994.6
16984.5
16984.6
17040.8
17100
17007.6
5539.54
5542.5
5532.85
5549.45
5525.85
5548.13
-58.0161
-58.0315
-58.0168
-57.9838
-58.026
-58.2228
25898.1
25893.1
25890.4
25952.8
26018.7
25868.2
5400.23
5404.56
5398.97
5408.26
5430.71
5362.25
-25.5782
-25.576
-25.5754
-25.567
-25.58
-25.6836
33408.5
33408.4
33409
33409.7
33410.4
33411.9
12691.1
12698.3
12697.1
12705.6
12736.8
12661.9
-14.6359
-14.6369
-14.6404
-14.6331
-14.6587
-14.6838
32624.6
32624.6
32624.6
32625.4
32625.6
32625.5
14032.7
14041.2
14039
14037.3
14043.7
14031.2
-11.7203
-11.7201
-11.7218
-11.7206
-11.7257
-11.7467
1.72872
1.72873
1.72873
1.72874
1.72875
1.72876
1.08308
1.08309
1.08309
1.08309
1.0831
1.0831
0.37793
0.377929
0.377928
0.377929
0.377931
0.377934
1.83953
1.83954
1.83955
1.83956
1.83958
1.83958
1.15465
1.15465
1.15466
1.15466
1.15467
1.15467
0.404673
0.404673
0.404674
0.404677
0.40468
0.404678
2.07404
2.07405
2.07406
2.07406
2.07406
2.07405
1.30516
1.30516
1.30516
1.30515
1.30514
1.30512
0.462402
0.462399
0.462396
0.462393
0.462385
0.462373
2.46548
2.46545
2.46543
2.4654
2.46537
2.46535
1.55022
1.5502
1.55017
1.55014
1.55011
1.55009
0.560532
0.560517
0.560502
0.560486
0.560474
0.560469
3.07984
3.07978
3.07971
3.07966
3.07961
3.0796
1.91713
1.91709
1.91705
1.91703
1.91701
1.91702
0.717987
0.717973
0.71796
0.717946
0.717944
0.717961
4.03747
4.03737
4.03727
4.03714
4.03705
4.03701
2.45408
2.45407
2.45403
2.454
2.45397
2.45398
0.946855
0.946848
0.94682
0.946782
0.946738
0.946716
5.56032
5.56014
5.55983
5.55944
5.5592
5.55914
3.24381
3.24379
3.24365
3.24348
3.24331
3.24338
1.32915
1.32909
1.32891
1.32871
1.32851
1.32841
7.84048
7.84001
7.83894
7.83777
7.83728
7.83768
4.67652
4.67624
4.67535
4.67351
4.67361
4.67196
1.9783
1.97834
1.97765
1.9762
1.97615
1.97503
12.009
12.0074
12.0029
11.9955
11.9938
12.0016
3.30016
3.29639
3.28624
3.273
3.26444
3.26825
0.592808
0.593813
0.587898
0.579511
0.575653
0.571084
20.563
20.5596
20.5469
20.5203
20.511
20.5519
12.9721
12.9356
12.8881
12.8308
12.8237
12.7936
8.1967
8.18727
8.18701
8.17701
8.1874
8.15652
8.72463
8.74578
8.74525
8.74803
8.6783
8.85197
-13.8441
-13.8073
-13.7801
-13.7596
-13.7839
-13.7354
-3.83368
-3.73618
-3.729
-3.99739
-4.05205
-3.88645
-2.29867
-2.3079
-2.19209
-2.09605
-2.00857
-2.0682
-11.7724
-11.8822
-11.821
-11.0477
-10.7811
-11.5916
13.2056
13.3614
13.6697
13.5526
13.4821
13.9576
)
;

boundaryField
{
    seabed_topleft_surface
    {
        type            fixedFluxPressure;
        gradient        uniform 0;
        value           nonuniform List<scalar> 
72
(
7071.83
7071.79
7071.81
7071.81
7071.79
7071.81
6922.23
6922.17
6922.19
6922.2
6922.18
6922.2
7148.05
7148.02
7148.03
7148.05
7148.04
7148.03
7675.01
7674.98
7674.99
7675.01
7675
7674.99
8311.49
8311.46
8311.47
8311.49
8311.48
8311.49
9034.56
9034.53
9034.54
9034.54
9034.54
9034.56
9971.8
9971.73
9971.73
9971.73
9971.72
9971.77
11753.8
11753.8
11753.8
11753.8
11753.8
11753.8
14444.5
14444.5
14444.5
14444.5
14444.5
14444.5
18510.5
18510.4
18510.4
18510.4
18510.4
18510.4
21860.9
21860.8
21860.8
21860.8
21860.8
21860.8
24047.1
24047.1
24047.1
24047.1
24047.1
24047.1
)
;
    }
    seabed_topright_surface
    {
        type            fixedFluxPressure;
        gradient        uniform 0;
        value           nonuniform List<scalar> 
72
(
3.1346
3.13461
3.13462
3.13463
3.13465
3.13466
3.28068
3.2807
3.28071
3.28073
3.28073
3.28074
3.57648
3.5765
3.5765
3.57648
3.57646
3.57644
4.02865
4.02866
4.02864
4.0286
4.02856
4.02853
4.64568
4.64569
4.64568
4.64569
4.64571
4.64572
5.43402
5.43406
5.43412
5.43424
5.43437
5.43445
6.39114
6.39122
6.39133
6.39149
6.39162
6.39167
7.49259
7.49264
7.49268
7.4927
7.49268
7.49264
8.67149
8.67146
8.67136
8.67121
8.67104
8.67098
9.77419
9.77413
9.77402
9.7739
9.77383
9.77386
10.6038
10.6039
10.6042
10.6043
10.6046
10.6048
10.7142
10.715
10.7163
10.7174
10.7184
10.7191
)
;
    }
    breakwater_top_surface
    {
        type            fixedFluxPressure;
        gradient        uniform 0;
        value           nonuniform List<scalar> 
36
(
778.722
782.249
789.485
755.488
764.022
773.268
8997.98
8996.02
9002.01
8989.36
9025.78
9008.78
16994.6
16984.5
16984.6
17040.8
17100
17007.6
25898.1
25893.1
25890.4
25952.8
26018.7
25868.2
33408.5
33408.4
33409
33409.7
33410.4
33411.9
32624.6
32624.6
32624.6
32625.4
32625.6
32625.5
)
;
    }
    breakwater_left_surface
    {
        type            fixedFluxPressure;
        gradient        uniform 0;
        value           nonuniform List<scalar> 
24
(
24047.1
24047.1
24047.1
24047.1
24047.1
24047.1
26635.7
26635.7
26635.7
26635.8
26635.6
26635.6
31689.8
31689.7
31689.6
31689.6
31689.7
31689.8
37020.4
37020.2
37020.2
37020.3
37020.2
37020.3
)
;
    }
    breakwater_right_surface
    {
        type            fixedFluxPressure;
        gradient        uniform 0;
        value           nonuniform List<scalar> 
24
(
10.7142
10.715
10.7163
10.7174
10.7184
10.7191
10.6111
10.6136
10.6183
10.6209
10.6241
10.6264
10.9091
10.9161
10.9331
10.9442
10.9607
10.9576
5.75157
5.76654
5.82437
5.85817
5.93668
5.8963
)
;
    }
    water_front_surface
    {
        type            fixedFluxPressure;
        gradient        uniform 0;
        value           nonuniform List<scalar> 
186
(
7071.83
6922.23
7148.05
7675.01
8311.49
9034.56
9971.8
11753.8
14444.5
18510.5
21860.9
24047.1
532.116
162.099
146.517
271.52
542.275
966.002
1517.62
2565.86
6893.03
17787.7
23919.1
26635.7
3.4468
3.84771
4.3636
6.4777
7.94981
9.09165
16.1356
36.5856
133.862
4687.59
24796.7
31689.8
3.30463
4.0243
4.64221
6.81732
9.08567
9.98425
11.3159
12.4475
20.4284
260.413
19331.5
37020.4
3.1346
3.28068
3.57648
4.02865
4.64568
5.43402
6.39114
7.49259
8.67149
9.77419
10.6038
10.7142
2.98888
3.13617
3.43426
3.88827
4.50311
5.28054
6.21309
7.28527
8.50628
9.94155
11.0415
10.6111
2.69969
2.84502
3.1446
3.61753
4.29447
5.21755
6.43588
7.97947
9.80792
11.603
12.9096
10.9091
2.27387
2.40715
2.68268
3.1156
3.72507
4.53353
5.56103
6.81186
8.39844
11.5566
15.7279
5.75157
2.15149
1.0301
-0.71079
2.52943
1.2455
-0.665409
2.90022
1.75071
-0.539885
3.835
2.5488
-0.354887
5.09236
3.51302
0.0697587
6.65369
4.48129
0.900964
10.0515
5.41275
1.89981
4.98587
2.179
5.57808
15.451
16.5842
2.86243
23.2633
20.6151
8.67015
49.9054
307.322
89.6078
30723.6
6085.79
-17.2604
778.722
2275.21
1379.49
8997.98
8179.45
987.703
16994.6
5539.54
-58.0161
25898.1
5400.23
-25.5782
33408.5
12691.1
-14.6359
32624.6
14032.7
-11.7203
1.72872
1.08308
0.37793
1.83953
1.15465
0.404673
2.07404
1.30516
0.462402
2.46548
1.55022
0.560532
3.07984
1.91713
0.717987
4.03747
2.45408
0.946855
5.56032
3.24381
1.32915
7.84048
4.67652
1.9783
12.009
3.30016
0.592808
20.563
12.9721
8.1967
8.72463
-13.8441
-3.83368
-2.29867
-11.7724
13.2056
)
;
    }
    water_back_surface
    {
        type            fixedFluxPressure;
        gradient        uniform 0;
        value           nonuniform List<scalar> 
186
(
7071.81
6922.2
7148.03
7674.99
8311.49
9034.56
9971.77
11753.8
14444.5
18510.4
21860.8
24047.1
532.152
162.108
146.52
271.526
542.285
966.02
1517.65
2565.85
6893.01
17787.6
23918.9
26635.6
3.44616
3.84723
4.36336
6.47735
7.94924
9.09191
16.1354
36.5827
133.856
4687.11
24796
31689.8
3.3041
4.02381
4.64162
6.81648
9.08505
9.98441
11.3155
12.4476
20.4281
260.091
19328.6
37020.3
3.13466
3.28074
3.57644
4.02853
4.64572
5.43445
6.39167
7.49264
8.67098
9.77386
10.6048
10.7191
2.98894
3.13622
3.43423
3.88823
4.50324
5.28073
6.21277
7.28425
8.50546
9.94314
11.0455
10.6264
2.69975
2.84507
3.14462
3.61754
4.29448
5.21721
6.43471
7.97805
9.80688
11.6018
12.9169
10.9576
2.27392
2.40721
2.68272
3.11558
3.72491
4.53297
5.55976
6.80925
8.39097
11.5434
15.7293
5.8963
2.15091
1.02934
-0.71114
2.52876
1.24503
-0.665439
2.8998
1.75083
-0.539494
3.83454
2.54917
-0.3547
5.09199
3.51318
0.0695467
6.654
4.48117
0.900882
10.0517
5.4125
1.90008
4.98593
2.17888
5.57836
15.449
16.5834
2.86256
23.2547
20.5983
8.66711
49.8459
307.753
89.7514
30727.3
6087.45
-17.2646
773.268
2308.64
1397.72
9008.78
8221.76
1032.11
17007.6
5548.13
-58.2228
25868.2
5362.25
-25.6836
33411.9
12661.9
-14.6838
32625.5
14031.2
-11.7467
1.72876
1.0831
0.377934
1.83958
1.15467
0.404678
2.07405
1.30512
0.462373
2.46535
1.55009
0.560469
3.0796
1.91702
0.717961
4.03701
2.45398
0.946716
5.55914
3.24338
1.32841
7.83768
4.67196
1.97503
12.0016
3.26825
0.571084
20.5519
12.7936
8.15652
8.85197
-13.7354
-3.88645
-2.0682
-11.5916
13.9576
)
;
    }
    water_left_surface
    {
        type            fixedFluxPressure;
        gradient        uniform 0;
        value           nonuniform List<scalar> 
42
(
7071.83
7071.79
7071.81
7071.81
7071.79
7071.81
532.116
532.089
532.099
532.072
532.059
532.152
3.4468
3.44703
3.44688
3.44683
3.44673
3.44616
3.30463
3.30466
3.30454
3.30444
3.30431
3.3041
2.15149
2.15146
2.15131
2.15115
2.15102
2.15091
1.0301
1.02999
1.02983
1.02963
1.02945
1.02934
-0.71079
-0.710915
-0.710987
-0.71106
-0.711146
-0.71114
)
;
    }
    water_right_surface
    {
        type            fixedFluxPressure;
        gradient        uniform 0;
        value           nonuniform List<scalar> 
42
(
3.1346
3.13461
3.13462
3.13463
3.13465
3.13466
2.98888
2.98888
2.98889
2.98891
2.98893
2.98894
2.69969
2.6997
2.69971
2.69973
2.69974
2.69975
2.27387
2.27388
2.27389
2.2739
2.27391
2.27392
1.72872
1.72873
1.72873
1.72874
1.72875
1.72876
1.08308
1.08309
1.08309
1.08309
1.0831
1.0831
0.37793
0.377929
0.377928
0.377929
0.377931
0.377934
)
;
    }
    water_top_surface
    {
        type            totalPressure;
        rho             rho;
        psi             none;
        gamma           1;
        p0              uniform 0;
        value           nonuniform List<scalar> 
180
(
-1.34697
-1.34719
-1.34713
-1.34709
-1.34711
-1.34687
-1.39532
-1.39556
-1.3955
-1.39549
-1.39553
-1.39528
-1.17553
-1.17572
-1.17566
-1.17564
-1.17567
-1.17543
-1.14246
-1.14259
-1.14251
-1.14249
-1.14253
-1.14235
-0.965281
-0.965464
-0.965424
-0.965429
-0.965496
-0.965354
-0.841676
-0.841931
-0.841924
-0.841915
-0.841919
-0.84168
-0.67131
-0.671517
-0.671503
-0.671487
-0.671496
-0.671316
-0.572219
-0.572348
-0.572339
-0.572348
-0.572377
-0.572232
0
0
0
0
0
0
0
0
0
0
0
0
0
0
0
0
0
0
-23.5458
-23.549
-23.5516
-23.5437
-23.5552
-23.545
0
0
0
0
0
0
0
0
0
0
0
0
-58.8626
-58.9191
-58.7962
-58.9677
-59.1848
-58.9028
-14.8113
-14.8293
-14.8054
-14.805
-14.7344
-14.8225
-6.02921
-6.02993
-6.01697
-6.05213
-6.08614
-5.96657
-9.43979
-9.44004
-9.43588
-9.44177
-9.47216
-9.41334
0
0
0
0
0
0
0
0
0
0
0
0
0
0
0
0
0
0
0
0
0
0
0
0
0
0
0
0
0
0
0
0
0
0
0
0
0
0
0
0
0
0
0
0
0
0
0
0
0
0
0
0
0
0
0
0
0
0
0
0
-0.40054
-0.399461
-0.398778
-0.401739
-0.420485
-0.382295
0
0
0
0
0
0
)
;
    }
}


// ************************************************************************* //
