/*--------------------------------*- C++ -*----------------------------------*\
| =========                 |                                                 |
| \\      /  F ield         | OpenFOAM: The Open Source CFD Toolbox           |
|  \\    /   O peration     | Version:  v1612+                                |
|   \\  /    A nd           | Web:      www.OpenFOAM.com                      |
|    \\/     M anipulation  |                                                 |
\*---------------------------------------------------------------------------*/
FoamFile
{
    version     2.0;
    format      ascii;
    class       volScalarField;
    location    "1.75";
    object      alpha.water;
}
// * * * * * * * * * * * * * * * * * * * * * * * * * * * * * * * * * * * * * //

dimensions      [0 0 0 0 0 0 0];

internalField   nonuniform List<scalar> 
1116
(
0.999997
0.999997
0.999997
0.999997
0.999997
0.999997
0.999997
0.999997
0.999997
0.999997
0.999997
0.999997
0.999975
0.999975
0.999975
0.999975
0.999975
0.999975
0.999942
0.999942
0.999942
0.999942
0.999942
0.999942
0.999656
0.999656
0.999656
0.999656
0.999656
0.999656
0.998265
0.998265
0.998265
0.998265
0.998265
0.998265
0.970123
0.970119
0.97012
0.970121
0.97012
0.970121
0.904835
0.904823
0.904824
0.904825
0.904825
0.904825
0.804549
0.804531
0.804529
0.80453
0.80453
0.804535
0.809143
0.809143
0.809142
0.809142
0.809141
0.80914
0.809143
0.809143
0.809143
0.809142
0.809142
0.809141
0.301429
0.301458
0.30146
0.301466
0.301465
0.301444
0.999997
0.999997
0.999997
0.999997
0.999997
0.999997
0.999983
0.999983
0.999983
0.999983
0.999983
0.999983
0.999942
0.999942
0.999942
0.999942
0.999942
0.999942
0.951596
0.951597
0.951599
0.9516
0.951599
0.951602
0.828819
0.828818
0.82882
0.82882
0.828819
0.82882
0.606183
0.606174
0.606176
0.606179
0.606178
0.606178
0.329858
0.329845
0.329847
0.329849
0.32985
0.329849
0.0952194
0.0952107
0.09521
0.0952113
0.0952118
0.0952116
0.00102738
0.00102715
0.0010269
0.00102685
0.00102689
0.00102687
0.00903066
0.00903024
0.00902993
0.00902935
0.00902863
0.00902775
0.0561443
0.0561391
0.0561396
0.0561376
0.056133
0.0561326
0.213197
0.213198
0.2132
0.213201
0.213196
0.213195
0.999978
0.999978
0.999978
0.999978
0.999978
0.999978
0.893901
0.8939
0.893901
0.893902
0.893902
0.893905
0.64269
0.642689
0.642691
0.642693
0.642693
0.642697
0.286726
0.286726
0.28673
0.286733
0.286733
0.286738
0.00759775
0.00759669
0.00759808
0.00759909
0.0075994
0.00760041
3.29627e-08
3.29651e-08
3.29687e-08
3.29718e-08
3.29738e-08
3.29754e-08
3.17789e-10
3.17871e-10
3.17915e-10
3.17933e-10
3.18223e-10
3.17935e-10
-2.6245e-12
-2.75398e-12
-2.89089e-12
-2.96539e-12
-2.44848e-12
-3.07647e-12
6.94959e-09
6.95128e-09
6.952e-09
6.95269e-09
6.94466e-09
6.95172e-09
-5.53754e-07
-5.54103e-07
-5.54081e-07
-5.53935e-07
-5.53817e-07
-5.53384e-07
5.77516e-05
5.77663e-05
5.77708e-05
5.77627e-05
5.77459e-05
5.77199e-05
0.0849307
0.0849215
0.084924
0.0849201
0.0849143
0.0849208
0.953284
0.953283
0.953284
0.953285
0.953285
0.953286
0.160472
0.16047
0.160471
0.160474
0.160474
0.160478
2.63524e-07
2.63517e-07
2.63517e-07
2.63517e-07
2.63519e-07
2.63529e-07
2.39551e-07
2.39548e-07
2.39551e-07
2.39552e-07
2.39557e-07
2.39566e-07
3.19764e-08
3.19787e-08
3.1982e-08
3.19849e-08
3.1987e-08
3.19883e-08
-2.4433e-12
-2.44399e-12
-2.44508e-12
-2.44581e-12
-2.44368e-12
-2.44535e-12
1.66277e-11
1.66424e-11
1.66179e-11
1.65912e-11
1.67509e-11
1.65264e-11
5.59388e-10
5.59514e-10
5.59743e-10
5.59931e-10
5.59561e-10
5.60273e-10
1.49326e-09
1.49351e-09
1.4943e-09
1.49444e-09
1.49284e-09
1.49399e-09
-5.03909e-09
-5.04574e-09
-5.07218e-09
-5.12605e-09
-5.16813e-09
-5.19071e-09
9.93976e-07
9.94581e-07
9.94796e-07
9.94606e-07
9.93854e-07
9.93809e-07
6.10865e-05
6.10818e-05
6.10925e-05
6.10869e-05
6.10502e-05
6.10725e-05
4.48184e-64
4.4908e-64
4.49073e-64
4.49172e-64
4.49483e-64
4.48773e-64
6.9382e-60
6.95278e-60
6.95298e-60
6.95501e-60
6.96032e-60
6.95068e-60
5.10446e-56
5.11518e-56
5.1155e-56
5.11712e-56
5.12124e-56
5.11465e-56
2.35264e-52
2.35754e-52
2.35774e-52
2.35852e-52
2.36053e-52
2.35772e-52
7.57972e-49
7.5952e-49
7.59596e-49
7.59863e-49
7.60546e-49
7.59734e-49
1.80461e-45
1.8082e-45
1.8084e-45
1.80909e-45
1.81082e-45
1.80915e-45
3.26056e-42
3.26681e-42
3.26722e-42
3.26858e-42
3.27188e-42
3.26941e-42
4.54727e-39
4.55549e-39
4.5561e-39
4.55815e-39
4.56298e-39
4.56034e-39
5.077e-36
5.08409e-36
5.08438e-36
5.08684e-36
5.09282e-36
5.09132e-36
4.98598e-33
4.99065e-33
4.99058e-33
4.99325e-33
4.99986e-33
5.00023e-33
4.06266e-30
4.07057e-30
4.07126e-30
4.07314e-30
4.07765e-30
4.07717e-30
1.9876e-27
1.99244e-27
1.99267e-27
1.99284e-27
1.99359e-27
1.99113e-27
1.15685e-60
1.15887e-60
1.1588e-60
1.15905e-60
1.15989e-60
1.15817e-60
1.71711e-56
1.72019e-56
1.72013e-56
1.72062e-56
1.72198e-56
1.71973e-56
1.19299e-52
1.19508e-52
1.19507e-52
1.19543e-52
1.19642e-52
1.19497e-52
5.07474e-49
5.08334e-49
5.0833e-49
5.0849e-49
5.08934e-49
5.08367e-49
1.46163e-45
1.46398e-45
1.46396e-45
1.46445e-45
1.46579e-45
1.46435e-45
3.02271e-42
3.02676e-42
3.02658e-42
3.0276e-42
3.03053e-42
3.02813e-42
4.82448e-39
4.82934e-39
4.82879e-39
4.83052e-39
4.83558e-39
4.8329e-39
6.38552e-36
6.38582e-36
6.38368e-36
6.38619e-36
6.39415e-36
6.39356e-36
7.45678e-33
7.45184e-33
7.44819e-33
7.45154e-33
7.46233e-33
7.46469e-33
7.89466e-30
7.8913e-30
7.88833e-30
7.89212e-30
7.90359e-30
7.90693e-30
6.07193e-27
6.08135e-27
6.08163e-27
6.08373e-27
6.08978e-27
6.08888e-27
1.94273e-24
1.94678e-24
1.94681e-24
1.94678e-24
1.94731e-24
1.9448e-24
6.56148e-57
6.57362e-57
6.57302e-57
6.57381e-57
6.57729e-57
6.56557e-57
1.03207e-52
1.034e-52
1.03393e-52
1.03409e-52
1.03468e-52
1.03297e-52
7.60413e-49
7.61809e-49
7.61761e-49
7.61879e-49
7.6232e-49
7.61105e-49
3.43254e-45
3.43862e-45
3.43836e-45
3.43888e-45
3.44088e-45
3.43563e-45
1.0527e-41
1.05446e-41
1.05437e-41
1.05452e-41
1.05514e-41
1.05361e-41
2.29288e-38
2.29645e-38
2.29619e-38
2.29651e-38
2.29787e-38
2.29477e-38
3.49015e-35
3.49508e-35
3.4946e-35
3.49506e-35
3.49712e-35
3.49275e-35
3.59537e-32
3.59982e-32
3.5992e-32
3.59962e-32
3.60175e-32
3.59765e-32
2.53009e-29
2.53255e-29
2.532e-29
2.53228e-29
2.53387e-29
2.53145e-29
1.32927e-26
1.33026e-26
1.32994e-26
1.3301e-26
1.33101e-26
1.33007e-26
5.69551e-24
5.7037e-24
5.70321e-24
5.70353e-24
5.70641e-24
5.70174e-24
9.37108e-22
9.38816e-22
9.38751e-22
9.38636e-22
9.38723e-22
9.37328e-22
2.85032e-54
2.85621e-54
2.85614e-54
2.85646e-54
2.85777e-54
2.85244e-54
4.60037e-50
4.60997e-50
4.60997e-50
4.61062e-50
4.61284e-50
4.6047e-50
3.38054e-46
3.38751e-46
3.38753e-46
3.38801e-46
3.38965e-46
3.38384e-46
1.45377e-42
1.45671e-42
1.45673e-42
1.45693e-42
1.45762e-42
1.45521e-42
3.95864e-39
3.96646e-39
3.96649e-39
3.96703e-39
3.96891e-39
3.96258e-39
7.09323e-36
7.10679e-36
7.10681e-36
7.10774e-36
7.11109e-36
7.10026e-36
8.81671e-33
8.8325e-33
8.83229e-33
8.8333e-33
8.83739e-33
8.82472e-33
8.33167e-30
8.3414e-30
8.34002e-30
8.34077e-30
8.34516e-30
8.33596e-30
6.45152e-27
6.45593e-27
6.45405e-27
6.45447e-27
6.45825e-27
6.45279e-27
4.15284e-24
4.15504e-24
4.15372e-24
4.1539e-24
4.15643e-24
4.1537e-24
1.83105e-21
1.83353e-21
1.83327e-21
1.83315e-21
1.8336e-21
1.83142e-21
1.77995e-19
1.78264e-19
1.78244e-19
1.78217e-19
1.78217e-19
1.7795e-19
0.407227
0.407226
0.407228
0.407228
0.407228
0.407233
0.0590522
0.0590549
0.0590556
0.0590537
0.0590537
0.0590596
-1.53834e-13
-1.6851e-13
-1.72966e-13
-1.69116e-13
-1.68121e-13
-1.72127e-13
2.63559e-07
2.63552e-07
2.63552e-07
2.63552e-07
2.63554e-07
2.63564e-07
0.00127832
0.0012783
0.00127833
0.00127831
0.00127831
0.00127841
-5.33879e-13
-5.84787e-13
-6.00257e-13
-5.86899e-13
-5.83438e-13
-5.97348e-13
1.72385e-07
1.72409e-07
1.72413e-07
1.72409e-07
1.72401e-07
1.72387e-07
1.1087e-09
1.10837e-09
1.10873e-09
1.10865e-09
1.109e-09
1.10932e-09
-2.09257e-12
-2.29211e-12
-2.35274e-12
-2.30037e-12
-2.28683e-12
-2.34133e-12
2.64267e-07
2.64254e-07
2.64255e-07
2.64255e-07
2.6426e-07
2.64277e-07
7.40419e-06
7.4042e-06
7.40421e-06
7.40422e-06
7.40423e-06
7.40423e-06
-4.80125e-12
-5.25897e-12
-5.398e-12
-5.27782e-12
-5.24679e-12
-5.37163e-12
5.20989e-07
5.20939e-07
5.2092e-07
5.20892e-07
5.20863e-07
5.20828e-07
5.74692e-06
5.74644e-06
5.74663e-06
5.7466e-06
5.74646e-06
5.74666e-06
-9.75558e-16
-1.15901e-15
-1.30997e-15
-1.24896e-15
-1.18906e-15
1.93237e-29
2.73374e-17
2.62138e-17
3.04039e-17
3.49923e-17
8.20008e-18
4.36176e-17
6.16439e-17
6.16819e-17
6.16909e-17
6.17012e-17
6.17265e-17
6.16875e-17
2.03931e-17
2.03954e-17
2.03959e-17
2.03965e-17
2.03979e-17
2.03951e-17
1.89755e-13
1.89973e-13
1.89675e-13
1.89355e-13
1.91182e-13
1.88579e-13
-1.6896e-14
-1.69156e-14
-1.69473e-14
-1.69859e-14
-1.67062e-14
-1.70481e-14
-4.81891e-17
-4.8317e-17
-4.83307e-17
-4.83672e-17
-4.80498e-17
-4.83374e-17
8.50981e-10
8.49122e-10
8.4481e-10
8.39381e-10
8.81799e-10
8.29348e-10
7.057e-13
7.06433e-13
7.07161e-13
7.08035e-13
7.01098e-13
7.08865e-13
-5.48065e-16
-5.47752e-16
-5.46105e-16
-5.4395e-16
-5.61318e-16
-5.39096e-16
3.16235e-07
3.16344e-07
3.16342e-07
3.16363e-07
3.15946e-07
3.16288e-07
6.74907e-11
6.75003e-11
6.75048e-11
6.75077e-11
6.75137e-11
6.74855e-11
-3.8718e-16
-3.8741e-16
-3.87892e-16
-3.88566e-16
-3.84991e-16
-3.90215e-16
2.52908e-06
2.53003e-06
2.53091e-06
2.53094e-06
2.52557e-06
2.53066e-06
1.89352e-07
1.89263e-07
1.89288e-07
1.89294e-07
1.89348e-07
1.89401e-07
1.04484e-07
1.04459e-07
1.04472e-07
1.04485e-07
1.04519e-07
1.04541e-07
2.31166e-06
2.31274e-06
2.31355e-06
2.31348e-06
2.3102e-06
2.31248e-06
1.23769e-05
1.23719e-05
1.2374e-05
1.23738e-05
1.23701e-05
1.23769e-05
6.36927e-06
6.36888e-06
6.36907e-06
6.36936e-06
6.37104e-06
6.37237e-06
8.06104e-06
8.0623e-06
8.06451e-06
8.06383e-06
8.05531e-06
8.06223e-06
1.11912e-05
1.11863e-05
1.1189e-05
1.11887e-05
1.11842e-05
1.11923e-05
7.11258e-06
7.11137e-06
7.11149e-06
7.11178e-06
7.11355e-06
7.11559e-06
4.35339e-15
4.35852e-15
4.35708e-15
4.35587e-15
4.35504e-15
4.34785e-15
3.89752e-15
3.90174e-15
3.90071e-15
3.89967e-15
3.89883e-15
3.89299e-15
1.68551e-15
1.68724e-15
1.6869e-15
1.68664e-15
1.68649e-15
1.68465e-15
3.05882e-13
3.06084e-13
3.06097e-13
3.06016e-13
3.0588e-13
3.0554e-13
4.90856e-13
4.91167e-13
4.9119e-13
4.91088e-13
4.9089e-13
4.90547e-13
3.96843e-13
3.97489e-13
3.97332e-13
3.97261e-13
3.97276e-13
3.96562e-13
1.23674e-10
1.2381e-10
1.23758e-10
1.23725e-10
1.2372e-10
1.23473e-10
9.31886e-11
9.3296e-11
9.3256e-11
9.32272e-11
9.32189e-11
9.30219e-11
4.46248e-11
4.47049e-11
4.4683e-11
4.46745e-11
4.4679e-11
4.45891e-11
3.97819e-08
3.98103e-08
3.97988e-08
3.97926e-08
3.97923e-08
3.97498e-08
9.93099e-09
9.94046e-09
9.93648e-09
9.93401e-09
9.934e-09
9.9157e-09
9.21959e-08
9.23387e-08
9.22937e-08
9.22799e-08
9.22844e-08
9.21386e-08
6.23308e-09
6.23303e-09
6.23269e-09
6.23145e-09
6.23051e-09
6.23051e-09
3.15803e-05
3.16025e-05
3.15931e-05
3.15897e-05
3.15935e-05
3.15629e-05
4.64464e-06
4.65096e-06
4.64893e-06
4.64832e-06
4.64903e-06
4.64246e-06
0.000493847
0.000493996
0.000493932
0.000493905
0.000494031
0.000493643
0.000275183
0.000275303
0.000275259
0.000275243
0.000275291
0.000275123
5.66381e-06
5.67177e-06
5.66925e-06
5.66853e-06
5.66851e-06
5.66369e-06
4.65272e-51
4.66165e-51
4.66119e-51
4.66136e-51
4.66296e-51
4.65355e-51
7.95343e-53
7.96954e-53
7.96943e-53
7.96975e-53
7.972e-53
7.95536e-53
3.19864e-56
3.20546e-56
3.20537e-56
3.20551e-56
3.20648e-56
3.19951e-56
1.05395e-46
1.05596e-46
1.05587e-46
1.05591e-46
1.05627e-46
1.05421e-46
3.63364e-48
3.64081e-48
3.6408e-48
3.64094e-48
3.64188e-48
3.63469e-48
1.67774e-51
1.6812e-51
1.68116e-51
1.68122e-51
1.68168e-51
1.67819e-51
1.08937e-42
1.09139e-42
1.09128e-42
1.09129e-42
1.09163e-42
1.08954e-42
7.8165e-44
7.83118e-44
7.83111e-44
7.83123e-44
7.83294e-44
7.81813e-44
4.48861e-47
4.49744e-47
4.49734e-47
4.49742e-47
4.49849e-47
4.48954e-47
6.56876e-39
6.58046e-39
6.57965e-39
6.57957e-39
6.58139e-39
6.56901e-39
1.0009e-39
1.00268e-39
1.00266e-39
1.00266e-39
1.00284e-39
1.00104e-39
7.80939e-43
7.82395e-43
7.82377e-43
7.82381e-43
7.82541e-43
7.81063e-43
2.47138e-35
2.47559e-35
2.47523e-35
2.47514e-35
2.47574e-35
2.47119e-35
8.10012e-36
8.11374e-36
8.11354e-36
8.11339e-36
8.11454e-36
8.10075e-36
9.54556e-39
9.56235e-39
9.56212e-39
9.56206e-39
9.5637e-39
9.54665e-39
5.75775e-32
5.76707e-32
5.76613e-32
5.76579e-32
5.76701e-32
5.7567e-32
4.15863e-32
4.16524e-32
4.16511e-32
4.16495e-32
4.16537e-32
4.15869e-32
8.39061e-35
8.40443e-35
8.40418e-35
8.40399e-35
8.40511e-35
8.39103e-35
7.836e-29
7.84799e-29
7.84658e-29
7.84595e-29
7.84738e-29
7.83375e-29
1.34229e-28
1.3443e-28
1.34424e-28
1.34416e-28
1.34424e-28
1.3422e-28
5.17938e-31
5.18736e-31
5.18715e-31
5.18694e-31
5.18742e-31
5.17928e-31
5.76871e-26
5.77702e-26
5.77587e-26
5.77527e-26
5.77615e-26
5.76642e-26
2.70611e-25
2.70992e-25
2.70974e-25
2.70951e-25
2.70953e-25
2.70567e-25
2.05896e-27
2.062e-27
2.06187e-27
2.06174e-27
2.06186e-27
2.05876e-27
2.1809e-23
2.18384e-23
2.18337e-23
2.18309e-23
2.18336e-23
2.1798e-23
3.2138e-22
3.21808e-22
3.21776e-22
3.21739e-22
3.21726e-22
3.21289e-22
4.78114e-24
4.78827e-24
4.78773e-24
4.7873e-24
4.78745e-24
4.78007e-24
4.21447e-21
4.21979e-21
4.21886e-21
4.21824e-21
4.2186e-21
4.212e-21
1.91126e-19
1.91371e-19
1.91344e-19
1.91314e-19
1.91296e-19
1.9104e-19
6.30132e-21
6.31142e-21
6.31012e-21
6.3093e-21
6.3094e-21
6.29874e-21
4.54368e-19
4.54916e-19
4.5482e-19
4.54744e-19
4.54753e-19
4.5409e-19
4.84324e-17
4.84944e-17
4.84842e-17
4.84743e-17
4.84671e-17
4.83975e-17
4.63408e-18
4.6423e-18
4.64079e-18
4.63998e-18
4.64004e-18
4.63123e-18
3.84211e-17
3.84698e-17
3.84616e-17
3.84533e-17
3.84484e-17
3.83917e-17
2.66244e-15
2.66573e-15
2.66501e-15
2.66436e-15
2.6639e-15
2.65993e-15
4.6811e-16
4.68918e-16
4.68754e-16
4.68671e-16
4.68662e-16
4.67827e-16
)
;

boundaryField
{
    seabed_topleft_surface
    {
        type            zeroGradient;
    }
    seabed_topright_surface
    {
        type            zeroGradient;
    }
    breakwater_top_surface
    {
        type            zeroGradient;
    }
    breakwater_left_surface
    {
        type            zeroGradient;
    }
    breakwater_right_surface
    {
        type            zeroGradient;
    }
    water_front_surface
    {
        type            zeroGradient;
    }
    water_back_surface
    {
        type            zeroGradient;
    }
    water_left_surface
    {
        type            zeroGradient;
    }
    water_right_surface
    {
        type            zeroGradient;
    }
    water_top_surface
    {
        type            inletOutlet;
        inletValue      uniform 0;
        value           nonuniform List<scalar> 
180
(
0
0
0
0
0
0
0
0
0
0
0
0
0
0
0
0
0
0
0
0
0
0
0
0
0
0
0
0
0
0
0
0
0
0
0
0
0
0
0
0
0
0
0
0
0
0
0
0
0
0
0
0
0
0
0
0
0
0
0
0
6.36927e-06
6.36888e-06
6.36907e-06
6.36936e-06
6.37104e-06
6.37237e-06
7.11258e-06
7.11137e-06
7.11149e-06
7.11178e-06
7.11355e-06
7.11559e-06
1.68551e-15
1.68724e-15
1.6869e-15
1.68664e-15
1.68649e-15
1.68465e-15
3.96843e-13
3.97489e-13
3.97332e-13
3.97261e-13
3.97276e-13
3.96562e-13
4.46248e-11
4.47049e-11
4.4683e-11
4.46745e-11
4.4679e-11
4.45891e-11
9.21959e-08
9.23387e-08
9.22937e-08
9.22799e-08
9.22844e-08
9.21386e-08
4.64464e-06
4.65096e-06
4.64893e-06
4.64832e-06
4.64903e-06
4.64246e-06
5.66381e-06
5.67177e-06
5.66925e-06
5.66853e-06
5.66851e-06
5.66369e-06
3.19864e-56
3.20546e-56
3.20537e-56
3.20551e-56
3.20648e-56
3.19951e-56
1.67774e-51
1.6812e-51
1.68116e-51
1.68122e-51
1.68168e-51
1.67819e-51
4.48861e-47
4.49744e-47
4.49734e-47
4.49742e-47
4.49849e-47
4.48954e-47
7.80939e-43
7.82395e-43
7.82377e-43
7.82381e-43
7.82541e-43
7.81063e-43
9.54556e-39
9.56235e-39
9.56212e-39
9.56206e-39
9.5637e-39
9.54665e-39
8.39061e-35
8.40443e-35
8.40418e-35
8.40399e-35
8.40511e-35
8.39103e-35
5.17938e-31
5.18736e-31
5.18715e-31
5.18694e-31
5.18742e-31
5.17928e-31
2.05896e-27
2.062e-27
2.06187e-27
2.06174e-27
2.06186e-27
2.05876e-27
4.78114e-24
4.78827e-24
4.78773e-24
4.7873e-24
4.78745e-24
4.78007e-24
6.30132e-21
6.31142e-21
6.31012e-21
6.3093e-21
6.3094e-21
6.29874e-21
4.63408e-18
4.6423e-18
4.64079e-18
4.63998e-18
4.64004e-18
4.63123e-18
4.6811e-16
4.68918e-16
4.68754e-16
4.68671e-16
4.68662e-16
4.67827e-16
)
;
    }
}


// ************************************************************************* //
