/*--------------------------------*- C++ -*----------------------------------*\
| =========                 |                                                 |
| \\      /  F ield         | OpenFOAM: The Open Source CFD Toolbox           |
|  \\    /   O peration     | Version:  v1612+                                |
|   \\  /    A nd           | Web:      www.OpenFOAM.com                      |
|    \\/     M anipulation  |                                                 |
\*---------------------------------------------------------------------------*/
FoamFile
{
    version     2.0;
    format      ascii;
    class       surfaceScalarField;
    location    "1.75";
    object      alphaPhi;
}
// * * * * * * * * * * * * * * * * * * * * * * * * * * * * * * * * * * * * * //

dimensions      [0 3 -1 0 0 0 0];

internalField   nonuniform List<scalar> 
2916
(
-6.42626e-07
0.484549
-0.48453
-2.63572e-07
0.484551
-0.484533
3.00374e-07
0.484551
-0.484533
7.67623e-07
0.484551
-0.484533
1.00333e-06
0.484551
-0.484533
0.48455
-0.48453
-1.65852e-06
1.07121
-0.586644
-1.27331e-07
1.07122
-0.58665
-1.93966e-07
1.07122
-0.586648
1.38626e-07
1.07122
-0.586647
1.65533e-06
1.07122
-0.586647
1.07121
-0.586642
-1.25159e-06
1.57625
-0.504893
-1.29441e-07
1.57625
-0.504897
-2.09023e-06
1.57625
-0.504894
-2.39748e-06
1.57625
-0.504894
6.11293e-07
1.57625
-0.504897
1.57624
-0.504889
-4.12545e-06
2.06683
-0.490395
-2.62788e-06
2.06684
-0.490404
-6.09866e-06
2.06684
-0.490399
-6.66972e-06
2.06684
-0.490402
-2.62934e-06
2.06684
-0.490407
2.06683
-0.490402
-1.0832e-05
2.486
-0.418667
-9.39838e-06
2.48601
-0.418681
-1.19123e-05
2.48601
-0.418677
-1.20391e-05
2.48601
-0.418679
-7.46877e-06
2.48601
-0.418686
2.48599
-0.418685
-1.92384e-05
2.94577
-0.461173
-1.66691e-05
2.94578
-0.461198
-1.60358e-05
2.94578
-0.461196
-1.49343e-05
2.94578
-0.461196
-9.10786e-06
2.94578
-0.461201
2.94576
-0.461203
-2.33823e-05
3.26845
-0.377205
-2.06081e-05
3.26845
-0.377228
-1.75843e-05
3.26845
-0.37723
-1.47036e-05
3.26845
-0.377232
-7.64925e-06
3.26845
-0.377235
3.26844
-0.377235
-1.45853e-05
3.30737
-0.156289
-1.72569e-05
3.30735
-0.156297
-1.61523e-05
3.30735
-0.156299
-1.25151e-05
3.30735
-0.156302
-6.09106e-06
3.30736
-0.156304
3.30735
-0.156303
4.93988e-06
3.33573
-0.0764931
-7.02064e-06
3.33574
-0.0764884
-1.23005e-05
3.33574
-0.07649
-8.1397e-06
3.33575
-0.0764938
-6.80185e-06
3.33576
-0.0764953
3.33575
-0.0764954
1.9292e-05
3.13283
0.20377
3.34253e-06
3.13286
0.20376
-8.6475e-06
3.13284
0.20375
-1.5057e-05
3.13284
0.20374
-1.82497e-05
3.13286
0.203728
3.13284
0.203724
2.15044e-06
2.38374
0.749965
-8.72802e-06
2.38383
0.749919
-1.53831e-05
2.3838
0.74991
-1.81716e-05
2.38379
0.749884
-9.95093e-06
2.3838
0.749874
2.38375
0.749907
-4.9842e-05
0.574245
-3.02674e-05
0.574213
-1.54207e-05
0.574216
5.69404e-06
0.574211
2.00937e-05
0.57421
0.574226
4.69428e-07
0.611761
-1.09627
1.13404e-06
0.611766
-1.09628
6.74883e-07
0.611763
-1.09628
-3.50093e-07
0.611762
-1.09628
-1.13567e-07
0.611761
-1.09628
0.611759
-1.09627
3.8595e-07
1.15431
-1.1291
8.98731e-07
1.15432
-1.12912
-2.2853e-06
1.15432
-1.12911
-3.60491e-06
1.15431
-1.12911
-8.39453e-08
1.15431
-1.12911
1.1543
-1.1291
-4.12592e-06
1.599
-0.949394
-4.74986e-06
1.59902
-0.949406
-6.77043e-06
1.59902
-0.9494
-7.44287e-06
1.59901
-0.949402
-3.15906e-06
1.59901
-0.949408
1.599
-0.949393
-1.0252e-05
1.95085
-0.752162
-9.56874e-06
1.95087
-0.752181
-7.20544e-06
1.95087
-0.752182
-6.04082e-06
1.95087
-0.752186
-4.12396e-06
1.95087
-0.752192
1.95086
-0.75219
-9.71e-06
1.76765
-0.206611
-1.65331e-05
1.76766
-0.206618
-1.12713e-05
1.76766
-0.206623
-1.01647e-05
1.76767
-0.206625
-1.27167e-05
1.76767
-0.206627
1.76765
-0.206633
-8.06083e-07
1.2439
-0.0508878
-5.26296e-06
1.24389
-0.0508869
-1.07657e-06
1.24389
-0.0508896
-1.70837e-06
1.2439
-0.0508915
-6.68738e-06
1.2439
-0.0508922
1.24389
-0.0508938
1.30674e-05
0.635279
-0.00470716
3.36397e-06
0.635261
-0.00470697
1.41867e-06
0.635258
-0.00470726
9.40419e-07
0.635264
-0.0047075
-3.52232e-06
0.635268
-0.0047076
0.63526
-0.00470768
9.65273e-06
0.147629
-0.00039141
2.50364e-06
0.147618
-0.000391395
-9.23416e-07
0.147613
-0.000391417
-1.08906e-06
0.147615
-0.000391439
-2.26934e-06
0.147618
-0.000391449
0.147615
-0.000391447
2.68676e-07
0.0387467
-3.03545e-05
2.69303e-07
0.0387453
-3.03541e-05
1.97183e-07
0.0387431
-3.03551e-05
2.59234e-07
0.038743
-3.03571e-05
1.36082e-07
0.0387436
-3.03588e-05
0.0387423
-3.03581e-05
6.94636e-07
0.146739
0.00254163
3.92641e-08
0.146736
0.00254201
-1.05357e-06
0.146733
0.00254212
-1.94745e-06
0.146725
0.00254198
-2.08215e-06
0.146714
0.00254163
0.1467
0.00254118
1.15064e-05
0.611141
0.0533442
4.51246e-06
0.611157
0.0533416
-6.83604e-06
0.611161
0.053341
-1.63868e-05
0.611157
0.0533403
-1.34882e-05
0.611138
0.053347
0.61111
0.0533336
-2.45981e-05
0.280799
-1.507e-05
0.28074
-5.33854e-06
0.280748
8.60065e-06
0.280736
7.02459e-06
0.280726
0.280768
1.05224e-06
0.580165
-1.6763
8.97104e-07
0.580169
-1.67631
-4.19797e-07
0.580169
-1.67631
-2.02868e-06
0.580168
-1.6763
-2.4197e-06
0.580166
-1.6763
0.58017
-1.67631
-7.74633e-07
0.875645
-0.870359
-3.65572e-06
0.875651
-0.870364
-4.24384e-06
0.875652
-0.870365
-5.88758e-06
0.875653
-0.87037
-7.93019e-06
0.875652
-0.870373
0.875654
-0.870377
-9.89152e-06
0.66038
-0.120626
-1.01449e-05
0.660386
-0.120624
-5.83592e-06
0.660391
-0.120625
-6.39378e-06
0.660394
-0.120626
-1.23027e-05
0.660394
-0.120627
0.660396
-0.120629
-8.55935e-06
0.243414
-0.00558949
-6.38699e-06
0.243416
-0.00558935
6.02423e-07
0.243421
-0.00558941
-8.65635e-08
0.243425
-0.00558956
-6.03161e-06
0.243426
-0.0055897
0.243429
-0.0055899
-1.1884e-07
0.0560157
-0.000165566
6.66787e-08
0.0560145
-0.00016557
4.47999e-07
0.0560175
-0.000165576
2.92489e-07
0.0560196
-0.000165584
-2.54581e-07
0.0560205
-0.000165589
0.0560223
-0.000165597
4.56257e-08
0.00513171
-3.67125e-06
6.8478e-08
0.0051315
-3.67151e-06
6.11839e-08
0.00513181
-3.67191e-06
1.88135e-08
0.00513207
-3.67225e-06
-3.13607e-08
0.00513218
-3.67247e-06
0.00513228
-3.67265e-06
2.99359e-09
0.000424577
-3.27247e-08
2.78183e-09
0.000424562
-3.27311e-08
7.65272e-10
0.000424586
-3.27416e-08
-4.53308e-09
0.00042461
-3.27494e-08
-7.5635e-09
0.000424622
-3.2748e-08
0.00042462
-3.27633e-08
2.38537e-10
3.30994e-05
-7.88278e-09
-5.1255e-10
3.30994e-05
-7.88429e-09
-4.81118e-10
3.31005e-05
-7.87992e-09
-4.4576e-10
3.31027e-05
-7.8748e-09
-7.12715e-10
3.31048e-05
-7.91453e-09
3.31035e-05
-7.86393e-09
1.0769e-10
3.00427e-06
-1.41733e-07
1.04157e-10
3.00473e-06
-1.41701e-07
1.20151e-10
3.00485e-06
-1.41685e-07
1.37464e-10
3.00503e-06
-1.41722e-07
1.37042e-10
3.00517e-06
-1.416e-07
3.00505e-06
-1.41778e-07
2.1516e-08
0.00249408
5.71316e-05
5.87361e-08
0.00249441
5.71579e-05
7.42358e-08
0.00249454
5.71704e-05
7.571e-08
0.00249442
5.71669e-05
7.06942e-08
0.00249409
5.71452e-05
0.00249373
5.71312e-05
5.31212e-07
0.0521178
0.00330593
6.45323e-07
0.052116
0.00330621
-1.00626e-07
0.0521166
0.003306
-1.05552e-06
0.0521159
0.00330598
-1.99671e-06
0.052121
0.0033072
0.0521062
0.003305
-8.13146e-06
0.000995164
-1.63967e-05
0.000991408
-2.67997e-05
0.000986761
-2.15533e-05
0.000988733
-5.15111e-05
0.000992433
0.00101976
-2.57245e-07
0.13317
-1.4827
6.76008e-07
0.133168
-1.48271
4.37361e-07
0.13317
-1.48271
-1.59805e-06
0.133172
-1.48271
-2.81614e-06
0.133171
-1.4827
0.133171
-1.48271
-2.05986e-06
0.126368
-0.00399239
-3.24988e-06
0.126366
-0.00399232
4.20659e-07
0.126367
-0.00399243
2.26889e-06
0.126368
-0.00399239
-2.22616e-06
0.12637
-0.00399238
0.126372
-0.00399253
-1.76306e-08
0.00574254
-2.95141e-06
-4.35344e-09
0.0057424
-2.95024e-06
7.78953e-08
0.00574245
-2.95002e-06
1.4092e-07
0.00574262
-2.9502e-06
6.06342e-08
0.00574276
-2.95058e-06
0.00574296
-2.95175e-06
1.00912e-08
0.000167153
-1.5005e-05
1.7803e-08
0.000167156
-1.50053e-05
1.63531e-08
0.000167163
-1.50051e-05
1.17442e-08
0.000167171
-1.50047e-05
6.78907e-09
0.000167177
-1.50049e-05
0.000167184
-1.50049e-05
2.46686e-10
3.7033e-06
-1.91293e-06
5.67171e-10
3.70358e-06
-1.91297e-06
5.64518e-10
3.70398e-06
-1.91296e-06
4.12583e-10
3.70433e-06
-1.91291e-06
2.56284e-10
3.70455e-06
-1.91294e-06
3.70474e-06
-1.91306e-06
3.66033e-12
3.20506e-08
-1.05367e-11
5.65984e-12
3.20565e-08
-1.05487e-11
5.94158e-12
3.20673e-08
-1.05332e-11
5.90477e-12
3.20754e-08
-1.05159e-11
4.81748e-12
3.20729e-08
-1.06176e-11
3.20903e-08
-1.04732e-11
-2.67833e-14
8.32973e-11
-3.44679e-10
-3.5465e-14
8.33214e-11
-3.44823e-10
-2.12929e-14
8.33453e-11
-3.44718e-10
1.15654e-14
8.33548e-11
-3.44579e-10
2.56859e-14
8.34824e-11
-3.45724e-10
8.34098e-11
-3.4424e-10
-1.73649e-14
5.86932e-10
-4.17584e-09
1.41688e-14
5.87038e-10
-4.17691e-09
4.8587e-14
5.8712e-10
-4.17246e-09
6.59466e-14
5.87144e-10
-4.16727e-09
1.68939e-14
5.87939e-10
-4.2032e-09
5.87269e-10
-4.15584e-09
1.38154e-12
5.27641e-07
-6.40859e-07
1.72755e-12
5.27851e-07
-6.41048e-07
2.06278e-12
5.27901e-07
-6.4106e-07
1.5994e-12
5.27931e-07
-6.41097e-07
8.29923e-13
5.27193e-07
-6.40259e-07
5.27779e-07
-6.40974e-07
3.54956e-10
5.82008e-05
-2.89072e-07
3.35813e-10
5.82263e-05
-2.87696e-07
6.62298e-10
5.82372e-05
-2.86448e-07
7.75251e-10
5.82335e-05
-2.86077e-07
5.43384e-10
5.8212e-05
-2.87337e-07
5.8198e-05
-2.84566e-07
8.11097e-09
0.0031574
0.000196569
2.69657e-08
0.00315764
0.00019661
2.74892e-08
0.00315745
0.000196631
3.87025e-08
0.00315743
0.000196614
-9.83039e-09
0.0031587
0.000196607
0.0031565
0.000196528
-5.13459e-07
0.00395259
-4.30773e-06
0.00395229
-1.33591e-05
0.00395275
-2.05145e-05
0.00395284
-2.71923e-05
0.00395761
0.00394797
-2.46333e-70
-5.28697e-64
3.43979e-68
-7.32312e-71
-5.29951e-64
3.45251e-68
1.12236e-72
-5.2992e-64
3.45348e-68
2.88994e-71
-5.29915e-64
3.45529e-68
3.79287e-71
-5.30235e-64
3.45818e-68
-5.28696e-64
3.45184e-68
-2.9292e-66
-7.73096e-60
5.29567e-64
-4.97357e-67
-7.75425e-60
5.31491e-64
4.3459e-67
-7.75498e-60
5.31569e-64
1.02537e-66
-7.75711e-60
5.3182e-64
1.49874e-66
-7.76294e-60
5.3228e-64
-7.74533e-60
5.31281e-64
-2.00039e-62
-5.32146e-56
3.86306e-60
-1.38538e-63
-5.33803e-56
3.87748e-60
5.62045e-63
-5.33819e-56
3.87799e-60
9.80119e-63
-5.33969e-56
3.8797e-60
1.24598e-62
-5.34367e-56
3.88332e-60
-5.3318e-56
3.87616e-60
-8.81063e-59
-2.30535e-52
1.85543e-56
1.09627e-59
-2.31231e-52
1.86339e-56
4.97482e-59
-2.31222e-52
1.86393e-56
6.41701e-59
-2.31266e-52
1.86522e-56
7.1153e-59
-2.31444e-52
1.86724e-56
-2.30936e-52
1.86427e-56
-1.62357e-55
-7.24876e-49
7.45308e-53
2.42309e-55
-7.26858e-49
7.49569e-53
3.44344e-55
-7.26748e-49
7.50394e-53
3.38335e-55
-7.26882e-49
7.51199e-53
3.09418e-55
-7.27533e-49
7.52206e-53
-7.26078e-49
7.51249e-53
3.03679e-52
-1.7689e-45
2.55123e-49
1.37647e-51
-1.7732e-45
2.57116e-49
1.36474e-51
-1.77285e-45
2.57613e-49
1.03606e-51
-1.77337e-45
2.57944e-49
7.6697e-52
-1.7754e-45
2.58269e-49
-1.7727e-45
2.57868e-49
3.29115e-48
-3.31219e-42
6.05607e-46
4.51502e-48
-3.31911e-42
6.12742e-46
3.05581e-48
-3.31889e-42
6.14602e-46
1.2288e-48
-3.32066e-42
6.15377e-46
3.6966e-49
-3.32558e-42
6.15667e-46
-3.32272e-42
6.13872e-46
1.00865e-44
-4.38935e-39
6.13458e-43
9.27849e-45
-4.39751e-39
6.31358e-43
3.70806e-45
-4.39852e-39
6.36157e-43
-1.39256e-45
-4.40238e-39
6.3681e-43
-2.9285e-45
-4.41062e-39
6.34995e-43
-4.41004e-39
6.29369e-43
1.29844e-41
-4.05595e-36
-3.93087e-37
9.67434e-42
-4.06151e-36
-3.63237e-37
5.97409e-43
-4.06312e-36
-3.55215e-37
-6.75627e-42
-4.06874e-36
-3.56038e-37
-7.63618e-42
-4.07965e-36
-3.62776e-37
-4.08414e-36
-3.7382e-37
1.05193e-38
-2.53454e-33
-1.50745e-33
3.9413e-39
-2.54034e-33
-1.47646e-33
-6.41857e-39
-2.54264e-33
-1.47059e-33
-1.38678e-38
-2.54742e-33
-1.47499e-33
-1.33902e-38
-2.55616e-33
-1.48733e-33
-2.56287e-33
-1.50435e-33
-5.751e-36
1.40742e-34
-3.9863e-30
-1.10166e-35
1.4096e-34
-3.99203e-30
-1.63023e-35
1.40133e-34
-3.9946e-30
-1.88512e-35
1.38386e-34
-4.0031e-30
-1.51104e-35
1.34766e-34
-4.01977e-30
1.2849e-34
-4.03883e-30
-7.05156e-33
7.67347e-32
-6.75724e-33
6.97934e-32
-5.09254e-33
6.78895e-32
-2.95176e-33
6.64835e-32
-9.10096e-34
6.47439e-32
6.23154e-32
-4.98393e-67
-1.49975e-60
1.91093e-64
-1.07336e-67
-1.50299e-60
1.91641e-64
7.16865e-68
-1.50299e-60
1.91621e-64
1.76307e-67
-1.50311e-60
1.91682e-64
2.52623e-67
-1.50407e-60
1.91827e-64
-1.50027e-60
1.9137e-64
-5.05193e-63
-2.07943e-56
2.82833e-60
2.49645e-64
-2.08481e-56
2.83636e-60
2.20145e-63
-2.08487e-56
2.83618e-60
3.91837e-63
-2.08552e-56
2.83707e-60
5.73539e-63
-2.08719e-56
2.83929e-60
-2.08294e-56
2.83273e-60
-3.17154e-59
-1.3058e-52
1.90872e-56
5.16015e-60
-1.30925e-52
1.9143e-56
2.01811e-59
-1.30926e-52
1.91421e-56
3.12339e-59
-1.30965e-52
1.91485e-56
4.32695e-59
-1.31074e-52
1.91642e-56
-1.30806e-52
1.91213e-56
-1.27694e-55
-4.6732e-49
7.23667e-53
4.84905e-56
-4.68535e-49
7.26225e-53
1.10901e-55
-4.68505e-49
7.26336e-53
1.54388e-55
-4.6863e-49
7.26705e-53
2.04086e-55
-4.69044e-49
7.27403e-53
-4.6807e-49
7.25798e-53
-2.8466e-52
-9.42637e-46
1.34305e-49
2.91538e-52
-9.4496e-46
1.35275e-49
4.47966e-52
-9.44762e-46
1.35471e-49
5.40049e-52
-9.45022e-46
1.35642e-49
6.75685e-52
-9.46002e-46
1.3583e-49
-9.43943e-46
1.35454e-49
-3.0487e-49
-7.00311e-43
-5.44483e-43
8.41154e-49
-7.02274e-43
-5.22469e-43
9.10746e-49
-7.01698e-43
-5.15498e-43
8.73728e-49
-7.0198e-43
-5.12504e-43
1.2063e-48
-7.03357e-43
-5.12607e-43
-7.01132e-43
-5.18388e-43
1.42656e-45
8.6842e-43
-4.81893e-39
2.22011e-45
8.70181e-43
-4.75006e-39
9.41781e-46
8.712e-43
-4.72967e-39
-5.83667e-47
8.7104e-43
-4.72635e-39
5.00598e-46
8.70007e-43
-4.73622e-39
8.69808e-43
-4.75579e-39
9.76722e-42
4.02662e-39
-1.13461e-35
6.89002e-42
4.03225e-39
-1.11642e-35
3.48163e-43
4.03261e-39
-1.11153e-35
-4.40592e-42
4.03201e-39
-1.11186e-35
-4.36692e-42
4.03169e-39
-1.11588e-35
4.02771e-39
-1.12206e-35
1.76634e-38
7.26225e-36
-1.00447e-32
1.06518e-38
7.27341e-36
-9.89689e-33
-1.7554e-39
7.27256e-36
-9.85773e-33
-1.08207e-38
7.2709e-36
-9.86678e-33
-1.10157e-38
7.27041e-36
-9.90998e-33
7.26061e-36
-9.96664e-33
1.01891e-35
1.00825e-32
-6.57175e-30
3.34813e-36
1.01112e-32
-6.5226e-30
-9.03027e-36
1.01141e-32
-6.51104e-30
-1.76268e-35
1.01112e-32
-6.52111e-30
-1.56072e-35
1.0107e-32
-6.549e-30
1.00857e-32
-6.58001e-30
-6.72099e-33
1.12549e-29
-7.01174e-27
-1.53004e-32
1.13021e-29
-7.0235e-27
-2.18487e-32
1.13079e-29
-7.0276e-27
-2.44293e-32
1.1305e-29
-7.03787e-27
-1.8666e-32
1.12983e-29
-7.05801e-27
1.1268e-29
-7.07659e-27
-9.41762e-30
3.68651e-27
-6.77419e-30
3.68439e-27
-1.36454e-30
3.6814e-27
3.35415e-30
3.67847e-27
4.88815e-30
3.67518e-27
3.66455e-27
-2.431e-63
-1.01581e-56
1.73601e-60
-1.59984e-64
-1.0181e-56
1.74096e-60
7.76231e-64
-1.01798e-56
1.74076e-60
1.33403e-63
-1.01798e-56
1.74104e-60
1.71988e-63
-1.01842e-56
1.74197e-60
-1.01564e-56
1.73734e-60
-2.41784e-59
-1.52543e-52
2.76779e-56
6.3134e-60
-1.52927e-52
2.77567e-56
1.84412e-59
-1.52922e-52
2.77538e-56
2.85501e-59
-1.52946e-52
2.77583e-56
3.88203e-59
-1.5303e-52
2.77735e-56
-1.52673e-52
2.77016e-56
-1.56401e-55
-1.07303e-48
2.07706e-52
6.02848e-56
-1.07573e-48
2.08297e-52
1.5024e-55
-1.07567e-48
2.08277e-52
2.1843e-55
-1.07581e-48
2.08312e-52
2.90576e-55
-1.07643e-48
2.08429e-52
-1.07394e-48
2.079e-52
-6.12962e-52
-4.71248e-45
9.56912e-49
3.66351e-52
-4.72363e-45
9.5986e-49
7.04674e-52
-4.72299e-45
9.5987e-49
9.93598e-52
-4.72359e-45
9.6008e-49
1.31039e-51
-4.72637e-45
9.60681e-49
-4.7159e-45
9.58299e-49
-1.11283e-48
-1.52058e-41
3.24809e-45
1.39462e-48
-1.52363e-41
3.2604e-45
2.07965e-48
-1.52335e-41
3.26125e-45
2.71157e-48
-1.52354e-41
3.26239e-45
3.82319e-48
-1.52453e-41
3.2646e-45
-1.52152e-41
3.25657e-45
2.00398e-45
-3.76884e-38
9.03444e-42
4.84545e-45
-3.77495e-38
9.07815e-42
3.34872e-45
-3.77416e-38
9.08354e-42
2.79883e-45
-3.77481e-38
9.087e-42
5.4111e-45
-3.7776e-38
9.0916e-42
-3.77146e-38
9.06684e-42
1.49769e-41
-5.95563e-35
1.53341e-38
1.18378e-41
-5.96285e-35
1.54486e-38
7.82446e-43
-5.96145e-35
1.54668e-38
-5.05368e-42
-5.96279e-35
1.547e-38
-2.65515e-43
-5.96767e-35
1.54673e-38
-5.95982e-35
1.54076e-38
2.14895e-38
-5.59909e-32
8.68211e-36
1.51534e-38
-5.60139e-32
8.8741e-36
-3.85213e-39
-5.59903e-32
8.91417e-36
-1.54326e-38
-5.60062e-32
8.9103e-36
-8.379e-39
-5.60643e-32
8.88027e-36
-5.60161e-32
8.79094e-36
4.98806e-35
-2.81395e-29
-3.18834e-30
2.7422e-35
-2.81135e-29
-3.14747e-30
-9.8839e-36
-2.80958e-29
-3.13642e-30
-3.5924e-35
-2.81116e-29
-3.13827e-30
-3.36811e-35
-2.81583e-29
-3.14961e-30
-2.81594e-29
-3.16565e-30
3.93995e-32
-9.74452e-27
-3.74917e-27
5.47826e-33
-9.72939e-27
-3.71866e-27
-3.46885e-32
-9.72549e-27
-3.71132e-27
-6.21203e-32
-9.73585e-27
-3.71521e-27
-5.81485e-32
-9.76022e-27
-3.72901e-27
-9.77362e-27
-3.7468e-27
-2.03427e-29
1.35592e-26
-9.73891e-24
-3.05145e-29
1.36019e-26
-9.75454e-24
-3.75652e-29
1.36045e-26
-9.75593e-24
-4.3259e-29
1.36005e-26
-9.76058e-24
-3.81321e-29
1.35949e-26
-9.774e-24
1.35643e-26
-9.78204e-24
-7.55406e-27
4.01693e-24
-5.26488e-27
4.01311e-24
-6.14803e-28
4.00962e-24
3.275e-27
4.00769e-24
4.31814e-27
4.0067e-24
3.99984e-24
-8.75511e-61
-4.92446e-54
1.06182e-57
3.4805e-62
-4.93648e-54
1.06499e-57
4.12784e-61
-4.93616e-54
1.06495e-57
6.35009e-61
-4.93626e-54
1.06509e-57
7.85491e-61
-4.93804e-54
1.06558e-57
-4.92488e-54
1.06271e-57
-8.6347e-57
-7.48085e-50
1.76477e-53
4.00628e-57
-7.501e-50
1.77003e-53
9.24624e-57
-7.50128e-50
1.76999e-53
1.34844e-56
-7.50238e-50
1.77024e-53
1.77588e-56
-7.50593e-50
1.77105e-53
-7.48828e-50
1.7664e-53
-5.20128e-53
-5.06207e-46
1.35592e-49
3.06746e-53
-5.07586e-46
1.35997e-49
6.49334e-53
-5.07612e-46
1.35997e-49
9.39818e-53
-5.07695e-46
1.36016e-49
1.24264e-52
-5.07944e-46
1.3608e-49
-5.06767e-46
1.35728e-49
-2.49873e-49
-1.89768e-42
5.97441e-46
3.76118e-50
-1.9029e-42
5.99318e-46
1.7468e-49
-1.90305e-42
5.99352e-46
3.06236e-49
-1.90341e-42
5.99463e-46
4.629e-49
-1.9044e-42
5.99764e-46
-1.90006e-42
5.9821e-46
-1.1035e-45
-3.86947e-39
1.48769e-42
-5.55013e-46
-3.8808e-39
1.49328e-42
-1.88376e-46
-3.88141e-39
1.49363e-42
2.85682e-46
-3.88246e-39
1.49407e-42
9.4271e-46
-3.88483e-39
1.49489e-42
-3.87595e-39
1.49071e-42
-3.7408e-42
-3.53262e-36
1.77719e-39
-3.39591e-42
-3.54607e-36
1.78812e-39
-2.4583e-42
-3.54773e-36
1.78953e-39
-9.4332e-43
-3.54978e-36
1.7904e-39
1.02444e-42
-3.55308e-36
1.79121e-39
-3.54389e-36
1.78405e-39
-8.49543e-39
5.81746e-38
2.97918e-37
-8.41868e-39
4.97932e-38
3.13634e-37
-6.14235e-39
4.71183e-38
3.16758e-37
-2.82211e-39
4.38825e-38
3.17301e-37
5.88927e-40
4.02628e-38
3.16083e-37
4.30222e-38
3.07018e-37
-1.0487e-35
2.87896e-33
-5.51961e-30
-1.13574e-35
2.87646e-33
-5.33557e-30
-8.63577e-36
2.87316e-33
-5.29291e-30
-4.81827e-36
2.86773e-33
-5.2917e-30
-1.2122e-36
2.86151e-33
-5.32002e-30
2.8567e-33
-5.4071e-30
-6.58437e-33
2.73457e-30
-1.24584e-26
-9.83888e-33
2.73751e-30
-1.23677e-26
-1.01617e-32
2.73412e-30
-1.23388e-26
-9.24909e-33
2.72722e-30
-1.23382e-26
-6.73297e-33
2.71761e-30
-1.23596e-26
2.70532e-30
-1.23894e-26
-7.89363e-30
1.53414e-27
-3.56714e-24
-1.10793e-29
1.53772e-27
-3.54719e-24
-1.10368e-29
1.53353e-27
-3.54109e-24
-1.07587e-29
1.52674e-27
-3.54224e-24
-9.10373e-30
1.51511e-27
-3.55017e-24
1.49456e-27
-3.55988e-24
-2.72251e-27
1.29928e-24
-2.57059e-21
-5.66813e-28
1.29692e-24
-2.57449e-21
4.29053e-27
1.29195e-24
-2.57448e-21
8.37287e-27
1.28704e-24
-2.57473e-21
8.09995e-27
1.27999e-24
-2.57603e-21
1.26579e-24
-2.57426e-21
5.86358e-26
8.89162e-22
7.59604e-25
8.87222e-22
1.60536e-24
8.85914e-22
2.22653e-24
8.85262e-22
1.98426e-24
8.85143e-22
8.84223e-22
4.17998e-06
-0.463301
-0.000611093
3.00445e-06
-0.463303
-0.000611138
2.25844e-06
-0.463304
-0.00061116
5.2495e-06
-0.463304
-0.000611116
7.29467e-06
-0.463303
-0.000611108
-0.463309
-0.000611211
1.34501e-06
2.61754e-13
0.00444333
1.46698e-06
2.8672e-13
0.00444354
1.46342e-06
2.943e-13
0.00444376
2.27037e-06
2.87755e-13
0.00444353
1.97894e-06
2.86058e-13
0.00444355
2.92864e-13
0.00444444
3.19067e-18
2.91681e-13
6.97576e-19
3.19513e-13
5.16216e-19
3.27958e-13
-3.84244e-20
3.20661e-13
-1.15824e-18
3.18775e-13
3.2636e-13
-3.66547e-09
-0.00460594
-2.27685e-08
3.04027e-10
-0.00460593
-2.27962e-08
5.19368e-09
-0.00460606
-2.28044e-08
8.54005e-09
-0.00460598
-2.27929e-08
8.68188e-09
-0.00460595
-2.27757e-08
-0.0046062
-2.27823e-08
-5.06883e-08
1.65588e-12
-3.57857e-06
-3.93053e-08
1.81379e-12
-3.58126e-06
-4.24962e-08
1.86176e-12
-3.58167e-06
-3.93013e-08
1.82033e-12
-3.58164e-06
-4.83191e-09
1.80961e-12
-3.58113e-06
1.8527e-12
-3.57998e-06
-1.28026e-18
1.02085e-12
-7.89952e-18
1.11819e-12
-1.29576e-17
1.14778e-12
-3.29929e-18
1.12225e-12
8.63383e-18
1.11563e-12
1.14222e-12
5.04968e-12
-4.89417e-06
-1.57059e-07
1.49981e-11
-4.89272e-06
-1.57096e-07
9.29451e-12
-4.89257e-06
-1.5709e-07
1.22007e-11
-4.89274e-06
-1.57083e-07
2.36977e-11
-4.8932e-06
-1.57071e-07
-4.89421e-06
-1.57047e-07
1.56795e-10
1.32048e-12
-8.47511e-06
3.35155e-10
1.44646e-12
-8.47638e-06
2.9353e-10
1.48465e-12
-8.47641e-06
2.73477e-10
1.45161e-12
-8.47656e-06
3.50372e-10
1.4431e-12
-8.47662e-06
1.47738e-12
-8.47605e-06
1.29726e-17
1.08469e-12
2.97276e-17
1.18812e-12
1.79008e-17
1.21961e-12
1.13728e-17
1.19249e-12
8.18412e-18
1.18547e-12
1.21373e-12
2.01946e-11
-1.69584e-05
-6.95885e-07
1.97633e-11
-1.69589e-05
-6.95892e-07
6.61085e-12
-1.69585e-05
-6.95833e-07
4.14074e-12
-1.69583e-05
-6.95779e-07
1.51267e-11
-1.69585e-05
-6.95725e-07
-1.69584e-05
-6.95593e-07
-1.1523e-10
6.09259e-12
-1.04861e-05
-3.92888e-10
6.67364e-12
-1.04876e-05
-4.5528e-10
6.84992e-12
-1.04875e-05
-3.24513e-10
6.69739e-12
-1.04877e-05
-5.56584e-11
6.658e-12
-1.0488e-05
6.81615e-12
-1.04872e-05
1.57913e-17
1.60817e-16
6.65274e-17
1.9107e-16
7.82732e-17
2.15978e-16
7.2856e-17
2.05929e-16
3.18733e-17
1.96058e-16
-1.94079e-20
-1.37146e-11
-5.16388e-06
-1.13707e-11
-2.05814e-11
-5.16373e-06
-1.13854e-11
-1.49255e-11
-5.1637e-06
-1.13676e-11
-3.71238e-12
-5.16355e-06
-1.13486e-11
6.40166e-12
-5.16346e-06
-1.14565e-11
-5.16352e-06
-1.12994e-11
-1.00228e-10
1.51989e-15
-3.10667e-13
-2.91641e-10
1.80576e-15
-3.10893e-13
-2.89571e-10
2.04094e-15
-3.1092e-13
-1.34223e-10
1.94588e-15
-3.10929e-13
3.88895e-11
1.85255e-15
-3.11024e-13
-6.55882e-18
-3.10622e-13
1.18001e-20
-6.57083e-18
2.11063e-20
-6.57666e-18
2.77934e-20
-6.57836e-18
2.46694e-20
-6.58006e-18
-1.21297e-24
-6.58348e-18
-6.57823e-18
-2.38823e-17
-8.47719e-15
-2.19533e-11
-8.99333e-18
-8.48341e-15
-2.19801e-11
7.33313e-18
-8.48394e-15
-2.19467e-11
2.01195e-17
-8.48396e-15
-2.19103e-11
2.5272e-17
-8.48654e-15
-2.21202e-11
-8.4756e-15
-2.18182e-11
-1.39606e-19
-1.60614e-16
-3.18402e-13
-1.7266e-19
-1.60732e-16
-3.18633e-13
-1.114e-19
-1.60758e-16
-3.18661e-13
3.11547e-20
-1.60788e-16
-3.18669e-13
1.77147e-19
-1.60866e-16
-3.18767e-13
-1.60744e-16
-3.18354e-13
-6.90795e-22
-1.40433e-16
-1.30063e-21
-1.40534e-16
-1.43124e-21
-1.40559e-16
-1.18305e-21
-1.40587e-16
-6.79052e-22
-1.40653e-16
-1.40549e-16
7.56494e-16
-3.41053e-12
-3.57909e-10
3.23579e-15
-3.41217e-12
-3.58072e-10
4.2593e-15
-3.41179e-12
-3.57935e-10
4.94802e-15
-3.41122e-12
-3.57763e-10
4.3699e-15
-3.41673e-12
-3.59108e-10
-3.40763e-12
-3.57341e-10
-2.46147e-17
-1.75362e-13
-3.51715e-12
-6.64473e-18
-1.75443e-13
-3.51852e-12
9.5255e-18
-1.75399e-13
-3.51773e-12
2.62552e-17
-1.75348e-13
-3.51657e-12
4.85973e-17
-1.76151e-13
-3.52689e-12
-1.75158e-13
-3.51186e-12
-6.73923e-19
-1.75977e-13
-4.80227e-19
-1.76059e-13
-7.38655e-20
-1.76015e-13
2.87373e-19
-1.75963e-13
5.70588e-19
-1.76772e-13
-1.75772e-13
2.39819e-13
-2.37905e-10
4.3365e-08
4.01874e-13
-2.37936e-10
4.34095e-08
4.51061e-13
-2.37892e-10
4.34038e-08
4.32824e-13
-2.37836e-10
4.33989e-08
2.76461e-13
-2.38324e-10
4.33149e-08
-2.3763e-10
4.3359e-08
-1.80563e-15
-3.61243e-11
-2.03353e-10
1.45509e-16
-3.61382e-11
-2.03375e-10
6.7084e-16
-3.61393e-11
-2.03319e-10
1.93852e-15
-3.61428e-11
-2.03248e-10
6.4786e-15
-3.61854e-11
-2.03774e-10
-3.61371e-11
-2.03012e-10
-4.07681e-16
-3.63176e-11
-2.77079e-16
-3.63321e-11
-1.42511e-16
-3.63333e-11
4.79744e-17
-3.63368e-11
4.29139e-16
-3.63801e-11
-3.63303e-11
7.73469e-11
-5.70909e-08
8.74046e-08
1.0181e-10
-5.70988e-08
8.71939e-08
1.19655e-10
-5.70889e-08
8.74732e-08
1.065e-10
-5.70938e-08
8.78888e-08
6.2104e-11
-5.70663e-08
8.81414e-08
-5.70819e-08
8.90482e-08
1.66785e-14
-1.23709e-08
-4.4341e-08
6.26097e-14
-1.23727e-08
-4.43469e-08
-2.13334e-13
-1.23728e-08
-4.43365e-08
-3.23427e-13
-1.23745e-08
-4.43398e-08
1.84765e-13
-1.23747e-08
-4.43133e-08
-1.23768e-08
-4.43253e-08
-2.90881e-13
-1.24069e-08
-2.88468e-13
-1.2409e-08
-3.4229e-13
-1.24091e-08
-2.78086e-13
-1.24109e-08
1.0591e-13
-1.24114e-08
-1.2413e-08
6.70097e-10
-6.14473e-07
9.22681e-06
1.36154e-10
-6.14366e-07
9.23332e-06
3.54262e-10
-6.14432e-07
9.23626e-06
5.33636e-10
-6.14346e-07
9.23735e-06
-1.03543e-10
-6.13612e-07
9.22522e-06
-6.14003e-07
9.23952e-06
3.80308e-11
-3.07384e-07
-4.56175e-08
3.48025e-11
-3.07249e-07
-4.45272e-08
3.93321e-11
-3.07264e-07
-4.47325e-08
2.32536e-11
-3.07244e-07
-4.47677e-08
-5.28493e-11
-3.07209e-07
-4.45839e-08
-3.0731e-07
-4.54954e-08
-9.25277e-12
-5.99936e-07
-1.61791e-11
-5.99587e-07
-2.19506e-11
-5.99727e-07
-2.40456e-11
-5.99777e-07
-2.61453e-11
-5.99622e-07
-6.00169e-07
4.50247e-09
2.92196e-05
0.000169664
2.71515e-09
2.92164e-05
0.000169722
3.97675e-09
2.92259e-05
0.000169735
6.26715e-09
2.92254e-05
0.000169719
-1.87556e-09
2.91953e-05
0.000169737
2.92502e-05
0.000169605
6.25528e-09
1.60568e-05
2.768e-05
3.21482e-09
1.60567e-05
2.7708e-05
6.1271e-09
1.60601e-05
2.77008e-05
6.9008e-09
1.60618e-05
2.77003e-05
-1.02392e-08
1.60653e-05
2.77136e-05
1.60861e-05
2.76842e-05
2.43148e-09
-1.96551e-05
1.16518e-09
-1.96436e-05
1.46893e-09
-1.96478e-05
7.94638e-10
-1.96476e-05
-3.97697e-09
-1.96517e-05
-1.96438e-05
2.8884e-07
0.00080241
0.00331008
-7.2882e-07
0.000802502
0.00331104
-9.56732e-07
0.00080251
0.00331072
-9.09751e-07
0.000802478
0.00331055
1.11841e-06
0.000802906
0.00331294
0.000801659
0.0033075
1.09687e-07
0.000390304
0.000454578
-1.25332e-08
0.000390436
0.00045483
-5.80452e-09
0.000390398
0.000454725
3.91997e-08
0.000390373
0.000454674
1.89945e-07
0.000390511
0.000454903
0.000390271
0.000454139
1.67599e-08
3.54347e-05
1.38087e-08
3.54628e-05
1.6024e-08
3.54521e-05
1.50665e-08
3.54487e-05
1.05881e-08
3.54625e-05
3.54169e-05
-9.05498e-21
-3.01227e-14
2.19871e-15
-2.98315e-18
1.59175e-20
-3.0163e-14
2.20172e-15
-2.98637e-18
4.31681e-20
-3.01499e-14
2.20066e-15
-2.9857e-18
5.71755e-20
-3.01388e-14
2.19987e-15
-2.98514e-18
5.20669e-20
-3.01335e-14
2.1995e-15
-2.98487e-18
-3.00641e-14
2.19451e-15
-2.98104e-18
3.06355e-19
6.20544e-16
-5.28132e-14
1.14028e-14
3.88674e-18
6.25199e-16
-5.29276e-14
1.14204e-14
7.0215e-18
6.24462e-16
-5.28962e-14
1.14155e-14
8.53073e-18
6.23557e-16
-5.28711e-14
1.1411e-14
7.26581e-18
6.22783e-16
-5.28615e-14
1.14086e-14
6.16842e-16
-5.26845e-14
1.13802e-14
-7.78923e-19
-4.09141e-14
9.08233e-15
5.34203e-19
-4.10429e-14
9.10023e-15
1.79638e-18
-4.10096e-14
9.09585e-15
2.60271e-18
-4.0997e-14
9.09379e-15
2.54152e-18
-4.10045e-14
9.09416e-15
-4.08591e-14
9.07409e-15
3.3107e-18
-2.08308e-11
2.69098e-11
9.62952e-18
-2.08615e-11
2.69436e-11
1.68412e-17
-2.08478e-11
2.69298e-11
2.06049e-17
-2.08406e-11
2.69217e-11
1.80576e-17
-2.08418e-11
2.69213e-11
-2.07856e-11
2.68635e-11
2.11172e-16
-1.05936e-12
-1.46035e-11
1.74963e-15
-1.06101e-12
-1.46224e-11
2.78676e-15
-1.0606e-12
-1.46154e-11
3.3714e-15
-1.06056e-12
-1.46096e-11
3.20694e-15
-1.06083e-12
-1.46072e-11
-1.05916e-12
-1.45688e-11
-3.1996e-16
-1.28834e-11
2.14629e-16
-1.29075e-11
6.08715e-16
-1.29011e-11
9.29139e-16
-1.28983e-11
1.07836e-15
-1.28991e-11
-1.28713e-11
-5.70023e-16
-4.4618e-09
3.88733e-09
4.19801e-15
-4.46622e-09
3.89096e-09
7.67686e-15
-4.46439e-09
3.88951e-09
9.99637e-15
-4.46328e-09
3.88866e-09
1.36155e-14
-4.46326e-09
3.88847e-09
-4.4553e-09
3.8828e-09
1.58572e-13
-4.28923e-10
-4.28014e-09
4.94214e-13
-4.29684e-10
-4.28438e-09
6.68119e-13
-4.29492e-10
-4.2824e-09
7.91134e-13
-4.29464e-10
-4.28112e-09
8.04045e-13
-4.29584e-10
-4.28098e-09
-4.2885e-10
-4.27158e-09
-1.36912e-13
-1.94787e-09
5.0764e-15
-1.95165e-09
9.51573e-14
-1.95059e-09
1.80561e-13
-1.95023e-09
2.74785e-13
-1.95051e-09
-1.94621e-09
4.51862e-12
-3.7609e-07
1.00063e-07
1.70564e-12
-3.7636e-07
1.00139e-07
1.53046e-12
-3.76224e-07
1.00105e-07
1.15849e-12
-3.76151e-07
1.00089e-07
1.49817e-12
-3.76174e-07
1.00087e-07
-3.75647e-07
9.99908e-08
9.52344e-11
-2.13349e-08
-3.99445e-07
1.35343e-10
-2.13263e-08
-3.99718e-07
1.56005e-10
-2.13254e-08
-3.9954e-07
1.6458e-10
-2.13288e-08
-3.99434e-07
1.75325e-10
-2.1334e-08
-3.99472e-07
-2.13638e-08
-3.98571e-07
-1.35246e-11
-1.0951e-06
5.48554e-13
-1.09689e-06
7.17951e-12
-1.09626e-06
1.32877e-11
-1.09608e-06
2.48068e-11
-1.09615e-06
-1.0944e-06
7.67953e-13
1.60793e-09
4.20148e-08
7.74442e-13
1.61122e-09
4.20904e-08
7.05907e-13
1.61014e-09
4.20752e-08
4.93836e-13
1.60974e-09
4.20743e-08
2.93719e-12
1.61045e-09
4.20798e-08
1.60639e-09
4.19933e-08
4.33097e-09
3.62225e-05
-0.000248744
9.85119e-09
3.62747e-05
-0.000248958
1.02201e-08
3.62562e-05
-0.000248858
9.5042e-09
3.62507e-05
-0.000248824
1.85837e-08
3.62599e-05
-0.000248901
3.61989e-05
-0.000248524
-3.08361e-10
-1.58325e-05
8.37698e-10
-1.58622e-05
1.04027e-09
-1.58512e-05
1.09449e-09
-1.58485e-05
1.73046e-09
-1.58518e-05
-1.58214e-05
1.08776e-07
0.0012741
-1.8356e-07
0.00127478
-2.49885e-07
0.00127447
-2.58458e-07
0.00127438
-1.68184e-07
0.00127506
0.00127327
4.34668e-08
0.000111045
4.1498e-08
0.000111253
2.04213e-08
0.00011118
8.68178e-09
0.000111163
1.68957e-07
0.000111166
0.000111081
2.28211e-09
7.39746e-09
7.31334e-09
6.18515e-09
9.04662e-09
-9.49678e-58
2.13934e-54
-9.11634e-51
2.28776e-58
2.14528e-54
-9.13625e-51
7.14317e-58
2.14504e-54
-9.13463e-51
1.01024e-57
2.14511e-54
-9.13401e-51
1.22091e-57
2.1458e-54
-9.13611e-51
2.13977e-54
-9.11097e-51
-6.2523e-60
4.1579e-56
-2.26783e-52
5.54766e-60
4.16963e-56
-2.27297e-52
1.04761e-59
4.16945e-56
-2.27276e-52
1.39906e-59
4.1695e-56
-2.27265e-52
1.68891e-59
4.17051e-56
-2.27301e-52
4.15853e-56
-2.26686e-52
2.99476e-64
-4.36186e-56
1.46083e-63
-4.37231e-56
1.97337e-63
-4.37202e-56
2.59261e-63
-4.37194e-56
3.49764e-63
-4.3729e-56
-4.36118e-56
-1.15839e-53
5.10388e-50
-2.02788e-46
1.10436e-53
5.11784e-50
-2.03272e-46
2.05595e-53
5.11726e-50
-2.03255e-46
2.86402e-53
5.1174e-50