/*--------------------------------*- C++ -*----------------------------------*\
| =========                 |                                                 |
| \\      /  F ield         | OpenFOAM: The Open Source CFD Toolbox           |
|  \\    /   O peration     | Version:  v1612+                                |
|   \\  /    A nd           | Web:      www.OpenFOAM.com                      |
|    \\/     M anipulation  |                                                 |
\*---------------------------------------------------------------------------*/
FoamFile
{
    version     2.0;
    format      ascii;
    class       volScalarField;
    location    "1.75";
    object      p_rgh;
}
// * * * * * * * * * * * * * * * * * * * * * * * * * * * * * * * * * * * * * //

dimensions      [1 -1 -2 0 0 0 0];

internalField   nonuniform List<scalar> 
1116
(
36168
36168
36168
36168
36168
36168
34922.2
34922.2
34922.2
34922.2
34922.1
34922.1
31262.8
31262.8
31262.8
31262.8
31262.7
31262.7
26960.9
26961
26960.9
26960.9
26960.9
26960.8
22674
22674
22674
22674
22674
22674
18874.1
18874.1
18874.1
18874.1
18874.1
18874.1
15127.5
15127.5
15127.5
15127.5
15127.5
15127.6
11248.6
11248.6
11248.5
11248.6
11248.6
11248.6
8308.38
8308.15
8308.1
8308.11
8308.14
8308.21
9918.03
9917.87
9917.75
9917.7
9917.73
9917.87
20042.2
20042
20041.8
20041.7
20041.8
20041.9
26123.5
26123.8
26123.8
26123.8
26123.8
26123.7
35962.1
35962.1
35962.1
35962.1
35962.1
35962.1
33774.2
33774.2
33774.2
33774.2
33774.2
33774.2
29397.6
29397.6
29397.6
29397.5
29397.5
29397.5
24104.7
24104.7
24104.7
24104.7
24104.7
24104.7
17209.9
17209.9
17210
17210
17210
17210
11917
11916.8
11916.9
11917
11916.9
11916.9
6458.89
6458.63
6458.67
6458.71
6458.72
6458.72
1861.15
1860.99
1860.97
1861
1861.01
1861.01
84.5793
84.5863
84.5853
84.5846
84.5877
84.5897
198.971
198.941
198.922
198.923
198.946
198.981
1685.57
1685.42
1685.38
1685.39
1685.46
1685.51
9994.98
9994.92
9994.83
9994.76
9994.67
9995.21
35968.6
35968.7
35968.7
35968.7
35968.7
35968.7
29700.1
29700
29700.1
29700.1
29700.1
29700.2
19159.3
19159.2
19159.3
19159.4
19159.4
19159.5
8396.03
8396.02
8396.14
8396.22
8396.23
8396.36
245.283
245.256
245.295
245.323
245.333
245.362
-28.3503
-28.3492
-28.349
-28.3496
-28.3499
-28.3502
-10.5169
-10.5174
-10.5174
-10.5176
-10.5177
-10.518
16.9559
16.9555
16.9564
16.9567
16.9567
16.9567
23.5712
23.5754
23.577
23.5759
23.5747
23.572
15.3044
15.3087
15.3077
15.3056
15.3057
15.3052
106.912
106.913
106.911
106.92
106.948
107.002
2610.86
2610.61
2610.65
2610.56
2610.18
2611.07
36020.5
36020.5
36020.5
36020.6
36020.6
36020.6
6249.45
6249.37
6249.42
6249.52
6249.56
6249.68
26.291
26.2893
26.2888
26.29
26.2911
26.2923
-22.9383
-22.9375
-22.9371
-22.9375
-22.9389
-22.9407
8.19248
8.19311
8.19309
8.19237
8.19144
8.19069
5.19189
5.19203
5.19187
5.19161
5.19107
5.19016
-3.38365
-3.38399
-3.38377
-3.38326
-3.38302
-3.38319
-5.53897
-5.5389
-5.53854
-5.5377
-5.53682
-5.53609
-18.8895
-18.8885
-18.8874
-18.8862
-18.8845
-18.8839
-36.1854
-36.186
-36.1858
-36.1855
-36.1848
-36.183
-76.946
-76.942
-76.9442
-76.9476
-76.9569
-76.9494
-9.50224
-9.49037
-9.4876
-9.47964
-9.46974
-9.42128
-0.385514
-0.385538
-0.385545
-0.385545
-0.385542
-0.385538
-0.404182
-0.404197
-0.404199
-0.404194
-0.404186
-0.404174
-0.442047
-0.442054
-0.442053
-0.442046
-0.442036
-0.442025
-0.500207
-0.500206
-0.500204
-0.500198
-0.500191
-0.500184
-0.579703
-0.5797
-0.579703
-0.579703
-0.579703
-0.579701
-0.681539
-0.68155
-0.681567
-0.681579
-0.681588
-0.681592
-0.807697
-0.807744
-0.807777
-0.807798
-0.80781
-0.807814
-0.964258
-0.964331
-0.96437
-0.964388
-0.964392
-0.964383
-1.14773
-1.14781
-1.14783
-1.14784
-1.14782
-1.1478
-1.34081
-1.34089
-1.3409
-1.34088
-1.34082
-1.34076
-1.52013
-1.52017
-1.52015
-1.52009
-1.52001
-1.51993
-1.73657
-1.73657
-1.73653
-1.73646
-1.7364
-1.73634
-0.367154
-0.36717
-0.367172
-0.367168
-0.36716
-0.367149
-0.385969
-0.385978
-0.385977
-0.385969
-0.385957
-0.385939
-0.42438
-0.424382
-0.424379
-0.42437
-0.424358
-0.424343
-0.484191
-0.484189
-0.484186
-0.48418
-0.484171
-0.484163
-0.568529
-0.568526
-0.568528
-0.568528
-0.568527
-0.568527
-0.680638
-0.680648
-0.68066
-0.68067
-0.680676
-0.680682
-0.816769
-0.816806
-0.816831
-0.816846
-0.816851
-0.816852
-0.982612
-0.982644
-0.982658
-0.982665
-0.982665
-0.982651
-1.1745
-1.17452
-1.17452
-1.1745
-1.17448
-1.17445
-1.38669
-1.38676
-1.38676
-1.38671
-1.38662
-1.38651
-1.58185
-1.58183
-1.58176
-1.58166
-1.58154
-1.58141
-1.77289
-1.77284
-1.77278
-1.77271
-1.77265
-1.77258
-0.33085
-0.330862
-0.330862
-0.330856
-0.330847
-0.330835
-0.348966
-0.348972
-0.348969
-0.34896
-0.348947
-0.348931
-0.386106
-0.386108
-0.386103
-0.386094
-0.386082
-0.386068
-0.444101
-0.444102
-0.4441
-0.444094
-0.444086
-0.444078
-0.524849
-0.524857
-0.524861
-0.524862
-0.524861
-0.524859
-0.629587
-0.629606
-0.629616
-0.629623
-0.629624
-0.629623
-0.772014
-0.772047
-0.772062
-0.772066
-0.772061
-0.772051
-0.964134
-0.964207
-0.964237
-0.964232
-0.9642
-0.964152
-1.23286
-1.23301
-1.23307
-1.23303
-1.23294
-1.23282
-1.60282
-1.60279
-1.60275
-1.60271
-1.60267
-1.60263
-1.96743
-1.96738
-1.96732
-1.96725
-1.9672
-1.96716
-2.46674
-2.46667
-2.46662
-2.4666
-2.46661
-2.46662
-0.277915
-0.277923
-0.277922
-0.277915
-0.277906
-0.277895
-0.294356
-0.294359
-0.294355
-0.294347
-0.294335
-0.294321
-0.328465
-0.328466
-0.328461
-0.328453
-0.328442
-0.32843
-0.3831
-0.383102
-0.3831
-0.383094
-0.383087
-0.38308
-0.463531
-0.463538
-0.463539
-0.463537
-0.463534
-0.463531
-0.578473
-0.57848
-0.578478
-0.578474
-0.57847
-0.578467
-0.729417
-0.729421
-0.72941
-0.729398
-0.729384
-0.729369
-0.902666
-0.90263
-0.90259
-0.902558
-0.902534
-0.902513
-1.10394
-1.10382
-1.10372
-1.10366
-1.10363
-1.10362
-1.39655
-1.39647
-1.39643
-1.39644
-1.3965
-1.39657
-1.69274
-1.69275
-1.69275
-1.69275
-1.69273
-1.69268
-2.118
-2.11801
-2.11806
-2.11814
-2.11824
-2.11834
17928.6
17928.6
17928.7
17928.7
17928.7
17928.9
3424.67
3424.82
3424.86
3424.75
3424.75
3425.1
19.1613
19.1617
19.1618
19.1618
19.1619
19.1622
-30.2789
-30.2804
-30.2786
-30.2762
-30.2746
-30.2734
47.8459
47.8457
47.8478
47.8471
47.8476
47.8533
-7.13853
-7.13822
-7.1382
-7.13817
-7.13795
-7.13773
18.7269
18.7287
18.729
18.729
18.7289
18.7287
23.3414
23.3423
23.3429
23.3431
23.3432
23.3431
1.11583
1.11545
1.11522
1.11504
1.11496
1.1149
-13.5442
-13.5427
-13.5424
-13.5428
-13.5434
-13.5445
-7.22043
-7.22069
-7.22097
-7.22131
-7.22175
-7.22232
-4.16018
-4.16022
-4.16016
-4.16013
-4.16008
-4.15998
-1.2415
-1.24202
-1.2427
-1.24341
-1.24419
-1.24504
-0.804628
-0.805257
-0.805789
-0.80626
-0.806717
-0.807073
-4.02738
-4.02721
-4.02698
-4.02679
-4.0266
-4.02633
-5.33963
-5.33976
-5.33997
-5.34018
-5.34062
-5.34128
-3.82889
-3.82884
-3.82874
-3.82876
-3.82891
-3.82911
-4.4632
-4.4632
-4.4631
-4.46297
-4.46277
-4.46251
-8.20575
-8.20538
-8.205
-8.20481
-8.20501
-8.20545
-7.09896
-7.09852
-7.09811
-7.09793
-7.09803
-7.09835
-5.49492
-5.4949
-5.49487
-5.4948
-5.49469
-5.49462
-10.8654
-10.8651
-10.8641
-10.8628
-10.8615
-10.8603
-10.8572
-10.857
-10.8566
-10.8561
-10.8556
-10.8553
-6.54503
-6.54495
-6.54489
-6.5448
-6.54461
-6.54462
-30.9109
-30.9117
-30.9105
-30.9079
-30.9045
-30.9015
-21.3575
-21.3578
-21.3576
-21.3571
-21.3561
-21.3569
-7.96579
-7.96537
-7.96514
-7.96487
-7.96455
-7.96492
-52.8504
-52.8512
-52.8521
-52.8539
-52.8565
-52.8608
-38.1351
-38.1354
-38.136
-38.1363
-38.137
-38.14
-10.411
-10.4106
-10.4105
-10.4105
-10.4106
-10.4106
-108.367
-108.363
-108.362
-108.364
-108.371
-108.356
-81.665
-81.6649
-81.6642
-81.6657
-81.6717
-81.6603
-27.4738
-27.4757
-27.4756
-27.4759
-27.478
-27.4751
-90.5622
-90.5619
-90.5548
-90.5499
-90.5343
-90.5556
-58.3223
-58.3302
-58.3257
-58.3307
-58.3319
-58.3472
-17.3386
-17.3446
-17.3451
-17.3472
-17.3492
-17.3542
-7.73822
-7.73818
-7.73814
-7.7381
-7.73812
-7.73817
-5.45383
-5.4538
-5.45383
-5.45389
-5.45394
-5.45403
0.0875975
0.0876718
0.087679
0.0876431
0.0875328
0.087348
-11.5415
-11.5414
-11.5413
-11.5412
-11.5411
-11.5412
-7.43956
-7.43946
-7.43947
-7.43963
-7.43986
-7.4402
0.271486
0.271623
0.271484
0.271304
0.271019
0.270567
-15.9691
-15.9688
-15.9685
-15.9682
-15.968
-15.9686
-10.3617
-10.3616
-10.3616
-10.3619
-10.3624
-10.3634
0.958918
0.959091
0.958666
0.958337
0.957865
0.956993
-30.3639
-30.3641
-30.3628
-30.3618
-30.3605
-30.3611
-17.3624
-17.363
-17.363
-17.3632
-17.3634
-17.3661
1.7287
1.72904
1.72816
1.72757
1.72695
1.72488
-34.5329
-34.5329
-34.5309
-34.5293
-34.5203
-34.5335
-20.5084
-20.5068
-20.5075
-20.5085
-20.506
-20.5201
3.43526
3.43696
3.43565
3.43452
3.43417
3.42789
-69.8587
-69.8593
-69.8557
-69.8537
-69.8452
-69.852
-6.3905
-6.38561
-6.38876
-6.39383
-6.38333
-6.42344
4.13944
4.14026
4.1392
4.13741
4.13784
4.12855
-0.210509
-0.210513
-0.210511
-0.210505
-0.210497
-0.210488
-0.131642
-0.131642
-0.13164
-0.131636
-0.13163
-0.131624
-0.0455005
-0.0455002
-0.0454993
-0.0454979
-0.0454961
-0.0454937
-0.22361
-0.22361
-0.223606
-0.223599
-0.223589
-0.223578
-0.140076
-0.140075
-0.140072
-0.140067
-0.14006
-0.140053
-0.0484906
-0.04849
-0.0484889
-0.0484874
-0.0484853
-0.0484827
-0.250986
-0.250986
-0.250982
-0.250975
-0.250967
-0.250957
-0.157821
-0.15782
-0.157817
-0.157812
-0.157807
-0.157801
-0.0548012
-0.0548007
-0.0547997
-0.0547985
-0.0547968
-0.0547948
-0.295312
-0.295315
-0.295313
-0.295309
-0.295303
-0.295297
-0.186914
-0.186916
-0.186915
-0.186912
-0.186909
-0.186904
-0.0651676
-0.065168
-0.0651676
-0.0651667
-0.0651653
-0.0651634
-0.361288
-0.361297
-0.3613
-0.361299
-0.361295
-0.361289
-0.231166
-0.231172
-0.231173
-0.231171
-0.231167
-0.231161
-0.0808284
-0.0808298
-0.0808293
-0.0808279
-0.0808252
-0.080821
-0.457184
-0.457202
-0.457206
-0.457204
-0.457195
-0.457181
-0.297616
-0.297625
-0.297623
-0.297617
-0.297608
-0.297594
-0.103537
-0.103537
-0.103534
-0.10353
-0.103524
-0.103515
-0.602187
-0.602192
-0.602183
-0.602168
-0.602149
-0.602126
-0.40004
-0.400039
-0.400028
-0.400013
-0.399995
-0.399975
-0.135163
-0.135159
-0.135152
-0.135144
-0.135135
-0.135122
-0.836371
-0.836355
-0.836329
-0.836301
-0.836274
-0.836247
-0.560527
-0.56051
-0.560489
-0.560468
-0.560449
-0.560432
-0.178136
-0.178131
-0.178123
-0.178114
-0.178106
-0.178095
-1.17836
-1.17833
-1.1783
-1.17827
-1.17825
-1.17823
-0.800159
-0.800127
-0.800107
-0.800096
-0.800096
-0.800107
-0.239589
-0.23959
-0.239589
-0.239587
-0.239586
-0.239586
-1.81298
-1.81296
-1.81295
-1.81295
-1.81297
-1.81299
-1.22696
-1.22695
-1.22696
-1.22698
-1.227
-1.22703
-0.311925
-0.311948
-0.311963
-0.31197
-0.311972
-0.311966
-2.74985
-2.74983
-2.74983
-2.74983
-2.74983
-2.74985
-1.9905
-1.99048
-1.9905
-1.99052
-1.99056
-1.9906
-0.290299
-0.290332
-0.290339
-0.290333
-0.290313
-0.290258
-4.77109
-4.77111
-4.77112
-4.77111
-4.77111
-4.77114
-3.35242
-3.35246
-3.35246
-3.35244
-3.35245
-3.35247
-0.172919
-0.172856
-0.172831
-0.172839
-0.172885
-0.173
)
;

boundaryField
{
    seabed_topleft_surface
    {
        type            fixedFluxPressure;
        gradient        uniform 0;
        value           nonuniform List<scalar> 
72
(
36168
36168
36168
36168
36168
36168
34922.2
34922.2
34922.2
34922.2
34922.1
34922.1
31262.8
31262.8
31262.8
31262.8
31262.7
31262.7
26960.9
26961
26960.9
26960.9
26960.9
26960.8
22674
22674
22674
22674
22674
22674
18874.1
18874.1
18874.1
18874.1
18874.1
18874.1
15127.5
15127.5
15127.5
15127.5
15127.5
15127.6
11248.6
11248.6
11248.5
11248.6
11248.6
11248.6
8308.38
8308.15
8308.1
8308.11
8308.14
8308.21
9918.03
9917.87
9917.75
9917.7
9917.73
9917.87
20042.2
20042
20041.8
20041.7
20041.8
20041.9
26123.5
26123.8
26123.8
26123.8
26123.8
26123.7
)
;
    }
    seabed_topright_surface
    {
        type            fixedFluxPressure;
        gradient        uniform 0;
        value           nonuniform List<scalar> 
72
(
-0.385514
-0.385538
-0.385545
-0.385545
-0.385542
-0.385538
-0.404182
-0.404197
-0.404199
-0.404194
-0.404186
-0.404174
-0.442047
-0.442054
-0.442053
-0.442046
-0.442036
-0.442025
-0.500207
-0.500206
-0.500204
-0.500198
-0.500191
-0.500184
-0.579703
-0.5797
-0.579703
-0.579703
-0.579703
-0.579701
-0.681539
-0.68155
-0.681567
-0.681579
-0.681588
-0.681592
-0.807697
-0.807744
-0.807777
-0.807798
-0.80781
-0.807814
-0.964258
-0.964331
-0.96437
-0.964388
-0.964392
-0.964383
-1.14773
-1.14781
-1.14783
-1.14784
-1.14782
-1.1478
-1.34081
-1.34089
-1.3409
-1.34088
-1.34082
-1.34076
-1.52013
-1.52017
-1.52015
-1.52009
-1.52001
-1.51993
-1.73657
-1.73657
-1.73653
-1.73646
-1.7364
-1.73634
)
;
    }
    breakwater_top_surface
    {
        type            fixedFluxPressure;
        gradient        uniform 0;
        value           nonuniform List<scalar> 
36
(
-7.73822
-7.73818
-7.73814
-7.7381
-7.73812
-7.73817
-11.5415
-11.5414
-11.5413
-11.5412
-11.5411
-11.5412
-15.9691
-15.9688
-15.9685
-15.9682
-15.968
-15.9686
-30.3639
-30.3641
-30.3628
-30.3618
-30.3605
-30.3611
-34.5329
-34.5329
-34.5309
-34.5293
-34.5203
-34.5335
-69.8587
-69.8593
-69.8557
-69.8537
-69.8452
-69.852
)
;
    }
    breakwater_left_surface
    {
        type            fixedFluxPressure;
        gradient        uniform 0;
        value           nonuniform List<scalar> 
24
(
26123.5
26123.8
26123.8
26123.8
26123.8
26123.7
9994.98
9994.92
9994.83
9994.76
9994.67
9995.21
2610.86
2610.61
2610.65
2610.56
2610.18
2611.07
-9.50224
-9.49037
-9.4876
-9.47964
-9.46974
-9.42128
)
;
    }
    breakwater_right_surface
    {
        type            fixedFluxPressure;
        gradient        uniform 0;
        value           nonuniform List<scalar> 
24
(
-1.73657
-1.73657
-1.73653
-1.73646
-1.7364
-1.73634
-1.77289
-1.77284
-1.77278
-1.77271
-1.77265
-1.77258
-2.46674
-2.46667
-2.46662
-2.4666
-2.46661
-2.46662
-2.118
-2.11801
-2.11806
-2.11814
-2.11824
-2.11834
)
;
    }
    water_front_surface
    {
        type            fixedFluxPressure;
        gradient        uniform 0;
        value           nonuniform List<scalar> 
186
(
36168
34922.2
31262.8
26960.9
22674
18874.1
15127.5
11248.6
8308.38
9918.03
20042.2
26123.5
35962.1
33774.2
29397.6
24104.7
17209.9
11917
6458.89
1861.15
84.5793
198.971
1685.57
9994.98
35968.6
29700.1
19159.3
8396.03
245.283
-28.3503
-10.5169
16.9559
23.5712
15.3044
106.912
2610.86
36020.5
6249.45
26.291
-22.9383
8.19248
5.19189
-3.38365
-5.53897
-18.8895
-36.1854
-76.946
-9.50224
-0.385514
-0.404182
-0.442047
-0.500207
-0.579703
-0.681539
-0.807697
-0.964258
-1.14773
-1.34081
-1.52013
-1.73657
-0.367154
-0.385969
-0.42438
-0.484191
-0.568529
-0.680638
-0.816769
-0.982612
-1.1745
-1.38669
-1.58185
-1.77289
-0.33085
-0.348966
-0.386106
-0.444101
-0.524849
-0.629587
-0.772014
-0.964134
-1.23286
-1.60282
-1.96743
-2.46674
-0.277915
-0.294356
-0.328465
-0.3831
-0.463531
-0.578473
-0.729417
-0.902666
-1.10394
-1.39655
-1.69274
-2.118
17928.6
3424.67
19.1613
-30.2789
47.8459
-7.13853
18.7269
23.3414
1.11583
-13.5442
-7.22043
-4.16018
-1.2415
-0.804628
-4.02738
-5.33963
-3.82889
-4.4632
-8.20575
-7.09896
-5.49492
-10.8654
-10.8572
-6.54503
-30.9109
-21.3575
-7.96579
-52.8504
-38.1351
-10.411
-108.367
-81.665
-27.4738
-90.5622
-58.3223
-17.3386
-7.73822
-5.45383
0.0875975
-11.5415
-7.43956
0.271486
-15.9691
-10.3617
0.958918
-30.3639
-17.3624
1.7287
-34.5329
-20.5084
3.43526
-69.8587
-6.3905
4.13944
-0.210509
-0.131642
-0.0455005
-0.22361
-0.140076
-0.0484906
-0.250986
-0.157821
-0.0548012
-0.295312
-0.186914
-0.0651676
-0.361288
-0.231166
-0.0808284
-0.457184
-0.297616
-0.103537
-0.602187
-0.40004
-0.135163
-0.836371
-0.560527
-0.178136
-1.17836
-0.800159
-0.239589
-1.81298
-1.22696
-0.311925
-2.74985
-1.9905
-0.290299
-4.77109
-3.35242
-0.172919
)
;
    }
    water_back_surface
    {
        type            fixedFluxPressure;
        gradient        uniform 0;
        value           nonuniform List<scalar> 
186
(
36168
34922.1
31262.7
26960.8
22674
18874.1
15127.6
11248.6
8308.21
9917.87
20041.9
26123.7
35962.1
33774.2
29397.5
24104.7
17210
11916.9
6458.72
1861.01
84.5897
198.981
1685.51
9995.21
35968.7
29700.2
19159.5
8396.36
245.362
-28.3502
-10.518
16.9567
23.572
15.3052
107.002
2611.07
36020.6
6249.68
26.2923
-22.9407
8.19069
5.19016
-3.38319
-5.53609
-18.8839
-36.183
-76.9494
-9.42128
-0.385538
-0.404174
-0.442025
-0.500184
-0.579701
-0.681592
-0.807814
-0.964383
-1.1478
-1.34076
-1.51993
-1.73634
-0.367149
-0.385939
-0.424343
-0.484163
-0.568527
-0.680682
-0.816852
-0.982651
-1.17445
-1.38651
-1.58141
-1.77258
-0.330835
-0.348931
-0.386068
-0.444078
-0.524859
-0.629623
-0.772051
-0.964152
-1.23282
-1.60263
-1.96716
-2.46662
-0.277895
-0.294321
-0.32843
-0.38308
-0.463531
-0.578467
-0.729369
-0.902513
-1.10362
-1.39657
-1.69268
-2.11834
17928.9
3425.1
19.1622
-30.2734
47.8533
-7.13773
18.7287
23.3431
1.1149
-13.5445
-7.22232
-4.15998
-1.24504
-0.807073
-4.02633
-5.34128
-3.82911
-4.46251
-8.20545
-7.09835
-5.49462
-10.8603
-10.8553
-6.54462
-30.9015
-21.3569
-7.96492
-52.8608
-38.14
-10.4106
-108.356
-81.6603
-27.4751
-90.5556
-58.3472
-17.3542
-7.73817
-5.45403
0.087348
-11.5412
-7.4402
0.270567
-15.9686
-10.3634
0.956993
-30.3611
-17.3661
1.72488
-34.5335
-20.5201
3.42789
-69.852
-6.42344
4.12855
-0.210488
-0.131624
-0.0454937
-0.223578
-0.140053
-0.0484827
-0.250957
-0.157801
-0.0547948
-0.295297
-0.186904
-0.0651634
-0.361289
-0.231161
-0.080821
-0.457181
-0.297594
-0.103515
-0.602126
-0.399975
-0.135122
-0.836247
-0.560432
-0.178095
-1.17823
-0.800107
-0.239586
-1.81299
-1.22703
-0.311966
-2.74985
-1.9906
-0.290258
-4.77114
-3.35247
-0.173
)
;
    }
    water_left_surface
    {
        type            fixedFluxPressure;
        gradient        uniform 0;
        value           nonuniform List<scalar> 
42
(
36168
36168
36168
36168
36168
36168
35962.1
35962.1
35962.1
35962.1
35962.1
35962.1
35968.6
35968.7
35968.7
35968.7
35968.7
35968.7
36020.5
36020.5
36020.5
36020.6
36020.6
36020.6
17928.6
17928.6
17928.7
17928.7
17928.7
17928.9
3424.67
3424.82
3424.86
3424.75
3424.75
3425.1
19.1613
19.1617
19.1618
19.1618
19.1619
19.1622
)
;
    }
    water_right_surface
    {
        type            fixedFluxPressure;
        gradient        uniform 0;
        value           nonuniform List<scalar> 
42
(
-0.385514
-0.385538
-0.385545
-0.385545
-0.385542
-0.385538
-0.367154
-0.36717
-0.367172
-0.367168
-0.36716
-0.367149
-0.33085
-0.330862
-0.330862
-0.330856
-0.330847
-0.330835
-0.277915
-0.277923
-0.277922
-0.277915
-0.277906
-0.277895
-0.210509
-0.210513
-0.210511
-0.210505
-0.210497
-0.210488
-0.131642
-0.131642
-0.13164
-0.131636
-0.13163
-0.131624
-0.0455005
-0.0455002
-0.0454993
-0.0454979
-0.0454961
-0.0454937
)
;
    }
    water_top_surface
    {
        type            totalPressure;
        rho             rho;
        psi             none;
        gamma           1;
        p0              uniform 0;
        value           nonuniform List<scalar> 
180
(
-4.08637
-4.08567
-4.08599
-4.08635
-4.08606
-4.08484
-18.0435
-18.0425
-18.0439
-18.0448
-18.045
-18.0452
-1.03779
-1.03855
-1.03862
-1.03871
-1.03875
-1.03862
-3.12951
-3.13012
-3.12988
-3.12967
-3.12937
-3.12871
-4.63591
-4.63553
-4.63487
-4.63433
-4.63384
-4.63306
-4.24915
-4.24938
-4.2493
-4.24917
-4.24896
-4.24843
-4.7596
-4.76011
-4.76025
-4.76025
-4.76008
-4.7596
-4.12973
-4.12968
-4.12972
-4.12976
-4.12975
-4.12992
-3.54166
-3.54121
-3.5413
-3.54151
-3.54171
-3.54255
-1.97771
-1.97675
-1.97661
-1.97633
-1.97574
-1.97626
0
0
0
0
0
0
0
0
0
0
0
0
0
0
0
0
0
0
0
0
0
0
0
0
0
0
0
0
0
0
0
0
0
0
0
0
0
0
0
0
0
0
0
0
0
0
0
0
0
0
0
0
0
0
0
0
0
0
0
0
0
0
0
0
0
0
0
0
0
0
0
0
0
0
0
0
0
0
0
0
0
0
0
0
0
0
0
0
0
0
0
0
0
0
0
0
0
0
0
0
0
0
0
0
0
0
0
0
0
0
0
0
0
0
0
0
0
0
0
0
)
;
    }
}


// ************************************************************************* //
