/*--------------------------------*- C++ -*----------------------------------*\
| =========                 |                                                 |
| \\      /  F ield         | OpenFOAM: The Open Source CFD Toolbox           |
|  \\    /   O peration     | Version:  v1612+                                |
|   \\  /    A nd           | Web:      www.OpenFOAM.com                      |
|    \\/     M anipulation  |                                                 |
\*---------------------------------------------------------------------------*/
FoamFile
{
    version     2.0;
    format      ascii;
    class       volVectorField;
    location    "1.75";
    object      U;
}
// * * * * * * * * * * * * * * * * * * * * * * * * * * * * * * * * * * * * * //

dimensions      [0 1 -1 0 0 0 0];

internalField   nonuniform List<vector> 
1116
(
(0.496413 -7.33511e-07 -0.45975)
(0.496415 -4.29147e-07 -0.459753)
(0.496415 2.44502e-07 -0.459753)
(0.496415 4.74107e-07 -0.459753)
(0.496416 9.98e-07 -0.459753)
(0.496415 6.2035e-07 -0.45975)
(1.52064 -1.69861e-06 -0.627974)
(1.52065 -6.02909e-07 -0.627979)
(1.52065 2.48951e-07 -0.627979)
(1.52065 -7.8959e-07 -0.627978)
(1.52065 7.67569e-07 -0.627977)
(1.52064 1.84133e-06 -0.627971)
(2.61312 -2.08731e-06 -0.559295)
(2.61313 1.53321e-07 -0.559302)
(2.61313 -9.58729e-07 -0.559299)
(2.61313 -3.35016e-06 -0.559299)
(2.61313 -1.62097e-06 -0.5593)
(2.61312 1.95088e-06 -0.559293)
(3.62911 -5.09449e-06 -0.508752)
(3.62913 -2.39874e-06 -0.508759)
(3.62913 -4.16343e-06 -0.508755)
(3.62912 -7.90618e-06 -0.508756)
(3.62912 -6.64615e-06 -0.508761)
(3.6291 -1.28936e-08 -0.508757)
(4.5138 -1.06106e-05 -0.375703)
(4.51382 -9.70662e-06 -0.375713)
(4.51382 -9.95291e-06 -0.375708)
(4.51382 -1.32163e-05 -0.375712)
(4.51382 -1.202e-05 -0.375721)
(4.51379 -2.48455e-06 -0.375724)
(5.35458 -1.71363e-05 -0.37972)
(5.3546 -1.92171e-05 -0.37975)
(5.3546 -1.46959e-05 -0.379746)
(5.35459 -1.66266e-05 -0.379749)
(5.3546 -1.38019e-05 -0.379761)
(5.35456 -3.05461e-06 -0.379767)
(6.30823 -2.15558e-05 -0.377396)
(6.30827 -2.59845e-05 -0.377452)
(6.30826 -1.69665e-05 -0.377453)
(6.30826 -1.80219e-05 -0.377454)
(6.30826 -1.23147e-05 -0.377463)
(6.30822 -2.4854e-06 -0.377468)
(7.22905 -1.67159e-05 -0.379365)
(7.22912 -2.01246e-05 -0.379435)
(7.22911 -1.5978e-05 -0.379438)
(7.22911 -1.80621e-05 -0.379436)
(7.22912 -1.04518e-05 -0.379439)
(7.22908 -2.39771e-06 -0.379438)
(7.83569 6.28448e-06 -0.530632)
(7.8358 2.00089e-06 -0.530694)
(7.8358 -1.46484e-05 -0.530697)
(7.8358 -1.39384e-05 -0.530694)
(7.83581 -8.18445e-06 -0.530695)
(7.83577 -5.66471e-06 -0.530694)
(7.92729 2.35747e-05 -0.896084)
(7.92741 2.26548e-05 -0.896131)
(7.9274 -7.24626e-06 -0.896128)
(7.9274 -1.33258e-05 -0.896125)
(7.92745 -2.33927e-05 -0.896135)
(7.92738 -1.81576e-05 -0.896123)
(7.43717 5.78207e-06 -0.841079)
(7.43733 5.72626e-06 -0.841141)
(7.43731 -1.02357e-05 -0.84113)
(7.43733 -1.86783e-05 -0.841132)
(7.43739 -2.14613e-05 -0.841153)
(7.43731 -7.05694e-06 -0.841098)
(5.47442 -9.8888e-05 1.00434)
(5.47477 -0.000138936 1.00418)
(5.47475 -6.84089e-05 1.00421)
(5.4748 -1.15618e-05 1.00419)
(5.47483 5.33814e-05 1.00416)
(5.47466 4.8106e-05 1.00426)
(0.657753 -8.0972e-07 -1.50609)
(0.657757 1.22591e-06 -1.5061)
(0.657753 1.9216e-06 -1.5061)
(0.657751 -9.92029e-07 -1.5061)
(0.657751 -3.48756e-07 -1.5061)
(0.657748 2.14425e-07 -1.50609)
(1.75515 -5.70778e-06 -1.7476)
(1.75517 6.667e-06 -1.74762)
(1.75516 -5.04688e-06 -1.74761)
(1.75516 -4.14141e-07 -1.74761)
(1.75515 -7.99107e-06 -1.74761)
(1.75515 7.59405e-06 -1.74759)
(2.67861 -9.46057e-06 -1.46231)
(2.67864 -3.10219e-07 -1.46232)
(2.67863 -9.16713e-06 -1.46231)
(2.67863 -4.36676e-06 -1.46231)
(2.67862 -1.15974e-05 -1.46232)
(2.6786 4.87733e-06 -1.4623)
(3.63024 -9.63095e-06 -1.50227)
(3.63028 -1.20451e-05 -1.5023)
(3.63027 -9.29888e-06 -1.50229)
(3.63026 -6.231e-06 -1.50229)
(3.63025 -8.14156e-06 -1.50231)
(3.63022 -7.71344e-07 -1.50229)
(4.64591 -5.44217e-06 -1.46222)
(4.64597 -2.13626e-05 -1.46227)
(4.64595 -1.43698e-05 -1.46226)
(4.64594 -1.36759e-05 -1.46226)
(4.64594 -1.37082e-05 -1.46228)
(4.6459 -1.35198e-05 -1.46227)
(5.45855 7.97086e-06 -1.66384)
(5.45864 -1.42337e-05 -1.66393)
(5.45862 -6.9772e-07 -1.66392)
(5.45862 -4.66215e-06 -1.66391)
(5.45862 -3.2255e-06 -1.66393)
(5.45858 -1.79942e-05 -1.66393)
(6.62599 4.4645e-05 -1.78871)
(6.62618 1.49486e-05 -1.78884)
(6.62614 9.7257e-06 -1.78884)
(6.62613 -1.19399e-06 -1.78883)
(6.62614 4.36611e-06 -1.78884)
(6.62608 -2.40046e-05 -1.78884)
(8.30531 9.59575e-05 -1.3607)
(8.30565 5.82007e-05 -1.36079)
(8.30555 2.05531e-06 -1.36081)
(8.30554 -1.69281e-05 -1.36083)
(8.30557 -6.51225e-06 -1.36084)
(8.30545 -3.61706e-05 -1.36083)
(10.724 0.000114898 -1.08168)
(10.7245 6.52011e-05 -1.08156)
(10.7244 1.89647e-05 -1.08158)
(10.7244 2.84439e-05 -1.08165)
(10.7245 5.33391e-05 -1.08167)
(10.7243 -1.56482e-05 -1.08166)
(12.4944 8.20884e-05 1.04837)
(12.4945 5.95108e-05 1.04846)
(12.4944 -3.55871e-05 1.04847)
(12.4944 -0.000112346 1.04844)
(12.4945 -0.000163385 1.04841)
(12.4944 -0.000116726 1.04834)
(11.4044 0.000140848 2.69935)
(11.4047 0.000154692 2.69927)
(11.4046 -3.18537e-05 2.69927)
(11.4046 -0.000198344 2.69923)
(11.4049 -0.000254206 2.69918)
(11.4046 -0.000130863 2.69918)
(10.0026 -7.60799e-05 8.00874)
(10.0036 -0.000105387 8.00865)
(10.0036 -4.05463e-05 8.00863)
(10.0037 -3.9655e-06 8.00866)
(10.004 4.37004e-05 8.00882)
(10.0035 4.64227e-05 8.00883)
(0.585858 1.54649e-06 -2.84617)
(0.585865 1.0189e-06 -2.84619)
(0.585866 3.26556e-07 -2.84618)
(0.585866 -1.80344e-06 -2.84618)
(0.585865 -2.77891e-06 -2.84618)
(0.585866 -9.90068e-07 -2.84617)
(1.56156 -1.42827e-06 -2.69362)
(1.56157 -9.78235e-07 -2.69366)
(1.56157 -6.98693e-06 -2.69364)
(1.56156 -2.17024e-06 -2.69364)
(1.56155 -1.11476e-05 -2.69365)
(1.56157 -6.95031e-06 -2.69362)
(2.78278 -4.07773e-06 -2.44701)
(2.78282 -2.37907e-05 -2.44704)
(2.78282 -3.13374e-06 -2.44702)
(2.78282 -1.19818e-05 -2.44702)
(2.78282 -9.26735e-06 -2.44704)
(2.78279 -2.29269e-05 -2.447)
(3.87705 -4.51175e-06 -2.89077)
(3.87709 -4.84975e-05 -2.89084)
(3.87708 1.23503e-05 -2.89082)
(3.87708 -6.35206e-06 -2.89081)
(3.87709 6.39334e-06 -2.89082)
(3.87705 -3.88455e-05 -2.89079)
(5.84167 1.14878e-05 -2.19823)
(5.84169 -3.54974e-05 -2.19832)
(5.84166 5.21258e-05 -2.19836)
(5.84165 8.01213e-06 -2.19835)
(5.84166 2.60812e-05 -2.19836)
(5.84159 -4.94155e-05 -2.19841)
(6.97353 6.68147e-05 -2.68362)
(6.9735 1.97644e-05 -2.68375)
(6.97347 7.30951e-05 -2.68376)
(6.97347 6.48268e-06 -2.68371)
(6.97348 1.73833e-05 -2.68369)
(6.97334 -7.1098e-05 -2.68375)
(9.21858 5.9647e-05 -3.3531)
(9.21855 6.89985e-06 -3.35321)
(9.2185 4.4457e-05 -3.35322)
(9.21853 -5.58199e-05 -3.3532)
(9.21858 -5.66122e-05 -3.35321)
(9.21839 -0.000118904 -3.35328)
(9.92973 6.93674e-05 -3.36399)
(9.92994 -4.11543e-05 -3.36372)
(9.92983 -7.82862e-05 -3.3638)
(9.92984 -8.38152e-05 -3.36395)
(9.92993 -7.22389e-05 -3.36408)
(9.92966 -0.000126206 -3.3642)
(8.30364 0.000196523 -2.31781)
(8.30429 0.000164121 -2.31744)
(8.304 7.43649e-05 -2.31742)
(8.30409 0.000199846 -2.31756)
(8.30458 0.000268888 -2.31762)
(8.30428 8.42584e-05 -2.3176)
(8.11797 6.56016e-05 2.69768)
(8.11853 0.00028943 2.69854)
(8.11853 0.000508219 2.6989)
(8.11879 0.000621157 2.69887)
(8.11915 0.000752372 2.6985)
(8.12043 0.00037664 2.69761)
(7.98692 0.00017881 5.4755)
(7.9869 0.000289938 5.47579)
(7.98663 0.000129932 5.47585)
(7.98715 -0.000213335 5.47567)
(7.98991 -0.000573993 5.47497)
(7.98727 -0.000421286 5.47505)
(12.2318 -3.4939e-05 16.937)
(12.233 -0.000141237 16.9373)
(12.2328 -0.000239014 16.9373)
(12.2329 -0.000254327 16.9374)
(12.2336 -0.000496314 16.9379)
(12.2314 -0.000343845 16.9375)
(-0.451847 1.95744e-07 -3.61937)
(-0.451847 -4.79045e-07 -3.6194)
(-0.451833 1.79377e-06 -3.61939)
(-0.451831 -7.58988e-07 -3.61938)
(-0.451837 -2.36845e-06 -3.61938)
(-0.451825 -1.87293e-06 -3.6194)
(0.824748 4.16828e-05 -4.06357)
(0.824736 -7.15533e-05 -4.06361)
(0.824735 3.78267e-05 -4.06361)
(0.824743 -2.99134e-05 -4.0636)
(0.824744 5.57007e-05 -4.0636)
(0.824727 -7.1872e-05 -4.06357)
(2.31389 5.40507e-05 -3.75546)
(2.31372 -9.0314e-05 -3.7556)
(2.3137 7.84345e-05 -3.75562)
(2.31372 -3.10005e-05 -3.7556)
(2.31376 0.000109497 -3.75558)
(2.31374 -6.99275e-05 -3.75562)
(4.31041 0.000140955 -4.79632)
(4.31071 0.000121887 -4.79645)
(4.31079 0.000251867 -4.79638)
(4.31082 6.53829e-05 -4.79625)
(4.31086 0.000148917 -4.79618)
(4.31097 -5.43042e-05 -4.79615)
(3.33767 7.38042e-05 -1.71425)
(3.33774 0.000116491 -1.71425)
(3.33782 0.000229754 -1.71441)
(3.33791 0.000105116 -1.7144)
(3.33796 0.000137006 -1.7144)
(3.33789 8.48435e-06 -1.71465)
(1.07526 5.14524e-05 -4.01206)
(1.07545 7.19464e-05 -4.01208)
(1.07572 8.82756e-05 -4.01195)
(1.07587 7.08808e-05 -4.01186)
(1.07593 8.26124e-05 -4.01184)
(1.07594 2.38209e-05 -4.01189)
(-0.366469 -4.50555e-05 -3.31617)
(-0.366409 -4.36082e-05 -3.31618)
(-0.36629 -5.30815e-05 -3.3161)
(-0.366202 -7.50542e-06 -3.31608)
(-0.366055 3.97981e-05 -3.31622)
(-0.36582 2.29312e-05 -3.31647)
(0.662887 -4.68492e-05 -2.55724)
(0.662872 -2.72505e-06 -2.55716)
(0.662959 2.84604e-05 -2.55731)
(0.662962 9.79893e-05 -2.55748)
(0.663063 6.01798e-05 -2.55776)
(0.663282 -2.16129e-05 -2.55817)
(1.46101 0.000138723 -2.19345)
(1.46095 0.000236774 -2.19335)
(1.46093 0.000196363 -2.19349)
(1.46092 0.000291593 -2.19358)
(1.46116 0.000157871 -2.19361)
(1.46117 -2.01683e-05 -2.19381)
(6.03306 0.000149117 1.07541)
(6.03361 0.000215707 1.07595)
(6.03379 0.000196987 1.07672)
(6.03408 0.000504047 1.07687)
(6.03415 0.000407154 1.07613)
(6.03489 8.41039e-05 1.07702)
(5.94023 7.86064e-05 9.82465)
(5.94096 0.000128818 9.82495)
(5.94023 0.000181784 9.82617)
(5.9402 0.000292745 9.82607)
(5.94114 4.86244e-05 9.8231)
(5.9394 -0.000146772 9.8263)
(11.3023 0.000117963 21.3865)
(11.303 -4.19787e-05 21.3872)
(11.3023 -0.000672945 21.3873)
(11.3026 -0.00124649 21.3874)
(11.3102 -0.00225787 21.3966)
(11.298 -0.00142794 21.3795)
(-2.03779e-05 -2.0545e-07 -1.75928e-05)
(-2.03085e-05 -7.70619e-08 -1.75149e-05)
(-2.02827e-05 6.90061e-08 -1.75259e-05)
(-2.02827e-05 -4.00682e-08 -1.75239e-05)
(-2.02686e-05 2.69541e-08 -1.75404e-05)
(-2.03426e-05 8.65721e-09 -1.76068e-05)
(-6.41549e-05 -1.99828e-07 -2.13968e-05)
(-6.39091e-05 -9.76504e-08 -2.13231e-05)
(-6.38658e-05 2.85599e-08 -2.13358e-05)
(-6.3861e-05 -5.63765e-08 -2.13417e-05)
(-6.38494e-05 1.15337e-08 -2.13573e-05)
(-6.40721e-05 3.43005e-08 -2.14326e-05)
(-0.000116043 -2.23705e-07 -2.83257e-05)
(-0.000115597 -1.44001e-07 -2.82378e-05)
(-0.000115586 5.47423e-09 -2.82514e-05)
(-0.000115598 -3.77491e-08 -2.82577e-05)
(-0.000115639 3.55334e-08 -2.82655e-05)
(-0.000116035 4.14592e-08 -2.83347e-05)
(-0.000173405 -2.578e-07 -3.18188e-05)
(-0.000172839 -1.5047e-07 -3.16667e-05)
(-0.000172916 7.72077e-08 -3.1662e-05)
(-0.000173018 9.65235e-08 -3.16413e-05)
(-0.00017313 1.59233e-07 -3.16301e-05)
(-0.000173755 7.82482e-08 -3.16655e-05)
(-0.000217009 -1.71658e-07 -7.62844e-07)
(-0.000216522 8.34802e-08 -4.05039e-07)
(-0.000216785 3.92945e-07 -3.1868e-07)
(-0.000217022 4.12809e-07 -2.48072e-07)
(-0.000217176 3.90239e-07 -2.01645e-07)
(-0.000218028 1.64688e-07 -1.93976e-07)
(-0.000223482 2.76717e-07 0.000151392)
(-0.000223274 8.90855e-07 0.000152208)
(-0.000223739 1.02306e-06 0.000152445)
(-0.000224014 8.15449e-07 0.000152562)
(-0.000224041 5.71328e-07 0.000152602)
(-0.000224929 2.18501e-07 0.000152558)
(-0.000218832 1.14631e-06 0.000561251)
(-0.000218912 2.23284e-06 0.000562909)
(-0.000219405 1.69518e-06 0.000563368)
(-0.000219469 9.18076e-07 0.00056349)
(-0.000219064 2.76685e-07 0.000563397)
(-0.000219595 2.63582e-08 0.000563084)
(-0.000263147 2.18686e-06 0.00135769)
(-0.000263232 3.62918e-06 0.00136066)
(-0.000263355 1.97822e-06 0.00136142)
(-0.000262886 3.76832e-07 0.00136145)
(-0.000261794 -7.69859e-07 0.001361)
(-0.000261585 -5.43802e-07 0.00136007)
(-0.00033788 2.61538e-06 0.00255696)
(-0.000338148 3.79203e-06 0.00256158)
(-0.000337795 1.21194e-06 0.00256272)
(-0.000336508 -8.01499e-07 0.00256257)
(-0.000334337 -2.15132e-06 0.0025616)
(-0.000332818 -1.24441e-06 0.00255984)
(-0.000894335 2.45637e-06 0.00407948)
(-0.000894816 2.9197e-06 0.00408488)
(-0.000893871 -5.24358e-07 0.00408574)
(-0.00089168 -2.95132e-06 0.00408497)
(-0.000888247 -4.31169e-06 0.00408305)
(-0.000884725 -2.26572e-06 0.00407991)
(-0.00209347 -1.23426e-07 0.00473828)
(-0.00209338 -1.76739e-06 0.00473833)
(-0.0020924 -4.25878e-06 0.0047377)
(-0.00209051 -5.74717e-06 0.00473606)
(-0.00208719 -6.10298e-06 0.00473332)
(-0.0020823 -2.95928e-06 0.00472902)
(-0.00235064 -2.30806e-06 0.00625347)
(-0.00235003 -4.29457e-06 0.0062498)
(-0.0023497 -3.97282e-06 0.0062489)
(-0.00234923 -3.2713e-06 0.00624834)
(-0.00234809 -2.13565e-06 0.0062477)
(-0.00234573 -6.14972e-07 0.00624638)
(-1.06873e-05 -1.80814e-07 -3.85372e-05)
(-1.062e-05 -8.90291e-08 -3.8305e-05)
(-1.05994e-05 5.76771e-08 -3.83281e-05)
(-1.05974e-05 -6.20936e-08 -3.83201e-05)
(-1.05904e-05 2.49157e-08 -3.83361e-05)
(-1.06643e-05 1.77443e-08 -3.85478e-05)
(-3.54881e-05 -1.65993e-07 -5.10661e-05)
(-3.52509e-05 -8.84204e-08 -5.08414e-05)
(-3.52108e-05 2.94888e-08 -5.0868e-05)
(-3.52016e-05 -6.30547e-08 -5.0873e-05)
(-3.51999e-05 2.86852e-08 -5.08909e-05)
(-3.54212e-05 4.4835e-08 -5.11205e-05)
(-7.46331e-05 -1.69219e-07 -7.82376e-05)
(-7.42059e-05 -1.1388e-07 -7.79762e-05)
(-7.41823e-05 7.64463e-09 -7.80007e-05)
(-7.41933e-05 -3.54416e-08 -7.80017e-05)
(-7.42289e-05 6.24888e-08 -7.80085e-05)
(-7.46393e-05 5.10798e-08 -7.82289e-05)
(-0.000156252 -1.76246e-07 -0.000125561)
(-0.000155698 -1.13138e-07 -0.000125145)
(-0.000155741 6.58211e-08 -0.000125112)
(-0.000155819 8.82584e-08 -0.000125057)
(-0.000155902 1.98036e-07 -0.000125027)
(-0.000156558 1.12358e-07 -0.000125203)
(-0.000345705 -1.27118e-07 -0.000209662)
(-0.0003452 1.35127e-08 -0.000208747)
(-0.000345381 2.48327e-07 -0.000208502)
(-0.000345527 2.82148e-07 -0.000208331)
(-0.000345611 3.90733e-07 -0.000208232)
(-0.000346463 2.13609e-07 -0.000208384)
(-0.00073486 9.69322e-08 -0.000397937)
(-0.000734717 3.89234e-07 -0.000395926)
(-0.000735076 5.00315e-07 -0.000395313)
(-0.00073522 3.86949e-07 -0.000395024)
(-0.000735134 4.18492e-07 -0.000394962)
(-0.000735935 2.30911e-07 -0.000395323)
(-0.00139948 5.82196e-07 -0.000812256)
(-0.00140014 1.05988e-06 -0.000808336)
(-0.00140067 7.16923e-07 -0.000807223)
(-0.00140062 2.25921e-07 -0.000806954)
(-0.00140002 2.82731e-08 -0.000807269)
(-0.00140023 2.22795e-08 -0.000808341)
(-0.00226013 1.24734e-06 -0.00161137)
(-0.00226228 1.8948e-06 -0.0016044)
(-0.00226301 7.66646e-07 -0.00160255)
(-0.0022625 -3.40547e-07 -0.0016025)
(-0.00226099 -9.73556e-07 -0.00160366)
(-0.00225999 -5.44854e-07 -0.00160607)
(-0.00306 1.66426e-06 -0.00275432)
(-0.00306553 2.2653e-06 -0.00274284)
(-0.00306681 3.73574e-07 -0.00273971)
(-0.0030656 -1.24607e-06 -0.00274006)
(-0.00306252 -2.21022e-06 -0.00274273)
(-0.00305929 -1.22839e-06 -0.00274721)
(-0.0031097 2.0597e-06 -0.00377453)
(-0.00311904 2.12189e-06 -0.00376215)
(-0.00312061 -1.03283e-06 -0.00375979)
(-0.00311826 -3.18474e-06 -0.00376155)
(-0.00311293 -4.49065e-06 -0.00376628)
(-0.00310636 -2.44627e-06 -0.00377328)
(-0.00365781 -5.42205e-07 -0.00513788)
(-0.0036673 -2.50109e-06 -0.00513871)
(-0.00366855 -4.65244e-06 -0.00514084)
(-0.00366548 -5.93958e-06 -0.00514556)
(-0.00365841 -6.36811e-06 -0.00515334)
(-0.00364775 -3.23398e-06 -0.00516422)
(-0.00294622 -3.69208e-06 7.13934e-05)
(-0.00294939 -5.88127e-06 6.17625e-05)
(-0.00294982 -3.2688e-06 5.88581e-05)
(-0.00294847 -7.27752e-07 5.65035e-05)
(-0.00294507 1.07579e-06 5.35805e-05)
(-0.00293932 8.72261e-07 5.01504e-05)
(1.87169e-06 -1.67117e-07 -3.09444e-05)
(1.93173e-06 -9.45932e-08 -3.05628e-05)
(1.9453e-06 5.18423e-08 -3.05881e-05)
(1.94412e-06 -4.38074e-08 -3.0575e-05)
(1.94472e-06 4.16206e-08 -3.05712e-05)
(1.86663e-06 3.2372e-08 -3.09326e-05)
(4.91165e-06 -1.49051e-07 -4.98353e-05)
(5.12107e-06 -8.21175e-08 -4.94538e-05)
(5.1488e-06 3.60907e-08 -4.94831e-05)
(5.14886e-06 -3.58254e-08 -4.94793e-05)
(5.14065e-06 5.74776e-08 -4.94807e-05)
(4.91123e-06 6.37648e-08 -4.98628e-05)
(8.3749e-06 -1.34575e-07 -9.0725e-05)
(8.7481e-06 -8.68554e-08 -9.02962e-05)
(8.75654e-06 2.01248e-08 -9.03165e-05)
(8.73575e-06 -1.25719e-08 -9.03047e-05)
(8.70037e-06 8.25985e-08 -9.03002e-05)
(8.28727e-06 6.89253e-08 -9.06832e-05)
(2.74421e-05 -1.11151e-07 -0.000159002)
(2.7907e-05 -4.93234e-08 -0.000158386)
(2.78396e-05 7.50718e-08 -0.000158333)
(2.77679e-05 7.17552e-08 -0.000158278)
(2.77028e-05 1.7145e-07 -0.00015824)
(2.70774e-05 1.14461e-07 -0.000158622)
(0.000133402 -1.00252e-08 -0.000263207)
(0.000133797 1.37696e-07 -0.000262027)
(0.000133623 2.24678e-07 -0.000261779)
(0.000133524 1.77894e-07 -0.000261629)
(0.000133497 2.57219e-07 -0.000261553)
(0.000132733 1.58964e-07 -0.000262007)
(0.000435227 2.3519e-07 -0.000381949)
(0.000435325 4.7926e-07 -0.000379606)
(0.000435063 3.4994e-07 -0.000379048)
(0.000435045 1.568e-07 -0.000378859)
(0.000435261 1.55586e-07 -0.000378916)
(0.000434579 1.12838e-07 -0.000379745)
(0.000976359 5.91658e-07 -0.000439205)
(0.000975608 9.12988e-07 -0.000434743)
(0.000975175 3.64934e-07 -0.000433764)
(0.000975433 -1.29263e-07 -0.000433743)
(0.000976221 -3.17015e-07 -0.000434352)
(0.000976021 -1.20957e-07 -0.000436152)
(0.00154347 1.23794e-06 -0.000412906)
(0.00154015 1.74397e-06 -0.000404839)
(0.00153905 3.84186e-07 -0.000403119)
(0.00153979 -6.95168e-07 -0.000403417)
(0.00154175 -1.27125e-06 -0.000404988)
(0.00154273 -6.5095e-07 -0.000408324)
(0.00167727 2.92078e-06 -0.000489503)
(0.00167013 3.9833e-06 -0.000475942)
(0.00166846 5.13231e-07 -0.000472919)
(0.00166998 -2.22967e-06 -0.000473649)
(0.00167356 -3.73079e-06 -0.000476823)
(0.00167627 -2.00877e-06 -0.000482638)
(0.0010353 1.70118e-06 -0.00016917)
(0.00102329 1.48323e-06 -0.000152536)
(0.00102164 -1.91316e-06 -0.000149423)
(0.0010249 -4.33348e-06 -0.000151321)
(0.00103157 -5.48831e-06 -0.000156942)
(0.00103869 -2.7973e-06 -0.0001668)
(-0.00457001 -2.4533e-06 -0.0029863)
(-0.00458191 -5.55767e-06 -0.00298592)
(-0.00458292 -6.91208e-06 -0.0029879)
(-0.00457875 -7.83048e-06 -0.00299265)
(-0.00456968 -8.11052e-06 -0.00300182)
(-0.00455613 -3.95031e-06 -0.00301793)
(-0.0076258 -6.40803e-06 0.00372744)
(-0.00762978 -8.96663e-06 0.00371754)
(-0.00763014 -3.47663e-06 0.00371518)
(-0.00762845 1.51227e-06 0.00371295)
(-0.00762404 4.71785e-06 0.00370852)
(-0.00761599 3.24188e-06 0.00370066)
(1.57426e-05 -1.47225e-07 1.14333e-05)
(1.57933e-05 -9.57941e-08 1.19586e-05)
(1.58018e-05 4.54586e-08 1.19342e-05)
(1.5798e-05 -1.67198e-08 1.19503e-05)
(1.57947e-05 6.06784e-08 1.1959e-05)
(1.57206e-05 4.37834e-08 1.14675e-05)
(4.73903e-05 -1.22709e-07 -6.21376e-06)
(4.7578e-05 -7.04045e-08 -5.67845e-06)
(4.75969e-05 4.05444e-08 -5.70193e-06)
(4.75926e-05 -2.00086e-09 -5.69264e-06)
(4.75828e-05 8.59255e-08 -5.6871e-06)
(4.73697e-05 7.81243e-08 -6.2062e-06)
(7.62073e-05 -1.12868e-07 -4.83345e-05)
(7.65605e-05 -7.80061e-08 -4.77402e-05)
(7.65719e-05 2.03202e-08 -4.77493e-05)
(7.65646e-05 2.07678e-11 -4.77324e-05)
(7.65427e-05 9.16496e-08 -4.77215e-05)
(7.61692e-05 7.96089e-08 -4.82649e-05)
(8.3527e-05 -1.09426e-07 -0.000127503)
(8.404e-05 -8.27858e-08 -0.000126717)
(8.40501e-05 7.15977e-09 -0.000126668)
(8.40427e-05 2.30999e-10 -0.000126617)
(8.40221e-05 1.16398e-07 -0.000126578)
(8.34638e-05 9.9653e-08 -0.000127169)
(-1.71484e-05 -1.13161e-07 -0.000260914)
(-1.6402e-05 -1.37928e-07 -0.000259644)
(-1.63163e-05 -7.96621e-08 -0.00025946)
(-1.62464e-05 -6.6005e-08 -0.000259341)
(-1.61791e-05 9.69156e-08 -0.000259289)
(-1.68761e-05 1.0911e-07 -0.000260019)
(-0.000402322 -2.63166e-07 -0.000450569)
(-0.000401257 -4.82808e-07 -0.000448319)
(-0.000400979 -4.20665e-07 -0.000447895)
(-0.000400696 -3.40711e-07 -0.000447761)
(-0.000400382 -4.76778e-08 -0.000447848)
(-0.000401059 8.29867e-08 -0.000449011)
(-0.00117129 -5.48359e-07 -0.000700541)
(-0.0011699 -1.11312e-06 -0.000696559)
(-0.00116931 -9.90062e-07 -0.000695807)
(-0.00116862 -7.64787e-07 -0.000695827)
(-0.00116785 -3.30993e-07 -0.000696349)
(-0.00116826 -2.66157e-08 -0.000698351)
(-0.0020804 -1.12456e-06 -0.000962976)
(-0.00207938 -2.19311e-06 -0.000955862)
(-0.00207859 -1.8218e-06 -0.0009544)
(-0.00207728 -1.32055e-06 -0.000954572)
(-0.00207563 -6.97292e-07 -0.000955789)
(-0.00207528 -2.06477e-07 -0.000958916)
(-0.0031275 -1.8512e-06 -0.00119423)
(-0.00312898 -3.5122e-06 -0.00118261)
(-0.00312872 -2.96048e-06 -0.00117997)
(-0.0031269 -2.34524e-06 -0.00118022)
(-0.00312393 -1.60522e-06 -0.00118241)
(-0.00312159 -6.49758e-07 -0.00118723)
(-0.00238086 -2.11459e-06 0.00160294)
(-0.00238671 -3.72014e-06 0.00161797)
(-0.00238707 -2.60746e-06 0.00162125)
(-0.00238422 -1.58546e-06 0.00162003)
(-0.0023783 -9.2586e-07 0.00161511)
(-0.00237059 -4.5178e-07 0.00160611)
(-0.00549869 -1.04783e-06 -0.000369207)
(-0.0054965 -1.17083e-06 -0.000373448)
(-0.00549144 1.07598e-06 -0.000376163)
(-0.00548489 3.14363e-06 -0.000380455)
(-0.00547335 3.82429e-06 -0.000389388)
(-0.00545293 1.75039e-06 -0.000404696)
(-0.00938021 -6.16684e-07 0.0444883)
(-0.00936615 2.08972e-06 0.0444505)
(-0.00935885 7.58425e-06 0.0444383)
(-0.00935381 1.20632e-05 0.0444335)
(-0.00934722 1.40853e-05 0.0444317)
(-0.00933649 7.16918e-06 0.0444355)
(-2.66387 1.1364e-05 -3.19853)
(-2.66392 8.41904e-06 -3.19854)
(-2.66388 6.95957e-06 -3.19853)
(-2.66389 4.61474e-06 -3.19853)
(-2.6639 2.1066e-05 -3.19853)
(-2.66386 1.39989e-05 -3.19853)
(-4.13534 2.12946e-05 -2.23211)
(-4.13546 2.15767e-05 -2.23202)
(-4.13538 2.02315e-05 -2.23201)
(-4.1354 1.61893e-05 -2.23207)
(-4.13542 4.04807e-05 -2.23207)
(-4.13534 2.73158e-05 -2.23188)
(-2.01548 -5.11404e-06 -2.85737)
(-2.01561 -1.91994e-05 -2.85731)
(-2.01554 3.28869e-06 -2.85731)
(-2.01554 -1.59714e-05 -2.85734)
(-2.01557 3.98485e-06 -2.85729)
(-2.01547 6.28173e-07 -2.85722)
(1.44926 -1.57739e-05 -6.07052)
(1.44922 -0.000148792 -6.07056)
(1.44918 0.000178331 -6.07062)
(1.44924 -1.15777e-05 -6.0706)
(1.44926 0.00023881 -6.07051)
(1.44909 1.18673e-05 -6.0705)
(3.83283 -1.82441e-05 -4.48634)
(3.83293 -3.59634e-05 -4.48636)
(3.83287 -3.64374e-05 -4.48634)
(3.83289 -3.86251e-05 -4.48636)
(3.8329 -2.89521e-05 -4.48634)
(3.83285 1.25096e-05 -4.48614)
(-0.659684 1.61443e-06 -6.00498)
(-0.659693 8.67258e-06 -6.00511)
(-0.659709 1.69746e-05 -6.00504)
(-0.65972 2.37019e-05 -6.00501)
(-0.659719 -9.13266e-06 -6.00505)
(-0.659713 -1.34175e-05 -6.00492)
(-0.9957 4.65187e-05 -2.76893)
(-0.995946 2.77281e-05 -2.76916)
(-0.996001 4.8614e-05 -2.76923)
(-0.995947 -1.1357e-05 -2.76923)
(-0.995799 9.46515e-05 -2.76919)
(-0.995709 7.25116e-05 -2.76927)
(-1.97806 1.52006e-05 -1.39597)
(-1.97841 6.45784e-05 -1.39606)
(-1.9784 4.06892e-05 -1.396)
(-1.97839 5.42555e-05 -1.39602)
(-1.97833 4.47824e-05 -1.39607)
(-1.97813 6.25257e-05 -1.39597)
(-0.59433 -2.80472e-06 -1.43721)
(-0.594316 -1.29166e-05 -1.43724)
(-0.594335 -6.79165e-06 -1.43719)
(-0.594342 -6.9931e-06 -1.43718)
(-0.59433 -5.06703e-07 -1.4372)
(-0.594341 -5.41383e-06 -1.43709)
(-1.99111 6.85347e-05 -3.34164)
(-1.9915 5.47441e-05 -3.3419)
(-1.99136 -8.77784e-06 -3.34179)
(-1.99131 7.27385e-06 -3.34175)
(-1.99123 1.99983e-06 -3.34176)
(-1.99089 2.75307e-05 -3.34181)
(-1.50104 1.73635e-06 -2.3885)
(-1.50134 -4.59674e-05 -2.38855)
(-1.50137 -7.19336e-05 -2.38848)
(-1.50142 -5.29199e-05 -2.38846)
(-1.50145 -2.7614e-05 -2.38845)
(-1.50133 2.99251e-06 -2.38837)
(-0.51635 -1.13639e-06 -2.49626)
(-0.516364 -3.08202e-06 -2.49631)
(-0.516407 -1.14357e-05 -2.49627)
(-0.516421 -1.52992e-05 -2.49627)
(-0.516428 -8.73146e-06 -2.49627)
(-0.516453 8.48411e-07 -2.49617)
(-1.82399 -1.40534e-05 -1.13036)
(-1.82412 -3.68794e-05 -1.13041)
(-1.82403 -3.37002e-05 -1.13031)
(-1.82399 -1.39384e-05 -1.13023)
(-1.82395 4.93615e-06 -1.13024)
(-1.82369 5.3987e-06 -1.13027)
(-0.956064 -8.46415e-06 -2.73638)
(-0.956232 -3.32238e-05 -2.73641)
(-0.956265 -5.32121e-05 -2.73636)
(-0.956313 -3.72637e-05 -2.73631)
(-0.956342 -7.95536e-06 -2.73627)
(-0.956232 9.76503e-06 -2.73617)
(-0.0712583 -5.48072e-06 -3.03802)
(-0.0712801 -1.03465e-05 -3.03812)
(-0.0712976 -1.62133e-05 -3.03812)
(-0.0713103 -2.38199e-05 -3.03812)
(-0.0713196 -1.53011e-05 -3.03814)
(-0.0713259 -2.70916e-06 -3.03806)
(-1.70954 -6.16882e-05 -1.87857)
(-1.70993 -4.39215e-05 -1.87856)
(-1.70993 7.41397e-06 -1.87845)
(-1.70991 3.19345e-05 -1.87835)
(-1.70988 6.16657e-05 -1.87836)
(-1.70961 3.5988e-05 -1.87843)
(-0.718067 -1.16144e-05 -3.0895)
(-0.718199 -2.41774e-05 -3.08956)
(-0.718234 -2.75982e-05 -3.08953)
(-0.718265 -1.13594e-05 -3.0895)
(-0.718283 1.63555e-05 -3.08948)
(-0.718155 2.27691e-05 -3.08938)
(-0.122937 -3.70302e-06 -2.90867)
(-0.122958 -1.0592e-05 -2.90874)
(-0.122965 -1.36504e-05 -2.90873)
(-0.12297 -1.51989e-05 -2.90873)
(-0.122971 -1.10593e-05 -2.90875)
(-0.122954 -3.73876e-06 -2.90871)
(-0.74889 3.1321e-07 -3.28075)
(-0.749364 5.4676e-05 -3.28077)
(-0.749241 0.000120425 -3.28074)
(-0.749138 0.000126733 -3.28074)
(-0.749052 0.000146244 -3.28077)
(-0.748664 7.32878e-05 -3.28085)
(-0.521927 -2.24618e-05 -3.20819)
(-0.522101 -3.17302e-05 -3.20817)
(-0.522117 2.2486e-07 -3.20816)
(-0.522108 1.11328e-05 -3.20818)
(-0.522111 5.13734e-05 -3.20823)
(-0.521914 4.62338e-05 -3.20823)
(-0.203206 -1.39342e-05 -3.07951)
(-0.203244 -1.94613e-05 -3.07952)
(-0.203248 -6.18413e-06 -3.0795)
(-0.203244 7.07242e-07 -3.07952)
(-0.203236 1.33875e-05 -3.07954)
(-0.203192 1.1906e-05 -3.07954)
(-0.759079 6.39157e-05 -3.93767)
(-0.7597 0.000140238 -3.93768)
(-0.759477 0.000159278 -3.9377)
(-0.759337 0.000161899 -3.93775)
(-0.759212 0.000126985 -3.93775)
(-0.758718 5.04151e-05 -3.93798)
(-0.879175 -2.86699e-05 -3.30505)
(-0.879556 -2.53457e-05 -3.30497)
(-0.87955 1.00307e-05 -3.30499)
(-0.879554 -1.71327e-05 -3.30504)
(-0.879601 5.56177e-05 -3.30509)
(-0.879143 7.81868e-05 -3.30521)
(-0.356279 -2.99657e-05 -2.86912)
(-0.356381 -4.12839e-05 -2.86904)
(-0.356405 -1.55816e-05 -2.86902)
(-0.356417 -1.53162e-05 -2.86903)
(-0.356433 2.71102e-05 -2.86905)
(-0.356339 3.81402e-05 -2.86912)
(-0.89368 0.00016498 -4.53609)
(-0.894138 0.00029526 -4.53596)
(-0.894005 0.000255614 -4.53597)
(-0.893958 0.000325239 -4.53591)
(-0.893864 0.000194389 -4.53576)
(-0.893527 4.08274e-06 -4.53595)
(-1.92537 -1.44765e-05 -4.00233)
(-1.92587 5.60665e-06 -4.00213)
(-1.92583 -1.38475e-05 -4.00215)
(-1.92591 -4.81369e-05 -4.00211)
(-1.92607 -8.20806e-06 -4.00195)
(-1.92545 6.81336e-06 -4.00234)
(-0.873394 -5.89361e-05 -2.65785)
(-0.873654 -9.98598e-05 -2.65767)
(-0.873689 -8.63897e-05 -2.65765)
(-0.873747 -0.000121796 -2.65763)
(-0.873852 -1.80277e-05 -2.65759)
(-0.873594 5.74427e-05 -2.65785)
(1.65968 0.000210533 -1.20585)
(1.65988 0.000190728 -1.20527)
(1.66007 -8.84769e-06 -1.20498)
(1.66052 0.000368376 -1.20484)
(1.66093 0.000155682 -1.20535)
(1.66143 -0.000155882 -1.20386)
(-2.71736 0.000119905 -2.39229)
(-2.71771 0.000191502 -2.39166)
(-2.71762 5.55347e-05 -2.39137)
(-2.71763 0.000311939 -2.39104)
(-2.71784 -6.97621e-05 -2.39078)
(-2.71714 -0.000373315 -2.39011)
(-1.99031 -2.62144e-05 -1.98659)
(-1.99073 -7.9513e-05 -1.98617)
(-1.99075 -0.000143884 -1.98605)
(-1.99092 -0.000125895 -1.98584)
(-1.99121 -0.000198785 -1.98554)
(-1.99073 -0.000161755 -1.98594)
(1.83383 0.000669588 7.95239)
(1.83521 0.000558111 7.95296)
(1.83501 0.000126305 7.95415)
(1.835 0.000748043 7.95385)
(1.83456 8.01748e-05 7.95021)
(1.83565 -0.000389304 7.95621)
(-2.63719 0.000485325 4.15505)
(-2.63691 0.000440311 4.15628)
(-2.63669 0.000139448 4.15687)
(-2.63653 0.00090742 4.15682)
(-2.63697 -0.000224468 4.15562)
(-2.63513 -0.000881979 4.16053)
(-3.0983 0.000254311 1.29515)
(-3.09843 0.000336624 1.29653)
(-3.09833 0.000104898 1.29674)
(-3.09834 0.000427149 1.29715)
(-3.09853 -0.000254414 1.29782)
(-3.09792 -0.000632477 1.29881)
(9.75407 0.000273894 22.8141)
(9.75607 -0.000209111 22.8159)
(9.75551 -0.00079118 22.8157)
(9.75555 -0.000892073 22.8153)
(9.76054 -9.95607e-06 22.8191)
(9.75112 0.000682319 22.807)
(6.00525 0.000479781 21.087)
(6.00731 0.000141455 21.0901)
(6.00644 -0.000248637 21.0888)
(6.0063 -0.000121808 21.0884)
(6.00821 0.000493673 21.0895)
(6.00361 0.000824422 21.0868)
(1.44877 0.000294871 15.2192)
(1.45045 0.000409314 15.224)
(1.4498 0.000310302 15.2225)
(1.4497 0.000429666 15.2223)
(1.45013 0.000345115 15.223)
(1.44885 0.00019768 15.2242)
(-0.29849 -3.76749e-06 -0.18059)
(-0.298455 -1.11888e-06 -0.180592)
(-0.298453 7.85273e-06 -0.180592)
(-0.298457 1.52777e-05 -0.180591)
(-0.298464 1.68588e-05 -0.180589)
(-0.298501 9.29624e-06 -0.180588)
(0.223387 -1.92323e-06 -0.260586)
(0.22344 5.50896e-06 -0.260577)
(0.223436 1.96419e-05 -0.260581)
(0.223422 2.6644e-05 -0.260583)
(0.223403 2.86482e-05 -0.260585)
(0.223342 1.52558e-05 -0.260599)
(0.331924 -3.29378e-06 0.251936)
(0.331955 -1.61534e-06 0.251977)
(0.331953 6.86074e-06 0.251973)
(0.331945 1.25723e-05 0.251965)
(0.331932 1.68477e-05 0.251954)
(0.331895 9.63778e-06 0.251906)
(-0.314365 3.977e-06 -0.440355)
(-0.31431 7.61594e-06 -0.440375)
(-0.314308 1.55993e-05 -0.440375)
(-0.314316 2.495e-05 -0.44037)
(-0.31433 2.87783e-05 -0.440361)
(-0.314399 1.41771e-05 -0.440346)
(0.404472 -1.23737e-06 -0.613631)
(0.404555 1.4217e-05 -0.613662)
(0.404545 4.10832e-05 -0.613668)
(0.404516 5.43184e-05 -0.61367)
(0.404477 6.04608e-05 -0.61367)
(0.404366 3.25572e-05 -0.613654)
(0.615221 -8.64138e-06 0.442181)
(0.61529 -2.81898e-06 0.442243)
(0.615282 1.86896e-05 0.442234)
(0.615264 3.04301e-05 0.442213)
(0.615237 4.26072e-05 0.442186)
(0.61515 2.52532e-05 0.442105)
(-1.36451 -6.54967e-06 -0.683323)
(-1.36451 3.45971e-06 -0.683367)
(-1.36449 3.0558e-05 -0.683361)
(-1.36449 4.69265e-05 -0.683346)
(-1.3645 7.40439e-05 -0.683325)
(-1.36457 4.85176e-05 -0.683275)
(0.637195 8.17044e-06 -1.2707)
(0.637342 3.97292e-05 -1.27084)
(0.637312 7.44309e-05 -1.27084)
(0.637257 9.20835e-05 -1.27084)
(0.637186 0.000103212 -1.27084)
(0.63692 5.76317e-05 -1.27076)
(1.13023 -3.95536e-05 0.754331)
(1.13042 -2.74347e-05 0.754399)
(1.1304 3.29337e-05 0.754379)
(1.13037 4.8889e-05 0.754336)
(1.13032 9.39823e-05 0.754276)
(1.13008 6.60309e-05 0.75414)
(-0.877794 0.000110834 -1.74373)
(-0.877726 0.000106874 -1.74381)
(-0.877751 2.47971e-05 -1.74376)
(-0.87777 2.99903e-05 -1.74373)