/*--------------------------------*- C++ -*----------------------------------*\
| =========                 |                                                 |
| \\      /  F ield         | OpenFOAM: The Open Source CFD Toolbox           |
|  \\    /   O peration     | Version:  v1612+                                |
|   \\  /    A nd           | Web:      www.OpenFOAM.com                      |
|    \\/     M anipulation  |                                                 |
\*---------------------------------------------------------------------------*/
FoamFile
{
    version     2.0;
    format      ascii;
    class       surfaceScalarField;
    location    "1.6";
    object      alphaPhi;
}
// * * * * * * * * * * * * * * * * * * * * * * * * * * * * * * * * * * * * * //

dimensions      [0 3 -1 0 0 0 0];

internalField   nonuniform List<scalar> 
2916
(
-4.10947e-07
0.438315
-0.438313
-2.57198e-07
0.438317
-0.438315
5.56332e-08
0.438317
-0.438315
4.97733e-07
0.438317
-0.438315
6.76206e-07
0.438317
-0.438315
0.438316
-0.438313
-3.64901e-07
0.983759
-0.545441
4.80752e-07
0.983763
-0.545445
6.84573e-07
0.983762
-0.545443
7.45478e-07
0.983761
-0.545442
1.09253e-06
0.983761
-0.545442
0.983757
-0.545438
4.6565e-07
1.5019
-0.518119
1.79064e-06
1.5019
-0.518122
-4.11274e-08
1.5019
-0.518118
-8.90952e-07
1.5019
-0.518118
2.91589e-07
1.5019
-0.518119
1.50189
-0.518114
-3.06474e-06
2.05074
-0.548782
-7.37047e-07
2.05075
-0.548788
-3.90253e-06
2.05074
-0.548782
-5.39374e-06
2.05074
-0.548783
-3.28456e-06
2.05074
-0.548787
2.05073
-0.548785
-1.46281e-05
2.56916
-0.518022
-1.089e-05
2.56917
-0.518039
-1.15916e-05
2.56917
-0.518035
-1.17772e-05
2.56916
-0.518035
-7.76452e-06
2.56916
-0.518041
2.56915
-0.518044
-2.5894e-05
3.12831
-0.577235
-1.88228e-05
3.12831
-0.577271
-1.48914e-05
3.12832
-0.57727
-1.29217e-05
3.12831
-0.57727
-6.88583e-06
3.12832
-0.577274
3.12831
-0.577277
-2.57844e-05
3.38348
-0.337555
-2.14783e-05
3.38346
-0.337578
-1.42524e-05
3.38347
-0.337583
-9.42788e-06
3.38347
-0.337585
-3.5894e-06
3.38348
-0.337586
3.38348
-0.337588
-1.37388e-05
3.45883
-0.106029
-1.66407e-05
3.4588
-0.106033
-9.877e-06
3.4588
-0.106036
-3.7942e-06
3.45881
-0.106037
-1.61984e-06
3.45882
-0.106037
3.45883
-0.106037
-1.90026e-06
3.62775
-0.0755392
-8.41993e-06
3.62773
-0.0755331
-7.66064e-06
3.62774
-0.0755335
-5.55607e-06
3.62775
-0.075535
-7.51477e-06
3.62775
-0.0755353
3.62775
-0.0755361
-1.80915e-05
2.88719
-0.0100376
-1.65312e-05
2.88731
-0.0100384
-1.4854e-05
2.88733
-0.0100384
-1.23221e-05
2.88735
-0.0100389
-4.60828e-06
2.88733
-0.0100395
2.88726
-0.010039
-1.52817e-05
0.435297
0.280053
-1.2157e-05
0.435315
0.280047
-1.08379e-05
0.435317
0.280049
-6.53643e-06
0.435312
0.280047
6.07025e-06
0.435315
0.280041
0.435318
0.280044
-2.0416e-05
0.177893
-1.29919e-05
0.177888
-4.87373e-06
0.177891
3.6414e-06
0.177891
1.19689e-05
0.177887
0.177899
7.7176e-07
0.515559
-0.953871
7.23835e-07
0.515564
-0.953876
3.18592e-07
0.515561
-0.953874
-7.52233e-08
0.51556
-0.953873
2.27333e-07
0.515559
-0.953873
0.515557
-0.953867
2.08683e-06
1.00005
-1.02991
2.47409e-06
1.00006
-1.02992
1.35798e-07
1.00006
-1.02992
-1.15214e-06
1.00005
-1.02992
1.08741e-06
1.00005
-1.02992
1.00005
-1.02991
2.12406e-06
1.48467
-1.00269
1.98089e-06
1.48469
-1.0027
-1.93031e-06
1.48469
-1.00269
-3.9026e-06
1.48468
-1.00269
-8.76255e-07
1.48468
-1.00269
1.48467
-1.00268
-3.43254e-06
1.95667
-0.94409
-1.4067e-06
1.9567
-0.944115
-1.24692e-06
1.9567
-0.944112
-1.12741e-06
1.9567
-0.944113
3.04781e-07
1.9567
-0.944118
1.95669
-0.944119
-1.19288e-05
1.72673
-0.275315
-1.186e-05
1.72675
-0.27533
-4.71488e-06
1.72675
-0.275336
-4.27889e-06
1.72675
-0.275336
-8.31376e-06
1.72675
-0.275338
1.72675
-0.275349
6.66915e-07
1.0835
-0.0692558
2.82412e-07
1.08348
-0.0692586
4.55436e-06
1.08349
-0.069262
4.20769e-06
1.08349
-0.0692632
-1.00368e-06
1.08349
-0.0692644
1.0835
-0.0692684
9.5857e-06
0.358446
-0.00580571
1.92031e-06
0.358416
-0.00580601
7.39524e-07
0.358421
-0.00580638
9.72298e-07
0.358428
-0.00580656
-2.26281e-06
0.358429
-0.00580669
0.358432
-0.00580701
1.77394e-06
0.0915065
-0.000393022
2.81349e-07
0.0914997
-0.000393044
-3.36198e-07
0.0915002
-0.000393067
-3.84753e-07
0.0915022
-0.000393081
-6.48119e-07
0.0915029
-0.000393096
0.0915034
-0.000393105
-8.16864e-08
0.01597
-6.77188e-06
-2.18879e-08
0.0159692
-6.78029e-06
9.17095e-08
0.0159692
-6.7869e-06
2.02474e-07
0.0159697
-6.81117e-06
1.40612e-07
0.0159702
-6.74665e-06
0.0159702
-6.79318e-06
1.06627e-07
0.00590941
1.27056e-05
8.69317e-08
0.00590789
1.27507e-05
3.2219e-08
0.00590794
1.27723e-05
-2.56316e-08
0.005908
1.27456e-05
-5.91303e-08
0.00590782
1.27292e-05
0.00590832
1.26827e-05
3.62282e-06
0.223737
0.00561756
3.36332e-07
0.22375
0.00561775
-5.72052e-06
0.223753
0.00561672
-1.11213e-05
0.223753
0.00561716
-9.40088e-06
0.223749
0.00562115
0.223743
0.00561803
-1.64697e-05
0.099325
-8.78603e-06
0.0993235
-4.34539e-06
0.099327
3.02438e-06
0.0993272
1.95278e-05
0.0993249
0.0993342
4.53959e-06
0.511629
-1.46549
3.55268e-06
0.511636
-1.4655
1.83011e-06
0.511635
-1.46549
3.73397e-07
0.511634
-1.46549
6.28906e-07
0.511632
-1.46549
0.511634
-1.46549
1.97903e-06
0.923071
-1.32079
2.09217e-06
0.923087
-1.32081
-7.73584e-07
0.923087
-1.3208
-4.37242e-06
0.923086
-1.32081
-3.80418e-06
0.923083
-1.32081
0.92308
-1.3208
-9.72064e-06
0.820816
-0.474119
-9.29019e-06
0.82084
-0.474134
-5.99454e-06
0.820846
-0.474136
-7.46045e-06
0.820847
-0.474138
-1.17784e-05
0.820846
-0.474139
0.820855
-0.47415
-4.24036e-06
0.302165
-0.0737216
-1.75295e-06
0.302177
-0.0737233
4.03813e-06
0.302185
-0.0737245
2.67915e-06
0.302187
-0.0737254
-4.35194e-06
0.302188
-0.0737261
0.302197
-0.0737292
6.31714e-07
0.0754145
-0.00231172
1.03922e-06
0.0754175
-0.00231174
1.51089e-06
0.0754213
-0.00231183
1.12071e-06
0.0754226
-0.0023119
6.17124e-08
0.0754239
-0.00231198
0.0754283
-0.00231211
1.13032e-07
0.0062131
-5.19142e-05
1.68557e-07
0.00621341
-5.19177e-05
1.7879e-07
0.00621381
-5.19225e-05
1.24839e-07
0.006214
-5.1926e-05
3.77658e-08
0.00621414
-5.19288e-05
0.00621448
-5.19305e-05
6.96577e-09
0.000407811
-4.11757e-07
9.77213e-09
0.000407833
-4.11875e-07
7.42454e-09
0.000407857
-4.11972e-07
2.5139e-10
0.000407872
-4.12044e-07
-6.34901e-09
0.000407888
-4.12133e-07
0.000407898
-4.12198e-07
3.69019e-10
1.49316e-05
-5.49629e-08
-2.51203e-10
1.49328e-05
-5.50265e-08
-3.91647e-10
1.49335e-05
-5.5003e-08
-3.5557e-10
1.49338e-05
-5.50018e-08
-6.3244e-10
1.49356e-05
-5.50418e-08
1.4935e-05
-5.4949e-08
2.73413e-10
5.41262e-06
-4.92864e-06
3.16269e-10
5.41371e-06
-4.9294e-06
4.27981e-10
5.41514e-06
-4.92928e-06
5.20454e-10
5.41395e-06
-4.92809e-06
3.76013e-10
5.41126e-06
-4.92654e-06
5.41297e-06
-4.92723e-06
-1.4484e-10
1.09326e-05
-1.01443e-06
2.38461e-10
1.09689e-05
-1.01538e-06
8.48398e-10
1.09559e-05
-1.02562e-06
1.31958e-09
1.09147e-05
-1.01756e-06
7.88237e-10
1.09556e-05
-1.02014e-06
1.0874e-05
-1.01023e-06
-3.32047e-08
0.00560413
1.40376e-05
-3.23999e-07
0.00560452
1.41114e-05
-8.86539e-07
0.00560379
1.40691e-05
-1.34319e-06
0.00560407
1.40781e-05
-4.9793e-07
0.00560668
1.42224e-05
0.00560411
1.39409e-05
-5.06143e-07
0.000327434
-2.05828e-06
0.000326381
-5.18906e-06
0.000326376
-7.01165e-06
0.000326651
4.21775e-07
0.000328069
0.000326683
2.25839e-06
0.177264
-1.62089
3.76519e-06
0.177267
-1.6209
2.8965e-06
0.177269
-1.62089
4.15475e-07
0.177269
-1.62089
-4.3597e-07
0.177268
-1.62089
0.177276
-1.6209
-1.86876e-06
0.133523
-5.28373e-08
-3.40721e-06
0.133523
-5.28442e-08
1.57782e-07
0.133524
-5.28521e-08
-2.21687e-07
0.133526
-5.285e-08
-9.58814e-06
0.133526
-5.28434e-08
0.13353
-5.28356e-08
-1.9325e-06
0.0760471
-1.8771e-06
-1.15184e-06
0.0760489
-1.87733e-06
2.1395e-07
0.0760502
-1.87758e-06
3.57594e-07
0.0760512
-1.87752e-06
-1.23863e-06
0.0760519
-1.87735e-06
0.0760551
-1.87711e-06
-6.95096e-08
0.00234307
-1.81866e-05
-4.2697e-09
0.0023431
-1.81881e-05
3.88477e-08
0.00234319
-1.81884e-05
3.42247e-08
0.00234326
-1.81881e-05
7.85943e-09
0.00234334
-1.81877e-05
0.00234347
-1.81874e-05
7.48848e-09
5.23184e-05
-2.06739e-05
1.02004e-08
5.2322e-05
-2.06736e-05
8.44034e-09
5.23268e-05
-2.06732e-05
5.54883e-09
5.23304e-05
-2.06727e-05
3.50471e-09
5.23332e-05
-2.06728e-05
5.23351e-05
-2.06731e-05
7.35673e-11
4.04958e-07
-9.77236e-10
7.63234e-11
4.05075e-07
-9.7811e-10
7.51623e-11
4.05172e-07
-9.778e-10
6.43476e-11
4.05245e-07
-9.77514e-10
2.7451e-11
4.05334e-07
-9.77451e-10
4.054e-07
-9.76461e-10
-8.70209e-13
1.0898e-09
-5.18734e-09
-7.28673e-13
1.08988e-09
-5.18955e-09
-2.60696e-13
1.09007e-09
-5.18958e-09
2.63964e-13
1.09043e-09
-5.18946e-09
2.08765e-13
1.0916e-09
-5.19062e-09
1.09222e-09
-5.1892e-09
-5.10932e-14
1.16937e-07
-1.23372e-07
6.92015e-14
1.1692e-07
-1.23419e-07
3.35033e-13
1.16944e-07
-1.2339e-07
4.6073e-13
1.16952e-07
-1.23365e-07
-1.84476e-13
1.16932e-07
-1.23389e-07
1.16944e-07
-1.23308e-07
2.72248e-10
8.35326e-06
-1.19928e-06
2.38043e-10
8.35238e-06
-1.19927e-06
3.81247e-10
8.35037e-06
-1.19905e-06
3.88894e-10
8.35143e-06
-1.19897e-06
-1.68056e-12
8.357e-06
-1.19898e-06
8.35424e-06
-1.19918e-06
2.88018e-09
2.54834e-05
1.09444e-05
2.75047e-09
2.5487e-05
1.09486e-05
8.99427e-09
2.54905e-05
1.09585e-05
1.35127e-08
2.54813e-05
1.09525e-05
5.03019e-09
2.55171e-05
1.09338e-05
2.54626e-05
1.09368e-05
1.84916e-08
4.84534e-05
1.91574e-05
1.48375e-08
4.85353e-05
1.92112e-05
1.04314e-08
4.84529e-05
1.9201e-05
1.08108e-08
4.84748e-05
1.91993e-05
2.85882e-08
4.86737e-05
1.92097e-05
4.83296e-05
1.91288e-05
5.41989e-07
0.000396813
9.86863e-09
0.000396728
-6.25921e-07
0.000396713
-9.27112e-07
0.000396673
1.78194e-07
0.000396614
0.000396611
6.96662e-72
-2.97391e-64
1.7117e-68
2.84077e-72
-2.97961e-64
1.71498e-68
1.20268e-72
-2.97959e-64
1.71492e-68
2.84077e-73
-2.98028e-64
1.71527e-68
-7.18582e-74
-2.9822e-64
1.71626e-68
-2.97816e-64
1.71376e-68
1.31971e-67
-5.0246e-60
3.0791e-64
4.67293e-68
-5.03409e-60
3.08486e-64
1.06613e-68
-5.03407e-60
3.08475e-64
-1.326e-68
-5.0353e-60
3.08539e-64
-3.35434e-68
-5.03866e-60
3.08725e-64
-5.03211e-60
3.08294e-64
1.48797e-63
-4.04586e-56
2.72278e-60
5.13046e-64
-4.05344e-56
2.72776e-60
1.07279e-64
-4.05352e-56
2.72766e-60
-1.42153e-64
-4.05459e-56
2.72827e-60
-3.65877e-64
-4.05746e-56
2.73002e-60
-4.05251e-56
2.72644e-60
8.92652e-60
-2.04376e-52
1.54105e-56
2.80877e-60
-2.04756e-52
1.54385e-56
6.33483e-61
-2.04767e-52
1.54384e-56
-1.19642e-60
-2.04826e-52
1.54424e-56
-2.66351e-60
-2.0498e-52
1.54531e-56
-2.04747e-52
1.54345e-56
3.27803e-56
-7.20691e-49
6.13498e-53
1.19032e-56
-7.2203e-49
6.14665e-53
3.52416e-57
-7.22093e-49
6.147e-53
-4.75541e-57
-7.22317e-49
6.14898e-53
-1.19435e-56
-7.22891e-49
6.15373e-53
-7.2214e-49
6.147e-53
8.21465e-53
-1.87589e-45
1.80142e-49
3.9454e-53
-1.87937e-45
1.80522e-49
1.14309e-53
-1.87959e-45
1.80553e-49
-1.65357e-53
-1.88022e-45
1.80622e-49
-3.78451e-53
-1.88178e-45
1.80771e-49
-1.88001e-45
1.80589e-49
1.35913e-49
-3.7255e-42
3.93196e-46
8.10441e-50
-3.7324e-42
3.94132e-46
-2.77635e-51
-3.73289e-42
3.94239e-46
-8.56911e-50
-3.73422e-42
3.94398e-46
-1.18385e-49
-3.73743e-42
3.94712e-46
-3.73426e-42
3.94302e-46
2.14427e-46
-5.78554e-39
5.75643e-43
1.31221e-46
-5.7961e-39
5.77305e-43
-9.98286e-47
-5.79688e-39
5.77533e-43
-2.9137e-46
-5.79898e-39
5.77741e-43
-3.18484e-46
-5.80405e-39
5.78121e-43
-5.79958e-39
5.77421e-43
3.08076e-43
-7.28837e-36
3.65994e-40
1.23379e-43
-7.3012e-36
3.67874e-40
-3.60589e-43
-7.30204e-36
3.68199e-40
-7.1746e-43
-7.30462e-36
3.68249e-40
-6.68045e-43
-7.311e-36
3.68241e-40
-7.30585e-36
3.67426e-40
-1.24527e-40
-6.78295e-33
-1.21553e-33
-3.66897e-40
-6.79687e-33
-1.21481e-33
-9.59271e-40
-6.7978e-33
-1.21436e-33
-1.30035e-39
-6.79964e-33
-1.21507e-33
-1.04199e-39
-6.80453e-33
-1.21697e-33
-6.79873e-33
-1.21749e-33
-1.15687e-36
-3.32418e-30
-3.98915e-30
-1.3234e-36
-3.331e-30
-3.99669e-30
-1.64041e-36
-3.33111e-30
-3.99723e-30
-1.7455e-36
-3.33131e-30
-3.99861e-30
-1.2855e-36
-3.3326e-30
-4.00212e-30
-3.32841e-30
-4.00007e-30
-9.47839e-34
-4.46888e-27
-7.44967e-34
-4.47815e-27
-4.67664e-34
-4.47823e-27
-1.31428e-34
-4.47828e-27
1.6696e-34
-4.47956e-27
-4.47345e-27
1.2756e-68
-8.59657e-61
1.00832e-64
3.85305e-69
-8.61091e-61
1.01003e-64
1.5246e-70
-8.61025e-61
1.00994e-64
-2.69404e-69
-8.61203e-61
1.01013e-64
-5.66731e-69
-8.61765e-61
1.01073e-64
-8.60622e-61
1.00929e-64
2.58599e-64
-1.41226e-56
1.77833e-60
6.81135e-65
-1.41456e-56
1.78126e-60
-1.80641e-65
-1.41446e-56
1.7811e-60
-9.01153e-65
-1.41477e-56
1.78144e-60
-1.91133e-64
-1.41574e-56
1.78256e-60
-1.41395e-56
1.78015e-60
2.84854e-60
-1.09507e-52
1.53252e-56
6.07844e-61
-1.09682e-52
1.53497e-56
-3.59269e-61
-1.09676e-52
1.53485e-56
-1.24863e-60
-1.09703e-52
1.53517e-56
-2.32223e-60
-1.09782e-52
1.5362e-56
-1.09652e-52
1.53426e-56
1.53527e-56
-5.25697e-49
8.35323e-53
1.63158e-57
-5.26517e-49
8.36643e-53
-4.46102e-57
-5.26501e-49
8.36595e-53
-1.02204e-56
-5.26638e-49
8.36799e-53
-1.67079e-56
-5.2704e-49
8.37408e-53
-5.26467e-49
8.36441e-53
4.18044e-53
-1.73421e-45
3.13832e-49
-4.03642e-54
-1.73686e-45
3.14339e-49
-2.81514e-53
-1.73684e-45
3.14336e-49
-4.94842e-53
-1.73733e-45
3.14428e-49
-6.9255e-53
-1.73873e-45
3.14676e-49
-1.73702e-45
3.14348e-49
5.29708e-50
-4.16081e-42
8.33521e-46
-4.46761e-50
-4.16699e-42
8.34955e-46
-1.04692e-49
-4.16701e-42
8.35003e-46
-1.53498e-49
-4.16828e-42
8.35285e-46
-1.86248e-49
-4.17181e-42
8.35981e-46
-4.16814e-42
8.35172e-46
1.52146e-47
-7.60647e-39
1.55247e-42
-1.11869e-46
-7.61732e-39
1.55544e-42
-2.50395e-46
-7.61737e-39
1.55563e-42
-3.44276e-46
-7.61984e-39
1.55618e-42
-3.49319e-46
-7.62655e-39
1.55745e-42
-7.62067e-39
1.55594e-42
3.10745e-44
-1.11847e-35
1.9524e-39
-1.3112e-43
-1.11995e-35
1.95686e-39
-4.71934e-43
-1.11994e-35
1.95729e-39
-6.85322e-43
-1.12031e-35
1.95791e-39
-6.21542e-43
-1.12132e-35
1.9593e-39
-1.12057e-35
1.95713e-39
5.93573e-41
-1.39887e-32
1.26787e-36
-1.9831e-40
-1.40053e-32
1.27254e-36
-8.68573e-40
-1.40047e-32
1.27322e-36
-1.29991e-39
-1.40091e-32
1.27345e-36
-1.06148e-39
-1.40217e-32
1.27379e-36
-1.40137e-32
1.27153e-36
2.16679e-37
-1.22867e-29
-3.25721e-30
-8.18033e-37
-1.23069e-29
-3.25395e-30
-2.39538e-36
-1.23071e-29
-3.25245e-30
-3.35552e-36
-1.23095e-29
-3.25405e-30
-2.72059e-36
-1.23178e-29
-3.25898e-30
-1.23076e-29
-3.26087e-30
-2.36412e-33
-4.08474e-27
-8.61245e-27
-2.77596e-33
-4.0914e-27
-8.62763e-27
-3.30465e-33
-4.09107e-27
-8.62804e-27
-3.5297e-33
-4.09113e-27
-8.62962e-27
-2.65642e-33
-4.09277e-27
-8.63514e-27
-4.08822e-27
-8.62875e-27
-1.52528e-30
-5.12669e-24
-9.01186e-31
-5.13629e-24
-1.31963e-32
-5.13607e-24
8.02665e-31
-5.13576e-24
1.22645e-30
-5.13674e-24
-5.12955e-24
5.1365e-65
-4.76843e-57
8.17835e-61
1.30386e-65
-4.77662e-57
8.19263e-61
-2.46469e-66
-4.77616e-57
8.19178e-61
-1.45167e-65
-4.77676e-57
8.19269e-61
-2.7314e-65
-4.77919e-57
8.19661e-61
-4.77176e-57
8.18331e-61
1.06772e-60
-8.22623e-53
1.52166e-56
1.91893e-61
-8.2401e-53
1.52426e-56
-2.03731e-61
-8.23933e-53
1.5241e-56
-5.66968e-61
-8.24039e-53
1.52427e-56
-1.01678e-60
-8.24468e-53
1.52503e-56
-8.23221e-53
1.52263e-56
1.12145e-56
-6.66207e-49
1.38368e-52
-3.29912e-59
-6.67309e-49
1.386e-52
-4.9777e-57
-6.67254e-49
1.38586e-52
-9.54994e-57
-6.67342e-49
1.38602e-52
-1.40775e-56
-6.67699e-49
1.38674e-52
-6.66724e-49
1.38464e-52
5.06662e-53
-3.30466e-45
7.92667e-49
-2.07474e-53
-3.31003e-45
7.93979e-49
-5.73632e-53
-3.30978e-45
7.93912e-49
-8.57157e-53
-3.31023e-45
7.9402e-49
-1.09443e-52
-3.31204e-45
7.9445e-49
-3.30738e-45
7.93302e-49
7.0116e-50
-1.10621e-41
3.11155e-45
-1.8772e-49
-1.10798e-41
3.11676e-45
-3.25285e-49
-1.1079e-41
3.11657e-45
-4.2126e-49
-1.10805e-41
3.11706e-45
-4.70195e-49
-1.10866e-41
3.11881e-45
-1.10716e-41
3.11448e-45
-1.42278e-46
-2.60779e-38
8.65943e-42
-7.17772e-46
-2.61187e-38
8.67438e-42
-1.07072e-45
-2.61168e-38
8.67409e-42
-1.24446e-45
-2.61203e-38
8.67549e-42
-1.21894e-45
-2.61345e-38
8.68031e-42
-2.61005e-38
8.66847e-42
-5.40722e-43
-4.37229e-35
1.71053e-38
-1.29799e-42
-4.37895e-35
1.71359e-38
-2.02733e-42
-4.3786e-35
1.71356e-38
-2.32922e-42
-4.37914e-35
1.7138e-38
-2.04565e-42
-4.38147e-35
1.71468e-38
-4.37595e-35
1.71231e-38
4.7855e-41
-5.13409e-32
2.18121e-35
-7.12763e-40
-5.14164e-32
2.18539e-35
-2.1223e-39
-5.14116e-32
2.1854e-35
-2.86599e-39
-5.1417e-32
2.18561e-35
-2.38994e-39
-5.14432e-32
2.18656e-35
-5.13806e-32
2.18341e-35
1.15925e-36
-4.22234e-29
1.46415e-32
3.25285e-37
-4.22832e-29
1.4675e-32
-1.61865e-36
-4.22788e-29
1.46763e-32
-2.91847e-36
-4.2282e-29
1.46768e-32
-2.45372e-36
-4.23023e-29
1.46808e-32
-4.22531e-29
1.46568e-32
-1.83478e-33
-2.47835e-26
-6.82297e-28
-1.32441e-33
-2.48204e-26
-6.80865e-28
-1.31576e-33
-2.4818e-26
-6.80349e-28
-1.25791e-33
-2.48187e-26
-6.80728e-28
-5.93804e-34
-2.48284e-26
-6.82084e-28
-2.4799e-26
-6.83214e-28
-2.79237e-30
-5.13317e-24
-6.96273e-24
-1.95065e-30
-5.14125e-24
-6.97365e-24
-9.3234e-31
-5.1407e-24
-6.97326e-24
-2.12665e-31
-5.14033e-24
-6.97343e-24
2.01838e-31
-5.14144e-24
-6.97604e-24
-5.13454e-24
-6.96848e-24
-1.0938e-27
-2.48507e-21
-2.14482e-28
-2.4892e-21
9.19695e-28
-2.48896e-21
1.72049e-27
-2.48862e-21
1.76939e-27
-2.48879e-21
-2.48505e-21
1.66799e-62
-2.38514e-54
5.47727e-58
2.79658e-63
-2.38958e-54
5.48754e-58
-2.6106e-63
-2.38947e-54
5.48722e-58
-7.4269e-63
-2.38974e-54
5.48778e-58
-1.22092e-62
-2.39084e-54
5.49016e-58
-2.38693e-54
5.48089e-58
3.39884e-58
-4.31387e-50
1.08533e-53
-4.53612e-60
-4.32184e-50
1.08734e-53
-1.63105e-58
-4.32167e-50
1.08728e-53
-3.04674e-58
-4.32218e-50
1.0874e-53
-4.74881e-58
-4.32417e-50
1.08788e-53
-4.31724e-50
1.08609e-53
2.81944e-54
-3.58677e-46
1.03945e-49
-1.82944e-54
-3.59334e-46
1.04136e-49
-4.06476e-54
-3.59324e-46
1.04131e-49
-5.79577e-54
-3.59367e-46
1.04143e-49
-7.20069e-54
-3.59534e-46
1.0419e-49
-3.58971e-46
1.04023e-49
1.41139e-51
-1.77006e-42
6.14399e-46
-2.97987e-50
-1.77328e-42
6.15524e-46
-4.37907e-50
-1.77324e-42
6.15503e-46
-5.26283e-50
-1.77345e-42
6.15577e-46
-5.66634e-50
-1.77427e-42
6.15864e-46
-1.77156e-42
6.14905e-46
-8.49674e-47
-5.64657e-39
2.40135e-42
-1.9054e-46
-5.65674e-39
2.40576e-42
-2.32606e-46
-5.65663e-39
2.40572e-42
-2.43425e-46
-5.65727e-39
2.40603e-42
-2.28065e-46
-5.65985e-39
2.40716e-42
-5.65141e-39
2.4035e-42
-4.50199e-43
-1.20903e-35
6.29567e-39
-6.35199e-43
-1.21118e-35
6.30733e-39
-6.71851e-43
-1.21115e-35
6.30728e-39
-6.21572e-43
-1.21128e-35
6.30806e-39
-5.00334e-43
-1.21181e-35
6.31094e-39
-1.21005e-35
6.30145e-39
-1.06803e-39
-1.79212e-32
1.11108e-35
-1.22243e-39
-1.79521e-32
1.11314e-35
-1.15513e-39
-1.79515e-32
1.11313e-35
-9.32953e-40
-1.7953e-32
1.11325e-35
-6.4661e-40
-1.79605e-32
1.11371e-35
-1.79349e-32
1.11203e-35
-1.62492e-36
-1.91278e-29
1.298e-32
-1.59996e-36
-1.91593e-29
1.30044e-32
-1.33742e-36
-1.91581e-29
1.30042e-32
-9.3379e-37
-1.91591e-29
1.3005e-32
-4.6021e-37
-1.91665e-29
1.30097e-32
-1.91401e-29
1.29899e-32
-1.85263e-33
-1.51994e-26
8.84625e-30
-1.55916e-33
-1.52229e-26
8.86364e-30
-1.0856e-33
-1.52215e-26
8.86365e-30
-5.88972e-34
-1.52217e-26
8.8638e-30
-1.06641e-34
-1.52269e-26
8.86623e-30
-1.52068e-26
8.85217e-30
-1.35569e-30
-9.19259e-24
1.25133e-28
-9.78327e-31
-9.20621e-24
1.27482e-28
-4.76053e-31
-9.20522e-24
1.27912e-28
-1.71509e-31
-9.20487e-24
1.27696e-28
-2.90368e-32
-9.20732e-24
1.26829e-28
-9.19544e-24
1.24696e-28
-5.4886e-28
-8.36286e-22
-3.57043e-21
8.9215e-29
-8.37703e-22
-3.57509e-21
9.71092e-28
-8.37686e-22
-3.5745e-21
1.51356e-27
-8.37631e-22
-3.57414e-21
1.35627e-27
-8.37755e-22
-3.57472e-21
-8.36601e-22
-3.56992e-21
-2.08286e-26
-3.95616e-19
1.75738e-25
-3.96192e-19
4.00392e-25
-3.96135e-19
5.36503e-25
-3.96065e-19
4.48949e-25
-3.96057e-19
-3.95454e-19
-1.4749e-06
-0.628132
-1.55749e-08
-1.62688e-07
-0.628137
-1.55771e-08
9.29269e-07
-0.628138
-1.55794e-08
1.54507e-06
-0.628136
-1.55788e-08
1.88789e-06
-0.628135
-1.55769e-08
-0.628142
-1.55745e-08
4.90097e-06
0.00124653
-1.3676e-06
3.90657e-06
0.00124382
-1.36776e-06
2.24852e-06
0.00124074
-1.36796e-06
5.10844e-06
0.00124467
-1.36791e-06
9.06563e-06
0.00124508
-1.36777e-06
0.0012326
-1.36759e-06
4.16904e-07
2.63392e-12
3.15821e-07
2.88515e-12
1.09893e-07
2.96143e-12
3.39774e-07
2.89553e-12
7.77818e-07
2.87847e-12
2.94705e-12
-6.48087e-14
-7.16631e-08
7.05672e-11
-3.18121e-14
-7.16723e-08
7.05044e-11
6.67865e-14
-7.16826e-08
7.04869e-11
1.59736e-13
-7.16802e-08
7.04974e-11
9.80861e-14
-7.16714e-08
7.05546e-11
-7.16613e-08
7.05199e-11
4.63743e-14
2.48389e-12
-1.43927e-06
7.07456e-13
2.72085e-12
-1.43944e-06
6.85224e-13
2.79278e-12
-1.43964e-06
1.6594e-12
2.7306e-12
-1.4396e-06
3.69114e-12
2.71451e-12
-1.43945e-06
2.77917e-12
-1.43925e-06
8.40191e-19
4.96179e-12
1.47811e-17
5.43503e-12
2.2563e-17
5.57876e-12
2.95611e-17
5.45458e-12
2.32352e-17
5.42246e-12
5.55168e-12
-1.82693e-13
-1.77819e-06
-1.05202e-07
1.15657e-12
-1.77839e-06
-1.05227e-07
1.69545e-12
-1.77865e-06
-1.05225e-07
2.29958e-12
-1.7786e-06
-1.05218e-07
3.10644e-12
-1.77844e-06
-1.05203e-07
-1.77822e-06
-1.05178e-07
1.26728e-11
5.7015e-12
-7.23676e-06
2.68422e-11
6.24536e-12
-7.23738e-06
2.36474e-11
6.41045e-12
-7.23832e-06
3.1458e-11
6.26777e-12
-7.2382e-06
4.91376e-11
6.23096e-12
-7.23757e-06
6.37933e-12
-7.23675e-06
-1.28232e-17
7.72016e-12
-2.82214e-17
8.45639e-12
-4.944e-17
8.68006e-12
-6.77135e-17
8.48686e-12
-5.02157e-17
8.43694e-12
8.63779e-12
2.1339e-11
-1.8066e-05
-2.58364e-07
2.73368e-11
-1.80674e-05
-2.58364e-07
2.17343e-11
-1.80677e-05
-2.58344e-07
1.58545e-11
-1.80674e-05
-2.58329e-07
1.49663e-11
-1.80671e-05
-2.58322e-07
-1.80667e-05
-2.58295e-07
8.05988e-10
1.11876e-11
-1.70173e-05
5.42202e-10
1.22544e-11
-1.7018e-05
1.96598e-10
1.2578e-11
-1.70183e-05
8.5777e-11
1.22979e-11
-1.70187e-05
2.06028e-10
1.22257e-11
-1.70186e-05
1.25164e-11
-1.70186e-05
1.44282e-16
1.02514e-15
1.6886e-16
1.2172e-15
1.2043e-16
1.37523e-15
2.82723e-17
1.3114e-15
-9.4612e-17
1.24872e-15
-1.82561e-19
5.51014e-13
-2.09314e-05
-2.50206e-11
-2.57994e-12
-2.09312e-05
-2.50443e-11
-3.97916e-12
-2.09308e-05
-2.50352e-11
-5.50575e-12
-2.09302e-05
-2.50269e-11
-4.84018e-12
-2.09303e-05
-2.50244e-11
-2.09306e-05
-2.49964e-11
5.64342e-11
2.64816e-15
-1.06064e-12
-2.75818e-10
3.14415e-15
-1.06144e-12
-3.20135e-10
3.5522e-15
-1.06146e-12
-8.99395e-11
3.38724e-15
-1.06145e-12
1.48868e-10
3.22531e-15
-1.06136e-12
-1.6086e-17
-1.05856e-12
3.3006e-20
-1.62641e-17
4.12921e-20
-1.62761e-17
4.74196e-20
-1.6278e-17
3.05513e-20
-1.62807e-17
-1.08482e-20
-1.62858e-17
-1.62794e-17
-1.2841e-15
-2.30677e-14
-1.00452e-09
-6.37478e-16
-2.30842e-14
-1.00542e-09
1.03305e-16
-2.30837e-14
-1.0051e-09
6.50517e-16
-2.30825e-14
-1.00481e-09
6.89134e-16
-2.30803e-14
-1.00474e-09
-2.32815e-14
-1.00372e-09
-7.43994e-19
-6.86962e-17
-1.08169e-12
-7.65194e-19
-6.87423e-17
-1.08249e-12
-4.43587e-19
-6.87475e-17
-1.08251e-12
1.86121e-19
-6.87558e-17
-1.08251e-12
8.01844e-19
-6.87757e-17
-1.08243e-12
-6.87501e-17
-1.08219e-12
-4.38591e-22
-9.20585e-17
-5.37006e-22
-9.21268e-17
-5.57104e-22
-9.2134e-17
-3.00882e-22
-9.21462e-17
1.48498e-22
-9.21792e-17
-9.21494e-17
9.14998e-15
-3.39452e-11
-6.23878e-09
7.10121e-14
-3.39698e-11
-6.24196e-09
1.01202e-13
-3.39682e-11
-6.24163e-09
1.21954e-13
-3.39663e-11
-6.24119e-09
9.37874e-14
-3.3966e-11
-6.24222e-09
-3.39541e-11
-6.23969e-09
-3.57997e-17
-3.14278e-14
-3.47064e-11
-6.9783e-18
-3.14606e-14
-3.47281e-11
2.26856e-17
-3.14588e-14
-3.47275e-11
5.50741e-17
-3.146e-14
-3.47285e-11
8.20382e-17
-3.14675e-14
-3.47317e-11
-3.14496e-14
-3.47283e-11
-1.09672e-19
-3.15252e-14
-6.81415e-20
-3.15584e-14
-6.82189e-21
-3.15565e-14
4.96552e-20
-3.15576e-14
8.68555e-20
-3.1565e-14
-3.15466e-14
2.86479e-12
-2.8103e-09
1.00776e-07
5.92292e-12
-2.81183e-09
1.00795e-07
7.10124e-12
-2.81147e-09
1.00807e-07
7.05472e-12
-2.81103e-09
1.00831e-07
3.28728e-12
-2.81177e-09
1.00633e-07
-2.80956e-09
1.00859e-07
-2.12935e-15
-1.84847e-11
-2.83285e-09
2.25916e-15
-1.84965e-11
-2.8344e-09
3.74579e-15
-1.84966e-11
-2.83404e-09
4.90804e-15
-1.84979e-11
-2.8336e-09
7.82372e-15
-1.85021e-11
-2.83434e-09
-1.84983e-11
-2.83212e-09
-3.27885e-17
-1.84907e-11
-1.99293e-17
-1.85026e-11
-6.26517e-18
-1.85027e-11
7.43035e-18
-1.8504e-11
2.81248e-17
-1.85083e-11
-1.85045e-11
4.76947e-11
-9.09408e-08
-1.86012e-06
4.66746e-11
-9.09469e-08
-1.86121e-06
4.93175e-11
-9.09363e-08
-1.86178e-06
4.24053e-11
-9.09348e-08
-1.8619e-06
-6.90346e-12
-9.09286e-08
-1.85475e-06
-9.09539e-08
-1.86049e-06
6.56533e-14
-1.01228e-09
-9.34519e-08
3.59852e-14
-1.01247e-09
-9.34599e-08
-1.15122e-13
-1.01252e-09
-9.34487e-08
-1.54736e-13
-1.01262e-09
-9.3447e-08
-5.46827e-14
-1.0126e-09
-9.34422e-08
-1.01306e-09
-9.34644e-08
-4.20748e-15
-1.03077e-09
-3.82424e-15
-1.03097e-09
-4.57651e-15
-1.03102e-09
-3.75703e-15
-1.03113e-09
2.47782e-15
-1.03111e-09
-1.03156e-09
6.13404e-10
-8.48297e-08
1.43051e-06
5.00449e-10
-8.49667e-08
1.42922e-06
6.60943e-10
-8.49822e-08
1.42922e-06
6.15184e-10
-8.50374e-08
1.42876e-06
-3.85631e-10
-8.49964e-08
1.43086e-06
-8.50774e-08
1.43017e-06
4.92219e-12
1.11933e-09
-9.2341e-07
3.84517e-13
1.1199e-09
-9.2363e-07
-3.44961e-12
1.11968e-09
-9.23613e-07
-6.33253e-12
1.12004e-09
-9.23697e-07
-1.89708e-11
1.12563e-09
-9.23668e-07
1.12192e-09
-9.23904e-07
-2.08478e-13
-2.00106e-08
-3.35488e-13
-2.00286e-08
-4.96839e-13
-2.00258e-08
-5.08239e-13
-2.00294e-08
-2.60334e-13
-2.00464e-08
-2.00316e-08
3.40261e-09
2.9982e-06
-8.73908e-06
2.70753e-09
3e-06
-8.68589e-06
3.22591e-09
2.99955e-06
-8.69854e-06
2.61901e-09
2.99999e-06
-8.69934e-06
-2.97442e-09
3.00306e-06
-8.68861e-06
3.00342e-06
-8.78411e-06
4.41713e-10
1.43495e-06
-2.91187e-05
3.1367e-10
1.43598e-06
-2.91176e-05
2.84456e-10
1.43577e-06
-2.91184e-05
-6.83726e-11
1.43606e-06
-2.91181e-05
-1.59513e-09
1.43759e-06
-2.91166e-05
1.43653e-06
-2.91276e-05
-1.48062e-11
-1.45682e-06
-2.41566e-11
-1.4573e-06
-3.32593e-11
-1.45735e-06
-3.86252e-11
-1.4574e-06
-5.32054e-11
-1.45754e-06
-1.45784e-06
1.43138e-07
0.000107979
0.000276864
1.64402e-07
0.000107999
0.000276915
1.79771e-07
0.000107995
0.000276895
1.72751e-07
0.000107991
0.00027688
1.03142e-07
0.00010799
0.000276865
0.000108025
0.000276812
4.84693e-09
1.92535e-05
3.78915e-05
8.86329e-09
1.92632e-05
3.79019e-05
8.46839e-09
1.92633e-05
3.79009e-05
4.41207e-09
1.92641e-05
3.78999e-05
-6.06802e-09
1.92676e-05
3.78982e-05
1.927e-05
3.79005e-05
-4.50426e-10
3.22064e-06
-4.31636e-10
3.22212e-06
-5.45318e-10
3.22196e-06
-7.82185e-10
3.2219e-06
-1.17593e-09
3.2221e-06
3.22121e-06
2.51878e-22
2.32954e-18
-2.43739e-17
2.08828e-17
8.06738e-22
2.33241e-18
-2.44026e-17
2.09074e-17
1.20503e-21
2.33192e-18
-2.43985e-17
2.09038e-17
1.25325e-21
2.33147e-18
-2.43945e-17
2.09004e-17
9.0489e-22
2.33135e-18
-2.43938e-17
2.08997e-17
2.32785e-18
-2.43603e-17
2.08708e-17
-7.33837e-20
4.25954e-15
-1.33668e-14
1.85558e-15
1.91254e-20
4.26372e-15
-1.33714e-14
1.8574e-15
1.21196e-19
4.26355e-15
-1.33718e-14
1.85734e-15
1.76392e-19
4.26327e-15
-1.33714e-14
1.85722e-15
1.73271e-19
4.26325e-15
-1.33707e-14
1.85721e-15
4.2592e-15
-1.33664e-14
1.85546e-15
-2.11651e-21
-2.78737e-15
1.58949e-16
-8.21138e-22
-2.78946e-15
1.59076e-16
1.04819e-21
-2.78944e-15
1.59074e-16
2.4472e-21
-2.78927e-15
1.59068e-16
3.03905e-21
-2.78918e-15
1.59073e-16
-2.78734e-15
1.58946e-16
2.46011e-20
-1.14985e-14
-4.84035e-15
7.59774e-20
-1.15026e-14
-4.84628e-15
1.05709e-19
-1.15089e-14
-4.84094e-15
1.07522e-19
-1.15143e-14
-4.83777e-15
7.81595e-20
-1.1519e-14
-4.83529e-15
-1.15262e-14
-4.81749e-15
-2.13357e-17
6.66599e-13
-7.88472e-13
-9.44321e-19
6.67204e-13
-7.89221e-13
1.94904e-17
6.67169e-13
-7.89211e-13
3.24751e-17
6.67126e-13
-7.89177e-13
3.86825e-17
6.67128e-13
-7.89194e-13
6.66537e-13
-7.88522e-13
-6.98888e-19
-1.34111e-14
-3.4723e-19
-1.33428e-14
8.80111e-20
-1.33506e-14
5.11725e-19
-1.33511e-14
8.40093e-19
-1.33357e-14
-1.34148e-14
1.36462e-17
-2.52945e-11
3.7823e-12
2.01396e-17
-2.5316e-11
3.78673e-12
2.2567e-17
-2.53154e-11
3.7846e-12
1.76639e-17
-2.53145e-11
3.78276e-12
2.33885e-18
-2.5315e-11
3.78138e-12
-2.52957e-11
3.77332e-12
-3.61628e-15
6.39783e-11
-1.06337e-10
-8.04666e-16
6.40287e-11
-1.06429e-10
1.47516e-15
6.40242e-11
-1.06426e-10
3.74479e-15
6.40196e-11
-1.06422e-10
6.27009e-15
6.40195e-11
-1.06424e-10
6.39685e-11
-1.06342e-10
-1.35234e-16
6.92666e-11
-9.03542e-17
6.93063e-11
-3.80735e-17
6.93016e-11
2.90753e-17
6.92959e-11
1.1919e-16
6.92921e-11
6.92517e-11
1.01159e-14
-5.65909e-09
4.55776e-09
1.68308e-14
-5.6647e-09
4.56201e-09
2.03732e-14
-5.65921e-09
4.55751e-09
2.05947e-14
-5.65606e-09
4.55492e-09
1.4805e-14
-5.65372e-09
4.55322e-09
-5.63646e-09
4.53939e-09
-2.29671e-13
4.03996e-09
-1.14784e-08
3.24674e-14
4.04274e-09
-1.1488e-08
1.54429e-13
4.04237e-09
-1.14837e-08
4.15046e-13
4.04206e-09
-1.14812e-08
7.22046e-13
4.04206e-09
-1.14799e-08
4.03907e-09
-1.14621e-08
-2.4664e-14
2.45171e-09
-1.95574e-14
2.45186e-09
-1.51391e-14
2.45263e-09
-6.47985e-15
2.45292e-09
1.29876e-14
2.45261e-09
2.45977e-09
3.65246e-12
7.62425e-09
8.56226e-07
5.18768e-12
7.63556e-09
8.55695e-07
5.14406e-12
7.62593e-09
8.57575e-07
4.63817e-12
7.62007e-09
8.58731e-07
3.38641e-12
7.61641e-09
8.5977e-07
7.58537e-09
8.6462e-07
-9.69014e-12
4.01537e-07
-6.50468e-06
1.64612e-11
4.01851e-07
-6.50831e-06
2.41165e-11
4.01817e-07
-6.50777e-06
2.62922e-11
4.01804e-07
-6.50748e-06
2.87263e-11
4.01847e-07
-6.50766e-06
4.01508e-07
-6.5038e-06
-3.66395e-12
-2.26381e-08
-2.98154e-12
-2.26839e-08
-2.7729e-12
-2.26886e-08
-2.13889e-12
-2.26912e-08
2.30534e-13
-2.26951e-08
-2.26673e-08
1.20102e-08
5.13835e-05
1.07297e-08
5.14082e-05
1.00279e-08
5.14033e-05
9.10484e-09
5.14009e-05
6.60245e-09
5.14021e-05
5.13851e-05
3.47821e-10
-1.78538e-06
1.78222e-09
-1.78574e-06
1.89508e-09
-1.78551e-06
1.45776e-09
-1.78536e-06
9.78161e-10
-1.78531e-06
-1.78416e-06
-6.97676e-11
-5.12528e-11
-5.0979e-11
-5.23651e-11
-2.84014e-11
1.3439e-59
9.89096e-55
-3.72382e-51
3.22446e-62
9.90871e-55
-3.73039e-51
-5.6408e-60
9.90781e-55
-3.73006e-51
-1.06413e-59
9.90842e-55
-3.7303e-51
-1.55121e-59
9.91206e-55
-3.73171e-51
9.89417e-55
-3.72515e-51
2.94643e-62
6.7296e-57
-2.70405e-53
-1.07991e-62
6.74249e-57
-2.70912e-53
-3.1325e-62
6.7421e-57
-2.709e-53
-4.70482e-62
6.74257e-57
-2.7092e-53
-6.47372e-62
6.74514e-57
-2.71023e-53
6.73208e-57
-2.70515e-53
1.92494e-66
-4.32484e-57
-3.59351e-67
-4.33317e-57