/*--------------------------------*- C++ -*----------------------------------*\
| =========                 |                                                 |
| \\      /  F ield         | OpenFOAM: The Open Source CFD Toolbox           |
|  \\    /   O peration     | Version:  v1612+                                |
|   \\  /    A nd           | Web:      www.OpenFOAM.com                      |
|    \\/     M anipulation  |                                                 |
\*---------------------------------------------------------------------------*/
FoamFile
{
    version     2.0;
    format      ascii;
    class       volScalarField;
    location    "1.6";
    object      p_rgh;
}
// * * * * * * * * * * * * * * * * * * * * * * * * * * * * * * * * * * * * * //

dimensions      [1 -1 -2 0 0 0 0];

internalField   nonuniform List<scalar> 
1116
(
37291.1
37291.1
37291.1
37291.1
37291.1
37291.1
36160.6
36160.6
36160.6
36160.6
36160.6
36160.6
32771.7
32771.8
32771.8
32771.8
32771.8
32771.7
28536.5
28536.5
28536.5
28536.5
28536.5
28536.5
23763
23763
23763
23763
23763
23763
19176.3
19176.3
19176.4
19176.4
19176.4
19176.4
14372.7
14372.7
14372.7
14372.7
14372.7
14372.7
9805.42
9805.25
9805.25
9805.29
9805.31
9805.35
8274.52
8274.39
8274.39
8274.42
8274.43
8274.47
7706.17
7706.04
7706.07
7706.12
7706.12
7706.11
8721.2
8721.44
8721.49
8721.53
8721.46
8721.29
8167.17
8167.27
8167.33
8167.35
8167.33
8167.29
37254.9
37255
37255
37255
37255
37255
35259.8
35259.8
35259.9
35259.9
35259.8
35259.9
31098.2
31098.2
31098.2
31098.2
31098.2
31098.2
25693.8
25693.9
25694
25694
25694
25694
17736.1
17736
17736.1
17736.1
17736.1
17736.2
11235.2
11235
11235.1
11235.1
11235.1
11235.2
4749.88
4749.59
4749.66
4749.72
4749.72
4749.78
295.992
295.919
295.931
295.948
295.946
295.956
-87.7621
-87.7539
-87.7496
-87.7478
-87.7473
-87.7514
33.2951
33.2931
33.2897
33.2895
33.2942
33.2945
464.587
464.538
464.545
464.558
464.548
464.564
3237.88
3238.01
3238.07
3238.08
3238.07
3237.92
37732.9
37732.9
37732.9
37732.9
37732.9
37732.9
34143.9
34143.9
34143.9
34144
34144
34144
24526.4
24526.6
24526.7
24526.8
24526.8
24526.9
11228.9
11229.2
11229.3
11229.4
11229.4
11229.6
522.354
522.373
522.432
522.453
522.473
522.553
-21.094
-21.0926
-21.0921
-21.0908
-21.0886
-21.0872
-16.3321
-16.3325
-16.3326
-16.332
-16.3308
-16.3299
-10.594
-10.5928
-10.5912
-10.5911
-10.5918
-10.5924
-48.1423
-48.1399
-48.1386
-48.1389
-48.1395
-48.1415
-72.2125
-72.2085
-72.2073
-72.2085
-72.2102
-72.2076
-77.8054
-77.8054
-77.8047
-77.7989
-77.7905
-77.795
398.381
398.402
398.412
398.423
398.436
398.373
39766.6
39766.6
39766.6
39766.6
39766.6
39766.6
18352.1
18352.2
18352.2
18352.3
18352.3
18352.5
1677.36
1677.42
1677.46
1677.5
1677.51
1677.62
19.6107
19.6122
19.6123
19.6132
19.6138
19.6131
22.6193
22.6191
22.6189
22.6193
22.6199
22.6203
6.86497
6.86474
6.86459
6.86505
6.86598
6.86682
-9.06067
-9.06115
-9.06082
-9.05985
-9.05883
-9.05829
-23.2592
-23.2592
-23.2586
-23.258
-23.2578
-23.2576
-61.728
-61.7273
-61.7277
-61.7285
-61.7286
-61.7292
-89.4895
-89.4869
-89.4869
-89.4893
-89.4931
-89.4979
-127.15
-127.154
-127.156
-127.159
-127.163
-127.168
-58.1439
-58.1499
-58.1496
-58.1514
-58.1546
-58.1634
-0.0676328
-0.0675796
-0.0675597
-0.0675563
-0.0675603
-0.0675649
-0.0714484
-0.0714053
-0.0713928
-0.071396
-0.0714091
-0.0714286
-0.0794189
-0.079377
-0.0793663
-0.079373
-0.0793911
-0.0794144
-0.0917992
-0.0917638
-0.0917564
-0.0917686
-0.0917922
-0.0918196
-0.108957
-0.108938
-0.108939
-0.108957
-0.108985
-0.109014
-0.131203
-0.131207
-0.131218
-0.131238
-0.131264
-0.131288
-0.158581
-0.158606
-0.158623
-0.158637
-0.158652
-0.158665
-0.191286
-0.191327
-0.191341
-0.191345
-0.191345
-0.19134
-0.22934
-0.229389
-0.229398
-0.229391
-0.229377
-0.229358
-0.271264
-0.271306
-0.271312
-0.2713
-0.271278
-0.27125
-0.312974
-0.313014
-0.313014
-0.312996
-0.312969
-0.312934
-0.346737
-0.34675
-0.346734
-0.346704
-0.346664
-0.346624
-0.0641612
-0.0641254
-0.0641166
-0.064121
-0.0641341
-0.0641533
-0.0679531
-0.0679254
-0.0679221
-0.0679327
-0.0679545
-0.0679871
-0.0758811
-0.0758553
-0.0758539
-0.0758694
-0.0758973
-0.0759357
-0.0883165
-0.0882981
-0.0883011
-0.088323
-0.0883576
-0.0884015
-0.105843
-0.10584
-0.105851
-0.105878
-0.105916
-0.105961
-0.129283
-0.129296
-0.129313
-0.129341
-0.129374
-0.129409
-0.159839
-0.159863
-0.159881
-0.1599
-0.15992
-0.159936
-0.198414
-0.198442
-0.198455
-0.198462
-0.198464
-0.198458
-0.24448
-0.244508
-0.244515
-0.244512
-0.244501
-0.244478
-0.296056
-0.296085
-0.296091
-0.296085
-0.296066
-0.296031
-0.352163
-0.352186
-0.352183
-0.352164
-0.352131
-0.352084
-0.404819
-0.404805
-0.404771
-0.404719
-0.404657
-0.40459
-0.0575942
-0.0575671
-0.0575631
-0.0575713
-0.0575872
-0.0576076
-0.0611807
-0.0611611
-0.0611624
-0.0611766
-0.0612005
-0.0612331
-0.0687103
-0.0686945
-0.0686989
-0.0687185
-0.0687485
-0.0687866
-0.0806178
-0.080611
-0.0806218
-0.0806475
-0.0806838
-0.0807265
-0.0975496
-0.0975551
-0.0975737
-0.0976039
-0.0976423
-0.097684
-0.120185
-0.120202
-0.120224
-0.120252
-0.120284
-0.120316
-0.148689
-0.14871
-0.148729
-0.148748
-0.148768
-0.148782
-0.183624
-0.183643
-0.183655
-0.183665
-0.183671
-0.183669
-0.228649
-0.228667
-0.228676
-0.228679
-0.228675
-0.228659
-0.287769
-0.28779
-0.287799
-0.287795
-0.287778
-0.287748
-0.35388
-0.353886
-0.353879
-0.353857
-0.353821
-0.353784
-0.42594
-0.4259
-0.425847
-0.425783
-0.425717
-0.425658
-0.0481971
-0.0481781
-0.0481776
-0.0481875
-0.0482034
-0.0482229
-0.0513714
-0.0513594
-0.0513639
-0.051379
-0.0514019
-0.0514316
-0.058081
-0.058074
-0.0580825
-0.0581024
-0.0581304
-0.0581644
-0.0688558
-0.0688562
-0.0688712
-0.0688965
-0.0689293
-0.0689659
-0.0846036
-0.0846124
-0.0846336
-0.0846618
-0.0846948
-0.0847281
-0.106922
-0.106938
-0.10696
-0.106985
-0.107011
-0.107034
-0.138777
-0.138794
-0.13881
-0.138826
-0.138842
-0.138851
-0.183463
-0.183473
-0.183481
-0.183489
-0.183494
-0.183491
-0.242796
-0.242799
-0.242802
-0.2428
-0.242792
-0.242779
-0.318679
-0.318688
-0.318686
-0.31867
-0.318638
-0.3186
-0.421178
-0.421161
-0.421137
-0.421104
-0.421064
-0.421027
-0.578546
-0.578515
-0.578471
-0.578418
-0.578372
-0.578346
30541.5
30541.5
30541.6
30541.6
30541.5
30541.8
12130.4
12130.4
12130.5
12130.4
12130.4
12130.6
-6.08466
-6.08859
-6.09247
-6.09219
-6.09629
-6.10926
109.454
109.457
109.456
109.455
109.454
109.451
145.66
145.659
145.659
145.659
145.658
145.653
18.8354
18.8344
18.8338
18.8336
18.8328
18.8313
63.8598
63.8597
63.86
63.8603
63.8599
63.8588
57.4231
57.4232
57.4233
57.4233
57.4228
57.4216
12.3059
12.3059
12.3055
12.3049
12.3044
12.304
37.5879
37.5881
37.5883
37.5886
37.5886
37.5883
30.7823
30.7829
30.7832
30.7832
30.7831
30.7829
9.35822
9.35811
9.35796
9.35779
9.35766
9.35757
16.285
16.2849
16.2848
16.2851
16.2855
16.2857
12.5496
12.5495
12.5495
12.5498
12.5501
12.5503
1.4745
1.47435
1.47425
1.47422
1.47425
1.47429
2.32697
2.32683
2.32697
2.32767
2.32871
2.32948
2.75471
2.75447
2.75453
2.755
2.75568
2.75616
-1.1645
-1.16448
-1.16443
-1.16441
-1.16443
-1.1645
-7.96434
-7.96422
-7.96394
-7.96298
-7.96191
-7.96124
-4.82711
-4.82705
-4.82685
-4.82637
-4.8258
-4.82557
-2.93928
-2.93908
-2.93909
-2.93924
-2.93954
-2.93997
-20.5396
-20.5392
-20.5389
-20.5387
-20.5387
-20.5387
-11.4563
-11.4561
-11.4561
-11.4561
-11.4563
-11.4565
-3.64557
-3.64536
-3.64542
-3.6456
-3.64581
-3.6462
-44.6439
-44.6436
-44.644
-44.6452
-44.6465
-44.6475
-20.4505
-20.4506
-20.4513
-20.4522
-20.4531
-20.4537
-3.4737
-3.47363
-3.4737
-3.47374
-3.47367
-3.47389
-70.8321
-70.8313
-70.8314
-70.8318
-70.8335
-70.8363
-28.2487
-28.2499
-28.2518
-28.2536
-28.256
-28.2573
-1.95904
-1.9592
-1.95967
-1.96004
-1.9603
-1.9603
-93.5399
-93.5418
-93.5422
-93.5446
-93.5524
-93.5568
-31.9417
-31.9429
-31.9442
-31.9447
-31.9496
-31.9497
1.12248
1.12188
1.12074
1.12001
1.11912
1.11946
-18.6517
-18.6542
-18.654
-18.654
-18.6545
-18.6522
12.2116
12.2132
12.212
12.2112
12.211
12.2129
11.3853
11.3849
11.3835
11.3823
11.3805
11.3798
-2.07688
-2.0769
-2.077
-2.07716
-2.07732
-2.07744
-0.38522
-0.385186
-0.385208
-0.385249
-0.385301
-0.385356
0.26051
0.260542
0.260558
0.260554
0.260538
0.260519
-3.19595
-3.19598
-3.19625
-3.19663
-3.19705
-3.19742
-0.393029
-0.392973
-0.393054
-0.393149
-0.393276
-0.393442
0.649658
0.649712
0.649742
0.649751
0.649724
0.649647
-2.61953
-2.61957
-2.61978
-2.62001
-2.6203
-2.62053
-0.22619
-0.226092
-0.226228
-0.22638
-0.226585
-0.226877
1.45273
1.4528
1.45281
1.4528
1.45275
1.45257
-12.0302
-12.0302
-12.0302
-12.0301
-12.0299
-12.0298
-1.03342
-1.0334
-1.03368
-1.03398
-1.03438
-1.03479
3.06985
3.07001
3.06998
3.06992
3.06982
3.06944
-9.89016
-9.89045
-9.89106
-9.8917
-9.89215
-9.89258
-1.68197
-1.68214
-1.68279
-1.68348
-1.68434
-1.68523
5.34334
5.34367
5.34348
5.34323
5.34291
5.34213
-34.2943
-34.2953
-34.2954
-34.2955
-34.2956
-34.2959
1.11255
1.11407
1.11316
1.11224
1.1113
1.10929
7.90648
7.90677
7.90608
7.90549
7.90455
7.90344
-0.0364333
-0.0364224
-0.0364248
-0.0364347
-0.036449
-0.036466
-0.0227795
-0.022776
-0.0227797
-0.0227876
-0.0227983
-0.022811
-0.00788205
-0.00788255
-0.00788481
-0.00788815
-0.00789272
-0.00789878
-0.0389226
-0.0389175
-0.0389239
-0.0389378
-0.0389574
-0.0389822
-0.0243678
-0.0243676
-0.0243739
-0.0243843
-0.0243983
-0.0244158
-0.00843941
-0.00844076
-0.00844373
-0.00844782
-0.00845343
-0.008461
-0.0442012
-0.0442
-0.0442102
-0.0442277
-0.0442509
-0.0442782
-0.0277397
-0.0277421
-0.0277506
-0.027763
-0.0277787
-0.0277973
-0.00962066
-0.00962268
-0.00962628
-0.00963098
-0.0096371
-0.00964478
-0.0527299
-0.0527343
-0.0527494
-0.0527703
-0.0527957
-0.0528231
-0.0332095
-0.0332153
-0.0332261
-0.0332395
-0.0332553
-0.0332721
-0.011536
-0.011539
-0.011543
-0.0115478
-0.0115534
-0.0115596
-0.0652733
-0.0652847
-0.0653023
-0.0653231
-0.0653457
-0.0653674
-0.0413114
-0.0413201
-0.0413304
-0.0413415
-0.0413529
-0.0413635
-0.0143573
-0.0143603
-0.0143635
-0.0143669
-0.0143702
-0.0143732
-0.0829471
-0.0829612
-0.082976
-0.0829911
-0.0830055
-0.0830171
-0.0529243
-0.0529312
-0.0529371
-0.0529424
-0.052947
-0.05295
-0.0183132
-0.0183144
-0.0183155
-0.0183165
-0.0183172
-0.0183174
-0.107665
-0.107674
-0.107681
-0.107689
-0.107694
-0.107696
-0.0696624
-0.0696636
-0.0696642
-0.0696645
-0.069664
-0.0696618
-0.0236246
-0.0236239
-0.0236235
-0.0236232
-0.0236225
-0.0236213
-0.1437
-0.143699
-0.143699
-0.143698
-0.143696
-0.14369
-0.0946204
-0.0946158
-0.0946133
-0.0946111
-0.0946077
-0.0946026
-0.0301054
-0.0301036
-0.0301028
-0.0301021
-0.0301006
-0.0300985
-0.203125
-0.203112
-0.203103
-0.203097
-0.203089
-0.203081
-0.132464
-0.132456
-0.132452
-0.132449
-0.132446
-0.132445
-0.0357962
-0.0357943
-0.0357935
-0.0357928
-0.0357926
-0.035795
-0.317274
-0.317234
-0.317213
-0.317206
-0.317211
-0.317225
-0.188304
-0.188294
-0.188291
-0.188292
-0.188297
-0.188308
-0.0361847
-0.0361844
-0.036185
-0.0361868
-0.0361912
-0.0361981
-0.541814
-0.54179
-0.541778
-0.541775
-0.54178
-0.541792
-0.251164
-0.25116
-0.251162
-0.25117
-0.251183
-0.251197
-0.0165568
-0.0165593
-0.0165631
-0.0165689
-0.0165757
-0.0165798
-1.13683
-1.13681
-1.13683
-1.13686
-1.13691
-1.13694
-0.303322
-0.303326
-0.303336
-0.303356
-0.303378
-0.303394
0.0485516
0.0485509
0.0485445
0.0485345
0.0485263
0.0485245
)
;

boundaryField
{
    seabed_topleft_surface
    {
        type            fixedFluxPressure;
        gradient        uniform 0;
        value           nonuniform List<scalar> 
72
(
37291.1
37291.1
37291.1
37291.1
37291.1
37291.1
36160.6
36160.6
36160.6
36160.6
36160.6
36160.6
32771.7
32771.8
32771.8
32771.8
32771.8
32771.7
28536.5
28536.5
28536.5
28536.5
28536.5
28536.5
23763
23763
23763
23763
23763
23763
19176.3
19176.3
19176.4
19176.4
19176.4
19176.4
14372.7
14372.7
14372.7
14372.7
14372.7
14372.7
9805.42
9805.25
9805.25
9805.29
9805.31
9805.35
8274.52
8274.39
8274.39
8274.42
8274.43
8274.47
7706.17
7706.04
7706.07
7706.12
7706.12
7706.11
8721.2
8721.44
8721.49
8721.53
8721.46
8721.29
8167.17
8167.27
8167.33
8167.35
8167.33
8167.29
)
;
    }
    seabed_topright_surface
    {
        type            fixedFluxPressure;
        gradient        uniform 0;
        value           nonuniform List<scalar> 
72
(
-0.0676328
-0.0675796
-0.0675597
-0.0675563
-0.0675603
-0.0675649
-0.0714484
-0.0714053
-0.0713928
-0.071396
-0.0714091
-0.0714286
-0.0794189
-0.079377
-0.0793663
-0.079373
-0.0793911
-0.0794144
-0.0917992
-0.0917638
-0.0917564
-0.0917686
-0.0917922
-0.0918196
-0.108957
-0.108938
-0.108939
-0.108957
-0.108985
-0.109014
-0.131203
-0.131207
-0.131218
-0.131238
-0.131264
-0.131288
-0.158581
-0.158606
-0.158623
-0.158637
-0.158652
-0.158665
-0.191286
-0.191327
-0.191341
-0.191345
-0.191345
-0.19134
-0.22934
-0.229389
-0.229398
-0.229391
-0.229377
-0.229358
-0.271264
-0.271306
-0.271312
-0.2713
-0.271278
-0.27125
-0.312974
-0.313014
-0.313014
-0.312996
-0.312969
-0.312934
-0.346737
-0.34675
-0.346734
-0.346704
-0.346664
-0.346624
)
;
    }
    breakwater_top_surface
    {
        type            fixedFluxPressure;
        gradient        uniform 0;
        value           nonuniform List<scalar> 
36
(
-2.07688
-2.0769
-2.077
-2.07716
-2.07732
-2.07744
-3.19595
-3.19598
-3.19625
-3.19663
-3.19705
-3.19742
-2.61953
-2.61957
-2.61978
-2.62001
-2.6203
-2.62053
-12.0302
-12.0302
-12.0302
-12.0301
-12.0299
-12.0298
-9.89016
-9.89045
-9.89106
-9.8917
-9.89215
-9.89258
-34.2943
-34.2953
-34.2954
-34.2955
-34.2956
-34.2959
)
;
    }
    breakwater_left_surface
    {
        type            fixedFluxPressure;
        gradient        uniform 0;
        value           nonuniform List<scalar> 
24
(
8167.17
8167.27
8167.33
8167.35
8167.33
8167.29
3237.88
3238.01
3238.07
3238.08
3238.07
3237.92
398.381
398.402
398.412
398.423
398.436
398.373
-58.1439
-58.1499
-58.1496
-58.1514
-58.1546
-58.1634
)
;
    }
    breakwater_right_surface
    {
        type            fixedFluxPressure;
        gradient        uniform 0;
        value           nonuniform List<scalar> 
24
(
-0.346737
-0.34675
-0.346734
-0.346704
-0.346664
-0.346624
-0.404819
-0.404805
-0.404771
-0.404719
-0.404657
-0.40459
-0.42594
-0.4259
-0.425847
-0.425783
-0.425717
-0.425658
-0.578546
-0.578515
-0.578471
-0.578418
-0.578372
-0.578346
)
;
    }
    water_front_surface
    {
        type            fixedFluxPressure;
        gradient        uniform 0;
        value           nonuniform List<scalar> 
186
(
37291.1
36160.6
32771.7
28536.5
23763
19176.3
14372.7
9805.42
8274.52
7706.17
8721.2
8167.17
37254.9
35259.8
31098.2
25693.8
17736.1
11235.2
4749.88
295.992
-87.7621
33.2951
464.587
3237.88
37732.9
34143.9
24526.4
11228.9
522.354
-21.094
-16.3321
-10.594
-48.1423
-72.2125
-77.8054
398.381
39766.6
18352.1
1677.36
19.6107
22.6193
6.86497
-9.06067
-23.2592
-61.728
-89.4895
-127.15
-58.1439
-0.0676328
-0.0714484
-0.0794189
-0.0917992
-0.108957
-0.131203
-0.158581
-0.191286
-0.22934
-0.271264
-0.312974
-0.346737
-0.0641612
-0.0679531
-0.0758811
-0.0883165
-0.105843
-0.129283
-0.159839
-0.198414
-0.24448
-0.296056
-0.352163
-0.404819
-0.0575942
-0.0611807
-0.0687103
-0.0806178
-0.0975496
-0.120185
-0.148689
-0.183624
-0.228649
-0.287769
-0.35388
-0.42594
-0.0481971
-0.0513714
-0.058081
-0.0688558
-0.0846036
-0.106922
-0.138777
-0.183463
-0.242796
-0.318679
-0.421178
-0.578546
30541.5
12130.4
-6.08466
109.454
145.66
18.8354
63.8598
57.4231
12.3059
37.5879
30.7823
9.35822
16.285
12.5496
1.4745
2.32697
2.75471
-1.1645
-7.96434
-4.82711
-2.93928
-20.5396
-11.4563
-3.64557
-44.6439
-20.4505
-3.4737
-70.8321
-28.2487
-1.95904
-93.5399
-31.9417
1.12248
-18.6517
12.2116
11.3853
-2.07688
-0.38522
0.26051
-3.19595
-0.393029
0.649658
-2.61953
-0.22619
1.45273
-12.0302
-1.03342
3.06985
-9.89016
-1.68197
5.34334
-34.2943
1.11255
7.90648
-0.0364333
-0.0227795
-0.00788205
-0.0389226
-0.0243678
-0.00843941
-0.0442012
-0.0277397
-0.00962066
-0.0527299
-0.0332095
-0.011536
-0.0652733
-0.0413114
-0.0143573
-0.0829471
-0.0529243
-0.0183132
-0.107665
-0.0696624
-0.0236246
-0.1437
-0.0946204
-0.0301054
-0.203125
-0.132464
-0.0357962
-0.317274
-0.188304
-0.0361847
-0.541814
-0.251164
-0.0165568
-1.13683
-0.303322
0.0485516
)
;
    }
    water_back_surface
    {
        type            fixedFluxPressure;
        gradient        uniform 0;
        value           nonuniform List<scalar> 
186
(
37291.1
36160.6
32771.7
28536.5
23763
19176.4
14372.7
9805.35
8274.47
7706.11
8721.29
8167.29
37255
35259.9
31098.2
25694
17736.2
11235.2
4749.78
295.956
-87.7514
33.2945
464.564
3237.92
37732.9
34144
24526.9
11229.6
522.553
-21.0872
-16.3299
-10.5924
-48.1415
-72.2076
-77.795
398.373
39766.6
18352.5
1677.62
19.6131
22.6203
6.86682
-9.05829
-23.2576
-61.7292
-89.4979
-127.168
-58.1634
-0.0675649
-0.0714286
-0.0794144
-0.0918196
-0.109014
-0.131288
-0.158665
-0.19134
-0.229358
-0.27125
-0.312934
-0.346624
-0.0641533
-0.0679871
-0.0759357
-0.0884015
-0.105961
-0.129409
-0.159936
-0.198458
-0.244478
-0.296031
-0.352084
-0.40459
-0.0576076
-0.0612331
-0.0687866
-0.0807265
-0.097684
-0.120316
-0.148782
-0.183669
-0.228659
-0.287748
-0.353784
-0.425658
-0.0482229
-0.0514316
-0.0581644
-0.0689659
-0.0847281
-0.107034
-0.138851
-0.183491
-0.242779
-0.3186
-0.421027
-0.578346
30541.8
12130.6
-6.10926
109.451
145.653
18.8313
63.8588
57.4216
12.304
37.5883
30.7829
9.35757
16.2857
12.5503
1.47429
2.32948
2.75616
-1.1645
-7.96124
-4.82557
-2.93997
-20.5387
-11.4565
-3.6462
-44.6475
-20.4537
-3.47389
-70.8363
-28.2573
-1.9603
-93.5568
-31.9497
1.11946
-18.6522
12.2129
11.3798
-2.07744
-0.385356
0.260519
-3.19742
-0.393442
0.649647
-2.62053
-0.226877
1.45257
-12.0298
-1.03479
3.06944
-9.89258
-1.68523
5.34213
-34.2959
1.10929
7.90344
-0.036466
-0.022811
-0.00789878
-0.0389822
-0.0244158
-0.008461
-0.0442782
-0.0277973
-0.00964478
-0.0528231
-0.0332721
-0.0115596
-0.0653674
-0.0413635
-0.0143732
-0.0830171
-0.05295
-0.0183174
-0.107696
-0.0696618
-0.0236213
-0.14369
-0.0946026
-0.0300985
-0.203081
-0.132445
-0.035795
-0.317225
-0.188308
-0.0361981
-0.541792
-0.251197
-0.0165798
-1.13694
-0.303394
0.0485245
)
;
    }
    water_left_surface
    {
        type            fixedFluxPressure;
        gradient        uniform 0;
        value           nonuniform List<scalar> 
42
(
37291.1
37291.1
37291.1
37291.1
37291.1
37291.1
37254.9
37255
37255
37255
37255
37255
37732.9
37732.9
37732.9
37732.9
37732.9
37732.9
39766.6
39766.6
39766.6
39766.6
39766.6
39766.6
30541.5
30541.5
30541.6
30541.6
30541.5
30541.8
12130.4
12130.4
12130.5
12130.4
12130.4
12130.6
-6.08466
-6.08859
-6.09247
-6.09219
-6.09629
-6.10926
)
;
    }
    water_right_surface
    {
        type            fixedFluxPressure;
        gradient        uniform 0;
        value           nonuniform List<scalar> 
42
(
-0.0676328
-0.0675796
-0.0675597
-0.0675563
-0.0675603
-0.0675649
-0.0641612
-0.0641254
-0.0641166
-0.064121
-0.0641341
-0.0641533
-0.0575942
-0.0575671
-0.0575631
-0.0575713
-0.0575872
-0.0576076
-0.0481971
-0.0481781
-0.0481776
-0.0481875
-0.0482034
-0.0482229
-0.0364333
-0.0364224
-0.0364248
-0.0364347
-0.036449
-0.036466
-0.0227795
-0.022776
-0.0227797
-0.0227876
-0.0227983
-0.022811
-0.00788205
-0.00788255
-0.00788481
-0.00788815
-0.00789272
-0.00789878
)
;
    }
    water_top_surface
    {
        type            totalPressure;
        rho             rho;
        psi             none;
        gamma           1;
        p0              uniform 0;
        value           nonuniform List<scalar> 
180
(
0
0
0
0
0
0
-41.1121
-41.113
-41.1123
-41.112
-41.1116
-41.1096
-13.1839
-13.1841
-13.1849
-13.1861
-13.1868
-13.1866
-5.17978
-5.18034
-5.18061
-5.18095
-5.18111
-5.18087
-5.84526
-5.84576
-5.84589
-5.84604
-5.84619
-5.84603
-4.15015
-4.14981
-4.14979
-4.15004
-4.15057
-4.15116
-3.60883
-3.60834
-3.60856
-3.60916
-3.61002
-3.61094
-1.91976
-1.91948
-1.91961
-1.91985
-1.92004
-1.92032
-0.464637
-0.464436
-0.464324
-0.464159
-0.463945
-0.464021
0
0
0
0
0
0
0
0
0
0
0
0
0
0
0
0
0
0
0
0
0
0
0
0
0
0
0
0
0
0
0
0
0
0
0
0
0
0
0
0
0
0
0
0
0
0
0
0
0
0
0
0
0
0
0
0
0
0
0
0
0
0
0
0
0
0
0
0
0
0
0
0
0
0
0
0
0
0
0
0
0
0
0
0
0
0
0
0
0
0
0
0
0
0
0
0
0
0
0
0
0
0
0
0
0
0
0
0
0
0
0
0
0
0
0
0
0
0
0
0
0
0
0
0
0
0
)
;
    }
}


// ************************************************************************* //
