/*--------------------------------*- C++ -*----------------------------------*\
| =========                 |                                                 |
| \\      /  F ield         | OpenFOAM: The Open Source CFD Toolbox           |
|  \\    /   O peration     | Version:  v1612+                                |
|   \\  /    A nd           | Web:      www.OpenFOAM.com                      |
|    \\/     M anipulation  |                                                 |
\*---------------------------------------------------------------------------*/
FoamFile
{
    version     2.0;
    format      ascii;
    class       surfaceScalarField;
    location    "2.8";
    object      alphaPhi;
}
// * * * * * * * * * * * * * * * * * * * * * * * * * * * * * * * * * * * * * //

dimensions      [0 3 -1 0 0 0 0];

internalField   nonuniform List<scalar> 
2916
(
-6.10954e-06
0.471656
-0.354691
-1.31057e-06
0.471654
-0.354699
-3.37256e-06
0.471654
-0.354692
-6.94945e-06
0.471657
-0.354693
-1.70734e-06
0.471657
-0.3547
0.471648
-0.354689
-4.14612e-06
0.942246
-0.35376
-2.34691e-06
0.942246
-0.353768
-6.88759e-06
0.942247
-0.353763
-6.25171e-06
0.94225
-0.353765
4.04229e-06
0.942249
-0.353772
0.942241
-0.353762
-5.53942e-06
1.28341
-0.236714
-1.93736e-06
1.28341
-0.236724
-4.78451e-06
1.28342
-0.236719
-4.38397e-06
1.28342
-0.236719
5.55256e-06
1.28342
-0.236725
1.28341
-0.236716
-6.96758e-06
1.54685
-0.188052
-2.26452e-06
1.54686
-0.188064
-4.15082e-06
1.54686
-0.188059
-4.40624e-06
1.54686
-0.188059
4.40398e-06
1.54686
-0.188065
1.54685
-0.188054
-8.24055e-06
1.76799
-0.179485
-4.05166e-06
1.768
-0.179498
-5.64092e-06
1.768
-0.179494
-5.60895e-06
1.768
-0.179494
3.1708e-06
1.768
-0.179499
1.76798
-0.179487
-8.99249e-06
1.95254
-0.164151
-5.99158e-06
1.95256
-0.164164
-7.30898e-06
1.95255
-0.16416
-6.422e-06
1.95255
-0.164161
2.55173e-06
1.95254
-0.164167
1.95253
-0.164152
-1.09388e-05
2.08886
-0.12235
-7.76162e-06
2.08887
-0.12236
-8.59369e-06
2.08886
-0.122356
-7.21033e-06
2.08886
-0.122357
1.72582e-06
2.08885
-0.122363
2.08884
-0.12235
-9.08189e-06
2.14218
-0.0509096
-6.83965e-06
2.14219
-0.0509215
-6.82485e-06
2.14219
-0.0509179
-5.2341e-06
2.14219
-0.0509192
-1.61666e-07
2.14219
-0.0509255
2.14216
-0.0509136
-5.97497e-06
1.91479
0.227399
-3.49722e-06
1.91482
0.22737
-4.51894e-06
1.91482
0.227377
-4.64535e-06
1.91481
0.227375
-2.65949e-06
1.91482
0.227364
1.91477
0.227384
-4.68622e-06
1.22143
0.693362
2.2067e-06
1.22148
0.693338
8.04295e-07
1.22148
0.693343
-1.63827e-06
1.22147
0.693344
-2.01211e-06
1.22149
0.693336
1.22142
0.693349
3.70909e-06
0.357641
0.863791
1.53456e-06
0.357684
0.863802
3.45083e-06
0.357684
0.863794
3.0222e-06
0.357682
0.863795
-4.20101e-06
0.357705
0.863795
0.357636
0.863786
-3.1087e-05
0.344384
-2.33848e-05
0.344387
-1.36423e-05
0.344386
-3.03326e-06
0.344384
2.41402e-05
0.34439
0.344371
4.75631e-06
0.234336
-9.68647e-07
-2.10623e-06
0.234333
-9.68769e-07
-7.22251e-06
0.234336
-9.68932e-07
3.29993e-07
0.234334
-9.69104e-07
5.23809e-06
0.234331
-9.69194e-07
0.234341
-9.69083e-07
6.69002e-06
0.279346
-1.15783e-05
-1.90274e-06
0.279347
-1.15781e-05
-3.70098e-06
0.279346
-1.15784e-05
-1.19254e-07
0.279344
-1.15786e-05
-3.6381e-06
0.279343
-1.1578e-05
0.279343
-1.15783e-05
6.32326e-06
0.463185
-5.40312e-07
-9.49755e-07
0.463192
-5.40219e-07
-1.24398e-06
0.463187
-5.40177e-07
-2.6754e-07
0.463184
-5.4027e-07
-6.6679e-06
0.463186
-5.40467e-07
0.463179
-5.40548e-07
7.43121e-06
0.751539
-5.70552e-07
2.73592e-07
0.751555
-5.7043e-07
5.41211e-07
0.751548
-5.70426e-07
8.19517e-07
0.751546
-5.70275e-07
-7.35211e-06
0.751551
-5.70153e-07
0.751535
-5.70606e-07
8.28928e-06
1.07269
-5.87972e-07
1.9151e-06
1.07272
-5.87924e-07
4.14302e-06
1.07271
-5.87913e-07
4.4555e-06
1.07271
-5.87888e-07
-5.65106e-06
1.07272
-5.87829e-07
1.07269
-5.87658e-07
8.19026e-06
1.25966
-7.21139e-08
4.53703e-06
1.25971
-7.21096e-08
8.37491e-06
1.25969
-7.21084e-08
8.14857e-06
1.2597
-7.21056e-08
-7.25868e-07
1.25971
-7.21002e-08
1.25967
-7.20859e-08
1.0367e-05
1.35319
-1.16852e-08
8.39743e-06
1.35324
-1.16844e-08
1.25179e-05
1.35322
-1.16843e-08
1.15768e-05
1.35323
-1.16839e-08
3.17899e-06
1.35324
-1.1683e-08
1.35321
-1.1681e-08
1.20786e-05
1.41698
-4.77244e-09
1.26516e-05
1.41704
-4.77246e-09
1.5906e-05
1.41702
-4.77211e-09
1.36017e-05
1.41703
-4.77164e-09
4.69216e-06
1.41704
-4.77122e-09
1.41701
-4.77248e-09
1.16962e-05
1.44099
0.0265923
1.03255e-05
1.44104
0.026592
1.17371e-05
1.44103
0.0265919
9.67823e-06
1.44103
0.0265925
9.82154e-07
1.44104
0.0265928
1.44102
0.0265936
1.40352e-05
1.5457
0.229016
1.15328e-05
1.54578
0.229005
9.16152e-06
1.54576
0.229006
4.29328e-06
1.54576
0.229007
-8.18851e-06
1.54577
0.229006
1.54573
0.229008
3.38353e-05
0.993895
1.13697
1.39502e-05
0.994055
1.13692
1.15607e-05
0.994015
1.13692
6.23625e-06
0.994012
1.13693
-2.15126e-05
0.994046
1.13692
0.993931
1.13695
-7.1792e-05
1.32462
-2.26643e-05
1.32466
-3.75673e-06
1.32465
1.04573e-05
1.32465
5.62455e-05
1.32466
1.32463
-2.72653e-12
4.81295e-08
-1.03932e-06
-1.92389e-12
4.81292e-08
-1.03945e-06
-3.93686e-13
4.81327e-08
-1.03962e-06
3.71469e-12
4.81354e-08
-1.0398e-06
7.05445e-12
4.81389e-08
-1.03989e-06
4.8147e-08
-1.03978e-06
-1.80964e-11
4.9088e-07
-1.2014e-05
-1.08436e-11
4.90863e-07
-1.20138e-05
1.48897e-12
4.90867e-07
-1.20141e-05
9.41553e-12
4.90866e-07
-1.20143e-05
1.20112e-11
4.90851e-07
-1.20137e-05
4.90881e-07
-1.2014e-05
-1.63361e-12
8.48343e-08
-1.31381e-07
-5.74297e-13
8.48227e-08
-1.31301e-07
5.19619e-13
8.48191e-08
-1.31254e-07
1.18763e-12
8.48217e-08
-1.3135e-07
1.66084e-12
8.48303e-08
-1.31569e-07
8.48391e-08
-1.31625e-07
-9.67274e-13
8.92005e-08
-5.73178e-07
2.2151e-13
8.91895e-08
-5.73061e-07
9.32457e-13
8.91889e-08
-5.7306e-07
1.36146e-12
8.91777e-08
-5.72895e-07
1.99435e-12
8.91675e-08
-5.72755e-07
8.91922e-08
-5.73224e-07
-5.83201e-13
8.38016e-08
-5.81984e-07
4.71371e-13
8.37966e-08
-5.81944e-07
1.03802e-12
8.3796e-08
-5.81933e-07
1.33685e-12
8.3793e-08
-5.81916e-07
1.91013e-12
8.37867e-08
-5.81861e-07
8.37726e-08
-5.81649e-07
-8.94968e-14
1.41189e-08
-2.3226e-09
5.4189e-14
1.41179e-08
-2.32254e-09
1.41757e-13
1.41179e-08
-2.32185e-09
1.80646e-13
1.41174e-08
-2.32161e-09
2.84284e-13
1.41162e-08
-2.3214e-09
1.41139e-08
-2.31858e-09
-1.13177e-15
2.44758e-09
-1.53809e-11
1.38436e-14
2.44739e-09
-1.53873e-11
2.56663e-14
2.44739e-09
-1.53739e-11
2.74795e-14
2.44731e-09
-1.53671e-11
2.58945e-14
2.44711e-09
-1.53705e-11
2.44674e-09
-1.53354e-11
3.5236e-15
-2.34491e-09
2.02054e-11
2.95827e-15
-2.3451e-09
2.02022e-11
3.30914e-15
-2.34476e-09
2.02042e-11
1.73951e-15
-2.34437e-09
2.02066e-11
-2.72311e-15
-2.34415e-09
2.0207e-11
-2.34578e-09
2.02007e-11
1.43266e-07
0.0250212
0.0014488
9.41064e-08
0.0250213
0.00144895
7.91631e-08
0.0250211
0.00144895
2.23612e-08
0.0250216
0.00144896
-1.66157e-07
0.0250221
0.00144905
0.0250224
0.00144899
3.07876e-08
0.238269
0.0157811
-2.32869e-08
0.238257
0.0157827
-5.51999e-09
0.238257
0.0157825
-1.24119e-07
0.238259
0.0157823
-1.03073e-06
0.238259
0.0157825
0.23826
0.0157827
3.26105e-05
0.543166
0.232687
1.36478e-05
0.543229
0.232715
9.7199e-06
0.543205
0.232713
1.17877e-06
0.543204
0.232702
-2.93789e-05
0.543212
0.232706
0.543171
0.232715
-5.71813e-05
1.7142
-7.67629e-06
1.71423
8.78965e-07
1.71422
1.72484e-05
1.71422
5.46269e-05
1.71427
1.71414
-3.85741e-11
-4.56654e-07
-1.35548e-06
-1.10795e-11
-4.56809e-07
-1.35559e-06
8.18013e-12
-4.56846e-07
-1.35591e-06
1.87831e-11
-4.56907e-07
-1.35626e-06
3.66249e-11
-4.56875e-07
-1.35631e-06
-4.56638e-07
-1.35605e-06
-3.31988e-10
-6.15479e-07
-1.63183e-05
-9.2582e-11
-6.15552e-07
-1.63184e-05
1.0146e-10
-6.15591e-07
-1.63187e-05
9.15826e-11
-6.15629e-07
-1.63186e-05
1.2483e-10
-6.15619e-07
-1.63176e-05
-6.15595e-07
-1.63184e-05
-1.31167e-13
-3.42209e-07
-1.82465e-07
1.2479e-12
-3.42131e-07
-1.82448e-07
1.29264e-12
-3.42124e-07
-1.82387e-07
8.83209e-13
-3.42033e-07
-1.82589e-07
1.37505e-12
-3.41987e-07
-1.82823e-07
-3.42374e-07
-1.82626e-07
-1.6621e-12
-3.14307e-07
-6.65947e-07
9.66362e-12
-3.14264e-07
-6.65843e-07
8.71008e-12
-3.14246e-07
-6.65881e-07
7.70489e-12
-3.14235e-07
-6.65027e-07
1.81394e-11
-3.14231e-07
-6.63525e-07
-3.14234e-07
-6.66028e-07
-2.17323e-11
-3.44132e-08
-8.33371e-07
-1.2587e-11
-3.44098e-08
-8.33399e-07
-1.20011e-11
-3.44e-08
-8.33395e-07
-5.45426e-12
-3.43966e-08
-8.33322e-07
2.11628e-11
-3.43934e-08
-8.33215e-07
-3.43577e-08
-8.33286e-07
-1.12299e-13
-2.89097e-11
-3.67083e-08
-8.02306e-14
-2.89225e-11
-3.6705e-08
-8.10064e-14
-2.88872e-11
-3.66945e-08
-6.78593e-14
-2.88726e-11
-3.6691e-08
2.37612e-14
-2.88801e-11
-3.66876e-08
-2.87868e-11
-3.6649e-08
-1.86594e-16
-2.72294e-13
-4.41462e-11
-9.87099e-17
-2.72362e-13
-4.41656e-11
-6.47715e-17
-2.72294e-13
-4.41169e-11
-6.71247e-17
-2.72278e-13
-4.40954e-11
-2.51725e-17
-2.72306e-13
-4.41064e-11
-2.72085e-13
-4.39783e-11
8.95604e-18
1.93633e-11
1.77194e-14
-1.02466e-17
1.93611e-11
1.77014e-14
-1.77035e-17
1.9363e-11
1.77081e-14
-2.64407e-17
1.93651e-11
1.77185e-14
-7.65379e-17
1.93658e-11
1.77059e-14
1.93594e-11
1.77543e-14
2.23909e-09
0.00138772
9.04305e-05
-7.79956e-09
0.00138789
9.04187e-05
-8.21373e-09
0.00138787
9.04293e-05
-9.97104e-09
0.00138788
9.04325e-05
-4.99478e-08
0.00138801
9.04242e-05
0.00138784
9.04481e-05
1.27938e-07
0.0144907
0.00265277
9.47395e-08
0.0144929
0.00265251
7.858e-08
0.0144924
0.00265272
2.97388e-08
0.0144923
0.00265267
-2.08347e-07
0.0144938
0.00265173
0.0144909
0.00265418
1.61549e-06
0.155292
0.0914784
9.68439e-07
0.155328
0.0914755
8.50237e-07
0.155324
0.0914773
7.92907e-07
0.155314
0.0914762
-4.42603e-06
0.155341
0.0914601
0.155293
0.0915034
-1.55088e-06
1.65413
1.09511e-05
1.65419
5.95795e-05
1.65411
1.60751e-05
1.65419
-0.000121096
1.65441
1.65382
-1.85657e-66
2.7786e-63
-2.71298e-60
-2.43653e-66
2.78355e-63
-2.71815e-60
-2.6896e-66
2.78267e-63
-2.71776e-60
-2.42681e-66
2.78217e-63
-2.71777e-60
-1.54827e-66
2.7825e-63
-2.71867e-60
2.7761e-63
-2.71303e-60
-4.48212e-62
1.39141e-58
-6.84201e-56
-7.92144e-62
1.39289e-58
-6.84986e-56
-1.02788e-61
1.39213e-58
-6.84752e-56
-1.02256e-61
1.39177e-58
-6.84752e-56
-6.93129e-62
1.39199e-58
-6.85071e-56
1.38909e-58
-6.83919e-56
-7.65877e-58
2.8147e-54
-9.1294e-52
-1.8584e-57
2.8132e-54
-9.12476e-52
-2.65582e-57
2.81007e-54
-9.11729e-52
-2.79144e-57
2.80875e-54
-9.11673e-52
-1.99679e-57
2.80924e-54
-9.12308e-52
2.80417e-54
-9.11302e-52
-1.588e-53
3.40637e-50
-8.07151e-48
-3.62555e-53
3.39892e-50
-8.05547e-48
-4.97966e-53
3.39352e-50
-8.04708e-48
-5.16976e-53
3.3919e-50
-8.04877e-48
-3.7433e-53
3.3938e-50
-8.06028e-48
3.39076e-50
-8.06275e-48
-9.3549e-49
9.57678e-46
-6.38673e-43
-1.71933e-48
9.55429e-46
-6.37882e-43
-2.1439e-48
9.53556e-46
-6.37085e-43
-2.14923e-48
9.57663e-46
-6.41133e-43
-1.47695e-48
9.75027e-46
-6.56279e-43
9.43913e-46
-6.30239e-43
-2.48272e-43
1.34074e-40
-7.356e-38
-3.66985e-43
1.34898e-40
-7.41436e-38
-4.00214e-43
1.35239e-40
-7.44156e-38
-3.69651e-43
1.36499e-40
-7.51867e-38
-2.38018e-43
1.40154e-40
-7.72778e-38
1.34314e-40
-7.41327e-38
-3.39823e-39
1.32201e-36
-5.26959e-34
-4.145e-39
1.34999e-36
-5.39584e-34
-3.79267e-39
1.36243e-36
-5.45242e-34
-2.95614e-39
1.38008e-36
-5.52775e-34
-1.63931e-39
1.41855e-36
-5.68502e-34
1.35709e-36
-5.4435e-34
-5.25485e-36
2.23528e-33
-6.74624e-31
-4.23478e-36
2.32347e-33
-7.0444e-31
-1.62233e-36
2.35601e-33
-7.15256e-31
6.63999e-37
2.38524e-33
-7.2434e-31
1.49826e-36
2.43866e-33
-7.40207e-31
2.3085e-33
-7.0036e-31
-1.57099e-34
4.7267e-31
-1.05475e-28
8.43544e-34
4.99932e-31
-1.12352e-28
1.91762e-33
5.04506e-31
-1.13497e-28
2.46942e-33
5.03437e-31
-1.13066e-28
2.01735e-33
5.02963e-31
-1.12546e-28
4.60402e-31
-1.0245e-28
5.66551e-36
1.93628e-33
4.50651e-35
1.40281e-35
2.03461e-33
4.3027e-35
2.05703e-35
2.0531e-33
4.4426e-35
2.38251e-35
2.05289e-33
4.76352e-35
1.8676e-35
2.05758e-33
5.66765e-35
1.90492e-33
6.39442e-35
6.72059e-34
7.79606e-32
3.23738e-32
1.01876e-33
7.81375e-32
3.27613e-32
1.16618e-33
7.81961e-32
3.30377e-32
1.13866e-33
7.83002e-32
3.33328e-32
8.28129e-34
7.85324e-32
3.37269e-32
7.88384e-32
3.4241e-32
1.17857e-31
3.73821e-29
9.21751e-32
3.76293e-29
4.02341e-32
3.76805e-29
-3.36941e-33
3.77048e-29
-2.49367e-32
3.77601e-29
3.78084e-29
-1.97484e-63
2.82491e-60
-2.08809e-57
-2.50224e-63
2.82934e-60
-2.09211e-57
-2.55442e-63
2.82815e-60
-2.09179e-57
-2.09506e-63
2.82747e-60
-2.09177e-57
-1.15452e-63
2.8278e-60
-2.09243e-57
2.82136e-60
-2.08806e-57
-7.72483e-59
1.41697e-55
-5.22736e-53
-1.02957e-58
1.41861e-55
-5.23548e-53
-1.06913e-58
1.41778e-55
-5.23412e-53
-9.00413e-59
1.41733e-55
-5.23399e-53
-5.18424e-59
1.41746e-55
-5.23596e-53
1.4144e-55
-5.22632e-53
-1.92996e-54
2.7924e-51
-6.7165e-49
-2.64696e-54
2.79316e-51
-6.72153e-49
-2.75929e-54
2.79055e-51
-6.71816e-49
-2.38758e-54
2.7892e-51
-6.71765e-49
-1.47907e-54
2.78937e-51
-6.72098e-49
2.78372e-51
-6.71099e-49
-3.09658e-50
3.19621e-47
-5.55904e-45
-4.20935e-50
3.19409e-47
-5.5599e-45
-4.31652e-50
3.19017e-47
-5.55674e-45
-3.7218e-50
3.18847e-47
-5.55717e-45
-2.36362e-50
3.18919e-47
-5.56212e-45
3.1842e-47
-5.55831e-45
-4.10625e-45
3.02011e-42
-2.13688e-39
-5.22658e-45
3.01808e-42
-2.13895e-39
-5.06533e-45
3.01139e-42
-2.13614e-39
-4.2539e-45
3.02579e-42
-2.14873e-39
-2.5326e-45
3.0904e-42
-2.19885e-39
2.95794e-42
-2.10054e-39
-6.84944e-40
4.13479e-37
-1.93111e-34
-7.68894e-40
4.1502e-37
-1.94313e-34
-6.50644e-40
4.15194e-37
-1.9462e-34
-4.73738e-40
4.18269e-37
-1.96211e-34
-2.49894e-40
4.28525e-37
-2.01117e-34
4.09348e-37
-1.92244e-34
-6.26035e-36
3.89762e-33
-1.21563e-30
-4.93161e-36
3.94061e-33
-1.23337e-30
-1.93257e-36
3.95566e-33
-1.23957e-30
5.43515e-37
3.99267e-33
-1.25174e-30
1.38824e-36
4.09219e-33
-1.28282e-30
3.90534e-33
-1.22428e-30
-4.46745e-33
6.91792e-30
-1.44279e-27
4.77135e-33
7.05251e-30
-1.47741e-27
1.50069e-32
7.09283e-30
-1.48729e-27
2.03718e-32
7.15428e-30
-1.49974e-27
1.70956e-32
7.30643e-30
-1.52962e-27
6.92862e-30
-1.44824e-27
2.50158e-30
1.67462e-27
-2.41444e-25
6.95967e-30
1.72033e-27
-2.49311e-25
1.02061e-29
1.72287e-27
-2.49756e-25
1.1056e-29
1.72067e-27
-2.48815e-25
8.36297e-30
1.73072e-27
-2.49289e-25
1.60668e-27
-2.30146e-25
3.86955e-32
8.5334e-30
1.05601e-30
5.88373e-32
8.74217e-30
1.07684e-30
6.25922e-32
8.76663e-30
1.08931e-30
5.0424e-32
8.78329e-30
1.10696e-30
2.99205e-32
8.8774e-30
1.14098e-30
8.31566e-30
1.09591e-30
6.70412e-31
1.38522e-28
1.10112e-28
6.53509e-31
1.38977e-28
1.1108e-28
3.90082e-31
1.39389e-28
1.11605e-28
9.9501e-32
1.39939e-28
1.12085e-28
-9.52874e-32
1.4073e-28
1.12713e-28
1.41522e-28
1.13325e-28
-1.85809e-28
7.82984e-26
-3.84132e-28
7.86931e-26
-5.2496e-28
7.88034e-26
-5.42843e-28
7.88504e-26
-4.22024e-28
7.8966e-26
7.88919e-26
-5.15006e-61
1.06176e-57
-5.52551e-55
-6.4195e-61
1.06357e-57
-5.53632e-55
-6.13297e-61
1.06327e-57
-5.53562e-55
-4.45078e-61
1.06315e-57
-5.53567e-55
-1.90349e-61
1.06344e-57
-5.53748e-55
1.06122e-57
-5.52591e-55
-2.20193e-56
5.29782e-53
-1.35942e-50
-2.67205e-56
5.30581e-53
-1.36185e-50
-2.436e-56
5.30393e-53
-1.36161e-50
-1.69852e-56
5.30324e-53
-1.36163e-50
-6.85406e-57
5.30471e-53
-1.36212e-50
5.2943e-53
-1.3595e-50
-5.34818e-52
1.00913e-48
-1.65944e-46
-6.24495e-52
1.01021e-48
-1.66178e-46
-5.43555e-52
1.00971e-48
-1.66133e-46
-3.69323e-52
1.00953e-48
-1.66131e-46
-1.54155e-52
1.00984e-48
-1.66201e-46
1.00802e-48
-1.65916e-46
-7.35632e-48
1.09118e-44
-1.26687e-42
-8.01062e-48
1.09184e-44
-1.26841e-42
-6.40126e-48
1.0912e-44
-1.26807e-42
-3.89369e-48
1.09105e-44
-1.26818e-42
-1.3937e-48
1.09155e-44
-1.26898e-42
1.08999e-44
-1.26736e-42
-3.88324e-42
5.08634e-39
-3.36273e-36
-3.53907e-42
5.08915e-39
-3.36834e-36
-2.10827e-42
5.08014e-39
-3.36368e-36
-6.22671e-43
5.10727e-39
-3.38263e-36
3.09819e-43
5.22218e-39
-3.45926e-36
4.98232e-39
-3.29841e-36
-2.8263e-37
5.06881e-34
-2.01797e-31
-8.38258e-38
5.08381e-34
-2.02716e-31
1.90096e-37
5.08393e-34
-2.02784e-31
3.68626e-37
5.11998e-34
-2.04214e-31
3.51582e-37
5.24257e-34
-2.09003e-31
5.0046e-34
-1.99411e-31
1.74591e-33
3.15433e-30
-8.98952e-28
5.14984e-33
3.17441e-30
-9.06737e-28
7.79473e-33
3.18029e-30
-9.08552e-28
8.56462e-33
3.20712e-30
-9.15762e-28
6.52669e-33
3.28529e-30
-9.36947e-28
3.13626e-30
-8.93137e-28
1.21833e-29
4.17586e-27
-8.71702e-25
2.04696e-29
4.21484e-27
-8.82257e-25
2.43109e-29
4.22513e-27
-8.8412e-25
2.32246e-29
4.25988e-27
-8.90143e-25
1.60296e-29
4.35641e-27
-9.0792e-25
4.14834e-27
-8.61739e-25
6.69009e-27
1.25932e-24
-1.69762e-22
9.2714e-27
1.27024e-24
-1.71394e-22
9.43429e-27
1.27052e-24
-1.71272e-22
7.82025e-27
1.27553e-24
-1.71135e-22
4.64304e-27
1.29791e-24
-1.73315e-22
1.22826e-24
-1.62969e-22
1.17837e-25
2.49045e-23
-3.39877e-21
1.40283e-25
2.44011e-23
-3.31109e-21
1.16148e-25
2.30615e-23
-3.08682e-21
7.40384e-26
2.15898e-23
-2.85331e-21
2.85581e-26
1.84978e-23
-2.1909e-21
1.70103e-23
-2.11611e-21
2.8998e-28
2.22126e-25
4.10479e-25
-4.63843e-28
2.22631e-25
4.11595e-25
-1.32458e-27
2.19802e-25
4.05838e-25
-1.76895e-27
2.16461e-25
3.98829e-25
-1.50468e-27
2.10989e-25
3.88197e-25
2.02941e-25
3.72905e-25
-1.72307e-25
5.21145e-23
-2.83076e-25
5.23356e-23
-3.30234e-25
5.23866e-23
-3.02046e-25
5.23899e-23
-1.51785e-25
5.23688e-23
5.2341e-23
-5.54069e-59
1.75204e-55
-5.11031e-53
-5.99168e-59
1.75503e-55
-5.12035e-53
-4.56753e-59
1.75468e-55
-5.11977e-53
-2.17843e-59
1.75469e-55
-5.11989e-53
8.54979e-61
1.75537e-55
-5.12161e-53
1.75186e-55
-5.11091e-53
-2.54128e-54
8.62941e-51
-1.22061e-48
-2.2804e-54
8.64331e-51
-1.22294e-48
-1.22477e-54
8.64151e-51
-1.22279e-48
-4.51381e-56
8.64177e-51
-1.22282e-48
6.74362e-55
8.64539e-51
-1.22325e-48
8.62917e-51
-1.22083e-48
-5.25084e-50
1.57538e-46
-1.39226e-44
-3.68291e-50
1.57761e-46
-1.3947e-44
-6.77302e-51
1.57727e-46
-1.39448e-44
1.98096e-50
1.57737e-46
-1.39451e-44
2.83539e-50
1.57811e-46
-1.39501e-44
1.57537e-46
-1.3924e-44
-3.86757e-46
1.59977e-42
-9.64214e-41
-6.72271e-47
1.60176e-42
-9.6583e-41
3.70396e-46
1.60147e-42
-9.65709e-41
6.59933e-46
1.60173e-42
-9.65774e-41
6.1964e-46
1.6027e-42
-9.66202e-41
1.60028e-42
-9.6457e-41
4.38248e-40
5.40086e-36
-3.16905e-33
2.46009e-39
5.40696e-36
-3.17443e-33
4.24005e-39
5.39856e-36
-3.16945e-33
4.98845e-39
5.42845e-36
-3.18658e-33
4.00063e-39
5.55023e-36
-3.25668e-33
5.28961e-36
-3.10274e-33
2.8215e-34
4.27723e-31
-1.23321e-28
5.31224e-34
4.28693e-31
-1.23668e-28
6.7738e-34
4.2841e-31
-1.23565e-28
6.85623e-34
4.31185e-31
-1.24323e-28
4.98941e-34
4.41096e-31
-1.2709e-28
4.20673e-31
-1.21131e-28
3.33338e-30
2.71246e-27
-4.23116e-25
5.26602e-30
2.72226e-27
-4.24825e-25
6.0187e-30
2.72203e-27
-4.24648e-25
5.64749e-30
2.74092e-27
-4.27392e-25
3.87412e-30
2.8037e-27
-4.36752e-25
2.67434e-27
-4.16198e-25
6.23889e-27
3.98124e-24
-3.28483e-22
8.67658e-27
3.99962e-24
-3.30009e-22
8.91288e-27
3.99905e-24
-3.29764e-22
7.71785e-27
4.02576e-24
-3.31762e-22
4.88851e-27
4.11353e-24
-3.38522e-22
3.92058e-24
-3.22273e-22
1.82595e-24
1.37091e-21
-5.48319e-20
1.91663e-24
1.37469e-21
-5.47283e-20
1.34323e-24
1.37478e-21
-5.48826e-20
7.0386e-25
1.37938e-21
-5.47701e-20
7.40572e-26
1.4078e-21
-5.59856e-20
1.33972e-21
-5.32602e-20
2.59661e-23
2.25054e-19
-6.93246e-18
-1.65375e-22
2.24746e-19
-6.90745e-18
-3.85997e-22
2.22178e-19
-6.73161e-18
-4.03441e-22
2.22364e-19
-6.81306e-18
-4.31554e-22
1.90878e-19
-4.43492e-18
2.16638e-19
-6.59559e-18
-1.39503e-23
3.80999e-21
3.06185e-21
-1.36501e-23
3.81324e-21
3.06571e-21
-2.47385e-23
2.45362e-21
1.31981e-19
-1.58969e-23
3.77624e-21
3.04138e-21
-1.60923e-23
2.89152e-21
2.4954e-19
3.67157e-21
2.96278e-21
-3.35211e-25
2.00405e-22
-3.26209e-25
2.00807e-22
-3.38223e-25
1.80349e-22
-1.52616e-25
1.99888e-22
-3.58925e-25
1.63982e-22
1.96889e-22
3.817e-12
-7.00829e-07
4.63299e-08
1.49798e-11
-7.00794e-07
4.63449e-08
5.58848e-12
-7.01022e-07
4.63445e-08
-6.26807e-12
-7.01303e-07
4.63574e-08
7.13584e-13
-7.01403e-07
4.63844e-08
-7.01333e-07
4.63372e-08
4.97187e-12
9.05155e-15
3.41973e-08
2.10106e-12
9.91481e-15
3.4184e-08
-8.24231e-13
1.0177e-14
3.41921e-08
-3.34452e-12
9.95072e-15
3.41934e-08
-5.39567e-12
9.89208e-15
3.41771e-08
1.01281e-14
3.4195e-08
-9.97513e-20
-1.08333e-16
-2.89261e-20
-1.18649e-16
1.47981e-20
-1.21789e-16
4.7252e-20
-1.19084e-16
1.18739e-19
-1.18381e-16
-1.2121e-16
6.58042e-11
-7.26833e-06
5.01651e-07
-1.93473e-11
-7.26813e-06
5.01628e-07
-8.53085e-11
-7.26853e-06
5.01615e-07
-1.08164e-10
-7.26836e-06
5.01539e-07
-1.22937e-10
-7.2673e-06
5.0152e-07
-7.26835e-06
5.01571e-07
5.53395e-11
5.40707e-14
2.14925e-07
-5.19771e-12
5.92241e-14
2.14918e-07
-4.69303e-11
6.0794e-14
2.14939e-07
-6.83267e-11
5.94415e-14
2.14931e-07
-1.09948e-10
5.90908e-14
2.14876e-07
6.05061e-14
2.1492e-07
-5.37418e-19
-7.98908e-16
-1.74161e-19
-8.74973e-16
7.22375e-20
-8.98199e-16
3.14093e-19
-8.78249e-16
7.91304e-19
-8.7309e-16
-8.94042e-16
3.20344e-12
-1.80971e-07
-1.9963e-08
8.42094e-13
-1.80965e-07
-1.99685e-08
-1.08963e-12
-1.80912e-07
-1.99693e-08
-2.89338e-12
-1.8108e-07
-1.9956e-08
-4.54017e-12
-1.81271e-07
-1.9939e-08
-1.81099e-07
-1.99507e-08
1.74875e-12
3.40293e-13
-2.1362e-09
9.20419e-13
3.72736e-13
-1.58443e-09
4.35684e-13
3.82607e-13
-1.73537e-09
-4.05643e-13
3.74095e-13
-1.00517e-09
-2.47778e-12
3.71894e-13
-6.20253e-10
3.80773e-13
-2.56333e-09
-3.23077e-18
-1.13251e-14
-1.22941e-18
-1.24042e-14
1.24664e-19
-1.2733e-14
1.55893e-18
-1.245e-14
4.54386e-18
-1.23769e-14
-1.26731e-14
7.88051e-12
-2.84559e-07
7.76005e-08
-4.28177e-12
-2.84431e-07
7.75921e-08
-1.31973e-11
-2.84477e-07
7.75963e-08
-1.96867e-11
-2.80445e-07
7.74182e-08
-2.47716e-11
-2.71446e-07
7.71187e-08
-2.84622e-07
7.75783e-08
2.34798e-13
2.95471e-13
8.54874e-10
1.58434e-13
3.23622e-13
8.34935e-10
9.28079e-14
3.32181e-13
8.40228e-10
-2.43788e-14
3.25047e-13
8.1471e-10
-2.74393e-13
3.23077e-13
7.99607e-10
3.30564e-13
8.70192e-10
-3.43355e-18
-3.96764e-15
-1.56408e-18
-4.34522e-15
-6.39069e-19
-4.46011e-15
5.39827e-19
-4.36074e-15
3.70527e-18
-4.33497e-15
-4.43866e-15
5.13912e-12
-3.70307e-07
9.34914e-08
-6.60733e-12
-3.70336e-07
9.35001e-08
-1.48597e-11
-3.70319e-07
9.34879e-08
-1.95357e-11
-3.7041e-07
9.34709e-08
-2.34416e-11
-3.70586e-07
9.34547e-08
-3.70221e-07
9.34516e-08
7.83066e-12
6.25645e-15
-3.97829e-10
5.0995e-12
6.86071e-15
-3.97424e-10
2.14903e-12
7.05245e-15
-3.97342e-10
-1.39668e-12
6.8925e-15
-3.96716e-10
-7.5082e-12
6.84719e-15
-3.96533e-10
6.90446e-15
-3.97134e-10
-7.15042e-20
1.44872e-21
-3.22606e-20
1.4301e-21
-1.51194e-20
1.44321e-21
1.12792e-20
1.45315e-21
8.79384e-20
1.4472e-21
1.49474e-21
5.29937e-13
-2.41463e-09
4.5834e-11
2.85395e-13
-2.41728e-09
4.58556e-11
6.41214e-14
-2.41733e-09
4.58058e-11
-2.28956e-13
-2.41686e-09
4.57852e-11
-1.04344e-12
-2.41462e-09
4.57968e-11
-2.41537e-09
4.56628e-11
1.81569e-14
3.90131e-19
1.6454e-16
1.0212e-14
3.85077e-19
1.63858e-16
4.76532e-15
3.88482e-19
1.64396e-16
-9.11709e-16
3.91065e-19
1.6479e-16
-1.08161e-14
3.89397e-19
1.64496e-16
4.02103e-19
1.66451e-16
-2.85175e-24
7.30417e-19
2.39398e-25
7.21534e-19
1.29282e-24
7.2755e-19
1.93948e-24
7.32137e-19
4.73123e-24
7.29328e-19
7.51579e-19
-1.39416e-15
2.73999e-15
1.76754e-12
-8.7816e-16
2.7287e-15
1.76802e-12
-7.92505e-16
2.73771e-15
1.76709e-12
2.36671e-16
2.74446e-15
1.76702e-12
2.03122e-15
2.73918e-15
1.76698e-12
2.77232e-15
1.76451e-12
-1.72603e-21
2.71327e-17
1.66904e-14
1.09111e-20
2.6803e-17
1.6618e-14
9.45767e-21
2.70252e-17
1.66691e-14
-1.00227e-20
2.71938e-17
1.67081e-14
-5.65895e-20
2.70884e-17
1.66679e-14
2.79114e-17
1.68863e-14
-1.42016e-22
-1.78306e-21
4.63245e-23
-1.91079e-21
1.89649e-22
-1.85012e-21
2.97995e-22
-1.74098e-21
4.99117e-22
-1.78522e-21
-1.39366e-21
5.49175e-19
2.73956e-13
1.57861e-12
2.60036e-19
2.72707e-13
1.58041e-12
4.53943e-19
2.73486e-13
1.57864e-12
3.80504e-19
2.74086e-13
1.57793e-12
1.28021e-18
2.73293e-13
1.57872e-12
2.77178e-13
1.57217e-12
3.00684e-18
1.19769e-14
8.12931e-13
5.2676e-18
1.19092e-14
8.09118e-13
9.20377e-18
1.1957e-14
8.11399e-13
5.17926e-18
1.19914e-14
8.13075e-13
-1.42054e-18
1.19605e-14
8.10484e-13
1.21442e-14
8.22407e-13
-2.21901e-20
-5.44891e-16
2.23541e-19
-5.41822e-16
3.59396e-19
-5.43832e-16
3.49424e-19
-5.45208e-16
5.66859e-19
-5.43998e-16
-5.52007e-16
4.00478e-10
1.13506e-12
9.05063e-05
7.27848e-10
1.13006e-12
9.04949e-05
5.78111e-10
1.13272e-12
9.05056e-05
-2.22701e-12
1.13448e-12
9.05095e-05
-2.36497e-09
1.12972e-12
9.05047e-05
1.1494e-12
9.0519e-05
-1.88027e-16
4.67924e-12
-2.45895e-12
5.54511e-18
4.65654e-12
-2.4475e-12
1.27708e-16
4.66913e-12
-2.4535e-12
-4.83143e-17
4.67773e-12
-2.4585e-12
-2.0098e-16
4.66225e-12
-2.45487e-12
4.73163e-12
-2.48136e-12
1.06734e-17
-9.94763e-13
1.70192e-16
-9.89826e-13
3.0314e-16
-9.9264e-13
1.37078e-16
-9.94133e-13
2.00529e-16
-9.91732e-13
-1.00484e-12
1.9524e-08
0.00023382
0.00250262
1.75502e-08
0.000233577
0.00250261
3.27334e-08
0.000233791
0.00250261
4.1685e-08
0.000233686
0.00250266
-3.26213e-08
0.0002326
0.00250289
0.00023515
0.0025027
1.77425e-09
7.91337e-06
0.000226055
6.62205e-10
7.91123e-06
0.000225818
7.35326e-10
7.91247e-06
0.000226029
1.46691e-10
7.91637e-06
0.000225921
-1.36362e-08
7.92218e-06
0.000224846
7.90734e-06
0.000227375
5.68285e-11
7.92546e-06
-1.98381e-11
7.92344e-06
-4.53467e-11
7.92466e-06
-6.99977e-11
7.9284e-06
-4.43963e-10
7.93434e-06
7.91931e-06
3.92449e-07
0.00905422
0.0848877
5.55691e-07
0.00904377
0.0848955
4.2466e-07
0.00905397
0.0848873
2.92746e-07
0.00904545
0.0848948
2.00027e-06
0.00898632
0.0849363
0.00912698
0.0848423
6.88657e-08
0.000583275
0.00869436
7.39343e-08
0.00058322
0.00868379
1.1558e-07
0.000583291
0.0086941
6.21601e-08
0.000583346
0.00868549
-3.80222e-07
0.000583093
0.0086259
0.000583823
0.0087676
1.98083e-09
0.000552418
1.46807e-11
0.00055236
7.90175e-11
0.000552433
-3.76474e-09
0.000552484
-9.80882e-09
0.000552207
0.000552982
4.07664e-05
0.37868
1.15664
2.43768e-05
0.378693
1.15672
-9.64367e-05
0.378754
1.15673
3.48769e-05
0.378487
1.15677
0.000548653
0.37768
1.15708
0.379638
1.15639
9.95821e-06
0.0199592
0.3505
-7.70229e-07
0.0199522
0.350487
-7.56805e-06
0.0199589
0.35064
4.08823e-06
0.0199653
0.350174
-8.10067e-06
0.0199465
0.348789
0.0199973
0.352335
-9.62518e-08
0.0150844
5.12401e-07
0.0150788
2.72145e-07
0.0150828
1.89003e-07
0.0150908
2.29272e-06
0.0150874
0.0150988
3.06505e-14
8.46598e-11
-8.44876e-11
-2.29348e-14
-2.82294e-14
8.63322e-11
-8.60841e-11
-2.28683e-14
5.6827e-14
8.98525e-11
-8.96915e-11
-2.3033e-14
-3.12182e-14
8.83726e-11
-8.80772e-11
-2.27104e-14
-8.20808e-13
9.45924e-11
-9.35315e-11
-3.87601e-14
8.30072e-11
-8.32153e-11
-2.41872e-14
9.55436e-14
3.25887e-12
3.6486e-09
-3.56959e-09
3.5656e-14
3.35355e-12
3.68065e-09
-3.59997e-09
2.11075e-13
3.29086e-12
3.71567e-09
-3.63161e-09
7.9715e-15
3.78324e-12
3.98753e-09
-3.64871e-09
-7.57511e-13
4.38792e-12
4.05946e-09
-3.65831e-09
2.5981e-12
3.49514e-09
-3.41732e-09
-3.98736e-17
3.24655e-12
-6.4369e-164
-1.09945e-17
3.34069e-12
-1.0234e-159
1.06324e-18
3.27842e-12
-4.02679e-154
-4.22085e-17
3.76854e-12
-1.19126e-149
-5.18989e-17
4.36949e-12
-2.87627e-135
2.58898e-12
-8.34206e-163
-6.09026e-10
4.13599e-07
-4.1918e-07
-4.10351e-10
4.14708e-07
-4.21214e-07
-1.72206e-09
4.16208e-07
-4.2146e-07
8.0633e-11
4.16759e-07
-4.25022e-07
6.09122e-09
4.13589e-07
-4.26475e-07
4.16532e-07
-4.16539e-07
1.41373e-11
2.6333e-08
3.90875e-07
1.77206e-12
2.6269e-08
3.92105e-07
7.37365e-12
2.64601e-08
3.9343e-07
1.53248e-12
2.65546e-08
3.94268e-07
-2.68176e-11
2.65609e-08
3.91164e-07
2.63352e-08
3.93637e-07
2.36653e-06
-0.00370955
1.13133e-06
-0.003721
3.04572e-06
-0.00371406
1.21194e-06
-0.00372294
-7.98437e-06
-0.00376248
-0.00367018
-8.16924e-08
-0.00116291
0.000856132
-7.62522e-08
-0.00116633
0.000855243
-1.25409e-07
-0.00116562
0.00085684
-2.00281e-08
-0.00117413
0.000859977
9.21052e-08
-0.00117718
0.00086032
-0.00115653
0.000860058
6.57591e-06
0.0646322
-0.119811
4.25837e-06
0.064709
-0.119839
-1.43603e-06
0.0646491
-0.119772
-7.28879e-06
0.0647557
-0.119952
3.75644e-06
0.0650286
-0.120429
0.0642783
-0.119204
6.03325e-05
-0.240045
2.83658e-05
-0.240274
5.62847e-05
-0.240085
1.57455e-06
-0.240367
-0.000188495
-0.241296
-0.23908
2.03605e-06
-0.0146462
-0.0110396
1.84549e-06
-0.0146778
-0.0109838
-5.47484e-07
-0.014676
-0.0109864
1.14665e-06
-0.014628
-0.0111244
7.83129e-06
-0.0145215
-0.0113062
-0.0147839
-0.0108494
0.000151638
0.360527
-0.722489
5.37207e-05
0.361112
-0.722617
0.000113098
0.360711
-0.722437
-1.13706e-05
0.360941
-0.722725
-0.000467103
0.362017
-0.723929
0.35937
-0.72144
0.000135832
-0.316361
1.78622e-05
-0.316945
5.46087e-05
-0.316606
2.29061e-06
-0.316458
-0.000360935
-0.316807
-0.31599
5.87696e-05
0.23611
-0.448502
4.42696e-05
0.236185
-0.448428
9.17782e-05
0.236117
-0.448434
3.4408e-05
0.236187
-0.448634
-0.00016468
0.236628
-0.449342
0.235813
-0.44804
0.000128291
0.284227
-0.972302
5.63914e-05
0.284559
-0.972467
0.000129329
0.284335
-0.972282
-6.41831e-06
0.284415
-0.972478
-0.000413726
0.28496
-0.97381
0.283793
-0.971326
6.94741e-06
-0.0543015
-9.85104e-07
-0.0543455
-2.70513e-06
-0.0543359
3.08872e-06
-0.0542469
6.62232e-06
-0.0541009
-0.0545094
1.94979e-05
0.584191
6.26745e-05
0.584308
0.000151704
0.584271
0.000119939
0.58422
-0.000389412
0.58434
0.584344
2.39086e-05
0.0468121
1.23316e-05
0.0468682
6.44901e-05
0.0468525
1.4956e-05
0.046747
-0.000246368
0.0465858
0.0470341
8.27021e-07
2.55838e-07
-1.11674e-06
1.87548e-08
8.28041e-06
-6.01817e-58
-1.03648e-54
9.08738e-54
-7.01254e-58
-1.03865e-54
9.10507e-54
-3.53129e-58
-1.03863e-54
9.10447e-54
2.33937e-58
-1.03867e-54
9.10522e-54
5.59788e-58
-1.03896e-54
9.10901e-54
-1.03671e-54
9.09059e-54
2.26558e-60
-4.5441e-58
1.00057e-55
-5.86104e-61
-4.55416e-58
1.00266e-55
8.42991e-62
-4.55402e-58
1.00268e-55
2.04951e-60
-4.55422e-58
1.00276e-55
1.83785e-60
-4.55559e-58
1.00309e-55
-4.54532e-58
1.00095e-55
-9.0309e-65
1.20057e-59
-5.76003e-64
1.20323e-59
-4.35377e-64
1.20324e-59
-4.28194e-64
1.20334e-59
-5.96214e-64
1.20376e-59
1.20108e-59
-3.37028e-53
-5.03736e-50
4.32179e-49
-9.28999e-54
-5.04762e-50
4.33033e-49
3.12823e-53
-5.04758e-50
4.3302e-49
6.10027e-53
-5.04777e-50
4.33074e-49
6.15093e-53
-5.0491e-50
4.33263e-49
-5.03878e-50
4.32426e-49
1.25084e-55
-2.55342e-53
9.73546e-51
3.94638e-55
-2.5589e-53
9.75557e-51
7.70265e-55
-2.55884e-53
9.75602e-51
9.2685e-55
-2.55893e-53
9.75697e-51
6.81993e-55
-2.55964e-53
9.76007e-51