/*--------------------------------*- C++ -*----------------------------------*\
| =========                 |                                                 |
| \\      /  F ield         | OpenFOAM: The Open Source CFD Toolbox           |
|  \\    /   O peration     | Version:  v1612+                                |
|   \\  /    A nd           | Web:      www.OpenFOAM.com                      |
|    \\/     M anipulation  |                                                 |
\*---------------------------------------------------------------------------*/
FoamFile
{
    version     2.0;
    format      ascii;
    class       volVectorField;
    location    "2.8";
    object      U;
}
// * * * * * * * * * * * * * * * * * * * * * * * * * * * * * * * * * * * * * //

dimensions      [0 1 -1 0 0 0 0];

internalField   nonuniform List<vector> 
1116
(
(0.46802 -1.19243e-05 -0.464717)
(0.468012 1.55961e-06 -0.464738)
(0.468013 -5.15664e-06 -0.464726)
(0.468023 -1.44758e-06 -0.464726)
(0.468023 -1.12643e-05 -0.464741)
(0.467999 6.549e-06 -0.464721)
(1.52347 -9.1187e-06 -0.345969)
(1.52347 2.7616e-06 -0.345998)
(1.52347 -8.90654e-06 -0.345985)
(1.52348 -5.13958e-06 -0.345986)
(1.52348 -6.02373e-06 -0.346004)
(1.52346 1.2505e-05 -0.34598)
(2.37126 -9.02626e-06 -0.139133)
(2.37127 2.32253e-07 -0.139163)
(2.37127 -5.47242e-06 -0.139152)
(2.37128 -5.06674e-06 -0.139152)
(2.37128 -2.39072e-06 -0.139167)
(2.37126 1.19755e-05 -0.139141)
(2.98694 -9.67358e-06 -0.0526483)
(2.98696 -2.05132e-06 -0.0526746)
(2.98696 -3.78958e-06 -0.0526643)
(2.98696 -5.23822e-06 -0.0526645)
(2.98697 -2.17388e-06 -0.0526757)
(2.98694 9.72115e-06 -0.0526518)
(3.44165 -1.03374e-05 -0.0553401)
(3.44168 -3.97731e-06 -0.0553598)
(3.44169 -5.69684e-06 -0.0553521)
(3.44168 -6.29776e-06 -0.0553528)
(3.44168 -3.34868e-06 -0.0553618)
(3.44165 8.5161e-06 -0.05534)
(3.80919 -1.07159e-05 -0.0564941)
(3.80923 -5.18806e-06 -0.0565083)
(3.80923 -8.49376e-06 -0.0565027)
(3.80923 -6.93792e-06 -0.056504)
(3.80922 -4.21792e-06 -0.0565126)
(3.80919 8.31222e-06 -0.0564906)
(4.12287 -1.25887e-05 -0.000396715)
(4.12291 -7.20752e-06 -0.000403869)
(4.12291 -1.02399e-05 -0.000400176)
(4.12291 -7.76763e-06 -0.000401738)
(4.1229 -5.13984e-06 -0.000410665)
(4.12286 8.05691e-06 -0.000390125)
(4.37225 -1.17163e-05 0.136493)
(4.37227 -6.00629e-06 0.136481)
(4.37227 -8.75991e-06 0.136486)
(4.37227 -5.54541e-06 0.136484)
(4.37225 -5.74752e-06 0.136472)
(4.37221 5.82e-06 0.136495)
(4.41315 -9.39587e-06 0.515183)
(4.4132 -2.79655e-06 0.515168)
(4.41319 -5.34842e-06 0.515173)
(4.41319 -3.84506e-06 0.515172)
(4.4132 -7.01059e-06 0.51516)
(4.41312 2.81172e-06 0.515182)
(3.72265 -9.86884e-06 1.04188)
(3.72275 1.06088e-06 1.04188)
(3.72273 1.77523e-06 1.04188)
(3.72272 2.39531e-08 1.04188)
(3.72274 -4.77386e-06 1.04187)
(3.72263 1.73263e-06 1.04188)
(1.84471 9.22977e-07 1.04816)
(1.84482 5.01806e-06 1.0482)
(1.84482 -7.78645e-07 1.04818)
(1.84481 7.73055e-06 1.04818)
(1.84485 -3.62569e-06 1.04818)
(1.84469 -2.50495e-06 1.04815)
(-0.0520301 -2.61163e-05 -0.00647392)
(-0.0519438 -3.25684e-05 -0.00648511)
(-0.0519469 -1.51673e-05 -0.00648269)
(-0.051948 -1.64862e-05 -0.00648944)
(-0.0518909 1.34951e-05 -0.00649325)
(-0.0520367 2.83306e-05 -0.00649672)
(0.139351 2.28021e-05 -1.68519)
(0.13932 -5.6347e-06 -1.68522)
(0.139352 -3.72679e-06 -1.6852)
(0.139333 -2.19108e-05 -1.68521)
(0.13931 2.43034e-05 -1.68524)
(0.139397 -4.76623e-06 -1.6852)
(1.72931 5.14369e-05 -1.91353)
(1.72932 -9.11424e-06 -1.91356)
(1.72933 -2.93537e-06 -1.91354)
(1.72932 -2.0128e-05 -1.91356)
(1.72932 1.95572e-05 -1.91359)
(1.72933 -4.00802e-05 -1.91354)
(2.85071 5.17572e-05 -1.44954)
(2.85076 -4.73858e-06 -1.44958)
(2.85073 -1.31763e-06 -1.44956)
(2.85074 -7.57066e-06 -1.44957)
(2.85077 5.1945e-06 -1.4496)
(2.8507 -4.93866e-05 -1.44955)
(3.58945 4.54218e-05 -1.08632)
(3.58954 1.71206e-06 -1.08637)
(3.58949 9.18425e-07 -1.08635)
(3.5895 2.87391e-06 -1.08635)
(3.58955 1.53317e-06 -1.08638)
(3.58944 -4.35194e-05 -1.08633)
(4.1855 3.75127e-05 -0.877954)
(4.18562 5.07349e-06 -0.878001)
(4.18556 6.35271e-06 -0.877983)
(4.18556 1.30963e-05 -0.877985)
(4.18563 6.94273e-06 -0.878009)
(4.18551 -3.28575e-05 -0.877965)
(4.76883 3.02745e-05 -0.734751)
(4.76899 7.04795e-06 -0.734795)
(4.76891 1.40491e-05 -0.734778)
(4.76892 2.00309e-05 -0.734782)
(4.76899 1.6192e-05 -0.734805)
(4.76886 -2.00681e-05 -0.734761)
(5.2656 2.91318e-05 -0.605583)
(5.26578 1.39852e-05 -0.605624)
(5.26571 2.3731e-05 -0.60561)
(5.26572 2.64423e-05 -0.605614)
(5.26579 2.33961e-05 -0.605636)
(5.26567 -1.10314e-05 -0.605596)
(5.81627 3.07001e-05 -0.441338)
(5.81655 2.26017e-05 -0.441387)
(5.81646 3.52642e-05 -0.441373)
(5.81648 3.26477e-05 -0.441377)
(5.81655 2.81428e-05 -0.441399)
(5.81642 -6.5939e-06 -0.441361)
(6.2291 3.11996e-05 0.161012)
(6.22941 2.47156e-05 0.160932)
(6.22931 3.25552e-05 0.160956)
(6.22933 2.81206e-05 0.160953)
(6.22938 1.87165e-05 0.160927)
(6.22927 -1.0997e-05 0.160971)
(5.86643 2.65814e-05 1.36495)
(5.86674 2.49977e-05 1.36486)
(5.86665 2.24543e-05 1.36488)
(5.86665 1.65517e-05 1.36488)
(5.8667 -2.5858e-06 1.36486)
(5.86657 -2.25854e-05 1.36491)
(4.18498 3.94209e-05 2.42993)
(4.18538 3.04443e-05 2.42996)
(4.18528 5.08957e-06 2.42994)
(4.18527 2.00188e-05 2.42994)
(4.18535 -1.10986e-05 2.42995)
(4.18509 -2.94677e-05 2.42993)
(1.20995 -5.97948e-05 1.61168)
(1.21029 -6.00987e-05 1.61171)
(1.21021 2.57986e-06 1.6117)
(1.2102 -1.1481e-05 1.6117)
(1.21028 4.07683e-05 1.61172)
(1.21002 5.21866e-05 1.61165)
(0.423965 9.16006e-05 -2.79593)
(0.423963 -0.000170866 -2.79585)
(0.424023 7.59155e-05 -2.7959)
(0.423896 -8.46948e-05 -2.79599)
(0.423833 0.000252796 -2.79594)
(0.424202 -3.75609e-05 -2.7959)
(3.25353 5.15549e-05 -3.04194)
(3.25349 -0.000182923 -3.04184)
(3.25349 6.35554e-05 -3.04187)
(3.25342 -5.68146e-05 -3.04198)
(3.2534 0.000162062 -3.04194)
(3.25363 -7.68146e-05 -3.04184)
(5.84665 2.24249e-05 -2.49097)
(5.84651 -0.000136111 -2.49088)
(5.84647 6.79204e-05 -2.49093)
(5.84643 -1.96702e-05 -2.49096)
(5.84644 0.000145015 -2.49091)
(5.84664 -3.3915e-05 -2.49094)
(9.14707 6.70412e-06 -1.94701)
(9.14691 -9.49161e-05 -1.94693)
(9.1469 9.83614e-05 -1.94698)
(9.14688 1.6577e-05 -1.94698)
(9.14689 0.000177126 -1.94692)
(9.14707 1.94082e-05 -1.94702)
(12.7969 -6.62223e-06 -1.86499)
(12.7967 -7.58291e-05 -1.86495)
(12.7968 0.000123877 -1.86501)
(12.7968 4.44707e-05 -1.86499)
(12.7968 0.000214479 -1.8649)
(12.797 6.39269e-05 -1.865)
(16.8634 -2.14923e-05 -1.74307)
(16.8632 -7.84846e-05 -1.74307)
(16.8633 0.000122882 -1.74313)
(16.8633 3.84654e-05 -1.74309)
(16.8633 0.000223463 -1.74301)
(16.8637 9.29047e-05 -1.74304)
(19.4405 1.47322e-05 -1.44011)
(19.4402 -3.00285e-05 -1.44015)
(19.4404 0.000140081 -1.44018)
(19.4404 4.15914e-05 -1.44014)
(19.4403 0.000184097 -1.44007)
(19.4408 6.98145e-05 -1.44007)
(24.1842 8.58385e-05 -0.127963)
(24.1842 3.86372e-05 -0.127975)
(24.1843 0.000152432 -0.127974)
(24.1843 7.55261e-06 -0.127927)
(24.1843 2.53589e-05 -0.127863)
(24.1846 -8.45613e-05 -0.12788)
(14.6074 7.69985e-05 1.83878)
(14.6078 4.80223e-05 1.83881)
(14.6077 9.82801e-05 1.83881)
(14.6076 2.53788e-05 1.83886)
(14.6076 -2.39382e-05 1.83891)
(14.6076 -0.000100241 1.83888)
(8.54339 2.33372e-05 3.25809)
(8.54383 -1.76608e-05 3.25807)
(8.54367 8.74085e-06 3.2581)
(8.54366 -1.07475e-05 3.25813)
(8.54377 -3.64289e-05 3.25813)
(8.54349 -7.05073e-05 3.25815)
(4.33116 9.72001e-05 4.67316)
(4.3316 7.82722e-05 4.67337)
(4.33146 1.83867e-05 4.67328)
(4.33145 4.28134e-05 4.6733)
(4.33154 -4.46697e-05 4.67337)
(4.33128 -9.09821e-05 4.67324)
(1.1333 -5.77615e-05 3.49096)
(1.13369 -4.41552e-05 3.49112)
(1.13358 1.70383e-05 3.49108)
(1.13356 -1.35621e-05 3.49108)
(1.13359 5.29271e-05 3.49106)
(1.13343 5.74864e-05 3.49107)
(-0.178158 -5.43757e-05 -3.80771)
(-0.178149 -8.56224e-05 -3.80792)
(-0.178131 3.22302e-05 -3.80799)
(-0.178179 -3.79811e-06 -3.80802)
(-0.178195 8.56234e-05 -3.80795)
(-0.178097 5.51105e-05 -3.80773)
(-0.440127 -7.94461e-05 -4.72492)
(-0.440302 -3.45379e-05 -4.72519)
(-0.440344 -6.32712e-06 -4.72515)
(-0.440345 3.95159e-05 -4.72514)
(-0.440307 2.61002e-06 -4.72515)
(-0.440161 4.74235e-05 -4.72481)
(-2.18729 -3.68868e-05 -4.80525)
(-2.18752 3.72354e-05 -4.80556)
(-2.18757 2.86854e-05 -4.80555)
(-2.18756 4.56933e-05 -4.80554)
(-2.18751 1.42395e-05 -4.80558)
(-2.18738 6.28475e-05 -4.80524)
(-2.74526 -3.53408e-05 -5.57384)
(-2.74529 2.51713e-05 -5.57429)
(-2.74525 3.90045e-05 -5.57426)
(-2.74522 2.90182e-05 -5.57425)
(-2.74518 5.06998e-05 -5.57431)
(-2.74515 8.53086e-05 -5.57379)
(-3.68809 -9.73395e-05 -5.88431)
(-3.68815 -7.83433e-05 -5.88481)
(-3.68804 -4.97728e-05 -5.88477)
(-3.68801 -6.60943e-05 -5.88474)
(-3.68799 2.93408e-05 -5.88479)
(-3.68784 0.000115487 -5.88418)
(-4.00892 -0.000143636 -6.06609)
(-4.00913 -0.000145459 -6.06661)
(-4.009 -0.000104348 -6.0666)
(-4.00901 -0.000123934 -6.06657)
(-4.00912 -2.85915e-05 -6.06664)
(-4.00872 6.62993e-05 -6.06595)
(-3.66828 -0.000136053 -4.40618)
(-3.66886 -0.000124958 -4.40656)
(-3.66858 -6.26491e-05 -4.40654)
(-3.66852 -4.49334e-05 -4.40647)
(-3.66874 -3.48794e-05 -4.4065)
(-3.66814 -1.73666e-05 -4.40608)
(-0.242231 2.56918e-05 1.56982)
(-0.243197 2.55738e-05 1.56964)
(-0.24263 -6.96045e-05 1.56983)
(-0.24216 4.27903e-06 1.5701)
(-0.242119 -0.000163781 1.57027)
(-0.241987 -0.000261589 1.57)
(9.85697 7.32613e-05 11.0902)
(9.85715 -4.20087e-05 11.0903)
(9.85721 -0.000137951 11.0904)
(9.85727 -1.43896e-05 11.0905)
(9.85775 -0.000303016 11.0907)
(9.85669 -0.000489409 11.0903)
(9.87502 0.000114301 13.6247)
(9.87539 0.000138987 13.6247)
(9.87527 0.000107899 13.6247)
(9.87534 8.01122e-05 13.6248)
(9.87599 -9.09375e-05 13.625)
(9.87478 -0.00025182 13.6245)
(4.7692 9.57204e-05 8.37987)
(4.77004 7.04352e-05 8.38057)
(4.76982 3.51418e-05 8.38032)
(4.76969 9.86433e-05 8.38034)
(4.77046 -0.000118371 8.38074)
(4.76889 -0.000229849 8.37982)
(1.77066 -7.2229e-06 4.19823)
(1.77085 7.02999e-07 4.19835)
(1.77084 1.64185e-05 4.19834)
(1.77082 0.000127996 4.19829)
(1.77078 -8.03048e-05 4.19833)
(1.7708 -0.00020689 4.19828)
(-0.00266906 -1.09481e-06 -0.00269949)
(-0.00266878 -2.35573e-06 -0.00269948)
(-0.0026683 -2.52649e-06 -0.00269947)
(-0.00266775 -2.53203e-06 -0.00269946)
(-0.00266714 -2.07842e-06 -0.00269944)
(-0.00266636 -8.12787e-07 -0.00269931)
(-0.00808228 -8.42581e-07 -0.00276848)
(-0.00808087 -2.57284e-06 -0.00276694)
(-0.00807899 -3.72137e-06 -0.00276656)
(-0.00807692 -4.1677e-06 -0.00276658)
(-0.0080747 -3.66963e-06 -0.00276687)
(-0.00807184 -1.56538e-06 -0.00276735)
(-0.013703 -7.96154e-07 -0.0028897)
(-0.0136983 -3.81781e-06 -0.0028845)
(-0.0136933 -7.0644e-06 -0.00288313)
(-0.0136882 -8.45233e-06 -0.00288315)
(-0.0136828 -7.85171e-06 -0.00288401)
(-0.0136761 -3.51771e-06 -0.00288559)
(-0.0196644 -2.1648e-06 -0.00308156)
(-0.0196519 -8.77773e-06 -0.00307224)
(-0.0196405 -1.53066e-05 -0.0030702)
(-0.0196298 -1.78453e-05 -0.0030709)
(-0.0196189 -1.66154e-05 -0.0030735)
(-0.0196051 -7.54448e-06 -0.00307805)
(-0.0261432 -7.23219e-06 -0.00335346)
(-0.026115 -2.15227e-05 -0.00334432)
(-0.026093 -3.15328e-05 -0.00334412)
(-0.0260744 -3.43025e-05 -0.00334748)
(-0.0260564 -3.07446e-05 -0.00335369)
(-0.0260327 -1.3774e-05 -0.00336338)
(-0.0332263 -1.98451e-05 -0.00372289)
(-0.033174 -4.62736e-05 -0.00372813)
(-0.0331404 -5.46373e-05 -0.00373691)
(-0.033116 -5.35822e-05 -0.00374738)
(-0.0330937 -4.43498e-05 -0.00376025)
(-0.0330607 -1.908e-05 -0.00377703)
(-0.0406521 -3.60523e-05 -0.00370471)
(-0.0405715 -7.13021e-05 -0.00375242)
(-0.0405333 -6.68767e-05 -0.00378234)
(-0.0405142 -5.55913e-05 -0.00380572)
(-0.0404999 -3.90216e-05 -0.00382616)
(-0.0404683 -1.51797e-05 -0.00384606)
(-0.0480463 -4.28216e-05 -0.00142198)
(-0.0479442 -6.5826e-05 -0.00153381)
(-0.0479202 -3.19158e-05 -0.00158608)
(-0.0479291 -3.93912e-06 -0.00161532)
(-0.0479477 1.73132e-05 -0.00162944)
(-0.0479464 1.21862e-05 -0.00163096)
(-0.0556441 -2.14027e-05 0.00407186)
(-0.0555446 7.04686e-06 0.00392379)
(-0.0555569 8.47515e-05 0.00387682)
(-0.0556222 0.000129724 0.00387322)
(-0.0557103 0.000143839 0.0038997)
(-0.0557908 7.02886e-05 0.00395662)
(-0.0589711 2.76395e-05 0.012954)
(-0.0589293 0.000128974 0.0128562)
(-0.0589804 0.000249587 0.0128543)
(-0.0590762 0.000315797 0.0128829)
(-0.0592005 0.00031794 0.0129375)
(-0.0593527 0.000150214 0.013034)
(-0.056269 9.44409e-05 0.0187608)
(-0.0562936 0.000224829 0.0188127)
(-0.0563423 0.000279539 0.0188669)
(-0.0564081 0.000294645 0.0189291)
(-0.0565137 0.000267079 0.019017)
(-0.0567062 0.000121592 0.0191544)
(-0.0319169 4.4468e-05 0.0284481)
(-0.0319372 6.70158e-05 0.0285141)
(-0.0319464 3.35616e-05 0.0285228)
(-0.0319563 9.61297e-06 0.0285201)
(-0.0319939 -1.16784e-05 0.028534)
(-0.0320956 -1.08811e-05 0.0285846)
(-0.00272053 -1.17689e-06 -0.00799973)
(-0.00271962 -2.45624e-06 -0.00799966)
(-0.00271884 -2.52986e-06 -0.00799942)
(-0.00271815 -2.32562e-06 -0.0079992)
(-0.00271755 -1.66478e-06 -0.00799902)
(-0.00271688 -5.23211e-07 -0.00799858)
(-0.0082814 -1.82466e-06 -0.00825855)
(-0.00827791 -3.9797e-06 -0.00825551)
(-0.00827504 -4.29762e-06 -0.00825444)
(-0.00827253 -4.03536e-06 -0.00825417)
(-0.00827032 -2.95657e-06 -0.00825453)
(-0.00826779 -1.06589e-06 -0.00825535)
(-0.014174 -3.59565e-06 -0.00872156)
(-0.0141654 -7.85791e-06 -0.00871159)
(-0.0141587 -8.69536e-06 -0.0087085)
(-0.0141531 -8.28236e-06 -0.00870805)
(-0.014148 -6.40242e-06 -0.00870956)
(-0.0141421 -2.55533e-06 -0.00871281)
(-0.0205974 -7.07177e-06 -0.00942019)
(-0.020578 -1.52949e-05 -0.00940307)
(-0.0205644 -1.6684e-05 -0.00939882)
(-0.0205535 -1.57285e-05 -0.00939969)
(-0.0205436 -1.23076e-05 -0.00940481)
(-0.0205318 -5.04011e-06 -0.00941458)
(-0.0277366 -1.34386e-05 -0.01035)
(-0.0276961 -2.7628e-05 -0.0103358)
(-0.0276709 -2.79577e-05 -0.0103361)
(-0.0276525 -2.50038e-05 -0.0103428)
(-0.0276364 -1.88361e-05 -0.0103558)
(-0.0276159 -7.59357e-06 -0.0103768)
(-0.036043 -2.2032e-05 -0.0115387)
(-0.0359625 -4.16083e-05 -0.0115589)
(-0.0359205 -3.61173e-05 -0.0115784)
(-0.035895 -2.82046e-05 -0.0115996)
(-0.0358751 -1.85448e-05 -0.0116257)
(-0.0358482 -6.86495e-06 -0.0116602)
(-0.0466802 -3.05466e-05 -0.0132136)
(-0.0465371 -4.73287e-05 -0.0133177)
(-0.0464811 -2.35416e-05 -0.0133751)
(-0.0464603 -4.35344e-06 -0.0134173)
(-0.0464539 9.06111e-06 -0.0134534)
(-0.046441 6.67316e-06 -0.0134877)
(-0.0590106 -2.53125e-05 -0.0153322)
(-0.058808 -1.1087e-05 -0.0155447)
(-0.0587596 4.99658e-05 -0.0156336)
(-0.0587757 8.52837e-05 -0.015676)
(-0.058822 9.71664e-05 -0.0156885)
(-0.058873 4.76201e-05 -0.0156714)
(-0.0704558 2.00743e-05 -0.0173161)
(-0.0702502 9.87865e-05 -0.0175673)
(-0.0702429 0.000190216 -0.0176257)
(-0.0703176 0.000233971 -0.0176051)
(-0.0704377 0.00022918 -0.0175255)
(-0.0705915 0.000106733 -0.0173773)
(-0.0699324 8.9232e-05 -0.0128386)
(-0.0698034 0.000205894 -0.0129656)
(-0.0698763 0.000234076 -0.0129028)
(-0.0700407 0.000215776 -0.0127643)
(-0.0702759 0.000164242 -0.0125579)
(-0.0705857 6.56919e-05 -0.0122622)
(-0.0630648 7.51419e-05 0.00403538)
(-0.0631359 0.000131474 0.00425791)
(-0.0633076 9.0012e-05 0.00443206)
(-0.063541 4.30498e-05 0.0046043)
(-0.0638503 -7.33538e-06 0.00481467)
(-0.0642495 -1.6806e-05 0.0051083)
(-0.0362944 -4.34299e-05 0.028143)
(-0.0364001 -0.000152296 0.0283615)
(-0.0365047 -0.000253079 0.0284399)
(-0.0366192 -0.000293553 0.0284845)
(-0.0367688 -0.000284894 0.0285476)
(-0.0369643 -0.000136645 0.0286766)
(-0.0026518 -7.64173e-07 -0.013203)
(-0.0026512 -1.64153e-06 -0.0132031)
(-0.00265073 -1.66706e-06 -0.0132027)
(-0.00265037 -1.38277e-06 -0.0132023)
(-0.00265017 -8.25258e-07 -0.013202)
(-0.00265001 -1.70203e-07 -0.0132012)
(-0.00812301 -1.4154e-06 -0.013746)
(-0.00812076 -2.89659e-06 -0.0137434)
(-0.00811912 -2.77839e-06 -0.0137422)
(-0.00811787 -2.24726e-06 -0.0137417)
(-0.00811718 -1.23629e-06 -0.0137419)
(-0.00811664 -2.88424e-07 -0.0137424)
(-0.0140795 -2.95883e-06 -0.0147473)
(-0.014074 -5.75258e-06 -0.014739)
(-0.0140705 -5.22809e-06 -0.0147359)
(-0.014068 -4.07775e-06 -0.0147352)
(-0.0140667 -2.23937e-06 -0.0147367)
(-0.0140658 -5.9738e-07 -0.01474)
(-0.0208219 -5.53541e-06 -0.0162241)
(-0.0208094 -1.02215e-05 -0.0162111)
(-0.0208026 -8.46162e-06 -0.0162076)
(-0.0207986 -6.04636e-06 -0.0162086)
(-0.0207969 -2.8363e-06 -0.0162141)
(-0.0207962 -5.6509e-07 -0.0162246)
(-0.0285604 -8.97664e-06 -0.0180126)
(-0.028533 -1.48388e-05 -0.0180081)
(-0.0285218 -9.44606e-06 -0.0180113)
(-0.0285173 -4.50706e-06 -0.0180194)
(-0.0285174 3.84199e-07 -0.0180339)
(-0.0285198 1.30733e-06 -0.0180567)
(-0.0369216 -1.02372e-05 -0.0195516)
(-0.0368664 -1.10373e-05 -0.0195925)
(-0.0368513 3.40153e-06 -0.0196198)
(-0.0368518 1.23848e-05 -0.0196449)
(-0.0368619 1.74412e-05 -0.0196733)
(-0.036877 9.25427e-06 -0.0197079)
(-0.044784 2.68344e-06 -0.0192367)
(-0.044687 2.49202e-05 -0.0193736)
(-0.0446735 5.34706e-05 -0.0194419)
(-0.0446933 6.57708e-05 -0.0194868)
(-0.0447329 6.3992e-05 -0.019519)
(-0.0447868 2.94759e-05 -0.019539)
(-0.0512837 4.13873e-05 -0.0133864)
(-0.051153 0.000111534 -0.0136199)
(-0.0511604 0.000151538 -0.013706)
(-0.0512264 0.000159158 -0.0137329)
(-0.0513309 0.000136201 -0.0137145)
(-0.0514729 5.84641e-05 -0.0136424)
(-0.0609943 9.55887e-05 0.00284657)
(-0.0608969 0.00021176 0.00263789)
(-0.060974 0.000233614 0.00262461)
(-0.0611338 0.000215355 0.00269578)
(-0.0613558 0.000158994 0.00284472)
(-0.0616423 6.12405e-05 0.0030866)
(-0.0765189 0.000106426 0.0372294)
(-0.0765904 0.000214081 0.0372447)
(-0.0767756 0.000202844 0.0373869)
(-0.0770246 0.000161701 0.0375884)
(-0.0773288 9.11274e-05 0.0378622)
(-0.0776843 2.47023e-05 0.0382081)
(-0.0804834 3.37612e-05 0.0853232)
(-0.0808178 1.01848e-05 0.0856915)
(-0.081091 -8.37429e-05 0.085906)
(-0.0813448 -0.000141398 0.0860609)
(-0.0815817 -0.000170899 0.0862274)
(-0.0817881 -8.91303e-05 0.0863868)
(-0.0682373 -0.000105226 0.171588)
(-0.0684901 -0.000274451 0.171921)
(-0.0686671 -0.000366146 0.172111)
(-0.0687975 -0.000381856 0.172187)
(-0.0689219 -0.000278024 0.172362)
(-0.068951 -9.43711e-05 0.172308)
(-0.00242832 -4.59026e-07 -0.018069)
(-0.00242772 -9.41836e-07 -0.0180695)
(-0.00242747 -8.19244e-07 -0.0180691)
(-0.00242738 -4.99425e-07 -0.0180687)
(-0.00242747 -1.08691e-07 -0.0180685)
(-0.00242757 1.06854e-07 -0.0180676)
(-0.00749958 -1.04154e-06 -0.019008)
(-0.00749745 -1.76609e-06 -0.0190067)
(-0.00749662 -1.10079e-06 -0.0190058)
(-0.00749647 -4.09412e-07 -0.0190054)
(-0.00749689 3.3126e-07 -0.0190057)
(-0.00749733 3.59189e-07 -0.0190058)
(-0.0132465 -2.0949e-06 -0.0208176)
(-0.0132418 -3.05907e-06 -0.0208127)
(-0.0132405 -1.13295e-06 -0.0208108)
(-0.0132407 3.91675e-07 -0.0208106)
(-0.0132421 1.66009e-06 -0.020812)
(-0.0132436 1.09153e-06 -0.0208144)
(-0.0202511 -2.7378e-06 -0.0235977)
(-0.0202423 -2.71916e-06 -0.0235911)
(-0.0202409 1.48426e-06 -0.0235898)
(-0.0202428 4.14908e-06 -0.0235917)
(-0.0202467 5.83965e-06 -0.023597)
(-0.0202507 3.14386e-06 -0.0236052)
(-0.0293832 -5.48802e-07 -0.0274178)
(-0.0293672 3.91956e-06 -0.0274215)
(-0.0293669 1.16649e-05 -0.0274279)
(-0.0293733 1.57333e-05 -0.0274376)
(-0.0293831 1.64445e-05 -0.0274516)
(-0.0293932 7.8921e-06 -0.0274697)
(-0.0423512 8.36044e-06 -0.0325632)
(-0.0423227 2.51628e-05 -0.0326085)
(-0.0423251 3.79514e-05 -0.0326388)
(-0.0423405 4.25206e-05 -0.0326663)
(-0.0423631 3.86707e-05 -0.0326943)
(-0.0423889 1.72735e-05 -0.0327211)
(-0.0622679 2.64045e-05 -0.039411)
(-0.0622269 6.47327e-05 -0.0395377)
(-0.0622388 8.21084e-05 -0.0396052)
(-0.0622739 8.46456e-05 -0.0396526)
(-0.0623256 7.12427e-05 -0.0396839)
(-0.0623923 3.03205e-05 -0.0396924)
(-0.0905134 5.13399e-05 -0.0457727)
(-0.0904932 0.000112557 -0.0459661)
(-0.0905377 0.000124507 -0.0460415)
(-0.0906134 0.000117696 -0.0460686)
(-0.0907207 9.07784e-05 -0.0460485)
(-0.0908634 3.62067e-05 -0.0459666)
(-0.127157 6.32847e-05 -0.0494987)
(-0.127252 0.000115215 -0.0496288)
(-0.127371 8.88016e-05 -0.0496203)
(-0.127502 5.7296e-05 -0.0495473)
(-0.127669 1.56643e-05 -0.0494072)
(-0.127872 -4.89482e-06 -0.0491862)
(-0.151677 2.4888e-05 -0.04763)
(-0.151953 -6.36762e-06 -0.0475375)
(-0.15213 -0.000105814 -0.0474065)
(-0.152257 -0.000159091 -0.0472529)
(-0.152397 -0.000189209 -0.0470757)
(-0.152498 -0.000105135 -0.0468519)
(-0.188233 -0.000129316 0.0329615)
(-0.188617 -0.00031039 0.0333009)
(-0.188746 -0.000403975 0.0334696)
(-0.188702 -0.000392075 0.0335522)
(-0.188742 -0.000344744 0.0336371)
(-0.188493 -0.000175898 0.0336269)
(-0.0778405 -0.00014406 0.000513969)
(-0.0780469 -0.000225591 0.000716877)
(-0.0780767 -0.000268952 0.000759411)
(-0.078 -0.000102074 0.000759192)
(-0.0779005 -0.000160928 0.000457989)
(-0.077809 -0.000249852 0.000808691)
(0.200534 -1.172e-05 -3.47698)
(0.200527 2.54559e-05 -3.47731)
(0.200523 7.25778e-06 -3.47729)
(0.200524 2.81699e-06 -3.47725)
(0.200528 -1.92524e-05 -3.47726)
(0.200494 1.7942e-05 -3.47701)
(0.136685 2.39084e-05 -3.55571)
(0.136675 2.3802e-05 -3.55594)
(0.13667 -3.0179e-06 -3.5559)
(0.136676 -6.02669e-06 -3.55589)
(0.136678 -2.92562e-05 -3.55593)
(0.136656 -2.52947e-05 -3.5557)
(0.0435482 1.70758e-05 -3.65494)
(0.0435468 1.59025e-05 -3.65508)
(0.0435472 -2.25047e-06 -3.65506)
(0.0435476 -3.21559e-06 -3.65505)
(0.043547 -1.78866e-05 -3.65507)
(0.043546 -1.73184e-05 -3.65493)
(0.11145 9.30396e-06 -3.41238)
(0.11142 7.7826e-06 -3.41263)
(0.111421 -1.40177e-05 -3.41257)
(0.111407 -7.62586e-06 -3.41255)
(0.11141 -1.69644e-05 -3.4126)
(0.111445 -1.41994e-05 -3.4123)
(0.0502473 1.87182e-05 -3.82013)
(0.0502657 8.92778e-06 -3.82035)
(0.0502635 -1.15496e-05 -3.82031)
(0.0502629 -1.09155e-05 -3.8203)
(0.0502638 -2.65525e-05 -3.82033)
(0.0502282 -3.06829e-05 -3.82006)
(0.0376972 1.51092e-05 -3.8166)
(0.0376921 1.60405e-05 -3.81673)
(0.0376927 -1.88806e-06 -3.81671)
(0.0376942 -2.92657e-06 -3.8167)
(0.0376954 -2.19375e-05 -3.81671)
(0.0376957 -1.98248e-05 -3.81656)
(0.163942 3.57309e-05 -2.5846)
(0.163981 2.43408e-05 -2.58489)
(0.163969 -1.1517e-05 -2.58484)
(0.163949 -8.19575e-06 -2.58485)
(0.163949 -4.05818e-05 -2.58493)
(0.163907 -4.33628e-05 -2.58454)
(0.278674 1.87756e-05 -3.80822)
(0.278708 2.09928e-05 -3.80843)
(0.278702 3.30232e-06 -3.8084)
(0.278704 8.54626e-06 -3.80839)
(0.278714 -2.18471e-05 -3.80842)
(0.27867 -3.2603e-05 -3.80817)
(0.109203 1.37204e-05 -3.67725)
(0.109203 1.44191e-05 -3.67738)
(0.109206 1.58556e-07 -3.67736)
(0.109209 -1.54783e-06 -3.67735)
(0.109211 -1.77747e-05 -3.67736)
(0.109209 -1.80086e-05 -3.67723)
(0.562035 3.33379e-05 -3.44419)
(0.562148 1.2463e-05 -3.44461)
(0.562109 -3.46834e-05 -3.44457)
(0.562087 -2.63309e-05 -3.44459)
(0.562082 -6.6523e-05 -3.44473)
(0.561937 -6.85457e-05 -3.44418)
(0.305202 3.40227e-05 -4.44085)
(0.305215 4.57282e-05 -4.44111)
(0.305221 1.47885e-05 -4.44108)
(0.305229 2.04608e-05 -4.44108)
(0.305239 -3.20971e-05 -4.44114)
(0.305228 -4.83136e-05 -4.44086)
(0.114444 1.83896e-05 -4.02296)
(0.114442 2.00807e-05 -4.02311)
(0.114444 3.6242e-06 -4.0231)
(0.114445 5.14355e-06 -4.0231)
(0.114447 -1.54953e-05 -4.02312)
(0.114451 -2.04617e-05 -4.02299)
(0.483582 2.31109e-05 -3.39417)
(0.483665 4.78494e-06 -3.39461)
(0.483606 -3.62013e-05 -3.3946)
(0.483564 -2.66985e-05 -3.39463)
(0.483552 -6.38146e-05 -3.39475)
(0.483411 -6.32461e-05 -3.39423)
(0.0622324 3.707e-05 -4.39748)
(0.0622365 4.93662e-05 -4.39776)
(0.0622473 1.34498e-05 -4.39773)
(0.0622588 1.51948e-05 -4.39775)
(0.0622569 -3.47521e-05 -4.39782)
(0.0622718 -4.53207e-05 -4.39754)
(0.0238824 1.80365e-05 -3.87725)
(0.0238791 1.8717e-05 -3.87741)
(0.0238743 3.66331e-06 -3.8774)
(0.0238718 6.26706e-06 -3.87741)
(0.0238695 -1.60577e-05 -3.87743)
(0.0238716 -2.31251e-05 -3.8773)
(0.536797 2.93407e-05 -3.97611)
(0.536889 2.7638e-05 -3.9765)
(0.536816 5.42733e-06 -3.97652)
(0.536796 1.00664e-05 -3.97656)
(0.536818 -4.31434e-05 -3.97668)
(0.536681 -6.88573e-05 -3.97628)
(-0.136805 3.12463e-05 -4.49324)
(-0.136834 3.82927e-05 -4.49349)
(-0.136816 9.84601e-06 -4.49346)
(-0.1368 1.24129e-05 -4.49345)
(-0.136818 -1.80851e-05 -4.4935)
(-0.136736 -2.07256e-05 -4.49325)
(-0.0644531 1.54825e-05 -4.03728)
(-0.0644555 8.40951e-06 -4.03743)
(-0.064462 -8.61838e-06 -4.03743)
(-0.0644681 -4.82101e-06 -4.03744)
(-0.0644719 -1.96607e-05 -4.03746)
(-0.0644806 -2.05062e-05 -4.03731)
(-0.259805 -3.82488e-05 -4.46783)
(-0.259764 -6.31519e-05 -4.46819)
(-0.259859 -1.92574e-05 -4.46827)
(-0.259921 -3.35198e-05 -4.46836)
(-0.259834 6.33142e-05 -4.46846)
(-0.260129 9.17173e-05 -4.46812)
(-0.39803 6.67977e-06 -3.87926)
(-0.398028 -3.94161e-06 -3.87939)
(-0.39803 -4.76062e-06 -3.87939)
(-0.39802 -9.51746e-06 -3.87938)
(-0.398046 2.91269e-05 -3.87939)
(-0.398021 4.84483e-05 -3.8792)
(-0.15698 1.18551e-05 -4.0133)
(-0.15698 7.56164e-06 -4.01345)
(-0.156986 -1.2325e-05 -4.01343)
(-0.156997 -1.34775e-05 -4.01343)
(-0.157003 -3.46428e-05 -4.01344)
(-0.157024 -3.0489e-05 -4.01328)
(-1.04286 -2.87556e-05 -6.27374)
(-1.04332 -4.03582e-05 -6.27411)
(-1.04336 -3.09703e-05 -6.27408)
(-1.04354 -1.5812e-05 -6.27402)
(-1.04375 -9.77064e-05 -6.2741)
(-1.04306 -8.22505e-05 -6.27372)
(-0.187034 1.0107e-05 -3.26279)
(-0.187184 -4.4898e-05 -3.26305)
(-0.187285 -4.9033e-05 -3.26305)
(-0.187368 -7.64566e-05 -3.26304)
(-0.187612 -2.52928e-05 -3.26316)
(-0.187002 5.56112e-05 -3.26257)
(0.183613 1.20048e-05 -3.9273)
(0.183658 -5.57795e-06 -3.92739)
(0.183641 -5.26222e-05 -3.92736)
(0.183613 -4.80484e-05 -3.92739)
(0.183638 -7.96217e-05 -3.92748)
(0.183525 -6.42579e-05 -3.92722)
(1.98004 3.41406e-05 0.838983)
(1.97944 0.000151982 0.838183)
(1.97991 6.89009e-05 0.838724)
(1.98006 0.000208809 0.83932)
(1.98111 -0.000241175 0.840743)
(1.9784 -0.000528184 0.837022)
(-1.58559 0.00016051 -3.35517)
(-1.58592 4.37233e-05 -3.35574)
(-1.58592 -7.1378e-05 -3.3553)
(-1.58612 -3.13122e-05 -3.35502)
(-1.58616 5.44212e-05 -3.35464)
(-1.58612 0.000132193 -3.35558)
(0.0497187 1.54256e-05 -4.53541)
(0.0496777 -2.88062e-05 -4.53552)
(0.049616 -0.000123269 -4.53543)
(0.0495396 -8.74175e-05 -4.53541)
(0.0496726 -6.40534e-05 -4.5356)
(0.0495211 -5.32923e-05 -4.53516)
(9.74323 6.43039e-05 13.0031)
(9.7433 0.000172974 13.0033)
(9.74332 0.000208168 13.0033)
(9.74334 0.000492973 13.0034)
(9.74397 5.65187e-05 13.0035)
(9.74382 -0.0004727 13.0034)
(6.85263 0.000217184 7.3669)
(6.8527 0.000252178 7.36699)
(6.85276 -0.000133328 7.36706)
(6.85269 0.000459643 7.36738)
(6.85366 -0.000742127 7.36919)
(6.85174 -0.00144965 7.36512)
(2.04449 0.000366232 -0.0934911)
(2.04427 0.000200695 -0.0934608)
(2.04461 -0.000449001 -0.0931331)
(2.04418 0.000306605 -0.092955)
(2.04526 -0.00110653 -0.0910425)
(2.04332 -0.00172756 -0.0959253)
(7.05913 0.000232785 12.4447)
(7.05953 0.000282585 12.446)
(7.05978 0.000142929 12.4454)
(7.05972 0.000222165 12.4457)
(7.05853 0.000549961 12.4479)
(7.06272 0.000279349 12.443)
(10.2135 0.000145473 13.4126)
(10.2161 0.000469521 13.414)
(10.2142 0.00044065 13.4132)
(10.2146 0.00099831 13.4139)
(10.2239 -0.000806982 13.4187)
(10.2036 -0.00183762 13.4078)
(9.28213 0.000160935 7.638)
(9.2837 0.000248205 7.63824)
(9.28267 -0.000333504 7.63831)
(9.28309 0.000471467 7.63946)
(9.28934 -0.000516432 7.64193)
(9.27622 -0.00154097 7.63564)
(4.97906 9.35544e-05 6.7141)
(4.97982 9.33808e-05 6.715)
(4.97971 -2.73131e-05 6.71467)
(4.97978 -0.000402151 6.7149)
(4.98038 0.000662599 6.71599)
(4.9793 0.000988162 6.71348)
(7.48932 0.000273117 8.19384)
(7.49022 0.000229188 8.19486)
(7.49015 -0.000160734 8.19537)
(7.49088 -0.000282489 8.1934)
(7.49317 0.000225916 8.18783)
(7.48841 0.000298586 8.20274)
(11.0469 -5.74724e-06 7.0867)
(11.0495 0.00016591 7.08864)
(11.0482 8.46008e-05 7.08866)
(11.0466 0.000123719 7.08646)
(11.0509 0.000666809 7.08432)
(11.0432 0.000328175 7.09258)
(0.0767434 -1.80872e-05 1.47134)
(0.0771976 0.000315441 1.47211)
(0.0772328 -0.000618578 1.47243)
(0.0773425 0.00125286 1.47215)
(0.0809775 -0.00167492 1.47816)
(0.0732578 -0.00385913 1.46641)
(-2.14392 0.000920952 -0.219386)
(-2.14516 0.00158712 -0.219312)
(-2.14541 -0.000136343 -0.219587)
(-2.14395 0.00703466 -0.218819)
(-2.14986 -0.00704621 -0.216193)
(-2.13901 -0.0148427 -0.221937)
(-1.15406 -0.000705942 0.4858)
(-1.15567 2.94475e-06 0.49146)
(-1.15534 0.000100625 0.483945)
(-1.15522 0.000684035 0.500686)
(-1.16528 -0.000129776 0.540316)
(-1.14443 -0.00105066 0.442785)
(0.0409585 -0.000564367 2.67782)
(0.0411225 -0.000525409 2.67865)
(0.042485 -0.000474525 2.67943)
(0.0417129 -0.00337058 2.67719)
(0.0402447 0.00368851 2.68159)
(0.0439999 0.00659186 2.67514)
(-3.14218 0.00103454 -1.32763)
(-3.14779 0.00170032 -1.3315)
(-3.14346 -0.0010095 -1.32698)
(-3.14603 0.00224485 -1.33482)
(-3.15325 -0.00213099 -1.35608)
(-3.13499 -0.00589153 -1.30635)
(-0.0512712 0.00137091 9.24678)
(-0.0441535 0.00186805 9.26162)
(-0.0493427 6.35668e-05 9.25302)
(-0.0414941 0.00416014 9.26003)
(-0.0137584 -0.00440346 9.29672)
(-0.0784748 -0.00881557 9.2177)
(1.13295 -0.000585106 -1.12975)
(1.13307 -0.000813099 -1.13249)
(1.13341 -0.00171383 -1.13107)
(1.13402 -0.000909088 -1.13623)
(1.13682 0.00126551 -1.1429)
(1.13062 0.000666211 -1.11841)
(2.31284 0.000515626 0.182924)
(2.31146 0.000497575 0.180943)
(2.31147 -9.7082e-06 0.181139)
(2.31596 -0.000322955 0.179701)
(2.32462 -0.000349617 0.184311)
(2.30366 4.08233e-05 0.176582)
(7.52215 0.00163799 11.622)
(7.52648 0.00139803 11.6298)
(7.52406 0.000398378 11.626)
(7.52679 0.00289037 11.6275)
(7.54279 -0.00331519 11.6343)
(7.50961 -0.00555007 11.6192)
(-0.720814 0.000153315 -3.26849)
(-0.721095 0.000228783 -3.27015)
(-0.72096 7.49513e-05 -3.26956)
(-0.720381 -0.000149856 -3.26829)
(-0.722735 0.000437606 -3.27002)
(-0.718357 0.000648185 -3.268)
(5.84673 0.000754678 3.07074)
(5.8474 0.00067439 3.07167)
(5.84691 5.28077e-05 3.07109)
(5.84787 0.00126739 3.07103)
(5.85349 -0.00159886 3.07553)
(5.84206 -0.00271578 3.06693)
(9.69572 0.00156225 7.44411)
(9.69998 0.00109121 7.45333)
(9.69809 -0.000403758 7.44847)
(9.69853 0.00202056 7.44828)
(9.70809 -0.00246441 7.45378)
(9.68841 -0.00445476 7.43926)
(1.1134 0.000111198 1.65817)
(1.1124 0.00030405 1.65762)
(1.11246 -3.02358e-05 1.65785)
(1.11454 0.000786192 1.65852)
(1.11968 -0.000334776 1.66157)
(1.1083 -0.0013166 1.65544)
(6.53902 0.000504801 4.61499)
(6.54121 0.0004691 4.61771)
(6.54023 -0.000130282 4.61638)
(6.54053 0.00138254 4.61647)
(6.54672 -0.0012877 4.62089)