/*--------------------------------*- C++ -*----------------------------------*\
| =========                 |                                                 |
| \\      /  F ield         | OpenFOAM: The Open Source CFD Toolbox           |
|  \\    /   O peration     | Version:  v1612+                                |
|   \\  /    A nd           | Web:      www.OpenFOAM.com                      |
|    \\/     M anipulation  |                                                 |
\*---------------------------------------------------------------------------*/
FoamFile
{
    version     2.0;
    format      ascii;
    class       volScalarField;
    location    "3.85";
    object      p;
}
// * * * * * * * * * * * * * * * * * * * * * * * * * * * * * * * * * * * * * //

dimensions      [1 -1 -2 0 0 0 0];

internalField   nonuniform List<scalar> 
1116
(
2947.52
2947.47
2947.5
2947.51
2947.49
2947.53
2898.01
2897.99
2897.98
2898.01
2898.01
2897.98
3054.66
3054.66
3054.66
3054.67
3054.67
3054.65
3341.26
3341.26
3341.27
3341.28
3341.28
3341.27
3689.47
3689.45
3689.46
3689.45
3689.43
3689.46
4205.87
4205.88
4205.87
4205.89
4205.91
4205.89
5165.05
5165.06
5165.07
5165.07
5165.08
5165.07
7201.14
7201.15
7201.16
7201.17
7201.17
7201.19
10419.7
10419.6
10419.6
10419.7
10419.6
10419.7
14247.3
14247.2
14247.2
14247.2
14247.2
14247.3
17581.6
17581.3
17581.4
17581.3
17581.3
17581.5
20223.7
20223.6
20223.6
20223.6
20223.5
20223.6
-54.2491
-54.2525
-54.2544
-54.2532
-54.2547
-54.2534
-77.5803
-77.5782
-77.5774
-77.5779
-77.578
-77.5789
-87.1272
-87.1249
-87.1235
-87.1234
-87.1229
-87.1237
-55.2481
-55.2454
-55.2442
-55.2423
-55.2403
-55.2422
40.5459
40.5462
40.5461
40.5467
40.549
40.55
167.076
167.059
167.059
167.051
167.042
167.059
278.76
278.765
278.764
278.765
278.766
278.763
741.331
741.316
741.327
741.329
741.326
741.353
2327.95
2327.8
2327.88
2327.88
2327.84
2327.94
5879.7
5879.45
5879.57
5879.55
5879.48
5879.56
9051.31
9051.44
9051.5
9051.42
9051.41
9051.16
12779.7
12779.4
12779.4
12779.4
12779.3
12779.6
-48.7731
-48.7742
-48.7761
-48.7756
-48.7759
-48.777
-50.8664
-50.8662
-50.8663
-50.8666
-50.8669
-50.8673
-55.3895
-55.3888
-55.3887
-55.3885
-55.3884
-55.3894
-49.6145
-49.6122
-49.6124
-49.6114
-49.6108
-49.6151
-17.7794
-17.7859
-17.7858
-17.7876
-17.7878
-17.7775
-2.36091
-2.36466
-2.36546
-2.36695
-2.36759
-2.36322
-3.13417
-3.13492
-3.13517
-3.13486
-3.13421
-3.1333
11.1177
11.1102
11.1094
11.1076
11.1067
11.1088
109.395
109.388
109.386
109.384
109.387
109.385
983.301
982.737
983.021
983.001
982.878
983.197
5008.41
5007.58
5007.97
5007.94
5007.82
5008.15
7718.42
7718.63
7718.48
7718.45
7718.55
7718.46
-54.5233
-54.5232
-54.5235
-54.5239
-54.5242
-54.5245
-54.2568
-54.2567
-54.2568
-54.2569
-54.2571
-54.2573
-50.406
-50.4059
-50.4058
-50.4057
-50.4057
-50.406
-36.89
-36.8896
-36.8894
-36.8892
-36.8893
-36.89
-12.0884
-12.0852
-12.0852
-12.0843
-12.0842
-12.0895
2.47345
2.47343
2.47404
2.47411
2.47307
2.47172
-5.28583
-5.28685
-5.28712
-5.28764
-5.28776
-5.28697
-0.742172
-0.748802
-0.748614
-0.75061
-0.750901
-0.750673
8.33668
8.33179
8.32798
8.32586
8.32853
8.34127
198.268
198.131
198.153
198.115
198.065
198.285
2728.4
2729.15
2728.96
2728.72
2729.29
2728.35
4607.4
4608.91
4608.08
4608.05
4608.48
4607.6
0.642058
0.642041
0.642025
0.642002
0.641976
0.641956
0.906152
0.906138
0.906101
0.906042
0.905977
0.90593
1.44461
1.44456
1.44447
1.44437
1.44427
1.44421
2.27909
2.279
2.27891
2.27884
2.27881
2.27881
3.44276
3.44272
3.44276
3.44287
3.44303
3.44316
4.97604
4.97614
4.97636
4.97668
4.97701
4.97727
6.91772
6.91784
6.91797
6.91811
6.91827
6.91841
9.29498
9.2948
9.29439
9.2938
9.29326
9.29291
12.0482
12.0477
12.047
12.046
12.0454
12.045
15.0007
15.0005
15.0009
14.9996
15.0008
15.0016
18.2844
18.2838
18.2871
18.2838
18.2876
18.2905
18.7699
18.7668
18.7712
18.7686
18.7705
18.7754
-9.43549
-9.4355
-9.43551
-9.43553
-9.43555
-9.43556
-9.17154
-9.17156
-9.17159
-9.17163
-9.17168
-9.17171
-8.63365
-8.6337
-8.63375
-8.63379
-8.63382
-8.63384
-7.80262
-7.80263
-7.8026
-7.80254
-7.80247
-7.80241
-6.64863
-6.64853
-6.64835
-6.64816
-6.64797
-6.64785
-5.12711
-5.12695
-5.12678
-5.12666
-5.12655
-5.12649
-3.16844
-3.16848
-3.16871
-3.16909
-3.16947
-3.16974
-0.664678
-0.665107
-0.665773
-0.666822
-0.667485
-0.66801
2.4425
2.44212
2.44249
2.44085
2.44247
2.44291
5.79734
5.79702
5.80075
5.79581
5.80191
5.80597
9.11279
9.11127
9.12032
9.10167
9.11052
9.13238
1.82926
1.82529
1.82349
1.82941
1.81227
1.84306
-19.7773
-19.7773
-19.7773
-19.7773
-19.7773
-19.7773
-19.5243
-19.5244
-19.5244
-19.5244
-19.5244
-19.5244
-19.0033
-19.0033
-19.0033
-19.0033
-19.0033
-19.0033
-18.1822
-18.1822
-18.1821
-18.182
-18.1819
-18.1818
-17.0088
-17.0086
-17.0085
-17.0084
-17.0083
-17.0082
-15.4116
-15.4116
-15.4116
-15.4117
-15.4119
-15.4121
-13.3045
-13.3048
-13.3051
-13.3058
-13.3064
-13.3066
-10.5115
-10.512
-10.512
-10.5134
-10.5131
-10.5125
-6.73705
-6.73791
-6.7347
-6.74038
-6.73504
-6.73087
-1.40131
-1.40272
-1.38254
-1.43157
-1.40628
-1.37084
7.62427
7.62062
7.69534
7.50338
7.55793
7.73805
16.4312
16.3724
16.4102
16.4133
16.3423
16.4753
-30.3606
-30.3606
-30.3606
-30.3606
-30.3606
-30.3606
-30.1376
-30.1377
-30.1377
-30.1376
-30.1376
-30.1376
-29.6806
-29.6806
-29.6806
-29.6805
-29.6805
-29.6804
-28.9711
-28.9711
-28.971
-28.9709
-28.9709
-28.9708
-27.9827
-27.9826
-27.9826
-27.9827
-27.9827
-27.9828
-26.6631
-26.6632
-26.6634
-26.6638
-26.664
-26.6642
-24.8504
-24.8508
-24.8508
-24.8519
-24.8517
-24.8515
-22.0294
-22.0303
-22.0279
-22.0325
-22.0294
-22.0267
-16.8577
-16.8605
-16.8452
-16.8779
-16.8615
-16.8419
-5.02395
-5.0386
-4.97276
-5.12619
-5.07354
-4.94048
-4.63649
-4.66228
-4.69124
-4.62647
-4.68299
-4.63976
-97.2683
-97.3251
-97.7729
-96.7747
-97.4326
-97.6359
-57.5184
-57.5185
-57.5186
-57.5188
-57.5189
-57.5189
-62.1646
-62.1646
-62.1646
-62.1646
-62.1646
-62.1646
-67.7486
-67.7486
-67.7486
-67.7486
-67.7486
-67.7485
-56.6414
-56.6413
-56.6413
-56.6413
-56.6414
-56.6415
-61.1919
-61.1919
-61.1919
-61.1919
-61.1919
-61.1919
-67.2583
-67.2584
-67.2584
-67.2584
-67.2584
-67.2584
-53.6067
-53.6066
-53.6065
-53.6065
-53.6065
-53.6067
-58.7148
-58.7148
-58.7148
-58.7148
-58.7148
-58.7149
-66.1817
-66.1818
-66.1818
-66.1818
-66.1818
-66.1817
-47.5156
-47.5154
-47.5154
-47.5154
-47.5154
-47.5156
-54.238
-54.2381
-54.2382
-54.2382
-54.2382
-54.2382
-64.5784
-64.5784
-64.5783
-64.5783
-64.5783
-64.5783
-38.6817
-38.6812
-38.6811
-38.6811
-38.6812
-38.6818
-48.402
-48.4023
-48.4023
-48.4023
-48.4024
-48.4021
-62.7706
-62.7706
-62.7705
-62.7705
-62.7705
-62.7705
-29.6348
-29.6341
-29.6341
-29.634
-29.6341
-29.6348
-45.2241
-45.2243
-45.2243
-45.2243
-45.2244
-45.2242
-61.244
-61.244
-61.244
-61.244
-61.244
-61.244
-25.3131
-25.3129
-25.3135
-25.3139
-25.3139
-25.3141
-43.3588
-43.3588
-43.359
-43.3591
-43.359
-43.3595
-60.8505
-60.8504
-60.8504
-60.8505
-60.8504
-60.8504
-24.4813
-24.4913
-24.4924
-24.4943
-24.4937
-24.4897
-51.6691
-51.6752
-51.6766
-51.6781
-51.6781
-51.6719
-60.8567
-60.8573
-60.8575
-60.858
-60.8575
-60.8561
-28.1897
-28.1915
-28.1998
-28.2038
-28.1965
-28.1803
-49.0791
-49.0826
-49.0921
-49.0971
-49.0875
-49.0653
-66.1465
-66.1467
-66.1474
-66.148
-66.1453
-66.1453
-35.9455
-35.9542
-35.9575
-35.9613
-35.9484
-35.9456
-60.5599
-60.5285
-60.532
-60.53
-60.5272
-60.549
-72.2337
-72.226
-72.2217
-72.2179
-72.2194
-72.2422
19.0474
19.26
19.2204
19.2415
19.4547
18.9155
-203.495
-203.537
-203.495
-203.47
-203.473
-203.573
-87.9069
-87.9131
-87.8924
-87.8872
-87.9072
-87.9099
2358.74
2360.68
2359.87
2359.73
2359.62
2359.92
-68.2483
-68.1245
-68.1621
-68.1607
-68.1459
-68.197
-70.1846
-70.1476
-70.1467
-70.1482
-70.1469
-70.1675
719
721.582
726.024
712.83
713.229
736.574
-184.062
-183.321
-182.666
-185.854
-186.411
-180.432
-142.129
-141.96
-141.83
-141.922
-141.249
-141.313
2009.14
2008.4
2008.72
2012.7
2014.08
2011.94
-67.2405
-67.2451
-67.2296
-67.4647
-67.5778
-67.0817
-116.587
-116.617
-116.572
-116.533
-116.477
-116.501
2627.83
2628.8
2629.28
2630.31
2634.68
2623.28
-33.8776
-33.7841
-33.6982
-34.1314
-34.1436
-33.3363
-89.0985
-89.0854
-89.0747
-89.0315
-88.9977
-89.0202
3525.31
3525.43
3526.45
3525.51
3527.41
3523.96
174.018
174.289
174.528
174.036
174.8
173.735
-75.4107
-75.4035
-75.399
-75.3771
-75.3581
-75.3846
3737.58
3737.56
3738.1
3737.96
3737.56
3738.41
538.71
539.249
539.238
539.233
540.473
537.749
-67.4901
-67.4798
-67.477
-67.4707
-67.4593
-67.4852
3604.55
3605.02
3605.26
3605.46
3605.31
3605.92
406.408
406.997
406.746
406.927
407.113
406.354
-63.3345
-63.3102
-63.3086
-63.3057
-63.2986
-63.3131
-41.1301
-41.1301
-41.1301
-41.1301
-41.1301
-41.1301
-52.0791
-52.0791
-52.0791
-52.0791
-52.0791
-52.0791
-63.1204
-63.1204
-63.1204
-63.1204
-63.1204
-63.1204
-40.9542
-40.9542
-40.9542
-40.9542
-40.9542
-40.9542
-51.9707
-51.9707
-51.9707
-51.9707
-51.9707
-51.9707
-63.0841
-63.0841
-63.0841
-63.0841
-63.0841
-63.0841
-40.5907
-40.5907
-40.5906
-40.5906
-40.5906
-40.5906
-51.7497
-51.7497
-51.7497
-51.7497
-51.7497
-51.7496
-63.0128
-63.0128
-63.0128
-63.0128
-63.0128
-63.0128
-40.0105
-40.0105
-40.0105
-40.0105
-40.0105
-40.0105
-51.4114
-51.4114
-51.4114
-51.4114
-51.4114
-51.4114
-62.9119
-62.9119
-62.9119
-62.9119
-62.9119
-62.9119
-39.1648
-39.1648
-39.1649
-39.165
-39.1651
-39.1651
-50.9613
-50.9613
-50.9614
-50.9615
-50.9615
-50.9615
-62.8019
-62.8019
-62.8019
-62.802
-62.802
-62.802
-37.9982
-37.9983
-37.9986
-37.9988
-37.999
-37.9989
-50.4549
-50.455
-50.4552
-50.4554
-50.4556
-50.4555
-62.7344
-62.7345
-62.7347
-62.7349
-62.735
-62.7349
-36.6164
-36.6163
-36.6169
-36.6172
-36.6181
-36.616
-50.2058
-50.2059
-50.2068
-50.2078
-50.2083
-50.2071
-62.851
-62.8515
-62.8528
-62.8547
-62.8557
-62.8544
-34.904
-34.9029
-34.9056
-34.9034
-34.9151
-34.8954
-51.0596
-51.0575
-51.06
-51.0615
-51.0637
-51.0515
-64.89
-64.8906
-64.8938
-64.8984
-64.9016
-64.8945
-33.984
-33.9841
-33.9992
-33.9633
-34.0033
-33.9871
-47.8151
-47.8132
-47.8163
-47.8121
-47.828
-47.814
-60.9349
-60.9333
-60.9299
-60.9302
-60.9321
-60.9279
-47.624
-47.6247
-47.6545
-47.5945
-47.627
-47.6288
-72.9104
-72.8195
-72.8233
-72.8999
-72.9077
-72.664
-75.8693
-75.8548
-75.8587
-75.8607
-75.8577
-75.8355
-84.8673
-84.7442
-84.8155
-84.9798
-85.0074
-84.8127
-73.2283
-73.2593
-73.2734
-73.136
-73.1957
-73.2365
-66.8395
-66.846
-66.8438
-66.8271
-66.8513
-66.8757
-211.773
-211.523
-212.032
-210.993
-210.833
-213.184
-204.259
-205.222
-205.205
-202.981
-201.718
-206.964
-109.95
-109.917
-109.897
-109.727
-109.552
-109.98
)
;

boundaryField
{
    seabed_topleft_surface
    {
        type            calculated;
        value           nonuniform List<scalar> 
72
(
5858.27
5858.23
5858.26
5858.28
5858.26
5858.29
5807.22
5807.2
5807.19
5807.24
5807.25
5807.19
6148.51
6148.5
6148.5
6148.53
6148.53
6148.5
6753.02
6753.02
6753.04
6753.05
6753.05
6753.04
7451.8
7451.77
7451.79
7451.78
7451.77
7451.79
8279.79
8279.79
8279.8
8279.82
8279.84
8279.82
9600.93
9600.92
9600.92
9600.93
9600.92
9600.94
11990.3
11990.3
11990.3
11990.3
11990.3
11990.3
15208.8
15208.8
15208.8
15208.8
15208.8
15208.9
19036.5
19036.4
19036.4
19036.4
19036.4
19036.4
22370.5
22370.2
22370.3
22370.2
22370.2
22370.4
25003.7
25003.6
25003.6
25003.6
25003.5
25003.6
)
;
    }
    seabed_topright_surface
    {
        type            calculated;
        value           nonuniform List<scalar> 
72
(
5.56391
5.5639
5.56388
5.56386
5.56383
5.56381
5.82801
5.82799
5.82796
5.8279
5.82783
5.82779
6.36647
6.36642
6.36633
6.36622
6.36613
6.36607
7.20094
7.20085
7.20076
7.2007
7.20067
7.20066
8.36461
8.36457
8.36462
8.36472
8.36489
8.36502
9.8979
9.89799
9.89822
9.89853
9.89887
9.89912
11.8396
11.8397
11.8398
11.84
11.8401
11.8403
14.2168
14.2167
14.2162
14.2157
14.2151
14.2148
16.97
16.9696
16.9689
16.9679
16.9672
16.9669
19.9226
19.9224
19.9227
19.9214
19.9227
19.9234
23.2063
23.2057
23.2089
23.2056
23.2094
23.2124
23.6917
23.6886
23.693
23.6905
23.6923
23.6972
)
;
    }
    breakwater_top_surface
    {
        type            calculated;
        value           nonuniform List<scalar> 
36
(
2250.42
2251.26
2259.04
2242.43
2240.65
2279.31
4007.55
4005.91
4006.42
4015.1
4018.41
4012.36
5129.72
5131.39
5131.18
5136.39
5146.42
5118.65
6653.6
6654.08
6654.95
6654.75
6658.94
6649.94
6948.09
6948.18
6948.85
6948.77
6948.37
6949.22
6814.98
6815.53
6815.89
6816.21
6816.12
6816.58
)
;
    }
    breakwater_left_surface
    {
        type            calculated;
        value           nonuniform List<scalar> 
24
(
20240.1
20239.9
20240
20239.9
20239.9
20240
12795.8
12795.5
12795.5
12795.4
12795.4
12795.6
7734.17
7734.38
7734.23
7734.2
7734.3
7734.21
4622.8
4624.32
4623.48
4623.45
4623.89
4623
)
;
    }
    breakwater_right_surface
    {
        type            calculated;
        value           nonuniform List<scalar> 
24
(
18.7867
18.7836
18.788
18.7855
18.7873
18.7922
1.84577
1.8418
1.84001
1.84593
1.82878
1.85957
16.4474
16.3886
16.4264
16.4295
16.3585
16.4915
-97.2061
-97.2628
-97.7097
-96.7137
-97.3712
-97.5721
)
;
    }
    water_front_surface
    {
        type            calculated;
        value           nonuniform List<scalar> 
186
(
2947.52
2898.01
3054.66
3341.26
3689.47
4205.87
5165.05
7201.14
10419.7
14247.3
17581.6
20223.7
-54.2491
-77.5803
-87.1272
-55.2481
40.5459
167.076
278.76
741.331
2327.95
5879.7
9051.31
12779.7
-48.7731
-50.8664
-55.3895
-49.6145
-17.7794
-2.36091
-3.13417
11.1177
109.395
983.301
5008.41
7718.42
-54.5233
-54.2568
-50.406
-36.89
-12.0884
2.47345
-5.28583
-0.742172
8.33668
198.268
2728.4
4607.4
0.642058
0.906152
1.44461
2.27909
3.44276
4.97604
6.91772
9.29498
12.0482
15.0007
18.2844
18.7699
-9.43549
-9.17154
-8.63365
-7.80262
-6.64863
-5.12711
-3.16844
-0.664678
2.4425
5.79734
9.11279
1.82926
-19.7773
-19.5243
-19.0033
-18.1822
-17.0088
-15.4116
-13.3045
-10.5115
-6.73705
-1.40131
7.62427
16.4312
-30.3606
-30.1376
-29.6806
-28.9711
-27.9827
-26.6631
-24.8504
-22.0294
-16.8577
-5.02395
-4.63649
-97.2683
-57.5184
-62.1646
-67.7486
-56.6414
-61.1919
-67.2583
-53.6067
-58.7148
-66.1817
-47.5156
-54.238
-64.5784
-38.6817
-48.402
-62.7706
-29.6348
-45.2241
-61.244
-25.3131
-43.3588
-60.8505
-24.4813
-51.6691
-60.8567
-28.1897
-49.0791
-66.1465
-35.9455
-60.5599
-72.2337
19.0474
-203.495
-87.9069
2358.74
-68.2483
-70.1846
719
-184.062
-142.129
2009.14
-67.2405
-116.587
2627.83
-33.8776
-89.0985
3525.31
174.018
-75.4107
3737.58
538.71
-67.4901
3604.55
406.408
-63.3345
-41.1301
-52.0791
-63.1204
-40.9542
-51.9707
-63.0841
-40.5907
-51.7497
-63.0128
-40.0105
-51.4114
-62.9119
-39.1648
-50.9613
-62.8019
-37.9982
-50.4549
-62.7344
-36.6164
-50.2058
-62.851
-34.904
-51.0596
-64.89
-33.984
-47.8151
-60.9349
-47.624
-72.9104
-75.8693
-84.8673
-73.2283
-66.8395
-211.773
-204.259
-109.95
)
;
    }
    water_back_surface
    {
        type            calculated;
        value           nonuniform List<scalar> 
186
(
2947.53
2897.98
3054.65
3341.27
3689.46
4205.89
5165.07
7201.19
10419.7
14247.3
17581.5
20223.6
-54.2534
-77.5789
-87.1237
-55.2422
40.55
167.059
278.763
741.353
2327.94
5879.56
9051.16
12779.6
-48.777
-50.8673
-55.3894
-49.6151
-17.7775
-2.36322
-3.1333
11.1088
109.385
983.197
5008.15
7718.46
-54.5245
-54.2573
-50.406
-36.89
-12.0895
2.47172
-5.28697
-0.750673
8.34127
198.285
2728.35
4607.6
0.641956
0.90593
1.44421
2.27881
3.44316
4.97727
6.91841
9.29291
12.045
15.0016
18.2905
18.7754
-9.43556
-9.17171
-8.63384
-7.80241
-6.64785
-5.12649
-3.16974
-0.66801
2.44291
5.80597
9.13238
1.84306
-19.7773
-19.5244
-19.0033
-18.1818
-17.0082
-15.4121
-13.3066
-10.5125
-6.73087
-1.37084
7.73805
16.4753
-30.3606
-30.1376
-29.6804
-28.9708
-27.9828
-26.6642
-24.8515
-22.0267
-16.8419
-4.94048
-4.63976
-97.6359
-57.5189
-62.1646
-67.7485
-56.6415
-61.1919
-67.2584
-53.6067
-58.7149
-66.1817
-47.5156
-54.2382
-64.5783
-38.6818
-48.4021
-62.7705
-29.6348
-45.2242
-61.244
-25.3141
-43.3595
-60.8504
-24.4897
-51.6719
-60.8561
-28.1803
-49.0653
-66.1453
-35.9456
-60.549
-72.2422
18.9155
-203.573
-87.9099
2359.92
-68.197
-70.1675
736.574
-180.432
-141.313
2011.94
-67.0817
-116.501
2623.28
-33.3363
-89.0202
3523.96
173.735
-75.3846
3738.41
537.749
-67.4852
3605.92
406.354
-63.3131
-41.1301
-52.0791
-63.1204
-40.9542
-51.9707
-63.0841
-40.5906
-51.7496
-63.0128
-40.0105
-51.4114
-62.9119
-39.1651
-50.9615
-62.802
-37.9989
-50.4555
-62.7349
-36.616
-50.2071
-62.8544
-34.8954
-51.0515
-64.8945
-33.9871
-47.814
-60.9279
-47.6288
-72.664
-75.8355
-84.8127
-73.2365
-66.8757
-213.184
-206.964
-109.98
)
;
    }
    water_left_surface
    {
        type            calculated;
        value           nonuniform List<scalar> 
42
(
2957.49
2957.44
2957.47
2957.48
2957.45
2957.5
-54.2258
-54.2293
-54.2312
-54.23
-54.2314
-54.2302
-48.7569
-48.7581
-48.7599
-48.7594
-48.7597
-48.7608
-54.5074
-54.5073
-54.5076
-54.508
-54.5083
-54.5086
-57.5184
-57.5185
-57.5186
-57.5188
-57.5189
-57.5189
-62.1646
-62.1646
-62.1646
-62.1646
-62.1646
-62.1646
-67.7486
-67.7486
-67.7486
-67.7486
-67.7486
-67.7485
)
;
    }
    water_right_surface
    {
        type            calculated;
        value           nonuniform List<scalar> 
42
(
0.658914
0.658896
0.65888
0.658857
0.658832
0.658812
-9.41897
-9.41898
-9.41899
-9.41901
-9.41903
-9.41905
-19.7611
-19.7611
-19.7611
-19.7611
-19.7611
-19.7611
-30.3447
-30.3447
-30.3447
-30.3447
-30.3447
-30.3447
-41.1301
-41.1301
-41.1301
-41.1301
-41.1301
-41.1301
-52.0791
-52.0791
-52.0791
-52.0791
-52.0791
-52.0791
-63.1204
-63.1204
-63.1204
-63.1204
-63.1204
-63.1204
)
;
    }
    water_top_surface
    {
        type            calculated;
        value           nonuniform List<scalar> 
180
(
-70.5712
-70.5714
-70.5714
-70.5713
-70.5713
-70.571
-70.4051
-70.4054
-70.4054
-70.4054
-70.4054
-70.405
-69.8293
-69.8296
-69.8296
-69.8296
-69.8296
-69.8293
-69.3187
-69.3188
-69.3188
-69.3188
-69.3188
-69.3186
-68.8955
-68.8955
-68.8954
-68.8954
-68.8955
-68.8954
-68.7282
-68.7282
-68.7282
-68.7282
-68.7283
-68.7283
-68.685
-68.685
-68.685
-68.685
-68.685
-68.6849
-68.7597
-68.7598
-68.7598
-68.7598
-68.7597
-68.7597
-68.6701
-68.6701
-68.6701
-68.6701
-68.6701
-68.6701
-68.7045
-68.7045
-68.7045
-68.7045
-68.7045
-68.7045
-132.525
-132.626
-132.579
-132.584
-132.651
-132.493
-90.4067
-90.4916
-90.4518
-90.44
-90.4701
-90.4194
-219.067
-218.593
-218.829
-218.889
-215.263
-216.384
-125.499
-125.577
-125.436
-125.82
-125.772
-124.804
-85.5564
-85.5628
-85.5094
-85.6596
-85.6745
-85.4501
-86.4675
-86.5083
-86.4952
-86.5056
-86.6304
-86.3257
-83.6254
-83.6466
-83.6308
-83.6483
-83.6872
-83.6104
-96.7235
-96.7553
-96.7361
-96.7266
-96.7189
-96.738
-68.67
-68.67
-68.67
-68.67
-68.67
-68.67
-68.67
-68.67
-68.67
-68.67
-68.67
-68.67
-68.67
-68.67
-68.67
-68.67
-68.67
-68.67
-68.67
-68.67
-68.67
-68.67
-68.67
-68.67
-68.67
-68.67
-68.67
-68.67
-68.67
-68.67
-68.67
-68.67
-68.67
-68.67
-68.67
-68.67
-68.67
-68.67
-68.67
-68.67
-68.67
-68.67
-68.67
-68.67
-68.67
-68.67
-68.67
-68.67
-68.6712
-68.6712
-68.6712
-68.6712
-68.6712
-68.6712
-68.7207
-68.7209
-68.7208
-68.7207
-68.7204
-68.7221
-68.7228
-68.7229
-68.7229
-68.7227
-68.7223
-68.7241
-385.818
-393.691
-399.112
-374.721
-362.993
-407.298
)
;
    }
}


// ************************************************************************* //
