/*--------------------------------*- C++ -*----------------------------------*\
| =========                 |                                                 |
| \\      /  F ield         | OpenFOAM: The Open Source CFD Toolbox           |
|  \\    /   O peration     | Version:  v1612+                                |
|   \\  /    A nd           | Web:      www.OpenFOAM.com                      |
|    \\/     M anipulation  |                                                 |
\*---------------------------------------------------------------------------*/
FoamFile
{
    version     2.0;
    format      ascii;
    class       volScalarField;
    location    "3.85";
    object      p_rgh;
}
// * * * * * * * * * * * * * * * * * * * * * * * * * * * * * * * * * * * * * //

dimensions      [1 -1 -2 0 0 0 0];

internalField   nonuniform List<scalar> 
1116
(
5858.27
5858.23
5858.26
5858.28
5858.26
5858.29
5807.22
5807.2
5807.19
5807.24
5807.25
5807.19
6148.51
6148.5
6148.5
6148.53
6148.53
6148.5
6753.02
6753.02
6753.04
6753.05
6753.05
6753.04
7451.8
7451.77
7451.79
7451.78
7451.77
7451.79
8279.79
8279.79
8279.8
8279.82
8279.84
8279.82
9600.93
9600.92
9600.92
9600.93
9600.92
9600.94
11990.3
11990.3
11990.3
11990.3
11990.3
11990.3
15208.8
15208.8
15208.8
15208.8
15208.8
15208.9
19036.5
19036.4
19036.4
19036.4
19036.4
19036.4
22370.5
22370.2
22370.3
22370.2
22370.2
22370.4
25003.7
25003.6
25003.6
25003.6
25003.5
25003.6
-33.4957
-33.5274
-33.5623
-33.5312
-33.5277
-33.5486
-62.8483
-62.8462
-62.8455
-62.8459
-62.8461
-62.8469
-72.3955
-72.3932
-72.3918
-72.3917
-72.3912
-72.392
-40.5163
-40.5137
-40.5124
-40.5106
-40.5086
-40.5105
55.3578
55.3643
55.3636
55.3658
55.3722
55.3677
361.118
361.129
361.126
361.128
361.139
361.13
955.231
955.279
955.286
955.297
955.315
955.286
2740.02
2739.97
2740.03
2740.04
2740.01
2740.09
8931.6
8930.95
8931.28
8931.3
8931.08
8931.53
19182
19181.5
19181.7
19181.7
19181.5
19181.8
23384.8
23384.9
23384.9
23384.9
23384.9
23384.6
27112.9
27112.6
27112.6
27112.6
27112.5
27112.8
-24.2314
-24.2326
-24.2344
-24.2339
-24.2342
-24.2353
-26.3249
-26.3247
-26.3248
-26.3251
-26.3254
-26.3258
-30.848
-30.8473
-30.8472
-30.847
-30.8469
-30.8479
-25.0731
-25.0708
-25.071
-25.0699
-25.0693
-25.0736
6.76196
6.75551
6.75565
6.75379
6.75356
6.76386
22.1804
22.1766
22.1758
22.1743
22.1737
22.1781
21.4053
21.4045
21.4043
21.4046
21.4052
21.4061
36.4964
36.4888
36.4879
36.4862
36.4852
36.4873
194.586
194.397
194.492
194.486
194.44
194.519
8379.46
8377.89
8378.59
8378.52
8377.98
8379.15
26237.4
26236
26236.5
26236.4
26235.9
26237
31596
31596.2
31596.1
31596
31596.1
31596.1
-20.1627
-20.1627
-20.1629
-20.1633
-20.1636
-20.1639
-19.8651
-19.865
-19.8651
-19.8652
-19.8654
-19.8656
-16.0523
-16.0521
-16.052
-16.0519
-16.0519
-16.0522
-2.53878
-2.53838
-2.53819
-2.53799
-2.53804
-2.53878
22.2627
22.2659
22.2659
22.2668
22.2669
22.2615
36.8245
36.8245
36.8251
36.8252
36.8241
36.8228
29.0652
29.0642
29.0639
29.0634
29.0633
29.0641
33.6085
33.6019
33.6021
33.6001
33.5998
33.6
43.8536
43.8486
43.8448
43.8426
43.8453
43.858
2760.79
2760.31
2760.68
2760.43
2760.37
2760.4
25409.9
25423.2
25417.5
25415
25421.1
25412
37939.3
37941.3
37940.2
37940.2
37940.6
37939.7
5.56391
5.5639
5.56388
5.56386
5.56383
5.56381
5.82801
5.82799
5.82796
5.8279
5.82783
5.82779
6.36647
6.36642
6.36633
6.36622
6.36613
6.36607
7.20094
7.20085
7.20076
7.2007
7.20067
7.20066
8.36461
8.36457
8.36462
8.36472
8.36489
8.36502
9.8979
9.89799
9.89822
9.89853
9.89887
9.89912
11.8396
11.8397
11.8398
11.84
11.8401
11.8403
14.2168
14.2167
14.2162
14.2157
14.2151
14.2148
16.97
16.9696
16.9689
16.9679
16.9672
16.9669
19.9226
19.9224
19.9227
19.9214
19.9227
19.9234
23.2063
23.2057
23.2089
23.2056
23.2094
23.2124
23.6917
23.6886
23.693
23.6905
23.6923
23.6972
5.29603
5.29602
5.29601
5.29599
5.29597
5.29595
5.55998
5.55996
5.55993
5.55988
5.55984
5.55981
6.09786
6.09782
6.09777
6.09772
6.09769
6.09768
6.9289
6.92889
6.92892
6.92897
6.92904
6.9291
8.08288
8.08299
8.08316
8.08336
8.08354
8.08367
9.60441
9.60457
9.60473
9.60486
9.60496
9.60503
11.5631
11.563
11.5628
11.5624
11.562
11.5618
14.0668
14.0664
14.0657
14.0647
14.064
14.0635
17.174
17.1736
17.174
17.1724
17.174
17.1744
20.5289
20.5286
20.5323
20.5274
20.5335
20.5375
23.8443
23.8428
23.8518
23.8332
23.842
23.8639
16.5608
16.5568
16.555
16.5609
16.5438
16.5746
4.76388
4.76388
4.76388
4.76387
4.76386
4.76385
5.01686
5.01684
5.01682
5.0168
5.01679
5.01678
5.53788
5.53785
5.53784
5.53786
5.53788
5.53791
6.35896
6.35899
6.35907
6.35918
6.35928
6.35936
7.53243
7.53254
7.53269
7.53281
7.5329
7.53294
9.12955
9.12962
9.12959
9.12945
9.12927
9.12914
11.2366
11.2364
11.236
11.2354
11.2348
11.2346
14.0297
14.0292
14.0292
14.0278
14.028
14.0287
17.8041
17.8033
17.8065
17.8008
17.8061
17.8103
23.1492
23.1478
23.1683
23.1185
23.1443
23.1797
32.5415
32.5406
32.6262
32.4057
32.4738
32.6645
40.9724
40.9136
40.9514
40.9545
40.8835
41.0165
3.99026
3.99026
3.99027
3.99027
3.99027
3.99027
4.21323
4.21322
4.21322
4.21323
4.21324
4.21325
4.67028
4.67027
4.6703
4.67035
4.67041
4.67045
5.37973
5.37977
5.37985
5.37993
5.38
5.38004
6.3682
6.36824
6.36825
6.36821
6.36815
6.36809
7.68777
7.68767
7.68748
7.68709
7.68686
7.68667
9.50048
9.50006
9.50006
9.49895
9.49917
9.49933
12.3215
12.3206
12.3229
12.3183
12.3215
12.3242
17.4932
17.4904
17.5057
17.473
17.4894
17.509
29.3307
29.316
29.382
29.2282
29.281
29.4143
49.4869
49.5271
49.9247
48.8917
49.2337
49.9747
37.4639
37.3639
39.0307
35.2459
35.4318
40.4436
-13.3722
-13.3723
-13.3724
-13.3726
-13.3727
-13.3728
-8.20937
-8.20941
-8.20943
-8.20944
-8.20944
-8.20937
-3.98359
-3.98365
-3.98363
-3.9836
-3.98357
-3.98349
-12.4425
-12.4424
-12.4424
-12.4425
-12.4425
-12.4426
-7.22264
-7.22264
-7.22262
-7.22262
-7.22264
-7.22261
-3.49332
-3.49341
-3.49341
-3.4934
-3.49339
-3.49336
-9.44182
-9.44168
-9.44164
-9.44162
-9.44165
-9.44181
-4.7598
-4.75979
-4.75978
-4.7598
-4.75985
-4.75995
-2.41669
-2.41676
-2.41677
-2.41677
-2.41679
-2.4167
-3.37058
-3.3704
-3.37039
-3.37035
-3.37037
-3.37064
-0.28301
-0.28313
-0.283171
-0.28319
-0.283245
-0.283221
-0.813366
-0.813359
-0.813325
-0.813312
-0.813331
-0.813254
5.4647
5.46522
5.46526
5.46532
5.46522
5.46459
5.55295
5.55272
5.55272
5.55271
5.55265
5.55286
0.994384
0.994407
0.994464
0.994472
0.994462
0.99446
14.5109
14.5116
14.5116
14.5117
14.5116
14.5109
8.7309
8.73071
8.73075
8.73066
8.73064
8.73076
2.52104
2.52102
2.52103
2.52098
2.52098
2.52098
18.8319
18.8321
18.8315
18.8311
18.8312
18.8309
10.5962
10.5962
10.596
10.5959
10.596
10.5955
2.91455
2.91456
2.91456
2.91446
2.91461
2.91459
19.6641
19.6541
19.6529
19.6511
19.6516
19.6556
2.28592
2.27984
2.27839
2.27691
2.2769
2.28311
2.90832
2.90768
2.90748
2.90697
2.90748
2.90888
15.9882
15.9864
15.978
15.9741
15.9814
15.9976
4.87617
4.87269
4.86323
4.85818
4.86778
4.89002
-2.38147
-2.38168
-2.38239
-2.38294
-2.38026
-2.3802
12.37
12.3549
12.3557
12.3512
12.3631
12.3661
-5.74598
-5.69865
-5.70629
-5.70318
-5.69019
-5.73883
-8.43658
-8.42899
-8.42465
-8.4208
-8.42233
-8.44511
4728.19
4730.68
4729.19
4729.12
4728.87
4729.12
-32.9959
-31.8844
-32.3659
-32.4747
-32.778
-32.2034
35.1517
35.2397
35.2167
35.2261
35.2684
35.1197
25774.5
25794.4
25786.1
25785.7
25787.6
25782.2
-14.2933
-14.1695
-14.2071
-14.2057
-14.1909
-14.242
-6.41961
-6.38262
-6.38172
-6.38318
-6.38185
-6.40252
14501.7
14488.7
14523.2
14479.2
14460
14621.2
207.533
204.52
208.986
194.475
156.71
236.447
61.2904
61.0184
61.3682
61.3316
58.6385
59.6151
19994.8
19986
19988
20034.3
20053.1
20015.7
-13.2855
-13.2901
-13.2746
-13.5097
-13.6228
-13.1267
-52.8224
-52.8516
-52.8073
-52.7681
-52.7116
-52.7355
25144.9
25152.1
25146.3
25185
25240.3
25081.7
20.0774
20.1709
20.2568
19.8236
19.8114
20.6187
-25.3335
-25.3204
-25.3097
-25.2665
-25.2327
-25.2552
31679.9
31683.3
31683
31688.6
31711.2
31657.8
2749.73
2753.83
2756.75
2750.86
2761.34
2746.68
-11.6457
-11.6385
-11.634
-11.6121
-11.5931
-11.6196
32632.2
32633.2
32634.8
32635.2
32634.8
32635.7
7208.51
7215.52
7214.91
7215.24
7231.52
7195.3
-3.72513
-3.71481
-3.71204
-3.70575
-3.69433
-3.72023
32498.4
32499.6
32500.9
32502.2
32502.6
32501.9
5836.48
5845.27
5841.03
5843.28
5846.01
5835.81
0.430533
0.454823
0.456413
0.459284
0.466411
0.451942
3.01489
3.01489
3.0149
3.0149
3.01489
3.01489
1.87591
1.87592
1.87592
1.87591
1.8759
1.87589
0.644641
0.64464
0.644637
0.644632
0.644626
0.644623
3.19076
3.19075
3.19076
3.19076
3.19077
3.19077
1.98428
1.98427
1.98426
1.98426
1.98426
1.98426
0.680871
0.680868
0.680866
0.680863
0.680861
0.680864
3.55434
3.55433
3.55435
3.55438
3.5544
3.55442
2.20533
2.20533
2.20533
2.20534
2.20535
2.20536
0.752201
0.752203
0.752204
0.752203
0.752202
0.752202
4.13452
4.13452
4.13453
4.13454
4.13453
4.13453
2.54357
2.54358
2.54357
2.54356
2.54356
2.54356
0.853086
0.853088
0.853079
0.853066
0.853059
0.853061
4.98024
4.9802
4.98012
4.98002
4.97993
4.9799
2.99369
2.99366
2.9936
2.99354
2.9935
2.99351
0.963113
0.963095
0.963057
0.963017
0.962998
0.962997
6.14679
6.14667
6.14643
6.1462
6.14599
6.14606
3.50011
3.50001
3.49979
3.49957
3.49943
3.49953
1.03061
1.03051
1.03034
1.03012
1.03003
1.03006
7.5286
7.52867
7.52813
7.52777
7.52687
7.52901
3.7492
3.74908
3.74822
3.74722
3.74666
3.74785
0.914016
0.913487
0.91223
0.910308
0.909331
0.91062
9.24099
9.24211
9.23941
9.24164
9.22998
9.24967
2.89543
2.89754
2.895
2.89355
2.89131
2.90349
-1.12498
-1.12555
-1.12884
-1.13344
-1.13659
-1.12954
10.1646
10.1645
10.1495
10.1853
10.1452
10.1616
6.15665
6.15833
6.1553
6.15942
6.14313
6.15791
2.83119
2.83283
2.83625
2.83594
2.83397
2.83826
-3.30966
-3.31043
-3.3397
-3.28175
-3.31753
-3.30976
-17.8076
-17.7211
-17.7239
-17.8019
-17.8303
-17.5323
-12.0571
-12.0426
-12.0465
-12.0487
-12.0459
-12.0222
-36.133
-36.0163
-36.0702
-36.2787
-36.3676
-35.986
2.446
3.01813
3.15856
2.22109
2.05731
3.9196
-3.02551
-3.03191
-3.02969
-3.01316
-3.03767
-3.0605
1503.94
1502.36
1520.67
1478.22
1469.89
1548.81
1064.83
1073.57
1084.28
1041.46
1017.82
1100.32
248.31
255.653
260.707
238.227
227.512
268.226
)
;

boundaryField
{
    seabed_topleft_surface
    {
        type            fixedFluxPressure;
        gradient        uniform 0;
        value           nonuniform List<scalar> 
72
(
5858.27
5858.23
5858.26
5858.28
5858.26
5858.29
5807.22
5807.2
5807.19
5807.24
5807.25
5807.19
6148.51
6148.5
6148.5
6148.53
6148.53
6148.5
6753.02
6753.02
6753.04
6753.05
6753.05
6753.04
7451.8
7451.77
7451.79
7451.78
7451.77
7451.79
8279.79
8279.79
8279.8
8279.82
8279.84
8279.82
9600.93
9600.92
9600.92
9600.93
9600.92
9600.94
11990.3
11990.3
11990.3
11990.3
11990.3
11990.3
15208.8
15208.8
15208.8
15208.8
15208.8
15208.9
19036.5
19036.4
19036.4
19036.4
19036.4
19036.4
22370.5
22370.2
22370.3
22370.2
22370.2
22370.4
25003.7
25003.6
25003.6
25003.6
25003.5
25003.6
)
;
    }
    seabed_topright_surface
    {
        type            fixedFluxPressure;
        gradient        uniform 0;
        value           nonuniform List<scalar> 
72
(
5.56391
5.5639
5.56388
5.56386
5.56383
5.56381
5.82801
5.82799
5.82796
5.8279
5.82783
5.82779
6.36647
6.36642
6.36633
6.36622
6.36613
6.36607
7.20094
7.20085
7.20076
7.2007
7.20067
7.20066
8.36461
8.36457
8.36462
8.36472
8.36489
8.36502
9.8979
9.89799
9.89822
9.89853
9.89887
9.89912
11.8396
11.8397
11.8398
11.84
11.8401
11.8403
14.2168
14.2167
14.2162
14.2157
14.2151
14.2148
16.97
16.9696
16.9689
16.9679
16.9672
16.9669
19.9226
19.9224
19.9227
19.9214
19.9227
19.9234
23.2063
23.2057
23.2089
23.2056
23.2094
23.2124
23.6917
23.6886
23.693
23.6905
23.6923
23.6972
)
;
    }
    breakwater_top_surface
    {
        type            fixedFluxPressure;
        gradient        uniform 0;
        value           nonuniform List<scalar> 
36
(
14501.7
14488.7
14523.2
14479.2
14460
14621.2
19994.8
19986
19988
20034.3
20053.1
20015.7
25144.9
25152.1
25146.3
25185
25240.3
25081.7
31679.9
31683.3
31683
31688.6
31711.2
31657.8
32632.2
32633.2
32634.8
32635.2
32634.8
32635.7
32498.4
32499.6
32500.9
32502.2
32502.6
32501.9
)
;
    }
    breakwater_left_surface
    {
        type            fixedFluxPressure;
        gradient        uniform 0;
        value           nonuniform List<scalar> 
24
(
25003.7
25003.6
25003.6
25003.6
25003.5
25003.6
27112.9
27112.6
27112.6
27112.6
27112.5
27112.8
31596
31596.2
31596.1
31596
31596.1
31596.1
37939.3
37941.3
37940.2
37940.2
37940.6
37939.7
)
;
    }
    breakwater_right_surface
    {
        type            fixedFluxPressure;
        gradient        uniform 0;
        value           nonuniform List<scalar> 
24
(
23.6917
23.6886
23.693
23.6905
23.6923
23.6972
16.5608
16.5568
16.555
16.5609
16.5438
16.5746
40.9724
40.9136
40.9514
40.9545
40.8835
41.0165
37.4639
37.3639
39.0307
35.2459
35.4318
40.4436
)
;
    }
    water_front_surface
    {
        type            fixedFluxPressure;
        gradient        uniform 0;
        value           nonuniform List<scalar> 
186
(
5858.27
5807.22
6148.51
6753.02
7451.8
8279.79
9600.93
11990.3
15208.8
19036.5
22370.5
25003.7
-33.4957
-62.8483
-72.3955
-40.5163
55.3578
361.118
955.231
2740.02
8931.6
19182
23384.8
27112.9
-24.2314
-26.3249
-30.848
-25.0731
6.76196
22.1804
21.4053
36.4964
194.586
8379.46
26237.4
31596
-20.1627
-19.8651
-16.0523
-2.53878
22.2627
36.8245
29.0652
33.6085
43.8536
2760.79
25409.9
37939.3
5.56391
5.82801
6.36647
7.20094
8.36461
9.8979
11.8396
14.2168
16.97
19.9226
23.2063
23.6917
5.29603
5.55998
6.09786
6.9289
8.08288
9.60441
11.5631
14.0668
17.174
20.5289
23.8443
16.5608
4.76388
5.01686
5.53788
6.35896
7.53243
9.12955
11.2366
14.0297
17.8041
23.1492
32.5415
40.9724
3.99026
4.21323
4.67028
5.37973
6.3682
7.68777
9.50048
12.3215
17.4932
29.3307
49.4869
37.4639
-13.3722
-8.20937
-3.98359
-12.4425
-7.22264
-3.49332
-9.44182
-4.7598
-2.41669
-3.37058
-0.28301
-0.813366
5.4647
5.55295
0.994384
14.5109
8.7309
2.52104
18.8319
10.5962
2.91455
19.6641
2.28592
2.90832
15.9882
4.87617
-2.38147
12.37
-5.74598
-8.43658
4728.19
-32.9959
35.1517
25774.5
-14.2933
-6.41961
14501.7
207.533
61.2904
19994.8
-13.2855
-52.8224
25144.9
20.0774
-25.3335
31679.9
2749.73
-11.6457
32632.2
7208.51
-3.72513
32498.4
5836.48
0.430533
3.01489
1.87591
0.644641
3.19076
1.98428
0.680871
3.55434
2.20533
0.752201
4.13452
2.54357
0.853086
4.98024
2.99369
0.963113
6.14679
3.50011
1.03061
7.5286
3.7492
0.914016
9.24099
2.89543
-1.12498
10.1646
6.15665
2.83119
-3.30966
-17.8076
-12.0571
-36.133
2.446
-3.02551
1503.94
1064.83
248.31
)
;
    }
    water_back_surface
    {
        type            fixedFluxPressure;
        gradient        uniform 0;
        value           nonuniform List<scalar> 
186
(
5858.29
5807.19
6148.5
6753.04
7451.79
8279.82
9600.94
11990.3
15208.9
19036.4
22370.4
25003.6
-33.5486
-62.8469
-72.392
-40.5105
55.3677
361.13
955.286
2740.09
8931.53
19181.8
23384.6
27112.8
-24.2353
-26.3258
-30.8479
-25.0736
6.76386
22.1781
21.4061
36.4873
194.519
8379.15
26237
31596.1
-20.1639
-19.8656
-16.0522
-2.53878
22.2615
36.8228
29.0641
33.6
43.858
2760.4
25412
37939.7
5.56381
5.82779
6.36607
7.20066
8.36502
9.89912
11.8403
14.2148
16.9669
19.9234
23.2124
23.6972
5.29595
5.55981
6.09768
6.9291
8.08367
9.60503
11.5618
14.0635
17.1744
20.5375
23.8639
16.5746
4.76385
5.01678
5.53791
6.35936
7.53294
9.12914
11.2346
14.0287
17.8103
23.1797
32.6645
41.0165
3.99027
4.21325
4.67045
5.38004
6.36809
7.68667
9.49933
12.3242
17.509
29.4143
49.9747
40.4436
-13.3728
-8.20937
-3.98349
-12.4426
-7.22261
-3.49336
-9.44181
-4.75995
-2.4167
-3.37064
-0.283221
-0.813254
5.46459
5.55286
0.99446
14.5109
8.73076
2.52098
18.8309
10.5955
2.91459
19.6556
2.28311
2.90888
15.9976
4.89002
-2.3802
12.3661
-5.73883
-8.44511
4729.12
-32.2034
35.1197
25782.2
-14.242
-6.40252
14621.2
236.447
59.6151
20015.7
-13.1267
-52.7355
25081.7
20.6187
-25.2552
31657.8
2746.68
-11.6196
32635.7
7195.3
-3.72023
32501.9
5835.81
0.451942
3.01489
1.87589
0.644623
3.19077
1.98426
0.680864
3.55442
2.20536
0.752202
4.13453
2.54356
0.853061
4.9799
2.99351
0.962997
6.14606
3.49953
1.03006
7.52901
3.74785
0.91062
9.24967
2.90349
-1.12954
10.1616
6.15791
2.83826
-3.30976
-17.5323
-12.0222
-35.986
3.9196
-3.0605
1548.81
1100.32
268.226
)
;
    }
    water_left_surface
    {
        type            fixedFluxPressure;
        gradient        uniform 0;
        value           nonuniform List<scalar> 
42
(
5858.27
5858.23
5858.26
5858.28
5858.26
5858.29
-33.4957
-33.5274
-33.5623
-33.5312
-33.5277
-33.5486
-24.2314
-24.2326
-24.2344
-24.2339
-24.2342
-24.2353
-20.1627
-20.1627
-20.1629
-20.1633
-20.1636
-20.1639
-13.3722
-13.3723
-13.3724
-13.3726
-13.3727
-13.3728
-8.20937
-8.20941
-8.20943
-8.20944
-8.20944
-8.20937
-3.98359
-3.98365
-3.98363
-3.9836
-3.98357
-3.98349
)
;
    }
    water_right_surface
    {
        type            fixedFluxPressure;
        gradient        uniform 0;
        value           nonuniform List<scalar> 
42
(
5.56391
5.5639
5.56388
5.56386
5.56383
5.56381
5.29603
5.29602
5.29601
5.29599
5.29597
5.29595
4.76388
4.76388
4.76388
4.76387
4.76386
4.76385
3.99026
3.99026
3.99027
3.99027
3.99027
3.99027
3.01489
3.01489
3.0149
3.0149
3.01489
3.01489
1.87591
1.87592
1.87592
1.87591
1.8759
1.87589
0.644641
0.64464
0.644637
0.644632
0.644626
0.644623
)
;
    }
    water_top_surface
    {
        type            totalPressure;
        rho             rho;
        psi             none;
        gamma           1;
        p0              uniform 0;
        value           nonuniform List<scalar> 
180
(
-1.90117
-1.90143
-1.90136
-1.90133
-1.90134
-1.901
-1.7351
-1.73543
-1.73538
-1.73536
-1.73537
-1.73505
-1.1593
-1.15961
-1.1596
-1.15959
-1.1596
-1.15931
-0.648681
-0.648833
-0.648804
-0.648797
-0.6488
-0.648571
-0.225468
-0.22547
-0.225423
-0.225431
-0.225486
-0.225447
-0.058208
-0.0582251
-0.0582103
-0.0582316
-0.0582779
-0.0582604
-0.0149628
-0.0149878
-0.0149757
-0.0149768
-0.0149777
-0.0149259
-0.0897481
-0.0898181
-0.089766
-0.0897876
-0.0897172
-0.0897006
0
0
0
0
0
0
0
0
0
0
0
0
0
0
0
0
0
0
-21.7367
-21.8216
-21.7818
-21.77
-21.8001
-21.7494
0
0
0
0
0
0
-56.8292
-56.9072
-56.7664
-57.1503
-57.1019
-56.134
-16.8864
-16.8928
-16.8394
-16.9896
-17.0045
-16.7801
-17.7975
-17.8383
-17.8252
-17.8356
-17.9604
-17.6557
-14.9554
-14.9766
-14.9608
-14.9783
-15.0172
-14.9404
-28.0535
-28.0853
-28.0661
-28.0566
-28.0489
-28.068
0
0
0
0
0
0
0
0
0
0
0
0
0
0
0
0
0
0
0
0
0
0
0
0
0
0
0
0
0
0
0
0
0
0
0
0
0
0
0
0
0
0
0
0
0
0
0
0
0
0
0
0
0
0
0
0
0
0
0
0
0
0
0
0
0
0
0
0
0
0
0
0
)
;
    }
}


// ************************************************************************* //
