/*--------------------------------*- C++ -*----------------------------------*\
| =========                 |                                                 |
| \\      /  F ield         | OpenFOAM: The Open Source CFD Toolbox           |
|  \\    /   O peration     | Version:  v1612+                                |
|   \\  /    A nd           | Web:      www.OpenFOAM.com                      |
|    \\/     M anipulation  |                                                 |
\*---------------------------------------------------------------------------*/
FoamFile
{
    version     2.0;
    format      ascii;
    class       surfaceScalarField;
    location    "7.8";
    object      alphaPhi;
}
// * * * * * * * * * * * * * * * * * * * * * * * * * * * * * * * * * * * * * //

dimensions      [0 3 -1 0 0 0 0];

internalField   nonuniform List<scalar> 
2916
(
0.00119449
0.274387
-0.315759
-0.000459767
0.273875
-0.312398
-0.00124376
0.273911
-0.313304
-0.00105138
0.274448
-0.314823
-7.10279e-05
0.274815
-0.316022
0.274206
-0.314543
0.00113186
0.678756
-0.304834
-8.73467e-05
0.678193
-0.30198
-0.00138449
0.678444
-0.302098
-0.000585075
0.678717
-0.304304
0.00224197
0.679041
-0.306734
0.678653
-0.300732
0.000922665
0.702096
-0.0242326
8.98064e-05
0.701365
-0.0223085
-0.00133551
0.701656
-0.0217569
-0.00032826
0.701857
-0.0241169
0.00249565
0.702246
-0.0259977
0.70147
-0.0202907
-0.000320905
0.515913
0.186516
9.29871e-05
0.514012
0.186952
-2.73069e-06
0.514747
0.187018
2.31024e-05
0.515225
0.186619
0.000337255
0.515631
0.186313
0.514659
0.187161
-0.00101105
0.229946
0.286991
0.000127543
0.224497
0.288388
0.000774227
0.226167
0.287945
0.00010842
0.22826
0.287643
-0.00121458
0.229681
0.287286
0.225594
0.287863
-0.000616244
-0.0525142
0.239253
0.000128958
-0.0588583
0.239148
0.000997084
-0.0573737
0.239109
0.000102445
-0.0540331
0.239447
-0.0012422
-0.0521049
0.2393
-0.058533
0.239326
-0.000344813
-0.256554
0.163741
4.47461e-05
-0.259266
0.160687
0.000450249
-0.258853
0.161359
-0.000104785
-0.256724
0.163004
0.000833317
-0.256558
0.163133
-0.258986
0.161428
0.00144671
-0.355951
0.0861417
0.0002946
-0.354272
0.0851317
-0.000785939
-0.35459
0.0854905
0.000957805
-0.355502
0.0856285
0.00515199
-0.3582
0.0856384
-0.353515
0.0879647
-0.000441001
-0.339701
-0.00345145
0.000292148
-0.338234
-0.00380711
0.000642186
-0.338199
-0.00376799
0.000713642
-0.339657
-0.00356775
0.000896807
-0.342808
-0.00366458
-0.33695
-0.00279177
-0.001273
-0.273027
-0.0420171
0.000223201
-0.275427
-0.0404764
0.00229688
-0.27489
-0.0412172
0.000386116
-0.273399
-0.0413091
-0.00403351
-0.274144
-0.041574
-0.276521
-0.0402567
-0.00272317
-0.193606
-0.0403814
0.000468614
-0.20064
-0.0404979
0.00459021
-0.200312
-0.0408959
0.000705407
-0.19395
-0.0396219
-0.00851088
-0.190673
-0.0391072
-0.203908
-0.0425129
0.000956101
-0.123691
-0.000598778
-0.12747
-0.000889816
-0.128179
-0.000524865
-0.123389
0.00271835
-0.122567
-0.129571
0.00355063
0.488968
-0.930055
0.000359735
0.489468
-0.918262
0.00208446
0.485663
-0.921059
0.00132031
0.491383
-0.926427
-0.00523741
0.498944
-0.929566
0.483004
-0.923878
-0.00165394
0.910609
-0.519795
0.000458815
0.905538
-0.515629
0.004031
0.904432
-0.518199
0.00225618
0.910741
-0.51758
-0.0036346
0.917761
-0.517216
0.902446
-0.517712
0.000589126
1.11371
-0.139143
0.000426378
1.10969
-0.136995
-0.000118963
1.10976
-0.136578
0.00118601
1.1133
-0.139134
0.00412146
1.11744
-0.140556
1.10868
-0.133385
0.000168467
1.08676
0.152015
0.000120931
1.08534
0.150118
-0.00138918
1.0855
0.151251
-0.000159722
1.08664
0.150979
0.00456248
1.08734
0.1509
1.08548
0.152686
0.00056597
0.90592
0.186285
0.00019281
0.90627
0.188288
1.63487e-05
0.904786
0.18888
0.000369632
0.907105
0.186112
0.00151487
0.907347
0.185157
0.905902
0.189374
0.00583008
0.476175
0.0543913
0.000274068
0.482928
0.0577539
-0.00345489
0.479663
0.0580019
-0.00023314
0.479449
0.0545468
0.00549138
0.477426
0.0533762
0.48165
0.0589481
0.00287445
0.212743
0.00269121
0.000207155
0.217851
0.00254666
-0.00236852
0.216181
0.00264009
-0.000900845
0.214862
0.00263196
0.00454518
0.212879
0.00252088
0.218457
0.00267024
-0.00060014
0.185552
-0.00379596
0.000300617
0.191525
-0.0032038
0.000307398
0.190742
-0.00338663
0.00050516
0.185368
-0.00364932
0.00182961
0.18327
-0.00382981
0.18969
-0.00363297
-0.00190453
0.144006
-0.014131
-4.40428e-05
0.149252
-0.0131948
0.000406811
0.14887
-0.0134689
-0.000571101
0.14405
-0.0138418
-0.00317496
0.13976
-0.0148068
0.153507
-0.0114488
-0.00386227
0.0699785
-0.0166849
-5.46142e-05
0.0685112
-0.015935
0.00254722
0.0695077
-0.0158985
2.48195e-06
0.0697488
-0.0165234
-0.00686105
0.068669
-0.0169194
0.0706655
-0.016041
-0.00364962
0.0206156
-0.00565614
0.00047956
0.0114742
-0.00517792
0.00408622
0.0129549
-0.00512407
0.00159777
0.0202801
-0.00543888
-0.00652123
0.0261396
-0.00560521
0.0102162
-0.00515896
0.00302814
-0.0170019
0.000188248
-0.0189091
-0.00167282
-0.0187554
0.000741389
-0.0166923
0.00494329
-0.0135771
-0.0184453
0.0040658
0.265742
-0.487965
0.00191589
0.266409
-0.475764
-1.98164e-05
0.265811
-0.480238
0.00214068
0.266115
-0.482663
8.04184e-05
0.267315
-0.48159
0.264536
-0.484709
-0.0012553
0.333562
-0.0227076
-0.000550756
0.334223
-0.02576
0.00241056
0.332338
-0.0294688
9.88614e-05
0.333919
-0.0210479
-0.00480292
0.335894
-0.0146703
0.330646
-0.0319515
-0.00137807
0.617644
-0.00167448
-0.000319304
0.610801
-0.00102959
0.00149712
0.608071
-0.00126579
-0.000503077
0.616641
-0.00163162
-0.00290019
0.620455
-0.00163569
0.605604
-0.00118883
-0.0016763
0.836266
-0.000631458
-0.000251297
0.83301
-0.000583775
0.00143219
0.831396
-0.000617886
0.000156005
0.83586
-0.000679072
-0.00291661
0.837834
-0.000820102
0.829646
-0.000450145
0.000478008
0.776909
-0.000287316
2.67341e-05
0.777713
-0.000216811
-4.40886e-05
0.776999
-0.00026592
0.000290666
0.777312
-0.000240792
-0.000102761
0.779548
-0.000154954
0.773715
-8.89539e-05
0.00245605
0.39716
-7.43688e-06
-9.31105e-05
0.391098
-8.49117e-06
-0.00236586
0.38952
-1.0379e-05
-0.00148833
0.398902
-6.74397e-06
0.00141971
0.407954
-3.54223e-06
0.375713
-4.19349e-06
0.00457272
0.0880649
0.00037656
0.000202711
0.104262
0.000442714
-0.00406767
0.100262
0.000453023
-0.000296915
0.0897911
8.42627e-05
0.0101754
0.0842991
9.78985e-05
0.105197
0.000665345
0.00184505
0.00305413
-0.000974857
-0.000495922
0.0132863
-0.00123614
-0.0033571
0.0116239
-0.00118133
0.00158034
0.00282009
-0.000909023
0.0135662
-0.00423105
-0.000483116
0.0252119
-0.00137995
-0.00307535
-0.0168986
0.000867817
-0.000229532
-0.0175717
0.000906391
0.00161581
-0.0174838
0.000915886
-0.00120977
-0.0174089
0.00094452
-0.00754146
-0.0174995
0.000939165
-0.0142352
0.000776044
-0.000466323
-0.024048
1.72811e-05
-0.000274712
-0.0275528
1.40548e-05
-0.000227723
-0.0272
1.35093e-05
-0.000489372
-0.0245178
1.49806e-05
-0.00180413
-0.0228205
1.25882e-07
-0.0272348
7.28308e-05
0.000813201
-0.0161746
-0.00366312
-0.000636224
-0.0160897
-0.0033212
-0.00193585
-0.0158078
-0.00350806
-0.000790521
-0.0168144
-0.00392598
0.00156713
-0.016929
-0.00474653
-0.0155344
-0.00365025
0.00185364
-0.0219404
-0.000633458
-0.0191068
-0.00245577
-0.0193889
-0.0013257
-0.0222616
0.0027079
-0.0244821
-0.0187964
0.00312394
0.0222219
-0.000422613
-0.00144149
0.0259734
-0.000254871
-0.00852867
0.0297266
-0.00023977
-0.00413159
0.0205641
-0.000430923
0.00708694
0.0138048
-0.000792843
0.0322759
-0.000310286
2.73004e-05
0.000325671
-0.000871883
-1.54455e-05
0.000579391
-0.000358884
-3.38342e-05
0.000643812
-0.000399323
-4.648e-06
0.000308404
-0.000850831
2.6244e-05
0.000138893
-0.00106729
0.000744405
-0.000416555
2.10107e-06
4.53713e-05
-0.00142997
-1.17346e-06
5.93258e-05
-0.000537837
-4.26806e-06
6.66703e-05
-0.000718358
-6.83152e-06
4.82571e-05
-0.00139985
4.21395e-06
2.48493e-05
-0.00155407
6.16873e-05
-0.00053188
2.74037e-06
2.03499e-05
-0.000618489
6.3954e-07
2.97848e-05
-0.000560222
-1.84537e-06
3.24486e-05
-0.00058924
-7.23634e-07
2.45315e-05
-0.000662307
5.0677e-06
1.43036e-05
-0.000815215
2.2273e-05
-0.000409797
-1.21076e-07
9.61015e-06
-0.000278797
7.76894e-07
1.05005e-05
-0.000200586
2.30046e-06
1.25074e-05
-0.000249816
2.53767e-06
8.66634e-06
-0.000227037
6.25594e-07
4.60606e-06
-0.000144741
5.48786e-06
-7.28524e-05
-1.79818e-07
8.87994e-07
-1.01835e-08
3.64217e-09
8.57039e-07
-1.39454e-07
2.3113e-07
8.85233e-07
-2.13243e-07
1.0982e-07
7.06705e-07
-5.91393e-08
-1.14497e-07
4.83581e-07
-4.98569e-07
5.44979e-07
-1.5705e-08
-4.28466e-06
0.000371267
8.20197e-06
-6.59103e-05
0.000582033
-7.90519e-05
-0.000105841
0.000554639
-6.30211e-05
-0.000294956
0.000254406
1.79103e-05
-3.39903e-05
-0.000231126
6.68738e-05
0.000759476
-0.000128848
7.54923e-05
-0.00101054
0.000130398
7.82314e-06
-0.000960754
0.000164078
-1.60583e-05
-0.000977463
0.000163084
8.0166e-05
-0.00108105
0.000127523
0.000265263
-0.00120835
0.000120863
-0.0006995
0.000153804
-6.18776e-05
-0.000151083
2.75307e-05
-2.09211e-05
-0.000178984
3.47153e-05
1.1803e-05
-0.00017495
3.39962e-05
-4.36272e-05
-0.000153329
2.8622e-05
-0.000227968
-0.000150264
2.72373e-05
-0.000241364
3.83783e-05
3.31735e-06
-0.000140943
-4.65988e-08
-8.50934e-06
-0.000158168
1.73526e-11
-1.74681e-05
-0.000157211
-1.412e-08
-1.39688e-05
-0.000145531
-5.1288e-08
-1.87025e-05
-0.000148478
-8.33734e-08
-0.000194075
2.63267e-07
-4.47885e-07
-0.00390632
-0.000168092
6.07805e-06
-0.00355174
-0.00016387
1.14307e-05
-0.00369466
-0.000168178
5.72721e-06
-0.00405718
-0.000172314
-6.36861e-06
-0.0047618
-0.000197021
-0.00377937
-0.000174569
-2.75644e-05
-0.0166344
9.52487e-05
-0.0165154
0.000234883
-0.0164696
0.000152738
-0.0165743
-0.000158497
-0.017103
-0.0163828
-0.0251854
0.0396267
-0.0150242
-0.0235943
-0.0139095
0.0100434
0.0049324
-0.0240888
-0.00593795
0.00460188
0.00154316
-0.0012344
0.0256439
-0.0368529
0.0129482
0.03095
-0.0113101
-0.012202
0.0394827
0.00877452
-0.00248621
-0.0667766
0.0407672
0.0424081
-0.0819568
0.0103408
0.0229477
-0.0264925
0.0440882
-0.0151046
-0.0451019
0.0454076
0.0205998
-0.00470205
0.0107286
-0.0230731
0.0433179
0.0310039
-0.132172
0.0391433
0.0285747
-0.09089
0.0253341
-0.0251693
-0.0198049
0.0477351
-0.0497387
-0.0758743
0.0573315
-0.0459049
0.0140779
0.0120023
-0.099408
0.0274735
0.0190839
-0.130724
0.0185794
0.0217254
-0.0640308
0.0167297
-0.0156587
-0.00721859
0.0302939
-0.0160366
-0.0845424
0.0305186
-0.0616903
0.0267142
0.00972654
-0.118955
0.00842451
0.00325646
-0.125215
0.00734348
0.00102098
-0.0915361
0.0113829
-0.00043392
-0.0386566
0.0063324
-0.00144836
-0.0652878
0.0133799
-0.0700727
0.00998141
0.0137093
-0.122473
-0.00199567
0.0108002
-0.126512
-0.000567423
0.00719034
-0.125153
-0.000780103
0.0095558
-0.132173
0.00749256
0.00153948
-0.077183
0.00811555
-0.0749348
0.0024229
-0.000433366
-0.113605
-0.000157191
0.00202316
-0.120104
-2.10738e-05
0.00752138
-0.121299
-1.55671e-05
0.0126456
-0.12626
-0.000405095
7.25522e-05
-0.108545
-0.00232484
-0.0850173
-0.00015973
-0.0128509
-0.0924534
-2.54846e-08
-0.0112452
-0.113033
-1.79194e-06
0.00067993
-0.0987328
-2.83639e-07
0.00693294
-0.0805933
-4.30498e-06
-0.000130281
-0.0863528
-7.8176e-05
-0.0804364
-2.6507e-06
-0.0195019
-0.0717996
0.00363627
-0.0213845
-0.101758
-0.000387347
-0.00431763
-0.0850184
-3.46819e-05
-0.00312609
-0.0462264
-6.31338e-06
-0.00523228
-0.0519796
0.00116644
-0.0911506
-0.000248683
-0.0299223
-0.0510932
0.00992105
-0.0400423
-0.0827862
0.00054598
-0.0223584
-0.0743089
-0.00241635
-0.00591689
-0.0332035
-0.000600963
0.00362725
-0.0378463
-0.0033265
-0.0757656
-0.00115101
-0.0122478
-0.0324691
0.00364778
-0.0400532
-0.0500027
-0.00486769
-0.0343273
-0.0503119
-0.00404311
0.0022843
-0.0292364
-0.0200867
0.0337562
-0.0258212
-0.0292434
-0.0384561
0.00705333
-0.00864013
-0.0092907
-0.0129163
-0.0258938
-0.00259059
-0.0459148
0.011689
-0.0328331
0.0265652
-0.0303454
-0.00128413
-0.00891383
0.0777034
-0.0848915
-0.0122313
0.0148634
-0.00397545
-0.00182752
0.032992
-0.0524739
0.000532675
-0.0216951
0.0155791
0.00403203
-0.0176012
0.0252667
0.0675893
-0.079717
0.0456209
0.102087
-0.0618132
0.0138323
0.00537684
0.0583168
-0.00309478
0.00509189
0.0434462
-0.0522105
-0.0196682
0.0890869
-0.0569919
-0.00281498
0.0326874
0.101507
-0.0994954
0.023174
0.0103356
0.00814526
-0.000774437
-0.00139519
0.0439336
-0.0190082
-0.0057093
0.032723
-0.0307742
-0.0158867
0.0233314
-0.0549018
-0.0231044
0.021814
0.00845029
-0.051728
-0.000107349
0.000164549
0.00777962
-0.00772829
-0.00369398
-0.000868046
-0.00903982
-0.0142286
0.00423763
-0.0175939
-0.0121173
0.00507143
-0.0176299
-0.0175166
0.000866867
-0.010275
0.00313268
-0.000489003
0.00222209
-0.000207172
-0.00385904
0.000538222
-0.00011153
-0.00341457
-0.00456722
-0.000213816
-0.00140004
-0.00945589
0.00194115
0.00049211
-0.00813094
0.000524469
-0.00183403
0.00132251
2.60586e-05
0.000165982
-9.64107e-05
2.92386e-06
2.10846e-05
-2.74346e-05
-0.001198
1.21071e-05
-0.000211272
-0.00116786
0.000133402
-0.00047966
0.00016063
-0.000424902
-0.000301633
0.000160995
-0.000197244
4.91935e-07
1.07772e-05
-2.7573e-06
1.19637e-08
1.44945e-06
-1.04407e-06
-3.1548e-06
1.91165e-07
-5.88735e-07
-0.000272426
1.97064e-06
-4.1647e-06
-1.37483e-06
5.75872e-06
-3.23938e-05
1.74767e-06
-2.62453e-06
6.82731e-07
1.4826e-05
-4.61248e-08
2.71728e-09
3.49312e-07
-8.7492e-08
-1.67411e-07
1.99989e-07
-1.49966e-07
-2.37076e-06
1.4e-07
-2.38294e-07
-1.5823e-07
-7.49443e-05
1.34567e-08
-1.85732e-06
-1.00013e-07
0.000644626
0.000652785
5.14787e-05
3.74667e-05
0.000158296
8.84279e-06
7.2495e-07
2.20738e-06
8.71986e-08
5.33911e-08
-1.00669e-06
-4.79618e-06
3.50889e-05
-6.28315e-05
-1.14535e-06
-0.0001468
-6.98175e-05
0.000738178
-0.0056457
0.000250414
0.00258421
-0.00175166
0.000339887
6.82647e-05
2.03044e-06
9.72203e-05
1.37042e-05
-0.000291653
-0.000256247
8.66998e-05
-0.000342232
-0.00311316
-0.00207615
-0.000156362
-0.00751329
-0.00844872
0.00015149
-0.000127459
-0.0062358
-0.00113839
2.80343e-06
-0.00274054
-0.00141606
0.000208164
-0.00349736
-0.0170794
0.00070209
-0.00444376
-0.0257085
-0.00110114
-0.000115362
0.000916395
-0.0233719
0.00086579
-0.0338151
0.000676013
-0.0341286
0.000602108
-0.0193243
-0.000797357
-0.0169503
-0.0077778
0.00304622
0.0869786
-0.174909
0.0151831
0.0606144
-0.077862
0.0185498
0.0752917
-0.133624
0.0298545
0.0219718
-0.0208689
0.00422498
0.0383746
0.00939972
0.0786659
-0.156509
0.042018
0.104971
-0.121131
0.0292363
0.140838
-0.00834046
0.0429092
0.126528
-0.0239776
-0.00980253
0.0873937
0.0740932
-0.0619562
0.0564176
-0.0225429
0.0658427
-0.0824568
0.038369
0.0712939
-0.0841837
0.00574994
0.00164271
0.0312655
-0.000498905
-0.000432392
0.047149
-0.0216577
-0.00180646
0.0332582
-0.0420026
0.0182608
0.0028494
0.0271648
-0.00904277
0.00614339
0.00037459
-0.00163556
-0.000679212
0.000202235
0.00292336
-0.000805097
-0.000179548
0.00385619
-0.00314657
5.09982e-05
0.00188044
-0.0108787
-0.000116641
0.00236633
-0.000961919
-0.000419544
-2.59722e-06
9.76952e-05
-9.79696e-06
-3.3444e-05
2.76267e-05
6.15509e-05
-0.000683138
0.000205498
4.25687e-05
-0.000131796
0.000468519
0.000137041
-0.000150365
0.00034952
3.88565e-05
0.000194766
-9.59669e-07
-6.13638e-07
3.00312e-06
-3.2907e-06
3.114e-07
1.117e-06
-3.13415e-06
-1.64938e-06
7.87679e-07
-5.10887e-06
-1.16291e-05
3.52052e-06
-4.77711e-06
4.12515e-06
3.30531e-05
-3.03595e-06
2.82535e-06
-1.55673e-06
-2.04956e-07
4.53726e-07
-3.27235e-08
-1.52453e-07
3.13091e-08
-8.03723e-08
-1.23482e-07
8.16299e-09
-5.94046e-08
-7.81683e-07
1.77393e-08
-4.35576e-08
-7.69541e-08
9.09961e-08
-1.73306e-07
-1.69379e-08
-5.4621e-08
-4.76078e-08
4.86931e-07
-1.95261e-09
-2.3684e-07
3.33755e-07
-2.42845e-07
-1.83111e-07
1.83849e-07
-5.1606e-07
-9.31554e-07
6.89381e-07
-9.23989e-09
-2.03392e-06
1.30261e-06
-1.59234e-08
-3.37973e-06
4.46095e-07
5.12829e-07
5.086e-05
5.75475e-07
-1.03244e-07
9.84497e-06
-1.27797e-07
-2.62846e-06
2.31739e-06
3.72958e-07
-2.11954e-05
6.61138e-06
7.75333e-06
1.27496e-05
-4.80792e-05
1.34827e-05
-0.0004933
0.000132105
3.87714e-05
0.000205337
3.72754e-05
3.91634e-05
0.000323499
2.48354e-05
5.83731e-06
0.000127713
5.00444e-06
0.000885986
-0.00102759
0.000284895
0.00150815
-0.00295428
-0.000866817
7.30072e-05
0.00030132
2.48591e-05
0.000131106
0.000158515
0.000179827
-0.0017453
0.000853365
0.000208094
-0.00131947
0.001267
0.000671443
-0.00339585
-0.0140638
0.000451527
-0.00657324
-0.0211972
0.000272767
0.000128519
0.00730538
-0.0296366
0.00577172
-0.0306177
0.00118799
-0.0206216
-0.00290206
-0.0239189
-0.00828022
-0.0246925
-0.0184258
-0.0194451
0.0274921
-0.180987
0.0138926
0.0479729
-0.0853722
0.0191043
0.04214
-0.182291
0.0421134
0.0330431
-0.132544
0.0317294
0.0346998
-0.0387537
0.0393703
-0.165935
0.01414
0.018063
-0.011372
0.0324516
0.116232
-0.105315
0.0430879
0.0904988
-0.0785207
0.0119997
0.0533021
-0.0105507
0.00320104
0.0364789
-0.0386449
0.00221219
-0.00240305
0.0174189
0.0154311
-0.00538448
0.0215842
0.000481445
-0.00416925
0.0131089
0.000240018
0.0172605
0.00313942
-0.000242552
0.0250473
0.00676911
-0.0018432
-0.000756419
2.59468e-06
-7.5848e-05
-0.000427959
-3.42658e-05
1.94018e-05
-0.00038316
0.000170305
0.00291997
7.12575e-05
8.6388e-05
0.00338197
0.000259423
-8.54677e-05
0.00142126
0.000422607
-3.71516e-05
4.15111e-05
1.78491e-06
-1.05259e-08
-6.4642e-05
2.99232e-06
1.2569e-05
-3.02444e-05
6.62253e-06
0.000177004
-2.80949e-05
6.65643e-06
0.000112535
9.60375e-06
5.22533e-06
5.305e-06
5.3531e-06
3.28621e-06
6.53952e-07
5.56746e-06
-1.15661e-08
-4.23505e-07
5.69946e-09
3.15883e-08
-2.32422e-07
-8.44317e-08
3.42417e-06
-3.26887e-07
-8.54306e-08
1.59394e-06
-2.77945e-08
3.28841e-08
7.43192e-08
1.43094e-07
6.8978e-08
-3.54581e-09
3.6398e-07
8.67701e-08
-3.32808e-08
9.1516e-11
1.48406e-09
-3.40366e-08
-1.59222e-07
3.24662e-08
-7.12735e-09
-2.65179e-07
8.75819e-09
-4.69177e-09
-1.44971e-08
1.23676e-09
-2.6273e-08
-8.26545e-08
1.22638e-12
2.80328e-07
-1.87966e-10
7.83846e-09
2.0321e-08
7.90198e-09
-1.72292e-06
-2.77058e-08
4.69332e-07
-8.55661e-07
-2.74242e-06
5.65152e-07
-1.87092e-07
-6.85389e-07
1.38438e-09
-3.72939e-06
6.30189e-07
4.43153e-09
-2.91044e-05
1.61421e-07
1.39764e-07
4.70636e-07
6.62412e-08
-3.03985e-06
1.38584e-06
1.2985e-06
-4.00261e-06
7.44588e-07
4.37015e-06
-9.15484e-07
3.96936e-06
8.23294e-08
-2.22219e-05
3.54323e-05
-1.26808e-08
-0.000119888
1.29826e-06
3.34669e-06
2.90785e-05
4.74863e-06
9.55414e-07
2.30843e-05
5.36503e-06
-1.56632e-05
1.61865e-05
9.15878e-06
3.40251e-05
0.000257649
-1.60719e-06
3.58925e-05
-0.000805815
-2.61099e-05
8.71977e-05
-2.84371e-05
8.25709e-05
3.30435e-05
3.47746e-05
3.6253e-05
0.00091473
9.81056e-06
0.00031915
0.000984928
1.87898e-05
0.00164827
-0.00910718
-0.00167712
-4.02805e-05
-0.0128093
-0.00299853
0.000172173
-7.46819e-07
0.0029658
-0.0252327
0.00455262
-0.0238787
0.00841717
-0.019161
0.000419465
-0.0194718
-0.0116461
-0.0198797
-0.0243503
2.23634e-05
-0.000325339
-0.000132938
-8.2573e-06
-0.000198661
-3.89247e-05
-5.79486e-05
-0.000184509
-1.89054e-05
-3.8535e-05
-0.000323981
-0.00013969
6.76679e-05
-0.000408057
-0.000508104
-0.000247371
-9.34116e-06
2.09332e-05
0.000949544
-0.0015982
3.09863e-06
0.00035636
-0.000550487
-4.87518e-05
0.000293565
-0.000439558
-2.63193e-05
0.000930099
-0.0018414
0.000117659
0.000631052
-0.00204155
0.000341875
-0.000568228
-7.49422e-05
-0.00220566
3.30761e-05
-0.00150444
8.66472e-05
-0.00129638
6.38629e-05
-0.00227175
0.000125963
-0.00132188
-0.00125281
3.18886e-05
-0.000105087
-0.00112629
1.04221e-06
-2.45079e-05
-0.00034645
-1.57768e-05
-1.86776e-05
-0.000396096
3.00863e-07
-0.000107366
-0.00109439
8.56069e-05
-0.000178506
-0.00245023
-4.24426e-05
-0.000296542
6.62285e-05
0.000777601
-0.00240967
1.46235e-05
0.000723706
-0.00204644
3.13423e-05
0.000732423
-0.00185013
0.000119315
0.000715801
-0.00227757
7.74046e-05
0.000257397
-0.00195881
0.000716625
-0.00192251
-7.49461e-05
-0.00102322
2.20966e-05
-0.00107964
0.000183132
-0.00112731
6.79267e-05
-0.000710585
-0.000285277
-2.81785e-06
-0.00161858
-3.05035e-05
-0.000369033
-0.00237522
1.51838e-06
-0.000186049
-0.00211231
0.000120052
-0.000195089
-0.0021368
0.000114897
-0.000433264
-0.00224999
3.95584e-05
-0.000586396
-0.00266321
-0.000112283
-0.00151048
5.03764e-05
-0.000653376
-0.00194976
-1.65196e-06
-0.000339851
-0.00161435
5.28613e-06
-0.000251686
-0.00146649
5.8608e-05
-0.00046705
-0.000926191
0.000104847
-2.71098e-06
-0.000379363
1.91964e-05
-0.000418211
6.32262e-06
-3.88082e-12
-1.31963e-06
-4.99232e-12
-2.28213e-08
-3.86269e-12
5.76176e-06
-6.02217e-12
2.3293e-07
-5.21793e-13
-0.00037859
-4.78173e-05
-0.000310311
-0.00167275
-2.83181e-05
-0.000296081
-0.0015599
3.34581e-07
-0.000348767
-0.00164302
-9.19155e-06
-0.000202264
-0.00197125
-2.30991e-05
-0.000262941
-0.00242738
-0.00027303
-0.00197299
1.24097e-05
-1.87323e-11
-2.04661e-07
-1.55074e-05
-7.23326e-12
-7.93056e-08
-2.69059e-05
-8.08228e-12
-7.7166e-08
-1.03347e-06
-1.68511e-11
-1.33112e-07
1.17681e-06
-2.86975e-11
-1.72822e-07
-9.862e-05
-7.02996e-08
4.9206e-14
-2.26623e-11
-3.00395e-15
-1.21777e-11
-6.20356e-14
-1.18859e-11
7.89404e-15
-2.29432e-11
9.67906e-13
-3.018e-11
-4.16795e-10
-4.19362e-05
-1.95944e-07
-0.000147659
-1.30198e-05
-4.4391e-08
-9.0125e-05
3.92555e-06
-4.14785e-08
-9.95798e-05
-1.2548e-05
-3.89793e-07
-0.000150531
-3.35069e-05
-1.00422e-06
-0.000185754
-2.19286e-08
-5.34605e-05
5.97867e-10
-1.15835e-09
-4.00097e-07
-1.40251e-10
-4.7922e-10
-1.22513e-07
-2.77217e-09
-4.62639e-10
-1.15574e-07
-3.69943e-09
-1.28518e-09
-5.20751e-07
3.63654e-09
-1.99152e-09
-1.18248e-06
-1.37749e-11
-8.87113e-08
2.31907e-12
-1.18333e-09
-1.21102e-13
-4.89159e-10
-2.93779e-12
-4.71708e-10
-5.67273e-14
-1.31101e-09
7.91219e-12
-2.02967e-09
-4.23161e-10
-1.84705e-07
-2.42249e-08
-0.000147886
-3.20024e-08
-7.2128e-08
-9.03509e-05
2.21995e-07
-7.62447e-08
-0.000100106
8.87266e-08
-1.29848e-08
-0.000151003
-1.01509e-07
4.3049e-07
-0.000187238
-4.19793e-08
-5.35072e-05
1.72877e-08
-2.65739e-08
-1.03581e-06
-1.21482e-09
-6.80751e-09
-1.61026e-07
-1.16761e-08
-6.83232e-09
-2.10738e-07
-5.47919e-08
-2.63193e-08
-1.1876e-06
9.72965e-08
-6.29237e-08
-2.60497e-06
-3.47542e-09
-4.71584e-09
5.21199e-11
-2.7809e-08
-2.08478e-13
-7.25252e-09
-6.38434e-11
-7.24015e-09
-5.95697e-11
-2.76467e-08
1.32732e-10
-6.51427e-08
-3.78146e-09
1.83737e-07
-3.97317e-06
-0.000134267
-1.55537e-06
-6.614e-06
-0.000161089
-9.58226e-07
-5.88549e-06
-0.000158399
3.84952e-06
-3.39141e-06
-0.000132979
2.15258e-05
-1.17635e-06
-0.000135262
-8.07695e-06
-0.000152359
6.39175e-08
-6.76955e-08
-5.33283e-06
1.764e-09
-1.17125e-07
-6.66594e-06
-7.62654e-09
-1.04803e-07
-6.07592e-06
4.77808e-08
-5.84216e-08
-5.13508e-06
2.51926e-07
3.06023e-09
-4.6699e-06
-1.33515e-07
-7.6556e-06
3.03877e-09
-1.66511e-07
3.90434e-10
-1.48376e-07
-2.43714e-09
-1.38794e-07
-1.6316e-09
-1.54679e-07
5.35689e-09
-1.69176e-07
-1.4505e-07
-3.8038e-06
7.1731e-06
-2.6882e-05
6.19934e-07
8.8418e-06
-3.16873e-05
6.67327e-06
8.42195e-06
-3.13407e-05
3.38665e-06
6.76923e-06
-2.81357e-05
-2.81452e-06
5.8144e-06
-3.01115e-05
1.01135e-05
-3.08134e-05
-4.12182e-07
9.46928e-07
-5.50544e-08
8.38482e-08
6.87401e-07
-9.71196e-08
6.57665e-07
6.82464e-07
-9.4486e-08
1.10417e-07
9.28173e-07
-5.91023e-08
-1.00102e-06
1.11416e-06
-6.81979e-08
5.84168e-07
-1.48342e-07
-2.76055e-09
9.46543e-09
3.83705e-09
2.70236e-09
1.03237e-08
2.47107e-09
1.27166e-09
8.56552e-09
-2.00396e-08
1.22542e-08
-6.27034e-10
-1.21696e-06
8.75281e-07
-1.1976e-06
-1.28685e-08
1.05337e-06
-1.68964e-06
9.38655e-07
1.01803e-06
-1.63531e-06
-5.32659e-07
8.57041e-07
-1.19476e-06
-5.33288e-06
7.81182e-07
-1.02487e-06
1.2519e-06
-2.05539e-06
-3.8667e-08
6.94502e-07
7.99402e-08
-3.62779e-09
7.12408e-07
1.07562e-07
2.70738e-08
6.98706e-07
1.00604e-07
-1.53418e-08
6.76927e-07
8.32463e-08
-1.18752e-07
6.74735e-07
7.81197e-08
7.07976e-07
1.50881e-07
-2.28296e-09
2.35593e-08
-1.33037e-09
2.86126e-08
-2.71621e-10
2.74462e-08
-2.89611e-09
2.46738e-08
-3.86425e-09
2.34394e-08
3.34191e-08
1.34559e-08
-6.5809e-08
-1.2738e-06
8.44103e-08
-8.49566e-08
-1.76823e-06
1.02927e-07
-8.17627e-08
-1.67094e-06
4.53509e-08
-6.98911e-08
-1.20062e-06
-2.14478e-07
-6.76535e-08
-8.49827e-07
-1.19768e-07
-2.02999e-06
1.54917e-10
-2.1139e-08
3.48864e-08
5.69025e-10
-2.2759e-08
4.37072e-08
4.93439e-10
-2.34742e-08
4.11156e-08
3.19418e-10
-2.07038e-08
3.41503e-08
-3.6672e-10
-1.77104e-08
2.94937e-08
-2.11374e-08
5.1393e-08
-1.27727e-09
5.18002e-08
-6.73292e-10
5.18212e-08
-2.48889e-10
5.18691e-08
-1.25428e-09
5.21648e-08
-1.65848e-09
5.2238e-08
5.19128e-08
-4.79333e-06
-6.80592e-08
-0.000164505
8.712e-06
-7.68283e-08
-0.000179068
1.84105e-05
-7.46286e-08
-0.000179478
1.01584e-05
-6.78729e-08
-0.000165303
-1.07207e-05
-6.34541e-08
-0.000176933
-8.51582e-08
-0.000187217
1.4481e-11
-3.42141e-08
1.00554e-09
2.07049e-11
-3.43113e-08
1.15734e-09
1.51449e-11
-3.46429e-08
1.1108e-09
2.09397e-11
-3.4765e-08
9.96421e-10
1.7944e-11
-3.48986e-08
9.17749e-10
-3.50624e-08
1.28311e-09
-5.96293e-12
8.41436e-10
-2.61252e-11
8.58595e-10
-5.3905e-11
8.49502e-10
-7.22578e-11
8.37251e-10
-1.36663e-10
8.09242e-10
8.53728e-10
-9.44709e-05
-1.82768e-09
-0.0197113
1.13835e-05
-2.008e-09
-0.0197202
0.000102278
-1.95115e-09
-0.019706
2.76617e-05
-1.81574e-09
-0.019648
-0.00014435
-1.70354e-09
-0.0196868
-2.1287e-09
-0.0196198
3.81341e-13
-8.316e-10
8.67477e-12
-8.46539e-14
-8.60242e-10
9.58109e-12
-5.43467e-13
-8.49603e-10
9.27339e-12
-1.68489e-13
-8.2883e-10
8.73484e-12
7.31173e-13
-7.95344e-10
8.2847e-12
-8.55617e-10
1.02358e-11
5.08352e-12
4.75226e-12
-1.27192e-12
4.70937e-12
-6.08568e-12
4.71317e-12
-2.44378e-12
4.78001e-12
6.72421e-12
4.73081e-12
4.83478e-12
0.000457889
-3.76375e-12
-0.0135822
0.0187771
0.000915347
-2.8203e-13
-0.0134587
0.0190596
0.000754466
-1.72018e-13
-0.0133579
0.0195425
-8.68994e-05
-4.56905e-11
-0.0132309
0.0200703
-0.000963329
-1.22159e-12
-0.0130331
0.0197519
-3.01417e-12
-0.0134139
0.0187373
-1.00498e-16
-3.77665e-12
9.51273e-17
1.28989e-14
-2.05068e-16
-2.82831e-13
6.89485e-17
8.3671e-16
-8.44339e-14
-8.80583e-14
6.66023e-17
2.02393e-16
-9.76339e-16
-7.98085e-13
2.28821e-17
-4.49759e-11
-1.44031e-15
-7.13374e-13
3.06914e-16
-5.08057e-13
-3.53559e-13
2.58448e-17
-2.66208e-12
1.23602e-13
5.5108e-28
-3.90667e-12
1.03396e-14
4.30339e-28
1.25895e-12
1.15411e-14
5.355e-28
7.84989e-14
2.07263e-14
6.34794e-28
-2.5283e-15
2.46474e-14
1.22077e-27
-1.3538e-17
5.90024e-28
-3.17767e-17
-0.000568458
1.27471e-16
-0.00748134
-0.000796839
1.09457e-16
-0.00721836
-0.000580976
1.40105e-16
-0.00708261
-0.000264349
5.55111e-17
-0.00718291
-1.92786e-05
8.599e-16
-0.0072619
5.89102e-17
-0.00716146
5.20154e-18
2.15778e-27
1.82664e-16
1.18192e-17
1.96463e-27
1.48182e-16
4.91408e-18
2.69425e-27
2.12129e-16
5.56167e-17
2.11601e-27
5.71105e-17
4.36135e-19
3.41174e-27
1.26688e-15
1.44359e-27
7.70401e-17
-1.02676e-28
4.71911e-28
-1.6184e-28
4.94921e-28
-2.69224e-28
6.34442e-28
-1.55916e-28
7.0867e-28
-1.12284e-28
1.43022e-27
5.37621e-28
-0.000193085
1.25129e-16
-0.000483496
-0.000176559
1.09042e-16
-0.00041803
5.76036e-06
1.71295e-16
-0.000332359
2.43028e-05
4.88749e-17
-0.00025503
-6.64081e-05
1.15298e-15
-0.00023348
7.16532e-17
-0.000306146
1.16058e-17
1.83678e-27
7.16695e-17
2.59145e-17
1.77029e-27
5.80986e-17
7.54517e-18
1.91091e-27
9.40067e-17
1.35995e-16
1.70949e-27
1.5439e-17
5.37187e-18
3.06327e-27
5.29749e-16
1.1297e-27
2.84829e-17
-9.90923e-29
-5.69379e-28
-1.76348e-28
-5.06595e-28
-2.21054e-28
-4.91535e-28
-1.59352e-28
-3.85514e-28
-1.17328e-28
-6.34723e-28
-2.27751e-28
-5.09249e-05
1.00704e-16
0.0066779
-0.00015881
8.18593e-17
0.00671653
-0.000253314
1.38175e-16
0.00676623
-0.000225476
2.43742e-17
0.00677493
-5.91044e-05
9.04552e-16
0.00677047
4.85357e-17
0.00674674
2.66014e-18
1.80032e-27
-1.88432e-17
8.32636e-18
2.05403e-27
-1.73031e-17
1.75155e-18
2.23419e-27
-1.56652e-17
5.10492e-17
2.13307e-27
-1.46286e-17
6.92047e-19
2.4027e-27
-1.39569e-17
1.61422e-27
-1.08813e-17
-3.69824e-29
-1.4465e-27
-8.6748e-29
-1.64202e-27
-1.14107e-28
-1.77126e-27
-8.47765e-29
-1.65781e-27
-4.02431e-29
-1.83269e-27
-1.23886e-27
-3.20429e-05
-1.99424e-14
0.0138583
-0.000145325
-2.03706e-14
0.0138963
-0.000249638
-1.97499e-14
0.013911
-0.000227696
-2.01023e-14
0.0138437
-6.6579e-05
-2.02089e-14
0.0138082
-2.05862e-14
0.0138288
-1.71309e-18
2.11545e-27
-1.99595e-14
-2.26084e-18
2.45195e-27
-2.03874e-14
-2.83111e-18
2.67607e-27
-1.9765e-14
-2.20826e-18
2.60579e-27
-2.01176e-14
-5.66387e-19
2.89131e-27
-2.02245e-14
2.00182e-27
-2.05977e-14
-1.53225e-29
-1.09012e-27
-4.17492e-29
-1.26725e-27
-6.41025e-29
-1.37046e-27
-4.9346e-29
-1.29647e-27
-1.2444e-29
-1.40407e-27
-9.84815e-28
-1.79376e-05
-1.33867e-11
-6.68569e-06
-1.42659e-11
-4.67614e-06
-1.39656e-11
-4.62021e-05
-1.34897e-11
-0.000118555
-1.29969e-11
-1.50708e-11
-3.37381e-16
-4.73274e-12
-5.25944e-16
-4.70636e-12
-9.32334e-16
-4.71341e-12
-3.08862e-16
-4.77699e-12
1.01007e-15
-4.7349e-12
-4.85601e-12
1.95178e-14
2.25241e-14
2.22814e-14
2.53133e-14
2.12241e-14
-0.00662185
-0.0373682
-0.00143362
0.00668497
-0.000534528
0.00106986
-0.0037755
-0.0401778
-0.00963264
-0.00851267
-0.0986539
0.0071467
0.0144316
-0.000122926
0.00778445
-7.79086e-06
0.00390046
0.00073524
9.91849e-06
-0.000621798
0.000607619
-7.4638e-07
-0.000404159
-0.00224415
-0.00403758
-2.78628e-05
-0.000120837
-0.00361956
-0.000537454
-1.76676e-07
-5.47668e-08
-0.000243509
-1.21882e-07
-7.93369e-06
8.75153e-06
-2.66112e-06
8.01299e-06
-7.84435e-09
-0.00120865
-5.23318e-07
-1.24013e-06
-5.13452e-06
-1.46087e-07
-1.14881e-06
-2.67969e-07
-0.0126926
-0.000201019
2.70626e-06
-0.00162312
-0.0324618
0.0397091
-0.00832132
-8.50367e-05
-0.00015734
0.00927484
-0.00279209
3.64328e-05
-0.00143068
-0.0152977
0.00897445
-4.16314e-06
-4.05578e-05
1.67346e-06
-1.3931e-05
-0.000975765
-1.09198e-06
-3.74144e-07
-0.000880043
-5.56866e-05
-3.70571e-08
-5.81001e-05
-0.00327277
-1.13841e-06
-0.000111162
-0.000224498
-6.75002e-05
-0.000183329
-8.97323e-06
-0.000227578
3.06221e-07
-1.92961e-05
1.17167e-09
-7.69395e-08
-2.83067e-08
-5.30898e-07
-9.35976e-07
-5.36525e-06
-1.84173e-06
-6.77433e-05
-2.63515e-05
-0.0048233
-0.000569169
-0.000197183
-1.98031e-05
-0.00702344
0.00756069
-0.00262096
-0.000153066
0.00987432
0.00034805
-0.000171876
-0.0012741
0.000121872
-3.05987e-05
-5.43617e-05