/*--------------------------------*- C++ -*----------------------------------*\
| =========                 |                                                 |
| \\      /  F ield         | OpenFOAM: The Open Source CFD Toolbox           |
|  \\    /   O peration     | Version:  v1612+                                |
|   \\  /    A nd           | Web:      www.OpenFOAM.com                      |
|    \\/     M anipulation  |                                                 |
\*---------------------------------------------------------------------------*/
FoamFile
{
    version     2.0;
    format      ascii;
    class       volScalarField;
    location    "7.8";
    object      alpha.water;
}
// * * * * * * * * * * * * * * * * * * * * * * * * * * * * * * * * * * * * * //

dimensions      [0 0 0 0 0 0 0];

internalField   nonuniform List<scalar> 
1116
(
0.711818
0.711818
0.711818
0.711818
0.71182
0.711822
0.853891
0.85415
0.853953
0.853999
0.854184
0.853814
0.974102
0.974102
0.974102
0.974102
0.974102
0.974102
0.974113
0.974113
0.974113
0.974113
0.974113
0.974113
0.974113
0.974113
0.974113
0.974113
0.974113
0.974113
0.947711
0.947215
0.947335
0.947608
0.947458
0.947504
0.857972
0.858368
0.85861
0.857509
0.856303
0.859663
0.78985
0.790683
0.791068
0.789257
0.788638
0.791881
0.759335
0.758756
0.759204
0.758823
0.759713
0.758336
0.755944
0.754384
0.754667
0.755803
0.757308
0.753511
0.751962
0.74876
0.748851
0.752499
0.754112
0.748483
0.733779
0.733153
0.733167
0.73385
0.73432
0.734324
0.822635
0.823032
0.822718
0.82287
0.823216
0.822464
0.84224
0.841921
0.84153
0.842236
0.842843
0.841528
0.87863
0.878351
0.878269
0.878519
0.878641
0.878481
0.9306
0.929942
0.930136
0.930353
0.930399
0.930253
0.893939
0.893959
0.894055
0.893805
0.893776
0.894216
0.650557
0.653436
0.652818
0.65121
0.65025
0.65333
0.326454
0.328718
0.328214
0.327318
0.32585
0.329438
0.135256
0.135845
0.135879
0.135301
0.134746
0.137564
0.129671
0.130687
0.130966
0.128728
0.129189
0.128558
0.141993
0.141109
0.14165
0.14075
0.141316
0.140081
0.104604
0.101063
0.101418
0.103761
0.105368
0.101266
0.120623
0.119966
0.1204
0.120586
0.121076
0.12134
0.615634
0.613211
0.614832
0.614415
0.614127
0.616411
0.248034
0.246798
0.245917
0.247967
0.249942
0.245929
0.262667
0.259318
0.258236
0.262273
0.264687
0.258099
0.355507
0.352732
0.352045
0.355057
0.35605
0.352533
0.333565
0.33247
0.332022
0.333399
0.333543
0.332752
0.211022
0.20728
0.207357
0.210459
0.212468
0.204941
0.0874415
0.0858693
0.0853084
0.0870986
0.0905986
0.0817509
0.0395763
0.039201
0.0387157
0.0400248
0.0406559
0.0353465
0.0186179
0.0199066
0.0194771
0.0191739
0.0180156
0.0219502
0.013107
0.0143904
0.0142234
0.0132641
0.0122967
0.0148954
0.0253973
0.0246515
0.0247639
0.0256842
0.0258246
0.0244083
0.0305595
0.0263102
0.0266036
0.0311298
0.0338923
0.0259363
0.0573195
0.0554201
0.0567478
0.0561739
0.0560047
0.0579344
1.95468e-05
1.68918e-05
1.91415e-05
1.91637e-05
1.90237e-05
1.57816e-05
7.06268e-06
6.14745e-06
6.82417e-06
6.86147e-06
6.67667e-06
3.94853e-06
2.20726e-06
1.76245e-06
2.06962e-06
1.84248e-06
1.21429e-06
7.96422e-07
3.91334e-07
3.69103e-07
3.59926e-07
2.83946e-07
2.14285e-07
1.94951e-07
2.8086e-07
2.15012e-07
1.96396e-07
2.14283e-07
1.80992e-07
1.18825e-07
3.61354e-07
3.58816e-07
3.27735e-07
2.24974e-07
1.21948e-07
1.74191e-07
6.72754e-05
7.07012e-05
6.99424e-05
6.58147e-05
6.03283e-05
6.64015e-05
1.53416e-05
1.81904e-05
1.76965e-05
1.56742e-05
1.47308e-05
2.11215e-05
1.78593e-06
2.21237e-06
2.11455e-06
1.72558e-06
1.44722e-06
2.5687e-06
8.24227e-05
0.00011666
0.000114909
7.74291e-05
6.86103e-05
0.000132104
0.00551925
0.00532257
0.00550873
0.00560756
0.00615943
0.00567024
0.0925615
0.0925979
0.092597
0.0925077
0.092692
0.092734
0.0926346
0.0926558
0.0927146
0.0927484
0.0927442
0.092734
0.0927192
0.0926812
0.0918713
0.0927311
0.0927544
0.0927442
0.0533589
0.0495937
0.0256642
0.0371257
0.0734492
0.0691306
0.0562831
0.0425311
0.0235566
0.00518883
0.0184911
0.01095
0.0575673
0.0566045
0.0531453
0.0410745
0.0206364
0.0396445
0.0576056
0.0574869
0.0571937
0.0568234
0.0533794
0.0501379
0.0576158
0.0575457
0.0543589
0.0494641
0.048835
0.0489423
0.0541252
0.0574966
0.0520427
0.0253268
0.0256541
0.0535702
0.0331855
0.0574617
0.0532265
0.0243201
0.0250614
0.0563752
0.0315086
0.0483578
0.0528129
0.0430448
0.0438594
0.0563752
0.0359405
0.0352031
0.0543083
0.0556462
0.0563581
0.0563752
0.092573
0.0926029
0.0926442
0.0926734
0.0926998
0.0927008
0.0925895
0.0753083
0.0824739
0.0927145
0.092733
0.0927368
0.0623975
0.0322389
0.0243226
0.0286727
0.0452208
0.0728476
0.0151303
0.00903481
0.00851871
0.0124226
0.0153227
0.0174406
0.00184327
0.00231937
0.00352201
0.00310657
0.00453429
0.00359985
8.23318e-06
2.72912e-07
0.00139388
0.0033526
0.0018863
0.000910913
2.52456e-07
6.84983e-08
6.09296e-08
6.77581e-08
0.000166758
1.51671e-07
8.20991e-07
4.79754e-08
6.03005e-08
6.44788e-08
1.04315e-07
1.91823e-07
0.000368188
5.81561e-06
6.47575e-08
1.0431e-07
3.55888e-05
2.39484e-07
0.00425773
0.00192771
3.92556e-07
1.37317e-07
5.05723e-06
9.37891e-05
0.00696137
0.00235367
2.77085e-05
5.05722e-06
3.49249e-05
0.00323386
0.00879023
0.0048734
0.00170253
0.00356939
0.00357021
0.00266061
0.0925804
0.0925689
0.092603
0.0926443
0.0926661
0.092636
0.0927294
0.0925188
0.0925869
0.0926502
0.0891876
0.0870972
0.082761
0.0352552
0.0397727
0.0198265
0.0471123
0.0590229
0.0127699
0.000184364
6.9942e-05
0.000541512
0.00564452
0.0109595
1.20663e-05
4.38477e-06
2.58872e-06
0.000670243
1.13125e-05
4.14699e-06
3.034e-07
1.96336e-07
1.33188e-07
1.51718e-07
3.37422e-07
1.9402e-07
2.14147e-08
3.73061e-08
4.3312e-08
7.06975e-09
4.62046e-09
3.22775e-08
2.79466e-08
4.07976e-08
1.17062e-07
5.72021e-08
1.45227e-07
1.51671e-07
3.46176e-08
4.76971e-08
1.06489e-07
9.97281e-08
7.95205e-07
0.000148937
4.61638e-06
1.70393e-07
2.08933e-07
0.000344824
0.00185298
0.00039985
2.95236e-05
0.00113758
0.00168943
0.00385994
0.0047013
6.66658e-06
0.00492451
0.00742724
0.00766508
0.00633103
0.00552563
0.00490658
0.0925765
0.0879627
0.0925585
0.0778616
0.0865601
0.0925814
0.0377182
0.0923654
0.0923837
0.0634882
0.0531597
0.00171733
0.0233068
0.0427273
0.0375315
0.0170776
0.0135368
5.24149e-06
0.00395137
5.93954e-05
3.63435e-05
2.79998e-05
1.27257e-05
5.46911e-07
1.60667e-06
2.44718e-06
1.29333e-06
7.04095e-07
2.70807e-07
7.74881e-08
1.00149e-08
5.19681e-08
3.00052e-08
5.83707e-09
1.13358e-09
4.85419e-07
3.21998e-09
1.96261e-08
1.14802e-08
1.27757e-10
-2.08823e-11
3.58961e-10
2.54879e-08
7.38105e-07
1.63413e-06
2.19391e-09
1.76083e-07
2.76381e-06
2.25438e-08
8.47944e-07
3.06016e-06
3.68855e-08
1.64818e-08
6.59709e-05
1.33438e-07
5.21344e-07
2.1839e-06
1.2572e-06
1.34409e-06
0.000108534
4.36256e-05
2.81693e-06
2.78237e-06
0.00353877
0.00499767
3.33579e-06
0.0108873
0.010847
0.00872005
0.010879
0.010879
0.010851
9.75925e-05
9.75614e-05
9.75614e-05
9.75614e-05
9.90191e-05
0.000100791
0.00020622
9.75925e-05
9.75614e-05
0.000224115
0.00033832
0.000110513
0.000497732
0.000312585
0.000287697
0.000495936
0.000525165
0.000284349
0.000105151
9.36785e-05
9.34028e-05
0.000105417
0.000244739
9.8173e-05
0.000593126
0.000355108
0.000286817
0.000603224
0.000604202
0.000441639
0.00056679
0.00056466
0.000555959
0.000538118
0.000492811
0.000535278
0.000563168
0.000265124
0.000323219
0.000552158
0.00061965
0.000253842
0.000591492
0.000576422
0.000554988
0.000528952
0.000460999
0.00048429
6.45482e-05
0.000174158
0.000156522
2.54678e-05
6.85843e-20
0.00047141
0.000581043
0.000586864
0.000591593
0.00060819
0.000622151
0.000557597
0.000175818
0.000182762
0.000239797
4.19877e-05
8.70735e-09
0.000101525
8.69961e-25
3.89066e-25
3.46333e-25
2.96745e-24
1.152e-22
5.52084e-06
0.00041474
0.000307083
0.000334123
0.000318411
0.000185047
0.000142895
1.31228e-11
5.96019e-12
5.88884e-12
1.36681e-11
2.00405e-11
3.7606e-12
1.68752e-18
2.25051e-18
2.37041e-18
-5.46757e-18
-3.0134e-19
4.66518e-22
1.26654e-07
3.56775e-08
3.29555e-08
1.53767e-07
1.38159e-07
2.56343e-08
1.05572e-07
7.67522e-09
3.69624e-09
1.60845e-07
4.45769e-07
8.53897e-09
-5.19577e-14
1.46945e-17
-1.79763e-14
-1.15969e-13
3.96804e-13
1.47036e-17
1.56387e-06
8.99966e-07
9.51193e-07
1.65669e-06
2.05795e-06
5.53289e-07
1.2715e-07
2.25923e-08
2.28053e-08
1.3555e-07
1.99784e-07
9.0577e-09
8.7071e-10
1.55962e-10
2.47317e-10
8.87335e-10
1.28787e-09
-4.28735e-10
4.55741e-06
4.89555e-06
4.77375e-06
4.33927e-06
3.75216e-06
4.65103e-06
2.5643e-07
2.33059e-07
2.31451e-07
2.43433e-07
2.31082e-07
1.85618e-07
8.34897e-08
3.6337e-08
3.69785e-08
8.47081e-08
1.23972e-07
1.90736e-08
5.23656e-07
6.42018e-07
6.22112e-07
5.34333e-07
4.92944e-07
7.95107e-07
3.11693e-08
3.7837e-08
3.51507e-08
2.97211e-08
2.38579e-08
4.12763e-08
1.35958e-07
1.35792e-07
1.3325e-07
1.32008e-07
1.31969e-07
1.31854e-07
2.90365e-08
3.39448e-08
3.21265e-08
2.84749e-08
2.52339e-08
3.70124e-08
9.3928e-10
1.0777e-09
1.06717e-09
9.33725e-10
8.34266e-10
1.13857e-09
2.18487e-07
2.18607e-07
2.18624e-07
2.18616e-07
2.18888e-07
2.19046e-07
3.81458e-10
4.20249e-10
4.05489e-10
2.50073e-10
-1.81921e-09
-1.07102e-10
1.44034e-11
1.59291e-11
1.54458e-11
1.42927e-11
1.25609e-11
1.70297e-11
4.94184e-08
4.92861e-08
4.92279e-08
4.939e-08
4.86871e-08
4.93269e-08
0.00604756
0.00643939
0.00633183
0.00590867
0.00554787
0.00630341
1.76667e-13
1.89526e-13
1.8513e-13
1.77994e-13
1.70985e-13
2.00622e-13
-2.04013e-16
-1.98359e-16
-2.0401e-16
-2.64116e-16
-2.4986e-16
7.62421e-18
0.0376223
0.037186
0.0368008
0.0366144
0.0364045
0.03696
-1.09516e-20
3.46846e-28
1.98162e-28
5.11818e-26
1.4096e-27
3.47351e-27
2.50074e-15
8.73931e-14
7.36149e-14
1.98163e-13
7.83417e-13
3.77002e-13
0.0396592
0.0397933
0.0397601
0.0393746
0.0391603
0.0395619
-3.08537e-16
-2.42238e-16
-2.89317e-16
-1.15522e-16
-1.81301e-15
-1.30266e-16
-4.73661e-27
-4.05282e-27
-5.41122e-27
-4.32323e-27
-7.10458e-27
-3.06648e-27
0.0405919
0.0405757
0.0405662
0.0405801
0.0405863
0.0405964
-7.47277e-16
-6.37752e-16
-9.8722e-16
-2.84117e-16
-6.64376e-15
-4.20499e-16
-7.21739e-27
-6.85878e-27
-7.43577e-27
-6.68129e-27
-1.19534e-26
-4.48696e-27
0.0399761
0.039979
0.040013
0.0400172
0.0400494
0.0400858
-5.14895e-16
-4.23552e-16
-7.17112e-16
-1.25258e-16
-4.58033e-15
-2.48516e-16
-6.07099e-27
-6.93017e-27
-7.58425e-27
-7.20439e-27
-8.05887e-27
-5.47522e-27
0.0396931
0.0396911
0.0397254
0.0397227
0.0397512
0.0397842
3.19331e-29
3.28797e-29
3.18069e-29
3.18069e-29
3.16175e-29
3.25011e-29
-4.68968e-27
-5.44416e-27
-5.95211e-27
-5.74306e-27
-6.30945e-27
-4.42095e-27
0.0364131
0.0364679
0.0364449
0.0363271
0.0362608
0.0363983
2.94902e-16
3.01253e-16
2.92069e-16
2.97214e-16
2.98731e-16
3.04362e-16
9.26384e-18
9.07202e-18
8.90113e-18
8.96022e-18
1.06647e-17
1.06542e-17
0.0523416
0.000765352
0.0686753
0.0748502
0.028479
0.0436298
0.0046817
6.59566e-08
0.00759536
0.0267592
1.06533e-08
5.12255e-08
6.59566e-08
1.90288e-19
0.000668063
0.00161956
1.73896e-20
6.98176e-18
1.00257e-05
0.0339226
0.000863648
0.0248932
0.0172937
5.62769e-06
6.32791e-06
3.32684e-09
4.75793e-09
4.21092e-08
0.00269809
1.45634e-07
2.28623e-06
-2.65514e-18
-1.26956e-14
-5.5587e-13
-1.61892e-13
5.52926e-06
0.00010987
0.0215526
0.00784845
0.00502083
0.00119169
5.46911e-07
0.000483829
0.00170339
2.19027e-07
1.70364e-06
0.000295915
0.000101103
1.45072e-05
-1.18774e-10
-2.08625e-12
-6.50349e-11
4.44389e-05
2.82819e-05
0.000191879
0.000548655
0.00114433
2.97917e-06
2.63998e-07
1.40786e-08
5.0724e-08
6.95318e-05
0.000163692
7.7355e-06
5.91732e-09
1.68114e-10
1.60005e-09
5.17425e-08
1.11958e-08
2.38654e-07
1.31368e-10
2.47644e-11
3.29151e-06
1.36385e-07
1.06225e-07
1.24057e-08
1.04884e-09
6.68387e-10
4.26896e-08
4.07937e-09
3.15284e-07
1.36118e-09
1.59277e-11
2.47644e-11
3.20389e-11
1.5633e-10
8.62666e-09
9.90718e-12
2.234e-12
4.74462e-12
8.09544e-09
3.52805e-09
2.29485e-09
4.29495e-12
8.49714e-12
7.69503e-09
8.00845e-11
1.14711e-10
8.95252e-11
8.42155e-12
2.10633e-12
4.74192e-12
3.20389e-11
2.48645e-11
1.18953e-11
2.234e-12
2.23399e-12
2.234e-12
3.06418e-09
1.70787e-08
8.85897e-11
-4.068e-12
7.20052e-12
2.38974e-11
8.36624e-10
4.14651e-10
1.42302e-10
6.2559e-12
4.57248e-12
4.88853e-12
5.75798e-11
5.22429e-11
3.80614e-11
3.90699e-11
4.61483e-12
4.38358e-12
2.71372e-09
7.78652e-08
3.70763e-07
2.70157e-10
4.01408e-10
6.59321e-09
8.3961e-10
7.60035e-10
7.47863e-10
1.08031e-08
5.80558e-10
1.03497e-11
1.05521e-09
1.82948e-08
1.32145e-08
3.18046e-09
1.26256e-10
3.70798e-10
5.73168e-09
8.93345e-08
1.39088e-06
1.33528e-08
5.71752e-10
6.17542e-09
1.57035e-07
5.0731e-07
8.5386e-07
1.65862e-07
9.24332e-11
8.15776e-09
5.33872e-08
2.3796e-07
1.06105e-07
1.80736e-08
1.69871e-10
7.19203e-09
1.58273e-07
1.36693e-07
1.43181e-06
1.12372e-07
2.05817e-09
1.70882e-07
9.57651e-06
8.37341e-06
3.09277e-06
2.22875e-07
-2.00303e-14
3.19663e-07
1.61693e-07
2.33437e-07
1.96869e-08
-4.22401e-14
2.24678e-15
-1.13045e-14
4.13462e-06
1.50927e-06
1.31933e-06
2.73926e-08
9.874e-11
-6.39544e-10
2.59321e-05
2.14241e-05
9.83925e-06
1.25944e-13
-3.68288e-13
4.5709e-16
1.2637e-08
-2.80408e-14
-4.07936e-13
-2.20379e-14
-3.15255e-18
-1.59529e-15
0.0105546
0.0079313
0.00666626
0.0079952
0.00811176
0.00978892
3.95674e-14
2.73879e-15
2.0766e-15
9.52261e-15
6.02314e-17
1.58631e-16
-1.90353e-15
-7.22428e-17
-1.4688e-17
1.17532e-21
4.27962e-20
3.4025e-20
)
;

boundaryField
{
    seabed_topleft_surface
    {
        type            zeroGradient;
    }
    seabed_topright_surface
    {
        type            zeroGradient;
    }
    breakwater_top_surface
    {
        type            zeroGradient;
    }
    breakwater_left_surface
    {
        type            zeroGradient;
    }
    breakwater_right_surface
    {
        type            zeroGradient;
    }
    water_front_surface
    {
        type            zeroGradient;
    }
    water_back_surface
    {
        type            zeroGradient;
    }
    water_left_surface
    {
        type            zeroGradient;
    }
    water_right_surface
    {
        type            zeroGradient;
    }
    water_top_surface
    {
        type            inletOutlet;
        inletValue      uniform 0;
        value           nonuniform List<scalar> 
180
(
0.000497732
0.000312585
0.000287697
0.000495936
0.000525165
0.000284349
0.00056679
0.00056466
0.000555959
0.000538118
0.000492811
0.000535278
0
0
0
0
0
0
0
0
0
0
0
0
0
0
0
0
0
0
0
0
0
0
0
0
8.7071e-10
1.55962e-10
2.47317e-10
8.87335e-10
1.28787e-09
-4.28735e-10
8.34897e-08
3.6337e-08
3.69785e-08
8.47081e-08
1.23972e-07
1.90736e-08
1.35958e-07
1.35792e-07
1.3325e-07
1.32008e-07
1.31969e-07
1.31854e-07
2.18487e-07
2.18607e-07
2.18624e-07
2.18616e-07
2.18888e-07
2.19046e-07
0
0
0
0
0
0
0
0
0
0
0
0
0
0
0
0
0
0
0
0
0
0
0
0
0
0
0
0
0
0
0
0
0
0
0
0
0
0
0
0
0
0
0
0
0
0
0
0
6.59566e-08
0
0.000668063
0.00161956
0
0
0
0
0
0
0
0
0
0
0
0
0
2.82819e-05
1.60005e-09
5.17425e-08
1.11958e-08
2.38654e-07
1.31368e-10
2.47644e-11
3.20389e-11
1.5633e-10
8.62666e-09
9.90718e-12
2.234e-12
4.74462e-12
3.20389e-11
2.48645e-11
1.18953e-11
2.234e-12
2.23399e-12
2.234e-12
5.75798e-11
5.22429e-11
3.80614e-11
3.90699e-11
4.61483e-12
4.38358e-12
1.05521e-09
1.82948e-08
1.32145e-08
3.18046e-09
1.26256e-10
3.70798e-10
5.33872e-08
2.3796e-07
1.06105e-07
1.80736e-08
1.69871e-10
7.19203e-09
0
0
0
0
0
0
0
0
0
0
0
0
0
0
0
0
0
0
)
;
    }
}


// ************************************************************************* //
