/*--------------------------------*- C++ -*----------------------------------*\
| =========                 |                                                 |
| \\      /  F ield         | OpenFOAM: The Open Source CFD Toolbox           |
|  \\    /   O peration     | Version:  v1612+                                |
|   \\  /    A nd           | Web:      www.OpenFOAM.com                      |
|    \\/     M anipulation  |                                                 |
\*---------------------------------------------------------------------------*/
FoamFile
{
    version     2.0;
    format      ascii;
    class       volScalarField;
    location    "7.8";
    object      p;
}
// * * * * * * * * * * * * * * * * * * * * * * * * * * * * * * * * * * * * * //

dimensions      [1 -1 -2 0 0 0 0];

internalField   nonuniform List<scalar> 
1116
(
19835.5
19829.3
19832.5
19836.2
19841.2
19837
19335.2
19329.8
19331.4
19335.2
19344.1
19331
18432.4
18427.9
18428.2
18431.8
18438.6
18427
17486
17485
17484.1
17486.5
17488.6
17484.4
15849.3
15849.1
15848.8
15849.4
15849.5
15849.6
13112.4
13105.8
13106.3
13109.9
13111.1
13105.5
9561.19
9561.23
9560.46
9561.04
9560.71
9566.13
6805.47
6805
6805.92
6803.28
6805.04
6808.17
5596.47
5597.92
5598.13
5591.85
5591.87
5587.27
5188.53
5185.31
5186.41
5185.58
5189.61
5177.09
4918.9
4908.26
4907.87
4921.02
4921.77
4912.77
4998.03
4998.05
4999.76
5002.57
5007.27
5011.26
11965.1
11951.7
11951.7
11967.1
11975
11958.5
10176.2
10174.3
10167.1
10180.2
10199.6
10158.7
9423.33
9409.12
9407.87
9417.91
9435.24
9401.11
8624.74
8612.19
8613.2
8621.03
8634.34
8606.45
6726.37
6725.81
6727.19
6723.88
6725.93
6725.93
4027.34
4018.83
4021.93
4021.79
4023.87
4019.93
2092.79
2085.28
2085.48
2089.64
2092.93
2082.07
1118.28
1123.14
1120.45
1117.49
1114.44
1114.9
799.409
808.774
805.302
800.932
792.503
820.736
902.328
909.351
907.904
903.631
897.847
907.949
993.163
992.775
992.148
996.25
995.382
995.379
1194.71
1182.08
1184.76
1199.33
1211.2
1186.22
4078.51
4079.23
4071.41
4079.17
4068.31
4066.91
1251.27
1266.99
1266.24
1247.73
1229.66
1270.45
1251.13
1251.86
1246.84
1249.26
1250.54
1246.26
1690.87
1686.06
1682.61
1690.36
1690.17
1684.4
1567.58
1558.18
1556.07
1565.43
1569.71
1558.52
965.002
945.457
945.724
961.084
973.402
933.775
398.723
383.615
382.767
392.049
412.016
365.44
263.995
258.4
259.12
264.119
270.094
239.086
173.734
184.362
182.009
179.047
167.647
192.122
79.2583
86.3182
85.3615
81.5759
79.7299
96.0579
171.772
171.797
172.528
173.657
175.23
173.589
119.138
114.422
117.098
121.579
127.739
119.703
277.723
276.153
281.179
272.009
265.889
284.629
-54.0106
-51.7415
-51.202
-56.5369
-60.5024
-52.9325
-104.087
-104.624
-104.31
-103.512
-101.496
-103.898
-105.955
-105.837
-105.938
-107.315
-107.084
-106.792
-81.559
-80.5203
-81.055
-82.6246
-84.5564
-80.6451
-61.1418
-60.1403
-60.6191
-60.5682
-61.6486
-59.0499
-41.1629
-41.5702
-41.5511
-41.6032
-41.5081
-41.3588
-14.363
-15.1776
-14.7824
-13.3272
-11.6843
-13.887
-11.7435
-11.8079
-11.8294
-11.3208
-11.9601
-11.8366
-20.5202
-20.4418
-20.2657
-19.9442
-19.4771
-18.6543
-7.63735
-7.6113
-7.65795
-7.70241
-7.83856
-7.72948
-82.9263
-82.4505
-82.8797
-83.6941
-85.051
-83.1622
2538.23
2503.11
2505.95
2456.58
2435.18
2443.66
2377.35
2381.99
2360.5
2280.41
2242.06
2275.25
1823.98
1753.44
1707.45
1675.45
1762.87
1824.12
907.326
851.223
856.214
839.562
907.561
941.087
425.715
413.119
426.849
391.376
425.884
422.106
314.888
314.107
330.053
367.866
283.998
290.665
331.666
323.007
318.994
315.568
306.25
286.957
315.146
315.147
289.026
263.539
250.817
252.275
304.709
284.109
249.648
171.603
166.613
245.933
284.639
282.729
235.628
168.766
208.072
270.351
374.163
388.733
364.419
399.441
463.046
391.907
430.569
460.591
486.925
445.679
428.963
388.25
1694.87
1587.14
1608.63
1578.12
1484.11
1588.19
1437.18
1311.91
1336.56
1204.34
1158.55
1287.05
728.234
670.843
706.827
621.268
689.659
746.212
182.554
136.19
148.356
173.673
234.993
272.466
-15.3183
-29.5042
-19.9089
19.6039
28.5162
30.6607
-33.4791
-37.0084
-41.9091
-39.4471
-37.5399
-35.1275
-9.32706
-8.93908
-9.51727
-14.1579
-16.6512
-16.1332
8.38031
2.98641
-3.35346
-6.4877
-4.91004
-4.71432
20.3311
13.0614
2.54663
1.59908
3.35414
5.87459
31.9468
30.5195
24.5609
29.4721
27.9584
28.0325
38.6951
64.0594
62.0118
76.7498
60.947
27.0869
24.4097
55.0953
68.0782
77.5821
51.7889
34.4892
1161.49
1135.68
1139.91
1140.99
986.161
992.348
831.364
794.152
934.141
779.428
479.622
511.522
312.624
145.985
201.345
139.391
117.554
163.975
23.4547
20.7136
25.6613
20.6423
7.44114
18.4296
-10.321
-10.5966
-13.2527
-11.1626
-12.3921
-10.2772
-12.3561
-13.0642
-16.149
-22.0214
-15.7792
-17.2385
-6.53025
-6.83324
-7.55553
-9.06322
-6.57504
-7.29291
-10.9727
-13.635
-15.5889
-14.5074
-10.6612
-10.4333
-21.405
-22.4307
-26.9624
-21.7449
-18.1162
-15.0535
-27.0579
-25.2367
-25.8828
-8.5533
-17.13
-18.544
-26.4762
-26.4062
-24.9397
-15.2221
-32.6037
-28.9775
-66.7552
-82.985
-72.6035
-34.5507
-45.5054
-42.2536
529.979
578.253
543.878
563.655
370.401
350.942
95.7862
206.723
362.743
162.855
-13.6779
-27.2164
-33.9004
-58.3758
-43.2309
-42.647
-49.239
-59.993
-39.3022
-28.0606
-22.128
-28.9118
-36.0439
-37.2615
-23.1537
-19.433
-19.0244
-19.0069
-20.2585
-22.3454
-24.0988
-22.5447
-23.8686
-25.6457
-23.5131
-25.1933
-27.6589
-26.7064
-26.8222
-27.4425
-27.0594
-26.9605
-36.6782
-38.0129
-37.6744
-35.0362
-32.3269
-30.0211
-40.81
-43.0752
-44.4778
-38.2406
-37.9103
-31.8654
-40.4985
-42.6938
-48.9752
-42.2895
-44.5595
-43.9499
-25.556
-30.9163
-33.5421
-38.9316
-35.2332
-28.7316
-52.4191
-60.5782
-65.6794
-95.3672
-108.18
-55.4958
-8.59535
-9.71086
-9.81877
-8.24525
-6.0457
-9.37171
-22.933
-23.0744
-24.1708
-22.6195
-22.409
-24.4669
-47.5649
-46.0487
-47.3889
-47.6399
-48.5241
-48.6856
-35.5793
-36.2661
-36.5805
-36.9034
-37.218
-37.3121
-54.14
-53.5335
-53.7002
-56.1472
-58.1491
-53.4304
-89.5667
-87.831
-87.9235
-89.2591
-91.126
-85.3252
-60.7067
-59.819
-59.7416
-61.7229
-63.635
-60.7511
-66.8125
-66.7656
-66.1959
-68.1277
-67.7331
-64.2999
-92.0141
-91.6961
-91.6544
-93.1061
-94.7825
-94.7079
-70.5002
-70.3829
-70.4775
-70.3896
-70.4747
-70.6504
-66.3769
-66.5529
-66.6307
-66.6716
-66.2016
-66.0309
-81.4664
-82.325
-82.4177
-82.0044
-82.1931
-84.5252
-73.2413
-72.9359
-73.0794
-73.417
-73.8043
-73.1382
-59.3761
-59.4309
-59.5129
-59.2305
-58.8421
-59.491
-71.0439
-71.3043
-71.278
-71.0683
-70.8042
-71.2803
-83.7469
-83.0251
-83.0978
-84.0939
-84.1117
-82.8486
-51.7228
-52.117
-52.1384
-51.8593
-51.8617
-52.2877
-64.8859
-64.9749
-64.9943
-64.8325
-64.6049
-64.8991
-64.2584
-65.081
-64.7582
-64.2944
-64.1388
-67.4704
-48.7934
-48.9535
-48.7912
-49.0548
-48.9265
-49.142
-59.3849
-59.4198
-59.442
-59.4142
-59.3379
-59.4482
-38.3616
-38.5503
-38.4032
-37.8761
-37.8027
-38.6201
-43.3735
-43.1169
-43.0887
-43.2514
-43.4874
-42.8465
-57.8176
-57.5785
-57.5992
-57.7797
-57.892
-57.486
-35.7674
-35.4874
-35.6349
-35.6906
-35.9922
-35.2885
-49.2993
-49.2465
-49.3011
-49.2466
-49.2701
-49.1023
-60.6993
-60.7556
-60.7566
-60.6884
-60.6658
-60.7496
-38.5558
-38.4806
-38.5481
-38.5201
-38.7262
-38.1442
-52.4255
-52.5452
-52.5695
-52.3818
-52.3992
-52.6279
-60.434
-60.4349
-60.4376
-60.4348
-60.4277
-60.4374
-38.8614
-38.7375
-38.8278
-38.9945
-39.2303
-38.8984
-51.6014
-51.6983
-51.686
-51.5524
-51.5189
-51.7023
-62.5392
-62.5288
-62.5412
-62.551
-62.5618
-62.5454
-32.9861
-32.3767
-32.516
-33.0448
-33.4638
-32.3222
-50.7477
-50.7778
-50.7379
-50.6791
-50.5952
-50.6807
-67.7798
-67.8282
-67.8054
-67.7559
-67.7055
-67.7938
123.786
120.154
116.779
117.527
117.417
119.776
-48.1947
-48.1977
-47.9512
-47.5301
-47.3484
-47.2931
-69.0543
-69.1743
-69.3825
-69.5653
-69.6304
-69.6391
143.083
143.141
142.825
141.698
140.731
142.394
-49.8029
-49.7086
-49.5408
-49.4184
-49.3549
-49.4042
-68.1005
-68.1196
-68.1908
-68.3508
-68.4823
-68.5416
150.87
150.74
150.599
150.527
150.503
150.641
-49.0478
-49.0265
-48.9749
-48.8962
-48.8418
-48.8075
-68.2834
-68.306
-68.356
-68.4136
-68.4591
-68.4706
148.326
148.35
148.412
148.39
148.475
148.625
-49.0842
-49.064
-49.0334
-49.0078
-48.9888
-48.9812
-68.6571
-68.6645
-68.6879
-68.7178
-68.7443
-68.7559
144.652
144.681
144.744
144.61
144.624
144.802
-47.8793
-47.8669
-47.8447
-47.8115
-47.7821
-47.7762
-69.0402
-69.0462
-69.0598
-69.0772
-69.0955
-69.0984
116.368
116.825
116.554
115.744
115.234
116.174
-46.8716
-46.8399
-46.8365
-46.8494
-46.8452
-46.8146
-70.5183
-70.5273
-70.5341
-70.5346
-70.5376
-70.5542
-8.54547
17.9877
70.0306
73.2554
86.362
129.052
-55.5603
-55.0924
-64.1131
-60.0891
-58.7538
-59.9216
-62.7599
-67.2915
-73.1679
-77.7971
-72.5042
-70.3966
-68.7369
-42.2415
-69.9503
-58.6643
-78.9717
-64.583
-72.9727
-81.0332
-80.7078
-81.9421
-79.1336
-71.2397
-71.0386
-72.5471
-75.9829
-74.8303
-69.8231
-68.0786
-87.3903
-90.5144
-144.393
-75.2295
-67.6505
-62.8167
-77.4994
-84.9692
-82.0889
-77.6414
-76.4052
-70.8366
-67.954
-70.6172
-70.9138
-69.2623
-68.3331
-65.9456
-56.7922
-49.3719
-42.2529
-42.4674
-43.1706
-45.0345
-59.8079
-61.0132
-59.8738
-56.0229
-55.0709
-54.3345
-65.6274
-65.6789
-66.1877
-64.4162
-63.9449
-64.0797
-33.8793
-29.4792
-28.7549
-30.1981
-33.1516
-34.8162
-50.6219
-49.2597
-48.8058
-49.1045
-50.2428
-50.5909
-63.8432
-63.7995
-63.6757
-63.4869
-63.472
-63.4497
-30.9704
-29.2297
-28.9323
-30.9063
-32.3069
-32.9546
-49.393
-48.7288
-48.7762
-49.1658
-49.6436
-49.4302
-63.0955
-63.1865
-63.1633
-62.8681
-62.729
-62.7934
-33.668
-33.0229
-32.2329
-33.6684
-33.7536
-33.1944
-52.0257
-51.9676
-51.7965
-51.9768
-52.0119
-51.6323
-63.7416
-64.1254
-64.0127
-63.5459
-62.9812
-62.806
-39.7958
-40.4968
-40.6778
-39.567
-38.4826
-38.0224
-53.4638
-53.5378
-53.4094
-53.7505
-53.1828
-53.4692
-63.5996
-63.7606
-63.6743
-63.4313
-63.0323
-62.837
-44.2211
-45.4441
-46.749
-43.9537
-42.5959
-41.7962
-53.9812
-53.6455
-53.4161
-54.5956
-54.756
-56.1535
-62.7915
-62.5723
-62.3374
-62.2956
-62.0498
-61.8216
-39.661
-39.3935
-42.0244
-45.0397
-44.9929
-44.541
-52.7853
-52.2027
-51.5506
-53.831
-55.5413
-56.4929
-61.7665
-61.4118
-61.103
-61.3938
-61.2613
-61.3167
-31.6143
-31.1912
-31.5354
-39.8883
-42.0939
-38.3851
-57.1726
-57.4516
-56.3556
-55.9605
-56.2135
-55.8426
-60.1612
-60.1482
-60.2582
-60.9976
-61.25
-61.2604
-13.1097
-15.5851
-17.8897
-24.2851
-26.983
-22.6049
-54.4379
-54.0863
-53.5725
-52.964
-52.496
-52.6449
-67.5727
-67.1146
-66.8442
-67.3748
-67.654
-67.8052
)
;

boundaryField
{
    seabed_topleft_surface
    {
        type            calculated;
        value           nonuniform List<scalar> 
72
(
23340.4
23334.2
23337.3
23341.1
23346.1
23341.9
23538.6
23534.5
23535.2
23539.2
23549
23534.1
23226.9
23222.4
23222.7
23226.3
23233.1
23221.5
22280.6
22279.5
22278.6
22281
22283.1
22278.9
20643.9
20643.7
20643.3
20643.9
20644.1
20644.2
17777.1
17768.1
17769.2
17774.1
17774.6
17769.3
13784.7
13786.7
13787.1
13782.3
13776
13798
10694
10697.7
10700.5
10688.9
10687.6
10706.7
9334.99
9333.6
9336
9327.86
9332.25
9320.88
8910.38
8899.49
8901.98
8906.74
8918.16
8886.98
8621.17
8594.78
8594.84
8625.92
8634.61
8597.93
8610.89
8607.84
8609.62
8615.79
8622.79
8626.8
)
;
    }
    seabed_topright_surface
    {
        type            calculated;
        value           nonuniform List<scalar> 
72
(
2998.27
2963.33
2966.16
2916.36
2895.87
2904.55
2837.75
2842.49
2821.29
2741.37
2703
2736.14
2284.79
2214.07
2164.1
2136.32
2223.86
2285.06
1174.61
1099.99
987.326
1027.03
1273.63
1285.92
707.378
627.164
547.598
421.811
521.725
480.869
602.864
597.349
596.287
574.748
390.388
490.517
619.83
610.588
605.133
599.887
573.635
538.403
603.361
603.017
561.227
511.673
495.857
497.843
575.761
571.738
510.46
301.055
297.674
514.256
452.732
570.186
502.261
293.268
336.219
552.466
534.011
631.427
629.018
616.011
683.622
674.022
612.208
638.604
758.877
724.209
710.994
670.365
)
;
    }
    breakwater_top_surface
    {
        type            calculated;
        value           nonuniform List<scalar> 
36
(
313.043
307.274
302.011
301.846
300.708
305.789
342.322
343.037
342.559
339.543
337.525
341.156
354.679
354.47
354.282
354.278
354.285
354.472
349.118
349.156
349.385
349.383
349.626
349.954
344.057
344.076
344.308
344.161
344.313
344.653
299.701
300.426
300.042
298.655
297.82
299.434
)
;
    }
    breakwater_left_surface
    {
        type            calculated;
        value           nonuniform List<scalar> 
24
(
5010.4
5010.42
5012.13
5014.95
5019.65
5023.64
1196.72
1184.08
1186.77
1201.34
1213.22
1188.24
119.648
114.863
117.544
122.099
128.303
120.139
-82.8229
-82.3502
-82.7764
-83.5893
-84.9374
-83.0564
)
;
    }
    breakwater_right_surface
    {
        type            calculated;
        value           nonuniform List<scalar> 
24
(
431.191
461.201
487.856
446.633
429.929
389.216
24.5712
55.1922
68.1228
77.6575
51.8644
34.5496
-66.6594
-82.8487
-72.4633
-34.4322
-45.3998
-42.158
-52.2306
-60.3903
-65.5252
-95.1788
-107.992
-55.3078
)
;
    }
    water_front_surface
    {
        type            calculated;
        value           nonuniform List<scalar> 
186
(
19835.5
19335.2
18432.4
17486
15849.3
13112.4
9561.19
6805.47
5596.47
5188.53
4918.9
4998.03
11965.1
10176.2
9423.33
8624.74
6726.37
4027.34
2092.79
1118.28
799.409
902.328
993.163
1194.71
4078.51
1251.27
1251.13
1690.87
1567.58
965.002
398.723
263.995
173.734
79.2583
171.772
119.138
277.723
-54.0106
-104.087
-105.955
-81.559
-61.1418
-41.1629
-14.363
-11.7435
-20.5202
-7.63735
-82.9263
2538.23
2377.35
1823.98
907.326
425.715
314.888
331.666
315.146
304.709
284.639
374.163
430.569
1694.87
1437.18
728.234
182.554
-15.3183
-33.4791
-9.32706
8.38031
20.3311
31.9468
38.6951
24.4097
1161.49
831.364
312.624
23.4547
-10.321
-12.3561
-6.53025
-10.9727
-21.405
-27.0579
-26.4762
-66.7552
529.979
95.7862
-33.9004
-39.3022
-23.1537
-24.0988
-27.6589
-36.6782
-40.81
-40.4985
-25.556
-52.4191
-8.59535
-22.933
-47.5649
-35.5793
-54.14
-89.5667
-60.7067
-66.8125
-92.0141
-70.5002
-66.3769
-81.4664
-73.2413
-59.3761
-71.0439
-83.7469
-51.7228
-64.8859
-64.2584
-48.7934
-59.3849
-38.3616
-43.3735
-57.8176
-35.7674
-49.2993
-60.6993
-38.5558
-52.4255
-60.434
-38.8614
-51.6014
-62.5392
-32.9861
-50.7477
-67.7798
123.786
-48.1947
-69.0543
143.083
-49.8029
-68.1005
150.87
-49.0478
-68.2834
148.326
-49.0842
-68.6571
144.652
-47.8793
-69.0402
116.368
-46.8716
-70.5183
-8.54547
-55.5603
-62.7599
-68.7369
-72.9727
-71.0386
-87.3903
-77.4994
-67.954
-56.7922
-59.8079
-65.6274
-33.8793
-50.6219
-63.8432
-30.9704
-49.393
-63.0955
-33.668
-52.0257
-63.7416
-39.7958
-53.4638
-63.5996
-44.2211
-53.9812
-62.7915
-39.661
-52.7853
-61.7665
-31.6143
-57.1726
-60.1612
-13.1097
-54.4379
-67.5727
)
;
    }
    water_back_surface
    {
        type            calculated;
        value           nonuniform List<scalar> 
186
(
19837
19331
18427
17484.4
15849.6
13105.5
9566.13
6808.17
5587.27
5177.09
4912.77
5011.26
11958.5
10158.7
9401.11
8606.45
6725.93
4019.93
2082.07
1114.9
820.736
907.949
995.379
1186.22
4066.91
1270.45
1246.26
1684.4
1558.52
933.775
365.44
239.086
192.122
96.0579
173.589
119.703
284.629
-52.9325
-103.898
-106.792
-80.6451
-59.0499
-41.3588
-13.887
-11.8366
-18.6543
-7.72948
-83.1622
2443.66
2275.25
1824.12
941.087
422.106
290.665
286.957
252.275
245.933
270.351
391.907
388.25
1588.19
1287.05
746.212
272.466
30.6607
-35.1275
-16.1332
-4.71432
5.87459
28.0325
27.0869
34.4892
992.348
511.522
163.975
18.4296
-10.2772
-17.2385
-7.29291
-10.4333
-15.0535
-18.544
-28.9775
-42.2536
350.942
-27.2164
-59.993
-37.2615
-22.3454
-25.1933
-26.9605
-30.0211
-31.8654
-43.9499
-28.7316
-55.4958
-9.37171
-24.4669
-48.6856
-37.3121
-53.4304
-85.3252
-60.7511
-64.2999
-94.7079
-70.6504
-66.0309
-84.5252
-73.1382
-59.491
-71.2803
-82.8486
-52.2877
-64.8991
-67.4704
-49.142
-59.4482
-38.6201
-42.8465
-57.486
-35.2885
-49.1023
-60.7496
-38.1442
-52.6279
-60.4374
-38.8984
-51.7023
-62.5454
-32.3222
-50.6807
-67.7938
119.776
-47.2931
-69.6391
142.394
-49.4042
-68.5416
150.641
-48.8075
-68.4706
148.625
-48.9812
-68.7559
144.802
-47.7762
-69.0984
116.174
-46.8146
-70.5542
129.052
-59.9216
-70.3966
-64.583
-71.2397
-68.0786
-62.8167
-70.8366
-65.9456
-45.0345
-54.3345
-64.0797
-34.8162
-50.5909
-63.4497
-32.9546
-49.4302
-62.7934
-33.1944
-51.6323
-62.806
-38.0224
-53.4692
-62.837
-41.7962
-56.1535
-61.8216
-44.541
-56.4929
-61.3167
-38.3851
-55.8426
-61.2604
-22.6049
-52.6449
-67.8052
)
;
    }
    water_left_surface
    {
        type            calculated;
        value           nonuniform List<scalar> 
42
(
19847.5
19841.3
19844.5
19848.2
19853.2
19849
11978.7
11965.3
11965.3
11980.7
11988.6
11972.1
4088.48
4089.17
4081.37
4089.12
4078.26
4076.9
278.647
277.047
282.095
272.916
266.793
285.563
-8.59535
-9.71086
-9.81877
-8.24525
-6.0457
-9.37171
-22.933
-23.0744
-24.1708
-22.6195
-22.409
-24.4669
-47.5649
-46.0487
-47.3889
-47.6399
-48.5241
-48.6856
)
;
    }
    water_right_surface
    {
        type            calculated;
        value           nonuniform List<scalar> 
42
(
2539.8
2504.68
2507.52
2458.16
2436.76
2445.24
1696.41
1588.68
1610.18
1579.67
1485.66
1589.74
1163
1137.19
1141.42
1142.5
987.676
993.863
531.463
579.664
545.361
564.905
371.79
352.426
-8.54547
17.9877
70.0306
73.2554
86.362
129.052
-55.5603
-55.0924
-64.1131
-60.0891
-58.7538
-59.9216
-62.7599
-67.2915
-73.1679
-77.7971
-72.5042
-70.3966
)
;
    }
    water_top_surface
    {
        type            calculated;
        value           nonuniform List<scalar> 
180
(
-102.815
-90.1137
-88.4064
-102.692
-104.697
-88.1767
-107.553
-107.406
-106.81
-105.586
-102.477
-105.391
-81.6249
-75.9733
-75.8155
-83.9422
-89.0652
-69.7248
-84.2577
-83.7183
-83.5319
-85.0778
-85.9514
-81.2964
-75.1687
-75.7571
-75.586
-75.2339
-75.0255
-75.353
-68.9354
-69.0885
-69.0606
-68.9032
-68.8506
-69.0503
-68.6701
-68.67
-68.67
-68.6701
-68.6701
-68.67
-68.6757
-68.6725
-68.6725
-68.6758
-68.6785
-68.6713
-68.6793
-68.6793
-68.6791
-68.6791
-68.6791
-68.679
-68.685
-68.685
-68.685
-68.685
-68.685
-68.685
-69.3902
-69.3878
-69.3996
-69.4004
-69.4201
-69.4104
-69.3024
-69.3229
-69.3187
-69.3099
-69.3008
-69.3256
-68.79
-68.8144
-68.7873
-68.7319
-68.7123
-68.7241
-69.7974
-69.8364
-69.7604
-69.7357
-69.7143
-69.7829
-69.3275
-69.34
-69.3259
-69.3289
-69.332
-69.323
-69.5045
-69.5197
-69.5137
-69.5156
-69.5169
-69.5153
-69.4335
-69.4413
-69.4362
-69.4272
-69.4248
-69.427
-68.693
-68.6931
-68.6927
-68.6913
-68.6903
-68.691
-68.6745
-83.4383
-114.5
-179.774
-80.3599
-68.9849
-80.5392
-73.9131
-85.2681
-78.7506
-72.4891
-74.8847
-68.8919
-72.068
-68.7639
-68.7661
-68.8682
-70.6102
-68.6701
-68.6735
-68.6708
-68.6864
-68.67
-68.67
-68.67
-68.67
-68.6706
-68.67
-68.67
-68.67
-68.67
-68.67
-68.67
-68.67
-68.67
-68.67
-68.67
-68.67
-68.67
-68.67
-68.67
-68.67
-68.6701
-68.6713
-68.6709
-68.6702
-68.67
-68.67
-68.6737
-68.6863
-68.6773
-68.6712
-68.67
-68.6705
-68.8185
-68.7743
-68.8076
-69.0811
-69.151
-69.361
-69.6836
-69.9687
-69.8195
-70.1746
-70.3665
-70.3637
-69.7849
-70.0639
-70.0423
-69.9425
-69.9399
-69.7522
)
;
    }
}


// ************************************************************************* //
