/*--------------------------------*- C++ -*----------------------------------*\
| =========                 |                                                 |
| \\      /  F ield         | OpenFOAM: The Open Source CFD Toolbox           |
|  \\    /   O peration     | Version:  v1612+                                |
|   \\  /    A nd           | Web:      www.OpenFOAM.com                      |
|    \\/     M anipulation  |                                                 |
\*---------------------------------------------------------------------------*/
FoamFile
{
    version     2.0;
    format      ascii;
    class       volScalarField;
    location    "6.65";
    object      alpha.water;
}
// * * * * * * * * * * * * * * * * * * * * * * * * * * * * * * * * * * * * * //

dimensions      [0 0 0 0 0 0 0];

internalField   nonuniform List<scalar> 
320
(
1
1
1
1
1.6508e-05
1.55878e-05
1.62622e-05
1.61016e-05
1.64351e-05
1.6755e-05
1.75614e-05
1.81037e-05
1.62086e-05
1.59498e-05
1.47784e-05
1.67885e-05
0.99998
0.999987
0.999987
0.999985
0.999984
0.999981
0.99998
0.999979
0.99998
0.999984
0.999992
0.999981
1
1
1
1
1
1
1
1
1
1
1
1
1
1
1
1
1
1
1
1
1
1
1
1
1
1
1
1
1.53914e-05
1.63507e-05
1.48858e-05
1.68634e-05
1.24176e-05
1.22997e-05
1.33281e-05
1.28817e-05
1.58106e-05
1.49952e-05
1.31148e-05
1.27782e-05
1.6516e-05
1.47343e-05
1.39821e-05
1.45534e-05
1.4794e-05
1.66778e-05
1.64391e-05
1.54273e-05
0.999982
0.999979
0.999988
0.999981
0.99999
0.999991
0.999992
0.999993
0.999982
0.999985
0.999992
0.999993
0.999982
0.99999
0.999991
0.999993
0.999992
0.999985
0.999985
0.999991
1
1
1
1
1
1
1
1
1
1
1
1
1
1
1
1
1
1
1
1
1
1
1
1
1
1
1
1
1
1
1
1
1
1
1
1
1
1
1
1
1
1
1
1
1
1
1
1
1
1
1
1
1
1
1
1
1
1
1
1
1
1
1
1
1
1
1
1
1
1
1
1
1
1
1
1
1.64406e-05
1.58921e-05
1.70789e-05
1.40772e-05
1.47593e-05
1.46321e-05
1.64038e-05
1.54765e-05
1.43256e-05
1.78976e-05
1.72483e-05
1.64054e-05
1.76776e-05
1.57646e-05
1.59344e-05
1.65948e-05
1.60348e-05
1.59799e-05
1.71701e-05
1.70786e-05
1.67545e-05
1.66132e-05
1.5703e-05
1.67493e-05
1.5986e-05
1.6246e-05
1.77002e-05
2.14507e-05
0.999982
0.999981
0.99998
0.999989
0.999984
0.999983
0.999975
0.999981
0.999984
0.999979
0.999981
0.999983
0.999979
0.999984
0.999982
0.99998
0.999978
0.999983
0.999985
0.999979
0.999979
0.999982
0.999987
0.999983
0.999983
0.999979
0.999981
0.99998
1
1
1
1
1
1
1
1
1
1
1
1
1
1
1
1
1
1
1
1
1
1
1
1
1
1
1
1
1
1
1
1
1
1
1
1
1
1
1
1
1
1
1
1
1
1
1
1
1
1
1
1
1
1
1
1
1
1
1
1
1
1
1
1
1
1
1
1
1
1
1
1
1
1
1
1
1
1
1
1
1
1
1
1
1.78792e-05
1.60453e-05
1.6131e-05
1.66705e-05
0.999981
0.999986
0.999985
0.999986
)
;

boundaryField
{
    top_fluid_surface
    {
        type            inletOutlet;
        inletValue      uniform 0;
        value           nonuniform List<scalar> 
64
(
0
1.55878e-05
1.62622e-05
1.61016e-05
0
0
0
0
0
0
1.47784e-05
0
1.53914e-05
0
1.48858e-05
0
1.24176e-05
1.22997e-05
1.33281e-05
1.28817e-05
0
1.49952e-05
1.31148e-05
1.27782e-05
0
1.47343e-05
1.39821e-05
1.45534e-05
1.4794e-05
0
0
1.54273e-05
0
1.58921e-05
0
1.40772e-05
1.47593e-05
1.46321e-05
0
1.54765e-05
1.43256e-05
0
0
0
0
1.57646e-05
0
0
0
1.59799e-05
0
0
0
0
0
0
1.5986e-05
0
0
0
0
0
0
0
)
;
    }
    bottom_fluid_surface
    {
        type            zeroGradient;
    }
    lateral_surface_1
    {
        type            zeroGradient;
    }
    lateral_surface_2
    {
        type            zeroGradient;
    }
    lateral_surface_3
    {
        type            zeroGradient;
    }
    lateral_surface_4
    {
        type            zeroGradient;
    }
}


// ************************************************************************* //
