/*--------------------------------*- C++ -*----------------------------------*\
| =========                 |                                                 |
| \\      /  F ield         | OpenFOAM: The Open Source CFD Toolbox           |
|  \\    /   O peration     | Version:  v1612+                                |
|   \\  /    A nd           | Web:      www.OpenFOAM.com                      |
|    \\/     M anipulation  |                                                 |
\*---------------------------------------------------------------------------*/
FoamFile
{
    version     2.0;
    format      ascii;
    class       surfaceScalarField;
    location    "6.65";
    object      alphaPhi;
}
// * * * * * * * * * * * * * * * * * * * * * * * * * * * * * * * * * * * * * //

dimensions      [0 3 -1 0 0 0 0];

internalField   nonuniform List<scalar> 
816
(
-2.08911e-06
-1.05809e-05
4.32667e-06
-9.95881e-06
-1.46227e-05
3.29214e-05
4.07278e-06
6.99174e-06
-1.51497e-06
9.42721e-06
-2.10634e-05
-5.695e-06
1.41117e-06
2.97107e-06
7.01987e-06
-1.62863e-05
-1.82799e-06
8.3785e-06
8.07722e-06
-1.62537e-05
1.04021e-08
-7.74149e-09
1.34978e-06
-2.8e-10
3.74682e-11
8.04225e-09
-3.06294e-06
2.44843e-09
-1.71668e-09
-2.10051e-09
-8.63649e-06
1.07208e-09
9.1278e-09
-1.55187e-09
-5.18867e-06
4.38703e-09
-5.15365e-09
7.27514e-10
4.86579e-07
5.53698e-09
-6.333e-09
-3.19536e-09
-1.59506e-06
3.25388e-09
3.5932e-09
-2.88091e-09
-6.51174e-06
2.3853e-09
2.44473e-09
1.48311e-09
-4.98573e-06
2.8431e-09
-4.8338e-10
3.32744e-10
-2.31558e-06
1.75271e-09
1.02833e-09
3.00604e-10
1.13753e-06
-2.53732e-09
3.77278e-09
-2.22206e-09
8.78151e-12
-2.12585e-09
2.39142e-10
2.32451e-06
-7.4399e-10
-5.27582e-09
2.29989e-05
-4.17553e-06
-2.41113e-05
-1.8677e-06
1.2648e-05
2.76009e-05
-2.59656e-05
3.63643e-06
1.08709e-05
-3.08078e-06
-4.71215e-06
-3.60271e-06
2.13785e-05
-1.02309e-05
1.25748e-05
-5.08491e-06
-7.74805e-06
3.20408e-07
-4.26004e-06
1.20053e-07
-3.64329e-06
7.63482e-06
-2.6447e-05
3.67288e-06
1.38055e-05
4.67917e-06
-2.63677e-05
-4.36345e-06
1.99834e-05
5.23634e-06
2.72934e-06
-1.58948e-05
1.82347e-06
5.90132e-06
-3.60691e-05
1.53947e-05
2.01694e-05
2.14512e-05
-2.80641e-05
4.39508e-06
1.21117e-05
-3.47372e-06
3.2546e-05
3.86923e-06
-1.20287e-05
-1.32735e-05
8.66362e-06
5.27869e-06
-6.11734e-06
-1.94365e-06
-1.13875e-05
-3.33944e-07
-1.0329e-05
-1.13986e-05
-3.37776e-06
-5.25634e-07
-2.7516e-06
-1.11328e-07
-1.1653e-05
1.54279e-06
4.75322e-06
4.2293e-06
-2.27924e-06
-2.576e-06
2.29914e-07
-1.484e-06
-1.27797e-05
-3.413e-06
-1.10454e-05
-4.39681e-06
-1.22014e-05
-2.99575e-06
-7.58376e-06
7.92959e-07
6.52498e-06
-3.80552e-06
-1.56753e-05
-6.77855e-06
-1.73914e-05
-1.0666e-05
-1.26309e-05
-5.60965e-06
1.77457e-06
1.39576e-05
-3.82196e-06
-6.89132e-06
-1.99455e-06
-4.549e-06
-1.01473e-06
-6.13261e-06
2.6354e-06
-5.50402e-06
-4.61734e-06
1.70764e-06
4.4705e-06
-1.10025e-06
3.31756e-06
-2.77292e-06
8.46694e-07
1.30644e-06
1.48957e-06
-7.68722e-07
4.13089e-06
3.52456e-06
-2.80603e-06
-1.77513e-06
-4.54749e-07
-3.70873e-06
-5.69305e-06
-2.11767e-06
-1.91433e-06
-6.21264e-07
-3.31726e-07
-6.92387e-06
-5.74962e-07
1.25496e-06
2.16577e-06
-3.66768e-07
-1.46198e-06
3.14977e-07
-9.41063e-07
-1.19999e-06
-1.98206e-06
-7.17692e-06
-3.89366e-06
-2.74152e-06
-2.19866e-06
-4.32417e-06
-4.55314e-06
3.74451e-06
-3.00054e-07
-1.27753e-06
-4.68827e-06
-9.85545e-06
-4.39963e-06
-5.63161e-06
-3.54018e-06
-3.44425e-06
8.31709e-07
-2.27691e-06
4.26015e-06
-1.81654e-06
-3.69115e-06
-2.32325e-06
4.25825e-09
-5.4352e-09
-1.71002e-06
-1.00437e-09
7.74287e-09
2.64465e-06
-1.05244e-09
5.58572e-09
-1.31094e-06
1.14054e-09
8.35005e-09
-2.3957e-06
1.50358e-09
-2.61822e-10
-1.17346e-06
-2.43852e-09
-1.4104e-09
-3.46135e-09
-1.07036e-06
-4.0019e-10
-4.50188e-09
-4.40018e-06
-3.948e-09
-7.12e-09
-1.23465e-06
-4.16167e-09
-3.09472e-09
6.63924e-07
-5.69757e-10
1.97509e-09
-7.85319e-06
-5.46161e-09
-2.97213e-09
-1.48262e-09
1.68699e-06
-1.76037e-09
-6.93675e-09
-5.01037e-07
-3.355e-09
-2.19722e-09
-1.82955e-06
8.51862e-10
-1.58835e-09
-5.79669e-06
-3.51008e-09
1.02426e-10
4.50406e-11
-3.87571e-09
-4.84557e-09
-2.23534e-09
6.63298e-08
-5.27363e-10
-5.16596e-09
-3.62992e-06
-4.54259e-09
-3.29354e-09
1.40028e-06
-1.71918e-09
-2.50291e-09
2.42944e-06
-3.55307e-09
7.81326e-07
-3.5593e-09
-7.12056e-09
-1.43498e-05
2.87221e-07
1.15859e-05
8.88202e-06
9.38453e-06
-1.56517e-05
1.59195e-07
1.08359e-05
-1.24399e-05
1.25637e-05
4.40748e-06
-4.31441e-06
8.11243e-07
1.66598e-05
3.54973e-05
-2.85111e-05
-2.51307e-05
-1.84482e-06
4.53018e-05
-1.45249e-05
-1.57434e-05
3.4677e-05
-3.48756e-05
-3.96919e-05
6.05545e-05
-3.90626e-05
-2.30639e-05
-4.04067e-06
-4.87366e-06
1.72514e-05
-1.70355e-05
-1.13363e-05
-1.82913e-05
-1.07833e-06
4.00728e-05
-5.44821e-06
-2.15031e-05
4.56827e-05
-2.93742e-05
5.48257e-06
-3.95628e-05
-3.10571e-06
-1.16475e-06
2.96811e-05
-1.69537e-05
1.95101e-05
2.52911e-05
-2.72492e-05
-1.78986e-05
3.09419e-06
3.75649e-05
6.08044e-06
-1.83737e-05
4.35495e-05
-2.1403e-05
-1.31132e-05
8.82809e-06
-5.40642e-06
-3.41499e-06
3.40647e-06
7.09804e-07
3.72664e-05
-1.5994e-05
-2.1446e-05
8.02598e-06
-1.38335e-06
6.59036e-06
-3.65666e-06
-5.35641e-07
-7.70423e-06
2.90167e-07
-2.32978e-06
-4.86895e-06
-9.15316e-06
5.57612e-07
-2.98051e-06
-4.33543e-06
-8.82778e-06
1.65049e-05
1.33219e-05
1.50446e-05
-6.50014e-07
2.04707e-05
4.99872e-06
4.59212e-06
1.5535e-05
1.81155e-05
1.65458e-05
2.72776e-05
2.15422e-05
9.86552e-06
-2.3586e-06
1.57562e-06
-9.964e-06
-6.4609e-06
3.14108e-06
6.11433e-06
1.55443e-06
1.81227e-05
-5.55389e-07
1.208e-05
2.06363e-05
1.14819e-05
-4.53015e-06
-1.81784e-05
1.75286e-06
-4.36e-06
1.4308e-05
8.42301e-06
-1.19374e-05
1.16737e-05
1.66714e-05
4.52985e-06
3.0101e-07
1.65858e-05
-8.68566e-06
1.03554e-05
1.95204e-05
8.36914e-06
6.13295e-06
4.12156e-06
5.12365e-06
2.12098e-06
1.82406e-06
1.05364e-06
1.65416e-05
8.64559e-06
1.2826e-05
5.30145e-06
-6.33528e-07
2.4402e-06
-2.32295e-06
3.2626e-07
-2.68153e-06
-4.90679e-07
-1.51339e-06
3.85862e-07
-5.52458e-06
7.03483e-08
-1.46974e-06
-3.42612e-06
-4.7817e-06
4.79678e-06
7.93878e-06
8.61639e-06
-6.44232e-07
7.25166e-06
2.14146e-06
2.48498e-06
4.9098e-06
9.67202e-06
9.10454e-06
8.70572e-06
1.22804e-05
5.12919e-06
-8.87128e-07
5.26485e-07
-5.63094e-06
-3.33046e-07
1.63539e-06
3.01534e-06
9.66628e-07
5.27335e-06
-9.62492e-07
6.7157e-06
6.77476e-06
5.91114e-06
-3.62347e-06
-4.66167e-06
5.58026e-07
-3.036e-06
4.44849e-06
4.5682e-06
-5.8678e-06
3.48888e-06
8.75463e-06
2.22074e-06
5.72511e-07
5.90618e-06
-5.59972e-06
5.95973e-06
6.09537e-06
4.47677e-06
3.2037e-06
2.01025e-06
2.58175e-06
1.31302e-06
4.82507e-07
-4.5817e-07
4.3536e-06
5.11813e-06
7.74923e-06
3.34135e-07
-3.22896e-06
1.68202e-06
-3.39994e-06
1.53213e-06
9.45721e-07
1.18092e-06
-2.15137e-06
-2.39273e-07
6.54145e-07
-2.97533e-07
3.20615e-06
-2.39451e-06
-2.49208e-07
6.25927e-07
-2.22306e-06
-1.12493e-06
-3.71535e-07
5.53015e-07
-2.97863e-06
-6.59595e-07
1.12285e-06
-1.39414e-06
-5.0039e-07
-9.9385e-07
-6.18637e-07
-3.66717e-06
-1.61291e-06
-4.99054e-07
-3.17328e-06
1.0159e-06
-1.39385e-06
-1.16599e-06
-5.02507e-06
-2.69603e-06
-1.49685e-06
1.5689e-07
-1.99003e-06
-1.31678e-06
-1.09301e-06
2.50914e-06
-3.44702e-07
-1.03622e-06
5.6793e-08
4.08277e-07
9.37308e-07
-1.61174e-06
6.6802e-07
-6.57438e-07
-2.31508e-06
3.11601e-06
4.62728e-06
-2.54324e-08
1.99414e-06
1.22192e-06
4.77622e-06
4.35629e-06
5.06369e-06
1.85841e-06
9.8734e-07
-1.67963e-06
1.17465e-06
2.03909e-06
4.31073e-07
-5.22897e-07
3.23058e-06
3.47435e-06
-1.10892e-06
6.8327e-07
-1.08072e-06
3.24062e-06
-2.83474e-06
4.20584e-06
1.00543e-06
3.26351e-07
-2.30158e-06
3.00843e-06
1.90305e-06
2.49391e-06
5.34085e-07
1.37627e-06
5.09984e-07
2.4405e-06
2.94471e-06
9.27483e-09
-1.38992e-08
8.98469e-07
8.03105e-09
-4.25256e-06
1.21441e-08
5.26445e-07
5.91149e-09
9.41689e-11
4.26289e-09
1.48262e-06
-1.31899e-09
-6.01024e-06
8.2912e-10
-8.05127e-06
-8.23461e-10
-1.37399e-05
-7.72959e-09
1.68321e-06
-3.85302e-09
1.05158e-06
-2.33112e-09
-2.18995e-06
-8.68751e-10
2.57594e-07
7.09361e-10
1.84381e-06
-7.53053e-12
-1.04858e-05
-2.09487e-09
1.82914e-06
-1.10743e-09
4.01358e-06
-4.05817e-09
4.21139e-06
-3.02473e-09
-4.96954e-06
-2.25169e-09
-2.91599e-06
-1.70142e-09
-3.74957e-06
2.36345e-09
3.43214e-06
-7.82035e-11
6.15935e-06
-2.2165e-09
6.39393e-06
-2.26138e-09
-7.35827e-07
-4.47921e-09
-6.40457e-06
-7.3188e-09
-2.38717e-06
-9.85636e-09
-1.03357e-06
1.16592e-06
1.49331e-05
-1.78374e-05
-9.56381e-06
3.59633e-06
1.28883e-05
1.86915e-05
-1.23246e-05
6.21559e-07
3.60228e-05
-1.75267e-05
2.68324e-05
-2.34951e-05
-1.61988e-05
2.03348e-05
-5.1462e-05
1.08267e-05
-2.54727e-05
-1.99934e-05
2.40184e-05
-9.26138e-06
-4.24687e-05
8.96519e-06
-6.26041e-05
1.27992e-05
-8.39571e-06
8.15179e-06
4.95554e-06
-1.00362e-05
2.3265e-05
-3.30289e-06
-1.9278e-05
-2.65521e-06
5.27385e-06
-2.66548e-07
-1.99598e-05
-8.09769e-07
-1.13388e-05
-7.25494e-06
-1.29098e-05
-1.52083e-05
-2.60361e-05
3.05355e-05
-3.96989e-05
1.14762e-05
1.13547e-05
-4.10975e-06
4.53682e-05
5.90949e-06
-2.28349e-05
-6.06874e-06
-5.88103e-06
-1.36593e-05
3.79842e-06
-9.11718e-06
-2.90175e-05
-2.30279e-05
-4.19556e-06
7.8132e-06
-4.53204e-06
-1.97409e-06
6.99127e-06
-8.45175e-06
-5.54993e-06
2.27537e-06
1.61529e-05
1.28612e-05
1.19141e-05
1.72784e-05
-7.29925e-06
-1.12412e-05
-2.29643e-05
-8.97256e-06
-1.2717e-05
9.3407e-06
1.07139e-05
3.5468e-06
-1.85529e-05
-9.46759e-06
-2.8045e-05
-1.18894e-05
-4.40378e-06
-6.36217e-06
2.60793e-06
6.41834e-06
1.04779e-05
1.78874e-06
-8.58099e-06
3.46614e-06
3.08292e-06
3.85017e-06
-8.84027e-06
8.82341e-09
-5.7625e-06
2.24498e-06
-6.70785e-06
3.50112e-06
-1.06758e-05
-1.85691e-05
-1.76024e-05
-8.35456e-06
5.76154e-06
7.55118e-06
2.07649e-05
3.30178e-06
-1.02242e-05
4.33653e-06
-1.78968e-06
6.60807e-06
2.57175e-06
3.59255e-06
-1.31766e-05
-1.15951e-05
-2.92362e-06
5.02774e-06
-1.51282e-06
-8.12127e-07
2.5713e-06
-4.31033e-06
-2.54736e-06
1.43636e-06
4.87806e-06
7.64092e-06
2.28742e-06
9.53012e-06
-1.1477e-06
-6.13897e-06
-7.30612e-06
-5.42991e-06
-4.82453e-06
5.13084e-06
2.30789e-06
2.48829e-06
-6.23376e-06
-5.90375e-06
-7.36216e-06
-7.41139e-06
-2.3833e-06
-4.01056e-06
8.99979e-07
3.82642e-06
2.7007e-06
8.04616e-07
-2.66135e-06
2.01839e-06
9.14252e-07
2.15721e-06
-3.0612e-06
-6.04087e-07
-2.43119e-06
5.68056e-07
-3.29811e-06
1.85347e-06
-3.25336e-06
-1.0473e-05
-5.38101e-06
-4.122e-06
1.72913e-06
5.11206e-06
5.92722e-06
1.88238e-06
-2.53611e-06
2.08589e-06
5.84712e-07
4.61944e-06
-4.13655e-07
2.74334e-06
-3.55442e-06
-3.83113e-06
-1.47887e-06
2.41004e-06
7.011e-08
-2.06947e-06
1.19214e-06
2.80096e-06
4.78063e-06
-2.53532e-06
-2.73964e-06
1.56932e-06
1.07941e-07
-2.20052e-06
-3.62817e-06
-1.56261e-06
1.18363e-06
5.38886e-07
9.2262e-07
1.32669e-06
-4.19876e-07
-4.51028e-07
5.36913e-07
-4.89068e-06
-2.17829e-06
1.44274e-06
8.06612e-07
1.92486e-06
2.02692e-06
1.42092e-06
4.57826e-09
2.54815e-09
-3.72216e-06
-3.12043e-09
1.57578e-06
5.86832e-09
7.28483e-07
-2.31193e-06
5.52356e-06
1.88574e-05
-6.55073e-06
1.90111e-05
)
;

boundaryField
{
    top_fluid_surface
    {
        type            calculated;
        value           nonuniform List<scalar> 
64
(
0
1.33395e-09
1.03593e-09
3.88947e-10
0
0
0
0
0
0
3.84543e-09
0
1.46959e-09
0
2.73609e-09
0
9.41538e-09
1.01335e-08
7.98669e-09
8.76394e-09
0
2.76791e-09
7.31104e-09
8.0732e-09
0
4.62107e-09
5.30844e-09
3.99653e-09
4.22087e-09
0
0
1.5196e-09
0
4.43157e-10
0
5.07457e-09
3.01372e-09
3.3734e-09
0
3.14445e-09
4.28983e-09
0
0
0
0
8.0382e-10
0
0
0
1.18721e-10
0
0
0
0
0
0
8.61762e-10
0
0
0
0
0
0
0
)
;
    }
    bottom_fluid_surface
    {
        type            calculated;
        value           uniform 0;
    }
    lateral_surface_1
    {
        type            calculated;
        value           uniform 0;
    }
    lateral_surface_2
    {
        type            calculated;
        value           uniform 0;
    }
    lateral_surface_3
    {
        type            calculated;
        value           uniform 0;
    }
    lateral_surface_4
    {
        type            calculated;
        value           uniform 0;
    }
}


// ************************************************************************* //
