/*--------------------------------*- C++ -*----------------------------------*\
| =========                 |                                                 |
| \\      /  F ield         | OpenFOAM: The Open Source CFD Toolbox           |
|  \\    /   O peration     | Version:  v1612+                                |
|   \\  /    A nd           | Web:      www.OpenFOAM.com                      |
|    \\/     M anipulation  |                                                 |
\*---------------------------------------------------------------------------*/
FoamFile
{
    version     2.0;
    format      ascii;
    class       volScalarField;
    location    "6.65";
    object      p_rgh;
}
// * * * * * * * * * * * * * * * * * * * * * * * * * * * * * * * * * * * * * //

dimensions      [1 -1 -2 0 0 0 0];

internalField   nonuniform List<scalar> 
320
(
-9800.2
-9800.19
-9800.19
-9800.19
-0.00323418
0.00242093
0.000437301
-8.04538e-05
-0.00238529
-0.00393649
-0.00685236
-0.0094155
-0.00172444
-0.000658034
0.00546125
-0.00519633
-9799.83
-9799.95
-9799.94
-9799.92
-9799.87
-9799.84
-9799.81
-9799.8
-9799.83
-9799.87
-9800.01
-9799.84
-9800.21
-9800.2
-9800.2
-9800.21
-9800.2
-9800.21
-9800.21
-9800.21
-9800.21
-9800.2
-9800.19
-9800.21
-9800.21
-9800.2
-9800.2
-9800.2
-9800.21
-9800.2
-9800.21
-9800.21
-9800.21
-9800.21
-9800.21
-9800.21
-9800.2
-9800.2
-9800.2
-9800.2
0.00192921
-0.00311743
0.00485731
-0.00381019
0.0177098
0.0185115
0.0134406
0.0149694
-0.000171163
0.0049695
0.0133448
0.0144189
-0.00301301
0.00649186
0.00898592
0.00624932
0.00596531
-0.00406937
-0.00345145
0.00166966
-9799.9
-9799.82
-9799.97
-9799.84
-9800.03
-9800.04
-9800.03
-9800.05
-9799.85
-9799.94
-9800.03
-9800.04
-9799.85
-9799.99
-9800.01
-9800.02
-9800.01
-9799.87
-9799.88
-9799.99
-9800.22
-9800.22
-9800.2
-9800.22
-9800.21
-9800.2
-9800.2
-9800.19
-9800.21
-9800.21
-9800.2
-9800.2
-9800.2
-9800.2
-9800.2
-9800.19
-9800.19
-9800.19
-9800.2
-9800.2
-9800.21
-9800.21
-9800.21
-9800.22
-9800.21
-9800.21
-9800.21
-9800.2
-9800.21
-9800.21
-9800.21
-9800.2
-9800.21
-9800.2
-9800.2
-9800.2
-9800.2
-9800.2
-9800.2
-9800.2
-9800.21
-9800.2
-9800.2
-9800.2
-9800.21
-9800.2
-9800.21
-9800.21
-9800.21
-9800.21
-9800.21
-9800.21
-9800.2
-9800.2
-9800.2
-9800.2
-9800.21
-9800.21
-9800.21
-9800.21
-9800.21
-9800.21
-9800.21
-9800.2
-9800.21
-9800.21
-9800.21
-9800.2
-9800.21
-9800.2
-9800.2
-9800.2
-9800.2
-9800.2
-9800.2
-9800.2
-0.00341392
-9.18015e-05
-0.00622124
0.00834619
0.00503286
0.00655668
-0.00294538
0.00606415
0.00743247
-0.00993023
-0.00618802
-0.003161
-0.00948722
0.000780839
0.000258824
-0.000766467
-0.00339729
9.88452e-05
-0.00580921
-0.0057968
-0.00543273
-0.00294749
-0.00134087
-0.00302757
0.000820468
-0.00169752
-0.00888846
-0.0273691
-9799.85
-9799.88
-9799.82
-9799.99
-9799.93
-9799.92
-9799.78
-9799.89
-9799.94
-9799.8
-9799.83
-9799.85
-9799.8
-9799.91
-9799.85
-9799.83
-9799.82
-9799.9
-9799.86
-9799.81
-9799.81
-9799.85
-9799.91
-9799.85
-9799.91
-9799.82
-9799.82
-9799.76
-9800.2
-9800.22
-9800.21
-9800.21
-9800.22
-9800.22
-9800.23
-9800.23
-9800.22
-9800.21
-9800.2
-9800.21
-9800.21
-9800.22
-9800.22
-9800.22
-9800.22
-9800.22
-9800.19
-9800.21
-9800.21
-9800.2
-9800.19
-9800.2
-9800.2
-9800.21
-9800.2
-9800.2
-9800.2
-9800.21
-9800.21
-9800.21
-9800.22
-9800.22
-9800.23
-9800.22
-9800.22
-9800.21
-9800.21
-9800.21
-9800.21
-9800.21
-9800.21
-9800.21
-9800.21
-9800.21
-9800.2
-9800.21
-9800.21
-9800.2
-9800.19
-9800.2
-9800.21
-9800.21
-9800.2
-9800.2
-9800.2
-9800.21
-9800.21
-9800.21
-9800.22
-9800.22
-9800.22
-9800.22
-9800.21
-9800.21
-9800.21
-9800.21
-9800.21
-9800.21
-9800.21
-9800.21
-9800.21
-9800.21
-9800.2
-9800.21
-9800.21
-9800.2
-9800.2
-9800.2
-9800.2
-9800.2
-9800.2
-9800.2
-0.00858403
-0.000489057
-0.00118047
-0.00251857
-9799.82
-9799.89
-9799.89
-9799.89
)
;

boundaryField
{
    top_fluid_surface
    {
        type            totalPressure;
        rho             rho;
        psi             none;
        gamma           1;
        p0              uniform 0;
        value           nonuniform List<scalar> 
64
(
-5.65204e-09
0
0
0
-1.61523e-09
-5.72301e-09
-1.08372e-08
-1.40975e-08
-2.74461e-09
-1.6203e-09
0
-9.87995e-09
0
-5.77769e-09
0
-2.70048e-09
0
0
0
0
-1.16409e-10
0
0
0
-5.23663e-09
0
0
0
0
-3.39189e-09
-3.86642e-09
0
-4.06714e-09
0
-1.08487e-08
0
0
0
-4.98307e-09
0
0
-3.42159e-08
-1.77592e-08
-3.07653e-09
-2.0276e-08
0
-7.69318e-10
-1.34185e-09
-8.43785e-09
0
-8.17821e-09
-9.31082e-09
-1.78675e-08
-4.51101e-09
-9.97968e-10
-4.39731e-09
0
-2.67977e-10
-2.14012e-08
-1.6926e-07
-1.99839e-08
-7.70384e-12
-6.14796e-11
-8.96759e-11
)
;
    }
    bottom_fluid_surface
    {
        type            fixedFluxPressure;
        gradient        uniform 0;
        value           nonuniform List<scalar> 
64
(
-9800.21
-9800.2
-9800.2
-9800.2
-9800.21
-9800.2
-9800.21
-9800.21
-9800.21
-9800.21
-9800.21
-9800.21
-9800.2
-9800.2
-9800.2
-9800.2
-9800.21
-9800.21
-9800.21
-9800.21
-9800.21
-9800.21
-9800.21
-9800.2
-9800.21
-9800.21
-9800.21
-9800.2
-9800.21
-9800.2
-9800.2
-9800.2
-9800.2
-9800.2
-9800.2
-9800.2
-9800.2
-9800.21
-9800.21
-9800.21
-9800.22
-9800.22
-9800.22
-9800.22
-9800.21
-9800.21
-9800.21
-9800.21
-9800.21
-9800.21
-9800.21
-9800.21
-9800.21
-9800.21
-9800.2
-9800.21
-9800.21
-9800.2
-9800.2
-9800.2
-9800.2
-9800.2
-9800.2
-9800.2
)
;
    }
    lateral_surface_1
    {
        type            fixedFluxPressure;
        gradient        uniform 0;
        value           nonuniform List<scalar> 
40
(
-0.00341392
-9.18015e-05
-0.00622124
0.00834619
0.00503286
0.00655668
-0.00294538
-0.0273691
-9799.85
-9799.88
-9799.82
-9799.99
-9799.93
-9799.92
-9799.78
-9799.76
-9800.2
-9800.22
-9800.21
-9800.21
-9800.22
-9800.22
-9800.23
-9800.2
-9800.2
-9800.21
-9800.21
-9800.21
-9800.22
-9800.22
-9800.23
-9800.2
-9800.2
-9800.21
-9800.21
-9800.21
-9800.22
-9800.22
-9800.22
-9800.2
)
;
    }
    lateral_surface_2
    {
        type            fixedFluxPressure;
        gradient        uniform 0;
        value           nonuniform List<scalar> 
40
(
0.000780839
0.000258824
-0.000766467
-0.00339729
9.88452e-05
-0.00580921
-0.0057968
-0.00543273
-9799.91
-9799.85
-9799.83
-9799.82
-9799.9
-9799.86
-9799.81
-9799.81
-9800.22
-9800.22
-9800.22
-9800.22
-9800.22
-9800.19
-9800.21
-9800.21
-9800.21
-9800.21
-9800.21
-9800.21
-9800.21
-9800.2
-9800.21
-9800.21
-9800.21
-9800.21
-9800.21
-9800.21
-9800.21
-9800.2
-9800.21
-9800.21
)
;
    }
    lateral_surface_3
    {
        type            fixedFluxPressure;
        gradient        uniform 0;
        value           nonuniform List<scalar> 
40
(
-0.00294538
0.00606415
0.00743247
-0.00993023
-0.00618802
-0.003161
-0.00948722
0.000780839
-9799.78
-9799.89
-9799.94
-9799.8
-9799.83
-9799.85
-9799.8
-9799.91
-9800.23
-9800.23
-9800.22
-9800.21
-9800.2
-9800.21
-9800.21
-9800.22
-9800.23
-9800.22
-9800.22
-9800.21
-9800.21
-9800.21
-9800.21
-9800.21
-9800.22
-9800.22
-9800.21
-9800.21
-9800.21
-9800.21
-9800.21
-9800.21
)
;
    }
    lateral_surface_4
    {
        type            fixedFluxPressure;
        gradient        uniform 0;
        value           nonuniform List<scalar> 
40
(
-0.00543273
-0.00294749
-0.00134087
-0.00302757
0.000820468
-0.00169752
-0.00888846
-0.0273691
-9799.81
-9799.85
-9799.91
-9799.85
-9799.91
-9799.82
-9799.82
-9799.76
-9800.21
-9800.2
-9800.19
-9800.2
-9800.2
-9800.21
-9800.2
-9800.2
-9800.21
-9800.2
-9800.19
-9800.2
-9800.21
-9800.21
-9800.2
-9800.2
-9800.21
-9800.2
-9800.2
-9800.2
-9800.2
-9800.2
-9800.2
-9800.2
)
;
    }
}


// ************************************************************************* //
