/*--------------------------------*- C++ -*----------------------------------*\
| =========                 |                                                 |
| \\      /  F ield         | OpenFOAM: The Open Source CFD Toolbox           |
|  \\    /   O peration     | Version:  v1612+                                |
|   \\  /    A nd           | Web:      www.OpenFOAM.com                      |
|    \\/     M anipulation  |                                                 |
\*---------------------------------------------------------------------------*/
FoamFile
{
    version     2.0;
    format      ascii;
    class       volVectorField;
    location    "6.65";
    object      U;
}
// * * * * * * * * * * * * * * * * * * * * * * * * * * * * * * * * * * * * * //

dimensions      [0 1 -1 0 0 0 0];

internalField   nonuniform List<vector> 
320
(
(1.71017e-06 -1.09996e-05 2.29808e-05)
(-4.66937e-06 -9.45601e-06 -1.27455e-05)
(-1.53046e-05 -8.38055e-06 -1.20209e-05)
(4.1621e-06 1.81412e-05 -8.12973e-06)
(0.000736942 -0.000116199 -0.000106321)
(0.000495463 -0.000255038 3.02921e-05)
(0.000604101 -0.000194288 3.72252e-05)
(0.000340545 -0.000112748 2.24963e-05)
(0.000430628 -3.76225e-05 -5.68372e-05)
(0.000200582 0.000139008 -0.000106986)
(0.000172732 7.57373e-05 -0.000147222)
(9.86815e-05 5.6616e-06 -0.000167914)
(-0.000233282 0.000206907 -7.40893e-05)
(-2.91324e-05 -0.000260336 -5.69263e-05)
(-0.000120265 0.000205768 0.000148006)
(0.000217305 9.86379e-05 -0.00014057)
(1.99797e-05 2.56452e-06 3.06895e-05)
(2.46954e-05 6.03254e-06 2.59095e-05)
(3.28196e-05 -6.91109e-07 3.11347e-06)
(3.82497e-06 -5.87573e-06 -1.24079e-05)
(1.36504e-05 -1.23411e-05 5.02312e-06)
(3.98951e-06 1.28049e-05 3.30505e-05)
(-1.78438e-05 -2.70574e-06 3.02976e-05)
(7.23464e-06 -1.93521e-05 -3.348e-06)
(-1.64512e-05 2.52964e-05 4.42422e-05)
(-1.36437e-05 -3.81993e-05 3.4019e-05)
(-2.38759e-05 -1.12232e-06 -4.16009e-05)
(-1.15209e-05 6.05153e-06 1.79743e-05)
(-4.57201e-06 1.58899e-06 1.72504e-05)
(-6.40293e-06 -3.88094e-06 2.36027e-05)
(-1.57837e-05 -1.14756e-06 5.45266e-06)
(6.64461e-07 -4.33327e-07 -1.18797e-05)
(-8.47173e-06 4.34841e-06 4.40932e-06)
(-4.98709e-06 -9.88574e-06 1.97085e-05)
(8.05901e-06 -3.11893e-06 2.00395e-05)
(9.78191e-07 1.04994e-05 -2.27236e-06)
(1.45454e-05 -1.21481e-05 2.675e-05)
(9.89254e-06 1.88721e-05 2.23123e-05)
(1.61407e-05 1.27127e-06 -2.23271e-05)
(8.10713e-06 -4.34265e-06 1.05001e-05)
(1.12962e-06 -6.40657e-06 7.10427e-06)
(-2.59503e-06 -6.14621e-06 -5.92015e-06)
(-8.37193e-06 -4.7338e-06 -2.29927e-06)
(2.86501e-06 9.74725e-06 -6.95287e-06)
(-1.71305e-06 5.68901e-07 5.56944e-06)
(-3.25218e-06 -2.62696e-06 4.33925e-07)
(-9.10563e-06 -1.19539e-06 5.05928e-07)
(-8.91967e-08 -2.89532e-07 1.99779e-06)
(-4.55396e-06 3.09777e-06 7.58744e-07)
(-2.69034e-06 -6.53074e-06 6.08841e-06)
(5.23653e-06 -2.32642e-06 5.85541e-06)
(6.5622e-07 6.00147e-06 9.45875e-07)
(8.02313e-06 -7.98631e-06 6.09606e-06)
(5.93947e-06 1.02201e-05 3.68709e-06)
(8.79342e-06 5.12666e-07 -6.99326e-06)
(5.16645e-06 -1.98209e-06 2.47153e-06)
(5.50704e-05 4.87946e-06 5.82106e-05)
(0.000520533 0.000150199 -0.000107496)
(0.000380584 -2.71363e-05 8.72556e-05)
(0.000437573 7.52801e-05 -7.34912e-05)
(0.000415347 0.000312773 0.00040435)
(0.000448468 -0.000353796 0.000440689)
(0.000196914 -0.00018345 0.000324936)
(0.000218446 -0.000473077 0.000383255)
(0.000173126 -0.000484075 -1.52584e-05)
(-0.000171848 4.74046e-05 9.73685e-05)
(-0.000129715 0.000202564 0.000296552)
(0.000392447 0.000187788 0.000345215)
(0.000392776 0.000244757 -0.000102339)
(-0.000112326 3.57044e-05 0.000181464)
(0.000390289 -9.55486e-05 0.000198321)
(4.25396e-05 8.79026e-05 0.000162487)
(0.000348288 0.000206385 0.0001782)
(0.000358847 0.000370719 -8.23637e-05)
(0.000382116 5.88697e-05 -8.79365e-05)
(0.000618462 0.000239126 6.56127e-05)
(-2.6749e-05 -2.0728e-05 -1.69966e-05)
(2.43136e-06 8.63441e-07 2.28141e-05)
(1.31033e-05 -1.46115e-05 1.16519e-05)
(1.22081e-05 6.26572e-06 5.60341e-06)
(-5.26498e-06 3.57147e-05 -4.96187e-05)
(6.55109e-06 -2.3523e-06 -6.93875e-05)
(-1.48488e-05 -8.02307e-07 -4.79674e-05)
(-1.36516e-05 -3.32213e-05 -8.53065e-05)
(2.39356e-06 -4.04882e-05 5.238e-06)
(-1.42363e-05 -1.08449e-05 1.71576e-05)
(-2.41337e-05 1.22408e-05 -4.63565e-05)
(2.71731e-05 -7.46881e-06 -6.02143e-05)
(1.1466e-05 -9.34174e-06 4.6084e-05)
(-2.03451e-05 2.42181e-06 -3.92413e-05)
(2.23038e-05 -2.9421e-05 -2.80874e-05)
(-2.25571e-05 -1.26507e-05 -4.35228e-05)
(6.05677e-06 7.93192e-06 -5.29469e-05)
(1.37906e-05 2.59338e-05 -1.00814e-05)
(-6.48077e-07 -3.07825e-07 -1.42162e-06)
(2.59075e-05 8.24786e-06 -3.99909e-05)
(1.48167e-05 8.09227e-06 -8.41211e-06)
(1.2483e-06 -7.58499e-07 9.85831e-06)
(-1.93266e-06 1.05152e-05 1.22086e-05)
(-3.71448e-06 1.44379e-06 3.22308e-06)
(5.39183e-06 -1.76392e-05 -2.55771e-05)
(-5.79792e-06 5.01673e-07 -2.67692e-05)
(9.41153e-06 -2.14302e-06 -2.43078e-05)
(9.25197e-06 1.2494e-05 -3.95865e-05)
(-1.89331e-06 1.82051e-05 3.10336e-06)
(6.32529e-06 2.96279e-06 1.43665e-05)
(1.28528e-05 -1.00861e-05 -3.12607e-05)
(-1.62237e-05 -1.41967e-06 -3.20578e-05)
(-6.27268e-06 4.23375e-06 3.1504e-05)
(1.43954e-05 -1.2131e-07 -2.2415e-05)
(-5.51775e-06 1.86534e-05 -2.05666e-05)
(1.87402e-05 5.99704e-06 -2.73681e-05)
(1.26159e-07 -6.78703e-06 -3.191e-05)
(-7.8259e-06 -1.27861e-05 -5.80588e-06)
(-3.7065e-08 2.64756e-07 -4.25767e-06)
(-1.25736e-05 -5.07763e-06 -3.01466e-05)
(8.50919e-06 5.358e-06 -3.74352e-06)
(1.77456e-06 5.09546e-07 4.93213e-06)
(-8.30666e-07 6.68893e-06 -2.21555e-06)
(-2.83272e-06 2.00549e-06 2.87462e-06)
(3.18969e-06 -9.59788e-06 -6.9061e-06)
(-3.62095e-06 1.16632e-07 -1.22189e-05)
(5.08039e-06 -1.59434e-06 -6.9067e-06)
(5.40872e-06 7.14623e-06 -1.40808e-05)
(-1.45872e-06 9.76633e-06 1.48609e-06)
(3.67766e-06 1.33851e-06 -4.85339e-07)
(7.53912e-06 -6.61892e-06 -7.02801e-06)
(-9.66764e-06 -1.24524e-06 -1.0407e-05)
(-2.71169e-06 2.42588e-06 6.0202e-06)
(9.26575e-06 -6.28073e-07 -6.05047e-06)
(-2.82423e-06 9.61814e-06 -4.37031e-06)
(1.13247e-05 2.67545e-06 -8.34306e-06)
(5.56834e-07 -3.96369e-06 -8.7633e-06)
(-3.86934e-06 -7.17983e-06 -3.18638e-06)
(1.43606e-06 2.84731e-07 -2.12902e-07)
(-7.49406e-06 -3.06247e-06 -5.42068e-06)
(3.27065e-07 -3.45811e-06 1.97488e-06)
(6.13761e-07 -2.29565e-06 -1.27795e-06)
(-4.75723e-06 -2.34952e-06 -9.84865e-07)
(8.8793e-07 5.7477e-06 -8.84995e-07)
(-2.47052e-06 -2.99447e-07 2.12713e-06)
(-1.74127e-06 2.46031e-07 3.02454e-06)
(-3.24277e-06 -1.16552e-07 3.81483e-07)
(1.37593e-06 -8.28938e-07 -1.14846e-06)
(-1.64137e-06 -2.53326e-07 8.65209e-07)
(-7.91778e-07 -2.94302e-06 1.85067e-06)
(2.70997e-06 -7.29993e-08 2.39463e-06)
(7.91886e-07 1.69306e-06 -4.65118e-07)
(5.222e-06 -2.78751e-06 2.67019e-06)
(3.31408e-06 5.28283e-06 2.81475e-06)
(5.78347e-06 -8.92952e-09 -1.93183e-06)
(2.8876e-06 -2.77639e-07 2.1699e-06)
(4.81169e-06 2.71394e-06 -7.46136e-07)
(-1.96597e-07 -7.84625e-07 8.26041e-07)
(4.3087e-07 2.11579e-06 1.35519e-06)
(1.07684e-06 -8.41706e-07 -2.15019e-07)
(6.46071e-07 -4.8284e-06 -2.49394e-06)
(-2.07006e-06 5.45113e-07 -2.89973e-06)
(1.23893e-06 -6.9425e-07 -2.9227e-06)
(9.19085e-07 3.57998e-06 -4.04084e-06)
(-3.69705e-07 4.28045e-06 3.56827e-07)
(9.14343e-07 -7.70872e-08 1.24432e-06)
(2.71212e-06 -3.72211e-06 -3.14339e-06)
(-3.74817e-06 -5.70337e-07 -3.4498e-06)
(-2.04271e-06 7.09472e-07 3.00063e-06)
(3.92601e-06 7.57246e-07 -2.68889e-06)
(-1.49627e-06 4.76334e-06 -2.25034e-06)
(4.88692e-06 1.08115e-06 -3.32213e-06)
(-2.92756e-07 -1.78808e-06 -3.64859e-06)
(-1.43463e-06 -3.88463e-06 -1.11779e-06)
(-8.62468e-07 -1.27124e-06 -6.30697e-07)
(-4.17044e-06 -1.65585e-06 -3.0034e-06)
(0.000874979 0.000198813 -9.01902e-05)
(0.000306461 0.000108661 2.60062e-05)
(0.000770333 -5.20707e-05 -0.000147301)
(0.000571685 -0.000143358 0.000194073)
(0.000267104 -0.00024202 0.00011449)
(0.000287675 2.86027e-05 0.000120978)
(-0.000425025 -0.000115449 -9.98306e-05)
(-0.000573121 0.000233582 0.000119846)
(-0.000505014 -0.000411112 0.000161534)
(-0.000629735 -0.000339717 -0.000261595)
(-0.000662253 -6.04508e-05 -0.000188463)
(-0.000222236 -0.000249392 -7.84415e-05)
(-0.000427424 0.000156869 -0.000201375)
(-0.000112531 -7.24515e-05 4.93942e-05)
(0.000129454 -0.000388522 -3.92255e-05)
(6.07412e-05 -0.000372726 -5.18045e-05)
(0.000129864 -0.000576997 -0.000129907)
(0.000249951 -0.000113519 2.8496e-07)
(0.000104564 -0.000435154 -0.000127892)
(0.000178974 -0.00032896 -0.000136461)
(1.27005e-05 -0.000225352 -0.000189037)
(0.000116142 -0.000101189 -9.49843e-05)
(6.45024e-06 0.000165041 -4.46759e-05)
(0.000193196 5.71622e-05 -9.37796e-05)
(-0.000143152 0.000240562 2.8956e-05)
(6.11555e-05 0.000353845 -2.31507e-05)
(0.000153415 0.000500128 -0.000206887)
(0.000321657 0.000366876 -0.000581825)
(3.1009e-05 2.13081e-05 1.49491e-05)
(-4.13912e-06 5.6904e-07 -1.85551e-05)
(1.38629e-05 -1.29925e-06 1.99786e-05)
(1.92969e-05 -1.08651e-05 -4.55245e-05)
(-1.75013e-05 -7.49165e-06 -2.93684e-05)
(-1.90339e-05 1.88432e-05 1.57042e-05)
(-2.89479e-05 6.27882e-06 5.96418e-05)
(-4.15111e-05 3.18425e-05 2.80569e-05)
(-3.28192e-05 -1.02774e-05 -3.03287e-05)
(-4.94349e-05 -2.60718e-05 5.75663e-05)
(-5.80759e-05 4.8977e-06 7.30789e-05)
(-1.13273e-05 1.22189e-05 1.417e-05)
(-5.37862e-06 1.58595e-05 -3.71017e-06)
(1.53751e-05 -1.23384e-06 -2.41499e-05)
(6.00844e-06 -2.19829e-05 2.71823e-05)
(6.1071e-07 -2.14793e-05 -4.68513e-06)
(3.73685e-06 -4.67264e-05 2.79716e-05)
(-2.65417e-06 1.95412e-06 1.29768e-05)
(3.62493e-06 -3.26042e-05 1.95224e-05)
(1.38767e-05 -2.20149e-05 3.22774e-05)
(1.38372e-05 -2.41776e-05 5.53001e-05)
(1.16743e-05 -3.40132e-05 -1.12406e-05)
(9.24647e-06 9.04862e-06 -4.8436e-05)
(3.33716e-05 -1.85744e-06 3.12265e-05)
(-5.39259e-07 -7.82417e-06 4.06715e-06)
(-3.81866e-07 1.81709e-05 -3.70421e-06)
(1.79357e-05 1.09284e-05 3.53543e-05)
(2.30114e-06 5.67241e-06 3.53955e-05)
(-1.33305e-05 -1.10734e-05 5.61921e-06)
(3.78986e-06 -9.69701e-07 -9.32369e-06)
(-6.99509e-06 -4.78986e-08 5.80814e-06)
(-8.60689e-06 7.27516e-06 -2.51673e-05)
(1.23662e-05 6.62592e-06 -2.2961e-05)
(1.54702e-05 -8.80708e-06 1.48764e-05)
(1.6918e-05 -3.45022e-06 3.75295e-05)
(2.22748e-05 -1.98196e-05 1.9183e-05)
(1.47379e-05 2.8724e-06 -1.80745e-05)
(2.46463e-05 1.46192e-05 2.79472e-05)
(3.14969e-05 -6.95725e-06 4.92691e-05)
(5.20048e-06 -1.28198e-05 3.73364e-06)
(4.74363e-07 -1.13135e-05 -4.64915e-06)
(-9.07217e-06 -8.28637e-07 -1.9516e-05)
(-3.12048e-06 8.71593e-06 1.22926e-05)
(-6.05543e-07 8.61611e-06 -6.0305e-06)
(-6.25992e-06 2.21734e-05 1.26083e-05)
(-3.199e-07 -1.34634e-06 7.99498e-06)
(1.26141e-07 1.62207e-05 8.11527e-06)
(-3.54513e-06 1.29231e-05 1.7364e-05)
(-4.2899e-06 1.425e-05 2.6063e-05)
(-2.96348e-06 2.21649e-05 -1.05019e-05)
(-7.78187e-07 -6.50177e-06 -3.67527e-05)
(-1.5463e-05 -7.69418e-06 1.6897e-05)
(-1.68671e-06 1.1072e-06 5.96958e-06)
(-1.57062e-06 -9.09148e-06 -5.16051e-06)
(-1.10426e-05 -5.20197e-06 2.2833e-05)
(-1.69641e-06 -1.72753e-06 1.62557e-05)
(-8.06608e-06 -6.61997e-06 2.70715e-06)
(1.59459e-06 -5.63428e-07 -3.78407e-06)
(-3.0442e-06 2.9452e-07 4.8173e-06)
(-4.74838e-06 4.25541e-06 -8.2761e-06)
(7.18095e-06 4.21218e-06 -1.767e-06)
(9.21321e-06 -5.75823e-06 5.31371e-07)
(8.67704e-06 -1.81165e-06 1.10054e-05)
(1.26236e-05 -1.08284e-05 7.72955e-06)
(7.44634e-06 6.95207e-07 -3.36825e-06)
(1.32021e-05 8.73919e-06 9.88193e-06)
(1.77793e-05 -3.4412e-06 8.83047e-06)
(2.6152e-06 -8.26127e-06 4.40094e-06)
(-2.48047e-07 -6.83525e-06 -1.25474e-06)
(-5.55843e-06 -1.04236e-06 -2.82238e-06)
(-1.67525e-06 4.26799e-06 4.06409e-06)
(-1.06692e-07 4.3105e-06 -4.28522e-07)
(-3.80807e-06 1.19134e-05 4.88453e-06)
(3.91457e-08 -1.54868e-06 4.17613e-06)
(8.30988e-07 9.16266e-06 4.99159e-06)
(-1.60124e-06 6.88585e-06 5.30735e-06)
(-2.57463e-06 7.93964e-06 8.47746e-06)
(-1.52088e-06 1.22976e-05 -1.79902e-06)
(1.04821e-07 -4.60562e-06 -7.8252e-06)
(-8.80149e-06 -4.97336e-06 3.12758e-06)
(-9.04832e-07 1.39179e-06 -1.41122e-06)
(-2.30115e-07 -5.60679e-06 1.16657e-06)
(-6.79639e-06 -4.14445e-06 4.27296e-06)
(-1.31219e-06 -1.13581e-06 4.90172e-06)
(-4.94133e-06 -2.95849e-06 6.10857e-07)
(2.01637e-06 -5.35697e-07 -9.22072e-07)
(-1.87238e-06 -1.63203e-07 4.64965e-07)
(-1.6842e-06 1.14009e-06 -1.71846e-06)
(3.70142e-06 1.95189e-06 -2.45727e-06)
(2.55241e-06 -1.48451e-06 1.80262e-06)
(6.30785e-06 4.55151e-08 4.07505e-06)
(7.83788e-06 -5.46415e-06 2.32805e-06)
(5.6721e-06 4.76297e-07 -1.26647e-06)
(7.76905e-06 2.16013e-06 2.4525e-06)
(8.52643e-06 -1.86196e-06 5.16895e-06)
(2.32714e-06 -2.94772e-06 5.96721e-07)
(1.29832e-06 -4.04767e-06 -2.73523e-07)
(-1.64343e-06 8.63912e-07 -2.07441e-06)
(-6.95287e-07 3.80568e-06 1.61388e-06)
(-2.9857e-07 2.47355e-06 -1.13303e-06)
(-1.72159e-06 6.81632e-06 1.63519e-06)
(-5.35679e-07 4.46995e-07 1.0164e-06)
(1.16814e-06 5.30931e-06 1.19756e-06)
(-1.27745e-08 3.20484e-06 1.43741e-06)
(-1.24167e-06 3.82579e-06 2.76748e-06)
(-6.20716e-07 5.65691e-06 -1.29249e-06)
(-3.48089e-07 -1.58405e-06 -3.74056e-06)
(-3.28588e-06 -1.03865e-06 1.75505e-06)
(4.01337e-07 -5.78631e-07 2.47259e-08)
(2.00959e-08 -3.01347e-06 -4.18777e-07)
(-1.34092e-06 -1.36498e-06 2.45605e-06)
(3.10943e-07 -1.30664e-06 2.37608e-06)
(0.000167078 0.000124563 -0.000199919)
(0.000302079 -9.30588e-06 3.92526e-06)
(0.000523903 9.16229e-05 -1.10887e-05)
(0.000256631 -0.000332097 -1.33922e-05)
(2.4118e-06 2.38072e-05 4.19323e-05)
(9.84848e-06 1.83716e-05 -2.82383e-05)
(3.94762e-05 1.5353e-05 -1.86475e-05)
(-4.98615e-06 -3.33778e-05 -2.64441e-05)
)
;

boundaryField
{
    top_fluid_surface
    {
        type            pressureInletOutletVelocity;
        value           nonuniform List<vector> 
64
(
(0 0 -0.000106321)
(0.000495463 -0.000255038 3.02921e-05)
(0.000604101 -0.000194288 3.72252e-05)
(0.000340545 -0.000112748 2.24963e-05)
(0 0 -5.68372e-05)
(0 0 -0.000106986)
(0 0 -0.000147222)
(0 0 -0.000167914)
(0 0 -7.40893e-05)
(0 0 -5.69263e-05)
(-0.000120265 0.000205768 0.000148006)
(0 0 -0.00014057)
(5.50704e-05 4.87946e-06 5.82106e-05)
(0 0 -0.000107496)
(0.000380584 -2.71363e-05 8.72556e-05)
(0 0 -7.34912e-05)
(0.000415347 0.000312773 0.00040435)
(0.000448468 -0.000353796 0.000440689)
(0.000196914 -0.00018345 0.000324936)
(0.000218446 -0.000473077 0.000383255)
(0 0 -1.52584e-05)
(-0.000171848 4.74046e-05 9.73685e-05)
(-0.000129715 0.000202564 0.000296552)
(0.000392447 0.000187788 0.000345215)
(0 0 -0.000102339)
(-0.000112326 3.57044e-05 0.000181464)
(0.000390289 -9.55486e-05 0.000198321)
(4.25396e-05 8.79026e-05 0.000162487)
(0.000348288 0.000206385 0.0001782)
(0 0 -8.23637e-05)
(0 0 -8.79365e-05)
(0.000618462 0.000239126 6.56127e-05)
(0 0 -9.01902e-05)
(0.000306461 0.000108661 2.60062e-05)
(0 0 -0.000147301)
(0.000571685 -0.000143358 0.000194073)
(0.000267104 -0.00024202 0.00011449)
(0.000287675 2.86027e-05 0.000120978)
(0 0 -9.98306e-05)
(-0.000573121 0.000233582 0.000119846)
(-0.000505014 -0.000411112 0.000161534)
(0 0 -0.000261595)
(0 0 -0.000188463)
(0 0 -7.84415e-05)
(0 0 -0.000201375)
(-0.000112531 -7.24515e-05 4.93942e-05)
(0 0 -3.92255e-05)
(0 0 -5.18045e-05)
(0 0 -0.000129907)
(0.000249951 -0.000113519 2.8496e-07)
(0 0 -0.000127892)
(0 0 -0.000136461)
(0 0 -0.000189037)
(0 0 -9.49843e-05)
(0 0 -4.46759e-05)
(0 0 -9.37796e-05)
(-0.000143152 0.000240562 2.8956e-05)
(0 0 -2.31507e-05)
(0 0 -0.000206887)
(0 0 -0.000581825)
(0 0 -0.000199919)
(0 0 3.92526e-06)
(0 0 -1.10887e-05)
(0 0 -1.33922e-05)
)
;
    }
    bottom_fluid_surface
    {
        type            noSlip;
    }
    lateral_surface_1
    {
        type            noSlip;
    }
    lateral_surface_2
    {
        type            noSlip;
    }
    lateral_surface_3
    {
        type            noSlip;
    }
    lateral_surface_4
    {
        type            noSlip;
    }
}


// ************************************************************************* //
