/*--------------------------------*- C++ -*----------------------------------*\
| =========                 |                                                 |
| \\      /  F ield         | OpenFOAM: The Open Source CFD Toolbox           |
|  \\    /   O peration     | Version:  v1612+                                |
|   \\  /    A nd           | Web:      www.OpenFOAM.com                      |
|    \\/     M anipulation  |                                                 |
\*---------------------------------------------------------------------------*/
FoamFile
{
    version     2.0;
    format      ascii;
    class       volScalarField;
    location    "1.4";
    object      alpha.water;
}
// * * * * * * * * * * * * * * * * * * * * * * * * * * * * * * * * * * * * * //

dimensions      [0 0 0 0 0 0 0];

internalField   nonuniform List<scalar> 
1116
(
1
1
1
1
1
1
1
1
1
1
1
1
1
1
1
1
1
1
0.999992
0.999992
0.999992
0.999992
0.999992
0.999992
0.999915
0.999915
0.999915
0.999915
0.999915
0.999915
0.983593
0.983592
0.983592
0.983593
0.983592
0.983593
0.927744
0.927735
0.927736
0.927737
0.927737
0.927741
0.855794
0.855789
0.855791
0.855792
0.855791
0.855793
0.568072
0.568098
0.5681
0.5681
0.568097
0.568079
0.0578552
0.0578729
0.0578731
0.0578728
0.0578715
0.0578589
0.000637386
0.000637629
0.000637596
0.000637589
0.000637611
0.000637315
0.000346963
0.000347177
0.000347146
0.000347139
0.000347173
0.000346903
1
1
1
1
1
1
1
1
1
1
1
1
0.999993
0.999993
0.999993
0.999993
0.999993
0.999993
0.998812
0.998813
0.998813
0.998813
0.998813
0.998813
0.840703
0.840701
0.840704
0.840704
0.840705
0.840708
0.486034
0.486027
0.486033
0.486035
0.486035
0.48604
0.0654108
0.0654054
0.0654084
0.0654099
0.0654091
0.0654117
4.70969e-06
4.71035e-06
4.71037e-06
4.71032e-06
4.71057e-06
4.71061e-06
3.60308e-05
3.60137e-05
3.60183e-05
3.60162e-05
3.59902e-05
3.59888e-05
0.00728678
0.00728607
0.00728615
0.00728617
0.00728585
0.00728677
0.00578772
0.00578855
0.00578842
0.00578838
0.00578844
0.00578741
0.000245707
0.000245924
0.000245894
0.000245888
0.000245924
0.000245656
1
1
1
1
1
1
0.999986
0.999986
0.999986
0.999986
0.999986
0.999986
0.94312
0.943124
0.943125
0.943125
0.943126
0.94313
0.532084
0.532091
0.532096
0.532097
0.532098
0.532107
0.0527811
0.0527813
0.0527845
0.052785
0.052786
0.0527908
1.92775e-06
1.92867e-06
1.92885e-06
1.92888e-06
1.92875e-06
1.92885e-06
-5.28227e-07
-5.28332e-07
-5.2835e-07
-5.28371e-07
-5.28492e-07
-5.28513e-07
1.01585e-07
1.01613e-07
1.01607e-07
1.01596e-07
1.01568e-07
1.01575e-07
3.72472e-05
3.72117e-05
3.72219e-05
3.72186e-05
3.71662e-05
3.71667e-05
0.00099638
0.00099628
0.000996234
0.000996226
0.000996214
0.000996181
0.00187562
0.00187589
0.00187577
0.00187578
0.00187597
0.00187559
6.84211e-05
6.84968e-05
6.84789e-05
6.84757e-05
6.84987e-05
6.84033e-05
0.999986
0.999986
0.999986
0.999986
0.999986
0.999986
0.890082
0.890085
0.890085
0.890085
0.890085
0.890089
0.254537
0.254545
0.254547
0.254548
0.254549
0.254558
9.02736e-08
9.1068e-08
9.11634e-08
9.13326e-08
9.16904e-08
9.2558e-08
2.25279e-07
2.25266e-07
2.25268e-07
2.25246e-07
2.25239e-07
2.25246e-07
-7.71506e-12
-7.81027e-12
-7.89501e-12
-7.88514e-12
-7.76705e-12
-7.92586e-12
5.13967e-09
5.14158e-09
5.14024e-09
5.13843e-09
5.13501e-09
5.13031e-09
4.77192e-08
4.77461e-08
4.77427e-08
4.77367e-08
4.77257e-08
4.77258e-08
4.59597e-06
4.59517e-06
4.59441e-06
4.59395e-06
4.59356e-06
4.59438e-06
1.29176e-06
1.29162e-06
1.29153e-06
1.29156e-06
1.29161e-06
1.29155e-06
7.54945e-06
7.5509e-06
7.55052e-06
7.55092e-06
7.55215e-06
7.55041e-06
1.177e-05
1.17815e-05
1.17785e-05
1.17784e-05
1.17832e-05
1.17701e-05
1.57302e-70
1.5753e-70
1.57532e-70
1.57551e-70
1.57601e-70
1.57411e-70
3.89472e-66
3.90026e-66
3.90035e-66
3.90087e-66
3.9022e-66
3.8977e-66
4.63758e-62
4.64394e-62
4.64406e-62
4.64468e-62
4.64635e-62
4.64111e-62
3.49933e-58
3.50398e-58
3.50407e-58
3.50457e-58
3.50589e-58
3.50203e-58
1.86548e-54
1.8679e-54
1.86795e-54
1.86824e-54
1.86898e-54
1.86698e-54
7.45571e-51
7.46522e-51
7.4655e-51
7.4667e-51
7.46978e-51
7.462e-51
2.32708e-47
2.33003e-47
2.33012e-47
2.3305e-47
2.33149e-47
2.3291e-47
5.86648e-44
5.87386e-44
5.87404e-44
5.87499e-44
5.87748e-44
5.8715e-44
1.24416e-40
1.24571e-40
1.24572e-40
1.24591e-40
1.24643e-40
1.24515e-40
2.38722e-37
2.39014e-37
2.39009e-37
2.39039e-37
2.39137e-37
2.38887e-37
4.15052e-34
4.15577e-34
4.15561e-34
4.15604e-34
4.15766e-34
4.15314e-34
5.55193e-31
5.55943e-31
5.55925e-31
5.55973e-31
5.56173e-31
5.55532e-31
6.98261e-67
6.99227e-67
6.99216e-67
6.99293e-67
6.99508e-67
6.98668e-67
1.71453e-62
1.71684e-62
1.71683e-62
1.71702e-62
1.7176e-62
1.71562e-62
2.01532e-58
2.01794e-58
2.01793e-58
2.01816e-58
2.01888e-58
2.0166e-58
1.49103e-54
1.4929e-54
1.4929e-54
1.49308e-54
1.49364e-54
1.492e-54
7.72781e-51
7.73723e-51
7.73722e-51
7.73823e-51
7.74125e-51
7.73305e-51
2.97488e-47
2.97844e-47
2.97843e-47
2.97884e-47
2.98006e-47
2.97698e-47
8.88297e-44
8.89341e-44
8.89334e-44
8.89458e-44
8.8983e-44
8.88923e-44
2.15554e-40
2.15803e-40
2.15797e-40
2.15826e-40
2.15917e-40
2.15698e-40
4.49378e-37
4.49889e-37
4.49867e-37
4.4992e-37
4.50107e-37
4.49644e-37
8.49892e-34
8.50841e-34
8.50773e-34
8.50854e-34
8.51201e-34
8.5031e-34
1.38771e-30
1.38938e-30
1.38927e-30
1.38938e-30
1.38992e-30
1.3884e-30
1.45101e-27
1.45293e-27
1.45285e-27
1.45295e-27
1.45348e-27
1.45178e-27
4.39202e-63
4.398e-63
4.39799e-63
4.39851e-63
4.39995e-63
4.39479e-63
1.12934e-58
1.13085e-58
1.13086e-58
1.131e-58
1.1314e-58
1.13012e-58
1.3801e-54
1.38189e-54
1.3819e-54
1.38207e-54
1.38258e-54
1.38105e-54
1.04835e-50
1.04967e-50
1.04968e-50
1.04981e-50
1.05021e-50
1.04908e-50
5.47295e-47
5.47974e-47
5.47977e-47
5.48049e-47
5.48264e-47
5.47684e-47
2.06261e-43
2.06513e-43
2.06513e-43
2.0654e-43
2.06622e-43
2.06406e-43
5.7584e-40
5.76538e-40
5.76529e-40
5.766e-40
5.76829e-40
5.76223e-40
1.20001e-36
1.20145e-36
1.20141e-36
1.20154e-36
1.20201e-36
1.20073e-36
1.87966e-33
1.88189e-33
1.88178e-33
1.88195e-33
1.88268e-33
1.88064e-33
2.32142e-30
2.32417e-30
2.32398e-30
2.32416e-30
2.32505e-30
2.32249e-30
2.61745e-27
2.62062e-27
2.62038e-27
2.62056e-27
2.62158e-27
2.61863e-27
1.79896e-24
1.80133e-24
1.80118e-24
1.80128e-24
1.80195e-24
1.79978e-24
3.71285e-60
3.71774e-60
3.71774e-60
3.7182e-60
3.71949e-60
3.71522e-60
1.03662e-55
1.03796e-55
1.03798e-55
1.03811e-55
1.0385e-55
1.03734e-55
1.36084e-51
1.36257e-51
1.36259e-51
1.36277e-51
1.36329e-51
1.36181e-51
1.09123e-47
1.0926e-47
1.09261e-47
1.09276e-47
1.09319e-47
1.09202e-47
5.86413e-44
5.87143e-44
5.87146e-44
5.87227e-44
5.87463e-44
5.86842e-44
2.20467e-40
2.2074e-40
2.20738e-40
2.20768e-40
2.20857e-40
2.20623e-40
5.9718e-37
5.97915e-37
5.97899e-37
5.9797e-37
5.98209e-37
5.97569e-37
1.20643e-33
1.20789e-33
1.20783e-33
1.20795e-33
1.20843e-33
1.20711e-33
1.8997e-30
1.90197e-30
1.90182e-30
1.90198e-30
1.90272e-30
1.90062e-30
2.43798e-27
2.44089e-27
2.44066e-27
2.44084e-27
2.4418e-27
2.43905e-27
2.60942e-24
2.61263e-24
2.61238e-24
2.61256e-24
2.6136e-24
2.61058e-24
1.13669e-21
1.13815e-21
1.13804e-21
1.1381e-21
1.13853e-21
1.13713e-21
0.948015
0.948016
0.948016
0.948016
0.948016
0.948018
0.471918
0.471921
0.471922
0.471921
0.47192
0.471925
0.0756211
0.0756223
0.0756225
0.075622
0.0756217
0.0756245
0.14143
0.141432
0.141432
0.141432
0.141432
0.141435
7.41154e-24
7.41154e-24
6.35275e-24
7.41154e-24
7.94093e-24
7.41154e-24
-2.18996e-14
-2.39894e-14
-2.46236e-14
-2.40758e-14
-2.39342e-14
-2.4503e-14
1.12047e-07
1.12051e-07
1.12062e-07
1.12056e-07
1.12045e-07
1.12025e-07
7.99321e-20
3.71509e-20
-2.30681e-20
-1.38705e-19
8.11162e-20
8.11018e-20
-5.50599e-13
-6.03136e-13
-6.19083e-13
-6.0531e-13
-6.01754e-13
-6.16063e-13
4.89479e-07
4.88487e-07
4.88429e-07
4.88169e-07
4.87768e-07
4.86919e-07
8.63017e-06
8.62994e-06
8.63074e-06
8.63022e-06
8.62959e-06
8.62855e-06
-2.12493e-11
-2.32757e-11
-2.38907e-11
-2.3359e-11
-2.32218e-11
-2.37757e-11
2.02637e-09
2.0515e-09
2.0508e-09
2.03917e-09
2.05297e-09
2.0699e-09
3.86693e-05
3.86696e-05
3.86697e-05
3.86699e-05
3.86701e-05
3.86701e-05
-3.83425e-15
-4.54979e-15
-5.13848e-15
-4.90058e-15
-4.66703e-15
6.41851e-25
-4.60353e-12
-4.6068e-12
-4.60568e-12
-4.6039e-12
-4.60113e-12
-4.59701e-12
-8.32907e-17
-8.34957e-17
-8.36224e-17
-8.35495e-17
-8.34891e-17
6.46584e-17
1.22758e-17
1.21774e-17
1.21005e-17
1.21262e-17
1.21592e-17
1.20969e-17
7.66617e-09
7.66966e-09
7.66739e-09
7.66404e-09
7.65733e-09
7.64874e-09
2.72757e-15
2.72879e-15
2.72849e-15
2.72854e-15
2.72912e-15
2.72949e-15
6.23e-18
6.22954e-18
6.22998e-18
6.23067e-18
6.23184e-18
6.23287e-18
9.15348e-08
9.1562e-08
9.15507e-08
9.15445e-08
9.15502e-08
9.15182e-08
2.75962e-13
2.76069e-13
2.76038e-13
2.76042e-13
2.76099e-13
2.75927e-13
-5.50672e-18
-5.58867e-18
-5.64923e-18
-5.63614e-18
-5.62786e-18
-1.05092e-18
1.97794e-07
1.97731e-07
1.97735e-07
1.97755e-07
1.97808e-07
1.97869e-07
2.89109e-11
2.89198e-11
2.89164e-11
2.89165e-11
2.8922e-11
2.89058e-11
2.74248e-13
2.74354e-13
2.74324e-13
2.74327e-13
2.74384e-13
2.74211e-13
5.07444e-08
5.0744e-08
5.07403e-08
5.07428e-08
5.07504e-08
5.07403e-08
1.44893e-09
1.44913e-09
1.44904e-09
1.44914e-09
1.44946e-09
1.44895e-09
2.74642e-11
2.74631e-11
2.74521e-11
2.74436e-11
2.74389e-11
2.74201e-11
4.32528e-07
4.32638e-07
4.3263e-07
4.32674e-07
4.32785e-07
4.32652e-07
1.45616e-08
1.45662e-08
1.4566e-08
1.45679e-08
1.45727e-08
1.45667e-08
1.78915e-09
1.79001e-09
1.7898e-09
1.78988e-09
1.79038e-09
1.78924e-09
1.0255e-07
1.02424e-07
1.02453e-07
1.02481e-07
1.02491e-07
1.02691e-07
2.07151e-09
2.07386e-09
2.07356e-09
2.07372e-09
2.07474e-09
2.07228e-09
7.89173e-11
7.9017e-11
7.90052e-11
7.90114e-11
7.90514e-11
7.89479e-11
4.91251e-17
4.91862e-17
4.91789e-17
4.91805e-17
4.91991e-17
4.91356e-17
8.12575e-18
8.13675e-18
8.13602e-18
8.13681e-18
8.14056e-18
8.1297e-18
1.60552e-19
1.60768e-19
1.60758e-19
1.60777e-19
1.60852e-19
1.60645e-19
8.06265e-17
8.07075e-17
8.07003e-17
8.07049e-17
8.07317e-17
8.0651e-17
5.18898e-17
5.1955e-17
5.19509e-17
5.19564e-17
5.19798e-17
5.19173e-17
1.2869e-17
1.28864e-17
1.28854e-17
1.28868e-17
1.28929e-17
1.28758e-17
4.15095e-15
4.15193e-15
4.15202e-15
4.15204e-15
4.15205e-15
4.15112e-15
2.82156e-15
2.8247e-15
2.8244e-15
2.82457e-15
2.82562e-15
2.82238e-15
9.19479e-17
9.20852e-17
9.20831e-17
9.21017e-17
9.21598e-17
9.20359e-17
1.80396e-13
1.80602e-13
1.8057e-13
1.80573e-13
1.80639e-13
1.80414e-13
1.18956e-13
1.18941e-13
1.18946e-13
1.18945e-13
1.18933e-13
1.18945e-13
4.83656e-15
4.84043e-15
4.84073e-15
4.8415e-15
4.84331e-15
4.84012e-15
9.89305e-12
9.90414e-12
9.90225e-12
9.9024e-12
9.90621e-12
9.89385e-12
3.08927e-12
3.10047e-12
3.09841e-12
3.09776e-12
3.10011e-12
3.0882e-12
2.92917e-13
2.93209e-13
2.93195e-13
2.93224e-13
2.93339e-13
2.93072e-13
1.59831e-09
1.59776e-09
1.59794e-09
1.59831e-09
1.59882e-09
1.60081e-09
3.6005e-10
3.60912e-10
3.60752e-10
3.60724e-10
3.60954e-10
3.60065e-10
7.40609e-12
7.42919e-12
7.42524e-12
7.42448e-12
7.43018e-12
7.40671e-12
6.58542e-57
6.59391e-57
6.59407e-57
6.59507e-57
6.59758e-57
6.59015e-57
1.11836e-59
1.11985e-59
1.11989e-59
1.12007e-59
1.12052e-59
1.11922e-59
3.25309e-63
3.2575e-63
3.25764e-63
3.25818e-63
3.25948e-63
3.25567e-63
2.51449e-52
2.51772e-52
2.51781e-52
2.5182e-52
2.5192e-52
2.51644e-52
6.20767e-55
6.21595e-55
6.21621e-55
6.21728e-55
6.21991e-55
6.21285e-55
2.07222e-58
2.07501e-58
2.07511e-58
2.07546e-58
2.07633e-58
2.07394e-58
4.4803e-48
4.48599e-48
4.48613e-48
4.48684e-48
4.48865e-48
4.48377e-48
1.65452e-50
1.65672e-50
1.65679e-50
1.65708e-50
1.6578e-50
1.65592e-50
6.71759e-54
6.72656e-54
6.72687e-54
6.72805e-54
6.73094e-54
6.72329e-54
4.80385e-44
4.80991e-44
4.81005e-44
4.8108e-44
4.81277e-44
4.80756e-44
2.6909e-46
2.69446e-46
2.69457e-46
2.69504e-46
2.69623e-46
2.69319e-46
1.40064e-49
1.40251e-49
1.40257e-49
1.40283e-49
1.40344e-49
1.40186e-49
3.3585e-40
3.36273e-40
3.3628e-40
3.36331e-40
3.36469e-40
3.36104e-40
2.85859e-42
2.86239e-42
2.86247e-42
2.86297e-42
2.86423e-42
2.86098e-42
2.00085e-45
2.00352e-45
2.0036e-45
2.00396e-45
2.00485e-45
2.00258e-45
1.56114e-36
1.56311e-36
1.56312e-36
1.56335e-36
1.56399e-36
1.56227e-36
2.0044e-38
2.00707e-38
2.0071e-38
2.00743e-38
2.00831e-38
2.00599e-38
1.97114e-41
1.97377e-41
1.97383e-41
1.97417e-41
1.97504e-41
1.97277e-41
4.74218e-33
4.74817e-33
4.74811e-33
4.74875e-33
4.75066e-33
4.74534e-33
9.10759e-35
9.1197e-35
9.11969e-35
9.1211e-35
9.1251e-35
9.11435e-35
1.30893e-37
1.31067e-37
1.31069e-37
1.3109e-37
1.31147e-37
1.30994e-37
9.03939e-30
9.05077e-30
9.05047e-30
9.05156e-30
9.0552e-30
9.04485e-30
2.59476e-31
2.59821e-31
2.59816e-31
2.59854e-31
2.59969e-31
2.59659e-31
5.62051e-34
5.62795e-34
5.62793e-34
5.62879e-34
5.63126e-34
5.62462e-34
1.02862e-26
1.02992e-26
1.02986e-26
1.02997e-26
1.03039e-26
1.02919e-26
4.44221e-28
4.4481e-28
4.44799e-28
4.44862e-28
4.45062e-28
4.44524e-28
1.47639e-30
1.47835e-30
1.47833e-30
1.47855e-30
1.47921e-30
1.47745e-30
6.71209e-24
6.72055e-24
6.72008e-24
6.72072e-24
6.72343e-24
6.71541e-24
4.33317e-25
4.33895e-25
4.3388e-25
4.33939e-25
4.34137e-25
4.33604e-25
2.22252e-27
2.22547e-27
2.22542e-27
2.22575e-27
2.22676e-27
2.22409e-27
2.45371e-21
2.45682e-21
2.45659e-21
2.45678e-21
2.45777e-21
2.45476e-21
2.27201e-22
2.27506e-22
2.27495e-22
2.27524e-22
2.27628e-22
2.27343e-22
1.80628e-24
1.80868e-24
1.80862e-24
1.80887e-24
1.8097e-24
1.80749e-24
4.77073e-19
4.77675e-19
4.77617e-19
4.77644e-19
4.77831e-19
4.7723e-19
5.98408e-20
5.99214e-20
5.99174e-20
5.99243e-20
5.99519e-20
5.98748e-20
7.53459e-22
7.54465e-22
7.5443e-22
7.54529e-22
7.54877e-22
7.53939e-22
)
;

boundaryField
{
    seabed_topleft_surface
    {
        type            zeroGradient;
    }
    seabed_topright_surface
    {
        type            zeroGradient;
    }
    breakwater_top_surface
    {
        type            zeroGradient;
    }
    breakwater_left_surface
    {
        type            zeroGradient;
    }
    breakwater_right_surface
    {
        type            zeroGradient;
    }
    water_front_surface
    {
        type            zeroGradient;
    }
    water_back_surface
    {
        type            zeroGradient;
    }
    water_left_surface
    {
        type            zeroGradient;
    }
    water_right_surface
    {
        type            zeroGradient;
    }
    water_top_surface
    {
        type            inletOutlet;
        inletValue      uniform 0;
        value           nonuniform List<scalar> 
180
(
0.0756211
0.0756223
0.0756225
0.075622
0.0756217
0.0756245
0
0
0
0
0
0
0
0
0
0
0
0
0
0
0
0
0
0
0
0
0
0
0
0
0
0
0
0
0
0
0
0
0
0
0
0
0
0
0
0
0
0
2.74248e-13
2.74354e-13
2.74324e-13
2.74327e-13
2.74384e-13
2.74211e-13
2.74642e-11
2.74631e-11
2.74521e-11
2.74436e-11
2.74389e-11
2.74201e-11
1.78915e-09
1.79001e-09
1.7898e-09
1.78988e-09
1.79038e-09
1.78924e-09
7.89173e-11
7.9017e-11
7.90052e-11
7.90114e-11
7.90514e-11
7.89479e-11
1.60552e-19
1.60768e-19
1.60758e-19
1.60777e-19
1.60852e-19
1.60645e-19
1.2869e-17
1.28864e-17
1.28854e-17
1.28868e-17
1.28929e-17
1.28758e-17
9.19479e-17
9.20852e-17
9.20831e-17
9.21017e-17
9.21598e-17
9.20359e-17
4.83656e-15
4.84043e-15
4.84073e-15
4.8415e-15
4.84331e-15
4.84012e-15
2.92917e-13
2.93209e-13
2.93195e-13
2.93224e-13
2.93339e-13
2.93072e-13
7.40609e-12
7.42919e-12
7.42524e-12
7.42448e-12
7.43018e-12
7.40671e-12
3.25309e-63
3.2575e-63
3.25764e-63
3.25818e-63
3.25948e-63
3.25567e-63
2.07222e-58
2.07501e-58
2.07511e-58
2.07546e-58
2.07633e-58
2.07394e-58
6.71759e-54
6.72656e-54
6.72687e-54
6.72805e-54
6.73094e-54
6.72329e-54
1.40064e-49
1.40251e-49
1.40257e-49
1.40283e-49
1.40344e-49
1.40186e-49
2.00085e-45
2.00352e-45
2.0036e-45
2.00396e-45
2.00485e-45
2.00258e-45
1.97114e-41
1.97377e-41
1.97383e-41
1.97417e-41
1.97504e-41
1.97277e-41
1.30893e-37
1.31067e-37
1.31069e-37
1.3109e-37
1.31147e-37
1.30994e-37
5.62051e-34
5.62795e-34
5.62793e-34
5.62879e-34
5.63126e-34
5.62462e-34
1.47639e-30
1.47835e-30
1.47833e-30
1.47855e-30
1.47921e-30
1.47745e-30
2.22252e-27
2.22547e-27
2.22542e-27
2.22575e-27
2.22676e-27
2.22409e-27
1.80628e-24
1.80868e-24
1.80862e-24
1.80887e-24
1.8097e-24
1.80749e-24
7.53459e-22
7.54465e-22
7.5443e-22
7.54529e-22
7.54877e-22
7.53939e-22
)
;
    }
}


// ************************************************************************* //
