/*--------------------------------*- C++ -*----------------------------------*\
| =========                 |                                                 |
| \\      /  F ield         | OpenFOAM: The Open Source CFD Toolbox           |
|  \\    /   O peration     | Version:  v1612+                                |
|   \\  /    A nd           | Web:      www.OpenFOAM.com                      |
|    \\/     M anipulation  |                                                 |
\*---------------------------------------------------------------------------*/
FoamFile
{
    version     2.0;
    format      ascii;
    class       volScalarField;
    location    "1.4";
    object      p_rgh;
}
// * * * * * * * * * * * * * * * * * * * * * * * * * * * * * * * * * * * * * //

dimensions      [1 -1 -2 0 0 0 0];

internalField   nonuniform List<scalar> 
1116
(
39364.8
39364.8
39364.8
39364.8
39364.8
39364.8
38331.5
38331.5
38331.5
38331.4
38331.4
38331.4
35340
35340
35339.9
35339.9
35339.9
35339.8
31230.3
31230.3
31230.3
31230.3
31230.3
31230.2
25721
25721.1
25721.1
25721.1
25721.1
25721.1
19521.5
19521.6
19521.6
19521.6
19521.6
19521.7
12593.6
12593.6
12593.6
12593.6
12593.6
12593.7
8628.7
8628.71
8628.73
8628.75
8628.75
8628.77
5546.99
5547.28
5547.31
5547.31
5547.3
5547.12
889.98
890.067
890.062
890.057
890.055
889.989
375.203
375.204
375.205
375.204
375.204
375.204
368.764
368.776
368.78
368.781
368.777
368.76
39604.3
39604.2
39604.3
39604.3
39604.3
39604.3
37814.2
37814.1
37814.1
37814.1
37814.1
37814.1
34059.2
34059.1
34059.1
34059.1
34059.1
34059.1
28375.9
28375.9
28375.9
28375.9
28375.9
28375.9
18938.3
18938.3
18938.4
18938.4
18938.5
18938.6
9596.26
9596.14
9596.25
9596.29
9596.29
9596.39
1278.57
1278.47
1278.52
1278.55
1278.54
1278.59
-54.9168
-54.9216
-54.9196
-54.9181
-54.9177
-54.9168
-102.648
-102.651
-102.652
-102.651
-102.65
-102.651
-84.5734
-84.5739
-84.5755
-84.5765
-84.5812
-84.5678
199.195
199.192
199.195
199.198
199.201
199.204
238.182
238.19
238.188
238.188
238.19
238.173
40212.4
40212.4
40212.4
40212.4
40212.5
40212.5
37580.1
37580.1
37580.1
37580.1
37580.1
37580.1
31266.5
31266.6
31266.6
31266.6
31266.6
31266.8
15606.6
15606.9
15607
15607
15607.1
15607.4
1553.44
1553.45
1553.54
1553.56
1553.58
1553.72
-29.5134
-29.5073
-29.5078
-29.5077
-29.5067
-29.5056
-32.142
-32.1404
-32.1388
-32.1378
-32.137
-32.1353
-52.3231
-52.3249
-52.3246
-52.3243
-52.3248
-52.325
-100.257
-100.258
-100.259
-100.261
-100.264
-100.266
-131.327
-131.328
-131.33
-131.331
-131.331
-131.334
-10.4831
-10.4849
-10.4896
-10.4892
-10.4835
-10.4889
76.6177
76.6173
76.6116
76.6083
76.6099
76.6074
42670
42670
42670
42670
42670
42670
35769.1
35769.2
35769.3
35769.3
35769.2
35769.4
9844.64
9844.96
9845.05
9845.08
9845.12
9845.45
2.37422
2.36956
2.36846
2.36973
2.37132
2.37187
-20.0355
-20.0346
-20.0347
-20.0348
-20.0346
-20.0349
-23.4668
-23.4654
-23.4646
-23.4642
-23.4644
-23.4638
-25.312
-25.3115
-25.3109
-25.3105
-25.3106
-25.3105
-42.9427
-42.9437
-42.9435
-42.943
-42.943
-42.9429
-82.0455
-82.0452
-82.044
-82.0433
-82.0436
-82.043
-87.8732
-87.8743
-87.8739
-87.8737
-87.8746
-87.8742
-36.7373
-36.74
-36.7434
-36.7464
-36.749
-36.7518
16.2761
16.2716
16.2683
16.2663
16.2642
16.2609
0.0494718
0.049417
0.0493969
0.0493995
0.0494096
0.0494191
0.0521996
0.0521702
0.0521664
0.0521801
0.0522021
0.0522293
0.0579211
0.0579129
0.057921
0.0579401
0.0579643
0.0579908
0.066646
0.0666604
0.0666776
0.0666963
0.0667154
0.0667339
0.0784349
0.0784642
0.0784822
0.0784937
0.0785002
0.0785037
0.0933694
0.0933976
0.0934045
0.0934
0.0933873
0.0933719
0.111609
0.111615
0.111599
0.111573
0.11154
0.111509
0.13346
0.133427
0.133385
0.13334
0.133296
0.13326
0.158504
0.158432
0.158375
0.15833
0.158296
0.158274
0.185517
0.18543
0.185382
0.18536
0.185358
0.185371
0.209556
0.209485
0.209464
0.20948
0.209518
0.209567
0.230141
0.230121
0.230135
0.230177
0.230236
0.230301
0.0470316
0.0469957
0.0469886
0.0470006
0.047022
0.0470495
0.0498076
0.0497911
0.0497969
0.0498173
0.0498479
0.0498887
0.0556015
0.0555994
0.0556131
0.0556357
0.0556651
0.0557005
0.0644664
0.064478
0.064494
0.0645121
0.0645317
0.0645521
0.0764868
0.0765036
0.0765133
0.0765188
0.0765203
0.0765174
0.0917189
0.0917268
0.0917193
0.0917045
0.0916829
0.091657
0.110016
0.11
0.109968
0.10993
0.109889
0.109849
0.130878
0.130828
0.130778
0.13073
0.130687
0.130654
0.15407
0.154005
0.153956
0.153922
0.153904
0.153902
0.179674
0.179617
0.179594
0.179596
0.179622
0.179669
0.206256
0.206233
0.206253
0.206297
0.206363
0.206446
0.230594
0.230623
0.230672
0.230735
0.230813
0.230906
0.0424018
0.042376
0.0423752
0.042391
0.0424149
0.0424431
0.0450848
0.0450739
0.0450837
0.0451058
0.045137
0.045176
0.0506931
0.050692
0.0507061
0.0507283
0.0507566
0.0507896
0.0593683
0.0593743
0.0593864
0.0594016
0.0594187
0.0594369
0.0713904
0.0713942
0.0713956
0.0713959
0.071395
0.0713917
0.0872719
0.0872608
0.0872431
0.0872228
0.0872007
0.0871791
0.108059
0.10802
0.107982
0.107945
0.107911
0.107882
0.136135
0.136074
0.136029
0.135994
0.13597
0.135959
0.173133
0.17308
0.173054
0.173048
0.17306
0.173088
0.219602
0.219586
0.219603
0.219639
0.219692
0.219759
0.267007
0.267038
0.267088
0.267146
0.267212
0.267282
0.315181
0.315243
0.315295
0.315344
0.31539
0.315435
0.035669
0.0356521
0.0356553
0.0356715
0.035694
0.0357196
0.0381053
0.0380992
0.0381102
0.0381308
0.0381586
0.0381924
0.0432151
0.0432147
0.0432273
0.0432467
0.0432711
0.0432991
0.0512157
0.0512171
0.051225
0.0512368
0.0512509
0.0512664
0.0625188
0.0625129
0.0625086
0.0625068
0.0625062
0.0625055
0.0777212
0.0776962
0.0776761
0.0776586
0.0776437
0.0776321
0.0973756
0.0973293
0.0972967
0.0972723
0.097256
0.0972482
0.12142
0.121368
0.121342
0.121333
0.121339
0.121358
0.150586
0.150566
0.150576
0.150603
0.150646
0.150702
0.185449
0.185482
0.18553
0.185583
0.185642
0.185703
0.233763
0.233828
0.233873
0.233903
0.233925
0.233941
0.256788
0.25684
0.25686
0.25685
0.256822
0.256789
47180.4
47180.6
47180.6
47180.6
47180.6
47180.7
25460.5
25460.6
25460.7
25460.6
25460.6
25460.9
4404.05
4404.13
4404.14
4404.1
4404.09
4404.26
6962.57
6962.69
6962.67
6962.71
6962.7
6962.85
10.2849
10.2859
10.2871
10.2889
10.2905
10.2901
-53.0806
-53.0812
-53.0811
-53.0805
-53.0797
-53.0792
-7.23394
-7.23402
-7.23302
-7.23118
-7.23012
-7.23251
-21.8128
-21.8128
-21.8122
-21.8111
-21.8102
-21.8096
-35.0288
-35.0283
-35.0281
-35.0281
-35.0282
-35.0285
-7.59196
-7.59286
-7.59277
-7.59235
-7.59215
-7.59211
-8.80549
-8.80469
-8.804
-8.8036
-8.80324
-8.80325
-9.72536
-9.72508
-9.72502
-9.72506
-9.72512
-9.72531
-17.9085
-17.9076
-17.9068
-17.9064
-17.9061
-17.9059
-11.2539
-11.2534
-11.2529
-11.2528
-11.2527
-11.2527
-6.0669
-6.06708
-6.06729
-6.06741
-6.06745
-6.0675
-19.2378
-19.2373
-19.2367
-19.2364
-19.2364
-19.2365
-11.3608
-11.3607
-11.3606
-11.3605
-11.3606
-11.3607
-4.66613
-4.66611
-4.66609
-4.66604
-4.66598
-4.66595
-20.2772
-20.2772
-20.2769
-20.2769
-20.2772
-20.2775
-11.9306
-11.9304
-11.9303
-11.9304
-11.9306
-11.9309
-3.96635
-3.96617
-3.96604
-3.96597
-3.96598
-3.96612
-27.4268
-27.4265
-27.4263
-27.4263
-27.4265
-27.4265
-14.1408
-14.1404
-14.1403
-14.1403
-14.1404
-14.1405
-3.52327
-3.52319
-3.52314
-3.52311
-3.52312
-3.52324
-34.0012
-34.0009
-34.0005
-34.0004
-34.0006
-34.0003
-14.5454
-14.5449
-14.5449
-14.5449
-14.5449
-14.5454
-3.2421
-3.24194
-3.24184
-3.24169
-3.24156
-3.24166
-31.7984
-31.7989
-31.7989
-31.7986
-31.7992
-31.7985
-7.35006
-7.34969
-7.34926
-7.34874
-7.34846
-7.34853
-0.708437
-0.70803
-0.707679
-0.707374
-0.707157
-0.707335
-4.51525
-4.5169
-4.51786
-4.51793
-4.51889
-4.5185
5.84357
5.84395
5.8448
5.84575
5.84628
5.84662
3.09131
3.09203
3.09271
3.0932
3.09349
3.09343
12.9524
12.9506
12.9499
12.9503
12.9501
12.9494
12.733
12.7343
12.7354
12.7361
12.7367
12.7371
5.70183
5.70267
5.70328
5.70356
5.70364
5.70348
0.755906
0.755961
0.755899
0.755757
0.755594
0.7555
0.924692
0.924713
0.924633
0.924498
0.924373
0.924298
0.510738
0.510738
0.510717
0.510677
0.510633
0.510602
0.84166
0.841708
0.841646
0.841477
0.841271
0.841152
1.37488
1.37495
1.37489
1.37472
1.37455
1.37444
0.794321
0.794348
0.794325
0.794265
0.7942
0.794148
0.775062
0.775166
0.775099
0.774917
0.774689
0.774557
2.09036
2.09055
2.09054
2.09037
2.09015
2.09
1.24578
1.24586
1.24586
1.24579
1.24568
1.24561
0.750157
0.750312
0.750242
0.750015
0.749702
0.749435
3.2989
3.29916
3.29917
3.29898
3.29867
3.29828
1.95354
1.95369
1.95372
1.95361
1.95345
1.95326
0.200692
0.200811
0.200797
0.200661
0.200377
0.200114
4.82855
4.8288
4.82892
4.82881
4.82848
4.82783
2.99989
3.00004
3.00008
2.99999
2.99979
2.9994
-9.2884
-9.28896
-9.28929
-9.28973
-9.29038
-9.29025
6.19449
6.19529
6.1958
6.19592
6.19575
6.19534
4.34653
4.34684
4.34701
4.34702
4.34685
4.34632
0.0270517
0.0270428
0.0270486
0.0270628
0.0270815
0.0271025
0.016908
0.0169061
0.0169119
0.0169221
0.0169353
0.01695
0.00587527
0.00587636
0.00587945
0.00588367
0.00588914
0.00589599
0.0290068
0.0290051
0.0290154
0.0290324
0.0290546
0.0290812
0.0181742
0.0181756
0.0181836
0.0181953
0.0182102
0.0182281
0.00633485
0.00633676
0.00634028
0.00634485
0.00635076
0.00635829
0.0331371
0.0331378
0.0331479
0.0331631
0.0331822
0.0332039
0.0208598
0.0208616
0.0208687
0.0208788
0.0208913
0.0209057
0.00731381
0.00731553
0.00731858
0.00732245
0.00732733
0.00733335
0.0397386
0.0397377
0.0397425
0.0397511
0.0397621
0.0397747
0.0252078
0.0252071
0.0252103
0.0252159
0.0252233
0.0252323
0.00892337
0.00892386
0.00892543
0.00892764
0.00893065
0.00893465
0.0494263
0.0494162
0.0494108
0.0494094
0.0494104
0.0494133
0.0317209
0.0317135
0.0317102
0.0317103
0.0317128
0.0317176
0.011394
0.0113924
0.0113918
0.0113922
0.0113938
0.0113969
0.0634358
0.0634103
0.0633944
0.0633843
0.0633794
0.0633794
0.0413793
0.0413635
0.0413555
0.0413529
0.0413554
0.0413631
0.0151909
0.0151872
0.0151855
0.0151857
0.0151882
0.015194
0.0843884
0.0843498
0.0843306
0.0843229
0.0843257
0.0843388
0.0560476
0.0560282
0.0560227
0.0560277
0.0560418
0.0560651
0.0212507
0.0212479
0.0212488
0.021253
0.0212619
0.0212766
0.117112
0.117083
0.117079
0.117094
0.117124
0.117168
0.0790083
0.0790044
0.0790174
0.0790429
0.0790798
0.0791282
0.0314224
0.0314276
0.0314376
0.0314514
0.0314708
0.0314968
0.169664
0.169678
0.169712
0.169758
0.169814
0.169878
0.116663
0.116693
0.116731
0.116774
0.116821
0.116869
0.0495852
0.0496024
0.0496203
0.0496393
0.049659
0.0496755
0.253024
0.253082
0.253134
0.25318
0.25322
0.253249
0.180509
0.180554
0.180583
0.180603
0.180611
0.180606
0.0835809
0.0835918
0.0835972
0.0835982
0.0835916
0.0835755
0.384057
0.384103
0.384112
0.384098
0.384068
0.384026
0.301847
0.301852
0.301824
0.301778
0.301721
0.301666
0.150916
0.1509
0.150876
0.150846
0.150817
0.150798
0.54468
0.54465
0.544579
0.544486
0.544394
0.544317
0.525521
0.525473
0.525394
0.525299
0.525211
0.525145
0.280286
0.280263
0.280229
0.280194
0.280173
0.280162
)
;

boundaryField
{
    seabed_topleft_surface
    {
        type            fixedFluxPressure;
        gradient        uniform 0;
        value           nonuniform List<scalar> 
72
(
39364.8
39364.8
39364.8
39364.8
39364.8
39364.8
38331.5
38331.5
38331.5
38331.4
38331.4
38331.4
35340
35340
35339.9
35339.9
35339.9
35339.8
31230.3
31230.3
31230.3
31230.3
31230.3
31230.2
25721
25721.1
25721.1
25721.1
25721.1
25721.1
19521.5
19521.6
19521.6
19521.6
19521.6
19521.7
12593.6
12593.6
12593.6
12593.6
12593.6
12593.7
8628.7
8628.71
8628.73
8628.75
8628.75
8628.77
5546.99
5547.28
5547.31
5547.31
5547.3
5547.12
889.98
890.067
890.062
890.057
890.055
889.989
375.203
375.204
375.205
375.204
375.204
375.204
368.764
368.776
368.78
368.781
368.777
368.76
)
;
    }
    seabed_topright_surface
    {
        type            fixedFluxPressure;
        gradient        uniform 0;
        value           nonuniform List<scalar> 
72
(
0.0494718
0.049417
0.0493969
0.0493995
0.0494096
0.0494191
0.0521996
0.0521702
0.0521664
0.0521801
0.0522021
0.0522293
0.0579211
0.0579129
0.057921
0.0579401
0.0579643
0.0579908
0.066646
0.0666604
0.0666776
0.0666963
0.0667154
0.0667339
0.0784349
0.0784642
0.0784822
0.0784937
0.0785002
0.0785037
0.0933694
0.0933976
0.0934045
0.0934
0.0933873
0.0933719
0.111609
0.111615
0.111599
0.111573
0.11154
0.111509
0.13346
0.133427
0.133385
0.13334
0.133296
0.13326
0.158504
0.158432
0.158375
0.15833
0.158296
0.158274
0.185517
0.18543
0.185382
0.18536
0.185358
0.185371
0.209556
0.209485
0.209464
0.20948
0.209518
0.209567
0.230141
0.230121
0.230135
0.230177
0.230236
0.230301
)
;
    }
    breakwater_top_surface
    {
        type            fixedFluxPressure;
        gradient        uniform 0;
        value           nonuniform List<scalar> 
36
(
0.755906
0.755961
0.755899
0.755757
0.755594
0.7555
0.84166
0.841708
0.841646
0.841477
0.841271
0.841152
0.775062
0.775166
0.775099
0.774917
0.774689
0.774557
0.750157
0.750312
0.750242
0.750015
0.749702
0.749435
0.200692
0.200811
0.200797
0.200661
0.200377
0.200114
-9.2884
-9.28896
-9.28929
-9.28973
-9.29038
-9.29025
)
;
    }
    breakwater_left_surface
    {
        type            fixedFluxPressure;
        gradient        uniform 0;
        value           nonuniform List<scalar> 
24
(
368.764
368.776
368.78
368.781
368.777
368.76
238.182
238.19
238.188
238.188
238.19
238.173
76.6177
76.6173
76.6116
76.6083
76.6099
76.6074
16.2761
16.2716
16.2683
16.2663
16.2642
16.2609
)
;
    }
    breakwater_right_surface
    {
        type            fixedFluxPressure;
        gradient        uniform 0;
        value           nonuniform List<scalar> 
24
(
0.230141
0.230121
0.230135
0.230177
0.230236
0.230301
0.230594
0.230623
0.230672
0.230735
0.230813
0.230906
0.315181
0.315243
0.315295
0.315344
0.31539
0.315435
0.256788
0.25684
0.25686
0.25685
0.256822
0.256789
)
;
    }
    water_front_surface
    {
        type            fixedFluxPressure;
        gradient        uniform 0;
        value           nonuniform List<scalar> 
186
(
39364.8
38331.5
35340
31230.3
25721
19521.5
12593.6
8628.7
5546.99
889.98
375.203
368.764
39604.3
37814.2
34059.2
28375.9
18938.3
9596.26
1278.57
-54.9168
-102.648
-84.5734
199.195
238.182
40212.4
37580.1
31266.5
15606.6
1553.44
-29.5134
-32.142
-52.3231
-100.257
-131.327
-10.4831
76.6177
42670
35769.1
9844.64
2.37422
-20.0355
-23.4668
-25.312
-42.9427
-82.0455
-87.8732
-36.7373
16.2761
0.0494718
0.0521996
0.0579211
0.066646
0.0784349
0.0933694
0.111609
0.13346
0.158504
0.185517
0.209556
0.230141
0.0470316
0.0498076
0.0556015
0.0644664
0.0764868
0.0917189
0.110016
0.130878
0.15407
0.179674
0.206256
0.230594
0.0424018
0.0450848
0.0506931
0.0593683
0.0713904
0.0872719
0.108059
0.136135
0.173133
0.219602
0.267007
0.315181
0.035669
0.0381053
0.0432151
0.0512157
0.0625188
0.0777212
0.0973756
0.12142
0.150586
0.185449
0.233763
0.256788
47180.4
25460.5
4404.05
6962.57
10.2849
-53.0806
-7.23394
-21.8128
-35.0288
-7.59196
-8.80549
-9.72536
-17.9085
-11.2539
-6.0669
-19.2378
-11.3608
-4.66613
-20.2772
-11.9306
-3.96635
-27.4268
-14.1408
-3.52327
-34.0012
-14.5454
-3.2421
-31.7984
-7.35006
-0.708437
-4.51525
5.84357
3.09131
12.9524
12.733
5.70183
0.755906
0.924692
0.510738
0.84166
1.37488
0.794321
0.775062
2.09036
1.24578
0.750157
3.2989
1.95354
0.200692
4.82855
2.99989
-9.2884
6.19449
4.34653
0.0270517
0.016908
0.00587527
0.0290068
0.0181742
0.00633485
0.0331371
0.0208598
0.00731381
0.0397386
0.0252078
0.00892337
0.0494263
0.0317209
0.011394
0.0634358
0.0413793
0.0151909
0.0843884
0.0560476
0.0212507
0.117112
0.0790083
0.0314224
0.169664
0.116663
0.0495852
0.253024
0.180509
0.0835809
0.384057
0.301847
0.150916
0.54468
0.525521
0.280286
)
;
    }
    water_back_surface
    {
        type            fixedFluxPressure;
        gradient        uniform 0;
        value           nonuniform List<scalar> 
186
(
39364.8
38331.4
35339.8
31230.2
25721.1
19521.7
12593.7
8628.77
5547.12
889.989
375.204
368.76
39604.3
37814.1
34059.1
28375.9
18938.6
9596.39
1278.59
-54.9168
-102.651
-84.5678
199.204
238.173
40212.5
37580.1
31266.8
15607.4
1553.72
-29.5056
-32.1353
-52.325
-100.266
-131.334
-10.4889
76.6074
42670
35769.4
9845.45
2.37187
-20.0349
-23.4638
-25.3105
-42.9429
-82.043
-87.8742
-36.7518
16.2609
0.0494191
0.0522293
0.0579908
0.0667339
0.0785037
0.0933719
0.111509
0.13326
0.158274
0.185371
0.209567
0.230301
0.0470495
0.0498887
0.0557005
0.0645521
0.0765174
0.091657
0.109849
0.130654
0.153902
0.179669
0.206446
0.230906
0.0424431
0.045176
0.0507896
0.0594369
0.0713917
0.0871791
0.107882
0.135959
0.173088
0.219759
0.267282
0.315435
0.0357196
0.0381924
0.0432991
0.0512664
0.0625055
0.0776321
0.0972482
0.121358
0.150702
0.185703
0.233941
0.256789
47180.7
25460.9
4404.26
6962.85
10.2901
-53.0792
-7.23251
-21.8096
-35.0285
-7.59211
-8.80325
-9.72531
-17.9059
-11.2527
-6.0675
-19.2365
-11.3607
-4.66595
-20.2775
-11.9309
-3.96612
-27.4265
-14.1405
-3.52324
-34.0003
-14.5454
-3.24166
-31.7985
-7.34853
-0.707335
-4.5185
5.84662
3.09343
12.9494
12.7371
5.70348
0.7555
0.924298
0.510602
0.841152
1.37444
0.794148
0.774557
2.09
1.24561
0.749435
3.29828
1.95326
0.200114
4.82783
2.9994
-9.29025
6.19534
4.34632
0.0271025
0.01695
0.00589599
0.0290812
0.0182281
0.00635829
0.0332039
0.0209057
0.00733335
0.0397747
0.0252323
0.00893465
0.0494133
0.0317176
0.0113969
0.0633794
0.0413631
0.015194
0.0843388
0.0560651
0.0212766
0.117168
0.0791282
0.0314968
0.169878
0.116869
0.0496755
0.253249
0.180606
0.0835755
0.384026
0.301666
0.150798
0.544317
0.525145
0.280162
)
;
    }
    water_left_surface
    {
        type            fixedFluxPressure;
        gradient        uniform 0;
        value           nonuniform List<scalar> 
42
(
39364.8
39364.8
39364.8
39364.8
39364.8
39364.8
39604.3
39604.2
39604.3
39604.3
39604.3
39604.3
40212.4
40212.4
40212.4
40212.4
40212.5
40212.5
42670
42670
42670
42670
42670
42670
47180.4
47180.6
47180.6
47180.6
47180.6
47180.7
25460.5
25460.6
25460.7
25460.6
25460.6
25460.9
4404.05
4404.13
4404.14
4404.1
4404.09
4404.26
)
;
    }
    water_right_surface
    {
        type            fixedFluxPressure;
        gradient        uniform 0;
        value           nonuniform List<scalar> 
42
(
0.0494718
0.049417
0.0493969
0.0493995
0.0494096
0.0494191
0.0470316
0.0469957
0.0469886
0.0470006
0.047022
0.0470495
0.0424018
0.042376
0.0423752
0.042391
0.0424149
0.0424431
0.035669
0.0356521
0.0356553
0.0356715
0.035694
0.0357196
0.0270517
0.0270428
0.0270486
0.0270628
0.0270815
0.0271025
0.016908
0.0169061
0.0169119
0.0169221
0.0169353
0.01695
0.00587527
0.00587636
0.00587945
0.00588367
0.00588914
0.00589599
)
;
    }
    water_top_surface
    {
        type            totalPressure;
        rho             rho;
        psi             none;
        gamma           1;
        p0              uniform 0;
        value           nonuniform List<scalar> 
180
(
0
0
0
0
0
0
-53.2937
-53.2965
-53.2959
-53.2951
-53.2938
-53.2895
-18.5383
-18.5372
-18.5381
-18.5392
-18.5405
-18.5408
-5.79077
-5.79055
-5.79105
-5.79155
-5.79198
-5.79223
-4.39673
-4.39759
-4.39811
-4.39848
-4.39869
-4.39867
-2.34768
-2.34798
-2.34802
-2.348
-2.34796
-2.34781
-1.62569
-1.62566
-1.6256
-1.62553
-1.62541
-1.62522
-0.165764
-0.165695
-0.165681
-0.165662
-0.165626
-0.165625
0
0
0
0
0
0
0
0
0
0
0
0
0
0
0
0
0
0
0
0
0
0
0
0
0
0
0
0
0
0
0
0
0
0
0
0
0
0
0
0
0
0
0
0
0
0
0
0
0
0
0
0
0
0
0
0
0
0
0
0
0
0
0
0
0
0
0
0
0
0
0
0
0
0
0
0
0
0
0
0
0
0
0
0
0
0
0
0
0
0
0
0
0
0
0
0
0
0
0
0
0
0
0
0
0
0
0
0
0
0
0
0
0
0
0
0
0
0
0
0
0
0
0
0
0
0
0
0
0
0
0
0
)
;
    }
}


// ************************************************************************* //
