/*--------------------------------*- C++ -*----------------------------------*\
| =========                 |                                                 |
| \\      /  F ield         | OpenFOAM: The Open Source CFD Toolbox           |
|  \\    /   O peration     | Version:  v1612+                                |
|   \\  /    A nd           | Web:      www.OpenFOAM.com                      |
|    \\/     M anipulation  |                                                 |
\*---------------------------------------------------------------------------*/
FoamFile
{
    version     2.0;
    format      ascii;
    class       surfaceScalarField;
    location    "1.4";
    object      phi;
}
// * * * * * * * * * * * * * * * * * * * * * * * * * * * * * * * * * * * * * //

dimensions      [0 3 -1 0 0 0 0];

internalField   nonuniform List<scalar> 
2916
(
4.30322e-07
0.384998
-0.384998
5.76303e-07
0.384999
-0.385
7.4603e-07
0.384999
-0.385
1.07734e-06
0.385
-0.385
9.83995e-07
0.385
-0.385
0.384999
-0.384998
9.01787e-07
0.876438
-0.491441
1.07608e-06
0.876441
-0.491442
1.16525e-06
0.87644
-0.491441
8.02686e-07
0.87644
-0.49144
3.27197e-07
0.87644
-0.491439
0.876437
-0.491438
1.7211e-06
1.41858
-0.542148
3.23412e-06
1.41859
-0.542149
1.81108e-06
1.41859
-0.542145
2.14223e-07
1.41859
-0.542144
-5.07623e-08
1.41858
-0.542144
1.41858
-0.542141
-2.11449e-06
2.05828
-0.639696
1.09366e-06
2.05828
-0.6397
-1.26319e-06
2.05828
-0.639693
-3.41334e-06
2.05828
-0.639693
-2.18892e-06
2.05828
-0.639696
2.05827
-0.639697
-1.70413e-05
2.75733
-0.69903
-8.56234e-06
2.75733
-0.699056
-6.0453e-06
2.75733
-0.69905
-5.5294e-06
2.75733
-0.69905
-1.93414e-06
2.75733
-0.699054
2.75733
-0.699055
-3.15287e-05
3.4816
-0.724236
-1.58062e-05
3.48162
-0.724301
-6.35738e-06
3.48162
-0.724297
-2.91809e-06
3.48162
-0.724293
1.51543e-06
3.48162
-0.724295
3.48162
-0.724289
-3.42035e-05
4.03276
-0.551133
-2.02964e-05
4.03281
-0.551206
-4.20256e-06
4.03281
-0.551208
3.16647e-06
4.03281
-0.551201
3.30427e-06
4.03282
-0.551199
4.03282
-0.551196
-1.36636e-05
4.86115
-0.828377
-8.26624e-06
4.86121
-0.828402
-2.20482e-06
4.8612
-0.828394
-7.2174e-07
4.8612
-0.828388
-1.41708e-06
4.86122
-0.828396
4.8612
-0.828388
-3.13944e-05
5.94008
-1.07889
-1.43104e-05
5.94013
-1.07894
-1.5252e-05
5.94011
-1.07891
-1.85883e-05
5.94011
-1.07891
1.15882e-06
5.94015
-1.07895
5.94011
-1.07891
-5.8122e-05
5.5949
0.345235
-2.60308e-05
5.59509
0.345005
-2.06215e-05
5.59508
0.345025
-2.90437e-05
5.59509
0.345035
9.96911e-06
5.59508
0.345025
5.59487
0.345252
-4.81607e-05
3.55537
2.03958
-2.87223e-05
3.55577
2.0393
-4.06555e-06
3.5557
2.03936
1.61438e-05
3.5557
2.03936
5.48996e-05
3.55571
2.03934
3.55518
2.03975
-0.00028334
3.55565
0.00012124
3.55537
0.000317751
3.5555
0.000502692
3.55552
0.000768694
3.55544
3.55595
1.16811e-06
0.404141
-0.78914
1.12891e-06
0.404144
-0.789144
1.03068e-06
0.404143
-0.789142
5.97627e-07
0.404142
-0.789142
-3.84604e-08
0.404142
-0.789141
0.40414
-0.789138
4.07075e-06
0.82255
-0.909854
4.31895e-06
0.822559
-0.909857
2.92015e-06
0.822557
-0.909854
1.09384e-06
0.822556
-0.909852
8.14237e-07
0.822555
-0.909852
0.82255
-0.909847
8.85337e-06
1.31628
-1.03589
9.15469e-06
1.3163
-1.03589
3.85063e-06
1.3163
-1.03588
6.77019e-07
1.31629
-1.03588
1.87927e-06
1.31629
-1.03588
1.31628
-1.03587
-2.88281e-06
1.9748
-1.29822
1.48301e-06
1.97483
-1.29823
7.23569e-07
1.97482
-1.29822
1.74026e-06
1.97482
-1.29822
4.31311e-06
1.97481
-1.29822
1.9748
-1.29821
-9.87535e-06
2.73906
-1.46328
-3.525e-06
2.7391
-1.46334
1.99924e-06
2.7391
-1.46333
5.00622e-06
2.7391
-1.46333
4.17045e-06
2.7391
-1.46334
2.73908
-1.46333
-5.80295e-06
3.7329
-1.71807
4.2025e-06
3.73296
-1.71817
1.32704e-05
3.73295
-1.71816
1.41153e-05
3.73295
-1.71815
8.45631e-06
3.73295
-1.71815
3.73293
-1.71812
-9.40588e-06
4.34868
-1.16691
-1.18099e-05
4.34879
-1.16703
1.75338e-06
4.34876
-1.16703
1.25714e-06
4.34876
-1.16702
-6.6577e-06
4.3488
-1.16704
4.34877
-1.16704
6.10403e-05
5.34011
-1.81986
-2.9316e-05
5.34049
-1.82002
-5.46156e-05
5.34041
-1.82001
-4.54923e-05
5.34037
-1.82001
-5.73441e-05
5.3405
-1.82009
5.3404
-1.82008
-0.000187452
6.37827
-2.11686
-0.00018961
6.37867
-2.11711
-0.000203978
6.37861
-2.1171
-0.000232014
6.3786
-2.1171
-0.00021166
6.37885
-2.11732
6.37847
-2.11718
-0.000119083
5.7518
0.971816
-0.000151974
5.75213
0.971579
-0.000226894
5.75209
0.971623
-0.000307136
5.75208
0.97163
-0.000343976
5.75236
0.971556
5.75158
0.971802
4.54159e-05
3.40069
4.39065
-0.000137599
3.40129
4.39032
-0.000208794
3.40114
4.39038
-0.000286231
3.40111
4.3904
-0.000313156
3.40133
4.39039
3.40019
4.39082
-0.000191309
6.95653
3.64514e-05
6.95643
0.000165116
6.95651
0.000271229
6.95653
0.000586606
6.95647
6.95672
5.86625e-06
0.337004
-1.12615
5.13049e-06
0.337011
-1.12615
3.93956e-06
0.33701
-1.12615
2.60884e-06
0.33701
-1.12615
1.72484e-06
0.33701
-1.12615
0.337009
-1.12615
1.2462e-05
0.646676
-1.21954
1.11873e-05
0.646697
-1.21954
6.13574e-06
0.646699
-1.21954
2.47518e-06
0.646698
-1.21954
3.87351e-06
0.646694
-1.21954
0.646691
-1.21952
1.1725e-05
1.2295
-1.61872
8.27013e-06
1.22953
-1.61872
6.01082e-06
1.22953
-1.61871
6.13192e-06
1.22953
-1.61871
7.18239e-06
1.22952
-1.61871
1.22952
-1.61869
1.52147e-05
2.15564
-2.22438
1.57491e-05
2.15573
-2.22443
1.84704e-05
2.15572
-2.22441
1.87859e-05
2.15572
-2.22441
9.30054e-06
2.15571
-2.2244
2.15569
-2.22438
4.62424e-05
2.85392
-2.1616
5.09328e-05
2.85407
-2.16168
6.07335e-05
2.85408
-2.1617
5.83889e-05
2.85407
-2.16169
2.78984e-05
2.85407
-2.16166
2.85404
-2.16165
-2.90802e-06
2.88843
-1.75257
4.86043e-05
2.88855
-1.7527
6.27279e-05
2.88855
-1.75265
5.64951e-05
2.88854
-1.75261
2.99091e-05
2.88857
-1.75262
2.8885
-1.75256
-1.68009e-05
2.9487
-1.22716
-5.15056e-05
2.94877
-1.2272
-6.42552e-05
2.94868
-1.22714
-7.69317e-05
2.94865
-1.22711
-0.000126257
2.94879
-1.22721
2.94869
-1.22736
0.000100545
2.82869
-1.69995
-0.000148634
2.82891
-1.69991
-0.000184564
2.82865
-1.69995
-9.50757e-05
2.82857
-1.70001
-0.000121473
2.82892
-1.70019
2.82882
-1.70033
6.20047e-05
1.93966
-1.22789
-6.64914e-05
1.93986
-1.22793
-0.000125803
1.9396
-1.228
-0.000101277
1.93954
-1.2281
-0.000145837
1.93999
-1.22833
1.93981
-1.22832
3.31119e-05
1.0775
1.83394
-4.57081e-05
1.07778
1.83373
-0.000131746
1.07759
1.83373
-0.000272295
1.07757
1.83374
-0.000367963
1.07796
1.83368
1.07741
1.83383
0.000288586
0.083557
5.3843
2.25609e-05
0.0841907
5.38417
-0.000146338
0.0839789
5.38416
-0.000335388
0.083937
5.38423
-0.000455915
0.0841936
5.38428
0.0833161
5.38446
9.23548e-05
7.04
0.000325969
7.04038
0.000387397
7.04043
0.000379427
7.04047
0.000444686
7.0406
7.04048
1.17512e-05
0.124987
-1.25115
1.02733e-05
0.124997
-1.25115
7.50274e-06
0.124998
-1.25115
4.52766e-06
0.124998
-1.25115
4.65802e-06
0.124997
-1.25115
0.125005
-1.25115
1.16917e-05
0.63051
-1.72507
7.52759e-06
0.630543
-1.72508
3.57537e-06
0.630546
-1.72508
-8.44966e-07
0.630545
-1.72508
-1.56179e-06
0.630542
-1.72508
0.630546
-1.72507
-8.31113e-07
1.71977
-2.70798
-1.99807e-06
1.71982
-2.708
4.72586e-06
1.71983
-2.708
1.57056e-07
1.71983
-2.70799
-1.68962e-05
1.71983
-2.70799
1.71985
-2.70801
2.50222e-05
1.63845
-2.14309
3.83558e-05
1.63866
-2.14328
6.0981e-05
1.63867
-2.14327
7.32389e-05
1.63868
-2.14327
5.6815e-05
1.63869
-2.14324
1.63872
-2.1432
0.000166363
1.38484
-1.90815
0.000211931
1.38519
-1.90826
0.000149734
1.38525
-1.90821
8.91892e-05
1.38525
-1.9082
4.79955e-05
1.38526
-1.90819
1.38523
-1.9081
-8.2911e-05
0.379733
-0.747381
-5.91752e-05
0.379891
-0.747429
-1.33446e-05
0.379893
-0.747336
7.68373e-06
0.3799
-0.747282
-1.93784e-05
0.379982
-0.747312
0.37999
-0.747344
-4.74827e-05
-0.238959
-0.608425
-4.09608e-05
-0.238973
-0.608345
3.82591e-05
-0.239029
-0.6083
0.000117589
-0.239016
-0.608272
5.87903e-05
-0.238826
-0.608349
-0.238757
-0.608553
3.63818e-05
-0.794966
-1.14397
1.26518e-05
-0.795063
-1.14379
1.56232e-05
-0.795145
-1.14383
3.77332e-06
-0.79513
-1.14389
-0.00010261
-0.794896
-1.14401
-0.79493
-1.14426
0.000110476
-1.89963
-0.123337
4.36788e-05
-1.89968
-0.123253
8.08223e-05
-1.8998
-0.123379
9.43823e-05
-1.89978
-0.123456
-0.00014869
-1.89947
-0.123514
-1.89969
-0.123713
0.000317489
-2.26517
2.19917
0.000211804
-2.26498
2.19914
0.000178747
-2.26512
2.19908
0.000111214
-2.26509
2.19912
-0.000159214
-2.26474
2.19922
-2.26513
2.19911
0.00033145
-1.76155
4.88035
0.000337256
-1.7613
4.88048
0.000252211
-1.76141
4.88053
0.000130108
-1.76142
4.88068
-2.26709e-05
-1.76123
4.88092
-1.76153
4.88084
1.27129e-05
5.27844
0.000207778
5.27889
0.000259249
5.27897
0.000203083
5.27911
0.000200367
5.27937
5.27915
5.8855e-07
-0.00111167
0.00111108
1.61906e-07
-0.00111179
0.00111108
-3.17393e-08
-0.00111182
0.00111106
-9.96957e-08
-0.00111186
0.00111102
-9.38275e-08
-0.00111189
0.001111
-0.00111189
0.00111092
2.61593e-07
-0.00226586
0.00115317
-3.52263e-08
-0.00226604
0.00115317
-1.64112e-07
-0.00226606
0.00115316
-2.33048e-07
-0.00226608
0.00115313
-2.93693e-07
-0.00226608
0.00115311
-0.002266
0.00115304
-2.68936e-08
-0.00350007
0.00123364
-1.44698e-07
-0.00350031
0.00123367
-1.92984e-07
-0.00350031
0.00123366
-2.21851e-07
-0.00350031
0.00123364
-2.46446e-07
-0.00350028
0.00123364
-0.00350012
0.00123359
-3.57943e-07
-0.00484371
0.00134365
-2.07508e-07
-0.00484396
0.00134371
-1.4273e-07
-0.00484393
0.00134372
-1.10142e-07
-0.00484389
0.00134373
-1.00626e-07
-0.00484383
0.00134375
-0.00484358
0.00134374
-6.44614e-07
-0.0063092
0.00146621
-1.99104e-07
-0.00630943
0.00146633
3.11493e-09
-0.00630935
0.00146637
1.02075e-07
-0.00630927
0.00146642
1.42271e-07
-0.00630919
0.00146647
-0.00630885
0.00146651
-6.54876e-07
-0.00787964
0.00157169
1.49205e-08
-0.0078798
0.00157193
2.87594e-07
-0.00787968
0.00157201
4.0884e-07
-0.00787959
0.00157209
4.37529e-07
-0.00787951
0.00157217
-0.00787913
0.00157222
-3.35321e-07
-0.00950271
0.00162448
3.21956e-07
-0.00950282
0.00162483
5.83989e-07
-0.00950272
0.00162493
6.62197e-07
-0.00950264
0.00162503
6.57363e-07
-0.00950262
0.00162509
-0.00950225
0.0016251
2.33703e-07
-0.0109815
0.0014798
6.30421e-07
-0.0109816
0.00148021
7.15433e-07
-0.0109816
0.00148031
6.97519e-07
-0.0109816
0.00148034
6.37306e-07
-0.0109817
0.00148031
-0.0109814
0.0014802
8.90998e-07
-0.0117767
0.000795175
8.61083e-07
-0.0117769
0.000795606
7.11141e-07
-0.0117769
0.000795686
5.38488e-07
-0.011777
0.000795636
3.87423e-07
-0.0117772
0.000795512
-0.0117769
0.000795284
1.22119e-06
-0.0109988
-0.000778844
7.50113e-07
-0.0109992
-0.000778527
3.80843e-07
-0.0109993
-0.000778488
7.81248e-08
-0.0109994
-0.000778582
-1.16432e-07
-0.0109997
-0.000778767
-0.0109995
-0.000779017
1.04511e-06
-0.00778689
-0.00321358
3.07302e-07
-0.00778714
-0.00321366
-1.00297e-07
-0.00778726
-0.00321372
-4.28076e-07
-0.00778738
-0.00321386
-6.2532e-07
-0.00778753
-0.0032141
-0.00778747
-0.00321432
2.70387e-08
-0.00778806
-3.36621e-07
-0.00778868
-4.59042e-07
-0.00778883
-5.288e-07
-0.00778893
-5.92344e-07
-0.00778902
-0.00778886
3.76131e-07
-0.00111677
0.0022267
4.11802e-09
-0.00111687
0.00222675
-1.49821e-07
-0.00111689
0.00222675
-2.37403e-07
-0.00111693
0.00222673
-3.15657e-07
-0.00111695
0.00222673
-0.00111694
0.00222664
1.4028e-07
-0.00228383
0.00231889
-1.23097e-07
-0.00228398
0.00231895
-2.25884e-07
-0.00228399
0.00231894
-3.32856e-07
-0.002284
0.00231893
-4.56747e-07
-0.002284
0.00231893
-0.00228389
0.00231884
-5.36355e-08
-0.00354716
0.00249626
-1.69162e-07
-0.00354736
0.00249634
-2.26571e-07
-0.00354735
0.00249633
-2.89273e-07
-0.00354733
0.00249633
-3.57419e-07
-0.0035473
0.00249634
-0.00354711
0.00249626
-2.68597e-07
-0.00494374
0.00274037
-1.80412e-07
-0.00494395
0.00274049
-1.4741e-07
-0.00494391
0.0027405
-1.33558e-07
-0.00494385
0.00274052
-1.25164e-07
-0.00494379
0.00274055
-0.0049435
0.00274048
-3.92275e-07
-0.00648953
0.00301313
-6.4866e-08
-0.00648972
0.00301332
5.14975e-08
-0.00648962
0.00301336
1.37232e-07
-0.00648954
0.00301341
2.19589e-07
-0.00648945
0.00301346
-0.00648909
0.00301339
-2.97792e-07
-0.00814485
0.0032289
1.61646e-07
-0.00814499
0.00322921
3.61199e-07
-0.00814487
0.00322928
4.90244e-07
-0.00814477
0.00322935
6.20672e-07
-0.00814469
0.0032294
-0.00814431
0.0032293
6.73982e-08
-0.00974165
0.00322323
4.75631e-07
-0.00974175
0.00322367
6.27257e-07
-0.00974165
0.00322375
7.36815e-07
-0.00974159
0.00322379
8.5288e-07
-0.00974158
0.00322378
-0.00974123
0.00322358
6.09125e-07
-0.0110092
0.0027484
7.90027e-07
-0.0110093
0.0027489
7.82253e-07
-0.0110092
0.00274896
7.5043e-07
-0.0110093
0.00274891
7.22192e-07
-0.0110094
0.0027488
-0.0110092
0.00274849
1.08992e-06
-0.0117672
0.0015527
9.46351e-07
-0.0117673
0.00155326
7.67562e-07
-0.0117672
0.00155331
5.38881e-07
-0.0117674
0.00155319
3.00688e-07
-0.0117676
0.00155298
-0.0117675
0.00155262
1.37387e-06
-0.0115541
-0.000994142
8.99724e-07
-0.011554
-0.000993295
4.31188e-07
-0.011554
-0.000993156
-5.33895e-08
-0.0115542
-0.000993285
-4.47476e-07
-0.0115545
-0.000993583
-0.0115544
-0.000993975
7.81714e-07
-0.00834649
-0.00642383
2.95135e-07
-0.00834611
-0.00642368
-1.4531e-07
-0.00834604
-0.00642356
-6.37168e-07
-0.00834615
-0.00642363
-1.02829e-06
-0.00834641
-0.00642392
-0.00834651
-0.0064242
-8.01736e-07
-0.0161358
-7.61009e-07
-0.0161367
-6.07116e-07
-0.0161366
-5.86791e-07
-0.0161366
-7.51091e-07
-0.0161365
-0.0161361
2.78634e-07
-0.00107592
0.00330167
-4.13711e-08
-0.00107601
0.00330177
-1.74621e-07
-0.00107603
0.00330176
-2.51558e-07
-0.00107605
0.00330176
-3.08895e-07
-0.00107606
0.00330176
-0.00107604
0.00330164
9.94502e-08
-0.00221462
0.00345646
-1.26907e-07
-0.00221475
0.00345657
-2.29731e-07
-0.00221475
0.00345656
-3.237e-07
-0.00221475
0.00345656
-4.23498e-07
-0.00221474
0.00345657
-0.00221463
0.00345645
-3.93276e-08
-0.00348009
0.00376109
-1.5983e-07
-0.00348026
0.00376123
-2.18365e-07
-0.00348024
0.00376123
-2.73884e-07
-0.00348022
0.00376123
-3.26142e-07
-0.00348018
0.00376125
-0.00347999
0.00376113
-1.59692e-07
-0.00493935
0.00419964
-1.24348e-07
-0.00493952
0.00419983
-1.23787e-07
-0.00493948
0.00419984
-1.23856e-07
-0.00493942
0.00419986
-1.13688e-07
-0.00493936
0.00419989
-0.00493909
0.00419976
-1.67217e-07
-0.00666433
0.00473885
7.07043e-09
-0.0066645
0.00473912
6.85608e-08
-0.00666442
0.00473915
1.16252e-07
-0.00666435
0.00473919
1.79838e-07
-0.00666429
0.00473923
-0.00666398
0.00473907
4.81794e-08
-0.00874918
0.00531489
2.54416e-07
-0.00874932
0.00531528
3.20717e-07
-0.00874925
0.00531533
3.89494e-07
-0.0087492
0.00531536
4.82808e-07
-0.00874919
0.00531537
-0.00874887
0.00531514
4.4105e-07
-0.0113797
0.00585462
5.35936e-07
-0.0113799
0.00585512
5.4306e-07
-0.0113798
0.00585515
5.51683e-07
-0.0113798
0.00585512
5.85324e-07
-0.0113799
0.00585504
-0.0113796
0.00585467
8.76277e-07
-0.0146558
0.00602447
7.40212e-07
-0.0146561
0.00602503
6.21178e-07
-0.0146561
0.00602501
5.0632e-07
-0.0146562
0.00602489
3.72876e-07
-0.0146564
0.0060247
-0.0146561
0.00602421
1.15385e-06
-0.017948
0.00484344
7.91427e-07
-0.0179482
0.0048442
4.88853e-07
-0.0179481
0.00484421
1.72299e-07
-0.0179483
0.00484404
-1.22725e-07
-0.0179485
0.00484377
-0.0179482
0.00484326
8.44439e-07
-0.0189518
7.50444e-06
5.18506e-07
-0.0189514
8.43397e-06
1.38267e-07
-0.0189511
8.60604e-06
-2.98946e-07
-0.0189512
8.52365e-06
-6.43045e-07
-0.0189514
8.25724e-06
-0.0189511
7.87599e-06
-4.7587e-08
-0.0151276
-0.0102494
-1.09024e-07
-0.0151268
-0.0102493
-2.55611e-07
-0.0151264
-0.0102489
-5.4827e-07
-0.0151264
-0.0102488
-7.92687e-07
-0.0151265
-0.010249
-0.0151265
-0.0102492
-2.0692e-06
-0.0312624
-1.21595e-06
-0.0312643
-1.78482e-07
-0.0312641
4.54452e-07
-0.0312635
5.36323e-07
-0.0312629
-0.0312615
1.7812e-07
-0.000980148
0.00428104
-7.26454e-08
-0.000980215
0.00428119
-1.70807e-07
-0.00098023
0.00428118
-2.31406e-07
-0.000980243
0.00428118
-2.75618e-07
-0.00098025
0.0042812
-0.000980223
0.00428105
5.07827e-08
-0.00203599
0.0045114
-1.2857e-07
-0.00203609
0.00451156
-2.1082e-07
-0.00203609
0.00451156
-2.8332e-07
-0.00203608
0.00451156
-3.60503e-07
-0.00203607
0.00451158
-0.00203597
0.00451143
-3.60272e-08
-0.00325071
0.00497529
-1.43885e-07
-0.00325085
0.00497548
-1.95538e-07
-0.00325083
0.00497548
-2.41462e-07
-0.0032508
0.00497549
-2.794e-07
-0.00325077
0.00497551
-0.0032506
0.00497535
-8.06043e-08
-0.00472384
0.00567271
-9.84547e-08
-0.004724
0.00567295
-1.16584e-07
-0.00472396
0.00567296
-1.25572e-07
-0.00472391
0.00567298
-1.15685e-07
-0.00472387
0.005673
-0.00472364
0.00567281
-5.84218e-09
-0.0065647
0.00658006
2.25704e-08
-0.00656486
0.00658038
3.76714e-08
-0.00656482
0.00658039
6.14558e-08
-0.00656478
0.00658041
1.00123e-07
-0.00656475
0.00658043
-0.00656448
0.00658018
2.34252e-07
-0.0088415
0.00759211
2.24483e-07
-0.00884173
0.00759251
2.19449e-07
-0.00884171
0.00759252
2.35419e-07
-0.00884171
0.00759252
2.73181e-07
-0.00884174
0.0075925
-0.00884146
0.00759215
5.61071e-07
-0.0114799
0.0084929
4.09348e-07
-0.0114803
0.00849334
3.58357e-07
-0.0114803
0.00849331
3.20133e-07
-0.0114804
0.00849327
2.56535e-07
-0.0114806
0.00849319
-0.0114803
0.00849272
7.60985e-07
-0.0142435
0.00878704
4.06294e-07
-0.0142441
0.00878753
2.67153e-07
-0.0142442
0.00878746
1.19096e-07
-0.0142444
0.00878735
-8.68238e-08
-0.0142446
0.00878721
-0.0142443
0.00878667
5.2187e-07
-0.0168731
0.00747127
1.82591e-07
-0.0168736
0.0074719
-1.5691e-08
-0.0168736
0.00747187
-2.73415e-07
-0.0168737
0.00747176
-5.51987e-07
-0.0168739
0.00747159
-0.0168734
0.0074711
-6.26433e-08
-0.0195067
0.00263975
-6.12949e-08
-0.0195066
0.00264052
-1.58961e-07
-0.0195062
0.00264065
-4.05171e-07
-0.019506
0.00264063
-6.43821e-07
-0.0195061
0.00264051
-0.0195057
0.00264021
-4.3894e-07
-0.0151997
-0.0145566
3.00814e-07
-0.0151991
-0.0145565
6.30326e-07
-0.0151983
-0.0145562
4.56395e-07
-0.0151976
-0.0145559
3.81627e-08
-0.0151975
-0.014556
-0.0151978
-0.0145561
-1.23043e-06
-0.0464604
-1.00095e-07
-0.0464632
1.20558e-06
-0.0464625
2.06953e-06
-0.0464608
1.87532e-06
-0.0464592
-0.0464569
2.00535e-07
-0.849143
-0.402005
3.80913e-06
-0.849149
-0.402004
3.24402e-06
-0.849145
-0.402001
2.19092e-06
-0.849143
-0.402002
4.4375e-06
-0.849143
-0.402007
-0.849151
-0.401991
1.27534e-05
2.04616
-2.89532
1.14982e-05
2.04616
-2.89531
8.71935e-06
2.04616
-2.89531
1.52673e-05
2.04616
-2.89531
2.20391e-05
2.04617
-2.89532
2.04616
-2.89529
1.82109e-05
-4.47411
1.89693e-05
-4.47411
1.71348e-05
-4.4741
2.40574e-05
-4.47411
2.89766e-05
-4.47411
-4.47408
-1.35359e-05
-2.62399
0.496925
-8.59234e-06
-2.62401
0.496915
9.10215e-06
-2.62401
0.49691
5.98478e-06
-2.62399
0.496912
-3.09071e-05
-2.62396
0.496912
-2.62402
0.496927
-1.62865e-05
-3.72231
-1.79698
7.6878e-06
-3.72234
-1.79702
5.32741e-05
-3.72234
-1.79703
6.40943e-05
-3.72231
-1.79701
4.30135e-05
-3.72228
-1.79698
-3.72227
-1.79699
-3.0414e-05
-2.4763
-6.64396e-05
-2.47631
-8.59072e-05
-2.47631
-8.90516e-05
-2.4763
-4.97292e-05
-2.47629
-2.47625
7.29399e-06
-2.1779
-0.0331585
7.59843e-06
-2.178
-0.0330853
2.44784e-05
-2.17803
-0.033079
3.41349e-05
-2.17803
-0.0330617
3.77951e-05
-2.17805
-0.033029
-2.17809
-0.0329563
-7.14012e-06
-2.44071
-1.53416
2.06738e-05
-2.44078
-1.53427
3.98012e-05
-2.44079
-1.53428
7.0898e-05
-2.4408
-1.53427
0.000107171
-2.44083
-1.53423
-2.44082
-1.53415
2.23851e-05
-1.51403
3.3972e-05
-1.51407
2.8698e-05
-1.51408
1.99096e-05
-1.51408
1.297e-05
-1.51406
-1.51405
0.000166303
-1.89571
-0.2807
0.000164923
-1.89585
-0.280508
0.00012168
-1.89584
-0.280464
7.54796e-05
-1.89585
-0.280431
3.97447e-05
-1.89585
-0.280381
-1.89582
-0.28029
9.87641e-05
-1.55991
-1.87006
9.9915e-05
-1.55993
-1.87019
5.87977e-05
-1.55991
-1.87018
2.72565e-05
-1.55991
-1.87018
3.26617e-05
-1.55993
-1.87017
-1.55992
-1.87003
2.15749e-07
-1.21069
5.6145e-06
-1.21076
5.52769e-06
-1.21078
9.74567e-06
-1.2108
2.11393e-05
-1.2108
-1.21078
3.95873e-06
-0.916181
-1.27267
-1.7315e-05
-0.91621
-1.27254
-3.20766e-05
-0.916185
-1.27248
-6.60411e-05
-0.91616
-1.27243
-9.53074e-05
-0.916159
-1.27238
-0.916162
-1.27233
4.63832e-05
-1.17577
-1.61052
8.73902e-06
-1.17572
-1.61065
-1.00515e-05
-1.1757
-1.61065
-1.34733e-05
-1.17567
-1.61067
-1.68379e-05
-1.17566
-1.61067
-1.17566
-1.61055
-2.93915e-05
-0.791619
-2.67069e-05
-0.791681
-2.74474e-05
-0.7917
-1.56273e-05
-0.79172
1.5316e-05
-0.791735
-0.791708
-0.00012199
-0.490257
-1.52968
-0.000115789
-0.490165
-1.52981
-4.85068e-05
-0.49011
-1.52977
5.48442e-06
-0.490047
-1.52972
1.08848e-05
-0.490033
-1.52966
-0.49013
-1.52953
-5.37046e-05
-0.951801
-1.14893
-6.40566e-05
-0.951773
-1.14903
-3.92388e-05
-0.951749
-1.14904
1.38524e-07
-0.951716
-1.14904
3.23964e-05
-0.951694
-1.14904
-0.951699
-1.14895
-1.49839e-05
-0.577466
-1.57142e-05
-0.577512
-1.77636e-05
-0.577521
-1.12299e-05
-0.57753
4.5042e-06
-0.577537
-0.5775
2.19816e-06
-0.789558
-1.34855
7.69562e-05
-0.789493
-1.34874
0.000134248
-0.789458
-1.34867
0.000174795
-0.789423
-1.34861
0.000130663
-0.789439
-1.34853
-0.78957
-1.34838
-1.39043e-05
-0.928625
-1.00985
1.15454e-06
-0.928594
-1.00995
2.41901e-05
-0.928581
-1.00994
6.12433e-05
-0.928577
-1.00992
7.74333e-05
-0.928584
-1.00991
-0.928626
-1.00981
-1.16185e-05
-0.540871
-6.19045e-06
-0.540916
3.7156e-06
-0.540921
1.49528e-05
-0.540921
2.1981e-05
-0.540922
-0.540881
7.00026e-05
-0.591094
-1.9015
0.000151492
-0.590938
-1.90168
0.000184302
-0.590942
-1.9016
0.00018443
-0.590966
-1.90153
9.69695e-05
-0.591018
-1.90144
-0.591183
-1.90136
7.81513e-06
-0.288727
-1.31222
6.78911e-05
-0.288614
-1.31233
9.5814e-05
-0.288602
-1.3123
0.000109527
-0.288617
-1.31228
0.000103137
-0.288643
-1.31228
-0.288737
-1.31215
-2.0476e-05
-0.530817
-1.22204e-05
-0.530862
1.98905e-06
-0.530868
1.64591e-05
-0.530873
2.61117e-05
-0.530882
-0.53084
0.000170378
0.253745
-2.27875
0.000148882
0.253941
-2.27885
0.000112949
0.253858
-2.27879
6.42833e-05
0.253803
-2.27874
-5.06432e-05
0.253796
-2.27864
0.253505
-2.27863
3.20475e-05
0.408435
-1.46694
7.54885e-05
0.408583
-1.46702
5.80577e-05
0.408566
-1.467
4.05093e-05
0.408536
-1.467
6.92444e-05
0.408521
-1.46703
0.408362
-1.46694
-1.88439e-05
-0.523386
-2.24818e-06
-0.523423
7.19931e-06
-0.523436
1.39064e-05
-0.52345
3.64394e-05
-0.523476
-0.523442
0.000182208
1.83958
-1.91935
0.000124221
1.8397
-1.91934
7.20742e-05
1.83967
-1.91933
2.20583e-05
1.83972
-1.91929
-0.000101804
1.83989
-1.91919
1.83963
-1.91925
1.94801e-05
1.45664
-1.08401
-3.01592e-05
1.45677
-1.08404
-9.80805e-05
1.45677
-1.08403
-0.000121739
1.45679
-1.08405
-5.04405e-05
1.45687
-1.08409
1.45668
-1.08405
-2.37625e-05
-0.327991
-4.11365e-05
-0.328014
-6.4308e-05
-0.328029
-6.8946e-05
-0.328048
-1.28023e-05
-0.328074
-0.328066
9.93211e-05
3.32568
-0.364781
8.38924e-05
3.32587
-0.36471
3.64498e-05
3.32596
-0.364715
-2.54869e-06
3.32612
-0.364698
-8.26283e-05
3.32645
-0.364642
3.32622
-0.364714
-8.00004e-05
2.22591
0.0158417
-0.000170076
2.22607
0.0158514
-0.000235135
2.22613
0.0158532
-0.000233501
2.22622
0.0158508
-0.000123241
2.2264
0.0158504
2.22621
0.0158352
-7.16363e-05
0.0454383
-0.000120618
0.0454377
-0.000155786
0.0454353
-0.000154853
0.0454321
-6.50168e-05
0.0454329
0.045414
-0.000104981
3.53602
1.37773
-9.02946e-05
3.53637
1.37779
-8.969e-05
3.53645
1.3778
-8.63901e-05
3.53659
1.37781
-3.46495e-05
3.53684
1.37784
3.53664
1.37776
-0.000132738
2.40479
1.14721
-0.000176018
2.40498
1.14728
-0.000208065
2.40504
1.1473
-0.000196244
2.40511
1.14732
-9.98636e-05
2.40523
1.14736
2.40508
1.14729
-7.48773e-05
0.434498
-0.000111978
0.434536
-0.00013736
0.434549
-0.000132577
0.434559
-6.20504e-05
0.434575
0.434542
-1.11663e-06
0.0579707
-0.245458
0.187489
-1.07389e-07
0.0579734
-0.24547
0.187497
1.02121e-06
0.0579735
-0.24547
0.187497
1.6876e-06
0.0579734
-0.24547
0.187496
1.41918e-06
0.0579732
-0.245469
0.187495
0.0579705
-0.245457
0.187487
-1.39164e-06
0.124258
-0.229887
0.163602
-6.90414e-07
0.124263
-0.229898
0.163609
4.08904e-07
0.124263
-0.229899
0.163609
9.41545e-07
0.124263
-0.229899
0.163609
1.10457e-06
0.124262
-0.229899
0.163609
0.124257
-0.229889
0.163602
-6.05169e-07
-0.0963523
0.0664951
-5.46911e-07
-0.0963565
0.0664978
-1.61204e-07
-0.0963569
0.066498
2.17647e-07
-0.0963568
0.0664981
4.68523e-07
-0.0963568
0.0664981
-0.0963529
0.0664954
-5.04753e-07
0.0731882
-0.318645
7.71932e-07
0.0731913
-0.318663
2.02802e-06
0.0731911
-0.318663
2.87712e-06
0.0731909
-0.318662
1.97916e-06
0.0731905
-0.31866
0.0731869
-0.318644
-2.59313e-06
0.174275
-0.330971
-1.69376e-06
0.174282
-0.330989
-5.28506e-08
0.174282
-0.330992
1.08936e-06
0.174282
-0.330993
1.57581e-06
0.174281
-0.330992
0.174274
-0.330976
-1.20341e-06
-0.140873
-1.00988e-06
-0.14088
-5.0431e-07
-0.140881
2.21124e-07
-0.140882
8.03943e-07
-0.140882
-0.140876
6.72269e-07
0.0855101
-0.404155
2.47776e-06
0.0855128
-0.404179
3.56829e-06
0.0855116
-0.404179
4.50514e-06
0.0855106
-0.404175
3.3161e-06
0.0855099
-0.404171
0.0855055
-0.404147
-4.52223e-06
0.241811
-0.487268
-3.92256e-06
0.241822
-0.487299
-2.78436e-06
0.241822
-0.487304
-4.19407e-07
0.241821
-0.487306
1.81018e-06
0.24182
-0.487305
0.241809
-0.487277
-2.50319e-06
-0.208156
-2.47553e-06
-0.208169
-1.81529e-06
-0.208172
-3.88898e-07
-0.208173
8.42473e-07
-0.208173
-0.208162
1.94294e-06
0.0916884
-0.495847
3.80401e-06
0.0916906
-0.495873
4.67513e-06
0.0916883
-0.495871
5.96015e-06
0.0916864
-0.495866
6.68921e-06
0.0916848
-0.49586
0.0916798
-0.495823
-9.3657e-06
0.331856
-0.727427
-1.20911e-05
0.331868
-0.727476
-1.29861e-05
0.331868
-0.727484
-8.67869e-06
0.331867
-0.727492
4.99457e-07
0.331865
-0.727497
0.331848
-0.727447
-4.77207e-06
-0.311691
-6.27371e-06
-0.311713
-6.619e-06
-0.311719
-4.2707e-06
-0.311723
2.46069e-07
-0.311725
-0.311705
8.30396e-06
0.183008
-0.678864
8.27215e-06
0.183024
-0.678896
4.65625e-06
0.183023
-0.678892
-4.40141e-07
0.183024
-0.678887
-4.78743e-06
0.183027
-0.678883
0.18301
-0.678838
-2.80948e-05
0.471514
-1.01591
-3.58576e-05
0.471537
-1.01598
-3.78476e-05
0.471539
-1.016
-3.44568e-05
0.47154
-1.01601
-1.31686e-05
0.471542
-1.01603
0.471513
-1.01596
-1.39767e-05
-0.438505
-1.96746e-05
-0.438541
-2.17202e-05
-0.43855
-1.79847e-05
-0.438559
-4.22532e-06
-0.438568
-0.438535
4.50746e-05
0.698823
3.21129e-05
0.698908
1.94931e-05
0.698917
8.04547e-06
0.698936
-1.4889e-05
0.698974
0.69891
-3.71164e-05
0.830157
-5.56545e-05
0.830219
-6.92058e-05
0.83023
-6.86491e-05
0.830242
-3.64133e-05
0.830266
0.830204
-3.53962e-05
-4.72653e-05
-5.24493e-05
-4.87459e-05
-2.03414e-05
9.01336e-08
0.00499591
-0.000715423
-7.46662e-08
0.00499609
-0.000715465
-1.42666e-07
0.00499609
-0.000715475
-1.87664e-07
0.0049961
-0.000715482
-2.20313e-07
0.00499611
-0.000715488
0.00499594
-0.000715469
2.15399e-08
0.00545732
-0.000461755
-5.82205e-08
0.00545753
-0.000461779
-9.52199e-08
0.00545754
-0.000461783
-1.2309e-07
0.00545756
-0.000461787
-1.46802e-07
0.00545758
-0.000461789
0.00545739
-0.000461775
-5.85667e-09
-0.000165413
-2.17189e-08
-0.00016542
-3.14609e-08
-0.000165422
-4.33302e-08
-0.000165422
-6.11383e-08
-0.000165423
-0.000165416
5.03241e-09
0.00529105
-0.0014957
-1.14604e-07
0.00529125
-0.00149577
-1.71331e-07
0.00529126
-0.00149577
-2.22947e-07
0.00529127
-0.00149576
-2.76713e-07
0.00529129
-0.00149576
0.00529112
-0.00149569
-2.08144e-08
0.00580118
-0.000972243
-7.82518e-08
0.00580141
-0.000972283
-1.09848e-07
0.00580143
-0.00097228
-1.40708e-07
0.00580145
-0.000972276
-1.75951e-07
0.00580147
-0.000972269
0.00580127
-0.000972222
-1.68568e-08
-0.000350784
-2.71311e-08
-0.000350797
-3.52414e-08
-0.000350795
-4.68632e-08
-0.000350793
-6.57223e-08
-0.00035079
-0.000350772
-3.71052e-08
0.00589997
-0.00242076
-1.13982e-07
0.0059002
-0.00242085
-1.53592e-07
0.00590021
-0.00242084
-1.8517e-07
0.00590022
-0.00242082
-2.1019e-07
0.00590024
-0.0024208
0.00590004
-0.00242068
-2.88733e-08
0.00652131
-0.00159381
-6.86448e-08
0.00652158
-0.00159387
-8.96419e-08
0.00652159
-0.00159386
-1.08019e-07
0.0065216
-0.00159384
-1.2655e-07
0.00652162
-0.00159383
0.00652139
-0.00159375
-1.3142e-08
-0.000582292
-2.03073e-08
-0.000582309
-2.5485e-08
-0.000582306
-3.25626e-08
-0.000582302
-4.35738e-08
-0.000582297
-0.000582269
-2.56648e-08
0.00686149
-0.00360965
-6.41024e-08
0.00686177
-0.00360975
-8.25521e-08
0.00686177
-0.00360973
-9.11625e-08
0.00686178
-0.0036097
-8.8035e-08
0.0068618
-0.00360968
0.00686154
-0.00360951
2.66147e-09
0.00769063
-0.00242307
-2.24105e-08
0.00769094
-0.00242313
-3.52901e-08
0.00769094
-0.00242312
-4.48718e-08
0.00769095
-0.0024231
-5.16087e-08
0.00769096
-0.00242309
0.00769067
-0.00242299
3.96963e-09
-0.000901617
-1.68913e-09
-0.000901643
-4.76028e-09
-0.000901639
-8.92644e-09
-0.000901635
-1.67592e-08
-0.000901632
-0.000901597
8.48913e-08
0.00823914
-0.0052687
4.59084e-08
0.00823947
-0.00526883
3.70806e-08
0.00823947
-0.00526882
3.94582e-08
0.00823947
-0.00526879
5.08037e-08
0.00823947
-0.00526877
0.00823914
-0.00526856
1.02143e-07
0.00944234
-0.0036264
5.2199e-08
0.00944268
-0.0036265
3.55323e-08
0.00944267
-0.0036265
2.14092e-08
0.00944267
-0.00362649
6.29507e-09
0.00944267
-0.00362649
0.0094423
-0.00362636
3.99812e-08
-0.00138213
2.32919e-08
-0.00138218
1.59332e-08
-0.00138218
6.84539e-09
-0.00138218
-9.32349e-09
-0.00138218
-0.00138214
3.12975e-07
0.0101314
-0.00780816
2.04911e-07
0.0101317
-0.00780841
1.68095e-07
0.0101317
-0.00780841
1.46587e-07
0.0101317
-0.00780841
1.14676e-07
0.0101317
-0.00780843
0.0101313
-0.00780817
2.49952e-07
0.0120103
-0.00550585
1.2675e-07
0.0120107
-0.00550605
7.25533e-08
0.0120107
-0.00550606
2.62998e-08
0.0120107
-0.00550608
-3.62201e-08
0.0120107
-0.00550611
0.0120102
-0.00550596
7.38187e-08
-0.00216018
3.14365e-08
-0.00216026
1.29274e-08
-0.00216027
-1.33614e-08
-0.00216029
-5.98712e-08
-0.0021603
-0.00216025
5.27535e-07
0.0127046
-0.0120208
2.5768e-07
0.012705
-0.0120213
1.58301e-07
0.012705
-0.0120213
7.49726e-08
0.0127049
-0.0120214
-4.66257e-08
0.0127049
-0.0120215
0.0127044
-0.0120211
3.23628e-07
0.0158074
-0.00860977
7.8412e-08
0.0158079
-0.00861016
-2.72973e-08
0.0158079
-0.00861022
-1.31532e-07
0.0158079
-0.00861028
-2.75488e-07
0.0158079
-0.00861035
0.0158073
-0.00861009
6.17443e-08
-0.00349502
-1.01182e-08
-0.00349518
-5.09649e-08
-0.0034952
-1.1233e-07
-0.00349523
-2.08103e-07
-0.00349526
-0.00349515
3.57277e-07
0.0161684
-0.0194036
-2.02201e-08
0.0161689
-0.0194045
-1.46666e-07
0.0161688
-0.0194047
-2.75839e-07
0.0161688
-0.0194048
-4.67331e-07
0.0161687