/*--------------------------------*- C++ -*----------------------------------*\
| =========                 |                                                 |
| \\      /  F ield         | OpenFOAM: The Open Source CFD Toolbox           |
|  \\    /   O peration     | Version:  v1612+                                |
|   \\  /    A nd           | Web:      www.OpenFOAM.com                      |
|    \\/     M anipulation  |                                                 |
\*---------------------------------------------------------------------------*/
FoamFile
{
    version     2.0;
    format      ascii;
    class       volVectorField;
    location    "1.4";
    object      U;
}
// * * * * * * * * * * * * * * * * * * * * * * * * * * * * * * * * * * * * * //

dimensions      [0 1 -1 0 0 0 0];

internalField   nonuniform List<vector> 
1116
(
(0.413199 2.41072e-07 -0.423333)
(0.413201 4.75573e-07 -0.423335)
(0.413201 6.01146e-07 -0.423335)
(0.413201 8.46948e-07 -0.423336)
(0.413202 1.04862e-06 -0.423336)
(0.413201 6.41001e-07 -0.423335)
(1.17029 9.38983e-07 -0.533358)
(1.17029 9.49254e-07 -0.53336)
(1.17029 1.16114e-06 -0.533359)
(1.17029 6.98697e-07 -0.533359)
(1.17029 6.20262e-07 -0.533358)
(1.17029 -8.99693e-08 -0.533355)
(2.26977 7.77668e-07 -0.621699)
(2.26978 2.86257e-06 -0.6217)
(2.26978 3.068e-06 -0.621697)
(2.26977 5.51974e-07 -0.621695)
(2.26977 1.6974e-08 -0.621695)
(2.26976 -3.39429e-07 -0.621692)
(3.40656 -3.64111e-06 -0.713657)
(3.40657 3.57315e-07 -0.71366)
(3.40656 9.40014e-07 -0.713654)
(3.40656 -3.05737e-06 -0.713652)
(3.40656 -4.09069e-06 -0.713654)
(3.40654 -8.38275e-07 -0.713658)
(4.65492 -1.69544e-05 -0.685354)
(4.65492 -1.35995e-05 -0.68538)
(4.65492 -4.65417e-06 -0.685375)
(4.65492 -6.62574e-06 -0.685373)
(4.65492 -4.79231e-06 -0.685377)
(4.65491 1.4109e-06 -0.685382)
(6.10377 -2.99005e-05 -0.634973)
(6.10378 -2.72466e-05 -0.635037)
(6.10377 -6.27626e-06 -0.635034)
(6.10378 -5.43684e-06 -0.635029)
(6.10378 -6.7281e-07 -0.63503)
(6.10377 3.9823e-06 -0.635027)
(7.32133 -3.18402e-05 -0.836299)
(7.3214 -3.38422e-05 -0.836341)
(7.3214 -7.38274e-06 -0.836336)
(7.32141 2.56093e-07 -0.836331)
(7.32141 4.57528e-06 -0.836334)
(7.32141 3.61591e-06 -0.836321)
(8.39693 -1.0698e-05 -1.30685)
(8.39706 -1.29444e-05 -1.30688)
(8.39705 -4.74454e-06 -1.30687)
(8.39706 -1.35532e-07 -1.30686)
(8.39708 -1.16132e-06 -1.30688)
(8.39706 -1.41471e-06 -1.30685)
(9.73707 -2.01464e-05 -1.5854)
(9.73721 -2.26477e-05 -1.58542)
(9.73718 -1.392e-05 -1.5854)
(9.73718 -1.91026e-05 -1.5854)
(9.73722 -8.79917e-06 -1.58542)
(9.73716 8.07177e-06 -1.58535)
(11.013 -4.50737e-05 -1.18756)
(11.0132 -4.28871e-05 -1.1877)
(11.0131 -1.88812e-05 -1.18767)
(11.0131 -3.12974e-05 -1.18766)
(11.0132 -1.15737e-05 -1.18769)
(11.013 2.47317e-05 -1.18754)
(11.392 -5.18323e-05 1.04123)
(11.3923 -3.35409e-05 1.04071)
(11.3923 -3.02451e-06 1.04081)
(11.3923 -1.41847e-05 1.0408)
(11.3923 3.73012e-05 1.04072)
(11.3918 7.606e-05 1.04139)
(5.69182 -0.000246642 3.2258)
(5.69296 -0.000108889 3.22544)
(5.69271 0.000270479 3.22548)
(5.69266 0.000413572 3.22546)
(5.6926 0.000693651 3.22542)
(5.69124 0.00044301 3.22594)
(0.440345 1.70675e-07 -1.10687)
(0.440347 1.2685e-06 -1.10688)
(0.440345 1.47832e-06 -1.10688)
(0.440344 7.21249e-07 -1.10688)
(0.440344 1.51075e-07 -1.10688)
(0.440342 5.76683e-08 -1.10687)
(1.11958 1.09785e-06 -1.44731)
(1.11959 5.20547e-06 -1.44731)
(1.11958 4.19057e-06 -1.44731)
(1.11958 1.05626e-06 -1.4473)
(1.11958 6.84978e-07 -1.4473)
(1.11957 1.28132e-06 -1.4473)
(2.08686 2.91132e-06 -1.55707)
(2.08689 1.23453e-05 -1.55708)
(2.08689 5.62493e-06 -1.55706)
(2.08689 1.55237e-06 -1.55706)
(2.08688 -4.2916e-07 -1.55706)
(2.08687 4.68014e-06 -1.55705)
(2.99279 -4.60829e-06 -1.88307)
(2.99282 -2.31749e-07 -1.88309)
(2.99282 2.43244e-06 -1.88307)
(2.99282 -8.54825e-07 -1.88307)
(2.99281 3.30347e-06 -1.88308)
(2.99278 7.10956e-06 -1.88308)
(4.2826 -6.07068e-06 -2.32886)
(4.28265 -1.16126e-05 -2.32894)
(4.28264 5.66564e-06 -2.32892)
(4.28264 -1.73822e-06 -2.32892)
(4.28263 8.876e-06 -2.32893)
(4.28261 2.79318e-06 -2.32892)
(5.868 -1.65371e-06 -2.58324)
(5.86809 -1.2167e-05 -2.58346)
(5.86808 2.30073e-05 -2.58344)
(5.86808 3.34283e-06 -2.58343)
(5.86808 2.02712e-05 -2.58343)
(5.86804 1.84215e-07 -2.58341)
(7.5876 -1.93028e-06 -1.88825)
(7.58769 -2.80563e-05 -1.88855)
(7.58768 1.4717e-05 -1.88855)
(7.58768 -9.82589e-06 -1.88852)
(7.58769 9.11155e-06 -1.88852)
(7.58763 -1.53996e-05 -1.88851)
(8.92047 7.60091e-05 -2.26418)
(8.92079 1.08733e-05 -2.26439)
(8.9207 -4.83461e-05 -2.26438)
(8.92068 -5.56219e-05 -2.26435)
(8.92081 -3.68777e-05 -2.26439)
(8.9207 -6.99461e-05 -2.26438)
(11.3545 -0.000124536 -3.2487)
(11.3556 -0.000231139 -3.24912)
(11.3554 -0.000180614 -3.2491)
(11.3553 -0.000194784 -3.24909)
(11.3556 -0.000217046 -3.24929)
(11.3553 -0.000224975 -3.24912)
(14.4573 -4.92877e-05 1.73321)
(14.4575 -0.000118591 1.73273)
(14.4575 -0.000207324 1.73276)
(14.4575 -0.000236497 1.73279)
(14.4581 -0.000372406 1.73276)
(14.4571 -0.00024517 1.73325)
(12.4269 4.16739e-05 5.24093)
(12.4275 -4.67873e-06 5.24042)
(12.4274 -0.000197235 5.24049)
(12.4274 -0.000195471 5.24051)
(12.4279 -0.00035599 5.24058)
(12.4261 -0.000219789 5.24124)
(5.25678 -0.000146961 9.76275)
(5.2586 -0.000108433 9.76201)
(5.25819 8.34535e-05 9.76225)
(5.25808 0.000261622 9.76228)
(5.25837 0.000466667 9.7621)
(5.25589 0.000298618 9.76321)
(0.3277 2.66037e-06 -1.92918)
(0.327704 6.32441e-06 -1.92919)
(0.327702 5.0721e-06 -1.92918)
(0.327702 2.31353e-06 -1.92918)
(0.327702 2.26511e-06 -1.92918)
(0.327702 1.45678e-06 -1.92917)
(0.891767 4.54543e-06 -2.15123)
(0.891796 1.68436e-05 -2.15123)
(0.891795 6.0428e-06 -2.15122)
(0.891794 5.171e-06 -2.15122)
(0.891791 -6.00873e-08 -2.15122)
(0.891789 7.21169e-06 -2.15121)
(1.48536 7.50663e-06 -2.45241)
(1.48541 1.04681e-05 -2.45242)
(1.48541 7.04115e-06 -2.45239)
(1.48541 3.49814e-06 -2.45239)
(1.4854 8.61886e-06 -2.4524)
(1.4854 7.98446e-06 -2.45237)
(2.78244 2.35064e-05 -3.40023)
(2.78254 9.08236e-06 -3.40028)
(2.78254 2.27052e-05 -3.40024)
(2.78253 9.21405e-06 -3.40024)
(2.78253 2.40268e-05 -3.40024)
(2.78253 -1.72422e-06 -3.40021)
(4.69765 6.19428e-05 -3.81446)
(4.69787 2.99093e-05 -3.81462)
(4.69784 7.28086e-05 -3.81459)
(4.69784 3.65327e-05 -3.81459)
(4.69782 6.80509e-05 -3.81459)
(4.69779 -2.79062e-06 -3.81456)
(5.26112 4.97421e-05 -3.97201)
(5.26152 -1.86358e-05 -3.97222)
(5.26154 8.49336e-05 -3.97218)
(5.26154 3.4378e-05 -3.97214)
(5.26152 7.61109e-05 -3.97214)
(5.26143 -1.39093e-05 -3.97206)
(5.98036 3.86758e-05 -2.62089)
(5.98034 -5.8876e-05 -2.62111)
(5.98032 -1.94386e-05 -2.62108)
(5.98032 -9.79685e-05 -2.62102)
(5.98042 -7.4647e-05 -2.62111)
(5.98026 -0.000110319 -2.62117)
(5.87418 0.000117048 -4.44357)
(5.87448 -3.71749e-06 -4.44376)
(5.8741 -0.000208417 -4.44376)
(5.87397 -0.000119687 -4.44379)
(5.8744 -9.83632e-05 -4.44405)
(5.87415 -0.000143475 -4.44405)
(3.11785 8.75094e-05 -4.44896)
(3.11843 3.36186e-05 -4.44916)
(3.1178 -0.000177263 -4.44912)
(3.11759 -5.00598e-05 -4.44917)
(3.1184 -0.000144419 -4.44976)
(3.11826 -0.000180331 -4.44952)
(3.07939 6.31721e-05 3.03324)
(3.07939 3.35656e-05 3.03264)
(3.07903 -0.000146459 3.03276)
(3.07901 -0.000106447 3.03276)
(3.07989 -0.000379022 3.0325)
(3.07942 -0.000319698 3.03301)
(4.94995 0.000218718 9.83839)
(4.95097 0.000200283 9.83781)
(4.9505 -0.00014029 9.83788)
(4.95047 -0.000126274 9.83795)
(4.95125 -0.000496214 9.83791)
(4.94953 -0.000408653 9.83865)
(1.6924 -1.41469e-05 14.5391)
(1.69389 0.000169997 14.5395)
(1.6936 0.000341158 14.5397)
(1.69348 0.000364893 14.5397)
(1.69368 0.000487043 14.5397)
(1.69207 0.000295525 14.5397)
(0.0728368 7.68998e-06 -2.56394)
(0.0728503 1.27338e-05 -2.56395)
(0.0728534 7.86498e-06 -2.56394)
(0.072854 5.64483e-06 -2.56394)
(0.0728535 3.77634e-06 -2.56394)
(0.072862 3.20801e-06 -2.56394)
(0.278593 6.88761e-06 -2.43036)
(0.278615 1.25397e-05 -2.43037)
(0.278617 3.25068e-06 -2.43037)
(0.278616 2.77843e-06 -2.43037)
(0.278609 -4.13239e-06 -2.43038)
(0.278634 8.60668e-07 -2.43035)
(1.70373 1.90165e-05 -3.8114)
(1.70384 -1.78664e-05 -3.81137)
(1.70385 1.25108e-05 -3.81135)
(1.70385 -5.06077e-06 -3.81135)
(1.70385 4.59974e-06 -3.81135)
(1.70385 -3.08205e-05 -3.81131)
(3.05504 2.70973e-05 -4.5959)
(3.05515 1.83951e-06 -4.59606)
(3.05516 7.23831e-05 -4.59603)
(3.05516 4.59039e-05 -4.59602)
(3.05518 9.34746e-05 -4.596)
(3.05524 1.15395e-05 -4.59595)
(3.91774 0.000162373 -4.20605)
(3.91848 0.0001825 -4.20619)
(3.91855 0.000187335 -4.20618)
(3.91858 9.31981e-05 -4.20614)
(3.91863 8.60591e-05 -4.20607)
(3.9187 -1.34837e-05 -4.20595)
(1.84678 -6.97249e-06 -2.52054)
(1.84734 -0.000110263 -2.52083)
(1.84751 -9.02107e-06 -2.52068)
(1.84753 -1.10271e-05 -2.52058)
(1.84755 1.24146e-05 -2.52062)
(1.84738 -2.61712e-05 -2.52048)
(-0.40652 -4.39269e-05 -1.30502)
(-0.406371 -4.29689e-05 -1.30487)
(-0.406518 -2.0972e-05 -1.30475)
(-0.406495 8.74805e-05 -1.30471)
(-0.406168 0.000104414 -1.30496)
(-0.406016 1.60887e-05 -1.30542)
(-1.16622 -5.36715e-06 -2.13645)
(-1.16641 3.92674e-05 -2.13616)
(-1.16651 5.92681e-07 -2.13625)
(-1.16649 4.51526e-05 -2.13641)
(-1.16607 -4.82424e-05 -2.13677)
(-1.16606 -0.000125764 -2.13722)
(-3.31414 7.62926e-05 -0.182424)
(-3.31433 0.000102567 -0.182424)
(-3.31463 1.98042e-05 -0.182674)
(-3.31464 0.000159117 -0.182852)
(-3.31412 -3.99426e-05 -0.183069)
(-3.31437 -0.000180509 -0.183236)
(-3.33207 0.000194471 4.72523)
(-3.3321 0.000301365 4.72504)
(-3.33238 0.0001559 4.72492)
(-3.3323 0.000211665 4.72498)
(-3.33159 -6.3916e-05 4.72498)
(-3.33216 -0.000185078 4.72509)
(-1.29901 0.000192158 11.3597)
(-1.29825 0.0003535 11.3597)
(-1.29854 0.000253708 11.3597)
(-1.29845 0.000231528 11.36)
(-1.29777 1.83948e-05 11.3601)
(-1.29865 -8.64589e-05 11.3603)
(0.468679 -0.000109834 12.2438)
(0.469117 7.526e-05 12.2447)
(0.469034 0.000302466 12.2448)
(0.468999 0.000216449 12.245)
(0.46911 0.000195538 12.2454)
(0.46862 9.62021e-05 12.245)
(0.00109761 2.61609e-07 0.00111108)
(0.00109774 3.01794e-07 0.00111107)
(0.00109778 9.13612e-08 0.00111104)
(0.00109782 -6.41403e-09 0.001111)
(0.00109785 -9.79069e-08 0.00111097)
(0.00109786 -3.96918e-08 0.00111088)
(0.00333456 9.17653e-08 0.00115311)
(0.00333486 7.00284e-08 0.00115311)
(0.00333492 -6.08927e-08 0.00115308)
(0.00333498 -1.47361e-07 0.00115305)
(0.00333502 -2.53302e-07 0.00115302)
(0.00333494 -1.23601e-07 0.00115294)
(0.00569158 -7.89212e-08 0.00123306)
(0.005692 -1.24379e-07 0.00123307)
(0.00569202 -1.26075e-07 0.00123306)
(0.00569204 -1.79826e-07 0.00123304)
(0.00569202 -2.22186e-07 0.00123303)
(0.00569177 -1.00179e-07 0.00123296)
(0.0082349 -2.87187e-07 0.00134114)
(0.0082354 -3.30373e-07 0.00134119)
(0.00823536 -1.16837e-07 0.00134119)
(0.00823532 -1.12547e-07 0.0013412)
(0.00823524 -8.78096e-08 0.00134121)
(0.00823482 -2.44304e-08 0.00134119)
(0.0110073 -4.45071e-07 0.00145988)
(0.0110078 -4.24586e-07 0.00145999)
(0.0110076 1.54831e-08 0.00146002)
(0.0110075 6.79936e-08 0.00146007)
(0.0110074 1.57605e-07 0.00146012)
(0.0110068 1.10761e-07 0.00146016)
(0.0140056 -4.7632e-07 0.00156068)
(0.014006 -3.24633e-07 0.00156089)
(0.0140058 2.76513e-07 0.00156097)
(0.0140057 3.40085e-07 0.00156105)
(0.0140055 4.60977e-07 0.00156114)
(0.0140048 2.72978e-07 0.0015612)
(0.017166 -3.37697e-07 0.00161618)
(0.0171663 -3.62918e-08 0.00161651)
(0.0171661 5.53129e-07 0.00161662)
(0.0171659 5.68279e-07 0.00161672)
(0.0171658 6.54547e-07 0.00161681)
(0.0171651 3.65371e-07 0.00161684)
(0.0202672 -2.8916e-08 0.00165802)
(0.0202674 3.69087e-07 0.00165847)
(0.0202673 7.59374e-07 0.00165859)
(0.0202672 7.01942e-07 0.00165864)
(0.0202672 6.83373e-07 0.00165863)
(0.0202666 3.68687e-07 0.00165855)
(0.0226873 3.6562e-07 0.00170074)
(0.0226876 8.24614e-07 0.00170123)
(0.0226875 8.15399e-07 0.00170133)
(0.0226876 6.03516e-07 0.00170129)
(0.0226879 4.42526e-07 0.00170118)
(0.0226874 2.15354e-07 0.00170095)
(0.0228733 5.86756e-07 0.00131005)
(0.0228737 9.66084e-07 0.00131053)
(0.0228738 5.73817e-07 0.00131061)
(0.0228741 2.43885e-07 0.0013105)
(0.0228745 -1.05946e-08 0.0013103)
(0.0228742 -4.44926e-08 0.00130997)
(0.0204372 5.25816e-07 -0.000791271)
(0.0204378 6.45059e-07 -0.000791293)
(0.0204381 1.01031e-07 -0.000791345)
(0.0204384 -2.39472e-07 -0.000791505)
(0.0204388 -5.18818e-07 -0.00079175)
(0.0204386 -3.3066e-07 -0.000792044)
(0.0104008 -2.62537e-08 -0.00533576)
(0.0104012 -1.92321e-07 -0.00533635)
(0.0104014 -4.04839e-07 -0.00533652)
(0.0104016 -4.35517e-07 -0.00533665)
(0.0104018 -5.55501e-07 -0.00533676)
(0.0104016 -2.72786e-07 -0.00533668)
(0.00107979 1.63598e-07 0.00324933)
(0.0010799 1.39013e-07 0.00324937)
(0.00107992 -3.39685e-08 0.00324934)
(0.00107996 -1.40055e-07 0.00324928)
(0.00107998 -2.54752e-07 0.00324925)
(0.00107998 -1.42706e-07 0.00324908)
(0.003286 3.09748e-08 0.0033793)
(0.00328626 -2.0729e-08 0.00337935)
(0.00328629 -1.42846e-07 0.00337932)
(0.00328634 -2.47535e-07 0.00337927)
(0.00328636 -3.57311e-07 0.00337925)
(0.00328625 -2.00182e-07 0.00337908)
(0.00562834 -8.15467e-08 0.00362889)
(0.00562868 -1.4353e-07 0.00362898)
(0.00562868 -1.66996e-07 0.00362896)
(0.00562868 -2.40069e-07 0.00362894)
(0.00562864 -2.86842e-07 0.00362894)
(0.00562835 -1.51193e-07 0.0036288)
(0.00818552 -2.06967e-07 0.00397042)
(0.00818592 -2.43199e-07 0.00397058)
(0.00818586 -1.0266e-07 0.00397059)
(0.00818579 -1.30205e-07 0.00397062)
(0.00818568 -9.27915e-08 0.00397066)
(0.00818521 -2.87896e-08 0.00397058)
(0.0110125 -2.782e-07 0.00434323)
(0.0110128 -2.43491e-07 0.00434352)
(0.0110127 6.47244e-08 0.00434359)
(0.0110125 9.30325e-08 0.00434369)
(0.0110124 2.29644e-07 0.00434379)
(0.0110117 1.66023e-07 0.00434376)
(0.014098 -2.56017e-07 0.00462212)
(0.0140983 -8.94198e-08 0.00462263)
(0.014098 3.24657e-07 0.00462278)
(0.0140978 3.68856e-07 0.00462293)
(0.0140976 5.57533e-07 0.00462306)
(0.0140969 3.44175e-07 0.00462302)
(0.0172787 -1.02797e-07 0.00454935)
(0.0172788 1.87327e-07 0.00455012)
(0.0172785 6.00525e-07 0.0045503)
(0.0172784 6.46785e-07 0.00455044)
(0.0172783 8.03283e-07 0.0045505)
(0.0172776 4.6003e-07 0.00455034)
(0.0202365 2.33626e-07 0.00357564)
(0.0202365 6.25815e-07 0.00357657)
(0.0202363 7.91583e-07 0.00357675)
(0.0202363 7.33296e-07 0.00357674)
(0.0202365 7.52996e-07 0.00357661)
(0.020236 4.05534e-07 0.00357622)
(0.0227453 5.12969e-07 0.000727016)
(0.0227453 9.8791e-07 0.000727999)
(0.0227451 8.51531e-07 0.000728133)
(0.0227454 6.27828e-07 0.000727967)
(0.0227458 4.28187e-07 0.000727628)
(0.0227456 1.57357e-07 0.000727065)
(0.0246579 6.80386e-07 -0.0052877)
(0.0246576 1.08996e-06 -0.00528679)
(0.0246576 6.19409e-07 -0.00528667)
(0.0246579 2.11125e-07 -0.0052869)
(0.0246586 -2.21526e-07 -0.00528737)
(0.0246585 -2.49829e-07 -0.00528786)
(0.0247075 4.00471e-07 -0.0138982)
(0.024707 4.70683e-07 -0.0138983)
(0.0247069 4.43052e-08 -0.0138983)
(0.0247072 -3.12171e-07 -0.0138986)
(0.0247079 -8.03048e-07 -0.0138992)
(0.024708 -5.89861e-07 -0.0138995)
(0.0168068 -4.87009e-07 -0.0287375)
(0.0168068 -8.45024e-07 -0.0287391)
(0.0168068 -6.88144e-07 -0.0287393)
(0.0168069 -4.7991e-07 -0.0287395)
(0.0168072 -5.80887e-07 -0.0287395)
(0.0168071 -3.29442e-07 -0.0287387)
(0.00101663 1.08707e-07 0.00527085)
(0.00101672 7.67961e-08 0.005271)
(0.00101674 -7.09142e-08 0.00527099)
(0.00101676 -1.69959e-07 0.00527097)
(0.00101678 -2.52978e-07 0.00527097)
(0.00101676 -1.39039e-07 0.00527078)
(0.0031053 6.61568e-09 0.0055044)
(0.00310551 -5.04262e-08 0.00550457)
(0.00310554 -1.56926e-07 0.00550455)
(0.00310556 -2.49229e-07 0.00550454)
(0.00310556 -3.32532e-07 0.00550455)
(0.00310544 -1.82333e-07 0.00550436)
(0.00536205 -7.00094e-08 0.00596085)
(0.00536233 -1.27819e-07 0.00596106)
(0.00536232 -1.59601e-07 0.00596105)
(0.00536229 -2.28752e-07 0.00596106)
(0.00536224 -2.61991e-07 0.00596109)
(0.00536195 -1.34177e-07 0.0059609)
(0.00790656 -1.39994e-07 0.00660887)
(0.00790689 -1.6774e-07 0.00660915)
(0.00790682 -8.3279e-08 0.00660917)
(0.00790674 -1.14204e-07 0.00660922)
(0.00790664 -8.38975e-08 0.00660927)
(0.00790619 -2.44525e-08 0.00660909)
(0.0108731 -1.50625e-07 0.00736981)
(0.0108734 -1.04486e-07 0.00737024)
(0.0108733 8.04683e-08 0.00737031)
(0.0108731 8.29789e-08 0.0073704)
(0.010873 1.84767e-07 0.00737048)
(0.0108724 1.36733e-07 0.00737027)
(0.0144337 -5.7646e-08 0.00808124)
(0.0144339 9.34099e-08 0.00808191)
(0.0144337 3.07661e-07 0.00808202)
(0.0144336 3.27188e-07 0.00808212)
(0.0144335 4.37448e-07 0.00808218)
(0.0144329 2.68037e-07 0.00808187)
(0.018901 1.66694e-07 0.00846581)
(0.0189012 4.24777e-07 0.00846671)
(0.018901 5.16711e-07 0.00846681)
(0.018901 5.1131e-07 0.00846682)
(0.0189011 5.73333e-07 0.00846673)
(0.0189006 3.26236e-07 0.00846619)
(0.024697 4.03586e-07 0.00814339)
(0.0246973 7.55482e-07 0.00814441)
(0.0246973 6.43003e-07 0.00814446)
(0.0246975 5.21968e-07 0.00814428)
(0.0246978 4.4256e-07 0.00814398)
(0.0246974 2.28884e-07 0.0081432)
(0.0317216 5.11967e-07 0.00662473)
(0.0317218 8.8211e-07 0.00662604)
(0.0317218 5.9122e-07 0.00662611)
(0.0317221 3.29084e-07 0.00662584)
(0.0317227 4.11344e-08 0.00662537)
(0.0317222 -4.78726e-08 0.00662449)
(0.0367448 4.05229e-07 0.00298175)
(0.0367442 6.4999e-07 0.00298353)
(0.0367439 2.89574e-07 0.00298385)
(0.0367441 -3.54312e-08 0.00298368)
(0.0367447 -4.29e-07 0.00298316)
(0.0367442 -3.13842e-07 0.00298233)
(0.0394724 -7.72332e-08 -0.00645912)
(0.039471 -9.40335e-08 -0.00645832)
(0.0394702 -1.50309e-07 -0.0064578)
(0.0394701 -2.98062e-07 -0.0064577)
(0.0394706 -6.42312e-07 -0.00645818)
(0.0394704 -3.93295e-07 -0.006459)
(0.0243569 -1.45969e-06 -0.0251538)
(0.0243564 -1.72929e-06 -0.025155)
(0.0243559 -6.53557e-07 -0.0251547)
(0.0243556 2.70409e-07 -0.0251544)
(0.0243557 5.11278e-07 -0.0251542)
(0.0243555 4.77904e-07 -0.0251534)
(0.000900286 5.41013e-08 0.0070906)
(0.000900355 2.19862e-08 0.00709083)
(0.000900369 -8.62342e-08 0.00709082)
(0.000900384 -1.70117e-07 0.00709082)
(0.000900392 -2.23808e-07 0.00709083)
(0.000900372 -1.22222e-07 0.00709058)
(0.00276453 -1.53989e-08 0.00744959)
(0.00276469 -6.94356e-08 0.00744984)
(0.00276471 -1.48386e-07 0.00744984)
(0.00276472 -2.22994e-07 0.00744984)
(0.00276471 -2.80934e-07 0.00744986)
(0.00276459 -1.5105e-07 0.00744961)
(0.00482707 -6.05156e-08 0.00816546)
(0.00482729 -1.13085e-07 0.00816576)
(0.00482727 -1.44257e-07 0.00816577)
(0.00482724 -2.0147e-07 0.00816579)
(0.00482719 -2.22769e-07 0.00816582)
(0.00482693 -1.11335e-07 0.00816555)
(0.00724826 -9.02402e-08 0.00922327)
(0.00724852 -1.16555e-07 0.00922366)
(0.00724846 -7.91999e-08 0.00922369)
(0.00724839 -1.10946e-07 0.00922372)
(0.00724831 -8.83846e-08 0.00922377)
(0.00724792 -2.80871e-08 0.00922347)
(0.0102249 -5.95211e-08 0.0105641)
(0.0102252 -2.57777e-08 0.0105646)
(0.0102251 5.04938e-08 0.0105647)
(0.010225 3.2287e-08 0.0105647)
(0.0102249 9.77817e-08 0.0105648)
(0.0102244 8.4701e-08 0.0105644)
(0.0139528 7.46311e-08 0.0120142)
(0.0139531 1.71149e-07 0.012015)
(0.013953 2.05112e-07 0.012015)
(0.013953 2.0984e-07 0.012015)
(0.013953 2.63688e-07 0.012015)
(0.0139525 1.62405e-07 0.0120145)
(0.0184937 2.70178e-07 0.013116)
(0.0184942 4.32239e-07 0.0131168)
(0.0184942 3.42574e-07 0.0131168)
(0.0184943 3.167e-07 0.0131168)
(0.0184945 2.96609e-07 0.0131166)
(0.0184941 1.4946e-07 0.0131158)
(0.0236947 3.4983e-07 0.0128453)
(0.0236956 5.12849e-07 0.0128462)
(0.0236958 3.1403e-07 0.0128461)
(0.0236961 2.00926e-07 0.0128459)
(0.0236965 4.84632e-08 0.0128455)
(0.023696 -3.71125e-08 0.0128446)
(0.0294963 2.16166e-07 0.00892008)
(0.0294972 2.62988e-07 0.00892132)
(0.0294973 7.02613e-08 0.00892129)
(0.0294976 -8.39099e-08 0.00892101)
(0.0294981 -3.32909e-07 0.0089206)
(0.0294975 -2.84519e-07 0.00891975)
(0.0377137 -5.93788e-08 -0.00386561)
(0.0377137 -1.22121e-07 -0.00386387)
(0.0377132 -8.30051e-08 -0.00386351)
(0.0377132 -2.04788e-07 -0.00386359)
(0.0377136 -4.52656e-07 -0.00386401)
(0.0377129 -3.5338e-07 -0.00386452)
(0.0460192 -2.62189e-07 -0.0394367)
(0.0460186 -1.63874e-07 -0.0394369)
(0.0460171 5.48863e-07 -0.0394361)
(0.046016 5.96001e-07 -0.0394357)
(0.0460159 2.65628e-07 -0.039436)
(0.0460156 -9.66267e-08 -0.0394357)
(0.0477829 -7.01437e-07 -0.109547)
(0.0477846 -7.48617e-07 -0.109553)
(0.0477835 5.6186e-07 -0.109553)
(0.047782 1.60941e-06 -0.10955)
(0.0477812 2.03411e-06 -0.109548)
(0.0477798 9.17436e-07 -0.109542)
(-0.593603 2.2975e-07 -1.61108)
(-0.593591 1.33699e-06 -1.61108)
(-0.593581 3.668e-06 -1.61107)
(-0.593583 1.64717e-06 -1.61107)
(-0.593592 3.08806e-06 -1.61107)
(-0.593578 4.87449e-06 -1.61107)
(-3.08963 1.19136e-05 -1.84007)
(-3.08965 1.30128e-05 -1.8401)
(-3.08963 7.59048e-06 -1.84009)
(-3.08963 8.1897e-06 -1.84009)
(-3.08964 2.1002e-05 -1.84008)
(-3.08962 1.8205e-05 -1.84011)
(-3.97694 1.51046e-05 11.3983)
(-3.97694 1.95204e-05 11.3983)
(-3.97692 1.51612e-05 11.3983)
(-3.97692 1.60445e-05 11.3983)
(-3.97693 2.95915e-05 11.3983)
(-3.9769 2.2093e-05 11.3983)
(-1.42064 3.19862e-05 -3.69791)
(-1.42065 -5.18929e-05 -3.69792)
(-1.42064 3.26296e-05 -3.69792)
(-1.42064 -1.37535e-05 -3.69791)
(-1.42066 2.30155e-05 -3.69791)
(-1.4206 -7.5332e-05 -3.69787)
(-8.19519 9.66557e-05 -5.05734)
(-8.19524 -0.000114394 -5.0574)
(-8.19523 0.000125585 -5.0574)
(-8.19523 -7.9505e-06 -5.05732)
(-8.19521 0.000164727 -5.05721)
(-8.19519 -0.000121273 -5.05733)
(-10.3936 -1.56766e-05 -10.3231)
(-10.3936 -4.74403e-05 -10.3231)
(-10.3936 -7.48955e-05 -10.3231)
(-10.3936 -8.46083e-05 -10.3231)
(-10.3936 -6.97732e-05 -10.3231)
(-10.3935 -1.77142e-05 -10.3231)
(1.75211 4.57089e-05 -5.14694)
(1.75208 -3.91971e-05 -5.14708)
(1.75206 5.46092e-05 -5.1471)
(1.75207 1.17218e-06 -5.14708)
(1.75209 7.90723e-05 -5.14708)
(1.75208 -4.356e-05 -5.14715)
(-0.0829575 -2.58493e-05 -3.88204)
(-0.0830441 5.04658e-06 -3.88227)
(-0.0830998 3.95151e-05 -3.88232)
(-0.0830672 4.50569e-05 -3.88233)
(-0.0829755 9.62125e-05 -3.88239)
(-0.0829866 8.96522e-05 -3.8825)
(-2.33476 2.27426e-05 -6.08937)
(-2.33481 3.34064e-05 -6.08942)
(-2.3348 2.43878e-05 -6.08938)
(-2.33477 2.58139e-05 -6.08938)
(-2.33471 1.15854e-05 -6.08944)
(-2.33467 4.91834e-06 -6.08937)
(-0.281387 0.000105227 -3.70989)
(-0.281045 0.00017315 -3.71037)
(-0.281011 0.000163527 -3.71036)
(-0.280955 8.02192e-05 -3.71035)
(-0.280852 5.79154e-05 -3.71028)
(-0.280552 8.61098e-06 -3.71017)
(-4.99676 9.02163e-05 -2.69237)
(-4.99706 0.000123202 -2.69247)
(-4.99704 6.03149e-05 -2.69246)
(-4.99704 3.78249e-05 -2.69248)
(-4.99699 2.15739e-05 -2.69253)
(-4.99669 2.62233e-05 -2.69256)
(-3.16956 1.22032e-06 -3.40268)
(-3.16971 4.65455e-06 -3.40267)
(-3.16976 3.46417e-06 -3.40261)
(-3.16978 5.33321e-06 -3.4026)
(-3.16976 1.4923e-05 -3.4026)
(-3.16974 1.68972e-05 -3.40254)
(-1.06876 4.28681e-05 -2.38343)
(-1.06811 -2.07562e-05 -2.38374)
(-1.06792 -1.2518e-05 -2.38369)
(-1.06781 -5.03019e-05 -2.38366)
(-1.06767 -8.30044e-05 -2.3837)
(-1.06755 -8.96239e-05 -2.38362)
(-3.17617 5.1437e-05 -1.0992)
(-3.17643 3.41299e-05 -1.09901)
(-3.17639 -1.29046e-05 -1.09896)
(-3.17641 -9.61138e-06 -1.0989)
(-3.17641 -1.87528e-05 -1.09884)
(-3.17614 -1.29689e-05 -1.09894)
(-2.11539 -2.48671e-05 -2.96313)
(-2.11553 -2.96852e-05 -2.96312)
(-2.11558 -2.27129e-05 -2.96308)
(-2.11562 -2.72857e-05 -2.96305)
(-2.11565 3.08617e-06 -2.96304)
(-2.1156 1.99676e-05 -2.96297)
(-3.60533 -0.000105196 -0.376514)
(-3.60549 -0.000127951 -0.376336)
(-3.60543 -6.83215e-05 -0.376206)
(-3.60535 -1.42968e-05 -0.376092)
(-3.60528 1.90703e-05 -0.376131)
(-3.60515 3.93107e-06 -0.376432)
(-2.8181 -5.13715e-05 -1.28888)
(-2.81834 -5.81279e-05 -1.28876)
(-2.81838 -4.72988e-05 -1.2887)
(-2.81842 -2.21938e-05 -1.2886)
(-2.81842 2.10079e-05 -1.28852)
(-2.81822 3.2618e-05 -1.28854)
(-1.18231 -9.74249e-06 -2.16216)
(-1.18241 -1.49234e-05 -2.16216)
(-1.18243 -1.54418e-05 -2.16213)
(-1.18247 -1.63895e-05 -2.1621)
(-1.18251 -1.77786e-06 -2.16209)
(-1.18245 7.68048e-06 -2.16208)
(-2.24711 -3.67291e-05 -1.17638)
(-2.24747 3.76824e-05 -1.17624)
(-2.24737 0.000124333 -1.17616)
(-2.24725 0.000132028 -1.17608)
(-2.24711 0.000166312 -1.17614)
(-2.24674 7.64748e-05 -1.17648)
(-1.84717 -9.73417e-06 -1.5237)
(-1.84733 -9.65118e-06 -1.5236)
(-1.84732 1.37787e-05 -1.52356)
(-1.84728 3.06811e-05 -1.52352)
(-1.84727 7.59525e-05 -1.52353)
(-1.8471 5.37505e-05 -1.52365)
(-1.1747 -5.24984e-06 -1.79746)
(-1.17478 -1.09995e-05 -1.79744)
(-1.17479 -5.29716e-07 -1.79743)
(-1.17478 7.38778e-06 -1.79744)
(-1.17478 1.9942e-05 -1.79746)
(-1.17469 1.35166e-05 -1.79749)
(-3.54209 2.77585e-05 -1.75286)
(-3.54249 0.000125086 -1.7525)
(-3.54231 0.000170299 -1.75254)
(-3.54217 0.000171137 -1.7526)
(-3.542 0.000139053 -1.75272)
(-3.54176 4.56622e-05 -1.75314)
(-2.43737 -5.65144e-06 -0.508044)
(-2.4376 2.98427e-05 -0.507794)
(-2.43758 8.23898e-05 -0.507766)
(-2.43754 8.81275e-05 -0.507796)
(-2.43752 0.000110162 -0.507867)
(-2.43728 6.86602e-05 -0.508095)
(-1.02999 -1.02394e-05 -0.570639)
(-1.03008 -2.0613e-05 -0.570492)
(-1.0301 -4.64857e-06 -0.570478)
(-1.0301 8.35438e-06 -0.570496)
(-1.03011 2.3484e-05 -0.570518)
(-1.03003 1.77484e-05 -0.570625)
(-4.45386 0.000118999 -0.0154576)
(-4.45419 0.00019101 -0.0151383)
(-4.45402 0.00011522 -0.0153637)
(-4.4539 9.8296e-05 -0.0154801)
(-4.4537 -9.94331e-06 -0.0154802)
(-4.45358 -6.03028e-05 -0.0160532)
(-2.85266 2.61908e-05 0.573815)
(-2.85287 5.66405e-05 0.57414)
(-2.85281 6.64629e-05 0.574095)
(-2.85277 3.45443e-05 0.57403)
(-2.85279 5.00526e-05 0.574007)
(-2.85256 4.98615e-05 0.573633)
(-1.11215 -1.20938e-05 0.716675)
(-1.11223 -1.26142e-05 0.716864)
(-1.11225 7.47439e-06 0.716858)
(-1.11226 5.8519e-06 0.716825)
(-1.11229 2.60656e-05 0.7168)
(-1.11221 2.76392e-05 0.71663)
(-4.52355 0.000116917 3.74203)
(-4.52364 0.0001777 3.74221)
(-4.5236 8.27894e-05 3.74209)
(-4.52351 7.17225e-05 3.7422)
(-4.5233 -5.04181e-05 3.74261)
(-4.52338 -9.11052e-05 3.74211)
(-2.81225 3.55483e-05 2.68637)
(-2.81234 9.36993e-06 2.68663)
(-2.81232 -6.64467e-05 2.68661)
(-2.81234 -0.000118889 2.68666)
(-2.81244 -9.4003e-05 2.6869)
(-2.8123 -1.52973e-05 2.68643)
(-0.900738 -7.42435e-07 2.3032)
(-0.900795 -2.84118e-05 2.30339)
(-0.900825 -5.19984e-05 2.30341)
(-0.900867 -7.30267e-05 2.30341)
(-0.900936 -4.07006e-05 2.30345)
(-0.900888 7.09509e-06 2.30324)
(-2.43178 4.41232e-05 7.72902)
(-2.43166 9.96057e-05 7.72939)
(-2.43168 6.44936e-05 7.72957)
(-2.43162 1.91352e-05 7.72995)
(-2.43145 -5.69858e-05 7.73067)
(-2.43161 -6.30222e-05 7.73023)
(-1.24236 -1.70194e-05 4.62474)
(-1.24238 -0.000102724 4.6251)
(-1.24238 -0.000193244 4.62523)
(-1.24242 -0.000238792 4.62545)
(-1.24247 -0.000187917 4.62597)
(-1.24244 -5.86847e-05 4.6255)
(-0.369865 -1.9714e-05 3.40359)
(-0.369896 -8.53267e-05 3.4038)
(-0.369918 -0.000136283 3.40386)
(-0.369947 -0.000158999 3.40392)
(-0.369979 -0.000113882 3.40405)
(-0.369985 -2.62401e-05 3.4038)
(1.30165 -9.9844e-05 8.3659)
(1.30178 -0.000108384 8.36674)
(1.30178 -5.17342e-05 8.36693)
(1.3018 -8.54042e-05 8.36723)
(1.30184 -6.74128e-05 8.36779)
(1.30172 -2.50429e-05 8.36742)
(1.39367 -5.22313e-05 5.18884)
(1.39374 -0.000138305 5.18929)
(1.39376 -0.000188232 5.18941)
(1.39378 -0.000204397 5.1896)
(1.39384 -0.000153685 5.18996)
(1.39374 -4.71828e-05 5.18958)
(0.600944 -2.55088e-05 3.70053)
(0.600977 -8.3904e-05 3.70074)
(0.600987 -0.000125046 3.70079)
(0.601 -0.000135062 3.70084)
(0.601033 -0.000102496 3.70093)
(0.600958 -3.09353e-05 3.70069)
(0.426104 -1.465e-06 0.0912581)
(0.426123 -7.17388e-07 0.0912622)
(0.426123 4.30054e-07 0.0912622)
(0.426121 2.1124e-06 0.091262)
(0.426119 2.06481e-06 0.0912616)
(0.4261 2.00344e-06 0.0912574)
(0.386535 -1.40605e-06 0.278152)
(0.386553 -1.8496e-06 0.278164)
(0.386554 -2.33211e-07 0.278164)
(0.386553 8.73266e-07 0.278164)
(0.386553 1.68416e-06 0.278163)
(0.386536 1.41637e-06 0.278151)
(0.159703 -6.45784e-07 0.45933)
(0.15971 -1.11217e-06 0.459348)
(0.15971 -4.91469e-07 0.459348)
(0.15971 -5.34809e-08 0.459348)
(0.15971 6.52723e-07 0.459347)
(0.159704 5.89594e-07 0.459329)
(0.561328 -2.81739e-07 0.108944)
(0.561356 8.30422e-07 0.108949)
(0.561357 1.4703e-06 0.108948)
(0.561354 3.84783e-06 0.108947)
(0.56135 3.27158e-06 0.108946)
(0.561322 2.70674e-06 0.108941)
(0.548619 -1.39385e-06 0.376192)
(0.548646 -3.29652e-06 0.376207)
(0.548649 -2.0245e-06 0.376207)
(0.548648 5.1154e-07 0.376206)
(0.548647 2.30518e-06 0.376205)
(0.548621 2.18607e-06 0.376188)
(0.231927 -7.90708e-07 0.651397)
(0.231937 -1.95071e-06 0.651424)
(0.231939 -1.33643e-06 0.651425)
(0.231938 -3.60992e-07 0.651424)
(0.231938 1.00126e-06 0.651423)
(0.231928 9.96905e-07 0.651397)
(0.741276 1.46136e-06 0.101895)
(0.741315 3.41916e-06 0.101896)
(0.741316 3.35245e-06 0.101892)
(0.741312 5.90472e-06 0.101889)
(0.741307 5.17495e-06 0.101887)
(0.741266 3.62924e-06 0.101881)
(0.799906 -7.91805e-07 0.493416)
(0.799948 -5.76762e-06 0.493434)
(0.799954 -7.59256e-06 0.493431)
(0.799956 -3.33119e-06 0.493428)
(0.799954 1.21324e-06 0.493426)
(0.799911 2.69091e-06 0.493402)
(0.338915 -8.51246e-07 0.919165)
(0.338932 -3.82331e-06 0.919204)
(0.338935 -4.25792e-06 0.919207)
(0.338936 -2.17826e-06 0.919205)
(0.338936 7.08462e-07 0.919201)
(0.338918 1.27326e-06 0.919163)
(0.803991 3.57054e-06 0.0509401)
(0.804035 5.98845e-06 0.0509375)
(0.804037 3.53092e-06 0.0509298)
(0.804033 8.51691e-06 0.0509226)
(0.804025 7.97217e-06 0.0509157)
(0.80398 6.35459e-06 0.0509101)
(1.14289 -2.14794e-06 0.623471)
(1.14297 -1.52334e-05 0.62349)
(1.14298 -2.48051e-05 0.623484)
(1.14299 -1.83024e-05 0.623479)
(1.14299 -5.83885e-06 0.623475)
(1.14293 2.85575e-06 0.623444)
(0.499878 -6.74347e-07 1.29361)
(0.499909 -7.99611e-06 1.29367)
(0.499916 -1.25488e-05 1.29367)
(0.499921 -9.62562e-06 1.29367)
(0.499923 -2.53548e-06 1.29367)
(0.499894 1.32623e-06 1.2936)
(0.878 1.0757e-05 0.39072)
(0.878052 1.94071e-05 0.390769)
(0.878037 5.56918e-06 0.390765)
(0.878015 7.60592e-06 0.390766)
(0.877989 -1.15144e-05 0.390771)
(0.877898 -7.55401e-06 0.39072)
(1.72176 -2.0941e-05 0.926086)
(1.72189 -4.92354e-05 0.926144)
(1.72192 -6.01778e-05 0.926144)
(1.72195 -5.42177e-05 0.926148)
(1.72197 -4.19886e-05 0.926162)
(1.72185 -1.47325e-05 0.926092)
(0.746394 -7.46778e-06 1.77471)
(0.746459 -2.61508e-05 1.77479)
(0.746476 -3.53878e-05 1.7748)
(0.746491 -3.1709e-05 1.7748)
(0.746501 -1.73846e-05 1.7748)
(0.746454 -3.63863e-06 1.7747)
(2.62551 4.94834e-05 2.6506)
(2.62561 7.2032e-05 2.65095)