/*--------------------------------*- C++ -*----------------------------------*\
| =========                 |                                                 |
| \\      /  F ield         | OpenFOAM: The Open Source CFD Toolbox           |
|  \\    /   O peration     | Version:  v1612+                                |
|   \\  /    A nd           | Web:      www.OpenFOAM.com                      |
|    \\/     M anipulation  |                                                 |
\*---------------------------------------------------------------------------*/
FoamFile
{
    version     2.0;
    format      ascii;
    class       surfaceScalarField;
    location    "9.35";
    object      alphaPhi;
}
// * * * * * * * * * * * * * * * * * * * * * * * * * * * * * * * * * * * * * //

dimensions      [0 3 -1 0 0 0 0];

internalField   nonuniform List<scalar> 
816
(
3.30322e-06
-1.15348e-05
7.77907e-06
-2.04733e-05
-1.79988e-05
3.89251e-05
6.41152e-06
1.42506e-06
-1.10984e-05
-2.93968e-06
9.50087e-06
-4.21503e-06
5.98258e-07
-3.98105e-06
3.40829e-06
-7.34684e-06
-1.05097e-05
8.87819e-07
-5.0686e-06
1.68909e-05
9.81279e-09
-5.3817e-09
-1.79008e-06
-3.95605e-09
4.1993e-09
1.16083e-08
-7.22441e-06
-1.23075e-10
7.11207e-10
4.89182e-09
1.14879e-06
-4.24666e-09
1.42929e-08
3.78926e-09
7.62706e-07
1.2509e-08
-1.05337e-08
4.84511e-09
-1.03534e-05
1.28225e-08
-1.22575e-08
-5.41279e-09
-8.49881e-07
6.56182e-09
6.64479e-09
-7.15042e-09
2.38954e-07
6.08369e-09
-3.79052e-09
-2.69352e-09
2.80297e-07
3.62468e-09
-3.91507e-09
-1.80023e-09
1.28151e-06
8.1003e-09
-2.57772e-10
-3.22763e-11
2.32943e-06
-1.59213e-09
2.85337e-09
-3.54254e-09
1.95095e-10
-2.0623e-09
1.7904e-09
6.26407e-07
-4.69641e-09
-3.70672e-09
2.43182e-05
-4.08558e-06
-3.35889e-05
-2.65338e-07
1.11537e-05
4.23778e-05
-4.46824e-05
2.51638e-05
-6.62468e-07
-5.18103e-08
-5.28461e-06
9.95553e-07
5.05883e-05
-5.42022e-06
1.57671e-05
1.45005e-05
-2.30575e-05
1.533e-05
-2.17198e-05
2.18898e-05
-2.3011e-05
-4.07941e-06
-2.57812e-05
1.38262e-05
3.08185e-05
4.32079e-06
-3.39441e-05
1.99082e-05
4.45133e-06
2.53846e-05
-1.24424e-05
-7.22869e-06
-1.32488e-06
7.10033e-06
-5.20508e-05
3.21205e-05
4.31408e-05
2.87695e-05
-2.89555e-05
1.99726e-05
-4.48306e-06
-1.50145e-05
7.69374e-05
1.08312e-05
-3.51084e-05
-1.75194e-05
-3.94021e-06
4.73593e-06
-1.04569e-05
2.36732e-07
-1.65968e-05
1.00639e-06
-2.19138e-05
-1.93981e-05
-1.24382e-05
3.81729e-07
-2.91757e-06
-1.90027e-07
-2.44137e-05
2.94908e-06
6.90077e-06
-4.77489e-06
-9.36216e-06
-9.11637e-06
-1.08134e-05
8.19862e-07
-1.34299e-05
-4.92293e-06
-1.76128e-05
-3.8411e-06
-1.60419e-05
-1.23581e-05
-1.52943e-05
-4.80659e-06
4.40875e-06
-5.63935e-06
-2.40337e-05
-1.5231e-05
-2.24424e-05
-1.57926e-05
-1.3443e-05
-9.34767e-06
1.07946e-05
3.31184e-05
-3.24329e-06
-8.98265e-06
4.58836e-06
-2.10971e-06
1.15194e-06
-6.64027e-06
4.5168e-06
-1.12118e-05
-5.81621e-06
3.07743e-06
1.06508e-06
-6.86614e-06
9.33397e-07
-2.09108e-06
5.56024e-07
-2.3649e-06
6.49946e-07
-5.24434e-06
1.22893e-07
1.03592e-06
-5.04775e-06
-1.02431e-06
-1.41982e-07
-5.87786e-06
-1.19597e-05
-7.64938e-06
-3.77985e-06
-3.24588e-07
-5.38983e-07
-1.31526e-05
-8.55943e-07
2.62238e-06
-2.2491e-06
-6.42432e-07
-4.23879e-06
-4.80246e-06
-2.67652e-06
2.61587e-08
-3.11768e-06
-9.98592e-06
-4.59437e-06
-2.5102e-06
-6.94484e-06
-6.46346e-06
-7.68958e-06
3.0197e-06
-2.10506e-06
-2.45044e-06
-9.57563e-06
-1.26934e-05
-7.0023e-06
-8.94631e-06
-5.60004e-06
-3.70152e-06
5.33711e-06
-1.88631e-06
9.49918e-06
1.7217e-06
-2.59756e-06
-3.87938e-06
3.87254e-09
7.78825e-11
-1.02445e-06
-3.70043e-09
8.02735e-09
-6.75909e-06
-5.77209e-09
9.35023e-09
-4.5073e-06
-1.9038e-09
1.29397e-08
9.83306e-07
-1.48173e-09
4.08521e-09
8.9054e-07
-7.06486e-09
-5.05858e-09
1.21498e-09
-3.89349e-06
-5.49083e-09
-3.23006e-09
2.16499e-06
-6.04899e-09
-1.24313e-08
1.26542e-10
-3.15028e-09
-7.17556e-09
-6.57959e-06
3.24682e-10
4.60324e-09
3.42634e-06
-5.99964e-09
-5.71037e-09
-1.87437e-09
1.02141e-06
-4.83159e-09
-9.97468e-09
3.15513e-11
-5.32083e-09
-3.40138e-09
-2.22866e-06
-1.93573e-09
-3.80493e-09
-2.00149e-06
-2.35918e-09
-5.24147e-10
1.99845e-11
-6.99383e-09
-1.0181e-08
-3.71002e-09
7.99116e-07
-8.31721e-09
-7.37543e-09
7.92181e-07
-7.20329e-09
-4.91842e-09
-6.30078e-07
-6.67192e-09
-1.79772e-09
4.36779e-07
-3.97351e-09
3.05371e-11
-5.30976e-09
-4.39619e-09
-1.40082e-05
1.09741e-05
-5.01437e-06
2.6576e-06
1.78695e-05
-3.13378e-05
-2.98477e-06
1.67421e-05
5.28898e-06
2.03426e-05
1.66495e-05
-8.41855e-06
1.13256e-05
2.28139e-05
6.98946e-05
-4.14818e-05
-3.82993e-05
-3.14614e-06
8.96009e-05
-1.82207e-05
-2.84209e-05
8.78702e-05
-4.80142e-05
-6.05666e-05
0.000112648
-5.19854e-05
-3.68856e-05
-1.24061e-05
-7.43873e-06
4.50395e-05
-2.12202e-05
-2.95757e-05
-2.14009e-05
-3.36863e-06
0.000101779
-2.00999e-05
-3.75296e-05
9.75293e-05
-4.19763e-05
1.49651e-05
-5.63166e-05
-6.40609e-06
3.87524e-06
6.40665e-05
-2.35255e-05
2.97667e-05
7.11217e-05
-5.63878e-05
-3.94838e-05
-6.00075e-06
8.83397e-05
-6.30891e-06
-3.58288e-05
8.48337e-05
-3.14474e-05
-2.63902e-05
2.31578e-05
-2.26841e-05
-2.19496e-06
-1.09106e-05
-6.82684e-06
7.43045e-05
-2.70779e-05
-3.72187e-05
8.80193e-06
-6.93635e-06
-1.10114e-06
-1.1934e-06
-8.06406e-06
-1.49446e-05
1.53646e-06
-7.61534e-06
3.53663e-06
-1.12567e-05
-7.20552e-06
-4.73731e-06
-4.27407e-06
-1.45251e-05
3.23537e-05
2.54483e-05
1.94615e-05
-2.04687e-07
3.9789e-05
1.10938e-05
1.4217e-05
3.86619e-05
2.99817e-05
3.41618e-05
4.90479e-05
3.28399e-05
1.86861e-05
-5.70477e-06
3.84862e-06
-2.73278e-05
-7.54667e-06
2.05829e-05
1.17638e-05
9.87945e-07
4.40844e-05
1.17608e-05
2.11504e-05
4.27701e-05
2.22473e-05
-8.20965e-06
-2.43152e-05
1.77674e-06
-1.51223e-06
2.97168e-05
1.24209e-05
-1.82778e-05
3.16566e-05
3.29561e-05
2.32738e-05
3.03894e-06
3.81177e-05
6.47394e-06
2.05358e-05
3.75758e-05
2.04013e-05
1.45637e-05
1.16427e-05
1.42421e-05
1.23213e-06
-4.38457e-06
4.71895e-06
3.38525e-05
1.46172e-05
2.01415e-05
5.62521e-06
-4.36309e-06
7.35123e-07
-1.44397e-06
-4.18559e-06
-4.81284e-06
-2.9718e-07
-4.43711e-06
3.2206e-06
-7.17528e-06
-3.21501e-06
-2.13084e-06
-4.46498e-06
-7.31545e-06
1.10138e-05
1.37193e-05
1.16531e-05
-2.02378e-07
1.4603e-05
4.95601e-06
7.65208e-06
1.25099e-05
1.60372e-05
1.77158e-05
1.61262e-05
1.80493e-05
9.38766e-06
-1.78443e-06
1.28422e-06
-1.46747e-05
2.01967e-07
1.04126e-05
5.92227e-06
1.03835e-06
1.24928e-05
5.89184e-06
1.13077e-05
1.39314e-05
1.16129e-05
-5.63209e-06
-4.92777e-06
5.7876e-07
-1.19459e-06
9.62967e-06
6.08399e-06
-9.82623e-06
9.61891e-06
1.76653e-05
1.29729e-05
1.53344e-06
1.20543e-05
2.00893e-06
1.05967e-05
1.20404e-05
1.08903e-05
7.16573e-06
5.12165e-06
8.06181e-06
-9.2101e-08
-1.08608e-06
1.36773e-06
9.50925e-06
8.03347e-06
1.19982e-05
5.67313e-07
-4.10106e-06
3.12313e-06
-5.4149e-06
2.71394e-06
-5.93826e-08
-1.18285e-06
-3.15232e-06
-6.03857e-07
2.84535e-07
-2.39847e-06
2.99597e-06
-5.2604e-06
1.38504e-06
1.05501e-06
-5.84043e-06
-3.31462e-06
-3.32106e-07
7.4063e-07
-7.15584e-06
-4.37636e-07
-1.74563e-06
-2.26488e-06
-3.24969e-06
-4.48281e-07
-1.42981e-06
-4.97487e-06
-1.52392e-06
-2.3876e-06
-4.53296e-06
2.83442e-07
-1.97215e-06
-3.4737e-06
-6.09231e-06
-3.63818e-06
-1.74557e-06
2.60173e-06
-2.12499e-06
1.45154e-07
-7.42989e-08
2.05359e-06
-1.54675e-06
3.89355e-07
-2.83795e-06
1.22383e-06
-9.8532e-07
-1.84632e-06
-1.93322e-06
-4.18633e-07
-2.98849e-06
5.66005e-06
6.37004e-06
9.72372e-07
3.43491e-06
4.4167e-06
7.32007e-06
9.5131e-06
7.76941e-06
4.45818e-06
1.81419e-06
-5.27146e-06
5.41173e-06
4.50625e-06
-1.02434e-08
2.28794e-06
5.15193e-06
6.38133e-06
-1.1013e-06
1.61985e-06
4.58791e-07
4.64274e-06
-3.99248e-06
7.92538e-06
6.16033e-06
4.79716e-07
1.42248e-06
5.24785e-06
5.5064e-06
5.12065e-06
3.08248e-06
1.54438e-06
2.52368e-06
4.60546e-06
5.42061e-06
3.26894e-09
-6.85292e-09
1.14295e-06
5.80397e-09
6.13857e-07
1.23733e-08
1.77516e-07
9.93961e-09
1.86219e-06
7.09029e-09
-6.60259e-06
-5.8163e-09
-1.62617e-06
5.05259e-09
2.11782e-06
5.72914e-09
1.93933e-06
2.61737e-09
3.93086e-06
4.29467e-09
-2.88526e-06
-3.79439e-09
-8.53921e-06
-1.27647e-09
2.78252e-06
-9.7326e-10
-5.0645e-06
-1.10807e-09
-1.19783e-05
-2.20051e-09
9.4088e-07
-2.64731e-09
-5.45778e-07
-6.27541e-09
1.36822e-06
-4.02774e-09
1.20743e-06
-4.09498e-09
1.36193e-06
-5.14284e-09
-3.73326e-06
7.30285e-10
-4.78291e-06
-4.12563e-09
-1.01023e-06
-9.4334e-10
-2.64904e-06
-1.84773e-09
-4.79549e-06
-2.17579e-09
-4.94271e-07
-3.47699e-09
-1.15487e-06
-7.616e-09
1.13982e-07
-3.65659e-06
1.64144e-05
-3.1453e-05
-7.57542e-06
1.48289e-05
5.8387e-06
3.56963e-05
-2.48293e-05
8.25381e-06
5.35664e-05
-2.35577e-05
3.7044e-05
-4.78458e-05
-2.11308e-05
3.59522e-05
-8.95948e-05
1.91161e-05
-1.75446e-05
-2.33223e-05
2.72466e-05
-1.39042e-05
-6.71904e-05
5.7866e-06
-8.32985e-05
2.01325e-05
-1.29404e-05
1.92224e-05
-3.53736e-05
-2.16679e-05
3.00052e-05
-1.0546e-05
-2.90713e-05
-6.65629e-06
-2.4933e-05
-8.69414e-08
-4.33013e-05
4.46536e-06
-6.08444e-06
-7.36382e-06
-6.18092e-06
-1.76499e-05
-5.08532e-05
3.38065e-05
-5.79059e-05
1.04566e-05
-1.74359e-05
-3.40634e-06
4.38165e-06
-1.17917e-06
-4.00887e-05
-1.43574e-05
-1.00999e-05
-2.20592e-05
-8.62563e-07
-2.2836e-05
-3.57264e-05
-5.9222e-05
-8.50639e-06
1.96596e-05
-4.16694e-06
-6.72375e-06
2.85306e-06
-1.86742e-05
-1.11677e-05
-6.34058e-07
2.41529e-05
1.46365e-05
1.74309e-05
2.73694e-05
-8.46889e-06
-2.26596e-05
-3.95512e-05
-1.01666e-05
-1.04861e-05
1.58855e-05
1.22819e-05
7.09011e-06
-2.8435e-05
-6.80351e-06
-3.65847e-05
-8.94518e-06
-6.96589e-06
-9.13679e-06
-1.45919e-05
7.33408e-06
1.35472e-05
3.74405e-06
-1.37374e-05
8.68754e-07
-1.033e-05
-1.05388e-06
-1.91308e-05
-1.58319e-06
-3.76748e-06
8.08511e-06
-3.42403e-06
1.17145e-05
-2.15391e-05
-1.99539e-05
-2.62537e-05
-6.30999e-06
-7.74259e-06
1.36759e-06
3.22707e-06
-5.38048e-07
-1.77922e-05
7.82354e-06
-4.24141e-06
1.23769e-05
-7.11658e-07
1.38089e-05
-1.6989e-05
-2.56862e-05
-4.10597e-06
9.72796e-06
-1.95189e-06
-3.5746e-06
5.86037e-07
-1.01303e-05
-4.49911e-06
-3.25624e-07
7.33199e-06
9.79439e-06
2.86571e-06
1.53617e-05
-3.59772e-07
-1.19928e-05
-1.22893e-05
-6.31159e-06
-4.48901e-06
8.26767e-06
2.68259e-06
4.59097e-06
-8.69701e-06
-4.28054e-06
-9.64343e-06
-6.12456e-06
-3.84287e-06
-6.09108e-06
-4.24173e-06
5.50659e-06
1.98561e-06
2.6179e-06
-4.8681e-06
6.30631e-07
-2.45934e-06
-8.51921e-07
-6.05004e-06
-1.18518e-06
-2.85628e-06
4.31144e-06
-2.82042e-06
6.15271e-06
-5.67743e-06
-1.06983e-05
-9.47983e-06
-3.64357e-06
-1.90805e-06
1.49436e-06
1.4353e-07
-3.2829e-07
-5.03973e-06
3.32043e-06
1.63264e-07
6.50588e-06
-2.59549e-06
6.2898e-06
-4.83378e-06
-9.55024e-06
-2.74575e-06
5.36253e-06
-2.62938e-06
-6.03218e-06
-6.11745e-07
1.8634e-06
7.2628e-06
-5.02674e-06
-3.17588e-06
2.93757e-06
1.5558e-06
-2.99036e-07
-2.30489e-06
-1.16685e-06
7.81442e-07
4.40176e-07
2.71421e-07
6.02732e-07
-6.6225e-07
1.13424e-06
3.4735e-06
-5.95752e-06
-1.7441e-06
-1.72295e-07
3.2512e-07
3.56072e-06
3.29584e-06
3.69771e-06
7.19418e-09
5.24835e-09
1.47714e-06
2.39401e-10
-7.04141e-08
8.50924e-09
1.91017e-06
2.23588e-07
-6.0008e-07
2.09117e-05
-1.47095e-05
1.52458e-05
)
;

boundaryField
{
    top_fluid_surface
    {
        type            calculated;
        value           nonuniform List<scalar> 
64
(
0
0
0
0
0
0
0
0
0
0
3.41406e-09
0
0
0
9.06645e-10
0
1.54369e-08
1.74054e-08
1.79476e-08
1.81442e-08
1.70821e-09
0
1.52426e-08
1.51365e-08
0
9.40103e-09
1.08246e-08
9.45139e-09
7.74795e-09
1.29915e-09
0
7.11286e-09
0
0
0
2.4848e-10
1.36191e-09
4.36258e-09
0
0
0
0
3.34305e-09
0
0
2.13734e-10
0
0
0
0
0
0
0
0
0
0
0
0
0
0
0
0
0
0
)
;
    }
    bottom_fluid_surface
    {
        type            calculated;
        value           uniform 0;
    }
    lateral_surface_1
    {
        type            calculated;
        value           uniform 0;
    }
    lateral_surface_2
    {
        type            calculated;
        value           uniform 0;
    }
    lateral_surface_3
    {
        type            calculated;
        value           uniform 0;
    }
    lateral_surface_4
    {
        type            calculated;
        value           uniform 0;
    }
}


// ************************************************************************* //
