/*--------------------------------*- C++ -*----------------------------------*\
| =========                 |                                                 |
| \\      /  F ield         | OpenFOAM: The Open Source CFD Toolbox           |
|  \\    /   O peration     | Version:  v1612+                                |
|   \\  /    A nd           | Web:      www.OpenFOAM.com                      |
|    \\/     M anipulation  |                                                 |
\*---------------------------------------------------------------------------*/
FoamFile
{
    version     2.0;
    format      ascii;
    class       surfaceScalarField;
    location    "9.35";
    object      phi;
}
// * * * * * * * * * * * * * * * * * * * * * * * * * * * * * * * * * * * * * //

dimensions      [0 3 -1 0 0 0 0];

internalField   nonuniform List<scalar> 
816
(
3.37323e-06
-1.15418e-05
7.78252e-06
-2.05542e-05
-1.8015e-05
3.8955e-05
6.43327e-06
1.36195e-06
-1.10609e-05
-3.01088e-06
9.65095e-06
-4.14684e-06
5.92941e-07
-4.06745e-06
3.41073e-06
-7.3307e-06
-1.05056e-05
8.41654e-07
-5.15549e-06
1.71023e-05
0.000448207
-0.000256157
-2.36675e-06
-0.000185592
0.000194446
0.000543051
2.73539e-07
-2.83011e-05
3.67869e-05
0.000224393
3.6561e-06
-0.000187538
0.000641023
0.000180328
9.98372e-07
0.000573684
-0.000481925
0.000211346
1.6739e-06
0.0005921
-0.000537551
-0.000230837
5.80611e-06
0.000305971
0.000321031
-0.000340294
-2.9729e-06
0.000286096
-0.000174563
-0.000118351
5.5981e-08
0.000166164
-0.000178214
-8.16833e-05
5.20835e-06
0.000360053
-1.44025e-05
-1.84001e-06
8.28059e-06
-8.51466e-05
0.00013023
-0.000171108
9.08309e-06
-0.000100928
8.74444e-05
2.29902e-06
-0.000216174
-0.000174152
2.43882e-05
-4.05678e-06
-3.36188e-05
-2.68954e-07
1.11401e-05
4.24438e-05
-4.47984e-05
2.51286e-05
-6.39724e-07
-1.87187e-08
-5.28067e-06
1.09115e-06
5.0661e-05
-5.44255e-06
1.56161e-05
1.46029e-05
-2.32252e-05
1.5198e-05
-2.18163e-05
2.22431e-05
-2.30924e-05
-3.93929e-06
-2.57174e-05
1.40926e-05
3.10346e-05
4.20044e-06
-3.4037e-05
1.9981e-05
4.38463e-06
2.5354e-05
-1.25055e-05
-7.21472e-06
-1.38295e-06
7.08648e-06
-5.20799e-05
3.21373e-05
4.31315e-05
2.88284e-05
-2.89629e-05
1.99901e-05
-4.49842e-06
-1.49979e-05
7.70756e-05
1.07644e-05
-3.51368e-05
-1.7549e-05
-3.97765e-06
4.73672e-06
-1.04525e-05
2.0242e-07
-1.66292e-05
1.04017e-06
-2.1899e-05
-1.94425e-05
-1.25215e-05
4.06765e-07
-2.95757e-06
-1.68255e-07
-2.44823e-05
2.93045e-06
6.83283e-06
-4.80998e-06
-9.43169e-06
-9.17193e-06
-1.07825e-05
8.05105e-07
-1.34334e-05
-4.8712e-06
-1.76455e-05
-3.90376e-06
-1.60831e-05
-1.24032e-05
-1.53791e-05
-4.83491e-06
4.39682e-06
-5.61723e-06
-2.4036e-05
-1.52941e-05
-2.2513e-05
-1.57863e-05
-1.34334e-05
-9.42563e-06
1.08382e-05
3.32008e-05
-3.30333e-06
-9.01369e-06
4.62859e-06
-2.1072e-06
1.20426e-06
-6.65101e-06
4.52516e-06
-1.12685e-05
-5.8245e-06
3.08633e-06
1.03442e-06
-6.83053e-06
9.01781e-07
-2.0362e-06
5.58016e-07
-2.40865e-06
6.48367e-07
-5.2125e-06
8.9118e-08
1.0111e-06
-5.04283e-06
-1.07509e-06
-7.01605e-08
-5.90892e-06
-1.19433e-05
-7.68827e-06
-3.80805e-06
-2.99601e-07
-5.53219e-07
-1.31636e-05
-8.89566e-07
2.62333e-06
-2.25452e-06
-6.92792e-07
-4.27727e-06
-4.79251e-06
-2.71246e-06
-1.02074e-08
-3.0889e-06
-1.00088e-05
-4.60367e-06
-2.55455e-06
-6.96809e-06
-6.47256e-06
-7.74351e-06
3.02556e-06
-2.11218e-06
-2.44073e-06
-9.59678e-06
-1.27421e-05
-7.00064e-06
-8.95401e-06
-5.63897e-06
-3.69964e-06
5.34881e-06
-1.91212e-06
9.53999e-06
1.72469e-06
-2.5654e-06
-3.85333e-06
0.000173565
5.55771e-06
-1.53932e-06
-0.000166424
0.000361019
-3.48944e-08
-0.000244893
0.000437296
1.08742e-06
-6.732e-05
0.000560737
1.59201e-06
-8.36024e-05
0.000248702
-5.37096e-06
-0.000357679
-0.000230967
7.69529e-05
-3.16844e-06
-0.000260159
-0.000199206
-3.91236e-06
-0.000274737
-0.000586562
5.85121e-06
-0.000170542
-0.000347048
-1.09089e-05
-1.68349e-05
0.000242846
6.94569e-06
-0.000274653
-0.000262128
-0.000116438
1.22687e-06
-0.000228347
-0.000479674
1.36656e-06
-0.000252463
-0.000177797
-2.6787e-06
-8.72277e-05
-0.000210574
-2.44211e-06
-0.000110625
-2.61714e-05
1.18941e-06
-0.000320014
-0.000462984
-0.000196341
3.3991e-06
-0.000357434
-0.000366466
3.61862e-06
-0.000328572
-0.00023033
-6.18768e-07
-0.000301098
-9.34401e-05
1.56044e-06
-0.000187445
1.2519e-06
-0.000250704
-0.00021218
-1.40095e-05
1.10588e-05
-5.11165e-06
2.63108e-06
1.79197e-05
-3.13311e-05
-3.09201e-06
1.6757e-05
5.28029e-06
2.03843e-05
1.66891e-05
-8.45519e-06
1.16429e-05
2.28626e-05
6.99838e-05
-4.15335e-05
-3.86783e-05
-3.08523e-06
8.97075e-05
-1.85154e-05
-2.84439e-05
8.78809e-05
-4.84376e-05
-6.07137e-05
0.000112687
-5.18587e-05
-3.70786e-05
-1.25466e-05
-7.57497e-06
4.5084e-05
-2.14504e-05
-2.9742e-05
-2.1718e-05
-3.34976e-06
0.000102018
-2.02404e-05
-3.77104e-05
9.76663e-05
-4.2046e-05
1.49675e-05
-5.63602e-05
-6.41591e-06
3.82589e-06
6.42673e-05
-2.36481e-05
2.9762e-05
7.13895e-05
-5.64626e-05
-3.96027e-05
-5.99525e-06
8.86561e-05
-6.38318e-06
-3.58868e-05
8.50651e-05
-3.15619e-05
-2.63167e-05
2.33106e-05
-2.28122e-05
-2.16421e-06
-1.09876e-05
-6.90433e-06
7.44133e-05
-2.71307e-05
-3.72174e-05
8.84197e-06
-6.93331e-06
-1.19141e-06
-1.2015e-06
-8.1289e-06
-1.49381e-05
1.58243e-06
-7.57865e-06
3.5879e-06
-1.12887e-05
-7.24782e-06
-4.78703e-06
-4.15805e-06
-1.45301e-05
3.23691e-05
2.54716e-05
1.94014e-05
-1.9816e-07
3.98395e-05
1.10357e-05
1.42724e-05
3.86872e-05
2.99241e-05
3.41959e-05
4.90781e-05
3.28934e-05
1.86957e-05
-5.77266e-06
3.8488e-06
-2.74516e-05
-7.61036e-06
2.0617e-05
1.1685e-05
9.62103e-07
4.41899e-05
1.17676e-05
2.11156e-05
4.28287e-05
2.22726e-05
-8.29656e-06
-2.43557e-05
1.79766e-06
-1.55419e-06
2.98055e-05
1.24272e-05
-1.83009e-05
3.17645e-05
3.303e-05
2.33456e-05
3.05811e-06
3.82532e-05
6.52784e-06
2.06058e-05
3.76953e-05
2.0405e-05
1.46609e-05
1.17165e-05
1.42355e-05
1.26185e-06
-4.40581e-06
4.69364e-06
3.39318e-05
1.46137e-05
2.01904e-05
5.73773e-06
-4.28018e-06
7.01552e-07
-1.58241e-06
-4.25488e-06
-4.86707e-06
-2.3952e-07
-4.42299e-06
3.26918e-06
-7.1306e-06
-3.23649e-06
-2.11586e-06
-4.3537e-06
-7.2897e-06
1.10384e-05
1.37688e-05
1.16497e-05
-1.91846e-07
1.45911e-05
4.95339e-06
7.68048e-06
1.25019e-05
1.60489e-05
1.77409e-05
1.61235e-05
1.80944e-05
9.39956e-06
-1.8156e-06
1.29344e-06
-1.47474e-05
1.68318e-07
1.04372e-05
5.91645e-06
1.00534e-06
1.25238e-05
5.90048e-06
1.12886e-05
1.39597e-05
1.16204e-05
-5.68521e-06
-4.93455e-06
5.74301e-07
-1.23748e-06
9.67738e-06
6.08095e-06
-9.83608e-06
9.67924e-06
1.77302e-05
1.29756e-05
1.55408e-06
1.20812e-05
2.04374e-06
1.06245e-05
1.20672e-05
1.09074e-05
7.23021e-06
5.14128e-06
8.05635e-06
2.15664e-08
-1.07707e-06
1.3105e-06
9.6429e-06
7.93729e-06
1.19922e-05
5.93722e-07
-4.10289e-06
3.11612e-06
-5.43149e-06
2.7348e-06
-7.91057e-08
-1.15607e-06
-3.11072e-06
-6.04013e-07
2.58074e-07
-2.37413e-06
2.99477e-06
-5.2469e-06
1.40224e-06
1.08064e-06
-5.82689e-06
-3.28455e-06
-3.05039e-07
7.79719e-07
-7.16352e-06
-4.21397e-07
-1.73104e-06
-2.27407e-06
-3.2367e-06
-4.82383e-07
-1.4195e-06
-4.98289e-06
-1.56839e-06
-2.39875e-06
-4.5758e-06
2.9691e-07
-1.96183e-06
-3.46465e-06
-6.14723e-06
-3.62328e-06
-1.78876e-06
2.62182e-06
-2.17042e-06
1.42827e-07
4.6731e-08
2.13276e-06
-1.21981e-06
-8.97269e-08
-2.80966e-06
1.08252e-06
-9.87749e-07
-1.9086e-06
-1.96735e-06
-3.76123e-07
-2.99362e-06
5.72833e-06
6.35895e-06
1.01069e-06
3.45149e-06
4.44142e-06
7.3364e-06
9.52437e-06
7.80662e-06
4.46276e-06
1.83915e-06
-5.29288e-06
5.42208e-06
4.51021e-06
-6.21892e-08
2.28671e-06
5.12191e-06
6.37578e-06
-1.1285e-06
1.60696e-06
4.26217e-07
4.6299e-06
-4.02707e-06
7.98236e-06
6.14272e-06
5.01718e-07
1.44965e-06
5.26992e-06
5.5225e-06
5.19621e-06
3.06707e-06
1.68174e-06
2.41275e-06
4.45436e-06
5.30223e-06
0.000153283
-0.00029306
4.24401e-06
0.000256396
6.2811e-07
0.00052971
-2.17073e-06
0.000453533
-1.96116e-06
0.000331129
-5.00959e-06
-0.000254847
-3.21241e-06
0.000217801
-1.15085e-05
0.000242266
5.42259e-06
0.000135334
-1.65996e-06
0.00017562
-1.10617e-05
-0.000155773
-1.23236e-05
-5.28058e-05
8.26121e-06
-4.72124e-05
-6.8654e-06
-4.51582e-05
-9.35425e-06
-9.29625e-05
4.07235e-06
-0.000121922
-6.53848e-07
-0.000287528
5.06229e-06
-0.000190129
5.00934e-06
-0.000189472
5.79081e-06
-0.000236321
-4.89572e-06
3.57483e-05
-6.42676e-06
-0.000174774
-1.37634e-06
-4.19088e-05
-3.18854e-06
-8.05116e-05
-6.02583e-06
-9.8376e-05
-2.63207e-07
-0.000166375
-1.59978e-06
-0.000324573
3.4959e-07
-4.75465e-06
1.6362e-05
-3.15118e-05
-7.63173e-06
1.47529e-05
5.75809e-06
3.59353e-05
-2.4748e-05
8.35247e-06
5.36282e-05
-2.37482e-05
3.65991e-05
-4.81029e-05
-2.12349e-05
3.56506e-05
-8.96913e-05
1.92725e-05
-1.71798e-05
-2.32127e-05
2.74692e-05
-1.33962e-05
-6.7102e-05
5.72272e-06
-8.36953e-05
2.00876e-05
-1.29725e-05
1.92662e-05
-3.54971e-05
-2.17571e-05
3.00616e-05
-1.05469e-05
-2.8958e-05
-6.57362e-06
-2.49935e-05
-2.03692e-07
-4.34358e-05
4.37447e-06
-6.12348e-06
-7.31877e-06
-6.02726e-06
-1.76628e-05
-5.09325e-05
3.37924e-05
-5.79708e-05
1.04039e-05
-1.74954e-05
-3.44718e-06
4.33459e-06
-1.15496e-06
-4.00329e-05
-1.42477e-05
-1.0026e-05
-2.19437e-05
-8.53637e-07
-2.29383e-05
-3.58199e-05
-5.92988e-05
-8.53388e-06
1.97761e-05
-4.22488e-06
-6.64119e-06
2.66914e-06
-1.87439e-05
-1.11595e-05
-6.13091e-07
2.42855e-05
1.45757e-05
1.72927e-05
2.73518e-05
-8.51119e-06
-2.27186e-05
-3.96317e-05
-1.01609e-05
-1.04021e-05
1.59703e-05
1.23723e-05
7.24189e-06
-2.84437e-05
-6.83907e-06
-3.67155e-05
-8.97001e-06
-6.98703e-06
-9.17448e-06
-1.46807e-05
7.32046e-06
1.35585e-05
3.73322e-06
-1.36742e-05
8.76192e-07
-1.03495e-05
-1.10931e-06
-1.91793e-05
-1.65901e-06
-3.78179e-06
8.07011e-06
-3.32851e-06
1.17281e-05
-2.15504e-05
-1.99369e-05
-2.62962e-05
-6.31277e-06
-7.81088e-06
1.32455e-06
3.19682e-06
-5.28346e-07
-1.77668e-05
7.90032e-06
-4.20494e-06
1.24848e-05
-7.36511e-07
1.38783e-05
-1.70386e-05
-2.56868e-05
-4.2284e-06
9.95456e-06
-1.88877e-06
-3.27547e-06
3.17704e-07
-1.0188e-05
-4.73389e-06
-4.07058e-07
7.27015e-06
9.72826e-06
2.78551e-06
1.53223e-05
-3.18007e-07
-1.19883e-05
-1.22707e-05
-6.2845e-06
-4.47733e-06
8.32813e-06
2.68462e-06
4.63943e-06
-8.72701e-06
-4.30659e-06
-9.68815e-06
-6.14234e-06
-3.85658e-06
-6.08956e-06
-4.28146e-06
5.49779e-06
1.95008e-06
2.5841e-06
-4.87996e-06
6.01337e-07
-2.46159e-06
-8.904e-07
-6.05874e-06
-1.22472e-06
-2.86925e-06
4.31563e-06
-2.79579e-06
6.11471e-06
-5.64036e-06
-1.07052e-05
-9.42871e-06
-3.59789e-06
-1.8888e-06
1.49239e-06
1.23655e-07
-3.50084e-07
-5.03872e-06
3.34216e-06
1.62413e-07
6.59859e-06
-2.64306e-06
6.4256e-06
-4.83872e-06
-9.3907e-06
-3.1214e-06
5.69841e-06
-2.34866e-06
-5.92967e-06
-5.23007e-07
1.87041e-06
7.21662e-06
-5.056e-06
-3.15594e-06
2.98022e-06
1.59114e-06
-3.02717e-07
-2.33409e-06
-1.17565e-06
7.96878e-07
4.13138e-07
2.36862e-07
5.54544e-07
-6.88761e-07
1.16265e-06
3.45094e-06
-6.0064e-06
-1.72628e-06
-1.55332e-07
3.06617e-07
3.53885e-06
3.42943e-06
4.00331e-06
0.000325363
0.000239638
5.10991e-06
1.13471e-05
-2.44543e-07
0.000382915
7.19613e-06
9.40007e-07
-5.41488e-07
2.09034e-05
-1.47014e-05
1.53717e-05
)
;

boundaryField
{
    top_fluid_surface
    {
        type            calculated;
        value           nonuniform List<scalar> 
64
(
-0.000198654
-0.000102743
-0.000142926
-4.88307e-05
-8.40618e-05
-0.000191298
-3.26809e-05
-0.000204688
-0.000387218
-0.000133913
0.000173711
-4.0003e-05
-0.000227473
-0.000127255
-4.06058e-05
-0.000243769
0.000907365
0.00108023
0.00112324
0.00114532
5.53845e-05
-5.87806e-05
0.000873708
0.000909618
-4.48084e-05
0.00050501
0.000596743
0.000509424
0.000409754
6.41542e-05
-0.000125468
0.000373943
-0.000115445
-0.000270346
-0.000520264
-8.70119e-06
8.14299e-05
0.000235782
-0.000468011
-0.000261129
-0.000146215
-0.000305987
0.000190651
-0.000127007
-0.000270441
1.06568e-05
-0.000215718
-0.000196305
-9.09199e-05
-0.000190257
-0.000117682
-0.000268482
-0.00026541
-0.00025156
-0.000487282
-0.000283812
-0.000283792
-0.000117946
-5.47593e-05
-0.000612392
-0.000289328
-0.000134782
-0.000198075
-0.000318716
)
;
    }
    bottom_fluid_surface
    {
        type            calculated;
        value           uniform 0;
    }
    lateral_surface_1
    {
        type            calculated;
        value           uniform 0;
    }
    lateral_surface_2
    {
        type            calculated;
        value           uniform 0;
    }
    lateral_surface_3
    {
        type            calculated;
        value           uniform 0;
    }
    lateral_surface_4
    {
        type            calculated;
        value           uniform 0;
    }
}


// ************************************************************************* //
