/*--------------------------------*- C++ -*----------------------------------*\
| =========                 |                                                 |
| \\      /  F ield         | OpenFOAM: The Open Source CFD Toolbox           |
|  \\    /   O peration     | Version:  v1612+                                |
|   \\  /    A nd           | Web:      www.OpenFOAM.com                      |
|    \\/     M anipulation  |                                                 |
\*---------------------------------------------------------------------------*/
FoamFile
{
    version     2.0;
    format      ascii;
    class       volScalarField;
    location    "2.3";
    object      alpha.water;
}
// * * * * * * * * * * * * * * * * * * * * * * * * * * * * * * * * * * * * * //

dimensions      [0 0 0 0 0 0 0];

internalField   nonuniform List<scalar> 
1116
(
0.997758
0.997758
0.997758
0.997758
0.997758
0.997758
0.997758
0.997758
0.997758
0.997758
0.997758
0.997758
0.996592
0.996592
0.996592
0.996592
0.996592
0.996592
0.995524
0.995524
0.995524
0.995524
0.995524
0.995524
0.994857
0.994857
0.994857
0.994857
0.994857
0.994857
0.99421
0.994209
0.994209
0.994209
0.994209
0.99421
0.992287
0.992287
0.992287
0.992287
0.992286
0.992287
0.975582
0.975581
0.975581
0.97558
0.97558
0.975579
0.934409
0.934391
0.934401
0.9344
0.934397
0.934401
0.93468
0.934672
0.934673
0.934672
0.934671
0.934672
0.933768
0.933755
0.933761
0.93376
0.933758
0.93376
0.925462
0.925465
0.925463
0.925465
0.925468
0.925458
0.993302
0.993301
0.993301
0.993302
0.993302
0.993302
0.843278
0.843273
0.843274
0.843276
0.843276
0.843277
0.808986
0.808981
0.808982
0.808983
0.808982
0.808986
0.773866
0.77386
0.773862
0.773861
0.77386
0.773864
0.735564
0.73556
0.735561
0.735559
0.735557
0.73556
0.653021
0.653018
0.653018
0.653015
0.653014
0.653015
0.518943
0.51894
0.518939
0.518935
0.518933
0.518932
0.357279
0.357277
0.357274
0.35727
0.357267
0.357264
0.162039
0.162039
0.162038
0.162035
0.162033
0.162032
0.177228
0.177221
0.177224
0.177222
0.177219
0.177219
0.418771
0.418738
0.418746
0.418742
0.418726
0.418747
0.84104
0.84103
0.841033
0.841031
0.841023
0.841032
0.462544
0.462539
0.46254
0.462544
0.462545
0.462548
0.115236
0.115232
0.115233
0.115235
0.115235
0.115236
0.052709
0.0527072
0.0527073
0.0527076
0.0527076
0.052709
0.0256184
0.025616
0.0256158
0.0256155
0.0256157
0.0256164
5.29053e-09
5.2879e-09
5.28719e-09
5.28961e-09
5.29092e-09
5.2838e-09
1.3753e-11
1.37478e-11
1.37621e-11
1.37769e-11
1.3782e-11
1.37731e-11
2.97034e-11
2.96908e-11
2.97198e-11
2.9749e-11
2.97596e-11
2.97377e-11
7.13341e-11
7.1177e-11
7.12673e-11
7.13014e-11
7.13616e-11
7.13254e-11
-4.54592e-09
-4.55434e-09
-4.55216e-09
-4.55199e-09
-4.55548e-09
-4.5489e-09
-9.8469e-06
-9.84408e-06
-9.84463e-06
-9.84497e-06
-9.84531e-06
-9.84416e-06
0.00105179
0.0010517
0.00105174
0.00105172
0.00105164
0.00105172
0.690654
0.690632
0.69064
0.690631
0.6906
0.69068
7.53227e-08
7.52808e-08
7.52664e-08
7.52089e-08
7.51795e-08
7.53189e-08
2.99083e-08
2.98748e-08
2.98868e-08
2.98534e-08
2.98299e-08
2.99437e-08
1.67541e-08
1.67547e-08
1.67522e-08
1.67631e-08
1.677e-08
1.67369e-08
5.60902e-09
5.6067e-09
5.60595e-09
5.60813e-09
5.60906e-09
5.60161e-09
1.17226e-11
1.17181e-11
1.1733e-11
1.17468e-11
1.17519e-11
1.17503e-11
1.33381e-13
1.33004e-13
1.33245e-13
1.33233e-13
1.33397e-13
1.33127e-13
2.65801e-11
2.65777e-11
2.6603e-11
2.66321e-11
2.66392e-11
2.66233e-11
2.99507e-11
2.99382e-11
2.99672e-11
2.99964e-11
3.00071e-11
2.99851e-11
-3.80349e-10
-3.805e-10
-3.80418e-10
-3.80381e-10
-3.80266e-10
-3.80415e-10
-1.13422e-08
-1.11539e-08
-1.11734e-08
-1.11519e-08
-1.10824e-08
-1.12338e-08
0.000101951
0.000101955
0.000101957
0.000101952
0.000101936
0.000101954
0.613715
0.613675
0.613695
0.6137
0.613684
0.613713
3.63061e-62
3.63752e-62
3.63726e-62
3.63769e-62
3.63935e-62
3.63292e-62
7.77319e-58
7.78745e-58
7.78683e-58
7.78779e-58
7.79142e-58
7.7783e-58
9.09734e-54
9.11068e-54
9.10902e-54
9.10949e-54
9.11329e-54
9.09801e-54
7.32224e-50
7.32781e-50
7.32477e-50
7.32432e-50
7.32716e-50
7.31593e-50
4.14928e-46
4.14812e-46
4.14504e-46
4.14436e-46
4.14628e-46
4.14154e-46
1.52971e-42
1.52821e-42
1.52695e-42
1.52691e-42
1.52819e-42
1.52765e-42
3.08313e-39
3.08199e-39
3.08149e-39
3.08363e-39
3.08889e-39
3.09177e-39
2.49245e-36
2.49916e-36
2.50345e-36
2.50878e-36
2.5162e-36
2.52193e-36
5.81291e-34
5.87101e-34
5.90003e-34
5.92221e-34
5.94371e-34
5.95672e-34
4.95354e-33
4.95591e-33
4.9554e-33
4.95832e-33
4.96568e-33
4.9673e-33
4.10808e-30
4.11611e-30
4.11699e-30
4.11932e-30
4.12467e-30
4.12539e-30
1.96385e-27
1.96865e-27
1.96888e-27
1.96905e-27
1.9698e-27
1.96737e-27
7.57141e-59
7.58573e-59
7.58507e-59
7.58564e-59
7.58875e-59
7.57456e-59
1.6685e-54
1.6716e-54
1.67145e-54
1.67158e-54
1.67225e-54
1.66925e-54
1.95027e-50
1.9535e-50
1.95321e-50
1.95325e-50
1.95395e-50
1.95048e-50
1.51406e-46
1.516e-46
1.51557e-46
1.51548e-46
1.51596e-46
1.51341e-46
7.9568e-43
7.96298e-43
7.9594e-43
7.95832e-43
7.96099e-43
7.94946e-43
2.59265e-39
2.59383e-39
2.5926e-39
2.59247e-39
2.59389e-39
2.59141e-39
4.59683e-36
4.60111e-36
4.60098e-36
4.60288e-36
4.6079e-36
4.60717e-36
3.61794e-33
3.6291e-33
3.63342e-33
3.63807e-33
3.64455e-33
3.64629e-33
1.07577e-30
1.08418e-30
1.08737e-30
1.08941e-30
1.09131e-30
1.09054e-30
7.85704e-30
7.84851e-30
7.84488e-30
7.84914e-30
7.86192e-30
7.86867e-30
6.10956e-27
6.1192e-27
6.11976e-27
6.12241e-27
6.12946e-27
6.13008e-27
1.89581e-24
1.8998e-24
1.89983e-24
1.89981e-24
1.90033e-24
1.89786e-24
6.30822e-56
6.32024e-56
6.31969e-56
6.32004e-56
6.32243e-56
6.3102e-56
1.42971e-51
1.4324e-51
1.43228e-51
1.43236e-51
1.43289e-51
1.43022e-51
1.64639e-47
1.6493e-47
1.6491e-47
1.64913e-47
1.64968e-47
1.64664e-47
1.20982e-43
1.21171e-43
1.21147e-43
1.21143e-43
1.21178e-43
1.20963e-43
5.91209e-40
5.91988e-40
5.91827e-40
5.91779e-40
5.91949e-40
5.90978e-40
1.84442e-36
1.84667e-36
1.84618e-36
1.8461e-36
1.84678e-36
1.84419e-36
3.34025e-33
3.34512e-33
3.34491e-33
3.34541e-33
3.34731e-33
3.34361e-33
2.95188e-30
2.95842e-30
2.9595e-30
2.96079e-30
2.96328e-30
2.95999e-30
1.2711e-27
1.27563e-27
1.27667e-27
1.2773e-27
1.27933e-27
1.27534e-27
1.15292e-25
1.16396e-25
1.16459e-25
1.16193e-25
1.16315e-25
1.1489e-25
5.95858e-24
5.96761e-24
5.96748e-24
5.96841e-24
5.97257e-24
5.96971e-24
8.9157e-22
8.9321e-22
8.93148e-22
8.93034e-22
8.93107e-22
8.91764e-22
2.58722e-53
2.59222e-53
2.59198e-53
2.59209e-53
2.593e-53
2.58782e-53
5.96262e-49
5.97403e-49
5.9735e-49
5.97377e-49
5.97585e-49
5.96434e-49
6.63137e-45
6.64354e-45
6.64281e-45
6.64291e-45
6.64501e-45
6.6324e-45
4.50783e-41
4.51558e-41
4.51493e-41
4.51483e-41
4.51609e-41
4.50774e-41
1.97002e-37
1.97318e-37
1.97283e-37
1.97273e-37
1.97323e-37
1.96971e-37
5.33715e-34
5.34529e-34
5.34432e-34
5.34408e-34
5.34548e-34
5.33647e-34
8.27037e-31
8.28295e-31
8.28192e-31
8.28203e-31
8.28511e-31
8.27162e-31
6.97811e-28
6.99006e-28
6.99034e-28
6.99158e-28
7.00198e-28
6.98306e-28
4.53738e-25
4.54878e-25
4.55043e-25
4.55298e-25
4.58636e-25
4.54763e-25
2.31278e-22
2.3214e-22
2.32057e-22
2.31941e-22
2.34768e-22
2.33897e-22
1.96192e-21
1.96476e-21
1.96457e-21
1.96453e-21
1.96519e-21
1.96322e-21
1.52541e-19
1.52748e-19
1.52739e-19
1.527e-19
1.52367e-19
1.52811e-19
9.50964e-07
9.50972e-07
9.51078e-07
9.51211e-07
9.51247e-07
9.51137e-07
1.72598e-06
1.72588e-06
1.72636e-06
1.72685e-06
1.72696e-06
1.7268e-06
-2.98156e-14
-3.26589e-14
-3.35227e-14
-3.27772e-14
-3.25841e-14
-3.33611e-14
1.43651e-05
1.43611e-05
1.43622e-05
1.43581e-05
1.4357e-05
1.43719e-05
3.95677e-05
3.95678e-05
3.95679e-05
3.9568e-05
3.95681e-05
3.95682e-05
-1.62985e-13
-1.78519e-13
-1.8325e-13
-1.79173e-13
-1.78116e-13
-1.82376e-13
2.2335e-07
2.21069e-07
2.22039e-07
2.19029e-07
2.16883e-07
2.26686e-07
8.87647e-08
8.86245e-08
8.85509e-08
8.87508e-08
8.9078e-08
8.9233e-08
-9.67551e-13
-1.05979e-12
-1.08785e-12
-1.06365e-12
-1.05738e-12
-1.08263e-12
7.65586e-07
7.66041e-07
7.6587e-07
7.66722e-07
7.6733e-07
7.64877e-07
9.91287e-07
9.91085e-07
9.91075e-07
9.90927e-07
9.90815e-07
9.91265e-07
-9.42813e-13
-1.03265e-12
-1.05996e-12
-1.03635e-12
-1.03024e-12
-1.05478e-12
6.84082e-07
6.83718e-07
6.83646e-07
6.83924e-07
6.84054e-07
6.83219e-07
1.02083e-06
1.02082e-06
1.0208e-06
1.02075e-06
1.0207e-06
1.02066e-06
-2.91137e-16
-3.41723e-16
-3.80942e-16
-3.64437e-16
-3.49068e-16
-5.23985e-17
3.93347e-15
3.93525e-15
3.93631e-15
3.93601e-15
3.9372e-15
3.92947e-15
5.71227e-17
5.73183e-17
5.72988e-17
5.74631e-17
5.75462e-17
5.71811e-17
4.33533e-17
4.35037e-17
4.34953e-17
4.3619e-17
4.36497e-17
4.34429e-17
1.33453e-13
1.33077e-13
1.33317e-13
1.33306e-13
1.3347e-13
1.332e-13
3.92332e-15
3.92474e-15
3.92577e-15
3.92535e-15
3.92652e-15
3.91919e-15
2.16516e-18
2.17283e-18
2.1551e-18
2.11266e-18
2.04062e-18
2.21278e-18
1.52489e-11
1.51977e-11
1.52253e-11
1.52229e-11
1.5242e-11
1.5214e-11
-1.0676e-11
-1.06576e-11
-1.06672e-11
-1.06597e-11
-1.06573e-11
-1.0664e-11
8.81568e-14
8.97845e-14
8.90061e-14
9.12554e-14
9.41951e-14
8.62314e-14
1.23593e-09
1.22986e-09
1.23292e-09
1.23275e-09
1.23469e-09
1.23215e-09
2.75773e-10
2.76486e-10
2.76319e-10
2.76893e-10
2.7763e-10
2.7528e-10
1.14432e-10
1.15266e-10
1.14893e-10
1.16005e-10
1.1749e-10
1.1338e-10
1.50644e-08
1.4902e-08
1.49828e-08
1.49758e-08
1.50245e-08
1.49691e-08
1.92644e-08
1.92673e-08
1.92679e-08
1.92653e-08
1.92646e-08
1.9248e-08
-2.04519e-10
-2.02429e-10
-2.04099e-10
-2.02874e-10
-1.98992e-10
-2.09576e-10
8.37758e-06
8.38131e-06
8.38146e-06
8.38041e-06
8.3732e-06
8.38652e-06
3.12384e-07
3.12491e-07
3.12589e-07
3.12507e-07
3.12191e-07
3.1271e-07
2.71745e-08
2.7191e-08
2.71942e-08
2.7191e-08
2.72023e-08
2.71275e-08
0.192017
0.191996
0.192014
0.192026
0.192031
0.192002
8.34922e-06
8.35282e-06
8.35308e-06
8.35194e-06
8.34444e-06
8.35707e-06
-3.02372e-16
-1.85616e-15
-4.34926e-15
-2.78452e-15
-4.95422e-15
-2.41335e-15
2.90251e-11
2.91711e-11
2.91391e-11
2.91241e-11
3.02931e-11
2.81304e-11
8.38851e-09
8.40921e-09
8.3978e-09
8.41178e-09
8.63718e-09
8.17987e-09
-1.75134e-15
-1.75481e-15
-1.75321e-15
-1.77434e-15
-1.82093e-15
-1.68425e-15
4.14157e-11
4.14656e-11
4.14055e-11
4.15159e-11
4.2306e-11
4.05599e-11
1.0153e-09
1.00272e-09
1.00008e-09
1.0143e-09
9.5335e-10
1.0354e-09
1.01241e-07
9.99191e-08
9.96647e-08
1.01095e-07
9.46053e-08
1.03597e-07
1.12968e-06
1.12917e-06
1.12829e-06
1.13043e-06
1.12817e-06
1.1252e-06
1.02223e-07
1.00888e-07
1.00631e-07
1.02076e-07
9.55253e-08
1.04597e-07
4.01302e-05
4.01456e-05
4.00607e-05
4.01988e-05
4.11292e-05
3.88609e-05
4.4863e-07
4.48286e-07
4.48058e-07
4.47267e-07
4.46491e-07
4.46491e-07
0.00148664
0.00148653
0.00148511
0.00148761
0.00149706
0.00146999
0.00488116
0.00488186
0.00488024
0.00488365
0.00490225
0.00485694
0.00746572
0.00746831
0.007462
0.00747102
0.00751122
0.00741344
0.0303162
0.0303173
0.0303122
0.030326
0.0303715
0.0302499
0.00887855
0.0088799
0.0088791
0.00888224
0.00889525
0.00886617
0.138486
0.138481
0.138473
0.138506
0.138636
0.138314
0.0385404
0.0385419
0.0385414
0.0385502
0.0385652
0.0385273
-5.99194e-11
-5.99498e-11
-5.99471e-11
-5.99791e-11
-6.00518e-11
-5.98427e-11
4.67713e-51
4.68619e-51
4.68574e-51
4.6859e-51
4.68751e-51
4.67793e-51
8.06309e-53
8.07961e-53
8.07949e-53
8.07981e-53
8.08207e-53
8.06494e-53
3.22474e-56
3.23171e-56
3.23162e-56
3.23175e-56
3.23273e-56
3.2256e-56
1.05895e-46
1.06099e-46
1.0609e-46
1.06094e-46
1.0613e-46
1.05921e-46
3.68863e-48
3.69601e-48
3.696e-48
3.69613e-48
3.69709e-48
3.68968e-48
1.69524e-51
1.69879e-51
1.69875e-51
1.69881e-51
1.69927e-51
1.69569e-51
1.09441e-42
1.09645e-42
1.09634e-42
1.09636e-42
1.0967e-42
1.09458e-42
7.95219e-44
7.96731e-44
7.96723e-44
7.96735e-44
7.96908e-44
7.9538e-44
4.56633e-47
4.5755e-47
4.57539e-47
4.57547e-47
4.57656e-47
4.56726e-47
6.60245e-39
6.61433e-39
6.61351e-39
6.61343e-39
6.61526e-39
6.6027e-39
1.0209e-39
1.02273e-39
1.02272e-39
1.02272e-39
1.0229e-39
1.02104e-39
8.06523e-43
8.08057e-43
8.08039e-43
8.08045e-43
8.08213e-43
8.06661e-43
2.48813e-35
2.4924e-35
2.49205e-35
2.49196e-35
2.49256e-35
2.48795e-35
8.27601e-36
8.29012e-36
8.28995e-36
8.28981e-36
8.291e-36
8.27675e-36
1.03116e-38
1.03303e-38
1.03301e-38
1.033e-38
1.03318e-38
1.03129e-38
5.82061e-32
5.83013e-32
5.82919e-32
5.82887e-32
5.83026e-32
5.81957e-32
2.42771e-31
2.43075e-31
2.42975e-31
2.43066e-31
2.46827e-31
2.42883e-31
3.66206e-28
3.66621e-28
3.66437e-28
3.66628e-28
3.73371e-28
3.68241e-28
8.61963e-29
8.63274e-29
8.63119e-29
8.63102e-29
8.64477e-29
8.61726e-29
9.77802e-27
9.78903e-27
9.78577e-27
9.79277e-27
9.97242e-27
9.82974e-27
1.1118e-23
1.11299e-23
1.11257e-23
1.11345e-23
1.13359e-23
1.12413e-23
1.40783e-25
1.40974e-25
1.40948e-25
1.41013e-25
1.42504e-25
1.4112e-25
7.7331e-23
7.74146e-23
7.73893e-23
7.74583e-23
7.88597e-23
7.81605e-23
5.29259e-20
5.29795e-20
5.29582e-20
5.30106e-20
5.39422e-20
5.3676e-20
3.1143e-22
3.11833e-22
3.11752e-22
3.12017e-22
3.17126e-22
3.13927e-22
1.76628e-19
1.7681e-19
1.76735e-19
1.76924e-19
1.80022e-19
1.7904e-19
2.79814e-17
2.8007e-17
2.79965e-17
2.80233e-17
2.84717e-17
2.92172e-17
3.98914e-19
3.99386e-19
3.99153e-19
3.99547e-19
4.06626e-19
4.10154e-19
1.13033e-16
1.13151e-16
1.13079e-16
1.13233e-16
1.15292e-16
1.16846e-16
1.80464e-17
1.80461e-17
1.80465e-17
1.80449e-17
1.80393e-17
1.805e-17
2.60266e-16
2.60464e-16
2.60301e-16
2.60501e-16
2.64386e-16
2.55635e-16
7.42579e-14
7.42763e-14
7.42492e-14
7.43308e-14
7.50201e-14
7.33475e-14
9.65968e-14
9.66936e-14
9.66294e-14
9.67719e-14
9.85429e-14
9.46539e-14
1.60938e-13
1.61471e-13
1.61308e-13
1.61358e-13
1.66547e-13
1.56364e-13
3.21117e-11
3.2232e-11
3.22028e-11
3.22045e-11
3.32855e-11
3.12221e-11
1.31231e-11
1.31361e-11
1.3124e-11
1.31493e-11
1.33805e-11
1.28699e-11
)
;

boundaryField
{
    seabed_topleft_surface
    {
        type            zeroGradient;
    }
    seabed_topright_surface
    {
        type            zeroGradient;
    }
    breakwater_top_surface
    {
        type            zeroGradient;
    }
    breakwater_left_surface
    {
        type            zeroGradient;
    }
    breakwater_right_surface
    {
        type            zeroGradient;
    }
    water_front_surface
    {
        type            zeroGradient;
    }
    water_back_surface
    {
        type            zeroGradient;
    }
    water_left_surface
    {
        type            zeroGradient;
    }
    water_right_surface
    {
        type            zeroGradient;
    }
    water_top_surface
    {
        type            inletOutlet;
        inletValue      uniform 0;
        value           nonuniform List<scalar> 
180
(
0
0
0
0
0
0
0
0
0
0
0
0
0
0
0
0
0
0
0
0
0
0
0
0
0
0
0
0
0
0
0
0
0
0
0
0
0
0
0
0
0
0
0
0
0
0
0
0
0
0
0
0
0
0
-2.04519e-10
-2.02429e-10
-2.04099e-10
-2.02874e-10
-1.98992e-10
-2.09576e-10
2.71745e-08
2.7191e-08
2.71942e-08
2.7191e-08
2.72023e-08
2.71275e-08
0
0
0
0
0
0
0
0
0
0
0
0
1.01241e-07
9.99191e-08
9.96647e-08
1.01095e-07
9.46053e-08
1.03597e-07
4.01302e-05
4.01456e-05
4.00607e-05
4.01988e-05
4.11292e-05
3.88609e-05
0.00488116
0.00488186
0.00488024
0.00488365
0.00490225
0.00485694
0.00887855
0.0088799
0.0088791
0.00888224
0.00889525
0.00886617
0
0
0
0
0
0
0
0
0
0
0
0
0
0
0
0
0
0
0
0
0
0
0
0
0
0
0
0
0
0
0
0
0
0
0
0
0
0
0
0
0
0
0
0
0
0
0
0
0
0
0
0
0
0
0
0
0
0
0
0
0
0
0
0
0
0
9.65968e-14
9.66936e-14
9.66294e-14
9.67719e-14
9.85429e-14
9.46539e-14
1.31231e-11
1.31361e-11
1.3124e-11
1.31493e-11
1.33805e-11
1.28699e-11
)
;
    }
}


// ************************************************************************* //
