/*--------------------------------*- C++ -*----------------------------------*\
| =========                 |                                                 |
| \\      /  F ield         | OpenFOAM: The Open Source CFD Toolbox           |
|  \\    /   O peration     | Version:  v1612+                                |
|   \\  /    A nd           | Web:      www.OpenFOAM.com                      |
|    \\/     M anipulation  |                                                 |
\*---------------------------------------------------------------------------*/
FoamFile
{
    version     2.0;
    format      ascii;
    class       volScalarField;
    location    "2.3";
    object      p;
}
// * * * * * * * * * * * * * * * * * * * * * * * * * * * * * * * * * * * * * //

dimensions      [1 -1 -2 0 0 0 0];

internalField   nonuniform List<scalar> 
1116
(
22023.2
22023.3
22023.3
22023.3
22023.3
22023.3
20733.1
20733.1
20733.1
20733.1
20733.1
20733.1
17730.5
17730.5
17730.5
17730.5
17730.5
17730.5
15338.4
15338.4
15338.4
15338.4
15338.4
15338.4
13829.1
13829.1
13829.1
13829.1
13829.1
13829.1
12646.1
12646.1
12646.1
12646.1
12646.1
12646.1
11422.4
11422.5
11422.4
11422.4
11422.4
11422.4
10395.2
10395.2
10395.2
10395.2
10395.2
10395.1
10428.3
10428.3
10428.2
10428.2
10428.2
10428.2
13214.2
13214.2
13214.1
13214.1
13214.1
13214.1
18173.2
18173.2
18173.3
18173.2
18173.2
18173.2
25435.6
25435.7
25435.6
25435.6
25435.6
25435.6
11107.5
11107.5
11107.5
11107.6
11107.6
11107.6
8323.13
8323.1
8323.12
8323.14
8323.15
8323.14
5690.03
5690
5690.01
5690.01
5690.02
5690.06
4501.38
4501.34
4501.34
4501.34
4501.34
4501.37
3708.96
3708.94
3708.94
3708.93
3708.93
3708.94
3221.67
3221.66
3221.65
3221.64
3221.63
3221.63
2539.52
2539.51
2539.5
2539.48
2539.46
2539.44
1719.77
1719.75
1719.74
1719.71
1719.69
1719.67
792.6
792.587
792.573
792.557
792.551
792.55
1150.5
1150.54
1150.52
1150.51
1150.53
1150.48
4367.87
4368.02
4367.99
4367.95
4368
4367.87
17449.6
17449.6
17449.6
17449.5
17449.5
17449.6
2230.32
2230.3
2230.3
2230.32
2230.33
2230.34
539.758
539.739
539.743
539.75
539.753
539.754
239.138
239.13
239.131
239.132
239.134
239.139
79.198
79.1896
79.188
79.1871
79.1884
79.1907
-75.9789
-75.9782
-75.9786
-75.9789
-75.9791
-75.9794
-82.5024
-82.5011
-82.5011
-82.5019
-82.503
-82.5051
-74.6644
-74.6631
-74.662
-74.6619
-74.6628
-74.665
-64.9318
-64.9305
-64.9293
-64.9285
-64.929
-64.9272
-6.29808
-6.29691
-6.2987
-6.30243
-6.30732
-6.31036
165.994
165.993
165.984
165.973
165.965
165.945
724.497
724.516
724.498
724.485
724.498
724.45
4127.86
4128.11
4128.07
4128.07
4128.09
4128.16
-44.1364
-44.1362
-44.1362
-44.1357
-44.135
-44.135
-47.0769
-47.0764
-47.0766
-47.0769
-47.0768
-47.0769
-42.1478
-42.1474
-42.1473
-42.147
-42.1465
-42.1465
-47.4843
-47.4845
-47.4849
-47.4851
-47.4851
-47.4851
-46.9856
-46.9854
-46.9853
-46.9853
-46.9852
-46.9853
-48.5792
-48.5789
-48.5791
-48.5793
-48.5797
-48.5809
-62.5177
-62.518
-62.5181
-62.5181
-62.5186
-62.5203
-85.1101
-85.1105
-85.1105
-85.1073
-85.104
-85.0954
-95.1306
-95.1313
-95.1323
-95.1338
-95.1367
-95.1358
-66.2024
-66.2101
-66.2133
-66.2159
-66.2191
-66.2161
-59.6177
-59.6298
-59.6419
-59.6474
-59.6386
-59.6363
532.805
532.767
532.794
532.819
532.864
532.752
-5.14622
-5.14622
-5.14623
-5.14624
-5.14625
-5.14626
-5.15751
-5.15752
-5.15754
-5.15755
-5.15756
-5.15757
-5.1805
-5.18052
-5.18054
-5.18054
-5.18054
-5.18053
-5.2159
-5.21592
-5.21592
-5.21591
-5.21589
-5.21587
-5.26483
-5.26484
-5.26482
-5.2648
-5.26477
-5.26474
-5.32898
-5.32897
-5.32893
-5.32889
-5.32885
-5.32881
-5.41013
-5.41008
-5.41002
-5.40996
-5.4099
-5.40985
-5.50931
-5.50922
-5.50913
-5.50904
-5.50896
-5.50891
-5.62603
-5.62591
-5.62582
-5.62573
-5.62567
-5.62564
-5.75827
-5.75818
-5.75813
-5.75812
-5.75813
-5.75815
-5.89025
-5.89026
-5.89033
-5.89041
-5.89052
-5.89062
-6.00351
-6.00359
-6.00365
-6.00369
-6.00373
-6.00375
-14.9449
-14.9449
-14.9449
-14.9449
-14.9449
-14.9449
-14.9562
-14.9562
-14.9562
-14.9562
-14.9562
-14.9562
-14.9792
-14.9793
-14.9793
-14.9793
-14.9792
-14.9792
-15.0149
-15.0149
-15.0149
-15.0149
-15.0149
-15.0149
-15.0645
-15.0645
-15.0644
-15.0644
-15.0644
-15.0643
-15.129
-15.129
-15.1289
-15.1289
-15.1289
-15.1288
-15.2109
-15.2108
-15.2108
-15.2107
-15.2107
-15.2106
-15.3144
-15.3143
-15.3142
-15.3142
-15.3142
-15.3141
-15.4427
-15.4426
-15.4426
-15.4427
-15.4427
-15.4428
-15.5963
-15.5964
-15.5966
-15.5967
-15.5969
-15.5971
-15.7518
-15.752
-15.7522
-15.7524
-15.7527
-15.7529
-15.8958
-15.8959
-15.896
-15.8959
-15.8959
-15.8958
-24.733
-24.733
-24.733
-24.733
-24.733
-24.733
-24.7437
-24.7437
-24.7437
-24.7437
-24.7437
-24.7437
-24.7659
-24.7659
-24.7658
-24.7658
-24.7658
-24.7658
-24.8006
-24.8006
-24.8006
-24.8005
-24.8005
-24.8005
-24.8502
-24.8501
-24.8501
-24.8501
-24.8501
-24.85
-24.9184
-24.9184
-24.9183
-24.9183
-24.9183
-24.9183
-25.0106
-25.0105
-25.0105
-25.0105
-25.0105
-25.0105
-25.1302
-25.1302
-25.1302
-25.1302
-25.1303
-25.1303
-25.2797
-25.2797
-25.2798
-25.28
-25.2802
-25.2803
-25.467
-25.4671
-25.4673
-25.4676
-25.4679
-25.4682
-25.6821
-25.6823
-25.6825
-25.6827
-25.6829
-25.6829
-25.962
-25.962
-25.9617
-25.9614
-25.961
-25.9607
-34.5115
-34.5115
-34.5115
-34.5115
-34.5115
-34.5115
-34.521
-34.521
-34.521
-34.521
-34.521
-34.521
-34.5408
-34.5408
-34.5408
-34.5408
-34.5408
-34.5408
-34.5723
-34.5723
-34.5722
-34.5722
-34.5722
-34.5722
-34.618
-34.618
-34.618
-34.618
-34.618
-34.618
-34.6816
-34.6816
-34.6816
-34.6816
-34.6816
-34.6816
-34.7687
-34.7687
-34.7687
-34.7687
-34.7688
-34.7688
-34.8924
-34.8924
-34.8925
-34.8926
-34.8928
-34.8929
-35.0704
-35.0705
-35.0707
-35.0709
-35.0711
-35.0712
-35.3334
-35.3336
-35.3337
-35.3339
-35.334
-35.3341
-35.6861
-35.6861
-35.686
-35.6858
-35.6855
-35.6853
-36.1848
-36.1845
-36.1839
-36.183
-36.1823
-36.1817
-50.239
-50.2388
-50.2389
-50.239
-50.239
-50.2391
-60.0698
-60.0697
-60.0696
-60.0695
-60.0695
-60.0695
-70.2476
-70.2477
-70.2477
-70.2476
-70.2475
-70.2475
-51.3517
-51.3509
-51.3506
-51.3505
-51.3505
-51.3505
-60.7972
-60.7971
-60.797
-60.7969
-60.7968
-60.7968
-70.8917
-70.8917
-70.8917
-70.8917
-70.8916
-70.8916
-53.8579
-53.8578
-53.8578
-53.8578
-53.8577
-53.8575
-61.5152
-61.5152
-61.5153
-61.5153
-61.5153
-61.5153
-68.8461
-68.8461
-68.846
-68.846
-68.8459
-68.8459
-57.9581
-57.958
-57.9581
-57.9582
-57.9581
-57.9583
-62.8496
-62.8497
-62.8497
-62.8497
-62.8497
-62.8498
-71.8744
-71.8744
-71.8745
-71.8745
-71.8746
-71.8745
-62.2603
-62.2603
-62.2603
-62.2603
-62.2603
-62.2604
-63.3229
-63.323
-63.323
-63.3231
-63.3231
-63.3231
-71.2236
-71.2237
-71.2238
-71.2238
-71.2239
-71.2237
-66.5856
-66.5857
-66.5857
-66.5856
-66.5855
-66.5857
-66.6018
-66.602
-66.602
-66.602
-66.602
-66.602
-72.4081
-72.4081
-72.4081
-72.408
-72.408
-72.4079
-67.1576
-67.1577
-67.1578
-67.1574
-67.157
-67.1566
-68.0767
-68.0768
-68.0768
-68.0766
-68.0763
-68.076
-70.9471
-70.947
-70.9469
-70.9468
-70.9467
-70.9467
-74.3458
-74.345
-74.345
-74.3436
-74.3422
-74.3388
-70.479
-70.479
-70.4787
-70.4787
-70.478
-70.478
-68.5777
-68.5775
-68.5773
-68.5772
-68.5769
-68.5774
-81.4604
-81.4625
-81.4616
-81.4609
-81.4606
-81.4565
-70.5666
-70.5682
-70.5673
-70.5681
-70.5678
-70.5686
-63.3659
-63.3657
-63.3655
-63.3655
-63.3646
-63.3668
-66.6449
-66.6507
-66.6542
-66.6551
-66.653
-66.6456
-46.8554
-46.8548
-46.8554
-46.858
-46.8593
-46.8576
-58.4176
-58.416
-58.416
-58.4171
-58.4182
-58.4193
-65.6122
-65.6221
-65.6258
-65.6325
-65.6249
-65.6364
-30.7145
-30.7113
-30.7069
-30.7077
-30.7053
-30.7198
-55.0953
-55.0965
-55.0988
-55.0987
-55.0994
-55.1077
-54.4354
-54.5827
-54.5221
-54.592
-54.7594
-54.2914
-119.206
-119.205
-119.201
-119.213
-119.2
-119.217
-85.7487
-85.7531
-85.7593
-85.7605
-85.7622
-85.7871
-49.4512
-49.4508
-49.4509
-49.4478
-49.4426
-49.4369
-59.494
-59.4949
-59.4995
-59.4949
-59.4974
-59.454
-58.2027
-58.2018
-58.1996
-58.1957
-58.1909
-58.2144
-52.4089
-52.4081
-52.4093
-52.4067
-52.3944
-52.3889
-62.7865
-62.7915
-62.8016
-62.805
-62.8304
-62.6649
-54.1115
-54.1079
-54.1054
-54.0874
-54.0867
-54.1581
-59.6433
-59.6409
-59.6422
-59.6363
-59.6238
-59.6364
-64.6359
-64.6362
-64.641
-64.6342
-64.6391
-64.5808
-61.6912
-61.6924
-61.6944
-61.6805
-61.7271
-61.6307
-57.8663
-57.8651
-57.8648
-57.8618
-57.8471
-57.8833
-66.8521
-66.8504
-66.8509
-66.8407
-66.8279
-66.8433
-102.988
-103.003
-103.004
-102.992
-103.218
-102.697
-68.6231
-68.6185
-68.6462
-68.5693
-68.5167
-68.7826
-47.7109
-47.7019
-47.744
-47.6326
-47.3993
-48.0984
-242.659
-242.694
-242.713
-242.672
-242.89
-242.48
-1113.58
-1113.81
-1113.61
-1113.96
-1117.17
-1109.69
-107.513
-107.498
-107.555
-107.446
-107.514
-107.518
-156.116
-156.13
-156.139
-156.125
-156.184
-156.079
-44.2662
-44.2662
-44.2662
-44.2662
-44.2662
-44.2662
-54.0305
-54.0305
-54.0305
-54.0305
-54.0305
-54.0305
-63.791
-63.791
-63.791
-63.791
-63.791
-63.791
-44.2737
-44.2737
-44.2737
-44.2737
-44.2737
-44.2737
-54.0351
-54.0351
-54.0351
-54.0351
-54.0351
-54.0351
-63.7925
-63.7924
-63.7924
-63.7925
-63.7925
-63.7925
-44.2892
-44.2891
-44.2891
-44.2891
-44.2891
-44.2892
-54.0447
-54.0447
-54.0447
-54.0447
-54.0448
-54.0448
-63.7954
-63.7954
-63.7954
-63.7954
-63.7954
-63.7954
-44.3142
-44.3141
-44.3141
-44.3141
-44.3141
-44.3142
-54.0603
-54.0603
-54.0603
-54.0603
-54.0603
-54.0603
-63.7996
-63.7996
-63.7996
-63.7996
-63.7996
-63.7996
-44.3513
-44.3513
-44.3513
-44.3513
-44.3513
-44.3513
-54.0834
-54.0834
-54.0834
-54.0834
-54.0834
-54.0834
-63.8038
-63.8038
-63.8038
-63.8038
-63.8038
-63.8038
-44.4056
-44.4056
-44.4056
-44.4056
-44.4056
-44.4056
-54.118
-54.118
-54.118
-54.118
-54.118
-54.118
-63.8056
-63.8056
-63.8056
-63.8056
-63.8056
-63.8056
-44.4851
-44.4851
-44.4851
-44.4852
-44.4852
-44.4853
-54.1712
-54.1712
-54.1712
-54.1712
-54.1712
-54.1712
-63.7933
-63.7933
-63.7934
-63.7934
-63.7934
-63.7934
-44.6024
-44.6025
-44.6025
-44.6026
-44.6026
-44.6027
-54.2615
-54.2615
-54.2615
-54.2616
-54.2616
-54.2616
-63.7447
-63.7447
-63.7447
-63.7447
-63.7447
-63.7447
-44.7701
-44.7701
-44.7702
-44.7702
-44.7702
-44.7701
-54.4396
-54.4397
-54.4397
-54.4397
-54.4397
-54.4396
-63.5935
-63.5935
-63.5934
-63.5935
-63.5934
-63.5934
-45.0432
-45.0432
-45.0431
-45.0429
-45.0428
-45.0426
-54.79
-54.79
-54.79
-54.7898
-54.7897
-54.7895
-63.2264
-63.2264
-63.2263
-63.2264
-63.2262
-63.2263
-45.5194
-45.5192
-45.5189
-45.5183
-45.5178
-45.5175
-55.4542
-55.454
-55.454
-55.4531
-55.4533
-55.4523
-62.3699
-62.3699
-62.3695
-62.3696
-62.3689
-62.3695
-46.9199
-46.9195
-46.919
-46.9174
-46.9161
-46.9147
-56.6168
-56.6165
-56.617
-56.6141
-56.6142
-56.6094
-61.1327
-61.1326
-61.1317
-61.1316
-61.13
-61.1316
)
;

boundaryField
{
    seabed_topleft_surface
    {
        type            calculated;
        value           nonuniform List<scalar> 
72
(
26934.1
26934.1
26934.1
26934.1
26934.1
26934.1
25643.9
25643.9
25643.9
25643.9
25643.9
25643.9
22635.6
22635.6
22635.6
22635.6
22635.6
22635.6
20238.2
20238.2
20238.2
20238.2
20238.2
20238.2
18725.7
18725.6
18725.6
18725.6
18725.6
18725.6
17539.5
17539.5
17539.5
17539.5
17539.5
17539.5
16306.4
16306.4
16306.4
16306.3
16306.3
16306.3
15197
15197
15197
15196.9
15196.9
15196.9
15027.6
15027.5
15027.5
15027.5
15027.5
15027.5
17814.9
17814.8
17814.8
17814.8
17814.7
17814.8
22769.4
22769.4
22769.4
22769.4
22769.4
22769.4
29991
29991
29991
29991
29991
29991
)
;
    }
    seabed_topright_surface
    {
        type            calculated;
        value           nonuniform List<scalar> 
72
(
-0.22436
-0.224363
-0.224372
-0.224386
-0.224398
-0.224406
-0.235651
-0.235669
-0.235684
-0.235697
-0.235706
-0.23571
-0.258641
-0.258669
-0.25868
-0.258684
-0.258681
-0.258674
-0.294041
-0.294065
-0.294065
-0.294054
-0.294037
-0.294018
-0.342972
-0.34298
-0.342965
-0.34294
-0.34291
-0.342882
-0.407126
-0.40711
-0.407077
-0.407037
-0.406995
-0.406959
-0.488277
-0.488228
-0.488168
-0.488105
-0.488046
-0.487999
-0.587455
-0.587363
-0.587271
-0.587184
-0.587109
-0.587055
-0.704178
-0.704057
-0.70396
-0.703878
-0.703819
-0.703788
-0.836415
-0.836324
-0.836279
-0.836262
-0.836271
-0.836297
-0.968395
-0.968409
-0.96847
-0.968559
-0.968664
-0.968769
-1.08165
-1.08173
-1.08179
-1.08184
-1.08187
-1.0819
)
;
    }
    breakwater_top_surface
    {
        type            calculated;
        value           nonuniform List<scalar> 
36
(
-44.5462
-44.5458
-44.5459
-44.5428
-44.5376
-44.5319
-47.5039
-47.5031
-47.5043
-47.5017
-47.4894
-47.4839
-54.7328
-54.7304
-54.7317
-54.7257
-54.7133
-54.7259
-52.9591
-52.9579
-52.9576
-52.9546
-52.9399
-52.9761
-27.1353
-27.1181
-27.1767
-27.0556
-26.8061
-27.5511
-430.083
-430.334
-430.169
-430.36
-432.932
-427.031
)
;
    }
    breakwater_left_surface
    {
        type            calculated;
        value           nonuniform List<scalar> 
24
(
25451.2
25451.3
25451.2
25451.2
25451.2
25451.2
17463.5
17463.5
17463.5
17463.4
17463.4
17463.4
4139.05
4139.3
4139.26
4139.26
4139.28
4139.34
542.553
542.514
542.541
542.566
542.611
542.5
)
;
    }
    breakwater_right_surface
    {
        type            calculated;
        value           nonuniform List<scalar> 
24
(
-5.98665
-5.98673
-5.98679
-5.98684
-5.98687
-5.9869
-15.8792
-15.8794
-15.8795
-15.8794
-15.8793
-15.8792
-25.9458
-25.9458
-25.9456
-25.9452
-25.9448
-25.9445
-36.1689
-36.1686
-36.168
-36.1672
-36.1664
-36.1658
)
;
    }
    water_front_surface
    {
        type            calculated;
        value           nonuniform List<scalar> 
186
(
22023.2
20733.1
17730.5
15338.4
13829.1
12646.1
11422.4
10395.2
10428.3
13214.2
18173.2
25435.6
11107.5
8323.13
5690.03
4501.38
3708.96
3221.67
2539.52
1719.77
792.6
1150.5
4367.87
17449.6
2230.32
539.758
239.138
79.198
-75.9789
-82.5024
-74.6644
-64.9318
-6.29808
165.994
724.497
4127.86
-44.1364
-47.0769
-42.1478
-47.4843
-46.9856
-48.5792
-62.5177
-85.1101
-95.1306
-66.2024
-59.6177
532.805
-5.14622
-5.15751
-5.1805
-5.2159
-5.26483
-5.32898
-5.41013
-5.50931
-5.62603
-5.75827
-5.89025
-6.00351
-14.9449
-14.9562
-14.9792
-15.0149
-15.0645
-15.129
-15.2109
-15.3144
-15.4427
-15.5963
-15.7518
-15.8958
-24.733
-24.7437
-24.7659
-24.8006
-24.8502
-24.9184
-25.0106
-25.1302
-25.2797
-25.467
-25.6821
-25.962
-34.5115
-34.521
-34.5408
-34.5723
-34.618
-34.6816
-34.7687
-34.8924
-35.0704
-35.3334
-35.6861
-36.1848
-50.239
-60.0698
-70.2476
-51.3517
-60.7972
-70.8917
-53.8579
-61.5152
-68.8461
-57.9581
-62.8496
-71.8744
-62.2603
-63.3229
-71.2236
-66.5856
-66.6018
-72.4081
-67.1576
-68.0767
-70.9471
-74.3458
-70.479
-68.5777
-81.4604
-70.5666
-63.3659
-66.6449
-46.8554
-58.4176
-65.6122
-30.7145
-55.0953
-54.4354
-119.206
-85.7487
-49.4512
-59.494
-58.2027
-52.4089
-62.7865
-54.1115
-59.6433
-64.6359
-61.6912
-57.8663
-66.8521
-102.988
-68.6231
-47.7109
-242.659
-1113.58
-107.513
-156.116
-44.2662
-54.0305
-63.791
-44.2737
-54.0351
-63.7925
-44.2892
-54.0447
-63.7954
-44.3142
-54.0603
-63.7996
-44.3513
-54.0834
-63.8038
-44.4056
-54.118
-63.8056
-44.4851
-54.1712
-63.7933
-44.6024
-54.2615
-63.7447
-44.7701
-54.4396
-63.5935
-45.0432
-54.79
-63.2264
-45.5194
-55.4542
-62.3699
-46.9199
-56.6168
-61.1327
)
;
    }
    water_back_surface
    {
        type            calculated;
        value           nonuniform List<scalar> 
186
(
22023.3
20733.1
17730.5
15338.4
13829.1
12646.1
11422.4
10395.1
10428.2
13214.1
18173.2
25435.6
11107.6
8323.14
5690.06
4501.37
3708.94
3221.63
2539.44
1719.67
792.55
1150.48
4367.87
17449.6
2230.34
539.754
239.139
79.1907
-75.9794
-82.5051
-74.665
-64.9272
-6.31036
165.945
724.45
4128.16
-44.135
-47.0769
-42.1465
-47.4851
-46.9853
-48.5809
-62.5203
-85.0954
-95.1358
-66.2161
-59.6363
532.752
-5.14626
-5.15757
-5.18053
-5.21587
-5.26474
-5.32881
-5.40985
-5.50891
-5.62564
-5.75815
-5.89062
-6.00375
-14.9449
-14.9562
-14.9792
-15.0149
-15.0643
-15.1288
-15.2106
-15.3141
-15.4428
-15.5971
-15.7529
-15.8958
-24.733
-24.7437
-24.7658
-24.8005
-24.85
-24.9183
-25.0105
-25.1303
-25.2803
-25.4682
-25.6829
-25.9607
-34.5115
-34.521
-34.5408
-34.5722
-34.618
-34.6816
-34.7688
-34.8929
-35.0712
-35.3341
-35.6853
-36.1817
-50.2391
-60.0695
-70.2475
-51.3505
-60.7968
-70.8916
-53.8575
-61.5153
-68.8459
-57.9583
-62.8498
-71.8745
-62.2604
-63.3231
-71.2237
-66.5857
-66.602
-72.4079
-67.1566
-68.076
-70.9467
-74.3388
-70.478
-68.5774
-81.4565
-70.5686
-63.3668
-66.6456
-46.8576
-58.4193
-65.6364
-30.7198
-55.1077
-54.2914
-119.217
-85.7871
-49.4369
-59.454
-58.2144
-52.3889
-62.6649
-54.1581
-59.6364
-64.5808
-61.6307
-57.8833
-66.8433
-102.697
-68.7826
-48.0984
-242.48
-1109.69
-107.518
-156.079
-44.2662
-54.0305
-63.791
-44.2737
-54.0351
-63.7925
-44.2892
-54.0448
-63.7954
-44.3142
-54.0603
-63.7996
-44.3513
-54.0834
-63.8038
-44.4056
-54.118
-63.8056
-44.4853
-54.1712
-63.7934
-44.6027
-54.2616
-63.7447
-44.7701
-54.4396
-63.5934
-45.0426
-54.7895
-63.2263
-45.5175
-55.4523
-62.3695
-46.9147
-56.6094
-61.1316
)
;
    }
    water_left_surface
    {
        type            calculated;
        value           nonuniform List<scalar> 
42
(
22040.1
22040.1
22040.1
22040.1
22040.1
22040.1
11123.9
11123.9
11124
11124
11124
11124
2237.81
2237.79
2237.8
2237.82
2237.82
2237.83
-44.1205
-44.1203
-44.1203
-44.1199
-44.1192
-44.1191
-50.239
-50.2388
-50.2389
-50.239
-50.239
-50.2391
-60.0698
-60.0697
-60.0696
-60.0695
-60.0695
-60.0695
-70.2476
-70.2477
-70.2477
-70.2476
-70.2475
-70.2475
)
;
    }
    water_right_surface
    {
        type            calculated;
        value           nonuniform List<scalar> 
42
(
-5.12936
-5.12936
-5.12937
-5.12939
-5.1294
-5.12941
-14.9284
-14.9284
-14.9284
-14.9284
-14.9284
-14.9284
-24.7168
-24.7168
-24.7168
-24.7168
-24.7168
-24.7168
-34.4956
-34.4956
-34.4956
-34.4956
-34.4956
-34.4956
-44.2662
-44.2662
-44.2662
-44.2662
-44.2662
-44.2662
-54.0305
-54.0305
-54.0305
-54.0305
-54.0305
-54.0305
-63.791
-63.791
-63.791
-63.791
-63.791
-63.791
)
;
    }
    water_top_surface
    {
        type            calculated;
        value           nonuniform List<scalar> 
180
(
-75.111
-75.1114
-75.1113
-75.111
-75.111
-75.1108
-76.0661
-76.0668
-76.0667
-76.0668
-76.0668
-76.0664
-71.837
-71.8371
-71.8369
-71.8368
-71.8368
-71.8366
-74.0195
-74.0198
-74.0197
-74.0197
-74.0198
-74.0195
-72.4174
-72.4178
-72.4178
-72.4179
-72.4181
-72.4178
-73.2233
-73.2236
-73.2236
-73.2236
-73.2237
-73.2233
-72.9769
-72.9769
-72.9767
-72.9766
-72.9765
-72.9762
-71.6023
-71.6023
-71.6021
-71.6019
-71.6018
-71.6016
-69.7822
-69.782
-69.7818
-69.7817
-69.7816
-69.7819
-68.67
-68.67
-68.67
-68.67
-68.67
-68.67
-68.6719
-68.6719
-68.6719
-68.6719
-68.6719
-68.6719
-74.7309
-74.7196
-74.718
-74.7178
-74.7594
-74.6684
-68.6772
-68.6772
-68.6773
-68.6772
-68.6769
-68.6776
-68.6769
-68.6769
-68.6768
-68.6769
-68.6765
-68.6771
-71.423
-71.424
-71.4182
-71.4277
-71.4915
-71.3359
-403.524
-403.572
-403.461
-403.695
-404.971
-401.863
-677.75
-677.843
-677.788
-678.003
-678.896
-676.901
-69.2308
-69.2292
-69.2306
-69.2276
-69.2245
-69.2321
-68.6701
-68.6701
-68.6701
-68.6701
-68.6701
-68.6701
-68.6701
-68.6701
-68.6701
-68.6701
-68.6701
-68.6701
-68.6701
-68.6701
-68.6701
-68.6701
-68.6701
-68.6701
-68.6702
-68.6702
-68.6702
-68.6702
-68.6702
-68.6702
-68.6702
-68.6702
-68.6702
-68.6702
-68.6702
-68.6702
-68.6704
-68.6704
-68.6704
-68.6704
-68.6704
-68.6704
-68.6705
-68.6705
-68.6705
-68.6705
-68.6705
-68.6705
-68.6708
-68.6708
-68.6708
-68.6708
-68.6708
-68.6708
-68.671
-68.671
-68.671
-68.671
-68.671
-68.671
-68.6709
-68.6709
-68.6709
-68.6709
-68.6709
-68.6709
-68.67
-68.67
-68.67
-68.67
-68.67
-68.67
-68.67
-68.67
-68.67
-68.67
-68.67
-68.67
)
;
    }
}


// ************************************************************************* //
