/*--------------------------------*- C++ -*----------------------------------*\
| =========                 |                                                 |
| \\      /  F ield         | OpenFOAM: The Open Source CFD Toolbox           |
|  \\    /   O peration     | Version:  v1612+                                |
|   \\  /    A nd           | Web:      www.OpenFOAM.com                      |
|    \\/     M anipulation  |                                                 |
\*---------------------------------------------------------------------------*/
FoamFile
{
    version     2.0;
    format      ascii;
    class       surfaceScalarField;
    location    "2.3";
    object      phi;
}
// * * * * * * * * * * * * * * * * * * * * * * * * * * * * * * * * * * * * * //

dimensions      [0 3 -1 0 0 0 0];

internalField   nonuniform List<scalar> 
2916
(
-7.0226e-06
0.648132
-0.648125
-2.79799e-06
0.648135
-0.648139
-1.8106e-06
0.648135
-0.648136
-3.26328e-06
0.648135
-0.648134
-6.80141e-07
0.648136
-0.648139
0.648134
-0.648134
-8.81184e-06
1.33047
-0.682329
-3.82566e-06
1.33048
-0.682347
-3.74246e-06
1.33048
-0.682342
-3.31546e-06
1.33048
-0.682342
2.93906e-06
1.33048
-0.682347
1.33047
-0.682336
-5.80622e-06
1.76739
-0.436911
-2.97157e-06
1.7674
-0.436924
-4.55155e-06
1.7674
-0.436919
-4.59198e-06
1.7674
-0.43692
1.75765e-06
1.7674
-0.436926
1.76739
-0.436913
-4.77555e-06
2.07804
-0.310647
-4.7987e-06
2.07805
-0.310655
-7.72688e-06
2.07805
-0.310651
-7.21917e-06
2.07805
-0.310654
-1.14865e-07
2.07805
-0.310661
2.07804
-0.310649
-7.3833e-06
2.32025
-0.2422
-7.6677e-06
2.32026
-0.242207
-1.02529e-05
2.32026
-0.242204
-8.5413e-06
2.32026
-0.242209
-1.19374e-06
2.32026
-0.242216
2.32024
-0.242205
-1.16424e-05
2.53155
-0.211288
-1.03202e-05
2.53156
-0.211298
-1.16197e-05
2.53155
-0.211296
-9.63064e-06
2.53155
-0.2113
-2.05288e-06
2.53156
-0.211307
2.53153
-0.211297
-9.77191e-06
2.7308
-0.199244
-7.04207e-06
2.73081
-0.199258
-7.16987e-06
2.73081
-0.199255
-5.8466e-06
2.73081
-0.199257
1.13921e-06
2.73082
-0.199265
2.73079
-0.199255
-1.69973e-06
2.92125
-0.190453
3.048e-06
2.92128
-0.19047
2.80254e-06
2.92127
-0.190464
3.57763e-06
2.92128
-0.190466
8.27707e-06
2.92128
-0.190472
2.92126
-0.190458
2.79297e-07
2.84376
0.0774954
1.03223e-05
2.8438
0.0774708
9.98627e-06
2.84379
0.07748
9.28379e-06
2.84379
0.0774835
1.43699e-05
2.8438
0.0774762
2.84376
0.0775098
-5.35063e-07
2.16738
0.676379
7.71775e-06
2.16743
0.67636
1.01685e-05
2.16742
0.676369
1.02613e-05
2.16742
0.676373
9.09067e-06
2.16743
0.676368
2.16738
0.676388
3.52591e-06
0.9675
1.19988
7.1828e-07
0.967555
1.19988
4.94268e-06
0.967543
1.19988
3.29724e-06
0.967543
1.19988
-4.0375e-06
0.967569
1.19987
0.967502
1.19988
-4.40665e-05
0.967544
-2.22115e-05
0.967533
-1.64012e-05
0.967537
-1.16939e-05
0.967538
7.24446e-06
0.967549
0.967509
-6.3354e-06
0.727964
-1.37608
-5.22009e-06
0.727962
-1.3761
-3.90483e-06
0.727964
-1.3761
-1.17901e-05
0.727967
-1.37609
-1.5725e-05
0.727966
-1.3761
0.727957
-1.37611
4.60544e-06
1.48168
-1.43605
-5.71929e-06
1.48169
-1.43607
-7.61937e-06
1.48169
-1.43607
-8.75314e-06
1.48169
-1.43607
-1.01322e-05
1.4817
-1.43607
1.48168
-1.43607
9.85558e-06
1.90562
-0.860857
-5.94225e-06
1.90564
-0.860856
-1.15328e-05
1.90564
-0.860857
-1.2985e-05
1.90564
-0.860861
-2.05433e-05
1.90564
-0.860867
1.90562
-0.860869
1.34668e-05
2.25158
-0.656621
-3.19479e-06
2.25161
-0.656609
-9.51651e-06
2.2516
-0.656612
-1.11644e-05
2.2516
-0.656621
-2.12446e-05
2.25162
-0.656624
2.25158
-0.656634
1.90472e-05
2.48369
-0.474333
4.90143e-06
2.48374
-0.47432
-5.34831e-07
2.48373
-0.474324
-3.60312e-06
2.48373
-0.474333
-1.58909e-05
2.48375
-0.474333
2.48371
-0.474347
2.24391e-05
2.81147
-0.539086
1.24001e-05
2.81154
-0.539088
9.52581e-06
2.81153
-0.539089
6.29722e-06
2.81153
-0.539094
-6.09882e-06
2.81154
-0.539093
2.81151
-0.539103
2.86841e-05
3.29106
-0.678861
1.77321e-05
3.29117
-0.678871
1.64451e-05
3.29114
-0.678871
1.45114e-05
3.29115
-0.678873
1.5554e-06
3.29117
-0.678874
3.29112
-0.678863
3.35554e-05
3.83915
-0.73858
9.8076e-06
3.8393
-0.738579
1.38053e-06
3.83926
-0.738572
2.18444e-06
3.83926
-0.73858
-7.44174e-06
3.83929
-0.738581
3.83921
-0.738561
5.16528e-05
4.0729
-0.156306
1.63234e-05
4.07306
-0.156256
-6.34403e-06
4.073
-0.156241
-1.10265e-05
4.073
-0.156252
-1.56254e-05
4.07302
-0.156259
4.07295
-0.156243
2.8918e-05
3.53305
1.2162
1.82066e-05
3.53319
1.21624
-3.93518e-06
3.53313
1.21626
-1.56837e-05
3.53313
1.21625
-5.62555e-06
3.53314
1.21624
3.53308
1.21625
1.33623e-06
1.6326
3.10032
1.42185e-05
1.63272
3.10033
5.48389e-06
1.63268
3.10033
-1.46616e-06
1.63268
3.10033
2.52359e-05
1.63267
3.10032
1.63266
3.10032
-4.64907e-05
2.6002
-8.71047e-06
2.60022
-1.28722e-07
2.60021
1.68349e-05
2.6002
4.92319e-05
2.60018
2.60022
2.38975e-06
0.428745
-1.80483
-7.82237e-06
0.428739
-1.80483
-1.01915e-06
0.428746
-1.80485
-8.37696e-06
0.428744
-1.80483
-3.05245e-05
0.428739
-1.80482
0.428748
-1.80489
1.12254e-05
1.48066
-2.48797
-1.90028e-05
1.48066
-2.48796
-7.45468e-06
1.48065
-2.48799
-6.70518e-06
1.48066
-2.48798
-3.35261e-05
1.48067
-2.48798
1.48064
-2.488
1.45795e-05
2.11967
-1.49989
5.8634e-06
2.11967
-1.49985
2.00288e-05
2.11966
-1.49988
3.20784e-05
2.11967
-1.49988
9.07305e-06
2.11969
-1.49986
2.11971
-1.49993
8.78076e-05
2.87296
-1.41
7.34197e-05
2.87299
-1.40992
7.01348e-05
2.87299
-1.40994
5.33529e-05
2.87302
-1.40995
1.1208e-05
2.87305
-1.40994
2.87309
-1.41001
0.000131243
4.09393
-1.69543
0.000189319
4.09405
-1.69544
0.000180152
4.09411
-1.69543
0.000139991
4.09416
-1.69544
7.05135e-05
4.09419
-1.69541
4.09425
-1.69543
0.000112079
6.56736
-3.01263
0.000245857
6.56751
-3.01268
0.000264337
6.5676
-3.0126
0.000227994
6.56764
-3.01254
0.000202589
6.56762
-3.0125
6.56775
-3.0124
8.70356e-05
8.74895
-2.86054
0.000177066
8.74914
-2.86059
0.000217085
8.7492
-2.86051
0.000200808
8.74918
-2.86039
0.000165297
8.74912
-2.86033
8.74912
-2.86007
5.74212e-05
9.41889
-1.40858
-4.64706e-06
9.41911
-1.40848
-8.29051e-05
9.4191
-1.40839
-0.000131593
9.41895
-1.4083
-0.000348221
9.41908
-1.40833
9.41841
-1.40819
-0.000186828
7.25243
2.01034
-0.000425707
7.25262
2.01046
-0.000622189
7.25254
2.01051
-0.000669741
7.25236
2.01039
-0.000661131
7.25262
2.01019
7.25166
2.00983
-6.88208e-05
3.37478
5.09392
-8.72851e-05
3.37513
5.09375
-0.000174917
3.37501
5.09387
-0.00025013
3.37495
5.09373
2.79568e-05
3.37515
5.09344
3.37461
5.09333
-0.000103329
1.01176
5.46344
-8.38911e-06
1.01196
5.4634
-2.48962e-05
1.0119
5.46346
-5.1741e-05
1.01188
5.46342
0.000202268
1.01194
5.46327
1.01178
5.46336
-6.91541e-05
3.61203
7.05488e-06
3.6121
3.97867e-05
3.61208
6.73438e-05
3.61206
6.01358e-05
3.61213
3.61206
-1.36606e-05
0.320181
-2.125
-9.38291e-06
0.320181
-2.12501
2.52102e-05
0.32019
-2.12508
6.02656e-05
0.32016
-2.12502
5.66418e-05
0.320147
-2.12496
0.320242
-2.12507
-9.00433e-05
0.977002
-3.1447
-6.2008e-05
0.976931
-3.14474
-1.20146e-05
0.976897
-3.14474
-2.04959e-05
0.976922
-3.14473
-4.60786e-05
0.976948
-3.14475
0.976897
-3.1447
-5.3198e-05
1.12545
-1.64828
4.58661e-05
1.12527
-1.64829
9.20164e-05
1.12527
-1.6483
0.00012268
1.12531
-1.64829
0.00016252
1.12535
-1.6483
1.12545
-1.64831
9.39438e-05
0.898343
-1.18298
0.000192712
0.898279
-1.18302
0.000193352
0.89834
-1.18301
0.000150433
0.898397
-1.183
0.000120655
0.898434
-1.18299
0.898522
-1.18296
0.000133956
0.117466
-0.914687
0.000278292
0.117474
-0.914775
0.000286927
0.117631
-0.914735
0.000222676
0.11772
-0.914698
0.000173847
0.117742
-0.914664
0.117844
-0.914579
-0.000182128
-0.950001
-1.94499
-0.000149396
-0.950123
-1.94512
-0.000121939
-0.949935
-1.94506
-5.25126e-05
-0.949883
-1.945
0.000105162
-0.949931
-1.94498
-0.949665
-1.94479
-0.000303113
-1.21734
-2.5929
-0.000447778
-1.2175
-2.59307
-0.000510759
-1.21737
-2.59301
-0.000445031
-1.21742
-2.59291
-0.000234278
-1.21758
-2.59289
-1.2174
-2.59257
-0.000198882
0.0428812
-2.6686
-0.000375063
0.0429466
-2.66876
-0.000614274
0.0431273
-2.66865
-0.000693829
0.0429217
-2.66857
-0.00103395
0.0428705
-2.66844
0.0418514
-2.66848
2.19427e-05
1.56679
0.486407
-0.00022313
1.56731
0.486343
-0.000323121
1.56719
0.486542
-0.000380253
1.56695
0.486409
-0.000950648
1.56706
0.486564
1.56556
0.485169
0.000318615
1.49669
5.1637
-3.10821e-05
1.49732
5.16409
-2.91989e-05
1.49701
5.16404
-3.94752e-05
1.49696
5.16373
-0.000415892
1.49708
5.16379
1.49653
5.16194
0.000313145
1.13061
5.82921
0.000132159
1.13095
5.82995
3.33436e-05
1.13081
5.82976
6.61737e-05
1.13076
5.82959
0.000215675
1.13094
5.82926
1.13058
5.82953
-4.85562e-06
4.74264
5.33138e-05
4.74299
8.27851e-05
4.74286
3.69817e-05
4.74287
-6.94964e-05
4.74318
4.74257
4.10103e-07
0.00139801
-0.00139842
8.33501e-09
0.00139794
-0.00139854
-1.80792e-07
0.00139791
-0.00139857
-2.33729e-07
0.00139783
-0.00139862
-2.09496e-07
0.00139775
-0.00139865
0.00139761
-0.00139871
4.13436e-07
0.00284924
-0.00145229
-1.17131e-07
0.00284912
-0.00145223
-4.14493e-07
0.00284902
-0.00145223
-5.6116e-07
0.00284884
-0.00145228
-5.73733e-07
0.00284867
-0.00145234
0.00284845
-0.00145243
6.02936e-07
0.00440041
-0.00155245
-2.36878e-07
0.00440008
-0.00155179
-7.97026e-07
0.00439973
-0.00155162
-1.07262e-06
0.00439932
-0.00155161
-9.67331e-07
0.00439886
-0.00155168
0.00439835
-0.00155182
6.59741e-07
0.00610074
-0.00170176
-7.48768e-07
0.00609974
-0.00169983
-1.84131e-06
0.00609874
-0.00169926
-2.33471e-06
0.00609769
-0.00169916
-1.94763e-06
0.00609657
-0.00169932
0.00609536
-0.00169976
-8.89127e-08
0.00802303
-0.00192293
-2.61994e-06
0.00802005
-0.00191891
-4.64552e-06
0.00801752
-0.00191772
-5.38721e-06
0.0080151
-0.00191758
-4.23291e-06
0.00801264
-0.00191812
0.00800998
-0.00191943
-3.26707e-06
0.0102783
-0.0022525
-8.08154e-06
0.0102716
-0.00224718
-1.12113e-05
0.0102662
-0.002246
-1.17697e-05
0.0102615
-0.00224632
-8.73803e-06
0.010257
-0.00224785
0.0102518
-0.00225094
-1.16263e-05
0.0128887
-0.00259895
-1.95627e-05
0.0128757
-0.00259591
-2.31463e-05
0.0128667
-0.00259672
-2.22431e-05
0.0128597
-0.00259903
-1.56806e-05
0.0128532
-0.00260289
0.0128452
-0.00260912
-2.515e-05
0.0156141
-0.00270009
-3.47845e-05
0.0155931
-0.002707
-3.61194e-05
0.0155819
-0.00271329
-3.16255e-05
0.015575
-0.00271935
-2.09679e-05
0.015569
-0.00272616
0.0155598
-0.0027352
-3.52601e-05
0.0178604
-0.00221069
-4.06968e-05
0.0178333
-0.00223367
-3.55548e-05
0.0178234
-0.00224594
-2.61916e-05
0.0178203
-0.0022539
-1.47886e-05
0.0178183
-0.00225988
0.0178116
-0.00226583
-2.41505e-05
0.0175532
0.00033174
-1.86835e-05
0.017521
0.00030784
-7.09354e-06
0.0175126
0.000300058
2.94786e-06
0.0175122
0.00029884
6.81827e-06
0.0175136
0.00030173
0.0175118
0.000307573
1.7471e-06
0.0140817
0.00347021
1.5144e-05
0.0140544
0.00345419
2.76414e-05
0.014046
0.00345504
3.40505e-05
0.0140436
0.00346324
2.84301e-05
0.0140434
0.00347677
0.0140445
0.00349666
2.22665e-05
0.0140598
2.31245e-05
0.0140542
1.84029e-05
0.0140515
1.35779e-05
0.0140493
8.84182e-06
0.0140491
0.014054
1.09815e-08
0.00140959
-0.00280874
-2.19608e-07
0.00140946
-0.00280885
-3.2426e-07
0.00140938
-0.00280885
-3.67732e-07
0.00140927
-0.00280887
-3.88931e-07
0.00140918
-0.00280885
0.00140905
-0.00280884
-1.2594e-07
0.00288799
-0.00293165
-5.01331e-07
0.00288767
-0.00293155
-6.51635e-07
0.00288742
-0.00293148
-7.15341e-07
0.00288716
-0.00293147
-7.09239e-07
0.00288694
-0.00293146
0.00288672
-0.00293146
-4.92446e-07
0.00449938
-0.00316455
-1.13864e-06
0.00449862
-0.00316374
-1.393e-06
0.004498
-0.00316342
-1.41488e-06
0.00449743
-0.00316328
-1.17152e-06
0.0044969
-0.00316325
0.0044964
-0.00316333
-1.47811e-06
0.00629478
-0.00349691
-2.63021e-06
0.00629299
-0.00349466
-3.04434e-06
0.00629155
-0.0034938
-2.90013e-06
0.00629026
-0.00349346
-2.1338e-06
0.00628906
-0.00349353
0.00628789
-0.00349402
-3.92559e-06
0.0082382
-0.00386341
-6.01775e-06
0.00823401
-0.00385906
-6.56615e-06
0.00823084
-0.00385754
-5.98319e-06
0.00822814
-0.00385709
-4.1078e-06
0.00822565
-0.00385762
0.00822311
-0.00385931
-8.99405e-06
0.0101281
-0.00413396
-1.2473e-05
0.0101187
-0.0041289
-1.28967e-05
0.0101124
-0.00412767
-1.12546e-05
0.0101076
-0.00412803
-7.44671e-06
0.0101034
-0.00413004
0.0100987
-0.00413431
-1.73423e-05
0.0117962
-0.00424962
-2.14592e-05
0.0117767
-0.00424964
-2.01829e-05
0.0117662
-0.00425172
-1.62327e-05
0.0117596
-0.00425496
-1.00852e-05
0.0117542
-0.00426002
0.0117477
-0.00426807
-2.49051e-05
0.01313
-0.00400854
-2.55431e-05
0.0130947
-0.00402336
-1.90912e-05
0.0130798
-0.00403263
-1.15803e-05
0.0130736
-0.00404022
-5.25763e-06
0.0130704
-0.00404797
0.0130655
-0.00405752
-2.1633e-05
0.014051
-0.0031093
-9.97089e-06
0.0139934
-0.00314273
6.26785e-06
0.0139762
-0.00315728
1.72235e-05
0.0139746
-0.00316472
1.67892e-05
0.0139804
-0.00316821
0.0139868
-0.0031692
-3.58201e-06
0.014157
0.000230273
2.76728e-05
0.0140961
0.000175385
5.7438e-05
0.0140835
0.000164329
7.0667e-05
0.0140893
0.000172345
5.64994e-05
0.0141048
0.000192836
0.0141272
0.000224576
4.37542e-05
0.0124253
0.00515892
7.38717e-05
0.0123719
0.00514927
8.95394e-05
0.0123628
0.00516135
8.8854e-05
0.0123707
0.00518409
6.44086e-05
0.0123915
0.00521591
0.0124281
0.00526077
4.30221e-05
0.0264428
2.79745e-05
0.0264416
3.06654e-06
0.0264396
-1.57105e-05
0.0264392
-1.98506e-05
0.0264454
0.0264618
-2.69821e-07
0.00135803
-0.00416696
-2.96429e-07
0.00135794
-0.00416701
-3.12974e-07
0.00135789
-0.00416699
-3.06739e-07
0.00135782
-0.00416698
-2.86464e-07
0.00135777
-0.00416694
0.00135776
-0.00416692
-3.82689e-07
0.00279954
-0.00437329
-5.40322e-07
0.0027993
-0.00437317
-5.77514e-07
0.00279913
-0.00437308
-5.46033e-07
0.00279896
-0.00437303
-4.51499e-07
0.00279884
-0.00437299
0.00279882
-0.00437295
-7.21208e-07
0.00440539
-0.00477033
-1.12009e-06
0.00440488
-0.00476961
-1.20187e-06
0.00440447
-0.00476928
-1.07364e-06
0.00440409
-0.00476911
-7.71528e-07
0.0044038
-0.00476905
0.00440368
-0.00476912
-1.61676e-06
0.00627065
-0.00536129
-2.42175e-06
0.00626945
-0.00535934
-2.5209e-06
0.0062685
-0.00535855
-2.14783e-06
0.00626767
-0.0053582
-1.42463e-06
0.00626704
-0.00535825
0.00626663
-0.00535876
-3.69622e-06
0.00859857
-0.00618833
-4.9995e-06
0.00859551
-0.00618478
-4.88934e-06
0.00859343
-0.00618348
-3.93696e-06
0.00859184
-0.00618311
-2.39721e-06
0.00859071
-0.00618372
0.00858999
-0.00618556
-7.64412e-06
0.011841
-0.00736925
-9.06531e-06
0.0118335
-0.00736614
-7.96533e-06
0.0118295
-0.00736552
-5.76065e-06
0.0118271
-0.00736619
-3.11485e-06
0.0118258
-0.0073685
0.0118254
-0.00737309
-1.26953e-05
0.0163788
-0.00877481
-1.2208e-05
0.0163627
-0.00877917
-8.11935e-06
0.0163566
-0.00878289
-3.71434e-06
0.0163549
-0.00878714
-7.37545e-07
0.0163558
-0.00879296
0.0163583
-0.00880138
-1.3552e-05
0.0220938
-0.00970968
-4.86825e-06
0.0220647
-0.00973314
6.52335e-06
0.0220593
-0.00974587
1.40591e-05
0.0220634
-0.00975538
1.34006e-05
0.0220734
-0.00976387
0.0220872
-0.00977206
4.04926e-06
0.0285804
-0.00959907
2.92044e-05
0.0285421
-0.00964396
5.08642e-05
0.0285433
-0.00966171
5.88611e-05
0.0285608
-0.00966879
4.55291e-05
0.0285884
-0.00966868
0.028625
-0.00966093
4.95046e-05
0.0323962
-0.00363407
8.73284e-05
0.0323544
-0.00367373
0.000107384
0.0323649
-0.00367636
0.000104976
0.0323991
-0.00366253
7.27606e-05
0.0324503
-0.00363601
0.0325179
-0.00359587
6.4682e-05
0.031583
0.00590821
8.69608e-05
0.0315613
0.00592025
8.85268e-05
0.0315786
0.005946
7.37296e-05
0.0316157
0.00598207
4.37242e-05
0.0316698
0.00602639
0.0317402
0.00608107
-1.09554e-05
0.0580374
-5.39685e-05
0.0580459
-9.20593e-05
0.0580559
-0.000105862
0.058068
-8.59915e-05
0.0580944
0.0581143
-5.42381e-07
0.0012356
-0.00540211
-3.31998e-07
0.00123553
-0.00540214
-2.29723e-07
0.00123549
-0.00540208
-1.42743e-07
0.00123546
-0.00540204
-6.10286e-08
0.00123546
-0.005402
0.00123549
-0.00540193
-6.05843e-07
0.00257325
-0.00571015
-4.92252e-07
0.00257301
-0.00571005
-3.74129e-07
0.00257287
-0.00570995
-2.31131e-07
0.00257277
-0.00570987
-7.41686e-08
0.00257275
-0.00570981
0.00257276
-0.00570974
-9.43022e-07
0.00413115
-0.00632726
-9.55971e-07
0.00413058
-0.00632683
-7.61688e-07
0.00413026
-0.00632657
-4.72637e-07
0.00413006
-0.0063264
-1.71867e-07
0.00412998
-0.00632632
0.00413
-0.0063263
-1.67518e-06
0.00605677
-0.00728541
-1.81433e-06
0.00605542
-0.00728429
-1.39657e-06
0.00605479
-0.00728374
-8.09715e-07
0.00605448
-0.00728346
-3.03642e-07
0.00605439
-0.00728343
0.0060545
-0.00728373
-2.63523e-06
0.008449
-0.00857834
-2.61179e-06
0.00844639
-0.00857652
-1.66735e-06
0.00844546
-0.00857579
-6.15132e-07
0.00844525
-0.00857561
-5.57153e-09
0.00844544
-0.00857604
0.00844574
-0.00857717
-2.87314e-06
0.0111133
-0.0100312
-1.48594e-06
0.0111083
-0.0100302
7.24652e-07
0.0111074
-0.0100303
2.39672e-06
0.0111081
-0.0100313
2.4534e-06
0.0111096
-0.0100332
0.0111112
-0.0100362
1.44028e-06
0.0139739
-0.0116371
6.94311e-06
0.0139652
-0.0116417
1.16034e-05
0.0139654
-0.0116455
1.33697e-05
0.013969
-0.0116497
1.03617e-05
0.0139744
-0.0116545
0.0139806
-0.0116599
1.55611e-05
0.0171294
-0.0128803
2.9507e-05
0.0171161
-0.0128973
3.75384e-05
0.01712
-0.0129078
3.76963e-05
0.0171308
-0.0129165
2.70438e-05
0.0171459
-0.0129238
0.0171646
-0.0129287
3.96962e-05
0.0209194
-0.013428
6.2784e-05
0.0209071
-0.0134575
7.18961e-05
0.0209212
-0.0134716
6.6873e-05
0.0209467
-0.0134793
4.50858e-05
0.0209803
-0.0134811
0.0210225
-0.0134746
5.21515e-05
0.0261399
-0.00890599
7.21241e-05
0.0261432
-0.00893034
7.34272e-05
0.0261741
-0.00893124
5.93777e-05
0.026218
-0.00892075
3.29943e-05
0.0262699
-0.00890045
0.0263278
-0.00886989
9.36352e-06
0.0254078
0.00663091
-4.81838e-06
0.0254303
0.00664587
-2.57774e-05
0.0254724
0.00666695
-4.34889e-05
0.0255236
0.00669213
-4.63673e-05
0.0255738
0.00672303
0.0256137
0.00674684
-9.12847e-05
0.0835354
-0.000153791
0.0835364
-0.000186888
0.0835596
-0.000167311
0.0835702
-0.000123607
0.0836218
0.0836039
-4.70558e-05
-2.05447
-0.0704819
-1.65668e-05
-2.05452
-0.0705235
-1.55467e-05
-2.05456
-0.0705188
2.73378e-05
-2.05453
-0.0705347
0.000105607
-2.05451
-0.0705278
-2.05455
-0.0704132
1.0998e-05
-1.97054
-0.0839345
4.98209e-05
-1.97061
-0.0839479
4.54385e-05
-1.9706
-0.0839548
5.01886e-05
-1.97057
-0.083969
7.71417e-05
-1.97057
-0.0839747
-1.97052
-0.0839543
-4.41968e-07
-0.0248835
-1.94331e-05
-0.0248867
-3.29531e-05
-0.0248861
-3.74327e-05
-0.0248799
-3.14733e-05
-0.0248764
-0.0248879
-4.73655e-05
-2.49084
-0.7243
2.15381e-05
-2.49089
-0.724442
5.90153e-05
-2.49084
-0.724453
5.72997e-05
-2.49082
-0.724441
4.61426e-05
-2.49085
-0.724419
-2.49075
-0.724315
-4.34693e-05
-2.20892
-0.365813
-4.91718e-05
-2.20899
-0.36584
-3.56019e-05
-2.20896
-0.365849
-1.28467e-05
-2.20895
-0.365862
-3.9066e-06
-2.20897
-0.365865
-2.20888
-0.365829
2.07899e-05
-0.151154
9.9408e-06
-0.151151
3.97229e-06
-0.151155
3.68861e-07
-0.151153
-1.24424e-05
-0.151151
-0.151166
-2.44742e-05
-1.22535
-1.14721
-1.69553e-05
-1.22538
-1.14735
-2.99125e-05
-1.22536
-1.14737
-2.00476e-05
-1.22536
-1.14738
2.55712e-05
-1.22538
-1.14738
-1.22531
-1.14729
-5.05288e-06
-1.24328
-0.347876
-1.59413e-05
-1.24332
-0.347889
-1.83987e-05
-1.2433
-0.347909
-1.78766e-05
-1.2433
-0.347926
-2.02139e-05
-1.24331
-0.347934
-1.24324
-0.347925
1.13974e-05
-0.0275749
1.06409e-05
-0.0275685
1.17126e-05
-0.0275708
1.00816e-05
-0.0275701
-7.1559e-07
-0.0275693
-0.0275798
-1.20294e-05
-1.59291
-0.737257
-2.60676e-05
-1.59303
-0.737327
-4.10761e-05
-1.593
-0.737358
-3.56426e-05
-1.593
-0.73739
8.86185e-06
-1.59302
-0.737406
-1.59287
-0.737368
1.91105e-06
-1.74914
-0.191652
-3.26543e-05
-1.74923
-0.191649
-4.80861e-05
-1.74923
-0.191667
-5.416e-05
-1.74923
-0.191681
-5.62405e-05
-1.74926
-0.191694
-1.74915
-0.191712
2.68395e-05
0.00682021
2.47801e-05
0.00682506
1.73791e-05
0.00682389
3.76489e-06
0.00682352
-1.94034e-05
0.00682291
0.00681743
-7.90919e-05
-1.34625
-0.305609
-7.59331e-05
-1.3464
-0.305703
-5.03121e-05
-1.34637
-0.305749
-1.95485e-05
-1.34634
-0.305782
3.54155e-05
-1.34634
-0.305786
-1.34617
-0.305741
1.82439e-06
-1.52836
-0.00954964
-4.79696e-05
-1.52846
-0.00954687
-7.63164e-05
-1.52846
-0.00955016
-7.67067e-05
-1.52847
-0.00955459
-6.36938e-05
-1.52849
-0.00955964
-1.52839
-0.00955879
1.3255e-05
-0.0249721
7.01632e-06
-0.0249728
-1.32176e-07
-0.0249752
-9.5052e-06
-0.0249768
-2.53229e-05
-0.0249779
-0.024979
-0.000115405
-1.80394
-0.446536
-0.000142735
-1.80408
-0.446716
-0.00012807
-1.80408
-0.446743
-9.03539e-05
-1.80407
-0.446756
-2.08347e-05
-1.80408
-0.44676
-1.80391
-0.446639
1.64371e-05
-1.7483
-0.0652148
-2.12569e-05
-1.74838
-0.0652107
-4.47695e-05
-1.74838
-0.0652205
-5.42749e-05
-1.74838
-0.0652227
-5.24119e-05
-1.7484
-0.0652314
-1.74831
-0.0652088
-3.23914e-06
-0.128699
-1.35291e-05
-0.128702
-1.74447e-05
-0.128703
-1.81725e-05
-0.128704
-2.26848e-05
-0.128706
-0.128702
-0.000149932
-2.02719
-1.01209
-0.000148749
-2.0273
-1.01249
-0.000188597
-2.02728
-1.01243
-0.000170229
-2.02726
-1.01243
-9.63068e-05
-2.02725
-1.01247
-2.02709
-1.01223
-5.20136e-05
-1.65195
-0.440403
-8.8466e-05
-1.65201
-0.440466
-8.39029e-05
-1.652
-0.440501
-6.5599e-05
-1.652
-0.440502
-2.47769e-05
-1.65199
-0.44054
-1.65191
-0.440407
-1.48563e-05
-0.194463
-2.0575e-05
-0.194467
-2.05015e-05
-0.194469
-1.66008e-05
-0.194473
-5.7694e-06
-0.194487
-0.194462
-1.75075e-05
-2.13313
-1.54754
-3.73541e-05
-2.13325
-1.54797
-0.000122398
-2.13319
-1.5478
-0.000148148
-2.13316
-1.54781
-0.000242776
-2.13299
-1.54784
-2.1332
-1.54774
-3.6582e-05
-1.4313
-1.1422
-9.06008e-05
-1.43134
-1.14233
-7.53565e-05
-1.43134
-1.14237
-3.81991e-05
-1.43134
-1.14236
0.000108489
-1.43127
-1.1424
-1.43134
-1.14216
-3.6678e-05
-0.334746
-3.6468e-05
-0.334797
-3.99033e-05
-0.334812
-2.61927e-05
-0.334834
6.92505e-05
-0.334871
-0.334771
0.000625086
-1.00311
-0.0586581
0.000271213
-1.00318
-0.058091
0.000298692
-1.00295
-0.0583453
0.000205079
-1.00295
-0.0583549
-0.000341955
-1.0022
-0.058524
-1.00443
-0.0584867
0.000353793
-0.838561
-1.3071
0.0002024
-0.8385
-1.30686
0.000293349
-0.838481
-1.30693
0.000304775
-0.83845
-1.30688
0.000565822
-0.838065
-1.30679
-0.839028
-1.307
-0.000159801
-0.417989
-0.000144825
-0.418201
-0.000146198
-0.418212
-7.15933e-05
-0.418284
0.000298472
-0.418197
-0.418309
0.000844083
3.66722
1.43698
0.000395782
3.66821
1.43824
0.000433551
3.66808
1.43758
0.000342468
3.66785
1.43762
-0.000363729
3.66847
1.43749
3.66533
1.43776
0.000514328
1.96524
0.394372
0.000711619
1.96619
0.394965
0.000953979
1.96626
0.394653
0.000891418
1.96621
0.394833
0.00081037
1.96669
0.395076
1.9648
0.394346
-0.000158563
0.43777
7.19969e-05
0.437659
0.000213144
0.437689
0.000314125
0.437644
0.000459877
0.437897
0.437239
0.001732
4.92073
2.34372
0.00131436
4.92303
2.34558
0.000992126
4.92286
2.3448
0.000557813
4.92248
2.34517
0.00147444
4.91931
2.34653
4.92572
2.34305
0.000917468
2.883
2.43118
0.00137694
2.88545
2.43208
0.00148979
2.88591
2.43149
0.00112725
2.88581
2.43186
0.00235948
2.88125
2.43191
2.89102
2.4314
-0.000600128
1.98501
-0.000207402
1.98501
6.66469e-05
1.98517
3.80899e-05
1.98515
-0.000226451
1.98386
1.98652
0.000366709
2.66443
4.42156
0.00034653
2.66656
4.42203
0.000213247
2.66591
4.42189
0.000314896
2.66595
4.42199
0.000356132
2.66569
4.42398
2.66649
4.41948
0.00062748
0.477952
4.61704
0.000986788
0.480505
4.61778
0.000565432
0.480224
4.6176
0.000751545
0.480273
4.61735
0.00283113
0.47621
4.61931
0.485099
4.61563
-0.000354962
4.32124
-9.83147e-05
4.32155
-0.000189511
4.32165
-0.000153095
4.32157
0.000247653
4.32211
4.32086
-3.52424e-05
-0.162662
0.548236
-0.385538
-3.37411e-05
-0.162654
0.548173
-0.385521
-8.47428e-05
-0.162635
0.548255
-0.385569
-3.48845e-05
-0.162654
0.548088
-0.385484
-3.70791e-05
-0.162575
0.548156
-0.385579
-0.162766
0.548224
-0.385495
9.80994e-05
-0.306217
0.395379
-0.251923
6.86271e-05
-0.306201
0.395575
-0.251997
7.47006e-05
-0.306286
0.395736
-0.252091
0.000132175
-0.306158
0.395345
-0.251899
-0.00139856
-0.305827
0.397551
-0.252768
-0.306574
0.39359
-0.25118
-0.000116979
-0.841431
0.538496
-6.62631e-05
-0.841655
0.538526
-0.000408289
-0.841395
0.538632
-3.39265e-05
-0.842
0.538506
0.00231297
-0.845177
0.539094
-0.837983
0.538009
-2.18871e-05
-0.340702
0.888959
-3.01792e-05
-0.340699
0.88888
-8.90112e-05
-0.340634
0.888948
-5.60182e-05
-0.340708
0.888765
-0.000131444
-0.340818
0.889052
-0.340614
0.888708
0.000380998
0.116314
-0.062018
0.000184811
0.11673
-0.0616546
0.000707042
0.116197
-0.0616166
0.000685438
0.116808
-0.0621488
-0.00450084
0.122171
-0.0602514
0.110727
-0.0622515
5.60167e-05
-1.85131
7.86647e-05
-1.85206
-0.000376306
-1.85093
-0.000145761
-1.85303
0.00158817
-1.86425
-1.8385
-0.000122587
-0.40366
1.29274
-0.00010462
-0.403958
1.29282
-0.000324389
-0.403796
1.29296
-0.000149509
-0.403875
1.29246
0.000179231
-0.404771
1.2935
-0.403533
1.29242
0.000373947
1.51822
-1.98427
0.000172658
1.51857
-1.98398
0.000504431
1.51807
-1.98381
0.000364283
1.51874
-1.98462
-0.00433208
1.52468
-1.985
1.51104
-1.98115
0.000548998
-4.18197
0.000352831
-4.18282
0.00105011
-4.18195
0.000375778
-4.18339
-0.007385
-4.19494
-4.16891
-0.000139162
0.808919
0.483964
-8.17677e-05
0.808883
0.48389
-0.000449324
0.808803
0.484532
-4.3878e-05
0.808931
0.48313
0.00180853
0.810193
0.481452
0.807188
0.48704
-0.000145053
3.48346
-4.65867
-0.00013205
3.48371
-4.65882
-0.000297852
3.48347
-4.65831
-0.000206431
3.48373
-4.65951
-8.95187e-05
3.48788
-4.6628
3.47903
-4.65309
0.000305399
-5.943
0.000187633
-5.94365
0.000865129
-5.94347
0.000156416
-5.94367
-0.00601647
-5.95075
-5.93544
-0.000111116
2.22946
-1.74539
-0.000104066
2.22956
-1.74567
0.000145801
2.2293
-1.74502
-0.000311379
2.22958
-1.74599
-0.00105699
2.23221
-1.75001
2.22657
-1.74058
-8.73673e-05
3.27991
-5.70902
-7.12574e-05
3.28013
-5.7094
0.000188782
3.28001
-5.70928
-0.000504864
3.28014
-5.70938
-0.0011013
3.28209
-5.71208
3.27857
-5.70619
0.000181989
-6.29287
0.000116635
-6.29335
0.000419893
-6.29347
-0.000113292
-6.29309
-0.0034571
-6.29683
-6.28947
-5.36837e-05
2.67622
-0.000106378
2.67641
0.000425683
2.67634
7.31476e-05
2.67635
-0.00321889
2.67726
2.67568
3.61699e-05
1.5842
0.000126022
1.58469
0.00042796
1.58436
-0.000108205
1.58485
-0.00157907
1.58596
1.58353
0.000155334
0.000169769
0.000238189
0.000224648
-0.00286978
-5.14565e-07
-0.00629188
0.000890625
-2.1177e-07
-0.00629188
0.000890636
-7.53771e-08
-0.00629182
0.000890639
3.98196e-08
-0.00629179
0.000890638
1.38796e-07
-0.00629176
0.000890657
-0.00629168
0.000890696
-2.62306e-07
-0.00685207
0.000561073
-4.69304e-08
-0.00685203
0.000561104
6.4936e-08
-0.006852
0.000561114
1.51211e-07
-0.006852
0.000561129
2.363e-07
-0.006852
0.000561152
-0.00685198
0.000561184
-1.13939e-08
0.000185785
6.14484e-08
0.000185796
9.61632e-08
0.000185802
1.38408e-07
0.000185809
1.98668e-07
0.000185818
0.000185828
-4.78895e-07
-0.00667775
0.00185951
-2.17009e-07
-0.00667774
0.00185949
-5.39969e-08
-0.00667767
0.00185948
1.14125e-07
-0.00667762
0.00185946
2.85918e-07
-0.00667758
0.00185948
-0.00667749
0.00185948
-1.6068e-07
-0.00728694
0.00117146
3.7012e-08
-0.00728692
0.00117149
1.41722e-07
-0.0072869
0.0011715
2.49944e-07
-0.0072869
0.0011715
3.81016e-07
-0.00728692
0.00117151
-0.00728692
0.0011715
2.71098e-08
0.000372691
9.04152e-08
0.000372699
1.28804e-07
0.000372702
1.80655e-07
0.000372704
2.53822e-07
0.000372702
0.000372691
-5.52378e-07
-0.007473
0.00300643
-3.36537e-07
-0.00747296
0.00300641
-9.96936e-08
-0.00747285
0.00300641
1.3912e-07
-0.00747278
0.00300643
3.24756e-07
-0.00747275
0.00300648
-0.00747265
0.00300651
-6.66866e-08
-0.00819822
0.00189761
8.34806e-08
-0.00819822
0.00189764
1.72871e-07
-0.0081982
0.00189765
2.58912e-07
-0.00819821
0.00189766
3.29774e-07
-0.00819824
0.00189766
-0.00819824
0.00189763
5.89047e-08
0.000543388
1.0181e-07
0.000543384
1.33193e-07
0.000543382
1.70037e-07
0.000543379
2.10705e-07
0.000543369
0.000543352
-6.11946e-07
-0.00876159
0.0044835
-4.20211e-07
-0.00876138
0.00448356
-3.98309e-08
-0.00876124
0.00448371
2.9917e-07
-0.00876117
0.00448394
4.25911e-07
-0.00876118
0.00448418
-0.00876121
0.00448437
-1.65454e-08
-0.00971058
0.00284708
9.16142e-08
-0.00971059
0.0028471
1.92512e-07
-0.00971058
0.00284717
2.69941e-07
-0.0097106
0.00284723
2.74882e-07
-0.00971064
0.00284729
-0.00971064
0.00284731
7.59327e-08
0.000613929
9.33351e-08
0.000613915
1.08761e-07
0.000613924
1.15847e-07
0.000613936
1.09373e-07
0.000613945
0.00061395
-3.44855e-07
-0.0106843
0.00658955
1.61689e-07
-0.010684
0.00659005
8.63634e-07
-0.0106839
0.00659072
1.31399e-06
-0.010684
0.00659145
1.13182e-06
-0.0106842
0.00659213
-0.0106844
0.00659258
1.46869e-07
-0.0120553
0.00421786
3.16634e-07
-0.0120553
0.00421799
4.85287e-07
-0.0120554
0.0042182
5.24484e-07
-0.0120554
0.00421844
3.5716e-07
-0.0120556
0.00421866
-0.0120556
0.00421879
6.94328e-08
0.000328896
1.15297e-07
0.000328883
1.48047e-07
0.000328941
1.40337e-07
0.000329018
9.82911e-08
0.000329086
0.000329189
1.44436e-06
-0.0134831
0.0100396
3.02573e-06
-0.0134833
0.0100409
4.18742e-06
-0.0134837
0.0100424
4.47381e-06
-0.0134843
0.0100437
3.3173e-06
-0.0134851
0.0100448
-0.0134857
0.0100454
7.54487e-07
-0.015648
0.00638166
1.29998e-06
-0.0156482
0.00638198
1.58147e-06
-0.0156485
0.00638243
1.47422e-06
-0.0156488
0.00638287
9.12565e-07
-0.0156492
0.00638323
-0.0156494
0.00638348
1.63596e-07
-0.000915113
3.19373e-07
-0.00091512
4.11903e-07
-0.000915004
3.86951e-07
-0.000914836
2.87945e-07
-0.000914732
-0.000914497
6.94782e-06
-0.0176298
0.0160251
1.00071e-05
-0.0176313
0.0160272
1.0892e-05
-0.017633
0.0160289
9.84467e-06
-0.0176349
0.01603
6.5346e-06
-0.0176367
0.0160305
-0.0176381
0.0160304
2.19883e-06
-0.0213199
0.0100693
3.37827e-06
-0.0213205
0.0100698
3.74078e-06
-0.0213213
0.0100702
3.27579e-06
-0.0213222
0.0100705
2.06884e-06
-0.0213229
0.0100706
-0.0213234
0.0100706
5.93207e-07
-0.00477413
9.47179e-07
-0.00477423
1.206e-06
-0.00477421
1.03739e-06
-0.00477382
8.3913e-07
-0.00477394
-0.00477325
1.49456e-05
-0.0236216
0.0267517
1.8044e-05
-0.0236261
0.0267529
1.66703e-05
-0.0236298
0.0267522
1.27243e-05
-0.0236331
0.0267506
7.01064e-06
-0.0236359
0.0267482
-0.0236374
0.0267454
4.49894e-06
-0.0309945
0.0174376
5.74991e-06
-0.0309959
0.0174379
5.59304e-06
-0.0309974
0.0174376
4.25435e-06
-0.0309988
0.0174369
2.11797e-06
-0.0309998
0.017436
-0.0310003
0.0174345
1.23777e-06
-0.0151629
1.57564e-06
-0.0151632