/*--------------------------------*- C++ -*----------------------------------*\
| =========                 |                                                 |
| \\      /  F ield         | OpenFOAM: The Open Source CFD Toolbox           |
|  \\    /   O peration     | Version:  v1612+                                |
|   \\  /    A nd           | Web:      www.OpenFOAM.com                      |
|    \\/     M anipulation  |                                                 |
\*---------------------------------------------------------------------------*/
FoamFile
{
    version     2.0;
    format      ascii;
    class       surfaceScalarField;
    location    "5";
    object      alphaPhi;
}
// * * * * * * * * * * * * * * * * * * * * * * * * * * * * * * * * * * * * * //

dimensions      [0 3 -1 0 0 0 0];

internalField   nonuniform List<scalar> 
2916
(
-2.45345e-06
0.0461954
-1.41914e-07
-2.96898e-06
0.046196
-1.4248e-07
-7.96289e-07
0.0461961
-1.42131e-07
-2.07706e-06
0.0461963
-1.42056e-07
-4.21946e-06
0.046196
-1.42219e-07
0.0461952
-1.41937e-07
-1.53137e-06
0.0756261
-4.13939e-06
-2.51788e-06
0.0756289
-4.14873e-06
-5.88194e-07
0.0756285
-4.14589e-06
-2.47656e-06
0.0756283
-4.14539e-06
-5.70705e-06
0.0756284
-4.1467e-06
0.0756272
-4.14208e-06
1.7914e-06
0.00467237
0.0402978
-1.39758e-07
0.00468319
0.0402969
-1.48044e-06
0.00468097
0.0402973
-4.00323e-06
0.0046807
0.040298
-5.31772e-06
0.00468283
0.0402964
0.00467695
0.0402945
2.28232e-06
-0.181827
0.131724
-1.42183e-06
-0.181818
0.131731
-3.46527e-06
-0.18182
0.131728
-5.23337e-06
-0.181819
0.131727
-5.62208e-06
-0.181817
0.131726
-0.181824
0.131722
1.84799e-05
-0.809307
0.289357
7.04827e-06
-0.809272
0.289375
1.15308e-06
-0.809272
0.289365
-5.87212e-06
-0.809274
0.289366
-1.68249e-05
-0.809265
0.28937
-0.809298
0.28936
-2.00508e-06
-1.3705
0.425407
1.76617e-05
-1.37051
0.425429
1.23486e-05
-1.37048
0.425421
-1.99001e-06
-1.37048
0.425427
-1.04539e-05
-1.37048
0.425434
-1.37051
0.42542
-4.83825e-05
-1.70565
0.334488
1.90938e-05
-1.70575
0.334461
1.44886e-05
-1.70566
0.334483
-1.58743e-06
-1.70566
0.334491
1.2374e-05
-1.70569
0.334484
-1.70569
0.334485
-4.39518e-05
-1.7765
0.0701292
1.58958e-05
-1.77671
0.0701314
5.2215e-06
-1.77659
0.0701635
-4.37445e-06
-1.77658
0.0701635
1.98157e-05
-1.77664
0.0701606
-1.77656
0.0701152
0.000151648
-1.53194
-0.245524
2.53708e-05
-1.53215
-0.245237
-2.67715e-05
-1.53203
-0.245315
-1.44394e-05
-1.53205
-0.245354
-7.05396e-05
-1.53212
-0.245268
-1.53196
-0.245478
0.000380291
-1.05812
-0.474505
2.11873e-05
-1.05815
-0.473951
-7.04391e-05
-1.05811
-0.474142
-3.9908e-05
-1.05817
-0.474224
-0.000215922
-1.05821
-0.474055
-1.05807
-0.474412
0.000229954
-0.445101
-0.61163
-1.84374e-05
-0.445016
-0.61127
-6.66964e-05
-0.445027
-0.611409
-6.12839e-05
-0.445076
-0.611476
-0.000229114
-0.445054
-0.611365
-0.445063
-0.611617
-0.000136111
-0.441006
-6.04069e-05
-0.441138
-2.58329e-05
-0.441106
-4.24017e-05
-0.441102
-3.91769e-05
-0.441102
-0.441143
-8.68838e-12
6.81186e-08
-4.87508e-07
-5.1454e-12
6.81227e-08
-4.88087e-07
-1.37212e-12
6.81148e-08
-4.87805e-07
1.68305e-12
6.81119e-08
-4.87791e-07
5.26167e-12
6.81131e-08
-4.87879e-07
6.81095e-08
-4.87581e-07
-8.70831e-12
3.23963e-07
-4.67227e-06
-1.45893e-11
3.2452e-07
-4.6828e-06
-9.54193e-12
3.24299e-07
-4.67957e-06
5.12652e-13
3.24309e-07
-4.67907e-06
6.56023e-12
3.24394e-07
-4.68065e-06
3.24014e-07
-4.67486e-06
9.61146e-07
0.00343422
-0.000957956
-3.91669e-07
0.00344398
-0.000958163
-4.76253e-07
0.00343929
-0.000958012
-1.7931e-07
0.00343875
-0.000958008
-5.89933e-07
0.00344151
-0.000958044
0.00343638
-0.000957855
1.65165e-05
-0.0186949
-0.0033611
-1.68882e-06
-0.0186973
-0.0033696
-3.8164e-06
-0.0186961
-0.00336607
-6.25852e-07
-0.0186938
-0.00336396
-8.2588e-06
-0.0186941
-0.00336672
-0.0186937
-0.00336343
9.17425e-05
-0.617244
0.0077843
1.13112e-05
-0.617322
0.00782387
-5.77492e-06
-0.617263
0.0078034
-2.24028e-06
-0.617244
0.00779865
-5.2388e-05
-0.617264
0.00781063
-0.617254
0.00778752
0.000178107
-1.55405
0.23516
1.52277e-05
-1.55407
0.235504
-5.55596e-06
-1.55404
0.235348
3.26628e-06
-1.55404
0.235327
-0.000114229
-1.55404
0.235446
-1.55408
0.235239
0.000111166
-1.45226
0.231786
7.19992e-06
-1.45247
0.232156
-1.14294e-05
-1.45236
0.232013
8.74553e-06
-1.45234
0.23197
-6.45034e-05
-1.45239
0.232104
-1.45234
0.231879
0.000242619
-1.24782
-0.135385
3.24019e-06
-1.24802
-0.1349
-3.35664e-05
-1.24792
-0.135062
2.13343e-05
-1.24791
-0.13515
-0.00010097
-1.24795
-0.134985
-1.24787
-0.13528
0.000361292
-0.84983
-0.472359
6.67573e-06
-0.849701
-0.472034
-3.62832e-05
-0.849756
-0.472137
2.01793e-05
-0.849773
-0.472214
-0.00015567
-0.849716
-0.472095
-0.849771
-0.472307
-4.36448e-07
-0.467208
-0.465338
-3.93375e-05
-0.466486
-0.465359
-3.08679e-05
-0.46679
-0.465341
-3.27322e-05
-0.466826
-0.465367
-5.66145e-05
-0.466601
-0.465346
-0.467017
-0.465406
-0.000399749
-0.304521
-0.417857
-7.17433e-05
-0.303917
-0.417899
6.23728e-06
-0.304171
-0.417898
-4.58397e-05
-0.304194
-0.417867
8.63876e-05
-0.304017
-0.417856
-0.304389
-0.417953
-0.000245198
-0.421987
-7.25621e-05
-0.421805
-3.9205e-05
-0.421921
-3.94477e-05
-0.4219
6.50834e-05
-0.421765
-0.422107
-3.30401e-11
-6.54956e-07
6.50648e-09
-1.13739e-11
-6.56384e-07
6.46681e-09
-5.78165e-12
-6.55949e-07
6.4739e-09
1.88223e-12
-6.55684e-07
6.4746e-09
2.06195e-11
-6.56164e-07
6.46694e-09
-6.54625e-07
6.50864e-09
-2.71589e-09
-1.03055e-05
4.74409e-06
-3.49135e-11
-1.03298e-05
4.75012e-06
2.86626e-11
-1.03194e-05
4.74601e-06
3.00495e-10
-1.03171e-05
4.74446e-06
1.99106e-09
-1.03224e-05
4.74607e-06
-1.03071e-05
4.74272e-06
-7.13572e-08
-0.00114993
0.000115253
-1.14531e-09
-0.00115033
0.000115169
6.18339e-10
-0.00115003
0.00011516
2.04972e-08
-0.00115011
0.000115232
7.07152e-08
-0.00115015
0.000115174
-0.00114979
0.000115204
7.86258e-06
-0.00553313
-0.000596961
-2.67498e-07
-0.00552079
-0.000604316
-9.92636e-07
-0.00552598
-0.000601614
6.19622e-07
-0.00552858
-0.000599147
-3.66991e-06
-0.00552355
-0.000601587
-0.00552961
-0.000598625
5.52508e-05
-0.273569
0.000699466
-3.14491e-06
-0.273708
0.000714083
-6.80938e-06
-0.273634
0.00070768
-3.85185e-07
-0.273609
0.000705945
-3.24694e-05
-0.273635
0.000711161
-0.273541
0.000703111
0.000202975
-1.03739
-0.120252
8.33137e-06
-1.03788
-0.120053
-1.57778e-05
-1.03764
-0.120128
3.68839e-06
-1.03764
-0.120178
-0.000115045
-1.03778
-0.120102
-1.03748
-0.120193
-3.50046e-05
-0.850671
-0.131771
8.05217e-06
-0.850922
-0.13182
-1.37036e-05
-0.850792
-0.131774
-4.3701e-06
-0.850845
-0.13181
4.2786e-05
-0.850937
-0.131829
-0.850743
-0.13177
-0.000402422
-0.406411
-0.00218651
-9.42616e-06
-0.406378
-0.00218634
-3.49691e-05
-0.406386
-0.00218531
-5.82925e-05
-0.406446
-0.00218768
0.000261745
-0.406442
-0.00218863
-0.406431
-0.0021866
-0.000525129
-0.0117404
-0.000225813
-4.40888e-05
-0.0116477
-0.000226375
1.7074e-05
-0.0116934
-0.000226226
-5.12e-05
-0.0116971
-0.000225961
0.000248441
-0.0116704
-0.000225955
-0.0117567
-0.000226328
-0.000319146
0.114522
-0.000476751
-2.43389e-05
0.114498
-0.000477909
4.71329e-05
0.114485
-0.000477629
-6.55002e-06
0.114542
-0.000477102
0.000129646
0.114531
-0.00047721
0.114439
-0.00047765
-0.000216688
0.0158385
-0.00201632
-1.15615e-05
0.0157298
-0.00201655
2.75463e-05
0.0157533
-0.00201707
9.69763e-06
0.0158269
-0.00201504
0.000179509
0.0156294
-0.00201285
0.0158699
-0.00202024
0.000124277
-0.0319355
2.11065e-05
-0.031959
5.60506e-06
-0.0319618
3.60346e-06
-0.031939
-0.000123824
-0.0319706
-0.031951
-4.60979e-12
2.01915e-08
1.43739e-08
-1.76043e-12
2.02547e-08
1.43191e-08
-1.59218e-12
2.02167e-08
1.43366e-08
-1.2306e-12
2.01768e-08
1.4341e-08
5.38431e-13
2.02364e-08
1.43163e-08
2.02461e-08
1.43743e-08
-4.19385e-11
3.99685e-06
3.74674e-07
3.70772e-11
4.00628e-06
3.7232e-07
-1.04188e-10
4.00118e-06
3.73125e-07
-1.03397e-11
3.99825e-06
3.73813e-07
1.58706e-12
4.00149e-06
3.72912e-07
3.99615e-06
3.74349e-07
1.03081e-08
7.54575e-05
2.35167e-05
1.29861e-08
7.55648e-05
2.33889e-05
-1.30156e-10
7.5519e-05
2.34251e-05
4.49052e-09
7.54848e-05
2.34958e-05
3.34533e-09
7.55091e-05
2.34476e-05
7.54468e-05
2.35063e-05
3.50936e-07
-0.0189439
0.00103573
-2.14361e-07
-0.0188327
0.00102787
-3.20694e-07
-0.0188822
0.00103101
-1.30547e-07
-0.0188945
0.00103273
-2.58665e-07
-0.0188473
0.00102965
-0.0189115
0.0010338
1.1725e-06
-0.093064
0.00230841
-6.14672e-06
-0.0931042
0.00232567
-7.74038e-06
-0.0930573
0.00231826
-1.13908e-06
-0.093132
0.00231531
1.3244e-06
-0.0931642
0.00232252
-0.0930831
0.00231451
-3.73012e-05
-0.0685639
-5.86147e-06
-5.4e-06
-0.0685846
-5.87513e-06
-9.10336e-06
-0.0685431
-5.86918e-06
-5.10949e-06
-0.068619
-5.86916e-06
2.68686e-05
-0.0686546
-5.87679e-06
-0.0685761
-5.87614e-06
-3.70295e-05
0.00216914
-2.25185e-05
-3.18171e-06
0.00216886
-2.25563e-05
-5.60237e-06
0.00216785
-2.25431e-05
-7.03878e-06
0.00217029
-2.25438e-05
2.25264e-05
0.00217128
-2.25618e-05
0.00216907
-2.25723e-05
-6.80757e-09
1.14346e-06
-1.78893e-05
-1.25035e-09
1.14516e-06
-1.79094e-05
-1.20714e-09
1.14624e-06
-1.79036e-05
-2.50908e-09
1.14297e-06
-1.78972e-05
2.03584e-09
1.14148e-06
-1.79028e-05
1.1446e-06
-1.79094e-05
-6.90447e-09
1.16489e-05
-0.000100806
-3.31902e-09
1.16577e-05
-0.000101036
-3.80417e-09
1.16596e-05
-0.000100991
-4.7932e-09
1.16483e-05
-0.000100829
2.28059e-09
1.16401e-05
-0.000100782
1.16634e-05
-0.000101101
2.07149e-09
1.40356e-05
-0.000475507
3.23241e-10
1.4028e-05
-0.000476643
1.71502e-09
1.40355e-05
-0.000476373
1.05069e-09
1.40329e-05
-0.000475855
1.6962e-09
1.40272e-05
-0.000475964
1.40327e-05
-0.000476381
1.36971e-10
2.1701e-06
-0.00200276
2.32963e-10
2.07425e-06
-0.0020029
4.49513e-10
2.1104e-06
-0.00200344
2.16704e-10
2.14199e-06
-0.00200145
3.10435e-10
2.12624e-06
-0.00199925
2.11848e-06
-0.00200663
1.09096e-06
-0.0319308
-1.97635e-07
-0.0319521
-6.9218e-07
-0.0319556
3.08683e-07
-0.0319343
9.21342e-07
-0.0319655
-0.0319443
-1.77998e-06
-0.000199257
5.68632e-05
1.92818e-07
-0.000240724
6.96323e-05
-2.39874e-06
-0.000181583
5.01163e-05
-2.80332e-06
-0.000241666
6.78671e-05
1.14781e-05
-0.000234649
0.000103647
-0.000106845
3.2163e-05
-3.17162e-05
-0.00104225
0.000614721
2.93414e-06
-0.00130824
0.000705605
-4.78018e-05
-0.000900536
0.000554568
-0.000101495
-0.00119527
0.00069154
0.000305944
-0.00230537
0.0011444
-0.000355217
0.00041228
-0.000186163
-0.0241566
0.004142
7.37292e-05
-0.037423
0.00461758
-0.000261125
-0.0102275
0.00387497
-0.000657432
-0.0386926
0.00462427
0.00274591
-0.123374
0.00640987
-0.00623616
0.00336534
0.00049008
-0.26678
0.00432695
0.0013659
-0.251614
0.00292201
0.00212649
-0.209932
0.00495538
0.00303094
-0.289668
0.00366469
0.0019831
-0.350798
0.000116401
-0.154843
0.00718917
0.00199327
-0.268257
-0.000455288
0.00402166
-0.279886
-0.000429038
0.00875094
-0.26238
-0.000409183
0.00572432
-0.28507
-0.000427319
-0.00349593
-0.332495
-0.000443813
-0.224087
-0.0003787
0.00261141
-0.262538
-0.00261071
0.00512432
-0.260034
-0.00246815
0.013501
-0.263891
-0.00228183
0.00919855
-0.275367
-0.00223845
-0.00956169
-0.290857
-0.00216972
-0.263964
-0.00200391
0.00251815
-0.307917
-0.0122359
0.00527292
-0.340039
-0.0127932
0.013523
-0.343213
-0.0135231
0.00954828
-0.358234
-0.0108917
-0.0115333
-0.378978
-0.00711493
-0.333669
-0.0136949
0.00021272
-0.29963
-0.0419466
0.00231533
-0.304653
-0.0318955
0.00889608
-0.30377
-0.0301845
0.00336429
-0.310569
-0.02105
-0.0106779
-0.325055
-0.0145805
-0.297099
-0.0279466
-0.00343481
-0.136126
-0.154477
-0.00234378
-0.135008
-0.154898
0.00362105
-0.130395
-0.158257
-0.00653186
-0.138071
-0.137044
-0.0110206
-0.169863
-0.124103
-0.125386
-0.159782
-0.0024636
0.0122601
-0.205107
0.00098355
0.0115894
-0.210225
0.0302144
0.00611553
-0.201523
-0.00106772
0.0222114
-0.269013
-0.0459209
0.0710467
-0.169456
-0.00742626
-0.203987
0.00237338
0.0110029
-0.0303164
0.00615363
0.0104422
-0.0339253
0.0216029
0.0153175
-0.0465814
0.0154462
0.00931878
-0.0222294
-0.0232788
0.010072
-0.000581159
0.0154298
-0.101146
0.000482221
0.00929574
0.000827485
0.00899948
0.00309318
0.00677498
0.00163106
0.0100338
-0.00158017
0.01071
0.00575209
-1.08692e-06
1.72416e-05
1.98853e-05
5.15473e-08
1.82348e-05
2.37129e-05
-1.15501e-06
1.32704e-05
1.88482e-05
-5.65707e-07
1.25006e-05
2.57129e-05
1.05677e-05
-8.99118e-06
4.84546e-05
1.92143e-05
1.12294e-05
-1.56059e-05
-0.00415955
0.00140556
-1.05474e-05
-0.00462638
0.00152405
-7.84327e-06
-0.00391985
0.00133723
1.11901e-05
-0.00491656
0.00164293
2.05287e-05
-0.00773726
0.00198066
-0.00332404
0.00100629
4.96502e-05
-0.00935677
0.00112835
-0.000186872
-0.00938013
0.000990619
0.000138567
-0.00935351
0.0012463
0.000191714
-0.00973151
0.00103682
-0.00104407
-0.00802873
-0.00102969
-0.0083337
0.00172272
4.56277e-05
0.000173878
-0.000287922
-7.92028e-05
0.000165564
-0.000248554
-0.00011493
0.000177546
-0.000318465
-8.7163e-05
0.000176625
-0.000253271
-0.000191705
0.000134998
-0.000178424
0.000183109
-0.000444177
2.23626e-07
-0.000280537
-1.03558e-06
1.01709e-07
-0.000262318
-9.87597e-07
-4.7041e-07
-0.000230117
-9.00603e-07
-5.97834e-07
-0.000249617
-9.1119e-07
1.17822e-06
-0.000309547
-9.99856e-07
-0.000193641
-7.48758e-07
4.70923e-06
-0.00289486
-9.5925e-07
4.83138e-06
-0.00272948
-9.81276e-07
4.15361e-06
-0.00251012
-1.02458e-06
6.11857e-06
-0.002489
-9.16706e-07
2.93069e-06
-0.00247539
-5.7777e-07
-0.0021933
-1.20577e-06
3.71411e-05
-0.0151378
-2.93159e-05
5.04743e-05
-0.0155054
-2.98635e-05
0.000116291
-0.0160673
-3.09411e-05
0.000139326
-0.0133771
-2.57157e-05
-0.000137522
-0.0093017
-1.16582e-05
-0.0159943
-3.04811e-05
-0.00019197
-0.0802572
-0.00112997
-6.8676e-05
-0.0813768
-0.00114159
0.000699149
-0.0820475
-0.0011909
0.00036383
-0.0678189
-0.000906133
-0.00189988
-0.0577845
-0.000414712
-0.0815052
-0.0011724
-0.00156354
-0.209288
-0.0427637
-0.0016674
-0.212831
-0.0443168
0.00165989
-0.221717
-0.0477389
-0.000612769
-0.177689
-0.0360568
-0.00989718
-0.173073
-0.0159795
-0.240275
-0.051664
-0.00237718
-0.19415
-0.219012
-0.00475112
-0.200421
-0.226507
-0.00341045
-0.205126
-0.228143
-0.00362335
-0.198343
-0.254393
-0.0143692
-0.113244
-0.161709
-0.215774
-0.237427
0.00524251
-0.00563088
-0.200313
0.00574075
-0.00589306
-0.210645
0.00767111
-0.0304396
-0.22957
0.00561581
-0.00587049
-0.186922
-0.00321494
-0.00557175
-0.0616133
-0.040803
-0.271025
0.000705374
0.00183936
0.00144956
0.00138243
0.00290223
-0.0258799
0.00227001
0.00419313
-0.000754396
0.00764363
-0.0364077
-6.66967e-08
7.24973e-06
1.64201e-06
7.11178e-10
7.14357e-06
1.7978e-06
-6.21629e-08
7.46789e-06
1.58419e-06
5.13535e-09
5.96304e-06
1.93072e-06
9.34393e-07
-2.06668e-05
4.15546e-06
2.84848e-06
1.21068e-06
-3.21812e-06
-0.000333556
2.65079e-05
-4.49284e-06
-0.0003818
6.57727e-06
1.82022e-06
-0.000340114
4.08601e-05
5.61881e-06
-0.000409805
2.50886e-05
-8.31602e-06
-0.0004616
4.2299e-05
-0.000239876
6.99292e-05
-5.78377e-06
-0.000214072
1.3822e-05
-4.26052e-05
-0.000217731
8.7811e-06
1.00107e-05
-0.00025109
2.15539e-05
-1.58777e-05
-0.00020837
6.78308e-06
-0.00017628
-0.000127349
-3.76671e-06
-0.000290138
4.7297e-05
-2.82449e-06
-3.62159e-06
-2.79445e-05
-7.28627e-06
-3.60004e-06
-2.38093e-05
-1.08562e-05
-3.81635e-06
-3.31655e-05
-3.62835e-06
-3.47582e-06
-1.99e-05
-1.72248e-06
-2.92003e-06
-5.47691e-06
-4.0782e-06
-5.11206e-05
-6.71841e-09
-5.63053e-07
-3.94896e-06
-1.80464e-08
-5.6466e-07
-3.87812e-06
-5.19352e-08
-5.49355e-07
-4.0028e-06
-3.7891e-08
-5.51196e-07
-3.729e-06
4.78497e-08
-6.03816e-07
-3.28094e-06
-5.48634e-07
-4.11087e-06
1.01791e-09
-6.47088e-07
-7.73983e-07
-8.28041e-09
-6.59655e-07
-7.65906e-07
-3.91956e-08
-6.66685e-07
-7.8517e-07
-2.78634e-08
-5.83709e-07
-8.10999e-07
5.6996e-08
-3.48793e-07
-7.97378e-07
-6.49255e-07
-9.60123e-07
-1.63276e-09
-2.98517e-05
-1.06794e-07
-5.05677e-08
-3.03671e-05
-1.04274e-07
-1.32389e-07
-3.14142e-05
-1.08218e-07
-4.5483e-08
-2.62847e-05
-9.80138e-08
6.67914e-08
-1.20432e-05
-6.96562e-08
-3.09328e-05
-1.24687e-07
-8.86161e-07
-0.001159
-7.61887e-10
-3.01408e-06
-0.00116989
-7.08399e-10
-5.14058e-06
-0.00122023
-7.43306e-10
-1.5963e-06
-0.000936002
-6.16991e-10
1.2263e-06
-0.000429595
-3.44847e-10
-0.00120211
-8.19901e-10
-4.37755e-05
-0.0436391
-0.00023107
-0.000103766
-0.0451594
-0.00025708
-0.000129232
-0.0486547
-0.00026716
-2.24343e-05
-0.0367702
-0.000323737
-0.000146956
-0.0158995
-0.000383341
-0.0526309
-0.000374566
-0.00206567
-0.166465
-0.0470054
-0.00591644
-0.170414
-0.0489289
-0.0124578
-0.174238
-0.0536011
-0.00145532
-0.169926
-0.0399494
-0.000268254
-0.148809
-0.0131457
-0.190146
-0.0596223
-0.00455455
-0.119507
-0.337534
-0.0168775
-0.126266
-0.346826
-0.0515899
-0.130674
-0.352447
-0.0440249
-0.090563
-0.378206
0.0434786
-0.00327814
-0.333123
-0.134186
-0.33441
0.00247814
-0.180342
-0.00100294
-0.188152
-0.0598719
-0.21644
-0.0001127
-0.1518
0.001568
0.00215517
-0.221002
-1.76054e-09
1.10632e-06
1.2448e-07
-1.68753e-10
1.11936e-06
1.30901e-07
-1.78077e-09
1.10784e-06
1.21805e-07
3.61847e-11
1.17271e-06
1.36251e-07
2.18621e-08
1.81897e-06
1.26994e-07
9.39817e-07
9.46799e-08
-1.70226e-07
3.80368e-05
2.16788e-06
-1.85159e-07
3.87409e-05
2.32159e-06
-4.15165e-08
3.72795e-05
2.11123e-06
2.26852e-07
3.96882e-05
2.42936e-06
4.67689e-08
3.63329e-05
2.76096e-06
3.21524e-05
1.7012e-06
-3.7574e-07
4.72628e-05
2.18093e-06
-1.64717e-06
4.46267e-05
1.94282e-06
5.01208e-08
5.18719e-05
2.28639e-06
-9.91296e-07
4.35642e-05
1.86505e-06
-5.817e-06
3.72405e-05
1.11682e-06
6.62372e-05
2.91363e-06
-2.84859e-09
2.68191e-06
-1.23995e-06
-1.14945e-07
2.77956e-06
-1.15417e-06
-1.17589e-08
2.71725e-06
-1.32428e-06
-1.37004e-07
2.55676e-06
-1.07311e-06
-5.91229e-07
1.85734e-06
-6.21058e-07
2.6581e-06
-1.87094e-06
4.06772e-08
7.89602e-07
-8.20882e-07
1.0558e-08
7.62563e-07
-8.58852e-07
1.87979e-08
7.83792e-07
-7.77374e-07
-4.03947e-08
7.38736e-07
-7.83958e-07
-1.21428e-07
4.26144e-07
-6.39828e-07
8.90379e-07
-8.51439e-07
6.20384e-09
9.98449e-08
-2.06889e-07
8.80041e-09
9.73821e-08
-2.05217e-07
1.23098e-08
1.00967e-07
-2.08701e-07
4.06476e-09
9.04412e-08
-2.03958e-07
-6.90254e-09
6.26859e-08
-1.95802e-07
1.16157e-07
-2.09988e-07
2.27459e-11
7.80368e-10
-7.92975e-09
2.14216e-11
7.31656e-10
-7.79638e-09
6.49756e-12
7.41627e-10
-8.05276e-09
-2.50355e-11
6.5876e-10
-8.26317e-09
2.72539e-11
5.96051e-10
-7.80807e-09
8.39296e-10
-9.28369e-09
-1.81381e-12
9.24889e-11
-8.8001e-11
-3.78509e-12
9.15171e-11
-8.50219e-11
-8.09273e-12
9.43038e-11
-8.67663e-11
-8.84358e-12
1.32396e-10
-9.14381e-11
6.29096e-12
3.33803e-10
-8.5561e-11
1.34429e-10
-9.5775e-11
-7.83162e-08
-0.000230991
8.29771e-11
-2.31453e-07
-0.000256927
2.89167e-11
-7.01833e-07
-0.000266691
3.82281e-11
-2.50889e-06
-0.000321932
4.27125e-11
2.14139e-06
-0.000387993
-2.33376e-11
-0.000372425
3.79046e-11
-7.40832e-05
-0.0462306
-0.000922498
-0.000169104
-0.0481415
-0.000938586
-0.000260736
-0.0527989
-0.000964781
-0.000223796
-0.0394262
-0.000875704
3.79755e-05
-0.013279
-0.00050682
-0.0589057
-0.00104283
-0.00372938
-0.19827
-0.0840248
-0.0106496
-0.200812
-0.0849802
-0.0241263
-0.204873
-0.0869862
-0.0142303
-0.222793
-0.0859974
0.00885663
-0.189248
-0.0686474
-0.223447
-0.0911906
-0.00959043
-0.292805
-0.0314639
-0.29091
-0.0897296
-0.286883
-0.103599
-0.284559
0.0908777
-0.304271
-0.276366
-1.98281e-13
6.57126e-09
1.24859e-08
-3.97833e-13
6.55304e-09
1.24083e-08
-5.8e-13
6.55918e-09
1.24362e-08
-6.2075e-13
6.55284e-09
1.24411e-08
-7.44506e-13
6.54294e-09
1.2409e-08
6.57461e-09
1.24781e-08
1.91204e-14
1.63211e-09
1.85095e-10
-5.15947e-15
1.63163e-09
1.8642e-10
-2.27871e-14
1.63107e-09
1.85856e-10
-3.26218e-14
1.63071e-09
1.86677e-10
-5.26372e-14
1.63062e-09
1.87233e-10
1.63082e-09
1.85044e-10
5.40342e-16
2.25987e-12
-4.12477e-16
2.25504e-12
-1.47972e-15
2.25569e-12
-2.07932e-15
2.25474e-12
-2.2277e-15
2.25188e-12
2.2575e-12
-9.75122e-12
3.62904e-08
1.17216e-06
-4.9791e-12
3.71905e-08
1.17327e-06
-9.43836e-12
3.68513e-08
1.1721e-06
-7.39e-12
3.72504e-08
1.17396e-06
-5.9266e-12
3.76504e-08
1.17407e-06
3.62281e-08
1.17352e-06
-5.02633e-13
2.95868e-09
1.31024e-09
-2.85588e-13
2.95741e-09
1.22978e-09
-4.04639e-13
2.95673e-09
1.25811e-09
-4.07277e-13
2.95734e-09
1.23332e-09
-2.33575e-13
2.95645e-09
1.19753e-09
2.95863e-09
1.31669e-09
-7.13787e-15
1.41281e-10
-5.18613e-15
1.40539e-10
-8.06304e-15
1.40781e-10
-8.46339e-15
1.40916e-10
-4.97254e-15
1.40625e-10
1.41126e-10
3.07799e-11
7.78812e-07
1.07266e-05
3.90019e-10
7.75551e-07
1.06925e-05
-5.9705e-10
7.76404e-07
1.06938e-05
-4.21089e-10
7.77701e-07
1.07391e-05
-2.0624e-10
7.76468e-07
1.0724e-05
7.78519e-07
1.07477e-05
-2.5817e-11
2.41137e-08
6.32136e-07
-4.9516e-12
2.40702e-08
6.30083e-07
-1.3472e-11
2.40776e-08
6.30531e-07
-1.35531e-11
2.41077e-08
6.31782e-07
-2.20161e-12
2.40891e-08
6.3107e-07
2.41102e-08
6.31789e-07
-5.25744e-13
1.49268e-08
-1.4385e-13
1.49023e-08
-2.12669e-13
1.49051e-08
-2.26204e-13
1.49266e-08
1.7363e-14
1.49166e-08
1.49279e-08
-1.43422e-07
-3.27152e-05
-0.000678036
2.74772e-08
-3.1585e-05
-0.000675486
9.48824e-09
-3.19862e-05
-0.000675908
-3.86111e-08
-3.23983e-05
-0.000677883
8.52366e-08
-3.19735e-05
-0.000677072
-3.25513e-05
-0.000678281
-1.95052e-09
1.37612e-06
4.543e-05
9.2754e-10
1.37079e-06
4.52325e-05
1.94151e-10
1.37187e-06
4.52795e-05
-6.2454e-10
1.37573e-06
4.54105e-05
9.65677e-10
1.37371e-06
4.53405e-05
1.3761e-06
4.54179e-05
-4.18833e-11
8.13049e-07
1.12711e-11
8.09937e-07
-4.14524e-12
8.10592e-07
-6.57203e-12
8.12796e-07
2.57893e-11
8.11631e-07
8.13002e-07
-2.27011e-07
5.19726e-06
-5.07122e-06
-4.58143e-07
5.478e-06
-5.06773e-06
-4.77714e-07
5.40472e-06
-5.06853e-06
-4.85112e-07
5.2444e-06
-5.07121e-06
1.27368e-07
5.35407e-06
-5.07098e-06
5.22959e-06
-5.07253e-06
1.96448e-08
1.26494e-05
5.14015e-05
-6.22506e-09
1.26286e-05
5.1495e-05
-7.73501e-09
1.26289e-05
5.14583e-05
-1.1791e-08
1.26539e-05
5.14426e-05
-1.9632e-08
1.26469e-05
5.14716e-05
1.26563e-05
5.1414e-05
1.03636e-10
5.82078e-06
3.8895e-11
5.81792e-06
6.67851e-11
5.81767e-06
-9.51963e-11
5.82161e-06
-1.94322e-10
5.82133e-06
5.82301e-06
3.54654e-09
-1.73094e-06
-9.94758e-06
-1.32822e-10
-1.73792e-06
-9.94354e-06
-3.29652e-10
-1.7347e-06
-9.94483e-06
-9.97749e-11
-1.73484e-06
-9.94728e-06
-1.57604e-09
-1.73698e-06
-9.94805e-06
-1.73043e-06
-9.95033e-06
1.2878e-08
1.03782e-05
-9.41405e-07
-6.99795e-11
1.04186e-05
-9.39509e-07
-7.1196e-10
1.03988e-05
-9.38167e-07
-4.20278e-10
1.04009e-05
-9.42457e-07
-7.88394e-09
1.04155e-05
-9.29865e-07
1.03839e-05
-9.23511e-07
1.04644e-09
9.57231e-06
-1.43086e-11
9.58599e-06
1.19828e-10
9.57941e-06
-1.42254e-10
9.57923e-06
-1.3324e-09
9.58628e-06
9.57024e-06
2.86978e-09
-2.01251e-05
-1.30861e-05
-5.1255e-10
-2.0143e-05
-1.30954e-05
-7.10839e-10
-2.01356e-05
-1.30937e-05
-6.75062e-10
-2.01424e-05
-1.30875e-05
-2.85689e-09
-2.0152e-05
-1.30862e-05
-2.01463e-05
-1.31005e-05
2.63483e-08
-1.60695e-06
-4.43494e-06
1.47517e-09
-1.56363e-06
-4.42668e-06
-5.28074e-10
-1.58266e-06
-4.42657e-06
2.84391e-09
-1.5926e-06
-4.43353e-06
-1.42363e-08
-1.57668e-06
-4.43316e-06
-1.60803e-06
-4.43763e-06
1.72039e-10
5.05678e-06
-1.20084e-10
5.06667e-06
8.76042e-10
5.0617e-06
4.93144e-10
5.06157e-06
-2.90782e-10
5.06404e-06
5.05249e-06
1.90095e-09
-1.10761e-05
-3.72017e-05
-5.15701e-10
-1.10723e-05
-3.72736e-05
1.88959e-11
-1.10761e-05
-3.72566e-05
-8.53657e-10
-1.10728e-05
-3.71983e-05
-5.27499e-09
-1.10699e-05
-3.7181e-05
-1.10792e-05
-3.72623e-05
2.03468e-09
-1.0832e-05
-1.02456e-07
1.25552e-10
-1.08681e-05
-1.04776e-07
7.30151e-10
-1.0851e-05
-1.04529e-07
1.20478e-09
-1.08481e-05
-1.0278e-07
-1.79207e-09
-1.08507e-05
-1.03466e-07
-1.08174e-05
-1.0438e-07
-8.48801e-10
-3.66549e-09
2.60627e-10
-5.52632e-10
8.55209e-10
-2.01889e-09
7.25051e-10
-2.33384e-09
1.38753e-09
-1.69128e-09
-4.10279e-09
1.16873e-08
-3.5585e-07
-0.000132391
3.85527e-09
-3.61835e-07
-0.000132664
1.07204e-08
-3.58116e-07
-0.000132612
2.45352e-09
-3.59548e-07
-0.000132391
-3.34827e-08
-3.54666e-07
-0.000132274
-3.62166e-07
-0.000132717
-4.15427e-12
-7.69887e-07
-5.01133e-07
1.17071e-11
-7.79117e-07
-5.00248e-07
2.98916e-11
-7.74817e-07
-5.00393e-07
1.15895e-11
-7.74752e-07
-4.9878e-07
-4.17817e-11
-7.7543e-07
-4.93872e-07
-7.6954e-07
-5.07166e-07
-6.38223e-11
1.45456e-08
2.93888e-11
1.47406e-08
5.27022e-11
1.46518e-08
4.64687e-11
1.46099e-08
8.69823e-11
1.45721e-08
1.46073e-08
2.54623e-07
-1.66319e-05
-0.000602841
2.9598e-08
-1.66465e-05
-0.000603769
1.5085e-08
-1.66486e-05
-0.000603658
-1.69255e-08
-1.6625e-05
-0.000602871
-3.09145e-07
-1.66105e-05
-0.000602564
-1.66723e-05
-0.000604216
-3.29109e-10
-1.43924e-08
-2.75883e-05
1.96528e-10
-1.45867e-08
-2.76262e-05
4.88624e-10
-1.44984e-08
-2.76181e-05
8.947e-11
-1.44554e-08
-2.75198e-05
-1.16581e-09
-1.44153e-08
-2.73452e-05
-1.44573e-08
-2.7856e-05
-2.38252e-14
1.53287e-10
4.7535e-14
1.53788e-10
5.01655e-14
1.53356e-10
4.76676e-14
1.54528e-10
1.30428e-15
1.56918e-10
1.50036e-10
4.31371e-06
0.000889297
-0.00349127
-9.59187e-07
0.000889927
-0.0034834
-1.57804e-06
0.000889849
-0.00348841
-5.50278e-07
0.000887998
-0.00348543
7.91643e-07
0.000885147
-0.00348034
0.000893294
-0.00349546
-7.95218e-09
-1.82398e-05
5.13658e-05
1.22292e-08
-1.82519e-05
5.13598e-05
3.39042e-08
-1.82527e-05
5.13429e-05
1.61185e-08
-1.82364e-05
5.1316e-05
-5.71718e-08
-1.82111e-05
5.12314e-05
-1.82812e-05
5.14347e-05
4.92446e-11
3.73652e-07
5.35777e-11
3.72091e-07
3.37926e-11
3.72569e-07
3.47043e-11
3.73675e-07
-2.50893e-11
3.75416e-07
3.70992e-07
-1.48171e-05
-5.53517e-05
-0.0791651
-3.14663e-05
-5.53427e-05
-0.0791848
-4.88301e-05
-5.53262e-05
-0.0792303
-8.7124e-06
-5.52958e-05
-0.0791147
8.31193e-05
-5.52036e-05
-0.0790619
-5.54317e-05
-0.0793255
6.08116e-10
-3.98647e-06
4.53974e-18
-2.18273e-11
-3.98227e-06
6.34137e-18
2.56998e-10
-3.98352e-06
2.7752e-16
-1.12508e-10
-3.97944e-06
1.04093e-15
-3.86544e-10
-3.97192e-06
1.4519e-19
-3.99734e-06
4.67014e-19
4.77348e-10
5.97074e-26
2.59367e-10
8.41602e-26
3.38181e-10
8.1627e-26
1.41169e-10
1.74004e-25
-7.30434e-10
2.46898e-25
1.96642e-25
-0.000265341
-1.79208e-09
-0.230633
0.299496
-0.000353072
-4.44052e-06
-0.230656
0.299363
-0.00107203
-4.54729e-06
-0.230698
0.300033
-0.000838277
-5.69548e-10
-0.230241
0.298587
0.00118771
-1.21519e-07
-0.230054
0.296608
-9.31031e-05
-0.230844
0.300782
-1.21992e-09
1.33581e-25
-6.12872e-10
4.07031e-11
-6.30995e-10
-7.55463e-24
-4.54039e-06
9.92852e-08
5.30176e-10
-3.83609e-20
-4.64968e-06
1.01231e-07
-4.63733e-11
-2.55557e-18
-5.73015e-12
1.27308e-11
-9.98318e-08
-1.08462e-14
-2.4458e-08
2.72442e-09
1.08842e-25
-9.52122e-05
2.00928e-06
-1.63767e-27
3.46121e-25
-9.94306e-26
-1.06422e-23
1.47169e-25
2.93878e-24
-4.48989e-20
6.66687e-25
6.5267e-21
-1.58255e-16
2.50064e-25
1.55654e-16
6.23415e-28
1.74033e-25
5.62254e-15
2.48559e-25
-7.92208e-26
-7.16986e-05
-3.01408e-08
-0.161804
-3.48887e-05
-0.000147662
-0.161778
5.05833e-05
-0.000178113
-0.161851
5.5649e-05
-2.89203e-10
-0.161479
6.26777e-05
-9.75689e-09
-0.161286
-4.9582e-05
-0.161955
-3.07537e-08
5.13745e-25
2.08749e-14
-3.4713e-08
2.2428e-25
1.68652e-14
-4.73439e-14
1.02788e-24
3.1405e-14
-2.94984e-10
3.73826e-25
2.98963e-15
-1.27177e-06
2.65165e-25
1.92445e-13
4.05914e-25
3.48206e-15
1.47037e-27
-2.07238e-26
9.35893e-27
-9.45132e-27
4.06292e-27
-4.68811e-26
2.85114e-27
-1.64669e-26
1.59715e-27
-1.17657e-26
-2.30579e-26
-6.57564e-05
1.38255e-14
-0.0813156
-6.52647e-05
1.11911e-14
-0.0812595
-1.59175e-05
2.08031e-14
-0.0813563
-2.67013e-05
2.02106e-15
-0.0810341
3.67178e-05
1.31666e-13
-0.0809102
2.277e-15
-0.0814917
4.03919e-17
7.72491e-25
2.86085e-18
2.02245e-16
7.30395e-25
4.43342e-18
4.03726e-17
7.72786e-25
1.94105e-16
2.29219e-17
6.75932e-25
6.95032e-16
-5.35152e-15
1.31546e-24
1.68014e-24
4.3721e-25
1.31639e-24
1.26304e-27
-2.55335e-25
1.81543e-27
-2.41616e-25
1.64538e-27
-2.57267e-25
3.40841e-27
-2.22218e-25
-2.35012e-27
-4.26233e-25
-1.49669e-25
-6.8046e-05
2.69449e-18
0.00015146
2.39423e-05
4.19811e-18
0.000139313
0.000337507
1.84761e-16
0.000123087
-2.032e-05
6.53208e-16
0.000105596
-0.000584332
1.58118e-24
8.95145e-06
1.25513e-24
0.000172427
2.71626e-20
1.48053e-24
5.54568e-18
1.41283e-18
1.81656e-24
8.23155e-18
1.04657e-17
1.986e-24
3.65272e-16
7.64217e-27
1.9453e-24
1.33586e-15
-4.87137e-26
1.91466e-24
1.4221e-25
1.44898e-24
1.27694e-25
1.68924e-27
-9.72091e-25
2.80157e-27
-1.19043e-24
1.02582e-26
-1.30668e-24
2.1052e-27
-1.27241e-24
-1.84094e-26
-1.23861e-24
-9.66156e-25
-8.50544e-05
6.21746e-17
0.0520807
-8.13556e-05
9.22011e-17
0.0520937
-2.13072e-06
4.11725e-15
0.0521419
-2.10535e-05
1.55101e-14
0.0519408
-3.38457e-05
1.7284e-24
0.0517824
1.38089e-24
0.0523169
1.41112e-19
6.18397e-25
-3.08099e-17
9.97935e-18
8.24479e-25
-4.56616e-17
1.20103e-16
8.40789e-25
-2.04059e-15
1.22057e-27
1.37343e-24
-7.69109e-15
-3.19144e-26
1.79282e-24
-8.58981e-25
1.40436e-24
-6.8492e-25
4.02484e-28
-4.99875e-25
3.44511e-28
-6.65185e-25
3.10628e-27
-6.80432e-25
9.3121e-28
-1.10544e-24
-8.15209e-27
-1.43103e-24
-1.14629e-24
-6.25878e-05
3.98393e-17
-7.47357e-05
5.57219e-17
-4.70876e-05
2.41991e-15
-2.19264e-05
9.18623e-15
5.42592e-05
1.28417e-18
4.04339e-18
1.95957e-20
2.65852e-25
4.79813e-19
3.74687e-25
1.09744e-17
3.62989e-25
2.20023e-22
7.74465e-25
-4.04478e-21
1.10021e-24
8.72497e-25
-1.72106e-29
-6.88049e-29
-7.193e-29
1.96316e-31
1.61186e-28
-5.31592e-11
7.86879e-09
1.06056e-07
-1.65798e-11
8.02158e-09
1.09564e-07
-5.44218e-11
7.53409e-09
1.04708e-07
-6.36019e-11
7.34222e-09
1.15105e-07
5.55101e-10
7.23397e-09
8.95626e-08
4.57859e-09
8.56486e-08
-1.18778e-12
3.03325e-09
2.18569e-09
-8.38438e-13
2.96749e-09
2.36167e-09
-1.00172e-12
2.92699e-09
2.1128e-09
-2.56878e-12
2.3547e-09
2.43985e-09
4.05824e-12
1.79027e-09
2.81859e-09
1.56667e-09
1.69092e-09
-5.31611e-14
2.7297e-11
-6.48894e-14
3.50232e-11
-5.06849e-14
2.56697e-11
-6.63734e-14
2.83447e-11
3.48088e-15
4.51486e-11
1.42429e-11
-6.63475e-09
1.00514e-07
2.04249e-06
-5.79674e-09
1.07931e-07
2.14298e-06
-7.15704e-09
9.69269e-08
1.99773e-06
3.70985e-09
1.12352e-07
2.23073e-06
2.18609e-08
1.32265e-07
2.26757e-06
7.33018e-08
1.62845e-06
-5.81681e-11
1.19184e-08
8.04106e-08
-5.14104e-11
1.26926e-08
8.44461e-08
-8.99793e-11
1.14456e-08
7.82538e-08
-2.61735e-12
1.30874e-08
8.79461e-08
2.86827e-10
1.45696e-08
9.09442e-08
7.97525e-09
6.26511e-08
-7.85692e-13