/*--------------------------------*- C++ -*----------------------------------*\
| =========                 |                                                 |
| \\      /  F ield         | OpenFOAM: The Open Source CFD Toolbox           |
|  \\    /   O peration     | Version:  v1612+                                |
|   \\  /    A nd           | Web:      www.OpenFOAM.com                      |
|    \\/     M anipulation  |                                                 |
\*---------------------------------------------------------------------------*/
FoamFile
{
    version     2.0;
    format      ascii;
    class       volScalarField;
    location    "5";
    object      p;
}
// * * * * * * * * * * * * * * * * * * * * * * * * * * * * * * * * * * * * * //

dimensions      [1 -1 -2 0 0 0 0];

internalField   nonuniform List<scalar> 
1116
(
1872.23
1872.22
1872.21
1872.22
1872.22
1872.24
1913.16
1913.14
1913.14
1913.14
1913.15
1913.16
2327.02
2327.01
2327.01
2327.01
2327.02
2327.01
3688.7
3688.62
3688.64
3688.64
3688.63
3688.66
7401.52
7401.56
7401.53
7401.5
7401.5
7401.48
12780.6
12780.6
12780.6
12780.6
12780.5
12780.5
16383.1
16383.3
16383.2
16383.2
16383.2
16383.1
17498.5
17499
17498.7
17498.8
17498.9
17498.7
17429.3
17429.5
17429.4
17429.4
17429.5
17429.4
17871.6
17871.3
17871.4
17871.4
17871.3
17871.4
18062.5
18061.9
18062.1
18062.1
18062
18062.3
17334.8
17334.8
17334.8
17334.8
17334.8
17334.9
42.9065
42.9068
42.9071
42.9074
42.9077
42.9078
56.6372
56.6362
56.637
56.6375
56.6373
56.6387
98.871
98.8519
98.8602
98.8619
98.8567
98.8649
292.675
292.493
292.57
292.584
292.526
292.607
1626.91
1627.09
1627.02
1626.97
1627.03
1626.91
4783.35
4782.87
4783.09
4783.15
4782.92
4783.17
7099.98
7100.12
7100.11
7100.14
7100.11
7100.05
7543.01
7542.85
7542.94
7542.92
7542.8
7542.95
7532.96
7532.18
7532.51
7532.6
7532.4
7532.76
6863.71
6863.02
6863.24
6863.36
6863.24
6863.36
6025.71
6025.26
6025.25
6025.39
6025.25
6025.24
6102.5
6102.08
6102.18
6102.14
6101.93
6102.44
47.4315
47.4328
47.433
47.4332
47.4334
47.4331
51.3488
51.3517
51.3507
51.3512
51.3508
51.3487
53.153
53.1619
53.1595
53.1587
53.1585
53.1538
68.0862
68.0557
68.068
68.0697
68.0591
68.0753
181.846
181.724
181.794
181.806
181.778
181.844
1456.47
1456.78
1456.65
1456.54
1456.58
1456.35
3145.58
3147.7
3146.66
3146.71
3147.48
3146.11
2904.11
2905.64
2904.92
2904.93
2905.52
2904.49
1739.7
1740.46
1740.13
1740.19
1740.45
1739.88
752.965
752.929
752.926
752.941
752.914
752.956
706.297
706.121
706.153
706.151
706.108
706.141
661.958
661.513
661.606
661.734
661.35
661.723
21.538
21.5385
21.5387
21.539
21.5393
21.5394
27.1676
27.1694
27.1693
27.1702
27.17
27.1696
27.3083
27.3125
27.312
27.3134
27.3134
27.3107
-4.2536
-4.25864
-4.25684
-4.25587
-4.25619
-4.25137
-44.9232
-45.1404
-45.0644
-45.0419
-45.1017
-44.9762
32.7816
32.827
32.7754
32.845
32.8841
32.8002
-88.4502
-88.4379
-88.4844
-88.436
-88.4041
-88.4566
-84.4749
-84.4717
-84.474
-84.4632
-84.4551
-84.4682
-36.4851
-36.4804
-36.4786
-36.4743
-36.4712
-36.4859
-22.3611
-22.3642
-22.3619
-22.3665
-22.3687
-22.3639
66.3858
66.3926
66.3892
66.3639
66.3474
66.4236
104.696
104.572
104.602
104.631
104.599
104.57
183.953
185.003
183.937
185.04
187.379
182.721
180.973
182.43
179.763
182.448
185.443
178.309
186.135
188.997
183.076
190.017
196.939
180.408
209.905
201.681
213.064
204.261
187.371
200.456
228.929
232.519
235.556
238.351
236.039
220.531
221.043
221.157
225.75
238.849
239.619
245.004
274.726
273.935
274.031
275.743
272.974
289.917
1269.71
1267.8
1259.06
1246.06
1244.91
1234.68
2943.44
2950.46
2953.39
3007.44
3004.67
2842.78
2506.73
2514.62
2562.9
2521.81
2419.5
2618.79
1393.46
1388.15
1374.43
1343.37
1251.39
1399.09
1356.33
1352.72
1347.73
1328.58
1311.39
1318.74
130.318
131.028
130.543
130.897
132.16
129.111
87.0678
86.7219
87.1772
86.4882
83.0326
86.3502
-62.3083
-68.4211
-57.4835
-68.2419
-88.0263
-49.4986
-192.433
-192.124
-189.657
-188.826
-185.286
-182.213
-144.609
-144.011
-144.326
-143.099
-140.488
-142.95
-86.7861
-86.8392
-86.9521
-86.5025
-87.412
-87.0611
-33.6981
-34.3928
-35.501
-37.1068
-42.4357
-37.6898
42.5197
42.2133
40.1641
35.0466
23.5046
36.5023
329.076
321.056
313.553
296.158
245.536
317.459
722.311
712.579
710.829
622.18
416.14
756.326
630.256
631.657
633.491
580.864
497.699
657.493
1061.83
1060.61
1033.98
1024.24
992.213
1028.71
45.9629
46.154
45.9607
45.7848
45.8117
44.9635
-1.18851
-1.82305
-1.3994
-2.21946
-5.13082
-0.757737
-106.274
-107.262
-106.237
-106.836
-108.357
-105.137
-143.345
-142.867
-142.78
-141.658
-139.86
-143.658
-118.162
-117.989
-117.998
-117.061
-115.567
-118.192
-72.0025
-71.9727
-72.0616
-71.6356
-70.5541
-72.6467
-44.5575
-44.6165
-44.6748
-44.6213
-44.5884
-45.1222
-35.7109
-35.9439
-35.9972
-35.6811
-35.3462
-35.9024
-15.928
-16.9758
-17.7088
-19.2814
-25.1258
-18.7189
129.183
130.531
137.936
93.9247
35.5172
126.065
616.81
626.957
633.609
606.737
710.823
611.862
978.054
990.003
804.761
882.143
902.845
873.398
-7.47364
-7.47481
-7.53148
-7.66791
-7.68509
-7.76413
-38.5147
-38.7569
-38.6759
-38.9196
-39.7478
-38.3814
-94.1447
-94.6288
-94.4873
-94.7696
-95.1775
-94.1751
-131.528
-132.023
-131.922
-132.278
-132.702
-131.394
-112.547
-112.623
-112.843
-112.741
-112.911
-113.429
-71.5251
-71.5764
-71.7074
-71.6933
-71.5404
-72.2051
-49.8434
-49.8472
-49.8545
-49.7591
-49.4859
-49.9994
-44.0876
-44.0292
-43.9111
-43.5296
-42.7844
-43.6387
-41.8793
-41.8624
-41.7668
-41.6091
-41.1501
-41.526
-27.7524
-27.6563
-27.1643
-27.3411
-27.4049
-26.5092
63.7167
69.9058
78.8077
37.962
2.65124
77.95
-596.695
-568.386
-528.27
-365.672
328.139
-337.776
-2.40838
-2.40808
-2.40784
-2.40749
-2.40718
-2.40699
-32.148
-32.1478
-32.1476
-32.1473
-32.147
-32.1468
-58.2217
-58.2216
-58.2216
-58.2214
-58.2213
-58.2212
-4.54844
-4.54733
-4.54718
-4.54669
-4.54657
-4.54678
-34.9425
-34.9419
-34.9417
-34.9414
-34.9412
-34.9412
-59.3747
-59.3745
-59.3744
-59.3742
-59.3742
-59.3741
-17.3855
-17.3787
-17.3812
-17.3797
-17.3783
-17.3817
-45.5753
-45.5733
-45.5741
-45.5737
-45.5733
-45.574
-62.6833
-62.6828
-62.6827
-62.6827
-62.6827
-62.6828
-71.2768
-71.2479
-71.2597
-71.2629
-71.2493
-71.2672
-70.9629
-70.9521
-70.9568
-70.9585
-70.9544
-70.9615
-68.7386
-68.7373
-68.7378
-68.7384
-68.7384
-68.7396
-116.716
-116.736
-116.728
-116.731
-116.733
-116.727
-97.2616
-97.272
-97.2669
-97.2691
-97.2722
-97.2677
-77.9355
-77.9384
-77.9369
-77.9378
-77.939
-77.939
-117.917
-117.924
-117.921
-117.922
-117.925
-117.925
-105.912
-105.928
-105.921
-105.921
-105.927
-105.917
-80.0789
-80.0787
-80.0781
-80.08
-80.082
-80.0837
-121.282
-121.284
-121.285
-121.286
-121.286
-121.284
-111.93
-111.952
-111.945
-111.938
-111.941
-111.923
-74.3475
-74.3219
-74.33
-74.3388
-74.3367
-74.3571
-78.814
-78.8111
-78.8118
-78.8078
-78.8077
-78.8048
-87.2448
-87.2433
-87.2426
-87.2421
-87.2419
-87.2352
-67.9922
-67.9887
-67.9901
-67.992
-67.9922
-67.9957
-32.6619
-32.658
-32.6567
-32.6549
-32.6567
-32.6487
-43.7478
-43.743
-43.7422
-43.7432
-43.7451
-43.7341
-64.4437
-64.442
-64.4434
-64.4446
-64.445
-64.4456
-26.6123
-26.6098
-26.6078
-26.6076
-26.6148
-26.6095
-23.9547
-23.9483
-23.951
-23.9549
-23.9638
-23.9406
-63.8772
-63.8776
-63.8783
-63.879
-63.8809
-63.8751
0.248928
0.234974
0.243778
0.233756
0.225855
0.261497
-32.7613
-32.7584
-32.7597
-32.7598
-32.7613
-32.7608
-60.7211
-60.7213
-60.7215
-60.7221
-60.7248
-60.7184
100.517
100.469
100.535
100.432
100.378
100.637
-61.1179
-61.1206
-61.1175
-61.1101
-61.0981
-61.1365
-82.8648
-82.869
-82.8682
-82.8668
-82.8677
-82.8686
1135.14
1135.34
1135.68
1136.09
1137.53
1136.2
-50.9347
-50.9435
-50.9343
-50.8888
-50.8814
-50.8091
-70.5321
-70.513
-70.4747
-70.4232
-70.3381
-70.3601
1151.86
1152.34
1152.47
1151.86
1151.9
1153.2
-52.5966
-52.588
-52.5743
-52.5603
-52.5541
-52.4263
-69.5676
-69.5568
-69.5466
-69.5434
-69.5235
-69.5035
1123.27
1123.09
1123.38
1122.28
1121.62
1124.49
-51.889
-51.8794
-51.87
-51.8838
-51.8889
-51.8688
-69.4824
-69.4769
-69.4693
-69.4619
-69.4411
-69.4608
921.34
920.916
921.233
919.929
918.917
922.743
-51.0457
-51.0452
-51.0393
-51.0542
-51.0595
-51.0207
-70.4495
-70.4446
-70.4445
-70.425
-70.4006
-70.4568
899.223
899.003
899.458
897.983
897
901.026
-51.9492
-51.9509
-51.9461
-51.9484
-51.9533
-51.9456
-73.2592
-73.2564
-73.2571
-73.2489
-73.2365
-73.265
742.178
742.093
742.43
741.354
740.697
743.502
-45.2857
-45.2836
-45.2808
-45.2764
-45.2722
-45.2796
-77.4167
-77.4166
-77.4164
-77.4145
-77.41
-77.4199
-30.6436
-30.6504
-30.6813
-30.7226
-30.7137
-30.7919
-45.3143
-45.3156
-45.3276
-45.3424
-45.3378
-45.3798
-60.6351
-60.6347
-60.6368
-60.6402
-60.6378
-60.6477
-42.5273
-42.6256
-42.6215
-42.7656
-43.0059
-42.5611
-47.5413
-47.5603
-47.571
-47.6169
-47.662
-47.6017
-60.186
-60.1848
-60.1889
-60.1942
-60.1912
-60.2072
-65.9048
-66.1475
-66.0798
-66.3171
-66.6027
-66.089
-56.4011
-56.4612
-56.4448
-56.5152
-56.5938
-56.4753
-61.9992
-62.0013
-62.0014
-62.0103
-62.0115
-62.011
-82.7061
-82.85
-82.8154
-82.8541
-82.9683
-82.8431
-65.0704
-65.1123
-65.0807
-65.1438
-65.1648
-65.1111
-64.2497
-64.2518
-64.2505
-64.2599
-64.255
-64.2566
-78.3745
-78.4362
-78.4049
-78.4279
-78.4565
-78.5379
-67.1869
-67.2145
-67.2024
-67.2419
-67.2534
-67.2233
-65.071
-65.0715
-65.0699
-65.0693
-65.0624
-65.0685
-65.5448
-65.5697
-65.5523
-65.5536
-65.4983
-65.6567
-64.4394
-64.4481
-64.4497
-64.4632
-64.4619
-64.4797
-65.3585
-65.3578
-65.3561
-65.3529
-65.3465
-65.3564
-55.5691
-55.5645
-55.5297
-55.5032
-55.4023
-55.5081
-60.7849
-60.7821
-60.7762
-60.7699
-60.756
-60.7721
-65.5504
-65.5485
-65.5442
-65.5392
-65.5311
-65.5373
-51.4627
-51.4339
-51.3618
-51.2578
-51.0819
-51.2169
-59.2815
-59.268
-59.242
-59.2081
-59.1636
-59.183
-66.0062
-66.0005
-65.9899
-65.9773
-65.9642
-65.9653
-47.3509
-47.3812
-47.3835
-47.3567
-47.083
-47.4284
-58.2864
-58.2686
-58.2298
-58.1937
-58.1375
-58.1358
-65.673
-65.6707
-65.664
-65.6522
-65.6339
-65.6478
-46.8478
-46.7367
-46.5192
-46.1744
-45.0638
-46.2057
-58.2666
-58.227
-58.1473
-58.1297
-58.0275
-58.0146
-66.6767
-66.6596
-66.6286
-66.5804
-66.515
-66.5608
-49.0634
-48.803
-49.3135
-47.0155
-40.724
-48.8262
-57.1605
-57.0972
-56.9898
-56.9147
-56.5493
-56.7477
-67.6321
-67.5994
-67.5434
-67.3847
-67.1364
-67.3585
533.414
532.725
531.855
569.407
598.048
553.605
-54.5039
-54.4807
-54.4239
-54.4768
-54.3981
-54.2547
-75.8899
-75.8226
-75.7316
-75.6316
-75.5191
-75.3846
)
;

boundaryField
{
    seabed_topleft_surface
    {
        type            calculated;
        value           nonuniform List<scalar> 
72
(
3681.98
3681.95
3681.94
3681.95
3681.95
3681.99
3764.57
3764.53
3764.52
3764.52
3764.53
3764.57
4375.4
4375.37
4375.36
4375.37
4375.38
4375.4
6195.44
6195.35
6195.37
6195.37
6195.36
6195.41
11015.8
11015.8
11015.8
11015.8
11015.8
11015.8
17559.2
17559.3
17559.2
17559.2
17559.2
17559.2
21180.4
21180.6
21180.5
21180.5
21180.6
21180.5
22295.8
22296.3
22296
22296.1
22296.2
22296
22226.5
22226.8
22226.7
22226.7
22226.7
22226.6
22668.4
22668.1
22668.2
22668.2
22668.1
22668.2
22856.5
22856
22856.2
22856.2
22856
22856.3
22123.6
22123.5
22123.5
22123.5
22123.5
22123.7
)
;
    }
    seabed_topright_surface
    {
        type            calculated;
        value           nonuniform List<scalar> 
72
(
188.934
189.995
188.912
190.034
192.354
187.677
186.002
187.484
184.78
187.501
190.553
183.292
194.378
199.281
189.354
200.395
227.149
186.401
367.333
368.15
348.093
369.038
418.765
299.262
494.701
500.14
508.364
514.131
512.739
475.056
488.963
486.153
496.961
514.658
516.318
538.616
549.651
552.186
558.004
561.082
560.564
594.706
1602.33
1602.66
1595.73
1584.07
1585.18
1573.67
3278.3
3287.13
3291.4
3347.71
3346.9
3183.39
2804.72
2816.53
2850.45
2847.26
2761.73
2902.71
1553.46
1552.62
1545.92
1495
1447.33
1610.65
1368.01
1364.29
1362.65
1339.59
1322.22
1339.19
)
;
    }
    breakwater_top_surface
    {
        type            calculated;
        value           nonuniform List<scalar> 
36
(
2337.7
2337.94
2338.37
2338.8
2340.26
2339.02
2355.82
2356.37
2356.55
2355.93
2355.97
2357.27
2299.64
2299.27
2299.86
2297.58
2296.13
2302.27
1889.52
1888.67
1889.42
1886.61
1884.52
1892.6
1854.57
1854.11
1855.06
1851.86
1849.64
1858.43
1558.56
1558.39
1559.12
1556.86
1555.48
1561.34
)
;
    }
    breakwater_left_surface
    {
        type            calculated;
        value           nonuniform List<scalar> 
24
(
17351.2
17351.2
17351.2
17351.2
17351.2
17351.3
6116.73
6116.3
6116.4
6116.37
6116.15
6116.66
664.257
663.811
663.904
664.033
663.647
664.023
104.712
104.588
104.617
104.647
104.615
104.586
)
;
    }
    breakwater_right_surface
    {
        type            calculated;
        value           nonuniform List<scalar> 
24
(
1356.37
1352.76
1347.78
1328.62
1311.42
1318.81
1061.87
1060.65
1034.02
1024.28
992.248
1028.74
979.301
991.361
806.524
882.886
902.879
875.015
-594.036
-565.723
-525.604
-363.007
330.797
-335.122
)
;
    }
    water_front_surface
    {
        type            calculated;
        value           nonuniform List<scalar> 
186
(
1872.23
1913.16
2327.02
3688.7
7401.52
12780.6
16383.1
17498.5
17429.3
17871.6
18062.5
17334.8
42.9065
56.6372
98.871
292.675
1626.91
4783.35
7099.98
7543.01
7532.96
6863.71
6025.71
6102.5
47.4315
51.3488
53.153
68.0862
181.846
1456.47
3145.58
2904.11
1739.7
752.965
706.297
661.958
21.538
27.1676
27.3083
-4.2536
-44.9232
32.7816
-88.4502
-84.4749
-36.4851
-22.3611
66.3858
104.696
183.953
180.973
186.135
209.905
228.929
221.043
274.726
1269.71
2943.44
2506.73
1393.46
1356.33
130.318
87.0678
-62.3083
-192.433
-144.609
-86.7861
-33.6981
42.5197
329.076
722.311
630.256
1061.83
45.9629
-1.18851
-106.274
-143.345
-118.162
-72.0025
-44.5575
-35.7109
-15.928
129.183
616.81
978.054
-7.47364
-38.5147
-94.1447
-131.528
-112.547
-71.5251
-49.8434
-44.0876
-41.8793
-27.7524
63.7167
-596.695
-2.40838
-32.148
-58.2217
-4.54844
-34.9425
-59.3747
-17.3855
-45.5753
-62.6833
-71.2768
-70.9629
-68.7386
-116.716
-97.2616
-77.9355
-117.917
-105.912
-80.0789
-121.282
-111.93
-74.3475
-78.814
-87.2448
-67.9922
-32.6619
-43.7478
-64.4437
-26.6123
-23.9547
-63.8772
0.248928
-32.7613
-60.7211
100.517
-61.1179
-82.8648
1135.14
-50.9347
-70.5321
1151.86
-52.5966
-69.5676
1123.27
-51.889
-69.4824
921.34
-51.0457
-70.4495
899.223
-51.9492
-73.2592
742.178
-45.2857
-77.4167
-30.6436
-45.3143
-60.6351
-42.5273
-47.5413
-60.186
-65.9048
-56.4011
-61.9992
-82.7061
-65.0704
-64.2497
-78.3745
-67.1869
-65.071
-65.5448
-64.4394
-65.3585
-55.5691
-60.7849
-65.5504
-51.4627
-59.2815
-66.0062
-47.3509
-58.2864
-65.673
-46.8478
-58.2666
-66.6767
-49.0634
-57.1605
-67.6321
533.414
-54.5039
-75.8899
)
;
    }
    water_back_surface
    {
        type            calculated;
        value           nonuniform List<scalar> 
186
(
1872.24
1913.16
2327.01
3688.66
7401.48
12780.5
16383.1
17498.7
17429.4
17871.4
18062.3
17334.9
42.9078
56.6387
98.8649
292.607
1626.91
4783.17
7100.05
7542.95
7532.76
6863.36
6025.24
6102.44
47.4331
51.3487
53.1538
68.0753
181.844
1456.35
3146.11
2904.49
1739.88
752.956
706.141
661.723
21.5394
27.1696
27.3107
-4.25137
-44.9762
32.8002
-88.4566
-84.4682
-36.4859
-22.3639
66.4236
104.57
182.721
178.309
180.408
200.456
220.531
245.004
289.917
1234.68
2842.78
2618.79
1399.09
1318.74
129.111
86.3502
-49.4986
-182.213
-142.95
-87.0611
-37.6898
36.5023
317.459
756.326
657.493
1028.71
44.9635
-0.757737
-105.137
-143.658
-118.192
-72.6467
-45.1222
-35.9024
-18.7189
126.065
611.862
873.398
-7.76413
-38.3814
-94.1751
-131.394
-113.429
-72.2051
-49.9994
-43.6387
-41.526
-26.5092
77.95
-337.776
-2.40699
-32.1468
-58.2212
-4.54678
-34.9412
-59.3741
-17.3817
-45.574
-62.6828
-71.2672
-70.9615
-68.7396
-116.727
-97.2677
-77.939
-117.925
-105.917
-80.0837
-121.284
-111.923
-74.3571
-78.8048
-87.2352
-67.9957
-32.6487
-43.7341
-64.4456
-26.6095
-23.9406
-63.8751
0.261497
-32.7608
-60.7184
100.637
-61.1365
-82.8686
1136.2
-50.8091
-70.3601
1153.2
-52.4263
-69.5035
1124.49
-51.8688
-69.4608
922.743
-51.0207
-70.4568
901.026
-51.9456
-73.265
743.502
-45.2796
-77.4199
-30.7919
-45.3798
-60.6477
-42.5611
-47.6017
-60.2072
-66.089
-56.4753
-62.011
-82.8431
-65.1111
-64.2566
-78.5379
-67.2233
-65.0685
-65.6567
-64.4797
-65.3564
-55.5081
-60.7721
-65.5373
-51.2169
-59.183
-65.9653
-47.4284
-58.1358
-65.6478
-46.2057
-58.0146
-66.5608
-48.8262
-56.7477
-67.3585
553.605
-54.2547
-75.3846
)
;
    }
    water_left_surface
    {
        type            calculated;
        value           nonuniform List<scalar> 
42
(
1878.43
1878.41
1878.41
1878.41
1878.42
1878.43
42.923
42.9233
42.9236
42.9239
42.9242
42.9244
47.4477
47.449
47.4492
47.4494
47.4496
47.4493
21.5538
21.5544
21.5546
21.5549
21.5551
21.5553
-2.40838
-2.40808
-2.40784
-2.40749
-2.40718
-2.40699
-32.148
-32.1478
-32.1476
-32.1473
-32.147
-32.1468
-58.2217
-58.2216
-58.2216
-58.2214
-58.2213
-58.2212
)
;
    }
    water_right_surface
    {
        type            calculated;
        value           nonuniform List<scalar> 
42
(
183.97
185.02
183.954
185.057
187.396
182.738
130.335
131.045
130.559
130.914
132.177
129.127
45.9791
46.1702
45.9769
45.801
45.8279
44.9797
-7.45776
-7.45894
-7.5156
-7.65203
-7.66921
-7.74825
-30.6436
-30.6504
-30.6813
-30.7226
-30.7137
-30.7919
-45.3143
-45.3156
-45.3276
-45.3424
-45.3378
-45.3798
-60.6351
-60.6347
-60.6368
-60.6402
-60.6378
-60.6477
)
;
    }
    water_top_surface
    {
        type            calculated;
        value           nonuniform List<scalar> 
180
(
-68.67
-68.67
-68.67
-68.67
-68.67
-68.67
-68.67
-68.67
-68.67
-68.67
-68.67
-68.67
-68.67
-68.67
-68.67
-68.67
-68.67
-68.67
-68.6703
-68.6703
-68.6703
-68.6703
-68.6703
-68.6703
-68.6974
-68.6972
-68.6972
-68.6973
-68.6973
-68.6973
-68.8893
-68.8893
-68.8893
-68.8893
-68.8894
-68.8894
-69.0418
-69.0418
-69.0418
-69.042
-69.042
-69.0418
-75.4175
-75.3964
-75.4079
-75.4125
-75.4063
-75.4237
-78.5383
-78.5323
-78.5371
-78.5394
-78.54
-78.5437
-72.8087
-72.8076
-72.8088
-72.8101
-72.8112
-72.8078
-69.5929
-69.5919
-69.5921
-69.5923
-69.5921
-69.5911
-71.3935
-71.3952
-71.3931
-71.3922
-71.3939
-71.3904
-70.5978
-70.6134
-70.5973
-70.5711
-70.6112
-70.5358
-70.721
-70.7535
-70.7545
-70.6515
-70.634
-70.8313
-70.7815
-70.7816
-70.7777
-70.7911
-70.8319
-70.7146
-71.6981
-71.7043
-71.6811
-71.7386
-71.8013
-71.6112
-72.1689
-72.1793
-72.1573
-72.203
-72.2589
-72.1063
-70.1487
-70.1544
-70.1476
-70.1572
-70.1758
-70.1309
-68.67
-68.67
-68.67
-68.67
-68.67
-68.67
-68.67
-68.67
-68.67
-68.67
-68.67
-68.67
-68.67
-68.67
-68.67
-68.67
-68.67
-68.67
-68.67
-68.67
-68.67
-68.67
-68.67
-68.67
-68.67
-68.67
-68.67
-68.67
-68.67
-68.67
-68.8318
-68.8319
-68.8317
-68.8316
-68.8308
-68.8322
-69.3876
-69.3867
-69.3852
-69.3834
-69.3808
-69.3826
-70.7206
-70.716
-70.7102
-70.7024
-70.695
-70.6917
-70.3549
-70.3519
-70.3452
-70.3309
-70.313
-70.332
-72.8985
-72.886
-72.8527
-72.8559
-72.829
-72.7832
-73.5773
-73.5567
-73.4761
-73.4619
-73.4068
-73.3146
-71.0551
-71.045
-71.033
-71.0034
-70.9116
-70.9717
)
;
    }
}


// ************************************************************************* //
