/*--------------------------------*- C++ -*----------------------------------*\
| =========                 |                                                 |
| \\      /  F ield         | OpenFOAM: The Open Source CFD Toolbox           |
|  \\    /   O peration     | Version:  v1612+                                |
|   \\  /    A nd           | Web:      www.OpenFOAM.com                      |
|    \\/     M anipulation  |                                                 |
\*---------------------------------------------------------------------------*/
FoamFile
{
    version     2.0;
    format      ascii;
    class       volScalarField;
    location    "5";
    object      p_rgh;
}
// * * * * * * * * * * * * * * * * * * * * * * * * * * * * * * * * * * * * * //

dimensions      [1 -1 -2 0 0 0 0];

internalField   nonuniform List<scalar> 
1116
(
3681.98
3681.95
3681.94
3681.95
3681.95
3681.99
3764.57
3764.53
3764.52
3764.52
3764.53
3764.57
4375.4
4375.37
4375.36
4375.37
4375.38
4375.4
6195.44
6195.35
6195.37
6195.37
6195.36
6195.41
11015.8
11015.8
11015.8
11015.8
11015.8
11015.8
17559.2
17559.3
17559.2
17559.2
17559.2
17559.2
21180.4
21180.6
21180.5
21180.5
21180.6
21180.5
22295.8
22296.3
22296
22296.1
22296.2
22296
22226.5
22226.8
22226.7
22226.7
22226.7
22226.6
22668.4
22668.1
22668.2
22668.2
22668.1
22668.2
22856.5
22856
22856.2
22856.2
22856
22856.3
22123.6
22123.5
22123.5
22123.5
22123.5
22123.7
57.639
57.6393
57.6396
57.6399
57.6402
57.6404
71.3697
71.3687
71.3695
71.37
71.3698
71.3712
183.408
183.374
183.386
183.394
183.384
183.386
914.311
914.188
914.234
914.243
914.19
914.222
5123.42
5124.5
5123.95
5123.75
5124.08
5123.51
15932.5
15933.1
15932.7
15932.6
15932.7
15932.5
21458.8
21458.9
21458.9
21458.9
21458.9
21458.8
21901.5
21901.4
21901.5
21901.5
21901.3
21901.5
21579.2
21579.5
21579.4
21579.4
21579.5
21579.3
19766.8
19767.9
19767.4
19767.2
19767.5
19767
18371.2
18371.4
18371.1
18370.9
18370.7
18371.1
18791.7
18789.4
18790.4
18790.1
18788.9
18791.8
71.9741
71.9753
71.9756
71.9758
71.9759
71.9756
75.8924
75.8953
75.8943
75.8948
75.8944
75.8923
77.8472
77.8564
77.8538
77.853
77.8529
77.8481
96.9053
96.8792
96.8891
96.8906
96.881
96.8943
626.449
626.755
626.592
626.514
626.591
626.392
9231.97
9236.24
9234.13
9233.77
9235.11
9232.16
17388.1
17397.4
17393
17392.8
17396.2
17390.1
17364
17372.8
17368.7
17368.7
17372
17366
10456.1
10461.3
10459.1
10459.2
10460.8
10457.3
4672.01
4672.4
4672.21
4672.19
4672.12
4672.25
4042.51
4040.86
4041.28
4041.32
4040.99
4041.57
4147.67
4144.64
4145.94
4145.73
4143.63
4147.87
55.8894
55.8899
55.8901
55.8904
55.8906
55.8908
61.52
61.5218
61.5217
61.5227
61.5225
61.522
61.7155
61.7196
61.7191
61.7206
61.7206
61.7179
48.8958
48.7401
48.8097
48.8261
48.7622
48.8543
722.072
721.227
721.417
721.943
721.702
721.844
1063.76
1064.91
1064.05
1064.79
1065.44
1064.09
425.574
426.318
425.668
426.247
426.784
425.776
-50.0288
-50.0256
-50.0279
-50.0171
-50.0089
-50.0221
-2.08482
-2.08011
-2.07833
-2.07402
-2.07095
-2.08559
12.0028
11.9998
12.002
11.9975
11.9952
12
100.742
100.749
100.746
100.72
100.704
100.78
139.06
138.937
138.966
138.995
138.963
138.934
188.934
189.995
188.912
190.034
192.354
187.677
186.002
187.484
184.78
187.501
190.553
183.292
194.378
199.281
189.354
200.395
227.149
186.401
367.333
368.15
348.093
369.038
418.765
299.262
494.701
500.14
508.364
514.131
512.739
475.056
488.963
486.153
496.961
514.658
516.318
538.616
549.651
552.186
558.004
561.082
560.564
594.706
1602.33
1602.66
1595.73
1584.07
1585.18
1573.67
3278.3
3287.13
3291.4
3347.71
3346.9
3183.39
2804.72
2816.53
2850.45
2847.26
2761.73
2902.71
1553.46
1552.62
1545.92
1495
1447.33
1610.65
1368.01
1364.29
1362.65
1339.59
1322.22
1339.19
145.07
145.785
145.292
145.656
146.944
143.853
106.285
106.586
105.953
106.601
106.929
103.986
-21.5803
-26.6036
-17.7805
-26.4234
-43.1261
-13.7229
-159.962
-161.12
-156.726
-157.338
-159.358
-146.654
-129.874
-129.277
-129.592
-128.364
-125.754
-128.216
-72.052
-72.1052
-72.2181
-71.7685
-72.678
-72.3271
-18.962
-19.6567
-20.7648
-22.3713
-27.7023
-22.9537
180.459
175.131
169.339
142.248
100.1
151.253
1185.76
1196.55
1211.49
1082.27
883.996
1271.53
1848.45
1863.7
1884.01
1773.3
1414.55
2047.1
1658.07
1694.24
1811.62
1417.71
648.479
1959.25
1096.46
1094.53
1066.92
1056.04
1023.14
1060.51
70.5119
70.7054
70.5086
70.3386
70.4068
69.5102
26.5844
26.4169
26.0991
26.2314
24.9498
25.7484
-69.4752
-70.7225
-69.432
-70.1044
-74.163
-67.8495
-117.407
-117.027
-116.653
-116.05
-114.985
-117.086
-93.6164
-93.4433
-93.4525
-92.5155
-91.0221
-93.6463
-47.4575
-47.4278
-47.5168
-47.0908
-46.0091
-48.102
-20.0163
-20.0753
-20.1336
-20.0801
-20.0472
-20.5809
-11.1705
-11.4033
-11.4567
-11.1405
-10.8054
-11.3617
8.67807
7.63894
6.90753
5.36946
-0.465963
5.93747
1183.87
1217.32
1333.77
915.219
182.96
1364.47
3159.11
3233.01
3289.66
3212.79
3154.47
3049.51
2867.3
3049.3
3477.22
2009.54
954.365
3325.38
26.8777
26.8767
26.8198
26.6837
26.6681
26.587
-4.00786
-4.27834
-4.14475
-4.41296
-5.38667
-3.8443
-59.7421
-60.2272
-60.0844
-60.3677
-60.7817
-59.7714
-97.1461
-97.6383
-97.5447
-97.8889
-98.2917
-97.027
-78.1107
-78.1896
-78.4051
-78.3108
-78.4927
-78.9824
-37.1656
-37.217
-37.3477
-37.3333
-37.1806
-37.8431
-15.4925
-15.4963
-15.5036
-15.4082
-15.135
-15.6485
-9.73675
-9.6783
-9.56021
-9.17871
-8.43353
-9.28786
-7.52843
-7.51149
-7.41595
-7.25822
-6.79921
-7.17509
6.69042
6.79843
7.29255
7.16356
7.47386
8.00339
2833.26
2895.59
3036.92
2859.98
2324.26
3319.81
5158.97
5195.09
5240.37
5402.97
6080.66
5404.73
41.7372
41.7375
41.7377
41.7381
41.7384
41.7386
21.8071
21.8072
21.8074
21.8077
21.808
21.8083
5.54334
5.54337
5.54346
5.54361
5.54375
5.54378
39.5977
39.5988
39.599
39.5994
39.5996
39.5994
19.0126
19.0131
19.0133
19.0136
19.0138
19.0138
4.39033
4.39052
4.39064
4.39076
4.39085
4.39091
26.7644
26.771
26.7686
26.7701
26.7715
26.7681
8.37997
8.3819
8.38112
8.38158
8.38193
8.38121
1.08174
1.08225
1.08228
1.08228
1.08227
1.08223
-22.0294
-22.037
-22.0373
-22.0241
-22.0239
-22.0244
-16.9381
-16.928
-16.9326
-16.9336
-16.9296
-16.9366
-4.97331
-4.97196
-4.97247
-4.97306
-4.97311
-4.97431
10.6923
10.5928
10.6237
10.6766
10.643
10.6743
-43.2191
-43.2295
-43.2244
-43.2265
-43.2296
-43.2251
-14.1451
-14.1481
-14.1466
-14.1474
-14.1487
-14.1486
-73.6611
-73.6677
-73.6645
-73.6658
-73.6685
-73.6683
-51.5818
-51.5976
-51.5909
-51.5907
-51.596
-51.5874
-16.1102
-16.11
-16.1095
-16.1113
-16.1132
-16.115
-77.0257
-77.0276
-77.0291
-77.0299
-77.0299
-77.0277
-57.3787
-57.4012
-57.3944
-57.3872
-57.39
-57.3724
-10.2373
-10.2116
-10.2198
-10.2284
-10.2262
-10.2469
-34.5772
-34.5743
-34.5751
-34.571
-34.5709
-34.568
-33.1161
-33.1141
-33.1135
-33.1132
-33.113
-33.1068
-4.10072
-4.0964
-4.09825
-4.10011
-4.10007
-4.10432
11.4928
11.4968
11.4981
11.4999
11.4979
11.506
10.2102
10.215
10.2158
10.2148
10.213
10.2239
-0.669946
-0.668159
-0.669646
-0.670787
-0.671233
-0.671903
17.541
17.5434
17.5455
17.5456
17.5383
17.5441
30.0152
30.0216
30.0188
30.0148
30.0056
30.0297
-0.112187
-0.112639
-0.113289
-0.114002
-0.11589
-0.110079
44.327
44.313
44.3218
44.3119
44.304
44.3394
25.3074
25.3131
25.3115
25.3013
25.2838
25.3296
3.05975
3.05943
3.05929
3.05882
3.0565
3.06206
2302.78
2302.94
2303.61
2302.12
2301.21
2305.19
-7.16293
-7.16563
-7.16249
-7.15512
-7.14307
-7.18154
-19.0531
-19.0576
-19.0566
-19.0553
-19.0564
-19.0567
11958.2
11958.7
11959.9
11960.5
11962.1
11961.6
3.02025
3.01149
3.02074
3.06623
3.07363
3.14586
-6.76711
-6.74803
-6.70965
-6.65817
-6.57312
-6.59511
11987.4
11988.6
11989.1
11988.5
11988.5
11989.8
1.35843
1.48898
1.46152
1.39474
1.40294
8.90171
-5.80255
-5.79185
-5.78158
-5.77844
-5.75847
-5.73848
11710.6
11708.8
11711.7
11700
11692.2
11724.6
2.06598
2.07563
2.08502
2.07124
2.06614
2.08621
-5.71737
-5.71188
-5.70435
-5.69686
-5.67613
-5.69581
9634.95
9630.74
9634.88
9620.02
9609.38
9651.44
2.90933
2.90975
2.91566
2.90082
2.89555
2.93431
-6.68449
-6.67957
-6.67948
-6.65995
-6.63555
-6.69185
9497.39
9494.99
9499.91
9482.84
9470.77
9517.64
2.00578
2.00409
2.00892
2.00656
2.00167
2.00941
-9.49421
-9.49135
-9.4921
-9.48387
-9.47154
-9.50002
8089.64
8088.79
8092.61
8080.88
8073.74
8104.05
8.66927
8.67138
8.67421
8.67864
8.6828
8.67539
-13.6517
-13.6516
-13.6514
-13.6495
-13.645
-13.6549
13.5014
13.4947
13.4637
13.4224
13.4314
13.3531
8.64074
8.63945
8.62743
8.61263
8.61719
8.57525
3.12995
3.13026
3.1282
3.1248
3.1272
3.11734
1.61801
1.51988
1.52377
1.37986
1.14012
1.5841
6.41378
6.39471
6.38403
6.33816
6.29313
6.35328
3.57899
3.5802
3.57614
3.57076
3.57381
3.55781
-21.7562
-21.999
-21.9312
-22.1685
-22.4545
-21.9403
-2.44591
-2.50597
-2.48957
-2.56003
-2.63858
-2.52008
1.76584
1.76375
1.76361
1.7547
1.75356
1.754
-38.5553
-38.6988
-38.6651
-38.7023
-38.8151
-38.6944
-11.1153
-11.1572
-11.1255
-11.1887
-11.2097
-11.156
-0.48469
-0.486788
-0.485547
-0.494937
-0.490034
-0.49158
-34.223
-34.2848
-34.2528
-34.2764
-34.3052
-34.3859
-13.2319
-13.2595
-13.2474
-13.2869
-13.2984
-13.2683
-1.30602
-1.30655
-1.3049
-1.30433
-1.29743
-1.30347
-21.397
-21.422
-21.4045
-21.406
-21.351
-21.5091
-10.4844
-10.4931
-10.4947
-10.5082
-10.5069
-10.5247
-1.59348
-1.59283
-1.59112
-1.58795
-1.5815
-1.59145
-11.424
-11.4195
-11.3846
-11.3582
-11.2572
-11.363
-6.82985
-6.82709
-6.8212
-6.81486
-6.80098
-6.81712
-1.78541
-1.78345
-1.7792
-1.77416
-1.76615
-1.77232
-7.31774
-7.28889
-7.21682
-7.11282
-6.93686
-7.07192
-5.3265
-5.31298
-5.28699
-5.25306
-5.20861
-5.22805
-2.24118
-2.23545
-2.22488
-2.21229
-2.19923
-2.20028
-3.20586
-3.23617
-3.23854
-3.21168
-2.93799
-3.28342
-4.33139
-4.31361
-4.27475
-4.2387
-4.18251
-4.18083
-1.90798
-1.90567
-1.89898
-1.88719
-1.86887
-1.88282
-2.70457
-2.59376
-2.37625
-2.03281
-0.922806
-2.06449
-4.31157
-4.27202
-4.19229
-4.17473
-4.07246
-4.05957
-2.90952
-2.89253
-2.86162
-2.81324
-2.74789
-2.79363
-4.91864
-4.65967
-5.17215
-2.87555
3.41285
-4.68123
-3.20546
-3.14222
-3.03478
-2.95965
-2.59429
-2.79267
-3.86708
-3.83431
-3.77788
-3.61959
-3.36941
-3.59217
6257.14
6240.58
6222.96
6602.89
6887.66
6398.54
-0.548924
-0.525684
-0.468918
-0.521776
-0.443065
-0.299651
-12.1119
-12.0476
-11.9585
-11.8331
-11.6782
-11.613
)
;

boundaryField
{
    seabed_topleft_surface
    {
        type            fixedFluxPressure;
        gradient        uniform 0;
        value           nonuniform List<scalar> 
72
(
3681.98
3681.95
3681.94
3681.95
3681.95
3681.99
3764.57
3764.53
3764.52
3764.52
3764.53
3764.57
4375.4
4375.37
4375.36
4375.37
4375.38
4375.4
6195.44
6195.35
6195.37
6195.37
6195.36
6195.41
11015.8
11015.8
11015.8
11015.8
11015.8
11015.8
17559.2
17559.3
17559.2
17559.2
17559.2
17559.2
21180.4
21180.6
21180.5
21180.5
21180.6
21180.5
22295.8
22296.3
22296
22296.1
22296.2
22296
22226.5
22226.8
22226.7
22226.7
22226.7
22226.6
22668.4
22668.1
22668.2
22668.2
22668.1
22668.2
22856.5
22856
22856.2
22856.2
22856
22856.3
22123.6
22123.5
22123.5
22123.5
22123.5
22123.7
)
;
    }
    seabed_topright_surface
    {
        type            fixedFluxPressure;
        gradient        uniform 0;
        value           nonuniform List<scalar> 
72
(
188.934
189.995
188.912
190.034
192.354
187.677
186.002
187.484
184.78
187.501
190.553
183.292
194.378
199.281
189.354
200.395
227.149
186.401
367.333
368.15
348.093
369.038
418.765
299.262
494.701
500.14
508.364
514.131
512.739
475.056
488.963
486.153
496.961
514.658
516.318
538.616
549.651
552.186
558.004
561.082
560.564
594.706
1602.33
1602.66
1595.73
1584.07
1585.18
1573.67
3278.3
3287.13
3291.4
3347.71
3346.9
3183.39
2804.72
2816.53
2850.45
2847.26
2761.73
2902.71
1553.46
1552.62
1545.92
1495
1447.33
1610.65
1368.01
1364.29
1362.65
1339.59
1322.22
1339.19
)
;
    }
    breakwater_top_surface
    {
        type            fixedFluxPressure;
        gradient        uniform 0;
        value           nonuniform List<scalar> 
36
(
11958.2
11958.7
11959.9
11960.5
11962.1
11961.6
11987.4
11988.6
11989.1
11988.5
11988.5
11989.8
11710.6
11708.8
11711.7
11700
11692.2
11724.6
9634.95
9630.74
9634.88
9620.02
9609.38
9651.44
9497.39
9494.99
9499.91
9482.84
9470.77
9517.64
8089.64
8088.79
8092.61
8080.88
8073.74
8104.05
)
;
    }
    breakwater_left_surface
    {
        type            fixedFluxPressure;
        gradient        uniform 0;
        value           nonuniform List<scalar> 
24
(
22123.6
22123.5
22123.5
22123.5
22123.5
22123.7
18791.7
18789.4
18790.4
18790.1
18788.9
18791.8
4147.67
4144.64
4145.94
4145.73
4143.63
4147.87
139.06
138.937
138.966
138.995
138.963
138.934
)
;
    }
    breakwater_right_surface
    {
        type            fixedFluxPressure;
        gradient        uniform 0;
        value           nonuniform List<scalar> 
24
(
1368.01
1364.29
1362.65
1339.59
1322.22
1339.19
1096.46
1094.53
1066.92
1056.04
1023.14
1060.51
2867.3
3049.3
3477.22
2009.54
954.365
3325.38
5158.97
5195.09
5240.37
5402.97
6080.66
5404.73
)
;
    }
    water_front_surface
    {
        type            fixedFluxPressure;
        gradient        uniform 0;
        value           nonuniform List<scalar> 
186
(
3681.98
3764.57
4375.4
6195.44
11015.8
17559.2
21180.4
22295.8
22226.5
22668.4
22856.5
22123.6
57.639
71.3697
183.408
914.311
5123.42
15932.5
21458.8
21901.5
21579.2
19766.8
18371.2
18791.7
71.9741
75.8924
77.8472
96.9053
626.449
9231.97
17388.1
17364
10456.1
4672.01
4042.51
4147.67
55.8894
61.52
61.7155
48.8958
722.072
1063.76
425.574
-50.0288
-2.08482
12.0028
100.742
139.06
188.934
186.002
194.378
367.333
494.701
488.963
549.651
1602.33
3278.3
2804.72
1553.46
1368.01
145.07
106.285
-21.5803
-159.962
-129.874
-72.052
-18.962
180.459
1185.76
1848.45
1658.07
1096.46
70.5119
26.5844
-69.4752
-117.407
-93.6164
-47.4575
-20.0163
-11.1705
8.67807
1183.87
3159.11
2867.3
26.8777
-4.00786
-59.7421
-97.1461
-78.1107
-37.1656
-15.4925
-9.73675
-7.52843
6.69042
2833.26
5158.97
41.7372
21.8071
5.54334
39.5977
19.0126
4.39033
26.7644
8.37997
1.08174
-22.0294
-16.9381
-4.97331
10.6923
-43.2191
-14.1451
-73.6611
-51.5818
-16.1102
-77.0257
-57.3787
-10.2373
-34.5772
-33.1161
-4.10072
11.4928
10.2102
-0.669946
17.541
30.0152
-0.112187
44.327
25.3074
3.05975
2302.78
-7.16293
-19.0531
11958.2
3.02025
-6.76711
11987.4
1.35843
-5.80255
11710.6
2.06598
-5.71737
9634.95
2.90933
-6.68449
9497.39
2.00578
-9.49421
8089.64
8.66927
-13.6517
13.5014
8.64074
3.12995
1.61801
6.41378
3.57899
-21.7562
-2.44591
1.76584
-38.5553
-11.1153
-0.48469
-34.223
-13.2319
-1.30602
-21.397
-10.4844
-1.59348
-11.424
-6.82985
-1.78541
-7.31774
-5.3265
-2.24118
-3.20586
-4.33139
-1.90798
-2.70457
-4.31157
-2.90952
-4.91864
-3.20546
-3.86708
6257.14
-0.548924
-12.1119
)
;
    }
    water_back_surface
    {
        type            fixedFluxPressure;
        gradient        uniform 0;
        value           nonuniform List<scalar> 
186
(
3681.99
3764.57
4375.4
6195.41
11015.8
17559.2
21180.5
22296
22226.6
22668.2
22856.3
22123.7
57.6404
71.3712
183.386
914.222
5123.51
15932.5
21458.8
21901.5
21579.3
19767
18371.1
18791.8
71.9756
75.8923
77.8481
96.8943
626.392
9232.16
17390.1
17366
10457.3
4672.25
4041.57
4147.87
55.8908
61.522
61.7179
48.8543
721.844
1064.09
425.776
-50.0221
-2.08559
12
100.78
138.934
187.677
183.292
186.401
299.262
475.056
538.616
594.706
1573.67
3183.39
2902.71
1610.65
1339.19
143.853
103.986
-13.7229
-146.654
-128.216
-72.3271
-22.9537
151.253
1271.53
2047.1
1959.25
1060.51
69.5102
25.7484
-67.8495
-117.086
-93.6463
-48.102
-20.5809
-11.3617
5.93747
1364.47
3049.51
3325.38
26.587
-3.8443
-59.7714
-97.027
-78.9824
-37.8431
-15.6485
-9.28786
-7.17509
8.00339
3319.81
5404.73
41.7386
21.8083
5.54378
39.5994
19.0138
4.39091
26.7681
8.38121
1.08223
-22.0244
-16.9366
-4.97431
10.6743
-43.2251
-14.1486
-73.6683
-51.5874
-16.115
-77.0277
-57.3724
-10.2469
-34.568
-33.1068
-4.10432
11.506
10.2239
-0.671903
17.5441
30.0297
-0.110079
44.3394
25.3296
3.06206
2305.19
-7.18154
-19.0567
11961.6
3.14586
-6.59511
11989.8
8.90171
-5.73848
11724.6
2.08621
-5.69581
9651.44
2.93431
-6.69185
9517.64
2.00941
-9.50002
8104.05
8.67539
-13.6549
13.3531
8.57525
3.11734
1.5841
6.35328
3.55781
-21.9403
-2.52008
1.754
-38.6944
-11.156
-0.49158
-34.3859
-13.2683
-1.30347
-21.5091
-10.5247
-1.59145
-11.363
-6.81712
-1.77232
-7.07192
-5.22805
-2.20028
-3.28342
-4.18083
-1.88282
-2.06449
-4.05957
-2.79363
-4.68123
-2.79267
-3.59217
6398.54
-0.299651
-11.613
)
;
    }
    water_left_surface
    {
        type            fixedFluxPressure;
        gradient        uniform 0;
        value           nonuniform List<scalar> 
42
(
3681.98
3681.95
3681.94
3681.95
3681.95
3681.99
57.639
57.6393
57.6396
57.6399
57.6402
57.6404
71.9741
71.9753
71.9756
71.9758
71.9759
71.9756
55.8894
55.8899
55.8901
55.8904
55.8906
55.8908
41.7372
41.7375
41.7377
41.7381
41.7384
41.7386
21.8071
21.8072
21.8074
21.8077
21.808
21.8083
5.54334
5.54337
5.54346
5.54361
5.54375
5.54378
)
;
    }
    water_right_surface
    {
        type            fixedFluxPressure;
        gradient        uniform 0;
        value           nonuniform List<scalar> 
42
(
188.934
189.995
188.912
190.034
192.354
187.677
145.07
145.785
145.292
145.656
146.944
143.853
70.5119
70.7054
70.5086
70.3386
70.4068
69.5102
26.8777
26.8767
26.8198
26.6837
26.6681
26.587
13.5014
13.4947
13.4637
13.4224
13.4314
13.3531
8.64074
8.63945
8.62743
8.61263
8.61719
8.57525
3.12995
3.13026
3.1282
3.1248
3.1272
3.11734
)
;
    }
    water_top_surface
    {
        type            totalPressure;
        rho             rho;
        psi             none;
        gamma           1;
        p0              uniform 0;
        value           nonuniform List<scalar> 
180
(
0
0
0
0
0
0
0
0
0
0
0
0
0
0
0
0
0
0
0
0
0
0
0
0
0
0
0
0
0
0
0
0
0
0
0
0
0
0
0
0
0
0
-6.74747
-6.72639
-6.7379
-6.7425
-6.7363
-6.75371
-9.86832
-9.86227
-9.8671
-9.86942
-9.87
-9.87371
-4.13874
-4.13757
-4.13877
-4.14008
-4.14117
-4.13776
-0.922943
-0.921857
-0.92207
-0.922318
-0.922119
-0.921089
-2.72355
-2.72516
-2.72313
-2.72216
-2.72386
-2.72041
-1.92782
-1.94344
-1.92735
-1.90112
-1.9412
-1.86576
-2.05097
-2.08349
-2.08451
-1.98154
-1.96399
-2.16126
-2.1115
-2.11161
-2.10768
-2.12107
-2.16187
-2.04462
-3.02809
-3.0343
-3.01107
-3.06855
-3.13129
-2.94123
-3.49894
-3.50927
-3.48728
-3.53298
-3.58888
-3.43633
-1.47875
-1.48436
-1.47761
-1.48719
-1.50579
-1.4609
0
0
0
0
0
0
0
0
0
0
0
0
0
0
0
0
0
0
0
0
0
0
0
0
0
0
0
0
0
0
-0.161773
-0.161873
-0.161724
-0.161607
-0.16077
-0.162212
-0.717648
-0.71675
-0.715201
-0.713376
-0.710825
-0.712575
-2.05058
-2.04598
-2.04017
-2.03243
-2.02501
-2.02167
-1.68493
-1.6819
-1.67516
-1.66095
-1.643
-1.662
-4.22847
-4.21604
-4.18267
-4.18586
-4.15902
-4.11322
-4.90732
-4.88668
-4.8061
-4.79191
-4.73681
-4.6446
-2.38506
-2.375
-2.36298
-2.33339
-2.24164
-2.30171
)
;
    }
}


// ************************************************************************* //
