/*--------------------------------*- C++ -*----------------------------------*\
| =========                 |                                                 |
| \\      /  F ield         | OpenFOAM: The Open Source CFD Toolbox           |
|  \\    /   O peration     | Version:  v1612+                                |
|   \\  /    A nd           | Web:      www.OpenFOAM.com                      |
|    \\/     M anipulation  |                                                 |
\*---------------------------------------------------------------------------*/
FoamFile
{
    version     2.0;
    format      ascii;
    class       surfaceScalarField;
    location    "5";
    object      phi;
}
// * * * * * * * * * * * * * * * * * * * * * * * * * * * * * * * * * * * * * //

dimensions      [0 3 -1 0 0 0 0];

internalField   nonuniform List<scalar> 
2916
(
-6.27663e-06
0.117128
-0.117122
-7.76743e-06
0.117131
-0.117129
-2.24882e-06
0.117132
-0.117137
-5.99508e-06
0.117132
-0.117128
-1.20734e-05
0.117131
-0.117125
0.117128
-0.11714
-3.70061e-06
0.161945
-0.0448127
-6.33529e-06
0.161952
-0.0448186
-1.72733e-06
0.161952
-0.0448246
-6.96204e-06
0.161951
-0.0448136
-1.56962e-05
0.161951
-0.0448111
0.161947
-0.0448347
4.45085e-06
-0.0176463
0.179587
-1.42189e-07
-0.0176304
0.179587
-3.69101e-06
-0.0176335
0.179589
-9.66506e-06
-0.0176337
0.179591
-1.25639e-05
-0.0176305
0.179584
-0.0176389
0.179573
6.80037e-06
-0.427213
0.40956
-3.05436e-06
-0.427202
0.409581
-6.79252e-06
-0.427202
0.409572
-9.61321e-06
-0.427199
0.409568
-1.19811e-05
-0.427195
0.409567
-0.427201
0.40955
2.29759e-05
-0.962013
0.534776
1.03735e-05
-0.961988
0.534799
2.52462e-06
-0.961982
0.534788
-7.85482e-06
-0.961981
0.534793
-2.16384e-05
-0.961976
0.534794
-0.962
0.534778
-4.78714e-06
-1.43348
0.471469
1.85389e-05
-1.43349
0.471478
1.30985e-05
-1.43345
0.471478
-2.04204e-06
-1.43345
0.471487
-9.56139e-06
-1.43346
0.47149
-1.43349
0.471481
-5.39108e-05
-1.76549
0.332072
1.91533e-05
-1.7656
0.332039
1.44462e-05
-1.76551
0.332065
-2.1168e-06
-1.76551
0.332073
1.47801e-05
-1.76554
0.332064
-1.76554
0.332068
-4.34545e-05
-1.82271
0.0572541
1.66464e-05
-1.82292
0.0572578
4.58397e-06
-1.82279
0.0572923
-5.01965e-06
-1.82279
0.0572909
2.01933e-05
-1.82285
0.0572876
-1.82276
0.0572398
0.000165065
-1.56578
-0.257094
2.65102e-05
-1.56599
-0.256789
-2.90379e-05
-1.56587
-0.256873
-1.50038e-05
-1.56589
-0.256915
-7.70024e-05
-1.56597
-0.256823
-1.5658
-0.257045
0.000394849
-1.08069
-0.485482
2.1277e-05
-1.08071
-0.48491
-7.32806e-05
-1.08066
-0.485107
-4.16602e-05
-1.08073
-0.485192
-0.000225497
-1.08077
-0.485017
-1.08063
-0.485387
0.000231581
-0.454065
-0.626857
-1.98638e-05
-0.453971
-0.626487
-6.81578e-05
-0.453985
-0.62663
-6.34166e-05
-0.454036
-0.626698
-0.000236406
-0.454009
-0.626583
-0.454025
-0.626845
-0.000142788
-0.453922
-6.24745e-05
-0.454051
-2.64919e-05
-0.454021
-4.38916e-05
-0.454019
-3.89427e-05
-0.454014
-0.454065
-0.000130552
0.989178
-1.10617
-7.80693e-05
0.989144
-1.10632
-2.06987e-05
0.989122
-1.10631
2.51797e-05
0.989122
-1.10629
7.54499e-05
0.989124
-1.1063
0.989131
-1.10619
-5.87072e-05
1.14656
-0.20213
-0.000124696
1.14679
-0.202391
-7.95984e-05
1.14665
-0.202396
2.93615e-06
1.14661
-0.202382
3.89016e-05
1.14668
-0.202399
1.14662
-0.20229
0.000215098
0.095395
1.23054
-7.52385e-05
0.0959701
1.2307
-9.21005e-05
0.0956985
1.23056
-2.93392e-05
0.0956693
1.23047
-0.00012478
0.0958391
1.23052
0.095551
1.23052
0.000423206
-1.0448
1.54934
-3.89322e-05
-1.04458
1.55059
-9.11892e-05
-1.04469
1.55001
-9.40719e-06
-1.04466
1.54981
-0.000208969
-1.04458
1.55018
-1.04476
1.54965
0.000356561
-1.55417
1.04379
4.8308e-05
-1.55401
1.04454
-2.11091e-05
-1.55407
1.04423
-5.93818e-06
-1.55407
1.04419
-0.00020365
-1.55401
1.04442
-1.55413
1.04395
0.000232882
-1.61937
0.536439
1.98392e-05
-1.6194
0.537084
-7.97529e-06
-1.61937
0.53681
5.12718e-06
-1.61937
0.536772
-0.000148373
-1.61937
0.537002
-1.6194
0.536603
0.000111295
-1.50618
0.218771
7.15566e-06
-1.5064
0.219139
-1.20715e-05
-1.50629
0.218999
9.38577e-06
-1.50627
0.218954
-6.37261e-05
-1.50632
0.219087
-1.50626
0.218863
0.000253723
-1.28713
-0.16205
1.93176e-06
-1.28732
-0.161572
-3.35736e-05
-1.28723
-0.161732
2.37176e-05
-1.28722
-0.16182
-0.000105987
-1.28725
-0.161656
-1.28718
-0.161949
0.000370414
-0.935684
-0.608914
6.15698e-06
-0.935365
-0.608376
-3.75454e-05
-0.935494
-0.608561
2.05681e-05
-0.935532
-0.608659
-0.000159101
-0.935419
-0.60847
-0.935563
-0.60882
-3.31991e-05
-0.554467
-0.866665
-4.78942e-05
-0.553538
-0.866721
-3.27241e-05
-0.553932
-0.866684
-3.83686e-05
-0.553986
-0.866733
-5.09102e-05
-0.553707
-0.866716
-0.554216
-0.866785
-0.000489276
-0.362366
-0.818469
-8.61362e-05
-0.361694
-0.818735
7.58231e-06
-0.361975
-0.818681
-5.4047e-05
-0.36201
-0.818613
0.000119279
-0.361836
-0.818628
-0.362195
-0.818747
-0.00027078
-0.816017
-8.00533e-05
-0.815936
-4.10907e-05
-0.816036
-4.43647e-05
-0.816025
5.68329e-05
-0.815951
-0.816203
-0.000183719
-1.18346
0.0774805
-5.92988e-05
-1.18366
0.0772208
-2.89136e-05
-1.18362
0.0772809
1.20657e-05
-1.18362
0.077286
0.000109991
-1.18363
0.0772354
-1.18357
0.0774842
-0.000353945
-2.08367
0.698443
5.87531e-06
-2.08447
0.698069
1.89657e-05
-2.08412
0.698098
4.72987e-05
-2.08414
0.698117
0.000263871
-2.08426
0.698014
-2.08384
0.69824
-0.000163427
-3.38765
2.53468
2.55716e-05
-3.38975
2.53579
5.3322e-07
-3.38859
2.53505
6.72053e-05
-3.38859
2.53485
0.000201497
-3.38905
2.53517
-3.38776
2.53465
0.00264186
-4.51951
2.67856
-8.62374e-05
-4.52195
2.68552
-0.000325546
-4.52074
2.6824
0.00018104
-4.52078
2.68149
-0.00128348
-4.52139
2.68399
-4.51988
2.68048
0.00190167
-3.55769
0.0800618
-9.80292e-05
-3.55792
0.0825006
-0.000229928
-3.55786
0.0814835
-1.58779e-05
-3.55792
0.0811169
-0.001111
-3.55787
0.0819981
-3.55775
0.0807125
0.000572688
-2.33782
-0.68401
3.11924e-05
-2.3376
-0.682688
-4.32736e-05
-2.3377
-0.683276
1.23124e-05
-2.33779
-0.683413
-0.000318457
-2.33766
-0.682876
-2.33781
-0.683656
-0.000124261
-1.53739
-0.581531
9.6755e-06
-1.53697
-0.581631
-2.37348e-05
-1.53714
-0.581525
-1.14921e-05
-1.53725
-0.581597
0.00011806
-1.53709
-0.581613
-1.53733
-0.581496
-0.000705607
-0.773166
-0.925567
-6.49715e-05
-0.772637
-0.926542
-4.20975e-05
-0.77286
-0.926038
-8.70848e-05
-0.772978
-0.926044
0.000437436
-0.772812
-0.926461
-0.773107
-0.925738
-0.00149526
-0.0112819
-1.3693
-0.00013335
-0.0108884
-1.37149
4.60629e-05
-0.0110818
-1.37052
-0.00014624
-0.0110916
-1.37035
0.000709295
-0.0109862
-1.37115
-0.011352
-1.36986
-0.00195228
0.815945
-1.69194
-0.00015232
0.816091
-1.6955
0.000293651
0.815918
-1.69413
-3.42497e-05
0.816315
-1.69381
0.000793388
0.816323
-1.69485
0.815513
-1.69286
-0.00154111
0.107163
-0.108146
-6.97666e-05
0.106464
-0.110579
0.000211345
0.106624
-0.109667
7.45192e-05
0.10711
-0.10927
0.00131656
0.105881
-0.109428
0.107341
-0.109257
0.000915167
-0.70977
0.000152814
-0.708709
1.81443e-05
-0.709277
3.51368e-05
-0.708931
-0.000820104
-0.709215
-0.709681
-0.00010553
-1.10082
1.17841
-3.87128e-05
-1.10097
1.17812
-3.77916e-05
-1.10091
1.17818
-2.93165e-05
-1.10091
1.17819
9.57612e-06
-1.10093
1.17812
-1.10092
1.17842
-1.89549e-05
-2.00551
1.60316
2.81805e-05
-2.00577
1.60283
-4.47133e-05
-2.00563
1.6029
-3.65449e-06
-2.00579
1.60295
3.90054e-06
-2.00576
1.60284
-2.00578
1.6031
8.30578e-05
-2.77063
3.29971
0.000138999
-2.77049
3.30045
-1.26725e-05
-2.77034
3.29991
4.67676e-05
-2.77087
3.29987
5.06258e-05
-2.77067
3.30008
-2.77079
3.29971
0.000493484
-3.52483
3.43227
-0.000196063
-3.52312
3.43884
-0.00033848
-3.5236
3.43581
-0.0001175
-3.52437
3.43477
-0.000317824
-3.52379
3.43731
-3.52455
3.43392
0.000107314
-3.62674
0.181864
-0.000308105
-3.62467
0.18446
-0.000380975
-3.62551
0.18347
-5.2177e-05
-3.62622
0.182629
4.82026e-05
-3.62551
0.183621
-3.62649
0.182698
-0.00132981
-3.27397
-1.03545
-0.000181393
-3.27064
-1.03786
-0.000328642
-3.27213
-1.03651
-0.000197401
-3.2727
-1.03706
0.000963864
-3.27162
-1.03793
-3.27331
-1.03586
-0.00237645
-2.14798
-1.70514
-0.000293073
-2.14477
-1.70959
-0.000379846
-2.14595
-1.70762
-0.000469429
-2.14687
-1.70733
0.0013977
-2.14612
-1.70898
-2.14713
-1.70628
-0.00226028
0.727717
-3.79901
-0.000441378
0.728158
-3.80129
-0.000603412
0.728471
-3.80028
-0.000995553
0.727593
-3.80013
0.000706871
0.727161
-3.80145
0.727724
-3.79989
-0.00139087
2.4515
-3.0917
-0.000654006
2.44851
-3.09259
-0.000766081
2.45007
-3.092
-0.000953823
2.45016
-3.09272
0.000542903
2.44858
-3.09405
2.4499
-3.0915
0.00032328
1.96582
-1.20657
9.65458e-05
1.96072
-1.2075
0.000281108
1.96273
-1.20699
0.000164917
1.96424
-1.20778
0.000115746
1.96304
-1.20927
1.96229
-1.20514
0.000191663
0.158988
1.6985
0.000700358
0.151638
1.69801
0.00143661
0.154255
1.69807
0.000599396
0.157875
1.69793
-4.54131e-05
0.157211
1.69704
0.153598
1.69939
0.00259331
-0.553382
-0.000643253
-0.553832
-0.00195261
-0.553713
0.000564437
-0.553573
0.00287222
-0.55431
-0.553217
-0.0776636
-2.57334
2.651
0.0112998
-2.74341
2.65444
-0.12431
-2.52135
2.65696
-0.0828276
-2.69742
2.65594
0.398952
-3.12323
2.64146
-2.25882
2.65777
-0.0969733
-5.56932
3.09296
0.0266744
-5.87478
3.00773
-0.226225
-5.45445
3.186
-0.149455
-5.7891
3.01491
0.570231
-6.43007
2.58715
-5.05975
3.37116
-0.0591979
-7.66009
2.14996
0.061788
-7.92189
1.92612
-0.161688
-7.64637
2.4154
-0.0747603
-7.79931
1.92328
0.501574
-8.11343
1.10703
-7.24625
2.68808
0.0247847
-7.80975
0.124883
0.038713
-8.00377
0.0679492
0.08038
-7.88913
0.201091
0.0916279
-7.89353
0.082976
0.0427671
-8.05074
-0.0138263
-7.5995
0.396016
0.0385789
-7.26853
-0.579806
0.0727482
-7.42072
-0.617214
0.16634
-7.32715
-0.655565
0.114283
-7.34631
-0.495161
-0.0750419
-7.53295
-0.328474
-7.05289
-0.621658
0.0493367
-6.43536
-0.882502
0.0917995
-6.51974
-0.943444
0.234169
-6.41732
-1.0522
0.154571
-6.49039
-0.776324
-0.186258
-6.76868
-0.423438
-6.08996
-1.14919
0.0413465
-5.79181
-0.684897
0.0862213
-5.79998
-0.764641
0.222474
-5.70843
-0.845149
0.145135
-5.78417
-0.628886
-0.207297
-6.03304
-0.383206
-5.41843
-0.878817
-0.00253055
-4.59441
-1.19487
0.0271402
-4.58807
-1.24158
0.122789
-4.53722
-1.26685
0.0360081
-4.63432
-1.06306
-0.150622
-4.91245
-0.93396
-4.35679
-1.21227
-0.0550613
-2.0388
-2.50054
-0.0372164
-2.06431
-2.5416
0.0510403
-2.07395
-2.55153
-0.0888603
-2.05114
-2.44328
-0.164232
-2.30944
-2.52764
-2.05207
-2.46894
-0.0427175
0.83705
-2.83314
0.0113218
0.758445
-2.8768
0.383841
0.452932
-2.8994
-0.0142868
1.10058
-2.75359
-0.786818
1.04013
-2.57704
-0.0901798
-2.74871
0.0734278
2.50605
-1.74242
0.189329
2.48482
-1.84227
0.636338
2.06499
-2.05906
0.410365
2.68562
-1.35907
-0.72221
2.43223
-0.259525
1.39037
-2.20276
0.180047
2.326
0.394002
2.27086
1.0671
1.39189
0.825078
2.92764
-0.458505
3.71582
0.931862
-0.075574
-2.27007
4.99664
0.00220632
-2.4368
5.01346
-0.0960541
-2.24887
5.00409
-0.0229807
-2.43164
5.0145
0.403777
-2.81701
5.03171
-1.90502
4.96657
-0.0345169
-4.57383
5.43123
-0.0403627
-4.80265
5.37943
-0.0123284
-4.59834
5.50744
0.0374405
-4.83127
5.36477
0.00737418
-5.27773
5.07793
-4.14907
5.62258
0.0416839
-6.15946
3.69391
-0.139475
-6.29126
3.59589
0.115521
-6.2374
3.79946
0.0964624
-6.43399
3.54506
-0.626774
-6.64723
3.19976
-6.07249
3.98473
0.029549
-6.43375
0.369627
-0.0688984
-6.46995
0.34509
-0.102724
-6.42173
0.419247
-0.145214
-6.64195
0.333427
-0.120149
-7.04111
0.354988
-6.39614
0.599517
0.0358724
-5.08797
-1.96146
0.0239582
-5.09098
-1.98427
-0.114072
-4.92824
-2.01102
-0.113912
-5.31699
-1.82028
0.23707
-6.27573
-1.44483
-4.84624
-1.93449
0.0779094
-4.10838
-1.94
0.0863841
-4.05245
-1.99045
0.0865374
-3.86629
-2.1143
0.133362
-4.26541
-1.87473
0.0456116
-5.28047
-1.33095
-3.6941
-2.25572
0.0378607
-4.03185
-0.799288
0.0592634
-3.97524
-0.86325
0.161716
-3.8485
-0.965389
0.212436
-4.17861
-0.766409
-0.22226
-4.8788
-0.350182
-3.70818
-1.087
-0.0214027
-3.97496
-1.23035
-0.00728214
-3.9678
-1.26314
0.0863046
-3.89482
-1.31413
0.0520434
-4.18293
-1.02449
-0.243314
-4.70767
-0.809728
-3.83585
-1.32792
-0.0280728
-3.36491
-3.08252
-0.0290127
-3.36075
-3.14771
0.0327505
-3.29946
-3.20864
-0.0200937
-3.47395
-3.09941
-0.207893
-3.73156
-3.31596
-3.26201
-3.25068
-0.0343554
-2.31372
-3.84997
-0.0644827
-2.33451
-3.87291
-0.0415571
-2.32548
-3.89632
-0.0635065
-2.42048
-3.78511
-0.197046
-2.47615
-3.69891
-2.34628
-3.86148
0.0733285
-1.42741
-2.70207
0.0881523
-1.42681
-2.7648
0.19456
-1.58783
-2.90312
0.188794
-1.36545
-2.40833
-0.0675456
-1.36533
-1.114
-1.62165
-2.99493
0.517847
0.380742
1.10419
0.257711
1.42155
-0.513302
1.88787
1.09588
-0.259104
4.49745
-0.948895
-0.0421153
-0.30754
5.3463
0.0009532
-0.394657
5.36505
-0.0482758
-0.295888
5.3492
0.00853248
-0.406237
5.36393
0.238717
-0.599312
5.40084
-0.0962472
5.30154
-0.017842
-0.818332
5.95986
-0.0391478
-0.941252
5.94733
0.0314512
-0.852595
5.99355
0.0467751
-0.99813
5.94134
-0.114447
-1.19563
5.83547
-0.619387
6.03128
-0.00832139
-1.44249
4.32639
-0.0911724
-1.53856
4.27605
0.0320195
-1.55526
4.37893
-0.0374734
-1.63514
4.25157
-0.388769
-1.78153
4.13696
-1.50332
4.47989
-0.0553253
-1.8969
0.87937
-0.100242
-1.95596
0.807405
-0.184612
-1.98476
0.933112
-0.210761
-2.05482
0.779253
0.0196227
-2.3027
0.645769
-2.05241
1.16823
-0.0293265
-2.16966
-1.65938
-0.0766868
-2.20708
-1.68578
-0.239261
-2.18754
-1.64567
-0.179903
-2.24165
-1.69281
0.244685
-2.47426
-1.69785
-2.19486
-1.54735
0.00610361
-2.00988
-2.10587
-0.0475665
-2.02168
-2.12218
-0.235422
-1.99015
-2.12384
-0.166477
-2.02368
-2.16164
0.35089
-2.17545
-2.14713
-1.96609
-2.1336
-0.00226577
-1.19867
-1.60823
-0.0795663
-1.19151
-1.61612
-0.243844
-1.16228
-1.62898
-0.173085
-1.24923
-1.61162
0.26116
-1.42624
-1.53364
-1.13196
-1.65996
-0.0273198
-0.983027
-1.41868
-0.099113
-0.969011
-1.41384
-0.210594
-0.940613
-1.42431
-0.165401
-1.01957
-1.29934
0.127365
-1.33767
-1.19106
-0.915242
-1.41727
-0.0259249
-2.03189
-2.00773
-0.0617348
-2.03427
-2.04665
-0.0975451
-2.03342
-2.08002
-0.0672889
-2.03078
-2.11847
-0.0730374
-2.37028
-2.2776
-2.05201
-2.18694
-0.0525023
-2.13453
-3.69483
-0.123756
-2.13734
-3.69858
-0.222413
-2.11177
-3.71931
-0.135531
-2.29552
-3.60725
-0.00751152
-3.09285
-3.10436
-2.2039
-3.71711
-0.0489318
-1.46239
-3.32528
-0.168709
-1.45125
-3.33111
-0.472912
-1.35492
-3.35577
-0.396462
-1.57407
-3.20623
0.501603
-2.30087
-2.80405
-1.41444
-3.28279
0.031304
-1.11295
-0.0030303
-1.1592
-0.535233
-1.33602
-0.112777
-0.900647
1.02635
1.05746
-1.33699
-0.014485
0.747183
4.6136
-0.000608269
0.727248
4.62393
-0.0169791
0.749779
4.61579
0.00317367
0.72006
4.62372
0.0828034
0.671594
4.64962
0.793343
4.591
-0.0135624
1.60121
5.11939
-0.0174186
1.55474
5.1237
0.00516486
1.59174
5.12901
0.0174353
1.52286
5.12627
-0.0127112
1.42382
5.11339
1.69391
5.118
-0.00793051
2.09576
3.83977
-0.0471734
2.04944
3.82059
0.00653103
2.05552
3.86144
-0.0324387
1.99551
3.81789
-0.180325
1.92596
3.78271
2.0979
3.89558
0.00172053
1.83009
1.14332
-0.0448392
1.7888
1.11461
-0.00268711
1.78873
1.15776
-0.0570489
1.72509
1.10403
-0.237235
1.6715
1.08042
1.7962
1.23269
0.0175347
0.953403
-0.800224
0.00692783
0.931842
-0.818215
0.0108124
0.933968
-0.794789
-0.0181379
0.885892
-0.824656
-0.0776964
0.857605
-0.824395
0.927114
-0.755965
0.0241864
0.508095
-1.68475
0.0351786
0.493294
-1.69462
0.0462219
0.49056
-1.69147
0.01568
0.451554
-1.69676
-0.0189366
0.426703
-1.68161
0.472394
-1.69781
0.00868587
0.559393
-1.66821
0.0087122
0.54864
-1.67149
0.00177958
0.536565
-1.66805
-0.00981786
0.50977
-1.65824
0.014785
0.490714
-1.62225
0.501197
-1.67398
-0.0388792
0.697006
-1.51742
-0.0801843
0.686274
-1.51017
-0.165344
0.69553
-1.49812
-0.152204
0.666132
-1.46884
0.109928
0.436459
-1.39893
0.669942
-1.47609
-0.0127986
-0.142653
-1.15527
-0.0384498
-0.155337
-1.17938
-0.0861089
-0.146952
-1.18988
-0.083797
-0.23406
-1.22058
0.0714693
-0.789684
-1.20673
-0.199107
-1.24642
-0.0360938
-1.47958
-2.32181
-0.0762831
-1.50415
-2.30958
-0.125006
-1.53629
-2.28125
-0.11123
-1.53697
-2.31811
0.0155829
-1.8708
-2.15006
-1.63408
-2.26655
-0.0490094
-1.21312
-3.54273
-0.131057
-1.22777
-3.52545
-0.271698
-1.24837
-3.50304
-0.208815
-1.32919
-3.4769
0.109476
-1.74982
-3.24332
-1.34716
-3.46024
-0.0589393
-2.26712
-0.19158
-2.25433
-0.547856
-2.22812
-0.637898
-2.13979
0.559132
-1.88938
-2.12501
-2.10516e-05
1.57216
-0.393731
-3.15294e-05
1.57198
-0.393852
-4.56576e-05
1.57202
-0.39382
-4.81581e-05
1.57202
-0.393831
-5.38773e-05
1.57198
-0.393856
1.57217
-0.393807
2.32768e-05
1.73473
-0.162602
-9.34479e-06
1.73467
-0.162662
-3.33343e-05
1.73468
-0.162647
-4.61092e-05
1.73469
-0.162661
-6.99193e-05
1.73468
-0.162675
1.73475
-0.16265
3.57032e-06
0.0199524
-4.64719e-06
0.0199523
-1.21958e-05
0.0199537
-1.61197e-05
0.0199492
-1.66571e-05
0.0199476
0.0199403
-9.78031e-05
1.87825
-0.668728
-4.29828e-05
1.87808
-0.669166
-9.01499e-05
1.87812
-0.669001
-6.9591e-05
1.87815
-0.669047
-5.00005e-05
1.8781
-0.669141
1.87826
-0.669017
-0.000100252
1.85342
-0.137672
-5.51393e-05
1.85336
-0.137994
-7.85292e-05
1.85338
-0.137884
-7.83293e-05
1.85339
-0.137905
-4.13243e-05
1.85338
-0.137991
1.85345
-0.137879
-2.84422e-05
0.10079
-2.06803e-05
0.100734
-3.08696e-05
0.100762
-3.15963e-05
0.100751
-1.80696e-05
0.100735
0.100741
-2.29713e-05
2.77958
-0.148573
0.000105968
2.77972
-0.148571
-0.000139565
2.77956
-0.14841
-0.000123663
2.77968
-0.148884
-3.59206e-05
2.77968
-0.148837
2.77968
-0.149026
-0.000212133
2.05512
0.586991
-3.23043e-05
2.05511
0.586425
-0.00011063
2.05509
0.586652
-0.000112392
2.05515
0.586622
-9.98496e-06
2.05514
0.586442
2.05521
0.586573
-0.000105952
0.364415
-2.66158e-05
0.364152
-3.94353e-05
0.364262
-4.29132e-05
0.364279
4.82183e-06
0.364199
0.364279
-0.00116146
3.72526
-0.4404
0.000111186
3.72826
-0.439263
3.84224e-05
3.72688
-0.439415
-0.000304682
3.72653
-0.440302
0.000619583
3.72753
-0.439976
3.7261
-0.440587
-0.000431861
2.45595
1.85673
9.93581e-05
2.45682
1.85733
3.55784e-05
2.45636
1.85724
-0.000118221
2.4565
1.85682
0.00018526
2.45668
1.85699
2.45642
1.85645
-0.000128471
1.25585
3.57924e-05
1.25586
3.65365e-06
1.25586
-1.73464e-05
1.25584
7.65327e-05
1.25579
1.2558
-8.40227e-05
1.82004
-2.0785
-0.000227748
1.82255
-2.07721
-0.00022892
1.82152
-2.07747
-0.000237753
1.82084
-2.0785
5.48757e-05
1.82175
-2.0784
1.82092
-2.07875
0.000397099
2.21466
1.46171
-8.7191e-05
2.21714
1.46323
-0.000113267
2.21594
1.46285
-0.000177914
2.2157
1.46203
-0.000343526
2.21643
1.46248
2.21572
1.4613
8.84302e-05
2.00511
2.48591e-05
2.0059
3.77791e-05
2.00561
-4.31546e-05
2.00536
-0.000112874
2.00566
2.00508
0.00150213
0.512893
-3.62834
-1.7491e-05
0.512908
-3.62645
-0.000100569
0.513109
-3.627
-1.15483e-05
0.512216
-3.62787
-0.000660284
0.512193
-3.62788
0.512738
-3.62801
0.00181756
1.37863
0.594161
1.24409e-06
1.38169
0.596265
-0.000101279
1.38035
0.595717
-4.75431e-05
1.37948
0.594711
-0.00110048
1.38065
0.595066
1.37948
0.593459
0.000309969
1.97003
1.34087e-05
1.97115
6.46442e-05
1.97072
-2.30072e-05
1.97035
-0.000373451
1.97085
1.96969
0.00114536
-1.29342
-4.0412
-0.000161076
-1.29391
-4.04082
-0.00022038
-1.29368
-4.04088
-0.00023742
-1.29415
-4.04103
-0.0011903
-1.29459
-4.04132
-1.29464
-4.04084
0.00274974
-0.325718
-0.376289
1.18529e-05
-0.319609
-0.375293
-0.000195311
-0.322297
-0.375463
0.000281897
-0.323841
-0.37608
-0.00158493
-0.321599
-0.376062
-0.325902
-0.376868
-0.000417869
1.3789
0.000114215
1.38049
0.000339983
1.37981
8.70828e-05
1.37942
0.000301311
1.37991
1.37819
0.000638932
-3.19606
-4.64478
-0.000123508
-3.19467
-4.64668
8.16333e-05
-3.19532
-4.64605
-0.000253194
-3.19576
-4.64505
-0.00181393
-3.19581
-4.64538
-3.1968
-4.64574
0.000557289
-2.75605
-0.816859
5.08378e-05
-2.75253
-0.816922
0.000258055
-2.75423
-0.816756
0.000385704
-2.75495
-0.817011
-0.000539278
-2.75386
-0.817081
-2.75681
-0.817395
-0.000443697
0.531032
0.000128946
0.532148
0.00042508
0.531589
0.000356544
0.531401
0.000689784
0.53166
0.530495
0.000644864
-2.69115
-5.04596
0.000224607
-2.68929
-5.04955
0.000601706
-2.69001
-5.04843
0.000136221
-2.69076
-5.04655
-0.00191381
-2.69104
-5.04635
-2.69029
-5.04886
-0.000163079
-2.7664
-0.741445
0.000220095
-2.76526
-0.741336
0.000568374
-2.76581
-0.741291
0.000211047
-2.766
-0.741405
-0.000778405
-2.7659
-0.741236
-2.76634
-0.742121
-0.000413244
0.153656
0.000190735
0.15401
0.000343194
0.153823
0.000304872
0.153793
0.000555859
0.153828
0.153381
0.00104549
-1.2072
-5.04637
0.000109469
-1.20562
-5.05048
4.83961e-06
-1.20623
-5.04907
-0.000105992
-1.20704
-5.04717
-0.0011523
-1.208
-5.04657
-1.20504
-5.05011
-0.00063531
-1.54372
-0.404299
0.000356476
-1.54333
-0.404641
0.00090264
-1.54353
-0.404537
0.000153504
-1.54376
-0.403936
-0.00218274
-1.5442
-0.402712
-1.54302
-0.406331
-5.77758e-05
0.222728
0.000152117
0.222774
0.000159875
0.22275
0.000147356
0.22273
-3.94156e-05
0.22271
0.22266
0.00127996
0.648113
-3.99728
-0.000317962
0.648264
-3.99914
-0.000490618
0.648058
-3.99888
-0.000197193
0.647529
-3.99706
0.000138355
0.646088
-3.99594
0.649682
-4.00027
-8.51157e-05
-0.295849
0.539757
0.000136892
-0.295864
0.539273
0.000429242
-0.295922
0.539153
0.000153943
-0.296417
0.540281
-0.000902578
-0.297191
0.541618
-0.295
0.537448
0.000119035
0.687417
0.000136804
0.6872
9.48638e-05
0.68737
7.93932e-05
0.687059
-0.000106617
0.686484
0.687914
-0.000311257
-2.97102
-1.57933
-0.000644698
-2.97331
-1.57932
-0.00096566
-2.97282
-1.57945
-0.000176289
-2.97283
-1.57859
0.00159023
-2.97442
-1.5776
-2.97147
-1.58043
0.000670253
-2.29924
-0.132697
-6.31889e-05
-2.30073
-0.132578
0.000150441
-2.30033
-0.133557
-0.00012906
-2.30021
-0.132068
-0.000169522
-2.301
-0.131765
-2.2997
-0.134491
0.000637677
-0.236673
0.000324012
-0.236832
0.000403337
-0.237011
0.000173679
-0.237024
-0.000870745
-0.237123
-0.237158
-0.00110615
-0.478126
-0.937149
1.41638
-0.0014488
-0.47886
-0.937318
1.41652
-0.00442638
-0.475635
-0.937589
1.4162
-0.00353299
-0.475988
-0.934425
1.40952
0.00489845
-0.471073
-0.93363
1.39627
-0.467652
-0.937062
1.40961
-0.00903931
-0.554597
-0.675057
0.760567
-0.00482445
-0.556648
-0.675282
0.74885
0.00319853
-0.55297
-0.676258
0.745567
-0.0131758
-0.550202
-0.657798
0.748383
-0.0359934
-0.547581
-0.651236
0.750558
-0.540414
-0.685369
0.722136
-0.00539313
-0.274293
0.410112
-0.00833772
-0.271002
0.404804
-0.0101261
-0.268336
0.401823
-0.0114432
-0.266866
0.398105
-0.00297661
-0.26146
0.39184
-0.259939
0.390579
-0.000304785
-0.266625
-0.67022
-0.000136456
-0.26735
-0.670136
0.00024441
-0.267744
-0.670226
0.000232139
-0.264449
-0.669964
0.000210571
-0.26401
-0.669598
-0.266345
-0.670507
-0.004625
-0.409012
-0.528048
-0.00526743
-0.414745
-0.527249
-0.0058192
-0.415549
-0.527905
-0.00821709
-0.401252
-0.518601
-0.00956684
-0.400925
-0.512973
-0.427284
-0.533996
-0.00274898
0.0178177
-0.00378195
0.0188347
-0.00430625
0.0203355
-0.00437558
0.0190004
-0.00181054
0.0191364
0.0258229
-0.000274172
-0.355701
-0.314244
-0.000256082
-0.35606
-0.314094
-2.50766e-05
-0.356009
-0.314448
-0.000117408
-0.356597
-0.313274
7.70991e-05
-0.356954
-0.312839
-0.355575
-0.314854
-0.00141569
-0.544948
-0.337387
-0.00348374
-0.545153
-0.336092
-0.006937
-0.544729
-0.335735
-4.73007e-05
-0.546996
-0.335092
0.0142114
-0.551852
-0.332332
-0.538072
-0.337285
-0.000984242
0.182828
-0.00132683
0.183042
-0.00141023
0.184072
-0.00151729
0.182559
0.000958268
0.181581
0.186944
-0.000337791
-0.318843
0.00493591
0.000137129
-0.319456
0.00488704
0.00176716
-0.320903
0.00482489
-9.30994e-05
-0.316188
0.0047741
-0.00310219
-0.314255
0.00442511
-0.322986
0.00502978
-0.00209752
-0.615857
-0.0382764
-0.00247645
-0.61681
-0.0383629
-0.00502723
-0.615909
-0.0381834
-0.00150584
-0.61777
-0.037037
0.00943586
-0.622143
-0.0353868
-0.611007
-0.0398291
-0.00058836
0.414686
-0.000913897
0.414548
-0.00337154
0.41555
-0.000718735
0.414516
0.00611947
0.413022
0.417689
-0.000439248
-0.462542
0.467917
-0.00040096
-0.463073
0.467921
5.06114e-05
-0.463647
0.46802
-0.000155982
-0.462289
0.46727
-0.000292485
-0.461991
0.466553
-0.463882
0.46862
-0.000716218
-0.733998
0.233893
-0.0011329
-0.735059
0.234036
-0.00358342
-0.73391
0.234527
-0.000362808
-0.736627
0.234079
0.0085419
-0.740839
0.234557
-0.729914
0.234744
-0.000362225
0.599601
-0.000325191
0.59933
-0.00171656
0.600206
-0.000389944
0.599254
0.00342098
0.597746
0.601981
-0.000386506
-1.11102
-0.00044706
-1.11134
-0.000244829
-1.11164
-0.000139875
-1.11143
0.000253414
-1.11144
-1.11155
-0.000402392
-1.00943
-0.000253656
-1.01004
-0.0013465
-1.00958
-0.000203563
-1.01056
0.00351919
-1.01237
-1.00778
6.05738e-05
0.000171648
0.000158457
-7.42377e-06
-0.000129054
-0.00382586
3.73543
0.882002
-0.00104169
3.73878
0.882359
-0.00444392
3.73725
0.881952
-0.00121717
3.73909
0.881399
0.0193727
3.74795
0.881075
3.7298
0.880563
-0.00105339
3.18939
0.547087
-0.000890552
3.19009
0.548529
-0.000912668
3.1904
0.54687
-0.00110636
3.19033
0.548953
0.0025268
3.19183
0.552484
3.18942
0.542914
-0.000322975
0.196448
-0.000434006
0.196663
-0.000279232
0.196408
-0.000432642
0.196794
3.01814e-05
0.197461
0.195854
-0.00445447
4.00501
2.00084
-0.0048519
4.0091
1.99736
-0.00252912
4.00624
2.00239
0.00655371
4.00984
1.98875
0.0102299
4.01694
1.97384
3.99386
2.01492
-0.000762448
3.24959
1.30327
-0.000690724
3.25086
1.30669
-0.00102276
3.24987
1.30358
0.000760519
3.25056
1.30645
0.00425364
3.25397
1.31197
3.24587
1.29516
-0.000184843
0.482814
-0.00016008
0.483821
-0.000101302
0.482591
-0.000309604
0.484455
0.000243958
0.487081
0.479355
-0.00215998
3.07998
2.76279
-0.0155665
3.07833
2.75302
0.000878046
3.08431
2.76308
-0.00823832
3.08247
2.73328
-0.0470081
3.08363
2.71169
3.08347
2.78003
-0.000320186
2.48633
1.89724
-0.00324752
2.48749
1.90046
-0.000906696
2.48648
1.89906
-0.00111534
2.48942
1.89971
-0.00261255
2.49371
1.90338
2.483
1.89301
-0.000275672
0.692843
-0.000479332
0.69454
-0.000719719
0.692907
-0.00023654
0.696462
0.00170472
0.700403
0.68867
0.00410163
1.40532
2.49668
-0.0120487
1.39798
2.4858
0.00548289
1.40775
2.49556
-0.0212972
1.40032
2.46377
-0.08772
1.40479
2.45374
1.41852
2.50648
0.00128232
1.35192
1.94936
-0.00331681
1.35148
1.95156
0.00064181
1.3512
1.95165
-0.00493295
1.35331
1.95229
-0.0137911
1.35822
1.9588
1.34904
1.9487
-0.000192837
0.691416
-0.000628954
0.692886
-0.00116944
0.691604
-0.000588144
0.695164
0.00313868
0.698806
0.688785
0.00593848
-0.278859
1.96937
-0.00614155
-0.284423
1.96409
0.00530924
-0.280821
1.97014
-0.0189162
-0.285713
1.94906
-0.0547586
-0.284593
1.94978
-0.277186
1.97294
0.00186703
0.2335
1.43513
-0.000436442
0.23259
1.43685
0.00182415
0.232485
1.43608
-0.00268922
0.232939
1.43815
-0.0076993
0.235266
1.44396
0.231015
1.4328
-0.000367784
0.479689
-0.000750987
0.480414
-0.0017498
0.47962
-0.000853602
0.481509
0.00315722
0.483101
0.478337
0.00321907
-1.03609
1.31749
-0.00358259
-1.03966
1.31593
-0.0019627
-1.03906
1.31612
-0.0130908
-1.04232
1.30575
-0.00850936
-1.04218
1.30578
-1.04219
1.30882
0.00125274
-0.483713
0.881508
0.000717537
-0.484413
0.88214
0.00115387
-0.484156
0.880741
-0.000422834
-0.484005
0.881407
0.000186602
-0.482368
0.883531
-0.485283
0.876072
-0.000529115
0.288032
-0.00102091
0.288102
-0.0018815
0.287797
-0.0010156
0.287963
0.0020739
0.288148
0.287057
-0.00503646
-1.18115
0.835474
-0.0144803
-1.18204
0.835919
-0.020276
-1.18064
0.834501
-0.0218734
-1.1803
0.82941
0.0111953
-1.17609
0.826544
-1.18072
0.826746
-0.00116796
-0.783932
0.485454
-0.00226944
-0.78367
0.484874
-0.0026931
-0.782524
0.483051
-0.00262414
-0.780832
0.481874
0.000975347
-0.777513
0.48136
-0.78129
0.477621
-0.00108409
0.146081
-0.00211383
0.14597
-0.00286433
0.145839
-0.00220106
0.14546
0.00119264
0.145074
0.145591
-0.0139926
-1.16947
0.501526
-0.0282586
-1.16746
0.507471
-0.039236
-1.16304
0.510398
-0.0349235
-1.15351
0.50977
0.00946226
-1.13836
0.521581
-1.15289
0.513007
-0.00524528
-1.12397
0.4452
-0.00985879
-1.12229
0.444323
-0.0120206
-1.12014
0.442321
-0.0121221
-1.11625
0.444719
-0.00414139
-1.11221
0.447232
-1.11407
0.434665
-0.00172859
0.113508
-0.00303132
0.113438
-0.0036221
0.113214
-0.00301589
0.113487
-0.000673613
0.113471
0.112873
0.0116065
-0.839578
0.174225
0.00282499
-0.839926
0.176796
-0.0248907
-0.836512
0.184744
-0.0257201
-0.832632
0.122648
0.0561778
-0.815892
0.0488488
-0.832546
0.155309
-0.00853843
-0.913106
0.527267
-0.0152824
-0.912933
0.524074
-0.0136665
-0.912366
0.516561
-0.0179002
-0.907862
0.524184
-0.0143725
-0.899766
0.52758
-0.911451
0.499197
-0.00115989
0.190495
-0.00233546
0.189756
-0.00401148
0.188692
-0.00321268
0.186848
0.00264768
0.184614
0.186516
-0.0256652
-1.45253
-0.669397
-0.0489483
-1.44596
-0.663538
-0.0794422
-1.42812
-0.637892
-0.113809
-1.44739
-0.71371
0.049179
-1.42224
-0.841953
-1.42196
-0.640105
-0.0167141
-1.55541
0.646863
-0.0249412
-1.55457
0.640908
-0.0177636
-1.55033
0.63159
-0.0303503
-1.53858
0.627962
-0.0142335
-1.51833
0.607552
-1.54206
0.605067
-0.00348514
0.20334
-0.00788498
0.202064
-0.0145836
0.201428
-0.00968006
0.19999
0.0107236
0.197368
0.198647
0.00714863
-1.92086
-2.29842
0.0161324
-1.91195
-2.28602
0.0411172
-1.90682
-2.25909
0.013853
-1.82613
-2.33721
0.0199195
-1.57076
-2.52058
-1.83893
-2.2415
-0.039127
-1.64872
0.413848
-0.08118
-1.64766
0.418662
-0.132237
-1.64292
0.418739
-0.136578
-1.60611
0.412278
0.0445829
-1.54939
0.405014
-1.61307
0.423787
-0.00537048
0.253082
-0.0147518
0.253321
-0.0345672
0.254092
-0.0256243
0.257299
0.0238844
0.260504
0.256824
0.00550568
-3.15467
0.00434854
-3.12268
0.0182348
-3.08489
0.0245093
-3.07376
-0.0139219
-2.97527
-2.97081
-0.0370515
-1.94321
-0.063743
-1.92848
-0.0686255
-1.91571
-0.0823325
-1.8994
-0.0388663
-1.86316
-1.86376
-0.0189654
-0.0311595
-0.0362571
-0.0336672
-0.0212521
)
;

boundaryField
{
    seabed_topleft_surface
    {
        type            calculated;
        value           uniform 0;
    }
    seabed_topright_surface
    {
        type            calculated;
        value           uniform 0;
    }
    breakwater_top_surface
    {
        type            calculated;
        value           uniform 0;
    }
    breakwater_left_surface
    {
        type            calculated;
        value           uniform 0;
    }
    breakwater_right_surface
    {
        type            calculated;
        value           uniform 0;
    }