/*--------------------------------*- C++ -*----------------------------------*\
| =========                 |                                                 |
| \\      /  F ield         | OpenFOAM: The Open Source CFD Toolbox           |
|  \\    /   O peration     | Version:  v1612+                                |
|   \\  /    A nd           | Web:      www.OpenFOAM.com                      |
|    \\/     M anipulation  |                                                 |
\*---------------------------------------------------------------------------*/
FoamFile
{
    version     2.0;
    format      ascii;
    class       volVectorField;
    location    "5";
    object      U;
}
// * * * * * * * * * * * * * * * * * * * * * * * * * * * * * * * * * * * * * //

dimensions      [0 1 -1 0 0 0 0];

internalField   nonuniform List<vector> 
1116
(
(0.113942 -5.7681e-06 -0.160657)
(0.113942 -9.82187e-06 -0.160663)
(0.113944 -3.42504e-06 -0.160653)
(0.113945 -1.25985e-06 -0.160652)
(0.113943 -1.25643e-05 -0.160662)
(0.11394 -6.86537e-06 -0.160652)
(0.310935 -1.57558e-06 -0.30178)
(0.310944 -8.26167e-06 -0.301793)
(0.310945 -2.63855e-06 -0.301776)
(0.310945 -6.0234e-07 -0.301772)
(0.310943 -1.50217e-05 -0.30179)
(0.310936 -1.12114e-05 -0.301777)
(0.2371 6.59039e-06 -0.313799)
(0.237118 4.38853e-07 -0.313817)
(0.237115 -1.14462e-06 -0.313799)
(0.237113 -4.37066e-06 -0.313793)
(0.237114 -1.3918e-05 -0.313812)
(0.237105 -1.08127e-05 -0.313805)
(-0.349978 7.54015e-06 -0.177191)
(-0.349937 7.44724e-07 -0.177205)
(-0.349943 -3.85514e-06 -0.177192)
(-0.349941 -7.72978e-06 -0.177187)
(-0.349932 -1.27328e-05 -0.177205)
(-0.349955 -9.96313e-06 -0.177203)
(-1.31914 2.37801e-05 0.0930627)
(-1.31909 1.95446e-05 0.0930329)
(-1.31909 8.92892e-07 0.0930432)
(-1.31909 3.0075e-06 0.0930493)
(-1.31907 -1.85778e-05 0.093033)
(-1.31911 -2.03021e-05 0.0930469)
(-2.27036 -1.61676e-05 0.327594)
(-2.27032 9.31591e-06 0.327617)
(-2.2703 2.35624e-05 0.327606)
(-2.2703 3.8367e-06 0.327609)
(-2.27029 -8.65051e-06 0.327616)
(-2.27035 -7.55723e-06 0.327612)
(-3.21204 -7.14115e-05 0.390869)
(-3.21213 -1.65375e-05 0.39097)
(-3.21201 4.19348e-05 0.390938)
(-3.212 -7.83759e-06 0.390939)
(-3.21203 5.76272e-06 0.390968)
(-3.2121 1.73468e-05 0.390895)
(-3.83663 -4.26467e-05 0.0507283)
(-3.83691 -1.02327e-05 0.0508618)
(-3.83669 2.38658e-05 0.0508515)
(-3.83668 -8.92181e-06 0.0508569)
(-3.83676 5.01146e-06 0.0508836)
(-3.83675 1.95144e-05 0.0507282)
(-3.70723 0.000228187 -0.554892)
(-3.70773 0.000133363 -0.554713)
(-3.70745 -9.44974e-05 -0.554713)
(-3.70746 4.23462e-05 -0.554728)
(-3.70761 -6.61878e-05 -0.554699)
(-3.70734 -0.000102075 -0.554903)
(-2.83031 0.000459649 -0.905552)
(-2.83063 0.000267416 -0.905198)
(-2.8304 -0.000210673 -0.90527)
(-2.83051 6.87966e-05 -0.905334)
(-2.83065 -0.000166044 -0.905236)
(-2.8303 -0.000250365 -0.905548)
(-1.74956 0.000248741 -0.957994)
(-1.74919 0.000135365 -0.957586)
(-1.74926 -0.000156917 -0.957719)
(-1.74945 2.1428e-05 -0.957793)
(-1.74941 -0.000174227 -0.957655)
(-1.74936 -0.000236488 -0.958027)
(-0.512595 -0.000158909 -0.536551)
(-0.51242 -0.000126323 -0.536569)
(-0.51247 6.89561e-06 -0.536605)
(-0.512504 -5.57407e-05 -0.536568)
(-0.512372 -4.49205e-05 -0.536517)
(-0.512656 -1.45765e-05 -0.53673)
(0.836323 -9.6273e-05 -0.606817)
(0.836349 -0.000125113 -0.606869)
(0.836325 -3.22917e-05 -0.606916)
(0.836317 -1.06006e-05 -0.606872)
(0.836329 6.57291e-05 -0.606844)
(0.8363 6.6872e-05 -0.606913)
(2.73707 -6.06832e-05 -0.0103761)
(2.73716 -0.000111428 -0.0104351)
(2.73699 -7.57718e-05 -0.010473)
(2.73698 -7.82207e-05 -0.0104172)
(2.73703 6.30505e-05 -0.010384)
(2.73701 6.57202e-05 -0.0104883)
(1.22057 0.000172083 0.715576)
(1.22156 7.44536e-05 0.715523)
(1.22111 -0.00012582 0.715537)
(1.22098 -4.06579e-05 0.715545)
(1.22124 -6.59836e-05 0.715532)
(1.22089 -8.59366e-05 0.715522)
(-0.882179 0.000359237 1.38593)
(-0.881414 0.000196322 1.38597)
(-0.881803 -0.00019369 1.38595)
(-0.881749 2.94765e-05 1.38593)
(-0.881498 -9.76006e-05 1.38593)
(-0.882021 -0.000177256 1.38589)
(-2.50801 0.000419601 1.72836)
(-2.50767 0.000242115 1.72851)
(-2.5078 -0.00017924 1.72844)
(-2.50778 0.000124027 1.72844)
(-2.50766 -0.000123356 1.72848)
(-2.50791 -0.000253667 1.72839)
(-2.90486 0.000218813 1.36797)
(-2.90472 0.000145921 1.36793)
(-2.90474 -8.68047e-05 1.36796)
(-2.90475 7.55837e-05 1.36799)
(-2.9047 -7.55665e-05 1.36798)
(-2.90484 -0.000156443 1.36798)
(-3.04345 0.000122944 0.7713)
(-3.04371 7.80655e-05 0.771)
(-3.04354 -6.49029e-05 0.771165)
(-3.04352 4.57429e-05 0.7712)
(-3.04358 -3.0522e-05 0.771107)
(-3.04357 -8.27287e-05 0.771241)
(-2.92532 0.000294725 0.0949347)
(-2.92595 0.000150297 0.0947726)
(-2.92564 -0.000144503 0.0949223)
(-2.9256 8.6751e-05 0.0949087)
(-2.92575 -5.17294e-05 0.0948537)
(-2.92552 -0.000129885 0.0948775)
(-2.37345 0.000408696 -0.534383)
(-2.37345 0.000205507 -0.533426)
(-2.37342 -0.000179947 -0.533722)
(-2.37345 0.000108951 -0.533872)
(-2.37337 -8.74961e-05 -0.533553)
(-2.37341 -0.000171872 -0.534194)
(-1.65494 -3.29431e-05 -1.13081)
(-1.65322 -4.93343e-05 -1.12894)
(-1.65392 -1.34026e-05 -1.12963)
(-1.65412 -4.08866e-05 -1.1299)
(-1.65358 -5.27879e-05 -1.12931)
(-1.65443 -1.90909e-05 -1.13046)
(-1.22581 -0.000655158 -1.75198)
(-1.22313 -0.00036996 -1.75087)
(-1.22429 0.000221292 -1.75134)
(-1.22439 -0.000198038 -1.75153)
(-1.22364 6.90223e-05 -1.75121)
(-1.2252 0.00018379 -1.7519)
(-0.851283 -0.000390218 -1.43733)
(-0.851172 -0.00020499 -1.43786)
(-0.851177 8.32951e-05 -1.4377)
(-0.851273 -0.000166203 -1.43773)
(-0.851251 5.24836e-05 -1.43776)
(-0.851285 0.000101883 -1.43775)
(-1.58138 -0.000141326 -2.45432)
(-1.58139 -0.000129402 -2.45472)
(-1.5814 -1.46958e-05 -2.45464)
(-1.5814 -3.90466e-05 -2.45462)
(-1.58137 7.04174e-05 -2.45467)
(-1.5814 9.60683e-05 -2.45431)
(-3.36294 -0.000337444 -0.336246)
(-3.36379 -0.000170702 -0.336902)
(-3.36359 0.000130299 -0.33692)
(-3.36357 -7.15631e-05 -0.336938)
(-3.36369 0.000178233 -0.337032)
(-3.36336 0.000225667 -0.336672)
(-4.62547 5.11938e-07 4.56888)
(-4.62735 -2.16283e-05 4.57024)
(-4.6264 -5.01927e-05 4.56934)
(-4.62654 6.11579e-05 4.56894)
(-4.62679 0.000143091 4.56928)
(-4.62564 6.38393e-05 4.56882)
(-9.81233 0.00251317 5.52738)
(-9.81786 0.00144749 5.53394)
(-9.81499 -0.00121135 5.53106)
(-9.81494 0.000597708 5.53011)
(-9.81613 -0.000574354 5.53201)
(-9.81264 -0.00126064 5.52927)
(-7.30961 0.0017095 2.12918)
(-7.31235 0.000904049 2.13491)
(-7.31097 -0.000927862 2.13247)
(-7.31114 0.000417235 2.13193)
(-7.31184 -0.000520524 2.13388)
(-7.31021 -0.00102414 2.13068)
(-4.95268 0.000632578 0.876627)
(-4.95204 0.000346472 0.879703)
(-4.9523 -0.000307928 0.878387)
(-4.9525 0.000204356 0.878056)
(-4.95215 -0.000162529 0.879151)
(-4.95256 -0.00037938 0.877388)
(-3.5798 -7.21216e-05 0.278495)
(-3.57884 -5.51647e-05 0.28044)
(-3.57925 2.79941e-06 0.279642)
(-3.57944 -3.19369e-05 0.279416)
(-3.57905 5.80407e-05 0.280102)
(-3.57965 7.34879e-05 0.278967)
(-2.465 -0.000643869 -0.577027)
(-2.46368 -0.000395673 -0.575204)
(-2.46422 0.000223278 -0.575925)
(-2.4645 -0.000273457 -0.576193)
(-2.46404 0.000188349 -0.575561)
(-2.46477 0.000419344 -0.576618)
(-1.12388 -0.0015347 -1.62453)
(-1.12246 -0.000963299 -1.62328)
(-1.12305 0.000615712 -1.62376)
(-1.12334 -0.000506995 -1.62397)
(-1.12293 0.000314086 -1.62353)
(-1.12375 0.000826593 -1.62432)
(0.273862 -0.00216384 -2.28175)
(0.274269 -0.00137334 -2.28316)
(0.273958 0.00105099 -2.2826)
(0.27417 -0.0004635 -2.28257)
(0.274272 0.000399498 -2.28294)
(0.273349 0.00104819 -2.28233)
(2.34812 -0.00180085 -1.4589)
(2.34767 -0.00116689 -1.46068)
(2.34751 0.00108269 -1.46011)
(2.34896 -0.000690372 -1.45978)
(2.34884 0.00080174 -1.46007)
(2.34655 0.00181018 -1.45985)
(-2.69363 0.000808394 -1.80633)
(-2.69639 0.000641383 -1.80599)
(-2.69551 -0.000256862 -1.80629)
(-2.69491 0.00034202 -1.80626)
(-2.69993 -0.000359896 -1.80636)
(-2.69158 -0.000852642 -1.8065)
(-1.03773 -8.58423e-05 2.60574)
(-1.03781 -8.13145e-05 2.60515)
(-1.03779 -6.2671e-06 2.6053)
(-1.0378 -5.82204e-05 2.60531)
(-1.03782 1.76659e-06 2.60516)
(-1.03781 1.93564e-05 2.60575)
(-3.10087 -2.4725e-05 2.79554)
(-3.10145 2.6702e-05 2.79475)
(-3.10123 -5.79262e-06 2.7949)
(-3.10124 -3.57076e-05 2.79501)
(-3.10133 2.00351e-05 2.79473)
(-3.10125 -1.93222e-05 2.79528)
(-3.8965 0.000121559 5.65669)
(-3.89675 0.000167578 5.65912)
(-3.89649 -3.74001e-05 5.65748)
(-3.89709 4.32767e-05 5.65712)
(-3.89686 7.16377e-05 5.65792)
(-3.89713 -4.34243e-05 5.65668)
(-6.81255 0.00055873 4.23025)
(-6.80837 0.000252689 4.24708)
(-6.8094 -0.000587056 4.23937)
(-6.81139 -6.8183e-05 4.23713)
(-6.80978 -0.000170482 4.24385)
(-6.81167 -0.000336972 4.23473)
(-7.64641 -4.81924e-05 -1.64306)
(-7.64395 2.42129e-05 -1.63771)
(-7.6449 -0.000314922 -1.6399)
(-7.64618 -0.000341945 -1.64098)
(-7.6452 0.000127218 -1.63893)
(-7.64624 9.90187e-05 -1.64158)
(-7.1527 -0.00158578 -3.21822)
(-7.14785 -0.000851396 -3.21653)
(-7.15005 0.000380464 -3.21732)
(-7.15114 -0.000858686 -3.21748)
(-7.14948 0.000555921 -3.21663)
(-7.152 0.00103475 -3.21767)
(-6.50103 -0.00265862 -2.82398)
(-6.4925 -0.00150784 -2.82644)
(-6.49629 0.00082052 -2.82531)
(-6.49743 -0.00135082 -2.82517)
(-6.49466 0.000638955 -2.82586)
(-6.49902 0.00157458 -2.8244)
(-3.63052 -0.00222042 -4.20351)
(-3.62713 -0.00158233 -4.20993)
(-3.62761 0.000404572 -4.20684)
(-3.62993 -0.00130436 -4.20653)
(-3.62999 -0.000128518 -4.20916)
(-3.62929 0.000824681 -4.20495)
(4.80195 -0.00123479 -4.65279)
(4.79711 -0.00114267 -4.66207)
(4.80001 -0.00013471 -4.65795)
(4.79941 -0.00118992 -4.65741)
(4.79674 -0.000142143 -4.66103)
(4.79988 0.000666279 -4.65529)
(2.20285 0.000323933 -4.41507)
(2.19183 7.49658e-05 -4.42551)
(2.19658 0.000217506 -4.42132)
(2.19802 0.000136697 -4.42074)
(2.19335 0.000101463 -4.42408)
(2.19734 0.00025938 -4.4173)
(7.62487 0.000507005 1.57353)
(7.61151 -9.45289e-05 1.57034)
(7.61665 0.0017318 1.57165)
(7.62123 0.000257212 1.57195)
(7.61966 -0.000128657 1.5718)
(7.61597 0.0016615 1.5726)
(-7.59845 0.00146285 -1.15149)
(-7.60309 0.000987719 -1.14994)
(-7.6021 -0.00123799 -1.15097)
(-7.59704 -0.00178315 -1.14978)
(-7.59598 0.00225935 -1.14989)
(-7.60447 0.00328068 -1.15235)
(1.93048 -0.0759702 2.64857)
(2.07732 -0.0181176 2.64913)
(1.88564 0.000227636 2.66013)
(2.03764 -0.237231 2.652)
(2.42843 0.178171 2.6071)
(1.64561 0.358599 2.66198)
(8.42008 -0.10685 2.72966)
(8.96692 0.000216917 2.5118)
(8.2562 -0.0298514 2.91724)
(8.82546 -0.36538 2.56108)
(10.1677 0.218244 1.5213)
(7.40146 0.5735 3.23614)
(14.2034 -0.0671128 -0.182774)
(14.8757 0.0308534 -0.779231)
(13.9252 -0.0300744 0.424379)
(14.6494 -0.176689 -0.72886)
(15.8152 0.112003 -2.61353)
(13.0505 0.542514 1.01694)
(16.0256 0.00602821 -3.35245)
(16.4634 0.0395618 -3.56177)
(16.1644 0.0375348 -3.34909)
(16.2119 0.130796 -3.52087)
(16.6116 0.0377725 -4.19702)
(15.5281 0.0373571 -2.93837)
(15.6811 0.0289738 -4.11912)
(16.0487 0.0549198 -4.3039)
(15.8716 0.075841 -4.27868)
(15.8394 0.267139 -4.29561)
(16.1237 -0.0209928 -4.76181)
(15.3591 -0.151696 -4.08807)
(14.3489 0.0381002 -4.01184)
(14.617 0.0621854 -4.19267)
(14.4074 0.11046 -4.23406)
(14.4924 0.375419 -4.22074)
(15.0395 -0.0769718 -4.69123)
(13.7461 -0.29716 -4.14681)
(13.1018 0.031103 -3.79388)
(13.1995 0.047542 -3.93802)
(13.0081 0.118313 -3.9799)
(13.2022 0.345461 -3.98052)
(13.8535 -0.0945536 -4.44663)
(12.3497 -0.269297 -3.89437)
(11.0127 0.00646229 -4.06714)
(11.0059 -0.0120859 -4.18242)
(10.8953 0.0618302 -4.22212)
(11.0982 0.191104 -4.18959)
(11.6818 -0.130455 -4.54885)
(10.4584 -0.142026 -4.06156)
(7.46586 -0.0189963 -4.98601)
(7.49346 -0.0892351 -5.07058)
(7.42605 -0.00279241 -5.08747)
(7.49841 0.135693 -4.92563)
(8.06618 -0.260623 -5.18877)
(7.15008 -0.173395 -4.74522)
(3.25809 -0.00956164 -5.36485)
(3.36005 -0.0925804 -5.46067)
(3.41445 0.138452 -5.52595)
(3.28638 0.533809 -5.22738)
(3.93272 -0.611463 -5.40712)
(3.21848 -0.649798 -4.93352)
(-3.81488 0.043803 -3.98759)
(-3.59048 0.103264 -4.15445)
(-2.50688 0.297503 -4.46708)
(-4.85412 1.09488 -3.52507)
(-5.23003 -0.534758 -3.94295)
(-0.642067 -0.536606 -4.35247)
(-6.6511 0.0989396 1.56058)
(-6.76158 0.231814 1.68026)
(-6.05397 0.676178 1.57126)
(-6.73222 1.29249 1.64636)
(-5.84749 0.0187141 1.87101)
(-4.87159 -0.618097 1.51289)
(1.36077 -0.0784125 7.50255)
(1.48996 -0.0254029 7.52233)
(1.32701 0.0110998 7.51877)
(1.46489 -0.20195 7.52332)
(1.80556 0.204667 7.51431)
(1.0574 0.386308 7.48623)
(6.55914 -0.0415463 8.20781)
(7.08902 -0.0353084 8.0781)
(6.51024 -0.0206144 8.38844)
(7.09413 0.0186812 8.04427)
(8.32694 -0.00205326 7.34635)
(5.43164 0.0888035 8.74265)
(12.1252 0.0420423 6.15853)
(12.5871 -0.036607 6.02426)
(12.2412 -0.0616457 6.41458)
(12.7393 0.24822 5.94872)
(13.589 -0.264471 5.37714)
(11.4384 -0.401597 6.76064)
(14.0143 0.0280391 3.18538)
(14.05 0.00652188 3.2419)
(14.1771 -0.10141 3.32954)
(14.3905 -0.12971 3.27274)
(14.2202 -0.168112 3.69591)
(14.2237 -0.00570211 3.40496)
(10.4044 0.0245151 0.764283)
(10.4717 0.0675964 0.767972)
(10.1808 -0.0516463 0.575453)
(10.8323 -0.18273 1.36255)
(12.4103 0.0618952 2.66427)
(10.1146 0.26134 0.542584)
(9.20734 0.0449322 -0.258598)
(9.16888 0.0983582 -0.361041)
(8.82736 0.0477294 -0.780984)
(9.4936 0.162857 0.336409)
(11.3869 0.0435885 2.38258)
(8.55171 0.0687364 -1.27347)
(8.04515 0.0132947 0.485102)
(7.90234 0.0489514 0.31429)
(7.60267 0.0700146 0.0585548)
(8.35679 0.303528 0.922604)
(10.2226 -0.0772944 2.43405)
(7.33204 -0.164276 -0.153842)
(8.15795 -0.0200732 -2.00427)
(8.14264 -0.0189206 -2.12524)
(7.99825 0.0087863 -2.20942)
(8.50412 0.180105 -1.48322)
(9.50652 -0.149355 -0.775298)
(7.82997 -0.172201 -2.19073)
(8.18961 -0.0248213 -6.25333)
(8.18589 -0.03028 -6.32514)
(8.05636 -0.0191047 -6.33952)
(8.36022 0.0981679 -6.15962)
(9.00125 -0.168984 -6.39456)
(7.90789 -0.12225 -6.28034)
(7.29264 -0.0300475 -6.70183)
(7.32234 -0.0444268 -6.77736)
(7.22778 -0.0506187 -6.83238)
(7.57893 -0.0103188 -6.53417)
(8.0275 -0.210243 -5.66523)
(7.18877 0.0215143 -6.81352)
(4.61647 0.0153084 -3.54768)
(4.71082 0.121586 -3.75962)
(4.84534 0.0766561 -4.22811)
(4.50157 0.294325 -2.54078)
(3.31254 -0.191189 2.21493)
(5.05248 0.271539 -4.76417)
(-1.00756 0.216064 3.95112)
(-0.934897 1.05111 3.55901)
(0.523287 0.648596 1.27068)
(-1.96761 2.57365 6.41569)
(-2.67659 0.126403 9.15734)
(1.00979 -0.181194 0.13434)
(0.0261522 -0.0471699 10.2546)
(0.0597431 -0.0159201 10.2949)
(0.0169956 0.0140767 10.2614)
(0.0539827 -0.113759 10.295)
(0.143172 0.139743 10.3708)
(-0.0453611 0.244561 10.1671)
(0.541928 -0.0214075 11.5031)
(0.850396 -0.0355133 11.4555)
(0.505839 -0.00468565 11.605)
(0.907244 0.0735865 11.4353)
(1.63015 -0.0550989 11.1136)
(-0.183751 -0.0467583 11.7211)
(2.91865 0.0184643 8.44117)
(3.16597 -0.0535306 8.27833)
(3.09342 -0.066017 8.58398)
(3.35723 0.12327 8.18881)
(3.53734 -0.240117 7.73421)
(2.71647 -0.331594 8.90091)
(3.14008 -0.0254463 -0.56703)
(3.3036 -0.0718235 -0.776376)
(3.40052 -0.139358 -0.437052)
(3.52337 -0.208239 -0.870181)
(3.97626 -0.0765464 -1.28963)
(3.48624 0.0281647 0.32817)
(4.12703 -0.0127375 -6.3719)
(4.22828 -0.0389957 -6.44342)
(4.21934 -0.138179 -6.3594)
(4.39751 -0.297855 -6.49918)
(4.94149 0.0642176 -6.56704)
(4.29601 0.25432 -6.07725)
(4.81976 0.0120893 -5.96109)
(4.87915 0.00264783 -6.00569)
(4.81954 -0.113558 -6.03519)
(4.89151 -0.344344 -6.20731)
(5.25179 0.127429 -6.30564)
(4.77159 0.377505 -6.07966)
(3.96307 0.0109219 -2.94201)
(3.97059 -0.0165118 -3.01472)
(3.9322 -0.141608 -3.15991)
(4.04634 -0.348401 -3.23023)
(4.33125 0.0759529 -3.25883)
(3.92019 0.337513 -3.39041)
(2.04822 -0.00850305 -1.68501)
(1.98734 -0.0506704 -1.65275)
(1.90086 -0.146973 -1.72457)
(2.06746 -0.253524 -1.2804)
(2.23366 -0.0152421 -0.999069)
(1.72909 0.2067 -1.71867)
(3.87301 -0.0121071 -5.71152)
(3.89172 -0.0476307 -5.81269)
(3.90871 -0.0594791 -5.93297)
(3.85973 -0.0911876 -5.7614)
(4.88559 -0.147686 -6.08819)
(3.95131 0.136204 -6.09891)
(5.96881 -0.0341225 -7.68078)
(5.9874 -0.0699449 -7.6792)
(5.97071 -0.126973 -7.66929)
(6.16512 -0.310183 -7.59843)
(7.74774 -0.140457 -8.27483)
(6.11403 0.29868 -7.59034)
(5.18247 -0.044578 -6.18414)
(5.18454 -0.0415226 -6.21883)
(5.09793 -0.257851 -6.31568)
(5.49981 -0.736182 -6.01124)
(6.31393 0.120887 -5.23481)
(5.28705 0.690966 -6.20965)
(2.16182 -0.033595 -1.25739)
(2.18398 0.12897 -1.42503)
(2.19316 -0.181035 -1.97597)
(2.1177 -0.711754 -0.591014)
(1.08798 0.701947 8.24537)
(2.27919 0.632049 -2.11013)
(-0.700914 -0.0167347 9.75003)
(-0.699922 -0.00759725 9.78116)
(-0.699007 0.00621498 9.75459)
(-0.699479 -0.0439559 9.78126)
(-0.701932 0.0515239 9.85358)
(-0.695043 0.0918972 9.67706)
(-2.77665 -0.0153967 11.0931)
(-2.69673 -0.0201643 11.0951)
(-2.79051 -0.000119939 11.1243)
(-2.66803 0.0112404 11.0978)
(-2.45067 -0.00389912 11.0225)
(-2.9828 0.0119123 11.1187)
(-3.80149 0.00431338 8.5078)
(-3.69186 -0.0327987 8.44377)
(-3.75194 -0.0308658 8.57521)
(-3.59402 0.0403665 8.42514)
(-3.42212 -0.127922 8.2857)
(-3.96026 -0.144163 8.69169)
(-4.31293 0.0159085 2.85197)
(-4.2279 -0.0229982 2.77833)
(-4.21407 -0.0330107 2.91063)
(-4.1084 0.0225874 2.75873)
(-3.99227 -0.169016 2.68863)
(-4.21966 -0.173595 3.13561)
(-3.22149 0.0211316 -0.851991)
(-3.15469 0.0109324 -0.888262)
(-3.16689 -0.00438959 -0.819764)
(-3.03413 0.0343301 -0.886854)
(-2.94945 -0.072537 -0.868013)
(-3.16524 -0.0901979 -0.703162)
(-1.0629 0.020465 -2.67002)
(-1.02486 0.0248532 -2.69276)
(-1.03608 0.0310476 -2.67242)
(-0.944583 0.060063 -2.66756)
(-0.917296 -0.0153508 -2.58788)
(-1.03092 -0.0433576 -2.66444)
(-0.410526 0.00880936 -3.05092)
(-0.381318 0.00673694 -3.06021)
(-0.364515 0.00576465 -3.04046)
(-0.297137 -0.00429018 -3.00172)
(-0.241413 -0.000657726 -2.87316)
(-0.297847 0.0112086 -3.03799)
(-0.641525 -0.0180575 -2.91115)
(-0.633546 -0.0519923 -2.90144)
(-0.615466 -0.110856 -2.87703)
(-0.607767 -0.213551 -2.83098)
(-0.650659 7.88516e-05 -2.72252)
(-0.564863 0.138346 -2.83886)
(-1.22012 -0.00536501 -1.47743)
(-1.17689 -0.0201645 -1.58709)
(-1.24255 -0.0474106 -1.67359)
(-1.02304 -0.13242 -1.80815)
(0.0381355 0.0148368 -1.88003)
(-1.15782 0.0819142 -1.97085)
(3.42252 -0.0128898 -5.89362)
(3.4712 -0.0573666 -5.89354)
(3.5365 -0.0744366 -5.92053)
(3.54229 -0.168882 -5.69647)
(4.01752 -0.0505258 -3.92371)
(3.73967 0.0954987 -5.9065)
(4.5358 -0.0213427 -6.51268)
(4.56515 -0.0665913 -6.49383)
(4.61685 -0.14832 -6.47459)
(4.73926 -0.397132 -6.24901)
(5.45255 -0.0514947 -5.75807)
(4.81827 0.317473 -6.32352)
(3.10564 -0.0254502 -3.61061)
(3.11996 -0.0812288 -3.60916)
(3.13902 -0.303016 -3.63471)
(3.14235 -0.855431 -3.34732)
(3.45239 0.00396785 -2.98974)
(3.19981 0.708433 -3.46563)
(-0.310475 -9.87715e-06 2.11581)
(-0.310542 -2.22204e-05 2.1153)
(-0.310531 -4.0053e-05 2.11541)
(-0.310551 -3.87589e-05 2.11541)
(-0.310566 -5.29114e-05 2.1153)
(-0.310522 -4.01617e-05 2.11584)
(-0.16178 3.10916e-05 3.29579)
(-0.161817 1.45354e-05 3.29565)
(-0.161813 -3.23239e-05 3.29568)
(-0.161827 -2.58891e-05 3.29569)
(-0.161838 -6.35979e-05 3.29568)
(-0.161818 -6.15534e-05 3.29581)
(0.00937388 6.20508e-06 3.19086)
(0.00937481 1.61084e-06 3.19076)
(0.009374 -1.17415e-05 3.19078)
(0.009369 -8.46207e-06 3.1908)
(0.00936655 -1.78718e-05 3.19078)
(0.00935887 -1.77743e-05 3.19088)
(-1.1432 -8.21747e-05 2.98777)
(-1.14371 -5.78326e-05 2.98732)
(-1.14356 -5.06226e-05 2.98743)
(-1.1436 -8.83033e-05 2.98751)
(-1.14372 -5.47351e-05 2.98738)
(-1.14353 -3.62616e-05 2.9878)
(-0.387747 -8.75801e-05 3.64006)
(-0.38795 -7.40709e-05 3.63993)
(-0.387887 -4.17198e-05 3.63997)
(-0.387928 -9.04973e-05 3.63999)
(-0.387975 -5.90277e-05 3.63997)
(-0.387898 -2.25352e-05 3.64012)
(0.0833502 -2.17392e-05 3.30077)
(0.0833459 -2.21819e-05 3.30071)
(0.0833542 -2.08146e-05 3.30072)
(0.0833404 -3.33135e-05 3.30073)
(0.0833358 -2.41522e-05 3.30072)
(0.0833154 -1.1692e-05 3.30081)
(-1.13082 5.06438e-06 5.65596)
(-1.13224 0.000103886 5.65635)
(-1.13171 -5.64985e-05 5.65589)
(-1.13174 -0.000106542 5.65612)
(-1.13211 -4.6886e-05 5.65613)
(-1.13163 -0.000100133 5.65599)
(-0.0728806 -0.000187162 4.47685)
(-0.0740758 -9.43888e-05 4.47682)
(-0.0736749 -1.79267e-05 4.47677)
(-0.0736788 -0.000147073 4.47696)
(-0.0740081 -4.02757e-05 4.47691)
(-0.0735642 -2.71801e-06 4.47706)
(0.343526 -9.90461e-05 3.33229)
(0.343296 -6.2139e-05 3.33231)
(0.343407 -1.33829e-06 3.3323)
(0.343379 -6.62236e-05 3.33234)
(0.343318 -1.05742e-05 3.33234)
(0.343369 1.7359e-05 3.33244)
(0.40377 -0.000702765 7.67064)
(0.406077 -0.000455723 7.67862)
(0.405838 0.000247502 7.67496)
(0.404054 -0.000257712 7.67344)
(0.404903 0.00012017 7.67628)
(0.40329 0.000381043 7.67241)
(2.52526 -0.000309843 6.37969)
(2.52443 -0.000136731 6.3823)
(2.52484 0.000133654 6.38092)
(2.52468 -0.000103191 6.38111)
(2.52437 4.39201e-05 6.38174)
(2.52426 8.27822e-05 6.38074)
(1.21829 -0.000140514 2.87859)
(1.21749 -2.4377e-05 2.87921)
(1.21781 6.04986e-05 2.8789)
(1.21789 -5.86103e-05 2.87922)
(1.21763 5.04511e-05 2.87929)
(1.21789 4.50793e-05 2.87925)
(-2.48511 -0.000212321 2.16341)
(-2.48285 -0.000104206 2.16644)
(-2.48308 -7.22111e-05 2.16545)
(-2.48529 -0.000442954 2.16395)
(-2.48485 -4.39411e-05 2.16507)
(-2.48571 0.000218582 2.1646)
(3.99547 0.000202984 5.26376)
(3.99811 0.000152498 5.27048)
(3.99755 -9.95405e-05 5.26752)
(3.99611 -0.000224418 5.26617)
(3.99695 -0.000265717 5.26857)
(3.9952 -0.000124135 5.26604)
(3.41454 2.29554e-05 2.7012)
(3.41531 5.05388e-05 2.7046)
(3.41502 5.91437e-05 2.7028)
(3.41484 -2.4223e-05 2.70293)
(3.41496 -9.11845e-05 2.70363)
(3.4147 -8.05094e-05 2.70306)
(-5.34336 0.00148755 -1.01509)
(-5.3394 0.000686522 -1.02419)
(-5.34045 -0.000584516 -1.01941)
(-5.34279 0.000325369 -1.02074)
(-5.34259 -0.000392261 -1.02422)
(-5.34363 -0.000636372 -1.01705)
(2.43489 0.0014865 2.75841)
(2.4383 0.000844052 2.76499)
(2.43745 -0.00054008 2.76238)
(2.43553 0.00029224 2.75999)
(2.4364 -0.000577106 2.76244)
(2.43352 -0.000821287 2.75955)
(4.44622 0.000333576 2.59311)
(4.44846 0.000144147 2.5992)
(4.44764 -9.34722e-05 2.59637)
(4.44686 0.000175159 2.59526)
(4.44786 -0.000239502 2.59754)
(4.44599 -0.000381456 2.59518)
(-8.79975 0.00169303 -3.88846)
(-8.79559 0.000557595 -3.90243)
(-8.797 -0.000922637 -3.89625)
(-8.79827 0.000544539 -3.89548)
(-8.79821 -0.000925211 -3.90106)
(-8.79806 -0.00143933 -3.89233)
(-0.517775 0.00263355 -1.15001)
(-0.513335 0.0014506 -1.14091)
(-0.51458 -0.00109181 -1.14463)
(-0.5163 0.000819643 -1.14728)
(-0.51579 -0.000698269 -1.14434)
(-0.518916 -0.00152262 -1.151)
(3.85021 -4.41449e-06 0.361227)
(3.85292 -0.000196625 0.369397)
(3.85189 8.93982e-05 0.365621)
(3.85107 0.000368777 0.363842)
(3.85214 0.000152113 0.367087)
(3.84901 -8.02129e-06 0.361512)
(-7.78977 0.00120324 -7.94147)
(-7.79212 0.000247851 -7.94293)
(-7.79108 -0.000619184 -7.94223)
(-7.79034 0.000847213 -7.94255)
(-7.79144 -0.00139048 -7.94472)
(-7.78968 -0.00193991 -7.94264)
(-0.952679 0.000856179 -5.10732)
(-0.953189 0.000301284 -5.10071)
(-0.95263 -0.000222041 -5.10368)
(-0.953211 0.000664772 -5.1052)
(-0.95348 -0.000135384 -5.10322)
(-0.953483 -0.000532452 -5.109)
(1.67027 -0.000357461 -3.6741)
(1.67363 -0.000264377 -3.66847)
(1.67195 0.000416495 -3.6714)
(1.67132 0.000276931 -3.67244)
(1.67224 0.000521929 -3.67068)
(1.66862 0.000537129 -3.67534)
(-9.81094 0.00102305 -5.03055)
(-9.8165 0.000352226 -5.02587)
(-9.81485 -2.61902e-05 -5.02742)
(-9.81164 0.0012698 -5.02995)
(-9.81193 -0.00119079 -5.03131)
(-9.81496 -0.00178013 -5.0272)
(-1.63546 -0.000112539 -5.43651)
(-1.63523 -7.38259e-05 -5.4343)
(-1.63514 0.000434312 -5.43539)
(-1.63547 0.00054834 -5.43571)
(-1.63543 -0.000374313 -5.43533)
(-1.63662 -0.000545313 -5.43671)
(0.485736 -0.000433947 -4.44286)
(0.486945 -0.000179088 -4.44119)
(0.486344 0.000441332 -4.44207)
(0.486207 0.000157753 -4.44237)
(0.486339 0.000463796 -4.4423)
(0.4852 0.000488192 -4.44294)
(-11.3202 0.00127982 0.313204)
(-11.3285 0.000563852 0.318762)
(-11.326 -0.000334465 0.316849)
(-11.3216 0.000412228 0.314049)
(-11.3206 -0.000785085 0.311681)
(-11.328 -0.000775846 0.319842)
(-1.09141 -0.000504218 -3.99093)
(-1.09105 -0.000299517 -3.9906)
(-1.09111 0.000756929 -3.99094)
(-1.09136 0.00102941 -3.99125)
(-1.09103 -0.0011055 -3.99234)
(-1.09261 -0.00160676 -3.98943)
(0.0754168 -0.000137867 -2.87586)
(0.0755384 3.66198e-05 -2.87502)
(0.0754363 0.000225519 -2.87534)
(0.075474 8.47261e-05 -2.87577)
(0.0754675 4.29529e-05 -2.87617)
(0.0749764 8.61517e-06 -2.87509)
(-10.0144 0.00113384 2.95128)
(-10.0224 0.000407196 2.95331)
(-10.02 -0.000554595 2.95203)
(-10.0159 -0.000730944 2.95164)
(-10.0142 2.39248e-06 2.94901)
(-10.0224 0.000949725 2.95474)
(-0.516622 2.4206e-05 0.0019778)
(-0.518421 -7.54681e-05 0.000956317)
(-0.517919 0.000218756 0.00120563)
(-0.515115 0.000715828 -0.000513808)
(-0.510356 -0.000529659 -0.00374209)
(-0.523715 -0.000960541 0.00501863)
(1.11705 4.1123e-05 -1.35722)
(1.11718 0.000143465 -1.35654)
(1.11717 0.000148262 -1.3569)
(1.11702 5.18364e-05 -1.35731)
(1.11692 -3.04129e-05 -1.35737)
(1.1172 -1.92856e-05 -1.35669)
(-4.7858 -0.000280963 -0.501247)
(-4.78562 -0.000425194 -0.502719)
(-4.78618 -0.000515075 -0.501894)
(-4.78368 -0.00154595 -0.502574)
(-4.78053 0.00109917 -0.505762)
(-4.78938 0.0023076 -0.498638)
(1.89837 0.000681291 -8.35177)
(1.89846 0.000269715 -8.35733)
(1.89762 -0.000360975 -8.35648)
(1.89874 0.000628446 -8.35608)
(1.89875 -0.000343535 -8.3585)
(1.89729 -0.000812828 -8.35491)
(0.922515 0.000390401 -2.33386)
(0.921537 0.000514916 -2.33494)
(0.922159 0.000224358 -2.33425)
(0.921235 0.000645389 -2.33398)
(0.919298 -0.000414239 -2.33477)
(0.924009 -0.00101484 -2.33333)
(2.31571 -0.00130431 -0.0512266)
(2.31575 -0.00199865 -0.0543159)
(2.31737 -0.00237679 -0.0585761)
(2.29904 -0.0112305 -0.0713587)
(2.29338 0.00164959 -0.114772)
(2.31045 0.0117721 -0.0755109)
(2.05086 -0.00909019 -2.20007)
(2.03478 -0.017871 -2.20305)
(2.0321 0.00306953 -2.18401)
(2.01185 0.00878262 -2.17613)
(1.99768 -0.0538273 -2.12185)
(1.98248 -0.0429621 -2.12797)
(1.08703 -0.00504958 -1.96353)
(1.07593 -0.0108171 -1.97145)
(1.07048 -0.0136699 -1.96327)
(1.0615 -0.0179261 -1.94987)
(1.04301 -0.0108248 -1.97033)
(1.05188 -0.00130003 -1.93168)
(1.59307 -0.000213901 -0.390478)
(1.59372 -0.000550455 -0.391445)
(1.59359 0.000226192 -0.39168)
(1.59296 0.000338225 -0.386037)
(1.5913 0.00024015 -0.37775)
(1.59533 0.000672028 -0.393546)
(0.98327 -0.00464321 -0.936948)
(0.995663 -0.00809506 -0.948916)
(1.00092 -0.00680557 -0.952277)
(0.950375 -0.0112127 -0.925004)
(0.93486 -0.0185672 -0.93123)
(1.07763 -0.00252357 -0.964498)
(0.121263 -0.00285586 -2.02568)
(0.117961 -0.00480173 -2.04171)
(0.112652 -0.00605363 -2.04222)
(0.117348 -0.00815082 -1.99116)
(0.115912 -0.00393654 -1.98234)
(0.0947629 -0.00064935 -2.07952)
(1.02257 -0.000284846 0.0379557)
(1.02194 -0.000669706 0.0371191)
(1.02251 0.000148894 0.0368452)
(1.02083 -0.000332285 0.0387554)
(1.02019 -0.000226012 0.0416848)
(1.02258 0.000765734 0.0338432)
(0.98007 -0.00139439 -1.82414)
(0.970399 -0.00259535 -1.82525)
(0.968918 -0.00647862 -1.8245)
(0.974538 -0.0163536 -1.8308)
(0.967767 0.0160256 -1.83824)
(0.94657 0.0302688 -1.8163)
(-0.200888 -0.000938733 -2.05601)
(-0.202018 -0.00182507 -2.05618)
(-0.203743 -0.00185423 -2.0543)
(-0.203476 -0.00302046 -2.0608)
(-0.20365 -0.000146433 -2.0805)
(-0.209628 0.00176495 -2.02332)
(0.332446 -0.000255305 0.238338)
(0.332538 -0.000999892 0.237376)
(0.333098 0.0016189 0.236989)
(0.331277 0.00295134 0.239357)
(0.330842 -0.00351785 0.242464)
(0.333747 -0.00390259 0.233981)
(0.343299 -0.00353721 -1.85548)
(0.344748 -0.00327678 -1.8582)
(0.344528 -0.00283792 -1.86417)
(0.338331 -0.0142439 -1.84555)
(0.33239 0.0087125 -1.84189)
(0.353329 0.023601 -1.8683)
(-0.540731 -0.000792593 -2.46264)
(-0.540897 -0.000616073 -2.46537)
(-0.542668 -0.00283236 -2.45593)
(-0.53977 -0.00635977 -2.47918)
(-0.537334 0.00546272 -2.5043)
(-0.547501 0.00849721 -2.42708)
(-0.364092 -0.000607353 0.372809)
(-0.364012 -0.000946703 0.371768)
(-0.364331 0.000156798 0.371769)
(-0.362307 -0.000128377 0.372885)
(-0.360494 -0.000570257 0.374489)
(-0.365787 0.000173341 0.370316)
(-0.0839866 -0.00145354 -2.63325)
(-0.0850114 -0.00111135 -2.63537)
(-0.0858299 -0.00159636 -2.63763)
(-0.0860147 -0.010055 -2.6341)
(-0.0890089 0.00858126 -2.63643)
(-0.085544 0.0198971 -2.63514)
(-1.1431 -0.000690298 -2.64749)
(-1.14225 -0.000168414 -2.65162)
(-1.14479 -0.00110707 -2.64325)
(-1.14166 -0.00374372 -2.66038)
(-1.13684 0.00324498 -2.68119)
(-1.15002 0.00475142 -2.62346)
(-1.63175 -0.000542622 0.586574)
(-1.63185 -0.000787686 0.585401)
(-1.6319 -0.000173739 0.585801)
(-1.63095 -0.000870504 0.585968)
(-1.62995 0.000179766 0.585383)
(-1.63275 0.00117065 0.586492)
(-1.26103 -0.00063243 -5.95846)
(-1.26079 -0.000460725 -5.95904)
(-1.2623 -0.000416305 -5.96051)
(-1.25997 -0.00322725 -5.96056)
(-1.25938 0.00285585 -5.96083)
(-1.26387 0.00647836 -5.95983)
(-1.12045 -1.34662e-05 -1.7216)
(-1.12028 0.000204892 -1.72492)
(-1.12117 0.000233247 -1.72099)
(-1.12072 0.000159679 -1.7265)
(-1.11985 -2.12851e-05 -1.73714)
(-1.1227 -0.000710646 -1.71088)
(-0.75356 -0.00336342 7.81351)
(-0.754999 -0.00299369 7.82429)
(-0.752241 0.000611589 7.81822)
(-0.755691 -0.0105336 7.82462)
(-0.761846 0.0103799 7.85271)
(-0.747658 0.0204736 7.79417)
(-0.503315 -0.000427403 6.29575)
(-0.503671 -0.00121373 6.29787)
(-0.503368 -0.000666504 6.29845)
(-0.504393 -0.00158561 6.29832)
(-0.505482 0.000719584 6.30366)
(-0.502835 0.00238181 6.29525)
(-0.178712 -9.53587e-05 5.52249)
(-0.178745 -0.000410416 5.52298)
(-0.178847 -0.000423684 5.5235)
(-0.17888 -0.000269364 5.52322)
(-0.178867 -0.000171693 5.5236)
(-0.17913 1.84583e-05 5.52296)
(-2.79864 -0.0058018 8.55759)
(-2.79914 -0.00591734 8.56883)
(-2.79955 0.00120718 8.56294)
(-2.79247 -0.00791061 8.57372)
(-2.78181 0.0118558 8.58662)
(-2.80042 0.0230349 8.53252)
(-1.77808 -0.000795223 6.50176)
(-1.78357 -0.000996442 6.50566)
(-1.77672 0.000456107 6.50232)
(-1.78354 -0.00327347 6.50544)
(-1.79621 0.00371174 6.51582)
(-1.76086 0.00670602 6.49016)
(-0.664942 5.77652e-05 5.45056)
(-0.665816 -0.000243379 5.45096)
(-0.664575 -0.000189057 5.45086)
(-0.666111 -0.000168751 5.44976)
(-0.668911 2.77768e-05 5.45077)
(-0.661567 9.26334e-05 5.44911)
(-4.90029 0.000777823 6.50351)
(-4.88313 -0.0102252 6.4962)