/*--------------------------------*- C++ -*----------------------------------*\
| =========                 |                                                 |
| \\      /  F ield         | OpenFOAM: The Open Source CFD Toolbox           |
|  \\    /   O peration     | Version:  v1612+                                |
|   \\  /    A nd           | Web:      www.OpenFOAM.com                      |
|    \\/     M anipulation  |                                                 |
\*---------------------------------------------------------------------------*/
FoamFile
{
    version     2.0;
    format      ascii;
    class       surfaceScalarField;
    location    "1.15";
    object      alphaPhi;
}
// * * * * * * * * * * * * * * * * * * * * * * * * * * * * * * * * * * * * * //

dimensions      [0 3 -1 0 0 0 0];

internalField   nonuniform List<scalar> 
2916
(
1.82935e-07
0.319457
-0.319457
2.22796e-07
0.319458
-0.319458
4.2629e-07
0.319458
-0.319458
9.43109e-07
0.319457
-0.319458
1.21854e-06
0.319457
-0.319457
0.319457
-0.319456
8.45342e-07
0.742567
-0.423111
1.21412e-06
0.742569
-0.423112
1.83054e-06
0.742569
-0.423111
1.91913e-06
0.742568
-0.423111
1.29084e-06
0.742568
-0.42311
0.742566
-0.423108
3.29523e-06
1.33704
-0.594475
5.8232e-06
1.33704
-0.594475
6.59249e-06
1.33704
-0.594472
5.40753e-06
1.33704
-0.59447
2.67015e-06
1.33704
-0.594468
1.33704
-0.594467
-4.35889e-08
2.11276
-0.775718
6.03969e-06
2.11276
-0.775724
8.00148e-06
2.11276
-0.775719
6.91626e-06
2.11276
-0.775716
4.69761e-06
2.11276
-0.775715
2.11276
-0.775715
-3.78628e-06
2.95669
-0.843793
7.39379e-06
2.95671
-0.843821
1.23101e-05
2.95671
-0.843816
1.33067e-05
2.95671
-0.843813
1.18663e-05
2.95671
-0.843814
2.95671
-0.843802
-4.51506e-06
2.91939
-0.453514
-8.45511e-07
2.91946
-0.453547
2.0768e-06
2.91945
-0.453544
-3.09398e-07
2.91945
-0.453541
-2.61431e-06
2.91945
-0.453542
2.91941
-0.453535
8.88273e-06
0.821625
-0.187848
8.49656e-06
0.821717
-0.187856
-1.79983e-06
0.821713
-0.187854
-1.10311e-05
0.821704
-0.187854
-6.6028e-06
0.821707
-0.187857
0.82162
-0.187852
1.12602e-06
0.0106188
0.00550299
1.21708e-06
0.0106202
0.0055031
-9.45133e-07
0.0106205
0.00550376
-3.57145e-06
0.0106202
0.00550366
-2.02496e-06
0.0106204
0.00549985
0.0106185
0.00550797
-2.95254e-07
0.000697075
0.00653223
-3.56283e-07
0.000697065
0.00653296
2.61097e-09
0.000697066
0.00653286
1.66882e-07
0.000697085
0.00653275
4.88877e-07
0.000697106
0.00653266
0.000696943
0.00653243
3.94174e-08
3.46484e-05
0.000492052
1.72594e-08
3.46545e-05
0.000492066
3.12414e-08
3.4652e-05
0.000492038
5.39852e-08
3.46537e-05
0.000492043
5.22361e-08
3.46574e-05
0.000492079
3.46469e-05
0.000492017
3.73839e-09
1.24777e-06
2.86808e-05
7.26628e-09
1.24859e-06
2.86842e-05
8.50275e-09
1.24857e-06
2.86842e-05
8.88224e-09
1.24862e-06
2.86867e-05
6.96562e-09
1.24883e-06
2.86921e-05
1.24836e-06
2.86886e-05
1.01796e-11
3.82655e-07
5.03999e-11
3.82859e-07
7.02196e-11
3.8287e-07
7.51129e-11
3.82883e-07
5.86036e-11
3.82915e-07
3.82839e-07
6.11707e-09
0.267728
-0.587185
-2.78092e-07
0.267729
-0.587186
-3.68456e-07
0.267728
-0.587186
-8.14701e-08
0.267727
-0.587185
1.96919e-08
0.267728
-0.587185
0.267728
-0.587183
2.57583e-06
0.643444
-0.798829
1.98961e-06
0.643448
-0.79883
1.57157e-06
0.643446
-0.798829
3.71732e-07
0.643445
-0.798827
-1.00222e-06
0.643446
-0.798826
0.643444
-0.798825
8.85659e-06
1.11909
-1.07013
8.85797e-06
1.11911
-1.07013
6.72273e-06
1.1191
-1.07012
4.31303e-06
1.1191
-1.07012
3.20509e-06
1.1191
-1.07012
1.1191
-1.07012
6.05555e-06
1.77933
-1.43582
1.04867e-05
1.77935
-1.43583
8.20666e-06
1.77935
-1.43582
5.7285e-06
1.77935
-1.43582
5.40099e-06
1.77935
-1.43582
1.77935
-1.43582
-6.66621e-06
1.26498
-0.943159
7.22364e-06
1.26502
-0.943207
1.2454e-05
1.26502
-0.943205
1.16274e-05
1.26502
-0.943204
8.56954e-06
1.26502
-0.943209
1.26502
-0.943209
1.35499e-07
0.191792
-0.0947049
7.91777e-07
0.1918
-0.0947181
1.29821e-06
0.191798
-0.0947177
1.46213e-06
0.191798
-0.0947173
3.40235e-07
0.1918
-0.0947179
0.191797
-0.0947182
1.50554e-08
0.010573
-0.00692226
-6.66493e-07
0.0105745
-0.00692323
-9.73894e-07
0.0105743
-0.00692313
-1.11083e-06
0.0105742
-0.00692316
-1.4219e-06
0.0105739
-0.00692356
0.0105736
-0.00692349
-6.84449e-07
0.018129
-0.000558897
-1.12067e-06
0.0181313
-0.000558927
-1.02519e-06
0.0181308
-0.00055885
-9.86374e-07
0.0181305
-0.000558843
-1.40169e-06
0.0181301
-0.000558739
0.018128
-0.000558841
-1.89523e-07
0.000826963
0.0023755
-4.92316e-07
0.000827132
0.00237579
-4.88745e-07
0.000826968
0.00237563
-3.90234e-07
0.000826963
0.00237552
-3.54018e-07
0.000827337
0.0023754
0.000826358
0.00237521
1.45166e-08
-2.70287e-05
0.000154223
2.8621e-08
-2.70315e-05
0.000154237
2.91252e-08
-2.70325e-05
0.000154217
2.7676e-08
-2.70349e-05
0.000154216
2.44604e-08
-2.70394e-05
0.000154251
-2.70372e-05
0.000154178
8.32311e-10
-3.30192e-07
1.2903e-06
1.3088e-09
-3.3034e-07
1.2908e-06
1.04135e-09
-3.30346e-07
1.29069e-06
7.10108e-10
-3.30354e-07
1.2908e-06
6.44583e-10
-3.30371e-07
1.29129e-06
-3.30315e-07
1.29079e-06
-7.92879e-12
1.65218e-08
-3.36335e-12
1.65355e-08
1.5594e-12
1.65368e-08
3.17071e-12
1.65392e-08
3.34416e-12
1.65455e-08
1.65397e-08
2.43935e-06
0.131039
-0.718227
2.7983e-06
0.131041
-0.718227
3.35727e-06
0.13104
-0.718226
3.44184e-06
0.13104
-0.718225
1.77951e-06
0.131041
-0.718224
0.131041
-0.718222
8.28071e-06
0.335279
-1.00308
7.8878e-06
0.335289
-1.00308
6.35603e-06
0.33529
-1.00308
4.74953e-06
0.335291
-1.00308
3.12944e-06
0.335293
-1.00308
0.335291
-1.00307
9.98738e-06
0.698399
-1.43307
8.54327e-06
0.698423
-1.43308
4.15409e-06
0.698426
-1.43307
1.82097e-06
0.698427
-1.43307
3.88463e-06
0.698427
-1.43307
0.698422
-1.43306
1.50695e-05
0.917307
-0.93878
1.54664e-05
0.917343
-0.938798
1.43466e-05
0.917348
-0.938798
1.54037e-05
0.91735
-0.938801
1.5551e-05
0.917356
-0.938809
0.91736
-0.938813
6.61727e-06
0.0997715
-0.108065
7.01236e-06
0.0997838
-0.108072
3.9796e-06
0.099784
-0.108073
2.2108e-06
0.0997837
-0.108074
5.20697e-08
0.0997842
-0.108076
0.0997849
-0.108076
6.84114e-07
0.00693303
-0.00174411
7.19362e-08
0.00693402
-0.00174465
2.33448e-08
0.00693398
-0.00174459
2.49643e-08
0.00693401
-0.0017446
-2.55271e-07
0.00693438
-0.00174475
0.00693437
-0.00174481
-4.6907e-08
1.72398e-05
-5.12409e-06
-9.13712e-08
1.72528e-05
-5.12528e-06
-7.19033e-08
1.72491e-05
-5.12513e-06
-5.26611e-08
1.72477e-05
-5.12489e-06
-5.89073e-08
1.72462e-05
-5.12404e-06
1.72407e-05
-5.12295e-06
-7.65356e-09
-6.24883e-05
-1.99432e-05
-1.04889e-08
-6.24145e-05
-1.99469e-05
-9.19755e-09
-6.24528e-05
-1.99452e-05
-9.51465e-09
-6.24496e-05
-1.99434e-05
-2.13617e-08
-6.23768e-05
-1.99434e-05
-6.24124e-05
-1.99369e-05
-1.58456e-08
-2.61311e-06
3.00834e-05
2.73045e-08
-2.61234e-06
3.00878e-05
2.14278e-08
-2.61252e-06
3.00834e-05
2.37685e-09
-2.6121e-06
3.0081e-05
-7.56785e-09
-2.61042e-06
3.00824e-05
-2.61071e-06
3.00733e-05
1.05682e-09
-5.11111e-07
-2.22879e-07
1.685e-09
-5.11468e-07
-2.23155e-07
9.32852e-10
-5.11553e-07
-2.2309e-07
1.4215e-10
-5.11698e-07
-2.23023e-07
1.37351e-10
-5.12218e-07
-2.23073e-07
-5.11865e-07
-2.22621e-07
-6.67199e-12
-1.03216e-08
4.80877e-08
-2.19393e-11
-1.03304e-08
4.80931e-08
-3.13036e-11
-1.03311e-08
4.80827e-08
-3.65672e-11
-1.03323e-08
4.80814e-08
-2.38366e-11
-1.03361e-08
4.80874e-08
-1.03295e-08
4.80752e-08
-4.12018e-13
3.11485e-10
-4.89095e-13
3.11563e-10
-3.99426e-13
3.11583e-10
-2.79512e-13
3.11666e-10
-1.27752e-13
3.11841e-10
3.11857e-10
1.06128e-05
-0.194516
-0.52372
8.32179e-06
-0.194509
-0.523714
7.18819e-06
-0.194508
-0.523715
5.82385e-06
-0.194508
-0.523715
3.95016e-06
-0.194506
-0.523715
-0.194504
-0.523713
8.39908e-06
-0.119147
-1.07837
7.25207e-06
-0.119135
-1.07837
4.86319e-06
-0.119132
-1.07837
2.46228e-06
-0.119131
-1.07837
4.02591e-06
-0.119131
-1.07837
-0.11913
-1.07836
9.29735e-06
0.330201
-0.694733
4.66804e-06
0.330223
-0.69474
3.96667e-06
0.330225
-0.694738
3.57914e-06
0.330225
-0.694739
4.00655e-06
0.330225
-0.694742
0.330226
-0.694745
9.36847e-07
0.108848
-0.0456715
1.47916e-06
0.108856
-0.0456742
1.40936e-06
0.108857
-0.0456734
-1.11198e-06
0.108857
-0.0456735
-3.23151e-06
0.108859
-0.0456738
0.108859
-0.045678
3.87228e-07
0.00174195
-0.000918678
3.35514e-07
0.00174249
-0.000918958
3.84292e-07
0.00174243
-0.000918953
4.47985e-07
0.00174245
-0.00091898
2.51157e-07
0.00174259
-0.000919011
0.00174265
-0.000919121
1.89714e-10
-5.24805e-08
2.56902e-06
-3.50514e-09
-5.23803e-08
2.56913e-06
2.00945e-10
-5.24329e-08
2.56911e-06
3.46402e-09
-5.24268e-08
2.56901e-06
2.44158e-09
-5.23474e-08
2.56855e-06
-5.23207e-08
2.56803e-06
-4.30321e-13
-5.14426e-06
5.53848e-09
1.62466e-11
-5.14536e-06
5.53873e-09
2.28433e-11
-5.14526e-06
5.53934e-09
2.28388e-11
-5.14501e-06
5.53945e-09
1.20641e-11
-5.14407e-06
5.5368e-09
-5.14296e-06
5.53439e-09
3.25606e-10
-2.44203e-05
-5.43852e-07
7.36236e-10
-2.44251e-05
-5.43983e-07
5.43973e-10
-2.44227e-05
-5.43918e-07
2.90992e-10
-2.44206e-05
-5.43855e-07
5.74257e-12
-2.44196e-05
-5.43872e-07
-2.44126e-05
-5.43659e-07
1.27841e-09
-1.51866e-07
7.06522e-07
1.75036e-09
-1.51882e-07
7.06704e-07
7.80781e-10
-1.51838e-07
7.06631e-07
-4.72834e-10
-1.51849e-07
7.06534e-07
-2.63344e-10
-1.51971e-07
7.06475e-07
-1.51801e-07
7.06192e-07
1.83425e-11
-2.98979e-08
1.47594e-08
-2.75336e-11
-2.98979e-08
1.47627e-08
-5.73677e-11
-2.98915e-08
1.47611e-08
-7.37344e-11
-2.9889e-08
1.4761e-08
-5.02236e-11
-2.98927e-08
1.4765e-08
-2.98831e-08
1.47577e-08
-8.53082e-13
-1.47644e-10
2.71011e-10
-1.60895e-12
-1.47586e-10
2.7109e-10
-1.91466e-12
-1.47589e-10
2.71101e-10
-1.81914e-12
-1.47634e-10
2.71107e-10
-1.19833e-12
-1.47734e-10
2.71182e-10
-1.47776e-10
2.71051e-10
-1.00109e-14
1.08299e-11
-1.09529e-14
1.08359e-11
-1.05158e-14
1.08371e-11
-8.18429e-15
1.08398e-11
-4.22957e-15
1.08448e-11
1.08427e-11
7.18079e-87
-5.05847e-79
9.99505e-84
1.58843e-87
-5.06163e-79
1.0001e-83
-6.67704e-88
-5.06128e-79
9.99998e-84
-1.45288e-87
-5.06095e-79
9.99899e-84
-1.32229e-87
-5.06078e-79
9.99826e-84
-5.05643e-79
9.98891e-84
1.84069e-82
-2.51312e-74
5.25003e-79
-1.40179e-83
-2.51443e-74
5.25274e-79
-9.07907e-83
-2.51412e-74
5.25206e-79
-1.28675e-82
-2.5139e-74
5.25145e-79
-1.54707e-82
-2.51379e-74
5.25108e-79
-2.51159e-74
5.24618e-79
3.4335e-78
-6.0082e-70
1.3701e-74
3.31582e-80
-6.01104e-70
1.37075e-74
-1.07132e-78
-6.01033e-70
1.37057e-74
-1.67902e-78
-6.00989e-70
1.37044e-74
-2.32271e-78
-6.0098e-70
1.37039e-74
-6.00477e-70
1.36918e-74
9.11495e-74
-9.10911e-66
2.31125e-70
3.7742e-74
-9.11328e-66
2.31228e-70
1.6434e-74
-9.11242e-66
2.31201e-70
2.11098e-75
-9.11202e-66
2.31185e-70
-1.33014e-74
-9.11223e-66
2.31183e-70
-9.10507e-66
2.30994e-70
1.91981e-69
-9.76234e-62
2.76088e-66
8.30524e-70
-9.76692e-62
2.76202e-66
3.95082e-70
-9.76636e-62
2.76175e-66
9.29976e-71
-9.76619e-62
2.76161e-66
-1.86369e-70
-9.76673e-62
2.76166e-66
-9.75948e-62
2.75949e-66
2.34523e-65
-7.84803e-58
2.42032e-62
7.35338e-66
-7.85193e-58
2.42132e-62
1.36263e-66
-7.85172e-58
2.42107e-62
-2.82085e-66
-7.85172e-58
2.42099e-62
-5.78444e-66
-7.85231e-58
2.42107e-62
-7.84673e-58
2.4192e-62
1.6934e-61
-4.93395e-54
1.56836e-58
2.46154e-62
-4.93657e-54
1.56903e-58
-3.54625e-62
-4.9365e-54
1.56886e-58
-6.8305e-62
-4.93654e-54
1.56879e-58
-8.50762e-62
-4.93696e-54
1.56883e-58
-4.93356e-54
1.5676e-58
7.37102e-58
-2.51851e-50
7.40762e-55
-1.04084e-58
-2.51993e-50
7.41046e-55
-4.37874e-58
-2.51991e-50
7.40949e-55
-5.89787e-58
-2.51993e-50
7.40886e-55
-6.40666e-58
-2.52016e-50
7.40883e-55
-2.51846e-50
7.40274e-55
2.26118e-54
-1.08662e-46
1.86058e-51
-1.10452e-54
-1.08727e-46
1.8607e-51
-2.347e-54
-1.08727e-46
1.86031e-51
-2.85082e-54
-1.08728e-46
1.86003e-51
-2.95568e-54
-1.08739e-46
1.85999e-51
-1.08668e-46
1.85847e-51
6.42054e-51
-3.71215e-43
-5.2497e-44
-4.39606e-51
-3.71432e-43
-5.25475e-44
-8.31241e-51
-3.71436e-43
-5.2549e-44
-9.91398e-51
-3.71446e-43
-5.255e-44
-1.04504e-50
-3.71496e-43
-5.25543e-44
-3.71267e-43
-5.25181e-44
1.76028e-47
-7.62357e-40
-7.34519e-40
-1.17655e-47
-7.62838e-40
-7.34966e-40
-2.40901e-47
-7.62884e-40
-7.3496e-40
-3.02337e-47
-7.62941e-40
-7.34969e-40
-3.37844e-47
-7.63084e-40
-7.35061e-40
-7.62666e-40
-7.34605e-40
-1.88958e-44
-4.15351e-36
-7.86939e-44
-4.15621e-36
-1.0495e-43
-4.15653e-36
-1.13235e-43
-4.1569e-36
-1.08543e-43
-4.15777e-36
-4.15558e-36
5.44876e-83
-5.24272e-75
2.07469e-79
-7.75521e-85
-5.24632e-75
2.0761e-79
-2.21597e-83
-5.24593e-75
2.07594e-79
-3.27557e-83
-5.2454e-75
2.07572e-79
-3.94381e-83
-5.24497e-75
2.07552e-79
-5.24021e-75
2.07357e-79
1.19561e-78
-2.59328e-70
1.09018e-74
-6.7557e-79
-2.59479e-70
1.09084e-74
-1.35539e-78
-2.59451e-70
1.09072e-74
-1.92406e-78
-2.5942e-70
1.09058e-74
-2.49454e-78
-2.594e-70
1.09048e-74
-2.59164e-70
1.08945e-74
2.19159e-74
-6.14342e-66
2.84162e-70
-7.31485e-75
-6.14676e-66
2.84322e-70
-1.84889e-74
-6.14614e-66
2.84293e-70
-2.8476e-74
-6.14555e-66
2.84261e-70
-3.88659e-74
-6.14529e-66
2.84241e-70
-6.14003e-66
2.83987e-70
6.54181e-70
-9.1632e-62
4.7664e-66
2.04532e-70
-9.16804e-62
4.76893e-66
-4.90238e-72
-9.16735e-62
4.7685e-66
-1.83882e-70
-9.16676e-62
4.76806e-66
-4.20145e-70
-9.16673e-62
4.76789e-66
-9.15942e-62
4.76388e-66
1.26739e-65
-9.56934e-58
5.62234e-62
3.35972e-66
-9.57441e-58
5.62525e-62
-8.62607e-68
-9.57397e-58
5.62481e-62
-3.48047e-66
-9.57358e-58
5.62445e-62
-7.43768e-66
-9.57384e-58
5.62444e-62
-9.5666e-58
5.62e-62
1.25719e-61
-7.40749e-54
4.81713e-58
6.31512e-63
-7.41149e-54
4.81963e-58
-4.51806e-62
-7.41125e-54
4.81931e-58
-8.40643e-62
-7.41104e-54
4.8191e-58
-1.26046e-61
-7.41137e-54
4.81922e-58
-7.40595e-54
4.81558e-58
5.81419e-58
-4.42379e-50
2.98877e-54
-3.48737e-58
-4.42622e-50
2.99029e-54
-7.12432e-58
-4.42609e-50
2.9901e-54
-9.60966e-58
-4.42597e-50
2.98997e-54
-1.19789e-57
-4.42621e-50
2.99008e-54
-4.42304e-50
2.98788e-54
1.28934e-54
-2.12095e-46
1.2779e-50
-3.23402e-54
-2.12213e-46
1.27847e-50
-4.99036e-54
-2.12206e-46
1.27838e-50
-6.09541e-54
-2.12201e-46
1.27832e-50
-7.13739e-54
-2.12215e-46
1.27838e-50
-2.12067e-46
1.27748e-50
1.27804e-51
-8.62129e-43
3.07591e-47
-1.2915e-50
-8.62614e-43
3.07693e-47
-1.74964e-50
-8.62592e-43
3.07671e-47
-2.12194e-50
-8.62577e-43
3.07662e-47
-2.65108e-50
-8.62648e-43
3.07693e-47
-8.62065e-43
3.07505e-47
-3.57519e-48
-2.85794e-39
-3.06984e-40
-3.40294e-47
-2.85951e-39
-3.0725e-40
-4.24364e-47
-2.85952e-39
-3.07206e-40
-5.54163e-47
-2.85956e-39
-3.0715e-40
-7.9771e-47
-2.85994e-39
-3.07107e-40
-2.85821e-39
-3.06782e-40
-2.67989e-44
-4.78827e-36
-5.44714e-36
-1.01463e-43
-4.79127e-36
-5.45016e-36
-1.40077e-43
-4.79158e-36
-5.45012e-36
-1.94797e-43
-4.79192e-36
-5.45014e-36
-2.71181e-43
-4.79285e-36
-5.45086e-36
-4.79027e-36
-5.44759e-36
-5.82491e-40
-2.22946e-32
-7.70533e-40
-2.23096e-32
-8.44861e-40
-2.23116e-32
-8.40612e-40
-2.23137e-32
-7.80395e-40
-2.23188e-32
-2.23073e-32
5.07789e-79
-4.98329e-71
2.89441e-75
-2.87207e-80
-4.98617e-71
2.89605e-75
-2.38968e-79
-4.98598e-71
2.89592e-75
-3.43394e-79
-4.98583e-71
2.89583e-75
-3.98346e-79
-4.98607e-71
2.89594e-75
-4.98266e-71
2.8939e-75
1.29e-74
-2.58647e-66
1.60521e-70
-6.61978e-75
-2.58776e-66
1.60602e-70
-1.43521e-74
-2.58759e-66
1.60592e-70
-2.01372e-74
-2.58748e-66
1.60584e-70
-2.60129e-74
-2.58761e-66
1.60591e-70
-2.58583e-66
1.60477e-70
2.57356e-70
-6.38386e-62
4.40816e-66
-8.18744e-71
-6.38688e-62
4.41027e-66
-2.24874e-70
-6.38656e-62
4.41002e-66
-3.38952e-70
-6.38645e-62
4.40987e-66
-4.65271e-70
-6.38697e-62
4.41014e-66
-6.38289e-62
4.40719e-66
5.80363e-66
-9.80242e-58
7.74134e-62
5.86743e-67
-9.80706e-58
7.74494e-62
-1.5137e-66
-9.80682e-58
7.74461e-62
-3.57753e-66
-9.80688e-58
7.7445e-62
-5.90422e-66
-9.808e-58
7.74519e-62
-9.80214e-58
7.74033e-62
8.37839e-62
-1.03534e-53
9.45824e-58
7.09867e-64
-1.03584e-53
9.46269e-58
-3.73227e-62
-1.03584e-53
9.46242e-58
-6.92535e-62
-1.03586e-53
9.46248e-58
-1.0016e-61
-1.03599e-53
9.46357e-58
-1.0354e-53
9.45796e-58
4.41339e-58
-7.90773e-50
8.29612e-54
-4.43673e-58
-7.91163e-50
8.30007e-54
-8.57529e-58
-7.91161e-50
8.29993e-54
-1.14491e-57
-7.9118e-50
8.30009e-54
-1.36481e-57
-7.91288e-50
8.30118e-54
-7.90839e-50
8.29639e-54
-8.58725e-55
-4.49604e-46
5.26467e-50
-6.17177e-54
-4.49829e-46
5.26715e-50
-8.39524e-54
-4.49827e-46
5.26706e-50
-9.68202e-54
-4.49836e-46
5.26715e-50
-1.05423e-53
-4.49897e-46
5.26785e-50
-4.49641e-46
5.26483e-50
-1.67769e-50
-1.9341e-42
2.40809e-46
-3.46042e-50
-1.93508e-42
2.40918e-46
-4.00235e-50
-1.93507e-42
2.40912e-46
-4.28152e-50
-1.9351e-42
2.40915e-46
-4.5978e-50
-1.93538e-42
2.40948e-46
-1.93428e-42
2.40813e-46
-7.93662e-47
-6.3077e-39
6.80751e-43
-9.45313e-47
-6.31097e-39
6.81046e-43
-9.44732e-47
-6.31099e-39
6.81038e-43
-1.01329e-46
-6.31115e-39
6.81057e-43
-1.23238e-46
-6.31213e-39
6.81171e-43
-6.30862e-39
6.80829e-43
-2.26485e-43
-1.60855e-35
6.55146e-41
-2.00281e-43
-1.60944e-35
6.55323e-41
-2.01139e-43
-1.60947e-35
6.5619e-41
-2.41159e-43
-1.60954e-35
6.57312e-41
-3.04942e-43
-1.60982e-35
6.58714e-41
-1.60895e-35
6.60267e-41
-1.17502e-39
-2.019e-32
-1.71467e-32
-1.08653e-39
-2.02033e-32
-1.71559e-32
-1.04642e-39
-2.02048e-32
-1.71562e-32
-1.01488e-39
-2.02065e-32
-1.71569e-32
-8.7251e-40
-2.02108e-32
-1.71601e-32
-2.02006e-32
-1.71509e-32
-3.24151e-36
-5.47272e-29
-3.24254e-36
-5.47661e-29
-2.69967e-36
-5.47721e-29
-1.88731e-36
-5.47786e-29
-8.58024e-37
-5.47926e-29
-5.47658e-29
1.03974e-75
-1.12419e-67
8.52708e-72
-1.29239e-76
-1.12475e-67
8.53111e-72
-5.78608e-76
-1.12469e-67
8.53057e-72
-8.13461e-76
-1.12467e-67
8.53036e-72
-9.54497e-76
-1.12476e-67
8.53098e-72
-1.12405e-67
8.52542e-72
3.04938e-71
-6.36137e-63
5.19901e-67
-1.88975e-71
-6.36414e-63
5.20123e-67
-3.85307e-71
-6.36369e-63
5.20083e-67
-5.39054e-71
-6.36352e-63
5.20066e-67
-6.9167e-71
-6.36404e-63
5.20104e-67
-6.35994e-63
5.19763e-67
6.48563e-67
-1.69284e-58
1.56308e-62
-3.47212e-67
-1.69356e-58
1.56373e-62
-7.73604e-67
-1.69348e-58
1.56363e-62
-1.11942e-66
-1.69347e-58
1.56361e-62
-1.49638e-66
-1.69366e-58
1.56375e-62
-1.69264e-58
1.56278e-62
1.10365e-62
-2.75203e-54
2.97464e-58
-4.23645e-63
-2.75323e-54
2.97589e-58
-1.0603e-62
-2.75316e-54
2.97574e-58
-1.63715e-62
-2.75321e-54
2.97575e-58
-2.20969e-62
-2.75358e-54
2.97609e-58
-2.75201e-54
2.97433e-58
6.13197e-59
-2.99615e-50
3.86958e-54
-1.06783e-58
-2.99751e-50
3.87126e-54
-1.91589e-58
-2.99747e-50
3.87113e-54
-2.56523e-58
-2.99755e-50
3.8712e-54
-3.09391e-58
-2.99799e-50
3.87173e-54
-2.99633e-50
3.86954e-54
-8.29214e-55
-2.27476e-46
3.51075e-50
-1.99724e-54
-2.27582e-46
3.51232e-50
-2.56991e-54
-2.27579e-46
3.51225e-50
-2.89104e-54
-2.27586e-46
3.51235e-50
-3.01747e-54
-2.27621e-46
3.51287e-50
-2.27495e-46
3.51092e-50
-1.28091e-50
-1.23339e-42
2.21061e-46
-1.52739e-50
-1.23397e-42
2.21161e-46
-1.58815e-50
-1.23396e-42
2.21157e-46
-1.57374e-50
-1.234e-42
2.21164e-46
-1.57288e-50
-1.2342e-42
2.21199e-46
-1.23352e-42
2.21077e-46
-7.48285e-47
-4.90213e-39
9.47502e-43
-5.71104e-47
-4.90449e-39
9.4793e-43
-5.00006e-47
-4.90448e-39
9.47915e-43
-4.81549e-47
-4.90467e-39
9.47945e-43
-5.11514e-47
-4.90552e-39
9.48101e-43
-4.90289e-39
9.47593e-43
-2.66266e-43
-1.49624e-35
2.58988e-39
-1.3273e-43
-1.49698e-35
2.59108e-39
-9.43665e-44
-1.497e-35
2.59108e-39
-9.91219e-44
-1.49707e-35
2.5912e-39
-1.28945e-43
-1.49736e-35
2.59169e-39
-1.49658e-35
2.59039e-39
-9.73072e-40
-3.70888e-32
2.75297e-36
-5.46485e-40
-3.71084e-32
2.75446e-36
-3.89592e-40
-3.71098e-32
2.75472e-36
-3.10945e-40
-3.71123e-32
2.75511e-36
-2.27111e-40
-3.71203e-32
2.75593e-36
-3.71015e-32
2.75484e-36
-2.66582e-36
-2.92542e-29
-4.64733e-29
-1.92267e-36
-2.92739e-29
-4.64979e-29
-1.06666e-36
-2.92769e-29
-4.65e-29
-2.39267e-37
-2.928e-29
-4.65044e-29
6.40458e-37
-2.92872e-29
-4.65163e-29
-2.92728e-29
-4.64936e-29
-5.06111e-33
-6.91912e-26
-4.64615e-33
-6.92408e-26
-2.47472e-33
-6.92493e-26
-1.19338e-34
-6.92593e-26
1.49032e-33
-6.92799e-26
-6.92477e-26
1.25463e-05
-0.0739165
-0.449733
1.09895e-05
-0.0739075
-0.449722
8.11834e-06
-0.0739072
-0.449722
5.78662e-06
-0.0739069
-0.449722
7.54816e-06
-0.0739074
-0.449726
-0.0739066
-0.449715
1.7002e-05
1.43393
-0.807203
1.09579e-05
1.43396
-0.807209
9.80514e-06
1.43395
-0.807206
1.30267e-05
1.43395
-0.807206
2.7645e-05
1.43395
-0.807212
1.43397
-0.807206
7.62484e-06
-1.03973e-08
8.58974e-06
-1.04158e-08
7.75726e-06
-1.04186e-08
9.48984e-06
-1.04144e-08
1.27367e-05
-1.04131e-08
-1.04088e-08
1.8153e-06
-0.540133
-0.0029008
3.07739e-10
-0.540143
-0.00289406
-5.99762e-07
-0.540139
-0.00289533
7.51791e-07
-0.540138
-0.00289597
1.20296e-07
-0.540137
-0.00289879
-0.540149
-0.00288933
2.97358e-07
-2.82619e-09
0.0170977
-5.27622e-07
-2.83125e-09
0.0170982
-1.89238e-07
-2.83199e-09
0.0170978
-5.53666e-07
-2.83086e-09
0.0170981
-3.1242e-06
-2.83049e-09
0.0170983
-2.82936e-09
0.0170974
6.23037e-15
-1.32235e-08
2.0558e-15
-1.3247e-08
6.6104e-16
-1.32505e-08
-6.67435e-15
-1.32453e-08
-1.84725e-14
-1.32436e-08
-1.32381e-08
1.16388e-06
-0.0170559
0.0462868
-2.13113e-07
-0.0170564
0.0462897
-3.40234e-07
-0.017056
0.0462888
-5.74712e-07
-0.0170563
0.046289
-1.33529e-06
-0.0170564
0.0462893
-0.0170557
0.0462937
1.51841e-08
-3.15944e-07
4.20698e-05
8.17741e-09
-3.16504e-07
4.20822e-05
1.09547e-08
-3.16588e-07
4.20742e-05
1.16254e-08
-3.16463e-07
4.20803e-05
2.30996e-08
-3.16422e-07
4.20907e-05
-3.16296e-07
4.20932e-05
-2.70695e-13
-3.2907e-07
-3.51074e-13
-3.29653e-07
-3.2915e-13
-3.29741e-07
-3.00898e-13
-3.29611e-07
-2.58801e-13
-3.29568e-07
-3.29437e-07
1.10708e-07
-0.000172398
0.000764518
1.1118e-07
-0.00017238
0.000764773
8.2138e-08
-0.000172371
0.000764775
3.78069e-08
-0.000172378
0.000764799
3.80344e-09
-0.000172385
0.000764821
-0.000172367
0.000764925
3.67606e-10
-5.35198e-06
-0.000133502
3.59493e-10
-5.35464e-06
-0.000133483
3.09034e-10
-5.35489e-06
-0.000133485
2.68327e-10
-5.3545e-06
-0.000133482
3.05412e-10
-5.35471e-06
-0.000133477
-5.35375e-06
-0.000133455
9.96351e-12
-6.76861e-06
8.77424e-12
-6.77526e-06
4.00083e-12
-6.77618e-06
1.30411e-12
-6.77465e-06
-2.22568e-12
-6.77433e-06
-6.77375e-06
2.11429e-09
-0.000149763
-2.11512e-06
1.32799e-09
-0.000149786
-2.11496e-06
7.78315e-10
-0.00014978
-2.11486e-06
-1.34659e-10
-0.000149782
-2.11476e-06
-1.47252e-09
-0.000149789
-2.11445e-06
-0.0001498
-2.1144e-06
-1.56829e-10
-6.75112e-06
-5.43966e-07
-4.13568e-09
-6.75304e-06
-5.42547e-07
-5.61917e-09
-6.75194e-06
-5.42612e-07
-4.64617e-09
-6.75218e-06
-5.42601e-07
-5.70599e-09
-6.75286e-06
-5.42483e-07
-6.75108e-06
-5.43199e-07
4.92451e-11
-7.30729e-08
5.10304e-11
-7.31923e-08
2.68811e-11
-7.31966e-08
2.21258e-11
-7.31696e-08
7.87522e-11
-7.31863e-08
-7.31329e-08
-7.439e-11
5.40278e-07
-4.8188e-08
-4.03513e-11
5.40459e-07
-4.8201e-08
2.83019e-11
5.40501e-07
-4.82025e-08
8.48519e-11
5.40511e-07
-4.82012e-08
8.86373e-11
5.40396e-07
-4.81896e-08
5.3999e-07
-4.81685e-08
-6.20908e-13
7.8587e-10
-2.11768e-09
-4.49339e-13
7.85264e-10
-2.11375e-09
-2.55761e-13
7.84326e-10
-2.1138e-09
-6.49014e-14
7.84507e-10
-2.11378e-09
1.96531e-13
7.86135e-10
-2.11346e-09
7.83252e-10
-2.11711e-09
-3.35821e-14
-4.25949e-11
-4.96225e-14
-4.26109e-11
-7.14767e-14
-4.26082e-11
-6.84409e-14
-4.26096e-11
-2.02572e-14
-4.26087e-11
-4.25817e-11
1.6665e-14
8.15043e-10
-4.81758e-08
2.22226e-13
8.13415e-10
-4.81878e-08
3.08446e-13
8.13401e-10
-4.81885e-08
3.5612e-13
8.13432e-10
-4.81873e-08
3.10857e-13
8.13319e-10
-4.81771e-08
8.14702e-10
-4.81598e-08
1.76077e-17
1.08517e-11
-1.44697e-09
-3.41139e-16
1.08555e-11
-1.44472e-09
-4.48268e-16
1.08549e-11
-1.44477e-09
4.80453e-16
1.08557e-11
-1.44472e-09
1.78168e-15
1.08557e-11
-1.4445e-09
1.08472e-11
-1.44667e-09
-9.05064e-19
-3.3385e-11
1.10373e-18
-3.33978e-11
2.25015e-18
-3.33956e-11
5.31136e-18
-3.33962e-11
8.68617e-18
-3.33952e-11
-3.33756e-11
5.82857e-12
-7.33448e-09
-5.5987e-07
8.81398e-12
-7.33868e-09
-5.6e-07
9.51651e-12
-7.33767e-09
-5.59934e-07
9.17062e-12
-7.33686e-09
-5.5987e-07
7.54641e-12
-7.33731e-09
-5.59877e-07
-7.33189e-09
-5.59652e-07
-1.753e-15
-2.88359e-10
-7.80421e-09
-5.54214e-15
-2.88491e-10
-7.80589e-09
1.69843e-14
-2.88422e-10
-7.80505e-09
6.06874e-14
-2.88464e-10
-7.80415e-09
7.34208e-14
-2.88489e-10
-7.80437e-09
-2.88313e-10
-7.8014e-09
-1.16893e-16
-7.30646e-11
-1.70636e-16
-7.3089e-11
-9.70547e-17
-7.30821e-11
1.16515e-16
-7.30758e-11
1.89694e-16
-7.30767e-11
-7.3041e-11
1.71694e-11
9.23034e-09
-1.23463e-08
6.97495e-12
9.23249e-09
-1.23485e-08
-2.59844e-12
9.23177e-09
-1.23465e-08
-5.65249e-12
9.23054e-09
-1.23452e-08
5.39578e-12
9.23061e-09
-1.23467e-08
9.22685e-09
-1.23401e-08
-9.97406e-14
4.87809e-10
-1.5245e-10
8.62765e-14
4.87937e-10
-1.52476e-10
2.66796e-13
4.87888e-10
-1.52461e-10
3.90773e-13
4.87863e-10
-1.5246e-10
4.32317e-13
4.87925e-10
-1.52498e-10
4.8768e-10
-1.52421e-10
-6.77072e-15
-2.42951e-12
-4.07408e-15
-2.43002e-12
-8.46338e-16
-2.42975e-12
1.49196e-15
-2.42976e-12
2.33224e-15
-2.43038e-12
-2.42907e-12
-2.33692e-13
2.94669e-10
-2.02491e-10
-9.47437e-13
2.94771e-10
-2.02503e-10
-1.47336e-12
2.94759e-10
-2.02497e-10
-1.58531e-12
2.94783e-10
-2.02474e-10
-7.71321e-13
2.94892e-10
-2.02501e-10
2.94755e-10
-2.02376e-10
-7.89315e-15
1.48069e-11
-8.63145e-13
-6.79143e-15
1.48109e-11
-8.63021e-13
-5.93251e-15
1.48099e-11
-8.62751e-13
-4.75194e-15
1.48106e-11
-8.62236e-13
1.12343e-15
1.48155e-11
-8.61642e-13
1.48078e-11
-8.60941e-13
-9.68042e-17
-6.42837e-15
-7.02243e-17
-6.43117e-15
2.35833e-18
-6.43157e-15
4.3488e-17
-6.43311e-15
6.06643e-17
-6.43687e-15
-6.43433e-15
-1.55718e-14
2.72431e-12
-7.47997e-12
-2.67665e-14
2.728e-12
-7.4833e-12
-3.42428e-14
2.72781e-12
-7.48261e-12
-3.40879e-14
2.72841e-12
-7.48373e-12
-2.01897e-14
2.73116e-12
-7.48905e-12
2.72751e-12
-7.48258e-12
-1.32686e-16
3.19891e-13
5.79141e-14
-2.55458e-16
3.20019e-13
5.79534e-14
-3.18773e-16
3.20036e-13
5.7963e-14
-3.13889e-16
3.20099e-13
5.79802e-14
-1.5861e-16
3.20255e-13
5.80121e-14
3.20132e-13
5.79973e-14
4.41734e-19
3.62242e-16
1.63626e-19
3.62477e-16
-8.22694e-20
3.62525e-16
-1.11365e-19
3.62633e-16
2.53871e-19
3.62848e-16
3.62721e-16
-1.76949e-16
4.551e-13
5.93695e-14
-2.8918e-16
4.55385e-13
5.94157e-14
-3.48069e-16
4.55442e-13
5.9423e-14
-3.38975e-16
4.55556e-13
5.94366e-14
-2.2394e-16
4.55782e-13
5.94638e-14
4.55646e-13
5.94414e-14
-1.74127e-18
9.61516e-15
-1.17877e-14
-4.66865e-18
9.62116e-15
-1.17947e-14
-6.51614e-18
9.62187e-15
-1.17957e-14
-6.63428e-18
9.62408e-15
-1.17982e-14
-4.044e-18
9.62963e-15
-1.18041e-14
9.6246e-15
-1.17996e-14
6.99949e-21
-1.51481e-16
-5.46033e-21
-1.51581e-16
-1.89133e-20
-1.51596e-16
-2.28288e-20
-1.51632e-16
-1.12926e-20
-1.51711e-16
-1.5165e-16
4.63122e-28
2.0064e-23
-6.56477e-21
5.55914e-23
1.46104e-28
2.00769e-23
-6.56925e-21
5.56272e-23
1.70644e-28
2.00792e-23
-6.57007e-21
5.56336e-23
1.97406e-28
2.00827e-23
-6.57135e-21
5.56435e-23
1.61197e-28
2.00898e-23
-6.57386e-21
5.56632e-23
2.0081e-23
-6.57107e-21
5.56388e-23
8.66253e-30
9.7336e-25
-1.71194e-22
1.16472e-24
1.84603e-30
9.73936e-25
-1.71301e-22
1.16541e-24
3.85734e-30
9.74036e-25
-1.71321e-22
1.16553e-24
4.13663e-30
9.74197e-25
-1.71352e-22
1.16573e-24
1.7401e-31
9.74521e-25
-1.71413e-22
1.16612e-24
9.74097e-25
-1.71341e-22
1.16561e-24
2.13052e-32
-7.87023e-25
3.77051e-27
6.59208e-33
-7.87486e-25
3.77262e-27
2.43771e-32
-7.87571e-25
3.77298e-27
1.91238e-32
-7.87704e-25
3.77357e-27
-1.97134e-32
-7.87969e-25
3.77475e-27
-7.87633e-25
3.77307e-27
1.25324e-26
2.44825e-21
-5.44931e-19
-1.52314e-26
2.4499e-21
-5.45321e-19
-1.40215e-26
2.4502e-21
-5.45392e-19
-1.52559e-26
2.45067e-21
-5.45506e-19
-2.58674e-26
2.4516e-21
-5.45729e-19
2.45055e-21
-5.45504e-19
-3.32122e-28
1.49279e-22
-1.73076e-20
-8.03794e-28
1.49371e-22
-1.73188e-20
-7.46842e-28
1.49387e-22
-1.73209e-20
-7.58597e-28
1.49414e-22
-1.73243e-20
-1.51197e-27
1.49467e-22
-1.73308e-20
1.49404e-22
-1.73238e-20
-5.18343e-30
-1.09e-22
-4.19231e-30
-1.09066e-22
-2.56656e-30
-1.09079e-22
-3.30469e-30
-1.09099e-22
-1.06459e-29
-1.09138e-22
-1.09092e-22
-1.34365e-24
2.07183e-19
-3.08057e-17
-4.2836e-24
2.07329e-19
-3.08287e-17
-5.72617e-24
2.07355e-19
-3.08327e-17
-6.08579e-24
2.07397e-19
-3.08395e-17
-4.7281e-24
2.07482e-19
-3.08528e-17
2.07397e-19
-3.08404e-17
-1.0875e-25
1.53472e-20
-1.16253e-18
-1.81296e-25
1.5357e-20
-1.16332e-18
-2.32541e-25
1.53588e-20
-1.16346e-18
-2.32368e-25
1.53617e-20
-1.1637e-18
-1.98307e-25
1.53675e-20
-1.16417e-18
1.53613e-20
-1.16372e-18
-1.03569e-27
-9.91514e-21
-1.18573e-27
-9.92136e-21
-1.46934e-27
-9.92254e-21
-1.46159e-27
-9.92447e-21
-1.31244e-27
-9.92822e-21
-9.92428e-21
-3.05301e-22
1.17242e-17
-6.85376e-17
-5.33215e-22
1.17328e-17
-6.85904e-17
-6.03723e-22
1.17343e-17
-6.85993e-17
-5.47701e-22
1.17368e-17
-6.86147e-17
-2.91743e-22
1.17418e-17
-6.86448e-17
1.17372e-17
-6.86168e-17
-1.33505e-23
1.03569e-18
-5.01873e-17
-2.32877e-23
1.03638e-18
-5.02233e-17
-2.85955e-23
1.0365e-18
-5.02295e-17
-2.49167e-23
1.03671e-18
-5.02406e-17
-1.3171e-23
1.03713e-18
-5.02624e-17
1.03673e-18
-5.0243e-17
-9.16391e-26
-5.8783e-19
-2.0167e-25
-5.88211e-19
-2.83255e-25
-5.88281e-19
-2.60392e-25
-5.88402e-19
-1.30795e-25
-5.88638e-19
-5.88416e-19
-4.7731e-21
5.6866e-16
-3.07301e-15
-1.88552e-20
5.69099e-16
-3.0754e-15
-2.76221e-20
5.69165e-16
-3.07578e-15
-2.59264e-20
5.6929e-16
-3.07647e-15
-1.30403e-20
5.69543e-16
-3.07786e-15
5.69321e-16
-3.07665e-15
-7.50432e-22
4.40405e-17
-1.34654e-16
-1.24618e-21
4.40717e-17
-1.34768e-16
-1.44035e-21
4.40771e-17
-1.34786e-16
-1.26328e-21
4.40866e-17
-1.34816e-16
-5.88557e-22
4.41058e-17
-1.34874e-16
4.40892e-17
-1.3482e-16
-1.18718e-23
-2.26615e-17
-2.10824e-23
-2.26766e-17
-2.44981e-23
-2.26792e-17
-2.12041e-23
-2.2684e-17
-9.87329e-24
-2.26937e-17
-2.26854e-17
1.53255e-19
3.14628e-14
-3.21443e-19
3.14867e-14
-5.57417e-19
3.14904e-14
-5.22392e-19
3.14975e-14
-3.20756e-19
3.15118e-14
3.15003e-14
-9.33126e-21
1.60294e-16
-3.05018e-20
1.60406e-16
-4.49936e-20
1.60426e-16
-4.29682e-20
1.60464e-16
-1.92764e-20
1.6054e-16
1.60478e-16
-4.86008e-22
-7.28021e-22
-8.74201e-22
-8.42085e-22
-4.28351e-22
1.8842e-72
2.55368e-68
-2.88484e-64
-5.57435e-73
2.55496e-68
-2.88637e-64
-1.52948e-72
2.55502e-68
-2.88646e-64
-2.08256e-72
2.55524e-68
-2.88671e-64
-2.42992e-72
2.55578e-68
-2.88733e-64
2.55451e-68
-2.88593e-64
4.64017e-76
1.74173e-71
-1.58836e-67
-4.33222e-76
1.7426e-71
-1.58919e-67
-8.13815e-76
1.74264e-71
-1.58923e-67
-1.06223e-75