/*--------------------------------*- C++ -*----------------------------------*\
| =========                 |                                                 |
| \\      /  F ield         | OpenFOAM: The Open Source CFD Toolbox           |
|  \\    /   O peration     | Version:  v1612+                                |
|   \\  /    A nd           | Web:      www.OpenFOAM.com                      |
|    \\/     M anipulation  |                                                 |
\*---------------------------------------------------------------------------*/
FoamFile
{
    version     2.0;
    format      ascii;
    class       volScalarField;
    location    "1.15";
    object      alpha.water;
}
// * * * * * * * * * * * * * * * * * * * * * * * * * * * * * * * * * * * * * //

dimensions      [0 0 0 0 0 0 0];

internalField   nonuniform List<scalar> 
1116
(
1
1
1
1
1
1
1
1
1
1
1
1
1
1
1
1
1
1
0.999999
0.999999
0.999999
0.999999
0.999999
0.999999
0.999962
0.999962
0.999962
0.999962
0.999962
0.999962
0.931152
0.931155
0.931155
0.931155
0.931154
0.931152
0.565654
0.565671
0.565671
0.565669
0.565668
0.565653
0.0429724
0.0429788
0.0429785
0.0429779
0.0429783
0.042971
0.000306794
0.000306817
0.000306814
0.000306817
0.000306825
0.000306774
1.32663e-05
1.32683e-05
1.3268e-05
1.32683e-05
1.32689e-05
1.3266e-05
3.23024e-07
3.2316e-07
3.23155e-07
3.23161e-07
3.23185e-07
3.2309e-07
5.57343e-08
5.57683e-08
5.57688e-08
5.5772e-08
5.57843e-08
5.57634e-08
1
1
1
1
1
1
1
1
1
1
1
1
1
1
1
1
1
1
0.999963
0.999963
0.999963
0.999963
0.999963
0.999963
0.752289
0.752295
0.752295
0.752295
0.752294
0.752295
0.135658
0.135667
0.135668
0.135667
0.135665
0.135664
0.000170376
0.000170415
0.00017041
0.000170411
0.000170423
0.000170424
0.00415589
0.00415623
0.00415621
0.00415614
0.00415585
0.00415595
0.00232739
0.00232761
0.00232753
0.00232749
0.00232752
0.00232713
3.66829e-05
3.66859e-05
3.66817e-05
3.66823e-05
3.66933e-05
3.66679e-05
4.32096e-08
4.32363e-08
4.32364e-08
4.32387e-08
4.32474e-08
4.32317e-08
2.02517e-09
2.02673e-09
2.0269e-09
2.02717e-09
2.02779e-09
2.02715e-09
1
1
1
1
1
1
1
1
1
1
1
1
0.999963
0.999963
0.999963
0.999963
0.999963
0.999963
0.845261
0.845264
0.845266
0.845266
0.845268
0.845272
0.154246
0.15425
0.154252
0.154252
0.154253
0.154256
4.86318e-05
4.86462e-05
4.86451e-05
4.86458e-05
4.86487e-05
4.86451e-05
5.4422e-08
5.44343e-08
5.44328e-08
5.443e-08
5.44199e-08
5.44069e-08
7.32522e-05
7.32714e-05
7.32771e-05
7.3275e-05
7.32719e-05
7.32535e-05
0.000236403
0.000236427
0.000236409
0.000236399
0.000236403
0.000236352
5.94803e-06
5.94844e-06
5.94767e-06
5.94772e-06
5.94947e-06
5.94635e-06
2.98837e-08
2.98919e-08
2.98841e-08
2.98835e-08
2.98834e-08
2.98759e-08
2.64757e-10
2.64962e-10
2.65006e-10
2.65069e-10
2.65179e-10
2.65221e-10
1
1
1
1
1
1
0.999985
0.999985
0.999985
0.999985
0.999985
0.999985
0.773232
0.773233
0.773234
0.773234
0.773236
0.77324
0.0958318
0.095834
0.0958349
0.0958356
0.0958373
0.0958406
1.00904e-05
1.0094e-05
1.0094e-05
1.00943e-05
1.00946e-05
1.0096e-05
-5.4751e-07
-5.47689e-07
-5.47662e-07
-5.47673e-07
-5.47754e-07
-5.47781e-07
1.50032e-09
1.50038e-09
1.49984e-09
1.49984e-09
1.49981e-09
1.49913e-09
1.13042e-08
1.13087e-08
1.13074e-08
1.1308e-08
1.13104e-08
1.13031e-08
2.83231e-07
2.83258e-07
2.8323e-07
2.8323e-07
2.83293e-07
2.8318e-07
1.37688e-08
1.37784e-08
1.37765e-08
1.3774e-08
1.37724e-08
1.3774e-08
6.66157e-10
6.66393e-10
6.6624e-10
6.66294e-10
6.66419e-10
6.66269e-10
7.00018e-12
7.00537e-12
7.00617e-12
7.00774e-12
7.01086e-12
7.00959e-12
1.47455e-80
1.47544e-80
1.47533e-80
1.47523e-80
1.47516e-80
1.47388e-80
7.4573e-76
7.4612e-76
7.46033e-76
7.45966e-76
7.45928e-76
7.45271e-76
1.81688e-71
1.81775e-71
1.81754e-71
1.81739e-71
1.81733e-71
1.81579e-71
2.8103e-67
2.81158e-67
2.81129e-67
2.81112e-67
2.81111e-67
2.80885e-67
3.07642e-63
3.07782e-63
3.07759e-63
3.07746e-63
3.07754e-63
3.07519e-63
2.5296e-59
2.53078e-59
2.53066e-59
2.5306e-59
2.53072e-59
2.52888e-59
1.62908e-55
1.62988e-55
1.62983e-55
1.62982e-55
1.62992e-55
1.62878e-55
8.53309e-52
8.53753e-52
8.53732e-52
8.5373e-52
8.53792e-52
8.53212e-52
3.78584e-48
3.78789e-48
3.78782e-48
3.78783e-48
3.78816e-48
3.78566e-48
1.52059e-44
1.52145e-44
1.52144e-44
1.52146e-44
1.52162e-44
1.52066e-44
5.54773e-41
5.55078e-41
5.5508e-41
5.55095e-41
5.5517e-41
5.54845e-41
1.5945e-37
1.59543e-37
1.59552e-37
1.59564e-37
1.59594e-37
1.59511e-37
1.52899e-76
1.53001e-76
1.5299e-76
1.52974e-76
1.5296e-76
1.5282e-76
7.70962e-72
7.71417e-72
7.71336e-72
7.71242e-72
7.71173e-72
7.70468e-72
1.86405e-67
1.86508e-67
1.86488e-67
1.86468e-67
1.86456e-67
1.86293e-67
2.84109e-63
2.84259e-63
2.84234e-63
2.8421e-63
2.842e-63
2.83966e-63
3.03583e-59
3.0374e-59
3.0372e-59
3.037e-59
3.03699e-59
3.03462e-59
2.40792e-55
2.40916e-55
2.40905e-55
2.40893e-55
2.40897e-55
2.40717e-55
1.47566e-51
1.47643e-51
1.47637e-51
1.47631e-51
1.47636e-51
1.47529e-51
7.27006e-48
7.27387e-48
7.27357e-48
7.27333e-48
7.27367e-48
7.26858e-48
3.03977e-44
3.04136e-44
3.04125e-44
3.04116e-44
3.04136e-44
3.03929e-44
1.14944e-40
1.15004e-40
1.15001e-40
1.14999e-40
1.15009e-40
1.14935e-40
3.84209e-37
3.84408e-37
3.84409e-37
3.84417e-37
3.84472e-37
3.84257e-37
8.68552e-34
8.69078e-34
8.69139e-34
8.6921e-34
8.69392e-34
8.68962e-34
1.44046e-72
1.44125e-72
1.44119e-72
1.44115e-72
1.44121e-72
1.44023e-72
7.62668e-68
7.6304e-68
7.6299e-68
7.62957e-68
7.62989e-68
7.62467e-68
1.92269e-63
1.92358e-63
1.92347e-63
1.92341e-63
1.92353e-63
1.92229e-63
3.01935e-59
3.02072e-59
3.0206e-59
3.02057e-59
3.02084e-59
3.019e-59
3.26609e-55
3.26758e-55
3.2675e-55
3.26752e-55
3.26787e-55
3.26598e-55
2.55887e-51
2.56005e-51
2.56001e-51
2.56004e-51
2.56035e-51
2.5589e-51
1.49513e-47
1.49584e-47
1.49582e-47
1.49584e-47
1.49602e-47
1.49518e-47
6.62515e-44
6.62828e-44
6.62819e-44
6.62827e-44
6.62912e-44
6.62543e-44
2.23213e-40
2.23318e-40
2.23316e-40
2.2332e-40
2.23351e-40
2.23229e-40
5.89288e-37
5.89576e-37
5.89579e-37
5.89596e-37
5.8969e-37
5.89381e-37
1.41887e-33
1.41963e-33
1.41967e-33
1.41974e-33
1.42001e-33
1.41931e-33
2.16543e-30
2.16682e-30
2.16702e-30
2.16724e-30
2.16777e-30
2.16675e-30
3.2778e-69
3.27931e-69
3.27911e-69
3.27904e-69
3.27927e-69
3.2772e-69
1.89565e-64
1.89643e-64
1.89628e-64
1.89622e-64
1.89636e-64
1.89516e-64
5.16318e-60
5.16525e-60
5.16493e-60
5.16485e-60
5.16533e-60
5.16223e-60
8.6038e-56
8.60727e-56
8.60689e-56
8.6069e-56
8.60789e-56
8.60298e-56
9.61683e-52
9.62083e-52
9.62052e-52
9.62066e-52
9.62192e-52
9.61663e-52
7.50873e-48
7.51196e-48
7.51177e-48
7.51193e-48
7.51299e-48
7.50893e-48
4.1936e-44
4.19543e-44
4.19535e-44
4.19545e-44
4.19607e-44
4.19383e-44
1.71898e-40
1.71974e-40
1.71971e-40
1.71976e-40
1.72003e-40
1.71913e-40
5.41513e-37
5.41755e-37
5.41754e-37
5.41774e-37
5.41868e-37
5.41592e-37
1.38728e-33
1.38793e-33
1.38796e-33
1.38804e-33
1.38832e-33
1.38764e-33
2.9301e-30
2.93164e-30
2.9318e-30
2.93206e-30
2.93276e-30
2.9314e-30
2.78963e-27
2.79143e-27
2.79172e-27
2.79209e-27
2.79287e-27
2.79162e-27
0.999985
0.999985
0.999985
0.999985
0.999985
0.999985
0.914442
0.914444
0.914444
0.914443
0.914443
0.914446
0.420065
0.420068
0.420068
0.420067
0.420067
0.420073
0.827175
0.827178
0.827177
0.827177
0.827177
0.827181
0.0870536
0.0870563
0.0870554
0.0870551
0.0870554
0.087058
1.48893e-25
1.32349e-25
1.65436e-25
1.48893e-25
1.8198e-25
1.65436e-25
0.0503314
0.050332
0.0503315
0.0503317
0.0503326
0.0503349
2.74693e-09
2.75187e-09
2.75284e-09
2.75201e-09
2.75159e-09
2.75154e-09
-1.80014e-12
-1.80369e-12
-1.80381e-12
-1.80339e-12
-1.80359e-12
-1.80292e-12
1.57531e-06
1.57551e-06
1.57547e-06
1.57547e-06
1.57553e-06
1.57535e-06
1.63261e-07
1.6348e-07
1.63551e-07
1.63477e-07
1.63437e-07
1.63434e-07
1.12485e-07
1.12808e-07
1.12862e-07
1.12787e-07
1.1276e-07
1.12698e-07
2.92508e-07
2.92466e-07
2.92522e-07
2.92505e-07
2.92401e-07
2.92277e-07
0.000122947
0.000122947
0.000122948
0.000122948
0.000122948
0.000122949
3.38426e-06
3.38754e-06
3.388e-06
3.38721e-06
3.38706e-06
3.38686e-06
1.50446e-09
1.50441e-09
1.50433e-09
1.50416e-09
1.50394e-09
1.50387e-09
6.1845e-11
3.09616e-11
3.09603e-11
3.09602e-11
3.09569e-11
7.48257e-11
2.29032e-09
2.28613e-09
2.28124e-09
2.28238e-09
2.28996e-09
2.2753e-09
-3.00792e-10
-3.00837e-10
-3.00842e-10
-3.00829e-10
-3.00758e-10
-3.00694e-10
3.96153e-13
3.96311e-13
3.96298e-13
3.96309e-13
3.96279e-13
3.96062e-13
2.41804e-19
2.42038e-19
2.42332e-19
2.42294e-19
2.41772e-19
2.42618e-19
1.18261e-09
1.18292e-09
1.18288e-09
1.18286e-09
1.18274e-09
1.18231e-09
2.65611e-11
2.65699e-11
2.65687e-11
2.6569e-11
2.6567e-11
2.65555e-11
1.89493e-12
1.89646e-12
1.89611e-12
1.8967e-12
1.89663e-12
1.89485e-12
9.52416e-09
9.52656e-09
9.52572e-09
9.52501e-09
9.52522e-09
9.5214e-09
1.6692e-10
1.66984e-10
1.6697e-10
1.66959e-10
1.66958e-10
1.66873e-10
9.74283e-12
9.74436e-12
9.74343e-12
9.74351e-12
9.74621e-12
9.74133e-12
1.4103e-10
1.41098e-10
1.41112e-10
1.4115e-10
1.41231e-10
1.4119e-10
6.91779e-12
6.92046e-12
6.92085e-12
6.92225e-12
6.92559e-12
6.92329e-12
1.76091e-13
1.76164e-13
1.76173e-13
1.76209e-13
1.76298e-13
1.76232e-13
3.82919e-12
3.83204e-12
3.83265e-12
3.83365e-12
3.83546e-12
3.83466e-12
2.2601e-13
2.26054e-13
2.26067e-13
2.26101e-13
2.26176e-13
2.26132e-13
8.90667e-15
8.90918e-15
8.90973e-15
8.91138e-15
8.91537e-15
8.91244e-15
2.99888e-13
3.00089e-13
3.00181e-13
3.00277e-13
3.00344e-13
3.00448e-13
2.44496e-14
2.44637e-14
2.4467e-14
2.4473e-14
2.4485e-14
2.4478e-14
3.15112e-16
3.15277e-16
3.15304e-16
3.15375e-16
3.15548e-16
3.15403e-16
4.57153e-22
4.57436e-22
4.57487e-22
4.57568e-22
4.5773e-22
4.5754e-22
1.2624e-23
1.26312e-23
1.26325e-23
1.26346e-23
1.26388e-23
1.26336e-23
1.10914e-25
1.10974e-25
1.10984e-25
1.11001e-25
1.11036e-25
1.10989e-25
3.96678e-20
3.96937e-20
3.96984e-20
3.97061e-20
3.97212e-20
3.97051e-20
1.36432e-21
1.36513e-21
1.36528e-21
1.36553e-21
1.36601e-21
1.36546e-21
1.6912e-23
1.69214e-23
1.69231e-23
1.69259e-23
1.69316e-23
1.69247e-23
2.39831e-18
2.39994e-18
2.40024e-18
2.40073e-18
2.40171e-18
2.40078e-18
9.994e-20
1.00001e-19
1.00013e-19
1.00032e-19
1.0007e-19
1.00032e-19
1.72422e-21
1.72522e-21
1.7254e-21
1.72571e-21
1.72632e-21
1.72564e-21
5.47696e-17
5.48061e-17
5.48129e-17
5.48241e-17
5.48468e-17
5.4827e-17
4.83668e-18
4.83979e-18
4.84035e-18
4.84133e-18
4.84327e-18
4.84151e-18
1.16639e-19
1.16709e-19
1.16722e-19
1.16744e-19
1.16788e-19
1.16745e-19
1.90047e-16
1.90167e-16
1.90187e-16
1.90224e-16
1.90297e-16
1.90233e-16
5.95747e-17
5.96094e-17
5.96154e-17
5.96259e-17
5.96471e-17
5.96288e-17
5.22112e-18
5.22433e-18
5.22491e-18
5.22595e-18
5.22805e-18
5.22623e-18
1.91639e-15
1.9178e-15
1.91802e-15
1.91843e-15
1.91926e-15
1.91857e-15
1.38967e-15
1.39082e-15
1.39101e-15
1.39132e-15
1.39191e-15
1.39142e-15
4.25201e-17
4.25349e-17
4.25378e-17
4.25431e-17
4.25539e-17
4.25453e-17
8.42155e-66
8.42569e-66
8.42588e-66
8.42661e-66
8.42834e-66
8.4243e-66
5.26266e-69
5.26522e-69
5.2653e-69
5.26576e-69
5.26687e-69
5.26433e-69
7.2683e-73
7.27176e-73
7.27182e-73
7.27245e-73
7.27398e-73
7.27039e-73
6.68232e-61
6.68532e-61
6.68539e-61
6.68588e-61
6.68722e-61
6.68387e-61
5.71497e-64
5.71753e-64
5.71757e-64
5.718e-64
5.71916e-64
5.71628e-64
9.08602e-68
9.09003e-68
9.09006e-68
9.09076e-68
9.0926e-68
9.088e-68
2.48141e-56
2.48252e-56
2.48258e-56
2.48279e-56
2.48331e-56
2.48212e-56
2.9873e-59
2.98862e-59
2.98869e-59
2.98895e-59
2.98958e-59
2.98814e-59
5.78324e-63
5.78577e-63
5.78586e-63
5.78636e-63
5.78758e-63
5.78478e-63
5.56666e-52
5.56917e-52
5.56937e-52
5.5699e-52
5.57114e-52
5.56855e-52
9.5524e-55
9.5567e-55
9.557e-55
9.55791e-55
9.56003e-55
9.55554e-55
2.36666e-58
2.36771e-58
2.36777e-58
2.368e-58
2.36852e-58
2.36741e-58
8.18411e-48
8.18791e-48
8.18825e-48
8.18907e-48
8.19094e-48
8.18718e-48
1.99886e-50
1.99977e-50
1.99984e-50
2.00004e-50
2.00049e-50
1.99956e-50
6.62142e-54
6.62442e-54
6.62463e-54
6.62528e-54
6.62677e-54
6.62368e-54
8.0596e-44
8.06343e-44
8.06379e-44
8.06463e-44
8.06652e-44
8.06281e-44
2.76229e-46
2.76357e-46
2.76367e-46
2.76395e-46
2.76459e-46
2.7633e-46
1.27217e-49
1.27275e-49
1.27279e-49
1.27291e-49
1.2732e-49
1.2726e-49
5.24643e-40
5.24896e-40
5.24922e-40
5.24979e-40
5.25106e-40
5.24865e-40
2.46871e-42
2.46987e-42
2.46997e-42
2.47022e-42
2.47081e-42
2.46967e-42
1.63788e-45
1.63862e-45
1.63868e-45
1.63884e-45
1.63921e-45
1.63845e-45
2.16755e-36
2.16861e-36
2.16873e-36
2.16897e-36
2.16952e-36
2.16853e-36
1.37511e-38
1.37575e-38
1.37582e-38
1.37597e-38
1.37631e-38
1.37569e-38
1.35645e-41
1.35707e-41
1.35712e-41
1.35726e-41
1.35758e-41
1.35695e-41
5.36393e-33
5.36661e-33
5.36695e-33
5.36759e-33
5.36902e-33
5.36662e-33
4.57842e-35
4.58062e-35
4.58087e-35
4.58142e-35
4.58262e-35
4.58058e-35
6.8715e-38
6.87468e-38
6.875e-38
6.87576e-38
6.87747e-38
6.8744e-38
7.52678e-30
7.53069e-30
7.53124e-30
7.53223e-30
7.53436e-30
7.53104e-30
8.71112e-32
8.71542e-32
8.71601e-32
8.71714e-32
8.71957e-32
8.71577e-32
2.01429e-34
2.01525e-34
2.01537e-34
2.01561e-34
2.01615e-34
2.01527e-34
5.79372e-27
5.79691e-27
5.79742e-27
5.79826e-27
5.80003e-27
5.79752e-27
9.00614e-29
9.01079e-29
9.01152e-29
9.0128e-29
9.01547e-29
9.01161e-29
3.23119e-31
3.23278e-31
3.23301e-31
3.23344e-31
3.23435e-31
3.23295e-31
2.29857e-24
2.29991e-24
2.30015e-24
2.30052e-24
2.30127e-24
2.30029e-24
4.77034e-26
4.77292e-26
4.77336e-26
4.7741e-26
4.77559e-26
4.77357e-26
2.70532e-28
2.70672e-28
2.70694e-28
2.70733e-28
2.70813e-28
2.70696e-28
)
;

boundaryField
{
    seabed_topleft_surface
    {
        type            zeroGradient;
    }
    seabed_topright_surface
    {
        type            zeroGradient;
    }
    breakwater_top_surface
    {
        type            zeroGradient;
    }
    breakwater_left_surface
    {
        type            zeroGradient;
    }
    breakwater_right_surface
    {
        type            zeroGradient;
    }
    water_front_surface
    {
        type            zeroGradient;
    }
    water_back_surface
    {
        type            zeroGradient;
    }
    water_left_surface
    {
        type            zeroGradient;
    }
    water_right_surface
    {
        type            zeroGradient;
    }
    water_top_surface
    {
        type            inletOutlet;
        inletValue      uniform 0;
        value           nonuniform List<scalar> 
180
(
0.420065
0.420068
0.420068
0.420067
0.420067
0.420073
0
0
0
0
0
0
0
0
0
0
0
0
0
0
0
0
0
0
0
0
0
0
0
0
0
0
0
0
0
0
0
0
0
0
0
0
1.89493e-12
1.89646e-12
1.89611e-12
1.8967e-12
1.89663e-12
1.89485e-12
9.74283e-12
9.74436e-12
9.74343e-12
9.74351e-12
9.74621e-12
9.74133e-12
1.76091e-13
1.76164e-13
1.76173e-13
1.76209e-13
1.76298e-13
1.76232e-13
8.90667e-15
8.90918e-15
8.90973e-15
8.91138e-15
8.91537e-15
8.91244e-15
3.15112e-16
3.15277e-16
3.15304e-16
3.15375e-16
3.15548e-16
3.15403e-16
1.10914e-25
1.10974e-25
1.10984e-25
1.11001e-25
1.11036e-25
1.10989e-25
1.6912e-23
1.69214e-23
1.69231e-23
1.69259e-23
1.69316e-23
1.69247e-23
1.72422e-21
1.72522e-21
1.7254e-21
1.72571e-21
1.72632e-21
1.72564e-21
1.16639e-19
1.16709e-19
1.16722e-19
1.16744e-19
1.16788e-19
1.16745e-19
5.22112e-18
5.22433e-18
5.22491e-18
5.22595e-18
5.22805e-18
5.22623e-18
4.25201e-17
4.25349e-17
4.25378e-17
4.25431e-17
4.25539e-17
4.25453e-17
7.2683e-73
7.27176e-73
7.27182e-73
7.27245e-73
7.27398e-73
7.27039e-73
9.08602e-68
9.09003e-68
9.09006e-68
9.09076e-68
9.0926e-68
9.088e-68
5.78324e-63
5.78577e-63
5.78586e-63
5.78636e-63
5.78758e-63
5.78478e-63
2.36666e-58
2.36771e-58
2.36777e-58
2.368e-58
2.36852e-58
2.36741e-58
6.62142e-54
6.62442e-54
6.62463e-54
6.62528e-54
6.62677e-54
6.62368e-54
1.27217e-49
1.27275e-49
1.27279e-49
1.27291e-49
1.2732e-49
1.2726e-49
1.63788e-45
1.63862e-45
1.63868e-45
1.63884e-45
1.63921e-45
1.63845e-45
1.35645e-41
1.35707e-41
1.35712e-41
1.35726e-41
1.35758e-41
1.35695e-41
6.8715e-38
6.87468e-38
6.875e-38
6.87576e-38
6.87747e-38
6.8744e-38
2.01429e-34
2.01525e-34
2.01537e-34
2.01561e-34
2.01615e-34
2.01527e-34
3.23119e-31
3.23278e-31
3.23301e-31
3.23344e-31
3.23435e-31
3.23295e-31
2.70532e-28
2.70672e-28
2.70694e-28
2.70733e-28
2.70813e-28
2.70696e-28
)
;
    }
}


// ************************************************************************* //
