/*--------------------------------*- C++ -*----------------------------------*\
| =========                 |                                                 |
| \\      /  F ield         | OpenFOAM: The Open Source CFD Toolbox           |
|  \\    /   O peration     | Version:  v1612+                                |
|   \\  /    A nd           | Web:      www.OpenFOAM.com                      |
|    \\/     M anipulation  |                                                 |
\*---------------------------------------------------------------------------*/
FoamFile
{
    version     2.0;
    format      ascii;
    class       volScalarField;
    location    "0.55";
    object      p;
}
// * * * * * * * * * * * * * * * * * * * * * * * * * * * * * * * * * * * * * //

dimensions      [1 -1 -2 0 0 0 0];

internalField   nonuniform List<scalar> 
320
(
14724.8
14724.8
14724.8
14724.8
4.90972
4.9101
4.91194
4.90897
4.90913
4.90965
4.90967
4.91026
4.90891
4.91076
4.90988
4.91227
4914.8
4914.76
4914.84
4914.78
4914.76
4914.83
4914.78
4914.76
4914.75
4914.82
4914.76
4914.85
14724.8
14724.8
14724.8
14724.8
14724.8
14724.8
14724.8
14724.8
14724.8
14724.8
14724.8
14724.8
24534.8
24534.8
24534.8
24534.8
24534.8
24534.8
24534.8
24534.8
24534.8
24534.8
24534.8
24534.8
24534.8
24534.8
24534.8
24534.8
4.90936
4.90986
4.91
4.90902
4.90964
4.90876
4.90972
4.90983
4.90928
4.90949
4.90979
4.90953
4.91146
4.91064
4.91074
4.91254
4.91378
4.9096
4.90939
4.90963
4914.82
4914.78
4914.79
4914.78
4914.82
4914.82
4914.78
4914.82
4914.82
4914.8
4914.82
4914.82
4914.81
4914.77
4914.82
4914.83
4914.85
4914.78
4914.82
4914.82
14724.8
14724.8
14724.8
14724.8
14724.8
14724.8
14724.8
14724.8
14724.8
14724.8
14724.8
14724.8
14724.8
14724.8
14724.8
14724.8
14724.8
14724.8
14724.8
14724.8
24534.8
24534.8
24534.8
24534.8
24534.8
24534.8
24534.8
24534.8
24534.8
24534.8
24534.8
24534.8
24534.8
24534.8
24534.8
24534.8
24534.8
24534.8
24534.8
24534.8
34344.8
34344.8
34344.8
34344.8
34344.8
34344.8
34344.8
34344.8
34344.8
34344.8
34344.8
34344.8
34344.8
34344.8
34344.8
34344.8
34344.8
34344.8
34344.8
34344.8
34344.8
34344.8
34344.8
34344.8
34344.8
34344.8
34344.8
34344.8
34344.8
34344.8
34344.8
34344.8
34344.8
34344.8
34344.8
34344.8
4.90934
4.9105
4.91105
4.91038
4.9099
4.90977
4.90975
4.909
4.90938
4.90959
4.90983
4.9092
4.91026
4.91001
4.91021
4.91057
4.91027
4.91205
4.91259
4.91162
4.91122
4.91155
4.91125
4.91
4.90958
4.90937
4.90881
4.90921
4914.82
4914.83
4914.79
4914.79
4914.78
4914.77
4914.82
4914.77
4914.78
4914.78
4914.82
4914.8
4914.79
4914.79
4914.82
4914.81
4914.78
4914.81
4914.81
4914.79
4914.82
4914.77
4914.78
4914.79
4914.82
4914.81
4914.81
4914.76
14724.8
14724.8
14724.8
14724.8
14724.8
14724.8
14724.8
14724.8
14724.8
14724.8
14724.8
14724.8
14724.8
14724.8
14724.8
14724.8
14724.8
14724.8
14724.8
14724.8
14724.8
14724.8
14724.8
14724.8
14724.8
14724.8
14724.8
14724.8
24534.8
24534.8
24534.8
24534.8
24534.8
24534.8
24534.8
24534.8
24534.8
24534.8
24534.8
24534.8
24534.8
24534.8
24534.8
24534.8
24534.8
24534.8
24534.8
24534.8
24534.8
24534.8
24534.8
24534.8
24534.8
24534.8
24534.8
24534.8
34344.8
34344.8
34344.8
34344.8
34344.8
34344.8
34344.8
34344.8
34344.8
34344.8
34344.8
34344.8
34344.8
34344.8
34344.8
34344.8
34344.8
34344.8
34344.8
34344.8
34344.8
34344.8
34344.8
34344.8
34344.8
34344.8
34344.8
34344.8
4.90973
4.90977
4.90991
4.90983
4914.78
4914.78
4914.77
4914.77
)
;

boundaryField
{
    top_fluid_surface
    {
        type            calculated;
        value           nonuniform List<scalar> 
64
(
0
0
-4.15942e-11
0
0
-3.46406e-09
0
0
-8.68833e-10
-7.04684e-10
0
-2.44474e-10
-1.03282e-10
0
0
0
-1.53549e-10
-3.83638e-10
0
-8.89381e-11
-3.54277e-10
-1.67426e-10
-8.3024e-10
-3.96101e-10
-1.71295e-09
0
0
-4.21205e-09
-9.7933e-11
0
-1.61172e-10
-2.3293e-10
-4.42937e-11
-2.61117e-10
0
0
0
0
-4.90035e-09
0
0
0
-2.12506e-09
-3.94963e-10
-1.17682e-11
-2.14782e-11
-8.76714e-12
0
0
-1.591e-09
-1.59301e-09
0
0
0
0
0
-1.26623e-10
-2.74025e-09
-2.88121e-10
0
0
0
0
0
)
;
    }
    bottom_fluid_surface
    {
        type            calculated;
        value           nonuniform List<scalar> 
64
(
39249.8
39249.8
39249.8
39249.8
39249.8
39249.8
39249.8
39249.8
39249.8
39249.8
39249.8
39249.8
39249.8
39249.8
39249.8
39249.8
39249.8
39249.8
39249.8
39249.8
39249.8
39249.8
39249.8
39249.8
39249.8
39249.8
39249.8
39249.8
39249.8
39249.8
39249.8
39249.8
39249.8
39249.8
39249.8
39249.8
39249.8
39249.8
39249.8
39249.8
39249.8
39249.8
39249.8
39249.8
39249.8
39249.8
39249.8
39249.8
39249.8
39249.8
39249.8
39249.8
39249.8
39249.8
39249.8
39249.8
39249.8
39249.8
39249.8
39249.8
39249.8
39249.8
39249.8
39249.8
)
;
    }
    lateral_surface_1
    {
        type            calculated;
        value           nonuniform List<scalar> 
40
(
4.90934
4.9105
4.91105
4.91038
4.9099
4.90977
4.90975
4.90921
4914.82
4914.83
4914.79
4914.79
4914.78
4914.77
4914.82
4914.76
14724.8
14724.8
14724.8
14724.8
14724.8
14724.8
14724.8
14724.8
24534.8
24534.8
24534.8
24534.8
24534.8
24534.8
24534.8
24534.8
34344.8
34344.8
34344.8
34344.8
34344.8
34344.8
34344.8
34344.8
)
;
    }
    lateral_surface_2
    {
        type            calculated;
        value           nonuniform List<scalar> 
40
(
4.91001
4.91021
4.91057
4.91027
4.91205
4.91259
4.91162
4.91122
4914.79
4914.82
4914.81
4914.78
4914.81
4914.81
4914.79
4914.82
14724.8
14724.8
14724.8
14724.8
14724.8
14724.8
14724.8
14724.8
24534.8
24534.8
24534.8
24534.8
24534.8
24534.8
24534.8
24534.8
34344.8
34344.8
34344.8
34344.8
34344.8
34344.8
34344.8
34344.8
)
;
    }
    lateral_surface_3
    {
        type            calculated;
        value           nonuniform List<scalar> 
40
(
4.90975
4.909
4.90938
4.90959
4.90983
4.9092
4.91026
4.91001
4914.82
4914.77
4914.78
4914.78
4914.82
4914.8
4914.79
4914.79
14724.8
14724.8
14724.8
14724.8
14724.8
14724.8
14724.8
14724.8
24534.8
24534.8
24534.8
24534.8
24534.8
24534.8
24534.8
24534.8
34344.8
34344.8
34344.8
34344.8
34344.8
34344.8
34344.8
34344.8
)
;
    }
    lateral_surface_4
    {
        type            calculated;
        value           nonuniform List<scalar> 
40
(
4.91122
4.91155
4.91125
4.91
4.90958
4.90937
4.90881
4.90921
4914.82
4914.77
4914.78
4914.79
4914.82
4914.81
4914.81
4914.76
14724.8
14724.8
14724.8
14724.8
14724.8
14724.8
14724.8
14724.8
24534.8
24534.8
24534.8
24534.8
24534.8
24534.8
24534.8
24534.8
34344.8
34344.8
34344.8
34344.8
34344.8
34344.8
34344.8
34344.8
)
;
    }
}


// ************************************************************************* //
