/*--------------------------------*- C++ -*----------------------------------*\
| =========                 |                                                 |
| \\      /  F ield         | OpenFOAM: The Open Source CFD Toolbox           |
|  \\    /   O peration     | Version:  v1612+                                |
|   \\  /    A nd           | Web:      www.OpenFOAM.com                      |
|    \\/     M anipulation  |                                                 |
\*---------------------------------------------------------------------------*/
FoamFile
{
    version     2.0;
    format      ascii;
    class       volScalarField;
    location    "2.85";
    object      alpha.water;
}
// * * * * * * * * * * * * * * * * * * * * * * * * * * * * * * * * * * * * * //

dimensions      [0 0 0 0 0 0 0];

internalField   nonuniform List<scalar> 
320
(
1
1
1
1
8.73648e-06
6.56699e-06
6.58025e-06
7.89088e-06
6.73007e-06
7.14275e-06
7.74778e-06
8.18915e-06
7.72981e-06
6.87296e-06
6.85682e-06
8.12516e-06
0.999989
0.99999
0.999991
0.999993
0.999997
0.999988
0.999993
0.999994
0.999987
0.99999
0.999995
0.999997
1
1
1
1
1
1
1
1
1
1
1
1
1
1
1
1
1
1
1
1
1
1
1
1
1
1
1
1
7.29594e-06
7.83243e-06
6.96603e-06
7.41747e-06
6.79687e-06
6.56825e-06
7.64554e-06
5.67871e-06
7.46117e-06
8.33343e-06
7.66481e-06
6.30014e-06
7.47196e-06
7.54737e-06
7.35886e-06
6.54525e-06
7.28939e-06
7.32532e-06
8.07518e-06
6.91844e-06
0.999999
0.999989
0.99999
0.999992
0.999994
0.999998
0.999995
1
0.999995
0.999992
0.999993
0.999997
0.999986
0.999996
0.999994
0.999994
0.999996
0.999997
0.999997
0.999994
1
1
1
1
1
1
1
1
1
1
1
1
1
1
1
1
1
1
1
1
1
1
1
1
1
1
1
1
1
1
1
1
1
1
1
1
1
1
1
1
1
1
1
1
1
1
1
1
1
1
1
1
1
1
1
1
1
1
1
1
1
1
1
1
1
1
1
1
1
1
1
1
1
1
1
1
7.09654e-06
5.67619e-06
6.94938e-06
5.81765e-06
7.47672e-06
7.60534e-06
7.51618e-06
8.29619e-06
7.05302e-06
6.33807e-06
7.65174e-06
8.97298e-06
6.33221e-06
6.33221e-06
7.37599e-06
6.04453e-06
7.00283e-06
6.46267e-06
7.97992e-06
7.83695e-06
9.44165e-06
7.04678e-06
6.14177e-06
7.32466e-06
7.78097e-06
6.43388e-06
7.44134e-06
6.83098e-06
0.999989
0.999996
0.999987
0.999997
0.999997
0.999991
0.999988
0.999989
0.999994
0.99999
0.999987
0.999992
0.999998
0.999993
0.99999
0.999993
0.999991
0.999993
0.99999
0.999994
0.999992
0.999994
0.999996
0.999987
0.999993
0.999994
0.999992
0.999991
1
1
1
1
1
1
1
1
1
1
1
1
1
1
1
1
1
1
1
1
1
1
1
1
1
1
1
1
1
1
1
1
1
1
1
1
1
1
1
1
1
1
1
1
1
1
1
1
1
1
1
1
1
1
1
1
1
1
1
1
1
1
1
1
1
1
1
1
1
1
1
1
1
1
1
1
1
1
1
1
1
1
1
1
6.84743e-06
5.58316e-06
5.24942e-06
5.93413e-06
0.99999
0.999995
0.999996
0.999994
)
;

boundaryField
{
    top_fluid_surface
    {
        type            inletOutlet;
        inletValue      uniform 0;
        value           nonuniform List<scalar> 
64
(
0
0
6.58025e-06
0
6.73007e-06
7.14275e-06
7.74778e-06
0
0
6.87296e-06
6.85682e-06
0
7.29594e-06
0
0
0
6.79687e-06
6.56825e-06
7.64554e-06
5.67871e-06
0
0
0
6.30014e-06
0
0
0
6.54525e-06
7.28939e-06
7.32532e-06
0
6.91844e-06
0
5.67619e-06
0
5.81765e-06
7.47672e-06
7.60534e-06
0
0
7.05302e-06
6.33807e-06
0
0
6.33221e-06
6.33221e-06
0
6.04453e-06
0
6.46267e-06
0
0
0
0
6.14177e-06
0
0
6.43388e-06
0
0
0
5.58316e-06
5.24942e-06
5.93413e-06
)
;
    }
    bottom_fluid_surface
    {
        type            zeroGradient;
    }
    lateral_surface_1
    {
        type            zeroGradient;
    }
    lateral_surface_2
    {
        type            zeroGradient;
    }
    lateral_surface_3
    {
        type            zeroGradient;
    }
    lateral_surface_4
    {
        type            zeroGradient;
    }
}


// ************************************************************************* //
