/*--------------------------------*- C++ -*----------------------------------*\
| =========                 |                                                 |
| \\      /  F ield         | OpenFOAM: The Open Source CFD Toolbox           |
|  \\    /   O peration     | Version:  v1612+                                |
|   \\  /    A nd           | Web:      www.OpenFOAM.com                      |
|    \\/     M anipulation  |                                                 |
\*---------------------------------------------------------------------------*/
FoamFile
{
    version     2.0;
    format      ascii;
    class       surfaceScalarField;
    location    "2.85";
    object      alphaPhi;
}
// * * * * * * * * * * * * * * * * * * * * * * * * * * * * * * * * * * * * * //

dimensions      [0 3 -1 0 0 0 0];

internalField   nonuniform List<scalar> 
816
(
-2.8251e-06
-1.26794e-08
1.81091e-06
2.27351e-06
2.92037e-06
-4.13196e-06
1.66277e-06
5.97462e-07
1.81046e-07
5.23007e-06
-1.04913e-05
-1.59349e-06
3.12072e-06
1.95964e-06
2.87296e-06
-6.36809e-06
-1.80008e-06
3.02204e-06
4.22647e-07
-1.56028e-06
1.36472e-09
-1.35771e-10
-2.78225e-06
8.1583e-13
1.42511e-09
3.71488e-10
4.91467e-06
2.51707e-10
2.34896e-10
3.62663e-11
1.90953e-06
-2.84237e-10
1.25258e-10
1.14353e-10
-2.59577e-06
-7.71078e-11
9.64659e-10
-6.36907e-10
-5.32665e-06
-5.90375e-10
5.6653e-10
3.19123e-10
-5.33869e-06
-1.02896e-09
-4.67965e-11
-1.04453e-10
-9.924e-06
-6.44596e-10
1.74613e-09
1.50919e-10
-2.57637e-06
-5.25525e-10
1.46014e-09
1.12742e-09
-2.58166e-06
-7.37871e-10
5.22818e-10
7.3546e-10
3.38248e-06
-1.04692e-09
1.06339e-09
3.52953e-10
-1.95639e-06
-2.33489e-10
1.43601e-10
-1.94399e-06
1.39209e-09
8.99024e-11
-5.34751e-06
1.00517e-05
-1.27523e-05
-4.41039e-07
4.97964e-06
6.91781e-06
-7.69031e-06
2.42482e-06
9.96915e-06
5.62088e-06
-9.31957e-07
8.03522e-07
9.83506e-06
2.22107e-06
2.52813e-06
3.92525e-06
-5.14772e-06
-4.12348e-06
2.36359e-06
-6.73873e-06
-4.84578e-07
6.74723e-06
-9.01702e-06
-7.92103e-06
-1.87499e-07
-1.65581e-06
-6.3988e-06
-6.05273e-06
1.04662e-06
-2.48881e-06
-9.47638e-07
-4.4412e-06
3.00045e-07
3.46418e-07
-1.65783e-05
2.77118e-06
5.529e-06
7.10008e-06
-2.4656e-06
3.3502e-06
3.90396e-06
6.35491e-06
-3.32002e-06
7.382e-06
-5.60966e-06
6.31622e-06
5.80092e-06
7.85131e-07
-8.17099e-07
-3.07872e-06
-6.41496e-06
-6.45419e-07
-2.84385e-06
-3.30065e-06
-1.74866e-06
3.89676e-07
-2.8598e-09
-2.05155e-06
-2.09088e-06
1.069e-06
6.20244e-07
1.42272e-06
1.56392e-06
5.47952e-07
-4.67731e-07
2.51548e-06
-3.75647e-06
-4.49635e-06
-1.6969e-06
2.37292e-06
-3.04382e-06
-1.91358e-07
3.18144e-06
-1.79361e-06
3.18966e-06
-3.00924e-06
-7.64664e-06
-4.52124e-07
-2.30669e-06
-3.73507e-06
-1.27422e-06
1.51142e-06
-4.18303e-06
-2.04748e-06
1.44434e-06
1.85801e-06
-2.4092e-06
-3.76572e-07
-1.7723e-06
6.9715e-07
1.11238e-06
2.13264e-06
7.53641e-07
1.36407e-06
1.00371e-07
3.88227e-07
1.62405e-06
-9.53204e-07
2.51789e-06
1.64031e-06
3.67875e-07
-1.24773e-06
1.78257e-06
3.21208e-07
-1.02816e-06
-1.20191e-06
-1.27417e-06
-1.78475e-06
-1.80682e-06
-1.69394e-06
-6.49742e-07
7.42758e-07
-1.42468e-06
-1.04633e-06
-3.17387e-08
8.31278e-07
7.38193e-07
2.07879e-07
6.02676e-07
-5.14777e-07
7.02657e-08
2.05514e-06
-2.85731e-06
-1.25259e-06
-1.07895e-06
1.82821e-06
-3.13902e-07
-7.04257e-07
1.83791e-06
1.55646e-06
-8.32298e-07
-1.86444e-06
1.83325e-09
-1.27821e-06
-2.65933e-06
-2.00455e-06
1.03714e-06
-5.14968e-07
-2.51442e-06
1.25121e-06
-6.40047e-07
-2.2738e-06
-2.6577e-07
6.93563e-07
-1.67242e-10
-3.46575e-10
-4.25695e-06
1.51041e-09
1.62055e-10
-3.6695e-06
4.03229e-10
-5.88539e-10
3.84076e-06
9.97123e-10
-3.46797e-10
2.83158e-06
1.08841e-10
1.7863e-10
2.58217e-06
-6.96229e-11
-1.05349e-09
-4.47057e-11
-4.31957e-06
-1.09316e-10
-3.3045e-10
-1.01003e-05
2.85739e-10
-2.20092e-09
-3.68685e-06
-1.31773e-09
-1.58818e-09
6.40723e-06
-1.36276e-09
8.03407e-10
1.70702e-06
3.46028e-10
-3.9091e-10
8.65501e-10
-3.88551e-06
8.25029e-10
-5.26449e-10
-3.56274e-06
-8.29446e-10
-8.87247e-10
-3.27685e-06
2.58023e-10
-5.49521e-10
-9.3739e-07
-7.60306e-10
1.3125e-09
-7.57411e-07
-1.15273e-09
-4.9778e-10
4.59905e-10
-4.25887e-06
2.37959e-10
-2.85006e-10
-2.3889e-06
-4.80948e-10
-5.96835e-10
-5.37293e-06
-3.506e-10
-4.88691e-11
1.12627e-07
6.40533e-10
-6.44225e-07
5.88972e-11
-6.187e-10
-4.74325e-06
-9.81822e-06
9.79349e-06
-6.8691e-07
-5.30017e-06
-3.81705e-06
-4.51775e-06
-8.82417e-08
3.71662e-06
7.4004e-06
-6.36519e-07
8.41417e-06
8.46122e-06
7.24726e-06
1.34196e-05
3.40629e-07
-5.0584e-06
6.59305e-06
7.45068e-06
5.49954e-06
-4.97579e-06
1.43065e-06
-4.43429e-06
-1.43245e-05
1.68582e-05
-1.70323e-05
-1.22904e-05
1.5669e-05
-1.00586e-05
8.7534e-06
-9.77667e-06
5.37621e-07
-5.18377e-06
4.10035e-06
5.01719e-07
1.91974e-07
-4.33686e-06
5.06188e-06
-1.12288e-05
-2.99439e-07
-1.24119e-05
-2.42031e-06
-9.3952e-07
-2.49635e-07
2.62967e-06
7.84164e-06
-1.03571e-06
-4.4298e-06
-4.91681e-06
4.64537e-06
-3.87148e-06
4.12735e-06
1.83933e-06
1.88549e-06
3.81746e-07
-9.5912e-06
9.21165e-06
-1.92592e-06
-9.72252e-06
5.07031e-06
-4.58959e-06
-1.98725e-06
-7.20695e-06
-1.18895e-05
-3.33776e-07
3.34708e-06
4.41972e-06
-6.84155e-08
-2.14256e-06
-1.61938e-06
-1.01435e-06
-1.6152e-06
2.83975e-06
-1.35255e-06
1.84415e-06
3.98338e-06
-1.03444e-06
-8.70574e-07
6.1608e-06
4.06028e-06
5.95751e-06
-2.91763e-08
3.11308e-06
1.44205e-06
-1.62806e-06
4.42865e-07
4.051e-06
1.87746e-06
7.53108e-06
5.37121e-06
4.89505e-06
7.04257e-06
1.11612e-06
2.47594e-06
-4.88806e-06
-5.70143e-06
3.24166e-06
1.77142e-06
1.25536e-07
-7.02657e-07
4.30545e-06
2.46089e-06
-1.24503e-07
2.19489e-07
-5.57783e-06
4.65035e-07
-1.10305e-06
-7.43488e-07
1.42879e-06
-5.03552e-07
-8.52538e-07
4.64939e-07
-1.24813e-06
-2.45249e-06
-1.87872e-06
-2.35923e-06
-2.54459e-06
2.04848e-07
3.27764e-06
-1.99278e-07
3.68689e-06
4.63214e-06
1.0376e-06
1.32595e-06
2.13804e-06
-7.459e-07
-2.03158e-07
3.3573e-06
-6.76137e-07
2.09751e-06
1.3356e-06
-6.22883e-07
-1.48801e-06
-2.53396e-07
-1.80019e-06
-6.27229e-07
1.37301e-06
-1.05067e-06
1.30252e-06
1.20971e-06
-5.33618e-07
-8.05393e-08
1.81146e-06
2.16124e-06
3.62498e-06
1.32359e-07
1.01034e-06
8.7914e-07
-1.08406e-06
6.71544e-07
1.72493e-06
1.07904e-06
2.06594e-06
2.78841e-06
3.09604e-06
2.14528e-06
1.74456e-08
1.53559e-06
-6.90737e-07
-3.9518e-06
1.30329e-06
1.05126e-06
2.89292e-07
-9.18681e-07
3.01104e-06
5.72502e-07
-3.66867e-07
6.15789e-07
-1.72471e-06
1.19132e-07
-4.6163e-07
-3.19293e-07
6.19249e-07
-3.5467e-07
-2.95571e-07
1.97698e-07
-8.67737e-07
-1.55008e-06
-6.48838e-07
-1.29678e-06
-1.67091e-06
-6.21776e-08
1.43341e-06
-4.54139e-07
8.75537e-07
2.86542e-06
-4.50542e-07
4.67695e-07
6.01108e-07
-8.43534e-08
-1.08053e-06
2.15171e-06
-1.31955e-06
7.41912e-07
1.14193e-08
1.33776e-06
9.59801e-07
-4.10475e-07
-2.192e-07
-1.10146e-06
1.25851e-06
9.7415e-07
-9.50267e-07
1.16046e-06
-7.66077e-07
-2.57015e-07
-7.16316e-07
-7.97537e-07
-9.84022e-07
3.38597e-07
-6.41008e-07
-4.95164e-07
3.25081e-07
2.40925e-08
1.67203e-07
-7.01167e-07
1.44693e-06
-1.74874e-06
-5.96296e-07
1.64626e-06
2.80106e-07
1.43266e-06
6.64503e-07
-1.32122e-06
2.32816e-07
-1.27302e-07
-1.46897e-06
6.35518e-07
-1.63661e-06
8.95883e-07
-1.32727e-06
1.59777e-07
-6.03353e-07
1.17484e-06
-5.26469e-07
-1.01041e-06
-5.25923e-07
-1.99028e-07
-3.95298e-07
5.94843e-07
-1.93252e-07
-9.17236e-08
8.47422e-07
1.67775e-06
-1.23216e-08
4.53559e-07
-2.30287e-07
9.38406e-07
4.28503e-07
7.15933e-07
1.03472e-06
-1.91615e-07
1.40513e-06
-1.72087e-06
6.62957e-07
1.33607e-06
-2.21886e-07
2.0246e-06
1.81095e-07
7.00702e-07
2.78679e-07
1.07453e-07
5.13745e-07
-3.32458e-07
2.8479e-07
-1.36713e-07
-9.4335e-07
-1.46194e-07
-1.14454e-06
7.8063e-07
-7.55409e-07
1.396e-06
-5.96665e-07
4.85033e-07
-5.24413e-07
1.06712e-06
6.85757e-10
-4.28297e-10
2.85106e-06
-5.26194e-11
-9.49727e-07
2.33431e-10
3.07848e-06
-6.97607e-10
1.51701e-11
-6.21931e-10
-3.73633e-06
-4.17617e-10
-4.80461e-06
-8.7037e-11
1.02176e-07
7.73069e-10
9.74343e-09
-9.37259e-11
-9.44856e-06
-1.51114e-09
-7.42793e-06
-1.60014e-09
2.83692e-06
9.56334e-10
5.0901e-06
4.42618e-10
5.05932e-10
8.4398e-11
3.97505e-11
7.41868e-10
6.91685e-07
1.81933e-10
-2.18947e-06
-3.67438e-10
5.61917e-06
-1.25162e-09
-2.53657e-06
-1.20108e-09
-3.39715e-06
-1.85706e-09
1.77712e-06
2.87113e-09
3.03737e-06
1.81755e-09
4.07701e-06
3.71257e-10
-1.68483e-06
3.96059e-10
4.08206e-05
4.67776e-10
-5.8014e-06
4.3952e-12
-6.48968e-06
2.77029e-10
4.38715e-06
3.83906e-06
7.68307e-06
-8.42534e-06
1.32685e-06
-3.6485e-06
3.43045e-06
5.23517e-06
2.07091e-07
5.45346e-06
7.29903e-06
-3.52503e-06
9.54031e-06
-1.0458e-05
-8.54408e-06
4.20839e-06
-1.17637e-05
1.07294e-05
-1.06512e-05
-3.0535e-06
2.51886e-06
-1.61228e-05
-8.55233e-06
-3.5955e-06
-1.85457e-05
8.89586e-06
-2.3249e-06
1.90688e-06
2.18225e-05
-8.15641e-07
7.47956e-06
6.27115e-06
-8.56325e-06
1.05639e-06
2.39821e-06
3.33042e-06
6.80215e-06
3.2138e-06
-6.07464e-06
-4.76385e-06
-1.01826e-05
-5.8119e-06
5.64552e-07
7.74628e-06
-3.46727e-06
1.00227e-05
7.32694e-06
2.74648e-06
8.1253e-06
-4.31352e-06
-1.25041e-05
-6.06938e-06
-1.30055e-05
-1.1693e-05
-1.47278e-06
-3.25089e-06
-6.29835e-06
1.39549e-06
-1.30613e-06
1.08744e-06
1.34991e-06
3.75916e-08
2.05201e-06
-2.14788e-06
1.29916e-06
1.5413e-07
3.66947e-06
4.80323e-06
3.88961e-06
3.95913e-06
-3.61085e-06
-2.47421e-06
-5.30875e-06
-2.02119e-06
-5.10481e-06
1.26052e-06
7.10408e-07
2.39113e-07
-3.47555e-06
-5.00095e-06
-7.92443e-06
-6.0435e-06
-1.18979e-07
-3.61666e-08
1.01479e-05
3.23608e-06
4.1966e-06
1.29672e-06
-3.37364e-06
1.44306e-06
1.56088e-06
4.96813e-06
3.1855e-06
2.17282e-06
-2.81554e-06
-1.59221e-06
-4.98969e-06
-5.44903e-07
-7.41685e-08
-2.17942e-06
-1.82976e-06
9.20165e-07
2.99844e-06
3.45368e-06
3.23321e-06
-5.73248e-07
-5.18734e-06
-2.4251e-06
-6.52799e-06
-1.50199e-06
-2.42035e-07
-1.42091e-06
-3.00236e-06
1.07763e-06
-7.64202e-07
6.21146e-07
4.10725e-07
-3.15609e-07
9.7006e-07
-8.05916e-07
4.85725e-08
6.33645e-07
1.21891e-06
2.94151e-06
1.07324e-06
2.20003e-06
-7.07384e-07
-1.19359e-06
-1.89476e-06
-1.03397e-06
-1.60676e-06
5.45525e-07
9.04234e-09
7.25373e-08
-1.27346e-06
-3.37802e-06
-1.68607e-06
-3.40295e-06
-9.15279e-08
-3.38147e-07
3.14564e-06
2.33617e-06
1.52302e-06
9.73919e-07
-6.9863e-07
1.28851e-06
3.54291e-07
3.55884e-06
5.58061e-07
1.9793e-06
-1.13313e-06
-5.41519e-07
-1.87261e-06
-9.86355e-08
-3.01614e-07
-1.43822e-06
-5.15674e-07
7.92416e-08
6.44034e-07
1.72463e-06
2.85099e-07
-3.29567e-07
-1.67517e-06
-1.9446e-06
-2.04491e-06
-1.53252e-06
-4.10708e-08
-1.4682e-06
-8.91081e-07
2.64711e-07
-5.72729e-07
4.89826e-07
-1.30398e-07
-6.1098e-07
2.19068e-07
1.12107e-06
1.27513e-06
-6.12374e-07
-5.26453e-07
-5.74606e-08
-3.85907e-07
-1.35822e-06
-1.63085e-06
-1.86458e-07
1.33913e-06
1.30949e-06
1.45117e-06
2.19665e-06
1.34164e-06
-2.57207e-08
-2.30178e-08
-5.37637e-07
-1.74346e-08
1.20905e-07
-7.641e-07
-1.40339e-06
-9.61651e-07
-7.86251e-07
4.44459e-10
9.02511e-10
5.01044e-05
-4.49534e-10
4.59072e-11
3.22139e-10
-4.16651e-06
-6.82782e-06
5.11115e-06
8.77755e-06
8.01504e-06
5.4077e-06
)
;

boundaryField
{
    top_fluid_surface
    {
        type            calculated;
        value           nonuniform List<scalar> 
64
(
0
0
2.70586e-10
0
9.53212e-10
1.33719e-10
1.19156e-10
0
0
1.49738e-11
4.79177e-10
0
4.58672e-10
0
0
0
2.72872e-10
8.91912e-10
3.35389e-10
1.71636e-09
0
0
0
1.33349e-09
0
0
0
1.09191e-09
1.48824e-10
5.33745e-10
0
1.2229e-10
0
1.85244e-09
0
1.49011e-09
1.59554e-10
2.34712e-10
0
0
9.49105e-10
1.55404e-09
0
0
3.33365e-10
2.98022e-10
0
1.08805e-09
0
8.92022e-10
0
0
0
0
1.42807e-09
0
0
1.0144e-09
0
0
0
1.58257e-09
2.08594e-09
1.81319e-09
)
;
    }
    bottom_fluid_surface
    {
        type            calculated;
        value           uniform 0;
    }
    lateral_surface_1
    {
        type            calculated;
        value           uniform 0;
    }
    lateral_surface_2
    {
        type            calculated;
        value           uniform 0;
    }
    lateral_surface_3
    {
        type            calculated;
        value           uniform 0;
    }
    lateral_surface_4
    {
        type            calculated;
        value           uniform 0;
    }
}


// ************************************************************************* //
