/*--------------------------------*- C++ -*----------------------------------*\
| =========                 |                                                 |
| \\      /  F ield         | OpenFOAM: The Open Source CFD Toolbox           |
|  \\    /   O peration     | Version:  v1612+                                |
|   \\  /    A nd           | Web:      www.OpenFOAM.com                      |
|    \\/     M anipulation  |                                                 |
\*---------------------------------------------------------------------------*/
FoamFile
{
    version     2.0;
    format      ascii;
    class       surfaceScalarField;
    location    "2.85";
    object      phi;
}
// * * * * * * * * * * * * * * * * * * * * * * * * * * * * * * * * * * * * * //

dimensions      [0 3 -1 0 0 0 0];

internalField   nonuniform List<scalar> 
816
(
-2.8591e-06
-5.34511e-08
1.74883e-06
2.17879e-06
2.81517e-06
-3.83537e-06
1.61671e-06
5.90549e-07
1.37351e-07
5.18708e-06
-1.03573e-05
-1.60048e-06
3.10548e-06
1.96048e-06
2.86468e-06
-6.36443e-06
-1.82825e-06
3.01027e-06
3.64261e-07
-1.52111e-06
0.000171138
-2.07076e-05
-3.24738e-06
1.35573e-06
0.000184645
5.37416e-05
1.89268e-05
3.519e-05
2.74049e-05
-9.26543e-07
6.3874e-06
-4.42597e-05
1.82707e-06
1.01e-05
-3.22303e-06
-2.02974e-05
0.000128539
-9.01627e-05
-4.86405e-06
-9.62729e-05
8.08915e-05
3.6197e-05
-8.61714e-06
-0.000132591
1.35089e-06
-6.26281e-06
-6.90829e-06
-9.0179e-05
0.000234546
2.32854e-05
-1.74421e-06
-6.39358e-05
0.000176459
0.00015506
-2.41326e-06
-9.76241e-05
6.99304e-05
9.88742e-05
-0.000160521
-0.000155222
0.000145845
4.84407e-05
-1.84818e-06
-4.01084e-05
4.68104e-05
-9.95755e-07
0.000166782
1.22164e-05
-5.07404e-06
9.82432e-06
-1.27059e-05
-4.51475e-07
5.277e-06
7.22131e-06
-7.8314e-06
2.38278e-06
1.01203e-05
5.4436e-06
-1.19892e-06
5.43315e-07
9.58559e-06
2.33926e-06
2.69492e-06
4.06286e-06
-4.94086e-06
-3.80086e-06
2.48135e-06
-6.80938e-06
-3.90233e-07
6.43224e-06
-9.35209e-06
-8.50358e-06
-2.84172e-07
-1.88924e-06
-6.37815e-06
-6.10333e-06
1.15095e-06
-2.38266e-06
-8.0351e-07
-4.3357e-06
5.24394e-07
4.59179e-07
-1.67143e-05
2.68026e-06
5.69193e-06
6.96088e-06
-2.57941e-06
3.36085e-06
4.04395e-06
6.20161e-06
-3.3349e-06
7.2593e-06
-5.40708e-06
6.62492e-06
5.93601e-06
8.81855e-07
-7.43612e-07
-3.17911e-06
-6.43372e-06
-6.32e-07
-2.82961e-06
-3.34951e-06
-1.77408e-06
3.64969e-07
-1.4776e-07
-2.11238e-06
-2.15212e-06
1.07432e-06
6.90623e-07
1.43037e-06
1.61712e-06
5.74969e-07
-4.66318e-07
2.47151e-06
-3.88637e-06
-4.56192e-06
-1.71359e-06
2.35182e-06
-3.06894e-06
-2.022e-07
3.1984e-06
-1.71098e-06
3.23041e-06
-2.99214e-06
-7.72389e-06
-5.23387e-07
-2.32332e-06
-3.78831e-06
-1.2918e-06
1.50963e-06
-4.26991e-06
-2.05868e-06
1.37138e-06
2.01047e-06
-2.41928e-06
-3.93601e-07
-1.76484e-06
6.93766e-07
1.10096e-06
2.08882e-06
7.21333e-07
1.38173e-06
7.41514e-08
3.82717e-07
1.60406e-06
-9.42155e-07
2.51412e-06
1.61818e-06
3.58674e-07
-1.27455e-06
1.77479e-06
3.13105e-07
-1.0034e-06
-1.25998e-06
-1.26624e-06
-1.79863e-06
-1.80516e-06
-1.70157e-06
-6.66387e-07
7.33766e-07
-1.44776e-06
-1.04337e-06
-4.79447e-08
8.45664e-07
7.64085e-07
2.16763e-07
6.20846e-07
-5.32395e-07
7.49477e-08
2.06103e-06
-2.91292e-06
-1.26571e-06
-1.09968e-06
1.81739e-06
-3.388e-07
-7.10263e-07
1.83823e-06
1.58208e-06
-8.22079e-07
-1.86822e-06
-2.37463e-08
-1.30388e-06
-2.68331e-06
-2.03822e-06
1.03663e-06
-5.26488e-07
-2.57204e-06
1.22584e-06
-6.45939e-07
-2.25948e-06
-2.82583e-07
7.24799e-07
-2.02486e-05
-3.9796e-05
-5.84557e-06
0.000212179
3.06532e-05
-2.95714e-06
6.3949e-05
-8.30812e-05
1.87958e-05
0.000136066
-5.22551e-05
1.55248e-05
2.37505e-06
1.8505e-05
5.9073e-06
-2.13509e-05
-0.000131084
-1.06272e-05
-5.17552e-06
-2.68565e-05
-5.07612e-05
-8.55924e-06
4.04918e-05
-0.000284779
-3.10255e-06
-0.000159093
-0.000175436
3.50282e-05
-0.000135647
8.11645e-05
7.55962e-06
4.84325e-05
-4.91471e-05
0.000108888
-4.49599e-06
0.000117296
-6.97337e-05
-1.63624e-06
-9.81675e-05
-0.000116419
-3.37494e-06
3.72771e-05
-7.09981e-05
-4.36782e-07
-0.00010734
0.000177013
-8.75642e-08
-0.000137337
-6.29882e-05
7.03932e-05
-4.23607e-06
3.89053e-05
-4.46493e-05
-2.87637e-06
-5.22631e-05
-6.30217e-05
-5.29514e-06
-4.89152e-05
2.57113e-06
1.47276e-06
7.65205e-05
-6.36261e-07
1.51638e-05
-7.27758e-05
-4.71505e-06
-9.54346e-06
1.00255e-05
-4.50092e-07
-5.22376e-06
-3.8286e-06
-4.34034e-06
-7.36913e-08
3.581e-06
7.47634e-06
-5.4137e-07
8.44216e-06
8.41891e-06
7.00806e-06
1.32601e-05
4.02527e-07
-5.37329e-06
6.58352e-06
7.5687e-06
5.51339e-06
-4.97544e-06
1.48509e-06
-4.13492e-06
-1.45633e-05
1.70689e-05
-1.70064e-05
-1.23455e-05
1.58535e-05
-1.0216e-05
8.785e-06
-9.68842e-06
7.89173e-07
-5.12151e-06
4.33256e-06
6.90916e-07
3.30023e-07
-4.35186e-06
5.12796e-06
-1.1282e-05
-5.37525e-07
-1.25975e-05
-2.23197e-06
-9.84861e-07
-1.08333e-07
2.62473e-06
8.06953e-06
-9.55241e-07
-4.55804e-06
-4.84311e-06
4.65171e-06
-3.93755e-06
4.1468e-06
1.60089e-06
1.93748e-06
6.11243e-07
-9.69289e-06
9.36082e-06
-2.12194e-06
-9.43947e-06
5.36477e-06
-4.26887e-06
-2.13021e-06
-7.34652e-06
-1.22154e-05
-2.85423e-07
3.38399e-06
4.49499e-06
-5.00484e-08
-2.10181e-06
-1.65313e-06
-9.82962e-07
-1.6357e-06
2.80011e-06
-1.37347e-06
1.86723e-06
3.99854e-06
-1.09076e-06
-9.23594e-07
6.1658e-06
4.06366e-06
5.92491e-06
-4.87812e-08
3.1575e-06
1.43623e-06
-1.64577e-06
4.58947e-07
4.1167e-06
1.90131e-06
7.61548e-06
5.45528e-06
4.92039e-06
7.12645e-06
1.14263e-06
2.47622e-06
-4.82079e-06
-5.66772e-06
3.27658e-06
1.77974e-06
1.76994e-07
-6.92635e-07
4.3083e-06
2.48145e-06
-1.06116e-07
1.71297e-07
-5.68162e-06
4.7776e-07
-1.13709e-06
-6.02351e-07
1.41933e-06
-4.81446e-07
-8.00804e-07
4.49313e-07
-1.23599e-06
-2.46737e-06
-1.924e-06
-2.38119e-06
-2.60468e-06
2.31413e-07
3.33327e-06
-1.98323e-07
3.73713e-06
4.59485e-06
1.12442e-06
1.46832e-06
2.19002e-06
-7.95831e-07
-1.59316e-07
3.34812e-06
-6.42971e-07
2.0825e-06
1.35517e-06
-5.93145e-07
-1.48157e-06
-2.71747e-07
-1.78208e-06
-6.38947e-07
1.35999e-06
-1.05298e-06
1.31e-06
1.20766e-06
-5.465e-07
-8.25168e-08
1.81822e-06
2.19966e-06
3.64082e-06
1.49454e-07
1.0192e-06
9.06104e-07
-1.10381e-06
6.7363e-07
1.7763e-06
1.06521e-06
2.09118e-06
2.81143e-06
3.10646e-06
2.16683e-06
-3.0679e-08
1.55183e-06
-6.69514e-07
-3.97146e-06
1.33493e-06
1.06422e-06
3.01454e-07
-8.89721e-07
3.00566e-06
5.81032e-07
-3.67047e-07
5.72688e-07
-1.75328e-06
1.17335e-07
-4.998e-07
-2.85777e-07
6.41922e-07
-3.15714e-07
-2.73774e-07
1.5597e-07
-8.88504e-07
-1.55654e-06
-6.5501e-07
-1.31581e-06
-1.70204e-06
-5.7441e-08
1.47338e-06
-4.80025e-07
8.94741e-07
2.8737e-06
-4.21917e-07
5.03509e-07
6.32258e-07
-9.16228e-08
-1.04957e-06
2.15416e-06
-1.30961e-06
7.40439e-07
7.76567e-09
1.31056e-06
9.64942e-07
-4.2743e-07
-2.17349e-07
-1.09774e-06
1.25748e-06
9.56005e-07
-9.52075e-07
1.16267e-06
-7.49397e-07
-2.90427e-07
-7.12356e-07
-7.94849e-07
-9.91442e-07
3.45533e-07
-6.54093e-07
-4.94155e-07
3.3113e-07
3.00781e-08
1.75621e-07
-7.01637e-07
1.44254e-06
-1.75811e-06
-5.94058e-07
1.63745e-06
2.77598e-07
1.42577e-06
6.72407e-07
-1.32555e-06
2.24674e-07
-1.46713e-07
-1.4895e-06
6.25031e-07
-1.66645e-06
8.76967e-07
-1.33368e-06
1.45517e-07
-5.79751e-07
1.16508e-06
-5.13148e-07
-1.00113e-06
-5.11915e-07
-2.00254e-07
-3.93995e-07
5.98061e-07
-1.9964e-07
-8.89958e-08
8.61142e-07
1.68875e-06
-3.88378e-10
4.64888e-07
-2.29624e-07
9.60191e-07
4.30408e-07
7.2954e-07
1.04052e-06
-1.89621e-07
1.40866e-06
-1.72226e-06
6.7881e-07
1.33187e-06
-2.12838e-07
2.01392e-06
1.89147e-07
6.72812e-07
2.78551e-07
8.35919e-08
5.25652e-07
-3.17611e-07
2.77135e-07
-1.46516e-07
-9.45675e-07
-1.52365e-07
-1.16242e-06
7.87152e-07
-7.67703e-07
1.39616e-06
-5.91665e-07
4.95512e-07
-5.11392e-07
1.07241e-06
8.33664e-05
-5.99474e-05
1.26299e-05
-3.32082e-06
5.8768e-07
2.98474e-05
1.24045e-05
-0.0001067
4.7297e-06
-9.09427e-05
-1.98735e-06
-4.35252e-05
-7.2483e-06
-6.85776e-06
4.35462e-08
8.29415e-05
1.2501e-07
-6.94278e-06
-9.39409e-06
-0.000172383
-4.05472e-06
-0.000167255
1.17626e-05
0.000106058
2.36861e-05
7.17744e-05
3.11079e-05
9.39119e-06
8.09526e-06
9.00702e-05
2.59143e-06
3.30464e-05
-1.75447e-06
-7.2076e-05
2.65512e-05
-0.000165608
-1.80641e-06
-0.000138008
-4.33195e-07
-0.000195612
1.04061e-05
0.00030087
1.53316e-05
0.000243331
1.93687e-05
7.01767e-05
-8.47936e-07
3.00868e-05
0.000252091
7.06667e-05
-5.16978e-06
1.99155e-05
-6.1286e-06
3.75937e-05
2.23921e-05
1.93682e-05
7.78336e-06
-8.52323e-06
1.22215e-06
-3.6279e-06
3.42974e-06
5.21186e-06
2.85774e-08
5.40682e-06
7.30125e-06
-3.50593e-06
9.71254e-06
-1.04989e-05
-8.65779e-06
4.20101e-06
-1.18665e-05
1.08883e-05
-1.06419e-05
-2.94387e-06
2.5339e-06
-1.63644e-05
-8.77426e-06
-3.85524e-06
-1.87581e-05
9.12643e-06
-2.21266e-06
2.09867e-06
2.1846e-05
-9.14402e-07
7.35282e-06
6.2989e-06
-8.56448e-06
1.04569e-06
2.30127e-06
3.3035e-06
6.73408e-06
2.81293e-06
-6.20346e-06
-4.90688e-06
-1.01032e-05
-5.99237e-06
7.67197e-07
8.01601e-06
-3.36867e-06
1.03335e-05
7.3922e-06
2.76352e-06
8.14429e-06
-4.44265e-06
-1.27214e-05
-6.06348e-06
-1.28185e-05
-1.17808e-05
-1.59066e-06
-3.30359e-06
-6.31171e-06
1.35388e-06
-1.30828e-06
1.08991e-06
1.29324e-06
7.45156e-08
2.0427e-06
-2.16591e-06
1.17735e-06
1.34153e-07
3.66133e-06
4.85491e-06
3.94677e-06
3.97608e-06
-3.69354e-06
-2.48617e-06
-5.36474e-06
-2.02192e-06
-5.11108e-06
1.30934e-06
6.93654e-07
2.4508e-07
-3.60923e-06
-5.03474e-06
-7.9848e-06
-6.04517e-06
-3.01077e-08
-4.80445e-09
1.02017e-05
3.19597e-06
4.14222e-06
1.28682e-06
-3.37258e-06
1.4365e-06
1.47244e-06
4.94581e-06
3.19312e-06
2.08681e-06
-2.88025e-06
-1.61115e-06
-5.01798e-06
-5.44948e-07
1.18914e-08
-2.18002e-06
-1.72746e-06
9.72291e-07
3.05174e-06
3.48269e-06
3.24034e-06
-6.50277e-07
-5.37178e-06
-2.40661e-06
-6.49197e-06
-1.47616e-06
-2.86968e-07
-1.41392e-06
-2.98694e-06
1.06244e-06
-7.46817e-07
6.00964e-07
3.87112e-07
-3.00784e-07
9.68638e-07
-8.20397e-07
1.785e-08
6.34979e-07
1.21394e-06
2.98141e-06
1.0855e-06
2.21438e-06
-7.34087e-07
-1.20251e-06
-1.91627e-06
-1.01354e-06
-1.60877e-06
5.68691e-07
1.57361e-09
3.92195e-08
-1.30656e-06
-3.4515e-06
-1.69699e-06
-3.38685e-06
-7.84618e-08
-3.04264e-07
3.16059e-06
2.33012e-06
1.50672e-06
9.87655e-07
-6.97545e-07
1.27916e-06
3.32807e-07
3.55952e-06
5.55797e-07
1.92912e-06
-1.15073e-06
-6.40275e-07
-1.87342e-06
-1.3403e-07
-2.83645e-07
-1.4013e-06
-4.99428e-07
1.68888e-07
6.64238e-07
1.76795e-06
2.85665e-07
-3.67077e-07
-1.71901e-06
-1.96261e-06
-2.03225e-06
-1.55572e-06
-4.36241e-08
-1.46417e-06
-8.90331e-07
2.54586e-07
-5.54932e-07
4.80452e-07
-1.1538e-07
-6.11741e-07
2.16691e-07
1.13878e-06
1.28703e-06
-6.17839e-07
-5.15868e-07
-4.54608e-08
-3.9041e-07
-1.36953e-06
-1.63522e-06
-1.74823e-07
1.33254e-06
1.3103e-06
1.43927e-06
2.18794e-06
1.31335e-06
-5.91009e-08
-3.38665e-08
-5.33373e-07
2.15055e-09
1.28957e-07
-7.86798e-07
-1.4132e-06
-9.66943e-07
-7.87485e-07
3.65473e-05
9.84575e-05
0.000296445
-8.67881e-05
9.46309e-06
5.75283e-05
-4.1268e-06
-6.91905e-06
5.00841e-06
8.68392e-06
7.99042e-06
5.41481e-06
)
;

boundaryField
{
    top_fluid_surface
    {
        type            calculated;
        value           nonuniform List<scalar> 
64
(
-0.000292086
4.19257e-06
4.78761e-05
-9.09673e-05
0.000136512
2.70003e-05
4.95008e-06
-0.000147157
-9.93075e-05
7.65755e-06
7.06616e-05
-0.000144682
5.48403e-05
-8.49632e-05
-3.41555e-05
-5.49168e-05
5.39469e-05
0.000148439
3.67458e-05
0.000305732
-8.998e-05
-0.000328337
-7.91195e-05
0.000206471
-5.49977e-05
-5.41658e-05
-3.77648e-05
0.000163747
1.90022e-05
6.6764e-05
-0.000145673
1.73457e-05
-5.8781e-05
0.000318105
3.81895e-06
0.000252072
1.60606e-05
2.20495e-05
-4.38147e-05
-0.000216866
0.00012992
0.000235965
-0.000216395
-0.000500265
4.79783e-05
4.80243e-05
-0.000149305
0.000180381
-7.48007e-05
0.000137741
-7.13242e-05
-0.000179708
-0.000515072
-4.61291e-05
0.000230982
-0.000206902
-3.93836e-05
0.000167062
-0.000163566
-3.60715e-05
-0.000207331
0.000289346
0.000404277
0.000301747
)
;
    }
    bottom_fluid_surface
    {
        type            calculated;
        value           uniform 0;
    }
    lateral_surface_1
    {
        type            calculated;
        value           uniform 0;
    }
    lateral_surface_2
    {
        type            calculated;
        value           uniform 0;
    }
    lateral_surface_3
    {
        type            calculated;
        value           uniform 0;
    }
    lateral_surface_4
    {
        type            calculated;
        value           uniform 0;
    }
}


// ************************************************************************* //
