/*--------------------------------*- C++ -*----------------------------------*\
| =========                 |                                                 |
| \\      /  F ield         | OpenFOAM: The Open Source CFD Toolbox           |
|  \\    /   O peration     | Version:  v1612+                                |
|   \\  /    A nd           | Web:      www.OpenFOAM.com                      |
|    \\/     M anipulation  |                                                 |
\*---------------------------------------------------------------------------*/
FoamFile
{
    version     2.0;
    format      ascii;
    class       volVectorField;
    location    "2.85";
    object      U;
}
// * * * * * * * * * * * * * * * * * * * * * * * * * * * * * * * * * * * * * //

dimensions      [0 1 -1 0 0 0 0];

internalField   nonuniform List<vector> 
320
(
(-4.95523e-06 -2.91089e-06 -5.11026e-06)
(-1.76422e-07 -1.28751e-06 -8.57156e-06)
(-2.73025e-06 2.93373e-06 -4.87286e-06)
(-5.55523e-07 4.76235e-06 4.17677e-07)
(0.000106763 6.68519e-05 -0.000150398)
(0.000160595 3.1966e-05 -1.78985e-05)
(-2.59422e-05 -1.16057e-05 1.69227e-05)
(-0.000145889 4.13094e-05 -4.0977e-05)
(-7.60712e-05 -4.03951e-05 7.52865e-05)
(-8.29118e-05 -0.000125237 1.94752e-05)
(-3.18191e-05 -0.00016826 4.34825e-06)
(6.84129e-05 -0.00022168 -7.2138e-05)
(-0.000107222 -0.000117876 -5.58389e-05)
(0.000148926 -0.0001667 0.000165515)
(-4.19205e-05 -2.822e-05 3.56527e-05)
(-4.82953e-05 -8.13574e-05 -6.78764e-05)
(-1.17408e-05 -1.4898e-06 1.51097e-05)
(2.28065e-06 4.39389e-06 1.02898e-05)
(1.15086e-05 5.35361e-06 1.44833e-06)
(6.89329e-06 8.88849e-06 -2.74491e-06)
(-1.27091e-07 -5.6973e-06 -4.3557e-06)
(-6.35518e-06 -2.38491e-06 9.0406e-06)
(-6.01213e-06 -3.31096e-06 5.18014e-06)
(8.51666e-06 -6.30576e-06 3.92541e-07)
(-2.12752e-06 2.71977e-06 1.7304e-05)
(-2.59913e-06 -4.09046e-06 3.12992e-06)
(-1.32477e-05 -7.19742e-06 3.08134e-06)
(-9.53377e-06 -8.57813e-06 -7.25057e-06)
(1.94887e-06 -1.17597e-06 1.07862e-05)
(-3.06212e-06 1.76047e-08 5.66314e-06)
(-3.18897e-06 1.45949e-06 2.16086e-07)
(5.5786e-07 -4.04281e-07 -1.41644e-06)
(-3.31485e-06 2.80901e-06 -7.5252e-07)
(-5.50997e-06 -3.46089e-07 7.24488e-06)
(-3.01224e-07 7.75382e-07 6.20157e-06)
(-4.89489e-06 3.90771e-06 2.05803e-06)
(-5.03849e-07 4.26644e-07 1.33151e-05)
(-1.09839e-06 4.70225e-06 2.01887e-06)
(-7.9372e-08 3.39168e-06 3.25243e-06)
(3.45262e-06 4.28854e-06 -3.44324e-06)
(-3.50511e-06 -1.53935e-06 -5.66049e-07)
(2.5605e-07 -6.43135e-07 -2.15896e-06)
(-1.84671e-06 2.81262e-06 -4.96147e-07)
(-3.04622e-07 3.09931e-06 -7.79083e-07)
(5.81759e-07 -5.22867e-07 2.31579e-06)
(-2.18072e-06 5.42523e-07 6.96212e-07)
(-1.82129e-06 1.19327e-06 1.85211e-07)
(5.33528e-07 3.36761e-07 -3.80874e-07)
(-2.08749e-06 1.46783e-06 -3.6322e-07)
(-3.4741e-06 -4.67844e-07 1.52861e-06)
(-1.08875e-06 4.24021e-07 6.84374e-07)
(-2.88897e-06 2.27356e-06 7.97237e-07)
(-2.30801e-07 6.26702e-07 3.59486e-06)
(-1.22453e-06 2.48317e-06 5.59813e-07)
(-8.40423e-07 1.78534e-06 7.60282e-07)
(1.44947e-06 3.0461e-06 -1.48001e-06)
(-6.43632e-05 -0.000238241 3.94941e-05)
(1.43322e-05 -6.74334e-05 -4.16096e-05)
(1.24699e-05 -0.000130084 -3.66986e-05)
(-0.000113633 5.76628e-05 -3.90384e-05)
(-3.15075e-05 4.78422e-05 2.787e-05)
(4.39082e-05 -7.4198e-08 8.36873e-05)
(0.000116813 1.73831e-06 3.19268e-05)
(-0.000136783 -0.000163225 0.00016579)
(-0.000139865 -0.000309054 -7.83698e-05)
(4.46222e-06 -7.8405e-05 -0.000178836)
(-0.000216906 0.000134039 -3.47141e-05)
(2.99158e-05 -6.7543e-05 0.000108559)
(0.000137024 5.40249e-05 -3.00325e-05)
(5.30897e-05 -9.27415e-05 -2.68049e-05)
(0.000112796 -0.000212639 -1.96596e-05)
(-6.28354e-05 -0.000125504 8.47333e-05)
(0.000100094 -9.80069e-06 1.38711e-05)
(0.000103775 7.11991e-05 4.50797e-05)
(2.17096e-05 4.5292e-05 -7.16313e-05)
(0.000182085 -4.23088e-05 7.80269e-06)
(1.06943e-06 -8.26452e-07 -1.25643e-05)
(-1.01649e-05 2.87211e-06 4.16839e-06)
(-1.05816e-06 -8.8847e-06 -3.5836e-06)
(1.26315e-06 -7.69637e-06 -7.94812e-06)
(-3.18924e-06 2.50423e-06 -1.35692e-05)
(9.83813e-06 1.00234e-05 -8.64856e-06)
(-5.5533e-07 2.08765e-06 -4.07688e-06)
(-1.44928e-05 -1.16293e-05 -1.96923e-05)
(-8.53984e-06 -1.54592e-05 -1.58997e-05)
(-4.33301e-06 -9.02681e-06 1.40081e-05)
(-1.22749e-05 2.93759e-06 -8.6851e-07)
(5.28531e-06 -1.02453e-05 -7.3355e-06)
(3.14895e-06 -4.82799e-06 1.19766e-05)
(-2.65982e-06 4.41685e-06 1.09839e-07)
(5.44097e-06 -7.15859e-06 1.63213e-06)
(-8.53502e-06 -6.2458e-06 2.88337e-06)
(-3.74115e-06 -5.01951e-06 -3.01609e-06)
(-2.1534e-06 2.87037e-06 -1.28653e-05)
(7.22348e-06 1.28269e-05 -5.65722e-06)
(1.81674e-05 1.00621e-05 3.08817e-06)
(-3.1214e-07 6.21669e-07 -6.85855e-06)
(-6.84139e-07 2.49797e-06 2.9266e-06)
(-2.81184e-06 3.29003e-06 -4.00406e-06)
(-6.59657e-07 2.24737e-06 -7.41446e-06)
(4.70692e-06 -3.12166e-06 -1.08763e-05)
(-3.05604e-07 1.23525e-06 -5.06478e-06)
(2.67577e-06 -1.41322e-06 7.85369e-07)
(2.76273e-06 -1.30516e-06 -1.2964e-05)
(-2.14384e-06 4.72823e-06 -1.28643e-05)
(-5.08822e-06 5.22976e-06 7.98785e-06)
(6.37635e-07 -2.20028e-06 4.41959e-08)
(-4.80933e-06 -9.88275e-07 -3.77389e-06)
(-2.38142e-06 1.58858e-06 1.04251e-05)
(1.70995e-06 -1.00591e-06 4.92277e-07)
(1.04979e-06 1.97397e-07 8.99701e-07)
(4.4041e-06 1.09945e-06 3.66927e-06)
(-2.56629e-06 3.35828e-06 -3.94629e-07)
(-3.01632e-06 1.6401e-06 -5.95365e-06)
(-2.5083e-06 -1.40895e-06 -2.81318e-06)
(-5.23045e-06 -3.63048e-07 1.18298e-06)
(-6.86551e-07 1.40188e-06 -2.09171e-06)
(-1.00153e-06 2.91971e-06 6.04371e-07)
(-1.46009e-06 2.63096e-06 -1.70493e-06)
(-1.60037e-09 1.41606e-06 -1.40026e-06)
(2.9631e-06 -1.31875e-06 -2.51587e-06)
(1.41174e-07 1.07764e-06 -1.84289e-06)
(1.147e-06 -9.09331e-07 -1.49928e-06)
(1.2719e-06 -9.08327e-07 -3.18463e-06)
(-1.62631e-06 3.03521e-06 -2.90511e-06)
(-3.28393e-06 2.79995e-06 5.09504e-07)
(5.23686e-07 -1.65202e-06 -5.97409e-07)
(-3.04603e-06 -9.19321e-07 -8.66456e-07)
(-2.04939e-06 5.54773e-07 2.27074e-06)
(4.56302e-07 -4.63911e-07 1.92143e-07)
(7.9834e-07 2.44814e-07 3.30246e-07)
(2.38709e-06 5.92726e-07 7.96874e-07)
(-1.2049e-06 2.203e-06 -1.41151e-07)
(-1.80475e-06 1.13465e-06 -1.33678e-06)
(-8.15799e-07 -3.69004e-07 -8.98515e-07)
(-3.06243e-06 1.29302e-06 2.46442e-07)
(-2.09328e-06 -1.48987e-07 -6.145e-07)
(-2.53009e-07 2.08353e-07 -7.9747e-07)
(-1.31747e-06 1.57318e-06 -2.87179e-07)
(-8.57222e-07 1.63089e-06 -3.91463e-08)
(-1.23098e-07 1.17874e-07 1.1245e-06)
(-1.10826e-06 6.70769e-07 7.9439e-07)
(-7.1806e-07 5.4089e-07 -4.36827e-08)
(-2.78188e-07 1.02055e-07 -6.68384e-08)
(-1.18249e-06 6.63526e-07 1.64078e-07)
(-2.01527e-06 -4.05459e-07 6.01536e-07)
(-1.16266e-06 5.82354e-07 5.08888e-07)
(-2.10706e-06 8.91824e-07 6.0844e-07)
(-4.53204e-07 6.65892e-07 1.33688e-06)
(-6.46636e-07 1.64467e-06 4.65206e-07)
(-7.83038e-07 1.40273e-06 6.25393e-07)
(5.34691e-07 1.78524e-06 2.94122e-08)
(-4.93486e-07 8.90828e-07 -8.31532e-07)
(-9.78803e-07 1.22053e-06 -8.45312e-08)
(-6.76026e-07 1.17361e-06 -7.88723e-07)
(1.61217e-07 6.58882e-07 -7.78468e-07)
(1.24522e-06 -4.59413e-07 -9.39218e-07)
(-4.95884e-08 2.31364e-07 -3.4158e-07)
(3.85592e-07 -2.56081e-07 -9.62524e-08)
(9.6221e-09 -1.06196e-07 -1.0944e-06)
(-1.05888e-06 9.21969e-07 -1.01546e-06)
(-1.67461e-06 1.14651e-06 9.45847e-07)
(-8.42881e-07 -5.94632e-07 -5.9482e-08)
(-2.1545e-06 1.03278e-07 -3.54003e-07)
(-1.40101e-06 4.64166e-07 9.46487e-07)
(-2.36103e-07 -3.78676e-09 3.40355e-07)
(1.34485e-07 3.1308e-07 2.69964e-07)
(6.41899e-07 4.81291e-07 3.63907e-07)
(-7.71295e-07 1.24335e-06 2.1457e-07)
(-1.02873e-06 1.03234e-06 -6.21004e-07)
(-7.42344e-07 4.07426e-07 8.08793e-09)
(-1.54799e-06 7.20731e-07 2.51321e-08)
(0.000238689 9.90294e-06 -4.41969e-05)
(-2.31386e-05 -0.000136884 0.000161724)
(-1.58868e-07 -3.12983e-05 -8.51711e-06)
(3.58886e-05 -0.000122086 0.000125773)
(-0.000204419 -5.46897e-05 1.51399e-05)
(2.32116e-05 -3.19452e-05 1.46336e-05)
(-0.000124368 -0.000109337 -2.81927e-05)
(-0.00020202 7.75413e-05 -0.000115419)
(-9.42073e-05 0.000137163 7.68835e-05)
(-6.52068e-05 -0.000138451 0.000118368)
(-0.000234534 -0.000296071 -0.000131931)
(-0.000199418 1.57495e-05 -0.000277454)
(8.9876e-05 0.000185498 5.5434e-06)
(6.37057e-05 -3.85014e-05 1.94264e-05)
(-8.82799e-05 -1.26412e-05 -8.39213e-05)
(-9.31491e-05 5.45321e-05 9.3889e-05)
(4.83896e-05 -0.000135877 -6.65791e-05)
(9.36413e-05 3.59077e-05 6.77799e-05)
(0.000159306 -9.25462e-05 -3.98621e-05)
(0.000214724 -6.99965e-05 -0.000100388)
(0.000159351 -0.000194215 -0.00027672)
(3.49185e-05 -0.000370257 -4.31365e-05)
(1.54805e-06 -0.000130818 0.000121745)
(2.95124e-05 -6.3246e-08 -0.000320205)
(1.09224e-05 -0.000107083 -2.07638e-05)
(-0.000148702 -3.31571e-06 8.89439e-05)
(-3.73465e-05 -1.97114e-05 -0.000109388)
(-0.000126451 -7.88546e-05 -3.95346e-05)
(1.60146e-05 3.49515e-06 -5.23572e-07)
(-2.34353e-06 2.18915e-06 -6.37121e-06)
(-3.68387e-06 6.90799e-06 2.11764e-06)
(1.28487e-05 -4.29204e-06 -8.86731e-06)
(1.20689e-07 -6.99872e-06 -1.06349e-05)
(-9.09076e-06 -3.14882e-06 7.41577e-06)
(-9.2039e-06 -1.09702e-06 1.25702e-05)
(-7.15186e-06 1.1233e-05 1.36581e-05)
(-4.7549e-07 7.98725e-06 -5.00065e-06)
(-9.18803e-06 -1.54429e-05 7.64653e-06)
(-1.80051e-05 -1.36826e-05 2.4004e-05)
(-1.12404e-05 7.77418e-06 6.91446e-06)
(5.22823e-06 7.26378e-06 -2.15734e-05)
(5.0505e-06 -3.09324e-06 -6.94451e-06)
(-4.21415e-06 -2.91507e-06 1.32984e-05)
(-5.13787e-06 -3.21223e-06 -3.71467e-06)
(1.75338e-06 -1.00531e-05 -5.97055e-06)
(-6.1453e-06 3.19796e-07 5.95493e-06)
(2.03111e-07 -7.58474e-07 9.28792e-06)
(8.44473e-06 -2.54355e-06 4.19035e-08)
(4.46963e-06 -3.76221e-06 7.37972e-06)
(3.25114e-06 -1.25632e-05 -6.56117e-06)
(-9.34156e-07 -6.46268e-06 -1.07544e-05)
(3.03457e-06 2.29109e-06 1.11015e-05)
(6.37678e-06 3.7677e-06 1.24142e-05)
(3.93146e-06 1.17428e-05 1.58374e-06)
(5.2926e-06 7.96312e-06 1.036e-05)
(1.83291e-06 3.50557e-08 1.57783e-07)
(-2.45088e-06 6.90638e-07 -2.45607e-06)
(5.9161e-07 -4.30289e-07 -1.79784e-06)
(-7.19421e-07 -2.1309e-07 -2.53169e-06)
(-2.8116e-06 -3.94947e-07 -6.07001e-06)
(3.22266e-06 -2.13474e-07 -7.15101e-06)
(5.42326e-06 -4.27737e-06 7.68886e-06)
(2.95486e-06 -9.29897e-07 9.12326e-06)
(6.30234e-06 -3.48149e-06 8.44563e-06)
(2.5952e-06 -5.71624e-07 -8.8114e-07)
(4.49542e-06 2.66369e-06 6.86202e-06)
(6.67194e-06 -2.01076e-06 1.3745e-05)
(3.79012e-06 -8.19656e-06 -7.05681e-07)
(-6.25254e-06 -2.81895e-06 -1.84594e-05)
(-4.25839e-06 2.6833e-06 -7.37981e-06)
(-2.76259e-06 6.89132e-07 5.08566e-06)
(7.08372e-07 3.57661e-07 -2.10892e-06)
(-4.09004e-06 6.18638e-07 -6.48309e-06)
(-4.87739e-06 -3.61678e-07 4.69688e-06)
(8.87348e-07 3.11452e-06 8.72498e-06)
(1.90347e-06 4.60954e-07 -8.7449e-07)
(-5.58789e-07 2.26084e-06 1.38924e-06)
(1.24108e-06 1.49482e-06 -6.33555e-06)
(7.38414e-07 -3.18923e-06 -6.37978e-06)
(-3.04778e-06 -2.71813e-06 1.02675e-05)
(-5.33799e-06 3.44961e-06 1.16316e-05)
(-1.23828e-06 2.07428e-06 7.38427e-07)
(-1.85485e-06 6.79176e-07 3.75423e-06)
(-1.96088e-07 2.34941e-06 -2.51856e-06)
(-1.0796e-06 1.10269e-06 -5.75728e-09)
(-1.77222e-07 4.23215e-08 -1.55229e-06)
(-6.47308e-07 5.93361e-07 7.31129e-07)
(-6.77074e-07 -3.11902e-07 -1.58734e-06)
(2.12841e-06 -1.89655e-07 -1.43158e-06)
(3.18718e-06 -2.4419e-06 7.52714e-07)
(1.60215e-06 -4.13751e-07 2.59619e-06)
(3.63031e-06 -1.62995e-06 2.07227e-06)
(1.29095e-06 -6.22829e-07 -1.52031e-07)
(1.92984e-06 1.46746e-06 1.69027e-06)
(3.66773e-06 -1.30548e-06 2.25402e-06)
(1.53267e-06 -5.02365e-06 3.55461e-07)
(-4.39113e-06 -1.832e-06 -4.00848e-06)
(-3.09927e-06 1.0121e-06 -1.61055e-06)
(-1.80629e-06 -2.79746e-07 1.02065e-06)
(2.45174e-07 -4.65545e-07 -1.8311e-07)
(-3.29554e-06 -1.24006e-09 -4.48648e-07)
(-3.34438e-06 -2.16037e-07 1.76536e-06)
(7.9158e-08 1.29375e-06 2.50322e-06)
(7.88919e-07 1.61105e-07 5.78759e-07)
(-3.86882e-07 1.30317e-06 9.45094e-07)
(7.55181e-07 1.13425e-06 -7.31945e-07)
(5.02558e-07 -1.37654e-06 -2.22467e-07)
(-1.21408e-06 -1.70866e-06 2.23455e-06)
(-3.4091e-06 2.17444e-06 2.40199e-06)
(-1.74292e-07 1.7884e-06 7.81888e-08)
(-1.2517e-06 1.13808e-06 1.41031e-06)
(-3.29234e-07 2.02515e-06 5.4031e-08)
(-9.17886e-07 4.51425e-07 -6.42181e-07)
(3.48934e-08 3.03409e-07 -6.575e-07)
(-4.05877e-07 -7.69519e-08 -7.27425e-07)
(-5.46613e-07 -2.69516e-07 -7.38036e-07)
(9.14961e-07 -2.06363e-07 -8.12497e-07)
(1.36017e-06 -1.02326e-06 4.7826e-07)
(1.07541e-06 -3.21317e-07 9.79344e-07)
(1.77736e-06 -7.50883e-07 9.27104e-07)
(7.83943e-07 -3.18742e-07 1.00851e-07)
(1.22725e-06 1.61262e-07 5.64831e-07)
(1.20129e-06 -7.80951e-07 1.35042e-06)
(5.52499e-07 -2.08969e-06 -3.36159e-08)
(-1.81037e-06 -8.70462e-07 -1.65847e-06)
(-1.46447e-06 3.87839e-07 -9.76265e-07)
(-1.33471e-06 4.19482e-08 5.8151e-07)
(-9.72037e-07 4.79421e-08 -5.05099e-07)
(-2.22146e-06 1.71102e-07 -5.26911e-07)
(-2e-06 1.149e-07 6.14376e-07)
(-3.02119e-07 7.70087e-07 8.44379e-07)
(3.4721e-07 1.80915e-07 2.3833e-07)
(-2.31005e-07 5.5736e-07 4.0678e-07)
(1.4544e-07 2.90901e-07 -3.24405e-07)
(-2.53183e-07 -2.39888e-07 -4.10712e-07)
(-5.75737e-07 -2.59593e-08 8.06697e-07)
(-1.52249e-06 1.43168e-06 1.2158e-06)
(-1.76398e-07 1.26599e-06 -1.65573e-08)
(-6.63931e-07 7.15282e-07 6.18532e-07)
(-1.81844e-07 9.33509e-07 -4.40372e-07)
(0.000126756 0.000267879 -0.000348096)
(-6.63179e-05 5.13177e-05 0.000141635)
(0.000187362 -7.47398e-05 0.00021101)
(-6.66277e-05 -0.000226345 0.000160096)
(2.80825e-06 9.80549e-06 -3.75403e-06)
(5.78546e-06 1.37242e-05 -1.27075e-05)
(9.18024e-06 6.10029e-06 -9.34991e-06)
(1.36419e-06 1.61936e-06 -4.43342e-06)
)
;

boundaryField
{
    top_fluid_surface
    {
        type            pressureInletOutletVelocity;
        value           nonuniform List<vector> 
64
(
(0 0 -0.000150398)
(0.000160595 3.1966e-05 -1.78985e-05)
(-2.59422e-05 -1.16057e-05 1.69227e-05)
(0 0 -4.0977e-05)
(-7.60712e-05 -4.03951e-05 7.52865e-05)
(-8.29118e-05 -0.000125237 1.94752e-05)
(-3.18191e-05 -0.00016826 4.34825e-06)
(0 0 -7.2138e-05)
(0 0 -5.58389e-05)
(0.000148926 -0.0001667 0.000165515)
(-4.19205e-05 -2.822e-05 3.56527e-05)
(0 0 -6.78764e-05)
(-6.43632e-05 -0.000238241 3.94941e-05)
(0 0 -4.16096e-05)
(0 0 -3.66986e-05)
(0 0 -3.90384e-05)
(-3.15075e-05 4.78422e-05 2.787e-05)
(4.39082e-05 -7.4198e-08 8.36873e-05)
(0.000116813 1.73831e-06 3.19268e-05)
(-0.000136783 -0.000163225 0.00016579)
(0 0 -7.83698e-05)
(0 0 -0.000178836)
(0 0 -3.47141e-05)
(2.99158e-05 -6.7543e-05 0.000108559)
(0 0 -3.00325e-05)
(0 0 -2.68049e-05)
(0 0 -1.96596e-05)
(-6.28354e-05 -0.000125504 8.47333e-05)
(0.000100094 -9.80069e-06 1.38711e-05)
(0.000103775 7.11991e-05 4.50797e-05)
(0 0 -7.16313e-05)
(0.000182085 -4.23088e-05 7.80269e-06)
(0 0 -4.41969e-05)
(-2.31386e-05 -0.000136884 0.000161724)
(-1.58868e-07 -3.12983e-05 -8.51711e-06)
(3.58886e-05 -0.000122086 0.000125773)
(-0.000204419 -5.46897e-05 1.51399e-05)
(2.32116e-05 -3.19452e-05 1.46336e-05)
(0 0 -2.81927e-05)
(0 0 -0.000115419)
(-9.42073e-05 0.000137163 7.68835e-05)
(-6.52068e-05 -0.000138451 0.000118368)
(0 0 -0.000131931)
(0 0 -0.000277454)
(8.9876e-05 0.000185498 5.5434e-06)
(6.37057e-05 -3.85014e-05 1.94264e-05)
(0 0 -8.39213e-05)
(-9.31491e-05 5.45321e-05 9.3889e-05)
(0 0 -6.65791e-05)
(9.36413e-05 3.59077e-05 6.77799e-05)
(0 0 -3.98621e-05)
(0 0 -0.000100388)
(0 0 -0.00027672)
(0 0 -4.31365e-05)
(1.54805e-06 -0.000130818 0.000121745)
(0 0 -0.000320205)
(0 0 -2.07638e-05)
(-0.000148702 -3.31571e-06 8.89439e-05)
(0 0 -0.000109388)
(0 0 -3.95346e-05)
(0 0 -0.000348096)
(-6.63179e-05 5.13177e-05 0.000141635)
(0.000187362 -7.47398e-05 0.00021101)
(-6.66277e-05 -0.000226345 0.000160096)
)
;
    }
    bottom_fluid_surface
    {
        type            noSlip;
    }
    lateral_surface_1
    {
        type            noSlip;
    }
    lateral_surface_2
    {
        type            noSlip;
    }
    lateral_surface_3
    {
        type            noSlip;
    }
    lateral_surface_4
    {
        type            noSlip;
    }
}


// ************************************************************************* //
