/*--------------------------------*- C++ -*----------------------------------*\
| =========                 |                                                 |
| \\      /  F ield         | OpenFOAM: The Open Source CFD Toolbox           |
|  \\    /   O peration     | Version:  v1612+                                |
|   \\  /    A nd           | Web:      www.OpenFOAM.com                      |
|    \\/     M anipulation  |                                                 |
\*---------------------------------------------------------------------------*/
FoamFile
{
    version     2.0;
    format      ascii;
    class       volScalarField;
    location    "0.95";
    object      alpha.water;
}
// * * * * * * * * * * * * * * * * * * * * * * * * * * * * * * * * * * * * * //

dimensions      [0 0 0 0 0 0 0];

internalField   nonuniform List<scalar> 
1116
(
1
1
1
1
1
1
1
1
1
1
1
1
1
1
1
1
1
1
1
1
1
1
1
1
0.92012
0.920122
0.920121
0.920121
0.920121
0.920119
0.344715
0.34472
0.344719
0.344718
0.344719
0.344712
0.00119934
0.00119933
0.00119931
0.00119931
0.00119935
0.00119927
5.75244e-05
5.75215e-05
5.75196e-05
5.75194e-05
5.75224e-05
5.75166e-05
1.6416e-06
1.64155e-06
1.64146e-06
1.64145e-06
1.64153e-06
1.64134e-06
2.78743e-08
2.78752e-08
2.78732e-08
2.78723e-08
2.78728e-08
2.78687e-08
1.60515e-10
1.6048e-10
1.60434e-10
1.60412e-10
1.60413e-10
1.6037e-10
1.10998e-11
1.11006e-11
1.10987e-11
1.10971e-11
1.10959e-11
1.10921e-11
1
1
1
1
1
1
1
1
1
1
1
1
1
1
1
1
1
1
0.999998
0.999998
0.999998
0.999998
0.999998
0.999998
0.380536
0.380541
0.380539
0.380536
0.380535
0.380529
0.000864013
0.000864148
0.000864123
0.000864106
0.000864113
0.000864099
0.00132125
0.00132143
0.00132146
0.00132145
0.0013214
0.00132134
0.000151371
0.000151378
0.000151384
0.000151387
0.000151385
0.000151367
3.53473e-07
3.5319e-07
3.53084e-07
3.53116e-07
3.53279e-07
3.53323e-07
1.28779e-09
1.28787e-09
1.28777e-09
1.28772e-09
1.28778e-09
1.28756e-09
8.69171e-12
8.69167e-12
8.69037e-12
8.68904e-12
8.68785e-12
8.68487e-12
-2.62917e-13
-2.63185e-13
-2.63254e-13
-2.63229e-13
-2.63118e-13
-2.62992e-13
1
1
1
1
1
1
1
1
1
1
1
1
0.999999
0.999999
0.999999
0.999999
0.999999
0.999999
0.999892
0.999892
0.999892
0.999892
0.999892
0.999892
0.0643563
0.0643591
0.0643589
0.0643585
0.0643585
0.0643595
3.09587e-07
3.09597e-07
3.09609e-07
3.09626e-07
3.09628e-07
3.09619e-07
7.46258e-06
7.46874e-06
7.4691e-06
7.46913e-06
7.46812e-06
7.46757e-06
6.15024e-06
6.15159e-06
6.15195e-06
6.1522e-06
6.15211e-06
6.1513e-06
5.11076e-09
5.10919e-09
5.10842e-09
5.10847e-09
5.10938e-09
5.10879e-09
3.76928e-11
3.76888e-11
3.76846e-11
3.76847e-11
3.7691e-11
3.76871e-11
2.47894e-13
2.47902e-13
2.47858e-13
2.47822e-13
2.47799e-13
2.47713e-13
1.16661e-14
1.16679e-14
1.1666e-14
1.16636e-14
1.1661e-14
1.16558e-14
1
1
1
1
1
1
1
1
1
1
1
1
0.999527
0.999527
0.999527
0.999527
0.999527
0.999527
0.542283
0.542286
0.542286
0.542287
0.542289
0.542292
0.00648599
0.00648632
0.00648631
0.0064864
0.00648667
0.00648705
1.89038e-07
1.89045e-07
1.89054e-07
1.8906e-07
1.89067e-07
1.8906e-07
2.78685e-08
2.78857e-08
2.78853e-08
2.78861e-08
2.78918e-08
2.7879e-08
2.98493e-09
2.98461e-09
2.98422e-09
2.98416e-09
2.98452e-09
2.98416e-09
4.08807e-11
4.08707e-11
4.08699e-11
4.08776e-11
4.08928e-11
4.0898e-11
6.19139e-13
6.19181e-13
6.19104e-13
6.1907e-13
6.19117e-13
6.19017e-13
2.37756e-14
2.37711e-14
2.37724e-14
2.37775e-14
2.37858e-14
2.37909e-14
2.50815e-16
2.50814e-16
2.50781e-16
2.50759e-16
2.50752e-16
2.50691e-16
2.58017e-94
2.58134e-94
2.58096e-94
2.58008e-94
2.57859e-94
2.57528e-94
3.46226e-89
3.46382e-89
3.46329e-89
3.46205e-89
3.46004e-89
3.45585e-89
2.2646e-84
2.26551e-84
2.26513e-84
2.26431e-84
2.26301e-84
2.26029e-84
9.51387e-80
9.51728e-80
9.51552e-80
9.51204e-80
9.50668e-80
9.49534e-80
2.86282e-75
2.86373e-75
2.86315e-75
2.86212e-75
2.86054e-75
2.85717e-75
6.55315e-71
6.555e-71
6.55361e-71
6.55134e-71
6.54782e-71
6.54027e-71
1.19132e-66
1.19163e-66
1.19138e-66
1.19099e-66
1.19037e-66
1.18903e-66
1.79013e-62
1.79057e-62
1.79021e-62
1.78965e-62
1.78876e-62
1.78681e-62
2.32926e-58
2.32979e-58
2.32936e-58
2.32867e-58
2.32759e-58
2.32516e-58
2.80279e-54
2.80336e-54
2.80291e-54
2.80215e-54
2.80098e-54
2.79823e-54
3.14376e-50
3.14362e-50
3.1431e-50
3.14255e-50
3.14177e-50
3.13952e-50
2.80809e-46
2.80782e-46
2.80754e-46
2.8075e-46
2.80755e-46
2.80674e-46
7.92221e-90
7.92931e-90
7.9292e-90
7.9267e-90
7.92222e-90
7.91264e-90
1.07924e-84
1.08019e-84
1.08016e-84
1.07981e-84
1.0792e-84
1.07795e-84
7.13831e-80
7.14429e-80
7.144e-80
7.1417e-80
7.13773e-80
7.1296e-80
3.01331e-75
3.01573e-75
3.01556e-75
3.01461e-75
3.01298e-75
3.0096e-75
9.02832e-71
9.03525e-71
9.03468e-71
9.03193e-71
9.0272e-71
9.0173e-71
2.03225e-66
2.03375e-66
2.03362e-66
2.03303e-66
2.03201e-66
2.02984e-66
3.57192e-62
3.57445e-62
3.57422e-62
3.57324e-62
3.57154e-62
3.56786e-62
5.07548e-58
5.07884e-58
5.07853e-58
5.07725e-58
5.07501e-58
5.07005e-58
6.0982e-54
6.10193e-54
6.10158e-54
6.10017e-54
6.09773e-54
6.0921e-54
6.6207e-50
6.62419e-50
6.6238e-50
6.62248e-50
6.62023e-50
6.61472e-50
6.62587e-46
6.62692e-46
6.62628e-46
6.62554e-46
6.6245e-46
6.6209e-46
4.74764e-42
4.74788e-42
4.74763e-42
4.74773e-42
4.74809e-42
4.74736e-42
1.39166e-85
1.39249e-85
1.39249e-85
1.39221e-85
1.39181e-85
1.39079e-85
2.01285e-80
2.01403e-80
2.01397e-80
2.0136e-80
2.01302e-80
2.01165e-80
1.40404e-75
1.40482e-75
1.40476e-75
1.40451e-75
1.40413e-75
1.4032e-75
6.17991e-71
6.18315e-71
6.18287e-71
6.18182e-71
6.18024e-71
6.17631e-71
1.89867e-66
1.89962e-66
1.89953e-66
1.89924e-66
1.89879e-66
1.89763e-66
4.28529e-62
4.28733e-62
4.28715e-62
4.28655e-62
4.28563e-62
4.28315e-62
7.3389e-58
7.34223e-58
7.34194e-58
7.34102e-58
7.33961e-58
7.33556e-58
9.78447e-54
9.7886e-54
9.78822e-54
9.78712e-54
9.78544e-54
9.78032e-54
1.0388e-49
1.03918e-49
1.03914e-49
1.03904e-49
1.03888e-49
1.03838e-49
8.94937e-46
8.95196e-46
8.95147e-46
8.95073e-46
8.94973e-46
8.9458e-46
7.09715e-42
7.0983e-42
7.09782e-42
7.09744e-42
7.09708e-42
7.09462e-42
3.64632e-38
3.64668e-38
3.64655e-38
3.6467e-38
3.64711e-38
3.64683e-38
1.31427e-81
1.31457e-81
1.31442e-81
1.31416e-81
1.31389e-81
1.31311e-81
2.12838e-76
2.12885e-76
2.12855e-76
2.12818e-76
2.12775e-76
2.1266e-76
1.64595e-71
1.64626e-71
1.64603e-71
1.64576e-71
1.64546e-71
1.6446e-71
7.89726e-67
7.89857e-67
7.89747e-67
7.89629e-67
7.89499e-67
7.89108e-67
2.57731e-62
2.57771e-62
2.57736e-62
2.57702e-62
2.57665e-62
2.57544e-62
5.94804e-58
5.94892e-58
5.94817e-58
5.94747e-58
5.94673e-58
5.94411e-58
9.8779e-54
9.87934e-54
9.8782e-54
9.87721e-54
9.87617e-54
9.87204e-54
1.19732e-49
1.19749e-49
1.19737e-49
1.19727e-49
1.19717e-49
1.19669e-49
1.08872e-45
1.08887e-45
1.08877e-45
1.08869e-45
1.08862e-45
1.08822e-45
7.88997e-42
7.89083e-42
7.89021e-42
7.88987e-42
7.88964e-42
7.88711e-42
4.70922e-38
4.70952e-38
4.70923e-38
4.70923e-38
4.70941e-38
4.70837e-38
1.50194e-34
1.50205e-34
1.502e-34
1.50209e-34
1.50232e-34
1.50227e-34
1
1
1
1
1
1
0.999951
0.999951
0.999951
0.999951
0.999951
0.999951
0.964782
0.964783
0.964783
0.964783
0.964783
0.964784
0.999951
0.999951
0.999951
0.999951
0.999951
0.999951
0.834679
0.83468
0.83468
0.834679
0.83468
0.834682
0.277772
0.277775
0.277774
0.277774
0.277775
0.277779
0.712698
0.712699
0.712699
0.712699
0.7127
0.712702
0.050595
0.0505956
0.0505951
0.050595
0.0505958
0.0505972
-1.12816e-19
-1.26575e-17
-1.81888e-17
-2.60568e-17
-3.41575e-17
-3.15388e-17
0.0214705
0.0214709
0.0214707
0.0214707
0.0214713
0.0214715
1.40909e-07
1.40943e-07
1.40946e-07
1.40937e-07
1.40935e-07
1.40939e-07
5.75184e-08
5.75373e-08
5.75391e-08
5.75357e-08
5.75379e-08
5.754e-08
7.76218e-06
7.76285e-06
7.76274e-06
7.76285e-06
7.76336e-06
7.76314e-06
0.000235177
0.000235184
0.000235184
0.000235183
0.000235182
0.000235178
8.33266e-07
8.33397e-07
8.33401e-07
8.3335e-07
8.33313e-07
8.33342e-07
3.3303e-08
3.33108e-08
3.33103e-08
3.33134e-08
3.33172e-08
3.33103e-08
4.39163e-07
4.40049e-07
4.40042e-07
4.39847e-07
4.40031e-07
4.39431e-07
6.90655e-08
6.91549e-08
6.91534e-08
6.91356e-08
6.91569e-08
6.90997e-08
5.44224e-10
5.44167e-10
5.4422e-10
5.44223e-10
5.44183e-10
5.44376e-10
8.82157e-12
8.82334e-12
8.82332e-12
8.82435e-12
8.82562e-12
8.82375e-12
1.80126e-12
1.80173e-12
1.802e-12
1.80213e-12
1.80214e-12
1.80166e-12
5.10606e-11
5.10738e-11
5.10645e-11
5.106e-11
5.10706e-11
5.10507e-11
1.03113e-12
1.03119e-12
1.03104e-12
1.03095e-12
1.03097e-12
1.03068e-12
1.62055e-14
1.62067e-14
1.62042e-14
1.62026e-14
1.62028e-14
1.6198e-14
1.11351e-12
1.11329e-12
1.11322e-12
1.11335e-12
1.11371e-12
1.11375e-12
1.92695e-14
1.92667e-14
1.92653e-14
1.92666e-14
1.92709e-14
1.92705e-14
2.70866e-16
2.70887e-16
2.70852e-16
2.70829e-16
2.7083e-16
2.70769e-16
1.9054e-14
1.90508e-14
1.905e-14
1.90522e-14
1.90571e-14
1.90581e-14
9.67852e-16
9.67713e-16
9.67611e-16
9.6767e-16
9.67884e-16
9.67837e-16
3.58216e-17
3.58144e-17
3.58102e-17
3.58129e-17
3.58211e-17
3.58234e-17
8.33471e-16
8.33332e-16
8.33375e-16
8.33577e-16
8.33924e-16
8.34066e-16
3.24389e-17
3.24332e-17
3.24327e-17
3.24386e-17
3.24495e-17
3.24549e-17
8.808e-18
8.80699e-18
8.80683e-18
8.80815e-18
8.81083e-18
8.81124e-18
3.1374e-17
3.13739e-17
3.13727e-17
3.13741e-17
3.13777e-17
3.13771e-17
7.62076e-18
7.62031e-18
7.61994e-18
7.62051e-18
7.622e-18
7.62164e-18
1.46025e-19
1.46016e-19
1.4601e-19
1.46023e-19
1.46053e-19
1.46051e-19
2.35773e-28
2.35775e-28
2.35768e-28
2.35787e-28
2.35828e-28
2.35824e-28
1.62025e-30
1.62027e-30
1.62022e-30
1.62036e-30
1.62066e-30
1.62066e-30
4.06207e-33
4.06213e-33
4.06204e-33
4.06242e-33
4.06319e-33
4.06322e-33
6.46091e-26
6.46092e-26
6.4607e-26
6.46118e-26
6.46229e-26
6.46215e-26
5.63535e-28
5.63536e-28
5.63518e-28
5.63566e-28
5.63669e-28
5.63667e-28
2.00904e-30
2.00905e-30
2.009e-30
2.00918e-30
2.00956e-30
2.00957e-30
1.2198e-23
1.21979e-23
1.21974e-23
1.21983e-23
1.22003e-23
1.22e-23
1.34259e-25
1.34258e-25
1.34253e-25
1.34264e-25
1.34289e-25
1.34287e-25
6.73886e-28
6.73884e-28
6.73864e-28
6.73923e-28
6.7405e-28
6.74053e-28
1.55359e-21
1.55357e-21
1.55349e-21
1.55359e-21
1.55384e-21
1.55378e-21
2.16337e-23
2.16332e-23
2.16324e-23
2.1634e-23
2.1638e-23
2.16376e-23
1.52181e-25
1.52178e-25
1.52173e-25
1.52186e-25
1.52215e-25
1.52214e-25
1.3056e-19
1.30557e-19
1.3055e-19
1.30557e-19
1.30577e-19
1.30569e-19
2.32839e-21
2.32831e-21
2.32821e-21
2.32838e-21
2.3288e-21
2.32874e-21
2.28613e-23
2.28607e-23
2.28598e-23
2.28616e-23
2.28659e-23
2.28658e-23
7.09208e-18
7.09183e-18
7.09139e-18
7.0917e-18
7.09277e-18
7.09216e-18
1.65367e-19
1.6536e-19
1.65352e-19
1.65363e-19
1.65394e-19
1.65388e-19
2.23149e-21
2.23139e-21
2.2313e-21
2.23148e-21
2.23191e-21
2.23188e-21
5.05765e-78
5.05818e-78
5.05818e-78
5.05842e-78
5.0591e-78
5.05853e-78
1.00262e-81
1.00274e-81
1.00273e-81
1.00278e-81
1.00291e-81
1.0028e-81
4.0184e-86
4.0189e-86
4.01885e-86
4.01909e-86
4.01962e-86
4.01915e-86
1.13632e-72
1.13644e-72
1.13641e-72
1.13648e-72
1.13664e-72
1.13657e-72
3.02737e-76
3.02769e-76
3.02762e-76
3.02782e-76
3.02823e-76
3.02802e-76
1.40362e-80
1.40379e-80
1.40376e-80
1.40385e-80
1.40404e-80
1.40394e-80
1.21322e-67
1.21332e-67
1.2133e-67
1.21338e-67
1.21356e-67
1.21351e-67
4.47978e-71
4.48018e-71
4.48008e-71
4.4804e-71
4.48109e-71
4.48087e-71
2.52128e-75
2.52154e-75
2.52149e-75
2.52167e-75
2.52205e-75
2.52192e-75
7.95537e-63
7.9559e-63
7.95576e-63
7.95639e-63
7.95772e-63
7.95747e-63
4.1328e-66
4.13311e-66
4.13304e-66
4.13339e-66
4.13409e-66
4.13397e-66
2.94426e-70
2.94453e-70
2.94448e-70
2.94472e-70
2.94521e-70
2.94512e-70
3.48156e-58
3.48178e-58
3.48172e-58
3.48203e-58
3.48266e-58
3.4826e-58
2.54562e-61
2.5458e-61
2.54577e-61
2.54601e-61
2.54647e-61
2.54645e-61
2.3809e-65
2.38111e-65
2.38108e-65
2.3813e-65
2.38173e-65
2.3817e-65
1.04219e-53
1.04225e-53
1.04224e-53
1.04234e-53
1.04254e-53
1.04253e-53
1.05724e-56
1.05731e-56
1.0573e-56
1.05741e-56
1.05761e-56
1.05762e-56
1.34126e-60
1.34137e-60
1.34136e-60
1.3415e-60
1.34175e-60
1.34176e-60
2.118e-49
2.11812e-49
2.11811e-49
2.11832e-49
2.11873e-49
2.11873e-49
2.89601e-52
2.89619e-52
2.89617e-52
2.89648e-52
2.89705e-52
2.89708e-52
5.14006e-56
5.14045e-56
5.14044e-56
5.14098e-56
5.14198e-56
5.14204e-56
2.82456e-45
2.82472e-45
2.82471e-45
2.82499e-45
2.82553e-45
2.82554e-45
5.01308e-48
5.01335e-48
5.01332e-48
5.01385e-48
5.01484e-48
5.0149e-48
1.28676e-51
1.28684e-51
1.28684e-51
1.28698e-51
1.28723e-51
1.28725e-51
2.32837e-41
2.32849e-41
2.32847e-41
2.32869e-41
2.32913e-41
2.32912e-41
5.21036e-44
5.2106e-44
5.21056e-44
5.21109e-44
5.2121e-44
5.21216e-44
2.00678e-47
2.0069e-47
2.00689e-47
2.0071e-47
2.00748e-47
2.00752e-47
1.1046e-37
1.10465e-37
1.10463e-37
1.10473e-37
1.10492e-37
1.10492e-37
3.10878e-40
3.10889e-40
3.10885e-40
3.10916e-40
3.10975e-40
3.10979e-40
1.86303e-43
1.86313e-43
1.86311e-43
1.8633e-43
1.86366e-43
1.86369e-43
2.85468e-34
2.85476e-34
2.85469e-34
2.85493e-34
2.85543e-34
2.8554e-34
1.02116e-36
1.02118e-36
1.02116e-36
1.02126e-36
1.02145e-36
1.02146e-36
9.89613e-40
9.89651e-40
9.89638e-40
9.89736e-40
9.89925e-40
9.89941e-40
3.74299e-31
3.74307e-31
3.74296e-31
3.74327e-31
3.74392e-31
3.74389e-31
1.76826e-33
1.76829e-33
1.76825e-33
1.76842e-33
1.76875e-33
1.76876e-33
2.96283e-36
2.96292e-36
2.96286e-36
2.96315e-36
2.96371e-36
2.96375e-36
)
;

boundaryField
{
    seabed_topleft_surface
    {
        type            zeroGradient;
    }
    seabed_topright_surface
    {
        type            zeroGradient;
    }
    breakwater_top_surface
    {
        type            zeroGradient;
    }
    breakwater_left_surface
    {
        type            zeroGradient;
    }
    breakwater_right_surface
    {
        type            zeroGradient;
    }
    water_front_surface
    {
        type            zeroGradient;
    }
    water_back_surface
    {
        type            zeroGradient;
    }
    water_left_surface
    {
        type            zeroGradient;
    }
    water_right_surface
    {
        type            zeroGradient;
    }
    water_top_surface
    {
        type            inletOutlet;
        inletValue      uniform 0;
        value           nonuniform List<scalar> 
180
(
0.964782
0.964783
0.964783
0.964783
0.964783
0.964784
0.277772
0.277775
0.277774
0.277774
0.277775
0.277779
0
0
0
0
0
0
0
0
0
0
0
0
0
0
0
0
0
0
6.90655e-08
6.91549e-08
6.91534e-08
6.91356e-08
6.91569e-08
6.90997e-08
1.80126e-12
1.80173e-12
1.802e-12
1.80213e-12
1.80214e-12
1.80166e-12
1.62055e-14
1.62067e-14
1.62042e-14
1.62026e-14
1.62028e-14
1.6198e-14
2.70866e-16
2.70887e-16
2.70852e-16
2.70829e-16
2.7083e-16
2.70769e-16
3.58216e-17
3.58144e-17
3.58102e-17
3.58129e-17
3.58211e-17
3.58234e-17
8.808e-18
8.80699e-18
8.80683e-18
8.80815e-18
8.81083e-18
8.81124e-18
1.46025e-19
1.46016e-19
1.4601e-19
1.46023e-19
1.46053e-19
1.46051e-19
4.06207e-33
4.06213e-33
4.06204e-33
4.06242e-33
4.06319e-33
4.06322e-33
2.00904e-30
2.00905e-30
2.009e-30
2.00918e-30
2.00956e-30
2.00957e-30
6.73886e-28
6.73884e-28
6.73864e-28
6.73923e-28
6.7405e-28
6.74053e-28
1.52181e-25
1.52178e-25
1.52173e-25
1.52186e-25
1.52215e-25
1.52214e-25
2.28613e-23
2.28607e-23
2.28598e-23
2.28616e-23
2.28659e-23
2.28658e-23
2.23149e-21
2.23139e-21
2.2313e-21
2.23148e-21
2.23191e-21
2.23188e-21
4.0184e-86
4.0189e-86
4.01885e-86
4.01909e-86
4.01962e-86
4.01915e-86
1.40362e-80
1.40379e-80
1.40376e-80
1.40385e-80
1.40404e-80
1.40394e-80
2.52128e-75
2.52154e-75
2.52149e-75
2.52167e-75
2.52205e-75
2.52192e-75
2.94426e-70
2.94453e-70
2.94448e-70
2.94472e-70
2.94521e-70
2.94512e-70
2.3809e-65
2.38111e-65
2.38108e-65
2.3813e-65
2.38173e-65
2.3817e-65
1.34126e-60
1.34137e-60
1.34136e-60
1.3415e-60
1.34175e-60
1.34176e-60
5.14006e-56
5.14045e-56
5.14044e-56
5.14098e-56
5.14198e-56
5.14204e-56
1.28676e-51
1.28684e-51
1.28684e-51
1.28698e-51
1.28723e-51
1.28725e-51
2.00678e-47
2.0069e-47
2.00689e-47
2.0071e-47
2.00748e-47
2.00752e-47
1.86303e-43
1.86313e-43
1.86311e-43
1.8633e-43
1.86366e-43
1.86369e-43
9.89613e-40
9.89651e-40
9.89638e-40
9.89736e-40
9.89925e-40
9.89941e-40
2.96283e-36
2.96292e-36
2.96286e-36
2.96315e-36
2.96371e-36
2.96375e-36
)
;
    }
}


// ************************************************************************* //
