/*--------------------------------*- C++ -*----------------------------------*\
| =========                 |                                                 |
| \\      /  F ield         | OpenFOAM: The Open Source CFD Toolbox           |
|  \\    /   O peration     | Version:  v1612+                                |
|   \\  /    A nd           | Web:      www.OpenFOAM.com                      |
|    \\/     M anipulation  |                                                 |
\*---------------------------------------------------------------------------*/
FoamFile
{
    version     2.0;
    format      ascii;
    class       surfaceScalarField;
    location    "2.1";
    object      alphaPhi;
}
// * * * * * * * * * * * * * * * * * * * * * * * * * * * * * * * * * * * * * //

dimensions      [0 3 -1 0 0 0 0];

internalField   nonuniform List<scalar> 
2916
(
-3.19421e-06
0.608701
-0.607109
-4.73502e-07
0.608703
-0.607118
6.88542e-07
0.608703
-0.607116
4.70982e-07
0.608703
-0.607114
9.71394e-07
0.608704
-0.607116
0.608702
-0.607113
-5.55828e-06
1.29012
-0.679825
-9.52165e-07
1.29013
-0.679839
-4.87069e-07
1.29013
-0.679834
-1.26493e-07
1.29012
-0.679834
3.4254e-06
1.29012
-0.679836
1.29012
-0.679826
-3.69239e-06
1.75325
-0.460476
-1.44768e-06
1.75326
-0.460485
-3.32292e-06
1.75325
-0.46048
-3.39248e-06
1.75325
-0.460481
2.09925e-06
1.75325
-0.460486
1.75324
-0.460474
-5.59305e-06
2.11077
-0.353602
-5.15577e-06
2.11078
-0.35361
-7.74277e-06
2.11077
-0.353607
-6.62475e-06
2.11077
-0.353611
8.19709e-08
2.11077
-0.353617
2.11076
-0.353605
-9.14525e-06
2.39323
-0.278251
-8.93868e-06
2.39324
-0.278261
-1.13383e-05
2.39324
-0.278258
-9.47842e-06
2.39323
-0.278263
-3.10139e-06
2.39324
-0.27827
2.39322
-0.278261
-1.16376e-05
2.65816
-0.261465
-1.11909e-05
2.65817
-0.261477
-1.30439e-05
2.65817
-0.261475
-1.13626e-05
2.65817
-0.261479
-4.30638e-06
2.65817
-0.261486
2.65815
-0.261479
-7.99044e-06
2.90763
-0.263879
-8.29015e-06
2.90764
-0.263892
-9.80428e-06
2.90764
-0.26389
-8.39988e-06
2.90764
-0.263893
-7.33469e-07
2.90764
-0.263899
2.90762
-0.263891
-5.91518e-06
3.06114
-0.207351
-3.39897e-06
3.06115
-0.207363
-5.42829e-06
3.06115
-0.207359
-4.19972e-06
3.06115
-0.207361
3.77274e-06
3.06115
-0.207366
3.06112
-0.207356
-5.6116e-06
2.93483
-0.00184226
-6.88184e-07
2.93484
-0.0018506
-2.15187e-06
2.93484
-0.00184829
-1.56225e-06
2.93483
-0.00184915
5.53906e-06
2.93484
-0.00185331
2.93481
-0.00184361
-2.54904e-06
2.34053
0.46781
7.4904e-07
2.34055
0.467792
1.56698e-06
2.34055
0.467785
2.40784e-06
2.34055
0.467784
3.23001e-06
2.34056
0.467775
2.34053
0.467785
9.72897e-06
1.27471
0.938912
7.0864e-06
1.27476
0.938891
6.16399e-06
1.27474
0.938901
1.27172e-06
1.27475
0.938901
-3.68707e-06
1.27477
0.938895
1.27472
0.938899
-5.90481e-05
1.03445
-2.83683e-05
1.03443
-2.5254e-05
1.03444
-1.18869e-05
1.03443
2.93658e-05
1.03442
1.03445
-4.0947e-06
0.780994
-1.38648
-1.37227e-06
0.780996
-1.3865
-1.90882e-06
0.780997
-1.38649
-4.3258e-06
0.780996
-1.38649
-4.74413e-06
0.780995
-1.38649
0.780995
-1.38649
1.63333e-07
1.37586
-1.09938
-1.96451e-06
1.37587
-1.09939
-5.45669e-06
1.37587
-1.09939
-5.65213e-06
1.37587
-1.09939
-3.6984e-06
1.37587
-1.09939
1.37586
-1.09939
2.12677e-06
1.6914
-0.556219
-5.0936e-06
1.69142
-0.556218
-8.95355e-06
1.69142
-0.556217
-9.99878e-06
1.69141
-0.556221
-1.12593e-05
1.69141
-0.556225
1.6914
-0.556222
-3.40813e-06
1.86853
-0.348617
-9.23653e-06
1.86855
-0.348617
-1.00137e-05
1.86854
-0.348618
-8.72708e-06
1.86854
-0.348622
-1.02631e-05
1.86854
-0.348626
1.86853
-0.348625
4.02423e-06
1.81291
-0.128753
-6.29887e-06
1.81293
-0.12875
-7.46155e-06
1.81293
-0.128752
-4.59239e-06
1.81292
-0.128755
-9.03149e-06
1.81292
-0.128756
1.8129
-0.128757
8.56488e-06
1.54289
-0.0201959
2.97027e-08
1.5429
-0.0201917
-2.19844e-06
1.54289
-0.0201923
-5.35948e-07
1.54288
-0.0201933
-4.27315e-06
1.54288
-0.0201936
1.54285
-0.0201941
1.09492e-05
1.10517
-0.00202977
-8.03516e-07
1.10517
-0.0020294
-4.32825e-06
1.10516
-0.00202947
-2.31676e-06
1.10516
-0.00202956
-3.42052e-06
1.10515
-0.00202958
1.10512
-0.00202963
1.08616e-05
0.658111
-0.0002355
-2.61759e-06
0.658121
-0.000235461
-8.00561e-06
0.658108
-0.00023547
-6.27458e-06
0.658101
-0.000235477
-4.57081e-06
0.6581
-0.00023548
0.658072
-0.000235476
7.53092e-06
0.493653
-2.49375e-05
2.47989e-06
0.493667
-2.49358e-05
-1.7375e-06
0.493657
-2.4933e-05
-2.23097e-06
0.493649
-2.49329e-05
-9.1484e-07
0.493645
-2.49344e-05
0.493629
-2.49274e-05
6.11065e-06
0.779688
0.0192123
3.1297e-06
0.779694
0.0192133
-5.22261e-07
0.77968
0.0192118
-2.48493e-06
0.779674
0.0192113
-3.14206e-06
0.779662
0.0192116
0.779652
0.0192089
5.59154e-06
1.06823
0.207979
8.42674e-06
1.06824
0.207995
-1.25931e-06
1.06823
0.207981
-7.90363e-06
1.06823
0.20798
1.66071e-05
1.06817
0.208029
1.06823
0.207925
-4.28781e-05
1.73165
-8.61476e-06
1.73159
1.99477e-06
1.73162
2.51025e-05
1.73161
4.748e-05
1.73156
1.73168
-1.60388e-06
0.471437
-1.15311
5.54286e-07
0.471432
-1.15312
1.15231e-06
0.471437
-1.15312
-2.8234e-06
0.471439
-1.15312
-7.75414e-06
0.471438
-1.15312
0.471435
-1.15315
3.40499e-06
0.256829
-0.0495328
9.87438e-07
0.256825
-0.0495091
-2.70232e-06
0.256825
-0.0495747
-1.23185e-06
0.256828
-0.0495023
3.30395e-06
0.25683
-0.0494616
0.256829
-0.0496875
2.41105e-06
0.264766
-0.000771667
-2.00851e-07
0.26476
-0.000771252
1.00633e-06
0.26476
-0.000772327
2.17109e-06
0.264762
-0.000771128
-2.12634e-06
0.264763
-0.000770488
0.264768
-0.000774292
5.26194e-06
0.138196
-2.42651e-05
3.31261e-06
0.138189
-2.42511e-05
3.19795e-06
0.138191
-2.42831e-05
2.67823e-06
0.138193
-2.42483e-05
-1.16855e-06
0.138194
-2.42301e-05
0.138196
-2.43438e-05
6.686e-07
0.0224918
-8.08605e-07
6.07314e-07
0.0224871
-8.08215e-07
5.14258e-07
0.0224877
-8.0893e-07
3.87394e-07
0.0224888
-8.08163e-07
1.25553e-07
0.0224891
-8.07738e-07
0.0224897
-8.10258e-07
7.9792e-08
0.00229579
-7.51054e-09
8.66855e-08
0.00229538
-7.50836e-09
6.29489e-08
0.00229546
-7.51719e-09
3.94745e-08
0.00229556
-7.51166e-09
1.51899e-08
0.00229559
-7.50804e-09
0.00229563
-7.53065e-09
-3.44572e-09
0.000266051
-2.63369e-08
-3.58766e-09
0.000266009
-2.63112e-08
-4.71225e-09
0.000266018
-2.63339e-08
-5.36345e-09
0.000266026
-2.63305e-08
-7.31358e-09
0.00026603
-2.63293e-08
0.000266024
-2.63088e-08
-1.76821e-09
3.11644e-05
-6.35959e-07
-2.39432e-09
3.11591e-05
-6.35548e-07
-2.40321e-09
3.11597e-05
-6.35916e-07
-2.15881e-09
3.116e-05
-6.35887e-07
-2.33029e-09
3.11612e-05
-6.35899e-07
3.11572e-05
-6.35637e-07
-2.02374e-10
5.25804e-06
-2.55988e-08
-4.75935e-10
5.25718e-06
-2.56543e-08
-5.03546e-10
5.25689e-06
-2.55897e-08
-4.75138e-10
5.25665e-06
-2.55911e-08
-4.33229e-10
5.25709e-06
-2.56161e-08
5.25465e-06
-2.55574e-08
5.31375e-07
0.0191848
3.42802e-05
4.4137e-07
0.0191864
3.4252e-05
1.83646e-07
0.019185
3.42801e-05
-1.56658e-07
0.0191846
3.42736e-05
-2.40793e-07
0.0191848
3.42285e-05
0.0191817
3.42743e-05
2.11819e-06
0.203427
0.0221007
3.93495e-06
0.203437
0.0221099
1.65875e-06
0.203433
0.0221014
-7.01317e-07
0.203431
0.0221032
2.09906e-06
0.203445
0.0221338
0.203404
0.0220692
-2.74403e-05
1.3472
2.136e-05
1.34713
3.76704e-05
1.34715
2.53174e-05
1.3472
-5.13132e-05
1.34738
1.34694
2.08789e-07
0.0497441
-5.26901e-06
2.68991e-06
0.0497199
-5.26774e-06
-1.16351e-06
0.0497868
-5.26982e-06
-2.75274e-06
0.0497129
-5.27366e-06
3.10034e-06
0.0496713
-5.2757e-06
0.0499018
-5.27533e-06
-7.93349e-09
0.00077788
-0.000547837
-6.57736e-08
0.000777448
-0.000547867
8.37043e-08
0.00077859
-0.000547892
3.23822e-09
0.000777319
-0.0005479
-2.69222e-07
0.000776644
-0.000547905
0.000780675
-0.000547913
-7.41423e-10
2.29576e-05
-4.57309e-06
-1.61389e-10
2.29436e-05
-4.56811e-06
1.13256e-09
2.29764e-05
-4.56967e-06
3.70709e-10
2.2941e-05
-4.56299e-06
-1.38285e-09
2.29225e-05
-4.55832e-06
2.30384e-05
-4.57863e-06
4.41277e-11
5.54693e-07
-1.57873e-06
7.86026e-11
5.54365e-07
-1.57815e-06
7.65455e-11
5.5512e-07
-1.57887e-06
4.22843e-11
5.54364e-07
-1.57771e-06
1.15581e-11
5.53968e-07
-1.57703e-06
5.56561e-07
-1.58048e-06
2.93149e-12
7.17954e-09
-2.58431e-07
4.5758e-12
7.17764e-09
-2.58364e-07
4.19635e-12
7.18632e-09
-2.58336e-07
2.77479e-12
7.18086e-09
-2.5831e-07
1.66117e-12
7.17725e-09
-2.58274e-07
7.20017e-09
-2.58248e-07
-1.33937e-14
-3.30205e-10
-1.08046e-12
-1.01983e-14
-3.29931e-10
-1.08151e-12
-8.29124e-15
-3.30089e-10
-1.08119e-12
-2.63432e-15
-3.30012e-10
-1.0809e-12
8.11658e-15
-3.30012e-10
-1.08106e-12
-3.29683e-10
-1.07972e-12
-9.86393e-14
-2.62753e-08
-3.94795e-10
-1.06672e-13
-2.62491e-08
-3.94693e-10
-8.7125e-14
-2.6272e-08
-3.94854e-10
-4.1799e-14
-2.62687e-08
-3.94799e-10
-5.56877e-15
-2.62677e-08
-3.94817e-10
-2.62468e-08
-3.94467e-10
-1.98804e-12
-6.49316e-07
-1.391e-08
-2.31579e-12
-6.48879e-07
-1.39101e-08
-1.8135e-12
-6.4927e-07
-1.39138e-08
-1.00737e-12
-6.49239e-07
-1.39125e-08
-2.91158e-12
-6.49247e-07
-1.39131e-08
-6.48977e-07
-1.39077e-08
9.56985e-11
-7.0386e-07
4.52947e-09
-6.58102e-12
-7.0322e-07
4.52733e-09
1.04289e-10
-7.03843e-07
4.53265e-09
1.28512e-10
-7.03741e-07
4.5312e-09
8.80909e-11
-7.03716e-07
4.53718e-09
-7.03433e-07
4.51202e-09
2.35732e-08
8.65877e-07
2.92414e-05
1.56324e-08
8.61253e-07
2.92519e-05
2.60361e-08
8.67207e-07
2.92543e-05
2.98814e-08
8.67733e-07
2.9256e-05
-4.58235e-09
8.65565e-07
2.92517e-05
8.62724e-07
2.92501e-05
5.89307e-07
0.0205404
0.00141297
7.65301e-07
0.02055
0.00141312
5.51513e-07
0.0205417
0.00141317
3.11714e-07
0.0205433
0.0014134
8.64804e-07
0.020573
0.00141379
0.0205109
0.00141218
1.29201e-05
0.168728
2.13003e-05
0.168681
2.59591e-05
0.168679
1.38682e-06
0.168748
-8.73195e-05
0.169049
0.168242
-1.83728e-69
1.86748e-65
-5.07792e-62
-1.71536e-70
1.87095e-65
-5.0875e-62
4.16687e-71
1.87092e-65
-5.08704e-62
2.93024e-70
1.87114e-65
-5.08754e-62
-4.22946e-71
1.87211e-65
-5.08978e-62
1.86898e-65
-5.08073e-62
3.30028e-65
7.41948e-61
-1.06824e-57
1.91305e-65
7.43324e-61
-1.07025e-57
7.3586e-66
7.43299e-61
-1.07017e-57
6.6556e-67
7.43404e-61
-1.0703e-57
1.99494e-66
7.43781e-61
-1.07078e-57
7.42593e-61
-1.06897e-57
1.28926e-60
1.20613e-56
-1.22753e-53
4.79587e-61
1.20817e-56
-1.22961e-53
2.89738e-62
1.20807e-56
-1.22948e-53
-2.19838e-61
1.20817e-56
-1.22957e-53
-2.76906e-61
1.20871e-56
-1.23007e-53
1.20674e-56
-1.22799e-53
1.44528e-56
1.215e-52
-9.69478e-50
3.33872e-57
1.21664e-52
-9.70762e-50
-3.51898e-57
1.21638e-52
-9.70551e-50
-7.51447e-57
1.21636e-52
-9.70537e-50
-7.8842e-57
1.21679e-52
-9.70881e-50
1.21481e-52
-9.69296e-50
7.94157e-53
8.25192e-49
-5.36098e-46
-1.33331e-53
8.25803e-49
-5.36478e-46
-7.63652e-53
8.25438e-49
-5.36251e-46
-1.11564e-52
8.25302e-49
-5.36186e-46
-1.03376e-52
8.25518e-49
-5.36362e-46
8.24238e-49
-5.35573e-46
7.73747e-50
3.52859e-45
-1.89449e-42
-4.06681e-49
3.5283e-45
-1.89444e-42
-7.62087e-49
3.52577e-45
-1.89326e-42
-9.16991e-49
3.52491e-45
-1.89303e-42
-7.62672e-49
3.526e-45
-1.89391e-42
3.52155e-45
-1.8919e-42
-9.96971e-46
8.21144e-42
-3.67133e-39
-2.39398e-45
8.20503e-42
-3.66997e-39
-3.30513e-45
8.19837e-42
-3.66799e-39
-3.50425e-45
8.1976e-42
-3.66848e-39
-2.66575e-45
8.20296e-42
-3.67177e-39
8.19809e-42
-3.6707e-39
-2.39357e-42
7.7483e-39
-2.85418e-36
-3.85637e-42
7.73979e-39
-2.85441e-36
-4.56035e-42
7.73572e-39
-2.85458e-36
-4.41163e-42
7.73915e-39
-2.8569e-36
-3.13232e-42
7.74992e-39
-2.86172e-36
7.75345e-39
-2.86395e-36
-9.73164e-40
2.04849e-36
-5.93528e-34
-1.29701e-39
2.04662e-36
-5.94845e-34
-1.34665e-39
2.04722e-36
-5.95771e-34
-1.17957e-39
2.05037e-36
-5.97017e-34
-7.72041e-40
2.05599e-36
-5.98754e-34
2.06042e-36
-6.00048e-34
-4.87223e-38
9.7605e-35
4.26607e-36
-5.40881e-38
9.75989e-35
4.23988e-36
-4.60138e-38
9.7571e-35
4.22328e-36
-3.22545e-38
9.76209e-35
4.21588e-36
-1.646e-38
9.77585e-35
4.21581e-36
9.77741e-35
4.2118e-36
-2.32351e-35
6.24308e-32
1.8556e-32
-1.87405e-35
6.25161e-32
1.85601e-32
-9.18295e-36
6.25171e-32
1.85551e-32
-9.90462e-38
6.25467e-32
1.85645e-32
4.60327e-36
6.26222e-32
1.85915e-32
6.26228e-32
1.85996e-32
7.60251e-33
2.98015e-29
8.45277e-33
2.98637e-29
7.29256e-33
2.9863e-29
6.18208e-33
2.98623e-29
4.81967e-33
2.9871e-29
2.9833e-29
-5.41264e-66
5.11381e-62
-1.11312e-58
-2.70611e-67
5.12328e-62
-1.11523e-58
1.09317e-66
5.12301e-62
-1.11514e-58
2.01465e-66
5.12338e-62
-1.11521e-58
2.76736e-66
5.12569e-62
-1.11566e-58
5.11636e-62
-1.11357e-58
2.73258e-62
2.12028e-57
-2.47902e-54
1.12268e-62
2.12418e-57
-2.4837e-54
1.08842e-62
2.12403e-57
-2.48351e-54
9.75775e-63
2.1242e-57
-2.4837e-54
3.83465e-62
2.1251e-57
-2.48469e-54
2.12139e-57
-2.4802e-54
1.3394e-57
3.5478e-53
-2.92688e-50
-5.06385e-58
3.5539e-53
-2.93203e-50
-1.196e-57
3.5535e-53
-2.93171e-50
-1.54018e-57
3.5536e-53
-2.93181e-50
-1.47594e-57
3.55491e-53
-2.93284e-50
3.5487e-53
-2.92756e-50
4.17668e-54
3.60233e-49
-2.28889e-46
-2.2104e-53
3.60766e-49
-2.29236e-46
-3.30072e-53
3.60693e-49
-2.29193e-46
-3.74326e-53
3.60675e-49
-2.29185e-46
-3.50955e-53
3.60779e-49
-2.29253e-46
3.60156e-49
-2.28853e-46
-1.09662e-49
2.39719e-45
-1.20989e-42
-3.28624e-49
2.39987e-45
-1.21129e-42
-4.20441e-49
2.39902e-45
-1.21092e-42
-4.37405e-49
2.39865e-45
-1.21079e-42
-3.697e-49
2.39916e-45
-1.21111e-42
2.39517e-45
-1.20914e-42
-1.47344e-45
9.66063e-42
-3.96122e-39
-2.50255e-45
9.66695e-42
-3.96441e-39
-2.87221e-45
9.66194e-42
-3.9628e-39
-2.76474e-45
9.65985e-42
-3.96236e-39
-2.09319e-45
9.66196e-42
-3.9637e-39
9.6475e-42
-3.9583e-39
-5.91638e-42
1.98811e-38
-6.9598e-36
-8.23351e-42
1.98845e-38
-6.9645e-36
-8.5987e-42
1.98726e-38
-6.96226e-36
-7.62072e-42
1.98698e-38
-6.9627e-36
-5.17044e-42
1.98779e-38
-6.9669e-36
1.98562e-38
-6.96085e-36
-7.58842e-39
1.72297e-35
-5.34518e-33
-9.03905e-39
1.72282e-35
-5.35146e-33
-8.25365e-39
1.72203e-35
-5.35201e-33
-6.36649e-39
1.72228e-35
-5.35453e-33
-3.69228e-39
1.72366e-35
-5.36003e-33
1.72276e-35
-5.35839e-33
-2.65563e-36
5.30022e-33
-1.43924e-30
-2.42097e-36
5.29985e-33
-1.44325e-30
-1.48298e-36
5.29906e-33
-1.4445e-30
-5.50892e-37
5.30223e-33
-1.44588e-30
8.66823e-39
5.30945e-33
-1.44782e-30
5.31065e-33
-1.44782e-30
-8.31526e-35
1.48948e-31
3.7354e-33
-3.78059e-35
1.4863e-31
3.58277e-33
1.64829e-35
1.48518e-31
3.5319e-33
5.0221e-35
1.48591e-31
3.5189e-33
4.8948e-35
1.48839e-31
3.52678e-33
1.48974e-31
3.54016e-33
1.91927e-32
9.80271e-29
4.55488e-29
5.50356e-32
9.80726e-29
4.55428e-29
8.21428e-32
9.80511e-29
4.55373e-29
8.92725e-32
9.80901e-29
4.55724e-29
6.79665e-32
9.82135e-29
4.56522e-29
9.8247e-29
4.56954e-29
2.23451e-29
5.93814e-26
1.9068e-29
5.94876e-26
1.04482e-29
5.94798e-26
2.89289e-30
5.94739e-26
-6.34897e-31
5.94872e-26
5.94119e-26
-7.44376e-63
5.37659e-59
-9.03172e-56
2.60709e-64
5.38666e-59
-9.049e-56
2.79259e-63
5.38632e-59
-9.04817e-56
4.53119e-63
5.38662e-59
-9.0486e-56
4.99429e-63
5.38881e-59
-9.05185e-56
5.37875e-59
-9.03408e-56
-2.40011e-59
2.3624e-54
-2.14282e-51
1.27835e-59
2.36677e-54
-2.14689e-51
3.63947e-59
2.36658e-54
-2.14671e-51
5.87266e-59
2.36671e-54
-2.14681e-51
1.00366e-58
2.3676e-54
-2.14758e-51
2.36333e-54
-2.14351e-51
1.82049e-55
4.05278e-50
-2.56057e-47
-1.11476e-54
4.05992e-50
-2.56519e-47
-1.52603e-54
4.05946e-50
-2.56491e-47
-1.53138e-54
4.05951e-50
-2.56495e-47
-1.17052e-54
4.06085e-50
-2.56576e-47
4.05354e-50
-2.56096e-47
-9.34256e-51
4.05169e-46
-1.92892e-43
-3.28092e-50
4.0582e-46
-1.9321e-43
-4.09964e-50
4.05749e-46
-1.93178e-43
-4.12876e-50
4.05731e-46
-1.93172e-43
-3.52533e-50
4.0584e-46
-1.93225e-43
4.05119e-46
-1.92873e-43
-2.18455e-46
2.59266e-42
-9.53359e-40
-3.8795e-46
2.59627e-42
-9.54739e-40
-4.33557e-46
2.59559e-42
-9.54519e-40
-4.06166e-46
2.59531e-42
-9.54444e-40
-3.15311e-46
2.59588e-42
-9.54678e-40
2.59141e-42
-9.53024e-40
-1.68964e-42
1.04206e-38
-2.95729e-36
-2.30838e-42
1.04325e-38
-2.96111e-36
-2.31829e-42
1.0429e-38
-2.96032e-36
-1.97067e-42
1.04275e-38
-2.96008e-36
-1.32354e-42
1.04298e-38
-2.9609e-36
1.0413e-38
-2.95623e-36
-5.24844e-39
2.46291e-35
-5.29569e-33
-5.98962e-39
2.46513e-35
-5.30247e-33
-5.11954e-39
2.46423e-35
-5.30142e-33
-3.57992e-39
2.46399e-35
-5.30145e-33
-1.81882e-39
2.46476e-35
-5.30347e-33
2.4614e-35
-5.29637e-33
-5.92434e-36
2.89024e-32
-4.5805e-30
-4.79911e-36
2.89236e-32
-4.58751e-30
-2.10087e-36
2.89151e-32
-4.58749e-30
3.10325e-37
2.89164e-32
-4.58824e-30
1.27679e-36
2.89309e-32
-4.5906e-30
2.89002e-32
-4.58535e-30
-1.42589e-33
1.48144e-29
-1.75707e-27
6.48571e-34
1.48252e-29
-1.76076e-27
2.91407e-33
1.48231e-29
-1.76122e-27
4.11551e-33
1.48265e-29
-1.76169e-27
3.44092e-33
1.48369e-29
-1.76256e-27
1.48261e-29
-1.76044e-27
2.36209e-31
1.22376e-27
-8.3525e-26
5.31792e-31
1.22507e-27
-8.40864e-26
7.47814e-31
1.2252e-27
-8.41986e-26
7.86856e-31
1.2258e-27
-8.41863e-26
5.72181e-31
1.22723e-27
-8.41414e-26
1.22725e-27
-8.38544e-26
8.5633e-29
1.99734e-25
6.15741e-26
1.24177e-28
1.99943e-25
6.16249e-26
1.38408e-28
1.9994e-25
6.16302e-26
1.254e-28
2.00017e-25
6.1673e-26
8.2293e-29
2.00233e-25
6.1761e-26
2.00245e-25
6.17901e-26
-4.5344e-28
5.83038e-23
-7.53982e-27
5.83954e-23
-1.37765e-26
5.83867e-23
-1.67358e-26
5.83805e-23
-1.34793e-26
5.83897e-23
5.83081e-23
-5.30274e-60
2.67614e-56
-3.17715e-53
-1.01215e-61
2.68127e-56
-3.18326e-53
2.02454e-60
2.68107e-56
-3.18294e-53
3.41362e-60
2.68117e-56
-3.18305e-53
4.23552e-60
2.68215e-56
-3.18414e-53
2.67689e-56
-3.17768e-53
-5.48072e-56
1.25905e-51
-7.59754e-49
1.41915e-57
1.26141e-51
-7.61209e-49
3.20193e-56
1.26129e-51
-7.61137e-49
5.82739e-56
1.26133e-51
-7.61166e-49
8.85229e-56
1.26176e-51
-7.61424e-49
1.25936e-51
-7.59936e-49
-7.72597e-52
2.21034e-47
-8.68925e-45
-9.42818e-52
2.21429e-47
-8.70528e-45
-7.95637e-52
2.21402e-47
-8.70431e-45
-4.88394e-52
2.21402e-47
-8.70439e-45
-7.85294e-53
2.21469e-47
-8.70706e-45
2.21054e-47
-8.69029e-45
-1.54087e-47
2.17688e-43
-6.01646e-41
-2.10519e-47
2.18048e-43
-6.02695e-41
-1.96753e-47
2.18012e-43
-6.02608e-41
-1.55538e-47
2.18004e-43
-6.02592e-41
-1.04284e-47
2.18061e-43
-6.02754e-41
2.17665e-43
-6.01621e-41
-1.37086e-43
1.32621e-39
-2.65718e-37
-1.68533e-43
1.32824e-39
-2.66152e-37
-1.50778e-43
1.32797e-39
-2.66105e-37
-1.1493e-43
1.32788e-39
-2.66091e-37
-7.87993e-44
1.32819e-39
-2.66154e-37
1.32583e-39
-2.6567e-37
-6.0729e-40
4.85628e-36
-7.2287e-34
-6.01635e-40
4.86306e-36
-7.23988e-34
-4.12154e-40
4.86194e-36
-7.23852e-34
-1.89268e-40
4.86155e-36
-7.23809e-34
-4.13979e-41
4.86265e-36
-7.2398e-34
4.85435e-36
-7.22728e-34
-6.89434e-37
9.56176e-33
-1.1175e-30
-2.17529e-37
9.57343e-33
-1.1192e-30
4.38139e-37
9.57117e-33
-1.11903e-30
9.28507e-37
9.57067e-33
-1.11901e-30
9.24542e-37
9.57321e-33
-1.11931e-30
9.55825e-33
-1.11751e-30
5.99265e-34
9.05995e-30
-8.94109e-28
1.81187e-33
9.06948e-30
-8.95548e-28
2.83865e-33
9.06769e-30
-8.95504e-28
3.18997e-33
9.06798e-30
-8.95545e-28
2.41529e-33
9.07138e-30
-8.95816e-28
9.05923e-30
-8.94458e-28
1.22152e-30
4.21512e-27
-3.8573e-25
2.23791e-30
4.21903e-27
-3.86423e-25
2.81719e-30
4.21862e-27
-3.86444e-25
2.76155e-30
4.21937e-27
-3.8646e-25
1.88294e-30
4.22168e-27
-3.86571e-25
4.21732e-27
-3.85941e-25
3.78765e-28
8.40176e-25
-7.79153e-23
6.1263e-28
8.40932e-25
-7.80967e-23
7.18148e-28
8.40905e-25
-7.8082e-23
6.59891e-28
8.41125e-25
-7.80338e-23
4.2494e-28
8.41917e-25
-7.81091e-23
8.4111e-25
-7.77892e-23
1.62361e-26
5.29182e-23
2.50157e-23
2.16734e-26
5.29827e-23
2.50416e-23
2.22269e-26
5.29913e-23
2.50421e-23
1.68556e-26
5.30163e-23
2.50558e-23
1.04215e-26
5.30675e-23
2.50786e-23
5.30523e-23
2.50744e-23
-4.18482e-24
1.81012e-20
-7.11039e-24
1.81236e-20
-8.30562e-24
1.81212e-20
-8.02692e-24
1.81193e-20
-5.31885e-24
1.8117e-20
1.80752e-20
-6.10321e-12
-8.80395e-06
5.70003e-08
6.9142e-11
-8.80278e-06
5.70183e-08
-4.15727e-11
-8.80467e-06
5.70122e-08
1.06367e-10
-8.80891e-06
5.69888e-08
4.09165e-10
-8.81102e-06
5.69676e-08
-8.80992e-06
5.69902e-08
3.46068e-11
1.2337e-13
-1.22765e-05
1.16868e-10
1.35141e-13
-1.22781e-05
1.01729e-10
1.38715e-13
-1.22811e-05
2.35929e-10
1.35629e-13
-1.22843e-05
4.04652e-10
1.3483e-13
-1.2284e-05
1.38045e-13
-1.22822e-05
7.59651e-19
2.12389e-14
6.99223e-19
2.32667e-14
8.94211e-19
2.38834e-14
9.81864e-19
2.33511e-14
3.11451e-19
2.32138e-14
2.37723e-14
-6.8831e-10
-0.000551038
-1.34124e-07
-2.45139e-10
-0.000551065
-1.34193e-07
3.1564e-10
-0.000551085
-1.34217e-07
2.64657e-10
-0.000551088
-1.34158e-07
-8.37834e-11
-0.000551092
-1.34099e-07
-0.000551102
-1.34172e-07
-6.23962e-09
5.8653e-13
-2.14957e-05
-3.22287e-09
6.42459e-13
-2.14923e-05
-1.33575e-10
6.59466e-13
-2.14892e-05
1.37794e-09
6.44791e-13
-2.14829e-05
1.24626e-09
6.40992e-13
-2.14809e-05
6.56277e-13
-2.14877e-05
-1.72087e-18
4.11633e-13
1.95971e-18
4.5088e-13
3.18955e-18
4.62826e-13
1.58825e-18
4.52527e-13
2.71589e-18
4.49862e-13
4.60614e-13
-3.97628e-11
-2.83581e-06
-1.45137e-06
-2.76746e-12
-2.82969e-06
-1.45125e-06
-1.28173e-13
-2.83228e-06
-1.45092e-06
2.13838e-12
-2.8232e-06
-1.45089e-06
3.26502e-11
-2.81707e-06
-1.45079e-06
-2.84479e-06
-1.45059e-06
-3.19257e-11
1.16338e-12
-2.43184e-06
-4.30182e-11
1.27432e-12
-2.43095e-06
-5.34487e-11
1.30801e-12
-2.43141e-06
-5.81456e-11
1.27889e-12
-2.43037e-06
-4.5756e-11
1.27137e-12
-2.42974e-06
1.30163e-12
-2.43382e-06
-1.11291e-17
2.59513e-13
-1.26404e-17
2.84229e-13
-1.82693e-17
2.91757e-13
-2.06662e-17
2.85262e-13
-1.1394e-17
2.83581e-13
2.90359e-13
2.94958e-11
-1.40189e-06
-1.34041e-06
-1.40612e-11
-1.39885e-06
-1.34009e-06
-5.31291e-11
-1.4004e-06
-1.34019e-06
-6.22211e-11
-1.39545e-06
-1.33973e-06
-2.24123e-11
-1.39219e-06
-1.33942e-06
-1.4074e-06
-1.34059e-06
-3.15133e-11
2.58285e-12
-1.52825e-06
-1.01506e-10
2.82916e-12
-1.52804e-06
-1.19389e-10
2.90395e-12
-1.52816e-06
-1.14347e-10
2.83929e-12
-1.52829e-06
-8.88544e-11
2.8226e-12
-1.5284e-06
2.88961e-12
-1.52863e-06
-3.48276e-17
3.31542e-17
-2.59481e-17
3.93895e-17
-8.67597e-18
4.45261e-17
1.25755e-17
4.24522e-17
3.64351e-17
4.04151e-17
-1.40726e-21
-5.6978e-11
-1.11252e-06
-4.2589e-11
-3.51443e-11
-1.11238e-06
-4.26305e-11
-1.48122e-11
-1.11232e-06
-4.26179e-11
-4.66103e-13
-1.11231e-06
-4.26103e-11
3.11771e-11
-1.11229e-06
-4.26182e-11
-1.11207e-06
-4.25608e-11
-4.21773e-11
4.62652e-16
-3.78201e-14
-1.20938e-10
5.49741e-16
-3.78742e-14
-1.45844e-10
6.2139e-16
-3.78833e-14
-1.18886e-10
5.92431e-16
-3.78974e-14
-6.91362e-11
5.63992e-16
-3.7917e-14
-9.42163e-19
-3.78162e-14
-2.81484e-22
-9.42367e-19
4.60526e-21
-9.44086e-19
9.20526e-21
-9.44257e-19
1.18428e-20
-9.45286e-19
-4.2964e-25
-9.45254e-19
-9.43571e-19
-8.75507e-17
-9.09488e-16
-4.36745e-11
-8.04796e-17
-9.10837e-16
-4.37172e-11
-4.9115e-17
-9.1106e-16
-4.37043e-11
-1.42048e-17
-9.11389e-16
-4.36964e-11
2.4526e-17
-9.11832e-16
-4.37044e-11
-9.09383e-16
-4.36456e-11
-1.00095e-20
-2.80255e-17
-3.87013e-14
-3.16173e-20
-2.80781e-17
-3.87568e-14
-3.74927e-20
-2.80816e-17
-3.87664e-14
-3.25578e-20
-2.81114e-17
-3.87809e-14
-2.13134e-20
-2.81108e-17
-3.88008e-14
-2.80575e-17
-3.86975e-14
-1.61326e-22
-1.52629e-17
-3.91373e-22
-1.54617e-17
-5.21756e-22
-1.54489e-17
-5.5267e-22
-1.55998e-17
-5.10443e-22
-1.5541e-17
-1.53926e-17
-1.62403e-15
-8.51634e-13
-4.39047e-10
1.56874e-15
-8.52311e-13
-4.38993e-10
2.87251e-15
-8.52581e-13
-4.39139e-10
3.8894e-15
-8.52671e-13
-4.39077e-10
5.59766e-15
-8.52988e-13
-4.39103e-10
-8.51058e-13
-4.38686e-10
-4.44375e-18
-7.57135e-16
-8.16626e-13
-4.59628e-18
-7.66542e-16
-8.1737e-13
-2.53868e-18
-7.65935e-16
-8.17584e-13
1.94858e-19
-7.72945e-16
-8.17674e-13
3.57871e-18
-7.70315e-16
-8.17989e-13
-7.63133e-16
-8.16064e-13
-2.53997e-21
-8.89268e-16
-3.18959e-21
-8.99514e-16
-2.67804e-21
-8.98875e-16
-1.69429e-21
-9.06519e-16
-1.13122e-21
-9.03656e-16
-8.95727e-16
1.11985e-13
-1.03271e-10
-1.73945e-09
1.70025e-13
-1.03299e-10
-1.71367e-09
1.54716e-13
-1.03334e-10
-1.73103e-09
1.33817e-13
-1.03331e-10
-1.73437e-09
1.73138e-13
-1.03348e-10
-1.73846e-09
-1.0322e-10
-1.72425e-09
-3.11324e-16
-3.87921e-13
-1.0491e-10
-4.7365e-16
-3.90753e-13
-1.04968e-10
-5.03431e-16
-3.90576e-13
-1.04999e-10
-2.79109e-16
-3.92502e-13
-1.05019e-10
3.87903e-16
-3.91911e-13
-1.05027e-10
-3.89399e-13
-1.04881e-10
-1.58814e-18
-3.88804e-13
-1.36213e-18
-3.91648e-13
-1.09578e-18
-3.9147e-13
1.60504e-20
-3.93405e-13
2.8432e-18
-3.92813e-13
-3.90287e-13
2.61027e-11
-9.19953e-09
1.69179e-07
2.35607e-11
-9.19661e-09
1.69157e-07
2.84408e-11
-9.20003e-09
1.69188e-07
2.48756e-11
-9.19925e-09
1.69161e-07
1.724e-11
-9.20315e-09
1.69034e-07
-9.18813e-09
1.69065e-07
-1.48285e-13
-4.25546e-10
-9.09028e-09
-1.78673e-13
-4.27658e-10
-9.08564e-09
-2.51116e-13
-4.27523e-10
-9.0892e-09
-9.66483e-14
-4.2906e-10
-9.0872e-09
7.18207e-14
-4.28479e-10
-9.09174e-09
-4.26628e-10
-9.07781e-09
-5.54446e-15
-4.52369e-10
-5.81825e-15
-4.5776e-10
-8.41264e-15
-4.57071e-10
-5.46721e-15
-4.62112e-10
1.16475e-16
-4.59342e-10
-4.61801e-10
1.537e-09
5.4055e-07
2.87624e-05
2.02103e-09
5.40819e-07
2.87739e-05
2.84235e-09
5.4115e-07
2.87756e-05
3.30192e-09
5.41087e-07
2.87777e-05
2.15454e-09
5.40052e-07
2.87748e-05
5.42126e-07
2.87744e-05
-5.71256e-12
-6.21212e-09
5.21373e-07
8.11551e-12
-6.24529e-09
5.21635e-07
4.07472e-12
-6.26271e-09
5.21988e-07
2.82572e-11
-6.27555e-09
5.21903e-07
1.47552e-10
-6.29234e-09
5.20806e-07
-6.24681e-09
5.23114e-07
-7.77154e-12
3.46236e-08
-7.30335e-12
3.4712e-08
-9.63801e-12
3.47707e-08
-5.60878e-12
3.47989e-08
-1.53922e-13
3.47821e-08
3.48029e-08
3.21234e-08
0.000117565
0.00131668
4.19103e-08
0.000117635
0.00131679
4.02548e-08
0.000117665
0.00131682
3.36427e-08
0.000117679
0.00131705
1.08213e-07
0.000117426
0.00131763
0.000117917
0.00131566
-1.94153e-10
-4.90457e-11
0.000118086
-7.99102e-11
-4.87471e-11
0.000118157
5.89894e-10
-4.86092e-11
0.000118186
3.09827e-10
-4.83901e-11
0.000118201
6.38458e-10
-5.19415e-11
0.000117947
-4.49257e-11
0.000118441
-5.23435e-14
3.3976e-08
-5.52704e-14
3.41202e-08
-3.25235e-15
3.42081e-08
6.76683e-14
3.42434e-08
-3.88129e-13
3.44816e-08
3.4301e-08
4.14068e-06
0.0147537
0.0616579
4.14588e-06
0.0147565
0.0616537
2.09671e-06
0.014755
0.0616505
-2.48067e-06
0.0147579
0.0616669
1.98739e-05
0.0147868
0.0617571
0.0147241
0.0615231
6.67675e-07
0.000516011
0.0143477
6.93813e-07
0.000516309
0.0143509
4.90097e-07
0.000516307
0.0143496
1.01916e-06
0.000516443
0.0143517
4.9479e-06
0.000515973
0.0143774
0.000516947
0.0143231
1.1352e-08
0.000516058
1.46542e-08
0.000516365
2.25545e-08
0.000516359
2.98775e-08
0.000516495
-1.15364e-07
0.000516153
0.000516891
-1.00522e-17
-4.36397e-12
5.69547e-13
-1.42283e-15
-1.18501e-17
-4.36795e-12
5.70948e-13
-1.42483e-15
-1.85663e-17
-4.36822e-12
5.70587e-13
-1.42471e-15
-1.15701e-17
-4.36645e-12
5.70349e-13
-1.42457e-15
-1.60513e-17
-4.4269e-12
5.85134e-13
-1.44598e-15
-4.30553e-12
5.53914e-13
-1.39367e-15
7.28515e-16
-7.63284e-10
4.43419e-10
-3.31951e-12
-1.11169e-15
-7.64397e-10
4.4461e-10
-3.32789e-12
-2.81387e-15
-7.63704e-10
4.44062e-10
-3.324e-12
-3.37462e-15
-7.64278e-10
4.44267e-10
-3.32596e-12
-7.85274e-15
-7.82606e-10
4.58513e-10
-3.4399e-12
-7.42541e-10
4.2802e-10
-3.19745e-12
-6.42874e-14
-7.70224e-10
7.00416e-12
-2.31664e-14
-7.71452e-10
7.01263e-12
7.80911e-14
-7.70815e-10
7.00951e-12
1.08235e-13
-7.7132e-10
7.01061e-12
1.42084e-12
-7.91086e-10
7.16662e-12
-7.48088e-10
6.95922e-12
-1.02333e-15
-8.91457e-10
1.1109e-10
-1.62352e-15
-8.92677e-10
1.11361e-10
-4.47786e-15
-8.92169e-10
1.11281e-10
-2.63308e-15
-8.9247e-10
1.11266e-10
-1.85281e-14
-9.07982e-10
1.14094e-10
-8.75177e-10
1.08158e-10
1.02657e-12
-1.06175e-07
9.48896e-09
-5.39323e-14
-1.06276e-07
9.50805e-09
-1.11412e-12
-1.06195e-07
9.49874e-09
-7.86569e-13
-1.06288e-07
9.50223e-09
-9.44569e-12
-1.08081e-07
9.71259e-09
-1.04204e-07
9.25613e-09
-1.63879e-11
-1.06929e-07
-3.14037e-12
-1.07061e-07
-2.95262e-11
-1.0694e-07
1.40129e-11
-1.07102e-07
4.83766e-10
-1.09341e-07
-1.04471e-07
-2.51462e-15
-9.68599e-11
1.65239e-10
-2.0328e-15
-9.67214e-11
1.69491e-10
-8.19728e-15
-9.68092e-11
1.65486e-10
-4.45935e-15
-9.68167e-11
1.65749e-10
-1.524e-15
-9.60859e-11
2.71433e-10
-9.70683e-11
1.61611e-10
1.08475e-13
1.01724e-11
1.61667e-08
3.31198e-14
1.0673e-11
1.61442e-08
-1.80536e-14
1.04249e-11
1.61554e-08
-7.76201e-14
1.06483e-11
1.61556e-08
-8.99774e-13
1.49059e-11
1.60834e-08
3.52834e-12
1.62284e-08
1.30106e-09
-8.688e-06
-3.99322e-10
-8.70856e-06
-8.52611e-09
-8.68739e-06
5.82328e-09
-8.72032e-06
7.14908e-08
-9.02601e-06
-8.34528e-06
1.23548e-11
-1.00188e-05
1.00266e-05
4.96126e-11
-1.0039e-05
1.00467e-05
4.95123e-11
-1.00618e-05
1.00695e-05
3.23712e-11
-1.00161e-05
1.00239e-05
-4.79529e-10
-9.71239e-06
9.7205e-06
-1.04249e-05
1.04326e-05
4.06183e-08
0.000286496
-0.000295824
2.46617e-08
0.000286602
-0.000295899
4.13861e-09
0.000286401
-0.000295713
1.04848e-08
0.00028671
-0.000296004
-2.83453e-07
0.000289883
-0.000298611
0.000282863
-0.0002928
1.24572e-07
-0.00265003
-8.07608e-09
-0.00265089
-7.29156e-08
-0.00264988
-7.75256e-08
-0.00265156
-3.9167e-07
-0.00267046
-0.00263029
6.75292e-09
0.000569704
-0.00177288
-7.77155e-11
0.000569913
-0.00177343
3.24693e-08
0.000569276
-0.00177121
1.21685e-08
0.000569909
-0.00177334
-3.28078e-07
0.000573681
-0.00178238
0.000564394
-0.00175754
9.79439e-08
0.0124881
-0.019478
4.58328e-07
0.0124901
-0.01948
1.30536e-06
0.0124877
-0.0194771
-1.43563e-08
0.0124922
-0.0194819
-6.6184e-06
0.0125469
-0.0195398
0.0124294
-0.0194124
2.71869e-07
-0.00439966
6.91673e-08
-0.00440147
1.12414e-06
-0.00440051
8.72807e-08
-0.00440237
-9.97548e-06
-0.00442488
-0.00437748
9.14178e-07
0.0233545
-5.27011e-07
0.0233568
2.37675e-06
0.0233552
6.22445e-07
0.0233588
-1.78361e-05
0.0234017
0.0233092
3.19588e-07
0.00480782
1.16106e-06
0.00480998
3.59852e-06
0.00480925
-5.37962e-07
0.00481112
-1.65912e-05
0.00482772
0.00479367
1.04061e-07
1.30003e-07
3.72608e-07
1.60767e-07
-2.50286e-06
-1.14027e-57
-6.38139e-55
5.2399e-54
1.37512e-58
-6.39439e-55
5.25005e-54
6.78257e-58
-6.39427e-55
5.2496e-54
1.05164e-57
-6.39453e-55
5.24973e-54
1.27427e-57
-6.39633e-55
5.25154e-54
-6.38284e-55
5.24094e-54
-5.12112e-60
-2.78274e-58
5.76523e-56
7.20456e-60
-2.78871e-58
5.77711e-56
1.23901e-59
-2.78863e-58
5.77707e-56
1.53782e-59
-2.78875e-58
5.77726e-56
1.73165e-59
-2.7896e-58
5.77889e-56
-2.78349e-58
5.76677e-56
9.01817e-64
8.01264e-60
2.15117e-63
8.02996e-60
2.68512e-63
8.02973e-60
3.21973e-63
8.03e-60
4.00974e-63
8.03239e-60
8.01478e-60
-1.34243e-53
-3.09574e-50
2.47601e-49
3.78007e-54
-3.1019e-50
2.48073e-49
1.29967e-53
-3.10188e-50
2.48048e-49
2.11329e-53