/*--------------------------------*- C++ -*----------------------------------*\
| =========                 |                                                 |
| \\      /  F ield         | OpenFOAM: The Open Source CFD Toolbox           |
|  \\    /   O peration     | Version:  v1612+                                |
|   \\  /    A nd           | Web:      www.OpenFOAM.com                      |
|    \\/     M anipulation  |                                                 |
\*---------------------------------------------------------------------------*/
FoamFile
{
    version     2.0;
    format      ascii;
    class       surfaceScalarField;
    location    "2.1";
    object      phi;
}
// * * * * * * * * * * * * * * * * * * * * * * * * * * * * * * * * * * * * * //

dimensions      [0 3 -1 0 0 0 0];

internalField   nonuniform List<scalar> 
2916
(
-3.39784e-06
0.611789
-0.611786
-6.3577e-07
0.611792
-0.611794
5.08177e-07
0.611791
-0.611793
1.57506e-07
0.611791
-0.611791
6.55914e-07
0.611792
-0.611792
0.611791
-0.61179
-5.79754e-06
1.29542
-0.683623
-1.23216e-06
1.29542
-0.683637
-6.75501e-07
1.29542
-0.683632
-5.07392e-07
1.29542
-0.683631
2.79547e-06
1.29542
-0.683633
1.29542
-0.683624
-3.82336e-06
1.75812
-0.462703
-1.57325e-06
1.75813
-0.462712
-3.46961e-06
1.75813
-0.462707
-3.5526e-06
1.75813
-0.462708
2.04919e-06
1.75813
-0.462713
1.75812
-0.462701
-5.61556e-06
2.114
-0.355868
-5.30117e-06
2.11401
-0.355876
-7.92789e-06
2.11401
-0.355873
-6.78704e-06
2.11401
-0.355877
2.68383e-08
2.11401
-0.355884
2.11399
-0.355871
-9.1275e-06
2.39591
-0.281903
-8.98196e-06
2.39592
-0.281912
-1.13786e-05
2.39592
-0.28191
-9.45686e-06
2.39592
-0.281915
-3.00844e-06
2.39592
-0.281922
2.3959
-0.281912
-1.17268e-05
2.66125
-0.26533
-1.12426e-05
2.66126
-0.265343
-1.30453e-05
2.66126
-0.26534
-1.12983e-05
2.66126
-0.265344
-4.20289e-06
2.66127
-0.265352
2.66124
-0.265344
-7.97828e-06
2.94765
-0.286393
-8.19505e-06
2.94767
-0.286409
-9.69319e-06
2.94767
-0.286407
-8.28269e-06
2.94767
-0.28641
-6.20802e-07
2.94768
-0.286418
2.94765
-0.28641
-5.61473e-06
3.24263
-0.294973
-2.87693e-06
3.24267
-0.294995
-4.96594e-06
3.24266
-0.29499
-3.72025e-06
3.24266
-0.294994
4.47072e-06
3.24267
-0.295002
3.24264
-0.294989
-5.81069e-06
3.2432
-0.000564249
-6.2908e-08
3.24324
-0.000583861
-1.7321e-06
3.24324
-0.000578102
-1.14839e-06
3.24324
-0.000579849
6.70835e-06
3.24325
-0.000589332
3.24322
-0.000566252
-2.76417e-06
2.58554
0.657664
1.30802e-06
2.5856
0.65764
2.00383e-06
2.58559
0.657653
2.84042e-06
2.58559
0.657652
3.69703e-06
2.58561
0.657642
2.58557
0.657655
1.00838e-05
1.38252
1.20301
6.89e-06
1.38258
1.20302
5.35421e-06
1.38257
1.20302
-3.77226e-07
1.38257
1.20303
-4.39807e-06
1.38259
1.20302
1.38254
1.20302
-6.65261e-05
1.38259
-3.22606e-05
1.38255
-2.94076e-05
1.38256
-1.49266e-05
1.38255
3.15593e-05
1.38255
1.38257
-4.34512e-06
0.785103
-1.39688
-1.76606e-06
0.785106
-1.3969
-2.02003e-06
0.785105
-1.3969
-5.00147e-06
0.785106
-1.39689
-6.24564e-06
0.785106
-1.3969
0.7851
-1.3969
4.47942e-07
1.45156
-1.35008
-2.78537e-06
1.45157
-1.3501
-4.84759e-06
1.45157
-1.3501
-5.99889e-06
1.45157
-1.35009
-7.31927e-06
1.45157
-1.35009
1.45156
-1.35009
2.44132e-06
1.87393
-0.88507
-5.35144e-06
1.87395
-0.885078
-9.93725e-06
1.87394
-0.885075
-1.07669e-05
1.87394
-0.885079
-1.1462e-05
1.87394
-0.885085
1.87392
-0.885073
-3.35031e-06
2.29987
-0.781809
-1.04127e-05
2.2999
-0.781825
-1.15971e-05
2.2999
-0.781825
-1.01304e-05
2.29989
-0.781831
-1.21116e-05
2.2999
-0.781839
2.29987
-0.781832
6.17184e-06
2.54502
-0.527062
-7.34835e-06
2.54506
-0.527057
-9.20238e-06
2.54505
-0.527066
-5.78096e-06
2.54505
-0.527078
-1.16233e-05
2.54506
-0.527079
2.54503
-0.527084
1.36653e-05
2.92891
-0.649227
9.21305e-07
2.92897
-0.649237
-2.74443e-06
2.92896
-0.649239
-5.38342e-07
2.92895
-0.649248
-6.47472e-06
2.92897
-0.64925
2.92893
-0.64925
2.35496e-05
3.49769
-0.855197
-7.64248e-07
3.49779
-0.855212
-8.32945e-06
3.49777
-0.855214
-4.17997e-06
3.49777
-0.855231
-6.93138e-06
3.49779
-0.855239
3.49774
-0.855224
3.91167e-05
4.12248
-0.919804
-1.0166e-05
4.12265
-0.919806
-2.93786e-05
4.1226
-0.9198
-2.30141e-05
4.1226
-0.919831
-1.68085e-05
4.12263
-0.919849
4.12255
-0.919819
7.72118e-05
4.47072
-0.348886
2.45199e-05
4.47093
-0.348809
-1.90111e-05
4.47085
-0.348784
-2.40715e-05
4.47085
-0.34882
-1.06869e-05
4.47088
-0.348854
4.47077
-0.348804
5.45866e-05
4.12219
1.00615
2.90646e-05
4.12234
1.00626
-4.92775e-06
4.12229
1.00625
-2.27464e-05
4.12229
1.00623
-2.85968e-05
4.1223
1.00623
4.12227
1.00613
2.34674e-05
2.16711
3.15807
3.90303e-05
2.16725
3.1581
-1.11455e-05
2.1672
3.15816
-4.20858e-05
2.16721
3.15814
0.000101311
2.16719
3.15798
2.1672
3.1582
-5.93165e-05
3.54975
-1.1821e-05
3.54975
9.53261e-07
3.54975
3.25629e-05
3.54973
7.06301e-05
3.5497
3.54984
-1.87634e-06
0.591797
-1.98868
-8.61475e-07
0.591792
-1.9887
1.92225e-06
0.591797
-1.9887
-5.08377e-06
0.5918
-1.98869
-1.57491e-05
0.591799
-1.98869
0.591792
-1.9887
1.26863e-05
1.46369
-2.22198
-1.09882e-05
1.4637
-2.22198
6.5533e-06
1.4637
-2.22201
7.98421e-06
1.46369
-2.22199
-3.28867e-05
1.4637
-2.22196
1.46369
-2.22202
1.17927e-05
2.10055
-1.52194
-1.30236e-06
2.10056
-1.52193
5.63446e-06
2.10056
-1.52194
1.07039e-05
2.10056
-1.52195
-1.13624e-05
2.10057
-1.52194
2.10056
-1.52195
5.12771e-05
2.94728
-1.6286
3.24396e-05
2.94736
-1.6286
3.10543e-05
2.94736
-1.62862
2.59952e-05
2.94736
-1.62863
-1.05377e-05
2.94738
-1.62861
2.94738
-1.62866
0.00015676
3.54397
-1.1239
0.000143956
3.54415
-1.12383
0.000121929
3.54417
-1.12385
9.14961e-05
3.54418
-1.12387
3.11248e-05
3.54419
-1.12383
3.5442
-1.12388
0.000179801
5.36926
-2.47471
0.000194232
5.36959
-2.4747
0.000143504
5.36959
-2.47461
9.07585e-05
5.36954
-2.47456
3.61006e-05
5.36952
-2.47452
5.36947
-2.47449
-8.38998e-05
7.03946
-2.52531
-8.52535e-05
7.03968
-2.5253
-0.000110159
7.03968
-2.52528
-0.000125498
7.03959
-2.52526
-0.000181644
7.0396
-2.52527
7.03929
-2.52522
-0.000379231
7.23225
-1.11221
-0.000520926
7.23222
-1.11221
-0.000532171
7.23211
-1.11223
-0.000487212
7.23197
-1.11227
-0.000543233
7.23213
-1.11233
7.23134
-1.11242
-0.000247271
5.82836
1.05525
-0.000555794
5.82832
1.0554
-0.000601468
5.82796
1.05541
-0.000577736
5.82783
1.0553
-0.000520579
5.82801
1.0552
5.8272
1.05481
0.000284681
3.28869
3.54552
0.000227474
3.28891
3.54572
9.02241e-05
3.2886
3.54575
-9.00936e-05
3.2886
3.54563
-7.69103e-05
3.28867
3.54556
3.28851
3.54475
0.000161021
1.55432
4.89227
0.000353544
1.55454
4.89229
0.000125644
1.55442
4.89257
-6.1794e-05
1.5544
4.89253
0.00055079
1.55476
4.89129
1.55405
4.89321
-5.05621e-05
5.10413
4.05364e-05
5.10419
6.56502e-05
5.10415
4.36307e-05
5.10415
-6.37828e-05
5.10457
5.10383
1.56853e-05
0.380106
-2.3688
-2.75835e-05
0.380286
-2.36894
3.44564e-05
0.379808
-2.36857
2.19228e-05
0.380329
-2.369
-0.000100054
0.380678
-2.36924
0.379123
-2.36793
-3.48739e-05
0.939105
-2.78095
6.79536e-05
0.939156
-2.78096
-4.34625e-05
0.938948
-2.78104
3.68319e-05
0.939194
-2.78093
0.000330594
0.939342
-2.78091
0.938631
-2.7812
-5.59971e-05
1.62262
-2.2054
8.97531e-05
1.6225
-2.20542
3.8376e-05
1.62251
-2.20545
0.000158517
1.62257
-2.20544
0.000411542
1.6226
-2.20545
1.62262
-2.20553
0.000111105
1.26408
-1.27017
0.000206119
1.26405
-1.27025
0.000194924
1.26412
-1.27022
0.000143076
1.26418
-1.2702
0.000108424
1.26421
-1.27018
1.26425
-1.27019
0.000203733
0.477487
-0.337509
0.000315882
0.477588
-0.337484
0.000289652
0.477743
-0.337456
0.000197005
0.477834
-0.337425
0.000124439
0.477844
-0.337387
0.477872
-0.337373
-9.60211e-05
-0.654668
-1.34246
-7.20202e-05
-0.654658
-1.34248
-5.79403e-05
-0.654485
-1.3424
-1.39334e-05
-0.654423
-1.34234
6.49892e-05
-0.654439
-1.34232
-0.654318
-1.34223
-0.000200101
-1.44346
-1.73632
-0.000222231
-1.44354
-1.7364
-0.000194266
-1.4434
-1.73639
-0.000107796
-1.4434
-1.73638
-3.23349e-05
-1.44341
-1.73638
-1.44327
-1.7363
-0.000116563
-1.23935
-1.31621
-0.00013296
-1.23936
-1.31637
-0.000107281
-1.23927
-1.31639
-6.96205e-05
-1.2393
-1.31641
-0.00017469
-1.23922
-1.31642
-1.2394
-1.31646
0.000127426
-0.360478
0.176249
-7.23209e-05
-0.360047
0.176282
0.000145415
-0.360426
0.176348
0.000187741
-0.360383
0.176343
0.000192861
-0.360392
0.176377
-0.360381
0.175989
0.000393887
-0.100829
3.28548
0.000274789
-0.100261
3.28605
0.000492919
-0.101015
3.28612
0.000542267
-0.100963
3.28616
-0.000469424
-0.100395
3.28658
-0.100955
3.28485
0.000665308
0.412264
4.37852
0.000855649
0.412535
4.3793
0.000585773
0.41228
4.37955
0.000321304
0.412315
4.37951
0.000957039
0.413323
4.37693
0.41126
4.38195
3.53998e-05
5.51636
7.87306e-05
5.51668
9.48156e-05
5.51641
-1.45199e-05
5.51658
-0.000302025
5.51818
5.51478
5.41023e-07
0.0016987
-0.00169924
1.78236e-07
0.00169868
-0.00169933
-1.12529e-08
0.00169869
-0.00169934
-6.74827e-08
0.00169863
-0.00169938
-9.25646e-08
0.0016986
-0.00169939
0.00169855
-0.00169947
5.92029e-07
0.00346316
-0.00176564
1.22678e-07
0.00346308
-0.00176571
-1.03404e-07
0.0034631
-0.00176572
-2.36529e-07
0.00346303
-0.00176577
-3.15646e-07
0.00346296
-0.0017658
0.00346291
-0.00176589
8.4127e-07
0.00535039
-0.00188879
1.39067e-07
0.00535021
-0.0018887
-1.98581e-07
0.00535014
-0.00188869
-3.93891e-07
0.00535001
-0.00188872
-4.68737e-07
0.00534987
-0.00188876
0.00534978
-0.00188886
8.76599e-07
0.00740817
-0.0020597
-9.90139e-09
0.00740778
-0.00205924
-5.10406e-07
0.00740755
-0.00205912
-8.01807e-07
0.00740729
-0.00205911
-8.38008e-07
0.007407
-0.00205915
0.0074068
-0.0020593
5.83409e-07
0.00967192
-0.00226555
-4.5583e-07
0.00967115
-0.00226439
-1.20105e-06
0.00967056
-0.00226401
-1.59607e-06
0.00966998
-0.00226391
-1.4537e-06
0.00966935
-0.002264
0.00966884
-0.00226431
-4.01064e-07
0.0121792
-0.00250786
-1.78409e-06
0.0121775
-0.00250574
-2.83928e-06
0.0121761
-0.00250513
-3.23712e-06
0.0121749
-0.00250506
-2.58831e-06
0.0121737
-0.0025054
0.0121725
-0.00250622
-2.56631e-06
0.0149898
-0.00280839
-4.69902e-06
0.0149865
-0.00280618
-6.07076e-06
0.014984
-0.00280584
-6.21509e-06
0.0149819
-0.00280623
-4.55922e-06
0.0149798
-0.00280723
0.0149774
-0.00280907
-6.38989e-06
0.0178148
-0.00281818
-9.33305e-06
0.0178089
-0.00281775
-1.05707e-05
0.0178053
-0.00281869
-9.96287e-06
0.0178026
-0.00282023
-6.9377e-06
0.0178001
-0.0028224
0.0177966
-0.00282561
-1.05816e-05
0.01987
-0.00204379
-1.32762e-05
0.0198615
-0.00204775
-1.32639e-05
0.0198578
-0.00205088
-1.13052e-05
0.0198558
-0.00205374
-7.25574e-06
0.0198539
-0.00205668
0.0198504
-0.00206014
-1.0424e-05
0.0190684
0.000813058
-1.07315e-05
0.0190576
0.000806676
-8.64511e-06
0.019054
0.000803637
-5.68075e-06
0.0190527
0.000802014
-2.62995e-06
0.0190516
0.000801195
0.0190489
0.000800706
-5.77141e-06
0.0147587
0.00431642
-3.86163e-06
0.0147496
0.00430871
-1.13515e-06
0.0147467
0.00430689
1.2606e-06
0.0147454
0.00430725
2.40818e-06
0.0147443
0.00430875
0.0147426
0.00431108
4.12243e-06
0.0147558
4.94687e-06
0.0147512
4.41817e-06
0.0147494
3.85985e-06
0.0147481
3.21583e-06
0.0147473
0.0147472
2.46346e-07
0.00171335
-0.00341351
1.25278e-08
0.00171332
-0.00341355
-9.79644e-08
0.00171332
-0.00341354
-1.61635e-07
0.00171326
-0.00341356
-2.23574e-07
0.00171323
-0.00341356
0.00171316
-0.0034136
2.95251e-07
0.0035087
-0.00356243
-6.05455e-08
0.00350859
-0.00356244
-2.0611e-07
0.00350854
-0.00356243
-3.34995e-07
0.00350844
-0.00356245
-4.4305e-07
0.00350834
-0.00356245
0.00350824
-0.00356249
3.3592e-07
0.00546697
-0.00384898
-2.27671e-07
0.0054667
-0.00384881
-4.56194e-07
0.00546654
-0.00384875
-6.13324e-07
0.00546635
-0.00384872
-7.14824e-07
0.00546616
-0.00384871
0.00546605
-0.00384873
1.1944e-08
0.007665
-0.00425973
-7.22077e-07
0.00766442
-0.00425913
-1.03372e-06
0.00766407
-0.0042589
-1.18608e-06
0.00766372
-0.00425878
-1.18653e-06
0.00766339
-0.00425874
0.0076632
-0.00425883
-7.15648e-07
0.0101369
-0.0047386
-1.68013e-06
0.0101359
-0.00473713
-2.06079e-06
0.0101351
-0.00473659
-2.09395e-06
0.0101344
-0.00473635
-1.73169e-06
0.0101338
-0.00473636
0.0101333
-0.00473671
-2.28272e-06
0.0127379
-0.0051075
-3.4934e-06
0.0127356
-0.00510512
-3.85399e-06
0.0127341
-0.00510436
-3.55856e-06
0.0127327
-0.0051042
-2.51011e-06
0.0127314
-0.00510459
0.0127302
-0.00510576
-4.85156e-06
0.0150365
-0.00510197
-6.3425e-06
0.0150317
-0.00510002
-6.38938e-06
0.0150287
-0.00509986
-5.45514e-06
0.0150265
-0.00510046
-3.52317e-06
0.0150244
-0.00510189
0.0150221
-0.00510453
-7.99312e-06
0.0167146
-0.00448717
-9.08499e-06
0.0167052
-0.00448858
-7.9852e-06
0.0167004
-0.0044903
-5.94058e-06
0.0166975
-0.00449235
-3.35594e-06
0.0166952
-0.00449499
0.0166923
-0.00449877
-1.00473e-05
0.017749
-0.0030666
-8.64504e-06
0.0177315
-0.00307336
-4.86096e-06
0.0177244
-0.00307689
-1.43341e-06
0.0177213
-0.00307945
3.73156e-07
0.01772
-0.00308172
0.0177182
-0.0030843
-1.15376e-05
0.0181374
0.000437827
-4.60082e-06
0.0181169
0.000417216
3.45966e-06
0.0181116
0.000410858
8.51344e-06
0.0181112
0.000409688
8.40771e-06
0.0181128
0.00041135
0.0181149
0.000414692
3.68328e-06
0.0154134
0.00703885
1.11535e-05
0.015395
0.00702697
1.64959e-05
0.0153901
0.00702649
1.8124e-05
0.0153898
0.00703042
1.43474e-05
0.0153922
0.00703666
0.0153973
0.00704511
1.2666e-05
0.0301588
1.12131e-05
0.0301507
6.64209e-06
0.030147
2.70376e-06
0.0301449
8.67842e-07
0.0301442
0.030146
3.49227e-08
0.00165196
-0.00506594
-4.38602e-08
0.00165191
-0.00506588
-8.25324e-08
0.00165191
-0.00506586
-1.05517e-07
0.00165187
-0.00506586
-1.52355e-07
0.00165185
-0.00506584
0.00165186
-0.00506594
9.65043e-08
0.00340129
-0.00531254
-1.05991e-07
0.00340115
-0.00531248
-1.82429e-07
0.00340111
-0.00531246
-2.52591e-07
0.00340103
-0.00531246
-3.20464e-07
0.00340096
-0.00531244
0.003401
-0.00531251
8.22011e-08
0.00534075
-0.00578965
-3.09806e-07
0.00534049
-0.00578945
-4.65188e-07
0.00534037
-0.00578938
-5.52398e-07
0.00534023
-0.00578932
-5.89001e-07
0.00534011
-0.00578928
0.00534018
-0.00578931
-1.89906e-07
0.00755772
-0.00647802
-8.03036e-07
0.00755731
-0.00647743
-1.03221e-06
0.00755707
-0.00647719
-1.08962e-06
0.00755683
-0.00647704
-1.01237e-06
0.00755663
-0.00647697
0.00755665
-0.00647705
-9.02327e-07
0.0101846
-0.00736606
-1.65337e-06
0.0101839
-0.00736473
-1.84951e-06
0.0101834
-0.0073642
-1.721e-06
0.0101829
-0.00736394
-1.3156e-06
0.0101826
-0.00736395
0.0101825
-0.00736438
-2.16126e-06
0.0135111
-0.00843263
-2.94619e-06
0.0135094
-0.00843078
-2.89814e-06
0.0135083
-0.00843016
-2.36911e-06
0.0135075
-0.00843007
-1.49298e-06
0.0135069
-0.00843055
0.0135066
-0.0084319
-3.84554e-06
0.0182312
-0.00981814
-4.3085e-06
0.0182271
-0.00981744
-3.55619e-06
0.0182251
-0.00981766
-2.36784e-06
0.018224
-0.00981849
-1.18405e-06
0.0182234
-0.0098201
0.0182234
-0.00982295
-5.40647e-06
0.0245524
-0.0108025
-4.12845e-06
0.0245438
-0.0108061
-1.58886e-06
0.0245411
-0.0108086
5.00959e-07
0.0245407
-0.0108111
1.23217e-06
0.0245418
-0.010814
0.024544
-0.0108177
-3.70253e-06
0.0318187
-0.0103284
1.86663e-06
0.0318055
-0.0103392
7.47811e-06
0.0318041
-0.0103442
1.03762e-05
0.0318069
-0.0103472
8.82878e-06
0.0318125
-0.0103492
0.0318204
-0.0103504
7.4757e-06
0.0351433
-0.00289278
1.81754e-05
0.0351247
-0.0029098
2.54913e-05
0.0351239
-0.00291368
2.68796e-05
0.0351304
-0.00291251
1.99026e-05
0.0351416
-0.00290819
0.0351572
-0.00290083
1.63498e-05
0.0324498
0.00971807
2.46985e-05
0.0324343
0.0097124
2.78498e-05
0.0324351
0.00971515
2.56746e-05
0.0324435
0.00972253
1.73151e-05
0.0324572
0.00973196
0.0324762
0.00974397
1.00983e-06
0.06261
-6.98468e-06
0.0625952
-1.44237e-05
0.0625912
-1.82874e-05
0.0625936
-1.5546e-05
0.0625993
0.0626064
-1.78066e-07
0.00150552
-0.00657144
-8.89564e-08
0.00150549
-0.00657137
-4.21983e-08
0.00150549
-0.00657134
-1.32628e-08
0.00150546
-0.00657133
-3.84932e-09
0.00150546
-0.00657132
0.00150547
-0.00657139
-9.41642e-08
0.00313095
-0.00693808
-1.24615e-07
0.00313083
-0.00693799
-1.19215e-07
0.00313078
-0.00693795
-1.18876e-07
0.00313072
-0.00693793
-1.1874e-07
0.00313067
-0.00693791
0.00313069
-0.00693797
-1.66618e-07
0.00501462
-0.00767376
-3.49656e-07
0.00501435
-0.00767358
-3.85988e-07
0.00501423
-0.0076735
-3.81585e-07
0.00501414
-0.00767343
-3.61869e-07
0.00501407
-0.00767338
0.00501413
-0.00767342
-4.86095e-07
0.00733809
-0.00880196
-8.0963e-07
0.00733752
-0.00880147
-8.17066e-07
0.0073373
-0.00880127
-7.1651e-07
0.00733715
-0.00880112
-5.70572e-07
0.00733707
-0.00880102
0.00733726
-0.00880114
-8.89241e-07
0.0102819
-0.01031
-1.26255e-06
0.010281
-0.0103091
-1.16661e-06
0.0102807
-0.0103087
-9.05875e-07
0.0102805
-0.0103085
-6.40822e-07
0.0102804
-0.0103085
0.0102805
-0.0103088
-1.31633e-06
0.013853
-0.0120031
-1.45034e-06
0.0138514
-0.0120021
-9.67061e-07
0.0138508
-0.0120018
-3.88859e-07
0.0138507
-0.0120018
-8.96857e-08
0.0138507
-0.0120022
0.0138509
-0.0120032
-7.73027e-07
0.0176028
-0.0135676
-2.55891e-08
0.0175996
-0.0135675
1.09296e-06
0.017599
-0.0135681
1.82313e-06
0.0175993
-0.013569
1.51418e-06
0.0176
-0.0135703
0.0176011
-0.0135723
1.7316e-06
0.0210664
-0.0142681
4.83849e-06
0.021061
-0.0142711
7.29317e-06
0.0210611
-0.0142735
7.98343e-06
0.0210631
-0.0142759
5.94538e-06
0.0210663
-0.0142782
0.0210704
-0.0142806
7.84156e-06
0.0241597
-0.0134292
1.48491e-05
0.0241521
-0.0134365
1.86914e-05
0.0241545
-0.0134404
1.84459e-05
0.0241606
-0.0134432
1.29997e-05
0.0241689
-0.0134449
0.0241791
-0.0134453
1.49011e-05
0.027697
-0.00644364
2.44003e-05
0.027687
-0.00645201
2.86297e-05
0.0276928
-0.0064543
2.65463e-05
0.0277058
-0.00645381
1.74376e-05
0.0277228
-0.00645169
0.0277428
-0.00644716
1.11605e-05
0.025114
0.0122919
1.4986e-05
0.0251093
0.012288
1.5405e-05
0.025118
0.0122907
1.16549e-05
0.0251332
0.0122994
6.39598e-06
0.0251518
0.012308
0.0251724
0.01232
-2.41978e-05
0.0877499
-4.11216e-05
0.0877223
-4.81843e-05
0.0877168
-4.72788e-05
0.0877259
-3.26385e-05
0.0877363
0.0877462
4.23423e-06
-2.35168
-0.0171289
-0.000123554
-2.35171
-0.0171042
0.000116521
-2.35174
-0.0170723
-6.88733e-05
-2.35169
-0.0171306
-0.000565131
-2.35164
-0.0171078
-2.35167
-0.0168269
-5.23612e-06
-2.1613
-0.190371
9.94291e-06
-2.16136
-0.190368
-5.4811e-06
-2.16137
-0.19036
1.47848e-05
-2.16133
-0.190386
6.554e-05
-2.16131
-0.190382
-2.16132
-0.190285
-1.56986e-05
-0.0911747
-2.35186e-05
-0.0911849
-3.15329e-05
-0.0911849
-3.77665e-05
-0.0911785
-2.58263e-05
-0.0911767
-0.0911887
-0.000108424
-2.5919
-0.20607
-2.81886e-05
-2.59194
-0.206197
3.58364e-06
-2.59192
-0.206219
2.50372e-05
-2.5919
-0.206185
6.74518e-05
-2.59192
-0.206138
-2.59186
-0.206099
-4.92987e-05
-2.44944
-0.33279
-3.27354e-05
-2.4495
-0.332835
-1.64516e-05
-2.44946
-0.33284
-6.13116e-06
-2.44944
-0.332853
-5.10616e-07
-2.44946
-0.332848
-2.44938
-0.332768
6.02049e-06
-0.278905
-1.20095e-05
-0.278904
-1.88867e-05
-0.278909
-1.29094e-05
-0.278908
-1.45857e-05
-0.278906
-0.278917
-3.59256e-05
-1.06627
-1.34517
2.05175e-05
-1.06629
-1.34538
1.40226e-05
-1.06628
-1.34538
4.57624e-05
-1.06628
-1.34538
0.000116154
-1.0663
-1.34536
-1.06627
-1.34524
-1.03407e-05
-0.808418
-0.590626
-1.39889e-05
-0.808432
-0.590689
-1.76163e-05
-0.808406
-0.59071
-1.6073e-05
-0.808399
-0.590734
-1.06908e-05
-0.808409
-0.590744
-0.808364
-0.590693
9.25395e-06
-0.144477
8.5526e-06
-0.144469
1.12097e-05
-0.144476
1.24442e-05
-0.144478
4.92167e-06
-0.144477
-0.144492
3.95308e-05
-1.35475
-1.26063
-5.04133e-06
-1.35482
-1.26076
-4.76999e-05
-1.35479
-1.26077
-5.16573e-05
-1.35478
-1.26079
-3.72989e-06
-1.3548
-1.2608
-1.35473
-1.2607
-1.5215e-05
-1.48288
-0.462484
-5.5444e-05
-1.48296
-0.462517
-6.59568e-05
-1.48295
-0.462545
-6.20146e-05
-1.48296
-0.462568
-4.88619e-05
-1.48297
-0.462585
-1.48288
-0.462583
1.98545e-05
-0.0788452
1.28989e-05
-0.0788395
3.81607e-06
-0.0788444
-7.14392e-06
-0.0788466
-1.9097e-05
-0.0788484
-0.0788578
-7.4557e-05
-0.883542
-0.714522
-4.23681e-05
-0.883634
-0.714642
-1.29824e-05
-0.883589
-0.714666
9.07787e-06
-0.88355
-0.714682
4.79943e-05
-0.883541
-0.714678
-0.883435
-0.714593
-2.35746e-05
-1.15801
-0.187998
-7.19941e-05
-1.15809
-0.188012
-8.76954e-05
-1.1581
-0.18802
-7.13525e-05
-1.1581
-0.188028
-4.11816e-05
-1.15812
-0.188035
-1.15803
-0.18802
8.96573e-07
-0.0422348
-8.69509e-06
-0.0422342
-1.76816e-05
-0.0422356
-2.302e-05
-0.0422361
-2.16672e-05
-0.042236
-0.0422396
-0.000111953
-1.28198
-0.774891
-0.000101764
-1.28207
-0.775061
-6.18259e-05
-1.28205
-0.775058
-1.74653e-05
-1.28202
-0.775044
3.01421e-05
-1.28202
-0.775026
-1.28191
-0.774879
-1.05083e-05
-1.2834
-0.186566
-3.90148e-05
-1.28347
-0.18658
-4.86505e-05
-1.28347
-0.186587
-4.55186e-05
-1.28347
-0.186589
-3.17638e-05
-1.28348
-0.186594
-1.2834
-0.186562
-5.1365e-06
-0.0979727
-1.51284e-05
-0.0979737
-2.15955e-05
-0.0979729
-2.418e-05
-0.0979712
-2.3067e-05
-0.097968
-0.0979666
-3.41295e-05
-1.40528
-1.1059
2.14043e-05
-1.40535
-1.10617
4.07261e-05
-1.40534
-1.10613
5.59757e-05
-1.40534
-1.1061
9.47026e-05
-1.40535
-1.10609
-1.40528
-1.1058
-3.29484e-05
-1.1738
-0.41801
-3.30317e-05
-1.17384
-0.418081
-1.93717e-05
-1.17384
-0.4181
-2.06664e-06
-1.17384
-0.418108
2.72032e-05
-1.17384
-0.41813
-1.1738
-0.418023
-1.42624e-05
-0.111859
-1.47677e-05
-0.111864
-1.3279e-05
-0.111865
-9.35185e-06
-0.111869
-4.79815e-06
-0.111869
-0.111868
7.53495e-05
-1.11125
-1.31093
0.000106622
-1.11136
-1.31121
9.21372e-05
-1.11135
-1.31116
7.64385e-05
-1.11136
-1.31113
0.000101134
-1.11135
-1.31119
-1.11132
-1.31084
-2.74227e-05
-0.848173
-0.681063
-3.94925e-05
-0.848199
-0.681231
-4.01691e-05
-0.848198
-0.681247
-2.16279e-05
-0.848203
-0.681277
2.66826e-05
-0.848197
-0.681324
-0.84819
-0.681131
-1.43564e-05
-0.114047
-1.10085e-05
-0.114074
-8.84333e-06
-0.114083
2.43184e-06
-0.114103
2.36068e-05
-0.114118
-0.11409
0.000347559
-0.808029
-0.32699
0.000304061
-0.808044
-0.326846
0.000357303
-0.807983
-0.32688
0.000315669
-0.807957
-0.326791
8.56117e-05
-0.807706
-0.326879
-0.808247
-0.326514
-6.18105e-05
-0.635956
-0.853077
-7.40073e-05
-0.635945
-0.853318
-9.81756e-05
-0.635949
-0.853257
-3.33448e-05
-0.635943
-0.853354
3.46436e-05
-0.635873
-0.85323
-0.636035
-0.853306
-8.03531e-05
-0.0135059
-8.29591e-05
-0.0136121
-0.000115642
-0.0135994
-7.86683e-05
-0.0136988
-7.61912e-07
-0.0136463
-0.0137117
0.000451117
1.55303
1.40501
0.000572812
1.55358
1.4055
0.000832385
1.55368
1.4053
0.00095657
1.55392
1.40532
0.000505435
1.55458
1.40558
1.55291
1.40593
-2.19038e-05
0.252544
0.44743
0.000104661
0.252749
0.44739
8.49238e-05
0.252866
0.447578
0.000260319
0.252933
0.447457
0.00117145
0.253245
0.447188
0.252765
0.448007
-0.000157895
0.428554
-0.000146972
0.428432
-0.000187377
0.428523
-0.000113671
0.42838
1.37425e-05
0.428504
0.42841
0.000855099
2.32031
3.46236
0.00108557
2.32155
3.46302
0.00103997
2.32202
3.46288
0.000849349
2.3221
3.46292
0.00263535
2.31723
3.4635
2.32767
3.46284
-7.4481e-05
0.0325688
2.73524
1.11235e-05
0.0332187
2.73564
0.000319211
0.0335422
2.73574
0.000250762
0.0338196
2.73581
0.000284509
0.0304197
2.73396
0.0378745
2.73809
-0.000157964
1.86617
-0.000169856
1.86634
-7.40014e-05
1.86663
-9.01411e-06
1.86638
-0.000819741
1.86463
1.86879
0.000268234
4.65646
4.32199
0.000258969
4.65727
4.32245
0.000131523
4.65721
4.32221
-0.000168107
4.65744
4.32236
0.00127923
4.65517
4.32506
4.65999
4.31891
0.000384389
2.12809
5.26323
0.000355746
2.12912
5.26382
0.00023129
2.12923
5.26385
0.000518055
2.12958
5.26338
0.00325169
2.12023
5.26616
2.13999
5.26134
0.000240082
4.29481
0.000309625
4.29539
0.000441833
4.29567
0.000626879
4.29513
-0.00227818
4.29751
4.29347
-8.2251e-06
-0.146522
0.53541
-0.388879
9.95173e-08
-0.146523
0.535391
-0.388878
-5.99045e-06
-0.146535
0.535423
-0.388883
1.38721e-05
-0.146521
0.535378
-0.388877
-3.54188e-06
-0.146546
0.535479
-0.388916
-0.146524
0.53539
-0.388869
2.21418e-05
-0.283283
0.3953
-0.258562
4.54968e-06
-0.283306
0.395383
-0.258583
-1.62592e-05
-0.283303
0.395348
-0.258559
-8.73868e-06
-0.283285
0.395337
-0.258581
-0.000114926
-0.283421
0.39555
-0.258569
-0.283113
0.394979
-0.258505
-2.02487e-05
-0.43245
0.258183
1.61838e-07
-0.432482
0.258193
3.5664e-05
-0.432596
0.258257
4.40689e-05
-0.432373
0.258127
0.000564652
-0.433142
0.258353
-0.431578
0.257891
8.34017e-06
-0.272959
0.80836
2.35241e-05
-0.272953
0.808328
5.22964e-06
-0.272983
0.808423
4.93126e-05
-0.272951
0.808284
-0.000159765
-0.272993
0.808682
-0.272967
0.808198
9.56346e-05
-0.497564
0.619809
3.04628e-05
-0.497551
0.620046
-2.88061e-05
-0.49757
0.619994
4.65327e-05
-0.497543
0.619854
-0.000690575
-0.497441
0.620735
-0.497692
0.619012
-6.8815e-05
-0.740094
3.69484e-06
-0.740307
-0.000163203
-0.740234
4.04379e-05
-0.740233
0.0023416
-0.743788
-0.736293
-1.33241e-05
-0.315707
1.12408
2.04522e-05
-0.315752
1.12405
-4.52192e-05
-0.31574
1.12423
6.21972e-05
-0.315736
1.12391
0.000167542
-0.316072
1.12465
-0.315269
1.12363
0.000381983
0.0929492
0.21077
0.000128391
0.09352
0.211026
5.07022e-05
0.0931818
0.211149
1.90063e-05
0.0933898
0.210759
-0.00253939
0.0982416
0.208979
0.0873395
0.213864
0.000111881
-1.71853
3.52454e-05
-1.71923
-0.000414525
-1.71851
0.000186374
-1.71955
0.0028353
-1.73129
-1.70608
7.57996e-05
-0.0229222
1.14692
0.000221745
-0.0230536
1.14695
0.000212518
-0.0232206
1.14746
0.000170066
-0.0228539
1.14681
-0.000899198
-0.0205663
1.14629
-0.0259932
1.14872
0.000325868
2.22946
-2.04194
0.000251659
2.22995
-2.0419
0.000185652
2.22936
-2.04136
0.000267802
2.23012
-2.0423
-0.00250739
2.23961
-2.04843
2.219
-2.03364
0.000338064
-4.11569
1.78921e-05
-4.11657
-5.73055e-05
-4.11581
-0.000152934
-4.11687
-0.00179483
-4.13229
-4.10014
6.43382e-05
1.71992
-0.573059
2.3065e-05
1.72016
-0.573171
0.000246272
1.71986
-0.572626
0.00010262
1.72007
-0.573119
-0.00200175
1.72304
-0.574653
1.7167
-0.569978
5.11689e-05
4.59607
-4.91814
0.000207797
4.59658
-4.91848
0.000518595
4.59648
-4.91829
2.89768e-05
4.59665
-4.9184
-0.00231399
4.60205
-4.92509
4.5917
-4.91095
0.000178185
-5.29232
8.98707e-05
-5.29306
0.000773413
-5.29297
0.000137513
-5.29297
-0.00632023
-5.30353
-5.28227
6.0131e-05
3.74887
-5.91445e-05
3.7494
0.000165473
3.74936
5.1213e-05
3.74935
-0.00138648
3.75184
3.74755
6.43257e-05
4.09389
0.000168059
4.09463
0.000444811
4.09464
-7.26305e-05
4.09486
-0.00178744
4.09463
4.09616
0.000242694
0.000314232
0.000811197
0.000407144
-0.00521123
-1.94869e-07
-0.00765623
0.0010851
-4.70531e-08
-0.00765615
0.00108509
2.04458e-08
-0.00765612
0.0010851
6.47593e-08
-0.00765612
0.00108508
8.34536e-08
-0.00765611
0.00108508
-0.00765617
0.00108509
-5.82688e-08
-0.00834834
0.000692449
4.20725e-08
-0.0083482
0.000692456
7.79135e-08
-0.00834819
0.000692457
9.22957e-08
-0.0083482
0.000692451
9.6897e-08
-0.00834821
0.000692451
-0.00834832
0.000692466
1.95275e-08
0.000240529
5.14712e-08
0.000240528
6.11684e-08
0.000240527
6.86777e-08
0.000240525
8.00995e-08
0.000240525
0.00024053
-1.35939e-07
-0.00811654
0.0022639
-6.72417e-08
-0.00811646
0.00226385
-2.12082e-08
-0.00811643
0.00226382
1.47365e-08
-0.00811642
0.00226379
5.61682e-08
-0.00811641
0.00226376
-0.00811645
0.00226376
-1.61526e-08
-0.00887493
0.00145125
4.06432e-08
-0.0088748
0.00145122
5.91173e-08
-0.00887479
0.00145121
7.40771e-08
-0.0088748
0.0014512
9.81896e-08
-0.0088748
0.00145118
-0.00887492
0.00145119
2.53894e-08
0.000499693
4.42418e-08
0.000499682
5.35343e-08
0.000499679
6.58681e-08
0.000499676
8.83346e-08
0.000499671
0.000499676
-1.97873e-07
-0.00906275
0.00365297
-2.04125e-07
-0.00906268
0.00365288
-1.60966e-07
-0.00906264
0.00365285
-1.04384e-07
-0.0090626
0.00365283
-4.55003e-08
-0.00906257
0.00365281
-0.00906257
0.00365285
-4.64165e-10
-0.00997482
0.0023635
1.74259e-10
-0.00997468
0.00236346
-1.95426e-09
-0.00997467
0.00236345
2.36546e-09
-0.00997465
0.00236344
1.61308e-08
-0.00997465
0.00236343
-0.00997477
0.00236345
1.36603e-08
0.000795071
2.56274e-08
0.000795049
3.59439e-08
0.000795047
5.06251e-08
0.000795046
6.81007e-08
0.000795041
0.000795051
-2.87025e-07
-0.0105708
0.00542172
-3.62742e-07
-0.0105706
0.00542162
-2.95719e-07
-0.0105705
0.00542163
-1.99755e-07
-0.0105704
0.00542168
-1.31596e-07
-0.0105704
0.00542173
-0.0105705
0.00542188
-6.65742e-08
-0.0117713
0.003564
-7.26139e-08
-0.0117711
0.00356395
-4.65766e-08
-0.0117711
0.00356396
-1.26328e-08
-0.011771
0.00356397
8.79111e-09
-0.011771
0.00356398
-0.0117712
0.00356404
2.94432e-08
0.0011321
2.63839e-08
0.00113208
2.86874e-08
0.00113208
3.06168e-08
0.00113208
2.03596e-08
0.00113208
0.00113209
-2.52222e-07
-0.012769
0.00788049
-2.91635e-07
-0.0127687
0.0078805
-1.42266e-07
-0.0127686
0.00788067
1.97572e-09
-0.0127685
0.00788086
2.81666e-08
-0.0127685
0.00788104
-0.0127687
0.00788128
8.25257e-09
-0.0144837
0.00527843
-1.34809e-08
-0.0144834
0.00527837
1.48745e-08
-0.0144834
0.00527842
3.48507e-08
-0.0144834
0.00527847
-1.46289e-08
-0.0144834
0.00527852
-0.0144836
0.00527861
4.51089e-08
0.00148047
3.83156e-08
0.00148042
3.86363e-08
0.00148043
2.60477e-08
0.00148044
-1.87759e-08
0.00148044
0.00148049
1.03742e-07
-0.0158749
0.0117516
3.25929e-07
-0.0158747
0.0117517
6.77088e-07
-0.0158746
0.0117521
8.68302e-07
-0.0158747
0.0117524
6.30986e-07
-0.0158749
0.0117527
-0.0158751
0.0117531
2.64641e-07
-0.0185192
0.00792199
2.27336e-07
-0.018519
0.00792187
2.37439e-07
-0.018519
0.00792198
1.63365e-07
-0.0185191
0.00792208
-6.44965e-08
-0.0185191
0.00792216
-0.0185194
0.00792236
6.91027e-08
0.00170192
7.54589e-08
0.00170182
6.87132e-08
0.00170185
2.44374e-08
0.00170187
-6.88538e-08
0.0017019
0.00170202
1.50084e-06
-0.0203662
0.0185479
2.07945e-06
-0.0203659
0.0185481
2.41214e-06
-0.0203663
0.0185486
2.24046e-06
-0.0203667
0.018549
1.32701e-06
-0.0203671
0.0185493
-0.0203678
0.0185497
4.66914e-07
-0.024586
0.0121405
6.34663e-07
-0.0245857
0.0121403
7.08918e-07
-0.0245859
0.0121405
5.48862e-07
-0.024586
0.0121407
1.65995e-07
-0.0245862
0.0121408
-0.0245866
0.0121412
7.26339e-08
0.00135052
1.51666e-07
0.00135035
1.74197e-07
0.00135043
1.18321e-07
0.00135054
3.09689e-08
0.00135064
0.00135099
3.57814e-06
-0.0272292
0.0315046
4.52275e-06
-0.0272295
0.0315046
4.48882e-06
-0.0272304
0.0315049
3.64234e-06
-0.0272312
0.0315048
2.11072e-06
-0.0272321
0.0315046
-0.0272331
0.0315047
8.51979e-07
-0.0343798
0.0192895
1.3051e-06
-0.0343795
0.0192893
1.47155e-06
-0.0343798
0.0192894
1.24028e-06
-0.0343801
0.0192895
8.1895e-07
-0.0343804
0.0192895
-0.0343811
0.01929
1.24353e-07
-0.000939803
3.85538e-07
-0.00094017
5.62069e-07