/*--------------------------------*- C++ -*----------------------------------*\
| =========                 |                                                 |
| \\      /  F ield         | OpenFOAM: The Open Source CFD Toolbox           |
|  \\    /   O peration     | Version:  v1612+                                |
|   \\  /    A nd           | Web:      www.OpenFOAM.com                      |
|    \\/     M anipulation  |                                                 |
\*---------------------------------------------------------------------------*/
FoamFile
{
    version     2.0;
    format      ascii;
    class       surfaceScalarField;
    location    "5.25";
    object      phi;
}
// * * * * * * * * * * * * * * * * * * * * * * * * * * * * * * * * * * * * * //

dimensions      [0 3 -1 0 0 0 0];

internalField   nonuniform List<scalar> 
2916
(
2.55156e-06
0.00111938
-0.00112193
7.46227e-07
0.00111892
-0.00111708
-6.33169e-06
0.00112037
-0.00111324
-1.41986e-05
0.00112117
-0.00111326
-1.79032e-05
0.00112087
-0.00111713
0.00112273
-0.0011406
3.77856e-07
-0.215919
0.217038
1.42079e-06
-0.215917
0.217035
-4.60117e-06
-0.215917
0.217043
-1.01848e-05
-0.215915
0.217042
-6.49788e-06
-0.215915
0.217032
-0.215914
0.21703
1.64667e-05
-0.75847
0.542534
3.50858e-06
-0.758476
0.542572
-2.13146e-06
-0.758469
0.542558
-5.48895e-06
-0.758465
0.542553
-7.4123e-06
-0.758466
0.542553
-0.758459
0.542538
-1.98896e-05
-1.29298
0.534526
1.29699e-05
-1.29298
0.53447
8.63729e-06
-1.29296
0.534498
-8.05392e-06
-1.29296
0.534513
2.91224e-06
-1.29296
0.534486
-1.29297
0.534511
-5.3091e-05
-1.60911
0.316192
1.90234e-05
-1.60915
0.3161
1.3696e-05
-1.6091
0.316145
-7.88854e-06
-1.6091
0.316161
1.44575e-05
-1.60911
0.316127
-1.60913
0.316178
-9.00681e-05
-1.80262
0.193593
1.50337e-05
-1.80276
0.1935
1.19521e-05
-1.80265
0.193553
-7.43215e-06
-1.80265
0.193565
3.24538e-05
-1.80268
0.19353
-1.80267
0.193575
-6.46865e-05
-1.81558
0.0130301
1.16031e-05
-1.81585
0.0130165
3.84887e-06
-1.8157
0.0130541
-3.84445e-06
-1.81569
0.0130518
2.92153e-05
-1.81576
0.0130438
-1.81566
0.0130124
0.000110756
-1.61041
-0.205283
2.28311e-05
-1.61072
-0.205043
-1.83533e-05
-1.61056
-0.205102
-2.33138e-06
-1.61056
-0.205143
-4.77863e-05
-1.61065
-0.205065
-1.61045
-0.20525
0.000326445
-1.25998
-0.350753
3.39859e-05
-1.2601
-0.35032
-5.17598e-05
-1.26002
-0.350453
-2.24387e-05
-1.26006
-0.350529
-0.000170559
-1.26011
-0.350385
-1.25994
-0.350689
0.000383307
-0.861356
-0.399011
4.51536e-06
-0.861167
-0.398558
-8.53636e-05
-0.861213
-0.398714
-5.00928e-05
-0.86131
-0.398788
-0.000218351
-0.861307
-0.398639
-0.861198
-0.398956
0.000126831
-0.348343
-0.51314
-3.68398e-05
-0.348141
-0.512863
-6.77699e-05
-0.348203
-0.512979
-6.52874e-05
-0.348294
-0.513019
-0.000184758
-0.348235
-0.512953
-0.348248
-0.513135
-0.000144903
-0.348199
-3.87726e-05
-0.348247
1.77216e-05
-0.348259
-3.87608e-05
-0.348238
-0.00010649
-0.348167
-0.348355
0.000595968
0.0676274
-0.0693452
-6.51424e-05
0.0684373
-0.0688937
-0.000159526
0.0681076
-0.0691275
-4.66761e-05
0.0679668
-0.0691942
-0.000279611
0.0681756
-0.0690616
0.0678465
-0.0692688
0.000518142
-0.970698
1.25485
-2.99879e-06
-0.970109
1.2561
-0.000122923
-0.970318
1.25559
-2.40789e-05
-0.970417
1.25533
-0.000211063
-0.970286
1.25568
-0.970585
1.25525
0.000634498
-1.95805
1.52925
-1.0765e-05
-1.95794
1.53105
-0.000194816
-1.95798
1.53041
-1.98253e-05
-1.958
1.52996
-0.00019946
-1.95795
1.53039
-1.95806
1.52981
0.000270298
-2.09368
0.669882
2.50176e-05
-2.09353
0.670302
-5.99804e-05
-2.09358
0.67018
1.20069e-06
-2.09361
0.670071
-0.000110642
-2.09355
0.670201
-2.09366
0.670003
0.000189721
-1.93169
0.154011
2.39068e-05
-1.93172
0.154452
-2.70455e-05
-1.93168
0.154293
1.81188e-06
-1.93169
0.154208
-0.000100568
-1.93168
0.154361
-1.93172
0.15413
0.000145593
-1.72417
-0.014072
4.62199e-06
-1.72435
-0.0137285
-2.44836e-05
-1.72425
-0.0138451
9.12539e-06
-1.72425
-0.0139097
-8.41864e-05
-1.72427
-0.0137905
-1.72424
-0.013981
0.00017983
-1.40265
-0.308665
-7.66239e-06
-1.4029
-0.30824
-3.7198e-05
-1.40279
-0.308379
1.91449e-05
-1.40278
-0.30847
-7.37745e-05
-1.4028
-0.308329
-1.40273
-0.308573
0.000159017
-0.951031
-0.657062
-2.27147e-05
-0.951138
-0.656625
-4.43032e-05
-0.951103
-0.656764
1.26099e-05
-0.9511
-0.656882
-3.64757e-05
-0.951084
-0.656735
-0.951029
-0.65699
-0.000109619
-0.427365
-0.87431
-4.77511e-05
-0.426934
-0.874587
-2.13551e-05
-0.427126
-0.874457
-9.36695e-06
-0.427134
-0.874507
8.3501e-05
-0.427014
-0.874548
-0.427178
-0.874456
-0.000289621
-0.153427
-0.672659
-9.32435e-05
-0.152568
-0.67312
-2.03367e-05
-0.152936
-0.672977
-2.85048e-05
-0.152917
-0.672997
0.000306882
-0.152841
-0.673148
-0.153083
-0.672743
-0.000444642
-0.271046
-0.395076
-1.41893e-06
-0.270892
-0.394982
7.91721e-05
-0.271
-0.394996
-1.73483e-05
-0.270862
-0.394977
0.000247767
-0.271221
-0.394838
-0.270851
-0.395119
8.57557e-05
-0.61933
2.48349e-05
-0.619078
2.67078e-05
-0.619262
3.42911e-05
-0.619107
-0.000247355
-0.619107
-0.619453
-0.00256739
-2.20062
2.13384
-0.000222229
-2.20626
2.13502
-0.0002523
-2.20359
2.1345
-0.000140843
-2.20365
2.13435
0.00107165
-2.20488
2.13461
-2.20235
2.13416
-0.000437043
-4.46781
3.52247
0.000143299
-4.47635
3.52562
-0.000747562
-4.47216
3.52504
-0.000425246
-4.47202
3.52337
0.000200785
-4.474
3.52417
-4.47042
3.52352
0.00330843
-4.79752
1.85566
-0.000169761
-4.80152
1.8597
-0.00112296
-4.79962
1.85882
-0.000280538
-4.79952
1.85662
-0.00122973
-4.80045
1.85779
-4.79873
1.85689
0.000873648
-3.5848
-0.543715
-5.16602e-05
-3.58524
-0.545055
-0.000250986
-3.58499
-0.544248
-3.83624e-05
-3.58516
-0.544507
-0.000273965
-3.58519
-0.544823
-3.58499
-0.544004
-0.000359135
-2.47151
-0.95892
-3.82426e-06
-2.47114
-0.96
-5.42528e-05
-2.47129
-0.959361
-4.66884e-05
-2.47141
-0.959543
0.000308335
-2.47126
-0.959918
-2.47146
-0.959091
-0.000667389
-1.61369
-0.871218
-3.97085e-05
-1.61332
-0.872174
-1.10107e-05
-1.61349
-0.87167
-5.22069e-05
-1.61357
-0.87171
0.000449222
-1.61345
-0.872109
-1.61363
-0.871371
-0.000849904
-0.607762
-1.31375
-8.85054e-05
-0.60759
-1.31474
-3.2684e-05
-0.607675
-1.31425
-8.02715e-05
-0.607726
-1.31427
0.00054646
-0.607727
-1.31468
-0.607704
-1.31395
-0.00116006
0.707285
-1.97095
-0.000166546
0.707537
-1.97275
-7.68472e-05
0.707454
-1.97198
-0.000133485
0.707453
-1.97201
0.000723981
0.707408
-1.97273
0.707347
-1.97132
-0.00135194
2.11087
-2.27654
-0.000391917
2.11226
-2.28027
-0.000193776
2.11188
-2.27908
-0.000147448
2.11181
-2.27891
0.000833121
2.11184
-2.27996
2.11112
-2.2774
-0.000823721
2.256
-0.816972
0.000326754
2.25431
-0.816326
0.0013334
2.25492
-0.817029
-8.22075e-05
2.25722
-0.816995
-0.0020411
2.25879
-0.818138
2.25173
-0.815389
-0.000972963
0.292651
1.56925
0.000728093
0.287927
1.5697
0.0019641
0.289404
1.56928
0.000360507
0.293014
1.57083
-0.00272731
0.292345
1.57469
0.288015
1.56587
0.00194311
-0.328623
-0.00061236
-0.328595
-0.00191257
-0.328558
0.000696688
-0.328702
0.003254
-0.329319
-0.328184
-0.00228226
-2.02607
4.16219
-0.000214436
-2.03007
4.16302
-0.000384296
-2.02799
4.16265
-0.000275109
-2.0284
4.16264
0.000917749
-2.02938
4.1628
-2.02743
4.16251
-0.000596851
-3.06438
4.56138
-0.000168602
-3.06844
4.56356
-0.000538354
-3.06629
4.56372
-0.000363144
-3.06687
4.56167
9.83152e-05
-3.06793
4.56227
-3.06595
4.56214
0.00105719
-2.9769
1.76713
-0.000225699
-2.97751
1.77005
-0.000653566
-2.97714
1.7701
-0.000355646
-2.97773
1.76717
-0.000690328
-2.97795
1.76814
-2.97761
1.76786
0.00088344
-2.254
-1.2675
-0.000260937
-2.25372
-1.2677
-0.000622418
-2.25378
-1.26725
-0.000281539
-2.2544
-1.26817
-0.000369586
-2.25462
-1.26806
-2.25461
-1.26738
-0.000409632
-0.112932
-3.09958
2.11114e-05
-0.112688
-3.10146
-0.000671733
-0.112271
-3.10017
-0.000402069
-0.113331
-3.10088
0.000837261
-0.114128
-3.10164
-0.113044
-3.09981
-0.000526225
2.05134
-3.03496
-0.00011954
2.05129
-3.03656
-0.0003749
2.05199
-3.03567
-0.000234147
2.05091
-3.03609
0.000937047
2.04963
-3.03703
2.05191
-3.03539
0.00149651
3.49059
-2.75449
-0.000351276
3.49161
-2.7532
-0.000782054
3.49173
-2.75355
-0.000401841
3.49092
-2.75467
0.000186787
3.48975
-2.75539
3.49171
-2.75356
0.00204796
3.65193
-2.13434
-0.000263637
3.65268
-2.13151
-0.000771051
3.65279
-2.13254
-0.000483695
3.65274
-2.13411
5.25138e-05
3.65168
-2.1352
3.65215
-2.13171
0.000102919
2.29476
-0.919474
-6.53867e-05
2.29065
-0.918067
-0.000190086
2.29268
-0.918844
-0.000409794
2.29391
-0.919852
-0.00081961
2.29348
-0.921354
2.29081
-0.916881
-0.00497506
0.481413
1.00135
0.00310849
0.461641
1.00459
0.00869155
0.46752
1.00254
0.00180609
0.481697
1.0021
-0.0214325
0.498698
0.999888
0.449014
1.00498
-0.000547606
-0.655872
2.70708
0.00129462
-0.672867
2.70237
0.00316001
-0.668112
2.70305
0.00143283
-0.655276
2.70953
-0.00690372
-0.637785
2.71951
-0.685581
2.69355
0.00603181
-0.990525
-0.0036193
-0.991811
-0.00935822
-0.99093
-0.00178582
-0.99155
0.0236207
-0.992511
-0.990144
-0.444121
-4.77686
5.22098
0.297903
-5.35464
4.61262
-1.81287
-4.32667
6.43744
-0.826421
-5.18928
4.20283
2.78885
-6.40595
2.79067
-3.51249
6.30135
0.00958731
-6.36784
1.58139
0.0818
-6.67431
1.24745
0.28335
-6.42435
1.89613
0.287885
-6.59219
1.39838
0.108019
-7.10244
0.876364
-5.69139
2.28692
0.0379502
-6.80037
0.394581
-0.0312507
-7.00792
0.402808
0.139085
-6.91077
0.316087
0.0430977
-6.91452
0.418319
-0.344193
-7.30031
0.585154
-6.39613
0.360543
0.0402339
-6.68766
-0.152943
-0.00119449
-6.82247
-0.144016
0.110211
-6.68407
-0.338106
-0.00869908
-6.75324
-0.0423704
-0.258102
-7.20118
0.150277
-6.20233
-0.451906
0.0323461
-6.34422
-0.375784
0.00822974
-6.42387
-0.374487
0.0367891
-6.27816
-0.434472
-0.0194166
-6.34191
-0.355126
-0.195044
-6.75972
-0.265833
-5.73985
-0.657522
0.0164819
-5.65154
-0.709162
0.0358658
-5.67491
-0.768343
0.0539644
-5.57311
-0.723152
-0.0210408
-5.66196
-0.604943
-0.0860418
-5.98329
-0.711429
-5.18973
-0.636162
0.0136401
-4.91616
-0.749024
0.0240939
-4.91678
-0.768582
0.0530154
-4.79248
-0.809549
-0.037326
-4.96832
-0.603297
-0.140228
-5.24805
-0.632337
-4.5362
-0.793757
0.0322529
-4.07528
-0.873133
0.0673491
-4.10409
-0.847787
0.0572785
-3.98969
-0.792714
0.0425541
-4.10974
-0.843859
-0.177488
-4.35764
-0.670373
-3.63279
-1.0809
-0.0144124
-2.0754
-1.98546
0.0718293
-2.14447
-2.04587
0.26606
-2.11811
-2.06581
0.215963
-2.14376
-1.91588
-0.449503
-2.3388
-1.35337
-1.9374
-2.14489
-0.0648312
0.543648
-2.55422
0.0240776
0.466287
-2.69966
0.385613
0.313394
-2.79304
0.102273
0.486767
-2.34719
-0.828643
0.409138
-1.81702
-0.283908
-2.48214
0.0177706
2.00689
-1.48101
0.181983
2.1005
-1.79842
0.701476
1.89444
-2.10054
0.441314
2.03051
-1.28358
-0.682286
2.09572
-0.562986
0.951066
-1.91726
-0.270578
2.27747
-0.320252
2.15017
0.920146
0.654046
0.456497
2.49416
0.302289
2.24993
1.25335
-0.120103
-5.53361
10.8747
-0.0729684
-6.05044
10.6159
-0.483249
-5.15074
11.9985
0.291118
-6.12492
9.55339
0.345678
-7.6785
10.4146
-4.36252
11.0095
0.0291562
-7.8056
3.82423
-0.142655
-8.05325
3.42207
0.308081
-7.72362
4.01827
0.0501379
-8.04406
3.57545
-0.826324
-9.10054
3.17486
-7.15681
4.25489
0.0668003
-7.19958
-0.278239
-0.0251105
-7.27804
-0.280498
-0.0282931
-7.05772
-0.346629
-0.0805039
-7.3205
-0.253026
-0.227457
-8.26352
-0.104914
-6.87594
-0.147788
0.0578425
-5.71715
-1.69322
0.0788604
-5.76848
-1.67459
0.160195
-5.59741
-1.87975
0.182258
-5.83896
-1.54597
-0.0419764
-6.57248
-1.31652
-5.3786
-1.99122
0.0282095
-4.18032
-1.94082
-0.00496481
-4.17499
-1.93481
0.126948
-4.13132
-2.03248
0.234804
-4.44715
-1.8548
-0.22968
-4.77553
-1.5983
-3.99516
-2.27064
-0.0165046
-3.27415
-1.59883
-0.110361
-3.19744
-1.65203
-0.13385
-3.16316
-1.66782
-0.102583
-3.65002
-1.43334
-0.195685
-3.953
-1.44086
-3.14327
-1.68374
-0.0164542
-3.44469
-0.56203
-0.0947301
-3.34526
-0.542488
-0.248309
-3.23759
-0.581539
-0.242231
-3.80835
-0.451039
-0.141676
-4.3031
-0.382793
-3.21467
-0.864031
-0.059045
-3.52044
-0.738339
-0.129144
-3.48615
-0.636805
-0.169573
-3.43705
-0.552826
-0.289372
-3.74983
-0.782585
-0.173848
-4.53787
-0.55113
-3.31002
-1.15939
-0.0975197
-2.90389
-2.50449
-0.174987
-2.91241
-2.54214
-0.261913
-2.81103
-2.6049
-0.312165
-3.13415
-2.4813
-0.254083
-4.10466
-1.84466
-2.86882
-2.84018
-0.0559372
-1.92526
-3.47691
-0.11227
-2.01262
-3.54312
-0.156468
-1.90679
-3.65309
-0.216643
-2.10345
-3.31772
-0.252872
-2.59637
-3.28908
-2.0214
-3.58243
0.259345
-1.08643
-2.57919
0.358198
-1.08276
-2.82713
0.61703
-1.17954
-3.08663
0.655617
-1.16056
-2.26506
-0.278449
-0.898366
-1.32692
-1.26134
-2.95577
0.816578
0.374462
1.64598
0.238007
2.22449
-1.10399
2.52266
1.03543
-0.607741
4.48197
-0.615731
-0.0512977
-1.73625
12.6622
0.101136
-1.96653
12.43
0.0558795
-1.6484
13.6921
0.276652
-2.2555
11.5881
0.66512
-2.30604
12.3322
-1.49378
13.1684
-0.104995
-3.90842
6.1014
-0.258106
-4.03645
5.6451
-0.224644
-3.92422
6.26064
-0.28158
-4.09583
5.47272
-0.0882317
-4.76918
5.44466
-3.9596
6.63247
-0.0367709
-3.99756
-0.152329
-0.0780866
-3.9866
-0.289032
-0.0302331
-4.03081
-0.287893
0.0516285
-4.08746
-0.343261
-0.0534556
-4.41696
-0.352055
-4.24108
0.0802365
-0.0105814
-3.60246
-2.07774
0.0431528
-3.59139
-2.12353
-0.143965
-3.61563
-2.10782
0.101231
-3.67744
-2.2012
0.453955
-3.83578
-2.25043
-3.71147
-2.06688
-0.00445092
-2.88167
-2.65717
0.0184026
-2.8673
-2.68175
-0.0827744
-2.86931
-2.67762
0.0583324
-2.95355
-2.71979
0.368613
-3.01361
-2.73075
-2.92051
-2.69299
-0.0164454
-2.13179
-2.33226
-0.0530245
-2.12478
-2.35798
-0.128629
-2.09299
-2.36854
0.0107962
-2.19393
-2.33238
0.185211
-2.31161
-2.31728
-2.03939
-2.37964
-0.0532751
-1.10193
-1.53862
-0.0869289
-1.1074
-1.52621
-0.127509
-1.08318
-1.55077
-0.0695963
-1.21765
-1.48523
0.286147
-1.64316
-1.40699
-0.980481
-1.6368
-0.0790667
-0.605446
-1.15575
-0.137703
-0.577189
-1.10838
-0.14312
-0.508756
-1.12183
-0.226146
-0.805222
-1.11199
0.342265
-1.71236
-1.05034
-0.549471
-1.24814
-0.048214
-1.52514
-1.53659
-0.167671
-1.46513
-1.53474
-0.353405
-1.37485
-1.55307
-0.383401
-1.69634
-1.56018
0.25533
-2.47587
-1.71988
-1.56775
-1.56657
-0.053165
-1.9124
-3.03648
-0.20273
-1.87887
-2.97981
-0.353916
-1.7379
-3.13886
-0.244711
-2.08457
-3.03869
0.0702379
-2.77542
-3.30449
-1.87974
-3.2002
0.00653321
-1.31792
-3.1802
-0.155986
-1.34124
-3.20225
-0.4929
-1.15143
-3.33618
-0.367123
-1.48762
-2.98779
0.323894
-2.26683
-2.52653
-1.30595
-3.20566
0.191824
-1.13529
0.305155
-1.21656
-0.410918
-1.53935
-0.293
-0.570114
0.523126
1.39901
-1.39855
-0.116767
1.51229
11.2667
0.0252702
1.27517
11.0128
0.0360074
1.39998
12.2814
0.104076
1.16859
10.3515
0.335202
1.50253
10.5985
1.62671
11.8769
-0.051746
0.785296
6.88013
-0.26032
0.728232
6.40061
-0.0955325
0.439468
7.05636
-0.294309
0.764595
6.07548
-0.359002
0.797508
6.21438
0.471321
7.42886
0.0290889
-0.371598
0.975474
-0.0188095
-0.347252
0.834351
-0.134642
-0.626241
0.893647
-0.141183
-0.299136
0.72701
-0.317594
-0.187518
0.80938
-0.770403
1.00437
0.0223116
-0.529741
-1.94191
0.0839995
-0.519895
-2.01257
-0.0399656
-0.614349
-1.99575
0.0664211
-0.544309
-2.06241
0.17264
-0.503078
-2.04109
-0.706755
-1.95788
0.0278049
-0.360931
-2.85378
0.061754
-0.358588
-2.87701
0.0260914
-0.381504
-2.8748
0.0449464
-0.396854
-2.8861
0.0813798
-0.396741
-2.87351
-0.425646
-2.89272
0.0191652
-0.175593
-2.53676
0.031004
-0.181184
-2.54722
0.00992253
-0.184432
-2.54452
0.021952
-0.210051
-2.53122
0.049963
-0.220994
-2.52103
-0.196108
-2.55922
-0.00231232
0.116421
-1.82832
0.00963414
0.104022
-1.82337
-0.000316481
0.100164
-1.82542
0.0171716
0.0986061
-1.81138
0.0750075
0.11298
-1.7988
0.0839097
-1.84181
-0.0276975
0.446523
-1.45816
-0.022564
0.43908
-1.44857
-0.10556
0.515918
-1.45459
-0.0572021
0.370874
-1.43261
0.151707
0.235163
-1.38143
0.444006
-1.45653
-0.0100993
-0.174216
-0.905752
0.00695518
-0.193313
-0.919406
-0.0705845
-0.054863
-0.904752
-0.0240933
-0.282722
-0.953077
0.0712712
-0.654449
-0.925633
-0.109663
-0.94163
-0.0238849
-1.1737
-2.01311
-0.0303178
-1.19611
-1.97058
-0.0150686
-1.19207
-2.0169
-0.0147895
-1.22508
-2.09662
-0.0918291
-1.7357
-2.14619
-1.32158
-2.08011
-0.067001
-1.12247
-3.16443
-0.259823
-1.14841
-3.05712
-0.514991
-1.12387
-3.14921
-0.376124
-1.36195
-2.98978
0.15599
-1.89485
-2.89949
-1.23847
-3.13278
-0.0755335
-2.18222
-0.264697
-2.17581
-0.755263
-2.17266
-0.65156
-2.03577
0.642244
-1.78965
-1.99477
-0.00131763
4.38116
-0.217651
-0.000140786
4.38161
-0.219765
-0.000194217
4.38139
-0.218679
-0.000231363
4.38146
-0.218781
0.000402207
4.38153
-0.219361
4.38143
-0.218524
-0.00045163
3.72153
0.660089
-5.29411e-05
3.72168
0.659532
-4.24429e-05
3.72161
0.659768
-8.77747e-05
3.72165
0.659856
7.17702e-05
3.72168
0.659695
3.72167
0.659837
-4.54849e-05
0.44863
4.31151e-07
0.44859
-5.57007e-06
0.44859
-2.52997e-05
0.448624
-2.68067e-05
0.448607
0.448607
-0.000428947
4.58225
-0.238088
-0.000225323
4.58345
-0.239858
0.000262162
4.5833
-0.23874
-1.2686e-05
4.5824
-0.239234
-5.77108e-06
4.58273
-0.239828
4.58253
-0.23892
-0.000536466
3.69203
1.55085
1.74942e-05
3.69246
1.54996
0.000305798
3.69231
1.55047
-4.47447e-06
3.69218
1.55039
9.04702e-05
3.69227
1.55006
3.69214
1.55031
-0.000168285
1.01099
1.06126e-05
1.01093
7.33547e-05
1.01094
-2.89341e-05
1.01098
-4.91858e-06
1.01093
1.01088
-3.80068e-05
2.18639
-0.65732
-0.000107942
2.18863
-0.658377
0.000401071
2.18857
-0.657725
-9.65615e-05
2.18647
-0.658035
-0.000402727
2.18722
-0.658607
2.18679
-0.658256
-0.000398074
2.059
1.67864
5.09511e-05
2.06024
1.67791
0.000650779
2.06002
1.67842
0.000156355
2.05916
1.67819
-7.15003e-06
2.05958
1.67787
2.05915
1.67795
-0.000269044
1.30217
3.17044e-05
1.30223
0.00031831
1.30221
9.69865e-05
1.30218
8.85594e-05
1.30217
1.30204
0.000704547
-0.254132
-1.67139
7.57747e-05
-0.253055
-1.67239
0.00021775
-0.253334
-1.67178
-3.31997e-05
-0.254097
-1.67186
-0.000631156
-0.253661
-1.67241
-0.253955
-1.67231
0.000305334
-0.113558
1.53776
7.44441e-05
-0.112207
1.53729
0.000286743
-0.1127
1.53757
0.00010598
-0.113253
1.53752
-0.000316103
-0.112743
1.53737
-0.113374
1.53705
1.66919e-05
1.35708
0.000100157
1.35757
0.000262163
1.35735
0.000134784
1.35724
0.000124178
1.35736
1.35711
0.00109017
-1.50242
-3.26964
0.000317672
-1.50143
-3.27165
0.000616746
-1.50159
-3.27067
0.000487927
-1.50245
-3.27016
-0.0004931
-1.50223
-3.27085
-1.50229
-3.27033
0.00095441
-1.28723
1.32162
0.00012587
-1.28501
1.3217
0.000297144
-1.28599
1.3218
0.000180516
-1.28649
1.32168
-0.000616442
-1.2858
1.32175
-1.28668
1.32083
0.000116298
1.3169
8.27382e-05
1.31842
0.00014433
1.31777
0.000104961
1.31744
0.000113049
1.31788
1.31723
0.000670481
-1.94619
-4.35909
0.000358214
-1.94392
-4.36397
0.000624022
-1.94482
-4.36179
0.000335578
-1.94567
-4.3603
-0.000883055
-1.94518
-4.36148
-1.946
-4.3606
0.00073181
-1.31982
0.694518
0.000304022
-1.3164
0.694616
0.0003078
-1.31787
0.694844
0.000243718
-1.31864
0.694716
-0.000470568
-1.31757
0.694847
-1.31904
0.693394
4.48219e-05
1.27483
3.80202e-05
1.27755
8.3373e-05
1.27641
4.59879e-05
1.27577
-4.47516e-05
1.27671
1.27512
0.000475174
-2.16691
-4.94714
0.000265403
-2.16269
-4.95427
0.000571979
-2.16447
-4.95118
-3.17665e-05
-2.16567
-4.94869
-0.00248798
-2.16519
-4.94922
-2.16592
-4.95073
-0.000123165
-1.29362
-0.178656
0.000280831
-1.2898
-0.178684
0.000520991
-1.29147
-0.178397
0.000450777
-1.29231
-0.178575
-0.000652444
-1.291
-0.17824
-1.29334
-0.17984
-0.000288379
0.906386
3.33601e-06
0.909098
0.000163209
0.907924
9.70414e-05
0.907314
0.000200587
0.908291
0.906191
0.000934819
-1.82258
-5.25984
0.00040868
-1.81844
-5.26682
0.000930342
-1.82026
-5.26399
-3.60849e-05
-1.8215
-5.26033
-0.00353178
-1.82215
-5.25878
-1.81984
-5.26613
-0.00110163
-1.20648
-0.793653
0.000396719
-1.20447
-0.794158
0.00101652
-1.20552
-0.793755
0.00029955
-1.20585
-0.793507
-0.00207863
-1.20542
-0.792583
-1.20646
-0.7953
-0.000407876
0.560192
8.78714e-05
0.561502
0.000223059
0.560888
0.00016287
0.560694
0.000257825
0.561247
0.559732
0.00174032
-0.930704
-5.25035
0.000284989
-0.926897
-5.25654
0.000794194
-0.928588
-5.25476
-3.53397e-05
-0.930246
-5.24911
-0.00253422
-0.933021
-5.24462
-0.925393
-5.26016
-0.00198631
-0.669436
-1.05294
0.00130222
-0.668771
-1.05558
0.00288908
-0.669149
-1.05478
0.000486587
-0.669756
-1.05159
-0.00731519
-0.671251
-1.04655
-0.667488
-1.06052
-0.000269386
0.310798
0.000193254
0.31111
0.000387916
0.31095
0.000196858
0.31089
-0.000671766
0.311084
0.310551
-0.000206557
0.607377
-4.85617
0.000320463
0.609997
-4.86247
0.000502899
0.608744
-4.86113
0.000436843
0.607163
-4.85411
-0.00225602
0.60403
-4.84607
0.612225
-4.86966
-0.000127843
0.885682
-1.33111
9.25905e-05
0.887566
-1.33337
0.000148114
0.886906
-1.333
0.000188574
0.884201
-1.32867
0.000720884
0.879453
-1.32251
0.892108
-1.33968
-0.000408372
0.374566
0.000849155
0.37477
0.00169771
0.374657
0.000226159
0.374279
-0.00490143
0.373928
0.375064
0.00311676
1.61406
-3.76626
-0.00104822
1.61367
-3.7696
-0.00251119
1.6125
-3.76912
-0.00115748
1.6172
-3.76313
0.00703439
1.62124
-3.75599
1.60765
-3.77672
0.000446446
0.801056
-0.51855
-0.00136988
0.800741
-0.518626
-0.00314788
0.800254
-0.518969
-0.000539214
0.803036
-0.517123
0.00756028
0.805764
-0.515139
0.796844
-0.521319
-6.41426e-06
0.815273
-0.000269108
0.815315
-0.000856413
0.815281
2.98553e-05
0.814895
0.00195124
0.814735
0.815574
-0.000342126
-3.37188
-1.38457
-0.000305981
-3.37727
-1.38418
0.00132416
-3.37806
-1.38363
-0.000361913
-3.3677
-1.38529
-0.00278829
-3.36006
-1.38602
-3.38678
-1.38287
0.00108596
-3.0815
-0.810023
-0.00149565
-3.08336
-0.809962
-0.00416373
-3.08357
-0.810786
-0.000517498
-3.07936
-0.809117
0.00823133
-3.07623
-0.807713
-3.08695
-0.812912
0.00065143
-0.424849
-0.00049764
-0.424889
-0.00225713
-0.425474
-0.000152382
-0.424472
0.00435792
-0.423117
-0.42719
-0.00140566
-0.494174
-0.788098
1.28368
-0.0017304
-0.496992
-0.788363
1.28568
-0.00507308
-0.49209
-0.78837
1.2838
-0.00529652
-0.482723
-0.783382
1.26633
0.00567955
-0.467707
-0.782586
1.23932
-0.479668
-0.786159
1.27151
-0.00509235
-0.626992
-0.486792
0.624702
-0.00909349
-0.629193
-0.488132
0.624334
-0.00695554
-0.62461
-0.484593
0.614975
-0.0116096
-0.614499
-0.478141
0.614571
-0.0166035
-0.601408
-0.471636
0.61033
-0.61199
-0.477927
0.593645
-0.00661989
-0.295714
0.408614
-0.016219
-0.293468
0.408917
-0.0212033
-0.288342
0.400373
-0.025983
-0.288922
0.403808
-0.0053882
-0.277626
0.382523
-0.269086
0.37482
-0.000296112
-0.304749
-0.483053
-9.81066e-05
-0.306061
-0.482501
0.000748031
-0.306694
-0.482522
0.000186972
-0.300033
-0.482787
-0.0014128
-0.2986
-0.482386
-0.304508
-0.483064
-0.00333294
-0.500934
-0.287274
-0.00710539
-0.503693
-0.286727
-0.00840171
-0.504131
-0.28586
-0.0122616
-0.494462
-0.279853
-0.0116495
-0.495151
-0.275697
-0.511446
-0.282638
-0.00351451
-0.00766603
-0.00554201
-0.00672425
-0.00649826
-0.00404066
-0.00946092
-0.00427787
-0.00770298
-0.000977424
0.00820987
2.60386e-05
-0.329653
-0.153426
0.000127122
-0.329457
-0.153145
0.000540879
-0.329661
-0.153275
-0.000425477
-0.329067
-0.152754
-0.00190041
-0.328255
-0.152656
-0.33178
-0.153184
-0.00123933
-0.579464
-0.0362232
-0.00317496
-0.579574
-0.0346747
-0.00541033
-0.579581
-0.0337048
-0.000416891
-0.579779
-0.0341338
0.00915141
-0.582083
-0.0314369
-0.57753
-0.0277358
-0.00184082
0.16562
-0.0031183
0.165932
-0.00392365
0.167284
-0.00443912
0.166928
-0.000905302
0.167176
0.172791
0.000137601
-0.213834
0.0602705
0.000519258
-0.213714
0.0601882
0.00124854
-0.214055
0.0600504
-0.000352442
-0.211578
0.0604245
-0.00301879
-0.210334
0.0603446
-0.216222
0.0600188
-0.00247323
-0.547595
0.300012
-0.00303817
-0.547737
0.299913
-0.004471
-0.547024
0.300697
-0.00381954
-0.547759
0.301396
0.00182831
-0.55014
0.302722
-0.543317
0.301189
-0.00106993
0.441565
-0.00188895
0.441609
-0.00410499
0.442826
-0.00152517
0.441806
0.00489887
0.440709
0.446249
9.20208e-06
-0.405743
0.466004
6.44686e-05
-0.405646
0.465779
0.000138636
-0.405416
0.465392
-0.000392552
-0.405515
0.466471
-0.00108127
-0.405855
0.466888
-0.40593
0.464868
-0.00095753
-0.823714
0.71894
-0.00155308
-0.824137
0.718998
-0.00320947
-0.822851
0.719788
-0.000751856
-0.825356
0.718778
0.00628398
-0.828453
0.718285
-0.820131
0.721674
-0.000633596
0.651227
-0.000900755
0.651079
-0.00187495
0.6522
-0.000579861
0.650677
0.00261845
0.648811
0.654905
-0.000243169
-0.918318
6.17799e-05
-0.918703
0.00113502
-0.919307
-0.000300608
-0.91738
-0.00270722
-0.91672
-0.920711
-0.000514859
-1.00889
-0.000780769
-1.0094
-0.00196426
-1.00912
-0.000545544
-1.00914
0.00358998
-1.01028
-1.00836
-0.000127366
-0.000301716
-0.00100147
-0.000148168
0.00169724
-0.0641671
7.93893
3.39195
-0.0965117
7.81047
3.23469
0.262624
8.51406
3.4082
-0.031776
7.49102
3.15484
-0.0390906
7.31034
3.2955
8.21946
3.61839
-0.00122758
5.03537
2.90479
-0.0422278
5.01009
2.84139
0.302131
5.20918
2.96053
0.0725494
4.9329
2.7877
-0.177583
4.82088
2.7396
5.04616
2.99572
0.00937542
1.18453
-0.00474257
1.18516
0.119662
1.20518
0.0595067
1.17051
-0.0679597
1.14484
1.17316
0.0782203
6.58968
3.60418
-0.104908
6.32031
3.49812
0.104267
6.81377
3.44161
-0.213081
6.08563
3.46204
-0.491056
6.12287
3.66498
6.88415
3.67204
0.0878322
5.42714
3.9795
-0.0243209
5.34866
3.92519
0.215552
5.54135
3.99308
-0.0353654
5.25234
3.87191
-0.334701
5.24327
3.91853
5.48413
4.06104
0.0293204
1.97656
0.00475783
1.97074
0.100492
2.00296
0.0208079
1.95152
-0.0808495
1.9388
1.98326
0.0514617
1.90915
2.61904
0.00496915
1.77915
2.59982
-0.0846605
1.90425
2.52064
-0.153105
1.67802
2.57947
-0.145726
1.75382
2.71316
1.9623
2.56839
0.0669183
2.34522
3.47652
0.0102561
2.30243
3.45857
0.0610515
2.36584
3.4807
-0.0664267
2.25611
3.4213
-0.148982
2.28611
3.4688
2.36437
3.50998
0.0220087
1.79186
0.00668886
1.7886
0.0532398
1.80411
-0.000146683
1.77789
-0.0569079
1.78136
1.79603
0.0346562
-1.20472
1.8472
0.0223191
-1.24619
1.84578
-0.0461771
-1.22906
1.82245
-0.0689499
-1.279
1.81884
-0.0195678
-1.24728
1.86997
-1.22582
1.81676
0.0325273
-0.0577898
2.29706
0.0168737
-0.0674334
2.29547
0.0261603
-0.0610116
2.30337
-0.0315086
-0.0768395
2.27681
-0.0542741
-0.058449
2.30273
-0.0722693
2.30216
0.00562035
1.13035
0.00178441
1.13033
0.0170631
1.13289
-0.000480579
1.12945
-0.0143143
1.13561
1.12633
0.0146942
-2.17039
1.14911
0.0138894
-2.18068
1.15026
-0.00473563
-2.18153
1.1478
-0.0158743
-2.1865
1.13038
0.0112036
-2.1794
1.14878
-2.19889
1.13414
0.0106221
-1.08226
1.1983
0.00961411
-1.08425
1.20004
0.0173543
-1.08642
1.20053
-0.00172839
-1.08563
1.19503
-0.00899458
-1.07765
1.20825
-1.09724
1.19152
-3.36309e-05
0.512992
-0.000671809
0.513121
-3.4668e-05
0.512777
-0.000601467
0.513814
0.00577363
0.517249
0.509142
0.00254713
-1.98462
0.594423
-0.00156922
-1.98776
0.594923
-0.0051001
-1.98857
0.59538
-0.0055176
-1.98811
0.5877
0.0139771
-1.98667
0.594927
-1.99887
0.587766
0.00279462
-1.27009
0.480982
0.00416101
-1.27085
0.481768
0.00672877
-1.27107
0.480459
0.00302632
-1.27064
0.481263
0.00601945
-1.26759
0.486174
-1.27602
0.474692
-0.000554305
0.186038
-0.00130573
0.185969
-0.0022296
0.185758
-0.000925819
0.185966
0.00514212
0.18663
0.184636
-0.0055991
-1.48049
0.252192
-0.00724347
-1.48039
0.253592
-0.0112599
-1.4803
0.254285
-0.00603919
-1.47969
0.250789
0.0233572
-1.47765
0.244376
-1.48604
0.255354
0.000259409
-1.16421
0.164448
0.00163658
-1.16413
0.164132
0.00183449
-1.16325
0.163206
0.00267319
-1.1627
0.163438
0.00638497
-1.15997
0.164791
-1.16469
0.159728
-0.000856593
0.0623393
-0.00182705
0.0622882
-0.00233708
0.0623132
-0.00172247
0.0619948
0.00211144
0.0616259
0.0623201
-0.0103689
-1.2802
0.0845973
-0.0115388
-1.27794
0.0841343
-0.0160969
-1.27673
0.0809809
-0.0144954
-1.26873
0.0853023
0.0174927
-1.25694
0.087893
-1.27554
0.0918523
-0.00207235
-1.29412
0.180447
-0.0026017
-1.29311
0.179827
-0.00433126
-1.29176
0.179964
-0.00349314
-1.29008
0.183947
0.00311788
-1.2874
0.188647
-1.28984
0.17715
-0.00137929
0.0256105
-0.00238854
0.0255236
-0.00261925
0.0253792
-0.00217237
0.0251201
0.000107272
0.0242998
0.0254516
-0.00912977
-0.797432
-0.0145943
-0.0118549
-0.790569
-0.0419786
-0.0541646
-0.793858
0.0123959
-0.00315111
-0.777977
-0.140811
0.155769
-0.768506
-0.228155
-0.794264
0.100255
-0.00586877
-1.00537
0.394248
-0.00462897
-1.00526
0.393279
-0.00187248
-1.00588
0.389227
-0.00233523
-1.00364
0.410069
-0.0147516
-0.996687
0.429244
-1.01291
0.381041
-0.00111356
0.11483
-0.00237468
0.114154
-0.00507252
0.113642
-0.00307499
0.108624
0.0091149
0.101895
0.111943
-0.0299931
-1.13888
-0.858836
0.030866
-1.12632
-0.947098
-0.0358392
-1.13612
-0.801681
0.0542951
-1.18297
-1.1446
0.152472
-1.24043
-1.2321
-1.16046
-0.666919
0.00130942
-1.40089
0.654946
0.0190738
-1.4012
0.6504
0.0445719
-1.40414
0.631749
0.0227432
-1.40364
0.65257
-0.0383839
-1.39167
0.641614
-1.4111
0.593289
-0.00207766
0.199218
-0.00516916
0.198675
-0.0114355
0.1973
-0.00941925
0.194296
0.00945267
0.188687
0.190815
-0.00253931
-1.51291
-2.50782
0.10075
-1.48065
-2.62686
0.0758859
-1.50097
-2.42505
0.133003
-1.41458
-2.77692
0.00698378
-1.25956
-2.74601
-1.50578
-2.28694
-0.0314934
-1.43635
0.609878
-0.0539535
-1.42739
0.619596
-0.0791717
-1.43993
0.595918
-0.0838234
-1.37062
0.613264
0.0195453
-1.29686
0.575543
-1.45409
0.561152
-0.0129993
0.344044
-0.0251701
0.347272
-0.0637719
0.344786
-0.0322175
0.354626
0.0658614
0.359551
0.332537
0.00989048
-3.41625
0.00372669
-3.51083
0.0156003
-3.32578
0.0180964
-3.54886
-0.0366743
-3.24156
-3.04688
-0.0198835
-2.16179
-0.0863216
-2.20046
-0.0684618
-2.13275
-0.166052
-2.22343
-0.103908
-2.11783
-1.996
-0.00636936
-0.0431651
-0.02859
-0.106728
-0.096829
)
;

boundaryField
{
    seabed_topleft_surface
    {
        type            calculated;
        value           uniform 0;
    }
    seabed_topright_surface
    {
        type            calculated;
        value           uniform 0;
    }
    breakwater_top_surface
    {
        type            calculated;
        value           uniform 0;
    }
    breakwater_left_surface
    {
        type            calculated;
        value           uniform 0;
    }
    breakwater_right_surface
    {
        type            calculated;
        value           uniform 0;
    }
    water_front_surface
    {
        type            calculated;
        value           uniform 0;
    }