/*--------------------------------*- C++ -*----------------------------------*\
| =========                 |                                                 |
| \\      /  F ield         | OpenFOAM: The Open Source CFD Toolbox           |
|  \\    /   O peration     | Version:  v1612+                                |
|   \\  /    A nd           | Web:      www.OpenFOAM.com                      |
|    \\/     M anipulation  |                                                 |
\*---------------------------------------------------------------------------*/
FoamFile
{
    version     2.0;
    format      ascii;
    class       volScalarField;
    location    "2.75";
    object      alpha.water;
}
// * * * * * * * * * * * * * * * * * * * * * * * * * * * * * * * * * * * * * //

dimensions      [0 0 0 0 0 0 0];

internalField   nonuniform List<scalar> 
1116
(
0.940851
0.94085
0.940849
0.940849
0.940848
0.940849
0.94285
0.942846
0.942847
0.942846
0.942845
0.942847
0.947938
0.947933
0.947934
0.947934
0.947933
0.947935
0.95747
0.957465
0.957466
0.957466
0.957465
0.957467
0.964811
0.964807
0.964806
0.964805
0.964805
0.964807
0.96795
0.967946
0.967944
0.967943
0.967942
0.967944
0.969341
0.969336
0.969334
0.969333
0.969332
0.969334
0.973042
0.973041
0.973041
0.973041
0.973041
0.973041
0.973117
0.973117
0.973117
0.973117
0.973117
0.973117
0.973117
0.973117
0.973117
0.973117
0.973117
0.973117
0.973117
0.973117
0.973117
0.973117
0.973117
0.973117
0.964198
0.964198
0.964198
0.964199
0.9642
0.964195
0.545522
0.54552
0.545518
0.545519
0.545519
0.545516
0.314867
0.314864
0.314863
0.314863
0.314861
0.314862
0.295071
0.29507
0.295069
0.295067
0.295065
0.295068
0.3466
0.346598
0.346599
0.346597
0.346594
0.346598
0.430963
0.430963
0.430966
0.430965
0.430961
0.430963
0.476626
0.476628
0.47663
0.476629
0.476627
0.476625
0.477794
0.477795
0.477797
0.477796
0.477794
0.477792
0.444827
0.444827
0.444828
0.444827
0.444826
0.444825
0.351478
0.351472
0.351474
0.351474
0.351473
0.351477
0.445882
0.445867
0.445871
0.445871
0.445867
0.445878
0.831412
0.831388
0.831395
0.831394
0.831386
0.831405
0.964077
0.964077
0.964078
0.964078
0.96408
0.964074
3.31611e-08
3.31597e-08
3.31592e-08
3.31608e-08
3.31644e-08
3.31674e-08
1.89182e-08
1.89158e-08
1.8915e-08
1.89147e-08
1.89155e-08
1.89184e-08
1.31707e-08
1.31691e-08
1.31687e-08
1.31676e-08
1.31664e-08
1.31675e-08
6.1965e-09
6.19591e-09
6.19573e-09
6.19551e-09
6.19502e-09
6.19354e-09
8.70188e-10
8.70095e-10
8.7007e-10
8.70042e-10
8.69972e-10
8.69766e-10
1.18019e-10
1.18006e-10
1.18003e-10
1.17999e-10
1.17989e-10
1.17962e-10
7.32934e-13
7.32735e-13
7.32456e-13
7.32412e-13
7.32445e-13
7.31277e-13
-5.24116e-13
-5.24095e-13
-5.24064e-13
-5.23821e-13
-5.23552e-13
-5.24986e-13
-1.15297e-05
-1.15345e-05
-1.1534e-05
-1.15337e-05
-1.15359e-05
-1.15323e-05
0.0004321
0.000432105
0.000432107
0.000432109
0.000432113
0.00043211
0.264977
0.264927
0.264938
0.26494
0.264931
0.264953
0.869441
0.869438
0.869442
0.869438
0.869442
0.86944
3.54993e-07
3.55012e-07
3.55073e-07
3.55136e-07
3.55184e-07
3.55181e-07
3.90224e-06
3.90214e-06
3.90221e-06
3.90224e-06
3.90215e-06
3.90232e-06
4.42178e-08
4.4193e-08
4.4178e-08
4.42231e-08
4.43198e-08
4.43192e-08
1.8966e-07
1.8962e-07
1.89616e-07
1.89572e-07
1.89537e-07
1.89695e-07
2.09244e-07
2.09217e-07
2.09212e-07
2.09209e-07
2.09193e-07
2.09134e-07
7.32938e-13
7.32739e-13
7.32461e-13
7.32416e-13
7.32449e-13
7.31282e-13
2.30348e-13
2.30273e-13
2.30308e-13
2.30348e-13
2.30354e-13
2.30266e-13
-5.19042e-14
-5.19118e-14
-5.19159e-14
-5.19215e-14
-5.19305e-14
-5.18921e-14
-4.35475e-06
-4.35358e-06
-4.35379e-06
-4.35414e-06
-4.35423e-06
-4.3546e-06
4.66434e-05
4.66448e-05
4.6644e-05
4.6646e-05
4.66536e-05
4.66375e-05
0.000542517
0.000542502
0.000542507
0.000542513
0.000542512
0.000542524
0.830277
0.83026
0.830252
0.830265
0.830306
0.830189
7.70632e-61
7.72086e-61
7.71988e-61
7.72015e-61
7.72289e-61
7.70748e-61
1.89104e-56
1.89357e-56
1.89308e-56
1.89315e-56
1.89401e-56
1.89079e-56
2.48868e-52
2.48884e-52
2.48728e-52
2.4872e-52
2.48868e-52
2.48545e-52
2.18984e-48
2.18723e-48
2.18535e-48
2.18559e-48
2.18796e-48
2.18739e-48
2.2597e-44
2.25766e-44
2.25597e-44
2.26304e-44
2.28932e-44
2.24897e-44
2.06992e-39
2.08579e-39
2.09254e-39
2.1121e-39
2.16822e-39
2.08007e-39
2.03384e-35
2.0786e-35
2.09779e-35
2.12365e-35
2.18169e-35
2.08756e-35
3.47593e-32
3.60989e-32
3.65655e-32
3.69665e-32
3.77545e-32
3.57322e-32
8.08936e-30
8.52953e-30
8.59406e-30
8.56597e-30
8.55289e-30
7.83393e-30
3.33036e-32
3.47836e-32
3.50371e-32
3.50057e-32
3.50704e-32
3.26731e-32
4.01408e-30
4.02197e-30
4.0228e-30
4.02501e-30
4.03014e-30
4.03071e-30
1.92937e-27
1.9341e-27
1.93433e-27
1.93448e-27
1.93519e-27
1.93275e-27
8.03916e-58
8.05449e-58
8.05345e-58
8.0536e-58
8.05635e-58
8.04012e-58
1.96388e-53
1.96714e-53
1.96675e-53
1.96677e-53
1.96752e-53
1.96391e-53
2.49085e-49
2.49353e-49
2.49258e-49
2.49247e-49
2.49355e-49
2.48955e-49
2.04608e-45
2.0472e-45
2.04623e-45
2.04626e-45
2.04762e-45
2.04546e-45
5.03059e-41
5.03582e-41
5.0302e-41
5.05255e-41
5.14627e-41
4.96086e-41
6.25867e-36
6.29604e-36
6.30501e-36
6.35326e-36
6.50983e-36
6.22095e-36
5.3647e-32
5.43548e-32
5.45918e-32
5.50831e-32
5.64301e-32
5.38345e-32
9.18239e-29
9.37206e-29
9.42353e-29
9.49482e-29
9.68607e-29
9.17544e-29
2.43979e-26
2.5065e-26
2.50851e-26
2.50355e-26
2.5167e-26
2.33521e-26
1.20866e-28
1.23706e-28
1.23885e-28
1.23876e-28
1.24859e-28
1.16883e-28
5.94788e-27
5.95734e-27
5.95765e-27
5.95986e-27
5.96619e-27
5.96602e-27
1.83296e-24
1.83677e-24
1.83675e-24
1.83666e-24
1.83705e-24
1.83452e-24
3.24716e-55
3.25344e-55
3.25308e-55
3.25317e-55
3.2543e-55
3.24771e-55
7.8269e-51
7.84123e-51
7.84018e-51
7.8404e-51
7.84323e-51
7.82829e-51
9.44678e-47
9.46163e-47
9.45964e-47
9.4596e-47
9.46315e-47
9.4463e-47
7.17675e-43
7.1865e-43
7.18476e-43
7.18491e-43
7.18828e-43
7.17741e-43
7.79553e-38
7.80788e-38
7.79657e-38
7.83558e-38
8.00504e-38
7.64406e-38
8.50407e-33
8.54013e-33
8.54153e-33
8.59776e-33
8.79803e-33
8.39084e-33
5.45809e-29
5.49984e-29
5.50839e-29
5.54841e-29
5.67582e-29
5.40838e-29
7.65772e-26
7.73554e-26
7.74709e-26
7.79548e-26
7.95397e-26
7.55147e-26
2.50528e-23
2.52663e-23
2.52178e-23
2.52611e-23
2.56231e-23
2.41601e-23
3.79125e-22
3.71749e-22
3.52537e-22
3.30887e-22
2.982e-22
2.65984e-22
9.44918e-24
9.45422e-24
9.36391e-24
9.26439e-24
9.16959e-24
8.87182e-24
8.36909e-22
8.38383e-22
8.38277e-22
8.38125e-22
8.38138e-22
8.36829e-22
6.12108e-53
6.13296e-53
6.13235e-53
6.13256e-53
6.13467e-53
6.12217e-53
1.43904e-48
1.44179e-48
1.44164e-48
1.44169e-48
1.44219e-48
1.43938e-48
1.62364e-44
1.62657e-44
1.62635e-44
1.62638e-44
1.62691e-44
1.62383e-44
1.11388e-40
1.11577e-40
1.11561e-40
1.11562e-40
1.11599e-40
1.11399e-40
8.25985e-35
8.27248e-35
8.25847e-35
8.29947e-35
8.4813e-35
8.07816e-35
6.5129e-30
6.52998e-30
6.5242e-30
6.56219e-30
6.70869e-30
6.39193e-30
3.36723e-26
3.37933e-26
3.37745e-26
3.39793e-26
3.47266e-26
3.30817e-26
4.14256e-23
4.15895e-23
4.15523e-23
4.17889e-23
4.26603e-23
4.06023e-23
1.32406e-20
1.32724e-20
1.32495e-20
1.33002e-20
1.35561e-20
1.2888e-20
2.00217e-18
1.99606e-18
1.97821e-18
1.97365e-18
1.8024e-18
1.92534e-18
3.75687e-20
3.75438e-20
2.5758e-20
3.72089e-20
3.40096e-20
3.62331e-20
1.23251e-21
1.23444e-21
1.17792e-21
1.23092e-21
9.95193e-22
1.21897e-21
8.12045e-07
8.12062e-07
8.12248e-07
8.12462e-07
8.12494e-07
8.12376e-07
2.53843e-07
2.53805e-07
2.53888e-07
2.53987e-07
2.5402e-07
2.54025e-07
-5.5168e-15
-6.04265e-15
-6.20252e-15
-6.0646e-15
-6.02881e-15
-6.17296e-15
8.88134e-06
8.88136e-06
8.88138e-06
8.88142e-06
8.88145e-06
8.88145e-06
4.30984e-06
4.30886e-06
4.30947e-06
4.30931e-06
4.30794e-06
4.3101e-06
-3.15794e-14
-3.45877e-14
-3.55048e-14
-3.4715e-14
-3.451e-14
-3.53384e-14
7.85296e-08
7.85123e-08
7.84798e-08
7.8603e-08
7.87385e-08
7.86329e-08
6.79466e-08
6.79476e-08
6.79245e-08
6.79954e-08
6.80749e-08
6.79922e-08
-2.07577e-13
-2.27357e-13
-2.3338e-13
-2.28188e-13
-2.26844e-13
-2.32271e-13
4.16618e-07
4.16617e-07
4.16615e-07
4.16613e-07
4.1661e-07
4.16607e-07
2.87317e-08
2.85627e-08
2.86081e-08
2.83575e-08
2.81664e-08
2.88708e-08
-1.61441e-13
-1.76814e-13
-1.81492e-13
-1.7745e-13
-1.76403e-13
-1.80614e-13
4.16618e-07
4.16618e-07
4.16617e-07
4.16615e-07
4.16613e-07
4.1661e-07
1.96439e-07
1.96389e-07
1.96384e-07
1.96367e-07
1.96342e-07
1.96344e-07
-3.1193e-15
-3.42096e-15
-3.51727e-15
-3.4373e-15
-3.41436e-15
-3.43606e-15
9.39758e-09
9.39294e-09
9.38901e-09
9.38828e-09
9.38675e-09
9.37153e-09
7.07607e-10
7.08398e-10
7.08471e-10
7.08255e-10
7.07505e-10
7.08108e-10
-1.32909e-19
-1.31114e-19
-1.32314e-19
-1.33221e-19
-1.32616e-19
-1.37124e-19
-2.31812e-15
-2.31926e-15
-2.31458e-15
-2.31344e-15
-2.3142e-15
-2.29787e-15
-3.63572e-16
-3.62179e-16
-3.63549e-16
-3.64528e-16
-3.64184e-16
-3.67885e-16
-1.55918e-17
-1.54018e-17
-1.55295e-17
-1.56264e-17
-1.55658e-17
-1.60393e-17
-4.48854e-15
-4.49526e-15
-4.48916e-15
-4.48779e-15
-4.4913e-15
-4.46394e-15
-7.34513e-14
-7.31144e-14
-7.33254e-14
-7.34949e-14
-7.32923e-14
-7.43275e-14
-7.13328e-15
-7.09265e-15
-7.12115e-15
-7.14161e-15
-7.12301e-15
-7.23316e-15
-5.54313e-08
-5.54084e-08
-5.54342e-08
-5.54179e-08
-5.53093e-08
-5.5566e-08
-1.89061e-12
-1.88126e-12
-1.88636e-12
-1.89007e-12
-1.88392e-12
-1.91226e-12
-2.72566e-12
-2.71223e-12
-2.71971e-12
-2.72479e-12
-2.71592e-12
-2.75601e-12
2.04482e-06
2.04461e-06
2.04476e-06
2.04501e-06
2.04555e-06
2.04436e-06
-8.71522e-08
-8.71363e-08
-8.71105e-08
-8.72711e-08
-8.76579e-08
-8.66845e-08
-2.05948e-09
-2.06268e-09
-2.05325e-09
-2.09278e-09
-2.18551e-09
-1.95949e-09
4.90753e-05
4.90729e-05
4.90763e-05
4.90721e-05
4.90529e-05
4.91015e-05
3.95847e-06
3.95821e-06
3.959e-06
3.9559e-06
3.94898e-06
3.9662e-06
1.58216e-07
1.58223e-07
1.58231e-07
1.58218e-07
1.58288e-07
1.58123e-07
0.467172
0.467148
0.467161
0.467127
0.466976
0.467301
0.0127477
0.0127053
0.0127401
0.0127421
0.0126047
0.0129314
9.08206e-06
9.08238e-06
9.08221e-06
9.08281e-06
9.08486e-06
9.08118e-06
4.8471e-16
3.09109e-16
2.68951e-16
2.68651e-16
2.68951e-16
2.6887e-16
-3.23329e-15
-1.33586e-15
-5.06868e-15
9.53017e-12
1.10647e-11
-1.50458e-14
-5.67752e-16
-5.83748e-16
-5.74854e-16
-6.68721e-16
-7.71101e-16
-4.66987e-16
-2.37098e-13
-2.17201e-13
-3.93743e-13
-3.97373e-13
-1.03164e-12
-8.22169e-13
5.11373e-11
5.15607e-11
5.20121e-11
5.73011e-11
5.84194e-11
4.89094e-11
-6.11117e-14
-5.82118e-14
-5.91317e-14
-4.0239e-14
-2.4612e-14
-8.14568e-14
6.84042e-08
6.8367e-08
6.89715e-08
6.89498e-08
6.85337e-08
6.9844e-08
0.00860362
0.00861489
0.00860901
0.00862468
0.00863266
0.00856567
0.0405183
0.0405516
0.0405284
0.0406005
0.0407198
0.0403839
0.0111989
0.0111893
0.0111947
0.0112263
0.011245
0.0111968
0.225586
0.225594
0.225525
0.225731
0.226187
0.224988
0.102913
0.103134
0.103
0.103061
0.103268
0.102632
0.351877
0.351791
0.351728
0.35214
0.352971
0.350994
0.351136
0.351049
0.350988
0.35139
0.352173
0.350263
0.0169164
0.0169267
0.0169155
0.0168961
0.0168933
0.0169048
0.463616
0.463603
0.463604
0.463587
0.463583
0.463752
0.143157
0.143331
0.143293
0.142782
0.142153
0.143974
0.00149359
0.00149266
0.00149376
0.00149319
0.0014878
0.00150144
4.63646e-51
4.64543e-51
4.64498e-51
4.64515e-51
4.64674e-51
4.63725e-51
7.98519e-53
8.00154e-53
8.00143e-53
8.00174e-53
8.00398e-53
7.98702e-53
3.19272e-56
3.19962e-56
3.19953e-56
3.19967e-56
3.20063e-56
3.19357e-56
1.04798e-46
1.05e-46
1.0499e-46
1.04994e-46
1.0503e-46
1.04823e-46
3.64764e-48
3.65493e-48
3.65492e-48
3.65505e-48
3.65599e-48
3.64867e-48
1.67689e-51
1.68041e-51
1.68037e-51
1.68043e-51
1.68088e-51
1.67734e-51
1.08076e-42
1.08278e-42
1.08266e-42
1.08268e-42
1.08302e-42
1.08092e-42
7.84594e-44
7.86086e-44
7.86078e-44
7.86089e-44
7.8626e-44
7.84753e-44
4.50985e-47
4.5189e-47
4.51879e-47
4.51887e-47
4.51994e-47
4.51076e-47
6.50446e-39
6.51615e-39
6.51534e-39
6.51526e-39
6.51706e-39
6.50469e-39
1.00381e-39
1.00562e-39
1.0056e-39
1.0056e-39
1.00578e-39
1.00395e-39
7.94729e-43
7.9624e-43
7.96222e-43
7.96228e-43
7.96393e-43
7.94864e-43
5.82546e-32
5.83372e-32
5.82293e-32
5.8514e-32
5.97821e-32
5.69166e-32
3.09216e-29
3.0965e-29
3.0907e-29
3.10607e-29
3.17296e-29
3.02137e-29
1.23519e-26
1.23695e-26
1.23466e-26
1.24099e-26
1.26757e-26
1.20735e-26
2.80644e-27
2.81165e-27
2.80753e-27
2.82276e-27
2.88412e-27
2.74712e-27
8.31647e-25
8.3302e-25
8.31635e-25
8.36116e-25
8.5406e-25
8.13584e-25
1.46154e-22
1.4639e-22
1.46135e-22
1.46936e-22
1.5006e-22
1.42991e-22
9.44995e-24
9.46936e-24
9.45541e-24
9.50813e-24
9.71209e-24
9.25276e-24
1.73298e-21
1.73588e-21
1.7328e-21
1.74239e-21
1.77924e-21
1.69553e-21
1.44282e-19
1.44517e-19
1.44246e-19
1.45065e-19
1.48095e-19
1.41189e-19
7.69308e-21
7.70873e-21
7.69534e-21
7.7383e-21
7.89987e-21
7.52748e-21
7.93713e-19
7.95023e-19
7.93446e-19
7.97976e-19
8.14285e-19
7.76563e-19
2.41018e-17
2.41411e-17
2.40911e-17
2.42337e-17
2.47267e-17
2.35921e-17
1.69949e-18
1.69828e-18
1.69875e-18
1.70306e-18
1.74027e-18
1.66011e-18
7.33078e-17
7.21937e-17
7.326e-17
7.22147e-17
7.47411e-17
7.16011e-17
1.74366e-17
1.7433e-17
1.74367e-17
1.74274e-17
1.74007e-17
1.7438e-17
5.50896e-16
5.51362e-16
5.44048e-16
5.51142e-16
4.10771e-16
5.45033e-16
1.53312e-14
1.5379e-14
1.53625e-14
1.54249e-14
1.61938e-17
1.47871e-14
1.65107e-17
1.58437e-17
1.65112e-17
1.57454e-17
1.61871e-17
1.64134e-17
1.39072e-13
1.38578e-13
1.38953e-13
1.37787e-13
2.30763e-13
1.45081e-13
5.43725e-18
5.46583e-18
5.39936e-18
5.542e-18
1.5897e-12
4.10162e-18
5.43651e-18
5.53013e-18
5.39864e-18
5.68252e-18
4.57184e-19
4.10085e-18
2.41762e-20
2.37479e-20
2.16564e-20
2.10217e-20
6.70532e-20
2.52346e-20
3.72378e-09
3.75313e-09
3.78532e-09
3.82083e-09
3.8217e-09
3.56789e-09
1.85274e-143
3.12291e-139
1.31872e-133
4.04315e-129
5.94133e-116
1.76364e-142
)
;

boundaryField
{
    seabed_topleft_surface
    {
        type            zeroGradient;
    }
    seabed_topright_surface
    {
        type            zeroGradient;
    }
    breakwater_top_surface
    {
        type            zeroGradient;
    }
    breakwater_left_surface
    {
        type            zeroGradient;
    }
    breakwater_right_surface
    {
        type            zeroGradient;
    }
    water_front_surface
    {
        type            zeroGradient;
    }
    water_back_surface
    {
        type            zeroGradient;
    }
    water_left_surface
    {
        type            zeroGradient;
    }
    water_right_surface
    {
        type            zeroGradient;
    }
    water_top_surface
    {
        type            inletOutlet;
        inletValue      uniform 0;
        value           nonuniform List<scalar> 
180
(
0
0
0
0
0
0
0
0
0
0
0
0
0
0
0
0
0
0
0
0
0
0
0
0
0
0
0
0
0
0
0
0
0
0
0
0
0
0
0
0
0
0
0
0
0
0
0
0
0
0
0
0
0
0
0
0
0
0
0
0
1.58216e-07
1.58223e-07
1.58231e-07
1.58218e-07
1.58288e-07
1.58123e-07
9.08206e-06
9.08238e-06
9.08221e-06
9.08281e-06
9.08486e-06
9.08118e-06
-5.67752e-16
-5.83748e-16
-5.74854e-16
-6.68721e-16
-7.71101e-16
-4.66987e-16
-6.11117e-14
-5.82118e-14
-5.91317e-14
-4.0239e-14
-2.4612e-14
-8.14568e-14
0.0405183
0.0405516
0.0405284
0.0406005
0.0407198
0.0403839
0.102913
0.103134
0.103
0.103061
0.103268
0.102632
0.0169164
0.0169267
0.0169155
0.0168961
0.0168933
0.0169048
0.00149359
0.00149266
0.00149376
0.00149319
0.0014878
0.00150144
0
0
0
0
0
0
0
0
0
0
0
0
0
0
0
0
0
0
0
0
0
0
0
0
0
0
0
0
0
0
0
0
0
0
0
0
0
0
0
0
0
0
0
0
0
0
0
0
0
0
0
0
0
0
0
0
0
0
0
0
0
0
0
0
0
0
0
0
0
0
0
0
)
;
    }
}


// ************************************************************************* //
