/*--------------------------------*- C++ -*----------------------------------*\
| =========                 |                                                 |
| \\      /  F ield         | OpenFOAM: The Open Source CFD Toolbox           |
|  \\    /   O peration     | Version:  v1612+                                |
|   \\  /    A nd           | Web:      www.OpenFOAM.com                      |
|    \\/     M anipulation  |                                                 |
\*---------------------------------------------------------------------------*/
FoamFile
{
    version     2.0;
    format      ascii;
    class       volVectorField;
    location    "2.75";
    object      U;
}
// * * * * * * * * * * * * * * * * * * * * * * * * * * * * * * * * * * * * * //

dimensions      [0 1 -1 0 0 0 0];

internalField   nonuniform List<vector> 
1116
(
(0.490671 -1.14916e-05 -0.47974)
(0.490665 4.40391e-07 -0.47976)
(0.490665 -5.59503e-06 -0.479749)
(0.490674 -2.02892e-06 -0.47975)
(0.490675 -1.13908e-05 -0.479764)
(0.49065 5.65574e-06 -0.479744)
(1.57749 -9.34604e-06 -0.355929)
(1.57749 1.70621e-06 -0.355958)
(1.57749 -9.35233e-06 -0.355946)
(1.5775 -5.57812e-06 -0.355948)
(1.5775 -5.95975e-06 -0.355965)
(1.57748 1.2492e-05 -0.35594)
(2.4529 -9.15678e-06 -0.153056)
(2.45291 -4.11747e-07 -0.153086)
(2.45292 -5.82796e-06 -0.153075)
(2.45292 -5.50088e-06 -0.153076)
(2.45292 -2.45937e-06 -0.153089)
(2.4529 1.1784e-05 -0.153064)
(3.09716 -9.58093e-06 -0.0734047)
(3.09718 -2.26279e-06 -0.0734298)
(3.09719 -4.32037e-06 -0.07342)
(3.09719 -5.78e-06 -0.0734206)
(3.09719 -2.59655e-06 -0.0734312)
(3.09717 9.33353e-06 -0.0734076)
(3.56832 -1.01443e-05 -0.0745649)
(3.56836 -3.93341e-06 -0.0745833)
(3.56836 -6.43965e-06 -0.0745761)
(3.56836 -6.897e-06 -0.0745771)
(3.56835 -3.95868e-06 -0.0745858)
(3.56833 8.20193e-06 -0.0745643)
(3.94244 -1.05968e-05 -0.0660595)
(3.94248 -5.26012e-06 -0.0660723)
(3.94248 -9.39407e-06 -0.066067)
(3.94248 -7.56195e-06 -0.0660685)
(3.94247 -4.95804e-06 -0.0660771)
(3.94244 7.8993e-06 -0.0660555)
(4.26052 -1.26513e-05 -0.00331851)
(4.26056 -7.59232e-06 -0.00332504)
(4.26056 -1.10099e-05 -0.00332145)
(4.26055 -8.20027e-06 -0.00332325)
(4.26054 -5.77278e-06 -0.0033325)
(4.2605 7.48177e-06 -0.00331258)
(4.51276 -1.14246e-05 0.130965)
(4.51278 -5.94502e-06 0.130952)
(4.51279 -8.77787e-06 0.130958)
(4.51278 -5.48467e-06 0.130955)
(4.51277 -5.75083e-06 0.130943)
(4.51272 5.47399e-06 0.130966)
(4.57167 -8.93475e-06 0.496861)
(4.57172 -2.14099e-06 0.496846)
(4.57171 -4.11525e-06 0.496852)
(4.5717 -2.91262e-06 0.49685)
(4.57171 -5.9894e-06 0.496839)
(4.57163 3.02659e-06 0.49686)
(3.90456 -9.22492e-06 1.00883)
(3.90466 1.64547e-06 1.00884)
(3.90464 3.10611e-06 1.00883)
(3.90464 1.62259e-06 1.00883)
(3.90466 -3.39621e-06 1.00882)
(3.90454 2.03005e-06 1.00883)
(1.99823 1.21981e-06 1.06191)
(1.99834 3.68677e-06 1.06194)
(1.99834 -2.21654e-06 1.06193)
(1.99833 7.36338e-06 1.06192)
(1.99837 -2.87887e-06 1.06192)
(1.99822 -1.64731e-06 1.06189)
(0.0321547 -2.70886e-05 0.0560224)
(0.0322426 -3.38795e-05 0.056011)
(0.0322377 -1.6836e-05 0.056012)
(0.0322363 -1.76836e-05 0.056005)
(0.0322943 1.2411e-05 0.0560002)
(0.0321487 2.69708e-05 0.055998)
(0.114758 2.09843e-05 -1.73856)
(0.114726 -3.99145e-06 -1.73859)
(0.114758 -5.66262e-06 -1.73857)
(0.11474 -2.09447e-05 -1.73858)
(0.114717 1.85935e-05 -1.73861)
(0.114799 -5.58034e-06 -1.73857)
(1.73496 4.89874e-05 -1.98776)
(1.73497 -5.52719e-06 -1.98779)
(1.73497 -6.0809e-06 -1.98777)
(1.73497 -1.98952e-05 -1.98779)
(1.73497 1.234e-05 -1.98782)
(1.73497 -3.84027e-05 -1.98777)
(2.90229 4.92082e-05 -1.50243)
(2.90233 -1.90634e-06 -1.50247)
(2.90231 -4.60156e-06 -1.50245)
(2.90231 -9.00621e-06 -1.50246)
(2.90235 3.47223e-07 -1.50249)
(2.90227 -4.58998e-05 -1.50244)
(3.65017 4.29005e-05 -1.10806)
(3.65026 3.97117e-06 -1.10811)
(3.65021 -8.33288e-07 -1.10809)
(3.65022 1.06647e-06 -1.10809)
(3.65027 -1.15223e-06 -1.10812)
(3.65016 -3.97917e-05 -1.10807)
(4.23551 3.58073e-05 -0.87658)
(4.23562 8.02483e-06 -0.876625)
(4.23556 7.01363e-06 -0.876607)
(4.23557 1.1759e-05 -0.87661)
(4.23563 4.91917e-06 -0.876635)
(4.23551 -3.01699e-05 -0.87659)
(4.79952 3.01445e-05 -0.729012)
(4.79968 1.10389e-05 -0.729053)
(4.7996 1.58974e-05 -0.729036)
(4.79961 1.92168e-05 -0.729041)
(4.79968 1.36791e-05 -0.729065)
(4.79956 -1.93109e-05 -0.729022)
(5.29363 2.91468e-05 -0.615006)
(5.29382 1.72015e-05 -0.615046)
(5.29374 2.57894e-05 -0.615032)
(5.29375 2.61715e-05 -0.615037)
(5.29382 2.19323e-05 -0.615059)
(5.29371 -1.05011e-05 -0.615021)
(5.90793 3.08252e-05 -0.47172)
(5.90821 2.44466e-05 -0.47177)
(5.90812 3.65393e-05 -0.471755)
(5.90814 3.22971e-05 -0.471759)
(5.90821 2.76057e-05 -0.47178)
(5.90809 -6.2227e-06 -0.471744)
(6.38592 3.14102e-05 0.142736)
(6.38622 2.47672e-05 0.142654)
(6.38613 3.26956e-05 0.142679)
(6.38615 2.80646e-05 0.142678)
(6.38619 1.85137e-05 0.142655)
(6.38609 -1.1806e-05 0.142698)
(6.0859 3.00061e-05 1.37084)
(6.08621 2.60763e-05 1.37075)
(6.08611 2.14824e-05 1.37077)
(6.08612 1.78179e-05 1.37078)
(6.08616 -3.0853e-06 1.37076)
(6.08603 -2.53841e-05 1.3708)
(4.39977 4.19184e-05 2.51077)
(4.40017 3.08883e-05 2.51079)
(4.40007 5.18277e-06 2.51077)
(4.40006 2.05192e-05 2.51077)
(4.40013 -8.08268e-06 2.51077)
(4.39989 -2.72496e-05 2.51077)
(1.30012 -5.73022e-05 1.76396)
(1.30045 -5.78526e-05 1.76399)
(1.30036 2.21947e-06 1.76398)
(1.30035 -1.11624e-05 1.76397)
(1.30043 3.82394e-05 1.764)
(1.30018 4.86271e-05 1.76393)
(0.246578 0.000104631 -2.82317)
(0.246571 -0.000162657 -2.82309)
(0.246644 7.52744e-05 -2.82314)
(0.246501 -9.26406e-05 -2.82323)
(0.246431 0.000254503 -2.82318)
(0.24686 -4.08574e-05 -2.82315)
(3.35543 6.68557e-05 -3.20557)
(3.35541 -0.0001766 -3.20547)
(3.35542 7.13721e-05 -3.2055)
(3.35535 -5.44252e-05 -3.20561)
(3.35533 0.000157944 -3.20557)
(3.35554 -9.5839e-05 -3.20548)
(6.25861 3.70035e-05 -2.64878)
(6.2585 -0.000132495 -2.64869)
(6.25845 7.22551e-05 -2.64873)
(6.25841 -1.57009e-05 -2.64877)
(6.25844 0.000143414 -2.64872)
(6.2586 -4.95968e-05 -2.64876)
(9.82521 2.66648e-05 -2.04292)
(9.82507 -8.23953e-05 -2.04283)
(9.82505 0.000110234 -2.04287)
(9.82504 3.02719e-05 -2.04287)
(9.82506 0.000178592 -2.04282)
(9.8252 3.88588e-06 -2.04293)
(13.6191 2.02025e-05 -1.88555)
(13.619 -4.79598e-05 -1.8855)
(13.619 0.000151295 -1.88555)
(13.6191 7.1727e-05 -1.88552)
(13.6191 0.000224346 -1.88545)
(13.6193 5.23518e-05 -1.88555)
(17.6322 4.78426e-06 -1.71995)
(17.632 -5.03226e-05 -1.71994)
(17.6321 0.000151651 -1.71998)
(17.6322 6.59561e-05 -1.71995)
(17.6322 0.000243503 -1.71988)
(17.6325 9.67896e-05 -1.71993)
(20.0865 2.35417e-05 -1.46317)
(20.0863 -1.283e-05 -1.46321)
(20.0865 0.000173355 -1.46323)
(20.0866 6.30132e-05 -1.46319)
(20.0864 0.00021094 -1.46314)
(20.087 8.85473e-05 -1.46314)
(24.5143 5.93485e-05 -0.180543)
(24.5143 3.24817e-05 -0.180558)
(24.5144 0.000182399 -0.180545)
(24.5145 1.08464e-05 -0.180496)
(24.5145 2.73499e-05 -0.180435)
(24.5149 -7.89684e-05 -0.180446)
(15.1183 7.05759e-05 1.75277)
(15.1188 4.42397e-05 1.75281)
(15.1187 9.99807e-05 1.75281)
(15.1186 1.75701e-05 1.75286)
(15.1185 -2.52763e-05 1.75292)
(15.1187 -0.000100814 1.75289)
(8.9517 2.39024e-05 3.28687)
(8.95212 -2.35485e-05 3.28689)
(8.95198 -9.10952e-07 3.2869)
(8.95197 -2.09096e-05 3.28693)
(8.95201 -2.35419e-05 3.28695)
(8.9519 -5.41628e-05 3.28693)
(4.39557 9.40372e-05 4.86938)
(4.39596 7.11913e-05 4.86961)
(4.39585 1.50987e-05 4.86951)
(4.39583 3.50811e-05 4.86953)
(4.3959 -3.54819e-05 4.8696)
(4.39569 -7.54224e-05 4.86948)
(1.26366 -4.75842e-05 3.67847)
(1.26403 -3.69655e-05 3.67863)
(1.26392 1.60451e-05 3.67858)
(1.26391 -7.45549e-06 3.67858)
(1.26392 4.08112e-05 3.67857)
(1.26378 4.10461e-05 3.67857)
(-0.132273 -4.52616e-05 -3.77424)
(-0.132264 -0.000100085 -3.7744)
(-0.132241 4.19975e-05 -3.77448)
(-0.132305 -1.20429e-05 -3.77452)
(-0.132328 0.000105244 -3.77444)
(-0.132186 4.82025e-05 -3.77426)
(-0.184839 -8.35915e-05 -5.02887)
(-0.185006 -4.79374e-05 -5.02911)
(-0.185054 -2.34735e-06 -5.02908)
(-0.185057 3.64842e-05 -5.02907)
(-0.185021 6.89356e-06 -5.02908)
(-0.184873 4.21845e-05 -5.02875)
(-2.17077 -4.45708e-05 -5.1959)
(-2.17105 2.71193e-05 -5.19617)
(-2.17111 2.91596e-05 -5.19616)
(-2.17111 4.54634e-05 -5.19615)
(-2.17105 2.1388e-05 -5.19618)
(-2.17088 6.90352e-05 -5.19587)
(-2.83971 -3.43853e-05 -5.75156)
(-2.83979 3.23852e-05 -5.75198)
(-2.83975 5.98263e-05 -5.75195)
(-2.83972 4.67592e-05 -5.75193)
(-2.83968 6.78489e-05 -5.75198)
(-2.8396 9.11905e-05 -5.7515)
(-3.85698 -0.000100108 -5.80595)
(-3.85709 -8.03723e-05 -5.80642)
(-3.85695 -3.95893e-05 -5.80636)
(-3.8569 -5.64355e-05 -5.80632)
(-3.85687 4.31101e-05 -5.80636)
(-3.85666 0.000123128 -5.80578)
(-4.18156 -0.000154786 -5.82045)
(-4.18182 -0.000180748 -5.82095)
(-4.18167 -0.000148726 -5.82091)
(-4.18167 -0.000159135 -5.82086)
(-4.18179 -3.28275e-05 -5.82094)
(-4.18133 7.97362e-05 -5.82023)
(-3.67171 -0.000139823 -4.19702)
(-3.67239 -0.000153968 -4.19745)
(-3.67208 -0.000122696 -4.19736)
(-3.67204 -9.54051e-05 -4.19725)
(-3.67233 -7.32673e-05 -4.19732)
(-3.67153 -3.56814e-05 -4.19683)
(-0.913032 2.5112e-05 1.29993)
(-0.914072 2.01769e-05 1.29965)
(-0.913489 -0.00010297 1.29991)
(-0.913098 -1.24204e-05 1.30021)
(-0.913183 -0.000213227 1.30037)
(-0.912872 -0.000307589 1.30002)
(9.85019 5.99712e-05 10.9944)
(9.85037 -3.23562e-05 10.9944)
(9.85046 -0.000123986 10.9945)
(9.85051 1.08692e-05 10.9946)
(9.85105 -0.000299401 10.9949)
(9.84993 -0.000517353 10.9945)
(10.2216 0.000131228 13.7774)
(10.222 0.000176186 13.7776)
(10.2219 0.000137056 13.7775)
(10.222 0.00011163 13.7776)
(10.2224 -3.0626e-05 13.7776)
(10.2219 -0.000215735 13.7776)
(4.85371 8.24754e-05 8.81894)
(4.85443 6.36616e-05 8.81959)
(4.85428 3.80929e-05 8.81934)
(4.85417 4.19349e-05 8.8194)
(4.85468 2.6237e-05 8.81966)
(4.85367 -3.7043e-05 8.819)
(2.10652 3.5322e-06 4.47014)
(2.10671 5.26376e-06 4.47026)
(2.10671 1.2428e-05 4.47025)
(2.1067 0.000137733 4.4702)
(2.10667 -9.3338e-05 4.47031)
(2.10666 -0.000227439 4.4701)
(-0.0027366 -1.09211e-06 -0.00276834)
(-0.00273632 -2.33368e-06 -0.00276831)
(-0.00273584 -2.46094e-06 -0.00276829)
(-0.00273531 -2.44243e-06 -0.00276827)
(-0.00273472 -2.00055e-06 -0.00276825)
(-0.00273398 -7.78296e-07 -0.00276813)
(-0.00828971 -8.5151e-07 -0.00284323)
(-0.0082883 -2.54391e-06 -0.00284176)
(-0.00828647 -3.61754e-06 -0.00284139)
(-0.00828447 -4.01804e-06 -0.00284141)
(-0.00828232 -3.51941e-06 -0.00284168)
(-0.0082796 -1.49076e-06 -0.00284216)
(-0.0140673 -8.20288e-07 -0.00297837)
(-0.0140626 -3.76183e-06 -0.00297347)
(-0.0140578 -6.84165e-06 -0.00297219)
(-0.0140529 -8.13316e-06 -0.00297223)
(-0.0140478 -7.51284e-06 -0.00297305)
(-0.0140414 -3.34696e-06 -0.00297457)
(-0.020217 -2.15953e-06 -0.00319146)
(-0.020205 -8.55448e-06 -0.00318286)
(-0.020194 -1.47373e-05 -0.00318102)
(-0.0201838 -1.7089e-05 -0.00318174)
(-0.0201734 -1.58277e-05 -0.00318421)
(-0.0201604 -7.15282e-06 -0.00318856)
(-0.026941 -7.01076e-06 -0.00350144)
(-0.0269141 -2.07066e-05 -0.0034934)
(-0.0268933 -3.00964e-05 -0.00349338)
(-0.0268758 -3.2564e-05 -0.00349659)
(-0.0268588 -2.90336e-05 -0.00350242)
(-0.0268366 -1.295e-05 -0.0035115)
(-0.0343945 -1.89289e-05 -0.00398489)
(-0.0343452 -4.40445e-05 -0.00399061)
(-0.0343137 -5.1681e-05 -0.00399885)
(-0.0342909 -5.03254e-05 -0.00400844)
(-0.0342701 -4.13943e-05 -0.00402014)
(-0.0342394 -1.77278e-05 -0.00403545)
(-0.0422635 -3.42538e-05 -0.00443685)
(-0.0421893 -6.76728e-05 -0.00448125)
(-0.0421547 -6.30785e-05 -0.00450782)
(-0.0421376 -5.18885e-05 -0.00452796)
(-0.0421249 -3.60739e-05 -0.00454528)
(-0.0420964 -1.39591e-05 -0.00456205)
(-0.0499247 -3.91554e-05 -0.00308139)
(-0.049833 -6.00596e-05 -0.00318495)
(-0.0498123 -2.87873e-05 -0.00323161)
(-0.0498205 -2.92853e-06 -0.00325607)
(-0.0498371 1.68109e-05 -0.00326607)
(-0.0498361 1.17033e-05 -0.00326427)
(-0.0575962 -1.83055e-05 0.00154972)
(-0.0575112 7.81148e-06 0.00141432)
(-0.0575238 7.5738e-05 0.00137479)
(-0.0575787 0.00011373 0.00137741)
(-0.057651 0.000125917 0.00140928)
(-0.0577183 6.16631e-05 0.00146894)
(-0.0608576 2.98485e-05 0.00961535)
(-0.0608271 0.000120451 0.00952488)
(-0.060879 0.000213179 0.00952929)
(-0.0609708 0.000255533 0.00957084)
(-0.0610893 0.000251904 0.00964339)
(-0.0612348 0.000118727 0.00975235)
(-0.0582575 8.78119e-05 0.0146431)
(-0.0582881 0.000207303 0.0146937)
(-0.0583382 0.00025372 0.0147449)
(-0.0584061 0.000263685 0.0148037)
(-0.0585129 0.000237043 0.0148864)
(-0.0586996 0.000107531 0.015014)
(-0.0324343 3.92541e-05 0.0239978)
(-0.0324577 5.85389e-05 0.024061)
(-0.0324677 2.81573e-05 0.0240695)
(-0.0324779 6.61583e-06 0.0240681)
(-0.0325134 -1.23709e-05 0.0240818)
(-0.0326078 -1.07492e-05 0.0241292)
(-0.00278093 -1.13629e-06 -0.00819288)
(-0.00278003 -2.37635e-06 -0.00819275)
(-0.00277928 -2.42796e-06 -0.00819251)
(-0.00277861 -2.21281e-06 -0.0081923)
(-0.00277804 -1.57024e-06 -0.00819212)
(-0.00277741 -4.86547e-07 -0.00819173)
(-0.00846569 -1.75479e-06 -0.00846621)
(-0.00846228 -3.82515e-06 -0.00846328)
(-0.00845952 -4.10566e-06 -0.00846227)
(-0.00845712 -3.82431e-06 -0.00846202)
(-0.00845501 -2.77551e-06 -0.00846239)
(-0.00845262 -9.88435e-07 -0.00846324)
(-0.0144929 -3.43075e-06 -0.00896395)
(-0.0144846 -7.4899e-06 -0.00895456)
(-0.0144782 -8.24778e-06 -0.00895169)
(-0.0144729 -7.80966e-06 -0.00895132)
(-0.014468 -6.00119e-06 -0.0089528)
(-0.0144625 -2.38216e-06 -0.00895599)
(-0.0210611 -6.65313e-06 -0.00970923)
(-0.0210426 -1.4387e-05 -0.0096935)
(-0.0210297 -1.56441e-05 -0.00968972)
(-0.0210195 -1.46845e-05 -0.0096907)
(-0.0210102 -1.14404e-05 -0.00969566)
(-0.0209991 -4.66617e-06 -0.00970504)
(-0.0283122 -1.23941e-05 -0.0106786)
(-0.0282741 -2.54862e-05 -0.0106665)
(-0.0282507 -2.57243e-05 -0.0106674)
(-0.0282339 -2.28986e-05 -0.0106739)
(-0.028219 -1.71717e-05 -0.0106863)
(-0.0282 -6.89802e-06 -0.0107061)
(-0.0364882 -1.96795e-05 -0.0118149)
(-0.036414 -3.70241e-05 -0.011836)
(-0.0363761 -3.18012e-05 -0.011855)
(-0.0363538 -2.4466e-05 -0.0118752)
(-0.0363365 -1.58521e-05 -0.0118995)
(-0.0363125 -5.82336e-06 -0.0119312)
(-0.0467217 -2.5299e-05 -0.013089)
(-0.0465903 -3.77813e-05 -0.0131885)
(-0.04654 -1.57138e-05 -0.0132423)
(-0.0465226 1.57219e-06 -0.0132812)
(-0.0465187 1.26484e-05 -0.0133135)
(-0.0465087 7.87224e-06 -0.013343)
(-0.0589958 -2.03967e-05 -0.0144865)
(-0.0588117 -4.21843e-06 -0.0146841)
(-0.0587696 5.2359e-05 -0.014765)
(-0.0587871 8.47481e-05 -0.014802)
(-0.0588332 9.41451e-05 -0.0148104)
(-0.0588842 4.55911e-05 -0.0147896)
(-0.0707065 2.0495e-05 -0.0157375)
(-0.0705237 9.58985e-05 -0.0159658)
(-0.0705222 0.000181569 -0.0160153)
(-0.0705975 0.000222839 -0.0159915)
(-0.0707177 0.000217373 -0.0159123)
(-0.070869 0.000100731 -0.0157684)
(-0.0704383 7.84257e-05 -0.0101419)
(-0.0703323 0.000187192 -0.010253)
(-0.0704022 0.00022561 -0.0101902)
(-0.0705512 0.000222579 -0.0100552)
(-0.0707632 0.000179214 -0.0098555)
(-0.0710444 7.33103e-05 -0.00957507)
(-0.0636372 6.35824e-05 0.00590966)
(-0.0637194 0.000109438 0.00612267)
(-0.0638771 7.15286e-05 0.00628549)
(-0.0640815 3.00093e-05 0.0064451)
(-0.0643478 -1.38968e-05 0.00663792)
(-0.0646954 -1.82945e-05 0.00690493)
(-0.0384564 -4.43207e-05 0.0365833)
(-0.0385614 -0.00014838 0.0367886)
(-0.0386579 -0.000237413 0.0368622)
(-0.0387608 -0.000269567 0.036904)
(-0.0388933 -0.000257829 0.0369634)
(-0.039065 -0.000122537 0.0370766)
(-0.00270195 -7.11043e-07 -0.0134991)
(-0.00270135 -1.55237e-06 -0.0134992)
(-0.00270091 -1.58226e-06 -0.0134987)
(-0.00270056 -1.29811e-06 -0.0134984)
(-0.00270038 -7.60899e-07 -0.0134981)
(-0.00270025 -1.4899e-07 -0.0134974)
(-0.0082755 -1.33476e-06 -0.0140623)
(-0.00827329 -2.74225e-06 -0.0140599)
(-0.00827172 -2.62319e-06 -0.0140587)
(-0.00827055 -2.09407e-06 -0.0140582)
(-0.00826992 -1.12451e-06 -0.0140584)
(-0.00826946 -2.48114e-07 -0.0140591)
(-0.0143451 -2.78429e-06 -0.0151147)
(-0.0143398 -5.41264e-06 -0.0151069)
(-0.0143364 -4.8894e-06 -0.0151041)
(-0.0143341 -3.76216e-06 -0.0151035)
(-0.0143329 -2.01948e-06 -0.015105)
(-0.0143322 -5.19621e-07 -0.0151083)
(-0.0212333 -5.15498e-06 -0.0166714)
(-0.0212213 -9.49823e-06 -0.0166596)
(-0.0212149 -7.78932e-06 -0.0166566)
(-0.0212112 -5.4687e-06 -0.0166577)
(-0.0212097 -2.46008e-06 -0.016663)
(-0.0212093 -4.37208e-07 -0.0166731)
(-0.0292369 -8.25723e-06 -0.0185791)
(-0.0292107 -1.35717e-05 -0.018576)
(-0.0292001 -8.43574e-06 -0.0185796)
(-0.029196 -3.75448e-06 -0.0185876)
(-0.0291964 7.63737e-07 -0.0186014)
(-0.029199 1.39522e-06 -0.0186228)
(-0.0382621 -9.42495e-06 -0.0203368)
(-0.0382099 -9.99099e-06 -0.0203768)
(-0.0381957 3.6078e-06 -0.020403)
(-0.0381963 1.20391e-05 -0.0204268)
(-0.0382061 1.66288e-05 -0.0204532)
(-0.038221 8.75269e-06 -0.0204846)
(-0.0470912 1.98045e-06 -0.020416)
(-0.0470016 2.23791e-05 -0.0205449)
(-0.0469898 4.9131e-05 -0.0206088)
(-0.0470087 6.05884e-05 -0.0206504)
(-0.0470461 5.90336e-05 -0.0206793)
(-0.0470975 2.7179e-05 -0.0206955)
(-0.0542112 3.80232e-05 -0.014949)
(-0.0540937 0.000102555 -0.0151628)
(-0.0541025 0.000138606 -0.0152406)
(-0.054164 0.000144462 -0.015264)
(-0.0542607 0.000123176 -0.0152448)
(-0.0543926 5.27901e-05 -0.015174)
(-0.0644283 8.71123e-05 0.00102973)
(-0.0643453 0.000192151 0.000844953)
(-0.0644175 0.000209421 0.000835825)
(-0.0645624 0.000190084 0.000901647)
(-0.0647625 0.000138518 0.0010377)
(-0.065021 5.2947e-05 0.0012604)
(-0.0789684 9.39368e-05 0.0360228)
(-0.0790453 0.000186195 0.0360455)
(-0.0792153 0.000170853 0.0361751)
(-0.0794379 0.000130135 0.0363513)
(-0.0797064 6.63356e-05 0.0365878)
(-0.0800185 1.48344e-05 0.0368906)
(-0.0883113 2.93303e-05 0.0841936)
(-0.0886171 4.07211e-06 0.0845285)
(-0.0888549 -8.45493e-05 0.0847174)
(-0.0890707 -0.000137338 0.0848503)
(-0.0892698 -0.000161002 0.0849922)
(-0.0894367 -8.24388e-05 0.0851303)
(-0.0761927 -9.81692e-05 0.173505)
(-0.0764172 -0.000253598 0.173809)
(-0.0765678 -0.000335071 0.173981)
(-0.0766745 -0.000343626 0.17405)
(-0.0767779 -0.000251833 0.174212)
(-0.0767885 -8.9217e-05 0.174155)
(-0.00246527 -3.99736e-07 -0.0184416)
(-0.00246468 -8.57777e-07 -0.018442)
(-0.00246444 -7.65911e-07 -0.0184416)
(-0.00246436 -4.53903e-07 -0.0184413)
(-0.00246447 -8.49263e-08 -0.0184411)
(-0.00246457 1.07362e-07 -0.0184403)
(-0.00760951 -9.5624e-07 -0.0194027)
(-0.00760743 -1.62822e-06 -0.0194014)
(-0.00760666 -1.00251e-06 -0.0194005)
(-0.00760655 -3.27346e-07 -0.0194002)
(-0.00760699 3.63914e-07 -0.0194005)
(-0.00760748 3.56037e-07 -0.0194007)
(-0.013424 -1.92549e-06 -0.0212677)
(-0.0134195 -2.78412e-06 -0.0212631)
(-0.0134184 -9.40071e-07 -0.0212613)
(-0.0134187 5.25858e-07 -0.0212612)
(-0.0134201 1.69392e-06 -0.0212627)
(-0.0134216 1.07943e-06 -0.0212651)
(-0.0204714 -2.45537e-06 -0.0241274)
(-0.020463 -2.28311e-06 -0.0241214)
(-0.0204618 1.71497e-06 -0.0241204)
(-0.0204637 4.2229e-06 -0.0241224)
(-0.0204676 5.74923e-06 -0.0241276)
(-0.0204716 3.05845e-06 -0.0241354)
(-0.0295193 -2.19982e-07 -0.0280122)
(-0.0295042 4.27668e-06 -0.0280163)
(-0.0295042 1.15221e-05 -0.0280227)
(-0.0295105 1.5269e-05 -0.028032)
(-0.02952 1.57881e-05 -0.0280451)
(-0.02953 7.53322e-06 -0.0280621)
(-0.0420302 8.34078e-06 -0.0331155)
(-0.0420038 2.45899e-05 -0.0331586)
(-0.0420067 3.63527e-05 -0.033187)
(-0.0420217 4.02834e-05 -0.0332125)
(-0.0420434 3.63736e-05 -0.0332382)
(-0.0420685 1.61807e-05 -0.0332623)
(-0.0613787 2.53677e-05 -0.0399196)
(-0.0613412 6.1692e-05 -0.0400365)
(-0.061353 7.72094e-05 -0.0400984)
(-0.0613861 7.87404e-05 -0.0401411)
(-0.0614346 6.57154e-05 -0.0401685)
(-0.0614976 2.78307e-05 -0.0401739)
(-0.0899013 4.72554e-05 -0.0464954)
(-0.0898844 0.000103117 -0.04667)
(-0.0899264 0.00011291 -0.0467371)
(-0.089996 0.000105556 -0.0467596)
(-0.0900945 8.06366e-05 -0.0467383)
(-0.0902261 3.20059e-05 -0.0466595)
(-0.127837 5.59475e-05 -0.0512684)
(-0.127929 0.000100538 -0.0513797)
(-0.128038 7.47548e-05 -0.051368)
(-0.128155 4.52478e-05 -0.0512984)
(-0.128304 8.19563e-06 -0.0511688)
(-0.128485 -6.98481e-06 -0.0509659)
(-0.154356 1.875e-05 -0.0472604)
(-0.154611 -1.64942e-05 -0.0471686)
(-0.154765 -0.000110353 -0.0470478)
(-0.15487 -0.000158215 -0.0469098)
(-0.154984 -0.000181526 -0.0467508)
(-0.155064 -9.88389e-05 -0.0465546)
(-0.190369 -0.000123578 0.0207216)
(-0.190715 -0.00029661 0.0210226)
(-0.190813 -0.00038292 0.0211615)
(-0.19075 -0.000369578 0.0212251)
(-0.190764 -0.000323041 0.0212851)
(-0.190526 -0.00016366 0.0212736)
(-0.087757 -0.000124339 0.0218511)
(-0.0879381 -0.00019123 0.0220145)
(-0.0879526 -0.000225395 0.022042)
(-0.0878615 -6.11067e-05 0.0220094)
(-0.0877729 -0.000138597 0.0217606)
(-0.0876617 -0.000239118 0.0220122)
(0.199229 -1.86927e-05 -3.68477)
(0.199221 2.21167e-05 -3.68509)
(0.199218 9.70594e-06 -3.68508)
(0.199216 2.39386e-06 -3.68504)
(0.19922 -1.19544e-05 -3.68504)
(0.199193 2.76177e-05 -3.6848)
(0.153554 2.34164e-05 -3.6827)
(0.153542 2.54414e-05 -3.68292)
(0.153535 -2.48507e-06 -3.68289)
(0.153542 -6.34469e-06 -3.68288)
(0.153545 -2.97926e-05 -3.68291)
(0.153518 -2.34337e-05 -3.68269)
(0.0473159 1.68403e-05 -3.7902)
(0.0473143 1.64401e-05 -3.79033)
(0.0473146 -1.0142e-06 -3.79031)
(0.0473156 -2.91994e-06 -3.7903)
(0.0473153 -1.70188e-05 -3.79032)
(0.0473132 -1.66968e-05 -3.79018)
(0.0524735 3.85656e-06 -3.68743)
(0.0524236 7.55041e-06 -3.68766)
(0.052422 -1.24489e-05 -3.6876)
(0.0524063 -3.1362e-06 -3.68758)
(0.0524103 -1.48859e-05 -3.68763)
(0.052468 -8.43245e-06 -3.68735)
(0.0452209 1.79953e-05 -3.95836)
(0.0452395 6.04219e-06 -3.95857)
(0.0452365 -1.35611e-05 -3.95853)
(0.0452342 -1.24316e-05 -3.95852)
(0.0452342 -2.59362e-05 -3.95854)
(0.0451974 -3.07129e-05 -3.95829)
(0.02738 1.48896e-05 -3.96456)
(0.0273753 1.70126e-05 -3.96469)
(0.0273755 -1.17349e-07 -3.96466)
(0.0273773 -1.67718e-06 -3.96466)
(0.0273788 -2.01053e-05 -3.96467)
(0.0273773 -1.88021e-05 -3.96452)
(-0.0837612 3.40613e-05 -2.75035)
(-0.0837468 2.30265e-05 -2.75062)
(-0.0837607 -1.58384e-05 -2.75057)
(-0.0837839 -1.16103e-05 -2.75058)
(-0.0837869 -4.45675e-05 -2.75066)
(-0.0838045 -4.08624e-05 -2.7503)
(0.244419 1.77205e-05 -3.89078)
(0.244457 1.86377e-05 -3.89097)
(0.244449 2.50913e-06 -3.89094)
(0.244449 7.91845e-06 -3.89093)
(0.244458 -2.15516e-05 -3.89096)
(0.244411 -3.27401e-05 -3.89071)
(0.104689 1.32198e-05 -3.79286)
(0.10469 1.47927e-05 -3.79298)
(0.104692 1.77392e-06 -3.79296)
(0.104695 -2.35946e-07 -3.79295)
(0.104698 -1.63923e-05 -3.79297)
(0.104692 -1.74221e-05 -3.79284)
(0.304773 2.8745e-05 -3.57422)
(0.304882 4.05239e-06 -3.57464)
(0.304838 -4.39569e-05 -3.57461)
(0.30481 -3.52998e-05 -3.57463)
(0.304798 -6.94225e-05 -3.57475)
(0.304658 -6.39986e-05 -3.57421)
(0.266706 3.3281e-05 -4.57016)
(0.266726 4.41855e-05 -4.57042)
(0.26673 1.32376e-05 -4.57039)
(0.266737 1.73028e-05 -4.5704)
(0.266747 -3.5558e-05 -4.57046)
(0.266727 -5.0487e-05 -4.57017)
(0.115218 1.80228e-05 -4.14549)
(0.115216 2.06564e-05 -4.14564)
(0.115218 4.85918e-06 -4.14563)
(0.115219 6.08047e-06 -4.14562)
(0.11522 -1.54198e-05 -4.14565)
(0.115224 -2.0947e-05 -4.14552)
(0.251247 1.50313e-05 -3.37871)
(0.251317 -9.75782e-06 -3.37915)
(0.251252 -5.07959e-05 -3.37914)
(0.251204 -4.01424e-05 -3.37916)
(0.251188 -6.8188e-05 -3.37928)
(0.25106 -5.77838e-05 -3.37874)
(0.0230434 3.57205e-05 -4.47257)
(0.0230546 4.68048e-05 -4.47284)
(0.023064 1.03017e-05 -4.47282)
(0.0230751 1.06081e-05 -4.47283)
(0.0230739 -3.75676e-05 -4.47291)
(0.0230808 -4.54102e-05 -4.47262)
(0.0166179 1.72608e-05 -3.92948)
(0.0166145 1.79194e-05 -3.92964)
(0.0166096 3.47455e-06 -3.92963)
(0.0166071 5.70426e-06 -3.92964)
(0.0166043 -1.69363e-05 -3.92967)
(0.0166067 -2.3836e-05 -3.92953)
(0.46094 2.39314e-05 -3.87664)
(0.461025 1.44762e-05 -3.87702)
(0.460941 -4.72873e-06 -3.87705)
(0.46091 2.10462e-07 -3.8771)
(0.46093 -5.17645e-05 -3.87722)
(0.460791 -7.0613e-05 -3.87681)
(-0.116537 3.1333e-05 -4.57159)
(-0.11656 3.86698e-05 -4.57184)
(-0.116545 1.03062e-05 -4.57181)
(-0.116529 1.30401e-05 -4.5718)
(-0.116549 -1.85343e-05 -4.57185)
(-0.116468 -2.12005e-05 -4.5716)
(-0.0726556 1.47315e-05 -4.08562)
(-0.0726588 7.14899e-06 -4.08577)
(-0.0726655 -1.00418e-05 -4.08578)
(-0.072672 -7.13851e-06 -4.08579)
(-0.0726774 -2.15896e-05 -4.08581)
(-0.0726843 -2.12578e-05 -4.08566)
(-0.102754 -4.35676e-05 -4.22502)
(-0.102733 -7.96548e-05 -4.22539)
(-0.102825 -3.89831e-05 -4.22545)
(-0.102883 -4.07136e-05 -4.22552)
(-0.10279 5.2538e-05 -4.22562)
(-0.103102 7.76117e-05 -4.22531)
(-0.33334 2.29566e-06 -3.9402)
(-0.333329 -1.47704e-05 -3.94033)
(-0.333337 -1.55162e-05 -3.94033)
(-0.333326 -1.96275e-05 -3.94032)
(-0.333356 3.22392e-05 -3.94033)
(-0.333332 5.83441e-05 -3.94014)
(-0.148931 1.17441e-05 -4.06418)
(-0.148932 6.18884e-06 -4.06432)
(-0.148939 -1.52027e-05 -4.0643)
(-0.148953 -1.85936e-05 -4.06431)
(-0.148964 -3.75653e-05 -4.06431)
(-0.148983 -2.98643e-05 -4.06417)
(-0.62436 -2.06513e-05 -6.2875)
(-0.624922 -4.78394e-05 -6.28789)
(-0.624927 -4.5934e-05 -6.28785)
(-0.625096 -2.00394e-05 -6.2878)
(-0.625311 -8.74031e-05 -6.28785)
(-0.62466 -6.86375e-05 -6.28764)
(0.00961183 1.04869e-05 -3.44914)
(0.00944844 -4.85427e-05 -3.44939)
(0.00933872 -4.90716e-05 -3.44939)
(0.009275 -8.41325e-05 -3.44936)
(0.00901168 -1.37558e-05 -3.44945)
(0.00969458 8.00535e-05 -3.4489)
(0.182795 9.71189e-06 -4.06737)
(0.182845 -1.43598e-05 -4.06746)
(0.182821 -6.62375e-05 -4.06743)
(0.182794 -7.07376e-05 -4.06745)
(0.182803 -8.91627e-05 -4.06754)
(0.182702 -5.83779e-05 -4.06729)
(1.83817 5.20494e-05 0.184961)
(1.83749 0.00016261 0.184173)
(1.83797 6.01561e-05 0.184672)
(1.83803 0.000222234 0.185164)
(1.83901 -0.000262105 0.186661)
(1.8364 -0.000559726 0.18261)
(-1.40515 0.00020439 -3.59216)
(-1.40555 7.01666e-05 -3.59274)
(-1.40555 -5.71593e-05 -3.59229)
(-1.40576 -3.01551e-06 -3.59199)
(-1.40595 5.10241e-05 -3.59146)
(-1.40553 0.000131476 -3.59274)
(0.0271318 3.33856e-05 -4.78094)
(0.0271153 -2.80086e-05 -4.78108)
(0.0270157 -0.0001359 -4.78094)
(0.026932 -0.00010911 -4.78091)
(0.0270148 -8.83332e-05 -4.78102)
(0.0268835 -5.02876e-05 -4.78073)
(10.1945 2.68912e-05 13.0691)
(10.1947 0.0001543 13.0694)
(10.1947 0.000214685 13.0694)
(10.1947 0.000494066 13.0695)
(10.1955 0.000145521 13.07)
(10.1946 -0.000396231 13.069)
(7.01905 0.000228746 7.21689)
(7.01935 0.000202332 7.21699)
(7.01933 -0.000258769 7.2169)
(7.0192 0.000188312 7.2172)
(7.0205 -0.000710014 7.21972)
(7.01762 -0.00121476 7.21422)
(1.82422 0.000524637 -0.124597)
(1.82423 0.000258261 -0.124456)
(1.82437 -0.000503054 -0.124123)
(1.82394 0.000195866 -0.1241)
(1.82514 -0.00120636 -0.121663)
(1.82262 -0.00167458 -0.127682)
(7.49818 0.000261268 12.9065)
(7.49849 0.000323361 12.9075)
(7.49896 0.00014049 12.9072)
(7.49851 0.000228855 12.9074)
(7.49663 0.000654825 12.908)
(7.50312 0.000355705 12.9066)
(10.5381 0.000181965 13.5384)
(10.5405 0.000404767 13.5393)
(10.5391 0.000188053 13.5388)
(10.5392 0.000870814 13.5394)
(10.5465 -0.00121052 13.5427)
(10.5295 -0.00227934 13.5354)
(9.20963 0.000449115 7.713)
(9.21191 0.000249727 7.71323)
(9.2106 -0.000543532 7.71348)
(9.21073 0.000549148 7.71426)
(9.21626 -0.00115175 7.71533)
(9.20427 -0.00219459 7.713)
(5.35882 0.000135677 7.09004)
(5.35978 0.00010359 7.09098)
(5.35957 -6.70807e-05 7.09064)
(5.3596 -0.000350466 7.0909)
(5.36041 0.000562288 7.0919)
(5.35874 0.000824455 7.0896)
(7.82419 0.000394284 8.67527)
(7.82612 0.000192778 8.67693)
(7.82538 -0.000312266 8.67698)
(7.82587 9.19913e-05 8.67491)
(7.83017 -0.000656559 8.67142)
(7.82016 -0.000957836 8.68206)
(11.1319 0.0002201 7.42865)
(11.1355 0.000162103 7.43166)
(11.1334 -0.000175487 7.43076)
(11.132 0.000232792 7.42866)
(11.1386 0.000341966 7.42872)
(11.1241 -0.000149655 7.4323)
(-0.029821 3.04466e-05 1.39841)
(-0.0294127 0.000344369 1.39902)
(-0.0293276 -0.000552743 1.39936)
(-0.029253 0.00111059 1.39898)
(-0.0259444 -0.0016234 1.40494)
(-0.0328664 -0.00358298 1.39358)
(-2.03349 0.000817729 -0.375641)
(-2.03464 0.00156396 -0.375902)
(-2.03493 -0.00019593 -0.375966)
(-2.0333 0.00743162 -0.375885)
(-2.0399 -0.00714176 -0.374452)
(-2.02853 -0.0154753 -0.377065)
(-0.901006 -0.000802536 0.802494)
(-0.90238 -3.98391e-05 0.80815)
(-0.902483 -0.000499655 0.800637)
(-0.90208 0.000500965 0.818064)
(-0.911011 4.31975e-05 0.858993)
(-0.893397 -0.00136775 0.758108)
(-0.432453 -0.000521285 2.41763)
(-0.432472 -0.000513366 2.41834)
(-0.431037 -0.000469414 2.41936)
(-0.431855 -0.00317252 2.41688)
(-0.433601 0.00332436 2.42135)
(-0.428042 0.00605981 2.41538)
(-2.64032 0.000860395 -1.58968)
(-2.64325 0.00172582 -1.59285)
(-2.63988 -0.00126685 -1.58871)
(-2.64247 0.00230455 -1.59603)
(-2.65214 -0.00111348 -1.6174)
(-2.63173 -0.00539058 -1.56737)
(0.161229 0.0010842 9.47532)
(0.168119 0.00206607 9.48662)
(0.163348 0.000452816 9.47995)
(0.170611 0.00521675 9.48614)
(0.196464 -0.00426191 9.52113)
(0.135136 -0.00980993 9.44749)
(1.03231 -0.000350604 -0.181221)
(1.03264 -0.000848239 -0.183452)
(1.03303 -0.00169029 -0.182665)
(1.03326 -0.000288236 -0.185072)
(1.0357 -0.000874169 -0.18657)
(1.03033 -0.0018015 -0.177635)
(2.64306 0.00032099 0.473873)
(2.64168 0.000457055 0.473177)
(2.64152 0.000281604 0.472434)
(2.64603 -0.000919902 0.471095)
(2.65485 0.000397943 0.477674)
(2.63286 0.00154253 0.46355)
(8.00912 0.00136932 11.9385)
(8.01288 0.00138887 11.9446)
(8.01083 0.000756816 11.942)
(8.01349 0.00284532 11.9436)
(8.02941 -0.00286898 11.9486)
(7.99641 -0.00493886 11.9391)
(-0.759697 0.00011032 -3.45778)
(-0.760424 0.000167739 -3.45963)
(-0.759895 9.86955e-05 -3.45882)
(-0.759458 -0.000302921 -3.45739)
(-0.763028 0.000642928 -3.45986)
(-0.755396 0.00105561 -3.45648)
(6.23943 0.000788114 3.36096)
(6.23995 0.000771376 3.36217)
(6.23944 0.000238515 3.36133)
(6.24039 0.00105144 3.36119)
(6.24583 -0.00130277 3.36601)
(6.23475 -0.0020729 3.35638)
(10.0628 0.00159029 7.44435)
(10.0667 0.00120272 7.454)
(10.0651 -9.70535e-05 7.44903)
(10.0655 0.00206919 7.44953)
(10.0748 -0.00260634 7.45495)
(10.0564 -0.0044128 7.44015)
(1.35298 0.000122953 1.93271)
(1.35196 0.000309011 1.93225)
(1.35202 -2.78266e-05 1.93243)
(1.35416 0.000970149 1.93302)
(1.3595 -0.000606182 1.93621)
(1.34776 -0.00176052 1.92983)
(6.85289 0.000683342 4.86295)
(6.85536 0.000599719 4.86605)
(6.85421 -0.000102815 4.8644)
(6.85452 0.0014817 4.86482)
(6.86103 -0.00154298 4.87009)
(6.84766 -0.00306442 4.85874)