/*--------------------------------*- C++ -*----------------------------------*\
| =========                 |                                                 |
| \\      /  F ield         | OpenFOAM: The Open Source CFD Toolbox           |
|  \\    /   O peration     | Version:  v1612+                                |
|   \\  /    A nd           | Web:      www.OpenFOAM.com                      |
|    \\/     M anipulation  |                                                 |
\*---------------------------------------------------------------------------*/
FoamFile
{
    version     2.0;
    format      ascii;
    class       volScalarField;
    location    "8.75";
    object      p;
}
// * * * * * * * * * * * * * * * * * * * * * * * * * * * * * * * * * * * * * //

dimensions      [1 -1 -2 0 0 0 0];

internalField   nonuniform List<scalar> 
320
(
14724.8
14724.8
14724.8
14724.8
5.00368
5.00284
5.0018
5.00157
5.00209
5.00138
5.00227
5.00323
5.00442
5.00527
5.00552
5.0045
4914.92
4914.9
4914.91
4914.9
4914.91
4914.9
4914.91
4914.92
4914.9
4914.92
4914.9
4914.92
14724.8
14724.8
14724.8
14724.8
14724.8
14724.8
14724.8
14724.8
14724.8
14724.8
14724.8
14724.8
24534.8
24534.8
24534.8
24534.8
24534.8
24534.8
24534.8
24534.8
24534.8
24534.8
24534.8
24534.8
24534.8
24534.8
24534.8
24534.8
5.0037
5.00361
5.00528
5.00207
5.00184
5.00264
5.00078
5.00164
5.00137
5.0012
5.00185
5.00226
5.00314
5.0034
5.00445
5.00527
5.00422
5.00461
5.00435
5.00334
4914.91
4914.91
4914.87
4914.89
4914.86
4914.87
4914.87
4914.88
4914.86
4914.85
4914.87
4914.89
4914.91
4914.88
4914.88
4914.88
4914.88
4914.9
4914.93
4914.9
14724.8
14724.8
14724.8
14724.8
14724.8
14724.8
14724.8
14724.8
14724.8
14724.8
14724.8
14724.8
14724.8
14724.8
14724.8
14724.8
14724.8
14724.8
14724.8
14724.8
24534.8
24534.8
24534.8
24534.8
24534.8
24534.8
24534.8
24534.8
24534.8
24534.8
24534.8
24534.8
24534.8
24534.8
24534.8
24534.8
24534.8
24534.8
24534.8
24534.8
34344.8
34344.8
34344.8
34344.8
34344.8
34344.8
34344.8
34344.8
34344.8
34344.8
34344.8
34344.8
34344.8
34344.8
34344.8
34344.8
34344.8
34344.8
34344.8
34344.8
34344.8
34344.8
34344.8
34344.8
34344.8
34344.8
34344.8
34344.8
34344.8
34344.8
34344.8
34344.8
34344.8
34344.8
34344.8
34344.8
5.00055
5.00931
5.00203
5.00368
5.00582
4.99871
5.00174
5.00276
5.00163
5.00057
5.00092
5.00053
5.00089
5.00089
5.00061
5.00245
5.00282
5.0028
5.00342
5.0038
5.00421
5.00388
5.00467
5.00458
5.00385
5.00301
5.00582
5.0047
4914.84
4914.93
4914.89
4914.86
4914.95
4914.86
4914.87
4914.87
4914.85
4914.9
4914.91
4914.9
4914.89
4914.88
4914.84
4914.9
4914.91
4914.92
4914.92
4914.91
4914.91
4914.9
4914.91
4914.9
4914.86
4914.91
4914.92
4914.92
14724.8
14724.8
14724.8
14724.8
14724.8
14724.8
14724.8
14724.8
14724.8
14724.8
14724.8
14724.8
14724.8
14724.8
14724.8
14724.8
14724.8
14724.8
14724.8
14724.8
14724.8
14724.8
14724.8
14724.8
14724.8
14724.8
14724.8
14724.8
24534.8
24534.8
24534.8
24534.8
24534.8
24534.8
24534.8
24534.8
24534.8
24534.8
24534.8
24534.8
24534.8
24534.8
24534.8
24534.8
24534.8
24534.8
24534.8
24534.8
24534.8
24534.8
24534.8
24534.8
24534.8
24534.8
24534.8
24534.8
34344.8
34344.8
34344.8
34344.8
34344.8
34344.8
34344.8
34344.8
34344.8
34344.8
34344.8
34344.8
34344.8
34344.8
34344.8
34344.8
34344.8
34344.8
34344.8
34344.8
34344.8
34344.8
34344.8
34344.8
34344.8
34344.8
34344.8
34344.8
5.00379
5.00244
5.00422
5.00256
4914.9
4914.91
4914.91
4914.91
)
;

boundaryField
{
    top_fluid_surface
    {
        type            calculated;
        value           nonuniform List<scalar> 
64
(
-1.93599e-08
-5.94565e-09
-3.3266e-09
-4.71394e-09
-1.3103e-08
-3.42944e-09
-1.21546e-08
-1.62006e-08
-1.09567e-08
-3.42423e-09
0
-5.88546e-09
-1.53633e-08
-5.39979e-09
0
-1.36727e-09
0
0
0
0
0
0
0
0
-9.80361e-09
0
0
0
0
0
-1.20983e-08
0
-1.92784e-08
-9.73771e-10
-2.06475e-08
0
0
-1.34286e-09
-1.57275e-08
0
0
-1.77397e-08
-1.81328e-08
-1.12528e-09
-1.34866e-08
0
0
-5.92481e-09
-1.00513e-08
-2.47628e-09
0
-1.38262e-08
-1.46523e-08
-2.64597e-09
-1.60951e-08
-2.87793e-09
0
-6.63144e-09
-4.6304e-09
-7.45901e-08
-8.25214e-09
-1.41943e-08
-6.38345e-10
-3.57443e-08
)
;
    }
    bottom_fluid_surface
    {
        type            calculated;
        value           nonuniform List<scalar> 
64
(
39249.8
39249.8
39249.8
39249.8
39249.8
39249.8
39249.8
39249.8
39249.8
39249.8
39249.8
39249.8
39249.8
39249.8
39249.8
39249.8
39249.8
39249.8
39249.8
39249.8
39249.8
39249.8
39249.8
39249.8
39249.8
39249.8
39249.8
39249.8
39249.8
39249.8
39249.8
39249.8
39249.8
39249.8
39249.8
39249.8
39249.8
39249.8
39249.8
39249.8
39249.8
39249.8
39249.8
39249.8
39249.8
39249.8
39249.8
39249.8
39249.8
39249.8
39249.8
39249.8
39249.8
39249.8
39249.8
39249.8
39249.8
39249.8
39249.8
39249.8
39249.8
39249.8
39249.8
39249.8
)
;
    }
    lateral_surface_1
    {
        type            calculated;
        value           nonuniform List<scalar> 
40
(
5.00055
5.00931
5.00203
5.00368
5.00582
4.99871
5.00174
5.0047
4914.84
4914.93
4914.89
4914.86
4914.95
4914.86
4914.87
4914.92
14724.8
14724.8
14724.8
14724.8
14724.8
14724.8
14724.8
14724.8
24534.8
24534.8
24534.8
24534.8
24534.8
24534.8
24534.8
24534.8
34344.8
34344.8
34344.8
34344.8
34344.8
34344.8
34344.8
34344.8
)
;
    }
    lateral_surface_2
    {
        type            calculated;
        value           nonuniform List<scalar> 
40
(
5.00089
5.00061
5.00245
5.00282
5.0028
5.00342
5.0038
5.00421
4914.88
4914.84
4914.9
4914.91
4914.92
4914.92
4914.91
4914.91
14724.8
14724.8
14724.8
14724.8
14724.8
14724.8
14724.8
14724.8
24534.8
24534.8
24534.8
24534.8
24534.8
24534.8
24534.8
24534.8
34344.8
34344.8
34344.8
34344.8
34344.8
34344.8
34344.8
34344.8
)
;
    }
    lateral_surface_3
    {
        type            calculated;
        value           nonuniform List<scalar> 
40
(
5.00174
5.00276
5.00163
5.00057
5.00092
5.00053
5.00089
5.00089
4914.87
4914.87
4914.85
4914.9
4914.91
4914.9
4914.89
4914.88
14724.8
14724.8
14724.8
14724.8
14724.8
14724.8
14724.8
14724.8
24534.8
24534.8
24534.8
24534.8
24534.8
24534.8
24534.8
24534.8
34344.8
34344.8
34344.8
34344.8
34344.8
34344.8
34344.8
34344.8
)
;
    }
    lateral_surface_4
    {
        type            calculated;
        value           nonuniform List<scalar> 
40
(
5.00421
5.00388
5.00467
5.00458
5.00385
5.00301
5.00582
5.0047
4914.91
4914.9
4914.91
4914.9
4914.86
4914.91
4914.92
4914.92
14724.8
14724.8
14724.8
14724.8
14724.8
14724.8
14724.8
14724.8
24534.8
24534.8
24534.8
24534.8
24534.8
24534.8
24534.8
24534.8
34344.8
34344.8
34344.8
34344.8
34344.8
34344.8
34344.8
34344.8
)
;
    }
}


// ************************************************************************* //
