/*--------------------------------*- C++ -*----------------------------------*\
| =========                 |                                                 |
| \\      /  F ield         | OpenFOAM: The Open Source CFD Toolbox           |
|  \\    /   O peration     | Version:  v1612+                                |
|   \\  /    A nd           | Web:      www.OpenFOAM.com                      |
|    \\/     M anipulation  |                                                 |
\*---------------------------------------------------------------------------*/
FoamFile
{
    version     2.0;
    format      ascii;
    class       volScalarField;
    location    "6.95";
    object      alpha.water;
}
// * * * * * * * * * * * * * * * * * * * * * * * * * * * * * * * * * * * * * //

dimensions      [0 0 0 0 0 0 0];

internalField   nonuniform List<scalar> 
320
(
1
1
1
1
1.68937e-05
1.62357e-05
1.686e-05
1.67963e-05
1.63479e-05
1.70759e-05
1.9019e-05
1.90987e-05
1.73107e-05
1.64441e-05
1.47786e-05
1.62172e-05
0.99998
0.999988
0.999987
0.999985
0.999983
0.999981
0.999981
0.99998
0.99998
0.999983
0.999991
0.99998
1
1
1
1
1
1
1
1
1
1
1
1
1
1
1
1
1
1
1
1
1
1
1
1
1
1
1
1
1.72142e-05
1.60842e-05
1.52148e-05
1.71549e-05
1.39119e-05
1.40392e-05
1.4582e-05
1.3436e-05
1.67756e-05
1.60324e-05
1.34061e-05
1.3278e-05
1.68492e-05
1.59192e-05
1.44516e-05
1.43449e-05
1.48422e-05
1.61581e-05
1.74163e-05
1.54184e-05
0.999983
0.999979
0.999988
0.999981
0.999991
0.999992
0.999993
0.999994
0.999982
0.999986
0.999992
0.999993
0.999982
0.999991
0.999991
0.999991
0.999992
0.999983
0.999981
0.99999
1
1
1
1
1
1
1
1
1
1
1
1
1
1
1
1
1
1
1
1
1
1
1
1
1
1
1
1
1
1
1
1
1
1
1
1
1
1
1
1
1
1
1
1
1
1
1
1
1
1
1
1
1
1
1
1
1
1
1
1
1
1
1
1
1
1
1
1
1
1
1
1
1
1
1
1
1.68438e-05
1.77212e-05
1.68479e-05
1.41027e-05
1.56028e-05
1.54312e-05
1.79486e-05
1.7371e-05
1.54443e-05
1.75516e-05
1.73042e-05
1.61576e-05
1.67382e-05
1.62454e-05
1.5751e-05
1.73782e-05
1.69975e-05
1.80688e-05
1.70785e-05
1.79387e-05
1.72912e-05
1.6748e-05
1.73742e-05
1.64454e-05
1.74279e-05
1.8475e-05
1.7679e-05
2.02996e-05
0.999982
0.999981
0.999979
0.999988
0.999984
0.999983
0.999976
0.999982
0.999985
0.999978
0.999981
0.999982
0.999976
0.999984
0.99998
0.999976
0.999977
0.999983
0.999983
0.999979
0.999978
0.999979
0.999979
0.999981
0.999984
0.99998
0.999981
0.999977
1
1
1
1
1
1
1
1
1
1
1
1
1
1
1
1
1
1
1
1
1
1
1
1
1
1
1
1
1
1
1
1
1
1
1
1
1
1
1
1
1
1
1
1
1
1
1
1
1
1
1
1
1
1
1
1
1
1
1
1
1
1
1
1
1
1
1
1
1
1
1
1
1
1
1
1
1
1
1
1
1
1
1
1
1.82739e-05
1.73617e-05
1.65582e-05
1.66136e-05
0.999981
0.999983
0.999985
0.999985
)
;

boundaryField
{
    top_fluid_surface
    {
        type            inletOutlet;
        inletValue      uniform 0;
        value           nonuniform List<scalar> 
64
(
0
0
0
0
0
0
0
0
0
0
1.47786e-05
0
0
0
1.52148e-05
0
1.39119e-05
1.40392e-05
1.4582e-05
1.3436e-05
0
1.60324e-05
1.34061e-05
1.3278e-05
0
1.59192e-05
1.44516e-05
1.43449e-05
1.48422e-05
1.61581e-05
0
1.54184e-05
0
0
0
1.41027e-05
1.56028e-05
1.54312e-05
0
0
1.54443e-05
0
0
0
0
1.62454e-05
1.5751e-05
0
0
0
0
0
0
0
1.73742e-05
0
0
0
0
0
0
0
0
0
)
;
    }
    bottom_fluid_surface
    {
        type            zeroGradient;
    }
    lateral_surface_1
    {
        type            zeroGradient;
    }
    lateral_surface_2
    {
        type            zeroGradient;
    }
    lateral_surface_3
    {
        type            zeroGradient;
    }
    lateral_surface_4
    {
        type            zeroGradient;
    }
}


// ************************************************************************* //
