/*--------------------------------*- C++ -*----------------------------------*\
| =========                 |                                                 |
| \\      /  F ield         | OpenFOAM: The Open Source CFD Toolbox           |
|  \\    /   O peration     | Version:  v1612+                                |
|   \\  /    A nd           | Web:      www.OpenFOAM.com                      |
|    \\/     M anipulation  |                                                 |
\*---------------------------------------------------------------------------*/
FoamFile
{
    version     2.0;
    format      ascii;
    class       surfaceScalarField;
    location    "2.85";
    object      phi;
}
// * * * * * * * * * * * * * * * * * * * * * * * * * * * * * * * * * * * * * //

dimensions      [0 3 -1 0 0 0 0];

internalField   nonuniform List<scalar> 
2916
(
-5.86316e-06
0.490586
-0.49058
-5.94631e-07
0.490584
-0.490589
-2.90839e-06
0.490585
-0.490582
-6.81748e-06
0.490589
-0.490585
-1.429e-06
0.490589
-0.490595
0.490579
-0.490581
-3.417e-06
0.969826
-0.479237
-1.61954e-06
0.969831
-0.479249
-6.55433e-06
0.969831
-0.479242
-6.10882e-06
0.969835
-0.479246
3.87916e-06
0.969836
-0.479257
0.969824
-0.479241
-4.96264e-06
1.29986
-0.330027
-1.40372e-06
1.29987
-0.330042
-4.42371e-06
1.29987
-0.330035
-4.0687e-06
1.29987
-0.330036
5.62657e-06
1.29987
-0.330046
1.29986
-0.330031
-6.73645e-06
1.541
-0.241136
-1.82277e-06
1.54102
-0.241152
-3.56661e-06
1.54102
-0.241146
-3.84017e-06
1.54102
-0.241146
4.77293e-06
1.54102
-0.241154
1.541
-0.241139
-8.27466e-06
1.74812
-0.207114
-3.67624e-06
1.74814
-0.20713
-4.96415e-06
1.74814
-0.207124
-4.96132e-06
1.74814
-0.207124
3.64337e-06
1.74814
-0.207131
1.74812
-0.207117
-9.17525e-06
1.92973
-0.181602
-5.60536e-06
1.92976
-0.181617
-6.64344e-06
1.92976
-0.181612
-5.76442e-06
1.92975
-0.181612
3.28886e-06
1.92975
-0.181619
1.92973
-0.181603
-1.09428e-05
2.06153
-0.131789
-7.28321e-06
2.06155
-0.131801
-8.10921e-06
2.06155
-0.131796
-6.75522e-06
2.06155
-0.131797
2.68776e-06
2.06155
-0.131804
2.06152
-0.131789
-9.31374e-06
2.10905
-0.0475015
-6.74933e-06
2.10906
-0.0475145
-6.85778e-06
2.10906
-0.0475106
-5.22621e-06
2.10906
-0.047512
2.10253e-07
2.10906
-0.047519
2.10903
-0.0475053
-6.71398e-06
1.86384
0.245215
-4.38177e-06
1.86387
0.245188
-5.69599e-06
1.86387
0.245196
-5.54601e-06
1.86386
0.245194
-3.27476e-06
1.86387
0.245183
1.86382
0.245202
-6.08409e-06
1.15174
0.712104
7.77794e-07
1.15179
0.712079
-8.34215e-07
1.15179
0.712084
-3.22934e-06
1.15178
0.712085
-3.025e-06
1.1518
0.712075
1.15173
0.71209
4.26805e-06
0.308882
0.842853
2.58871e-06
0.308925
0.842865
3.71363e-06
0.308926
0.842858
2.56998e-06
0.308925
0.842859
-5.44131e-06
0.308947
0.84286
0.308877
0.842847
-3.07897e-05
0.308913
-2.28811e-05
0.308917
-1.29387e-05
0.308916
-1.76895e-06
0.308914
2.57443e-05
0.308919
0.308903
7.21236e-06
0.544016
-1.0346
-3.49338e-06
0.544012
-1.03459
-1.28831e-05
0.544021
-1.03459
3.20114e-06
0.544014
-1.03462
1.52464e-05
0.544009
-1.03462
0.544036
-1.0346
2.29245e-05
1.13651
-1.07175
-7.73387e-06
1.13652
-1.07173
-1.00204e-05
1.13652
-1.07173
4.79078e-06
1.13652
-1.07176
-1.08951e-05
1.13652
-1.07176
1.13651
-1.07173
2.51602e-05
1.60699
-0.800536
-3.66024e-06
1.60703
-0.800519
-1.36604e-06
1.60701
-0.800529
3.48333e-06
1.60701
-0.800535
-2.61669e-05
1.60703
-0.800525
1.60699
-0.800532
2.59811e-05
1.94052
-0.574695
8.99253e-07
1.94058
-0.574678
4.62416e-06
1.94055
-0.57469
6.45607e-06
1.94055
-0.574689
-2.57707e-05
1.94058
-0.574673
1.94052
-0.574699
2.28046e-05
2.25009
-0.516706
3.35087e-06
2.25016
-0.516697
1.14519e-05
2.25013
-0.516713
1.40487e-05
2.25013
-0.516707
-1.63716e-05
2.25017
-0.516685
2.2501
-0.516713
1.71831e-05
2.53307
-0.464594
6.54117e-06
2.53316
-0.464599
1.80432e-05
2.53312
-0.464612
2.08668e-05
2.53312
-0.464606
-1.64351e-06
2.53316
-0.464588
2.53309
-0.464595
2.14799e-05
2.78145
-0.380192
1.46739e-05
2.78157
-0.380204
2.58233e-05
2.78152
-0.380213
2.67563e-05
2.78153
-0.380207
7.14256e-06
2.78157
-0.380194
2.7815
-0.380191
2.70483e-05
3.04218
-0.308262
2.61609e-05
3.04233
-0.308279
3.52993e-05
3.04228
-0.30828
3.2014e-05
3.04229
-0.30827
1.09934e-05
3.04233
-0.308254
3.04226
-0.308252
3.16214e-05
2.93147
0.355892
2.74212e-05
2.93164
0.35589
3.14298e-05
2.93159
0.355889
2.63132e-05
2.93159
0.355899
3.47025e-06
2.93162
0.355911
2.93155
0.35591
2.20985e-05
2.08558
1.55798
2.42175e-05
2.08576
1.55795
1.91424e-05
2.08571
1.55797
7.8517e-06
2.08571
1.55798
-1.28739e-05
2.08574
1.55797
2.08564
1.55799
3.79931e-05
0.98736
1.94103
1.54791e-05
0.987537
1.94111
1.1489e-05
0.987493
1.94108
4.68705e-06
0.987489
1.94108
-2.68609e-05
0.987526
1.94111
0.987406
1.94106
-7.68999e-05
1.29635
-2.48878e-05
1.2964
-4.26834e-06
1.29639
1.14532e-05
1.29639
6.0498e-05
1.2964
1.29637
-6.55682e-05
0.928378
-1.96292
-4.32672e-05
0.928366
-1.96298
-4.51464e-06
0.928378
-1.96301
7.41186e-05
0.92834
-1.96303
0.000137683
0.928322
-1.963
0.928451
-1.96291
-9.54637e-05
2.10952
-2.2528
-5.57495e-05
2.10947
-2.25286
6.18684e-07
2.10946
-2.25286
4.34139e-05
2.10942
-2.25288
7.14906e-05
2.10942
-2.25287
2.10953
-2.25274
-8.33621e-05
3.4486
-2.13953
-3.17685e-05
3.44851
-2.13961
1.76573e-05
3.4485
-2.13962
4.99216e-05
3.44848
-2.13963
8.35824e-05
3.44848
-2.13963
3.4486
-2.13951
-8.11701e-05
5.18266
-2.30868
-5.60766e-06
5.18256
-2.3088
4.35242e-05
5.18257
-2.30881
7.72695e-05
5.18256
-2.30881
0.000133067
5.18256
-2.30881
5.18269
-2.30866
-8.50587e-05
7.1333
-2.46726
1.01631e-05
7.13318
-2.46741
6.81373e-05
7.13322
-2.46742
0.000107235
7.13323
-2.46741
0.00017457
7.13321
-2.4674
7.13339
-2.46723
-8.68752e-05
9.21327
-2.54448
3.96095e-06
9.21313
-2.54464
7.01521e-05
9.2132
-2.54466
0.000110284
9.21322
-2.54464
0.000180824
9.21317
-2.54463
9.2134
-2.54442
-1.94893e-05
10.7275
-1.89441
2.24035e-05
10.7274
-1.89452
8.16105e-05
10.7275
-1.89454
0.00010575
10.7275
-1.89452
0.000100094
10.7275
-1.89449
10.7277
-1.89436
7.81796e-05
9.60364
0.815535
4.97663e-05
9.60366
0.815496
6.15986e-05
9.60364
0.815543
3.11116e-05
9.60363
0.815642
-4.96113e-05
9.60359
0.815714
9.60369
0.815671
3.91308e-05
5.59143
4.36806
5.25186e-05
5.59146
4.36807
6.27246e-05
5.5914
4.36812
3.12605e-05
5.59141
4.36815
-5.87257e-05
5.5914
4.3682
5.59143
4.36812
-0.000139807
2.24599
4.90356
-1.66203e-05
2.24623
4.90307
2.25576e-05
2.24615
4.90318
-3.89053e-06
2.24614
4.90328
-1.24971e-05
2.24619
4.90319
2.24606
4.90335
0.000112395
0.731663
3.45525
4.6015e-05
0.731838
3.45557
2.97406e-05
0.731783
3.45546
2.75006e-06
0.731777
3.45547
-9.40963e-05
0.731805
3.45559
0.731707
3.45531
-7.71663e-05
2.02809
-1.1408e-05
2.02817
-1.48607e-06
2.02816
1.93979e-05
2.02814
8.59078e-05
2.02813
2.02816
-8.21929e-05
-0.199253
-1.76358
-2.2831e-05
-0.199296
-1.76374
1.58768e-05
-0.199302
-1.76374
3.51613e-05
-0.199312
-1.76374
7.14257e-05
-0.199304
-1.76373
-0.199253
-1.76359
-6.28101e-05
-0.574406
-1.87758
-1.34775e-05
-0.574485
-1.87773
2.05495e-05
-0.574503
-1.8777
1.75292e-05
-0.574503
-1.87769
2.83357e-05
-0.574481
-1.87771
-0.574437
-1.87753
4.96929e-06
-1.04343
-1.67051
4.42676e-05
-1.04345
-1.67068
3.91175e-05
-1.04345
-1.67067
2.14347e-05
-1.04345
-1.67067
3.53936e-05
-1.04342
-1.6707
-1.04342
-1.67049
-1.44891e-05
-1.24425
-2.10783
3.09292e-05
-1.24423
-2.10807
2.15915e-05
-1.2442
-2.10805
1.86676e-05
-1.24419
-2.10806
7.38599e-05
-1.24417
-2.10811
-1.24418
-2.10782
-9.90218e-05
-1.45253
-2.25889
-5.86684e-05
-1.45254
-2.25914
-6.33709e-05
-1.45249
-2.25913
-3.81967e-05
-1.45249
-2.25913
8.61255e-05
-1.45251
-2.25918
-1.45244
-2.25888
-0.000143471
-1.39428
-2.60258
-9.00581e-05
-1.39441
-2.60283
-9.15069e-05
-1.39432
-2.60283
-8.18585e-05
-1.3943
-2.60284
2.95625e-05
-1.39435
-2.60289
-1.39421
-2.60262
-0.000145594
-0.572297
-2.71625
-5.64602e-05
-0.572585
-2.71644
-1.32414e-05
-0.572419
-2.71648
-1.37198e-05
-0.572299
-2.71651
1.13367e-05
-0.572307
-2.71655
-0.57219
-2.71636
1.61344e-05
2.02763
-1.78441
-2.17449e-06
2.02747
-1.78455
-1.27351e-05
2.02763
-1.7845
-4.29943e-05
2.02778
-1.78441
-0.000146388
2.02791
-1.78439
2.02763
-1.78429
5.29018e-05
3.86299
2.53264
-8.3071e-05
3.86322
2.53246
-9.61382e-05
3.86316
2.53261
-0.000107175
3.86315
2.53279
-0.000535202
3.86337
2.53316
3.86289
2.53231
0.000189659
2.58145
6.18491
9.95653e-05
2.58179
6.18459
8.16315e-05
2.58168
6.18467
5.0767e-05
2.58165
6.18481
-0.000223834
2.58205
6.18478
2.58126
6.18476
2.29097e-05
0.598697
5.43798
6.74908e-05
0.598918
5.4384
5.66224e-05
0.598883
5.43827
3.49974e-05
0.598826
5.43832
-7.28288e-05
0.598993
5.43876
0.598677
5.43782
-2.15947e-05
2.62681
1.14685e-05
2.62706
7.07528e-05
2.62698
2.02851e-05
2.62702
-0.000122007
2.62727
2.62672
-1.72611e-06
0.00254691
-0.00254519
-2.40448e-06
0.00254662
-0.00254519
-2.69706e-06
0.00254609
-0.00254518
-2.4516e-06
0.0025455
-0.00254516
-1.57549e-06
0.00254485
-0.00254515
0.002544
-0.00254501
-1.66852e-06
0.0051598
-0.00261073
-3.19168e-06
0.00515849
-0.0026093
-4.21154e-06
0.00515694
-0.00260891
-4.22359e-06
0.00515529
-0.00260889
-2.90525e-06
0.00515354
-0.00260914
0.00515127
-0.00260957
-2.16707e-06
0.00788881
-0.00272639
-5.75155e-06
0.00788466
-0.00272167
-8.33932e-06
0.00788068
-0.00272036
-8.81683e-06
0.00787683
-0.00272031
-6.36661e-06
0.00787288
-0.00272107
0.0078679
-0.00272252
-5.41611e-06
0.0108047
-0.00291007
-1.29431e-05
0.0107945
-0.00290169
-1.79385e-05
0.010786
-0.00289975
-1.86859e-05
0.0107784
-0.0029003
-1.36023e-05
0.010771
-0.00290267
0.0107615
-0.00290692
-1.54121e-05
0.0139826
-0.00316222
-2.87715e-05
0.0139615
-0.0031536
-3.5878e-05
0.0139466
-0.00315345
-3.54151e-05
0.0139348
-0.00315676
-2.51953e-05
0.0139238
-0.00316295
0.0139091
-0.00317266
-3.68514e-05
0.0173539
-0.0033344
-5.47041e-05
0.0173195
-0.00334062
-5.93805e-05
0.0172997
-0.00334883
-5.36081e-05
0.017287
-0.00335828
-3.60883e-05
0.0172759
-0.00336988
0.0172577
-0.00338501
-6.1664e-05
0.0207344
-0.00331901
-7.49019e-05
0.0206886
-0.00335696
-6.81634e-05
0.0206717
-0.00337959
-5.22635e-05
0.0206674
-0.00339706
-3.0752e-05
0.020666
-0.00341239
0.0206536
-0.00342738
-6.66783e-05
0.0238225
-0.00302192
-5.40021e-05
0.0237747
-0.00310008
-2.22323e-05
0.0237738
-0.00313498
5.05551e-06
0.0237925
-0.00315337
1.52813e-05
0.023816
-0.0031612
0.0238271
-0.00315923
-1.51864e-05
0.0259885
-0.0021514
4.90514e-05
0.0259532
-0.00224373
0.000117202
0.025974
-0.00226928
0.000151201
0.0260243
-0.00226673
0.000123384
0.0260868
-0.00224389
0.0261487
-0.00219884
6.85602e-05
0.025289
0.000630406
0.000211554
0.0252933
0.000516377
0.000321747
0.025321
0.000542289
0.000357585
0.0253613
0.000626558
0.000275529
0.025415
0.000753274
0.0254928
0.000931162
0.0001803
0.0167995
0.00830901
0.000278273
0.0168024
0.00839321
0.0003216
0.0168129
0.00846496
0.000313899
0.0168294
0.00853949
0.00022759
0.0168658
0.00863554
0.0169461
0.00877453
6.95494e-05
0.0167299
5.52141e-05
0.0168169
2.52254e-05
0.0168432
6.83603e-08
0.016855
-1.1889e-05
0.0168781
0.0169347
-1.95145e-06
0.00266618
-0.0052089
-2.5826e-06
0.00266519
-0.00520887
-2.67173e-06
0.00266433
-0.00520865
-2.21671e-06
0.00266357
-0.00520844
-1.25978e-06
0.0026629
-0.00520827
0.00266214
-0.00520792
-3.18827e-06
0.00544886
-0.00538943
-4.39548e-06
0.00544596
-0.0053878
-4.61518e-06
0.00544364
-0.00538706
-3.93048e-06
0.00544165
-0.00538674
-2.34025e-06
0.00543989
-0.00538683
0.00543786
-0.00538718
-6.42544e-06
0.00844132
-0.0057117
-9.02688e-06
0.00843429
-0.00570646
-9.49185e-06
0.00842917
-0.00570458
-8.27358e-06
0.00842499
-0.00570407
-5.2269e-06
0.0084213
-0.00570477
0.00841702
-0.00570654
-1.28658e-05
0.0117512
-0.00620653
-1.77579e-05
0.0117359
-0.00619783
-1.83299e-05
0.0117259
-0.00619537
-1.58854e-05
0.0117183
-0.00619555
-1.02144e-05
0.0117117
-0.00619827
0.0117039
-0.00620381
-2.437e-05
0.0155335
-0.00691988
-3.13856e-05
0.0155032
-0.00691384
-3.04684e-05
0.0154857
-0.00691416
-2.52097e-05
0.015474
-0.00691766
-1.58314e-05
0.0154645
-0.00692491
0.0154524
-0.00693704
-3.9664e-05
0.0203579
-0.00811936
-4.51868e-05
0.0203022
-0.00813488
-3.86304e-05
0.0202764
-0.00814664
-2.80715e-05
0.0202633
-0.00815862
-1.59393e-05
0.0202553
-0.00817331
0.0202438
-0.00819285
-5.25436e-05
0.0265711
-0.00948039
-4.41555e-05
0.0264864
-0.00955095
-2.15759e-05
0.0264605
-0.00958747
-2.16243e-06
0.0264584
-0.00961268
6.10006e-06
0.0264665
-0.00963296
0.0264716
-0.00965004
-2.85322e-05
0.0328255
-0.00924888
1.83846e-05
0.0327277
-0.00938989
7.18793e-05
0.0327161
-0.00944548
0.000100239
0.0327428
-0.00946756
8.35606e-05
0.0327872
-0.00946656
0.0328355
-0.00944042
5.91332e-05
0.0361641
-0.00555009
0.000162532
0.0360895
-0.00571006
0.000240239
0.0361039
-0.00573597
0.000263739
0.0361568
-0.00570537
0.000199884
0.0362342
-0.00562814
0.0363324
-0.00549623
0.00018732
0.0327173
0.00388924
0.000251301
0.0326797
0.00386181
0.000256571
0.0327327
0.00390793
0.000220326
0.032833
0.00398638
0.000136481
0.0329735
0.00409751
0.0331544
0.00424581
0.000136855
0.0220648
0.0188246
0.000136429
0.0221008
0.018973
8.69367e-05
0.0221757
0.019072
3.31665e-05
0.0222707
0.0191561
-6.4172e-06
0.0223951
0.0192541
0.0225506
0.0193727
-0.0001038
0.0388989
-0.000225585
0.0390401
-0.000315486
0.0391094
-0.000331051
0.0391419
-0.000258677
0.0392012
0.0392271
-1.34804e-06
0.00267275
-0.00787992
-1.77648e-06
0.00267209
-0.00788009
-1.73214e-06
0.00267157
-0.00787987
-1.28842e-06
0.00267116
-0.00787966
-5.98123e-07
0.00267093
-0.0078795
0.00267074
-0.00787904
-2.47709e-06
0.00551919
-0.0082329
-3.11411e-06
0.00551728
-0.00823179
-2.88687e-06
0.00551594
-0.00823114
-2.067e-06
0.00551496
-0.00823087
-9.24853e-07
0.00551442
-0.00823099
0.00551402
-0.00823119
-5.11516e-06
0.00869279
-0.0088797
-6.11579e-06
0.00868817
-0.0088758
-5.40352e-06
0.00868543
-0.0088743
-3.75848e-06
0.00868368
-0.00887399
-1.70003e-06
0.00868287
-0.00887484
0.00868251
-0.00887656
-9.47453e-06
0.012334
-0.00983788
-1.05086e-05
0.0123238
-0.00983214
-8.53513e-06
0.012319
-0.00983062
-5.34515e-06
0.0123166
-0.00983137
-2.10453e-06
0.0123161
-0.00983449
0.0123167
-0.00984006
-1.46938e-05
0.0164304
-0.0110015
-1.36519e-05
0.0164102
-0.0110014
-8.3525e-06
0.0164036
-0.0110042
-2.74799e-06
0.0164025
-0.0110092
7.69771e-07
0.0164051
-0.0110175
0.0164098
-0.0110297
-1.32798e-05
0.0202801
-0.011956
-3.9521e-06
0.0202457
-0.0119805
8.89893e-06
0.0202404
-0.011997
1.71962e-05
0.0202469
-0.012012
1.60434e-05
0.0202604
-0.0120282
0.0202783
-0.012046
1.61821e-05
0.0232477
-0.012465
4.6759e-05
0.0231987
-0.012536
7.02416e-05
0.0232011
-0.012573
7.63616e-05
0.0232252
-0.0125984
5.67449e-05
0.0232621
-0.0126164
0.0233093
-0.0126253
9.14028e-05
0.0256378
-0.0117314
0.000154072
0.0255885
-0.0118437
0.000184066
0.0256111
-0.0118868
0.000175605
0.0256667
-0.0119019
0.000119204
0.025744
-0.0118932
0.0258424
-0.0118549
0.000189148
0.0280784
-0.00818076
0.000262805
0.0280724
-0.00826843
0.000270736
0.028138
-0.00827141
0.000226775
0.0282412
-0.00823648
0.000134409
0.0283725
-0.0081648
0.0285304
-0.00804958
0.000203827
0.0330463
-0.00128279
0.000258265
0.0331349
-0.00125485
0.000237025
0.0332436
-0.0011761
0.000171436
0.0333663
-0.0010726
8.50163e-05
0.0334979
-0.000940802
0.0336347
-0.000772731
2.89447e-05
0.0126515
0.0391908
-4.28583e-05
0.0127619
0.0394187
-0.000130174
0.0128579
0.039546
-0.000181501
0.0129478
0.0396267
-0.000163296
0.013024
0.039711
0.0130845
0.0397606
-0.000215066
0.0517664
-0.000364501
0.0519532
-0.00042957
0.052034
-0.000402417
0.052064
-0.00019238
0.0520167
0.0521198
-8.31658e-07
0.00253055
-0.0104095
-9.71127e-07
0.0025299
-0.0104098
-7.75328e-07
0.00252961
-0.0104096
-4.12011e-07
0.00252952
-0.0104095
-5.83082e-08
0.00252962
-0.0104094
0.00252971
-0.0104088
-1.71796e-06
0.00530344
-0.0110039
-1.61911e-06
0.00530171
-0.0110036
-9.39111e-07
0.00530108
-0.0110032
-1.57398e-07
0.00530102
-0.0110031
3.2403e-07
0.00530141
-0.0110032
0.00530181
-0.011003
-3.24579e-06
0.00859813
-0.0121709
-2.41499e-06
0.00859453
-0.0121693
-6.358e-07
0.00859368
-0.0121686
9.59658e-07
0.00859408
-0.0121686
1.49861e-06
0.00859537
-0.0121693
0.00859673
-0.01217
-3.69097e-06
0.0127904
-0.0140263
-9.81325e-07
0.0127839
-0.0140242
2.85254e-06
0.0127833
-0.0140241
5.43747e-06
0.0127853
-0.0140252
5.15829e-06
0.0127889
-0.0140278
0.0127927
-0.014031
1.09847e-06
0.0185894
-0.0168017
8.59282e-06
0.0185791
-0.0168045
1.54122e-05
0.0185802
-0.0168083
1.82741e-05
0.0185864
-0.0168135
1.43794e-05
0.0185954
-0.0168204
0.018605
-0.0168281
1.83149e-05
0.0274195
-0.0208048
3.57533e-05
0.027406
-0.0208256
4.64045e-05
0.0274119
-0.02084
4.70642e-05
0.0274267
-0.0208537
3.3593e-05
0.027447
-0.0208674
0.0274708
-0.0208791
5.29969e-05
0.0403404
-0.0254396
8.4773e-05
0.0403332
-0.0254963
9.79944e-05
0.0403522
-0.0255277
9.21233e-05
0.040384
-0.0255511
6.21876e-05
0.0404262
-0.0255669
0.0404782
-0.025571
0.000100629
0.0568409
-0.0283336
0.000140941
0.0568684
-0.0284203
0.000146309
0.0569142
-0.0284551
0.000127276
0.0569704
-0.0284701
7.98877e-05
0.0570418
-0.0284619
0.057129
-0.0284256
0.000116195
0.0732834
-0.02474
0.000125803
0.0733865
-0.0247963
9.25345e-05
0.0734642
-0.0247881
5.3003e-05
0.0735293
-0.0247557
1.10747e-05
0.0736055
-0.0246862
0.0736782
-0.0245871
2.25847e-05
0.0826257
-0.0106476
-5.29373e-05
0.0827989
-0.0105907
-0.000145956
0.0828796
-0.0104976
-0.000184394
0.0829133
-0.0104173
-0.000177675
0.0829494
-0.0102904
0.0829179
-0.0101893
-0.000266401
0.0644598
0.0576241
-0.000406862
0.0645974
0.0577627
-0.000479956
0.0646367
0.0578639
-0.000409753
0.0646001
0.0578714
-0.000320493
0.0646013
0.0579714
0.064471
0.057888
-0.000260796
0.116488
-0.000294947
0.116586
-0.00027624
0.116653
-0.000168023
0.116557
-0.000257953
0.116709
0.116333
1.0779e-05
-1.84157
0.0779771
1.99947e-05
-1.84172
0.0779732
4.67476e-06
-1.8417
0.0779728
-1.27077e-05
-1.84169
0.0779708
-7.8192e-06
-1.84171
0.0779722
-1.84157
0.0779665
2.78762e-05
-1.88228
0.0406872
1.01627e-05
-1.88239
0.0406893
-5.05468e-06
-1.88238
0.040688
-1.79242e-05
-1.88237
0.0406893
-3.04289e-05
-1.88239
0.0406902
-1.88228
0.0406777
2.19122e-05
0.0250943
5.40975e-06
0.0250925
-3.19442e-06
0.0250928
-9.63259e-06
0.025093
-2.38904e-05
0.0250929
0.0250931
1.23686e-05
-1.94281
0.143198
-2.1439e-06
-1.94295
0.143209
-1.32702e-05
-1.94292
0.143206
-1.69246e-05
-1.94291
0.143199
-1.98269e-05
-1.94293
0.1432
-1.94277
0.143188
1.83759e-05
-1.98097
0.0788294
7.09339e-07
-1.98108
0.0788412
-1.12131e-05
-1.98106
0.0788396
-1.85804e-05
-1.98106
0.0788404
-3.24504e-05
-1.98108
0.0788432
-1.98095
0.0788251
2.08145e-05
0.0345966
5.3439e-06
0.034595
-3.59426e-06
0.0345959
-1.21922e-05
0.0345969
-2.84685e-05
0.0345977
0.0345984
3.13038e-05
-1.81085
0.283499
9.33533e-06
-1.81099
0.283539
-8.82181e-06
-1.81097
0.283528
-2.57277e-05
-1.81097
0.283518
-4.4033e-05
-1.811
0.283519
-1.81082
0.28347
2.53813e-05
-1.90255
0.170508
1.24538e-05
-1.90266
0.170516
5.22093e-06
-1.90264
0.170517
-6.59424e-06
-1.90264
0.17052
-3.50291e-05
-1.90265
0.170525
-1.90254
0.170515
1.93307e-05
0.0654027
5.74025e-06
0.0654021
-2.00631e-06
0.0654035
-9.50778e-06
0.0654045
-2.46164e-05
0.0654056
0.0654066
2.68658e-05
-2.21434
0.389979
-2.37746e-06
-2.21453
0.39003
-2.5904e-05
-2.21451
0.390008
-4.6328e-05
-2.21451
0.389995
-6.79983e-05
-2.21456
0.389994
-2.21434
0.389922
4.43246e-05
-2.14939
0.105511
3.13616e-05
-2.14951
0.105512
1.83234e-05
-2.14949
0.105517
-2.71331e-06
-2.14949
0.105522
-4.55934e-05
-2.14952
0.105524
-2.14941
0.105531
2.60111e-05
0.0334227
9.71727e-06
0.0334214
3.10487e-06
0.0334209
-4.3951e-06
0.0334205
-2.46261e-05
0.0334203
0.0334214
2.56102e-05
-2.22188
0.352951
-2.71104e-06
-2.22208
0.353001
-2.50695e-05
-2.22207
0.352972
-4.28855e-05
-2.22207
0.352958
-6.27425e-05
-2.22213
0.352961
-2.22191
0.352886
5.02583e-05
-2.11253
-0.00388521
3.33199e-05
-2.11266
-0.00389237
1.59157e-05
-2.11264
-0.00388653
-6.05044e-06
-2.11265
-0.00388126
-4.60202e-05
-2.11268
-0.00388505
-2.11256
-0.00386507
2.55377e-05
-0.00317293
1.01287e-05
-0.00317394
4.51433e-06
-0.00317629
-3.31389e-06
-0.00317806
-2.6443e-05
-0.00317905
-0.00318077
4.35751e-05
-2.34381
0.0941374
2.79608e-05
-2.34398
0.0941761
1.04613e-05
-2.34397
0.094133
-1.02166e-05
-2.34398
0.0941123
-6.10244e-05
-2.34402
0.0941358
-2.34384
0.0940347
4.18279e-05
-2.21639
-0.131337
2.31409e-05
-2.21651
-0.131346
1.03975e-05
-2.2165
-0.131342
-1.88377e-06
-2.21651
-0.131335
-2.40436e-05
-2.21652
-0.131352
-2.21641
-0.131319
1.72863e-05
-0.0528991
1.11198e-07
-0.0529009
-5.80011e-06
-0.0529029
-9.36919e-06
-0.0529063
-2.4669e-05
-0.052907
-0.0529116
-4.85429e-05
-2.18566
-0.436402
-1.96819e-05
-2.1858
-0.436493
-2.06859e-05
-2.18582
-0.43653
1.57317e-05
-2.18584
-0.436599
9.38017e-05
-2.18587
-0.436629
-2.18571
-0.436529
7.08954e-06
-2.10715
-0.209856
2.29732e-06
-2.10724
-0.209895
1.94716e-07
-2.10723
-0.209922
9.43905e-06
-2.10723
-0.209946
2.9149e-05
-2.10724
-0.210006
-2.10713
-0.209871
1.13219e-05
-0.00399054
-2.10533e-06
-0.00397974
-1.26302e-05
-0.00398302
-2.01649e-05
-0.00399224
-3.59829e-05
-0.00398424
-0.00401749
-5.32956e-05
-2.33377
0.113013
-2.84386e-06
-2.33393
0.112839
-1.87368e-05
-2.33394
0.11292
-3.62707e-05
-2.33392
0.112931
-0.000156032
-2.334
0.113099
-2.33369
0.112714
-1.85726e-05
-1.97743
-0.566175
-3.79461e-05
-1.97753
-0.566275
-7.12636e-05
-1.97752
-0.566304
-4.03394e-05
-1.97753
-0.566368
-2.50138e-06
-1.97759
-0.566456
-1.97735
-0.566217
1.09535e-05
0.0820364
-2.30024e-05
0.0820362
-4.37802e-05
0.0820193
-4.20774e-05
0.0819868
-9.06556e-05
0.0820359
0.0819661
9.93231e-05
-0.359784
3.00534
0.000157786
-0.360116
3.00535
0.000125009
-0.359886
3.00545
8.81706e-06
-0.359653
3.00549
-0.000442899
-0.359285
3.006
-0.360244
3.00483
7.02761e-05
-1.98281
1.05678
-3.16204e-05
-1.98299
1.0567
-9.89521e-05
-1.98286
1.05674
5.37852e-07
-1.98278
1.05667
0.000174088
-1.98277
1.05685
-1.98281
1.05653
-1.22554e-05
0.442825
-6.48774e-05
0.442726
-0.000126201
0.442824
-5.38958e-05
0.442715
-1.61789e-05
0.442935
0.442593
0.000288754
5.22237
3.96759
0.000183861
5.22222
3.96783
0.000255469
5.2223
3.96774
0.000323714
5.22245
3.96778
-0.000129511
5.22274
3.96848
5.22205
3.96741
0.000287894
2.38174
3.89712
0.000143795
2.3817
3.89736
0.000145149
2.38188
3.89715
1.272e-05
2.38203
3.89722
-0.00147327
2.38266
3.89842
2.38109
3.89601
0.000179134
2.79346
-8.47924e-05
2.79377
-9.9924e-05
2.7936
-0.000248717
2.79359
-0.00185861
2.79525
2.79171
0.000213387
6.54425
2.86111
0.000234371
6.54492
2.86128
0.000235214
6.54462
2.86139
8.88772e-05
6.54482
2.86143
0.000437479
6.54651
2.86038
6.54273
2.86294
0.000410027
6.05338
4.38757
0.000483016
6.05387
4.38834
0.000747468
6.05366
4.38786
0.000334455
6.05428
4.38818
-0.00194753
6.05672
4.39049
6.05124
4.38555
0.000154593
4.75947
9.96433e-05
4.7602
0.000204642
4.75976
-7.49562e-05
4.75999
-0.000935571
4.7626
4.75711
6.53086e-05
3.32915
2.1587
5.71403e-05
3.3294
2.15894
-0.000177752
3.32966
2.15895
8.6348e-05
3.32918
2.159
0.0011158
3.32696
2.15966
3.3324
2.15837
0.000350435
4.29879
3.41758
3.34611e-05
4.30002
3.41805
-0.000463621
4.29991
3.4181
0.000159167
4.29852
3.41821
0.000979341
4.29737
3.41926
4.3016
3.41732
-3.14595e-05
5.4529
0.000352247
5.45362
0.000349201
5.45324
0.000292181
5.45339
0.000693527
5.45632
5.45046
8.84155e-05
0.366036
-0.232978
-0.133146
-9.32348e-05
0.366334
-0.233162
-0.132991
0.000172214
0.366292
-0.233527
-0.13303
-0.000102958
0.366484
-0.233323
-0.132886
-0.0024157
0.368318
-0.234205
-0.131801
0.364157
-0.232453
-0.134119
0.00106923
0.00539096
1.38819
-1.02862
0.000288218
0.00634049
1.38997
-1.02919
0.00191404
0.00503087
1.3889
-1.02927
-0.000133707
0.00789046
1.38948
-1.02884
-0.00775203
0.0140067
1.39315
-1.03122
-0.00203089
1.3847
-1.02626
-0.000199429
0.303797
-0.340183
0.000178214
0.302785
-0.340627
0.000521713
0.303779
-0.34044
2.96643e-05
0.302225
-0.340708
-0.00048801
0.298446
-0.343599
0.307248
-0.33774
-0.000396934
0.44742
-0.68
-0.000347657
0.446799
-0.680011
-0.00121065
0.447766
-0.680431
-1.47636e-06
0.445882
-0.680415
0.0038758
0.442719
-0.680801
0.450772
-0.679349
0.0013674
1.35166
0.48259
0.000161305
1.35358
0.484391
0.000651228
1.3528
0.483382
-0.000234218
1.35272
0.483523
-0.0041715
1.35622
0.483592
1.34939
0.481906
0.00142746
-1.33377
0.000520168
-1.33594
0.00141382
-1.33436
0.000158493
-1.33656
-0.00586213
-1.3453
-1.32599
-0.000816237
-0.533794
-0.14539
-0.000419491
-0.535002
-0.145403
-0.00102958
-0.53429
-0.14553
0.000316595
-0.536097
-0.145665
0.00306472
-0.538018
-0.145532
-0.530585
-0.145699
0.000312143
1.53665
-1.58817
9.6868e-05
1.53759
-1.58799
2.25999e-05
1.53703
-1.58787
-0.000221134
1.53703
-1.58936
-0.000521754
1.53883
-1.59296
1.53526
-1.58446
0.00116114
-3.83328
0.000387243
-3.83555
0.000958809
-3.83434
-6.3657e-05
-3.83534
-0.0039519
-3.84211
-3.82781
8.68677e-05
-0.0843024
-0.0611758
0.000128549
-0.0844673
-0.0609784
-3.99245e-06
-0.0844431
-0.0609551
7.77455e-05
-0.0841966
-0.0615504
0.000434658
-0.0835796
-0.0623093
-0.0849681
-0.0602971
0.00043348
1.37752
-3.05042
0.00016935
1.37887
-3.05106
0.000443019
1.37816
-3.05075
-1.06619e-06
1.37804
-3.05116
-0.0018912
1.37942
-3.05407
1.37647
-3.0478
0.00102648
-5.10081
8.26409e-05
-5.10247
0.00039768
-5.1018
7.68375e-05
-5.10198
-0.00276918
-5.10624
-5.097
0.000144898
0.87185
-0.933171
0.000107298
0.872111
-0.933051
0.00019822
0.872002
-0.933048
0.000107368
0.872076
-0.933535
-0.000255938
0.873105
-0.935051
0.871152
-0.931705
0.000176842
1.06327
-3.24202
0.000176521
1.06375
-3.2427
0.000419599
1.06359
-3.24258
8.70164e-05
1.06335
-3.2421
-0.0010541
1.0634
-3.24323
1.06405
-3.24175
0.000134224
-5.3826
4.27163e-05
-5.383
-2.27969e-05
-5.38287
0.000243594
-5.3836
0.000785873
-5.38744
-5.37899
2.1192e-05
1.22551
0.000136901
1.22577
0.000261709
1.22578
0.000230211
1.2255
-0.000359173
1.2252
1.22631
6.90313e-05
1.401
0.00014853
1.40104
0.000531973
1.40092
0.00031629
1.40183
-0.00159886
1.40315
1.40029
0.000117623
0.000155336
-0.00020606
2.02809e-05
0.00205992
-1.20633e-07
-0.0122851
0.00187569
-1.89545e-07
-0.0122858
0.00187571
-1.27364e-07
-0.0122857
0.00187577
-2.80575e-09
-0.0122857
0.00187586
6.77094e-08
-0.0122857
0.00187601
-0.0122849
0.00187603
2.36469e-08
-0.013489
0.00120378
-3.48031e-08
-0.0134899
0.00120384
-3.17343e-08
-0.0134899
0.00120389
-7.28582e-09
-0.0134899
0.00120394
-8.89223e-09
-0.0134899
0.00120401
-0.013489
0.00120398
-1.10599e-08
0.00034597
-3.06287e-08
0.000345994
-2.70627e-08
0.000346009
-2.67507e-08
0.000346027
-3.22925e-08
0.000346047
0.000346035
-3.60392e-07
-0.0130796
0.00395156
-1.59918e-07
-0.0130802
0.00395178
2.29331e-07
-0.0130801
0.00395203
5.20827e-07
-0.0130801
0.00395239
5.24326e-07
-0.0130802
0.00395281
-0.0130795
0.00395294
1.50849e-08
-0.0144545
0.00257839
7.72387e-08
-0.0144554
0.00257859
1.80804e-07
-0.0144554
0.00257873
2.24336e-07
-0.0144554
0.0025789
1.52367e-07
-0.0144554
0.00257907
-0.0144546
0.00257904
6.666e-09
0.000628959
2.25845e-08
0.000629019
4.61504e-08
0.00062906
4.32608e-08
0.00062911
7.71911e-09
0.000629158
0.000629145
-3.40884e-07
-0.014673
0.00645392
5.8838e-07
-0.0146735
0.00645481
1.64839e-06
-0.0146734
0.00645566
2.21553e-06
-0.0146736
0.00645668
1.83436e-06
-0.014674
0.00645768
-0.0146735
0.00645808
2.56635e-07
-0.016523
0.00442796
6.05872e-07
-0.016524
0.00442843
8.86596e-07
-0.0165241
0.00442879
9.20795e-07
-0.0165243
0.00442921
6.05915e-07
-0.0165245
0.00442958
-0.0165236
0.00442959
9.49101e-08
0.00068822
1.86516e-07
0.000688326
2.48834e-07
0.000688422
2.28992e-07
0.000688538
1.18426e-07
0.000688639
0.00068866
1.42798e-06
-0.0171001
0.00952625
4.01726e-06
-0.0171009
0.00952859
6.02406e-06
-0.0171013
0.00953063
6.60572e-06
-0.0171021
0.00953275
4.9391e-06
-0.0171033
0.00953453
-0.0171034
0.00953511
1.11939e-06
-0.0200765
0.00740306
2.08475e-06
-0.0200779
0.00740405
2.64693e-06
-0.0200783
0.00740483
2.55487e-06
-0.0200788
0.00740563
1.64963e-06
-0.0200794
0.00740632
-0.0200787
0.00740634
3.07487e-07
0.000147943
5.68298e-07
0.00014811
7.13031e-07
0.000148282
6.53371e-07
0.000148492
3.98098e-07
0.000148637
0.000148709
8.02872e-06
-0.0203186
0.0130349
1.32802e-05
-0.0203212
0.0130395
1.57751e-05
-0.0203233
0.0130428
1.5033e-05
-0.020326
0.0130456
1.01727e-05
-0.0203289
0.0130474
-0.0203306
0.0130472
3.44852e-06
-0.0257222
0.0128029
5.57109e-06
-0.0257245
0.0128048
6.44984e-06
-0.0257258
0.012806
5.90119e-06
-0.0257272
0.012807
3.67943e-06
-0.0257286
0.0128077
-0.0257282
0.0128073
7.97418e-07
-0.00172778
1.35364e-06
-0.00172767
1.62389e-06
-0.00172758
1.42493e-06
-0.00172737
8.89568e-07
-0.00172738
-0.00172724
2.16853e-05
-0.0245524
0.0167603
2.94396e-05
-0.0245613
0.0167666
3.00163e-05
-0.0245676
0.0167689
2.51562e-05
-0.0245738
0.0167696
1.50784e-05
-0.0245795
0.0167686
-0.0245824
0.0167651
8.55248e-06
-0.0344776
0.0227192
1.19951e-05
-0.0344819
0.0227214
1.23205e-05
-0.0344847
0.0227222
1.03655e-05
-0.0344875
0.0227219
5.61866e-06
-0.0344899
0.0227221
-0.0344894
0.0227196
1.59088e-06
-0.00598582
2.34311e-06
-0.00598595
2.65779e-06
-0.00598639
2.01335e-06
-0.0059862
1.2117e-06
-0.0059869
-0.00598649
3.97394e-05
-0.030093
0.0213732
4.50522e-05
-0.0301123
0.0213763
3.7625e-05
-0.0301238
0.0213715
2.45638e-05
-0.0301331
0.0213639
1.01918e-05
-0.0301394
0.0213548
-0.0301394
0.0213437
1.41119e-05
-0.0475455
0.040157
1.75164e-05
-0.0475526
0.0401578
1.47187e-05
-0.0475566
0.0401573
1.10691e-05
-0.0475599
0.0401519
3.48705e-06
-0.0475623
0.0401524
-0.0475603
0.0401442
1.87485e-06
-0.0137761
2.11867e-06
-0.0137769
2.19051e-06
-0.0137789
1.09246e-06
-0.0137786
6.82408e-07
-0.0137809
-0.0137801
3.99075e-05
-0.037124
0.030123
2.93762e-05
-0.0371495
0.0301156
6.07375e-06
-0.0371595
0.0300989
-1.52002e-05
-0.0371644
0.0300793
-2.26859e-05
-0.0371615
0.0300619
-0.0371488
0.0300444
1.2414e-05
-0.0670306
0.0700509
1.20088e-05
-0.0670389
0.0700477
2.73291e-06
-0.0670416
0.0700489
-1.31554e-06
-0.067041
0.0700328
-1.07339e-05
-0.0670406
0.0700413
-0.0670331
0.0700176
-6.00631e-08
-0.0249763
-1.99284e-06
-0.0249787
-2.79135e-06
-0.0249835
-3.88465e-06
-0.0249831
-3.93598e-06
-0.0249862
-0.024988
-4.02152e-06
-0.0446544
0.0500413
-4.3216e-05
-0.0446682
0.0500272
-8.2273e-05
-0.0446605
0.0500108
-9.94308e-05
-0.0446478
0.0499891
-8.46755e-05
-0.0446231
0.0499845
-0.0445908
0.0499635
-3.33631e-06
-0.0969128
0.122313