/*--------------------------------*- C++ -*----------------------------------*\
| =========                 |                                                 |
| \\      /  F ield         | OpenFOAM: The Open Source CFD Toolbox           |
|  \\    /   O peration     | Version:  v1612+                                |
|   \\  /    A nd           | Web:      www.OpenFOAM.com                      |
|    \\/     M anipulation  |                                                 |
\*---------------------------------------------------------------------------*/
FoamFile
{
    version     2.0;
    format      ascii;
    class       volScalarField;
    location    "6.05";
    object      p_rgh;
}
// * * * * * * * * * * * * * * * * * * * * * * * * * * * * * * * * * * * * * //

dimensions      [1 -1 -2 0 0 0 0];

internalField   nonuniform List<scalar> 
320
(
-9800.22
-9800.22
-9800.22
-9800.21
-0.00607265
0.00334108
0.00693446
0.000373522
0.00173886
0.00077774
0.000937048
-0.0038928
-0.0179474
0.00345738
0.012383
-0.00710949
-9799.88
-9799.96
-9799.97
-9799.93
-9799.92
-9799.87
-9799.85
-9799.82
-9799.91
-9799.88
-9800.04
-9799.85
-9800.2
-9800.21
-9800.22
-9800.23
-9800.22
-9800.21
-9800.22
-9800.22
-9800.21
-9800.2
-9800.2
-9800.2
-9800.21
-9800.21
-9800.21
-9800.21
-9800.2
-9800.21
-9800.21
-9800.22
-9800.22
-9800.21
-9800.21
-9800.21
-9800.2
-9800.21
-9800.2
-9800.21
-0.000827594
-0.0114309
0.00285782
0.00196598
0.0112132
0.016784
0.0138163
0.0176363
-0.0026199
0.000465528
0.00569787
0.0106495
0.00188832
0.00810502
0.00339085
0.0104773
0.00845989
0.000315129
0.000149445
0.0025095
-9799.87
-9799.84
-9799.97
-9799.84
-9800.03
-9800.06
-9800.04
-9800.06
-9799.86
-9799.94
-9800.04
-9800.05
-9799.86
-9800.01
-9800.02
-9800.03
-9800.03
-9799.92
-9799.94
-9800
-9800.19
-9800.2
-9800.2
-9800.22
-9800.21
-9800.21
-9800.21
-9800.2
-9800.21
-9800.19
-9800.19
-9800.19
-9800.21
-9800.2
-9800.19
-9800.19
-9800.19
-9800.21
-9800.21
-9800.19
-9800.2
-9800.21
-9800.21
-9800.21
-9800.21
-9800.21
-9800.21
-9800.21
-9800.21
-9800.2
-9800.2
-9800.2
-9800.21
-9800.2
-9800.19
-9800.2
-9800.2
-9800.2
-9800.2
-9800.2
-9800.21
-9800.21
-9800.21
-9800.21
-9800.21
-9800.21
-9800.21
-9800.22
-9800.21
-9800.21
-9800.21
-9800.21
-9800.2
-9800.2
-9800.2
-9800.2
-9800.2
-9800.21
-9800.21
-9800.21
-9800.21
-9800.21
-9800.21
-9800.21
-9800.21
-9800.2
-9800.2
-9800.2
-9800.21
-9800.2
-9800.2
-9800.2
-9800.2
-9800.2
-9800.2
-9800.2
-0.00946153
-0.00884365
-0.00338931
0.00415759
0.000473675
0.00302551
-0.0107128
-0.00487808
0.00200313
-0.00403768
-0.000696569
-0.00457517
-0.0101513
-0.00134736
-0.00528806
-0.0058025
-0.014019
-0.00309769
0.00140513
-0.01089
-0.0150391
-0.00610573
0.00425692
-0.00168089
-0.000221453
-0.00161992
-0.00533728
-0.00362454
-9799.86
-9799.86
-9799.88
-9800.02
-9799.95
-9799.94
-9799.82
-9799.87
-9799.96
-9799.82
-9799.85
-9799.88
-9799.82
-9799.91
-9799.88
-9799.9
-9799.83
-9799.88
-9799.88
-9799.82
-9799.82
-9799.9
-9799.99
-9799.9
-9799.94
-9799.9
-9799.84
-9799.8
-9800.2
-9800.2
-9800.21
-9800.2
-9800.22
-9800.22
-9800.22
-9800.22
-9800.22
-9800.23
-9800.22
-9800.2
-9800.2
-9800.19
-9800.19
-9800.19
-9800.19
-9800.2
-9800.2
-9800.2
-9800.19
-9800.19
-9800.19
-9800.19
-9800.19
-9800.2
-9800.2
-9800.21
-9800.2
-9800.2
-9800.2
-9800.2
-9800.21
-9800.21
-9800.21
-9800.21
-9800.22
-9800.22
-9800.22
-9800.21
-9800.21
-9800.2
-9800.2
-9800.2
-9800.2
-9800.2
-9800.2
-9800.2
-9800.19
-9800.19
-9800.2
-9800.2
-9800.19
-9800.2
-9800.2
-9800.21
-9800.2
-9800.2
-9800.2
-9800.2
-9800.21
-9800.21
-9800.21
-9800.21
-9800.21
-9800.22
-9800.21
-9800.21
-9800.2
-9800.2
-9800.2
-9800.2
-9800.2
-9800.2
-9800.2
-9800.2
-9800.2
-9800.19
-9800.2
-9800.2
-9800.2
-9800.2
-9800.2
-9800.2
-0.00253348
0.00504775
0.00394263
0.00787042
-9799.84
-9799.94
-9799.94
-9799.97
)
;

boundaryField
{
    top_fluid_surface
    {
        type            totalPressure;
        rho             rho;
        psi             none;
        gamma           1;
        p0              uniform 0;
        value           nonuniform List<scalar> 
64
(
-9.33181e-09
0
0
0
0
-2.5709e-10
-8.12966e-10
-2.35702e-09
-9.41648e-09
0
0
-9.67893e-09
-9.71887e-09
-2.28093e-08
0
-6.82639e-09
0
0
0
0
-5.6478e-10
-2.97827e-10
0
0
0
0
0
0
0
0
0
0
-1.5555e-08
-1.42152e-08
-4.2637e-09
0
0
0
-4.75805e-08
-8.2628e-09
0
-6.33469e-09
-2.35411e-09
-6.48437e-09
-1.27977e-08
-9.2454e-11
-1.00553e-08
-7.19244e-09
-4.2274e-08
-2.45047e-09
0
-3.37702e-08
-5.88656e-08
-6.05381e-09
0
-1.7899e-09
-2.09985e-10
-1.29208e-09
-8.7289e-09
-9.94652e-10
-3.57654e-09
0
0
0
)
;
    }
    bottom_fluid_surface
    {
        type            fixedFluxPressure;
        gradient        uniform 0;
        value           nonuniform List<scalar> 
64
(
-9800.21
-9800.21
-9800.21
-9800.21
-9800.21
-9800.21
-9800.21
-9800.22
-9800.21
-9800.21
-9800.21
-9800.21
-9800.2
-9800.2
-9800.2
-9800.2
-9800.2
-9800.21
-9800.21
-9800.21
-9800.21
-9800.21
-9800.21
-9800.21
-9800.21
-9800.2
-9800.2
-9800.2
-9800.21
-9800.2
-9800.2
-9800.2
-9800.2
-9800.2
-9800.2
-9800.2
-9800.2
-9800.2
-9800.2
-9800.2
-9800.21
-9800.21
-9800.21
-9800.21
-9800.21
-9800.22
-9800.21
-9800.21
-9800.2
-9800.2
-9800.2
-9800.2
-9800.2
-9800.2
-9800.2
-9800.2
-9800.2
-9800.19
-9800.2
-9800.2
-9800.2
-9800.2
-9800.2
-9800.2
)
;
    }
    lateral_surface_1
    {
        type            fixedFluxPressure;
        gradient        uniform 0;
        value           nonuniform List<scalar> 
40
(
-0.00946153
-0.00884365
-0.00338931
0.00415759
0.000473675
0.00302551
-0.0107128
-0.00362454
-9799.86
-9799.86
-9799.88
-9800.02
-9799.95
-9799.94
-9799.82
-9799.8
-9800.2
-9800.2
-9800.21
-9800.2
-9800.22
-9800.22
-9800.22
-9800.21
-9800.2
-9800.2
-9800.2
-9800.2
-9800.21
-9800.21
-9800.21
-9800.21
-9800.2
-9800.2
-9800.2
-9800.2
-9800.21
-9800.21
-9800.21
-9800.2
)
;
    }
    lateral_surface_2
    {
        type            fixedFluxPressure;
        gradient        uniform 0;
        value           nonuniform List<scalar> 
40
(
-0.00134736
-0.00528806
-0.0058025
-0.014019
-0.00309769
0.00140513
-0.01089
-0.0150391
-9799.91
-9799.88
-9799.9
-9799.83
-9799.88
-9799.88
-9799.82
-9799.82
-9800.19
-9800.19
-9800.19
-9800.19
-9800.2
-9800.2
-9800.2
-9800.19
-9800.2
-9800.2
-9800.2
-9800.2
-9800.2
-9800.2
-9800.2
-9800.19
-9800.2
-9800.2
-9800.2
-9800.2
-9800.2
-9800.2
-9800.2
-9800.2
)
;
    }
    lateral_surface_3
    {
        type            fixedFluxPressure;
        gradient        uniform 0;
        value           nonuniform List<scalar> 
40
(
-0.0107128
-0.00487808
0.00200313
-0.00403768
-0.000696569
-0.00457517
-0.0101513
-0.00134736
-9799.82
-9799.87
-9799.96
-9799.82
-9799.85
-9799.88
-9799.82
-9799.91
-9800.22
-9800.22
-9800.22
-9800.23
-9800.22
-9800.2
-9800.2
-9800.19
-9800.21
-9800.21
-9800.22
-9800.22
-9800.22
-9800.21
-9800.21
-9800.2
-9800.21
-9800.21
-9800.21
-9800.22
-9800.21
-9800.21
-9800.2
-9800.2
)
;
    }
    lateral_surface_4
    {
        type            fixedFluxPressure;
        gradient        uniform 0;
        value           nonuniform List<scalar> 
40
(
-0.0150391
-0.00610573
0.00425692
-0.00168089
-0.000221453
-0.00161992
-0.00533728
-0.00362454
-9799.82
-9799.9
-9799.99
-9799.9
-9799.94
-9799.9
-9799.84
-9799.8
-9800.19
-9800.19
-9800.19
-9800.19
-9800.19
-9800.2
-9800.2
-9800.21
-9800.19
-9800.19
-9800.2
-9800.2
-9800.19
-9800.2
-9800.2
-9800.21
-9800.2
-9800.19
-9800.2
-9800.2
-9800.2
-9800.2
-9800.2
-9800.2
)
;
    }
}


// ************************************************************************* //
