/*--------------------------------*- C++ -*----------------------------------*\
| =========                 |                                                 |
| \\      /  F ield         | OpenFOAM: The Open Source CFD Toolbox           |
|  \\    /   O peration     | Version:  v1612+                                |
|   \\  /    A nd           | Web:      www.OpenFOAM.com                      |
|    \\/     M anipulation  |                                                 |
\*---------------------------------------------------------------------------*/
FoamFile
{
    version     2.0;
    format      ascii;
    class       surfaceScalarField;
    location    "2.7";
    object      alphaPhi;
}
// * * * * * * * * * * * * * * * * * * * * * * * * * * * * * * * * * * * * * //

dimensions      [0 3 -1 0 0 0 0];

internalField   nonuniform List<scalar> 
2916
(
-6.9583e-06
0.516232
-0.438725
-2.82021e-06
0.516231
-0.438736
-4.23524e-06
0.516231
-0.438734
-7.43922e-06
0.516235
-0.438743
-2.0612e-06
0.516235
-0.438757
0.516226
-0.438739
-5.50467e-06
1.03202
-0.437785
-3.41688e-06
1.03203
-0.437795
-7.3855e-06
1.03203
-0.437789
-6.77481e-06
1.03203
-0.437792
4.20695e-06
1.03203
-0.4378
1.03202
-0.437788
-6.30286e-06
1.4033
-0.300893
-2.57304e-06
1.40331
-0.300906
-5.33737e-06
1.40331
-0.300901
-5.05294e-06
1.40331
-0.300901
5.26529e-06
1.40331
-0.300908
1.4033
-0.300897
-6.92477e-06
1.67855
-0.232868
-2.65977e-06
1.67856
-0.232881
-5.02157e-06
1.67856
-0.232876
-5.52234e-06
1.67856
-0.232877
3.37286e-06
1.67856
-0.232883
1.67855
-0.23287
-7.77147e-06
1.90121
-0.205419
-4.50227e-06
1.90122
-0.205432
-6.76568e-06
1.90122
-0.205428
-6.84748e-06
1.90122
-0.205428
2.02649e-06
1.90122
-0.205435
1.9012
-0.205421
-8.95517e-06
2.08591
-0.175175
-6.95751e-06
2.08592
-0.175186
-8.69067e-06
2.08592
-0.175182
-7.71236e-06
2.08591
-0.175183
1.18417e-06
2.08591
-0.175191
2.08589
-0.175176
-1.14666e-05
2.22853
-0.133435
-8.69438e-06
2.22854
-0.133444
-9.5315e-06
2.22854
-0.133441
-8.09693e-06
2.22854
-0.133442
4.28491e-07
2.22853
-0.133449
2.22851
-0.133436
-8.40159e-06
2.29427
-0.0657477
-6.56847e-06
2.29429
-0.0657643
-6.33948e-06
2.29429
-0.0657616
-4.92013e-06
2.29429
-0.0657639
-4.24454e-07
2.29429
-0.0657708
2.29425
-0.0657576
-4.30687e-06
2.08424
0.210043
-1.39877e-06
2.08427
0.210015
-1.78724e-06
2.08427
0.210024
-2.34012e-06
2.08426
0.210024
-7.60332e-07
2.08427
0.210015
2.08422
0.210033
-2.86786e-06
1.39341
0.690832
3.34841e-06
1.39346
0.690812
3.11755e-06
1.39345
0.690815
1.28649e-06
1.39345
0.690817
4.45756e-08
1.39347
0.690811
1.3934
0.690823
2.46482e-06
0.456501
0.936909
-2.13199e-06
0.456544
0.936922
1.14622e-06
0.456544
0.936909
2.69486e-06
0.456542
0.936909
-2.31261e-06
0.456565
0.936907
0.456498
0.936903
-3.39284e-05
0.437216
-2.664e-05
0.437218
-1.70084e-05
0.437216
-6.71458e-06
0.437213
2.10849e-05
0.43722
0.437198
5.7176e-06
0.296377
-4.53119e-07
-2.94912e-06
0.296371
-4.53134e-07
-9.74879e-06
0.296375
-4.53216e-07
-2.15789e-06
0.296374
-4.53293e-07
1.89751e-06
0.296371
-4.53393e-07
0.296379
-4.53445e-07
9.06606e-06
0.393646
-7.30466e-06
-2.15595e-06
0.39365
-7.30467e-06
-6.05206e-06
0.393648
-7.30474e-06
-2.40241e-06
0.393646
-7.30499e-06
-6.57434e-06
0.393646
-7.30505e-06
0.393643
-7.30474e-06
8.74315e-06
0.647679
-5.2035e-07
-1.24044e-06
0.647691
-5.20268e-07
-3.34362e-06
0.647684
-5.20227e-07
-2.24054e-06
0.647682
-5.20451e-07
-9.16157e-06
0.647686
-5.20936e-07
0.647673
-5.20788e-07
9.74254e-06
0.980352
-4.16993e-07
7.84353e-07
0.980377
-4.16919e-07
-5.16618e-07
0.980369
-4.16886e-07
-6.99698e-07
0.980367
-4.16841e-07
-9.08921e-06
0.980374
-4.16832e-07
0.980351
-4.17184e-07
1.08574e-05
1.25107
-4.87508e-07
4.5257e-06
1.25111
-4.87434e-07
4.90279e-06
1.2511
-4.87408e-07
3.38002e-06
1.2511
-4.87395e-07
-6.67167e-06
1.25111
-4.87355e-07
1.25107
-4.87201e-07
1.12414e-05
1.37275
-6.87966e-08
8.16051e-06
1.3728
-6.87841e-08
9.92468e-06
1.37279
-6.87806e-08
7.17249e-06
1.37279
-6.87793e-08
-1.89281e-06
1.3728
-6.87735e-08
1.37276
-6.87503e-08
1.28768e-05
1.44126
-1.16662e-08
1.17218e-05
1.44132
-1.16631e-08
1.44532e-05
1.4413
-1.16621e-08
1.14678e-05
1.4413
-1.1662e-08
3.04406e-06
1.44131
-1.16609e-08
1.44128
-1.16548e-08
1.31482e-05
1.40182
-3.48825e-09
1.4126e-05
1.40187
-3.48749e-09
1.65829e-05
1.40186
-3.48738e-09
1.35491e-05
1.40186
-3.48742e-09
4.97101e-06
1.40187
-3.48724e-09
1.40185
-3.48656e-09
1.11366e-05
1.36878
0.0200334
9.47863e-06
1.36882
0.0200327
1.08384e-05
1.3688
0.020033
9.064e-06
1.3688
0.0200338
5.96706e-07
1.36881
0.0200343
1.3688
0.0200354
1.49879e-05
1.50264
0.18377
9.00389e-06
1.5027
0.183757
7.7361e-06
1.50269
0.18376
4.16009e-06
1.50269
0.18376
-8.81322e-06
1.50269
0.183756
1.50266
0.183763
3.43184e-05
1.07516
1.00096
1.26486e-05
1.07531
1.00091
1.12697e-05
1.07527
1.00092
7.44546e-06
1.07527
1.00092
-1.43812e-05
1.0753
1.0009
1.07519
1.00094
-6.56854e-05
1.49251
-2.0916e-05
1.49255
-4.31049e-06
1.49254
7.7325e-06
1.49254
4.65903e-05
1.49255
1.4925
-9.01209e-13
3.04025e-08
-5.25622e-07
-9.37562e-13
3.04014e-08
-5.25638e-07
-7.41492e-13
3.04031e-08
-5.25722e-07
2.20611e-12
3.04036e-08
-5.25803e-07
4.71784e-12
3.04078e-08
-5.25899e-07
3.04164e-08
-5.25959e-07
-8.54232e-12
3.68795e-07
-7.68664e-06
-5.5424e-12
3.68786e-07
-7.68665e-06
3.31374e-12
3.68785e-07
-7.68673e-06
7.18014e-12
3.68793e-07
-7.68697e-06
4.1581e-12
3.68802e-07
-7.687e-06
3.68803e-07
-7.6867e-06
-1.05726e-12
8.34824e-08
-2.59023e-07
-4.23926e-13
8.34685e-08
-2.58941e-07
4.98493e-13
8.34627e-08
-2.58899e-07
9.4855e-13
8.3472e-08
-2.59115e-07
9.12967e-13
8.34949e-08
-2.59604e-07
8.34897e-08
-2.59457e-07
-2.93883e-13
8.58991e-08
-4.28386e-07
6.0234e-13
8.58831e-08
-4.28315e-07
1.14146e-12
8.58768e-08
-4.28282e-07
1.37784e-12
8.58706e-08
-4.2822e-07
1.52565e-12
8.58668e-08
-4.28183e-07
8.58961e-08
-4.28572e-07
1.69454e-13
8.31662e-08
-4.86823e-07
1.19119e-12
8.31517e-08
-4.86752e-07
1.63009e-12
8.3147e-08
-4.86727e-07
1.71052e-12
8.31451e-08
-4.86717e-07
1.87533e-12
8.31382e-08
-4.86674e-07
8.31094e-08
-4.86461e-07
6.96814e-15
1.41567e-08
-6.21238e-10
1.77801e-13
1.41529e-08
-6.20381e-10
2.48195e-13
1.41518e-08
-6.19973e-10
2.50628e-13
1.41517e-08
-6.20036e-10
3.36597e-13
1.41503e-08
-6.19904e-10
1.41429e-08
-6.176e-10
4.74752e-16
2.49892e-09
-1.17805e-11
2.87234e-14
2.49825e-09
-1.17586e-11
3.9847e-14
2.49806e-09
-1.17498e-11
3.63275e-14
2.49806e-09
-1.1744e-11
4.23975e-14
2.49781e-09
-1.17396e-11
2.49655e-09
-1.1677e-11
1.04957e-15
-1.00206e-09
1.24202e-11
3.91827e-15
-1.00197e-09
1.24112e-11
4.54912e-15
-1.00205e-09
1.24149e-11
2.46206e-15
-1.0021e-09
1.24183e-11
-1.91752e-15
-1.00218e-09
1.24184e-11
-1.00276e-09
1.24068e-11
6.86232e-08
0.0188492
0.00119708
3.39643e-08
0.0188486
0.00119708
2.54664e-08
0.0188489
0.0011971
-6.74554e-10
0.0188497
0.00119715
-1.26184e-07
0.0188502
0.00119722
0.018851
0.00119719
-2.08594e-07
0.187524
0.0147584
-3.43913e-07
0.18751
0.0147581
-2.18219e-07
0.187513
0.0147583
-2.20586e-07
0.187514
0.0147584
-6.42616e-07
0.187511
0.0147585
0.187517
0.0147584
1.863e-05
0.453191
0.222878
6.17781e-06
0.453215
0.222893
4.23119e-06
0.453206
0.222894
2.31574e-07
0.453204
0.222887
-1.34022e-05
0.4532
0.222889
0.453188
0.222897
-3.48829e-05
1.76096
-2.96041e-06
1.76099
5.30433e-06
1.76097
1.60763e-05
1.76097
1.84571e-05
1.76103
1.76084
-2.32056e-11
3.92413e-08
-1.63529e-06
-7.44481e-12
3.92252e-08
-1.63545e-06
6.16122e-12
3.92236e-08
-1.63579e-06
1.32539e-11
3.92158e-08
-1.63616e-06
2.34317e-11
3.922e-08
-1.63619e-06
3.92618e-08
-1.63586e-06
-2.74475e-10
-1.52803e-07
-2.32911e-05
-1.09421e-10
-1.52847e-07
-2.32911e-05
5.42287e-11
-1.52863e-07
-2.32915e-05
6.09389e-11
-1.52886e-07
-2.32914e-05
8.52177e-11
-1.52916e-07
-2.32902e-05
-1.52868e-07
-2.32911e-05
-1.95364e-12
-2.4004e-07
-1.53964e-07
1.25239e-12
-2.4001e-07
-1.53942e-07
2.11081e-12
-2.3999e-07
-1.53871e-07
2.05784e-12
-2.39965e-07
-1.54124e-07
3.51136e-12
-2.40001e-07
-1.54406e-07
-2.40325e-07
-1.5417e-07
4.83472e-13
-3.00656e-07
-8.5943e-07
1.32734e-11
-3.0061e-07
-8.59275e-07
1.4041e-11
-3.00583e-07
-8.59325e-07
1.26108e-11
-3.00578e-07
-8.5898e-07
1.86733e-11
-3.00575e-07
-8.58712e-07
-3.00504e-07
-8.59561e-07
-2.01019e-11
-1.04251e-08
-9.92784e-07
-8.01349e-12
-1.04107e-08
-9.92833e-07
-4.09563e-12
-1.0404e-08
-9.92816e-07
2.74479e-12
-1.04051e-08
-9.92794e-07
2.51845e-11
-1.04028e-08
-9.92781e-07
-1.03667e-08
-9.92659e-07
-4.44532e-14
-9.0591e-12
-1.10406e-08
-4.02432e-14
-9.03369e-12
-1.10255e-08
-3.96042e-14
-9.02223e-12
-1.10184e-08
-2.92344e-14
-9.01904e-12
-1.10195e-08
1.02108e-14
-9.01513e-12
-1.10171e-08
-8.94292e-12
-1.09787e-08
-1.14723e-16
-1.9475e-13
-2.1784e-11
-1.08895e-16
-1.94717e-13
-2.17487e-11
-1.15456e-16
-1.94646e-13
-2.17201e-11
-1.0773e-16
-1.94695e-13
-2.17156e-11
-4.191e-17
-1.94743e-13
-2.1712e-11
-1.94459e-13
-2.15966e-11
3.84548e-18
1.24887e-11
3.90809e-15
-1.59126e-17
1.24829e-11
3.87968e-15
-2.57551e-17
1.24839e-11
3.88657e-15
-3.00723e-17
1.24882e-11
3.88918e-15
-7.25736e-17
1.24897e-11
3.8784e-15
1.24833e-11
3.92057e-15
2.09775e-09
0.00114076
6.56817e-05
-2.10733e-09
0.00114077
6.56759e-05
-2.8864e-09
0.00114078
6.56804e-05
-6.9891e-09
0.00114083
6.5684e-05
-4.2626e-08
0.00114092
6.5697e-05
0.00114084
6.56698e-05
1.18403e-07
0.0133807
0.00239399
1.1285e-07
0.0133806
0.00239397
9.78397e-08
0.0133807
0.002394
7.18816e-08
0.0133809
0.00239399
-1.12919e-07
0.0133813
0.00239396
0.0133807
0.0023942
1.2567e-06
0.155531
0.0801461
5.14002e-07
0.15555
0.080144
3.27251e-07
0.15555
0.0801446
6.97442e-07
0.155545
0.0801424
9.2259e-07
0.155556
0.0801337
0.155539
0.0801596
1.23368e-05
1.68256
4.69184e-06
1.68259
6.04851e-05
1.68252
2.36111e-05
1.68258
-0.000183984
1.68275
1.68235
-1.05349e-66
1.5699e-63
-1.75697e-60
-1.26957e-66
1.5727e-63
-1.76026e-60
-1.36789e-66
1.57224e-63
-1.76002e-60
-1.22024e-66
1.57201e-63
-1.76004e-60
-7.73735e-67
1.57225e-63
-1.76063e-60
1.56875e-63
-1.75704e-60
-2.4849e-62
7.75921e-59
-4.39474e-56
-4.06107e-62
7.76831e-59
-4.40011e-56
-5.18779e-62
7.76454e-59
-4.39878e-56
-5.12035e-62
7.76286e-59
-4.39886e-56
-3.41136e-62
7.76422e-59
-4.40089e-56
7.74833e-59
-4.39352e-56
-4.23773e-58
1.55996e-54
-5.85733e-52
-9.50803e-58
1.55959e-54
-5.85606e-52
-1.33735e-57
1.55806e-54
-5.8519e-52
-1.39538e-57
1.55741e-54
-5.85168e-52
-9.89874e-58
1.55767e-54
-5.85554e-52
1.55482e-54
-5.84867e-52
-8.54908e-54
1.88579e-50
-5.19489e-48
-1.83339e-53
1.88245e-50
-5.18738e-48
-2.47354e-53
1.87973e-50
-5.18278e-48
-2.54548e-53
1.87888e-50
-5.1838e-48
-1.83133e-53
1.87977e-50
-5.19045e-48
1.87777e-50
-5.19069e-48
-1.53783e-49
1.69985e-46
-5.58632e-44
-2.70426e-49
1.69621e-46
-5.58253e-44
-3.29781e-49
1.69396e-46
-5.57909e-44
-3.22351e-49
1.69527e-46
-5.59786e-44
-2.25658e-49
1.7024e-46
-5.66656e-44
1.69326e-46
-5.56232e-44
-1.55032e-44
9.54752e-42
-6.55506e-39
-2.21383e-44
9.60255e-42
-6.60563e-39
-2.35943e-44
9.62319e-42
-6.62661e-39
-2.13523e-44
9.70017e-42
-6.68746e-39
-1.35616e-44
9.93912e-42
-6.86505e-39
9.54935e-42
-6.58261e-39
-3.06358e-40
1.39472e-37
-7.06627e-35
-3.59397e-40
1.42182e-37
-7.22048e-35
-3.16897e-40
1.43337e-37
-7.28573e-35
-2.36635e-40
1.44977e-37
-7.37359e-35
-1.24736e-40
1.48861e-37
-7.57376e-35
1.42456e-37
-7.2442e-35
-5.94126e-37
3.31194e-34
-1.24373e-31
-4.48445e-37
3.43058e-34
-1.29074e-31
-1.29199e-37
3.47333e-34
-1.30699e-31
1.41673e-37
3.51169e-34
-1.32102e-31
2.28723e-37
3.58913e-34
-1.34899e-31
3.40098e-34
-1.27631e-31
-7.93423e-36
1.03054e-31
-2.9564e-29
1.62954e-34
1.08344e-31
-3.11403e-29
3.35168e-34
1.09232e-31
-3.13578e-29
4.16421e-34
1.09091e-31
-3.12455e-29
3.38106e-34
1.09292e-31
-3.11888e-29
1.00584e-31
-2.85503e-29
1.14332e-36
4.59751e-34
9.95288e-36
2.57221e-36
4.76113e-34
9.59789e-36
3.54067e-36
4.79607e-34
9.92296e-36
3.75749e-36
4.8032e-34
1.05792e-35
2.83351e-36
4.82728e-34
1.1625e-35
4.58154e-34
1.23891e-35
5.77464e-34
8.72365e-32
2.97914e-32
8.48623e-34
8.74637e-32
3.0161e-32
9.47776e-34
8.75278e-32
3.04099e-32
9.04963e-34
8.76291e-32
3.06695e-32
6.50397e-34
8.78503e-32
3.1012e-32
8.81049e-32
3.1451e-32
8.85006e-32
4.18087e-29
6.73057e-32
4.20482e-29
2.78631e-32
4.20938e-29
-5.53196e-33
4.21167e-29
-2.32191e-32
4.21684e-29
4.21913e-29
-1.16573e-63
1.82006e-60
-1.55521e-57
-1.42438e-63
1.82296e-60
-1.55817e-57
-1.43474e-63
1.82225e-60
-1.55795e-57
-1.15767e-63
1.82188e-60
-1.55795e-57
-6.06743e-64
1.82215e-60
-1.55845e-57
1.81811e-60
-1.55524e-57
-4.48613e-59
9.04299e-56
-3.87572e-53
-5.82794e-59
9.05418e-56
-3.88188e-53
-5.98865e-59
9.04941e-56
-3.88098e-53
-4.9818e-59
9.04692e-56
-3.88094e-53
-2.75965e-59
9.04804e-56
-3.88242e-53
9.02883e-56
-3.87533e-53
-1.10809e-54
1.77346e-51
-4.97953e-49
-1.4873e-54
1.77428e-51
-4.98401e-49
-1.53665e-54
1.77281e-51
-4.98183e-49
-1.32079e-54
1.77205e-51
-4.98157e-49
-8.06149e-55
1.7722e-51
-4.98397e-49
1.76863e-51
-4.97642e-49
-1.726e-50
2.0232e-47
-4.12507e-45
-2.3045e-50
2.02239e-47
-4.12678e-45
-2.34395e-50
2.02016e-47
-4.12481e-45
-2.00806e-50
2.01919e-47
-4.12516e-45
-1.2606e-50
2.01961e-47
-4.12854e-45
2.01634e-47
-4.12515e-45
-2.92387e-46
2.55177e-43
-1.36194e-40
-3.67042e-46
2.55048e-43
-1.36349e-40
-3.513e-46
2.54657e-43
-1.3619e-40
-2.88776e-46
2.55166e-43
-1.36825e-40
-1.72628e-46
2.5781e-43
-1.39533e-40
2.52355e-43
-1.34142e-40
-4.41439e-41
3.3546e-38
-2.14614e-35
-4.8411e-41
3.36724e-38
-2.15892e-35
-3.97697e-41
3.36889e-38
-2.16196e-35
-2.77697e-41
3.39203e-38
-2.17832e-35
-1.38091e-41
3.47358e-38
-2.23203e-35
3.31989e-38
-2.13242e-35
-4.55374e-37
4.35618e-34
-1.95326e-31
-2.8625e-37
4.40084e-34
-1.9787e-31
6.08363e-40
4.41621e-34
-1.98714e-31
2.13229e-37
4.45435e-34
-2.0048e-31
2.44213e-37
4.56431e-34
-2.05372e-31
4.35624e-34
-1.95882e-31
-2.37299e-34
1.13942e-30
-3.48494e-28
1.18268e-33
1.15932e-30
-3.55549e-28
2.60806e-33
1.1652e-30
-3.57428e-28
3.29038e-33
1.17458e-30
-3.60086e-28
2.69487e-33
1.1999e-30
-3.67312e-28
1.13869e-30
-3.47876e-28
6.31225e-31
4.27398e-28
-8.99445e-26
1.6157e-30
4.38109e-28
-9.23643e-26
2.3149e-30
4.38742e-28
-9.23955e-26
2.50447e-30
4.38653e-28
-9.21863e-26
1.90906e-30
4.42273e-28
-9.26257e-26
4.12014e-28
-8.58836e-26
6.64201e-33
1.70204e-30
2.4082e-31
9.7589e-33
1.73729e-30
2.45185e-31
1.04962e-32
1.74233e-30
2.47485e-31
9.33463e-33
1.74664e-30
2.50567e-31
6.05707e-33
1.76629e-30
2.56851e-31
1.67216e-30
2.47508e-31
4.33344e-31
1.30679e-28
1.0449e-28
3.65397e-31
1.31179e-28
1.05292e-28
1.43012e-31
1.31539e-28
1.05694e-28
-7.36589e-32
1.31989e-28
1.0606e-28
-1.86495e-31
1.32615e-28
1.06546e-28
1.33191e-28
1.07007e-28
-1.87101e-28
8.02773e-26
-3.42564e-28
8.06337e-26
-4.39029e-28
8.0722e-26
-4.37742e-28
8.0763e-26
-3.33419e-28
8.08611e-26
8.07723e-26
-3.11672e-61
7.84477e-58
-4.76707e-55
-4.00922e-61
7.85818e-58
-4.77633e-55
-3.82705e-61
7.85609e-58
-4.77574e-55
-2.7172e-61
7.8554e-58
-4.77582e-55
-1.05987e-61
7.85763e-58
-4.7774e-55
7.84149e-58
-4.76753e-55
-1.40837e-56
3.8918e-53
-1.17127e-50
-1.70503e-56
3.89779e-53
-1.17337e-50
-1.53554e-56
3.89652e-53
-1.17319e-50
-1.04472e-56
3.89611e-53
-1.17321e-50
-3.89662e-57
3.89724e-53
-1.17363e-50
3.88968e-53
-1.1714e-50
-3.47145e-52
7.39398e-49
-1.43188e-46
-3.97338e-52
7.40249e-49
-1.434e-46
-3.39472e-52
7.39917e-49
-1.43365e-46
-2.24678e-52
7.39804e-49
-1.43365e-46
-8.68718e-53
7.40031e-49
-1.43425e-46
7.38701e-49
-1.43178e-46
-4.66501e-48
8.0039e-45
-1.0969e-42
-4.92836e-48
8.00959e-45
-1.09835e-42
-3.81898e-48
8.00527e-45
-1.0981e-42
-2.19599e-48
8.00427e-45
-1.0982e-42
-6.43154e-49
8.00777e-45
-1.09885e-42
7.99597e-45
-1.09738e-42
-2.03201e-43
3.24916e-40
-2.43998e-37
-1.74776e-43
3.25103e-40
-2.4438e-37
-9.29621e-44
3.24568e-40
-2.44009e-37
-1.23384e-44
3.2591e-40
-2.45227e-37
3.32393e-44
3.32127e-40
-2.50654e-37
3.18951e-40
-2.39044e-37
-2.56729e-38
6.03282e-35
-3.1743e-32
-4.83376e-39
6.05002e-35
-3.18764e-32
2.23792e-38
6.04944e-35
-3.1881e-32
3.9555e-38
6.08884e-35
-3.20889e-32
3.68914e-38
6.23308e-35
-3.28364e-32
5.94839e-35
-3.13116e-32
2.366e-34
5.85045e-31
-2.1095e-28
7.25235e-34
5.88542e-31
-2.12551e-28
1.10873e-33
5.89452e-31
-2.12872e-28
1.22269e-33
5.93951e-31
-2.1441e-28
9.35425e-34
6.08199e-31
-2.19326e-28
5.803e-31
-2.08959e-28
2.47541e-30
1.10235e-27
-2.92356e-25
4.03072e-30
1.11182e-27
-2.95297e-25
4.70488e-30
1.11405e-27
-2.95708e-25
4.43857e-30
1.12226e-27
-2.97547e-25
3.0359e-30
1.14737e-27
-3.03569e-25
1.09207e-27
-2.8816e-25
1.98142e-27
4.93517e-25
-8.84318e-23
2.61702e-27
4.97634e-25
-8.91744e-23
2.5522e-27
4.97443e-25
-8.89668e-23
2.01825e-27
4.99589e-25
-8.91132e-23
1.1202e-27
5.08485e-25
-9.03469e-23
4.81389e-25
-8.51488e-23
2.66887e-26
7.91278e-24
-8.6798e-22
2.99106e-26
7.86155e-24
-8.21367e-22
2.31388e-26
7.58496e-24
-7.31712e-22
1.31085e-26
7.27116e-24
-6.2678e-22
4.07097e-27
6.99207e-24
-4.83188e-22
6.27052e-24
-3.34123e-22
9.71777e-29
2.17008e-25
2.61667e-25
-4.24056e-28
2.18294e-25
2.63757e-25
-9.75269e-28
2.17771e-25
2.63177e-25
-1.2571e-27
2.17104e-25
2.62236e-25
-1.03108e-27
2.16937e-25
2.62006e-25
2.11907e-25
2.55995e-25
-1.46088e-25
5.86642e-23
-2.30131e-25
5.88665e-23
-2.64621e-25
5.89033e-23
-2.33724e-25
5.88919e-23
-1.21717e-25
5.88829e-23
5.88074e-23
-3.13619e-59
1.49431e-55
-5.15077e-53
-4.05769e-59
1.49687e-55
-5.16084e-53
-3.17281e-59
1.49658e-55
-5.16027e-53
-1.47009e-59
1.4966e-55
-5.16041e-53
1.18413e-60
1.49719e-55
-5.16216e-53
1.49421e-55
-5.15145e-53
-1.76464e-54
7.33778e-51
-1.23069e-48
-1.61026e-54
7.34974e-51
-1.23303e-48
-8.05921e-55
7.34832e-51
-1.23289e-48
5.90105e-56
7.3486e-51
-1.23293e-48
5.49944e-55
7.35168e-51
-1.23336e-48
7.33798e-51
-1.23094e-48
-3.75686e-50
1.33526e-46
-1.40515e-44
-2.41866e-50
1.3372e-46
-1.40764e-44
-1.0457e-51
1.33694e-46
-1.40744e-44
1.88282e-50
1.33702e-46
-1.40747e-44
2.40257e-50
1.33765e-46
-1.40799e-44
1.33532e-46
-1.40536e-44
-2.51236e-46
1.34867e-42
-9.72809e-41
9.77068e-48
1.35041e-42
-9.74471e-41
3.43909e-46
1.35018e-42
-9.74363e-41
5.56637e-46
1.35038e-42
-9.74431e-41
5.11558e-46
1.35115e-42
-9.74851e-41
1.34909e-42
-9.7319e-41
4.74796e-41
3.72298e-37
-2.85218e-34
1.7657e-40
3.72667e-37
-2.8564e-34
2.84399e-40
3.72039e-37
-2.85142e-34
3.26281e-40
3.73865e-37
-2.86529e-34
2.6015e-40
3.82075e-37
-2.92836e-34
3.64243e-37
-2.78814e-34
4.13213e-35
6.02277e-32
-2.56816e-29
7.28259e-35
6.03561e-32
-2.57487e-29
8.99293e-35
6.03151e-32
-2.57258e-29
8.94308e-35
6.06835e-32
-2.58752e-29
6.45249e-35
6.20807e-32
-2.64532e-29
5.91873e-32
-2.52022e-29
6.86513e-31
5.66714e-28
-1.34174e-25
1.0335e-30
5.68591e-28
-1.34655e-25
1.14413e-30
5.68492e-28
-1.34576e-25
1.04749e-30
5.72197e-28
-1.35394e-25
7.05363e-31
5.85326e-28
-1.38368e-25
5.58144e-28
-1.31806e-25
1.71083e-27
1.26346e-24
-1.55985e-22
2.3082e-27
1.2688e-24
-1.56603e-22
2.30538e-27
1.26848e-24
-1.56454e-22
1.93465e-27
1.27647e-24
-1.57352e-22
1.18934e-27
1.30449e-24
-1.60615e-22
1.24288e-24
-1.52864e-22
6.84844e-25
6.84788e-22
-4.08804e-20
6.70761e-25
6.87481e-22
-4.09783e-20
4.1654e-25
6.86524e-22
-4.08937e-20
1.60116e-25
6.89936e-22
-4.10547e-20
-5.0507e-26
7.03635e-22
-4.1821e-20
6.69228e-22
-3.97584e-20
-1.02654e-23
1.2452e-19
-5.42762e-18
-1.10433e-22
1.24349e-19
-5.4054e-18
-2.1014e-22
1.23599e-19
-5.34835e-18
-2.31838e-22
1.23056e-19
-5.33915e-18
-2.10633e-22
1.18872e-19
-4.56566e-18
1.19925e-19
-5.23401e-18
-5.36152e-24
1.70932e-21
1.05629e-21
-6.99502e-24
1.71127e-21
1.05817e-21
-9.24734e-24
1.48162e-21
6.42307e-20
-7.30566e-24
1.69628e-21
1.05078e-21
-5.85481e-24
1.63007e-21
3.5958e-20
1.64729e-21
1.02201e-21
-1.61355e-25
1.4658e-22
-1.50792e-25
1.46875e-22
-1.40522e-25
1.45679e-22
-4.80301e-26
1.46566e-22
-2.32104e-25
1.66258e-21
1.45422e-22
-7.41841e-12
-1.24775e-06
3.10794e-08
1.53524e-11
-1.24776e-06
3.10783e-08
9.80804e-12
-1.24812e-06
3.10766e-08
-1.4225e-13
-1.24854e-06
3.10817e-08
1.73799e-11
-1.24867e-06
3.11001e-08
-1.24851e-06
3.10824e-08
9.51024e-12
1.40449e-14
7.29882e-08
5.38146e-12
1.53844e-14
7.29666e-08
-1.044e-12
1.57913e-14
7.29779e-08
-6.55673e-12
1.54401e-14
7.29801e-08
-9.58754e-12
1.53491e-14
7.29539e-08
1.57152e-14
7.29741e-08
-1.49959e-19
-1.42545e-16
-5.93124e-20
-1.56121e-16
4.38115e-21
-1.6025e-16
5.72924e-20
-1.56695e-16
1.58669e-19
-1.55774e-16
-1.59478e-16
5.03736e-12
-1.17619e-05
-6.58023e-09
-1.15807e-11
-1.17618e-05
-6.6097e-09
-3.54928e-11
-1.17623e-05
-6.59097e-09
-5.07758e-11
-1.17621e-05
-6.60721e-09
-4.83076e-11
-1.17608e-05
-6.65573e-09
-1.17618e-05
-6.58353e-09
5.01402e-11
8.62693e-14
2.1871e-07
-3.54244e-11
9.44919e-14
2.18738e-07
-9.08828e-11
9.69963e-14
2.18743e-07
-1.07542e-10
9.48383e-14
2.18726e-07
-1.47926e-10
9.42788e-14
2.18683e-07
9.65363e-14
2.18673e-07
-8.57225e-19
-8.26502e-16
-4.2719e-19
-9.05235e-16
-8.2006e-20
-9.29244e-16
2.88094e-19
-9.08619e-16
1.00389e-18
-9.03297e-16
-9.24842e-16
1.80943e-12
-1.47833e-07
-1.00266e-07
-4.39778e-14
-1.47818e-07
-1.0025e-07
-1.502e-12
-1.47748e-07
-1.0026e-07
-2.62411e-12
-1.47985e-07
-1.00278e-07
-3.14138e-12
-1.48255e-07
-1.0029e-07
-1.48019e-07
-1.00307e-07
1.08713e-12
5.21205e-13
-1.19657e-10
4.86375e-13
5.70899e-13
-1.10402e-10
1.6328e-13
5.86016e-13
-1.14575e-10
-4.38299e-13
5.72979e-13
-9.52352e-11
-1.9673e-12
5.69609e-13
-7.84919e-11
5.83204e-13
-1.23894e-10
-4.77972e-18
-1.65276e-14
-2.63242e-18
-1.81029e-14
-8.75373e-19
-1.85827e-14
1.34465e-18
-1.81696e-14
5.86987e-18
-1.80628e-14
-1.84942e-14
3.09066e-12
-4.51347e-07
-6.84844e-09
-1.37184e-11
-4.51177e-07
-6.82814e-09
-2.4658e-11
-4.51225e-07
-6.8452e-09
-2.97834e-11
-4.50886e-07
-6.86066e-09
-2.74755e-11
-4.50627e-07
-6.86938e-09
-4.51489e-07
-6.89917e-09
2.74679e-12
4.67947e-13
3.58639e-09
1.74976e-12
5.12536e-13
3.57322e-09
6.95306e-13
5.2609e-13
3.57844e-09
-7.48385e-13
5.14376e-13
3.55321e-09
-3.52365e-12
5.11347e-13
3.53211e-09
5.23524e-13
3.59504e-09
-5.22056e-18
-5.0216e-15
-2.92005e-18
-5.49956e-15
-1.5145e-18
-5.64489e-15
5.44682e-19
-5.51904e-15
5.7225e-18
-5.48633e-15
-5.61747e-15
-6.03767e-12
-5.44941e-07
4.68174e-08
-2.46647e-11
-5.44969e-07
4.68297e-08
-3.24711e-11
-5.44959e-07
4.68092e-08
-3.29606e-11
-5.44946e-07
4.67961e-08
-2.85532e-11
-5.44943e-07
4.67938e-08
-5.44842e-07
4.67631e-08
1.08207e-11
7.33623e-15
-1.02457e-09
5.67471e-12
8.04778e-15
-1.02381e-09
8.2684e-13
8.27627e-15
-1.02367e-09
-3.9715e-12
8.08761e-15
-1.02258e-09
-1.2174e-11
8.03289e-15
-1.02217e-09
8.06367e-15
-1.0231e-09
-7.38323e-20
9.25225e-22
-3.31507e-20
9.10805e-22
-1.2216e-20
9.20568e-22
1.93042e-20
9.27915e-22
1.09102e-19
9.22878e-22
9.59534e-22
3.63552e-14
-4.94186e-09
2.18225e-11
-7.84519e-14
-4.94481e-09
2.17891e-11
-1.54708e-13
-4.94453e-09
2.17604e-11
-2.00795e-13
-4.94306e-09
2.17567e-11
-3.89488e-13
-4.93888e-09
2.17534e-11
-4.93884e-09
2.16364e-11
5.01115e-14
1.4461e-19
4.05794e-18
2.57408e-14
1.42346e-19
4.04571e-18
1.22478e-14
1.43841e-19
4.0671e-18
-3.9807e-15
1.44964e-19
4.08011e-18
-3.24448e-14
1.44151e-19
4.08821e-18
1.49864e-19
4.10692e-18
-8.11565e-25
1.06674e-18
4.55969e-25
1.0535e-18
9.10324e-25
1.0624e-18
1.13757e-24
1.0691e-18
2.0473e-24
1.0646e-18
1.09795e-18
-1.03417e-15
1.2211e-16
4.39119e-14
-9.29277e-16
1.2175e-16
4.46097e-14
-9.13085e-16
1.22388e-16
4.45831e-14
-2.76107e-16
1.22789e-16
4.4806e-14
5.32181e-16
1.22999e-16
4.49355e-14
1.23618e-16
4.44985e-14
1.28828e-21
3.69056e-17
1.33299e-15
2.54791e-21
3.64477e-17
1.32893e-15
2.07103e-21
3.67536e-17
1.33473e-15
5.75935e-22
3.69822e-17
1.33853e-15
-3.93537e-21
3.68228e-17
1.33939e-15
3.79732e-17
1.34807e-15
-1.54076e-22
1.18624e-16
2.68471e-22
1.17758e-16
5.18811e-22
1.18376e-16
6.80257e-22
1.18849e-16
7.97655e-22
1.18651e-16
1.20766e-16
1.02836e-19
9.65896e-14
-4.82644e-16
9.72977e-20
9.61452e-14
-4.78503e-16
1.38977e-19
9.64281e-14
-4.7959e-16
8.00469e-20
9.66644e-14
-4.79858e-16
2.44531e-19
9.64042e-14
-4.78796e-16
9.77769e-14
-4.83174e-16
9.4652e-19
1.97042e-14
3.9969e-13
1.92385e-18
1.95928e-14
3.9794e-13
3.31924e-18
1.96715e-14
3.9906e-13
1.56956e-18
1.9728e-14
3.99959e-13
-1.54167e-18
1.9677e-14
3.98896e-13
1.99794e-14
4.0435e-13
5.3544e-20
-2.65328e-16
4.81385e-19
-2.64002e-16
7.16917e-19
-2.64641e-16
7.21501e-19
-2.65094e-16
7.18421e-19
-2.64332e-16
-2.6802e-16
2.84468e-10
1.56574e-12
6.57916e-05
3.94888e-10
1.55852e-12
6.57858e-05
2.27968e-10
1.56237e-12
6.57907e-05
-1.42955e-10
1.56528e-12
6.57944e-05
-1.65979e-09
1.55937e-12
6.58081e-05
1.58529e-12
6.57788e-05
-2.69334e-16
8.76101e-12
-2.16016e-12
-4.74271e-17
8.71868e-12
-2.14959e-12
1.03992e-16
8.74197e-12
-2.15522e-12
3.50642e-18
8.75797e-12
-2.1595e-12
-5.1515e-17
8.72881e-12
-2.15368e-12
8.85898e-12
-2.18329e-12
-9.98492e-17
-9.2794e-13
4.10465e-16
-9.23783e-13
6.37028e-16
-9.2596e-13
4.54044e-16
-9.27246e-13
3.53719e-16
-9.25416e-13
-9.35702e-13
1.13949e-08
0.000211012
0.00224279
3.67725e-09
0.000211006
0.00224279
1.32816e-08
0.000211021
0.0022428
1.93866e-08
0.000210995
0.00224282
-4.15098e-08
0.000210915
0.00224295
0.000211133
0.00224284
1.94935e-09
6.48706e-06
0.000204638
-1.22018e-09
6.48585e-06
0.000204639
-2.91334e-09
6.48725e-06
0.000204651
-3.39004e-09
6.48855e-06
0.000204623
-1.44434e-08
6.48701e-06
0.000204556
6.49168e-06
0.00020474
1.29711e-10
6.49261e-06
-1.02154e-11
6.49165e-06
-6.15103e-11
6.49288e-06
-1.02876e-10
6.49428e-06
-4.1349e-10
6.4932e-06
6.49656e-06
5.69345e-07
0.00856385
0.0737832
2.32754e-07
0.00856363
0.0737822
1.49521e-07
0.0085649
0.0737813
4.02725e-07
0.00856113
0.0737826
3.94336e-07
0.00855025
0.0737852
0.008579
0.0737825
8.72574e-08
0.000541943
0.00822433
-1.62123e-08
0.000541954
0.00822428
1.12599e-08
0.000542028
0.00822536
-5.94191e-08
0.00054204
0.00822165
-6.1857e-07
0.000541512
0.00821175
0.000543034
0.0082379
8.27643e-09
0.000512063
-7.03973e-10
0.000512084
-2.0187e-09
0.000512151
-5.84199e-09
0.000512165
-2.11545e-08
0.000511643
0.000513133
8.21923e-05
0.361807
1.24494
1.21265e-06
0.361856
1.24501
-0.00010648
0.361905
1.24505
1.53801e-05
0.361569
1.245
0.000280672
0.360696
1.24508
0.362869
1.24497
1.51291e-05
0.0210132
0.373898
-1.0387e-05
0.0210241
0.374037
-1.03881e-05
0.0210229
0.374089
-1.63159e-06
0.0210261
0.373601
-6.60671e-05
0.0210054
0.372545
0.0210678
0.375351
5.1287e-07
0.0151078
-1.14685e-08
0.0151164
-8.4366e-07
0.0151141
-5.38842e-07
0.0151227
3.65418e-06
0.0151187
0.0151329
4.0917e-20
7.53944e-17
6.14685e-17
-1.21038e-16
-2.26034e-20
7.53765e-17
6.55655e-17
-1.20572e-16
2.15951e-20
7.53025e-17
6.13313e-17
-1.20928e-16
-2.08241e-19
7.52051e-17
5.41456e-17
-1.20034e-16
-1.01691e-18
4.67037e-16
1.56311e-13
-1.74791e-13
7.95197e-17
5.76346e-17
-1.27446e-16
7.05919e-14
1.20879e-11
5.01785e-09
-5.03003e-09
3.13656e-14
1.22763e-11
5.06105e-09
-5.07328e-09
1.83108e-13
1.22515e-11
5.10464e-09
-5.11709e-09
3.18437e-14
1.34054e-11
5.38344e-09
-5.49266e-09
-7.11374e-13
1.04829e-11
5.93116e-09
-5.79774e-09
1.07887e-11
4.79122e-09
-4.80297e-09
-1.31378e-16
1.20066e-11
-1.3693e-113
-9.45912e-17
1.21932e-11
-2.52674e-109
5.02066e-17
1.2169e-11
-1.17691e-103
-3.88517e-11
5.18976e-11
-6.77468e-99
-3.83478e-16
-3.17003e-08
-6.59774e-83
1.0719e-11
-7.84366e-113
-2.16193e-11
3.80551e-07
-3.80533e-07
-2.27112e-11
3.78919e-07
-3.78921e-07
-6.99143e-11
3.82871e-07
-3.82832e-07
-9.69298e-12
3.79617e-07
-3.79687e-07
2.34316e-10
3.70489e-07
-3.70759e-07
3.92221e-07
-3.92021e-07
7.49982e-08
0.000226823
-0.000226512
8.42821e-09
0.000226563
-0.000226112
7.15666e-08
0.000226984
-0.000226659
3.52047e-08
0.000227706
-0.000227284
-2.48617e-07
0.000227222
-0.000226561
0.000226096
-0.000225948
1.13235e-06
-0.00253164
1.03721e-06
-0.00253754
2.59959e-06
-0.00253509
8.46037e-07
-0.00253916
-7.36886e-06
-0.00256126
-0.00251605
-7.36084e-10
7.61206e-05
-7.58758e-05
-2.91167e-08
7.62629e-05
-7.59898e-05
-4.88174e-08
7.61836e-05
-7.59268e-05
-2.87487e-08
7.62671e-05
-7.60408e-05
-1.07384e-07
7.65793e-05
-7.62427e-05
7.55791e-05
-7.54626e-05
8.66788e-07
0.0279087
-0.0547835
2.22234e-06
0.027952
-0.0548638
-2.87074e-06
0.0279383
-0.0548152
-3.02915e-06
0.0280053
-0.0549328
2.60279e-05
0.0280466
-0.0550711
0.0278528
-0.0544999
2.42998e-05
-0.171592
2.16351e-05
-0.171749
3.9769e-05
-0.171633
9.37861e-06
-0.171877
-9.02286e-05
-0.172459
-0.170941
1.19757e-07
-0.00797677
-0.0157008
6.99817e-07
-0.00800338
-0.0156402
-8.6401e-07
-0.00801839
-0.0156326
4.8503e-07
-0.00790859
-0.0158037
7.89703e-06
-0.00777444
-0.0160082
-0.00819844
-0.0154334
0.000104061
0.27595
-0.650857
6.67568e-05
0.276355
-0.651158
9.01589e-05
0.276081
-0.650746
8.0343e-06
0.276387
-0.650979
-7.383e-05
0.277181
-0.652731
0.275032
-0.648487
8.46159e-05
-0.235496
3.20682e-05
-0.236154
6.25839e-05
-0.235751
5.14004e-06
-0.235778
-0.000230523
-0.236378
-0.234539
4.78576e-05
0.244064
-0.539184
5.59414e-05
0.244171
-0.539096
0.00015257
0.244046
-0.539147
3.57266e-06
0.244181
-0.539298
-0.000306941
0.244861
-0.539987
0.24339
-0.53902
0.000190477
0.232286
-0.919505
7.92535e-05
0.2329
-0.919923
0.000161648
0.232507
-0.919525
-8.92802e-06
0.232552
-0.919529
-0.000436679
0.233158
-0.921056
0.231348
-0.917652
1.34412e-05
-0.0534869
-1.34833e-06
-0.0535913
-3.46588e-06
-0.0535361
-1.19999e-06
-0.0534761
-1.87003e-05
-0.053464
-0.0534955
5.05737e-05
0.61661
4.17383e-05
0.616814
0.000171568
0.616725
8.1886e-05
0.616672
-0.000776696
0.616889
0.616683
5.81621e-05
0.0460599
1.69848e-05
0.0461726
7.22036e-05
0.0461102
-4.81753e-06
0.0460386
-0.000226321
0.0460229
0.0460559
2.2391e-06
-8.80139e-07
-3.06214e-06
1.52574e-07
7.10005e-06
2.87587e-58
-1.04309e-54
9.04848e-54
-4.69949e-58
-1.04527e-54
9.0659e-54
-4.22603e-58
-1.04525e-54
9.06528e-54
-4.35154e-59
-1.04529e-54
9.06599e-54
1.15573e-58
-1.04559e-54
9.06974e-54
-1.04333e-54
9.0514e-54
9.17389e-60
-4.56796e-58
9.92977e-56
-2.50185e-60
-4.57803e-58
9.95029e-56
-5.79533e-60
-4.57789e-58
9.95046e-56
-6.4502e-60
-4.57809e-58
9.9512e-56
-8.49004e-60
-4.57947e-58
9.95446e-56
-4.56919e-58
9.93321e-56
-6.01368e-64
1.24571e-59
-2.24736e-63
1.24844e-59
-2.54045e-63
1.24845e-59
-2.91876e-63
1.24855e-59
-3.56938e-63
1.24898e-59
1.24619e-59
-1.85093e-53
-5.06919e-50
4.30091e-49
-4.58571e-54
-5.07948e-50
4.30936e-49
2.91592e-53
-5.07945e-50
4.30922e-49
5.20674e-53
-5.07965e-50
4.30975e-49
4.64172e-53
-5.08099e-50
4.31161e-49
-5.07067e-50
4.30331e-49
2.22909e-55
-2.56366e-53
9.61067e-51
2.15094e-55
-2.56913e-53
9.63037e-51
4.43842e-55
-2.56907e-53
9.6308e-51
4.68044e-55
-2.56917e-53
9.63171e-51
9.16917e-56
-2.56987e-53