/*--------------------------------*- C++ -*----------------------------------*\
| =========                 |                                                 |
| \\      /  F ield         | OpenFOAM: The Open Source CFD Toolbox           |
|  \\    /   O peration     | Version:  v1612+                                |
|   \\  /    A nd           | Web:      www.OpenFOAM.com                      |
|    \\/     M anipulation  |                                                 |
\*---------------------------------------------------------------------------*/
FoamFile
{
    version     2.0;
    format      ascii;
    class       surfaceScalarField;
    location    "2.7";
    object      phi;
}
// * * * * * * * * * * * * * * * * * * * * * * * * * * * * * * * * * * * * * //

dimensions      [0 3 -1 0 0 0 0];

internalField   nonuniform List<scalar> 
2916
(
-7.33321e-06
0.539575
-0.539567
-2.9034e-06
0.539574
-0.539578
-4.48036e-06
0.539574
-0.539572
-7.89968e-06
0.539578
-0.539574
-2.17769e-06
0.539579
-0.539584
0.539569
-0.539571
-5.70531e-06
1.07453
-0.534949
-3.53094e-06
1.07453
-0.534962
-7.81115e-06
1.07453
-0.534956
-7.13827e-06
1.07454
-0.53496
4.46603e-06
1.07454
-0.534971
1.07453
-0.534955
-6.58096e-06
1.44996
-0.375423
-2.65235e-06
1.44997
-0.37544
-5.57324e-06
1.44997
-0.375434
-5.25002e-06
1.44997
-0.375435
5.61367e-06
1.44997
-0.375445
1.44996
-0.375429
-7.27074e-06
1.72176
-0.271792
-2.75318e-06
1.72177
-0.271808
-5.15905e-06
1.72178
-0.271802
-5.64033e-06
1.72178
-0.271803
3.66936e-06
1.72177
-0.271812
1.72176
-0.271795
-8.14596e-06
1.94436
-0.222591
-4.63837e-06
1.94438
-0.222605
-6.91264e-06
1.94438
-0.2226
-6.98101e-06
1.94438
-0.222601
2.23686e-06
1.94437
-0.222609
1.94436
-0.222593
-9.26126e-06
2.13016
-0.185793
-7.09398e-06
2.13018
-0.185805
-8.8519e-06
2.13018
-0.1858
-7.85278e-06
2.13018
-0.185802
1.36389e-06
2.13017
-0.185809
2.13015
-0.185794
-1.18069e-05
2.27201
-0.141834
-8.92197e-06
2.27202
-0.141845
-9.78376e-06
2.27202
-0.141841
-8.29086e-06
2.27202
-0.141842
5.62038e-07
2.27202
-0.14185
2.27199
-0.141836
-8.77589e-06
2.34399
-0.071978
-6.84737e-06
2.34401
-0.0719924
-6.63338e-06
2.34401
-0.0719879
-5.14454e-06
2.34401
-0.0719893
-4.45999e-07
2.34401
-0.0719965
2.34397
-0.0719838
-4.65768e-06
2.12437
0.219629
-1.70774e-06
2.12441
0.219601
-2.16594e-06
2.1244
0.21961
-2.69568e-06
2.1244
0.21961
-1.05817e-06
2.12441
0.2196
2.12435
0.219619
-3.16255e-06
1.4138
0.710571
3.37048e-06
1.41385
0.71055
3.00161e-06
1.41385
0.710553
9.93892e-07
1.41384
0.710555
-1.78116e-07
1.41386
0.710549
1.41379
0.710561
2.71418e-06
0.456885
0.956913
-1.69337e-06
0.456929
0.956927
1.53669e-06
0.456929
0.956914
2.86706e-06
0.456927
0.956914
-2.61511e-06
0.45695
0.956913
0.456882
0.956907
-3.48407e-05
0.456919
-2.72205e-05
0.456921
-1.72127e-05
0.456919
-6.52007e-06
0.456916
2.23262e-05
0.456921
0.456904
9.65255e-06
0.532697
-1.07227
-4.69825e-06
0.532691
-1.07226
-1.589e-05
0.5327
-1.07226
-3.15943e-06
0.532696
-1.07228
3.79122e-06
0.532691
-1.07228
0.532707
-1.07227
2.48345e-05
1.18305
-1.18532
-5.91934e-06
1.18306
-1.1853
-1.63868e-05
1.18305
-1.1853
-5.96767e-06
1.18306
-1.18533
-1.74026e-05
1.18307
-1.18533
1.18304
-1.18531
2.50914e-05
1.69126
-0.883664
-3.59498e-06
1.69129
-0.883646
-9.24145e-06
1.69128
-0.883651
-5.96203e-06
1.69128
-0.883662
-2.63787e-05
1.6913
-0.883661
1.69126
-0.883668
2.42007e-05
2.02782
-0.608371
1.78113e-06
2.02787
-0.608356
-1.05455e-06
2.02784
-0.608361
-1.39706e-06
2.02784
-0.608363
-2.27797e-05
2.02787
-0.60836
2.02782
-0.608377
2.24136e-05
2.31295
-0.507743
8.93382e-06
2.31301
-0.507739
1.02871e-05
2.31298
-0.507741
7.55987e-06
2.31298
-0.507738
-1.38456e-05
2.31302
-0.507732
2.31296
-0.507747
2.17894e-05
2.57559
-0.448464
1.56125e-05
2.57568
-0.448466
1.96029e-05
2.57564
-0.448469
1.45951e-05
2.57565
-0.448464
-3.44208e-06
2.57568
-0.448458
2.57562
-0.448467
2.54628e-05
2.87141
-0.437673
2.30881e-05
2.87153
-0.43769
2.88826e-05
2.87149
-0.43769
2.31967e-05
2.8715
-0.437685
6.17654e-06
2.87153
-0.43768
2.87147
-0.437679
2.90908e-05
3.24993
-0.450528
3.133e-05
3.25008
-0.450545
3.69418e-05
3.25003
-0.450537
3.02326e-05
3.25004
-0.450526
1.09552e-05
3.25007
-0.450515
3.25001
-0.45051
3.27237e-05
3.2349
0.234624
2.82674e-05
3.23506
0.234621
3.24652e-05
3.23501
0.234624
2.71213e-05
3.23502
0.234639
1.81835e-06
3.23504
0.234652
3.23498
0.234657
3.5454e-05
2.40023
1.5452
2.2304e-05
2.40041
1.54521
1.91037e-05
2.40036
1.54521
1.0052e-05
2.40036
1.54522
-2.11962e-05
2.40039
1.54523
2.4003
1.54522
4.29705e-05
1.14018
2.21693
1.61144e-05
1.14034
2.21702
1.43754e-05
1.1403
2.21698
9.38002e-06
1.1403
2.21699
-1.90072e-05
1.14033
2.21701
1.14022
2.21697
-6.92582e-05
1.59716
-2.19931e-05
1.59721
-4.36858e-06
1.5972
8.44351e-06
1.5972
4.9906e-05
1.59721
1.59717
-2.85962e-05
0.88626
-1.9585
-2.77693e-05
0.886257
-1.95851
-1.91162e-05
0.886283
-1.95855
6.43513e-05
0.886225
-1.95859
0.000135095
0.8862
-1.95855
0.886365
-1.9585
-5.956e-05
2.42791
-2.72691
-3.79082e-05
2.42788
-2.72694
2.04186e-05
2.42787
-2.72695
4.68223e-05
2.42784
-2.72697
3.04858e-05
2.42785
-2.72696
2.42793
-2.72684
-5.66544e-05
4.28578
-2.74148
-2.15487e-05
4.28573
-2.74153
2.65632e-05
4.28571
-2.74153
5.07742e-05
4.2857
-2.74154
5.13754e-05
4.28572
-2.74153
4.28577
-2.74146
-2.60626e-05
6.33224
-2.6548
4.24912e-05
6.33219
-2.65488
8.28084e-05
6.33219
-2.65488
0.000101065
6.33219
-2.65487
0.000114791
6.33221
-2.65487
6.33228
-2.65477
9.9174e-06
8.30234
-2.47786
0.000110667
8.30231
-2.47796
0.000154739
8.30235
-2.47795
0.000164276
8.30237
-2.47793
0.000185102
8.30238
-2.47792
8.3025
-2.47778
-2.91837e-06
10.1691
-2.31527
0.000116028
10.1691
-2.31539
0.000167469
10.1692
-2.31537
0.000172242
10.1692
-2.31534
0.000236514
10.1692
-2.31535
10.1694
-2.31514
2.73076e-06
11.3445
-1.61304
0.000124539
11.3445
-1.61318
0.000175068
11.3446
-1.61313
0.000161762
11.3446
-1.61306
0.000183861
11.3446
-1.61307
11.3448
-1.61287
3.81186e-05
10.3594
0.534538
9.67019e-05
10.3595
0.534376
0.000112172
10.3595
0.534516
5.97733e-05
10.3595
0.534664
-5.59166e-05
10.3594
0.53474
10.3596
0.534616
7.4117e-05
6.12875
4.46521
3.81425e-05
6.12896
4.4652
2.98061e-05
6.12892
4.46523
1.26512e-06
6.1289
4.46527
-0.000121983
6.12887
4.46535
6.12894
4.46521
-2.32442e-05
2.64993
5.02405
-3.37235e-05
2.65009
5.02409
-2.05069e-05
2.65005
5.02407
-2.21429e-05
2.65004
5.02408
-6.72323e-05
2.65006
5.02408
2.64999
5.0241
8.81481e-05
0.766636
4.10013
3.09622e-05
0.766757
4.10042
2.14479e-05
0.766723
4.10031
1.38004e-06
0.766717
4.10033
-6.5003e-05
0.766724
4.10041
0.766674
4.10021
-4.35952e-05
2.36384
-4.20327e-06
2.36393
5.48281e-06
2.36391
1.88415e-05
2.3639
2.5304e-05
2.36392
2.36387
-8.51479e-05
0.0492154
-2.00763
-2.57401e-05
0.0491877
-2.00775
2.40661e-05
0.0491814
-2.00778
4.80473e-05
0.0491639
-2.00778
8.36733e-05
0.0491642
-2.00775
0.0492293
-2.00765
-9.76023e-05
-0.352065
-2.32553
-3.84257e-05
-0.352174
-2.32564
1.93044e-05
-0.352206
-2.32562
2.33833e-05
-0.352206
-2.32561
3.41167e-05
-0.352184
-2.32562
-0.352108
-2.32547
-3.23066e-05
-1.04802
-2.0455
2.58544e-05
-1.04813
-2.04562
4.02929e-05
-1.04814
-2.04561
3.80492e-05
-1.04813
-2.04561
6.34964e-05
-1.04811
-2.04564
-1.04803
-2.04548
2.04203e-06
-1.40919
-2.29363
8.04654e-05
-1.40925
-2.29384
8.47832e-05
-1.4092
-2.29382
7.63135e-05
-1.40918
-2.29382
0.000116079
-1.40916
-2.29386
-1.40908
-2.29361
-0.000103268
-1.72475
-2.16219
-4.48994e-05
-1.72485
-2.16242
-2.69822e-05
-1.72477
-2.1624
8.191e-06
-1.72475
-2.16239
0.000124356
-1.72476
-2.16243
-1.72459
-2.16215
-0.000226912
-1.71373
-2.32606
-0.000201721
-1.71397
-2.32629
-0.000199377
-1.71385
-2.32628
-0.000149139
-1.71385
-2.32628
5.15158e-05
-1.71396
-2.32634
-1.71363
-2.32605
-0.000209143
-0.998025
-2.32854
-0.000186045
-0.998407
-2.32876
-0.000191656
-0.998229
-2.32874
-0.000180107
-0.998187
-2.32873
-7.08513e-05
-0.998332
-2.3288
-0.997961
-2.3286
1.88295e-05
1.6724
-2.1359
-7.68504e-05
1.67221
-2.13615
-0.000123234
1.67238
-2.13604
-0.00014399
1.67244
-2.13594
-0.000352172
1.67252
-2.1359
1.67234
-2.13604
3.00463e-05
4.12911
2.00847
-4.09872e-05
4.1292
2.00828
-5.06453e-05
4.12921
2.00841
-0.000104074
4.12924
2.00852
-0.000637821
4.12944
2.00896
4.12906
2.00785
0.000165979
2.80984
6.34315
0.000153673
2.80998
6.34333
0.000130392
2.80999
6.3433
9.05806e-05
2.81002
6.34334
-0.0001496
2.81017
6.34359
2.80988
6.34313
8.49195e-05
0.784471
6.12541
3.86663e-05
0.784652
6.12579
2.33542e-05
0.784648
6.12567
4.4379e-05
0.784607
6.12572
7.01501e-05
0.784681
6.12587
0.784578
6.12559
1.44677e-05
3.1483
6.53067e-06
3.14859
7.51039e-05
3.14849
2.83998e-05
3.14856
-0.000221151
3.14885
3.14823
-1.85606e-06
0.00277897
-0.00277711
-2.25752e-06
0.00277867
-0.00277704
-2.43818e-06
0.0027782
-0.002777
-2.1762e-06
0.00277767
-0.00277697
-1.38299e-06
0.00277709
-0.00277694
0.00277639
-0.00277683
-1.81446e-06
0.00564046
-0.00285889
-2.96809e-06
0.00563922
-0.00285757
-3.78949e-06
0.00563783
-0.00285723
-3.73765e-06
0.00563637
-0.00285723
-2.49672e-06
0.00563481
-0.00285747
0.00563287
-0.00285792
-2.36294e-06
0.00865695
-0.00301336
-5.29525e-06
0.00865321
-0.00300926
-7.45042e-06
0.00864971
-0.00300818
-7.7709e-06
0.00864636
-0.0030082
-5.52004e-06
0.00864291
-0.00300892
0.00863867
-0.00301029
-5.40292e-06
0.0119219
-0.00325872
-1.16474e-05
0.011913
-0.00325194
-1.57428e-05
0.0119058
-0.00325053
-1.61989e-05
0.0118994
-0.00325118
-1.16612e-05
0.0118931
-0.00325334
0.0118852
-0.00325719
-1.41159e-05
0.0155687
-0.00363197
-2.49837e-05
0.015551
-0.00362593
-3.05021e-05
0.0155387
-0.00362634
-2.97165e-05
0.0155291
-0.00362942
-2.0917e-05
0.0155203
-0.00363479
0.0155083
-0.00364311
-3.19791e-05
0.0196707
-0.00406943
-4.57576e-05
0.0196427
-0.00407731
-4.84996e-05
0.0196268
-0.00408486
-4.29228e-05
0.019617
-0.00409281
-2.84162e-05
0.0196086
-0.00410215
0.0195945
-0.00411417
-5.2136e-05
0.0239121
-0.00418909
-6.0996e-05
0.0238785
-0.00422732
-5.34634e-05
0.0238674
-0.00424821
-3.91523e-05
0.0238657
-0.00426309
-2.17439e-05
0.0238662
-0.00427513
0.0238581
-0.0042859
-4.85479e-05
0.0274892
-0.0035286
-3.66082e-05
0.0274576
-0.00359207
-1.10614e-05
0.0274597
-0.00361874
1.03957e-05
0.0274746
-0.0036313
1.71035e-05
0.0274928
-0.0036344
0.0275022
-0.00362838
-2.99219e-06
0.0300006
-0.00250896
4.50928e-05
0.0299844
-0.00257649
9.30889e-05
0.0300027
-0.00259244
0.000116282
0.0300368
-0.00258677
9.44471e-05
0.0300781
-0.00256498
0.0301207
-0.00252535
7.35599e-05
0.0292991
0.000627262
0.000161072
0.0293129
0.000582457
0.000221041
0.0293424
0.000598776
0.000234918
0.0293815
0.0006397
0.000176703
0.029432
0.000702738
0.0295027
0.00079376
0.00014643
0.0216354
0.00751657
0.000215482
0.0216484
0.00759451
0.000241156
0.0216598
0.00765585
0.000230528
0.0216734
0.00771748
0.000165653
0.0217013
0.00779449
0.0217629
0.00790485
4.75767e-05
0.0215872
3.60665e-05
0.0216592
1.48061e-05
0.0216807
-3.09557e-06
0.021691
-1.23942e-05
0.0217101
0.0217506
-1.85081e-06
0.00287778
-0.00565218
-2.27365e-06
0.00287687
-0.00565206
-2.29424e-06
0.00287611
-0.00565185
-1.85413e-06
0.00287545
-0.00565166
-9.79915e-07
0.00287488
-0.00565151
0.00287425
-0.00565128
-2.94379e-06
0.0058849
-0.00586175
-3.82256e-06
0.00588227
-0.00586029
-3.92752e-06
0.00588025
-0.00585967
-3.26669e-06
0.00587854
-0.00585943
-1.81611e-06
0.00587703
-0.00585956
0.00587533
-0.00586
-5.74282e-06
0.00912891
-0.00625028
-7.70542e-06
0.00912276
-0.00624591
-7.96152e-06
0.00911842
-0.00624442
-6.83876e-06
0.00911492
-0.00624411
-4.17761e-06
0.00911183
-0.00624482
0.00910828
-0.00624655
-1.09243e-05
0.0127036
-0.00682116
-1.46068e-05
0.0126908
-0.00681453
-1.48661e-05
0.0126826
-0.00681288
-1.27319e-05
0.0126765
-0.00681337
-8.00155e-06
0.0126712
-0.00681593
0.0126649
-0.00682089
-1.92961e-05
0.0166285
-0.00753646
-2.42796e-05
0.0166045
-0.00753337
-2.32054e-05
0.0165911
-0.0075347
-1.88929e-05
0.0165824
-0.00753834
-1.15509e-05
0.0165753
-0.00754477
0.0165659
-0.00755489
-2.80285e-05
0.0209633
-0.00837563
-3.07817e-05
0.0209217
-0.00839139
-2.51905e-05
0.0209036
-0.00840241
-1.72704e-05
0.0208953
-0.00841304
-9.05703e-06
0.0208906
-0.00842506
0.0208824
-0.00843988
-2.84392e-05
0.026365
-0.00956234
-1.83652e-05
0.0263008
-0.00961724
-1.07811e-06
0.0262822
-0.00964474
1.17994e-05
0.0262822
-0.00966342
1.3603e-05
0.0262903
-0.0096774
0.0262962
-0.00968721
-8.54045e-06
0.0328256
-0.00998148
3.18052e-05
0.0327549
-0.0100884
7.24776e-05
0.0327494
-0.0101284
9.16245e-05
0.0327727
-0.0101427
7.37748e-05
0.0328101
-0.0101381
0.0328516
-0.0101115
5.39563e-05
0.0366129
-0.00635141
0.000135807
0.0365652
-0.00647062
0.000195031
0.036581
-0.0064853
0.000211508
0.0366241
-0.00645677
0.000160062
0.0366856
-0.00639101
0.0367645
-0.0062791
0.000129048
0.0326084
0.00450132
0.000186842
0.0326003
0.00448797
0.000201523
0.0326401
0.00452359
0.000179832
0.0327043
0.00457962
0.000116194
0.032793
0.00465752
0.0329121
0.00476186
7.74164e-05
0.0223483
0.0176981
6.67916e-05
0.0223968
0.0178078
2.88778e-05
0.0224569
0.0178764
-8.53423e-06
0.0225258
0.017933
-2.90529e-05
0.0226097
0.0179977
0.0227106
0.0180776
-0.000102389
0.0440373
-0.000189619
0.0441427
-0.000244721
0.0441924
-0.000244962
0.0442169
-0.000187487
0.0442618
0.0442741
-1.15255e-06
0.00285253
-0.00850296
-1.48251e-06
0.0028519
-0.00850299
-1.41696e-06
0.00285145
-0.00850279
-1.00974e-06
0.00285111
-0.00850261
-4.00943e-07
0.00285093
-0.0085025
0.00285082
-0.00850222
-2.15906e-06
0.00588945
-0.00889573
-2.60746e-06
0.00588769
-0.00889472
-2.34875e-06
0.00588654
-0.0088942
-1.5995e-06
0.00588573
-0.00889401
-5.99683e-07
0.00588531
-0.00889418
0.00588509
-0.00889453
-4.39458e-06
0.00928752
-0.00964307
-5.02869e-06
0.00928342
-0.00963987
-4.2999e-06
0.00928112
-0.00963873
-2.84735e-06
0.00927973
-0.0096386
-1.10289e-06
0.00927915
-0.00963946
0.00927908
-0.00964116
-7.79057e-06
0.0132435
-0.0107684
-8.25344e-06
0.0132347
-0.0107642
-6.41663e-06
0.0132308
-0.0107633
-3.71025e-06
0.0132289
-0.0107643
-1.11328e-06
0.0132288
-0.0107671
0.0132297
-0.0107721
-1.14246e-05
0.0179695
-0.0122502
-9.9161e-06
0.0179524
-0.0122518
-5.33968e-06
0.017947
-0.0122547
-8.27392e-07
0.0179462
-0.0122593
1.70376e-06
0.0179488
-0.0122664
0.0179533
-0.0122766
-1.02333e-05
0.0234058
-0.0138013
-2.12944e-06
0.0233774
-0.0138247
8.53893e-06
0.023373
-0.0138392
1.52031e-05
0.023378
-0.0138516
1.39015e-05
0.0233891
-0.0138643
0.023404
-0.0138775
1.16287e-05
0.0281048
-0.0142733
3.53908e-05
0.0280682
-0.0143331
5.40339e-05
0.0280717
-0.0143634
5.91673e-05
0.0280912
-0.0143831
4.42337e-05
0.0281205
-0.0143955
0.0281585
-0.0143988
7.18296e-05
0.031124
-0.0130736
0.000116186
0.0310903
-0.0131569
0.000135657
0.0311095
-0.0131876
0.000127366
0.0311514
-0.0131966
8.54445e-05
0.031209
-0.0131865
0.0312837
-0.0131521
0.000142303
0.0345028
-0.00987392
0.000187695
0.0345029
-0.00993027
0.00018459
0.034554
-0.0099282
0.000146826
0.0346312
-0.00990016
8.1222e-05
0.0347288
-0.00984643
0.0348463
-0.00976067
0.00013809
0.03966
-0.000795141
0.000157506
0.0397351
-0.000764215
0.000128083
0.0398103
-0.00070367
7.75333e-05
0.039891
-0.000629901
2.65661e-05
0.0399752
-0.000537871
0.0400582
-0.00042314
1.34695e-05
0.0255155
0.0318289
-4.95803e-05
0.0256041
0.0320019
-0.00011787
0.025669
0.0320864
-0.000153657
0.0257243
0.0321358
-0.000130079
0.025767
0.0321828
0.0257904
0.032216
-0.000177254
0.0697305
-0.000280602
0.0698512
-0.000323354
0.0699052
-0.000286924
0.0699056
-0.000150064
0.0698932
0.0699147
-5.85605e-07
0.00266735
-0.0111695
-7.46165e-07
0.00266674
-0.0111697
-5.84682e-07
0.0026665
-0.0111695
-2.75475e-07
0.00266644
-0.0111694
1.49199e-08
0.00266656
-0.0111694
0.00266668
-0.011169
-1.36788e-06
0.0055776
-0.0118044
-1.24457e-06
0.00557603
-0.0118041
-6.28881e-07
0.00557552
-0.0118038
3.5987e-08
0.00557553
-0.0118037
4.18596e-07
0.00557593
-0.0118039
0.0055764
-0.0118039
-2.5634e-06
0.00900216
-0.0130647
-1.66145e-06
0.00899899
-0.0130634
-9.38393e-08
0.00899838
-0.0130628
1.25618e-06
0.00899884
-0.013063
1.61782e-06
0.00900008
-0.0130637
0.00900148
-0.0130645
-2.52874e-06
0.0132616
-0.0150248
3.26255e-08
0.0132561
-0.0150234
3.33583e-06
0.0132558
-0.0150236
5.44711e-06
0.0132577
-0.0150248
5.01712e-06
0.013261
-0.0150272
0.0132646
-0.0150301
2.28176e-06
0.0187565
-0.017747
8.8132e-06
0.0187482
-0.0177502
1.43233e-05
0.0187497
-0.0177539
1.64027e-05
0.0187551
-0.0177586
1.28128e-05
0.0187628
-0.0177645
0.0187712
-0.0177709
1.80217e-05
0.0264425
-0.0215053
3.19072e-05
0.0264321
-0.0215231
3.95726e-05
0.0264378
-0.0215356
3.92131e-05
0.0264502
-0.0215471
2.77084e-05
0.0264671
-0.0215581
0.026487
-0.0215667
4.69047e-05
0.0388581
-0.0267365
7.08441e-05
0.0388531
-0.0267798
7.88111e-05
0.0388685
-0.0268037
7.19724e-05
0.0388933
-0.026821
4.75572e-05
0.0389262
-0.0268319
0.0389678
-0.0268328
7.77587e-05
0.0567536
-0.0310484
0.000104988
0.056778
-0.031111
0.000105403
0.0568139
-0.0311351
8.83888e-05
0.0568558
-0.0311435
5.34883e-05
0.056908
-0.0311343
0.056972
-0.0311029
7.86214e-05
0.0763061
-0.0295064
7.7546e-05
0.0763882
-0.0295402
4.91382e-05
0.0764426
-0.0295289
1.99093e-05
0.0764839
-0.0294991
-4.70644e-06
0.0765296
-0.0294434
0.0765738
-0.0293669
-5.42323e-06
0.0870961
-0.01158
-7.64867e-05
0.0872232
-0.0115278
-0.000148999
0.0872681
-0.0114561
-0.000171458
0.0872737
-0.0113968
-0.000155078
0.0872786
-0.0113025
0.0872386
-0.0112423
-0.000230283
0.0732703
0.0458856
-0.000347228
0.0733673
0.0459762
-0.000401677
0.0733725
0.0460378
-0.000330523
0.0733139
0.0460255
-0.000262372
0.0732979
0.0460964
0.0731804
0.0460129
-0.00016301
0.143164
-0.000155876
0.143212
-0.000142882
0.143265
-5.71616e-05
0.143134
-0.000226735
0.143361
0.142868
-6.27875e-06
-2.04475
0.0371283
1.88793e-05
-2.04489
0.0371115
1.12454e-05
-2.04488
0.03711
-1.26617e-06
-2.04487
0.037105
1.75304e-05
-2.04488
0.0371069
-2.04476
0.0371213
2.65082e-05
-2.09546
0.0506819
1.45613e-05
-2.09556
0.050682
-3.12888e-06
-2.09554
0.0506787
-1.83872e-05
-2.09553
0.0506787
-2.71419e-05
-2.09555
0.0506791
-2.09545
0.0506627
2.2404e-05
0.0214912
7.75319e-06
0.0214895
-1.0221e-06
0.0214894
-8.17378e-06
0.0214904
-2.15473e-05
0.0214909
0.0214886
1.41537e-06
-2.21613
-0.072274
-1.34142e-06
-2.21623
-0.0722934
-4.18891e-06
-2.21621
-0.0722983
-5.8269e-06
-2.2162
-0.0723078
-5.86989e-06
-2.21621
-0.0723076
-2.21607
-0.0722869
1.0208e-05
-2.22225
0.0567896
-6.04533e-06
-2.22234
0.056805
-1.67471e-05
-2.22232
0.0568013
-2.02689e-05
-2.22232
0.0567997
-2.84049e-05
-2.22233
0.0568016
-2.22221
0.0567792
2.19465e-05
0.0224334
9.52251e-06
0.0224332
1.26407e-06
0.0224334
-7.43515e-06
0.0224345
-2.37872e-05
0.0224356
0.0224329
2.49409e-05
-2.01098
-0.106815
6.51963e-07
-2.0111
-0.106796
-1.82245e-05
-2.01108
-0.106813
-3.30656e-05
-2.01108
-0.106827
-4.12927e-05
-2.01111
-0.106832
-2.01094
-0.10686
1.85022e-05
-2.06677
0.112562
8.87572e-06
-2.06686
0.112578
3.57041e-06
-2.06685
0.112576
-6.33828e-06
-2.06685
0.112577
-3.16145e-05
-2.06686
0.112582
-2.06675
0.112562
1.88906e-05
0.0658826
9.14735e-06
0.0658833
2.63645e-06
0.0658843
-5.27261e-06
0.0658852
-2.11773e-05
0.0658863
0.0658842
6.15798e-06
-2.41628
0.0158276
-2.45402e-05
-2.41646
0.015857
-4.72279e-05
-2.41644
0.0158328
-5.89779e-05
-2.41645
0.0158142
-5.40751e-05
-2.4165
0.0158049
-2.41627
0.0157561
4.20953e-05
-2.35035
0.04659
2.79418e-05
-2.35047
0.0466007
1.24152e-05
-2.35045
0.0466024
-9.58938e-06
-2.35046
0.0466059
-5.20091e-05
-2.35048
0.0466076
-2.35037
0.0466006
2.6259e-05
0.0258839
1.31708e-05
0.0258827
6.60396e-06
0.0258821
-2.5558e-06
0.0258814
-2.57389e-05
0.0258806
0.0258816
-7.8074e-06
-2.26206
0.115711
-5.27182e-05
-2.26226
0.115745
-7.16981e-05
-2.26225
0.115703
-7.44063e-05
-2.26225
0.115678
-6.85976e-05
-2.2623
0.115677
-2.26207
0.11561
4.53727e-05
-2.19799
-0.017523
2.39416e-05
-2.19811
-0.0175227
3.5606e-06
-2.19811
-0.0175185
-1.68142e-05
-2.19811
-0.0175133
-5.11148e-05
-2.19814
-0.0175181
-2.19802
-0.0175018
2.23017e-05
-0.0139386
8.97562e-06
-0.0139403
3.16861e-06
-0.0139434
-5.33888e-06
-0.0139459
-2.97831e-05
-0.0139487
-0.0139494
1.0689e-05
-2.35351
0.143154
-1.26881e-05
-2.35369
0.143166
-2.86001e-05
-2.35368
0.14312
-3.92514e-05
-2.35369
0.143097
-8.05519e-05
-2.35374
0.143116
-2.35354
0.143024
4.23362e-05
-2.29166
-0.0794112
2.17563e-05
-2.29178
-0.0794118
1.00048e-05
-2.29177
-0.0794149
-3.78828e-06
-2.29178
-0.0794093
-2.78222e-05
-2.2918
-0.0794299
-2.29168
-0.0793926
1.31257e-05
-0.0618778
-6.95669e-06
-0.0618794
-1.39828e-05
-0.0618831
-1.76763e-05
-0.0618888
-3.10734e-05
-0.0618953
-0.0618991
-8.25246e-05
-2.14623
-0.0390668
-7.27278e-05
-2.14636
-0.0392446
-6.98891e-05
-2.14637
-0.039254
-1.78435e-05
-2.14638
-0.0393103
4.94515e-05
-2.14642
-0.0393422
-2.14626
-0.0392762
-1.91283e-05
-2.18271
-0.0429123
-4.08407e-05
-2.18279
-0.0429646
-3.3502e-05
-2.18278
-0.04301
-7.53578e-06
-2.18279
-0.0430235
6.3025e-05
-2.18279
-0.0431286
-2.1827
-0.0428823
9.95028e-06
-0.00789889
-1.67036e-05
-0.00787471
-3.19742e-05
-0.00789405
-4.1621e-05
-0.00791199
-4.88865e-05
-0.00792464
-0.0079635
-5.71469e-05
-2.43855
0.263641
-5.11346e-05
-2.43873
0.263328
-7.48528e-05
-2.43872
0.263444
-4.38632e-05
-2.43869
0.263406
-0.000132706
-2.43871
0.263556
-2.43856
0.263119
-2.52805e-05
-2.22934
-0.2521
-4.98051e-05
-2.22943
-0.252241
-8.47764e-05
-2.22942
-0.252269
-4.2796e-05
-2.22943
-0.252324
3.74847e-05
-2.22947
-0.25245
-2.22927
-0.252135
-5.99101e-06
0.0455405
-5.89276e-05
0.0455666
-8.42462e-05
0.0455072
-8.22542e-05
0.0454644
-8.61546e-05
0.045461
0.0453992
0.000101966
-0.928169
3.20017
0.00014992
-0.928506
3.20007
9.23456e-05
-0.928285
3.20019
-4.16736e-05
-0.928121
3.20018
-0.000589852
-0.927563
3.20062
-0.929054
3.19943
0.000155357
-2.48062
1.30019
2.92647e-05
-2.48082
1.3002
-5.90206e-05
-2.48064
1.30018
7.20765e-06
-2.48057
1.30006
4.69878e-05
-2.48036
1.30031
-2.48081
1.29967
2.28487e-05
0.26356
-0.000108517
0.263616
-0.000171625
0.26356
-0.000117278
0.263454
-9.36932e-05
0.263685
0.263047
0.000132203
5.10059
4.4426
7.46426e-05
5.10067
4.44278
0.000198333
5.10058
4.44279
0.000279615
5.10066
4.44278
-0.000396008
5.10172
4.44317
5.0995
4.44266
0.000242292
2.21374
4.1868
-0.000134612
2.21384
4.1874
-0.000357013
2.21383
4.18715
-0.000410638
2.21382
4.18694
-0.00189047
2.21535
4.18815
2.21185
4.18543
0.000557162
2.48791
-6.02115e-05
2.48901
-0.000296142
2.48839
-0.000477578
2.4883
-0.00197835
2.48994
2.48586
0.00037436
6.96168
3.60596
0.000196706
6.96221
3.60654
0.000125683
6.96203
3.60651
0.000285266
6.96215
3.6062
0.000430402
6.96301
3.60589
6.96121
3.60747
0.000513732
6.3483
4.79966
-3.02904e-05
6.34861
4.80154
0.000155083
6.34857
4.80042
-0.00028967
6.34876
4.80078
-0.00377805
6.34939
4.80525
6.34885
4.79401
0.000617496
4.64423
-8.19464e-05
4.64642
-0.000175123
4.64512
-0.000490338
4.64525
-0.00183977
4.6485
4.64063
0.00017493
3.99375
2.76033
6.6382e-06
3.99459
2.76071
-0.000236241
3.99453
2.76071
3.87488e-05
3.99379
2.76069
0.000689958
3.99239
2.7617
3.99658
2.7598
0.00054873
4.95206
3.8408
-0.000365514
4.95439
3.84266
-0.000352364
4.95304
3.84191
-3.14172e-05
4.95217
3.84208
-0.00247158
4.95535
3.84474
4.94953
3.83858
0.000185379
5.5876
2.93169e-05
5.58943
-0.000281883
5.58832
-0.000222092
5.58848
0.00141438
5.5919
5.5833
8.68628e-05
0.154476
0.0905451
-0.245108
-3.93639e-05
0.154594
0.0905439
-0.245013
5.11673e-05
0.154653
0.0902957
-0.24504
-7.10667e-05
0.15461
0.0904121
-0.244901
-0.00201013
0.15612
0.0900499
-0.244231
0.153332
0.0903013
-0.245643
0.00088707
0.125712
0.973189
-0.945312
0.000400514
0.126631
0.974175
-0.945727
0.00227126
0.125234
0.973401
-0.945854
0.000368178
0.128538
0.973389
-0.945415
-0.00955101
0.136573
0.978853
-0.949387
0.116987
0.96884
-0.942048
-0.000367877
0.00944011
-0.223699
-0.000238845
0.00808758
-0.2238
0.000165345
0.00909127
-0.223952
-0.000261478
0.0067796
-0.223466
-0.000989836
0.00293084
-0.225599
0.0131447
-0.222084
-0.000339077
0.120798
-0.0299143
-0.000356138
0.120458
-0.0298997
-0.00102786
0.121367
-0.0304025
-0.000143756
0.11966
-0.0301349
0.00342108
0.116561
-0.030078
0.124827
-0.031106
0.000800253
1.39368
-0.300497
0.00010649
1.39457
-0.299247
0.000701216
1.39445
-0.300278
0.000347527
1.39422
-0.300817
-0.00205972
1.39693
-0.299113
1.39215
-0.300538
0.000916948
-1.85369
0.000820104
-1.85583
0.0019811
-1.85453
0.000669343
-1.85664
-0.00539094
-1.86543
-1.84531
-0.000127111
0.180601
-0.210389
-0.000597324
0.180563
-0.20999
-0.000942509
0.18036
-0.210418
-0.00052331
0.179881
-0.210437
-0.00195156
0.180982
-0.209634
0.178881
-0.21194
0.000126528
1.8356
-1.95563
0.000309351
1.83646
-1.95533
-0.000353368
1.83603
-1.95529
-0.000411138
1.83611
-1.95699
0.00308999
1.8381
-1.95973
1.83401
-1.95258
0.000812371
-4.37804
0.000690045
-4.37971
0.00123939
-4.37899
0.00028678
-4.38
-0.00282327
-4.38621
-4.37358
2.38825e-05
-0.0477382
-0.162676
9.03018e-05
-0.0479041
-0.162154
-9.17095e-05
-0.0480004
-0.162236
5.73551e-05
-0.0473161
-0.163271
0.000879428
-0.0464101
-0.164046
-0.0491853
-0.161875
0.000593327
1.56407
-3.56803
0.000346846
1.56561
-3.56859
0.000490353
1.56482
-3.56825
4.0314e-05
1.56492
-3.56878
-0.000576188
1.56641
-3.57194
1.56305
-3.56538
0.00110039
-5.49059
0.000379995
-5.49185
0.000757847
-5.49158
5.92831e-05
-5.49178
-0.00297642
-5.49546
-5.48855
0.000151928
1.12032
-1.28315
0.00016863
1.12085
-1.28302
0.000448131
1.12054
-1.28305
2.09295e-05
1.12069
-1.28354
-0.00091976
1.12218
-1.28529
1.11894
-1.28174
0.000621444
1.24325
-3.69159
0.000248825
1.24585
-3.69322
0.00051648
1.24446
-3.69244
-4.17909e-05
1.24467
-3.6922
-0.00148636
1.24668
-3.69499
1.24122
-3.68915
0.000717464
-5.62212
-7.09742e-05
-5.6232
-0.000184457
-5.62267
-2.75788e-05
-5.62319
-0.000849281
-5.62661
-5.6185
0.000105499
1.47708
9.65824e-05
1.4777
0.000376439
1.47738
0.000196643
1.47733
-0.00164072
1.47825
1.47643
0.000364451
1.62593
0.000100395
1.62741
0.000478675
1.62647
-2.83451e-05
1.62772
-0.00160902
1.62957
1.62425
0.000354217
-0.000122755
-0.000506189
4.48628e-05
0.00145825
4.01786e-08
-0.0131332
0.00196355
-1.12709e-07
-0.0131337
0.00196353
-9.6521e-08
-0.0131337
0.00196359
-9.14906e-09
-0.0131337
0.00196367
3.08245e-08
-0.0131337
0.00196381
-0.0131332
0.00196385
1.04151e-07
-0.014385
0.00125135
-3.20283e-08
-0.0143856
0.00125137
-6.86702e-08
-0.0143856
0.00125141
-7.279e-08
-0.0143856
0.00125146
-9.46188e-08
-0.0143856
0.00125152
-0.014385
0.0012515
-1.86171e-08
0.000391425
-6.78194e-08
0.000391439
-7.56655e-08
0.000391452
-8.56051e-08
0.000391467
-1.03726e-07
0.000391486
0.000391475
-1.91837e-07
-0.0139694
0.00412837
-4.95613e-08
-0.0139699
0.00412852
2.78934e-07
-0.0139698
0.00412877
5.0476e-07
-0.0139698
0.00412911
4.57232e-07
-0.0139699
0.00412949
-0.0139695
0.00412966
5.96461e-08
-0.0153706
0.00265191
6.32424e-08
-0.0153712
0.00265205
1.29721e-07
-0.0153712
0.00265218
1.39802e-07
-0.0153713
0.00265233
4.01143e-08
-0.0153713
0.00265249
-0.0153707
0.0026525
-1.09959e-08
0.000755391
-1.78702e-08
0.000755437
-7.79764e-09
0.000755474
-2.30974e-08
0.000755518
-6.99295e-08
0.000755561
0.000755559
-8.50723e-08
-0.0156758
0.00673942
7.81073e-07
-0.0156761
0.00674013
1.69635e-06
-0.0156761
0.00674091
2.13383e-06
-0.0156763
0.00674182
1.70982e-06
-0.0156767
0.00674271
-0.0156765
0.00674313
2.83995e-07
-0.0174714
0.00444695
5.75654e-07
-0.0174721
0.0044473
8.00215e-07
-0.0174722
0.0044476
7.96546e-07
-0.0174723
0.00444795
4.8068e-07
-0.0174725
0.00444826
-0.017472
0.00444832
7.22448e-08
0.000989126
1.38565e-07
0.000989207
1.82555e-07
0.000989288
1.54128e-07
0.000989385
4.74909e-08
0.000989472
0.000989506
1.6615e-06
-0.0183665
0.0100796
3.98479e-06
-0.0183672
0.0100815
5.65269e-06
-0.0183677
0.0100832
6.03331e-06
-0.0183685
0.010085
4.46743e-06
-0.0183695
0.0100865
-0.0183698
0.0100871
1.01176e-06
-0.0210515
0.00713074
1.85794e-06
-0.0210525
0.00713145
2.32052e-06
-0.0210529
0.00713204
2.20901e-06
-0.0210534
0.00713265
1.40903e-06
-0.0210538
0.00713315
-0.0210534
0.00713318
2.55067e-07
0.000792982
4.69995e-07
0.000793111
5.82237e-07
0.000793254
5.24044e-07
0.000793421
3.06482e-07
0.000793541
0.000793605
7.49772e-06
-0.0220116
0.0143367
1.19713e-05
-0.0220137
0.0143402
1.39308e-05
-0.0220156
0.0143427
1.31025e-05
-0.0220179
0.0143448
8.79899e-06
-0.0220203
0.0143461
-0.0220215
0.0143459
2.85241e-06
-0.0267475
0.0118635
4.57669e-06
-0.0267491
0.0118648
5.22442e-06
-0.0267502
0.0118656
4.67031e-06
-0.0267514
0.0118663
2.83003e-06
-0.0267525
0.0118667
-0.0267523
0.0118664
6.57823e-07
-0.000562444
1.11737e-06
-0.000562364
1.33008e-06
-0.000562314
1.15304e-06
-0.000562183
7.05808e-07
-0.000562236
-0.000562127
1.81619e-05
-0.0265466
0.0193595
2.42108e-05
-0.0265535
0.0193636
2.42976e-05
-0.0265585
0.0193646
1.99218e-05
-0.0265634
0.0193644
1.14798e-05
-0.0265677
0.0193629
-0.0265698
0.0193597
6.54411e-06
-0.0356756
0.0209855
9.00911e-06
-0.0356788
0.020987
9.11088e-06
-0.035681
0.0209873
7.3745e-06
-0.0356833
0.020987
3.77406e-06
-0.0356851
0.0209868
-0.0356849
0.0209849
1.28663e-06
-0.00429691
1.88785e-06
-0.00429707
2.11405e-06
-0.00429757
1.50884e-06
-0.0042975
9.05011e-07
-0.00429827
-0.00429786
2.94534e-05
-0.0321535
0.024746
3.2358e-05
-0.0321681
0.0247474
2.59227e-05
-0.0321768
0.0247428
1.56183e-05
-0.0321837
0.0247359
5.30413e-06
-0.0321879
0.0247281
-0.0321873
0.0247194
1.03313e-05
-0.0496118
0.0384327
1.22691e-05
-0.0496169
0.038433
9.9439e-06
-0.0496199
0.038432
6.8192e-06
-0.0496223
0.0384281
1.54825e-06
-0.049624
0.0384278
-0.0496224
0.0384217
1.15031e-06
-0.0126077
1.13822e-06
-0.0126084
1.26967e-06
-0.0126105
3.11905e-07
-0.0126102
4.90755e-07
-0.0126128
-0.0126117
2.6866e-05
-0.0391433
0.0328128
1.64311e-05
-0.039161
0.0328067
-2.27289e-06
-0.0391678
0.0327933
-1.82961e-05
-0.0391702
0.0327782
-2.21148e-05
-0.039167
0.0327645
-0.0391565
0.0327509
8.22701e-06
-0.071104
0.0703846
7.12391e-06
-0.0711098
0.0703827
2.65223e-08
-0.0711115
0.0703828
-2.8415e-06
-0.0711107
0.0703717
-1.04223e-05
-0.0711099
0.0703786
-0.0711042
0.0703587
-1.12677e-06
-0.0272613
-3.48531e-06
-0.0272634
-3.61009e-06
-0.0272694
-5.1191e-06
-0.0272674
-2.86495e-06
-0.0272746
-0.0272724
-9.68794e-06
-0.0468916
0.0502071
-4.1804e-05
-0.0468988
0.0501975
-7.10348e-05
-0.0468919
0.0501856
-8.31478e-05
-0.0468813
0.0501727
-6.77854e-05
-0.0468628
0.0501686