/*--------------------------------*- C++ -*----------------------------------*\
| =========                 |                                                 |
| \\      /  F ield         | OpenFOAM: The Open Source CFD Toolbox           |
|  \\    /   O peration     | Version:  v1612+                                |
|   \\  /    A nd           | Web:      www.OpenFOAM.com                      |
|    \\/     M anipulation  |                                                 |
\*---------------------------------------------------------------------------*/
FoamFile
{
    version     2.0;
    format      ascii;
    class       volScalarField;
    location    "3.7";
    object      p_rgh;
}
// * * * * * * * * * * * * * * * * * * * * * * * * * * * * * * * * * * * * * //

dimensions      [1 -1 -2 0 0 0 0];

internalField   nonuniform List<scalar> 
1116
(
6480.36
6480.33
6480.35
6480.35
6480.34
6480.37
6352.45
6352.41
6352.42
6352.45
6352.44
6352.43
6690.16
6690.13
6690.14
6690.16
6690.16
6690.14
7325.11
7325.09
7325.1
7325.12
7325.12
7325.1
7979.1
7979.08
7979.09
7979.1
7979.11
7979.1
8724.21
8724.2
8724.21
8724.22
8724.22
8724.22
9770.12
9770.08
9770.08
9770.08
9770.07
9770.11
11715.2
11715.2
11715.2
11715.2
11715.2
11715.2
14466.8
14466.8
14466.8
14466.8
14466.7
14466.8
18535.4
18535.3
18535.3
18535.3
18535.3
18535.3
21705
21704.8
21704.9
21704.9
21704.8
21704.9
23965.7
23965.6
23965.6
23965.6
23965.6
23965.7
162.105
162.046
162.064
162.065
162.041
162.11
-23.8474
-23.8475
-23.8476
-23.8467
-23.846
-23.847
-1.43513
-1.43465
-1.43464
-1.43403
-1.43325
-1.43401
101.936
101.947
101.941
101.952
101.967
101.946
314.105
314.121
314.114
314.124
314.142
314.12
677.519
677.537
677.533
677.546
677.568
677.54
1227.18
1227.22
1227.22
1227.23
1227.25
1227.22
2478.42
2478.37
2478.4
2478.41
2478.39
2478.45
7277.5
7277.29
7277.37
7277.36
7277.28
7277.49
18149.5
18149
18149.1
18149.1
18149
18149.3
23595.5
23595.3
23595.4
23595.4
23595.3
23595.4
26399.3
26399.2
26399.3
26399.3
26399.3
26399.3
-12.8726
-12.8724
-12.8725
-12.8728
-12.8727
-12.8729
-10.3437
-10.3435
-10.3435
-10.3434
-10.3434
-10.3436
-0.318259
-0.318134
-0.31807
-0.317741
-0.317421
-0.317632
10.0113
10.0116
10.0116
10.0119
10.0121
10.0115
10.9981
10.9983
10.9983
10.9983
10.9982
10.9977
9.992
9.99231
9.99251
9.99243
9.99223
9.99226
12.378
12.3787
12.3787
12.3785
12.3783
12.3777
27.5335
27.5359
27.5332
27.532
27.5327
27.5298
130.996
131.016
131.004
130.998
131.004
130.992
5958.04
5956.51
5957.11
5957.07
5956.58
5957.58
25206
25205.1
25205.7
25205.5
25205.2
25205.9
31400.3
31400.6
31400.6
31400.6
31400.6
31400.5
-7.54324
-7.5431
-7.54311
-7.54298
-7.54288
-7.54322
-4.47046
-4.47042
-4.47039
-4.47033
-4.47023
-4.47021
1.2045
1.20451
1.20457
1.20458
1.20461
1.20474
8.35226
8.35212
8.3521
8.35183
8.35164
8.35193
11.5018
11.5017
11.5016
11.5014
11.5012
11.5015
11.4469
11.447
11.4472
11.447
11.4468
11.4469
11.2538
11.2538
11.2544
11.2546
11.2545
11.2545
12.7221
12.7155
12.7171
12.7157
12.7145
12.7175
29.2092
29.1979
29.2022
29.1996
29.1942
29.1997
1103.68
1100.96
1101.91
1102.04
1101.11
1102.7
21753.2
21763.9
21760
21758.4
21763.2
21755
37319.8
37320.3
37320.3
37320.2
37320.1
37319.6
3.48075
3.48073
3.48075
3.48077
3.48078
3.4808
3.64274
3.64275
3.64277
3.6428
3.64282
3.64284
3.97131
3.97133
3.97135
3.97138
3.9714
3.97142
4.47477
4.47479
4.47481
4.47485
4.47489
4.47492
5.1633
5.16331
5.16335
5.1634
5.16344
5.16346
6.04359
6.04362
6.04364
6.04367
6.04367
6.04366
7.10906
7.10908
7.10906
7.10903
7.10899
7.10895
8.32406
8.32402
8.32394
8.32387
8.3238
8.32373
9.60047
9.60033
9.60017
9.60001
9.59986
9.59972
10.7746
10.7746
10.7746
10.7744
10.7742
10.774
11.841
11.8414
11.8422
11.8425
11.8433
11.8435
10.5484
10.5485
10.5487
10.5481
10.5482
10.5478
3.31847
3.31847
3.31849
3.31852
3.31854
3.31856
3.48204
3.48206
3.48209
3.48211
3.48212
3.48214
3.81309
3.81311
3.81313
3.81315
3.81316
3.81317
4.31743
4.31744
4.31746
4.31749
4.3175
4.31751
5.00063
5.00064
5.00066
5.00067
5.00067
5.00066
5.86466
5.86463
5.8646
5.86454
5.86449
5.86444
6.90507
6.90495
6.9048
6.90464
6.90451
6.90443
8.11557
8.11537
8.11516
8.11497
8.11484
8.11474
9.51029
9.51029
9.51048
9.51062
9.51092
9.51101
11.1308
11.1316
11.1333
11.134
11.1365
11.1372
12.836
12.8376
12.8408
12.8413
12.845
12.8458
8.34287
8.34297
8.34463
8.34485
8.34346
8.34729
2.99571
2.99574
2.99576
2.99577
2.99579
2.9958
3.15709
3.15712
3.15714
3.15714
3.15715
3.15715
3.48985
3.48988
3.48988
3.48987
3.48986
3.48985
4.01599
4.016
4.016
4.01599
4.01598
4.01596
4.7731
4.7731
4.77309
4.77307
4.77304
4.77302
5.81536
5.81533
5.81526
5.81519
5.81512
5.81508
7.19968
7.1996
7.19952
7.19946
7.19942
7.19944
8.93582
8.93587
8.93606
8.93632
8.93665
8.9372
10.9463
10.9469
10.948
10.9488
10.9503
10.9521
12.5989
12.6007
12.6053
12.606
12.6126
12.612
15.5186
15.52
15.5313
15.5309
15.5517
15.5288
10.2018
10.2006
10.2066
10.2057
10.2091
10.2182
2.52065
2.52068
2.52069
2.5207
2.5207
2.5207
2.66795
2.66797
2.66797
2.66796
2.66794
2.66792
2.97166
2.97167
2.97165
2.97162
2.97158
2.97155
3.44716
3.44716
3.44714
3.4471
3.44708
3.44706
4.11543
4.11543
4.11543
4.11542
4.1154
4.11539
5.00751
5.00752
5.00757
5.00761
5.00764
5.00766
6.18309
6.18322
6.18351
6.18376
6.18411
6.18426
7.76266
7.76325
7.76444
7.76493
7.76655
7.767
9.78062
9.78226
9.7864
9.78589
9.79175
9.79326
14.7077
14.7122
14.7354
14.7035
14.7452
14.7406
27.0342
27.0379
27.0794
27.0259
27.093
27.0947
3.06072
3.07171
3.14078
3.02132
3.10909
3.13139
-4.3171
-4.31714
-4.31715
-4.31711
-4.31704
-4.31698
-2.43906
-2.43909
-2.43909
-2.43909
-2.43907
-2.43901
-1.6857
-1.68574
-1.68572
-1.68571
-1.68571
-1.68566
-2.48467
-2.48467
-2.48468
-2.48464
-2.48456
-2.48448
-1.45144
-1.45148
-1.45143
-1.45139
-1.45137
-1.45125
-1.39634
-1.3964
-1.39641
-1.39641
-1.39644
-1.39642
0.527987
0.528042
0.528071
0.528131
0.528213
0.528237
0.313357
0.313339
0.313367
0.313397
0.313407
0.313445
-0.84348
-0.843554
-0.84357
-0.843582
-0.843605
-0.843555
3.85636
3.8564
3.85639
3.85641
3.85643
3.85638
2.27277
2.27271
2.27273
2.27275
2.27275
2.2728
-0.244615
-0.244647
-0.244631
-0.244617
-0.244608
-0.244538
5.84806
5.84808
5.84804
5.84803
5.84808
5.84803
3.69085
3.69076
3.69077
3.69077
3.69078
3.69087
0.410351
0.410368
0.410416
0.410433
0.410436
0.410475
7.30869
7.30876
7.30877
7.3088
7.30879
7.30874
4.47528
4.47524
4.47523
4.47521
4.47522
4.47527
1.31472
1.31472
1.31475
1.31472
1.31471
1.31474
9.70287
9.70271
9.70271
9.70261
9.70246
9.70235
4.73118
4.73108
4.7311
4.73102
4.73099
4.73104
2.10693
2.10695
2.107
2.10695
2.10706
2.10696
4.39151
4.38952
4.38954
4.38892
4.38837
4.38863
-0.576904
-0.577472
-0.576063
-0.576198
-0.576574
-0.575372
5.9887
5.98896
5.98942
5.98939
5.98953
5.9898
18.1711
18.1571
18.157
18.1551
18.1504
18.1568
16.5293
16.5207
16.5245
16.5275
16.528
16.5287
1.78955
1.78975
1.79038
1.79041
1.79167
1.79021
15.6939
15.7275
15.6897
15.6655
15.682
15.6555
11.9668
11.9334
11.9565
11.9885
11.9874
11.9804
-0.13086
-0.125323
-0.125858
-0.122027
-0.115424
-0.122338
667.83
665.658
666.147
666.336
665.441
667.312
366.488
366.267
366.398
366.579
366.004
366.605
108.542
108.58
108.556
108.548
108.379
108.698
31708.8
31705.8
31704.7
31703.2
31698.1
31710.2
3593.25
3602.21
3598.74
3598.86
3601.06
3595.37
-21.7212
-21.7121
-21.7115
-21.7117
-21.7112
-21.7041
3623
3624.61
3652.19
3578.46
3597.54
3648.27
3801.53
3825.9
3832.17
3757.02
3726.94
3849
1065.42
1068.34
1078.12
1043.93
1011.99
1105.13
15702.4
15694.4
15702.3
15727.9
15775.5
15731.3
4086.07
4077.82
4099.89
4067.38
3967.87
4180.25
-77.1338
-77.1655
-77.1657
-76.9984
-76.5054
-76.538
23119.2
23110.7
23102.7
23191
23249.3
23125.9
250.851
252.024
247.046
253.693
254.715
239.327
-44.353
-44.416
-44.4195
-44.3805
-44.3956
-43.8729
30096.2
30096.8
30093.8
30133.6
30185.4
30063.1
4446.65
4451.57
4452.47
4451.88
4483.15
4415.56
-21.862
-21.8659
-21.8506
-21.7788
-21.6773
-21.5513
34558.4
34558.6
34559.7
34561.5
34562.7
34563.4
10702.4
10711.5
10711
10710.3
10728.1
10691.1
-13.1868
-13.1856
-13.1765
-13.1451
-13.1013
-13.0873
34430.8
34430.2
34430.8
34432.1
34432.3
34431.8
11058.2
11067.3
11064.8
11064.2
11067.8
11059.4
-12.2733
-12.2689
-12.2638
-12.2497
-12.2308
-12.234
1.9134
1.91342
1.91343
1.91343
1.91342
1.9134
1.19506
1.19507
1.19507
1.19506
1.19505
1.19504
0.411938
0.411939
0.411939
0.411937
0.411932
0.411924
2.03493
2.03495
2.03495
2.03492
2.03489
2.03486
1.27242
1.27243
1.27242
1.2724
1.27237
1.27235
0.439477
0.439475
0.439471
0.439465
0.439456
0.439452
2.29166
2.29167
2.29165
2.29161
2.29157
2.29154
1.43415
1.43415
1.43413
1.4341
1.43408
1.43407
0.497319
0.497314
0.497309
0.497305
0.497304
0.497306
2.71985
2.71986
2.71985
2.71983
2.71982
2.71983
1.69426
1.69427
1.69426
1.69427
1.69428
1.69427
0.590234
0.590232
0.590241
0.590253
0.590266
0.590255
3.39242
3.39247
3.39251
3.39254
3.39258
3.39259
2.07352
2.07355
2.0736
2.07366
2.07371
2.07371
0.722271
0.722292
0.722342
0.722396
0.722435
0.722435
4.45028
4.45038
4.4505
4.45062
4.45077
4.45087
2.58896
2.58907
2.58925
2.58946
2.58963
2.58971
0.863983
0.864094
0.864292
0.86452
0.864702
0.864784
6.14992
6.15016
6.1505
6.15083
6.15135
6.15192
3.19838
3.1988
3.19952
3.20028
3.20103
3.20157
0.927431
0.927872
0.928729
0.929806
0.93069
0.930829
8.76576
8.76641
8.76759
8.76711
8.76824
8.7724
4.70254
4.70326
4.70559
4.70833
4.71119
4.70962
1.14129
1.14221
1.14523
1.14904
1.15244
1.15112
13.7474
13.7493
13.7515
13.7494
13.7426
13.7768
3.05771
3.05856
3.06319
3.06127
3.06392
3.06665
-1.61944
-1.61648
-1.61196
-1.61059
-1.60943
-1.61574
20.6873
20.6864
20.6971
20.7332
20.7171
20.7792
0.91781
0.904086
0.942198
1.064
1.10407
1.08952
-8.75588
-8.75719
-8.72755
-8.63796
-8.63101
-8.78132
17.6632
17.6387
17.6332
17.681
17.663
17.7394
24.4285
24.355
24.4253
24.3659
24.5074
24.4728
11.459
11.516
11.6211
11.3806
11.4351
11.974
0.665027
0.708167
0.811657
0.361063
0.479918
0.626024
-61.3428
-60.5826
-58.0718
-65.0882
-62.499
-61.1673
10.995
15.3597
19.3232
4.62067
0.227991
21.2348
)
;

boundaryField
{
    seabed_topleft_surface
    {
        type            fixedFluxPressure;
        gradient        uniform 0;
        value           nonuniform List<scalar> 
72
(
6480.36
6480.33
6480.35
6480.35
6480.34
6480.37
6352.45
6352.41
6352.42
6352.45
6352.44
6352.43
6690.16
6690.13
6690.14
6690.16
6690.16
6690.14
7325.11
7325.09
7325.1
7325.12
7325.12
7325.1
7979.1
7979.08
7979.09
7979.1
7979.11
7979.1
8724.21
8724.2
8724.21
8724.22
8724.22
8724.22
9770.12
9770.08
9770.08
9770.08
9770.07
9770.11
11715.2
11715.2
11715.2
11715.2
11715.2
11715.2
14466.8
14466.8
14466.8
14466.8
14466.7
14466.8
18535.4
18535.3
18535.3
18535.3
18535.3
18535.3
21705
21704.8
21704.9
21704.9
21704.8
21704.9
23965.7
23965.6
23965.6
23965.6
23965.6
23965.7
)
;
    }
    seabed_topright_surface
    {
        type            fixedFluxPressure;
        gradient        uniform 0;
        value           nonuniform List<scalar> 
72
(
3.48075
3.48073
3.48075
3.48077
3.48078
3.4808
3.64274
3.64275
3.64277
3.6428
3.64282
3.64284
3.97131
3.97133
3.97135
3.97138
3.9714
3.97142
4.47477
4.47479
4.47481
4.47485
4.47489
4.47492
5.1633
5.16331
5.16335
5.1634
5.16344
5.16346
6.04359
6.04362
6.04364
6.04367
6.04367
6.04366
7.10906
7.10908
7.10906
7.10903
7.10899
7.10895
8.32406
8.32402
8.32394
8.32387
8.3238
8.32373
9.60047
9.60033
9.60017
9.60001
9.59986
9.59972
10.7746
10.7746
10.7746
10.7744
10.7742
10.774
11.841
11.8414
11.8422
11.8425
11.8433
11.8435
10.5484
10.5485
10.5487
10.5481
10.5482
10.5478
)
;
    }
    breakwater_top_surface
    {
        type            fixedFluxPressure;
        gradient        uniform 0;
        value           nonuniform List<scalar> 
36
(
3623
3624.61
3652.19
3578.46
3597.54
3648.27
15702.4
15694.4
15702.3
15727.9
15775.5
15731.3
23119.2
23110.7
23102.7
23191
23249.3
23125.9
30096.2
30096.8
30093.8
30133.6
30185.4
30063.1
34558.4
34558.6
34559.7
34561.5
34562.7
34563.4
34430.8
34430.2
34430.8
34432.1
34432.3
34431.8
)
;
    }
    breakwater_left_surface
    {
        type            fixedFluxPressure;
        gradient        uniform 0;
        value           nonuniform List<scalar> 
24
(
23965.7
23965.6
23965.6
23965.6
23965.6
23965.7
26399.3
26399.2
26399.3
26399.3
26399.3
26399.3
31400.3
31400.6
31400.6
31400.6
31400.6
31400.5
37319.8
37320.3
37320.3
37320.2
37320.1
37319.6
)
;
    }
    breakwater_right_surface
    {
        type            fixedFluxPressure;
        gradient        uniform 0;
        value           nonuniform List<scalar> 
24
(
10.5484
10.5485
10.5487
10.5481
10.5482
10.5478
8.34287
8.34297
8.34463
8.34485
8.34346
8.34729
10.2018
10.2006
10.2066
10.2057
10.2091
10.2182
3.06072
3.07171
3.14078
3.02132
3.10909
3.13139
)
;
    }
    water_front_surface
    {
        type            fixedFluxPressure;
        gradient        uniform 0;
        value           nonuniform List<scalar> 
186
(
6480.36
6352.45
6690.16
7325.11
7979.1
8724.21
9770.12
11715.2
14466.8
18535.4
21705
23965.7
162.105
-23.8474
-1.43513
101.936
314.105
677.519
1227.18
2478.42
7277.5
18149.5
23595.5
26399.3
-12.8726
-10.3437
-0.318259
10.0113
10.9981
9.992
12.378
27.5335
130.996
5958.04
25206
31400.3
-7.54324
-4.47046
1.2045
8.35226
11.5018
11.4469
11.2538
12.7221
29.2092
1103.68
21753.2
37319.8
3.48075
3.64274
3.97131
4.47477
5.1633
6.04359
7.10906
8.32406
9.60047
10.7746
11.841
10.5484
3.31847
3.48204
3.81309
4.31743
5.00063
5.86466
6.90507
8.11557
9.51029
11.1308
12.836
8.34287
2.99571
3.15709
3.48985
4.01599
4.7731
5.81536
7.19968
8.93582
10.9463
12.5989
15.5186
10.2018
2.52065
2.66795
2.97166
3.44716
4.11543
5.00751
6.18309
7.76266
9.78062
14.7077
27.0342
3.06072
-4.3171
-2.43906
-1.6857
-2.48467
-1.45144
-1.39634
0.527987
0.313357
-0.84348
3.85636
2.27277
-0.244615
5.84806
3.69085
0.410351
7.30869
4.47528
1.31472
9.70287
4.73118
2.10693
4.39151
-0.576904
5.9887
18.1711
16.5293
1.78955
15.6939
11.9668
-0.13086
667.83
366.488
108.542
31708.8
3593.25
-21.7212
3623
3801.53
1065.42
15702.4
4086.07
-77.1338
23119.2
250.851
-44.353
30096.2
4446.65
-21.862
34558.4
10702.4
-13.1868
34430.8
11058.2
-12.2733
1.9134
1.19506
0.411938
2.03493
1.27242
0.439477
2.29166
1.43415
0.497319
2.71985
1.69426
0.590234
3.39242
2.07352
0.722271
4.45028
2.58896
0.863983
6.14992
3.19838
0.927431
8.76576
4.70254
1.14129
13.7474
3.05771
-1.61944
20.6873
0.91781
-8.75588
17.6632
24.4285
11.459
0.665027
-61.3428
10.995
)
;
    }
    water_back_surface
    {
        type            fixedFluxPressure;
        gradient        uniform 0;
        value           nonuniform List<scalar> 
186
(
6480.37
6352.43
6690.14
7325.1
7979.1
8724.22
9770.11
11715.2
14466.8
18535.3
21704.9
23965.7
162.11
-23.847
-1.43401
101.946
314.12
677.54
1227.22
2478.45
7277.49
18149.3
23595.4
26399.3
-12.8729
-10.3436
-0.317632
10.0115
10.9977
9.99226
12.3777
27.5298
130.992
5957.58
25205.9
31400.5
-7.54322
-4.47021
1.20474
8.35193
11.5015
11.4469
11.2545
12.7175
29.1997
1102.7
21755
37319.6
3.4808
3.64284
3.97142
4.47492
5.16346
6.04366
7.10895
8.32373
9.59972
10.774
11.8435
10.5478
3.31856
3.48214
3.81317
4.31751
5.00066
5.86444
6.90443
8.11474
9.51101
11.1372
12.8458
8.34729
2.9958
3.15715
3.48985
4.01596
4.77302
5.81508
7.19944
8.9372
10.9521
12.612
15.5288
10.2182
2.5207
2.66792
2.97155
3.44706
4.11539
5.00766
6.18426
7.767
9.79326
14.7406
27.0947
3.13139
-4.31698
-2.43901
-1.68566
-2.48448
-1.45125
-1.39642
0.528237
0.313445
-0.843555
3.85638
2.2728
-0.244538
5.84803
3.69087
0.410475
7.30874
4.47527
1.31474
9.70235
4.73104
2.10696
4.38863
-0.575372
5.9898
18.1568
16.5287
1.79021
15.6555
11.9804
-0.122338
667.312
366.605
108.698
31710.2
3595.37
-21.7041
3648.27
3849
1105.13
15731.3
4180.25
-76.538
23125.9
239.327
-43.8729
30063.1
4415.56
-21.5513
34563.4
10691.1
-13.0873
34431.8
11059.4
-12.234
1.9134
1.19504
0.411924
2.03486
1.27235
0.439452
2.29154
1.43407
0.497306
2.71983
1.69427
0.590255
3.39259
2.07371
0.722435
4.45087
2.58971
0.864784
6.15192
3.20157
0.930829
8.7724
4.70962
1.15112
13.7768
3.06665
-1.61574
20.7792
1.08952
-8.78132
17.7394
24.4728
11.974
0.626024
-61.1673
21.2348
)
;
    }
    water_left_surface
    {
        type            fixedFluxPressure;
        gradient        uniform 0;
        value           nonuniform List<scalar> 
42
(
6480.36
6480.33
6480.35
6480.35
6480.34
6480.37
162.105
162.046
162.064
162.065
162.041
162.11
-12.8726
-12.8724
-12.8725
-12.8728
-12.8727
-12.8729
-7.54324
-7.5431
-7.54311
-7.54298
-7.54288
-7.54322
-4.3171
-4.31714
-4.31715
-4.31711
-4.31704
-4.31698
-2.43906
-2.43909
-2.43909
-2.43909
-2.43907
-2.43901
-1.6857
-1.68574
-1.68572
-1.68571
-1.68571
-1.68566
)
;
    }
    water_right_surface
    {
        type            fixedFluxPressure;
        gradient        uniform 0;
        value           nonuniform List<scalar> 
42
(
3.48075
3.48073
3.48075
3.48077
3.48078
3.4808
3.31847
3.31847
3.31849
3.31852
3.31854
3.31856
2.99571
2.99574
2.99576
2.99577
2.99579
2.9958
2.52065
2.52068
2.52069
2.5207
2.5207
2.5207
1.9134
1.91342
1.91343
1.91343
1.91342
1.9134
1.19506
1.19507
1.19507
1.19506
1.19505
1.19504
0.411938
0.411939
0.411939
0.411937
0.411932
0.411924
)
;
    }
    water_top_surface
    {
        type            totalPressure;
        rho             rho;
        psi             none;
        gamma           1;
        p0              uniform 0;
        value           nonuniform List<scalar> 
180
(
-1.23894
-1.23914
-1.2391
-1.23912
-1.23918
-1.239
-1.23658
-1.23683
-1.23681
-1.23684
-1.23693
-1.23676
-0.972598
-0.972837
-0.97284
-0.972872
-0.972942
-0.972766
-0.848765
-0.848974
-0.848961
-0.848968
-0.848997
-0.848794
-0.62579
-0.625918
-0.625871
-0.625852
-0.625864
-0.625692
-0.455897
-0.455983
-0.455937
-0.45593
-0.455962
-0.455838
-0.305911
-0.306021
-0.305977
-0.30596
-0.305948
-0.305747
-0.269544
-0.269594
-0.269547
-0.269541
-0.269476
-0.26935
0
0
0
0
0
0
0
0
0
0
0
0
0
0
0
0
0
0
-31.4443
-31.4746
-31.4679
-31.4567
-31.4763
-31.4646
0
0
0
0
0
0
-23.0841
-23.3934
-23.3116
-23.4492
-24.6052
-20.3552
-24.0599
-24.0798
-23.9881
-24.267
-24.0259
-24.2507
-13.3602
-13.3778
-13.3726
-13.4417
-13.5519
-13.3873
-10.6532
-10.6648
-10.6579
-10.6992
-10.757
-10.6604
-13.2104
-13.2187
-13.2176
-13.2162
-13.2329
-13.2347
0
0
0
0
0
0
0
0
0
0
0
0
0
0
0
0
0
0
0
0
0
0
0
0
0
0
0
0
0
0
0
0
0
0
0
0
0
0
0
0
0
0
0
0
0
0
0
0
0
0
0
0
0
0
0
0
0
0
0
0
-0.675289
-0.670069
-0.660829
-0.68784
-0.709893
-0.638371
0
0
0
0
0
0
)
;
    }
}


// ************************************************************************* //
