/*--------------------------------*- C++ -*----------------------------------*\
| =========                 |                                                 |
| \\      /  F ield         | OpenFOAM: The Open Source CFD Toolbox           |
|  \\    /   O peration     | Version:  v1612+                                |
|   \\  /    A nd           | Web:      www.OpenFOAM.com                      |
|    \\/     M anipulation  |                                                 |
\*---------------------------------------------------------------------------*/
FoamFile
{
    version     2.0;
    format      ascii;
    class       surfaceScalarField;
    location    "4.15";
    object      alphaPhi;
}
// * * * * * * * * * * * * * * * * * * * * * * * * * * * * * * * * * * * * * //

dimensions      [0 3 -1 0 0 0 0];

internalField   nonuniform List<scalar> 
2916
(
4.84354e-06
0.127133
-4.68778e-07
3.82947e-06
0.127134
-4.68719e-07
-7.82258e-07
0.127134
-4.68764e-07
3.33891e-07
0.127135
-4.68787e-07
1.75073e-06
0.127135
-4.68749e-07
0.127133
-4.68858e-07
5.71193e-06
0.251725
-1.34555e-06
3.97438e-06
0.251731
-1.34557e-06
1.91013e-07
0.25173
-1.3456e-06
1.73014e-06
0.251731
-1.34557e-06
3.02127e-06
0.251732
-1.34548e-06
0.251727
-1.3456e-06
5.64627e-06
0.386156
-1.66697e-07
3.09583e-06
0.386169
-1.66725e-07
6.74272e-07
0.386165
-1.66727e-07
2.19148e-06
0.386166
-1.66711e-07
2.42915e-06
0.386169
-1.66717e-07
0.38616
-1.66749e-07
5.63983e-06
0.529614
-2.27045e-08
2.44106e-06
0.529636
-2.27076e-08
1.12277e-06
0.52963
-2.27059e-08
1.76182e-06
0.529631
-2.27049e-08
1.05277e-07
0.529635
-2.27076e-08
0.529621
-2.27104e-08
5.30109e-06
0.652457
-3.54829e-09
1.94024e-06
0.652486
-3.5476e-09
1.11112e-06
0.652478
-3.54764e-09
8.59717e-07
0.652479
-3.54716e-09
-1.63141e-06
0.652484
-3.5473e-09
0.652464
-3.54901e-09
5.0006e-06
0.650312
0.0473039
2.36844e-06
0.650343
0.0473084
8.26945e-07
0.650334
0.0473075
-1.07431e-07
0.650335
0.0473077
-3.20447e-06
0.65034
0.0473087
0.650311
0.0473081
-1.74484e-06
0.360852
0.226479
-5.95251e-07
0.360886
0.226474
-3.39457e-06
0.360881
0.226474
-5.41119e-06
0.360881
0.226474
-4.72586e-06
0.360888
0.22647
0.36085
0.226474
-5.29402e-06
-0.124728
0.484683
-7.24638e-07
-0.124698
0.484676
-5.19032e-06
-0.124693
0.484676
-8.89894e-06
-0.124694
0.484676
-1.21073e-05
-0.124686
0.484674
-0.124741
0.484677
1.82785e-05
-0.719654
0.594038
4.06288e-06
-0.719652
0.594098
-6.78408e-07
-0.719629
0.59407
-7.50089e-06
-0.719631
0.594073
-2.73184e-05
-0.719625
0.594088
-0.719693
0.594054
4.60526e-05
-1.03031
0.309852
1.26669e-05
-1.03031
0.309933
7.23396e-06
-1.03028
0.309904
-2.1468e-06
-1.03029
0.309906
-3.60734e-05
-1.03028
0.309928
-1.03034
0.309853
7.71369e-05
-0.735778
-0.295855
1.30081e-05
-0.735771
-0.295736
3.44535e-06
-0.73576
-0.295771
-6.30953e-06
-0.735763
-0.295771
-5.23214e-05
-0.735754
-0.295739
-0.735787
-0.295856
1.08955e-05
-0.751906
-1.35373e-05
-0.751866
-1.21463e-05
-0.751873
-8.98573e-06
-0.751871
-1.10413e-05
-0.751861
-0.751907
-4.73316e-13
3.81855e-08
-5.11976e-07
2.32464e-13
3.81829e-08
-5.11913e-07
5.23069e-13
3.81848e-08
-5.11959e-07
1.19368e-12
3.81861e-08
-5.11985e-07
1.43965e-12
3.81855e-08
-5.11946e-07
3.81907e-08
-5.1206e-07
-1.16995e-12
1.1421e-07
-1.42437e-06
7.9956e-13
1.14214e-07
-1.4244e-06
1.60394e-12
1.14217e-07
-1.42443e-06
2.67757e-12
1.14215e-07
-1.42439e-06
3.86915e-12
1.14211e-07
-1.42429e-06
1.14217e-07
-1.42441e-06
-4.73476e-13
5.13838e-08
-1.05696e-07
1.49971e-13
5.13879e-08
-1.05726e-07
3.91893e-13
5.13885e-08
-1.05726e-07
7.22069e-13
5.13863e-08
-1.0571e-07
1.22501e-12
5.13873e-08
-1.05721e-07
5.13914e-08
-1.05748e-07
-4.26579e-14
4.21172e-08
-1.56115e-08
1.22919e-13
4.21183e-08
-1.5613e-08
1.84509e-13
4.21185e-08
-1.56118e-08
3.197e-13
4.2118e-08
-1.56126e-08
3.56087e-13
4.21182e-08
-1.56136e-08
4.21184e-08
-1.56108e-08
-6.46973e-15
3.48806e-08
2.46926e-09
-1.7126e-13
3.48811e-08
2.4708e-09
-1.94708e-13
3.48811e-08
2.47048e-09
-3.0943e-13
3.48809e-08
2.47073e-09
-5.11325e-13
3.48811e-08
2.47129e-09
3.48803e-08
2.46999e-09
-1.02012e-07
0.0374695
0.000917828
-1.21024e-07
0.0374759
0.000917745
-9.24547e-08
0.0374745
0.000917835
-1.48036e-07
0.0374745
0.000917788
-2.05111e-07
0.0374761
0.000917745
0.0374742
0.000917839
-4.91712e-07
0.215694
0.00408815
-3.20201e-06
0.215695
0.00409179
-2.36122e-06
0.215699
0.00408991
-1.95254e-06
0.2157
0.00408986
-2.28117e-06
0.215702
0.00409028
0.215693
0.00408935
-9.61911e-07
0.211257
-0.00447585
-7.80979e-06
0.211306
-0.00446707
-3.59651e-06
0.211291
-0.00447184
-4.09088e-06
0.211291
-0.00447114
-1.17445e-05
0.211306
-0.00446973
0.211255
-0.00447322
0.000117243
-0.139409
0.39718
7.45491e-06
-0.139307
0.397343
-4.56773e-06
-0.139322
0.397258
-6.82452e-06
-0.139316
0.397249
-7.52122e-05
-0.139268
0.397279
-0.139419
0.397227
0.000102281
-0.33726
0.506911
1.22277e-05
-0.337211
0.507236
9.99228e-06
-0.337203
0.507096
8.07502e-06
-0.337197
0.507098
-3.12509e-05
-0.337172
0.507179
-0.337265
0.506976
0.00012604
-0.303883
-0.330131
3.85272e-05
-0.303724
-0.329908
2.80714e-05
-0.303748
-0.329989
4.41012e-06
-0.303751
-0.329967
-4.62235e-05
-0.303701
-0.329931
-0.303853
-0.330086
-4.65686e-05
-1.06005
-2.91956e-05
-1.05991
-1.59042e-05
-1.05995
4.903e-06
-1.05996
5.54583e-05
-1.05992
-1.06002
-1.38742e-11
-2.37561e-07
-3.67859e-07
-6.89045e-12
-2.37513e-07
-3.67722e-07
3.29538e-12
-2.37543e-07
-3.67777e-07
5.54595e-12
-2.37532e-07
-3.67813e-07
7.6334e-12
-2.37497e-07
-3.67781e-07
-2.37586e-07
-3.67937e-07
-2.59505e-11
-2.04455e-07
-1.6187e-06
-7.7233e-12
-2.04447e-07
-1.61854e-06
2.46277e-12
-2.04461e-07
-1.6186e-06
1.09997e-11
-2.04445e-07
-1.61859e-06
3.57241e-11
-2.04431e-07
-1.61841e-06
-2.04493e-07
-1.61872e-06
-3.68272e-12
-1.34597e-08
-3.96331e-07
-2.09083e-12
-1.34635e-08
-3.96261e-07
-1.49191e-12
-1.34616e-08
-3.96289e-07
-1.77652e-13
-1.34619e-08
-3.96274e-07
3.404e-12
-1.34647e-08
-3.96246e-07
-1.34632e-08
-3.96423e-07
-8.62193e-13
-2.63822e-10
-2.90816e-08
-5.20188e-13
-2.64721e-10
-2.90886e-08
-6.18363e-13
-2.64206e-10
-2.90863e-08
-2.55672e-13
-2.6493e-10
-2.90868e-08
8.16611e-13
-2.65698e-10
-2.90896e-08
-2.63213e-10
-2.90853e-08
-1.82357e-12
1.49056e-07
-1.47994e-07
-1.63488e-12
1.49154e-07
-1.48179e-07
-1.78215e-12
1.49134e-07
-1.48141e-07
-1.20279e-12
1.49148e-07
-1.48165e-07
3.41315e-13
1.49182e-07
-1.48231e-07
1.49096e-07
-1.48071e-07
-3.58818e-08
0.000921592
-3.15562e-06
-4.85679e-08
0.000921489
-3.15701e-06
-4.78164e-08
0.000921564
-3.15557e-06
-3.98819e-08
0.000921511
-3.15661e-06
-1.87034e-08
0.000921455
-3.15729e-06
0.000921551
-3.15707e-06
2.00575e-06
0.00477451
5.69067e-06
-6.22148e-07
0.00478283
5.73951e-06
-3.41097e-07
0.00477806
5.7143e-06
-1.53937e-07
0.00477806
5.70281e-06
-7.4384e-07
0.00477923
5.71249e-06
0.00477707
5.6877e-06
-1.11897e-06
-0.00316411
0.000246727
7.83613e-07
-0.00314443
0.000247838
6.54177e-07
-0.00315535
0.000247733
2.52087e-07
-0.00315384
0.000247055
-3.17345e-07
-0.00314996
0.000247427
-0.00315745
0.000246658
8.48196e-05
-0.0713494
-0.0192066
1.34383e-05
-0.0712164
-0.0192816
-1.45174e-05
-0.0712784
-0.0192423
-2.45721e-06
-0.0712757
-0.0192427
-3.30334e-05
-0.0712432
-0.0192557
-0.0713057
-0.019232
0.000286427
-0.0992401
0.0609818
1.4473e-05
-0.0988759
0.0613955
-1.37338e-05
-0.0990264
0.0612085
1.53925e-05
-0.0990346
0.0611773
-0.000137284
-0.0989342
0.061294
-0.0991352
0.0610959
0.000561472
-0.116044
-0.361962
4.08357e-05
-0.115802
-0.360297
-4.40687e-05
-0.115863
-0.361003
1.9408e-05
-0.115878
-0.361134
-0.000211167
-0.115847
-0.360672
-0.115958
-0.361475
-0.000123427
-1.174
-2.57225e-05
-1.17385
5.98824e-06
-1.17387
3.10122e-05
-1.17389
0.000120391
-1.17389
-1.17388
6.36335e-12
-6.30855e-08
-7.83307e-08
4.27008e-12
-6.29982e-08
-7.82714e-08
6.84948e-13
-6.30082e-08
-7.82936e-08
-3.40133e-12
-6.30109e-08
-7.82987e-08
-6.56204e-12
-6.29918e-08
-7.82698e-08
-6.30871e-08
-7.83507e-08
2.72852e-11
-7.06315e-08
-1.14824e-06
7.42464e-12
-7.06396e-08
-1.14799e-06
-6.14823e-12
-7.0636e-08
-1.14814e-06
-1.94401e-11
-7.06391e-08
-1.14812e-06
-3.16645e-11
-7.06658e-08
-1.14789e-06
-7.06516e-08
-1.14836e-06
-4.30459e-12
-8.36368e-08
-3.34368e-07
-6.35607e-12
-8.36134e-08
-3.34301e-07
-6.71946e-12
-8.36196e-08
-3.34328e-07
-5.48115e-12
-8.36183e-08
-3.34311e-07
-1.57092e-12
-8.36141e-08
-3.34286e-07
-8.36584e-08
-3.34463e-07
-1.58463e-12
-1.09005e-07
-4.44046e-09
-1.12187e-12
-1.08996e-07
-4.43672e-09
-1.0932e-12
-1.08998e-07
-4.43741e-09
-5.58255e-13
-1.09e-07
-4.43628e-09
7.84837e-13
-1.09002e-07
-4.43487e-09
-1.09032e-07
-4.43983e-09
-7.99661e-11
-2.30749e-07
-2.35977e-08
-3.97542e-11
-2.30947e-07
-2.3611e-08
-3.52679e-11
-2.30897e-07
-2.36079e-08
-1.69125e-11
-2.30926e-07
-2.36093e-08
3.47523e-11
-2.30993e-07
-2.3613e-08
-2.30857e-07
-2.36015e-08
-1.62446e-09
-4.56486e-06
-2.32546e-08
-7.92181e-10
-4.56821e-06
-2.28562e-08
-7.36581e-10
-4.56652e-06
-2.30175e-08
-4.62502e-10
-4.56797e-06
-2.30973e-08
4.8719e-10
-4.56934e-06
-2.30424e-08
-4.56741e-06
-2.31058e-08
7.09071e-08
-2.41488e-05
-6.59267e-07
6.72641e-09
-2.39539e-05
-6.4716e-07
5.65628e-09
-2.40439e-05
-6.53869e-07
1.01651e-08
-2.40596e-05
-6.56387e-07
-7.19969e-09
-2.4025e-05
-6.55117e-07
-2.40743e-05
-6.58236e-07
7.36901e-07
-9.44464e-05
-1.53187e-05
2.57431e-07
-9.08164e-05
-1.58784e-05
1.67404e-07
-9.20381e-05
-1.55058e-05
2.52707e-07
-9.27765e-05
-1.56006e-05
-1.89922e-08
-9.19042e-05
-1.55736e-05
-9.30597e-05
-1.5673e-05
1.48247e-05
-0.0877363
-0.00145791
6.85659e-07
-0.0880401
-0.00146371
-2.34939e-06
-0.087937
-0.00146347
-9.78122e-07
-0.087868
-0.0014648
-4.46984e-06
-0.0879314
-0.00146376
-0.0878273
-0.00146446
0.000372675
-0.419662
-0.0640013
2.64579e-05
-0.41984
-0.0644706
-3.1901e-05
-0.41978
-0.0642826
1.19969e-05
-0.419729
-0.0642377
-8.50062e-05
-0.419756
-0.0643308
-0.419729
-0.0641871
-9.36309e-05
-0.143382
-0.296789
3.63996e-05
-0.142497
-0.297204
2.59459e-05
-0.142859
-0.297029
2.04951e-05
-0.14299
-0.296986
0.000140476
-0.142807
-0.297013
-0.143044
-0.296982
-0.000438749
-0.588667
5.32862e-06
-0.588564
0.000138125
-0.588598
4.06806e-05
-0.588728
7.05831e-05
-0.588757
-0.588567
-3.58504e-25
-2.11311e-18
8.92116e-21
-4.02926e-25
-2.08642e-18
8.81185e-21
-3.27518e-25
-2.26041e-18
9.52641e-21
-2.61666e-25
-1.90454e-18
8.06356e-21
-2.02949e-25
-1.84461e-18
7.83187e-21
-2.46339e-18
1.03573e-20
-9.27756e-23
-4.91477e-16
2.24438e-18
-1.17842e-22
-4.85092e-16
2.21596e-18
-9.7039e-23
-5.2667e-16
2.40072e-18
-7.84578e-23
-4.41617e-16
2.02275e-18
-5.71098e-23
-4.26478e-16
1.95908e-18
-5.74926e-16
2.61623e-18
-1.59757e-20
-1.36568e-15
2.84752e-16
-2.18901e-20
-1.34687e-15
2.81039e-16
-1.82121e-20
-1.46938e-15
3.05122e-16
-1.63394e-20
-1.21926e-15
2.55845e-16
-1.40663e-20
-1.17461e-15
2.4707e-16
-1.61201e-15
3.33065e-16
-2.00131e-18
-8.7881e-14
2.09409e-14
-2.59884e-18
-8.76686e-14
2.06675e-14
-1.74559e-18
-8.85884e-14
2.2425e-14
-2.02002e-18
-8.55912e-14
1.88215e-14
-1.79209e-18
-8.46103e-14
1.81779e-14
-8.83596e-14
2.44577e-14
-9.08988e-17
-6.14753e-12
1.84813e-12
-2.3385e-16
-6.06941e-12
1.82519e-12
1.11586e-16
-6.58212e-12
1.9809e-12
-3.50434e-16
-5.52898e-12
1.66082e-12
-5.69993e-16
-5.33778e-12
1.60565e-12
-7.16725e-12
2.15862e-12
5.48703e-14
-3.70776e-10
9.45162e-11
-5.14662e-15
-3.65438e-10
9.30163e-11
1.22918e-13
-4.00836e-10
1.04312e-10
-1.22288e-13
-3.28486e-10
8.13042e-11
-2.50763e-13
-3.15825e-10
7.77698e-11
-4.40701e-10
1.16953e-10
1.88803e-11
-2.20148e-08
5.07874e-09
-4.98358e-12
-2.16498e-08
4.98299e-09
4.22907e-11
-2.38612e-08
5.65157e-09
-4.51409e-11
-1.93624e-08
4.30271e-09
-1.122e-10
-1.86178e-08
4.1123e-09
-2.63291e-08
6.39262e-09
1.97203e-09
-4.19114e-05
2.5032e-07
-5.05512e-10
-4.13374e-05
2.46748e-07
1.5508e-08
-4.49139e-05
2.7015e-07
-5.63075e-09
-3.76584e-05
2.23415e-07
-3.68281e-08
-3.6265e-05
2.17495e-07
-4.90419e-05
2.95987e-07
6.90658e-08
-6.20107e-05
-0.000723918
-1.42421e-08
-6.16985e-05
-0.000715248
1.51188e-06
-6.50214e-05
-0.000766365
-2.70173e-07
-5.77866e-05
-0.000663043
-3.47331e-06
-5.53035e-05
-0.000636468
-6.97813e-05
-0.000829769
-2.15334e-08
0.000121946
-0.000277223
3.54946e-07
0.000121481
-0.000277604
4.181e-06
0.000125273
-0.000297494
-6.17648e-07
0.00011692
-0.000251148
-1.04599e-05
0.000113507
-0.000228881
0.00013134
-0.000324037
-2.76835e-09
1.17024e-05
4.28612e-05
1.97853e-08
1.14847e-05
4.16243e-05
1.11278e-07
1.11438e-05
3.9001e-05
-7.9166e-09
1.0519e-05
5.25777e-05
-3.25364e-07
1.0291e-05
6.22744e-05
1.12712e-05
3.13755e-05
2.86945e-10
1.41792e-06
1.25687e-09
1.63539e-06
2.47818e-09
1.89542e-06
-1.79082e-10
1.43986e-06
-6.59158e-09
1.21461e-06
2.1828e-06
-3.35897e-24
-2.25094e-17
2.35489e-19
-3.96328e-24
-2.2285e-17
2.3322e-19
-3.62733e-24
-2.33061e-17
2.44233e-19
-2.7249e-24
-2.22273e-17
2.39444e-19
-1.26303e-24
-2.17339e-17
2.34485e-19
-2.45506e-17
2.5739e-19
-4.4784e-22
-9.82446e-17
4.75148e-17
-6.12548e-22
-9.82796e-17
4.70397e-17
-5.57107e-22
-9.74416e-17
4.91944e-17
-4.48991e-22
-5.76967e-17
4.6917e-17
-2.5221e-22
-5.64172e-17
4.58752e-17
-9.6902e-17
5.18199e-17
-2.62574e-20
-1.28645e-14
3.93767e-15
-4.66532e-20
-1.27543e-14
3.89349e-15
-3.80099e-20
-1.32471e-14
4.07144e-15
-5.77417e-20
-1.22343e-14
3.71724e-15
-5.46192e-20
-1.20061e-14
3.64064e-15
-1.38298e-14
4.28649e-15
1.23044e-17
-1.22625e-12
7.07738e-13
6.1031e-18
-1.21268e-12
6.99865e-13
1.90463e-17
-1.27174e-12
7.34908e-13
-1.00746e-17
-1.15258e-12
6.64007e-13
-1.77531e-17
-1.12566e-12
6.48459e-13
-1.34423e-12
7.77746e-13
7.83161e-15
-1.23534e-10
7.64043e-11
1.76316e-15
-1.22278e-10
7.55645e-11
9.08617e-15
-1.27677e-10
7.93208e-11
-8.15703e-15
-1.16736e-10
7.17029e-11
-1.25808e-14
-1.14244e-10
7.00294e-11
-1.34282e-10
8.39321e-11
2.18142e-12
-1.13438e-08
7.52608e-09
-7.43815e-13
-1.12207e-08
7.45085e-09
1.88963e-12
-1.17771e-08
7.82945e-09
-4.36416e-12
-1.06523e-08
7.05771e-09
-5.84959e-12
-1.03946e-08
6.88098e-09
-1.24554e-08
8.2899e-09
3.49853e-10
-7.48396e-07
5.10288e-07
-1.82554e-10
-7.39113e-07
5.0453e-07
2.1143e-09
-7.78938e-07
5.30833e-07
-1.07831e-09
-6.98924e-07
4.77675e-07
-4.7704e-09
-6.8143e-07
4.66125e-07
-8.27087e-07
5.63128e-07
5.58998e-08
-3.21895e-05
2.16731e-05
-8.28343e-09
-3.17552e-05
2.14723e-05
5.77802e-07
-3.37972e-05
2.23949e-05
-1.3123e-07
-2.96653e-05
2.04963e-05
-1.25109e-06
-2.8519e-05
2.00119e-05
-3.62527e-05
2.35949e-05
1.57994e-06
-0.00986667
-0.00039318
7.97341e-07
-0.00979494
-0.000386069
8.32362e-06
-0.0101176
-0.000416854
-1.0555e-06
-0.00946514
-0.000356627
-1.7641e-05
-0.00923789
-0.000343303
-0.0105613
-0.00045211
-1.98269e-06
-0.00114876
-0.0403616
7.60834e-06
-0.00114306
-0.0402017
-3.61326e-05
-0.00120283
-0.0409302
3.35034e-05
-0.00107126
-0.0394537
0.000100953
-0.00100729
-0.0386415
-0.00129673
-0.0422137
-4.59927e-07
9.72288e-06
-0.00121037
1.37971e-06
1.01924e-05
-0.00122466
-1.17836e-07
9.96483e-06
-0.00135455
3.20349e-06
9.37908e-06
-0.0011143
3.67388e-06
7.25486e-06
-0.0010241
1.15016e-05
-0.0016111
2.89718e-08
9.84259e-05
1.40506e-08
9.8708e-05
-5.26002e-09
9.92338e-05
2.00729e-08
9.72665e-05
-7.30829e-08
9.45068e-05
0.000102143
-1.05767e-24
-1.11696e-17
2.86842e-19
-1.47412e-24
-1.10427e-17
2.84081e-19
-1.21284e-24
-1.12316e-17
2.89642e-19
-5.83954e-25
-1.09896e-17
2.81125e-19
8.2717e-26
-1.09501e-17
2.79589e-19
-1.13977e-17
2.9502e-19
-7.84199e-23
-3.35333e-17
3.76965e-17
-9.75619e-23
-3.36276e-17
3.72674e-17
-3.61343e-23
-3.35649e-17
3.79047e-17
1.55049e-23
-3.32152e-17
3.70879e-17
5.70352e-23
-3.37419e-17
3.69545e-17
-3.41325e-17
3.84652e-17
1.54795e-21
-6.99983e-15
1.41963e-15
7.05073e-21
-6.91476e-15
1.39847e-15
2.57639e-20
-7.03779e-15
1.40843e-15
1.42836e-20
-6.87593e-15
1.42112e-15
1.27062e-20
-6.85097e-15
1.42697e-15
-7.14415e-15
1.40763e-15
1.12418e-17
2.79458e-13
2.41848e-13
9.16951e-18
2.78468e-13
2.38051e-13
2.24612e-17
3.09365e-13
2.38615e-13
5.99268e-18
2.37564e-13
2.43147e-13
2.30561e-18
2.20261e-13
2.44961e-13
3.51393e-13
2.36871e-13
4.42134e-15
2.97585e-11
3.12622e-11
2.7435e-16
2.97669e-11
3.07693e-11
2.23797e-15
3.39093e-11
3.06957e-11
-2.05505e-15
2.40697e-11
3.16369e-11
1.70136e-15
2.16476e-11
3.19663e-11
3.96036e-11
3.02841e-11
7.96366e-13
2.57205e-09
3.96431e-09
-1.16728e-12
2.56204e-09
3.92396e-09
8.93809e-15
2.91383e-09
3.93449e-09
-2.18087e-12
2.08754e-09
3.98745e-09
-1.06184e-12
1.89189e-09
3.99131e-09
3.40199e-09
3.90821e-09
1.53672e-10
2.41602e-07
2.13194e-07
-1.72391e-10
2.41432e-07
2.09453e-07
4.63556e-10
2.68642e-07
2.07056e-07
-4.71924e-10
2.04503e-07
2.18639e-07
-1.15657e-09
1.87953e-07
2.2239e-07
3.06277e-07
2.01707e-07
2.8483e-08
6.39188e-06
1.31115e-05
-9.48745e-09
6.54121e-06
1.28902e-05
-4.65361e-08
7.67064e-06
1.26807e-05
-2.21077e-08
4.78253e-06
1.35159e-05
6.33065e-08
3.93097e-06
1.37565e-05
9.3103e-06
1.23207e-05
8.78042e-07
-0.00109898
0.000147102
-5.54903e-07
-0.0010585
0.000148286
-1.17007e-05
-0.00107627
0.000142198
1.39686e-06
-0.0010964
0.000155694
2.28231e-05
-0.00114801
0.000154867
-0.00104944
0.000136261
1.38875e-05
-0.0847255
-0.015154
-1.17381e-05
-0.0842406
-0.0149841
-0.000274775
-0.0848672
-0.0151029
6.34313e-05
-0.0841493
-0.0150325
0.000693746
-0.0832567
-0.0149617
-0.0861169
-0.0153266
-4.68176e-05
-3.02259e-05
-0.161431
1.87532e-05
-2.96294e-05
-0.161028
-0.000183452
-2.97248e-05
-0.162308
6.00902e-05
-2.96543e-05
-0.159849
0.00075157
-3.09681e-05
-0.157101
-2.83189e-05
-0.165568
3.52503e-09
7.36616e-05
3.44484e-08
7.12166e-05
2.24141e-07
6.95378e-05
5.04713e-08
7.39869e-05
-3.85227e-07
8.53429e-05
5.96703e-05
-6.71723e-26
-1.45078e-18
4.72349e-20
-9.35022e-26
-1.43606e-18
4.67768e-20
-5.8907e-26
-1.46046e-18
4.76865e-20
-1.27888e-26
-1.42508e-18
4.62387e-20
2.6474e-26
-1.41975e-18
4.61191e-20
-1.48107e-18
4.84782e-20
9.49236e-24
-1.8351e-16
7.27146e-18
1.07663e-23
-1.81478e-16
7.19756e-18
1.66822e-23
-1.8374e-16
7.31988e-18
1.91116e-23
-1.81511e-16
7.1426e-18
1.9702e-23
-1.81041e-16
7.11593e-18
-1.85141e-16
7.42338e-18
2.53429e-21
-5.86042e-16
5.02199e-16
3.59325e-21
-5.75678e-16
4.96628e-16
5.07876e-21
-6.04322e-16
5.02818e-16
4.12534e-21
-5.59805e-16
4.9672e-16
3.46384e-21
-5.50032e-16
4.95438e-16
-6.44981e-16
5.06668e-16
8.48802e-19
-5.81644e-14
2.49682e-14
6.85279e-19
-5.82506e-14
2.46002e-14
1.16833e-18
-5.61661e-14
2.50323e-14
6.10022e-19
-6.09923e-14
2.45649e-14
6.38723e-19
-6.24353e-14
2.45296e-14
-5.36966e-14
2.53566e-14
1.08292e-16
3.97146e-11
2.55788e-12
-9.82795e-17
3.9202e-11
2.52041e-12
-5.53358e-17
4.02788e-11
2.56018e-12
-1.51654e-16
3.87781e-11
2.5219e-12
5.28032e-17
3.80819e-11
2.52084e-12
4.11289e-11
2.58775e-12
-4.97049e-15
3.37541e-09
2.05414e-10
-7.95756e-14
3.34185e-09
2.02524e-10
-4.84172e-14
3.33237e-09
2.06019e-10
-7.65455e-14
3.42226e-09
2.02374e-10
-2.7968e-15
3.4336e-09
2.01805e-10
3.2814e-09
2.08561e-10
1.27482e-13
1.74573e-07
1.00922e-08
-9.80879e-12
1.6959e-07
9.95223e-09
-1.42676e-11
1.69395e-07
1.00516e-08
-1.04659e-11
1.76348e-07
1.00215e-08
1.18924e-11
1.79869e-07
9.97834e-09
1.69488e-07
1.01903e-08
1.35793e-09
4.74226e-06
2.35261e-07
-1.33903e-09
4.56869e-06
2.27236e-07
-1.17126e-08
4.41416e-06
2.27231e-07
-7.29507e-10
5.01311e-06
2.39792e-07
1.77924e-08
5.24224e-06
2.50701e-07
4.24545e-06
2.21165e-07
1.04004e-07
0.00013853
7.0586e-06
-1.12401e-07
0.000140136
6.8492e-06
-1.1376e-06
0.000134854
6.66966e-06
-7.73851e-09
0.000145983
7.35992e-06
1.70017e-06
0.000144761
7.38611e-06
0.00012948
6.72145e-06
1.06932e-05
-0.0139566
-0.00109928
-1.71944e-06
-0.0137746
-0.00108473
-4.64655e-05
-0.0138611
-0.00108817
-4.28992e-06
-0.0138791
-0.00108336
6.65027e-05
-0.0138626
-0.00105877
-0.0140341
-0.00112338
-8.74125e-05
-0.215947
-0.0511986
-0.000160281
-0.215475
-0.0508645
-0.000506453
-0.216519
-0.051023
-0.000116563
-0.215107
-0.0509609
0.00113793
-0.212711
-0.0504482
-0.219362
-0.0517613
-0.0005406
-0.427193
-8.97786e-06
-0.427852
-0.000999609
-0.430477
-0.000498989
-0.424047
0.0028617
-0.418203
-0.436434
4.01437e-13
-7.332e-09
-2.13723e-08
1.58693e-13
-7.30284e-09
-2.13728e-08
3.30661e-14
-7.31271e-09
-2.13752e-08
-1.01547e-13
-7.30963e-09
-2.13754e-08
-4.05158e-13
-7.28794e-09
-2.13708e-08
-7.33616e-09
-2.13746e-08
7.5545e-14
2.85342e-16
-9.18606e-17
2.74632e-14
3.12503e-16
-8.44355e-17
2.62425e-15
3.20778e-16
-8.54743e-17
-2.25427e-14
3.13647e-16
-8.2843e-17
-7.71818e-14
3.11793e-16
-8.00114e-17
3.19287e-16
-8.9136e-17
-5.87438e-21
2.81839e-17
-2.25373e-21
3.08613e-17
-3.35727e-22
3.16817e-17
1.8284e-21
3.09774e-17
6.85683e-21
3.07936e-17
3.15406e-17
2.2577e-11
-4.54438e-14
-7.69209e-08
7.13904e-12
-4.17703e-14
-7.68772e-08
-2.56035e-12
-4.2284e-14
-7.68923e-08
-1.17134e-11
-4.09822e-14
-7.68896e-08
-2.65724e-11
-3.95817e-14
-7.68606e-08
-4.40954e-14
-7.69327e-08
3.24535e-20
1.69854e-15
-4.72343e-14
8.51939e-21
1.86017e-15
-4.37149e-14
-2.57449e-21
1.90954e-15
-4.4279e-14
-1.29659e-20
1.86706e-15
-4.29321e-14
-3.90579e-20
1.85602e-15
-4.15177e-14
1.90077e-15
-4.60853e-14
-3.34165e-20
4.60689e-16
-1.09155e-20
5.0495e-16
7.73694e-22
5.18483e-16
1.25753e-20
5.06838e-16
4.11807e-20
5.03805e-16
5.16103e-16
2.25332e-12
-8.67432e-12
-1.40597e-08
3.83894e-13
-8.02803e-12
-1.40542e-08
-1.33834e-12
-8.13161e-12
-1.40551e-08
-2.86746e-12
-7.88434e-12
-1.40539e-08
-4.29814e-12
-7.62465e-12
-1.40517e-08
-8.46348e-12
-1.40584e-08
5.00526e-18
9.56053e-15
-8.73112e-12
8.10194e-19
1.04807e-14
-8.08222e-12
-1.14386e-18
1.07613e-14
-8.18665e-12
-2.75571e-18
1.05195e-14
-7.93779e-12
-6.81575e-18
1.04569e-14
-7.67662e-12
1.07105e-14
-8.52029e-12
-1.92214e-19
-6.59078e-16
-5.29208e-20
-6.58546e-16
2.35846e-20
-6.58696e-16
8.90701e-20
-6.5868e-16
2.31142e-19
-6.58568e-16
-6.5885e-16
1.62693e-14
-5.68787e-11
-1.84019e-08
1.06202e-14
-5.45869e-11
-1.83975e-08
5.23012e-15
-5.49539e-11
-1.83982e-08
-6.03749e-15
-5.40643e-11
-1.83978e-08
-2.32315e-14
-5.31365e-11
-1.83961e-08
-5.61215e-11
-1.84016e-08
3.65698e-16
-3.04971e-14
1.96804e-12
9.67909e-17
-2.87936e-14
2.40343e-12
-3.74748e-17
-2.90692e-14
2.33493e-12
-1.45195e-16
-2.84148e-14
2.50434e-12
-3.90621e-16
-2.77254e-14
2.68026e-12
-2.994e-14
2.10833e-12
5.10532e-20
-3.11754e-14
8.11476e-21
-2.947e-14
-1.13404e-20
-2.9746e-14
-2.79092e-20
-2.90909e-14
-6.28139e-20
-2.84008e-14
-3.06177e-14
2.80191e-13
-2.56802e-10
2.17697e-08
8.39649e-13
-2.57259e-10
2.17802e-08
7.69033e-13
-2.57193e-10
2.17758e-08
3.65666e-13
-2.57198e-10
2.17719e-08
-2.25342e-13
-2.57292e-10
2.17628e-08
-2.56855e-10
2.17451e-08
3.86437e-15
-2.87887e-13
-2.68885e-10
9.33753e-16
-2.89406e-13
-2.68904e-10
-2.61586e-16
-2.89306e-13
-2.68907e-10
-1.8263e-15
-2.8934e-13
-2.68741e-10
-4.9482e-15
-2.89614e-13
-2.68655e-10
-2.87908e-13
-2.68801e-10
3.1103e-18
-4.48218e-13
-5.32718e-19
-4.50364e-13
-2.03976e-18
-4.51305e-13
-3.69505e-18
-4.50047e-13
-5.80024e-18
-4.49445e-13
-4.50707e-13
2.00386e-11
2.55673e-08
-1.34767e-07
3.86858e-11
2.55207e-08
-1.34304e-07
3.80981e-11
2.55452e-08
-1.34474e-07
2.85852e-11
2.55419e-08
-1.34548e-07
7.29023e-12
2.55302e-08
-1.34499e-07
2.55449e-08
-1.34587e-07
6.84714e-13
7.62423e-10
-1.43627e-08
8.59555e-14
7.61913e-10
-1.43323e-08
1.97513e-13
7.62444e-10
-1.4351e-08
2.16212e-13
7.62592e-10
-1.43557e-08
-3.90196e-13
7.62456e-10
-1.43565e-08
7.62669e-10
-1.43542e-08
5.84298e-15
-1.10264e-10
1.05855e-16
-1.10057e-10
-1.52643e-15
-1.10206e-10
-2.57415e-15
-1.1025e-10
-5.10197e-15
-1.10242e-10
-1.1025e-10
2.74121e-09
6.15042e-07
-3.00431e-06
9.20026e-10
6.15063e-07
-2.98198e-06
8.63708e-10
6.15058e-07
-2.99321e-06
7.27173e-10
6.14905e-07
-2.99549e-06
-4.6384e-10
6.14945e-07
-2.99222e-06
6.14811e-07
-2.99829e-06
2.80081e-12
2.20971e-08
-1.13936e-07
-1.84977e-11
2.21888e-08
-1.1407e-07
-1.98196e-11
2.21528e-08
-1.14276e-07
-3.10382e-12
2.21526e-08
-1.1464e-07
-1.4336e-11
2.21615e-08
-1.14621e-07
2.21463e-08
-1.14646e-07
-1.98296e-13
8.11841e-09
-3.6189e-13
8.12547e-09
-4.40841e-13
8.11372e-09
-2.19455e-13
8.09662e-09
3.64605e-14
8.0976e-09
8.09823e-09
-5.05132e-08
1.79462e-05
-9.51439e-05
3.30887e-08
1.80673e-05
-9.59821e-05
2.21711e-08
1.80303e-05
-9.54565e-05
3.18914e-09
1.79988e-05
-9.54969e-05
8.11015e-09
1.81699e-05
-9.56323e-05
1.7992e-05
-9.55637e-05
-7.27169e-09
1.88958e-06
1.4971e-05
1.39566e-09
1.88809e-06
1.51179e-05
1.31005e-09
1.88397e-06
1.50957e-05
-7.37141e-10
1.87862e-06
1.51235e-05
-3.14008e-10
1.87609e-06
1.53093e-05
1.87847e-06
1.51143e-05
-1.141e-10
1.1813e-06
-7.06883e-12
1.17949e-06
1.52576e-12
1.17548e-06
-1.46624e-11
1.17021e-06
-1.79055e-11
1.16776e-06
1.17e-06
9.3337e-07
9.83724e-05
-0.00101331
-1.23472e-07
0.000100159
-0.00101645
-2.90338e-07
9.86085e-05
-0.00101484
-4.39761e-08
9.76694e-05
-0.00101465
-2.0516e-07
0.000100568
-0.00101505
9.75225e-05
-0.00101436
-2.7599e-08
3.36699e-05
8.67815e-05
-1.01606e-08
3.37902e-05
8.87532e-05
4.69047e-10
3.36355e-05
8.74972e-05
-7.7024e-09
3.35143e-05
8.67113e-05
-1.46607e-08
3.34995e-05
8.97295e-05
3.34983e-05
8.65459e-05
-2.10625e-09
1.69573e-05
-1.0689e-09
1.69579e-05
-2.8079e-10
1.68569e-05
-1.09713e-09
1.67503e-05
-1.26097e-09
1.67192e-05
1.67406e-05
-1.59276e-06
-9.97902e-05
-0.0649014
-5.41911e-07
-0.000102002
-0.0653739
1.18947e-06
-0.000100771
-0.065186
9.84606e-07
-9.97516e-05
-0.0651401
6.71816e-07
-0.000102465
-0.0652311
-9.95917e-05
-0.0650888
1.10134e-08
4.67946e-06
-8.75189e-06
-1.34596e-09
4.70902e-06
-8.78455e-06
-1.66232e-10
4.59609e-06
-8.72373e-06
6.97767e-14
4.47779e-06
-8.64021e-06
-4.53748e-09
4.59032e-06
-8.67191e-06
4.47715e-06
-8.65002e-06
-2.48586e-09
2.33008e-05
-2.54677e-09
2.33396e-05
-3.77272e-09
2.2994e-05
-1.13736e-09
2.27319e-05
1.45047e-08
2.25928e-05
2.27408e-05
-0.000100433
-0.000426456
-0.0287475
1.65069e-05
-0.000428606
-0.0289788
3.06134e-05
-0.000428137
-0.0288868
4.70431e-06
-0.000428056
-0.0288598
3.30845e-05
-0.000429144
-0.0288716
-0.000427183
-0.0288773
1.57678e-08
-0.000410716
-1.99241e-05
5.92895e-09
-0.000412695
-1.99062e-05
8.05561e-09
-0.000411989
-1.99368e-05
6.19971e-09
-0.000411845
-1.99369e-05
-3.432e-10
-0.000412962
-2.00211e-05
-0.000411083
-1.98641e-05
3.10439e-07
1.52632e-05
3.45383e-08
1.48442e-05
-7.61398e-08
1.50246e-05
1.06561e-07
1.49665e-05
4.7228e-07
1.45824e-05
1.53885e-05
-0.000176083
-0.000557114
-0.132908
-7.29344e-06
-0.000556587
-0.132714
1.318e-05
-0.000557188
-0.132794
-4.03706e-06
-0.000557675
-0.13285
4.96605e-05
-0.000560648
-0.13288
-0.000554469
-0.132792
-2.0897e-08
-1.52623e-05
-0.000565403
-5.11123e-10
-1.48444e-05
-0.000565333
-2.8257e-09
-1.50246e-05
-0.00056576
9.99175e-10
-1.49659e-05
-0.000566314
1.57384e-08
-1.45826e-05
-0.000569779
-1.53877e-05
-0.000562616
2.96934e-10
-1.5643e-21
6.05908e-11
-1.45838e-21
2.47462e-11
-1.49706e-21
2.19956e-11
-1.49697e-21
-1.9322e-10
-1.43928e-21
-1.58621e-21
-0.000417684
-0.000169989
-0.622961
0.557877
-0.000311853
-0.000158186
-0.62352
0.558038
-0.000316318
-0.000156578
-0.623838
0.55847
-0.000168904
-0.000171267
-0.622443
0.557621
0.00120012
-0.000166707
-0.622667
0.556847
-0.000152586
-0.622804
0.55836
-1.47e-08
-8.53549e-05
-9.96133e-05
1.97365e-05
8.27653e-09
-8.09844e-05
-9.93398e-05
1.8447e-05
3.40928e-08
-7.9217e-05
-9.91084e-05
1.74188e-05
4.19224e-08
-8.57562e-05
-0.000100286
1.92654e-05
1.62063e-07
-7.81865e-05
-0.000101253
1.74456e-05
-7.03119e-05
-9.90275e-05
1.45273e-05
-3.23148e-08
4.4663e-24
3.0381e-05
1.08024e-07
1.77323e-24
2.66666e-05
2.77323e-07
8.7181e-24
2.63544e-05
1.9031e-08
3.33444e-24
4.05438e-05
-1.72316e-07
2.08873e-24
6.22234e-05
3.28176e-24
2.47661e-05
-0.00020013
-0.00143168
-0.667041
-0.000232063
-0.00143421
-0.667046
-0.000686616
-0.00143186
-0.667198
1.93911e-05
-0.00144001
-0.66647
0.0019882
-0.0014561
-0.666061
-0.00142234
-0.667638
-1.1963e-07
1.00956e-23
-0.00153118
3.84593e-08
4.11148e-24
-0.0015337
2.82276e-07
2.01984e-23
-0.00153121
1.37462e-07
7.43902e-24
-0.00154015
1.15085e-07
4.65649e-24
-0.00155733
7.53464e-24
-0.00152125
1.87002e-26
4.23892e-25
-9.66864e-27
3.64562e-25
-2.44091e-25
5.10573e-25
-8.4918e-27
2.50792e-25
1.0421e-25
1.52519e-24
3.24663e-25
-8.9966e-05
-0.0242217
-0.540684
-9.78226e-05
-0.0242399
-0.540699
-0.000166749
-0.0241822
-0.540748
4.00706e-05
-0.0243739
-0.54045
0.000661621
-0.0246478
-0.540052
-0.0239523
-0.541117
-3.52364e-07
6.88766e-25
-0.0257525
-1.04875e-06
2.24042e-23
-0.0257729
-3.71176e-06
3.09401e-23
-0.0257107
2.82668e-07
2.27475e-23
-0.0259181
9.70055e-06
2.48942e-24
-0.0262146
1.93143e-23
-0.0254639
-1.00891e-27
1.61763e-23
-1.28708e-27
2.03035e-23
-4.13063e-28
2.20083e-23
-1.30644e-27
2.25703e-23
-1.61469e-26
2.15931e-23
1.58077e-23
-1.70705e-05
-0.0330613
-0.334031
-4.91805e-05
-0.0330937
-0.334011
3.41218e-05
-0.0332548
-0.33403
1.05791e-05
-0.0329738
-0.333926
-6.466e-05
-0.0328192
-0.33364
-0.0334538
-0.334188
-2.44609e-05
5.80485e-23
-0.0381558
-1.3355e-05
7.32877e-23
-0.0382422
-4.80182e-05
7.91309e-23
-0.0381701
-5.3441e-06
8.10319e-23
-0.0383031
0.000163308
7.81783e-23
-0.0386491
5.62431e-23
-0.0378076
5.9547e-26
5.70335e-24
-7.19182e-27
7.18455e-24
-8.72282e-27
7.80792e-24
2.49763e-27
7.93833e-24
-1.55722e-25
7.56661e-24
5.64489e-24
4.00701e-05
-0.0137014
-0.146808
-1.86092e-06
-0.0135705
-0.146852
0.000164381
-0.013797
-0.146873
-2.86466e-05
-0.0134236
-0.146792
-0.000784995
-0.0126711
-0.146696
-0.0145395
-0.146917
-5.10891e-05
1.23006e-22
0.0163095
-2.47615e-05
1.55357e-22
0.0163252
-7.38885e-05
1.67873e-22
0.0163227
1.72257e-06
1.71562e-22
0.0163593
0.000298289
1.65461e-22
0.0165009
1.19027e-22
0.0161861
4.51474e-26
-1.70221e-23
5.99146e-27
-2.14896e-23
7.30279e-26
-2.32366e-23
-4.5141e-27
-2.37188e-23
-3.78957e-25
-2.28578e-23
-1.64754e-23
-0.000139092
-0.0157451
-8.99858e-06
-0.0157591
5.04527e-06
-0.0157576
1.04175e-05
-0.0157921
-9.62353e-06
-0.0159275
-0.0156271
-9.99024e-07
1.21717e-19
-2.79814e-07
1.18652e-19
-8.94181e-07
1.20265e-19
2.73337e-08
1.1995e-19
3.62691e-06
1.19319e-19
1.23223e-19
-1.2554e-24
-2.64743e-25
-1.06067e-24
-3.25854e-25
4.99639e-24
-8.93546e-27
5.69707e-21
-8.06465e-20
-1.42511e-26
5.66566e-21
-8.00983e-20
-1.24724e-26
5.70904e-21
-8.04491e-20
-7.12851e-27
5.6338e-21
-7.9768e-20
8.90901e-28
5.58127e-21
-7.91728e-20
5.82047e-21
-8.18648e-20
-7.29716e-28
6.70355e-22
-6.34496e-21
-9.19776e-28
6.68672e-22
-6.32708e-21
-7.90913e-28
6.70336e-22
-6.33552e-21
-1.79488e-28
6.65757e-22
-6.30862e-21
8.96204e-28
6.54133e-22
-6.18609e-21
6.85494e-22
-6.47893e-21
6.48191e-30