/*--------------------------------*- C++ -*----------------------------------*\
| =========                 |                                                 |
| \\      /  F ield         | OpenFOAM: The Open Source CFD Toolbox           |
|  \\    /   O peration     | Version:  v1612+                                |
|   \\  /    A nd           | Web:      www.OpenFOAM.com                      |
|    \\/     M anipulation  |                                                 |
\*---------------------------------------------------------------------------*/
FoamFile
{
    version     2.0;
    format      ascii;
    class       volScalarField;
    location    "1.8";
    object      alpha.water;
}
// * * * * * * * * * * * * * * * * * * * * * * * * * * * * * * * * * * * * * //

dimensions      [0 0 0 0 0 0 0];

internalField   nonuniform List<scalar> 
1116
(
0.999995
0.999995
0.999995
0.999995
0.999995
0.999995
0.999995
0.999995
0.999995
0.999995
0.999995
0.999995
0.999958
0.999958
0.999958
0.999958
0.999958
0.999958
0.999919
0.999919
0.999919
0.999919
0.999919
0.999919
0.999605
0.999605
0.999605
0.999605
0.999605
0.999605
0.998338
0.998338
0.998338
0.998338
0.998338
0.998338
0.974767
0.974764
0.974765
0.974765
0.974765
0.974765
0.915698
0.915688
0.915688
0.915689
0.915689
0.915689
0.812298
0.812282
0.812284
0.812284
0.812283
0.812286
0.81458
0.814572
0.814566
0.814566
0.814566
0.814568
0.81368
0.813668
0.813667
0.813667
0.813666
0.813669
0.465822
0.465862
0.465863
0.465869
0.46587
0.465845
0.999995
0.999995
0.999995
0.999995
0.999995
0.999995
0.999972
0.999972
0.999972
0.999972
0.999972
0.999972
0.999634
0.999634
0.999634
0.999634
0.999634
0.999634
0.942787
0.942787
0.942789
0.94279
0.94279
0.942792
0.82569
0.825689
0.82569
0.82569
0.825689
0.825689
0.616806
0.616797
0.616799
0.616801
0.6168
0.616798
0.351514
0.3515
0.351502
0.351504
0.351505
0.351503
0.125336
0.125327
0.125326
0.125328
0.125328
0.125327
0.00798256
0.00798213
0.00798161
0.00798135
0.00798133
0.00798116
0.0186665
0.0186658
0.0186689
0.0186684
0.0186672
0.0186662
0.0682138
0.0682128
0.0682135
0.0682108
0.0682037
0.0682073
0.305746
0.305752
0.305755
0.305755
0.305752
0.305744
0.99996
0.99996
0.99996
0.99996
0.99996
0.99996
0.834276
0.834273
0.834274
0.834276
0.834276
0.83428
0.581909
0.581906
0.581908
0.581911
0.58191
0.581914
0.256232
0.25623
0.256233
0.256236
0.256237
0.25624
0.006167
0.00616563
0.00616669
0.00616767
0.00616781
0.00616836
1.96547e-08
1.96571e-08
1.96593e-08
1.96611e-08
1.9662e-08
1.96626e-08
1.41048e-10
1.41103e-10
1.41148e-10
1.41175e-10
1.41188e-10
1.41212e-10
2.0482e-10
2.04913e-10
2.04987e-10
2.05038e-10
2.05053e-10
2.05112e-10
4.32752e-09
4.32885e-09
4.32885e-09
4.32895e-09
4.32424e-09
4.32761e-09
-9.9945e-07
-1.00017e-06
-1.00024e-06
-1.00015e-06
-9.99704e-07
-9.98931e-07
8.66434e-05
8.66431e-05
8.66561e-05
8.66471e-05
8.65851e-05
8.66326e-05
0.123464
0.12345
0.123454
0.123447
0.123451
0.123434
0.913986
0.913984
0.913986
0.913986
0.913986
0.913988
0.0938591
0.0938567
0.0938576
0.0938597
0.0938604
0.0938624
8.4894e-07
8.48531e-07
8.4846e-07
8.4868e-07
8.48767e-07
8.48309e-07
3.63228e-07
3.63224e-07
3.63223e-07
3.63225e-07
3.63236e-07
3.63255e-07
1.91218e-08
1.91241e-08
1.91261e-08
1.91279e-08
1.91287e-08
1.91293e-08
-1.3915e-12
-1.39188e-12
-1.39233e-12
-1.39262e-12
-1.39275e-12
-1.39202e-12
3.20791e-12
3.2153e-12
3.21311e-12
3.21206e-12
3.20762e-12
3.20477e-12
2.62281e-10
2.6236e-10
2.62458e-10
2.62514e-10
2.6256e-10
2.62614e-10
8.01429e-10
8.01334e-10
8.01781e-10
8.01749e-10
8.01126e-10
8.02563e-10
-2.66913e-08
-2.67242e-08
-2.67079e-08
-2.67881e-08
-2.68715e-08
-2.72863e-08
2.23372e-06
2.23513e-06
2.2359e-06
2.23559e-06
2.23464e-06
2.23378e-06
6.75123e-05
6.75105e-05
6.75228e-05
6.75184e-05
6.74367e-05
6.75536e-05
4.74945e-64
4.75874e-64
4.75864e-64
4.75968e-64
4.76298e-64
4.75556e-64
7.36091e-60
7.37606e-60
7.37626e-60
7.37841e-60
7.38405e-60
7.37399e-60
5.42948e-56
5.44064e-56
5.44098e-56
5.44269e-56
5.44708e-56
5.44019e-56
2.50712e-52
2.51221e-52
2.5124e-52
2.51322e-52
2.51534e-52
2.51239e-52
8.08295e-49
8.0986e-49
8.09918e-49
8.10186e-49
8.10903e-49
8.10043e-49
1.91959e-45
1.92305e-45
1.92315e-45
1.92382e-45
1.92562e-45
1.92387e-45
3.45091e-42
3.45637e-42
3.45643e-42
3.45774e-42
3.46125e-42
3.45884e-42
4.77511e-39
4.78078e-39
4.78062e-39
4.78263e-39
4.78801e-39
4.78599e-39
5.3489e-36
5.35091e-36
5.34979e-36
5.35245e-36
5.3598e-36
5.36016e-36
5.02998e-33
5.03233e-33
5.03179e-33
5.03474e-33
5.04221e-33
5.04384e-33
4.17065e-30
4.17876e-30
4.17963e-30
4.182e-30
4.18743e-30
4.18814e-30
1.98715e-27
1.992e-27
1.99223e-27
1.99239e-27
1.99314e-27
1.99069e-27
1.41739e-60
1.41979e-60
1.41971e-60
1.41999e-60
1.42097e-60
1.41888e-60
2.15048e-56
2.15423e-56
2.15416e-56
2.15472e-56
2.15633e-56
2.15352e-56
1.549e-52
1.55162e-52
1.55161e-52
1.55202e-52
1.55322e-52
1.55132e-52
6.9603e-49
6.97141e-49
6.97121e-49
6.97302e-49
6.97852e-49
6.97046e-49
2.1764e-45
2.17942e-45
2.17922e-45
2.17973e-45
2.18143e-45
2.17908e-45
4.95432e-42
4.9586e-42
4.95743e-42
4.95837e-42
4.96236e-42
4.95798e-42
8.30389e-39
8.30373e-39
8.30007e-39
8.30171e-39
8.30965e-39
8.30562e-39
9.88847e-36
9.87289e-36
9.86493e-36
9.86774e-36
9.88099e-36
9.88361e-36
9.43033e-33
9.41279e-33
9.40496e-33
9.40895e-33
9.42418e-33
9.43047e-33
7.96793e-30
7.95911e-30
7.95537e-30
7.95967e-30
7.97261e-30
7.97944e-30
6.21701e-27
6.22668e-27
6.22721e-27
6.22991e-27
6.2371e-27
6.23776e-27
1.94158e-24
1.94563e-24
1.94565e-24
1.94563e-24
1.94616e-24
1.94365e-24
6.74543e-57
6.75799e-57
6.75743e-57
6.75823e-57
6.76179e-57
6.74965e-57
1.06388e-52
1.06589e-52
1.06583e-52
1.06599e-52
1.06659e-52
1.06482e-52
7.87243e-49
7.88698e-49
7.8865e-49
7.88771e-49
7.89222e-49
7.87953e-49
3.57565e-45
3.58199e-45
3.58171e-45
3.58224e-45
3.58429e-45
3.57877e-45
1.1075e-41
1.10933e-41
1.10922e-41
1.10937e-41
1.11001e-41
1.1084e-41
2.44039e-38
2.44403e-38
2.44372e-38
2.44403e-38
2.44546e-38
2.44217e-38
3.74418e-35
3.74895e-35
3.7483e-35
3.74876e-35
3.75099e-35
3.74646e-35
3.86285e-32
3.86654e-32
3.86561e-32
3.86606e-32
3.86851e-32
3.8645e-32
2.73398e-29
2.73555e-29
2.73469e-29
2.73503e-29
2.73696e-29
2.73478e-29
1.38908e-26
1.38963e-26
1.38921e-26
1.38943e-26
1.39053e-26
1.38985e-26
6.15139e-24
6.16059e-24
6.16046e-24
6.16149e-24
6.16589e-24
6.16307e-24
9.35942e-22
9.37648e-22
9.37583e-22
9.37468e-22
9.37556e-22
9.36163e-22
3.19095e-54
3.19744e-54
3.19735e-54
3.19768e-54
3.19912e-54
3.19313e-54
5.40149e-50
5.41242e-50
5.41238e-50
5.41307e-50
5.41557e-50
5.40607e-50
4.29741e-46
4.30582e-46
4.30576e-46
4.30625e-46
4.30817e-46
4.30085e-46
2.10661e-42
2.11042e-42
2.11034e-42
2.11051e-42
2.11138e-42
2.10796e-42
7.00201e-39
7.01337e-39
7.01275e-39
7.01298e-39
7.01546e-39
7.00457e-39
1.60963e-35
1.61191e-35
1.61166e-35
1.61164e-35
1.61214e-35
1.60972e-35
2.38123e-32
2.38367e-32
2.38304e-32
2.38292e-32
2.38368e-32
2.38051e-32
2.05114e-29
2.05212e-29
2.05128e-29
2.05115e-29
2.05197e-29
2.04976e-29
1.1725e-26
1.17271e-26
1.17215e-26
1.1721e-26
1.17269e-26
1.1717e-26
4.93617e-24
4.93692e-24
4.93485e-24
4.93512e-24
4.93856e-24
4.93622e-24
1.99188e-21
1.99467e-21
1.99445e-21
1.99438e-21
1.995e-21
1.9929e-21
1.77691e-19
1.7796e-19
1.7794e-19
1.77913e-19
1.77914e-19
1.77647e-19
0.312508
0.312508
0.31251
0.312509
0.312509
0.312516
0.0214444
0.0214469
0.0214474
0.0214457
0.0214458
0.021451
-1.46388e-13
-1.60354e-13
-1.64594e-13
-1.60931e-13
-1.59984e-13
-1.63797e-13
8.48943e-07
8.48534e-07
8.48463e-07
8.48683e-07
8.4877e-07
8.48312e-07
0.0010842
0.00108419
0.00108423
0.0010842
0.0010842
0.00108435
-4.53358e-13
-4.96584e-13
-5.09723e-13
-4.98381e-13
-4.95442e-13
-5.07257e-13
3.53193e-07
3.53603e-07
3.53683e-07
3.53441e-07
3.5338e-07
3.539e-07
1.44307e-11
1.18964e-11
1.18391e-11
1.34413e-11
1.44007e-11
1.488e-11
-2.00314e-12
-2.19415e-12
-2.2522e-12
-2.20207e-12
-2.18911e-12
-2.24129e-12
6.8819e-07
6.88187e-07
6.88187e-07
6.88187e-07
6.88187e-07
6.88198e-07
6.08291e-06
6.08287e-06
6.08285e-06
6.0829e-06
6.08292e-06
6.08294e-06
-4.17885e-12
-4.57722e-12
-4.69822e-12
-4.59362e-12
-4.56661e-12
-4.67527e-12
7.06272e-07
7.06204e-07
7.06188e-07
7.06158e-07
7.06125e-07
7.06102e-07
4.57759e-06
4.57697e-06
4.57716e-06
4.57711e-06
4.57697e-06
4.57724e-06
-8.38375e-16
-9.9606e-16
-1.12582e-15
-1.07338e-15
-1.02189e-15
3.66877e-30
1.3461e-16
1.34083e-16
1.34313e-16
1.34444e-16
1.34984e-16
1.34829e-16
3.30978e-17
3.31057e-17
3.31161e-17
3.31209e-17
3.31242e-17
3.31161e-17
2.55564e-17
2.55646e-17
2.55671e-17
2.55695e-17
2.55742e-17
2.55657e-17
3.06153e-14
3.06951e-14
3.06695e-14
3.06562e-14
3.06116e-14
3.05817e-14
-4.98071e-15
-4.98109e-15
-4.98182e-15
-4.98245e-15
-4.98434e-15
-4.98118e-15
2.86429e-18
2.84838e-18
2.84723e-18
2.84486e-18
2.84007e-18
2.85527e-18
2.1604e-12
2.16666e-12
2.16453e-12
2.16348e-12
2.15945e-12
2.15681e-12
9.46861e-14
9.46943e-14
9.47087e-14
9.47205e-14
9.47584e-14
9.46886e-14
-1.18774e-16
-1.24726e-16
-1.22842e-16
-1.22375e-16
-1.27943e-16
-1.17567e-16
2.3066e-07
2.3075e-07
2.30724e-07
2.30723e-07
2.30471e-07
2.30612e-07
1.81394e-11
1.81331e-11
1.81355e-11
1.81377e-11
1.81438e-11
1.814e-11
-2.96498e-13
-2.96522e-13
-2.96591e-13
-2.96652e-13
-2.96699e-13
-2.96661e-13
1.45598e-06
1.45646e-06
1.45701e-06
1.45703e-06
1.45349e-06
1.45667e-06
1.1226e-07
1.1209e-07
1.12127e-07
1.12146e-07
1.12198e-07
1.12417e-07
1.24484e-07
1.24449e-07
1.2447e-07
1.24489e-07
1.24503e-07
1.24585e-07
1.50136e-06
1.50187e-06
1.50244e-06
1.50246e-06
1.49881e-06
1.50214e-06
7.61348e-06
7.60515e-06
7.60803e-06
7.60801e-06
7.59863e-06
7.61626e-06
7.89418e-06
7.89232e-06
7.89314e-06
7.89352e-06
7.89536e-06
7.89723e-06
7.60382e-06
7.60446e-06
7.60669e-06
7.60626e-06
7.5954e-06
7.60833e-06
8.00175e-06
7.99358e-06
7.99652e-06
7.99645e-06
7.9867e-06
8.00469e-06
7.9263e-06
7.92348e-06
7.92452e-06
7.92485e-06
7.92591e-06
7.92887e-06
5.7762e-15
5.78231e-15
5.78048e-15
5.77828e-15
5.77694e-15
5.76424e-15
2.51143e-15
2.51412e-15
2.51371e-15
2.51251e-15
2.51235e-15
2.50411e-15
7.35138e-15
7.36871e-15
7.36389e-15
7.36174e-15
7.36225e-15
7.34263e-15
6.42062e-15
6.42789e-15
6.42572e-15
6.4231e-15
6.42219e-15
6.40555e-15
1.90193e-13
1.90522e-13
1.90411e-13
1.90282e-13
1.90373e-13
1.8932e-13
1.87534e-12
1.87945e-12
1.87809e-12
1.87733e-12
1.87829e-12
1.87058e-12
8.66352e-11
8.66303e-11
8.66189e-11
8.65387e-11
8.6788e-11
8.57266e-11
7.84973e-11
7.8602e-11
7.85639e-11
7.85246e-11
7.85925e-11
7.81681e-11
2.88915e-10
2.89515e-10
2.89306e-10
2.89221e-10
2.89353e-10
2.88412e-10
1.05273e-07
1.05346e-07
1.05309e-07
1.05287e-07
1.05335e-07
1.0509e-07
1.37773e-08
1.37907e-08
1.37848e-08
1.37795e-08
1.37934e-08
1.37289e-08
6.46647e-07
6.47768e-07
6.47335e-07
6.47195e-07
6.47337e-07
6.45902e-07
2.47428e-08
2.47369e-08
2.47324e-08
2.4724e-08
2.47166e-08
2.47166e-08
8.74198e-05
8.74785e-05
8.74516e-05
8.74406e-05
8.74945e-05
8.73201e-05
2.17422e-05
2.17724e-05
2.17607e-05
2.17571e-05
2.17698e-05
2.17193e-05
0.000885603
0.000885862
0.000885756
0.000885704
0.000886458
0.000884722
0.000548417
0.000548637
0.000548554
0.000548517
0.000548832
0.000548037
2.45366e-05
2.45691e-05
2.4557e-05
2.45532e-05
2.4555e-05
2.45287e-05
4.70291e-51
4.71201e-51
4.71156e-51
4.71173e-51
4.71334e-51
4.70371e-51
8.11235e-53
8.12897e-53
8.12885e-53
8.12917e-53
8.13145e-53
8.11421e-53
3.24501e-56
3.25202e-56
3.25193e-56
3.25207e-56
3.25304e-56
3.24587e-56
1.06587e-46
1.06792e-46
1.06783e-46
1.06787e-46
1.06823e-46
1.06613e-46
3.71445e-48
3.72188e-48
3.72186e-48
3.722e-48
3.72296e-48
3.7155e-48
1.70686e-51
1.71044e-51
1.7104e-51
1.71046e-51
1.71092e-51
1.70732e-51
1.10296e-42
1.10502e-42
1.10491e-42
1.10492e-42
1.10527e-42
1.10313e-42
8.01864e-44
8.03389e-44
8.03381e-44
8.03392e-44
8.03567e-44
8.02027e-44
4.60226e-47
4.61149e-47
4.61138e-47
4.61147e-47
4.61256e-47
4.6032e-47
6.66335e-39
6.67533e-39
6.67451e-39
6.67443e-39
6.67627e-39
6.6636e-39
1.03145e-39
1.03331e-39
1.03329e-39
1.03329e-39
1.03347e-39
1.0316e-39
8.14108e-43
8.15656e-43
8.15638e-43
8.15644e-43
8.15814e-43
8.14247e-43
2.51354e-35
2.51785e-35
2.51749e-35
2.5174e-35
2.51801e-35
2.51335e-35
8.38536e-36
8.39966e-36
8.39948e-36
8.39934e-36
8.40054e-36
8.38611e-36
1.04311e-38
1.045e-38
1.04497e-38
1.04497e-38
1.04515e-38
1.04324e-38
5.86295e-32
5.87255e-32
5.8716e-32
5.87127e-32
5.87251e-32
5.86193e-32
4.3351e-32
4.34224e-32
4.34212e-32
4.34199e-32
4.34244e-32
4.33527e-32
1.05844e-34
1.06032e-34
1.0603e-34
1.06028e-34
1.06042e-34
1.05854e-34
7.95189e-29
7.96418e-29
7.96276e-29
7.96213e-29
7.96358e-29
7.94964e-29
1.42133e-28
1.42354e-28
1.42348e-28
1.4234e-28
1.42347e-28
1.42124e-28
8.38245e-31
8.39661e-31
8.39605e-31
8.39554e-31
8.39612e-31
8.38163e-31
5.80972e-26
5.81814e-26
5.81699e-26
5.81638e-26
5.81726e-26
5.80739e-26
2.98539e-25
2.98983e-25
2.98961e-25
2.98933e-25
2.98931e-25
2.98479e-25
4.73637e-27
4.74461e-27
4.74376e-27
4.74317e-27
4.74328e-27
4.73445e-27
2.20165e-23
2.20461e-23
2.20413e-23
2.20385e-23
2.20412e-23
2.20054e-23
3.73356e-22
3.73882e-22
3.73836e-22
3.73783e-22
3.73758e-22
3.7321e-22
1.74152e-23
1.74487e-23
1.74428e-23
1.74394e-23
1.74399e-23
1.74021e-23
4.50596e-21
4.51159e-21
4.5106e-21
4.50993e-21
4.51028e-21
4.50332e-21
2.33082e-19
2.33399e-19
2.33358e-19
2.33315e-19
2.33288e-19
2.32945e-19
3.6266e-20
3.63424e-20
3.6325e-20
3.63157e-20
3.63186e-20
3.62259e-20
6.06101e-19
6.06847e-19
6.0672e-19
6.06615e-19
6.06609e-19
6.05734e-19
5.7576e-17
5.76537e-17
5.76401e-17
5.76267e-17
5.76177e-17
5.75253e-17
2.86412e-17
2.87036e-17
2.86869e-17
2.86784e-17
2.86824e-17
2.86013e-17
6.10951e-17
6.11784e-17
6.1164e-17
6.1149e-17
6.11413e-17
6.10356e-17
3.15176e-15
3.15594e-15
3.15497e-15
3.15407e-15
3.1536e-15
3.14775e-15
3.39593e-15
3.40306e-15
3.40093e-15
3.3999e-15
3.40027e-15
3.39109e-15
)
;

boundaryField
{
    seabed_topleft_surface
    {
        type            zeroGradient;
    }
    seabed_topright_surface
    {
        type            zeroGradient;
    }
    breakwater_top_surface
    {
        type            zeroGradient;
    }
    breakwater_left_surface
    {
        type            zeroGradient;
    }
    breakwater_right_surface
    {
        type            zeroGradient;
    }
    water_front_surface
    {
        type            zeroGradient;
    }
    water_back_surface
    {
        type            zeroGradient;
    }
    water_left_surface
    {
        type            zeroGradient;
    }
    water_right_surface
    {
        type            zeroGradient;
    }
    water_top_surface
    {
        type            inletOutlet;
        inletValue      uniform 0;
        value           nonuniform List<scalar> 
180
(
0
0
0
0
0
0
0
0
0
0
0
0
0
0
0
0
0
0
0
0
0
0
0
0
0
0
0
0
0
0
0
0
0
0
0
0
0
0
0
0
0
0
0
0
0
0
0
0
0
0
0
0
0
0
0
0
0
0
0
0
0
0
0
0
0
0
7.9263e-06
7.92348e-06
7.92452e-06
7.92485e-06
7.92591e-06
7.92887e-06
7.35138e-15
7.36871e-15
7.36389e-15
7.36174e-15
7.36225e-15
7.34263e-15
1.87534e-12
1.87945e-12
1.87809e-12
1.87733e-12
1.87829e-12
1.87058e-12
2.88915e-10
2.89515e-10
2.89306e-10
2.89221e-10
2.89353e-10
2.88412e-10
6.46647e-07
6.47768e-07
6.47335e-07
6.47195e-07
6.47337e-07
6.45902e-07
2.17422e-05
2.17724e-05
2.17607e-05
2.17571e-05
2.17698e-05
2.17193e-05
2.45366e-05
2.45691e-05
2.4557e-05
2.45532e-05
2.4555e-05
2.45287e-05
0
0
0
0
0
0
0
0
0
0
0
0
0
0
0
0
0
0
0
0
0
0
0
0
0
0
0
0
0
0
0
0
0
0
0
0
0
0
0
0
0
0
0
0
0
0
0
0
0
0
0
0
0
0
0
0
0
0
0
0
2.86412e-17
2.87036e-17
2.86869e-17
2.86784e-17
2.86824e-17
2.86013e-17
3.39593e-15
3.40306e-15
3.40093e-15
3.3999e-15
3.40027e-15
3.39109e-15
)
;
    }
}


// ************************************************************************* //
