/*--------------------------------*- C++ -*----------------------------------*\
| =========                 |                                                 |
| \\      /  F ield         | OpenFOAM: The Open Source CFD Toolbox           |
|  \\    /   O peration     | Version:  v1612+                                |
|   \\  /    A nd           | Web:      www.OpenFOAM.com                      |
|    \\/     M anipulation  |                                                 |
\*---------------------------------------------------------------------------*/
FoamFile
{
    version     2.0;
    format      ascii;
    class       surfaceScalarField;
    location    "1.8";
    object      alphaPhi;
}
// * * * * * * * * * * * * * * * * * * * * * * * * * * * * * * * * * * * * * //

dimensions      [0 3 -1 0 0 0 0];

internalField   nonuniform List<scalar> 
2916
(
-3.45719e-07
0.501148
-0.501114
2.20921e-07
0.50115
-0.501117
9.4451e-07
0.50115
-0.501117
1.32695e-06
0.50115
-0.501117
1.38953e-06
0.501151
-0.501117
0.501149
-0.501114
-1.62314e-06
1.10141
-0.600229
6.0752e-08
1.10142
-0.600235
-3.25431e-07
1.10142
-0.600231
-1.5561e-07
1.10142
-0.600231
1.73299e-06
1.10142
-0.600232
1.10141
-0.600225
-1.82973e-06
1.60247
-0.500879
-9.51178e-07
1.60247
-0.500884
-3.32175e-06
1.60247
-0.50088
-3.53908e-06
1.60247
-0.500881
2.93351e-07
1.60247
-0.500884
1.60246
-0.500876
-5.26051e-06
2.07405
-0.471312
-4.33026e-06
2.07406
-0.471323
-7.98125e-06
2.07406
-0.471318
-8.09535e-06
2.07405
-0.471322
-2.88881e-06
2.07405
-0.471328
2.07404
-0.471322
-1.04852e-05
2.46747
-0.392868
-9.89115e-06
2.46748
-0.392881
-1.29101e-05
2.46748
-0.392878
-1.27119e-05
2.46748
-0.392881
-7.3897e-06
2.46748
-0.392889
2.46747
-0.392886
-1.74049e-05
2.89085
-0.423882
-1.6101e-05
2.89087
-0.423903
-1.63744e-05
2.89086
-0.423901
-1.52659e-05
2.89086
-0.423902
-9.17469e-06
2.89087
-0.423908
2.89085
-0.423908
-2.17875e-05
3.22172
-0.373288
-1.96022e-05
3.22173
-0.37331
-1.76599e-05
3.22173
-0.373311
-1.51816e-05
3.22173
-0.373312
-8.00071e-06
3.22173
-0.373317
3.22171
-0.373316
-1.58887e-05
3.30258
-0.184724
-1.73278e-05
3.30257
-0.184736
-1.70806e-05
3.30257
-0.184737
-1.43449e-05
3.30257
-0.18474
-6.86453e-06
3.30257
-0.184743
3.30256
-0.184741
5.40232e-06
3.26394
-0.0521547
-4.80491e-06
3.26395
-0.0521491
-1.18462e-05
3.2639
-0.0521469
-9.4679e-06
3.2639
-0.0521514
-6.0162e-06
3.26392
-0.052155
3.2639
-0.052155
1.31811e-05
2.90433
0.261555
-6.07345e-07
2.90441
0.261533
-3.86238e-06
2.90435
0.261583
-4.95823e-06
2.90436
0.261583
-1.02571e-05
2.90439
0.261568
2.90435
0.261572
3.3844e-06
2.15042
0.662613
9.14087e-07
2.15053
0.662581
-2.00553e-06
2.15044
0.662536
-9.26357e-06
2.15045
0.662534
-7.15865e-06
2.15049
0.662541
2.15044
0.662561
-6.49654e-05
0.62657
-3.29005e-05
0.626614
-1.33895e-05
0.62662
1.01741e-05
0.626631
2.71317e-05
0.626639
0.626605
3.92176e-07
0.641246
-1.14233
1.16592e-06
0.641252
-1.14233
5.83042e-07
0.641249
-1.14233
-8.59579e-07
0.641248
-1.14233
-7.82017e-07
0.641247
-1.14233
0.641245
-1.14232
1.86768e-07
1.20428
-1.16314
3.75842e-08
1.20429
-1.16315
-3.61896e-06
1.20429
-1.16314
-4.99195e-06
1.20429
-1.16314
-1.33084e-06
1.20428
-1.16315
1.20428
-1.16313
-4.98647e-06
1.63994
-0.928329
-6.24491e-06
1.63996
-0.928338
-7.98808e-06
1.63995
-0.928334
-8.23048e-06
1.63995
-0.928337
-3.56731e-06
1.63995
-0.928344
1.63993
-0.928329
-1.29981e-05
1.94715
-0.687039
-1.30215e-05
1.94717
-0.687056
-1.00409e-05
1.94717
-0.687057
-7.84878e-06
1.94717
-0.687062
-5.03436e-06
1.94716
-0.687068
1.94715
-0.687065
-9.72633e-06
1.77936
-0.190621
-1.8733e-05
1.77938
-0.190626
-1.47354e-05
1.77937
-0.190631
-1.22331e-05
1.77938
-0.190634
-1.30438e-05
1.77937
-0.190636
1.77935
-0.190641
-2.31879e-06
1.29498
-0.0461441
-8.34868e-06
1.29497
-0.0461425
-4.43944e-06
1.29497
-0.0461447
-4.3161e-06
1.29498
-0.0461466
-8.33455e-06
1.29498
-0.046147
1.29496
-0.0461478
1.24568e-05
0.709514
-0.00434397
2.45804e-06
0.709501
-0.0043437
3.19972e-07
0.709496
-0.00434395
-3.35858e-07
0.709502
-0.00434417
-4.18205e-06
0.709506
-0.00434422
0.709493
-0.00434421
1.18195e-05
0.229523
-0.000377489
3.18141e-06
0.229516
-0.000377468
-1.42811e-06
0.229509
-0.000377488
-2.00882e-06
0.22951
-0.000377507
-2.88223e-06
0.229512
-0.000377513
0.229507
-0.000377503
1.12869e-06
0.0837855
-3.02537e-05
5.19679e-07
0.0837868
-3.02527e-05
5.16512e-08
0.0837823
-3.02535e-05
8.34961e-08
0.0837809
-3.02552e-05
5.26135e-08
0.0837812
-3.02564e-05
0.0837781
-3.0255e-05
2.71431e-06
0.241819
0.00361358
1.54463e-06
0.241848
0.00361424
-4.44021e-07
0.241852
0.00361438
-1.70534e-06
0.241843
0.00361419
-2.34081e-06
0.24183
0.00361389
0.241816
0.00361329
1.01005e-05
0.764137
0.0687017
4.33454e-06
0.764177
0.0686987
-5.33522e-06
0.764187
0.0686979
-1.54254e-05
0.764175
0.0686956
-4.22474e-06
0.764145
0.0687128
0.764118
0.0686726
-2.27788e-05
0.407361
-9.31852e-06
0.407314
3.57933e-06
0.407322
1.77488e-05
0.407311
-1.58692e-05
0.407317
0.407296
3.80978e-07
0.586536
-1.72864
-8.39522e-08
0.586539
-1.72865
-1.70719e-06
0.58654
-1.72864
-3.32651e-06
0.586538
-1.72864
-3.79075e-06
0.586536
-1.72864
0.586539
-1.72864
-1.10719e-06
0.785045
-0.69124
-6.1574e-06
0.785048
-0.691241
-5.49936e-06
0.78505
-0.691243
-5.18165e-06
0.785051
-0.691248
-7.82456e-06
0.78505
-0.691251
0.785053
-0.691254
-7.29543e-06
0.596854
-0.0848073
-7.35141e-06
0.596858
-0.0848041
-3.62698e-06
0.596862
-0.0848043
-4.59609e-06
0.596865
-0.084806
-1.0523e-05
0.596865
-0.0848068
0.596866
-0.0848076
-5.26919e-06
0.228857
-0.00354291
-3.55676e-06
0.228858
-0.00354274
1.95272e-06
0.228862
-0.00354278
1.4307e-06
0.228866
-0.0035429
-4.3695e-06
0.228867
-0.00354299
0.228868
-0.00354308
4.88832e-09
0.0508966
-0.00010502
1.89562e-07
0.0508946
-0.000105023
4.91906e-07
0.0508971
-0.000105027
3.56457e-07
0.0508992
-0.000105032
-1.55742e-07
0.0508997
-0.000105035
0.0509005
-0.000105038
4.25228e-08
0.00475475
-2.19281e-06
5.09384e-08
0.00475446
-2.19307e-06
3.79695e-08
0.00475473
-2.19331e-06
4.30232e-09
0.00475497
-2.19352e-06
-3.82006e-08
0.00475503
-2.19361e-06
0.00475502
-2.19368e-06
1.85476e-10
0.0004108
-1.51791e-08
-1.47187e-09
0.000410778
-1.51838e-08
-3.09633e-09
0.000410799
-1.51893e-08
-7.0271e-09
0.00041082
-1.51925e-08
-8.61369e-09
0.000410828
-1.51949e-08
0.000410817
-1.51982e-08
-1.21229e-10
3.33156e-05
-3.03971e-09
-1.01863e-09
3.3315e-05
-3.04079e-09
-1.05489e-09
3.3316e-05
-3.04114e-09
-9.86033e-10
3.33178e-05
-3.04156e-09
-9.75619e-10
3.33192e-05
-3.04141e-09
3.33173e-05
-3.04164e-09
-2.49011e-11
3.12242e-06
-3.5706e-08
-4.1975e-11
3.12285e-06
-3.56931e-08
-1.36351e-11
3.12294e-06
-3.56835e-08
3.08958e-11
3.12305e-06
-3.56908e-08
8.58758e-11
3.12315e-06
-3.56659e-08
3.12289e-06
-3.56926e-08
1.95321e-08
0.00351845
0.00010129
8.51938e-08
0.00351902
0.00010134
9.25344e-08
0.0035192
0.00010136
7.77518e-08
0.00351903
0.000101358
5.737e-08
0.00351877
0.000101319
0.00351821
0.000101315
8.24853e-07
0.0679217
0.00424888
9.47074e-07
0.0679194
0.00424948
2.10479e-07
0.0679199
0.00424925
-5.2603e-07
0.0679173
0.00424934
-2.14581e-06
0.0679336
0.00425116
0.0678922
0.00424749
-5.76584e-06
0.00228512
-1.57753e-05
0.00228865
-2.35784e-05
0.0022748
-2.3933e-05
0.00227785
-0.000128272
0.00224981
0.00234083
1.84132e-06
0.15509
-1.39302
1.51925e-06
0.155088
-1.39302
1.90082e-07
0.15509
-1.39302
-2.16431e-07
0.155092
-1.39302
-2.27247e-08
0.155091
-1.39302
0.155085
-1.39303
-1.59588e-06
0.0884474
-0.0110904
-1.71973e-06
0.0884441
-0.0110812
7.58835e-07
0.0884444
-0.0110794
2.28896e-06
0.0884461
-0.011086
3.35183e-07
0.0884469
-0.0110859
0.0884478
-0.0110683
-4.73276e-08
0.00364428
-2.10424e-05
-5.33742e-10
0.00364411
-2.09987e-05
8.59271e-08
0.00364414
-2.09917e-05
1.42022e-07
0.00364427
-2.10157e-05
9.14136e-08
0.00364436
-2.10231e-05
0.00364445
-2.09698e-05
1.09477e-08
0.00010575
-6.63717e-06
1.65088e-08
0.000105753
-6.63697e-06
1.4009e-08
0.000105757
-6.63635e-06
9.24685e-09
0.000105763
-6.63631e-06
5.58073e-09
0.000105765
-6.63754e-06
0.000105769
-6.63835e-06
1.6838e-10
2.20786e-06
-1.37621e-06
3.91512e-10
2.20812e-06
-1.37612e-06
3.93371e-10
2.20837e-06
-1.37608e-06
2.86953e-10
2.20857e-06
-1.37602e-06
1.7426e-10
2.20867e-06
-1.37603e-06
2.20874e-06
-1.3761e-06
1.49507e-12
1.50358e-08
-1.09387e-12
2.80415e-12
1.50403e-08
-1.09667e-12
2.87735e-12
1.50459e-08
-1.09596e-12
3.11947e-12
1.50492e-08
-1.09559e-12
3.00253e-12
1.50517e-08
-1.09404e-12
1.50549e-08
-1.09296e-12
-7.90181e-15
1.47839e-11
-1.16562e-10
-1.5262e-14
1.4795e-11
-1.16689e-10
-1.27422e-14
1.48069e-11
-1.16683e-10
1.23574e-15
1.48111e-11
-1.16682e-10
1.06425e-14
1.48181e-11
-1.16637e-10
1.48366e-11
-1.16613e-10
-1.09218e-14
2.00899e-10
-8.28193e-10
1.84874e-15
2.00974e-10
-8.29163e-10
1.26132e-14
2.01045e-10
-8.29011e-10
2.17295e-14
2.01079e-10
-8.28994e-10
7.42433e-15
2.01115e-10
-8.28369e-10
2.01179e-10
-8.28317e-10
4.70121e-13
3.86306e-07
-4.19076e-07
7.76195e-13
3.86469e-07
-4.19221e-07
1.05608e-12
3.8645e-07
-4.19189e-07
8.1131e-13
3.86448e-07
-4.19188e-07
2.85189e-13
3.85982e-07
-4.18704e-07
3.86255e-07
-4.19005e-07
7.64445e-10
0.000102049
-4.72035e-08
6.53454e-10
0.000102101
-4.74687e-08
1.41083e-09
0.000102119
-4.77232e-08
1.66099e-09
0.000102117
-4.77774e-08
-6.14783e-11
0.00010208
-4.77002e-08
0.000102082
-4.79309e-08
-9.76287e-11
0.00409101
0.000243192
3.38344e-08
0.00409158
0.000243225
4.44432e-08
0.00409135
0.000243262
5.50883e-08
0.00409146
0.000243243
-1.65248e-07
0.00409345
0.000243247
0.00408957
0.000243112
-5.62048e-07
0.006345
2.15951e-06
0.00634595
-9.30001e-06
0.0063461
-1.72525e-05
0.00634573
-6.56846e-05
0.00636076
0.00633238
-1.99392e-70
1.88522e-67
-5.62019e-64
-6.65053e-71
1.88863e-67
-5.62801e-64
-9.98296e-72
1.88859e-67
-5.62746e-64
1.05759e-71
1.88906e-67
-5.62832e-64
1.65071e-71
1.89042e-67
-5.63206e-64
1.88792e-67
-5.62449e-64
-3.06971e-66
5.97396e-63
-8.89845e-60
-8.18597e-67
5.98499e-63
-8.91159e-60
5.595e-68
5.98509e-63
-8.91117e-60
5.74412e-67
5.98691e-63
-8.91321e-60
1.01227e-66
5.99158e-63
-8.91979e-60
5.98459e-63
-8.90931e-60
-2.85676e-62
6.82453e-59
-6.88384e-56
-6.10065e-63
6.83718e-59
-6.89367e-56
2.7015e-63
6.83775e-59
-6.89349e-56
7.63564e-63
6.8401e-59
-6.89514e-56
1.05468e-62
6.84587e-59
-6.9003e-56
6.83862e-59
-6.89252e-56
-1.43911e-58
4.35813e-55
-3.34251e-52
9.80962e-61
4.36631e-55
-3.34675e-52
5.74722e-59
4.3669e-55
-3.34643e-52
8.19053e-59
4.36856e-55
-3.34707e-52
9.05743e-59
4.37248e-55
-3.34948e-52
4.36832e-55
-3.34572e-52
-2.36261e-55
1.82491e-51
-1.1281e-48
3.27069e-55
1.82831e-51
-1.12883e-48
5.11412e-55
1.82858e-51
-1.12848e-48
5.32617e-55
1.82931e-51
-1.12853e-48
4.87233e-55
1.83099e-51
-1.12926e-48
1.82943e-51
-1.12802e-48
7.38407e-52
5.37882e-48
-2.69364e-45
2.1024e-51
5.38837e-48
-2.6919e-45
2.20287e-51
5.38911e-48
-2.6898e-45
1.8511e-51
5.39122e-48
-2.68948e-45
1.43014e-51
5.3962e-48
-2.69127e-45
5.39217e-48
-2.68911e-45
5.54598e-48
1.15592e-44
-4.55101e-42
6.60002e-48
1.15779e-44
-4.53766e-42
5.00454e-48
1.15789e-44
-4.53129e-42
2.86725e-48
1.15832e-44
-4.53063e-42
1.49764e-48
1.15938e-44
-4.53532e-42
1.15862e-44
-4.53554e-42
1.60563e-44
1.85805e-41
-5.38009e-39
1.33264e-44
1.86046e-41
-5.34057e-39
6.18208e-45
1.86045e-41
-5.3271e-39
-3.66518e-46
1.86104e-41
-5.32723e-39
-2.97086e-45
1.86269e-41
-5.3381e-39
1.86164e-41
-5.34815e-39
2.69634e-41
2.37563e-38
-5.23501e-36
1.63477e-41
2.37649e-38
-5.16598e-36
7.93167e-43
2.3757e-38
-5.14604e-36
-1.14069e-41
2.37637e-38
-5.14936e-36
-1.39696e-41
2.37885e-38
-5.16998e-36
2.37833e-38
-5.19527e-36
1.85481e-38
2.19706e-35
3.48001e-37
3.57579e-39
2.198e-35
3.74998e-37
-1.36427e-38
2.19736e-35
3.79959e-37
-2.51562e-38
2.19798e-35
3.76616e-37
-2.40296e-38
2.20028e-35
3.67303e-37
2.19985e-35
3.52013e-37
-6.53856e-36
1.54264e-32
2.79323e-33
-1.9546e-35
1.54583e-32
2.79726e-33
-2.96767e-35
1.54608e-32
2.79409e-33
-3.45261e-35
1.54674e-32
2.78767e-33
-2.84023e-35
1.54825e-32
2.77809e-33
1.54757e-32
2.75888e-33
-7.77862e-33
7.35571e-30
-8.69757e-33
7.36684e-30
-7.2102e-33
7.36552e-30
-4.69251e-33
7.36438e-30
-2.17505e-33
7.36499e-30
7.35274e-30
-4.38929e-67
5.5486e-64
-5.31007e-60
-9.01818e-68
5.55744e-64
-5.31877e-60
4.40291e-68
5.55724e-64
-5.31836e-60
1.16229e-67
5.55851e-64
-5.3189e-60
1.6649e-67
5.56256e-64
-5.32171e-60
5.55531e-64
-5.31317e-60
-6.11467e-63
1.73062e-59
-8.78714e-56
-6.23197e-64
1.73337e-59
-8.802e-56
1.54103e-63
1.73332e-59
-8.80152e-56
3.15167e-63
1.7338e-59
-8.80283e-56
5.01886e-63
1.73513e-59
-8.80782e-56
1.73315e-59
-8.79478e-56
-5.4598e-59
1.96269e-55
-7.12756e-52
-1.26232e-60
1.96571e-55
-7.13924e-52
1.91043e-59
1.96574e-55
-7.13884e-52
3.47672e-59
1.96632e-55
-7.13988e-52
5.17708e-59
1.9679e-55
-7.14396e-52
1.96587e-55
-7.1337e-52
-2.1992e-55
1.26606e-51
-3.68464e-48
8.62406e-56
1.26794e-51
-3.69013e-48
2.04802e-55
1.26796e-51
-3.68978e-48
2.81067e-55
1.26835e-51
-3.69022e-48
3.65586e-55
1.26939e-51
-3.69229e-48
1.26818e-51
-3.68716e-48
-1.51588e-52
5.46268e-48
-1.33734e-44
1.00786e-51
5.47002e-48
-1.33891e-44
1.30052e-51
5.46991e-48
-1.33863e-44
1.44239e-51
5.47142e-48
-1.33872e-44
1.63631e-51
5.47576e-48
-1.33943e-44
5.47081e-48
-1.33766e-44
2.78155e-48
1.67271e-44
-3.4377e-41
4.7004e-48
1.67423e-44
-3.43972e-41
4.27701e-48
1.67397e-44
-3.43838e-41
3.57476e-48
1.67431e-44
-3.43844e-41
3.49716e-48
1.67559e-44
-3.4404e-41
1.67426e-44
-3.43652e-41
1.32521e-44
3.63552e-41
-5.80343e-38
1.2085e-44
3.63592e-41
-5.80029e-38
6.95247e-45
3.63455e-41
-5.79643e-38
2.32284e-45
3.63515e-41
-5.79655e-38
8.90038e-46
3.63823e-41
-5.80092e-38
3.63638e-41
-5.79704e-38
2.55721e-41
5.16282e-38
-5.36587e-35
1.60932e-41
5.15593e-38
-5.35044e-35
1.92667e-42
5.15197e-38
-5.34374e-35
-9.1666e-42
5.15295e-38
-5.34414e-35
-1.1685e-41
5.15885e-38
-5.35069e-35
5.15939e-38
-5.35225e-35
1.6961e-38
5.37705e-35
-2.83896e-32
3.76798e-39
5.3707e-35
-2.82395e-32
-1.26003e-38
5.36694e-35
-2.81873e-32
-2.42486e-38
5.36834e-35
-2.81956e-32
-2.3988e-38
5.37491e-35
-2.82527e-32
5.37599e-35
-2.82975e-32
1.9903e-35
4.55033e-32
4.48475e-34
-3.59775e-36
4.5493e-32
5.20655e-34
-3.01399e-35
4.54766e-32
5.35041e-34
-4.77265e-35
4.54893e-32
5.26208e-34
-4.48612e-35
4.55378e-32
4.9984e-34
4.5541e-32
4.55377e-34
-1.78163e-32
3.45809e-29
5.09441e-30
-3.4387e-32
3.46645e-29
5.09898e-30
-4.49654e-32
3.46708e-29
5.09091e-30
-4.96768e-32
3.46772e-29
5.07581e-30
-4.12286e-32
3.46964e-29
5.05071e-30
3.46655e-29
4.99969e-30
-1.53654e-29
1.79992e-26
-1.26267e-29
1.80217e-26
-6.2182e-30
1.80176e-26
-6.41219e-31
1.80139e-26
1.70541e-30
1.80135e-26
1.79814e-26
-1.87111e-63
2.46335e-60
-3.67506e-57
-2.66258e-64
2.46721e-60
-3.68147e-57
4.36863e-64
2.46698e-60
-3.68141e-57
8.22051e-64
2.46737e-60
-3.68176e-57
1.03906e-63
2.46877e-60
-3.68339e-57
2.46538e-60
-3.67746e-57
-2.6452e-59
8.00221e-56
-6.54608e-53
1.07075e-60
8.01468e-56
-6.5578e-53
1.24811e-59
8.01415e-56
-6.55782e-53
2.14883e-59
8.0156e-56
-6.55864e-53
2.98501e-59
8.02039e-56
-6.56168e-53
8.01003e-56
-6.55168e-53
-1.9709e-55
9.24982e-52
-5.70283e-49
3.94881e-56
9.26445e-52
-5.7128e-49
1.31918e-55
9.26413e-52
-5.71279e-49
2.03009e-55
9.26588e-52
-5.71344e-49
2.79703e-55
9.2715e-52
-5.716e-49
9.25975e-52
-5.70736e-49
-5.67746e-52
5.82773e-48
-3.12631e-45
6.19679e-52
5.83723e-48
-3.13123e-45
9.70089e-52
5.83706e-48
-3.13106e-45
1.26008e-51
5.83811e-48
-3.13129e-45
1.57102e-51
5.84158e-48
-3.13253e-45
5.83398e-48
-3.12796e-45
2.29914e-49
2.34463e-44
-1.18568e-41
3.83172e-48
2.34831e-44
-1.18713e-41
4.73179e-48
2.3482e-44
-1.18692e-41
5.21338e-48
2.34856e-44
-1.18691e-41
6.15416e-48
2.34987e-44
-1.18731e-41
2.34689e-44
-1.1857e-41
1.07104e-44
6.46166e-41
-3.12016e-38
1.30608e-44
6.47142e-41
-3.12234e-38
1.03861e-44
6.47095e-41
-3.12132e-38
8.19328e-45
6.47162e-41
-3.1211e-38
9.67632e-45
6.47479e-41
-3.12212e-38
6.46672e-41
-3.11827e-38
3.33232e-41
1.23808e-37
-5.25977e-35
2.2165e-41
1.23994e-37
-5.25858e-35
3.95982e-42
1.23983e-37
-5.25558e-35
-8.55199e-42
1.23989e-37
-5.25514e-35
-7.44179e-42
1.24038e-37
-5.25756e-35
1.23883e-37
-5.25314e-35
6.3993e-38
1.75262e-34
-5.37643e-32
2.57735e-38
1.75509e-34
-5.36664e-32
-2.14566e-38
1.75487e-34
-5.36158e-32
-5.34033e-38
1.75486e-34
-5.36141e-32
-5.40706e-38
1.75547e-34
-5.36562e-32
1.75329e-34
-5.36475e-32
1.12593e-34
1.84763e-31
-3.82727e-29
4.25761e-35
1.85002e-31
-3.81653e-29
-5.32225e-35
1.84969e-31
-3.81198e-29
-1.21043e-34
1.84954e-31
-3.81217e-29
-1.20417e-34
1.85002e-31
-3.81653e-29
1.84773e-31
-3.81823e-29
4.24907e-32
1.16799e-28
-7.88861e-27
-9.72755e-33
1.16925e-28
-7.81363e-27
-6.29661e-32
1.16898e-28
-7.79846e-27
-9.82394e-32
1.16893e-28
-7.80894e-27
-9.39614e-32
1.16937e-28
-7.84221e-27
1.16816e-28
-7.8889e-27
-2.94627e-29
6.01325e-26
-1.08265e-24
-4.22307e-29
6.02547e-26
-1.08927e-24
-4.66071e-29
6.02562e-26
-1.09401e-24
-4.55599e-29
6.02552e-26
-1.10115e-24
-3.34516e-29
6.02737e-26
-1.11406e-24
6.02085e-26
-1.13354e-24
-6.92527e-27
1.78322e-23
-3.82103e-27
1.78523e-23
1.95403e-27
1.78466e-23
6.80617e-27
1.78419e-23
7.39431e-27
1.78415e-23
1.78133e-23
-1.00295e-60
1.0175e-57
-6.9126e-54
-1.50499e-61
1.01941e-57
-6.92445e-54
2.4792e-61
1.01938e-57
-6.92381e-54
5.12446e-61
1.01953e-57
-6.92401e-54
7.26158e-61
1.02003e-57
-6.92639e-54
1.0184e-57
-6.91364e-54
-1.19964e-56
3.58997e-53
-1.6592e-49
1.25914e-57
3.59643e-53
-1.66206e-49
7.11727e-57
3.59638e-53
-1.66192e-49
1.21244e-56
3.59688e-53
-1.66199e-49
1.73111e-56
3.5986e-53
-1.66255e-49
3.59321e-53
-1.65962e-49
-9.3227e-53
4.61298e-49
-1.91343e-45
1.74767e-53
4.62092e-49
-1.91663e-45
6.32464e-53
4.62087e-49
-1.91644e-45
1.04992e-52
4.62142e-49
-1.91647e-45
1.50502e-52
4.62353e-49
-1.91706e-45
4.61688e-49
-1.91371e-45
-4.0833e-49
3.40684e-45
-1.35045e-41
4.97425e-50
3.41194e-45
-1.35251e-41
2.88165e-49
3.41176e-45
-1.35232e-41
5.24185e-49
3.41199e-45
-1.35229e-41
8.40097e-49
3.4133e-45
-1.35265e-41
3.40885e-45
-1.35039e-41
2.32498e-46
1.65599e-41
-6.13338e-38
3.79907e-46
1.65831e-41
-6.14202e-38
4.64949e-46
1.65809e-41
-6.14091e-38
8.58508e-46
1.65806e-41
-6.14053e-38
1.46053e-45
1.65856e-41
-6.14194e-38
1.65624e-41
-6.13183e-38
-4.14515e-42
5.47522e-38
-1.74358e-34
-6.90872e-42
5.48176e-38
-1.7458e-34
-6.37884e-42
5.48047e-38
-1.74541e-34
-3.80437e-42
5.4799e-38
-1.74525e-34
3.10379e-43
5.48105e-38
-1.74562e-34
5.47324e-38
-1.74281e-34
-1.78794e-38
1.12261e-34
-2.7997e-31
-2.94008e-38
1.1235e-34
-2.80238e-31
-2.87687e-38
1.12306e-34
-2.80149e-31
-2.22464e-38
1.12285e-34
-2.80117e-31
-1.25896e-38
1.12304e-34
-2.80178e-31
1.12156e-34
-2.79768e-31
-5.16119e-35
1.20835e-31
-2.2053e-28
-5.98177e-35
1.20871e-31
-2.20652e-28
-4.9987e-35
1.20805e-31
-2.20557e-28
-3.45962e-35
1.20775e-31
-2.20525e-28
-1.88327e-35
1.20796e-31
-2.20579e-28
1.20653e-31
-2.20291e-28
-5.55762e-32
7.70822e-29
-8.6816e-26
-5.93947e-32
7.70904e-29
-8.68204e-26
-4.72676e-32
7.70404e-29
-8.67701e-26
-3.19981e-32
7.70174e-29
-8.67562e-26
-1.72125e-32
7.70286e-29
-8.67855e-26
7.69359e-29
-8.66948e-26
-4.70207e-29
3.76327e-26
-1.18891e-23
-3.54295e-29
3.76379e-26
-1.18865e-23
-1.56741e-29
3.76145e-26
-1.18785e-23
1.19296e-30
3.76029e-26
-1.18786e-23
9.5852e-30
3.76068e-26
-1.18874e-23
3.75571e-26
-1.18819e-23
-7.10557e-27
1.84719e-23
-1.32703e-21
-4.714e-27
1.84881e-23
-1.33035e-21
9.63306e-28
1.84774e-23
-1.331e-21
4.76984e-27
1.84694e-23
-1.33193e-21
3.98765e-27
1.84654e-23
-1.33425e-21
1.84288e-23
-1.33648e-21
-1.19987e-24
5.03449e-21
-1.77798e-25
5.03659e-21
1.25251e-24
5.03398e-21
2.36792e-24
5.0324e-21
2.32046e-24
5.03231e-21
5.0254e-21
4.87371e-06
-0.363854
0.0073311
3.69055e-06
-0.363857
0.00732191
2.81646e-06
-0.363859
0.00732007
5.57975e-06
-0.363857
0.0073267
7.49886e-06
-0.363856
0.00732664
-0.363865
0.00730879
2.32449e-08
2.95155e-13
0.000692791
3.28143e-07
3.2331e-13
0.000692885
6.74128e-07
3.31858e-13
0.000692986
5.67868e-07
3.24473e-13
0.000692879
4.53399e-08
3.22561e-13
0.000692917
3.30239e-13
0.00069353
5.24934e-18
1.56726e-13
2.63559e-18
1.71685e-13
1.94186e-18
1.76222e-13
2.77444e-18
1.72302e-13
3.72306e-18
1.71288e-13
1.75362e-13
-1.30654e-08
-0.00379051
1.4238e-05
1.58898e-10
-0.00379045
1.42163e-05
1.50088e-08
-0.00379056
1.42117e-05
2.48357e-08
-0.00379052
1.42246e-05
2.54561e-08
-0.0037905
1.42287e-05
-0.00379068
1.42016e-05
-5.73285e-08
1.43133e-12
-2.25955e-06
-4.92723e-08
1.56782e-12
-2.26163e-06
-5.4777e-08
1.6093e-12
-2.26198e-06
-5.68061e-08
1.57349e-12
-2.26198e-06
-3.05444e-08
1.56422e-12
-2.26166e-06
1.60147e-12
-2.26064e-06
1.02008e-18
7.74835e-13
-1.22921e-17
8.48709e-13
-1.87324e-17
8.7118e-13
-7.80983e-18
8.51801e-13
6.4337e-18
8.46775e-13
8.66964e-13
3.81886e-11
-3.89133e-06
-3.9805e-07
5.76437e-11
-3.89013e-06
-3.9815e-07
2.35774e-11
-3.89013e-06
-3.98137e-07
3.95156e-11
-3.89031e-06
-3.98123e-07
9.0004e-11
-3.89071e-06
-3.98104e-07
-3.89162e-06
-3.98057e-07
1.69626e-10
8.09938e-13
-6.1403e-06
2.59952e-10
8.87225e-13
-6.1412e-06
2.22534e-10
9.1063e-13
-6.1413e-06
2.04542e-10
8.90362e-13
-6.14154e-06
2.51798e-10
8.8515e-13
-6.14161e-06
9.0614e-13
-6.14126e-06
-7.02103e-18
7.88645e-13
1.05402e-17
8.63822e-13
5.16822e-18
8.86732e-13
7.53891e-18
8.67017e-13
8.34583e-18
8.6192e-13
8.82473e-13
1.7737e-11
-1.44011e-05
-9.29403e-07
-7.95701e-12
-1.44015e-05
-9.29414e-07
-3.28908e-11
-1.4401e-05
-9.29346e-07
-2.92731e-11
-1.44009e-05
-9.29291e-07
1.82196e-13
-1.4401e-05
-9.29231e-07
-1.44004e-05
-9.29074e-07
-2.95813e-10
5.65935e-12
-6.80557e-06
-5.97715e-10
6.19912e-12
-6.80746e-06
-6.15854e-10
6.36292e-12
-6.8074e-06
-4.444e-10
6.22124e-12
-6.80733e-06
-1.34111e-10
6.18466e-12
-6.80745e-06
6.33157e-12
-6.80681e-06
-3.23821e-17
1.11364e-16
1.93972e-17
1.32318e-16
5.14481e-17
1.49573e-16
6.8778e-17
1.42614e-16
5.40804e-17
1.35777e-16
-2.27825e-21
-2.81684e-11
-3.96178e-06
-2.57716e-12
-3.40475e-11
-3.96153e-06
-2.58415e-12
-2.11915e-11
-3.96149e-06
-2.5822e-12
-3.78067e-12
-3.96136e-06
-2.58119e-12
1.04444e-11
-3.96127e-06
-2.57749e-12
-3.96133e-06
-2.57425e-12
-9.16192e-11
1.24428e-15
-4.07304e-14
-2.5583e-10
1.47837e-15
-4.0747e-14
-2.62117e-10
1.67095e-15
-4.0755e-14
-1.40748e-10
1.59311e-15
-4.07608e-14
-1.04484e-11
1.51669e-15
-4.07782e-14
-9.54157e-19
-4.07333e-14
1.20449e-20
-9.55563e-19
2.14263e-20
-9.56235e-19
2.72521e-20
-9.56479e-19
2.58283e-20
-9.5668e-19
-2.96805e-25
-9.5697e-19
-9.56435e-19
-3.85659e-18
-1.14598e-15
-3.66355e-12
-9.13412e-19
-1.14646e-15
-3.67335e-12
1.90556e-18
-1.14666e-15
-3.67068e-12
4.02916e-18
-1.1468e-15
-3.6693e-12
4.89914e-18
-1.14727e-15
-3.66404e-12
-1.14604e-15
-3.65973e-12
-1.34038e-20
-5.185e-17
-4.19844e-14
-1.99706e-20
-5.18764e-17
-4.20012e-14
-1.44102e-20
-5.18836e-17
-4.20098e-14
1.68794e-21
-5.18909e-17
-4.20159e-14
1.87783e-20
-5.19054e-17
-4.20334e-14
-5.18785e-17
-4.19877e-14
-2.32088e-22
-4.2969e-16
-5.10497e-22
-4.30101e-16
-5.93141e-22
-4.30229e-16
-5.76755e-22
-4.30354e-16
-4.58935e-22
-4.30585e-16
-4.30178e-16
1.64492e-16
-6.2123e-13
-1.19134e-10
6.33482e-16
-6.21337e-13
-1.19269e-10
8.16434e-16
-6.21415e-13
-1.1926e-10
9.5787e-16
-6.21486e-13
-1.19259e-10
8.91905e-16
-6.21698e-13
-1.19208e-10
-6.21254e-13
-1.1918e-10
-5.2059e-18
-5.50289e-14
-7.41018e-13
-2.5697e-18
-5.50669e-14
-7.41178e-13
1.07496e-19
-5.50815e-14
-7.4126e-13
3.15703e-18
-5.50981e-14
-7.41328e-13
8.06525e-18
-5.51304e-14
-7.41548e-13
-5.50897e-14
-7.40951e-13
-1.68198e-19
-5.5686e-14
-1.31893e-19
-5.5725e-14
-2.52452e-20
-5.57398e-14
6.23662e-20
-5.57566e-14
1.31996e-19
-5.57887e-14
-5.57476e-14
8.80824e-14
-1.03666e-10
-8.13086e-10
1.30747e-13
-1.03637e-10
-8.1412e-10
1.37909e-13
-1.03646e-10
-8.1393e-10
1.31793e-13
-1.03654e-10
-8.13898e-10
8.66014e-14
-1.03668e-10
-8.13231e-10
-1.03654e-10
-8.13117e-10
-1.0652e-15
-2.87521e-11
-7.30925e-11
-5.59202e-16
-2.87589e-11
-7.30577e-11
-4.5683e-16
-2.87643e-11
-7.30602e-11
1.68983e-16
-2.87716e-11
-7.30621e-11
2.58267e-15
-2.87839e-11
-7.30653e-11
-2.87759e-11
-7.30559e-11
-3.44469e-16
-2.88103e-11
-2.34651e-16
-2.88178e-11
-1.23919e-16
-2.88232e-11
4.15316e-17
-2.88305e-11
3.83304e-16
-2.88431e-11
-2.88341e-11
6.33122e-11
-3.53521e-08
5.74218e-07
7.34797e-11
-3.53507e-08
5.74357e-07
7.67359e-11
-3.53416e-08
5.74586e-07
5.96612e-11
-3.53419e-08
5.74728e-07
2.85012e-11
-3.53374e-08
5.7371e-07
-3.53329e-08
5.74978e-07
-2.88292e-14
-8.27038e-09
-2.67565e-08
-2.69888e-14
-8.26856e-09
-2.67568e-08
-1.46705e-13
-8.26949e-09
-2.67467e-08
-1.90908e-13
-8.27056e-09
-2.6746e-08
1.79787e-13
-8.27135e-09
-2.6741e-08
-8.2736e-09
-2.67341e-08
-2.50431e-13
-8.30441e-09
-2.41669e-13
-8.30286e-09
-2.81865e-13
-8.30374e-09
-2.26169e-13
-8.30492e-09
9.26541e-14
-8.30598e-09
-8.30781e-09
5.42478e-10
-4.563e-07
1.35565e-05
2.55315e-10
-4.56211e-07
1.35627e-05
3.11186e-10
-4.56308e-07
1.35673e-05
3.27888e-10
-4.56291e-07
1.35676e-05
2.99886e-10
-4.55891e-07
1.35427e-05
-4.56165e-07
1.35707e-05
3.25512e-11
-2.85404e-07
7.73265e-07
3.04351e-11
-2.85243e-07
7.73738e-07
3.14686e-11
-2.85275e-07
7.73607e-07
1.80067e-11
-2.85294e-07
7.73508e-07
-9.99667e-12
-2.85336e-07
7.74399e-07
-2.85535e-07
7.71706e-07
-8.42443e-12
-8.96867e-07
-1.26853e-11
-8.96356e-07
-1.65921e-11
-8.96546e-07
-2.01313e-11
-8.96642e-07
-2.54323e-11
-8.96164e-07
-8.97755e-07
6.04122e-09
1.66647e-05
0.000252528
4.412e-09
1.66529e-05
0.000252592
5.00304e-09
1.66617e-05
0.000252628
7.36467e-09
1.66612e-05
0.000252608
-1.16047e-08
1.66319e-05
0.000252615
1.66863e-05
0.000252449
4.8312e-09
4.63105e-06
9.09763e-05
2.68925e-09
4.63214e-06
9.10098e-05
4.76652e-09
4.63466e-06
9.10037e-05
5.75118e-09
4.6352e-06
9.09989e-05
-1.25189e-08
4.63277e-06
9.1087e-05
4.64782e-06
9.08877e-05
4.00658e-09
-3.57151e-07
2.03705e-09
-3.36315e-07
2.70615e-09
-3.4351e-07
2.10704e-09
-3.44205e-07
-6.61291e-09
-3.36001e-07
-3.56064e-07
-4.57783e-07
0.00118527
0.00542536
-1.49037e-06
0.00118559
0.00542664
-1.88023e-06
0.00118556
0.00542622
-2.35544e-06
0.00118549
0.00542599
7.39349e-07
0.00118698
0.00543598
0.00118312
0.00541506
1.29105e-07
0.000485543
0.000852558
-1.51867e-07
0.000485687
0.000853397
-1.61794e-07
0.000485667
0.000853039
-9.21275e-08
0.000485634
0.000852926
2.79714e-07
0.000486134
0.000854092
0.000485045
0.000851159
3.39264e-08
6.48871e-05
5.00289e-09
6.49898e-05
5.23479e-09
6.49474e-05
1.03023e-08
6.49357e-05
2.46437e-08
6.50158e-05
6.47873e-05
-2.69911e-20
-2.25204e-15
5.59005e-15
-1.57575e-17
-1.92483e-21
-2.25521e-15
5.59855e-15
-1.57775e-17
3.53677e-20
-2.2545e-15
5.59526e-15
-1.57735e-17
6.5235e-20
-2.25264e-15
5.59171e-15
-1.57696e-17
7.77213e-20
-2.25404e-15
5.59557e-15
-1.57678e-17
-2.23789e-15
5.56312e-15
-1.57419e-17
3.82625e-19
-1.80535e-13
2.05502e-13
1.68936e-15
2.57456e-18
-1.80879e-13
2.05897e-13
1.69343e-15
4.6293e-18
-1.80753e-13
2.05748e-13
1.6926e-15
5.8041e-18
-1.80688e-13
2.0569e-13
1.69136e-15
5.51617e-18
-1.80802e-13
2.05795e-13
1.69204e-15
-1.80078e-13
2.05156e-13
1.68134e-15
-8.36402e-18
-4.18402e-13
6.38838e-14
8.57171e-18
-4.19367e-13
6.40246e-14
2.39848e-17
-4.19056e-13
6.39802e-14
3.59984e-17
-4.18909e-13
6.39585e-14
3.84681e-17
-4.19072e-13
6.39813e-14
-4.17557e-13
6.37622e-14
-4.71552e-19
-2.93644e-11
2.93789e-11
6.94128e-19
-2.94009e-11
2.94154e-11
8.44682e-18
-2.93869e-11
2.94013e-11
1.49379e-17
-2.93713e-11
2.93858e-11
2.67277e-17
-2.93985e-11
2.9413e-11
-2.92321e-11
2.92466e-11
4.58977e-16
-5.94214e-11
3.27326e-11
2.80589e-15
-5.95381e-11
3.2815e-11
4.70436e-15
-5.94968e-11
3.27874e-11
5.97872e-15
-5.9481e-11
3.2787e-11
7.3699e-15
-5.95145e-11
3.27933e-11
-5.93192e-11
3.27648e-11
-3.56694e-15
-1.06057e-10
4.2521e-15
-1.06293e-10
9.40684e-15
-1.06213e-10
1.38144e-14
-1.06175e-10
1.74099e-14
-1.06236e-10
-1.05793e-10
-3.96093e-15
-7.21125e-09
9.36567e-09
5.42738e-16
-7.21229e-09
9.36958e-09
7.91883e-15
-7.21069e-09
9.36665e-09
1.05139e-14
-7.20714e-09
9.36289e-09
4.15956e-14
-7.21665e-09
9.36977e-09
-7.1746e-09
9.33108e-09
5.15246e-13
-7.93382e-09
1.07836e-09
9.67947e-13
-7.94902e-09
1.09297e-09
1.32509e-12
-7.94358e-09
1.08904e-09
1.5165e-12
-7.94185e-09
1.091e-09
2.66636e-12
-7.94644e-09
1.0844e-09
-7.9233e-09
1.10833e-09
-1.4755e-12
-1.50195e-08
3.74893e-13
-1.50528e-08
1.46929e-12
-1.50412e-08
2.37872e-12
-1.50368e-08
4.18973e-12
-1.5046e-08
-1.4991e-08
1.49814e-11
-8.81696e-07
3.49638e-07
8.25592e-13
-8.82248e-07
3.49887e-07
-2.11289e-12
-8.81924e-07
3.49743e-07
-6.38139e-12
-8.817e-07
3.49666e-07
1.04999e-12
-8.82553e-07
3.49802e-07
-8.79481e-07
3.4903e-07
3.46863e-10
-2.46178e-07
-6.43306e-07
3.40585e-10
-2.46222e-07
-6.4345e-07
3.8781e-10
-2.4616e-07
-6.43246e-07
3.38597e-10
-2.46156e-07
-6.42909e-07
9.78089e-10
-2.46219e-07
-6.4456e-07
-2.46197e-07
-6.39439e-07
-7.59646e-11
-7.68972e-06
4.82472e-11
-7.70168e-06
9.9105e-11
-7.69694e-06
1.32625e-10
-7.69517e-06
3.12908e-10
-7.69903e-06
-7.67774e-06
3.63108e-12
1.18771e-08
1.58096e-07
5.80606e-13
1.18944e-08
1.58401e-07
-1.87257e-12
1.18852e-08
1.58302e-07
-3.39645e-12
1.18804e-08
1.58312e-07
2.63316e-11
1.18944e-08
1.58483e-07
1.18457e-08
1.57816e-07
1.72424e-08
0.000151693
-0.000652238
1.81687e-08
0.00015192
-0.000652652
1.37828e-08
0.000151828
-0.000652457
1.20343e-08
0.000151797
-0.000652368
1.18376e-07
0.000151957
-0.000653348
0.000151435
-0.000650812
4.72352e-10
-8.74005e-05
6.39517e-09
-8.75156e-05
7.05238e-09
-8.747e-05
6.36919e-09
-8.7454e-05
2.03083e-08
-8.75406e-05
-8.72698e-05
2.18767e-08
0.00241581
-3.90569e-07
0.00241675
-5.15081e-07
0.00241635
-5.07329e-07
0.00241619
-8.56009e-07
0.00242
0.00241163
5.90629e-08
0.000498031
-1.93994e-07
0.000498704
-3.11486e-07
0.000498434
-3.71875e-07
0.000498354
5.71127e-07
0.000498722
0.000497532
1.5184e-08
1.51835e-08
1.14317e-08
9.65981e-09
5.6613e-08
-1.11297e-57
-1.37384e-55
1.05496e-54
-5.57215e-59
-1.37642e-55
1.05683e-54
4.24645e-58
-1.3764e-55
1.05674e-54
7.6738e-58
-1.37645e-55
1.05682e-54
1.06747e-57
-1.37684e-55
1.05723e-54
-1.37415e-55
1.05538e-54
-3.12172e-60
-5.94226e-59
1.12024e-56
4.6611e-60
-5.95389e-59
1.1224e-56
7.63403e-60
-5.95377e-59
1.12241e-56
9.32541e-60
-5.95405e-59
1.1225e-56
1.0065e-59
-5.95588e-59
1.12286e-56
-5.94395e-59
1.1208e-56
7.75508e-64
1.47296e-60
1.43645e-63
1.47596e-60
1.58682e-63
1.47593e-60
1.84553e-63
1.47603e-60
2.24064e-63
1.47652e-60
1.47357e-60
-1.89864e-53
-6.67085e-51
4.95033e-50
4.10259e-54
-6.68313e-51
4.95876e-50
1.44983e-53
-6.68311e-51
4.95831e-50
2.39893e-53
-6.68337e-51
4.95852e-50