/*--------------------------------*- C++ -*----------------------------------*\
| =========                 |                                                 |
| \\      /  F ield         | OpenFOAM: The Open Source CFD Toolbox           |
|  \\    /   O peration     | Version:  v1612+                                |
|   \\  /    A nd           | Web:      www.OpenFOAM.com                      |
|    \\/     M anipulation  |                                                 |
\*---------------------------------------------------------------------------*/
FoamFile
{
    version     2.0;
    format      ascii;
    class       volVectorField;
    location    "1.8";
    object      U;
}
// * * * * * * * * * * * * * * * * * * * * * * * * * * * * * * * * * * * * * //

dimensions      [0 1 -1 0 0 0 0];

internalField   nonuniform List<vector> 
1116
(
(0.510502 -7.89812e-07 -0.463299)
(0.510504 -2.84593e-07 -0.463303)
(0.510504 5.81355e-07 -0.463303)
(0.510504 8.44379e-07 -0.463303)
(0.510505 1.42839e-06 -0.463303)
(0.510504 7.81293e-07 -0.463299)
(1.57423 -2.14208e-06 -0.638126)
(1.57424 -1.97819e-07 -0.638132)
(1.57424 2.31287e-08 -0.63813)
(1.57424 -1.01912e-06 -0.63813)
(1.57424 4.05371e-07 -0.638129)
(1.57423 2.31519e-06 -0.638122)
(2.67101 -2.75886e-06 -0.554224)
(2.67102 -2.66218e-07 -0.554231)
(2.67102 -2.05666e-06 -0.554228)
(2.67102 -4.17006e-06 -0.554229)
(2.67102 -2.09214e-06 -0.55423)
(2.671 2.62637e-06 -0.554222)
(3.66499 -5.85598e-06 -0.489691)
(3.665 -3.54924e-06 -0.489699)
(3.665 -5.83747e-06 -0.489695)
(3.665 -9.15234e-06 -0.489697)
(3.66499 -7.21421e-06 -0.489703)
(3.66498 5.72632e-07 -0.489697)
(4.51616 -1.0279e-05 -0.344476)
(4.51619 -9.32855e-06 -0.344486)
(4.51618 -1.05439e-05 -0.344481)
(4.51618 -1.37105e-05 -0.344487)
(4.51618 -1.20379e-05 -0.344497)
(4.51615 -1.93836e-06 -0.344497)
(5.29546 -1.56338e-05 -0.334528)
(5.29549 -1.74858e-05 -0.334553)
(5.29549 -1.48242e-05 -0.334549)
(5.29548 -1.67339e-05 -0.334553)
(5.29549 -1.38632e-05 -0.334566)
(5.29545 -2.74798e-06 -0.33457)
(6.1677 -1.94221e-05 -0.349367)
(6.16773 -2.39224e-05 -0.349416)
(6.16773 -1.68634e-05 -0.349415)
(6.16772 -1.79157e-05 -0.349418)
(6.16773 -1.26457e-05 -0.349429)
(6.16769 -2.53016e-06 -0.349432)
(7.08091 -1.70955e-05 -0.344052)
(7.08097 -2.07969e-05 -0.344118)
(7.08097 -1.61357e-05 -0.344121)
(7.08097 -1.91202e-05 -0.344121)
(7.08097 -1.17002e-05 -0.344125)
(7.08093 -2.55894e-06 -0.344125)
(7.69154 3.72521e-06 -0.433559)
(7.69164 1.41103e-06 -0.433624)
(7.69164 -1.25295e-05 -0.433628)
(7.69165 -1.49409e-05 -0.433626)
(7.69166 -8.34456e-06 -0.433627)
(7.69161 -4.10053e-06 -0.433627)
(7.53021 1.91572e-05 -0.697228)
(7.53032 1.01739e-05 -0.697275)
(7.53028 -1.22272e-05 -0.697268)
(7.53029 -3.18863e-06 -0.697266)
(7.53034 -9.4643e-06 -0.697277)
(7.53028 -1.14093e-05 -0.697275)
(6.78791 7.48286e-06 -0.662764)
(6.78803 7.28977e-06 -0.662817)
(6.78801 -1.01825e-06 -0.662804)
(6.78803 -1.7742e-06 -0.662806)
(6.78809 -1.01906e-05 -0.66283)
(6.78801 -5.20095e-06 -0.662786)
(5.0669 -9.34381e-05 0.974935)
(5.06721 -0.000122015 0.974772)
(5.06718 -4.61451e-05 0.974806)
(5.06722 -2.75853e-07 0.974788)
(5.06726 5.30608e-05 0.974765)
(5.06711 4.55827e-05 0.974846)
(0.696816 -9.26386e-07 -1.56837)
(0.69682 1.12626e-06 -1.56838)
(0.696816 1.97132e-06 -1.56838)
(0.696814 -1.54218e-06 -1.56838)
(0.696814 -1.01853e-06 -1.56838)
(0.696811 -2.29939e-07 -1.56837)
(1.82585 -6.14756e-06 -1.77737)
(1.82587 6.63998e-06 -1.77739)
(1.82586 -6.72651e-06 -1.77738)
(1.82586 -1.04112e-06 -1.77738)
(1.82585 -9.62248e-06 -1.77738)
(1.82585 7.3309e-06 -1.77736)
(2.78745 -1.09074e-05 -1.44818)
(2.78749 -3.51273e-07 -1.4482)
(2.78749 -1.0767e-05 -1.44818)
(2.78748 -4.55691e-06 -1.44819)
(2.78747 -1.30456e-05 -1.4482)
(2.78745 5.21755e-06 -1.44817)
(3.70535 -1.21466e-05 -1.44297)
(3.70538 -1.52534e-05 -1.44301)
(3.70537 -1.24042e-05 -1.44299)
(3.70536 -7.75089e-06 -1.443)
(3.70535 -9.65474e-06 -1.44302)
(3.70531 -9.04142e-07 -1.443)
(4.68326 -4.91003e-06 -1.38327)
(4.68331 -2.18649e-05 -1.38331)
(4.68329 -1.75149e-05 -1.3833)
(4.68328 -1.62062e-05 -1.38331)
(4.68328 -1.4453e-05 -1.38333)
(4.68323 -1.33003e-05 -1.38331)
(5.44371 6.85572e-06 -1.54245)
(5.44378 -1.68067e-05 -1.54253)
(5.44377 -5.96985e-06 -1.54252)
(5.44377 -9.17601e-06 -1.54252)
(5.44377 -6.53627e-06 -1.54253)
(5.44372 -1.91343e-05 -1.54253)
(6.53821 4.16081e-05 -1.71183)
(6.5384 1.11613e-05 -1.71195)
(6.53836 5.64409e-06 -1.71195)
(6.53836 -4.85634e-06 -1.71194)
(6.53837 1.40663e-06 -1.71195)
(6.5383 -2.48431e-05 -1.71195)
(8.13979 9.26671e-05 -1.43165)
(8.14015 5.49352e-05 -1.43176)
(8.14005 5.4914e-07 -1.43177)
(8.14004 -2.01507e-05 -1.43179)
(8.14007 -8.57759e-06 -1.43181)
(8.13995 -3.61045e-05 -1.4318)
(10.0818 0.000113801 -0.753974)
(10.0823 6.0803e-05 -0.753873)
(10.0821 -1.46385e-06 -0.753839)
(10.0821 -1.10765e-05 -0.753916)
(10.0822 1.93613e-05 -0.753975)
(10.0821 -2.19838e-05 -0.753969)
(11.8872 9.29605e-05 1.28207)
(11.8876 8.63428e-05 1.28216)
(11.8875 1.18783e-05 1.28213)
(11.8875 -3.11372e-05 1.2821)
(11.8876 -6.60601e-05 1.28209)
(11.8875 -6.80416e-05 1.28205)
(10.6432 0.000112597 2.6404)
(10.6435 0.000121123 2.6403)
(10.6434 -8.2025e-06 2.64031)
(10.6434 -0.000140899 2.6403)
(10.6435 -0.000108242 2.64026)
(10.6432 -7.6026e-06 2.64029)
(9.49284 -5.60465e-05 7.57652)
(9.49377 -6.64183e-05 7.5764)
(9.49374 -2.97097e-06 7.57639)
(9.49386 5.43294e-05 7.57642)
(9.49409 -5.42901e-06 7.57656)
(9.49365 -4.69824e-05 7.57658)
(0.55865 9.76018e-07 -2.96774)
(0.558657 1.022e-09 -2.96776)
(0.558659 -7.17163e-07 -2.96775)
(0.558659 -2.97181e-06 -2.96774)
(0.558658 -4.09158e-06 -2.96774)
(0.558659 -1.61812e-06 -2.96774)
(1.61397 3.40977e-06 -2.81487)
(1.61398 -6.84973e-06 -2.81491)
(1.61398 -5.7053e-06 -2.8149)
(1.61397 -6.05359e-06 -2.81489)
(1.61396 -5.88417e-06 -2.81491)
(1.61397 -1.28624e-05 -2.81488)
(2.86268 -9.60916e-07 -2.44583)
(2.86273 -2.3533e-05 -2.44586)
(2.86272 2.6986e-06 -2.44585)
(2.86272 -1.22986e-05 -2.44584)
(2.86272 -3.82852e-06 -2.44586)
(2.86269 -2.52043e-05 -2.44582)
(4.02491 4.02636e-06 -2.81394)
(4.02498 -3.90625e-05 -2.81402)
(4.02497 2.28795e-05 -2.814)
(4.02496 -4.18291e-06 -2.81399)
(4.02498 1.39058e-05 -2.814)
(4.02493 -4.03109e-05 -2.81397)
(5.96334 2.77192e-05 -2.07925)
(5.96342 -1.7468e-05 -2.07933)
(5.96339 6.88415e-05 -2.07937)
(5.96338 1.5011e-05 -2.07937)
(5.96338 4.07282e-05 -2.07938)
(5.96331 -4.78246e-05 -2.07942)
(7.15009 8.18975e-05 -2.58836)
(7.15014 2.61472e-05 -2.58846)
(7.15011 6.81393e-05 -2.58848)
(7.15007 -7.22757e-06 -2.58845)
(7.15008 1.47637e-05 -2.58844)
(7.14997 -7.48814e-05 -2.5885)
(9.60697 2.54367e-05 -3.20335)
(9.6069 -6.00998e-05 -3.20349)
(9.60688 -1.02931e-05 -3.2035)
(9.60689 -0.000108892 -3.20348)
(9.60693 -8.71038e-05 -3.20351)
(9.60673 -0.000132783 -3.20358)
(10.3721 3.71539e-05 -3.17309)
(10.3722 -0.000105374 -3.17291)
(10.3721 -0.000142049 -3.17298)
(10.3721 -0.000169542 -3.17312)
(10.3722 -0.000139376 -3.17322)
(10.3719 -0.000157937 -3.17332)
(8.97756 6.58156e-05 -1.47256)
(8.97812 -5.56846e-05 -1.47208)
(8.97783 -7.44075e-05 -1.47203)
(8.97784 2.03996e-05 -1.47221)
(8.97821 0.000121477 -1.47231)
(8.9778 3.68625e-05 -1.47225)
(7.40324 7.71272e-05 2.12696)
(7.40357 0.000254031 2.12779)
(7.40334 0.000367719 2.12781)
(7.40344 0.000315592 2.12772)
(7.40346 0.000334976 2.1277)
(7.40425 0.000154706 2.12687)
(7.21973 0.000191896 4.83932)
(7.21953 0.000337902 4.83965)
(7.21919 0.00023937 4.83968)
(7.21931 -6.4589e-05 4.83967)
(7.22304 -0.000353163 4.83848)
(7.2169 -0.00026669 4.84018)
(11.9237 -1.15252e-05 16.1452)
(11.925 -8.72356e-05 16.1455)
(11.9249 -0.000166247 16.1455)
(11.9249 3.15527e-05 16.1456)
(11.9261 -0.000643938 16.1464)
(11.923 -0.000743997 16.1453)
(-0.744664 2.53815e-06 -3.72155)
(-0.744672 1.97291e-06 -3.72158)
(-0.744654 1.58485e-06 -3.72157)
(-0.744652 -8.67903e-07 -3.72156)
(-0.744659 1.225e-06 -3.72156)
(-0.744644 1.08282e-06 -3.72158)
(1.24303 3.82835e-05 -4.30511)
(1.24303 -7.75817e-05 -4.30515)
(1.24302 5.50029e-05 -4.30516)
(1.24303 -3.17611e-05 -4.30514)
(1.24303 7.90077e-05 -4.30513)
(1.24298 -6.13711e-05 -4.3051)
(2.41792 6.6003e-05 -3.86748)
(2.41775 -8.49843e-05 -3.86763)
(2.41772 9.45984e-05 -3.86766)
(2.41776 -2.8751e-05 -3.86763)
(2.4178 0.000132231 -3.8676)
(2.41777 -5.83069e-05 -3.86764)
(4.26627 0.000173647 -4.75077)
(4.26662 0.000170647 -4.75091)
(4.26671 0.000297119 -4.75082)
(4.26674 8.61805e-05 -4.7507)
(4.26676 0.00016721 -4.75062)
(4.26691 -4.86235e-05 -4.7506)
(3.26992 9.53446e-05 -1.52646)
(3.27012 0.00013836 -1.52636)
(3.2702 0.000247606 -1.52652)
(3.27028 0.000113742 -1.52653)
(3.27029 0.000141204 -1.5265)
(3.27021 5.70765e-06 -1.52671)
(0.839718 2.58359e-05 -4.02665)
(0.839915 3.77607e-05 -4.02661)
(0.840194 6.65824e-05 -4.0265)
(0.840331 5.73921e-05 -4.02643)
(0.840376 7.72344e-05 -4.02642)
(0.840392 2.82198e-05 -4.02648)
(-0.669051 -4.55534e-05 -3.36593)
(-0.668977 -4.82617e-05 -3.36601)
(-0.668831 -6.2553e-05 -3.36594)
(-0.668764 -2.30488e-05 -3.36592)
(-0.668668 2.91477e-05 -3.36606)
(-0.668438 2.58414e-05 -3.3663)
(0.308434 -4.78035e-05 -2.10763)
(0.308451 -6.12114e-06 -2.10763)
(0.30855 1.66687e-05 -2.10778)
(0.308528 7.1782e-05 -2.10795)
(0.308568 5.24608e-05 -2.10824)
(0.308786 -1.18259e-05 -2.10868)
(1.2779 9.37329e-05 -1.43306)
(1.27789 0.000173422 -1.43295)
(1.27789 0.000167328 -1.4331)
(1.27783 0.000259567 -1.43322)
(1.27802 0.000127152 -1.43321)
(1.27795 -3.06452e-05 -1.43341)
(6.19696 0.000121557 1.94694)
(6.19746 0.000181254 1.94747)
(6.19762 0.00017762 1.94824)
(6.19784 0.000444875 1.94837)
(6.198 0.000135435 1.9478)
(6.19834 -0.000147537 1.94856)
(6.40878 -7.11817e-06 9.49344)
(6.40944 7.01491e-05 9.49336)
(6.40917 0.000225986 9.49445)
(6.40921 0.000547293 9.49437)
(6.41078 -0.000530483 9.48969)
(6.40751 -0.000983754 9.49732)
(11.114 -3.33622e-05 20.1198)
(11.1149 0.000153326 20.1203)
(11.1139 -0.000155558 20.1203)
(11.1141 -0.00011483 20.1203)
(11.1286 -0.00274434 20.139)
(11.1022 -0.00286585 20.1019)
(-0.000496272 -2.03342e-07 -0.000500313)
(-0.000496247 -9.11085e-08 -0.000500226)
(-0.00049625 6.73503e-08 -0.000500228)
(-0.000496266 1.61269e-08 -0.000500218)
(-0.000496263 7.24268e-08 -0.000500222)
(-0.000496348 1.23905e-08 -0.000500279)
(-0.0015096 -1.11181e-07 -0.000521494)
(-0.00150946 3.20383e-08 -0.000521422)
(-0.00150947 1.15599e-07 -0.000521435)
(-0.00150949 5.29525e-08 -0.000521436)
(-0.00150949 1.025e-07 -0.000521448)
(-0.00150971 6.12717e-08 -0.000521517)
(-0.00258077 -2.71401e-08 -0.000560026)
(-0.00258043 1.45904e-07 -0.000559965)
(-0.00258047 1.62152e-07 -0.000559988)
(-0.00258048 7.38732e-08 -0.000560003)
(-0.00258049 9.65218e-08 -0.000560019)
(-0.00258084 5.34859e-08 -0.000560099)
(-0.00373301 3.52376e-08 -0.000599906)
(-0.00373253 2.85709e-07 -0.000599792)
(-0.00373262 2.63104e-07 -0.000599814)
(-0.00373268 1.29898e-07 -0.000599809)
(-0.00373272 1.03538e-07 -0.000599815)
(-0.00373327 3.12977e-08 -0.000599878)
(-0.00497956 1.72347e-07 -0.000591944)
(-0.00497911 5.49615e-07 -0.000591588)
(-0.00497928 4.89511e-07 -0.000591518)
(-0.00497943 2.90793e-07 -0.000591448)
(-0.00497949 1.59304e-07 -0.000591418)
(-0.00498024 2.97804e-08 -0.00059145)
(-0.00632229 5.7325e-07 -0.000447928)
(-0.00632198 1.13919e-06 -0.00044693)
(-0.00632227 8.1896e-07 -0.000446602)
(-0.00632244 4.48309e-07 -0.000446429)
(-0.00632239 1.30663e-07 -0.000446385)
(-0.00632321 -1.07504e-08 -0.000446481)
(-0.0077457 1.13265e-06 -4.2545e-05)
(-0.00774575 1.9498e-06 -4.03211e-05)
(-0.00774617 1.13318e-06 -3.95817e-05)
(-0.00774621 3.38335e-07 -3.93297e-05)
(-0.00774579 -2.81153e-07 -3.94157e-05)
(-0.00774628 -2.42971e-07 -3.98312e-05)
(-0.00927428 2.06049e-06 0.000715797)
(-0.00927504 3.1903e-06 0.000719697)
(-0.00927544 1.35621e-06 0.000720804)
(-0.00927504 -2.26522e-07 0.000720945)
(-0.00927385 -1.34116e-06 0.000720453)
(-0.00927338 -8.17705e-07 0.000719351)
(-0.0107305 3.15009e-06 0.00157303)
(-0.0107314 4.35816e-06 0.00157823)
(-0.0107312 9.70069e-07 0.00157937)
(-0.01073 -1.53618e-06 0.00157917)
(-0.0107277 -3.15394e-06 0.00157811)
(-0.0107258 -1.77927e-06 0.00157618)
(-0.0113954 2.59544e-06 0.00258904)
(-0.0113961 2.76408e-06 0.00259536)
(-0.011395 -1.11472e-06 0.00259626)
(-0.0113928 -3.57032e-06 0.00259521)
(-0.0113894 -4.99264e-06 0.00259277)
(-0.0113855 -2.61574e-06 0.00258892)
(-0.0111517 -4.85401e-07 0.00363287)
(-0.0111518 -2.34624e-06 0.00363237)
(-0.0111506 -4.43327e-06 0.00363096)
(-0.0111483 -5.38425e-06 0.00362816)
(-0.0111442 -5.49369e-06 0.00362384)
(-0.0111377 -2.65861e-06 0.00361762)
(-0.00683694 -2.43211e-06 0.00770422)
(-0.00683639 -4.13689e-06 0.00769927)
(-0.00683586 -3.1635e-06 0.00769744)
(-0.00683498 -2.02738e-06 0.00769592)
(-0.00683306 -7.89767e-07 0.00769419)
(-0.00682929 1.88431e-08 0.00769161)
(-0.000479411 -1.562e-07 -0.00145314)
(-0.000479376 -6.23848e-08 -0.0014529)
(-0.000479375 9.00124e-08 -0.00145291)
(-0.000479386 3.55943e-08 -0.0014529)
(-0.000479382 1.10594e-07 -0.0014529)
(-0.000479463 3.65481e-08 -0.00145309)
(-0.00146291 -7.98121e-08 -0.00152074)
(-0.00146274 4.0885e-08 -0.00152054)
(-0.00146273 1.27512e-07 -0.00152056)
(-0.00146274 6.45501e-08 -0.00152056)
(-0.00146272 1.37939e-07 -0.00152058)
(-0.00146292 8.13212e-08 -0.00152079)
(-0.00252391 -1.74769e-08 -0.00165427)
(-0.00252356 1.17038e-07 -0.00165406)
(-0.00252356 1.38234e-07 -0.0016541)
(-0.00252355 5.06858e-08 -0.00165412)
(-0.00252353 8.39688e-08 -0.00165414)
(-0.00252386 3.77335e-08 -0.00165437)
(-0.00373142 4.48241e-08 -0.00184878)
(-0.00373095 2.00495e-07 -0.00184843)
(-0.00373098 1.68043e-07 -0.00184845)
(-0.00373102 5.08185e-08 -0.00184843)
(-0.00373101 3.75888e-08 -0.00184844)
(-0.00373155 -1.24705e-09 -0.00184865)
(-0.0051731 1.4751e-07 -0.00210384)
(-0.00517273 3.37647e-07 -0.00210295)
(-0.00517289 2.40469e-07 -0.00210276)
(-0.00517298 6.72583e-08 -0.0021026)
(-0.00517297 -1.09753e-08 -0.00210252)
(-0.00517369 -3.10734e-08 -0.0021027)
(-0.00692682 4.51153e-07 -0.00244026)
(-0.00692689 7.21029e-07 -0.00243807)
(-0.00692727 3.33995e-07 -0.00243736)
(-0.00692739 -2.63959e-08 -0.00243701)
(-0.00692724 -2.26658e-07 -0.00243692)
(-0.00692792 -1.45503e-07 -0.00243728)
(-0.008968 8.91483e-07 -0.00283871)
(-0.00896906 1.29288e-06 -0.00283399)
(-0.00896969 4.08933e-07 -0.00283251)
(-0.00896964 -3.6469e-07 -0.00283205)
(-0.008969 -8.02059e-07 -0.00283231)
(-0.00896912 -4.49647e-07 -0.00283343)
(-0.0108942 1.43765e-06 -0.00319603)
(-0.0108969 1.84503e-06 -0.00318741)
(-0.0108977 1.65943e-07 -0.00318492)
(-0.0108972 -1.12074e-06 -0.00318463)
(-0.0108956 -1.85029e-06 -0.00318582)
(-0.0108944 -1.00131e-06 -0.00318851)
(-0.0123954 1.14205e-06 -0.00298657)
(-0.0124023 9.95307e-07 -0.00297303)
(-0.0124038 -9.71089e-07 -0.00296935)
(-0.0124024 -2.2664e-06 -0.00296967)
(-0.0123987 -2.92198e-06 -0.00297272)
(-0.0123944 -1.51261e-06 -0.00297798)
(-0.0131734 1.86419e-06 -0.000375645)
(-0.0131846 1.14566e-06 -0.000360852)
(-0.0131861 -2.65387e-06 -0.000358025)
(-0.0131827 -4.88945e-06 -0.000360238)
(-0.0131756 -6.0967e-06 -0.000366197)
(-0.0131662 -3.18179e-06 -0.000375173)
(-0.0146254 -1.52101e-06 0.00266408)
(-0.0146353 -4.68357e-06 0.00266237)
(-0.0146357 -7.26931e-06 0.0026594)
(-0.0146312 -8.84893e-06 0.00265354)
(-0.0146217 -9.25917e-06 0.0026441)
(-0.0146071 -4.61328e-06 0.00263048)
(-0.0110726 -4.90255e-06 0.0146293)
(-0.0110756 -7.80255e-06 0.0146183)
(-0.0110756 -4.53568e-06 0.0146149)
(-0.0110737 -1.59792e-06 0.0146122)
(-0.0110692 6.44032e-07 0.0146086)
(-0.0110613 7.57814e-07 0.0146035)
(-0.000439936 -1.46222e-07 -0.00233522)
(-0.000439898 -6.32527e-08 -0.00233487)
(-0.0004399 9.84895e-08 -0.00233489)
(-0.000439911 5.80808e-08 -0.00233488)
(-0.000439911 1.36965e-07 -0.00233488)
(-0.000439998 6.2468e-08 -0.0023352)
(-0.0013437 -8.52696e-08 -0.00245098)
(-0.00134354 2.58334e-08 -0.00245063)
(-0.00134354 1.35568e-07 -0.00245066)
(-0.00134354 8.63542e-08 -0.00245067)
(-0.00134353 1.76258e-07 -0.00245068)
(-0.00134373 1.15638e-07 -0.00245104)
(-0.00231575 -1.68326e-08 -0.00268187)
(-0.00231543 9.02917e-08 -0.00268149)
(-0.00231542 1.1813e-07 -0.00268154)
(-0.0023154 4.7467e-08 -0.00268154)
(-0.00231536 8.89284e-08 -0.00268155)
(-0.00231567 5.38363e-08 -0.00268192)
(-0.00338259 5.4055e-08 -0.00301973)
(-0.00338215 1.35749e-07 -0.00301918)
(-0.00338217 6.26182e-08 -0.00301918)
(-0.00338216 -4.53693e-08 -0.00301915)
(-0.00338212 -6.43249e-08 -0.00301913)
(-0.00338263 -3.63047e-08 -0.00301948)
(-0.00454125 1.07087e-07 -0.00344388)
(-0.00454085 1.87304e-07 -0.00344265)
(-0.00454095 1.85176e-08 -0.0034424)
(-0.00454097 -1.61712e-07 -0.00344225)
(-0.0045409 -1.98077e-07 -0.00344217)
(-0.00454157 -9.48237e-08 -0.0034426)
(-0.00581777 2.19361e-07 -0.00389565)
(-0.00581776 2.65908e-07 -0.00389305)
(-0.005818 -1.04573e-07 -0.00389236)
(-0.00581798 -4.00796e-07 -0.0038921)
(-0.00581771 -4.70654e-07 -0.0038921)
(-0.00581832 -2.11858e-07 -0.00389286)
(-0.0073165 4.29768e-07 -0.00417268)
(-0.00731773 4.4388e-07 -0.00416733)
(-0.00731828 -2.71336e-07 -0.00416596)
(-0.00731805 -7.90768e-07 -0.00416576)
(-0.00731722 -9.78251e-07 -0.00416632)
(-0.00731727 -4.48971e-07 -0.00416818)
(-0.00955777 1.08575e-06 -0.00413248)
(-0.00956226 1.19587e-06 -0.00412266)
(-0.00956368 -3.7023e-07 -0.00412026)
(-0.00956291 -1.37102e-06 -0.00412035)
(-0.00956065 -1.88413e-06 -0.00412205)
(-0.00955908 -9.48238e-07 -0.00412583)
(-0.013763 2.94899e-06 -0.00390176)
(-0.0137724 3.64071e-06 -0.00388565)
(-0.0137746 -2.96841e-07 -0.00388186)
(-0.0137728 -3.16088e-06 -0.00388267)
(-0.0137681 -4.69463e-06 -0.00388657)
(-0.0137636 -2.48476e-06 -0.00389377)
(-0.0171037 2.60299e-06 -0.0026749)
(-0.017117 2.35637e-06 -0.00265788)
(-0.0171186 -2.40168e-06 -0.00265548)
(-0.0171146 -5.64129e-06 -0.00265826)
(-0.0171068 -7.43506e-06 -0.00266495)
(-0.0170975 -3.91235e-06 -0.00267666)
(-0.0222036 -2.45983e-06 -0.00307969)
(-0.0222141 -5.53934e-06 -0.00308252)
(-0.022214 -6.62561e-06 -0.00308671)
(-0.0222086 -6.87481e-06 -0.00309348)
(-0.0221978 -6.65899e-06 -0.00310504)
(-0.0221816 -3.2093e-06 -0.00312462)
(-0.0188355 -5.32308e-06 0.0154296)
(-0.0188376 -6.52623e-06 0.0154147)
(-0.0188369 -4.94292e-07 0.0154096)
(-0.0188342 4.96443e-06 0.0154054)
(-0.0188286 8.41398e-06 0.0153994)
(-0.0188187 5.02568e-06 0.0153894)
(-0.000379275 -1.68323e-07 -0.00310373)
(-0.000379252 -1.04399e-07 -0.00310324)
(-0.000379253 9.00626e-08 -0.00310326)
(-0.000379263 7.35083e-08 -0.00310325)
(-0.000379265 1.89525e-07 -0.00310325)
(-0.000379329 1.14824e-07 -0.00310372)
(-0.00116538 -8.83885e-08 -0.00327501)
(-0.00116524 -3.06392e-09 -0.00327452)
(-0.00116522 1.17263e-07 -0.00327455)
(-0.00116522 9.70796e-08 -0.00327456)
(-0.00116521 1.93604e-07 -0.00327456)
(-0.00116538 1.30321e-07 -0.00327507)
(-0.00204272 -4.26539e-08 -0.00362263)
(-0.00204239 1.5093e-08 -0.0036221)
(-0.00204235 5.80837e-08 -0.00362214)
(-0.0020423 2.16483e-08 -0.00362214)
(-0.00204226 9.02073e-08 -0.00362214)
(-0.00204255 7.1256e-08 -0.00362265)
(-0.00310162 -5.28895e-08 -0.00414588)
(-0.00310116 -5.96212e-08 -0.00414517)
(-0.00310109 -9.22489e-08 -0.00414514)
(-0.00310103 -1.56292e-07 -0.00414509)
(-0.00310095 -7.44773e-08 -0.00414504)
(-0.00310137 -1.0642e-09 -0.00414556)
(-0.00448706 1.12851e-08 -0.00483216)
(-0.00448634 -1.11744e-07 -0.00483084)
(-0.00448619 -3.31259e-07 -0.00483062)
(-0.00448605 -4.30579e-07 -0.00483045)
(-0.00448589 -4.06814e-07 -0.00483034)
(-0.00448646 -1.84113e-07 -0.004831)
(-0.00646812 -2.74755e-07 -0.00563731)
(-0.00646708 -6.78869e-07 -0.00563483)
(-0.00646677 -8.52309e-07 -0.00563425)
(-0.00646642 -8.76166e-07 -0.00563398)
(-0.00646603 -6.39559e-07 -0.00563393)
(-0.00646661 -2.21703e-07 -0.00563491)
(-0.00912537 -5.9972e-07 -0.00645393)
(-0.00912408 -1.37046e-06 -0.00644909)
(-0.00912344 -1.49508e-06 -0.0064479)
(-0.00912263 -1.39707e-06 -0.00644767)
(-0.00912173 -1.01003e-06 -0.00644808)
(-0.00912194 -3.72359e-07 -0.0064501)
(-0.0119424 -1.38881e-06 -0.00672042)
(-0.0119414 -2.78239e-06 -0.00671169)
(-0.0119403 -2.50676e-06 -0.00670947)
(-0.0119387 -1.98073e-06 -0.00670935)
(-0.0119367 -1.20952e-06 -0.00671064)
(-0.0119358 -4.15278e-07 -0.00671419)
(-0.0146573 -2.3996e-06 -0.00616274)
(-0.0146577 -4.62704e-06 -0.00614896)
(-0.0146564 -3.98714e-06 -0.00614553)
(-0.0146538 -3.01006e-06 -0.00614576)
(-0.0146503 -1.89667e-06 -0.0061486)
(-0.0146471 -7.2498e-07 -0.00615481)
(-0.0163175 -4.67155e-06 0.00172564)
(-0.0163215 -7.94084e-06 0.00174099)
(-0.0163201 -4.76314e-06 0.00174392)
(-0.0163154 -1.38148e-06 0.00174193)
(-0.0163074 8.19663e-07 0.00173573)
(-0.0162971 6.14201e-07 0.00172476)
(-0.0271017 -2.17853e-06 0.0134428)
(-0.0270936 -3.62525e-06 0.0134351)
(-0.0270847 -1.46837e-06 0.0134304)
(-0.0270753 9.24999e-07 0.0134246)
(-0.0270614 2.14953e-06 0.013414)
(-0.0270389 1.12315e-06 0.0133963)
(-0.033289 -4.71307e-06 0.0975676)
(-0.0332678 -4.58758e-06 0.0975188)
(-0.0332566 3.3522e-06 0.0975015)
(-0.0332495 9.853e-06 0.0974937)
(-0.0332423 1.39155e-05 0.0974905)
(-0.0332316 7.64078e-06 0.0974931)
(-3.10373 1.77324e-05 -3.42363)
(-3.1038 1.56705e-05 -3.42362)
(-3.10375 9.4322e-06 -3.42362)
(-3.10376 6.23162e-06 -3.42363)
(-3.10377 3.21175e-05 -3.42363)
(-3.10373 2.21528e-05 -3.42358)
(-3.77668 4.40586e-06 -3.39161)
(-3.77684 -2.63316e-06 -3.39148)
(-3.77676 2.34935e-05 -3.39146)
(-3.77676 1.75659e-05 -3.39155)
(-3.77678 6.13243e-06 -3.39154)
(-3.77673 -6.56833e-06 -3.39127)
(-1.18209 -7.31313e-06 -3.60863)
(-1.1822 -2.71509e-05 -3.60864)
(-1.18214 -2.92723e-06 -3.60864)
(-1.18214 -1.98515e-05 -3.60861)
(-1.18216 -1.05563e-05 -3.60856)
(-1.18208 -1.11372e-05 -3.60859)
(2.87608 -1.9563e-05 -5.79713)
(2.87636 -7.02444e-05 -5.79714)
(2.87636 0.000170055 -5.79719)
(2.87619 4.00561e-05 -5.7972)
(2.87617 0.000287354 -5.79714)
(2.87658 0.000111804 -5.79705)
(3.61434 -8.46453e-06 -4.83503)
(3.61448 -1.95393e-05 -4.83506)
(3.61442 -4.1592e-05 -4.83504)
(3.61442 -4.2075e-05 -4.83506)
(3.61444 -5.04944e-05 -4.83506)
(3.61443 4.67575e-06 -4.83484)
(-0.50334 -6.62054e-07 -5.82932)
(-0.503363 1.00444e-05 -5.82949)
(-0.503376 2.51589e-05 -5.82941)
(-0.503389 3.17428e-05 -5.82936)
(-0.503389 -3.60822e-06 -5.8294)
(-0.503384 -1.61716e-05 -5.82928)
(-1.46236 2.84455e-05 -2.51696)
(-1.46273 5.16949e-06 -2.51724)
(-1.4628 4.12666e-05 -2.51731)
(-1.46272 -1.4351e-06 -2.51731)
(-1.46257 2.25145e-05 -2.51726)
(-1.46249 3.13611e-05 -2.51729)
(-1.98385 -1.2278e-05 -0.974889)
(-1.98422 2.74726e-05 -0.974948)
(-1.98422 2.8791e-05 -0.974876)
(-1.98422 4.53103e-05 -0.974903)
(-1.98415 2.66675e-05 -0.974951)
(-1.98395 5.09737e-05 -0.974823)
(-0.598392 1.99873e-06 -0.92483)
(-0.59837 -5.15399e-06 -0.92484)
(-0.598394 -1.02432e-06 -0.924784)
(-0.598403 -2.53599e-06 -0.924774)
(-0.598393 1.17538e-06 -0.924788)
(-0.598406 -5.12148e-06 -0.924685)
(-1.86087 5.03931e-05 -3.15232)
(-1.86131 9.08317e-06 -3.15258)
(-1.86117 -7.11085e-05 -3.15244)
(-1.86113 -5.09141e-05 -3.15239)
(-1.86107 -5.15822e-05 -3.15242)
(-1.86072 9.80314e-06 -3.15247)
(-0.97063 -2.07958e-05 -2.53891)
(-0.970897 -8.53246e-05 -2.53896)
(-0.970943 -0.000103196 -2.53889)
(-0.971003 -7.99293e-05 -2.53887)
(-0.971039 -4.75818e-05 -2.53886)
(-0.970937 -7.84401e-06 -2.53875)
(-0.354829 5.69917e-06 -2.62143)
(-0.354832 4.97659e-06 -2.62148)
(-0.354871 -8.56443e-06 -2.62146)
(-0.354884 -1.49956e-05 -2.62146)
(-0.354892 -1.33135e-05 -2.62147)
(-0.35492 -3.41107e-06 -2.62138)
(-2.01031 -3.02098e-05 -0.967579)
(-2.01046 -5.47584e-05 -0.967584)
(-2.01039 -4.33038e-05 -0.967466)
(-2.01035 -2.02984e-05 -0.967376)
(-2.01032 -1.43382e-07 -0.96739)
(-2.01006 5.31163e-06 -0.967395)
(-0.919423 -1.24677e-05 -2.68359)
(-0.91956 -3.97263e-05 -2.68365)
(-0.91959 -5.99821e-05 -2.6836)
(-0.919632 -4.47504e-05 -2.68355)
(-0.919656 -1.65614e-05 -2.68352)
(-0.919565 5.52856e-06 -2.68339)
(-0.0478741 -4.36701e-06 -2.88164)
(-0.0478917 -1.08296e-05 -2.88175)
(-0.0479075 -1.91759e-05 -2.88176)
(-0.0479186 -2.74906e-05 -2.88178)
(-0.0479262 -2.12779e-05 -2.88181)
(-0.0479353 -6.77872e-06 -2.88173)
(-1.47035 -6.61196e-05 -1.78808)
(-1.47072 -5.10471e-05 -1.7881)
(-1.47073 1.05536e-05 -1.788)
(-1.4707 3.75815e-05 -1.78792)
(-1.47067 6.96428e-05 -1.78793)
(-1.4704 4.11653e-05 -1.78796)
(-0.479897 -1.05476e-05 -3.06583)
(-0.480005 -2.42012e-05 -3.0659)
(-0.480034 -2.76335e-05 -3.06588)
(-0.480061 -1.21883e-05 -3.06585)
(-0.480075 1.23859e-05 -3.06584)
(-0.479962 1.94028e-05 -3.06573)
(-0.0577299 -5.03524e-06 -2.83203)
(-0.0577448 -1.31214e-05 -2.83211)
(-0.0577476 -1.596e-05 -2.8321)
(-0.0577486 -1.76057e-05 -2.83211)
(-0.0577471 -1.45736e-05 -2.83213)
(-0.0577335 -6.21322e-06 -2.83208)
(-0.683625 -9.53546e-07 -3.16275)
(-0.684073 5.16118e-05 -3.16281)
(-0.683963 0.000122993 -3.16278)
(-0.683869 0.000128962 -3.16277)
(-0.683796 0.00015504 -3.1628)
(-0.683419 8.27559e-05 -3.16284)
(-0.363169 -2.37976e-05 -3.16156)
(-0.363317 -3.41518e-05 -3.16157)
(-0.363335 -2.29841e-06 -3.16156)
(-0.363329 7.10331e-06 -3.16158)
(-0.363336 4.7984e-05 -3.16163)
(-0.363157 4.62472e-05 -3.16161)
(-0.117924 -1.29718e-05 -3.05763)
(-0.117951 -1.71772e-05 -3.05764)
(-0.117952 -4.42193e-06 -3.05763)
(-0.117947 1.23813e-06 -3.05764)
(-0.11794 1.15112e-05 -3.05767)
(-0.117906 1.01581e-05 -3.05766)
(-0.5357 6.51628e-05 -3.71333)
(-0.536327 0.000139336 -3.71342)
(-0.53612 0.000153493 -3.71341)
(-0.535993 0.000145181 -3.71346)
(-0.535898 0.000127671 -3.71345)
(-0.535382 6.36716e-05 -3.71362)
(-0.601279 -2.90151e-05 -3.22025)
(-0.601632 -2.85671e-05 -3.22022)
(-0.601634 3.25247e-06 -3.22023)
(-0.601647 -3.13735e-05 -3.22028)
(-0.601708 4.65644e-05 -3.22032)
(-0.601252 7.96059e-05 -3.22041)
(-0.219295 -2.67532e-05 -2.94169)
(-0.219378 -3.62207e-05 -2.94163)
(-0.219401 -1.33674e-05 -2.94162)
(-0.219414 -1.58154e-05 -2.94163)
(-0.21943 2.35405e-05 -2.94164)
(-0.219354 3.56699e-05 -2.94169)
(-0.395602 0.00015869 -4.35629)
(-0.39607 0.000303127 -4.35624)
(-0.395937 0.00027162 -4.3562)
(-0.395913 0.000303727 -4.35614)
(-0.395904 0.000187347 -4.35598)
(-0.395458 1.79924e-05 -4.35614)
(-1.36445 -2.10251e-05 -4.06614)
(-1.36497 1.52609e-06 -4.06598)
(-1.36493 -1.49592e-05 -4.06599)
(-1.36501 -7.04131e-05 -4.06594)
(-1.36521 1.56965e-05 -4.06578)
(-1.36452 4.94549e-05 -4.06609)
(-0.618089 -6.24727e-05 -2.99368)
(-0.618329 -0.000103111 -2.99356)
(-0.618366 -8.65305e-05 -2.99354)
(-0.618427 -0.00012273 -2.99352)
(-0.618527 -1.5012e-05 -2.99348)
(-0.618291 6.10016e-05 -2.99373)
(2.77541 0.000254862 -1.49269)
(2.77558 0.000296505 -1.49216)
(2.77581 6.76942e-05 -1.49177)
(2.77624 0.000325178 -1.49161)
(2.77674 0.000258363 -1.49196)
(2.77693 4.17337e-06 -1.49047)
(-1.65606 0.000151967 -2.93794)
(-1.65645 0.000240756 -2.93737)
(-1.6563 7.84393e-05 -2.93705)
(-1.6563 0.000309004 -2.93675)
(-1.65653 5.07765e-05 -2.93663)
(-1.65571 -0.000242724 -2.93563)
(-1.39157 -2.47954e-05 -2.9013)
(-1.39199 -6.54838e-05 -2.90095)
(-1.39201 -0.000121157 -2.90082)
(-1.39217 -7.65211e-05 -2.9006)
(-1.39244 -0.000173626 -2.90034)
(-1.39198 -0.000173808 -2.9006)
(3.68559 0.00074488 7.40088)
(3.68728 0.000648076 7.40086)
(3.68714 0.000161776 7.40218)
(3.687 0.00118186 7.40198)
(3.68566 -0.000475378 7.39683)
(3.68831 -0.00138621 7.40567)
(-1.04593 0.000609372 3.29317)
(-1.04535 0.00054619 3.29414)
(-1.0451 0.000159102 3.29502)
(-1.04497 0.00130738 3.29489)
(-1.04626 -0.00058075 3.2924)
(-1.04261 -0.00160582 3.29937)
(-2.55254 0.000343426 -0.475634)
(-2.55273 0.000413052 -0.47458)
(-2.55259 0.000125836 -0.474198)
(-2.55254 0.000619671 -0.473806)
(-2.55287 -0.000349898 -0.473612)
(-2.55199 -0.00088097 -0.471292)
(10.5689 -3.96713e-06 21.8628)
(10.5708 -0.00032145 21.8638)
(10.5701 -0.000825762 21.8644)
(10.5702 -0.000733463 21.8643)
(10.5814 -0.00049561 21.8756)
(10.5607 -0.000165542 21.8505)
(7.74341 0.000490519 20.7481)
(7.74535 -8.98245e-05 20.7495)
(7.74464 -0.000814088 20.7495)
(7.74454 -0.000744413 20.7493)
(7.74988 0.00013336 20.7537)
(7.73926 0.000755332 20.7426)
(3.02987 0.000608952 15.93)
(3.03192 0.000357237 15.934)
(3.03109 -9.21312e-05 15.9328)
(3.03096 3.89483e-05 15.9325)
(3.03244 0.00025159 15.9339)
(3.02887 0.000472146 15.932)
(-0.538541 -4.29806e-06 -0.238332)
(-0.538503 -3.76008e-06 -0.238337)
(-0.538493 4.3575e-06 -0.238336)
(-0.538491 1.26399e-05 -0.238333)
(-0.538493 1.86447e-05 -0.238329)
(-0.538532 1.1974e-05 -0.238326)
(0.0585256 -2.19128e-07 -0.453069)
(0.0585828 8.13567e-06 -0.453067)
(0.058581 2.25224e-05 -0.453068)
(0.0585659 3.14796e-05 -0.453068)
(0.0585432 3.64489e-05 -0.453065)
(0.0584625 2.00729e-05 -0.453072)
(0.352181 -5.54091e-06 0.102251)
(0.352219 -5.13732e-07 0.102293)
(0.352214 1.53697e-05 0.102287)
(0.3522 2.41881e-05 0.102274)
(0.352181 3.13065e-05 0.102259)
(0.352126 1.78287e-05 0.102203)
(-0.609995 2.54232e-06 -0.539247)
(-0.609931 -1.75183e-06 -0.539272)
(-0.609917 3.79543e-06 -0.53927)
(-0.609919 1.33392e-05 -0.539262)
(-0.60991 3.00615e-05 -0.539247)
(-0.610016 2.11384e-05 -0.539217)
(0.184402 -6.29766e-07 -0.923397)
(0.184485 1.54739e-05 -0.923451)
(0.184479 4.44417e-05 -0.923448)
(0.184451 6.13772e-05 -0.923442)
(0.184418 8.84889e-05 -0.92343)
(0.184254 5.57983e-05 -0.92338)
(0.671295 -1.59987e-05 0.239135)
(0.671384 -3.73726e-06 0.239192)
(0.671367 3.38831e-05 0.23918)
(0.67134 5.07159e-05 0.239152)
(0.671302 7.62874e-05 0.239115)
(0.67116 4.76027e-05 0.239018)
(-1.97877 -1.03888e-05 -0.827187)
(-1.97879 -1.31135e-05 -0.82724)
(-1.97872 1.05929e-05 -0.827227)
(-1.97871 7.92571e-06 -0.827208)
(-1.97865 9.53413e-05 -0.827174)
(-1.97872 0.000101812 -0.827094)
(0.279561 1.94867e-05 -1.77369)
(0.279697 5.4245e-05 -1.77387)
(0.279679 8.06806e-05 -1.77382)
(0.279623 9.07222e-05 -1.7738)
(0.279622 0.000170829 -1.77378)
(0.279141 0.00013014 -1.77359)
(1.27389 -6.70537e-05 0.452831)
(1.27416 -3.79598e-05 0.452873)
(1.27412 6.58081e-05 0.452856)
(1.27406 8.03255e-05 0.452804)
(1.27403 0.000184929 0.452728)
(1.27356 0.000141625 0.452528)
(-1.21626 0.000152606 -1.9562)
(-1.2162 8.10116e-05 -1.95625)
(-1.21613 -5.81676e-05 -1.95619)
(-1.21617 -7.25721e-05 -1.95615)
(-1.2156 -5.80443e-05 -1.95612)
(-1.21671 4.26243e-06 -1.95595)
(1.29402 0.000113167 -2.01078)
(1.29422 0.000242204 -2.01018)
(1.29417 0.00025535 -2.01032)
(1.29399 0.000113529 -2.01039)
(1.29419 0.000500339 -2.01012)
(1.29259 0.000526675 -2.01143)