/*--------------------------------*- C++ -*----------------------------------*\
| =========                 |                                                 |
| \\      /  F ield         | OpenFOAM: The Open Source CFD Toolbox           |
|  \\    /   O peration     | Version:  v1612+                                |
|   \\  /    A nd           | Web:      www.OpenFOAM.com                      |
|    \\/     M anipulation  |                                                 |
\*---------------------------------------------------------------------------*/
FoamFile
{
    version     2.0;
    format      ascii;
    class       volScalarField;
    location    "7.6";
    object      alpha.water;
}
// * * * * * * * * * * * * * * * * * * * * * * * * * * * * * * * * * * * * * //

dimensions      [0 0 0 0 0 0 0];

internalField   nonuniform List<scalar> 
1116
(
0.698965
0.698965
0.698967
0.698969
0.69897
0.698971
0.892084
0.892327
0.892181
0.892167
0.892252
0.892124
0.974152
0.974153
0.974152
0.974152
0.974152
0.974152
0.974153
0.974153
0.974153
0.974152
0.974152
0.974152
0.974152
0.974153
0.974152
0.974152
0.974152
0.974152
0.930171
0.92985
0.92992
0.930121
0.929973
0.93005
0.846986
0.847951
0.848041
0.846738
0.845506
0.848993
0.791761
0.792851
0.793101
0.79136
0.790604
0.793739
0.768399
0.767951
0.768385
0.767939
0.768644
0.767511
0.766977
0.76548
0.765879
0.766737
0.768133
0.764756
0.765994
0.763824
0.763952
0.76642
0.767367
0.764047
0.759883
0.759247
0.759328
0.759971
0.760639
0.760236
0.776612
0.777443
0.777034
0.776979
0.777208
0.776693
0.89268
0.892759
0.892727
0.892683
0.892685
0.892663
0.888153
0.888106
0.888128
0.888092
0.888033
0.888198
0.884317
0.883834
0.883937
0.884161
0.884244
0.883912
0.739599
0.73954
0.739583
0.739436
0.739459
0.739838
0.437896
0.440037
0.439603
0.438305
0.437372
0.439743
0.206135
0.208579
0.208296
0.206817
0.206513
0.208883
0.106192
0.107718
0.107579
0.10615
0.105631
0.10762
0.116501
0.117678
0.117734
0.115923
0.115557
0.116856
0.126246
0.124825
0.12559
0.125363
0.125842
0.123853
0.102958
0.101389
0.101623
0.102397
0.103164
0.102075
0.157898
0.158827
0.159492
0.157746
0.157881
0.160762
0.770122
0.770027
0.770052
0.770151
0.770259
0.77007
0.482346
0.480419
0.479812
0.482173
0.483887
0.479435
0.38724
0.385295
0.384381
0.387123
0.388805
0.383658
0.314907
0.315995
0.315518
0.315276
0.31455
0.316451
0.182929
0.177913
0.177812
0.182398
0.185009
0.176316
0.0795696
0.0752334
0.0748878
0.0789458
0.0824606
0.0715928
0.0190063
0.021036
0.020504
0.0188915
0.0193376
0.0199668
0.018848
0.0166657
0.0166404
0.0192755
0.0210397
0.0134645
0.0172876
0.0170727
0.0168611
0.0177849
0.0178776
0.0172331
0.016233
0.0165101
0.016344
0.0163741
0.0158825
0.0167582
0.0277158
0.0273211
0.0273807
0.0277439
0.0272743
0.0267471
0.0348674
0.0324671
0.0324944
0.0350236
0.0356306
0.0317892
0.3995
0.389231
0.393395
0.395507
0.394502
0.397499
0.00175961
0.000727106
0.000996598
0.00143443
0.0012237
0.00123178
0.000117562
8.59061e-05
8.86586e-05
0.000120253
0.000156127
8.34641e-05
8.06651e-05
6.64565e-05
6.71116e-05
7.77539e-05
8.1596e-05
5.03237e-05
6.04579e-05
5.86738e-05
5.62762e-05
5.42371e-05
5.03237e-05
4.54352e-05
4.49393e-05
4.26026e-05
4.23629e-05
4.41914e-05
4.00082e-05
3.44517e-05
1.57442e-05
1.36342e-05
1.30348e-05
1.55179e-05
1.77015e-05
1.19129e-05
1.90198e-05
1.78471e-05
1.74076e-05
1.91773e-05
1.92003e-05
1.59411e-05
6.08041e-06
7.17205e-06
7.14132e-06
6.15513e-06
5.84569e-06
8.65939e-06
1.06308e-06
1.22438e-06
1.2087e-06
1.05625e-06
9.41945e-07
1.35858e-06
0.000974049
0.000816205
0.000929137
0.00109965
0.00139111
0.00112129
0.0107378
0.0094491
0.00984073
0.0110341
0.012436
0.00978318
0.0922811
0.0922892
0.0922883
0.0922883
0.0922934
0.0923197
0.0922965
0.09229
0.0922895
0.0922913
0.092293
0.0923064
0.09232
0.0805188
0.0922723
0.0922818
0.0922885
0.0922972
0.0423491
0.0630473
0.0526815
0.0494368
0.0796303
0.0830392
0.0540359
0.0529772
0.0282225
0.0040647
0.0354853
0.0154578
0.0614733
0.0495737
0.029016
0.00490176
0.0285213
0.0345006
0.0623859
0.058508
0.0616216
0.0500341
0.0372598
0.0518953
0.0632506
0.0632325
0.0632082
0.0629768
0.0455509
0.0520977
0.0574769
0.063197
0.0630079
0.0458385
0.0408457
0.0521918
0.0383514
0.0542002
0.0628535
0.0390704
0.0359587
0.0576993
0.0356277
0.0486029
0.0627113
0.0529141
0.0509243
0.0597466
0.0417425
0.0417675
0.0625709
0.0619879
0.0614274
0.0598498
0.092281
0.0913089
0.0922883
0.092304
0.0923197
0.0923197
0.092288
0.0682005
0.0815646
0.0877371
0.0835229
0.0923197
0.0313313
0.0177355
0.0145149
0.017447
0.0244681
0.0419327
0.00604075
0.00301475
0.00310123
0.0049999
0.00845189
0.0101801
0.000158924
0.000163989
0.00211258
0.00295837
0.00400168
0.0054874
2.96535e-07
1.93228e-07
0.0020125
0.0022878
0.00215204
0.00209935
1.9891e-08
2.69262e-08
0.000666222
0.00185868
0.000796821
1.0401e-08
5.52659e-08
1.63359e-08
3.25031e-08
4.04696e-08
2.46153e-08
1.44336e-08
9.53294e-09
1.00895e-08
1.63326e-08
3.24983e-08
4.04643e-08
2.46167e-08
0.000466441
0.00140713
1.88246e-06
4.45562e-08
6.53543e-07
1.46903e-07
0.00194183
0.0034478
0.000450018
6.81969e-06
1.68945e-05
0.000520916
0.00773104
0.00338852
0.00315432
0.00975373
0.0120609
0.00289793
0.0922769
0.0922874
0.0922881
0.0922876
0.0923005
0.0923197
0.0922782
0.0613707
0.0820044
0.0665014
0.0630604
0.0922986
0.0415418
0.00563119
0.00593492
0.00158339
0.0194848
0.0569576
2.57263e-05
5.24901e-06
4.29703e-06
2.00062e-05
5.36584e-05
0.00198558
4.21086e-07
1.89479e-07
5.31078e-07
1.11237e-05
6.71648e-07
8.63031e-07
1.38337e-08
1.73342e-08
3.77535e-08
2.89643e-05
8.33917e-09
1.92015e-08
1.11957e-08
2.20845e-08
9.67631e-09
1.85563e-09
1.07731e-08
3.22699e-09
1.56899e-08
3.32156e-08
3.16022e-08
3.54976e-08
3.11917e-08
2.05838e-08
9.53437e-09
9.53544e-09
1.00916e-08
2.83548e-08
3.06078e-07
3.66183e-05
9.3889e-09
9.52209e-09
4.07222e-08
0.000271397
0.00105755
0.000176958
7.61816e-06
0.000663138
0.00183078
0.0041846
0.00383703
0.000130766
0.00397944
0.00787953
0.0113365
0.00495868
0.00319149
0.00279667
0.0922636
0.0922769
0.0922875
0.0599432
0.075087
0.0922953
0.0884478
0.0679748
0.071073
0.0350446
0.0374097
0.0374822
0.0333347
0.00805465
0.00573904
0.00193446
0.00213872
4.36074e-06
1.4742e-05
6.0649e-06
3.25158e-06
1.02866e-06
4.43691e-07
4.19434e-09
1.9057e-07
1.19167e-07
6.55192e-08
1.3527e-08
3.279e-09
4.9233e-09
-2.95381e-10
1.42488e-09
6.81677e-10
1.84222e-11
2.11168e-13
2.26575e-10
1.02746e-08
6.83066e-08
9.44441e-10
1.40323e-10
1.55521e-08
4.35522e-11
3.19756e-08
5.0424e-07
6.25987e-07
1.8524e-09
1.32579e-10
3.19841e-09
9.5358e-09
4.36521e-07
5.42552e-06
8.23934e-08
3.02074e-08
1.34785e-05
1.61772e-08
2.52769e-07
5.75865e-06
2.42102e-06
2.32818e-06
4.18919e-05
1.47551e-05
2.35402e-06
4.13468e-06
0.00483552
0.00574479
4.21093e-06
0.0138069
0.0137829
0.0126279
0.0131237
0.0131237
0.0130848
9.8213e-05
9.71123e-05
9.72308e-05
9.84738e-05
0.000100185
0.000101489
0.000235947
0.000220144
0.000226197
0.000219744
0.000205751
0.000227203
0.000310196
0.00023422
0.000234172
0.00027769
0.000346714
0.000242349
9.71123e-05
9.72308e-05
9.71123e-05
9.72308e-05
9.92993e-05
0.000102239
0.000456323
0.000198328
0.000202385
0.000393303
0.000436517
0.000253906
0.000521223
0.00041687
0.000374402
0.000544001
0.000544727
0.000358377
0.000126049
9.71249e-05
9.72308e-05
0.00013625
0.000345879
0.000103228
0.00050905
0.000272147
0.000232309
0.00055458
0.000735057
0.000324431
0.000521223
0.000518312
0.000531799
0.00054491
0.000543798
0.000592856
0.000711558
0.000200425
0.000304028
0.00069637
0.000826205
0.000243643
0.000728368
0.000757055
0.000768251
0.000779929
0.000785075
0.000779929
0.000313152
0.000406808
0.000376121
0.000224052
7.64165e-05
0.000574687
0.00077311
0.000787447
0.000797672
0.000814823
0.000828796
0.000743732
0.000423623
0.000338359
0.000358714
0.000199786
0.000117634
0.000134935
9.09188e-25
3.46834e-25
3.06057e-25
1.65255e-24
4.21823e-24
2.10333e-25
0.00043296
0.000312124
0.000331851
0.000366364
0.000294163
0.000170951
2.25411e-11
7.97951e-12
6.7265e-12
2.23601e-11
3.59974e-11
6.15354e-12
2.16807e-18
1.29168e-18
1.23635e-18
-1.81269e-17
-4.72034e-17
1.0887e-18
3.13468e-07
1.99496e-07
1.78787e-07
3.08062e-07
4.1664e-07
1.793e-07
1.62249e-09
5.82712e-10
4.96379e-10
1.59631e-09
2.53101e-09
4.56802e-10
2.06641e-11
-3.3291e-14
-3.97582e-13
1.97988e-11
3.35448e-11
-4.51186e-14
6.54297e-07
5.69238e-07
5.42629e-07
6.4552e-07
6.37051e-07
5.05308e-07
1.4564e-08
1.09983e-08
1.02718e-08
1.39303e-08
1.52486e-08
9.48573e-09
1.99078e-09
5.54509e-10
4.57293e-10
1.9879e-09
3.46889e-09
4.18475e-10
1.64888e-07
2.01496e-07
2.0045e-07
1.67489e-07
1.56875e-07
2.49365e-07
1.45619e-08
1.77716e-08
1.70013e-08
1.43799e-08
1.21294e-08
1.94802e-08
6.35059e-08
6.27742e-08
6.21052e-08
6.52109e-08
6.60528e-08
5.70633e-08
1.16173e-08
1.41916e-08
1.35512e-08
1.0895e-08
7.90086e-09
1.51176e-08
7.65647e-10
8.6679e-10
8.43675e-10
7.67392e-10
6.92435e-10
8.97257e-10
2.47384e-07
2.47384e-07
2.47377e-07
2.47364e-07
2.47357e-07
2.47352e-07
3.16427e-10
3.23553e-10
3.19152e-10
3.19511e-10
3.07592e-10
3.39529e-10
9.54354e-12
1.00478e-11
9.91878e-12
9.60299e-12
9.20236e-12
1.04162e-11
3.99674e-08
4.01788e-08
3.99143e-08
4.01214e-08
3.90941e-08
4.0636e-08
0.00518218
0.00544756
0.00538495
0.00511942
0.00491688
0.00539577
7.41579e-14
7.59901e-14
7.4868e-14
7.54192e-14
7.36209e-14
7.79711e-14
-5.8436e-17
-6.50839e-17
-7.94043e-17
-7.279e-17
-5.81807e-17
6.92466e-18
0.0411895
0.0410305
0.0407176
0.0404707
0.0402158
0.0409363
8.6131e-28
4.7054e-28
1.35053e-28
4.81093e-28
1.35911e-27
6.02816e-28
8.5567e-13
4.58867e-13
1.29699e-13
4.75283e-13
1.35639e-12
6.23151e-13
0.0430263
0.0434064
0.0436624
0.0433564
0.0429635
0.0434384
-3.24631e-16
-2.52865e-16
-2.78501e-16
-9.18111e-17
-1.70282e-15
-1.31035e-16
-6.44844e-27
-5.47614e-27
-7.42873e-27
-5.7351e-27
-9.36175e-27
-4.09108e-27
0.0449042
0.0449148
0.0449429
0.0449715
0.044974
0.0449724
-8.99751e-16
-7.63149e-16
-1.19575e-15
-2.66512e-16
-8.00467e-15
-5.05655e-16
-9.35691e-27
-8.90238e-27
-9.64645e-27
-8.65233e-27
-1.56061e-26
-5.76747e-27
0.0444718
0.044423
0.0444279
0.0444665
0.044561
0.0445659
-6.27322e-16
-5.12974e-16
-8.74384e-16
-1.1739e-16
-5.54454e-15
-3.00659e-16
-8.05401e-27
-9.28928e-27
-1.01621e-26
-9.65944e-27
-1.06616e-26
-7.35267e-27
0.0441983
0.0441461
0.0441502
0.0441796
0.0442692
0.0442765
-3.30614e-16
-2.69019e-16
-4.76259e-16
-3.8736e-17
-2.91296e-15
-1.53674e-16
-5.98175e-27
-6.97174e-27
-7.6214e-27
-7.3668e-27
-8.0858e-27
-5.68711e-27
0.0401759
0.040204
0.0401696
0.0400685
0.0400413
0.04018
-1.46257e-20
-1.199e-20
-2.10126e-20
-1.71831e-21
-1.28017e-19
-6.91038e-21
1.04589e-17
1.03338e-17
1.02906e-17
1.04238e-17
1.07737e-17
1.07447e-17
0.0893476
0.0593038
0.0922362
0.0774067
0.0503194
0.0802264
0.0251791
7.96769e-07
0.0340855
0.0577655
1.55319e-06
0.0136369
0.00236186
4.71508e-18
0.00586493
0.0105209
3.20438e-19
2.2046e-07
1.38768e-05
0.0484979
0.0266179
0.0198937
0.0158136
1.68114e-06
9.76311e-08
0.0187027
7.37778e-08
1.01676e-06
0.00703084
3.42704e-07
1.68487e-19
0.000527675
-1.37218e-15
-3.70538e-14
0.000226211
2.31738e-07
3.57009e-05
0.0041204
0.00119182
7.67966e-05
4.60857e-07
1.25722e-08
0.000121444
0.000940511
7.67572e-05
9.66442e-06
0.000279798
6.86843e-05
5.38306e-06
2.25616e-06
-3.06097e-12
-2.16126e-14
3.78969e-05
1.41699e-05
3.82303e-05
5.75973e-07
3.72989e-07
5.51022e-08
-3.36684e-08
-4.87321e-11
4.74498e-07
2.3743e-07
9.68491e-07
9.31753e-08
2.14817e-11
1.71282e-13
5.89995e-11
2.89076e-10
1.96286e-08
4.40582e-10
1.31748e-21
1.74416e-22
3.29375e-07
1.45852e-09
7.55968e-10
-3.36363e-10
-2.7926e-12
2.78687e-11
3.53697e-09
3.06274e-11
1.70942e-11
4.46767e-13
-1.0368e-12
4.23439e-12
1.36133e-12
1.51447e-12
7.98181e-13
1.78071e-13
4.4979e-14
5.09176e-12
6.12553e-11
1.4019e-09
1.22399e-11
1.14312e-13
8.39563e-14
2.43639e-13
2.32949e-12
1.15223e-11
5.87884e-13
9.15822e-14
8.97851e-14
9.44835e-14
1.30366e-12
8.90772e-13
1.78526e-13
8.9949e-14
8.99348e-14
8.99459e-14
2.55364e-09
3.74951e-09
2.3184e-10
3.11234e-12
2.43404e-13
1.26225e-12
5.61343e-10
2.37212e-11
1.97464e-11
6.61081e-13
2.3783e-12
1.32207e-12
2.41515e-11
1.5145e-12
6.39511e-13
1.60085e-11
1.34463e-12
1.2791e-13
2.77154e-09
7.58723e-09
5.81245e-09
2.02961e-10
3.02204e-12
4.16615e-11
2.14539e-09
2.32153e-10
1.60038e-10
3.15436e-09
4.28756e-10
1.78686e-12
4.45177e-10
6.0324e-09
5.57046e-09
1.69857e-09
5.40217e-11
3.01401e-10
1.10476e-08
3.51523e-08
2.35034e-07
1.91315e-08
3.65885e-10
3.76672e-08
2.21717e-07
7.95511e-07
5.17877e-07
6.94538e-08
2.34101e-10
5.1503e-08
1.76856e-08
1.2162e-07
5.56372e-08
1.03852e-08
2.16235e-10
6.92488e-09
4.35919e-07
3.17338e-07
4.35606e-07
1.99328e-07
9.16711e-09
5.38335e-07
8.07074e-06
6.78256e-06
2.28661e-06
4.97565e-07
3.63475e-13
7.87779e-07
3.50753e-08
6.25539e-11
-3.25926e-21
-2.79697e-14
-8.0531e-15
4.3287e-15
6.80328e-06
4.33688e-06
6.75412e-07
4.50072e-09
-3.371e-11
3.85249e-09
1.26599e-05
9.86789e-06
1.09319e-06
2.69256e-14
-2.63943e-14
2.06607e-11
-3.13829e-19
-2.14225e-17
-2.06538e-16
-1.33404e-15
-2.58636e-19
-3.97277e-15
0.0134671
0.0103271
0.00762744
0.00912511
0.0101487
0.0119517
7.36876e-15
3.87721e-15
4.33613e-16
3.6609e-16
7.91255e-18
3.12225e-16
-2.06236e-16
7.30067e-21
2.78753e-20
2.61445e-20
4.19074e-21
1.78606e-20
)
;

boundaryField
{
    seabed_topleft_surface
    {
        type            zeroGradient;
    }
    seabed_topright_surface
    {
        type            zeroGradient;
    }
    breakwater_top_surface
    {
        type            zeroGradient;
    }
    breakwater_left_surface
    {
        type            zeroGradient;
    }
    breakwater_right_surface
    {
        type            zeroGradient;
    }
    water_front_surface
    {
        type            zeroGradient;
    }
    water_back_surface
    {
        type            zeroGradient;
    }
    water_left_surface
    {
        type            zeroGradient;
    }
    water_right_surface
    {
        type            zeroGradient;
    }
    water_top_surface
    {
        type            inletOutlet;
        inletValue      uniform 0;
        value           nonuniform List<scalar> 
180
(
0.000310196
0.00023422
0.000234172
0.00027769
0.000346714
0.000242349
0.000521223
0.00041687
0.000374402
0.000544001
0.000544727
0.000358377
0.000521223
0.000518312
0.000531799
0.00054491
0.000543798
0.000592856
0
0
0
0
0
0.000574687
0
0
0
0
0
0
0
0
0
0
0
0
2.06641e-11
0
0
1.97988e-11
3.35448e-11
0
1.99078e-09
5.54509e-10
4.57293e-10
1.9879e-09
3.46889e-09
4.18475e-10
6.35059e-08
6.27742e-08
6.21052e-08
6.52109e-08
6.60528e-08
5.70633e-08
0
0
0
0
0
0
0
0
0
0
0
0
0
0
0
0
0
0
0
0
0
0
0
0
0
0
0
0
0
0
0
0
0
0
0
0
0
0
0
0
0
0
0
0
0
0
0
0
0
0
0
0
0
0
0.00236186
0
0.00586493
0.0105209
0
2.2046e-07
0
0.000527675
0
0
0.000226211
0
5.38306e-06
0
0
0
3.78969e-05
1.41699e-05
5.89995e-11
2.89076e-10
1.96286e-08
4.40582e-10
0
0
1.36133e-12
1.51447e-12
7.98181e-13
1.78071e-13
4.4979e-14
5.09176e-12
1.30366e-12
8.90772e-13
1.78526e-13
8.9949e-14
8.99348e-14
8.99459e-14
2.41515e-11
1.5145e-12
6.39511e-13
1.60085e-11
1.34463e-12
1.2791e-13
4.45177e-10
6.0324e-09
5.57046e-09
1.69857e-09
5.40217e-11
3.01401e-10
1.76856e-08
1.2162e-07
5.56372e-08
1.03852e-08
2.16235e-10
6.92488e-09
0
0
0
0
0
0
0
0
0
0
0
0
0
0
0
0
0
0
)
;
    }
}


// ************************************************************************* //
