/*--------------------------------*- C++ -*----------------------------------*\
| =========                 |                                                 |
| \\      /  F ield         | OpenFOAM: The Open Source CFD Toolbox           |
|  \\    /   O peration     | Version:  v1612+                                |
|   \\  /    A nd           | Web:      www.OpenFOAM.com                      |
|    \\/     M anipulation  |                                                 |
\*---------------------------------------------------------------------------*/
FoamFile
{
    version     2.0;
    format      ascii;
    class       volScalarField;
    location    "7.6";
    object      p;
}
// * * * * * * * * * * * * * * * * * * * * * * * * * * * * * * * * * * * * * //

dimensions      [1 -1 -2 0 0 0 0];

internalField   nonuniform List<scalar> 
1116
(
22285.5
22283
22284.1
22285.7
22287.3
22286.8
21577.6
21575.7
21575.7
21577.4
21579.5
21575.4
19521.4
19520.6
19519.8
19521.9
19522.1
19519.7
17400.5
17401.6
17400.7
17400.7
17400.2
17400.4
14437.8
14434.8
14434.7
14436.8
14437.5
14434.4
10624.6
10623.4
10620.9
10623.6
10621.8
10622.1
7605.28
7613.51
7609.55
7605.57
7601.37
7615.83
5653.14
5659.88
5659.49
5649.76
5650.7
5657.31
5122.78
5123.56
5124.8
5118.79
5124.54
5116.67
5099.57
5090.17
5093.17
5098.22
5105.68
5083.9
5035.43
5034.49
5033.44
5039.85
5035.47
5041.99
5415.21
5418.19
5420.4
5420.55
5422.26
5432.08
15058.4
15050.4
15052.2
15057.5
15061.6
15058.3
13471.2
13467.7
13466
13473
13478.1
13464.7
11321.1
11315.6
11313.7
11321.4
11327.8
11310.4
8304.23
8306.73
8304.91
8304.32
8305.03
8302.03
5033.46
5025.61
5027.1
5028.45
5032.53
5021.55
2462.57
2441.99
2442.93
2452.71
2458.8
2435.02
1123.15
1116.48
1112.29
1117.56
1120.3
1112.77
684.326
688.768
686.453
682.599
682.045
683.209
736.69
738.246
736.061
738.177
735.707
735.007
894.397
898.967
897.158
895.475
890.724
896.938
1074.97
1076.96
1075.98
1077.4
1072.18
1076.46
1410.53
1405.38
1405.66
1413.45
1411.85
1404.46
7779.65
7765.27
7766.09
7774.56
7772.76
7773.54
2921.77
2943.9
2946.01
2921.21
2859.25
2953.03
1873.23
1870.1
1868.05
1872.03
1865.33
1865.16
1489.46
1495.08
1492.78
1489.33
1487.66
1495.02
854.066
829.351
829.065
853.352
863.074
817.604
266.586
256.876
255.368
262.407
268.601
255.65
77.2081
68.5366
68.7694
75.8352
86.0356
53.1998
201.583
193.077
192.092
202.573
204.175
177.992
132.563
139.931
138.284
135.818
132.689
149.411
92.1852
93.9762
93.8334
94.4879
93.5252
99.6637
213.72
213.549
215.076
217.807
219.003
217.767
174.67
170.385
172.557
177.231
181.235
173.644
1932.68
1879.53
1900.22
1913.37
1911.64
1920.46
-35.4865
-22.3708
-21.2021
-35.973
-45.9717
-24.5532
-127.709
-128.503
-128.506
-129.554
-130.415
-128.755
-62.0519
-62.3953
-62.9134
-64.3819
-63.7163
-65.999
-19.2418
-18.7219
-19.6644
-21.2942
-24.9323
-24.9513
-40.8842
-40.1871
-40.0628
-40.5326
-41.1806
-37.8837
-39.7131
-40.4985
-40.2608
-39.8927
-39.4109
-40.2361
-19.1756
-18.9855
-19.0422
-19.4379
-19.6296
-19.5849
-22.1098
-21.733
-21.7399
-21.944
-22.004
-20.9612
-25.623
-25.6158
-25.4915
-25.2823
-25.1172
-24.8913
-10.652
-10.5551
-10.3213
-10.1915
-9.89177
-9.64945
-109.436
-109.88
-109.988
-111.297
-111.747
-111.704
2320.24
2306.82
2331.68
2283.57
2265.29
2261.38
2178.46
2195.63
2180.37
2083.15
2035.47
2061.88
1490.66
1482.32
1527.72
1486.59
1523.59
1602.4
684.278
680.78
705.491
630.334
787.318
839.102
315.561
303.847
354.573
317.305
365.495
376.072
305.396
266.451
278.506
266.001
280.519
274.982
349.956
322.411
315.547
291.216
265.624
294.313
336.774
340.916
322.3
307.02
244.59
273.679
291.252
319.383
299.045
232.633
209.221
260.948
262.5
297.242
280.356
221.002
236.153
290.489
348.006
378.696
414.703
445.016
463.596
378.58
428.952
461.73
534.522
491.44
481.737
417.449
1418.96
1393.96
1393.04
1409.87
1346.25
1378.98
1107.21
1029.66
1098.45
981.222
928.674
1032.89
384.431
279.493
295.558
275.688
395.377
508.969
40.7355
26.5515
41.2231
52.6269
88.7176
156.793
-5.4302
-9.34474
-3.76937
30.1896
9.67325
20.4553
-14.4215
-20.3018
-30.0242
-14.361
-17.5417
-25.6263
-12.7761
-16.4157
-25.2218
-25.8162
-22.3944
-20.9259
-9.35199
-10.7131
-15.7286
-19.6865
-18.6237
-15.3745
13.8621
10.0993
-0.48839
-3.09412
-2.70363
-0.0934028
44.4062
41.0457
30.1616
32.6009
29.6327
26.0666
51.016
76.8689
74.3985
85.0144
63.0271
35.4126
7.2248
38.7292
62.7846
83.4278
46.9959
28.003
979.87
976.713
973.97
967.388
869.273
941.674
641.291
432.468
549.013
346.565
312.126
484.685
56.8535
58.9991
60.8209
49.9027
40.7103
138.452
7.57042
7.48035
7.39382
5.30001
3.90827
7.8831
-0.395497
0.792053
1.42397
2.93988
-1.08552
-4.73123
-7.58073
-7.28258
-7.23227
-6.45409
-6.30532
-8.08383
-10.9015
-11.087
-10.7496
-9.92017
-6.43656
-7.15352
-20.6454
-23.2432
-23.2496
-20.3857
-14.9195
-12.2538
-23.9905
-25.6611
-26.8554
-21.5057
-17.9461
-13.7946
-20.7398
-19.7017
-16.6331
-4.16439
-9.58148
-13.7978
-18.4968
-18.9314
-20.8791
-3.26928
-21.9704
-21.2562
-69.1692
-97.8941
-96.5392
-37.1341
-54.2104
-47.0954
542.532
506.625
501.46
484.88
371.102
424.956
301.546
106.85
111.217
48.7309
-40.9321
47.029
-10.2535
-21.1722
-27.9327
-27.7663
-43.8818
-53.4062
-17.6198
-16.2595
-15.389
-15.8618
-17.6288
-22.3702
-19.4979
-18.8312
-19.5057
-18.851
-20.2408
-21.4749
-25.4666
-25.812
-25.6927
-25.4823
-25.9765
-26.5242
-31.1485
-31.3184
-30.7046
-30.8356
-30.0612
-29.2803
-43.0956
-44.4693
-42.3105
-38.9259
-35.5688
-33.0803
-40.5717
-43.1416
-43.1908
-37.0394
-34.709
-30.2636
-37.2448
-39.0285
-42.2706
-35.3057
-37.9464
-39.0793
-23.9089
-31.2236
-34.6988
-36.7708
-34.7956
-27.7621
-33.935
-52.88
-64.7751
-107.16
-121.382
-50.9918
-31.2114
-32.1294
-31.5237
-30.6105
-29.4873
-30.3526
-42.3078
-42.0055
-42.5395
-41.7244
-40.9685
-42.8587
-43.3326
-43.0697
-44.1981
-43.0961
-42.7563
-46.1486
-65.0387
-65.623
-65.3099
-64.8597
-63.9169
-64.746
-63.924
-63.7537
-63.5021
-63.7869
-63.2493
-63.2406
-71.8494
-70.7735
-70.9591
-72.386
-73.7155
-71.3676
-83.5877
-83.7651
-83.5653
-83.7314
-82.7867
-84.4208
-75.8823
-75.9302
-75.734
-76.7418
-77.5789
-77.5869
-97.4953
-96.3911
-97.2338
-99.8648
-102.722
-96.9796
-72.4836
-72.3287
-72.2483
-73.1432
-74.1701
-74.4205
-62.5651
-62.0281
-61.5255
-63.764
-64.9667
-68.8296
-93.6489
-95.0694
-95.5737
-94.884
-96.2297
-99.2944
-63.6947
-64.0552
-63.6892
-63.0079
-64.0714
-62.9364
-55.0859
-54.0366
-54.4166
-55.9102
-55.9719
-55.942
-76.749
-77.678
-77.5964
-76.5396
-75.907
-78.5018
-58.5342
-58.2815
-58.196
-58.0025
-57.8214
-57.748
-49.5367
-49.5466
-49.5874
-49.3459
-48.8971
-49.6035
-62.4969
-62.6835
-62.6887
-62.5427
-62.3977
-62.8191
-37.0883
-37.2235
-37.1914
-36.9959
-36.8811
-37.949
-41.5366
-41.6534
-41.7054
-41.6553
-41.5913
-41.9663
-58.7964
-58.85
-58.8935
-58.8631
-58.8055
-58.9286
-29.8332
-29.6931
-29.7427
-29.8781
-29.9359
-29.6437
-40.9395
-40.8453
-40.8955
-40.9458
-41.1188
-40.6395
-59.6457
-59.6737
-59.7115
-59.6828
-59.7152
-59.7014
-37.3333
-37.1957
-37.282
-37.3514
-37.5201
-37.1127
-48.0885
-48.0209
-48.0526
-48.0966
-48.1409
-48.0323
-60.9139
-60.9074
-60.91
-60.9204
-60.9078
-60.8972
-42.334
-42.3363
-42.4222
-42.466
-42.622
-42.475
-51.8638
-51.8993
-51.94
-51.8894
-51.9294
-52.0138
-61.0065
-60.9974
-61.0018
-61.0077
-61.004
-60.9983
-43.3254
-43.243
-43.3618
-43.5662
-43.7506
-43.5053
-52.4273
-52.4326
-52.4733
-52.4976
-52.5461
-52.5701
-63.5499
-63.5505
-63.5554
-63.5627
-63.5658
-63.5631
-32.4635
-32.1029
-32.1924
-32.7116
-33.0116
-32.3439
-49.3905
-49.4616
-49.419
-49.3457
-49.2213
-49.3973
-68.2674
-68.306
-68.2966
-68.2771
-68.2453
-68.322
142.668
140.15
137.206
135.363
136.779
139.5
-48.8303
-48.8016
-48.5186
-48.0824
-47.7744
-47.7509
-69.0113
-69.1287
-69.3451
-69.6343
-69.7476
-69.7715
160.19
161.19
161.757
160.834
159.602
161.608
-50.7025
-50.6262
-50.4626
-50.3241
-50.2399
-50.2618
-68.3663
-68.4171
-68.5127
-68.6419
-68.7251
-68.7675
172.098
172.1
172.075
172.038
171.987
172.14
-49.6417
-49.6195
-49.5737
-49.5134
-49.4629
-49.4296
-68.2924
-68.3167
-68.3694
-68.43
-68.4784
-68.4942
170.119
169.978
169.98
170.1
170.423
170.482
-49.5734
-49.5547
-49.5205
-49.4861
-49.4582
-49.4519
-68.7114
-68.7194
-68.7412
-68.7713
-68.7954
-68.8056
165.528
165.38
165.341
165.331
165.563
165.71
-48.5575
-48.5494
-48.534
-48.5091
-48.4901
-48.4899
-69.3098
-69.3126
-69.3268
-69.3509
-69.3751
-69.3754
132.418
132.754
132.436
131.869
131.621
132.262
-46.8089
-46.7974
-46.7892
-46.7841
-46.7615
-46.7681
-71.0814
-71.0886
-71.0955
-71.1019
-71.1071
-71.128
20.2927
174.949
76.118
195.087
172.269
52.4818
-115.446
-113.507
-115.255
-70.5868
-64.7207
-47.4765
-113.714
-110.281
-124.651
-94.7693
-75.2801
-66.3422
-97.6777
-100.703
-53.6275
-69.4892
-87.4505
-83.9928
-93.453
-98.8519
-93.1906
-89.6357
-85.7998
-75.2914
-78.202
-81.9024
-80.0444
-75.8621
-71.7828
-69.6782
-95.5696
-80.8485
-72.1986
-58.6956
-54.6781
-55.7025
-75.6077
-69.3673
-72.0766
-63.6214
-59.6079
-59.6592
-67.6048
-69.7191
-66.1638
-65.5919
-66.3343
-64.2175
-35.0449
-31.086
-30.2316
-30.5843
-32.4998
-34.6182
-47.3228
-44.4949
-44.4085
-45.1131
-46.23
-47.9701
-63.0187
-62.3428
-61.8224
-61.9637
-62.4201
-62.66
-34.8968
-32.651
-31.8105
-32.3113
-33.6776
-34.8413
-52.1628
-51.4971
-51.0532
-50.8172
-50.7358
-50.6814
-62.7621
-62.6731
-62.7385
-62.6255
-62.5734
-62.5603
-32.0097
-31.161
-30.6183
-31.3559
-31.8833
-32.1989
-49.2861
-48.8251
-48.8432
-49.0772
-49.2887
-49.0973
-62.0393
-62.1135
-62.0199
-61.8155
-61.7266
-61.8445
-34.4909
-33.9652
-32.6606
-33.4061
-33.6701
-33.382
-53.0073
-52.7724
-52.6968
-52.525
-52.4093
-52.2595
-62.6818
-63.0904
-63.1046
-62.3877
-61.8831
-61.7937
-39.782
-40.678
-39.6213
-38.3599
-37.2689
-36.7094
-54.8926
-55.0737
-55.0863
-54.8746
-54.0997
-53.7123
-62.9981
-63.1727
-63.1436
-62.606
-62.2241
-62.0426
-41.3593
-43.2465
-43.9559
-42.5197
-41.2595
-40.2784
-55.6115
-55.1066
-55.0701
-56.2197
-55.328
-56.5474
-61.8239
-61.7263
-61.5699
-61.3413
-61.1244
-61.0286
-37.5327
-38.2265
-40.7603
-44.3705
-44.9929
-45.1575
-56.6554
-55.4634
-55.2339
-57.4529
-58.5968
-59.5968
-60.8386
-60.8862
-61.0092
-60.9355
-60.7364
-60.7894
-35.4366
-36.2107
-37.1795
-46.0903
-47.7916
-43.0515
-60.2835
-59.8321
-58.5873
-58.73
-59.4066
-58.6881
-59.6796
-60.0584
-60.5212
-61.3478
-61.5181
-61.5172
-10.3297
-15.7345
-20.3608
-23.9834
-23.245
-18.7646
-55.8261
-55.4833
-54.5282
-54.2247
-54.115
-54.1809
-68.2744
-67.7519
-67.5521
-68.0633
-68.4379
-68.5904
)
;

boundaryField
{
    seabed_topleft_surface
    {
        type            calculated;
        value           nonuniform List<scalar> 
72
(
25727.2
25724.7
25725.8
25727.4
25729.1
25728.5
25968.8
25968.1
25967.4
25969
25971.6
25966.8
24316.1
24315.4
24314.6
24316.6
24316.9
24314.4
22195.3
22196.3
22195.5
22195.5
22195
22195.2
19232.6
19229.6
19229.5
19231.5
19232.3
19229.1
15203.1
15200.4
15198.1
15201.8
15199.3
15200.1
11774.8
11787.7
11784.2
11773.9
11763.6
11795.2
9551.1
9563.19
9564.04
9545.75
9542.97
9564.99
8905.87
8904.44
8907.82
8899.62
8908.84
8895.39
8875.66
8858.9
8863.87
8873.13
8887.46
8849.08
8806.7
8795.08
8794.67
8813.21
8813.48
8803.68
9156.43
9156.28
9158.88
9162.2
9167.2
9175.04
)
;
    }
    seabed_topright_surface
    {
        type            calculated;
        value           nonuniform List<scalar> 
72
(
2778.9
2765.52
2790.38
2742.27
2724.01
2720.23
2637.2
2654.34
2639.08
2541.86
2494.19
2520.67
1949.51
1883.15
1986.34
1945.25
1982.29
2061.14
897.427
995.701
969.444
878.334
1183.78
1252.32
586.174
569.254
498.263
342.213
544.895
456.998
612.578
515.124
426.098
295.025
425.678
449.542
661.625
615.013
623.458
542.153
453.749
554.4
652.695
656.748
638.013
621.594
473.483
534.762
578.784
635.04
613.773
462.94
414.978
522.493
455.994
568.663
594.324
418.031
417.882
579.115
528.107
622.595
727.973
710.113
718.909
677.272
639.119
672.02
847.101
801.152
788.694
716.649
)
;
    }
    breakwater_top_surface
    {
        type            calculated;
        value           nonuniform List<scalar> 
36
(
349.405
346.109
341.63
338.578
338.745
344.997
375.928
378.791
380.612
378.189
375.032
379.365
397.038
397.092
397.204
397.308
397.269
397.414
392.94
392.56
392.585
392.896
393.681
393.764
387.009
386.605
386.586
386.72
387.391
387.574
334.188
334.663
334.176
333.113
332.732
334.053
)
;
    }
    breakwater_left_surface
    {
        type            calculated;
        value           nonuniform List<scalar> 
24
(
5428.02
5430.99
5433.2
5433.36
5435.09
5444.9
1413.15
1408.02
1408.31
1416.07
1414.47
1407.13
175.25
170.926
173.098
177.813
181.828
174.174
-109.25
-109.715
-109.816
-111.106
-111.534
-111.533
)
;
    }
    breakwater_right_surface
    {
        type            calculated;
        value           nonuniform List<scalar> 
24
(
429.672
462.45
535.592
492.5
482.789
418.474
7.36887
38.8016
62.8531
83.6052
47.2114
28.0673
-69.0887
-97.7505
-96.3396
-37.0377
-54.1426
-47.034
-33.7001
-52.6456
-64.5589
-106.936
-121.158
-50.7685
)
;
    }
    water_front_surface
    {
        type            calculated;
        value           nonuniform List<scalar> 
186
(
22285.5
21577.6
19521.4
17400.5
14437.8
10624.6
7605.28
5653.14
5122.78
5099.57
5035.43
5415.21
15058.4
13471.2
11321.1
8304.23
5033.46
2462.57
1123.15
684.326
736.69
894.397
1074.97
1410.53
7779.65
2921.77
1873.23
1489.46
854.066
266.586
77.2081
201.583
132.563
92.1852
213.72
174.67
1932.68
-35.4865
-127.709
-62.0519
-19.2418
-40.8842
-39.7131
-19.1756
-22.1098
-25.623
-10.652
-109.436
2320.24
2178.46
1490.66
684.278
315.561
305.396
349.956
336.774
291.252
262.5
348.006
428.952
1418.96
1107.21
384.431
40.7355
-5.4302
-14.4215
-12.7761
-9.35199
13.8621
44.4062
51.016
7.2248
979.87
641.291
56.8535
7.57042
-0.395497
-7.58073
-10.9015
-20.6454
-23.9905
-20.7398
-18.4968
-69.1692
542.532
301.546
-10.2535
-17.6198
-19.4979
-25.4666
-31.1485
-43.0956
-40.5717
-37.2448
-23.9089
-33.935
-31.2114
-42.3078
-43.3326
-65.0387
-63.924
-71.8494
-83.5877
-75.8823
-97.4953
-72.4836
-62.5651
-93.6489
-63.6947
-55.0859
-76.749
-58.5342
-49.5367
-62.4969
-37.0883
-41.5366
-58.7964
-29.8332
-40.9395
-59.6457
-37.3333
-48.0885
-60.9139
-42.334
-51.8638
-61.0065
-43.3254
-52.4273
-63.5499
-32.4635
-49.3905
-68.2674
142.668
-48.8303
-69.0113
160.19
-50.7025
-68.3663
172.098
-49.6417
-68.2924
170.119
-49.5734
-68.7114
165.528
-48.5575
-69.3098
132.418
-46.8089
-71.0814
20.2927
-115.446
-113.714
-97.6777
-93.453
-78.202
-95.5696
-75.6077
-67.6048
-35.0449
-47.3228
-63.0187
-34.8968
-52.1628
-62.7621
-32.0097
-49.2861
-62.0393
-34.4909
-53.0073
-62.6818
-39.782
-54.8926
-62.9981
-41.3593
-55.6115
-61.8239
-37.5327
-56.6554
-60.8386
-35.4366
-60.2835
-59.6796
-10.3297
-55.8261
-68.2744
)
;
    }
    water_back_surface
    {
        type            calculated;
        value           nonuniform List<scalar> 
186
(
22286.8
21575.4
19519.7
17400.4
14434.4
10622.1
7615.83
5657.31
5116.67
5083.9
5041.99
5432.08
15058.3
13464.7
11310.4
8302.03
5021.55
2435.02
1112.77
683.209
735.007
896.938
1076.46
1404.46
7773.54
2953.03
1865.16
1495.02
817.604
255.65
53.1998
177.992
149.411
99.6637
217.767
173.644
1920.46
-24.5532
-128.755
-65.999
-24.9513
-37.8837
-40.2361
-19.5849
-20.9612
-24.8913
-9.64945
-111.704
2261.38
2061.88
1602.4
839.102
376.072
274.982
294.313
273.679
260.948
290.489
378.58
417.449
1378.98
1032.89
508.969
156.793
20.4553
-25.6263
-20.9259
-15.3745
-0.0934028
26.0666
35.4126
28.003
941.674
484.685
138.452
7.8831
-4.73123
-8.08383
-7.15352
-12.2538
-13.7946
-13.7978
-21.2562
-47.0954
424.956
47.029
-53.4062
-22.3702
-21.4749
-26.5242
-29.2803
-33.0803
-30.2636
-39.0793
-27.7621
-50.9918
-30.3526
-42.8587
-46.1486
-64.746
-63.2406
-71.3676
-84.4208
-77.5869
-96.9796
-74.4205
-68.8296
-99.2944
-62.9364
-55.942
-78.5018
-57.748
-49.6035
-62.8191
-37.949
-41.9663
-58.9286
-29.6437
-40.6395
-59.7014
-37.1127
-48.0323
-60.8972
-42.475
-52.0138
-60.9983
-43.5053
-52.5701
-63.5631
-32.3439
-49.3973
-68.322
139.5
-47.7509
-69.7715
161.608
-50.2618
-68.7675
172.14
-49.4296
-68.4942
170.482
-49.4519
-68.8056
165.71
-48.4899
-69.3754
132.262
-46.7681
-71.128
52.4818
-47.4765
-66.3422
-83.9928
-75.2914
-69.6782
-55.7025
-59.6592
-64.2175
-34.6182
-47.9701
-62.66
-34.8413
-50.6814
-62.5603
-32.1989
-49.0973
-61.8445
-33.382
-52.2595
-61.7937
-36.7094
-53.7123
-62.0426
-40.2784
-56.5474
-61.0286
-45.1575
-59.5968
-60.7894
-43.0515
-58.6881
-61.5172
-18.7646
-54.1809
-68.5904
)
;
    }
    water_left_surface
    {
        type            calculated;
        value           nonuniform List<scalar> 
42
(
22297.3
22294.8
22295.9
22297.5
22299.1
22298.6
15071.2
15063.2
15065
15070.3
15074.5
15071.1
7792.12
7777.74
7778.56
7787.03
7785.23
7786.01
1939.03
1885.71
1906.48
1919.65
1917.91
1926.78
-31.2114
-32.1294
-31.5237
-30.6105
-29.4873
-30.3526
-42.3078
-42.0055
-42.5395
-41.7244
-40.9685
-42.8587
-43.3326
-43.0697
-44.1981
-43.0961
-42.7563
-46.1486
)
;
    }
    water_right_surface
    {
        type            calculated;
        value           nonuniform List<scalar> 
42
(
2321.81
2308.39
2333.25
2285.14
2266.86
2262.95
1420.5
1395.48
1394.58
1411.41
1347.79
1380.52
981.379
978.222
975.478
968.897
870.782
943.183
544.011
508.104
502.939
485.847
372.308
426.435
20.2927
174.949
76.118
195.087
172.269
52.4818
-115.446
-113.507
-115.255
-70.5868
-64.7207
-47.4765
-113.714
-110.281
-124.651
-94.7693
-75.2801
-66.3422
)
;
    }
    water_top_surface
    {
        type            calculated;
        value           nonuniform List<scalar> 
180
(
-89.9498
-84.7378
-84.7345
-87.7199
-92.4551
-85.2954
-104.427
-97.2678
-94.3545
-105.989
-106.039
-93.2551
-104.427
-104.227
-105.152
-106.052
-105.975
-109.341
-75.8164
-70.7285
-70.8346
-77.7231
-83.6924
-108.106
-81.5128
-81.1153
-81.1908
-81.9617
-82.1667
-79.6925
-72.7052
-73.2343
-73.0823
-72.4629
-72.2919
-72.9846
-68.67
-68.67
-68.67
-68.67
-68.67
-68.67
-68.6701
-68.67
-68.67
-68.6701
-68.6702
-68.67
-68.6744
-68.6743
-68.6743
-68.6745
-68.6745
-68.6739
-68.7562
-68.7547
-68.7588
-68.7583
-68.7668
-68.7558
-70.2306
-70.2212
-70.2358
-70.246
-70.2685
-70.2485
-69.4573
-69.4935
-69.4915
-69.4735
-69.4635
-69.5017
-68.8693
-68.8863
-68.8684
-68.8254
-68.7975
-68.8133
-70.1252
-70.1818
-70.1294
-70.0853
-70.0362
-70.1042
-69.5068
-69.5126
-69.5002
-69.5067
-69.5115
-69.5024
-69.7145
-69.7287
-69.7234
-69.724
-69.7244
-69.7207
-69.7268
-69.7327
-69.7285
-69.7223
-69.7249
-69.7235
-68.7907
-68.7904
-68.7897
-68.7862
-68.7844
-68.7872
-230.697
-102.136
-471.012
-790.415
-84.0336
-68.6851
-80.2259
-104.869
-83.1382
-73.5942
-84.1884
-75.527
-69.0393
-69.3002
-68.7291
-68.8712
-71.2698
-69.6421
-68.67
-68.67
-68.6713
-68.67
-68.7717
-68.7645
-68.67
-68.67
-68.67
-68.67
-68.67
-68.67
-68.67
-68.67
-68.67
-68.67
-68.67
-68.67
-68.67
-68.67
-68.67
-68.67
-68.67
-68.67
-68.67
-68.6704
-68.6704
-68.6701
-68.67
-68.67
-68.6712
-68.6783
-68.6738
-68.6707
-68.67
-68.6705
-69.0296
-69.0325
-69.1158
-69.3039
-69.2536
-69.405
-70.1494
-70.3225
-70.2875
-70.6788
-70.7415
-70.7434
-70.081
-70.1861
-70.1587
-70.2731
-70.4573
-70.0768
)
;
    }
}


// ************************************************************************* //
