/*--------------------------------*- C++ -*----------------------------------*\
| =========                 |                                                 |
| \\      /  F ield         | OpenFOAM: The Open Source CFD Toolbox           |
|  \\    /   O peration     | Version:  v1612+                                |
|   \\  /    A nd           | Web:      www.OpenFOAM.com                      |
|    \\/     M anipulation  |                                                 |
\*---------------------------------------------------------------------------*/
FoamFile
{
    version     2.0;
    format      ascii;
    class       surfaceScalarField;
    location    "7.6";
    object      phi;
}
// * * * * * * * * * * * * * * * * * * * * * * * * * * * * * * * * * * * * * //

dimensions      [0 3 -1 0 0 0 0];

internalField   nonuniform List<scalar> 
2916
(
0.000261813
0.321258
-0.32152
-2.07492e-05
0.32087
-0.320588
-0.000338541
0.321101
-0.320783
-0.000226588
0.321138
-0.32125
0.000278014
0.321017
-0.321521
0.321363
-0.321084
0.000220471
0.602148
-0.281111
6.90632e-05
0.60177
-0.280748
-0.000367248
0.601986
-0.280449
3.06102e-05
0.602027
-0.281287
0.000964791
0.602012
-0.281929
0.602027
-0.279699
-0.000103091
0.565103
0.0371481
4.80896e-05
0.564627
0.036992
1.11553e-05
0.564925
0.0370983
0.000142159
0.564876
0.0370198
0.000296824
0.564878
0.036979
0.564893
0.0374303
-0.000618394
0.293412
0.27231
5.42307e-05
0.291634
0.27232
0.000394837
0.29238
0.272205
0.000200221
0.292699
0.272372
-0.00030778
0.292924
0.272462
0.292403
0.272182
-0.00073806
-0.045705
0.339855
6.29814e-05
-0.0506414
0.341475
0.000699238
-0.0492742
0.341018
0.000123079
-0.0472262
0.340501
-0.000971312
-0.0460829
0.340101
-0.0496327
0.341065
-0.00212634
-0.327605
0.284026
4.4971e-05
-0.335113
0.282301
0.00178092
-0.3335
0.28249
0.000309483
-0.329537
0.283783
-0.00273424
-0.327365
0.284326
-0.334701
0.282334
-0.00101844
-0.522544
0.195958
-0.000195247
-0.52524
0.189304
0.000500078
-0.524457
0.190261
8.02499e-05
-0.523078
0.193961
0.00122868
-0.52303
0.194516
-0.524112
0.19064
0.00263445
-0.574551
0.0493719
0.000110968
-0.572301
0.0495842
-0.00233422
-0.572239
0.0502268
0.00110831
-0.574676
0.0481551
0.00894432
-0.577821
0.0469549
-0.57071
0.0555421
0.000792873
-0.493291
-0.0820524
0.000106477
-0.49097
-0.0806451
-0.000705502
-0.490805
-0.0806222
0.000746604
-0.493587
-0.0825405
0.00303837
-0.497249
-0.0828638
-0.489324
-0.0783481
-0.00161621
-0.382801
-0.108874
0.000201914
-0.387339
-0.105449
0.00251417
-0.386606
-0.106511
5.02066e-05
-0.382578
-0.108545
-0.00617102
-0.382139
-0.108888
-0.389221
-0.106274
-0.0061891
-0.275257
-0.101355
0.00120511
-0.282981
-0.111752
0.00860125
-0.28292
-0.111082
0.0020561
-0.275189
-0.100844
-0.014438
-0.271621
-0.0940237
-0.286701
-0.116958
0.00210982
-0.277367
-0.000464699
-0.280407
-0.00161334
-0.281771
0.000116606
-0.276919
0.00581336
-0.277318
-0.280887
0.0025414
0.542278
-0.86634
-0.000369953
0.542572
-0.860248
-0.000758791
0.541719
-0.862114
-0.00067845
0.542688
-0.864018
-0.00176014
0.544325
-0.864765
0.541159
-0.864004
-0.00114293
0.942741
-0.680431
-9.72599e-05
0.941959
-0.681181
0.00211487
0.941825
-0.682767
0.00147046
0.942716
-0.680671
-0.00120559
0.943796
-0.678725
0.941217
-0.680963
-0.000356961
1.05713
-0.0768796
3.69856e-05
1.05671
-0.0781545
-9.52265e-05
1.05663
-0.0775756
0.000462954
1.05714
-0.0779656
0.00237101
1.05763
-0.078758
1.05627
-0.0752546
-0.00129973
0.951275
0.379462
-2.27166e-05
0.951805
0.375949
0.000283763
0.951885
0.376644
9.33508e-05
0.951379
0.378328
0.000746877
0.950647
0.378786
0.952436
0.376766
0.00288658
0.941779
0.346464
0.000145045
0.937763
0.358258
-0.00122953
0.935412
0.358866
0.000607407
0.943052
0.346991
0.00378737
0.944704
0.342865
0.93624
0.361049
0.0076612
1.09579
0.12235
-0.000414498
1.10683
0.121308
-0.00534401
1.09853
0.124303
-0.00182762
1.10364
0.119681
0.00755777
1.10057
0.119073
1.10263
0.123502
0.00204195
1.27852
0.011192
-0.000442946
1.31515
-0.0165341
-0.00434063
1.30312
-0.0104344
-0.0026547
1.29316
0.00275514
0.0115832
1.27979
0.00105677
1.31523
-0.0103819
-0.00297943
1.21964
0.111231
-0.00090711
1.25344
0.109227
-0.00371772
1.24677
0.109389
-0.00213821
1.2276
0.112135
0.0107583
1.20066
0.113194
1.27501
0.106523
-0.00768598
0.78738
0.357892
-0.00115269
0.80655
0.359711
-0.00465045
0.806522
0.363123
-0.00282793
0.791254
0.351981
-0.0057921
0.763751
0.357008
0.840196
0.350675
-0.0231087
0.306692
0.394923
0.00148152
0.28602
0.390491
0.0149991
0.293393
0.393101
0.000931495
0.308458
0.388318
-0.0441991
0.310653
0.38934
0.296025
0.393698
-0.04022
0.139676
0.105882
0.0123252
0.0727865
0.0489362
0.0547068
0.0836498
0.0562797
0.0242956
0.139354
0.0986707
-0.0704347
0.182699
0.128661
0.0589281
0.0497041
0.00323835
-0.14093
0.0106652
-0.215047
0.0209198
-0.208376
0.0193115
-0.135956
0.00416401
-0.0794717
-0.217795
0.00341297
0.664144
-1.5339
-0.000385194
0.665807
-1.52226
0.00309966
0.660426
-1.52602
0.0023036
0.667224
-1.53045
-0.00934638
0.67792
-1.53103
0.655046
-1.5284
-0.0139064
1.73729
-1.73967
-0.00194109
1.74034
-1.76768
0.0159883
1.73967
-1.77994
0.00779682
1.73821
-1.74347
-0.0266506
1.74
-1.70636
1.73443
-1.787
-0.0113089
2.21355
-0.541832
-0.00196933
2.21867
-0.56583
0.0128
2.21841
-0.57109
0.00384667
2.21513
-0.545927
-0.0171079
2.21508
-0.532882
2.21432
-0.572254
-0.00246486
2.54926
0.0462142
-0.000663273
2.55202
0.0407979
0.00187513
2.55182
0.0406988
-4.00713e-05
2.54921
0.0461617
-0.00495632
2.55928
0.0395003
2.53467
0.0514607
-0.00675483
3.17981
-0.277333
-0.00139239
3.20175
-0.296828
0.0101842
3.20012
-0.301008
0.00146365
3.18803
-0.283113
-0.0151381
3.1985
-0.279749
3.17436
-0.293772
-0.0184971
3.55809
-0.237429
-0.00671266
3.67065
-0.359379
0.0197871
3.64732
-0.349394
-0.0054452
3.6067
-0.273755
-0.0425407
3.57901
-0.224344
3.70894
-0.453625
0.0724659
1.66629
1.83052
-0.00988732
2.1166
1.61987
-0.0571938
2.05673
1.62746
0.0467613
1.68659
1.81891
0.26502
1.47485
1.88696
2.49159
1.47199
-0.031788
-0.620294
2.42961
-0.0154389
-0.332905
2.54239
-0.0117549
-0.36316
2.5256
0.00866408
-0.644314
2.42262
0.158965
-0.871961
2.3097
0.0960377
2.66104
-0.0791667
-1.67647
1.49324
-0.00305432
-1.6857
1.63639
0.0402751
-1.68305
1.63969
-0.0467061
-1.68474
1.47939
-0.238925
-1.75507
1.43233
-1.56967
1.77745
-0.00940489
-1.64089
0.368751
-0.00478692
-1.68388
0.384053
-0.00526366
-1.67729
0.387813
-0.00459685
-1.6578
0.360704
-0.0454497
-1.66315
0.33828
-1.66283
0.441409
0.0191074
-0.698782
-0.855338
-0.00879475
-0.791322
-0.815719
-0.0303911
-0.77134
-0.828075
-0.00318297
-0.710393
-0.87594
0.0303217
-0.661239
-0.90676
-0.776524
-0.806276
0.0470011
-0.886713
-0.0110624
-0.948305
-0.0567336
-0.934044
-0.0200675
-0.883015
0.0614634
-0.822241
-0.932856
0.00140508
0.353374
-1.88868
0.00208325
0.393951
-1.91689
-0.00867474
0.399697
-1.91496
-0.000324827
0.357981
-1.89678
0.0214625
0.310946
-1.86377
0.402831
-1.90977
0.0197241
0.893744
-2.29976
-0.0202055
1.03774
-2.37154
-0.0689222
1.05535
-2.38688
-0.0452116
0.909998
-2.3192
0.0098792
0.728353
-2.17886
1.06168
-2.43597
0.153273
0.621974
-0.423333
-0.0206921
1.18843
-0.542553
-0.147229
1.20945
-0.598643
-0.12375
0.751612
-0.411023
0.0887465
0.224228
-0.241253
1.18405
-0.60588
0.43285
-0.445551
0.680888
0.0334867
0.824904
0.80368
-0.353317
0.864535
0.772418
-0.0345358
-0.194039
0.673026
0.891745
-1.19084
0.528285
1.30699
0.820274
-0.238859
-0.804789
0.320767
0.117558
-0.249187
0.420843
0.554653
-0.243464
0.36989
0.577082
-0.786241
0.286662
0.108532
-1.14147
0.139433
0.588834
0.532914
-0.300632
-1.18339
0.441803
-0.0405174
-1.11282
0.244136
0.330912
-1.14561
0.181313
0.0863597
-1.22232
0.406878
-0.654102
-1.22068
0.595322
-0.79971
0.280815
-0.00212059
-1.76093
2.41018
-0.0283612
-1.62547
2.15876
0.000720907
-1.65763
2.1104
-0.0197183
-1.78149
2.39852
-0.0512848
-1.88083
2.57868
-1.52755
2.14855
-0.12012
-1.89155
2.68034
-0.0140108
-1.9002
2.711
0.0939008
-1.91312
2.67317
0.00241556
-1.91843
2.65105
-0.0936295
-2.02631
2.55122
-1.77969
2.81954
-0.0350239
-1.80842
1.44512
-0.0140957
-1.86212
1.57738
0.000112122
-1.87215
1.5845
-0.0350761
-1.84515
1.44129
-0.137264
-1.90116
1.40938
-1.88185
1.74236
0.0174011
-1.62521
0.168139
-0.0380668
-1.63404
0.211443
-0.076221
-1.64649
0.200304
-0.0431547
-1.68138
0.163863
0.00633625
-1.73982
0.12745
-1.6743
0.240188
0.0282554
-0.921207
-1.58759
-0.006236
-0.918302
-1.49696
-0.0331998
-0.924164
-1.52343
-0.0201943
-0.957737
-1.61258
0.0226892
-0.9986
-1.69087
-0.939666
-1.51822
0.0353012
-1.84322
0.000950846
-1.83226
-0.0246786
-1.83258
-0.00930407
-1.85613
0.0383301
-1.86847
-1.83419
-0.30983
0.276412
0.0334181
-0.302435
-0.276282
0.268887
-0.0792577
-0.33485
0.111673
-0.0372927
-0.175724
0.133759
0.302541
-0.591331
0.251498
0.217733
0.0848079
-0.0797928
-0.0240462
0.380251
-0.168343
-0.957832
0.770101
0.264237
-1.16727
0.399835
0.0849854
-0.716411
0.719939
-0.223236
-0.954493
0.671383
-0.203368
0.197865
-0.0688057
-0.847136
0.891895
0.00193331
-1.97013
0.941554
0.0954075
-1.89636
0.635616
-0.0896861
-1.23892
0.707606
-0.45084
-1.39393
0.800587
-1.05501
0.400806
0.107624
-1.86691
0.912152
0.399668
-2.65305
0.390881
0.452222
-2.37665
0.427738
-0.101575
-1.29527
0.610145
-0.155276
-1.94064
0.600415
-1.75137
0.541076
0.389274
-2.32644
0.0702584
0.619346
-2.90499
0.0218698
0.624299
-2.76614
0.384542
-0.303676
-2.20854
1.84124
-0.164005
-2.53356
0.453246
-2.71869
0.803318
0.476326
-2.30251
-0.50026
0.632303
-2.80354
-0.257429
0.588587
-2.9674
0.244972
-0.122051
-3.11733
1.61943
-0.209893
-2.76545
0.319732
-2.95939
0.0308067
0.192037
-2.15054
-0.344005
0.30724
-2.48878
-0.429959
0.28139
-2.73501
-0.206535
0.0923909
-2.81199
-0.116335
-0.19646
-2.59605
0.119456
-2.58453
-0.571318
-0.119705
-1.87162
-0.159215
-0.100227
-2.15653
-0.35173
-0.0173321
-2.34263
-0.475277
0.189761
-2.27262
-0.74646
0.0149035
-2.30413
-0.117063
-2.18414
-0.385486
-0.272212
-1.51183
-0.0875852
-0.360203
-1.84569
-0.222847
-0.248775
-1.90435
-0.54971
-0.0286696
-1.84728
-0.645455
0.0428707
-1.97483
-0.400847
-1.77788
-0.363386
-0.38281
-1.37696
0.247946
-0.664213
-1.63567
0.0713779
-0.576271
-1.58058
-0.411716
-0.232105
-1.59519
-0.59625
0.151791
-1.64256
-0.716166
-1.37428
-0.25181
-0.408301
-0.95439
-0.0142699
-0.928195
-1.17446
0.0586894
-0.891615
-1.13325
-0.483905
-0.0964841
-0.827076
-1.56324
0.64581
-0.694864
-1.68999
-0.799579
0.0711067
-0.300596
-0.653794
-0.693369
-0.781691
-0.349216
-1.47741
-0.0210324
-1.15526
0.36977
-1.08567
-0.429808
-0.26096
0.600253
-0.305875
-0.149282
-0.220929
0.378137
-0.153898
0.117242
-0.00095355
-0.043215
-0.513427
0.536503
0.253912
-0.630345
0.584715
0.653477
-0.314757
0.702654
0.22672
0.0511291
0.147996
-0.537882
1.64171
-0.142033
-0.426538
1.23364
-0.672531
-0.967674
1.70468
-0.690106
-0.968874
1.02749
0.540932
-0.379695
0.599037
-0.363484
0.883062
-0.191702
-0.988987
2.1834
-1.01273
-1.25655
2.28666
-1.99501
-1.85375
2.57596
-1.55526
-1.64989
1.04186
-0.671438
0.0579127
-0.441686
0.277402
0.712952
-1.48347
-0.368791
0.812467
-1.3288
-2.19133
1.20785
-1.32365
-2.52074
1.27198
-1.14876
-2.34409
1.11973
-2.09628
0.817158
-1.15486
2.09505
-0.592532
-2.10136
1.19307
-0.593491
-1.72063
-2.01663
-0.170888
-0.483666
-2.52543
0.608978
-0.309099
-2.14484
0.0794228
-2.20857
0.606501
-0.413362
3.48626
-1.47811
-0.698716
2.54509
-1.32409
-0.958039
-0.778593
-0.733737
-0.301816
-1.9508
0.388574
0.268984
-1.47156
-0.924344
-0.990625
-0.918149
0.206189
4.36017
-1.4241
-0.0205657
3.95649
-1.61461
-0.796155
1.00931
-1.21885
-1.26169
-0.382208
-1.2194
-0.410743
-0.845694
-1.35735
-0.158097
-1.81459
0.34708
4.43655
-0.582682
0.0349466
4.99061
-1.07372
-1.18236
2.91936
-1.16803
-2.05449
1.24384
-1.50037
-1.08003
-0.976867
-0.960352
-0.884617
-0.738999
0.992799
2.41029
0.94588
1.98988
2.90538
0.86531
0.961081
2.60018
0.798259
0.31293
0.231557
1.01497
0.528117
-2.08487
0.491963
-1.31079
0.5909
0.588037
-0.405796
2.47599
2.00352
-0.990586
2.55186
1.86193
-0.283296
2.61336
1.84774
-1.54487
1.19436
1.97239
-2.38815
-0.537532
-0.801995
1.21179
-0.997656
-1.16383
1.74142
-0.592319
-1.5431
0.205862
0.259224
-1.27492
-0.343819
1.04833
-1.17356
-2.72367
1.548
-1.34696
-3.23085
-0.45744
1.27455
0.064026
-1.88165
0.237123
-2.49788
0.365213
-2.88042
0.034885
-1.99849
-0.366904
-2.03084
-1.25415
-0.0489203
0.978874
-1.23583
0.214085
0.485974
-0.370843
0.100815
0.837563
-0.725246
0.0888592
0.0874462
0.461013
0.020658
0.22227
0.430647
0.903905
-1.198
0.786646
1.14019
-0.896835
0.42102
1.52491
0.9684
0.41272
1.45378
0.625725
-0.457229
1.28065
1.38143
-0.961178
1.27689
0.476821
1.29086
-1.72783
0.661526
1.47459
-0.112864
0.465418
1.92256
1.98186
0.384169
1.45788
2.3638
-0.602777
1.39324
3.45031
-1.29973
2.21427
0.801423
2.00548
-1.95643
0.249626
1.45633
0.481584
-0.316888
1.86755
1.434
-0.865317
1.37458
1.83958
-1.18447
1.24109
1.74329
-1.14
2.40026
0.889285
1.67206
0.0105743
-0.297808
1.5162
-0.354587
-0.49386
1.80883
-0.338717
-0.819778
1.72281
-0.193199
-0.220385
1.3309
-0.0802315
0.00435986
2.17048
0.0844478
1.79013
0.492793
-0.351311
1.09495
-0.705542
-0.732314
1.57433
-0.708593
-0.794794
1.75247
-0.700922
-0.0806137
1.35878
-0.353489
0.23964
1.45616
-0.530279
1.32429
-0.212671
-0.93489
1.11143
-0.505693
-1.7574
1.56622
-0.783985
-1.63592
1.41679
-1.00463
-1.29629
0.703608
-0.903853
-0.311093
0.112902
-0.999292
-0.254642
-0.54675
-1.03298
1.71295
-0.151224
-2.1347
2.092
-0.49778
-2.30217
1.22949
-0.813256
-2.07016
-0.264225
-0.764548
-1.13545
-1.05014
-0.732017
-1.69561
-0.433483
-0.0268128
1.60739
1.07825
-0.182386
1.7468
1.36609
-0.603551
1.1833
1.26561
-0.304363
-0.855134
1.3067
0.0803084
-1.44516
0.502308
-1.53082
0.506422
0.261925
1.11542
2.70604
0.709148
0.173257
3.67818
0.493145
0.26072
3.75194
1.01002
-1.05022
0.872571
1.50001
-1.49355
-0.979133
0.234447
0.946532
0.0816663
0.352727
2.42245
0.120855
-0.634855
0.974788
0.117824
-0.641811
0.561744
0.332927
-0.917173
-3.07181
0.362923
-1.32966
-3.42474
0.577834
1.29409
0.978584
-2.50751
0.924163
-3.07832
0.408602
-3.00667
-0.248004
-2.25906
-1.46217
-2.14633
-2.13849
0.0864018
0.620097
-1.94233
0.20324
0.695585
-1.18327
0.22766
0.695856
-1.44552
0.150169
0.856727
-0.318224
-0.0698114
0.599834
0.0507934
0.564521
-1.83234
0.617643
1.36955
-2.26393
0.4113
1.81235
0.0579828
0.53901
1.67415
-0.480279
0.162453
1.97381
0.640908
-0.575016
1.73715
0.0769743
1.15577
-2.89409
0.62762
1.7981
-1.16903
0.635689
2.09206
1.69408
0.591061
1.68806
2.39453
0.674981
1.72302
3.61718
0.545814
1.15115
1.51658
0.553101
-0.807952
0.142885
1.52088
0.615924
-0.149416
1.92401
1.89434
-0.59064
1.68033
2.28853
-0.144094
1.28382
1.73595
0.574577
0.915629
0.406139
1.23826
-0.100013
0.0380151
0.866408
0.261867
-0.0187176
1.17549
0.46653
-0.283351
1.16373
0.588031
-0.165765
0.780176
0.30582
-0.126766
0.704372
0.256704
1.23538
0.368906
0.183636
0.181386
-0.204157
-0.0795541
0.276379
0.453709
-0.28873
0.201659
0.470325
-0.0955531
0.179538
0.0539694
0.0217535
0.172057
-0.115271
0.343567
0.7009
-0.282844
-0.213941
0.172475
-0.651344
-0.71139
0.572284
-0.597141
-1.22888
0.371704
-0.513524
-1.02447
0.216533
-0.322453
-0.580009
-0.438296
-0.759025
0.233389
-0.208155
-0.52944
0.37243
-0.789634
-1.17976
0.552071
-1.2331
-1.79848
0.199805
-1.0625
-2.02851
0.0688943
-0.836446
-1.34638
-0.1917
-1.84215
-0.186808
0.33436
-0.650842
0.865296
-0.477546
-0.513739
1.51197
-1.39014
-0.679984
1.05971
-0.466333
-1.83352
0.187909
-0.095445
-1.37139
0.156429
-1.51279
0.0816214
0.274657
0.537346
1.2432
-0.119289
1.03474
2.52364
-0.501397
1.28998
2.16408
0.511038
-1.43539
-0.53799
0.817411
-1.75693
-0.899961
0.596526
-0.345375
1.55241
0.548626
0.858758
1.48282
0.937824
1.1413
1.08831
1.26006
0.986173
0.217228
-1.0346
-2.60152
-0.759401
-1.42404
-2.781
1.12312
0.00809607
0.270777
-2.22966
0.506308
-2.37603
1.03323
-2.27353
0.0979562
-2.35839
-1.17267
-2.29974
-2.18804
0.0385449
-1.64266
-0.284563
-0.0191263
-1.72313
-0.136084
-0.149018
-1.72067
-0.0644027
-0.0988505
-1.65048
-0.296466
0.218038
-1.57311
-0.607543
-1.68176
-0.00996872
-0.00678079
0.783976
-2.41986
0.0180059
0.705769
-2.45369
-0.174085
0.652683
-2.18126
-0.0756087
0.802445
-2.5514
0.362566
0.914495
-2.92579
0.633542
-1.95273
-0.048084
-2.80674
0.0800515
-2.93487
-0.0258689
-2.66084
0.0472786
-2.92694
0.460342
-3.31564
-2.23809
0.196916
-0.58449
-2.19675
-0.0550984
-0.630987
-1.62462
-0.259245
-0.721905
-1.52523
-0.189418
-0.544263
-2.14123
0.206417
-0.385599
-2.79664
-0.800149
-1.43937
0.152129
1.52399
-4.68046
-0.0429868
1.72678
-4.61633
-0.164705
1.58976
-4.37121
-0.0776526
1.57216
-4.75487
0.173863
1.47216
-5.03505
1.51937
-4.09838
-0.110343
-4.06394
-0.0118339
-4.30593
0.253247
-4.16597
0.0867344
-4.04733
-0.366707
-4.04473
-3.86474
0.214359
1.28718
-4.12163
-0.0052883
1.54206
-3.48959
-0.194902
1.47072
-3.40498
-0.0202481
1.34507
-4.07199
0.452453
1.13898
-4.64958
1.50089
-3.09369
0.172238
1.43001
-4.99553
-0.022088
2.1649
-5.04484
-0.145445
2.13315
-4.91028
0.0411289
1.40587
-5.00224
0.32291
0.819289
-4.99714
2.37215
-4.64673
-0.0906678
-3.45447
-0.0140814
-3.98204
0.163448
-3.93672
0.102233
-3.33907
-0.25182
-2.93324
-3.99287
-0.00600626
0.641534
-4.07627
0.00540658
1.05842
-3.75574
0.0913325
1.02308
-3.74158
0.116985
0.63476
-4.05937
0.12663
0.191382
-4.32232
1.25262
-3.39941
0.0957759
-0.657045
-3.79273
-0.0399602
0.182253
-4.03294
-0.0968872
0.133363
-3.96364
0.0542427
-0.789519
-3.72909
0.249603
-1.4554
-3.54572
0.794027
-3.93853
0.0605253
-2.00609
-0.0283551
-2.47172
-0.11262
-2.44655
0.0816039
-1.89725
0.313664
-1.54031
-2.80093
-0.110786
-0.223642
-3.42107
-0.0318311
0.05717
-3.47103
0.0392999
0.00787831
-3.4507
-0.0116197
-0.31149
-3.41029
-0.10841
-0.620611
-3.46548
0.262375
-3.23728
0.00399857
-1.70585
-2.31452
-0.061564
-1.5124
-2.39781
-0.10394
-1.54986
-2.36352
-0.0780771
-1.79551
-2.27094
-0.0498348
-1.96666
-2.22791
-1.27514
-2.45086
0.0896257
-1.03232
-0.0382278
-1.11809
-0.184298
-1.10608
-0.0478499
-1.01546
0.239444
-0.963675
-1.24726
0.00385298
-0.467349
-2.51578
-0.0177088
-0.622735
-2.5826
-0.0577513
-0.668981
-2.56036
-0.0569866
-0.466057
-2.53813
-0.0166867
-0.320666
-2.5898
-0.353222
-2.61993
0.0349527
-1.215
-1.60182
-0.0644155
-1.36041
-1.56077
-0.223331
-1.34279
-1.53079
-0.184304
-1.17141
-1.60461
0.0288041
-1.11995
-1.64174
-1.2108
-1.56447
0.0693642
-0.795925
-0.0194117
-0.772351
-0.115991
-0.761739
-0.0279901
-0.799053
0.131421
-0.800404
-0.752631
-0.00513109
1.17245
-1.27291
-0.000175596
0.858687
-1.28748
0.0220388
0.804805
-1.27698
0.000463621
1.16759
-1.28563
-0.0504013
1.39083
-1.35109
0.872251
-1.39403
0.061786
0.3211
-0.81226
-0.0231437
0.190495
-0.807639
-0.14557
0.179903
-0.783466
-0.0961988
0.322143
-0.808538
0.0733505
0.385419
-0.805878
0.169048
-0.787918
0.0310133
-0.577456
0.00431555
-0.573053
-0.0341163
-0.567319
-0.0067011
-0.571004
0.0469842
-0.569444
-0.553965
-0.0905954
2.03688
-0.538852
-0.00312825
1.90027
-0.56422
0.105668
1.85536
-0.567966
0.0263898
1.99106
-0.546368
-0.144766
1.95409
-0.582809
1.89455
-0.613809
0.0251713
1.14127
0.0581775
0.0151759
1.05524
0.0473844
-0.00287496
1.04149
0.048448
0.00354815
1.11926
0.0568376
-0.0308917
1.12152
0.0611257
1.03326
0.0424812
0.0234448
-0.229726
0.00454105
-0.238939
-0.0196953
-0.2392
0.00166904
-0.230172
0.0206958
-0.225493
-0.236926
-0.0402409
1.38387
-0.437357
-0.00470086
1.4539
-0.476282
0.0395293
1.4593
-0.487002
-0.00722268
1.39368
-0.45201
-0.110051
1.38066
-0.451264
1.52961
-0.51112
-0.0353889
0.905227
0.572202
-0.00986668
0.909397
0.566357
0.0215128
0.91246
0.563907
-0.0184305
0.921065
0.569398
-0.0810175
0.926832
0.57754
0.924086
0.566992
-0.0041768
0.0713262
-0.00746034
0.0695369
-0.00911029
0.0692116
-0.00955872
0.0710011
-0.00288881
0.0708272
0.0700804
0.00520482
0.377025
-0.651451
0.017112
0.411153
-0.687901
0.0219805
0.398429
-0.689995
0.0138895
0.374588
-0.654641
-0.0261343
0.348546
-0.632334
0.41529
-0.712355
-0.0082239
0.0877041
0.869747
0.0141237
0.0969007
0.858261
0.0250654
0.091666
0.859731
0.009788
0.0879625
0.871302
-0.0265039
0.0754871
0.886892
0.100677
0.855103
-0.00293388
0.370371
-0.0024254
0.372287
-0.00161904
0.371639
-0.00309971
0.371467
-0.00461542
0.369359
0.373575
-0.0114312
-0.881743
-1.34587
0.0339713
-0.855993
-1.37427
0.0640958
-0.871877
-1.37167
0.0376843
-0.897776
-1.34303
-0.0316671
-0.930566
-1.32328
-0.879143
-1.38309
-0.00222736
-0.755139
0.745373
0.0188884
-0.757808
0.738966
0.0281746
-0.760497
0.739068
0.0202789
-0.762249
0.743675
-0.00716423
-0.767574
0.751346
-0.762022
0.73082
0.0013544
0.565503
-0.00187889
0.566505
-0.00342907
0.565784
-0.00265775
0.564612
-0.000458074
0.562372
0.567808
-0.00803945
-1.61993
-1.56112
0.00116235
-1.64772
-1.568
0.011227
-1.64738
-1.56693
0.00553307
-1.6265
-1.56696
-0.00909476
-1.61256
-1.56457
-1.65247
-1.57392
0.00752446
-1.05955
0.177476
0.004412
-1.07945
0.173812
1.8032e-05
-1.07701
0.173098
0.0027628
-1.06548
0.17991
0.0146892
-1.05755
0.18441
-1.07814
0.171185
0.00255939
0.226074
0.000532791
0.227087
-0.000622954
0.227146
-0.000676336
0.228913
0.00115549
0.228549
0.232518
-0.000170585
-0.70898
-0.601313
1.31046
0.0124264
-0.701332
-0.622793
1.31153
0.0255068
-0.738439
-0.641456
1.36682
0.00404411
-0.803876
-0.643521
1.46886
-0.0150012
-0.80957
-0.637371
1.46599
-0.777822
-0.619357
1.38218
-0.027871
-0.571421
-0.343099
0.233411
-0.0432157
-0.57487
-0.326281
0.215165
-0.0433938
-0.594512
-0.285227
0.141479
-0.0396298
-0.630553
-0.256386
0.0792991
-0.0132287
-0.628548
-0.216328
0.00890466
-0.600906
-0.245266
0.0551206
0.0289635
-0.197497
-0.159342
0.0800283
-0.198911
-0.174212
0.121609
-0.195408
-0.195629
0.0862419
-0.219762
-0.152218
0.0241518
-0.228508
-0.131058
-0.254904
-0.104694
-0.0128264
-0.40207
-0.186417
-0.0207247
-0.431903
-0.182991
-0.0191059
-0.464846
-0.17823
-0.00929521
-0.477797
-0.175535
0.00243556
-0.472767
-0.176335
-0.440637
-0.176284
-0.0121721
-0.485817
-0.24718
-0.0304803
-0.508904
-0.230972
-0.040742
-0.524321
-0.21549
-0.0379799
-0.527065
-0.20988
-0.00847693
-0.51841
-0.200188
-0.499207
-0.195173
0.0207416
-0.112966
0.0332332
-0.118121
0.0353955
-0.128958
0.0207237
-0.146919
0.00820559
-0.158269
-0.156307
-0.00550796
-0.169819
-0.0110893
-0.00514779
-0.173731
-0.00962075
-0.000399409
-0.175699
-0.00727897
0.00055903
-0.171834
-0.00465918
-0.00110282
-0.171568
-0.00310527
-0.171222
-0.00616573
-0.0186903
-0.282011
-0.116298
-0.0230066
-0.285025
-0.115362
-0.0188274
-0.283745
-0.111624
-0.014162
-0.28109
-0.10529
-0.00844536
-0.280294
-0.0971791
-0.278144
-0.0966958
0.0106194
0.0516973
0.0194266
0.0469662
0.0223036
0.0405082
0.018053
0.0343708
0.00744925
0.0317105
0.0304977
-0.00119493
-0.195377
0.185483
-0.00366008
-0.193855
0.186699
-0.00621662
-0.192576
0.187854
-0.00509294
-0.194232
0.188449
-0.00072707
-0.195762
0.188291
-0.194254
0.187361
-0.00406319
-0.322472
0.0148588
-0.00880872
-0.322806
0.0183343
-0.0123833
-0.320773
0.0201469
-0.0106501
-0.32182
0.0205642
-0.00248227
-0.322638
0.0215292
-0.319783
0.0263514
0.00502146
0.233405
0.00938951
0.23226
0.0108143
0.229757
0.00764289
0.227493
0.0029425
0.2258
0.224926
-0.000870817
-0.467003
0.653357
-0.00339113
-0.466623
0.655842
-0.00616158
-0.466123
0.656747
-0.00511718
-0.472967
0.660372
-0.000877514
-0.477838
0.661889
-0.473681
0.660165
-0.002267
-0.477644
0.0277659
-0.00192019
-0.478081
0.0294459
-0.00144738
-0.476821
0.0303719
-0.00113527
-0.480919
0.0282047
-0.00058244
-0.484552
0.0276907
-0.48035
0.0324389
0.00243369
0.26965
0.00595139
0.268338
0.00868023
0.267018
0.00654952
0.264285
0.000958189
0.263157
0.261526
0.000109128
-0.907872
-0.000662105
-0.911383
-0.00129575
-0.909545
-0.0015146
-0.906373
-0.00136554
-0.902825
-0.915117
0.00101473
-0.703643
-0.00176889
-0.70534
-0.00440425
-0.703439
-0.00162837
-0.701033
0.00652703
-0.698878
-0.704965
0.00255997
0.00297065
0.00360951
0.00333201
0.00254339
-0.35825
-1.15871
-0.425366
0.344565
-2.37634
0.490252
0.00961069
-1.26966
0.159091
0.071885
-0.744137
0.363639
0.663913
-0.860044
0.31881
-0.969951
-0.198474
-0.928813
1.73858
-1.96848
0.61346
-3.97215
0.0535464
0.101686
1.43825
-2.19613
-1.04773
1.16457
-0.759291
-0.164391
-2.1592
0.415819
1.00913
-2.14347
-0.947481
-2.11982
0.709978
-1.17053
-0.472945
-2.16
-1.60507
-2.12709
-0.235153
-0.543171
-1.69332
0.174361
-2.48771
-0.375949
-0.155748
-0.548562
1.42691
0.198852
-2.26605
1.59026
0.311998
-0.714624
1.60602
0.0684986
0.0293938
0.609889
-1.44704
-1.57703
-0.0666112
-2.40406
-1.98552
-1.20858
0.226917
0.420043
-1.15968
-2.60399
-1.90709
-0.187342
-1.28196
-1.1643
-0.328102
0.370841
0.215133
-1.36083
-2.55778
0.00938518
-1.97504
-0.727375
-1.94324
-0.733479
-1.88867
-0.457661
-2.0078
-0.377175
-1.40702
-1.46768
-1.12254
-0.0496426
-0.372805
-0.451468
1.45517
0.994745
-0.498175
2.81881
1.21268
0.900121
2.84364
0.981266
1.87084
1.44228
-0.286529
0.885454
-1.3996
-1.75277
0.674063
-0.956463
-0.601277
0.649457
0.0742676
-0.967637
1.28556
-0.00747209
0.394516
0.910581
-0.593401
1.80297
0.823697
-0.57474
1.047
-0.91636
-0.610166
-1.08143
-0.172407
-1.13262
0.186885
-0.806214
0.366989
-0.946288
0.539687
-1.09735
-0.851595
-0.613063
0.950373
-0.0941931
-0.138289
1.79209
0.622218
0.567904
1.99187
0.803139
1.67056
1.26389
0.350668
1.55797
0.399317
-0.167121
0.282287
-0.223938
-0.478126
0.680988
-0.208954
0.200801
0.933709
0.253719
0.968913
0.974851
0.241435
0.838973
0.567434
0.232992
0.509298
0.174901
-0.0206519
0.0955557
-0.220331
-0.000827297
-0.489918
-0.0680879
-0.341219
0.189586
-0.420095
0.16356
-0.440763
-0.0288715
-0.477361
-0.543581
-0.460144
0.636506
-0.0086867
-0.0137248
0.688745
-0.0464161
0.636526
0.701494
0.0394224
0.724338
0.562714
0.0059589
0.367735
0.53242
-0.0862356
0.620736
-0.108032
-0.300403
0.898054
-0.170101
0.0223052
0.925303
-0.305549
0.355857
0.938629
-0.329255
0.428758
0.918516
-0.195714
0.205211
0.894623
-0.15931
0.85343
-0.247815
-0.0845449
-0.352308
0.00631301
-0.410214
0.0634459
-0.440389
0.0878927
-0.420906
0.0748816
-0.394937
-0.397521
-0.317026
0.352291
-0.248111
-0.0708785
0.993028
-0.831883
0.396048
1.05177
-1.00896
0.464379
0.528899
-0.537303
0.0536083
0.173524
0.0357404
0.68175
-0.0352735
-0.371255
0.664731
-0.111287
0.0795187
0.928451
-0.691751
0.634
1.02231
-0.854271
0.635218
0.748548
-0.416583
0.0693198
0.588835
-0.00872268
0.542135
-0.0388791
-0.0741074
-0.125907
-0.00164084
-0.287464
0.118698
-0.370945
0.110122
-0.227564
0.0562637
-0.169573
-0.185115
-0.151048
0.596102
-0.520693
-0.0213238
1.44016
-1.82949
0.307851
1.34087
-2.3073
0.569885
1.0228
-1.60561
0.133571
0.315851
-0.282092
0.573917
-0.24223
-0.181407
0.757556
-0.0913362
0.256918
1.3086
-0.998515
0.5601
1.47176
-1.28835
0.797939
1.11165
-0.743268
0.297988
0.796514
0.0105665
0.68511
0.147917
-0.0370859
-0.157228
0.0727769
-0.319808
0.121411
-0.423149
0.15918
-0.250108
0.0801433
-0.168674
-0.180597
0.386182
0.733038
-1.26748
0.580249
1.0882
-2.55969
0.519771
0.781282
-2.8283
0.364674
0.748987
-2.1306
-0.173419
0.539526
-0.475224
0.437169
-1.03963
0.408714
0.397048
-0.164063
0.790627
0.751683
-1.04392
0.556261
0.828301
-1.101
0.327523
0.714583
-0.480126
0.13907
0.458301
0.280245
0.353939
0.370217
0.106389
-0.129325
0.139337
-0.157168
-0.0256482
-0.188821
-0.0217871
-0.0990081
0.036829
-0.0913844
-0.0691791
0.89888
0.95168
-2.25274
1.06706
1.2331
-2.449
0.826777
0.769185
-2.29749
0.287133
0.412702
-1.81575
-0.375472
0.822297
-0.478486
0.646748
-1.98022
0.595324
0.481132
-0.288839
0.937652
0.535903
-0.689039
0.591261
0.352401
-0.337822
-0.0500438
0.300989
0.272894
-0.0566823
0.41117
0.698013
0.384804
0.57548
0.0726212
-0.0473646
0.129505
-0.022052
0.054264
0.00207396
0.0150377
0.047886
0.0185453
0.0345519
0.0595201
0.61572
0.558772
-2.18404
1.19475
1.07214
-1.57652
1.65345
0.738988
-1.3311
0.618969
-0.134534
-1.18472
-0.13469
0.191671
-0.816457
-0.213675
-2.24661
0.155855
0.0362608
0.0778194
0.450356
0.00775712
0.0808449
0.486542
-0.172052
0.537032
0.0597727
-0.331557
0.896688
0.199059
-0.250154
1.00055
-0.340088
0.900952
0.0537456
0.361755
0.103133
0.368321
0.0742545
0.342478
0.0340941
0.331239
0.0269198
0.337242
0.360679
0.47865
0.0785643
-1.88249
1.16461
0.287692
-1.40887
1.87296
0.164968
-1.21824
0.454669
-0.915856
-1.45209
-0.472764
-1.02039
-1.64964
-0.661302
-2.04998
-0.180069
-0.190238
0.526691
-0.129355
-0.267167
0.584994
0.140845
-0.348867
0.780669
0.0803563
-0.882391
0.923713
0.00748822
-0.883241
0.936278
-0.72669
0.973827
0.150862
0.89641
0.309567
0.874736
0.412781
0.819365
0.196623
0.709723
0.0304661
0.680808
0.727347
0.00895289
-2.81064
-0.075865
-2.38855
-0.169862
-2.03096
-0.0617953
-2.44969
0.0848732
-2.63006
-2.77097
-0.291889
-1.75865
-0.34212
-1.53816
-0.0542678
-1.39666
0.0661621
-1.5671
0.0911988
-1.70991
-1.65082
-0.0892879
0.0350018
0.216501
0.200613
0.0905169
)
;

boundaryField
{
    seabed_topleft_surface
    {
        type            calculated;
        value           uniform 0;
    }
    seabed_topright_surface
    {
        type            calculated;
        value           uniform 0;
    }
    breakwater_top_surface
    {
        type            calculated;
        value           uniform 0;
    }
    breakwater_left_surface
    {
        type            calculated;
        value           uniform 0;
    }
    breakwater_right_surface
    {
        type            calculated;
        value           uniform 0;
    }
    water_front_surface
    {
        type            calculated;
        value           uniform 0;
    }
    water_back_surface
    {
        type            calculated;
        value           uniform 0;
    }
    water_left_surface
    {
        type            calculated;
        value           uniform 0;
    }
    water_right_surface
    {
        type            calculated;
        value           uniform 0;
    }
    water_top_surface
    {
        type            calculated;
        value           nonuniform List<scalar> 
180
(
3.63881
3.51251
3.41944
3.65624
3.81708
3.33198
2.89153
2.99932
2.82982
2.85906
2.65468
2.7793
0.911214
1.76442
1.72638
0.758819
0.0618547
2.24847
-2.16594
-1.23919
-1.27254
-2.42556
-3.08039
-0.0842555
-2.76925
-2.73818
-2.74426
-2.81375
-2.83058
-2.58937
-1.52076
-1.61737
-1.59055
-1.47581
-1.44263
-1.574
0.0716204
0.0178961