/*--------------------------------*- C++ -*----------------------------------*\
| =========                 |                                                 |
| \\      /  F ield         | OpenFOAM: The Open Source CFD Toolbox           |
|  \\    /   O peration     | Version:  v1612+                                |
|   \\  /    A nd           | Web:      www.OpenFOAM.com                      |
|    \\/     M anipulation  |                                                 |
\*---------------------------------------------------------------------------*/
FoamFile
{
    version     2.0;
    format      ascii;
    class       volVectorField;
    location    "7.6";
    object      U;
}
// * * * * * * * * * * * * * * * * * * * * * * * * * * * * * * * * * * * * * //

dimensions      [0 1 -1 0 0 0 0];

internalField   nonuniform List<vector> 
1116
(
(0.398489 0.000150409 -0.350291)
(0.397817 0.0001873 -0.350163)
(0.398222 -0.000185135 -0.350058)
(0.398254 -0.000442851 -0.350331)
(0.397986 8.56239e-05 -0.350582)
(0.398705 0.000329207 -0.35009)
(0.91798 7.47659e-05 -0.457152)
(0.917061 0.000252326 -0.457294)
(0.917564 -0.000125843 -0.457055)
(0.91771 -0.000521261 -0.457284)
(0.917536 0.000656878 -0.457629)
(0.917917 0.000851542 -0.456783)
(1.35199 -0.000169342 -0.0732688)
(1.35146 -1.456e-05 -0.0730712)
(1.3518 5.92125e-05 -0.0730367)
(1.3518 1.2655e-05 -0.0732583)
(1.3518 0.000272267 -0.0737546)
(1.35172 0.000175494 -0.0725907)
(0.969801 -0.000669216 0.305628)
(0.968814 -0.000366228 0.305645)
(0.969605 0.000421354 0.3056)
(0.969174 0.000440222 0.305677)
(0.969136 -0.000110324 0.305385)
(0.969616 -0.000416219 0.305818)
(0.225763 -0.00120495 0.293281)
(0.219539 -0.000543339 0.294387)
(0.221648 0.000671576 0.293822)
(0.223617 0.000943912 0.294203)
(0.224709 -0.000622125 0.293525)
(0.22167 -0.00166223 0.294077)
(-0.418314 -0.00197591 0.0910474)
(-0.433899 -0.00184559 0.0862173)
(-0.430194 0.00186274 0.0865933)
(-0.422775 0.00222469 0.0901262)
(-0.418916 -0.00182409 0.0914897)
(-0.431916 -0.00299673 0.0847576)
(-0.964207 0.000621731 -0.276692)
(-0.978381 -0.00193827 -0.283283)
(-0.975301 0.00130522 -0.281376)
(-0.967464 -0.000466845 -0.279126)
(-0.962385 0.000404691 -0.275479)
(-0.977954 0.00301833 -0.284993)
(-1.23822 0.00433346 -0.596398)
(-1.23944 0.00179734 -0.602666)
(-1.23815 -0.00151372 -0.600149)
(-1.23917 -0.00420547 -0.59885)
(-1.24145 0.00678322 -0.594214)
(-1.23816 0.0103752 -0.603837)
(-1.18051 3.0993e-05 -0.72824)
(-1.1713 0.0013958 -0.728856)
(-1.17184 -0.00104549 -0.727956)
(-1.18063 -0.000949854 -0.729382)
(-1.19004 0.00311356 -0.729378)
(-1.16614 0.0016056 -0.726184)
(-1.02579 -0.00420914 -0.676476)
(-1.02749 5.43637e-05 -0.670802)
(-1.02638 0.000576805 -0.671313)
(-1.02562 0.00477274 -0.676385)
(-1.03133 -0.00426535 -0.683515)
(-1.02306 -0.0107922 -0.661604)
(-0.806938 -0.00716776 -0.532074)
(-0.813803 -0.00424928 -0.518285)
(-0.814305 0.00613002 -0.519796)
(-0.805598 0.0127887 -0.531135)
(-0.806955 -0.00981817 -0.544365)
(-0.819341 -0.0158222 -0.50821)
(-0.412547 0.00406287 -0.375699)
(-0.427446 0.000569892 -0.352842)
(-0.427412 -0.00136257 -0.356503)
(-0.41334 -0.00225281 -0.374755)
(-0.404815 0.00233144 -0.394621)
(-0.4325 0.0108771 -0.345674)
(0.490814 0.00288411 -0.950679)
(0.494275 0.00117543 -0.947433)
(0.491045 -0.00168231 -0.94815)
(0.493184 0.000432912 -0.949576)
(0.497185 -0.00146379 -0.94989)
(0.489062 -0.00246582 -0.949111)
(1.58851 -0.00107927 -0.478731)
(1.58674 -0.00138883 -0.477536)
(1.58637 0.00107122 -0.476741)
(1.58821 0.00342587 -0.479152)
(1.59094 5.43007e-05 -0.480191)
(1.58547 -0.00317716 -0.474393)
(2.10931 -0.000627024 0.286765)
(2.10764 -0.00029611 0.285774)
(2.10753 0.000301362 0.28625)
(2.10924 -0.00032751 0.286149)
(2.1109 0.00168074 0.286589)
(2.10618 0.00162913 0.287345)
(2.07197 -0.00131058 0.806444)
(2.07318 -0.000786031 0.805706)
(2.0728 0.000680254 0.805474)
(2.07252 -0.000192594 0.806451)
(2.07235 0.000468241 0.807819)
(2.07335 0.00078225 0.804208)
(1.77152 0.00256088 0.920696)
(1.7692 0.00185953 0.926444)
(1.77049 -0.00140174 0.925535)
(1.77033 -0.000933721 0.921812)
(1.76893 0.00263317 0.920732)
(1.77075 0.00306761 0.925509)
(2.06935 0.00819101 0.868385)
(2.06124 0.00351461 0.866825)
(2.05004 -0.00377802 0.867357)
(2.07649 -0.00583183 0.867953)
(2.08212 0.00374979 0.868024)
(2.05522 0.00711294 0.868322)
(2.44815 0.00298083 0.893624)
(2.50424 0.000791954 0.87747)
(2.48023 -0.0023143 0.878705)
(2.47618 -0.00675479 0.888549)
(2.46055 0.00324085 0.88662)
(2.4907 0.0187236 0.88448)
(2.96207 -0.00394002 0.72471)
(3.03577 0.000456849 0.733742)
(3.01542 -0.00319044 0.733092)
(2.98347 -0.00603881 0.723054)
(2.94622 0.00282981 0.713502)
(3.04974 0.0202013 0.755961)
(2.32464 -0.0131143 0.385937)
(2.38863 0.000642425 0.393091)
(2.3813 -0.00408801 0.391551)
(2.3358 -0.00245408 0.385082)
(2.26197 -0.00461291 0.380092)
(2.46601 -0.00784351 0.39641)
(0.912767 -0.0325047 0.324069)
(0.930006 -0.00635662 0.332216)
(0.936052 0.00799594 0.328258)
(0.917011 0.0242013 0.325256)
(0.881458 -0.0237383 0.330206)
(0.987319 -0.052075 0.318972)
(0.352631 -0.0525995 0.235575)
(0.247965 -0.0170648 0.185705)
(0.270012 0.0369015 0.189099)
(0.355656 0.0757753 0.236316)
(0.407645 -0.0372161 0.272896)
(0.220227 -0.0844404 0.155657)
(0.19869 -0.000673833 -0.553982)
(-0.00203406 0.00540267 -0.589132)
(0.0231512 0.0133908 -0.591314)
(0.194454 0.0327663 -0.553792)
(0.337822 0.000505851 -0.536157)
(-0.0441289 0.00593178 -0.600389)
(-0.411672 0.00467144 -2.38584)
(-0.398657 0.000534762 -2.3605)
(-0.416437 -0.000987666 -2.37003)
(-0.399712 0.00769791 -2.37663)
(-0.374349 -0.00403317 -2.37876)
(-0.430084 -0.0129879 -2.37842)
(2.60169 -0.0102436 -2.4547)
(2.59783 -0.0118191 -2.45664)
(2.59482 0.00828093 -2.46377)
(2.6022 0.021257 -2.45507)
(2.61404 -0.0136955 -2.45093)
(2.58804 -0.0229481 -2.45835)
(4.30505 -0.00883613 -0.710663)
(4.31338 -0.0109738 -0.715854)
(4.31324 0.00696246 -0.713772)
(4.3068 0.0168525 -0.715148)
(4.31283 -0.0110933 -0.719421)
(4.2976 -0.0180867 -0.704238)
(4.70151 -0.00125157 0.498025)
(4.71283 -0.00229082 0.486829)
(4.71112 0.000531857 0.489417)
(4.70466 0.00270302 0.494093)
(4.69865 -0.0030316 0.49374)
(4.71507 -0.00448743 0.492393)
(5.40457 -0.0113848 0.55177)
(5.40445 -0.00798033 0.590518)
(5.40561 0.00504336 0.593544)
(5.40452 0.0215538 0.553925)
(5.4438 -0.0159712 0.538923)
(5.33196 -0.0264775 0.602253)
(6.822 -0.0143809 -0.281651)
(6.92611 -0.0199779 -0.281861)
(6.91834 0.00671257 -0.269817)
(6.85098 0.0295808 -0.291585)
(6.88075 -0.0361113 -0.294962)
(6.89077 -0.0465929 -0.271978)
(6.96352 0.0601774 -0.802985)
(7.50108 0.0465229 -0.883191)
(7.40308 -0.0630028 -0.870424)
(7.12217 -0.0324841 -0.828741)
(6.90296 0.167173 -0.82974)
(7.57715 0.204703 -0.879496)
(0.398137 -0.11008 -0.105902)
(1.68402 0.0239433 -0.120661)
(1.54146 -0.0618924 -0.119297)
(0.318575 0.0503654 -0.100031)
(-0.384513 -0.0231557 -0.0903983)
(3.2234 0.240685 -0.150958)
(-3.0652 -0.0751161 1.18381)
(-3.11112 -0.0413065 1.20229)
(-3.09598 0.0306418 1.21865)
(-3.08535 0.0396925 1.15941)
(-3.32157 -0.157197 1.17965)
(-2.7443 -0.215657 1.17512)
(-3.61604 -0.0119476 0.981897)
(-3.6511 -0.000129462 0.949261)
(-3.65043 -0.0122607 0.966744)
(-3.64005 0.00526005 0.956803)
(-3.68428 -0.0200479 0.96011)
(-3.58436 -0.0428625 0.983071)
(-2.11913 0.0209696 0.0321116)
(-2.27297 0.0113095 -0.0917073)
(-2.23832 -0.0270098 -0.0736753)
(-2.16723 -0.0244605 0.00900188)
(-2.1273 0.0185767 0.0701342)
(-2.24312 0.0337942 -0.0575025)
(-0.980677 0.0470007 -0.152696)
(-1.31028 0.0281568 -0.440817)
(-1.25122 -0.0449853 -0.407794)
(-0.984208 -0.0554695 -0.130053)
(-0.752495 0.0269635 0.10893)
(-1.27537 0.067629 -0.436196)
(-1.65137 -0.00636148 -3.27422)
(-1.67762 0.00594954 -3.26309)
(-1.64146 0.000684466 -3.26352)
(-1.67915 -0.0161732 -3.2726)
(-1.73356 0.014651 -3.27406)
(-1.61278 0.0288327 -3.26147)
(1.68772 0.0434758 -4.72996)
(1.77698 0.0274373 -4.86864)
(1.7859 -0.0593215 -4.89888)
(1.70749 -0.100239 -4.75392)
(1.57299 -0.0237257 -4.58233)
(1.78082 0.109014 -4.9376)
(2.29759 0.132422 -2.33203)
(2.77175 0.108403 -2.47295)
(2.79296 -0.121145 -2.50258)
(2.37703 -0.19629 -2.357)
(1.95083 -0.0244378 -2.23638)
(2.84693 0.22183 -2.52064)
(1.18537 0.320163 -0.321522)
(3.36696 0.415329 -0.320732)
(3.43095 -0.337097 -0.335881)
(1.71145 -0.436632 -0.336108)
(-0.454072 0.433822 -0.370071)
(3.2206 0.955747 -0.301678)
(-2.56111 -0.298401 -1.06546)
(0.372944 -0.0655324 -1.14594)
(0.459179 0.254103 -1.17361)
(-2.2368 0.861082 -1.11539)
(-3.81894 -0.00305519 -1.10888)
(2.5166 0.274547 -1.1911)
(-1.96344 -0.256596 -0.0480901)
(-2.25768 -0.234998 -0.393194)
(-2.30444 0.15587 -0.378264)
(-2.17645 0.452502 -0.122926)
(-2.1132 -0.374198 0.0171197)
(-1.00677 -0.599978 -0.721277)
(-1.72083 -0.0331731 6.71744)
(-1.42945 0.0127961 6.27698)
(-1.50654 -0.0477447 6.25832)
(-1.73013 0.0523222 6.70316)
(-1.73149 -0.0678757 6.85175)
(-1.64059 -0.0754182 5.92216)
(-2.32496 -0.136883 7.09944)
(-2.05975 -0.0543484 7.46218)
(-2.12624 0.0257724 7.41333)
(-2.40288 0.119462 7.07509)
(-2.82512 -0.115256 6.75812)
(-1.47624 -0.0422031 7.83992)
(-3.78692 -0.0178941 3.36199)
(-3.90337 -0.028818 3.74218)
(-3.90721 -0.00275168 3.74291)
(-3.83384 -0.000171244 3.33604)
(-3.96896 -0.0853541 3.20226)
(-3.81037 -0.113863 4.1821)
(-3.47191 0.0346262 0.0694846)
(-3.50649 -0.00468501 0.157626)
(-3.53891 -0.0633084 0.145923)
(-3.57848 -0.0718793 0.0597139)
(-3.6937 -0.0163134 -0.030235)
(-3.59039 0.0343598 0.285872)
(-2.51877 0.036058 -3.73517)
(-2.40005 0.0180003 -3.48784)
(-2.45729 -0.0263985 -3.54297)
(-2.65541 -0.042234 -3.79258)
(-2.85999 0.0073754 -3.95777)
(-2.4871 0.0402862 -3.47572)
(-3.76947 0.0346033 -3.53772)
(-3.86352 0.0236975 -3.5359)
(-3.812 -0.020585 -3.50773)
(-3.79082 -0.0336294 -3.54693)
(-3.74532 0.019975 -3.5255)
(-3.81018 0.0453736 -3.49113)
(-0.421664 -0.379165 -0.138664)
(0.112275 -0.289489 -0.345936)
(-0.280478 -0.226901 -0.163201)
(0.0875002 0.0264609 -0.386681)
(0.989195 -0.0881905 -0.204557)
(-0.12648 0.663824 0.0659289)
(-0.823604 0.126123 0.311543)
(0.849025 -0.259755 -0.374494)
(1.50004 -0.0313397 -0.998004)
(0.561725 0.481662 -0.12735)
(1.42876 -0.330375 0.0598185)
(-0.739721 -0.0451917 0.145057)
(0.975215 -0.218942 -0.0204211)
(3.33001 0.0552048 -1.40359)
(3.56768 -0.0347805 -2.17589)
(2.47584 0.187096 -1.02354)
(2.47658 -0.375159 -0.201246)
(1.5564 -0.415578 -0.490782)
(2.86839 -0.150595 -0.857846)
(5.09615 0.350893 -2.27024)
(4.65203 0.526757 -2.81382)
(3.07818 0.170286 -1.51201)
(3.43832 -0.280753 -0.545761)
(3.04235 -0.0523418 -0.746825)
(4.54579 0.106517 -1.39554)
(5.89581 0.60162 -2.36212)
(5.35275 0.794556 -2.65701)
(2.84262 0.0318458 0.575378)
(4.59462 -0.358551 -0.624122)
(4.5677 0.011622 -0.648805)
(4.71524 0.151233 -1.23052)
(6.0196 0.690676 -2.26829)
(6.14831 0.670588 -2.67673)
(5.71113 0.23775 -0.387313)
(5.46733 -0.359607 -0.630343)
(6.12737 -0.0926432 -1.47325)
(4.67498 -0.0595069 -1.13015)
(5.61601 0.391162 -2.18461)
(6.18029 0.210891 -2.88507)
(6.19787 0.349326 -1.99235)
(5.61007 -0.208943 -0.820766)
(5.7665 -0.0966119 -1.78056)
(4.28539 -0.231771 -1.11352)
(4.92984 0.0202496 -2.07524)
(5.55265 -0.241004 -2.88326)
(5.43173 0.220944 -2.2336)
(5.08769 0.060639 -1.12247)
(5.07522 -0.00686797 -1.82054)
(3.54606 -0.253454 -0.966288)
(4.34004 -0.218236 -1.8432)
(4.71804 -0.50425 -2.61587)
(4.45907 -0.0607313 -2.03812)
(4.61121 -0.0162661 -1.51926)
(4.28345 0.150726 -1.61208)
(3.0031 -0.249741 -0.600025)
(3.80902 -0.409189 -1.40363)
(3.93333 -0.894731 -2.20417)
(3.94847 -0.388477 -2.04791)
(4.16152 -0.0217954 -1.91212)
(3.43125 0.393671 -1.20023)
(2.49038 -0.140301 -0.128557)
(3.10822 -0.604736 -0.87659)
(3.12659 -1.21691 -1.65624)
(2.90766 -0.476317 -2.0309)
(2.85226 0.344342 -2.13237)
(2.33146 0.751564 -0.653911)
(1.11216 -0.0462307 0.0921772)
(1.63185 -0.591739 -0.272842)
(1.79949 -0.594602 -1.0009)
(1.14032 -0.221407 -1.1281)
(0.725816 0.210717 -1.04046)
(0.894399 0.412969 -0.0755143)
(-1.21182 -0.668605 0.205874)
(0.244347 0.136877 1.23937)
(-1.30942 -0.407993 0.48848)
(0.593025 0.159917 0.80889)
(1.41428 -0.283287 1.04487)
(-0.35202 0.846717 0.172335)
(-1.20346 0.559822 0.943009)
(0.591745 0.608928 3.05505)
(0.74265 -0.213663 2.32915)
(1.54267 -0.148117 2.69064)
(1.23976 -1.24031 2.32127)
(-2.12795 0.0783627 0.47047)
(0.341723 0.214998 2.92025)
(1.82803 0.637193 4.29037)
(1.28077 -0.838289 3.98033)
(2.74679 -1.50634 3.16952)
(2.78826 -1.9324 2.84698)
(0.0722446 -0.905671 1.7086)
(1.19531 -0.248581 3.43009)
(2.15714 -0.869638 3.08886)
(3.2297 -1.62269 3.71339)
(4.11068 -1.20248 3.23913)
(3.8737 -1.29188 2.4176)
(2.78412 -0.566663 2.52714)
(-3.019 -0.440707 1.44626)
(-1.58598 -2.25918 2.23136)
(3.92322 -1.71711 3.50062)
(4.39744 -0.890591 5.22781)
(4.58111 -0.459116 1.91828)
(4.62696 0.0698412 3.06687)
(-5.87142 0.0197341 -1.15745)
(-3.55367 -0.959979 0.760161)
(3.39225 -0.77441 3.11077)
(4.59614 -0.60129 5.00232)
(3.50416 -0.129011 1.35365)
(3.70804 0.534113 1.37721)
(-7.58737 0.344 -0.815432)
(-6.6698 0.115735 -0.148738)
(-0.884791 -0.247796 1.79955)
(2.62014 -1.08547 1.32883)
(2.17097 -1.17839 0.90589)
(-0.0977219 0.322346 -1.31951)
(-9.08811 0.454847 0.231679)
(-8.6845 0.319703 0.297021)
(-3.38361 -0.311565 0.648203)
(-0.909112 -2.06636 -1.1214)
(1.30676 -1.67636 0.373681)
(1.18762 -0.121311 -0.200852)
(-9.16461 0.632297 0.895656)
(-11.7782 1.48538 1.33103)
(-8.4383 1.79085 1.01594)
(-3.52033 0.323669 -0.206841)
(2.65148 0.277724 -0.0908908)
(2.16813 0.947445 0.309797)
(-1.64921 0.234117 1.83988)
(-0.648627 1.02094 1.87934)
(-2.29285 2.25086 1.40479)
(2.53203 1.98046 0.262694)
(5.59975 1.3473 -0.979407)
(2.28808 2.19532 0.70356)
(2.70169 -0.768032 -0.0546595)
(3.43288 -0.679 1.16197)
(2.62827 -0.847448 0.172322)
(3.77366 1.71403 -4.68381)
(4.69823 -0.0243064 -5.44296)
(0.483953 2.44448 0.886792)
(3.35986 0.159875 -3.17303)
(3.96266 0.0409604 -3.42614)
(4.37391 0.410708 -5.30496)
(3.38136 0.438073 -3.58134)
(3.25738 -0.432214 -3.44821)
(1.92998 -0.401662 -1.8958)
(-1.52201 -0.504071 -1.26734)
(-0.204751 0.425781 0.400257)
(-1.83009 -0.0667501 -0.462535)
(0.0605306 0.300969 1.50159)
(1.2462 -0.196508 1.42504)
(-0.981479 0.269397 -1.24237)
(-2.15498 0.127237 -0.654784)
(-1.53757 1.05314 3.0671)
(-1.29308 0.00509995 2.59464)
(-0.397278 0.561374 3.87463)
(-2.00063 -1.46943 1.53722)
(-2.27751 -0.0746119 -1.77445)
(-1.9083 0.303933 0.904323)
(-3.85642 0.935916 4.92337)
(-3.64933 0.0342255 5.70483)
(-3.83273 0.566662 7.16849)
(-3.22393 -1.81435 1.48839)
(-2.55874 -0.274299 -1.3565)
(-3.39145 0.10348 0.298571)
(-4.77551 0.340989 1.12257)
(-3.37793 -0.851432 2.17028)
(-3.39703 -0.949679 2.49514)
(-5.78138 -1.47697 2.28876)
(-4.32946 -0.405439 0.611511)
(-3.10841 -0.281071 -2.8845)
(-3.4491 -0.216538 -3.61188)
(-2.8905 -0.802474 -3.55132)
(-2.44391 -0.478815 -2.18689)
(-4.5103 -0.0861999 -1.33008)
(-3.35759 0.0633302 -0.0103181)
(-2.25579 -0.197254 -3.56521)
(-2.78002 -0.478069 -4.60356)
(-2.93973 -0.919397 -4.80919)
(-2.10683 -0.423968 -2.62441)
(-3.36397 0.260882 -3.73525)
(-3.43107 0.0935851 -3.76276)
(-1.49304 -0.473013 -3.35657)
(-2.6413 -1.40771 -4.6884)
(-3.10349 -1.8131 -5.45798)
(-2.59347 -1.43809 -4.87882)
(-1.79627 -0.703153 -4.62034)
(-1.13013 -0.0483556 -3.87367)
(-1.71534 -0.552426 -1.91346)
(-1.80978 -1.6837 -3.71139)
(-0.560168 -2.32975 -4.46208)
(1.45803 -2.0209 -3.79814)
(2.61349 -1.5824 -3.02987)
(3.16403 -0.566325 -1.72364)
(-5.29638 -0.062545 1.84185)
(-6.39933 -0.021772 1.20151)
(-3.83171 -0.451419 1.30758)
(-0.235044 -0.434751 3.74501)
(1.89344 -0.237498 1.99495)
(3.3697 0.471775 1.87678)
(-2.95919 -0.0509554 6.15228)
(-2.48249 0.491716 6.54014)
(-3.05926 0.637466 6.72461)
(1.65099 0.739432 3.52173)
(3.0539 0.702078 -1.19784)
(1.60338 1.92308 2.87783)
(-5.07952 -0.771937 5.90815)
(0.228618 0.954126 -0.841674)
(0.786675 -0.850503 -2.03368)
(2.9904 1.24801 -5.48044)
(4.41892 -0.858839 -6.30424)
(-4.0863 1.69027 3.1742)
(4.04615 0.551893 -4.47296)
(4.69691 0.972568 -5.92111)
(4.17281 0.661878 -5.73141)
(3.31338 0.45319 -4.36317)
(3.77581 -1.19336 -4.32528)
(2.42275 -1.23753 -3.49388)
(-0.0884114 -0.228843 -3.29805)
(-0.048443 0.359848 -1.80404)
(-0.321218 0.0133405 -2.20904)
(-0.244656 0.474742 0.0284346)
(1.23382 -0.285512 0.226376)
(0.0434444 0.219883 -3.28612)
(-2.05969 -0.0208589 -2.49892)
(-2.37202 0.961131 0.864865)
(-2.09241 -0.039113 -0.07525)
(-2.68839 1.07146 1.71426)
(-3.21947 -0.886352 0.417882)
(-1.858 0.076141 -4.46256)
(-2.94405 -0.0939864 -1.22695)
(-4.64824 1.12723 2.99318)
(-4.09395 0.0989349 3.69615)
(-5.06 1.2254 6.32265)
(-4.05641 -0.26092 2.00138)
(-1.29984 1.29033 -4.91725)
(-4.23401 -0.174787 1.0414)
(-4.88464 0.47221 3.5632)
(-4.0772 -0.731076 4.21449)
(-3.42582 -0.304734 3.75281)
(-1.54242 0.117587 1.05206)
(-1.6099 0.701647 -0.514536)
(-2.56651 -0.0511951 1.12092)
(-3.01854 0.160697 1.85822)
(-2.77242 -0.222694 2.40672)
(-1.75525 -0.206023 1.66311)
(-1.75359 -0.180519 1.49074)
(-2.88835 -0.076726 1.45161)
(-0.976176 0.0457079 0.283146)
(-1.85332 0.241222 1.25213)
(-2.20897 -0.360582 1.3443)
(-1.58728 -0.126962 0.750092)
(-1.23276 -0.0856583 1.04605)
(-2.19814 0.113383 2.51199)
(-0.00767132 -0.255755 0.891055)
(0.28764 -0.343006 1.04447)
(0.993227 -0.748343 0.783388)
(0.640324 -0.474644 0.536621)
(0.366944 -0.403516 -0.141562)
(0.284387 -0.163795 1.12015)
(0.892101 -0.384604 1.04781)
(2.73512 -0.138272 1.35864)
(4.24377 -1.19185 0.807686)
(3.77073 -1.01445 0.286635)
(2.29654 -0.875891 -0.4374)
(2.93987 -0.571952 -0.471364)
(0.259226 0.0991949 2.44564)
(0.595967 0.360241 3.96254)
(1.82009 -1.38965 3.22006)
(3.7137 -0.802753 0.859263)
(2.8043 -0.255976 -0.364027)
(3.86991 0.169195 -0.154494)
(1.29371 -0.00971716 4.93071)
(-0.643865 0.485303 7.92579)
(-0.951569 -0.868767 7.23186)
(3.2463 0.335918 -0.589848)
(3.51012 0.319253 -2.75659)
(2.92477 1.14354 0.518598)
(-6.0427 0.404112 4.54149)
(-7.07871 2.02533 5.32637)
(-7.70606 0.765372 4.70034)
(3.42086 1.37803 -5.4807)
(4.69088 -0.989104 -5.80719)
(-6.79466 -0.13375 2.65905)
(4.34179 0.113634 -4.15233)
(4.01593 0.31071 -4.80189)
(3.70651 0.766143 -4.84862)
(3.47074 0.926157 -4.2666)
(3.905 -0.825485 -4.05282)
(3.49269 -0.927307 -3.74427)
(-0.959216 -0.0120827 -3.87497)
(-1.0677 0.0479309 -4.03996)
(-0.758955 -0.0672664 -3.98642)
(-1.16665 -0.219451 -3.92058)
(-1.65215 0.079493 -3.81343)
(-0.5216 0.282797 -3.90474)
(-2.4482 -0.042839 -2.55535)
(-2.66325 0.0436922 -2.70623)
(-2.10063 -0.0349502 -2.77788)
(-2.74002 -0.237977 -2.53204)
(-3.52016 0.147393 -2.32252)
(-1.67555 0.385507 -2.74042)
(-3.75297 -0.0952478 6.38877)
(-4.09029 0.0381363 6.17221)
(-3.38549 0.0500566 6.00998)
(-4.14604 -0.0628211 6.42877)
(-5.22615 0.189027 6.7125)
(-2.6313 0.469719 5.86689)
(-0.61282 0.183173 -3.15335)
(0.246663 0.131544 -3.41269)
(0.302668 -0.210165 -3.45144)
(-0.464897 -0.310623 -3.19725)
(-1.41897 0.0227974 -2.77965)
(0.284621 0.310417 -3.55155)
(-8.03084 0.14517 1.22072)
(-7.98712 0.123742 1.63874)
(-7.40787 -0.185973 1.36007)
(-8.28067 -0.157223 1.44973)
(-9.01833 0.0426214 1.39766)
(-6.8573 0.272174 1.13484)
(-8.18856 -0.073158 5.16893)
(-8.3788 -0.084789 5.39319)
(-7.94355 0.0630554 5.09642)
(-8.28722 0.364005 5.10887)
(-8.77065 -0.255559 4.74462)
(-6.93778 -0.292375 5.0124)
(-7.51491 0.149422 1.71443)
(-6.20985 0.193611 1.58542)
(-5.89197 -0.194938 1.46988)
(-7.46068 -0.163911 1.77948)
(-8.9945 0.163285 2.02016)
(-5.56029 0.539836 1.46728)
(-10.67 0.125433 3.16688)
(-10.4548 0.162646 4.24934)
(-10.088 -0.182289 4.12815)
(-10.7227 -0.124029 3.298)
(-11.1018 0.195866 2.33543)
(-9.53663 0.413574 4.22258)
(-8.45987 -0.0853448 1.70569)
(-9.17706 -0.0298804 3.27513)
(-9.08182 0.00972593 3.20814)
(-8.339 0.25189 1.43256)
(-7.92166 -0.153189 0.167285)
(-8.81125 -0.124063 4.13976)
(-8.43344 -0.0307898 2.40236)
(-7.14553 0.0211147 2.74333)
(-7.09816 -0.00477712 2.68616)
(-8.31096 0.147315 2.42343)
(-9.23574 0.0390227 1.99036)
(-6.24555 0.228122 2.87924)
(-8.99427 0.0678681 0.638947)
(-9.41301 0.0741693 2.00951)
(-9.23311 -0.118932 1.91729)
(-8.97235 -0.0525613 0.564199)
(-8.585 0.185698 -0.864491)
(-8.86828 0.168983 2.52536)
(-5.40348 0.0279806 -3.78103)
(-6.84417 0.0632646 -2.02952)
(-6.76753 -0.125687 -2.08113)
(-5.0447 -0.0513112 -4.25557)
(-3.77541 0.212399 -5.48173)
(-7.44146 0.259305 -0.12057)
(-7.98559 -0.0971366 1.50964)
(-8.03125 -0.080717 1.85749)
(-8.02151 0.0205706 1.76362)
(-7.98514 0.0479808 1.51186)
(-8.05532 -0.0905118 1.15792)
(-7.33705 -0.0565805 2.29871)
(-5.98096 0.020293 -1.97402)
(-6.45138 0.000361695 -1.35155)
(-6.35336 -0.100612 -1.46723)
(-5.7398 -0.125167 -2.23046)
(-5.40783 -0.0185012 -2.81198)
(-6.51057 -0.0571499 -0.783491)
(-2.2559 0.0666387 -5.06899)
(-2.65579 0.0588387 -4.98989)
(-2.61921 -0.135299 -5.00497)
(-2.15701 -0.164203 -5.15665)
(-1.98822 0.119909 -5.19619)
(-3.19697 0.201662 -4.69585)
(-5.60614 -0.00466048 0.712589)
(-5.82702 0.0142909 0.569545)
(-5.76362 -0.0459105 0.406856)
(-5.61956 -0.0685284 0.696675)
(-5.74893 -0.0188731 1.03898)
(-5.74404 -0.0146764 1.02174)
(-3.44661 0.0391831 -1.90691)
(-3.33433 0.0253129 -2.27788)
(-3.29234 -0.153004 -2.26691)
(-3.48807 -0.252944 -1.88367)
(-3.60038 -0.0339635 -1.75435)
(-3.50681 0.063525 -1.85348)
(-1.62872 0.0624176 -2.84168)
(-1.55332 0.0491564 -3.02216)
(-1.54679 -0.0838081 -2.97142)
(-1.68446 -0.116864 -2.75503)
(-1.68944 0.0807696 -2.6922)
(-1.57518 0.12278 -2.9383)
(-3.85164 -0.0224045 3.22473)
(-3.8708 0.00871469 2.49306)
(-3.83773 -0.00962202 2.35352)
(-3.90995 0.0597644 3.19542)
(-4.03998 -0.0486858 3.82933)
(-4.09557 -0.0883213 2.62986)
(-2.6185 0.0456214 0.937902)
(-2.57529 0.0577507 0.575035)
(-2.49853 -0.102329 0.52533)
(-2.62732 -0.160082 0.946408)
(-2.6811 0.0109118 1.11125)
(-2.47132 0.0947063 0.497885)
(-1.68137 0.0273687 0.119974)
(-1.64243 0.0273219 0.0210099)
(-1.61773 -0.0210347 0.0325038)
(-1.65436 -0.0387806 0.111256)
(-1.6665 0.0310191 0.173676)
(-1.5681 0.043347 0.0196475)
(-1.40302 -0.0884947 4.77938)
(-1.42878 -0.0597919 4.55898)
(-1.41902 0.0518135 4.44736)
(-1.40189 0.137166 4.68215)
(-1.51968 -0.0994694 4.53638)
(-1.57871 -0.13318 4.65567)
(-0.541701 0.0184333 2.54376)
(-0.564023 0.0327408 2.28267)
(-0.546285 -0.010261 2.23298)
(-0.528046 0.0101283 2.48105)
(-0.50355 -0.0110631 2.4902)
(-0.580346 -0.0260872 2.18135)
(-0.851707 0.0202247 1.42491)
(-0.876221 0.0199489 1.37029)
(-0.876171 -0.0136181 1.36614)
(-0.848337 -0.0167006 1.40137)
(-0.829012 0.0179889 1.40374)
(-0.866239 0.0188002 1.36596)
(-1.09555 -0.0237895 2.90543)
(-1.18029 -0.0352115 3.12904)
(-1.20574 0.0219812 3.14863)
(-1.12519 0.0523535 2.91778)
(-1.16249 -0.0746338 2.87901)
(-1.24676 -0.0887804 3.39796)
(0.685155 -0.0238355 2.29995)
(0.672875 -0.0338307 2.32678)
(0.658255 0.0121712 2.33436)
(0.666838 0.0261993 2.33406)
(0.658123 -0.066984 2.34474)
(0.666641 -0.0651125 2.35076)
(-0.156431 -0.0018565 1.10985)
(-0.168676 -0.00553638 1.10243)
(-0.168531 -0.00836967 1.10507)
(-0.160804 -0.00999947 1.13204)
(-0.157914 -0.00565198 1.1381)
(-0.169588 0.000247253 1.12067)
(-0.585419 0.00471585 0.767491)
(-0.665773 0.00734447 0.864803)
(-0.682057 0.0187662 0.830442)
(-0.615548 0.0288514 0.76085)
(-0.572345 -0.0125052 0.697115)
(-0.750862 -0.0220314 0.871979)
(1.60945 -0.0137017 0.830729)
(1.58696 -0.00146669 0.867112)
(1.58732 0.0228808 0.85504)
(1.61022 0.0318953 0.836349)
(1.64402 -0.0166586 0.802799)
(1.58111 -0.0356977 0.887467)
(0.50219 -0.00181431 -0.416091)
(0.506183 -0.00269683 -0.412601)
(0.504289 -0.00246847 -0.422389)
(0.504954 -0.000883578 -0.421043)
(0.500815 -0.00402172 -0.440764)
(0.508908 -0.00498055 -0.415146)
(-2.30021 -0.0198111 -1.81714)
(-2.37066 0.00546661 -1.69773)
(-2.36458 0.0511946 -1.75849)
(-2.28551 0.0600647 -1.85522)
(-2.23496 -0.00424005 -1.98329)
(-2.38738 -0.0369981 -1.79705)
(1.71887 -0.0088548 -0.953094)
(1.7034 0.00602668 -0.967746)
(1.70705 0.0250243 -0.967073)
(1.72012 0.0301352 -0.970675)
(1.74311 0.00355992 -0.975414)
(1.69461 -0.0153793 -0.958313)
(0.924085 0.00229318 -1.76746)
(0.927365 8.76931e-05 -1.76215)
(0.927059 -0.0033911 -1.77035)
(0.924956 -0.00331579 -1.77614)
(0.920866 -0.00135022 -1.78876)
(0.930048 0.000654091 -1.77751)
(-3.5997 -0.00711736 -2.30392)
(-3.63041 -0.00440617 -2.25076)
(-3.62329 0.00665291 -2.28031)
(-3.59816 0.0106414 -2.33299)
(-3.57402 -0.00308811 -2.39485)
(-3.6443 -0.00834185 -2.29086)
(1.48446 0.000277847 -3.51669)
(1.46665 0.00901102 -3.57544)
(1.4678 0.001738 -3.56614)
(1.48193 -0.00142099 -3.52852)
(1.49989 0.0109256 -3.50074)
(1.45138 0.00586213 -3.56594)
(1.20689 0.000960061 -1.25533)
(1.20545 0.00203541 -1.28383)
(1.20371 -0.000424492 -1.28228)
(1.20333 -0.000678238 -1.26817)
(1.2008 0.000584053 -1.26023)
(1.20862 -0.000220388 -1.29019)
(2.14937 -0.00359971 0.194004)
(2.23467 0.0022384 0.267379)
(2.30613 0.0356492 0.275992)
(2.29605 0.0329294 0.294168)
(2.27152 -0.0180187 0.277742)
(2.21113 -0.0215666 0.254122)
(1.52263 -0.0310701 -3.68463)
(1.49781 -0.0640446 -3.69707)
(1.35278 -0.0570344 -3.88394)
(1.22899 -0.0598397 -4.23174)
(1.06335 -0.0439076 -4.26673)
(1.22874 -0.00591199 -4.05751)
(0.31099 0.0173634 -0.631318)
(0.294175 0.0733301 -0.657633)
(0.238378 0.160436 -0.629825)
(0.26837 0.179921 -0.557449)
(0.256324 0.0788652 -0.504802)
(0.375951 -7.45264e-05 -0.535165)
(0.443124 -0.00881499 -0.133528)
(0.441814 -0.0264394 -0.154563)
(0.44286 -0.0318103 -0.171289)
(0.45921 -0.0295535 -0.19213)
(0.467081 -0.00285796 -0.195681)
(0.449197 0.0131966 -0.180104)
(0.158142 -0.00715519 -1.83864)
(0.102552 -0.0306718 -1.9685)
(0.0601709 -0.0525219 -2.11818)
(0.0636098 -0.0689773 -2.16842)
(0.0557241 -0.0364004 -2.14224)
(0.0246281 0.00528477 -1.97723)
(0.395472 0.0175262 -1.70597)
(0.400614 0.0429385 -1.73881)
(0.429694 0.0550826 -1.70842)
(0.488967 0.0444934 -1.68241)
(0.537924 0.0196309 -1.65298)
(0.522856 0.00438184 -1.69357)
(0.268764 -0.00483249 0.180431)
(0.264471 -0.0111928 0.178707)
(0.256338 -0.00408243 0.176431)
(0.242339 0.00287979 0.180697)
(0.232332 -0.00145167 0.177884)
(0.245116 -0.00142972 0.172161)
(0.667044 -0.0177878 -0.909261)
(0.66637 -0.0367333 -0.926758)
(0.654045 -0.0304075 -0.93191)
(0.626877 -0.0240471 -0.913178)
(0.595467 -0.0188193 -0.907177)
(0.604838 -0.00460352 -0.900024)
(0.0448141 0.00879774 -1.29365)
(0.0584802 0.0237133 -1.29816)
(0.0757673 0.0323209 -1.28856)
(0.0936219 0.032293 -1.2936)
(0.0982344 0.0195021 -1.29732)
(0.0997011 0.00431849 -1.2903)
(-0.215612 -0.000753581 0.186797)
(-0.218038 -0.00332263 0.186313)
(-0.220543 -0.00802184 0.185554)
(-0.218285 -0.0102241 0.187677)
(-0.215486 -0.00383214 0.189747)
(-0.214606 0.00134189 0.181098)
(-0.123407 -0.00301136 -1.04379)
(-0.127921 -0.00926899 -1.03584)
(-0.134008 -0.0155793 -1.02747)
(-0.135074 -0.0201643 -1.0367)
(-0.138934 -0.00983735 -1.04474)
(-0.148281 0.00139481 -1.02823)
(-0.234948 0.00408616 -1.44543)
(-0.230212 0.0113948 -1.45519)
(-0.222962 0.0162279 -1.45158)
(-0.216927 0.0147141 -1.45195)
(-0.211945 0.00754105 -1.45223)
(-0.208058 0.00164807 -1.44972)
(-0.579607 -0.000586345 -0.0914765)
(-0.582025 -0.00243096 -0.0924442)
(-0.584393 -0.00792482 -0.0926543)
(-0.589078 -0.0105474 -0.0923199)
(-0.590985 -0.00376253 -0.089949)
(-0.588082 0.00102534 -0.0966128)
(0.0548591 -0.00261585 -2.15622)
(0.0455516 -0.00386429 -2.15427)
(0.0456302 -0.00217941 -2.15022)
(0.0443599 -0.00142068 -2.18505)
(0.0458738 -0.00143746 -2.21079)
(0.0332997 -0.000856716 -2.18275)
(-0.760188 0.00172988 -1.45399)
(-0.760343 0.00619915 -1.45804)
(-0.756359 0.0117949 -1.45512)
(-0.751423 0.0131966 -1.4509)
(-0.747285 0.0047549 -1.45269)
(-0.749414 -0.00116067 -1.45168)
(-2.19355 0.000862171 0.464316)
(-2.20231 -0.000228848 0.45434)
(-2.20308 -0.00216257 0.456191)
(-2.21251 -0.00242615 0.466266)
(-2.21611 -0.00228593 0.478034)
(-2.2123 -0.000751185 0.448577)
(-0.230367 0.0026631 -4.89547)
(-0.230015 0.000606662 -4.90655)
(-0.234619 -0.00554706 -4.8966)
(-0.221914 -0.00899418 -4.88859)
(-0.220533 0.00560655 -4.87939)
(-0.232441 0.011121 -4.9158)
(-0.134366 0.0023723 -0.491645)
(-0.129607 0.00452153 -0.491028)
(-0.128596 0.00481992 -0.489636)
(-0.123539 0.00629703 -0.482389)
(-0.123663 0.00490451 -0.478644)
(-0.115302 0.00116609 -0.484413)
(1.27105 -0.862139 -3.70156)
(0.734231 0.336163 -2.25094)
(1.16025 0.131457 -3.04478)
(2.03426 -0.0730459 -1.13808)
(2.74567 0.197266 0.0684259)
(1.77069 0.857035 -3.33593)
(2.21113 -1.61035 -0.530266)
(1.5089 0.0890329 -6.95621)
(1.71994 0.85056 -1.46629)
(2.82871 -0.61151 -1.66369)
(2.50886 -1.5151 -2.90732)
(3.40826 1.32999 0.220849)
(3.03874 -1.61141 8.41182)
(1.02643 0.307149 -8.18013)
(2.57368 0.545372 8.27836)
(3.22716 -1.21693 7.5306)
(0.463808 -1.38143 -5.54238)
(3.77442 0.91229 4.30717)
(1.27061 -0.0909905 -5.48129)
(-2.39138 0.313677 -0.567737)
(-1.65965 -0.512553 -1.49947)
(-3.14247 0.785812 0.567891)
(-3.66241 -0.238622 0.0128501)
(-0.21473 0.437454 -5.07415)
(5.81084 -0.294331 -4.02776)
(-1.86179 0.0881376 -1.2223)
(7.17506 -2.18908 -5.45686)
(0.890672 0.148142 -2.49539)
(-3.77156 -0.529339 0.157941)
(6.08632 0.159372 -1.13607)
(4.67705 0.199307 -4.80595)
(3.08351 -0.248067 2.73778)
(5.27536 -0.931428 -5.37839)
(4.86344 -0.324388 -3.13715)
(1.60288 -0.531352 1.84842)
(2.97017 -0.101173 -3.7021)
(-0.110923 -1.65197 -2.36835)
(-3.58827 0.0781289 2.92834)
(-4.0121 -0.994132 4.99049)
(-3.57844 0.334625 6.92477)
(0.712804 1.1485 3.2071)
(4.51099 1.96983 1.14817)
(2.16839 -2.08214 1.99435)
(0.080786 -0.620558 3.18804)
(0.408408 -0.857935 5.53853)
(2.88853 -0.515612 4.03671)
(2.67511 1.10979 2.34433)
(3.10277 1.95266 2.24996)
(3.70353 -0.972409 0.66669)
(4.48224 -0.400611 -1.12167)
(2.80256 0.219711 -0.34282)
(3.40094 0.0466071 -0.633117)
(3.79405 0.486762 0.610156)
(2.79465 0.706648 1.76096)
(0.85511 -0.72222 1.34972)
(-1.32574 -0.168106 3.81236)
(-1.95657 -0.132736 4.61463)
(-1.01394 1.14289 2.8995)
(0.200871 1.87094 0.55551)
(0.647696 0.792171 0.30066)
(0.882852 -0.387477 2.14775)
(-0.565105 -0.299057 2.72232)
(-0.556843 0.647029 2.69554)
(-0.80643 1.00436 1.7413)
(-0.456387 0.574225 1.00166)
(0.302915 0.244805 0.737293)
(0.863977 0.143097 0.18822)
(0.2716 -0.134937 0.412244)
(0.663721 0.0361509 0.629289)
(0.564752 0.273941 0.179169)
(0.702796 -0.0005686 -0.449502)
(0.804781 -0.0497946 -0.433425)
(-0.203272 -0.337629 -0.0456059)