/*--------------------------------*- C++ -*----------------------------------*\
| =========                 |                                                 |
| \\      /  F ield         | OpenFOAM: The Open Source CFD Toolbox           |
|  \\    /   O peration     | Version:  v1612+                                |
|   \\  /    A nd           | Web:      www.OpenFOAM.com                      |
|    \\/     M anipulation  |                                                 |
\*---------------------------------------------------------------------------*/
FoamFile
{
    version     2.0;
    format      ascii;
    class       volScalarField;
    location    "9.2";
    object      p;
}
// * * * * * * * * * * * * * * * * * * * * * * * * * * * * * * * * * * * * * //

dimensions      [1 -1 -2 0 0 0 0];

internalField   nonuniform List<scalar> 
320
(
14724.8
14724.8
14724.8
14724.8
5.00584
5.00599
5.00508
5.00613
5.00487
5.00633
5.00616
5.00608
5.00615
5.00594
5.00609
5.00566
4914.91
4914.9
4914.84
4914.9
4914.85
4914.91
4914.9
4914.91
4914.93
4914.92
4914.91
4914.91
14724.8
14724.8
14724.8
14724.8
14724.8
14724.8
14724.8
14724.8
14724.8
14724.8
14724.8
14724.8
24534.8
24534.8
24534.8
24534.8
24534.8
24534.8
24534.8
24534.8
24534.8
24534.8
24534.8
24534.8
24534.8
24534.8
24534.8
24534.8
5.00573
5.00633
5.00713
5.00627
5.00664
5.00649
5.00475
5.00642
5.00618
5.00626
5.00574
5.00629
5.007
5.00529
5.00737
5.00601
5.00613
5.00587
5.00576
5.00557
4914.91
4914.91
4914.89
4914.91
4914.86
4914.85
4914.85
4914.86
4914.87
4914.9
4914.88
4914.87
4914.91
4914.89
4914.9
4914.91
4914.91
4914.9
4914.91
4914.89
14724.8
14724.8
14724.8
14724.8
14724.8
14724.8
14724.8
14724.8
14724.8
14724.8
14724.8
14724.8
14724.8
14724.8
14724.8
14724.8
14724.8
14724.8
14724.8
14724.8
24534.8
24534.8
24534.8
24534.8
24534.8
24534.8
24534.8
24534.8
24534.8
24534.8
24534.8
24534.8
24534.8
24534.8
24534.8
24534.8
24534.8
24534.8
24534.8
24534.8
34344.8
34344.8
34344.8
34344.8
34344.8
34344.8
34344.8
34344.8
34344.8
34344.8
34344.8
34344.8
34344.8
34344.8
34344.8
34344.8
34344.8
34344.8
34344.8
34344.8
34344.8
34344.8
34344.8
34344.8
34344.8
34344.8
34344.8
34344.8
34344.8
34344.8
34344.8
34344.8
34344.8
34344.8
34344.8
34344.8
5.00572
5.00582
5.00618
5.0063
5.0059
5.0064
5.00731
5.00769
5.01225
5.00556
5.0063
5.00687
5.00564
5.00533
5.00497
5.00548
5.00467
5.005
5.00477
5.00872
5.00649
5.00608
5.0063
5.00618
5.00625
5.00566
5.00562
5.00544
4914.92
4914.92
4914.93
4914.9
4914.89
4914.86
4914.91
4914.89
4914.97
4914.84
4914.84
4914.9
4914.89
4914.87
4914.91
4914.9
4914.9
4914.91
4914.93
4914.92
4914.91
4914.91
4914.92
4914.91
4914.93
4914.91
4914.9
4914.91
14724.8
14724.8
14724.8
14724.8
14724.8
14724.8
14724.8
14724.8
14724.8
14724.8
14724.8
14724.8
14724.8
14724.8
14724.8
14724.8
14724.8
14724.8
14724.8
14724.8
14724.8
14724.8
14724.8
14724.8
14724.8
14724.8
14724.8
14724.8
24534.8
24534.8
24534.8
24534.8
24534.8
24534.8
24534.8
24534.8
24534.8
24534.8
24534.8
24534.8
24534.8
24534.8
24534.8
24534.8
24534.8
24534.8
24534.8
24534.8
24534.8
24534.8
24534.8
24534.8
24534.8
24534.8
24534.8
24534.8
34344.8
34344.7
34344.8
34344.8
34344.8
34344.8
34344.8
34344.8
34344.8
34344.8
34344.8
34344.8
34344.8
34344.8
34344.8
34344.8
34344.8
34344.8
34344.8
34344.8
34344.8
34344.8
34344.8
34344.8
34344.8
34344.8
34344.8
34344.9
5.00612
5.00537
5.00622
5.00631
4914.92
4914.9
4914.92
4914.91
)
;

boundaryField
{
    top_fluid_surface
    {
        type            calculated;
        value           nonuniform List<scalar> 
64
(
-7.46087e-09
-3.45442e-09
0
-1.08002e-09
-1.23462e-10
-4.03629e-10
-1.15955e-09
-8.77216e-09
-3.32258e-08
-8.63087e-09
0
-2.08082e-09
-7.32656e-09
-4.39998e-09
0
-8.80891e-09
0
0
0
0
0
-7.63507e-09
0
0
-6.53148e-10
0
0
0
0
0
-5.25516e-09
0
-4.94421e-09
-1.18718e-08
-3.60865e-08
0
-1.47969e-11
0
-3.92765e-08
0
-2.86687e-10
0
0
0
-8.34973e-09
0
-7.77705e-09
-5.69566e-09
-6.52348e-09
-7.72762e-09
-1.88603e-09
-1.00342e-08
-9.76087e-09
-9.14757e-09
-2.48595e-08
-5.39597e-09
-7.10827e-09
-1.62544e-09
-3.71354e-09
-5.2343e-08
-2.11306e-08
-3.61051e-09
-8.62773e-09
-1.79659e-08
)
;
    }
    bottom_fluid_surface
    {
        type            calculated;
        value           nonuniform List<scalar> 
64
(
39249.8
39249.8
39249.8
39249.8
39249.8
39249.8
39249.8
39249.8
39249.8
39249.8
39249.8
39249.8
39249.8
39249.8
39249.8
39249.8
39249.8
39249.8
39249.8
39249.8
39249.8
39249.8
39249.8
39249.8
39249.8
39249.8
39249.8
39249.8
39249.8
39249.8
39249.8
39249.8
39249.8
39249.8
39249.8
39249.8
39249.8
39249.7
39249.8
39249.8
39249.8
39249.8
39249.8
39249.8
39249.8
39249.8
39249.8
39249.8
39249.8
39249.8
39249.8
39249.8
39249.8
39249.8
39249.8
39249.8
39249.8
39249.8
39249.8
39249.8
39249.8
39249.8
39249.8
39249.9
)
;
    }
    lateral_surface_1
    {
        type            calculated;
        value           nonuniform List<scalar> 
40
(
5.00572
5.00582
5.00618
5.0063
5.0059
5.0064
5.00731
5.00544
4914.92
4914.92
4914.93
4914.9
4914.89
4914.86
4914.91
4914.91
14724.8
14724.8
14724.8
14724.8
14724.8
14724.8
14724.8
14724.8
24534.8
24534.8
24534.8
24534.8
24534.8
24534.8
24534.8
24534.8
34344.8
34344.7
34344.8
34344.8
34344.8
34344.8
34344.8
34344.9
)
;
    }
    lateral_surface_2
    {
        type            calculated;
        value           nonuniform List<scalar> 
40
(
5.00533
5.00497
5.00548
5.00467
5.005
5.00477
5.00872
5.00649
4914.87
4914.91
4914.9
4914.9
4914.91
4914.93
4914.92
4914.91
14724.8
14724.8
14724.8
14724.8
14724.8
14724.8
14724.8
14724.8
24534.8
24534.8
24534.8
24534.8
24534.8
24534.8
24534.8
24534.8
34344.8
34344.8
34344.8
34344.8
34344.8
34344.8
34344.8
34344.8
)
;
    }
    lateral_surface_3
    {
        type            calculated;
        value           nonuniform List<scalar> 
40
(
5.00731
5.00769
5.01225
5.00556
5.0063
5.00687
5.00564
5.00533
4914.91
4914.89
4914.97
4914.84
4914.84
4914.9
4914.89
4914.87
14724.8
14724.8
14724.8
14724.8
14724.8
14724.8
14724.8
14724.8
24534.8
24534.8
24534.8
24534.8
24534.8
24534.8
24534.8
24534.8
34344.8
34344.8
34344.8
34344.8
34344.8
34344.8
34344.8
34344.8
)
;
    }
    lateral_surface_4
    {
        type            calculated;
        value           nonuniform List<scalar> 
40
(
5.00649
5.00608
5.0063
5.00618
5.00625
5.00566
5.00562
5.00544
4914.91
4914.91
4914.92
4914.91
4914.93
4914.91
4914.9
4914.91
14724.8
14724.8
14724.8
14724.8
14724.8
14724.8
14724.8
14724.8
24534.8
24534.8
24534.8
24534.8
24534.8
24534.8
24534.8
24534.8
34344.8
34344.8
34344.8
34344.8
34344.8
34344.8
34344.8
34344.9
)
;
    }
}


// ************************************************************************* //
