/*--------------------------------*- C++ -*----------------------------------*\
| =========                 |                                                 |
| \\      /  F ield         | OpenFOAM: The Open Source CFD Toolbox           |
|  \\    /   O peration     | Version:  v1612+                                |
|   \\  /    A nd           | Web:      www.OpenFOAM.com                      |
|    \\/     M anipulation  |                                                 |
\*---------------------------------------------------------------------------*/
FoamFile
{
    version     2.0;
    format      ascii;
    class       volVectorField;
    location    "9.2";
    object      U;
}
// * * * * * * * * * * * * * * * * * * * * * * * * * * * * * * * * * * * * * //

dimensions      [0 1 -1 0 0 0 0];

internalField   nonuniform List<vector> 
320
(
(1.19633e-05 -1.46166e-05 2.57014e-05)
(-7.22115e-06 -9.0793e-06 8.18435e-06)
(-1.53553e-05 -7.47385e-06 -5.73904e-06)
(4.1288e-06 2.13743e-05 1.39206e-05)
(0.000575643 3.37581e-05 -0.000122155)
(0.000448329 -0.000114208 -8.31194e-05)
(0.000863515 0.000111361 -2.61144e-05)
(0.000765778 0.000226727 -4.64763e-05)
(0.000860239 6.80365e-05 -1.55556e-05)
(0.000331866 0.000370738 -2.84123e-05)
(0.00029888 0.000451994 -4.81571e-05)
(0.00043729 0.000204464 -0.000132455)
(-0.000226822 0.000455951 -0.000257782)
(-0.000151465 -0.000206065 -0.000131384)
(-0.000168614 0.000210587 0.000104063)
(6.71416e-05 0.000175736 -6.45107e-05)
(2.31572e-05 -2.16249e-06 4.40235e-05)
(2.30802e-05 -1.5732e-05 4.68831e-05)
(6.34325e-05 -1.05275e-06 6.3833e-06)
(3.12559e-05 -2.13179e-06 -1.6032e-05)
(4.81166e-05 -1.02752e-05 2.39482e-05)
(1.69448e-05 4.24745e-05 3.44118e-05)
(-1.14203e-05 3.16686e-05 4.43496e-05)
(-5.37156e-07 -1.46143e-05 1.94828e-05)
(-5.47651e-05 4.53499e-05 6.66194e-05)
(-4.0917e-05 -5.88704e-05 3.81997e-05)
(-4.91613e-05 5.6193e-06 -8.93865e-05)
(-1.53206e-05 2.37253e-05 2.45461e-05)
(-9.38846e-06 1.44739e-07 2.34013e-05)
(-1.12035e-05 5.35807e-06 3.75173e-05)
(-3.48515e-05 -1.32399e-06 3.96794e-06)
(-1.80066e-05 7.15703e-07 -1.92984e-05)
(-2.75277e-05 5.68041e-06 1.36048e-05)
(-8.88548e-06 -2.35824e-05 1.77075e-05)
(5.93341e-06 -1.89236e-05 2.19387e-05)
(3.55167e-08 8.27915e-06 4.76679e-06)
(2.83016e-05 -2.23004e-05 3.97322e-05)
(2.10594e-05 3.33014e-05 2.36894e-05)
(2.46337e-05 -3.12653e-06 -5.24236e-05)
(8.17746e-06 -1.52234e-05 1.21562e-05)
(6.38369e-06 -8.39363e-06 9.68727e-06)
(-5.62894e-06 -5.3889e-06 -3.3795e-06)
(-8.39232e-06 -4.39662e-06 -1.02824e-06)
(2.32473e-06 1.14043e-05 -5.0802e-06)
(-4.15852e-06 1.29911e-08 8.7402e-06)
(-6.59494e-06 2.99493e-06 1.8133e-06)
(-1.87078e-05 -1.79055e-06 1.25286e-06)
(-1.00775e-05 5.25656e-07 3.29755e-06)
(-1.44255e-05 5.1449e-06 2.80788e-06)
(-5.06437e-06 -1.32272e-05 7.77946e-06)
(3.91258e-06 -1.0671e-05 8.8575e-06)
(-4.29798e-07 5.3166e-06 4.24278e-06)
(1.45734e-05 -1.35924e-05 9.54859e-06)
(1.16217e-05 1.82167e-05 3.58861e-06)
(1.32306e-05 -1.15553e-06 -1.39394e-05)
(5.31513e-06 -7.67414e-06 4.94345e-06)
(-0.000181302 0.000209139 -0.00012105)
(0.00063471 0.000287435 -9.38082e-05)
(0.000315262 7.44083e-05 4.4613e-05)
(0.000643448 0.000264485 -0.000132732)
(0.000523781 0.000471432 0.000479118)
(0.000465195 6.42516e-06 0.000583611)
(0.000495887 9.86857e-05 0.000556595)
(0.00039861 -0.000554968 0.000594711)
(0.000324897 -0.00063749 9.81338e-06)
(-0.000167321 -0.000105792 -0.000123572)
(-0.000231081 0.000113128 0.000479388)
(0.000523916 0.000134468 0.000489617)
(0.000466103 0.000151161 -3.61427e-05)
(-0.000158517 0.000304562 0.00029075)
(0.000510395 -8.69114e-05 0.000340818)
(0.000199537 0.000210393 0.00029584)
(0.000213933 0.000223289 0.000233572)
(0.000334934 0.000539785 5.60048e-05)
(0.000275465 1.897e-05 -0.00010252)
(0.000233108 0.000180402 0.000206433)
(-4.89508e-05 -1.56903e-05 3.57936e-06)
(2.21519e-05 2.27899e-06 4.28612e-05)
(1.21067e-05 -3.4495e-05 -8.13551e-06)
(2.13774e-05 -2.54148e-07 1.21104e-05)
(4.0418e-06 4.95816e-05 -9.59955e-05)
(2.61374e-05 -5.86228e-06 -0.000127806)
(-1.0962e-05 -1.03148e-06 -0.00011382)
(-1.32623e-05 -5.64431e-05 -0.00015134)
(5.18277e-06 -5.85897e-05 1.18354e-05)
(-4.14726e-05 -7.7502e-06 1.98485e-05)
(-4.2158e-05 1.53151e-05 -0.000120181)
(5.05608e-05 2.42897e-06 -0.000125129)
(1.81428e-05 -3.17173e-06 6.24758e-05)
(-4.7741e-05 1.17273e-05 -7.95462e-05)
(3.84698e-05 -5.54996e-05 -8.62014e-05)
(-2.59086e-05 -7.79422e-06 -0.000104308)
(4.98791e-06 1.99999e-05 -0.000102002)
(2.82302e-05 5.30946e-05 -2.43429e-05)
(5.82673e-06 -1.959e-06 1.54e-05)
(3.10528e-05 8.34042e-06 -8.3361e-05)
(2.71734e-05 6.90565e-06 3.33615e-06)
(-8.61798e-06 -2.68076e-06 2.05935e-05)
(-5.75194e-06 1.6093e-05 1.32146e-06)
(-1.2579e-05 1.91193e-06 4.57732e-06)
(7.70766e-07 -2.94949e-05 -4.63125e-05)
(-9.74539e-06 -5.85741e-08 -5.42327e-05)
(9.96374e-06 -1.75677e-06 -6.00968e-05)
(7.76643e-06 3.05048e-05 -7.24205e-05)
(-1.85689e-06 3.31588e-05 7.46363e-06)
(2.58947e-05 6.94102e-06 1.71495e-05)
(2.4558e-05 -7.05228e-06 -7.1372e-05)
(-2.77331e-05 -1.72772e-06 -6.37999e-05)
(-1.1976e-05 1.16814e-06 4.31187e-05)
(2.39194e-05 -4.42718e-06 -4.39404e-05)
(-2.22786e-05 3.17436e-05 -4.82474e-05)
(1.14741e-05 5.41565e-06 -5.85712e-05)
(-6.11858e-06 -1.11517e-05 -5.7076e-05)
(-1.93415e-05 -2.75017e-05 -1.56227e-05)
(-4.27264e-06 2.68683e-06 5.33763e-06)
(-1.53664e-05 -4.92175e-06 -5.77263e-05)
(1.57487e-05 4.94248e-06 -2.10229e-06)
(-4.28516e-06 1.39526e-07 8.68428e-06)
(-3.82527e-06 1.06496e-05 -6.59956e-06)
(-7.05751e-06 3.03467e-06 4.77089e-06)
(1.81403e-06 -1.49971e-05 -1.71148e-05)
(-5.70226e-06 -2.44917e-08 -2.43667e-05)
(6.16847e-06 -1.10659e-06 -1.86157e-05)
(5.42547e-06 1.64192e-05 -2.65831e-05)
(-1.88795e-06 1.67062e-05 2.1346e-06)
(1.35868e-05 3.26326e-06 -2.41721e-06)
(1.29534e-05 -4.33403e-06 -1.69748e-05)
(-1.62215e-05 -9.9904e-07 -2.16994e-05)
(-5.46993e-06 1.15313e-06 5.67457e-06)
(1.40376e-05 -3.53181e-06 -1.38584e-05)
(-1.25576e-05 1.70521e-05 -1.31945e-05)
(7.84565e-06 2.90261e-06 -1.60169e-05)
(-2.45863e-06 -5.74139e-06 -1.6521e-05)
(-1.01932e-05 -1.47011e-05 -6.44459e-06)
(-6.13805e-07 2.53213e-06 2.51412e-06)
(-8.66416e-06 -2.13532e-06 -1.11371e-05)
(8.20374e-07 -5.41718e-06 2.22622e-06)
(-7.24383e-07 -2.68007e-06 9.266e-07)
(-7.0931e-06 -2.18698e-06 -2.55185e-07)
(-4.20736e-08 8.3144e-06 2.21826e-06)
(-6.32561e-06 -5.0548e-07 3.00493e-06)
(-4.27017e-06 2.63612e-06 5.13862e-06)
(-8.76499e-06 1.63931e-07 3.24523e-07)
(-3.03885e-06 -1.18918e-06 -2.58673e-06)
(-6.20384e-06 5.62393e-07 1.94249e-06)
(-2.29149e-06 -5.02874e-06 1.50771e-06)
(2.02505e-06 -2.62136e-06 3.6448e-06)
(-5.97185e-08 9.44818e-07 -3.55706e-08)
(7.94508e-06 -5.41932e-06 4.25449e-06)
(5.19636e-06 9.1944e-06 3.80587e-06)
(8.20713e-06 -1.91259e-06 -4.31216e-06)
(2.65138e-06 -2.29001e-06 2.86676e-06)
(7.8551e-06 2.38289e-06 3.33227e-07)
(-4.10573e-06 -1.67515e-06 1.33679e-06)
(-1.39378e-06 3.17079e-06 3.25521e-07)
(-1.84381e-06 -1.54317e-06 -7.65551e-07)
(-1.40634e-06 -7.48821e-06 -4.7822e-06)
(-4.46369e-06 1.44108e-06 -4.89939e-06)
(-1.60198e-07 -1.18956e-07 -6.2654e-06)
(-5.93625e-08 9.06172e-06 -6.21751e-06)
(-9.94133e-07 8.58671e-06 7.08345e-07)
(4.61474e-06 1.13822e-06 1.64908e-06)
(5.00437e-06 -3.51647e-06 -6.8497e-06)
(-6.0158e-06 -9.52654e-07 -6.12549e-06)
(-4.29511e-06 -4.99124e-08 3.694e-06)
(4.9931e-06 -4.79238e-07 -4.84793e-06)
(-6.64819e-06 7.25692e-06 -5.27588e-06)
(2.55977e-06 1.14827e-06 -6.73257e-06)
(-2.82534e-06 -1.92511e-06 -6.63844e-06)
(-4.70373e-06 -7.96228e-06 -2.80866e-06)
(-3.11418e-06 -8.57591e-07 -3.11294e-07)
(-6.07884e-06 -2.11872e-06 -6.75271e-06)
(0.000373772 0.000304987 -9.94405e-05)
(-4.03621e-05 0.000145964 -0.00015409)
(0.000710807 0.000163464 -0.00026865)
(0.000472507 6.63394e-05 5.65532e-05)
(0.000469595 7.21341e-06 -5.44001e-06)
(0.00033639 0.000240708 0.000103537)
(-0.000601636 0.000191073 -0.000280273)
(-0.000657502 0.000390606 2.02333e-06)
(-0.000683331 8.52564e-05 2.39452e-05)
(-0.000577439 0.00016347 -8.89877e-06)
(-0.000620109 -9.95151e-05 -2.97188e-05)
(-0.000127393 -0.000193634 1.10161e-05)
(-0.000174341 4.13073e-05 -0.000129226)
(1.97396e-05 -0.000139619 8.43793e-05)
(0.000254981 -0.000333544 -0.000124716)
(9.19875e-05 -0.000562237 -0.00010673)
(0.000260549 -0.000655252 -0.000114223)
(0.000266343 -0.000303041 -0.000124319)
(7.96013e-06 -0.000457565 -6.14171e-05)
(0.000272047 -0.000467901 -0.000141663)
(0.000126037 -0.000222003 -0.00013972)
(0.000371352 0.00022968 -0.000135259)
(0.000441145 0.000160696 -0.000222977)
(0.000323108 -6.94316e-05 -0.000103884)
(0.000149391 0.000271735 -0.000119233)
(5.60835e-05 6.94028e-05 -5.70165e-05)
(0.000201865 0.000311083 -8.61805e-05)
(0.000186132 0.000289441 -0.000323552)
(4.31977e-05 3.98343e-05 1.33457e-05)
(-9.27031e-06 8.63992e-06 -5.77113e-06)
(4.19608e-05 1.60149e-07 3.73133e-05)
(2.56247e-05 -1.11761e-05 -6.55392e-05)
(-2.06185e-05 -1.33503e-05 -4.49039e-05)
(-2.79805e-05 3.08204e-05 1.75542e-05)
(-5.58676e-05 1.86662e-05 0.000108418)
(-6.80267e-05 5.38331e-05 2.52401e-05)
(-5.16182e-05 -1.60594e-05 -3.25548e-05)
(-7.82172e-05 -4.1509e-05 8.22094e-05)
(-9.20629e-05 5.86878e-06 9.22144e-05)
(-1.59494e-05 1.42678e-05 1.93458e-05)
(-1.92266e-05 2.65921e-05 3.93175e-05)
(1.83928e-05 8.47863e-06 -3.45861e-05)
(1.64637e-05 -2.91368e-05 3.96516e-05)
(6.7632e-06 -4.94582e-05 3.06558e-05)
(7.0571e-06 -7.80392e-05 5.45797e-05)
(-9.83012e-06 -5.96966e-06 1.06654e-05)
(-2.45433e-06 -5.00674e-05 1.47625e-05)
(2.12118e-05 -5.12397e-05 5.96756e-05)
(1.54702e-05 -3.28182e-05 7.3748e-05)
(3.38933e-05 -3.5406e-05 1.75111e-05)
(3.55651e-05 1.18758e-05 -4.18264e-06)
(5.35634e-05 -4.74023e-06 4.71232e-05)
(1.0834e-05 6.46541e-06 1.25842e-05)
(6.94436e-06 2.65406e-05 6.51697e-06)
(3.93266e-05 2.1679e-05 4.46989e-05)
(2.02925e-05 2.07962e-05 8.18461e-05)
(-2.35995e-05 -2.16252e-05 3.10945e-06)
(5.94204e-06 -4.27415e-06 -5.83184e-06)
(-1.85755e-05 -3.95785e-07 1.39693e-05)
(-1.57993e-05 5.68283e-06 -3.43117e-05)
(1.07227e-05 9.6495e-06 -3.72627e-05)
(2.18146e-05 -1.76246e-05 1.90714e-05)
(3.09354e-05 -1.13813e-05 6.30899e-05)
(3.71783e-05 -2.96327e-05 1.58026e-05)
(3.07977e-05 7.87103e-06 -1.80426e-05)
(4.51131e-05 1.82384e-05 4.26749e-05)
(5.07834e-05 -6.15362e-06 5.97247e-05)
(8.46594e-06 -5.47861e-06 5.29863e-06)
(1.21472e-05 -1.17212e-05 2.33847e-05)
(-1.01889e-05 -4.51076e-06 -2.67914e-05)
(-6.52917e-06 1.78245e-05 2.21987e-05)
(-2.27343e-07 2.79096e-05 1.63599e-05)
(-2.28386e-06 4.26065e-05 3.03085e-05)
(2.7384e-06 2.46088e-06 1.94481e-06)
(-2.27991e-06 2.78924e-05 4.07356e-06)
(-1.24139e-05 2.86588e-05 3.61094e-05)
(-9.00427e-06 1.80339e-05 3.8668e-05)
(-1.96294e-05 1.94757e-05 1.37632e-05)
(-2.12781e-05 -6.13879e-06 -7.07733e-06)
(-3.11911e-05 2.47604e-06 3.05601e-05)
(-7.65535e-06 -1.27726e-06 1.06484e-05)
(-4.96922e-06 -1.12475e-05 -4.26335e-06)
(-2.15903e-05 -1.24223e-05 2.54727e-05)
(-1.24757e-05 -1.25114e-05 3.35906e-05)
(-1.17966e-05 -1.22735e-05 4.54512e-06)
(3.04077e-06 -1.94087e-06 -7.39495e-07)
(-9.866e-06 4.34043e-07 8.70846e-06)
(-9.49097e-06 3.64021e-06 -1.13971e-05)
(6.93757e-06 6.0996e-06 -2.10743e-06)
(1.36265e-05 -1.03548e-05 -2.33969e-06)
(1.57536e-05 -5.71375e-06 1.71899e-05)
(2.03949e-05 -1.62931e-05 7.10365e-06)
(1.44568e-05 2.56326e-06 -4.17766e-06)
(2.29822e-05 1.16505e-05 1.33256e-05)
(2.72118e-05 -2.91035e-06 1.04216e-05)
(3.65547e-06 -5.06478e-06 6.79005e-06)
(5.44232e-06 -7.20688e-06 5.18732e-06)
(-6.81487e-06 -3.56156e-06 -1.0501e-06)
(-4.76185e-06 8.69529e-06 7.15393e-06)
(-8.02619e-07 1.47871e-05 4.25576e-06)
(-1.57388e-06 2.24493e-05 8.03184e-06)
(2.10309e-06 1.41483e-07 5.10139e-06)
(-1.32408e-06 1.48767e-05 5.2655e-06)
(-6.88486e-06 1.5502e-05 8.07732e-06)
(-4.73887e-06 9.20442e-06 1.41065e-05)
(-1.10366e-05 1.11974e-05 2.30476e-06)
(-1.05926e-05 -3.495e-06 6.16602e-07)
(-1.74327e-05 1.79851e-07 6.77993e-06)
(-4.67157e-06 6.89216e-07 -3.5396e-07)
(-2.04327e-06 -6.14439e-06 5.47381e-06)
(-1.3348e-05 -6.24094e-06 6.71077e-06)
(-6.14936e-06 -5.07483e-06 1.51344e-05)
(-8.04388e-06 -6.03784e-06 -5.53308e-07)
(2.20781e-06 -2.32612e-06 -2.92441e-07)
(-7.11353e-06 -3.90666e-07 6.63787e-07)
(-4.40218e-06 6.81695e-07 -2.56572e-06)
(1.89402e-06 2.61782e-06 -4.18165e-06)
(2.25907e-06 -3.05621e-06 2.58009e-06)
(1.11944e-05 -1.04772e-06 6.97779e-06)
(1.32029e-05 -8.26582e-06 2.43051e-06)
(1.04168e-05 1.41002e-06 -1.01861e-06)
(1.31718e-05 3.21491e-06 3.52081e-06)
(1.37505e-05 -2.71426e-07 7.22062e-06)
(3.83878e-06 -3.54557e-07 4.19075e-07)
(4.80958e-06 -3.73515e-06 2.39215e-06)
(-1.03461e-06 1.76105e-06 -2.82014e-06)
(-1.21286e-06 7.60521e-06 2.55441e-06)
(-2.00799e-07 7.58871e-06 6.40889e-07)
(-1.44146e-06 1.28102e-05 3.47835e-06)
(-5.3315e-07 3.01447e-06 8.528e-07)
(6.38337e-07 9.04834e-06 1.07332e-06)
(-3.36118e-06 7.3691e-06 2.92095e-06)
(-3.1136e-06 5.76123e-06 4.47548e-06)
(-4.7215e-06 5.44158e-06 1.22324e-06)
(-4.92891e-06 -1.59667e-06 -9.61034e-07)
(-7.4663e-06 1.93115e-06 3.16818e-06)
(-1.07265e-06 -2.20134e-06 5.08574e-07)
(-1.70543e-06 -3.66516e-06 -3.85272e-08)
(-3.88031e-06 -2.54698e-06 2.80716e-06)
(-2.13374e-06 -4.29128e-06 3.64473e-06)
(0.000344361 0.000320054 -0.000205575)
(0.000391193 0.000102377 -8.49766e-05)
(0.000469659 0.000161224 -0.00013136)
(0.000353847 -0.000116051 -0.000189557)
(-1.73042e-05 2.74891e-05 5.54748e-05)
(1.32191e-05 1.42926e-05 5.80446e-06)
(3.18416e-05 1.43679e-05 -6.79405e-06)
(-6.54143e-06 -4.21076e-05 1.33201e-05)
)
;

boundaryField
{
    top_fluid_surface
    {
        type            pressureInletOutletVelocity;
        value           nonuniform List<vector> 
64
(
(0 0 -0.000122155)
(0 0 -8.31194e-05)
(0.000863515 0.000111361 -2.61144e-05)
(0 0 -4.64763e-05)
(0 0 -1.55556e-05)
(0 0 -2.84123e-05)
(0 0 -4.81571e-05)
(0 0 -0.000132455)
(0 0 -0.000257782)
(0 0 -0.000131384)
(-0.000168614 0.000210587 0.000104063)
(0 0 -6.45107e-05)
(0 0 -0.00012105)
(0 0 -9.38082e-05)
(0.000315262 7.44083e-05 4.4613e-05)
(0 0 -0.000132732)
(0.000523781 0.000471432 0.000479118)
(0.000465195 6.42516e-06 0.000583611)
(0.000495887 9.86857e-05 0.000556595)
(0.00039861 -0.000554968 0.000594711)
(0.000324897 -0.00063749 9.81338e-06)
(0 0 -0.000123572)
(-0.000231081 0.000113128 0.000479388)
(0.000523916 0.000134468 0.000489617)
(0 0 -3.61427e-05)
(-0.000158517 0.000304562 0.00029075)
(0.000510395 -8.69114e-05 0.000340818)
(0.000199537 0.000210393 0.00029584)
(0.000213933 0.000223289 0.000233572)
(0.000334934 0.000539785 5.60048e-05)
(0 0 -0.00010252)
(0.000233108 0.000180402 0.000206433)
(0 0 -9.94405e-05)
(0 0 -0.00015409)
(0 0 -0.00026865)
(0.000472507 6.63394e-05 5.65532e-05)
(0 0 -5.44001e-06)
(0.00033639 0.000240708 0.000103537)
(0 0 -0.000280273)
(-0.000657502 0.000390606 2.02333e-06)
(0 0 2.39452e-05)
(-0.000577439 0.00016347 -8.89877e-06)
(-0.000620109 -9.95151e-05 -2.97188e-05)
(-0.000127393 -0.000193634 1.10161e-05)
(0 0 -0.000129226)
(1.97396e-05 -0.000139619 8.43793e-05)
(0 0 -0.000124716)
(0 0 -0.00010673)
(0 0 -0.000114223)
(0 0 -0.000124319)
(0 0 -6.14171e-05)
(0 0 -0.000141663)
(0 0 -0.00013972)
(0 0 -0.000135259)
(0 0 -0.000222977)
(0 0 -0.000103884)
(0 0 -0.000119233)
(0 0 -5.70165e-05)
(0 0 -8.61805e-05)
(0 0 -0.000323552)
(0 0 -0.000205575)
(0 0 -8.49766e-05)
(0 0 -0.00013136)
(0 0 -0.000189557)
)
;
    }
    bottom_fluid_surface
    {
        type            noSlip;
    }
    lateral_surface_1
    {
        type            noSlip;
    }
    lateral_surface_2
    {
        type            noSlip;
    }
    lateral_surface_3
    {
        type            noSlip;
    }
    lateral_surface_4
    {
        type            noSlip;
    }
}


// ************************************************************************* //
