/*--------------------------------*- C++ -*----------------------------------*\
| =========                 |                                                 |
| \\      /  F ield         | OpenFOAM: The Open Source CFD Toolbox           |
|  \\    /   O peration     | Version:  v1612+                                |
|   \\  /    A nd           | Web:      www.OpenFOAM.com                      |
|    \\/     M anipulation  |                                                 |
\*---------------------------------------------------------------------------*/
FoamFile
{
    version     2.0;
    format      ascii;
    class       volScalarField;
    location    "1.5";
    object      alpha.water;
}
// * * * * * * * * * * * * * * * * * * * * * * * * * * * * * * * * * * * * * //

dimensions      [0 0 0 0 0 0 0];

internalField   nonuniform List<scalar> 
320
(
1
1
1
1
3.67968e-06
3.43818e-06
3.50816e-06
3.00701e-06
3.11601e-06
4.41374e-06
2.64546e-06
3.62774e-06
5.48322e-06
3.29561e-06
4.5323e-06
3.73097e-06
0.999997
0.999996
0.999998
0.999998
0.999998
0.999996
0.999994
0.999998
0.999996
0.999999
0.999995
1
1
1
1
1
1
1
1
1
1
1
1
1
1
1
1
1
1
1
1
1
1
1
1
1
1
1
1
1
3.45501e-06
3.42064e-06
2.73352e-06
3.93333e-06
3.99529e-06
3.71488e-06
3.00948e-06
3.3593e-06
3.56206e-06
3.2877e-06
3.54024e-06
3.90028e-06
4.272e-06
4.22337e-06
3.92705e-06
4.35291e-06
3.46388e-06
2.97569e-06
3.43709e-06
3.60633e-06
1
0.999998
0.999996
0.999998
1
1
1
1
1
0.999994
0.999999
0.999998
0.999997
0.999996
0.999994
0.999997
0.999998
1
0.999999
0.999995
1
1
1
1
1
1
1
1
1
1
1
1
1
1
1
1
1
1
1
1
1
1
1
1
1
1
1
1
1
1
1
1
1
1
1
1
1
1
1
1
1
1
1
1
1
1
1
1
1
1
1
1
1
1
1
1
1
1
1
1
1
1
1
1
1
1
1
1
1
1
1
1
1
1
1
1
2.7286e-06
2.96494e-06
2.7149e-06
2.94704e-06
2.85239e-06
2.81515e-06
4.93491e-06
4.78742e-06
2.38751e-06
3.05536e-06
3.39055e-06
3.56508e-06
2.97428e-06
2.93065e-06
3.293e-06
2.20388e-06
2.91452e-06
4.89625e-06
3.33644e-06
3.35326e-06
4.91279e-06
3.40429e-06
2.43462e-06
2.54915e-06
3.25542e-06
4.36197e-06
5.0118e-06
2.84497e-06
0.999995
0.999997
0.999993
0.999997
0.999998
0.999996
0.999996
0.999994
0.999997
0.999993
0.99999
0.999996
1
0.999996
0.999991
0.999996
0.999996
0.999995
0.999996
0.999993
0.999993
0.999997
0.999996
0.999993
0.999992
0.999997
0.999994
0.999994
1
1
1
1
1
1
1
1
1
1
1
1
1
1
1
1
1
1
1
1
1
1
1
1
1
1
1
1
1
1
1
1
1
1
1
1
1
1
1
1
1
1
1
1
1
1
1
1
1
1
1
1
1
1
1
1
1
1
1
1
1
1
1
1
1
1
1
1
1
1
1
1
1
1
1
1
1
1
1
1
1
1
1
1
3.58873e-06
2.79578e-06
3.14818e-06
2.90024e-06
0.999997
0.999998
0.999997
0.999999
)
;

boundaryField
{
    top_fluid_surface
    {
        type            inletOutlet;
        inletValue      uniform 0;
        value           nonuniform List<scalar> 
64
(
0
0
0
3.00701e-06
3.11601e-06
0
2.64546e-06
3.62774e-06
0
0
0
3.73097e-06
3.45501e-06
3.42064e-06
2.73352e-06
3.93333e-06
0
0
3.00948e-06
3.3593e-06
0
0
3.54024e-06
0
0
0
0
0
3.46388e-06
2.97569e-06
0
0
2.7286e-06
2.96494e-06
2.7149e-06
2.94704e-06
2.85239e-06
2.81515e-06
0
0
2.38751e-06
3.05536e-06
0
0
2.97428e-06
2.93065e-06
0
2.20388e-06
2.91452e-06
0
3.33644e-06
3.35326e-06
0
0
2.43462e-06
2.54915e-06
3.25542e-06
0
0
2.84497e-06
0
2.79578e-06
3.14818e-06
2.90024e-06
)
;
    }
    bottom_fluid_surface
    {
        type            zeroGradient;
    }
    lateral_surface_1
    {
        type            zeroGradient;
    }
    lateral_surface_2
    {
        type            zeroGradient;
    }
    lateral_surface_3
    {
        type            zeroGradient;
    }
    lateral_surface_4
    {
        type            zeroGradient;
    }
}


// ************************************************************************* //
