/*--------------------------------*- C++ -*----------------------------------*\
| =========                 |                                                 |
| \\      /  F ield         | OpenFOAM: The Open Source CFD Toolbox           |
|  \\    /   O peration     | Version:  v1612+                                |
|   \\  /    A nd           | Web:      www.OpenFOAM.com                      |
|    \\/     M anipulation  |                                                 |
\*---------------------------------------------------------------------------*/
FoamFile
{
    version     2.0;
    format      ascii;
    class       volScalarField;
    location    "1.5";
    object      p_rgh;
}
// * * * * * * * * * * * * * * * * * * * * * * * * * * * * * * * * * * * * * //

dimensions      [1 -1 -2 0 0 0 0];

internalField   nonuniform List<scalar> 
320
(
-9800.21
-9800.21
-9800.21
-9800.21
-0.0016112
-0.000708246
-0.000992545
0.00231907
0.00206375
-0.00399182
0.00418057
-3.93058e-05
-0.00907423
0.000536755
-0.00515908
-0.00101218
-9800.12
-9800.12
-9800.14
-9800.18
-9800.17
-9800.1
-9800.15
-9800.17
-9800.09
-9800.15
-9800.09
-9800.19
-9800.21
-9800.21
-9800.2
-9800.21
-9800.21
-9800.2
-9800.21
-9800.21
-9800.2
-9800.2
-9800.21
-9800.2
-9800.2
-9800.21
-9800.21
-9800.21
-9800.2
-9800.2
-9800.2
-9800.21
-9800.21
-9800.21
-9800.21
-9800.21
-9800.21
-9800.21
-9800.21
-9800.21
0.000543394
-2.52743e-06
0.00293424
-0.00179162
-0.0036854
-0.00168485
0.00368078
0.000762853
-0.000716832
0.000575895
0.000107337
-0.00144147
-0.00287713
-0.00267826
-0.00193631
-0.00417658
0.000565934
0.00258208
-0.000691655
-0.000185686
-9800.19
-9800.17
-9800.17
-9800.17
-9800.15
-9800.16
-9800.2
-9800.2
-9800.15
-9800.1
-9800.18
-9800.13
-9800.12
-9800.11
-9800.09
-9800.11
-9800.17
-9800.19
-9800.14
-9800.1
-9800.2
-9800.21
-9800.21
-9800.21
-9800.2
-9800.2
-9800.2
-9800.2
-9800.2
-9800.21
-9800.21
-9800.2
-9800.2
-9800.2
-9800.21
-9800.21
-9800.21
-9800.21
-9800.2
-9800.21
-9800.21
-9800.21
-9800.21
-9800.2
-9800.2
-9800.2
-9800.2
-9800.21
-9800.2
-9800.21
-9800.21
-9800.2
-9800.2
-9800.21
-9800.21
-9800.21
-9800.22
-9800.21
-9800.21
-9800.22
-9800.21
-9800.21
-9800.21
-9800.21
-9800.21
-9800.21
-9800.2
-9800.21
-9800.21
-9800.21
-9800.21
-9800.21
-9800.21
-9800.21
-9800.21
-9800.21
-9800.21
-9800.21
-9800.21
-9800.2
-9800.2
-9800.2
-9800.2
-9800.21
-9800.21
-9800.21
-9800.21
-9800.21
-9800.21
-9800.21
-9800.21
-9800.21
-9800.21
-9800.21
-9800.21
-9800.22
0.00278346
0.00262136
0.0030256
0.00173769
0.0022571
0.0034243
-0.00706809
-0.00627302
0.00655905
0.00248623
-4.85405e-05
-0.000992791
0.0022452
0.00269539
0.000571719
0.00644614
0.00339373
-0.00585722
0.00118788
0.00176027
-0.0070564
0.000330029
0.00495842
0.00452858
0.000882387
-0.00431723
-0.008465
0.0019571
-9800.15
-9800.17
-9800.13
-9800.17
-9800.18
-9800.16
-9800.1
-9800.08
-9800.18
-9800.13
-9800.06
-9800.12
-9800.19
-9800.16
-9800.06
-9800.17
-9800.16
-9800.09
-9800.15
-9800.12
-9800.07
-9800.13
-9800.17
-9800.14
-9800.12
-9800.11
-9800.08
-9800.14
-9800.22
-9800.21
-9800.22
-9800.22
-9800.21
-9800.21
-9800.2
-9800.2
-9800.21
-9800.22
-9800.22
-9800.21
-9800.21
-9800.22
-9800.22
-9800.22
-9800.22
-9800.2
-9800.21
-9800.22
-9800.21
-9800.21
-9800.22
-9800.22
-9800.22
-9800.21
-9800.21
-9800.23
-9800.22
-9800.22
-9800.22
-9800.21
-9800.21
-9800.21
-9800.2
-9800.2
-9800.21
-9800.21
-9800.22
-9800.21
-9800.21
-9800.22
-9800.22
-9800.22
-9800.21
-9800.21
-9800.21
-9800.21
-9800.21
-9800.21
-9800.22
-9800.22
-9800.22
-9800.21
-9800.21
-9800.22
-9800.22
-9800.21
-9800.21
-9800.21
-9800.21
-9800.21
-9800.2
-9800.2
-9800.21
-9800.21
-9800.21
-9800.21
-9800.21
-9800.21
-9800.21
-9800.21
-9800.21
-9800.21
-9800.21
-9800.21
-9800.21
-9800.21
-9800.21
-9800.22
-9800.21
-9800.21
-9800.21
-9800.22
-0.00152857
0.00247624
0.00105472
0.00254611
-9800.12
-9800.18
-9800.17
-9800.19
)
;

boundaryField
{
    top_fluid_surface
    {
        type            totalPressure;
        rho             rho;
        psi             none;
        gamma           1;
        p0              uniform 0;
        value           nonuniform List<scalar> 
64
(
-1.41961e-09
-1.38734e-09
-4.51571e-10
0
0
-2.50934e-09
0
0
-1.53777e-08
0
-7.15741e-09
-9.31133e-11
0
0
0
-1.27141e-10
-1.73144e-09
-1.48509e-10
0
0
-3.81944e-10
0
0
-4.1737e-10
-1.12032e-09
-3.09934e-10
-1.74946e-09
-4.9328e-09
0
0
-6.05449e-13
0
0
0
0
0
0
0
-1.30049e-08
-1.08125e-08
0
0
-3.37604e-10
-1.05412e-09
0
0
-3.86554e-11
0
0
-7.0909e-09
0
0
-1.07227e-08
-5.54795e-10
0
0
0
-6.40343e-09
-1.69973e-08
0
-3.53789e-09
0
0
0
)
;
    }
    bottom_fluid_surface
    {
        type            fixedFluxPressure;
        gradient        uniform 0;
        value           nonuniform List<scalar> 
64
(
-9800.21
-9800.21
-9800.21
-9800.21
-9800.21
-9800.21
-9800.2
-9800.21
-9800.21
-9800.21
-9800.21
-9800.21
-9800.21
-9800.21
-9800.21
-9800.21
-9800.21
-9800.21
-9800.21
-9800.2
-9800.2
-9800.2
-9800.2
-9800.21
-9800.21
-9800.21
-9800.21
-9800.21
-9800.21
-9800.21
-9800.21
-9800.21
-9800.21
-9800.21
-9800.21
-9800.22
-9800.22
-9800.21
-9800.21
-9800.21
-9800.21
-9800.21
-9800.2
-9800.2
-9800.21
-9800.21
-9800.21
-9800.21
-9800.21
-9800.21
-9800.21
-9800.21
-9800.21
-9800.21
-9800.21
-9800.21
-9800.21
-9800.21
-9800.21
-9800.22
-9800.21
-9800.21
-9800.21
-9800.22
)
;
    }
    lateral_surface_1
    {
        type            fixedFluxPressure;
        gradient        uniform 0;
        value           nonuniform List<scalar> 
40
(
0.00278346
0.00262136
0.0030256
0.00173769
0.0022571
0.0034243
-0.00706809
0.0019571
-9800.15
-9800.17
-9800.13
-9800.17
-9800.18
-9800.16
-9800.1
-9800.14
-9800.22
-9800.21
-9800.22
-9800.22
-9800.21
-9800.21
-9800.2
-9800.23
-9800.22
-9800.22
-9800.22
-9800.21
-9800.21
-9800.21
-9800.2
-9800.22
-9800.22
-9800.21
-9800.21
-9800.21
-9800.21
-9800.21
-9800.2
-9800.22
)
;
    }
    lateral_surface_2
    {
        type            fixedFluxPressure;
        gradient        uniform 0;
        value           nonuniform List<scalar> 
40
(
0.00269539
0.000571719
0.00644614
0.00339373
-0.00585722
0.00118788
0.00176027
-0.0070564
-9800.16
-9800.06
-9800.17
-9800.16
-9800.09
-9800.15
-9800.12
-9800.07
-9800.22
-9800.22
-9800.22
-9800.22
-9800.2
-9800.21
-9800.22
-9800.21
-9800.22
-9800.22
-9800.22
-9800.21
-9800.21
-9800.21
-9800.21
-9800.21
-9800.21
-9800.21
-9800.21
-9800.21
-9800.21
-9800.21
-9800.21
-9800.21
)
;
    }
    lateral_surface_3
    {
        type            fixedFluxPressure;
        gradient        uniform 0;
        value           nonuniform List<scalar> 
40
(
-0.00706809
-0.00627302
0.00655905
0.00248623
-4.85405e-05
-0.000992791
0.0022452
0.00269539
-9800.1
-9800.08
-9800.18
-9800.13
-9800.06
-9800.12
-9800.19
-9800.16
-9800.2
-9800.2
-9800.21
-9800.22
-9800.22
-9800.21
-9800.21
-9800.22
-9800.2
-9800.2
-9800.21
-9800.21
-9800.22
-9800.21
-9800.21
-9800.22
-9800.2
-9800.2
-9800.21
-9800.21
-9800.21
-9800.21
-9800.21
-9800.21
)
;
    }
    lateral_surface_4
    {
        type            fixedFluxPressure;
        gradient        uniform 0;
        value           nonuniform List<scalar> 
40
(
-0.0070564
0.000330029
0.00495842
0.00452858
0.000882387
-0.00431723
-0.008465
0.0019571
-9800.07
-9800.13
-9800.17
-9800.14
-9800.12
-9800.11
-9800.08
-9800.14
-9800.21
-9800.21
-9800.22
-9800.22
-9800.22
-9800.21
-9800.21
-9800.23
-9800.21
-9800.21
-9800.22
-9800.22
-9800.22
-9800.21
-9800.21
-9800.22
-9800.21
-9800.21
-9800.21
-9800.22
-9800.21
-9800.21
-9800.21
-9800.22
)
;
    }
}


// ************************************************************************* //
