/*--------------------------------*- C++ -*----------------------------------*\
| =========                 |                                                 |
| \\      /  F ield         | OpenFOAM: The Open Source CFD Toolbox           |
|  \\    /   O peration     | Version:  v1612+                                |
|   \\  /    A nd           | Web:      www.OpenFOAM.com                      |
|    \\/     M anipulation  |                                                 |
\*---------------------------------------------------------------------------*/
FoamFile
{
    version     2.0;
    format      ascii;
    class       surfaceScalarField;
    location    "1.5";
    object      phi;
}
// * * * * * * * * * * * * * * * * * * * * * * * * * * * * * * * * * * * * * //

dimensions      [0 3 -1 0 0 0 0];

internalField   nonuniform List<scalar> 
816
(
2.833e-07
1.58129e-06
1.10389e-06
1.529e-06
4.64251e-06
-9.13856e-06
9.47184e-07
5.24367e-07
1.64829e-06
3.3691e-06
-6.19569e-06
1.32701e-06
2.4381e-06
-9.54602e-07
1.05007e-06
-2.27075e-06
3.87623e-07
1.25304e-06
-8.1225e-07
1.47223e-06
7.85552e-05
-4.87642e-05
8.04238e-06
7.14675e-05
-2.12048e-05
6.08859e-05
1.57069e-05
6.56002e-05
5.6293e-06
5.38724e-05
1.11372e-05
-3.15332e-05
6.84015e-05
2.23525e-06
-9.82446e-06
1.98676e-05
-8.72348e-05
-4.45384e-05
-1.21212e-05
8.49956e-06
-6.07845e-05
-3.47941e-05
-4.86278e-06
4.5434e-05
9.8034e-05
-0.000210025
-6.08985e-06
-6.28275e-05
6.48307e-05
-0.000214317
-1.15463e-05
-5.85863e-05
5.05435e-05
0.000124753
-4.10556e-06
-6.03133e-06
2.421e-05
4.07055e-05
1.17254e-05
-5.80716e-07
7.3371e-05
8.85465e-05
9.11777e-06
3.22302e-05
0.000131828
-1.42576e-05
0.000122031
-6.66625e-05
-1.98713e-06
9.20955e-06
-8.81509e-07
5.07006e-06
-2.75126e-06
5.29351e-06
-3.67107e-07
6.09833e-06
3.11326e-06
4.92946e-06
2.81656e-06
7.46579e-07
6.64608e-06
1.18254e-06
-1.98756e-07
2.41601e-06
-8.19279e-06
-1.15175e-08
-3.89624e-06
-3.02731e-06
-3.30898e-06
9.0874e-07
-3.75813e-06
-3.0238e-06
1.09535e-06
-1.73176e-06
-9.33888e-07
-6.81241e-07
-9.26488e-07
-4.32296e-06
-2.74366e-06
2.67939e-07
-6.25811e-06
-1.92275e-06
-3.62862e-06
-1.30841e-07
-2.40539e-06
1.13067e-06
4.64324e-06
4.61925e-06
-6.25308e-07
7.34465e-06
1.01027e-06
5.3506e-06
-2.91335e-06
1.88404e-06
2.93978e-06
1.08284e-07
4.21942e-08
-1.07961e-07
-5.47728e-07
8.47251e-07
-6.08629e-07
-1.49589e-08
8.38964e-07
1.57659e-06
1.06867e-06
-5.53259e-07
1.19418e-07
2.01646e-06
-6.35601e-08
1.08575e-06
6.82123e-07
-1.92194e-06
-2.39584e-07
-3.63842e-08
-2.24921e-06
-7.86576e-07
-4.81629e-09
-2.15326e-07
-6.94097e-08
5.7502e-07
-3.22093e-07
-1.31544e-06
1.13625e-06
-1.33556e-06
-2.30315e-06
9.24429e-07
-1.23063e-06
-1.40185e-07
1.90477e-06
6.13358e-07
4.04811e-07
5.76707e-07
1.43062e-06
5.44678e-07
7.64582e-07
8.77203e-07
2.7171e-07
1.22679e-06
6.38566e-07
1.06081e-06
1.45472e-06
7.18757e-07
2.48353e-07
1.56914e-06
1.12493e-06
9.90768e-07
1.92686e-06
-6.9839e-07
8.32645e-08
3.36454e-07
8.4119e-07
-2.62094e-07
-9.48968e-09
8.47698e-08
1.45583e-07
-1.16013e-07
-6.21658e-08
3.98412e-07
-1.03734e-07
9.30235e-07
-4.90724e-07
3.26251e-07
2.53341e-07
1.38855e-06
8.60963e-07
1.93563e-07
7.42658e-07
-3.25759e-07
-6.15163e-07
-3.36629e-07
-4.36361e-07
-3.34132e-09
-7.27878e-07
-1.02708e-07
4.15564e-07
1.24943e-07
-2.08749e-07
1.047e-06
-3.18983e-07
-8.44136e-07
4.10966e-07
-1.63794e-06
-4.30443e-07
-1.53541e-07
-2.16166e-08
5.49798e-07
5.35326e-07
7.02238e-07
2.61134e-07
4.2734e-07
5.76315e-07
1.66993e-07
0.000109393
-0.000117409
-3.36422e-06
0.00011356
7.80013e-05
-6.28795e-06
9.30801e-05
-5.22639e-05
6.19233e-06
6.13387e-05
-0.000144647
1.10733e-05
7.21039e-05
4.23642e-05
1.99152e-06
4.37124e-05
-0.000144581
6.65155e-05
-5.72933e-06
9.52949e-05
-1.927e-05
-8.14648e-06
-1.38293e-05
-5.59676e-05
-2.45581e-06
1.04373e-05
2.91798e-06
8.38925e-06
2.03728e-05
-9.76418e-05
6.50482e-06
7.37708e-05
1.5645e-05
-0.000139216
-5.94332e-06
0.000122863
-0.000182168
5.98417e-07
3.72764e-05
-8.34816e-05
-6.71674e-06
-4.74417e-05
-4.71724e-05
-1.38484e-05
4.56753e-05
5.57178e-05
1.30602e-05
4.28352e-06
-2.18764e-05
0.000120077
8.95213e-06
0.000128485
5.52005e-05
-1.20524e-05
2.57475e-05
-2.03657e-05
-1.05579e-05
-1.11643e-05
3.91069e-05
-1.18309e-05
-9.27367e-05
-5.06937e-06
0.000107278
-0.000163922
-1.171e-06
-3.05007e-06
3.27536e-06
6.99319e-07
-1.858e-06
-1.8118e-07
-3.34604e-07
-3.65437e-07
1.72564e-06
4.49394e-06
-1.03188e-06
6.17544e-06
5.1402e-06
3.36805e-06
4.36849e-06
4.63398e-07
-2.91073e-06
1.87851e-06
1.37973e-06
3.08468e-06
-3.53231e-06
9.64526e-07
-1.89621e-06
-7.66405e-06
3.39745e-06
-5.20937e-06
-4.16641e-06
5.57586e-06
-4.06945e-06
4.1493e-06
-2.07579e-06
2.302e-06
-1.87455e-06
-1.04881e-07
4.38376e-07
-1.35535e-06
-2.06682e-06
2.66979e-07
1.86528e-06
-2.45423e-06
-3.9641e-06
-1.52409e-06
-7.49122e-06
-4.19774e-06
-4.17112e-06
3.76742e-06
4.96875e-06
4.13414e-08
-6.22362e-06
8.01164e-06
1.80799e-06
1.55456e-06
2.76323e-06
-1.17235e-06
-3.04476e-07
-2.75679e-07
2.60237e-06
-2.17349e-06
-1.86202e-06
-1.16947e-06
-7.4133e-06
-4.12767e-06
-2.51402e-06
-7.9401e-06
-8.74461e-07
2.02604e-06
1.33661e-06
1.55485e-06
-7.99821e-07
1.49297e-07
4.32193e-07
-8.0862e-07
1.60535e-06
9.7504e-07
8.06655e-07
3.10736e-06
9.28116e-07
-4.387e-07
1.54027e-06
2.24773e-06
1.83497e-06
1.02085e-07
9.31963e-08
8.59402e-07
-1.02536e-07
4.09018e-07
1.84824e-06
3.40466e-07
1.33072e-06
1.38227e-06
2.05684e-06
2.27896e-06
7.96086e-07
1.72668e-07
-9.27629e-07
-6.49219e-07
1.38493e-06
1.25774e-07
-2.1402e-07
7.00061e-07
1.86129e-07
-3.24298e-07
1.11019e-06
-1.23572e-06
-2.54204e-06
1.14075e-06
-2.55397e-06
-2.01812e-06
7.55642e-08
5.80825e-07
2.91372e-06
4.32757e-07
-1.49545e-06
7.43314e-07
9.79181e-07
-5.51483e-07
1.71542e-07
-6.59435e-07
6.78546e-07
1.21375e-06
1.33823e-06
1.65517e-06
1.42296e-06
-1.18837e-06
6.77837e-07
-1.83487e-06
3.04677e-07
8.46676e-07
-7.83564e-07
1.30622e-06
3.39284e-07
8.89338e-07
-5.56962e-07
2.64154e-07
-2.00619e-07
6.00594e-08
5.63348e-07
8.21385e-07
1.00853e-06
1.01609e-06
6.63104e-07
-8.503e-08
5.39966e-07
1.13365e-06
9.74581e-07
-1.586e-07
5.86126e-08
4.30317e-07
-1.54864e-07
2.74992e-07
9.82494e-07
1.44203e-07
3.0251e-07
3.99083e-07
9.73032e-07
7.64942e-07
2.45537e-07
4.55812e-07
-2.43506e-07
-5.623e-07
3.9556e-07
1.48179e-07
-1.20841e-07
2.1064e-07
-1.66013e-08
-2.13197e-07
4.72115e-07
-1.48426e-06
-7.66409e-07
7.47695e-07
-2.5066e-06
-4.64734e-07
-9.58507e-08
7.65777e-07
8.6822e-07
-1.10617e-07
-1.10757e-06
7.69216e-07
3.39055e-07
-9.94818e-07
1.7873e-07
-9.61502e-08
1.13258e-08
1.09856e-06
4.47723e-07
6.78139e-07
5.60027e-07
-3.66327e-07
2.7776e-07
-5.01364e-07
-4.41343e-08
5.69824e-07
1.22088e-07
6.90423e-07
2.25826e-07
4.27083e-07
3.85769e-07
1.73513e-07
6.97363e-07
4.59276e-07
7.79495e-07
-4.55976e-07
2.37464e-07
3.48905e-07
4.91867e-08
1.46831e-08
5.54472e-08
-6.37414e-09
1.33646e-07
3.68898e-07
-3.06028e-07
1.8445e-07
8.50884e-07
4.04303e-07
4.71121e-07
-1.58318e-09
-3.41081e-07
-1.43096e-07
2.24604e-07
-2.02755e-07
3.3327e-07
-2.7577e-07
5.36888e-07
-2.45682e-07
2.1678e-07
-6.73562e-07
-8.12493e-09
-1.36196e-07
3.50367e-07
3.34268e-07
2.93601e-07
2.39762e-07
-4.64968e-07
6.34989e-07
4.60791e-07
-2.30681e-07
9.21191e-08
3.13028e-08
4.39111e-07
4.61171e-07
2.72894e-07
-8.15153e-09
5.35848e-07
4.65105e-07
-5.15679e-09
2.30085e-07
1.07905e-07
5.59639e-07
1.33197e-07
2.71393e-07
5.65171e-07
1.88467e-07
1.34924e-07
-1.37841e-07
3.2479e-07
-5.97757e-08
2.95644e-07
-2.3016e-07
2.90873e-07
-8.52707e-07
3.93925e-07
-1.15346e-06
6.14222e-08
3.00974e-07
-3.10871e-08
-5.47756e-07
3.20125e-07
-3.46302e-07
1.27925e-07
-3.69358e-08
5.88925e-07
3.24228e-07
3.25276e-07
1.33558e-07
1.51834e-07
3.028e-07
5.33788e-05
-9.2886e-05
-4.38191e-06
5.73144e-05
-6.81419e-06
3.81528e-05
1.77953e-06
-5.05737e-06
-7.92741e-06
-0.000107154
-1.16448e-05
-0.000201382
-1.05403e-05
9.93231e-05
6.15486e-06
0.000233208
7.53592e-06
9.54924e-05
-1.07775e-05
-1.54408e-05
-6.76661e-06
1.63462e-05
7.28112e-06
9.3855e-05
1.06478e-05
6.98712e-05
-3.31819e-06
-4.73961e-05
-7.40916e-06
-3.586e-05
7.24248e-06
-0.000170782
-1.87857e-06
-0.000283812
-1.21196e-05
-9.20488e-05
-2.67587e-06
-8.27896e-05
1.33518e-06
-0.000113293
-1.73064e-07
0.000159065
6.5704e-06
0.000155227
1.83345e-05
7.18119e-05
-3.15686e-06
-8.26059e-05
-6.27638e-06
-0.000115855
-5.75938e-07
8.73838e-06
8.42585e-06
0.000160186
5.76787e-06
6.72729e-06
2.83757e-06
-7.57566e-06
-1.66246e-06
-9.02825e-07
-2.26172e-06
1.98147e-06
4.41226e-07
2.90826e-06
-1.23814e-06
-2.31902e-06
1.51559e-07
-6.82709e-06
-5.50738e-06
1.86227e-06
-2.93801e-06
6.69877e-06
-1.06327e-06
-1.15494e-06
-3.84226e-07
-6.97956e-06
-3.25041e-06
-4.92887e-07
-4.68999e-06
6.81249e-06
-5.91018e-07
3.14549e-06
3.03422e-06
-4.23169e-06
-3.25758e-07
3.31898e-06
-2.33473e-06
2.11991e-06
-1.81479e-06
-5.51392e-06
-2.46235e-06
-3.62397e-06
-5.38884e-06
-1.80403e-06
-1.17572e-06
-1.71792e-06
1.61669e-06
5.2541e-07
2.4574e-06
7.08133e-06
5.96105e-06
3.08258e-06
3.05606e-06
-2.19497e-06
-1.4907e-06
-3.22561e-06
-3.54784e-06
-1.52462e-06
-1.09582e-06
-6.10487e-07
-2.75988e-06
-1.36874e-06
-9.75074e-07
4.05115e-07
-7.93754e-07
-5.05264e-07
-1.19088e-06
-4.66855e-07
8.33425e-07
4.14913e-08
-7.7682e-07
1.15746e-06
-2.24118e-08
2.94842e-07
-2.38495e-06
-7.84353e-07
-1.86205e-06
1.25859e-07
-1.32134e-07
9.76787e-07
-3.77628e-07
7.57192e-07
-1.18682e-06
-8.30153e-07
-1.72115e-06
-4.77247e-07
-1.47903e-07
5.64314e-07
1.34453e-06
5.90429e-07
-3.50292e-07
1.81874e-07
-5.42501e-07
-3.19205e-08
-9.00865e-07
-3.20052e-07
-1.06452e-06
-1.31594e-06
-3.24874e-06
-1.80098e-06
-6.10387e-07
-1.3425e-06
1.59858e-06
-2.47552e-07
1.3628e-06
1.21495e-06
3.01064e-06
1.48397e-06
2.24086e-06
1.24774e-06
-5.73266e-07
5.128e-07
-1.1535e-06
8.86349e-07
-8.04991e-07
6.10908e-07
-1.64496e-06
-3.58352e-07
-5.43984e-07
5.73102e-08
-3.56394e-07
-4.87257e-07
-3.61918e-07
5.50375e-08
1.01639e-07
4.12504e-07
-3.06937e-07
9.66771e-07
8.37138e-08
4.6043e-07
-7.52252e-07
-8.91133e-07
-5.10927e-07
-2.08992e-08
-3.65222e-08
1.85479e-07
-1.63732e-07
3.45208e-07
-3.71596e-07
-3.68689e-07
-6.12653e-07
-1.46716e-07
-1.26994e-07
3.50935e-07
2.86855e-07
1.53806e-07
-1.49958e-07
2.99497e-07
-2.95776e-07
1.71089e-07
-5.66204e-07
-1.22229e-08
-4.05094e-07
-1.52098e-06
-9.73392e-07
-1.99529e-06
-2.28055e-07
-1.00514e-06
5.12177e-07
-2.04807e-07
5.65088e-07
7.47968e-07
9.52026e-07
1.45099e-06
5.44184e-07
9.95821e-07
-1.07993e-07
8.03283e-07
-2.81555e-07
5.3034e-07
-2.59105e-07
-7.69095e-08
-4.72084e-07
-3.80816e-07
-3.58468e-07
1.52175e-07
-2.56651e-07
-5.71586e-08
7.47511e-08
4.24868e-07
1.94483e-07
-3.20099e-07
9.89699e-08
1.62276e-07
3.47991e-07
5.31707e-09
6.69027e-08
2.12583e-07
6.31645e-08
9.20397e-08
-1.80988e-07
-2.94132e-07
-8.68464e-07
-1.035e-06
-5.50396e-07
1.76032e-08
4.2837e-07
6.30256e-07
4.87884e-07
5.29318e-07
4.0104e-07
2.30626e-07
0.000180693
2.14214e-05
2.56765e-05
3.23008e-06
7.57264e-06
0.000115273
9.04774e-06
-6.55265e-06
6.65325e-06
4.50104e-06
3.83985e-06
5.43773e-06
)
;

boundaryField
{
    top_fluid_surface
    {
        type            calculated;
        value           nonuniform List<scalar> 
64
(
-8.83424e-05
-6.83125e-05
-4.00023e-05
0.000127815
0.000111904
-0.000146998
0.000178965
2.54106e-05
-0.000353156
6.02229e-07
-0.000221171
-2.47743e-06
2.5033e-05
1.60705e-05
0.000131561
-1.5365e-05
-0.000117284
-4.74815e-05
0.000149752
3.67939e-05
-4.30886e-05
3.77641e-06
2.25727e-05
-5.67918e-05
-0.00010308
-7.32396e-05
-9.65393e-05
-0.000181078
5.09106e-05
0.000129354
-2.05345e-05
6.65607e-06
0.000123634
0.000116776
0.000110598
0.000102058
0.000158732
0.000159342
-0.000305102
-0.000276192
0.000263729
0.000100548
-3.01233e-05
-6.86218e-05
0.000100346
0.000125395
-2.74734e-06
0.000258461
0.000162143
-0.00023664
3.15731e-05
6.81489e-05
-0.00028107
-3.11412e-05
0.00020989
0.000189289
2.90837e-05
-0.000206619
-0.000351932
5.98671e-05
-0.000115322
8.82381e-05
2.08891e-05
0.000130546
)
;
    }
    bottom_fluid_surface
    {
        type            calculated;
        value           uniform 0;
    }
    lateral_surface_1
    {
        type            calculated;
        value           uniform 0;
    }
    lateral_surface_2
    {
        type            calculated;
        value           uniform 0;
    }
    lateral_surface_3
    {
        type            calculated;
        value           uniform 0;
    }
    lateral_surface_4
    {
        type            calculated;
        value           uniform 0;
    }
}


// ************************************************************************* //
