/*--------------------------------*- C++ -*----------------------------------*\
| =========                 |                                                 |
| \\      /  F ield         | OpenFOAM: The Open Source CFD Toolbox           |
|  \\    /   O peration     | Version:  v1612+                                |
|   \\  /    A nd           | Web:      www.OpenFOAM.com                      |
|    \\/     M anipulation  |                                                 |
\*---------------------------------------------------------------------------*/
FoamFile
{
    version     2.0;
    format      ascii;
    class       volScalarField;
    location    "2.55";
    object      alpha.water;
}
// * * * * * * * * * * * * * * * * * * * * * * * * * * * * * * * * * * * * * //

dimensions      [0 0 0 0 0 0 0];

internalField   nonuniform List<scalar> 
1116
(
0.971925
0.971925
0.971925
0.971925
0.971925
0.971925
0.971925
0.971925
0.971925
0.971925
0.971925
0.971925
0.971271
0.971271
0.971271
0.971271
0.97127
0.971271
0.971787
0.971786
0.971786
0.971786
0.971786
0.971786
0.972129
0.972129
0.972129
0.972129
0.972129
0.972129
0.972364
0.972364
0.972364
0.972364
0.972364
0.972364
0.972801
0.972797
0.972799
0.972799
0.972798
0.9728
0.973123
0.973119
0.973119
0.973119
0.973119
0.97312
0.973122
0.973121
0.973119
0.973117
0.973117
0.973118
0.973121
0.973117
0.973117
0.973116
0.973116
0.973117
0.972919
0.972911
0.972915
0.972915
0.972913
0.972916
0.954837
0.954837
0.954837
0.954838
0.954841
0.954833
0.809798
0.809793
0.809792
0.809796
0.809795
0.809793
0.540395
0.540387
0.540387
0.54039
0.540388
0.540388
0.527995
0.52799
0.527991
0.52799
0.527989
0.527992
0.567445
0.567442
0.567443
0.567441
0.567439
0.567442
0.600781
0.60078
0.600781
0.600778
0.600776
0.600777
0.59036
0.590359
0.590359
0.590356
0.590355
0.590354
0.540405
0.540407
0.540405
0.540403
0.540402
0.5404
0.439095
0.439096
0.439097
0.439094
0.439093
0.439092
0.261234
0.261228
0.261232
0.261231
0.261228
0.261232
0.302077
0.302066
0.302073
0.30207
0.302066
0.302073
0.679453
0.679428
0.679437
0.679435
0.679428
0.67944
0.944914
0.944909
0.944911
0.944911
0.944911
0.944905
0.0493941
0.0493921
0.0493909
0.0493931
0.0493936
0.0493908
3.96469e-07
3.96441e-07
3.96441e-07
3.96418e-07
3.96411e-07
3.96494e-07
8.22787e-08
8.22775e-08
8.22773e-08
8.22773e-08
8.22775e-08
8.22786e-08
5.80674e-08
5.8067e-08
5.80662e-08
5.80663e-08
5.80658e-08
5.80682e-08
1.05207e-08
1.05196e-08
1.05195e-08
1.05197e-08
1.05198e-08
1.05202e-08
2.43092e-11
2.40288e-11
2.40186e-11
2.41052e-11
2.41033e-11
2.36884e-11
3.91178e-12
3.89048e-12
3.89048e-12
3.89538e-12
3.87225e-12
3.84347e-12
2.95151e-11
2.95503e-11
2.95176e-11
2.95462e-11
2.95551e-11
2.95637e-11
-4.77348e-06
-4.77299e-06
-4.77343e-06
-4.77389e-06
-4.77431e-06
-4.77467e-06
0.00012369
0.000123653
0.000123678
0.000123708
0.00012373
0.000123765
0.0889768
0.0889556
0.0889603
0.0889604
0.0889578
0.0889637
0.792415
0.792418
0.792414
0.792409
0.792419
0.792394
1.17519e-07
1.17518e-07
1.17519e-07
1.17524e-07
1.17528e-07
1.17529e-07
8.22775e-08
8.22763e-08
8.2276e-08
8.2276e-08
8.22763e-08
8.22774e-08
8.11502e-08
8.11242e-08
8.11e-08
8.11739e-08
8.12673e-08
8.12324e-08
8.22788e-08
8.22776e-08
8.22773e-08
8.22773e-08
8.22775e-08
8.22787e-08
9.28157e-08
9.27246e-08
9.26965e-08
9.2722e-08
9.27222e-08
9.25615e-08
3.9118e-12
3.8905e-12
3.8905e-12
3.8954e-12
3.87228e-12
3.84349e-12
3.38519e-12
3.36372e-12
3.36428e-12
3.36863e-12
3.34519e-12
3.31735e-12
-8.59843e-12
-8.65224e-12
-8.64023e-12
-8.64059e-12
-8.64498e-12
-8.70322e-12
-9.87402e-07
-9.87242e-07
-9.87328e-07
-9.8743e-07
-9.8755e-07
-9.87603e-07
7.95988e-06
7.95738e-06
7.95879e-06
7.9612e-06
7.96337e-06
7.96436e-06
0.000325182
0.000325186
0.000325186
0.000325191
0.000325193
0.000325204
0.744598
0.744561
0.744564
0.744567
0.744566
0.744572
2.17899e-61
2.18314e-61
2.18291e-61
2.18307e-61
2.18392e-61
2.17974e-61
5.14643e-57
5.15462e-57
5.15372e-57
5.15406e-57
5.15627e-57
5.14723e-57
6.59963e-53
6.60426e-53
6.60132e-53
6.60111e-53
6.60407e-53
6.59373e-53
5.71606e-49
5.71298e-49
5.70849e-49
5.70805e-49
5.71176e-49
5.70621e-49
3.42649e-45
3.42158e-45
3.41868e-45
3.41932e-45
3.42353e-45
3.42408e-45
1.45409e-41
1.45461e-41
1.45502e-41
1.45735e-41
1.46395e-41
1.46088e-41
7.49973e-38
7.57866e-38
7.61597e-38
7.66815e-38
7.80858e-38
7.63584e-38
2.43551e-34
2.50118e-34
2.52681e-34
2.55078e-34
2.60731e-34
2.5058e-34
1.48339e-31
1.5505e-31
1.56669e-31
1.57154e-31
1.58768e-31
1.49004e-31
5.20261e-33
5.21758e-33
5.22048e-33
5.22478e-33
5.23596e-33
5.21991e-33
4.05852e-30
4.06651e-30
4.06738e-30
4.06967e-30
4.07493e-30
4.0756e-30
1.94531e-27
1.95009e-27
1.95033e-27
1.95049e-27
1.95122e-27
1.9488e-27
3.0397e-58
3.0455e-58
3.04517e-58
3.04531e-58
3.04642e-58
3.04045e-58
7.22347e-54
7.23622e-54
7.23515e-54
7.2354e-54
7.23811e-54
7.22473e-54
8.99895e-50
9.01098e-50
9.00837e-50
9.00801e-50
9.01129e-50
8.99565e-50
7.31368e-46
7.31929e-46
7.31594e-46
7.31531e-46
7.31854e-46
7.30825e-46
3.96567e-42
3.96749e-42
3.9657e-42
3.96587e-42
3.96875e-42
3.96554e-42
2.07023e-38
2.07445e-38
2.07506e-38
2.0797e-38
2.09885e-38
2.0692e-38
2.19367e-34
2.21305e-34
2.22009e-34
2.23429e-34
2.28293e-34
2.20165e-34
8.38986e-31
8.53223e-31
8.57913e-31
8.63959e-31
8.82698e-31
8.43267e-31
6.43291e-28
6.58705e-28
6.61116e-28
6.62422e-28
6.71011e-28
6.31457e-28
9.0099e-30
9.02663e-30
9.02803e-30
9.03646e-30
9.06848e-30
9.00694e-30
6.02985e-27
6.03954e-27
6.04005e-27
6.04255e-27
6.0493e-27
6.04962e-27
1.862e-24
1.86594e-24
1.86596e-24
1.86592e-24
1.86639e-24
1.8639e-24
1.6656e-55
1.66881e-55
1.66864e-55
1.66871e-55
1.6693e-55
1.66598e-55
3.95088e-51
3.95823e-51
3.95778e-51
3.95793e-51
3.95934e-51
3.95181e-51
4.71896e-47
4.72677e-47
4.72592e-47
4.72589e-47
4.72748e-47
4.71881e-47
3.56316e-43
3.56814e-43
3.56724e-43
3.5671e-43
3.56838e-43
3.56245e-43
1.77862e-39
1.78092e-39
1.7805e-39
1.78054e-39
1.78144e-39
1.77887e-39
2.46625e-35
2.47255e-35
2.47215e-35
2.48129e-35
2.52537e-35
2.44066e-35
4.29761e-31
4.321e-31
4.32566e-31
4.3493e-31
4.44686e-31
4.25775e-31
1.67825e-27
1.69196e-27
1.69465e-27
1.70396e-27
1.74071e-27
1.6595e-27
1.53556e-24
1.54879e-24
1.54845e-24
1.55328e-24
1.58079e-24
1.49771e-24
1.55188e-22
1.56003e-22
1.54204e-22
1.52237e-22
1.5153e-22
1.4067e-22
6.58057e-24
6.59484e-24
6.58851e-24
6.58274e-24
6.58779e-24
6.5351e-24
8.59479e-22
8.61047e-22
8.6097e-22
8.60836e-22
8.60875e-22
8.59544e-22
4.34065e-53
4.34906e-53
4.34863e-53
4.3488e-53
4.35031e-53
4.34151e-53
1.01488e-48
1.01682e-48
1.01672e-48
1.01676e-48
1.01711e-48
1.01513e-48
1.14108e-44
1.14315e-44
1.14301e-44
1.14302e-44
1.14338e-44
1.14121e-44
7.81453e-41
7.82779e-41
7.82657e-41
7.82644e-41
7.82878e-41
7.81446e-41
3.53529e-37
3.54092e-37
3.5401e-37
3.54038e-37
3.54369e-37
3.53247e-37
2.86808e-32
2.87372e-32
2.8713e-32
2.88359e-32
2.94576e-32
2.81641e-32
4.54778e-28
4.56099e-28
4.55926e-28
4.58154e-28
4.68366e-28
4.47037e-28
1.52742e-24
1.53285e-24
1.53219e-24
1.53983e-24
1.57341e-24
1.49903e-24
1.45624e-21
1.4609e-21
1.45884e-21
1.4652e-21
1.49515e-21
1.4215e-21
4.45693e-19
4.45985e-19
4.43875e-19
4.43464e-19
4.48247e-19
4.27846e-19
4.519e-21
4.52845e-21
4.51952e-21
4.52008e-21
4.55664e-21
4.4315e-21
8.5954e-22
8.604e-22
8.61021e-22
8.60895e-22
8.60341e-22
8.59614e-22
1.08835e-06
1.08842e-06
1.08861e-06
1.08884e-06
1.08888e-06
1.08868e-06
8.63643e-07
8.63614e-07
8.63844e-07
8.64114e-07
8.64181e-07
8.64103e-07
-1.20327e-14
-1.31799e-14
-1.35285e-14
-1.32277e-14
-1.31496e-14
-1.34637e-14
1.29005e-05
1.28991e-05
1.28992e-05
1.28981e-05
1.28976e-05
1.29016e-05
1.28029e-05
1.28034e-05
1.28036e-05
1.28041e-05
1.28043e-05
1.28027e-05
-7.208e-14
-7.8948e-14
-8.10408e-14
-7.92379e-14
-7.87701e-14
-8.06585e-14
7.90482e-08
7.89846e-08
7.89748e-08
7.90992e-08
7.92064e-08
7.91891e-08
7.55411e-08
7.5521e-08
7.54726e-08
7.56499e-08
7.58512e-08
7.56845e-08
-4.48302e-13
-4.91032e-13
-5.04036e-13
-4.92823e-13
-4.89921e-13
-5.0163e-13
5.26119e-07
5.26189e-07
5.26164e-07
5.26165e-07
5.26125e-07
5.26266e-07
3.14873e-07
3.1461e-07
3.14666e-07
3.14335e-07
3.14119e-07
3.15057e-07
-3.7314e-13
-4.08683e-13
-4.19491e-13
-4.10149e-13
-4.07731e-13
-4.17453e-13
5.87758e-07
5.87758e-07
5.87757e-07
5.87755e-07
5.87753e-07
5.8775e-07
4.39228e-07
4.39189e-07
4.39178e-07
4.39167e-07
4.39149e-07
4.39105e-07
-3.91916e-15
-4.30281e-15
-4.42955e-15
-4.32738e-15
-4.2961e-15
-4.26659e-15
1.17928e-09
1.16504e-09
1.16461e-09
1.16891e-09
1.16878e-09
1.14812e-09
3.0181e-09
3.01859e-09
3.01837e-09
3.01741e-09
3.01514e-09
3.01462e-09
7.14144e-22
7.16101e-22
7.16367e-22
7.16179e-22
7.17769e-22
7.20401e-22
3.71846e-13
3.72119e-13
3.71956e-13
3.72012e-13
3.71422e-13
3.72105e-13
1.18141e-14
1.18103e-14
1.18119e-14
1.18154e-14
1.18268e-14
1.18042e-14
8.83141e-18
8.83281e-18
8.83246e-18
8.83268e-18
8.83426e-18
8.83287e-18
-1.0596e-12
-1.06624e-12
-1.06384e-12
-1.06517e-12
-1.06683e-12
-1.07297e-12
5.52561e-13
5.53053e-13
5.52667e-13
5.52804e-13
5.5152e-13
5.53103e-13
-7.76257e-17
-7.71527e-17
-7.71805e-17
-7.73474e-17
-7.73724e-17
-7.63507e-17
-1.05386e-08
-1.05379e-08
-1.05396e-08
-1.0537e-08
-1.05357e-08
-1.05442e-08
-2.19136e-12
-2.18505e-12
-2.18582e-12
-2.18737e-12
-2.18811e-12
-2.1959e-12
-3.3728e-11
-3.37282e-11
-3.37278e-11
-3.37131e-11
-3.37017e-11
-3.37275e-11
2.07801e-07
2.07801e-07
2.07848e-07
2.07881e-07
2.07951e-07
2.07753e-07
-3.65186e-08
-3.65512e-08
-3.65552e-08
-3.66183e-08
-3.65869e-08
-3.66437e-08
-3.21609e-09
-3.22599e-09
-3.22008e-09
-3.22957e-09
-3.23765e-09
-3.21607e-09
3.25039e-05
3.25041e-05
3.25035e-05
3.25009e-05
3.25006e-05
3.25037e-05
2.45457e-06
2.4536e-06
2.45409e-06
2.45327e-06
2.45322e-06
2.45357e-06
1.36573e-07
1.36707e-07
1.36706e-07
1.36689e-07
1.36654e-07
1.36508e-07
0.415098
0.415058
0.415096
0.415039
0.414812
0.415379
0.0122656
0.0122589
0.0122767
0.0122614
0.0121607
0.0124046
5.75795e-06
5.75981e-06
5.75891e-06
5.75846e-06
5.75761e-06
5.75917e-06
4.35983e-12
4.35907e-12
4.35918e-12
4.10916e-12
3.94863e-12
3.92842e-12
1.53696e-11
1.54265e-11
1.53017e-11
1.54794e-11
1.64271e-11
1.40241e-11
8.31508e-11
8.35468e-11
8.28472e-11
8.426e-11
8.96895e-11
7.73673e-11
-1.13929e-12
-8.54465e-13
-3.55291e-12
-2.14472e-12
-7.36343e-12
-3.26611e-11
8.35981e-11
8.40559e-11
8.23127e-11
8.41871e-11
9.01673e-11
6.56312e-11
1.13037e-05
1.13306e-05
1.13116e-05
1.13845e-05
1.14879e-05
1.12105e-05
6.54269e-08
6.51803e-08
6.44516e-08
6.52116e-08
7.08416e-08
5.93014e-08
1.73335e-05
1.72934e-05
1.73584e-05
1.75465e-05
1.61879e-05
1.67805e-05
0.0153293
0.0153375
0.0153379
0.0153543
0.0153478
0.0153433
0.000180945
0.000181572
0.000181776
0.000183922
0.000196466
0.000175883
0.0660128
0.066036
0.0661678
0.0664363
0.0659517
0.0669213
0.0487349
0.048771
0.0487701
0.0488213
0.048775
0.0488401
0.150547
0.150523
0.150443
0.150681
0.151321
0.149617
0.152185
0.152157
0.152087
0.152316
0.152858
0.151713
0.00239752
0.00240473
0.00239773
0.00240086
0.00242365
0.00236737
0.410817
0.410797
0.410814
0.410785
0.410795
0.411085
0.10437
0.104471
0.104284
0.103944
0.104494
0.103104
-1.88967e-10
-1.92003e-10
-1.89725e-10
-1.90106e-10
-1.92898e-10
-1.83214e-10
4.65705e-51
4.66607e-51
4.66562e-51
4.66579e-51
4.66738e-51
4.65785e-51
8.0247e-53
8.04114e-53
8.04102e-53
8.04134e-53
8.04359e-53
8.02654e-53
3.20896e-56
3.21589e-56
3.2158e-56
3.21594e-56
3.21691e-56
3.20981e-56
1.05355e-46
1.05558e-46
1.05548e-46
1.05553e-46
1.05588e-46
1.05381e-46
3.66848e-48
3.67582e-48
3.67581e-48
3.67594e-48
3.67689e-48
3.66952e-48
1.6862e-51
1.68974e-51
1.6897e-51
1.68976e-51
1.69022e-51
1.68665e-51
1.0877e-42
1.08974e-42
1.08962e-42
1.08964e-42
1.08998e-42
1.08787e-42
7.90019e-44
7.91521e-44
7.91513e-44
7.91525e-44
7.91697e-44
7.90179e-44
4.53853e-47
4.54763e-47
4.54753e-47
4.54761e-47
4.54869e-47
4.53945e-47
6.5544e-39
6.56618e-39
6.56537e-39
6.56529e-39
6.56711e-39
6.55464e-39
1.01259e-39
1.01442e-39
1.0144e-39
1.0144e-39
1.01458e-39
1.01273e-39
8.00716e-43
8.02239e-43
8.02221e-43
8.02227e-43
8.02393e-43
8.00853e-43
5.27714e-35
5.28371e-35
5.27604e-35
5.28507e-35
5.34549e-35
5.19848e-35
5.66025e-32
5.66566e-32
5.65225e-32
5.67255e-32
5.79387e-32
5.50823e-32
8.91606e-29
8.92559e-29
8.90648e-29
8.94162e-29
9.13428e-29
8.68658e-29
2.76147e-29
2.76558e-29
2.7619e-29
2.77377e-29
2.8347e-29
2.70184e-29
1.94833e-26
1.95106e-26
1.94808e-26
1.9568e-26
1.99984e-26
1.90399e-26
1.00867e-23
1.01007e-23
1.00841e-23
1.01316e-23
1.0354e-23
9.85332e-24
3.14366e-25
3.1489e-25
3.14493e-25
3.15938e-25
3.22894e-25
3.07656e-25
1.40135e-22
1.40338e-22
1.40118e-22
1.40786e-22
1.43871e-22
1.36956e-22
3.75178e-20
3.75723e-20
3.75066e-20
3.76965e-20
3.8513e-20
3.66627e-20
7.64201e-22
7.65555e-22
7.64455e-22
7.6815e-22
7.84888e-22
7.47352e-22
2.1066e-19
2.10971e-19
2.10594e-19
2.1167e-19
2.16231e-19
2.05868e-19
2.42015e-17
2.424e-17
2.41909e-17
2.43259e-17
2.48288e-17
2.3679e-17
5.40206e-19
5.411e-19
5.40095e-19
5.42811e-19
5.54346e-19
5.27725e-19
7.69213e-17
7.70431e-17
7.68793e-17
7.73124e-17
7.88995e-17
7.52475e-17
1.66507e-17
1.66471e-17
1.665e-17
1.66392e-17
1.66253e-17
1.66584e-17
2.69489e-16
2.69691e-16
2.6944e-16
2.7007e-16
2.73362e-16
2.65399e-16
3.25352e-14
3.25118e-14
3.25885e-14
3.24666e-14
3.20447e-14
3.29756e-14
1.63606e-17
1.63584e-17
1.63606e-17
1.63524e-17
1.63465e-17
1.63631e-17
1.03886e-13
1.03901e-13
1.0366e-13
1.04239e-13
1.05743e-13
1.01674e-13
1.57933e-11
1.5783e-11
1.57869e-11
1.58082e-11
1.57149e-11
1.58173e-11
1.49601e-17
1.49581e-17
1.49593e-17
1.49534e-17
1.49472e-17
1.4959e-17
4.14263e-12
4.17431e-12
4.11086e-12
4.23867e-12
4.69299e-12
3.70606e-12
5.45484e-09
5.48174e-09
5.43442e-09
5.53038e-09
5.8649e-09
5.09964e-09
1.18898e-17
1.18828e-17
1.18863e-17
1.18397e-17
1.18561e-17
1.18736e-17
)
;

boundaryField
{
    seabed_topleft_surface
    {
        type            zeroGradient;
    }
    seabed_topright_surface
    {
        type            zeroGradient;
    }
    breakwater_top_surface
    {
        type            zeroGradient;
    }
    breakwater_left_surface
    {
        type            zeroGradient;
    }
    breakwater_right_surface
    {
        type            zeroGradient;
    }
    water_front_surface
    {
        type            zeroGradient;
    }
    water_back_surface
    {
        type            zeroGradient;
    }
    water_left_surface
    {
        type            zeroGradient;
    }
    water_right_surface
    {
        type            zeroGradient;
    }
    water_top_surface
    {
        type            inletOutlet;
        inletValue      uniform 0;
        value           nonuniform List<scalar> 
180
(
0
0
0
0
0
0
0
0
0
0
0
0
0
0
0
0
0
0
0
0
0
0
0
0
0
0
0
0
0
0
0
0
0
0
0
0
0
0
0
0
0
0
0
0
0
0
0
0
0
0
0
0
0
0
-3.21609e-09
-3.22599e-09
-3.22008e-09
-3.22957e-09
-3.23765e-09
-3.21607e-09
1.36573e-07
1.36707e-07
1.36706e-07
1.36689e-07
1.36654e-07
1.36508e-07
5.75795e-06
5.75981e-06
5.75891e-06
5.75846e-06
5.75761e-06
5.75917e-06
8.31508e-11
8.35468e-11
8.28472e-11
8.426e-11
8.96895e-11
7.73673e-11
1.13037e-05
1.13306e-05
1.13116e-05
1.13845e-05
1.14879e-05
1.12105e-05
0.0153293
0.0153375
0.0153379
0.0153543
0.0153478
0.0153433
0.0487349
0.048771
0.0487701
0.0488213
0.048775
0.0488401
0.00239752
0.00240473
0.00239773
0.00240086
0.00242365
0.00236737
0
0
0
0
0
0
0
0
0
0
0
0
0
0
0
0
0
0
0
0
0
0
0
0
0
0
0
0
0
0
0
0
0
0
0
0
0
0
0
0
0
0
0
0
0
0
0
0
0
0
0
0
0
0
0
0
0
0
0
0
0
0
0
0
0
0
0
0
0
0
0
0
0
0
0
0
0
0
)
;
    }
}


// ************************************************************************* //
