/*--------------------------------*- C++ -*----------------------------------*\
| =========                 |                                                 |
| \\      /  F ield         | OpenFOAM: The Open Source CFD Toolbox           |
|  \\    /   O peration     | Version:  v1612+                                |
|   \\  /    A nd           | Web:      www.OpenFOAM.com                      |
|    \\/     M anipulation  |                                                 |
\*---------------------------------------------------------------------------*/
FoamFile
{
    version     2.0;
    format      ascii;
    class       volScalarField;
    location    "2.55";
    object      p;
}
// * * * * * * * * * * * * * * * * * * * * * * * * * * * * * * * * * * * * * //

dimensions      [1 -1 -2 0 0 0 0];

internalField   nonuniform List<scalar> 
1116
(
15093.5
15093.5
15093.5
15093.5
15093.5
15093.5
14442.5
14442.5
14442.5
14442.5
14442.5
14442.4
13177.2
13177.2
13177.2
13177.2
13177.2
13177.1
12092.1
12092.1
12092.1
12092.1
12092.1
12092.1
11558.2
11558.2
11558.2
11558.2
11558.2
11558.2
11252.9
11252.8
11252.8
11252.8
11252.8
11252.8
11017.2
11017.1
11017.1
11017.1
11017.1
11017.1
11142.9
11142.9
11142.9
11142.9
11142.9
11142.9
12055.1
12055.1
12055.1
12055.1
12055.1
12055.2
14953.2
14953.2
14953.2
14953.2
14953.2
14953.2
19687.1
19687.1
19687.1
19687.1
19687.1
19687.1
24879
24879
24879.1
24879.1
24879.1
24879.1
5100.66
5100.65
5100.65
5100.67
5100.66
5100.63
2807.97
2807.93
2807.93
2807.94
2807.93
2807.95
2608.64
2608.62
2608.62
2608.62
2608.61
2608.62
2789.36
2789.35
2789.35
2789.34
2789.33
2789.35
2940.31
2940.31
2940.31
2940.3
2940.29
2940.29
2885.66
2885.66
2885.66
2885.64
2885.63
2885.63
2650.32
2650.34
2650.33
2650.31
2650.31
2650.29
2165.81
2165.82
2165.82
2165.8
2165.8
2165.79
1335.93
1335.89
1335.91
1335.91
1335.91
1335.94
2449.28
2449.2
2449.22
2449.23
2449.22
2449.29
8672.34
8672.33
8672.36
8672.36
8672.36
8672.36
19279.3
19279.6
19279.6
19279.6
19279.6
19279.5
218.702
218.696
218.691
218.699
218.702
218.69
-41.8005
-41.7998
-41.7996
-41.8001
-41.7996
-41.7981
-78.6678
-78.667
-78.6667
-78.6665
-78.6663
-78.6665
-70.6698
-70.6683
-70.6681
-70.6681
-70.6681
-70.6687
-61.7645
-61.7631
-61.7627
-61.7628
-61.7631
-61.7641
-45.9202
-45.9186
-45.9187
-45.9193
-45.9199
-45.9219
-19.2869
-19.286
-19.2864
-19.2871
-19.2872
-19.2887
58.4334
58.431
58.4321
58.4331
58.4343
58.4369
166.616
166.614
166.615
166.615
166.614
166.617
455.346
455.349
455.35
455.351
455.351
455.355
1156.19
1156.18
1156.19
1156.2
1156.22
1156.26
9014.17
9014.23
9014.24
9014.31
9014.24
9014.48
-39.8932
-39.8927
-39.8925
-39.8923
-39.892
-39.892
-43.3557
-43.3555
-43.355
-43.3547
-43.3547
-43.3549
-49.7978
-49.7975
-49.7972
-49.7971
-49.7972
-49.7975
-48.6219
-48.6213
-48.6213
-48.6215
-48.6217
-48.6222
-47.2701
-47.2698
-47.2701
-47.2706
-47.2711
-47.2717
-45.4992
-45.4991
-45.4996
-45.5004
-45.501
-45.5022
-41.9697
-41.9695
-41.9698
-41.9703
-41.9709
-41.9724
-56.7919
-56.7924
-56.7929
-56.7932
-56.7945
-56.7944
-55.7786
-55.7781
-55.7784
-55.778
-55.7802
-55.7785
-28.9329
-28.9309
-28.9301
-28.9292
-28.928
-28.9314
73.3091
73.2856
73.2899
73.2946
73.2989
73.3031
996.738
996.387
996.529
996.546
996.306
996.924
-5.14842
-5.14838
-5.14836
-5.14835
-5.14835
-5.14835
-5.16021
-5.16019
-5.16018
-5.16017
-5.16017
-5.16019
-5.18409
-5.18408
-5.18406
-5.18406
-5.18405
-5.18406
-5.22018
-5.22016
-5.22015
-5.22013
-5.22011
-5.22011
-5.26863
-5.26861
-5.26858
-5.26855
-5.26852
-5.2685
-5.3297
-5.32966
-5.3296
-5.32952
-5.32945
-5.3294
-5.40338
-5.40329
-5.40318
-5.40306
-5.40294
-5.40287
-5.48891
-5.48877
-5.48866
-5.48856
-5.48849
-5.48849
-5.5829
-5.58278
-5.5828
-5.58289
-5.58304
-5.58323
-5.67988
-5.67983
-5.68006
-5.6805
-5.68106
-5.68158
-5.7678
-5.76791
-5.76813
-5.76842
-5.76871
-5.76895
-5.80047
-5.80049
-5.80054
-5.8006
-5.80066
-5.80069
-14.9469
-14.9468
-14.9468
-14.9468
-14.9468
-14.9468
-14.9586
-14.9586
-14.9586
-14.9586
-14.9586
-14.9586
-14.9826
-14.9826
-14.9826
-14.9826
-14.9826
-14.9826
-15.0194
-15.0194
-15.0193
-15.0193
-15.0193
-15.0193
-15.0697
-15.0696
-15.0696
-15.0696
-15.0696
-15.0696
-15.1344
-15.1343
-15.1343
-15.1342
-15.1342
-15.1342
-15.2149
-15.2149
-15.2148
-15.2148
-15.2147
-15.2147
-15.3127
-15.3127
-15.3127
-15.3128
-15.3129
-15.313
-15.4278
-15.4279
-15.4281
-15.4283
-15.4285
-15.4287
-15.5842
-15.5845
-15.5847
-15.5847
-15.5846
-15.5844
-15.6586
-15.6586
-15.6585
-15.6583
-15.658
-15.6577
-15.63
-15.6299
-15.6297
-15.6294
-15.6291
-15.6289
-24.7349
-24.7349
-24.7349
-24.7349
-24.7349
-24.7349
-24.7463
-24.7463
-24.7463
-24.7463
-24.7463
-24.7463
-24.7698
-24.7698
-24.7698
-24.7698
-24.7698
-24.7698
-24.8066
-24.8066
-24.8066
-24.8066
-24.8066
-24.8066
-24.8588
-24.8588
-24.8588
-24.8588
-24.8588
-24.8588
-24.929
-24.929
-24.929
-24.929
-24.9291
-24.9291
-25.0193
-25.0193
-25.0194
-25.0194
-25.0195
-25.0195
-25.1262
-25.1263
-25.1265
-25.1267
-25.1269
-25.127
-25.2067
-25.2071
-25.2074
-25.2078
-25.208
-25.2081
-25.2148
-25.2152
-25.2157
-25.2162
-25.2166
-25.2168
-25.2231
-25.2238
-25.2244
-25.2249
-25.2253
-25.2255
-25.3989
-25.3988
-25.3987
-25.3984
-25.3984
-25.3986
-34.5135
-34.5135
-34.5135
-34.5135
-34.5135
-34.5136
-34.5239
-34.5239
-34.5239
-34.5239
-34.524
-34.524
-34.5457
-34.5457
-34.5457
-34.5457
-34.5458
-34.5458
-34.5809
-34.5809
-34.5809
-34.5809
-34.5809
-34.5809
-34.6326
-34.6326
-34.6326
-34.6327
-34.6327
-34.6327
-34.706
-34.7061
-34.7061
-34.7062
-34.7062
-34.7062
-34.8115
-34.8116
-34.8117
-34.8118
-34.8119
-34.812
-34.9881
-34.9883
-34.9884
-34.9886
-34.9887
-34.9888
-35.3518
-35.3518
-35.3518
-35.3518
-35.3517
-35.3517
-36.0071
-36.0068
-36.0062
-36.0053
-36.0044
-36.0036
-36.8195
-36.8187
-36.8178
-36.8168
-36.816
-36.8152
-37.2572
-37.2567
-37.2562
-37.2557
-37.2561
-37.255
-51.2285
-51.228
-51.2276
-51.2274
-51.2274
-51.2274
-62.5014
-62.5012
-62.5011
-62.5011
-62.5011
-62.5012
-72.2825
-72.2827
-72.2828
-72.2829
-72.283
-72.283
-53.6404
-53.6401
-53.6398
-53.6397
-53.6396
-53.6398
-63.8651
-63.865
-63.865
-63.865
-63.8651
-63.8652
-73.3448
-73.3449
-73.345
-73.345
-73.3451
-73.345
-60.7068
-60.7065
-60.7063
-60.7062
-60.7063
-60.7064
-65.8685
-65.8685
-65.8685
-65.8685
-65.8686
-65.8686
-72.9395
-72.9396
-72.9396
-72.9396
-72.9396
-72.9394
-61.4777
-61.4776
-61.4776
-61.4777
-61.4778
-61.478
-66.6745
-66.6747
-66.6747
-66.6747
-66.6747
-66.6747
-75.0424
-75.0425
-75.0424
-75.0423
-75.0423
-75.0421
-60.4728
-60.473
-60.4732
-60.4734
-60.4735
-60.4736
-64.9451
-64.9453
-64.9454
-64.9455
-64.9455
-64.9454
-74.3294
-74.3295
-74.3294
-74.3294
-74.3294
-74.3292
-59.3219
-59.322
-59.3221
-59.3222
-59.3224
-59.3223
-65.6498
-65.65
-65.6502
-65.6503
-65.6504
-65.6503
-74.774
-74.774
-74.774
-74.7739
-74.7739
-74.7738
-56.1112
-56.1108
-56.1107
-56.1107
-56.1111
-56.1112
-65.4851
-65.4849
-65.4846
-65.4847
-65.4846
-65.4852
-73.773
-73.773
-73.7728
-73.7727
-73.7725
-73.7723
-59.67
-59.6696
-59.6697
-59.6692
-59.6704
-59.6682
-69.5573
-69.5569
-69.5569
-69.5572
-69.5574
-69.5569
-74.938
-74.9382
-74.938
-74.9377
-74.9372
-74.9368
-74.742
-74.7398
-74.7401
-74.739
-74.7398
-74.7382
-88.5712
-88.5707
-88.5699
-88.5697
-88.5701
-88.5678
-77.9883
-77.9895
-77.9883
-77.9875
-77.9863
-77.9849
-108.882
-108.885
-108.883
-108.879
-108.879
-108.873
-87.7813
-87.7848
-87.7817
-87.7789
-87.7785
-87.7696
-74.6494
-74.6514
-74.6496
-74.6488
-74.6472
-74.6443
-144.749
-144.784
-144.768
-144.751
-144.751
-144.72
-86.6727
-86.6832
-86.6774
-86.6852
-86.6769
-86.6906
-79.1232
-79.1258
-79.122
-79.1257
-79.118
-79.1312
-363.917
-364.261
-363.994
-363.825
-364.197
-363.207
-153.668
-153.887
-153.762
-153.841
-154.027
-153.416
-107.134
-107.153
-107.139
-107.151
-107.125
-107.148
-54.2041
-54.2038
-54.2017
-54.1899
-54.171
-54.1672
-69.8634
-69.8731
-69.8784
-69.8268
-69.8931
-69.9972
-70.9049
-70.9057
-70.9002
-70.8782
-70.9297
-70.9301
-41.119
-41.1106
-41.1043
-41.1098
-41.0331
-40.9021
-72.6974
-72.7341
-72.7893
-72.5865
-72.3814
-73.4035
-81.0654
-81.0795
-81.1101
-81.0188
-81.0337
-81.3338
-38.0898
-38.0494
-37.9947
-38.1153
-38.146
-37.227
-67.9477
-67.9003
-67.8379
-67.9056
-67.8912
-67.3657
-178.247
-178.351
-178.537
-178.219
-177.512
-179.744
-62.8455
-62.8221
-62.7497
-62.7988
-63.0068
-61.8826
-129.536
-129.251
-128.691
-129.494
-131.445
-125.002
-741.037
-741.202
-741.098
-741.125
-742.569
-739.28
-213.919
-214.081
-214.175
-214.313
-215.154
-213.34
267.913
267.733
267.489
266.203
267.596
263.282
-332.928
-332.9
-332.823
-332.909
-333.223
-332.407
-4525.03
-4525.43
-4524.97
-4524.31
-4530.09
-4515.42
162.449
161.687
161.441
160.215
162.163
157.393
-181.12
-181.149
-181.1
-181.106
-181.142
-180.897
-44.2685
-44.2685
-44.2685
-44.2685
-44.2685
-44.2685
-54.0321
-54.0321
-54.0321
-54.0321
-54.0321
-54.0321
-63.7911
-63.7911
-63.7912
-63.7912
-63.7912
-63.7912
-44.277
-44.277
-44.277
-44.277
-44.277
-44.277
-54.0377
-54.0377
-54.0377
-54.0377
-54.0377
-54.0377
-63.7929
-63.7929
-63.7929
-63.7929
-63.7929
-63.7929
-44.2951
-44.2951
-44.2951
-44.2951
-44.2951
-44.2951
-54.0497
-54.0498
-54.0498
-54.0498
-54.0498
-54.0498
-63.7964
-63.7965
-63.7965
-63.7965
-63.7965
-63.7965
-44.3251
-44.3251
-44.3251
-44.3251
-44.3251
-44.3252
-54.0708
-54.0708
-54.0708
-54.0708
-54.0708
-54.0708
-63.8017
-63.8017
-63.8017
-63.8017
-63.8017
-63.8017
-44.3707
-44.3707
-44.3707
-44.3708
-44.3708
-44.3708
-54.1062
-54.1063
-54.1063
-54.1063
-54.1063
-54.1063
-63.8077
-63.8077
-63.8077
-63.8077
-63.8077
-63.8077
-44.4351
-44.4351
-44.4352
-44.4352
-44.4352
-44.4352
-54.1697
-54.1697
-54.1697
-54.1697
-54.1697
-54.1697
-63.8123
-63.8123
-63.8123
-63.8123
-63.8123
-63.8122
-44.5113
-44.5113
-44.5114
-44.5115
-44.5115
-44.5115
-54.2958
-54.2959
-54.2959
-54.2959
-54.2959
-54.2959
-63.8111
-63.8111
-63.8111
-63.8111
-63.8111
-63.8111
-44.5615
-44.5616
-44.5617
-44.5618
-44.5618
-44.5617
-54.557
-54.557
-54.557
-54.557
-54.557
-54.5569
-63.8077
-63.8077
-63.8076
-63.8076
-63.8076
-63.8076
-44.4731
-44.4732
-44.4732
-44.4732
-44.4732
-44.4732
-55.1073
-55.1073
-55.1072
-55.1072
-55.1072
-55.107
-63.843
-63.843
-63.8429
-63.8429
-63.8428
-63.8427
-44.1534
-44.1535
-44.1538
-44.1542
-44.1547
-44.1551
-56.1834
-56.1832
-56.1831
-56.1828
-56.1833
-56.1827
-64.1073
-64.1072
-64.107
-64.107
-64.1069
-64.1063
-43.6119
-43.612
-43.6119
-43.6118
-43.6119
-43.6125
-58.1401
-58.1397
-58.1395
-58.1387
-58.1426
-58.1423
-64.8944
-64.894
-64.8934
-64.8934
-64.8948
-64.8942
-41.882
-41.8811
-41.8798
-41.8762
-41.8735
-41.8787
-61.9819
-61.9817
-61.9823
-61.9753
-62.0012
-62.0065
-69.9739
-69.973
-69.9698
-69.9611
-69.9793
-69.9682
)
;

boundaryField
{
    seabed_topleft_surface
    {
        type            calculated;
        value           nonuniform List<scalar> 
72
(
19877.3
19877.3
19877.3
19877.3
19877.3
19877.3
19226.3
19226.3
19226.3
19226.3
19226.3
19226.3
17957.7
17957.8
17957.8
17957.8
17957.8
17957.7
16875.2
16875.3
16875.3
16875.2
16875.2
16875.2
16343
16343
16343
16343
16343
16343
16038.8
16038.8
16038.8
16038.8
16038.7
16038.7
15805.3
15805.2
15805.2
15805.2
15805.2
15805.2
15932.6
15932.5
15932.6
15932.6
15932.6
15932.6
16844.8
16844.8
16844.8
16844.8
16844.8
16844.8
19742.9
19742.9
19742.9
19742.9
19742.9
19742.9
24475.8
24475.8
24475.8
24475.8
24475.8
24475.8
29578.8
29578.8
29578.9
29578.9
29578.9
29578.8
)
;
    }
    seabed_topright_surface
    {
        type            calculated;
        value           nonuniform List<scalar> 
72
(
-0.226568
-0.226526
-0.226506
-0.226497
-0.226495
-0.226496
-0.238358
-0.238334
-0.238322
-0.238317
-0.238319
-0.238331
-0.262238
-0.262219
-0.262208
-0.2622
-0.262197
-0.262202
-0.298324
-0.298306
-0.298289
-0.298272
-0.298259
-0.298255
-0.346776
-0.346755
-0.346726
-0.346692
-0.34666
-0.346641
-0.407841
-0.407801
-0.407742
-0.407669
-0.407597
-0.407546
-0.481523
-0.481435
-0.481326
-0.481203
-0.481089
-0.48101
-0.567054
-0.566918
-0.566802
-0.566702
-0.566633
-0.566635
-0.661045
-0.660923
-0.660943
-0.661031
-0.661189
-0.66137
-0.758028
-0.75797
-0.758201
-0.758646
-0.759204
-0.759727
-0.845945
-0.846053
-0.846277
-0.846567
-0.846855
-0.847095
-0.878613
-0.878633
-0.878682
-0.878748
-0.878802
-0.878832
)
;
    }
    breakwater_top_surface
    {
        type            calculated;
        value           nonuniform List<scalar> 
36
(
-49.2991
-49.2988
-49.2967
-49.2849
-49.266
-49.2622
-36.214
-36.2056
-36.1993
-36.2048
-36.1281
-35.9971
-33.1845
-33.1441
-33.0894
-33.21
-33.2406
-32.3217
-57.0539
-57.0274
-56.954
-56.9926
-57.1391
-56.1158
528.682
528.401
527.917
528.945
531.239
524.704
-2507.08
-2507.58
-2507.04
-2506.53
-2512.25
-2496.15
)
;
    }
    breakwater_left_surface
    {
        type            calculated;
        value           nonuniform List<scalar> 
24
(
24895.1
24895.1
24895.2
24895.2
24895.2
24895.1
19295
19295.2
19295.2
19295.2
19295.2
19295.2
9027
9027.06
9027.07
9027.14
9027.07
9027.31
1008.56
1008.21
1008.35
1008.37
1008.13
1008.75
)
;
    }
    breakwater_right_surface
    {
        type            calculated;
        value           nonuniform List<scalar> 
24
(
-5.78361
-5.78363
-5.78368
-5.78375
-5.7838
-5.78383
-15.6135
-15.6134
-15.6131
-15.6129
-15.6126
-15.6124
-25.3828
-25.3826
-25.3825
-25.3823
-25.3822
-25.3824
-37.2413
-37.2408
-37.2404
-37.2398
-37.2402
-37.2392
)
;
    }
    water_front_surface
    {
        type            calculated;
        value           nonuniform List<scalar> 
186
(
15093.5
14442.5
13177.2
12092.1
11558.2
11252.9
11017.2
11142.9
12055.1
14953.2
19687.1
24879
5100.66
2807.97
2608.64
2789.36
2940.31
2885.66
2650.32
2165.81
1335.93
2449.28
8672.34
19279.3
218.702
-41.8005
-78.6678
-70.6698
-61.7645
-45.9202
-19.2869
58.4334
166.616
455.346
1156.19
9014.17
-39.8932
-43.3557
-49.7978
-48.6219
-47.2701
-45.4992
-41.9697
-56.7919
-55.7786
-28.9329
73.3091
996.738
-5.14842
-5.16021
-5.18409
-5.22018
-5.26863
-5.3297
-5.40338
-5.48891
-5.5829
-5.67988
-5.7678
-5.80047
-14.9469
-14.9586
-14.9826
-15.0194
-15.0697
-15.1344
-15.2149
-15.3127
-15.4278
-15.5842
-15.6586
-15.63
-24.7349
-24.7463
-24.7698
-24.8066
-24.8588
-24.929
-25.0193
-25.1262
-25.2067
-25.2148
-25.2231
-25.3989
-34.5135
-34.5239
-34.5457
-34.5809
-34.6326
-34.706
-34.8115
-34.9881
-35.3518
-36.0071
-36.8195
-37.2572
-51.2285
-62.5014
-72.2825
-53.6404
-63.8651
-73.3448
-60.7068
-65.8685
-72.9395
-61.4777
-66.6745
-75.0424
-60.4728
-64.9451
-74.3294
-59.3219
-65.6498
-74.774
-56.1112
-65.4851
-73.773
-59.67
-69.5573
-74.938
-74.742
-88.5712
-77.9883
-108.882
-87.7813
-74.6494
-144.749
-86.6727
-79.1232
-363.917
-153.668
-107.134
-54.2041
-69.8634
-70.9049
-41.119
-72.6974
-81.0654
-38.0898
-67.9477
-178.247
-62.8455
-129.536
-741.037
-213.919
267.913
-332.928
-4525.03
162.449
-181.12
-44.2685
-54.0321
-63.7911
-44.277
-54.0377
-63.7929
-44.2951
-54.0497
-63.7964
-44.3251
-54.0708
-63.8017
-44.3707
-54.1062
-63.8077
-44.4351
-54.1697
-63.8123
-44.5113
-54.2958
-63.8111
-44.5615
-54.557
-63.8077
-44.4731
-55.1073
-63.843
-44.1534
-56.1834
-64.1073
-43.6119
-58.1401
-64.8944
-41.882
-61.9819
-69.9739
)
;
    }
    water_back_surface
    {
        type            calculated;
        value           nonuniform List<scalar> 
186
(
15093.5
14442.4
13177.1
12092.1
11558.2
11252.8
11017.1
11142.9
12055.2
14953.2
19687.1
24879.1
5100.63
2807.95
2608.62
2789.35
2940.29
2885.63
2650.29
2165.79
1335.94
2449.29
8672.36
19279.5
218.69
-41.7981
-78.6665
-70.6687
-61.7641
-45.9219
-19.2887
58.4369
166.617
455.355
1156.26
9014.48
-39.892
-43.3549
-49.7975
-48.6222
-47.2717
-45.5022
-41.9724
-56.7944
-55.7785
-28.9314
73.3031
996.924
-5.14835
-5.16019
-5.18406
-5.22011
-5.2685
-5.3294
-5.40287
-5.48849
-5.58323
-5.68158
-5.76895
-5.80069
-14.9468
-14.9586
-14.9826
-15.0193
-15.0696
-15.1342
-15.2147
-15.313
-15.4287
-15.5844
-15.6577
-15.6289
-24.7349
-24.7463
-24.7698
-24.8066
-24.8588
-24.9291
-25.0195
-25.127
-25.2081
-25.2168
-25.2255
-25.3986
-34.5136
-34.524
-34.5458
-34.5809
-34.6327
-34.7062
-34.812
-34.9888
-35.3517
-36.0036
-36.8152
-37.255
-51.2274
-62.5012
-72.283
-53.6398
-63.8652
-73.345
-60.7064
-65.8686
-72.9394
-61.478
-66.6747
-75.0421
-60.4736
-64.9454
-74.3292
-59.3223
-65.6503
-74.7738
-56.1112
-65.4852
-73.7723
-59.6682
-69.5569
-74.9368
-74.7382
-88.5678
-77.9849
-108.873
-87.7696
-74.6443
-144.72
-86.6906
-79.1312
-363.207
-153.416
-107.148
-54.1672
-69.9972
-70.9301
-40.9021
-73.4035
-81.3338
-37.227
-67.3657
-179.744
-61.8826
-125.002
-739.28
-213.34
263.282
-332.407
-4515.42
157.393
-180.897
-44.2685
-54.0321
-63.7912
-44.277
-54.0377
-63.7929
-44.2951
-54.0498
-63.7965
-44.3252
-54.0708
-63.8017
-44.3708
-54.1063
-63.8077
-44.4352
-54.1697
-63.8122
-44.5115
-54.2959
-63.8111
-44.5617
-54.5569
-63.8076
-44.4732
-55.107
-63.8427
-44.1551
-56.1827
-64.1063
-43.6125
-58.1423
-64.8942
-41.8787
-62.0065
-69.9682
)
;
    }
    water_left_surface
    {
        type            calculated;
        value           nonuniform List<scalar> 
42
(
15109.8
15109.9
15109.9
15109.9
15109.9
15109.8
5114.04
5114.02
5114.02
5114.05
5114.04
5114.01
219.517
219.511
219.506
219.514
219.517
219.505
-39.8773
-39.8768
-39.8766
-39.8764
-39.8761
-39.8762
-51.2285
-51.228
-51.2276
-51.2274
-51.2274
-51.2274
-62.5014
-62.5012
-62.5011
-62.5011
-62.5011
-62.5012
-72.2825
-72.2827
-72.2828
-72.2829
-72.283
-72.283
)
;
    }
    water_right_surface
    {
        type            calculated;
        value           nonuniform List<scalar> 
42
(
-5.13157
-5.13153
-5.13151
-5.1315
-5.13149
-5.1315
-14.9304
-14.9303
-14.9303
-14.9303
-14.9303
-14.9303
-24.7188
-24.7187
-24.7187
-24.7187
-24.7187
-24.7188
-34.4977
-34.4976
-34.4976
-34.4977
-34.4977
-34.4977
-44.2685
-44.2685
-44.2685
-44.2685
-44.2685
-44.2685
-54.0321
-54.0321
-54.0321
-54.0321
-54.0321
-54.0321
-63.7911
-63.7911
-63.7912
-63.7912
-63.7912
-63.7912
)
;
    }
    water_top_surface
    {
        type            calculated;
        value           nonuniform List<scalar> 
180
(
-76.9387
-76.9394
-76.9395
-76.9396
-76.9398
-76.9394
-77.8728
-77.8735
-77.8735
-77.8735
-77.8736
-77.873
-75.973
-75.9736
-75.9736
-75.9736
-75.9735
-75.973
-77.8748
-77.8754
-77.8752
-77.8751
-77.8751
-77.8744
-75.9854
-75.9857
-75.9855
-75.9854
-75.9854
-75.9849
-76.7057
-76.7061
-76.706
-76.706
-76.706
-76.7054
-76.706
-76.7066
-76.7065
-76.7064
-76.7062
-76.7055
-77.5816
-77.5822
-77.582
-77.5818
-77.5817
-77.5809
-76.5488
-76.5491
-76.5484
-76.5482
-76.5468
-76.5498
-68.6698
-68.6698
-68.6698
-68.6698
-68.6698
-68.6698
-68.6794
-68.6794
-68.6794
-68.6794
-68.6794
-68.6794
-69.065
-69.0651
-69.0651
-69.065
-69.065
-69.0651
-68.67
-68.67
-68.67
-68.67
-68.67
-68.67
-69.4454
-69.4473
-69.446
-69.451
-69.4581
-69.4391
-1120.28
-1120.84
-1120.87
-1121.99
-1121.55
-1121.24
-3411.95
-3414.43
-3414.37
-3417.87
-3414.7
-3419.17
-233.143
-233.638
-233.158
-233.372
-234.935
-231.075
-70.0832
-70.0502
-70.0639
-70.0518
-70.0727
-70.0461
-68.6702
-68.6702
-68.6702
-68.6702
-68.6702
-68.6702
-68.6702
-68.6702
-68.6702
-68.6702
-68.6702
-68.6702
-68.6703
-68.6703
-68.6703
-68.6703
-68.6703
-68.6703
-68.6704
-68.6704
-68.6704
-68.6704
-68.6704
-68.6704
-68.6706
-68.6706
-68.6706
-68.6706
-68.6706
-68.6706
-68.671
-68.671
-68.671
-68.671
-68.671
-68.671
-68.6717
-68.6717
-68.6717
-68.6717
-68.6717
-68.6717
-68.6729
-68.6729
-68.6729
-68.6729
-68.6729
-68.6729
-68.6753
-68.6753
-68.6753
-68.6753
-68.6753
-68.6753
-68.6818
-68.6818
-68.6817
-68.6817
-68.6817
-68.6817
-68.7261
-68.7261
-68.7261
-68.7261
-68.7265
-68.7257
-69.0823
-69.0822
-69.0827
-69.082
-69.0813
-69.0835
)
;
    }
}


// ************************************************************************* //
