/*--------------------------------*- C++ -*----------------------------------*\
| =========                 |                                                 |
| \\      /  F ield         | OpenFOAM: The Open Source CFD Toolbox           |
|  \\    /   O peration     | Version:  v1612+                                |
|   \\  /    A nd           | Web:      www.OpenFOAM.com                      |
|    \\/     M anipulation  |                                                 |
\*---------------------------------------------------------------------------*/
FoamFile
{
    version     2.0;
    format      ascii;
    class       volVectorField;
    location    "2.55";
    object      U;
}
// * * * * * * * * * * * * * * * * * * * * * * * * * * * * * * * * * * * * * //

dimensions      [0 1 -1 0 0 0 0];

internalField   nonuniform List<vector> 
1116
(
(0.600147 -1.05534e-05 -0.53485)
(0.600145 -4.78034e-06 -0.534871)
(0.600143 -4.80118e-06 -0.534864)
(0.600151 -4.04011e-06 -0.534864)
(0.600153 -9.31462e-06 -0.534873)
(0.60013 2.68329e-06 -0.53486)
(1.8259 -9.46688e-06 -0.446293)
(1.82591 -3.58696e-06 -0.44632)
(1.82591 -7.36024e-06 -0.446311)
(1.82591 -6.57644e-06 -0.446313)
(1.82591 -4.04199e-06 -0.446324)
(1.8259 9.03051e-06 -0.446303)
(2.8285 -8.83409e-06 -0.266018)
(2.82852 -3.77752e-06 -0.266043)
(2.82852 -5.8273e-06 -0.266034)
(2.82852 -6.73342e-06 -0.266035)
(2.82852 -2.81438e-06 -0.266044)
(2.82851 7.94076e-06 -0.266022)
(3.56376 -8.59605e-06 -0.180167)
(3.56379 -3.85489e-06 -0.180185)
(3.56379 -6.88352e-06 -0.180177)
(3.56379 -7.63292e-06 -0.180179)
(3.56379 -4.63855e-06 -0.180187)
(3.56377 6.35125e-06 -0.180166)
(4.06651 -8.99427e-06 -0.138097)
(4.06654 -4.29654e-06 -0.138108)
(4.06654 -9.72764e-06 -0.138103)
(4.06653 -8.52643e-06 -0.138105)
(4.06653 -5.86045e-06 -0.138112)
(4.0665 6.65781e-06 -0.138094)
(4.45633 -9.7241e-06 -0.0831761)
(4.45636 -5.16827e-06 -0.0831838)
(4.45636 -1.16156e-05 -0.0831797)
(4.45635 -8.80281e-06 -0.0831825)
(4.45635 -7.03939e-06 -0.0831913)
(4.45631 6.08145e-06 -0.0831725)
(4.7904 -1.14718e-05 0.00669708)
(4.79044 -6.22694e-06 0.00669157)
(4.79043 -1.01647e-05 0.00669434)
(4.79042 -7.6842e-06 0.00669097)
(4.79042 -6.99364e-06 0.00668061)
(4.79037 5.09951e-06 0.00669715)
(5.04224 -9.76286e-06 0.110782)
(5.04226 -3.70762e-06 0.110769)
(5.04227 -4.89514e-06 0.110776)
(5.04226 -2.99238e-06 0.110773)
(5.04226 -3.01036e-06 0.110761)
(5.04221 5.768e-06 0.110778)
(5.19702 -8.71797e-06 0.388766)
(5.19708 7.89476e-07 0.388756)
(5.19706 5.29848e-06 0.388759)
(5.19705 2.96179e-06 0.388757)
(5.19707 3.20084e-06 0.388747)
(5.19699 8.7332e-06 0.388762)
(4.64605 -8.77219e-06 0.823419)
(4.64615 4.06468e-06 0.823423)
(4.64612 1.19233e-05 0.823412)
(4.64612 7.71467e-06 0.823407)
(4.64613 6.18979e-06 0.823398)
(4.64603 8.47584e-06 0.8234)
(2.64759 1.99904e-06 1.07997)
(2.64769 2.50357e-06 1.07999)
(2.64769 -1.97406e-06 1.07996)
(2.64768 9.78267e-06 1.07996)
(2.64772 2.53801e-06 1.07995)
(2.64758 1.17978e-06 1.07993)
(0.438053 -2.99851e-05 0.332905)
(0.438152 -3.50388e-05 0.332892)
(0.438137 -1.68145e-05 0.332893)
(0.438137 -1.68212e-05 0.332888)
(0.438198 6.53358e-06 0.332882)
(0.43805 1.77657e-05 0.332884)
(0.127914 4.82518e-06 -1.95182)
(0.127881 -3.45084e-06 -1.95185)
(0.127904 -8.6635e-06 -1.95184)
(0.127902 -7.45374e-06 -1.95184)
(0.127885 -1.28635e-05 -1.95187)
(0.127917 -1.31058e-05 -1.95184)
(1.94438 3.69744e-05 -2.22799)
(1.94439 3.47536e-06 -2.22804)
(1.94439 -1.58353e-05 -2.22803)
(1.9444 -1.37215e-05 -2.22803)
(1.9444 -1.38023e-05 -2.22806)
(1.94437 -3.27387e-05 -2.22803)
(3.12887 3.75873e-05 -1.59747)
(3.12892 7.03135e-06 -1.59752)
(3.1289 -1.23105e-05 -1.59751)
(3.12891 -1.06763e-05 -1.59751)
(3.12893 -1.16696e-05 -1.59754)
(3.12887 -3.17805e-05 -1.59749)
(3.81742 3.50299e-05 -1.09909)
(3.8175 1.32445e-05 -1.09912)
(3.81747 -3.26126e-06 -1.09911)
(3.81747 -3.34137e-06 -1.09911)
(3.81751 -1.04884e-05 -1.09914)
(3.81743 -2.98384e-05 -1.09909)
(4.35173 3.29941e-05 -0.835473)
(4.35183 1.82437e-05 -0.835504)
(4.3518 6.81352e-06 -0.83549)
(4.3518 5.54909e-06 -0.835498)
(4.35185 -6.23354e-06 -0.835523)
(4.35175 -2.71957e-05 -0.835483)
(4.87868 3.05853e-05 -0.728027)
(4.87882 2.08662e-05 -0.728059)
(4.87878 1.6106e-05 -0.728049)
(4.87879 1.4192e-05 -0.728059)
(4.87884 3.99549e-06 -0.728083)
(4.87873 -1.97131e-05 -0.728047)
(5.4341 3.09779e-05 -0.671129)
(5.43426 2.5484e-05 -0.671168)
(5.43422 2.80931e-05 -0.67116)
(5.43424 2.45976e-05 -0.671168)
(5.43428 1.93975e-05 -0.67119)
(5.4342 -9.0258e-06 -0.671159)
(6.34863 3.47435e-05 -0.609522)
(6.34887 2.85453e-05 -0.609578)
(6.3488 3.63572e-05 -0.609561)
(6.34881 3.04481e-05 -0.609563)
(6.34886 2.76247e-05 -0.609582)
(6.34878 -7.22696e-06 -0.609548)
(7.04062 3.77234e-05 0.048402)
(7.04088 2.59183e-05 0.0483091)
(7.04082 3.15935e-05 0.0483441)
(7.04084 2.56398e-05 0.0483566)
(7.04087 1.8773e-05 0.0483422)
(7.04078 -1.71849e-05 0.048397)
(7.09011 4.17239e-05 1.38542)
(7.09042 2.88091e-05 1.38533)
(7.09034 1.90154e-05 1.38535)
(7.09035 1.4029e-05 1.38537)
(7.0904 -4.45678e-07 1.38537)
(7.09024 -2.76083e-05 1.38542)
(5.3058 4.75224e-05 2.82679)
(5.30617 3.56011e-05 2.8268)
(5.30607 1.33181e-05 2.82678)
(5.30606 2.18734e-05 2.82679)
(5.30611 2.21155e-06 2.82679)
(5.30591 -1.97248e-05 2.82682)
(1.74538 -4.19004e-05 2.43801)
(1.74565 -3.92893e-05 2.43803)
(1.74557 9.19913e-06 2.43803)
(1.74557 -4.14729e-06 2.43803)
(1.7456 2.62893e-05 2.43808)
(1.74544 3.19894e-05 2.43796)
(-0.915448 7.63946e-05 -3.00539)
(-0.915503 -5.81193e-05 -3.00537)
(-0.91542 2.90106e-05 -3.00541)
(-0.915519 -5.8192e-05 -3.00541)
(-0.915581 0.000103459 -3.0054)
(-0.915201 -3.92546e-05 -3.00545)
(1.98158 9.61321e-05 -4.0399)
(1.9816 -0.000122968 -4.03978)
(1.9816 6.61732e-05 -4.03984)
(1.98157 -6.94204e-05 -4.03989)
(1.98157 0.000124245 -4.03985)
(1.9816 -0.000104944 -4.03991)
(7.57926 8.52429e-05 -3.11937)
(7.57927 -0.000108378 -3.11924)
(7.57919 4.75385e-05 -3.11929)
(7.57919 -2.94157e-05 -3.11934)
(7.57928 8.89186e-05 -3.11931)
(7.57915 -0.0001016 -3.11939)
(10.7233 0.000107729 -2.26638)
(10.7232 1.31804e-06 -2.26626)
(10.7232 0.000133329 -2.26629)
(10.7232 7.4669e-05 -2.26631)
(10.7233 0.000182893 -2.26628)
(10.7233 -5.20817e-06 -2.26638)
(14.2216 0.000132072 -1.78373)
(14.2217 0.000124499 -1.78363)
(14.2217 0.000294692 -1.78365)
(14.2218 0.000211887 -1.78365)
(14.2219 0.000295381 -1.78362)
(14.222 6.91862e-05 -1.78372)
(17.5003 8.63999e-05 -1.62432)
(17.5005 0.000116388 -1.62424)
(17.5006 0.000331753 -1.62424)
(17.5007 0.000235272 -1.62422)
(17.5008 0.000351048 -1.62419)
(17.5011 0.000136629 -1.62427)
(19.8293 7.7218e-06 -1.51653)
(19.8293 4.07227e-05 -1.51652)
(19.8296 0.000283388 -1.51649)
(19.8297 0.000153141 -1.51644)
(19.8296 0.00031871 -1.51641)
(19.8303 0.000167056 -1.51638)
(22.7156 4.72461e-05 -0.485017)
(22.7155 3.11899e-06 -0.485033)
(22.7159 7.95744e-05 -0.484996)
(22.7162 -0.000100882 -0.484943)
(22.716 1.01276e-06 -0.484887)
(22.7168 -1.05386e-05 -0.48486)
(18.1395 5.36741e-05 1.44843)
(18.1402 -6.79638e-05 1.44849)
(18.1401 -7.23253e-05 1.44849)
(18.14 -0.000124847 1.4485)
(18.1396 -3.69948e-05 1.44853)
(18.1401 -6.08824e-05 1.44849)
(10.8405 3.30959e-05 3.54957)
(10.8408 -2.11672e-05 3.54977)
(10.8407 3.58605e-06 3.54973)
(10.8408 -9.05054e-06 3.54975)
(10.8407 -6.40947e-06 3.54981)
(10.841 -5.42477e-05 3.5497)
(4.31441 5.34082e-05 5.7926)
(4.31451 2.07562e-05 5.79284)
(4.31446 4.12292e-06 5.79276)
(4.31445 1.19974e-05 5.79278)
(4.31445 -1.90791e-05 5.79285)
(4.31438 -4.56155e-05 5.79275)
(2.19286 -9.16463e-06 4.47364)
(2.19322 -2.18696e-06 4.47382)
(2.19311 2.75963e-05 4.47377)
(2.19312 2.52736e-05 4.47377)
(2.19307 1.74378e-05 4.47376)
(2.19306 4.7712e-08 4.4737)
(-0.0344996 2.76408e-05 -3.56657)
(-0.0344928 -0.000157705 -3.5665)
(-0.0344315 6.97933e-05 -3.56661)
(-0.034566 -5.60184e-05 -3.56666)
(-0.0346211 0.000186998 -3.56656)
(-0.0342414 -9.63554e-06 -3.56664)
(1.37415 -8.00943e-05 -4.9351)
(1.37408 -0.000103152 -4.93515)
(1.37402 3.24608e-05 -4.93516)
(1.37402 1.12032e-05 -4.93518)
(1.37405 2.4333e-05 -4.93515)
(1.3741 -6.43576e-06 -4.93496)
(-0.768208 -7.05908e-05 -5.83685)
(-0.768561 -3.51086e-05 -5.83695)
(-0.768668 3.52921e-05 -5.83697)
(-0.768636 2.29078e-05 -5.83698)
(-0.768559 6.03438e-05 -5.83695)
(-0.768395 7.90653e-05 -5.83684)
(-1.87151 -1.27541e-06 -5.47473)
(-1.87179 7.76708e-05 -5.47497)
(-1.87181 0.00015909 -5.47493)
(-1.87179 0.000122705 -5.47491)
(-1.87176 0.000153541 -5.4749)
(-1.87156 0.000112185 -5.47469)
(-2.83625 -5.23664e-05 -4.90688)
(-2.83645 3.63516e-06 -4.90719)
(-2.83622 0.000108493 -4.90707)
(-2.83609 7.78104e-05 -4.907)
(-2.83599 0.000155513 -4.90695)
(-2.83566 0.000131737 -4.9066)
(-3.89249 -0.000186698 -5.15511)
(-3.89287 -0.000271649 -5.15547)
(-3.89263 -0.000254679 -5.15531)
(-3.89256 -0.000227414 -5.15518)
(-3.89262 -2.64271e-05 -5.1552)
(-3.89205 0.000117981 -5.15453)
(-3.06349 -0.000172706 -4.9513)
(-3.0643 -0.000279232 -4.95179)
(-3.06398 -0.000343904 -4.95153)
(-3.06395 -0.000325292 -4.95132)
(-3.06431 -0.000233008 -4.9515)
(-3.06311 -8.12353e-05 -4.95055)
(-2.23712 -2.33771e-05 -2.47789)
(-2.23797 -4.60109e-05 -2.47823)
(-2.2376 -0.000212048 -2.47788)
(-2.23756 -0.000156191 -2.47759)
(-2.23807 -0.000558354 -2.47769)
(-2.2369 -0.000568506 -2.47752)
(9.55247 -5.74102e-07 8.59054)
(9.55281 -6.22397e-05 8.59063)
(9.55282 -0.000175139 8.5905)
(9.55275 -0.000115428 8.59058)
(9.55343 -0.000618375 8.59088)
(9.55162 -0.000803259 8.59082)
(11.7033 -5.48653e-06 14.5163)
(11.7037 -0.000116519 14.5167)
(11.7037 -8.36745e-05 14.5166)
(11.7038 1.58037e-05 14.5166)
(11.704 5.47497e-05 14.5165)
(11.7036 -0.000121311 14.5167)
(4.72765 0.00010227 10.9148)
(4.72815 4.41234e-05 10.9154)
(4.72803 -7.37796e-06 10.9152)
(4.72799 -2.54767e-05 10.9152)
(4.72806 1.22537e-05 10.9152)
(4.72775 -1.66174e-05 10.9152)
(3.97857 6.97779e-06 5.74678)
(3.97885 2.52129e-06 5.74687)
(3.97885 -4.09025e-07 5.74684)
(3.97886 0.000106068 5.74683)
(3.97897 -6.13898e-05 5.74702)
(3.97866 -0.000171769 5.74666)
(-0.00218838 -6.61029e-07 -0.00221614)
(-0.00218825 -1.50588e-06 -0.00221613)
(-0.00218797 -1.5457e-06 -0.00221611)
(-0.00218761 -1.4556e-06 -0.0022161)
(-0.00218722 -1.2098e-06 -0.00221608)
(-0.00218675 -4.55699e-07 -0.002216)
(-0.00663387 -3.51907e-07 -0.00228302)
(-0.00663305 -1.42469e-06 -0.00228214)
(-0.00663191 -2.24986e-06 -0.00228193)
(-0.00663058 -2.50035e-06 -0.00228196)
(-0.00662915 -2.22246e-06 -0.00228214)
(-0.00662742 -9.32786e-07 -0.00228246)
(-0.0112749 -1.78446e-07 -0.00240571)
(-0.011272 -2.01715e-06 -0.0024026)
(-0.0112689 -4.34072e-06 -0.00240181)
(-0.0112658 -5.26053e-06 -0.00240183)
(-0.0112624 -4.87329e-06 -0.00240232)
(-0.0112584 -2.14993e-06 -0.00240327)
(-0.0162405 -8.84631e-07 -0.00258997)
(-0.0162329 -4.9007e-06 -0.00258411)
(-0.016226 -9.39327e-06 -0.00258278)
(-0.0162194 -1.10834e-05 -0.0025831)
(-0.0162127 -1.02628e-05 -0.00258453)
(-0.0162044 -4.59402e-06 -0.00258722)
(-0.0217177 -3.70082e-06 -0.00285759)
(-0.0217006 -1.24101e-05 -0.00285085)
(-0.0216869 -1.93609e-05 -0.00285017)
(-0.0216751 -2.1305e-05 -0.00285185)
(-0.0216636 -1.91127e-05 -0.00285538)
(-0.0216489 -8.50038e-06 -0.00286123)
(-0.0279369 -1.11171e-05 -0.00337296)
(-0.027904 -2.79403e-05 -0.00337273)
(-0.0278815 -3.50426e-05 -0.00337634)
(-0.0278645 -3.49134e-05 -0.00338179)
(-0.0278486 -2.93616e-05 -0.00338922)
(-0.0278268 -1.27159e-05 -0.00339962)
(-0.0349374 -2.28364e-05 -0.00443085)
(-0.0348839 -4.84395e-05 -0.00445177)
(-0.0348554 -4.94816e-05 -0.00446538)
(-0.0348388 -4.29818e-05 -0.00447696)
(-0.0348253 -3.20662e-05 -0.00448828)
(-0.0348025 -1.30266e-05 -0.00450077)
(-0.0421859 -3.2498e-05 -0.00608727)
(-0.0421142 -5.70225e-05 -0.00614157)
(-0.0420909 -4.02596e-05 -0.00616626)
(-0.0420879 -2.2257e-05 -0.00618114)
(-0.0420914 -5.55021e-06 -0.00618989)
(-0.0420827 8.71468e-07 -0.0061945)
(-0.0489973 -2.69507e-05 -0.00804189)
(-0.0489228 -2.69629e-05 -0.00811997)
(-0.0489185 1.71419e-05 -0.00814421)
(-0.048943 4.67856e-05 -0.00814837)
(-0.0489786 6.12727e-05 -0.00813875)
(-0.0490061 3.15146e-05 -0.00811487)
(-0.0502061 1.76926e-06 -0.00856217)
(-0.0501558 4.40125e-05 -0.0086243)
(-0.0501736 0.000106893 -0.00862679)
(-0.0502184 0.000139346 -0.00860895)
(-0.0502785 0.000141801 -0.00857408)
(-0.05035 6.68727e-05 -0.00851546)
(-0.0478728 4.14237e-05 -0.00785476)
(-0.047856 0.000106296 -0.00783565)
(-0.0478747 0.000140067 -0.00780476)
(-0.0479091 0.000150025 -0.00776573)
(-0.0479659 0.000138415 -0.00771246)
(-0.0480664 6.34293e-05 -0.00763032)
(-0.0254792 2.51791e-05 0.00275919)
(-0.0254777 3.89111e-05 0.00279595)
(-0.0254795 2.15276e-05 0.00280444)
(-0.0254851 9.08665e-06 0.00280857)
(-0.0255049 -1.47145e-06 0.00281991)
(-0.0255577 -3.29713e-06 0.00285288)
(-0.00220373 -7.21998e-07 -0.00653472)
(-0.00220318 -1.53763e-06 -0.00653464)
(-0.00220269 -1.48698e-06 -0.00653447)
(-0.00220224 -1.27767e-06 -0.00653434)
(-0.00220184 -8.63626e-07 -0.00653422)
(-0.00220142 -2.27294e-07 -0.00653399)
(-0.00670996 -9.90753e-07 -0.00676695)
(-0.00670777 -2.32032e-06 -0.00676513)
(-0.00670596 -2.60178e-06 -0.00676452)
(-0.00670432 -2.41282e-06 -0.00676439)
(-0.00670289 -1.74855e-06 -0.00676463)
(-0.00670132 -6.09177e-07 -0.00676521)
(-0.0114949 -2.0414e-06 -0.00719861)
(-0.0114895 -4.74175e-06 -0.00719252)
(-0.0114853 -5.50058e-06 -0.00719067)
(-0.0114818 -5.23394e-06 -0.0071904)
(-0.0114786 -4.04004e-06 -0.00719126)
(-0.0114751 -1.60784e-06 -0.00719325)
(-0.0167089 -4.16384e-06 -0.00782873)
(-0.0166971 -9.36947e-06 -0.00781772)
(-0.0166887 -1.05444e-05 -0.00781488)
(-0.016682 -9.92047e-06 -0.0078152)
(-0.0166759 -7.68592e-06 -0.00781808)
(-0.0166687 -3.10519e-06 -0.00782396)
(-0.0223778 -7.89347e-06 -0.00860801)
(-0.0223537 -1.68436e-05 -0.00859692)
(-0.0223383 -1.77181e-05 -0.00859603)
(-0.0223268 -1.60195e-05 -0.00859944)
(-0.0223164 -1.22021e-05 -0.00860696)
(-0.0223035 -4.94688e-06 -0.00861982)
(-0.0283386 -1.29426e-05 -0.00936556)
(-0.0282912 -2.56292e-05 -0.0093718)
(-0.0282659 -2.39345e-05 -0.00938135)
(-0.0282497 -1.97251e-05 -0.00939315)
(-0.0282363 -1.40053e-05 -0.00940877)
(-0.0282185 -5.51195e-06 -0.0094306)
(-0.03441 -1.70656e-05 -0.00947701)
(-0.0343251 -2.8162e-05 -0.00953127)
(-0.0342902 -1.73103e-05 -0.00956294)
(-0.0342748 -7.51936e-06 -0.00958787)
(-0.0342667 8.05305e-08 -0.0096106)
(-0.0342536 1.42193e-06 -0.00963416)
(-0.0402938 -1.21142e-05 -0.00747632)
(-0.0401647 -5.25608e-06 -0.00759815)
(-0.0401281 2.34814e-05 -0.00765124)
(-0.0401277 3.99273e-05 -0.00767913)
(-0.0401437 4.50587e-05 -0.00769051)
(-0.0401604 2.18063e-05 -0.0076872)
(-0.0463475 1.09624e-05 -0.00214428)
(-0.0461934 5.38005e-05 -0.00229918)
(-0.0461723 9.9584e-05 -0.00233971)
(-0.0462034 0.000117754 -0.00233513)
(-0.0462635 0.00011193 -0.00229694)
(-0.0463428 5.09975e-05 -0.00222108)
(-0.0478472 4.32976e-05 0.010048)
(-0.0477184 0.000112796 0.00995495)
(-0.0477381 0.0001432 0.00997956)
(-0.0478204 0.000140943 0.0100519)
(-0.0479461 0.00011734 0.0101648)
(-0.0481165 5.00532e-05 0.0103287)
(-0.0506336 4.92846e-05 0.026775)
(-0.0506149 9.61012e-05 0.0268828)
(-0.0506907 8.46424e-05 0.0269828)
(-0.0508161 6.21235e-05 0.0270896)
(-0.0509884 3.56407e-05 0.0272221)
(-0.0512192 1.14864e-05 0.0274039)
(-0.0418231 4.57726e-07 0.0755393)
(-0.0418495 -4.24686e-05 0.075644)
(-0.0418947 -0.000105133 0.0756783)
(-0.0419554 -0.000131775 0.075698)
(-0.0420409 -0.000130219 0.0757343)
(-0.0421578 -6.09244e-05 0.0758024)
(-0.00212157 -4.55855e-07 -0.010718)
(-0.00212121 -1.00933e-06 -0.0107179)
(-0.00212092 -9.51225e-07 -0.0107177)
(-0.00212067 -6.96657e-07 -0.0107174)
(-0.00212052 -3.41254e-07 -0.0107172)
(-0.00212043 -1.47091e-08 -0.0107169)
(-0.00649581 -7.50173e-07 -0.0111783)
(-0.00649441 -1.6737e-06 -0.0111767)
(-0.00649333 -1.70953e-06 -0.011176)
(-0.00649247 -1.36411e-06 -0.0111757)
(-0.00649198 -7.24433e-07 -0.0111758)
(-0.00649166 -1.47366e-07 -0.0111763)
(-0.0112606 -1.67099e-06 -0.0120548)
(-0.0112572 -3.53369e-06 -0.0120496)
(-0.0112549 -3.5208e-06 -0.0120477)
(-0.0112532 -2.80278e-06 -0.0120472)
(-0.0112523 -1.61683e-06 -0.012048)
(-0.0112519 -4.72504e-07 -0.0120501)
(-0.0166924 -3.29325e-06 -0.0133504)
(-0.0166848 -6.50222e-06 -0.0133416)
(-0.0166805 -5.86765e-06 -0.0133391)
(-0.0166778 -4.32856e-06 -0.0133394)
(-0.0166765 -2.26924e-06 -0.0133426)
(-0.0166761 -5.9849e-07 -0.013349)
(-0.0231696 -5.61787e-06 -0.0149573)
(-0.0231526 -9.98049e-06 -0.0149517)
(-0.023145 -7.32825e-06 -0.0149524)
(-0.0231413 -4.27671e-06 -0.0149566)
(-0.0231405 -1.15712e-06 -0.014965)
(-0.0231412 1.52444e-07 -0.014979)
(-0.0313223 -7.76777e-06 -0.0166343)
(-0.0312864 -1.10368e-05 -0.0166528)
(-0.0312744 -3.14667e-06 -0.0166666)
(-0.0312718 2.89735e-06 -0.0166805)
(-0.0312755 6.61442e-06 -0.0166975)
(-0.031283 3.82284e-06 -0.0167195)
(-0.0418206 -6.01499e-06 -0.0180029)
(-0.0417544 1.666e-07 -0.0180772)
(-0.0417407 1.85899e-05 -0.0181158)
(-0.0417477 2.8452e-05 -0.0181428)
(-0.0417681 3.09981e-05 -0.0181642)
(-0.0417986 1.49168e-05 -0.018181)
(-0.0538384 8.31263e-06 -0.0176466)
(-0.0537439 3.91031e-05 -0.0177858)
(-0.0537412 7.15839e-05 -0.0178414)
(-0.0537752 8.38616e-05 -0.0178641)
(-0.0538338 7.87057e-05 -0.0178626)
(-0.0539156 3.55534e-05 -0.0178326)
(-0.0670837 3.9282e-05 -0.0117682)
(-0.0669962 0.000103722 -0.0119135)
(-0.0670306 0.000135483 -0.0119385)
(-0.0671178 0.000136305 -0.0119122)
(-0.0672431 0.000112522 -0.0118412)
(-0.0674083 4.7247e-05 -0.0117152)
(-0.0771156 5.95568e-05 0.00954537)
(-0.0771158 0.000130624 0.00951182)
(-0.0772175 0.0001403 0.00957143)
(-0.0773674 0.000124675 0.00967112)
(-0.0775572 8.83695e-05 0.00981476)
(-0.0777851 3.28e-05 0.0100096)
(-0.0996412 4.55114e-05 0.0336967)
(-0.0997625 6.34934e-05 0.0338578)
(-0.0998949 1.54133e-05 0.0339487)
(-0.100044 -1.74947e-05 0.0340215)
(-0.100214 -3.905e-05 0.0341112)
(-0.10039 -2.38878e-05 0.0342281)
(-0.0777573 -5.5567e-05 0.0877545)
(-0.0778483 -0.000157826 0.0879088)
(-0.0779191 -0.000223924 0.0879777)
(-0.0779874 -0.000233141 0.088016)
(-0.0780686 -0.000191915 0.0880789)
(-0.07812 -8.21807e-05 0.0880782)
(-0.00191674 -2.47014e-07 -0.0145752)
(-0.00191636 -5.55188e-07 -0.0145753)
(-0.0019162 -4.41166e-07 -0.0145751)
(-0.00191612 -1.59213e-07 -0.0145749)
(-0.00191617 8.81907e-08 -0.0145747)
(-0.00191623 1.37282e-07 -0.0145744)
(-0.00591039 -5.68019e-07 -0.015341)
(-0.00590901 -1.03264e-06 -0.0153401)
(-0.00590843 -6.99715e-07 -0.0153395)
(-0.00590825 -2.38279e-07 -0.0153393)
(-0.00590846 2.29941e-07 -0.0153394)
(-0.00590877 2.30459e-07 -0.0153396)
(-0.0104057 -1.24135e-06 -0.0168448)
(-0.0104027 -2.02346e-06 -0.0168416)
(-0.0104017 -1.07065e-06 -0.0168403)
(-0.0104017 -7.34559e-08 -0.0168401)
(-0.0104025 7.89819e-07 -0.0168409)
(-0.0104034 5.70576e-07 -0.0168424)
(-0.0158108 -1.78444e-06 -0.0191393)
(-0.015805 -2.24803e-06 -0.0191344)
(-0.0158039 6.86251e-08 -0.0191332)
(-0.0158048 1.87805e-06 -0.019134)
(-0.015807 3.01642e-06 -0.019137)
(-0.0158094 1.66441e-06 -0.019142)
(-0.0225193 -9.5524e-07 -0.0221861)
(-0.0225087 1.01132e-06 -0.0221858)
(-0.0225081 5.55185e-06 -0.0221884)
(-0.0225113 8.11932e-06 -0.0221933)
(-0.0225167 8.70753e-06 -0.0222013)
(-0.0225226 4.16899e-06 -0.0222123)
(-0.0306981 3.54287e-06 -0.0258097)
(-0.0306794 1.24051e-05 -0.0258315)
(-0.0306805 2.02445e-05 -0.0258467)
(-0.0306893 2.31568e-05 -0.0258615)
(-0.0307023 2.13332e-05 -0.0258776)
(-0.0307176 9.56799e-06 -0.0258944)
(-0.0409183 1.45529e-05 -0.0298845)
(-0.0408899 3.73776e-05 -0.0299526)
(-0.0408965 4.85264e-05 -0.0299899)
(-0.0409168 4.99216e-05 -0.0300171)
(-0.0409464 4.24376e-05 -0.0300371)
(-0.0409847 1.82622e-05 -0.0300464)
(-0.0557215 3.19075e-05 -0.0333746)
(-0.0556947 7.1641e-05 -0.0334882)
(-0.0557162 8.00768e-05 -0.0335365)
(-0.0557583 7.48028e-05 -0.0335587)
(-0.0558191 5.76642e-05 -0.0335566)
(-0.055903 2.32529e-05 -0.0335217)
(-0.0810427 3.8217e-05 -0.0378681)
(-0.0810658 7.45692e-05 -0.0379613)
(-0.0811233 6.59586e-05 -0.0379719)
(-0.081196 4.93129e-05 -0.0379445)
(-0.0812932 2.73588e-05 -0.0378795)
(-0.0814221 7.75028e-06 -0.0377663)
(-0.100902 1.34522e-05 -0.0323981)
(-0.101018 -1.80452e-06 -0.0323704)
(-0.101102 -5.35433e-05 -0.0323023)
(-0.101175 -8.45843e-05 -0.0322137)
(-0.101263 -9.64886e-05 -0.0320995)
(-0.101361 -5.038e-05 -0.0319586)
(-0.115681 -9.08026e-05 -0.0288648)
(-0.115894 -0.000228581 -0.0286995)
(-0.115972 -0.000298595 -0.0286208)
(-0.115997 -0.000305464 -0.0285664)
(-0.116033 -0.000275164 -0.0285148)
(-0.115987 -0.000130522 -0.0284442)
(-0.0723633 -9.61142e-05 0.0830403)
(-0.0724851 -0.000198706 0.0831056)
(-0.0725214 -0.000219659 0.0831295)
(-0.0725088 -0.000168835 0.0830711)
(-0.072497 -0.000205694 0.0830043)
(-0.0724614 -0.000154805 0.08313)
(0.144181 -4.6658e-05 -4.10378)
(0.144178 -5.58604e-06 -4.10399)
(0.144186 3.43014e-05 -4.10403)
(0.144151 4.30932e-06 -4.10398)
(0.144139 6.57168e-05 -4.10394)
(0.144195 7.9935e-05 -4.10382)
(0.206119 7.5072e-06 -3.98956)
(0.206102 1.97537e-05 -3.98976)
(0.206094 -4.5219e-06 -3.98974)
(0.2061 -8.93012e-06 -3.98972)
(0.206104 -1.69572e-05 -3.98974)
(0.206068 5.57746e-07 -3.98958)
(0.070276 1.53096e-05 -4.06592)
(0.0702718 1.64077e-05 -4.06603)
(0.0702706 2.78533e-06 -4.06601)
(0.070276 -1.0238e-06 -4.06599)
(0.0702781 -1.41607e-05 -4.066)
(0.070265 -1.38408e-05 -4.06589)
(-0.201199 -3.69161e-05 -4.76397)
(-0.201337 -1.1058e-05 -4.76413)
(-0.201355 -9.34936e-06 -4.76407)
(-0.201369 1.52082e-05 -4.76404)
(-0.201355 1.14721e-06 -4.76409)
(-0.201193 2.29575e-05 -4.76384)
(-0.0847314 1.19194e-05 -4.36716)
(-0.084721 -6.52064e-06 -4.36732)
(-0.084728 -2.06465e-05 -4.36728)
(-0.0847393 -1.34075e-05 -4.36727)
(-0.0847444 -1.54904e-05 -4.36729)
(-0.0847641 -2.26053e-05 -4.36709)
(-0.0446225 1.40512e-05 -4.28925)
(-0.0446246 1.80611e-05 -4.28936)
(-0.0446256 6.04402e-06 -4.28932)
(-0.0446228 5.82457e-06 -4.2893)
(-0.0446204 -9.67264e-06 -4.28931)
(-0.0446328 -1.39426e-05 -4.28917)
(-1.4507 2.06553e-05 -3.42329)
(-1.45084 2.48359e-05 -3.42349)
(-1.45087 -2.19133e-05 -3.42345)
(-1.4509 -1.88835e-05 -3.42345)
(-1.4509 -4.19727e-05 -3.4235)
(-1.45078 -4.96277e-06 -3.42324)
(-0.133173 1.19996e-05 -3.74056)
(-0.133151 4.74017e-06 -3.7407)
(-0.133172 -7.99954e-06 -3.74068)
(-0.133187 4.27162e-07 -3.74068)
(-0.133187 -2.46725e-05 -3.74071)
(-0.133213 -3.07559e-05 -3.74049)
(0.0387416 1.28904e-05 -3.82057)
(0.0387527 1.75715e-05 -3.82066)
(0.0387502 1.09221e-05 -3.82063)
(0.0387527 8.51869e-06 -3.82062)
(0.0387547 -6.79984e-06 -3.82063)
(0.03873 -1.32888e-05 -3.82051)
(-0.821843 1.33656e-05 -3.62239)
(-0.82182 -1.96692e-05 -3.62279)
(-0.821883 -6.70851e-05 -3.62274)
(-0.821936 -5.86413e-05 -3.62274)
(-0.821974 -5.83387e-05 -3.62282)
(-0.822048 -2.62369e-05 -3.62235)
(0.0246682 2.78063e-05 -4.7387)
(0.0247096 2.45508e-05 -4.73894)
(0.0246942 -1.02043e-05 -4.73893)
(0.0246919 -1.03933e-05 -4.73895)
(0.0246929 -5.5743e-05 -4.73902)
(0.0246386 -5.59193e-05 -4.7387)
(0.123501 1.82335e-05 -4.28909)
(0.123504 2.61005e-05 -4.28923)
(0.123508 1.3683e-05 -4.28921)
(0.123509 1.20525e-05 -4.2892)
(0.12351 -1.34559e-05 -4.28922)
(0.123509 -2.13604e-05 -4.2891)
(-0.601288 -2.49014e-05 -2.61292)
(-0.601327 -7.3443e-05 -2.61335)
(-0.601402 -0.00010426 -2.61331)
(-0.601471 -8.68677e-05 -2.61326)
(-0.601501 -6.75766e-05 -2.61332)
(-0.601534 -2.5086e-05 -2.61281)
(-0.134209 2.55976e-05 -4.49351)
(-0.134182 2.18894e-05 -4.49374)
(-0.134179 -2.0875e-05 -4.49374)
(-0.134177 -2.30622e-05 -4.49376)
(-0.134181 -5.70447e-05 -4.49384)
(-0.134197 -4.42491e-05 -4.49354)
(-0.0149803 1.62263e-05 -3.82313)
(-0.0149818 1.81459e-05 -3.82328)
(-0.0149868 5.23435e-06 -3.82328)
(-0.0149901 3.80786e-06 -3.82329)
(-0.0149941 -1.79027e-05 -3.82332)
(-0.0149938 -2.3394e-05 -3.8232)
(0.282084 -2.00282e-05 -2.94538)
(0.282075 -7.15022e-05 -2.94578)
(0.281952 -8.27711e-05 -2.9458)
(0.281884 -8.42739e-05 -2.94583)
(0.281885 -9.62298e-05 -2.94592)
(0.281774 -6.9141e-05 -2.94549)
(0.0623468 2.95554e-05 -4.69615)
(0.0623556 3.46486e-05 -4.69636)
(0.0623693 4.13057e-06 -4.69633)
(0.0623841 2.98573e-06 -4.69632)
(0.0623755 -3.0927e-05 -4.69637)
(0.0624267 -2.59353e-05 -4.69612)
(-0.12304 1.06961e-05 -4.00671)
(-0.123048 3.01733e-06 -4.00686)
(-0.123053 -1.2808e-05 -4.00688)
(-0.123059 -1.42848e-05 -4.00689)
(-0.123067 -2.50044e-05 -4.00691)
(-0.123065 -2.07733e-05 -4.00679)
(0.580764 -7.0925e-05 -4.01626)
(0.580502 -0.000125978 -4.01671)
(0.580463 -0.000103646 -4.01668)
(0.580412 -0.000120185 -4.01672)
(0.580433 -8.38542e-05 -4.01684)
(0.58035 -2.81103e-05 -4.01651)
(0.0171491 -8.71202e-06 -4.11354)
(0.0171705 -3.68679e-05 -4.11363)
(0.0171363 -3.9809e-05 -4.11364)
(0.0171543 -3.55474e-05 -4.11363)
(0.0170965 2.85688e-05 -4.11364)
(0.0171901 5.8909e-05 -4.11342)
(-0.223144 3.47827e-06 -4.00647)
(-0.223147 -2.08881e-06 -4.0066)
(-0.223149 -1.76144e-05 -4.0066)
(-0.223158 -2.82367e-05 -4.0066)
(-0.223182 -3.10843e-05 -4.00659)
(-0.223163 -1.56567e-05 -4.00648)
(-0.314163 -9.07846e-06 -6.40956)
(-0.3152 -2.63019e-05 -6.41)
(-0.314973 -2.65998e-05 -6.40984)
(-0.315138 -2.22748e-05 -6.40985)
(-0.315357 -0.000135715 -6.40964)
(-0.315124 -0.000110716 -6.41058)
(-0.254764 9.08553e-06 -4.44449)
(-0.255003 -5.8944e-05 -4.44466)
(-0.255135 -1.72209e-05 -4.44468)
(-0.255168 -9.07044e-05 -4.44457)
(-0.255494 0.000113535 -4.44436)
(-0.254662 0.000257587 -4.44433)
(-0.271146 -1.32898e-05 -4.21931)
(-0.27109 -3.62565e-05 -4.2194)
(-0.271121 -6.69698e-05 -4.21936)
(-0.271136 -0.000115822 -4.21938)
(-0.271207 -2.9425e-05 -4.21941)
(-0.271161 4.48444e-05 -4.21926)
(-0.1139 0.000326526 -1.53531)
(-0.11453 0.000255899 -1.53602)
(-0.113931 -0.000144159 -1.53554)
(-0.114116 0.000136754 -1.5356)
(-0.113817 -0.00067465 -1.53423)
(-0.115928 -0.000916346 -1.53933)
(-2.40009 0.000484862 -3.61316)
(-2.40067 0.000300736 -3.6136)
(-2.40049 -1.90404e-05 -3.61325)
(-2.40062 1.50218e-05 -3.61305)
(-2.40099 -4.29168e-05 -3.61169)
(-2.39989 0.000101077 -3.61494)
(-0.868052 0.000133061 -3.96773)
(-0.868076 5.45078e-05 -3.96776)
(-0.868155 -0.000104458 -3.96756)
(-0.86825 -0.000190914 -3.96754)
(-0.868398 -4.16095e-05 -3.96719)
(-0.868072 0.000130666 -3.96794)
(9.98875 0.000251829 13.5671)
(9.99002 -6.86585e-06 13.5672)
(9.98973 -0.000466596 13.5669)
(9.98953 -0.000187798 13.5669)
(9.99016 -0.000679079 13.5677)
(9.98805 -0.000867748 13.5662)
(4.6906 0.0009764 7.49924)
(4.69296 0.000723941 7.50047)
(4.69219 -0.000379648 7.49956)
(4.69193 -7.50717e-05 7.49907)
(4.69274 -0.001298 7.50172)
(4.68933 -0.00147178 7.4939)
(-0.594409 0.000925646 2.18971)
(-0.593342 0.000968998 2.19185)
(-0.593678 0.00037167 2.19152)
(-0.593948 0.000390329 2.19091)
(-0.593652 -0.000189592 2.19277)
(-0.595568 -0.000285407 2.18626)
(7.34761 0.000409486 15.0564)
(7.3499 2.90007e-05 15.0571)
(7.34866 -0.000523542 15.0568)
(7.34798 -0.000138852 15.0571)
(7.3498 -0.00056154 15.0573)
(7.34536 -0.000772816 15.0573)
(7.95983 0.00143669 13.8248)
(7.9677 0.00110676 13.8277)
(7.96433 -2.52695e-05 13.8262)
(7.96523 -0.00017037 13.8257)
(7.96832 -0.00035747 13.8255)
(7.95793 -0.000137865 13.8262)
(5.13587 0.00125562 8.92728)
(5.1423 0.00134374 8.93297)
(5.1398 0.000885764 8.93131)
(5.14085 0.000128084 8.93007)
(5.14125 0.00099641 8.92765)
(5.13736 0.00145668 8.93089)
(6.32932 0.000257463 8.37575)
(6.33116 0.00022029 8.37694)
(6.33057 -2.61328e-05 8.37643)
(6.33068 -0.000227802 8.37662)
(6.33175 0.000411259 8.37748)
(6.32904 0.000579885 8.37552)
(5.97302 0.00110271 8.21466)
(5.97873 0.000774594 8.21981)
(5.97788 -0.000121373 8.21707)
(5.97987 -0.000410918 8.21543)
(5.97484 0.000417388 8.21781)
(5.98478 0.00088765 8.2131)
(6.41596 0.00171135 4.98618)
(6.42103 0.00138467 5.00397)
(6.41954 0.000489349 4.99814)
(6.42067 -0.00113928 4.9946)
(6.4179 0.00187408 4.98934)
(6.42104 0.00363564 5.00205)
(0.0553264 -5.83954e-05 1.34701)
(0.0556262 1.76864e-05 1.34721)
(0.0554587 -0.000387365 1.34738)
(0.0557382 -0.000423021 1.3466)
(0.0578669 -0.000357187 1.35123)
(0.0542072 -0.000391566 1.34272)
(-1.96209 0.00031331 -0.925501)
(-1.96276 0.000573359 -0.92576)
(-1.96259 -0.0014093 -0.925759)
(-1.96059 0.00582081 -0.925821)
(-1.97063 -0.00620334 -0.927313)
(-1.95348 -0.0136551 -0.924015)
(-0.241602 -0.000116206 1.59056)
(-0.24141 -9.69921e-05 1.59404)
(-0.242614 -0.000183324 1.58837)
(-0.238084 0.00154568 1.59992)
(-0.238352 -0.00168197 1.642)
(-0.242352 -0.00319302 1.54369)
(-0.60475 -0.00046351 1.93443)
(-0.604843 -0.000146866 1.93454)
(-0.604997 -0.000409695 1.93524)
(-0.605282 -0.00293899 1.93236)
(-0.602356 0.00157775 1.93635)
(-0.604984 0.00380611 1.9324)
(-1.69575 0.000440513 -1.03938)
(-1.69715 0.000964386 -1.04126)
(-1.69463 -0.00359348 -1.03895)
(-1.6984 0.0056874 -1.0432)
(-1.71585 -0.0040396 -1.06123)
(-1.67451 -0.0136713 -1.02058)
(1.46765 0.00043885 10.2709)
(1.4701 0.00122512 10.2749)
(1.46736 -0.00195899 10.2702)
(1.47606 0.0086957 10.2788)
(1.49599 -0.00902521 10.3351)
(1.44506 -0.0202336 10.2108)
(1.22328 -0.000302033 0.982094)
(1.22306 0.000357501 0.982101)
(1.2227 0.000359889 0.981997)
(1.21913 -0.0064309 0.981345)
(1.21845 0.0018483 0.984927)
(1.22904 0.00796416 0.97863)
(2.18445 -0.000721688 0.778748)
(2.18231 -0.000804868 0.777034)
(2.17721 -0.000226297 0.77422)
(2.18438 -0.00494847 0.778166)
(2.2409 0.00316279 0.810741)
(2.12556 0.00809432 0.745109)
(9.67124 0.0002471 14.2849)
(9.67311 0.000510937 14.2853)
(9.67268 -9.39197e-05 14.2825)
(9.6744 0.00410306 14.2845)
(9.69308 -0.00479256 14.3159)
(9.65496 -0.00913994 14.2512)
(-0.117233 0.000126605 -4.64544)
(-0.118323 0.000592691 -4.64584)
(-0.12064 0.00300343 -4.64977)
(-0.112194 0.00187114 -4.64584)
(-0.102767 -0.00788843 -4.62082)
(-0.131369 -0.00748807 -4.67899)
(7.78022 2.36016e-05 4.86946)
(7.7798 0.000336321 4.87)
(7.7811 1.18729e-05 4.87103)
(7.78591 -0.00134354 4.87319)
(7.78627 0.00122215 4.8721)
(7.78392 0.00229834 4.87548)
(12.2976 0.000559371 9.4742)
(12.2988 0.000721627 9.47675)
(12.2989 0.000225494 9.47495)
(12.2981 0.00189106 9.47481)
(12.3059 -0.00220459 9.48236)
(12.2906 -0.00397358 9.46616)
(2.53042 3.9335e-05 3.13083)
(2.52956 0.00010389 3.13068)
(2.52885 0.000343989 3.13061)
(2.53147 0.00270018 3.13083)
(2.54007 -0.00301163 3.13497)
(2.5185 -0.0053984 3.12592)
(9.03942 0.000493165 6.09094)
(9.04043 0.000753761 6.09356)
(9.03997 0.00060947 6.09225)