/*--------------------------------*- C++ -*----------------------------------*\
| =========                 |                                                 |
| \\      /  F ield         | OpenFOAM: The Open Source CFD Toolbox           |
|  \\    /   O peration     | Version:  v1612+                                |
|   \\  /    A nd           | Web:      www.OpenFOAM.com                      |
|    \\/     M anipulation  |                                                 |
\*---------------------------------------------------------------------------*/
FoamFile
{
    version     2.0;
    format      ascii;
    class       volScalarField;
    location    "4.15";
    object      alpha.water;
}
// * * * * * * * * * * * * * * * * * * * * * * * * * * * * * * * * * * * * * //

dimensions      [0 0 0 0 0 0 0];

internalField   nonuniform List<scalar> 
320
(
1
1
1
1
1.12524e-05
8.90076e-06
8.97672e-06
1.11025e-05
1.16307e-05
1.12398e-05
1.08505e-05
9.39313e-06
1.01034e-05
1.05406e-05
8.93753e-06
1.21678e-05
0.999988
0.999987
0.999987
0.999989
0.99999
0.999985
0.999984
0.999991
0.999985
0.999985
0.999995
0.999986
1
1
1
1
1
1
1
1
1
1
1
1
1
1
1
1
1
1
1
1
1
1
1
1
1
1
1
1
1.1205e-05
1.10904e-05
9.86819e-06
1.13023e-05
1.00935e-05
7.42642e-06
9.73077e-06
7.59131e-06
1.14511e-05
1.06221e-05
1.00785e-05
8.90746e-06
1.07896e-05
9.16969e-06
9.57659e-06
8.77762e-06
8.89894e-06
1.03905e-05
1.21201e-05
1.03511e-05
0.999994
0.999989
0.999987
0.999987
0.999994
0.999996
0.999993
0.999996
0.999987
0.999991
0.999994
0.999996
0.999987
0.999994
0.999991
0.999994
0.999995
0.999991
0.999988
0.999995
1
1
1
1
1
1
1
1
1
1
1
1
1
1
1
1
1
1
1
1
1
1
1
1
1
1
1
1
1
1
1
1
1
1
1
1
1
1
1
1
1
1
1
1
1
1
1
1
1
1
1
1
1
1
1
1
1
1
1
1
1
1
1
1
1
1
1
1
1
1
1
1
1
1
1
1
1.15389e-05
8.53409e-06
1.03325e-05
1.01923e-05
1.21241e-05
1.14888e-05
1.15456e-05
1.1382e-05
1.0116e-05
1.05279e-05
9.91357e-06
1.14901e-05
1.22376e-05
1.12535e-05
1.23402e-05
9.88997e-06
1.08461e-05
1.05252e-05
1.17136e-05
1.06275e-05
1.31128e-05
9.20537e-06
8.76019e-06
9.86924e-06
1.03208e-05
1.00447e-05
1.02496e-05
1.16463e-05
0.999987
0.999995
0.999987
0.999997
0.999993
0.999991
0.999983
0.999986
0.999993
0.999979
0.999983
0.999989
0.999994
0.999994
0.999989
0.999986
0.999984
0.999987
0.999988
0.99999
0.999986
0.999989
0.999991
0.999984
0.999991
0.99999
0.999987
0.99999
1
1
1
1
1
1
1
1
1
1
1
1
1
1
1
1
1
1
1
1
1
1
1
1
1
1
1
1
1
1
1
1
1
1
1
1
1
1
1
1
1
1
1
1
1
1
1
1
1
1
1
1
1
1
1
1
1
1
1
1
1
1
1
1
1
1
1
1
1
1
1
1
1
1
1
1
1
1
1
1
1
1
1
1
1.04637e-05
8.86418e-06
9.08772e-06
9.05994e-06
0.999986
0.999993
0.999987
0.999994
)
;

boundaryField
{
    top_fluid_surface
    {
        type            inletOutlet;
        inletValue      uniform 0;
        value           nonuniform List<scalar> 
64
(
0
8.90076e-06
8.97672e-06
0
0
0
0
9.39313e-06
0
0
8.93753e-06
0
0
0
9.86819e-06
0
1.00935e-05
7.42642e-06
9.73077e-06
7.59131e-06
0
0
1.00785e-05
8.90746e-06
0
9.16969e-06
9.57659e-06
8.77762e-06
8.89894e-06
0
0
1.03511e-05
0
8.53409e-06
1.03325e-05
1.01923e-05
0
0
0
0
1.0116e-05
1.05279e-05
9.91357e-06
0
0
1.12535e-05
0
9.88997e-06
0
0
0
0
0
9.20537e-06
8.76019e-06
0
1.03208e-05
1.00447e-05
0
0
0
8.86418e-06
9.08772e-06
9.05994e-06
)
;
    }
    bottom_fluid_surface
    {
        type            zeroGradient;
    }
    lateral_surface_1
    {
        type            zeroGradient;
    }
    lateral_surface_2
    {
        type            zeroGradient;
    }
    lateral_surface_3
    {
        type            zeroGradient;
    }
    lateral_surface_4
    {
        type            zeroGradient;
    }
}


// ************************************************************************* //
