/*--------------------------------*- C++ -*----------------------------------*\
| =========                 |                                                 |
| \\      /  F ield         | OpenFOAM: The Open Source CFD Toolbox           |
|  \\    /   O peration     | Version:  v1612+                                |
|   \\  /    A nd           | Web:      www.OpenFOAM.com                      |
|    \\/     M anipulation  |                                                 |
\*---------------------------------------------------------------------------*/
FoamFile
{
    version     2.0;
    format      ascii;
    class       volScalarField;
    location    "4.8";
    object      p_rgh;
}
// * * * * * * * * * * * * * * * * * * * * * * * * * * * * * * * * * * * * * //

dimensions      [1 -1 -2 0 0 0 0];

internalField   nonuniform List<scalar> 
320
(
-9800.21
-9800.19
-9800.2
-9800.2
-0.0050479
-0.00460132
-0.00467083
-0.00318076
-0.00378759
0.000695885
-0.00533205
0.00246929
-0.00498483
-0.00632456
0.00899936
-0.00132832
-9799.93
-9799.96
-9799.95
-9799.96
-9799.89
-9799.92
-9799.89
-9800.02
-9799.92
-9799.91
-9800.07
-9799.91
-9800.2
-9800.19
-9800.2
-9800.2
-9800.21
-9800.21
-9800.21
-9800.21
-9800.21
-9800.2
-9800.2
-9800.21
-9800.21
-9800.2
-9800.21
-9800.2
-9800.2
-9800.2
-9800.2
-9800.2
-9800.21
-9800.21
-9800.21
-9800.21
-9800.21
-9800.21
-9800.2
-9800.2
-0.000248423
-0.00572604
-0.00260978
0.000997126
0.00871927
0.0107123
0.00110253
0.00766017
-0.00523364
0.00112572
0.00244786
0.0113264
0.00163323
0.0113202
0.00408283
0.00850255
0.0086782
-0.00408844
-0.00191023
0.00437958
-9799.94
-9799.92
-9799.96
-9799.98
-9800.07
-9800.11
-9800.05
-9800.1
-9799.92
-9800
-9800.06
-9800.08
-9799.94
-9800.07
-9800.03
-9800.07
-9800.08
-9799.93
-9799.93
-9800.06
-9800.2
-9800.2
-9800.19
-9800.21
-9800.2
-9800.19
-9800.19
-9800.18
-9800.21
-9800.21
-9800.21
-9800.21
-9800.23
-9800.22
-9800.21
-9800.2
-9800.2
-9800.2
-9800.21
-9800.2
-9800.2
-9800.2
-9800.2
-9800.21
-9800.2
-9800.19
-9800.2
-9800.19
-9800.21
-9800.21
-9800.21
-9800.21
-9800.22
-9800.21
-9800.22
-9800.21
-9800.2
-9800.2
-9800.2
-9800.2
-9800.21
-9800.2
-9800.21
-9800.2
-9800.2
-9800.2
-9800.2
-9800.21
-9800.2
-9800.21
-9800.21
-9800.21
-9800.21
-9800.21
-9800.2
-9800.2
-9800.2
-9800.2
-9800.2
-9800.2
-9800.2
-9800.2
-9800.2
-9800.2
-9800.21
-9800.21
-9800.21
-9800.21
-9800.22
-9800.21
-9800.21
-9800.21
-9800.21
-9800.2
-9800.21
-9800.2
0.000205365
0.000970031
-0.00736755
0.00700821
0.0063206
0.00501029
-0.0106939
-0.00517698
0.0033355
-0.0209208
-0.0140469
-0.00257137
-0.00139491
0.000826953
-0.0031453
-0.00529683
-0.0040225
-0.000505395
0.0052807
-0.00236876
0.000566696
-0.001219
0.000572316
-0.00289518
0.00324535
-0.00145037
-0.00141128
-0.0024888
-9799.94
-9800.01
-9799.92
-9800.05
-9800.01
-9800.01
-9799.87
-9799.92
-9800.05
-9799.84
-9799.9
-9799.95
-9799.93
-9800.01
-9799.94
-9799.93
-9799.89
-9799.97
-9799.96
-9799.89
-9799.89
-9800.02
-9800.03
-9799.92
-9800.02
-9799.96
-9799.92
-9799.92
-9800.21
-9800.2
-9800.21
-9800.2
-9800.22
-9800.21
-9800.21
-9800.2
-9800.19
-9800.2
-9800.19
-9800.2
-9800.21
-9800.22
-9800.21
-9800.21
-9800.22
-9800.22
-9800.23
-9800.23
-9800.24
-9800.21
-9800.2
-9800.21
-9800.21
-9800.21
-9800.21
-9800.2
-9800.21
-9800.2
-9800.2
-9800.2
-9800.21
-9800.2
-9800.2
-9800.2
-9800.2
-9800.2
-9800.2
-9800.21
-9800.2
-9800.21
-9800.21
-9800.21
-9800.22
-9800.22
-9800.22
-9800.22
-9800.23
-9800.22
-9800.21
-9800.21
-9800.21
-9800.2
-9800.21
-9800.21
-9800.21
-9800.2
-9800.21
-9800.2
-9800.21
-9800.2
-9800.2
-9800.2
-9800.2
-9800.2
-9800.2
-9800.21
-9800.21
-9800.21
-9800.21
-9800.21
-9800.21
-9800.22
-9800.22
-9800.22
-9800.22
-9800.22
-9800.21
-9800.21
-9800.21
-9800.21
-9800.21
-9800.21
-0.00629385
0.00701344
-0.00279137
0.0119783
-9799.86
-9800.06
-9799.96
-9800.07
)
;

boundaryField
{
    top_fluid_surface
    {
        type            totalPressure;
        rho             rho;
        psi             none;
        gamma           1;
        p0              uniform 0;
        value           nonuniform List<scalar> 
64
(
-5.30285e-09
-6.29037e-09
-6.49085e-09
-8.80135e-10
-2.35957e-09
-1.1056e-10
-7.44775e-09
0
-7.33274e-09
-8.38057e-09
0
-3.37936e-10
-1.50933e-10
-7.89694e-09
-2.53879e-09
0
0
0
0
0
-5.18534e-09
0
0
0
0
0
0
0
0
-3.99022e-09
-1.99771e-09
0
-2.07301e-12
-2.4236e-10
-1.79369e-08
0
0
0
-3.50587e-08
-6.11376e-09
0
-9.98465e-08
-5.6851e-08
-1.20747e-09
-3.59822e-10
0
-6.05586e-09
-5.04287e-09
-2.74601e-09
-1.54711e-08
0
-3.51792e-09
-4.2288e-10
-4.00505e-12
0
-3.4172e-09
0
-2.08609e-09
-1.66567e-09
-3.15148e-10
-8.84855e-09
0
-6.78426e-10
0
)
;
    }
    bottom_fluid_surface
    {
        type            fixedFluxPressure;
        gradient        uniform 0;
        value           nonuniform List<scalar> 
64
(
-9800.21
-9800.2
-9800.21
-9800.2
-9800.2
-9800.2
-9800.2
-9800.21
-9800.2
-9800.21
-9800.21
-9800.21
-9800.21
-9800.21
-9800.2
-9800.2
-9800.2
-9800.2
-9800.2
-9800.2
-9800.2
-9800.2
-9800.2
-9800.2
-9800.21
-9800.21
-9800.21
-9800.21
-9800.22
-9800.21
-9800.21
-9800.21
-9800.21
-9800.2
-9800.21
-9800.2
-9800.21
-9800.2
-9800.21
-9800.2
-9800.21
-9800.2
-9800.2
-9800.2
-9800.2
-9800.2
-9800.2
-9800.21
-9800.21
-9800.21
-9800.21
-9800.21
-9800.21
-9800.22
-9800.22
-9800.22
-9800.22
-9800.22
-9800.21
-9800.21
-9800.21
-9800.21
-9800.21
-9800.21
)
;
    }
    lateral_surface_1
    {
        type            fixedFluxPressure;
        gradient        uniform 0;
        value           nonuniform List<scalar> 
40
(
0.000205365
0.000970031
-0.00736755
0.00700821
0.0063206
0.00501029
-0.0106939
-0.0024888
-9799.94
-9800.01
-9799.92
-9800.05
-9800.01
-9800.01
-9799.87
-9799.92
-9800.21
-9800.2
-9800.21
-9800.2
-9800.22
-9800.21
-9800.21
-9800.2
-9800.21
-9800.2
-9800.2
-9800.2
-9800.21
-9800.2
-9800.2
-9800.21
-9800.21
-9800.2
-9800.21
-9800.2
-9800.21
-9800.2
-9800.2
-9800.21
)
;
    }
    lateral_surface_2
    {
        type            fixedFluxPressure;
        gradient        uniform 0;
        value           nonuniform List<scalar> 
40
(
0.000826953
-0.0031453
-0.00529683
-0.0040225
-0.000505395
0.0052807
-0.00236876
0.000566696
-9800.01
-9799.94
-9799.93
-9799.89
-9799.97
-9799.96
-9799.89
-9799.89
-9800.22
-9800.21
-9800.21
-9800.22
-9800.22
-9800.23
-9800.23
-9800.24
-9800.21
-9800.21
-9800.21
-9800.22
-9800.22
-9800.22
-9800.22
-9800.23
-9800.21
-9800.21
-9800.21
-9800.21
-9800.22
-9800.22
-9800.22
-9800.22
)
;
    }
    lateral_surface_3
    {
        type            fixedFluxPressure;
        gradient        uniform 0;
        value           nonuniform List<scalar> 
40
(
-0.0106939
-0.00517698
0.0033355
-0.0209208
-0.0140469
-0.00257137
-0.00139491
0.000826953
-9799.87
-9799.92
-9800.05
-9799.84
-9799.9
-9799.95
-9799.93
-9800.01
-9800.21
-9800.2
-9800.19
-9800.2
-9800.19
-9800.2
-9800.21
-9800.22
-9800.2
-9800.2
-9800.2
-9800.2
-9800.2
-9800.21
-9800.2
-9800.21
-9800.2
-9800.2
-9800.2
-9800.2
-9800.2
-9800.21
-9800.21
-9800.21
)
;
    }
    lateral_surface_4
    {
        type            fixedFluxPressure;
        gradient        uniform 0;
        value           nonuniform List<scalar> 
40
(
0.000566696
-0.001219
0.000572316
-0.00289518
0.00324535
-0.00145037
-0.00141128
-0.0024888
-9799.89
-9800.02
-9800.03
-9799.92
-9800.02
-9799.96
-9799.92
-9799.92
-9800.24
-9800.21
-9800.2
-9800.21
-9800.21
-9800.21
-9800.21
-9800.2
-9800.23
-9800.22
-9800.21
-9800.21
-9800.21
-9800.2
-9800.21
-9800.21
-9800.22
-9800.22
-9800.21
-9800.21
-9800.21
-9800.21
-9800.21
-9800.21
)
;
    }
}


// ************************************************************************* //
