/*--------------------------------*- C++ -*----------------------------------*\
| =========                 |                                                 |
| \\      /  F ield         | OpenFOAM: The Open Source CFD Toolbox           |
|  \\    /   O peration     | Version:  v1612+                                |
|   \\  /    A nd           | Web:      www.OpenFOAM.com                      |
|    \\/     M anipulation  |                                                 |
\*---------------------------------------------------------------------------*/
FoamFile
{
    version     2.0;
    format      ascii;
    class       surfaceScalarField;
    location    "4.8";
    object      phi;
}
// * * * * * * * * * * * * * * * * * * * * * * * * * * * * * * * * * * * * * //

dimensions      [0 3 -1 0 0 0 0];

internalField   nonuniform List<scalar> 
816
(
-2.89705e-06
-6.14041e-06
2.67285e-06
-4.24636e-06
-6.92408e-06
1.75462e-05
2.33824e-06
3.43231e-06
-5.94263e-07
6.78729e-06
-1.48497e-05
-5.7255e-06
3.27836e-06
4.4091e-06
5.13262e-06
-1.32384e-05
-2.69469e-06
5.57997e-06
5.70456e-06
-1.19922e-05
9.69098e-05
1.47743e-05
-8.58992e-06
-7.43272e-05
0.000194643
9.82156e-05
-2.87057e-07
-1.56823e-06
0.000196711
8.76873e-06
7.74963e-06
6.95085e-05
0.000204302
0.000167293
-4.86937e-06
-0.000314283
0.000276921
0.000223024
1.20193e-05
-0.000116699
0.000176289
0.000230981
1.86583e-06
-0.000205348
0.000156702
0.000228785
8.77535e-06
4.83341e-05
0.000161567
0.000253127
-7.64694e-06
0.000160555
-0.000268484
-6.99862e-05
-2.37137e-06
0.00029383
0.0002308
6.88713e-05
-4.85376e-06
8.70036e-05
3.78181e-05
-0.000150156
1.1258e-06
0.00011707
-0.000279591
-3.30877e-06
-9.27964e-05
1.49e-05
5.95523e-06
-1.19915e-06
-2.52642e-05
-4.96835e-06
1.1914e-05
1.21996e-05
-2.0798e-05
-3.44223e-08
1.38249e-05
5.11035e-06
-4.31356e-06
4.48758e-07
1.77494e-05
-2.85486e-06
6.16052e-06
-5.87062e-06
3.16629e-08
-5.40221e-06
5.6791e-06
-2.91042e-06
-1.71392e-07
6.58126e-06
-1.62551e-05
1.71211e-06
7.15877e-06
4.93513e-06
-1.18515e-05
-2.43997e-06
1.46455e-05
1.85723e-07
5.76857e-06
-9.85791e-06
2.55686e-06
4.93164e-06
-2.95977e-05
3.31144e-06
1.52606e-05
1.09508e-05
-2.3316e-05
-1.5914e-06
8.06197e-06
-5.01035e-07
9.80387e-06
-7.01691e-07
-2.93878e-07
-4.78966e-06
3.49226e-06
-3.00653e-06
-3.06844e-06
-4.63101e-06
-1.2226e-05
-2.67509e-06
-7.08207e-06
-1.01688e-05
-3.20271e-06
-7.8551e-07
-2.61187e-06
-9.96897e-07
-6.9892e-06
9.98621e-07
1.84946e-06
1.94261e-06
7.80825e-07
3.1861e-06
-7.21215e-08
4.62871e-07
-8.03228e-06
-3.27671e-06
-4.63135e-06
2.36098e-07
-5.73624e-06
-4.12483e-07
3.77578e-07
1.81548e-06
7.06456e-06
-2.98189e-06
-1.41727e-05
-4.18801e-06
-7.87835e-06
-9.90559e-06
-1.11928e-05
-8.19791e-07
-5.78402e-06
4.55575e-06
-3.10485e-06
-1.76185e-06
-9.19058e-06
-4.26719e-06
-1.18422e-06
-3.0498e-06
1.94403e-06
-2.6381e-06
-1.99245e-06
8.84593e-07
2.53961e-06
-8.56604e-09
2.17006e-06
-3.30176e-06
2.03823e-06
2.26915e-06
1.06492e-06
-1.53313e-06
2.8869e-06
1.90473e-06
-7.62498e-07
-3.68634e-06
-2.02463e-06
-3.80494e-06
-4.04695e-06
-2.22681e-06
-2.12758e-06
-6.16594e-07
-1.30981e-06
-4.15697e-06
-5.64249e-07
2.01461e-07
1.39825e-06
-4.16725e-07
7.42569e-07
4.32523e-07
6.65453e-07
1.554e-07
-2.12018e-06
-2.79467e-06
-2.54313e-06
1.76142e-08
-6.56142e-07
-2.08229e-06
1.32657e-07
3.85864e-06
-1.16826e-07
-1.53655e-06
-3.0861e-06
-4.99506e-06
-4.43501e-06
-6.09126e-06
-9.68647e-07
-3.41389e-06
-3.55493e-06
-1.85461e-06
1.24118e-06
-5.33998e-06
-3.16538e-06
-4.95156e-07
-0.000221678
0.00012094
1.39821e-05
1.93005e-05
1.34334e-05
7.84888e-07
-7.06168e-05
-9.81172e-06
3.70063e-06
0.000134038
-5.83153e-05
4.91673e-06
7.88037e-05
-1.41337e-05
-1.60821e-06
-5.23971e-05
-0.00031508
-0.000143279
-8.58568e-07
-0.000131968
-5.55165e-05
-1.90235e-06
-0.000469796
-0.000163721
5.87598e-07
-0.000412375
-4.00825e-05
2.51565e-06
-0.000141735
0.00021273
8.95716e-06
-0.000195531
-8.50837e-05
0.000264763
4.6639e-06
-1.99356e-05
5.20201e-05
1.21185e-06
-0.000212615
0.000138613
-6.45961e-06
2.48673e-05
-8.12921e-06
9.71734e-08
-3.16376e-05
-9.85506e-06
-8.65391e-08
-9.09848e-05
-6.89498e-05
-0.000179129
-8.01183e-06
5.31389e-05
-0.00038729
1.61288e-06
-9.03347e-05
-0.00017209
1.48138e-05
5.98174e-05
-6.97897e-05
1.67402e-05
-2.07587e-05
4.16454e-06
-8.28534e-05
-3.92583e-05
-4.76808e-06
-3.00638e-06
2.20199e-05
2.8424e-06
2.38217e-06
-4.97605e-06
-5.38795e-06
6.05583e-06
-1.12675e-05
1.1121e-05
1.73522e-06
-2.4294e-07
8.22345e-06
1.05094e-05
1.93407e-05
-1.30257e-05
-1.35973e-05
5.24784e-07
2.47483e-05
-4.51306e-08
-5.90254e-06
1.52971e-05
-1.87771e-05
-2.36386e-05
3.99439e-05
-2.70472e-05
-2.13686e-05
4.58236e-06
-2.67217e-06
9.13163e-06
-1.45201e-05
3.29279e-06
-1.44132e-05
3.67453e-06
1.29712e-05
2.18707e-06
-8.87597e-06
2.48058e-05
-1.13438e-05
1.11751e-06
-2.8601e-05
-5.48748e-09
2.43986e-06
1.36386e-05
-1.1891e-05
1.44614e-05
5.17863e-06
-1.37211e-05
-1.04088e-06
1.61635e-06
7.87451e-06
8.37899e-06
-1.38419e-05
1.87622e-05
-1.4562e-05
-1.08275e-05
1.89776e-05
-6.76281e-06
-2.68089e-06
5.75904e-06
-3.98391e-06
1.63348e-05
-4.94634e-06
-1.32777e-05
6.3504e-06
2.68164e-06
1.10674e-05
-7.24707e-06
2.25119e-06
-2.52857e-06
-1.01808e-06
-7.12999e-07
-4.95017e-06
-6.59009e-06
1.08778e-06
-2.61869e-07
-2.79402e-06
-5.04532e-06
8.93849e-06
7.42384e-06
9.10006e-06
-8.96305e-07
1.10755e-05
2.55546e-06
1.06212e-06
6.63616e-06
8.6261e-06
9.40384e-06
1.81758e-05
1.33864e-05
6.70426e-06
2.02701e-06
1.96875e-06
-6.93034e-07
-6.28007e-06
-5.04544e-06
4.21032e-06
2.47227e-06
6.08048e-06
-9.12118e-07
9.08206e-06
1.13614e-05
6.42223e-06
-9.03935e-07
-1.25904e-05
1.0193e-06
-1.67538e-06
6.05482e-06
4.14678e-06
-5.25614e-06
2.1331e-06
4.65687e-06
1.96255e-06
-3.78132e-06
3.59268e-06
-5.09795e-06
-3.38973e-07
8.58062e-06
5.9287e-06
2.62355e-06
8.73013e-06
4.25305e-06
1.72296e-06
3.07277e-06
-6.65699e-07
7.76053e-06
4.03849e-06
8.93156e-06
4.40374e-06
1.06499e-06
3.98547e-06
-3.73707e-06
1.79899e-06
-7.69992e-07
-1.18898e-06
-5.41473e-07
-6.82755e-08
-4.75528e-06
8.67513e-07
-3.91057e-07
-2.54521e-06
-2.48224e-06
2.45497e-06
4.09786e-06
5.74616e-06
-4.39862e-07
3.70768e-06
1.18058e-06
2.10994e-07
2.3592e-06
5.02138e-06
5.0127e-06
5.41519e-06
8.37946e-06
3.7741e-06
4.12124e-07
7.24312e-07
-4.36823e-07
-6.07075e-07
-3.59881e-06
2.1373e-06
1.26533e-06
2.11779e-06
-5.4442e-07
5.06821e-06
3.48207e-06
3.42513e-06
-8.4715e-07
-3.42626e-06
6.27809e-07
-1.11744e-06
1.52084e-06
1.72761e-06
-2.8381e-06
5.13115e-07
2.27997e-06
1.01363e-06
-2.40125e-06
1.54219e-06
-3.37406e-06
-4.87621e-07
2.50468e-06
3.21144e-06
1.08561e-06
2.93376e-06
2.39277e-06
7.74892e-07
8.72476e-07
-6.56457e-07
2.17492e-06
2.39092e-06
5.00763e-06
-3.6823e-07
-8.73225e-07
5.31578e-07
-1.27925e-06
1.30827e-06
-1.12734e-07
5.92217e-07
-2.1394e-06
1.1227e-06
1.20585e-06
-1.09686e-06
2.17262e-06
-9.49781e-07
-1.38909e-06
-9.26961e-07
-1.54257e-06
-1.64622e-06
-7.37642e-08
-4.0526e-07
-1.61821e-06
-2.73836e-07
3.74981e-07
-8.00108e-08
-6.24598e-07
4.84478e-07
-1.39663e-06
-1.72222e-06
4.03994e-07
1.74661e-07
-1.09061e-08
1.43753e-06
-1.74038e-06
-4.07939e-07
-2.27825e-06
-3.65935e-06
-2.43488e-07
-2.54455e-06
-1.14379e-06
-3.51626e-06
-9.24828e-07
2.05361e-06
5.40855e-07
-2.1484e-06
6.75977e-07
-3.37233e-07
8.67296e-07
-1.90027e-06
8.81656e-07
-7.89043e-07
-1.07753e-06
1.46366e-06
2.96472e-06
-5.06007e-08
1.0731e-06
3.28492e-07
2.37183e-06
2.2909e-06
2.83046e-06
1.15294e-06
1.62211e-07
7.40323e-07
-1.38012e-06
1.19602e-06
1.42898e-06
-2.83612e-07
3.06219e-06
2.04368e-06
4.26411e-07
6.54165e-07
-4.55602e-08
1.57338e-06
-1.85696e-06
1.56039e-06
7.59741e-07
-1.54557e-06
-1.00674e-06
-8.18224e-07
1.54424e-06
1.80935e-07
7.86184e-07
4.99291e-08
5.36918e-08
7.68829e-07
1.95722e-06
-3.1779e-05
-5.45362e-05
-2.04546e-06
-4.8138e-05
3.50062e-05
0.000193625
1.50766e-05
2.29813e-05
-2.39464e-06
-0.00011902
-9.02239e-06
-0.0003603
-5.15748e-06
9.45095e-05
1.05063e-05
1.12194e-06
-4.81744e-06
-0.000285116
-8.30155e-06
8.85916e-05
3.45703e-06
0.000271748
5.17483e-06
0.000244326
-4.3167e-06
7.65435e-05
1.48921e-05
2.53987e-05
3.03791e-05
9.34813e-05
1.2756e-05
0.000260678
1.66065e-06
0.000201228
-4.37229e-06
0.000247914
0.000164746
4.67075e-05
-4.80537e-06
5.1424e-05
2.62963e-05
2.54313e-06
7.10282e-06
-0.000136846
9.3422e-08
-0.000134671
-3.21405e-06
-8.52023e-05
-8.99203e-07
-0.000170078
5.25253e-06
-0.000109411
1.96577e-05
-7.16565e-05
2.85533e-06
-1.59362e-05
4.27635e-07
-5.36146e-07
-6.4408e-06
1.00645e-06
3.15607e-05
1.58077e-05
-6.01602e-06
3.53594e-06
2.004e-05
-1.32697e-05
1.61485e-05
-1.96394e-05
-1.17535e-05
1.47428e-05
-2.42666e-05
1.32114e-05
-1.96836e-05
-1.42048e-05
1.27543e-05
-1.00034e-05
-1.98844e-05
8.55323e-06
-4.14153e-05
9.25491e-06
-1.46881e-05
-4.64343e-07
2.64488e-05
-5.74396e-06
2.3722e-05
6.60653e-06
-1.49984e-05
5.97457e-06
1.94528e-06
-3.90764e-06
-1.14346e-05
-6.22934e-06
-1.04876e-05
-6.44814e-06
-9.77695e-06
-5.7484e-06
-7.54787e-07
2.37087e-05
-2.21393e-05
7.87078e-06
6.56258e-06
-1.30754e-05
2.07821e-05
-4.62428e-06
-2.31589e-05
-4.52055e-06
-6.77932e-06
-2.8072e-07
1.21791e-05
7.66005e-06
-1.70599e-05
-1.54495e-05
-6.7558e-06
7.03436e-06
-2.68744e-06
3.28381e-06
1.4307e-05
-1.24032e-06
-2.51163e-06
2.23084e-06
9.99639e-06
7.535e-06
8.05417e-06
7.91774e-06
-4.70789e-06
-4.40034e-06
-1.1933e-05
-5.13441e-06
-9.83888e-06
4.39232e-06
5.7858e-06
2.55125e-06
-9.40943e-06
-6.56383e-06
-1.8902e-05
-1.27911e-05
-6.50465e-06
-4.3615e-06
1.2985e-05
7.82999e-06
1.15473e-05
3.63768e-06
-6.59599e-06
4.08364e-06
5.89116e-07
4.27925e-06
-5.20707e-06
3.69495e-07
-5.57038e-06
-9.48745e-07
-4.33727e-06
3.40149e-06
-4.64595e-07
-9.42283e-06
-9.3089e-06
-3.09871e-06
2.158e-06
3.36743e-06
9.21081e-06
-3.27992e-06
-1.05871e-05
-3.11605e-06
-2.68296e-06
2.97878e-06
5.42757e-06
1.90866e-06
-7.06494e-06
-6.52112e-06
-3.37487e-06
3.72625e-06
-6.61833e-07
1.90521e-06
5.26272e-06
-6.76961e-07
-1.12533e-06
1.39921e-06
3.17481e-06
5.24381e-06
1.67922e-06
5.55445e-06
-8.98968e-07
-2.6571e-06
-3.71133e-06
-3.24202e-06
-3.49899e-06
2.70913e-06
1.02289e-06
1.40261e-06
-3.07806e-06
-4.60593e-06
-4.51606e-06
-8.30064e-06
-2.08909e-06
-2.81336e-06
3.91888e-06
5.22883e-06
3.51416e-06
2.37779e-06
-1.62545e-06
2.15189e-06
2.72595e-07
2.32013e-06
-1.94514e-06
-3.9123e-07
-2.2221e-06
-6.63781e-07
-2.31215e-06
1.64085e-06
-5.73444e-07
-4.70261e-06
-3.00184e-06
-1.74431e-06
2.16048e-07
2.13368e-06
1.99873e-06
-2.04234e-06
-3.19753e-06
-2.23355e-06
-1.02964e-07
1.40702e-06
1.11792e-06
9.70387e-07
-1.62729e-06
-1.86967e-06
-1.66891e-06
1.74843e-06
1.42228e-06
-3.8431e-08
1.24529e-06
2.14207e-06
2.71438e-06
-9.89501e-07
-1.51164e-06
5.90115e-07
-1.08208e-07
-1.79234e-06
-3.72544e-06
-1.18117e-06
2.34345e-06
1.92054e-06
1.92039e-06
2.02574e-06
4.40735e-07
-2.95587e-07
6.83708e-07
-2.32955e-06
-1.34553e-06
-3.37789e-07
-1.99461e-06
-1.32509e-06
-1.75314e-07
1.3855e-07
-0.000120686
0.000289088
-3.60344e-06
3.86248e-05
-5.36788e-06
0.000121431
1.60687e-06
-7.87342e-06
9.60569e-06
1.21584e-05
-4.61394e-06
8.08817e-06
)
;

boundaryField
{
    top_fluid_surface
    {
        type            calculated;
        value           nonuniform List<scalar> 
64
(
-0.000194099
-0.00020144
-0.000205637
-9.98552e-05
-0.000122061
-7.59169e-06
-0.000214393
0.000111857
-0.000212352
-0.000242804
0.000382387
-5.39178e-05
-2.50017e-05
-0.000241133
-0.000121991
2.24571e-05
0.000357747
0.000467923
7.2309e-05
0.000361815
-0.000203336
1.33008e-05
0.000106421
0.000464666
4.92428e-05
0.000461209
0.00016006
0.000378225
0.00040255
-0.000169893
-9.72242e-05
0.000176881
-6.41924e-07
-6.50184e-06
-0.000335776
0.000307164
0.000283021
0.000193388
-0.000476931
-0.000208028
0.000183653
-0.000857253
-0.000610602
-8.82725e-05
-5.37316e-05
2.7915e-05
-0.000171236
-0.000198934
-0.000144435
-6.99679e-06
0.000176072
-0.000113904
-1.56839e-05
-4.43572e-07
7.19295e-05
-0.000138543
0.000128726
-9.50708e-05
-8.91046e-05
-6.63712e-05
-0.00025345
0.00033082
-8.72686e-05
0.000494539
)
;
    }
    bottom_fluid_surface
    {
        type            calculated;
        value           uniform 0;
    }
    lateral_surface_1
    {
        type            calculated;
        value           uniform 0;
    }
    lateral_surface_2
    {
        type            calculated;
        value           uniform 0;
    }
    lateral_surface_3
    {
        type            calculated;
        value           uniform 0;
    }
    lateral_surface_4
    {
        type            calculated;
        value           uniform 0;
    }
}


// ************************************************************************* //
