/*--------------------------------*- C++ -*----------------------------------*\
| =========                 |                                                 |
| \\      /  F ield         | OpenFOAM: The Open Source CFD Toolbox           |
|  \\    /   O peration     | Version:  v1612+                                |
|   \\  /    A nd           | Web:      www.OpenFOAM.com                      |
|    \\/     M anipulation  |                                                 |
\*---------------------------------------------------------------------------*/
FoamFile
{
    version     2.0;
    format      ascii;
    class       volScalarField;
    location    "2.15";
    object      p_rgh;
}
// * * * * * * * * * * * * * * * * * * * * * * * * * * * * * * * * * * * * * //

dimensions      [1 -1 -2 0 0 0 0];

internalField   nonuniform List<scalar> 
320
(
-9800.21
-9800.21
-9800.2
-9800.2
-0.00429716
-0.00233778
0.000286932
-0.00259089
0.00244544
-0.0014322
-0.00360935
0.00156567
-0.00300595
0.00311367
0.0024764
0.00706733
-9800
-9800.05
-9800.1
-9800.07
-9800.14
-9800.06
-9800.08
-9800.11
-9800.01
-9800.09
-9800.12
-9800.13
-9800.21
-9800.21
-9800.21
-9800.21
-9800.21
-9800.21
-9800.21
-9800.22
-9800.22
-9800.22
-9800.22
-9800.22
-9800.21
-9800.21
-9800.2
-9800.2
-9800.21
-9800.21
-9800.21
-9800.2
-9800.2
-9800.21
-9800.21
-9800.21
-9800.22
-9800.22
-9800.22
-9800.21
0.00670213
0.00023147
-0.00091986
0.00137044
0.00496388
0.0050229
0.00168966
0.00514687
0.00697011
-0.00116713
-0.00194578
-0.000856078
-0.0017264
0.00432711
-0.00198058
0.000752515
0.00507331
0.00619214
0.00627626
0.00212175
-9800.17
-9800.06
-9800.14
-9800.12
-9800.15
-9800.15
-9800.13
-9800.19
-9800.16
-9800.04
-9800.06
-9800.11
-9800.05
-9800.13
-9800.07
-9800.12
-9800.13
-9800.16
-9800.13
-9800.11
-9800.21
-9800.21
-9800.2
-9800.21
-9800.21
-9800.21
-9800.21
-9800.21
-9800.21
-9800.21
-9800.2
-9800.2
-9800.21
-9800.22
-9800.21
-9800.22
-9800.22
-9800.22
-9800.22
-9800.22
-9800.21
-9800.21
-9800.2
-9800.21
-9800.21
-9800.21
-9800.2
-9800.21
-9800.21
-9800.21
-9800.2
-9800.21
-9800.21
-9800.22
-9800.22
-9800.22
-9800.21
-9800.21
-9800.21
-9800.21
-9800.21
-9800.21
-9800.21
-9800.21
-9800.21
-9800.21
-9800.21
-9800.21
-9800.21
-9800.21
-9800.21
-9800.21
-9800.22
-9800.21
-9800.21
-9800.21
-9800.21
-9800.21
-9800.2
-9800.21
-9800.21
-9800.21
-9800.21
-9800.21
-9800.21
-9800.21
-9800.21
-9800.21
-9800.21
-9800.21
-9800.22
-9800.22
-9800.21
-9800.21
-9800.21
-9800.21
-0.00633113
0.000954682
-0.0111906
-0.00163934
0.00260502
-0.000526426
-0.00149003
-0.00169838
-0.000709088
-0.00875783
-0.0104142
0.000725539
0.0067714
-0.00151789
-0.0114196
-0.00630107
0.000298223
0.000142978
-0.00465437
0.00279454
0.00369392
0.00471665
0.00101748
-0.00822885
-0.00281143
0.00205182
0.000958107
-0.00457071
-9800.08
-9800.16
-9800.05
-9800.12
-9800.15
-9800.1
-9800.04
-9800.03
-9800.1
-9800.07
-9800
-9800.09
-9800.18
-9800.12
-9800.04
-9800.1
-9800.13
-9800.12
-9800.07
-9800.11
-9800.08
-9800.13
-9800.15
-9800.07
-9800.06
-9800.13
-9800.09
-9800.08
-9800.2
-9800.21
-9800.2
-9800.19
-9800.21
-9800.2
-9800.21
-9800.21
-9800.2
-9800.21
-9800.21
-9800.21
-9800.2
-9800.2
-9800.2
-9800.19
-9800.21
-9800.22
-9800.21
-9800.22
-9800.23
-9800.22
-9800.22
-9800.21
-9800.21
-9800.22
-9800.22
-9800.2
-9800.2
-9800.2
-9800.2
-9800.2
-9800.2
-9800.2
-9800.21
-9800.21
-9800.2
-9800.2
-9800.21
-9800.21
-9800.21
-9800.2
-9800.21
-9800.2
-9800.21
-9800.21
-9800.21
-9800.22
-9800.22
-9800.22
-9800.21
-9800.21
-9800.21
-9800.22
-9800.22
-9800.2
-9800.21
-9800.2
-9800.2
-9800.2
-9800.21
-9800.2
-9800.21
-9800.21
-9800.2
-9800.21
-9800.21
-9800.21
-9800.21
-9800.21
-9800.21
-9800.2
-9800.21
-9800.21
-9800.21
-9800.22
-9800.22
-9800.22
-9800.21
-9800.21
-9800.21
-9800.21
-9800.22
-9800.2
-0.001229
0.00304339
-0.000807729
-0.00140093
-9800.11
-9800.16
-9800.12
-9800.11
)
;

boundaryField
{
    top_fluid_surface
    {
        type            totalPressure;
        rho             rho;
        psi             none;
        gamma           1;
        p0              uniform 0;
        value           nonuniform List<scalar> 
64
(
-5.03235e-09
-1.3753e-10
0
-2.50634e-09
0
-1.37925e-09
-4.74655e-09
0
-3.65037e-09
0
0
0
0
-5.24413e-10
-1.62836e-11
0
0
0
0
0
0
-1.95011e-12
-1.45018e-09
-1.85384e-11
-2.42396e-09
0
-1.96222e-10
0
0
0
0
0
-8.73011e-09
0
-2.33746e-08
-7.26308e-10
0
-1.50056e-09
-7.90406e-10
-1.17342e-09
-1.40198e-09
-1.68354e-08
-1.90601e-08
0
0
-1.63434e-10
-2.33273e-08
-8.13723e-09
0
0
-7.9041e-09
0
0
0
0
-1.80248e-08
-3.21573e-09
0
0
-3.4024e-09
0
0
-1.23397e-11
-1.77724e-09
)
;
    }
    bottom_fluid_surface
    {
        type            fixedFluxPressure;
        gradient        uniform 0;
        value           nonuniform List<scalar> 
64
(
-9800.21
-9800.21
-9800.21
-9800.21
-9800.21
-9800.21
-9800.21
-9800.21
-9800.21
-9800.21
-9800.21
-9800.21
-9800.22
-9800.21
-9800.21
-9800.21
-9800.21
-9800.21
-9800.2
-9800.21
-9800.21
-9800.21
-9800.21
-9800.21
-9800.21
-9800.21
-9800.21
-9800.21
-9800.21
-9800.21
-9800.22
-9800.22
-9800.21
-9800.21
-9800.21
-9800.21
-9800.21
-9800.2
-9800.2
-9800.2
-9800.21
-9800.2
-9800.21
-9800.21
-9800.2
-9800.21
-9800.21
-9800.21
-9800.21
-9800.21
-9800.21
-9800.2
-9800.21
-9800.21
-9800.21
-9800.22
-9800.22
-9800.22
-9800.21
-9800.21
-9800.21
-9800.21
-9800.22
-9800.2
)
;
    }
    lateral_surface_1
    {
        type            fixedFluxPressure;
        gradient        uniform 0;
        value           nonuniform List<scalar> 
40
(
-0.00633113
0.000954682
-0.0111906
-0.00163934
0.00260502
-0.000526426
-0.00149003
-0.00457071
-9800.08
-9800.16
-9800.05
-9800.12
-9800.15
-9800.1
-9800.04
-9800.08
-9800.2
-9800.21
-9800.2
-9800.19
-9800.21
-9800.2
-9800.21
-9800.2
-9800.2
-9800.2
-9800.2
-9800.2
-9800.2
-9800.2
-9800.21
-9800.2
-9800.21
-9800.2
-9800.2
-9800.2
-9800.21
-9800.2
-9800.21
-9800.2
)
;
    }
    lateral_surface_2
    {
        type            fixedFluxPressure;
        gradient        uniform 0;
        value           nonuniform List<scalar> 
40
(
-0.00151789
-0.0114196
-0.00630107
0.000298223
0.000142978
-0.00465437
0.00279454
0.00369392
-9800.12
-9800.04
-9800.1
-9800.13
-9800.12
-9800.07
-9800.11
-9800.08
-9800.2
-9800.2
-9800.19
-9800.21
-9800.22
-9800.21
-9800.22
-9800.23
-9800.2
-9800.21
-9800.2
-9800.21
-9800.21
-9800.21
-9800.22
-9800.22
-9800.21
-9800.21
-9800.2
-9800.21
-9800.21
-9800.21
-9800.22
-9800.22
)
;
    }
    lateral_surface_3
    {
        type            fixedFluxPressure;
        gradient        uniform 0;
        value           nonuniform List<scalar> 
40
(
-0.00149003
-0.00169838
-0.000709088
-0.00875783
-0.0104142
0.000725539
0.0067714
-0.00151789
-9800.04
-9800.03
-9800.1
-9800.07
-9800
-9800.09
-9800.18
-9800.12
-9800.21
-9800.21
-9800.2
-9800.21
-9800.21
-9800.21
-9800.2
-9800.2
-9800.21
-9800.21
-9800.2
-9800.2
-9800.21
-9800.21
-9800.21
-9800.2
-9800.21
-9800.21
-9800.2
-9800.21
-9800.21
-9800.21
-9800.21
-9800.21
)
;
    }
    lateral_surface_4
    {
        type            fixedFluxPressure;
        gradient        uniform 0;
        value           nonuniform List<scalar> 
40
(
0.00369392
0.00471665
0.00101748
-0.00822885
-0.00281143
0.00205182
0.000958107
-0.00457071
-9800.08
-9800.13
-9800.15
-9800.07
-9800.06
-9800.13
-9800.09
-9800.08
-9800.23
-9800.22
-9800.22
-9800.21
-9800.21
-9800.22
-9800.22
-9800.2
-9800.22
-9800.22
-9800.21
-9800.21
-9800.21
-9800.22
-9800.22
-9800.2
-9800.22
-9800.22
-9800.21
-9800.21
-9800.21
-9800.21
-9800.22
-9800.2
)
;
    }
}


// ************************************************************************* //
