/*--------------------------------*- C++ -*----------------------------------*\
| =========                 |                                                 |
| \\      /  F ield         | OpenFOAM: The Open Source CFD Toolbox           |
|  \\    /   O peration     | Version:  v1612+                                |
|   \\  /    A nd           | Web:      www.OpenFOAM.com                      |
|    \\/     M anipulation  |                                                 |
\*---------------------------------------------------------------------------*/
FoamFile
{
    version     2.0;
    format      ascii;
    class       volVectorField;
    location    "2.15";
    object      U;
}
// * * * * * * * * * * * * * * * * * * * * * * * * * * * * * * * * * * * * * //

dimensions      [0 1 -1 0 0 0 0];

internalField   nonuniform List<vector> 
320
(
(-3.41524e-06 -1.75972e-06 5.4678e-06)
(-2.42939e-06 -3.68326e-06 1.2188e-07)
(-1.87952e-06 -7.30938e-07 -1.09226e-06)
(-9.10217e-07 1.09638e-06 -6.1688e-06)
(-0.000154432 0.000112452 -0.000100323)
(5.67185e-05 3.86638e-05 -1.65849e-05)
(4.75693e-05 -8.75816e-05 4.78902e-05)
(-0.00010696 1.23469e-06 -7.08003e-05)
(5.2846e-05 -4.10056e-05 3.15018e-05)
(0.00012695 -5.9716e-05 -5.25214e-05)
(-0.000145101 -1.08817e-05 -9.74325e-05)
(-3.63765e-05 -3.91573e-06 8.37348e-06)
(-0.000110845 3.17431e-06 -8.54443e-05)
(-0.00013463 -0.000172067 7.86035e-05)
(-0.000139165 -8.45008e-05 6.66415e-05)
(-0.000217404 -5.64275e-05 0.00012987)
(2.95251e-06 9.76923e-06 5.52412e-06)
(5.22957e-06 9.88997e-07 1.16662e-05)
(-7.00258e-07 -6.89946e-06 2.25271e-06)
(-9.35798e-06 -4.56956e-06 -7.37814e-06)
(5.20028e-06 -2.60523e-06 -4.71804e-06)
(8.16177e-06 9.79614e-07 1.80508e-06)
(1.08564e-06 2.72893e-06 -1.07947e-06)
(4.48945e-06 -7.52592e-06 -6.07577e-06)
(-8.76435e-06 -2.69102e-06 4.45848e-06)
(1.7558e-06 -9.10279e-06 2.65634e-07)
(6.03037e-06 -3.09287e-07 5.83473e-06)
(-1.83709e-06 -3.27491e-07 -9.13979e-06)
(2.86776e-06 1.03067e-06 4.38455e-06)
(-1.78293e-06 -3.58565e-07 1.13169e-05)
(-3.67323e-06 -1.11649e-06 2.89135e-06)
(-2.62605e-06 -8.86991e-07 -7.13884e-06)
(9.05404e-08 2.6958e-06 -4.95102e-06)
(1.46978e-07 -5.42067e-07 -1.49637e-07)
(9.97356e-07 2.03915e-06 -2.24239e-06)
(-2.31984e-06 8.78162e-07 -6.45737e-06)
(-2.29327e-06 1.19481e-06 7.99342e-07)
(-1.27328e-07 1.21661e-09 7.09337e-07)
(1.34196e-06 1.06403e-06 6.57514e-06)
(1.63266e-06 3.59205e-06 -6.97075e-06)
(-1.85782e-06 -5.68949e-07 1.61398e-07)
(-1.60896e-06 -1.96739e-06 -7.10638e-07)
(-5.8485e-07 -5.35389e-07 -4.2984e-07)
(-8.23753e-07 5.08201e-07 -1.48844e-06)
(2.20742e-06 9.26049e-07 1.19296e-06)
(-1.08947e-06 -2.48614e-07 1.59391e-06)
(-2.57599e-06 -5.2486e-07 1.4587e-07)
(-1.91637e-06 -3.03229e-07 -1.39962e-06)
(-1.44576e-07 1.71051e-06 -9.53358e-07)
(8.59868e-08 -2.56936e-07 5.06807e-08)
(6.36941e-07 1.07095e-06 -3.90449e-07)
(-9.76075e-07 1.39959e-07 -8.39946e-07)
(-1.51596e-06 7.40627e-07 1.10326e-06)
(2.47485e-07 -3.73542e-07 -1.69875e-07)
(9.28681e-07 8.24883e-07 1.4677e-06)
(9.87122e-07 2.32442e-06 -9.19802e-07)
(-0.000102066 0.00012309 0.000122655)
(-0.000102534 0.00017792 -3.23856e-05)
(8.42847e-05 5.22907e-05 5.69084e-06)
(2.01588e-05 9.40439e-06 6.91637e-05)
(-6.86765e-05 0.000113875 0.000121726)
(-5.29841e-05 -8.8324e-05 0.00011471)
(-0.000122743 -2.48868e-05 7.76231e-06)
(-0.00014761 3.31372e-05 0.000114539)
(4.7005e-05 -0.000117912 0.000166602)
(0.000118931 -0.00029083 -1.9749e-06)
(-5.39535e-05 -7.33253e-05 -5.38549e-05)
(-9.74148e-05 -2.29116e-05 -6.08908e-06)
(-0.000114277 -2.80913e-06 -6.9627e-05)
(-0.000118487 -2.67619e-05 8.42542e-05)
(-9.38202e-05 4.04497e-06 -1.98102e-05)
(-9.70985e-05 -1.96537e-05 4.7157e-05)
(0.00011065 -4.00771e-05 9.13941e-05)
(0.000107022 1.69708e-05 0.000106796)
(6.11151e-05 0.000149927 0.000108433)
(0.000133764 0.000278901 3.96218e-05)
(-9.80572e-07 4.07628e-07 -1.01635e-05)
(4.33913e-06 -4.53463e-06 -3.85466e-06)
(7.39264e-06 1.05992e-06 7.90908e-07)
(-2.17709e-06 2.03854e-06 -4.17295e-07)
(-8.79502e-06 6.96804e-06 -5.52323e-06)
(-4.72902e-06 -6.19238e-06 -5.71037e-06)
(-1.59009e-06 1.83304e-06 -1.16577e-05)
(2.6797e-06 7.2511e-06 -1.04871e-05)
(8.05581e-06 -2.63459e-06 -6.24995e-06)
(9.24132e-06 -5.40581e-06 1.24861e-05)
(-1.63322e-07 4.04301e-06 -6.85468e-06)
(4.0768e-06 2.42903e-06 -2.78603e-06)
(4.61415e-06 3.04161e-06 -6.77259e-07)
(-1.03113e-05 9.74806e-07 1.30622e-07)
(-6.64756e-06 -3.62444e-06 3.94163e-06)
(-6.91309e-06 4.5407e-06 4.11589e-06)
(4.26253e-06 1.82815e-06 -4.26283e-06)
(6.25753e-06 1.49602e-06 -1.12537e-05)
(-1.13286e-06 2.75833e-06 -6.55249e-06)
(2.13896e-06 -1.33299e-06 3.81077e-06)
(-2.69945e-06 5.8648e-07 -8.4588e-06)
(5.35519e-07 1.48812e-06 -4.89401e-06)
(-2.82192e-07 3.19096e-06 1.90483e-06)
(-9.17573e-07 2.43514e-06 1.53732e-06)
(2.11327e-06 -3.48148e-07 -2.24783e-06)
(-1.97057e-06 -2.06697e-06 -3.0861e-06)
(1.78005e-06 8.05295e-08 -1.07391e-05)
(4.15804e-06 3.86934e-06 -7.70327e-06)
(2.98282e-06 5.32282e-06 -1.99909e-06)
(1.70987e-06 3.73722e-06 1.21346e-05)
(3.37419e-06 -2.31653e-07 -6.86196e-06)
(-2.33046e-06 1.3978e-06 -1.43341e-06)
(-1.03516e-06 3.20382e-06 -2.10766e-06)
(-1.90323e-06 -8.48995e-08 -6.07961e-07)
(-1.48369e-06 1.41595e-06 4.52962e-06)
(1.63293e-06 2.65414e-06 4.0597e-06)
(-5.97241e-07 2.90425e-06 -3.65846e-06)
(-3.39347e-08 2.86017e-10 -9.07443e-06)
(-3.28163e-06 -3.01077e-06 -5.85345e-06)
(-5.98467e-06 -8.87028e-07 2.43158e-06)
(-1.75263e-06 -3.22971e-07 -1.34155e-06)
(7.1521e-07 3.3722e-07 -6.42009e-07)
(-1.58049e-07 1.65e-06 -4.52605e-07)
(-1.17835e-06 1.5638e-06 -3.59948e-07)
(8.71661e-07 -1.54985e-07 -8.25449e-07)
(-1.10837e-06 -9.86641e-07 -9.82167e-07)
(1.00661e-06 4.6402e-07 -2.51167e-06)
(2.70629e-06 2.51056e-06 -1.54275e-06)
(1.90312e-06 3.25589e-06 -3.49048e-07)
(1.26265e-06 3.0393e-06 2.14147e-06)
(2.04036e-06 5.74952e-07 -1.70405e-06)
(-1.22065e-06 1.01244e-06 -3.99729e-07)
(-2.54532e-07 2.17134e-06 -3.92946e-08)
(-1.48513e-06 3.86227e-07 2.44901e-07)
(-1.40115e-06 1.09183e-06 1.02861e-06)
(2.44137e-07 1.87257e-06 6.12003e-07)
(-7.12486e-07 1.90926e-06 -5.48933e-07)
(-3.65896e-07 1.70687e-07 -1.36998e-06)
(-2.37983e-06 -1.75526e-06 -5.59548e-07)
(-3.61463e-06 -1.09694e-06 8.72945e-07)
(-1.2625e-06 -1.67438e-07 1.98227e-07)
(-7.78244e-07 -5.85397e-07 -4.85462e-08)
(-4.91145e-07 2.78955e-07 2.23717e-08)
(-5.10187e-07 5.6092e-07 -3.78842e-07)
(4.43966e-07 3.1986e-07 4.36952e-07)
(-8.54109e-07 4.85245e-08 9.90054e-07)
(-1.15935e-06 7.91273e-09 1.36502e-07)
(-9.7343e-07 1.76484e-07 -6.03611e-07)
(-7.07026e-08 1.06461e-06 -3.68668e-07)
(3.07487e-08 -9.16658e-09 -5.7874e-08)
(7.40801e-09 7.36807e-07 -2.27326e-07)
(-8.97567e-07 2.99759e-07 -6.28428e-07)
(-7.93574e-07 6.88977e-07 -1.16324e-07)
(-1.61055e-07 1.95983e-07 -3.10071e-07)
(-1.33521e-07 3.49713e-07 5.44542e-07)
(1.10877e-07 1.04209e-06 -8.2385e-07)
(-1.05137e-06 2.71232e-07 -8.82224e-07)
(-2.68933e-07 5.75662e-07 -4.89292e-07)
(-4.66297e-07 8.16605e-07 1.59042e-07)
(-5.49417e-07 8.25051e-07 -1.15528e-07)
(4.74035e-07 1.20825e-07 -4.67434e-07)
(-4.32414e-07 -3.75489e-07 -4.56434e-07)
(3.29712e-07 5.03248e-07 -1.08238e-06)
(9.45869e-07 1.5651e-06 -5.69543e-07)
(8.28035e-07 1.56118e-06 -2.19702e-07)
(7.13531e-07 1.5396e-06 1.07514e-06)
(7.53668e-07 3.83369e-07 -7.34037e-07)
(-8.19112e-07 8.34018e-07 -1.61954e-07)
(-4.43315e-07 1.04818e-06 -2.47287e-07)
(-8.34954e-07 4.52694e-07 -3.19853e-07)
(-7.53478e-07 8.89655e-07 4.10396e-07)
(-1.07111e-07 9.73657e-07 7.38847e-08)
(-5.34652e-07 9.39008e-07 -4.46156e-07)
(-3.36788e-07 1.04494e-07 -9.15269e-07)
(-1.14684e-06 -5.9799e-07 -5.89354e-07)
(-1.81354e-06 -1.38689e-07 1.44818e-07)
(0.000124621 0.000172218 -0.000132137)
(-0.000116198 0.000119602 1.02405e-05)
(-8.3558e-05 0.000186242 -0.000216216)
(0.000225503 0.000100872 -3.81132e-05)
(-1.41071e-05 4.52939e-05 4.1031e-05)
(-4.67888e-05 0.000134538 -5.47825e-05)
(-6.91012e-05 2.34083e-05 -3.97594e-05)
(-0.00018034 2.63949e-06 -4.84443e-05)
(-0.000179849 -0.000141458 -5.29525e-05)
(-0.000233715 -9.30033e-05 -0.000183496)
(-0.000247807 0.000128626 -0.000195244)
(-0.000138381 0.000206686 5.35745e-05)
(7.61957e-05 -5.72e-05 0.000149208)
(9.49453e-05 -0.000162828 -1.80185e-05)
(6.30819e-05 -0.000181647 -0.000215997)
(-0.000140297 -0.000107039 -0.000127571)
(-0.00021556 -9.54571e-05 1.57575e-05)
(-3.27114e-05 1.09762e-05 2.17975e-05)
(-0.00011775 -0.000176944 -0.000125731)
(-0.000227968 1.05602e-05 4.62477e-05)
(-3.58276e-05 -4.28573e-05 0.00010132)
(-8.94049e-05 0.000104039 0.000120161)
(6.38257e-05 0.000207637 1.28753e-05)
(0.000137661 3.19319e-05 -0.000189867)
(0.000135621 -0.000134028 -8.01964e-05)
(-1.31886e-05 -2.962e-05 6.1715e-05)
(-4.3643e-05 0.000187189 4.24933e-05)
(-0.00010531 0.00011076 -8.24912e-05)
(-6.49508e-07 -8.83838e-07 8.60285e-07)
(1.3645e-06 1.98008e-06 -4.65343e-06)
(2.29989e-06 -3.22906e-06 5.18964e-06)
(-1.34386e-06 4.01929e-06 -3.32655e-06)
(-6.60798e-06 5.5077e-06 -8.14632e-06)
(-4.90877e-06 8.4508e-06 -1.73312e-06)
(-1.88706e-06 1.62152e-06 7.17795e-06)
(-8.71638e-06 2.21876e-06 7.55767e-06)
(-6.63667e-06 3.05429e-07 -9.08357e-06)
(-2.21816e-06 2.83894e-06 1.72635e-06)
(-5.63036e-06 7.04032e-06 1.72287e-05)
(-2.42892e-06 7.54107e-06 1.09531e-05)
(4.54529e-06 1.19519e-06 -8.69202e-06)
(4.17244e-06 -2.43598e-06 -1.34385e-06)
(5.20781e-06 -2.06306e-06 1.22619e-05)
(3.2632e-07 1.59743e-06 -2.13025e-06)
(2.08683e-06 -2.55285e-06 -9.86578e-07)
(5.94382e-06 3.58727e-06 6.88836e-06)
(-2.09818e-06 -3.8824e-06 -2.94675e-07)
(-9.11634e-06 -4.62598e-06 1.42405e-06)
(-3.87031e-06 -1.41389e-06 8.22036e-06)
(-6.58061e-07 3.17813e-06 1.44341e-06)
(2.93258e-06 8.21889e-06 -7.25609e-06)
(3.02025e-06 4.06788e-06 -7.86684e-07)
(5.17248e-06 -5.70452e-06 5.84777e-06)
(-4.18036e-06 -4.44594e-06 5.14255e-06)
(-2.0317e-06 8.90485e-07 1.2472e-05)
(-1.95627e-06 -8.08652e-07 6.59697e-06)
(-4.2512e-06 7.462e-07 -1.44397e-07)
(-7.42453e-07 -2.49551e-08 -4.26041e-06)
(2.6333e-07 -1.21074e-06 3.24137e-06)
(-2.72995e-06 2.47235e-07 -2.59932e-06)
(-1.34188e-07 1.23693e-06 -7.07341e-06)
(3.04664e-06 -5.36187e-07 -2.84844e-06)
(1.90687e-06 3.0355e-07 3.90573e-06)
(2.74661e-06 -2.5821e-06 4.80177e-06)
(-3.27022e-07 -1.44967e-06 -8.73437e-06)
(3.36389e-06 5.24168e-06 -8.5364e-07)
(4.83401e-06 3.89873e-06 1.40112e-05)
(3.3932e-06 -2.99023e-06 1.09815e-05)
(-3.4791e-06 -1.9458e-06 -4.53387e-06)
(-2.28984e-06 1.13742e-06 1.43728e-07)
(1.26876e-06 -5.18057e-08 9.25362e-06)
(2.48644e-06 1.57852e-06 -1.99557e-06)
(-2.43807e-06 8.3598e-07 -9.19437e-07)
(-8.3718e-07 1.68614e-06 4.95683e-06)
(-5.05387e-07 6.37957e-07 -2.17919e-06)
(-2.63056e-06 2.88308e-07 1.35953e-06)
(-1.59639e-06 1.78484e-06 8.48574e-06)
(-9.98477e-08 4.17857e-06 3.66884e-06)
(1.16616e-06 2.08133e-06 -6.17264e-06)
(-6.72706e-07 -1.66558e-06 -2.67508e-06)
(-3.40367e-06 -1.62042e-06 3.0954e-06)
(-2.29341e-06 -2.35882e-06 4.84431e-06)
(-2.75177e-06 -3.82988e-07 1.01464e-05)
(-1.78941e-06 1.70856e-06 5.65645e-06)
(-2.80841e-06 -2.37749e-07 5.54988e-08)
(-4.47044e-07 -6.18942e-07 -1.49782e-06)
(2.34448e-07 -1.54333e-06 5.64955e-08)
(-2.31605e-06 -1.38181e-07 -9.18625e-07)
(-7.71002e-07 6.14677e-07 -1.50353e-06)
(1.40147e-06 -5.45522e-07 -5.84256e-07)
(7.79798e-07 8.486e-08 9.82654e-07)
(1.41018e-06 -9.46038e-07 1.27757e-06)
(-1.12546e-08 -3.89906e-07 -1.46669e-06)
(2.00691e-06 3.51142e-06 -1.24943e-07)
(3.03615e-06 2.60702e-06 2.15259e-06)
(2.10337e-06 -1.70057e-06 2.13688e-06)
(-1.92031e-06 -4.40578e-07 -7.03155e-07)
(-1.3765e-06 9.96581e-07 9.04747e-08)
(8.87592e-07 4.5278e-07 1.7354e-06)
(2.11284e-06 1.37164e-06 -6.45538e-07)
(-9.59443e-07 3.80294e-07 1.39482e-07)
(-3.49856e-07 1.11044e-06 1.19514e-06)
(-4.36453e-07 4.75619e-07 5.00153e-07)
(-1.76273e-06 6.17653e-08 1.07122e-06)
(-8.67937e-07 8.3719e-07 2.22965e-06)
(-9.25113e-08 2.39309e-06 9.58691e-07)
(4.33326e-07 1.42929e-06 -6.75086e-07)
(-5.35782e-07 -9.83574e-07 -2.03008e-07)
(-2.4595e-06 -8.42464e-07 9.09907e-07)
(-1.54894e-06 -9.24324e-07 1.05305e-06)
(-1.62857e-06 -7.51552e-07 2.69819e-06)
(-1.20354e-06 1.87279e-07 1.17607e-06)
(-1.62751e-06 -6.19072e-08 3.10767e-07)
(-6.03473e-07 -3.44575e-08 -3.63451e-07)
(-1.01408e-07 -5.09805e-07 5.63178e-07)
(-1.1035e-06 -2.01983e-07 9.39903e-08)
(-4.63569e-07 1.27396e-07 -6.20042e-07)
(5.374e-07 -2.87832e-07 -2.18111e-07)
(3.29003e-07 6.40301e-08 2.21069e-07)
(6.80866e-07 -1.44764e-07 2.69453e-07)
(6.34137e-08 -1.36411e-07 -5.7857e-07)
(9.19943e-07 1.55477e-06 -2.60158e-08)
(1.11493e-06 1.56293e-06 1.33638e-06)
(9.17776e-07 -2.41504e-07 9.68229e-07)
(-6.87749e-07 8.78554e-08 -1.74476e-07)
(-5.33964e-07 4.09908e-07 4.52866e-07)
(5.32522e-07 2.56124e-07 1.23801e-06)
(7.36327e-07 5.90917e-07 9.62104e-08)
(-6.57401e-07 2.73463e-07 -5.75395e-08)
(-5.16243e-07 4.29206e-07 4.31109e-07)
(-6.35053e-07 3.46392e-07 -2.0884e-07)
(-9.01263e-07 2.29303e-07 2.37932e-07)
(-4.55211e-07 4.94175e-07 6.56956e-07)
(-1.90339e-07 1.24684e-06 3.24679e-07)
(-9.80217e-08 9.07804e-07 -4.72182e-07)
(-2.56192e-07 -3.36929e-08 -2.01938e-07)
(-1.07072e-06 -2.62474e-07 4.38562e-07)
(-6.23161e-07 -4.34656e-07 3.18521e-07)
(-9.07391e-07 -2.09435e-07 8.72017e-07)
(-6.93907e-07 1.51576e-07 8.58195e-07)
(-7.98512e-06 9.95598e-05 4.3051e-05)
(-0.000116117 -3.05178e-05 0.000110328)
(-0.000100472 -1.18698e-05 -4.96783e-06)
(-4.16261e-05 -0.000201166 -5.96194e-05)
(5.65621e-06 5.08875e-06 3.81154e-06)
(-9.27566e-06 -4.06713e-06 -3.94218e-06)
(-8.05485e-07 -1.29665e-05 -2.16305e-06)
(-4.42872e-06 -1.02684e-05 -6.72015e-06)
)
;

boundaryField
{
    top_fluid_surface
    {
        type            pressureInletOutletVelocity;
        value           nonuniform List<vector> 
64
(
(0 0 -0.000100323)
(0 0 -1.65849e-05)
(4.75693e-05 -8.75816e-05 4.78902e-05)
(0 0 -7.08003e-05)
(5.2846e-05 -4.10056e-05 3.15018e-05)
(0 0 -5.25214e-05)
(0 0 -9.74325e-05)
(-3.63765e-05 -3.91573e-06 8.37348e-06)
(0 0 -8.54443e-05)
(-0.00013463 -0.000172067 7.86035e-05)
(-0.000139165 -8.45008e-05 6.66415e-05)
(-0.000217404 -5.64275e-05 0.00012987)
(-0.000102066 0.00012309 0.000122655)
(0 0 -3.23856e-05)
(0 0 5.69084e-06)
(2.01588e-05 9.40439e-06 6.91637e-05)
(-6.86765e-05 0.000113875 0.000121726)
(-5.29841e-05 -8.8324e-05 0.00011471)
(-0.000122743 -2.48868e-05 7.76231e-06)
(-0.00014761 3.31372e-05 0.000114539)
(4.7005e-05 -0.000117912 0.000166602)
(0 0 -1.9749e-06)
(0 0 -5.38549e-05)
(0 0 -6.08908e-06)
(0 0 -6.9627e-05)
(-0.000118487 -2.67619e-05 8.42542e-05)
(0 0 -1.98102e-05)
(-9.70985e-05 -1.96537e-05 4.7157e-05)
(0.00011065 -4.00771e-05 9.13941e-05)
(0.000107022 1.69708e-05 0.000106796)
(6.11151e-05 0.000149927 0.000108433)
(0.000133764 0.000278901 3.96218e-05)
(0 0 -0.000132137)
(-0.000116198 0.000119602 1.02405e-05)
(0 0 -0.000216216)
(0 0 -3.81132e-05)
(-1.41071e-05 4.52939e-05 4.1031e-05)
(0 0 -5.47825e-05)
(0 0 -3.97594e-05)
(0 0 -4.84443e-05)
(0 0 -5.29525e-05)
(0 0 -0.000183496)
(0 0 -0.000195244)
(-0.000138381 0.000206686 5.35745e-05)
(7.61957e-05 -5.72e-05 0.000149208)
(0 0 -1.80185e-05)
(0 0 -0.000215997)
(0 0 -0.000127571)
(-0.00021556 -9.54571e-05 1.57575e-05)
(-3.27114e-05 1.09762e-05 2.17975e-05)
(0 0 -0.000125731)
(-0.000227968 1.05602e-05 4.62477e-05)
(-3.58276e-05 -4.28573e-05 0.00010132)
(-8.94049e-05 0.000104039 0.000120161)
(6.38257e-05 0.000207637 1.28753e-05)
(0 0 -0.000189867)
(0 0 -8.01964e-05)
(-1.31886e-05 -2.962e-05 6.1715e-05)
(-4.3643e-05 0.000187189 4.24933e-05)
(0 0 -8.24912e-05)
(-7.98512e-06 9.95598e-05 4.3051e-05)
(-0.000116117 -3.05178e-05 0.000110328)
(0 0 -4.96783e-06)
(0 0 -5.96194e-05)
)
;
    }
    bottom_fluid_surface
    {
        type            noSlip;
    }
    lateral_surface_1
    {
        type            noSlip;
    }
    lateral_surface_2
    {
        type            noSlip;
    }
    lateral_surface_3
    {
        type            noSlip;
    }
    lateral_surface_4
    {
        type            noSlip;
    }
}


// ************************************************************************* //
