/*--------------------------------*- C++ -*----------------------------------*\
| =========                 |                                                 |
| \\      /  F ield         | OpenFOAM: The Open Source CFD Toolbox           |
|  \\    /   O peration     | Version:  v1612+                                |
|   \\  /    A nd           | Web:      www.OpenFOAM.com                      |
|    \\/     M anipulation  |                                                 |
\*---------------------------------------------------------------------------*/
FoamFile
{
    version     2.0;
    format      ascii;
    class       volVectorField;
    location    "3.3";
    object      U;
}
// * * * * * * * * * * * * * * * * * * * * * * * * * * * * * * * * * * * * * //

dimensions      [0 1 -1 0 0 0 0];

internalField   nonuniform List<vector> 
1116
(
(0.34896 -7.37761e-06 -0.365611)
(0.348952 7.847e-06 -0.365624)
(0.348956 6.65191e-06 -0.36561)
(0.348962 6.0921e-06 -0.365606)
(0.348959 -2.494e-06 -0.36562)
(0.348951 6.81835e-06 -0.365608)
(1.21377 -7.90302e-08 -0.351122)
(1.21378 8.99366e-06 -0.351144)
(1.21378 6.57485e-06 -0.351127)
(1.21378 9.30924e-06 -0.351123)
(1.21379 -6.40375e-06 -0.351143)
(1.21376 -3.66899e-06 -0.35113)
(1.83694 3.6518e-06 -0.179526)
(1.83696 1.03045e-05 -0.179551)
(1.83696 4.93113e-06 -0.179537)
(1.83697 9.38867e-06 -0.179535)
(1.83697 -5.56625e-06 -0.179554)
(1.83694 -5.02109e-06 -0.179536)
(2.22629 3.71581e-06 -0.0402051)
(2.22633 1.00087e-05 -0.0402299)
(2.22632 4.30191e-06 -0.0402182)
(2.22632 8.11581e-06 -0.0402173)
(2.22633 -3.82667e-06 -0.0402321)
(2.2263 -3.15911e-06 -0.0402129)
(2.49885 2.38338e-06 0.0357223)
(2.49889 8.45973e-06 0.0357018)
(2.49889 3.36747e-06 0.0357117)
(2.49889 5.76827e-06 0.0357125)
(2.49889 -3.30844e-06 0.0357013)
(2.49885 -1.45411e-06 0.0357191)
(2.70227 9.91395e-07 0.0653253)
(2.70231 6.86244e-06 0.0653103)
(2.70231 1.73652e-06 0.0653187)
(2.70231 3.11609e-06 0.0653189)
(2.70231 -3.72509e-06 0.0653095)
(2.70227 1.91979e-07 0.0653264)
(2.8431 -1.88818e-06 0.0927068)
(2.84315 4.44564e-06 0.0927)
(2.84315 -1.84801e-07 0.0927062)
(2.84315 -2.58275e-07 0.0927063)
(2.84315 -4.38267e-06 0.0926979)
(2.8431 2.96019e-06 0.0927133)
(2.95398 -6.80029e-06 0.24704)
(2.95403 2.88713e-06 0.247038)
(2.95403 -1.23287e-07 0.247041)
(2.95402 -3.22864e-06 0.247041)
(2.95401 -5.98002e-06 0.247032)
(2.95397 5.44576e-06 0.247051)
(2.72771 -7.16366e-06 0.65651)
(2.72776 4.93826e-06 0.656512)
(2.72776 -1.14227e-06 0.656512)
(2.72776 -3.84182e-06 0.656513)
(2.72776 -1.08055e-05 0.656504)
(2.72769 1.78661e-06 0.656525)
(1.82291 -4.94245e-06 1.05807)
(1.82299 6.27086e-06 1.0581)
(1.82298 -4.33007e-06 1.05809)
(1.82297 -4.7646e-06 1.05809)
(1.823 -1.49321e-05 1.05809)
(1.82286 -3.63469e-06 1.05809)
(0.300843 7.39917e-06 0.668328)
(0.300926 1.18074e-05 0.668389)
(0.300933 -7.81912e-06 0.668376)
(0.300922 -1.49615e-07 0.668371)
(0.300966 -1.60995e-05 0.668387)
(0.300767 -1.2004e-05 0.668313)
(-0.748057 -2.0937e-05 -0.673068)
(-0.74799 -2.8823e-05 -0.673086)
(-0.747988 -1.48776e-05 -0.67308)
(-0.747989 -2.07388e-05 -0.673092)
(-0.747939 9.26042e-06 -0.673093)
(-0.748087 3.04142e-05 -0.673117)
(0.437805 1.24407e-05 -1.35467)
(0.43779 -3.26668e-05 -1.35469)
(0.437815 2.80131e-05 -1.35467)
(0.437794 -9.13398e-06 -1.35468)
(0.437775 5.22271e-05 -1.35468)
(0.43785 -6.38204e-06 -1.35464)
(1.88694 4.20497e-05 -1.38304)
(1.88693 -5.76988e-05 -1.38304)
(1.88694 5.08559e-05 -1.38305)
(1.88692 5.50714e-08 -1.38302)
(1.88691 6.30794e-05 -1.383)
(1.88699 -5.73555e-05 -1.38304)
(2.752 6.52648e-05 -0.873188)
(2.75203 -4.09554e-05 -0.873158)
(2.75201 4.76276e-05 -0.873173)
(2.75199 1.06926e-05 -0.873146)
(2.75201 4.75013e-05 -0.873115)
(2.75204 -8.17727e-05 -0.87318)
(3.19768 7.10952e-05 -0.673834)
(3.19776 -1.92712e-05 -0.673795)
(3.19771 3.65212e-05 -0.67381)
(3.19769 2.10653e-05 -0.673792)
(3.19775 3.22127e-05 -0.673763)
(3.1977 -8.20229e-05 -0.673817)
(3.561 7.21344e-05 -0.588564)
(3.56115 -1.56942e-06 -0.588532)
(3.56106 2.36073e-05 -0.588542)
(3.56105 2.63874e-05 -0.58853)
(3.56113 2.24723e-05 -0.588508)
(3.56101 -7.28095e-05 -0.588548)
(3.95144 7.13265e-05 -0.497603)
(3.95164 9.18186e-06 -0.497582)
(3.95153 1.26878e-05 -0.497587)
(3.95153 2.73434e-05 -0.497579)
(3.95162 1.70745e-05 -0.497566)
(3.95145 -6.18217e-05 -0.497591)
(4.44445 6.81718e-05 -0.389292)
(4.44467 1.30022e-05 -0.389286)
(4.44455 3.65861e-06 -0.389285)
(4.44455 2.51524e-05 -0.389279)
(4.44464 1.26841e-05 -0.389276)
(4.44447 -5.15912e-05 -0.389284)
(4.74147 6.46473e-05 -0.0901342)
(4.74175 1.94793e-05 -0.0901468)
(4.74162 5.2347e-06 -0.0901361)
(4.74163 2.46465e-05 -0.0901332)
(4.74171 1.01826e-05 -0.0901451)
(4.74154 -4.27365e-05 -0.0901318)
(4.55604 6.9359e-05 0.480932)
(4.55638 3.97464e-05 0.480896)
(4.55624 1.07207e-05 0.480918)
(4.55624 2.63216e-05 0.480916)
(4.55632 8.61683e-07 0.480885)
(4.55614 -3.81836e-05 0.480926)
(3.85288 5.33689e-05 1.30916)
(3.85326 4.53309e-05 1.30912)
(3.85311 1.1232e-05 1.30913)
(3.85312 1.62453e-05 1.30913)
(3.85321 -1.51221e-05 1.30909)
(3.85299 -3.40539e-05 1.30914)
(2.28874 3.86659e-05 1.52984)
(2.28913 3.68631e-05 1.52988)
(2.28902 -1.40147e-06 1.52986)
(2.28902 9.77131e-06 1.52985)
(2.28911 -2.06415e-05 1.52984)
(2.28883 -2.89819e-05 1.52981)
(0.535711 -5.85252e-05 0.293767)
(0.536086 -5.98374e-05 0.293816)
(0.536003 -4.49933e-06 0.2938)
(0.535997 -1.85656e-05 0.293788)
(0.536088 2.96133e-05 0.293807)
(0.535787 4.76324e-05 0.293717)
(0.362759 -4.17152e-05 -2.74748)
(0.362751 -0.000144385 -2.7476)
(0.36276 -1.20882e-06 -2.74764)
(0.36273 -3.89362e-05 -2.74761)
(0.362723 0.00013969 -2.74754)
(0.362785 5.47576e-05 -2.74752)
(1.18115 -5.14952e-05 -2.18001)
(1.18104 -0.000136324 -2.18012)
(1.18102 2.42589e-05 -2.18018)
(1.18099 -2.62103e-05 -2.18008)
(1.181 0.000159023 -2.17999)
(1.18116 7.15021e-05 -2.18002)
(2.23889 -4.77314e-05 -1.4217)
(2.23874 -0.00011526 -1.42174)
(2.23871 3.37355e-05 -1.42181)
(2.23868 -2.48343e-05 -1.42172)
(2.23872 0.000135884 -1.4216)
(2.2389 7.09263e-05 -1.42167)
(3.74668 -6.3255e-05 -1.03535)
(3.74654 -0.000117579 -1.03533)
(3.7465 3.25418e-05 -1.03542)
(3.74649 -2.40374e-05 -1.03534)
(3.74655 0.00014094 -1.03518)
(3.74672 9.45624e-05 -1.03531)
(5.57867 -7.61284e-05 -0.936354)
(5.57852 -0.000127198 -0.936227)
(5.57846 1.62868e-05 -0.936351)
(5.57845 -3.20391e-05 -0.936299)
(5.57851 0.000129285 -0.936105)
(5.5787 9.91108e-05 -0.936283)
(8.16373 -0.000103189 -0.990038)
(8.16356 -0.000176059 -0.989817)
(8.16349 -4.18271e-05 -0.989969)
(8.16348 -7.19195e-05 -0.989941)
(8.16353 9.11592e-05 -0.989727)
(8.16371 8.73367e-05 -0.989948)
(9.79462 -0.000170146 -1.01368)
(9.79441 -0.000212787 -1.01342)
(9.79415 -3.2894e-05 -1.01364)
(9.79411 -0.000163151 -1.01363)
(9.79425 5.42063e-05 -1.01342)
(9.79449 0.000133988 -1.01366)
(13.3074 -3.31412e-05 0.489636)
(13.3063 -9.87655e-05 0.489773)
(13.3069 -1.60249e-05 0.489654)
(13.3068 -0.000129229 0.489646)
(13.3061 5.05927e-05 0.489758)
(13.3071 0.000107022 0.489653)
(8.30245 0.000175679 1.94955)
(8.30276 0.000125675 1.94987)
(8.30257 3.92787e-05 1.94974)
(8.30256 4.59732e-05 1.94975)
(8.30266 -2.4061e-05 1.94983)
(8.30243 -8.33889e-05 1.9497)
(4.25129 0.000102205 2.84143)
(4.25179 9.00123e-05 2.84161)
(4.25153 4.38609e-05 2.84155)
(4.25154 3.8988e-05 2.84155)
(4.25167 -3.12698e-05 2.84158)
(4.25146 -7.36806e-05 2.84149)
(2.70465 0.000168296 2.94593)
(2.70545 0.000138998 2.94629)
(2.70515 -1.18155e-05 2.94614)
(2.70517 3.18259e-05 2.94614)
(2.70536 -4.41559e-05 2.94621)
(2.70489 -7.95388e-05 2.94601)
(0.472439 -0.000109715 1.61322)
(0.473097 -8.57859e-05 1.6135)
(0.472901 2.50981e-05 1.61341)
(0.472906 -3.75602e-05 1.61341)
(0.473065 6.68394e-05 1.61347)
(0.472587 9.77648e-05 1.61328)
(-0.339687 -4.6266e-05 -2.53463)
(-0.33968 -4.43357e-07 -2.53505)
(-0.33969 -1.55163e-05 -2.53502)
(-0.339686 1.06287e-05 -2.53499)
(-0.339675 -1.71767e-05 -2.53502)
(-0.339726 3.45741e-05 -2.53463)
(-1.03988 -2.86883e-05 -2.38483)
(-1.03986 2.67323e-05 -2.38527)
(-1.0399 -1.53537e-05 -2.38521)
(-1.03989 7.38457e-06 -2.3852)
(-1.03985 -1.28207e-05 -2.38527)
(-1.03996 4.06081e-05 -2.38477)
(-1.44131 -1.47477e-05 -2.38318)
(-1.44113 2.98662e-05 -2.38365)
(-1.44116 -1.09657e-06 -2.38358)
(-1.44115 -4.62087e-06 -2.38358)
(-1.44108 -2.56727e-06 -2.38366)
(-1.44135 4.37389e-05 -2.38313)
(-1.40501 -5.1782e-05 -3.04227)
(-1.40473 -2.79832e-05 -3.04278)
(-1.40476 -3.23508e-05 -3.04271)
(-1.40476 -4.73717e-05 -3.04272)
(-1.40468 4.28622e-06 -3.04283)
(-1.40499 5.75794e-05 -3.04222)
(-1.58627 -9.41429e-05 -3.67432)
(-1.58602 -8.85656e-05 -3.6748)
(-1.58607 -5.99006e-05 -3.67473)
(-1.58608 -7.32834e-05 -3.67474)
(-1.58602 8.89279e-06 -3.67483)
(-1.58626 7.04067e-05 -3.67426)
(-1.85407 -0.000109485 -4.52899)
(-1.85392 -0.000111547 -4.52942)
(-1.85398 -5.33091e-05 -4.52938)
(-1.85399 -8.74668e-05 -4.52939)
(-1.85396 2.01171e-05 -4.52944)
(-1.85407 9.5543e-05 -4.52898)
(-1.97965 -0.00013485 -4.48346)
(-1.97968 -0.000116376 -4.48385)
(-1.97977 1.98186e-05 -4.48394)
(-1.97984 -6.56593e-05 -4.48403)
(-1.97984 0.000137221 -4.48409)
(-1.9797 0.000230874 -4.48366)
(1.52254 -6.89861e-05 1.31624)
(1.52155 -4.2499e-05 1.31564)
(1.52154 6.33938e-05 1.31571)
(1.52151 3.22628e-05 1.31566)
(1.52102 0.000198513 1.31529)
(1.5228 0.000176525 1.31631)
(7.05422 8.73662e-05 9.24223)
(7.05433 7.94883e-05 9.24245)
(7.05411 0.000126706 9.2424)
(7.05402 0.000123081 9.24236)
(7.05406 1.45239e-05 9.24228)
(7.05449 -8.80499e-05 9.2423)
(4.25053 0.000195219 7.0871)
(4.25137 0.000216254 7.0877)
(4.2509 0.000131898 7.08752)
(4.25088 8.45839e-05 7.08752)
(4.251 -1.68901e-05 7.08768)
(4.25107 -9.3409e-05 7.08717)
(2.67059 0.000251316 4.30131)
(2.67165 0.000212211 4.30229)
(2.67125 -1.46202e-05 4.30189)
(2.67115 3.38141e-05 4.30181)
(2.67121 -4.82043e-05 4.30188)
(2.6712 -9.37077e-05 4.30174)
(0.0825229 -8.97645e-05 1.86312)
(0.0830633 -3.07794e-05 1.86341)
(0.0829074 3.6204e-05 1.86334)
(0.0828342 2.21591e-05 1.86334)
(0.0828296 2.28441e-05 1.86341)
(0.0827373 -2.87591e-05 1.8632)
(0.0064521 -2.47149e-06 0.00657133)
(0.00645309 -4.5811e-06 0.00657124)
(0.00645412 -4.12126e-06 0.0065713)
(0.00645511 -3.8772e-06 0.00657138)
(0.00645623 -3.20896e-06 0.00657138)
(0.00645782 -1.34114e-06 0.00657134)
(0.0196128 -2.04498e-06 0.00687658)
(0.0196163 -4.69305e-06 0.00687653)
(0.0196194 -5.47726e-06 0.00687613)
(0.0196222 -5.69384e-06 0.00687555)
(0.0196251 -4.92097e-06 0.00687459)
(0.0196297 -2.13289e-06 0.00687308)
(0.0335956 -2.11495e-06 0.00760755)
(0.0336031 -5.75304e-06 0.00760909)
(0.0336089 -7.66992e-06 0.00760915)
(0.0336135 -7.89867e-06 0.00760845)
(0.0336182 -6.67971e-06 0.00760734)
(0.0336259 -2.88725e-06 0.00760604)
(0.0489571 -4.04161e-06 0.00918785)
(0.0489711 -9.89359e-06 0.00918834)
(0.0489808 -1.16005e-05 0.0091884)
(0.0489878 -1.06722e-05 0.00918774)
(0.0489945 -8.95515e-06 0.00918651)
(0.0490066 -4.09628e-06 0.00918458)
(0.0661253 -9.24465e-06 0.0125295)
(0.0661499 -1.88907e-05 0.0125225)
(0.0661645 -1.76993e-05 0.0125212)
(0.0661741 -1.35992e-05 0.0125203)
(0.0661823 -1.0609e-05 0.0125192)
(0.066198 -5.10426e-06 0.012517)
(0.0850886 -2.11087e-05 0.0192505)
(0.0851279 -3.61395e-05 0.0192194)
(0.085144 -2.49585e-05 0.0192104)
(0.0851496 -1.3715e-05 0.0192059)
(0.0851514 -6.12451e-06 0.0192033)
(0.085163 -2.32138e-06 0.0192004)
(0.105167 -3.64319e-05 0.0317379)
(0.105219 -4.79832e-05 0.031673)
(0.105221 -8.88655e-06 0.0316531)
(0.105204 1.76252e-05 0.0316459)
(0.105178 3.24359e-05 0.0316454)
(0.105163 1.76078e-05 0.0316497)
(0.12299 -4.56455e-05 0.0529224)
(0.123026 -2.40106e-05 0.0528187)
(0.122993 7.1201e-05 0.0527941)
(0.122933 0.000119489 0.0527982)
(0.122857 0.000137627 0.0528192)
(0.122781 6.80722e-05 0.0528573)
(0.13824 -1.32537e-05 0.0813448)
(0.13821 7.04947e-05 0.0812356)
(0.138134 0.000206772 0.0812464)
(0.138035 0.000266934 0.0813049)
(0.137924 0.000278804 0.0813882)
(0.137789 0.000135583 0.0814965)
(0.127304 5.54959e-05 0.115063)
(0.127164 0.000177418 0.115046)
(0.127027 0.000267512 0.115167)
(0.126871 0.000286769 0.11537)
(0.126691 0.000262943 0.11562)
(0.126461 0.000123028 0.115883)
(0.0997871 0.000100421 0.122235)
(0.0995692 0.000211557 0.122463)
(0.0994371 0.000227544 0.122617)
(0.0993084 0.000219607 0.122759)
(0.0991342 0.000190711 0.122918)
(0.0988574 8.90973e-05 0.123097)
(0.0299487 -5.45254e-07 0.11682)
(0.0298212 -4.79467e-05 0.117032)
(0.0297712 -0.000109908 0.117105)
(0.0297366 -0.000131102 0.117136)
(0.0296717 -0.000119876 0.117178)
(0.029517 -4.95253e-05 0.117313)
(0.00608002 -1.95754e-06 0.0188711)
(0.00608177 -3.49522e-06 0.0188712)
(0.00608303 -2.99142e-06 0.0188717)
(0.00608406 -2.64033e-06 0.0188722)
(0.00608508 -1.88893e-06 0.0188725)
(0.00608646 -6.22893e-07 0.0188727)
(0.0183315 -1.71456e-06 0.0195231)
(0.0183375 -3.5553e-06 0.0195233)
(0.0183415 -3.74917e-06 0.0195229)
(0.0183446 -3.61424e-06 0.0195222)
(0.0183476 -2.7089e-06 0.0195206)
(0.0183518 -1.00812e-06 0.0195181)
(0.0307196 -2.66308e-06 0.0206264)
(0.0307309 -5.54901e-06 0.0206294)
(0.0307376 -5.88144e-06 0.02063)
(0.0307424 -5.47529e-06 0.0206292)
(0.0307468 -4.214e-06 0.0206275)
(0.0307536 -1.74719e-06 0.0206253)
(0.0429439 -4.30921e-06 0.0213955)
(0.0429623 -7.69331e-06 0.0213956)
(0.042971 -6.39455e-06 0.0213953)
(0.0429763 -5.03703e-06 0.0213939)
(0.0429809 -3.86292e-06 0.0213912)
(0.0429902 -1.86352e-06 0.0213873)
(0.054211 -6.08368e-06 0.0205073)
(0.0542425 -6.90912e-06 0.0204887)
(0.0542536 -4.75113e-07 0.0204811)
(0.0542586 2.3623e-06 0.0204754)
(0.0542622 2.69861e-06 0.0204696)
(0.0542734 6.33542e-07 0.0204634)
(0.063136 -1.01678e-05 0.0151111)
(0.0631777 -3.32741e-06 0.0150392)
(0.0631845 1.65875e-05 0.0150093)
(0.0631798 2.23712e-05 0.0149918)
(0.0631729 2.12438e-05 0.0149805)
(0.0631764 8.51968e-06 0.0149749)
(0.0677393 1.58698e-05 0.00166914)
(0.0677981 5.62869e-05 0.00149903)
(0.0677898 8.58031e-05 0.00143107)
(0.0677566 9.10531e-05 0.00140101)
(0.0677159 8.07479e-05 0.00139626)
(0.0676824 3.49181e-05 0.00141738)
(0.0693586 5.58973e-05 -0.0285338)
(0.0694286 0.000156479 -0.0287926)
(0.0693816 0.000210402 -0.0288727)
(0.0692861 0.00021432 -0.0288753)
(0.0691707 0.000184292 -0.0288227)
(0.0690461 7.95456e-05 -0.0287071)
(0.068087 0.000112202 -0.0728785)
(0.0680778 0.000285384 -0.07311)
(0.0679236 0.000357702 -0.0730977)
(0.0676721 0.00034594 -0.0729727)
(0.0673665 0.000280297 -0.0727703)
(0.0670382 0.000118618 -0.0724937)
(0.0780466 0.000169359 -0.16457)
(0.0778535 0.000398861 -0.164635)
(0.0775937 0.0005061 -0.164506)
(0.0772711 0.000547286 -0.164298)
(0.0768943 0.000482131 -0.164034)
(0.076481 0.000210818 -0.1637)
(0.0799214 0.000123402 -0.253139)
(0.0794664 0.000205093 -0.252817)
(0.0791537 0.000122076 -0.252643)
(0.0788853 5.76458e-05 -0.252507)
(0.0786024 1.72959e-05 -0.252353)
(0.0782089 -7.73936e-07 -0.252121)
(0.0930225 -3.88331e-05 -0.373579)
(0.0927396 -0.000167199 -0.373353)
(0.0925854 -0.000299702 -0.373342)
(0.092469 -0.000338417 -0.373377)
(0.0923522 -0.000157606 -0.373438)
(0.0921319 6.55664e-06 -0.373379)
(0.00568153 -6.15255e-07 0.0301611)
(0.00568259 -9.77825e-07 0.0301609)
(0.00568313 -6.00588e-07 0.0301615)
(0.00568343 -2.58771e-07 0.0301621)
(0.00568348 1.54853e-07 0.0301624)
(0.00568337 2.5575e-07 0.030163)
(0.0174423 -4.17392e-07 0.0314)
(0.017446 -7.57134e-07 0.0313998)
(0.0174477 -5.65651e-07 0.0313996)
(0.0174485 -2.18311e-07 0.0313991)
(0.0174484 3.63582e-07 0.0313977)
(0.0174479 3.60084e-07 0.0313956)
(0.0307138 -1.18237e-06 0.0339315)
(0.0307209 -1.67214e-06 0.0339337)
(0.0307234 -7.56898e-07 0.0339342)
(0.0307241 -2.14933e-08 0.0339334)
(0.0307231 7.31762e-07 0.0339316)
(0.0307215 5.0108e-07 0.0339295)
(0.0469938 -2.42132e-06 0.0376435)
(0.0470062 -2.2587e-06 0.0376419)
(0.0470096 8.4668e-07 0.0376408)
(0.0470098 2.20949e-06 0.0376388)
(0.0470074 2.77112e-06 0.0376354)
(0.0470041 1.2897e-06 0.0376311)
(0.0687651 -4.2725e-06 0.0426262)
(0.0687877 -2.06596e-06 0.0426036)
(0.0687922 5.49558e-06 0.042593)
(0.0687903 8.10046e-06 0.0425852)
(0.0687839 8.71685e-06 0.0425773)
(0.0687752 4.00213e-06 0.0425695)
(0.0986597 -3.96968e-06 0.0492431)
(0.098703 6.30826e-06 0.0491647)
(0.0987071 2.38447e-05 0.0491287)
(0.0986948 2.9666e-05 0.0491085)
(0.0986729 3.08473e-05 0.0490955)
(0.0986445 1.49357e-05 0.0490919)
(0.142219 1.14834e-06 0.0592356)
(0.142281 3.11132e-05 0.0590565)
(0.14227 7.11841e-05 0.058984)
(0.142226 8.6786e-05 0.0589557)
(0.142163 8.64609e-05 0.0589586)
(0.142085 4.12004e-05 0.0589986)
(0.192824 2.86044e-05 0.0763235)
(0.192849 9.53275e-05 0.0760776)
(0.192778 0.000150089 0.0760037)
(0.192656 0.000165244 0.0760113)
(0.192509 0.000149315 0.076087)
(0.192342 6.7991e-05 0.076241)
(0.267654 9.05153e-05 0.109298)
(0.267584 0.000191576 0.109156)
(0.267465 0.000211662 0.109188)
(0.267315 0.000205754 0.109322)
(0.267153 0.000156332 0.109545)
(0.266968 6.17203e-05 0.109841)
(0.295625 2.69976e-05 0.159564)
(0.295335 -3.71015e-05 0.159735)
(0.295109 -0.000170719 0.159955)
(0.294894 -0.000255001 0.160201)
(0.294711 -0.000273485 0.160485)
(0.294586 -0.000124056 0.160753)
(0.285458 -0.00014791 0.19581)
(0.284991 -0.000392031 0.196333)
(0.284718 -0.000512469 0.196519)
(0.28453 -0.000531885 0.196578)
(0.284459 -0.000457638 0.196597)
(0.284532 -0.000192284 0.196819)
(0.0831257 -0.000285445 0.263047)
(0.0828254 -0.000619431 0.263544)
(0.0826854 -0.000674905 0.263681)
(0.0827011 -0.000692927 0.263525)
(0.0828496 -0.000426426 0.262977)
(0.0826049 -7.31051e-05 0.264315)
(0.00480297 -9.77684e-08 0.0399383)
(0.00480394 1.88124e-07 0.0399376)
(0.00480413 7.64699e-07 0.0399378)
(0.00480398 1.11245e-06 0.0399379)
(0.00480353 1.18974e-06 0.0399378)
(0.004803 6.2407e-07 0.0399383)
(0.0145008 1.73379e-07 0.0417074)
(0.0145041 7.29709e-07 0.0417065)
(0.0145046 1.36526e-06 0.0417061)
(0.014504 1.7536e-06 0.0417052)
(0.0145024 1.86104e-06 0.0417037)
(0.0145005 9.03668e-07 0.0417024)
(0.0243031 -1.39641e-07 0.0451952)
(0.0243084 8.08129e-07 0.0451955)
(0.0243082 2.22743e-06 0.045195)
(0.0243058 2.83504e-06 0.0451936)
(0.0243018 2.84224e-06 0.0451913)
(0.0242975 1.25557e-06 0.0451896)
(0.0338495 6.75346e-07 0.0496301)
(0.0338552 4.18441e-06 0.0496267)
(0.0338521 7.49725e-06 0.0496238)
(0.0338459 8.08218e-06 0.0496203)
(0.0338379 7.19192e-06 0.0496158)
(0.0338301 3.02736e-06 0.0496117)
(0.0421831 6.25808e-06 0.0541294)
(0.0421869 1.73256e-05 0.0541079)
(0.0421788 2.25039e-05 0.0540954)
(0.0421664 2.15355e-05 0.0540855)
(0.0421527 1.78091e-05 0.0540758)
(0.0421396 7.56622e-06 0.0540685)
(0.0471523 2.13147e-05 0.0560007)
(0.0471501 4.76199e-05 0.0559316)
(0.0471344 5.24768e-05 0.0558963)
(0.0471128 4.73251e-05 0.0558736)
(0.0470895 3.69706e-05 0.0558591)
(0.0470661 1.55414e-05 0.0558571)
(0.0442896 4.98923e-05 0.0510858)
(0.0442766 9.77955e-05 0.0509516)
(0.0442586 9.12296e-05 0.0508986)
(0.0442356 7.41089e-05 0.050879)
(0.0442066 4.84389e-05 0.0508865)
(0.0441698 1.71864e-05 0.0509306)
(0.03091 6.34755e-05 0.0234755)
(0.0308523 9.52401e-05 0.0233154)
(0.0308247 4.17067e-05 0.0232927)
(0.0307973 -1.82699e-06 0.02333)
(0.0307533 -3.95869e-05 0.0234196)
(0.0306922 -2.86095e-05 0.0235731)
(0.0039212 4.3016e-05 -0.0489499)
(0.00374319 5.19893e-06 -0.0490087)
(0.0036619 -0.000119772 -0.0489233)
(0.00360562 -0.000180491 -0.0487665)
(0.00353108 -0.000201671 -0.0485726)
(0.00345831 -0.00010404 -0.0483081)
(-0.0231951 -1.31137e-05 -0.190411)
(-0.0235536 -0.000105859 -0.190225)
(-0.0236525 -0.00023077 -0.190011)
(-0.0236159 -0.000261948 -0.189768)
(-0.0235613 -0.000238327 -0.189578)
(-0.0236834 -0.00011618 -0.189314)
(-0.0797342 -3.85634e-05 -0.727931)
(-0.0802084 -0.000202953 -0.727541)
(-0.0800926 -0.000382999 -0.727487)
(-0.0796134 -0.000456238 -0.727279)
(-0.0787691 9.28776e-05 -0.727527)
(-0.0797908 0.000328238 -0.727491)
(0.12731 0.000103206 -1.16875)
(0.126963 0.000138476 -1.16903)
(0.127021 -0.000365674 -1.16909)
(0.12786 -0.00132635 -1.16861)
(0.129791 0.00218912 -1.16859)
(0.126122 0.00310928 -1.16988)
(0.116619 2.82285e-05 -1.98574)
(0.116627 2.39294e-05 -1.98614)
(0.116624 -1.13922e-05 -1.98607)
(0.11663 -1.09411e-05 -1.98605)
(0.116635 -3.35565e-05 -1.98612)
(0.116608 -2.86144e-05 -1.98574)
(0.0326076 3.21795e-05 -2.34475)
(0.032605 2.5294e-05 -2.34502)
(0.0326049 -8.67236e-06 -2.34498)
(0.0326051 -1.55769e-06 -2.34498)
(0.0326044 -2.94272e-05 -2.34503)
(0.032603 -3.23373e-05 -2.34475)
(0.0213027 1.99313e-05 -2.29284)
(0.0213026 2.10417e-05 -2.29299)
(0.021303 1.98146e-06 -2.29297)
(0.0213025 3.30787e-06 -2.29297)
(0.0213016 -1.64713e-05 -2.29299)
(0.0213015 -1.87016e-05 -2.29283)
(0.189864 4.02463e-05 -2.0421)
(0.189899 2.24671e-05 -2.0425)
(0.189902 -8.98676e-06 -2.04244)
(0.189899 -8.28089e-06 -2.04243)
(0.189898 -2.55889e-05 -2.04249)
(0.189863 -4.07689e-05 -2.04203)
(-0.0203152 3.20199e-05 -2.45548)
(-0.0203155 2.86421e-05 -2.45576)
(-0.0203174 -9.47159e-06 -2.45571)
(-0.020317 -2.05009e-06 -2.45571)
(-0.0203166 -4.06744e-05 -2.45576)
(-0.0203275 -3.98004e-05 -2.45545)
(0.0474695 2.0723e-05 -2.36601)
(0.0474664 2.18537e-05 -2.36616)
(0.047466 1.98949e-06 -2.36614)
(0.0474651 1.78341e-06 -2.36614)
(0.0474638 -2.10038e-05 -2.36616)
(0.0474657 -2.23665e-05 -2.366)
(0.612876 3.44699e-05 -1.71595)
(0.612926 1.56962e-05 -1.71636)
(0.61292 -1.01359e-05 -1.71629)
(0.612912 -1.80724e-06 -1.71629)
(0.612914 -2.63326e-05 -1.71636)
(0.612861 -4.65469e-05 -1.71587)
(0.0701734 3.10217e-05 -2.45977)
(0.0701612 2.93235e-05 -2.46004)
(0.0701612 -1.04532e-05 -2.46)
(0.0701633 -1.92056e-06 -2.46)
(0.0701653 -4.56631e-05 -2.46004)
(0.0701729 -4.43737e-05 -2.45975)
(0.0713676 1.91981e-05 -2.27734)
(0.0713645 1.70655e-05 -2.27749)
(0.0713632 -1.96483e-06 -2.27747)
(0.0713622 -2.53664e-06 -2.27746)
(0.0713607 -2.28535e-05 -2.27749)
(0.0713648 -2.26587e-05 -2.27734)
(0.910341 3.30138e-05 -1.9515)
(0.910355 1.81096e-05 -1.95194)
(0.910347 -1.20023e-05 -1.95186)
(0.91034 1.29945e-06 -1.95186)
(0.910341 -3.6741e-05 -1.95196)
(0.910311 -5.91629e-05 -1.9515)
(0.0710346 3.22733e-05 -2.72171)
(0.0710043 2.9113e-05 -2.72199)
(0.0710121 -1.13143e-05 -2.72194)
(0.0710161 7.48983e-07 -2.72193)
(0.0710166 -4.03247e-05 -2.72198)
(0.0710555 -4.1176e-05 -2.72171)
(0.071946 2.0238e-05 -2.42168)
(0.0719484 1.47693e-05 -2.42183)
(0.0719473 -5.54336e-06 -2.42181)
(0.0719466 -3.08527e-06 -2.42182)
(0.0719462 -2.03465e-05 -2.42184)
(0.0719454 -2.06881e-05 -2.4217)
(0.989122 3.01005e-05 -1.97552)
(0.989125 1.66645e-05 -1.97595)
(0.989113 -1.10815e-05 -1.97589)
(0.989107 3.58176e-06 -1.9759)
(0.989098 -3.06543e-05 -1.976)
(0.989075 -5.40742e-05 -1.97557)
(-0.00798971 3.21846e-05 -2.80142)
(-0.0080259 3.15514e-05 -2.80171)
(-0.00801415 -5.43012e-06 -2.80166)
(-0.00800759 8.37299e-06 -2.80165)
(-0.00801171 -2.8553e-05 -2.80171)
(-0.00795839 -3.38544e-05 -2.80144)
(0.0416297 2.28521e-05 -2.47008)
(0.0416338 1.87408e-05 -2.47024)
(0.0416325 -2.97531e-06 -2.47023)
(0.0416306 -5.86752e-07 -2.47023)
(0.0416293 -1.85006e-05 -2.47025)
(0.041624 -2.04209e-05 -2.4701)
(0.888415 3.60875e-05 -2.25672)
(0.888422 2.06182e-05 -2.25707)
(0.888419 -1.59529e-05 -2.25701)
(0.888429 -6.13441e-06 -2.257)
(0.888417 -1.8473e-05 -2.25704)
(0.888406 -3.32833e-05 -2.25675)
(-0.107768 2.9463e-05 -2.91083)
(-0.107813 2.63088e-05 -2.91109)
(-0.107799 -6.75921e-06 -2.91106)
(-0.107799 4.34448e-06 -2.91105)
(-0.107806 -2.4505e-05 -2.91109)
(-0.10777 -2.5735e-05 -2.91083)
(0.0185052 2.14959e-05 -2.62882)
(0.0185106 1.94477e-05 -2.62896)
(0.0185074 -2.82719e-06 -2.62896)
(0.0185039 -5.97596e-06 -2.62896)
(0.0185034 -2.14943e-05 -2.62898)
(0.0184921 -1.93689e-05 -2.62881)
(0.226512 9.40946e-06 -3.47097)
(0.226527 1.23958e-05 -3.4712)
(0.226497 1.82211e-06 -3.47122)
(0.226404 -3.80514e-06 -3.4713)
(0.22638 4.2108e-06 -3.4714)
(0.226454 5.81894e-06 -3.471)
(-0.110399 1.42915e-05 -2.59863)
(-0.110428 1.08703e-05 -2.59885)
(-0.11041 -1.36075e-05 -2.59882)
(-0.110402 -1.61113e-06 -2.59881)
(-0.110383 -4.87708e-05 -2.59884)
(-0.110435 -5.74149e-05 -2.59858)
(-0.0223555 1.6609e-05 -2.7768)
(-0.0223442 1.59873e-05 -2.77694)
(-0.0223539 -4.22921e-06 -2.77692)
(-0.0223618 -8.17712e-06 -2.77692)
(-0.0223595 -2.20178e-05 -2.77696)
(-0.022358 -1.82888e-05 -2.77678)
(-2.05674 3.0283e-05 -4.89732)
(-2.05684 7.21332e-05 -4.89779)
(-2.05692 5.37148e-05 -4.89767)
(-2.05708 0.000124945 -4.8976)
(-2.0572 -4.5769e-05 -4.8979)
(-2.05685 -0.000141665 -4.89713)
(-1.10359 3.21743e-05 -2.95812)
(-1.10365 -8.71241e-06 -2.95851)
(-1.10369 -6.96782e-05 -2.95844)
(-1.10375 -3.45384e-05 -2.9584)
(-1.1037 -7.42321e-05 -2.9585)
(-1.10389 -6.75068e-05 -2.95827)
(0.3557 3.25683e-05 -2.77764)
(0.355739 2.41695e-05 -2.77774)
(0.355721 -2.42388e-05 -2.77774)
(0.355708 -9.8741e-06 -2.77776)
(0.355709 -8.94601e-06 -2.77785)
(0.355685 -1.3497e-05 -2.77762)
(4.4518 4.55646e-05 4.97209)
(4.45181 0.000176233 4.97178)
(4.45183 0.00027432 4.97187)
(4.45192 0.000303486 4.97216)
(4.45207 0.000129334 4.97218)
(4.45198 -9.12433e-05 4.97214)
(-1.55282 7.65697e-05 -1.40631)
(-1.55303 3.1424e-05 -1.40696)
(-1.55294 -4.45228e-05 -1.4066)
(-1.55284 -1.50807e-05 -1.40615)
(-1.55274 -1.2271e-05 -1.40614)
(-1.55298 7.44878e-06 -1.40621)
(-0.346515 3.07517e-05 -2.78635)
(-0.346475 -2.41664e-05 -2.78644)
(-0.34654 -0.000109876 -2.7865)
(-0.346594 -7.79187e-05 -2.78659)
(-0.346609 -3.69148e-05 -2.78671)
(-0.346568 -1.93932e-05 -2.78627)
(6.15252 0.000207956 9.47051)
(6.15296 0.000296597 9.47142)
(6.15275 0.000275758 9.47117)
(6.15294 0.000299461 9.47127)
(6.15322 0.000247503 9.47153)
(6.15309 2.16167e-05 9.47122)
(4.97048 0.000223321 8.04315)
(4.97061 0.000394504 8.04439)
(4.97048 0.00035832 8.04414)
(4.97059 0.000318226 8.04436)
(4.9707 -5.00969e-06 8.04456)
(4.97025 -0.000223677 8.04454)
(3.15799 8.1543e-05 3.55581)
(3.15788 0.000132745 3.55665)
(3.15798 8.07482e-05 3.55689)
(3.15808 4.59753e-05 3.55735)
(3.15821 -0.000301325 3.55679)
(3.15789 -0.000361407 3.5585)
(3.8577 0.000265888 5.94959)
(3.85889 0.000267416 5.95149)
(3.85852 0.000105537 5.95081)
(3.85847 0.000156953 5.95066)
(3.85887 -6.32082e-06 5.95084)
(3.85833 -0.000130553 5.95065)
(1.44137 0.000278926 8.01935)
(1.44498 0.000423134 8.02193)
(1.44378 0.000315823 8.02109)
(1.44434 0.000288686 8.02079)
(1.44727 0.000308044 8.02072)
(1.43994 7.71405e-05 8.02143)
(4.19089 0.000115822 9.27861)
(4.19213 0.000193262 9.28068)
(4.19121 -0.000121588 9.28059)
(4.19154 4.43088e-05 9.28103)
(4.19339 0.000157529 9.28087)
(4.18781 -0.000195014 9.28202)
(1.98073 4.19815e-05 3.06576)
(1.98126 7.24976e-05 3.06654)
(1.98123 5.58246e-05 3.06634)
(1.9813 8.13291e-05 3.06623)
(1.98194 -4.32039e-05 3.06636)
(1.98059 -0.00012712 3.06623)
(2.87217 0.000174291 3.67425)
(2.87321 0.000154309 3.67611)
(2.873 0.0001013 3.67552)
(2.87214 0.000236445 3.67557)
(2.87162 -0.0002509 3.67648)
(2.87349 -0.000425672 3.67438)
(4.27624 0.000252953 0.818481)
(4.27682 7.58843e-05 0.823788)
(4.2766 -0.000561552 0.821876)
(4.27426 -7.6248e-06 0.821805)
(4.2749 -0.000331748 0.82403)
(4.27564 -0.000861122 0.81745)
(6.1438 0.00192671 -1.51)
(6.14463 0.00172407 -1.5072)
(6.14334 -0.00118741 -1.50306)
(6.14301 -0.00565832 -1.51426)
(6.13971 0.00458955 -1.54344)
(6.15477 0.0102851 -1.47836)
(-5.6086 0.00309193 1.42611)
(-5.61078 -5.58956e-05 1.43034)
(-5.61 0.00206772 1.42796)
(-5.61068 -0.00297258 1.43072)
(-5.57886 -0.00382285 1.43931)
(-5.6507 0.0055479 1.41734)
(-4.6383 0.00217238 2.00307)
(-4.6228 -0.00112629 2.0321)
(-4.61204 0.00784033 2.03912)
(-4.64443 0.00364912 2.01966)
(-4.58649 -0.00796743 2.15469)
(-4.67486 -0.000204647 1.90919)
(2.66399 -0.000208856 -4.9713)
(2.66224 0.000201623 -4.97351)
(2.6616 -9.86392e-05 -4.97029)
(2.66375 -0.00176532 -4.97461)
(2.65894 0.00409511 -4.98971)
(2.6773 0.00634031 -4.95856)
(2.50589 0.000102574 -1.43184)
(2.50705 0.000541141 -1.43332)
(2.50961 -0.00349279 -1.4309)
(2.51828 -0.00182292 -1.43143)
(2.57758 0.00132118 -1.41609)
(2.45255 -0.000224035 -1.43559)
(5.14805 0.00207285 13.2191)
(5.15874 0.00252199 13.232)
(5.15623 -0.00624035 13.2257)
(5.15848 -0.0111841 13.221)
(5.184 0.0055614 13.1662)
(5.12185 0.00744304 13.2809)
(2.69224 -0.000731406 -3.77596)
(2.68975 -8.86353e-06 -3.77846)
(2.68899 0.000533792 -3.77705)
(2.69803 0.002253 -3.77421)
(2.70557 -0.000300842 -3.75582)
(2.68871 -0.00291846 -3.80288)
(5.56734 0.000232161 0.341069)
(5.56691 0.000943481 0.341532)
(5.56587 -0.00515561 0.34106)
(5.5749 -0.00428934 0.343549)
(5.58894 0.0051493 0.352511)
(5.55467 0.00380623 0.332213)
(7.44944 0.00116488 5.41283)
(7.45444 0.00180769 5.42433)
(7.45216 -0.00765404 5.42849)
(7.45422 -0.00878117 5.37401)
(7.46814 0.00501541 5.29093)
(7.43211 0.0101116 5.51794)
(1.00796 -9.79407e-05 -2.64277)
(1.00845 0.000642336 -2.64426)
(1.00895 0.00190843 -2.64446)
(1.00935 0.0018259 -2.64105)
(1.00775 0.000588566 -2.63907)
(1.0107 -0.00161936 -2.6481)
(5.19513 0.000273975 0.97961)
(5.19586 0.000261317 0.981652)
(5.19553 -0.00352303 0.981207)
(5.19195 -0.00408387 0.976046)
(5.19422 0.00484783 0.973567)
(5.19312 0.00597353 0.985739)
(8.24705 4.10484e-05 -8.97862)
(8.24914 0.00121862 -8.97224)
(8.25034 -0.00442926 -8.97092)
(8.23441 0.0014838 -9.00799)
(8.21836 -0.00212203 -9.02016)
(8.27109 0.00192025 -8.95021)
(0.628922 0.000217604 -0.164943)
(0.628192 0.000515625 -0.165969)
(0.628101 0.00080737 -0.166053)
(0.630207 0.00074666 -0.163194)
(0.633837 -0.000101075 -0.155369)
(0.62555 -0.000300515 -0.173)
(3.35021 -2.4465e-05 0.904601)
(3.351 3.06708e-05 0.905998)
(3.35113 0.00134879 0.905563)
(3.34749 0.00286138 0.904378)
(3.34664 -0.00245512 0.902203)
(3.35219 -0.00411058 0.906611)
(4.16068 0.000422175 -2.61165)
(4.1588 0.000335183 -2.61459)
(4.15846 -0.000932052 -2.61584)
(4.16456 -0.00192589 -2.59274)
(4.17155 0.00345622 -2.57346)
(4.15032 0.00301045 -2.63625)
(1.7826 2.40688e-05 1.54847)
(1.78283 0.000175948 1.54869)
(1.78299 0.000425594 1.54855)
(1.7831 0.00142343 1.54866)
(1.7836 -0.00122162 1.54988)
(1.7827 -0.00237943 1.54758)
(3.13421 0.000247554 1.80691)
(3.13456 0.000315537 1.80821)
(3.13439 -0.000498578 1.80744)
(3.13656 -0.00122901 1.80857)
(3.14032 0.00134151 1.81136)
(3.13076 0.00197416 1.80401)
(4.98368 0.000316489 0.334911)
(4.98348 0.00028361 0.339915)
(4.98266 0.000418798 0.340152)
(4.98141 0.00125723 0.333643)
(4.98389 -0.00136376 0.325079)
(4.98047 -0.00160022 0.347241)