/*--------------------------------*- C++ -*----------------------------------*\
| =========                 |                                                 |
| \\      /  F ield         | OpenFOAM: The Open Source CFD Toolbox           |
|  \\    /   O peration     | Version:  v1612+                                |
|   \\  /    A nd           | Web:      www.OpenFOAM.com                      |
|    \\/     M anipulation  |                                                 |
\*---------------------------------------------------------------------------*/
FoamFile
{
    version     2.0;
    format      ascii;
    class       volVectorField;
    location    "7.35";
    object      U;
}
// * * * * * * * * * * * * * * * * * * * * * * * * * * * * * * * * * * * * * //

dimensions      [0 1 -1 0 0 0 0];

internalField   nonuniform List<vector> 
320
(
(2.81265e-06 -1.39684e-05 2.01491e-05)
(-5.30959e-06 -9.86652e-06 -1.37105e-05)
(-1.8396e-05 -8.05775e-06 -1.6678e-05)
(5.06709e-06 2.03543e-05 -1.32039e-05)
(0.000370702 8.6716e-05 -0.000179639)
(0.000185394 -0.000188049 -9.5188e-05)
(0.000371107 5.49375e-05 -0.000237535)
(0.000278914 0.000151351 1.52747e-05)
(0.000353463 9.71394e-05 -0.000237936)
(0.000193254 0.00040953 -4.05204e-05)
(0.000148588 0.000228646 -0.000182752)
(-4.30268e-05 8.12854e-05 -0.000199373)
(-0.000508021 0.000186927 -0.000173232)
(-0.000299944 -0.000262205 1.38631e-05)
(-0.000391319 0.000338875 0.000238178)
(-0.000154595 0.000188787 -0.00013295)
(1.39818e-05 -4.59069e-06 3.63724e-05)
(1.91256e-05 -4.34145e-06 2.1864e-05)
(4.38328e-05 -5.21961e-06 -4.93001e-06)
(1.18594e-05 -1.34531e-06 -1.83602e-05)
(2.66694e-05 -9.86053e-06 5.93076e-06)
(1.75446e-05 2.36597e-05 3.39497e-05)
(-1.09866e-05 1.14166e-05 3.32992e-05)
(1.03632e-06 -1.67103e-05 4.14005e-07)
(-3.17482e-05 2.56889e-05 4.8778e-05)
(-2.22158e-05 -4.508e-05 3.46027e-05)
(-3.27899e-05 -2.20566e-06 -5.35977e-05)
(-1.39543e-05 9.90684e-06 2.42347e-05)
(-9.68155e-06 -8.40999e-07 2.12409e-05)
(-9.44218e-06 -3.64979e-06 1.76964e-05)
(-1.80781e-05 -3.04836e-06 -3.73057e-06)
(-2.25121e-06 5.42757e-07 -1.86747e-05)
(-9.66775e-06 6.33183e-06 3.18376e-06)
(-2.71059e-06 -1.02587e-05 1.90851e-05)
(9.08049e-06 -2.99513e-06 1.57027e-05)
(7.20552e-07 1.13751e-05 -6.12482e-06)
(1.60131e-05 -1.50906e-05 2.85957e-05)
(1.10442e-05 2.24451e-05 2.30611e-05)
(1.65602e-05 -1.15976e-06 -2.9895e-05)
(8.36301e-06 -6.67587e-06 1.63686e-05)
(1.42477e-06 -8.1971e-06 7.0916e-06)
(-3.26528e-06 -6.54415e-06 -6.74002e-06)
(-1.00396e-05 -4.71781e-06 -3.2597e-06)
(3.66821e-06 1.17046e-05 -8.90317e-06)
(-4.27125e-06 -7.10158e-07 6.56218e-06)
(-5.22275e-06 -2.90621e-06 -1.33765e-06)
(-9.46718e-06 -2.68254e-06 -7.58808e-07)
(-6.11099e-07 6.93637e-07 1.30599e-06)
(-4.30319e-06 4.94138e-06 2.57856e-07)
(-1.23778e-06 -6.12886e-06 6.3394e-06)
(6.39391e-06 -1.68396e-06 5.67252e-06)
(8.30775e-07 7.06274e-06 1.00255e-06)
(8.98762e-06 -9.20566e-06 6.4864e-06)
(6.52364e-06 1.22978e-05 3.69924e-06)
(9.54737e-06 -7.75903e-07 -8.99211e-06)
(5.76739e-06 -3.82012e-06 4.05258e-06)
(-0.00045624 4.25577e-05 2.03522e-06)
(0.000264495 0.000115473 -0.000253383)
(0.000174416 -1.34444e-05 0.000112339)
(0.000120036 0.00023459 -4.70686e-05)
(0.000261389 0.000453584 0.000313436)
(0.000296856 -3.05409e-05 0.000348216)
(0.000176971 0.000184798 0.000329237)
(0.000299884 -0.000283056 0.000442222)
(0.000162697 -0.000270654 1.2998e-05)
(-8.01215e-05 0.000141185 8.84141e-05)
(-0.000146352 0.000228337 0.000359969)
(0.000325861 0.000216121 0.00035242)
(0.000279355 0.000237939 -6.01346e-05)
(-0.000255205 0.000213016 0.000162387)
(0.000315423 -0.00015672 0.000264349)
(7.22927e-06 3.55923e-05 0.000283524)
(0.000178853 0.000210509 0.000285866)
(0.00028281 0.000485418 4.79527e-05)
(0.000298165 2.11065e-05 1.87921e-05)
(0.000260309 0.000143034 0.000177167)
(-2.89422e-05 -1.55448e-05 -1.52594e-05)
(8.07709e-06 -2.17629e-06 3.1769e-05)
(1.23084e-05 -2.9157e-05 6.93018e-06)
(1.51685e-05 -6.23339e-06 8.58579e-06)
(-6.02067e-06 3.34602e-05 -6.01473e-05)
(1.86927e-05 -7.65388e-06 -8.27375e-05)
(-1.09643e-05 -6.55418e-07 -6.40287e-05)
(-1.20148e-05 -3.21998e-05 -0.000101863)
(9.77442e-06 -3.9515e-05 9.47743e-06)
(-1.70387e-05 -7.56755e-06 1.71073e-05)
(-2.42649e-05 2.05617e-05 -6.27131e-05)
(3.79234e-05 4.96514e-06 -7.56844e-05)
(1.84219e-05 -5.97126e-06 4.84056e-05)
(-2.86872e-05 3.09226e-06 -4.99827e-05)
(1.82506e-05 -3.78736e-05 -4.13171e-05)
(-2.91817e-05 -1.02395e-05 -5.73632e-05)
(3.19786e-06 1.17753e-05 -6.66079e-05)
(2.42338e-05 2.84995e-05 -9.79548e-06)
(8.2424e-06 -7.43525e-07 2.87225e-06)
(3.13039e-05 1.22853e-05 -5.09432e-05)
(1.89339e-05 9.15449e-06 -8.02953e-06)
(-2.13503e-07 -2.88251e-06 1.67603e-05)
(-3.10128e-06 8.11518e-06 1.06307e-05)
(-5.36914e-06 -1.50703e-06 5.2446e-06)
(3.75226e-06 -2.25347e-05 -2.88025e-05)
(-5.33659e-06 -5.2532e-07 -3.36867e-05)
(1.17918e-05 -1.45552e-06 -3.53594e-05)
(1.11347e-05 1.98997e-05 -4.84732e-05)
(6.06564e-07 2.47613e-05 7.84586e-06)
(1.3241e-05 5.89037e-06 1.62909e-05)
(1.80888e-05 -7.094e-06 -3.87525e-05)
(-1.65686e-05 2.09212e-06 -3.91836e-05)
(-6.29734e-06 3.69721e-06 3.18887e-05)
(1.53024e-05 2.01673e-07 -3.21461e-05)
(-1.24626e-05 2.14323e-05 -2.7802e-05)
(1.47564e-05 7.11673e-06 -3.45781e-05)
(-3.36938e-06 -7.51382e-06 -4.0944e-05)
(-9.98346e-06 -1.6651e-05 -5.23059e-06)
(2.05392e-07 1.53299e-06 1.25257e-07)
(-1.38886e-05 -5.26661e-06 -3.80092e-05)
(1.14618e-05 5.60783e-06 -4.35801e-06)
(5.10948e-07 -6.67497e-07 6.62451e-06)
(-1.29276e-06 5.50568e-06 -3.46993e-06)
(-2.99397e-06 -5.71872e-07 3.68726e-06)
(3.04836e-06 -1.25655e-05 -9.78774e-06)
(-1.97417e-06 -5.23207e-07 -1.60458e-05)
(6.71043e-06 -1.37995e-06 -1.07948e-05)
(6.96222e-06 1.10782e-05 -1.76358e-05)
(-3.04223e-07 1.34208e-05 2.50315e-06)
(7.51067e-06 3.11239e-06 -1.85349e-07)
(1.08022e-05 -4.43513e-06 -8.90251e-06)
(-9.52418e-06 6.20648e-07 -1.32277e-05)
(-2.51737e-06 2.64627e-06 5.17823e-06)
(9.86984e-06 -9.99833e-07 -8.7982e-06)
(-6.39188e-06 1.17174e-05 -6.20467e-06)
(1.03745e-05 3.71708e-06 -9.29587e-06)
(-9.63567e-07 -4.15849e-06 -1.0781e-05)
(-4.83119e-06 -8.95371e-06 -3.02152e-06)
(1.65229e-06 1.20447e-06 6.7646e-07)
(-7.50237e-06 -3.04708e-06 -6.49872e-06)
(1.6409e-07 -4.55189e-06 1.87253e-06)
(6.42508e-07 -2.60884e-06 -1.60875e-06)
(-5.97004e-06 -2.11226e-06 -1.53058e-06)
(1.32136e-06 7.28139e-06 -1.22643e-06)
(-4.25341e-06 -1.01164e-06 2.31638e-06)
(-2.56527e-06 5.6833e-08 2.80618e-06)
(-3.47135e-06 -5.43871e-07 -6.07392e-07)
(1.53893e-06 -6.65304e-07 -1.94241e-06)
(-1.19113e-06 7.56267e-07 6.87242e-07)
(2.97326e-07 -2.04085e-06 1.8513e-06)
(3.51106e-06 9.55164e-07 2.47645e-06)
(1.02573e-06 2.41495e-06 -7.88127e-07)
(5.65545e-06 -3.02316e-06 2.83211e-06)
(3.33366e-06 6.41969e-06 2.97696e-06)
(6.32576e-06 -8.92203e-07 -2.6688e-06)
(3.09239e-06 -1.13247e-06 2.71734e-06)
(6.20348e-06 2.59756e-06 -5.68545e-07)
(-1.0252e-06 -1.67017e-06 1.26854e-06)
(1.74749e-07 1.16069e-06 1.11348e-06)
(1.08052e-06 -2.23462e-06 4.75615e-08)
(4.48105e-07 -6.36157e-06 -2.88933e-06)
(-1.83378e-06 5.1524e-07 -3.26173e-06)
(1.65972e-06 -3.28624e-07 -3.93043e-06)
(1.60438e-06 6.03975e-06 -4.5814e-06)
(4.84179e-07 6.967e-06 7.94787e-07)
(2.93151e-06 1.28867e-06 1.66155e-06)
(4.82078e-06 -2.66928e-06 -3.87113e-06)
(-3.13449e-06 4.74476e-07 -4.18047e-06)
(-1.9917e-06 1.01117e-06 2.76738e-06)
(3.83933e-06 7.90195e-07 -3.56116e-06)
(-3.54574e-06 5.72854e-06 -3.17259e-06)
(4.06964e-06 1.90932e-06 -4.18093e-06)
(-1.51491e-06 -1.44199e-06 -4.73542e-06)
(-2.10707e-06 -4.79321e-06 -1.41998e-06)
(-1.15844e-06 -1.13394e-06 -8.91274e-07)
(-4.37296e-06 -1.94469e-06 -4.13835e-06)
(0.000407317 0.000150378 -2.70236e-05)
(-0.00012751 7.90448e-05 -3.34195e-05)
(0.00042831 -0.000177834 -4.73063e-05)
(6.78369e-05 -8.58557e-05 0.000206177)
(-9.21619e-05 -7.06636e-05 -2.25693e-05)
(0.000122884 0.000127225 -4.87734e-05)
(-0.000527558 6.64973e-05 -0.000272352)
(-0.000592952 0.000406261 -3.03906e-05)
(-0.000575654 -2.81365e-05 -3.5738e-05)
(-0.000589656 0.000155963 -0.000129314)
(-0.000604277 8.38055e-05 -8.1414e-05)
(-0.000226715 3.15897e-05 -0.000222849)
(-0.00030212 0.000259471 -3.65158e-05)
(-0.000108152 -0.000210638 3.61647e-05)
(0.000196102 -0.000405564 -4.20431e-05)
(0.000118438 -0.000485349 -6.22293e-05)
(0.000138122 -0.000667695 -0.000187676)
(-4.12603e-05 -0.00030123 -8.99226e-05)
(-0.000116457 -0.000349974 3.6482e-05)
(0.000269369 -0.000438696 -0.000149129)
(2.04052e-05 -0.000305237 -0.000191676)
(0.000153468 -4.98456e-05 -3.27424e-05)
(0.000126086 5.00575e-05 1.25138e-05)
(0.000168507 1.48105e-05 -4.45905e-06)
(-6.93731e-05 0.000459175 0.000184169)
(0.000140171 0.00016162 -0.000234637)
(7.3001e-05 0.000153969 -9.30957e-05)
(0.000150819 0.000228017 -0.000249765)
(3.7387e-05 2.68397e-05 1.40953e-05)
(5.0313e-07 4.30117e-06 -1.62839e-05)
(2.75942e-05 -2.60189e-06 2.62143e-05)
(2.31882e-05 -1.52205e-05 -5.04466e-05)
(-1.87776e-05 -1.34786e-05 -2.98897e-05)
(-2.31565e-05 1.8725e-05 2.12626e-05)
(-3.6692e-05 3.65827e-06 7.49488e-05)
(-5.1759e-05 3.56026e-05 2.95786e-05)
(-3.45493e-05 -1.0166e-05 -3.05853e-05)
(-5.42702e-05 -3.20429e-05 6.66616e-05)
(-6.59222e-05 1.08753e-05 7.85498e-05)
(-1.12124e-05 1.86358e-05 1.68571e-05)
(-7.78321e-06 1.97908e-05 1.0272e-05)
(1.61438e-05 1.96032e-06 -2.25174e-05)
(9.00119e-06 -2.19611e-05 3.25187e-05)
(5.01e-06 -2.4081e-05 8.56485e-06)
(1.55424e-05 -5.12334e-05 3.99581e-05)
(2.91102e-06 -1.70631e-06 9.20151e-06)
(1.48285e-07 -3.5721e-05 1.86323e-05)
(1.21222e-05 -3.05386e-05 3.93712e-05)
(1.14934e-05 -2.95937e-05 6.22588e-05)
(1.24384e-05 -3.82147e-05 -1.76842e-06)
(1.11544e-05 1.06361e-05 -3.9573e-05)
(3.33108e-05 8.32845e-06 3.59817e-05)
(7.71199e-06 2.8434e-06 -3.66162e-07)
(7.66052e-06 1.69763e-05 -9.76895e-07)
(2.54274e-05 1.35999e-05 3.79656e-05)
(8.98005e-06 1.03909e-05 4.68512e-05)
(-1.69172e-05 -1.35545e-05 4.52731e-06)
(5.98125e-06 -2.37804e-06 -9.888e-06)
(-8.64204e-06 -6.03425e-07 1.22013e-05)
(-1.08208e-05 6.05238e-06 -2.31214e-05)
(1.25659e-05 7.11481e-06 -2.12006e-05)
(1.69611e-05 -1.18857e-05 2.19936e-05)
(2.02558e-05 -6.09007e-06 4.88579e-05)
(2.60513e-05 -2.3797e-05 1.90617e-05)
(1.89941e-05 4.99195e-06 -1.70066e-05)
(3.1571e-05 1.70184e-05 3.39698e-05)
(3.7464e-05 -4.85666e-06 5.25372e-05)
(6.82121e-06 -8.16418e-06 8.06225e-06)
(4.54048e-06 -9.80157e-06 8.85011e-06)
(-8.86626e-06 -8.13683e-07 -1.55538e-05)
(-2.1021e-06 1.25913e-05 2.00925e-05)
(1.08424e-06 1.45277e-05 6.84529e-06)
(-1.70881e-06 2.95955e-05 2.37276e-05)
(2.61292e-06 -3.29031e-07 1.1084e-06)
(-1.72254e-06 2.06854e-05 6.55241e-06)
(-6.53358e-06 1.66963e-05 2.04685e-05)
(-6.17149e-06 1.47593e-05 3.14507e-05)
(-8.10904e-06 2.14944e-05 -3.47136e-07)
(-6.10952e-06 -5.99408e-06 -2.65295e-05)
(-2.12213e-05 -2.29646e-06 2.29942e-05)
(-8.9426e-07 2.41389e-06 -5.51958e-07)
(-2.15755e-06 -1.05805e-05 -7.57036e-06)
(-1.30075e-05 -7.96901e-06 2.15946e-05)
(-4.86231e-06 -5.40963e-06 1.81979e-05)
(-8.08535e-06 -7.86374e-06 3.42981e-06)
(3.38805e-06 -9.77213e-07 -3.47354e-06)
(-4.16938e-06 2.09843e-07 6.96798e-06)
(-5.31876e-06 3.70322e-06 -8.59977e-06)
(8.60366e-06 4.23575e-06 -1.45514e-06)
(1.06539e-05 -7.89437e-06 8.03582e-08)
(1.03363e-05 -3.37024e-06 1.25002e-05)
(1.48605e-05 -1.31996e-05 7.11319e-06)
(9.702e-06 9.79325e-07 -4.41157e-06)
(1.63629e-05 9.62868e-06 1.11927e-05)
(2.07098e-05 -2.07293e-06 9.53228e-06)
(3.21268e-06 -5.57972e-06 6.29113e-06)
(1.70978e-06 -5.60759e-06 1.90276e-06)
(-5.50722e-06 -9.20978e-07 -4.5088e-07)
(-1.47706e-06 6.29594e-06 6.55716e-06)
(1.25379e-06 8.0667e-06 1.79021e-06)
(-6.87186e-07 1.58437e-05 7.17647e-06)
(2.45137e-06 -7.69647e-07 3.37504e-06)
(-8.32171e-08 1.0875e-05 5.64774e-06)
(-3.69745e-06 9.18302e-06 6.137e-06)
(-3.25172e-06 8.18061e-06 1.07701e-05)
(-4.25421e-06 1.30716e-05 4.34134e-07)
(-1.89745e-06 -3.77793e-06 -4.24934e-06)
(-1.17485e-05 -2.907e-06 5.41941e-06)
(-6.45974e-07 1.83985e-06 -2.00756e-06)
(-9.55324e-07 -6.49115e-06 2.17345e-06)
(-8.3416e-06 -4.1302e-06 4.74566e-06)
(-2.0386e-06 -1.56076e-06 8.39694e-06)
(-5.38008e-06 -3.65053e-06 2.31059e-08)
(2.81788e-06 -9.78082e-07 -7.92657e-07)
(-2.81655e-06 -2.64961e-07 9.02693e-07)
(-2.00083e-06 8.13276e-07 -1.72726e-06)
(4.05091e-06 1.91065e-06 -2.248e-06)
(2.82946e-06 -2.15715e-06 2.88177e-06)
(7.67732e-06 -4.7075e-07 5.42488e-06)
(9.36373e-06 -6.8978e-06 2.63943e-06)
(7.1411e-06 6.67725e-07 -8.50239e-07)
(9.51621e-06 2.77275e-06 2.86459e-06)
(1.02424e-05 -4.19239e-07 5.84847e-06)
(3.05725e-06 -7.13668e-07 8.81027e-07)
(2.56182e-06 -2.96723e-06 8.54849e-07)
(-1.19864e-06 1.64921e-06 -1.60049e-06)
(1.86198e-07 5.40968e-06 2.43001e-06)
(1.11145e-06 4.39453e-06 2.13581e-09)
(-1.69362e-07 9.11893e-06 2.52317e-06)
(7.10022e-07 1.42944e-06 5.85066e-07)
(9.38099e-07 6.41725e-06 9.4591e-07)
(-1.32644e-06 4.33063e-06 1.70594e-06)
(-1.65848e-06 4.1979e-06 3.27537e-06)
(-1.79121e-06 6.18621e-06 -6.22429e-07)
(-1.20079e-06 -9.92418e-07 -3.4314e-06)
(-4.69289e-06 2.43092e-07 2.19165e-06)
(4.84293e-07 -5.35695e-07 -4.83856e-07)
(-4.35414e-07 -3.39838e-06 -4.11984e-07)
(-1.7802e-06 -1.62416e-06 2.43886e-06)
(-1.14913e-07 -1.98526e-06 2.10999e-06)
(-0.000111868 0.000340778 -0.000121278)
(0.000141407 0.00020246 -0.00012546)
(0.000236668 9.07799e-05 -3.01232e-05)
(-4.85319e-06 -0.000196016 -3.51959e-05)
(-6.17139e-06 2.0233e-05 4.42971e-05)
(1.16821e-05 1.65128e-05 -2.59172e-05)
(3.27056e-05 1.2809e-05 -2.15448e-05)
(-2.45114e-06 -3.78756e-05 -2.82256e-05)
)
;

boundaryField
{
    top_fluid_surface
    {
        type            pressureInletOutletVelocity;
        value           nonuniform List<vector> 
64
(
(0 0 -0.000179639)
(0 0 -9.5188e-05)
(0 0 -0.000237535)
(0.000278914 0.000151351 1.52747e-05)
(0 0 -0.000237936)
(0 0 -4.05204e-05)
(0 0 -0.000182752)
(0 0 -0.000199373)
(0 0 -0.000173232)
(-0.000299944 -0.000262205 1.38631e-05)
(-0.000391319 0.000338875 0.000238178)
(0 0 -0.00013295)
(0 0 2.03522e-06)
(0 0 -0.000253383)
(0.000174416 -1.34444e-05 0.000112339)
(0 0 -4.70686e-05)
(0.000261389 0.000453584 0.000313436)
(0.000296856 -3.05409e-05 0.000348216)
(0.000176971 0.000184798 0.000329237)
(0.000299884 -0.000283056 0.000442222)
(0.000162697 -0.000270654 1.2998e-05)
(-8.01215e-05 0.000141185 8.84141e-05)
(-0.000146352 0.000228337 0.000359969)
(0.000325861 0.000216121 0.00035242)
(0 0 -6.01346e-05)
(-0.000255205 0.000213016 0.000162387)
(0.000315423 -0.00015672 0.000264349)
(7.22927e-06 3.55923e-05 0.000283524)
(0.000178853 0.000210509 0.000285866)
(0.00028281 0.000485418 4.79527e-05)
(0.000298165 2.11065e-05 1.87921e-05)
(0.000260309 0.000143034 0.000177167)
(0 0 -2.70236e-05)
(0 0 -3.34195e-05)
(0 0 -4.73063e-05)
(6.78369e-05 -8.58557e-05 0.000206177)
(0 0 -2.25693e-05)
(0 0 -4.87734e-05)
(0 0 -0.000272352)
(0 0 -3.03906e-05)
(0 0 -3.5738e-05)
(0 0 -0.000129314)
(0 0 -8.1414e-05)
(0 0 -0.000222849)
(0 0 -3.65158e-05)
(-0.000108152 -0.000210638 3.61647e-05)
(0 0 -4.20431e-05)
(0 0 -6.22293e-05)
(0 0 -0.000187676)
(0 0 -8.99226e-05)
(-0.000116457 -0.000349974 3.6482e-05)
(0 0 -0.000149129)
(0 0 -0.000191676)
(0 0 -3.27424e-05)
(0 0 1.25138e-05)
(0 0 -4.45905e-06)
(-6.93731e-05 0.000459175 0.000184169)
(0 0 -0.000234637)
(0 0 -9.30957e-05)
(0 0 -0.000249765)
(0 0 -0.000121278)
(0 0 -0.00012546)
(0 0 -3.01232e-05)
(0 0 -3.51959e-05)
)
;
    }
    bottom_fluid_surface
    {
        type            noSlip;
    }
    lateral_surface_1
    {
        type            noSlip;
    }
    lateral_surface_2
    {
        type            noSlip;
    }
    lateral_surface_3
    {
        type            noSlip;
    }
    lateral_surface_4
    {
        type            noSlip;
    }
}


// ************************************************************************* //
