/*--------------------------------*- C++ -*----------------------------------*\
| =========                 |                                                 |
| \\      /  F ield         | OpenFOAM: The Open Source CFD Toolbox           |
|  \\    /   O peration     | Version:  v1612+                                |
|   \\  /    A nd           | Web:      www.OpenFOAM.com                      |
|    \\/     M anipulation  |                                                 |
\*---------------------------------------------------------------------------*/
FoamFile
{
    version     2.0;
    format      ascii;
    class       surfaceScalarField;
    location    "4.35";
    object      phi;
}
// * * * * * * * * * * * * * * * * * * * * * * * * * * * * * * * * * * * * * //

dimensions      [0 3 -1 0 0 0 0];

internalField   nonuniform List<scalar> 
816
(
-2.19249e-06
-4.70652e-06
4.2164e-06
-2.48813e-06
-3.86824e-06
9.03799e-06
4.32773e-07
4.91415e-06
7.84038e-07
6.85381e-06
-1.52031e-05
-3.62718e-06
1.7121e-06
3.32048e-06
7.47884e-06
-1.3616e-05
-5.86917e-07
3.87112e-06
5.11995e-06
-1.15699e-05
0.00034522
-0.000328699
1.52571e-05
-0.000174623
0.000167695
0.000147626
-1.20678e-05
-0.000105637
3.52293e-05
1.91118e-05
-1.82454e-05
-0.000187946
0.000182335
-4.34128e-05
3.87333e-06
-0.000158227
0.000186166
-4.00873e-05
1.13743e-05
8.75106e-05
4.67014e-05
0.000287614
-3.96046e-06
-0.000106025
4.49463e-05
0.000241485
-3.89759e-06
-0.000123375
0.000294565
0.000184339
-3.55361e-06
-9.68394e-05
-6.9391e-05
6.03575e-05
-3.82681e-06
-0.000101592
0.000121372
-3.64552e-05
3.33428e-06
-6.92683e-05
0.00010345
-0.000176429
4.10706e-06
-3.90812e-05
-0.000103824
1.61214e-06
-6.96155e-06
-0.000165934
1.1453e-05
6.35605e-06
-1.71015e-05
2.49337e-06
9.39594e-06
1.53112e-05
-2.23336e-05
2.21194e-06
5.17666e-06
-1.02621e-06
-1.07836e-05
-2.10534e-06
1.00087e-05
-3.14078e-06
8.7095e-06
2.50441e-06
-1.15724e-06
-1.61731e-06
9.89058e-06
4.30922e-06
-4.19792e-06
1.85651e-06
-1.51957e-05
2.0585e-06
5.73603e-06
-1.08181e-06
-7.59111e-06
-2.65475e-06
1.00364e-05
-1.75955e-06
5.15224e-06
-1.43792e-05
8.15602e-06
4.57113e-06
-2.47566e-05
3.54235e-06
1.11617e-05
1.45472e-05
-1.57731e-05
1.34453e-07
1.00944e-05
7.16279e-06
7.88601e-06
3.08454e-06
-3.10304e-06
-1.21282e-06
1.05394e-05
6.39215e-06
2.19296e-07
-4.37432e-06
-8.59053e-06
-1.66348e-07
-4.92667e-06
-9.281e-06
-2.97028e-06
-2.5178e-06
-4.69809e-06
-2.68754e-06
-5.80791e-06
-2.49015e-07
3.52185e-06
3.70875e-06
1.88167e-06
3.61529e-06
3.56157e-06
-9.53174e-07
-7.44448e-06
-1.35565e-06
-3.56123e-06
-5.07813e-07
-3.42863e-06
-7.33306e-07
9.21713e-07
2.19088e-06
3.25416e-06
-1.75462e-06
-1.04488e-05
-4.80433e-06
-6.82905e-06
-7.66434e-06
-6.83041e-06
2.95651e-07
-3.96517e-06
3.44667e-06
-1.78028e-06
-8.11608e-07
-6.14646e-06
-2.57792e-06
-8.43456e-07
-3.74063e-06
3.24736e-06
-1.53219e-06
-1.02289e-06
-8.10554e-09
3.04557e-06
8.3395e-07
2.15907e-06
-1.14509e-06
1.40328e-06
1.69837e-06
1.7954e-06
3.34086e-07
1.78311e-06
1.8459e-06
3.35103e-08
-2.5969e-06
-5.1017e-08
-2.71919e-06
-2.62509e-06
-1.44552e-06
-2.13689e-06
-1.75592e-06
-1.29082e-06
-3.03358e-06
-1.23718e-06
2.17955e-08
2.32645e-06
2.48631e-07
1.00378e-06
2.08004e-06
8.83396e-07
-1.25418e-06
-4.32285e-07
-2.53138e-06
-2.22433e-06
-9.88263e-07
-9.01732e-07
-1.01047e-06
1.11753e-07
2.20553e-06
2.81227e-07
-4.68257e-07
-2.76219e-06
-4.09453e-06
-3.01069e-06
-3.58393e-06
-4.39478e-08
-1.96315e-06
-1.77048e-06
-7.96266e-07
9.08082e-07
-3.27795e-06
-1.80038e-06
-1.02491e-07
4.94746e-05
-9.99512e-05
6.70332e-06
8.17277e-05
8.02242e-05
3.5446e-06
-0.000161848
-9.95756e-05
-1.02432e-05
-4.61982e-05
-1.10711e-05
-1.8839e-06
-0.000132726
0.000226382
-5.28321e-07
-0.00023006
-0.000118825
-9.15962e-05
-4.09481e-06
-0.000134664
-0.000138684
-5.94203e-06
-0.00021732
-0.000362284
-7.6169e-06
-0.000197546
-0.000286296
3.46108e-06
-9.39907e-05
0.000154151
-2.54919e-06
-0.000165223
-0.00027567
0.00014151
-2.06877e-06
5.78947e-07
9.34133e-06
1.99192e-06
-0.000236975
1.50566e-05
1.1005e-05
-8.0892e-05
-3.25209e-06
2.99459e-06
-0.000314143
0.000159032
-5.65642e-06
-0.000160751
-2.6795e-05
-0.000100438
3.57368e-06
4.9702e-05
-0.000405195
4.60923e-06
-0.000117792
-0.000350587
-4.05806e-06
-9.28367e-05
-0.000100624
-4.78643e-06
-3.17265e-05
3.80676e-06
-6.39786e-05
-8.17924e-05
-4.866e-06
-5.58114e-06
2.06524e-05
1.26465e-05
1.51903e-06
-5.47881e-06
4.44929e-06
2.46411e-06
-1.34007e-05
5.27344e-06
-1.45788e-06
-6.41185e-07
-4.35838e-07
1.15231e-05
1.62606e-05
-1.47564e-05
-1.48846e-05
2.49572e-06
1.87532e-05
-4.26975e-06
-3.84672e-06
9.66344e-06
-6.32706e-06
-2.14571e-05
3.19345e-05
-1.73346e-05
-1.58032e-05
6.06717e-06
-6.21869e-06
3.76014e-06
-1.71008e-05
4.61468e-06
-1.02911e-05
-3.05408e-06
6.23514e-06
4.08985e-06
-1.46092e-05
2.11505e-05
-1.07035e-05
2.08889e-06
-1.73507e-05
-2.86347e-06
3.6301e-06
1.29737e-05
-8.02778e-06
9.28434e-06
2.31234e-06
-1.20034e-05
-2.02993e-06
5.18298e-06
6.54083e-06
1.16915e-05
-1.45949e-06
1.72225e-05
-4.80223e-06
-6.83022e-06
1.51506e-05
-6.5283e-06
-6.70697e-06
2.95108e-06
2.22337e-06
1.00599e-05
-6.23172e-06
-1.22801e-05
5.57132e-06
2.61405e-06
8.92141e-06
-2.59743e-06
2.32772e-06
-3.00191e-06
6.13282e-07
-1.60879e-06
-4.74503e-06
-7.69839e-06
9.36996e-07
-5.33703e-07
-5.33345e-06
-2.4627e-06
7.16148e-06
4.60784e-06
7.89212e-06
-5.54422e-08
8.69223e-06
1.85064e-06
4.03183e-07
3.91197e-06
9.00033e-06
6.6468e-06
1.43391e-05
1.49128e-05
6.36666e-06
2.7049e-06
2.28795e-06
-1.85489e-06
-7.62681e-06
-5.62526e-06
4.37187e-06
-1.19145e-06
3.20217e-06
-1.19062e-06
4.83162e-06
9.65578e-06
4.73813e-06
-7.23372e-07
-8.25087e-06
-2.92491e-07
-8.94684e-07
6.03446e-06
2.30664e-06
-2.97618e-06
1.28016e-06
1.78531e-06
1.32864e-06
-2.49409e-06
3.06319e-06
-3.83247e-06
6.09636e-07
7.67372e-06
6.75482e-06
3.42199e-06
6.51083e-06
4.05199e-06
1.78334e-06
1.03188e-06
9.8083e-07
4.16425e-06
3.06155e-06
7.21633e-06
3.31227e-06
9.11866e-07
2.98022e-06
-1.55471e-06
1.39334e-06
-1.02452e-06
-1.21966e-07
-5.8009e-07
-2.77567e-07
-3.94949e-06
8.55141e-07
-3.29172e-07
-2.94145e-06
-1.85497e-06
1.93225e-06
3.31279e-06
4.62235e-06
-2.16439e-07
2.71764e-06
1.30703e-06
-6.63072e-08
1.36578e-06
4.7187e-06
3.86213e-06
3.88769e-06
8.60251e-06
4.08145e-06
6.22471e-07
1.43195e-06
-1.79807e-06
-1.41801e-06
-2.97008e-06
2.64234e-06
-1.27379e-06
1.26582e-06
-1.12229e-06
2.36931e-06
2.98424e-06
2.12452e-06
-1.28242e-06
-1.8708e-06
-5.27724e-07
-1.15344e-06
1.74966e-06
1.38799e-06
-1.52673e-06
5.01049e-07
9.68974e-07
1.85003e-07
-1.11336e-06
1.33629e-06
-2.78488e-06
1.12246e-06
2.26778e-06
3.13615e-06
2.31999e-06
2.05027e-06
2.4659e-06
9.41407e-07
3.63781e-07
2.50271e-07
1.16086e-06
1.32634e-06
3.52556e-06
-2.43581e-08
-1.54873e-06
1.37968e-06
-8.26581e-07
4.8808e-07
4.90736e-07
1.14692e-06
-6.75876e-07
3.54848e-07
5.5809e-07
3.54158e-07
1.29452e-06
-5.84748e-08
-1.37723e-06
8.57542e-08
-6.54768e-07
-1.05836e-06
-6.62137e-07
-4.75183e-07
-7.60703e-07
-4.69712e-07
1.19433e-06
-1.07999e-07
8.73213e-07
-6.76937e-07
-8.96607e-08
-1.56495e-06
-4.01599e-07
8.5245e-09
-2.30217e-07
4.56585e-07
-6.67296e-07
-7.23853e-07
-1.85466e-06
-2.02103e-06
-5.47634e-08
-1.31093e-06
-6.36353e-07
-2.08049e-06
-7.20393e-07
1.61607e-06
3.20188e-07
-1.03711e-06
5.35855e-07
1.35272e-07
7.24766e-07
-1.52749e-06
9.70532e-07
-1.0551e-06
-6.74052e-07
1.04809e-06
2.51839e-06
9.38481e-08
1.18303e-06
1.37979e-07
2.51131e-06
1.5175e-06
3.37985e-06
1.27125e-06
7.81849e-07
-6.0755e-07
-8.10207e-07
1.27743e-06
-4.2752e-07
-4.77949e-07
1.12788e-06
1.43744e-06
-2.23364e-07
-6.29416e-08
-2.43457e-07
1.04272e-06
-7.25284e-07
6.32094e-07
3.49887e-07
-4.75286e-07
-7.73003e-07
3.23624e-07
1.41542e-06
9.7063e-07
7.66458e-07
3.73778e-07
2.38061e-07
5.78697e-07
1.28521e-06
0.000101504
-3.81278e-05
2.93544e-06
6.53914e-05
-1.62251e-05
0.000143894
-1.41716e-05
-5.92875e-05
1.1279e-05
-6.37848e-05
1.85983e-05
-0.000177278
9.58803e-06
0.000258643
-1.14353e-05
0.000185459
6.29843e-06
-0.000132274
2.86646e-06
-5.94242e-05
-2.28748e-05
-0.000108837
-1.98782e-05
-0.000133697
6.688e-06
-9.21555e-05
1.61132e-05
7.72015e-05
-2.23082e-07
0.000202521
1.05992e-06
0.000169828
-9.12194e-06
7.41443e-05
6.43508e-06
-2.1452e-06
6.20583e-06
-1.03102e-05
4.71257e-06
-0.000138425
8.10543e-06
0.000389967
1.27863e-05
0.00014755
-3.79803e-06
-0.000127164
-4.91302e-06
-0.000235324
-1.29436e-05
-0.000233966
1.30136e-06
-6.05017e-05
-8.66814e-06
4.64651e-05
-7.75323e-07
2.36075e-05
1.59494e-05
-1.60998e-05
-4.4874e-06
-2.97178e-06
1.41449e-05
1.25679e-06
-1.2195e-05
-2.96471e-06
2.09693e-05
-7.77574e-06
2.29477e-05
-7.03083e-06
-6.69479e-06
5.9377e-06
-2.42644e-05
1.21472e-05
-1.47737e-05
-1.32832e-06
1.25273e-05
-9.053e-06
-2.13511e-05
5.30942e-07
-4.7419e-05
1.13845e-05
-1.08332e-05
6.10741e-06
2.63494e-05
-9.11853e-06
1.4505e-05
-9.65003e-08
-1.8299e-05
-6.58462e-06
9.27453e-07
-8.0449e-06
-3.23738e-06
-3.1208e-06
-1.70137e-06
-6.26405e-07
-5.85167e-06
-6.32161e-06
1.82699e-06
2.10199e-05
-1.48395e-05
7.93084e-06
7.14144e-06
-4.41762e-06
1.88858e-05
7.29175e-07
-2.32807e-05
2.03032e-06
-8.12039e-06
-9.38162e-06
1.70889e-06
-9.22563e-06
-1.46518e-05
-1.9893e-06
-2.61847e-06
2.9114e-06
-1.72179e-06
2.18019e-06
6.7581e-06
-4.109e-06
-5.29049e-06
-5.71864e-08
9.21206e-06
7.81509e-06
9.73643e-06
9.26711e-06
-3.54184e-06
-3.76865e-06
-1.12208e-05
-3.39693e-06
-7.25148e-06
6.18764e-06
4.78326e-06
3.00203e-06
-9.17061e-06
-8.69737e-06
-2.08087e-05
-1.23261e-05
-4.91528e-06
-2.75852e-06
1.11593e-05
5.67087e-06
6.07549e-06
4.62205e-07
-8.71344e-06
-6.57925e-07
8.60211e-07
1.62513e-06
-7.80972e-07
1.00379e-07
-4.68411e-07
-2.75189e-07
-3.16793e-06
2.42205e-06
9.16619e-07
-5.31555e-06
-7.10049e-06
-6.27216e-07
3.78218e-06
5.26216e-06
9.15912e-06
-1.84075e-06
-9.4137e-06
-1.65588e-06
-4.24696e-06
8.52212e-07
1.96609e-07
-7.29534e-07
-5.85385e-06
1.90195e-07
-7.02731e-07
7.74051e-07
-4.77345e-07
1.66914e-06
2.8153e-06
-1.81446e-06
-1.92847e-06
5.83325e-07
2.8636e-06
4.96113e-06
2.41107e-06
5.25723e-06
-5.49789e-07
-2.48832e-06
-3.47993e-06
-2.45726e-06
-2.64581e-06
2.98931e-06
6.4334e-07
1.80336e-06
-3.26688e-06
-4.79938e-06
-5.60493e-06
-6.4949e-06
-1.78405e-06
-1.41046e-06
3.11424e-06
2.76075e-06
1.90237e-06
-7.98317e-07
-2.51333e-06
-1.34142e-06
2.82795e-07
7.17321e-07
-7.15819e-07
6.76172e-08
-3.4641e-07
-3.03131e-07
-1.40922e-06
1.42109e-06
1.60504e-07
-3.78589e-06
-1.89047e-06
-6.04924e-07
7.93294e-07
3.78609e-06
1.98116e-06
3.48709e-07
-2.84229e-06
-6.902e-07
-7.52054e-07
-2.07434e-07
-3.69925e-08
-1.17741e-06
-1.35694e-06
-2.05884e-07
-4.65637e-07
5.71276e-07
1.30131e-06
-4.99897e-07
8.34931e-07
2.2009e-06
2.70007e-06
-7.90316e-07
-9.21968e-07
9.03301e-07
1.49779e-07
-2.07369e-06
-3.07567e-06
-7.66842e-07
1.13958e-06
-9.48545e-08
-2.89793e-07
4.32141e-07
2.44677e-08
-3.38904e-07
4.54889e-07
-1.43792e-06
-2.94168e-07
9.12946e-07
-5.1033e-07
-4.95344e-07
-2.95836e-07
-3.70904e-07
4.20703e-05
0.0003711
6.98575e-06
-0.00014035
8.85644e-07
9.82583e-05
-9.98883e-06
1.1935e-06
6.1483e-06
1.30132e-05
-3.69297e-06
8.10055e-06
)
;

boundaryField
{
    top_fluid_surface
    {
        type            calculated;
        value           nonuniform List<scalar> 
64
(
-2.51746e-05
0.000278
0.000155174
2.42564e-05
-0.000122179
-0.000262635
-0.00012185
0.000227681
0.000112631
5.90267e-05
0.000282208
-0.000347005
-4.2501e-05
-4.02324e-05
0.000133521
-0.000140846
0.000108547
0.000636458
0.000138103
0.000516648
-9.17234e-05
3.41492e-06
5.78965e-05
0.000245268
-2.88826e-05
0.000227135
3.14841e-05
0.000326733
0.000351308
-1.0365e-05
-0.000346407
-5.6642e-05
-0.000102975
0.000138138
-0.000226934
0.000140414
-0.000143348
-0.00012682
-0.000423844
-5.83538e-05
0.000179948
-0.000266444
-0.000129093
-7.63056e-05
-0.000224617
-0.000170154
-0.000401518
4.06948e-05
-0.000150076
-1.22779e-05
-0.000310861
-4.21092e-05
-0.000540937
0.000219072
0.000327865
3.95256e-06
-6.69783e-05
-0.000186362
-0.000164661
-2.58017e-05
-0.000344308
0.000388392
0.000275366
0.000302977
)
;
    }
    bottom_fluid_surface
    {
        type            calculated;
        value           uniform 0;
    }
    lateral_surface_1
    {
        type            calculated;
        value           uniform 0;
    }
    lateral_surface_2
    {
        type            calculated;
        value           uniform 0;
    }
    lateral_surface_3
    {
        type            calculated;
        value           uniform 0;
    }
    lateral_surface_4
    {
        type            calculated;
        value           uniform 0;
    }
}


// ************************************************************************* //
