/*--------------------------------*- C++ -*----------------------------------*\
| =========                 |                                                 |
| \\      /  F ield         | OpenFOAM: The Open Source CFD Toolbox           |
|  \\    /   O peration     | Version:  v1612+                                |
|   \\  /    A nd           | Web:      www.OpenFOAM.com                      |
|    \\/     M anipulation  |                                                 |
\*---------------------------------------------------------------------------*/
FoamFile
{
    version     2.0;
    format      ascii;
    class       surfaceScalarField;
    location    "2.9";
    object      phi;
}
// * * * * * * * * * * * * * * * * * * * * * * * * * * * * * * * * * * * * * //

dimensions      [0 3 -1 0 0 0 0];

internalField   nonuniform List<scalar> 
2916
(
-5.4296e-06
0.478735
-0.47873
2.33769e-07
0.478734
-0.478739
-2.09457e-06
0.478734
-0.478732
-6.12138e-06
0.478739
-0.478735
-9.04273e-07
0.478739
-0.478744
0.478729
-0.47873
-2.47314e-06
0.942075
-0.463338
-7.66419e-07
0.942081
-0.463348
-5.49692e-06
0.942081
-0.463342
-5.40101e-06
0.942084
-0.463346
3.27579e-06
0.942086
-0.463355
0.942073
-0.463341
-3.88882e-06
1.25697
-0.314892
-6.99739e-07
1.25698
-0.314905
-3.61343e-06
1.25698
-0.314899
-3.40605e-06
1.25698
-0.3149
5.07247e-06
1.25699
-0.314908
1.25697
-0.314895
-5.84011e-06
1.48644
-0.229459
-1.15743e-06
1.48645
-0.229474
-2.71325e-06
1.48645
-0.229468
-3.0722e-06
1.48645
-0.229468
4.58074e-06
1.48645
-0.229475
1.48644
-0.229462
-7.59386e-06
1.6847
-0.198252
-3.02529e-06
1.68471
-0.198267
-4.05541e-06
1.68471
-0.198261
-4.16083e-06
1.68471
-0.198261
3.64885e-06
1.68471
-0.198267
1.6847
-0.198254
-8.77237e-06
1.86241
-0.177707
-5.01848e-06
1.86243
-0.177722
-5.80182e-06
1.86243
-0.177717
-5.00629e-06
1.86243
-0.177717
3.56194e-06
1.86243
-0.177724
1.86241
-0.177708
-1.05794e-05
1.99164
-0.12922
-6.62325e-06
1.99166
-0.129232
-7.40787e-06
1.99166
-0.129227
-6.1415e-06
1.99166
-0.129228
3.35842e-06
1.99165
-0.129235
1.99163
-0.12922
-9.09399e-06
2.03075
-0.0390999
-6.29784e-06
2.03077
-0.0391124
-6.55215e-06
2.03077
-0.0391086
-5.02738e-06
2.03077
-0.03911
5.00596e-07
2.03076
-0.0391168
2.03073
-0.0391029
-6.87848e-06
1.77742
0.253335
-4.66861e-06
1.77746
0.25331
-6.20235e-06
1.77745
0.253317
-5.94948e-06
1.77745
0.253315
-3.52756e-06
1.77746
0.253303
1.77741
0.253323
-6.05134e-06
1.06686
0.710569
-1.64107e-07
1.06691
0.710545
-2.24825e-06
1.06691
0.710551
-4.40803e-06
1.0669
0.71055
-3.93104e-06
1.06692
0.71054
1.06685
0.710555
5.62704e-06
0.261799
0.805055
3.53818e-06
0.261842
0.805068
3.65378e-06
0.261843
0.805062
1.9615e-06
0.261842
0.805062
-6.64034e-06
0.261864
0.805064
0.261793
0.80505
-2.9323e-05
0.261828
-2.17591e-05
0.261834
-1.21358e-05
0.261833
-1.00941e-06
0.261831
2.58911e-05
0.261837
0.261819
4.89705e-06
0.554967
-1.0337
-3.14847e-06
0.554963
-1.03369
-1.05875e-05
0.554972
-1.0337
5.60242e-06
0.554965
-1.03372
1.8468e-05
0.554959
-1.03372
0.554988
-1.0337
2.08856e-05
1.12999
-1.03838
-8.15484e-06
1.13001
-1.03836
-6.04513e-06
1.13
-1.03837
9.32302e-06
1.13
-1.03839
-9.10256e-06
1.13001
-1.03838
1.13
-1.03836
2.53607e-05
1.58004
-0.764963
-3.46072e-06
1.58007
-0.764944
1.67304e-06
1.58005
-0.764956
8.02794e-06
1.58005
-0.764962
-2.62193e-05
1.58008
-0.764946
1.58003
-0.764956
2.71849e-05
1.9043
-0.553751
1.10609e-06
1.90436
-0.553732
7.33307e-06
1.90432
-0.553748
9.76681e-06
1.90433
-0.553744
-2.69196e-05
1.90436
-0.553723
1.9043
-0.553753
2.46852e-05
2.214
-0.507978
2.65298e-06
2.21408
-0.507964
1.24045e-05
2.21404
-0.507984
1.60708e-05
2.21404
-0.507977
-1.81246e-05
2.21408
-0.50795
2.21401
-0.507984
1.75434e-05
2.50705
-0.470773
4.09402e-06
2.50714
-0.470775
1.75201e-05
2.5071
-0.470794
2.2852e-05
2.5071
-0.470787
-2.82336e-06
2.50714
-0.470763
2.50707
-0.470775
2.08176e-05
2.75337
-0.375562
1.15002e-05
2.75349
-0.375572
2.42788e-05
2.75344
-0.375584
2.77848e-05
2.75345
-0.375579
6.71559e-06
2.75349
-0.375562
2.75342
-0.375559
2.67666e-05
2.97828
-0.264033
2.33031e-05
2.97843
-0.264046
3.3708e-05
2.97838
-0.264052
3.24228e-05
2.97839
-0.264042
1.07312e-05
2.97842
-0.264025
2.97835
-0.264023
3.15346e-05
2.83862
0.392959
2.7007e-05
2.83879
0.392956
3.09726e-05
2.83874
0.392953
2.62266e-05
2.83874
0.392962
4.46019e-06
2.83877
0.392973
2.83871
0.392974
2.70354e-05
1.98982
1.55934
2.39459e-05
1.99001
1.55933
1.721e-05
1.98996
1.55934
7.57718e-06
1.98996
1.55935
-1.24445e-05
1.98999
1.55934
1.98989
1.55936
4.13173e-05
0.939339
1.8555
1.53089e-05
0.939516
1.85558
9.01429e-06
0.939472
1.85555
2.24897e-06
0.93947
1.85556
-2.89222e-05
0.939507
1.85558
0.939385
1.85553
-7.72312e-05
1.20124
-2.56937e-05
1.2013
-4.79397e-06
1.20128
1.10791e-05
1.20128
5.95853e-05
1.2013
1.20126
-7.38654e-05
0.891697
-1.92532
-4.68097e-05
0.891683
-1.9254
-3.83516e-06
0.891692
-1.92543
7.29282e-05
0.891657
-1.92545
0.000135849
0.891642
-1.92542
0.891761
-1.92532
-0.000101928
1.95875
-2.10534
-5.82476e-05
1.95869
-2.10541
-2.61128e-06
1.95868
-2.10541
4.45189e-05
1.95865
-2.10543
8.33078e-05
1.95864
-2.10542
1.95877
-2.10528
-9.01437e-05
3.16189
-1.96801
-3.615e-05
3.1618
-1.96811
1.40386e-05
3.16179
-1.96811
4.83334e-05
3.16177
-1.96812
9.05772e-05
3.16177
-1.96811
3.16189
-1.96799
-9.29597e-05
4.77346
-2.16522
-1.59195e-05
4.77334
-2.16535
3.37329e-05
4.77335
-2.16536
7.13086e-05
4.77335
-2.16536
0.000137125
4.77334
-2.16536
4.77348
-2.16521
-0.000103311
6.65634
-2.39076
-8.79384e-06
6.6562
-2.39092
5.26065e-05
6.65624
-2.39093
9.89651e-05
6.65624
-2.39092
0.000174951
6.65622
-2.39091
6.65641
-2.39074
-9.91371e-05
8.74234
-2.55667
-1.30461e-05
8.74218
-2.55684
5.56799e-05
8.74223
-2.55686
0.000104276
8.74224
-2.55684
0.000174274
8.7422
-2.55682
8.74243
-2.55662
-2.42915e-05
10.3745
-2.0077
4.90389e-06
10.3744
-2.0078
6.14192e-05
10.3744
-2.00783
9.36431e-05
10.3745
-2.00782
9.71414e-05
10.3744
-2.00779
10.3746
-2.00766
9.49163e-05
9.37054
0.739831
4.2016e-05
9.37057
0.739811
3.52971e-05
9.37056
0.739826
1.01567e-05
9.37054
0.739902
-2.62867e-05
9.37049
0.739952
9.37062
0.739956
0.000169303
5.47493
4.2884
9.58837e-05
5.47519
4.28841
4.98869e-05
5.47512
4.28843
1.96853e-05
5.47509
4.28844
-6.92009e-05
5.47508
4.28847
5.4751
4.28843
0.000131342
2.08389
4.95024
2.68899e-05
2.08423
4.95039
-7.16298e-06
2.08413
4.95036
1.14842e-06
2.0841
4.95033
-5.38284e-05
2.08417
4.95031
2.08401
4.95039
0.000141995
0.715639
3.22361
5.18984e-05
0.715831
3.22407
2.55179e-05
0.715769
3.22394
1.01305e-06
0.715765
3.22392
-9.99237e-05
0.715797
3.22405
0.715688
3.22376
-8.23686e-05
1.91697
-1.25224e-05
1.91706
-3.92001e-06
1.91704
1.9277e-05
1.91703
9.72991e-05
1.91701
1.91705
-7.61642e-05
-0.240007
-1.68524
-2.16322e-05
-0.240047
-1.68541
1.25018e-05
-0.240054
-1.68541
2.83101e-05
-0.24006
-1.6854
6.09704e-05
-0.240051
-1.6854
-0.240013
-1.68525
-5.36933e-05
-0.5908
-1.75449
-8.95965e-06
-0.590862
-1.75465
1.77649e-05
-0.590878
-1.75462
1.39484e-05
-0.590877
-1.75461
2.72012e-05
-0.590854
-1.75463
-0.590828
-1.75444
9.21157e-06
-0.987062
-1.57176
4.3653e-05
-0.987064
-1.57194
3.395e-05
-0.987064
-1.57192
1.40312e-05
-0.987056
-1.57192
2.87095e-05
-0.987029
-1.57195
-0.987057
-1.57174
-1.82835e-05
-1.13445
-2.01782
2.10975e-05
-1.1344
-2.01806
9.19468e-06
-1.13437
-2.01804
7.50618e-06
-1.13436
-2.01805
6.47476e-05
-1.13434
-2.0181
-1.13438
-2.01781
-9.42838e-05
-1.30096
-2.22415
-5.39141e-05
-1.30094
-2.22441
-6.22676e-05
-1.3009
-2.2244
-4.19307e-05
-1.3009
-2.2244
7.62184e-05
-1.30091
-2.22446
-1.30088
-2.22416
-0.000124669
-1.23868
-2.61882
-7.30138e-05
-1.23876
-2.61907
-7.37683e-05
-1.23868
-2.61908
-6.74854e-05
-1.23866
-2.61909
2.6739e-05
-1.23869
-2.61913
-1.2386
-2.61887
-0.000129733
-0.409461
-2.83678
-4.22861e-05
-0.409686
-2.83696
9.37206e-06
-0.409554
-2.83701
1.73961e-05
-0.409436
-2.83706
5.22643e-05
-0.409419
-2.83709
-0.409321
-2.83689
5.16761e-07
2.15713
-1.82677
2.11675e-05
2.15698
-1.82688
2.59127e-05
2.15712
-1.82686
-4.77322e-06
2.15728
-1.82678
-7.40243e-05
2.1574
-1.8268
2.15718
-1.82662
7.3341e-06
3.81937
2.62615
-5.64537e-05
3.81941
2.62604
-5.47391e-05
3.81939
2.62617
-8.07286e-05
3.8194
2.62634
-0.000443462
3.81956
2.62668
3.81925
2.62592
0.000102203
2.47364
6.29588
0.000102959
2.47387
6.29594
9.15022e-05
2.47381
6.29595
3.73908e-05
2.47378
6.29601
-9.82339e-05
2.47403
6.29598
2.47353
6.296
9.66241e-05
0.542118
5.15503
8.60719e-05
0.54228
5.15567
3.95131e-05
0.542267
5.15553
8.85605e-06
0.542223
5.15551
-2.45598e-05
0.542345
5.15577
0.542089
5.15517
-8.06762e-06
2.45909
8.41056e-06
2.45932
6.48162e-05
2.45925
2.85236e-05
2.45928
-0.000134585
2.45952
2.459
-1.7108e-06
0.00238616
-0.00238445
-2.41034e-06
0.00238587
-0.00238446
-2.71699e-06
0.00238533
-0.00238444
-2.4803e-06
0.00238472
-0.00238442
-1.59893e-06
0.00238403
-0.00238441
0.00238315
-0.00238426
-1.60775e-06
0.00482917
-0.00244091
-3.21815e-06
0.00482783
-0.00243943
-4.30198e-06
0.00482621
-0.00243902
-4.34319e-06
0.00482449
-0.00243901
-3.007e-06
0.00482266
-0.00243926
0.00482028
-0.00243969
-2.1472e-06
0.00736797
-0.00253626
-5.92615e-06
0.00736364
-0.00253133
-8.6537e-06
0.00735948
-0.00252995
-9.17821e-06
0.00735546
-0.00252988
-6.65335e-06
0.00735135
-0.00253066
0.00734614
-0.00253214
-5.64397e-06
0.0100603
-0.00268639
-1.34888e-05
0.0100495
-0.0026775
-1.87175e-05
0.0100406
-0.00267541
-1.95148e-05
0.0100327
-0.00267593
-1.42264e-05
0.0100249
-0.00267837
0.010015
-0.00268276
-1.63113e-05
0.0129525
-0.00287561
-3.01543e-05
0.0129302
-0.00286641
-3.75762e-05
0.0129145
-0.00286608
-3.70975e-05
0.012902
-0.00286938
-2.63844e-05
0.0128904
-0.00287573
0.0128747
-0.00288571
-3.88421e-05
0.0159643
-0.00297274
-5.75934e-05
0.0159275
-0.00297824
-6.27034e-05
0.0159061
-0.00298623
-5.67484e-05
0.015892
-0.00299575
-3.82053e-05
0.0158797
-0.00300763
0.0158599
-0.00302323
-6.58846e-05
0.0190324
-0.00300219
-8.05956e-05
0.0189828
-0.00304076
-7.41834e-05
0.0189637
-0.00306414
-5.76324e-05
0.0189578
-0.00308238
-3.42829e-05
0.018955
-0.0030987
0.0189405
-0.00311506
-7.27885e-05
0.021849
-0.00274381
-6.16847e-05
0.0217967
-0.00282548
-2.96803e-05
0.0217935
-0.00286221
-8.9066e-07
0.0218103
-0.00288158
1.2013e-05
0.0218319
-0.0028901
0.0218411
-0.002889
-1.8671e-05
0.0237819
-0.00191456
4.30284e-05
0.023746
-0.00201148
0.000109834
0.0237642
-0.00203791
0.000144967
0.0238087
-0.0020339
0.000120936
0.0238641
-0.00200849
0.0239227
-0.00196093
8.57769e-05
0.0232624
0.000433555
0.000208525
0.0232593
0.000363742
0.000300794
0.0232887
0.000383019
0.000331413
0.0233375
0.000440269
0.000263068
0.0234026
0.000529607
0.023489
0.000696629
0.00019082
0.014263
0.00880844
0.000291157
0.0142643
0.00889484
0.000333247
0.0142763
0.00897052
0.000323447
0.0142964
0.00905093
0.000234066
0.0143365
0.00915549
0.0144181
0.00930493
7.75577e-05
0.0141855
6.20689e-05
0.0142799
2.92786e-05
0.0143092
3.10094e-06
0.0143228
-7.74963e-06
0.0143475
0.0144106
-1.94349e-06
0.00250778
-0.00488977
-2.61033e-06
0.00250678
-0.00488976
-2.71681e-06
0.00250587
-0.00488953
-2.26721e-06
0.00250507
-0.00488931
-1.30085e-06
0.00250436
-0.00488914
0.00250354
-0.00488876
-3.21128e-06
0.00512405
-0.00505325
-4.53232e-06
0.00512104
-0.00505155
-4.80319e-06
0.00511861
-0.00505078
-4.1243e-06
0.00511649
-0.00505045
-2.49817e-06
0.00511464
-0.00505054
0.00511248
-0.00505086
-6.67817e-06
0.0079358
-0.00534078
-9.50607e-06
0.00792842
-0.00533525
-1.00507e-05
0.00792302
-0.00533324
-8.79797e-06
0.00791859
-0.00533268
-5.60772e-06
0.0079147
-0.00533337
0.00791017
-0.00533517
-1.3684e-05
0.0110606
-0.00579705
-1.89332e-05
0.0110444
-0.00578764
-1.95936e-05
0.0110337
-0.00578489
-1.70147e-05
0.0110256
-0.00578495
-1.09758e-05
0.0110185
-0.00578771
0.0110102
-0.00579344
-2.62926e-05
0.0147342
-0.00652254
-3.39498e-05
0.0147016
-0.00651546
-3.31179e-05
0.0146826
-0.00651536
-2.75176e-05
0.0146698
-0.0065187
-1.73344e-05
0.0146593
-0.00652613
0.0146463
-0.00653883
-4.40237e-05
0.0195712
-0.0077655
-5.06968e-05
0.0195113
-0.00778113
-4.4019e-05
0.0194834
-0.00779343
-3.25895e-05
0.0194689
-0.00780611
-1.87947e-05
0.01946
-0.00782192
0.0194475
-0.00784325
-5.96762e-05
0.0256183
-0.00898962
-5.19767e-05
0.025527
-0.00906442
-2.80827e-05
0.0254987
-0.00910366
-6.71691e-06
0.0254961
-0.00913109
3.7145e-06
0.0255043
-0.00915362
0.0255091
-0.00917336
-3.47236e-05
0.0316416
-0.00873271
1.48974e-05
0.0315346
-0.00888335
7.299e-05
0.0315214
-0.00894354
0.000104422
0.0315507
-0.00896826
8.78171e-05
0.0315992
-0.00896889
0.031651
-0.00894341
5.86935e-05
0.0347978
-0.00512989
0.000173461
0.0347116
-0.00530375
0.000262143
0.0347276
-0.00533327
0.000290022
0.0347906
-0.00530209
0.000219774
0.0348815
-0.00522101
0.0349907
-0.00508096
0.000185459
0.0316005
0.00344511
0.000282717
0.0315605
0.00341743
0.000313315
0.0316141
0.0034658
0.000282165
0.0317144
0.00354747
0.000173559
0.0318571
0.00366253
0.0320471
0.00381381
0.000150224
0.020989
0.0192696
0.000155108
0.0210238
0.0194268
0.000105702
0.021103
0.0195312
4.82945e-05
0.021204
0.0196191
1.32064e-06
0.0213379
0.019722
0.0215066
0.0198472
-0.00011191
0.0352867
-0.000243089
0.0354351
-0.00034057
0.0355098
-0.000359539
0.0355459
-0.000281306
0.0356071
0.0356362
-1.31241e-06
0.00252404
-0.00741213
-1.78539e-06
0.00252337
-0.00741233
-1.7624e-06
0.00252281
-0.0074121
-1.3276e-06
0.00252237
-0.00741189
-6.36605e-07
0.00252211
-0.00741173
0.00252187
-0.00741123
-2.49963e-06
0.00521177
-0.0077381
-3.23727e-06
0.00520978
-0.00773695
-3.04605e-06
0.00520835
-0.00773627
-2.22517e-06
0.0052073
-0.00773598
-1.0586e-06
0.00520671
-0.0077361
0.00520625
-0.00773628
-5.38061e-06
0.00820087
-0.00832423
-6.52523e-06
0.00819605
-0.00832011
-5.82651e-06
0.00819315
-0.0083185
-4.11461e-06
0.00819129
-0.00831814
-1.94401e-06
0.00819041
-0.008319
0.00818998
-0.00832073
-1.01812e-05
0.0115962
-0.00918196
-1.13275e-05
0.0115856
-0.00917571
-9.26635e-06
0.0115805
-0.009174
-5.8768e-06
0.011578
-0.00917469
-2.38929e-06
0.0115775
-0.0091779
0.011578
-0.00918365
-1.5875e-05
0.0152693
-0.0101795
-1.47185e-05
0.0152481
-0.0101788
-9.07584e-06
0.0152413
-0.0101815
-3.06104e-06
0.0152402
-0.0101866
7.76454e-07
0.0152432
-0.0101953
0.0152481
-0.0102081
-1.38945e-05
0.0184895
-0.0109716
-3.78251e-06
0.0184531
-0.0109962
9.87015e-06
0.0184474
-0.0110132
1.86665e-05
0.0184543
-0.0110289
1.74187e-05
0.0184686
-0.0110462
0.0184874
-0.0110653
1.78248e-05
0.020966
-0.011484
5.09291e-05
0.0209134
-0.0115582
7.6062e-05
0.0209155
-0.0115973
8.24875e-05
0.0209408
-0.0116245
6.13057e-05
0.0209798
-0.0116441
0.0210296
-0.0116547
9.88754e-05
0.0228606
-0.0107266
0.000166655
0.0228074
-0.0108457
0.000198988
0.0228311
-0.0108921
0.000189776
0.0228902
-0.010909
0.000128826
0.0229721
-0.0109008
0.0230765
-0.0108617
0.000208368
0.024348
-0.00682616
0.00028703
0.024343
-0.00691841
0.000293916
0.0244133
-0.00692258
0.000244769
0.0245241
-0.00688704
0.000143874
0.0246648
-0.00681287
0.024833
-0.00669339
0.000230036
0.029024
-0.00146109
0.000298558
0.0291226
-0.00143054
0.000281473
0.0292441
-0.00134771
0.000211671
0.029381
-0.00123933
0.000113093
0.0295272
-0.00110093
0.0296809
-0.000920561
2.10419e-05
0.00542955
0.0428433
-6.05925e-05
0.00553929
0.0430921
-0.00015615
0.00563736
0.0432338
-0.000210025
0.00572953
0.0433246
-0.000186211
0.00580682
0.0434189
0.00587063
0.0434716
-0.000196545
0.0409132
-0.000354071
0.0411328
-0.000427501
0.0412216
-0.000413003
0.0412617
-0.000183042
0.0411849
0.0413241
-7.82827e-07
0.00240118
-0.00981238
-9.71189e-07
0.00240051
-0.00981281
-7.95893e-07
0.00240019
-0.00981261
-4.44224e-07
0.00240007
-0.00981246
-1.00305e-07
0.00240015
-0.00981238
0.00240022
-0.00981174
-1.76014e-06
0.00503856
-0.0103737
-1.73392e-06
0.00503674
-0.0103735
-1.06707e-06
0.00503605
-0.010373
-2.77138e-07
0.00503595
-0.0103728
2.13681e-07
0.00503632
-0.010373
0.0050367
-0.0103727
-3.52316e-06
0.00819006
-0.0114722
-2.74245e-06
0.00818627
-0.0114705
-9.04338e-07
0.00818534
-0.0114697
7.74115e-07
0.00818573
-0.0114696
1.38182e-06
0.00818704
-0.0114704
0.0081884
-0.0114711
-4.24874e-06
0.0122575
-0.0132451
-1.42015e-06
0.0122506
-0.0132428
2.62078e-06
0.0122499
-0.0132425
5.3948e-06
0.012252
-0.0132436
5.20447e-06
0.0122557
-0.0132463
0.0122596
-0.0132496
5.48724e-07
0.0180535
-0.0159759
8.41461e-06
0.0180425
-0.0159785
1.56992e-05
0.0180434
-0.0159822
1.88563e-05
0.0180498
-0.0159875
1.4935e-05
0.0180591
-0.0159947
0.018069
-0.0160028
1.79231e-05
0.0269144
-0.0198504
3.64749e-05
0.0268997
-0.0198722
4.81038e-05
0.0269057
-0.0198873
4.921e-05
0.0269212
-0.0199018
3.53578e-05
0.0269427
-0.0199163
0.0269678
-0.0199291
5.45669e-05
0.0395702
-0.0241945
8.87196e-05
0.0395621
-0.0242552
0.000103622
0.039582
-0.0242889
9.8221e-05
0.0396161
-0.0243144
6.67925e-05
0.0396614
-0.024332
0.039717
-0.0243373
0.000106849
0.0557003
-0.0269641
0.000151702
0.055729
-0.0270579
0.000159274
0.0557782
-0.0270962
0.000140136
0.0558395
-0.0271135
8.90551e-05
0.0559178
-0.027106
0.0560131
-0.0270685
0.00012673
0.071749
-0.0230018
0.000141915
0.0718599
-0.0230645
0.000109604
0.0719452
-0.0230572
6.83478e-05
0.0720178
-0.0230238
2.05604e-05
0.0721031
-0.02295
0.0721837
-0.022843
3.09498e-05
0.0817671
-0.0115099
-4.38605e-05
0.0819501
-0.0114455
-0.000140529
0.0820356
-0.0113411
-0.000181871
0.0820705
-0.0112505
-0.000179611
0.0821099
-0.0111097
0.0820749
-0.0109911
-0.000290427
0.0678337
0.0570675
-0.000442629
0.0679798
0.0572155
-0.0005178
0.0680227
0.057323
-0.000449229
0.0679871
0.0573403
-0.000341792
0.0679876
0.0574346
0.0678471
0.0573581
-0.000308347
0.109055
-0.000357976
0.109162
-0.000334353
0.109221
-0.000220958
0.109136
-0.000286535
0.109238
0.108884
1.47688e-05
-1.77211
0.0868529
1.90051e-05
-1.77227
0.0868525
1.83105e-06
-1.77225
0.0868523
-1.57814e-05
-1.77224
0.086851
-1.34983e-05
-1.77226
0.0868523
-1.77211
0.0868425
2.7801e-05
-1.80969
0.0375563
9.05055e-06
-1.80981
0.0375583
-5.29977e-06
-1.80979
0.0375573
-1.70958e-05
-1.80979
0.0375586
-3.04506e-05
-1.8098
0.0375593
-1.80969
0.0375482
2.23324e-05
0.0260191
5.50676e-06
0.0260175
-3.0834e-06
0.0260178
-9.64343e-06
0.0260178
-2.44526e-05
0.0260175
0.0260182
1.51485e-05
-1.86048
0.192832
-1.82021e-06
-1.86063
0.192849
-1.47398e-05
-1.8606
0.192848
-1.88793e-05
-1.8606
0.192841
-2.26262e-05
-1.86062
0.192843
-1.86045
0.192824
2.04453e-05
-1.9026
0.0796536
2.19855e-06
-1.90272
0.0796634
-9.86019e-06
-1.9027
0.0796623
-1.8208e-05
-1.90269
0.0796634
-3.40719e-05
-1.90271
0.0796661
-1.90258
0.0796504
2.15025e-05
0.0370452
5.26822e-06
0.0370435
-4.03478e-06
0.0370444
-1.28602e-05
0.0370451
-2.93791e-05
0.0370457
0.0370472
3.03519e-05
-1.74516
0.366202
9.06567e-06
-1.74531
0.366244
-8.00578e-06
-1.74529
0.366234
-2.39799e-05
-1.74529
0.366227
-4.3352e-05
-1.74532
0.366229
-1.74513
0.366178
2.64036e-05
-1.83913
0.173593
1.19754e-05
-1.83924
0.173598
4.01573e-06
-1.83922
0.1736
-8.20318e-06
-1.83922
0.173603
-3.67369e-05
-1.83923
0.173608
-1.83912
0.173602
2.03175e-05
0.0649212
5.47015e-06
0.0649203
-3.00914e-06
0.0649216
-1.06806e-05
0.0649224
-2.56553e-05
0.0649233
0.0649248
2.99374e-05
-2.13196
0.480317
4.07221e-06
-2.13215
0.480366
-1.77705e-05
-2.13213
0.480347
-3.94422e-05
-2.13214
0.480337
-6.60117e-05
-2.13219
0.480338
-2.13197
0.480269
4.36549e-05
-2.07565
0.117239
3.04349e-05
-2.07578
0.117235
1.8076e-05
-2.07576
0.117241
-2.12255e-06
-2.07576
0.117246
-4.32701e-05
-2.07578
0.117248
-2.07567
0.11726
2.64074e-05
0.0365673
8.86384e-06
0.0365659
1.61341e-06
0.0365651
-5.76661e-06
0.0365644
-2.50793e-05
0.036564
0.0365646
3.24455e-05
-2.17768
0.433815
7.26427e-06
-2.17788
0.433864
-1.39711e-05
-2.17786
0.433839
-3.49592e-05
-2.17787
0.433829
-6.03946e-05
-2.17793
0.433832
-2.17771
0.43376
4.95384e-05
-2.07121
0.0107172
3.4722e-05
-2.07133
0.0107034
1.8394e-05
-2.07132
0.0107124
-3.60152e-06
-2.07132
0.0107195
-4.07498e-05
-2.07135
0.0107136
-2.07124
0.0107446
2.53823e-05
0.00213828
8.37704e-06
0.00213684
2.30586e-06
0.00213271
-5.05368e-06
0.00212954
-2.7325e-05
0.00212832
0.0021245
4.47804e-05
-2.31791
0.132862
2.85652e-05
-2.31809
0.132899
1.03462e-05
-2.31808
0.132862
-8.77749e-06
-2.31808
0.132841
-5.16226e-05
-2.31812
0.13286
-2.31794
0.132779
4.08953e-05
-2.18828
-0.118958
1.94548e-05
-2.18839
-0.118971
6.37409e-06
-2.18839
-0.118965
-4.02684e-06
-2.18839
-0.118959
-2.76343e-05
-2.18841
-0.118971
-2.18828
-0.118942
1.78524e-05
-0.0460588
1.11413e-06
-0.0460602
-5.19257e-06
-0.0460623
-8.96102e-06
-0.0460658
-2.42497e-05
-0.0460655
-0.0460707
-3.9034e-05
-2.2359
-0.467983
-8.13559e-06
-2.23603
-0.468061
-1.0298e-05
-2.23605
-0.468096
1.87391e-05
-2.23608
-0.468167
8.80967e-05
-2.23611
-0.468197
-2.23594
-0.468085
9.24332e-06
-2.10456
-0.250305
6.74301e-06
-2.10465
-0.250343
3.5905e-06
-2.10464
-0.250368
9.85195e-06
-2.10464
-0.250396
1.65164e-05
-2.10464
-0.250443
-2.10452
-0.250339
1.08329e-05
-0.00375417
-2.24124e-06
-0.00374408
-1.26261e-05
-0.00374588
-1.94251e-05
-0.00375476
-3.43433e-05
-0.00374624
-0.00377362
-5.16818e-05
-2.39692
0.102223
2.36795e-05
-2.39708
0.102062
1.64088e-05
-2.39709
0.102141
-2.48029e-05
-2.39708
0.102167
-0.000170363
-2.39718
0.102325
-2.39684
0.101969
-1.45098e-05
-1.9637
-0.683517
-3.40837e-05
-1.9638
-0.683605
-6.59698e-05
-1.96379
-0.683638
-3.8384e-05
-1.9638
-0.683703
-2.365e-05
-1.96386
-0.683775
-1.96362
-0.683591
1.45347e-05
0.0638331
-1.46768e-05
0.0638301
-3.40615e-05
0.0638191
-3.13086e-05
0.0637837
-8.10016e-05
0.0638339
0.0637796
4.32115e-05
-0.224413
2.95274
0.000150677
-0.224716
2.95271
0.000144644
-0.224493
2.95281
2.2072e-05
-0.22425
2.95287
-0.000380323
-0.223931
2.95333
-0.224765
2.95227
3.9035e-05
-1.85099
0.943025
-5.9861e-05
-1.85117
0.942946
-0.00011032
-1.85105
0.942971
-1.5753e-05
-1.85097
0.94293
0.000195219
-1.85098
0.943068
-1.85097
0.942815
-1.75415e-05
0.4525
-6.28702e-05
0.452387
-0.00012025
0.452496
-5.48604e-05
0.452399
5.15092e-05
0.452513
0.452395
0.000107876
5.4124
3.83611
0.000143462
5.41225
3.83636
0.000256367
5.41234
3.83631
0.000260122
5.41251
3.83637
-2.62677e-06
5.41263
3.83694
5.41235
3.83592
0.000231615
2.59231
3.76289
0.000158315
2.59221
3.76305
0.000137727
2.59242
3.76291
5.71578e-05
2.5926
3.76293
-0.000703809
2.59289
3.76356
2.59204
3.76242
0.000147774
2.79352
-8.39689e-05
2.79372
-0.000111374
2.79362
-0.000232444
2.79356
-0.0014637
2.79474
2.79223
0.000158848
6.35558
2.63541
0.000194598
6.35633
2.63567
0.000284036
6.35609
2.63566
0.000144219
6.35616
2.63586
5.2894e-05
6.3573
2.6355
6.35491
2.63624
0.000340152
6.04677
4.07135
0.000422631
6.04731
4.07199
0.000617084
6.04716
4.07164
0.000251826
6.04779
4.07166
-0.00140513
6.04996
4.07256
6.04484
4.07109
0.000187898
4.63449
0.000166161
4.63506
0.000389596
4.63467
-1.84618e-06
4.63502
-0.00168048
4.63733
4.63229
5.55076e-05
3.1206
1.97384
5.43378e-05
3.12094
1.97406
-0.000134179
3.12105
1.97405
8.705e-05
3.12082
1.9741
0.000882485
3.11957
1.97466
3.12257
1.97355
0.000321553
4.0137
3.17793
2.58674e-05
4.01497
3.17826
-0.000600296
4.01495
3.17837
5.19245e-05
4.01342
3.17841
0.00180183
4.01153
3.17885
4.0172
3.17826
5.44443e-05
5.25903
0.000317662
5.25976
0.000399747
5.25927
0.000342131
5.25967
-7.63407e-05
5.26281
5.25632
0.000158483
0.511592
-0.470311
-0.0414394
-5.70988e-06
0.512062
-0.470645
-0.0412544
0.000231695
0.511915
-0.470849
-0.0413039
-0.000120707
0.512241
-0.470707
-0.0411827
-0.00289226
0.514478
-0.471843
-0.0398646
0.508866
-0.469241
-0.0425187
0.0012824
-0.0438678
1.66208
-1.1079
0.000264185
-0.0420721
1.66368
-1.10853
0.00235273
-0.0445454
1.66296
-1.10859
-0.000607306
-0.0403004
1.66391
-1.10841
-0.0106425
-0.0331473
1.66825
-1.11059
-0.0554228
1.65852
-1.10488
-4.01775e-05
0.455245
-0.392404
-9.33499e-05
0.456007
-0.392915
-0.00137131
0.456919
-0.392667
-0.000393326
0.453631
-0.393171
0.00653422
0.445363
-0.396466
0.462843
-0.389986
-0.000343317
0.558311
-1.02828
-0.000263671
0.557551
-1.02828
-0.00116853
0.558579
-1.02852
-0.000141657
0.556849
-1.02859
0.00340774
0.5539
-1.02929
0.561436
-1.02727
0.00127086
1.42233
0.796786
0.000714884
1.42277
0.799018
0.0018206
1.42245
0.79798
-0.000193739
1.42545
0.797323
-0.00895207
1.43468
0.796231
1.41327
0.797743
0.000462917
-1.15682
0.00182963
-1.15763
0.00490654
-1.15622
0.00161486
-1.1602
-0.0162521
-1.1729
-1.14498
-0.000740383
-0.852962
-0.174577
-0.000126123
-0.854358
-0.174534
-0.000565991
-0.853526
-0.174559
0.000363459
-0.854787
-0.174729
0.00224188
-0.856306
-0.174867
-0.850561
-0.174467
0.000242103
1.47853
-1.53495
0.000114193
1.47922
-1.53443
0.000129604
1.47874
-1.5343
-0.000131923
1.47914
-1.53634
-0.00055372
1.4816
-1.54125
1.47638
-1.52975
0.000893107
-3.72028
0.000375771
-3.72227
0.0013472
-3.72114
0.000314004
-3.72261
-0.00568638
-3.73028
-3.71359
3.0325e-05
-0.100261
-0.0743464
0.000163413
-0.100447
-0.0742203
0.000162692
-0.1004
-0.0741593
0.000167942
-0.100003
-0.0747313
-4.2001e-05
-0.0990601
-0.0755968
-0.101217
-0.0732923
0.000262386
1.30738
-2.94285
0.000196148
1.30854
-2.94335
0.00064485
1.30796
-2.94311
0.000174586
1.30772
-2.9436
-0.00228524
1.30867
-2.94652
1.30686
-2.94012
0.000882163
-5.00064
5.5787e-05
-5.00218
0.00027322
-5.00147
0.000127224
-5.00208
-0.00183944
-5.00721
-4.99572
0.000136801
0.781106
-0.855589
9.29866e-05
0.781283
-0.855459
0.000146885
0.781235
-0.855449
0.000104437
0.78131
-0.855999
-0.000112929
0.782189
-0.857568
0.780589
-0.853994
8.41749e-05
0.878438
-3.04027
0.000215726
0.878478
-3.04068
0.000415126
0.878679
-3.04076
0.000119651
0.878161
-3.04015
-0.000643718
0.876866
-3.04043
0.880841
-3.04102
1.85089e-05
-5.20998
0.000118381
-5.21032
-7.49354e-05
-5.21015
0.000252851
-5.21088
0.00169929
-5.21466
-5.20652
1.35191e-05
1.11824
9.93114e-05
1.11851
0.000136491
1.11857
0.000153004
1.11808
6.83383e-05
1.11718
1.11963
3.81821e-05
1.25586
0.000154165
1.25597
0.000380592
1.25595
0.000335425
1.25638
-0.000853703
1.25678
1.25602
5.47435e-05
0.000206783
-0.000127745
0.000113104
0.0020318
-7.41756e-08
-0.0116005
0.00178813
-1.81148e-07
-0.0116013
0.00178814
-1.3918e-07
-0.0116013
0.00178818
-3.19518e-08
-0.0116012
0.00178826
2.37788e-08
-0.0116012
0.0017884
-0.0116004
0.00178841
5.63508e-08
-0.0127531
0.0011522
-3.72006e-08
-0.012754
0.00115226
-5.11528e-08
-0.012754
0.0011523
-4.42491e-08
-0.012754
0.00115234
-6.3463e-08
-0.012754
0.0011524
-0.0127531
0.00115236
-9.53679e-09
0.000315202
-3.72588e-08
0.000315223
-4.17757e-08
0.000315235
-5.25371e-08
0.00031525
-7.27105e-08
0.000315269
0.000315255
-3.75246e-07
-0.0123553
0.00376978
-2.25113e-07
-0.012356
0.00376999
1.49082e-07
-0.0123559
0.00377022
4.33931e-07
-0.0123559
0.00377058
4.25322e-07
-0.012356
0.00377101
-0.0123552
0.00377113
-2.91034e-09
-0.0136853
0.00248175
3.10919e-08
-0.0136862
0.00248196
1.22391e-07
-0.0136862
0.00248209
1.56999e-07
-0.0136862
0.00248227
7.60875e-08
-0.0136863
0.00248245
-0.0136854
0.00248242
-1.16158e-08
0.000553103
-2.32539e-09
0.000553164
1.75875e-08
0.000553205
1.10901e-08
0.000553259
-2.79393e-08
0.000553314
0.00055331
-5.0186e-07
-0.0138537
0.00615157
4.26835e-07
-0.0138543
0.00615249
1.52975e-06
-0.0138542
0.00615337
2.14518e-06
-0.0138544
0.00615444
1.79247e-06
-0.0138547
0.00615549
-0.0138542
0.0061559
1.78174e-07
-0.0156856
0.0043132
5.35974e-07
-0.0156867
0.0043137
8.34494e-07
-0.0156868
0.00431409
8.899e-07
-0.0156869
0.00431454
5.90699e-07
-0.0156871
0.00431495
-0.0156862
0.00431497
6.02002e-08
0.000534697
1.5979e-07
0.000534814
2.31662e-07
0.000534918
2.24317e-07
0.000535046
1.27787e-07
0.000535159
0.000535186
1.23599e-06
-0.0160981
0.00900332
3.95715e-06
-0.0160989
0.00900582
6.09236e-06
-0.0160993
0.00900795
6.75869e-06
-0.0161001
0.00901019
5.09243e-06
-0.0161013
0.00901208
-0.0161014
0.00901268
1.05e-06
-0.0191325
0.00734642
2.10528e-06
-0.019134
0.00734751
2.73573e-06
-0.0191344
0.00734836
2.69114e-06
-0.0191349
0.00734924
1.78819e-06
-0.0191356
0.00734999
-0.0191348
0.00735001
2.9869e-07
-0.00013385
5.79946e-07
-0.000133681
7.4478e-07
-0.000133507
7.03702e-07
-0.000133297
4.54189e-07
-0.000133151
-0.000133079
8.07784e-06
-0.019083
0.0121024
1.36772e-05
-0.0190858
0.0121074
1.6377e-05
-0.0190879
0.0121109
1.56944e-05
-0.0190907
0.012114
1.07065e-05
-0.0190938
0.012116
-0.0190956
0.0121159
3.5869e-06
-0.0245974
0.0128572
5.88765e-06
-0.0245999
0.0128592
6.86849e-06
-0.0246012
0.0128604
6.35487e-06
-0.0246027
0.0128615
4.04095e-06
-0.0246042
0.0128624
-0.0246036
0.0128619
8.60267e-07
-0.00214227
1.44477e-06
-0.00214215
1.73352e-06
-0.00214205
1.53223e-06
-0.00214182
9.69447e-07
-0.00214182
-0.00214165
2.28693e-05
-0.0230694
0.0152984
3.12885e-05
-0.0230789
0.0153054
3.20651e-05
-0.0230855
0.015308
2.70722e-05
-0.0230922
0.015309
1.64692e-05
-0.0230983
0.0153081
-0.0231015
0.0153044
9.07897e-06
-0.0330418
0.0228203
1.28149e-05
-0.0330464
0.0228227
1.32319e-05
-0.0330493
0.0228235
1.1262e-05
-0.0330523
0.0228232
6.25241e-06
-0.0330549
0.0228235
-0.0330543
0.0228209
1.70532e-06
-0.00642559
2.49842e-06
-0.00642571
2.83574e-06
-0.00642613
2.19474e-06
-0.00642593
1.33718e-06
-0.00642657
-0.00642618
4.28215e-05
-0.0282571
0.0193178
4.89667e-05
-0.0282777
0.0193214
4.13354e-05
-0.02829
0.0193163
2.75143e-05
-0.0283001
0.0193081
1.19525e-05
-0.028307
0.0192984
-0.0283072
0.0192865
1.50606e-05
-0.0455413
0.0400891
1.88184e-05
-0.045549
0.04009
1.59488e-05
-0.0455533
0.0400896
1.21717e-05
-0.045557
0.0400838
4.11759e-06
-0.0455596
0.0400842
-0.0455575
0.0400755
2.11931e-06
-0.013815
2.45011e-06
-0.0138159
2.52788e-06
-0.0138178
1.41768e-06
-0.0138177
8.65176e-07
-0.0138198
-0.0138192
4.31694e-05
-0.0344578
0.0267681
3.22157e-05
-0.0344853
0.0267597
7.57769e-06
-0.0344962
0.026741
-1.51675e-05
-0.0345018
0.0267193
-2.30337e-05
-0.0344989
0.0266995
-0.0344856
0.0266809
1.34297e-05
-0.0641604
0.0697783
1.29283e-05
-0.0641695
0.0697749
3.17309e-06
-0.0641725
0.0697759
-1.29984e-06
-0.064172
0.0697588
-1.08048e-05
-0.0641717
0.0697668
-0.0641637
0.0697426
1.67502e-07
-0.0236184
-1.76047e-06
-0.023621
-2.7795e-06
-0.0236257
-3.75407e-06
-0.0236262
-4.21039e-06
-0.0236284
-0.0236312
-3.61752e-06
-0.0406096
0.0443796
-4.6249e-05
-0.040625
0.0443633
-8.89862e-05
-0.0406174
0.0443444
-0.000108248
-0.040604
0.0443191
-9.25235e-05
-0.0405781
0.0443121
-0.0405428
0.0442879
-3.53946e-06
-0.0933748
0.122547
-1.42093e-05