/*--------------------------------*- C++ -*----------------------------------*\
| =========                 |                                                 |
| \\      /  F ield         | OpenFOAM: The Open Source CFD Toolbox           |
|  \\    /   O peration     | Version:  v1612+                                |
|   \\  /    A nd           | Web:      www.OpenFOAM.com                      |
|    \\/     M anipulation  |                                                 |
\*---------------------------------------------------------------------------*/
FoamFile
{
    version     2.0;
    format      ascii;
    class       volScalarField;
    location    "4.6";
    object      alpha.water;
}
// * * * * * * * * * * * * * * * * * * * * * * * * * * * * * * * * * * * * * //

dimensions      [0 0 0 0 0 0 0];

internalField   nonuniform List<scalar> 
1116
(
0.412899
0.4129
0.412902
0.4129
0.4129
0.412903
0.419315
0.419316
0.419318
0.419316
0.419316
0.419321
0.442903
0.442903
0.442904
0.442902
0.442904
0.442908
0.498447
0.498446
0.498447
0.498446
0.498448
0.498452
0.625195
0.625195
0.625197
0.625197
0.625199
0.625202
0.821306
0.821304
0.821306
0.821306
0.821306
0.82131
0.973899
0.973899
0.973899
0.973899
0.973899
0.973899
0.973908
0.973908
0.973908
0.973908
0.973908
0.973908
0.973904
0.973904
0.973904
0.973904
0.973904
0.973904
0.97389
0.973891
0.973891
0.97389
0.97389
0.97389
0.973875
0.973875
0.973875
0.973875
0.973875
0.973875
0.973866
0.973866
0.973866
0.973866
0.973866
0.973866
1.55696e-08
1.55694e-08
1.55695e-08
1.55696e-08
1.55695e-08
1.55699e-08
1.11834e-08
1.11832e-08
1.11833e-08
1.11832e-08
1.11832e-08
1.11836e-08
1.05732e-08
1.05732e-08
1.05732e-08
1.05732e-08
1.05732e-08
1.05732e-08
1.05732e-08
1.05732e-08
1.05732e-08
1.05732e-08
1.05732e-08
1.05732e-08
0.00563917
0.0056392
0.00563911
0.00563941
0.00563942
0.00563923
0.0725748
0.0725631
0.0725668
0.0725677
0.0725636
0.0725696
0.440304
0.440313
0.440301
0.440298
0.440301
0.440297
0.88936
0.889368
0.889358
0.889358
0.889359
0.889361
0.973911
0.973911
0.973911
0.973911
0.973911
0.973911
0.97389
0.97389
0.97389
0.97389
0.97389
0.97389
0.973929
0.973929
0.973929
0.973929
0.973929
0.973928
0.973866
0.973866
0.973866
0.973866
0.973866
0.973866
1.43513e-07
1.43424e-07
1.43451e-07
1.43458e-07
1.4343e-07
1.43537e-07
4.06448e-07
4.06372e-07
4.06395e-07
4.06393e-07
4.06355e-07
4.0648e-07
3.78836e-08
3.78709e-08
3.78722e-08
3.7868e-08
3.78676e-08
3.78963e-08
1.02221e-08
1.02177e-08
1.02203e-08
1.02208e-08
1.02187e-08
1.022e-08
9.12424e-09
9.14795e-09
9.14138e-09
9.13765e-09
9.14485e-09
9.13193e-09
0.000148524
0.000148522
0.000148522
0.000148529
0.000148529
0.000148527
0.0329141
0.0329121
0.0329107
0.0329084
0.03291
0.0329065
0.367138
0.367267
0.367203
0.367193
0.367234
0.367152
0.632371
0.632594
0.632488
0.632476
0.632541
0.632418
0.711108
0.711347
0.71124
0.711227
0.711293
0.71118
0.709051
0.709307
0.709205
0.709175
0.709229
0.709179
0.72452
0.724426
0.724488
0.7245
0.724446
0.724585
6.74073e-08
6.7311e-08
6.73366e-08
6.73428e-08
6.73117e-08
6.74257e-08
4.79918e-07
4.79923e-07
4.79927e-07
4.79934e-07
4.7994e-07
4.7994e-07
1.09512e-07
1.09439e-07
1.09456e-07
1.09452e-07
1.09436e-07
1.09534e-07
8.99838e-09
9.00184e-09
8.99967e-09
8.99924e-09
9.00102e-09
9.00033e-09
1.1399e-07
1.13893e-07
1.13944e-07
1.13965e-07
1.13917e-07
1.13941e-07
9.20616e-06
9.18855e-06
9.19649e-06
9.19896e-06
9.19223e-06
9.19915e-06
0.00655872
0.0065398
0.00654932
0.00655303
0.00654414
0.00655238
0.0973982
0.0974333
0.0974167
0.0974375
0.097435
0.097413
0.157072
0.157259
0.157169
0.157188
0.157234
0.157139
0.12069
0.120943
0.120829
0.120821
0.12089
0.120788
0.0515397
0.0516335
0.0516007
0.0515828
0.0515957
0.0516124
0.0567785
0.0567147
0.0567565
0.0567569
0.0567271
0.0568136
9.15346e-11
9.13211e-11
9.0361e-11
9.42515e-11
9.80506e-11
8.02893e-11
3.26286e-10
3.23246e-10
3.20279e-10
3.32298e-10
3.42506e-10
2.80946e-10
2.3559e-08
2.33064e-08
2.30968e-08
2.39244e-08
2.45984e-08
2.02508e-08
1.03446e-06
1.02363e-06
1.01384e-06
1.05029e-06
1.07614e-06
8.92904e-07
2.41673e-05
2.39479e-05
2.37294e-05
2.44737e-05
2.47353e-05
2.1214e-05
0.00336345
0.00329687
0.00327204
0.00337052
0.00317885
0.00284822
0.0216845
0.0216165
0.0215466
0.0216401
0.0213384
0.02137
0.0273373
0.0273179
0.02764
0.0271866
0.0278011
0.0285519
0.0277425
0.0278562
0.0280872
0.0278368
0.0285519
0.0292151
0.0274946
0.0273439
0.0277863
0.0270494
0.0265741
0.0285612
0.0057104
0.00567783
0.00552951
0.00630136
0.00652699
0.00552088
0.000114438
9.88641e-05
8.24545e-05
6.71119e-05
4.4901e-05
6.46961e-05
4.04922e-12
4.06652e-12
4.0122e-12
4.21296e-12
4.42674e-12
3.5576e-12
6.39386e-11
6.38386e-11
6.30306e-11
6.59585e-11
6.87072e-11
5.56747e-11
5.26761e-09
5.26054e-09
5.18985e-09
5.4375e-09
5.66509e-09
4.59043e-09
1.53404e-06
1.4985e-06
1.48612e-06
1.65569e-06
1.96274e-06
1.11992e-06
0.000141708
0.000141472
0.000141454
0.000142972
0.000144849
0.000133809
0.000319905
0.000318881
0.000319405
0.000316796
0.00030654
0.000310934
3.30548e-07
3.51267e-07
3.6195e-07
3.07649e-07
2.65268e-07
3.79578e-07
0.00239525
0.00230737
0.00223546
0.00219299
0.00145502
0.00200118
0.0269311
0.0267748
0.0277425
0.0257802
0.0248726
0.0289962
0.0420819
0.0425073
0.0437394
0.043431
0.0449508
0.0462583
0.0300291
0.0300222
0.0342073
0.0192246
0.0130814
0.037574
9.88645e-05
8.24546e-05
6.7112e-05
4.4901e-05
2.94593e-05
4.4901e-05
6.58779e-14
6.59367e-14
6.52077e-14
6.81874e-14
7.19108e-14
5.75847e-14
2.73137e-12
2.73379e-12
2.69941e-12
2.82821e-12
2.96137e-12
2.3828e-12
2.64311e-10
2.64607e-10
2.61195e-10
2.7353e-10
2.86347e-10
2.3095e-10
3.39909e-07
3.38736e-07
3.39308e-07
3.48256e-07
3.80754e-07
3.00597e-07
1.08952e-05
1.09015e-05
1.10062e-05
1.07524e-05
1.08232e-05
1.08481e-05
2.90194e-07
2.94065e-07
2.93989e-07
2.83131e-07
2.55262e-07
2.89835e-07
1.82977e-08
1.77688e-08
1.7006e-08
1.89519e-08
1.86953e-08
1.64697e-08
4.30836e-10
3.98573e-10
2.46721e-10
2.82697e-10
-2.22237e-11
-6.53416e-11
2.0384e-05
2.14754e-05
2.02091e-05
2.24196e-05
1.97271e-05
2.06208e-05
0.041888
0.0418462
0.0436291
0.0382074
0.0322339
0.0462891
0.113089
0.113513
0.113452
0.113595
0.106867
0.114237
0.00634152
0.00702544
0.0144547
0.00027356
2.94593e-05
0.0209518
1.50626e-15
1.50662e-15
1.49207e-15
1.54578e-15
1.62522e-15
1.32153e-15
6.58763e-14
6.5935e-14
6.5206e-14
6.81881e-14
7.19127e-14
5.75829e-14
7.75556e-12
7.7642e-12
7.6761e-12
8.02672e-12
8.47021e-12
6.78981e-12
5.06356e-10
5.0717e-10
5.01243e-10
5.23225e-10
5.50396e-10
4.45882e-10
2.16944e-08
2.17633e-08
2.17363e-08
2.17202e-08
2.18807e-08
1.96346e-08
9.01588e-09
9.16314e-09
9.14544e-09
8.79227e-09
8.43082e-09
8.99117e-09
2.07416e-08
1.97658e-08
1.83811e-08
2.20975e-08
2.1847e-08
1.78588e-08
2.04889e-11
2.04441e-11
1.9753e-11
2.08485e-11
2.07654e-11
1.93963e-11
5.04362e-10
2.87939e-10
1.29608e-10
2.48544e-10
-1.7501e-10
3.00693e-10
2.01832e-05
2.12541e-05
1.99587e-05
2.22415e-05
2.51621e-05
2.03349e-05
0.114716
0.115151
0.115114
0.115372
0.113333
0.115865
0.215719
0.21579
0.215855
0.215855
0.215841
0.215694
1.45286e-09
1.45067e-09
1.4516e-09
1.45071e-09
1.44743e-09
1.45296e-09
1.81476e-10
1.79813e-10
1.80344e-10
1.80243e-10
1.79207e-10
1.81769e-10
-8.84121e-17
-9.70236e-17
-9.96543e-17
-9.73893e-17
-9.67987e-17
-9.91937e-17
2.15286e-07
2.1492e-07
2.15024e-07
2.15005e-07
2.14805e-07
2.15325e-07
1.21538e-16
1.21452e-16
1.21478e-16
1.21532e-16
1.21468e-16
1.21566e-16
2.00529e-18
2.00638e-18
2.00558e-18
2.00537e-18
2.00608e-18
2.005e-18
3.09886e-09
3.096e-09
3.09459e-09
3.09564e-09
3.09929e-09
3.09566e-09
8.82787e-14
8.81725e-14
8.82281e-14
8.82777e-14
8.82072e-14
8.83085e-14
8.3688e-18
8.36959e-18
8.36984e-18
8.36904e-18
8.36828e-18
8.36798e-18
1.90422e-09
1.90226e-09
1.90334e-09
1.90425e-09
1.90286e-09
1.90465e-09
1.36946e-11
1.36783e-11
1.36871e-11
1.36947e-11
1.36838e-11
1.36992e-11
-1.47467e-15
-1.47442e-15
-1.47479e-15
-1.47681e-15
-1.47355e-15
-1.47753e-15
1.11894e-08
1.11565e-08
1.11728e-08
1.11798e-08
1.1165e-08
1.1186e-08
1.13861e-09
1.1371e-09
1.13791e-09
1.13853e-09
1.13759e-09
1.13889e-09
3.5531e-11
3.55083e-11
3.55174e-11
3.55323e-11
3.55137e-11
3.55349e-11
6.80554e-07
6.84479e-07
6.82528e-07
6.81457e-07
6.83241e-07
6.79053e-07
5.76177e-08
5.75259e-08
5.75728e-08
5.76027e-08
5.75523e-08
5.76213e-08
4.00736e-09
4.00427e-09
4.00562e-09
4.00718e-09
4.00503e-09
4.00719e-09
1.19377e-06
1.19173e-06
1.19243e-06
1.19259e-06
1.19177e-06
1.19283e-06
4.86547e-06
4.86937e-06
4.86734e-06
4.86845e-06
4.86923e-06
4.86702e-06
8.74799e-07
8.74794e-07
8.7475e-07
8.74942e-07
8.74825e-07
8.74684e-07
1.42218e-06
1.42183e-06
1.42148e-06
1.4213e-06
1.42118e-06
1.42111e-06
5.79034e-06
5.80416e-06
5.7984e-06
5.79719e-06
5.79946e-06
5.78494e-06
4.20621e-06
4.21699e-06
4.21278e-06
4.21233e-06
4.21251e-06
4.20545e-06
7.43267e-07
7.42875e-07
7.42493e-07
7.42132e-07
7.41975e-07
7.41846e-07
1.07748e-05
1.07747e-05
1.07747e-05
1.07746e-05
1.07744e-05
1.0774e-05
2.52456e-06
2.53735e-06
2.5323e-06
2.5314e-06
2.53073e-06
2.51906e-06
5.87719e-08
5.83421e-08
5.79497e-08
5.76192e-08
5.74455e-08
5.73896e-08
5.3672e-08
5.31685e-08
5.28951e-08
5.25565e-08
5.24031e-08
5.23292e-08
1.73188e-09
1.78995e-09
1.77447e-09
1.75259e-09
1.72988e-09
1.76242e-09
3.83278e-07
3.83158e-07
3.82778e-07
3.82316e-07
3.82083e-07
3.81959e-07
6.028e-08
6.04666e-08
6.00704e-08
5.95742e-08
5.91779e-08
5.95566e-08
1.43593e-05
1.43606e-05
1.43612e-05
1.43619e-05
1.43628e-05
1.43633e-05
0.00219548
0.00219075
0.00219163
0.00219222
0.00219906
0.00218537
-2.00784e-11
-2.07879e-11
-2.03384e-11
-2.16496e-11
-2.41357e-11
-1.83774e-11
3.62999e-06
3.60895e-06
3.61828e-06
3.60885e-06
3.59694e-06
3.65579e-06
0.335676
0.335679
0.335688
0.335682
0.335718
0.335777
1.23161e-07
1.23244e-07
1.26445e-07
1.44303e-07
5.74237e-09
1.39629e-07
1.29655e-06
9.78396e-07
9.82772e-07
2.76315e-07
3.2067e-09
6.33074e-07
0.336258
0.336263
0.336275
0.33632
0.336355
0.336355
0.000229558
0.000250136
0.000261487
0.000174007
0.000132923
0.000284232
-2.7683e-24
-1.18098e-24
-5.46677e-24
-2.0365e-24
-1.44279e-24
-2.0977e-24
0.336249
0.336258
0.336263
0.336275
0.33632
0.336355
0.00181137
0.00179182
0.00182289
0.0017557
0.00172073
0.00174426
-3.44678e-24
-3.29545e-24
-3.37576e-24
-3.02621e-24
-5.97726e-24
-1.91598e-24
0.330998
0.330995
0.331136
0.330805
0.33061
0.331302
-7.73318e-18
-1.0505e-17
-5.34867e-16
-2.0302e-15
-4.205e-24
-3.13048e-24
-8.24688e-24
-1.03256e-23
-1.12738e-23
-1.12265e-23
-1.05376e-23
-8.27235e-24
0.29125
0.291294
0.291351
0.291367
0.29155
0.291203
-3.63309e-16
-4.92219e-16
-2.35475e-14
-9.14162e-14
-3.24823e-24
-2.66362e-24
-6.05599e-25
-1.13846e-24
-8.28348e-25
-4.42054e-24
-7.42401e-24
-5.72324e-24
0.226426
0.226401
0.226449
0.226467
0.226608
0.226343
-8.12496e-17
-7.80262e-17
-8.41248e-17
-8.84818e-17
-6.55163e-17
-9.0477e-17
1.13438e-17
1.13063e-17
1.13094e-17
1.13251e-17
1.13133e-17
1.13683e-17
8.05504e-17
8.03009e-17
8.03701e-17
7.56314e-17
7.59462e-17
7.46835e-17
3.03544e-17
3.00879e-17
3.05945e-17
2.75241e-17
2.67781e-17
2.99098e-17
1.13306e-17
1.12743e-17
1.13334e-17
1.05815e-17
1.03059e-17
1.05892e-17
1.50706e-15
1.50742e-15
1.49286e-15
1.54763e-15
1.62708e-15
1.32232e-15
2.65918e-16
2.64132e-16
2.64131e-16
2.65416e-16
2.78283e-16
2.37229e-16
5.54376e-17
5.4945e-17
5.58919e-17
5.47e-17
5.58243e-17
5.42607e-17
1.91382e-13
1.91405e-13
1.89531e-13
1.97831e-13
2.09487e-13
1.67289e-13
7.52219e-14
7.50268e-14
7.49361e-14
7.62354e-14
7.91055e-14
6.91169e-14
2.44535e-15
2.42772e-15
2.44168e-15
2.45196e-15
2.53271e-15
2.28261e-15
1.68605e-11
1.68784e-11
1.66921e-11
1.7437e-11
1.84597e-11
1.4842e-11
8.57449e-13
8.57437e-13
8.50625e-13
8.80938e-13
9.24198e-13
7.63471e-13
4.19347e-14
4.18272e-14
4.19952e-14
4.17605e-14
4.19406e-14
4.08963e-14
6.71399e-10
6.73743e-10
6.72635e-10
6.71994e-10
6.76072e-10
6.41681e-10
2.14338e-11
2.14845e-11
2.15049e-11
2.13657e-11
2.14148e-11
2.0969e-11
1.21739e-12
1.21749e-12
1.20838e-12
1.24614e-12
1.29606e-12
1.09118e-12
2.14591e-10
2.18099e-10
2.17505e-10
2.09443e-10
2.01235e-10
2.13571e-10
1.16307e-11
1.16902e-11
1.16576e-11
1.14363e-11
1.12885e-11
1.15608e-11
5.32972e-12
5.32351e-12
5.27159e-12
5.30752e-12
5.3055e-12
5.27284e-12
7.06005e-10
6.81556e-10
6.44356e-10
7.3666e-10
7.5284e-10
6.53503e-10
1.26544e-11
1.2561e-11
1.23715e-11
1.16333e-11
1.12528e-11
1.27527e-11
5.31485e-12
5.32258e-12
5.23343e-12
5.35883e-12
5.36407e-12
5.23993e-12
8.50502e-12
8.44425e-12
8.10191e-12
9.00392e-12
8.90106e-12
7.73377e-12
1.28927e-11
1.30924e-11
1.24814e-11
1.35153e-11
1.34835e-11
1.21827e-11
5.20932e-12
5.26865e-12
5.1296e-12
5.36612e-12
5.45833e-12
5.13747e-12
-7.57226e-10
-1.04581e-09
-6.74583e-10
-9.51621e-10
-9.38035e-10
-1.12804e-09
3.27588e-14
3.55454e-14
3.10316e-14
3.90583e-14
3.86966e-14
2.62048e-14
6.90607e-22
8.13229e-22
8.12162e-22
1.01335e-16
6.15405e-22
6.02525e-22
-4.0444e-07
-4.31438e-07
-4.05152e-07
-4.35644e-07
-4.37897e-07
-4.27811e-07
4.3757e-09
9.6087e-10
5.13284e-10
5.81534e-09
6.74058e-09
3.70914e-09
2.96779e-07
2.64941e-07
2.50048e-07
2.98248e-07
2.97923e-07
2.97666e-07
-2.33994e-08
-4.86343e-08
-1.0173e-07
-3.19398e-08
-3.15882e-08
-1.20206e-07
1.40259e-09
1.29346e-09
1.48435e-09
1.61854e-09
4.52735e-09
9.6022e-09
4.46502e-11
6.38783e-18
8.02824e-09
2.56939e-10
1.19259e-07
6.70546e-08
0.205971
0.205798
0.204891
0.20749
0.208232
0.204292
1.55799e-09
1.40959e-09
1.69337e-09
1.77141e-09
5.50123e-09
1.08605e-08
1.67386e-06
1.36843e-06
1.16297e-06
4.08908e-06
9.03964e-06
1.03459e-06
)
;

boundaryField
{
    seabed_topleft_surface
    {
        type            zeroGradient;
    }
    seabed_topright_surface
    {
        type            zeroGradient;
    }
    breakwater_top_surface
    {
        type            zeroGradient;
    }
    breakwater_left_surface
    {
        type            zeroGradient;
    }
    breakwater_right_surface
    {
        type            zeroGradient;
    }
    water_front_surface
    {
        type            zeroGradient;
    }
    water_back_surface
    {
        type            zeroGradient;
    }
    water_left_surface
    {
        type            zeroGradient;
    }
    water_right_surface
    {
        type            zeroGradient;
    }
    water_top_surface
    {
        type            inletOutlet;
        inletValue      uniform 0;
        value           nonuniform List<scalar> 
180
(
0
0
0
0
0
0
0
0
0
0
0
0
0
0
0
0
0
0
0
0
0
0
0
0
3.5531e-11
3.55083e-11
3.55174e-11
3.55323e-11
3.55137e-11
3.55349e-11
4.00736e-09
4.00427e-09
4.00562e-09
4.00718e-09
4.00503e-09
4.00719e-09
8.74799e-07
8.74794e-07
8.7475e-07
8.74942e-07
8.74825e-07
8.74684e-07
4.20621e-06
4.21699e-06
4.21278e-06
4.21233e-06
4.21251e-06
4.20545e-06
0
0
0
0
0
0
0
0
0
0
0
0
0
0
0
0
0
0
0
0
0
0
0
0
0
0
0
0
0
0
0
0
0
0
0
0
0
0
0
0
0
0
0
0
0
0
0
0
0
0
0
0
0
0
0
0
0
0
0
0
1.13306e-17
1.12743e-17
1.13334e-17
1.05815e-17
1.03059e-17
1.05892e-17
5.54376e-17
5.4945e-17
5.58919e-17
5.47e-17
5.58243e-17
5.42607e-17
2.44535e-15
2.42772e-15
2.44168e-15
2.45196e-15
2.53271e-15
2.28261e-15
4.19347e-14
4.18272e-14
4.19952e-14
4.17605e-14
4.19406e-14
4.08963e-14
1.21739e-12
1.21749e-12
1.20838e-12
1.24614e-12
1.29606e-12
1.09118e-12
5.32972e-12
5.32351e-12
5.27159e-12
5.30752e-12
5.3055e-12
5.27284e-12
5.31485e-12
5.32258e-12
5.23343e-12
5.35883e-12
5.36407e-12
5.23993e-12
0
0
0
0
0
0
0
0
0
0
0
0
0
0
0
0
0
0
0
0
0
0
0
0
0
0
0
0
0
0
)
;
    }
}


// ************************************************************************* //
