/*--------------------------------*- C++ -*----------------------------------*\
| =========                 |                                                 |
| \\      /  F ield         | OpenFOAM: The Open Source CFD Toolbox           |
|  \\    /   O peration     | Version:  v1612+                                |
|   \\  /    A nd           | Web:      www.OpenFOAM.com                      |
|    \\/     M anipulation  |                                                 |
\*---------------------------------------------------------------------------*/
FoamFile
{
    version     2.0;
    format      ascii;
    class       surfaceScalarField;
    location    "4.6";
    object      alphaPhi;
}
// * * * * * * * * * * * * * * * * * * * * * * * * * * * * * * * * * * * * * //

dimensions      [0 3 -1 0 0 0 0];

internalField   nonuniform List<scalar> 
2916
(
-6.2052e-06
0.0724507
-3.24942e-07
-4.43101e-06
0.0724519
-3.24776e-07
-1.52193e-06
0.0724519
-3.24835e-07
1.20673e-06
0.0724521
-3.2485e-07
5.05849e-06
0.072452
-3.24792e-07
0.072451
-3.24998e-07
-4.70545e-06
0.14371
-7.84662e-07
-4.28925e-06
0.143714
-7.84527e-07
-1.0858e-06
0.143713
-7.84595e-07
1.74649e-06
0.143714
-7.8458e-07
3.78089e-06
0.143714
-7.84465e-07
0.143712
-7.84741e-07
-2.06858e-06
0.22472
-7.24313e-08
-3.23458e-06
0.22473
-7.24233e-08
-5.64018e-07
0.224728
-7.24259e-08
1.05874e-06
0.224728
-7.24198e-08
1.10121e-06
0.22473
-7.24176e-08
0.224724
-7.24497e-08
9.91831e-07
0.285815
-2.32397e-10
-1.81787e-06
0.285832
-2.32404e-10
-2.90241e-07
0.285828
-2.32623e-10
-3.2599e-07
0.285828
-2.32233e-10
-2.5067e-06
0.285831
-2.32033e-10
0.285819
-2.33395e-10
1.06335e-06
0.205646
0.0752249
-1.2051e-06
0.205676
0.0752227
-1.70716e-06
0.205668
0.0752228
-3.93505e-06
0.205668
0.075224
-6.05857e-06
0.205674
0.0752228
0.205651
0.0752219
1.72632e-06
-0.201317
0.273385
-3.53813e-06
-0.20128
0.27339
-5.8776e-06
-0.201285
0.273386
-7.09669e-06
-0.201284
0.273384
-1.13849e-05
-0.201276
0.273385
-0.20131
0.273379
7.39939e-06
-0.787271
0.584893
5.91335e-06
-0.787253
0.58492
-1.09795e-06
-0.787239
0.584907
-6.90274e-06
-0.787237
0.584905
-1.63467e-05
-0.787232
0.58491
-0.787274
0.584888
-7.03613e-06
-1.34174
0.553443
1.56103e-05
-1.34176
0.553453
9.0299e-06
-1.34171
0.553452
-2.14823e-06
-1.34171
0.553453
-9.45099e-06
-1.34171
0.553454
-1.34175
0.553435
6.56291e-06
-1.61357
0.270874
2.41787e-05
-1.61364
0.270917
1.72593e-05
-1.61358
0.270918
3.18141e-06
-1.61357
0.270923
-1.07853e-05
-1.61359
0.270936
-1.61359
0.270865
8.21386e-05
-1.39888
-0.215795
3.00141e-05
-1.39897
-0.215639
3.6936e-06
-1.3989
-0.21567
-1.1271e-05
-1.3989
-0.215675
-4.73986e-05
-1.39894
-0.21564
-1.39889
-0.21577
0.00017189
-0.705642
-0.69451
1.51459e-05
-0.705665
-0.694256
-2.47235e-05
-0.705637
-0.694329
-2.92414e-05
-0.705649
-0.694357
-0.000108304
-0.705665
-0.694302
-0.705639
-0.694476
-3.05043e-06
-0.70159
-2.51785e-05
-0.701586
-1.29705e-05
-0.701596
-1.59637e-05
-0.701597
-4.67302e-05
-0.701588
-0.701646
-1.72343e-12
2.65851e-08
-3.51336e-07
-6.30948e-13
2.65823e-08
-3.5117e-07
1.12657e-13
2.65834e-08
-3.5123e-07
8.97258e-13
2.65837e-08
-3.51245e-07
2.05847e-12
2.65826e-08
-3.51186e-07
2.65868e-08
-3.51392e-07
-2.15995e-12
5.96736e-08
-8.21158e-07
-8.68467e-13
5.96714e-08
-8.21028e-07
2.89711e-13
5.96733e-08
-8.21096e-07
1.63894e-12
5.96726e-08
-8.21081e-07
3.1006e-12
5.967e-08
-8.20964e-07
5.96775e-08
-8.21238e-07
-1.1512e-12
4.68112e-08
-6.44501e-08
-3.36212e-13
4.68102e-08
-6.44456e-08
4.28263e-13
4.68105e-08
-6.44464e-08
1.21794e-12
4.68098e-08
-6.44403e-08
1.86441e-12
4.68097e-08
-6.44406e-08
4.68136e-08
-6.44663e-08
-7.88704e-13
4.18846e-08
-2.13892e-10
-3.23296e-13
4.18855e-08
-2.1693e-10
2.66952e-13
4.18853e-08
-2.16777e-10
7.30467e-13
4.1885e-08
-2.16636e-10
9.75818e-13
4.18853e-08
-2.16686e-10
4.18861e-08
-2.13725e-10
2.95027e-07
0.0452862
0.00108015
5.37612e-08
0.0452889
0.00108215
7.94413e-09
0.0452868
0.00108117
-3.28973e-08
0.0452874
0.00108104
-2.18418e-07
0.0452882
0.00108176
0.0452851
0.00108086
4.37834e-06
0.000551795
-0.00765348
-2.56397e-06
0.000583009
-0.00764752
-2.00159e-06
0.000573406
-0.00764991
-1.61069e-06
0.000576072
-0.00764957
-7.36142e-06
0.000587181
-0.00764787
0.000559714
-0.00765026
6.47475e-05
-0.470729
0.0851412
6.47692e-06
-0.470689
0.0851768
-3.7054e-06
-0.470681
0.0851536
-6.45505e-06
-0.470672
0.0851491
-4.95127e-05
-0.47065
0.0851603
-0.470722
0.0851383
2.83249e-05
-0.997167
0.542888
2.09969e-06
-0.997214
0.543045
-1.81723e-06
-0.997168
0.542968
-5.78941e-06
-0.997157
0.542972
-2.78748e-05
-0.997156
0.543019
-0.997186
0.542918
9.9395e-05
-0.994365
0.267141
7.97094e-06
-0.99447
0.267433
8.30627e-06
-0.994391
0.26731
1.87585e-05
-0.994394
0.267317
-2.81832e-05
-0.994419
0.26741
-0.994386
0.267199
0.000420595
-0.796514
-0.414958
2.02828e-05
-0.796513
-0.414087
-3.62229e-05
-0.796466
-0.41443
1.10532e-05
-0.796516
-0.414494
-0.000158747
-0.796551
-0.414236
-0.79646
-0.414754
0.000403615
-0.414565
-1.07453
-1.5236e-06
-0.414432
-1.07361
-7.7936e-05
-0.41443
-1.07396
-1.25785e-05
-0.41451
-1.0741
-0.000125741
-0.414553
-1.07387
-0.414439
-1.0743
-0.000219027
-1.12054
-6.22299e-05
-1.12078
-1.85844e-05
-1.12067
-3.6805e-06
-1.12073
0.000113204
-1.12087
-1.12058
-3.39831e-12
-1.68108e-07
-1.27366e-07
-3.43325e-13
-1.68033e-07
-1.2726e-07
1.2364e-12
-1.68058e-07
-1.27293e-07
2.09945e-12
-1.68061e-07
-1.27303e-07
3.78705e-12
-1.68034e-07
-1.27265e-07
-1.68127e-07
-1.27395e-07
-1.61922e-11
-1.56445e-07
-5.71552e-07
1.70839e-12
-1.56379e-07
-5.71447e-07
5.16539e-12
-1.56394e-07
-5.71499e-07
1.15514e-11
-1.56389e-07
-5.71496e-07
3.11907e-11
-1.56369e-07
-5.71408e-07
-1.56474e-07
-5.71592e-07
-4.93117e-12
6.20804e-09
-1.48987e-07
-1.33851e-12
6.18294e-09
-1.48924e-07
-3.48419e-13
6.19592e-09
-1.48942e-07
5.93848e-13
6.19694e-09
-1.48937e-07
3.89413e-12
6.187e-09
-1.48919e-07
6.20132e-09
-1.49018e-07
-1.44112e-12
3.14005e-07
-2.97189e-07
-1.00443e-12
3.13673e-07
-2.96788e-07
-7.06841e-13
3.13882e-07
-2.97041e-07
-3.22209e-13
3.13956e-07
-2.97123e-07
5.38287e-13
3.13776e-07
-2.96909e-07
3.13829e-07
-2.96973e-07
2.54343e-07
0.00107356
6.70874e-06
-4.20676e-09
0.00107614
6.64741e-06
-9.77677e-09
0.00107488
6.67596e-06
1.90452e-08
0.00107471
6.68537e-06
-1.1035e-07
0.00107561
6.65942e-06
0.00107445
6.68472e-06
2.19112e-06
-0.00788526
0.00051878
-5.574e-07
-0.00787173
0.00051898
-7.1694e-07
-0.00787796
0.000518852
-4.52095e-07
-0.00787866
0.000519267
-1.63939e-06
-0.00787437
0.000519129
-0.00788037
0.00051864
1.54308e-05
-0.240446
-0.0109368
-5.5513e-07
-0.240415
-0.0109659
-4.46301e-06
-0.240424
-0.010951
-2.20613e-06
-0.240415
-0.0109448
-1.2316e-05
-0.240412
-0.0109584
-0.240405
-0.0109434
0.000168255
-0.561151
0.00217697
1.68887e-06
-0.56112
0.00222307
-1.2637e-05
-0.561125
0.00220164
5.95096e-08
-0.561126
0.00219999
-9.84426e-05
-0.561126
0.00221574
-0.561109
0.00218794
0.000424694
-0.531712
-0.100187
3.71866e-06
-0.531322
-0.0995839
-3.2523e-05
-0.531486
-0.0998643
2.8022e-05
-0.531542
-0.0999096
-0.000217532
-0.531438
-0.099672
-0.531588
-0.100064
0.000274517
-0.309365
-0.378106
-1.78885e-05
-0.308423
-0.378018
-3.20766e-05
-0.308833
-0.378057
2.46853e-05
-0.308923
-0.378096
-0.000116114
-0.308663
-0.378029
-0.309121
-0.378133
-0.000417358
-0.147609
-0.46146
-7.30475e-05
-0.146875
-0.461589
-4.74067e-05
-0.14719
-0.461548
-9.41231e-06
-0.147237
-0.461583
0.000359025
-0.147053
-0.461633
-0.147417
-0.461567
-0.000533171
-0.474575
-8.30855e-05
-0.474582
-9.17751e-05
-0.474601
-1.91792e-06
-0.474692
0.000494354
-0.474749
-0.474612
-6.18843e-13
-6.90801e-09
-1.379e-08
1.81228e-13
-6.91277e-09
-1.37713e-08
-1.5905e-13
-6.90896e-09
-1.37773e-08
-5.93371e-14
-6.91004e-09
-1.37775e-08
8.76242e-13
-6.91092e-09
-1.37673e-08
-6.90389e-09
-1.37943e-08
-6.53731e-12
-7.91567e-09
-2.4378e-07
6.01671e-12
-7.92532e-09
-2.43688e-07
4.35146e-12
-7.91979e-09
-2.43727e-07
2.38794e-12
-7.9221e-09
-2.43715e-07
8.81911e-12
-7.92144e-09
-2.43628e-07
-7.91389e-09
-2.43798e-07
-1.3342e-11
-3.28433e-09
-2.81432e-08
-1.6166e-12
-3.29157e-09
-2.81177e-08
-2.24486e-13
-3.28472e-09
-2.81207e-08
-1.28259e-12
-3.27996e-09
-2.81225e-08
4.20513e-12
-3.28596e-09
-2.81242e-08
-3.2979e-09
-2.81406e-08
-1.15009e-11
-2.91249e-07
-1.93885e-08
-2.59191e-12
-2.90999e-07
-1.93493e-08
-6.12152e-12
-2.91161e-07
-1.93702e-08
-1.15987e-11
-2.91218e-07
-1.93798e-08
-3.61921e-12
-2.91082e-07
-1.93611e-08
-2.91104e-07
-1.93846e-08
1.09184e-08
4.9205e-06
1.2192e-06
3.7476e-10
4.9009e-06
1.21363e-06
-4.91522e-10
4.91123e-06
1.21612e-06
1.05408e-09
4.91614e-06
1.21696e-06
-4.25241e-09
4.90478e-06
1.21469e-06
4.91248e-06
1.21667e-06
1.97161e-07
0.000441299
-1.06283e-05
-8.11414e-08
0.000441312
-9.79835e-06
-1.75305e-07
0.000441323
-1.01986e-05
-4.16564e-08
0.000441668
-1.03855e-05
-1.0419e-07
0.000441422
-1.00205e-05
0.000441425
-1.07422e-05
-9.99252e-06
-0.117023
8.84127e-05
-1.83695e-06
-0.116892
8.91413e-05
6.49479e-07
-0.116957
8.88938e-05
-2.5144e-07
-0.117
8.89762e-05
1.29097e-06
-0.11693
8.921e-05
-0.116981
8.90891e-05
-0.000149077
-0.328455
-4.69377e-06
-1.0695e-05
-0.328613
-4.6911e-06
4.28333e-05
-0.328533
-4.68804e-06
1.6791e-05
-0.328609
-4.68402e-06
3.34256e-05
-0.328626
-4.68505e-06
-0.328543
-4.67432e-06
-0.000388959
-0.227607
-5.43121e-05
-1.10946e-05
-0.227546
-5.43676e-05
7.9145e-05
-0.227572
-5.43579e-05
1.172e-05
-0.227627
-5.43248e-05
0.000158543
-0.227579
-5.43802e-05
-0.227653
-5.43034e-05
-0.000384427
-0.0572892
-0.000569315
-1.2604e-05
-0.057232
-0.000569301
5.70362e-05
-0.0572742
-0.000569467
3.5795e-06
-0.0572562
-0.000569257
0.000184348
-0.0572152
-0.000569969
-0.0573451
-0.000568795
-0.000132959
-0.0407473
-0.00920345
-6.01214e-06
-0.0406331
-0.00920982
1.37364e-05
-0.040701
-0.00920908
2.27907e-06
-0.0406903
-0.00920682
7.43283e-05
-0.0406421
-0.00921679
-0.0407704
-0.00920059
-5.55481e-05
-0.0760642
-6.15986e-06
-0.0760213
-1.09435e-05
-0.0760509
2.9433e-06
-0.0760651
3.66531e-05
-0.0760636
-0.0760745
-3.7905e-15
-1.65243e-09
1.37526e-10
-2.18917e-15
-1.65372e-09
1.36529e-10
7.31155e-14
-1.62335e-09
1.35196e-10
8.2365e-14
-1.71306e-09
1.4051e-10
2.3304e-13
-1.79111e-09
1.45323e-10
-1.41413e-09
1.18789e-10
-1.96327e-12
-2.6365e-08
1.94763e-08
-1.27527e-11
-2.60947e-08
1.92438e-08
-1.23739e-11
-2.58084e-08
1.90823e-08
5.07463e-12
-2.68307e-08
1.97672e-08
1.69105e-10
-2.77927e-08
2.03767e-08
-2.23089e-08
1.66652e-08
-1.9656e-10
-2.02806e-06
1.65354e-06
-2.96684e-09
-2.00221e-06
1.63294e-06
-1.06669e-08
-1.9753e-06
1.61892e-06
-2.84743e-10
-2.07253e-06
1.68195e-06
5.03108e-08
-2.18113e-06
1.74223e-06
-1.67235e-06
1.40952e-06
1.17525e-08
-5.42541e-05
3.82566e-05
1.9469e-08
-5.37975e-05
3.79137e-05
-3.10992e-07
-5.26907e-05
3.75109e-05
1.9071e-07
-5.55381e-05
3.88111e-05
2.15654e-06
-5.78736e-05
3.93823e-05
-4.45774e-05
3.33754e-05
7.49324e-07
-0.000899327
0.000561119
5.06718e-06
-0.000899072
0.000558869
6.58946e-06
-0.000881444
0.00055237
9.16737e-06
-0.000911548
0.000567376
2.51344e-05
-0.000918172
0.000559855
-0.000770006
0.000509178
3.20964e-05
-0.0498603
0.00300085
5.74255e-05
-0.0493272
0.00302114
0.000121079
-0.0478896
0.00296564
0.000129406
-0.0498152
0.0030056
1.64848e-05
-0.0467546
0.00291571
-0.0426475
0.00289851
0.000425687
-0.119838
-0.00368902
0.0004532
-0.120383
-0.00358083
0.000712917
-0.116471
-0.00353328
0.000941407
-0.120148
-0.00376751
-0.000406557
-0.114147
-0.00329197
-0.1138
-0.00328896
0.000801407
-0.134736
-0.0224172
0.000808149
-0.135511
-0.0220103
0.00136556
-0.135095
-0.0225349
0.00228703
-0.1341
-0.0220253
-0.00130318
-0.135227
-0.0199494
-0.13816
-0.0229181
0.000256434
-0.0721637
-0.100239
0.000263873
-0.0729853
-0.101688
0.00075057
-0.0743688
-0.10354
0.000502776
-0.0725957
-0.10152
-0.00115499
-0.0746936
-0.10485
-0.078135
-0.110337
0.000145227
0.0242222
-0.134256
0.000479594
0.024121
-0.13441
0.00150035
0.0247444
-0.141781
0.000393672
0.023075
-0.126327
-0.00233405
0.0212459
-0.125166
0.0250071
-0.151128
9.87718e-05
0.00239616
0.00775891
0.000299516
0.0022894
0.00780845
0.00104867
0.00224177
0.00755549
0.000205265
0.00192735
0.00468939
-0.00140104
0.00197544
0.00203747
0.00206649
0.00597371
1.97666e-05
0.00205037
2.84671e-05
0.00200172
6.57205e-05
0.0019663
4.28208e-06
0.00178787
-4.97265e-05
0.00189347
0.0018308
-3.99822e-15
2.28936e-11
4.13159e-11
-4.54373e-15
2.12125e-11
4.12957e-11
1.04117e-14
2.21187e-11
4.06592e-11
1.20047e-14
2.01909e-11
4.28045e-11
3.68681e-14
1.77173e-11
4.4818e-11
1.97643e-11
3.55092e-11
-2.14642e-12
1.362e-08
4.79635e-09
-4.12125e-12
1.33759e-08
4.80243e-09
-3.11504e-12
1.33034e-08
4.73323e-09
3.54754e-13
1.36909e-08
4.9616e-09
3.27686e-11
1.39906e-08
5.18177e-09
1.15065e-08
4.20968e-09
-7.35844e-10
1.36594e-06
2.19154e-07
-9.9812e-10
1.34348e-06
2.19955e-07
-3.61537e-09
1.3366e-06
2.16946e-07
3.9579e-10
1.37905e-06
2.26098e-07
1.2792e-08
1.41758e-06
2.35178e-07
1.16078e-06
1.96424e-07
-5.42559e-08
-2.94218e-06
4.01801e-06
-2.34299e-08
-2.62564e-06
3.96804e-06
-1.93981e-07
-2.20627e-06
3.91672e-06
7.85052e-08
-7.27925e-06
4.35434e-06
6.26836e-07
-1.8071e-05
5.14988e-06
5.34614e-06
3.09354e-06
-2.33325e-06
-0.00127473
0.000149041
6.1679e-07
-0.00129123
0.000150018
-1.44387e-06
-0.00127262
0.000149884
2.87576e-06
-0.0013232
0.000150269
4.85128e-06
-0.00132973
0.000150539
-0.00119942
0.000146734
-3.75738e-06
-0.000605907
2.01502e-06
8.71451e-07
-0.00061731
2.56852e-06
6.94544e-06
-0.000613343
2.53535e-06
-8.28286e-06
-0.000620798
2.29961e-06
-4.09337e-05
-0.000566609
2.69577e-06
-0.000593292
2.61033e-06
5.70462e-06
-0.00428778
-1.35873e-05
-3.73898e-06
-0.0041709
-1.23546e-05
-1.10766e-05
-0.00411736
-1.05866e-05
-9.97863e-06
-0.00437569
-1.48594e-05
-2.07713e-05
-0.00383783
-1.08494e-05
-0.0038789
-8.70099e-06
2.64413e-05
-0.0267639
-0.00151008
-6.11525e-05
-0.025095
-0.00151335
-0.000215095
-0.0267211
-0.00151393
-9.90076e-05
-0.0229383
-0.00142429
0.000148609
-0.0177255
-0.00120259
-0.0275155
-0.00151759
0.000180881
-0.132063
-0.0358504
-9.22383e-05
-0.131784
-0.0358456
-0.00133275
-0.139098
-0.037022
0.0002454
-0.119534
-0.0338982
0.00199344
-0.116792
-0.0314997
-0.147582
-0.0392327
-0.000101091
-0.104703
-0.221803
-0.000551102
-0.105899
-0.222295
-0.00152039
-0.114711
-0.226911
-0.000289048
-0.0866788
-0.22784
0.00161149
-0.079312
-0.227836
-0.122344
-0.236998
-0.000433513
-0.00121766
-0.246254
-0.00106058
-0.00121368
-0.247667
-0.00159683
-0.00113487
-0.262466
-0.000136193
-0.00141413
-0.209507
0.00028821
-0.00165988
-0.124748
-0.00109861
-0.276323
5.49894e-06
0.000542473
1.69442e-05
0.000533463
3.75014e-05
0.000605818
2.4307e-05
0.000248137
-2.91208e-05
0.000193645
0.000564271
-2.35121e-16
-4.15048e-12
2.7764e-12
-1.69283e-16
-3.9512e-12
2.78012e-12
3.38309e-16
-4.01049e-12
2.7388e-12
7.13522e-16
-3.70062e-12
2.87702e-12
2.23935e-15
-3.25909e-12
2.98411e-12
-4.04766e-12
2.41742e-12
-1.04447e-13
8.45765e-10
2.50935e-10
-9.1558e-14
8.68256e-10
2.51508e-10
-4.83855e-14
8.53211e-10
2.4746e-10
1.08893e-13
9.19579e-10
2.59768e-10
9.18018e-13
1.00619e-09
2.68058e-10
7.59388e-10
2.1886e-10
-2.85016e-11
5.83048e-08
6.14526e-09
-2.78419e-11
5.93206e-08
6.167e-09
-9.11701e-11
5.91067e-08
6.04028e-09
1.33968e-11
6.08946e-08
6.32583e-09
3.15369e-10
6.44754e-08
6.32556e-09
5.52081e-08
5.35037e-09
-3.29817e-09
-6.56648e-06
9.45501e-08
-1.7885e-09
-6.65952e-06
9.56698e-08
-1.00492e-08
-6.54823e-06
9.37927e-08
3.52576e-09
-6.78189e-06
9.74968e-08
2.88397e-08
-7.03492e-06
9.98155e-08
-6.07446e-06
8.67834e-08
-1.25581e-07
-2.60838e-06
1.19003e-06
-2.04901e-10
-2.80611e-06
1.204e-06
-6.97467e-08
-2.60852e-06
1.20052e-06
1.83121e-07
-2.97687e-06
1.18119e-06
2.87448e-07
-3.00547e-06
1.14367e-06
-2.16621e-06
1.11881e-06
-1.81044e-07
4.61396e-08
-4.78902e-07
-1.78234e-08
3.18254e-08
-4.69126e-07
3.218e-07
2.27632e-08
-4.7086e-07
-1.26819e-07
5.57531e-08
-4.91925e-07
-7.53756e-07
6.9968e-08
-5.04306e-07
1.25232e-08
-4.32418e-07
-7.73573e-09
-1.34045e-05
-5.23667e-08
-1.47331e-08
-1.24258e-05
-4.72029e-08
-8.22168e-10
-1.06603e-05
-4.06588e-08
-3.25138e-08
-1.4894e-05
-6.33553e-08
-4.04542e-08
-1.08765e-05
-6.19853e-08
-8.78464e-06
-3.36814e-08
-6.05361e-07
-0.00152284
-4.14959e-08
-1.31744e-06
-0.00152502
-3.98787e-08
-1.94049e-06
-0.00152392
-3.87928e-08
-3.28836e-06
-0.0014378
-4.06523e-08
3.34594e-07
-0.00121704
-3.70094e-08
-0.00152599
-3.75021e-08
4.97722e-06
-0.0363742
-0.000939856
1.59725e-05
-0.0363508
-0.000967644
2.19081e-05
-0.0375447
-0.000947326
1.90112e-05
-0.0343596
-0.000966585
-9.7212e-06
-0.0316839
-0.000988679
-0.0397355
-0.0009798
-0.000193478
-0.260937
-0.0618331
-0.000870685
-0.262945
-0.0621732
-0.00118709
-0.266656
-0.0639509
-0.000197327
-0.252905
-0.0588723
0.00104528
-0.192131
-0.0534279
-0.275198
-0.0671304
-0.00127807
-0.0459877
-0.465609
-0.00448487
-0.0477534
-0.467643
-0.0142841
-0.0595481
-0.464852
-0.00849604
-0.0368099
-0.47775
0.0184493
-8.61504e-05
-0.486505
-0.0694238
-0.466864
-0.00019115
-0.117706
-0.00100123
-0.129449
-0.000152208
-0.180116
-3.5079e-06
-0.0442119
2.69369e-06
6.07345e-06
-0.214258
-9.38807e-19
-8.40466e-13
6.83171e-14
2.01894e-18
-8.41754e-13
6.84525e-14
7.46167e-18
-8.30151e-13
6.75962e-14
1.29953e-17
-8.69947e-13
7.13316e-14
2.66713e-17
-9.06709e-13
7.5414e-14
-7.34433e-13
5.97495e-14
-1.04729e-15
-4.58256e-11
6.48479e-12
-1.00549e-16
-4.59713e-11
6.51382e-12
6.15857e-16
-4.51237e-11
6.40935e-12
2.82013e-15
-4.72536e-11
6.73354e-12
1.04267e-14
-4.77846e-11
7.01913e-12
-4.06654e-11
5.70469e-12
-3.03756e-13
-1.90065e-11
1.14122e-10
-1.34772e-13
-1.73516e-11
1.14884e-10
-5.33401e-13
6.345e-12
1.12431e-10
3.2112e-13
-5.23321e-11
1.1832e-10
2.81988e-12
-4.7514e-11
1.20608e-10
6.92484e-11
9.87184e-11
-5.24637e-11
4.675e-08
1.56866e-09
-2.06765e-11
4.66159e-08
1.57443e-09
-1.34289e-10
4.68851e-08
1.55839e-09
4.9098e-11
4.67468e-08
1.61128e-09
4.08123e-10
4.75975e-08
1.67773e-09
4.45623e-08
1.39409e-09
-3.0623e-09
7.81415e-07
3.58091e-08
1.12589e-09
7.80741e-07
3.60365e-08
-1.04816e-09
7.8428e-07
3.58554e-08
5.77949e-09
7.73156e-07
3.5925e-08
1.02456e-08
7.61571e-07
3.59e-08
7.56121e-07
3.42091e-08
-1.29763e-09
3.37875e-07
-2.17444e-08
1.37638e-09
3.43551e-07
-2.16522e-08
6.17272e-09
3.43112e-07
-2.16591e-08
1.71552e-09
3.22315e-07
-2.20627e-08
-7.60847e-09
2.98928e-07
-2.24018e-08
3.4678e-07
-2.03016e-08
-8.36587e-11
5.71768e-08
2.64352e-10
2.02919e-10
5.52959e-08
2.24389e-10
1.06711e-09
5.29582e-08
1.77181e-10
1.47445e-11
5.87872e-08
3.12698e-10
-1.66935e-09
5.84554e-08
3.70574e-10
5.08848e-08
1.7706e-10
-4.31345e-12
1.57848e-08
-5.29428e-11
-3.11133e-12
1.54959e-08
-4.60466e-11
1.84536e-12
1.42216e-08
-5.16599e-11
-2.11472e-11
1.82473e-08
-4.80753e-11
-2.54416e-11
2.15465e-08
-4.48254e-11
1.33939e-08
-4.24242e-11
-2.02972e-07
-0.000936965
-2.67677e-06
-1.07338e-07
-0.000964103
-3.6246e-06
1.65653e-07
-0.000945301
-2.28523e-06
-7.29161e-07
-0.000962012
-3.66152e-06
-5.8234e-07
-0.000984556
-4.25083e-06
-0.000976712
-3.65996e-06
-1.60186e-05
-0.0607744
-0.001918
5.40622e-06
-0.061176
-0.00192147
0.000114251
-0.0629658
-0.00198071
7.19446e-06
-0.057873
-0.001789
-0.000138571
-0.0525836
-0.00162977
-0.0661349
-0.00205877
0.000676539
-0.397144
-0.134391
-0.00142208
-0.398768
-0.134892
-0.00640507
-0.392175
-0.134804
0.000550999
-0.417155
-0.134619
0.00963379
-0.40835
-0.131154
-0.390082
-0.135619
0.00288792
-0.482532
-0.00787907
-0.482723
-0.0608642
-0.484925
-0.0158583
-0.471991
0.0841438
-0.473854
-0.484898
8.61007e-14
-5.32532e-10
-2.3159e-08
2.44628e-14
-5.29394e-10
-2.31333e-08
-6.06218e-15
-5.30437e-10
-2.31418e-08
-3.80552e-14
-5.30166e-10
-2.31407e-08
-1.01866e-13
-5.2797e-10
-2.31238e-08
-5.33082e-10
-2.31641e-08
6.49408e-15
6.85895e-17
-1.92301e-14
1.80814e-15
7.52818e-17
-1.90882e-14
-8.16152e-16
7.73211e-17
-1.91363e-14
-3.43816e-15
7.55636e-17
-1.9135e-14
-7.85682e-15
7.51076e-17
-1.9046e-14
7.69545e-17
-1.92566e-14
-2.07927e-21
-6.26164e-18
-9.62188e-22
-6.25703e-18
-1.96527e-22
-6.25865e-18
5.85047e-22
-6.2617e-18
2.099e-21
-6.25839e-18
-6.26402e-18
2.48578e-12
-9.73274e-12
-1.14249e-08
-3.46849e-13
-9.72117e-12
-1.13972e-08
-3.44432e-12
-9.72726e-12
-1.14037e-08
-6.56527e-12
-9.73274e-12
-1.14022e-08
-9.89084e-12
-9.72505e-12
-1.13873e-08
-9.736e-12
-1.14274e-08
2.58601e-18
-1.03384e-14
-9.74218e-12
-4.02314e-19
-1.03294e-14
-9.73048e-12
-2.39114e-18
-1.03328e-14
-9.73662e-12
-3.95489e-18
-1.03377e-14
-9.74209e-12
-6.62942e-18
-1.03312e-14
-9.73432e-12
-1.03411e-14
-9.74548e-12
4.23517e-21
-1.03565e-14
1.63758e-21
-1.03475e-14
-1.06968e-22
-1.03509e-14
-1.65771e-21
-1.03558e-14
-5.089e-21
-1.03493e-14
-1.03592e-14
-3.6968e-13
-4.24851e-10
6.89031e-10
-1.09653e-13
-4.2455e-10
6.80543e-10
-1.35868e-13
-4.24533e-10
6.85691e-10
-1.77694e-13
-4.24707e-10
6.87196e-10
-2.74468e-14
-4.24949e-10
6.8239e-10
-4.24664e-10
6.88235e-10
-9.1469e-16
-7.25906e-13
-4.33794e-10
-4.07883e-16
-7.24903e-13
-4.33482e-10
-7.39969e-16
-7.25139e-13
-4.3347e-10
-8.93987e-16
-7.25607e-13
-4.33651e-10
-7.07082e-16
-7.25456e-13
-4.33885e-10
-7.25776e-13
-4.33613e-10
1.73645e-18
-7.36272e-13
3.56537e-19
-7.35257e-13
-1.53963e-18
-7.35496e-13
-2.72119e-18
-7.35969e-13
-5.46744e-18
-7.3581e-13
-7.36148e-13
-6.21315e-13
-2.17348e-09
-1.81734e-08
-1.02258e-13
-2.17135e-09
-1.81225e-08
-3.51398e-13
-2.17272e-09
-1.8148e-08
-5.85106e-13
-2.17374e-09
-1.8163e-08
-9.9845e-14
-2.17228e-09
-1.81412e-08
-2.17384e-09
-1.81767e-08
-8.92688e-14
-5.53242e-11
-2.54056e-09
-2.27182e-14
-5.52429e-11
-2.53813e-09
-3.36456e-14
-5.52863e-11
-2.53948e-09
-2.89714e-14
-5.53177e-11
-2.54072e-09
-2.4042e-15
-5.52713e-11
-2.53948e-09
-5.53216e-11
-2.54087e-09
-7.78106e-16
-5.60479e-11
-4.2667e-16
-5.59668e-11
-1.08438e-15
-5.60094e-11
-1.09982e-15
-5.60419e-11
-1.29881e-15
-5.59951e-11
-5.60472e-11
7.70157e-10
1.41959e-07
-9.25438e-08
-1.24816e-11
1.41695e-07
-8.98175e-08
-5.05414e-11
1.41822e-07
-9.1111e-08
6.34268e-11
1.41958e-07
-9.11576e-08
-4.11831e-10
1.41803e-07
-9.02512e-08
1.42064e-07
-9.20968e-08
2.88262e-11
2.00133e-08
-1.51476e-08
-2.95092e-12
2.00316e-08
-1.43456e-08
-4.78843e-12
2.00228e-08
-1.47311e-08
4.39501e-13
2.00321e-08
-1.48335e-08
-2.24899e-11
2.00318e-08
-1.45176e-08
2.00335e-08
-1.50847e-08
-2.00058e-13
-1.13776e-08
-9.3854e-15
-1.13353e-08
-1.28204e-13
-1.13555e-08
-7.88874e-14
-1.13661e-08
-1.59186e-13
-1.13462e-08
-1.13788e-08
-1.02011e-09
1.32326e-05
-2.89843e-05
-4.59899e-09
1.32312e-05
-2.84844e-05
-5.51056e-09
1.32307e-05
-2.87269e-05
-2.84028e-09
1.32328e-05
-2.88404e-05
-6.7219e-09
1.32312e-05
-2.86174e-05
1.32233e-05
-2.90381e-05
7.35638e-10
2.01741e-06
1.10739e-05
-6.85871e-10
2.01601e-06
1.10786e-05
-9.90063e-10
2.01654e-06
1.10751e-05
-1.15652e-09
2.01698e-06
1.10761e-05
-2.09807e-09
2.01616e-06
1.1077e-05
2.01619e-06
1.10643e-05
4.94507e-11
7.84527e-07
-2.25724e-12
7.84545e-07
-5.99025e-12
7.8447e-07
-6.72164e-12
7.8455e-07
-4.23161e-11
7.84389e-07
7.83939e-07
-6.70311e-07
6.01505e-05
-3.10566e-06
-2.53686e-07
6.03192e-05
-3.10399e-06
-2.54611e-07
6.02346e-05
-3.10389e-06
-3.06002e-07
6.02473e-05
-3.1036e-06
4.47998e-08
6.03091e-05
-3.10278e-06
6.01514e-05
-3.10454e-06
-1.9719e-08
2.9022e-05
2.73533e-05
-1.19967e-08
2.90561e-05
2.74051e-05
-1.3953e-08
2.90389e-05
2.7375e-05
-1.4929e-08
2.90451e-05
2.73706e-05
4.39417e-09
2.90508e-05
2.73838e-05
2.90272e-05
2.73069e-05
-4.71706e-10
7.96372e-06
-6.9792e-10
7.97699e-06
-6.99939e-10
7.97055e-06
-9.32937e-10
7.97148e-06
-4.21922e-10
7.97219e-06
7.9609e-06
1.42284e-10
-1.9144e-06
-6.17069e-06
-4.52306e-10
-1.90974e-06
-6.1674e-06
-3.96831e-10
-1.91039e-06
-6.16791e-06
-8.34344e-10
-1.91246e-06
-6.16482e-06
-1.64542e-09
-1.91201e-06
-6.16608e-06
-1.90643e-06
-6.16508e-06
8.9899e-09
1.20839e-05
-3.88655e-06
-3.85481e-10
1.21199e-05
-3.90683e-06
-3.73281e-09
1.21021e-05
-3.90061e-06
-2.19295e-09
1.21022e-05
-3.90497e-06
-4.56139e-09
1.21077e-05
-3.9065e-06
1.20725e-05
-3.92876e-06
2.22995e-09
4.72878e-06
5.45736e-10
4.74352e-06
-7.72623e-11
4.73763e-06
1.7052e-10
4.73627e-06
9.8895e-10
4.73544e-06
4.72288e-06
4.73446e-10
-2.0694e-05
-3.99331e-05
-2.50841e-10
-2.07725e-05
-3.99041e-05
-4.5317e-10
-2.07438e-05
-3.99275e-05
-6.89363e-10
-2.0729e-05
-3.99121e-05
-1.01125e-09
-2.07498e-05
-3.99525e-05
-2.07331e-05
-3.98948e-05
4.25525e-08
-9.7266e-06
-5.05226e-08
8.29598e-10
-9.73742e-06
-5.38637e-08
-7.5412e-09
-9.74043e-06
-4.94571e-08
-4.50809e-09
-9.73891e-06
-5.1379e-08
-2.30989e-08
-9.73987e-06
-5.08e-08
-9.78624e-06
-5.28207e-08
7.56193e-10
3.54713e-06
8.71013e-10
3.56289e-06
8.13874e-10
3.55699e-06
8.55955e-10
3.55613e-06
1.71517e-09
3.55441e-06
3.53911e-06
-9.8789e-10
-2.75116e-07
-0.000608914
-7.82045e-10
-2.70774e-07
-0.000608881
1.77431e-09
-2.70439e-07
-0.000609079
1.86658e-10
-2.64225e-07
-0.000608863
-9.72643e-10
-2.60489e-07
-0.000609625
-2.56821e-07
-0.000608402
1.2624e-10
-1.506e-07
-1.42149e-07
-5.11467e-12
-1.51533e-07
-1.4204e-07
-1.25697e-11
-1.51736e-07
-1.42623e-07
4.95963e-12
-1.52516e-07
-1.43354e-07
-2.1376e-11
-1.52826e-07
-1.4374e-07
-1.525e-07
-1.44261e-07
1.9261e-11
3.40642e-06
5.4004e-12
3.42054e-06
-7.85051e-12
3.41429e-06
1.11773e-11
3.41237e-06
6.89989e-11
3.41002e-06
3.39528e-06
5.92138e-08
-5.66638e-05
-0.00975431
2.96416e-08
-5.67095e-05
-0.00976052
6.74128e-08
-5.6707e-05
-0.00976005
1.36639e-08
-5.67029e-05
-0.0097575
-3.16333e-08
-5.67113e-05
-0.00976823
-5.66929e-05
-0.00975091
1.85459e-10
-5.66474e-05
-9.36996e-08
1.30261e-10
-5.66932e-05
-9.33151e-08
5.78416e-10
-5.66957e-05
-9.37147e-08
2.81164e-10
-5.66982e-05
-9.33797e-08
-5.7331e-10
-5.67142e-05
-9.30693e-08
-5.6696e-05
-9.49176e-08
5.58312e-10
5.41184e-06
-5.09914e-10
5.40013e-06
-4.87167e-09
5.40636e-06
2.75091e-09
5.39987e-06
1.8503e-08
5.38284e-06
5.42539e-06
-5.74404e-07
-1.24108e-05
-0.117755
-1.92553e-06
-1.23473e-05
-0.117695
-2.92931e-06
-1.23762e-05
-0.117723
-2.36693e-07
-1.23456e-05
-0.11775
4.99847e-06
-1.23139e-05
-0.117822
-1.24922e-05
-0.117673
-1.21358e-11
-1.25035e-05
-2.80974e-11
3.9921e-12
-1.24396e-05
-2.69621e-11
1.11749e-10
-1.2469e-05
-2.77872e-11
1.64328e-12
-1.24378e-05
-2.59021e-11
-2.61727e-10
-1.24058e-05
-2.27596e-11
-1.25863e-05
-3.05796e-11
8.13716e-10
2.3838e-09
3.28737e-10
2.28796e-09
-5.21678e-10
2.35201e-09
2.39324e-11
2.20116e-09
3.04329e-10
1.93992e-09
2.58023e-09
-0.000293791
-0.00028852
-0.425612
0.523335
-0.000295754
-0.000307078
-0.425574
0.523059
-0.000721816
-0.000325396
-0.425342
0.52336
-0.000263958
-0.000235504
-0.425108
0.521639
0.00109149
-0.000191714
-0.425013
0.520271
-0.000345886
-0.425288
0.523167
-5.20298e-08
-5.03175e-06
-0.000294771
1.08161e-05
-2.85078e-08
-4.78235e-06
-0.000314298
1.14228e-05
1.8913e-08
-4.95431e-06
-0.000333218
1.21226e-05
-2.2304e-09
-2.83226e-06
-0.000241818
8.84174e-06
9.79442e-09
-1.73828e-07
-0.000198429
7.12903e-06
-4.53357e-06
-0.000354763
1.29585e-05
-4.67806e-09
5.33701e-25
7.86027e-07
4.50036e-10
2.24437e-25
6.69387e-07
6.15558e-09
1.04193e-24
5.78123e-07
5.83259e-12
3.93901e-25
6.05087e-07
-9.59171e-09
2.8249e-25
3.6761e-09
3.99091e-25
3.95462e-07
-4.06335e-05
-0.000289559
-0.327515
-9.47452e-05
-0.000163482
-0.327618
-0.000220035
-0.000264859
-0.327607
6.94022e-06
-0.000749328
-0.327575
0.00051229
-0.000953744
-0.327592
-8.20109e-05
-0.327721
-6.66966e-07
1.04829e-24
-0.00216738
-6.2215e-07
4.44586e-25
-0.00214213
-4.97347e-07
2.05018e-24
-0.00218225
1.50089e-08
7.80208e-25
-0.00211018
1.04766e-06
5.6196e-25
-0.00208331
7.71179e-25
-0.00209685
8.88306e-28
-1.38159e-25
-1.22133e-27
-5.93949e-26
-1.31033e-26
-2.71204e-25
-1.80333e-27
-9.98694e-26
6.26578e-27
-6.91883e-26
-1.01631e-25
-5.6083e-05
-0.00254465
-0.227226
-0.000118075
-0.00254177
-0.227247
-0.000419122
-0.00237087
-0.227197
-6.93469e-05
-0.0030321
-0.227378
0.000818624
-0.00353415
-0.227604
-0.00265183
-0.227278
-3.92998e-06
2.49203e-24
5.6135e-18
-6.83082e-06
2.38646e-24
7.61325e-18
-1.93668e-05
2.43576e-24
3.88613e-16
-2.75654e-06
2.2178e-24
1.46803e-15
3.91242e-05
4.4712e-24
3.0289e-24
1.35278e-24
2.26958e-24
7.28819e-29
-3.13268e-25
8.66197e-28
-3.02737e-25
3.23594e-27
-3.07667e-25
-1.13553e-27
-2.7681e-25
-2.23254e-26
-5.52881e-25
-1.71587e-25
-5.77086e-05
3.05638e-18
-0.113022
-0.000135351
4.15197e-18
-0.113029
-0.00047384
2.10902e-16
-0.113056
-1.84839e-05
8.05725e-16
-0.112973
0.000887831
1.67435e-24
-0.113052
1.22882e-24
-0.112927
4.25526e-20
9.11365e-24
4.35026e-18
1.98826e-18
1.14465e-23
5.78302e-18
2.59416e-17
1.24038e-23
2.72614e-16
1.32851e-26
1.25748e-23
8.66665e-16
-1.1236e-25
1.20263e-23
2.30613e-26
8.91994e-24
3.33635e-26
5.48857e-27
-1.76595e-24
-5.94287e-29
-2.21052e-24
-1.03585e-27
-2.41546e-24
4.1849e-27
-2.40581e-24
-5.50657e-27
-2.25711e-24
-1.77302e-24
-6.95831e-05
1.7835e-16
0.0264654
-9.49418e-05
2.4176e-16
0.0264874
-0.000392312
1.15419e-14
0.0264769
-6.21463e-06
4.50337e-14
0.0265381
0.000863606
1.60621e-24
0.0265921
1.29925e-24
0.0264236
1.36809e-18
6.53566e-25
-2.10395e-16
6.09618e-17
1.23236e-24
-2.85177e-16
8.13502e-16
8.91485e-25
-1.36763e-14
6.95846e-27
4.8099e-24
-5.295e-14
-7.43325e-26
8.2078e-24
-1.8806e-24
6.06347e-24
-1.5503e-24
1.96658e-29
-2.56892e-25
-3.85372e-30
-4.82673e-25
-5.78617e-28
-3.51576e-25
1.40715e-28
-1.87425e-24
1.25624e-26
-3.14156e-24
-2.43425e-24
-3.62109e-05
-2.35571e-09
-6.12943e-05
-2.26093e-09
-0.00021007
-2.32364e-09
-1.55006e-05
-2.17573e-09
0.000470454
-1.91873e-09
-2.54817e-09
-5.35114e-14
-2.38375e-09
-4.99459e-14
-2.2879e-09
-9.74185e-14
-2.35139e-09
-2.91288e-14
-2.20176e-09
2.0703e-13
-1.94173e-09
-2.57855e-09
4.6369e-14
1.02448e-13
7.19536e-13
1.22893e-13
-1.6876e-12
1.89083e-20
2.97325e-16
-4.489e-15
7.43851e-20
2.96953e-16
-4.4972e-15
1.32782e-19
2.95356e-16
-4.44475e-15
1.82255e-19
6.6534e-16
-4.68494e-15
2.19147e-19
8.18694e-16
-4.97227e-15
2.65585e-16
-3.91975e-15
7.39154e-22
1.98587e-16
-1.25056e-18
1.83042e-21
1.98214e-16
-1.25677e-18
2.65832e-21
1.97563e-16
-1.23346e-18
2.86233e-21
1.86826e-16
-7.03863e-18
2.52205e-21
1.89232e-16
-9.68224e-18
1.7932e-16
-1.08812e-18
-2.84635e-23
-1.16176e-18
-2.7885e-23
-1.16179e-18
-2.17286e-23
-1.15396e-18
-4.15846e-24
-1.19298e-18
1.07596e-23
-1.25633e-18
-1.0292e-18
-1.48996e-18
2.26471e-14
-9.99897e-14
1.25546e-17
2.2716e-14
-1.00906e-13
2.32842e-17
2.24353e-14
-9.90162e-14
4.20476e-17
2.36387e-14
-1.03973e-13