/*--------------------------------*- C++ -*----------------------------------*\
| =========                 |                                                 |
| \\      /  F ield         | OpenFOAM: The Open Source CFD Toolbox           |
|  \\    /   O peration     | Version:  v1612+                                |
|   \\  /    A nd           | Web:      www.OpenFOAM.com                      |
|    \\/     M anipulation  |                                                 |
\*---------------------------------------------------------------------------*/
FoamFile
{
    version     2.0;
    format      ascii;
    class       volScalarField;
    location    "4.6";
    object      p;
}
// * * * * * * * * * * * * * * * * * * * * * * * * * * * * * * * * * * * * * //

dimensions      [1 -1 -2 0 0 0 0];

internalField   nonuniform List<scalar> 
1116
(
2051.72
2051.73
2051.74
2051.73
2051.73
2051.75
2091.26
2091.27
2091.28
2091.27
2091.27
2091.29
2209.34
2209.34
2209.35
2209.34
2209.34
2209.36
2465.76
2465.76
2465.76
2465.76
2465.77
2465.79
3394.69
3394.7
3394.7
3394.7
3394.72
3394.73
5917.32
5917.28
5917.28
5917.29
5917.29
5917.32
10972.1
10972.1
10972.1
10972.1
10972.1
10972
15659.2
15659.2
15659.2
15659.2
15659.2
15659.1
18434.1
18434.3
18434.2
18434.2
18434.2
18434.1
20807.6
20807.7
20807.7
20807.7
20807.7
20807.6
24043.1
24042.8
24042.9
24042.9
24042.9
24043
25102.2
25102.1
25102.2
25102.2
25102.2
25102.3
-6.90946
-6.90931
-6.90924
-6.90903
-6.90873
-6.9087
-0.758704
-0.758708
-0.758626
-0.758294
-0.757835
-0.75759
11.8203
11.8203
11.8205
11.8209
11.8215
11.8219
67.8541
67.8539
67.8542
67.8547
67.8557
67.857
174.017
174.014
174.014
174.013
174.015
174.019
388.766
388.628
388.684
388.695
388.651
388.728
2775.62
2775.79
2775.72
2775.68
2775.71
2775.6
6358.72
6358.65
6358.67
6358.66
6358.62
6358.62
7996.72
7996.6
7996.72
7996.75
7996.71
7996.71
9859.44
9858.6
9859.05
9859.05
9858.82
9859.24
12905.7
12904.6
12905.2
12905.1
12905
12905.5
13889.5
13889.4
13889.5
13889.5
13889.5
13889.7
-0.885901
-0.885843
-0.885732
-0.885513
-0.885235
-0.884971
-0.123715
-0.123524
-0.123358
-0.123149
-0.122939
-0.122954
3.00392
3.00381
3.00392
3.00403
3.00399
3.00384
5.19754
5.1966
5.19694
5.19706
5.19693
5.19718
19.1469
19.1362
19.1415
19.1412
19.1379
19.1426
33.2755
33.2765
33.2772
33.2777
33.2796
33.2812
244.357
244.439
244.4
244.405
244.433
244.413
1884.33
1883.86
1884.07
1884.06
1883.86
1884.06
4265.63
4264.89
4265.28
4265.33
4265.05
4265.52
4866.18
4865.58
4865.93
4866
4865.76
4866.27
4959.38
4960.02
4959.97
4959.89
4960.08
4960
3450.04
3450
3450.07
3450.09
3449.98
3450.41
-20.6231
-20.6229
-20.6229
-20.6229
-20.6228
-20.6229
-18.9505
-18.9501
-18.9502
-18.9502
-18.9501
-18.9505
-13.9175
-13.9171
-13.9172
-13.9171
-13.917
-13.9172
-10.4764
-10.4757
-10.4759
-10.4759
-10.4755
-10.4757
-2.69047
-2.69498
-2.69167
-2.69183
-2.6932
-2.69187
-7.87332
-7.86949
-7.87001
-7.86743
-7.8656
-7.86729
0.0246671
0.00850051
0.00505076
0.0393235
0.0347612
0.0457599
368.632
368.746
368.694
368.798
368.771
368.693
691.393
692.167
691.782
691.895
692.087
691.685
560.55
561.501
561.083
561.068
561.316
560.983
286.272
286.557
286.469
286.426
286.476
286.53
-752.521
-752.384
-752.436
-752.594
-752.801
-752.225
42.3273
42.3252
42.3247
42.3195
42.3177
42.3046
44.9791
44.9741
44.9749
44.9633
44.9842
44.9091
52.3556
52.3562
52.3403
52.3306
52.4162
52.1123
63.5232
63.5616
63.47
63.4412
63.4861
63.0261
66.1638
66.3166
66.1635
66.0708
66.0163
65.5
59.4345
60.051
59.6618
59.6809
59.1143
58.2418
50.7101
50.1536
48.792
50.2681
45.6804
47.0935
654.043
647.232
641.779
627.739
595.149
629.998
1993.5
1992.9
1992.59
1982.67
1977.48
2006.92
1253.53
1252.22
1251.9
1242.46
1230.88
1257.36
558.128
557.495
557.488
555.607
550.625
557.101
551.365
551.124
551.008
548.696
548.377
550.285
28.017
28.0165
28.0169
28.0133
28.0127
28.0025
29.2609
29.261
29.2617
29.2585
29.2768
29.2193
31.696
31.7171
31.6932
31.7341
31.8101
31.5383
29.69
29.818
29.657
29.828
29.8149
29.3727
-17.0797
-16.8815
-17.0773
-16.9135
-16.9953
-16.6662
-139.489
-139.224
-139.002
-139.279
-138.651
-136.687
-166.037
-166.204
-166.17
-166.427
-166.749
-165.83
-48.1933
-48.5045
-48.4853
-47.5636
-47.6141
-49.0022
166.347
164.72
163.692
164.956
157.975
162.072
185.001
183.897
183.38
184.842
173.991
186.978
129.214
130.665
133.7
136.543
127.856
142.203
432.862
432.665
431.659
429.202
424.089
428.476
8.74512
8.74541
8.74573
8.74494
8.74492
8.73912
8.04945
8.05109
8.05147
8.05188
8.05827
8.03567
5.0171
5.02931
5.02122
5.03993
5.07117
4.97962
-6.10781
-6.04554
-6.10169
-6.01398
-5.99526
-6.15983
-42.964
-42.9151
-42.9232
-42.9828
-42.9794
-42.5692
-103.379
-103.326
-103.067
-103.272
-102.986
-102.528
-106.412
-106.133
-105.718
-106.46
-105.713
-105.054
-76.2105
-76.1603
-76.148
-75.4681
-74.5519
-76.6791
-33.5856
-33.9284
-34.2679
-34.4385
-35.3082
-35.4929
31.5329
31.2996
36.7828
20.0537
15.8481
42.4324
103.374
106.103
103.401
105.511
227.589
140.465
434.823
437.994
430.25
420.694
418.913
418.557
-10.9954
-10.995
-10.9947
-10.9947
-10.9947
-10.9966
-12.6303
-12.6291
-12.6287
-12.6278
-12.6262
-12.6322
-16.9397
-16.9351
-16.9358
-16.9298
-16.9213
-16.9424
-27.1046
-27.0877
-27.0961
-27.0686
-27.0535
-27.1005
-49.3917
-49.3752
-49.3745
-49.3744
-49.3628
-49.2696
-80.8454
-80.8821
-80.8089
-80.8155
-80.7615
-80.5885
-94.6034
-94.8708
-94.8675
-94.3085
-94.2461
-94.9641
-74.962
-75.0078
-74.9773
-74.7511
-74.604
-75.0601
-55.3843
-55.4103
-55.3512
-55.4659
-55.4354
-55.5055
-42.5196
-42.1355
-41.5974
-44.5002
-44.9072
-40.4927
-19.0967
-12.4488
-5.37119
-37.6242
-56.7102
5.29849
-1373.46
-1358.89
-1334.74
-941.428
-554.693
-1208.8
-31.4075
-31.4076
-31.4076
-31.4076
-31.4076
-31.4075
-47.0252
-47.0252
-47.0252
-47.0252
-47.0252
-47.0252
-61.5431
-61.5431
-61.543
-61.543
-61.543
-61.543
-31.0138
-31.0137
-31.0137
-31.0137
-31.0137
-31.0138
-46.6138
-46.6137
-46.6137
-46.6137
-46.6137
-46.6137
-61.3992
-61.3992
-61.3992
-61.3992
-61.3992
-61.3992
-28.7331
-28.7325
-28.7326
-28.7325
-28.7325
-28.7327
-45.2855
-45.2851
-45.2851
-45.2852
-45.2852
-45.2853
-61.1737
-61.1736
-61.1737
-61.1736
-61.1736
-61.1736
-30.3383
-30.3361
-30.3367
-30.3367
-30.3362
-30.3375
-47.9175
-47.9171
-47.9171
-47.9171
-47.917
-47.9172
-61.7021
-61.7021
-61.7021
-61.702
-61.702
-61.7019
-39.3456
-39.3561
-39.3515
-39.3503
-39.3535
-39.3479
-61.1177
-61.1217
-61.1205
-61.1195
-61.1206
-61.1175
-65.0057
-65.0058
-65.0058
-65.0054
-65.0054
-65.0048
-44.9407
-44.9275
-44.9318
-44.9311
-44.9283
-44.9352
-58.1899
-58.1856
-58.1866
-58.1853
-58.1846
-58.188
-66.3478
-66.3462
-66.3463
-66.3457
-66.3453
-66.3463
-104.684
-104.687
-104.687
-104.684
-104.683
-104.681
-106.127
-106.135
-106.135
-106.133
-106.134
-106.134
-84.6332
-84.6365
-84.6355
-84.6353
-84.636
-84.6382
-121.624
-121.62
-121.619
-121.619
-121.619
-121.62
-131.315
-131.335
-131.328
-131.326
-131.328
-131.322
-88.9212
-88.9237
-88.9215
-88.9242
-88.9247
-88.9261
-101.167
-101.157
-101.16
-101.159
-101.156
-101.157
-104.934
-104.939
-104.934
-104.937
-104.939
-104.937
-79.4235
-79.4225
-79.4225
-79.4242
-79.4236
-79.4266
-71.6759
-71.6633
-71.6651
-71.6637
-71.6603
-71.6595
-81.1348
-81.141
-81.1367
-81.1371
-81.1379
-81.1297
-75.5005
-75.5
-75.5
-75.5009
-75.4999
-75.5031
-54.3254
-54.3232
-54.3241
-54.3261
-54.3222
-54.327
-64.1531
-64.1527
-64.1527
-64.1528
-64.1522
-64.1505
-74.6685
-74.6668
-74.6681
-74.6686
-74.6688
-74.6689
-65.8302
-65.8474
-65.8374
-65.8931
-65.9007
-65.8098
-50.6691
-50.6684
-50.6668
-50.6657
-50.6673
-50.6593
-76.3676
-76.3672
-76.3679
-76.37
-76.3719
-76.364
1580.74
1580.77
1580.71
1581.29
1581.93
1580.9
-48.6105
-48.5921
-48.5732
-48.6775
-48.7219
-48.4358
-69.6007
-69.5844
-69.5721
-69.5526
-69.5432
-69.5308
1612.19
1612.24
1612.42
1612.5
1612.69
1612.73
-50.4903
-50.4821
-50.4558
-50.5722
-50.6486
-50.3921
-68.8072
-68.8019
-68.8053
-68.7833
-68.7762
-68.7958
1631.8
1631.81
1631.78
1632.75
1634.2
1631.74
-52.4596
-52.4717
-52.4201
-52.3588
-52.3222
-52.3642
-67.7147
-67.7103
-67.7031
-67.692
-67.673
-67.7207
1583.24
1583.34
1583.83
1582.71
1582.33
1584.24
-53.0018
-52.9891
-52.9726
-52.9215
-52.8767
-52.9252
-68.4714
-68.464
-68.4622
-68.452
-68.4305
-68.4704
1385.13
1385.43
1385.57
1385.85
1387.14
1384.5
-49.3897
-49.3903
-49.3854
-49.3811
-49.3657
-49.3648
-69.4445
-69.4404
-69.4409
-69.4334
-69.4254
-69.45
1020.68
1020.57
1020.73
1020.88
1021.7
1020.08
-49.9729
-49.9733
-49.9687
-49.9673
-49.9646
-49.9527
-78.3553
-78.3563
-78.355
-78.3579
-78.3588
-78.3525
-29.0099
-29.0095
-29.0093
-29.0091
-29.0092
-29.0097
-45.4621
-45.4619
-45.4617
-45.4616
-45.4617
-45.4619
-61.0911
-61.0909
-61.0908
-61.0908
-61.0909
-61.091
-30.5488
-30.548
-30.5476
-30.5469
-30.5467
-30.5487
-46.358
-46.3577
-46.3575
-46.3573
-46.3573
-46.3578
-61.376
-61.3759
-61.3758
-61.3758
-61.3759
-61.376
-33.6685
-33.6673
-33.6666
-33.6642
-33.6622
-33.6665
-48.2107
-48.2101
-48.2097
-48.2088
-48.2082
-48.2094
-61.9462
-61.9461
-61.946
-61.9458
-61.9458
-61.9459
-39.997
-39.9926
-39.9936
-39.9825
-39.9782
-39.9934
-51.4071
-51.4056
-51.4051
-51.4019
-51.4007
-51.4046
-62.8853
-62.885
-62.8849
-62.8844
-62.8841
-62.8845
-50.1214
-50.1143
-50.1174
-50.0951
-50.0903
-50.0948
-55.8778
-55.8743
-55.8751
-55.8672
-55.8645
-55.8705
-64.0695
-64.0689
-64.0689
-64.0681
-64.0676
-64.0683
-62.6764
-62.6763
-62.6635
-62.6376
-62.6197
-62.6179
-61.4206
-61.4171
-61.4174
-61.4125
-61.4106
-61.4079
-65.4983
-65.4977
-65.4981
-65.4983
-65.4988
-65.4976
-64.0539
-64.0846
-64.0707
-63.9728
-63.9159
-64.0712
-64.6415
-64.643
-64.6434
-64.6433
-64.6412
-64.6392
-66.2396
-66.2402
-66.2396
-66.2405
-66.2405
-66.2413
-63.4376
-63.4284
-63.4091
-63.3477
-63.3001
-63.4315
-64.8135
-64.8126
-64.8063
-64.7989
-64.7955
-64.8
-66.5833
-66.5822
-66.5801
-66.579
-66.5769
-66.5779
-56.3829
-56.4052
-56.3799
-56.3511
-56.3161
-56.4704
-62.696
-62.7
-62.6779
-62.6804
-62.6687
-62.6732
-66.4481
-66.4465
-66.4387
-66.4392
-66.4256
-66.4405
-55.1404
-55.101
-55.1129
-55.1107
-55.0509
-54.9372
-63.3199
-63.3009
-63.2586
-63.26
-63.2234
-63.1384
-67.1835
-67.1754
-67.1592
-67.1421
-67.1056
-67.1539
-55.2362
-55.0373
-55.1851
-53.3437
-52.4896
-55.0126
-59.3484
-59.2875
-59.1889
-58.9248
-58.74
-58.9441
-69.3107
-69.2977
-69.2661
-69.1937
-69.1385
-69.2205
900.974
900.499
895.837
913.514
919.686
893.634
-54.3317
-54.2304
-54.2352
-53.8774
-53.6943
-53.826
-77.2397
-77.2156
-77.2111
-76.9202
-76.8851
-77.133
)
;

boundaryField
{
    seabed_topleft_surface
    {
        type            calculated;
        value           nonuniform List<scalar> 
72
(
4086.84
4086.86
4086.87
4086.86
4086.86
4086.89
4157.93
4157.94
4157.95
4157.94
4157.94
4157.98
4391.98
4391.99
4392
4391.98
4391.99
4392.03
4921.51
4921.5
4921.51
4921.51
4921.52
4921.56
6473.66
6473.66
6473.67
6473.68
6473.7
6473.73
9960.55
9960.5
9960.51
9960.52
9960.51
9960.57
15765.6
15765.6
15765.6
15765.6
15765.6
15765.6
20452.8
20452.8
20452.8
20452.8
20452.7
20452.7
23227.6
23227.8
23227.7
23227.7
23227.8
23227.6
25601.1
25601.2
25601.1
25601.1
25601.1
25601.1
28836.5
28836.2
28836.3
28836.3
28836.3
28836.4
29895.5
29895.5
29895.5
29895.6
29895.6
29895.7
)
;
    }
    seabed_topright_surface
    {
        type            calculated;
        value           nonuniform List<scalar> 
72
(
47.2491
47.2471
47.2466
47.2414
47.2395
47.2265
49.9009
49.896
49.8968
49.8851
49.9061
49.831
57.2776
57.2781
57.2623
57.2526
57.3382
57.0343
68.4502
68.4885
68.3968
68.3682
68.4133
67.9523
71.2045
71.3562
71.2021
71.113
71.0598
70.5262
80.8943
81.1833
80.672
81.1754
79.6664
77.1681
162.253
161.362
159.657
161.593
155.522
157.09
793.38
786.474
782.605
766.336
736.767
775.307
2134.83
2134.79
2135.62
2124.46
2122.79
2155.49
1393.64
1391.59
1393.44
1380.39
1366.46
1402.71
591.127
590.335
589.598
591.512
587.639
589.169
556.85
556.532
556.335
553.948
553.519
555.525
)
;
    }
    breakwater_top_surface
    {
        type            calculated;
        value           nonuniform List<scalar> 
36
(
3230.48
3230.53
3230.52
3231.07
3231.89
3231.14
3264.79
3264.86
3265.11
3265.4
3265.77
3265.8
3284.35
3284.41
3284.41
3285.44
3287.11
3284.82
3210.07
3210.15
3211.33
3208.59
3207.26
3212.56
2817.19
2817.7
2818.12
2818.48
2820.67
2816.33
2135.1
2134.86
2135.26
2135.49
2137
2134.09
)
;
    }
    breakwater_left_surface
    {
        type            calculated;
        value           nonuniform List<scalar> 
24
(
25118.6
25118.5
25118.6
25118.6
25118.6
25118.7
13905.6
13905.4
13905.5
13905.6
13905.6
13905.8
3461.78
3461.73
3461.8
3461.83
3461.71
3462.15
-751.604
-751.469
-751.52
-751.679
-751.886
-751.308
)
;
    }
    breakwater_right_surface
    {
        type            calculated;
        value           nonuniform List<scalar> 
24
(
551.384
551.142
551.026
548.714
548.394
550.303
432.88
432.683
431.677
429.219
424.106
428.493
434.942
438.123
430.5
420.714
418.929
418.912
-1370.02
-1355.45
-1331.3
-937.989
-551.254
-1205.36
)
;
    }
    water_front_surface
    {
        type            calculated;
        value           nonuniform List<scalar> 
186
(
2051.72
2091.26
2209.34
2465.76
3394.69
5917.32
10972.1
15659.2
18434.1
20807.6
24043.1
25102.2
-6.90946
-0.758704
11.8203
67.8541
174.017
388.766
2775.62
6358.72
7996.72
9859.44
12905.7
13889.5
-0.885901
-0.123715
3.00392
5.19754
19.1469
33.2755
244.357
1884.33
4265.63
4866.18
4959.38
3450.04
-20.6231
-18.9505
-13.9175
-10.4764
-2.69047
-7.87332
0.0246671
368.632
691.393
560.55
286.272
-752.521
42.3273
44.9791
52.3556
63.5232
66.1638
59.4345
50.7101
654.043
1993.5
1253.53
558.128
551.365
28.017
29.2609
31.696
29.69
-17.0797
-139.489
-166.037
-48.1933
166.347
185.001
129.214
432.862
8.74512
8.04945
5.0171
-6.10781
-42.964
-103.379
-106.412
-76.2105
-33.5856
31.5329
103.374
434.823
-10.9954
-12.6303
-16.9397
-27.1046
-49.3917
-80.8454
-94.6034
-74.962
-55.3843
-42.5196
-19.0967
-1373.46
-31.4075
-47.0252
-61.5431
-31.0138
-46.6138
-61.3992
-28.7331
-45.2855
-61.1737
-30.3383
-47.9175
-61.7021
-39.3456
-61.1177
-65.0057
-44.9407
-58.1899
-66.3478
-104.684
-106.127
-84.6332
-121.624
-131.315
-88.9212
-101.167
-104.934
-79.4235
-71.6759
-81.1348
-75.5005
-54.3254
-64.1531
-74.6685
-65.8302
-50.6691
-76.3676
1580.74
-48.6105
-69.6007
1612.19
-50.4903
-68.8072
1631.8
-52.4596
-67.7147
1583.24
-53.0018
-68.4714
1385.13
-49.3897
-69.4445
1020.68
-49.9729
-78.3553
-29.0099
-45.4621
-61.0911
-30.5488
-46.358
-61.376
-33.6685
-48.2107
-61.9462
-39.997
-51.4071
-62.8853
-50.1214
-55.8778
-64.0695
-62.6764
-61.4206
-65.4983
-64.0539
-64.6415
-66.2396
-63.4376
-64.8135
-66.5833
-56.3829
-62.696
-66.4481
-55.1404
-63.3199
-67.1835
-55.2362
-59.3484
-69.3107
900.974
-54.3317
-77.2397
)
;
    }
    water_back_surface
    {
        type            calculated;
        value           nonuniform List<scalar> 
186
(
2051.75
2091.29
2209.36
2465.79
3394.73
5917.32
10972
15659.1
18434.1
20807.6
24043
25102.3
-6.9087
-0.75759
11.8219
67.857
174.019
388.728
2775.6
6358.62
7996.71
9859.24
12905.5
13889.7
-0.884971
-0.122954
3.00384
5.19718
19.1426
33.2812
244.413
1884.06
4265.52
4866.27
4960
3450.41
-20.6229
-18.9505
-13.9172
-10.4757
-2.69187
-7.86729
0.0457599
368.693
691.685
560.983
286.53
-752.225
42.3046
44.9091
52.1123
63.0261
65.5
58.2418
47.0935
629.998
2006.92
1257.36
557.101
550.285
28.0025
29.2193
31.5383
29.3727
-16.6662
-136.687
-165.83
-49.0022
162.072
186.978
142.203
428.476
8.73912
8.03567
4.97962
-6.15983
-42.5692
-102.528
-105.054
-76.6791
-35.4929
42.4324
140.465
418.557
-10.9966
-12.6322
-16.9424
-27.1005
-49.2696
-80.5885
-94.9641
-75.0601
-55.5055
-40.4927
5.29849
-1208.8
-31.4075
-47.0252
-61.543
-31.0138
-46.6137
-61.3992
-28.7327
-45.2853
-61.1736
-30.3375
-47.9172
-61.7019
-39.3479
-61.1175
-65.0048
-44.9352
-58.188
-66.3463
-104.681
-106.134
-84.6382
-121.62
-131.322
-88.9261
-101.157
-104.937
-79.4266
-71.6595
-81.1297
-75.5031
-54.327
-64.1505
-74.6689
-65.8098
-50.6593
-76.364
1580.9
-48.4358
-69.5308
1612.73
-50.3921
-68.7958
1631.74
-52.3642
-67.7207
1584.24
-52.9252
-68.4704
1384.5
-49.3648
-69.45
1020.08
-49.9527
-78.3525
-29.0097
-45.4619
-61.091
-30.5487
-46.3578
-61.376
-33.6665
-48.2094
-61.9459
-39.9934
-51.4046
-62.8845
-50.0948
-55.8705
-64.0683
-62.6179
-61.4079
-65.4976
-64.0712
-64.6392
-66.2413
-63.4315
-64.8
-66.5779
-56.4704
-62.6732
-66.4405
-54.9372
-63.1384
-67.1539
-55.0126
-58.9441
-69.2205
893.634
-53.826
-77.133
)
;
    }
    water_left_surface
    {
        type            calculated;
        value           nonuniform List<scalar> 
42
(
2058.69
2058.7
2058.71
2058.7
2058.7
2058.72
-6.89294
-6.89279
-6.89272
-6.89251
-6.89222
-6.89218
-0.86971
-0.869652
-0.869541
-0.869323
-0.869045
-0.86878
-20.6072
-20.607
-20.607
-20.607
-20.6069
-20.607
-31.4075
-31.4076
-31.4076
-31.4076
-31.4076
-31.4075
-47.0252
-47.0252
-47.0252
-47.0252
-47.0252
-47.0252
-61.5431
-61.5431
-61.543
-61.543
-61.543
-61.543
)
;
    }
    water_right_surface
    {
        type            calculated;
        value           nonuniform List<scalar> 
42
(
42.3441
42.3421
42.3416
42.3364
42.3345
42.3215
28.0335
28.033
28.0334
28.0298
28.0292
28.019
8.7613
8.7616
8.76192
8.76113
8.76111
8.75531
-10.9795
-10.9791
-10.9789
-10.9788
-10.9789
-10.9807
-29.0099
-29.0095
-29.0093
-29.0091
-29.0092
-29.0097
-45.4621
-45.4619
-45.4617
-45.4616
-45.4617
-45.4619
-61.0911
-61.0909
-61.0908
-61.0908
-61.0909
-61.091
)
;
    }
    water_top_surface
    {
        type            calculated;
        value           nonuniform List<scalar> 
180
(
-69.5641
-69.5642
-69.5641
-69.5641
-69.5642
-69.5641
-69.3693
-69.3695
-69.3695
-69.3695
-69.3695
-69.3693
-68.9135
-68.9136
-68.9136
-68.9136
-68.9135
-68.9133
-68.6703
-68.6703
-68.6703
-68.6703
-68.6703
-68.6703
-68.67
-68.67
-68.67
-68.67
-68.67
-68.67
-68.6703
-68.6703
-68.6703
-68.6703
-68.6703
-68.6703
-68.73
-68.73
-68.73
-68.73
-68.73
-68.73
-68.9586
-68.9593
-68.959
-68.959
-68.959
-68.9585
-69.9675
-69.9603
-69.9635
-69.964
-69.9631
-69.9675
-76.3482
-76.3383
-76.3429
-76.3455
-76.3449
-76.3508
-76.3951
-76.393
-76.3942
-76.3981
-76.4026
-76.3898
-72.8987
-72.9077
-72.9034
-72.9059
-72.916
-72.8918
-71.4953
-71.5478
-71.5337
-71.5092
-71.6021
-71.5035
-70.2791
-70.2697
-70.2597
-70.2954
-70.3224
-70.2211
-71.3849
-71.3939
-71.3737
-71.4685
-71.6033
-71.2336
-75.2866
-75.3248
-75.2379
-75.4466
-75.6869
-75.009
-75.833
-75.8691
-75.8082
-75.9236
-76.102
-75.642
-73.4974
-73.5139
-73.4973
-73.525
-73.5707
-73.4464
-68.67
-68.67
-68.67
-68.67
-68.67
-68.67
-68.67
-68.67
-68.67
-68.67
-68.67
-68.67
-68.67
-68.67
-68.67
-68.67
-68.67
-68.67
-68.67
-68.67
-68.67
-68.67
-68.67
-68.67
-68.67
-68.67
-68.67
-68.67
-68.67
-68.67
-68.67
-68.67
-68.67
-68.67
-68.67
-68.67
-68.67
-68.67
-68.67
-68.67
-68.67
-68.67
-69.0559
-69.0545
-69.0552
-69.0544
-69.054
-69.0532
-68.9566
-68.9569
-68.9583
-68.9522
-68.9462
-68.9631
-74.6056
-74.6161
-74.6017
-74.5902
-74.5677
-74.5864
-75.3883
-75.4281
-75.4142
-75.3418
-75.3681
-75.3894
-70.4818
-70.4541
-70.4961
-70.3295
-70.0058
-70.5365
)
;
    }
}


// ************************************************************************* //
