/*--------------------------------*- C++ -*----------------------------------*\
| =========                 |                                                 |
| \\      /  F ield         | OpenFOAM: The Open Source CFD Toolbox           |
|  \\    /   O peration     | Version:  v1612+                                |
|   \\  /    A nd           | Web:      www.OpenFOAM.com                      |
|    \\/     M anipulation  |                                                 |
\*---------------------------------------------------------------------------*/
FoamFile
{
    version     2.0;
    format      ascii;
    class       volScalarField;
    location    "4.6";
    object      p_rgh;
}
// * * * * * * * * * * * * * * * * * * * * * * * * * * * * * * * * * * * * * //

dimensions      [1 -1 -2 0 0 0 0];

internalField   nonuniform List<scalar> 
1116
(
4086.84
4086.86
4086.87
4086.86
4086.86
4086.89
4157.93
4157.94
4157.95
4157.94
4157.94
4157.98
4391.98
4391.99
4392
4391.98
4391.99
4392.03
4921.51
4921.5
4921.51
4921.51
4921.52
4921.56
6473.66
6473.66
6473.67
6473.68
6473.7
6473.73
9960.55
9960.5
9960.51
9960.52
9960.51
9960.57
15765.6
15765.6
15765.6
15765.6
15765.6
15765.6
20452.8
20452.8
20452.8
20452.8
20452.7
20452.7
23227.6
23227.8
23227.7
23227.7
23227.8
23227.6
25601.1
25601.2
25601.1
25601.1
25601.1
25601.1
28836.5
28836.2
28836.3
28836.3
28836.3
28836.4
29895.5
29895.5
29895.5
29895.6
29895.6
29895.7
7.82229
7.82244
7.82251
7.82272
7.82301
7.82305
13.973
13.973
13.9731
13.9734
13.9738
13.9741
26.552
26.552
26.5521
26.5525
26.5531
26.5536
82.5858
82.5855
82.5859
82.5864
82.5873
82.5886
271.739
271.736
271.735
271.739
271.74
271.742
1471.57
1471.25
1471.37
1471.39
1471.29
1471.45
9270.22
9270.51
9270.26
9270.18
9270.25
9270.09
19462
19462
19461.9
19461.9
19461.9
19461.9
22344.3
22344.2
22344.3
22344.3
22344.3
22344.3
24206.7
24205.9
24206.3
24206.3
24206.1
24206.5
27253.6
27252.4
27253
27253
27252.8
27253.3
28236.4
28236.3
28236.4
28236.4
28236.4
28236.6
23.6588
23.6589
23.659
23.6592
23.6595
23.6597
24.4274
24.4276
24.4278
24.428
24.4282
24.4282
27.546
27.5459
27.546
27.5461
27.5461
27.546
29.739
29.738
29.7384
29.7385
29.7384
29.7386
43.6883
43.6776
43.6829
43.6826
43.6793
43.684
61.458
61.459
61.4596
61.4603
61.4622
61.4637
1075.84
1075.88
1075.8
1075.75
1075.82
1075.71
10909.9
10912.6
10911.2
10910.9
10911.8
10909.9
19793.8
19798.5
19796.3
19796.1
19797.4
19794.8
22324.7
22330
22327.7
22327.4
22328.8
22326.6
22367.5
22374.4
22371.8
22371
22372.5
22371.2
21237.4
21235
21236.6
21237
21235.5
21239.3
13.7301
13.7303
13.7303
13.7303
13.7304
13.7303
15.4169
15.4172
15.4172
15.4172
15.4172
15.4169
20.4372
20.4375
20.4374
20.4375
20.4376
20.4374
23.8748
23.8755
23.8753
23.8753
23.8757
23.8754
31.6643
31.6598
31.6631
31.663
31.6616
31.6629
26.7935
26.7967
26.7965
26.7991
26.8007
26.7993
259.448
258.782
259.106
259.268
258.958
259.252
3745.35
3746.67
3746.05
3746.86
3746.75
3745.92
6115.92
6123.11
6119.64
6120.4
6122.18
6118.49
4736.55
4746.18
4741.86
4741.59
4744.2
4740.35
2089.29
2092.79
2091.58
2090.92
2091.41
2092.04
1230.27
1228.22
1229.6
1229.45
1228.23
1231.77
47.2491
47.2471
47.2466
47.2414
47.2395
47.2265
49.9009
49.896
49.8968
49.8851
49.9061
49.831
57.2776
57.2781
57.2623
57.2526
57.3382
57.0343
68.4502
68.4885
68.3968
68.3682
68.4133
67.9523
71.2045
71.3562
71.2021
71.113
71.0598
70.5262
80.8943
81.1833
80.672
81.1754
79.6664
77.1681
162.253
161.362
159.657
161.593
155.522
157.09
793.38
786.474
782.605
766.336
736.767
775.307
2134.83
2134.79
2135.62
2124.46
2122.79
2155.49
1393.64
1391.59
1393.44
1380.39
1366.46
1402.71
591.127
590.335
589.598
591.512
587.639
589.169
556.85
556.532
556.335
553.948
553.519
555.525
42.7485
42.748
42.7484
42.7448
42.7442
42.734
43.9924
43.9925
43.9932
43.99
44.0083
43.9508
46.4276
46.4487
46.4248
46.4657
46.5417
46.2699
44.4441
44.5715
44.4104
44.5839
44.5753
44.1207
-0.262678
-0.067948
-0.264027
-0.0778914
-0.132051
0.0345718
-120.05
-119.799
-119.57
-119.885
-119.409
-117.38
-151.301
-151.467
-151.433
-151.691
-152.014
-151.093
1.78858
0.184088
-0.85499
-0.558379
-11.4693
-4.81984
577.417
573.49
586.704
559.089
538.751
603.534
819.043
824.199
841.815
838.738
850.254
882.484
585.877
587.227
651.853
434.198
335.103
709.902
449.048
448.61
447.379
444.594
439.254
443.868
33.2863
33.2866
33.2869
33.2861
33.2861
33.2803
32.5906
32.5923
32.5927
32.5931
32.5995
32.5769
29.5583
29.5705
29.5624
29.5811
29.6124
29.5208
18.4417
18.504
18.4478
18.5357
18.5553
18.3887
-18.1557
-18.1066
-18.1122
-18.178
-18.1729
-17.7621
-78.8311
-78.7781
-78.5187
-78.7241
-78.4382
-77.9794
-81.8707
-81.5915
-81.1766
-81.9186
-81.1716
-80.5126
-51.6693
-51.6191
-51.6068
-50.9269
-50.0107
-52.1379
-8.5447
-8.8607
-9.23124
-9.34766
-10.2833
-10.4462
1083.03
1081.77
1130.96
981.312
830.657
1201.83
2900.49
2913.61
2909.41
2915.02
2872.15
2965.7
614.837
634.775
809.171
451.942
444.176
956.767
23.3555
23.3559
23.3561
23.3562
23.3561
23.3543
21.7205
21.7218
21.7222
21.7231
21.7247
21.7187
17.4112
17.4158
17.4151
17.4211
17.4295
17.4084
7.24624
7.26319
7.25477
7.2823
7.29735
7.25037
-15.0401
-15.0236
-15.0229
-15.0228
-15.0112
-14.9181
-46.4942
-46.5309
-46.4577
-46.4643
-46.4103
-46.2373
-60.2518
-60.5192
-60.516
-59.9569
-59.8945
-60.6126
-40.6111
-40.657
-40.6264
-40.4002
-40.2531
-40.7093
-21.0334
-21.0594
-21.0004
-21.115
-21.0845
-21.1546
-7.47613
-7.05525
-6.56166
-9.38606
-9.69281
-5.444
3951.9
3973.5
3979.3
3955.89
3866.85
4015.73
6063.62
6080.63
6106.99
6500.3
6886.57
6227.43
12.7376
12.7375
12.7374
12.7374
12.7375
12.7376
6.92983
6.92978
6.92977
6.92978
6.92981
6.92986
2.22194
2.22194
2.22197
2.22199
2.22198
2.222
13.1407
13.1408
13.1408
13.1408
13.1408
13.1407
7.34123
7.3413
7.34131
7.3413
7.34128
7.34128
2.36576
2.36578
2.36579
2.36579
2.36578
2.36581
15.4121
15.4126
15.4126
15.4126
15.4127
15.4124
8.66951
8.66987
8.66986
8.66983
8.6698
8.66974
2.59131
2.59136
2.59134
2.59136
2.59136
2.59139
13.8068
13.809
13.8084
13.8084
13.8089
13.8076
6.03747
6.03789
6.03787
6.03793
6.03797
6.03781
2.0629
2.06294
2.06289
2.06297
2.06298
2.06306
4.79992
4.78937
4.79396
4.79521
4.79201
4.79762
-7.16263
-7.16669
-7.16541
-7.1644
-7.16549
-7.16242
-1.24065
-1.24082
-1.24081
-1.24036
-1.24037
-1.23982
-0.765699
-0.7523
-0.756707
-0.756054
-0.753194
-0.760235
-4.2318
-4.2275
-4.22849
-4.22719
-4.22652
-4.22994
-2.58256
-2.58097
-2.58106
-2.5804
-2.58003
-2.58107
-60.4868
-60.4893
-60.4894
-60.4867
-60.4851
-60.4833
-51.9095
-51.9178
-51.9173
-51.9153
-51.9161
-51.9169
-20.8125
-20.8158
-20.8147
-20.8146
-20.8153
-20.8175
-77.4162
-77.4123
-77.4116
-77.4115
-77.4114
-77.4124
-77.0476
-77.0675
-77.0605
-77.0581
-77.0609
-77.0549
-24.8882
-24.89
-24.8881
-24.8908
-24.8913
-24.8932
-56.9897
-56.9791
-56.9819
-56.981
-56.9784
-56.9788
-50.3986
-50.4028
-50.3987
-50.4011
-50.403
-50.4008
-15.4977
-15.4958
-15.4961
-15.498
-15.4974
-15.5011
-27.5283
-27.5158
-27.5175
-27.5162
-27.5127
-27.5119
-27.1769
-27.1831
-27.1788
-27.1793
-27.18
-27.1719
-11.7354
-11.7349
-11.7349
-11.7358
-11.7348
-11.738
-10.1635
-10.1613
-10.1622
-10.1642
-10.1603
-10.1651
-10.1949
-10.1945
-10.1945
-10.1946
-10.194
-10.1923
-9.98884
-9.98697
-9.98826
-9.98868
-9.98887
-9.98896
75.1374
74.9116
74.9602
74.9306
75.2249
74.712
3.28592
3.2866
3.28818
3.28933
3.28767
3.29566
-12.3714
-12.3723
-12.3724
-12.3751
-12.3778
-12.3661
16428.5
16428.6
16429
16429.3
16431.5
16433.1
5.35117
5.36953
5.38861
5.28526
5.23339
5.52672
-5.75312
-5.75712
-5.74446
-5.76999
-5.778
-5.72552
16485.6
16485.9
16486.6
16488.6
16490.4
16490.4
15.8381
16.9555
17.5937
12.762
10.4711
18.8833
-5.04219
-5.03687
-5.04028
-5.01825
-5.01122
-5.03078
16504.8
16505.2
16505.4
16506.9
16510.3
16509.4
99.1301
98.0645
99.7906
96.23
94.3818
95.608
-3.94965
-3.94529
-3.93806
-3.92701
-3.90801
-3.9557
16224.7
16224.7
16231.3
16215.6
16206.7
16239.1
0.953169
0.965913
0.982434
1.03352
1.07832
1.0298
-4.70637
-4.69898
-4.69716
-4.68696
-4.66554
-4.70541
14273.6
14275.9
14278.6
14279.5
14288.9
14270.9
4.56532
4.56471
4.56957
4.57386
4.58934
4.59016
-5.67946
-5.67544
-5.67586
-5.66838
-5.66036
-5.68504
11050.4
11049.2
11051.5
11052.4
11059.4
11046.2
3.98213
3.98167
3.98632
3.98768
3.99037
4.00231
-14.5903
-14.5913
-14.59
-14.5929
-14.5938
-14.5875
15.1351
15.1355
15.1357
15.1359
15.1358
15.1353
8.49286
8.49312
8.49332
8.49339
8.4933
8.49306
2.6739
2.67408
2.67418
2.67419
2.67411
2.67397
13.5962
13.597
13.5974
13.5981
13.5983
13.5963
7.59701
7.5973
7.59754
7.59772
7.59769
7.59722
2.38899
2.38913
2.38919
2.38921
2.38914
2.38897
10.4765
10.4777
10.4784
10.4808
10.4828
10.4785
5.74432
5.74488
5.74533
5.74622
5.74675
5.74561
1.81875
1.8189
1.81899
1.81915
1.81925
1.81908
4.14803
4.15235
4.1514
4.16254
4.16679
4.15159
2.54793
2.54936
2.54985
2.55306
2.55432
2.55039
0.879661
0.879992
0.880088
0.880583
0.880869
0.880462
-5.97639
-5.96929
-5.97237
-5.95011
-5.94531
-5.94975
-1.92277
-1.91932
-1.92009
-1.91216
-1.9095
-1.91554
-0.304549
-0.303874
-0.303915
-0.303116
-0.302587
-0.303289
-18.5314
-18.5313
-18.5185
-18.4926
-18.4747
-18.4729
-7.46563
-7.46214
-7.46244
-7.45749
-7.4556
-7.45288
-1.73333
-1.73268
-1.73312
-1.73334
-1.73382
-1.73261
-19.9088
-19.9395
-19.9257
-19.8278
-19.7709
-19.9261
-10.6865
-10.688
-10.6884
-10.6883
-10.6862
-10.6842
-2.47462
-2.47521
-2.47462
-2.47547
-2.47545
-2.47627
-19.2926
-19.2834
-19.2641
-19.2027
-19.1551
-19.2865
-10.8585
-10.8576
-10.8513
-10.8439
-10.8405
-10.845
-2.81832
-2.81719
-2.8151
-2.814
-2.81189
-2.81286
-12.2379
-12.2603
-12.2349
-12.2061
-12.1711
-12.3254
-8.74103
-8.74501
-8.72288
-8.72537
-8.71374
-8.71817
-2.68313
-2.68149
-2.67369
-2.6742
-2.66063
-2.67553
-11.0132
-10.975
-10.9858
-10.9849
-10.9252
-10.811
-9.36463
-9.34584
-9.3036
-9.30471
-9.26806
-9.18316
-3.39963
-3.39348
-3.37825
-3.35809
-3.32164
-3.36992
-11.0922
-10.8944
-11.0446
-9.20009
-8.34595
-10.8729
-5.39335
-5.33241
-5.23381
-4.96976
-4.78475
-4.98856
-5.54573
-5.53271
-5.50058
-5.42864
-5.36594
-5.45121
10028.6
10020.5
9975.84
10108.1
10147
9947.21
-0.376587
-0.275287
-0.280063
0.0776903
0.261014
0.129626
-13.368
-13.3634
-13.372
-12.8947
-12.5442
-13.3021
)
;

boundaryField
{
    seabed_topleft_surface
    {
        type            fixedFluxPressure;
        gradient        uniform 0;
        value           nonuniform List<scalar> 
72
(
4086.84
4086.86
4086.87
4086.86
4086.86
4086.89
4157.93
4157.94
4157.95
4157.94
4157.94
4157.98
4391.98
4391.99
4392
4391.98
4391.99
4392.03
4921.51
4921.5
4921.51
4921.51
4921.52
4921.56
6473.66
6473.66
6473.67
6473.68
6473.7
6473.73
9960.55
9960.5
9960.51
9960.52
9960.51
9960.57
15765.6
15765.6
15765.6
15765.6
15765.6
15765.6
20452.8
20452.8
20452.8
20452.8
20452.7
20452.7
23227.6
23227.8
23227.7
23227.7
23227.8
23227.6
25601.1
25601.2
25601.1
25601.1
25601.1
25601.1
28836.5
28836.2
28836.3
28836.3
28836.3
28836.4
29895.5
29895.5
29895.5
29895.6
29895.6
29895.7
)
;
    }
    seabed_topright_surface
    {
        type            fixedFluxPressure;
        gradient        uniform 0;
        value           nonuniform List<scalar> 
72
(
47.2491
47.2471
47.2466
47.2414
47.2395
47.2265
49.9009
49.896
49.8968
49.8851
49.9061
49.831
57.2776
57.2781
57.2623
57.2526
57.3382
57.0343
68.4502
68.4885
68.3968
68.3682
68.4133
67.9523
71.2045
71.3562
71.2021
71.113
71.0598
70.5262
80.8943
81.1833
80.672
81.1754
79.6664
77.1681
162.253
161.362
159.657
161.593
155.522
157.09
793.38
786.474
782.605
766.336
736.767
775.307
2134.83
2134.79
2135.62
2124.46
2122.79
2155.49
1393.64
1391.59
1393.44
1380.39
1366.46
1402.71
591.127
590.335
589.598
591.512
587.639
589.169
556.85
556.532
556.335
553.948
553.519
555.525
)
;
    }
    breakwater_top_surface
    {
        type            fixedFluxPressure;
        gradient        uniform 0;
        value           nonuniform List<scalar> 
36
(
16428.5
16428.6
16429
16429.3
16431.5
16433.1
16485.6
16485.9
16486.6
16488.6
16490.4
16490.4
16504.8
16505.2
16505.4
16506.9
16510.3
16509.4
16224.7
16224.7
16231.3
16215.6
16206.7
16239.1
14273.6
14275.9
14278.6
14279.5
14288.9
14270.9
11050.4
11049.2
11051.5
11052.4
11059.4
11046.2
)
;
    }
    breakwater_left_surface
    {
        type            fixedFluxPressure;
        gradient        uniform 0;
        value           nonuniform List<scalar> 
24
(
29895.5
29895.5
29895.5
29895.6
29895.6
29895.7
28236.4
28236.3
28236.4
28236.4
28236.4
28236.6
21237.4
21235
21236.6
21237
21235.5
21239.3
1230.27
1228.22
1229.6
1229.45
1228.23
1231.77
)
;
    }
    breakwater_right_surface
    {
        type            fixedFluxPressure;
        gradient        uniform 0;
        value           nonuniform List<scalar> 
24
(
556.85
556.532
556.335
553.948
553.519
555.525
449.048
448.61
447.379
444.594
439.254
443.868
614.837
634.775
809.171
451.942
444.176
956.767
6063.62
6080.63
6106.99
6500.3
6886.57
6227.43
)
;
    }
    water_front_surface
    {
        type            fixedFluxPressure;
        gradient        uniform 0;
        value           nonuniform List<scalar> 
186
(
4086.84
4157.93
4391.98
4921.51
6473.66
9960.55
15765.6
20452.8
23227.6
25601.1
28836.5
29895.5
7.82229
13.973
26.552
82.5858
271.739
1471.57
9270.22
19462
22344.3
24206.7
27253.6
28236.4
23.6588
24.4274
27.546
29.739
43.6883
61.458
1075.84
10909.9
19793.8
22324.7
22367.5
21237.4
13.7301
15.4169
20.4372
23.8748
31.6643
26.7935
259.448
3745.35
6115.92
4736.55
2089.29
1230.27
47.2491
49.9009
57.2776
68.4502
71.2045
80.8943
162.253
793.38
2134.83
1393.64
591.127
556.85
42.7485
43.9924
46.4276
44.4441
-0.262678
-120.05
-151.301
1.78858
577.417
819.043
585.877
449.048
33.2863
32.5906
29.5583
18.4417
-18.1557
-78.8311
-81.8707
-51.6693
-8.5447
1083.03
2900.49
614.837
23.3555
21.7205
17.4112
7.24624
-15.0401
-46.4942
-60.2518
-40.6111
-21.0334
-7.47613
3951.9
6063.62
12.7376
6.92983
2.22194
13.1407
7.34123
2.36576
15.4121
8.66951
2.59131
13.8068
6.03747
2.0629
4.79992
-7.16263
-1.24065
-0.765699
-4.2318
-2.58256
-60.4868
-51.9095
-20.8125
-77.4162
-77.0476
-24.8882
-56.9897
-50.3986
-15.4977
-27.5283
-27.1769
-11.7354
-10.1635
-10.1949
-9.98884
75.1374
3.28592
-12.3714
16428.5
5.35117
-5.75312
16485.6
15.8381
-5.04219
16504.8
99.1301
-3.94965
16224.7
0.953169
-4.70637
14273.6
4.56532
-5.67946
11050.4
3.98213
-14.5903
15.1351
8.49286
2.6739
13.5962
7.59701
2.38899
10.4765
5.74432
1.81875
4.14803
2.54793
0.879661
-5.97639
-1.92277
-0.304549
-18.5314
-7.46563
-1.73333
-19.9088
-10.6865
-2.47462
-19.2926
-10.8585
-2.81832
-12.2379
-8.74103
-2.68313
-11.0132
-9.36463
-3.39963
-11.0922
-5.39335
-5.54573
10028.6
-0.376587
-13.368
)
;
    }
    water_back_surface
    {
        type            fixedFluxPressure;
        gradient        uniform 0;
        value           nonuniform List<scalar> 
186
(
4086.89
4157.98
4392.03
4921.56
6473.73
9960.57
15765.6
20452.7
23227.6
25601.1
28836.4
29895.7
7.82305
13.9741
26.5536
82.5886
271.742
1471.45
9270.09
19461.9
22344.3
24206.5
27253.3
28236.6
23.6597
24.4282
27.546
29.7386
43.684
61.4637
1075.71
10909.9
19794.8
22326.6
22371.2
21239.3
13.7303
15.4169
20.4374
23.8754
31.6629
26.7993
259.252
3745.92
6118.49
4740.35
2092.04
1231.77
47.2265
49.831
57.0343
67.9523
70.5262
77.1681
157.09
775.307
2155.49
1402.71
589.169
555.525
42.734
43.9508
46.2699
44.1207
0.0345718
-117.38
-151.093
-4.81984
603.534
882.484
709.902
443.868
33.2803
32.5769
29.5208
18.3887
-17.7621
-77.9794
-80.5126
-52.1379
-10.4462
1201.83
2965.7
956.767
23.3543
21.7187
17.4084
7.25037
-14.9181
-46.2373
-60.6126
-40.7093
-21.1546
-5.444
4015.73
6227.43
12.7376
6.92986
2.222
13.1407
7.34128
2.36581
15.4124
8.66974
2.59139
13.8076
6.03781
2.06306
4.79762
-7.16242
-1.23982
-0.760235
-4.22994
-2.58107
-60.4833
-51.9169
-20.8175
-77.4124
-77.0549
-24.8932
-56.9788
-50.4008
-15.5011
-27.5119
-27.1719
-11.738
-10.1651
-10.1923
-9.98896
74.712
3.29566
-12.3661
16433.1
5.52672
-5.72552
16490.4
18.8833
-5.03078
16509.4
95.608
-3.9557
16239.1
1.0298
-4.70541
14270.9
4.59016
-5.68504
11046.2
4.00231
-14.5875
15.1353
8.49306
2.67397
13.5963
7.59722
2.38897
10.4785
5.74561
1.81908
4.15159
2.55039
0.880462
-5.94975
-1.91554
-0.303289
-18.4729
-7.45288
-1.73261
-19.9261
-10.6842
-2.47627
-19.2865
-10.845
-2.81286
-12.3254
-8.71817
-2.67553
-10.811
-9.18316
-3.36992
-10.8729
-4.98856
-5.45121
9947.21
0.129626
-13.3021
)
;
    }
    water_left_surface
    {
        type            fixedFluxPressure;
        gradient        uniform 0;
        value           nonuniform List<scalar> 
42
(
4086.84
4086.86
4086.87
4086.86
4086.86
4086.89
7.82229
7.82244
7.82251
7.82272
7.82301
7.82305
23.6588
23.6589
23.659
23.6592
23.6595
23.6597
13.7301
13.7303
13.7303
13.7303
13.7304
13.7303
12.7376
12.7375
12.7374
12.7374
12.7375
12.7376
6.92983
6.92978
6.92977
6.92978
6.92981
6.92986
2.22194
2.22194
2.22197
2.22199
2.22198
2.222
)
;
    }
    water_right_surface
    {
        type            fixedFluxPressure;
        gradient        uniform 0;
        value           nonuniform List<scalar> 
42
(
47.2491
47.2471
47.2466
47.2414
47.2395
47.2265
42.7485
42.748
42.7484
42.7448
42.7442
42.734
33.2863
33.2866
33.2869
33.2861
33.2861
33.2803
23.3555
23.3559
23.3561
23.3562
23.3561
23.3543
15.1351
15.1355
15.1357
15.1359
15.1358
15.1353
8.49286
8.49312
8.49332
8.49339
8.4933
8.49306
2.6739
2.67408
2.67418
2.67419
2.67411
2.67397
)
;
    }
    water_top_surface
    {
        type            totalPressure;
        rho             rho;
        psi             none;
        gamma           1;
        p0              uniform 0;
        value           nonuniform List<scalar> 
180
(
-0.894074
-0.894224
-0.894139
-0.894115
-0.894182
-0.894069
-0.699264
-0.699512
-0.699497
-0.699491
-0.699523
-0.699345
-0.243453
-0.243596
-0.243591
-0.243554
-0.243504
-0.243338
-0.000289941
-0.000292161
-0.000292138
-0.000289956
-0.000288755
-0.000286107
0
0
0
0
0
0
0
0
0
0
0
0
0
0
0
0
0
0
0
0
0
0
0
0
-1.29753
-1.29033
-1.29346
-1.29401
-1.29314
-1.29748
-7.67821
-7.66826
-7.67292
-7.6755
-7.67493
-7.68078
-7.72511
-7.72303
-7.7242
-7.72811
-7.73257
-7.71976
-4.22871
-4.23765
-4.23342
-4.23594
-4.24599
-4.22176
-2.82526
-2.87778
-2.86374
-2.83916
-2.93206
-2.83353
-1.60909
-1.5997
-1.58969
-1.62539
-1.65236
-1.55107
-2.71486
-2.72395
-2.7037
-2.79853
-2.93328
-2.56357
-6.61656
-6.65475
-6.56788
-6.77656
-7.0169
-6.339
-7.163
-7.19914
-7.13818
-7.25361
-7.43204
-6.97204
-4.82739
-4.84393
-4.82726
-4.855
-4.90074
-4.77643
0
0
0
0
0
0
0
0
0
0
0
0
0
0
0
0
0
0
0
0
0
0
0
0
0
0
0
0
0
0
0
0
0
0
0
0
0
0
0
0
0
0
-0.385929
-0.384533
-0.385177
-0.384384
-0.383979
-0.383223
-0.286602
-0.286898
-0.288288
-0.282176
-0.276181
-0.293116
-5.93563
-5.94608
-5.93166
-5.92018
-5.89772
-5.91644
-6.7183
-6.75808
-6.74419
-6.67179
-6.69813
-6.71943
-1.8118
-1.7841
-1.82607
-1.65954
-1.33577
-1.86652
)
;
    }
}


// ************************************************************************* //
