/*--------------------------------*- C++ -*----------------------------------*\
| =========                 |                                                 |
| \\      /  F ield         | OpenFOAM: The Open Source CFD Toolbox           |
|  \\    /   O peration     | Version:  v1612+                                |
|   \\  /    A nd           | Web:      www.OpenFOAM.com                      |
|    \\/     M anipulation  |                                                 |
\*---------------------------------------------------------------------------*/
FoamFile
{
    version     2.0;
    format      ascii;
    class       volVectorField;
    location    "8.55";
    object      U;
}
// * * * * * * * * * * * * * * * * * * * * * * * * * * * * * * * * * * * * * //

dimensions      [0 1 -1 0 0 0 0];

internalField   nonuniform List<vector> 
1116
(
(0.283676 -0.000142812 -0.154925)
(0.239158 -0.01361 -0.157557)
(0.220204 0.0273318 -0.164993)
(0.325241 0.0283283 -0.152097)
(0.383766 -0.0013602 -0.148634)
(0.233572 -0.0406547 -0.16483)
(0.714001 0.0103265 0.0810424)
(0.68533 -0.00786395 0.0964641)
(0.670757 0.000824423 0.106834)
(0.713847 -0.0279022 0.0833276)
(0.733484 0.017573 0.0790692)
(0.664805 -0.00737625 0.104781)
(0.943808 0.00614179 0.0198891)
(0.928106 0.00150655 0.026343)
(0.922326 -0.00305381 0.0344102)
(0.94364 -0.0180166 0.0169139)
(0.96017 0.00983322 0.0107001)
(0.91276 0.00625022 0.0323341)
(0.975417 0.00255859 -0.109538)
(0.97001 0.00244778 -0.109368)
(0.968422 -0.00268059 -0.107892)
(0.975441 -0.00775612 -0.110254)
(0.982817 0.00395715 -0.112411)
(0.964198 0.00695742 -0.108413)
(0.907605 -0.000204411 -0.135205)
(0.902232 0.000366282 -0.133777)
(0.903577 -0.000993818 -0.135818)
(0.905839 -0.00223689 -0.133331)
(0.908946 -6.96664e-06 -0.133963)
(0.902402 0.00139175 -0.135795)
(0.874277 -0.00108438 -0.0722084)
(0.862965 -0.000604147 -0.0738057)
(0.866687 8.8731e-05 -0.0751691)
(0.87022 0.00035222 -0.0711417)
(0.874358 -0.00223962 -0.0710383)
(0.864826 -0.00292399 -0.0756828)
(0.931357 0.00151327 -0.0555059)
(0.916845 -0.000282115 -0.0671711)
(0.920255 -7.03414e-06 -0.0656156)
(0.927822 -0.000673179 -0.0577467)
(0.933826 -0.00123432 -0.0514121)
(0.91541 2.82212e-05 -0.0700612)
(0.933655 0.000454976 -0.0884241)
(0.931763 -0.00120566 -0.108097)
(0.93244 0.000173753 -0.103779)
(0.934318 -0.000762101 -0.0936005)
(0.92898 -0.00145291 -0.0833058)
(0.933309 -0.000287475 -0.119802)
(0.600098 -0.00438459 -0.266451)
(0.60995 -0.00213682 -0.260561)
(0.609654 0.00237819 -0.260075)
(0.601447 0.00337384 -0.268008)
(0.5858 -0.000832948 -0.27435)
(0.615818 -0.00385736 -0.25469)
(0.127513 -0.00157271 -0.57444)
(0.115985 0.00241478 -0.547026)
(0.120144 -0.001715 -0.548209)
(0.124074 0.000318207 -0.574648)
(0.118789 0.00503044 -0.595725)
(0.116301 0.00248512 -0.52477)
(-0.0159794 -0.00272199 -0.650352)
(-0.0491173 0.00203795 -0.630545)
(-0.047611 0.000368565 -0.631718)
(-0.0210356 0.00481085 -0.651399)
(-0.0144919 0.00114092 -0.67457)
(-0.0637473 0.000609515 -0.61605)
(-0.00518358 0.00439066 -0.475617)
(-0.0543422 5.62626e-05 -0.478598)
(-0.0518656 -0.00802026 -0.479445)
(-0.00836267 -0.0135966 -0.478668)
(0.0156737 -0.00215317 -0.4941)
(-0.0688505 0.0176795 -0.479718)
(0.15056 -0.0119293 -0.981209)
(0.22795 0.00720293 -0.981599)
(0.243998 -0.0317931 -0.980927)
(0.05261 -0.0283091 -0.983204)
(-0.0712664 -0.00739916 -0.995601)
(0.211215 0.0408434 -0.978154)
(1.14541 -0.0267698 -0.771031)
(1.18942 0.0143127 -0.783981)
(1.20446 -0.000949868 -0.787024)
(1.15144 0.0662434 -0.759392)
(1.18132 -0.0353779 -0.758693)
(1.18122 0.01408 -0.775747)
(1.37141 -0.0102687 -0.300121)
(1.39071 0.00852404 -0.297248)
(1.3909 -0.00160754 -0.297365)
(1.3818 0.0271524 -0.298137)
(1.41215 -0.00832027 -0.302564)
(1.37546 0.0116399 -0.2983)
(1.55918 -0.000618178 0.0965858)
(1.55823 0.0023572 0.105468)
(1.55491 -0.00104713 0.105855)
(1.56298 0.00220518 0.096697)
(1.57846 0.00224668 0.0928459)
(1.53891 0.0052603 0.101613)
(1.84566 0.00214925 0.198561)
(1.84281 0.00168938 0.206649)
(1.84097 -0.00147884 0.206382)
(1.84788 -0.00489335 0.19961)
(1.85651 0.00285815 0.198511)
(1.8296 0.00383004 0.200212)
(2.18816 0.0023059 0.0942937)
(2.18579 0.00186444 0.0985488)
(2.18493 -0.00132007 0.0987151)
(2.18972 -0.00439955 0.0954193)
(2.19463 0.00198342 0.0979757)
(2.1789 0.00327997 0.0903169)
(2.59332 0.00582269 0.0233804)
(2.60612 0.00279329 0.0307035)
(2.59823 -0.00205289 0.0290595)
(2.60075 -0.00481888 0.0264148)
(2.60239 0.00268152 0.0267301)
(2.59931 0.00506753 0.0278531)
(3.08848 0.00718627 0.248147)
(3.1218 0.00212593 0.249717)
(3.1068 -0.00230662 0.246213)
(3.10247 -0.00665592 0.250473)
(3.09961 0.00370482 0.254119)
(3.11261 0.0078381 0.250608)
(3.79285 0.00306926 0.84284)
(3.80188 0.00115411 0.827786)
(3.79581 -0.00225418 0.828037)
(3.80001 -0.00178621 0.840172)
(3.80154 0.000545422 0.853959)
(3.78608 0.00062612 0.833085)
(4.48431 -0.0193825 1.05123)
(4.50681 -0.0059732 1.06209)
(4.49483 0.00734163 1.06533)
(4.49583 0.00988901 1.04674)
(4.5271 -0.0218776 1.05324)
(4.44917 -0.0160064 1.07197)
(4.27464 -0.0640459 0.764964)
(4.38942 -0.028547 0.794781)
(4.36874 0.0385609 0.801447)
(4.28193 0.0266293 0.763562)
(4.28272 -0.0537397 0.758111)
(4.36633 -0.0490898 0.813316)
(2.45833 0.0127112 0.721614)
(2.38387 0.0281696 0.66505)
(2.35761 -0.0863076 0.662505)
(2.50765 -0.125524 0.731495)
(2.59332 0.0342181 0.742936)
(2.34529 0.111762 0.638902)
(-0.586855 -0.0363434 -1.92886)
(0.726519 0.35424 -2.03054)
(0.939978 -0.614191 -2.04716)
(-1.70391 -0.369762 -1.88939)
(-2.6843 -0.0985146 -1.8734)
(0.49916 0.784238 -1.97985)
(2.31847 -0.365081 -1.06725)
(2.74848 0.346445 -1.10615)
(2.88765 -0.0569546 -1.10998)
(2.75848 0.953512 -1.13318)
(3.23853 -0.539451 -1.26638)
(2.93141 0.470795 -1.08265)
(0.56675 -0.149222 0.0955353)
(0.922286 0.153093 0.114519)
(0.986676 -0.163546 0.130719)
(0.707269 0.165455 0.0960767)
(0.719081 -0.0637362 0.0992062)
(1.39264 0.541342 0.138267)
(0.92608 -0.0208573 -0.612334)
(1.07643 0.0291806 -0.569546)
(1.08631 -0.054033 -0.567756)
(0.948615 0.0218839 -0.602063)
(0.869174 0.00802254 -0.594243)
(1.28966 0.165163 -0.534473)
(1.99106 -0.00647823 -0.819063)
(2.03455 -0.00355945 -0.796833)
(2.02796 -0.0153016 -0.796881)
(1.99271 0.00880447 -0.814865)
(1.95942 -0.016698 -0.812715)
(2.11488 0.0238488 -0.805105)
(3.31631 -0.0186956 -0.850338)
(3.34988 -0.0169962 -0.850282)
(3.32611 0.00526491 -0.839621)
(3.32362 0.0176545 -0.853952)
(3.31667 -0.0328371 -0.853569)
(3.34619 -0.0300462 -0.853336)
(4.50534 -0.0345204 -0.885485)
(4.48553 -0.0287471 -0.89592)
(4.47517 0.0237185 -0.885688)
(4.49229 0.0386933 -0.887575)
(4.55092 -0.0595987 -0.889181)
(4.44342 -0.0671619 -0.895084)
(5.51425 0.00907526 -1.04848)
(5.45536 -0.00397833 -1.04168)
(5.42497 0.00369904 -1.03776)
(5.54688 0.0206069 -1.05129)
(5.62082 -0.0342715 -1.0514)
(5.32588 -0.0389618 -1.0364)
(5.9234 0.0484908 -1.18832)
(6.06969 0.0268824 -1.17403)
(5.98303 -0.0248058 -1.16751)
(6.02001 0.00240786 -1.20209)
(6.03242 0.026257 -1.21037)
(5.9287 0.0243248 -1.13812)
(6.59248 -0.0152406 -0.788474)
(6.84593 0.018183 -0.980272)
(6.75385 -0.0221118 -0.924752)
(6.66223 0.0338516 -0.797047)
(6.79368 -0.00380677 -0.825813)
(6.65252 0.0189403 -0.953823)
(5.52303 -0.108033 1.2589)
(6.32964 -0.0217096 0.815679)
(6.10046 0.00944433 0.981818)
(5.53259 0.029088 1.24624)
(5.82178 -0.0697006 1.04583)
(6.24892 0.0127185 0.872146)
(0.442243 -0.240398 5.8177)
(2.7833 -0.179192 6.25105)
(2.44269 0.122718 6.46556)
(0.324709 0.0142902 5.58377)
(0.37692 -0.265137 5.13117)
(2.79537 -0.191589 6.34446)
(-1.9898 -0.0167502 -2.08862)
(-0.932213 0.455334 -2.24212)
(-0.424907 -0.414113 -2.26179)
(-2.55662 -0.161379 -2.02616)
(-3.09612 0.0152212 -2.25074)
(-0.763813 0.719207 -2.18605)
(-2.14691 -0.107523 -0.691572)
(-2.00742 0.148134 -0.323043)
(-1.8864 0.314896 -0.549153)
(-1.69961 0.594668 -0.876718)
(-1.76442 -0.0569708 -1.55381)
(-1.30237 0.103718 -0.322499)
(0.583326 -0.158018 0.413907)
(0.434936 -0.113558 0.542978)
(0.424004 -0.100913 0.672262)
(0.579791 0.0395816 0.419498)
(0.691466 -0.191676 0.339018)
(0.478985 -0.010964 1.38826)
(3.3281 -0.103533 -1.60562)
(3.1992 -0.0750073 -1.35634)
(3.21234 -0.0545491 -1.29448)
(3.32292 -0.0316763 -1.62286)
(3.39954 -0.0647827 -1.75505)
(3.39604 0.0117155 -0.650874)
(6.34993 -0.0442978 -2.52112)
(6.2565 -0.016003 -2.42682)
(6.31502 -0.0304321 -2.43764)
(6.283 -0.0665441 -2.5485)
(6.2494 0.0323274 -2.64588)
(6.46612 0.0796226 -2.19978)
(10.1665 -0.0464805 -3.10034)
(10.0929 -0.0259005 -3.1851)
(10.1654 0.0114928 -3.17917)
(10.0664 0.0064352 -3.11099)
(9.92472 -0.00876754 -3.14461)
(10.3525 0.00761783 -3.12145)
(14.4741 -0.240585 -2.75409)
(14.2737 -0.158647 -3.01629)
(14.3553 0.0991684 -3.00736)
(14.3703 0.1708 -2.75602)
(14.4593 -0.288037 -2.79311)
(14.3078 -0.248079 -3.01199)
(20.1732 -0.224068 -0.976475)
(18.9492 -0.137648 -1.28331)
(19.2889 0.0426973 -1.24558)
(19.8113 0.19165 -1.02747)
(20.1086 -0.34728 -1.01191)
(18.742 -0.296015 -1.34947)
(21.0561 0.316449 0.647837)
(21.8922 0.261819 0.593311)
(21.3593 -0.388619 0.563223)
(21.4584 -0.0622142 0.681631)
(22.0611 0.324753 0.710405)
(21.2686 0.362192 0.539075)
(9.71837 0.0729397 1.2355)
(13.7018 0.198768 0.786107)
(12.2303 -0.258356 0.847052)
(10.422 0.0261217 1.20634)
(10.7161 0.309908 1.10607)
(13.316 0.483928 0.751332)
(1.66037 -0.288452 7.76098)
(5.92559 -0.0101047 5.9018)
(4.33294 -0.0769493 6.36675)
(2.26321 0.146549 7.72228)
(2.54459 0.0150382 7.42868)
(6.47787 0.35917 5.88138)
(-3.33212 -0.671602 6.33342)
(-3.42048 -0.443578 6.3664)
(-3.28749 0.468103 6.23314)
(-3.46658 0.343591 6.41917)
(-3.90916 -0.933395 6.58999)
(-2.99813 -0.805383 6.22608)
(-0.591637 0.151788 -0.572538)
(-0.607838 -0.125767 -0.094353)
(-0.921105 -0.244634 -0.727899)
(-0.696743 0.560435 -0.25687)
(-0.0421602 -0.139336 0.0388506)
(-0.331843 0.0711586 -0.387568)
(-1.76251 0.221825 -0.599056)
(-1.13964 -0.113062 0.0390733)
(-1.10055 -0.182251 -0.446137)
(-0.980559 0.971309 -0.368604)
(-0.809865 0.142175 0.306037)
(-1.67374 -0.139997 -0.34682)
(-2.57412 0.268885 -0.211434)
(-1.89868 0.436788 0.0210036)
(-0.816304 0.45595 -0.438086)
(-0.717508 0.594099 -0.371936)
(-1.87311 -0.332186 0.466789)
(-2.56919 -0.213985 -0.219251)
(-2.31268 0.389308 0.175547)
(-1.64458 1.18908 0.270352)
(-1.08139 0.868169 0.929004)
(-2.16759 0.0749881 0.43247)
(-2.36483 -0.418026 0.402964)
(-2.84736 -0.265398 0.000672505)
(-0.668755 0.412096 0.194843)
(-0.00467804 0.905803 0.0998676)
(0.754486 0.321996 -0.772987)
(-0.49224 0.292612 -0.291833)
(-2.53142 0.0358734 0.788274)
(-3.01977 -0.213156 0.725448)
(0.0968051 0.152163 -0.129894)
(1.05272 0.544437 -1.05644)
(1.02469 0.551554 -1.63397)
(0.590221 -0.243656 -1.03853)
(0.855177 -0.695735 -0.602073)
(0.395102 0.0387129 -0.556191)
(2.08357 0.0615055 -0.521326)
(2.71275 0.454158 -1.51102)
(1.97133 0.948509 -1.63029)
(-1.43031 0.476288 0.266615)
(1.73744 -0.9094 -0.812702)
(1.7601 0.153276 -1.16519)
(2.85238 -0.0958815 -0.265551)
(3.63352 0.2266 -1.50828)
(3.75474 0.432885 -1.96412)
(0.236408 0.651279 1.56234)
(3.7116 -0.691684 -0.760602)
(2.78343 0.237593 -0.956268)
(2.83356 -0.287439 0.230667)
(3.7497 0.0486363 -1.32377)
(4.25299 0.12698 -2.05823)
(4.27528 0.332062 -0.599024)
(5.21364 -0.901341 -1.67585)
(3.00428 0.303033 -0.876448)
(2.51355 -0.205691 0.788002)
(3.24579 -0.104269 -0.859937)
(4.18328 -0.489362 -1.99449)
(5.35921 -0.517555 -2.3003)
(5.2215 -0.842255 -2.30055)
(2.76565 0.572105 -0.821098)
(2.33204 -0.0475252 0.289957)
(2.20811 -0.104834 0.185436)
(3.08635 -0.974492 -1.52157)
(3.66148 -0.76764 -2.33997)
(3.71131 -0.347476 -2.76219)
(2.02359 0.761994 -0.643589)
(0.790602 -0.135719 0.121113)
(1.18268 -0.234506 0.213409)
(1.39848 -0.555493 -0.724818)
(1.81392 -0.184251 -1.43705)
(1.54037 -0.0725471 -1.34562)
(0.580618 0.338796 -0.118768)
(-0.200948 -0.366343 -1.94565)
(-0.560592 -0.318459 -0.718795)
(0.0899694 -0.910965 -3.0312)
(-0.27825 0.147657 -1.58103)
(-0.176375 -0.0249726 -0.00889321)
(-0.129608 0.218537 -1.88719)
(-1.63289 -0.834456 -1.80768)
(-1.72813 -0.125861 -0.30816)
(-1.58703 -0.913249 -2.09238)
(-1.36405 0.329627 -0.208426)
(-1.34993 -0.0931194 0.415434)
(-1.61181 0.700214 -2.14079)
(-2.28382 -0.922037 -1.79139)
(-2.62478 -0.186906 -0.0959827)
(-2.38764 -0.257764 -0.0307599)
(-1.65293 0.318544 0.727207)
(-2.5699 -0.284609 -0.0241868)
(-2.84149 0.820573 -2.12732)
(-3.17528 -0.611736 -1.68452)
(-3.66924 0.0838061 0.402787)
(-3.35771 0.28496 2.74146)
(-3.42137 -0.0457013 1.61498)
(-3.31548 -0.490037 -0.0675992)
(-3.77878 0.544711 -1.66252)
(-4.12589 -0.041141 -0.7476)
(-4.15195 0.871844 1.52643)
(-2.81907 0.0637666 3.3136)
(-3.37613 -0.806214 2.69785)
(-4.24302 -0.661585 2.14816)
(-4.72371 0.0256267 1.24011)
(-4.33342 0.360982 0.797068)
(-4.50654 1.35393 2.52853)
(-2.91066 -0.168067 3.43513)
(-1.94698 -1.22476 2.85)
(-1.76 -0.351428 3.07489)
(-3.39335 0.496796 3.2621)
(-3.37123 0.771547 1.99751)
(-3.63042 1.75998 2.40896)
(-1.44307 -0.619518 3.18689)
(0.778403 -0.0672182 4.33105)
(3.12235 -0.15733 3.2816)
(-2.6926 1.43202 2.05448)
(-0.540905 0.454998 0.664473)
(-5.82542 2.64179 1.72027)
(-2.26721 -0.642298 2.38322)
(2.23185 0.871078 5.68687)
(5.31244 -0.349829 3.57752)
(-3.68668 1.77137 1.34805)
(2.96518 -0.0905415 -0.213591)
(-0.746143 1.83583 -0.11544)
(-3.52334 1.82918 1.95519)
(3.11991 1.0857 3.99672)
(4.70496 -1.05984 2.28626)
(-5.57253 0.451939 -1.01276)
(3.11535 -0.289236 -0.304025)
(3.23233 0.849425 0.335073)
(-2.15306 2.03597 1.91807)
(2.00303 0.667844 2.27889)
(4.04304 -1.62393 -0.476075)
(0.570055 0.718104 -0.487268)
(1.88596 -0.252843 -2.39792)
(4.56156 -0.0484318 0.0947933)
(3.39958 -0.916202 0.297582)
(2.57907 0.678923 -2.75422)
(3.70595 -0.706853 -5.6056)
(1.11629 1.45103 -0.432832)
(2.17906 0.339153 -3.19795)
(2.7538 0.63095 -3.45056)
(2.83301 0.26368 -3.88084)
(3.87093 0.619192 -4.46209)
(3.37059 -0.609399 -3.85393)
(0.945685 -0.260576 -1.63177)
(0.435512 -0.931304 -1.35729)
(0.204979 -0.934824 -1.81086)
(1.55488 -1.3365 -3.76964)
(0.840156 -1.07752 -3.82859)
(0.100913 0.279525 -1.36293)
(0.480393 0.949998 -1.7336)
(-1.54556 -1.47298 -0.211239)
(-1.1765 -0.671125 -2.5437)
(-1.216 -1.42463 -2.29463)
(-0.880491 -0.985006 -3.56513)
(-1.07931 0.316959 -2.05749)
(-1.49466 1.53821 -1.55824)
(-1.7185 -2.03175 0.21994)
(-1.35661 -1.00575 -3.19543)
(-0.861734 -1.52924 -3.16812)
(-1.59348 -0.0517076 -1.73765)
(-1.93719 1.05078 -1.93519)
(-2.47197 2.06286 -0.861963)
(-2.24432 -2.16364 -0.969467)
(-2.72096 -1.35641 -2.35391)
(-3.65992 -0.402051 0.66978)
(-3.50319 0.516517 0.98864)
(-3.4341 1.44287 -1.87573)
(-3.84889 1.96384 -1.70893)
(-3.6394 -1.31528 -2.51915)
(-4.55684 -0.402455 -0.628773)
(-5.2783 0.337478 4.20189)
(-4.59049 -0.14159 3.37699)
(-4.78304 0.345282 0.36985)
(-5.11763 0.89419 0.163113)
(-5.10048 -0.500936 -2.63719)
(-6.32637 0.499771 1.37749)
(-6.91512 0.159541 5.5581)
(-5.61481 -0.671247 4.96536)
(-5.20962 -0.0187645 2.59388)
(-5.49012 0.510165 3.02321)
(-6.39772 -0.230791 -1.61179)
(-7.59385 0.654707 2.31996)
(-8.56996 -1.05252 5.54175)
(-3.62392 -0.650671 5.36786)
(-4.23189 0.528257 5.02238)
(-6.66477 0.787558 3.82976)
(-7.57415 -0.455399 -0.0234957)
(-9.5388 -0.157971 2.74452)
(-5.7157 -1.94612 3.22141)
(1.3414 -0.265723 4.24631)
(-0.976121 -0.552784 0.643427)
(-5.34709 0.577419 0.27728)
(-7.47831 -0.526988 -0.824727)
(-9.47734 -0.180927 1.19969)
(-4.72075 -0.751827 1.56843)
(0.729148 -0.433699 4.64356)
(0.409761 -1.76671 -0.237898)
(-2.24079 0.492611 0.844005)
(-5.46476 -0.696224 -1.34404)
(-5.98081 0.443515 1.42748)
(-5.65412 1.73311 3.24285)
(-0.84849 0.940958 4.90857)
(1.86053 -0.621216 -1.55947)
(0.0527499 0.921312 2.61811)
(-5.69579 -0.728153 0.402971)
(-0.831228 0.491401 0.150016)
(-0.0171536 0.520307 0.771222)
(0.664614 1.55425 -2.45192)
(3.3038 -0.0645656 -5.79489)
(-1.6597 0.950065 0.5228)
(2.86198 0.755137 -4.17312)
(3.64171 1.35176 -5.44328)
(3.39246 0.864248 -5.10623)
(3.784 0.771111 -4.58425)
(3.52436 -0.557763 -4.3158)
(2.52257 -0.896742 -3.46205)
(0.602664 -0.13491 1.25101)
(0.690939 -0.509454 -1.64009)
(1.43857 -0.408102 -1.92967)
(0.883886 -0.45708 -5.54872)
(0.319482 0.188 -6.03504)
(0.291846 1.23432 -0.559651)
(-1.99929 -0.447993 1.70241)
(-1.41917 0.13968 -3.14353)
(-1.33042 -0.140798 -1.5084)
(-0.69233 0.634124 -6.17186)
(-0.917883 0.11748 -6.65703)
(-2.0231 0.96617 -0.774176)
(-2.89626 -0.810992 3.88077)
(-2.14648 0.639262 -3.58764)
(-1.12677 -0.439241 -3.33285)
(1.02667 1.3225 -7.02715)
(-1.30399 -0.132441 -6.58883)
(-2.71411 1.43308 1.84407)
(-3.57768 -0.553941 3.20573)
(-2.00184 -0.444995 -5.15334)
(-1.22437 -0.826455 -6.57326)
(-1.9554 1.06328 -5.22775)
(-1.33033 1.00683 -5.43444)
(-3.14945 1.60709 2.37137)
(-3.39341 -0.710815 -0.933635)
(-2.79941 -1.27254 -5.78652)
(-4.98952 -0.331993 -0.0572211)
(-5.01625 0.751394 0.64855)
(-4.05211 1.55458 -1.37396)
(-4.22099 1.2414 1.86759)
(-2.91218 -0.590716 -1.85557)
(-5.5606 -0.729363 -2.34095)
(-7.18457 -0.171584 3.75397)
(-6.41955 0.331948 4.05997)
(-5.53566 0.842742 1.85672)
(-5.07593 0.48089 3.17944)
(-4.2497 -1.12686 -0.15145)
(-7.36319 -0.70773 0.469316)
(-8.77112 -1.36377 6.73512)
(-6.16878 -0.702191 6.19752)
(-5.88912 0.362881 4.71485)
(-5.20636 0.127987 4.39902)
(-4.66191 -1.48889 1.54369)
(-8.10563 -1.44761 2.44713)
(-6.40132 -2.14289 5.1288)
(-1.55754 -0.930942 4.35197)
(-2.99367 -0.51203 3.79261)
(-2.54686 -0.137713 3.43786)
(-6.26004 -1.15874 2.09177)
(-7.48676 -1.55823 2.71166)
(-3.79179 -1.93237 3.46131)
(-0.908675 -1.66786 3.96307)
(-0.381061 -1.44174 1.72827)
(0.20518 -0.22436 2.03412)
(-5.61883 -0.2816 2.38678)
(-5.9518 -0.0970279 3.02392)
(-4.92798 -0.0252271 4.83588)
(-1.5226 -0.400859 5.53967)
(1.18712 -0.319284 -1.14185)
(1.79413 0.0729605 1.04137)
(-6.41209 0.465531 3.09027)
(-7.81097 1.74654 3.60293)
(-7.28236 1.68983 4.6175)
(-4.06359 1.95375 0.837229)
(2.638 0.174129 -4.2346)
(-5.83271 -0.74278 2.72578)
(3.76068 0.193565 -3.65483)
(3.80084 0.56178 -3.72217)
(3.60481 0.794838 -3.64052)
(4.19317 1.00913 -4.28232)
(3.89531 -0.156059 -4.18954)
(3.39173 -0.708461 -3.51796)
(-2.82687 -0.0234367 -0.1802)
(-2.783 0.272852 0.135567)
(-2.17593 -0.121793 0.367734)
(-2.96198 -0.00541655 -0.194014)
(-3.17051 -0.0977203 -0.540433)
(-2.16903 0.195059 0.441796)
(-2.8206 -0.159898 0.82127)
(-2.68664 0.0218728 1.55625)
(-2.23103 0.0165329 1.98942)
(-2.82076 0.263905 0.995134)
(-3.0969 -0.258076 0.613502)
(-2.367 -0.1006 1.59972)
(-2.67427 -0.228315 3.41793)
(-2.67834 -0.165796 2.80693)
(-2.38184 0.144987 2.66242)
(-2.62747 0.437544 3.45125)
(-2.85835 -0.0468646 3.43411)
(-2.56104 -0.0777949 3.3632)
(-1.13881 -0.034502 -2.95175)
(-1.75675 -0.0431419 -2.8161)
(-2.17456 0.0871934 -2.52942)
(-0.991528 0.231268 -2.80262)
(-0.66107 -0.208771 -3.33384)
(-2.39988 -0.212659 -1.96575)
(-0.0621462 -0.0240373 -3.63151)
(-0.207717 -0.110061 -3.51919)
(-0.460806 -0.0351633 -3.26766)
(0.0243145 0.168896 -3.51465)
(0.0728976 -0.125173 -3.97298)
(-0.911251 -0.148526 -2.87149)
(-0.0322581 -0.00850576 -5.15094)
(0.0170007 -0.0627844 -5.1363)
(0.0164307 -0.0170545 -5.05018)
(-0.0365127 0.0691671 -5.11242)
(-0.0351548 -0.0451395 -5.28256)
(-0.117158 -0.110809 -4.86156)
(0.375397 0.0209474 -3.64925)
(0.296119 0.0620701 -4.04234)
(0.312942 -0.141041 -3.91824)
(0.414262 -0.212756 -3.7316)
(0.42619 -0.0312809 -3.74342)
(-0.0561002 0.113629 -3.69809)
(0.128495 0.0547638 -3.51765)
(0.174116 0.0800525 -3.67276)
(0.214296 -0.0236631 -3.60723)
(0.160298 -0.0249577 -3.58399)
(0.117428 0.098529 -3.59872)
(0.271646 0.120271 -3.54265)
(-0.287474 0.0098995 -4.119)
(-0.276242 0.00142217 -4.1699)
(-0.256346 0.00500052 -4.17591)
(-0.279168 0.0135606 -4.13804)
(-0.311561 0.00957356 -4.13252)
(-0.233374 -0.00200992 -4.17461)
(1.2493 0.00357549 -4.46718)
(1.23074 -0.00898109 -4.74248)
(1.24635 -0.0415182 -4.66985)
(1.2702 -0.0645814 -4.59432)
(1.26079 -0.0436906 -4.574)
(1.17525 0.00408519 -4.70898)
(0.869944 0.0354706 -3.8486)
(0.873567 0.0154775 -3.88159)
(0.859504 -0.0147921 -3.83295)
(0.872416 -0.00774045 -3.87353)
(0.852525 0.00655274 -3.88097)
(0.873191 0.0272749 -3.78355)
(0.0648733 0.00356629 -4.44834)
(0.0613692 -0.00486876 -4.47122)
(0.0596098 -0.00136634 -4.46164)
(0.0608503 0.00551736 -4.45292)
(0.0512311 -0.0111415 -4.44901)
(0.061319 -0.012062 -4.43972)
(1.94441 0.00888424 -5.83855)
(1.97222 -0.00340396 -6.00757)
(2.02854 -0.0167792 -5.92744)
(1.88748 -0.0617547 -5.94553)
(1.80789 0.0056438 -5.96347)
(1.98016 0.0446143 -5.95308)
(1.06572 0.0388556 -4.77311)
(1.11005 0.0194368 -4.80509)
(1.11457 -0.0200649 -4.75603)
(1.07246 -0.0573237 -4.80915)
(1.01119 0.0501364 -4.82266)
(1.16128 0.0900909 -4.72826)
(0.0331137 0.00811671 -5.02451)
(0.0406143 0.00145928 -5.08624)
(0.0410405 -0.00319647 -5.07313)
(0.0395505 -0.0138936 -5.04746)
(0.012795 0.0106763 -5.02247)
(0.0686958 0.0230919 -5.07248)
(2.86051 -0.0189821 -7.75815)
(2.91832 -0.00878777 -7.93192)
(3.03867 0.0159911 -7.89385)
(2.7059 0.0388194 -7.79175)
(2.46124 -0.0146383 -7.81851)
(3.14077 0.0183525 -7.79485)
(1.05553 0.0563247 -6.1397)
(1.25263 0.0456218 -6.20329)
(1.3207 -0.0297008 -6.17402)
(0.991505 -0.0768458 -6.20012)
(0.70815 0.128765 -6.11945)
(1.50188 0.20476 -6.21725)
(-0.259731 0.0365815 -5.76921)
(-0.175261 0.030746 -5.86963)
(-0.160726 -0.029177 -5.86141)
(-0.26275 -0.0823291 -5.83577)
(-0.389933 0.0870881 -5.76792)
(-0.0566677 0.128002 -5.88599)
(3.3016 -0.178093 -8.99239)
(3.11762 -0.0861452 -9.63425)
(3.23242 0.058561 -9.57546)
(3.20608 0.365011 -8.99424)
(3.12351 -0.437768 -9.09289)
(3.45159 -0.346656 -9.55569)
(-0.235115 0.0597493 -7.5359)
(0.206974 0.0840797 -8.05892)
(0.285873 -0.0385086 -8.01637)
(-0.244291 0.178485 -7.59128)
(-0.617927 -0.0794998 -7.1561)
(0.94706 -0.00358582 -8.34466)
(-1.32095 0.132925 -6.40306)
(-0.923681 0.132022 -6.7599)
(-0.880658 -0.0884103 -6.74763)
(-1.33646 -0.0976695 -6.47763)
(-1.75682 0.203178 -6.07945)
(-0.527493 0.248565 -6.97615)
(5.97896 -0.148462 -4.74019)
(4.42394 -0.0237009 -6.22961)
(4.65625 -0.00405168 -5.8392)
(5.7707 0.461157 -5.21449)
(6.10195 -0.627577 -5.42816)
(3.83182 -0.407565 -6.2293)
(-1.25136 0.210084 -3.84911)
(-1.18645 0.28732 -6.40457)
(-1.18246 -0.0994338 -6.04432)
(-1.00924 0.439402 -4.53682)
(-0.81406 -0.407949 -4.04524)
(-1.12509 -0.22483 -7.17005)
(-4.0596 0.254256 -3.50284)
(-2.84442 0.28536 -5.23069)
(-2.88648 -0.142623 -5.07213)
(-3.96447 0.106213 -3.79264)
(-4.65067 0.100033 -2.79332)
(-2.11455 0.154073 -6.14866)
(10.346 0.372118 4.71728)
(10.837 0.391041 3.76707)
(10.4302 -0.361148 4.09874)
(11.1001 0.0427377 4.21704)
(11.5302 0.0185701 3.9735)
(9.95417 0.318342 3.84639)
(-0.0362254 0.274775 7.82831)
(1.67435 0.388107 4.58529)
(1.21674 -0.275968 5.33516)
(1.08963 0.13362 6.81285)
(1.15899 -0.169143 7.09583)
(0.948515 0.104264 4.18199)
(-5.1793 0.0810732 6.81839)
(-3.35131 0.219153 3.45326)
(-3.82252 -0.14615 4.19856)
(-4.72466 0.27883 6.19851)
(-4.94846 -0.195063 7.0947)
(-3.25984 -0.0568295 2.14179)
(2.17494 0.0479895 12.261)
(8.07602 0.233546 10.2781)
(6.41906 -0.292809 10.6291)
(4.3823 0.115028 11.5079)
(4.24178 0.401971 11.7751)
(6.99829 0.565682 10.2809)
(-3.63829 -0.0582548 18.0019)
(1.90302 0.189278 15.1066)
(0.147326 -0.242866 16.121)
(-2.01584 0.335417 17.4526)
(-2.27893 0.252329 17.9801)
(1.12309 0.42349 14.7898)
(-5.21937 -0.157534 15.6152)
(-2.25346 0.0911959 13.8162)
(-3.33048 -0.0953912 14.3787)
(-4.65906 0.348812 15.4279)
(-4.89877 -0.063288 16.3299)
(-2.08398 0.0841047 12.8877)
(-5.36235 -0.43968 15.629)
(-0.882719 -0.12641 16.7839)
(-2.95589 -0.143249 16.0298)
(-4.88116 0.241276 15.868)
(-4.68917 -0.00355282 15.7888)
(-0.273411 0.324544 17.1592)
(-5.43958 -0.575715 17.7252)
(-2.58491 -0.200852 20.644)
(-4.29411 0.0326588 19.1581)
(-5.34264 0.340387 17.9213)
(-5.00984 -0.391242 18.5262)
(-1.70658 -0.221345 20.8022)
(-3.41584 -0.470933 13.2727)
(-2.74491 -0.150075 16.3007)
(-3.47598 0.147421 14.4477)
(-3.51146 0.266218 13.7783)
(-3.42563 -0.521539 15.0592)
(-1.96145 -0.466618 15.9916)
(-3.23167 -0.296796 1.4987)
(-3.33927 -0.147587 1.81938)
(-3.27889 0.168634 1.5609)
(-3.2476 -0.0547953 1.58907)
(-3.42279 -0.341429 1.61582)
(-3.21374 -0.301575 1.98569)
(-0.753362 -0.256162 2.728)
(-0.94436 -0.0912299 3.57767)
(-0.768584 0.178833 3.13696)
(-0.841237 -0.101628 2.79469)
(-0.980575 -0.338718 2.85715)
(-1.12564 -0.287707 3.74997)
(0.840024 -0.09353 -1.07769)
(0.827392 -0.00722489 -0.638261)
(0.799207 0.0838312 -1.01153)
(0.851677 -0.0122208 -0.952558)
(0.812173 -0.170384 -0.914288)
(0.744727 -0.171586 -0.208933)
(2.09842 0.0525029 0.0118245)
(2.15892 0.0898367 -0.0897836)
(2.12498 -0.00252963 -0.156297)
(2.20538 -0.0500656 -0.0012667)
(2.32589 -0.0621961 0.0344897)
(2.26618 -0.0429968 0.00971609)
(0.226669 0.0240686 -3.98394)
(0.0194594 -0.0628363 -4.08821)
(-0.42421 -0.169223 -3.77714)
(-0.596553 -0.105681 -3.93847)
(-0.670391 -0.0720038 -4.10097)
(-0.537337 -0.0335907 -4.05245)
(-0.868199 -0.0390165 -0.0553911)
(-0.998779 -0.140887 -0.343865)
(-1.30059 0.00490772 -0.400851)
(-1.27599 0.310807 0.0547453)
(-0.958918 0.226004 0.490914)
(-0.906392 0.0428209 0.544036)
(0.437373 0.000133777 -0.220317)
(0.46159 -0.0123128 -0.237451)
(0.492348 -0.0034068 -0.241427)
(0.468832 0.0101343 -0.267765)
(0.457182 -0.00136222 -0.279457)
(0.452715 -0.00214438 -0.268009)
(-0.00185372 -0.0590855 -1.94785)
(0.0573721 -0.171253 -2.00146)
(0.00307922 -0.185148 -2.04707)
(-0.110515 -0.128186 -2.05246)
(-0.159087 -0.0558491 -2.1327)
(-0.200617 0.000205579 -2.10383)
(0.329652 -0.00103851 -0.49028)
(0.321134 -0.0159104 -0.453399)
(0.236064 0.0284151 -0.326277)
(0.325 0.118679 -0.270611)
(0.41055 0.094689 -0.26963)
(0.414656 0.0199101 -0.310929)
(0.252534 0.000254148 0.0972422)
(0.260226 0.000687575 0.095915)
(0.257501 0.00298422 0.0922468)
(0.256139 0.00364341 0.0991718)
(0.254338 -0.00029727 0.0977578)
(0.254102 -0.000726935 0.0882049)
(0.192504 -0.0185789 -0.825137)
(0.150187 -0.0615097 -0.859041)
(0.0643011 -0.100293 -0.882631)
(0.00218825 -0.0966212 -0.864825)
(-0.0421763 -0.0642954 -0.857869)
(-0.0432987 -0.0242295 -0.829955)
(-0.167243 0.00438348 -0.568999)
(-0.170867 0.0121346 -0.584809)
(-0.187835 0.0281581 -0.544498)
(-0.16513 0.0380346 -0.522217)
(-0.119342 0.0230106 -0.511687)
(-0.103988 0.00470772 -0.498746)
(-0.24899 -0.00171458 0.11007)
(-0.244419 -0.00314166 0.108801)
(-0.243199 -0.00216037 0.106844)
(-0.24527 -0.0018538 0.108986)
(-0.245825 -0.00443168 0.11039)
(-0.237764 -0.0028506 0.0994829)
(0.00757213 -0.019557 -0.93122)
(0.0214295 -0.0421087 -0.938988)
(0.00717245 -0.0413308 -0.93833)
(-0.0186538 -0.0378116 -0.940303)
(-0.0224218 -0.0291693 -0.940305)
(-0.0251716 -0.00980936 -0.932707)
(0.143175 0.000292349 -0.749268)
(0.147272 0.00761559 -0.756359)
(0.146474 0.0179005 -0.737979)
(0.16646 0.0250541 -0.729959)
(0.178192 0.0205001 -0.72353)
(0.183832 0.00587148 -0.717611)
(-0.442977 -0.00538392 -0.167431)
(-0.437723 -0.00621844 -0.169487)
(-0.441182 -0.00121856 -0.171588)
(-0.445729 -0.00241403 -0.169339)
(-0.452123 -0.00935108 -0.168144)
(-0.440656 -0.00687331 -0.177436)
(-0.211494 -0.0260976 -1.77666)
(-0.185805 -0.034519 -1.80285)
(-0.195054 -0.00945262 -1.81386)
(-0.250793 -0.0208432 -1.77793)
(-0.269898 -0.0356036 -1.77019)
(-0.24176 -0.0168001 -1.77968)
(-0.363355 -0.00174512 -0.178423)
(-0.342216 0.00739713 -0.174001)
(-0.354991 0.0042795 -0.152691)
(-0.329357 -0.00398952 -0.133834)
(-0.30537 0.00191716 -0.111054)
(-0.282354 0.000204387 -0.105894)
(-1.69511 -0.00401444 -0.127204)
(-1.6393 -0.00395445 -0.116321)
(-1.67664 0.0067852 -0.117643)
(-1.66262 0.0156481 -0.136096)
(-1.6457 -0.00168691 -0.144578)
(-1.60588 -0.0107562 -0.127959)
(0.374303 -0.0114722 -2.91621)
(0.642863 -0.0195163 -2.79474)
(0.581761 0.0314006 -2.87784)
(0.421905 0.027235 -2.84257)
(0.466042 0.000783289 -2.86093)
(0.708049 -0.0202103 -2.59707)
(0.881829 -0.0129745 -0.83727)
(0.905014 0.00292033 -0.85852)
(0.879483 0.00218223 -0.823957)
(0.911685 -0.0356641 -0.866758)
(0.933433 -0.0235184 -0.942202)
(0.941343 -0.0179713 -0.841881)
(0.587751 0.243055 -1.38798)
(-0.509063 1.01924 -1.76047)
(0.134747 1.46159 -2.26652)
(0.399952 0.479693 -4.04629)
(0.252581 -0.228474 -5.20017)
(0.307819 -0.276074 -0.101286)
(0.53616 0.19308 -1.96771)
(-0.127153 0.321039 -3.59464)
(0.603238 0.550128 -1.87838)
(0.325887 -0.304228 -2.53528)
(0.302651 -0.4635 -3.56818)
(0.409191 -0.635269 -2.5855)
(0.0467096 0.170466 -2.03793)
(-0.103357 0.00483488 -2.74268)
(0.704969 -0.0882425 -0.77018)
(0.0979117 -0.0901808 -2.33246)
(-0.0865715 0.00940795 -3.26179)
(0.0861761 -0.163969 -2.41239)
(-0.512313 0.452223 -2.48416)
(-0.377099 0.844583 -4.39129)
(-0.278513 0.933159 -4.73347)
(0.240515 0.572922 -4.46349)
(0.462836 -0.385945 -4.56997)
(-1.40369 -0.111028 -1.79982)
(0.500105 0.307944 -3.53053)
(0.337189 0.392878 -4.25497)
(0.0889706 0.0390985 -4.08881)
(0.351281 -0.381062 -3.82508)
(0.760616 -0.46109 -4.40754)
(0.643082 -0.323668 -3.64513)
(-0.0149474 0.0469202 -3.33775)
(-0.0284204 0.100683 -3.44399)
(-0.0148919 -0.0660797 -3.6342)
(-0.00905681 -0.107847 -3.73451)
(-0.010604 -0.0816171 -3.75914)
(0.161476 -0.0852445 -3.24163)
(-1.90165 0.790197 0.209468)
(-1.38211 1.50799 -3.21983)
(-1.36157 1.40256 -4.31865)
(-0.782942 0.660668 -4.73525)
(-0.116613 -0.774028 -3.33064)
(-2.5298 -0.0715073 0.274621)
(1.0546 0.612735 -3.01299)
(0.709412 0.663591 -4.57658)
(0.262011 0.221996 -4.07072)
(0.348584 -0.635521 -3.82415)
(1.24714 -0.882943 -4.24083)
(0.916842 -0.476436 -2.83815)
(0.370567 0.130179 -2.69703)
(0.151496 0.0394926 -3.16687)
(0.316648 -0.164358 -3.19797)
(0.251478 -0.174014 -3.55252)
(0.387432 -0.168408 -3.46983)
(0.719636 -0.0957372 -2.8372)
(-1.80244 1.17084 0.676961)
(-1.96381 2.45297 -2.33624)
(-2.45885 2.1683 -5.81875)
(-1.28915 0.519246 -8.79559)
(-1.21491 -1.29567 -3.2081)
(-3.07176 -0.255111 3.0588)
(0.901303 0.618718 -3.47912)
(0.117809 0.976441 -4.93894)
(-0.841317 0.56648 -4.59448)
(0.0662202 -1.20227 -3.55954)
(1.40921 -1.73475 -3.03931)
(0.472938 -0.823458 -1.77301)
(0.547049 0.0369834 -2.54676)
(0.347196 -0.0380638 -3.23843)
(0.359894 -0.331916 -3.53725)
(0.379452 -0.461507 -3.62105)
(0.944923 -0.408366 -2.88921)
(0.977339 -0.158592 -2.34677)
(0.309596 1.21808 -0.0523218)
(-2.1377 0.900874 -3.90559)
(-3.79602 0.155901 -5.90425)