/*--------------------------------*- C++ -*----------------------------------*\
| =========                 |                                                 |
| \\      /  F ield         | OpenFOAM: The Open Source CFD Toolbox           |
|  \\    /   O peration     | Version:  v1612+                                |
|   \\  /    A nd           | Web:      www.OpenFOAM.com                      |
|    \\/     M anipulation  |                                                 |
\*---------------------------------------------------------------------------*/
FoamFile
{
    version     2.0;
    format      ascii;
    class       volScalarField;
    location    "8.25";
    object      alpha.water;
}
// * * * * * * * * * * * * * * * * * * * * * * * * * * * * * * * * * * * * * //

dimensions      [0 0 0 0 0 0 0];

internalField   nonuniform List<scalar> 
320
(
1
1
1
1
1.89677e-05
2.03546e-05
1.94997e-05
1.97917e-05
2.07774e-05
2.03107e-05
2.07115e-05
2.06336e-05
1.99637e-05
1.83304e-05
1.63249e-05
1.88327e-05
0.999979
0.999977
0.999978
0.99998
0.999978
0.999979
0.999978
0.999976
0.999976
0.999978
0.999987
0.999979
1
1
1
1
1
1
1
1
1
1
1
1
1
1
1
1
1
1
1
1
1
1
1
1
1
1
1
1
1.91849e-05
1.94759e-05
1.80451e-05
1.87054e-05
1.58081e-05
1.56066e-05
1.61828e-05
1.58493e-05
1.94767e-05
1.86491e-05
1.61393e-05
1.49973e-05
1.98856e-05
1.71005e-05
1.57602e-05
1.59779e-05
1.63218e-05
1.80057e-05
1.93595e-05
1.75243e-05
0.999978
0.999977
0.999987
0.99998
0.999989
0.999991
0.999993
0.999992
0.999979
0.999982
0.999993
0.999991
0.999978
0.999988
0.99999
0.99999
0.999989
0.999985
0.999976
0.999988
1
1
1
1
1
1
1
1
1
1
1
1
1
1
1
1
1
1
1
1
1
1
1
1
1
1
1
1
1
1
1
1
1
1
1
1
1
1
1
1
1
1
1
1
1
1
1
1
1
1
1
1
1
1
1
1
1
1
1
1
1
1
1
1
1
1
1
1
1
1
1
1
1
1
1
1
2.03966e-05
1.96796e-05
1.93787e-05
1.80451e-05
1.89742e-05
1.86637e-05
2.0997e-05
1.88419e-05
2.04116e-05
2.0123e-05
1.96079e-05
1.9874e-05
2.20079e-05
1.90291e-05
2.03212e-05
2.0911e-05
1.92748e-05
1.96396e-05
1.88521e-05
2.01752e-05
2.11918e-05
2.02212e-05
2.10044e-05
1.94022e-05
2.08301e-05
2.08332e-05
2.0369e-05
2.34366e-05
0.99998
0.999978
0.999978
0.999984
0.999984
0.999984
0.999973
0.999982
0.999984
0.999978
0.999978
0.99998
0.999977
0.999983
0.99998
0.999976
0.999977
0.99998
0.999982
0.999975
0.999977
0.999976
0.999973
0.999978
0.99998
0.999979
0.999978
0.999974
1
1
1
1
1
1
1
1
1
1
1
1
1
1
1
1
1
1
1
1
1
1
1
1
1
1
1
1
1
1
1
1
1
1
1
1
1
1
1
1
1
1
1
1
1
1
1
1
1
1
1
1
1
1
1
1
1
1
1
1
1
1
1
1
1
1
1
1
1
1
1
1
1
1
1
1
1
1
1
1
1
1
1
1
2.04409e-05
2.07578e-05
1.9804e-05
2.12658e-05
0.999977
0.999975
0.999977
0.999973
)
;

boundaryField
{
    top_fluid_surface
    {
        type            inletOutlet;
        inletValue      uniform 0;
        value           nonuniform List<scalar> 
64
(
0
0
0
0
0
0
0
0
0
1.83304e-05
1.63249e-05
1.88327e-05
0
0
1.80451e-05
0
1.58081e-05
1.56066e-05
1.61828e-05
1.58493e-05
0
0
1.61393e-05
1.49973e-05
0
1.71005e-05
1.57602e-05
1.59779e-05
1.63218e-05
1.80057e-05
1.93595e-05
1.75243e-05
0
0
0
1.80451e-05
1.89742e-05
1.86637e-05
0
0
0
0
0
0
0
1.90291e-05
0
0
0
0
1.88521e-05
0
0
0
0
1.94022e-05
0
0
0
0
0
0
0
0
)
;
    }
    bottom_fluid_surface
    {
        type            zeroGradient;
    }
    lateral_surface_1
    {
        type            zeroGradient;
    }
    lateral_surface_2
    {
        type            zeroGradient;
    }
    lateral_surface_3
    {
        type            zeroGradient;
    }
    lateral_surface_4
    {
        type            zeroGradient;
    }
}


// ************************************************************************* //
