/*--------------------------------*- C++ -*----------------------------------*\
| =========                 |                                                 |
| \\      /  F ield         | OpenFOAM: The Open Source CFD Toolbox           |
|  \\    /   O peration     | Version:  v1612+                                |
|   \\  /    A nd           | Web:      www.OpenFOAM.com                      |
|    \\/     M anipulation  |                                                 |
\*---------------------------------------------------------------------------*/
FoamFile
{
    version     2.0;
    format      ascii;
    class       volScalarField;
    location    "0.4";
    object      p;
}
// * * * * * * * * * * * * * * * * * * * * * * * * * * * * * * * * * * * * * //

dimensions      [0 2 -2 0 0 0 0];

internalField   nonuniform List<scalar> 
320
(
-2.17913e-07
0.00382317
-4.35557e-07
0.00382313
-0.000926956
0.00474116
0.0113068
0.011307
0.011307
0.0113068
0.00474115
-0.000926969
-0.00748743
-0.00748763
-0.00748762
-0.00748743
-0.000275696
0.00409052
0.00854871
0.00854866
0.00854865
0.00854869
0.00409049
-0.000275726
-0.0047315
-0.00473144
-0.00473143
-0.00473149
-4.15915e-07
0.00382312
0.00766228
0.00766237
0.00766236
0.00766226
0.00382309
-4.79552e-07
-0.00383765
-0.00383771
-0.00383768
-0.00383763
0.000357116
0.00346723
0.000357073
0.00346721
0.00035707
0.00346722
0.00645679
0.00645677
0.00645676
0.00645677
0.00346719
0.000357033
-0.00263117
-0.00263113
-0.00263111
-0.00263115
-0.00748725
-0.000926985
0.00474118
0.0113066
0.0161931
0.0161929
0.0161927
0.0161927
0.0161929
0.0161931
0.0113066
0.00474117
-0.000926993
-0.00748726
-0.0123663
-0.0123661
-0.0123658
-0.0123658
-0.0123661
-0.0123663
-0.00473152
-0.000275749
0.00409054
0.00854873
0.0120605
0.0120602
0.0120599
0.0120599
0.0120602
0.0120605
0.00854871
0.00409052
-0.00027577
-0.00473153
-0.00824372
-0.00824345
-0.00824311
-0.00824311
-0.00824345
-0.00824373
-0.00383755
-4.51355e-07
0.00382308
0.00766217
0.0108193
0.0108194
0.0108194
0.0108194
0.0108194
0.0108193
0.00766215
0.00382306
-4.80024e-07
-0.00383756
-0.00699153
-0.00699154
-0.00699153
-0.00699153
-0.00699153
-0.00699152
-0.00263119
0.00035704
0.00346723
0.00645682
0.00884967
0.00884958
0.00884949
0.00884948
0.00884956
0.00884964
0.00645679
0.00346719
0.000357009
-0.00263121
-0.00502185
-0.00502175
-0.00502166
-0.00502165
-0.00502174
-0.00502184
0.000498971
0.00332661
0.000498959
0.0033266
0.000498966
0.00332661
0.00602499
0.006025
0.00602499
0.00602498
0.00332658
0.00049894
-0.00219828
-0.00219828
-0.00219827
-0.00219827
-0.00219826
0.000498958
0.0033266
0.00602498
0.00820421
0.0082042
0.00820421
0.0082042
0.00820419
0.00820418
0.00602495
0.00332657
0.000498932
-0.00219828
-0.00437566
-0.00437565
-0.00437565
-0.00437564
-0.00437565
-0.00437565
-0.012369
-0.00748517
-0.00092729
0.00474152
0.0113046
0.0161959
0.0337601
0.0337644
0.0337647
0.0337651
0.0337651
0.0337647
0.0337644
0.0337601
0.0161958
0.0113046
0.0047415
-0.000927306
-0.00748517
-0.012369
-0.0299181
-0.0299223
-0.0299226
-0.0299231
-0.0299231
-0.0299226
-0.0299223
-0.0299181
-0.00824626
-0.00473173
-0.000276056
0.00409087
0.00854895
0.0120631
0.0170129
0.0170104
0.0170102
0.0170099
0.0170099
0.0170102
0.0170104
0.0170129
0.012063
0.00854893
0.00409085
-0.000276075
-0.00473173
-0.00824625
-0.0131804
-0.0131778
-0.0131776
-0.0131774
-0.0131774
-0.0131776
-0.0131778
-0.0131804
-0.0069916
-0.00383683
-4.03645e-07
0.00382302
0.00766144
0.0108194
0.014809
0.0148114
0.0148116
0.0148119
0.0148119
0.0148116
0.0148113
0.014809
0.0108194
0.00766141
0.00382299
-4.23162e-07
-0.00383684
-0.0069916
-0.0109764
-0.0109787
-0.0109789
-0.0109792
-0.0109792
-0.0109789
-0.0109787
-0.0109764
-0.00502246
-0.00263131
0.000356957
0.0034673
0.00645694
0.00885028
0.0107572
0.0107567
0.0107566
0.0107565
0.0107565
0.0107566
0.0107566
0.0107572
0.00885025
0.00645691
0.00346727
0.000356931
-0.00263133
-0.00502246
-0.00692518
-0.00692462
-0.00692453
-0.00692446
-0.00692446
-0.00692453
-0.00692461
-0.00692517
-0.00437566
-0.00219818
0.000498945
0.0033266
0.0060249
0.00820422
0.00981151
0.00981197
0.00981203
0.00981209
0.00981209
0.00981202
0.00981195
0.00981149
0.00820419
0.00602487
0.00332658
0.000498926
-0.00219821
-0.00437567
-0.00598069
-0.00598114
-0.00598119
-0.00598125
-0.00598125
-0.00598119
-0.00598113
-0.00598068
-0.000926945
0.00474116
-0.000926953
0.00474115
-0.000275625
0.00409049
-0.000275666
0.00409047
)
;

boundaryField
{
    top_fluid_surface
    {
        type            zeroGradient;
    }
    bottom_fluid_surface
    {
        type            zeroGradient;
    }
    lateral_surface_1
    {
        type            zeroGradient;
    }
    lateral_surface_2
    {
        type            zeroGradient;
    }
    lateral_surface_3
    {
        type            zeroGradient;
    }
    lateral_surface_4
    {
        type            zeroGradient;
    }
}


// ************************************************************************* //
