/*--------------------------------*- C++ -*----------------------------------*\
| =========                 |                                                 |
| \\      /  F ield         | OpenFOAM: The Open Source CFD Toolbox           |
|  \\    /   O peration     | Version:  v1612+                                |
|   \\  /    A nd           | Web:      www.OpenFOAM.com                      |
|    \\/     M anipulation  |                                                 |
\*---------------------------------------------------------------------------*/
FoamFile
{
    version     2.0;
    format      ascii;
    class       surfaceScalarField;
    location    "0.4";
    object      phi;
}
// * * * * * * * * * * * * * * * * * * * * * * * * * * * * * * * * * * * * * //

dimensions      [0 3 -1 0 0 0 0];

internalField   nonuniform List<scalar> 
816
(
-0.00151056
1.106e-09
-1.23529e-10
0.0014779
-0.000120456
0.000153124
2.19212e-10
1.28287e-09
-0.00147815
0.000120181
-0.000152591
-0.00151056
-8.93923e-10
0.0014779
-0.000120457
0.000153124
-0.00147815
1.21465e-09
0.000120181
-0.000152591
0.00565534
-0.00548775
-0.000167592
9.95837e-10
1.71719e-09
0.00548814
0.000167205
-1.99787e-09
-1.37003e-09
-2.48178e-08
0.000636715
9.8973e-08
0.00485135
3.11595e-11
0.000636736
0.00485136
-0.00548812
2.48456e-08
0.000636736
0.00485136
-0.00548812
-0.00548814
0.000636715
0.00485135
9.89722e-08
-0.00565534
0.000167205
-2.01225e-09
-1.38043e-09
-0.00548775
-0.000167592
9.63216e-10
1.69431e-09
2.49795e-08
-0.000636884
-9.94681e-08
-0.00485079
-4.29502e-11
-0.000636904
-0.00485081
0.00548773
-2.49952e-08
-0.000636904
-0.00485081
0.00548773
-0.000636884
-9.9471e-08
-0.00485079
-0.00177979
0.00176532
-0.000153126
1.49685e-08
-5.09992e-09
-0.00176517
0.000152593
-1.58881e-08
5.27604e-09
1.08979e-08
0.000525831
-2.64549e-08
-0.00165427
4.81978e-11
0.000525829
-0.00165424
0.00176516
-1.08673e-08
0.000525829
-0.00165424
0.00176516
0.00176517
0.000525831
-0.00165427
-2.64527e-08
0.0017798
0.000152593
-1.58836e-08
5.27713e-09
0.00176532
-0.000153126
1.49127e-08
-5.04476e-09
-1.06465e-08
-0.000526211
2.56382e-08
0.00165463
-8.63396e-11
-0.000526209
0.0016546
-0.00176531
1.06236e-08
-0.000526209
0.0016546
-0.00176531
-0.000526211
2.56455e-08
0.00165463
-0.00151056
0.00147789
-0.000120457
-2.38922e-09
-0.00147815
0.00012018
2.59454e-09
-7.81812e-09
0.00038685
2.58497e-08
-0.00133919
6.11634e-11
0.000386854
-0.00133919
7.83976e-09
0.000386854
-0.00133919
0.00147815
0.00038685
-0.00133919
2.58354e-08
0.00151056
0.00012018
2.54006e-09
0.00147789
-0.000120457
-2.58085e-09
7.69481e-09
-0.000387053
-2.58004e-08
0.00133875
-2.11457e-10
-0.000387056
0.00133875
-7.65503e-09
-0.000387056
0.00133875
-0.000387053
-2.57287e-08
0.00133875
-0.00124744
2.24261e-10
1.28357e-09
0.00118849
-6.15128e-05
8.544e-11
-1.0836e-09
-0.00118865
6.13932e-05
-0.00124744
1.23834e-09
0.00118849
-6.15129e-05
-0.00118865
-1.05971e-09
6.13931e-05
-0.00124744
0.00118849
3.09652e-09
-6.15135e-05
-0.00118865
-3.01782e-09
6.13938e-05
2.77249e-09
-6.02599e-09
-0.000993992
0.000192196
4.3229e-11
-0.000993985
0.000192195
-2.73645e-09
-0.000993985
0.000192195
0.00118865
-0.000993992
-6.01167e-09
0.000192196
0.00124744
-3.02756e-09
6.13938e-05
0.00118849
3.03804e-09
-6.15136e-05
-2.85601e-09
6.10332e-09
0.000993712
-0.000192275
-8.15569e-11
0.000993705
-0.000192274
2.82414e-09
0.000993705
-0.000192274
6.11332e-09
0.000993712
-0.000192275
0.00548774
-0.00485075
-0.00063686
-2.20156e-07
0.00565532
-0.000167588
7.92321e-09
0.00548812
0.000167202
-1.0234e-08
0.00485131
0.000636691
2.19155e-07
1.57243e-07
0.00108684
-3.43403e-07
0.00376465
3.91655e-08
0.00108685
0.00376462
2.46711e-11
0.00108684
0.00376456
-3.91391e-08
0.00108684
0.00376456
-1.57234e-07
0.00108685
0.00376462
-0.00485131
0.00108684
0.00376465
-3.4341e-07
-0.00548812
0.000636691
2.19149e-07
-0.00565532
0.000167202
-1.02193e-08
-0.00548774
-0.000167588
7.9393e-09
-0.00485075
-0.00063686
-2.20156e-07
-1.57421e-07
-0.00108675
3.43815e-07
-0.00376419
-3.9228e-08
-0.00108675
-0.00376416
-2.40367e-11
-0.00108675
-0.0037641
3.91946e-08
-0.00108675
-0.0037641
1.57428e-07
-0.00108675
-0.00376416
-0.00108675
3.43829e-07
-0.00376419
-0.00176532
0.00165465
-0.00052621
4.48339e-08
-0.0017798
-0.000153127
3.07328e-08
-0.00176518
0.000152595
-3.26682e-08
-0.00165429
0.00052583
-4.65715e-08
1.62063e-07
0.000890708
-3.26789e-07
-0.00145799
5.26273e-08
0.000890684
-0.001458
2.77295e-11
0.000890653
-0.001458
-5.26026e-08
0.000890653
-0.001458
-1.62055e-07
0.000890684
-0.001458
0.00165429
0.000890708
-0.00145799
-3.26804e-07
0.00176518
0.00052583
-4.65859e-08
0.0017798
0.000152595
-3.26774e-08
0.00176532
-0.000153127
3.07261e-08
0.00165465
-0.00052621
4.48252e-08
-1.60939e-07
-0.000890914
3.24019e-07
0.00145865
-5.2386e-08
-0.000890889
0.00145866
-4.5474e-11
-0.000890858
0.00145866
5.23366e-08
-0.000890858
0.00145866
1.6095e-07
-0.000890889
0.00145866
-0.000890914
3.24035e-07
0.00145865
-0.00147788
0.00133874
-0.000387045
-5.58865e-08
-0.00151055
-0.000120456
-4.60065e-09
-0.00147813
0.000120179
4.46647e-09
-0.00133918
0.000386843
5.59054e-08
6.45669e-09
0.00065916
-1.52323e-08
-0.00110762
1.12173e-09
0.000659156
-0.00110765
3.37419e-11
0.000659149
-0.00110768
-1.09574e-09
0.000659149
-0.00110768
-6.44783e-09
0.000659156
-0.00110765
0.00133918
0.00065916
-0.00110762
-1.52215e-08
0.00147813
0.000386843
5.59136e-08
0.00151055
0.000120179
4.44142e-09
0.00147788
-0.000120456
-4.65432e-09
0.00133874
-0.000387045
-5.5897e-08
-6.70607e-09
-0.00065929
1.56595e-08
0.00110711
-1.26928e-09
-0.000659286
0.00110714
-6.14875e-11
-0.000659279
0.00110717
1.22645e-09
-0.000659279
0.00110717
6.71567e-09
-0.000659286
0.00110714
-0.00065929
1.56648e-08
0.00110711
-0.00118849
0.000993715
-0.000192275
1.0736e-08
-0.00124743
-6.1514e-05
6.04197e-09
-0.00118865
6.13942e-05
-6.07908e-09
-0.000993995
0.000192196
-1.06744e-08
2.88335e-08
0.000323401
-5.78231e-08
-0.000658207
1.0131e-08
0.000323396
-0.000658213
2.03849e-11
0.00032339
-0.000658216
-1.00866e-08
0.00032339
-0.000658216
-2.87858e-08
0.000323396
-0.000658213
0.000993995
0.000323401
-0.000658207
-5.78311e-08
0.00118865
0.000192196
-1.06739e-08
0.00124743
6.13942e-05
-6.10004e-09
0.00118849
-6.1514e-05
6.01965e-09
0.000993715
-0.000192275
1.07354e-08
-2.90368e-08
-0.000323406
5.81271e-08
0.000657802
-1.02521e-08
-0.000323401
0.000657808
-4.83459e-11
-0.000323395
0.000657811
1.02061e-08
-0.000323395
0.000657811
2.90026e-08
-0.000323401
0.000657808
-0.000323406
5.81291e-08
0.000657802
-0.00111755
5.18013e-11
3.27103e-10
0.00105604
3.92375e-11
-2.67922e-10
-0.00105616
-0.00111755
3.59368e-10
0.00105604
-0.00105616
-2.41764e-10
-0.00111755
0.00105604
7.56554e-10
-0.00105616
-6.7764e-10
-1.52907e-10
1.20203e-09
-0.000863964
1.90576e-11
-0.000863965
1.86727e-10
-0.000863965
0.00105616
-0.000863964
1.22446e-09
0.00111755
-6.76931e-10
0.00105604
7.45464e-10
7.05114e-11
-1.0809e-09
0.000863765
-3.86533e-11
0.000863766
-1.07843e-10
0.000863766
-1.07884e-09
0.000863765
-0.00105603
0.00086376
-3.10337e-09
-0.00111755
1.27496e-09
-0.00105615
-1.20396e-09
-0.000863958
3.23584e-09
1.48893e-09
-2.99026e-09
-0.000540556
4.20172e-10
-0.000540567
2.43693e-11
-0.000540575
-3.81631e-10
-0.000540575
-1.44861e-09
-0.000540567
0.000863958
-0.000540556
-2.99396e-09
0.00105615
3.24274e-09
0.00111755
-1.21879e-09
0.00105603
1.25824e-09
0.00086376
-3.08094e-09
-1.71869e-09
3.34007e-09
0.000540352
-5.43458e-10
0.000540363
-4.44518e-11
0.00054037
5.12958e-10
0.00054037
1.67984e-09
0.000540363
3.34652e-09
0.000540352
0.00483162
-0.00374866
-0.00108262
0.00546572
-0.000634318
0.00563268
-0.000166956
0.0054661
0.000166572
0.00483217
0.00063415
0.00374911
0.00108271
-5.88029e-07
0.0037497
-2.79741e-07
0.00376434
-7.80178e-08
0.00376442
2.85249e-11
0.00376448
7.80623e-08
0.00376448
2.79746e-07
0.00376442
5.88013e-07
0.00376434
-0.00374911
0.0037497
-0.00483217
0.00108271
-0.0054661
0.00063415
-0.00563268
0.000166572
-0.00546572
-0.000166956
-0.00483162
-0.000634318
-0.00374866
-0.00108262
5.83912e-07
-0.00374924
2.77808e-07
-0.00376388
7.73671e-08
-0.00376396
-2.61468e-11
-0.00376402
-7.74152e-08
-0.00376402
-2.77802e-07
-0.00376396
-5.83868e-07
-0.00376388
-0.00374924
-0.00164802
0.00145305
-0.000887323
-0.00175826
-0.000524032
-0.00177267
-0.000152515
-0.00175812
0.000151985
-0.00164767
0.000523654
-0.0014524
0.000887117
3.25945e-07
0.00229697
1.50355e-07
0.00230653
3.80768e-08
0.00230653
2.67378e-11
0.00230652
-3.80345e-08
0.00230652
-1.50373e-07
0.00230653
-3.2596e-07
0.00230653
0.0014524
0.00229697
0.00164767
0.000887117
0.00175812
0.000523654
0.00177267
0.000151985
0.00175826
-0.000152515
0.00164802
-0.000524032
0.00145305
-0.000887323
-3.27558e-07
-0.00229586
-1.51199e-07
-0.00230541
-3.83973e-08
-0.00230541
-3.34182e-11
-0.0023054
3.8345e-08
-0.0023054
1.51206e-07
-0.00230541
3.2761e-07
-0.00230541
-0.00229586
-0.00133333
0.00110272
-0.000656697
-0.00147193
-0.000385485
-0.00150447
-0.000119978
-0.00147218
0.000119702
-0.00133376
0.000385283
-0.00110322
0.000656567
-2.70959e-07
0.00119402
-1.31381e-07
0.00119877
-4.07222e-08
0.00119879
2.1585e-11
0.0011988
4.07592e-08
0.0011988
1.31382e-07
0.00119879
2.70963e-07
0.00119877
0.00110322
0.00119402
0.00133376
0.000656567
0.00147218
0.000385283
0.00150447
0.000119702
0.00147193
-0.000119978
0.00133333
-0.000385485
0.00110272
-0.000656697
2.69762e-07
-0.00119342
1.30718e-07
-0.00119816
4.04313e-08
-0.00119818
-3.335e-11
-0.00119819
-4.04553e-08
-0.00119819
-1.30731e-07
-0.00119818
-2.69735e-07
-0.00119816
-0.00119342
-0.000989754
0.00065522
-0.000322104
-0.00118373
-0.000191494
-0.00124244
-6.12679e-05
-0.00118389
6.11483e-05
-0.000990033
0.000191415
-0.000655623
0.000322098
3.27893e-08
0.000538365
1.4055e-08
0.000540581
3.71337e-09
0.000540584
2.0664e-11
0.000540584
-3.66892e-09
0.000540584
-1.40206e-08
0.000540584
-3.278e-08
0.000540581
0.000655623
0.000538365
0.000990033
0.000322098
0.00118389
0.000191415
0.00124244
6.11483e-05
0.00118373
-6.12679e-05
0.000989754
-0.000191494
0.00065522
-0.000322104
-3.39318e-08
-0.000538161
-1.46724e-08
-0.000540377
-3.97222e-09
-0.000540379
-3.2692e-11
-0.00054038
3.93599e-09
-0.00054038
1.46367e-08
-0.000540379
3.39241e-08
-0.000540377
-0.000538161
-0.000860313
0.000538212
-0.00105181
-0.00111308
-0.00105193
-0.000860512
-0.000538416
-5.17566e-08
-2.66817e-08
-9.70079e-09
1.17312e-11
9.74755e-09
2.67132e-08
5.17697e-08
0.000538416
0.000860512
0.00105193
0.00111308
0.00105181
0.000860313
0.000538212
5.10879e-08
2.62773e-08
9.50399e-09
-2.94742e-11
-9.53165e-09
-2.63034e-08
-5.111e-08
0.00565533
6.092e-11
-0.000167596
4.31303e-11
0.000167208
0.00565533
-0.000167596
0.000167209
-0.00177978
2.19414e-10
8.40143e-11
-0.00177978
)
;

boundaryField
{
    top_fluid_surface
    {
        type            calculated;
        value           uniform 0;
    }
    bottom_fluid_surface
    {
        type            calculated;
        value           uniform 0;
    }
    lateral_surface_1
    {
        type            calculated;
        value           uniform 0;
    }
    lateral_surface_2
    {
        type            calculated;
        value           uniform 0;
    }
    lateral_surface_3
    {
        type            calculated;
        value           uniform 0;
    }
    lateral_surface_4
    {
        type            calculated;
        value           uniform 0;
    }
}


// ************************************************************************* //
