/*--------------------------------*- C++ -*----------------------------------*\
| =========                 |                                                 |
| \\      /  F ield         | OpenFOAM: The Open Source CFD Toolbox           |
|  \\    /   O peration     | Version:  v1612+                                |
|   \\  /    A nd           | Web:      www.OpenFOAM.com                      |
|    \\/     M anipulation  |                                                 |
\*---------------------------------------------------------------------------*/
FoamFile
{
    version     2.0;
    format      ascii;
    class       volVectorField;
    location    "0.4";
    object      U;
}
// * * * * * * * * * * * * * * * * * * * * * * * * * * * * * * * * * * * * * //

dimensions      [0 1 -1 0 0 0 0];

internalField   nonuniform List<vector> 
320
(
(-0.00150334 6.32552e-10 0.000134567)
(-0.00150347 -5.40505e-10 -0.000134064)
(-0.00150334 1.04401e-10 0.000134567)
(-0.00150347 7.40014e-10 -0.000134064)
(0.00557852 2.2664e-09 0.000118374)
(0.00557838 -1.72962e-09 -0.000117891)
(0.00557409 -3.04248e-08 -0.000466736)
(0.00557411 -1.46256e-08 -0.000466757)
(0.00557411 1.46699e-08 -0.000466757)
(0.00557409 3.04429e-08 -0.000466736)
(0.00557838 1.72371e-09 -0.000117891)
(0.00557852 -2.28416e-09 0.000118373)
(0.00557304 -3.067e-08 0.000467099)
(0.00557307 -1.47112e-08 0.00046712)
(0.00557307 1.47644e-08 0.00046712)
(0.00557304 3.06786e-08 0.000467099)
(-0.00178154 -6.19461e-09 0.000188664)
(-0.0017815 6.56265e-09 -0.000188318)
(-0.00167841 1.32246e-08 -0.000690705)
(-0.00167838 6.7186e-09 -0.000690716)
(-0.00167838 -6.65267e-09 -0.000690716)
(-0.00167841 -1.3211e-08 -0.000690705)
(-0.0017815 -6.559e-09 -0.000188318)
(-0.00178154 6.11821e-09 0.000188664)
(-0.00167884 1.28566e-08 0.000690808)
(-0.00167881 6.59973e-09 0.000690818)
(-0.00167881 -6.50026e-09 0.000690818)
(-0.00167884 -1.28499e-08 0.000690808)
(-0.00150334 8.80457e-10 0.000134569)
(-0.00150346 -1.6035e-09 -0.000134067)
(-0.00140186 -1.00141e-08 -0.000431065)
(-0.00140186 -4.18018e-09 -0.00043106)
(-0.00140186 4.25605e-09 -0.00043106)
(-0.00140186 1.00146e-08 -0.000431065)
(-0.00150346 1.50719e-09 -0.000134067)
(-0.00150334 -1.38511e-09 0.000134569)
(-0.0014015 -9.94916e-09 0.000431493)
(-0.0014015 -4.03015e-09 0.000431488)
(-0.0014015 4.23908e-09 0.000431488)
(-0.0014015 9.86194e-09 0.000431493)
(-0.00123198 -6.03935e-10 9.47654e-05)
(-0.00123206 6.64089e-10 -9.46118e-05)
(-0.00123198 8.20961e-10 9.47659e-05)
(-0.00123206 -5.66984e-10 -9.46117e-05)
(-0.00123198 -1.5517e-09 9.47651e-05)
(-0.00123206 1.3915e-09 -9.46109e-05)
(-0.00110357 3.47057e-09 -0.000302382)
(-0.00110356 1.61687e-09 -0.000302386)
(-0.00110356 -1.54888e-09 -0.000302386)
(-0.00110357 -3.45587e-09 -0.000302382)
(-0.00123206 -1.39186e-09 -9.46109e-05)
(-0.00123198 1.46682e-09 9.47652e-05)
(-0.00110335 3.5431e-09 0.000302472)
(-0.00110335 1.67766e-09 0.000302476)
(-0.00110335 -1.5762e-09 0.000302476)
(-0.00110335 -3.53952e-09 0.000302472)
(0.00557299 1.97132e-07 0.000467074)
(0.0055785 -5.21438e-09 0.000118369)
(0.00557836 7.2868e-09 -0.000117886)
(0.00557403 -1.96227e-07 -0.000466711)
(0.00357697 3.10129e-07 -0.000810883)
(0.00357696 4.72132e-08 -0.000810897)
(0.00357693 2.38413e-08 -0.000810904)
(0.00357693 -2.3809e-08 -0.000810904)
(0.00357696 -4.7183e-08 -0.000810897)
(0.00357697 -3.10131e-07 -0.000810883)
(0.00557403 1.96227e-07 -0.000466711)
(0.00557836 -7.28167e-09 -0.000117886)
(0.0055785 5.21109e-09 0.000118369)
(0.00557299 -1.97123e-07 0.000467074)
(0.00357702 3.10479e-07 0.000811651)
(0.00357701 4.72854e-08 0.000811665)
(0.00357698 2.3875e-08 0.000811672)
(0.00357698 -2.38297e-08 0.000811672)
(0.00357701 -4.72731e-08 0.000811665)
(0.00357702 -3.10491e-07 0.000811651)
(-0.00167886 -4.34275e-08 0.000690794)
(-0.00178153 -2.79692e-08 0.000188662)
(-0.0017815 2.97152e-08 -0.000188317)
(-0.00167843 4.4972e-08 -0.000690692)
(-0.00175322 3.01056e-07 -0.00117496)
(-0.00175321 6.42576e-08 -0.00117494)
(-0.00175319 3.16205e-08 -0.00117492)
(-0.00175319 -3.15759e-08 -0.00117492)
(-0.00175321 -6.4246e-08 -0.00117494)
(-0.00175322 -3.01062e-07 -0.00117496)
(-0.00167843 -4.49789e-08 -0.000690692)
(-0.0017815 -2.97154e-08 -0.000188317)
(-0.00178153 2.79493e-08 0.000188662)
(-0.00167886 4.34221e-08 0.000690794)
(-0.00175306 2.98688e-07 0.0011744)
(-0.00175305 6.39212e-08 0.00117438)
(-0.00175304 3.15017e-08 0.00117436)
(-0.00175304 -3.14169e-08 0.00117436)
(-0.00175305 -6.39174e-08 0.00117438)
(-0.00175306 -2.98701e-07 0.0011744)
(-0.0014015 4.97751e-08 0.000431495)
(-0.00150332 4.25437e-09 0.000134571)
(-0.00150345 -4.22921e-09 -0.000134069)
(-0.00140185 -4.98202e-08 -0.000431067)
(-0.00135836 1.36404e-08 -0.000725352)
(-0.00135838 9.71226e-10 -0.000725331)
(-0.0013584 1.03377e-09 -0.000725305)
(-0.0013584 -9.77708e-10 -0.000725305)
(-0.00135838 -9.67987e-10 -0.000725331)
(-0.00135836 -1.36293e-08 -0.000725352)
(-0.00140185 4.98178e-08 -0.000431067)
(-0.00150345 4.21208e-09 -0.000134069)
(-0.00150332 -4.37058e-09 0.000134571)
(-0.0014015 -4.97929e-08 0.000431495)
(-0.00135783 1.40357e-08 0.000725838)
(-0.00135785 1.1373e-09 0.000725817)
(-0.00135787 1.12621e-09 0.000725791)
(-0.00135787 -1.03356e-09 0.000725791)
(-0.00135785 -1.13606e-09 0.000725817)
(-0.00135783 -1.40374e-08 0.000725838)
(-0.00110335 -1.01506e-08 0.000302465)
(-0.00123197 -5.52205e-09 9.47636e-05)
(-0.00123205 5.53218e-09 -9.46093e-05)
(-0.00110357 1.00775e-08 -0.000302375)
(-0.000876744 5.29051e-08 -0.000518249)
(-0.000876747 1.27006e-08 -0.000518253)
(-0.000876747 5.78403e-09 -0.000518252)
(-0.000876747 -5.7273e-09 -0.000518252)
(-0.000876747 -1.26782e-08 -0.000518253)
(-0.000876744 -5.28843e-08 -0.00051825)
(-0.00110357 -1.00692e-08 -0.000302375)
(-0.00123205 -5.54132e-09 -9.46093e-05)
(-0.00123197 5.49738e-09 9.47636e-05)
(-0.00110335 1.01541e-08 0.000302465)
(-0.000876349 5.32045e-08 0.000518223)
(-0.000876353 1.28454e-08 0.000518226)
(-0.000876353 5.86231e-09 0.000518225)
(-0.000876353 -5.77827e-09 0.000518225)
(-0.000876353 -1.28252e-08 0.000518226)
(-0.000876349 -5.31857e-08 0.000518223)
(-0.00110181 -1.65462e-10 3.07595e-05)
(-0.00110187 1.84078e-10 -3.06965e-05)
(-0.00110181 2.41959e-10 3.07596e-05)
(-0.00110187 -1.31063e-10 -3.06965e-05)
(-0.00110181 -4.06573e-10 3.076e-05)
(-0.00110187 3.30863e-10 -3.0697e-05)
(-0.000974278 -2.50445e-10 -9.49647e-05)
(-0.000974278 -3.24298e-11 -9.4963e-05)
(-0.000974278 7.47349e-11 -9.4963e-05)
(-0.000974278 2.70183e-10 -9.49647e-05)
(-0.00110187 -3.28929e-10 -3.0697e-05)
(-0.00110181 4.01693e-10 3.07601e-05)
(-0.000974118 -1.59005e-10 9.50096e-05)
(-0.000974117 2.01967e-11 9.5008e-05)
(-0.000974117 4.087e-11 9.5008e-05)
(-0.000974118 1.70952e-10 9.50096e-05)
(-0.000974112 2.51492e-09 9.50111e-05)
(-0.00110181 -1.24179e-09 3.07605e-05)
(-0.00110187 1.1794e-09 -3.06974e-05)
(-0.000974273 -2.65676e-09 -9.49662e-05)
(-0.000735421 2.8069e-09 -0.000156048)
(-0.000735431 4.95271e-10 -0.000156042)
(-0.000735437 2.79967e-10 -0.000156036)
(-0.000735437 -2.2524e-10 -0.000156036)
(-0.000735431 -4.67564e-10 -0.000156042)
(-0.000735421 -2.79477e-09 -0.000156048)
(-0.000974273 2.67126e-09 -9.49662e-05)
(-0.00110187 -1.17443e-09 -3.06974e-05)
(-0.00110181 1.24191e-09 3.07605e-05)
(-0.000974112 -2.4953e-09 9.50111e-05)
(-0.000735199 3.14717e-09 0.000156059)
(-0.000735209 6.56705e-10 0.000156053)
(-0.000735215 3.52336e-10 0.000156048)
(-0.000735215 -2.87089e-10 0.000156048)
(-0.000735209 -6.25461e-10 0.000156053)
(-0.000735199 -3.13717e-09 0.000156059)
(0.00356271 -2.87068e-07 0.000808423)
(0.00555052 1.8118e-07 0.000465129)
(0.00555615 -6.30056e-09 0.000117904)
(0.00555601 8.01837e-09 -0.000117425)
(0.00555155 -1.80451e-07 -0.00046477)
(0.00356266 2.8675e-07 -0.000807662)
(0.00466169 -4.91501e-07 -0.00306472)
(0.00468023 -5.37232e-07 -0.00307731)
(0.00468018 -9.38728e-08 -0.00307739)
(0.00468011 -4.81303e-08 -0.00307746)
(0.00468011 4.81829e-08 -0.00307746)
(0.00468018 9.39015e-08 -0.00307739)
(0.00468023 5.37223e-07 -0.00307731)
(0.00466169 4.91487e-07 -0.00306472)
(0.00356266 -2.86766e-07 -0.000807662)
(0.00555155 1.80435e-07 -0.00046477)
(0.00555601 -8.02096e-09 -0.000117425)
(0.00555615 6.28898e-09 0.000117904)
(0.00555052 -1.81195e-07 0.000465129)
(0.00356271 2.87055e-07 0.000808423)
(0.00466043 -4.88369e-07 0.00306555)
(0.00467895 -5.33583e-07 0.00307814)
(0.00467891 -9.3015e-08 0.00307823)
(0.00467884 -4.77855e-08 0.0030783)
(0.00467884 4.78391e-08 0.0030783)
(0.00467891 9.30402e-08 0.00307823)
(0.00467895 5.33557e-07 0.00307814)
(0.00466043 4.88335e-07 0.00306555)
(-0.00174612 -2.6624e-07 0.00116976)
(-0.00167217 -3.71283e-08 0.000687959)
(-0.00177437 -2.47865e-08 0.000187923)
(-0.00177434 2.62425e-08 -0.000187579)
(-0.00167174 3.84358e-08 -0.000687857)
(-0.00174628 2.68399e-07 -0.00117032)
(-0.000953424 2.72388e-07 -0.00369554)
(-0.000957221 2.95072e-07 -0.00371055)
(-0.000957236 4.5899e-08 -0.00371059)
(-0.000957244 2.32303e-08 -0.00371061)
(-0.000957244 -2.3174e-08 -0.00371061)
(-0.000957236 -4.58939e-08 -0.00371059)
(-0.000957221 -2.95097e-07 -0.00371055)
(-0.000953424 -2.72394e-07 -0.00369554)
(-0.00174628 -2.68408e-07 -0.00117032)
(-0.00167174 -3.84481e-08 -0.000687857)
(-0.00177434 -2.62479e-08 -0.000187579)
(-0.00177437 2.47766e-08 0.000187923)
(-0.00167217 3.7118e-08 0.000687959)
(-0.00174612 2.66231e-07 0.00116976)
(-0.000955315 2.73636e-07 0.00369405)
(-0.000959131 2.96562e-07 0.00370904)
(-0.000959145 4.63141e-08 0.00370908)
(-0.000959154 2.34093e-08 0.0037091)
(-0.000959154 -2.33435e-08 0.0037091)
(-0.000959145 -4.62923e-08 0.00370908)
(-0.000959131 -2.96595e-07 0.00370904)
(-0.000955315 -2.73668e-07 0.00369405)
(-0.00135233 -1.39818e-08 0.00072296)
(-0.00139586 4.3999e-08 0.000429746)
(-0.00149724 3.42345e-09 0.000134035)
(-0.00149737 -3.31705e-09 -0.000133534)
(-0.00139621 -4.40259e-08 -0.00042932)
(-0.00135286 1.36724e-08 -0.000722476)
(-0.000699893 -2.2123e-07 -0.00131369)
(-0.000702782 -2.47634e-07 -0.00131893)
(-0.000702812 -5.02946e-08 -0.00131892)
(-0.000702837 -2.3873e-08 -0.0013189)
(-0.000702837 2.39255e-08 -0.0013189)
(-0.000702812 5.02967e-08 -0.00131892)
(-0.000702782 2.47631e-07 -0.00131893)
(-0.000699893 2.21243e-07 -0.00131369)
(-0.00135286 -1.36663e-08 -0.000722476)
(-0.00139621 4.40228e-08 -0.00042932)
(-0.00149737 3.29864e-09 -0.000133534)
(-0.00149724 -3.45342e-09 0.000134035)
(-0.00139586 -4.40214e-08 0.000429746)
(-0.00135233 1.39801e-08 0.00072296)
(-0.000699533 -2.20357e-07 0.00131276)
(-0.00070242 -2.46523e-07 0.00131799)
(-0.00070245 -4.99063e-08 0.00131798)
(-0.000702475 -2.37175e-08 0.00131796)
(-0.000702475 2.37722e-08 0.00131796)
(-0.00070245 4.99109e-08 0.00131798)
(-0.00070242 2.46516e-07 0.00131799)
(-0.000699533 2.20351e-07 0.00131276)
(-0.000872837 -4.61753e-08 0.000516143)
(-0.00109892 -8.2437e-09 0.000301227)
(-0.00122701 -4.72496e-09 9.43815e-05)
(-0.00122709 4.75346e-09 -9.42274e-05)
(-0.00109913 8.19161e-09 -0.000301137)
(-0.00087323 4.59646e-08 -0.000516169)
(-0.000374445 2.53778e-08 -0.000915079)
(-0.000375953 2.83833e-08 -0.000918823)
(-0.000375959 4.84133e-09 -0.000918848)
(-0.000375963 1.84998e-09 -0.000918866)
(-0.000375963 -1.8021e-09 -0.000918866)
(-0.000375959 -4.8123e-09 -0.000918848)
(-0.000375953 -2.83598e-08 -0.000918823)
(-0.000374445 -2.53631e-08 -0.000915079)
(-0.00087323 -4.59542e-08 -0.000516169)
(-0.00109913 -8.19243e-09 -0.000301137)
(-0.00122709 -4.76426e-09 -9.42274e-05)
(-0.00122701 4.70846e-09 9.43815e-05)
(-0.00109892 8.23652e-09 0.000301227)
(-0.000872837 4.61856e-08 0.000516143)
(-0.000374167 2.6234e-08 0.000914825)
(-0.000375674 2.94425e-08 0.000918568)
(-0.00037568 5.18344e-09 0.000918592)
(-0.000375684 1.99245e-09 0.000918611)
(-0.000375684 -1.94214e-09 0.000918611)
(-0.00037568 -5.14566e-09 0.000918592)
(-0.000375674 -2.94175e-08 0.000918568)
(-0.000374167 -2.62335e-08 0.000914825)
(-0.000732241 -2.82234e-09 0.000155441)
(-0.000970192 2.34768e-09 9.46303e-05)
(-0.00109737 -1.0453e-09 3.06378e-05)
(-0.00109743 1.00152e-09 -3.05748e-05)
(-0.000970352 -2.45886e-09 -9.45854e-05)
(-0.000732463 2.57154e-09 -0.00015543)
(-0.000296279 -4.15543e-08 -0.000231453)
(-0.000297478 -4.80379e-08 -0.000232368)
(-0.000297487 -1.21317e-08 -0.00023236)
(-0.000297493 -5.62931e-09 -0.000232352)
(-0.000297493 5.67403e-09 -0.000232352)
(-0.000297487 1.2164e-08 -0.00023236)
(-0.000297478 4.80625e-08 -0.000232368)
(-0.000296279 4.15551e-08 -0.000231453)
(-0.000732463 -2.57218e-09 -0.00015543)
(-0.000970352 2.45772e-09 -9.45854e-05)
(-0.00109743 -1.005e-09 -3.05748e-05)
(-0.00109737 1.04148e-09 3.06378e-05)
(-0.000970192 -2.34982e-09 9.46303e-05)
(-0.000732241 2.82206e-09 0.000155441)
(-0.000296156 -4.1075e-08 0.000231321)
(-0.000297355 -4.73964e-08 0.000232236)
(-0.000297363 -1.18653e-08 0.000232227)
(-0.000297369 -5.52842e-09 0.00023222)
(-0.000297369 5.56766e-09 0.00023222)
(-0.000297363 1.19037e-08 0.000232227)
(-0.000297355 4.7418e-08 0.000232236)
(-0.000296156 4.10656e-08 0.000231321)
(0.0055785 1.24033e-09 0.000118378)
(0.00557836 -9.59921e-10 -0.000117895)
(0.0055785 -1.15252e-09 0.000118378)
(0.00557836 1.01743e-09 -0.000117895)
(-0.00178153 -2.87341e-09 0.000188665)
(-0.00178149 3.13199e-09 -0.000188318)
(-0.00178153 3.07684e-09 0.000188664)
(-0.00178149 -3.05269e-09 -0.000188318)
)
;

boundaryField
{
    top_fluid_surface
    {
        type            fixedValue;
        value           uniform (1 0 0);
    }
    bottom_fluid_surface
    {
        type            noSlip;
    }
    lateral_surface_1
    {
        type            noSlip;
    }
    lateral_surface_2
    {
        type            noSlip;
    }
    lateral_surface_3
    {
        type            noSlip;
    }
    lateral_surface_4
    {
        type            noSlip;
    }
}


// ************************************************************************* //
