/*--------------------------------*- C++ -*----------------------------------*\
| =========                 |                                                 |
| \\      /  F ield         | OpenFOAM: The Open Source CFD Toolbox           |
|  \\    /   O peration     | Version:  v1612+                                |
|   \\  /    A nd           | Web:      www.OpenFOAM.com                      |
|    \\/     M anipulation  |                                                 |
\*---------------------------------------------------------------------------*/
FoamFile
{
    version     2.0;
    format      ascii;
    class       volScalarField;
    location    "4.9";
    object      p;
}
// * * * * * * * * * * * * * * * * * * * * * * * * * * * * * * * * * * * * * //

dimensions      [1 -1 -2 0 0 0 0];

internalField   nonuniform List<scalar> 
1116
(
1919.78
1919.77
1919.77
1919.77
1919.77
1919.79
1954.93
1954.91
1954.91
1954.91
1954.91
1954.94
2132.63
2132.62
2132.61
2132.61
2132.62
2132.63
3091.24
3091.24
3091.24
3091.25
3091.26
3091.26
5699.39
5699.2
5699.27
5699.26
5699.21
5699.31
10590.1
10590.1
10590
10590
10590
10590
15319.1
15319.1
15319.1
15319.1
15319.1
15319.1
17261.6
17261.9
17261.7
17261.7
17261.8
17261.7
17816.6
17817
17816.8
17816.8
17816.8
17816.7
18957.8
18957.5
18957.6
18957.6
18957.5
18957.6
19890.1
19889.5
19889.7
19889.8
19889.6
19890
19361.9
19361.9
19361.9
19361.9
19361.9
19362.1
42.6957
42.696
42.6961
42.6961
42.6961
42.696
53.009
53.0091
53.009
53.0091
53.0092
53.0091
78.6801
78.6779
78.6789
78.6797
78.6798
78.6813
153.162
153.115
153.132
153.138
153.129
153.151
691.491
690.94
691.199
691.212
691.028
691.347
2865.39
2864.72
2864.92
2864.97
2864.75
2865.15
6437.51
6437.07
6437.27
6437.35
6437.14
6437.4
7147.22
7147.36
7147.36
7147.32
7147.27
7147.21
7916.48
7916.07
7916.21
7916.25
7916.17
7916.47
8297.16
8296.21
8296.58
8296.69
8296.41
8297.02
7466.9
7466.51
7466.52
7466.65
7466.28
7466.88
7441.78
7441.53
7441.58
7441.6
7441.63
7441.72
46.07
46.0703
46.0703
46.0702
46.0701
46.07
45.2604
45.261
45.2614
45.2615
45.2614
45.2612
52.837
52.8421
52.8406
52.8409
52.8417
52.8382
61.4324
61.4559
61.4492
61.4477
61.4544
61.4401
125.123
125.056
125.094
125.097
125.075
125.118
306.042
305.384
305.735
305.746
305.522
305.916
2756.74
2757.13
2757.03
2757.01
2757.07
2756.8
3576.58
3578.17
3577.35
3577.47
3577.98
3577.01
2607.43
2609.21
2608.31
2608.45
2609.07
2607.95
1413.74
1414.3
1414.07
1414.05
1414.18
1413.97
1096.2
1096.3
1096.26
1096.19
1096.15
1096.32
1238.71
1238.01
1238.34
1238.24
1237.63
1238.99
18.3666
18.367
18.3671
18.3671
18.367
18.3667
23.3732
23.3733
23.3735
23.3738
23.3736
23.3737
34.603
34.6039
34.6045
34.6053
34.605
34.6049
39.5539
39.5652
39.5633
39.5627
39.5651
39.558
19.3804
19.3507
19.3623
19.3772
19.3659
19.3727
8.47046
8.29714
8.33172
8.37707
8.3647
8.41928
141.703
141.75
141.665
141.788
141.832
141.703
-50.428
-50.3773
-50.5217
-50.3587
-50.3283
-50.4011
-60.3541
-60.3467
-60.3649
-60.3458
-60.3361
-60.3518
-45.4599
-45.4667
-45.457
-45.465
-45.4678
-45.481
59.5382
59.5397
59.5489
59.5386
59.5563
59.5421
186.583
186.548
186.556
186.546
186.496
186.602
102.673
102.898
102.764
102.793
103.465
102.299
104.295
104.66
104.473
104.577
105.668
104.093
103.003
103.822
103.374
104.16
106.068
102.918
107.616
110.046
107.906
112.506
120.493
106.525
103.39
106.251
101.954
110.245
121.421
101.84
198.094
203.14
204.109
213.499
213.318
203.007
245.788
244.126
241.074
243.335
210.972
241.475
1251.88
1240.34
1214.72
1175.85
1052.09
1143.7
2958.77
2959.74
2962.95
2997.58
3019
2905.53
2486.86
2488.24
2522.08
2422.31
2347.48
2615.42
1330.08
1325.13
1316.15
1284.23
1191.85
1300.31
1299.32
1297.11
1292.39
1285.4
1270.93
1276.48
72.4239
72.6404
72.5469
72.6632
73.2267
72.2095
64.7026
64.8982
64.9637
65.131
65.4809
65.0549
4.92963
4.84301
5.46163
5.40491
4.42704
6.82237
-138.65
-139.63
-138.199
-139.014
-141.987
-132.204
-157.402
-157.627
-158.323
-159.293
-159.968
-160.098
-107.042
-107.439
-108.013
-108.01
-107.956
-109.209
-45.5824
-47.1219
-49.0814
-52.2782
-59.0428
-53.3404
39.0515
38.6332
36.9169
31.166
20.8135
31.9596
327.784
326.974
324.094
299.971
223.458
315.588
718.386
710.037
704.9
617.073
396.824
723.321
633.997
631.231
638.576
582.402
487.795
662.059
1029.63
1026.37
1017.79
1015.62
990.265
1010.52
25.8377
25.9316
25.924
25.9794
26.2121
25.862
11.9894
12.0764
12.1854
12.2047
12.2375
12.3563
-42.5608
-42.6481
-42.2523
-42.6066
-43.3168
-41.5619
-122.138
-122.226
-122.07
-122.062
-121.978
-121.374
-127.79
-127.613
-127.074
-125.929
-123.735
-122.958
-90.6099
-90.6926
-90.69
-90.0892
-88.7591
-90.6355
-51.6615
-51.7456
-51.6562
-51.2965
-49.6956
-51.4249
-36.7578
-36.7381
-36.5076
-35.9027
-34.3875
-35.9443
-15.2994
-15.8674
-16.7996
-19.2295
-28.2301
-19.9061
136.857
138.907
143.997
109.566
41.9906
131.377
611.111
619.649
628.935
610.572
761.76
646.08
973.272
977.598
920.606
912.462
926.753
894.214
-9.13892
-9.12022
-9.10952
-9.1031
-9.05536
-9.10274
-21.6598
-21.6314
-21.612
-21.6159
-21.5783
-21.5908
-55.1038
-55.1799
-55.1082
-55.2422
-55.4898
-54.888
-100.59
-100.869
-100.795
-101.193
-101.696
-100.718
-119.285
-119.549
-119.653
-119.841
-120.579
-121.687
-86.9949
-87.0786
-87.2178
-87.3192
-87.5385
-87.9737
-54.6645
-54.67
-54.6553
-54.4967
-54.0949
-54.7368
-43.4048
-43.302
-43.1191
-42.64
-41.6933
-42.7214
-41.2433
-41.2107
-41.1293
-41.0084
-40.5658
-40.9219
-23.3907
-23.0619
-22.254
-23.2124
-23.4691
-21.9278
72.0822
80.4376
93.5205
45.4196
5.2049
83.9136
-716.257
-686.779
-627.558
-527.884
205.998
-465.802
-3.45679
-3.45688
-3.45695
-3.45696
-3.45692
-3.4568
-31.4841
-31.4842
-31.4842
-31.4842
-31.4842
-31.4841
-56.6325
-56.6325
-56.6325
-56.6325
-56.6324
-56.6325
-2.95047
-2.95049
-2.9505
-2.95035
-2.95028
-2.95009
-32.112
-32.1119
-32.1119
-32.1118
-32.1117
-32.1117
-57.3645
-57.3644
-57.3644
-57.3644
-57.3644
-57.3644
-1.70969
-1.70655
-1.70713
-1.70701
-1.70674
-1.7072
-33.4875
-33.4859
-33.486
-33.4859
-33.4856
-33.486
-58.5983
-58.5981
-58.598
-58.5978
-58.5977
-58.5976
-1.99032
-1.98271
-1.98244
-1.98397
-1.98403
-1.9871
-43.2643
-43.2641
-43.2639
-43.263
-43.2631
-43.262
-63.7109
-63.7106
-63.7104
-63.7099
-63.7096
-63.7094
-100.273
-100.27
-100.271
-100.273
-100.268
-100.272
-94.4531
-94.4522
-94.4554
-94.4542
-94.4504
-94.4543
-76.386
-76.3813
-76.3831
-76.3834
-76.381
-76.3848
-140.543
-140.559
-140.559
-140.564
-140.56
-140.557
-113.755
-113.77
-113.765
-113.766
-113.768
-113.763
-84.9674
-84.9705
-84.969
-84.9695
-84.971
-84.9707
-126.843
-126.853
-126.855
-126.856
-126.859
-126.859
-123.052
-123.06
-123.057
-123.058
-123.062
-123.058
-82.8587
-82.8591
-82.8588
-82.8597
-82.8606
-82.8611
-121.259
-121.248
-121.262
-121.26
-121.258
-121.257
-111.495
-111.494
-111.495
-111.494
-111.494
-111.492
-77.9506
-77.9486
-77.9499
-77.9515
-77.9515
-77.9542
-61.6726
-61.67
-61.6698
-61.6691
-61.6695
-61.6631
-73.1283
-73.1286
-73.127
-73.1269
-73.127
-73.1196
-72.0717
-72.0698
-72.0715
-72.0729
-72.073
-72.075
-30.2294
-30.2305
-30.2284
-30.2315
-30.2385
-30.2177
-40.1852
-40.1796
-40.1802
-40.1816
-40.183
-40.1749
-67.0215
-67.0211
-67.0218
-67.0223
-67.0223
-67.0214
1.09476
1.0794
1.09138
1.08599
1.08721
1.09599
-26.2886
-26.2878
-26.2876
-26.2886
-26.2914
-26.2807
-63.5225
-63.5235
-63.5239
-63.5243
-63.5249
-63.5234
79.2087
79.1641
79.2057
79.1703
79.1863
79.2114
-46.9655
-46.9668
-46.9657
-46.9636
-46.9633
-46.9652
-77.1018
-77.1042
-77.1045
-77.105
-77.1084
-77.1027
1236.84
1236.99
1237.29
1237.72
1238.98
1237.68
-50.4796
-50.4625
-50.4408
-50.4223
-50.4154
-50.2988
-69.7462
-69.7282
-69.6976
-69.6576
-69.598
-69.612
1256.06
1256.38
1256.57
1255.62
1255.59
1257.22
-52.2708
-52.2516
-52.2363
-52.2476
-52.2459
-52.0951
-68.5729
-68.5631
-68.5526
-68.5478
-68.5338
-68.5205
1244.03
1243.99
1244.26
1243.28
1242.82
1244.98
-51.5781
-51.5831
-51.5777
-51.5893
-51.5928
-51.5715
-67.8652
-67.8626
-67.8584
-67.8611
-67.8463
-67.8623
1057.61
1057.33
1058.09
1055.43
1053.96
1060.11
-49.9975
-49.9997
-49.9956
-50.01
-50.0138
-49.9869
-68.6263
-68.6205
-68.6224
-68.5993
-68.5713
-68.6421
984.851
984.772
985.341
983.644
982.658
986.88
-47.4641
-47.4685
-47.4657
-47.4706
-47.4745
-47.4646
-70.5706
-70.567
-70.5694
-70.5606
-70.5452
-70.5801
788.571
788.552
788.922
787.995
787.584
789.718
-42.6683
-42.668
-42.6684
-42.665
-42.6631
-42.6696
-74.8503
-74.8502
-74.8506
-74.8502
-74.8475
-74.8526
-30.5621
-30.5577
-30.5548
-30.5531
-30.5412
-30.5573
-46.3073
-46.3053
-46.3038
-46.3023
-46.2974
-46.3046
-61.2647
-61.264
-61.2632
-61.2625
-61.2611
-61.263
-37.0435
-37.0409
-37.0445
-37.0561
-37.0438
-37.0483
-48.3295
-48.3282
-48.3288
-48.3302
-48.3247
-48.3377
-61.4015
-61.4004
-61.3999
-61.3985
-61.3959
-61.4032
-50.8021
-50.8311
-50.8202
-50.883
-50.9607
-50.7082
-53.3947
-53.3952
-53.3933
-53.4001
-53.4011
-53.3796
-62.5153
-62.5128
-62.512
-62.5088
-62.5021
-62.5139
-68.28
-68.3907
-68.3481
-68.5014
-68.6522
-68.2719
-60.4954
-60.506
-60.4984
-60.5154
-60.5147
-60.4792
-64.2237
-64.2215
-64.2204
-64.2178
-64.2098
-64.2167
-69.2618
-69.3384
-69.331
-69.4015
-69.5038
-69.5282
-64.928
-64.9462
-64.9315
-64.9479
-64.9328
-64.8968
-65.4135
-65.4127
-65.4106
-65.4073
-65.4006
-65.4058
-66.0512
-66.0892
-66.0735
-66.1233
-66.1227
-66.194
-64.2755
-64.2832
-64.2746
-64.2935
-64.2906
-64.2906
-65.4028
-65.4017
-65.4
-65.3975
-65.3934
-65.4008
-56.4293
-56.4254
-56.3826
-56.3324
-56.2173
-56.335
-60.8721
-60.8681
-60.8574
-60.8459
-60.8294
-60.8408
-65.1896
-65.1874
-65.1829
-65.1774
-65.17
-65.1752
-50.9805
-50.9527
-50.8804
-50.7697
-50.6066
-50.7313
-59.0155
-59.0013
-58.9731
-58.9373
-58.897
-58.9058
-65.5193
-65.5145
-65.5057
-65.495
-65.484
-65.4854
-46.8635
-46.9013
-46.9147
-46.891
-46.7139
-46.9641
-58.015
-57.9974
-57.9592
-57.9243
-57.8762
-57.8621
-65.3809
-65.3791
-65.3732
-65.3632
-65.3486
-65.3606
-45.9866
-45.884
-45.6711
-45.3394
-44.4132
-45.2541
-58.0784
-58.0344
-57.9429
-57.9205
-57.7885
-57.7489
-66.3496
-66.3357
-66.3094
-66.2653
-66.2055
-66.2535
-50.3207
-50.2253
-50.642
-48.5346
-42.2496
-49.276
-57.1187
-57.0532
-56.9337
-56.8161
-56.3481
-56.5675
-67.6695
-67.6437
-67.5959
-67.4568
-67.2793
-67.4437
611.399
609.791
607.813
644.007
669.214
620.935
-54.1008
-54.0619
-53.9842
-53.9896
-53.8695
-53.8165
-75.7719
-75.7001
-75.6123
-75.5281
-75.4114
-75.3304
)
;

boundaryField
{
    seabed_topleft_surface
    {
        type            calculated;
        value           nonuniform List<scalar> 
72
(
3776.95
3776.93
3776.93
3776.92
3776.93
3776.98
3844.8
3844.77
3844.77
3844.76
3844.77
3844.82
4170.26
4170.22
4170.21
4170.22
4170.23
4170.26
5545.96
5545.95
5545.95
5545.96
5545.98
5546
9045.46
9045.26
9045.34
9045.33
9045.28
9045.41
15204.3
15204.2
15204.2
15204.2
15204.2
15204.2
20115.3
20115.4
20115.3
20115.3
20115.3
20115.3
22057.7
22058
22057.9
22057.9
22058
22057.8
22612.7
22613
22612.8
22612.8
22612.9
22612.7
23753.7
23753.4
23753.5
23753.5
23753.4
23753.5
24684.9
24684.3
24684.5
24684.6
24684.4
24684.8
24153.7
24153.7
24153.7
24153.8
24153.8
24153.9
)
;
    }
    seabed_topright_surface
    {
        type            calculated;
        value           nonuniform List<scalar> 
72
(
107.599
107.824
107.69
107.719
108.393
107.224
109.225
109.591
109.402
109.508
110.602
109.02
108.052
108.881
108.411
109.218
111.19
107.927
123.505
126.452
121.033
129.664
148.565
116.672
271.162
277.66
264.528
283.315
329.055
247.958
456.147
464.463
464.899
477.52
483.235
461.329
511.799
512.529
513.601
513.783
483.252
523.939
1527.7
1519.28
1496.71
1456.96
1333.23
1436.12
3240.09
3243.37
3250.69
3289.45
3319.69
3204.32
2752.25
2758.75
2793.58
2683.35
2651.63
2890.16
1454.96
1452.04
1452.77
1399.94
1307.06
1451.28
1308.37
1306.16
1301.59
1294.54
1280.15
1290.95
)
;
    }
    breakwater_top_surface
    {
        type            calculated;
        value           nonuniform List<scalar> 
36
(
2540.76
2540.95
2541.34
2541.74
2543.04
2541.94
2561.63
2562.01
2562.24
2561.32
2561.33
2562.98
2538.28
2538.2
2538.72
2536.83
2535.78
2540.35
2159.38
2158.82
2160.46
2154.73
2151.48
2164.84
2021.98
2021.81
2023.05
2019.42
2017.28
2026.3
1650.18
1650.14
1650.93
1649.01
1648.13
1652.6
)
;
    }
    breakwater_left_surface
    {
        type            calculated;
        value           nonuniform List<scalar> 
24
(
19378.3
19378.3
19378.3
19378.3
19378.3
19378.5
7456.97
7456.71
7456.77
7456.79
7456.82
7456.91
1242.45
1241.75
1242.08
1241.98
1241.37
1242.73
186.599
186.564
186.572
186.561
186.512
186.618
)
;
    }
    breakwater_right_surface
    {
        type            calculated;
        value           nonuniform List<scalar> 
24
(
1299.35
1297.14
1292.42
1285.43
1270.97
1276.53
1029.66
1026.4
1017.82
1015.65
990.296
1010.55
974.296
978.716
922.03
913.103
926.783
895.654
-713.37
-683.888
-624.665
-524.991
208.887
-462.918
)
;
    }
    water_front_surface
    {
        type            calculated;
        value           nonuniform List<scalar> 
186
(
1919.78
1954.93
2132.63
3091.24
5699.39
10590.1
15319.1
17261.6
17816.6
18957.8
19890.1
19361.9
42.6957
53.009
78.6801
153.162
691.491
2865.39
6437.51
7147.22
7916.48
8297.16
7466.9
7441.78
46.07
45.2604
52.837
61.4324
125.123
306.042
2756.74
3576.58
2607.43
1413.74
1096.2
1238.71
18.3666
23.3732
34.603
39.5539
19.3804
8.47046
141.703
-50.428
-60.3541
-45.4599
59.5382
186.583
102.673
104.295
103.003
107.616
103.39
198.094
245.788
1251.88
2958.77
2486.86
1330.08
1299.32
72.4239
64.7026
4.92963
-138.65
-157.402
-107.042
-45.5824
39.0515
327.784
718.386
633.997
1029.63
25.8377
11.9894
-42.5608
-122.138
-127.79
-90.6099
-51.6615
-36.7578
-15.2994
136.857
611.111
973.272
-9.13892
-21.6598
-55.1038
-100.59
-119.285
-86.9949
-54.6645
-43.4048
-41.2433
-23.3907
72.0822
-716.257
-3.45679
-31.4841
-56.6325
-2.95047
-32.112
-57.3645
-1.70969
-33.4875
-58.5983
-1.99032
-43.2643
-63.7109
-100.273
-94.4531
-76.386
-140.543
-113.755
-84.9674
-126.843
-123.052
-82.8587
-121.259
-111.495
-77.9506
-61.6726
-73.1283
-72.0717
-30.2294
-40.1852
-67.0215
1.09476
-26.2886
-63.5225
79.2087
-46.9655
-77.1018
1236.84
-50.4796
-69.7462
1256.06
-52.2708
-68.5729
1244.03
-51.5781
-67.8652
1057.61
-49.9975
-68.6263
984.851
-47.4641
-70.5706
788.571
-42.6683
-74.8503
-30.5621
-46.3073
-61.2647
-37.0435
-48.3295
-61.4015
-50.8021
-53.3947
-62.5153
-68.28
-60.4954
-64.2237
-69.2618
-64.928
-65.4135
-66.0512
-64.2755
-65.4028
-56.4293
-60.8721
-65.1896
-50.9805
-59.0155
-65.5193
-46.8635
-58.015
-65.3809
-45.9866
-58.0784
-66.3496
-50.3207
-57.1187
-67.6695
611.399
-54.1008
-75.7719
)
;
    }
    water_back_surface
    {
        type            calculated;
        value           nonuniform List<scalar> 
186
(
1919.79
1954.94
2132.63
3091.26
5699.31
10590
15319.1
17261.7
17816.7
18957.6
19890
19362.1
42.696
53.0091
78.6813
153.151
691.347
2865.15
6437.4
7147.21
7916.47
8297.02
7466.88
7441.72
46.07
45.2612
52.8382
61.4401
125.118
305.916
2756.8
3577.01
2607.95
1413.97
1096.32
1238.99
18.3667
23.3737
34.6049
39.558
19.3727
8.41928
141.703
-50.4011
-60.3518
-45.481
59.5421
186.602
102.299
104.093
102.918
106.525
101.84
203.007
241.475
1143.7
2905.53
2615.42
1300.31
1276.48
72.2095
65.0549
6.82237
-132.204
-160.098
-109.209
-53.3404
31.9596
315.588
723.321
662.059
1010.52
25.862
12.3563
-41.5619
-121.374
-122.958
-90.6355
-51.4249
-35.9443
-19.9061
131.377
646.08
894.214
-9.10274
-21.5908
-54.888
-100.718
-121.687
-87.9737
-54.7368
-42.7214
-40.9219
-21.9278
83.9136
-465.802
-3.4568
-31.4841
-56.6325
-2.95009
-32.1117
-57.3644
-1.7072
-33.486
-58.5976
-1.9871
-43.262
-63.7094
-100.272
-94.4543
-76.3848
-140.557
-113.763
-84.9707
-126.859
-123.058
-82.8611
-121.257
-111.492
-77.9542
-61.6631
-73.1196
-72.075
-30.2177
-40.1749
-67.0214
1.09599
-26.2807
-63.5234
79.2114
-46.9652
-77.1027
1237.68
-50.2988
-69.612
1257.22
-52.0951
-68.5205
1244.98
-51.5715
-67.8623
1060.11
-49.9869
-68.6421
986.88
-47.4646
-70.5801
789.718
-42.6696
-74.8526
-30.5573
-46.3046
-61.263
-37.0483
-48.3377
-61.4032
-50.7082
-53.3796
-62.5139
-68.2719
-60.4792
-64.2167
-69.5282
-64.8968
-65.4058
-66.194
-64.2906
-65.4008
-56.335
-60.8408
-65.1752
-50.7313
-58.9058
-65.4854
-46.9641
-57.8621
-65.3606
-45.2541
-57.7489
-66.2535
-49.276
-56.5675
-67.4437
620.935
-53.8165
-75.3304
)
;
    }
    water_left_surface
    {
        type            calculated;
        value           nonuniform List<scalar> 
42
(
1926.14
1926.13
1926.13
1926.13
1926.13
1926.15
42.7122
42.7125
42.7126
42.7126
42.7126
42.7125
46.0862
46.0865
46.0865
46.0864
46.0863
46.0862
18.3824
18.3829
18.383
18.3829
18.3829
18.3825
-3.45679
-3.45688
-3.45695
-3.45696
-3.45692
-3.4568
-31.4841
-31.4842
-31.4842
-31.4842
-31.4842
-31.4841
-56.6325
-56.6325
-56.6325
-56.6325
-56.6324
-56.6325
)
;
    }
    water_right_surface
    {
        type            calculated;
        value           nonuniform List<scalar> 
42
(
102.689
102.915
102.781
102.81
103.482
102.316
72.4404
72.6569
72.5634
72.6797
73.2432
72.226
25.8539
25.9478
25.9402
25.9956
26.2283
25.8782
-9.12304
-9.10434
-9.09365
-9.08723
-9.03949
-9.08687
-30.5621
-30.5577
-30.5548
-30.5531
-30.5412
-30.5573
-46.3073
-46.3053
-46.3038
-46.3023
-46.2974
-46.3046
-61.2647
-61.264
-61.2632
-61.2625
-61.2611
-61.263
)
;
    }
    water_top_surface
    {
        type            calculated;
        value           nonuniform List<scalar> 
180
(
-68.67
-68.67
-68.67
-68.67
-68.67
-68.67
-68.67
-68.67
-68.67
-68.67
-68.67
-68.67
-68.67
-68.67
-68.67
-68.67
-68.67
-68.67
-68.67
-68.67
-68.67
-68.67
-68.67
-68.67
-68.6708
-68.6708
-68.6708
-68.6708
-68.6708
-68.6708
-68.7975
-68.797
-68.7972
-68.7974
-68.7972
-68.7974
-69.018
-69.018
-69.018
-69.0181
-69.0181
-69.018
-72.401
-72.384
-72.3929
-72.3959
-72.3914
-72.4059
-81.7229
-81.7113
-81.7181
-81.7207
-81.7203
-81.7272
-77.2901
-77.2859
-77.2881
-77.2901
-77.2907
-77.2897
-71.324
-71.3234
-71.3248
-71.3263
-71.3267
-71.3251
-70.7398
-70.7431
-70.7419
-70.7417
-70.7446
-70.7386
-70.6716
-70.6898
-70.6734
-70.6614
-70.7159
-70.61
-70.6389
-70.6682
-70.6711
-70.5671
-70.549
-70.7128
-70.861
-70.8618
-70.8585
-70.8767
-70.9288
-70.7818
-72.0524
-72.0628
-72.0337
-72.1057
-72.1872
-71.9486
-72.2661
-72.2799
-72.2544
-72.3053
-72.3722
-72.1926
-70.4056
-70.4123
-70.4047
-70.4151
-70.4364
-70.3837
-68.67
-68.67
-68.67
-68.67
-68.67
-68.67
-68.67
-68.67
-68.67
-68.67
-68.67
-68.67
-68.67
-68.67
-68.67
-68.67
-68.67
-68.67
-68.67
-68.67
-68.67
-68.67
-68.67
-68.67
-68.67
-68.67
-68.67
-68.67
-68.67
-68.67
-68.6709
-68.6709
-68.6709
-68.6708
-68.6708
-68.6708
-69.046
-69.0455
-69.0448
-69.0438
-69.0425
-69.0435
-70.4392
-70.4359
-70.4329
-70.4283
-70.4244
-70.421
-70.0932
-70.0919
-70.089
-70.0779
-70.0638
-70.0863
-73.219
-73.2114
-73.1843
-73.1885
-73.1662
-73.1291
-73.9939
-73.9839
-73.9166
-73.8793
-73.8136
-73.7692
-71.0449
-71.0233
-71.015
-70.9686
-70.8219
-70.9553
)
;
    }
}


// ************************************************************************* //
