/*--------------------------------*- C++ -*----------------------------------*\
| =========                 |                                                 |
| \\      /  F ield         | OpenFOAM: The Open Source CFD Toolbox           |
|  \\    /   O peration     | Version:  v1612+                                |
|   \\  /    A nd           | Web:      www.OpenFOAM.com                      |
|    \\/     M anipulation  |                                                 |
\*---------------------------------------------------------------------------*/
FoamFile
{
    version     2.0;
    format      ascii;
    class       volScalarField;
    location    "4.9";
    object      p_rgh;
}
// * * * * * * * * * * * * * * * * * * * * * * * * * * * * * * * * * * * * * //

dimensions      [1 -1 -2 0 0 0 0];

internalField   nonuniform List<scalar> 
1116
(
3776.95
3776.93
3776.93
3776.92
3776.93
3776.98
3844.8
3844.77
3844.77
3844.76
3844.77
3844.82
4170.26
4170.22
4170.21
4170.22
4170.23
4170.26
5545.96
5545.95
5545.95
5545.96
5545.98
5546
9045.46
9045.26
9045.34
9045.33
9045.28
9045.41
15204.3
15204.2
15204.2
15204.2
15204.2
15204.2
20115.3
20115.4
20115.3
20115.3
20115.3
20115.3
22057.7
22058
22057.9
22057.9
22058
22057.8
22612.7
22613
22612.8
22612.8
22612.9
22612.7
23753.7
23753.4
23753.5
23753.5
23753.4
23753.5
24684.9
24684.3
24684.5
24684.6
24684.4
24684.8
24153.7
24153.7
24153.7
24153.8
24153.8
24153.9
57.428
57.4283
57.4284
57.4284
57.4284
57.4283
67.7413
67.7414
67.7413
67.7415
67.7415
67.7414
100.239
100.235
100.234
100.238
100.238
100.235
411.346
411.271
411.298
411.312
411.29
411.31
2323.89
2323.52
2323.66
2323.63
2323.5
2323.71
10559.9
10560
10559.7
10559.7
10559.7
10559.8
20343
20342.8
20342.8
20342.9
20342.8
20342.9
21502.3
21502.4
21502.4
21502.4
21502.3
21502.3
22246
22245.9
22245.9
22245.9
22245.9
22246.1
22137.7
22138.1
22138
22137.9
22137.9
22138.1
20786.3
20786.9
20786.5
20786.4
20786.1
20786.9
20990
20988.4
20989.1
20989
20988.3
20990.2
70.6125
70.6128
70.6127
70.6127
70.6126
70.6124
69.8032
69.8038
69.8042
69.8043
69.8042
69.804
77.3968
77.4018
77.4004
77.4007
77.4015
77.398
86.5723
86.596
86.5891
86.5876
86.5944
86.5798
164.509
164.448
164.482
164.485
164.464
164.503
3195.04
3195.15
3195.06
3194.83
3194.89
3194.64
14985.8
14991.3
14988.7
14988.5
14990.3
14986.6
19146.5
19156.2
19151.6
19151.4
19154.8
19148.7
15575.8
15585.9
15581.2
15581.3
15584.7
15578.4
8592.06
8596.28
8594.54
8594.22
8595.14
8593.75
6344.99
6345.85
6345.44
6344.95
6344.66
6345.82
6910.67
6905.84
6908.27
6907.53
6904.64
6911.96
52.719
52.7195
52.7196
52.7195
52.7195
52.7191
57.7272
57.7273
57.7275
57.7278
57.7276
57.7278
68.9608
68.9617
68.9623
68.9631
68.9628
68.9627
74.0795
74.0903
74.0885
74.0881
74.0903
74.0834
185.069
184.482
184.736
184.842
184.609
184.89
1441.99
1441.33
1441.28
1442.18
1442.09
1441.76
1857.89
1859.01
1857.97
1859.1
1859.79
1858.13
1184.57
1185.71
1184.7
1185.56
1186.25
1184.87
-25.8875
-25.8801
-25.8983
-25.8792
-25.8695
-25.8852
-11.08
-11.0869
-11.0772
-11.0852
-11.088
-11.1012
93.9176
93.919
93.9282
93.9179
93.9356
93.9215
220.992
220.956
220.965
220.954
220.905
221.01
107.599
107.824
107.69
107.719
108.393
107.224
109.225
109.591
109.402
109.508
110.602
109.02
108.052
108.881
108.411
109.218
111.19
107.927
123.505
126.452
121.033
129.664
148.565
116.672
271.162
277.66
264.528
283.315
329.055
247.958
456.147
464.463
464.899
477.52
483.235
461.329
511.799
512.529
513.601
513.783
483.252
523.939
1527.7
1519.28
1496.71
1456.96
1333.23
1436.12
3240.09
3243.37
3250.69
3289.45
3319.69
3204.32
2752.25
2758.75
2793.58
2683.35
2651.63
2890.16
1454.96
1452.04
1452.77
1399.94
1307.06
1451.28
1308.37
1306.16
1301.59
1294.54
1280.15
1290.95
87.1567
87.3733
87.2796
87.3962
87.9601
86.9418
79.4427
79.6391
79.7033
79.872
80.2517
79.7923
27.8746
28.1086
27.8428
28.6583
29.454
27.9494
-104.127
-105.138
-103.867
-104.324
-107.282
-98.4971
-140.43
-140.862
-141.044
-142.011
-143.675
-141.342
-92.3076
-92.7044
-93.2792
-93.2759
-93.222
-94.4748
-30.8448
-32.384
-34.3434
-37.5412
-44.309
-38.6028
139.847
133.731
130.342
100.341
48.6143
110.382
1154.36
1172.4
1186.16
1064.89
852.815
1210.88
1818.36
1831.4
1850
1774.52
1589.44
1977.48
1685.31
1712.34
1795.9
1429.36
784.393
1930.76
1056.73
1053.47
1044.89
1042.86
1017.65
1038.1
50.379
50.4729
50.4653
50.5207
50.7534
50.4032
36.6796
36.786
36.8602
36.9178
37.0241
36.9738
-12.9187
-12.8827
-12.7933
-12.8238
-13.2599
-12.7804
-92.6841
-92.8602
-92.3922
-92.7444
-93.5677
-91.3203
-103.244
-103.068
-102.528
-101.383
-99.189
-98.4119
-66.0646
-66.1474
-66.1449
-65.5441
-64.2137
-66.0904
-27.1202
-27.2043
-27.1149
-26.7553
-25.1544
-26.8837
-12.2174
-12.1977
-11.9672
-11.3623
-9.84671
-11.4036
9.34326
8.791
7.86612
5.45155
-3.54678
4.79459
1347.7
1386.88
1482.15
1151.63
314.475
1469.95
3020.74
3037.78
3047.06
3057.88
3244.18
3141.86
2525.5
2673.32
3078.83
1884.99
972.53
3076.79
25.212
25.2307
25.2414
25.2478
25.2955
25.2481
12.715
12.747
12.7595
12.7628
12.814
12.7708
-20.7347
-20.8094
-20.7409
-20.8716
-21.1175
-20.5274
-66.2281
-66.5078
-66.4332
-66.832
-67.3355
-66.3557
-84.8557
-85.1213
-85.2242
-85.4155
-86.1618
-87.258
-52.6345
-52.7183
-52.857
-52.9583
-53.1778
-53.6101
-20.3136
-20.3191
-20.3045
-20.1458
-19.744
-20.3859
-9.05388
-8.95109
-8.76818
-8.28911
-7.3424
-8.37057
-6.89241
-6.85984
-6.77839
-6.65751
-6.21494
-6.571
11.105
11.456
12.2737
11.3378
11.3855
12.6489
3268.1
3352.86
3474.34
3348.28
2840.81
3577.52
5531.84
5568.91
5633.31
5732.99
6457.42
5774.84
40.6887
40.6886
40.6886
40.6886
40.6886
40.6887
22.4709
22.4708
22.4708
22.4708
22.4708
22.4709
7.13252
7.13254
7.1325
7.13253
7.13255
7.13247
41.2006
41.2005
41.2005
41.2007
41.2008
41.201
21.8431
21.8432
21.8432
21.8433
21.8434
21.8434
6.40053
6.40059
6.40059
6.40061
6.40064
6.40059
42.4356
42.4387
42.4381
42.4382
42.4385
42.4381
20.4675
20.4691
20.469
20.4691
20.4694
20.469
5.16668
5.16694
5.16702
5.16717
5.16731
5.16744
42.1774
42.1845
42.185
42.1836
42.1834
42.1805
10.691
10.6912
10.6914
10.6924
10.6923
10.6933
0.0541194
0.0544507
0.0546281
0.0551193
0.0554456
0.0556572
-35.4895
-35.6359
-35.5789
-35.533
-35.586
-35.5225
-40.474
-40.4732
-40.4763
-40.4752
-40.4713
-40.4752
-12.6202
-12.6155
-12.6173
-12.6177
-12.6153
-12.619
-43.5165
-43.6351
-43.5943
-43.5396
-43.5834
-43.5485
-59.6662
-59.6817
-59.6766
-59.6768
-59.6793
-59.6741
-21.084
-21.0876
-21.086
-21.0862
-21.0879
-21.0874
-82.6166
-82.6263
-82.6288
-82.6299
-82.6327
-82.6323
-68.4374
-68.4441
-68.4421
-68.4428
-68.4461
-68.4437
-18.7705
-18.771
-18.7707
-18.7715
-18.7723
-18.7729
-77.0731
-77.0623
-77.076
-77.0735
-77.0722
-77.0706
-57.2355
-57.234
-57.235
-57.2343
-57.2337
-57.2323
-13.97
-13.9668
-13.9686
-13.9703
-13.9701
-13.9737
-17.5272
-17.5245
-17.5244
-17.5236
-17.524
-17.5176
-19.1732
-19.1735
-19.1719
-19.1718
-19.1719
-19.1645
-8.28895
-8.28676
-8.28855
-8.29004
-8.29004
-8.29218
13.9156
13.9146
13.9166
13.9135
13.9065
13.9273
13.7699
13.7754
13.7749
13.7735
13.7721
13.7802
-3.25648
-3.2561
-3.25679
-3.2573
-3.25727
-3.25645
45.1868
45.1715
45.1835
45.1782
45.1794
45.188
27.6665
27.6673
27.6675
27.6665
27.6637
27.6744
0.402663
0.401635
0.401295
0.400831
0.400305
0.401755
1821.61
1821.62
1822
1821.52
1821.62
1822.28
6.9895
6.98815
6.98933
6.99137
6.99168
6.98976
-13.2598
-13.2625
-13.2627
-13.2634
-13.2671
-13.2602
12972.1
12972.7
12973.8
12974
12975.5
12976.1
3.47539
3.49246
3.51419
3.53269
3.53957
3.65618
-5.98121
-5.96325
-5.93264
-5.89261
-5.83303
-5.84701
13006.2
13007
13007.6
13006.9
13007.3
13009
2.76147
4.7339
5.04458
1.70736
1.70909
11.8222
-4.80786
-4.79811
-4.78762
-4.78281
-4.76876
-4.75547
12892.2
12891.9
12894.4
12885.2
12879.5
12903.3
2.37688
2.37195
2.37732
2.36569
2.36224
2.38347
-4.10023
-4.09762
-4.09336
-4.09607
-4.08131
-4.09734
10973.5
10970.7
10979.4
10949.1
10931.6
11002.7
3.95751
3.95527
3.95936
3.94499
3.94122
3.96811
-4.86125
-4.85555
-4.85738
-4.8343
-4.80631
-4.87707
10319.1
10318.1
10324.7
10305.7
10294.2
10341.7
6.49086
6.48645
6.48929
6.48438
6.48054
6.4904
-6.80562
-6.802
-6.80435
-6.79559
-6.78015
-6.81511
8543.09
8542.86
8547.02
8537.12
8532.49
8555.63
11.2867
11.287
11.2866
11.29
11.2919
11.2854
-11.0853
-11.0852
-11.0856
-11.0852
-11.0825
-11.0876
13.5829
13.5873
13.5902
13.5919
13.6038
13.5877
7.64773
7.6497
7.65125
7.65269
7.65756
7.65041
2.5003
2.50104
2.5018
2.50253
2.50394
2.50204
7.10154
7.10408
7.10047
7.08895
7.10123
7.09674
5.62547
5.62682
5.62617
5.62482
5.63026
5.61728
2.36354
2.36461
2.36515
2.36653
2.3691
2.36176
-6.65592
-6.68487
-6.67412
-6.73677
-6.81438
-6.56247
0.560354
0.559865
0.56176
0.555005
0.554
0.575479
1.24974
1.25225
1.25302
1.25623
1.26294
1.2511
-24.1345
-24.2452
-24.2026
-24.3559
-24.5067
-24.1264
-6.54041
-6.551
-6.54339
-6.56043
-6.55971
-6.52418
-0.458684
-0.456471
-0.455434
-0.452769
-0.444781
-0.451655
-25.1084
-25.185
-25.1776
-25.2483
-25.3511
-25.375
-10.973
-10.9912
-10.9765
-10.9929
-10.9778
-10.9418
-1.64849
-1.64769
-1.64556
-1.64232
-1.63564
-1.64078
-21.9047
-21.9426
-21.927
-21.9768
-21.9763
-22.0477
-10.3205
-10.3282
-10.3196
-10.3385
-10.3356
-10.3355
-1.63776
-1.63671
-1.63497
-1.63252
-1.62838
-1.63584
-12.2841
-12.2802
-12.2375
-12.1873
-12.0721
-12.1898
-6.91708
-6.91314
-6.90241
-6.89086
-6.87441
-6.88575
-1.42462
-1.42243
-1.41792
-1.41239
-1.40496
-1.41017
-6.8355
-6.80765
-6.73544
-6.62475
-6.46156
-6.58629
-5.06053
-5.04627
-5.01812
-4.98232
-4.94195
-4.95079
-1.7543
-1.74952
-1.74069
-1.73
-1.71903
-1.72035
-2.71851
-2.75632
-2.7697
-2.74601
-2.56887
-2.8191
-4.06
-4.04241
-4.00423
-3.96928
-3.92123
-3.90706
-1.61593
-1.61412
-1.60817
-1.59818
-1.58363
-1.59559
-1.8447
-1.74251
-1.52982
-1.19959
-0.274169
-1.11447
-4.12338
-4.07938
-3.98793
-3.9655
-3.83347
-3.79385
-2.58109
-2.56728
-2.54117
-2.49674
-2.43703
-2.48498
-6.17603
-6.08209
-6.50152
-4.39382
1.88983
-5.13113
-3.16372
-3.09822
-2.97872
-2.86105
-2.39308
-2.61245
-3.90449
-3.87851
-3.83027
-3.69168
-3.51144
-3.67691
7041.86
7013.73
6986.23
7347.35
7587.95
7090.62
-0.145805
-0.106906
-0.0291554
-0.0346306
0.0855233
0.138586
-11.9849
-11.9179
-11.8333
-11.7073
-11.5188
-11.5537
)
;

boundaryField
{
    seabed_topleft_surface
    {
        type            fixedFluxPressure;
        gradient        uniform 0;
        value           nonuniform List<scalar> 
72
(
3776.95
3776.93
3776.93
3776.92
3776.93
3776.98
3844.8
3844.77
3844.77
3844.76
3844.77
3844.82
4170.26
4170.22
4170.21
4170.22
4170.23
4170.26
5545.96
5545.95
5545.95
5545.96
5545.98
5546
9045.46
9045.26
9045.34
9045.33
9045.28
9045.41
15204.3
15204.2
15204.2
15204.2
15204.2
15204.2
20115.3
20115.4
20115.3
20115.3
20115.3
20115.3
22057.7
22058
22057.9
22057.9
22058
22057.8
22612.7
22613
22612.8
22612.8
22612.9
22612.7
23753.7
23753.4
23753.5
23753.5
23753.4
23753.5
24684.9
24684.3
24684.5
24684.6
24684.4
24684.8
24153.7
24153.7
24153.7
24153.8
24153.8
24153.9
)
;
    }
    seabed_topright_surface
    {
        type            fixedFluxPressure;
        gradient        uniform 0;
        value           nonuniform List<scalar> 
72
(
107.599
107.824
107.69
107.719
108.393
107.224
109.225
109.591
109.402
109.508
110.602
109.02
108.052
108.881
108.411
109.218
111.19
107.927
123.505
126.452
121.033
129.664
148.565
116.672
271.162
277.66
264.528
283.315
329.055
247.958
456.147
464.463
464.899
477.52
483.235
461.329
511.799
512.529
513.601
513.783
483.252
523.939
1527.7
1519.28
1496.71
1456.96
1333.23
1436.12
3240.09
3243.37
3250.69
3289.45
3319.69
3204.32
2752.25
2758.75
2793.58
2683.35
2651.63
2890.16
1454.96
1452.04
1452.77
1399.94
1307.06
1451.28
1308.37
1306.16
1301.59
1294.54
1280.15
1290.95
)
;
    }
    breakwater_top_surface
    {
        type            fixedFluxPressure;
        gradient        uniform 0;
        value           nonuniform List<scalar> 
36
(
12972.1
12972.7
12973.8
12974
12975.5
12976.1
13006.2
13007
13007.6
13006.9
13007.3
13009
12892.2
12891.9
12894.4
12885.2
12879.5
12903.3
10973.5
10970.7
10979.4
10949.1
10931.6
11002.7
10319.1
10318.1
10324.7
10305.7
10294.2
10341.7
8543.09
8542.86
8547.02
8537.12
8532.49
8555.63
)
;
    }
    breakwater_left_surface
    {
        type            fixedFluxPressure;
        gradient        uniform 0;
        value           nonuniform List<scalar> 
24
(
24153.7
24153.7
24153.7
24153.8
24153.8
24153.9
20990
20988.4
20989.1
20989
20988.3
20990.2
6910.67
6905.84
6908.27
6907.53
6904.64
6911.96
220.992
220.956
220.965
220.954
220.905
221.01
)
;
    }
    breakwater_right_surface
    {
        type            fixedFluxPressure;
        gradient        uniform 0;
        value           nonuniform List<scalar> 
24
(
1308.37
1306.16
1301.59
1294.54
1280.15
1290.95
1056.73
1053.47
1044.89
1042.86
1017.65
1038.1
2525.5
2673.32
3078.83
1884.99
972.53
3076.79
5531.84
5568.91
5633.31
5732.99
6457.42
5774.84
)
;
    }
    water_front_surface
    {
        type            fixedFluxPressure;
        gradient        uniform 0;
        value           nonuniform List<scalar> 
186
(
3776.95
3844.8
4170.26
5545.96
9045.46
15204.3
20115.3
22057.7
22612.7
23753.7
24684.9
24153.7
57.428
67.7413
100.239
411.346
2323.89
10559.9
20343
21502.3
22246
22137.7
20786.3
20990
70.6125
69.8032
77.3968
86.5723
164.509
3195.04
14985.8
19146.5
15575.8
8592.06
6344.99
6910.67
52.719
57.7272
68.9608
74.0795
185.069
1441.99
1857.89
1184.57
-25.8875
-11.08
93.9176
220.992
107.599
109.225
108.052
123.505
271.162
456.147
511.799
1527.7
3240.09
2752.25
1454.96
1308.37
87.1567
79.4427
27.8746
-104.127
-140.43
-92.3076
-30.8448
139.847
1154.36
1818.36
1685.31
1056.73
50.379
36.6796
-12.9187
-92.6841
-103.244
-66.0646
-27.1202
-12.2174
9.34326
1347.7
3020.74
2525.5
25.212
12.715
-20.7347
-66.2281
-84.8557
-52.6345
-20.3136
-9.05388
-6.89241
11.105
3268.1
5531.84
40.6887
22.4709
7.13252
41.2006
21.8431
6.40053
42.4356
20.4675
5.16668
42.1774
10.691
0.0541194
-35.4895
-40.474
-12.6202
-43.5165
-59.6662
-21.084
-82.6166
-68.4374
-18.7705
-77.0731
-57.2355
-13.97
-17.5272
-19.1732
-8.28895
13.9156
13.7699
-3.25648
45.1868
27.6665
0.402663
1821.61
6.9895
-13.2598
12972.1
3.47539
-5.98121
13006.2
2.76147
-4.80786
12892.2
2.37688
-4.10023
10973.5
3.95751
-4.86125
10319.1
6.49086
-6.80562
8543.09
11.2867
-11.0853
13.5829
7.64773
2.5003
7.10154
5.62547
2.36354
-6.65592
0.560354
1.24974
-24.1345
-6.54041
-0.458684
-25.1084
-10.973
-1.64849
-21.9047
-10.3205
-1.63776
-12.2841
-6.91708
-1.42462
-6.8355
-5.06053
-1.7543
-2.71851
-4.06
-1.61593
-1.8447
-4.12338
-2.58109
-6.17603
-3.16372
-3.90449
7041.86
-0.145805
-11.9849
)
;
    }
    water_back_surface
    {
        type            fixedFluxPressure;
        gradient        uniform 0;
        value           nonuniform List<scalar> 
186
(
3776.98
3844.82
4170.26
5546
9045.41
15204.2
20115.3
22057.8
22612.7
23753.5
24684.8
24153.9
57.4283
67.7414
100.235
411.31
2323.71
10559.8
20342.9
21502.3
22246.1
22138.1
20786.9
20990.2
70.6124
69.804
77.398
86.5798
164.503
3194.64
14986.6
19148.7
15578.4
8593.75
6345.82
6911.96
52.7191
57.7278
68.9627
74.0834
184.89
1441.76
1858.13
1184.87
-25.8852
-11.1012
93.9215
221.01
107.224
109.02
107.927
116.672
247.958
461.329
523.939
1436.12
3204.32
2890.16
1451.28
1290.95
86.9418
79.7923
27.9494
-98.4971
-141.342
-94.4748
-38.6028
110.382
1210.88
1977.48
1930.76
1038.1
50.4032
36.9738
-12.7804
-91.3203
-98.4119
-66.0904
-26.8837
-11.4036
4.79459
1469.95
3141.86
3076.79
25.2481
12.7708
-20.5274
-66.3557
-87.258
-53.6101
-20.3859
-8.37057
-6.571
12.6489
3577.52
5774.84
40.6887
22.4709
7.13247
41.201
21.8434
6.40059
42.4381
20.469
5.16744
42.1805
10.6933
0.0556572
-35.5225
-40.4752
-12.619
-43.5485
-59.6741
-21.0874
-82.6323
-68.4437
-18.7729
-77.0706
-57.2323
-13.9737
-17.5176
-19.1645
-8.29218
13.9273
13.7802
-3.25645
45.188
27.6744
0.401755
1822.28
6.98976
-13.2602
12976.1
3.65618
-5.84701
13009
11.8222
-4.75547
12903.3
2.38347
-4.09734
11002.7
3.96811
-4.87707
10341.7
6.4904
-6.81511
8555.63
11.2854
-11.0876
13.5877
7.65041
2.50204
7.09674
5.61728
2.36176
-6.56247
0.575479
1.2511
-24.1264
-6.52418
-0.451655
-25.375
-10.9418
-1.64078
-22.0477
-10.3355
-1.63584
-12.1898
-6.88575
-1.41017
-6.58629
-4.95079
-1.72035
-2.8191
-3.90706
-1.59559
-1.11447
-3.79385
-2.48498
-5.13113
-2.61245
-3.67691
7090.62
0.138586
-11.5537
)
;
    }
    water_left_surface
    {
        type            fixedFluxPressure;
        gradient        uniform 0;
        value           nonuniform List<scalar> 
42
(
3776.95
3776.93
3776.93
3776.92
3776.93
3776.98
57.428
57.4283
57.4284
57.4284
57.4284
57.4283
70.6125
70.6128
70.6127
70.6127
70.6126
70.6124
52.719
52.7195
52.7196
52.7195
52.7195
52.7191
40.6887
40.6886
40.6886
40.6886
40.6886
40.6887
22.4709
22.4708
22.4708
22.4708
22.4708
22.4709
7.13252
7.13254
7.1325
7.13253
7.13255
7.13247
)
;
    }
    water_right_surface
    {
        type            fixedFluxPressure;
        gradient        uniform 0;
        value           nonuniform List<scalar> 
42
(
107.599
107.824
107.69
107.719
108.393
107.224
87.1567
87.3733
87.2796
87.3962
87.9601
86.9418
50.379
50.4729
50.4653
50.5207
50.7534
50.4032
25.212
25.2307
25.2414
25.2478
25.2955
25.2481
13.5829
13.5873
13.5902
13.5919
13.6038
13.5877
7.64773
7.6497
7.65125
7.65269
7.65756
7.65041
2.5003
2.50104
2.5018
2.50253
2.50394
2.50204
)
;
    }
    water_top_surface
    {
        type            totalPressure;
        rho             rho;
        psi             none;
        gamma           1;
        p0              uniform 0;
        value           nonuniform List<scalar> 
180
(
0
0
0
0
0
0
0
0
0
0
0
0
0
0
0
0
0
0
0
0
0
0
0
0
0
0
0
0
0
0
0
0
0
0
0
0
0
0
0
0
0
0
-3.73098
-3.71404
-3.72293
-3.72593
-3.72145
-3.73593
-13.0529
-13.0413
-13.0481
-13.0507
-13.0503
-13.0572
-8.62005
-8.61595
-8.61813
-8.62006
-8.62074
-8.61967
-2.65395
-2.65338
-2.65476
-2.65625
-2.65667
-2.6551
-2.06981
-2.07307
-2.07188
-2.07169
-2.0746
-2.06862
-2.00159
-2.01981
-2.0034
-1.99142
-2.04588
-1.93996
-1.96885
-1.99817
-2.00112
-1.89708
-1.87898
-2.04276
-2.19097
-2.19184
-2.1885
-2.20668
-2.25882
-2.11175
-3.38235
-3.39283
-3.36375
-3.43572
-3.51717
-3.27863
-3.59609
-3.60986
-3.58443
-3.63535
-3.70221
-3.52265
-1.73558
-1.74233
-1.73474
-1.74512
-1.76645
-1.71373
0
0
0
0
0
0
0
0
0
0
0
0
0
0
0
0
0
0
0
0
0
0
0
0
0
0
0
0
0
0
-0.000870969
-0.000863801
-0.000857676
-0.000826202
-0.000779513
-0.00083254
-0.376018
-0.375549
-0.374799
-0.373846
-0.372545
-0.373454
-1.76921
-1.76586
-1.76294
-1.7583
-1.75443
-1.75097
-1.42316
-1.42191
-1.41899
-1.40785
-1.39385
-1.41625
-4.54901
-4.54142
-4.51435
-4.51852
-4.49622
-4.45912
-5.32386
-5.3139
-5.24655
-5.20934
-5.14364
-5.0992
-2.37493
-2.35325
-2.34498
-2.29857
-2.15192
-2.28533
)
;
    }
}


// ************************************************************************* //
