/*--------------------------------*- C++ -*----------------------------------*\
| =========                 |                                                 |
| \\      /  F ield         | OpenFOAM: The Open Source CFD Toolbox           |
|  \\    /   O peration     | Version:  v1612+                                |
|   \\  /    A nd           | Web:      www.OpenFOAM.com                      |
|    \\/     M anipulation  |                                                 |
\*---------------------------------------------------------------------------*/
FoamFile
{
    version     2.0;
    format      ascii;
    class       volVectorField;
    location    "4.9";
    object      U;
}
// * * * * * * * * * * * * * * * * * * * * * * * * * * * * * * * * * * * * * //

dimensions      [0 1 -1 0 0 0 0];

internalField   nonuniform List<vector> 
1116
(
(0.124191 -9.64306e-06 -0.167383)
(0.124191 -1.41837e-05 -0.16739)
(0.124192 -4.0006e-06 -0.16738)
(0.124193 -6.56081e-07 -0.167379)
(0.124191 -6.47176e-06 -0.167389)
(0.124189 -1.36955e-06 -0.167378)
(0.366381 -5.56252e-06 -0.306571)
(0.366392 -1.31691e-05 -0.306585)
(0.366391 -3.43553e-06 -0.306568)
(0.366392 5.58329e-07 -0.306563)
(0.36639 -8.48512e-06 -0.306581)
(0.36638 -5.85075e-06 -0.306568)
(0.43467 3.79136e-06 -0.325042)
(0.434692 -5.05325e-06 -0.325062)
(0.434689 -2.18182e-06 -0.325043)
(0.434688 -1.38631e-06 -0.325037)
(0.434688 -1.25932e-05 -0.325057)
(0.434674 -1.11605e-05 -0.325047)
(0.11207 5.32097e-06 -0.24106)
(0.112119 -1.56332e-06 -0.241082)
(0.112109 -2.09369e-06 -0.241065)
(0.112108 -6.04339e-06 -0.24106)
(0.112116 -1.23203e-05 -0.241079)
(0.112088 -1.00046e-05 -0.241073)
(-0.664477 2.91577e-05 -0.0138803)
(-0.664415 1.93905e-05 -0.0138959)
(-0.664421 -7.93398e-06 -0.013891)
(-0.66442 -2.1024e-06 -0.0138883)
(-0.664405 -2.04145e-05 -0.0139012)
(-0.664446 -2.20243e-05 -0.0138956)
(-1.66018 1.15467e-06 0.288081)
(-1.66013 1.40532e-05 0.288072)
(-1.66012 1.18587e-05 0.288073)
(-1.66012 2.0135e-06 0.288078)
(-1.66011 -1.30119e-05 0.288071)
(-1.66016 -1.21521e-05 0.288085)
(-2.72763 -3.73132e-05 0.45289)
(-2.72764 3.78129e-06 0.452963)
(-2.72757 3.01618e-05 0.452937)
(-2.72757 1.25653e-06 0.452937)
(-2.72757 -4.3399e-06 0.452958)
(-2.72766 -5.80934e-07 0.452918)
(-3.64469 -5.34341e-05 0.227866)
(-3.64486 -1.35632e-05 0.227973)
(-3.6447 3.17097e-05 0.227958)
(-3.64468 -4.35524e-06 0.227963)
(-3.64473 4.52273e-06 0.227989)
(-3.64479 1.75558e-05 0.227868)
(-3.87385 0.000110327 -0.398844)
(-3.87423 6.75658e-05 -0.398708)
(-3.87399 -4.02169e-05 -0.398701)
(-3.87399 1.99385e-05 -0.398699)
(-3.8741 -3.49071e-05 -0.398679)
(-3.87396 -4.41344e-05 -0.398858)
(-3.08514 0.000395856 -0.922667)
(-3.08558 0.000229872 -0.922432)
(-3.08531 -0.000172207 -0.922462)
(-3.08538 5.83585e-05 -0.922491)
(-3.08554 -0.000135851 -0.922437)
(-3.08519 -0.000197388 -0.922682)
(-1.90657 0.000296658 -1.06405)
(-1.90647 0.000158805 -1.06374)
(-1.90642 -0.000164021 -1.06383)
(-1.90658 2.44652e-05 -1.06388)
(-1.90663 -0.000162172 -1.06377)
(-1.90644 -0.000210862 -1.0641)
(-0.629934 -0.000111971 -0.644174)
(-0.629774 -0.000100512 -0.644154)
(-0.629814 -8.00755e-06 -0.644201)
(-0.629852 -3.67103e-05 -0.644171)
(-0.629816 -5.6121e-05 -0.644126)
(-0.62992 -3.85978e-05 -0.644318)
(1.13079 -8.03209e-05 -0.662554)
(1.13081 -8.97747e-05 -0.662623)
(1.13079 -2.70083e-06 -0.662679)
(1.13079 1.4582e-05 -0.662634)
(1.1308 9.69e-05 -0.662612)
(1.1308 8.44568e-05 -0.662628)
(2.83366 -9.85075e-05 -0.262844)
(2.83353 -0.000108719 -0.262916)
(2.8335 -1.87354e-05 -0.262982)
(2.83351 -3.29545e-05 -0.262923)
(2.83351 0.000162235 -0.262888)
(2.83359 0.000146232 -0.262946)
(3.98117 -1.1616e-05 0.456831)
(3.9817 -6.99196e-05 0.456793)
(3.98162 -8.04881e-05 0.456805)
(3.98123 -8.44653e-05 0.456807)
(3.98129 -6.74134e-06 0.456812)
(3.98174 -6.93189e-06 0.456843)
(0.795965 0.000128887 1.01543)
(0.797228 5.17063e-05 1.01541)
(0.796625 -7.97233e-05 1.01542)
(0.796561 -6.62703e-06 1.01542)
(0.796958 -7.13399e-05 1.0154)
(0.796247 -9.35701e-05 1.01537)
(-1.29128 0.000471527 1.59255)
(-1.29095 0.000267621 1.59264)
(-1.29108 -0.000228611 1.59258)
(-1.29101 9.58179e-05 1.59257)
(-1.29092 -0.000135334 1.59259)
(-1.29118 -0.000267692 1.59254)
(-2.36034 0.000207856 1.63651)
(-2.36007 0.000136534 1.63659)
(-2.36016 -7.681e-05 1.63656)
(-2.36016 6.37404e-05 1.63657)
(-2.36007 -8.54746e-05 1.6366)
(-2.36028 -0.000149916 1.63654)
(-2.67482 0.000109499 1.15579)
(-2.67485 7.82702e-05 1.15569)
(-2.67479 -4.84184e-05 1.15575)
(-2.67477 4.13608e-05 1.15578)
(-2.67476 -3.96161e-05 1.15576)
(-2.67487 -8.56803e-05 1.15578)
(-2.88041 0.000182296 0.455836)
(-2.88088 9.02705e-05 0.455679)
(-2.88062 -9.45703e-05 0.455804)
(-2.88059 5.8964e-05 0.455817)
(-2.8807 -2.8488e-05 0.455774)
(-2.88059 -8.03028e-05 0.455787)
(-2.48377 0.000489083 -0.331302)
(-2.48417 0.000251185 -0.330795)
(-2.48394 -0.000219209 -0.330903)
(-2.48397 0.000130101 -0.330989)
(-2.48405 -9.85504e-05 -0.330831)
(-2.48386 -0.000206179 -0.331214)
(-1.90476 0.000300086 -1.08211)
(-1.90338 0.00014111 -1.08036)
(-1.9039 -0.000149272 -1.08098)
(-1.90413 5.37015e-05 -1.08123)
(-1.90372 -9.91102e-05 -1.08069)
(-1.90432 -0.000147927 -1.08174)
(-1.46095 -0.000438496 -1.82594)
(-1.45815 -0.000265661 -1.82455)
(-1.45931 0.000128976 -1.8251)
(-1.45958 -0.000140966 -1.82535)
(-1.4588 -7.93843e-06 -1.82496)
(-1.46019 7.73643e-05 -1.82573)
(-0.837385 -0.000511105 -1.56805)
(-0.837124 -0.000293489 -1.56861)
(-0.837182 0.00010478 -1.56843)
(-0.837242 -0.000233417 -1.56844)
(-0.836967 0.000133297 -1.56851)
(-0.837528 0.000243081 -1.56845)
(-1.16261 -5.82989e-05 -2.80282)
(-1.16248 -3.34048e-05 -2.8032)
(-1.16253 2.13818e-05 -2.80315)
(-1.16252 6.21375e-06 -2.80314)
(-1.16247 6.24379e-05 -2.80319)
(-1.16259 6.91998e-05 -2.80279)
(-3.25777 -0.000119787 -2.12824)
(-3.25798 -8.25652e-05 -2.1289)
(-3.25794 8.77749e-06 -2.12882)
(-3.25789 -3.13427e-05 -2.12879)
(-3.25789 9.70798e-05 -2.12886)
(-3.25772 0.000119628 -2.1284)
(-2.88705 -8.13374e-05 1.91947)
(-2.88758 -8.09854e-05 1.91863)
(-2.8876 2.86339e-05 1.91872)
(-2.88759 7.46915e-05 1.91867)
(-2.88758 0.000189126 1.91847)
(-2.8873 0.000138349 1.91886)
(-4.81329 0.000776868 6.11435)
(-4.81118 0.000385879 6.11746)
(-4.81163 -0.000327106 6.11603)
(-4.81205 0.000354556 6.11548)
(-4.81121 2.52826e-05 6.11631)
(-4.81085 -0.000258064 6.11526)
(-8.04 0.00306712 4.68127)
(-8.04443 0.00178571 4.69099)
(-8.04195 -0.00154123 4.68651)
(-8.04199 0.000613661 4.68562)
(-8.0432 -0.001025 4.68889)
(-8.04037 -0.00183806 4.68367)
(-5.18939 0.0010478 1.7336)
(-5.18909 0.000571881 1.7365)
(-5.18923 -0.000523521 1.73524)
(-5.18932 0.000284684 1.73496)
(-5.18912 -0.00031584 1.73598)
(-5.18934 -0.000636943 1.73432)
(-3.6598 0.000445987 0.884426)
(-3.65894 0.000233304 0.886413)
(-3.65933 -0.000209928 0.885562)
(-3.65945 0.000156721 0.88539)
(-3.65909 -0.00010455 0.886084)
(-3.65965 -0.000259048 0.884901)
(-2.70102 3.80587e-05 -0.0201729)
(-2.69998 -2.05874e-05 -0.0182192)
(-2.70043 -5.39771e-05 -0.0190355)
(-2.70061 1.62268e-05 -0.0192479)
(-2.70022 1.48076e-05 -0.0185684)
(-2.70084 -8.50196e-06 -0.0197291)
(-1.83242 -0.00103184 -1.15347)
(-1.83039 -0.000659608 -1.15163)
(-1.83128 0.000432723 -1.15238)
(-1.83152 -0.000294721 -1.1526)
(-1.83085 0.0002147 -1.15195)
(-1.83206 0.000542069 -1.15308)
(-0.56035 -0.00203377 -2.06165)
(-0.558614 -0.00129008 -2.0612)
(-0.55951 0.000938657 -2.06139)
(-0.559443 -0.00047124 -2.06151)
(-0.558846 0.000334471 -2.06133)
(-0.560422 0.000944763 -2.06168)
(0.965916 -0.00188376 -1.95013)
(0.967259 -0.00117116 -1.95079)
(0.966217 0.000925372 -1.95068)
(0.96738 -0.000603889 -1.95054)
(0.967857 0.000620268 -1.95068)
(0.964791 0.00134344 -1.95073)
(-1.97426 0.000218786 -2.00446)
(-1.97522 0.000237654 -2.00474)
(-1.97484 -5.09967e-05 -2.00467)
(-1.97496 7.42927e-05 -2.0049)
(-1.97755 -0.000192943 -2.00519)
(-1.9726 -0.000388908 -2.00447)
(-0.540003 -4.33511e-05 1.44964)
(-0.540025 -3.43233e-05 1.44894)
(-0.540013 1.44689e-05 1.44907)
(-0.540025 -2.14289e-05 1.44905)
(-0.540034 1.84884e-05 1.44891)
(-0.539996 2.08206e-05 1.44964)
(-2.22895 -4.6161e-05 1.09426)
(-2.22917 -2.33754e-05 1.0935)
(-2.2291 1.25575e-05 1.09368)
(-2.22908 -2.7483e-05 1.09371)
(-2.22912 1.37072e-05 1.09353)
(-2.22903 9.61662e-06 1.09417)
(-3.07175 0.000402362 2.39114)
(-3.0724 0.000307782 2.38986)
(-3.07215 -0.000133795 2.39017)
(-3.07215 0.000117925 2.39031)
(-3.07222 -3.35536e-06 2.38983)
(-3.07197 -0.000171625 2.39049)
(-3.31952 0.000628826 6.42336)
(-3.31549 0.000305593 6.4277)
(-3.31689 -0.00040192 6.42537)
(-3.31828 0.000186589 6.42469)
(-3.31667 -7.49036e-05 6.42608)
(-3.31864 -0.000338258 6.42403)
(-7.2432 0.00046579 1.13455)
(-7.23786 0.00029079 1.14751)
(-7.23978 -0.000598323 1.14177)
(-7.24181 -0.000165613 1.1399)
(-7.23978 -2.5458e-06 1.14491)
(-7.24182 -0.000228271 1.13829)
(-7.46587 -0.000872147 -2.20796)
(-7.46292 -0.000518906 -2.20326)
(-7.46427 0.000125361 -2.20537)
(-7.46519 -0.000358766 -2.20582)
(-7.46399 0.000291687 -2.20398)
(-7.46548 0.000429439 -2.20669)
(-6.40951 -0.00237707 -2.52975)
(-6.40321 -0.00138897 -2.52764)
(-6.40611 0.000884259 -2.52865)
(-6.40702 -0.000790205 -2.52879)
(-6.40478 0.000630303 -2.52781)
(-6.40832 0.00128606 -2.52924)
(-5.09091 -0.0032594 -2.2649)
(-5.08311 -0.00189958 -2.26604)
(-5.08657 0.00124632 -2.26557)
(-5.08761 -0.00127409 -2.26551)
(-5.08493 0.000614825 -2.26561)
(-5.08929 0.00170981 -2.26514)
(-1.24183 -0.00270872 -4.17308)
(-1.24477 -0.00191163 -4.18327)
(-1.24026 0.000466078 -4.17826)
(-1.24693 -0.00176856 -4.17839)
(-1.24999 -3.84047e-06 -4.18221)
(-1.24464 0.00130798 -4.17594)
(2.58277 -0.000932019 -4.92108)
(2.57519 -0.000702109 -4.93415)
(2.57868 0.00105375 -4.92868)
(2.57926 0.000343058 -4.92778)
(2.5762 0.000536401 -4.93205)
(2.58035 0.000840977 -4.92461)
(7.98663 -0.000665429 0.407214)
(7.97278 -0.000708846 0.39935)
(7.97878 0.00104037 0.402347)
(7.98056 -0.00177206 0.403656)
(7.97555 0.00259377 0.40306)
(7.98116 0.00514918 0.403308)
(-5.34495 0.00216015 -0.802404)
(-5.35503 0.00157574 -0.800752)
(-5.35112 -0.000418593 -0.801957)
(-5.35024 0.00119224 -0.801201)
(-5.37123 -0.0011855 -0.80173)
(-5.33339 -0.00236246 -0.802605)
(1.23385 -0.0143289 1.68504)
(1.25151 0.00344752 1.68815)
(1.2277 0.0220754 1.67897)
(1.23659 -0.02865 1.67623)
(1.28993 0.0707458 1.6868)
(1.16895 0.101861 1.65095)
(5.13259 -0.0340146 2.39559)
(5.28263 0.0101111 2.38136)
(5.07416 0.0435953 2.42068)
(5.18934 -0.0701385 2.38915)
(5.57968 0.133985 2.29529)
(4.63117 0.209716 2.48056)
(11.1498 -0.0409946 1.64257)
(11.4796 0.0190735 1.54542)
(11.0701 0.0234177 1.79441)
(11.3392 -0.113058 1.6035)
(12.0771 0.153634 1.02127)
(10.3288 0.294283 2.20694)
(15.4328 -0.0128573 -1.68383)
(15.7952 0.0251169 -1.83982)
(15.4222 -0.00233514 -1.48733)
(15.6363 -0.0340165 -1.83495)
(16.1921 0.0664098 -2.71285)
(14.7871 0.197334 -0.906112)
(16.4904 0.0192047 -3.84498)
(16.8206 0.0377491 -3.97456)
(16.6255 0.0422789 -3.91892)
(16.6045 0.146679 -3.95363)
(16.8137 -0.00161074 -4.37251)
(16.1901 -0.078698 -3.7199)
(15.526 0.0361568 -4.36076)
(15.8342 0.0608512 -4.51877)
(15.6218 0.0963868 -4.53138)
(15.6377 0.298892 -4.52896)
(15.9374 -0.0499262 -4.92532)
(15.0809 -0.224231 -4.42811)
(13.8872 0.0404985 -4.17343)
(14.0615 0.0666478 -4.32836)
(13.8571 0.136243 -4.37063)
(13.9902 0.397552 -4.38087)
(14.4276 -0.0817855 -4.81986)
(13.2644 -0.309616 -4.32515)
(11.6225 0.0212914 -4.35161)
(11.6501 0.0189971 -4.45623)
(11.5372 0.102179 -4.49387)
(11.7308 0.316634 -4.48725)
(12.2065 -0.100839 -4.86255)
(11.1595 -0.239871 -4.44135)
(8.01666 -0.00429829 -5.37158)
(8.0364 -0.0652542 -5.43327)
(7.98959 0.0164342 -5.44331)
(8.05193 0.114499 -5.38739)
(8.45555 -0.224572 -5.65893)
(7.80115 -0.153346 -5.27668)
(3.71545 0.00411038 -5.92029)
(3.80838 -0.0724018 -5.99286)
(3.8775 0.155952 -6.04698)
(3.56713 0.446707 -5.83052)
(4.17142 -0.512529 -6.21372)
(3.73074 -0.534858 -5.67507)
(-4.12574 0.0331788 -4.36429)
(-3.95228 0.0531178 -4.47013)
(-3.03629 0.226901 -4.69576)
(-5.30541 0.74876 -3.9215)
(-6.5808 -0.440949 -3.86586)
(-1.61239 -0.443962 -4.59952)
(-7.25328 0.0576267 1.37695)
(-7.31005 0.170091 1.42005)
(-6.85442 0.338274 1.83257)
(-7.32273 0.647606 1.12503)
(-7.19184 -0.395565 1.57936)
(-5.61599 -0.666242 1.54882)
(1.27451 -0.0173694 4.85741)
(1.28986 -0.00146851 4.86587)
(1.27546 0.0131266 4.84902)
(1.29089 -0.045163 4.85367)
(1.3377 0.0783599 4.8774)
(1.23541 0.119227 4.79707)
(3.80191 -0.0383677 6.6946)
(3.95587 -0.0165058 6.6953)
(3.77256 0.0104976 6.71736)
(3.95097 -0.0763466 6.69147)
(4.34893 0.0856132 6.64416)
(3.37291 0.169373 6.73369)
(8.51813 -0.033123 6.81391)
(8.85019 -0.0525371 6.77452)
(8.51605 -0.0578739 6.94756)
(8.86675 -0.0668023 6.78574)
(9.60537 -0.0913165 6.50425)
(7.84819 -0.0192027 7.23933)
(12.322 -0.00820809 4.94011)
(12.588 -0.0519267 4.95014)
(12.3775 -0.111824 5.10227)
(12.7342 -0.0835786 4.96129)
(13.4738 -0.180681 4.81028)
(12.0149 -0.136869 5.28933)
(11.1287 0.0211302 2.30258)
(11.2215 0.0471718 2.37252)
(11.0893 -0.0592861 2.35185)
(11.663 -0.137034 2.59874)
(12.5646 0.0692269 3.01472)
(11.3223 0.156312 2.32478)
(9.67793 0.0537002 -0.115825)
(9.70602 0.108973 -0.140443)
(9.35303 0.0584151 -0.444204)
(10.0824 0.0821759 0.439533)
(11.7994 0.0967802 1.92942)
(9.1086 0.135622 -0.839303)
(8.74828 0.0329698 0.275641)
(8.64627 0.0723133 0.121752)
(8.35175 0.114911 -0.174885)
(9.08327 0.273214 0.63341)
(10.9941 -0.0334361 2.60569)
(8.07025 -0.0939928 -0.5435)
(8.65016 -0.0102759 -1.94186)
(8.60784 -0.0100379 -2.04647)
(8.44219 0.0277658 -2.16012)
(8.8003 0.127871 -1.51509)
(9.87532 -0.106592 0.58078)
(8.23137 -0.0968214 -2.1968)
(8.60343 -0.0168987 -6.73067)
(8.61298 -0.0185482 -6.78335)
(8.49096 0.00152795 -6.7574)
(8.73516 0.092124 -6.76916)
(9.0573 -0.117089 -7.08014)
(8.34189 -0.094405 -6.68514)
(7.77934 -0.0271621 -7.12764)
(7.80128 -0.029309 -7.17278)
(7.73037 -0.0530873 -7.24149)
(8.02901 -0.0332708 -7.05917)
(8.39808 -0.123033 -7.04392)
(7.63912 0.022474 -7.15154)
(4.98185 0.00537959 -3.63264)
(5.04082 0.0553984 -3.79658)
(5.19705 0.0447163 -4.28221)
(4.86255 0.197599 -2.70684)
(3.91051 -0.0625385 0.480159)
(5.27768 0.182119 -4.71119)
(-0.923147 0.197934 4.66585)
(-0.80753 0.582655 4.25503)
(0.237265 0.829365 2.76878)
(-1.83014 2.08756 7.25245)
(-3.01452 -0.0386979 10.0706)
(1.15446 -0.0210559 0.0825746)
(0.496309 -0.00975554 6.75308)
(0.502699 -0.00511077 6.76164)
(0.501744 0.000264146 6.75018)
(0.506058 -0.0314389 6.75639)
(0.522238 0.0375671 6.78067)
(0.490918 0.0632491 6.71087)
(0.566479 -0.0273457 8.68558)
(0.624983 -0.0190521 8.7065)
(0.561499 -0.0066306 8.69208)
(0.654347 -0.0662955 8.71658)
(0.8245 0.0619183 8.75594)
(0.422226 0.123727 8.6352)
(1.26207 -0.0299722 9.27777)
(1.46077 -0.0580778 9.2629)
(1.25899 -0.0531675 9.36159)
(1.55584 -0.0481015 9.2879)
(2.00993 -0.0965432 9.18227)
(0.805475 -0.0463994 9.53021)
(2.79002 -0.0281515 5.09255)
(2.97739 -0.075007 5.01048)
(2.91709 -0.0956688 5.23345)
(3.13531 -0.0931888 5.01458)
(3.47582 -0.161119 4.80275)
(2.70103 -0.111767 5.68377)
(3.09423 -0.0197763 -3.49026)
(3.25452 -0.043504 -3.58711)
(3.197 -0.0725696 -3.43054)
(3.39053 -0.147089 -3.57603)
(3.91545 -0.0400873 -3.62382)
(3.12042 0.0578342 -3.02751)
(3.64668 0.00269651 -6.22963)
(3.76132 -0.0104033 -6.27512)
(3.7127 -0.0872568 -6.26668)
(3.76519 -0.25711 -6.422)
(4.13387 0.0777547 -6.5188)
(3.64766 0.264097 -6.23912)
(3.84119 0.0116567 -3.76392)
(3.88581 -0.00960027 -3.81925)
(3.8501 -0.129181 -3.90365)
(3.88904 -0.349956 -4.06867)
(4.16853 0.0791439 -4.18392)
(3.82294 0.331105 -4.06626)
(2.36098 0.00241922 -1.63537)
(2.32564 -0.0179054 -1.63617)
(2.24485 -0.0997462 -1.68136)
(2.29515 -0.218337 -1.33725)
(2.30124 0.0141861 -0.978352)
(2.04279 0.182101 -1.68032)
(4.11547 -0.0129725 -6.18582)
(4.15318 -0.0144042 -6.25441)
(4.15817 -0.0217732 -6.3279)
(4.06785 0.0443626 -6.21578)
(4.22212 -0.110956 -6.89734)
(4.16416 0.0300719 -6.4772)
(6.36501 -0.0284881 -7.99069)
(6.39353 -0.0380283 -7.9818)
(6.36945 -0.100475 -7.95679)
(6.53789 -0.2212 -7.92157)
(7.31852 -0.120855 -8.55353)
(6.44868 0.218344 -7.91207)
(5.51469 -0.0376094 -6.27727)
(5.51841 -0.02839 -6.30483)
(5.43715 -0.221576 -6.33572)
(5.79784 -0.624934 -6.16194)
(6.55842 0.145245 -5.68165)
(5.56222 0.588782 -6.3586)
(2.24985 -0.0271208 -1.11715)
(2.26941 0.0419083 -1.29299)
(2.2668 -0.167901 -1.71185)
(2.26774 -0.582944 -0.735586)
(1.48437 0.957093 7.02843)
(2.34786 0.56314 -2.01566)
(-0.166745 -0.00337715 6.9335)
(-0.163989 -0.00443488 6.93873)
(-0.16336 -0.00329918 6.93595)
(-0.161708 -0.0122871 6.93952)
(-0.155513 0.00782015 6.95408)
(-0.166373 0.0174658 6.92118)
(-1.14753 -0.012067 7.98227)
(-1.13803 -0.0108544 7.99717)
(-1.14194 -0.00953892 7.98568)
(-1.1227 -0.0395294 8.00671)
(-1.0903 0.0318589 8.04499)
(-1.14886 0.0616867 7.94338)
(-3.05183 -0.018198 8.43084)
(-2.99992 -0.0300987 8.44164)
(-3.0624 -0.0289326 8.46202)
(-2.94481 -0.0412527 8.47429)
(-2.79018 -0.0274094 8.47585)
(-3.19809 0.0076335 8.49039)
(-4.1331 -0.0142094 5.52637)
(-4.0618 -0.0392814 5.5046)
(-4.11487 -0.0395486 5.58645)
(-3.95647 -0.0325857 5.52438)
(-3.79338 -0.099378 5.50471)
(-4.23911 -0.0714526 5.73623)
(-4.26623 0.00757855 1.25202)
(-4.20308 -0.0169847 1.23221)
(-4.23828 -0.0207896 1.28079)
(-4.10376 0.00130588 1.22727)
(-3.99561 -0.0996408 1.24205)
(-4.27674 -0.0871348 1.37721)
(-2.41235 0.0170556 -1.5325)
(-2.36633 0.0117281 -1.54635)
(-2.39593 0.017507 -1.52765)
(-2.30672 0.0464082 -1.54073)
(-2.29081 -0.0462852 -1.49019)
(-2.42544 -0.0647966 -1.51058)
(-1.00428 0.0102977 -2.54587)
(-0.972255 0.00702063 -2.55224)
(-0.966414 0.006715 -2.53959)
(-0.916786 0.0128849 -2.50637)
(-0.9046 -0.019868 -2.38497)
(-0.92409 -0.0209016 -2.53903)
(-0.864987 -0.0112341 -2.68369)
(-0.85772 -0.0349733 -2.67582)
(-0.846986 -0.0748272 -2.66357)
(-0.844205 -0.140735 -2.62316)
(-0.897847 -0.00600434 -2.52141)
(-0.815943 0.0848687 -2.64935)
(-1.13391 -0.00246722 -2.00568)
(-1.06222 -0.00665722 -2.10633)
(-1.10033 -0.0227767 -2.17936)
(-1.03719 -0.0589666 -2.28429)
(-0.335136 0.0227161 -2.36276)
(-1.02026 0.0428226 -2.46906)
(3.68198 -0.0125945 -6.20308)
(3.73768 -0.0459505 -6.19569)
(3.82533 -0.0581679 -6.20822)
(3.75955 -0.131449 -6.06434)
(4.12012 -0.0125024 -4.88623)
(3.94491 0.080397 -6.17387)
(4.79301 -0.0186917 -6.61788)
(4.82315 -0.0459543 -6.60407)
(4.87076 -0.125836 -6.59182)
(4.95423 -0.346967 -6.39429)
(5.50271 -0.00800513 -6.00697)
(5.02049 0.282591 -6.47863)
(3.2291 -0.0213921 -3.60709)
(3.24544 -0.0625416 -3.60892)
(3.26457 -0.242404 -3.62287)
(3.23942 -0.739622 -3.38483)
(3.49572 0.0191776 -3.09918)
(3.32275 0.625549 -3.52949)
(-0.230173 1.51308e-05 0.431872)
(-0.230239 5.67415e-06 0.43147)
(-0.230232 -2.72258e-05 0.431544)
(-0.230242 -9.66121e-06 0.431541)
(-0.230258 -3.69637e-05 0.431456)
(-0.230203 -3.84937e-05 0.431879)
(-0.216676 3.30731e-05 1.94664)
(-0.216696 2.28693e-05 1.94648)
(-0.216695 -1.52394e-05 1.94651)
(-0.216703 -9.10033e-06 1.94651)
(-0.21671 -4.32501e-05 1.94649)
(-0.216706 -4.85917e-05 1.94665)
(0.00213339 5.51965e-06 1.72951)
(0.00213531 2.80219e-06 1.72936)
(0.00213465 -6.654e-06 1.72939)
(0.00213211 -9.46579e-07 1.7294)
(0.00213129 -9.54826e-06 1.72937)
(0.002125 -1.18419e-05 1.72952)
(-0.936074 -9.25441e-05 0.950246)
(-0.936278 -7.54864e-05 0.949921)
(-0.936246 -2.73798e-05 0.949969)
(-0.936268 -6.11176e-05 0.949965)
(-0.936304 -2.98951e-05 0.949902)
(-0.936167 -7.76691e-07 0.950251)
(-0.635613 -5.28679e-05 2.15764)
(-0.635669 -4.58818e-05 2.1575)
(-0.635659 -2.57818e-05 2.15753)
(-0.635682 -5.58528e-05 2.15753)
(-0.635696 -4.00801e-05 2.15751)
(-0.63568 -1.90252e-05 2.15766)
(0.0275415 -7.49819e-06 1.94056)
(0.0275508 -9.10799e-06 1.94044)
(0.0275518 -1.12702e-05 1.94045)
(0.0275412 -1.22783e-05 1.94047)
(0.0275396 -1.20255e-05 1.94045)
(0.0275152 -9.56774e-06 1.94058)
(-1.42604 6.26289e-05 2.67625)
(-1.42719 4.33879e-05 2.67571)
(-1.42685 -9.02931e-05 2.67583)
(-1.42688 -1.81695e-05 2.67599)
(-1.42715 -1.88686e-05 2.67579)
(-1.42665 -7.26062e-05 2.67613)
(-0.617849 -0.000166214 2.60964)
(-0.61848 -0.000118225 2.6094)
(-0.618246 -1.75956e-05 2.60947)
(-0.618335 -0.00010068 2.60951)
(-0.618505 1.43153e-06 2.60944)
(-0.618292 4.22088e-05 2.60967)
(0.126919 -4.22937e-05 2.36406)
(0.126841 -3.14911e-05 2.36401)
(0.126892 -1.78139e-05 2.36401)
(0.126864 -4.40492e-05 2.36404)
(0.126839 -1.77736e-05 2.36403)
(0.126834 -4.05087e-06 2.36415)
(-0.0944172 0.00114696 6.64451)
(-0.0956646 0.000805623 6.64563)
(-0.0951287 -0.000556877 6.64483)
(-0.0953121 0.000172165 6.64522)
(-0.0956359 -0.00013167 6.64529)
(-0.095178 -0.000555863 6.64488)
(0.0391467 0.000364179 4.24983)
(0.0369834 0.000290128 4.24996)
(0.0378056 -0.000252599 4.24972)
(0.0379031 -7.34372e-05 4.25025)
(0.0372325 -6.04928e-05 4.25008)
(0.0381976 -0.000195655 4.25036)
(0.274064 -0.000154658 2.0803)
(0.273547 -7.36128e-05 2.08049)
(0.273799 2.30419e-05 2.08038)
(0.273752 -9.84851e-05 2.08057)
(0.273631 2.662e-05 2.08061)
(0.273788 6.22149e-05 2.08072)
(-0.171044 -0.000729531 7.37386)
(-0.159464 -0.000512143 7.38967)
(-0.163564 1.66658e-05 7.38282)
(-0.167516 -0.000554082 7.3797)
(-0.163343 4.46401e-05 7.38563)
(-0.168741 0.000397525 7.37855)
(4.12785 -0.000657118 8.53267)
(4.13167 -0.000454501 8.5395)
(4.13047 0.000179271 8.5363)
(4.12896 -0.000375592 8.53547)
(4.13019 -0.000136904 8.53743)
(4.12808 0.000156516 8.53509)
(2.09786 -4.57438e-05 3.92855)
(2.09698 -1.25949e-05 3.93029)
(2.09735 8.4028e-05 3.92928)
(2.09747 7.92973e-05 3.92991)
(2.09699 -5.29658e-05 3.92987)
(2.09753 -0.000133266 3.93001)
(-4.27488 -0.000327028 0.914631)
(-4.27047 -0.000269422 0.91695)
(-4.27187 5.60112e-05 0.916125)
(-4.27485 -0.000283782 0.914293)
(-4.27355 -6.07174e-05 0.915393)
(-4.27542 0.000181303 0.915357)
(2.7957 0.000179973 5.89016)
(2.7999 0.000102868 5.89874)
(2.79862 1.07616e-05 5.89511)
(2.79642 -8.09538e-05 5.89272)
(2.79783 -0.000300232 5.89606)
(2.79489 -0.000178534 5.8923)
(4.78342 8.1783e-05 5.27015)
(4.78615 6.70492e-06 5.27556)
(4.78506 -8.2806e-05 5.27296)
(4.78428 -3.60166e-05 5.27212)
(4.78545 -0.000317296 5.27442)
(4.78323 -0.000361817 5.27227)
(-8.62511 0.00103201 -2.26111)
(-8.61809 0.000200834 -2.27888)
(-8.62093 -0.000695817 -2.2715)
(-8.62279 5.39021e-05 -2.27003)
(-8.62193 -0.000763258 -2.27579)
(-8.6242 -0.000912625 -2.26536)
(-0.669651 0.00231493 1.22962)
(-0.663369 0.00132204 1.23706)
(-0.665594 -0.000949177 1.2338)
(-0.667624 0.000495389 1.23181)
(-0.666569 -0.000721348 1.23449)
(-0.670887 -0.0012745 1.22875)
(3.73203 0.000252244 2.61394)
(3.73497 8.64051e-06 2.62119)
(3.73372 -0.000138296 2.61765)
(3.73291 8.77436e-05 2.61621)
(3.73399 -0.000156397 2.61927)
(3.73058 -0.000215524 2.61408)
(-8.09184 0.00118168 -5.16233)
(-8.0885 5.65885e-05 -5.176)
(-8.08969 -0.00115619 -5.17126)
(-8.0904 -4.586e-05 -5.16731)
(-8.09029 -0.00144203 -5.17192)
(-8.09006 -0.00156448 -5.16539)
(-1.12672 0.00189198 -3.85921)
(-1.1269 0.000817892 -3.85267)
(-1.1263 -0.000921697 -3.85562)
(-1.12724 0.000660713 -3.85704)
(-1.12765 -0.000439988 -3.85505)
(-1.12688 -0.00101933 -3.86171)
(2.19639 -0.000205047 -2.73317)
(2.19925 -0.000185817 -2.72712)
(2.19769 0.000389241 -2.73038)
(2.19716 0.000310543 -2.73136)
(2.19785 0.000580698 -2.72957)
(2.19461 0.000589774 -2.73475)
(-7.40267 0.00162388 -6.88136)
(-7.40373 0.000468705 -6.88438)
(-7.40356 -0.000632635 -6.88306)
(-7.40243 0.000918328 -6.88297)
(-7.40273 -0.00134025 -6.88503)
(-7.40376 -0.00174963 -6.88302)
(-1.02629 0.000838365 -5.74812)
(-1.02661 0.000405079 -5.74478)
(-1.02623 -0.000151706 -5.74623)
(-1.02667 0.000442101 -5.74697)
(-1.02698 -0.00030399 -5.74608)
(-1.02757 -0.000481366 -5.74912)
(0.822734 -0.000451112 -5.11016)
(0.824232 -0.000190342 -5.10791)
(0.823489 0.000493468 -5.10904)
(0.823314 0.000206945 -5.10936)
(0.823372 0.000600538 -5.10918)
(0.82206 0.000615429 -5.1105)
(-9.98742 0.00144915 -3.41648)
(-9.99074 0.000694722 -3.41419)
(-9.99011 -0.000163271 -3.41464)
(-9.98741 0.000874583 -3.41636)
(-9.98707 -0.000768274 -3.41774)
(-9.99121 -0.00103134 -3.41332)
(-1.26208 8.6798e-05 -5.06449)
(-1.2612 -8.49761e-05 -5.06396)
(-1.26143 0.000202759 -5.06441)
(-1.26192 0.000336864 -5.06461)
(-1.26182 -0.000250064 -5.0645)
(-1.26321 -0.000237813 -5.0646)
(0.217891 -0.00023886 -4.15217)
(0.217979 -5.16848e-05 -4.15116)
(0.217871 0.000231775 -4.1515)
(0.217884 1.65724e-05 -4.15188)
(0.217795 0.000285923 -4.15205)
(0.217271 0.00031454 -4.15184)
(-9.83279 0.00098004 1.94648)
(-9.83887 0.000477723 1.94758)
(-9.83748 -0.000428257 1.94724)
(-9.83356 -0.00065235 1.946)
(-9.83197 0.000575003 1.94339)
(-9.83947 0.00132804 1.95006)
(-0.0983217 4.5214e-05 -2.06588)
(-0.0994909 -2.61255e-05 -2.06689)
(-0.0990765 0.000496336 -2.06674)
(-0.0992627 0.0010093 -2.0675)
(-0.0997224 -0.000714527 -2.06934)
(-0.0989755 -0.00122129 -2.06473)
(0.643259 -2.30816e-05 -2.30475)
(0.64309 7.14724e-05 -2.30408)
(0.643204 7.02923e-05 -2.30444)
(0.643112 -0.000159089 -2.30497)
(0.6429 0.000256972 -2.30505)
(0.643158 0.000409993 -2.30423)
(-4.90845 -0.000313626 -0.334199)
(-4.90873 -0.000313866 -0.33536)
(-4.90934 -0.000601592 -0.334579)
(-4.90677 -0.00186053 -0.335238)
(-4.90406 0.00155658 -0.338399)
(-4.91222 0.00284316 -0.331294)
(1.07311 0.000467313 -6.4758)
(1.07321 0.00019711 -6.47883)
(1.07207 7.39044e-05 -6.47813)
(1.0739 0.00118747 -6.48007)
(1.07476 -0.00123774 -6.48579)
(1.07099 -0.00189936 -6.47278)
(0.826732 0.000206373 -2.03526)
(0.825622 0.000376266 -2.03673)
(0.826401 0.000385604 -2.03609)
(0.825357 0.000874758 -2.036)
(0.823171 -0.000720497 -2.03742)
(0.828528 -0.00142221 -2.03449)
(2.4308 -0.00127909 -0.176857)
(2.42991 -0.00166904 -0.178389)
(2.43155 -0.00275847 -0.179699)
(2.41945 -0.0099059 -0.195168)
(2.41659 0.00269701 -0.226763)
(2.42612 0.0103341 -0.190388)
(2.2164 -0.0095689 -2.09767)
(2.19712 -0.0181001 -2.09978)
(2.19657 0.0129134 -2.08355)
(2.18033 0.0194924 -2.09032)
(2.16426 -0.0539078 -2.0645)
(2.1525 -0.0451945 -2.04251)
(1.111 -0.00507328 -2.0013)
(1.10006 -0.00941301 -2.01044)
(1.0964 -0.00886639 -2.0023)
(1.08822 -0.00986508 -1.99634)
(1.07067 -0.0112027 -2.02346)
(1.08117 -0.00607595 -1.97041)
(1.73557 -0.00010099 -0.455888)
(1.73657 -0.000413656 -0.457019)
(1.73647 -8.61519e-05 -0.457472)
(1.73512 -0.000334522 -0.452221)
(1.7335 0.000796631 -0.446084)
(1.73797 0.00159739 -0.460002)
(1.23132 -0.00386786 -0.870886)
(1.25708 -0.00619972 -0.878569)
(1.26795 -0.00239517 -0.883557)
(1.18545 -0.0064077 -0.851032)
(1.16515 -0.0138458 -0.854085)
(1.33892 0.000762966 -0.888628)
(0.116578 -0.00288749 -1.98522)
(0.114394 -0.00448468 -2.00003)
(0.110012 -0.0066256 -2.00157)
(0.114805 -0.00852036 -1.94891)
(0.11586 -0.00171532 -1.93961)
(0.0977371 0.00110298 -2.0223)
(1.19394 -0.000328759 -0.00955747)
(1.19351 -0.000540256 -0.0103867)
(1.19394 -0.000405337 -0.0106574)
(1.1926 -0.0014903 -0.00857391)
(1.19226 0.00111962 -0.00547271)
(1.19362 0.00253476 -0.0135424)
(1.13788 -0.000595941 -1.7784)
(1.12844 -0.00110454 -1.77953)
(1.12818 -0.00733207 -1.77765)
(1.13504 -0.019211 -1.78804)
(1.12908 0.0191166 -1.80059)
(1.11302 0.0349766 -1.76235)
(-0.152667 -0.000700234 -2.09446)
(-0.154226 -0.00108881 -2.09498)
(-0.155617 -0.00147547 -2.09345)
(-0.156474 -0.00216347 -2.10214)
(-0.157628 0.000751801 -2.12681)
(-0.15923 0.00175916 -2.05639)
(0.470348 -0.000405423 0.226005)
(0.470459 -0.000909074 0.225053)
(0.47096 0.000997927 0.224676)
(0.469276 0.0015576 0.227014)
(0.468906 -0.0018432 0.230034)
(0.471378 -0.00171243 0.221772)
(0.468005 -0.00384652 -2.11619)
(0.470464 -0.00296509 -2.11869)
(0.470856 -0.00336496 -2.12198)
(0.463252 -0.0168114 -2.1123)
(0.456873 0.0114209 -2.11372)
(0.480595 0.028303 -2.11927)
(-0.426419 -0.000700384 -2.60212)
(-0.426486 -0.000432315 -2.6062)
(-0.427776 -0.00172233 -2.59506)
(-0.425623 -0.00435925 -2.62268)
(-0.423319 0.00401897 -2.65355)
(-0.431358 0.0060374 -2.56194)
(-0.315661 -0.000691118 0.382528)
(-0.315691 -0.000777137 0.381484)
(-0.316003 -0.000432935 0.381519)
(-0.314037 -0.00152042 0.382538)
(-0.312191 0.00108997 0.384025)
(-0.317437 0.00236731 0.380178)
(-0.269024 -0.001835 -2.71715)
(-0.270103 -0.00133267 -2.71875)
(-0.270252 -0.00197498 -2.71913)
(-0.271559 -0.0120875 -2.72296)
(-0.275455 0.0100761 -2.72887)
(-0.268864 0.0235654 -2.71146)
(-1.02543 -0.000652053 -2.68279)
(-1.02445 -8.5176e-05 -2.68791)
(-1.02694 -0.000546827 -2.67848)
(-1.02351 -0.00271844 -2.69747)
(-1.01814 0.00244487 -2.72216)
(-1.0323 0.0033406 -2.65527)
(-1.52795 -0.000548779 0.601287)
(-1.52816 -0.000587511 0.600099)
(-1.52817 -0.000560694 0.600556)
(-1.52754 -0.00178259 0.600616)
(-1.52678 0.0013347 0.599739)
(-1.52877 0.00263064 0.601523)
(-0.883157 -0.000716955 -6.31907)
(-0.882936 -0.00076475 -6.31927)
(-0.884549 -0.000299826 -6.31974)
(-0.882435 -0.00338428 -6.32317)
(-0.88247 0.00263048 -6.32503)
(-0.885537 0.00710549 -6.31685)
(-0.791262 1.62042e-05 -1.86362)
(-0.791153 0.000211868 -1.86729)
(-0.791672 0.000466249 -1.8633)
(-0.791602 0.000910136 -1.86893)
(-0.791622 -0.000674149 -1.88033)
(-0.792241 -0.00188643 -1.85205)
(-0.367876 -0.00103797 6.13089)
(-0.36713 -0.00236025 6.13299)
(-0.3669 -0.00232437 6.13368)
(-0.366255 -0.00363731 6.13484)
(-0.364327 0.000120368 6.13986)
(-0.367265 0.00273896 6.13154)
(-0.278849 -0.000378812 5.35269)
(-0.278739 -0.000993999 5.35357)
(-0.278655 -0.00112917 5.35425)
(-0.278461 -0.00120517 5.35477)
(-0.278128 -0.000330916 5.35611)
(-0.278535 0.000374359 5.35441)
(-0.102659 -0.000112405 4.89741)
(-0.102647 -0.000293006 4.89791)
(-0.102618 -0.00037463 4.89823)
(-0.10257 -0.000364008 4.89853)
(-0.102559 -0.000106729 4.89891)
(-0.102583 6.44173e-05 4.89832)
(-1.32058 -0.00295863 6.44397)
(-1.32015 -0.00432905 6.44962)
(-1.31672 -0.0049806 6.4475)
(-1.31661 -0.0122836 6.45431)
(-1.3159 0.00577263 6.46981)
(-1.30728 0.0140481 6.43511)
(-0.925288 -0.000506617 5.34226)
(-0.92517 -0.00152474 5.34366)
(-0.92417 -0.00181014 5.34426)
(-0.924383 -0.00214661 5.34507)
(-0.924794 -0.000744057 5.34826)
(-0.92135 0.000538665 5.34362)
(-0.357445 -0.000115802 4.74013)
(-0.357367 -0.000417049 4.74063)
(-0.357269 -0.000516071 4.74109)
(-0.357101 -0.000312052 4.74123)
(-0.356993 -0.000352794 4.74161)
(-0.357124 -0.000242354 4.74149)
(-3.064 -0.00635896 6.02046)