/*--------------------------------*- C++ -*----------------------------------*\
| =========                 |                                                 |
| \\      /  F ield         | OpenFOAM: The Open Source CFD Toolbox           |
|  \\    /   O peration     | Version:  v1612+                                |
|   \\  /    A nd           | Web:      www.OpenFOAM.com                      |
|    \\/     M anipulation  |                                                 |
\*---------------------------------------------------------------------------*/
FoamFile
{
    version     2.0;
    format      ascii;
    class       surfaceScalarField;
    location    "8.05";
    object      phi;
}
// * * * * * * * * * * * * * * * * * * * * * * * * * * * * * * * * * * * * * //

dimensions      [0 3 -1 0 0 0 0];

internalField   nonuniform List<scalar> 
2916
(
0.0023953
0.387183
-0.389578
-0.000417989
0.385456
-0.382643
0.0013174
0.383229
-0.384964
-9.0939e-05
0.388823
-0.387414
-0.00381765
0.393976
-0.390249
0.382787
-0.386604
0.00148218
0.668053
-0.282352
-0.000950957
0.665653
-0.277764
-0.00394391
0.665039
-0.278817
-0.00280971
0.668549
-0.28086
0.00296023
0.671595
-0.283389
0.664656
-0.278909
0.00237022
0.744197
-0.0785149
-9.80914e-05
0.742766
-0.0746449
-0.00378137
0.742906
-0.0741842
-0.00145407
0.744172
-0.0779502
0.00537804
0.74567
-0.0809074
0.742543
-0.0725084
0.000971203
0.653766
0.0894602
0.000100954
0.651573
0.0920634
-0.00166444
0.65227
0.0924018
-0.000464547
0.653057
0.0899147
0.00278492
0.654085
0.0883354
0.651854
0.0934737
-0.0006445
0.47675
0.17766
0.000152135
0.471511
0.179265
0.000305889
0.473138
0.178978
-6.72531e-05
0.475044
0.178386
-0.000502536
0.476672
0.177849
0.472287
0.179064
-0.000966615
0.271311
0.206406
0.000184049
0.263938
0.206422
0.00142767
0.2657
0.206194
7.42197e-05
0.269472
0.206926
-0.00231917
0.271773
0.207292
0.264312
0.205656
0.000263168
0.0365464
0.234501
7.07674e-05
0.0324232
0.231708
4.89178e-05
0.0334942
0.232228
-0.000367915
0.0361049
0.233784
0.00127701
0.0356159
0.234512
0.0335896
0.232
0.00139723
-0.212564
0.247713
0.000427858
-0.209801
0.243194
-0.000359658
-0.209715
0.243997
0.0012467
-0.21219
0.246688
0.00331476
-0.216521
0.250069
-0.207094
0.243998
-0.000337427
-0.350266
0.138039
0.000968071
-0.349466
0.13836
0.00207973
-0.348615
0.137789
0.00222936
-0.35111
0.138771
0.00275591
-0.354865
0.137817
-0.348637
0.144299
-0.00141361
-0.326385
-0.022467
0.000981947
-0.331772
-0.0200898
0.00415217
-0.330623
-0.0211621
0.00150493
-0.328054
-0.0204085
-0.00357958
-0.327823
-0.0219573
-0.334702
-0.0175153
-0.000152271
-0.231968
-0.0942652
0.000260239
-0.246375
-0.0858093
0.00221056
-0.245379
-0.0871943
0.000168931
-0.233486
-0.0925273
-0.00553348
-0.226396
-0.095725
-0.251964
-0.0882713
0.00593737
-0.237905
-0.00218466
-0.238253
-0.00864878
-0.238915
-0.00373944
-0.238395
0.00976893
-0.239904
-0.242195
-0.000921043
0.518056
-0.906713
0.0058337
0.50532
-0.894717
0.020515
0.495591
-0.895237
0.0111347
0.52566
-0.903694
-0.0208619
0.552888
-0.91114
0.491522
-0.898988
-0.00799199
0.964291
-0.720594
-0.00111736
0.951161
-0.730479
0.00654718
0.947984
-0.738875
-0.000653316
0.965415
-0.713416
-0.0163823
0.980567
-0.69534
0.940823
-0.744593
-0.000365248
1.16053
-0.274393
0.000727031
1.14976
-0.274334
-0.000189385
1.14968
-0.274967
-0.000114816
1.16057
-0.273181
-0.000561231
1.17068
-0.270571
1.14326
-0.275507
0.00362612
1.2484
-0.00203604
0.00112025
1.2435
0.000828785
-0.0039386
1.24331
0.0038305
0.000864704
1.24839
-0.00270829
0.0104118
1.25325
-0.00378849
1.24036
0.00678629
0.000882571
1.30308
0.122099
0.000457304
1.30066
0.122526
-0.0012111
1.29955
0.124406
0.00039885
1.30361
0.121555
0.00501034
1.30555
0.120945
1.29892
0.125513
0.00398803
1.39304
0.112456
0.000401202
1.39482
0.115848
-0.00109687
1.39032
0.116928
0.000257617
1.39635
0.112836
0.00206845
1.39851
0.112513
1.38975
0.1169
0.00974838
1.54874
0.0690619
0.000152427
1.55941
0.0767194
-0.00745148
1.552
0.0781464
-0.0025634
1.55688
0.0683645
0.00871894
1.5597
0.0620484
1.54679
0.0836702
0.00716242
1.67855
0.110736
0.00174136
1.7093
0.0987248
-0.00630684
1.69994
0.104113
0.00285645
1.68813
0.106277
0.0199657
1.68232
0.110331
1.69659
0.114169
-0.0290381
1.35228
0.49335
0.00538666
1.4114
0.40183
0.0244526
1.40011
0.418547
-0.00581614
1.36215
0.495012
-0.0587153
1.33451
0.538534
1.44336
0.338812
-0.0315427
0.805011
0.556341
0.000193973
0.831259
0.528316
0.0258918
0.83121
0.52204
-0.00337803
0.808957
0.562059
-0.0554244
0.787032
0.577564
0.855947
0.514475
-0.0175142
0.342561
0.3857
-0.00269377
0.28509
0.445539
0.0107562
0.294176
0.43639
0.00218854
0.341731
0.383266
-0.0319861
0.372326
0.353156
0.283234
0.452455
0.0704896
0.0341661
-0.0178832
0.135209
-0.0964938
0.133871
-0.0206338
0.0274757
0.111881
-9.29286e-05
0.152919
0.0265207
0.436498
-1.36973
-0.0163306
0.517175
-1.36904
-0.0833864
0.554827
-1.38301
-0.0442172
0.421141
-1.364
0.0668459
0.315521
-1.33772
0.570175
-1.40232
0.0183117
0.985372
-1.28778
0.0168674
1.10231
-1.31417
0.0448581
1.11668
-1.32871
0.0351374
0.99597
-1.27852
0.0270181
0.927499
-1.2992
1.1524
-1.2998
-0.000710728
1.4349
-0.72321
0.000369261
1.50554
-0.678643
0.0132462
1.49895
-0.670118
0.00713854
1.44114
-0.712246
0.0197183
1.40976
-0.765415
1.52469
-0.628083
0.00433115
1.85
-0.421471
-0.00141878
1.87162
-0.359499
-0.00545075
1.86679
-0.359978
-0.00439927
1.85251
-0.41513
0.00930814
1.8442
-0.451928
1.86536
-0.32457
-0.000613005
2.21392
-0.241202
0.00016035
2.22075
-0.227378
0.00097589
2.21863
-0.228249
-5.7661e-05
2.21455
-0.239443
-0.00242592
2.21262
-0.245111
2.21393
-0.225486
0.000464223
2.72981
-0.4039
0.000668724
2.72798
-0.391588
0.00467041
2.71948
-0.387926
0.000671866
2.74076
-0.409377
-0.0112967
2.75509
-0.417986
2.70256
-0.383027
0.0339417
3.10884
-0.343913
6.91954e-05
3.25958
-0.421007
-0.0336606
3.21623
-0.384869
-0.00882639
3.1484
-0.364112
0.0473613
3.11396
-0.353007
3.26331
-0.429714
0.0483575
2.29484
0.876382
-0.000697338
2.74165
0.665703
-0.0555113
2.66111
0.714038
0.052942
2.26904
0.877184
0.219313
2.14815
0.909766
2.96255
0.634241
-0.191292
0.0180539
2.96143
-0.00520683
0.29205
2.66535
0.129869
0.230985
2.7136
-0.0386629
-0.0357282
2.96831
-0.296643
-0.142708
3.08737
0.605244
2.39947
-0.139309
-1.05383
1.76753
-0.0264815
-1.13306
1.84059
0.0600841
-1.11563
1.78208
-0.0734043
-1.08896
1.74878
-0.289826
-1.13427
1.78554
-1.07519
1.90508
0.0382177
-0.761876
0.0555318
-0.032338
-0.838158
0.221196
-0.0925942
-0.814563
0.195583
-0.050654
-0.78404
0.0364031
0.0786768
-0.754287
-0.156153
-0.801309
0.257255
0.0315434
-0.759255
-0.0270726
-0.644332
-0.0615732
-0.646191
-0.0450802
-0.773057
0.0360206
-0.835481
-0.612369
0.261896
0.0940579
-1.72569
-0.115508
0.788458
-1.7801
-0.827367
1.03343
-1.70458
-0.399982
-0.0321186
-1.75927
0.747736
-0.715785
-1.76966
1.11975
-1.77433
0.0713535
0.296634
-1.56171
0.192005
0.906049
-1.55241
0.410642
1.01848
-1.5324
0.345023
0.357856
-1.60288
0.160562
0.0118009
-1.84232
1.44059
-1.46008
-0.120947
1.92602
-2.23165
-0.00951854
2.25884
-2.14286
0.280768
2.17629
-2.11821
0.238366
1.99549
-2.30748
0.112902
1.91896
-2.54711
2.78892
-1.86351
-0.16592
4.50865
-2.83819
-0.0610987
4.68986
-2.89534
0.118193
4.54618
-2.90915
0.0303628
4.58969
-2.92149
-0.0523583
4.55462
-3.00486
5.08609
-2.6741
-0.130026
6.9813
-2.58383
0.0050996
7.15275
-2.82539
0.138779
7.03735
-2.8531
-0.0280928
7.10796
-2.59085
-0.164083
6.96499
-2.51949
7.40341
-2.70689
0.00692981
7.37058
-0.800108
0.101973
7.74643
-1.08031
0.194021
7.66488
-1.1075
0.0713354
7.56515
-0.743875
-0.119224
7.35233
-0.614765
7.99446
-1.0933
0.135547
5.09287
1.79825
0.0517709
5.80269
1.60651
0.0111007
5.66414
1.65654
0.072341
5.27763
1.86217
0.105047
5.02615
1.94046
6.2179
1.45189
0.131581
2.1578
3.67988
-0.0486997
3.13672
3.51195
-0.164846
2.94587
3.54846
0.0730933
2.16622
3.75065
0.41231
1.77603
3.82067
3.82165
3.44281
-0.0755918
-0.00962372
5.20444
-0.0343386
0.627638
5.13318
1.87843e-05
0.476297
5.14881
0.015955
-0.063796
5.18239
0.00238031
-0.392803
5.26978
1.20734
5.01616
-0.237588
-0.374219
2.36971
-0.0197405
-0.337436
2.58782
0.0999142
-0.375772
2.5145
-0.174075
-0.369853
2.32882
-0.556909
-0.573355
2.34892
-0.254524
2.81002
-0.0695912
-0.696152
0.447049
0.0677621
-0.736449
0.482857
0.168058
-0.743807
0.463326
0.0623996
-0.670812
0.443021
-0.240757
-0.747893
0.321541
-0.725209
0.487185
-0.0350318
-1.42038
0.0288583
-1.44467
0.0830349
-1.44418
0.0592199
-1.42006
-0.103997
-1.42016
-1.44157
-0.11481
0.615567
-0.500757
-0.134244
0.0722532
-0.0528191
0.187061
0.040645
-0.36195
0.12758
0.208002
-0.14852
0.132825
-0.00537262
0.000126958
0.508565
-0.37574
0.0190069
1.02793
-0.431371
0.149315
-0.164364
0.106309
0.633547
-0.277892
-0.165695
0.400511
0.255614
0.185423
-0.0784647
0.207047
0.266556
0.831233
-0.401132
0.489537
0.561429
-0.0230353
0.821088
-0.742187
0.246272
0.451086
-0.130384
0.222494
-0.406316
0.67382
0.439195
-0.568173
0.0173586
0.351546
0.471362
-0.208303
0.813024
-0.676419
0.424824
0.911398
-1.60247
0.76191
0.28497
-1.09703
1.59307
-0.0813191
-0.0967935
1.1369
-0.418386
-0.418534
0.77296
-0.326721
0.379697
0.279093
-1.68826
0.732751
0.0792844
-2.23975
0.837088
0.432717
-2.28761
0.837148
0.910018
-2.0271
1.453
0.171995
-1.78571
2.1052
-1.93832
1.7836
0.0359417
-1.98378
0.259576
-0.0427859
-2.32402
0.163
-0.0318058
-2.39798
0.0993961
0.143965
-2.30455
0.101678
0.105269
-2.27502
0.528004
-2.29263
0.45957
-0.0825945
-1.8276
-0.0735845
-0.00381021
-2.05997
-0.342836
0.0885916
-2.02956
-0.460827
0.0827176
-1.92719
-0.371483
-0.0342815
-2.17832
0.0203068
-1.9889
-0.338008
-0.169141
-1.67396
0.0154975
0.0299584
-1.87014
-0.388927
0.158291
-1.88264
-0.275252
-0.176301
-2.01096
0.41836
-0.29995
-2.2742
0.219529
-1.78719
-0.501657
-0.291747
-1.553
0.170792
-0.193719
-1.80533
-0.162837
0.0337401
-1.82602
-0.284075
-0.348207
-2.16314
0.53413
-0.508515
-2.38833
0.274434
-1.55207
-0.743639
-0.562054
-1.50634
0.515388
-0.535812
-1.71409
-0.11749
-0.289393
-1.71607
-0.356369
-0.502417
-2.09506
0.144945
0.0174796
-2.13304
-0.775186
-1.30498
-0.229606
-0.551866
-0.941151
-0.0133208
-0.54322
-1.15532
-0.567414
-0.641437
-1.21656
-0.401299
-0.226439
-1.02356
-1.4865
0.650733
-0.885828
-2.12438
-0.643382
-0.0108684
-0.278041
-0.66311
-0.108072
-1.32529
0.00953805
-1.33417
0.172813
-1.18683
0.401275
-1.11429
-0.242107
0.144979
0.890965
-1.5367
-0.0818333
0.607718
-0.433725
0.131855
0.771776
-1.34741
0.221371
0.215468
-0.453504
-0.0708346
0.301899
-0.00956641
0.854876
-1.30145
0.470918
1.53342
-1.54474
0.237514
1.08887
-0.141435
0.293309
0.993252
-0.442966
-0.144392
0.478892
0.359699
-0.477543
0.854725
0.0468804
1.49411
-1.5179
0.713114
1.77581
-0.978541
0.533344
1.09991
0.414993
-0.232469
1.17843
0.803125
-1.31279
0.83873
1.15968
-0.826922
0.754404
-0.0340028
1.55203
-1.09315
0.459027
1.7186
0.0230082
0.0153635
0.717723
1.58777
-0.571302
0.523528
2.83464
-1.23641
0.374623
2.26612
-0.651752
0.103759
0.838945
1.04076
0.23921
0.623831
1.3876
0.439915
-0.164926
0.772164
1.5714
-0.795772
-0.199573
2.1911
-0.681446
-0.95273
2.66603
-0.435565
-1.43713
3.4002
-0.38074
2.76954
1.07778
1.25872
-0.689316
0.437297
1.3606
0.215049
-0.201502
0.457036
0.0815846
-0.275986
-0.588712
-0.187855
-0.0854192
-1.45008
0.35039
-0.346248
0.339659
0.438763
1.73987
-0.993501
-0.120312
2.72351
-1.14668
-0.434194
1.67504
-1.36495
0.145112
-0.326284
-1.21322
0.767247
-1.25845
-0.793455
1.24291
-1.15991
1.10611
0.709988
-0.0607302
0.813541
3.25321
-0.626054
-0.822159
3.23376
-0.19827
-0.517508
-1.04991
0.837336
0.32977
-2.75533
0.86913
0.815245
0.255776
1.38578
-1.37826
0.873255
2.57985
1.35493
0.541375
1.11234
3.38089
1.03631
0.0593216
-1.31087
1.8481
-0.104249
-2.95575
0.638426
-0.55548
0.522837
0.16859
-1.97528
0.943823
1.21219
-1.19953
1.39337
1.7232
0.493083
2.02042
0.571401
-1.53742
1.5233
0.644288
-2.12652
-1.6773
-0.7259
0.585102
-0.948478
-1.36516
0.325038
-0.896182
-1.52282
-0.296416
-0.209087
-1.12235
0.527037
0.261719
-0.94037
-2.55435
1.02278
-1.19429
-3.81767
-0.580536
0.866547
0.208341
-2.23661
0.246994
-2.88676
0.0687872
-2.27831
-0.119744
-1.93867
-0.337646
-2.09068
-1.16029
-0.040949
0.641365
-2.13712
-0.0665666
0.651212
-1.05932
0.0981207
0.619397
-2.1315
0.452912
0.506182
-1.31448
0.303342
0.51782
-0.377817
0.773524
-1.77163
-0.42425
1.35744
-1.83656
0.0590814
1.48445
-1.458
0.564358
1.42751
-1.75635
0.909553
1.01605
-0.495366
0.728728
1.50459
-0.759063
1.54123
-1.55689
0.0861319
1.91991
-1.62715
0.423127
2.41992
-0.857481
0.496023
2.17714
-0.019406
-0.0354684
1.84343
0.863794
0.20695
2.26411
-1.03594
1.82006
-1.16502
0.425983
2.78697
-1.27003
0.00329811
3.88264
0.547733
-0.470009
3.31333
2.17177
-1.0823
2.35004
2.37181
-0.260976
2.20944
0.0722901
1.81354
-0.0152447
0.377139
2.86615
-0.0163961
-0.212417
4.28062
1.76299
-0.738635
2.7569
3.27373
-0.937162
1.41954
3.79506
-0.294049
1.48351
3.48302
1.65203
2.637
0.229635
2.13247
-0.185271
0.28329
3.68763
0.754379
0.283025
2.25039
0.58836
0.0860964
1.21397
0.214647
-0.369451
1.59571
0.693732
1.05381
0.568419
-0.21765
1.5323
-0.175683
0.147799
2.36146
-0.185953
-0.0269929
1.49123
-0.430996
-0.302868
0.640793
-0.36417
0.186164
0.523548
-0.21032
0.318586
-0.238522
-0.927498
2.08098
0.318093
-1.49802
2.4073
-0.10137
-2.14606
1.77972
0.161279
-1.4606
-0.198038
0.990704
-0.121258
-1.0344
1.08774
-0.539311
0.992415
0.0818182
1.7791
1.09332
-0.143617
2.51675
0.657361
-1.14059
2.45784
1.35516
-0.7979
-0.804546
2.11192
0.155756
-1.4907
0.141065
-0.885693
1.02498
-0.136685
0.910553
1.94905
0.457257
1.06702
2.24916
0.488671
1.30164
3.14521
0.608221
-0.776344
1.37555
0.702131
-1.17535
-2.08656
0.0924259
0.309115
-0.414902
0.116495
1.534
-0.582836
-0.21449
1.15303
0.283491
-0.349744
1.31209
0.358083
-0.846536
-2.55875
0.169082
-1.13906
-3.66497
0.0901809
1.03787
0.614767
-2.73488
0.377676
-2.86416
0.33033
-2.5807
-0.220655
-2.23422
-1.08085
-2.36955
-2.15096
-0.177243
0.223494
-2.18337
-0.0434225
0.231912
-1.42505
-0.285696
0.0871319
-1.97636
0.0511369
0.191925
-1.84323
0.637447
0.474473
-1.4386
0.389942
-1.52413
-1.40897
0.98666
-1.19076
-0.155152
1.17885
-3.65875
0.25515
1.29903
-3.37855
1.36985
1.58247
-3.00061
2.31802
1.65569
-2.88845
1.21409
-0.063017
-1.41751
1.33267
-0.555648
0.208548
2.22495
-3.52965
1.09259
2.40617
-2.01059
1.33849
2.37199
-0.171629
1.44636
2.58172
-2.06983
0.972478
0.522945
-0.41307
1.00737
-0.531659
0.0770358
3.01947
-0.73689
0.525735
3.04933
1.07991
0.922242
2.26735
2.07994
0.387827
2.26186
0.926556
0.436154
0.908906
-0.84629
1.23975
0.597511
-1.10822
3.73228
1.3121
-0.790938
3.07178
2.934
-0.448524
2.00328
3.71671
0.386342
2.0972
2.81281
1.3683
2.09119
-0.937098
1.16882
0.822749
-0.863594
2.6748
1.73836
-0.572
1.56793
1.80062
-0.486982
0.839325
1.29359
0.310634
1.0241
0.969218
1.02936
1.21799
-0.939196
0.915305
1.01703
-0.627441
0.901309
1.27578
-0.515654
0.0913854
0.933764
-0.591638
-0.204917
0.756056
-0.204786
-0.327278
0.754204
-0.377861
0.963915
-0.997763
1.42083
0.810325
-2.2145
0.945903
1.07077
-2.9439
0.118164
0.863906
-2.07524
-0.596896
0.514017
-1.12844
-0.770442
0.58411
-1.1591
0.645219
0.0240856
1.61026
0.879808
-1.40486
1.82629
1.20592
-2.52557
1.13568
1.45836
-1.2035
-0.590555
0.783504
-0.83122
-0.650271
-0.351386
-1.05717
0.0918172
0.699301
1.46634
1.39367
0.145392
2.26056
2.36879
-0.66542
2.09446
2.99725
0.26901
-0.655971
0.506533
0.298849
-1.01652
-1.75015
0.55491
-1.00411
1.18186
0.796153
1.02232
1.67861
1.33284
1.58399
1.77015
1.29432
2.02069
0.646064
-0.703018
-1.38762
-0.53288
-0.989564
-2.51298
1.05694
0.00296433
0.21677
-2.1555
0.551357
-1.86591
1.02354
-1.75857
0.183809
-2.0975
-0.938054
-2.23725
-2.03207
0.373867
-0.0819912
-2.01756
0.0205471
0.0197107
-1.44649
-0.628196
0.0806006
-1.13644
-0.194456
-0.104134
-2.08888
0.775342
-0.230785
-2.50867
-0.0174217
-0.981567
0.0286373
1.84836
-1.95899
0.166178
2.00844
-2.12627
0.0899554
2.03963
-1.8828
0.113292
1.84531
-1.97278
0.0860304
1.67772
-1.88124
2.08041
-2.0118
-0.199834
-1.38007
0.133974
-1.70323
0.431446
-1.65424
0.169976
-1.32639
-0.280623
-1.23772
-1.85524
-0.0933089
-0.823002
-2.66296
0.135026
-0.538174
-2.68906
0.48471
-0.416547
-2.60198
0.307827
-0.908573
-2.6063
-0.217615
-1.35386
-2.47169
-0.249628
-2.40963
-0.0581813
-1.36245
-1.36135
0.0743927
-1.03064
-1.76638
0.368905
-0.823029
-1.77084
0.213617
-1.47888
-1.24719
-0.231732
-1.86816
-0.921601
-0.302481
-2.19068
-0.0245589
-0.412718
0.00634894
-0.654878
0.168474
-0.734561
0.141367
-0.325643
-0.067217
-0.185347
-1.16921
-0.141975
-2.69792
-2.05472
-0.0759145
-2.58587
-2.31211
0.0483164
-2.52561
-2.31881
-0.0369354
-2.82874
-1.99979
-0.217746
-3.0643
-1.77368
-2.16179
-2.3291
0.0688008
-3.29683
-0.831246
-0.0186842
-3.24243
-1.02234
-0.108124
-3.18714
-1.01987
-0.0299377
-3.39419
-0.759926
0.1042
-3.50892
-0.611116
-2.86248
-1.38579
0.0688986
-0.189671
0.0208001
-0.237941
-0.0468428
-0.251819
0.0408925
-0.175892
0.185284
-0.162602
-0.406398
-0.0144002
-3.35708
-1.52142
-0.039478
-3.5153
-1.66707
-0.135791
-3.48727
-1.64438
-0.0840405
-3.4604
-1.51264
0.0338297
-3.46547
-1.43095
-3.30418
-1.66519
0.122331
-3.22704
-1.08361
-0.0232992
-3.32273
-1.06928
-0.234713
-3.27116
-1.02456
-0.0480225
-3.28567
-1.12134
0.316089
-3.27682
-1.16387
-3.21704
-1.15684
0.0512653
-0.407887
0.0059139
-0.399058
-0.0234066
-0.404049
0.0270242
-0.417377
0.116918
-0.432063
-0.434627
-0.0644655
-3.30513
-0.735653
0.00437072
-3.6187
-0.942602
0.0649491
-3.6269
-0.931155
0.0210871
-3.31768
-0.741947
-0.100401
-3.18985
-0.639108
-3.52657
-0.945908
0.0956463
-2.80399
-1.68039
-0.0326426
-2.93433
-1.62536
-0.204482
-2.90776
-1.57187
-0.0664384
-2.81419
-1.76287
0.189346
-2.7367
-1.8728
-2.88198
-1.61209
0.0582359
-1.01828
-0.00989077
-0.946388
-0.096876
-0.928945
-0.0376307
-1.04108
0.113515
-1.09969
-0.921108
-0.0451489
-1.76033
0.269715
0.066216
-2.25161
0.117332
0.228547
-2.31292
0.11193
0.108139
-1.68689
0.321474
-0.179093
-1.37091
0.404273
-2.36048
0.142176
0.0914681
-1.37246
-2.15972
-0.0243606
-1.615
-2.14614
-0.126251
-1.64995
-2.13295
0.004637
-1.34954
-2.2311
0.242556
-1.15895
-2.32268
-1.70362
-2.02638
0.0510081
-1.74385
-0.000995937
-1.66564
-0.0814549
-1.63605
-0.0159564
-1.76927
0.151465
-1.84021
-1.57648
0.189434
1.7087
0.169837
-0.049373
1.54965
0.412996
-0.206297
1.55433
0.371059
-0.00104644
1.7893
0.189094
0.443242
1.91123
-0.0107928
1.3122
0.725112
0.0407975
1.89523
-2.38705
-0.0562149
1.72899
-2.22847
-0.0608832
1.68196
-2.25591
0.0593879
1.89713
-2.4592
0.280748
1.9953
-2.6281
1.47711
-1.91055
-0.0167801
-1.55993
-0.0095589
-1.53187
0.0367233
-1.51605
0.0578349
-1.57676
0.085178
-1.63514
-1.41968
0.220139
4.76014
-1.13056
-0.0763383
4.76029
-0.538865
-0.257704
4.76459
-0.663705
0.0989182
4.78764
-1.20452
0.657675
4.75051
-1.49939
4.6258
0.199793
0.0554882
4.40761
-2.09001
-0.0452244
4.60014
-1.96762
-0.106551
4.56727
-1.99727
0.0118697
4.35577
-2.14575
0.214901
4.23354
-2.31417
4.59039
-1.66024
-0.0379037
-0.767004
-0.022577
-0.808403
0.0138665
-0.802006
-0.0132823
-0.772009
-0.0563883
-0.812269
-0.766471
-0.0674784
4.96187
-0.820515
-0.015663
5.12975
-0.58726
0.0442658
5.07826
-0.653084
-0.045638
4.92953
-0.861763
-0.319898
5.04748
-1.00283
5.16884
-0.272776
-0.0708587
3.44556
-0.502844
0.0131941
3.62296
-0.544876
0.0751006
3.57407
-0.55498
-0.0605717
3.43426
-0.514804
-0.323677
3.54854
-0.552132
3.68095
-0.496028
-0.0363304
0.149899
-0.00439087
0.0990909
0.0146121
0.100934
-0.0522648
0.154807
-0.116528
0.145881
0.0633948
-0.174662
2.50753
-0.783674
0.0286237
2.60443
-0.807156
0.141672
2.56206
-0.813693
-0.122477
2.50394
-0.772735
-0.541143
2.53206
-0.767303
2.73479
-0.738686
-0.0134502
1.54092
0.47721
0.0182688
1.57208
0.455746
0.0173054
1.55291
0.455131
-0.0426711
1.56102
0.48809
-0.156311
1.57445
0.519111
1.62566
0.456789
0.0115439
0.522955
-0.00392601
0.520656
-0.0199924
0.517202
-0.00660389
0.525375
0.0109716
0.525465
0.514263
-0.024702
1.10487
-1.4168
0.0358768
1.06576
-1.45064
0.0778006
1.05318
-1.44547
0.0539498
1.10005
-1.40592
-0.114913
1.10262
-1.37952
1.05099
-1.4174
0.0326571
0.531901
1.01753
0.0014522
0.527216
1.0255
-0.0319186
0.51701
1.02467
-0.00299693
0.531369
1.02785
0.0446759
0.523986
1.05007
0.522364
1.03009
0.00318637
0.893306
0.00240932
0.893903
-0.00203713
0.890773
0.000736966
0.892852
0.00548451
0.890245
0.891493
-0.0089022
-1.31897
-1.5093
-0.00119914
-1.39868
-1.50434
0.00305376
-1.38586
-1.50804
-0.00273026
-1.30172
-1.51847
-0.0244341
-1.24909
-1.52889
-1.37378
-1.50963
0.0134613
-0.808241
0.493339
-0.0191997
-0.840946
0.500423
-0.0489952
-0.831585
0.500185
-0.0283428
-0.798905
0.504381
0.0330122
-0.773205
0.512833
-0.819483
0.508801
0.0103755
0.497496
-0.0040521
0.491027
-0.018502
0.495568
-0.00870488
0.506672
0.0143519
0.51512
0.506329
0.0302194
-0.755482
-0.617199
1.34246
0.0292628
-0.807065
-0.645556
1.45358
0.0140362
-0.846156
-0.648779
1.51016
-0.00880989
-0.82577
-0.648815
1.49743
-0.0329802
-0.824424
-0.659525
1.50812
-0.81084
-0.635871
1.41373
-0.00140328
-0.536384
-0.243518
0.0258233
-0.0286348
-0.583378
-0.207515
0.0110593
-0.0555103
-0.599247
-0.142207
-0.0778275
-0.0218949
-0.563568
-0.10372
-0.192098
-0.00386077
-0.546625
-0.0829667
-0.212867
-0.537824
-0.117479
-0.159399
0.0415685
-0.0120727
-0.443043
0.0957954
0.0141478
-0.501686
0.148786
0.0254621
-0.546538
0.113532
-0.0514524
-0.41618
0.0413412
-0.0983134
-0.34724
-0.111192
-0.34224
-0.0108731
-0.431829
-0.174497
-0.0145395
-0.468073
-0.173816
-0.00753851
-0.480909
-0.174871
-0.00371918
-0.475538
-0.177096
-0.00324774
-0.47949
-0.180506
-0.466276
-0.172843
-0.0368777
-0.405255
-0.233215
-0.0557984
-0.430203
-0.226466
-0.0448978
-0.427427
-0.206591
-0.0226012
-0.418637
-0.18292
0.00381745
-0.418191
-0.170685
-0.416486
-0.163453
0.0184335
-0.0307633
0.0475536
-0.0379384
0.0802967
-0.0507113
0.069629
-0.0729951
0.0307319
-0.0885262
-0.090516
-0.00300055
-0.161363
-0.010133
-0.00204316
-0.165297
-0.00947675
0.00105986
-0.16933
-0.0086443
0.000393914
-0.168897
-0.00753356
-0.00199402
-0.170688
-0.00743014
-0.166521
-0.00831519
-0.0169936
-0.204674
-0.172911
-0.0302051
-0.209492
-0.169059
-0.0369492
-0.208829
-0.160348
-0.029405
-0.208217
-0.151144
-0.017517
-0.20871
-0.144552
-0.203125
-0.144367
0.0160344
0.0772185
0.0298475
0.0735762
0.0338766
0.0658328
0.0270733
0.0540967
0.011452
0.0468031
0.0435068
-0.00212088
-0.186898
0.178886
-0.00434235
-0.186151
0.178896
-0.00555543
-0.187185
0.179753
-0.00501606
-0.188811
0.180738
-0.00255539
-0.191166
0.181275
-0.190263
0.179392
-0.0100549
-0.243722
-0.106032
-0.0156056
-0.244768
-0.104892
-0.0164656
-0.243812
-0.102861
-0.0124971
-0.245092
-0.0988318
-0.00448854
-0.246901
-0.0968254
-0.244273
-0.0948446
0.00721184
0.19294
0.0154178
0.191817
0.0190572
0.187459
0.0155797
0.182244
0.00753754
0.178205
0.176773
-0.00158928
-0.479562
0.660037
-0.00435788
-0.477168
0.658833
-0.00592267
-0.479517
0.660835
-0.0052449
-0.486267
0.666328
-0.00228073
-0.493046
0.671357
-0.485935
0.663047
-0.00534498
-0.388184
-0.192064
-0.00676888
-0.387549
-0.193086
-0.00860414
-0.387584
-0.192959
-0.00790344
-0.390399
-0.1954
-0.00380112
-0.394148
-0.199826
-0.388261
-0.19632
0.00451156
0.0969416
0.00848577
0.100077
0.0105846
0.0950583
0.00874373
0.086662
0.00333708
0.0796374
0.0836466
-0.00210194
-0.847164
0.00024503
-0.847855
0.00261266
-0.849573
-0.000113871
-0.849416
-0.0054377
-0.852207
-0.85202
-0.00444252
-0.54145
-0.00287444
-0.542088
-0.00303574
-0.542187
-0.00287556
-0.540596
-0.000944374
-0.541131
-0.540484
0.0053256
0.0050691
0.00295988
0.00476375
0.00528381
-0.354646
-1.62695
-0.201777
0.252032
-1.98557
-0.0461595
-0.562196
-1.05642
-0.105713
-0.49094
-1.64629
-0.268205
0.391228
-2.22909
-0.0916812
-1.19518
0.0622802
0.0922648
-0.982486
-0.736728
0.56321
-2.18757
-0.268946
-0.602415
0.709358
-0.60015
-1.34848
-0.286034
-0.614191
-0.719712
-2.22329
-0.634559
-0.897539
-1.01736
-0.00561303
-0.384495
-0.113717
-0.138892
-0.596258
-0.415639
-0.505184
-0.532661
-0.366449
-0.385057
-0.457263
0.0867947
-1.86068
0.381346
0.26497
-3.65801
-0.225083
-0.536763
-3.69201
1.00947
-1.06833
-4.02109
1.28384
-1.05052
-2.81228
-0.185655
-0.44857
-0.602694
0.800344
-2.35325
-1.0445
0.27647
-2.76141
-0.64167
-0.525886
-3.13582
-0.353978
-1.64473
-2.98954
-0.526901
-1.46389
-2.23572
-1.39196
-1.50243
-1.42739
0.249688
-0.677913
0.121111
-0.492947
-0.261474
-0.591473
-0.728598
-0.80713
-0.491065
-0.795778
-0.781311
1.02245
-0.755708
-0.441043
-0.0199495
-3.45969
0.747355
-0.429658
-2.41966
1.82826
-0.277397
-1.49505
2.455
-1.31204
-1.19107
-0.0297697
0.325718
-1.71751
0.94649
-1.16869
-1.578
-0.0492807
-2.55285
-0.552735
-0.799223
-1.92397
-0.0997353
-1.35347
-1.63051
0.162809
-1.18227
-1.10473
-1.6495
-0.473689
-1.81025
0.300138
-0.929754
-0.130552
-0.724723
-0.388768
-0.842289
-0.64051
-0.79761
-0.221012
-0.891981
-0.893535
0.441217
-0.218089
-1.19583
-0.312666
-0.897969
1.66232
-0.0922134
0.530539
2.15717
0.602996
1.80332
2.03642
0.024707
1.21807
0.257002
0.603156
-1.38705
0.0642669
-0.135671
-1.72469
-0.689621
-0.341451
-0.355365
-0.807043
0.307994
0.240232
-0.346028
1.05648
0.448633
-0.150912
0.602776
-1.22932
0.167867
-1.52588
-0.168522
-0.86506
-0.35156
-0.819471
-0.338735
-0.717741
-0.130019
-0.586514
0.057066
-0.74728
-0.705312
-1.20802
1.14196
-0.532263
-1.48882
1.56946
1.68576
-0.82266
2.68772
1.73729
0.506488
3.23112
1.19286
0.945033
2.28818
0.34309
1.63823
0.0109389
-1.16598
1.40033
-0.817068
-1.41824
1.77887
-0.312524
-0.501161
2.22073
-0.209854
1.11605
2.3343
-0.271756
0.918256
1.70489
-0.448232
1.46431
-0.433696
-0.413429
-0.424732
-0.378725
-0.713282
0.0603795
-0.784204
0.513405
-0.541912
0.306901
-0.377872
-0.384828
-1.35163
1.4316
0.210511
-1.00802
2.39354
0.686967
0.232547
2.30088
-0.00353863
1.08087
1.78013
-0.142019
0.943192
1.18387
0.266119
1.64239
0.52973
-0.918909
1.66206
-0.128612
-0.391599
2.24519
-0.69148
0.701196
2.21066
-1.21243
1.25982
1.89765
-0.947902
0.587843
1.51374
-0.10612
1.56887
0.227671
-0.23045
-0.137123
-0.011365
-0.731786
0.31214
-1.03188
0.4317
-0.648722
0.149672
-0.147397
-0.085584
-0.650311
1.5278
0.350049
-0.340025
1.93739
-0.284935
0.0137684
1.48653
-0.910094
0.143683
1.24521
-0.761092
-0.068948
1.09817
0.134781
1.4904
-0.0656988
-0.111507
1.48288
0.027816
0.406203
1.81656
-1.08835
0.665514
1.64501
-1.63023
0.655526
1.54207
-1.23477
0.167097
1.44043
0.0400491
1.45939
0.425776
0.136616
-0.142418
0.33846
-0.77976
0.276004
-1.00238
0.189184
-0.648466
0.0591091
-0.127332
0.00796156
0.403778
0.889352
-0.132755
-0.1057
1.51526
-0.219944
-0.861025
1.20657
-0.49743
-0.931156
0.596541
-0.773485
-0.762285
0.858597
-0.308578
0.868588
-1.05135
0.627359
0.715556
-0.425748
1.0351
1.14843
-1.12927
0.871254
1.0178
-1.27762
0.274358
0.807181
-0.848513
-0.0285146
0.960461
0.241058
0.864999
0.40085
0.261336
-0.256023
0.441133
-0.689344
0.285316
-0.68781
-0.0331458
-0.355494
-0.0483823
-0.0238915
0.0771566
0.79909
0.617895
-0.669932
0.0929829
1.55304
0.139041
-0.647128
1.48778
0.213265
-0.349615
0.392594
-0.680088
-0.709802
0.252659
-0.552437
0.0294013
-1.69874
0.568047
0.456445
-0.832345
0.966628
0.984728
-0.959544
1.1135
0.859974
-0.796688
0.737431
0.33164
-0.411491
0.391259
0.538612
0.301278
0.474166
0.347344
0.0185674
-0.290425
0.153615
-0.481626
0.221941
-0.397571
0.0158379
-0.153944
-0.0476504
-0.0152624
0.0291611
0.854409
0.871834
-1.0025
1.17629
2.12729
0.0586546
1.15742
2.6159
0.613482
1.13625
0.666425
-0.818807
0.0326404
-0.365931
-0.833042
-0.637004
-2.03321
0.171364
0.34332
-0.475196
0.802022
0.921326
-0.384236
1.70202
1.1015
-0.182278
1.50632
0.141636
0.308989
0.852453
-0.171465
0.760682
-0.233802
0.796595
-0.135712
0.173628
-0.0817539
0.145377
0.142899
0.178858
0.101979
0.207302
0.0169247
0.194157
0.219379
0.410992
0.766098
-1.15727
1.57367
1.25351
-0.773539
2.81197
1.8399
-0.444024
1.60892
0.124901
-1.12829
0.0689329
-0.567784
-1.23825
-0.341805
-1.6195
-0.251219
0.286756
0.255364
0.173236
0.217
0.227823
1.00372
0.422007
0.405125
0.698529
-0.162614
0.9017
0.313698
-0.433312
1.01104
-0.244936
1.01342
0.0506141
0.80745
0.134771
0.805186
0.283506
0.808839
0.212118
0.702823
0.0236289
0.647271
0.700438
-0.122451
-1.84786
-0.127151
-1.18117
0.0961013
-0.91568
0.152222
-1.78449
0.153651
-1.96881
-2.08419
-0.379957
-1.18671
-0.28489
-1.03735
0.00152561
-0.874799
0.0580179
-1.13138
0.0654974
-1.17811
-1.16467
-0.0800329
0.0688374
0.314769
0.250044
0.107025
)
;

boundaryField
{
    seabed_topleft_surface
    {
        type            calculated;
        value           uniform 0;
    }
    seabed_topright_surface
    {
        type            calculated;
        value           uniform 0;
    }
    breakwater_top_surface
    {
        type            calculated;
        value           uniform 0;
    }
    breakwater_left_surface
    {
        type            calculated;
        value           uniform 0;
    }
    breakwater_right_surface
    {
        type            calculated;
        value           uniform 0;
    }
    water_front_surface
    {
        type            calculated;
        value           uniform 0;
    }
    water_back_surface
    {
        type            calculated;
        value           uniform 0;
    }
    water_left_surface
    {
        type            calculated;
        value           uniform 0;
    }
    water_right_surface
    {
        type            calculated;
        value           uniform 0;
    }
    water_top_surface
    {
        type            calculated;
        value           nonuniform List<scalar> 
180
(
3.42826
3.37785
3.3964
3.43317
3.36603
3.65502
-2.30524
-2.1099
-1.90484
-2.45252
-2.71194
-1.05572
-3.58878
-3.61126
-3.60224
-3.63168
-3.67606
-3.44001
-3.06009
-3.11626
-3.08961
-3.09462
-3.09725
-3.07189
-2.25183
-2.31887
-2.29587
-2.24973
-2.22021
-2.28198
-0.697905
-0.843748
-0.86238
-0.686859
-0.585858
-0.896791
1.72809
1.588
1.51567
1.68351
1.76289
1.40548
3.65258
3.86135
3.81677
3.57816
3.45378
3.8808
2.56498
2.68353
2.65212
2.57432
2.65465
2.73455
1.15632
1.16599
1.1527
1.17706
1.17729
1.18577
0.158361
0.154743
0.147884
0.161117
0.154457
0.150618
-0.422807
-0.423645
-0.421932
-0.422523
-0.421138
-0.419967
-0.122838
-0.150067
-0.131162
-0.0606831
-0.0288821
-0.0430516