/*--------------------------------*- C++ -*----------------------------------*\
| =========                 |                                                 |
| \\      /  F ield         | OpenFOAM: The Open Source CFD Toolbox           |
|  \\    /   O peration     | Version:  v1612+                                |
|   \\  /    A nd           | Web:      www.OpenFOAM.com                      |
|    \\/     M anipulation  |                                                 |
\*---------------------------------------------------------------------------*/
FoamFile
{
    version     2.0;
    format      ascii;
    class       volVectorField;
    location    "8.05";
    object      U;
}
// * * * * * * * * * * * * * * * * * * * * * * * * * * * * * * * * * * * * * //

dimensions      [0 1 -1 0 0 0 0];

internalField   nonuniform List<vector> 
1116
(
(0.427277 0.00332601 -0.31182)
(0.428051 0.000278219 -0.307211)
(0.420736 -0.000639851 -0.308496)
(0.433775 0.0027902 -0.311043)
(0.449264 -0.00253929 -0.312606)
(0.418284 -0.00656453 -0.310555)
(1.08418 0.00221059 -0.247073)
(1.07715 0.000242838 -0.245397)
(1.07503 -0.00192311 -0.242902)
(1.08495 -0.00659646 -0.248181)
(1.09222 0.00262231 -0.253564)
(1.07444 0.00132407 -0.242293)
(1.52729 0.00217311 -0.245048)
(1.52421 0.00186047 -0.244585)
(1.52421 -0.00198653 -0.243166)
(1.52782 -0.00558442 -0.245095)
(1.53141 0.0034898 -0.248124)
(1.52362 0.00540022 -0.242419)
(1.52084 0.000634708 -0.0449729)
(1.51872 0.000995598 -0.0425991)
(1.5193 -0.000773938 -0.042878)
(1.52044 -0.00233882 -0.0439642)
(1.52237 0.00171135 -0.0460935)
(1.51857 0.00292851 -0.0413865)
(1.14806 -0.00103171 0.148318)
(1.14206 -0.000242617 0.149785)
(1.14415 0.00047809 0.148865)
(1.14596 0.000246966 0.149663)
(1.14802 -0.00032814 0.148518)
(1.1435 -0.00087922 0.149773)
(0.762119 -0.00110845 0.188486)
(0.746972 -0.000807235 0.182654)
(0.751244 0.00119254 0.182938)
(0.757408 0.00157286 0.187952)
(0.761899 -0.00148967 0.18987)
(0.748463 -0.00265097 0.181211)
(0.332557 0.0013448 -0.0237413)
(0.317279 -0.000795012 -0.0348054)
(0.320278 0.000871978 -0.0324348)
(0.32994 -0.000829516 -0.0266449)
(0.335739 0.000209154 -0.0194204)
(0.31601 0.00232982 -0.0390445)
(-0.271854 0.00222171 -0.40499)
(-0.271346 0.000398142 -0.412937)
(-0.270818 0.000625839 -0.410392)
(-0.271333 -0.00116314 -0.407229)
(-0.276911 0.0028804 -0.401465)
(-0.267951 0.00510191 -0.416929)
(-0.729052 -0.001671 -0.631948)
(-0.720477 0.000688291 -0.631239)
(-0.720334 0.00160382 -0.630868)
(-0.728868 0.00213384 -0.631956)
(-0.73936 0.00317984 -0.634845)
(-0.7157 0.00104655 -0.626592)
(-0.823842 -0.00403606 -0.660452)
(-0.82662 0.00066779 -0.64969)
(-0.823578 0.00161869 -0.650563)
(-0.827133 0.00573663 -0.659308)
(-0.833977 -0.00173314 -0.67105)
(-0.824778 -0.00732652 -0.636855)
(-0.76278 -0.00178383 -0.587314)
(-0.776819 0.00114625 -0.565761)
(-0.776246 -0.000487195 -0.568171)
(-0.765367 0.00573249 -0.586366)
(-0.765557 -0.00511505 -0.606416)
(-0.784241 -0.00818708 -0.554568)
(-0.356754 0.00646743 -0.45089)
(-0.388602 0.00323798 -0.431226)
(-0.386553 -0.00723903 -0.435297)
(-0.359387 -0.00804068 -0.450743)
(-0.34007 0.00201652 -0.470282)
(-0.399133 0.0141181 -0.429246)
(0.17736 0.00129558 -1.24818)
(0.158754 -0.00352076 -1.22929)
(0.133597 0.0139011 -1.23896)
(0.204668 0.0293307 -1.2382)
(0.274463 -0.00576543 -1.24618)
(0.129063 -0.0397502 -1.2427)
(1.65369 -0.00468028 -0.880514)
(1.62663 -0.00752002 -0.860704)
(1.61395 0.00517718 -0.868185)
(1.65684 0.00504557 -0.872301)
(1.69202 -0.00729538 -0.875678)
(1.60318 -0.0208343 -0.869248)
(2.27384 -0.000372641 -0.0426497)
(2.24478 -0.000125223 -0.0280093)
(2.24513 0.00182749 -0.0277065)
(2.27383 -0.00253519 -0.0407906)
(2.29883 0.00243782 -0.048698)
(2.22702 -0.00347556 -0.0226551)
(2.5181 0.00263363 0.444087)
(2.50609 0.00340641 0.452505)
(2.50535 -0.00118068 0.454163)
(2.51915 -0.00598594 0.444726)
(2.5334 0.00818098 0.440259)
(2.49755 0.00907173 0.456428)
(2.54349 0.000521517 0.540344)
(2.53925 0.00105228 0.544979)
(2.53928 -5.45302e-05 0.545282)
(2.54314 -0.00252851 0.541523)
(2.5473 0.00349618 0.541092)
(2.53687 0.00557777 0.543875)
(2.6503 0.00462636 0.535089)
(2.64527 0.00236941 0.541007)
(2.64104 -0.00129003 0.539991)
(2.65244 -0.00137409 0.537638)
(2.65591 0.00173837 0.537212)
(2.64037 0.00308884 0.539494)
(2.94729 0.0108193 0.777139)
(2.96116 0.00609955 0.77975)
(2.94685 -0.00556649 0.778898)
(2.96015 -0.00862059 0.777924)
(2.96539 0.00417816 0.772121)
(2.94731 0.0115224 0.786859)
(3.40499 0.00725082 1.16064)
(3.43176 0.00534012 1.15311)
(3.41673 -0.00243594 1.15309)
(3.42273 -0.00824621 1.15989)
(3.42834 0.0128445 1.16669)
(3.3894 0.0250707 1.16561)
(3.63771 -0.0298943 1.06669)
(3.74278 -0.0139751 1.06453)
(3.71713 0.0203538 1.06266)
(3.65804 0.0275924 1.06923)
(3.62675 -0.0449017 1.07135)
(3.75935 -0.042979 1.08024)
(2.32403 -0.0407288 0.590572)
(2.4465 -0.0171094 0.585479)
(2.42903 0.0173436 0.582588)
(2.34331 0.0348892 0.597044)
(2.26709 -0.0426731 0.604189)
(2.54239 -0.0603701 0.579941)
(1.0429 -0.0357863 0.302916)
(1.0283 -0.00489528 0.309453)
(1.04048 -0.00162818 0.306877)
(1.04608 0.028844 0.309433)
(1.03454 -0.0224149 0.318827)
(1.04066 -0.0528984 0.289293)
(0.242953 0.0582366 -0.285572)
(0.0220755 0.0524733 -0.307388)
(0.0492114 -0.0820595 -0.305307)
(0.237726 -0.0840885 -0.286974)
(0.384548 0.0566589 -0.27323)
(-0.00330796 0.117278 -0.323417)
(-0.365565 0.0236522 -2.39888)
(-0.317068 0.0319393 -2.36284)
(-0.242033 -0.0620864 -2.35373)
(-0.452229 -0.104487 -2.39813)
(-0.67864 0.0212869 -2.42063)
(-0.230897 0.11184 -2.36558)
(1.65194 0.00270326 -2.36118)
(1.90921 0.0414482 -2.41625)
(1.97634 -0.0104484 -2.44292)
(1.68168 0.0871104 -2.34022)
(1.51466 -0.0323698 -2.27002)
(2.02545 0.102042 -2.46142)
(2.48749 -0.00599664 -1.24364)
(2.69505 0.00505712 -1.25871)
(2.68318 -0.00485549 -1.2627)
(2.50446 0.0329138 -1.23857)
(2.40811 -0.0189532 -1.21992)
(2.77385 0.0524451 -1.26721)
(3.3733 0.00214899 -0.467178)
(3.44601 0.00396213 -0.46894)
(3.433 -0.00646152 -0.462495)
(3.37893 -0.00186583 -0.469137)
(3.34838 -0.00457035 -0.467813)
(3.4442 0.018281 -0.455954)
(4.03772 -0.000728996 0.0214068)
(4.05854 0.000129192 0.0188219)
(4.05255 7.21292e-05 0.0263169)
(4.04293 0.00123339 0.0179301)
(4.03776 -0.00159117 0.0155216)
(4.03822 -0.00150386 0.0323413)
(4.66632 -0.000895945 0.0213543)
(4.67217 0.00140558 0.0307367)
(4.67076 0.000470799 0.0363484)
(4.66197 0.00705588 0.0203517)
(4.65826 -0.00650731 0.0190773)
(4.6707 -0.0110723 0.0369444)
(5.98669 0.0304883 -0.393638)
(5.97327 0.0235445 -0.360902)
(5.94306 -0.0223719 -0.353231)
(6.03488 -0.039968 -0.397839)
(6.11102 0.0295963 -0.421632)
(5.869 0.0402454 -0.336964)
(6.61847 0.0374416 -0.563977)
(7.2529 0.0510617 -0.615274)
(7.11445 -0.0509775 -0.589195)
(6.7199 -0.0479 -0.584302)
(6.45472 0.148866 -0.574079)
(7.3332 0.231428 -0.559481)
(2.01519 -0.194202 1.11246)
(3.19835 -0.0821066 0.735592)
(2.9939 0.06 0.807359)
(1.83392 0.182139 1.11304)
(1.60026 -0.304971 1.29204)
(4.19228 -0.0999076 0.440842)
(-1.53056 -0.108858 1.67655)
(-1.69233 -0.102387 1.57649)
(-1.68871 0.0399568 1.55439)
(-1.5942 0.0583061 1.67602)
(-1.76763 -0.243481 1.75512)
(-1.56667 -0.203909 1.52976)
(-1.55065 0.0561513 0.944514)
(-1.69451 0.0257827 1.15866)
(-1.64468 -0.0856818 1.12916)
(-1.62586 -0.109028 0.922683)
(-1.60698 0.028099 0.807798)
(-1.60145 0.118057 1.20772)
(-1.39828 0.0438596 0.312143)
(-1.45353 0.0171078 0.610209)
(-1.4121 -0.0610097 0.604358)
(-1.41995 -0.075778 0.288265)
(-1.37162 0.00159311 0.173174)
(-1.37024 0.0670681 0.679745)
(0.154573 0.200354 -3.40954)
(1.08155 0.33365 -3.40602)
(1.45997 -0.606743 -3.3656)
(-0.569655 -0.861029 -3.41609)
(-2.17815 0.205191 -3.33616)
(1.23726 1.03702 -3.44714)
(0.00442727 -0.0247525 -2.6961)
(1.7811 0.203629 -2.83947)
(2.31877 0.112919 -2.86517)
(0.263209 0.589413 -2.70055)
(-1.11517 0.00281799 -2.84179)
(2.80489 0.365265 -2.81231)
(1.36383 -0.111318 -2.03655)
(2.19761 -0.107009 -1.87599)
(2.17069 0.102918 -1.83889)
(1.42699 0.362243 -2.01149)
(1.10564 0.0656938 -2.25912)
(3.44143 0.139993 -1.66768)
(5.93706 -0.104723 -1.83886)
(6.51843 -0.155983 -1.57832)
(6.18622 0.0578969 -1.60001)
(6.1122 0.122053 -1.81719)
(6.08322 -0.0895025 -1.98963)
(7.473 0.0417828 -1.40037)
(10.9357 -0.0927767 -1.52184)
(11.1564 -0.10674 -1.47408)
(10.8994 0.110483 -1.49134)
(11.0751 0.109916 -1.51244)
(10.9229 -0.192618 -1.5352)
(11.7853 -0.0237249 -1.45275)
(14.9598 -0.0749046 -1.80445)
(15.4113 0.0667407 -1.79031)
(15.218 0.125658 -1.79101)
(15.3283 0.298597 -1.7896)
(14.8864 -0.200242 -1.81997)
(15.7993 -0.0131945 -1.72784)
(14.2519 -0.0538123 -0.293582)
(15.3444 0.21477 -0.564494)
(15.1787 -0.136026 -0.469126)
(14.773 0.211701 -0.34082)
(14.4229 -0.0320603 -0.289216)
(15.9902 0.115144 -0.613597)
(8.04167 0.0682984 2.99865)
(9.60395 0.11502 2.41532)
(9.29301 -0.178504 2.53385)
(8.22323 -0.0848283 3.02581)
(7.57306 0.245135 3.14641)
(10.5241 0.399667 2.22666)
(2.89554 -0.0632981 8.90967)
(5.12033 -0.00943924 8.28714)
(4.65891 -0.0758529 8.40349)
(2.71826 0.0716369 8.91683)
(1.77362 -0.107832 9.11703)
(6.75924 0.207798 7.73968)
(-0.387152 -0.170498 4.46868)
(-0.0848197 -0.165218 4.95267)
(-0.201703 0.104999 4.75547)
(-0.455134 0.0541333 4.38842)
(-0.77861 -0.474881 4.40772)
(0.435574 -0.351698 5.37919)
(0.0360221 -0.07984 -0.688843)
(-0.012838 -0.0192435 -0.285537)
(-0.081012 0.122958 -0.353452)
(0.118579 0.196191 -0.73212)
(-0.333326 -0.135006 -1.20664)
(-0.0536415 -0.201672 -0.236344)
(-4.487 -0.0412467 -3.1744)
(-4.40605 -0.0163177 -3.06952)
(-4.39561 0.0612803 -3.07482)
(-4.49415 0.115851 -3.19958)
(-4.56765 -0.0411922 -3.30668)
(-4.31829 -0.108272 -3.03537)
(-0.591318 -0.144087 -0.284373)
(-0.229291 -0.153796 -0.270828)
(-0.596604 -0.0362555 -0.254839)
(-0.321851 0.339851 -0.430341)
(0.396498 -0.0990713 -0.122622)
(-0.266043 0.410485 -0.0753432)
(-1.96675 0.00356533 0.0772304)
(-0.0766019 0.0135136 -0.361557)
(0.43951 0.352868 -1.18399)
(-0.556049 0.817952 -0.492292)
(-0.38083 -0.113057 0.271616)
(-1.85578 0.0141227 0.230922)
(-2.16437 0.105934 0.380239)
(0.827921 0.758944 -0.869401)
(0.878806 0.821359 -1.37808)
(-0.365359 0.0476999 -0.579649)
(-0.525448 -0.763576 0.00369899)
(-1.54204 -0.364399 0.0412803)
(0.0225663 0.416178 -0.23741)
(2.50282 0.965473 -1.09721)
(-0.0690594 0.634961 -0.167702)
(-2.1601 0.161172 0.0811862)
(0.475388 -0.400261 0.032846)
(-0.259652 -0.274441 -0.100075)
(2.96871 0.135127 -0.640871)
(4.28374 0.26795 -1.46161)
(4.33276 -0.0159392 -1.92708)
(2.70902 0.77993 -0.555516)
(1.60538 0.676404 0.924937)
(2.03236 -0.16665 -0.0281919)
(3.87911 -0.102252 -0.904858)
(4.91156 0.144853 -1.93451)
(5.24999 -0.223844 -2.66139)
(5.23766 0.164763 -2.07837)
(4.66272 0.166426 -0.825765)
(4.95356 -0.00813458 -1.41747)
(3.99205 -0.210003 -1.0365)
(4.57233 0.0307684 -1.97537)
(4.6914 -0.0492555 -2.5895)
(4.27639 0.269444 -2.0362)
(4.55428 -0.0985716 -1.39734)
(4.46631 0.0147869 -1.63518)
(3.57751 -0.22933 -0.893552)
(4.16526 -0.058851 -1.87425)
(4.19147 0.0869041 -2.37748)
(4.00788 0.275565 -1.67426)
(4.60112 -0.597393 -1.61858)
(3.96891 -0.020851 -1.45295)
(3.32446 -0.252672 -0.413214)
(3.97271 -0.345604 -1.6021)
(4.09722 -0.102702 -2.17799)
(4.61419 0.162115 -1.61887)
(5.24984 -0.958485 -1.712)
(3.5747 0.14274 -1.17195)
(3.10915 -0.39091 0.338739)
(3.88375 -0.705084 -1.19915)
(4.10332 -0.418186 -2.0549)
(5.16302 -0.278292 -2.06692)
(5.36081 -0.60147 -2.18001)
(3.15193 0.669968 -0.898859)
(2.43175 -0.377338 0.795078)
(3.22907 -0.635077 -0.827534)
(3.52054 -0.63834 -1.95493)
(3.48295 -0.452258 -2.15553)
(3.53236 0.0995227 -2.66922)
(2.16293 0.988229 -0.637084)
(0.99684 -0.275345 0.37586)
(1.61626 -0.190527 -0.837446)
(1.88391 -0.0955775 -1.4441)
(1.52579 0.134052 -1.24986)
(1.1251 0.250389 -1.14656)
(0.626957 0.458598 -0.0725574)
(-0.994853 -0.0879818 -1.78645)
(-0.490027 0.279643 0.0188137)
(-1.54106 -0.37127 -1.27407)
(-0.288593 0.600474 -0.224272)
(0.441096 -0.258852 0.105011)
(-0.739997 0.17482 -1.52894)
(-2.55743 0.162883 -1.83734)
(-1.91555 0.56045 0.667021)
(-1.58062 0.0508185 0.458557)
(-0.519895 0.421852 1.08689)
(-1.51129 -0.807864 0.578603)
(-2.47613 0.0723783 -1.90941)
(-3.31731 0.415976 -0.500307)
(-2.54937 0.85431 1.60785)
(-2.33159 0.314393 2.00733)
(-1.45819 -0.880823 2.01994)
(-2.12597 -1.46719 1.17563)
(-3.26491 -0.15248 -0.918034)
(-3.57046 0.435851 1.58377)
(-1.96676 0.360927 3.53999)
(-2.99202 -0.289929 5.29497)
(-2.38876 -1.01891 3.85674)
(-1.18972 -1.11449 2.79312)
(-2.86452 -0.331775 1.39857)
(-2.64799 0.656576 2.77196)
(-0.873023 0.394932 3.91243)
(0.710798 -0.830447 4.26911)
(0.615241 -0.557763 5.00803)
(0.301509 -0.523094 5.68687)
(-1.19247 -0.269153 5.60564)
(-2.74368 0.68215 1.32759)
(-2.51911 0.975975 2.11819)
(-0.60657 0.0341053 2.57684)
(2.26078 -0.423202 2.0772)
(4.14882 -0.0368209 2.11062)
(2.10395 -0.0936738 2.47374)
(-3.68728 0.362708 0.503311)
(-4.42593 0.228639 0.13187)
(-2.40394 -0.345342 0.136217)
(-0.97485 -0.323715 0.0454539)
(0.227897 0.485406 1.28044)
(-1.57275 0.783774 -0.156118)
(-4.02147 0.716625 1.00902)
(-6.89189 1.35995 0.325526)
(-3.94733 -0.28651 0.96781)
(2.10275 -0.777649 2.67857)
(4.68851 -0.200289 2.15674)
(-3.11193 0.649917 -0.399374)
(1.34306 0.0804227 1.22095)
(-5.56884 2.42519 1.26292)
(-8.46157 2.00251 1.27103)
(1.52126 0.656116 3.04153)
(6.38219 -0.629814 2.29704)
(0.555621 0.540665 -1.11503)
(3.65574 -0.716501 1.45203)
(0.217431 0.90167 0.947681)
(-5.518 1.76446 1.17013)
(3.00658 1.44815 2.33666)
(5.2723 -0.508861 -1.59045)
(1.4196 2.08711 0.339309)
(3.86507 -0.910721 -0.924426)
(4.1765 -0.537237 -1.74776)
(2.62238 -1.70395 0.968574)
(2.72136 1.51908 -4.29475)
(4.26176 -0.869846 -6.72556)
(1.48326 2.41583 0.58154)
(2.62033 0.11892 -3.35171)
(3.63329 0.40342 -5.05033)
(2.90366 -0.089019 -3.98272)
(3.22846 0.372993 -3.45988)
(3.24941 -0.68322 -3.49623)
(1.0321 -0.178954 -1.02495)
(0.00822869 -0.364219 -3.95659)
(-0.363318 0.233349 -1.51143)
(-0.221108 -0.29826 -3.72834)
(-0.595761 0.465756 -1.4463)
(0.163796 0.296596 -0.132888)
(-0.0674038 0.342102 -3.28435)
(-2.16302 -0.89055 -3.97936)
(-2.07569 0.158776 -1.15324)
(-2.05251 -0.0127056 -2.05846)
(-1.27736 1.07133 0.397103)
(-2.00057 0.513313 -0.350709)
(-2.55741 0.818937 -3.87938)
(-3.06053 -0.332417 -3.02104)
(-3.75599 0.534646 0.210731)
(-3.59588 0.403537 1.43336)
(-2.71948 0.367176 2.46213)
(-3.88082 -0.38583 -1.28942)
(-3.30039 0.722372 -3.35688)
(-4.00764 0.211102 -1.40371)
(-5.42506 0.419517 2.90259)
(-4.89388 -0.336327 5.98311)
(-4.62822 -0.817281 4.5687)
(-4.88897 -0.948076 0.171428)
(-3.6548 0.286553 -0.671967)
(-5.82138 0.37792 -0.529174)
(-9.11836 0.38659 3.36138)
(-7.24994 -0.765488 5.75763)
(-4.171 -0.885277 6.70272)
(-3.21434 -0.657455 8.13797)
(-3.47961 -0.00659544 5.95037)
(-5.87038 0.0405139 -2.80652)
(-9.41553 0.457132 -0.775102)
(-5.95865 0.147724 -1.65191)
(-3.03226 0.378914 -2.12471)
(-4.35149 -0.319744 -0.107164)
(-3.36949 -0.120676 -0.492716)
(-2.81436 -0.429517 -3.29916)
(-5.87748 0.0982517 -3.46032)
(-3.40417 0.206991 -4.15408)
(-2.01259 -0.302836 -3.64169)
(-2.79378 -0.136895 -3.40275)
(-1.17769 0.374545 -3.26057)
(-2.74089 -0.51164 -1.32047)
(-2.54465 -1.20805 -2.59933)
(-1.53247 -1.95356 -1.37143)
(-0.0272994 -1.91012 1.48223)
(1.19157 -0.639533 1.93446)
(0.311819 0.314327 1.55367)
(-5.08568 -0.0168251 1.76393)
(-6.10377 0.278927 0.268571)
(-4.96062 -0.770178 2.31383)
(-0.0149325 -0.945384 5.22078)
(2.99447 -0.622936 0.943404)
(1.49866 0.963453 2.56009)
(-2.45553 -0.544179 2.76424)
(-4.51673 0.368122 3.62906)
(-6.69572 0.340058 5.44311)
(1.06119 0.820091 4.17089)
(3.11903 0.100718 -4.01964)
(1.00014 1.39225 1.31354)
(-3.04225 -1.08407 2.20567)
(-1.34937 0.218738 0.351725)
(-0.408995 -1.0953 0.307942)
(2.326 1.49653 -5.23652)
(3.91052 -0.862411 -7.13271)
(-2.25263 1.2631 2.18567)
(3.59054 0.416498 -5.46494)
(3.82234 0.531507 -5.98207)
(3.28473 0.292855 -5.15795)
(3.33612 0.46446 -4.21556)
(3.43218 -1.00163 -4.537)
(2.44161 -0.925412 -3.80652)
(1.50379 -0.859021 -4.0799)
(0.305078 0.293622 -2.67371)
(1.37757 -0.224422 -4.36187)
(1.33889 -0.292067 -3.47452)
(0.764846 0.364163 -1.14988)
(1.62568 0.780412 -3.29256)
(-1.83454 -1.90658 -3.16253)
(-1.17223 -0.0394276 -4.1481)
(-1.4121 -0.412956 -4.49811)
(-2.00033 1.13142 -2.05005)
(-2.42372 1.11918 -2.30908)
(-2.50225 2.23935 -1.96803)
(-2.5348 -1.66935 -2.61532)
(-3.11584 0.212874 -3.2461)
(-3.69213 0.25556 -1.46731)
(-3.94982 1.52647 1.13059)
(-3.98872 0.884287 -2.26434)
(-2.91181 1.39023 -0.627952)
(-1.74848 -0.859835 -2.67662)
(-5.26183 0.269435 -0.579251)
(-5.57479 -0.0747976 2.71525)
(-5.53248 0.997343 4.3754)
(-5.81193 0.462762 0.261661)
(-0.574693 0.500044 0.712404)
(-2.77063 -1.05956 0.438162)
(-7.58003 -0.476107 2.38616)
(-7.4308 -1.17984 5.67615)
(-5.11666 -0.587635 7.09484)
(-4.73935 -0.129227 5.66095)
(-2.16357 0.638534 4.74758)
(-2.5275 -0.867827 1.77042)
(-7.76229 -0.731877 3.03453)
(-5.94572 -0.750852 3.41616)
(-3.50446 -0.550445 2.69411)
(-3.78142 -0.172986 2.44766)
(-3.62126 0.633208 2.30554)
(-2.45947 -0.788558 2.31808)
(-3.70796 -0.726511 2.41653)
(-1.35474 -0.537588 2.05319)
(-0.738197 -0.554106 1.86102)
(-1.03817 -0.43774 2.27408)
(-1.02754 -0.00936838 2.02266)
(-1.81229 -0.289413 2.26428)
(-0.41632 -1.58387 2.05381)
(0.450371 -2.84182 1.75778)
(1.11885 -2.37141 1.79058)
(1.63858 -1.52717 1.61491)
(1.83055 -0.402005 1.76027)
(-4.29126 0.555544 2.40108)
(-3.72778 -0.551048 2.04673)
(-1.57884 -2.45235 2.75633)
(0.624738 -1.60684 2.5307)
(1.53928 -1.09999 -0.649319)
(2.07388 -0.0611342 1.53148)
(-2.84693 0.380162 3.91482)
(-4.51526 1.01117 4.92765)
(-4.19523 -0.932602 6.09208)
(1.36549 0.101926 0.633432)
(2.30841 0.230993 -4.19791)
(2.64447 0.416058 -0.381823)
(-5.8993 -0.0403963 4.05555)
(-7.9043 2.10128 4.70073)
(-7.84439 1.11196 4.98245)
(1.41727 1.81631 -3.88768)
(3.16919 -0.3844 -5.98634)
(-6.13443 -0.434239 2.37688)
(3.63996 0.0729402 -4.44955)
(3.49035 0.286019 -4.17491)
(3.45685 0.84946 -3.95884)
(3.7665 0.876962 -4.21757)
(3.83673 -0.645506 -4.51477)
(3.24842 -0.733165 -3.90391)
(-2.58855 0.187901 -1.75223)
(-0.945276 0.471998 -1.96853)
(-0.147048 -0.472762 -1.83413)
(-3.16879 -0.48694 -1.86308)
(-4.79637 0.195683 -1.9609)
(-0.424591 1.01509 -1.99046)
(-4.33968 -0.0500541 1.2047)
(-4.1059 0.142938 1.87716)
(-3.16492 0.0884153 1.96827)
(-4.59489 0.104191 1.21177)
(-5.00866 0.0366185 0.726211)
(-3.26994 0.211839 1.76244)
(-4.2332 -0.260639 6.27179)
(-4.70538 -0.0459464 6.18011)
(-4.18967 0.271381 6.21247)
(-4.3123 0.458678 6.27122)
(-4.50311 -0.213583 6.14493)
(-3.9527 -0.176412 6.66372)
(-6.04719 -0.104846 -2.21043)
(-5.32883 -0.0372196 -1.96593)
(-4.83678 0.278248 -1.87157)
(-5.81882 0.566107 -2.35692)
(-5.96858 -0.0795806 -3.08146)
(-3.98047 -0.231483 -1.62055)
(-4.14255 -0.0406339 -1.27165)
(-5.09937 -0.0352205 -0.391655)
(-5.02679 0.160358 -0.000162973)
(-3.94544 0.461149 -1.43218)
(-3.15772 -0.138501 -2.39021)
(-5.4461 -0.181562 0.444851)
(-1.65466 -0.0491533 -4.16929)
(-2.50952 0.0199173 -3.79642)
(-2.81492 0.00223682 -3.40803)
(-1.3365 0.272048 -4.44503)
(-0.790064 -0.0485862 -4.93929)
(-3.9681 -0.026815 -1.81491)
(-4.70441 -0.0969778 -5.06534)
(-5.53446 -0.123098 -4.85303)
(-5.63224 0.00478477 -4.79537)
(-4.58169 0.0444139 -5.33763)
(-3.80321 -0.132226 -5.90291)
(-5.62233 -0.167839 -4.04788)
(-1.38618 0.0662705 -5.476)
(-2.06632 0.0812048 -5.28432)
(-2.143 -0.119112 -5.1233)
(-1.08861 -0.10083 -5.71156)
(-0.509247 0.0327131 -6.0237)
(-3.32749 0.205865 -4.49691)
(-0.0797983 0.0414122 -6.63642)
(-0.218127 0.0697732 -6.67488)
(-0.242456 -0.0425463 -6.65523)
(-0.0428637 -0.0180378 -6.7192)
(0.00079004 0.107154 -6.80427)
(-0.763456 0.170149 -6.32349)
(-3.35286 -0.0198005 -6.87017)
(-3.57924 0.0146782 -7.27697)
(-3.55366 -0.104461 -7.27787)
(-3.25616 -0.176681 -7.14633)
(-3.08755 0.0104452 -7.22728)
(-3.5961 0.0748194 -6.7584)
(-1.64115 0.115721 -6.17021)
(-1.72089 0.116962 -6.38472)
(-1.64582 -0.169547 -6.25835)
(-1.65232 -0.255644 -6.30685)
(-1.65104 0.190162 -6.274)
(-1.96933 0.337372 -6.13848)
(-0.560804 0.0398838 -5.66976)
(-0.591 0.0377685 -5.7756)
(-0.611215 -0.0216026 -5.72519)
(-0.552842 -0.0186683 -5.73527)
(-0.55251 0.0803911 -5.74062)
(-0.669312 0.105564 -5.68888)
(-2.44468 -0.0674258 -6.33142)
(-2.79035 -0.00577045 -7.15402)
(-2.71825 0.00896786 -7.2154)
(-2.51783 0.0851078 -6.35934)
(-2.40518 -0.0705034 -6.09871)
(-2.7808 -0.0400214 -6.86309)
(-2.70405 0.102877 -6.09471)
(-2.53443 0.09411 -6.44902)
(-2.42783 -0.159085 -6.40399)
(-2.86225 -0.237764 -6.11748)
(-3.0857 0.118124 -5.87077)
(-2.61657 0.248019 -6.34006)
(-1.09225 0.0486489 -4.2083)
(-1.03447 0.0387046 -4.33187)
(-1.03895 -0.056636 -4.28856)
(-1.11996 -0.105102 -4.206)
(-1.17149 0.0583635 -4.15414)
(-1.08567 0.102195 -4.26145)
(-1.25362 -0.0860196 -1.69602)
(-1.79201 0.0330269 -2.76704)
(-1.82036 0.0789445 -2.8724)
(-1.22486 0.300723 -1.50754)
(-0.900229 -0.164479 -0.97274)
(-1.81076 -0.050371 -2.89895)
(-4.34772 0.0769862 -3.65692)
(-4.32118 0.0827666 -4.29175)
(-4.21921 -0.123062 -4.38998)
(-4.52178 -0.130122 -3.5865)
(-4.70496 0.14271 -3.05153)
(-4.16638 0.280102 -4.53551)
(-2.94733 0.0400808 -1.4094)
(-2.70938 0.0404436 -1.68029)
(-2.64109 -0.0424472 -1.71587)
(-3.02626 -0.0995452 -1.39127)
(-3.21554 0.0889858 -1.20663)
(-2.586 0.131849 -1.77642)
(2.0068 0.0775481 4.48654)
(2.05762 0.203492 4.1919)
(2.06822 -0.27007 4.2541)
(2.17492 -0.124236 4.71976)
(2.15159 0.149562 4.94376)
(2.19046 0.499009 3.78335)
(-4.52069 0.0302961 3.97401)
(-4.47199 0.0402189 3.59138)
(-4.50189 -0.124673 3.54951)
(-4.63176 -0.0136255 4.08152)
(-4.81437 0.150055 4.32579)
(-4.1606 0.328502 2.97307)
(-3.80932 -0.019595 3.01898)
(-3.72994 -0.0103699 2.75936)
(-3.67484 -0.00485735 2.6252)
(-3.83498 0.0673324 2.93411)
(-3.9477 0.0575516 3.08192)
(-3.51989 0.0671724 2.42725)
(-1.04098 0.13015 9.75524)
(0.142735 0.157729 9.53802)
(-0.0642776 -0.26304 9.57842)
(-1.13354 -0.107337 9.9068)
(-1.81451 0.333732 9.96275)
(1.39116 0.624557 9.31809)
(-4.71607 0.0250486 9.86356)
(-4.15166 0.0597571 10.1594)
(-4.23768 -0.142886 10.1314)
(-4.88751 -0.0274959 9.83003)
(-5.38984 0.0611902 9.61457)
(-3.22619 0.267242 10.0963)
(-2.70892 -0.0496147 6.67166)
(-2.68203 -0.0216499 7.05514)
(-2.67634 -0.0263751 6.9726)
(-2.7398 0.0625196 6.53091)
(-2.85081 -0.082165 6.3002)
(-2.40586 -0.0414904 7.08644)
(-2.5927 -0.0929296 10.692)
(-1.54602 -0.023487 10.912)
(-1.79897 -0.0185366 10.8387)
(-2.77198 0.150789 10.631)
(-3.23612 -0.299813 10.8042)
(-0.316482 -0.149828 10.8585)
(-2.92372 -0.0903383 8.26654)
(-2.99784 -0.0344019 8.70119)
(-3.03426 0.0464016 8.58317)
(-2.97717 0.131297 8.21065)
(-3.1579 -0.270215 8.47651)
(-2.70268 -0.310541 8.85022)
(-0.247466 -0.0410826 4.75359)
(-0.440953 -0.0282805 4.97236)
(-0.423775 0.0159854 4.91415)
(-0.24366 0.019708 4.77019)
(-0.294212 -0.106696 4.91604)
(-0.569688 -0.134336 5.06596)
(-1.06965 -0.139036 4.57805)
(-1.12105 -0.0992455 4.79311)
(-1.15026 0.123781 4.70466)
(-1.07124 0.10881 4.53849)
(-1.15352 -0.399487 4.6252)
(-1.0065 -0.407801 5.07946)
(0.648097 -0.0247628 4.09644)
(0.540251 0.00860601 4.19984)
(0.536016 0.0129749 4.14929)
(0.651165 0.0223827 4.127)
(0.691178 -0.109853 4.16729)
(0.465019 -0.147959 4.35563)
(0.857839 0.00638621 2.16021)
(0.841956 0.0095395 2.18062)
(0.836037 -0.0153788 2.15534)
(0.871481 -0.0160771 2.19927)
(0.884751 0.00756349 2.19975)
(0.826983 0.00469645 2.21984)
(-2.77463 -0.0379761 2.04382)
(-2.87924 -0.00637788 1.84898)
(-2.86209 0.0607355 1.84526)
(-2.72109 0.111392 2.04701)
(-2.61494 -0.045459 2.12984)
(-2.72116 -0.120315 1.81603)
(1.29978 0.0198264 2.08782)
(1.30437 0.0294905 2.07827)
(1.30942 -0.02508 2.04644)
(1.33385 -0.0311536 2.07805)
(1.41524 0.0299362 2.05157)
(1.34431 0.0305942 2.06574)
(1.48528 0.00120179 0.26225)
(1.49604 0.00392717 0.255528)
(1.48554 -0.000824149 0.243293)
(1.483 -0.00204748 0.267775)
(1.46864 0.00451145 0.256037)
(1.4844 0.00299246 0.248788)
(-3.3717 -0.0065921 -1.52855)
(-3.36194 -0.00550579 -1.66114)
(-3.37199 0.00215208 -1.6533)
(-3.3876 0.00488321 -1.51058)
(-3.40661 -0.014051 -1.43675)
(-3.37513 -0.0170828 -1.67253)
(2.35668 0.0164738 -2.80274)
(2.39206 0.00704279 -2.94338)
(2.38287 -0.0392889 -2.90908)
(2.36872 -0.0574297 -2.76484)
(2.3731 0.0130457 -2.66128)
(2.38611 0.0420082 -2.86122)
(1.73743 0.00981235 -0.753955)
(1.72618 0.00607021 -0.754948)
(1.72624 -0.0128529 -0.751576)
(1.73952 -0.0185356 -0.753045)
(1.74674 0.00589755 -0.750442)
(1.73098 0.0149464 -0.747368)
(2.19197 0.0271913 0.201082)
(2.28315 0.0520939 0.164153)
(2.27885 0.0342172 0.0938911)
(2.29375 0.0143432 0.197395)
(2.33642 -0.0452299 0.212338)
(2.25915 -0.0465052 0.196853)
(1.04815 0.00914237 -3.88344)
(0.876292 -0.017635 -4.12232)
(0.602799 -0.0783314 -4.27903)
(0.491737 -0.0593191 -4.26865)
(0.414626 -0.0125699 -4.26566)
(0.62165 -0.00307247 -4.16882)
(-0.327409 0.0247871 -0.259111)
(-0.454629 0.0882471 -0.341234)
(-0.556589 0.201634 -0.283774)
(-0.331379 0.230312 -0.0670665)
(-0.198315 0.113635 0.0311033)
(-0.141768 0.0160034 -0.0107715)
(0.438635 -0.00935072 -0.164446)
(0.452835 -0.024193 -0.193019)
(0.466647 -0.0179011 -0.208831)
(0.474132 -0.00676067 -0.227295)
(0.480976 -0.00606462 -0.23042)
(0.457075 -0.00133702 -0.216206)
(0.170252 -0.0292673 -1.92114)
(0.171723 -0.0778437 -2.08703)
(0.142606 -0.0771088 -2.14434)
(0.0799207 -0.0534419 -2.0904)
(0.0552304 -0.00905793 -2.09677)
(0.0127651 0.0171564 -2.0363)
(0.327079 0.0123932 -1.14316)
(0.35424 0.046486 -1.14876)
(0.392767 0.10384 -1.07629)
(0.444683 0.123154 -1.08062)
(0.473462 0.0757625 -1.08545)
(0.464674 0.0203342 -1.13703)
(0.268317 -0.0029095 0.147687)
(0.266106 -0.00643322 0.146073)
(0.262125 -0.000462752 0.143004)
(0.255581 0.00395511 0.147849)
(0.252811 -0.00269521 0.14529)
(0.255097 -0.00293086 0.138041)
(0.629377 -0.015193 -0.805893)
(0.611915 -0.0380637 -0.822895)
(0.576218 -0.0520373 -0.838081)
(0.545127 -0.051322 -0.839403)
(0.522938 -0.0371643 -0.845299)
(0.535795 -0.0139337 -0.815711)
(-0.151966 0.0124236 -0.897974)
(-0.145548 0.0360698 -0.916246)
(-0.125831 0.0506883 -0.899194)
(-0.0813111 0.0492115 -0.895692)
(-0.0488591 0.0293177 -0.894765)
(-0.0349487 0.00662044 -0.886183)
(-0.219997 -0.0012987 0.150105)
(-0.220799 -0.00460773 0.149713)
(-0.220597 -0.00791155 0.148505)
(-0.21858 -0.00963619 0.150635)
(-0.216028 -0.00605932 0.152088)
(-0.214961 -0.000580069 0.142766)
(0.160717 -0.00807789 -0.949545)
(0.158594 -0.0202274 -0.944121)
(0.153528 -0.0243873 -0.946607)
(0.146109 -0.023699 -0.955997)
(0.140824 -0.0125972 -0.968986)
(0.128839 -0.000846845 -0.95349)
(-0.180155 0.00522383 -1.01538)
(-0.174376 0.0175117 -1.02904)
(-0.162112 0.0276175 -1.02208)
(-0.148867 0.0279089 -1.02352)
(-0.13938 0.0176295 -1.0245)
(-0.134279 0.00493855 -1.0234)
(-0.544639 -0.0007963 -0.154042)
(-0.542917 -0.00369506 -0.153501)
(-0.546748 -0.00839139 -0.154429)
(-0.553132 -0.0106985 -0.155931)
(-0.558721 -0.00574284 -0.156169)
(-0.550658 -0.000163474 -0.160312)
(0.189282 -0.00507948 -2.18171)
(0.188619 -0.00977208 -2.16869)
(0.186211 -0.011406 -2.1786)
(0.176625 -0.0127127 -2.21258)
(0.172925 -0.00902928 -2.24821)
(0.178719 -0.00305972 -2.20428)
(-0.667597 0.00320486 -0.803231)
(-0.667756 0.00972103 -0.812378)
(-0.662586 0.0152759 -0.804607)
(-0.656194 0.0166749 -0.791403)
(-0.650347 0.00888652 -0.782711)
(-0.650089 0.000918516 -0.787446)
(-2.26446 -0.00269425 0.184061)
(-2.26227 -0.00225119 0.184)
(-2.26561 0.00273094 0.18463)
(-2.28065 0.00455123 0.18333)
(-2.29391 -0.00543074 0.188563)
(-2.26958 -0.00755828 0.177151)
(0.441303 -0.00385763 -4.40154)
(0.444063 -0.00600684 -4.40915)
(0.447238 -0.00372218 -4.41612)
(0.468992 -0.00725353 -4.40931)
(0.492579 -0.00330036 -4.42367)
(0.470741 0.00227618 -4.41994)
(0.394979 0.00616549 0.247495)
(0.383565 0.00943851 0.252628)
(0.396501 0.00492032 0.25663)
(0.420495 0.00454381 0.257784)
(0.439812 0.00940381 0.264396)
(0.425084 0.00629288 0.269769)
(2.65604 -1.20052 -3.49463)
(-0.212132 0.435281 -3.02299)
(2.47548 0.186971 -2.66329)
(2.84998 -1.18613 -3.28767)
(1.48029 -0.011211 -4.11789)
(2.4912 0.908756 -2.3877)
(1.97886 -0.524785 -2.88927)
(0.143525 0.679396 -4.06821)
(2.12616 0.315693 -0.877031)
(1.88313 -1.46374 -1.87701)
(0.603218 -1.07071 -4.32709)
(1.99746 -0.120499 -1.99869)
(1.32042 0.038874 -1.06412)
(0.0436876 -0.0687699 -3.60194)
(1.70237 -0.0808445 2.98252)
(1.44021 -1.00301 0.297509)
(0.411687 -0.146335 -3.66622)
(1.24048 -0.352906 -1.477)
(-1.59089 -0.260836 -1.84598)
(0.53942 0.485049 -8.74802)
(-1.92355 -0.0751774 -7.75595)
(-1.45258 -0.896303 -8.72903)
(-0.859619 -1.28086 -7.23897)
(-2.54394 -0.460382 1.40209)
(1.30092 0.587295 -3.97886)
(1.1265 0.693151 -5.58816)
(0.399563 -0.0560152 -6.26826)
(0.664781 -1.11663 -6.57848)
(2.13124 -1.74999 -4.19107)
(2.35737 -0.621284 -2.2276)
(0.424412 0.175863 -4.31112)
(0.638153 0.23012 -4.24935)
(0.209205 -0.0335942 -4.81311)
(0.960211 -0.494802 -4.1973)
(1.19616 -0.695717 -3.87137)
(0.665514 -0.195375 -3.12209)
(-0.125016 0.526798 -0.259848)
(0.420913 0.963813 -8.63918)
(-2.35726 -1.02357 -5.55306)
(-4.19951 0.4675 -1.65889)
(1.4707 -1.25002 -4.62374)
(4.45658 -0.460733 1.98765)
(2.96548 0.506478 -1.58619)
(1.65381 0.832433 -5.38763)
(1.16522 -0.793433 -3.98629)
(1.71848 -1.06503 -3.64109)
(3.85953 -1.25777 -0.677153)
(3.69034 -0.518746 -0.316726)
(2.0547 0.301928 -2.30392)
(1.19042 0.138501 -3.58283)
(1.96244 -0.329526 -2.67022)
(2.09514 -0.524529 -2.63318)
(1.89482 -0.420835 -2.74521)
(2.35381 -0.0708786 -1.12912)
(2.3597 0.355135 -0.0870663)
(-3.12666 0.196033 -1.93051)
(-4.67405 -0.755315 1.42403)
(-5.46197 0.686459 3.60928)
(-1.12975 -0.0348925 2.66911)
(3.16328 0.372532 1.91626)
(3.7987 0.0826624 -0.358666)
(0.761936 -0.0935339 -1.09283)
(-0.574511 -1.06332 1.02914)
(-2.34759 -0.324951 3.41895)
(2.53407 -0.200335 2.23368)
(3.3531 -0.0117704 0.823771)
(1.86656 -0.102005 -0.116999)
(1.66052 -0.278396 -0.218071)
(1.42089 -0.392982 0.201599)
(1.02408 -0.255861 1.0559)
(1.63868 0.0742361 0.419907)
(1.32245 -0.00547942 0.0101008)
(1.5454 -1.35276 1.85161)
(-4.16612 -1.04129 2.65344)
(-4.73652 -1.33369 5.18717)
(-3.50623 -0.0853715 6.53549)
(-0.507054 0.828187 4.5587)
(1.37583 0.924107 2.95213)
(2.39199 -1.121 2.65016)
(0.299467 -1.29236 3.47392)
(-0.701669 -1.12262 4.78333)