/*--------------------------------*- C++ -*----------------------------------*\
| =========                 |                                                 |
| \\      /  F ield         | OpenFOAM: The Open Source CFD Toolbox           |
|  \\    /   O peration     | Version:  v1612+                                |
|   \\  /    A nd           | Web:      www.OpenFOAM.com                      |
|    \\/     M anipulation  |                                                 |
\*---------------------------------------------------------------------------*/
FoamFile
{
    version     2.0;
    format      ascii;
    class       volScalarField;
    location    "0.9";
    object      alpha.water;
}
// * * * * * * * * * * * * * * * * * * * * * * * * * * * * * * * * * * * * * //

dimensions      [0 0 0 0 0 0 0];

internalField   nonuniform List<scalar> 
320
(
1
1
1
1
2.00586e-06
1.92134e-06
1.05165e-06
1.87688e-06
2.30861e-06
1.89847e-06
2.05061e-06
2.35034e-06
1.53183e-06
1.21443e-06
2.31426e-06
1.42062e-06
0.999996
0.999997
0.999997
1
0.999998
0.999995
1
0.999998
0.999994
0.999998
0.999998
1
1
1
1
1
1
1
1
1
1
1
1
1
1
1
1
1
1
1
1
1
1
1
1
1
1
1
1
1
1.77896e-06
2.84946e-06
1.95643e-06
1.60117e-06
1.0461e-06
1.0177e-06
1.58895e-06
1.27637e-06
1.02816e-06
2.22564e-06
1.04325e-06
1.27501e-06
1.39338e-06
2.89216e-06
2.01532e-06
1.75125e-06
2.29538e-06
2.1988e-06
1.55804e-06
2.39107e-06
1
0.999999
1
1
0.999999
0.999999
1
1
0.999999
0.999997
0.999998
0.999997
0.999995
0.999997
1
0.999997
0.999999
1
0.999998
0.999997
1
1
1
1
1
1
1
1
1
1
1
1
1
1
1
1
1
1
1
1
1
1
1
1
1
1
1
1
1
1
1
1
1
1
1
1
1
1
1
1
1
1
1
1
1
1
1
1
1
1
1
1
1
1
1
1
1
1
1
1
1
1
1
1
1
1
1
1
1
1
1
1
1
1
1
1
2.27399e-06
2.06412e-06
3.33922e-06
2.27009e-06
2.25933e-06
2.71746e-06
1.04609e-06
1.92453e-06
2.29828e-06
1.73264e-06
2.66004e-06
1.71577e-06
1.48474e-06
1.76387e-06
2.51378e-06
2.30608e-06
2.79425e-06
1.79175e-06
1.83188e-06
1.92928e-06
2.07883e-06
2.5174e-06
2.96889e-06
2.09127e-06
2.38521e-06
1.25446e-06
1.86753e-06
3.17191e-06
0.999998
0.999998
0.999998
0.999999
1
0.999998
0.999994
0.999998
1
1
0.999996
0.999996
1
1
0.999997
0.999998
0.999998
0.999994
0.999995
1
0.999998
0.999998
1
1
0.999997
0.999996
0.999994
0.999997
1
1
1
1
1
1
1
1
1
1
1
1
1
1
1
1
1
1
1
1
1
1
1
1
1
1
1
1
1
1
1
1
1
1
1
1
1
1
1
1
1
1
1
1
1
1
1
1
1
1
1
1
1
1
1
1
1
1
1
1
1
1
1
1
1
1
1
1
1
1
1
1
1
1
1
1
1
1
1
1
1
1
1
1
1.56239e-06
1.80725e-06
1.56874e-06
2.31303e-06
1
1
0.999997
0.999999
)
;

boundaryField
{
    top_fluid_surface
    {
        type            inletOutlet;
        inletValue      uniform 0;
        value           nonuniform List<scalar> 
64
(
2.00586e-06
1.92134e-06
1.05165e-06
1.87688e-06
0
0
0
0
1.53183e-06
1.21443e-06
0
1.42062e-06
1.77896e-06
0
1.95643e-06
1.60117e-06
1.0461e-06
1.0177e-06
1.58895e-06
1.27637e-06
1.02816e-06
0
1.04325e-06
1.27501e-06
1.39338e-06
0
0
1.75125e-06
0
0
1.55804e-06
0
0
0
0
0
0
0
1.04609e-06
1.92453e-06
0
0
0
1.71577e-06
1.48474e-06
0
0
0
0
0
1.83188e-06
1.92928e-06
0
2.5174e-06
0
0
0
1.25446e-06
1.86753e-06
0
1.56239e-06
1.80725e-06
1.56874e-06
0
)
;
    }
    bottom_fluid_surface
    {
        type            zeroGradient;
    }
    lateral_surface_1
    {
        type            zeroGradient;
    }
    lateral_surface_2
    {
        type            zeroGradient;
    }
    lateral_surface_3
    {
        type            zeroGradient;
    }
    lateral_surface_4
    {
        type            zeroGradient;
    }
}


// ************************************************************************* //
