/*--------------------------------*- C++ -*----------------------------------*\
| =========                 |                                                 |
| \\      /  F ield         | OpenFOAM: The Open Source CFD Toolbox           |
|  \\    /   O peration     | Version:  v1612+                                |
|   \\  /    A nd           | Web:      www.OpenFOAM.com                      |
|    \\/     M anipulation  |                                                 |
\*---------------------------------------------------------------------------*/
FoamFile
{
    version     2.0;
    format      ascii;
    class       volScalarField;
    location    "0.9";
    object      p;
}
// * * * * * * * * * * * * * * * * * * * * * * * * * * * * * * * * * * * * * //

dimensions      [1 -1 -2 0 0 0 0];

internalField   nonuniform List<scalar> 
320
(
14724.8
14724.8
14724.8
14724.8
4.91644
4.91577
4.91421
4.91444
4.91487
4.91342
4.91523
4.9156
4.91377
4.91492
4.91532
4.91486
4914.77
4914.77
4914.77
4914.83
4914.83
4914.81
4914.83
4914.82
4914.76
4914.77
4914.82
4914.79
14724.8
14724.8
14724.8
14724.8
14724.8
14724.8
14724.8
14724.8
14724.8
14724.8
14724.8
14724.8
24534.8
24534.8
24534.8
24534.8
24534.8
24534.8
24534.8
24534.8
24534.8
24534.8
24534.8
24534.8
24534.8
24534.8
24534.8
24534.8
4.91542
4.91549
4.91526
4.91489
4.91443
4.91386
4.91398
4.91472
4.91566
4.91474
4.91394
4.91385
4.91389
4.91573
4.91476
4.9151
4.9145
4.91519
4.91392
4.91447
4914.79
4914.84
4914.79
4914.79
4914.78
4914.78
4914.79
4914.78
4914.77
4914.81
4914.77
4914.77
4914.76
4914.83
4914.83
4914.78
4914.83
4914.83
4914.78
4914.82
14724.8
14724.8
14724.8
14724.8
14724.8
14724.8
14724.8
14724.8
14724.8
14724.8
14724.8
14724.8
14724.8
14724.8
14724.8
14724.8
14724.8
14724.8
14724.8
14724.8
24534.8
24534.8
24534.8
24534.8
24534.8
24534.8
24534.8
24534.8
24534.8
24534.8
24534.8
24534.8
24534.8
24534.8
24534.8
24534.8
24534.8
24534.8
24534.8
24534.8
34344.8
34344.8
34344.8
34344.8
34344.8
34344.8
34344.8
34344.8
34344.8
34344.8
34344.8
34344.8
34344.8
34344.8
34344.8
34344.8
34344.8
34344.8
34344.8
34344.8
34344.8
34344.8
34344.8
34344.8
34344.8
34344.8
34344.8
34344.8
34344.8
34344.8
34344.8
34344.8
34344.8
34344.8
34344.8
34344.8
4.91498
4.91492
4.91606
4.91479
4.91454
4.91431
4.91566
4.91548
4.91404
4.91382
4.9149
4.91567
4.91323
4.91268
4.91257
4.91483
4.91464
4.91395
4.91585
4.91496
4.91421
4.91696
4.91507
4.91384
4.91428
4.91417
4.91484
4.91734
4914.82
4914.82
4914.84
4914.83
4914.83
4914.83
4914.75
4914.78
4914.83
4914.83
4914.82
4914.77
4914.79
4914.82
4914.82
4914.82
4914.83
4914.8
4914.77
4914.83
4914.82
4914.79
4914.85
4914.83
4914.82
4914.76
4914.77
4914.83
14724.8
14724.8
14724.8
14724.8
14724.8
14724.8
14724.8
14724.8
14724.8
14724.8
14724.8
14724.8
14724.8
14724.8
14724.8
14724.8
14724.8
14724.8
14724.8
14724.8
14724.8
14724.8
14724.8
14724.8
14724.8
14724.8
14724.8
14724.8
24534.8
24534.8
24534.8
24534.8
24534.8
24534.8
24534.8
24534.8
24534.8
24534.8
24534.8
24534.8
24534.8
24534.8
24534.8
24534.8
24534.8
24534.8
24534.8
24534.8
24534.8
24534.8
24534.8
24534.8
24534.8
24534.8
24534.8
24534.8
34344.8
34344.8
34344.8
34344.8
34344.8
34344.8
34344.8
34344.8
34344.8
34344.8
34344.8
34344.8
34344.8
34344.8
34344.8
34344.8
34344.8
34344.8
34344.8
34344.8
34344.8
34344.8
34344.8
34344.8
34344.8
34344.8
34344.8
34344.8
4.91679
4.91583
4.91542
4.91565
4914.79
4914.79
4914.77
4914.83
)
;

boundaryField
{
    top_fluid_surface
    {
        type            calculated;
        value           nonuniform List<scalar> 
64
(
0
0
0
0
-2.93771e-10
-6.67114e-10
0
-1.67329e-10
0
0
-1.74902e-11
0
0
-3.13751e-09
0
0
0
0
0
0
0
-3.24267e-10
0
0
0
-2.51205e-09
-1.57707e-11
0
-1.51855e-09
-1.03917e-10
0
-2.257e-09
-5.53348e-10
-1.44125e-10
-6.3365e-09
-8.72883e-10
-5.29668e-10
-2.97041e-09
0
0
-1.61047e-09
-4.00031e-12
-2.82976e-09
0
0
-6.92142e-10
-8.00867e-09
-2.2221e-10
-3.79236e-09
-1.93271e-10
0
0
-8.69716e-10
0
-4.2048e-09
-1.08481e-09
-2.31784e-09
0
0
-1.27414e-09
0
0
0
-8.96822e-11
)
;
    }
    bottom_fluid_surface
    {
        type            calculated;
        value           nonuniform List<scalar> 
64
(
39249.8
39249.8
39249.8
39249.8
39249.8
39249.8
39249.8
39249.8
39249.8
39249.8
39249.8
39249.8
39249.8
39249.8
39249.8
39249.8
39249.8
39249.8
39249.8
39249.8
39249.8
39249.8
39249.8
39249.8
39249.8
39249.8
39249.8
39249.8
39249.8
39249.8
39249.8
39249.8
39249.8
39249.8
39249.8
39249.8
39249.8
39249.8
39249.8
39249.8
39249.8
39249.8
39249.8
39249.8
39249.8
39249.8
39249.8
39249.8
39249.8
39249.8
39249.8
39249.8
39249.8
39249.8
39249.8
39249.8
39249.8
39249.8
39249.8
39249.8
39249.8
39249.8
39249.8
39249.8
)
;
    }
    lateral_surface_1
    {
        type            calculated;
        value           nonuniform List<scalar> 
40
(
4.91498
4.91492
4.91606
4.91479
4.91454
4.91431
4.91566
4.91734
4914.82
4914.82
4914.84
4914.83
4914.83
4914.83
4914.75
4914.83
14724.8
14724.8
14724.8
14724.8
14724.8
14724.8
14724.8
14724.8
24534.8
24534.8
24534.8
24534.8
24534.8
24534.8
24534.8
24534.8
34344.8
34344.8
34344.8
34344.8
34344.8
34344.8
34344.8
34344.8
)
;
    }
    lateral_surface_2
    {
        type            calculated;
        value           nonuniform List<scalar> 
40
(
4.91268
4.91257
4.91483
4.91464
4.91395
4.91585
4.91496
4.91421
4914.82
4914.82
4914.82
4914.83
4914.8
4914.77
4914.83
4914.82
14724.8
14724.8
14724.8
14724.8
14724.8
14724.8
14724.8
14724.8
24534.8
24534.8
24534.8
24534.8
24534.8
24534.8
24534.8
24534.8
34344.8
34344.8
34344.8
34344.8
34344.8
34344.8
34344.8
34344.8
)
;
    }
    lateral_surface_3
    {
        type            calculated;
        value           nonuniform List<scalar> 
40
(
4.91566
4.91548
4.91404
4.91382
4.9149
4.91567
4.91323
4.91268
4914.75
4914.78
4914.83
4914.83
4914.82
4914.77
4914.79
4914.82
14724.8
14724.8
14724.8
14724.8
14724.8
14724.8
14724.8
14724.8
24534.8
24534.8
24534.8
24534.8
24534.8
24534.8
24534.8
24534.8
34344.8
34344.8
34344.8
34344.8
34344.8
34344.8
34344.8
34344.8
)
;
    }
    lateral_surface_4
    {
        type            calculated;
        value           nonuniform List<scalar> 
40
(
4.91421
4.91696
4.91507
4.91384
4.91428
4.91417
4.91484
4.91734
4914.82
4914.79
4914.85
4914.83
4914.82
4914.76
4914.77
4914.83
14724.8
14724.8
14724.8
14724.8
14724.8
14724.8
14724.8
14724.8
24534.8
24534.8
24534.8
24534.8
24534.8
24534.8
24534.8
24534.8
34344.8
34344.8
34344.8
34344.8
34344.8
34344.8
34344.8
34344.8
)
;
    }
}


// ************************************************************************* //
