/*--------------------------------*- C++ -*----------------------------------*\
| =========                 |                                                 |
| \\      /  F ield         | OpenFOAM: The Open Source CFD Toolbox           |
|  \\    /   O peration     | Version:  v1612+                                |
|   \\  /    A nd           | Web:      www.OpenFOAM.com                      |
|    \\/     M anipulation  |                                                 |
\*---------------------------------------------------------------------------*/
FoamFile
{
    version     2.0;
    format      ascii;
    class       surfaceScalarField;
    location    "0.65";
    object      alphaPhi;
}
// * * * * * * * * * * * * * * * * * * * * * * * * * * * * * * * * * * * * * //

dimensions      [0 3 -1 0 0 0 0];

internalField   nonuniform List<scalar> 
2916
(
-2.13131e-08
0.0633334
-0.0633334
-1.25283e-07
0.0633337
-0.0633335
-1.71728e-07
0.0633337
-0.0633336
-1.66553e-07
0.0633337
-0.0633336
-9.71325e-08
0.0633337
-0.0633336
0.0633336
-0.0633336
2.77154e-07
0.174446
-0.111113
6.85911e-07
0.174447
-0.111113
9.90301e-07
0.174447
-0.111113
1.01005e-06
0.174446
-0.111113
7.04287e-07
0.174446
-0.111112
0.174446
-0.111112
6.46847e-07
0.376536
-0.202091
1.24818e-06
0.376536
-0.20209
1.50916e-06
0.376536
-0.20209
1.46133e-06
0.376536
-0.202089
1.00174e-06
0.376536
-0.202089
0.376535
-0.202088
2.24412e-07
0.859699
-0.483163
4.2764e-07
0.859699
-0.483163
3.42153e-07
0.859699
-0.483163
3.33652e-07
0.859699
-0.483163
2.3021e-07
0.859698
-0.483163
0.859698
-0.483162
-5.1374e-07
0.00227876
-0.0523888
-3.17496e-07
0.00227874
-0.052389
-2.05346e-07
0.00227883
-0.0523887
-3.60725e-07
0.00227882
-0.0523885
-6.16073e-07
0.00227883
-0.0523885
0.00227892
-0.0523886
-1.40068e-07
1.07944e-05
0.00199187
-1.90741e-07
1.07919e-05
0.00199176
-2.35542e-07
1.07933e-05
0.00199185
-3.0114e-07
1.07935e-05
0.00199187
-3.16469e-07
1.07932e-05
0.00199182
1.07934e-05
0.00199158
-6.04831e-10
1.78609e-08
8.67376e-06
-2.26774e-09
1.78667e-08
8.67264e-06
-2.05511e-09
1.78612e-08
8.67241e-06
-1.21783e-09
1.78614e-08
8.672e-06
-6.29199e-10
1.78606e-08
8.67181e-06
1.78557e-08
8.67196e-06
-8.42852e-12
1.7206e-11
1.11699e-08
-5.28244e-12
1.72261e-11
1.11663e-08
-2.49889e-12
1.72135e-11
1.11614e-08
1.18264e-12
1.72046e-11
1.11597e-08
2.87257e-12
1.7204e-11
1.11599e-08
1.71963e-11
1.11599e-08
-5.42384e-15
3.43157e-15
9.90683e-12
2.0451e-14
3.40514e-15
9.89991e-12
3.13023e-14
3.39204e-15
9.89832e-12
2.71418e-14
3.3871e-15
9.89797e-12
1.69134e-14
3.38685e-15
9.89841e-12
3.38492e-15
9.89646e-12
4.24536e-17
3.26494e-16
8.08943e-16
5.73898e-17
3.25802e-16
8.08751e-16
5.42767e-17
3.2507e-16
8.10087e-16
4.06725e-17
3.24416e-16
8.11565e-16
2.24291e-17
3.23882e-16
8.1252e-16
3.23522e-16
8.12827e-16
8.19486e-21
-0
9.40073e-19
9.60719e-21
-0
9.50418e-19
8.25418e-21
-0
9.58248e-19
5.78175e-21
-0
9.64561e-19
2.97531e-21
-0
9.6912e-19
-0
9.7168e-19
0
0
0
0
0
0
0
0
0
0
0
-1.36385e-07
0.0158065
-0.0791398
-5.18944e-07
0.0158067
-0.07914
-6.93385e-07
0.0158065
-0.07914
-6.30513e-07
0.0158062
-0.0791399
-3.33198e-07
0.0158059
-0.0791397
0.0158056
-0.0791395
3.90982e-07
0.0580194
-0.153326
7.06835e-07
0.0580196
-0.153326
9.5438e-07
0.0580193
-0.153326
9.63997e-07
0.0580188
-0.153325
7.19623e-07
0.0580183
-0.153324
0.058018
-0.153323
5.56222e-07
0.149186
-0.293258
1.19327e-06
0.149186
-0.293258
1.48143e-06
0.149186
-0.293257
1.38723e-06
0.149185
-0.293256
8.21793e-07
0.149185
-0.293255
0.149185
-0.293254
-4.62241e-08
0.342815
-0.676792
3.98005e-07
0.342815
-0.676792
4.32102e-07
0.342815
-0.676791
2.67626e-07
0.342814
-0.676791
4.46029e-08
0.342814
-0.67679
0.342813
-0.67679
-4.3911e-07
-0.00197162
-1.86729e-06
-2.6743e-07
-0.00197152
-1.86707e-06
-1.21806e-07
-0.00197159
-1.867e-06
-1.05552e-07
-0.00197161
-1.86693e-06
-1.52453e-07
-0.00197156
-1.86684e-06
-0.00197132
-1.86671e-06
-9.61896e-09
-1.1354e-05
1.68086e-05
-1.84293e-08
-1.13463e-05
1.68062e-05
-1.52383e-08
-1.13411e-05
1.68061e-05
-1.34239e-08
-1.13378e-05
1.68056e-05
-8.58885e-09
-1.13346e-05
1.68047e-05
-1.13382e-05
1.68034e-05
2.52748e-11
-3.10102e-09
2.09811e-08
5.0971e-11
-3.08329e-09
2.10109e-08
5.97913e-11
-3.07786e-09
2.09867e-08
4.40542e-11
-3.0795e-09
2.0978e-08
1.24355e-11
-3.07705e-09
2.0982e-08
-3.08084e-09
2.09833e-08
1.94537e-15
-9.37609e-12
2.14836e-10
6.94519e-14
-9.39685e-12
2.14567e-10
9.30033e-14
-9.37965e-12
2.14387e-10
7.72929e-14
-9.35983e-12
2.1434e-10
3.23143e-14
-9.35101e-12
2.14311e-10
-9.35156e-12
2.14348e-10
9.03877e-17
-3.62228e-16
3.11601e-14
9.77905e-17
-3.61415e-16
3.11043e-14
8.49314e-17
-3.60724e-16
3.10727e-14
6.97302e-17
-3.60294e-16
3.10624e-14
4.21743e-17
-3.59933e-16
3.10543e-14
-3.59769e-16
3.10526e-14
3.14786e-20
-5.46662e-22
1.16911e-17
1.85906e-20
-5.52106e-22
1.17366e-17
4.51693e-21
-5.56151e-22
1.18012e-17
-4.35882e-22
-5.59444e-22
1.1853e-17
-6.57226e-22
-5.61769e-22
1.18825e-17
-5.63001e-22
1.18917e-17
-1.20291e-24
-0
-0
-2.02342e-24
-0
-0
-2.2714e-24
-0
-0
-1.96374e-24
-0
-0
-1.17605e-24
-0
-0
-0
-0
0
0
0
0
0
0
0
0
0
0
0
-4.41216e-07
-0.0542272
-0.0249122
-7.79541e-07
-0.0542274
-0.0249123
-8.6593e-07
-0.0542277
-0.0249122
-6.91087e-07
-0.0542282
-0.024912
-3.0075e-07
-0.0542285
-0.0249117
-0.0542285
-0.0249114
2.12349e-07
-0.099666
-0.107888
3.12328e-07
-0.0996664
-0.107888
3.83796e-07
-0.0996669
-0.107887
3.89951e-07
-0.0996674
-0.107886
2.74213e-07
-0.0996679
-0.107885
-0.0996677
-0.107884
3.37122e-07
-0.106857
-0.286067
6.78609e-07
-0.106858
-0.286066
6.10277e-07
-0.106858
-0.286065
2.68098e-07
-0.106858
-0.286065
-1.91246e-07
-0.106858
-0.286064
-0.106858
-0.286063
-1.36227e-07
-5.95273e-06
-0.698753
-1.81181e-07
-5.95213e-06
-0.698753
-3.58205e-07
-5.95211e-06
-0.698753
-4.33153e-07
-5.95212e-06
-0.698752
-1.09107e-07
-5.952e-06
-0.698751
-5.95129e-06
-0.698751
8.02134e-13
-7.85086e-06
2.02743e-08
1.8069e-13
-7.85004e-06
2.02739e-08
-1.52204e-14
-7.84996e-06
2.02749e-08
-1.46142e-13
-7.8499e-06
2.02766e-08
9.34573e-13
-7.84968e-06
2.02772e-08
-7.84883e-06
2.02705e-08
5.60324e-11
4.73707e-08
3.40824e-08
1.30239e-10
4.73713e-08
3.40922e-08
2.46291e-10
4.73629e-08
3.40823e-08
2.92878e-10
4.73602e-08
3.40801e-08
2.44974e-10
4.73594e-08
3.40805e-08
4.73529e-08
3.40754e-08
9.23216e-14
-2.1462e-10
-4.30391e-11
7.44621e-13
-2.14352e-10
-4.30912e-11
1.0336e-12
-2.14172e-10
-4.30006e-11
9.16598e-13
-2.14125e-10
-4.29726e-11
4.46363e-13
-2.14096e-10
-4.29833e-11
-2.14133e-10
-4.29988e-11
3.73088e-16
-3.12121e-14
2.23131e-13
5.34843e-16
-3.11566e-14
2.22726e-13
4.66669e-16
-3.11248e-14
2.22512e-13
2.71179e-16
-3.11144e-14
2.22455e-13
3.43052e-17
-3.11061e-14
2.22432e-13
-3.11044e-14
2.22453e-13
1.8772e-19
-2.79336e-20
6.82294e-17
1.27328e-19
-2.80505e-20
6.81262e-17
6.21931e-20
-2.82098e-20
6.82089e-17
2.40554e-20
-2.83355e-20
6.82709e-17
-5.31377e-21
-2.84041e-20
6.82908e-17
-2.84174e-20
6.82883e-17
-2.11695e-23
-0
-0
-4.48749e-23
-0
-0
-5.18816e-23
-0
-0
-4.40259e-23
-0
-0
-2.67838e-23
-0
-0
-0
-0
0
0
0
0
0
0
0
0
0
0
0
0
0
0
0
0
0
0
0
0
0
0
0
0
0
0
0
0
-5.04153e-07
-0.127562
0.10265
-7.59149e-07
-0.127562
0.10265
-6.63603e-07
-0.127563
0.10265
-3.38896e-07
-0.127563
0.102651
8.67587e-09
-0.127563
0.102651
-0.127562
0.102651
-3.38418e-07
-0.267709
0.0322604
-7.1002e-07
-0.26771
0.0322605
-9.89284e-07
-0.26771
0.0322609
-1.01542e-06
-0.26771
0.0322615
-7.18223e-07
-0.26771
0.0322622
-0.267709
0.0322625
-6.32669e-07
-0.386901
-0.166866
-8.60533e-07
-0.386902
-0.166866
-1.30461e-06
-0.386902
-0.166865
-1.59605e-06
-0.386902
-0.166865
-1.28396e-06
-0.386901
-0.166865
-0.386901
-0.166865
4.93258e-08
-5.48726e-08
-0.749597
3.08416e-07
-5.48681e-08
-0.749596
3.64063e-07
-5.48674e-08
-0.749596
-1.09763e-07
-5.48682e-08
-0.749596
-6.9541e-07
-5.4867e-08
-0.749595
-5.48566e-08
-0.749594
5.34568e-15
-3.51194e-08
3.90102e-10
2.1197e-14
-3.51153e-08
3.90088e-10
3.47207e-14
-3.51136e-08
3.90083e-10
4.11806e-14
-3.51127e-08
3.901e-10
3.22979e-14
-3.51108e-08
3.90104e-10
-3.51071e-08
3.9003e-10
7.34468e-13
3.50952e-10
2.03952e-10
1.36372e-12
3.5092e-10
2.03931e-10
2.42371e-12
3.50905e-10
2.03911e-10
3.46234e-12
3.50881e-10
2.03918e-10
2.69622e-12
3.50828e-10
2.03926e-10
3.5078e-10
2.03878e-10
7.85362e-17
-2.1306e-13
2.17699e-13
8.19892e-16
-2.12656e-13
2.17675e-13
1.08497e-15
-2.12446e-13
2.1761e-13
1.3462e-15
-2.12391e-13
2.17614e-13
1.55688e-15
-2.12372e-13
2.17644e-13
-2.12398e-13
2.17581e-13
4.34779e-19
-3.6489e-19
1.69024e-16
4.68866e-19
-3.6423e-19
1.68423e-16
3.51136e-19
-3.64698e-19
1.68262e-16
1.79731e-19
-3.65029e-19
1.68213e-16
9.67774e-20
-3.65078e-19
1.68192e-16
-3.64985e-19
1.68118e-16
3.09939e-24
-0
-0
-7.02898e-23
-0
-0
-1.09704e-22
-0
-0
-1.19046e-22
-0
-0
-8.71038e-23
-0
-0
-0
-0
0
0
0
0
0
0
0
0
0
0
0
0
0
0
0
0
0
0
0
0
0
0
0
0
0
0
0
0
0
0
0
0
0
0
0
0
0
0
0
0
0
0
0
0
0
0
0
0
0
0
0
0
0
0
0
0
0
0
0
0
0
0
0
0
0
0
0
0
0
0
0
0
0
0
0
0
0
0
0
0
0
0
0
0
0
0
0
0
0
0
0
0
0
0
0
0
0
0
0
0
0
0
0
0
0
0
0
0
0
0
0
0
0
0
0
0
0
0
0
0
0
0
0
0
0
0
0
0
0
0
0
0
0
0
0
0
0
0
0
0
0
0
0
0
0
0
0
0
0
0
0
0
0
0
0
0
0
0
0
0
0
0
0
0
0
0
0
0
0
0
0
0
0
0
0
0
0
0
0
0
0
0
0
0
0
0
0
0
0
0
0
0
0
0
0
0
0
0
0
0
0
0
0
0
0
0
0
0
0
0
0
0
0
0
0
0
0
0
0
0
0
0
0
0
0
0
0
0
0
0
0
0
0
0
0
0
0
0
0
0
0
0
0
0
0
0
0
0
0
0
0
0
0
0
0
0
0
0
0
0
0
0
0
0
0
0
0
0
0
0
0
0
0
0
0
0
0
0
0
0
0
0
0
0
0
0
0
0
0
0
0
0
0
0
0
0
0
0
0
0
0
0
0
0
0
0
0
0
0
0
0
0
0
0
0
0
0
0
0
0
0
0
0
0
0
0
0
0
0
0
0
0
0
0
0
0
0
0
0
0
0
0
0
0
0
0
0
0
0
0
0
0
0
0
0
0
0
0
0
0
0
0
0
0
0
0
0
0
0
0
0
0
0
0
0
0
0
0
0
0
0
0
0
0
0
0
0
0
0
0
0
0
0
0
0
0
0
0
0
0
0
0
0
0
0
0
0
0
0
0
0
0
0
0
0
0
0
0
0
0
0
0
0
0
0
0
0
0
0
0
0
0
0
0
0
0
0
0
0
0
0
0
0
0
0
0
0
0
0
0
0
0
0
0
0
0
0
0
0
0
0
0
0
0
0
0
0
0
0
0
0
0
0
0
0
0
0
0
0
0
0
0
0
0
0
0
0
0
0
0
0
0
0
0
0
0
0
0
0
0
0
0
0
0
0
0
0
0
0
0
0
0
0
0
0
0
0
0
0
0
0
0
0
0
0
0
0
0
0
0
0
0
0
0
0
0
0
0
0
0
0
0
0
0
0
0
0
0
0
0
0
0
0
0
0
0
0
0
0
0
0
0
0
0
0
0
0
0
0
0
0
0
0
0
0
0
0
0
0
0
0
0
0
0
0
0
0
0
0
0
0
0
0
0
0
0
0
0
0
0
0
0
0
0
0
0
0
0
0
0
0
0
0
0
0
0
0
0
0
0
0
0
0
0
0
0
0
0
0
0
0
0
0
0
0
0
0
0
0
0
0
0
0
0
0
0
0
0
0
0
0
0
0
0
0
0
0
0
0
0
0
0
0
0
0
0
0
0
0
0
0
0
0
0
0
0
0
0
0
0
0
0
0
0
0
0
0
0
0
0
0
0
0
0
0
0
0
0
0
0
0
0
0
0
0
0
0
0
0
0
0
0
0
0
0
0
0
0
0
0
0
0
0
0
0
0
0
0
0
0
0
0
0
0
0
0
0
0
0
0
0
0
0
0
0
0
0
0
0
0
0
0
0
0
0
0
0
0
0
0
0
0
0
0
0
0
0
0
0
0
0
0
0
0
0
0
0
0
0
0
0
0
0
0
0
0
0
0
0
0
0
0
0
0
0
0
0
0
0
0
0
0
0
0
0
0
0
0
0
0
0
0
0
0
0
0
0
0
0
0
0
0
0
0
0
0
0
0
0
0
0
0
0
0
0
0
0
-2.68437e-07
0.319646
-0.216996
-4.45555e-07
0.319646
-0.216996
-5.1092e-07
0.319646
-0.216996
-4.69832e-07
0.319646
-0.216996
-2.72407e-07
0.319647
-0.216996
0.319646
-0.216996
-1.11043e-07
0.559804
-0.240157
-2.088e-07
0.559804
-0.240157
-2.47113e-07
0.559804
-0.240157
-2.02896e-07
0.559804
-0.240157
-1.85234e-07
0.559804
-0.240157
0.559804
-0.240157
1.44719e-09
-0.312424
-1.14673e-07
-0.312424
-1.83058e-07
-0.312424
-1.75437e-07
-0.312424
-1.23719e-07
-0.312424
-0.312424
-3.98239e-07
0.290293
-0.475027
-7.31837e-07
0.290293
-0.475028
-9.22428e-07
0.290293
-0.475028
-8.08048e-07
0.290294
-0.475028
-4.78004e-07
0.290294
-0.475028
0.290294
-0.475027
-1.62458e-07
0.645841
-0.595702
-3.3797e-07
0.645841
-0.595702
-4.50851e-07
0.645841
-0.595702
-4.23433e-07
0.645841
-0.595702
-2.9259e-07
0.645841
-0.595702
0.645841
-0.595702
-2.68841e-07
-0.865964
-3.06543e-07
-0.865964
-2.6509e-07
-0.865963
-3.28397e-07
-0.865963
-8.72351e-08
-0.865964
-0.865963
-3.44096e-07
0.11449
-0.756314
-6.20253e-07
0.11449
-0.756314
-6.0581e-07
0.11449
-0.756314
-4.39919e-07
0.11449
-0.756314
-1.76539e-07
0.11449
-0.756313
0.11449
-0.756313
1.29985e-07
0.941702
-1.41637
-5.53901e-08
0.941703
-1.41637
-7.09476e-08
0.941703
-1.41637
-7.60849e-08
0.941703
-1.41637
-5.12142e-08
0.941703
-1.41637
0.941702
-1.41637
-7.0428e-10
-1.89389
2.40405e-07
-1.89389
2.76546e-07
-1.89389
2.62045e-07
-1.89389
3.29513e-07
-1.89389
-1.89389
-2.51906e-07
-0.608232
-5.85083e-10
-5.98428e-07
-0.608232
-5.85047e-10
-7.11038e-07
-0.608232
-5.85028e-10
-7.14881e-07
-0.608231
-5.8505e-10
-6.3569e-07
-0.608231
-5.85058e-10
-0.60823
-5.84944e-10
-4.16833e-08
0.446593
-6.61351e-12
-5.44602e-07
0.446593
-6.61313e-12
-4.39185e-07
0.446593
-6.61266e-12
-2.65329e-07
0.446593
-6.61297e-12
-4.54283e-07
0.446593
-6.61324e-12
0.446593
-6.61194e-12
1.56734e-07
-1.21675e-304
-4.20801e-07
-1.21675e-304
-2.67808e-07
-1.21675e-304
-4.01534e-08
-1.94679e-304
-4.36436e-07
-1.70344e-304
-2.43349e-304
-1.01687e-16
2.85271e-12
-1.99253e-10
-1.26514e-16
2.85263e-12
-1.99232e-10
-1.98913e-16
2.85254e-12
-1.99217e-10
-1.58967e-16
2.85269e-12
-1.99223e-10
-7.62679e-17
2.8528e-12
-1.99227e-10
2.85234e-12
-1.99186e-10
-7.07028e-19
-1.7429e-306
-3.76085e-12
-7.41641e-19
-1.74291e-306
-3.76055e-12
-9.23092e-19
-1.74291e-306
-3.76017e-12
-9.61604e-19
-2.78864e-306
-3.76032e-12
-6.42756e-19
-2.44005e-306
-3.76049e-12
-3.48576e-306
-3.75965e-12
-5.499e-312
-0
-1.78344e-311
-0
-2.32601e-311
-0
-1.62008e-311
-0
-3.12197e-311
-0
-0
1.04549e-15
3.76081e-12
-2.19162e-13
2.93247e-15
3.76054e-12
-2.19139e-13
5.90763e-16
3.76014e-12
-2.19073e-13
3.41158e-16
3.76029e-12
-2.19076e-13
3.20636e-15
3.76048e-12
-2.19107e-13
3.75961e-12
-2.19043e-13
-1.37915e-17
-0
-0
-3.28521e-18
-0
-0
-3.4874e-18
-0
-0
-6.07068e-18
-0
-0
7.55924e-18
-0
-0
-0
-0
0
0
0
0
0
0
0
0
0
0
0
-6.94647e-20
-0
-1.42771e-18
-1.15311e-19
-0
-1.42124e-18
-4.72761e-19
-0
-1.41966e-18
-6.92929e-19
-0
-1.41904e-18
3.10693e-21
-0
-1.41884e-18
-0
-1.41769e-18
0
0
0
0
0
0
0
0
0
0
0
0
0
0
0
0
0
0
0
0
0
0
0
0
0
0
0
0
4.40553e-23
-0
-0
2.50204e-23
-0
-0
1.68946e-23
-0
-0
1.40991e-23
-0
-0
2.49947e-23
-0
-0
-0
-0
0
0
0
0
0
0
0
0
0
0
0
0
0
0
0
0
0
0
0
0
0
0
0
0
0
0
0
0
0
0
0
0
0
0
0
0
0
0
0
0
0
0
0
0
0
0
0
0
0
0
0
0
0
0
0
0
0
0
0
0
0
0
0
0
0
0
0
0
0
0
0
0
0
0
0
0
0
0
0
0
0
0
0
0
0
0
0
0
0
0
0
0
0
0
0
0
0
0
0
0
0
0
0
0
0
0
0
0
0
0
0
0
0
0
0
0
0
0
0
0
0
0
0
0
0
0
0
0
0
0
0
0
0
0
0
0
0
0
0
0
0
0
0
0
0
0
0
0
0
0
0
0
0
0
0
0
0
0
0
0
0
0
0
0
0
0
0
0
0
0
0
0
0
0
0
0
0
0
0
0
0
0
0
0
0
0
0
0
0
0
0
0
0
0
0
0
0
0
0
0
0
0
0
0
0
0
0
0
0
0
0
0
0
0
0
0
0
0
0
0
0
0
0
0
0
0
0
0
0
0
0
0
0
0
0
0
0
0
0
0
0
0
0
0
0
0
0
0
0
0
0
0
0
0
0
0
0
0
0
0
0
0
0
0
0
0
0
0
0
0
0
0
0
0
0
0
0
0
0
0
0
0
0
0
0
0
0
0
0
0
0
0
0
0
0
0
0
0
0
0
0
0
0
0
0
0
0
0
0
0
0
0
0
0
0
0
0
0
0
0
0
0
0
0
0
0
0
0
0
0
0
0
0
0
0
0
0
0
0
0
0
0
0
0
0
0
0
0
0
0
0
0
0
0
0
0
0
0
0
0
0
0
0
0
0
0
0
0
0
0
0
0
0
0
0
0
0
0
0
0
0
0
0
0
0
0
0
0
0
0
0
0
0
0
0
0
0
0
0
0
0
0
0
0
0
0
0
0
0
0
0
0
0
0
0
0
0
0
0
0
0
0
0
0
0
0
0
0
0
0
0
0
0
0
0
0
0
0
0
0
0
0
0
0
0
0
0
0
0
0
0
0
0
0
0
0
0
0
0
0
0
0
0
0
0
0
0
0
0
0
0
0
0
0
0
0
0
0
0
0
0
0
0
0
0
0
0
0
0
0
0
0
0
0
0
0
0
0
0
0
0
0
0
0
0
0
0
0
0
0
0
0
0
0
0
0
0
0
0
0
0
0
0
0
0
0
0
0
0
0
0
0
0
0
0
0
0
0
0
0
0
0
0
0
0
0
0
0
0
0
0
0
0
0
0
0
0
0
0
0
0
0
0
0
0
0
0
0
0
0
0
0
0
0
0
0
0
0
0
0
0
0
0
0
0
0
0
0
0
0
0
0
0
0
0
0
0
0
0
0
0
0
0
0
0
0
0
0
0
0
0
0
0
0
0
0
0
0
0
0
0
0
0
0
0
0
0
0
0
0
0
0
0
0
0
0
0
0
0
0
0
0
0
0
0
0
0
0
0
0
0
0
0
0
0
0
0
0
0
0
0
0
0
0
0
0
0
0
0
0
0
0
0
0
0
0
0
0
0
0
0
0
0
0
0
0
0
0
0
0
0
0
0
0
0
0
0
0
0
0
0
0
0
0
0
0
0
0
0
0
0
0
0
0
0
0
0
0
0
0
0
0
0
0
0
0
0
0
0
0
0
0
0
0
0
0
0
0
0
0
0
0
0
0
0
0
0
0
0
0
0
0
0
0
0
0
0
0
0
0
0
0
0
0
0
0
0
0
0
0
0
0
0
0
0
0
0
0
0
0
0
0
0
0
0
0
0
0
0
0
0
0
0
0
0
0
0
0
0
0
0
0
0
0
0
0
0
0
0
0
0
0
0
0
0
0
0
0
0
0
0
0
0
0
0
0
0
0
0
0
0
0
0
0
0
0
0
0
0
0
0
0
0
0
0
0
0
0
0
0
0
0
0
0
0
0
0
0
0
0
0
0
0
0
0
0
0
0
0
0
0
0
0
0
0
0
0
0
0
0
0
0
0
0
0
0
0
0
0
0
0
0
0
0
0
0
0
0
0
0
0
0
0
0
0
0
0
0
0
0
0
0
0
0
0
0
0
0
0
0
0
0
0
0
0
0
0
0
0
0
0
0
0
0
0
0
0
0
0
0
0
0
0
0
0
0
0
0
0
0
0
0
0
0
0
0
0
0
0
0
0
0
0
0
0
0
0
0
0
0
0
0
0
0
0
0
0
0
0
0
0
0
0
0
0
0
0
0
0
0
0
0
0
0
0
0
0
0
0
0
)
;

boundaryField
{
    seabed_topleft_surface
    {
        type            calculated;
        value           uniform 0;
    }
    seabed_topright_surface
    {
        type            calculated;
        value           uniform 0;
    }
    breakwater_top_surface
    {
        type            calculated;
        value           uniform 0;
    }
    breakwater_left_surface
    {
        type            calculated;
        value           uniform 0;
    }
    breakwater_right_surface
    {
        type            calculated;
        value           uniform 0;
    }
    water_front_surface
    {
        type            calculated;
        value           uniform 0;
    }
    water_back_surface
    {
        type            calculated;
        value           uniform 0;
    }
    water_left_surface
    {
        type            calculated;
        value           uniform 0;
    }
    water_right_surface
    {
        type            calculated;
        value           uniform 0;
    }
    water_top_surface
    {
        type            calculated;
        value           nonuniform List<scalar> 
180
(
0.872231
0.872232
0.872232
0.872232
0.872232
0.872231
1.1994
1.1994
1.1994
1.1994
1.1994
1.1994
2.24316
2.24316
2.24316
2.24316
2.24316
2.24316
1.59784
1.59784
1.59784
1.59784
1.59784
1.59784
0
0
0
0
0
0
0
0
0
0
0
0
0
0
0
0
0
0
0
0
0
0
0
0
0
0
0
0
0
0
0
0
0
0
0
0
0
0
0
0
0
0
0
0
0
0
0
0
0
0
0
0
0
0
0
0
0
0
0
0
0
0
0
0
0
0
0
0
0
0
0
0
0
0
0
0
0
0
0
0
0
0
0
0
0
0
0
0
0
0
0
0
0
0
0
0
0
0
0
0
0
0
0
0
0
0
0
0
0
0
0
0
0
0
0
0
0
0
0
0
0
0
0
0
0
0
0
0
0
0
0
0
0
0
0
0
0
0
0
0
0
0
0
0
0
0
0
0
0
0
0
0
0
0
0
0
)
;
    }
}


// ************************************************************************* //
