/*--------------------------------*- C++ -*----------------------------------*\
| =========                 |                                                 |
| \\      /  F ield         | OpenFOAM: The Open Source CFD Toolbox           |
|  \\    /   O peration     | Version:  v1612+                                |
|   \\  /    A nd           | Web:      www.OpenFOAM.com                      |
|    \\/     M anipulation  |                                                 |
\*---------------------------------------------------------------------------*/
FoamFile
{
    version     2.0;
    format      ascii;
    class       volScalarField;
    location    "0.65";
    object      p;
}
// * * * * * * * * * * * * * * * * * * * * * * * * * * * * * * * * * * * * * //

dimensions      [1 -1 -2 0 0 0 0];

internalField   nonuniform List<scalar> 
1116
(
14325.1
14325.1
14325.1
14325.1
14325.1
14325.1
13483
13483
13483
13483
13483
13483
12482.3
12482.3
12482.3
12482.3
12482.3
12482.3
6253.98
6253.98
6253.98
6253.98
6253.97
6253.97
72.7593
72.7592
72.7591
72.759
72.7576
72.7606
11.5579
11.5573
11.5569
11.5566
11.5565
11.5571
16.1497
16.1499
16.1502
16.1503
16.1503
16.1502
6.64029
6.64024
6.64024
6.6404
6.64061
6.64079
1.88872
1.88878
1.88891
1.88906
1.88923
1.88937
-0.808018
-0.80785
-0.807686
-0.807643
-0.807703
-0.807784
-2.21393
-2.21408
-2.21432
-2.21463
-2.21497
-2.21524
-2.78258
-2.78242
-2.78236
-2.78238
-2.78245
-2.7825
5350.57
5350.57
5350.57
5350.57
5350.58
5350.58
5070.23
5070.23
5070.23
5070.23
5070.23
5070.23
4974.44
4974.44
4974.44
4974.44
4974.44
4974.44
1064.09
1064.08
1064.08
1064.08
1064.07
1064.07
29.0702
29.0671
29.0651
29.064
29.0644
29.0694
-2.28187
-2.28315
-2.28423
-2.28528
-2.28626
-2.28642
2.74605
2.74728
2.74887
2.74995
2.75044
2.75002
-7.9218
-7.92172
-7.92157
-7.9213
-7.92107
-7.92095
-10.865
-10.8649
-10.865
-10.8651
-10.8651
-10.865
-12.3321
-12.3323
-12.3325
-12.3327
-12.3329
-12.3329
-13.0627
-13.0632
-13.0636
-13.0639
-13.0641
-13.0642
-13.5396
-13.5398
-13.5398
-13.5399
-13.5399
-13.54
-3393.02
-3393.02
-3393.01
-3393.01
-3393.01
-3393.01
-2652.53
-2652.53
-2652.52
-2652.52
-2652.51
-2652.51
-1369.07
-1369.07
-1369.07
-1369.07
-1369.07
-1369.06
-439.617
-439.625
-439.627
-439.628
-439.628
-439.625
-94.1179
-94.1184
-94.1188
-94.1191
-94.1188
-94.1182
-33.3214
-33.3212
-33.3211
-33.3212
-33.3215
-33.322
-27.1824
-27.182
-27.1817
-27.1813
-27.1811
-27.1811
-25.0067
-25.0065
-25.0065
-25.0066
-25.0067
-25.0069
-24.4133
-24.4135
-24.4137
-24.4138
-24.414
-24.4141
-24.1313
-24.1317
-24.1321
-24.1323
-24.1323
-24.1323
-24.2101
-24.21
-24.2099
-24.2098
-24.2097
-24.2096
-24.212
-24.2119
-24.2118
-24.2116
-24.2115
-24.2115
-12751.1
-12751.1
-12751.1
-12751.1
-12751.1
-12751.1
-11023.6
-11023.6
-11023.6
-11023.6
-11023.6
-11023.6
-7589.33
-7589.33
-7589.33
-7589.33
-7589.33
-7589.33
-508.174
-508.177
-508.178
-508.178
-508.179
-508.176
-81.558
-81.5567
-81.5566
-81.5565
-81.5566
-81.5573
-54.7943
-54.7941
-54.7941
-54.794
-54.7939
-54.7939
-44.1265
-44.1265
-44.1265
-44.1265
-44.1264
-44.1263
-39.2329
-39.2329
-39.2328
-39.2329
-39.2331
-39.2333
-36.7331
-36.7332
-36.7333
-36.7336
-36.7338
-36.734
-35.565
-35.5649
-35.5647
-35.5646
-35.5645
-35.5644
-34.9031
-34.903
-34.9028
-34.9026
-34.9023
-34.9021
-34.6692
-34.669
-34.6688
-34.6686
-34.6684
-34.6683
-4.92507
-4.92506
-4.92506
-4.92506
-4.92506
-4.92506
-4.92525
-4.92525
-4.92525
-4.92525
-4.92525
-4.92525
-4.92566
-4.92565
-4.92565
-4.92566
-4.92566
-4.92566
-4.92628
-4.92628
-4.92628
-4.92628
-4.92628
-4.92629
-4.92712
-4.92712
-4.92713
-4.92713
-4.92713
-4.92713
-4.92818
-4.92819
-4.92819
-4.9282
-4.9282
-4.9282
-4.92944
-4.92946
-4.92946
-4.92946
-4.92946
-4.92946
-4.93089
-4.9309
-4.9309
-4.9309
-4.9309
-4.93089
-4.93251
-4.93252
-4.93252
-4.93252
-4.93251
-4.9325
-4.93436
-4.93436
-4.93436
-4.93435
-4.93434
-4.93433
-4.93604
-4.93604
-4.93604
-4.93603
-4.93602
-4.93601
-4.93817
-4.93817
-4.93817
-4.93816
-4.93815
-4.93814
-14.7346
-14.7346
-14.7346
-14.7346
-14.7346
-14.7346
-14.7348
-14.7348
-14.7348
-14.7348
-14.7348
-14.7348
-14.7352
-14.7352
-14.7352
-14.7352
-14.7352
-14.7352
-14.7358
-14.7358
-14.7358
-14.7358
-14.7358
-14.7358
-14.7367
-14.7367
-14.7367
-14.7367
-14.7367
-14.7367
-14.7378
-14.7378
-14.7378
-14.7378
-14.7378
-14.7378
-14.7391
-14.7392
-14.7392
-14.7392
-14.7392
-14.7392
-14.7407
-14.7407
-14.7407
-14.7407
-14.7407
-14.7406
-14.7423
-14.7423
-14.7423
-14.7423
-14.7422
-14.7422
-14.7439
-14.7439
-14.7439
-14.7439
-14.7438
-14.7438
-14.746
-14.746
-14.746
-14.746
-14.746
-14.746
-14.7491
-14.7491
-14.7491
-14.7491
-14.7491
-14.749
-24.544
-24.544
-24.544
-24.544
-24.544
-24.544
-24.5441
-24.5441
-24.5441
-24.5441
-24.5442
-24.5442
-24.5446
-24.5446
-24.5446
-24.5446
-24.5446
-24.5446
-24.5452
-24.5452
-24.5452
-24.5452
-24.5452
-24.5452
-24.5461
-24.5461
-24.5461
-24.5461
-24.5461
-24.5461
-24.5472
-24.5472
-24.5472
-24.5472
-24.5472
-24.5472
-24.5487
-24.5487
-24.5487
-24.5487
-24.5487
-24.5487
-24.5505
-24.5505
-24.5505
-24.5505
-24.5505
-24.5505
-24.553
-24.553
-24.553
-24.553
-24.5529
-24.5529
-24.5567
-24.5566
-24.5566
-24.5566
-24.5566
-24.5566
-24.5601
-24.5601
-24.5601
-24.5601
-24.5601
-24.5601
-24.5647
-24.5647
-24.5647
-24.5647
-24.5647
-24.5647
-34.3532
-34.3532
-34.3532
-34.3532
-34.3532
-34.3532
-34.3534
-34.3534
-34.3534
-34.3534
-34.3534
-34.3534
-34.3538
-34.3538
-34.3538
-34.3538
-34.3538
-34.3538
-34.3544
-34.3544
-34.3544
-34.3544
-34.3544
-34.3544
-34.3552
-34.3552
-34.3552
-34.3552
-34.3552
-34.3552
-34.3564
-34.3564
-34.3564
-34.3564
-34.3564
-34.3564
-34.3578
-34.3578
-34.3578
-34.3578
-34.3578
-34.3578
-34.3595
-34.3595
-34.3595
-34.3595
-34.3595
-34.3595
-34.361
-34.361
-34.361
-34.361
-34.361
-34.361
-34.3619
-34.3619
-34.3619
-34.3619
-34.3619
-34.3619
-34.363
-34.363
-34.363
-34.363
-34.363
-34.363
-34.3654
-34.3654
-34.3654
-34.3654
-34.3654
-34.3654
-23673.1
-23673.1
-23673.1
-23673.1
-23673.1
-23673.1
-38423.2
-38423.2
-38423.2
-38423.2
-38423.2
-38423.2
-54153.4
-54153.4
-54153.4
-54153.4
-54153.4
-54153.4
-20367.4
-20367.4
-20367.4
-20367.4
-20367.4
-20367.4
-35590.2
-35590.2
-35590.2
-35590.2
-35590.2
-35590.2
-49497.7
-49497.7
-49497.7
-49497.7
-49497.7
-49497.7
-13675.7
-13675.7
-13675.7
-13675.7
-13675.7
-13675.7
-31669.8
-31669.8
-31669.8
-31669.8
-31669.8
-31669.8
-39540
-39540
-39540
-39540
-39540
-39540
-104.7
-104.699
-104.699
-104.699
-104.699
-104.7
-227.524
-227.521
-227.522
-227.522
-227.521
-227.524
-530.441
-530.438
-530.439
-530.439
-530.437
-530.441
-80.2513
-80.2506
-80.2507
-80.2507
-80.2506
-80.2515
-83.0008
-82.9997
-83
-83
-82.9996
-83.0007
-124.248
-124.248
-124.248
-124.248
-124.247
-124.248
-70.409
-70.4089
-70.4089
-70.4089
-70.4089
-70.409
-89.0514
-89.0512
-89.0512
-89.0512
-89.0512
-89.0513
-108.769
-108.769
-108.769
-108.769
-108.769
-108.769
-56.4769
-56.4769
-56.4768
-56.4768
-56.4767
-56.4768
-65.155
-65.155
-65.1549
-65.1549
-65.1549
-65.155
-73.8064
-73.8064
-73.8064
-73.8064
-73.8064
-73.8064
-51.2286
-51.2287
-51.2286
-51.2286
-51.2286
-51.2286
-61.4317
-61.4317
-61.4317
-61.4317
-61.4317
-61.4317
-70.2901
-70.2901
-70.2901
-70.2901
-70.2901
-70.2901
-47.7351
-47.735
-47.735
-47.7351
-47.7352
-47.7353
-57.5917
-57.5917
-57.5918
-57.5918
-57.5919
-57.5919
-66.3812
-66.3812
-66.3813
-66.3813
-66.3813
-66.3813
-45.9805
-45.9805
-45.9805
-45.9806
-45.9806
-45.9806
-55.8232
-55.8233
-55.8233
-55.8234
-55.8234
-55.8234
-64.9862
-64.9862
-64.9863
-64.9863
-64.9862
-64.9862
-45.0344
-45.0344
-45.0344
-45.0343
-45.0342
-45.0341
-54.8835
-54.8835
-54.8835
-54.8834
-54.8834
-54.8833
-64.3179
-64.3179
-64.3179
-64.3179
-64.3179
-64.3178
-44.6297
-44.6296
-44.6295
-44.6294
-44.6293
-44.6292
-54.4493
-54.4492
-54.4492
-54.4491
-54.449
-54.449
-64.0324
-64.0324
-64.0323
-64.0323
-64.0323
-64.0323
-44.2181
-44.2181
-44.2181
-44.2181
-44.2181
-44.2181
-54.0055
-54.0055
-54.0055
-54.0055
-54.0054
-54.0054
-63.7872
-63.7872
-63.7872
-63.7872
-63.7871
-63.7871
-44.2437
-44.2437
-44.2437
-44.2437
-44.2436
-44.2436
-54.0257
-54.0257
-54.0256
-54.0256
-54.0256
-54.0256
-63.7964
-63.7963
-63.7963
-63.7963
-63.7963
-63.7963
-44.2791
-44.279
-44.279
-44.279
-44.2789
-44.2789
-54.0529
-54.0529
-54.0529
-54.0528
-54.0528
-54.0528
-63.8097
-63.8097
-63.8096
-63.8096
-63.8096
-63.8096
-44.3263
-44.3263
-44.3262
-44.3262
-44.3261
-44.3261
-54.0913
-54.0912
-54.0912
-54.0912
-54.0912
-54.0912
-63.8299
-63.8298
-63.8298
-63.8298
-63.8298
-63.8298
-44.3896
-44.3895
-44.3895
-44.3894
-44.3894
-44.3894
-54.1477
-54.1476
-54.1476
-54.1476
-54.1476
-54.1476
-63.8618
-63.8618
-63.8618
-63.8617
-63.8617
-63.8618
-44.445
-44.445
-44.4449
-44.4448
-44.4448
-44.4447
-54.2315
-54.2314
-54.2314
-54.2313
-54.2313
-54.2313
-63.9141
-63.914
-63.914
-63.914
-63.914
-63.914
-44.1468
-44.1468
-44.1468
-44.1468
-44.1468
-44.1468
-53.9561
-53.9561
-53.9561
-53.9561
-53.9561
-53.9561
-63.7654
-63.7654
-63.7654
-63.7654
-63.7654
-63.7654
-44.1469
-44.1469
-44.1469
-44.1469
-44.1469
-44.1469
-53.9562
-53.9562
-53.9562
-53.9562
-53.9562
-53.9562
-63.7654
-63.7654
-63.7654
-63.7654
-63.7654
-63.7654
-44.1472
-44.1472
-44.1472
-44.1472
-44.1472
-44.1473
-53.9564
-53.9564
-53.9564
-53.9564
-53.9564
-53.9564
-63.7655
-63.7655
-63.7655
-63.7655
-63.7655
-63.7655
-44.1477
-44.1477
-44.1478
-44.1478
-44.1478
-44.1478
-53.9568
-53.9568
-53.9568
-53.9568
-53.9568
-53.9568
-63.7656
-63.7656
-63.7656
-63.7656
-63.7656
-63.7656
-44.1485
-44.1485
-44.1485
-44.1485
-44.1485
-44.1485
-53.9573
-53.9573
-53.9573
-53.9573
-53.9573
-53.9573
-63.7658
-63.7658
-63.7658
-63.7658
-63.7658
-63.7658
-44.1495
-44.1496
-44.1496
-44.1496
-44.1496
-44.1495
-53.958
-53.958
-53.958
-53.958
-53.958
-53.958
-63.7661
-63.7661
-63.7661
-63.7661
-63.7661
-63.7661
-44.1511
-44.1511
-44.1511
-44.1511
-44.1511
-44.1511
-53.9591
-53.9591
-53.9591
-53.9591
-53.9591
-53.9591
-63.7666
-63.7666
-63.7666
-63.7666
-63.7666
-63.7666
-44.1535
-44.1535
-44.1535
-44.1535
-44.1535
-44.1535
-53.9608
-53.9608
-53.9608
-53.9608
-53.9608
-53.9608
-63.7673
-63.7673
-63.7673
-63.7673
-63.7673
-63.7673
-44.1576
-44.1576
-44.1576
-44.1576
-44.1575
-44.1575
-53.9634
-53.9634
-53.9634
-53.9634
-53.9634
-53.9634
-63.7685
-63.7685
-63.7685
-63.7685
-63.7685
-63.7685
-44.1647
-44.1647
-44.1647
-44.1647
-44.1648
-44.1648
-53.9673
-53.9673
-53.9673
-53.9673
-53.9673
-53.9673
-63.7703
-63.7703
-63.7703
-63.7703
-63.7703
-63.7704
-44.1772
-44.1772
-44.1772
-44.1772
-44.1772
-44.1772
-53.974
-53.974
-53.974
-53.9741
-53.9741
-53.9741
-63.7736
-63.7736
-63.7736
-63.7736
-63.7736
-63.7736
-44.194
-44.194
-44.194
-44.194
-44.194
-44.194
-53.9834
-53.9834
-53.9834
-53.9834
-53.9834
-53.9834
-63.7785
-63.7785
-63.7785
-63.7785
-63.7785
-63.7785
)
;

boundaryField
{
    seabed_topleft_surface
    {
        type            calculated;
        value           nonuniform List<scalar> 
72
(
19247
19247
19247
19247
19247
19247
18404.9
18404.9
18404.9
18404.9
18404.9
18404.9
17404.1
17404.1
17404.1
17404.1
17404.1
17404.1
11175.8
11175.8
11175.8
11175.8
11175.8
11175.8
793.342
793.342
793.342
793.342
793.34
793.342
16.5944
16.5938
16.5934
16.5931
16.593
16.5936
21.0722
21.0724
21.0727
21.0728
21.0728
21.0727
11.5621
11.5621
11.5621
11.5623
11.5625
11.5627
6.81057
6.81064
6.81076
6.81092
6.81108
6.81122
4.11384
4.11401
4.11417
4.11421
4.11415
4.11407
2.70792
2.70778
2.70753
2.70723
2.70689
2.70662
2.13927
2.13943
2.13949
2.13947
2.1394
2.13935
)
;
    }
    seabed_topright_surface
    {
        type            calculated;
        value           nonuniform List<scalar> 
72
(
-0.00321052
-0.00320465
-0.00320199
-0.00320175
-0.00320245
-0.00320322
-0.00339786
-0.00339396
-0.00339247
-0.00339336
-0.00339539
-0.00339802
-0.00380116
-0.00379869
-0.00379788
-0.00379951
-0.00380214
-0.00380509
-0.00442236
-0.00442235
-0.00442251
-0.00442488
-0.00442789
-0.00443087
-0.00526539
-0.00526902
-0.00527075
-0.00527369
-0.00527668
-0.00527914
-0.00632627
-0.00633424
-0.0063375
-0.00634041
-0.00634249
-0.00634348
-0.00758929
-0.00760097
-0.0076048
-0.00760649
-0.00760632
-0.00760461
-0.00903286
-0.00904616
-0.00904888
-0.00904788
-0.00904414
-0.00903877
-0.0106543
-0.0106665
-0.0106664
-0.0106621
-0.0106543
-0.0106453
-0.0124995
-0.0125087
-0.0125052
-0.0124976
-0.0124869
-0.0124756
-0.014181
-0.0141874
-0.0141817
-0.0141727
-0.0141611
-0.0141499
-0.016318
-0.016319
-0.0163124
-0.0163034
-0.0162931
-0.0162834
)
;
    }
    breakwater_top_surface
    {
        type            calculated;
        value           nonuniform List<scalar> 
36
(
-39.3131
-39.3131
-39.3131
-39.3131
-39.3131
-39.3131
-39.3387
-39.3387
-39.3387
-39.3387
-39.3386
-39.3386
-39.3741
-39.374
-39.374
-39.374
-39.3739
-39.3739
-39.4213
-39.4213
-39.4212
-39.4212
-39.4211
-39.4211
-39.4846
-39.4845
-39.4845
-39.4844
-39.4844
-39.4844
-39.54
-39.54
-39.5399
-39.5398
-39.5398
-39.5397
)
;
    }
    breakwater_left_surface
    {
        type            calculated;
        value           nonuniform List<scalar> 
24
(
-2.76573
-2.76557
-2.76551
-2.76553
-2.7656
-2.76565
-13.5231
-13.5232
-13.5233
-13.5234
-13.5234
-13.5235
-24.1958
-24.1957
-24.1956
-24.1955
-24.1954
-24.1953
-34.6533
-34.6532
-34.653
-34.6527
-34.6525
-34.6524
)
;
    }
    breakwater_right_surface
    {
        type            calculated;
        value           nonuniform List<scalar> 
24
(
-4.92132
-4.92132
-4.92131
-4.9213
-4.92129
-4.92128
-14.7326
-14.7326
-14.7326
-14.7326
-14.7325
-14.7325
-24.5485
-24.5485
-24.5485
-24.5485
-24.5485
-24.5485
-34.3495
-34.3495
-34.3495
-34.3495
-34.3495
-34.3495
)
;
    }
    water_front_surface
    {
        type            calculated;
        value           nonuniform List<scalar> 
186
(
14325.1
13483
12482.3
6253.98
72.7593
11.5579
16.1497
6.64029
1.88872
-0.808018
-2.21393
-2.78258
5350.57
5070.23
4974.44
1064.09
29.0702
-2.28187
2.74605
-7.9218
-10.865
-12.3321
-13.0627
-13.5396
-3393.02
-2652.53
-1369.07
-439.617
-94.1179
-33.3214
-27.1824
-25.0067
-24.4133
-24.1313
-24.2101
-24.212
-12751.1
-11023.6
-7589.33
-508.174
-81.558
-54.7943
-44.1265
-39.2329
-36.7331
-35.565
-34.9031
-34.6692
-4.92507
-4.92525
-4.92566
-4.92628
-4.92712
-4.92818
-4.92944
-4.93089
-4.93251
-4.93436
-4.93604
-4.93817
-14.7346
-14.7348
-14.7352
-14.7358
-14.7367
-14.7378
-14.7391
-14.7407
-14.7423
-14.7439
-14.746
-14.7491
-24.544
-24.5441
-24.5446
-24.5452
-24.5461
-24.5472
-24.5487
-24.5505
-24.553
-24.5567
-24.5601
-24.5647
-34.3532
-34.3534
-34.3538
-34.3544
-34.3552
-34.3564
-34.3578
-34.3595
-34.361
-34.3619
-34.363
-34.3654
-23673.1
-38423.2
-54153.4
-20367.4
-35590.2
-49497.7
-13675.7
-31669.8
-39540
-104.7
-227.524
-530.441
-80.2513
-83.0008
-124.248
-70.409
-89.0514
-108.769
-56.4769
-65.155
-73.8064
-51.2286
-61.4317
-70.2901
-47.7351
-57.5917
-66.3812
-45.9805
-55.8232
-64.9862
-45.0344
-54.8835
-64.3179
-44.6297
-54.4493
-64.0324
-44.2181
-54.0055
-63.7872
-44.2437
-54.0257
-63.7964
-44.2791
-54.0529
-63.8097
-44.3263
-54.0913
-63.8299
-44.3896
-54.1477
-63.8618
-44.445
-54.2315
-63.9141
-44.1468
-53.9561
-63.7654
-44.1469
-53.9562
-63.7654
-44.1472
-53.9564
-63.7655
-44.1477
-53.9568
-63.7656
-44.1485
-53.9573
-63.7658
-44.1495
-53.958
-63.7661
-44.1511
-53.9591
-63.7666
-44.1535
-53.9608
-63.7673
-44.1576
-53.9634
-63.7685
-44.1647
-53.9673
-63.7703
-44.1772
-53.974
-63.7736
-44.194
-53.9834
-63.7785
)
;
    }
    water_back_surface
    {
        type            calculated;
        value           nonuniform List<scalar> 
186
(
14325.1
13483
12482.3
6253.97
72.7606
11.5571
16.1502
6.64079
1.88937
-0.807784
-2.21524
-2.7825
5350.58
5070.23
4974.44
1064.07
29.0694
-2.28642
2.75002
-7.92095
-10.865
-12.3329
-13.0642
-13.54
-3393.01
-2652.51
-1369.06
-439.625
-94.1182
-33.322
-27.1811
-25.0069
-24.4141
-24.1323
-24.2096
-24.2115
-12751.1
-11023.6
-7589.33
-508.176
-81.5573
-54.7939
-44.1263
-39.2333
-36.734
-35.5644
-34.9021
-34.6683
-4.92506
-4.92525
-4.92566
-4.92629
-4.92713
-4.9282
-4.92946
-4.93089
-4.9325
-4.93433
-4.93601
-4.93814
-14.7346
-14.7348
-14.7352
-14.7358
-14.7367
-14.7378
-14.7392
-14.7406
-14.7422
-14.7438
-14.746
-14.749
-24.544
-24.5442
-24.5446
-24.5452
-24.5461
-24.5472
-24.5487
-24.5505
-24.5529
-24.5566
-24.5601
-24.5647
-34.3532
-34.3534
-34.3538
-34.3544
-34.3552
-34.3564
-34.3578
-34.3595
-34.361
-34.3619
-34.363
-34.3654
-23673.1
-38423.2
-54153.4
-20367.4
-35590.2
-49497.7
-13675.7
-31669.8
-39540
-104.7
-227.524
-530.441
-80.2515
-83.0007
-124.248
-70.409
-89.0513
-108.769
-56.4768
-65.155
-73.8064
-51.2286
-61.4317
-70.2901
-47.7353
-57.5919
-66.3813
-45.9806
-55.8234
-64.9862
-45.0341
-54.8833
-64.3178
-44.6292
-54.449
-64.0323
-44.2181
-54.0054
-63.7871
-44.2436
-54.0256
-63.7963
-44.2789
-54.0528
-63.8096
-44.3261
-54.0912
-63.8298
-44.3894
-54.1476
-63.8618
-44.4447
-54.2313
-63.914
-44.1468
-53.9561
-63.7654
-44.1469
-53.9562
-63.7654
-44.1473
-53.9564
-63.7655
-44.1478
-53.9568
-63.7656
-44.1485
-53.9573
-63.7658
-44.1495
-53.958
-63.7661
-44.1511
-53.9591
-63.7666
-44.1535
-53.9608
-63.7673
-44.1575
-53.9634
-63.7685
-44.1648
-53.9673
-63.7704
-44.1772
-53.9741
-63.7736
-44.194
-53.9834
-63.7785
)
;
    }
    water_left_surface
    {
        type            calculated;
        value           nonuniform List<scalar> 
42
(
14342
14342
14342
14342
14342
14342
5367.09
5367.09
5367.09
5367.09
5367.09
5367.09
-3376.83
-3376.83
-3376.83
-3376.82
-3376.82
-3376.82
-12735.2
-12735.2
-12735.2
-12735.2
-12735.2
-12735.2
-23673.1
-23673.1
-23673.1
-23673.1
-23673.1
-23673.1
-38423.2
-38423.2
-38423.2
-38423.2
-38423.2
-38423.2
-54153.4
-54153.4
-54153.4
-54153.4
-54153.4
-54153.4
)
;
    }
    water_right_surface
    {
        type            calculated;
        value           nonuniform List<scalar> 
42
(
-4.90821
-4.9082
-4.9082
-4.9082
-4.9082
-4.9082
-14.7181
-14.7181
-14.7181
-14.7181
-14.7181
-14.7181
-24.5278
-24.5278
-24.5278
-24.5278
-24.5278
-24.5278
-34.3373
-34.3373
-34.3373
-34.3373
-34.3373
-34.3373
-44.1468
-44.1468
-44.1468
-44.1468
-44.1468
-44.1468
-53.9561
-53.9561
-53.9561
-53.9561
-53.9561
-53.9561
-63.7654
-63.7654
-63.7654
-63.7654
-63.7654
-63.7654
)
;
    }
    water_top_surface
    {
        type            calculated;
        value           nonuniform List<scalar> 
180
(
-68670
-68670
-68670
-68670
-68670
-68670
-68669.9
-68669.9
-68669.9
-68669.9
-68669.9
-68669.9
-68039.6
-68039.6
-68039.6
-68039.6
-68039.6
-68039.6
-27876.3
-27876.3
-27876.3
-27876.3
-27876.3
-27876.3
-87.8069
-87.8069
-87.8067
-87.8065
-87.8061
-87.8044
-78.012
-78.0123
-78.0123
-78.0124
-78.0126
-78.0123
-70.2041
-70.2042
-70.2042
-70.2042
-70.2042
-70.2041
-69.2852
-69.2853
-69.2853
-69.2852
-69.2852
-69.2852
-68.8654
-68.8654
-68.8654
-68.8653
-68.8653
-68.8653
-68.7453
-68.7453
-68.7453
-68.7452
-68.7452
-68.7452
-68.7024
-68.7024
-68.7024
-68.7024
-68.7024
-68.7024
-68.6848
-68.6848
-68.6848
-68.6848
-68.6848
-68.6848
-68.6702
-68.6702
-68.6702
-68.6702
-68.6702
-68.6702
-68.6705
-68.6705
-68.6705
-68.6705
-68.6705
-68.6705
-68.6709
-68.6709
-68.6709
-68.6709
-68.6709
-68.6709
-68.6718
-68.6718
-68.6718
-68.6718
-68.6718
-68.6718
-68.6735
-68.6735
-68.6735
-68.6735
-68.6735
-68.6735
-68.6766
-68.6766
-68.6766
-68.6766
-68.6766
-68.6766
-68.67
-68.67
-68.67
-68.67
-68.67
-68.67
-68.67
-68.67
-68.67
-68.67
-68.67
-68.67
-68.67
-68.67
-68.67
-68.67
-68.67
-68.67
-68.67
-68.67
-68.67
-68.67
-68.67
-68.67
-68.67
-68.67
-68.67
-68.67
-68.67
-68.67
-68.67
-68.67
-68.67
-68.67
-68.67
-68.67
-68.67
-68.67
-68.67
-68.67
-68.67
-68.67
-68.67
-68.67
-68.67
-68.67
-68.67
-68.67
-68.67
-68.67
-68.67
-68.67
-68.67
-68.67
-68.67
-68.67
-68.67
-68.67
-68.67
-68.67
-68.67
-68.67
-68.67
-68.67
-68.67
-68.67
-68.6701
-68.6701
-68.6701
-68.6701
-68.6701
-68.6701
)
;
    }
}


// ************************************************************************* //
