/*--------------------------------*- C++ -*----------------------------------*\
| =========                 |                                                 |
| \\      /  F ield         | OpenFOAM: The Open Source CFD Toolbox           |
|  \\    /   O peration     | Version:  v1612+                                |
|   \\  /    A nd           | Web:      www.OpenFOAM.com                      |
|    \\/     M anipulation  |                                                 |
\*---------------------------------------------------------------------------*/
FoamFile
{
    version     2.0;
    format      ascii;
    class       volScalarField;
    location    "5.8";
    object      alpha.water;
}
// * * * * * * * * * * * * * * * * * * * * * * * * * * * * * * * * * * * * * //

dimensions      [0 0 0 0 0 0 0];

internalField   nonuniform List<scalar> 
320
(
1
1
1
1
1.42461e-05
1.39484e-05
1.40635e-05
1.36335e-05
1.41136e-05
1.46266e-05
1.5132e-05
1.38044e-05
1.33457e-05
1.41583e-05
1.21793e-05
1.42201e-05
0.999984
0.999987
0.999989
0.999984
0.999983
0.999983
0.999983
0.999984
0.999984
0.999983
0.999993
0.999981
1
1
1
1
1
1
1
1
1
1
1
1
1
1
1
1
1
1
1
1
1
1
1
1
1
1
1
1
1.45626e-05
1.51776e-05
1.38295e-05
1.40208e-05
1.26546e-05
1.07709e-05
1.18908e-05
1.05957e-05
1.41315e-05
1.39139e-05
1.26031e-05
1.23393e-05
1.47072e-05
1.3263e-05
1.37664e-05
1.18772e-05
1.17598e-05
1.49166e-05
1.46186e-05
1.32958e-05
0.999987
0.99998
0.999988
0.999986
0.999994
0.999995
0.999993
0.999993
0.999981
0.999989
0.999993
0.999994
0.999982
0.999993
0.999992
0.999992
0.999992
0.999985
0.999986
0.999991
1
1
1
1
1
1
1
1
1
1
1
1
1
1
1
1
1
1
1
1
1
1
1
1
1
1
1
1
1
1
1
1
1
1
1
1
1
1
1
1
1
1
1
1
1
1
1
1
1
1
1
1
1
1
1
1
1
1
1
1
1
1
1
1
1
1
1
1
1
1
1
1
1
1
1
1
1.47843e-05
1.64841e-05
1.57316e-05
1.27051e-05
1.31807e-05
1.33277e-05
1.73331e-05
1.5296e-05
1.1995e-05
1.48927e-05
1.38437e-05
1.52123e-05
1.47729e-05
1.49059e-05
1.57407e-05
1.51528e-05
1.59186e-05
1.48024e-05
1.50994e-05
1.74319e-05
1.72211e-05
1.48849e-05
1.19232e-05
1.44703e-05
1.44449e-05
1.56447e-05
1.42757e-05
1.47993e-05
0.999982
0.999984
0.999985
0.999991
0.999985
0.999984
0.999983
0.999983
0.999985
0.999978
0.999979
0.999985
0.999979
0.999986
0.999986
0.999987
0.999981
0.999983
0.999985
0.999982
0.999981
0.999986
0.999989
0.999985
0.99999
0.999988
0.999982
0.999976
1
1
1
1
1
1
1
1
1
1
1
1
1
1
1
1
1
1
1
1
1
1
1
1
1
1
1
1
1
1
1
1
1
1
1
1
1
1
1
1
1
1
1
1
1
1
1
1
1
1
1
1
1
1
1
1
1
1
1
1
1
1
1
1
1
1
1
1
1
1
1
1
1
1
1
1
1
1
1
1
1
1
1
1
1.52521e-05
1.29175e-05
1.3186e-05
1.29175e-05
0.99998
0.999984
0.999984
0.99999
)
;

boundaryField
{
    top_fluid_surface
    {
        type            inletOutlet;
        inletValue      uniform 0;
        value           nonuniform List<scalar> 
64
(
0
0
0
1.36335e-05
0
0
0
0
1.33457e-05
0
1.21793e-05
1.42201e-05
0
0
1.38295e-05
0
1.26546e-05
1.07709e-05
1.18908e-05
1.05957e-05
0
1.39139e-05
1.26031e-05
1.23393e-05
0
1.3263e-05
1.37664e-05
1.18772e-05
1.17598e-05
0
0
1.32958e-05
1.47843e-05
0
0
1.27051e-05
1.31807e-05
1.33277e-05
0
0
1.1995e-05
0
0
0
0
0
0
0
0
0
0
0
0
0
1.19232e-05
0
1.44449e-05
0
0
0
0
1.29175e-05
1.3186e-05
1.29175e-05
)
;
    }
    bottom_fluid_surface
    {
        type            zeroGradient;
    }
    lateral_surface_1
    {
        type            zeroGradient;
    }
    lateral_surface_2
    {
        type            zeroGradient;
    }
    lateral_surface_3
    {
        type            zeroGradient;
    }
    lateral_surface_4
    {
        type            zeroGradient;
    }
}


// ************************************************************************* //
