/*--------------------------------*- C++ -*----------------------------------*\
| =========                 |                                                 |
| \\      /  F ield         | OpenFOAM: The Open Source CFD Toolbox           |
|  \\    /   O peration     | Version:  v1612+                                |
|   \\  /    A nd           | Web:      www.OpenFOAM.com                      |
|    \\/     M anipulation  |                                                 |
\*---------------------------------------------------------------------------*/
FoamFile
{
    version     2.0;
    format      ascii;
    class       volScalarField;
    location    "5.8";
    object      p_rgh;
}
// * * * * * * * * * * * * * * * * * * * * * * * * * * * * * * * * * * * * * //

dimensions      [1 -1 -2 0 0 0 0];

internalField   nonuniform List<scalar> 
320
(
-9800.22
-9800.22
-9800.22
-9800.21
-0.000782888
-9.40887e-05
-0.00116442
0.000551504
-0.00161687
-0.00310433
-0.0058994
0.000264196
0.00268919
0.000111564
0.0098263
-0.00014241
-9799.89
-9799.93
-9799.94
-9799.93
-9799.88
-9799.87
-9799.87
-9799.9
-9799.94
-9799.89
-9800.04
-9799.9
-9800.2
-9800.2
-9800.21
-9800.22
-9800.22
-9800.21
-9800.21
-9800.21
-9800.21
-9800.21
-9800.2
-9800.22
-9800.21
-9800.21
-9800.21
-9800.2
-9800.21
-9800.2
-9800.2
-9800.21
-9800.21
-9800.21
-9800.21
-9800.21
-9800.21
-9800.21
-9800.2
-9800.21
-0.00111557
-0.00468688
0.00108815
-0.000554616
0.00552586
0.014597
0.00897123
0.0159652
-0.000272191
0.00146866
0.00762204
0.00909194
-0.00327568
0.00369555
0.00196935
0.0112813
0.0120277
-0.00338754
-0.0018986
0.00550842
-9799.92
-9799.85
-9799.97
-9799.91
-9800.04
-9800.08
-9800.05
-9800.07
-9799.87
-9799.98
-9800.04
-9800.05
-9799.87
-9800.03
-9800.02
-9800.04
-9800.04
-9799.89
-9799.91
-9800.01
-9800.19
-9800.21
-9800.2
-9800.21
-9800.2
-9800.2
-9800.21
-9800.21
-9800.21
-9800.2
-9800.2
-9800.19
-9800.21
-9800.19
-9800.19
-9800.2
-9800.2
-9800.2
-9800.2
-9800.2
-9800.2
-9800.21
-9800.2
-9800.2
-9800.2
-9800.2
-9800.2
-9800.21
-9800.21
-9800.2
-9800.2
-9800.2
-9800.21
-9800.2
-9800.2
-9800.2
-9800.2
-9800.2
-9800.2
-9800.21
-9800.21
-9800.21
-9800.21
-9800.2
-9800.21
-9800.2
-9800.21
-9800.21
-9800.21
-9800.21
-9800.21
-9800.21
-9800.21
-9800.21
-9800.2
-9800.21
-9800.2
-9800.21
-9800.2
-9800.21
-9800.2
-9800.2
-9800.21
-9800.21
-9800.21
-9800.2
-9800.2
-9800.2
-9800.21
-9800.2
-9800.2
-9800.2
-9800.2
-9800.2
-9800.21
-9800.21
-0.00112502
-0.00965543
-0.00721649
0.00737528
0.00320455
0.00186732
-0.0162515
-0.00626024
0.00909966
-0.00512439
0.000728081
-0.00421991
-0.00181656
-0.00324615
-0.00741043
-0.00370504
-0.00628107
-0.00139371
-0.00522807
-0.0163032
-0.0140997
-0.00212736
0.0109321
-0.000560333
-0.000342341
-0.00644306
0.000232936
-0.00244552
-9799.91
-9799.87
-9799.88
-9800.02
-9799.95
-9799.94
-9799.83
-9799.87
-9799.97
-9799.82
-9799.85
-9799.89
-9799.83
-9799.91
-9799.89
-9799.91
-9799.85
-9799.88
-9799.89
-9799.82
-9799.83
-9799.91
-9800.01
-9799.91
-9799.99
-9799.91
-9799.88
-9799.8
-9800.21
-9800.2
-9800.2
-9800.2
-9800.22
-9800.21
-9800.2
-9800.21
-9800.22
-9800.23
-9800.22
-9800.21
-9800.2
-9800.19
-9800.19
-9800.19
-9800.2
-9800.21
-9800.2
-9800.2
-9800.19
-9800.19
-9800.2
-9800.2
-9800.19
-9800.2
-9800.21
-9800.22
-9800.22
-9800.21
-9800.2
-9800.2
-9800.21
-9800.2
-9800.21
-9800.21
-9800.21
-9800.21
-9800.21
-9800.21
-9800.21
-9800.2
-9800.2
-9800.2
-9800.21
-9800.21
-9800.2
-9800.2
-9800.2
-9800.2
-9800.2
-9800.2
-9800.2
-9800.2
-9800.21
-9800.22
-9800.21
-9800.21
-9800.2
-9800.2
-9800.21
-9800.2
-9800.21
-9800.21
-9800.21
-9800.21
-9800.21
-9800.21
-9800.21
-9800.2
-9800.2
-9800.2
-9800.2
-9800.2
-9800.2
-9800.2
-9800.2
-9800.2
-9800.2
-9800.2
-9800.2
-9800.21
-9800.21
-9800.21
-0.006459
0.0042913
0.00346586
0.0045929
-9799.84
-9799.95
-9799.94
-9800
)
;

boundaryField
{
    top_fluid_surface
    {
        type            totalPressure;
        rho             rho;
        psi             none;
        gamma           1;
        p0              uniform 0;
        value           nonuniform List<scalar> 
64
(
-2.01813e-10
-3.91983e-10
-1.32319e-09
0
-6.40496e-10
-4.95404e-09
-1.30578e-08
-1.53883e-10
0
-1.30397e-10
0
0
-2.6687e-11
-2.27069e-09
0
-8.19244e-10
0
0
0
0
-4.70796e-11
0
0
0
-8.72744e-09
0
0
0
0
-2.62409e-09
-1.51974e-09
0
0
-1.10243e-08
-1.50647e-08
0
0
0
-7.40052e-08
-1.05015e-08
0
-1.26903e-08
-1.37264e-09
-2.25e-09
-2.37049e-10
-9.94502e-10
-1.51115e-08
-1.65186e-09
-6.03428e-09
-5.68618e-10
-1.17988e-08
-6.32702e-08
-4.78944e-08
-2.69042e-12
0
-3.56119e-10
0
-8.37658e-09
-1.98496e-10
-3.12638e-09
-1.45381e-08
0
0
0
)
;
    }
    bottom_fluid_surface
    {
        type            fixedFluxPressure;
        gradient        uniform 0;
        value           nonuniform List<scalar> 
64
(
-9800.21
-9800.21
-9800.21
-9800.2
-9800.21
-9800.2
-9800.21
-9800.21
-9800.21
-9800.21
-9800.21
-9800.21
-9800.21
-9800.21
-9800.2
-9800.21
-9800.2
-9800.21
-9800.2
-9800.21
-9800.2
-9800.2
-9800.21
-9800.21
-9800.21
-9800.2
-9800.2
-9800.2
-9800.21
-9800.2
-9800.2
-9800.2
-9800.2
-9800.2
-9800.21
-9800.21
-9800.21
-9800.21
-9800.2
-9800.2
-9800.21
-9800.2
-9800.21
-9800.21
-9800.21
-9800.21
-9800.21
-9800.21
-9800.21
-9800.2
-9800.2
-9800.2
-9800.2
-9800.2
-9800.2
-9800.2
-9800.2
-9800.2
-9800.2
-9800.2
-9800.2
-9800.21
-9800.21
-9800.21
)
;
    }
    lateral_surface_1
    {
        type            fixedFluxPressure;
        gradient        uniform 0;
        value           nonuniform List<scalar> 
40
(
-0.00112502
-0.00965543
-0.00721649
0.00737528
0.00320455
0.00186732
-0.0162515
-0.00244552
-9799.91
-9799.87
-9799.88
-9800.02
-9799.95
-9799.94
-9799.83
-9799.8
-9800.21
-9800.2
-9800.2
-9800.2
-9800.22
-9800.21
-9800.2
-9800.22
-9800.22
-9800.21
-9800.2
-9800.2
-9800.21
-9800.2
-9800.21
-9800.22
-9800.21
-9800.21
-9800.2
-9800.2
-9800.21
-9800.2
-9800.21
-9800.21
)
;
    }
    lateral_surface_2
    {
        type            fixedFluxPressure;
        gradient        uniform 0;
        value           nonuniform List<scalar> 
40
(
-0.00324615
-0.00741043
-0.00370504
-0.00628107
-0.00139371
-0.00522807
-0.0163032
-0.0140997
-9799.91
-9799.89
-9799.91
-9799.85
-9799.88
-9799.89
-9799.82
-9799.83
-9800.19
-9800.19
-9800.19
-9800.2
-9800.21
-9800.2
-9800.2
-9800.19
-9800.2
-9800.2
-9800.2
-9800.21
-9800.21
-9800.2
-9800.2
-9800.2
-9800.2
-9800.2
-9800.2
-9800.2
-9800.2
-9800.2
-9800.2
-9800.2
)
;
    }
    lateral_surface_3
    {
        type            fixedFluxPressure;
        gradient        uniform 0;
        value           nonuniform List<scalar> 
40
(
-0.0162515
-0.00626024
0.00909966
-0.00512439
0.000728081
-0.00421991
-0.00181656
-0.00324615
-9799.83
-9799.87
-9799.97
-9799.82
-9799.85
-9799.89
-9799.83
-9799.91
-9800.2
-9800.21
-9800.22
-9800.23
-9800.22
-9800.21
-9800.2
-9800.19
-9800.21
-9800.21
-9800.21
-9800.21
-9800.21
-9800.21
-9800.21
-9800.2
-9800.21
-9800.21
-9800.21
-9800.21
-9800.21
-9800.21
-9800.21
-9800.2
)
;
    }
    lateral_surface_4
    {
        type            fixedFluxPressure;
        gradient        uniform 0;
        value           nonuniform List<scalar> 
40
(
-0.0140997
-0.00212736
0.0109321
-0.000560333
-0.000342341
-0.00644306
0.000232936
-0.00244552
-9799.83
-9799.91
-9800.01
-9799.91
-9799.99
-9799.91
-9799.88
-9799.8
-9800.19
-9800.19
-9800.2
-9800.2
-9800.19
-9800.2
-9800.21
-9800.22
-9800.2
-9800.2
-9800.2
-9800.2
-9800.2
-9800.2
-9800.21
-9800.22
-9800.2
-9800.2
-9800.2
-9800.2
-9800.2
-9800.21
-9800.21
-9800.21
)
;
    }
}


// ************************************************************************* //
