/*--------------------------------*- C++ -*----------------------------------*\
| =========                 |                                                 |
| \\      /  F ield         | OpenFOAM: The Open Source CFD Toolbox           |
|  \\    /   O peration     | Version:  v1612+                                |
|   \\  /    A nd           | Web:      www.OpenFOAM.com                      |
|    \\/     M anipulation  |                                                 |
\*---------------------------------------------------------------------------*/
FoamFile
{
    version     2.0;
    format      ascii;
    class       volVectorField;
    location    "5.8";
    object      U;
}
// * * * * * * * * * * * * * * * * * * * * * * * * * * * * * * * * * * * * * //

dimensions      [0 1 -1 0 0 0 0];

internalField   nonuniform List<vector> 
320
(
(-3.73135e-06 -1.23299e-05 1.51646e-05)
(-5.37268e-06 -9.53723e-06 -1.91179e-05)
(-1.7555e-05 -8.33772e-06 -1.6732e-05)
(2.8683e-06 1.49784e-05 -1.8613e-05)
(0.000332681 -3.27193e-05 -2.00905e-05)
(0.000136653 -2.70203e-06 -2.79994e-05)
(0.000289948 -5.68679e-06 -5.1443e-05)
(-3.32428e-05 6.23896e-05 2.03182e-05)
(0.000199568 -1.42922e-05 -3.57909e-05)
(2.15193e-05 1.02775e-05 -9.95393e-05)
(-0.000100702 -0.000161245 -0.000161603)
(-0.000130455 -0.000226435 -1.75432e-05)
(-0.000284488 -5.56076e-05 2.17018e-06)
(-0.000179657 -0.000285306 -1.61491e-05)
(-0.00027477 0.00011297 0.000201828)
(-1.30239e-05 0.000186474 1.60306e-05)
(4.36701e-06 -5.95421e-06 3.18031e-05)
(5.68625e-06 4.30694e-06 2.48846e-05)
(2.21671e-05 1.07636e-06 2.27053e-06)
(-1.8166e-06 2.86391e-06 -1.33894e-05)
(1.35946e-05 -6.36865e-06 -3.4456e-07)
(9.0308e-06 1.41266e-05 2.76138e-05)
(-1.14646e-05 4.02922e-06 1.92155e-05)
(1.19038e-06 -1.65945e-05 -1.8924e-05)
(-2.11609e-05 1.58905e-05 3.74449e-05)
(-1.5735e-05 -2.86236e-05 3.13532e-05)
(-2.461e-05 -6.12918e-06 -2.77132e-05)
(-8.90451e-06 -3.3527e-06 1.32266e-05)
(-5.44796e-06 -3.94005e-07 2.14022e-05)
(-9.98796e-06 -5.3453e-06 2.07433e-05)
(-1.6738e-05 8.48675e-07 -5.94764e-07)
(4.51613e-07 5.26519e-07 -1.40235e-05)
(-6.22646e-06 6.07362e-06 -2.56949e-07)
(-2.12434e-06 -4.03386e-06 1.53802e-05)
(9.03735e-06 1.74508e-06 8.88516e-06)
(-4.35549e-06 9.38522e-06 -1.73687e-05)
(4.17056e-06 -1.11285e-05 2.39262e-05)
(2.92041e-06 1.56021e-05 2.17099e-05)
(9.9779e-06 2.56678e-06 -1.54148e-05)
(5.92125e-06 -1.66877e-06 1.18122e-05)
(-2.96627e-06 -7.24222e-06 4.64023e-06)
(-3.81918e-06 -5.68227e-06 -6.19559e-06)
(-9.74697e-06 -4.54529e-06 -2.80771e-06)
(1.502e-06 9.15209e-06 -7.36309e-06)
(-2.74428e-06 -1.93499e-07 6.29646e-06)
(-6.21141e-06 -3.9417e-06 7.45152e-07)
(-9.89475e-06 1.71837e-07 -1.44791e-07)
(7.00761e-08 4.71109e-07 3.58178e-07)
(-3.78057e-06 4.90978e-06 1.10809e-07)
(-1.67213e-06 -2.06637e-06 4.45859e-06)
(5.63586e-06 9.00181e-07 2.76333e-06)
(-2.53359e-06 6.42236e-06 -2.14408e-06)
(1.78355e-06 -5.98843e-06 5.85435e-06)
(1.18003e-06 8.71909e-06 4.54991e-06)
(4.802e-06 1.32042e-06 -4.57861e-06)
(2.81038e-06 -1.00882e-06 2.70319e-06)
(-0.000336401 0.000148403 -7.30575e-06)
(0.000143986 0.000252681 -6.73898e-05)
(5.74185e-05 5.89981e-05 -6.75563e-06)
(-9.80182e-06 0.000183562 -4.04782e-05)
(8.1921e-05 0.000514667 0.000125666)
(0.000376996 -2.61396e-05 0.00032991)
(5.84371e-05 4.54731e-05 0.000202735)
(0.000235551 -0.00031922 0.000379688)
(7.80171e-05 -0.000506541 -9.70356e-06)
(-6.36867e-06 -7.89411e-05 2.54135e-05)
(-0.000146163 7.41358e-05 0.000194933)
(0.000301854 1.16142e-05 0.000217227)
(0.000250561 -0.000102083 -0.000132117)
(-0.000116065 -0.000233284 9.04436e-05)
(0.000263939 -0.00059727 5.90627e-05)
(-0.000122488 -0.000291176 0.000263973)
(0.000198852 0.000182432 0.000278917)
(0.000230115 0.000301132 -7.24444e-05)
(0.000272082 -9.43379e-05 -5.51314e-05)
(0.000127901 3.54028e-05 0.000146825)
(-1.97087e-05 -1.89461e-05 -1.76836e-05)
(-7.55939e-06 3.06174e-06 1.88204e-05)
(-2.27114e-06 -1.78185e-05 1.39375e-05)
(3.79772e-06 -2.82793e-06 -1.87442e-06)
(-4.17461e-06 2.815e-05 -3.76661e-05)
(1.30472e-05 -1.30807e-06 -5.64046e-05)
(-1.03258e-05 3.95449e-06 -3.42361e-05)
(-1.20003e-05 -1.6689e-05 -7.05477e-05)
(7.64019e-06 -2.59681e-05 1.24935e-06)
(-2.35517e-06 -5.95568e-06 2.0072e-05)
(-1.64029e-05 1.98654e-05 -2.75822e-05)
(2.76002e-05 6.0029e-06 -4.45204e-05)
(1.1161e-05 -3.9319e-06 3.73098e-05)
(-2.2623e-05 -2.21373e-06 -3.14778e-05)
(3.10308e-06 -2.47664e-05 -1.43815e-05)
(-2.83344e-05 -9.70701e-06 -2.77699e-05)
(8.47169e-08 6.40986e-06 -3.96819e-05)
(7.28171e-06 1.85053e-05 -1.25909e-05)
(1.44417e-06 -1.05255e-06 4.73236e-07)
(2.4332e-05 9.9685e-07 -2.71212e-05)
(8.20058e-06 8.90731e-06 -7.4924e-06)
(-5.50703e-08 1.41271e-06 1.25816e-05)
(-6.61576e-06 8.78125e-06 1.25495e-05)
(-6.99967e-06 2.57231e-06 -5.48937e-06)
(4.01293e-06 -1.32976e-05 -2.57208e-05)
(-5.47973e-06 2.10755e-06 -2.87884e-05)
(7.97158e-06 9.7463e-07 -2.27563e-05)
(8.58659e-06 1.24039e-05 -3.70601e-05)
(8.27776e-07 1.91969e-05 8.55274e-07)
(3.10754e-06 6.09011e-06 1.76535e-05)
(1.12256e-05 -5.60225e-06 -1.77541e-05)
(-1.05516e-05 3.24174e-06 -2.43863e-05)
(-4.67928e-06 6.42245e-06 2.24736e-05)
(7.16285e-06 -1.06635e-06 -2.04788e-05)
(-7.98621e-06 1.11181e-05 -1.01276e-05)
(1.12528e-05 5.14388e-06 -1.50802e-05)
(-3.01647e-06 -2.53184e-06 -2.33795e-05)
(-7.11136e-06 -9.32997e-06 -6.99513e-06)
(3.96132e-07 -2.17152e-06 -6.54494e-07)
(-1.20048e-05 -4.87678e-06 -1.74676e-05)
(4.34124e-06 4.98565e-06 -3.45983e-06)
(-3.33592e-08 1.0532e-06 4.26729e-06)
(-4.18449e-06 5.72627e-06 -1.64474e-06)
(-4.86226e-06 2.19867e-06 2.38951e-07)
(2.7986e-06 -7.16285e-06 -7.30513e-06)
(-3.89408e-06 9.9065e-07 -1.15817e-05)
(4.09983e-06 4.32065e-07 -6.35619e-06)
(4.85292e-06 7.40996e-06 -1.19728e-05)
(-3.45231e-07 1.13647e-05 9.34447e-07)
(1.48473e-06 4.03485e-06 1.15931e-06)
(6.68407e-06 -2.94549e-06 -4.23115e-06)
(-6.98691e-06 1.64531e-06 -7.73773e-06)
(-2.85812e-06 4.38343e-06 3.87609e-06)
(4.29073e-06 -5.66633e-07 -5.22945e-06)
(-4.63821e-06 6.95056e-06 -2.27466e-06)
(7.07734e-06 3.31172e-06 -4.93379e-06)
(-1.81165e-06 -1.52685e-06 -5.57754e-06)
(-4.45373e-06 -5.61202e-06 -2.7688e-06)
(-4.27242e-08 -6.54271e-07 7.52641e-07)
(-6.689e-06 -2.21252e-06 -2.41365e-06)
(-2.35682e-06 -3.47265e-06 1.28287e-06)
(-9.36654e-07 -1.57633e-06 -1.9917e-06)
(-5.675e-06 -1.65986e-06 -1.53849e-06)
(-2.68158e-07 5.47433e-06 -1.67031e-06)
(-3.42266e-06 -5.15881e-07 2.35691e-06)
(-3.91222e-06 -4.19408e-07 2.46226e-06)
(-4.53211e-06 8.8975e-07 -1.52204e-07)
(3.50398e-07 1.71403e-07 -1.53101e-06)
(-1.93346e-06 1.53382e-06 1.03871e-07)
(-4.64474e-07 -3.89684e-07 1.54966e-06)
(2.25703e-06 1.71702e-06 1.39127e-06)
(-1.61511e-06 2.26264e-06 -1.65602e-06)
(1.35507e-06 -1.65827e-06 2.42852e-06)
(1.06189e-07 4.73259e-06 2.44537e-06)
(2.55016e-06 6.7603e-07 -1.2732e-06)
(8.72237e-07 1.38329e-07 1.70351e-06)
(1.81434e-06 2.63124e-06 -5.56506e-07)
(-1.79908e-06 -2.29586e-07 7.14284e-07)
(-2.34229e-06 2.0342e-06 1.31167e-06)
(-1.27357e-06 -3.58235e-08 -9.46806e-07)
(7.47234e-08 -3.17954e-06 -2.23269e-06)
(-2.4846e-06 1.20456e-06 -2.9545e-06)
(6.55953e-07 1.02232e-06 -2.44427e-06)
(6.72532e-07 4.65944e-06 -3.74688e-06)
(1.00688e-07 5.7893e-06 5.99172e-08)
(4.12162e-07 1.91846e-06 1.65634e-06)
(2.13883e-06 -1.5574e-06 -1.92744e-06)
(-2.92049e-06 1.34662e-06 -2.77113e-06)
(-2.2997e-06 1.71016e-06 2.33767e-06)
(9.26541e-07 7.44224e-07 -2.1246e-06)
(-2.6422e-06 3.53493e-06 -9.41761e-07)
(2.29361e-06 1.4423e-06 -2.12562e-06)
(-1.8669e-06 -4.64789e-07 -2.66884e-06)
(-2.25277e-06 -2.70662e-06 -1.05446e-06)
(-1.53907e-06 -1.25171e-06 5.90184e-09)
(-4.13535e-06 -1.23908e-06 -1.92474e-06)
(0.00011193 0.000124268 2.95519e-05)
(-0.000229433 0.000120965 -0.000148488)
(0.000423379 1.86718e-05 -0.000173578)
(0.000207326 -0.000159137 0.000190191)
(-0.000162962 -0.000130166 7.88316e-05)
(-0.000117593 -5.1998e-06 -5.0887e-06)
(-0.000566255 6.87628e-05 -0.000384721)
(-0.000494776 0.000674797 -0.000144924)
(-0.000405943 -2.83807e-05 0.000224848)
(-0.00049612 -7.71763e-05 -0.000159313)
(-0.000528681 5.74923e-06 -5.23954e-05)
(-0.000175286 -0.000230156 -6.7082e-05)
(-0.000251961 6.13535e-05 -2.17738e-05)
(-3.49018e-05 -0.00025901 -4.45983e-05)
(6.65846e-05 -0.00047652 -0.000173847)
(-6.85697e-05 -0.000331586 -5.7478e-05)
(7.52086e-05 -0.000552456 -0.000109857)
(0.000113656 -0.000106879 -3.37229e-05)
(0.000208559 -0.000416933 -0.000153615)
(0.000253991 -0.000429709 -0.000355725)
(-8.64143e-05 -0.000406944 -0.000309498)
(-6.40879e-05 -0.000609234 2.31966e-06)
(-9.98578e-05 -0.000121201 0.00027602)
(0.000105132 6.69768e-05 -2.66878e-05)
(-0.000215632 0.000186985 6.13052e-06)
(-1.01675e-05 8.18066e-05 -0.000129434)
(-3.80807e-05 -9.49748e-06 -1.99247e-05)
(-5.48692e-05 0.000107374 -7.90744e-05)
(2.8774e-05 1.20003e-05 1.56555e-05)
(-1.09714e-05 -1.99734e-06 -2.17539e-05)
(3.2392e-06 3.2636e-06 1.83978e-05)
(1.15761e-05 -1.27979e-05 -3.46121e-05)
(-2.38013e-05 -1.05847e-05 -2.60875e-05)
(-1.93511e-05 1.47989e-05 1.08271e-05)
(-2.14452e-05 4.594e-06 4.62343e-05)
(-3.16498e-05 2.95665e-05 2.3239e-05)
(-2.00302e-05 -5.07653e-06 -2.73545e-05)
(-3.5419e-05 -2.21802e-05 4.41992e-05)
(-4.61563e-05 1.15943e-05 6.31716e-05)
(-7.13915e-06 2.377e-05 1.66676e-05)
(3.57502e-06 1.69167e-05 -1.29882e-05)
(1.57313e-05 -3.13197e-06 -1.96408e-05)
(4.6873e-06 -1.5284e-05 2.89622e-05)
(-2.92922e-06 -1.01745e-05 1.37679e-06)
(1.23314e-05 -2.8758e-05 2.2806e-05)
(9.40757e-06 5.09284e-06 1.04234e-05)
(-3.26978e-07 -2.70031e-05 1.47448e-05)
(7.51737e-08 -1.72023e-05 1.85027e-05)
(5.59256e-06 -2.3975e-05 4.70894e-05)
(-1.1801e-06 -3.06242e-05 -5.05802e-06)
(-2.63368e-07 1.28717e-05 -3.46618e-05)
(2.13975e-05 6.98931e-06 3.36017e-05)
(3.18924e-07 -4.76868e-06 4.80943e-06)
(-1.87381e-06 1.37001e-05 -6.84703e-06)
(1.50692e-05 8.38387e-06 2.66038e-05)
(5.51421e-06 2.44482e-06 1.78008e-05)
(-1.32978e-05 -8.69649e-06 1.26182e-05)
(-3.66749e-07 5.80288e-07 -8.36413e-06)
(-5.32268e-06 -1.29827e-07 6.26871e-06)
(-1.11473e-05 5.84886e-06 -1.76809e-05)
(5.33965e-06 4.40277e-06 -2.12178e-05)
(9.50472e-06 -6.49029e-06 6.84556e-06)
(1.1744e-05 -1.08861e-06 2.52831e-05)
(1.71457e-05 -1.24095e-05 1.27424e-05)
(1.26326e-05 4.80759e-06 -1.69832e-05)
(1.98458e-05 1.45942e-05 1.84629e-05)
(2.62495e-05 -1.0697e-06 4.0741e-05)
(6.37387e-06 -9.51666e-06 9.01953e-06)
(-2.46172e-06 -8.87587e-06 -4.47241e-06)
(-8.58929e-06 1.10591e-06 -1.26215e-05)
(-2.44532e-06 7.23154e-06 1.70189e-05)
(7.22808e-07 6.65822e-06 2.03327e-06)
(-2.98638e-06 1.77337e-05 1.56125e-05)
(-4.66581e-08 -9.06278e-07 5.05786e-06)
(-5.24846e-07 1.31011e-05 3.33904e-06)
(-5.6474e-06 6.78077e-06 8.35889e-06)
(-7.60461e-06 1.07627e-05 2.7585e-05)
(-3.62298e-06 1.58336e-05 -3.47818e-07)
(-2.88922e-06 -6.15778e-06 -2.09283e-05)
(-1.49249e-05 -2.76122e-06 2.27292e-05)
(-3.11968e-06 5.97932e-06 6.4693e-06)
(3.8366e-07 -6.56399e-06 -6.32838e-06)
(-7.51189e-06 -4.78793e-06 1.8765e-05)
(4.72194e-07 -7.12579e-07 9.8808e-06)
(-6.70818e-06 -5.12108e-06 3.96328e-06)
(-4.55253e-07 4.26637e-07 -4.33417e-06)
(-3.48504e-06 -3.24628e-07 4.02797e-06)
(-7.35704e-06 3.87835e-06 -6.28994e-06)
(2.99429e-06 2.8479e-06 -2.7577e-06)
(6.52878e-06 -3.97816e-06 -1.52796e-06)
(6.62625e-06 -8.82471e-07 5.61307e-06)
(9.72196e-06 -8.22406e-06 4.27509e-06)
(5.565e-06 1.47301e-06 -3.27847e-06)
(1.02043e-05 9.21755e-06 7.37247e-06)
(1.43501e-05 4.64711e-07 7.78738e-06)
(3.25927e-06 -5.43418e-06 5.04989e-06)
(-2.44865e-06 -4.68719e-06 -1.3095e-06)
(-5.46261e-06 8.08947e-07 -1.65161e-06)
(-2.08697e-06 3.82294e-06 4.74626e-06)
(7.17405e-07 4.3806e-06 2.5975e-07)
(-1.69296e-06 9.78944e-06 4.56183e-06)
(-3.21589e-07 -9.1315e-07 2.31542e-06)
(-7.83581e-07 7.25294e-06 3.85881e-06)
(-3.33163e-06 4.16105e-06 2.43914e-06)
(-3.83476e-06 5.94632e-06 7.97246e-06)
(-2.04952e-06 9.84226e-06 2.80662e-07)
(-9.43133e-07 -3.16205e-06 -3.17397e-06)
(-8.52303e-06 -2.81167e-06 5.55893e-06)
(-2.22791e-06 3.08925e-06 -4.18581e-07)
(1.78091e-07 -3.24412e-06 3.36318e-07)
(-4.81782e-06 -1.68002e-06 4.055e-06)
(7.10555e-07 4.07267e-07 4.40341e-06)
(-4.80622e-06 -2.31573e-06 8.37652e-07)
(-1.3726e-07 1.31594e-07 -1.03548e-06)
(-2.82562e-06 -3.64145e-07 7.56536e-07)
(-4.10599e-06 1.15813e-06 -1.37284e-06)
(6.81629e-07 1.39957e-06 -2.38644e-06)
(1.03081e-06 -7.97081e-07 9.61318e-07)
(4.50442e-06 4.43462e-07 3.01182e-06)
(5.74496e-06 -3.55121e-06 1.78729e-06)
(4.13274e-06 1.47097e-06 -1.64585e-06)
(6.01138e-06 3.32848e-06 1.6867e-06)
(6.43888e-06 9.78542e-07 4.12134e-06)
(2.33048e-06 -6.50022e-07 9.68487e-07)
(-4.22561e-10 -2.17859e-06 -7.83456e-07)
(-1.76655e-06 1.58715e-06 -1.46568e-06)
(-5.20517e-07 3.3533e-06 2.04866e-06)
(1.07346e-07 2.51984e-06 8.02231e-08)
(-1.01051e-06 5.38476e-06 1.62987e-06)
(-1.0127e-06 6.09879e-07 8.23037e-07)
(-4.697e-07 4.09777e-06 1.04841e-06)
(-1.51784e-06 2.0061e-06 1.20117e-06)
(-2.18898e-06 2.97339e-06 2.85946e-06)
(-1.22169e-06 4.55565e-06 -7.72718e-08)
(-1.16826e-06 -8.82997e-07 -2.3377e-06)
(-3.54696e-06 1.86251e-07 2.21305e-06)
(-5.17218e-07 1.00385e-06 5.23225e-07)
(1.63499e-07 -1.74427e-06 -4.69602e-08)
(-1.0098e-06 -6.35938e-07 1.87712e-06)
(7.66636e-07 -5.3931e-07 1.00925e-06)
(-4.55145e-05 0.00013416 -0.000170517)
(8.44046e-05 0.000135868 0.000114537)
(0.000355758 0.000171097 6.32536e-05)
(6.38403e-05 -0.000373869 8.75169e-05)
(1.00254e-07 1.1673e-05 3.25427e-05)
(4.75952e-06 1.25301e-05 -3.28878e-05)
(2.30287e-05 9.85763e-06 -2.21978e-05)
(-3.12196e-06 -2.75327e-05 -3.18413e-05)
)
;

boundaryField
{
    top_fluid_surface
    {
        type            pressureInletOutletVelocity;
        value           nonuniform List<vector> 
64
(
(0 0 -2.00905e-05)
(0 0 -2.79994e-05)
(0 0 -5.1443e-05)
(-3.32428e-05 6.23896e-05 2.03182e-05)
(0 0 -3.57909e-05)
(0 0 -9.95393e-05)
(0 0 -0.000161603)
(0 0 -1.75432e-05)
(-0.000284488 -5.56076e-05 2.17018e-06)
(0 0 -1.61491e-05)
(-0.00027477 0.00011297 0.000201828)
(-1.30239e-05 0.000186474 1.60306e-05)
(0 0 -7.30575e-06)
(0 0 -6.73898e-05)
(5.74185e-05 5.89981e-05 -6.75563e-06)
(0 0 -4.04782e-05)
(8.1921e-05 0.000514667 0.000125666)
(0.000376996 -2.61396e-05 0.00032991)
(5.84371e-05 4.54731e-05 0.000202735)
(0.000235551 -0.00031922 0.000379688)
(0 0 -9.70356e-06)
(-6.36867e-06 -7.89411e-05 2.54135e-05)
(-0.000146163 7.41358e-05 0.000194933)
(0.000301854 1.16142e-05 0.000217227)
(0 0 -0.000132117)
(-0.000116065 -0.000233284 9.04436e-05)
(0.000263939 -0.00059727 5.90627e-05)
(-0.000122488 -0.000291176 0.000263973)
(0.000198852 0.000182432 0.000278917)
(0 0 -7.24444e-05)
(0 0 -5.51314e-05)
(0.000127901 3.54028e-05 0.000146825)
(0.00011193 0.000124268 2.95519e-05)
(0 0 -0.000148488)
(0 0 -0.000173578)
(0.000207326 -0.000159137 0.000190191)
(-0.000162962 -0.000130166 7.88316e-05)
(-0.000117593 -5.1998e-06 -5.0887e-06)
(0 0 -0.000384721)
(0 0 -0.000144924)
(-0.000405943 -2.83807e-05 0.000224848)
(0 0 -0.000159313)
(0 0 -5.23954e-05)
(0 0 -6.7082e-05)
(0 0 -2.17738e-05)
(0 0 -4.45983e-05)
(0 0 -0.000173847)
(0 0 -5.7478e-05)
(0 0 -0.000109857)
(0 0 -3.37229e-05)
(0 0 -0.000153615)
(0 0 -0.000355725)
(0 0 -0.000309498)
(0 0 2.31966e-06)
(-9.98578e-05 -0.000121201 0.00027602)
(0 0 -2.66878e-05)
(-0.000215632 0.000186985 6.13052e-06)
(0 0 -0.000129434)
(0 0 -1.99247e-05)
(0 0 -7.90744e-05)
(0 0 -0.000170517)
(8.44046e-05 0.000135868 0.000114537)
(0.000355758 0.000171097 6.32536e-05)
(6.38403e-05 -0.000373869 8.75169e-05)
)
;
    }
    bottom_fluid_surface
    {
        type            noSlip;
    }
    lateral_surface_1
    {
        type            noSlip;
    }
    lateral_surface_2
    {
        type            noSlip;
    }
    lateral_surface_3
    {
        type            noSlip;
    }
    lateral_surface_4
    {
        type            noSlip;
    }
}


// ************************************************************************* //
