/*--------------------------------*- C++ -*----------------------------------*\
| =========                 |                                                 |
| \\      /  F ield         | OpenFOAM: The Open Source CFD Toolbox           |
|  \\    /   O peration     | Version:  v1612+                                |
|   \\  /    A nd           | Web:      www.OpenFOAM.com                      |
|    \\/     M anipulation  |                                                 |
\*---------------------------------------------------------------------------*/
FoamFile
{
    version     2.0;
    format      ascii;
    class       volScalarField;
    location    "0.75";
    object      alpha.water;
}
// * * * * * * * * * * * * * * * * * * * * * * * * * * * * * * * * * * * * * //

dimensions      [0 0 0 0 0 0 0];

internalField   nonuniform List<scalar> 
320
(
1
1
1
1
9.31225e-07
9.6045e-07
1.13309e-06
1.71651e-06
1.76337e-06
1.17634e-06
1.85351e-06
1.30532e-06
2.13589e-06
9.2441e-07
1.41325e-06
1.3593e-06
0.999995
0.999996
0.999998
1
0.999998
0.999998
1
0.999997
0.999996
0.999999
0.999997
1
1
1
1
1
1
1
1
1
1
1
1
1
1
1
1
1
1
1
1
1
1
1
1
1
1
1
1
1
1.32978e-06
2.89082e-06
1.46486e-06
1.41687e-06
9.0648e-07
1.1605e-06
1.57188e-06
1.05522e-06
8.17264e-07
1.20128e-06
1.02659e-06
1.64965e-06
1.25992e-06
1.68902e-06
1.56915e-06
1.92576e-06
1.58046e-06
2.0683e-06
1.85172e-06
2.70624e-06
1
0.999999
1
1
0.999999
0.999999
1
1
0.999999
0.999996
0.999999
0.999998
0.999995
0.999998
1
0.999998
1
1
0.999999
0.999998
1
1
1
1
1
1
1
1
1
1
1
1
1
1
1
1
1
1
1
1
1
1
1
1
1
1
1
1
1
1
1
1
1
1
1
1
1
1
1
1
1
1
1
1
1
1
1
1
1
1
1
1
1
1
1
1
1
1
1
1
1
1
1
1
1
1
1
1
1
1
1
1
1
1
1
1
2.45788e-06
1.33306e-06
1.56184e-06
1.5071e-06
1.93962e-06
1.62272e-06
9.70814e-07
1.14496e-06
2.13623e-06
1.74187e-06
1.2411e-06
8.83234e-07
1.56781e-06
1.91441e-06
2.86123e-06
1.31867e-06
2.91517e-06
1.24667e-06
1.2603e-06
2.02397e-06
2.31737e-06
1.20006e-06
2.29085e-06
2.10675e-06
2.71234e-06
1.07001e-06
2.07947e-06
1.98522e-06
0.999998
1
1
1
1
0.999998
0.999996
0.999997
1
1
0.999998
0.999996
1
1
0.999998
0.999998
0.999999
0.999996
0.999995
1
0.999999
0.999997
1
1
0.999998
0.999996
0.999995
0.999996
1
1
1
1
1
1
1
1
1
1
1
1
1
1
1
1
1
1
1
1
1
1
1
1
1
1
1
1
1
1
1
1
1
1
1
1
1
1
1
1
1
1
1
1
1
1
1
1
1
1
1
1
1
1
1
1
1
1
1
1
1
1
1
1
1
1
1
1
1
1
1
1
1
1
1
1
1
1
1
1
1
1
1
1
9.2916e-07
1.0926e-06
7.3107e-07
1.24736e-06
1
1
0.999997
0.999998
)
;

boundaryField
{
    top_fluid_surface
    {
        type            inletOutlet;
        inletValue      uniform 0;
        value           nonuniform List<scalar> 
64
(
9.31225e-07
9.6045e-07
1.13309e-06
0
0
0
0
1.30532e-06
0
9.2441e-07
1.41325e-06
1.3593e-06
1.32978e-06
0
1.46486e-06
1.41687e-06
9.0648e-07
1.1605e-06
0
1.05522e-06
8.17264e-07
1.20128e-06
1.02659e-06
0
0
1.68902e-06
1.56915e-06
0
0
0
0
0
0
0
1.56184e-06
0
0
1.62272e-06
9.70814e-07
1.14496e-06
0
0
0
8.83234e-07
0
0
0
1.31867e-06
0
0
1.2603e-06
0
0
1.20006e-06
0
0
0
1.07001e-06
0
1.98522e-06
9.2916e-07
1.0926e-06
7.3107e-07
1.24736e-06
)
;
    }
    bottom_fluid_surface
    {
        type            zeroGradient;
    }
    lateral_surface_1
    {
        type            zeroGradient;
    }
    lateral_surface_2
    {
        type            zeroGradient;
    }
    lateral_surface_3
    {
        type            zeroGradient;
    }
    lateral_surface_4
    {
        type            zeroGradient;
    }
}


// ************************************************************************* //
