/*--------------------------------*- C++ -*----------------------------------*\
| =========                 |                                                 |
| \\      /  F ield         | OpenFOAM: The Open Source CFD Toolbox           |
|  \\    /   O peration     | Version:  v1612+                                |
|   \\  /    A nd           | Web:      www.OpenFOAM.com                      |
|    \\/     M anipulation  |                                                 |
\*---------------------------------------------------------------------------*/
FoamFile
{
    version     2.0;
    format      ascii;
    class       volScalarField;
    location    "2.05";
    object      p;
}
// * * * * * * * * * * * * * * * * * * * * * * * * * * * * * * * * * * * * * //

dimensions      [1 -1 -2 0 0 0 0];

internalField   nonuniform List<scalar> 
1116
(
28628.1
28628.1
28628.1
28628.1
28628.1
28628.1
27162.1
27162.1
27162.1
27162.1
27162.1
27162.1
22851.3
22851.3
22851.3
22851.3
22851.3
22851.3
18854.3
18854.3
18854.3
18854.3
18854.3
18854.3
15795.7
15795.7
15795.7
15795.7
15795.7
15795.7
13373.1
13373.1
13373.1
13373.1
13373.1
13373
11145
11145
11145
11144.9
11144.9
11144.9
9086.08
9086.08
9086.05
9086.03
9086.02
9086
8299.32
8299.3
8299.25
8299.21
8299.18
8299.15
10950.5
10950.4
10950.4
10950.3
10950.3
10950.3
17425.7
17425.7
17425.7
17425.7
17425.7
17425.8
27742.2
27742.3
27742.3
27742.3
27742.5
27742.4
18112.9
18112.9
18112.9
18112.9
18112.9
18112.9
15325.9
15325.9
15325.9
15325.9
15325.9
15325.8
10821.2
10821.2
10821.2
10821.2
10821.2
10821.2
7192.58
7192.57
7192.57
7192.57
7192.57
7192.57
4361.96
4361.91
4361.91
4361.91
4361.9
4361.92
3229.3
3229.27
3229.26
3229.25
3229.23
3229.23
2185.38
2185.34
2185.33
2185.32
2185.31
2185.29
1190.5
1190.46
1190.45
1190.44
1190.43
1190.41
399.736
399.72
399.703
399.693
399.696
399.69
559.498
559.492
559.467
559.456
559.464
559.467
2527.51
2527.52
2527.45
2527.43
2527.58
2527.39
14698.4
14698.4
14698.3
14698.3
14698.3
14698.4
8365.93
8365.96
8365.95
8365.94
8365.93
8365.93
2717.26
2717.25
2717.21
2717.28
2717.29
2717.06
1311.4
1311.37
1311.38
1311.39
1311.4
1311.41
578.192
578.171
578.176
578.183
578.185
578.194
-19.5186
-19.5243
-19.524
-19.5225
-19.5223
-19.5222
-65.9125
-65.9124
-65.9118
-65.9113
-65.911
-65.911
-59.0687
-59.0654
-59.0628
-59.0609
-59.0601
-59.0591
-29.8544
-29.8523
-29.8501
-29.8486
-29.8479
-29.8462
16.0696
16.0675
16.0658
16.0634
16.0616
16.0619
111.382
111.372
111.361
111.353
111.349
111.345
387.295
387.287
387.242
387.219
387.224
387.251
2219.24
2219.45
2219.27
2219.36
2219.34
2219.5
1591.55
1591.56
1591.51
1591.57
1591.57
1591.33
-41.612
-41.6103
-41.6046
-41.6052
-41.5967
-41.5709
-70.6612
-70.6599
-70.6579
-70.6554
-70.6508
-70.6445
-44.2228
-44.2227
-44.222
-44.2207
-44.2188
-44.2171
-28.2067
-28.207
-28.2067
-28.206
-28.2053
-28.2049
-27.2643
-27.2644
-27.2643
-27.264
-27.2639
-27.2641
-35.1069
-35.1065
-35.1058
-35.105
-35.1047
-35.1047
-34.0009
-34.0002
-33.9994
-33.9985
-33.998
-33.9966
-24.872
-24.8728
-24.8708
-24.8715
-24.872
-24.8736
30.8627
30.8593
30.8605
30.8606
30.8615
30.8538
6.03761
6.04264
6.03632
6.03094
6.04482
6.04613
499.868
499.796
499.798
499.842
499.94
499.596
-4.98285
-4.98286
-4.98287
-4.98287
-4.98287
-4.98287
-4.98564
-4.98565
-4.98565
-4.98565
-4.98564
-4.98564
-4.99132
-4.99131
-4.99131
-4.99131
-4.9913
-4.9913
-5.00012
-5.00011
-5.0001
-5.0001
-5.0001
-5.00009
-5.01242
-5.01241
-5.01241
-5.0124
-5.0124
-5.0124
-5.02877
-5.02876
-5.02875
-5.02875
-5.02875
-5.02875
-5.05021
-5.0502
-5.0502
-5.05019
-5.05018
-5.05017
-5.07826
-5.07826
-5.07824
-5.07821
-5.07818
-5.07816
-5.11224
-5.11222
-5.11218
-5.11213
-5.11208
-5.11204
-5.15326
-5.15324
-5.15319
-5.15313
-5.15307
-5.15303
-5.19126
-5.19125
-5.19121
-5.19117
-5.19113
-5.19111
-5.23706
-5.23709
-5.2371
-5.2371
-5.2371
-5.23709
-14.7897
-14.7898
-14.7898
-14.7898
-14.7898
-14.7898
-14.7926
-14.7926
-14.7926
-14.7926
-14.7926
-14.7926
-14.7983
-14.7983
-14.7983
-14.7983
-14.7983
-14.7983
-14.8073
-14.8073
-14.8073
-14.8073
-14.8073
-14.8073
-14.8199
-14.8199
-14.8199
-14.8199
-14.8199
-14.8199
-14.836
-14.836
-14.836
-14.836
-14.836
-14.836
-14.8544
-14.8544
-14.8544
-14.8544
-14.8544
-14.8544
-14.8736
-14.8736
-14.8736
-14.8736
-14.8735
-14.8735
-14.895
-14.895
-14.895
-14.8949
-14.8949
-14.8949
-14.9215
-14.9215
-14.9215
-14.9214
-14.9214
-14.9215
-14.9534
-14.9534
-14.9535
-14.9535
-14.9535
-14.9536
-15.0081
-15.0081
-15.0082
-15.0082
-15.0082
-15.0082
-24.5939
-24.5939
-24.5939
-24.5939
-24.5939
-24.5939
-24.5966
-24.5966
-24.5966
-24.5966
-24.5966
-24.5966
-24.6023
-24.6023
-24.6023
-24.6023
-24.6022
-24.6022
-24.6112
-24.6112
-24.6112
-24.6112
-24.6112
-24.6112
-24.6242
-24.6241
-24.6241
-24.6241
-24.6241
-24.6241
-24.6424
-24.6424
-24.6424
-24.6424
-24.6424
-24.6424
-24.6689
-24.6689
-24.6689
-24.6689
-24.6689
-24.6689
-24.7107
-24.7107
-24.7107
-24.7107
-24.7107
-24.7107
-24.7678
-24.7678
-24.7678
-24.7678
-24.7678
-24.7678
-24.8452
-24.8452
-24.8452
-24.8453
-24.8454
-24.8454
-24.9296
-24.9297
-24.9297
-24.9298
-24.9299
-24.93
-25.0595
-25.0596
-25.0596
-25.0596
-25.0596
-25.0595
-34.3954
-34.3954
-34.3954
-34.3954
-34.3954
-34.3954
-34.3979
-34.3979
-34.3979
-34.3979
-34.3979
-34.3979
-34.4031
-34.4031
-34.4031
-34.4031
-34.4031
-34.4031
-34.4114
-34.4114
-34.4114
-34.4114
-34.4114
-34.4114
-34.4237
-34.4237
-34.4237
-34.4237
-34.4237
-34.4237
-34.4406
-34.4406
-34.4406
-34.4406
-34.4406
-34.4406
-34.4614
-34.4614
-34.4614
-34.4614
-34.4614
-34.4614
-34.4828
-34.4828
-34.4828
-34.4828
-34.4828
-34.4828
-34.5087
-34.5088
-34.5088
-34.5089
-34.5089
-34.509
-34.5482
-34.5483
-34.5484
-34.5485
-34.5486
-34.5487
-34.5995
-34.5996
-34.5997
-34.5998
-34.5999
-34.5999
-34.7127
-34.7127
-34.7126
-34.7124
-34.7123
-34.7121
-31.3012
-31.3007
-31.3045
-31.3068
-31.3141
-31.3308
-51.2433
-51.2431
-51.244
-51.2453
-51.2473
-51.2496
-68.0078
-68.0082
-68.0086
-68.009
-68.0094
-68.0099
-55.5999
-55.5991
-55.5985
-55.5984
-55.5985
-55.5985
-55.8437
-55.8436
-55.8438
-55.844
-55.8442
-55.8445
-70.1439
-70.144
-70.1442
-70.1445
-70.1449
-70.1451
-56.5036
-56.5031
-56.5023
-56.5011
-56.4992
-56.4975
-61.2419
-61.2417
-61.2415
-61.2412
-61.2409
-61.2405
-68.3257
-68.3258
-68.3258
-68.3258
-68.3259
-68.3259
-55.1442
-55.1437
-55.1433
-55.1426
-55.1417
-55.1412
-59.5352
-59.5352
-59.535
-59.5347
-59.5344
-59.5342
-69.0641
-69.0642
-69.0642
-69.0642
-69.0643
-69.0642
-50.449
-50.449
-50.4489
-50.4488
-50.4486
-50.4487
-54.6787
-54.6787
-54.6786
-54.6784
-54.6783
-54.6782
-67.4556
-67.4556
-67.4555
-67.4555
-67.4555
-67.4555
-50.2107
-50.2108
-50.2108
-50.2107
-50.2106
-50.2107
-54.9365
-54.9367
-54.9367
-54.9366
-54.9366
-54.9366
-66.931
-66.931
-66.9309
-66.9309
-66.9308
-66.9307
-43.8768
-43.8769
-43.8769
-43.8768
-43.8766
-43.8766
-52.6333
-52.6335
-52.6335
-52.6334
-52.6332
-52.6331
-64.8875
-64.8874
-64.8873
-64.8873
-64.8872
-64.8873
-33.2933
-33.2933
-33.2933
-33.2935
-33.2935
-33.2938
-47.736
-47.7361
-47.7361
-47.7361
-47.736
-47.7359
-62.2761
-62.2759
-62.2759
-62.2759
-62.276
-62.2763
-20.2601
-20.2609
-20.2615
-20.2626
-20.2636
-20.2647
-40.6709
-40.671
-40.6713
-40.6716
-40.6728
-40.6715
-60.666
-60.6659
-60.6659
-60.6658
-60.6658
-60.666
9.17977
9.17939
9.17942
9.17794
9.17658
9.17601
-20.981
-20.9804
-20.9796
-20.9819
-20.9812
-20.9836
-55.383
-55.3826
-55.3826
-55.3825
-55.3822
-55.3835
-16.3025
-16.3001
-16.295
-16.2968
-16.2862
-16.3062
-18.0574
-18.0568
-18.0567
-18.0571
-18.0531
-18.0617
-64.6706
-64.6687
-64.6704
-64.6667
-64.6674
-64.6714
-87.0728
-87.0825
-87.0815
-87.0918
-87.0665
-87.1033
-49.8405
-49.8407
-49.8453
-49.8565
-49.8677
-49.8466
-97.8492
-97.849
-97.8551
-97.8469
-97.8607
-97.8477
-45.2332
-45.2331
-45.233
-45.2327
-45.2329
-45.2325
-56.6658
-56.6662
-56.6658
-56.6658
-56.6656
-56.6639
-61.9015
-61.9017
-61.9008
-61.9022
-61.8994
-61.904
-46.5467
-46.5461
-46.5468
-46.545
-46.5471
-46.5441
-59.707
-59.7082
-59.708
-59.7072
-59.7115
-59.6982
-60.209
-60.2091
-60.2072
-60.21
-60.1996
-60.2189
-44.9077
-44.9066
-44.9078
-44.9048
-44.9074
-44.9037
-65.1884
-65.1919
-65.1928
-65.1881
-65.2073
-65.1642
-58.995
-58.9956
-58.9928
-58.9956
-58.979
-59.0066
-53.7072
-53.7031
-53.7101
-53.7003
-53.7167
-53.6939
-67.2754
-67.2762
-67.2781
-67.2728
-67.2981
-67.2529
-67.9525
-67.9553
-67.9538
-67.9517
-67.9458
-67.9556
-36.873
-36.8716
-36.8727
-36.8666
-36.8877
-36.84
-64.5382
-64.534
-64.5498
-64.5237
-64.546
-64.5458
-79.4457
-79.4472
-79.4532
-79.4392
-79.4695
-79.3997
-80.6438
-80.646
-80.6658
-80.646
-80.7122
-80.6871
-70.1319
-70.1309
-70.1516
-70.1157
-70.1867
-70.116
-99.6891
-99.6911
-99.7023
-99.6833
-99.7355
-99.6417
-44.1789
-44.1789
-44.1789
-44.1789
-44.1788
-44.1788
-53.9762
-53.9762
-53.9762
-53.9762
-53.9762
-53.9762
-63.7724
-63.7724
-63.7724
-63.7724
-63.7724
-63.7724
-44.1809
-44.1809
-44.1809
-44.1809
-44.1809
-44.1808
-53.9775
-53.9775
-53.9775
-53.9775
-53.9775
-53.9775
-63.7729
-63.7729
-63.7729
-63.7729
-63.7729
-63.7729
-44.1851
-44.1851
-44.1851
-44.1851
-44.1851
-44.1851
-53.9802
-53.9802
-53.9802
-53.9802
-53.9802
-53.9802
-63.7738
-63.7738
-63.7738
-63.7738
-63.7738
-63.7738
-44.192
-44.192
-44.192
-44.192
-44.192
-44.192
-53.9847
-53.9847
-53.9847
-53.9847
-53.9847
-53.9847
-63.7753
-63.7753
-63.7753
-63.7753
-63.7753
-63.7753
-44.2027
-44.2027
-44.2027
-44.2027
-44.2027
-44.2027
-53.9916
-53.9916
-53.9916
-53.9916
-53.9916
-53.9917
-63.7772
-63.7772
-63.7772
-63.7772
-63.7772
-63.7772
-44.2189
-44.2189
-44.2189
-44.2189
-44.2189
-44.219
-54.0022
-54.0022
-54.0022
-54.0022
-54.0022
-54.0023
-63.7793
-63.7793
-63.7793
-63.7793
-63.7793
-63.7793
-44.2444
-44.2444
-44.2444
-44.2444
-44.2444
-44.2444
-54.0181
-54.0181
-54.0181
-54.0181
-54.0181
-54.0182
-63.7799
-63.7799
-63.7799
-63.7799
-63.7799
-63.7799
-44.2885
-44.2885
-44.2885
-44.2885
-44.2885
-44.2885
-54.0433
-54.0433
-54.0433
-54.0433
-54.0434
-54.0434
-63.7748
-63.7748
-63.7748
-63.7748
-63.7748
-63.7748
-44.3566
-44.3566
-44.3566
-44.3567
-44.3567
-44.3567
-54.0871
-54.0871
-54.0871
-54.0871
-54.0871
-54.0872
-63.7482
-63.7482
-63.7482
-63.7482
-63.7482
-63.7482
-44.4729
-44.4729
-44.4729
-44.4729
-44.473
-44.4729
-54.1768
-54.1768
-54.1768
-54.1768
-54.1768
-54.1768
-63.6761
-63.6762
-63.6762
-63.6762
-63.6762
-63.6762
-44.6475
-44.6475
-44.6475
-44.6475
-44.6474
-44.6473
-54.4235
-54.4235
-54.4235
-54.4235
-54.4234
-54.4234
-63.4325
-63.4326
-63.4325
-63.4326
-63.4325
-63.4327
-45.0421
-45.0421
-45.0421
-45.042
-45.0419
-45.0417
-55.0193
-55.0193
-55.0192
-55.0192
-55.019
-55.0187
-62.9046
-62.9047
-62.9044
-62.9048
-62.9042
-62.9051
)
;

boundaryField
{
    seabed_topleft_surface
    {
        type            calculated;
        value           nonuniform List<scalar> 
72
(
33549.4
33549.4
33549.4
33549.4
33549.4
33549.4
32083.5
32083.5
32083.5
32083.5
32083.4
32083.4
27772
27772
27772
27772
27772
27772
23773.7
23773.7
23773.7
23773.7
23773.7
23773.7
20712.7
20712.7
20712.7
20712.7
20712.7
20712.7
18285.6
18285.6
18285.6
18285.6
18285.6
18285.5
16008.8
16008.8
16008.7
16008.7
16008.7
16008.7
13775.8
13775.8
13775.7
13775.7
13775.7
13775.7
12614.8
12614.7
12614.6
12614.6
12614.6
12614.5
15274.3
15274.2
15274.1
15274.1
15274.1
15274.1
21743.5
21743.5
21743.5
21743.5
21743.5
21743.6
31873.3
31873.4
31873.3
31873.4
31873.5
31873.5
)
;
    }
    seabed_topright_surface
    {
        type            calculated;
        value           nonuniform List<scalar> 
72
(
-0.0609985
-0.0610083
-0.061011
-0.0610119
-0.061011
-0.0610099
-0.0637885
-0.0637915
-0.0637912
-0.0637896
-0.0637868
-0.063783
-0.069461
-0.069457
-0.0694539
-0.0694508
-0.0694474
-0.069444
-0.0782619
-0.0782518
-0.078247
-0.0782431
-0.0782404
-0.0782388
-0.0905673
-0.0905548
-0.0905495
-0.0905467
-0.0905458
-0.0905471
-0.106909
-0.106899
-0.106895
-0.106893
-0.106892
-0.106893
-0.128354
-0.128348
-0.128342
-0.128333
-0.128324
-0.128319
-0.156407
-0.1564
-0.15638
-0.156353
-0.156326
-0.156305
-0.190381
-0.190362
-0.190321
-0.190269
-0.19022
-0.190183
-0.231409
-0.231388
-0.231335
-0.231273
-0.231215
-0.231174
-0.269403
-0.269392
-0.269355
-0.269313
-0.269276
-0.269252
-0.315204
-0.315234
-0.315244
-0.315245
-0.315241
-0.315236
)
;
    }
    breakwater_top_surface
    {
        type            calculated;
        value           nonuniform List<scalar> 
36
(
-40.3282
-40.3281
-40.328
-40.3277
-40.3279
-40.3275
-41.6417
-41.6411
-41.6418
-41.64
-41.6421
-41.6391
-40.0027
-40.0016
-40.0028
-39.9998
-40.0024
-39.9987
-48.8022
-48.7981
-48.8051
-48.7953
-48.8117
-48.7889
-31.9042
-31.9028
-31.9041
-31.8978
-31.918
-31.8725
-34.6211
-34.6228
-34.6465
-34.6205
-34.608
-34.7594
)
;
    }
    breakwater_left_surface
    {
        type            calculated;
        value           nonuniform List<scalar> 
24
(
27756.4
27756.5
27756.4
27756.5
27756.6
27756.6
14709.7
14709.8
14709.6
14709.6
14709.6
14709.7
2227.38
2227.59
2227.41
2227.49
2227.47
2227.64
502.904
502.831
502.833
502.877
502.976
502.63
)
;
    }
    breakwater_right_surface
    {
        type            calculated;
        value           nonuniform List<scalar> 
24
(
-5.2202
-5.22023
-5.22024
-5.22025
-5.22024
-5.22024
-14.9915
-14.9916
-14.9917
-14.9917
-14.9917
-14.9917
-25.0434
-25.0434
-25.0434
-25.0434
-25.0434
-25.0433
-34.6968
-34.6968
-34.6967
-34.6965
-34.6964
-34.6962
)
;
    }
    water_front_surface
    {
        type            calculated;
        value           nonuniform List<scalar> 
186
(
28628.1
27162.1
22851.3
18854.3
15795.7
13373.1
11145
9086.08
8299.32
10950.5
17425.7
27742.2
18112.9
15325.9
10821.2
7192.58
4361.96
3229.3
2185.38
1190.5
399.736
559.498
2527.51
14698.4
8365.93
2717.26
1311.4
578.192
-19.5186
-65.9125
-59.0687
-29.8544
16.0696
111.382
387.295
2219.24
1591.55
-41.612
-70.6612
-44.2228
-28.2067
-27.2643
-35.1069
-34.0009
-24.872
30.8627
6.03761
499.868
-4.98285
-4.98564
-4.99132
-5.00012
-5.01242
-5.02877
-5.05021
-5.07826
-5.11224
-5.15326
-5.19126
-5.23706
-14.7897
-14.7926
-14.7983
-14.8073
-14.8199
-14.836
-14.8544
-14.8736
-14.895
-14.9215
-14.9534
-15.0081
-24.5939
-24.5966
-24.6023
-24.6112
-24.6242
-24.6424
-24.6689
-24.7107
-24.7678
-24.8452
-24.9296
-25.0595
-34.3954
-34.3979
-34.4031
-34.4114
-34.4237
-34.4406
-34.4614
-34.4828
-34.5087
-34.5482
-34.5995
-34.7127
-31.3012
-51.2433
-68.0078
-55.5999
-55.8437
-70.1439
-56.5036
-61.2419
-68.3257
-55.1442
-59.5352
-69.0641
-50.449
-54.6787
-67.4556
-50.2107
-54.9365
-66.931
-43.8768
-52.6333
-64.8875
-33.2933
-47.736
-62.2761
-20.2601
-40.6709
-60.666
9.17977
-20.981
-55.383
-16.3025
-18.0574
-64.6706
-87.0728
-49.8405
-97.8492
-45.2332
-56.6658
-61.9015
-46.5467
-59.707
-60.209
-44.9077
-65.1884
-58.995
-53.7072
-67.2754
-67.9525
-36.873
-64.5382
-79.4457
-80.6438
-70.1319
-99.6891
-44.1789
-53.9762
-63.7724
-44.1809
-53.9775
-63.7729
-44.1851
-53.9802
-63.7738
-44.192
-53.9847
-63.7753
-44.2027
-53.9916
-63.7772
-44.2189
-54.0022
-63.7793
-44.2444
-54.0181
-63.7799
-44.2885
-54.0433
-63.7748
-44.3566
-54.0871
-63.7482
-44.4729
-54.1768
-63.6761
-44.6475
-54.4235
-63.4325
-45.0421
-55.0193
-62.9046
)
;
    }
    water_back_surface
    {
        type            calculated;
        value           nonuniform List<scalar> 
186
(
28628.1
27162.1
22851.3
18854.3
15795.7
13373
11144.9
9086
8299.15
10950.3
17425.8
27742.4
18112.9
15325.8
10821.2
7192.57
4361.92
3229.23
2185.29
1190.41
399.69
559.467
2527.39
14698.4
8365.93
2717.06
1311.41
578.194
-19.5222
-65.911
-59.0591
-29.8462
16.0619
111.345
387.251
2219.5
1591.33
-41.5709
-70.6445
-44.2171
-28.2049
-27.2641
-35.1047
-33.9966
-24.8736
30.8538
6.04613
499.596
-4.98287
-4.98564
-4.9913
-5.00009
-5.0124
-5.02875
-5.05017
-5.07816
-5.11204
-5.15303
-5.19111
-5.23709
-14.7898
-14.7926
-14.7983
-14.8073
-14.8199
-14.836
-14.8544
-14.8735
-14.8949
-14.9215
-14.9536
-15.0082
-24.5939
-24.5966
-24.6022
-24.6112
-24.6241
-24.6424
-24.6689
-24.7107
-24.7678
-24.8454
-24.93
-25.0595
-34.3954
-34.3979
-34.4031
-34.4114
-34.4237
-34.4406
-34.4614
-34.4828
-34.509
-34.5487
-34.5999
-34.7121
-31.3308
-51.2496
-68.0099
-55.5985
-55.8445
-70.1451
-56.4975
-61.2405
-68.3259
-55.1412
-59.5342
-69.0642
-50.4487
-54.6782
-67.4555
-50.2107
-54.9366
-66.9307
-43.8766
-52.6331
-64.8873
-33.2938
-47.7359
-62.2763
-20.2647
-40.6715
-60.666
9.17601
-20.9836
-55.3835
-16.3062
-18.0617
-64.6714
-87.1033
-49.8466
-97.8477
-45.2325
-56.6639
-61.904
-46.5441
-59.6982
-60.2189
-44.9037
-65.1642
-59.0066
-53.6939
-67.2529
-67.9556
-36.84
-64.5458
-79.3997
-80.6871
-70.116
-99.6417
-44.1788
-53.9762
-63.7724
-44.1808
-53.9775
-63.7729
-44.1851
-53.9802
-63.7738
-44.192
-53.9847
-63.7753
-44.2027
-53.9917
-63.7772
-44.219
-54.0023
-63.7793
-44.2444
-54.0182
-63.7799
-44.2885
-54.0434
-63.7748
-44.3567
-54.0872
-63.7482
-44.4729
-54.1768
-63.6762
-44.6473
-54.4234
-63.4327
-45.0417
-55.0187
-62.9051
)
;
    }
    water_left_surface
    {
        type            calculated;
        value           nonuniform List<scalar> 
42
(
28644.9
28645
28645
28644.9
28644.9
28644.9
18129.4
18129.5
18129.4
18129.4
18129.4
18129.4
8381.61
8381.63
8381.63
8381.62
8381.6
8381.6
1596.62
1596.63
1596.58
1596.64
1596.64
1596.4
-31.3012
-31.3007
-31.3045
-31.3068
-31.3141
-31.3308
-51.2433
-51.2431
-51.244
-51.2453
-51.2473
-51.2496
-68.0078
-68.0082
-68.0086
-68.009
-68.0094
-68.0099
)
;
    }
    water_right_surface
    {
        type            calculated;
        value           nonuniform List<scalar> 
42
(
-4.966
-4.96601
-4.96601
-4.96601
-4.96601
-4.96601
-14.7732
-14.7732
-14.7732
-14.7732
-14.7732
-14.7732
-24.5777
-24.5777
-24.5777
-24.5777
-24.5777
-24.5777
-34.3795
-34.3795
-34.3795
-34.3795
-34.3795
-34.3795
-44.1789
-44.1789
-44.1789
-44.1789
-44.1788
-44.1788
-53.9762
-53.9762
-53.9762
-53.9762
-53.9762
-53.9762
-63.7724
-63.7724
-63.7724
-63.7724
-63.7724
-63.7724
)
;
    }
    water_top_surface
    {
        type            calculated;
        value           nonuniform List<scalar> 
180
(
-76.1688
-76.17
-76.1702
-76.1699
-76.1699
-76.1699
-78.3066
-78.3072
-78.3074
-78.3077
-78.3084
-78.3084
-69.8041
-69.8042
-69.8042
-69.8043
-69.8044
-69.8044
-72.6068
-72.6072
-72.6073
-72.6075
-72.6077
-72.6076
-71.0566
-71.0568
-71.0569
-71.0569
-71.057
-71.0568
-71.1816
-71.1817
-71.1816
-71.1816
-71.1815
-71.1812
-71.0671
-71.0669
-71.0667
-71.0666
-71.0666
-71.0666
-70.1259
-70.1257
-70.1257
-70.1257
-70.1258
-70.126
-70.1202
-70.1202
-70.1201
-70.1199
-70.1198
-70.1195
-69.4955
-69.4953
-69.4949
-69.4947
-69.494
-69.4945
-74.9609
-74.9597
-74.959
-74.9548
-74.9619
-74.9458
-68.6701
-68.6701
-68.6701
-68.6701
-68.6701
-68.6701
-68.7393
-68.7394
-68.7394
-68.7394
-68.7394
-68.7393
-68.9386
-68.9386
-68.9385
-68.9386
-68.9384
-68.9387
-68.673
-68.673
-68.673
-68.673
-68.673
-68.6729
-81.465
-81.4707
-81.466
-81.4705
-81.5546
-81.3732
-138.329
-138.346
-138.329
-138.349
-138.666
-137.972
-81.6535
-81.6576
-81.6567
-81.6618
-81.6735
-81.6494
-68.6701
-68.6701
-68.6701
-68.6701
-68.6701
-68.6701
-68.6702
-68.6702
-68.6702
-68.6702
-68.6702
-68.6702
-68.6702
-68.6702
-68.6702
-68.6702
-68.6702
-68.6702
-68.6703
-68.6703
-68.6703
-68.6703
-68.6703
-68.6703
-68.6704
-68.6704
-68.6704
-68.6704
-68.6704
-68.6704
-68.6707
-68.6706
-68.6706
-68.6706
-68.6706
-68.6707
-68.6711
-68.6711
-68.6711
-68.6711
-68.6711
-68.6711
-68.672
-68.672
-68.672
-68.672
-68.672
-68.672
-68.6736
-68.6736
-68.6736
-68.6736
-68.6736
-68.6736
-68.6771
-68.6771
-68.6771
-68.6771
-68.6771
-68.6771
-68.6831
-68.6831
-68.6831
-68.6831
-68.6831
-68.683
-68.6949
-68.6949
-68.6949
-68.6949
-68.6949
-68.6949
)
;
    }
}


// ************************************************************************* //
