/*--------------------------------*- C++ -*----------------------------------*\
| =========                 |                                                 |
| \\      /  F ield         | OpenFOAM: The Open Source CFD Toolbox           |
|  \\    /   O peration     | Version:  v1612+                                |
|   \\  /    A nd           | Web:      www.OpenFOAM.com                      |
|    \\/     M anipulation  |                                                 |
\*---------------------------------------------------------------------------*/
FoamFile
{
    version     2.0;
    format      ascii;
    class       surfaceScalarField;
    location    "2.05";
    object      phi;
}
// * * * * * * * * * * * * * * * * * * * * * * * * * * * * * * * * * * * * * //

dimensions      [0 3 -1 0 0 0 0];

internalField   nonuniform List<scalar> 
2916
(
-2.61809e-06
0.596146
-0.596143
-1.75355e-07
0.596148
-0.596151
9.65379e-07
0.596148
-0.596149
8.2223e-07
0.596148
-0.596148
1.15967e-06
0.596149
-0.596149
0.596147
-0.596146
-4.81422e-06
1.26994
-0.673786
-6.62955e-07
1.26994
-0.673799
-2.3221e-07
1.26994
-0.673794
-7.74569e-08
1.26994
-0.673793
2.98669e-06
1.26994
-0.673795
1.26994
-0.673786
-3.35701e-06
1.73999
-0.470051
-1.30739e-06
1.74
-0.470059
-3.24125e-06
1.74
-0.470055
-3.30711e-06
1.74
-0.470056
2.05174e-06
1.74
-0.47006
1.73999
-0.470049
-5.86068e-06
2.11212
-0.372119
-5.43404e-06
2.11213
-0.372127
-8.01375e-06
2.11213
-0.372124
-6.83417e-06
2.11212
-0.372128
-1.85542e-07
2.11212
-0.372135
2.11211
-0.372123
-9.23207e-06
2.40819
-0.296063
-8.97525e-06
2.4082
-0.296074
-1.14797e-05
2.4082
-0.296071
-9.73358e-06
2.4082
-0.296076
-3.54021e-06
2.4082
-0.296083
2.40818
-0.296074
-1.17074e-05
2.69278
-0.284576
-1.15687e-05
2.69279
-0.28459
-1.35488e-05
2.69279
-0.284587
-1.19513e-05
2.69279
-0.284591
-4.97994e-06
2.69279
-0.284599
2.69277
-0.284592
-8.98826e-06
3.00754
-0.314752
-9.60608e-06
3.00756
-0.31477
-1.1111e-05
3.00756
-0.314768
-9.53497e-06
3.00756
-0.314772
-1.60194e-06
3.00756
-0.314779
3.00754
-0.314773
-8.4222e-06
3.33005
-0.322508
-5.9334e-06
3.33009
-0.322532
-8.07254e-06
3.33009
-0.322528
-6.67655e-06
3.33009
-0.322532
2.02752e-06
3.3301
-0.32254
3.33007
-0.322529
-7.62453e-06
3.34969
-0.0196296
-2.37457e-06
3.34973
-0.0196496
-4.53283e-06
3.34973
-0.0196431
-4.05376e-06
3.34973
-0.019646
4.31154e-06
3.34974
-0.0196564
3.34971
-0.0196356
-2.63561e-06
2.7063
0.643398
6.23174e-07
2.70636
0.643374
-2.11502e-08
2.70634
0.64339
-9.3482e-08
2.70635
0.643387
9.77825e-07
2.70637
0.643375
2.70632
0.643387
1.28469e-05
1.5274
1.17889
8.60329e-06
1.52747
1.1789
3.55476e-06
1.52745
1.1789
-4.63012e-06
1.52745
1.17891
-1.13689e-05
1.52747
1.1789
1.52742
1.17889
-7.60317e-05
1.52747
-3.79805e-05
1.52743
-3.46123e-05
1.52744
-1.67749e-05
1.52743
3.7562e-05
1.52742
1.52746
-3.32046e-06
0.772704
-1.36884
-1.10615e-06
0.772707
-1.36886
-1.62143e-06
0.772706
-1.36885
-3.95184e-06
0.772706
-1.36885
-4.78442e-06
0.772706
-1.36885
0.772703
-1.36885
-7.04574e-08
1.41983
-1.32091
-2.0887e-06
1.41984
-1.32093
-5.08003e-06
1.41984
-1.32092
-5.64096e-06
1.41984
-1.32092
-4.73718e-06
1.41984
-1.32093
1.41983
-1.32092
1.06017e-06
1.84623
-0.896454
-5.53711e-06
1.84625
-0.896463
-9.62459e-06
1.84625
-0.896459
-1.04086e-05
1.84624
-0.896462
-1.00751e-05
1.84624
-0.896469
1.84622
-0.896456
-6.19936e-06
2.29657
-0.822453
-1.16146e-05
2.2966
-0.822473
-1.15829e-05
2.2966
-0.822472
-9.72506e-06
2.29659
-0.822477
-1.03923e-05
2.2966
-0.822485
2.29657
-0.822476
8.19458e-07
2.55233
-0.551821
-1.07002e-05
2.55236
-0.551823
-1.08826e-05
2.55236
-0.551832
-6.26349e-06
2.55235
-0.551844
-1.07161e-05
2.55236
-0.551846
2.55233
-0.551848
1.01409e-05
2.9572
-0.689457
-3.50701e-06
2.95726
-0.68947
-5.89853e-06
2.95725
-0.689474
-2.47945e-06
2.95724
-0.689483
-7.08481e-06
2.95725
-0.689486
2.95722
-0.689485
2.26341e-05
3.54988
-0.907456
-4.73878e-06
3.54999
-0.907476
-1.22072e-05
3.54997
-0.90748
-7.4313e-06
3.54996
-0.907498
-8.60353e-06
3.54998
-0.907507
3.54993
-0.907494
4.57031e-05
4.2104
-0.983076
-6.48415e-06
4.21059
-0.983074
-2.93938e-05
4.21053
-0.983067
-2.30515e-05
4.21053
-0.983104
-1.65343e-05
4.21056
-0.983121
4.21048
-0.983095
8.78871e-05
4.59427
-0.403586
3.63629e-05
4.59448
-0.403492
-1.44479e-05
4.59439
-0.403454
-2.29609e-05
4.59439
-0.403493
-1.18096e-05
4.59442
-0.40353
4.59431
-0.403479
5.04262e-05
4.29988
0.937738
2.98266e-05
4.30004
0.937839
-5.72427e-06
4.29997
0.937845
-2.89836e-05
4.29997
0.937824
-4.12278e-05
4.29999
0.937817
4.29994
0.937716
3.07117e-05
2.37748
3.10126
2.89256e-05
2.37762
3.10131
-1.89453e-05
2.37758
3.10135
-5.79669e-05
2.37758
3.10134
4.41138e-05
2.37757
3.10122
2.37757
3.1013
-6.24487e-05
3.90502
-1.38115e-05
3.905
4.28595e-06
3.905
3.76473e-05
3.90498
4.60199e-05
3.90498
3.90508
-1.28906e-06
0.631532
-2.00038
7.61193e-07
0.63153
-2.00039
9.62239e-07
0.631533
-2.00039
-2.1746e-06
0.631536
-2.00038
-6.76719e-06
0.631534
-2.00038
0.631528
-2.00039
1.03206e-05
1.4538
-2.14319
-1.12181e-06
1.45381
-2.1432
-2.78769e-06
1.4538
-2.14319
5.84853e-07
1.4538
-2.1432
-3.86813e-06
1.45381
-2.1432
1.4538
-2.14319
8.9223e-06
2.06013
-1.50279
-2.45962e-06
2.06014
-1.50279
3.31788e-06
2.06014
-1.5028
7.74896e-06
2.06014
-1.5028
-1.15084e-05
2.06015
-1.50279
2.06013
-1.50281
4.22701e-05
2.96631
-1.72868
2.62282e-05
2.96639
-1.7287
2.64132e-05
2.96638
-1.72872
2.22989e-05
2.96638
-1.72872
-1.21776e-05
2.9664
-1.7287
2.96639
-1.72875
0.000135602
3.49609
-1.08173
0.000124509
3.49624
-1.08167
0.000107316
3.49626
-1.08169
8.20122e-05
3.49627
-1.0817
2.42842e-05
3.49628
-1.08166
3.49628
-1.08171
0.000159697
5.13268
-2.3262
0.000176263
5.13293
-2.32618
0.000131726
5.13293
-2.3261
8.14582e-05
5.13288
-2.32604
2.16176e-05
5.13287
-2.32601
5.13281
-2.32599
-0.000105309
6.58813
-2.36281
-0.000108164
6.58828
-2.36282
-0.000124537
6.58827
-2.36281
-0.000136178
6.58819
-2.3628
-0.000176886
6.58821
-2.36281
6.58793
-2.3628
-0.000346353
6.5736
-0.9682
-0.000486119
6.57354
-0.9682
-0.000465339
6.5734
-0.968227
-0.00041282
6.5733
-0.96827
-0.000431627
6.57343
-0.968326
6.57278
-0.968374
-0.000104259
5.28246
0.887657
-0.000408073
5.2825
0.887853
-0.000406776
5.28204
0.887891
-0.000376768
5.28195
0.887821
-0.000341773
5.28207
0.887788
5.28153
0.887429
0.000368047
2.94929
3.27054
0.000314784
2.94961
3.27079
0.000175419
2.94918
3.27085
-5.6798e-06
2.94921
3.27075
-7.89631e-05
2.94925
3.27071
2.94911
3.27006
0.000208887
1.68482
4.36551
0.000334028
1.68502
4.36578
0.000142765
1.68493
4.36579
-8.53306e-07
1.68489
4.3658
-5.01254e-05
1.68526
4.36526
1.68459
4.36577
-4.75718e-05
5.58989
2.55039e-05
5.58995
6.29108e-05
5.58989
2.9305e-05
5.58991
-0.000176211
5.59045
5.58949
5.85121e-06
0.294456
-2.29484
4.69472e-06
0.294427
-2.29482
6.63261e-06
0.29454
-2.29493
3.7587e-06
0.29442
-2.2948
-4.57519e-06
0.294395
-2.29477
0.294842
-2.29524
-2.04627e-05
0.900925
-2.74964
-3.99466e-05
0.900906
-2.74966
2.652e-05
0.900928
-2.74965
-1.91489e-05
0.900912
-2.74964
-0.000131969
0.900941
-2.74963
0.901081
-2.74955
-5.97982e-05
1.68586
-2.28767
-8.20209e-07
1.68576
-2.2877
4.91481e-05
1.68579
-2.28771
3.79411e-05
1.68583
-2.28771
5.7799e-06
1.68588
-2.28769
1.68596
-2.28768
9.72077e-05
1.35077
-1.39368
0.00018526
1.35074
-1.39376
0.000173769
1.35082
-1.39372
0.000104203
1.35088
-1.39369
5.37409e-05
1.35091
-1.39367
1.35095
-1.39368
0.000202748
0.569043
-0.300212
0.000304012
0.569155
-0.300182
0.00027932
0.569304
-0.300154
0.000187777
0.569393
-0.300123
0.000113131
0.569403
-0.300081
0.569419
-0.300076
-7.47598e-05
-0.528311
-1.22877
-5.35389e-05
-0.528271
-1.22878
-3.96887e-05
-0.528108
-1.2287
-2.87724e-07
-0.528042
-1.22865
6.35837e-05
-0.528048
-1.22863
-0.527948
-1.22857
-0.000163499
-1.30834
-1.58262
-0.00016989
-1.30838
-1.58271
-0.000132444
-1.30825
-1.5827
-4.70768e-05
-1.30823
-1.5827
2.658e-05
-1.30822
-1.58272
-1.30804
-1.58268
-0.000108356
-1.15545
-1.12098
-9.44808e-05
-1.15547
-1.12113
-3.58435e-05
-1.15538
-1.12116
1.63309e-05
-1.15537
-1.12119
-5.79482e-05
-1.15528
-1.1212
-1.15523
-1.12124
0.000146916
-0.318782
0.0508378
3.66905e-05
-0.318413
0.0509092
0.000247952
-0.318695
0.0509995
0.000299174
-0.318614
0.0510196
0.000339995
-0.318671
0.0511475
-0.318074
0.0506165
0.000376761
0.296068
2.6553
0.000232462
0.296692
2.65582
0.000435213
0.295983
2.65597
0.000572645
0.295901
2.65609
0.000866966
0.295227
2.65652
0.29801
2.65484
0.000550482
0.655213
4.00582
0.000816405
0.655585
4.00662
0.000520834
0.655381
4.00669
0.000274351
0.655243
4.0067
0.00113255
0.655453
4.00418
0.655698
4.00922
5.18835e-05
6.24505
5.42565e-05
6.24553
5.94973e-05
6.24527
-8.74706e-05
6.2453
-0.000190114
6.246
6.245
8.48205e-07
0.0017724
-0.00177325
1.58536e-07
0.00177217
-0.00177332
-1.53733e-07
0.00177213
-0.00177335
-2.58859e-07
0.00177207
-0.0017734
-2.53337e-07
0.00177204
-0.00177343
0.00177196
-0.00177358
3.36419e-07
0.00361395
-0.00184314
-1.35166e-07
0.00361369
-0.00184317
-3.47121e-07
0.00361369
-0.00184319
-4.62027e-07
0.00361366
-0.00184323
-5.24534e-07
0.00361365
-0.00184328
0.00361371
-0.0018434
-9.54561e-09
0.00558626
-0.0019732
-2.19484e-07
0.00558598
-0.00197308
-3.46906e-07
0.005586
-0.00197305
-4.21945e-07
0.00558598
-0.00197306
-4.43388e-07
0.00558597
-0.00197308
0.00558606
-0.00197315
-1.65828e-07
0.00773759
-0.0021516
-1.55198e-07
0.00773731
-0.00215113
-2.66415e-07
0.00773728
-0.00215099
-3.55182e-07
0.0077372
-0.00215095
-3.31246e-07
0.00773709
-0.00215094
0.00773711
-0.002151
-2.44027e-08
0.0100983
-0.00236058
-4.81745e-08
0.0100979
-0.00235939
-3.32453e-07
0.0100976
-0.00235903
-5.44532e-07
0.0100973
-0.00235889
-4.48938e-07
0.0100969
-0.0023589
0.0100966
-0.00235907
1.71593e-07
0.0126806
-0.00258183
-3.93393e-07
0.0126796
-0.00257958
-1.20241e-06
0.0126787
-0.00257893
-1.64285e-06
0.0126778
-0.00257878
-1.29592e-06
0.0126767
-0.00257899
0.0126758
-0.00257962
-4.04118e-07
0.0155275
-0.0028457
-2.22751e-06
0.0155252
-0.00284277
-3.80792e-06
0.0155233
-0.00284213
-4.40624e-06
0.0155214
-0.00284232
-3.36468e-06
0.0155195
-0.00284313
0.0155174
-0.00284475
-2.46426e-06
0.0183702
-0.00283966
-5.97354e-06
0.0183657
-0.0028372
-8.20489e-06
0.0183626
-0.00283733
-8.62437e-06
0.01836
-0.00283844
-6.41513e-06
0.0183572
-0.0028404
0.0183538
-0.00284353
-5.78408e-06
0.0203962
-0.00202032
-1.03595e-05
0.0203892
-0.00202056
-1.23755e-05
0.0203855
-0.00202241
-1.20137e-05
0.0203829
-0.00202489
-8.63001e-06
0.0203802
-0.00202805
0.0203761
-0.00203238
-7.38438e-06
0.0195115
0.000891257
-1.10748e-05
0.0195021
0.000887917
-1.1636e-05
0.0194983
0.000885293
-1.02349e-05
0.0194961
0.000883111
-6.93517e-06
0.0194937
0.000881039
0.0194893
0.000878525
-6.51908e-06
0.0149805
0.00453612
-8.27484e-06
0.0149725
0.00452807
-7.58834e-06
0.0149697
0.0045252
-5.94529e-06
0.0149683
0.00452383
-3.61017e-06
0.0149665
0.00452286
0.014963
0.00452165
1.91791e-06
0.014977
1.69075e-06
0.0149706
1.29445e-06
0.0149684
1.2578e-06
0.0149669
1.27025e-06
0.0149653
0.0149637
6.0001e-07
0.00178124
-0.00355632
-2.48596e-08
0.00178103
-0.00355632
-3.08071e-07
0.00178101
-0.00355632
-4.55418e-07
0.00178095
-0.00355634
-5.48716e-07
0.00178092
-0.00355635
0.00178087
-0.00355644
1.55929e-07
0.00364782
-0.0037118
-2.948e-07
0.00364759
-0.00371176
-4.66763e-07
0.00364756
-0.00371176
-6.05485e-07
0.00364753
-0.00371177
-7.27632e-07
0.00364751
-0.00371179
0.00364758
-0.00371187
-1.97004e-07
0.00568635
-0.00401265
-4.18386e-07
0.00568606
-0.00401244
-5.08866e-07
0.00568601
-0.00401238
-5.67325e-07
0.00568595
-0.00401236
-5.80508e-07
0.00568592
-0.00401235
0.00568602
-0.00401242
-5.09102e-07
0.00797919
-0.00444408
-5.40647e-07
0.00797881
-0.00444346
-5.73877e-07
0.00797864
-0.00444326
-5.45322e-07
0.00797848
-0.00444316
-3.98027e-07
0.00797831
-0.00444313
0.00797833
-0.00444324
-8.51467e-07
0.0105719
-0.00495165
-9.16359e-07
0.0105712
-0.00495021
-9.89613e-07
0.0105707
-0.00494971
-8.8779e-07
0.0105703
-0.00494948
-4.84014e-07
0.0105698
-0.00494948
0.0105695
-0.0049498
-1.53574e-06
0.0133528
-0.00535999
-2.06014e-06
0.0133514
-0.00535739
-2.32027e-06
0.0133503
-0.00535656
-2.12924e-06
0.0133492
-0.00535634
-1.28032e-06
0.013348
-0.00535663
0.0133469
-0.00535764
-3.12724e-06
0.0158781
-0.00536681
-4.49452e-06
0.0158749
-0.00536371
-4.9066e-06
0.0158725
-0.00536306
-4.44346e-06
0.0158705
-0.00536335
-2.87381e-06
0.0158685
-0.00536453
0.0158662
-0.00536694
-5.6908e-06
0.0177472
-0.0047028
-7.63942e-06
0.0177407
-0.00470136
-7.68088e-06
0.0177368
-0.00470197
-6.54428e-06
0.0177339
-0.0047035
-4.25129e-06
0.0177311
-0.00470598
0.0177276
-0.0047099
-7.91951e-06
0.0189017
-0.00316797
-8.96536e-06
0.0188899
-0.00317042
-7.46527e-06
0.0188842
-0.00317281
-5.27803e-06
0.0188807
-0.00317534
-3.0613e-06
0.0188777
-0.00317834
0.0188739
-0.00318236
-7.51316e-06
0.0193344
0.000464168
-5.8821e-06
0.0193174
0.000456303
-2.60508e-06
0.0193114
0.000452652
-2.27996e-07
0.0193089
0.000450596
4.96004e-07
0.0193074
0.000449059
0.0193053
0.000447249
-7.16483e-07
0.0162741
0.00759469
2.70047e-06
0.0162585
0.00758107
6.08118e-06
0.0162534
0.00757792
7.36179e-06
0.0162516
0.00757827
5.71773e-06
0.016251
0.00757969
0.0162511
0.00758121
9.61211e-06
0.0312394
8.99056e-06
0.0312282
6.30439e-06
0.0312233
3.67855e-06
0.0312201
1.58453e-06
0.0312175
0.0312161
4.79157e-07
0.00171106
-0.005269
-1.01487e-07
0.00171086
-0.00526892
-3.52738e-07
0.00171084
-0.00526891
-4.81045e-07
0.0017108
-0.00526891
-5.64366e-07
0.00171079
-0.00526891
0.00171081
-0.00526905
1.02758e-07
0.0035228
-0.00552538
-3.185e-07
0.00352255
-0.00552528
-4.81285e-07
0.00352254
-0.00552526
-6.00278e-07
0.00352252
-0.00552527
-7.04085e-07
0.00352253
-0.00552527
0.00352272
-0.00552538
-2.08482e-07
0.0055328
-0.00602346
-4.30258e-07
0.00553251
-0.00602321
-5.19455e-07
0.00553249
-0.00602315
-5.59149e-07
0.00553246
-0.00602312
-5.55393e-07
0.00553246
-0.00602311
0.00553271
-0.00602321
-5.13422e-07
0.00782961
-0.00674052
-5.97229e-07
0.00782931
-0.00673991
-6.27129e-07
0.0078292
-0.00673971
-5.63301e-07
0.00782908
-0.0067396
-3.97731e-07
0.00782898
-0.00673957
0.00782913
-0.00673972
-9.38362e-07
0.0105367
-0.0076571
-1.02981e-06
0.0105362
-0.00765575
-1.01868e-06
0.0105358
-0.00765527
-8.09129e-07
0.0105355
-0.00765506
-3.81451e-07
0.0105351
-0.00765507
0.0105351
-0.00765551
-1.72013e-06
0.0139033
-0.00872375
-2.05952e-06
0.0139022
-0.00872153
-2.01032e-06
0.0139013
-0.00872082
-1.5756e-06
0.0139005
-0.00872065
-7.4926e-07
0.0138998
-0.00872103
0.0138994
-0.00872222
-3.0812e-06
0.0185827
-0.0100423
-3.66537e-06
0.01858
-0.0100401
-3.34396e-06
0.0185784
-0.0100397
-2.4838e-06
0.0185771
-0.0100402
-1.24991e-06
0.018576
-0.0100415
0.0185754
-0.0100442
-4.80992e-06
0.0249297
-0.0110448
-4.76228e-06
0.0249235
-0.0110448
-3.33554e-06
0.0249209
-0.0110459
-1.73023e-06
0.0249196
-0.0110477
-5.46615e-07
0.0249192
-0.0110504
0.0249196
-0.0110546
-4.93073e-06
0.0322692
-0.0105031
-2.21374e-06
0.0322584
-0.0105083
1.26782e-06
0.0322559
-0.0105115
3.54479e-06
0.0322563
-0.0105144
3.42098e-06
0.0322585
-0.0105174
0.0322624
-0.0105211
-1.15785e-06
0.0355213
-0.00278779
6.43138e-06
0.0355068
-0.00279976
1.31436e-05
0.0355055
-0.00280355
1.56453e-05
0.0355091
-0.00280447
1.20796e-05
0.0355158
-0.00280408
0.0355252
-0.00280286
9.56965e-06
0.032707
0.0103987
1.64225e-05
0.0326918
0.0103893
2.04208e-05
0.0326906
0.010389
2.0084e-05
0.0326953
0.0103927
1.4159e-05
0.032704
0.0103976
0.0327169
0.0104036
1.62379e-06
0.0639442
-2.75802e-06
0.0639243
-6.73286e-06
0.0639177
-9.08248e-06
0.0639175
-8.17749e-06
0.0639199
0.0639248
3.13226e-07
0.00155289
-0.00682327
-1.69011e-07
0.00155275
-0.00682321
-3.57025e-07
0.00155273
-0.00682318
-4.44197e-07
0.00155271
-0.00682318
-4.88985e-07
0.0015527
-0.00682317
0.00155271
-0.00682328
7.56129e-10
0.00322885
-0.00720288
-3.42242e-07
0.00322865
-0.00720276
-4.675e-07
0.00322863
-0.00720274
-5.52192e-07
0.00322862
-0.00720272
-6.27435e-07
0.00322864
-0.00720271
0.00322877
-0.00720281
-2.80485e-07
0.00517151
-0.00796675
-4.70222e-07
0.00517122
-0.00796653
-5.17027e-07
0.00517116
-0.00796646
-5.18465e-07
0.00517114
-0.00796642
-4.95967e-07
0.00517116
-0.00796639
0.00517135
-0.0079665
-6.65168e-07
0.00757014
-0.00913863
-7.11742e-07
0.0075696
-0.00913811
-6.31545e-07
0.00756943
-0.00913795
-4.78712e-07
0.00756934
-0.00913784
-2.86493e-07
0.0075693
-0.00913779
0.00756957
-0.009138
-1.05507e-06
0.0106229
-0.0107082
-1.04506e-06
0.010622
-0.0107073
-8.38423e-07
0.0106217
-0.0107069
-5.10575e-07
0.0106214
-0.0107068
-1.53756e-07
0.0106213
-0.0107067
0.0106214
-0.0107071
-1.70059e-06
0.0143999
-0.0124983
-1.57553e-06
0.0143984
-0.012497
-1.04495e-06
0.0143977
-0.0124966
-3.8693e-07
0.0143974
-0.0124965
1.40233e-07
0.0143971
-0.0124967
0.0143972
-0.0124976
-1.88415e-06
0.0185066
-0.0141464
-1.28376e-06
0.0185037
-0.0141453
-2.32571e-07
0.0185028
-0.0141453
7.04109e-07
0.0185025
-0.0141458
1.04507e-06
0.0185024
-0.0141468
0.0185028
-0.0141486
-9.55724e-07
0.0223523
-0.0148893
1.27028e-06
0.0223471
-0.01489
3.51536e-06
0.0223463
-0.0148912
4.70482e-06
0.022347
-0.0148929
3.92716e-06
0.0223484
-0.014895
0.0223505
-0.0148976
2.85119e-06
0.0258486
-0.0140022
8.25097e-06
0.0258407
-0.0140062
1.19999e-05
0.0258412
-0.014009
1.27629e-05
0.0258446
-0.0140114
9.41101e-06
0.0258496
-0.0140137
0.0258559
-0.0140156
8.61806e-06
0.0299406
-0.00688798
1.73689e-05
0.0299283
-0.00689422
2.26215e-05
0.0299307
-0.00689658
2.24845e-05
0.0299395
-0.00689743
1.56548e-05
0.0299516
-0.00689755
0.0299658
-0.00689632
9.42618e-06
0.027746
0.0125848
1.47474e-05
0.0277367
0.0125772
1.72458e-05
0.0277413
0.0125771
1.56598e-05
0.0277526
0.012582
1.0647e-05
0.0277676
0.0125868
0.0277852
0.0125946
-1.78881e-05
0.0917088
-2.99295e-05
0.0916736
-3.42921e-05
0.0916637
-3.34323e-05
0.0916691
-2.23307e-05
0.091676
0.0916879
-4.32568e-06
-2.37387
0.0790346
3.0276e-05
-2.37391
0.0790494
4.87335e-06
-2.37395
0.079041
6.96622e-05
-2.37388
0.0790148
0.000168409
-2.37386
0.0789874
-2.37405
0.0789873
1.53636e-05
-2.2134
-0.160485
4.14013e-05
-2.21346
-0.160475
3.13287e-05
-2.21347
-0.160469
8.54647e-05
-2.21343
-0.160504
0.00016627
-2.21342
-0.16051
-2.21347
-0.160413
-1.58355e-05
-0.113241
-1.74305e-05
-0.113255
-2.05189e-05
-0.113255
-2.2314e-05
-0.11325
-9.22419e-06
-0.113251
-0.113262
-8.09918e-05
-2.67114
0.00062141
-1.82426e-05
-2.67118
0.000510058
4.77906e-05
-2.67116
0.000491283
5.15666e-05
-2.67114
0.000515135
2.88933e-05
-2.67116
0.000551424
-2.67111
0.000576881
-5.52297e-05
-2.55395
-0.277625
-2.67327e-05
-2.554
-0.277675
8.04499e-07
-2.55397
-0.277683
1.24571e-05
-2.55395
-0.277701
1.61405e-05
-2.55398
-0.277696
-2.5539
-0.27761
5.67205e-06
-0.294841
-1.20493e-05
-0.294842
-1.85716e-05
-0.294848
-1.05071e-05
-0.294849
-1.19956e-05
-0.294849
-0.294858
-4.9606e-05
-1.01523
-1.27176
4.22194e-06
-1.01525
-1.27198
9.38276e-06
-1.01524
-1.27198
2.5096e-05
-1.01523
-1.27197
7.59539e-05
-1.01525
-1.27194
-1.01522
-1.27181
-1.31201e-05
-0.69837
-0.59447
-1.66538e-05
-0.698381
-0.594545
-2.03196e-05
-0.698353
-0.594565
-2.05484e-05
-0.698345
-0.594589
-1.32013e-05
-0.698354
-0.594598
-0.698312
-0.594537
7.40532e-06
-0.165427
5.72358e-06
-0.165419
8.74183e-06
-0.165428
1.09657e-05
-0.165429
4.91684e-06
-0.165429
-0.165444
4.11026e-05
-1.34832
-1.31716
-1.73954e-05
-1.34838
-1.3173
-6.80073e-05
-1.34835
-1.3173
-7.40572e-05
-1.34834
-1.31731
-1.99953e-05
-1.34835
-1.31732
-1.34829
-1.31721
-2.14153e-05
-1.45351
-0.489256
-6.41867e-05
-1.45359
-0.4893
-7.27958e-05
-1.45358
-0.489328
-6.64078e-05
-1.45359
-0.489353
-4.87942e-05
-1.4536
-0.48937
-1.45351
-0.489362
1.5538e-05
-0.0921073
6.84641e-06
-0.0921024
-2.20629e-06
-0.0921083
-1.16127e-05
-0.0921112
-2.0435e-05
-0.0921134
-0.0921233
-6.487e-05
-0.86235
-0.754955
-4.1674e-05
-0.862428
-0.755078
-1.80336e-05
-0.862381
-0.755096
-8.85667e-07
-0.862341
-0.755108
3.70446e-05
-0.862331
-0.755103
-0.862239
-0.755011
-2.83272e-05
-1.14291
-0.208672
-7.34481e-05
-1.14299
-0.208692
-8.54565e-05
-1.143
-0.2087
-6.59962e-05
-1.143
-0.208709
-3.49023e-05
-1.14301
-0.208716
-1.14293
-0.208697
-1.83986e-06
-0.0372366
-1.29228e-05
-0.0372362
-2.25256e-05
-0.0372376
-2.69057e-05
-0.0372382
-2.25823e-05
-0.037238
-0.0372413
-0.000108981
-1.23674
-0.746884
-9.36835e-05
-1.23682
-0.747051
-5.09857e-05
-1.23679
-0.747044
-6.10841e-06
-1.23677
-0.747027
3.62207e-05
-1.23677
-0.747007
-1.23667
-0.746863
-1.35189e-05
-1.26308
-0.182314
-3.86584e-05
-1.26315
-0.182333
-4.55125e-05
-1.26315
-0.182339
-3.93251e-05
-1.26315
-0.18234
-2.36292e-05
-1.26315
-0.182344
-1.26308
-0.182307
-5.01894e-06
-0.0775461
-1.59772e-05
-0.0775477
-2.31501e-05
-0.077547
-2.62547e-05
-0.0775451
-2.35964e-05
-0.0775417
-0.0775401
-1.2134e-05
-1.37413
-0.955364
4.9016e-05
-1.37419
-0.955629
7.26439e-05
-1.37419
-0.955585
8.73164e-05
-1.37419
-0.955548
0.000110427
-1.37421
-0.955538
-1.37416
-0.955266
-2.96618e-05
-1.19242
-0.36399
-2.4503e-05
-1.19246
-0.364065
-9.51592e-06
-1.19246
-0.364082
7.93221e-06
-1.19247
-0.36409
3.62718e-05
-1.19247
-0.36411
-1.19243
-0.364001
-1.50102e-05
-0.0842677
-1.49063e-05
-0.0842743
-1.26528e-05
-0.0842768
-8.71539e-06
-0.0842803
-4.31064e-06
-0.0842802
-0.0842808
7.4103e-05
-1.05485
-1.02157
0.000105536
-1.05495
-1.02184
9.51166e-05
-1.05494
-1.02179
8.52229e-05
-1.05495
-1.02177
0.000114882
-1.05496
-1.02181
-1.05494
-1.02145
-2.53195e-05
-0.910899
-0.507917
-3.05278e-05
-0.910923
-0.508087
-3.0431e-05
-0.910922
-0.508099
-9.16257e-06
-0.910927
-0.508134
4.70473e-05
-0.910924
-0.508193
-0.910915
-0.507979
-1.45469e-05
-0.0740115
-1.13456e-05
-0.0740398
-8.93161e-06
-0.0740488
1.80702e-06
-0.0740686
1.8383e-05
-0.0740826
-0.0740606
0.0002228
-0.920206
-0.0507457
0.000211731
-0.920227
-0.0507047
0.000253315
-0.920178
-0.0506626
0.000254082
-0.920149
-0.0506052
0.000150724
-0.919982
-0.0505854
-0.92031
-0.0503757
-9.06051e-05
-0.851092
-0.576942
-9.00012e-05
-0.851083
-0.577227
-0.000136683
-0.85108
-0.577144
-5.73254e-05
-0.851071
-0.577286
-1.94976e-05
-0.851022
-0.57719
-0.851127
-0.577178
-7.7879e-05
-0.000540275
-8.49046e-05
-0.000640131
-0.000117542
-0.000625026
-7.75329e-05
-0.000720923
-3.7567e-05
-0.000662406
-0.000733841
0.000357138
0.850539
1.75367
0.000509507
0.850991
1.75398
0.000697695
0.851147
1.75397
0.000876982
0.851378
1.75393
0.000879372
0.851914
1.75402
0.850683
1.75466
-4.79983e-05
-0.362181
0.635821
2.04895e-05
-0.362034
0.635726
-7.67339e-05
-0.361917
0.636014
0.000131708
-0.361866
0.635744
0.00124384
-0.361573
0.635183
-0.361938
0.636686
-0.000134689
0.348214
-0.000132774
0.348084
-0.000185445
0.348206
-0.000132784
0.348031
1.85711e-06
0.34814
0.34812
0.000691495
2.07824
3.68056
0.000943298
2.07922
3.68113
0.000856475
2.07968
3.68108
0.000686056
2.07975
3.68105
0.00274873
2.07463
3.68151
2.08554
3.68109
-5.71095e-05
-0.403485
3.1176
-3.11699e-05
-0.403036
3.11796
0.000216013
-0.402786
3.11823
0.000141565
-0.40251
3.11808
-0.000625755
-0.405556
3.11614
-0.398879
3.12047
-9.81486e-06
1.92744
-4.18614e-05
1.92756
4.0888e-05
1.92788
5.63594e-05
1.92758
-0.000940313
1.92676
1.929
0.000220779
5.42863
4.49676
0.000278292
5.4294
4.4972
0.000102054
5.42942
4.49711
-6.87502e-05
5.42949
4.49702
0.00148538
5.42607
4.49989
5.43346
4.49411
0.000273712
3.12162
5.42433
0.000384284
3.12244
5.42481
0.000347086
3.12269
5.42499
0.000629842
3.12286
5.42443
-0.000191099
3.11357
5.42945
3.13349
5.42026
0.00027355
4.33076
0.000307222
4.3313
0.000582207
4.33151
0.000474465
4.33111
-0.00474253
4.33646
4.3263
-1.29394e-05
-0.16228
0.572777
-0.410484
-1.63849e-05
-0.162281
0.572765
-0.410479
-1.74358e-05
-0.162289
0.572762
-0.410471
-1.34516e-05
-0.162277
0.572746
-0.410473
-2.44055e-05
-0.162296
0.572787
-0.410479
-0.162267
0.572694
-0.410451
1.1894e-05
-0.2708
0.347769
-0.239261
-4.40001e-06
-0.270813
0.347818
-0.239269
-5.92091e-06
-0.27081
0.347763
-0.239241
-2.0532e-05
-0.270803
0.347814
-0.239273
-4.32459e-06
-0.270855
0.34776
-0.239216
-0.270719
0.347715
-0.239268
-1.53397e-05
-0.374607
0.213242
-5.96797e-06
-0.374639
0.213258
4.03533e-05
-0.374741
0.213297
2.77393e-05
-0.37456
0.213217
0.000337548
-0.375048
0.21335
-0.374049
0.213062
-4.20548e-07
-0.298749
0.871527
-3.8193e-06
-0.298749
0.871519
-2.36364e-05
-0.298771
0.871553
-1.62966e-05
-0.298734
0.871473
-0.000211888
-0.2988
0.871784
-0.298704
0.871188
6.60981e-05
-0.48756
0.536514
6.57338e-06
-0.487594
0.536725
-3.51366e-05
-0.487589
0.536625
-4.74133e-06
-0.487584
0.536636
-0.000152439
-0.487708
0.536817
-0.487393
0.536254
-6.43902e-05
-0.646339
-1.75218e-05
-0.646498
-6.9172e-05
-0.646557
1.52616e-05
-0.646405
0.00145529
-0.648513
-0.644062
-1.58156e-05
-0.365061
1.2366
-4.89566e-06
-0.365066
1.23657
-5.40559e-05
-0.365075
1.23668
-9.94091e-06
-0.36505
1.23648
-0.000152286
-0.365179
1.2371
-0.364937
1.23597
0.00031467
-0.278928
0.450068
7.7075e-05
-0.278421
0.450318
-3.56032e-05
-0.27863
0.450294
7.98129e-05
-0.27865
0.450122
-0.00114461
-0.27561
0.448474
-0.282261
0.452435
6.436e-06
-1.38077
-1.26949e-05
-1.38134
-0.000445014
-1.38089
-0.000104531
-1.38137
0.00335963
-1.3896
-1.37189
4.93708e-05
-0.23311
1.46966
0.000118524
-0.233222
1.46973
0.000200081
-0.233434
1.47004
7.68376e-05
-0.233017
1.46963
-0.00251535
-0.230234
1.46994
-0.236673
1.47013
0.000404398
1.67363
-1.45707
0.000127761
1.67435
-1.45698
-0.000236557
1.67372
-1.45649
5.09493e-05
1.67429
-1.45747
-0.000943481
1.68409
-1.46486
1.66285
-1.44803
0.000285861
-3.56044
-0.000111897
-3.56139
-0.000575836
-3.56052
-0.000398303
-3.56161
0.00137525
-3.57673
-3.54486
2.0158e-05
1.67758
-0.20794
0.000100046
1.67767
-0.208025
0.000297269
1.67754
-0.207706
0.000250312
1.67768
-0.208008
-0.00221506
1.68111
-0.208705
1.67417
-0.206249
2.99092e-05
4.86206
-4.64158
5.89856e-05
4.86252
-4.64185
0.00037982
4.86229
-4.64156
-0.000112018
4.86266
-4.64196
-0.00291014
4.87065
-4.6516
4.85461
-4.63139
0.000147388
-4.93022
-9.47764e-05
-4.93104
0.000236749
-4.93063
-0.000243916
-4.93108
-0.00394884
-4.94433
-4.91726
5.12263e-05
4.28877
-7.76279e-06
4.28923
0.000162121
4.28923
-2.65411e-05
4.28921
-0.00162748
4.29278
4.28624
-1.24719e-05
5.07154
5.52527e-05
5.07213
0.000554218
5.07216
-0.000133703
5.07237
-0.00376868
5.07427
5.07134
0.000163181
9.65384e-05
0.000703222
0.000108534
-0.00633548
1.70019e-07
-0.00794492
0.00112055
-1.8594e-07
-0.00794487
0.00112047
-3.22174e-07
-0.00794484
0.00112046
-3.87883e-07
-0.00794483
0.00112044
-4.22588e-07
-0.0079448
0.00112043
-0.00794488
0.00112044
6.80977e-08
-0.00866054
0.00071483
-1.43286e-07
-0.00866042
0.000714791
-2.35701e-07
-0.00866038
0.000714787
-2.95686e-07
-0.00866035
0.00071478
-3.42958e-07
-0.00866031
0.000714777
-0.00866041
0.000714777
-2.16725e-08
0.000248645
-7.67403e-08
0.000248635
-1.02823e-07
0.000248635
-1.3024e-07
0.000248634
-1.66253e-07
0.000248634
0.000248636
-6.29602e-08
-0.00842064
0.00233713
-3.07959e-07
-0.00842055
0.00233702
-3.93296e-07
-0.00842052
0.00233702
-4.52646e-07
-0.00842049
0.00233702
-5.08649e-07
-0.00842046
0.00233703
-0.00842052
0.00233712
-3.75525e-08
-0.00920467
0.00149805
-1.9275e-07
-0.00920451
0.001498
-2.66664e-07
-0.00920447
0.001498
-3.32109e-07
-0.00920443
0.00149801
-4.02157e-07
-0.00920439
0.00149802
-0.00920448
0.00149808
-4.2984e-08
0.000517671
-8.36316e-08
0.000517658
-1.06498e-07
0.00051766
-1.35103e-07
0.000517664
-1.74842e-07
0.00051767
0.000517694
-2.51346e-07
-0.00939972
0.00376961
-3.73389e-07
-0.00939961
0.00376948
-3.85696e-07
-0.00939957
0.00376948
-3.71575e-07
-0.00939953
0.00376949
-3.49347e-07
-0.0093995
0.00376952
-0.00939956
0.00376967
-7.27081e-08
-0.0103418
0.00243969
-1.73944e-07
-0.0103416
0.00243962
-2.31592e-07
-0.0103416
0.00243963
-2.77321e-07
-0.0103415
0.00243965
-3.17958e-07
-0.0103415
0.00243967
-0.0103416
0.00243977
-5.13329e-08
0.000827678
-7.4802e-08
0.000827652
-8.90896e-08
0.000827657
-1.04727e-07
0.000827666
-1.22681e-07
0.000827676
0.000827723
-4.21776e-07
-0.010958
0.00558923
-4.1776e-07
-0.0109577
0.00558906
-3.33634e-07
-0.0109576
0.00558907
-2.19579e-07
-0.0109576
0.00558912
-1.1546e-07
-0.0109575
0.00558919
-0.0109577
0.00558942
-1.76297e-07
-0.0121969
0.00367864
-1.78219e-07
-0.0121966
0.00367856
-1.56313e-07
-0.0121966
0.00367857
-1.21184e-07
-0.0121965
0.00367861
-8.76798e-08
-0.0121965
0.00367865
-0.0121967
0.00367878
-3.28726e-08
0.00119173
-4.16617e-08
0.0011917
-4.75448e-08
0.00119171
-4.92478e-08
0.00119172
-4.69599e-08
0.00119174
0.00119178
-5.14345e-07
-0.0132241
0.00810595
-3.59037e-07
-0.0132236
0.00810583
-1.37138e-07
-0.0132235
0.00810593
8.63111e-08
-0.0132235
0.00810606
2.19254e-07
-0.0132235
0.00810621
-0.0132238
0.00810649
-1.51067e-07
-0.0149923
0.00544726
-7.86638e-08
-0.014992
0.00544714
-4.11528e-09
-0.014992
0.00544718
6.88443e-08
-0.014992
0.00544723
1.05604e-07
-0.014992
0.00544729
-0.0149923
0.00544744
-7.05731e-09
0.00159927
4.68748e-09
0.00159921
1.6455e-08
0.00159922
2.57649e-08
0.00159923
2.81413e-08
0.00159925
0.00159932
-5.05795e-07
-0.0164095
0.0120183
-6.65223e-08
-0.0164091
0.0120181
4.20774e-07
-0.016409
0.0120184
8.10605e-07
-0.016409
0.0120187
8.81681e-07
-0.0164091
0.0120189
-0.0164095
0.0120194
7.64743e-09
-0.0191356
0.00817356
1.15825e-07
-0.0191352
0.00817336
2.11823e-07
-0.0191352
0.00817344
2.55513e-07
-0.0191352
0.00817352
1.98206e-07
-0.0191353
0.0081736
-0.0191357
0.00817386
2.7317e-08
0.00196478
5.47112e-08
0.00196466
6.96546e-08
0.00196468
6.4698e-08
0.00196471
3.51859e-08
0.00196473
0.00196486
2.33856e-07
-0.0209758
0.0188478
1.03792e-06
-0.0209753
0.0188478
1.68444e-06
-0.0209754
0.0188482
1.96786e-06
-0.0209756
0.0188486
1.59043e-06
-0.020976
0.0188489
-0.0209768
0.0188495
8.50706e-08
-0.0253224
0.0125202
3.89747e-07
-0.0253218
0.0125199
5.96476e-07
-0.0253219
0.01252
6.38869e-07
-0.025322
0.0125201
4.76396e-07
-0.0253221
0.0125203
-0.0253228
0.0125208
2.54709e-08
0.00199231
1.13842e-07
0.00199215
1.59827e-07
0.00199222
1.56258e-07
0.0019923
1.22096e-07
0.00199239
0.00199269
1.69581e-06
-0.0279661
0.0319231
2.99609e-06
-0.0279657
0.031923
3.59205e-06
-0.0279661
0.0319233
3.48865e-06
-0.0279668
0.0319235
2.49066e-06
-0.0279675
0.0319235
-0.0279687
0.0319241
2.55247e-07
-0.0352065
0.0197607
8.60116e-07
-0.0352058
0.0197602
1.22067e-06
-0.035206
0.0197604
1.25886e-06
-0.0352063
0.0197606
9.9336e-07