/*--------------------------------*- C++ -*----------------------------------*\
| =========                 |                                                 |
| \\      /  F ield         | OpenFOAM: The Open Source CFD Toolbox           |
|  \\    /   O peration     | Version:  v1612+                                |
|   \\  /    A nd           | Web:      www.OpenFOAM.com                      |
|    \\/     M anipulation  |                                                 |
\*---------------------------------------------------------------------------*/
FoamFile
{
    version     2.0;
    format      ascii;
    class       volVectorField;
    location    "2.05";
    object      U;
}
// * * * * * * * * * * * * * * * * * * * * * * * * * * * * * * * * * * * * * //

dimensions      [0 1 -1 0 0 0 0];

internalField   nonuniform List<vector> 
1116
(
(0.612682 -2.28358e-06 -0.492409)
(0.612685 -1.74383e-06 -0.492416)
(0.612684 1.15187e-06 -0.492416)
(0.612685 7.21286e-07 -0.492415)
(0.612686 1.18154e-06 -0.492416)
(0.612685 5.87412e-07 -0.492411)
(1.84763 -5.96859e-06 -0.651106)
(1.84763 -1.62041e-06 -0.651117)
(1.84763 -2.96224e-07 -0.651115)
(1.84763 -1.60082e-07 -0.651114)
(1.84763 2.31032e-07 -0.651115)
(1.84763 4.26335e-06 -0.651104)
(2.98615 -5.5731e-06 -0.519039)
(2.98616 6.26864e-08 -0.519048)
(2.98616 -3.24079e-06 -0.519044)
(2.98616 -2.9966e-06 -0.519045)
(2.98615 -2.57318e-06 -0.519047)
(2.98614 5.45349e-06 -0.519035)
(3.8546 -7.40818e-06 -0.391889)
(3.85462 -3.48998e-06 -0.391897)
(3.85462 -8.10281e-06 -0.391894)
(3.85462 -7.2132e-06 -0.391897)
(3.85461 -5.45524e-06 -0.391902)
(3.85459 4.8345e-06 -0.391891)
(4.52756 -9.7598e-06 -0.240096)
(4.52758 -7.47488e-06 -0.240104)
(4.52758 -1.15474e-05 -0.240099)
(4.52757 -1.05735e-05 -0.240105)
(4.52758 -8.95555e-06 -0.240113)
(4.52754 2.10789e-06 -0.240102)
(5.0943 -1.17832e-05 -0.16071)
(5.09432 -1.08596e-05 -0.160721)
(5.09432 -1.35316e-05 -0.160715)
(5.09432 -1.27203e-05 -0.160722)
(5.09433 -1.07038e-05 -0.160734)
(5.09428 4.76417e-07 -0.160726)
(5.63348 -9.39875e-06 -0.157834)
(5.63351 -9.00148e-06 -0.157852)
(5.63351 -1.09685e-05 -0.157849)
(5.6335 -1.07985e-05 -0.157856)
(5.63352 -6.61875e-06 -0.157869)
(5.63346 2.31079e-06 -0.157864)
(6.25742 -8.11597e-06 -0.188411)
(6.25748 -7.11078e-06 -0.188445)
(6.25747 -6.34828e-06 -0.188442)
(6.25747 -9.39826e-06 -0.188447)
(6.25749 -1.92004e-06 -0.188459)
(6.25743 4.93558e-06 -0.188454)
(6.83637 -9.08178e-06 -0.105559)
(6.83644 -5.00316e-06 -0.105602)
(6.83643 -1.1127e-06 -0.105606)
(6.83643 -8.0322e-06 -0.105608)
(6.83644 1.15873e-06 -0.105617)
(6.83639 5.9546e-06 -0.105615)
(6.42456 -6.0662e-06 0.0228486)
(6.42465 -7.785e-07 0.0227981)
(6.42465 2.1047e-06 0.0227936)
(6.42465 -2.06824e-06 0.0227913)
(6.42467 1.22774e-06 0.022785)
(6.42459 1.7156e-06 0.0227742)
(4.58321 1.14464e-05 0.289651)
(4.58333 1.45307e-05 0.289622)
(4.58329 1.81664e-06 0.289619)
(4.58329 4.37965e-06 0.289618)
(4.58334 -1.14207e-05 0.289594)
(4.58325 -1.40645e-05 0.28961)
(2.50097 -6.11506e-05 0.912417)
(2.50112 -6.61435e-05 0.912347)
(2.50107 -2.44858e-05 0.912372)
(2.50108 -4.04767e-05 0.912359)
(2.50113 1.65101e-05 0.912357)
(2.50101 4.26773e-05 0.912352)
(0.789129 -3.36983e-06 -1.9368)
(0.789133 -2.15329e-06 -1.93683)
(0.789131 -3.75247e-07 -1.93682)
(0.789134 -2.74932e-06 -1.93682)
(0.789134 -5.6108e-06 -1.93682)
(0.789124 -2.64341e-06 -1.93681)
(2.17782 8.15227e-07 -1.91797)
(2.17783 -4.61433e-07 -1.91801)
(2.17783 -4.69702e-06 -1.91799)
(2.17782 -4.95029e-06 -1.91799)
(2.17782 -6.07477e-06 -1.918)
(2.17782 -4.36795e-06 -1.91798)
(3.19145 3.80763e-07 -1.37623)
(3.19148 1.31263e-06 -1.37625)
(3.19147 -1.10793e-05 -1.37623)
(3.19147 -7.42553e-06 -1.37624)
(3.19147 -1.34724e-05 -1.37625)
(3.19144 -6.40637e-06 -1.37622)
(4.05267 -4.66867e-06 -1.18044)
(4.05272 -8.89765e-06 -1.18046)
(4.05271 -1.31533e-05 -1.18045)
(4.0527 -8.28221e-06 -1.18046)
(4.05271 -1.16934e-05 -1.18048)
(4.05266 -8.06195e-06 -1.18045)
(4.79144 6.0567e-06 -1.06901)
(4.7915 -5.93826e-06 -1.06905)
(4.79149 -1.11183e-05 -1.06904)
(4.79148 -8.18562e-06 -1.06906)
(4.79149 -6.30079e-06 -1.06908)
(4.79143 -1.17541e-05 -1.06905)
(5.36112 1.69916e-05 -1.0942)
(5.3612 -7.32834e-07 -1.09424)
(5.36119 -4.17934e-06 -1.09424)
(5.36118 -6.3888e-06 -1.09425)
(5.36119 3.88515e-07 -1.09427)
(5.36113 -1.42303e-05 -1.09425)
(6.18202 3.33266e-05 -1.23362)
(6.18216 2.2185e-06 -1.23368)
(6.18214 -8.33272e-06 -1.23368)
(6.18213 -1.40799e-05 -1.23368)
(6.18216 4.70325e-07 -1.2337)
(6.18208 -2.02326e-05 -1.23368)
(7.53035 6.09607e-05 -1.28691)
(7.53063 1.30864e-05 -1.28699)
(7.53056 -2.25293e-05 -1.28698)
(7.53055 -3.28634e-05 -1.28699)
(7.5306 -7.44237e-06 -1.28701)
(7.53047 -3.10284e-05 -1.28697)
(8.46418 9.94853e-05 -0.182199)
(8.46462 6.124e-05 -0.182244)
(8.46445 2.86694e-06 -0.182214)
(8.46445 -3.31837e-05 -0.182225)
(8.4645 -3.00278e-06 -0.182258)
(8.46433 -2.54198e-05 -0.182181)
(9.82666 5.7789e-05 1.6673)
(9.82701 4.1077e-05 1.66725)
(9.82688 8.15916e-06 1.66731)
(9.82687 -2.0669e-05 1.66731)
(9.82692 -2.78075e-05 1.66728)
(9.82676 -4.66734e-05 1.66732)
(7.37636 3.98887e-05 3.27686)
(7.3766 3.29998e-05 3.2769)
(7.37647 8.51054e-06 3.27692)
(7.37645 -5.927e-05 3.27692)
(7.37646 -2.27565e-06 3.27693)
(7.37638 4.16324e-05 3.27687)
(5.57762 -5.54885e-05 4.53088)
(5.578 -4.51526e-05 4.53078)
(5.57795 6.83016e-06 4.5308)
(5.57798 6.50145e-06 4.53077)
(5.57794 5.50818e-05 4.53071)
(5.57805 4.18374e-05 4.53088)
(-0.124821 -2.42777e-06 -3.37726)
(-0.12485 9.26266e-07 -3.3773)
(-0.124834 4.49576e-07 -3.37729)
(-0.124822 1.18378e-06 -3.37728)
(-0.124828 -6.80704e-06 -3.37729)
(-0.124847 -2.59568e-06 -3.37729)
(2.14701 2.16811e-05 -3.58981)
(2.14703 -5.09964e-06 -3.58986)
(2.14703 1.51687e-06 -3.58984)
(2.14703 -3.09245e-06 -3.58984)
(2.14703 7.57543e-06 -3.58984)
(2.14702 -1.84686e-05 -3.58982)
(3.54299 2.66088e-05 -2.44748)
(3.54302 -1.45711e-05 -2.4475)
(3.543 1.18712e-05 -2.4475)
(3.543 -4.33896e-06 -2.44751)
(3.54302 1.60425e-05 -2.44752)
(3.54297 -3.29743e-05 -2.44749)
(4.4985 5.98188e-05 -2.31552)
(4.49853 7.02722e-06 -2.31559)
(4.49853 5.0279e-05 -2.31559)
(4.49853 3.76183e-06 -2.31559)
(4.49857 3.34306e-05 -2.3156)
(4.49854 -5.19486e-05 -2.3156)
(6.02147 0.000129605 -1.62857)
(6.02163 9.71691e-05 -1.6286)
(6.02163 0.00015374 -1.62863)
(6.02166 5.68392e-05 -1.62864)
(6.0217 9.50383e-05 -1.62862)
(6.02168 -5.03092e-05 -1.62866)
(7.91799 0.000162679 -2.32236)
(7.9186 0.000148694 -2.32238)
(7.91862 0.000191055 -2.32237)
(7.91858 5.58762e-05 -2.32237)
(7.91858 9.53e-05 -2.32234)
(7.91859 -5.62453e-05 -2.32236)
(11.5879 9.97186e-06 -3.10505)
(11.5883 -0.000133404 -3.10505)
(11.5883 -7.56064e-05 -3.10504)
(11.5882 -0.00016905 -3.10507)
(11.5881 -0.000125356 -3.10508)
(11.5879 -0.000173157 -3.10503)
(13.7849 -0.000134661 -2.61714)
(13.7849 -0.000455446 -2.61705)
(13.7848 -0.000426785 -2.61702)
(13.7846 -0.000446822 -2.6171)
(13.7847 -0.000405358 -2.61717)
(13.7838 -0.000349479 -2.61705)
(12.1921 4.64491e-05 -0.729906)
(12.1917 -0.000296299 -0.729575)
(12.1912 -0.000420298 -0.729485)
(12.1909 -0.000393537 -0.729601)
(12.1913 -0.000344496 -0.729726)
(12.1896 -0.00028418 -0.729619)
(7.38097 0.000251671 2.66382)
(7.38178 0.000309547 2.66416)
(7.38063 0.000219475 2.6642)
(7.38061 6.83809e-05 2.66409)
(7.38059 -5.37973e-05 2.66404)
(7.38018 -0.000106894 2.66375)
(4.65808 0.000186969 6.14752)
(4.65842 0.000270896 6.14772)
(4.65797 0.000234422 6.14778)
(4.65785 2.28868e-05 6.14774)
(4.65843 -1.16903e-05 6.14738)
(4.65742 1.73175e-05 6.14766)
(8.50602 -5.33407e-05 9.59731)
(8.50674 -6.73036e-06 9.59736)
(8.50671 3.28102e-05 9.59734)
(8.50676 0.000115049 9.59731)
(8.50741 -7.43344e-05 9.59742)
(8.50607 -0.000208945 9.59754)
(-2.13788 1.62966e-05 -4.13387)
(-2.13795 -4.35636e-06 -4.1339)
(-2.13789 7.96586e-06 -4.1339)
(-2.13791 4.88756e-06 -4.13389)
(-2.13793 4.23756e-06 -4.13388)
(-2.1378 -1.8093e-05 -4.13389)
(1.07834 2.84953e-06 -5.57711)
(1.07829 -4.71273e-05 -5.57713)
(1.07854 3.59969e-07 -5.57712)
(1.07828 7.07998e-06 -5.57712)
(1.07823 -6.0788e-05 -5.57712)
(1.07922 -8.1011e-05 -5.57706)
(4.42627 -2.36757e-05 -4.13143)
(4.4262 -6.52161e-05 -4.1314)
(4.42619 5.30581e-05 -4.13144)
(4.42622 3.99988e-05 -4.13145)
(4.42633 4.76944e-05 -4.1314)
(4.42653 -7.89003e-06 -4.13144)
(2.93624 0.0001013 -3.69885)
(2.93587 9.92688e-05 -3.69891)
(2.93601 0.000219194 -3.69894)
(2.93613 0.000104147 -3.69892)
(2.93622 0.000113827 -3.69885)
(2.9364 -2.03292e-05 -3.69899)
(2.52139 0.000149226 -1.48603)
(2.52171 0.000229588 -1.48578)
(2.52188 0.000344741 -1.48583)
(2.52203 0.000177014 -1.48586)
(2.52208 0.000181634 -1.48574)
(2.52205 8.10422e-06 -1.48587)
(-0.6261 -6.07096e-05 -4.71814)
(-0.625913 -6.96763e-05 -4.718)
(-0.625455 -3.39726e-05 -4.71776)
(-0.625239 -3.70346e-05 -4.71761)
(-0.625238 4.09667e-05 -4.71756)
(-0.625142 5.19405e-05 -4.71747)
(-2.96659 -0.000131286 -4.19233)
(-2.96662 -0.000162116 -4.19244)
(-2.96635 -0.000139104 -4.19244)
(-2.96626 -9.10565e-05 -4.19244)
(-2.96628 -5.15811e-06 -4.1925)
(-2.96594 4.06383e-05 -4.19251)
(-2.7769 -7.92841e-05 -0.862403)
(-2.77708 -9.70479e-05 -0.862559)
(-2.77688 -7.25743e-05 -0.862727)
(-2.77687 2.04087e-05 -0.862857)
(-2.77682 -1.55921e-05 -0.862982)
(-2.77642 -5.7143e-05 -0.863306)
(-2.33741 0.000117371 3.09635)
(-2.33729 5.71625e-05 3.09667)
(-2.33711 7.01273e-05 3.09673)
(-2.33715 0.000303776 3.09665)
(-2.3368 0.000343661 3.09675)
(-2.3373 0.000142272 3.09541)
(3.96791 0.000274404 8.42469)
(3.96896 0.000284174 8.42552)
(3.96801 0.000231858 8.42558)
(3.96825 0.000520414 8.42545)
(3.96774 0.000796532 8.42555)
(3.96906 0.000435878 8.4232)
(-0.300992 0.00050688 10.8412)
(-0.300007 0.000720413 10.8421)
(-0.300857 0.000666828 10.8421)
(-0.301424 6.25254e-05 10.8422)
(-0.302731 0.000740823 10.8406)
(-0.297322 0.000944409 10.8425)
(10.1932 -9.00909e-06 13.0285)
(10.1941 8.1791e-05 13.0286)
(10.194 1.63036e-05 13.0285)
(10.1941 8.04643e-05 13.0285)
(10.1965 -0.000168187 13.0307)
(10.1913 -0.000314455 13.0265)
(-0.00175223 8.06717e-07 -0.00177392)
(-0.00175199 6.22009e-07 -0.001774)
(-0.00175194 -2.1004e-07 -0.00177403)
(-0.00175187 -1.55966e-07 -0.00177408)
(-0.00175182 -3.00155e-07 -0.00177412)
(-0.00175173 -1.6917e-07 -0.00177427)
(-0.00532438 4.26272e-07 -0.00184362)
(-0.00532388 1.73902e-07 -0.00184367)
(-0.00532383 -4.0392e-07 -0.00184368)
(-0.00532372 -3.43432e-07 -0.00184373)
(-0.00532367 -5.76048e-07 -0.00184378)
(-0.00532364 -3.65378e-07 -0.00184391)
(-0.00909284 1.26646e-07 -0.00197227)
(-0.0090923 -6.787e-08 -0.00197216)
(-0.00909232 -3.7574e-07 -0.00197213)
(-0.00909226 -3.48347e-07 -0.00197216)
(-0.00909224 -4.97941e-07 -0.00197218)
(-0.00909239 -3.10745e-07 -0.00197226)
(-0.0131651 -6.02712e-08 -0.00213569)
(-0.0131645 -1.30929e-07 -0.0021352)
(-0.0131645 -2.40998e-07 -0.00213506)
(-0.0131645 -2.88075e-07 -0.00213501)
(-0.0131643 -3.82061e-07 -0.00213501)
(-0.0131645 -2.42201e-07 -0.00213507)
(-0.0176209 4.52093e-10 -0.00227612)
(-0.0176203 4.39456e-08 -0.00227484)
(-0.01762 -1.86361e-07 -0.00227445)
(-0.0176197 -4.49505e-07 -0.00227429)
(-0.0176191 -5.44224e-07 -0.0022743)
(-0.0176189 -2.99117e-07 -0.00227445)
(-0.0225099 2.60913e-07 -0.00231718)
(-0.0225087 8.45972e-08 -0.00231467)
(-0.0225076 -8.35826e-07 -0.00231393)
(-0.0225064 -1.45757e-06 -0.00231373)
(-0.0225049 -1.59354e-06 -0.00231393)
(-0.0225037 -7.64554e-07 -0.00231453)
(-0.0278884 1.94922e-07 -0.00227936)
(-0.0278856 -1.01326e-06 -0.00227571)
(-0.0278829 -3.15072e-06 -0.00227487)
(-0.0278801 -4.15933e-06 -0.00227502)
(-0.027877 -4.17766e-06 -0.00227588)
(-0.0278737 -1.92183e-06 -0.0022776)
(-0.0335241 -6.10749e-07 -0.00252389)
(-0.0335179 -3.8372e-06 -0.00252051)
(-0.0335128 -7.34679e-06 -0.00252048)
(-0.0335081 -8.48145e-06 -0.00252168)
(-0.0335031 -8.0623e-06 -0.00252382)
(-0.0334971 -3.6511e-06 -0.00252724)
(-0.0385117 -2.29789e-06 -0.00342674)
(-0.0385005 -7.85966e-06 -0.00342604)
(-0.0384933 -1.17703e-05 -0.00342784)
(-0.0384877 -1.22632e-05 -0.00343053)
(-0.0384817 -1.10658e-05 -0.00343397)
(-0.0384734 -4.95069e-06 -0.00343875)
(-0.0394416 -3.50109e-06 -0.00407545)
(-0.0394242 -9.40355e-06 -0.00407951)
(-0.0394156 -1.1729e-05 -0.00408394)
(-0.0394098 -1.09862e-05 -0.00408811)
(-0.0394037 -9.31607e-06 -0.0040923)
(-0.039394 -4.09699e-06 -0.00409738)
(-0.0371382 -3.71153e-06 -0.00169303)
(-0.037117 -7.92126e-06 -0.00170475)
(-0.037109 -8.04077e-06 -0.00170966)
(-0.0371044 -6.81379e-06 -0.00171273)
(-0.0370992 -5.39889e-06 -0.00171531)
(-0.0370894 -2.37434e-06 -0.00171861)
(-0.0202419 9.28491e-07 0.00922017)
(-0.020231 1.93343e-06 0.00921202)
(-0.0202276 1.49903e-06 0.00920974)
(-0.0202258 1.13118e-06 0.00920813)
(-0.0202234 1.43736e-06 0.00920633)
(-0.0202184 9.14714e-07 0.00920389)
(-0.0017234 6.09831e-07 -0.00518809)
(-0.00172317 3.49889e-07 -0.00518816)
(-0.00172314 -3.60279e-07 -0.00518819)
(-0.00172307 -3.06515e-07 -0.00518826)
(-0.00172303 -5.73572e-07 -0.00518831)
(-0.00172298 -3.84311e-07 -0.00518852)
(-0.00524888 2.63986e-07 -0.00540741)
(-0.00524838 -9.53206e-09 -0.00540742)
(-0.00524833 -4.90187e-07 -0.00540743)
(-0.00524822 -4.70468e-07 -0.0054075)
(-0.00524816 -7.62296e-07 -0.00540756)
(-0.0052482 -5.0822e-07 -0.00540776)
(-0.00901137 -1.50286e-08 -0.0058268)
(-0.0090108 -2.73338e-07 -0.00582649)
(-0.00901072 -5.20565e-07 -0.00582641)
(-0.00901063 -4.98061e-07 -0.00582641)
(-0.00901058 -6.42228e-07 -0.00582642)
(-0.00901079 -4.06662e-07 -0.00582656)
(-0.0131697 -2.46347e-07 -0.0064168)
(-0.0131691 -5.20175e-07 -0.00641572)
(-0.0131689 -5.79689e-07 -0.00641539)
(-0.0131687 -5.39924e-07 -0.00641524)
(-0.0131685 -5.10809e-07 -0.00641521)
(-0.0131687 -2.78398e-07 -0.00641537)
(-0.0178504 -4.44421e-07 -0.00711525)
(-0.0178496 -8.8342e-07 -0.00711259)
(-0.0178491 -9.45464e-07 -0.00711171)
(-0.0178485 -9.2801e-07 -0.00711132)
(-0.0178478 -7.0998e-07 -0.00711132)
(-0.0178476 -2.92611e-07 -0.00711177)
(-0.0229969 -7.45794e-07 -0.00779254)
(-0.0229954 -1.76724e-06 -0.00778756)
(-0.022994 -2.16482e-06 -0.00778598)
(-0.0229925 -2.20879e-06 -0.00778554)
(-0.0229908 -1.75284e-06 -0.007786)
(-0.0229893 -6.94468e-07 -0.00778756)
(-0.0281386 -1.49581e-06 -0.00806619)
(-0.0281349 -3.77473e-06 -0.00805947)
(-0.0281316 -4.67381e-06 -0.00805792)
(-0.0281285 -4.62381e-06 -0.00805829)
(-0.028125 -3.77663e-06 -0.0080603)
(-0.0281212 -1.55525e-06 -0.00806439)
(-0.0325782 -2.85032e-06 -0.00683973)
(-0.0325691 -6.75232e-06 -0.00683476)
(-0.0325628 -7.63619e-06 -0.00683532)
(-0.0325575 -7.01847e-06 -0.00683805)
(-0.032552 -5.61025e-06 -0.0068428)
(-0.0325452 -2.33016e-06 -0.0068504)
(-0.0363797 -4.29924e-06 -0.00230104)
(-0.0363609 -8.84929e-06 -0.00230302)
(-0.0363506 -8.19211e-06 -0.00230754)
(-0.0363432 -6.277e-06 -0.00231312)
(-0.0363363 -4.45043e-06 -0.00232016)
(-0.0363275 -1.80962e-06 -0.00232966)
(-0.0399833 -4.35854e-06 0.00950047)
(-0.0399521 -7.52405e-06 0.00948832)
(-0.0399388 -4.39907e-06 0.00948032)
(-0.0399314 -1.06176e-06 0.00947418)
(-0.0399257 3.95841e-07 0.0094684)
(-0.0399184 2.12761e-07 0.00946158)
(-0.0450784 -1.17947e-06 0.0244255)
(-0.0450389 2.91225e-07 0.0244031)
(-0.0450256 4.45363e-06 0.0243958)
(-0.0450203 6.81526e-06 0.0243929)
(-0.0450174 6.66793e-06 0.0243911)
(-0.0450144 2.86719e-06 0.0243891)
(-0.0349312 5.2171e-06 0.0593249)
(-0.0349092 9.9362e-06 0.0593066)
(-0.0349018 7.64999e-06 0.0592992)
(-0.0348985 4.81122e-06 0.0592939)
(-0.0348965 2.80986e-06 0.0592889)
(-0.034895 1.01388e-06 0.0592846)
(-0.00161861 4.84012e-07 -0.00841312)
(-0.00161841 2.44416e-07 -0.00841313)
(-0.0016184 -3.71546e-07 -0.0084131)
(-0.00161835 -3.52873e-07 -0.00841313)
(-0.00161833 -5.81173e-07 -0.00841314)
(-0.00161832 -3.76027e-07 -0.00841327)
(-0.00494477 1.76858e-07 -0.00880294)
(-0.00494438 -7.00767e-08 -0.00880284)
(-0.00494435 -4.74501e-07 -0.00880282)
(-0.00494429 -4.8026e-07 -0.00880284)
(-0.00494428 -7.22611e-07 -0.00880285)
(-0.0049444 -4.69422e-07 -0.00880301)
(-0.00853881 -3.51946e-08 -0.00956204)
(-0.00853839 -2.81938e-07 -0.00956161)
(-0.00853835 -5.09515e-07 -0.0095615)
(-0.00853831 -4.99238e-07 -0.00956144)
(-0.00853832 -6.08345e-07 -0.00956142)
(-0.00853862 -3.70961e-07 -0.00956157)
(-0.0125723 -2.31921e-07 -0.0106581)
(-0.0125718 -5.31833e-07 -0.010657)
(-0.0125717 -6.1943e-07 -0.0106566)
(-0.0125716 -5.69852e-07 -0.0106564)
(-0.0125715 -5.18757e-07 -0.0106563)
(-0.0125718 -2.66291e-07 -0.0106566)
(-0.0172303 -4.7968e-07 -0.0119812)
(-0.0172298 -9.67945e-07 -0.0119785)
(-0.0172294 -9.96851e-07 -0.0119775)
(-0.017229 -8.9765e-07 -0.0119771)
(-0.0172286 -6.16039e-07 -0.0119771)
(-0.0172287 -2.22387e-07 -0.0119779)
(-0.0228625 -8.76385e-07 -0.0133107)
(-0.0228615 -1.87575e-06 -0.013306)
(-0.0228605 -1.97855e-06 -0.0133045)
(-0.0228594 -1.75574e-06 -0.0133041)
(-0.0228583 -1.17189e-06 -0.0133048)
(-0.0228577 -3.86983e-07 -0.0133069)
(-0.0303944 -1.58686e-06 -0.0141949)
(-0.0303913 -3.39946e-06 -0.0141895)
(-0.0303889 -3.41157e-06 -0.0141885)
(-0.0303867 -2.84007e-06 -0.0141893)
(-0.0303846 -1.90304e-06 -0.0141918)
(-0.0303829 -6.49948e-07 -0.014197)
(-0.0408988 -2.58932e-06 -0.014296)
(-0.0408903 -5.03089e-06 -0.0142946)
(-0.0408858 -4.01748e-06 -0.0142963)
(-0.0408826 -2.42526e-06 -0.0142996)
(-0.0408801 -1.15024e-06 -0.0143049)
(-0.0408784 -2.98095e-07 -0.0143133)
(-0.0554454 -3.04326e-06 -0.0135601)
(-0.0554271 -4.22699e-06 -0.0135681)
(-0.0554209 -4.25248e-07 -0.0135737)
(-0.0554189 2.55859e-06 -0.0135789)
(-0.0554193 3.60888e-06 -0.0135849)
(-0.0554218 1.80667e-06 -0.0135929)
(-0.0655201 -2.09769e-06 -0.00965735)
(-0.0654917 1.08151e-06 -0.00967527)
(-0.0654866 9.67722e-06 -0.00968117)
(-0.06549 1.41932e-05 -0.0096828)
(-0.0654985 1.39151e-05 -0.00968266)
(-0.0655117 6.17319e-06 -0.00968252)
(-0.0755748 4.31414e-06 -0.00409188)
(-0.0755373 1.23019e-05 -0.0041143)
(-0.0755338 1.77573e-05 -0.00411675)
(-0.0755439 1.964e-05 -0.00411177)
(-0.0755621 1.73005e-05 -0.00410416)
(-0.0755887 7.47055e-06 -0.00409562)
(-0.0532922 1.50301e-06 0.0402096)
(-0.0532688 2.49279e-07 0.0401888)
(-0.0532649 -4.5099e-06 0.0401798)
(-0.0532692 -7.73612e-06 0.040175)
(-0.0532786 -8.55094e-06 0.0401721)
(-0.0532937 -4.1601e-06 0.0401729)
(-0.00142929 2.84019e-07 -0.0113062)
(-0.00142916 8.88681e-08 -0.0113062)
(-0.00142914 -3.44e-07 -0.0113061)
(-0.00142911 -3.56833e-07 -0.0113061)
(-0.0014291 -4.96324e-07 -0.0113061)
(-0.00142909 -3.0226e-07 -0.0113063)
(-0.00439014 8.50124e-08 -0.0119003)
(-0.00438982 -1.35636e-07 -0.0119001)
(-0.00438978 -4.42686e-07 -0.0119001)
(-0.00438975 -4.55033e-07 -0.0119)
(-0.00438976 -6.31221e-07 -0.0119)
(-0.00438988 -3.97844e-07 -0.0119002)
(-0.00767768 -9.83417e-08 -0.0130827)
(-0.00767723 -3.4372e-07 -0.0130822)
(-0.00767717 -4.99582e-07 -0.0130821)
(-0.00767714 -4.77307e-07 -0.0130821)
(-0.00767719 -5.36369e-07 -0.013082)
(-0.0076775 -3.13038e-07 -0.0130822)
(-0.011578 -3.42699e-07 -0.0148502)
(-0.0115774 -6.72967e-07 -0.0148491)
(-0.0115772 -6.4359e-07 -0.0148488)
(-0.0115771 -5.34423e-07 -0.0148486)
(-0.0115771 -3.95772e-07 -0.0148485)
(-0.0115775 -1.7536e-07 -0.0148488)
(-0.0164439 -5.48127e-07 -0.0171283)
(-0.0164429 -1.05339e-06 -0.0171261)
(-0.0164424 -9.0986e-07 -0.0171253)
(-0.0164422 -6.48373e-07 -0.0171249)
(-0.016442 -3.38024e-07 -0.0171249)
(-0.0164423 -9.84969e-08 -0.0171257)
(-0.0226403 -9.70977e-07 -0.0196932)
(-0.0226384 -1.7083e-06 -0.0196898)
(-0.0226376 -1.23081e-06 -0.0196887)
(-0.022637 -7.09751e-07 -0.0196884)
(-0.0226366 -4.02286e-08 -0.019689)
(-0.0226366 1.64554e-07 -0.019691)
(-0.029898 -1.17365e-06 -0.0220662)
(-0.0298939 -1.78537e-06 -0.0220629)
(-0.0298924 -7.12256e-07 -0.0220625)
(-0.0298917 2.3037e-07 -0.0220634)
(-0.0298912 9.78059e-07 -0.0220658)
(-0.029891 6.31866e-07 -0.0220702)
(-0.0373353 -1.00494e-06 -0.0225049)
(-0.0373269 -2.94048e-07 -0.0225059)
(-0.0373248 2.38415e-06 -0.0225083)
(-0.0373246 3.92776e-06 -0.0225117)
(-0.0373253 4.36815e-06 -0.0225165)
(-0.0373269 2.09788e-06 -0.0225231)
(-0.0454133 4.95136e-07 -0.0187589)
(-0.0453982 4.69513e-06 -0.0187686)
(-0.0453968 9.818e-06 -0.0187746)
(-0.0454002 1.17419e-05 -0.0187798)
(-0.0454062 1.09735e-05 -0.0187849)
(-0.0454144 4.88296e-06 -0.01879)
(-0.0544423 2.85139e-06 0.00412361)
(-0.0544201 1.15513e-05 0.00410641)
(-0.0544229 1.93321e-05 0.0041009)
(-0.0544351 2.15122e-05 0.0040995)
(-0.0544523 1.89491e-05 0.00410015)
(-0.0544742 8.05668e-06 0.00410343)
(-0.0810922 4.03341e-06 0.0552788)
(-0.0810651 1.12675e-05 0.0552614)
(-0.0810728 1.53141e-05 0.0552614)
(-0.081097 1.57339e-05 0.0552708)
(-0.0811295 1.29482e-05 0.0552822)
(-0.0811671 5.50007e-06 0.0552969)
(-0.0894003 -1.06214e-05 0.238336)
(-0.0893725 -2.40157e-05 0.238274)
(-0.089373 -2.99886e-05 0.238256)
(-0.0893876 -3.24183e-05 0.238261)
(-0.0894091 -2.64742e-05 0.238274)
(-0.0894335 -9.94018e-06 0.23829)
(-2.57204 8.5756e-05 -4.49454)
(-2.57203 -4.22643e-05 -4.49451)
(-2.57193 5.12221e-05 -4.49476)
(-2.5721 2.09319e-05 -4.49447)
(-2.57215 0.000158362 -4.4944)
(-2.57161 -2.05116e-05 -4.49545)
(-0.981484 1.93682e-05 -4.15552)
(-0.981465 2.16127e-05 -4.15561)
(-0.981412 4.26724e-05 -4.15566)
(-0.981526 1.64964e-05 -4.15557)
(-0.981552 0.000154614 -4.15551)
(-0.98122 9.76026e-05 -4.1557)
(-0.0512759 -1.50934e-05 -3.87522)
(-0.0513137 -2.10812e-05 -3.87534)
(-0.0513119 -1.38366e-05 -3.87535)
(-0.0512937 -1.90624e-05 -3.87529)
(-0.0512996 -1.80872e-05 -3.8753)
(-0.0513433 -5.4118e-06 -3.87537)
(2.66744 -5.6735e-05 -3.57042)
(2.66753 -6.13447e-05 -3.57045)
(2.66745 2.2357e-05 -3.57045)
(2.6675 6.36453e-05 -3.57043)
(2.6675 3.42668e-05 -3.57044)
(2.66724 1.44136e-05 -3.57032)
(0.395899 -4.26786e-05 -4.99478)
(0.395922 -4.42716e-05 -4.99487)
(0.395901 -1.1664e-05 -4.9948)
(0.395879 1.37467e-05 -4.99476)
(0.395892 1.15375e-05 -4.99481)
(0.395981 1.3215e-05 -4.99466)
(-0.47569 9.55722e-06 -4.39298)
(-0.475706 -6.02524e-07 -4.39307)
(-0.475708 -1.83782e-05 -4.39301)
(-0.475707 -1.33585e-05 -4.39299)
(-0.475708 -1.1297e-05 -4.39303)
(-0.475711 -1.02637e-05 -4.39292)
(-2.57359 -4.99039e-05 -2.83484)
(-2.57413 -1.51047e-05 -2.83493)
(-2.57414 1.45504e-05 -2.83493)
(-2.57409 8.34829e-06 -2.83493)
(-2.57396 4.44869e-05 -2.83494)
(-2.57365 8.50694e-05 -2.83489)
(-1.6343 -1.10365e-05 -1.32243)
(-1.63452 -6.07738e-06 -1.32244)
(-1.63453 -2.74078e-05 -1.32238)
(-1.63458 -1.14863e-05 -1.32237)
(-1.63458 -2.85062e-05 -1.32241)
(-1.63434 6.08979e-06 -1.32234)
(-0.562602 8.64141e-06 -1.50855)
(-0.562587 3.94459e-06 -1.50857)
(-0.562611 7.16642e-06 -1.50853)
(-0.562614 8.70962e-06 -1.50851)
(-0.562608 9.92698e-06 -1.50851)
(-0.562642 -1.35294e-06 -1.50842)
(-2.79446 6.22095e-05 -1.79328)
(-2.79482 3.41717e-05 -1.79341)
(-2.7948 -7.44627e-05 -1.79329)
(-2.79483 -6.16837e-05 -1.79323)
(-2.79485 -5.52577e-05 -1.79324)
(-2.79462 1.34576e-05 -1.79319)
(-0.849647 -2.99786e-07 -2.82594)
(-0.849748 -4.33081e-05 -2.82609)
(-0.849819 -6.98724e-05 -2.82608)
(-0.84987 -6.35171e-05 -2.82609)
(-0.849909 -6.17168e-05 -2.82611)
(-0.849904 -3.44843e-05 -2.82592)
(-0.207867 1.05872e-05 -2.8075)
(-0.20785 1.30066e-05 -2.80759)
(-0.207864 1.34009e-06 -2.80757)
(-0.20787 -6.17926e-06 -2.80758)
(-0.207875 -1.81706e-05 -2.8076)
(-0.2079 -1.28878e-05 -2.8075)
(-2.09299 -5.47656e-05 -0.0962779)
(-2.09319 -6.26668e-05 -0.0963774)
(-2.09322 -2.26282e-05 -0.0962042)
(-2.09324 -1.58002e-05 -0.0960496)
(-2.09324 1.90942e-05 -0.0959998)
(-2.09307 3.11973e-05 -0.0958638)
(-0.846944 -1.54685e-05 -2.48272)
(-0.847006 -4.69417e-05 -2.48289)
(-0.847038 -7.90742e-05 -2.48289)
(-0.847076 -7.17028e-05 -2.4829)
(-0.8471 -5.3384e-05 -2.4829)
(-0.847074 -1.55124e-05 -2.4827)
(-0.0957078 1.28731e-06 -2.18503)
(-0.0957045 -5.54278e-06 -2.18516)
(-0.0957111 -1.64664e-05 -2.18517)
(-0.0957157 -2.50212e-05 -2.18519)
(-0.0957188 -2.47041e-05 -2.18523)
(-0.0957315 -1.21493e-05 -2.18514)
(-1.27256 -9.7426e-05 -1.06396)
(-1.27287 -0.000123779 -1.06412)
(-1.27291 -5.31413e-05 -1.06405)
(-1.27293 -3.46499e-05 -1.06397)
(-1.27291 2.46462e-05 -1.06396)
(-1.27268 2.8481e-05 -1.06379)
(-0.152903 -8.14941e-06 -2.81217)
(-0.152929 -2.52534e-05 -2.81229)
(-0.152936 -4.01406e-05 -2.81227)
(-0.152941 -4.09154e-05 -2.81225)
(-0.152946 -3.23435e-05 -2.81225)
(-0.152888 -7.48814e-06 -2.81208)
(-0.0896124 4.52387e-07 -2.24096)
(-0.0896148 -9.2203e-06 -2.24108)
(-0.0896149 -1.9147e-05 -2.24109)
(-0.0896126 -2.33791e-05 -2.2411)
(-0.0896082 -2.47365e-05 -2.24113)
(-0.0896085 -1.39754e-05 -2.24105)
(-1.61616 -2.7259e-05 -2.46184)
(-1.61652 2.65237e-06 -2.46203)
(-1.61645 8.0929e-05 -2.462)
(-1.61637 5.93975e-05 -2.46199)
(-1.6163 0.000112315 -2.46199)
(-1.61594 8.55895e-05 -2.46183)
(-0.574777 -2.8902e-05 -2.36064)
(-0.574821 -3.64001e-05 -2.36068)
(-0.574838 -8.03852e-06 -2.36068)
(-0.57483 -1.1639e-05 -2.36069)
(-0.574825 3.09029e-05 -2.36073)
(-0.574723 4.36688e-05 -2.36068)
(-0.199052 -7.4642e-06 -2.18945)
(-0.199053 -1.53208e-05 -2.18954)
(-0.19905 -1.38718e-05 -2.18954)
(-0.199045 -8.76238e-06 -2.18954)
(-0.199037 -6.13447e-06 -2.18954)
(-0.199032 -3.62797e-06 -2.18946)
(-2.03792 4.47363e-05 -2.71146)
(-2.03857 9.46799e-05 -2.71181)
(-2.03846 9.97209e-05 -2.71172)
(-2.03839 7.2642e-05 -2.7117)
(-2.0384 0.000100329 -2.71165)
(-2.0377 7.99873e-05 -2.71148)
(-0.796279 -2.22332e-05 -1.59902)
(-0.796523 -3.25639e-05 -1.59906)
(-0.796566 -1.81523e-05 -1.59908)
(-0.796602 -4.17419e-05 -1.59912)
(-0.796663 2.72099e-05 -1.59916)
(-0.796384 6.00157e-05 -1.5992)
(-0.0962129 -8.87339e-06 -1.7061)
(-0.0962368 -1.36679e-05 -1.70614)
(-0.0962493 -8.83252e-06 -1.70612)
(-0.0962693 -6.36649e-06 -1.70611)
(-0.0962767 1.05901e-05 -1.70609)
(-0.0962874 1.39908e-05 -1.70605)
(-2.4421 0.000138236 -2.55077)
(-2.44262 0.000232013 -2.55082)
(-2.44255 0.000199242 -2.55058)
(-2.44255 0.000256496 -2.55045)
(-2.44275 0.000194021 -2.5501)
(-2.44198 4.71433e-05 -2.55074)
(-1.47425 -6.38759e-05 -1.44966)
(-1.47473 -9.51101e-05 -1.44964)
(-1.47476 -8.1144e-05 -1.44964)
(-1.47485 -0.000129461 -1.44963)
(-1.47513 -3.62882e-05 -1.44933)
(-1.47437 4.01301e-05 -1.44991)
(-0.267144 -5.11649e-05 -1.70156)
(-0.26725 -8.40117e-05 -1.70154)
(-0.267279 -8.93919e-05 -1.70153)
(-0.267346 -0.000103077 -1.70151)
(-0.267404 -5.59287e-05 -1.70157)
(-0.267285 -1.03639e-05 -1.70156)
(2.55563 0.000222746 2.9888)
(2.5563 0.00044869 2.98999)
(2.55639 0.000542126 2.99038)
(2.55662 0.000663229 2.99089)
(2.55684 0.000934338 2.9923)
(2.55701 0.000631499 2.98828)
(-0.346527 -3.37821e-05 -0.0236614)
(-0.347043 -3.41357e-05 -0.0232296)
(-0.346698 0.000104078 -0.0229913)
(-0.347158 -0.00035008 -0.0227188)
(-0.34649 0.000700846 -0.0221719)
(-0.347279 0.0011742 -0.0226841)
(0.345781 -8.69935e-05 -1.28255)
(0.345484 -0.000121455 -1.28248)
(0.345582 -0.000158754 -1.28236)
(0.345248 -0.000154555 -1.28233)
(0.345549 -2.95021e-05 -1.28202)
(0.345144 4.23757e-06 -1.28254)
(3.8213 0.000405218 7.25119)
(3.82211 0.000933275 7.25331)
(3.82218 0.00102057 7.25365)
(3.82188 0.000131366 7.25364)
(3.82239 0.00175278 7.24528)
(3.82374 0.00203212 7.26245)
(3.2078 -0.000265613 1.32459)
(3.20805 0.000182215 1.32618)
(3.2088 -0.00024789 1.32736)
(3.20853 0.000636174 1.32773)
(3.20595 -0.000175935 1.31654)
(3.21193 -0.0014771 1.34079)
(1.16196 -7.46988e-05 -3.54296)
(1.16185 0.000104745 -3.54256)
(1.16226 -0.000261946 -3.54266)
(1.16198 0.000425996 -3.5418)
(1.16219 -0.000362829 -3.54388)
(1.16238 -0.00122199 -3.53911)
(10.1034 2.75066e-05 11.6949)
(10.1047 0.000251514 11.6962)
(10.1044 0.000411745 11.6956)
(10.1043 -0.000436987 11.6957)
(10.1067 0.00075439 11.6962)
(10.1023 0.00140833 11.696)
(8.3379 0.000120028 7.48648)
(8.33901 0.00040464 7.48835)
(8.33946 0.000312674 7.48884)
(8.33844 0.000376656 7.48892)
(8.334 0.000357122 7.47541)
(8.3448 1.8328e-05 7.50399)
(5.48315 -6.24383e-05 1.80484)
(5.48369 0.000730402 1.806)
(5.48448 -0.000469166 1.80627)
(5.48353 0.00211345 1.80731)
(5.48032 -0.00181805 1.78838)
(5.48832 -0.00518096 1.82943)
(-1.10243 -6.22871e-06 -0.2142)
(-1.10242 -2.98071e-05 -0.214208)
(-1.10242 -1.89928e-05 -0.214234)
(-1.10239 -2.20266e-05 -0.214211)
(-1.10247 -3.81243e-05 -0.214252)
(-1.10228 -9.71161e-06 -0.214214)
(-0.633379 3.5113e-05 -0.941521)
(-0.633427 -1.70718e-05 -0.941534)
(-0.633354 1.34985e-05 -0.941556)
(-0.633428 -3.64101e-05 -0.941493)
(-0.633341 -3.55801e-05 -0.941587)
(-0.633303 6.60204e-05 -0.941352)
(0.570888 -4.14623e-06 -0.369651)
(0.570941 -6.61137e-05 -0.369713)
(0.571062 8.41514e-05 -0.369638)
(0.570825 -5.49146e-05 -0.369722)
(0.571387 0.000251408 -0.369823)
(0.570211 0.00045355 -0.369527)
(-0.9615 1.6428e-05 -0.5257)
(-0.961474 5.5636e-07 -0.525677)
(-0.961446 -4.81531e-05 -0.525744)
(-0.961445 3.82361e-05 -0.525664)
(-0.961466 -0.000173411 -0.525795)
(-0.961392 -0.00025789 -0.525674)
(-0.801681 0.000122854 -1.61329)
(-0.801906 7.03817e-06 -1.61337)
(-0.801782 2.66501e-05 -1.61344)
(-0.801831 -5.79456e-05 -1.61327)
(-0.801996 -0.00017629 -1.61372)
(-0.80132 2.00673e-05 -1.6127)
(0.829159 -3.80954e-05 -0.729132)
(0.829182 -0.000210869 -0.729198)
(0.829458 0.000222418 -0.72904)
(0.829048 -0.000602097 -0.729303)
(0.830335 0.0010614 -0.729047)
(0.827873 0.00205832 -0.729435)
(-3.05989 2.00232e-05 -0.568352)
(-3.05982 -3.04604e-05 -0.56831)
(-3.06011 -4.6426e-05 -0.568355)
(-3.05964 -3.94937e-06 -0.568302)
(-3.06127 -0.000139183 -0.568483)
(-3.05833 -0.000126568 -0.568165)
(-1.19853 0.000458472 -2.22664)
(-1.19889 0.00026804 -2.22682)
(-1.19858 -5.9384e-05 -2.22686)
(-1.19882 0.000240531 -2.22666)
(-1.1987 -0.000842488 -2.22789)
(-1.19874 -0.00095001 -2.22533)
(1.42722 0.000204844 1.24366)
(1.42779 -0.00022417 1.24648)
(1.42771 0.000272379 1.24553)
(1.42758 -0.00212473 1.24511)
(1.43425 0.00242181 1.26292)
(1.41972 0.00527702 1.22421)
(-0.797614 -2.54885e-05 -1.14848)
(-0.797694 0.000318247 -1.14843)
(-0.797556 -0.000273815 -1.14882)
(-0.797536 0.00135892 -1.14817)
(-0.797764 -0.00175353 -1.14768)
(-0.797015 -0.00375828 -1.14983)
(-0.431917 0.000654325 -0.611611)
(-0.432574 0.000427871 -0.612446)
(-0.433123 -0.000131345 -0.613373)
(-0.43153 -1.42258e-05 -0.611396)
(-0.425396 -0.000787079 -0.593898)
(-0.441178 -0.000639652 -0.633243)
(4.49409 0.000465771 11.4655)
(4.49598 0.000212214 11.4708)
(4.49411 -0.000452239 11.4679)
(4.49632 -0.00156536 11.4694)
(4.52259 0.000769761 11.5141)
(4.46616 0.00227411 11.4186)
(-6.95042 2.08604e-05 -2.6233)