/*--------------------------------*- C++ -*----------------------------------*\
| =========                 |                                                 |
| \\      /  F ield         | OpenFOAM: The Open Source CFD Toolbox           |
|  \\    /   O peration     | Version:  v1612+                                |
|   \\  /    A nd           | Web:      www.OpenFOAM.com                      |
|    \\/     M anipulation  |                                                 |
\*---------------------------------------------------------------------------*/
FoamFile
{
    version     2.0;
    format      ascii;
    class       volScalarField;
    location    "7.45";
    object      p_rgh;
}
// * * * * * * * * * * * * * * * * * * * * * * * * * * * * * * * * * * * * * //

dimensions      [1 -1 -2 0 0 0 0];

internalField   nonuniform List<scalar> 
1116
(
25866.8
25867.2
25867.6
25867.4
25867.5
25867
26120.3
26121.8
26121.2
26121.2
26121.4
26120.2
23806.6
23808.1
23807.6
23807.2
23806.5
23806.4
20895.9
20897.9
20896.7
20896.3
20895.3
20895.9
17422.3
17419.9
17419.3
17420
17418.4
17415.2
13754
13754.7
13750.2
13747.9
13737.2
13744.8
10869.3
10889.6
10886.2
10869.3
10852.4
10891.9
9311.59
9317.74
9318.42
9304.14
9298.24
9309.15
8958.35
8952.71
8955.42
8951.06
8954.33
8935.41
8967.88
8950.84
8953.69
8964.67
8974.92
8940.38
9014.46
9015.3
9011.62
9016.56
9008.39
9021.24
9539.09
9536.2
9537.71
9540.72
9542.86
9547.14
26834.6
26835.2
26835.4
26836
26836.9
26835.3
27771.4
27773.3
27772.9
27773.6
27774.9
27770
23929.6
23935.3
23933.5
23933.7
23935.8
23925.5
18886.1
18884.5
18885.5
18885.4
18886.2
18883.1
12491.9
12458.4
12464.7
12479.7
12486
12450.2
6561.05
6602.79
6598.34
6554.68
6509.26
6574.53
3070.98
3108.24
3107.85
3081.82
3079.88
3107.53
2024.5
2032.94
2029.78
2015.71
2004.08
1985.44
2471.38
2478.73
2477.96
2464.29
2453.69
2458.62
2677.62
2656.73
2662.72
2671.3
2675.63
2639.68
2758.16
2784.7
2779.64
2751.53
2719.89
2789.29
4324.95
4349.71
4359.57
4317.3
4307.43
4374.84
27918
27915.1
27914.9
27918.1
27918.9
27918.5
18692.9
18735.2
18733
18711.1
18688.9
18729.5
11197
11217.4
11206.2
11210.3
11212
11187.7
6090.43
6124.45
6121.06
6098.83
6079.72
6142.81
2689.34
2539.27
2538.31
2676.19
2749.35
2493.9
855.975
860.851
857.234
854.13
867.248
804.627
190.549
227.798
223.72
189.443
179.033
207.186
459.248
391.66
392.916
466.807
509.265
323.404
535.729
528.827
522.865
547.523
555.49
522.095
576.494
579.755
572.9
582.865
572.988
585.352
902.3
882.977
883.54
900.115
897.387
866.82
1092.01
1098.54
1089.78
1089.01
1054.09
1080.84
28236.8
28122.3
28165.6
28203.5
28188.4
28206.5
2476.97
2525.13
2512.47
2498.32
2491.26
2496.54
-27.4985
-28.6401
-28.2913
-26.7698
-23.9609
-28.2165
14.5846
11.7143
12.496
14.8516
17.9617
11.2957
37.1556
38.1606
38.3048
37.7333
37.9442
37.9254
2.64214
4.36632
4.32485
2.27563
4.94114
2.52154
49.1301
52.6226
52.8499
49.8492
43.0035
53.8844
8.38274
8.63444
8.44605
8.07593
7.219
15.8879
6.06174
6.19712
6.02058
5.49819
4.80669
4.10952
8.74582
8.76649
8.74656
8.6328
8.45296
8.43911
120.893
115.591
120.405
124.275
130.584
123.795
504.832
448.681
466.291
514.954
563.49
458.913
2642.31
2634.12
2674.54
2645.9
2630.7
2605.79
2461.33
2469.54
2482.89
2422.02
2368.42
2377.77
1814.35
1683.49
1731.32
1857.54
1866.77
1933.95
860.648
1038.15
1077.02
1053.03
1167.86
1303.28
634.493
661.081
633.642
454.324
654.397
558.859
632.436
537.792
397.393
243.353
474.27
375.902
654.02
592.656
441.203
365.607
444.79
594.405
641.432
649.524
661.042
610.351
446.152
587.947
623.269
655.437
671.592
587.702
484.585
571.155
495.926
576.695
679.674
539.841
515.934
590.086
541.294
608.44
764.426
778.835
754.082
676.916
694.357
702.672
920.025
899.022
873.876
783.14
2669.59
2566.91
2685.4
2706.09
2631.57
2606.59
2257.74
1673.54
1996.39
1888.13
1783.7
2224.31
530.275
338.048
282.11
277.116
501.773
743.365
75.2966
41.0421
54.2088
73.0017
130.93
164.143
9.47348
8.09733
17.2409
45.5482
77.0294
119.773
9.18542
2.89431
15.1205
42.7022
43.3473
70.4926
-6.52704
-15.7677
-17.0536
11.7757
1.40564
-6.31989
-13.0449
-16.5208
-26.2459
-25.6502
-21.2723
-16.7754
10.0558
10.0089
1.62112
0.964779
1.51096
3.92687
45.7496
56.9194
38.642
39.6819
35.8836
31.4007
80.0394
123.373
92.1801
87.7831
76.5986
52.7416
187.074
75.5444
97.009
343
398.713
158.207
3104.37
3129.11
3045.33
3117.44
3029.86
3111.26
2594.83
1002.53
1627.14
1192.5
1086.53
2573.62
493.605
47.1311
36.6472
22.3971
159.552
907.281
20.4345
20.1584
21.121
21.9298
22.1061
24.01
17.1805
18.2674
19.4736
20.9585
19.9571
19.4472
12.3796
12.9349
14.5311
16.6891
14.3793
13.7502
4.82381
4.32564
6.20297
7.68354
9.66957
9.05557
-4.68222
-8.07291
-7.48178
-4.19166
1.32167
4.02695
-1.32272
-2.65951
-2.02874
1.84293
5.41129
9.30981
5.28804
7.5126
12.7031
19.6626
23.7092
13.7861
10.1812
12.6088
33.8067
90.6193
68.5477
15.5723
-13.1887
123.877
230.407
77.869
5.78924
6.52969
3739.19
3721.32
3656.36
2071.57
2642.19
3670.01
3025.43
1451.89
1652.39
680.002
749.902
1946.99
537.278
10.698
5.52398
6.09932
-1.43645
60.1958
7.93439
8.16403
8.9496
10.0367
11.9312
12.5993
7.91042
7.95443
8.05502
8.14575
7.99624
7.92381
3.96303
3.36948
3.85523
3.83427
3.11999
2.39163
-3.56917
-4.29623
-3.14424
-2.86049
-2.04086
-1.67774
-14.4063
-14.9458
-12.8439
-9.38357
-5.26075
-2.89116
-3.36859
-5.29815
-6.17287
-2.8404
0.071373
3.07402
-0.0438525
-0.808423
-1.90784
3.66806
1.86565
0.420661
14.1817
7.32297
1.7748
172.133
132.52
8.22137
533.879
505.943
477.375
418.049
391.54
451.402
4395.28
4068.06
4221.46
4282.9
4214.52
4342.86
-10.4402
-12.5554
-11.1894
-10.9404
-10.8571
-7.95722
30.5222
30.2351
29.8351
30.7445
32.1816
30.3321
-39.7317
-41.9574
-42.0474
-41.7794
-39.3769
-35.6328
36.2785
12.3494
14.2092
27.3868
31.2047
17.6012
13.7163
10.8702
11.1223
11.6884
14.9788
11.6637
-50.4323
-49.65
-50.1971
-49.9687
-48.8136
-50.3006
-21.6633
-22.9396
-22.6078
-21.7507
-18.5965
-21.8338
14.0246
2.79914
0.0940407
12.727
11.6541
0.873415
-22.1696
-28.004
-27.4725
-21.7573
-7.0649
-26.9005
14.134
5.31679
3.68582
18.2241
25.8201
11.615
1.60406
2.50892
2.81077
1.66211
-3.47993
1.19291
37.6795
10.6112
17.9868
40.3907
43.1706
17.609
55.9271
49.3373
48.4873
48.8968
46.0138
47.4396
-6.42117
-0.577055
-2.86649
-15.5449
-20.4836
0.938013
63.3401
62.0934
62.03
62.2136
62.7601
48.3242
3.72871
3.43232
6.57374
3.87501
4.27406
9.48549
-4.4798
-5.23616
-5.08379
-3.98845
-3.62984
-5.39828
32.9503
29.5496
29.0584
28.7975
24.1623
28.7178
9.89328
9.67047
9.66994
9.72507
9.83251
9.49719
3.87726
3.7949
3.78568
3.84423
3.8654
3.76035
20.1798
20.3832
20.3197
20.1811
20.2448
21.2358
11.9379
11.785
11.7334
11.7707
11.7315
11.6876
3.9191
3.88276
3.87711
3.90998
3.92529
3.86225
6.05207
6.14984
6.08534
5.9275
5.77857
6.14687
5.35125
5.37359
5.36526
5.34558
5.33228
5.46435
2.50988
2.51789
2.52103
2.52349
2.53361
2.52228
-0.308972
-0.318161
-0.410878
-0.46387
-0.597724
-0.543888
0.874261
0.852805
0.799315
0.786883
0.732957
0.682539
2.45048
2.46306
2.45777
2.45343
2.44742
2.48245
-3.92144
-3.90935
-4.00799
-4.15292
-4.2419
-4.15306
-0.881373
-0.870651
-0.930464
-0.980366
-1.04112
-1.04181
-0.397496
-0.403008
-0.400843
-0.399642
-0.397567
-0.397402
241.546
243.905
244.825
243.478
244.915
245.06
4.55863
4.47297
4.4815
4.54743
4.56563
4.44956
-4.99964
-5.01684
-5.01996
-5.00355
-5.00541
-5.01995
2158.86
2151.12
2141.19
2122.19
2124.99
2151.28
4.80864
4.89586
5.08802
5.34749
5.68497
5.61708
-5.65281
-5.69191
-5.90542
-6.21623
-6.39843
-6.39697
2240.11
2262.07
2283.49
2278.67
2262.16
2277.38
2.61602
2.67997
2.80486
2.91845
3.03495
2.98142
-4.99972
-5.06411
-5.16183
-5.27694
-5.33088
-5.36205
2368.91
2369.97
2371.96
2373.87
2374.12
2373.71
3.90897
3.92864
3.9573
3.99038
4.02019
4.04881
-4.73969
-4.76152
-4.80945
-4.86525
-4.9121
-4.92813
2354.39
2350.97
2349.82
2352.86
2358.5
2358.13
3.94621
3.95756
3.98202
4.0091
4.03115
4.03072
-5.08867
-5.09687
-5.11531
-5.14178
-5.16207
-5.16933
2337.23
2333.66
2332.43
2334.89
2340.24
2340.17
4.83648
4.846
4.857
4.87497
4.87891
4.8796
-5.79657
-5.79717
-5.80666
-5.82743
-5.84955
-5.84757
2107.82
2106.66
2105.68
2103.82
2104.54
2106.38
6.55969
6.55568
6.57074
6.5926
6.6215
6.58188
-7.66045
-7.67123
-7.66794
-7.66257
-7.66001
-7.68691
4379.19
4395.65
4276.43
3491.85
2732.36
4287.55
3032.83
428.999
3605.65
3792.98
261.997
1836.1
507.544
-49.0413
685.154
995.306
-30.3424
182.899
1004.67
1534.98
1074.61
519.518
496.307
40.5215
-34.6167
1095.67
-31.1818
-4.40917
332.379
-19.584
-22.5369
88.7038
-18.1375
-13.0973
18.3471
-11.7924
-5.75614
-7.88726
-3.69086
-3.11969
-5.69533
-10.6013
-10.6885
-1.11988
-5.01847
-0.685487
4.40174
-3.62712
-2.24054
-0.78724
-1.66531
-2.09377
-1.88241
-0.964629
15.1134
16.0995
15.7866
13.7622
12.1132
9.72047
5.71436
7.37933
8.05368
5.88134
4.14795
2.81974
0.565068
0.736573
1.5345
1.0577
0.627525
0.447783
10.5451
11.3482
11.4406
10.502
9.49152
8.43944
2.30695
3.18455
3.23289
3.082
2.53386
2.2915
1.36693
1.39564
1.39753
1.43981
1.47585
1.4734
9.74266
10.3608
10.5624
10.1288
9.62505
9.20704
2.61332
3.14348
3.02703
2.5929
2.11745
2.25582
1.98758
1.87461
1.95805
2.0855
2.11903
2.02001
7.42832
7.80891
8.82503
8.33679
7.94972
8.06277
-0.187824
0.227772
0.203273
0.154686
0.0637444
0.119978
1.5093
1.21961
1.17844
1.85547
2.21737
2.19871
3.13794
2.83497
4.33418
5.22526
5.69681
5.98947
-2.69616
-3.08048
-3.22676
-2.53402
-1.75242
-1.28441
0.90019
0.755295
0.689906
1.52081
1.81335
1.93573
3.38268
1.82123
1.44513
1.86718
2.72409
4.0371
-3.83826
-4.2059
-4.37694
-4.30099
-3.06079
-3.51695
2.53006
2.60881
2.68596
2.84718
2.9459
2.99326
4.78058
3.10163
1.36552
-1.4012
-1.36361
-1.58911
-5.93303
-5.43112
-5.29567
-6.93301
-6.51109
-7.50232
3.14182
3.07542
2.93505
2.97072
3.11959
3.06017
4.60056
3.90371
2.39338
-6.4811
-6.38623
-3.5661
-7.79668
-7.46951
-6.71524
-7.43007
-7.44249
-7.17697
3.60546
3.44161
2.95307
2.17482
2.04644
2.03123
751.462
638.826
515.754
506.059
546.216
658.426
-3.58689
-3.07453
-2.35196
-2.06079
-2.04296
-1.98699
-5.80098
-5.21772
-5.03617
-5.42463
-5.90157
-6.05364
)
;

boundaryField
{
    seabed_topleft_surface
    {
        type            fixedFluxPressure;
        gradient        uniform 0;
        value           nonuniform List<scalar> 
72
(
25866.8
25867.2
25867.6
25867.4
25867.5
25867
26120.3
26121.8
26121.2
26121.2
26121.4
26120.2
23806.6
23808.1
23807.6
23807.2
23806.5
23806.4
20895.9
20897.9
20896.7
20896.3
20895.3
20895.9
17422.3
17419.9
17419.3
17420
17418.4
17415.2
13754
13754.7
13750.2
13747.9
13737.2
13744.8
10869.3
10889.6
10886.2
10869.3
10852.4
10891.9
9311.59
9317.74
9318.42
9304.14
9298.24
9309.15
8958.35
8952.71
8955.42
8951.06
8954.33
8935.41
8967.88
8950.84
8953.69
8964.67
8974.92
8940.38
9014.46
9015.3
9011.62
9016.56
9008.39
9021.24
9539.09
9536.2
9537.71
9540.72
9542.86
9547.14
)
;
    }
    seabed_topright_surface
    {
        type            fixedFluxPressure;
        gradient        uniform 0;
        value           nonuniform List<scalar> 
72
(
2642.31
2634.12
2674.54
2645.9
2630.7
2605.79
2461.33
2469.54
2482.89
2422.02
2368.42
2377.77
1814.35
1683.49
1731.32
1857.54
1866.77
1933.95
860.648
1038.15
1077.02
1053.03
1167.86
1303.28
634.493
661.081
633.642
454.324
654.397
558.859
632.436
537.792
397.393
243.353
474.27
375.902
654.02
592.656
441.203
365.607
444.79
594.405
641.432
649.524
661.042
610.351
446.152
587.947
623.269
655.437
671.592
587.702
484.585
571.155
495.926
576.695
679.674
539.841
515.934
590.086
541.294
608.44
764.426
778.835
754.082
676.916
694.357
702.672
920.025
899.022
873.876
783.14
)
;
    }
    breakwater_top_surface
    {
        type            fixedFluxPressure;
        gradient        uniform 0;
        value           nonuniform List<scalar> 
36
(
2158.86
2151.12
2141.19
2122.19
2124.99
2151.28
2240.11
2262.07
2283.49
2278.67
2262.16
2277.38
2368.91
2369.97
2371.96
2373.87
2374.12
2373.71
2354.39
2350.97
2349.82
2352.86
2358.5
2358.13
2337.23
2333.66
2332.43
2334.89
2340.24
2340.17
2107.82
2106.66
2105.68
2103.82
2104.54
2106.38
)
;
    }
    breakwater_left_surface
    {
        type            fixedFluxPressure;
        gradient        uniform 0;
        value           nonuniform List<scalar> 
24
(
9539.09
9536.2
9537.71
9540.72
9542.86
9547.14
4324.95
4349.71
4359.57
4317.3
4307.43
4374.84
1092.01
1098.54
1089.78
1089.01
1054.09
1080.84
504.832
448.681
466.291
514.954
563.49
458.913
)
;
    }
    breakwater_right_surface
    {
        type            fixedFluxPressure;
        gradient        uniform 0;
        value           nonuniform List<scalar> 
24
(
694.357
702.672
920.025
899.022
873.876
783.14
187.074
75.5444
97.009
343
398.713
158.207
-13.1887
123.877
230.407
77.869
5.78924
6.52969
533.879
505.943
477.375
418.049
391.54
451.402
)
;
    }
    water_front_surface
    {
        type            fixedFluxPressure;
        gradient        uniform 0;
        value           nonuniform List<scalar> 
186
(
25866.8
26120.3
23806.6
20895.9
17422.3
13754
10869.3
9311.59
8958.35
8967.88
9014.46
9539.09
26834.6
27771.4
23929.6
18886.1
12491.9
6561.05
3070.98
2024.5
2471.38
2677.62
2758.16
4324.95
27918
18692.9
11197
6090.43
2689.34
855.975
190.549
459.248
535.729
576.494
902.3
1092.01
28236.8
2476.97
-27.4985
14.5846
37.1556
2.64214
49.1301
8.38274
6.06174
8.74582
120.893
504.832
2642.31
2461.33
1814.35
860.648
634.493
632.436
654.02
641.432
623.269
495.926
541.294
694.357
2669.59
2257.74
530.275
75.2966
9.47348
9.18542
-6.52704
-13.0449
10.0558
45.7496
80.0394
187.074
3104.37
2594.83
493.605
20.4345
17.1805
12.3796
4.82381
-4.68222
-1.32272
5.28804
10.1812
-13.1887
3739.19
3025.43
537.278
7.93439
7.91042
3.96303
-3.56917
-14.4063
-3.36859
-0.0438525
14.1817
533.879
4395.28
-10.4402
30.5222
-39.7317
36.2785
13.7163
-50.4323
-21.6633
14.0246
-22.1696
14.134
1.60406
37.6795
55.9271
-6.42117
63.3401
3.72871
-4.4798
32.9503
9.89328
3.87726
20.1798
11.9379
3.9191
6.05207
5.35125
2.50988
-0.308972
0.874261
2.45048
-3.92144
-0.881373
-0.397496
241.546
4.55863
-4.99964
2158.86
4.80864
-5.65281
2240.11
2.61602
-4.99972
2368.91
3.90897
-4.73969
2354.39
3.94621
-5.08867
2337.23
4.83648
-5.79657
2107.82
6.55969
-7.66045
4379.19
3032.83
507.544
1004.67
-34.6167
-22.5369
-5.75614
-10.6885
-2.24054
15.1134
5.71436
0.565068
10.5451
2.30695
1.36693
9.74266
2.61332
1.98758
7.42832
-0.187824
1.5093
3.13794
-2.69616
0.90019
3.38268
-3.83826
2.53006
4.78058
-5.93303
3.14182
4.60056
-7.79668
3.60546
751.462
-3.58689
-5.80098
)
;
    }
    water_back_surface
    {
        type            fixedFluxPressure;
        gradient        uniform 0;
        value           nonuniform List<scalar> 
186
(
25867
26120.2
23806.4
20895.9
17415.2
13744.8
10891.9
9309.15
8935.41
8940.38
9021.24
9547.14
26835.3
27770
23925.5
18883.1
12450.2
6574.53
3107.53
1985.44
2458.62
2639.68
2789.29
4374.84
27918.5
18729.5
11187.7
6142.81
2493.9
804.627
207.186
323.404
522.095
585.352
866.82
1080.84
28206.5
2496.54
-28.2165
11.2957
37.9254
2.52154
53.8844
15.8879
4.10952
8.43911
123.795
458.913
2605.79
2377.77
1933.95
1303.28
558.859
375.902
594.405
587.947
571.155
590.086
676.916
783.14
2606.59
2224.31
743.365
164.143
119.773
70.4926
-6.31989
-16.7754
3.92687
31.4007
52.7416
158.207
3111.26
2573.62
907.281
24.01
19.4472
13.7502
9.05557
4.02695
9.30981
13.7861
15.5723
6.52969
3670.01
1946.99
60.1958
12.5993
7.92381
2.39163
-1.67774
-2.89116
3.07402
0.420661
8.22137
451.402
4342.86
-7.95722
30.3321
-35.6328
17.6012
11.6637
-50.3006
-21.8338
0.873415
-26.9005
11.615
1.19291
17.609
47.4396
0.938013
48.3242
9.48549
-5.39828
28.7178
9.49719
3.76035
21.2358
11.6876
3.86225
6.14687
5.46435
2.52228
-0.543888
0.682539
2.48245
-4.15306
-1.04181
-0.397402
245.06
4.44956
-5.01995
2151.28
5.61708
-6.39697
2277.38
2.98142
-5.36205
2373.71
4.04881
-4.92813
2358.13
4.03072
-5.16933
2340.17
4.8796
-5.84757
2106.38
6.58188
-7.68691
4287.55
1836.1
182.899
40.5215
-19.584
-11.7924
-10.6013
-3.62712
-0.964629
9.72047
2.81974
0.447783
8.43944
2.2915
1.4734
9.20704
2.25582
2.02001
8.06277
0.119978
2.19871
5.98947
-1.28441
1.93573
4.0371
-3.51695
2.99326
-1.58911
-7.50232
3.06017
-3.5661
-7.17697
2.03123
658.426
-1.98699
-6.05364
)
;
    }
    water_left_surface
    {
        type            fixedFluxPressure;
        gradient        uniform 0;
        value           nonuniform List<scalar> 
42
(
25866.8
25867.2
25867.6
25867.4
25867.5
25867
26834.6
26835.2
26835.4
26836
26836.9
26835.3
27918
27915.1
27914.9
27918.1
27918.9
27918.5
28236.8
28122.3
28165.6
28203.5
28188.4
28206.5
4395.28
4068.06
4221.46
4282.9
4214.52
4342.86
-10.4402
-12.5554
-11.1894
-10.9404
-10.8571
-7.95722
30.5222
30.2351
29.8351
30.7445
32.1816
30.3321
)
;
    }
    water_right_surface
    {
        type            fixedFluxPressure;
        gradient        uniform 0;
        value           nonuniform List<scalar> 
42
(
2642.31
2634.12
2674.54
2645.9
2630.7
2605.79
2669.59
2566.91
2685.4
2706.09
2631.57
2606.59
3104.37
3129.11
3045.33
3117.44
3029.86
3111.26
3739.19
3721.32
3656.36
2071.57
2642.19
3670.01
4379.19
4395.65
4276.43
3491.85
2732.36
4287.55
3032.83
428.999
3605.65
3792.98
261.997
1836.1
507.544
-49.0413
685.154
995.306
-30.3424
182.899
)
;
    }
    water_top_surface
    {
        type            totalPressure;
        rho             rho;
        psi             none;
        gamma           1;
        p0              uniform 0;
        value           nonuniform List<scalar> 
180
(
0
0
0
0
0
0
0
0
0
0
0
0
0
0
0
0
0
0
0
0
0
0
-0.00589546
0
-9.8046
-5.64843
-5.96526
-12.2648
-15.5342
-3.0589
-11.1966
-11.8549
-11.7752
-10.5745
-10.4053
-11.3211
-1.37876
-1.53223
-1.50694
-1.38639
-1.31539
-1.55861
0
-0.00062453
-0.000505775
-0.000142897
-6.30669e-05
-0.000364613
0
0
0
0
0
0
-0.307046
-0.304043
-0.308899
-0.309331
-0.321144
-0.301287
-2.1214
-2.11166
-2.12253
-2.12885
-2.14651
-2.12593
-0.971462
-1.0131
-1.01424
-0.997378
-0.993238
-1.02254
-0.245338
-0.249967
-0.241
-0.217002
-0.199852
-0.201016
-1.64291
-1.70473
-1.67607
-1.62656
-1.56394
-1.61905
-0.948603
-0.949151
-0.936716
-0.943055
-0.947498
-0.938701
-1.17873
-1.19174
-1.18767
-1.18764
-1.18812
-1.18242
-1.247
-1.25197
-1.24762
-1.24302
-1.24763
-1.24391
-0.229235
-0.228324
-0.226828
-0.221959
-0.219451
-0.224058
0
-41.2614
0
0
-17.2167
0
-6.56347
0
-3.91661
-0.0101942
0
-6.58674
0
-0.0485136
-0.623668
-0.235877
0
0
-0.225673
-0.327278
-0.186408
-0.452754
-0.871875
-0.62827
0
0
0
0
0
0
0
0
0
0
0
0
0
0
0
0
0
0
0
0
0
0
0
0
0
0
0
0
0
0
-0.391244
-0.441971
-0.537385
-0.608989
-0.542447
-0.627983
-1.53565
-1.70462
-1.73395
-2.07854
-2.03666
-2.06664
-1.69707
-1.58884
-1.55342
-1.82803
-2.24038
-1.6407
)
;
    }
}


// ************************************************************************* //
