/*--------------------------------*- C++ -*----------------------------------*\
| =========                 |                                                 |
| \\      /  F ield         | OpenFOAM: The Open Source CFD Toolbox           |
|  \\    /   O peration     | Version:  v1612+                                |
|   \\  /    A nd           | Web:      www.OpenFOAM.com                      |
|    \\/     M anipulation  |                                                 |
\*---------------------------------------------------------------------------*/
FoamFile
{
    version     2.0;
    format      ascii;
    class       volVectorField;
    location    "2.3";
    object      U;
}
// * * * * * * * * * * * * * * * * * * * * * * * * * * * * * * * * * * * * * //

dimensions      [0 1 -1 0 0 0 0];

internalField   nonuniform List<vector> 
320
(
(-4.39219e-06 -2.66374e-06 3.2991e-06)
(-2.03832e-06 -3.51117e-06 -7.01871e-07)
(-3.21519e-06 6.34339e-07 -4.77316e-06)
(-1.98493e-07 1.49593e-06 -7.74845e-06)
(-0.000263 6.62685e-05 -6.48563e-05)
(3.77913e-05 3.65042e-05 -0.000108975)
(0.000147311 -8.93037e-07 -5.61819e-05)
(3.12876e-05 9.62226e-05 1.67587e-05)
(-2.24335e-06 -3.15035e-05 0.000110266)
(-1.69082e-05 -7.3599e-05 -0.000213763)
(-0.000189784 -4.76455e-05 -3.36926e-05)
(-2.76162e-05 -1.76558e-05 7.33869e-05)
(-4.77542e-05 2.26907e-05 -1.01139e-05)
(-0.000174065 -9.07938e-05 2.2486e-05)
(-0.000296351 -9.87632e-05 -0.000175699)
(-0.000300403 -0.00012221 0.000186322)
(-2.14928e-06 7.65822e-06 8.29974e-06)
(5.27807e-06 3.59902e-06 1.17614e-05)
(2.88939e-06 -7.37606e-06 3.36568e-06)
(-7.20274e-06 -3.13455e-06 -7.46529e-06)
(7.07152e-06 -1.79434e-06 -4.35862e-06)
(1.10754e-05 -4.42694e-07 2.59392e-06)
(-1.54744e-06 2.36473e-06 -2.22811e-06)
(2.07176e-06 -4.2173e-06 -3.90166e-06)
(-4.99187e-06 -3.02133e-06 6.98527e-06)
(-3.50404e-06 -9.85839e-06 3.19634e-06)
(1.7905e-06 -8.30402e-07 6.74626e-06)
(-4.82996e-06 -8.18928e-07 -7.27841e-06)
(1.51832e-06 2.39748e-07 6.78397e-06)
(-2.21118e-06 1.95291e-07 1.04745e-05)
(-2.99058e-06 -1.06148e-06 3.80761e-06)
(-1.67154e-06 -6.51069e-07 -7.12027e-06)
(1.98711e-07 2.93489e-06 -3.63719e-06)
(-1.84099e-07 -7.97461e-07 1.03561e-06)
(2.62222e-07 2.0819e-06 -3.56658e-06)
(-3.40364e-06 1.83677e-06 -3.25085e-06)
(-1.4488e-06 9.85695e-07 3.45854e-06)
(-1.24585e-06 5.07599e-07 4.11247e-06)
(3.14961e-07 1.22236e-06 7.8349e-06)
(1.33815e-06 3.65745e-06 -3.63814e-06)
(-2.56594e-06 -1.1922e-06 -2.23929e-07)
(-1.88317e-06 -2.2854e-06 -1.01579e-06)
(-1.79448e-06 -2.4901e-07 -8.39668e-07)
(-6.15504e-07 5.09334e-07 -1.69726e-06)
(1.5983e-06 9.84229e-07 1.57839e-06)
(-1.27143e-06 2.55761e-07 1.21043e-06)
(-2.40043e-06 -8.44361e-07 2.07905e-07)
(-1.90941e-06 -5.36277e-07 -1.25204e-06)
(8.05586e-08 1.82975e-06 -5.72935e-07)
(1.59877e-07 -4.84051e-07 4.21786e-07)
(1.95591e-07 1.36542e-06 -4.3146e-07)
(-1.79752e-06 8.20052e-07 -8.41299e-08)
(-1.62324e-06 6.69314e-07 1.70338e-06)
(-5.53782e-07 -2.59088e-07 4.07487e-07)
(6.31261e-07 1.10739e-06 1.7111e-06)
(8.91049e-07 2.70108e-06 -3.78562e-07)
(-0.000175576 9.30861e-05 0.000178523)
(-0.000210894 0.000182851 -8.14651e-05)
(5.19387e-05 -5.43811e-05 -8.97181e-05)
(7.21561e-05 -5.75168e-05 -6.34451e-06)
(4.53275e-05 7.41171e-05 8.69267e-05)
(9.14522e-05 -4.15876e-06 0.000122758)
(-7.52405e-05 -4.6589e-05 0.000121213)
(-0.000252151 -0.000114145 0.000151416)
(-0.000119449 -0.000228129 0.00010227)
(-5.64022e-05 -0.000316801 -6.13499e-05)
(-0.000182504 -8.22383e-05 1.86252e-05)
(-8.00664e-05 -8.73048e-05 1.99164e-05)
(-0.000131512 -0.00010098 -3.54326e-05)
(-5.97491e-05 -3.15674e-05 0.000135326)
(3.14626e-05 3.84462e-06 -5.14571e-05)
(-9.56775e-05 -0.000131529 -3.73161e-05)
(4.76953e-05 -0.0001057 0.000134418)
(1.8837e-06 3.2227e-05 0.000177833)
(0.000133634 0.000187773 0.000183657)
(0.000216086 0.000299834 4.44932e-05)
(-2.96063e-06 3.25225e-06 -1.06204e-05)
(-1.37229e-07 1.55867e-07 -2.4914e-06)
(7.06056e-06 1.87549e-06 -1.32591e-06)
(1.33187e-06 9.26715e-07 -8.03799e-07)
(-8.57163e-06 9.57261e-06 -5.75422e-06)
(-4.96261e-06 -4.93602e-06 -5.2092e-06)
(-3.89026e-06 6.26931e-07 -1.03361e-05)
(-1.36452e-06 6.21086e-06 -1.23384e-05)
(7.53317e-06 -4.02459e-06 -6.41896e-06)
(9.66887e-06 -9.87053e-06 1.3696e-05)
(6.8199e-07 4.56231e-07 -5.79993e-06)
(3.55512e-06 4.99589e-06 -5.10691e-06)
(5.11915e-07 1.67441e-07 1.28944e-06)
(-7.73891e-06 -1.38645e-06 1.42713e-06)
(-5.67237e-06 -1.59781e-07 2.63383e-06)
(-6.98529e-06 1.70978e-08 2.94264e-06)
(9.41075e-06 -1.4382e-06 -2.89718e-06)
(8.76299e-06 1.03729e-06 -1.14533e-05)
(1.633e-06 2.9073e-06 -5.0121e-06)
(4.27287e-06 4.836e-06 5.47168e-06)
(-2.80234e-06 1.48127e-06 -7.47977e-06)
(-9.29881e-07 2.1515e-06 -3.33763e-06)
(-7.37059e-07 3.78358e-06 -7.11812e-07)
(-1.25001e-07 2.21828e-06 1.08798e-06)
(2.55147e-06 -1.36024e-08 -1.98929e-06)
(-1.89393e-06 -1.35118e-06 -1.72929e-06)
(1.53192e-06 -3.2184e-07 -8.1434e-06)
(3.43209e-06 2.9833e-06 -8.68981e-06)
(2.20066e-06 5.29993e-06 -1.58307e-06)
(8.03181e-07 3.21923e-06 1.27628e-05)
(3.41673e-06 -1.59733e-06 -5.49069e-06)
(-2.83273e-06 1.21061e-06 -3.91221e-06)
(-2.11897e-06 2.31881e-06 -1.91174e-09)
(-1.57783e-06 -8.40833e-07 1.45782e-06)
(-1.39987e-06 2.18415e-06 2.44168e-06)
(2.18833e-06 2.16883e-06 2.4732e-06)
(4.99464e-08 2.3981e-06 -1.25182e-06)
(7.69577e-08 -7.97791e-08 -7.91418e-06)
(-2.66169e-06 -2.87765e-06 -2.84027e-06)
(-5.60656e-06 2.80666e-07 4.57023e-06)
(-2.08418e-06 6.24878e-07 -9.79945e-07)
(-1.20629e-07 1.43756e-06 -1.90684e-07)
(-5.45848e-08 2.53029e-06 -1.05112e-06)
(-5.99456e-07 1.72587e-06 -3.67908e-07)
(9.89037e-07 2.58426e-07 -9.03803e-07)
(-1.46742e-06 -1.05419e-06 -8.08743e-07)
(7.39128e-07 1.95587e-07 -1.87623e-06)
(2.57763e-06 2.57862e-06 -1.6586e-06)
(1.88798e-06 3.49903e-06 -5.39958e-07)
(1.00506e-06 2.58021e-06 2.02855e-06)
(2.21417e-06 -3.49976e-07 -1.41696e-06)
(-1.91961e-06 1.05887e-06 -7.07598e-07)
(-1.09838e-06 2.01192e-06 2.42723e-07)
(-1.73188e-06 -9.29184e-08 5.50062e-07)
(-1.49932e-06 1.41432e-06 7.0796e-07)
(5.77707e-07 1.99815e-06 3.58859e-07)
(-5.15811e-08 2.00549e-06 -2.6211e-07)
(-5.51594e-08 2.52629e-07 -1.03921e-06)
(-2.17737e-06 -1.73122e-06 -6.48008e-08)
(-3.81328e-06 -1.45526e-07 1.18451e-06)
(-1.69735e-06 -2.82122e-07 2.51938e-07)
(-9.16611e-07 -5.88908e-07 -7.92623e-08)
(-1.04223e-06 5.02071e-07 -2.93396e-07)
(-5.9837e-07 6.79335e-07 -6.65163e-07)
(2.16223e-08 3.72031e-07 6.32404e-07)
(-9.72045e-07 3.21077e-07 1.01817e-06)
(-1.03537e-06 -8.92721e-08 2.61179e-07)
(-9.67079e-07 9.15536e-08 -6.84324e-07)
(-6.65716e-08 1.06816e-06 -3.93e-07)
(-1.54136e-07 -1.86641e-07 -3.02392e-08)
(-3.50522e-07 8.66145e-07 -3.83693e-07)
(-1.35145e-06 5.53861e-07 -5.12512e-07)
(-9.58652e-07 7.4538e-07 9.77943e-08)
(-5.81301e-07 3.33434e-07 6.3656e-08)
(-4.4126e-07 4.74949e-07 7.89808e-07)
(-5.98575e-08 1.24433e-06 -6.10824e-07)
(-1.28497e-06 7.08065e-07 -8.22466e-07)
(-7.74094e-07 9.16934e-07 -4.47832e-07)
(-4.55309e-07 1.20513e-06 -1.10375e-07)
(-2.72224e-07 8.24412e-07 2.35159e-08)
(5.49687e-07 2.81415e-07 -4.32706e-07)
(-4.96144e-07 -3.73777e-07 -3.77695e-07)
(2.56951e-07 3.79895e-07 -1.11774e-06)
(8.08349e-07 1.49228e-06 -6.41357e-07)
(6.67153e-07 1.52927e-06 -1.20843e-07)
(5.07943e-07 1.26784e-06 1.27403e-06)
(5.96556e-07 -4.70559e-08 -8.17246e-07)
(-1.33887e-06 7.37909e-07 -2.9056e-07)
(-9.2147e-07 9.66332e-07 -1.44578e-07)
(-1.11468e-06 3.45372e-07 -7.9014e-08)
(-9.07308e-07 1.05736e-06 4.82127e-07)
(-5.95641e-08 1.08724e-06 1.32357e-07)
(-4.7668e-07 1.01946e-06 -3.83887e-07)
(-3.36697e-07 2.39322e-07 -8.74929e-07)
(-1.07389e-06 -4.71683e-07 -4.79748e-07)
(-1.89709e-06 2.76859e-07 2.80675e-07)
(0.000208603 0.000165142 -0.000101003)
(-0.000183317 9.43102e-05 6.61363e-05)
(-0.000115397 0.000172841 -0.000237426)
(0.000278796 -1.154e-06 2.18618e-05)
(1.87648e-05 -5.36984e-05 0.000113904)
(8.38189e-06 5.16328e-05 -3.37848e-05)
(-7.47979e-05 -1.67353e-05 1.08381e-05)
(-0.000143387 2.47927e-05 -2.66305e-06)
(-0.000123698 -0.000121197 5.06123e-05)
(-0.000260498 -0.000246455 -0.00013407)
(-0.000323333 -7.51972e-05 -0.000254151)
(-0.00022214 0.000121549 -8.6128e-05)
(2.55029e-05 -8.39869e-05 0.000107093)
(1.02848e-05 -0.000197019 -0.00010805)
(-0.000120744 -0.000182001 -0.000208722)
(-0.000245883 -0.000132715 -7.77049e-05)
(-0.000170839 -0.000118678 2.72379e-05)
(-8.34071e-05 -4.19621e-05 -3.54344e-05)
(-0.000152662 -0.000166752 -1.5164e-05)
(-5.80452e-05 5.11977e-05 8.30011e-05)
(6.72612e-05 -7.70268e-05 -2.64885e-05)
(-6.10785e-05 -6.92371e-05 2.84434e-05)
(-6.08899e-06 3.88507e-05 5.95681e-05)
(0.000109149 6.75833e-06 -0.000108021)
(0.000106088 -1.31152e-05 -2.28886e-05)
(6.39559e-05 9.19878e-05 -2.14238e-05)
(1.07039e-05 0.000168743 -7.61649e-05)
(-6.7464e-05 8.72023e-05 -0.000102718)
(2.89346e-06 4.22427e-06 -1.32245e-06)
(-1.49666e-07 3.51937e-06 -5.44533e-06)
(-7.72806e-07 1.4131e-06 2.38466e-06)
(4.50693e-06 4.15503e-06 -5.92279e-06)
(-4.80734e-06 3.96702e-06 -8.30204e-06)
(-6.48301e-06 1.02949e-05 -2.23798e-06)
(-1.41794e-06 1.87848e-06 8.22576e-06)
(-9.83431e-06 2.4476e-06 9.00922e-06)
(-8.54346e-06 -2.69483e-06 -9.79686e-06)
(-7.59273e-06 4.63191e-07 -1.33543e-07)
(-8.70647e-06 9.62863e-06 1.86658e-05)
(-4.17469e-06 1.05904e-05 1.21627e-05)
(5.90856e-06 -1.53569e-06 -9.69076e-06)
(4.16054e-06 -6.22456e-06 -3.30868e-06)
(5.54095e-06 -4.4762e-06 1.21545e-05)
(-3.79188e-06 -2.09656e-06 -4.84112e-06)
(-1.2587e-06 -2.48616e-09 -1.84639e-07)
(8.4542e-06 2.71721e-06 6.75669e-06)
(-4.66459e-06 -7.94477e-06 -1.38775e-06)
(-1.29438e-05 -3.57398e-07 3.08123e-06)
(-3.73875e-06 -6.73347e-07 1.07144e-05)
(-4.05454e-06 4.57214e-06 1.8226e-06)
(9.93546e-07 1.20616e-05 -7.90927e-06)
(7.9902e-06 5.88991e-06 -2.29914e-06)
(8.32185e-06 -8.60806e-06 5.36025e-06)
(-1.65534e-06 -5.30887e-06 5.2264e-06)
(1.05775e-07 4.51208e-06 1.32953e-05)
(-1.97861e-06 2.13957e-06 4.58731e-06)
(-3.63758e-06 1.72056e-06 -2.98846e-06)
(-5.32698e-07 5.90738e-07 -4.41766e-06)
(-7.83907e-07 -5.49031e-07 -7.48698e-07)
(-2.27797e-06 4.44756e-07 -5.45652e-06)
(8.06514e-07 9.91761e-07 -6.38233e-06)
(3.10806e-06 -4.86805e-07 -3.16217e-06)
(2.42593e-06 4.35152e-07 4.91751e-06)
(3.34788e-06 -2.78375e-06 6.22718e-06)
(-3.44113e-07 -2.08098e-06 -8.92235e-06)
(2.61802e-06 4.67496e-06 -3.52219e-06)
(4.65253e-06 3.60381e-06 1.35816e-05)
(3.23845e-06 -3.42628e-06 1.15332e-05)
(-4.07373e-06 -2.86008e-06 -4.87455e-06)
(-2.84089e-06 6.32873e-07 -2.72781e-06)
(9.37987e-07 -5.99936e-07 7.33017e-06)
(1.8246e-06 4.98066e-07 -5.50635e-06)
(-3.6539e-06 9.92235e-07 -1.63421e-07)
(-1.35226e-06 1.31921e-06 4.69874e-06)
(-1.31414e-06 2.25484e-07 -3.56516e-06)
(-3.34137e-06 1.05554e-06 3.58714e-06)
(-1.67984e-06 2.167e-06 1.11434e-05)
(-5.68377e-07 4.68885e-06 4.38545e-06)
(8.24773e-07 2.43555e-06 -6.40968e-06)
(-3.01686e-07 -1.60369e-06 -4.81536e-06)
(-3.17701e-06 -1.48933e-06 2.57762e-06)
(-1.71123e-06 -2.02622e-06 4.94894e-06)
(-2.32565e-06 5.0551e-07 1.05518e-05)
(-1.48642e-06 2.55979e-06 2.66755e-06)
(-2.83958e-06 7.21461e-07 -2.14643e-07)
(-6.92038e-07 7.38482e-08 -1.43238e-06)
(-3.07112e-07 -6.70682e-07 1.00406e-07)
(-1.55973e-06 2.6033e-07 -1.5137e-06)
(-1.28566e-07 8.34462e-07 -1.22344e-06)
(1.59049e-06 -2.10555e-07 -5.86463e-07)
(1.28163e-06 2.33004e-07 1.25679e-06)
(1.72519e-06 -1.33205e-06 1.63447e-06)
(-3.08847e-07 -1.09427e-06 -1.26691e-06)
(1.68511e-06 3.50877e-06 -1.62767e-07)
(3.00433e-06 2.9786e-06 1.93905e-06)
(2.0851e-06 -2.05662e-06 1.88367e-06)
(-2.55131e-06 -1.36419e-06 -1.11824e-06)
(-1.85929e-06 6.33056e-07 -6.58531e-07)
(8.73764e-07 -5.89576e-08 1.28919e-06)
(1.68122e-06 7.64351e-07 -1.21608e-06)
(-2.1663e-06 4.73986e-07 7.45694e-09)
(-6.45732e-07 1.01104e-06 1.14067e-06)
(-1.02564e-06 2.13365e-08 4.46203e-07)
(-2.63817e-06 3.04805e-07 1.41123e-06)
(-1.1438e-06 1.16018e-06 2.54899e-06)
(-2.88423e-07 3.12296e-06 1.02715e-06)
(5.64835e-07 2.11706e-06 -5.86685e-07)
(-1.69511e-07 -8.91954e-07 -2.20654e-07)
(-2.3326e-06 -1.0184e-06 1.02286e-06)
(-1.44055e-06 -1.05705e-06 1.03672e-06)
(-1.65844e-06 -3.73324e-08 2.58746e-06)
(-1.33235e-06 1.04755e-06 6.60014e-07)
(-1.5994e-06 3.32188e-07 -1.19927e-07)
(-6.9993e-07 2.96003e-07 -6.71059e-07)
(-4.7544e-07 -2.52855e-07 -1.01395e-08)
(-8.79524e-07 -2.65037e-09 -3.72888e-07)
(-1.11661e-07 1.71361e-07 -6.57335e-07)
(6.04203e-07 -1.63213e-07 -3.93809e-07)
(5.70684e-07 1.16843e-07 3.04645e-07)
(8.50741e-07 -2.75936e-07 4.50061e-07)
(1.33334e-08 -3.82009e-07 -7.51598e-07)
(8.42509e-07 1.39604e-06 -3.07914e-07)
(1.02948e-06 1.47836e-06 1.31716e-06)
(8.28594e-07 -4.87046e-07 1.13838e-06)
(-9.86834e-07 -3.32478e-07 -3.09774e-07)
(-7.71728e-07 2.47656e-07 1.20387e-07)
(3.81731e-07 3.25518e-08 1.14646e-06)
(3.758e-07 3.73868e-07 -3.73379e-07)
(-1.36391e-06 2.53305e-07 -7.15953e-08)
(-9.58912e-07 3.98907e-07 4.65485e-07)
(-1.04968e-06 2.90748e-07 -3.67697e-07)
(-1.23991e-06 3.33899e-07 4.47319e-07)
(-5.62898e-07 6.23352e-07 1.03541e-06)
(-2.73446e-07 1.52572e-06 5.10419e-07)
(-9.45333e-08 1.17601e-06 -5.43813e-07)
(-1.84678e-07 5.6301e-08 -4.3708e-07)
(-1.0577e-06 -1.22256e-07 3.62065e-07)
(-5.46257e-07 -3.16062e-07 3.95849e-07)
(-9.02076e-07 1.82549e-07 1.04336e-06)
(-6.40567e-07 5.93695e-07 6.13026e-07)
(-5.30258e-05 0.000157826 -0.000111275)
(-1.53469e-05 0.000102706 1.87855e-05)
(-6.15625e-05 0.000143043 1.95359e-05)
(-2.40542e-05 -6.60694e-05 3.72008e-05)
(4.2814e-06 2.36296e-06 2.56333e-06)
(-7.97342e-06 -3.55478e-06 -4.7613e-06)
(-4.87372e-06 -8.22039e-06 -5.71289e-06)
(-2.195e-07 -1.2067e-05 -8.4115e-06)
)
;

boundaryField
{
    top_fluid_surface
    {
        type            pressureInletOutletVelocity;
        value           nonuniform List<vector> 
64
(
(0 0 -6.48563e-05)
(0 0 -0.000108975)
(0 0 -5.61819e-05)
(3.12876e-05 9.62226e-05 1.67587e-05)
(-2.24335e-06 -3.15035e-05 0.000110266)
(0 0 -0.000213763)
(0 0 -3.36926e-05)
(-2.76162e-05 -1.76558e-05 7.33869e-05)
(0 0 -1.01139e-05)
(-0.000174065 -9.07938e-05 2.2486e-05)
(0 0 -0.000175699)
(-0.000300403 -0.00012221 0.000186322)
(-0.000175576 9.30861e-05 0.000178523)
(0 0 -8.14651e-05)
(0 0 -8.97181e-05)
(0 0 -6.34451e-06)
(4.53275e-05 7.41171e-05 8.69267e-05)
(9.14522e-05 -4.15876e-06 0.000122758)
(-7.52405e-05 -4.6589e-05 0.000121213)
(-0.000252151 -0.000114145 0.000151416)
(-0.000119449 -0.000228129 0.00010227)
(0 0 -6.13499e-05)
(-0.000182504 -8.22383e-05 1.86252e-05)
(-8.00664e-05 -8.73048e-05 1.99164e-05)
(0 0 -3.54326e-05)
(-5.97491e-05 -3.15674e-05 0.000135326)
(0 0 -5.14571e-05)
(0 0 -3.73161e-05)
(4.76953e-05 -0.0001057 0.000134418)
(1.8837e-06 3.2227e-05 0.000177833)
(0.000133634 0.000187773 0.000183657)
(0.000216086 0.000299834 4.44932e-05)
(0 0 -0.000101003)
(-0.000183317 9.43102e-05 6.61363e-05)
(0 0 -0.000237426)
(0.000278796 -1.154e-06 2.18618e-05)
(1.87648e-05 -5.36984e-05 0.000113904)
(0 0 -3.37848e-05)
(-7.47979e-05 -1.67353e-05 1.08381e-05)
(0 0 -2.66305e-06)
(-0.000123698 -0.000121197 5.06123e-05)
(0 0 -0.00013407)
(0 0 -0.000254151)
(0 0 -8.6128e-05)
(2.55029e-05 -8.39869e-05 0.000107093)
(0 0 -0.00010805)
(0 0 -0.000208722)
(0 0 -7.77049e-05)
(-0.000170839 -0.000118678 2.72379e-05)
(0 0 -3.54344e-05)
(-0.000152662 -0.000166752 -1.5164e-05)
(-5.80452e-05 5.11977e-05 8.30011e-05)
(0 0 -2.64885e-05)
(-6.10785e-05 -6.92371e-05 2.84434e-05)
(-6.08899e-06 3.88507e-05 5.95681e-05)
(0 0 -0.000108021)
(0 0 -2.28886e-05)
(0 0 -2.14238e-05)
(0 0 -7.61649e-05)
(0 0 -0.000102718)
(0 0 -0.000111275)
(-1.53469e-05 0.000102706 1.87855e-05)
(-6.15625e-05 0.000143043 1.95359e-05)
(-2.40542e-05 -6.60694e-05 3.72008e-05)
)
;
    }
    bottom_fluid_surface
    {
        type            noSlip;
    }
    lateral_surface_1
    {
        type            noSlip;
    }
    lateral_surface_2
    {
        type            noSlip;
    }
    lateral_surface_3
    {
        type            noSlip;
    }
    lateral_surface_4
    {
        type            noSlip;
    }
}


// ************************************************************************* //
