/*--------------------------------*- C++ -*----------------------------------*\
| =========                 |                                                 |
| \\      /  F ield         | OpenFOAM: The Open Source CFD Toolbox           |
|  \\    /   O peration     | Version:  v1612+                                |
|   \\  /    A nd           | Web:      www.OpenFOAM.com                      |
|    \\/     M anipulation  |                                                 |
\*---------------------------------------------------------------------------*/
FoamFile
{
    version     2.0;
    format      ascii;
    class       volScalarField;
    location    "9.55";
    object      alpha.water;
}
// * * * * * * * * * * * * * * * * * * * * * * * * * * * * * * * * * * * * * //

dimensions      [0 0 0 0 0 0 0];

internalField   nonuniform List<scalar> 
1116
(
0.751908
0.753719
0.754416
0.749034
0.747502
0.753143
0.818123
0.820552
0.822908
0.819829
0.82142
0.822888
0.935995
0.93708
0.937849
0.936279
0.936008
0.937915
0.945358
0.945376
0.945399
0.94541
0.945417
0.945329
0.94557
0.945595
0.945615
0.945635
0.945646
0.94558
0.945802
0.945826
0.945846
0.945871
0.945887
0.945839
0.945895
0.945917
0.945938
0.945962
0.945973
0.945948
0.945917
0.945938
0.945962
0.945973
0.945973
0.945973
0.879931
0.876032
0.87834
0.877649
0.878328
0.878639
0.780724
0.779656
0.779656
0.780278
0.780675
0.77985
0.781081
0.781193
0.780783
0.780977
0.781492
0.780993
0.677034
0.666131
0.671335
0.675885
0.668754
0.6716
0.234917
0.238411
0.238821
0.235283
0.234405
0.238989
0.273139
0.273164
0.27342
0.274989
0.27626
0.27309
0.320843
0.316381
0.316387
0.322291
0.324226
0.315009
0.383724
0.379449
0.37839
0.382795
0.382803
0.375613
0.426801
0.424202
0.423281
0.426486
0.425777
0.421506
0.478177
0.476498
0.475997
0.478605
0.478334
0.476391
0.538062
0.536425
0.536042
0.53803
0.538477
0.537139
0.641207
0.640318
0.639853
0.639882
0.640229
0.640052
0.823146
0.82295
0.822642
0.821673
0.821757
0.821916
0.825709
0.825709
0.825704
0.825693
0.825677
0.825663
0.785563
0.792998
0.789959
0.790165
0.795521
0.784858
0.526532
0.525794
0.524076
0.526057
0.524556
0.523736
8.87669e-06
2.68299e-07
1.72922e-07
3.28715e-07
6.44193e-06
8.7788e-08
-1.53449e-10
2.54123e-10
3.80842e-10
2.19023e-10
-4.11446e-10
-1.10273e-11
1.20391e-14
3.0907e-12
3.11723e-12
1.94223e-12
-5.26472e-15
8.78853e-15
1.95177e-14
5.70835e-14
9.47515e-14
1.26281e-13
2.1792e-12
2.0153e-13
2.42321e-12
4.20274e-13
5.39602e-13
1.51842e-12
2.96935e-10
2.64048e-11
2.74506e-10
4.48394e-11
5.7239e-11
1.54548e-10
3.31002e-09
1.68638e-09
1.12839e-09
7.73393e-10
5.78393e-10
7.706e-10
1.0726e-09
5.67406e-10
7.19062e-10
5.21199e-10
5.14485e-10
5.18669e-10
3.64911e-10
1.93698e-10
5.77821e-05
0.000142938
0.000105613
9.93085e-05
8.47794e-05
0.000110896
0.0499144
0.0512934
0.0514061
0.0505475
0.0493591
0.0527769
0.338849
0.315934
0.322794
0.310208
0.296301
0.333656
0.527138
0.52687
0.525911
0.526806
0.52609
0.524896
1.16527e-05
-1.94725e-08
-1.23789e-08
-2.36408e-08
6.11112e-06
-6.78476e-09
1.43671e-14
-7.2638e-13
1.73166e-12
-8.44537e-13
-1.19355e-12
-3.03659e-15
2.85905e-14
3.11636e-14
5.23004e-14
-2.05052e-15
-1.52159e-13
-1.91937e-17
1.30689e-15
1.9536e-14
5.08315e-14
7.31636e-14
-1.40644e-17
2.82955e-15
-5.60682e-18
9.44037e-15
1.63223e-14
5.68778e-15
8.21999e-15
2.00546e-13
4.72088e-11
4.1831e-13
4.36134e-14
-5.05042e-15
6.31376e-08
4.80834e-09
8.5111e-08
9.50571e-09
2.14575e-08
5.01835e-08
9.03905e-08
7.26128e-09
1.39854e-09
1.38348e-09
9.45891e-10
6.89532e-10
1.22376e-10
2.38544e-10
-4.35156e-07
-2.04829e-06
-2.04326e-06
-2.08307e-06
-2.07507e-06
-2.42733e-06
5.02688e-05
5.66292e-05
5.47745e-05
5.3415e-05
5.10522e-05
5.70456e-05
0.00163918
0.00057875
0.000539772
0.000534748
0.00052742
0.000539177
0.510301
0.497234
0.500521
0.499389
0.491012
0.503855
0.0978893
0.0985173
0.0985229
0.0978013
0.0954529
0.0936046
0.0980415
0.0986983
0.0987313
0.0982244
0.0970694
0.0913826
0.0986452
0.098933
0.0989746
0.0989324
0.098808
0.095423
0.0989548
0.0990608
0.099011
0.0989746
0.0988405
0.0988429
0.0989912
0.0990241
0.0990336
0.0951185
0.0988446
0.0988147
0.0989588
0.0989877
0.0794045
0.0987525
0.0988144
0.0987131
0.0989069
0.0989557
0.0989069
0.0913832
0.0987127
0.0984212
0.0988567
0.0989072
0.0841231
0.0329895
0.098421
0.0981531
0.0685471
0.0750489
0.0396006
0.00669419
0.0470935
0.0642249
0.00781082
0.0250733
0.0246294
0.00627283
0.00816584
0.0366195
0.00495541
0.00554531
0.0208545
0.0208285
0.0167076
0.0320175
0.0101781
0.00650396
0.0163308
0.0208412
0.0208496
0.0230109
0.0217417
0.0389661
0.046055
0.0176488
0.00947555
0.00714359
0.0228088
0.0423083
0.0421308
0.0200453
0.0138199
0.00663202
0.0318187
0.0395865
0.0379676
0.0362116
0.0263159
0.0135408
0.0430255
0.0484482
0.0512925
0.0479933
0.0403867
0.0266048
0.0617531
0.0569273
0.0609465
0.0456147
0.0373998
0.0409505
0.086006
0.0601325
0.0398102
0.051611
0.0313862
0.0469708
0.0981865
0.0748154
0.0499082
0.0729001
0.0368258
0.0582409
0.0868508
0.098862
0.0799036
0.0547774
0.0775199
0.0830203
0.0330851
0.0976351
0.0744569
0.00803029
0.0751504
0.0842691
0.00397304
0.0667757
0.0441704
0.0058153
0.015531
0.0436014
0.00397304
0.00469316
0.00628216
0.00508072
0.00175411
0.00183594
0.00705721
0.00202758
0.00170462
0.00179387
0.00175411
0.00175411
7.50764e-09
4.68333e-09
4.61224e-09
4.27728e-09
4.61224e-09
9.839e-09
8.28583e-09
4.70136e-09
4.32184e-09
3.92549e-09
6.47676e-09
9.6677e-09
0.00231091
7.90631e-09
3.92549e-09
3.67827e-09
3.92538e-09
1.41087e-08
0.00197241
4.65038e-09
4.038e-09
3.92549e-09
4.03785e-09
1.96464e-08
5.13854e-07
0.00336037
0.00166026
4.0368e-09
1.96484e-08
1.02187e-07
1.65351e-06
0.0060919
0.00229678
7.8024e-09
5.23139e-08
4.14689e-08
1.23988e-06
0.00229673
0.00557931
6.15149e-09
6.60901e-09
1.06263e-08
7.77341e-05
0.00568256
0.0255468
0.0206149
1.54138e-09
2.54782e-09
0.0184194
0.0428983
0.0447607
0.0103794
0.0284546
0.0307401
0.0357813
0.0639064
0.0301562
0.00287512
0.0165437
0.0432807
0.0164716
0.0217053
0.00471904
0.00275141
0.00351089
0.0165259
0.00183217
0.00126985
0.00123113
0.0027164
0.00597983
0.00179024
4.91066e-07
4.55188e-07
2.13697e-08
5.80139e-06
9.39772e-07
2.84282e-07
2.96448e-06
3.33575e-07
2.00376e-08
1.64876e-07
7.48175e-07
2.76738e-07
1.65082e-08
4.82132e-07
3.81116e-09
3.0694e-09
8.65774e-07
2.73872e-05
1.32274e-08
8.45147e-08
2.76015e-08
5.20609e-09
1.96808e-06
3.69335e-05
5.51447e-09
7.35901e-09
8.64896e-09
8.89587e-09
8.99321e-07
1.23245e-05
1.06553e-07
8.64896e-09
1.0709e-08
1.0299e-08
7.38625e-08
1.15405e-08
1.92855e-07
6.52338e-08
6.13927e-09
1.22318e-09
1.54164e-09
5.91162e-09
1.06147e-07
7.00731e-09
1.22292e-09
8.31055e-10
1.2232e-09
1.58538e-09
0.00127343
1.06148e-07
0.00745559
0.0103358
0.00877195
2.54808e-09
0.00602634
0.0129726
0.0177002
0.00305558
0.0106992
0.01718
0.0139045
0.0157947
0.00262449
0.00322321
0.00604211
0.0138781
0.00450457
0.00124526
0.00123113
0.00525952
0.0125523
0.00333096
0.000117758
0.000105508
0.000108802
0.000115569
0.000116792
6.58606e-05
0.000118083
4.76286e-05
2.32567e-05
0.000119113
0.00011984
5.9355e-05
0.000116373
1.21481e-06
3.5444e-164
2.85492e-05
0.00011804
0.000117656
1.6389e-13
-1.43624e-10
-6.71654e-11
-5.19502e-11
1.04911e-20
-5.38137e-14
1.05806e-09
8.07159e-07
8.23024e-07
5.13291e-07
3.88637e-09
1.66329e-09
-1.52324e-19
3.91935e-08
4.0407e-18
-3.92879e-20
6.4021e-26
6.06104e-19
1.00917e-15
-4.12345e-14
6.43877e-13
3.54391e-13
7.34458e-18
8.37209e-14
-5.71814e-17
-2.17284e-12
-1.65581e-12
-1.96515e-12
5.02564e-18
7.37285e-18
6.25088e-19
-1.75319e-14
6.91379e-12
-2.81964e-18
1.34405e-18
5.70373e-19
7.41242e-18
1.19026e-15
1.01416e-14
-4.54713e-15
-7.01167e-14
-9.47917e-19
-3.99187e-17
-2.26762e-14
-8.89914e-15
-2.10617e-16
7.02659e-18
1.26754e-17
2.92152e-17
-2.56583e-17
2.89629e-15
9.9931e-18
7.76688e-18
1.69761e-19
-5.52656e-17
-2.26544e-18
4.51442e-15
4.49743e-20
-1.86177e-17
1.0239e-10
-9.90991e-16
3.37478e-18
-3.84215e-17
-1.31559e-16
1.69918e-17
4.66674e-13
4.94068e-19
4.71434e-17
4.27205e-17
2.88474e-18
3.24413e-18
6.02813e-23
1.24602e-09
8.48533e-10
-2.86299e-16
-1.37416e-13
1.21003e-08
6.9333e-09
-1.04499e-16
1.1761e-10
2.3724e-20
1.67471e-20
2.82229e-21
4.38387e-10
1.51088e-25
1.73338e-23
1.96554e-23
1.93661e-24
1.13589e-23
2.93956e-30
8.96881e-08
1.11757e-08
2.24439e-08
4.76816e-08
9.10704e-08
8.62891e-09
4.19894e-08
2.35163e-09
1.82183e-09
1.81854e-17
1.20458e-08
1.53996e-09
3.95677e-18
2.53568e-19
8.04214e-18
6.12612e-18
1.89879e-18
4.26341e-20
6.64627e-09
1.55546e-09
4.88139e-09
5.64048e-09
1.08151e-09
1.42777e-10
3.86597e-07
5.59242e-09
3.32467e-07
3.33589e-07
2.88302e-07
8.06706e-11
2.23811e-07
9.70946e-09
2.34467e-07
1.13603e-07
4.07988e-08
1.00752e-09
-5.42315e-08
-2.66387e-08
-2.3966e-09
4.24007e-09
-1.04445e-08
-2.28668e-08
5.79388e-08
3.87595e-09
9.35857e-08
1.44008e-07
4.85395e-08
-3.83287e-11
2.33162e-06
4.67272e-08
2.26607e-06
2.53088e-06
8.06011e-07
-3.06266e-16
3.65555e-06
3.69007e-06
3.61654e-06
3.63018e-06
3.45155e-06
3.75392e-06
2.17212e-07
5.7332e-08
1.95854e-07
5.59386e-07
1.51592e-07
4.85395e-08
1.22479e-06
4.78998e-08
1.26742e-06
1.67068e-06
4.22155e-07
8.00601e-18
0.00226694
0.00013755
0.000133638
0.000132057
0.000129788
0.000137164
0.00250357
0.000224861
0.000227488
0.000423265
0.000246677
0.00031551
0.000813821
8.44637e-05
9.16459e-05
0.000122459
0.000102921
9.09497e-05
0.154299
0.217459
0.209317
0.190577
0.19899
0.20625
8.83558e-05
0.000122467
9.38623e-05
5.03546e-05
0.000135739
0.000100395
7.80308e-05
7.04186e-06
1.95119e-06
1.83133e-06
4.24894e-06
2.8727e-06
0.0198029
0.0198029
0.0198029
0.0197617
0.0179959
0.0186291
0.00187405
0.000885698
1.86659e-05
2.66189e-05
2.77861e-05
0.000685513
2.54757e-05
1.7114e-05
1.7114e-05
3.93459e-05
2.94646e-05
2.01196e-05
0.0198015
0.0198029
0.0198028
0.019761
0.0187653
0.0186835
0.00013917
0.000149784
0.000145556
7.33463e-05
2.2324e-05
2.37444e-05
2.70309e-05
2.12521e-05
1.7114e-05
2.08212e-05
2.01196e-05
2.01196e-05
0.0143913
0.0148845
0.0151443
0.0144671
0.0142658
0.0150651
0.00344139
0.00266102
0.0029788
0.00349195
0.00306909
0.00240156
0.000147225
9.44016e-05
8.39548e-05
0.000171158
0.000158406
5.58662e-05
0.0149918
0.0152794
0.015505
0.0151655
0.0150649
0.0153916
0.0207495
0.0188093
0.0182266
0.020846
0.0209556
0.0174867
0.00205431
0.00160384
0.00151734
0.0019604
0.00188147
0.00144293
0.0957914
0.0821187
0.0776446
0.0944953
0.0973424
0.0777531
0.0240562
0.0293138
0.0251967
0.0247476
0.0273693
0.025638
9.53759e-21
3.72478e-18
2.7842e-20
-1.08116e-18
3.51629e-20
8.88451e-20
0.210994
0.216696
0.212883
0.208779
0.206165
0.207279
0.000384439
0.0150316
0.00888349
0.00485575
0.0102406
0.00989453
2.35204e-19
2.94795e-18
-7.32499e-13
-4.0048e-14
-1.15079e-14
-2.76608e-15
1.00711e-06
1.15344e-06
6.62875e-06
4.30498e-06
1.96667e-07
8.51416e-07
2.94082e-07
2.36297e-07
4.93705e-06
3.39621e-18
9.51584e-08
4.58613e-07
0
0
0
0
0
0
3.64695e-06
6.8622e-07
1.63946e-07
2.66107e-07
1.02153e-06
2.39037e-06
9.664e-07
5.63839e-08
9.72176e-08
2.52168e-18
1.18918e-07
1.00047e-06
0
1.07715e-69
7.41979e-66
2.8623e-55
3.58792e-61
5.48367e-66
2.9314e-06
5.98762e-07
3.62318e-08
2.68645e-09
8.07199e-07
1.74393e-07
2.03521e-07
1.01519e-12
5.0743e-09
2.68154e-09
3.2583e-14
1.72486e-07
0
-1.24973e-17
4.2922e-09
1.13964e-10
1.52539e-19
6.9503e-68
1.33277e-07
1.28325e-08
1.03698e-07
7.39915e-08
3.85535e-07
3.00607e-06
3.16346e-19
1.74964e-15
2.74553e-11
5.27222e-09
3.20112e-17
1.31028e-20
1.31789e-56
7.59579e-19
2.80505e-10
3.52755e-20
2.33864e-22
7.54053e-61
5.41202e-10
4.22452e-09
4.51589e-07
1.64257e-07
5.8802e-07
5.8426e-06
2.3903e-19
1.26198e-07
1.25065e-08
2.92886e-08
8.25906e-08
9.73154e-09
1.20734e-60
2.79132e-25
5.63573e-20
4.64463e-19
3.80689e-09
1.09113e-128
2.45693e-06
9.15498e-06
3.22994e-06
2.82206e-08
3.56928e-07
1.7269e-06
3.77456e-07
6.2493e-07
9.42424e-07
2.36293e-07
3.04099e-07
5.12426e-08
7.68894e-67
3.10474e-29
5.1197e-20
3.12325e-08
1.87105e-07
1.46723e-135
1.31911e-05
1.79189e-05
2.17449e-06
8.75267e-10
2.53206e-08
2.86699e-09
4.0018e-05
2.68424e-05
3.73052e-07
2.31923e-09
3.72344e-08
6.98642e-08
3.68078e-72
9.99218e-34
4.40465e-20
1.34769e-09
2.76117e-08
1.288e-07
1.8329e-07
2.11626e-08
6.8316e-10
4.38627e-10
9.00863e-10
1.58767e-09
-6.86211e-14
-1.13975e-15
1.61059e-12
2.19314e-10
4.38627e-10
1.62255e-09
5.06336e-71
1.41857e-31
-1.11018e-21
6.19028e-18
6.48683e-08
1.04155e-06
0.002839
0.000947859
0.00315561
0.00693509
0.00421336
0.000365429
0.000195921
0.000388201
0.00079605
0.00167352
0.000698977
0.000251102
1.54119e-78
6.68907e-40
7.53561e-05
4.12556e-24
5.94081e-22
4.35419e-17
0.00606822
0.00223817
0.00506977
0.0056985
0.00661661
0.0127331
0.00585299
1.33257e-05
0.00124535
0.00557747
0.00358158
0.00191209
0.000743263
4.34609e-06
0.000236409
0.00183716
0.000747373
5.76826e-18
0.00661251
0.00782589
0.00214214
0.00290615
0.0052978
0.012054
0.00675069
0.00164161
0.00156967
0.00292329
0.0046697
0.00575591
0.00271305
1.33257e-05
0.000426276
0.000852518
0.000642291
9.68665e-06
0.0151502
0.00906928
0.00437483
0.0113133
0.0133541
0.0109009
0.00693547
0.00807349
0.00595272
0.00490483
0.00476663
0.00486245
0.000327018
0.000680781
0.0010215
3.9855e-05
3.02827e-05
2.51621e-05
)
;

boundaryField
{
    seabed_topleft_surface
    {
        type            zeroGradient;
    }
    seabed_topright_surface
    {
        type            zeroGradient;
    }
    breakwater_top_surface
    {
        type            zeroGradient;
    }
    breakwater_left_surface
    {
        type            zeroGradient;
    }
    breakwater_right_surface
    {
        type            zeroGradient;
    }
    water_front_surface
    {
        type            zeroGradient;
    }
    water_back_surface
    {
        type            zeroGradient;
    }
    water_left_surface
    {
        type            zeroGradient;
    }
    water_right_surface
    {
        type            zeroGradient;
    }
    water_top_surface
    {
        type            inletOutlet;
        inletValue      uniform 0;
        value           nonuniform List<scalar> 
180
(
0.000116373
0
0
0
0.00011804
0.000117656
0
0
0
0
0
0
0
0
0
0
0
0
0
0
0
0
0
0
0
0
0
0
0
0
0
0
0
0
0
0
0
0
0
0
0
0
0
0
0
0
0
0
0
0
0
0
0
0
1.22479e-06
4.78998e-08
1.26742e-06
1.67068e-06
4.22155e-07
8.00601e-18
0.000813821
8.44637e-05
9.16459e-05
0.000122459
0.000102921
9.09497e-05
7.80308e-05
7.04186e-06
1.95119e-06
1.83133e-06
4.24894e-06
2.8727e-06
2.54757e-05
1.7114e-05
1.7114e-05
3.93459e-05
2.94646e-05
2.01196e-05
2.70309e-05
2.12521e-05
1.7114e-05
2.08212e-05
2.01196e-05
2.01196e-05
0.000147225
9.44016e-05
8.39548e-05
0.000171158
0.000158406
5.58662e-05
0.00205431
0.00160384
0.00151734
0.0019604
0.00188147
0.00144293
0
0
0
0
0
0
0
0
0
0
0
0
0
0
0
0
0
0
0
0
0
0
0
0
0
0
0
0
0
0
0
0
0
0
0
0
0
0
0
0
0
0
0
0
0
0
0
0
0
0
0
0
0
0
0
0
0
0
0
0
0
0
0
0
0
0
0.000743263
4.34609e-06
0.000236409
0.00183716
0.000747373
0
0.00271305
1.33257e-05
0.000426276
0.000852518
0.000642291
9.68665e-06
0.000327018
0.000680781
0.0010215
3.9855e-05
3.02827e-05
2.51621e-05
)
;
    }
}


// ************************************************************************* //
