/*--------------------------------*- C++ -*----------------------------------*\
| =========                 |                                                 |
| \\      /  F ield         | OpenFOAM: The Open Source CFD Toolbox           |
|  \\    /   O peration     | Version:  v1612+                                |
|   \\  /    A nd           | Web:      www.OpenFOAM.com                      |
|    \\/     M anipulation  |                                                 |
\*---------------------------------------------------------------------------*/
FoamFile
{
    version     2.0;
    format      ascii;
    class       volScalarField;
    location    "9.55";
    object      p;
}
// * * * * * * * * * * * * * * * * * * * * * * * * * * * * * * * * * * * * * //

dimensions      [1 -1 -2 0 0 0 0];

internalField   nonuniform List<scalar> 
1116
(
6400.12
6409.1
6409.19
6398.01
6393.27
6407.79
6843.4
6845.73
6847.93
6852.67
6855.14
6852.7
7683.87
7678.41
7680.47
7686.84
7684.28
7678.69
8357.23
8349.31
8347.44
8354.89
8351.82
8340.18
8896.4
8890.33
8888.36
8893.84
8891.46
8883.43
9410.42
9406.6
9405.42
9411.17
9410.7
9405.72
10096.9
10095.7
10095.7
10096.7
10094.7
10100.9
10993.3
10994.8
10993.9
10993
10994
10993.5
12194.6
12193.6
12194.1
12190.9
12192
12192.8
13590
13592
13590.4
13586.3
13581.9
13591.8
14177
14187.6
14179.6
14173.1
14173.2
14183.3
14235.9
14224.9
14226
14226
14212.3
14230.1
1157.22
1170.86
1171.76
1157.35
1156.38
1172.58
1345.44
1345.37
1345.37
1353.46
1362.52
1341.99
1581.28
1561.47
1560.99
1588.91
1600.35
1553.31
1877.59
1859.82
1854.5
1873.07
1873.64
1839.8
2099.66
2089.12
2085.01
2098.41
2094.67
2075.69
2364.52
2356.82
2354.86
2367.09
2365.5
2356.48
2684.95
2677.72
2675.36
2685.32
2687.58
2680.39
3194.17
3188.91
3186.68
3187.91
3190.21
3187.03
4305.76
4303.09
4302.31
4294.24
4286.37
4307.06
5351.62
5362.19
5363.62
5355.08
5338.84
5379.93
6085.95
6075.28
6064.78
6054.98
6044.08
6071.79
7893.52
7856.2
7899.65
7886.66
7820.15
7899.37
-23.8346
-23.9021
-24.0112
-24.0637
-23.9243
-24.0792
-26.4881
-26.2437
-26.151
-26.4918
-26.6214
-26.2642
-30.6955
-30.3345
-30.1657
-30.3594
-30.5152
-29.8732
-30.5772
-30.5401
-30.4515
-30.4045
-30.388
-30.2788
-27.2818
-27.4505
-27.46
-27.3297
-27.38
-27.4491
-17.7907
-17.8629
-17.9848
-17.8578
-17.9584
-18.0631
9.95738
10.2291
10.1535
10.0009
9.94324
10.1754
147.611
148.432
148.726
148.274
148.289
149.407
379.493
380.425
380.811
381.14
380.245
384.275
610.194
621.236
624.906
628.481
627.55
630.628
1849.37
1808.67
1806.87
1792.01
1781.35
1834
4946.91
4964.05
4936.6
4932.01
4983.3
4932.24
-23.9625
-24.0016
-24.0361
-23.9072
-23.8353
-24.1239
-23.9728
-23.9637
-23.9705
-24.0137
-23.9053
-24.0614
-23.5485
-23.4058
-23.4386
-23.5175
-23.5089
-23.5219
-24.8315
-24.757
-24.7615
-24.7814
-24.7268
-24.768
-24.4156
-24.377
-24.3991
-24.3935
-24.3335
-24.4374
-23.0991
-23.162
-23.171
-23.1476
-23.1621
-23.2029
-17.0785
-16.7206
-16.6795
-17.0235
-16.8748
-17.1291
-0.0258028
0.312104
0.529917
0.449359
0.709835
0.270353
-2.97548
-4.47194
-4.48822
-3.53063
-3.62996
-3.47787
28.0509
16.4911
14.0095
13.8629
13.3799
10.8547
237.885
182.871
173.303
171.73
169.113
162.374
1318.33
1188.88
1227.73
1188.71
1164.82
1208.88
797.978
808.121
814.611
684.954
650.152
619.144
804.151
818.794
787.341
709.626
664.253
596.747
857.804
851.796
810.033
780.198
743.987
707.362
917.676
885.171
877.071
865.838
824.103
823.404
984.91
942.514
960.801
923.515
864.75
908.44
1034.65
978.344
960.322
984.178
900.146
977.858
1096.71
1006.37
1082.23
1118.4
1069.53
1124.71
1165.71
1113.5
1182.78
1077.22
1145.25
1264.15
1081.79
1109.94
1081.67
931.769
1018.1
1169.21
907.714
934.108
931.093
849.882
894.745
966.212
760.721
774.753
765.969
748.226
717.433
762.147
668.114
657.836
637.73
611.178
611.562
614.211
119.108
167.221
183.585
72.6607
59.7253
46.4028
122.192
180.001
168.221
88.3185
62.7419
44.2691
173.106
178.759
167.07
154.229
113.606
75.4839
222.299
218.17
230.554
215.774
179.644
132.058
277.098
248.886
255.427
216.177
175.372
190.153
357.44
258.211
226.577
230.287
159.51
225.166
458.162
344.624
249.878
336.836
207.318
287.845
433.487
414.294
326.481
336.803
312.742
412.355
561.599
435.069
370.962
425.743
313.617
466.189
584.51
514.875
500.727
520.243
520.701
513.677
580.834
572.62
526.639
509.72
505.903
515.607
526.871
530.391
494.802
500.179
494.963
507.296
-23.2841
-24.2346
-24.05
-23.7602
-22.0072
-20.8432
-23.1283
-23.5947
-23.0789
-21.9483
-20.7494
-20.1923
-18.6795
-22.1497
-21.4288
-21.4908
-21.1211
-20.5706
-16.7853
-17.8804
-18.4461
-19.7029
-20.4498
-20.6207
-13.1391
-11.726
-13.1994
-15.9843
-17.2113
-17.8512
-14.553
-13.0279
-6.45434
-12.0081
-12.7994
-12.3604
-4.80333
-10.9501
-1.2595
-6.04345
-7.82804
-6.41088
18.4222
7.15952
75.3703
36.7942
2.43144
9.58429
119.895
77.4087
21.8715
110.694
14.2004
62.9848
359.208
144.035
167.877
266.135
227.087
165.763
410.16
381.599
354.245
390.514
389.374
388.762
407.052
405.505
381.469
389.241
394.823
415.956
-31.4161
-33.5413
-34.8573
-32.7059
-30.8494
-29.8454
-30.9097
-32.7244
-33.5845
-32.436
-30.9456
-29.2398
-32.0872
-32.204
-32.1811
-31.9327
-31.6348
-29.7658
-33.8359
-33.6688
-32.9937
-32.4279
-32.8479
-31.8713
-35.7142
-36.6347
-33.2195
-32.142
-33.5105
-32.5583
-36.5765
-39.8675
-32.9308
-31.838
-33.2388
-32.5525
-32.9434
-40.929
-30.3107
-29.2455
-31.8856
-31.4973
-30.7452
-42.0686
-26.7939
-28.009
-29.3063
-28.0121
-13.4854
-19.1582
7.47567
13.9275
-6.24673
-8.97128
77.5925
33.4642
73.3391
132.253
86.2291
37.2934
179.873
120.455
120.59
196.088
202.986
200.173
290.321
283.376
269.891
264.955
272.551
287.658
-45.4389
-45.6374
-45.8603
-45.6023
-45.4958
-45.5743
-51.4526
-51.0615
-51.1388
-51.0599
-51.4032
-51.5667
-69.5686
-68.9931
-68.8628
-69.2856
-70.2643
-69.85
-44.8448
-45.1132
-45.2216
-44.9568
-44.8068
-44.8542
-55.0646
-55.1489
-55.1995
-55.1211
-55.1036
-55.0363
-70.5281
-70.2222
-70.2191
-70.4417
-70.8563
-70.9392
-43.788
-43.7701
-43.7788
-43.7621
-43.7574
-43.7545
-54.3183
-54.3235
-54.3261
-54.3186
-54.3337
-54.3422
-69.6133
-69.6082
-69.6115
-69.636
-69.6967
-69.7001
-43.8367
-43.8335
-43.8357
-43.8213
-43.8219
-43.8021
-55.131
-55.1369
-55.1407
-55.1438
-55.1556
-55.1558
-70.5114
-70.5032
-70.5082
-70.5306
-70.5673
-70.5634
-42.213
-42.213
-42.2139
-42.215
-42.2122
-42.2181
-54.7745
-54.7851
-54.7823
-54.7843
-54.7878
-54.7987
-70.9244
-70.9401
-70.934
-70.943
-70.9513
-70.9506
-40.24
-40.2251
-40.2249
-40.2365
-40.241
-40.2409
-54.5046
-54.4739
-54.481
-54.4947
-54.5008
-54.4791
-71.6865
-71.7208
-71.7003
-71.727
-71.7451
-71.7493
-32.9455
-32.8665
-32.8608
-32.8932
-32.8597
-32.947
-52.4683
-52.5208
-52.4532
-52.5897
-52.5807
-52.6643
-72.5252
-72.8139
-72.6745
-72.7802
-72.8015
-72.8898
-30.8797
-30.8307
-30.9147
-30.4791
-30.7465
-30.728
-58.6974
-57.1323
-57.8675
-58.0636
-57.9181
-56.8134
-73.2333
-73.9878
-73.4388
-73.5932
-73.9814
-74.2712
-38.6515
-38.6036
-39.7034
-40.0294
-39.7725
-38.9994
-56.5266
-58.1227
-58.5731
-58.4927
-58.7328
-58.868
-83.5645
-86.4109
-84.4394
-84.8908
-85.0852
-85.5235
-12.7008
-28.4666
-30.761
-33.0937
-35.3353
-36.0355
-51.7069
-60.0328
-60.5714
-61.8132
-64.2384
-64.6703
-82.2306
-83.6284
-83.4966
-83.971
-84.3713
-83.6897
69.541
45.9146
47.7896
44.0391
37.6535
37.68
-63.4907
-62.9235
-58.1853
-59.0467
-62.1009
-62.3397
-92.4842
-78.0215
-72.2099
-71.0463
-70.5718
-70.428
605.031
485.067
603.734
563.553
492.648
572.506
-102.493
-120.905
-102.262
-98.3757
-100.353
-97.6594
-80.8188
-71.0726
-63.9606
-62.5594
-58.8101
-58.8447
125.614
114.047
90.3633
75.4038
66.3332
80.8522
-34.5466
-38.0734
-39.3897
-40.6098
-40.7471
-39.9523
-67.4266
-68.4188
-68.2304
-67.1166
-65.9443
-66.0378
98.2201
94.1092
89.2395
84.1728
78.8305
78.4107
-37.0699
-38.5601
-39.7606
-40.7894
-40.4126
-40.366
-66.4691
-66.6476
-66.628
-65.8855
-64.7259
-64.5909
161.168
159.568
156.637
154.103
150.2
147.226
-35.8803
-36.1872
-37.4407
-39.0211
-39.4851
-37.7784
-70.5358
-70.305
-70.2804
-70.2249
-69.1591
-67.7358
281.831
278.71
275.643
272.045
267.535
267.113
-43.2138
-29.0329
-33.3765
-38.2565
-35.2562
-30.8896
-89.8885
-87.2241
-86.3509
-87.9793
-86.4985
-82.6733
468.427
443.875
451.948
445.559
422.736
436.551
-30.3818
54.7305
31.2854
18.8067
47.2638
36.7722
-79.3253
-76.9339
-76.9919
-76.573
-75.3296
-74.2983
1004
591.218
762.95
851.251
611.168
698.8
-47.8018
-29.1184
-22.3194
-33.8881
-18.5074
-19.9454
-73.4386
-69.1303
-69.2852
-68.5927
-65.8153
-66.6477
-42.9831
-43.3397
-43.1844
-42.0636
-41.9638
-41.968
-53.4713
-53.4264
-53.1873
-53.1942
-53.1628
-53.1545
-64.0859
-64.0998
-63.9001
-64.0019
-64.0544
-64.0526
-42.9824
-43.1828
-43.3398
-43.0122
-42.5368
-42.2074
-53.7527
-53.7816
-53.8534
-53.6931
-53.5573
-53.4029
-64.5732
-64.6379
-64.5419
-64.5504
-64.5799
-64.5209
-43.8133
-43.095
-42.668
-42.6362
-42.4663
-42.4039
-53.8242
-53.7305
-53.635
-53.5882
-53.4884
-53.4301
-64.7377
-64.8125
-64.6917
-64.7243
-64.7273
-64.6566
-45.2918
-44.0178
-43.2448
-42.8341
-42.9542
-43.0258
-54.0111
-53.8919
-53.7404
-53.6473
-53.7146
-53.7215
-64.8767
-65.0525
-64.9562
-64.9595
-64.9565
-64.7777
-44.6497
-44.0573
-42.4961
-41.2399
-42.456
-41.8519
-52.6085
-52.5858
-52.4729
-52.3359
-52.5453
-52.2256
-64.6297
-64.9725
-64.9853
-64.8593
-64.6859
-64.2082
-42.5102
-44.1429
-41.401
-39.4102
-41.3535
-39.5259
-50.13
-50.3225
-50.7124
-50.8892
-51.0109
-49.8594
-64.1206
-64.8012
-65.1678
-65.0352
-64.7674
-64.0868
-36.5457
-39.6869
-36.8108
-34.7532
-37.1527
-35.7093
-44.6151
-44.896
-46.1376
-46.9173
-47.6247
-46.8163
-63.7307
-64.4249
-65.2435
-65.1879
-65.0481
-64.5827
-37.2044
-41.2763
-37.9326
-35.7724
-35.6625
-33.7932
-42.6446
-43.6157
-45.1867
-46.184
-46.9631
-46.6039
-65.3112
-66.4422
-68.5614
-67.7581
-66.8741
-66.231
-33.5288
-35.469
-19.1812
2.90832
-11.5236
-19.0283
-54.0915
-52.6752
-49.6729
-41.2409
-49.4786
-48.8551
-76.3643
-78.0092
-78.5068
-77.8755
-75.9949
-72.6298
24.7564
-4.72065
9.78916
48.1063
30.8385
11.0087
-52.764
-52.6256
-46.0131
-36.4901
-41.2522
-39.4213
-85.7385
-83.8006
-82.4613
-94.8405
-87.7727
-83.4812
44.2449
-4.0634
0.355478
37.0217
35.8407
42.4961
-67.5223
-69.6845
-63.801
-60.9704
-55.3677
-50.4374
-94.4222
-87.9448
-89.0628
-89.0547
-84.0456
-79.1502
152.645
162.153
170.508
133.761
114.242
152.184
-35.9017
-33.4271
-30.9862
-35.5494
-36.6454
-24.0473
-79.1876
-85.3015
-83.2301
-73.6496
-72.0373
-70.4535
)
;

boundaryField
{
    seabed_topleft_surface
    {
        type            calculated;
        value           nonuniform List<scalar> 
72
(
10102.1
10120
10123.5
10085.9
10073.6
10115.9
10871
10885.2
10899
10888.6
10898.9
10903.7
12291
12290.9
12296.7
12295.4
12291.5
12295.3
13010.4
13002.6
13000.8
13008.3
13005.3
12993.2
13550.6
13544.7
13542.8
13548.4
13546.1
13537.7
14065.8
14062.1
14061
14066.9
14066.5
14061.3
14752.7
14751.6
14751.7
14752.8
14750.9
14757
15649.2
15650.8
15650
15649.2
15650.2
15649.7
16526
16505.9
16517.7
16511.2
16515.6
16517.9
17433.7
17430.5
17428.8
17427.8
17425.3
17431.2
18022.4
18033.6
18023.6
18018
18020.7
18028.3
17569.7
17505.2
17531.8
17554.2
17505.5
17537.2
)
;
    }
    seabed_topright_surface
    {
        type            calculated;
        value           nonuniform List<scalar> 
72
(
1284.22
1297.45
1303.96
1170.76
1124.41
1084.31
1291.14
1309.01
1277.72
1197.51
1146.46
1050.99
1347.76
1343.16
1301.61
1271.56
1234.74
1181.47
1409.15
1377.17
1368.82
1357.41
1315.02
1314.33
1476.56
1434.33
1452.66
1396.13
1355.68
1399.23
1526.14
1469.98
1355.67
1474.66
1390.93
1468.15
1587.96
1497.85
1573.47
1572.65
1559.82
1613.57
1656.7
1604.74
1601.33
1244.35
1634.1
1751.68
1423.75
1483.87
1281.31
969.606
1254.57
1489.92
951.041
1062.31
1057.12
885.647
939.818
1151.19
790.008
806.941
873.431
855.561
804.505
924.497
723.081
694.738
722.949
718.574
719
732.276
)
;
    }
    breakwater_top_surface
    {
        type            calculated;
        value           nonuniform List<scalar> 
36
(
227.555
215.988
192.304
177.143
159.42
177.042
200.155
196.05
191.18
185.908
175.687
174.867
236.592
237.408
235.75
229.898
225.009
225.952
360.197
358.486
356.524
351.263
346.26
347.439
942.719
851.169
837.318
913.5
904.628
822.454
2042.79
1657.96
1811
1879.19
1626.3
1719.39
)
;
    }
    breakwater_left_surface
    {
        type            calculated;
        value           nonuniform List<scalar> 
24
(
14247.3
14236.2
14237.3
14237.4
14223.6
14241.4
7902.23
7864.89
7908.32
7895.36
7828.82
7908.02
4955.45
4972.59
4945.12
4940.54
4991.83
4940.75
1326.44
1196.78
1235.69
1196.65
1172.62
1216.88
)
;
    }
    breakwater_right_surface
    {
        type            calculated;
        value           nonuniform List<scalar> 
24
(
668.302
657.962
638.022
611.545
611.93
614.615
527.004
530.441
494.846
500.225
495.008
507.341
407.098
405.541
381.505
389.302
394.936
416.001
290.409
283.412
269.926
265.055
272.766
287.727
)
;
    }
    water_front_surface
    {
        type            calculated;
        value           nonuniform List<scalar> 
186
(
6400.12
6843.4
7683.87
8357.23
8896.4
9410.42
10096.9
10993.3
12194.6
13590
14177
14235.9
1157.22
1345.44
1581.28
1877.59
2099.66
2364.52
2684.95
3194.17
4305.76
5351.62
6085.95
7893.52
-23.8346
-26.4881
-30.6955
-30.5772
-27.2818
-17.7907
9.95738
147.611
379.493
610.194
1849.37
4946.91
-23.9625
-23.9728
-23.5485
-24.8315
-24.4156
-23.0991
-17.0785
-0.0258028
-2.97548
28.0509
237.885
1318.33
797.978
804.151
857.804
917.676
984.91
1034.65
1096.71
1165.71
1081.79
907.714
760.721
668.114
119.108
122.192
173.106
222.299
277.098
357.44
458.162
433.487
561.599
584.51
580.834
526.871
-23.2841
-23.1283
-18.6795
-16.7853
-13.1391
-14.553
-4.80333
18.4222
119.895
359.208
410.16
407.052
-31.4161
-30.9097
-32.0872
-33.8359
-35.7142
-36.5765
-32.9434
-30.7452
-13.4854
77.5925
179.873
290.321
-45.4389
-51.4526
-69.5686
-44.8448
-55.0646
-70.5281
-43.788
-54.3183
-69.6133
-43.8367
-55.131
-70.5114
-42.213
-54.7745
-70.9244
-40.24
-54.5046
-71.6865
-32.9455
-52.4683
-72.5252
-30.8797
-58.6974
-73.2333
-38.6515
-56.5266
-83.5645
-12.7008
-51.7069
-82.2306
69.541
-63.4907
-92.4842
605.031
-102.493
-80.8188
125.614
-34.5466
-67.4266
98.2201
-37.0699
-66.4691
161.168
-35.8803
-70.5358
281.831
-43.2138
-89.8885
468.427
-30.3818
-79.3253
1004
-47.8018
-73.4386
-42.9831
-53.4713
-64.0859
-42.9824
-53.7527
-64.5732
-43.8133
-53.8242
-64.7377
-45.2918
-54.0111
-64.8767
-44.6497
-52.6085
-64.6297
-42.5102
-50.13
-64.1206
-36.5457
-44.6151
-63.7307
-37.2044
-42.6446
-65.3112
-33.5288
-54.0915
-76.3643
24.7564
-52.764
-85.7385
44.2449
-67.5223
-94.4222
152.645
-35.9017
-79.1876
)
;
    }
    water_back_surface
    {
        type            calculated;
        value           nonuniform List<scalar> 
186
(
6407.79
6852.7
7678.69
8340.18
8883.43
9405.72
10100.9
10993.5
12192.8
13591.8
14183.3
14230.1
1172.58
1341.99
1553.31
1839.8
2075.69
2356.48
2680.39
3187.03
4307.06
5379.93
6071.79
7899.37
-24.0792
-26.2642
-29.8732
-30.2788
-27.4491
-18.0631
10.1754
149.407
384.275
630.628
1834
4932.24
-24.1239
-24.0614
-23.5219
-24.768
-24.4374
-23.2029
-17.1291
0.270353
-3.47787
10.8547
162.374
1208.88
619.144
596.747
707.362
823.404
908.44
977.858
1124.71
1264.15
1169.21
966.212
762.147
614.211
46.4028
44.2691
75.4839
132.058
190.153
225.166
287.845
412.355
466.189
513.677
515.607
507.296
-20.8432
-20.1923
-20.5706
-20.6207
-17.8512
-12.3604
-6.41088
9.58429
62.9848
165.763
388.762
415.956
-29.8454
-29.2398
-29.7658
-31.8713
-32.5583
-32.5525
-31.4973
-28.0121
-8.97128
37.2934
200.173
287.658
-45.5743
-51.5667
-69.85
-44.8542
-55.0363
-70.9392
-43.7545
-54.3422
-69.7001
-43.8021
-55.1558
-70.5634
-42.2181
-54.7987
-70.9506
-40.2409
-54.4791
-71.7493
-32.947
-52.6643
-72.8898
-30.728
-56.8134
-74.2712
-38.9994
-58.868
-85.5235
-36.0355
-64.6703
-83.6897
37.68
-62.3397
-70.428
572.506
-97.6594
-58.8447
80.8522
-39.9523
-66.0378
78.4107
-40.366
-64.5909
147.226
-37.7784
-67.7358
267.113
-30.8896
-82.6733
436.551
36.7722
-74.2983
698.8
-19.9454
-66.6477
-41.968
-53.1545
-64.0526
-42.2074
-53.4029
-64.5209
-42.4039
-53.4301
-64.6566
-43.0258
-53.7215
-64.7777
-41.8519
-52.2256
-64.2082
-39.5259
-49.8594
-64.0868
-35.7093
-46.8163
-64.5827
-33.7932
-46.6039
-66.231
-19.0283
-48.8551
-72.6298
11.0087
-39.4213
-83.4812
42.4961
-50.4374
-79.1502
152.184
-24.0473
-70.4535
)
;
    }
    water_left_surface
    {
        type            calculated;
        value           nonuniform List<scalar> 
42
(
6412.8
6421.81
6421.91
6410.64
6405.88
6420.49
1161.11
1174.81
1175.72
1161.25
1160.26
1176.53
-23.8183
-23.8859
-23.995
-24.0475
-23.908
-24.063
-23.9465
-23.9857
-24.0202
-23.8913
-23.8193
-24.108
-45.4389
-45.6374
-45.8603
-45.6023
-45.4958
-45.5743
-51.4526
-51.0615
-51.1388
-51.0599
-51.4032
-51.5667
-69.5686
-68.9931
-68.8628
-69.2856
-70.2643
-69.85
)
;
    }
    water_right_surface
    {
        type            calculated;
        value           nonuniform List<scalar> 
42
(
799.644
809.797
816.287
686.618
651.776
620.737
119.483
167.88
184.361
72.9684
59.8981
46.5372
-23.2679
-24.2184
-24.0339
-23.744
-21.991
-20.827
-31.4002
-33.5255
-34.8414
-32.6899
-30.8335
-29.8296
-42.9831
-43.3397
-43.1844
-42.0636
-41.9638
-41.968
-53.4713
-53.4264
-53.1873
-53.1942
-53.1628
-53.1545
-64.0859
-64.0998
-63.9001
-64.0019
-64.0544
-64.0526
)
;
    }
    water_top_surface
    {
        type            calculated;
        value           nonuniform List<scalar> 
180
(
-76.6534
-70.8494
-70.9131
-70.0099
-76.7677
-76.7414
-76.4368
-76.0756
-76.0259
-76.2477
-76.6436
-76.6759
-74.8438
-74.8523
-74.8624
-74.8623
-74.8814
-74.9137
-76.6206
-76.6291
-76.6371
-76.6409
-76.6895
-76.6809
-77.8979
-77.9256
-77.9236
-77.923
-77.9406
-77.9479
-80.0155
-80.0333
-80.0214
-80.0475
-80.0564
-80.0398
-82.2562
-82.7492
-82.6602
-82.6933
-82.5919
-82.6398
-84.7438
-89.9915
-87.0931
-85.5042
-86.5831
-89.8455
-73.2375
-88.493
-76.9874
-74.2462
-79.2397
-88.4428
-68.754
-68.6733
-68.7569
-68.7846
-68.699
-68.67
-124.499
-74.4643
-74.957
-77.0709
-75.7305
-74.9093
-74.023
-69.1531
-68.8039
-68.7956
-68.9615
-68.8671
-70.4177
-69.844
-69.844
-71.3692
-70.6913
-70.0502
-70.5244
-70.1279
-69.844
-70.0984
-70.0502
-70.0502
-78.7698
-75.1461
-74.4294
-80.4117
-79.5368
-72.5025
-209.598
-178.696
-172.762
-203.156
-197.741
-167.657
-73.1445
-69.7831
-70.5064
-72.3758
-71.1031
-69.6206
-75.4555
-69.8967
-72.1916
-75.3993
-71.3412
-70.1829
-69.51
-69.5587
-69.0908
-69.5349
-69.729
-69.6344
-70.2636
-70.3667
-70.4259
-70.4583
-70.3869
-70.2591
-70.2419
-70.3977
-70.5141
-70.5794
-70.5111
-70.4245
-70.1488
-70.4155
-70.6788
-70.8602
-70.8509
-70.575
-69.7684
-70.2536
-70.7189
-71.0291
-70.9514
-70.2381
-69.5925
-70.4888
-71.1171
-71.5907
-71.4093
-70.2567
-69.5603
-70.9967
-72.1672
-72.0735
-71.7013
-70.1896
-71.0975
-74.4286
-74.4463
-75.7687
-74.0285
-71.072
-78.6086
-81.4383
-70.3401
-77.5008
-76.6391
-72.2914
-119.659
-68.9681
-84.8879
-194.701
-119.941
-69.4916
-254.789
-69.5842
-97.9131
-127.154
-112.732
-69.3345
-91.1039
-115.372
-138.746
-71.4041
-70.7474
-70.3962
)
;
    }
}


// ************************************************************************* //
