/*--------------------------------*- C++ -*----------------------------------*\
| =========                 |                                                 |
| \\      /  F ield         | OpenFOAM: The Open Source CFD Toolbox           |
|  \\    /   O peration     | Version:  v1612+                                |
|   \\  /    A nd           | Web:      www.OpenFOAM.com                      |
|    \\/     M anipulation  |                                                 |
\*---------------------------------------------------------------------------*/
FoamFile
{
    version     2.0;
    format      ascii;
    class       surfaceScalarField;
    location    "9.75";
    object      alphaPhi;
}
// * * * * * * * * * * * * * * * * * * * * * * * * * * * * * * * * * * * * * //

dimensions      [0 3 -1 0 0 0 0];

internalField   nonuniform List<scalar> 
816
(
4.49856e-06
-1.15585e-05
6.86283e-06
-2.28626e-05
-1.92477e-05
4.23075e-05
7.55141e-06
-7.40916e-07
-1.1568e-05
-5.55244e-06
1.48165e-05
-3.50719e-06
-5.22134e-07
-6.20688e-06
2.03076e-06
-3.30747e-06
-1.12808e-05
-7.78105e-07
-8.62885e-06
2.46599e-05
3.15879e-09
-1.22414e-09
-9.77021e-07
-5.89031e-09
6.80825e-09
4.87727e-09
-4.10511e-08
-1.95399e-09
3.02594e-09
6.51543e-09
-3.77418e-07
-6.4859e-09
1.23022e-08
9.28426e-09
-1.92312e-06
8.73282e-09
-2.36934e-09
7.62287e-09
-5.83521e-06
5.37347e-09
-5.03446e-09
-1.52429e-10
7.67918e-07
1.66557e-09
9.13553e-09
-1.06419e-09
3.57645e-07
8.68155e-09
-3.75345e-09
2.06217e-09
1.47888e-06
4.11702e-09
-4.9828e-09
-1.68188e-09
1.10349e-06
5.89193e-09
1.59189e-09
-1.00461e-09
-4.37431e-06
4.88481e-10
-1.99899e-09
-6.16146e-09
3.37275e-07
3.0086e-10
-2.50468e-09
2.85044e-08
-6.123e-09
-6.18081e-10
2.42902e-05
-3.17008e-06
-3.38038e-05
-2.47421e-06
1.38125e-05
4.7513e-05
-4.64467e-05
1.98935e-05
3.06081e-06
2.09315e-06
-8.61928e-06
-6.64279e-07
5.17732e-05
-4.48296e-06
1.09882e-05
1.62341e-05
-2.73235e-05
1.36348e-05
-2.74821e-05
2.64462e-05
-2.93359e-05
-4.22239e-06
-2.60784e-05
1.24792e-05
3.44648e-05
4.42583e-06
-3.54107e-05
2.56761e-05
2.48023e-06
2.59914e-05
-1.44538e-05
-6.84155e-06
-8.95636e-07
1.04706e-05
-5.488e-05
3.04898e-05
4.2671e-05
2.68685e-05
-3.53194e-05
1.45521e-05
-7.46917e-06
-1.76508e-05
7.95356e-05
6.85974e-06
-3.59843e-05
-1.84889e-05
-6.17529e-06
4.37583e-06
-1.0553e-05
1.76524e-07
-1.7288e-05
7.17872e-07
-2.2555e-05
-2.05645e-05
-1.46216e-05
8.19465e-07
-4.33545e-06
-3.76741e-07
-2.72095e-05
2.91047e-06
4.28466e-06
-6.89749e-06
-1.15963e-05
-1.17153e-05
-1.25316e-05
7.03775e-07
-1.36155e-05
-5.6246e-06
-1.91262e-05
-4.74129e-06
-1.71268e-05
-1.36013e-05
-1.76069e-05
-5.9354e-06
3.72692e-06
-3.45037e-06
-2.52051e-05
-1.84698e-05
-2.53387e-05
-1.63419e-05
-1.53625e-05
-1.33786e-05
1.12417e-05
3.49285e-05
-5.80824e-06
-9.90976e-06
5.55388e-06
-2.70768e-06
2.42756e-06
-6.81699e-06
4.44144e-06
-1.30229e-05
-6.26972e-06
3.57348e-06
-1.73202e-07
-6.73896e-06
2.75238e-07
-1.04756e-06
1.32853e-07
-3.99753e-06
3.95247e-08
-5.32938e-06
-7.38605e-07
1.32185e-08
-4.92233e-06
-1.43966e-06
-2.40039e-07
-6.21031e-06
-1.21402e-05
-9.30748e-06
-4.20393e-06
3.64664e-08
-7.1873e-07
-1.43485e-05
-1.43522e-06
2.47836e-06
-3.21104e-06
-1.6234e-06
-5.56425e-06
-5.3922e-06
-3.57661e-06
-3.72233e-07
-3.11062e-06
-1.08162e-05
-4.86444e-06
-3.40265e-06
-7.76527e-06
-7.04876e-06
-9.45753e-06
2.78135e-06
-2.48124e-06
-1.65736e-06
-1.11636e-05
-1.45478e-05
-7.25287e-06
-9.1394e-06
-7.56447e-06
-4.26522e-06
6.16232e-06
-3.33782e-06
9.98059e-06
2.29233e-06
-3.26383e-06
-4.31207e-06
-1.20274e-09
2.65005e-09
-1.74498e-06
-3.85942e-09
2.51317e-09
3.0476e-07
-7.36098e-09
2.01953e-09
3.43911e-10
-2.74916e-09
1.00263e-08
-4.13972e-06
-8.78218e-09
6.64046e-09
-3.78256e-06
-1.04492e-08
-4.27637e-09
1.84772e-09
1.34927e-11
-4.9307e-09
-2.87005e-09
-4.72884e-06
-7.45603e-09
-9.78547e-09
-4.31562e-06
-9.69191e-09
-5.24079e-09
2.39505e-06
-1.99646e-09
1.19533e-08
-1.18482e-06
-9.89575e-09
-8.76859e-10
1.29967e-09
-2.95251e-07
-2.54154e-09
-6.3917e-09
2.70166e-07
-3.90486e-09
-1.40147e-09
1.3426e-06
-8.42509e-10
-2.86083e-09
4.83171e-07
-3.85373e-09
1.59432e-09
1.39352e-09
-9.89204e-09
-1.10671e-08
-2.71569e-09
1.226e-10
-9.38468e-09
-7.53704e-09
2.37141e-06
-8.0425e-09
-7.40128e-09
1.72649e-06
-5.5443e-09
-3.94896e-09
-1.9213e-06
-2.82587e-09
-1.06819e-06
-8.65856e-09
-3.73964e-09
-1.7916e-05
1.47146e-05
-8.05121e-06
1.49587e-06
1.62844e-05
-2.97601e-05
-5.2927e-06
2.23145e-05
9.02843e-06
2.13766e-05
2.01309e-05
-1.07138e-05
8.29384e-06
2.50919e-05
7.57549e-05
-4.56153e-05
-4.21839e-05
-6.2536e-07
9.65135e-05
-2.35989e-05
-3.0591e-05
9.17033e-05
-5.78228e-05
-7.24387e-05
0.000115239
-5.934e-05
-3.78201e-05
-1.00048e-05
-3.25831e-06
5.07836e-05
-2.98875e-05
-3.62639e-05
-2.46075e-05
-3.96303e-06
0.000110238
-2.28121e-05
-4.33512e-05
0.000103144
-4.0591e-05
1.3814e-05
-5.77045e-05
-4.101e-06
2.5838e-06
7.3061e-05
-2.66862e-05
3.17557e-05
8.05615e-05
-6.21519e-05
-4.51853e-05
-6.75234e-06
9.82924e-05
-1.20368e-05
-3.8675e-05
9.24629e-05
-3.91402e-05
-2.55601e-05
2.86039e-05
-2.81855e-05
-8.28277e-07
-1.36543e-05
-9.78728e-06
7.85359e-05
-2.90993e-05
-3.85496e-05
8.26873e-06
-7.58445e-06
-2.54239e-06
-6.33482e-07
-8.37854e-06
-1.47375e-05
2.44041e-06
-7.84797e-06
6.05331e-06
-1.23024e-05
-8.87692e-06
-5.67664e-06
-4.39101e-06
-1.41377e-05
3.47398e-05
2.59953e-05
2.03669e-05
1.11378e-06
4.24006e-05
1.16926e-05
1.58514e-05
4.03489e-05
2.96306e-05
3.52231e-05
5.06577e-05
3.26686e-05
2.04673e-05
-5.62861e-06
4.79541e-06
-3.03414e-05
-1.12691e-05
2.12541e-05
1.09475e-05
1.59745e-07
4.76778e-05
1.29378e-05
2.03495e-05
4.50997e-05
2.42894e-05
-1.12492e-05
-2.5365e-05
2.97822e-06
-2.93982e-06
3.32693e-05
1.30225e-05
-1.84275e-05
3.60759e-05
3.50632e-05
2.49328e-05
4.35369e-06
4.2946e-05
7.26621e-06
2.2852e-05
4.126e-05
1.93446e-05
1.6873e-05
1.43757e-05
1.44241e-05
1.89961e-06
-5.56019e-06
4.20758e-06
3.59106e-05
1.59574e-05
2.0994e-05
5.57927e-06
-4.99553e-06
3.06911e-07
-1.20276e-06
-4.44723e-06
-4.66836e-06
-3.16279e-09
-4.11052e-06
4.0733e-06
-7.75359e-06
-4.02983e-06
-2.53447e-06
-4.05392e-06
-7.18964e-06
1.19068e-05
1.44694e-05
1.14494e-05
4.15822e-07
1.54321e-05
5.04755e-06
8.53179e-06
1.29622e-05
1.60745e-05
1.86168e-05
1.65487e-05
1.86386e-05
1.02548e-05
-1.97491e-06
1.6202e-06
-1.66472e-05
-5.65441e-07
1.10492e-05
5.15789e-06
4.38097e-07
1.3306e-05
6.49518e-06
1.06968e-05
1.45958e-05
1.24738e-05
-7.60504e-06
-5.13905e-06
8.67422e-07
-2.30184e-06
1.09547e-05
5.86428e-06
-1.00963e-05
1.12351e-05
1.89259e-05
1.36924e-05
2.27509e-06
1.37016e-05
2.33988e-06
1.1835e-05
1.34387e-05
1.07139e-05
8.6462e-06
6.11694e-06
8.12594e-06
4.02761e-07
-1.40445e-06
9.27151e-07
1.01408e-05
8.89438e-06
1.2452e-05
1.25601e-06
-4.30236e-06
3.26798e-06
-6.46297e-06
2.98973e-06
-5.62044e-07
-8.91224e-07
-2.47392e-06
-9.69043e-07
-8.05819e-07
-2.18588e-06
2.7362e-06
-5.21728e-06
1.19397e-06
1.02418e-06
-5.85047e-06
-4.14524e-06
-1.71143e-07
6.75035e-07
-7.83032e-06
-5.68605e-07
-2.11876e-06
-2.90176e-06
-3.4059e-06
-9.13715e-07
-1.34182e-06
-5.48004e-06
-2.33815e-06
-2.86199e-06
-5.83283e-06
5.73035e-08
-1.39511e-06
-4.32566e-06
-7.35281e-06
-3.42922e-06
-3.01843e-06
3.27772e-06
-3.13261e-06
6.29795e-07
-4.81127e-07
1.97887e-06
-1.78711e-06
7.20723e-07
-2.98454e-06
1.48452e-06
-7.56678e-07
-2.15295e-06
-2.43688e-06
-1.13035e-07
-2.60643e-06
5.74448e-06
6.31549e-06
1.48878e-06
3.45609e-06
4.96355e-06
7.37297e-06
9.97397e-06
8.13805e-06
4.6639e-06
2.00167e-06
-6.10028e-06
5.90761e-06
4.31188e-06
-6.88216e-07
2.47288e-06
4.39725e-06
6.67139e-06
-2.48957e-06
1.80764e-06
-4.31442e-07
4.59408e-06
-3.84962e-06
8.38142e-06
6.27195e-06
1.03621e-06
1.4253e-06
6.15095e-06
5.27374e-06
6.10204e-06
3.00916e-06
1.93467e-06
2.4618e-06
5.321e-06
5.73346e-06
2.24343e-09
-5.69522e-09
5.16374e-07
1.17645e-09
-2.37431e-07
3.9556e-09
1.54822e-06
1.16938e-10
9.33523e-07
7.08816e-09
-4.4596e-06
-5.35722e-09
-8.08889e-07
9.75874e-09
-1.96319e-06
5.58729e-09
4.84338e-05
1.76233e-09
4.75358e-05
2.15254e-09
1.87015e-06
1.75382e-09
-3.32761e-07
1.9965e-09
-4.91023e-06
1.13175e-09
7.00717e-07
3.14937e-09
4.57818e-05
7.50722e-10
1.96459e-06
4.84773e-10
8.1585e-07
-2.71256e-09
-3.72197e-06
-3.99688e-09
4.30114e-05
-4.79052e-09
5.32141e-06
-6.56874e-09
-1.53489e-07
3.59772e-09
-7.89167e-07
-1.89897e-09
-9.02833e-07
6.92831e-10
1.64782e-07
-1.15264e-09
2.02493e-06
-3.72031e-09
1.86527e-06
-6.1667e-09
4.78492e-09
-9.44442e-09
-9.85822e-07
9.16886e-08
1.49742e-05
-3.55655e-05
-9.6646e-06
1.1467e-05
3.50444e-06
3.84337e-05
-2.57399e-05
9.37968e-06
5.75537e-05
-1.96469e-05
3.50303e-05
-5.2733e-05
-2.12843e-05
3.76945e-05
-9.1713e-05
2.04871e-05
-1.63647e-05
-2.38494e-05
2.76402e-05
-1.15712e-05
-6.68467e-05
9.86163e-06
-8.40142e-05
1.35188e-05
-1.83827e-05
1.4224e-05
-3.96495e-05
-1.56174e-05
3.80981e-05
-7.7779e-06
-2.96806e-05
-3.1114e-06
-2.78689e-05
-3.1661e-06
-5.10797e-05
-1.20072e-06
-1.03862e-05
-9.89424e-06
-3.64996e-06
-1.92578e-05
-5.15587e-05
3.55436e-05
-5.63628e-05
8.80881e-06
-1.95832e-05
-4.0959e-06
2.26748e-06
1.00604e-06
-3.65119e-05
-1.107e-05
-8.27544e-06
-2.02355e-05
-4.09267e-08
-2.57339e-05
-3.84233e-05
-6.30388e-05
-8.85459e-06
2.0129e-05
-5.081e-06
-7.75133e-06
1.78742e-06
-1.90812e-05
-1.17043e-05
-4.62912e-07
2.65035e-05
1.45816e-05
1.5498e-05
2.80728e-05
-8.88438e-06
-2.27907e-05
-4.08164e-05
-1.00174e-05
-8.58601e-06
1.62962e-05
1.30392e-05
7.84e-06
-2.87871e-05
-5.003e-06
-3.85217e-05
-1.00693e-05
-8.51723e-06
-1.15778e-05
-1.68865e-05
9.99945e-06
1.65417e-05
4.82082e-06
-1.35783e-05
1.64725e-06
-1.17588e-05
-2.72824e-06
-2.239e-05
-4.78708e-06
-5.32183e-06
5.9921e-06
-1.39999e-06
1.13067e-05
-2.1818e-05
-1.92957e-05
-2.5763e-05
-5.76977e-06
-8.13686e-06
1.14241e-06
2.64321e-06
6.60509e-07
-1.66791e-05
9.75156e-06
-2.95511e-06
1.42342e-05
-3.52946e-07
1.51321e-05
-1.82888e-05
-2.76632e-05
-4.19107e-06
1.00286e-05
-2.35681e-06
-3.94309e-06
-9.05106e-08
-1.04176e-05
-4.62158e-06
3.49067e-07
8.26203e-06
9.93097e-06
1.97958e-06
1.55731e-05
-7.33759e-08
-1.26339e-05
-1.27761e-05
-5.93346e-06
-3.84388e-06
9.21734e-06
3.00474e-06
5.49328e-06
-8.94425e-06
-4.01944e-06
-1.03525e-05
-6.56983e-06
-4.34241e-06
-7.40479e-06
-5.07075e-06
6.46404e-06
2.69787e-06
2.97757e-06
-4.88705e-06
6.08346e-07
-2.93333e-06
-2.27211e-06
-7.0626e-06
-3.21187e-06
-3.47901e-06
3.49703e-06
-2.23501e-06
5.9989e-06
-5.38902e-06
-1.05522e-05
-9.26417e-06
-3.33489e-06
-1.69034e-06
1.58475e-06
9.14187e-08
1.0505e-07
-4.47084e-06
4.60637e-06
6.38369e-07
7.7355e-06
-2.68595e-06
7.13458e-06
-5.33805e-06
-1.03135e-05
-2.42291e-06
5.36181e-06
-3.02996e-06
-6.35746e-06
-3.02972e-07
1.62785e-06
7.4362e-06
-5.32992e-06
-2.89607e-06
3.55843e-06
1.99627e-06
-1.96835e-07
-2.51055e-06
-1.7058e-06
9.77808e-07
4.39918e-07
-9.72449e-09
-4.06532e-07
-2.09117e-06
2.6211e-07
3.30542e-06
-5.9426e-06
-1.38633e-06
1.48917e-07
9.85359e-07
4.58728e-06
4.0251e-06
4.16177e-06
-4.94898e-10
5.05194e-09
2.53329e-06
1.75892e-09
-2.19259e-07
3.35933e-09
2.80785e-06
1.58881e-06
-2.06425e-07
2.20278e-05
-1.41863e-05
1.48338e-05
)
;

boundaryField
{
    top_fluid_surface
    {
        type            calculated;
        value           nonuniform List<scalar> 
64
(
0
0
0
0
8.75994e-10
0
0
0
0
1.04214e-09
6.23313e-09
0
0
0
8.06976e-10
0
1.43536e-08
1.73233e-08
1.72546e-08
1.77835e-08
0
0
1.69418e-08
1.66536e-08
0
1.03419e-08
1.25631e-08
1.26166e-08
1.09091e-08
4.37644e-09
0
9.33917e-09
0
0
0
1.49891e-09
0
0
0
0
0
0
0
0
0
0
0
0
0
0
0
0
0
0
0
0
0
0
0
0
0
0
0
0
)
;
    }
    bottom_fluid_surface
    {
        type            calculated;
        value           uniform 0;
    }
    lateral_surface_1
    {
        type            calculated;
        value           uniform 0;
    }
    lateral_surface_2
    {
        type            calculated;
        value           uniform 0;
    }
    lateral_surface_3
    {
        type            calculated;
        value           uniform 0;
    }
    lateral_surface_4
    {
        type            calculated;
        value           uniform 0;
    }
}


// ************************************************************************* //
