/*--------------------------------*- C++ -*----------------------------------*\
| =========                 |                                                 |
| \\      /  F ield         | OpenFOAM: The Open Source CFD Toolbox           |
|  \\    /   O peration     | Version:  v1612+                                |
|   \\  /    A nd           | Web:      www.OpenFOAM.com                      |
|    \\/     M anipulation  |                                                 |
\*---------------------------------------------------------------------------*/
FoamFile
{
    version     2.0;
    format      ascii;
    class       volScalarField;
    location    "9.75";
    object      p_rgh;
}
// * * * * * * * * * * * * * * * * * * * * * * * * * * * * * * * * * * * * * //

dimensions      [1 -1 -2 0 0 0 0];

internalField   nonuniform List<scalar> 
320
(
-9800.21
-9800.2
-9800.21
-9800.21
-0.0019752
-0.00182541
-0.00742381
-0.00998273
0.000601604
-0.00212999
-0.00320118
-0.00219114
-0.00231746
0.00154538
0.00662615
-0.000361709
-9799.74
-9799.74
-9799.69
-9799.68
-9799.77
-9799.73
-9799.73
-9799.73
-9799.73
-9799.8
-9799.86
-9799.77
-9800.21
-9800.2
-9800.21
-9800.21
-9800.21
-9800.21
-9800.2
-9800.2
-9800.21
-9800.21
-9800.2
-9800.2
-9800.2
-9800.21
-9800.2
-9800.21
-9800.2
-9800.2
-9800.21
-9800.21
-9800.21
-9800.21
-9800.2
-9800.2
-9800.2
-9800.2
-9800.2
-9800.2
-0.00409425
-0.00197983
0.00132671
-0.0066158
0.0164503
0.0216536
0.0201611
0.0194321
-0.000754859
-0.0061164
0.0212795
0.0209474
0.00233503
0.011433
0.0147554
0.0151889
0.0135749
0.00557483
-0.000599648
0.00942746
-9799.72
-9799.75
-9799.79
-9799.71
-9799.95
-9799.97
-9799.97
-9799.96
-9799.75
-9799.68
-9799.98
-9799.98
-9799.76
-9799.94
-9799.97
-9799.96
-9799.94
-9799.89
-9799.75
-9799.91
-9800.2
-9800.21
-9800.21
-9800.2
-9800.18
-9800.18
-9800.18
-9800.19
-9800.2
-9800.2
-9800.19
-9800.19
-9800.2
-9800.19
-9800.18
-9800.19
-9800.19
-9800.19
-9800.2
-9800.19
-9800.2
-9800.21
-9800.2
-9800.2
-9800.19
-9800.2
-9800.2
-9800.2
-9800.2
-9800.21
-9800.2
-9800.2
-9800.2
-9800.19
-9800.19
-9800.19
-9800.19
-9800.19
-9800.2
-9800.2
-9800.2
-9800.2
-9800.2
-9800.2
-9800.2
-9800.2
-9800.2
-9800.2
-9800.21
-9800.21
-9800.2
-9800.2
-9800.2
-9800.2
-9800.2
-9800.2
-9800.19
-9800.21
-9800.2
-9800.21
-9800.19
-9800.19
-9800.2
-9800.2
-9800.2
-9800.2
-9800.2
-9800.2
-9800.2
-9800.2
-9800.19
-9800.19
-9800.19
-9800.2
-9800.21
-9800.22
-0.0059396
-0.003295
-0.00965032
-0.000502138
-0.0171329
0.00125809
-0.0122382
0.00420482
0.0021416
-0.0064788
-0.00749286
-0.00234609
-0.00787715
0.00161692
0.00202805
-0.000989781
0.00163385
0.0060391
-0.00308191
-0.00783119
-0.00950349
-0.00614739
-0.0126844
-0.00529683
-0.00252495
-0.000159594
-0.000849572
-0.0136571
-9799.72
-9799.73
-9799.69
-9799.81
-9799.66
-9799.8
-9799.67
-9799.7
-9799.69
-9799.7
-9799.72
-9799.72
-9799.68
-9799.74
-9799.75
-9799.73
-9799.76
-9799.72
-9799.75
-9799.73
-9799.73
-9799.73
-9799.69
-9799.74
-9799.75
-9799.76
-9799.75
-9799.66
-9800.2
-9800.2
-9800.22
-9800.21
-9800.2
-9800.17
-9800.2
-9800.2
-9800.2
-9800.2
-9800.19
-9800.2
-9800.2
-9800.19
-9800.2
-9800.2
-9800.2
-9800.2
-9800.2
-9800.19
-9800.19
-9800.19
-9800.2
-9800.2
-9800.2
-9800.2
-9800.2
-9800.22
-9800.19
-9800.18
-9800.22
-9800.21
-9800.21
-9800.19
-9800.2
-9800.2
-9800.2
-9800.2
-9800.2
-9800.2
-9800.2
-9800.2
-9800.21
-9800.2
-9800.2
-9800.2
-9800.2
-9800.19
-9800.19
-9800.19
-9800.2
-9800.2
-9800.19
-9800.19
-9800.2
-9800.22
-9800.2
-9800.15
-9800.19
-9800.2
-9800.21
-9800.2
-9800.2
-9800.2
-9800.2
-9800.2
-9800.2
-9800.2
-9800.2
-9800.2
-9800.2
-9800.2
-9800.2
-9800.2
-9800.2
-9800.2
-9800.2
-9800.19
-9800.2
-9800.2
-9800.19
-9800.19
-9800.2
-9800.25
0.00126532
-0.00135749
-0.00560718
-0.00374268
-9799.73
-9799.72
-9799.7
-9799.69
)
;

boundaryField
{
    top_fluid_surface
    {
        type            totalPressure;
        rho             rho;
        psi             none;
        gamma           1;
        p0              uniform 0;
        value           nonuniform List<scalar> 
64
(
-3.51994e-09
-3.76179e-09
-1.1345e-08
-1.48189e-08
0
-3.90764e-09
-6.8526e-09
-2.69036e-09
-8.32661e-09
0
0
-5.58806e-10
-3.29939e-09
-3.82682e-09
0
-7.6982e-09
0
0
0
0
-1.35069e-09
-1.16063e-08
0
0
-9.30386e-10
0
0
0
0
0
-2.55896e-10
0
-8.78359e-09
-1.80542e-09
-2.977e-08
0
-4.06789e-08
-1.28539e-11
-6.08833e-08
-5.83741e-10
-3.22523e-10
-2.84713e-08
-2.9302e-08
-1.12425e-09
-2.30697e-08
-1.62545e-10
-3.04308e-10
-2.1547e-09
-3.57116e-10
-1.53545e-11
-6.105e-09
-2.26591e-08
-3.32245e-08
-9.80043e-09
-3.22974e-08
-1.49105e-08
-3.28689e-09
-7.52644e-11
-1.45039e-09
-6.31822e-08
-1.114e-09
-7.51366e-10
-5.5698e-09
-7.02283e-09
)
;
    }
    bottom_fluid_surface
    {
        type            fixedFluxPressure;
        gradient        uniform 0;
        value           nonuniform List<scalar> 
64
(
-9800.2
-9800.2
-9800.2
-9800.2
-9800.2
-9800.2
-9800.2
-9800.2
-9800.21
-9800.21
-9800.2
-9800.2
-9800.2
-9800.2
-9800.2
-9800.2
-9800.19
-9800.21
-9800.2
-9800.21
-9800.19
-9800.19
-9800.2
-9800.2
-9800.2
-9800.2
-9800.2
-9800.2
-9800.2
-9800.2
-9800.19
-9800.19
-9800.19
-9800.2
-9800.21
-9800.22
-9800.2
-9800.15
-9800.19
-9800.2
-9800.21
-9800.2
-9800.2
-9800.2
-9800.2
-9800.2
-9800.2
-9800.2
-9800.2
-9800.2
-9800.2
-9800.2
-9800.2
-9800.2
-9800.2
-9800.2
-9800.2
-9800.19
-9800.2
-9800.2
-9800.19
-9800.19
-9800.2
-9800.25
)
;
    }
    lateral_surface_1
    {
        type            fixedFluxPressure;
        gradient        uniform 0;
        value           nonuniform List<scalar> 
40
(
-0.0059396
-0.003295
-0.00965032
-0.000502138
-0.0171329
0.00125809
-0.0122382
-0.0136571
-9799.72
-9799.73
-9799.69
-9799.81
-9799.66
-9799.8
-9799.67
-9799.66
-9800.2
-9800.2
-9800.22
-9800.21
-9800.2
-9800.17
-9800.2
-9800.22
-9800.19
-9800.18
-9800.22
-9800.21
-9800.21
-9800.19
-9800.2
-9800.22
-9800.2
-9800.15
-9800.19
-9800.2
-9800.21
-9800.2
-9800.2
-9800.25
)
;
    }
    lateral_surface_2
    {
        type            fixedFluxPressure;
        gradient        uniform 0;
        value           nonuniform List<scalar> 
40
(
0.00161692
0.00202805
-0.000989781
0.00163385
0.0060391
-0.00308191
-0.00783119
-0.00950349
-9799.74
-9799.75
-9799.73
-9799.76
-9799.72
-9799.75
-9799.73
-9799.73
-9800.19
-9800.2
-9800.2
-9800.2
-9800.2
-9800.2
-9800.19
-9800.19
-9800.2
-9800.21
-9800.2
-9800.2
-9800.2
-9800.2
-9800.19
-9800.19
-9800.2
-9800.2
-9800.2
-9800.2
-9800.2
-9800.2
-9800.2
-9800.2
)
;
    }
    lateral_surface_3
    {
        type            fixedFluxPressure;
        gradient        uniform 0;
        value           nonuniform List<scalar> 
40
(
-0.0122382
0.00420482
0.0021416
-0.0064788
-0.00749286
-0.00234609
-0.00787715
0.00161692
-9799.67
-9799.7
-9799.69
-9799.7
-9799.72
-9799.72
-9799.68
-9799.74
-9800.2
-9800.2
-9800.2
-9800.2
-9800.19
-9800.2
-9800.2
-9800.19
-9800.2
-9800.2
-9800.2
-9800.2
-9800.2
-9800.2
-9800.2
-9800.2
-9800.2
-9800.2
-9800.2
-9800.2
-9800.2
-9800.2
-9800.2
-9800.2
)
;
    }
    lateral_surface_4
    {
        type            fixedFluxPressure;
        gradient        uniform 0;
        value           nonuniform List<scalar> 
40
(
-0.00950349
-0.00614739
-0.0126844
-0.00529683
-0.00252495
-0.000159594
-0.000849572
-0.0136571
-9799.73
-9799.73
-9799.69
-9799.74
-9799.75
-9799.76
-9799.75
-9799.66
-9800.19
-9800.19
-9800.2
-9800.2
-9800.2
-9800.2
-9800.2
-9800.22
-9800.19
-9800.19
-9800.2
-9800.2
-9800.19
-9800.19
-9800.2
-9800.22
-9800.2
-9800.19
-9800.2
-9800.2
-9800.19
-9800.19
-9800.2
-9800.25
)
;
    }
}


// ************************************************************************* //
