/*--------------------------------*- C++ -*----------------------------------*\
| =========                 |                                                 |
| \\      /  F ield         | OpenFOAM: The Open Source CFD Toolbox           |
|  \\    /   O peration     | Version:  v1612+                                |
|   \\  /    A nd           | Web:      www.OpenFOAM.com                      |
|    \\/     M anipulation  |                                                 |
\*---------------------------------------------------------------------------*/
FoamFile
{
    version     2.0;
    format      ascii;
    class       surfaceScalarField;
    location    "1.25";
    object      alphaPhi;
}
// * * * * * * * * * * * * * * * * * * * * * * * * * * * * * * * * * * * * * //

dimensions      [0 3 -1 0 0 0 0];

internalField   nonuniform List<scalar> 
2916
(
1.87444e-07
0.344534
-0.344534
1.37958e-07
0.344535
-0.344535
3.20806e-07
0.344535
-0.344535
8.37383e-07
0.344534
-0.344535
1.07336e-06
0.344534
-0.344535
0.344534
-0.344533
7.59103e-07
0.794693
-0.45016
1.0527e-06
0.794696
-0.450161
1.61893e-06
0.794695
-0.45016
1.58288e-06
0.794694
-0.450159
1.02635e-06
0.794694
-0.450159
0.794692
-0.450157
2.8997e-06
1.37121
-0.576524
5.02021e-06
1.37122
-0.576524
5.2189e-06
1.37122
-0.576521
3.94254e-06
1.37121
-0.576519
2.01436e-06
1.37121
-0.576518
1.37121
-0.576516
-8.93846e-07
2.105
-0.733779
4.26762e-06
2.105
-0.733783
4.31579e-06
2.105
-0.733777
2.72616e-06
2.105
-0.733776
1.60395e-06
2.105
-0.733776
2.10499
-0.733777
-1.41683e-05
2.92303
-0.817929
-1.06963e-06
2.92304
-0.817959
4.83095e-06
2.92304
-0.817954
6.44383e-06
2.92304
-0.817952
7.97356e-06
2.92304
-0.817953
2.92304
-0.817948
-2.29375e-05
3.42301
-0.569648
-6.79815e-06
3.42304
-0.569701
2.81754e-06
3.42304
-0.5697
5.5593e-06
3.42305
-0.569697
5.87898e-06
3.42305
-0.569696
3.42305
-0.56969
-1.38687e-05
2.85341
-0.232074
-5.93019e-06
2.85352
-0.232088
-3.33781e-07
2.85352
-0.232086
1.17508e-06
2.85352
-0.232085
6.85796e-07
2.85352
-0.232087
2.85345
-0.232082
4.21054e-06
0.327184
-0.0622406
3.02239e-06
0.327303
-0.0622469
-5.26961e-06
0.3273
-0.0622465
-1.37143e-05
0.327294
-0.0622465
-5.42122e-06
0.327293
-0.0622474
0.327194
-0.0622455
-3.4822e-06
0.0077506
0.0243291
-1.64343e-06
0.0077511
0.0243266
-8.16333e-07
0.00775119
0.0243274
-9.63569e-07
0.00775123
0.0243274
9.47561e-07
0.00775127
0.0243263
0.00775029
0.0243303
1.70936e-07
0.000513287
0.0054158
1.16713e-07
0.000513251
0.00541615
1.77371e-07
0.000513261
0.00541617
2.96059e-07
0.000513256
0.00541617
4.98527e-07
0.000513166
0.00541626
0.000513266
0.00541629
3.21964e-08
5.13915e-05
0.000354495
5.45e-08
5.14166e-05
0.000354399
7.33853e-08
5.14104e-05
0.000354429
8.93372e-08
5.14093e-05
0.00035443
7.91946e-08
5.14129e-05
0.000354361
5.13876e-05
0.000354599
5.21412e-10
1.40944e-05
2.20233e-09
1.41019e-05
2.98483e-09
1.41011e-05
3.2526e-09
1.41014e-05
2.70947e-09
1.41026e-05
1.40954e-05
3.41835e-07
0.318725
-0.663259
1.97927e-07
0.318726
-0.663261
2.4426e-07
0.318725
-0.66326
3.46995e-07
0.318724
-0.663259
1.72871e-07
0.318725
-0.663259
0.318724
-0.663257
3.18163e-06
0.712448
-0.843887
2.77974e-06
0.712454
-0.843888
2.19997e-06
0.712452
-0.843887
7.5127e-07
0.712451
-0.843885
-4.67915e-07
0.712452
-0.843884
0.712449
-0.843882
8.14697e-06
1.17999
-1.04407
8.16832e-06
1.18001
-1.04407
4.91525e-06
1.18
-1.04406
2.08358e-06
1.18
-1.04406
1.95165e-06
1.18
-1.04406
1.18
-1.04406
2.43533e-06
1.81975
-1.37344
6.76967e-06
1.81977
-1.37345
4.44474e-06
1.81977
-1.37344
2.92849e-06
1.81977
-1.37344
4.32841e-06
1.81976
-1.37345
1.81976
-1.37344
-6.99315e-06
1.60478
-0.814625
4.99087e-06
1.60481
-0.814664
8.48803e-06
1.60482
-0.814667
8.53364e-06
1.60482
-0.814667
7.80705e-06
1.60482
-0.814672
1.60483
-0.814674
-4.0601e-06
0.293816
-0.146188
2.37979e-06
0.293835
-0.146203
4.53309e-06
0.293833
-0.146203
4.02862e-06
0.293832
-0.146203
3.62344e-06
0.293835
-0.146204
0.293829
-0.146205
7.38573e-07
0.0679802
-0.00602956
1.01742e-07
0.0679875
-0.00603066
-1.85995e-07
0.0679872
-0.0060304
-2.75182e-07
0.0679871
-0.00603033
-2.19631e-07
0.067988
-0.00603075
0.0679862
-0.00603053
-3.36874e-07
0.00617698
-0.000452682
-4.30905e-07
0.00617792
-0.000452862
-3.79909e-07
0.00617784
-0.000452832
-3.21026e-07
0.0061778
-0.000452831
-3.22596e-07
0.0061779
-0.0004529
0.00617771
-0.000452896
-5.88996e-07
0.0268075
-0.00091629
-1.36867e-06
0.0268116
-0.000917065
-1.55849e-06
0.0268107
-0.000917048
-1.60472e-06
0.0268104
-0.000917008
-2.10224e-06
0.0268111
-0.000917024
0.0268058
-0.00091631
-1.80879e-07
3.39405e-05
0.00498422
-4.64569e-07
3.4306e-05
0.00498449
-4.38009e-07
3.42301e-05
0.00498422
-3.70184e-07
3.42561e-05
0.00498414
-2.60307e-07
3.44706e-05
0.0049843
3.38239e-05
0.00498386
1.8835e-08
-8.58674e-06
0.00014592
3.168e-08
-8.59026e-06
0.000145975
3.13794e-08
-8.59038e-06
0.000145959
2.66372e-08
-8.59066e-06
0.000145965
2.44521e-08
-8.59087e-06
0.000146001
-8.58728e-06
0.00014593
-1.34729e-10
2.31902e-06
3.44868e-10
2.32065e-06
5.60656e-10
2.3204e-06
5.80868e-10
2.32048e-06
5.66767e-10
2.32107e-06
2.3197e-06
3.21029e-06
0.205444
-0.868706
3.51546e-06
0.205448
-0.868709
3.60207e-06
0.205447
-0.868707
3.09577e-06
0.205447
-0.868706
1.45572e-06
0.205448
-0.868705
0.205447
-0.868703
9.41976e-06
0.397869
-1.03631
9.00821e-06
0.397881
-1.03631
6.22492e-06
0.397882
-1.03631
3.70731e-06
0.397882
-1.03631
3.02461e-06
0.397883
-1.03631
0.39788
-1.0363
9.83073e-06
0.821022
-1.43341
8.40937e-06
0.821045
-1.43341
4.11388e-06
0.821047
-1.43341
2.54901e-06
0.821046
-1.43341
4.09754e-06
0.821044
-1.43341
0.821038
-1.4334
9.82208e-06
0.674667
-0.524131
1.16006e-05
0.674698
-0.524148
1.30609e-05
0.674703
-0.524148
1.46737e-05
0.674704
-0.524149
1.32882e-05
0.674707
-0.524153
0.674714
-0.524163
6.07161e-06
0.150827
-0.0440246
6.95325e-06
0.150842
-0.0440289
6.08849e-06
0.150843
-0.0440295
5.29369e-06
0.150843
-0.0440298
2.84984e-06
0.150844
-0.0440307
0.150845
-0.0440341
5.87441e-07
0.00649682
-0.00135614
5.01044e-07
0.00649808
-0.00135651
5.20908e-07
0.00649783
-0.00135649
5.78207e-07
0.00649776
-0.00135649
4.47669e-07
0.00649822
-0.00135656
0.00649803
-0.00135662
-1.4643e-09
0.000473741
-5.74292e-06
-3.57057e-08
0.000473932
-5.74712e-06
-2.75031e-08
0.000473891
-5.74525e-06
-1.59874e-08
0.000473886
-5.74514e-06
-2.49922e-08
0.000473958
-5.74755e-06
0.000473951
-5.74799e-06
-4.32431e-10
3.0882e-05
-1.1652e-05
-1.71619e-09
3.09021e-05
-1.16553e-05
-2.58313e-09
3.08899e-05
-1.1655e-05
-2.56701e-09
3.08863e-05
-1.16549e-05
-3.23333e-09
3.08967e-05
-1.16565e-05
3.08873e-05
-1.16568e-05
-2.98264e-08
7.86374e-05
-4.76337e-05
-5.32787e-08
7.88333e-05
-4.76492e-05
-7.31927e-08
7.87162e-05
-4.76454e-05
-1.106e-07
7.8713e-05
-4.76464e-05
-1.85743e-07
7.89114e-05
-4.76551e-05
7.86549e-05
-4.76354e-05
3.08927e-08
-5.83775e-06
7.11386e-05
5.77782e-08
-5.8258e-06
7.11461e-05
4.44074e-08
-5.8301e-06
7.11386e-05
6.71919e-09
-5.82858e-06
7.11379e-05
-2.4546e-08
-5.81755e-06
7.11467e-05
-5.83281e-06
7.11294e-05
1.60429e-09
-3.88101e-07
1.38288e-05
2.58813e-09
-3.89401e-07
1.38337e-05
2.21255e-09
-3.89287e-07
1.38319e-05
1.54883e-09
-3.89317e-07
1.38331e-05
1.44506e-09
-3.89862e-07
1.38388e-05
-3.89192e-07
1.38345e-05
-3.84174e-11
1.65209e-07
-3.23774e-11
1.65256e-07
-2.58503e-11
1.65242e-07
-2.08819e-11
1.65254e-07
-3.76177e-12
1.6529e-07
1.65222e-07
1.36825e-05
-0.0784505
-0.790261
1.08803e-05
-0.0784404
-0.790257
8.28875e-06
-0.078439
-0.790256
5.78251e-06
-0.0784385
-0.790256
4.37658e-06
-0.0784383
-0.790257
-0.0784353
-0.790255
9.52131e-06
0.171439
-1.2062
6.03284e-06
0.171459
-1.2062
2.56057e-06
0.171461
-1.2062
3.73575e-07
0.171461
-1.2062
3.07209e-06
0.171459
-1.2062
0.171465
-1.2062
5.51385e-06
0.239972
-0.280472
2.26207e-06
0.239985
-0.280477
1.52881e-06
0.239985
-0.280476
1.34973e-06
0.239985
-0.280476
-1.69678e-06
0.239987
-0.280476
0.239999
-0.280483
1.07574e-06
0.0451799
-0.00596008
9.13461e-07
0.0451844
-0.00596097
6.02895e-07
0.045185
-0.00596089
3.3371e-07
0.0451852
-0.00596093
-1.51054e-07
0.0451861
-0.00596109
0.0451895
-0.00596206
9.8284e-08
0.00136714
-0.000167941
1.27633e-07
0.00136751
-0.000168001
1.49127e-07
0.00136749
-0.000168
1.66178e-07
0.00136749
-0.000168002
1.05877e-07
0.00136756
-0.000168012
0.00136763
-0.000168033
8.35431e-10
3.73544e-06
-7.36031e-09
-1.64014e-10
3.73978e-06
-7.36456e-09
4.70936e-10
3.73817e-06
-7.362e-09
7.06509e-10
3.7384e-06
-7.3601e-09
-5.93203e-10
3.74134e-06
-7.36025e-09
3.7422e-06
-7.36361e-09
-1.94602e-12
-2.07419e-06
-9.28493e-10
3.66472e-12
-2.07451e-06
-9.26906e-10
8.73822e-12
-2.07445e-06
-9.27609e-10
1.01991e-11
-2.07416e-06
-9.26709e-10
3.55168e-12
-2.07348e-06
-9.29733e-10
-2.07314e-06
-9.39522e-10
3.79544e-10
-1.34452e-05
4.24909e-08
5.02597e-10
-1.34439e-05
4.24535e-08
4.01291e-10
-1.34428e-05
4.24406e-08
2.12963e-10
-1.34408e-05
4.24169e-08
-1.80344e-10
-1.34361e-05
4.23502e-08
-1.34369e-05
4.23108e-08
3.42381e-09
-5.69591e-05
-9.16578e-07
2.66633e-09
-5.69681e-05
-9.16973e-07
1.57734e-09
-5.69632e-05
-9.16952e-07
-5.37887e-11
-5.69616e-05
-9.1709e-07
-1.99959e-09
-5.69647e-05
-9.17593e-07
-5.69508e-05
-9.17173e-07
4.60146e-09
-1.09683e-06
1.70431e-06
3.35892e-09
-1.09759e-06
1.70425e-06
8.08221e-10
-1.09746e-06
1.70407e-06
-1.58735e-09
-1.0976e-06
1.70405e-06
-2.12917e-09
-1.09812e-06
1.70444e-06
-1.09734e-06
1.70396e-06
-9.66237e-11
-9.41759e-08
4.93663e-08
-2.14921e-10
-9.42022e-08
4.93344e-08
-3.00904e-10
-9.41913e-08
4.93372e-08
-3.13241e-10
-9.41973e-08
4.93451e-08
-1.96696e-10
-9.4225e-08
4.93704e-08
-9.41844e-08
4.93905e-08
-1.55617e-12
7.17715e-09
-1.88205e-12
7.18129e-09
-1.90832e-12
7.18107e-09
-1.64028e-12
7.18221e-09
-9.44791e-13
7.18548e-09
7.18126e-09
-1.13818e-82
-1.422e-74
3.90161e-79
-2.23655e-83
-1.42334e-74
3.90536e-79
9.99716e-85
-1.42335e-74
3.90543e-79
2.00966e-83
-1.42346e-74
3.90559e-79
2.42895e-83
-1.42371e-74
3.90621e-79
-1.4224e-74
3.9026e-79
-4.03714e-78
-5.08676e-70
1.4771e-74
-9.6905e-79
-5.09176e-70
1.47857e-74
3.32175e-79
-5.09206e-70
1.47864e-74
1.15123e-78
-5.09249e-70
1.47873e-74
1.72752e-78
-5.09351e-70
1.47903e-74
-5.08909e-70
1.47775e-74
-8.66861e-74
-8.74982e-66
2.77583e-70
-2.18459e-74
-8.75854e-66
2.77861e-70
7.65527e-75
-8.75925e-66
2.77876e-70
2.51577e-74
-8.76007e-66
2.77901e-70
3.63804e-74
-8.76196e-66
2.77962e-70
-8.75451e-66
2.7773e-70
-1.39163e-69
-9.5334e-62
3.36815e-66
-3.35503e-70
-9.54302e-62
3.37159e-66
7.2782e-71
-9.54388e-62
3.37187e-66
3.11182e-70
-9.54482e-62
3.37224e-66
4.61521e-70
-9.54696e-62
3.37304e-66
-9.53895e-62
3.37032e-66
-1.84171e-65
-7.33371e-58
2.89207e-62
-5.13097e-66
-7.34124e-58
2.89511e-62
-1.41531e-67
-7.3419e-58
2.89544e-62
2.77107e-66
-7.34261e-58
2.8958e-62
4.70878e-66
-7.34427e-58
2.89655e-62
-7.33816e-58
2.89427e-62
-1.54048e-61
-4.22712e-54
1.8236e-58
-4.30184e-62
-4.23147e-54
1.82559e-58
1.60673e-63
-4.23183e-54
1.82585e-58
2.61429e-62
-4.23222e-54
1.8261e-58
4.38099e-62
-4.23318e-54
1.8266e-58
-4.22968e-54
1.82519e-58
-8.87292e-58
-1.90313e-50
8.55826e-55
-2.16824e-58
-1.90509e-50
8.56793e-55
4.1685e-59
-1.90524e-50
8.56927e-55
2.01179e-58
-1.90541e-50
8.57045e-55
3.19641e-58
-1.90585e-50
8.57281e-55
-1.90429e-50
8.56624e-55
-3.48212e-54
-6.9397e-47
2.9357e-51
-5.4061e-55
-6.94682e-47
2.93898e-51
6.73151e-55
-6.94734e-47
2.93946e-51
1.44318e-54
-6.948e-47
2.93984e-51
1.93587e-54
-6.94968e-47
2.94065e-51
-6.94408e-47
2.93846e-51
-8.54315e-51
-2.1319e-43
5.1335e-48
1.2123e-51
-2.13407e-43
5.13936e-48
5.1994e-51
-2.13424e-43
5.14059e-48
7.55634e-51
-2.13447e-43
5.1414e-48
8.56004e-51
-2.13503e-43
5.14316e-48
-2.13335e-43
5.13988e-48
-1.17056e-47
-5.19221e-40
-7.29902e-41
1.26488e-47
-5.19755e-40
-7.30475e-41
2.3011e-47
-5.19811e-40
-7.30403e-41
2.76206e-47
-5.19886e-40
-7.30417e-41
2.75859e-47
-5.20049e-40
-7.30551e-41
-5.19663e-40
-7.29879e-41
-5.97294e-45
-7.54496e-37
-7.41167e-37
4.86074e-44
-7.55302e-37
-7.41902e-37
6.75462e-44
-7.55416e-37
-7.41963e-37
7.21881e-44
-7.55561e-37
-7.42066e-37
6.42832e-44
-7.55838e-37
-7.42302e-37
-7.55315e-37
-7.41747e-37
1.16034e-41
-2.95636e-33
6.78115e-41
-2.9596e-33
8.99039e-41
-2.96004e-33
9.35564e-41
-2.96062e-33
8.13187e-41
-2.96174e-33
-2.9597e-33
-6.56577e-79
-9.99413e-71
5.50508e-75
-1.40103e-79
-1.00037e-70
5.51026e-75
7.98828e-80
-1.00039e-70
5.51027e-75
2.08556e-79
-1.00044e-70
5.51041e-75
3.07247e-79
-1.00059e-70
5.51114e-75
-9.99677e-71
5.50586e-75
-2.075e-74
-3.55167e-66
2.07998e-70
-3.38083e-75
-3.55516e-66
2.08199e-70
4.93408e-75
-3.55535e-66
2.08206e-70
9.91262e-75
-3.55557e-66
2.08215e-70
1.65159e-74
-3.55624e-66
2.08251e-70
-3.55314e-66
2.08064e-70
-4.23808e-70
-6.04037e-62
3.89453e-66
-3.59987e-71
-6.04638e-62
3.89832e-66
1.02038e-70
-6.04679e-62
3.89851e-66
2.02882e-70
-6.04722e-62
3.89875e-66
3.20309e-70
-6.04844e-62
3.8995e-66
-6.04326e-62
3.89611e-66
-7.24397e-66
-6.46111e-58
4.68645e-62
-1.20493e-66
-6.46763e-58
4.69109e-62
8.29209e-67
-6.4681e-58
4.69141e-62
2.51539e-66
-6.46858e-58
4.69176e-62
4.2707e-66
-6.46991e-58
4.69273e-62
-6.46442e-58
4.68876e-62
-9.19944e-62
-4.83489e-54
3.96103e-58
-2.22138e-62
-4.83982e-54
3.96506e-58
5.76649e-63
-4.84017e-54
3.96538e-58
2.75968e-62
-4.84052e-54
3.96573e-58
5.15045e-62
-4.84152e-54
3.9666e-58
-4.83742e-54
3.96329e-58
-7.39677e-58
-2.68138e-50
2.42766e-54
-1.69904e-58
-2.68413e-50
2.43018e-54
6.83667e-59
-2.68431e-50
2.4304e-54
2.70516e-58
-2.6845e-50
2.43063e-54
5.04876e-58
-2.68506e-50
2.43117e-54
-2.68281e-50
2.42915e-54
-3.70237e-54
-1.14894e-46
1.07575e-50
-4.20157e-55
-1.15012e-46
1.07687e-50
1.09659e-54
-1.15019e-46
1.07697e-50
2.3734e-54
-1.15028e-46
1.07706e-50
3.77109e-54
-1.15053e-46
1.0773e-50
-1.14958e-46
1.0764e-50
-9.10974e-51
-3.97144e-43
3.29648e-47
3.57453e-51
-3.97552e-43
3.2999e-47
9.11951e-51
-3.97579e-43
3.30016e-47
1.3836e-50
-3.97613e-43
3.30041e-47
1.86325e-50
-3.97711e-43
3.30113e-47
-3.97393e-43
3.29837e-47
-4.65478e-48
-1.1723e-39
5.76426e-44
3.36147e-47
-1.17351e-39
5.77027e-44
5.12571e-47
-1.17361e-39
5.77076e-44
6.21672e-47
-1.17374e-39
5.77112e-44
6.96237e-47
-1.17406e-39
5.77234e-44
-1.17316e-39
5.76752e-44
4.22783e-44
-2.80002e-36
-3.33689e-37
1.40858e-43
-2.80295e-36
-3.34021e-37
1.82467e-43
-2.80327e-36
-3.34022e-37
1.9663e-43
-2.80368e-36
-3.34058e-37
1.89639e-43
-2.80462e-36
-3.34157e-37
-2.8026e-36
-3.33897e-37
1.44334e-40
-3.31349e-33
-4.04153e-33
3.14926e-40
-3.31711e-33
-4.0457e-33
3.68399e-40
-3.31758e-33
-4.04615e-33
3.5737e-40
-3.31819e-33
-4.04681e-33
3.00934e-40
-3.31942e-33
-4.04825e-33
-3.3171e-33
-4.04542e-33
3.86184e-38
-1.14606e-29
1.25913e-37
-1.14733e-29
1.58249e-37
-1.1475e-29
1.74739e-37
-1.14771e-29
1.94768e-37
-1.14815e-29
-1.14736e-29
-3.99722e-75
-7.85638e-67
6.35878e-71
-4.2542e-76
-7.86349e-67
6.36445e-71
1.15785e-75
-7.86398e-67
6.36468e-71
2.19698e-75
-7.86464e-67
6.36508e-71
2.92528e-75
-7.86639e-67
6.36634e-71
-7.85997e-67
6.36093e-71
-1.25717e-70
-2.9247e-62
2.53181e-66
1.2646e-71
-2.92743e-62
2.53413e-66
6.65483e-71
-2.92766e-62
2.53428e-66
1.05915e-70
-2.92795e-62
2.53449e-66
1.5147e-70
-2.92868e-62
2.53509e-66
-2.92641e-62
2.53307e-66
-2.82764e-66
-5.17265e-58
4.98606e-62
1.89789e-67
-5.17754e-58
4.99068e-62
1.21982e-66
-5.178e-58
4.99106e-62
2.0568e-66
-5.17855e-58
4.99155e-62
2.93968e-66
-5.17988e-58
4.9928e-62
-5.17591e-58
4.98893e-62
-5.48853e-62
-5.68368e-54
6.27059e-58
-7.57929e-63
-5.68912e-54
6.27652e-58
1.06559e-62
-5.68964e-54
6.27708e-58
2.46794e-62
-5.69024e-54
6.27776e-58
3.96685e-62
-5.69171e-54
6.27941e-58
-5.68736e-54
6.27464e-58
-6.8688e-58
-4.29001e-50
5.48062e-54
-1.34223e-58
-4.29416e-50
5.48592e-54
8.97178e-59
-4.29453e-50
5.48644e-54
2.76156e-58
-4.29496e-50
5.48707e-54
4.79452e-58
-4.29608e-50
5.48855e-54
-4.2928e-50
5.48441e-54
-4.67248e-54
-2.33822e-46
3.43696e-50
-3.92676e-55
-2.34049e-46
3.44032e-50
1.3561e-54
-2.34068e-46
3.44066e-50
2.94947e-54
-2.34092e-46
3.44105e-50
4.71439e-54
-2.34154e-46
3.44198e-50
-2.33977e-46
3.43937e-50
-1.47524e-50
-9.46592e-43
1.56278e-46
5.93388e-51
-9.47519e-43
1.56431e-46
1.53694e-50
-9.47598e-43
1.56445e-46
2.3638e-50
-9.47703e-43
1.56462e-46
3.2013e-50
-9.47971e-43
1.56503e-46
-9.47266e-43
1.56384e-46
6.22282e-49
-2.88419e-39
5.08306e-43
6.57879e-47
-2.88707e-39
5.08802e-43
9.69017e-47
-2.88734e-39
5.08844e-43
1.19756e-46
-2.8877e-39
5.08896e-43
1.36361e-46
-2.88859e-39
5.09033e-43
-2.88649e-39
5.0865e-43
1.42965e-43
-6.63581e-36
9.93205e-40
2.73052e-43
-6.64256e-36
9.94178e-40
3.33902e-43
-6.64327e-36
9.94262e-40
3.56372e-43
-6.64423e-36
9.94371e-40
3.39887e-43
-6.64644e-36
9.94658e-40
-6.64172e-36
9.93931e-40
3.67985e-40
-1.20189e-32
5.62131e-38
5.05095e-40
-1.20313e-32
5.62705e-38
5.52881e-40
-1.20327e-32
5.62702e-38
5.19287e-40
-1.20346e-32
5.62696e-38
4.20209e-40
-1.20388e-32
5.62737e-38
-1.20304e-32
5.62366e-38
-4.32175e-39
-1.05464e-29
-9.36816e-30
1.52848e-37
-1.05581e-29
-9.37755e-30
2.18671e-37
-1.05594e-29
-9.37849e-30
1.99529e-37
-1.05612e-29
-9.3801e-30
1.49591e-37
-1.0565e-29
-9.38367e-30
-1.05576e-29
-9.37712e-30
-1.17647e-33
-2.07294e-26
-9.6179e-34
-2.07522e-26
-6.07865e-34
-2.07546e-26
-2.62284e-34
-2.07582e-26
6.44646e-35
-2.07661e-26
-2.07513e-26
-4.37485e-72
-1.11524e-63
1.17998e-67
-2.97678e-74
-1.11619e-63
1.18098e-67
1.99156e-72
-1.11625e-63
1.18101e-67
3.30205e-72
-1.11635e-63
1.18109e-67
4.1017e-72
-1.11663e-63
1.18135e-67
-1.11575e-63
1.18039e-67
-1.45954e-67
-4.51993e-59
5.15594e-63
4.81068e-68
-4.5239e-59
5.1604e-63
1.15503e-67
-4.52419e-59
5.16066e-63
1.65577e-67
-4.52468e-59
5.16114e-63
2.25869e-67
-4.52589e-59
5.16245e-63
-4.52248e-59
5.15847e-63
-3.89365e-63
-8.61077e-55
1.11007e-58
4.22517e-64
-8.6184e-55
1.11104e-58
2.04129e-63
-8.61902e-55
1.11111e-58
3.32922e-63
-8.61998e-55
1.11123e-58
4.66232e-63
-8.62235e-55
1.11153e-58
-8.61593e-55
1.11069e-58
-8.46917e-59
-1.00143e-50
1.5113e-54
-9.31538e-60
-1.00232e-50
1.51265e-54
1.96779e-59
-1.00239e-50
1.51276e-54
4.2873e-59
-1.0025e-50
1.51293e-54
6.88196e-59
-1.00278e-50
1.51335e-54
-1.00204e-50
1.51223e-54
-9.99678e-55
-7.79734e-47
1.40508e-50
-1.18569e-55
-7.80437e-47
1.40634e-50
2.47427e-55
-7.80487e-47
1.40644e-50
5.58649e-55
-7.80572e-47
1.40661e-50
9.03002e-55
-7.80793e-47
1.40701e-50
-7.80216e-47
1.40598e-50
-5.08237e-51
-4.23821e-43
9.10332e-47
1.17369e-51
-4.24205e-43
9.1116e-47
3.92281e-51
-4.24231e-43
9.11225e-47
6.34344e-51
-4.24281e-43
9.11332e-47
8.89642e-51
-4.24407e-43
9.11596e-47
-4.24097e-43
9.10926e-47
-1.54875e-48
-1.65169e-39
4.10603e-43
2.49894e-47
-1.65321e-39
4.10977e-43
3.7e-47
-1.65333e-39
4.11006e-43
4.6387e-47
-1.65355e-39
4.11054e-43
5.3993e-47
-1.65408e-39
4.11176e-43
-1.6529e-39
4.10875e-43
9.32569e-44
-4.75796e-36
1.26976e-39
1.49236e-43
-4.76245e-36
1.27093e-39
1.71889e-43
-4.76286e-36
1.27101e-39
1.80008e-43
-4.76357e-36
1.27117e-39
1.71932e-43
-4.76522e-36
1.27156e-39
-4.76189e-36
1.27064e-39
3.79699e-40
-1.06305e-32
2.52058e-36
4.05725e-40
-1.06408e-32
2.52293e-36
4.0656e-40
-1.06418e-32
2.52311e-36
3.60894e-40
-1.06435e-32
2.52345e-36
2.64347e-40
-1.06474e-32
2.52427e-36
-1.064e-32
2.52247e-36
3.17254e-37
-1.93809e-29
1.8802e-33
2.83706e-37
-1.94001e-29
1.882e-33
2.64377e-37
-1.94019e-29
1.88215e-33
1.60804e-37
-1.94052e-29
1.88245e-33
1.13884e-38
-1.94124e-29
1.88313e-33
-1.93988e-29
1.88182e-33
-8.91273e-34
-1.06938e-26
-1.86859e-26
-7.3865e-34
-1.07051e-26
-1.87039e-26
-6.10868e-34
-1.07061e-26
-1.87053e-26
-4.55585e-34
-1.07079e-26
-1.87085e-26
-3.09798e-34
-1.07119e-26
-1.87158e-26
-1.07041e-26
-1.87027e-26
-1.62285e-30
-1.92152e-23
-1.44633e-30
-1.9235e-23
-1.01619e-30
-1.92366e-23
-5.40517e-31
-1.92398e-23
-6.39704e-32
-1.92473e-23
-1.92335e-23
6.64106e-06
-0.415392
-0.335051
7.7269e-06
-0.415391
-0.335045
5.84599e-06
-0.415389
-0.335044
3.91811e-06
-0.415388
-0.335045
5.80015e-06
-0.415389
-0.335048
-0.415392
-0.335038
9.68404e-06
0.660036
-3.65172e-09
8.21681e-06
0.660049
-3.65353e-09
6.72106e-06
0.660048
-3.65443e-09
1.02787e-05
0.660046
-3.65413e-09
1.62444e-05
0.660044
-3.65348e-09
0.660059
-3.65219e-09
4.35559e-06
-1.81093e-08
4.85521e-06
-1.81532e-08
4.22123e-06
-1.81615e-08
5.67104e-06
-1.81498e-08
7.20855e-06
-1.81457e-08
-1.81458e-08
-6.69405e-07
-3.39069e-09
0.28641
-8.85545e-07
-3.39242e-09
0.286416
-2.42336e-07
-3.39325e-09
0.286414
-3.00015e-06
-3.39295e-09
0.286414
-1.01236e-05
-3.39235e-09
0.286414
-3.39122e-09
0.286423
4.70884e-15
-1.2969e-09
-6.55159e-09
5.02928e-15
-1.30004e-09
-6.55198e-09
7.95708e-15
-1.30064e-09
-6.55306e-09
2.39727e-15
-1.29979e-09
-6.55276e-09
-8.52191e-15
-1.29949e-09
-6.55171e-09
-1.29952e-09
-6.54928e-09
-8.51279e-15
-1.94062e-08
-1.08111e-14
-1.94532e-08
-1.11549e-14
-1.94621e-08
-9.21896e-15
-1.94496e-08
-4.17575e-15
-1.94451e-08
-1.94453e-08
1.69507e-07
-5.44536e-07
0.00592275
8.2676e-08
-5.44565e-07
0.00592367
1.82763e-07
-5.44647e-07
0.00592359
2.34619e-07
-5.44628e-07
0.00592364
6.76439e-08
-5.44544e-07
0.00592381
-5.44314e-07
0.0059248
2.60853e-13
-4.75223e-08
-5.04372e-07
2.24884e-13
-4.75732e-08
-5.0435e-07
5.25208e-13
-4.75865e-08
-5.0442e-07
9.01693e-13
-4.75728e-08
-5.04414e-07
1.37927e-12
-4.75644e-08
-5.04337e-07
-4.75528e-08
-5.04115e-07
-1.06829e-13
-6.73365e-08
-1.25682e-13
-6.74351e-08
-1.59871e-13
-6.74573e-08
-2.0568e-13
-6.7431e-08
-7.6255e-14
-6.74183e-08
-6.74069e-08
1.69717e-08
-0.000116705
7.90252e-05
1.40194e-08
-0.000116707
7.90759e-05
1.01517e-08
-0.000116709
7.90777e-05
6.36115e-09
-0.000116708
7.9081e-05
3.00341e-09
-0.000116708
7.90885e-05
-0.000116704
7.91098e-05
1.35309e-10
-3.01742e-06
-0.000121435
2.07679e-10
-3.02059e-06
-0.000121433
1.57162e-10
-3.0211e-06
-0.000121434
8.20501e-11
-3.02036e-06
-0.000121434
6.54941e-11
-3.02018e-06
-0.000121434
-3.02015e-06
-0.000121428
7.46084e-12
-2.89146e-06
4.80965e-12
-2.89484e-06
2.07509e-12
-2.89572e-06
9.65797e-13
-2.89474e-06
1.14958e-12
-2.89444e-06
-2.89476e-06
2.18127e-10
-8.93279e-05
-1.10033e-09
1.34678e-10
-8.93375e-05
-1.0983e-09
2.79563e-11
-8.93342e-05
-1.09939e-09
-1.29425e-10
-8.93338e-05
-1.0996e-09
-2.99426e-10
-8.9336e-05
-1.09838e-09
-8.93365e-05
-1.09766e-09
2.57623e-09
-6.66056e-06
-1.08649e-10
-5.68234e-10
-6.66383e-06
-1.08698e-10
-2.10523e-09
-6.66261e-06
-1.08685e-10
-3.10367e-09
-6.66182e-06
-1.08672e-10
-4.06807e-09
-6.6613e-06
-1.0866e-10
-6.65898e-06
-1.08668e-10
-1.48042e-11
-2.19223e-13
-1.31765e-11
-2.1934e-13
-1.69326e-11
-2.19321e-13
-3.32396e-12
-2.19296e-13
3.94426e-11
-2.19267e-13
-2.19108e-13
-1.75005e-14
6.85876e-11
-8.49101e-09
-1.93473e-14
6.86194e-11
-8.49339e-09
-4.71365e-15
6.86118e-11
-8.49185e-09
9.04914e-15
6.86051e-11
-8.49012e-09
1.04625e-14
6.85988e-11
-8.48911e-09
6.86048e-11
-8.48654e-09
-1.09118e-16
-3.13247e-16
-4.14721e-11
-1.15354e-16
-3.13191e-16
-4.14899e-11
-7.50052e-17
-3.13099e-16
-4.14844e-11
-2.62828e-17
-3.12937e-16
-4.14781e-11
2.33043e-17
-3.12777e-16
-4.14713e-11
-3.12615e-16
-4.14434e-11
-5.38302e-20
-2.19536e-13
-4.58471e-20
-2.19653e-13
-6.42692e-20
-2.19634e-13
-5.883e-20
-2.19609e-13
4.55763e-21
-2.1958e-13
-2.19421e-13
6.54559e-14
-2.75118e-11
-7.72325e-08
4.8736e-13
-2.74835e-11
-7.72506e-08
7.50089e-13
-2.74674e-11
-7.72379e-08
9.02688e-13
-2.74248e-11
-7.72241e-08
7.29092e-13
-2.74206e-11
-7.72103e-08
-2.75391e-11
-7.71844e-08
-7.62099e-17
-4.57739e-13
-6.66691e-11
5.6056e-17
-4.58036e-13
-6.66578e-11
1.34169e-16
-4.57945e-13
-6.66365e-11
6.18727e-16
-4.57888e-13
-6.65881e-11
1.06184e-15
-4.57782e-13
-6.65772e-11
-4.57218e-13
-6.66677e-11
7.70405e-19
-5.52066e-13
1.70547e-18
-5.52392e-13
2.21663e-18
-5.52359e-13
2.73677e-18
-5.52341e-13
2.41326e-18
-5.52188e-13
-5.51529e-13
1.15875e-11
-1.00271e-08
-3.64302e-07
1.95063e-11
-1.00287e-08
-3.64309e-07
2.05862e-11
-1.0027e-08
-3.64245e-07
1.78183e-11
-1.00252e-08
-3.64175e-07
1.00918e-11
-1.0023e-08
-3.64069e-07
-1.00192e-08
-3.63996e-07
1.98192e-15
-5.83209e-11
-1.06799e-08
6.0139e-14
-5.83333e-11
-1.06819e-08
9.97818e-14
-5.83219e-11
-1.06801e-08
1.35219e-13
-5.83088e-11
-1.06782e-08
1.36589e-13
-5.82908e-11
-1.06759e-08
-5.82666e-11
-1.06715e-08
-1.13731e-16
-8.1941e-11
-1.19699e-16
-8.19646e-11
-6.34358e-18
-8.19506e-11
1.9347e-16
-8.19354e-11
2.60798e-16
-8.19177e-11
-8.18768e-11
5.38497e-11
-1.53399e-08
-1.16534e-06
5.13994e-11
-1.53435e-08
-1.16566e-06
3.14187e-11
-1.53428e-08
-1.16556e-06
1.31561e-11
-1.53443e-08
-1.16564e-06
1.04289e-11
-1.53507e-08
-1.16605e-06
-1.53447e-08
-1.16558e-06
1.97333e-13
-5.30718e-11
-2.35183e-08
5.68456e-13
-5.30583e-11
-2.35232e-08
6.19677e-13
-5.30976e-11
-2.35206e-08
6.19619e-13
-5.31768e-11
-2.35203e-08
7.79637e-13
-5.33417e-11
-2.35245e-08
-5.33919e-11
-2.35139e-08
-6.30035e-15
-2.38946e-10
-2.42485e-15
-2.3901e-10
1.33196e-15
-2.38993e-10
4.14673e-15
-2.39005e-10
5.54663e-15
-2.39074e-10
-2.38964e-10
2.56374e-11
3.81516e-08
-3.86503e-08
-5.73421e-11
3.816e-08
-3.86641e-08
-1.46359e-10
3.81563e-08
-3.86599e-08
-1.88522e-10
3.8157e-08
-3.86635e-08
-1.08289e-10
3.81666e-08
-3.86783e-08
3.81487e-08
-3.86606e-08
-9.2136e-13
2.33731e-09
-4.45539e-10
-1.83957e-12
2.3383e-09
-4.45749e-10
-2.67885e-12
2.3382e-09
-4.45737e-10
-2.83754e-12
2.33845e-09
-4.45824e-10
-7.77273e-13
2.33939e-09
-4.46039e-10
2.33815e-09
-4.45829e-10
-1.73481e-14
-5.18535e-12
-1.71506e-14
-5.18817e-12
-1.16349e-14
-5.18819e-12
-6.08218e-15
-5.18933e-12
5.63763e-15
-5.1922e-12
-5.18936e-12
-9.05029e-12
1.04684e-09
-6.69015e-09
-1.60738e-11
1.04758e-09
-6.69389e-09
-2.01849e-11
1.04759e-09
-6.69365e-09
-1.98731e-11
1.04783e-09
-6.6947e-09
-1.15077e-11
1.04843e-09
-6.69772e-09
1.0478e-09
-6.69378e-09
-1.0902e-13
8.26439e-11
-5.79553e-11
-1.91373e-13
8.27002e-11
-5.79365e-11
-2.33459e-13
8.26993e-11
-5.79364e-11
-2.25577e-13
8.27154e-11
-5.79438e-11
-1.06077e-13
8.27592e-11
-5.79751e-11
8.27049e-11
-5.79616e-11
-4.75106e-16
1.38572e-13
-9.07661e-16
1.38697e-13
-1.14082e-15
1.38709e-13
-1.0852e-15
1.38755e-13
-3.49383e-16
1.38852e-13
1.38757e-13
-1.15309e-13
7.27479e-11
1.48517e-11
-1.61811e-13
7.27709e-11
1.48634e-11
-1.76257e-13
7.27678e-11
1.48631e-11
-1.59077e-13
7.27781e-11
1.48652e-11
-9.34751e-14
7.28183e-11
1.4871e-11
7.27732e-11
1.48616e-11
-1.44841e-15
2.65377e-12
-3.68024e-12
-2.43383e-15
2.65544e-12
-3.68301e-12
-2.92114e-15
2.65549e-12
-3.68296e-12
-2.75849e-15
2.65598e-12
-3.68365e-12
-1.42269e-15
2.65719e-12
-3.68558e-12
2.65569e-12
-3.68309e-12
-9.74182e-18
-3.46771e-14
-1.91482e-17
-3.47028e-14
-2.5651e-17
-3.47029e-14
-2.49315e-17
-3.47096e-14
-1.06008e-17
-3.47273e-14
-3.47044e-14
-1.16784e-25
3.9912e-21
-9.61071e-19
1.13969e-20
-2.47426e-26
3.99499e-21
-9.6197e-19
1.14078e-20
2.40129e-26
3.99518e-21
-9.61993e-19
1.14083e-20
5.8812e-26
3.99586e-21
-9.62145e-19
1.14102e-20
7.94891e-26
3.99749e-21
-9.62532e-19
1.14149e-20
3.99465e-21
-9.61835e-19
1.14067e-20
-3.27858e-27
3.82865e-22
-5.39515e-20
4.7006e-22
-2.80799e-28
3.83239e-22
-5.40039e-20
4.70521e-22
1.99266e-27
3.83264e-22
-5.40065e-20
4.70552e-22
3.90863e-27
3.83337e-22
-5.40166e-20
4.70642e-22
4.27672e-27
3.83505e-22
-5.40405e-20
4.70849e-22
3.83229e-22
-5.40008e-20
4.70509e-22
-5.49733e-30
-3.4267e-22
2.12307e-24
8.32318e-30
-3.43005e-22
2.12514e-24
1.98359e-29
-3.43028e-22
2.12531e-24
2.4962e-29
-3.43096e-22
2.12573e-24
2.08198e-29
-3.43249e-22
2.12667e-24
-3.43003e-22
2.12517e-24
-5.5629e-24
3.42623e-19
-5.35835e-17
-1.23351e-24
3.42942e-19
-5.36321e-17
2.05067e-24
3.4295e-19
-5.36322e-17
4.54247e-24
3.43005e-19
-5.36402e-17
5.87731e-24
3.43143e-19
-5.36615e-17
3.42896e-19
-5.36225e-17
-3.18544e-25
4.53386e-20
-4.38889e-18
-1.63028e-25
4.53825e-20
-4.3931e-18
6.65955e-26
4.53846e-20
-4.39323e-18
3.32836e-25
4.53931e-20
-4.39403e-18
3.41274e-25
4.54131e-20
-4.39598e-18
4.53798e-20
-4.39271e-18
-2.10292e-27
-3.76616e-20
-1.24225e-28
-3.76982e-20
2.11314e-27
-3.77001e-20
3.53863e-27
-3.77074e-20
1.93424e-27
-3.77244e-20
-3.7697e-20
-2.42882e-22
1.90427e-17
-8.3208e-17
-1.56639e-22
1.90598e-17
-8.32834e-17
-5.35279e-23
1.90598e-17
-8.32836e-17
1.06166e-22
1.90626e-17
-8.32962e-17
2.23709e-22
1.90701e-17
-8.33296e-17
1.90563e-17
-8.32684e-17
-3.09222e-23
3.69962e-18
-2.51899e-16
-2.6509e-23
3.70313e-18
-2.52134e-16
-1.53131e-23
3.70323e-18
-2.52137e-16
4.02714e-24
3.7039e-18
-2.52182e-16
1.38215e-23
3.70554e-18
-2.52294e-16
3.70279e-18
-2.52105e-16
-3.90877e-25
-2.83221e-18
-1.91277e-25
-2.83491e-18
2.53227e-26
-2.83501e-18
1.31725e-25
-2.83554e-18
7.88039e-26
-2.83684e-18
-2.83475e-18
-1.6171e-20
8.59996e-16
-8.66193e-15
-1.91415e-20
8.60735e-16
-8.669e-15
-1.91727e-20
8.60717e-16
-8.66894e-15
-7.69126e-21
8.60835e-16
-8.67013e-15
5.51142e-21
8.6117e-16
-8.67333e-15
8.60553e-16
-8.66745e-15
-3.08256e-21
2.08901e-16
-5.60321e-16
-3.61397e-21
2.09093e-16
-5.60855e-16
-3.42219e-21
2.09096e-16
-5.60863e-16
-2.18071e-21
2.09131e-16
-5.60963e-16
-2.53603e-22
2.09224e-16
-5.61215e-16
2.09068e-16
-5.60787e-16
-3.32836e-23
-1.46359e-16
-3.47824e-23
-1.46495e-16
-3.42606e-23
-1.46498e-16
-2.7945e-23
-1.46525e-16
-1.0814e-23
-1.46592e-16
-1.46484e-16
2.2215e-19
7.94586e-14
-6.64296e-13
-5.57734e-19
7.95242e-14
-6.64713e-13
-1.1143e-18
7.95224e-14
-6.64712e-13
-8.50581e-19
7.9533e-14
-6.64786e-13
-2.75683e-19
7.95639e-14
-6.64981e-13
7.95098e-14
-6.64632e-13
-2.2282e-19
1.21343e-15
-1.03433e-13
-2.99546e-19
1.2147e-15
-1.03534e-13
-3.16228e-19
1.2147e-15
-1.03534e-13
-2.60197e-19
1.21492e-15
-1.03547e-13
-8.61688e-20
1.21552e-15
-1.0358e-13
1.21453e-15
-1.0351e-13
-2.98735e-21
-2.93471e-16
-3.93499e-21
-2.93759e-16
-4.23832e-21
-2.93767e-16
-3.55911e-21
-2.93821e-16
-1.28283e-21
-2.93951e-16
-2.93733e-16
-3.86498e-17
8.73197e-12
-1.68228e-16
8.73912e-12
-1.92686e-16
8.73895e-12
-1.77075e-16
8.74022e-12
-1.49457e-16
8.74381e-12
8.73814e-12
-1.29711e-17
1.22434e-13
-2.22334e-17
1.22551e-13
-2.72927e-17
1.22552e-13
-2.51052e-17
1.22569e-13
-1.1075e-17
1.22612e-13
1.22532e-13
-1.27732e-19
-1.94196e-19
-2.36307e-19
-2.22185e-19
-9.28931e-20
-5.59227e-69
2.97897e-64
-2.40634e-60
1.73784e-69
2.9815e-64
-2.40841e-60
4.68537e-69
2.98174e-64
-2.40866e-60
6.50684e-69
2.98218e-64
-2.40906e-60
7.82922e-69
2.98311e-64
-2.40985e-60
2.98088e-64
-2.40812e-60
-1.40991e-72
2.95789e-67
-1.95053e-63
2.23857e-72
2.96041e-67
-1.9522e-63
3.6487e-72
2.96064e-67
-1.95239e-63
4.65167e-72
2.96108e-67
-1.95272e-63
5.45373e-72
2.962e-67
-1.95336e-63
2.95975e-67
-1.95193e-63
1.07413e-76
-1.56109e-67