/*--------------------------------*- C++ -*----------------------------------*\
| =========                 |                                                 |
| \\      /  F ield         | OpenFOAM: The Open Source CFD Toolbox           |
|  \\    /   O peration     | Version:  v1612+                                |
|   \\  /    A nd           | Web:      www.OpenFOAM.com                      |
|    \\/     M anipulation  |                                                 |
\*---------------------------------------------------------------------------*/
FoamFile
{
    version     2.0;
    format      ascii;
    class       volScalarField;
    location    "9.9";
    object      p;
}
// * * * * * * * * * * * * * * * * * * * * * * * * * * * * * * * * * * * * * //

dimensions      [1 -1 -2 0 0 0 0];

internalField   nonuniform List<scalar> 
1116
(
7284.86
7284.41
7281.37
7276.29
7272.06
7275.14
7411.41
7409.46
7412.64
7417.39
7427.49
7416.36
7546.41
7545.86
7547.23
7548.83
7554.84
7550.09
7674.54
7674.61
7673.5
7672.82
7673.86
7672.37
7871.5
7870.57
7867.73
7866.59
7865.52
7862.85
8213.91
8213.63
8211.27
8208.89
8206.58
8205.2
8912.45
8913.34
8911.94
8908.85
8905.49
8905.39
9993.96
9997.14
9996.47
9997.46
9998.62
9991.47
11642.1
11641.8
11641.8
11640.5
11641
11639.5
13144.1
13146.1
13145
13140.6
13134.1
13146.5
14537
14541.5
14536.3
14531.8
14533.3
14534.5
14362.2
14342.8
14342.4
14349.9
14329.2
14336.3
1585.2
1576.99
1572.46
1582.78
1585.08
1568.93
1568.36
1561.64
1561.4
1567.26
1577.5
1560.14
1431.91
1423.88
1424.86
1434.87
1446.81
1428.24
1458.6
1450.72
1448.22
1453.16
1455.57
1443.24
1534.43
1529.83
1525.79
1526.84
1525.04
1516.62
1687.49
1687.42
1685.1
1681.6
1678.09
1674.6
1950.35
1952.73
1953.32
1952.01
1950.93
1946.4
2519.49
2524.24
2527.73
2528.84
2530.89
2530.54
4015.04
4015.5
4014.33
4013.23
4007.95
4021.38
5685.31
5680.96
5684.86
5679.98
5661.29
5703.79
7068.54
7071.93
7076.59
7075.49
7074.6
7090.69
8165.84
8170.6
8166.46
8163.07
8159.03
8173.42
-27.7344
-27.5459
-27.642
-27.9982
-28.0956
-27.6961
-29.3528
-29.1896
-29.2245
-29.3508
-29.3843
-29.3183
-29.9631
-29.926
-29.7807
-29.6587
-29.6559
-29.8214
-28.4235
-28.5519
-28.4406
-28.1692
-28.0352
-28.3846
-25.9248
-26.0544
-26.0129
-25.8806
-25.8555
-25.9361
-23.5093
-23.588
-23.6174
-23.5796
-23.8595
-23.6688
-15.9391
-14.4313
-13.8458
-15.0274
-16.3394
-13.001
78.0237
78.3987
78.1405
78.1376
78.4219
78.5868
316.226
310.476
309.095
311.213
311.376
306.353
704.38
706.257
711.391
703.62
694.459
710.893
2782.57
2680.8
2694.57
2722.81
2730.9
2701.49
4197.73
4225.2
4218.67
4203.31
4211.69
4193.71
-27.23
-27.2628
-27.2901
-27.264
-27.1443
-27.2031
-27.0839
-27.0952
-27.087
-27.063
-26.9617
-26.9995
-26.7512
-26.6614
-26.7022
-26.7451
-26.7818
-26.7135
-28.0083
-27.9151
-27.9279
-27.9783
-28.0048
-27.8917
-28.7095
-28.6325
-28.6331
-28.6651
-28.6676
-28.5603
-31.8761
-31.8618
-31.8455
-31.8491
-31.8754
-31.7072
-42.538
-41.8971
-41.929
-42.1577
-41.8437
-41.4961
-38.4438
-38.4282
-38.6534
-38.5163
-38.1558
-38.6028
-35.1766
-36.9514
-37.9965
-37.9332
-38.4267
-37.5062
15.5609
1.45051
-2.81829
-8.54132
-10.9992
-5.88598
306.969
192.066
183.814
145.074
138.645
165.709
1240.4
1011.3
984.906
993.312
957.137
892.859
637.235
635.498
632.438
597.162
556.377
514.093
661.21
648.656
631.733
616.138
598.275
589.527
693.939
686.577
671.486
673.386
675.168
679.093
749.355
733.743
729.772
745.505
742.509
757.452
800.723
775.792
815.077
809.314
777.023
790.331
832.071
829.046
891.012
860.3
783.28
782.208
857.829
830.444
877.739
863.355
801.685
772.961
971.227
859.533
886.209
869.426
779.047
769.508
1054.8
960.061
1004.29
978.456
887.711
908.663
1127.58
1160.84
1169.52
1102.76
1122.26
1193.41
1054.23
1146.57
1182.48
1111.8
1177.13
1213.89
1024.73
1061.2
1056.58
1059.94
1089.65
1145.01
54.0807
50.282
51.5919
30.7228
22.3356
24.3592
64.9072
58.0718
49.0957
45.7542
40.1469
41.7383
87.1065
82.1322
78.755
80.262
72.9601
77.6186
118.878
108.458
113.656
125.097
122.39
124.34
145.785
158.347
209.001
202.859
158.155
140.634
150.049
204.221
288.528
210.642
136.02
124.036
169.818
200.737
213.94
162.103
103.803
106.2
342.532
199.552
178.058
140.484
80.783
97.8564
327.937
273.96
307.229
172.109
117.789
141.358
441.497
366.79
338.733
306.697
154.446
277.6
578.601
501.334
571.852
543.967
507.044
551.83
708.568
770.908
720.771
670.861
668.609
721.811
-23.3962
-23.3561
-22.8407
-24.1672
-23.8837
-21.9856
-23.7513
-23.1893
-22.3106
-23.53
-24.6715
-23.7074
-21.6047
-22.8596
-22.4841
-22.7168
-24.2025
-24.3815
-22.8731
-24.3233
-23.9451
-24.3512
-25.4037
-25.5571
-23.8729
-24.0313
-23.5853
-24.7186
-24.9864
-24.6356
-20.2062
-20.5209
-19.3571
-21.113
-20.9104
-20.0647
-15.8396
-17.0298
-14.749
-14.7526
-14.5021
-13.3802
-2.57112
-9.93233
-8.264
-10.359
-10.2252
-6.4832
18.5422
2.39511
3.93952
3.93464
6.74407
7.73947
109.694
35.0563
1.90334
32.2902
15.4859
24.6929
296.592
188.867
36.8868
168.484
108.625
77.5736
436.567
449.651
412.814
393.329
408.589
384.568
-32.6161
-33.0047
-33.2006
-32.7682
-31.3079
-30.3776
-32.7895
-33.2264
-33.1927
-32.9956
-32.1647
-31.4595
-32.5133
-32.8051
-33.0252
-33.0369
-33.2285
-32.7178
-33.9098
-33.8239
-34.0364
-34.5097
-35.1276
-34.8701
-35.3763
-35.6293
-36.0632
-36.2872
-36.9186
-36.4492
-36.3035
-39.1754
-37.8553
-36.4467
-36.8828
-34.9177
-33.026
-38.6619
-35.0887
-32.3132
-33.1996
-29.678
-27.9674
-31.3521
-28.2613
-28.5964
-28.771
-23.5636
-19.3835
-20.4564
-21.8721
-17.1332
-13.0331
-10.9991
-9.10864
-16.5033
-26.9427
-26.5908
-10.7871
-0.831572
75.1257
10.7939
-87.6851
21.5064
36.9955
16.4732
278.901
228.404
182.985
202.499
247.977
219.54
-47.3469
-47.5844
-47.6241
-47.5815
-47.3976
-47.4723
-51.9413
-51.643
-51.8363
-51.8869
-52.0789
-51.9329
-68.5348
-68.1048
-67.72
-68.2692
-69.0469
-68.5979
-46.7818
-47.1136
-47.1934
-46.9453
-46.6863
-46.7102
-54.3796
-54.5599
-54.7216
-54.5598
-54.4665
-54.5391
-68.5496
-68.3966
-68.393
-68.49
-68.7799
-68.8294
-45.2992
-45.2735
-45.2788
-45.2608
-45.2661
-45.2605
-54.2947
-54.2765
-54.282
-54.2918
-54.3101
-54.3144
-68.2317
-68.2159
-68.2142
-68.2387
-68.2726
-68.2696
-45.3289
-45.3315
-45.3378
-45.3079
-45.3092
-45.2835
-55.0943
-55.0952
-55.1068
-55.1073
-55.1142
-55.1112
-68.5793
-68.5746
-68.5803
-68.5934
-68.6177
-68.6228
-45.1965
-45.1863
-45.186
-45.1908
-45.1861
-45.1668
-55.5162
-55.5091
-55.5049
-55.509
-55.5038
-55.4968
-68.781
-68.7901
-68.7898
-68.7967
-68.8027
-68.8037
-45.7658
-45.7819
-45.7647
-45.7639
-45.7425
-45.7698
-56.3783
-56.3572
-56.34
-56.3451
-56.3518
-56.3446
-68.985
-69.0135
-69.0141
-69.037
-69.0559
-69.0716
-45.9297
-45.7849
-45.8538
-45.8953
-45.7671
-45.7507
-57.1318
-56.8623
-56.9519
-57.0219
-56.9908
-56.8922
-69.3357
-69.4572
-69.4403
-69.4548
-69.4668
-69.4799
-51.6848
-51.0836
-51.5882
-51.2652
-51.0665
-50.5373
-60.8777
-59.4974
-59.4356
-59.5411
-59.3737
-58.6545
-67.1072
-67.9829
-67.6423
-67.9049
-68.2231
-68.5434
-49.8423
-48.4565
-50.0003
-50.3682
-49.7734
-47.7398
-39.3343
-41.1384
-41.2891
-41.3369
-42.3812
-42.7668
-69.1011
-70.9432
-71.0019
-71.0596
-71.4407
-71.7398
-14.2177
-17.3995
-19.506
-24.1885
-26.5798
-22.15
-36.9978
-36.6518
-36.7584
-38.2249
-38.6509
-37.695
-68.3626
-68.4759
-68.2389
-69.2286
-68.8577
-68.5105
16.6324
-3.60894
-3.20173
-3.32874
-5.49765
-9.80492
-76.689
-71.2779
-67.6483
-66.0059
-67.544
-67.8511
-97.0185
-90.9904
-87.6071
-85.9971
-86.0873
-87.8404
269.52
522.03
409.016
368.187
433.489
428.992
-115.911
-131.787
-125.073
-114.926
-114.649
-113.234
-104.27
-114.234
-112.395
-108.66
-109.138
-114.079
289.509
267.477
247.857
240.352
221.969
249.67
-2.78133
-24.0823
-33.9668
-36.1583
-35.8736
-24.3854
-120.104
-126.798
-131.278
-132.25
-132.903
-132.413
366.755
347.458
327.552
317.914
305.437
319.987
-5.90018
-30.2471
-46.0827
-52.7505
-51.6813
-24.6202
-152.255
-162.306
-164.29
-161.596
-157.674
-152.413
474.061
489.679
453.824
423.683
426.648
435.2
-83.3874
-87.8953
-99.5942
-106.182
-87.2264
-122.658
-162.209
-160.984
-165.117
-163.635
-156.523
-156.512
843.545
925.765
937.748
855.243
996.264
1044.13
-10.1595
-7.65324
-28.4901
-49.9264
-63.9613
-64.895
-118.052
-115.047
-116.51
-116.691
-111.681
-110.757
840.946
804.202
875.076
964.276
965.166
956.978
-34.225
-24.5631
-64.9116
-74.8586
-72.4698
-77.0723
-97.072
-89.4548
-90.0369
-90.3244
-87.1838
-87.2867
458.522
562.419
839.703
895.009
950.405
899.395
-64.4197
-65.9208
-81.8267
-73.1546
-79.1552
-77.3805
-82.365
-75.4572
-83.8162
-87.4386
-89.4901
-87.5909
-43.3449
-43.4896
-43.4496
-43.4959
-43.498
-43.0478
-53.4831
-53.4223
-53.3031
-53.4021
-53.3475
-53.2377
-63.9805
-63.9793
-63.8723
-63.9477
-63.9824
-63.958
-43.5451
-43.6572
-43.844
-43.7262
-43.4094
-42.9557
-53.8645
-53.9062
-53.97
-53.8331
-53.7225
-53.5654
-64.3827
-64.4254
-64.3539
-64.372
-64.3863
-64.3104
-44.0224
-43.7518
-43.7093
-43.6717
-43.6068
-43.3349
-54.0273
-54.0293
-54.0211
-54.0021
-53.9502
-53.8662
-64.5624
-64.5958
-64.5282
-64.5415
-64.5294
-64.469
-45.7402
-44.7987
-44.5477
-44.5403
-44.7067
-44.8731
-54.6557
-54.489
-54.4431
-54.4563
-54.5119
-54.6008
-64.7617
-64.8328
-64.7705
-64.767
-64.7557
-64.6589
-47.1859
-46.0526
-45.1672
-45.0273
-45.5409
-45.5887
-54.9427
-54.6465
-54.3382
-54.3187
-54.4489
-54.5534
-64.4856
-64.6649
-64.6436
-64.601
-64.4804
-64.2342
-47.3829
-47.8479
-45.1683
-44.1861
-44.9919
-43.8376
-54.1762
-53.7957
-53.3096
-53.0556
-53.191
-52.9839
-63.3768
-63.612
-63.9095
-63.8076
-63.5404
-63.1436
-42.9094
-44.2482
-42.3943
-40.6852
-42.2685
-39.6528
-50.7443
-50.2716
-50.5494
-50.5891
-50.9919
-50.3328
-62.8052
-62.7201
-63.2934
-63.2632
-63.0129
-62.6037
-39.7674
-40.9019
-38.5022
-37.1482
-36.9554
-35.1648
-50.3242
-49.0695
-48.004
-46.9499
-46.2096
-46.0528
-62.4386
-61.8004
-62.5088
-62.6119
-62.3595
-62.3781
-36.3889
-36.399
-37.6117
-38.895
-35.1677
-32.9908
-55.4618
-52.7908
-49.5936
-48.0128
-49.2491
-48.4639
-67.4153
-66.8182
-65.9186
-62.6659
-65.1654
-64.7904
-22.3058
-25.9656
-32.2143
-40.4081
-37.0039
-29.0733
-44.4849
-44.4649
-48.5928
-52.9678
-43.0091
-43.5041
-74.6282
-71.8972
-80.333
-82.4187
-68.752
-73.4758
-6.6352
-12.0607
-50.4739
-18.2821
-17.5929
2.27429
-52.6123
-58.1527
-71.6734
-74.3503
-84.5955
-28.8429
-89.7337
-86.9702
-101.766
-115.162
-104.428
-96.5376
172.619
101.71
76.7081
109.403
132.625
159.113
-54.5598
-75.1698
-65.7972
-42.1193
-41.8467
-16.0783
-139.923
-154.51
-152.605
-134.007
-134.646
-140.949
)
;

boundaryField
{
    seabed_topleft_surface
    {
        type            calculated;
        value           nonuniform List<scalar> 
72
(
11148.8
11155.8
11153.4
11124.6
11119.4
11136.3
11688.3
11704.1
11721.7
11704.7
11725.5
11724.6
12160.4
12159.9
12161.3
12162.9
12168.9
12164.2
12281.5
12283.6
12283.8
12280.8
12281.9
12281.5
12476.4
12477.4
12475.9
12472.2
12471.1
12469.2
12819.8
12820.3
12818.3
12814.9
12812.2
12810.8
13519.5
13520.4
13519
13515.9
13512.5
13512.3
14601
14604.2
14603.5
14604.5
14605.6
14598.3
16037.4
16014.2
16026.3
16024.4
16027.3
16024.6
17043.3
17048.9
17047.2
17035.2
17027.7
17052
18416.3
18415.1
18410.5
18413.2
18413.6
18408.3
17566
17461.4
17491.1
17548.1
17494.4
17480.9
)
;
    }
    seabed_topright_surface
    {
        type            calculated;
        value           nonuniform List<scalar> 
72
(
1112.29
1117.23
1116.51
1073.45
1010.9
955.998
1134.87
1132.2
1117.57
1109.44
1071.96
1030.48
1176.69
1173.77
1163.35
1170.91
1172.33
1142.88
1244.39
1229.03
1227.56
1243.24
1230.74
1245.83
1297.77
1273.71
1312.92
1307.1
1257.74
1278.81
1329.73
1327.16
1388.94
1358.14
1272.41
1271.7
1355.27
1328.39
1375.58
1361.15
1299.28
1263.92
1468.11
1357.13
1384
1367.15
1276.57
1262.97
1550.3
1456.94
1380.53
1343.29
1384.47
1402.39
1580.22
1656.34
1316.4
1209.19
1585.66
1682.86
1137.15
1345.64
1281.39
1201.47
1336.65
1435.85
1060.27
1097.53
1143.5
1164.69
1181.47
1241.08
)
;
    }
    breakwater_top_surface
    {
        type            calculated;
        value           nonuniform List<scalar> 
36
(
376.11
348.116
331.77
325.948
292.939
326.363
438.435
420.319
401.372
391.734
375.038
385.369
622.218
1061.79
675.217
535.967
763.555
740.909
1679.98
1998.46
1874.51
1645.2
2008.34
2053.02
1884.69
1876.89
1946.5
2013.77
1994.02
1973.3
1019.21
1635.11
1858.13
1864.35
1963.22
1882.68
)
;
    }
    breakwater_left_surface
    {
        type            calculated;
        value           nonuniform List<scalar> 
24
(
14373.1
14353.5
14353.2
14360.8
14340.1
14347.1
8174.65
8179.39
8175.25
8171.92
8167.83
8182.18
4206.43
4233.89
4227.37
4212.01
4220.39
4202.37
1247.93
1018.91
992.444
1000.77
964.581
900.34
)
;
    }
    breakwater_right_surface
    {
        type            calculated;
        value           nonuniform List<scalar> 
24
(
1024.85
1061.32
1056.88
1060.29
1089.97
1145.34
708.687
771.078
720.941
671.034
668.718
721.986
436.663
449.978
413.022
393.399
408.66
384.756
278.996
228.667
183.108
202.567
248.091
219.672
)
;
    }
    water_front_surface
    {
        type            calculated;
        value           nonuniform List<scalar> 
186
(
7284.86
7411.41
7546.41
7674.54
7871.5
8213.91
8912.45
9993.96
11642.1
13144.1
14537
14362.2
1585.2
1568.36
1431.91
1458.6
1534.43
1687.49
1950.35
2519.49
4015.04
5685.31
7068.54
8165.84
-27.7344
-29.3528
-29.9631
-28.4235
-25.9248
-23.5093
-15.9391
78.0237
316.226
704.38
2782.57
4197.73
-27.23
-27.0839
-26.7512
-28.0083
-28.7095
-31.8761
-42.538
-38.4438
-35.1766
15.5609
306.969
1240.4
637.235
661.21
693.939
749.355
800.723
832.071
857.829
971.227
1054.8
1127.58
1054.23
1024.73
54.0807
64.9072
87.1065
118.878
145.785
150.049
169.818
342.532
327.937
441.497
578.601
708.568
-23.3962
-23.7513
-21.6047
-22.8731
-23.8729
-20.2062
-15.8396
-2.57112
18.5422
109.694
296.592
436.567
-32.6161
-32.7895
-32.5133
-33.9098
-35.3763
-36.3035
-33.026
-27.9674
-19.3835
-9.10864
75.1257
278.901
-47.3469
-51.9413
-68.5348
-46.7818
-54.3796
-68.5496
-45.2992
-54.2947
-68.2317
-45.3289
-55.0943
-68.5793
-45.1965
-55.5162
-68.781
-45.7658
-56.3783
-68.985
-45.9297
-57.1318
-69.3357
-51.6848
-60.8777
-67.1072
-49.8423
-39.3343
-69.1011
-14.2177
-36.9978
-68.3626
16.6324
-76.689
-97.0185
269.52
-115.911
-104.27
289.509
-2.78133
-120.104
366.755
-5.90018
-152.255
474.061
-83.3874
-162.209
843.545
-10.1595
-118.052
840.946
-34.225
-97.072
458.522
-64.4197
-82.365
-43.3449
-53.4831
-63.9805
-43.5451
-53.8645
-64.3827
-44.0224
-54.0273
-64.5624
-45.7402
-54.6557
-64.7617
-47.1859
-54.9427
-64.4856
-47.3829
-54.1762
-63.3768
-42.9094
-50.7443
-62.8052
-39.7674
-50.3242
-62.4386
-36.3889
-55.4618
-67.4153
-22.3058
-44.4849
-74.6282
-6.6352
-52.6123
-89.7337
172.619
-54.5598
-139.923
)
;
    }
    water_back_surface
    {
        type            calculated;
        value           nonuniform List<scalar> 
186
(
7275.14
7416.36
7550.09
7672.37
7862.85
8205.2
8905.39
9991.47
11639.5
13146.5
14534.5
14336.3
1568.93
1560.14
1428.24
1443.24
1516.62
1674.6
1946.4
2530.54
4021.38
5703.79
7090.69
8173.42
-27.6961
-29.3183
-29.8214
-28.3846
-25.9361
-23.6688
-13.001
78.5868
306.353
710.893
2701.49
4193.71
-27.2031
-26.9995
-26.7135
-27.8917
-28.5603
-31.7072
-41.4961
-38.6028
-37.5062
-5.88598
165.709
892.859
514.093
589.527
679.093
757.452
790.331
782.208
772.961
769.508
908.663
1193.41
1213.89
1145.01
24.3592
41.7383
77.6186
124.34
140.634
124.036
106.2
97.8564
141.358
277.6
551.83
721.811
-21.9856
-23.7074
-24.3815
-25.5571
-24.6356
-20.0647
-13.3802
-6.4832
7.73947
24.6929
77.5736
384.568
-30.3776
-31.4595
-32.7178
-34.8701
-36.4492
-34.9177
-29.678
-23.5636
-10.9991
-0.831572
16.4732
219.54
-47.4723
-51.9329
-68.5979
-46.7102
-54.5391
-68.8294
-45.2605
-54.3144
-68.2696
-45.2835
-55.1112
-68.6228
-45.1668
-55.4968
-68.8037
-45.7698
-56.3446
-69.0716
-45.7507
-56.8922
-69.4799
-50.5373
-58.6545
-68.5434
-47.7398
-42.7668
-71.7398
-22.15
-37.695
-68.5105
-9.80492
-67.8511
-87.8404
428.992
-113.234
-114.079
249.67
-24.3854
-132.413
319.987
-24.6202
-152.413
435.2
-122.658
-156.512
1044.13
-64.895
-110.757
956.978
-77.0723
-87.2867
899.395
-77.3805
-87.5909
-43.0478
-53.2377
-63.958
-42.9557
-53.5654
-64.3104
-43.3349
-53.8662
-64.469
-44.8731
-54.6008
-64.6589
-45.5887
-54.5534
-64.2342
-43.8376
-52.9839
-63.1436
-39.6528
-50.3328
-62.6037
-35.1648
-46.0528
-62.3781
-32.9908
-48.4639
-64.7904
-29.0733
-43.5041
-73.4758
2.27429
-28.8429
-96.5376
159.113
-16.0783
-140.949
)
;
    }
    water_left_surface
    {
        type            calculated;
        value           nonuniform List<scalar> 
42
(
7298.09
7297.67
7294.63
7289.47
7285.23
7288.36
1590.57
1582.34
1577.79
1588.15
1590.46
1574.24
-27.7182
-27.5297
-27.6258
-27.9821
-28.0794
-27.6799
-27.2141
-27.2469
-27.2742
-27.2481
-27.1284
-27.1873
-47.3469
-47.5844
-47.6241
-47.5815
-47.3976
-47.4723
-51.9413
-51.643
-51.8363
-51.8869
-52.0789
-51.9329
-68.5348
-68.1048
-67.72
-68.2692
-69.0469
-68.5979
)
;
    }
    water_right_surface
    {
        type            calculated;
        value           nonuniform List<scalar> 
42
(
638.862
637.148
634.096
598.793
557.934
515.607
54.3317
50.5153
51.8356
30.9414
22.4602
24.4174
-23.38
-23.3399
-22.8245
-24.151
-23.8675
-21.9694
-32.6002
-32.9888
-33.1847
-32.7523
-31.292
-30.3618
-43.3449
-43.4896
-43.4496
-43.4959
-43.498
-43.0478
-53.4831
-53.4223
-53.3031
-53.4021
-53.3475
-53.2377
-63.9805
-63.9793
-63.8723
-63.9477
-63.9824
-63.958
)
;
    }
    water_top_surface
    {
        type            calculated;
        value           nonuniform List<scalar> 
180
(
-74.3057
-70.887
-70.5132
-70.7303
-74.2385
-75.2762
-73.2957
-73.0917
-73.1411
-73.1727
-73.4848
-73.59
-72.5969
-72.5893
-72.5972
-72.6042
-72.6337
-72.6454
-73.4838
-73.483
-73.4917
-73.4995
-73.5259
-73.5402
-73.9802
-73.9955
-73.9922
-73.9952
-74.0011
-74.0111
-74.6901
-74.7166
-74.7032
-74.7158
-74.7239
-74.7305
-75.0293
-75.216
-75.1368
-75.1967
-75.1782
-75.1818
-75.444
-75.9456
-75.5494
-75.4875
-75.5853
-75.7848
-72.4009
-77.8208
-73.4118
-72.4587
-74.2848
-75.7865
-68.67
-68.67
-68.6794
-68.6839
-68.67
-68.67
-140.933
-81.5698
-72.0189
-71.8768
-71.4989
-72.2721
-70.2205
-73.7585
-70.9054
-68.8347
-68.8563
-71.8746
-173.265
-169.303
-166.698
-164.093
-166.475
-168.857
-347.675
-279.436
-301.051
-389.762
-349.661
-249.831
-389.451
-188.298
-294.072
-370.437
-229.588
-240.066
-79.697
-102.183
-86.6613
-89.3906
-90.0836
-91.7001
-81.0316
-99.1785
-79.4226
-78.2168
-71.0214
-75.6643
-78.4188
-83.3904
-68.7355
-68.8104
-68.7641
-69.0428
-69.2403
-69.2218
-68.9573
-69.2237
-69.31
-69.258
-69.7929
-69.8423
-69.8862
-69.8855
-69.7995
-69.7056
-69.8343
-69.9099
-69.9943
-69.9892
-69.9105
-69.8405
-69.9036
-70.0314
-70.1472
-70.2131
-70.2098
-70.0484
-69.5518
-69.7888
-69.9507
-70.0906
-70.0844
-69.6507
-69.043
-69.4284
-69.6424
-69.8807
-69.8111
-69.1836
-68.9128
-68.9204
-69.2755
-69.4301
-69.3834
-68.8045
-68.6703
-68.9213
-69.2338
-69.4268
-69.1922
-68.701
-72.0172
-73.9843
-72.5671
-73.7591
-72.134
-69.0205
-73.0377
-70.4323
-126.809
-263.132
-68.6719
-69.1017
-101.455
-68.804
-127.389
-279.164
-339.539
-70.6463
-374.738
-453.725
-314.853
-164.093
-164.106
-305.243
)
;
    }
}


// ************************************************************************* //
