/*--------------------------------*- C++ -*----------------------------------*\
| =========                 |                                                 |
| \\      /  F ield         | OpenFOAM: The Open Source CFD Toolbox           |
|  \\    /   O peration     | Version:  v1612+                                |
|   \\  /    A nd           | Web:      www.OpenFOAM.com                      |
|    \\/     M anipulation  |                                                 |
\*---------------------------------------------------------------------------*/
FoamFile
{
    version     2.0;
    format      ascii;
    class       surfaceScalarField;
    location    "9.9";
    object      phi;
}
// * * * * * * * * * * * * * * * * * * * * * * * * * * * * * * * * * * * * * //

dimensions      [0 3 -1 0 0 0 0];

internalField   nonuniform List<scalar> 
2916
(
-0.00970759
-0.216816
0.226523
0.00549733
-0.239044
0.223839
0.0318446
-0.245869
0.219522
0.0131506
-0.205743
0.224437
-0.0313333
-0.186123
0.230607
-0.246056
0.214723
0.00178242
-0.361972
0.143373
-0.00275997
-0.374676
0.140175
-0.0103723
-0.376962
0.138705
-0.00544794
-0.359087
0.14842
-0.00161968
-0.347463
0.157512
-0.384351
0.136675
0.00249462
-0.354735
-0.00973135
-0.00282058
-0.361816
-0.00754478
-0.0113433
-0.361487
-0.00695239
-0.00581659
-0.355248
-0.00936647
0.00343333
-0.350146
-0.0065677
-0.372946
-0.00797141
0.00120091
-0.313426
-0.0425103
-0.000662318
-0.319216
-0.0407368
-0.00462197
-0.319116
-0.0384115
-0.00281662
-0.315475
-0.0415775
0.00144661
-0.312878
-0.0415309
-0.332416
-0.0390831
0.00108735
-0.27527
-0.0392432
0.000349508
-0.280665
-0.0378134
-0.00165574
-0.281122
-0.035989
-0.000692502
-0.276993
-0.0394453
0.000246916
-0.273971
-0.039846
-0.294009
-0.0381601
0.00107343
-0.241856
-0.0344868
0.000632416
-0.246659
-0.0335648
-3.2665e-05
-0.247635
-0.0328219
0.000361074
-0.242127
-0.0352601
-0.000885835
-0.23713
-0.0355948
-0.259028
-0.0358668
0.00176732
-0.239126
-0.0044978
0.000709525
-0.241293
-0.00430852
0.000849806
-0.243483
-0.00429192
0.000248669
-0.236244
-0.00528215
-0.00218964
-0.229027
-0.0056647
-0.253683
-0.00753477
0.00218454
-0.233372
-0.00793847
0.00046355
-0.231663
-0.00790901
-0.00141626
-0.233355
-0.00824781
-0.00092068
-0.229243
-0.00749635
0.00167717
-0.225622
-0.00600285
-0.239534
-0.0124727
-0.000534433
-0.135275
-0.0975629
0.000676221
-0.14001
-0.0928635
0.000995937
-0.139015
-0.0946601
-0.00222464
-0.133267
-0.0927556
-0.0031653
-0.133952
-0.090729
-0.143259
-0.0994401
-0.00688772
-0.176211
0.0478236
0.00238276
-0.198703
0.0494224
0.00766681
-0.194654
0.0503544
0.000715534
-0.172875
0.046559
-0.0100725
-0.167159
0.0439955
-0.202286
0.048955
-0.00280574
-0.192178
0.0187729
0.0055677
-0.21678
0.00970408
0.00716894
-0.210867
0.0146126
0.00301012
-0.188999
0.020283
0.00207663
-0.182387
0.0161605
-0.216533
0.0163239
0.0346709
-0.226849
0.00629976
-0.188409
0.000124302
-0.204692
0.0218897
-0.210764
0.0138852
-0.174382
-0.202648
-0.0065813
-0.140488
0.373593
-0.0264053
-0.102438
0.346101
-0.0517731
-0.105948
0.350837
-0.0271376
-0.174654
0.374456
0.0251308
-0.195231
0.37357
-0.112641
0.352495
0.00273466
-0.0716115
0.0717619
0.00311303
-0.0407699
0.0781282
0.00475801
-0.0449079
0.0760206
0.005252
-0.0758642
0.0491355
0.0143276
-0.0795154
0.0327204
-0.0445175
0.082879
0.0187315
0.0639911
-0.164065
0.00596066
0.0880165
-0.12356
0.000777287
0.0791523
-0.125829
0.0146251
0.0711571
-0.170236
0.037546
0.0786936
-0.187698
0.0927696
-0.107712
0.0168374
0.284539
-0.279896
0.0117929
0.297202
-0.244878
0.00759209
0.289591
-0.244649
0.0190743
0.296674
-0.278577
0.0331612
0.309293
-0.286217
0.312628
-0.22578
0.0103269
0.5408
-0.305831
0.00787679
0.547612
-0.285773
0.00199781
0.543304
-0.283823
0.013029
0.550706
-0.304509
0.0282762
0.558492
-0.304292
0.572074
-0.26933
0.00395446
0.749246
-0.246888
0.00199612
0.75402
-0.238015
-0.00397761
0.753346
-0.236891
0.00523242
0.754932
-0.248696
0.0187314
0.757291
-0.247894
0.783396
-0.228457
0.00111848
0.861281
-0.117651
-0.00167955
0.864718
-0.112208
-0.00886636
0.867093
-0.110852
-0.00256773
0.861695
-0.118343
0.0123311
0.8561
-0.119372
0.894251
-0.106059
0.00136036
0.844191
0.00779171
-0.00156202
0.845583
0.0141491
-0.0080842
0.849039
0.0163288
-0.00466083
0.839974
0.0108015
0.00876501
0.831336
0.00533519
0.868963
0.0215809
0.00390315
0.660395
0.0823302
0.002523
0.667354
0.0867464
0.00195728
0.666239
0.0887065
0.000176502
0.663046
0.0859537
-0.00262681
0.66329
0.0801209
0.670864
0.0960331
0.0032099
0.254879
0.45013
0.00272277
0.272291
0.444972
0.0121413
0.263237
0.443937
0.00164563
0.276764
0.443336
-0.0257251
0.289719
0.444937
0.252207
0.441886
-0.00257515
-0.0812456
0.357472
0.00756966
-0.090339
0.362189
0.0153342
-0.0944546
0.36454
-0.00362263
-0.0565812
0.372585
-0.0315072
-0.0462702
0.380034
-0.114929
0.351953
0.0182036
-0.326298
0.00392573
-0.264471
-0.00540213
-0.289819
0.0144626
-0.28721
0.0201885
-0.226378
-0.297389
-0.00166296
0.923001
-0.547745
-0.00342431
0.952632
-0.604775
-0.0345353
0.968033
-0.586089
-0.0340186
0.926369
-0.552433
0.0161531
0.939592
-0.616197
0.962177
-0.593531
0.00447144
2.31155
-1.32126
0.0164648
2.33949
-1.32072
-0.018045
2.35111
-1.27255
-0.0316635
2.34138
-1.35226
0.0167214
2.37283
-1.4489
2.3317
-1.26993
-0.0103482
3.7572
-1.59937
0.0118764
3.76982
-1.57612
0.0164967
3.78496
-1.56431
0.0025115
3.79894
-1.61381
0.0208385
3.8131
-1.6463
3.77989
-1.53506
-0.0128779
5.25252
-1.76234
-0.006599
5.2524
-1.73374
0.000436053
5.2616
-1.72833
0.000505961
5.27749
-1.7572
0.0287371
5.27926
-1.78061
5.2687
-1.68585
-0.0123477
6.85282
-1.89379
-0.0173776
6.84977
-1.87811
-0.0166965
6.85262
-1.87552
-0.00803489
6.85747
-1.89315
0.0138711
6.85542
-1.90236
6.8584
-1.84516
-0.00786766
8.59708
-1.98328
-0.016804
8.58273
-1.96204
-0.0225721
8.583
-1.9615
-0.00426943
8.57562
-1.98515
0.00326395
8.58427
-1.98427
8.57516
-1.94196
-0.0793731
10.0541
-1.49531
-0.0468003
9.90876
-1.4708
0.0212346
9.86525
-1.46113
-0.00410608
9.98132
-1.4987
-0.132183
10.0879
-1.49497
9.74943
-1.41251
-0.0467661
8.41371
1.69496
-0.00278449
8.32161
1.55732
0.0128337
8.26097
1.60499
-0.0302764
8.39251
1.64272
-0.0423307
8.52905
1.57628
8.1132
1.61548
0.0828943
3.43695
4.9762
0.0295992
3.52423
4.93742
-0.0135616
3.48524
4.90759
0.00568582
3.50831
4.9509
0.0698667
3.54889
4.9961
3.45523
4.82387
0.0408809
0.934834
2.91136
0.0157496
0.987592
3.00674
0.0262656
0.970882
2.94778
0.008384
0.964931
3.0046
-0.0386426
0.983727
3.05713
0.945472
2.913
0.0347192
0.166432
1.09116
0.0130913
0.0996264
1.27178
0.00485347
0.0996854
1.24397
-0.0160096
0.123589
1.23479
-0.0366028
0.127278
1.25708
0.0610897
1.19973
-0.0124116
-0.147455
-0.00428718
-0.172969
-0.0123679
-0.182053
-0.00429359
-0.171696
0.0454294
-0.148823
-0.19087
0.10883
-0.35362
-0.302959
0.0644196
-0.40909
-0.151278
-0.0853579
-0.39953
-0.0367856
-0.0471539
-0.379611
-0.21103
0.104257
-0.383821
-0.38379
-0.435134
-0.0541422
0.0486706
-0.280107
-1.44345
0.0151555
-0.276906
-1.4194
-0.00258958
-0.30004
-1.3543
-0.014123
-0.291632
-1.42871
-0.0287851
-0.300466
-1.5176
-0.332751
-1.4011
-0.0144243
-0.490672
-1.37438
0.0177534
-0.483816
-1.40139
0.0420474
-0.492449
-1.3962
0.0284565
-0.505726
-1.38613
-0.013818
-0.518872
-1.38562
-0.493403
-1.38823
-0.0151962
-0.696109
-1.54171
-0.000298225
-0.680208
-1.55225
0.0157786
-0.686598
-1.55026
-0.00282447
-0.703431
-1.54089
-0.0425212
-0.708622
-1.55117
-0.68815
-1.53362
-0.00277748
-0.838383
-1.74874
0.00161168
-0.806353
-1.75636
0.00343126
-0.810424
-1.75351
-0.00643547
-0.837305
-1.7494
-0.0298151
-0.832151
-1.75545
-0.819326
-1.7438
-0.00370176
-0.672393
-2.14557
0.00415586
-0.639974
-2.13627
0.00990332
-0.640716
-2.13696
-0.00178233
-0.669339
-2.14143
-0.0185813
-0.657874
-2.14175
-0.658676
-2.12119
-0.0663309
0.767119
-2.86849
0.0184796
0.661979
-2.85757
0.0492027
0.72682
-2.8594
0.00457329
0.750745
-2.87416
0.0438094
0.656154
-2.84825
0.780787
-2.80817
-0.122721
3.71711
-1.13231
0.0250845
3.52089
-1.44939
0.0304759
3.61795
-1.29153
-0.058684
3.68739
-1.20476
-0.0060953
3.57958
-1.39973
3.66769
-1.27751
0.0923112
3.84559
4.7554
0.0971998
4.07789
4.37553
0.0404276
4.09565
4.48667
0.0130016
4.15411
4.51159
-0.0440158
4.1673
4.4654
4.15489
4.29265
0.361404
1.60014
4.79542
0.16138
2.40459
4.88007
0.166767
2.32375
4.71429
0.0672405
2.51176
4.74648
-0.116679
2.55737
4.85098
2.38849
4.56272
0.488692
0.501834
1.70077
0.213671
0.752519
3.19887
0.162842
0.695119
2.92344
0.0245549
0.774495
3.11034
-0.119334
0.798679
3.15965
0.701801
2.76709
0.233748
0.12063
0.116564
0.696735
0.0322989
0.597331
0.0153214
0.619777
0.0145224
0.650655
0.525453
-0.0525362
0.169762
-0.117225
0.111359
0.201157
-0.365052
0.356446
0.211732
-0.456819
0.297543
0.21726
-0.158356
0.181039
0.115953
0.000550929
0.0578
0.123239
-0.0131862
0.352348
-0.1694
0.163635
0.37364
-0.349304
0.374273
0.340588
-0.339493
0.352851
0.268107
-0.0294257
0.213659
0.207742
0.0474021
0.176847
0.0946121
0.0607341
0.462367
-0.170753
0.10916
0.572238
-0.247024
0.268522
0.425106
-0.24388
0.401779
0.207931
-0.0730814
0.194017
0.332251
0.083253
0.2883
0.0825642
0.182055
0.479392
-0.19908
0.15847
0.787123
-0.1913
0.262088
0.434115
-0.112627
0.3167
0.203943
-0.050624
0.0589437
0.587723
0.00228438
0.390244
-0.0430004
0.260486
0.494383
-0.275477
0.3014
0.91153
-0.165321
0.362295
0.285971
0.0872492
0.129695
0.289821
0.146723
-0.0990082
0.83071
-0.0142846
0.471307
-0.180071
0.34392
0.577285
-0.426822
0.405324
0.978873
-0.128746
0.130769
0.139838
0.420687
-0.128503
0.316167
0.232926
-0.190239
0.942289
-0.0498425
0.542134
-0.261067
0.466352
0.775962
-0.66503
0.596047
1.00642
-0.15724
0.437059
0.159824
0.139002
0.0363179
0.623525
0.0933821
-0.160351
1.14626
-0.00730441
0.656518
-0.274735
0.59617
1.16257
-0.982778
0.649947
1.16425
-0.211608
0.42449
0.429943
-0.0446628
-0.112298
1.25607
-0.0957561
-0.259535
1.42371
-0.130211
0.78939
-0.392407
0.349634
1.51894
-0.706007
0.52827
1.50588
-0.520268
0.0815813
0.941476
-0.0648445
-0.779401
1.69055
0.426505
-0.514154
1.83679
-0.678328
1.04879
-0.773552
-0.375464
1.78579
0.108618
0.262503
1.85806
-0.990149
-0.247899
1.19122
0.260654
-1.73128
1.33618
1.83775
-0.987708
1.76113
-0.667913
1.13245
-1.07137
-1.45255
1.49552
1.74282
-0.863124
1.88221
-0.613578
-0.487826
0.87085
-0.0549255
-1.4695
0.559011
1.75883
-0.898954
1.02028
0.17031
0.903597
-0.670099
-0.807188
2.30271
-0.220937
1.29597
-0.0869696
0.736885
-0.321768
0.79381
-0.408065
1.10657
0.495532
-0.43919
-0.0118584
0.333823
-0.0434018
0.0396988
-0.800539
0.654167
0.0289197
-1.18331
1.20342
-0.0444151
-0.663194
0.822892
-0.112128
0.493207
-0.160402
1.10653
-0.680085
0.166216
0.33261
-0.287555
0.275765
-0.9779
0.290675
0.0895598
-0.978364
1.01941
0.0082459
-0.810816
1.11552
-0.000887838
-0.15995
-0.0162827
1.06601
-0.413992
0.340601
0.0688542
-0.296301
0.358104
-0.447055
-0.126874
0.0793871
-0.403134
0.507517
0.0713341
-0.770561
0.999691
0.179185
-0.588993
0.220555
0.845418
-0.416234
0.592003
-0.0342478
-0.445639
0.457307
-0.261099
-0.0795986
0.248672
-0.647952
0.556138
0.247742
-0.862769
1.04417
0.451173
-0.757733
0.539114
0.682608
-0.711873
0.848524
0.179875
-0.468576
0.677423
-0.628734
0.430057
0.490089
-1.0528
1.03737
0.556968
-0.769817
1.03278
0.756504
-0.315027
0.796324
0.595502
-0.627601
1.10014
-0.0508383
-0.03571
0.839136
-0.88235
0.563877
0.59137
-0.280182
1.06271
0.795589
-0.504529
0.917938
0.969746
-0.118311
0.922909
0.530286
-0.261429
1.28681
-0.590274
0.186768
0.92563
-0.691932
0.40084
0.771101
-0.254801
1.02246
1.11534
-0.847997
0.921082
1.16021
-0.0963833
1.05621
0.513047
-0.0106328
1.46726
-1.15259
-0.0441587
1.18679
-0.439244
0.120246
1.16186
-0.599831
1.1893
1.72487
-1.77434
1.00743
1.41727
-0.205411
1.2386
0.432631
-0.319714
1.22638
-0.145414
-0.382901
1.84075
-1.11104
0.154974
1.77487
-1.21573
0.622284
2.04175
-0.35768
0.550693
1.9728
-1.16226
1.5687
-0.552956
0.188562
1.122
0.0244346
0.0680441
2.26126
-1.29014
0.150991
1.8084
0.144173
-0.00176592
1.30226
2.73
-0.0582612
1.92807
-0.566691
1.76185
-1.32278
0.224921
0.927478
1.71242
0.771551
1.95082
-0.849768
0.803103
1.36085
0.361081
-0.402972
0.194638
4.07253
-0.58173
1.0147
1.26244
1.5088
-0.99878
-0.155694
3.38588
1.78238
1.3087
1.93621
1.9439
-0.14731
3.07197
-1.18187
3.15584
0.822461
0.32106
-0.0121559
0.0249191
0.245995
0.147025
-0.872499
-0.521744
0.0279165
-0.443485
-1.0818
-0.0202678
-0.0828747
-0.772662
0.0617248
0.122349
0.0443114
0.28956
0.0155862
0.281187
0.023682
-0.104915
0.619872
-1.33025
-0.464471
0.559905
-1.1508
-0.6693
0.489503
-1.11576
-0.383561
0.467662
-0.851626
0.337191
0.38957
0.180256
0.83802
-0.668235
0.0833243
1.27923
-1.00948
-0.0921366
1.12156
-0.789332
-0.172387
1.0677
-1.26851
0.0255808
1.04217
-1.36147
0.944571
0.263618
0.156538
1.38811
-0.740872
0.219542
1.67817
-0.723041
0.215947
1.52326
-1.04605
0.216887
1.56225
-1.35825
0.288458
1.58685
-1.37399
1.4524
0.463237
-0.305532
1.80632
0.06719
-0.21564
1.88158
-0.922043
0.263876
1.6107
-1.61976
0.493696
1.85625
-1.29364
0.571019
1.96908
-0.774577
1.69005
0.928867
-1.09231
2.41002
0.437771
-0.906225
1.98651
-1.17336
0.234978
1.45279
-1.26347
0.768751
1.86111
-1.04317
0.813838
2.08539
-0.279715
1.79099
1.24319
-1.3771
2.719
0.47784
-1.31666
2.24376
-1.00962
-0.0899358
1.24044
-1.26916
0.797235
1.46299
-1.33705
1.00589
1.99884
-0.21849
1.97263
1.33729
-0.184176
0.992925
0.757664
-0.524661
2.35433
-0.209326
0.00674589
1.56167
-1.45247
0.491069
1.46353
-2.2592
0.658784
1.78075
-0.155038
1.7548
1.30925
-0.0918907
0.0910323
0.848371
0.174847
1.97258
-0.99603
0.141553
2.50188
-2.12265
0.419652
1.83388
-1.00613
0.132194
2.08138
-1.17543
1.20732
0.126719
-0.0542315
0.570753
-0.401054
-0.512344
1.82627
-0.685712
-0.43141
1.84889
0.716227
0.264888
0.605722
3.26186
0.395168
0.837822
0.546586
0.803273
-0.52357
1.20496
0.328506
0.749709
0.717107
1.77126
-0.306911
-0.0331292
1.12052
1.83969
-0.204813
-1.08242
5.93236
0.350086
-0.710281
2.25564
0.851434
-0.696855
0.39243
3.32196
2.15392
1.31847
2.37402
2.84432
-0.355336
4.71891
-0.498747
2.58897
1.17515
0.434577
0.0641241
-0.473781
0.149459
0.0872828
-0.674663
-0.552779
-0.15178
0.410533
-0.81881
-0.0367055
0.219862
-0.438621
0.227481
-0.485321
0.159131
-0.308192
0.505197
0.300488
-0.717879
0.259062
0.114304
-1.11113
-0.301385
0.185392
-0.927522
-0.800628
0.279633
-0.932853
-0.773591
0.353818
-1.005
0.285057
-0.509947
-0.105157
0.704495
-0.967085
-0.14398
0.311112
-1.16747
-0.0955184
0.337715
-0.990118
-0.275362
0.261625
-1.07066
-0.568179
0.438159
-1.15299
0.710834
-0.730339
-0.425
1.29635
-0.907724
-0.297698
0.682042
-1.22128
-0.0798301
0.321555
-1.24776
-0.11593
0.237972
-1.2985
-0.369378
0.641146
-1.32353
1.269
-0.464308
-0.312695
1.80003
-0.123796
-0.41069
1.05455
-1.19656
-0.342831
0.209052
-1.57512
-0.183874
0.252982
-1.46761
-0.14799
0.894241
-1.06356
1.44663
0.603243
-0.235317
1.69358
0.77953
-0.939425
1.47071
-0.885408
-0.625417
0.366857
-1.73529
-0.225099
0.339217
-1.52972
-0.00573151
1.13696
-0.741801
1.34407
1.34001
0.198894
0.496792
1.47574
-0.811173
1.4189
0.0522579
-0.692623
0.409524
-1.43038
-0.275255
0.18159
-1.59679
0.0603115
1.19688
-0.613977
1.19448
1.54719
0.407164
-1.07122
1.91852
0.257403
0.470995
0.888338
-0.388
0.76986
-1.1674
-1.11005
0.519017
-1.87458
-0.796023
0.875653
-0.147837
0.456794
1.25091
0.202081
-0.781708
0.356777
0.140572
0.593063
-1.05659
-0.642855
1.35521
-1.92458
-0.366523
0.937096
-1.70054
0.14746
0.526764
-1.34052
0.192468
0.538503
-0.595527
-0.0319665
-0.55527
-1.60776
1.3545
-0.434913
-1.50355
0.72228
1.24495
-0.311266
-0.972204
3.97888
0.671096
-1.37206
1.46305
0.321811
0.0181825
0.687923
-0.0616661
0.0914854
-0.479135
1.30586
0.908784
-1.88707
0.304351
3.66555
-1.03535
-2.17076
6.27919
0.398086
-2.09826
1.54841
0.178794
-0.155751
1.58658
1.67371
2.41189
1.79902
1.96526
3.5953
-0.0130785
4.52649
-0.23836
0.715992
1.11558
0.0548374
-0.253227
-0.104572
0.0793265
-0.056199
-0.119572
0.0256426
0.154194
-0.137298
0.110993
-0.178919
-0.117463
0.179336
-0.312201
-0.139934
0.325995
-0.200802
-0.53601
0.169968
0.112814
-0.100799
-0.753722
0.262311
0.403623
-0.621269
0.27104
0.741191
-0.731288
0.2148
0.355282
-0.00618734
0.0798957
0.635632
0.0456452
-0.483796
-0.0813407
-0.096011
0.0266761
0.304115
0.0450085
0.685945
0.0147105
0.332759
-0.114772
-0.105658
0.0496594
-1.76012
0.162445
0.0344118
-1.70868
0.184949
0.0257644
-1.66574
0.182788
0.029486
-1.71965
0.169758
0.00879498
-1.78439
0.147548
-1.75227
0.159159
-0.0641738
-1.64468
0.0615444
0.0038397
-1.60488
0.0904946
0.119628
-1.60238
0.0918948
0.15586
-1.61767
0.0765817
0.0784269
-1.66782
0.0407552
-1.67571
0.0475131
-0.0513464
-0.0154635
-0.00869996
0.00107414
0.0582563
0.00589419
0.0992885
-0.00713405
0.0423207
-0.0325329
-0.0280096
0.00227417
-1.50765
0.293435
0.0023682
-1.51844
0.301905
0.0107843
-1.52087
0.299039
0.0143255
-1.51432
0.294397
-0.00164757
-1.50717
0.285072
-1.51651
0.285791
-0.00389671
-1.49876
0.0565527
0.00447864
-1.49935
0.0630228
0.0147064
-1.5008
0.0615977
0.0200375
-1.49989
0.056818
0.0108039
-1.50031
0.0431216
-1.50285
0.0446536
-0.00389074
0.0207325
0.000609458
0.0267886
0.00984806
0.0268669
0.0119935
0.0233392
0.00233942
0.015049
0.0118858
0.00259032
-1.69014
0.439273
0.00422216
-1.69159
0.439607
0.00751138
-1.69339
0.438877
0.0105835
-1.69056
0.440992
-0.00259424
-1.69326
0.440344
-1.68738
0.436954
0.000136067
-1.68859
0.0548633
0.00522989
-1.68861
0.0549467
0.0089096
-1.68949
0.0540161
0.0118855
-1.69045
0.0537212
0.00519014
-1.69488
0.0514338
-1.6919
0.0543623
-0.00133114
0.0232824
0.00183639
0.0246375
0.00614048
0.0241897
0.00777774
0.0237962
0.00235567
0.0227742
0.0219923
0.00368939
-1.80839
0.495233
0.0031076
-1.81424
0.498069
0.00715606
-1.81218
0.493494
0.00577009
-1.81055
0.503524
0.000656565
-1.81117
0.501182
-1.80884
0.502651
0.00260803
-1.7715
0.0153625
0.000809498
-1.77555
0.0180577
0.00162242
-1.77374
0.0147649
0.00219392
-1.77474
0.0173472
0.00231307
-1.77587
0.0160154
-1.77467
0.0225066
0.00184223
0.0222393
0.00088654
0.0249173
0.00191329
0.0237899
0.00154994
0.0243158
-0.000256984
0.0246212
0.0246255
-0.000597164
-2.01442
0.364685
-0.000134375
-2.015
0.376337
0.0052285
-2.01593
0.367108
0.00396833
-2.01272
0.376074
0.00192769
-2.01405
0.37552
-2.00878
0.392169
-0.00149172
-1.92042
-0.0771458
-0.000659134
-1.92057
-0.0772038
0.00630075
-1.91912
-0.0890096
0.00899738
-1.92091
-0.0771544
0.00261334
-1.92128
-0.0703678
-1.91843
-0.065232
0.00551647
-0.0212207
0.0023512
-0.00572716
0.00477447
-0.0129393
0.00582733
-0.0107858
0.00414081
-0.0067772
-0.000355291
0.0201665
-2.12889
-0.395074
0.0140324
-2.15827
-0.316827
0.0177517
-2.15104
-0.344968
0.0236488
-2.15121
-0.352772
0.0449416
-2.14073
-0.353285
-2.11309
-0.257964
-0.00667644
-1.88943
-0.309933
0.000214704
-1.91538
-0.326981
0.0270815
-1.90712
-0.359793
0.0235839
-1.91419
-0.310669
0.0127411
-1.90614
-0.294121
-1.90294
-0.262645
0.0237473
-0.00073558
0.000964359
0.0641409
-0.00373422
0.0352502
0.00129643
0.0292229
0.002442
0.0426284
0.0566847
-0.214755
-2.39138
1.07875
-0.00116339
-2.83925
0.859436
0.00931222
-2.5968
0.949821
-0.112095
-2.47379
1.03766
-0.206785
-2.65414
0.995818
-2.67235
0.930084
-0.139088
-1.97453
-0.587693
-0.0164862
-2.21051
-1.07832
0.0492804
-2.0321
-0.990258
0.0147568
-1.96305
-0.786885
-0.0498282
-2.0266
-0.857069
-2.09489
-0.889927
0.153848
-0.161398
0.00621969
0.0489479
0.0189279
-0.0194473
0.105532
-0.0374056
0.110393
0.0108019
0.103883
-0.286396
2.75732
3.36323
0.121478
1.24648
3.58062
0.0600972
1.84561
3.65226
-0.250076
1.98058
3.87886
-0.401707
1.64479
3.96806
1.21812
3.60291
0.22962
0.161133
1.77887
0.248046
-1.34526
1.49498
0.0691805
-0.557644
1.59186
-0.0609327
-0.363532
1.68734
-0.107958
-0.798035
1.63279
-1.22276
1.44299
0.171511
1.36556
-0.150735
1.38145
-0.135316
1.13707
0.0094208
1.01258
0.061676
1.03311
1.03697
0.363777
6.33376
1.46111
0.351509
5.91007
2.56288
0.499059
5.77042
2.44858
0.0376012
5.57234
3.51446
-0.500552
5.57648
3.78071
5.14706
2.51802
0.291757
5.79915
2.02173
0.300843
4.47687
2.9191
0.452903
4.35159
2.85863
-0.0271329
4.09304
3.64668
-0.485634
3.78316
3.88462
3.19929
2.90512
0.4995
2.32363
0.336599
3.53692
0.316385
3.15064
-0.0514999
3.35458
-0.280554
3.41653
2.97804
0.93212
3.24285
-1.0131
0.677842
6.3263
-0.310265
0.456862
6.02953
-0.436522
0.162831
6.42544
0.493392
0.0088564
6.40578
0.688549
5.70239
-0.408425
0.675967
4.75275
-0.164139
0.724039
7.52651
1.67081
0.55079
7.25812
1.80329
0.27316
7.2151
3.13466
-0.0613491
7.0726
3.55231
6.64011
1.90606
0.231702
0.485799
0.364085
3.5225
0.403692
3.55885
0.178079
4.18462
-0.0479526
4.43905
3.68571
0.0545675
-1.42408
0.477041
0.275632
-1.31754
1.48295
0.20249
-0.943039
1.17699
0.0375895
0.248558
1.02951
-0.0513805
0.193384
1.23479
-1.10028
1.16593
0.330271
-2.12949
0.211003
-1.21314
0.496709
1.39998
-1.42764
0.705305
0.369443
-0.0702668
2.1962
-0.170357
-0.167254
2.24191
1.60078
0.691291
-0.0527701
-0.334605
-0.226767
-0.674438
1.02805
-0.835778
1.57261
0.143543
2.34891
0.529746
3.20501
2.12266
0.237524
0.549783
-1.30922
0.52191
0.384484
0.760673
-1.32757
0.419934
0.300837
0.724485
-1.34818
0.707345
0.108947
0.671862
-1.48359
1.00361
-0.250336
0.914088
-1.72397
1.16916
0.647544
-1.4133
0.515418
0.600425
1.2983
-1.26023
-0.0887153
0.736718
1.60398
-1.57976
0.600166
0.439732
1.55219
-1.56219
1.03147
-0.0508996
1.66797
-1.63968
1.1342
-0.503465
1.84683
-1.77374
1.29357
1.51524
-1.35728
-0.0138859
0.620032
-0.55507
-0.590046
0.623483
-0.939285
0.518408
0.231104
-0.960824
1.00401
-0.161398
-0.940956
0.833669
-0.370133
-0.835085
0.597817
-0.316701
-0.433063
0.141476
0.891538
-2.34223
0.194135
0.731878
-2.1121
0.171245
0.84677
-2.17206
0.166169
0.856493
-2.33501
0.0133808
0.796433
-2.36761
0.905025
-2.30494
0.216397
1.65007
-2.23516
0.217837
1.35137
-2.20069
0.183501
1.44439
-2.12547
0.0728471
1.49128
-2.16382
-0.100534
1.36277
-2.1667
1.47419
-2.02698
0.188781
-1.87381
0.133787
-1.76695
0.0517388
-1.69293
-0.154202
-1.84476
-0.297422
-1.75704
-1.35036
-0.0400258
0.387649
-2.68985
0.0517019
0.0542462
-2.25808
0.100796
0.319326
-2.54048
0.0333079
0.428445
-2.69596
0.0253908
0.133619
-2.49331
0.255236
-2.53479
-0.0917695
0.792351
-2.54809
0.158176
0.266188
-2.66258
0.212474
0.599388
-2.45983
0.0475507
0.679947
-2.2504
0.0524951
0.436262
-2.47429
0.517681
-2.23693
-0.162844
-2.80659
0.0389873
-2.63657
0.0745805
-2.5967
-0.170909
-2.57722
-0.180179
-2.60699
-2.3484
-0.0261883
-0.537477
-2.12619
-0.1222
-0.27493
-1.88714
-0.0912853
-0.466428
-2.10497
-0.0370783
-0.615888
-2.13428
0.0271569
-0.63593
-1.92162
-0.486153
-2.02148
-0.398445
-1.05321
-1.63392
0.519066
-1.52411
-2.33091
0.51039
-1.26772
-1.64987
0.0251784
-1.60636
-0.774715
0.07586
-1.74001
-1.42088
-1.59263
-1.05459
-0.37655
-1.67694
-0.131851
-1.60323
-0.114555
-1.70163
-0.278733
-1.7159
-0.146839
-2.1765
-1.73191
0.071273
-1.0509
-1.14656
-0.285439
0.0842057
-1.61463
-0.181827
-0.548004
-1.66058
0.054156
-0.910417
-1.45985
0.0362686
-0.377776
-1.52596
-0.377402
-1.6078
-0.53151
-1.19912
-0.954191
0.881564
-1.43587
-2.22391
0.544825
-1.03539
-0.825744
-0.0443497
-1.51624
0.42028
0.362966
-0.853148
-1.35283
-1.16325
0.0942205
-0.551844
-0.532346
-0.101646
-0.923613
-0.0134319
-1.21327
-0.147467
-1.58525
0.00569302
-2.39091
-1.59446
0.0361878
-0.705706
-0.260589
0.165093
-0.10503
-0.639146
0.0513042
-0.586669
0.0110011
-0.250863
-0.430873
-0.250594
-1.19829
0.269585
-1.17902
-0.239545
-0.586315
-0.0719895
-0.5043
0.0491275
-0.124031
-0.340295
-0.447847
0.146232
0.0902481
0.160277
0.115782
-0.151904
-0.444535
0.122658
-0.406948
-0.555483
0.135864
-0.129766
0.0722785
0.061073
0.160772
-0.249453
0.178777
0.0732338
-0.614937
0.217154
-0.379861
0.144902
-0.042782
-0.537791
0.136039
-0.176252
-0.565523
0.14351
0.00610467
-0.225576
0.115498
0.0550677
-0.449973
0.151557
-0.0761393
-0.614363
0.130632
-0.570059
0.114058
-0.0234939
0.0643287
-0.0798272
0.0602269
0.030642
0.0757573
0.0897512
0.0611118
0.0356478
0.0527127
0.0534984
0.0802684
-0.820708
0.145218
-0.0516403
-0.949223
0.105863
-0.165837
-0.877072
0.124819
-0.18574
-0.896036
0.161862
-0.205457
-0.942621
0.17449
-0.701117
0.130614
0.0640765
-0.821902
0.0731568
0.0126435
-0.870699
0.116418
-0.0419195
-0.827945
0.120933
-0.0653725
-0.837519
0.116492
-0.12538
-0.857445
0.105463
-0.794208
0.0817676
-0.00118776
0.0547494
-0.0341049
0.0512319
0.00841118
0.04853
0.0327755
0.0427126
0.00210787
0.0398441
0.0410408
-0.146128
-0.829283
0.153544
-0.154828
-1.04383
-0.00908141
-0.0932535
-0.942004
0.0151289
-0.0736805
-0.959878
0.0315042
-0.105797
-1.00139
0.0550032
-0.832448
0.126925
0.11718
-0.832281
-0.0410268
0.030844
-0.868383
0.0273105
-0.027025
-0.842192
0.0789899
-0.0713916
-0.874294
0.0752747
-0.113987
-0.884351
0.031018
-0.83492
-0.0297473
-0.00638594
0.055613
-0.034593
0.0640899
0.00308433
0.0493123
0.0120497
0.0385554
-0.0151144
0.0355781
0.0195853
-0.30027
-0.852815
0.398903
-0.157127
-1.28501
-0.0884945
-0.0918288
-1.1599
-0.138037
-0.0516156
-1.15341
-0.153806
-0.091877
-1.24363
0.0153617
-0.883707
0.454447
0.189603
-0.872589
-0.210857
0.0637865
-0.950253
-0.181628
-0.0401017
-0.932612
-0.044409
-0.0856479
-0.976712
-0.0558739
-0.14617
-1.0201
-0.131984
-0.919105
-0.140518
0.0226328
0.0108606
-0.0195435
0.0498068
-0.00674429
0.0339815
-0.0123957
0.0177008
-0.0467613
-0.00120807
-0.0486946
-0.173507
-0.41468
0.863293
-0.111405
-1.34488
-0.00227068
-0.193212
-1.33589
-0.295463
-0.223785
-1.29191
-0.29893
-0.254103
-1.18859
0.170707
-0.0735228
0.87711
0.312939
-0.68093
-0.257547
0.11404
-0.947414
-0.380201
-0.127605
-0.942621
-0.196033
-0.320851
-0.970201
-0.184341
-0.454827
-0.992844
-0.193751
-0.644398
-0.0244693
0.102691
-0.054969
0.0105891
0.00412612
-0.0518222
0.0198333
-0.0942266
0.00107473
-0.145902
-0.0344222
-0.083462
0.449601
0.437393
0.755827
0.155329
-0.873442
0.280036
-0.173843
-1.46891
-0.232668
-0.390492
-1.3703
-0.241702
-0.401812
-0.999929
0.440157
0.708338
1.10698
0.533215
-0.180559
-0.17281
0.432393
-0.801041
-0.351778
-0.017889
-0.957645
-0.257016
-0.448041
-0.931556
-0.192932
-0.686908
-0.860322
-0.09449
-0.229667
0.226628
0.270971
-0.0445443
0.154398
-0.0182413
-0.0659577
0.0354168
-0.178743
0.0213154
-0.246302
-0.0148084
-0.0157632
0.992978
1.46888
-0.230289
0.87812
0.529199
-0.082046
0.349301
-1.05364
-0.0805856
-0.239349
-1.15574
-0.0941014
-0.443059
-0.735275
0.765165
1.04481
1.1663
0.747524
0.721817
-0.173273
1.01336
-0.159707
0.0712972
0.33012
-0.786496
0.159074
-0.369848
-0.708324
0.0596182
-0.806576
-0.58291
0.189872
0.111412
0.353443
0.357081
0.268396
0.313414
0.248468
-0.0203761
0.180346
-0.175919
0.136873
-0.250224
0.121325
0.125657
0.655133
1.91235
-0.879252
1.0091
0.964284
-0.511962
0.170685
-0.869091
0.459526
-1.08517
-1.26376
0.550941
-1.01041
-0.284979
0.827546
0.824437
0.582365
0.548959
1.06924
0.120879
1.0011
0.0375645
0.545873
0.200847
-0.740252
0.830485
-0.786789
-0.698517
0.482007
-0.839891
-0.32288
0.280872
0.296117
0.041869
0.389616
0.681701
0.509391
0.545742
0.0551047
0.471852
-0.206167
0.370866
-0.177784
0.329666
0.388144
0.261724
-0.488927
-0.295272
-0.203629
-1.34722
0.244031
-0.662733
-1.8537
0.847755
-0.268068
-1.91602
0.371759
0.0066962
-0.940722
0.15298
0.931579
0.195988
-0.10059
-0.979284
0.711826
-0.41256
-1.61344
1.12406
-0.764506
-1.39708
0.725811
-0.456185
-1.43573
-0.306611
-0.625043
-0.868838
0.377843
0.457933
-0.109528
0.208125
0.902214
-0.100507
1.0056
-0.625836
1.11941
-0.438569
0.45696
-0.653669
1.10615
0.664856
-0.62791
-0.437735
0.215102
-1.91037
0.0594224
1.03216
-1.79055
2.03403
-0.0611521
-0.242602
4.17978
-1.37709
0.828607
1.9104
-1.36558
0.476882
0.565896
-0.910634
-0.617248
1.80197
-1.50562
-0.0262411
1.80471
-1.3509
2.79235
-0.187224
-0.201016
4.54118
-1.81789
0.784633
1.52727
-0.22468
0.308443
0.843544
-0.187253
2.15479
-0.221058
2.10613
-0.776913
1.01999
-1.25425
-0.775272
-0.15384
1.21153
1.41801
0.113824
0.179355
0.0134087
-1.23705
2.42627
0.865554
-2.13563
5.00587
-0.502888
-0.810788
5.36462
-1.78737
0.345714
0.995326
-1.969
0.395323
0.360536
-0.879354
1.40611
1.45457
-0.965617
3.41021
0.907032
-0.835977
5.41808
-0.729082
-0.151668
4.7659
-1.90347
-0.164671
2.24092
-1.45727
0.0822215
0.991975
-1.3975
2.56809
-0.135515
1.95344
0.295283
-0.0732236
-0.392585
-1.39136
-1.12674
-0.26484
1.66783
1.39979
0.809242
1.98888
2.49542
1.29865
4.48999
0.584453
4.45693
-0.353334
0.853937
1.6382
0.432044
1.74306
1.06903
3.36563
1.04006
4.82135
0.915948
3.81177
-0.261984
1.86816
2.35431
-0.0331551
0.492986
0.0975408
0.0374146
-0.175458
)
;

boundaryField
{
    seabed_topleft_surface
    {
        type            calculated;
        value           uniform 0;
    }
    seabed_topright_surface
    {
        type            calculated;
        value           uniform 0;
    }
    breakwater_top_surface
    {
        type            calculated;
        value           uniform 0;
    }
    breakwater_left_surface
    {
        type            calculated;
        value           uniform 0;
    }
    breakwater_right_surface
    {
        type            calculated;
        value           uniform 0;
    }
    water_front_surface
    {
        type            calculated;
        value           uniform 0;
    }
    water_back_surface
    {
        type            calculated;
        value           uniform 0;
    }
    water_left_surface
    {
        type            calculated;
        value           uniform 0;
    }
    water_right_surface
    {
        type            calculated;
        value           uniform 0;
    }
    water_top_surface
    {
        type            calculated;
        value           nonuniform List<scalar> 
180
(
0.735104
-1.16818
-1.0664
-1.12783
0.461771
1.07405
-1.65921
-1.62192
-1.63022
-1.63686
-1.69309
-1.71104
-1.53107
-1.52957
-1.53102
-1.53251
-1.53824
-1.54041
-1.68981
-1.68963
-1.69112
-1.69254
-1.69719
-1.69965
-1.7723
-1.77487
-1.77436
-1.7749
-1.77591
-1.77756
-1.88248
-1.88676
-1.88481
-1.88686
-1.88819
-1.88931
-1.93366
-1.96247
-1.95061
-1.95923
-1.95669
-1.95754
-1.96771
-2.04769
-1.99011
-1.98303
-1.99964
-2.03169
-1.53734
-2.35552
-1.72958
-1.55825
-1.8726
-2.09417
4.34158
2.4843
2.35823
2.11892
1.6288
0.977677
6.35888
7.40854
6.8103
6.61067