/*--------------------------------*- C++ -*----------------------------------*\
| =========                 |                                                 |
| \\      /  F ield         | OpenFOAM: The Open Source CFD Toolbox           |
|  \\    /   O peration     | Version:  v1612+                                |
|   \\  /    A nd           | Web:      www.OpenFOAM.com                      |
|    \\/     M anipulation  |                                                 |
\*---------------------------------------------------------------------------*/
FoamFile
{
    version     2.0;
    format      ascii;
    class       volScalarField;
    location    "7.5";
    object      alpha.water;
}
// * * * * * * * * * * * * * * * * * * * * * * * * * * * * * * * * * * * * * //

dimensions      [0 0 0 0 0 0 0];

internalField   nonuniform List<scalar> 
320
(
1
1
1
1
1.88167e-05
1.84363e-05
1.8479e-05
1.74225e-05
1.91557e-05
1.75677e-05
1.81712e-05
1.86878e-05
1.76992e-05
1.72269e-05
1.579e-05
1.91829e-05
0.99998
0.999976
0.999978
0.999982
0.999979
0.999981
0.999978
0.999978
0.999979
0.999983
0.99999
0.999981
1
1
1
1
1
1
1
1
1
1
1
1
1
1
1
1
1
1
1
1
1
1
1
1
1
1
1
1
1.8761e-05
1.98693e-05
1.71951e-05
1.92503e-05
1.6579e-05
1.52835e-05
1.45654e-05
1.43047e-05
1.84353e-05
1.6988e-05
1.45273e-05
1.4518e-05
1.70661e-05
1.508e-05
1.4592e-05
1.48248e-05
1.46666e-05
1.74471e-05
1.94701e-05
1.573e-05
0.999981
0.999978
0.999988
0.999982
0.999992
0.999993
0.999992
0.999992
0.999983
0.999986
0.999992
0.999993
0.999981
0.999988
0.999991
0.99999
0.999989
0.999986
0.999978
0.999989
1
1
1
1
1
1
1
1
1
1
1
1
1
1
1
1
1
1
1
1
1
1
1
1
1
1
1
1
1
1
1
1
1
1
1
1
1
1
1
1
1
1
1
1
1
1
1
1
1
1
1
1
1
1
1
1
1
1
1
1
1
1
1
1
1
1
1
1
1
1
1
1
1
1
1
1
1.68736e-05
1.88062e-05
1.91276e-05
1.76871e-05
1.87823e-05
1.85988e-05
2.1698e-05
1.82312e-05
1.81948e-05
1.94914e-05
1.84055e-05
1.96535e-05
1.90513e-05
1.82981e-05
1.78528e-05
1.95123e-05
1.94014e-05
1.72634e-05
1.72887e-05
1.78443e-05
1.82615e-05
1.79626e-05
1.9432e-05
1.89535e-05
1.71863e-05
1.85768e-05
1.72611e-05
1.90868e-05
0.999981
0.999979
0.99998
0.999989
0.999986
0.999986
0.999978
0.999982
0.999986
0.999979
0.999978
0.99998
0.999975
0.999984
0.999982
0.999977
0.999978
0.999981
0.999982
0.999978
0.999979
0.999978
0.999973
0.99998
0.99998
0.999978
0.99998
0.999972
1
1
1
1
1
1
1
1
1
1
1
1
1
1
1
1
1
1
1
1
1
1
1
1
1
1
1
1
1
1
1
1
1
1
1
1
1
1
1
1
1
1
1
1
1
1
1
1
1
1
1
1
1
1
1
1
1
1
1
1
1
1
1
1
1
1
1
1
1
1
1
1
1
1
1
1
1
1
1
1
1
1
1
1
1.79431e-05
1.8002e-05
1.7776e-05
1.86526e-05
0.999979
0.999976
0.999979
0.999977
)
;

boundaryField
{
    top_fluid_surface
    {
        type            inletOutlet;
        inletValue      uniform 0;
        value           nonuniform List<scalar> 
64
(
0
1.84363e-05
0
1.74225e-05
0
1.75677e-05
0
0
0
1.72269e-05
1.579e-05
0
0
0
1.71951e-05
0
1.6579e-05
1.52835e-05
1.45654e-05
1.43047e-05
0
1.6988e-05
1.45273e-05
1.4518e-05
0
1.508e-05
1.4592e-05
1.48248e-05
1.46666e-05
1.74471e-05
0
1.573e-05
1.68736e-05
1.88062e-05
0
1.76871e-05
0
0
0
0
0
0
0
0
0
1.82981e-05
0
0
0
0
1.72887e-05
0
0
0
0
0
1.71863e-05
0
0
0
0
0
0
1.86526e-05
)
;
    }
    bottom_fluid_surface
    {
        type            zeroGradient;
    }
    lateral_surface_1
    {
        type            zeroGradient;
    }
    lateral_surface_2
    {
        type            zeroGradient;
    }
    lateral_surface_3
    {
        type            zeroGradient;
    }
    lateral_surface_4
    {
        type            zeroGradient;
    }
}


// ************************************************************************* //
