/*--------------------------------*- C++ -*----------------------------------*\
| =========                 |                                                 |
| \\      /  F ield         | OpenFOAM: The Open Source CFD Toolbox           |
|  \\    /   O peration     | Version:  v1612+                                |
|   \\  /    A nd           | Web:      www.OpenFOAM.com                      |
|    \\/     M anipulation  |                                                 |
\*---------------------------------------------------------------------------*/
FoamFile
{
    version     2.0;
    format      ascii;
    class       surfaceScalarField;
    location    "7.5";
    object      alphaPhi;
}
// * * * * * * * * * * * * * * * * * * * * * * * * * * * * * * * * * * * * * //

dimensions      [0 3 -1 0 0 0 0];

internalField   nonuniform List<scalar> 
816
(
-9.3506e-07
-1.11022e-05
6.18431e-06
-1.13158e-05
-1.45365e-05
3.17066e-05
5.23527e-06
5.68873e-06
-3.9806e-06
9.36526e-06
-1.72312e-05
-7.10719e-06
1.56867e-06
3.67802e-06
8.72525e-06
-1.79388e-05
-3.35185e-06
8.82686e-06
1.02138e-05
-1.76015e-05
4.83897e-09
-2.33822e-09
4.55881e-08
-3.61508e-09
5.73976e-09
2.56329e-09
2.93575e-07
-6.2754e-10
1.6271e-09
4.21655e-09
1.97611e-06
-4.54082e-09
5.35227e-09
2.49295e-09
-4.10643e-06
2.2835e-09
-2.22486e-09
5.31196e-09
2.42557e-06
4.75164e-09
-1.10208e-09
-3.02187e-10
-4.00592e-06
1.02493e-10
4.87442e-09
4.4682e-10
4.8415e-07
3.15522e-09
-3.88037e-10
5.4714e-09
4.2157e-06
3.56317e-09
-3.52554e-09
-1.1161e-09
3.23866e-06
4.53087e-09
3.65526e-09
-1.45605e-09
-5.22006e-07
8.12437e-10
-1.76165e-09
-7.02486e-09
-5.70567e-06
1.09479e-09
-4.16393e-09
-1.94502e-07
-2.55486e-09
-8.8365e-10
2.05182e-05
-2.84302e-07
-2.75612e-05
2.65979e-06
1.01077e-05
2.92436e-05
-2.38049e-05
1.6271e-05
4.78715e-06
-1.58826e-06
2.38345e-06
2.82375e-06
3.27444e-05
-8.85898e-06
1.69481e-05
-3.7374e-07
-1.4583e-05
9.95371e-06
-3.59604e-06
1.10085e-05
-9.04698e-06
-4.97604e-06
-2.7357e-05
1.09395e-05
2.38349e-05
3.73161e-06
-2.45569e-05
9.4352e-06
1.50653e-05
1.60812e-05
3.14643e-06
-1.01489e-05
3.37962e-06
1.25553e-05
-3.74253e-05
1.75725e-05
3.52625e-05
2.21951e-05
-3.10011e-05
9.75305e-06
3.29204e-06
-7.86896e-06
4.48901e-05
4.34069e-06
-2.20742e-05
-1.80575e-05
3.24868e-06
4.83337e-06
-9.70551e-06
6.83895e-07
-1.37684e-05
1.43291e-06
-1.43587e-05
-9.08888e-06
-4.3267e-06
-1.13545e-07
1.90281e-06
8.75087e-07
-1.4635e-05
2.96283e-06
7.16483e-06
2.78442e-06
-1.90146e-06
-1.6972e-06
-2.95291e-07
-2.86617e-06
-1.35657e-05
-2.50773e-06
-1.03187e-05
-4.76927e-06
-1.17661e-05
-1.9753e-06
-8.68948e-06
2.10961e-06
6.48038e-06
-3.57551e-06
-1.7896e-05
-8.28416e-06
-1.63366e-05
-1.25427e-05
-1.38186e-05
-4.58142e-06
3.96227e-06
1.96091e-05
-2.51697e-06
-9.38718e-06
-1.05434e-06
-2.94638e-06
-1.10291e-06
-6.70959e-06
3.9091e-06
-6.12889e-06
-4.48351e-06
2.60987e-06
3.94107e-06
-2.14222e-06
3.92533e-06
-3.63189e-06
1.22036e-06
2.07271e-06
2.30021e-06
-8.87724e-07
5.38515e-06
4.79534e-06
-5.45378e-06
-4.08412e-07
4.62085e-07
-4.42281e-06
-7.59169e-06
-2.07017e-06
-9.37956e-07
-4.01416e-07
1.14156e-06
-7.11655e-06
6.87195e-07
2.57007e-06
2.00581e-06
4.93835e-08
-3.73574e-07
8.05763e-07
-4.47598e-07
-2.55792e-06
-1.30527e-06
-5.94917e-06
-4.12401e-06
-3.63408e-06
-1.05528e-06
-4.22694e-06
-4.55016e-06
4.46239e-06
-1.8488e-07
-1.69446e-06
-5.70389e-06
-1.01811e-05
-4.84039e-06
-6.72476e-06
-3.04684e-06
-3.65518e-06
2.4267e-06
-1.80428e-06
6.15519e-06
-1.05011e-06
-2.95648e-06
-3.34942e-06
-3.40545e-09
4.62362e-09
5.47367e-07
1.06498e-10
2.87126e-09
5.46486e-07
-1.09076e-09
7.95517e-10
-3.67277e-06
-9.81922e-10
2.83413e-09
-5.74436e-06
-2.14183e-09
4.76182e-09
-6.22398e-06
-6.75078e-09
-3.08299e-09
2.56557e-09
-1.95182e-06
-3.36891e-09
-7.9729e-10
5.78292e-07
-6.32319e-09
-6.1731e-09
7.30989e-12
-4.53716e-09
-8.93458e-10
-1.43963e-06
-3.3468e-09
3.55022e-09
-6.12578e-06
-5.88117e-09
-2.57746e-09
4.82682e-10
-5.34222e-07
-3.87718e-09
-2.70312e-09
1.44816e-11
-5.50912e-09
7.49778e-10
-1.09043e-06
-4.82398e-10
-4.98233e-10
2.71189e-06
-1.83289e-09
-4.964e-11
3.10896e-11
-5.09133e-09
-5.76278e-09
-2.43688e-09
-5.75784e-06
-3.77196e-09
-7.35143e-09
5.7275e-11
-6.26e-09
-6.71253e-09
-4.56045e-06
-1.1972e-09
-1.85797e-10
-7.19855e-06
-1.61271e-09
4.01765e-11
-1.47876e-09
-1.20017e-09
-1.1944e-05
1.36636e-06
1.27627e-05
7.84634e-06
1.25534e-05
-2.34385e-05
3.74401e-06
1.1749e-05
-7.87893e-06
2.12714e-05
5.88368e-06
-6.09261e-06
7.23465e-06
1.43226e-05
4.57988e-05
-3.14751e-05
-3.11668e-05
-2.98954e-06
5.95004e-05
-1.27797e-05
-1.59216e-05
5.27318e-05
-3.75204e-05
-3.9958e-05
7.61212e-05
-4.12485e-05
-2.07546e-05
-7.89539e-06
-2.54881e-06
2.06207e-05
-1.83074e-05
-1.34929e-05
-1.815e-05
-7.50214e-06
5.43951e-05
-3.3742e-06
-3.04321e-05
6.06913e-05
-2.69282e-05
7.06606e-06
-4.07137e-05
-4.61095e-06
5.55112e-06
4.36697e-05
-1.39247e-05
2.39211e-05
3.76916e-05
-3.79142e-05
-1.77916e-05
-5.06901e-07
4.94127e-05
9.86847e-06
-2.26518e-05
5.53167e-05
-2.24342e-05
-1.4613e-05
8.40048e-06
-1.63599e-05
-4.37726e-06
-3.05488e-06
-9.42997e-06
4.77662e-05
-1.8645e-05
-3.07659e-05
9.46888e-06
-1.64885e-06
6.20157e-06
-2.30172e-06
-2.91184e-06
-1.13304e-05
1.75828e-06
-4.57729e-06
-2.75237e-06
-7.7778e-06
-1.95389e-06
-3.62806e-06
-4.21053e-06
-1.12171e-05
2.12981e-05
1.70987e-05
1.6665e-05
1.24076e-08
2.67136e-05
6.92255e-06
9.14714e-06
2.32168e-05
2.31665e-05
2.43878e-05
3.40061e-05
2.65794e-05
1.4928e-05
-4.53131e-06
3.59308e-06
-1.58972e-05
-7.61788e-06
1.04116e-05
9.72703e-06
-8.7865e-07
2.41012e-05
4.96203e-06
1.33515e-05
2.69083e-05
1.76005e-05
-4.56544e-06
-1.82364e-05
1.93102e-06
-1.51606e-06
2.01366e-05
1.22269e-05
-1.35722e-05
1.71785e-05
2.08212e-05
1.17482e-05
4.06853e-07
2.17819e-05
-2.66659e-06
1.26583e-05
2.52551e-05
1.32459e-05
8.27935e-06
4.17372e-06
6.0911e-06
1.75276e-06
-1.12707e-06
1.65238e-06
2.17497e-05
1.12486e-05
1.491e-05
6.08094e-06
-1.50465e-06
2.47108e-06
-1.86316e-06
-1.13074e-06
-3.86674e-06
2.26673e-07
-2.39329e-06
1.31027e-06
-4.86271e-06
-7.14867e-07
-1.55247e-06
-2.61325e-06
-6.14966e-06
6.60352e-06
1.04018e-05
9.72525e-06
-2.87701e-07
9.78756e-06
3.94878e-06
5.02539e-06
7.49205e-06
1.24208e-05
1.36573e-05
1.11147e-05
1.50651e-05
8.06032e-06
-1.68221e-06
1.44507e-06
-9.4135e-06
-7.79675e-07
5.5635e-06
5.07431e-06
-6.75529e-07
6.77289e-06
2.64382e-06
6.96606e-06
8.93221e-06
9.2992e-06
-3.76049e-06
-3.97768e-06
9.32541e-07
-1.62649e-06
6.39272e-06
5.91022e-06
-7.36591e-06
5.08154e-06
1.13867e-05
6.44967e-06
2.68098e-07
7.19658e-06
-3.22249e-06
7.07548e-06
8.13297e-06
7.2648e-06
4.2604e-06
2.32439e-06
2.87046e-06
6.36376e-07
-1.30716e-07
-3.14534e-07
5.75157e-06
6.28436e-06
8.8605e-06
1.98414e-07
-3.47359e-06
2.33336e-06
-3.53054e-06
2.39194e-06
7.43041e-07
9.87531e-07
-2.88427e-06
2.32432e-07
1.48522e-06
-3.04202e-07
4.60667e-06
-4.19363e-06
8.94355e-07
1.20528e-06
-3.28307e-06
-1.10627e-06
-1.00316e-07
1.13536e-06
-3.63259e-06
1.23853e-07
8.14937e-07
-4.22838e-07
-2.04006e-07
-1.87529e-06
6.00266e-08
-2.72902e-06
-1.96241e-06
4.74048e-07
-3.34736e-06
1.4299e-06
-1.92416e-06
-1.32272e-06
-4.93519e-06
-3.25283e-06
-8.44188e-07
1.01094e-06
-1.64768e-06
-9.66303e-07
-4.73923e-07
2.47757e-06
-3.73631e-07
-5.91254e-07
-1.11043e-06
9.31902e-07
3.01681e-07
-1.20345e-06
1.40403e-07
-2.48817e-07
-2.68079e-06
4.1154e-06
5.30881e-06
7.26684e-07
2.74623e-06
3.04186e-06
5.99488e-06
7.48613e-06
6.46923e-06
4.00236e-06
1.86584e-06
-3.67901e-06
3.16594e-06
3.74112e-06
-8.44748e-07
1.21322e-06
3.14496e-06
5.42123e-06
-7.92165e-07
1.38759e-06
5.22192e-08
4.21843e-06
-3.5396e-06
5.48072e-06
3.19316e-06
-2.83756e-07
-9.80006e-07
3.35377e-06
3.65557e-06
3.0843e-06
9.50071e-07
1.38117e-06
1.10769e-06
3.2396e-06
3.52738e-06
1.30549e-10
-3.92364e-09
-6.33539e-06
-9.73233e-10
-2.84784e-06
2.82206e-09
-7.89506e-06
-1.1337e-09
-8.23296e-06
-1.09568e-09
9.50977e-07
-6.732e-09
7.63234e-07
8.23804e-09
-1.01973e-05
4.5757e-09
-2.84428e-06
1.79444e-09
3.13527e-06
2.23317e-09
-4.301e-06
2.37283e-10
-6.47764e-06
3.39898e-09
6.0587e-07
6.90622e-10
-9.83081e-06
6.74706e-10
-6.51473e-06
-1.6336e-09
5.78754e-08
3.24058e-10
-8.83376e-06
2.17928e-09
-7.77588e-07
2.02532e-09
2.41139e-06
-5.85743e-10
-8.43509e-06
-2.92553e-09
8.12653e-07
1.6103e-09
9.42214e-07
-2.79451e-09
-8.37613e-06
-2.12381e-09
-5.36126e-06
-2.49212e-09
5.76446e-07
-4.97228e-09
9.73596e-11
-1.93708e-09
3.75263e-06
-3.05261e-09
8.54957e-07
-1.7359e-06
1.57922e-05
-2.46634e-05
-1.11129e-05
1.26552e-05
1.26241e-05
2.65586e-05
-2.04596e-05
-8.50346e-07
3.72912e-05
-2.04331e-05
3.06888e-05
-2.97334e-05
-1.87398e-05
2.17347e-05
-6.46726e-05
1.08795e-05
-2.4497e-05
-1.78015e-05
2.87997e-05
-8.45543e-06
-5.24046e-05
1.24404e-05
-7.06611e-05
2.33731e-05
-1.08808e-05
1.14108e-05
-1.4378e-05
-1.53272e-05
1.83575e-05
-6.71051e-06
-2.59366e-05
-1.19024e-05
-1.05595e-05
-8.17319e-06
-3.28444e-05
1.06697e-06
-4.17437e-06
-8.87463e-06
-1.58104e-05
-1.28479e-05
-3.12004e-05
3.66242e-05
-4.65631e-05
1.63992e-05
-1.35754e-07
-1.20697e-05
2.64143e-05
-5.1551e-06
-3.04681e-05
-1.29665e-05
-8.87842e-07
-1.3252e-05
5.35125e-06
-1.0508e-05
-2.93615e-05
-3.71381e-05
-7.17628e-06
1.27495e-05
-5.43206e-06
-2.83706e-06
6.00579e-06
-1.23042e-05
-9.22359e-06
-2.51424e-07
1.74665e-05
1.34784e-05
1.27482e-05
2.06473e-05
-8.81201e-06
-1.47527e-05
-2.9274e-05
-1.01406e-05
-1.24403e-05
1.34981e-05
1.20858e-05
6.46217e-06
-2.22043e-05
-6.84105e-06
-3.07825e-05
-7.85735e-06
-6.27326e-06
-5.58643e-06
-6.23527e-06
4.91156e-06
7.8609e-06
1.15308e-06
-1.24515e-05
3.51857e-07
-4.79595e-06
3.01443e-08
-1.49084e-05
1.89751e-07
-2.39793e-06
3.63709e-06
-7.02982e-06
6.62757e-06
-1.33735e-05
-1.86204e-05
-2.13108e-05
-6.57443e-06
-4.38917e-07
3.17981e-06
1.39816e-05
-1.21737e-07
-1.39033e-05
4.55008e-06
5.56284e-07
9.15442e-06
2.41241e-06
8.78244e-06
-1.40701e-05
-1.55729e-05
-3.21521e-06
6.05352e-06
-1.95128e-06
-1.09536e-06
2.03694e-06
-6.22388e-06
-3.86059e-06
1.06242e-06
5.32037e-06
8.84262e-06
2.35876e-06
1.1487e-05
-1.05629e-06
-8.53409e-06
-9.25968e-06
-6.3579e-06
-4.89008e-06
6.71286e-06
2.96993e-06
4.09462e-06
-7.15827e-06
-3.49409e-06
-8.12002e-06
-4.86598e-06
-3.45291e-06
-3.61263e-06
-1.92095e-06
3.30892e-06
9.441e-07
5.03117e-07
-4.56779e-06
-4.0582e-07
-1.24553e-06
-9.41755e-07
-5.06584e-06
-6.18745e-07
-1.78776e-06
1.79096e-06
-3.52573e-06
3.78395e-06
-3.98367e-06
-1.04276e-05
-7.09509e-06
-4.3064e-06
-9.29965e-08
2.96959e-06
3.46618e-06
1.88702e-07
-3.86727e-06
2.40741e-06
1.21932e-06
5.3878e-06
-8.70564e-07
3.79895e-06
-3.61396e-06
-5.71108e-06
-2.0699e-06
3.36826e-06
-6.18623e-07
-3.5468e-06
5.68691e-07
2.67927e-06
5.7478e-06
-3.51018e-06
-3.09248e-06
2.62471e-06
1.46185e-06
-1.84586e-07
-1.76823e-06
-5.20532e-07
4.25414e-07
-3.96575e-07
-4.30621e-07
-7.05758e-08
-4.64199e-07
2.35174e-07
1.71858e-06
-5.38619e-06
-2.27556e-06
2.1982e-07
1.111e-08
2.18206e-06
2.42104e-06
2.33854e-06
-2.45095e-10
3.76043e-09
2.82894e-06
1.05549e-09
1.31614e-06
2.52349e-09
2.87507e-06
9.91591e-08
3.67162e-06
1.82817e-05
-9.59401e-06
1.4935e-05
)
;

boundaryField
{
    top_fluid_surface
    {
        type            calculated;
        value           nonuniform List<scalar> 
64
(
0
1.36728e-09
0
1.46271e-09
0
2.42086e-10
0
0
0
1.46127e-09
6.74834e-09
0
0
0
2.61033e-09
0
6.39419e-09
9.25755e-09
9.94941e-09
1.12741e-08
0
3.10017e-09
9.86923e-09
9.57358e-09
0
6.87422e-09
8.35237e-09
8.5234e-09
9.18473e-09
1.13761e-09
0
6.24784e-09
1.93327e-09
1.20212e-09
0
2.86846e-09
0
0
0
0
0
0
0
0
0
1.31631e-10
0
0
0
0
9.4375e-10
0
0
0
0
0
5.56996e-10
0
0
0
0
0
0
9.49973e-10
)
;
    }
    bottom_fluid_surface
    {
        type            calculated;
        value           uniform 0;
    }
    lateral_surface_1
    {
        type            calculated;
        value           uniform 0;
    }
    lateral_surface_2
    {
        type            calculated;
        value           uniform 0;
    }
    lateral_surface_3
    {
        type            calculated;
        value           uniform 0;
    }
    lateral_surface_4
    {
        type            calculated;
        value           uniform 0;
    }
}


// ************************************************************************* //
