/*--------------------------------*- C++ -*----------------------------------*\
| =========                 |                                                 |
| \\      /  F ield         | OpenFOAM: The Open Source CFD Toolbox           |
|  \\    /   O peration     | Version:  v1612+                                |
|   \\  /    A nd           | Web:      www.OpenFOAM.com                      |
|    \\/     M anipulation  |                                                 |
\*---------------------------------------------------------------------------*/
FoamFile
{
    version     2.0;
    format      ascii;
    class       volScalarField;
    location    "2.25";
    object      p;
}
// * * * * * * * * * * * * * * * * * * * * * * * * * * * * * * * * * * * * * //

dimensions      [1 -1 -2 0 0 0 0];

internalField   nonuniform List<scalar> 
320
(
14724.8
14724.8
14724.8
14724.8
4.93269
4.93362
4.93462
4.9335
4.93242
4.93285
4.93213
4.93223
4.93233
4.9326
4.9334
4.93292
4914.82
4914.85
4914.84
4914.83
4914.8
4914.83
4914.84
4914.78
4914.81
4914.78
4914.8
4914.77
14724.8
14724.8
14724.8
14724.8
14724.8
14724.8
14724.8
14724.8
14724.8
14724.8
14724.8
14724.8
24534.8
24534.8
24534.8
24534.8
24534.8
24534.8
24534.8
24534.8
24534.8
24534.8
24534.8
24534.8
24534.8
24534.8
24534.8
24534.8
4.93218
4.9293
4.93124
4.93767
4.93298
4.93321
4.93209
4.93294
4.93407
4.93494
4.93383
4.93258
4.93108
4.9334
4.93375
4.93289
4.93234
4.93256
4.93276
4.93333
4914.79
4914.8
4914.83
4914.88
4914.81
4914.8
4914.79
4914.81
4914.81
4914.83
4914.83
4914.85
4914.75
4914.79
4914.85
4914.85
4914.78
4914.79
4914.78
4914.79
14724.8
14724.8
14724.8
14724.8
14724.8
14724.8
14724.8
14724.8
14724.8
14724.8
14724.8
14724.8
14724.8
14724.8
14724.8
14724.8
14724.8
14724.8
14724.8
14724.8
24534.8
24534.8
24534.8
24534.8
24534.8
24534.8
24534.8
24534.8
24534.8
24534.8
24534.8
24534.8
24534.8
24534.8
24534.8
24534.8
24534.8
24534.8
24534.8
24534.8
34344.8
34344.8
34344.8
34344.8
34344.8
34344.8
34344.8
34344.8
34344.8
34344.8
34344.8
34344.8
34344.8
34344.8
34344.8
34344.8
34344.8
34344.8
34344.8
34344.8
34344.8
34344.8
34344.8
34344.8
34344.8
34344.8
34344.8
34344.8
34344.8
34344.8
34344.8
34344.8
34344.8
34344.8
34344.8
34344.8
4.93336
4.93344
4.93472
4.93277
4.93269
4.93028
4.93281
4.93298
4.93178
4.93152
4.93377
4.93436
4.934
4.93578
4.93243
4.93347
4.9325
4.92929
4.93448
4.93371
4.93457
4.93412
4.93241
4.93186
4.93195
4.93342
4.93331
4.93254
4914.86
4914.81
4914.88
4914.86
4914.8
4914.77
4914.82
4914.82
4914.8
4914.86
4914.85
4914.84
4914.81
4914.87
4914.85
4914.86
4914.81
4914.78
4914.84
4914.79
4914.79
4914.8
4914.81
4914.85
4914.83
4914.81
4914.84
4914.86
14724.8
14724.8
14724.8
14724.8
14724.8
14724.8
14724.8
14724.8
14724.8
14724.8
14724.8
14724.8
14724.8
14724.8
14724.8
14724.8
14724.8
14724.8
14724.8
14724.8
14724.8
14724.8
14724.8
14724.8
14724.8
14724.8
14724.8
14724.8
24534.8
24534.8
24534.8
24534.8
24534.8
24534.8
24534.8
24534.8
24534.8
24534.8
24534.8
24534.8
24534.8
24534.8
24534.8
24534.8
24534.8
24534.8
24534.8
24534.8
24534.8
24534.8
24534.8
24534.8
24534.8
24534.8
24534.8
24534.8
34344.8
34344.8
34344.8
34344.8
34344.8
34344.8
34344.8
34344.8
34344.8
34344.8
34344.8
34344.8
34344.8
34344.8
34344.8
34344.8
34344.8
34344.8
34344.8
34344.8
34344.8
34344.8
34344.8
34344.8
34344.8
34344.8
34344.8
34344.8
4.93422
4.93414
4.93349
4.93212
4914.86
4914.82
4914.86
4914.85
)
;

boundaryField
{
    top_fluid_surface
    {
        type            calculated;
        value           nonuniform List<scalar> 
64
(
-2.20302e-09
-2.29532e-09
-1.36364e-10
-7.5364e-10
0
-9.65395e-11
-1.61367e-09
0
-6.74904e-10
0
0
0
0
-2.00168e-09
-1.38797e-09
-5.85696e-11
0
0
0
0
0
-4.24276e-10
0
0
0
0
-1.5243e-09
-2.81643e-10
0
0
0
0
-6.5912e-09
0
-2.65376e-08
-2.1103e-11
0
0
-4.0284e-10
-5.04479e-10
0
-1.26067e-08
-2.75849e-08
-4.3924e-10
0
-4.79608e-09
-1.87594e-08
-3.95702e-09
0
0
-1.64654e-09
0
0
0
0
-9.92914e-09
-9.90363e-10
0
-2.552e-10
-4.84912e-09
-2.15521e-09
0
-7.02201e-11
0
)
;
    }
    bottom_fluid_surface
    {
        type            calculated;
        value           nonuniform List<scalar> 
64
(
39249.8
39249.8
39249.8
39249.8
39249.8
39249.8
39249.8
39249.8
39249.8
39249.8
39249.8
39249.8
39249.8
39249.8
39249.8
39249.8
39249.8
39249.8
39249.8
39249.8
39249.8
39249.8
39249.8
39249.8
39249.8
39249.8
39249.8
39249.8
39249.8
39249.8
39249.8
39249.8
39249.8
39249.8
39249.8
39249.8
39249.8
39249.8
39249.8
39249.8
39249.8
39249.8
39249.8
39249.8
39249.8
39249.8
39249.8
39249.8
39249.8
39249.8
39249.8
39249.8
39249.8
39249.8
39249.8
39249.8
39249.8
39249.8
39249.8
39249.8
39249.8
39249.8
39249.8
39249.8
)
;
    }
    lateral_surface_1
    {
        type            calculated;
        value           nonuniform List<scalar> 
40
(
4.93336
4.93344
4.93472
4.93277
4.93269
4.93028
4.93281
4.93254
4914.86
4914.81
4914.88
4914.86
4914.8
4914.77
4914.82
4914.86
14724.8
14724.8
14724.8
14724.8
14724.8
14724.8
14724.8
14724.8
24534.8
24534.8
24534.8
24534.8
24534.8
24534.8
24534.8
24534.8
34344.8
34344.8
34344.8
34344.8
34344.8
34344.8
34344.8
34344.8
)
;
    }
    lateral_surface_2
    {
        type            calculated;
        value           nonuniform List<scalar> 
40
(
4.93578
4.93243
4.93347
4.9325
4.92929
4.93448
4.93371
4.93457
4914.87
4914.85
4914.86
4914.81
4914.78
4914.84
4914.79
4914.79
14724.8
14724.8
14724.8
14724.8
14724.8
14724.8
14724.8
14724.8
24534.8
24534.8
24534.8
24534.8
24534.8
24534.8
24534.8
24534.8
34344.8
34344.8
34344.8
34344.8
34344.8
34344.8
34344.8
34344.8
)
;
    }
    lateral_surface_3
    {
        type            calculated;
        value           nonuniform List<scalar> 
40
(
4.93281
4.93298
4.93178
4.93152
4.93377
4.93436
4.934
4.93578
4914.82
4914.82
4914.8
4914.86
4914.85
4914.84
4914.81
4914.87
14724.8
14724.8
14724.8
14724.8
14724.8
14724.8
14724.8
14724.8
24534.8
24534.8
24534.8
24534.8
24534.8
24534.8
24534.8
24534.8
34344.8
34344.8
34344.8
34344.8
34344.8
34344.8
34344.8
34344.8
)
;
    }
    lateral_surface_4
    {
        type            calculated;
        value           nonuniform List<scalar> 
40
(
4.93457
4.93412
4.93241
4.93186
4.93195
4.93342
4.93331
4.93254
4914.79
4914.8
4914.81
4914.85
4914.83
4914.81
4914.84
4914.86
14724.8
14724.8
14724.8
14724.8
14724.8
14724.8
14724.8
14724.8
24534.8
24534.8
24534.8
24534.8
24534.8
24534.8
24534.8
24534.8
34344.8
34344.8
34344.8
34344.8
34344.8
34344.8
34344.8
34344.8
)
;
    }
}


// ************************************************************************* //
