/*--------------------------------*- C++ -*----------------------------------*\
| =========                 |                                                 |
| \\      /  F ield         | OpenFOAM: The Open Source CFD Toolbox           |
|  \\    /   O peration     | Version:  v1612+                                |
|   \\  /    A nd           | Web:      www.OpenFOAM.com                      |
|    \\/     M anipulation  |                                                 |
\*---------------------------------------------------------------------------*/
FoamFile
{
    version     2.0;
    format      ascii;
    class       volScalarField;
    location    "2.25";
    object      p_rgh;
}
// * * * * * * * * * * * * * * * * * * * * * * * * * * * * * * * * * * * * * //

dimensions      [1 -1 -2 0 0 0 0];

internalField   nonuniform List<scalar> 
320
(
-9800.2
-9800.2
-9800.2
-9800.2
-0.00401766
-0.00501935
-0.00172298
0.000988114
0.0045012
0.00090728
-0.00093725
0.00317689
-0.000629742
0.000920315
0.000499401
0.00865289
-9800
-9800.05
-9800.05
-9800.06
-9800.14
-9800.06
-9800.07
-9800.1
-9800.01
-9800.09
-9800.11
-9800.13
-9800.21
-9800.2
-9800.2
-9800.21
-9800.21
-9800.21
-9800.21
-9800.22
-9800.22
-9800.22
-9800.21
-9800.21
-9800.2
-9800.2
-9800.2
-9800.2
-9800.21
-9800.2
-9800.21
-9800.2
-9800.2
-9800.2
-9800.2
-9800.21
-9800.21
-9800.21
-9800.21
-9800.21
0.00791064
-0.00909224
-0.00804467
0.00412983
0.00327907
0.0056914
0.00561949
0.00652929
0.00503863
-0.00190378
0.00180863
0.000636231
-0.00538387
0.00605645
-0.00296664
-0.00206436
0.00604268
0.00823057
0.00843536
0.00251811
-9800.16
-9800.05
-9800.11
-9800.05
-9800.15
-9800.14
-9800.13
-9800.19
-9800.16
-9800.03
-9800.06
-9800.11
-9800.09
-9800.13
-9800.06
-9800.08
-9800.13
-9800.16
-9800.13
-9800.11
-9800.21
-9800.22
-9800.2
-9800.2
-9800.2
-9800.21
-9800.22
-9800.2
-9800.2
-9800.2
-9800.2
-9800.2
-9800.23
-9800.22
-9800.21
-9800.2
-9800.21
-9800.21
-9800.21
-9800.21
-9800.21
-9800.2
-9800.19
-9800.21
-9800.21
-9800.21
-9800.21
-9800.2
-9800.2
-9800.2
-9800.2
-9800.2
-9800.21
-9800.21
-9800.21
-9800.21
-9800.21
-9800.21
-9800.21
-9800.21
-9800.21
-9800.2
-9800.21
-9800.2
-9800.2
-9800.2
-9800.2
-9800.2
-9800.2
-9800.2
-9800.21
-9800.21
-9800.21
-9800.21
-9800.21
-9800.21
-9800.21
-9800.2
-9800.2
-9800.21
-9800.2
-9800.21
-9800.21
-9800.2
-9800.2
-9800.2
-9800.2
-9800.2
-9800.21
-9800.21
-9800.21
-9800.21
-9800.21
-9800.21
-9800.21
-9800.21
-0.00426371
0.00385745
-0.0111195
2.99513e-05
0.00404587
-0.00486514
-0.00044802
-0.000513091
0.00246052
-0.00716003
-0.0120067
-0.00425852
0.00381544
-0.00466946
-0.0123306
-0.0035588
3.60366e-05
-0.00796987
0.000907832
0.00377987
-6.77959e-05
0.00188731
0.00244605
-0.00436327
-0.00059385
-0.000206964
-0.00261614
-0.00570499
-9800.08
-9800.15
-9800.05
-9800.12
-9800.14
-9800.13
-9800.04
-9800.03
-9800.13
-9800.07
-9800
-9800.05
-9800.18
-9800.07
-9800.04
-9800.09
-9800.12
-9800.13
-9800.06
-9800.11
-9800.08
-9800.12
-9800.14
-9800.06
-9800.06
-9800.12
-9800.05
-9800.08
-9800.2
-9800.2
-9800.2
-9800.19
-9800.21
-9800.22
-9800.21
-9800.21
-9800.21
-9800.21
-9800.2
-9800.2
-9800.19
-9800.18
-9800.2
-9800.19
-9800.2
-9800.22
-9800.21
-9800.22
-9800.22
-9800.21
-9800.21
-9800.21
-9800.21
-9800.21
-9800.2
-9800.2
-9800.2
-9800.2
-9800.19
-9800.19
-9800.21
-9800.2
-9800.21
-9800.21
-9800.21
-9800.2
-9800.2
-9800.2
-9800.2
-9800.19
-9800.2
-9800.19
-9800.2
-9800.21
-9800.21
-9800.22
-9800.22
-9800.21
-9800.21
-9800.21
-9800.21
-9800.21
-9800.21
-9800.2
-9800.2
-9800.2
-9800.2
-9800.2
-9800.21
-9800.2
-9800.21
-9800.21
-9800.21
-9800.2
-9800.2
-9800.2
-9800.2
-9800.19
-9800.2
-9800.2
-9800.2
-9800.21
-9800.21
-9800.21
-9800.21
-9800.21
-9800.21
-9800.21
-9800.21
-9800.21
-9800.21
-9800.2
-0.00514449
0.000799095
0.000931058
0.0016099
-9800.07
-9800.15
-9800.12
-9800.1
)
;

boundaryField
{
    top_fluid_surface
    {
        type            totalPressure;
        rho             rho;
        psi             none;
        gamma           1;
        p0              uniform 0;
        value           nonuniform List<scalar> 
64
(
-2.20302e-09
-2.29532e-09
-1.36364e-10
-7.5364e-10
0
-9.65395e-11
-1.61367e-09
0
-6.74904e-10
0
0
0
0
-2.00168e-09
-1.38797e-09
-5.85696e-11
0
0
0
0
0
-4.24276e-10
0
0
0
0
-1.5243e-09
-2.81643e-10
0
0
0
0
-6.5912e-09
0
-2.65376e-08
-2.1103e-11
0
0
-4.0284e-10
-5.04479e-10
0
-1.26067e-08
-2.75849e-08
-4.3924e-10
0
-4.79608e-09
-1.87594e-08
-3.95702e-09
0
0
-1.64654e-09
0
0
0
0
-9.92914e-09
-9.90363e-10
0
-2.552e-10
-4.84912e-09
-2.15521e-09
0
-7.02201e-11
0
)
;
    }
    bottom_fluid_surface
    {
        type            fixedFluxPressure;
        gradient        uniform 0;
        value           nonuniform List<scalar> 
64
(
-9800.21
-9800.2
-9800.21
-9800.2
-9800.2
-9800.2
-9800.2
-9800.2
-9800.2
-9800.2
-9800.21
-9800.21
-9800.21
-9800.21
-9800.21
-9800.21
-9800.21
-9800.2
-9800.2
-9800.21
-9800.2
-9800.21
-9800.21
-9800.2
-9800.2
-9800.2
-9800.2
-9800.2
-9800.21
-9800.21
-9800.21
-9800.21
-9800.21
-9800.21
-9800.21
-9800.21
-9800.2
-9800.2
-9800.2
-9800.2
-9800.21
-9800.2
-9800.21
-9800.21
-9800.21
-9800.2
-9800.2
-9800.2
-9800.2
-9800.19
-9800.2
-9800.2
-9800.2
-9800.21
-9800.21
-9800.21
-9800.21
-9800.21
-9800.21
-9800.21
-9800.21
-9800.21
-9800.21
-9800.2
)
;
    }
    lateral_surface_1
    {
        type            fixedFluxPressure;
        gradient        uniform 0;
        value           nonuniform List<scalar> 
40
(
-0.00426371
0.00385745
-0.0111195
2.99513e-05
0.00404587
-0.00486514
-0.00044802
-0.00570499
-9800.08
-9800.15
-9800.05
-9800.12
-9800.14
-9800.13
-9800.04
-9800.08
-9800.2
-9800.2
-9800.2
-9800.19
-9800.21
-9800.22
-9800.21
-9800.2
-9800.2
-9800.2
-9800.19
-9800.19
-9800.21
-9800.2
-9800.21
-9800.2
-9800.2
-9800.2
-9800.2
-9800.2
-9800.21
-9800.2
-9800.21
-9800.2
)
;
    }
    lateral_surface_2
    {
        type            fixedFluxPressure;
        gradient        uniform 0;
        value           nonuniform List<scalar> 
40
(
-0.00466946
-0.0123306
-0.0035588
3.60366e-05
-0.00796987
0.000907832
0.00377987
-6.77959e-05
-9800.07
-9800.04
-9800.09
-9800.12
-9800.13
-9800.06
-9800.11
-9800.08
-9800.18
-9800.2
-9800.19
-9800.2
-9800.22
-9800.21
-9800.22
-9800.22
-9800.19
-9800.2
-9800.19
-9800.2
-9800.21
-9800.21
-9800.22
-9800.22
-9800.19
-9800.2
-9800.2
-9800.2
-9800.21
-9800.21
-9800.21
-9800.21
)
;
    }
    lateral_surface_3
    {
        type            fixedFluxPressure;
        gradient        uniform 0;
        value           nonuniform List<scalar> 
40
(
-0.00044802
-0.000513091
0.00246052
-0.00716003
-0.0120067
-0.00425852
0.00381544
-0.00466946
-9800.04
-9800.03
-9800.13
-9800.07
-9800
-9800.05
-9800.18
-9800.07
-9800.21
-9800.21
-9800.21
-9800.21
-9800.2
-9800.2
-9800.19
-9800.18
-9800.21
-9800.21
-9800.21
-9800.2
-9800.2
-9800.2
-9800.2
-9800.19
-9800.21
-9800.21
-9800.21
-9800.2
-9800.2
-9800.2
-9800.2
-9800.19
)
;
    }
    lateral_surface_4
    {
        type            fixedFluxPressure;
        gradient        uniform 0;
        value           nonuniform List<scalar> 
40
(
-6.77959e-05
0.00188731
0.00244605
-0.00436327
-0.00059385
-0.000206964
-0.00261614
-0.00570499
-9800.08
-9800.12
-9800.14
-9800.06
-9800.06
-9800.12
-9800.05
-9800.08
-9800.22
-9800.21
-9800.21
-9800.21
-9800.21
-9800.21
-9800.2
-9800.2
-9800.22
-9800.21
-9800.21
-9800.21
-9800.21
-9800.21
-9800.21
-9800.2
-9800.21
-9800.21
-9800.21
-9800.21
-9800.21
-9800.21
-9800.21
-9800.2
)
;
    }
}


// ************************************************************************* //
