/*--------------------------------*- C++ -*----------------------------------*\
| =========                 |                                                 |
| \\      /  F ield         | OpenFOAM: The Open Source CFD Toolbox           |
|  \\    /   O peration     | Version:  v1612+                                |
|   \\  /    A nd           | Web:      www.OpenFOAM.com                      |
|    \\/     M anipulation  |                                                 |
\*---------------------------------------------------------------------------*/
FoamFile
{
    version     2.0;
    format      ascii;
    class       surfaceScalarField;
    location    "3.9";
    object      alphaPhi;
}
// * * * * * * * * * * * * * * * * * * * * * * * * * * * * * * * * * * * * * //

dimensions      [0 3 -1 0 0 0 0];

internalField   nonuniform List<scalar> 
2916
(
1.22003e-05
0.180146
-1.47537e-07
8.6546e-06
0.180145
-1.46618e-07
3.7627e-06
0.180145
-1.46903e-07
4.01097e-07
0.180146
-1.46936e-07
-7.04552e-06
0.180146
-1.46478e-07
0.180145
-1.47912e-07
1.18818e-05
0.343039
-3.08141e-07
7.91745e-06
0.343044
-3.076e-07
3.84044e-06
0.343043
-3.07752e-07
1.54698e-06
0.343045
-3.07581e-07
-4.14558e-06
0.343046
-3.07399e-07
0.34304
-3.08177e-07
1.10052e-05
0.509139
-4.86369e-08
5.99574e-06
0.509151
-4.8474e-08
2.74323e-06
0.509148
-4.84123e-08
2.14883e-06
0.509149
-4.82309e-08
-2.01081e-06
0.509152
-4.82838e-08
0.509142
-4.83838e-08
1.03965e-05
0.673268
-1.23307e-08
5.15981e-06
0.67329
-1.21606e-08
2.43754e-06
0.673285
-1.20109e-08
2.31881e-06
0.673286
-1.20514e-08
-1.21141e-06
0.67329
-1.20026e-08
0.673274
-1.19847e-08
9.88253e-06
0.806756
-1.45207e-09
5.10227e-06
0.806784
-1.29754e-09
1.9792e-06
0.806777
-1.2971e-09
2.1028e-06
0.806777
-1.30392e-09
-1.32801e-06
0.806782
-1.2365e-09
0.80676
-1.23365e-09
8.2479e-06
0.864871
-0.000185826
5.46265e-06
0.864902
-0.000183157
1.01286e-06
0.864894
-0.0001827
-3.99019e-07
0.864894
-0.000183462
-2.24635e-06
0.864898
-0.000183417
0.864872
-0.000183614
7.37589e-06
0.750347
0.100638
5.13823e-06
0.750377
0.100645
-8.7219e-08
0.750371
0.100645
-3.46329e-06
0.750369
0.100645
-5.3687e-06
0.750373
0.100644
0.750343
0.100642
3.65472e-06
0.420495
0.329883
3.28903e-06
0.420526
0.329885
-2.30607e-06
0.420526
0.329885
-6.14666e-06
0.420523
0.329885
-9.52537e-06
0.420529
0.329882
0.420484
0.329884
1.12598e-05
-0.143193
0.563729
2.96376e-06
-0.143172
0.563758
-2.67346e-06
-0.143161
0.563745
-7.97426e-06
-0.143165
0.563745
-2.22306e-05
-0.143155
0.56375
-0.143226
0.56374
2.9479e-05
-0.616632
0.473461
7.83464e-06
-0.616614
0.473516
3.13219e-06
-0.616602
0.473498
-3.17645e-06
-0.616604
0.473498
-2.63206e-05
-0.616589
0.473509
-0.616672
0.473472
3.90747e-05
-0.59565
-0.020977
7.99075e-06
-0.595623
-0.020916
1.24763e-06
-0.595618
-0.0209333
-3.29258e-06
-0.59562
-0.0209354
-2.09386e-05
-0.595606
-0.0209209
-0.595667
-0.0209823
2.58744e-06
-0.596681
-1.5235e-05
-0.596633
-1.13458e-05
-0.59665
-4.29853e-06
-0.596655
2.89164e-06
-0.596641
-0.596692
3.68744e-12
2.22003e-08
-1.07104e-07
3.05919e-12
2.2166e-08
-1.07099e-07
6.51166e-14
2.21732e-08
-1.0711e-07
4.26545e-13
2.21594e-08
-1.07118e-07
1.08077e-13
2.21431e-08
-1.07094e-07
2.2195e-08
-1.07141e-07
-5.95125e-13
4.75254e-08
-2.9788e-07
-2.75118e-13
4.74647e-08
-2.97706e-07
5.05263e-13
4.74668e-08
-2.97746e-07
5.68122e-13
4.74439e-08
-2.97739e-07
2.54433e-13
4.74264e-08
-2.97664e-07
4.74865e-08
-2.97951e-07
-1.54889e-12
3.88982e-08
-3.40313e-08
-1.07937e-12
3.88551e-08
-3.39739e-08
-5.42269e-13
3.88406e-08
-3.39795e-08
-1.92224e-13
3.88178e-08
-3.39533e-08
8.58668e-13
3.88133e-08
-3.39295e-08
3.88267e-08
-3.39945e-08
-2.27726e-12
3.77416e-08
-1.03283e-08
-1.59651e-12
3.77074e-08
-1.03096e-08
-1.67769e-12
3.76893e-08
-1.03063e-08
-1.04383e-12
3.76865e-08
-1.03011e-08
1.41037e-12
3.76747e-08
-1.02966e-08
3.76747e-08
-1.03214e-08
-1.41782e-12
2.80046e-08
8.51568e-09
-1.23955e-12
2.79688e-08
8.49276e-09
-1.1469e-12
2.7967e-08
8.51006e-09
-6.55663e-13
2.7964e-08
8.50944e-09
6.24034e-13
2.79486e-08
8.50686e-09
2.79514e-08
8.50843e-09
-2.14083e-08
0.04915
0.000726678
-4.96884e-08
0.049157
0.00072665
1.33469e-07
0.0491567
0.000726712
2.47064e-07
0.049158
0.000726667
7.33463e-08
0.0491619
0.000726636
0.0491573
0.000726775
9.0023e-09
0.191214
0.00277603
-2.44325e-07
0.191228
0.00277548
4.23375e-08
0.191227
0.00277568
4.24695e-07
0.191227
0.00277551
1.91797e-07
0.191231
0.00277516
0.191223
0.00277586
3.51113e-06
0.395516
0.00904372
-1.58469e-06
0.395552
0.00903758
-1.67877e-06
0.395539
0.00904069
-1.24938e-06
0.395539
0.00904061
-4.88666e-06
0.395549
0.00903902
0.395521
0.00904212
3.26365e-05
0.419319
0.102845
1.36484e-06
0.419409
0.102831
-1.34583e-06
0.41938
0.102837
-3.54893e-06
0.41938
0.102837
-2.91121e-05
0.419411
0.102831
0.419327
0.102842
8.65124e-05
0.159017
0.563681
1.64891e-05
0.159138
0.563817
8.89245e-06
0.159105
0.563758
2.69593e-07
0.159107
0.563757
-4.56216e-05
0.159147
0.563783
0.159036
0.563715
0.000118535
-0.0253693
0.163388
2.68906e-05
-0.0251764
0.163588
1.94817e-05
-0.0252232
0.163501
7.95869e-06
-0.0252232
0.163505
-5.34732e-05
-0.0251612
0.163547
-0.0253322
0.163429
-3.98949e-05
-0.621901
-2.07995e-05
-0.621719
-6.31331e-06
-0.621778
4.61578e-06
-0.62178
3.66866e-05
-0.621725
-0.621878
-5.67566e-12
-4.75835e-08
-4.18366e-07
-1.90796e-12
-4.75597e-08
-4.18235e-07
8.60471e-13
-4.75715e-08
-4.1829e-07
2.8666e-12
-4.75676e-08
-4.18331e-07
6.4015e-12
-4.7553e-08
-4.18299e-07
-4.7603e-08
-4.18447e-07
-1.45082e-11
-1.86457e-08
-2.00509e-06
-4.86116e-12
-1.86111e-08
-2.00562e-06
1.15532e-12
-1.86279e-08
-2.00588e-06
7.12103e-12
-1.86146e-08
-2.006e-06
1.78236e-11
-1.8591e-08
-2.00607e-06
-1.86506e-08
-2.00582e-06
-1.39214e-12
-1.68298e-08
-1.76298e-08
-4.10661e-13
-1.65521e-08
-1.76467e-08
-1.02593e-13
-1.67715e-08
-1.76491e-08
4.6879e-13
-1.67026e-08
-1.76375e-08
1.91364e-12
-1.63963e-08
-1.76375e-08
-1.68272e-08
-1.76425e-08
-1.8276e-12
8.13822e-10
-8.74205e-09
-7.56804e-13
8.02149e-10
-8.71508e-09
-7.01886e-13
8.09563e-10
-8.7161e-09
3.52569e-14
8.08903e-10
-8.70777e-09
2.04737e-12
8.07935e-10
-8.69992e-09
8.14382e-10
-8.74442e-09
-1.58587e-13
8.82752e-09
5.41969e-10
-2.21292e-13
8.79949e-09
5.5433e-10
-2.08874e-14
8.87191e-09
5.41329e-10
-1.24974e-14
8.79075e-09
5.40535e-10
-2.45429e-13
8.78804e-09
5.40675e-10
8.79612e-09
5.40136e-10
1.4614e-08
0.000727098
-4.49541e-07
-6.58495e-09
0.000727104
-4.49033e-07
5.73633e-09
0.000727132
-4.48992e-07
3.08888e-09
0.000727103
-4.48726e-07
-3.26338e-08
0.000727104
-4.48475e-07
0.000727176
-4.48631e-07
6.10106e-08
0.00345226
2.83543e-06
-5.67863e-09
0.00345181
2.82851e-06
1.08166e-08
0.00345197
2.83128e-06
-7.36596e-09
0.0034518
2.83038e-06
-9.8262e-08
0.00345152
2.82828e-06
0.00345212
2.83257e-06
6.93075e-07
0.0120433
4.19635e-05
5.15812e-08
0.012039
4.20434e-05
-7.86621e-09
0.0120411
4.2003e-05
-5.93663e-08
0.012041
4.20102e-05
-3.1962e-07
0.0120396
4.20299e-05
0.0120423
4.19842e-05
3.03783e-06
0.0410127
0.00173142
-4.66051e-09
0.0410801
0.00173144
1.31951e-07
0.0410483
0.00173166
-3.36541e-08
0.0410496
0.00173057
-2.9525e-07
0.0410629
0.00173148
0.0410319
0.00173006
0.000136211
0.179925
0.0435503
1.23897e-05
0.180231
0.0436175
4.50468e-06
0.180096
0.0435891
1.03198e-05
0.180098
0.0435811
-6.12222e-05
0.180173
0.0436005
0.18001
0.0435649
0.000351523
0.0192192
0.268869
3.79937e-05
0.0195197
0.269648
-7.18262e-07
0.0194226
0.269291
6.60432e-06
0.0194268
0.269246
-0.000164123
0.019506
0.269445
0.0192868
0.269087
-0.000130972
-0.602441
-2.91764e-05
-0.602192
-5.18437e-06
-0.602271
1.72187e-05
-0.602267
0.000103746
-0.602197
-0.602378
-4.19089e-12
-4.11995e-07
-9.55681e-08
-1.77943e-12
-4.11919e-07
-9.55063e-08
-3.21271e-13
-4.11973e-07
-9.55365e-08
-2.8581e-12
-4.11985e-07
-9.55616e-08
6.81326e-13
-4.1196e-07
-9.55516e-08
-4.12098e-07
-9.56136e-08
2.37976e-11
-1.19572e-07
-1.40838e-06
1.41737e-11
-1.19479e-07
-1.40861e-06
4.45565e-12
-1.19375e-07
-1.40868e-06
-5.80946e-12
-1.19324e-07
-1.40879e-06
-1.41883e-11
-1.1932e-07
-1.40887e-06
-1.19353e-07
-1.40867e-06
-1.17402e-13
-8.09291e-08
-4.27225e-07
-9.59017e-13
-8.09011e-08
-4.27173e-07
-4.77383e-14
-8.09087e-08
-4.27191e-07
-3.04392e-13
-8.08907e-08
-4.27184e-07
-9.60475e-13
-8.08888e-08
-4.27171e-07
-8.09776e-08
-4.2728e-07
-1.61488e-13
-3.15544e-08
-1.11747e-09
-2.23157e-13
-3.15396e-08
-1.11758e-09
-9.6564e-14
-3.15487e-08
-1.11682e-09
-9.76477e-14
-3.15432e-08
-1.11488e-09
-1.40779e-13
-3.15382e-08
-1.11464e-09
-3.15891e-08
-1.11503e-09
-3.92502e-12
-5.85674e-07
-1.11771e-08
-3.07721e-12
-5.85672e-07
-1.11846e-08
-8.30759e-13
-5.85752e-07
-1.11822e-08
-1.78451e-13
-5.85759e-07
-1.11795e-08
4.40309e-13
-5.85762e-07
-1.11809e-08
-5.8604e-07
-1.11748e-08
-8.45148e-12
-7.81205e-07
-9.23797e-08
4.77515e-12
-7.80862e-07
-9.24349e-08
4.98711e-11
-7.81083e-07
-9.24475e-08
4.23932e-11
-7.80812e-07
-9.24265e-08
-3.68558e-12
-7.80482e-07
-9.24129e-08
-7.80999e-07
-9.23801e-08
-1.83102e-10
1.29146e-06
-3.28727e-07
1.38518e-10
1.28724e-06
-3.285e-07
2.95672e-10
1.2882e-06
-3.28605e-07
2.94107e-10
1.28808e-06
-3.28512e-07
3.84151e-10
1.2862e-06
-3.28434e-07
1.29073e-06
-3.2853e-07
3.4742e-08
-1.00189e-05
3.30961e-06
1.30559e-08
-9.91068e-06
3.303e-06
1.95835e-08
-9.97609e-06
3.30705e-06
1.60513e-08
-9.96233e-06
3.30537e-06
1.01017e-09
-9.94232e-06
3.30532e-06
-9.9634e-06
3.30241e-06
3.03141e-06
0.0003875
0.000917782
7.02057e-07
0.00039422
0.000917498
6.94056e-07
0.000391343
0.00091764
4.75655e-07
0.00039086
0.000917454
-4.25414e-08
0.000391809
0.00091789
0.000390768
0.000916778
0.000163872
-0.208902
-0.00515969
1.44816e-05
-0.208939
-0.00496533
-6.57715e-06
-0.208937
-0.00505465
7.43629e-06
-0.208917
-0.00505513
-7.87315e-05
-0.208958
-0.00500305
-0.208889
-0.00509389
0.000589109
-0.0205019
-0.119294
3.91687e-05
-0.0199848
-0.118181
-7.0836e-05
-0.0201957
-0.118663
2.31104e-05
-0.020242
-0.11882
-0.0001716
-0.0201511
-0.118463
-0.0203164
-0.118972
-0.000131091
-0.55182
1.13915e-05
-0.551532
3.31813e-05
-0.551615
3.87622e-05
-0.551648
0.00011249
-0.551586
-0.551664
-1.20753e-34
-1.12987e-27
2.62182e-30
-1.56758e-34
-1.13367e-27
2.62958e-30
-1.62447e-34
-1.14951e-27
2.66074e-30
-1.40361e-34
-1.1465e-27
2.66203e-30
-8.92288e-35
-1.12518e-27
2.61365e-30
-1.12861e-27
2.60934e-30
-6.32972e-32
-4.68177e-25
1.17077e-27
-9.14668e-32
-4.69945e-25
1.17469e-27
-9.86488e-32
-4.77883e-25
1.19109e-27
-8.81641e-32
-4.74388e-25
1.18795e-27
-5.81833e-32
-4.65378e-25
1.16584e-27
-4.69969e-25
1.16937e-27
-2.04008e-29
-9.18469e-23
2.551e-25
-2.90983e-29
-9.22316e-23
2.56056e-25
-3.05436e-29
-9.41694e-23
2.60377e-25
-2.67023e-29
-9.29417e-23
2.58467e-25
-1.79896e-29
-9.10067e-23
2.5355e-25
-9.28494e-23
2.56041e-25
-5.10838e-27
-1.13192e-20
3.54366e-23
-5.79e-27
-1.13706e-20
3.55808e-23
-4.92121e-27
-1.1676e-20
3.6326e-23
-3.54083e-27
-1.1447e-20
3.58502e-23
-2.181e-27
-1.11529e-20
3.51016e-23
-1.15608e-20
3.58099e-23
-6.35096e-25
-9.93256e-19
3.44873e-21
-3.46456e-25
-9.97873e-19
3.46323e-21
9.07044e-26
-1.03281e-18
3.55573e-21
3.88069e-25
-1.00065e-18
3.48568e-21
3.68556e-25
-9.69254e-19
3.39593e-21
-1.02968e-18
3.52004e-21
-2.10915e-23
-6.88896e-17
2.45124e-19
6.66365e-23
-6.91833e-17
2.46107e-19
1.55759e-22
-7.23115e-17
2.54669e-19
1.87332e-22
-6.77123e-17
2.4673e-19
1.43049e-22
-6.62163e-17
2.39006e-19
-7.2837e-17
2.53953e-19
4.07564e-21
-8.56891e-17
1.52282e-17
1.63193e-20
-8.60461e-17
1.52981e-17
2.65607e-20
-8.99394e-17
1.58771e-17
2.70696e-20
-8.39847e-17
1.49979e-17
1.96474e-20
-8.23312e-17
1.50325e-17
-9.05976e-17
1.5692e-17
6.71877e-19
-9.5491e-15
2.47506e-15
1.71673e-18
-9.59751e-15
2.49661e-15
2.48091e-18
-1.00734e-14
2.67334e-15
2.11928e-18
-8.81395e-15
2.23259e-15
1.53769e-18
-9.0489e-15
2.41704e-15
-1.02081e-14
2.64831e-15
1.54265e-16
-1.37818e-11
2.14601e-13
2.7431e-16
-1.38479e-11
2.15991e-13
3.84985e-16
-1.47884e-11
2.31658e-13
2.11765e-16
-1.22504e-11
1.85006e-13
1.15403e-16
-1.20437e-11
1.9294e-13
-1.5534e-11
2.23183e-13
2.1435e-14
-2.48824e-09
1.53655e-09
2.38823e-14
-2.49407e-09
1.5453e-09
6.6465e-14
-2.6115e-09
1.62387e-09
-8.19609e-16
-2.33435e-09
1.42209e-09
-1.93593e-14
-2.39561e-09
1.49907e-09
-2.65772e-09
1.6143e-09
4.09492e-13
-1.3972e-11
-4.57954e-09
-5.52406e-13
-9.95113e-12
-4.58836e-09
4.47967e-12
-3.35502e-11
-4.76407e-09
-3.35434e-12
-1.02179e-11
-4.32639e-09
-6.26495e-12
-4.90538e-11
-4.39183e-09
-1.03454e-11
-4.91073e-09
-1.39055e-16
-2.45449e-09
-1.25141e-14
-2.45045e-09
2.74422e-14
-2.4741e-09
-2.67228e-14
-2.48343e-09
-5.44638e-14
-2.51846e-09
-2.55092e-09
-6.41752e-33
-6.38322e-26
2.81705e-28
-8.06394e-33
-6.40414e-26
2.82491e-28
-7.67837e-33
-6.34757e-26
2.81723e-28
-6.71823e-33
-6.1353e-26
2.7112e-28
-4.13056e-33
-6.38966e-26
2.81993e-28
-6.33417e-26
2.78644e-28
-3.6503e-30
-2.74897e-23
1.30901e-25
-4.64407e-30
-2.7594e-23
1.31327e-25
-4.43877e-30
-2.71261e-23
1.30165e-25
-3.86471e-30
-2.63645e-23
1.2581e-25
-2.34246e-30
-2.74976e-23
1.31024e-25
-2.73998e-23
1.29883e-25
-1.00172e-27
-5.56468e-21
2.93415e-23
-1.10997e-27
-5.58887e-21
2.94517e-23
-9.12443e-28
-5.45041e-21
2.89517e-23
-7.10948e-28
-5.31777e-21
2.81382e-23
-4.49944e-28
-5.55503e-21
2.93469e-23
-5.58386e-21
2.92416e-23
-3.77184e-26
-7.05536e-19
4.1342e-21
6.56951e-26
-7.08968e-19
4.15172e-21
1.68618e-25
-6.91652e-19
4.04863e-21
1.90769e-25
-6.7018e-19
3.94993e-21
1.29783e-25
-7.01124e-19
4.12599e-21
-7.15581e-19
4.14722e-21
4.27738e-23
-6.52362e-17
4.0563e-19
8.65271e-23
-6.55744e-17
4.07505e-19
1.07766e-22
-6.55625e-17
3.97511e-19
1.00686e-22
-6.13771e-17
3.85151e-19
6.93526e-23
-6.42687e-17
4.02926e-19
-6.72741e-17
4.11237e-19
9.13569e-21
-8.31046e-17
7.83358e-17
1.60602e-20
-8.35239e-17
7.87179e-17
1.90035e-20
-8.37071e-17
7.9889e-17
1.63205e-20
-7.8252e-17
7.33927e-17
1.12386e-20
-8.1876e-17
7.66391e-17
-8.56214e-17
8.20731e-17
1.2981e-18
-8.66055e-15
5.03398e-15
1.93354e-18
-8.67991e-15
5.05406e-15
2.202e-18
-8.86012e-15
5.30307e-15
1.58923e-18
-8.35276e-15
4.68957e-15
1.0994e-18
-8.55748e-15
4.90195e-15
-8.83099e-15
5.32584e-15
3.79764e-16
-3.9822e-12
3.71615e-12
4.60213e-16
-3.97785e-12
3.71136e-12
5.96537e-16
-4.16748e-12
3.88675e-12
1.86943e-16
-3.72555e-12
3.48129e-12
7.17324e-17
-3.85852e-12
3.60731e-12
-4.24072e-12
3.95505e-12
4.70397e-14
-3.63611e-09
6.76312e-11
3.76331e-14
-3.67367e-09
6.8114e-11
1.1183e-13
-3.84527e-09
6.86116e-11
-4.92801e-14
-3.38778e-09
7.02565e-11
-6.04758e-14
-3.59602e-09
6.94193e-11
-3.77315e-09
7.31185e-11
3.46016e-12
-1.95727e-07
-6.74688e-07
2.08972e-12
-1.96036e-07
-6.79762e-07
5.04323e-11
-2.04446e-07
-7.21402e-07
-2.66546e-11
-1.84217e-07
-6.19052e-07
-4.6444e-11
-1.88082e-07
-6.53252e-07
-2.07897e-07
-7.23792e-07
-7.87922e-10
4.74511e-07
-8.20597e-07
-9.12085e-10
4.76247e-07
-8.23491e-07
7.53136e-09
4.98277e-07
-8.69778e-07
-3.52884e-09
4.46063e-07
-7.60919e-07
-1.2911e-08
4.57335e-07
-7.80645e-07
5.06906e-07
-8.90273e-07
-3.26662e-13
1.45279e-08
-6.35472e-13
1.43752e-08
-2.50312e-12
1.49412e-08
-1.56356e-11
1.48788e-08
-8.55067e-11
1.59367e-08
1.52161e-08
-6.61366e-31
-1.07965e-23
8.2813e-26
-7.21975e-31
-1.08654e-23
8.32984e-26
-5.74172e-31
-1.112e-23
8.48636e-26
-3.82004e-31
-1.03604e-23
7.9829e-26
-1.35218e-31
-1.08343e-23
8.3364e-26
-1.09054e-23
8.30445e-26
-3.08157e-28
-4.23038e-21
3.42721e-23
-2.8812e-28
-4.25852e-21
3.449e-23
-1.41454e-28
-4.38598e-21
3.52979e-23
-8.25877e-30
-4.03248e-21
3.28868e-23
8.8945e-29
-4.22024e-21
3.43909e-23
-4.32064e-21
3.46166e-23
-5.00888e-26
-8.31381e-19
7.04451e-21
1.99339e-26
-8.36748e-19
7.09112e-21
1.10612e-25
-8.68801e-19
7.30326e-21
1.44279e-25
-7.85455e-19
6.71457e-21
1.27469e-25
-8.21551e-19
7.02718e-21
-8.62284e-19
7.19431e-21
2.03654e-23
-1.1442e-16
9.72029e-19
5.78531e-23
-1.15069e-16
9.78227e-19
8.74256e-23
-1.2044e-16
1.01567e-18
8.22487e-23
-1.0712e-16
9.18214e-19
6.07254e-23
-1.11773e-16
9.60403e-19
-1.20646e-16
1.00802e-18
9.84121e-21
-1.88506e-16
1.04147e-16
1.86124e-20
-1.89532e-16
1.04723e-16
2.36535e-20
-1.98042e-16
1.09606e-16
1.95871e-20
-1.76885e-16
9.74839e-17
1.32324e-20
-1.84245e-16
1.0172e-16
-1.98398e-16
1.09802e-16
1.67233e-18
-2.21827e-14
8.98295e-15
2.69336e-18
-2.22171e-14
9.02997e-15
3.05709e-18
-2.24928e-14
9.46213e-15
2.17506e-18
-2.16664e-14
8.39948e-15
1.28316e-18
-2.19878e-14
8.7553e-15
-2.25016e-14
9.5001e-15
2.31532e-16
-1.69454e-12
1.11263e-12
2.70712e-16
-1.7031e-12
1.11849e-12
3.22023e-16
-1.77094e-12
1.1599e-12
3.2995e-17
-1.59958e-12
1.05658e-12
-1.30821e-16
-1.65266e-12
1.08488e-12
-1.77755e-12
1.168e-12
3.01273e-14
-9.60817e-11
4.07269e-11
-3.42121e-15
-9.67666e-11
4.11811e-11
1.56852e-14
-9.97171e-11
4.13626e-11
-9.80283e-14
-9.15083e-11
4.01589e-11
-1.61157e-13
-9.28797e-11
3.91558e-11
-1.00743e-10
4.21852e-11
-3.54045e-12
-7.01946e-09
9.50045e-11
-7.98822e-12
-7.05992e-09
1.00294e-10
4.61228e-11
-7.47101e-09
9.80203e-11
-4.7917e-11
-6.43538e-09
9.85075e-11
-7.56829e-11
-6.79269e-09
9.16322e-11
-7.50529e-09
9.90152e-11
-4.90832e-09
-8.68524e-05
-1.38589e-05
-3.47176e-09
-8.73185e-05
-1.39147e-05
4.17172e-08
-9.20412e-05
-1.48454e-05
-1.8106e-08
-8.06808e-05
-1.26616e-05
-4.73798e-08
-8.36831e-05
-1.33507e-05
-9.32254e-05
-1.5009e-05
-1.67551e-07
-7.71902e-10
-0.0025145
3.8004e-08
-5.06792e-10
-0.00252135
1.99437e-06
-5.26852e-10
-0.00263095
-3.97336e-07
-4.87592e-10
-0.00237047
-2.66015e-06
-7.25248e-10
-0.00241041
-9.86169e-10
-0.00268905
2.72631e-12
3.19732e-08
4.68173e-12
5.20929e-09
5.63858e-12
5.75626e-09
4.89665e-12
5.5688e-09
-4.59092e-11
3.05409e-08
4.13622e-08
-4.76387e-31
-3.37407e-23
2.45927e-25
3.41968e-32
-3.38533e-23
2.47014e-25
5.60443e-31
-3.49911e-23
2.54882e-25
8.18647e-31
-3.20253e-23
2.33272e-25
8.40047e-31
-3.3338e-23
2.44279e-25
-3.48824e-23
2.52539e-25
3.01121e-28
-2.02105e-20
1.53962e-22
9.02987e-28
-2.02504e-20
1.54474e-22
1.47913e-27
-2.0946e-20
1.59665e-22
1.5439e-27
-1.92161e-20
1.46133e-22
1.27821e-27
-1.98777e-20
1.52124e-22
-2.10037e-20
1.59172e-22
6.50357e-25
-5.79478e-18
4.87283e-20
1.22025e-24
-5.79701e-18
4.88234e-20
1.63903e-24
-5.99041e-18
5.05004e-20
1.50237e-24
-5.5287e-18
4.63296e-20
1.06443e-24
-5.68124e-18
4.7925e-20
-6.03676e-18
5.06401e-20
4.61393e-22
-1.53351e-17
9.97218e-18
7.53801e-22
-1.48009e-17
9.97563e-18
8.92346e-22
-9.11618e-18
1.03084e-17
7.42732e-22
-2.77729e-17
9.51387e-18
4.81946e-22
-1.95499e-17
9.77645e-18
-9.18549e-18
1.03884e-17
8.18511e-20
-1.49763e-15
8.60775e-16
1.098e-19
-1.49648e-15
8.59987e-16
1.13936e-19
-1.5368e-15
8.90045e-16
7.5043e-20
-1.44198e-15
8.20354e-16
4.12844e-20
-1.47066e-15
8.41143e-16
-1.55028e-15
9.00336e-16
2.12142e-17
-3.0109e-13
1.98516e-13
1.44926e-17
-3.00613e-13
1.98323e-13
1.39947e-17
-3.10906e-13
2.05291e-13
-9.97933e-18
-2.87322e-13
1.89195e-13
-1.21475e-17
-2.94148e-13
1.93995e-13
-3.14882e-13
2.07753e-13
4.19174e-16
-5.1638e-11
3.64083e-11
-8.51601e-15
-5.15546e-11
3.63647e-11
-3.92562e-15
-5.31692e-11
3.75808e-11
-1.92863e-14
-4.94783e-11
3.47707e-11
-1.61049e-14
-5.05206e-11
3.55254e-11
-5.38514e-11
3.81211e-11
-1.19643e-12
-8.82477e-09
6.29619e-09
-5.80604e-12
-8.77756e-09
6.2593e-09
1.19752e-12
-9.09261e-09
6.47982e-09
-1.08127e-11
-8.41899e-09
6.01012e-09
-1.11595e-11
-8.64441e-09
6.174e-09
-9.15609e-09
6.50235e-09
-9.71245e-10
-1.04129e-06
7.31427e-07
-5.87943e-10
-1.04072e-06
7.30271e-07
6.52629e-09
-1.08204e-06
7.55013e-07
-4.10322e-09
-9.85531e-07
6.98331e-07
-7.56507e-09
-1.01481e-06
7.14896e-07
-1.0955e-06
7.63217e-07
-1.22584e-07
-8.53375e-05
4.69526e-05
6.0554e-08
-8.53759e-05
4.66874e-05
1.24399e-06
-8.90724e-05
4.77296e-05
-4.61449e-07
-8.02416e-05
4.56012e-05
-1.48011e-06
-8.26184e-05
4.62458e-05
-9.04168e-05
4.82131e-05
3.05408e-06
-0.0363915
-0.0015938
5.35323e-06
-0.0363123
-0.00159712
-1.14657e-05
-0.0369486
-0.00164367
1.76273e-05
-0.0355608
-0.00153078
4.11086e-05
-0.035579
-0.00154055
-0.0375858
-0.00166743
-2.53856e-05
-0.18532
3.44692e-05
-0.185196
-4.64915e-05
-0.18693
0.000108803
-0.182946
0.000175583
-0.181186
-0.190304
9.32107e-13
-1.56283e-08
-8.54629e-08
3.65074e-13
-1.56044e-08
-8.54405e-08
2.78203e-14
-1.56131e-08
-8.54539e-08
-3.9585e-13
-1.56116e-08
-8.54621e-08
-1.11222e-12
-1.55942e-08
-8.54513e-08
-1.56335e-08
-8.54845e-08
1.87207e-13
4.15734e-16
-2.34396e-08
6.22192e-14
4.55333e-16
-2.33902e-08
-4.46088e-15
4.67384e-16
-2.34074e-08
-6.90962e-14
4.56993e-16
-2.34047e-08
-2.03235e-13
4.54295e-16
-2.33709e-08
4.65186e-16
-2.34492e-08
-9.53531e-21
4.6825e-17
-3.65363e-21
5.12761e-17
-2.11831e-22
5.26383e-17
3.47423e-21
5.14682e-17
1.12227e-20
5.11629e-17
5.24013e-17
3.74809e-11
-4.8345e-07
-1.12674e-07
1.10057e-11
-4.83488e-07
-1.12745e-07
-5.34162e-12
-4.83338e-07
-1.12697e-07
-2.3779e-11
-4.83128e-07
-1.12676e-07
-5.00701e-11
-4.83023e-07
-1.12725e-07
-4.83081e-07
-1.12623e-07
9.34853e-12
2.13905e-15
-9.21065e-13
2.80978e-12
2.34269e-15
-8.43264e-13
-9.80854e-13
2.40484e-15
-8.5638e-13
-4.75327e-12
2.35135e-15
-8.27417e-13
-1.18271e-11
2.33747e-15
-7.94918e-13
2.3937e-15
-8.96958e-13
-4.84965e-20
7.40004e-16
-1.65249e-20
8.10366e-16
1.05831e-21
8.31864e-16
1.91606e-20
8.13363e-16
6.13589e-20
8.08549e-16
8.28042e-16
6.56216e-12
-1.62346e-11
-1.68026e-08
3.16234e-13
-1.49237e-11
-1.67964e-08
-3.90747e-12
-1.51342e-11
-1.67923e-08
-8.04469e-12
-1.46259e-11
-1.6783e-08
-1.26669e-11
-1.40937e-11
-1.67815e-08
-1.58029e-11
-1.67897e-08
1.04062e-17
1.22775e-14
-1.7168e-11
2.15215e-18
1.3447e-14
-1.57804e-11
-2.03944e-18
1.38033e-14
-1.60043e-11
-5.69015e-18
1.34962e-14
-1.54668e-11
-1.41341e-17
1.34168e-14
-1.49021e-11
1.37381e-14
-1.67136e-11
-3.18597e-19
8.6352e-16
-8.0437e-20
9.45612e-16
4.37615e-20
9.70681e-16
1.50079e-19
9.49024e-16
4.18271e-19
9.43399e-16
9.66135e-16
-1.11421e-15
-4.79342e-11
-1.78094e-08
-2.12034e-15
-4.44654e-11
-1.78093e-08
-3.0219e-15
-4.50192e-11
-1.78039e-08
-4.34254e-15
-4.36376e-11
-1.77961e-08
-5.53135e-15
-4.22075e-11
-1.77968e-08
-4.67592e-11
-1.77976e-08
1.60306e-15
6.28552e-15
-3.77688e-14
3.2468e-16
6.88461e-15
-3.7379e-14
-1.7511e-16
7.06684e-15
-3.7426e-14
-6.12507e-16
6.90918e-15
-3.73245e-14
-1.86538e-15
6.86851e-15
-3.72199e-14
7.03247e-15
-3.7623e-14
-1.97901e-19
1.22798e-17
-2.68642e-20
1.92169e-17
5.58318e-20
2.12289e-17
1.14589e-19
1.94596e-17
2.71457e-19
1.89916e-17
2.03476e-17
-7.15624e-13
-7.91597e-12
-6.19706e-09
-1.03512e-13
-7.88759e-12
-6.19036e-09
1.60416e-13
-7.88903e-12
-6.18448e-09
1.19122e-13
-7.88793e-12
-6.18472e-09
1.49876e-13
-7.88635e-12
-6.18608e-09
-7.90342e-12
-6.18937e-09
1.09163e-17
2.99824e-17
-7.95378e-12
3.41493e-18
4.69408e-17
-7.92501e-12
9.77222e-19
5.1852e-17
-7.92651e-12
-1.97073e-18
4.7531e-17
-7.9253e-12
-1.00745e-17
4.63916e-17
-7.92361e-12
4.96821e-17
-7.9411e-12
-1.53572e-21
-1.69817e-15
-2.40968e-22
-1.69445e-15
5.17675e-22
-1.69687e-15
1.1913e-21
-1.69563e-15
2.98896e-21
-1.6964e-15
-1.69501e-15
-7.73391e-13
1.29459e-10
6.60864e-09
-2.85083e-13
1.2876e-10
6.57587e-09
-8.10953e-15
1.28531e-10
6.60252e-09
2.43781e-13
1.28579e-10
6.59717e-09
4.30675e-13
1.2856e-10
6.59435e-09
1.29172e-10
6.58708e-09
4.75336e-16
-3.80933e-14
-2.20258e-11
8.93016e-17
-3.7999e-14
-2.19739e-11
2.32018e-17
-3.79852e-14
-2.19962e-11
-1.94637e-16
-3.79804e-14
-2.19887e-11
-6.24113e-16
-3.79943e-14
-2.19849e-11
-3.79949e-14
-2.19984e-11
2.43898e-20
-4.00715e-14
-5.93572e-21
-3.99727e-14
-2.04263e-20
-3.99618e-14
-4.59408e-20
-3.99556e-14
-5.99641e-20
-3.99704e-14
-3.99697e-14
-1.56162e-12
-1.67294e-09
-3.32277e-07
1.89962e-12
-1.67211e-09
-3.32052e-07
2.94907e-12
-1.67325e-09
-3.32149e-07
2.71812e-12
-1.67268e-09
-3.32054e-07
3.90554e-12
-1.67262e-09
-3.31979e-07
-1.67156e-09
-3.32077e-07
-1.23031e-15
4.17875e-11
-1.79161e-09
-1.79549e-14
4.15162e-11
-1.79034e-09
-9.67797e-15
4.1664e-11
-1.79173e-09
-5.3736e-15
4.16239e-11
-1.79108e-09
6.2438e-15
4.1598e-11
-1.79102e-09
4.16154e-11
-1.78993e-09
-3.48661e-17
-1.35396e-11
-9.54067e-17
-1.34028e-11
-5.97334e-17
-1.34891e-11
-9.23494e-17
-1.3467e-11
-1.30952e-17
-1.34548e-11
-1.34663e-11
2.14032e-09
8.51962e-07
1.11805e-06
5.65153e-10
8.52494e-07
1.116e-06
8.98564e-10
8.51732e-07
1.11777e-06
7.55177e-10
8.52194e-07
1.11682e-06
3.5409e-11
8.52253e-07
1.11783e-06
8.51582e-07
1.11427e-06
2.28339e-11
1.3811e-08
7.2082e-07
1.35755e-12
1.3648e-08
7.21851e-07
2.97205e-12
1.37742e-08
7.21542e-07
2.19384e-12
1.37716e-08
7.21254e-07
-6.45105e-12
1.3663e-08
7.21126e-07
1.38928e-08
7.2098e-07
-8.23688e-15
1.37974e-08
-1.051e-14
1.36347e-08
1.24887e-15
1.37607e-08
-1.01562e-14
1.37581e-08
-2.68163e-14
1.36498e-08
1.38793e-08
7.01103e-08
7.29523e-05
0.000804815
3.85129e-08
7.29327e-05
0.000804779
1.60404e-08
7.29415e-05
0.000804902
-8.44016e-10
7.29251e-05
0.000804658
9.43043e-08
7.28986e-05
0.000805027
7.29051e-05
0.000804063
-1.30776e-08
1.76711e-05
5.49786e-05
2.69241e-10
1.75874e-05
5.50207e-05
1.38042e-09
1.76598e-05
5.49672e-05
1.90048e-09
1.76612e-05
5.49502e-05
1.63166e-08
1.75839e-05
5.49872e-05
1.77389e-05
5.48691e-05
-1.02027e-09
1.31223e-05
-1.17097e-10
1.30406e-05
1.97435e-11
1.31104e-05
2.07873e-10
1.31121e-05
1.88176e-09
1.30325e-05
1.31939e-05
2.07087e-06
0.000199781
-0.00615606
-2.90682e-07
0.000186596
-0.00608353
-1.30137e-06
0.000191863
-0.00611184
1.37346e-07
0.000197436
-0.00610233
5.69168e-06
0.000185698
-0.00607871
0.000211555
-0.00612768
-4.0477e-07
0.000152443
1.25566e-05
-4.63835e-08
0.000137157
1.20076e-05
-2.88324e-08
0.000149925
1.21258e-05
4.10946e-09
0.00014982
1.20488e-05
4.11684e-07
0.00013663
1.14508e-05
0.000168693
1.27798e-05
-2.18848e-08
0.000136563
-1.78228e-09
0.000136251
-3.01571e-10
0.000140086
1.54835e-09
0.000133192
3.20845e-08
0.000130417
0.000137852
-5.9403e-05
-0.00256582
-0.211954
1.12056e-05
-0.00256767
-0.212048
-1.10826e-05
-0.00256702
-0.212011
-4.9082e-06
-0.00257301
-0.212061
0.000138021
-0.00257919
-0.212053
-0.00255967
-0.211957
-5.44096e-09
-0.000532827
-0.00169874
3.03287e-08
-0.000532928
-0.00170108
4.86689e-08
-0.000533137
-0.00170034
8.05757e-09
-0.00053367
-0.00170122
6.19064e-08
-0.000538367
-0.00170574
-0.000527832
-0.00169531
9.38308e-08
-7.16084e-17
4.13299e-07
-6.61746e-17
4.35527e-07
-6.88111e-17
2.20668e-07
-6.85635e-17
-8.57252e-07
-6.50504e-17
-7.47279e-17
-0.00035364
-0.0477038
0.120027
3.82328e-05
-0.047756
0.120192
0.000102421
-0.0477329
0.120179
1.55765e-05
-0.0477593
0.120016
-2.36148e-05
-0.0478313
0.119994
-0.0476435
0.120125
-1.02614e-06
7.16111e-17
-0.0494015
2.71086e-07
6.62628e-17
-0.0494584
5.22546e-07
6.8856e-17
-0.0494335
1.21571e-07
6.85861e-17
-0.0494602
-5.74224e-07
5.79122e-17
-0.0495364
7.47365e-17
-0.0493393
-4.28228e-26
1.5238e-22
-5.19567e-25
1.92546e-22
-3.81621e-26
2.07923e-22
-4.79223e-26
2.12977e-22
4.14407e-25
2.06055e-22
1.46688e-22
-0.000669043
-0.00149578
-0.645591
0.525886
-0.000353355
-0.00153362
-0.644383
0.523655
-0.000449899
-0.00153093
-0.645349
0.526095
-0.000464256
-0.00149194
-0.646238
0.523934
0.00227969
-0.00152788
-0.643919
0.517939
-0.00153254
-0.650141
0.535889
-4.43106e-07
-0.000481953
-0.000985067
0.000312987
-4.85973e-07
-0.000524922
-0.000985339
0.000317983
-4.37407e-07
-0.000529004
-0.000985308
0.000318429
-1.22522e-06
-0.000470036
-0.000985296
0.000312147
6.98209e-07
-0.000517526
-0.000989319
0.000312136
-0.000521514
-0.000984835
0.000322475
-3.98916e-07
6.97437e-23
0.00529267
-5.49066e-06
5.37169e-23
0.00508741
-1.13648e-05
9.46583e-23
0.0051239
-1.08366e-05
7.681e-23
0.0052072
2.85636e-06
4.75632e-23
0.00501879
6.20617e-23
0.00512935
-0.000107709
-0.00732326
-0.646028
-0.000232875
-0.00732909
-0.646224
-0.000874552
-0.00733799
-0.646035
-0.000181532
-0.00732385
-0.647603
0.0014655
-0.00733955
-0.64916
-0.00733907
-0.644676
-5.20176e-08
6.91648e-23
-0.00830828
4.32128e-08
5.3223e-23
-0.00831452
1.11768e-06
9.36553e-23
-0.00832437
1.47831e-06
7.66302e-23
-0.0083095
-9.44832e-07
4.75875e-23
-0.00832644
6.07698e-23
-0.00832485
-2.61824e-26
1.22871e-22
2.004e-26
1.87064e-23
-4.08781e-26
1.66993e-22
-4.74754e-26
1.44262e-22
5.90012e-27
2.1794e-23
1.881e-23
-5.52096e-05
-0.0617285
-0.670389
-0.000103208
-0.0618033
-0.670804
-0.000454218
-0.0618238
-0.670553
-0.000168378
-0.0618122
-0.670592
0.0010596
-0.0620275
-0.673348
-0.061668
-0.669297
-4.24975e-06
9.54005e-23
-0.0700325
-3.44656e-06
2.14531e-22
-0.0701187
-3.40094e-06
1.29359e-22
-0.0701482
1.50493e-06
1.12544e-22
-0.0701266
1.42665e-05
2.49895e-22
-0.0703667
2.28714e-22
-0.0699786
2.03972e-27
1.66511e-22
6.43166e-26
2.10286e-22
1.64092e-25
2.27349e-22
-8.75657e-26
2.31834e-22
-6.01512e-26
2.23036e-22
1.62075e-22
1.001e-05
-0.158123
-0.466815
3.24794e-06
-0.158087
-0.466841
-3.09532e-05
-0.158282
-0.466809
8.63438e-05
-0.157814
-0.466686
0.000523248
-0.155779
-0.466517
-0.157938
-0.466695
-3.74101e-05
1.75894e-22
-0.1646
-2.16246e-05
2.22449e-22
-0.16475
-4.51359e-05
2.40294e-22
-0.164724
8.2209e-06
2.45566e-22
-0.16476
0.000230333
2.37522e-22
-0.165064
1.70177e-22
-0.164453
4.39676e-26
1.69889e-22
6.54421e-26
2.14571e-22
2.40654e-25
2.31884e-22
6.56533e-26
2.36592e-22
-3.39449e-25
2.27802e-22
1.64904e-22
8.97259e-05
-0.0277798
-0.302944
1.70297e-05
-0.0276854
-0.302902
0.000113632
-0.0277875
-0.302941
-6.56812e-05
-0.0274721
-0.30286
-0.000628961
-0.0268644
-0.302914
-0.0283341
-0.302815
-8.15925e-05
2.99114e-22
-0.0776247
-2.07401e-05
3.78212e-22
-0.0777623
-6.76726e-05
4.08389e-22
-0.0776942
1.30713e-05
4.1756e-22
-0.0777201
0.000373523
4.03448e-22
-0.0777346
2.89031e-22
-0.0776561
1.17185e-25
5.26206e-23
3.42807e-26
6.64732e-23
8.30231e-26
7.18634e-23
-1.49445e-25
7.32103e-23
-8.89372e-25
7.04386e-23
5.10264e-23
5.31968e-06
-0.0467392
3.92708e-05
-0.046563
0.00013729
-0.046679
1.82163e-05
-0.0465481
-0.000477946
-0.0462494
-0.0469862
-5.98337e-05
6.42688e-22
-2.75669e-07
8.12842e-22
3.64049e-06
8.77462e-22
6.98814e-06
8.98128e-22
5.48963e-05
8.68091e-22
6.20079e-22
2.03513e-25
6.20714e-26
1.90125e-25
7.17539e-26
-4.65457e-25
3.19294e-29
2.02726e-23
-1.21027e-21
7.24914e-29
2.02919e-23
-1.21097e-21
8.88933e-29
2.03662e-23
-1.21446e-21
8.60469e-29
2.00266e-23
-1.19698e-21
6.3104e-29
1.97394e-23
-1.17652e-21
2.08127e-23
-1.24366e-21
1.36879e-30
9.92585e-25
-4.26954e-23
2.30195e-30
9.93751e-25
-4.27333e-23
2.61766e-30
9.97739e-25
-4.28882e-23
2.32969e-30
9.80091e-25
-4.21885e-23
1.44553e-30
9.68255e-25
-4.16075e-23
1.01768e-24
-4.38122e-23
1.41394e-32
-4.08163e-25
1.87179e-32