/*--------------------------------*- C++ -*----------------------------------*\
| =========                 |                                                 |
| \\      /  F ield         | OpenFOAM: The Open Source CFD Toolbox           |
|  \\    /   O peration     | Version:  v1612+                                |
|   \\  /    A nd           | Web:      www.OpenFOAM.com                      |
|    \\/     M anipulation  |                                                 |
\*---------------------------------------------------------------------------*/
FoamFile
{
    version     2.0;
    format      ascii;
    class       surfaceScalarField;
    location    "0.8";
    object      alphaPhi;
}
// * * * * * * * * * * * * * * * * * * * * * * * * * * * * * * * * * * * * * //

dimensions      [0 3 -1 0 0 0 0];

internalField   nonuniform List<scalar> 
2916
(
2.62951e-08
0.130192
-0.130192
-3.10447e-07
0.130192
-0.130192
-5.14989e-07
0.130192
-0.130192
-5.1039e-07
0.130192
-0.130192
-2.65547e-07
0.130192
-0.130192
0.130192
-0.130192
4.5072e-07
0.343902
-0.21371
9.41036e-07
0.343903
-0.213711
1.29432e-06
0.343903
-0.213711
1.33538e-06
0.343902
-0.21371
9.83759e-07
0.343902
-0.213709
0.343901
-0.213708
8.33672e-07
0.717229
-0.373329
1.6199e-06
0.717231
-0.373329
2.05574e-06
0.71723
-0.373328
1.96217e-06
0.71723
-0.373327
1.24824e-06
0.717229
-0.373326
0.717228
-0.373325
4.00583e-07
1.44329
-0.726059
6.7257e-07
1.44329
-0.72606
1.04867e-06
1.44329
-0.72606
1.32052e-06
1.44329
-0.72606
9.44678e-07
1.44329
-0.72606
1.44329
-0.726059
1.04275e-06
0.26893
-0.460651
-9.91124e-07
0.268929
-0.460647
-3.16022e-06
0.268929
-0.460647
-4.74424e-06
0.268929
-0.460647
-4.93159e-06
0.26893
-0.460649
0.268927
-0.460649
-1.27277e-07
0.000936222
0.0239888
-9.3509e-08
0.000936235
0.0239895
-2.99084e-07
0.000936264
0.0239895
-2.90938e-07
0.000936264
0.0239894
-4.59825e-07
0.000936246
0.0239897
0.000936211
0.0239892
3.28967e-08
1.07206e-05
0.000732915
1.76217e-08
1.07187e-05
0.000732991
1.50275e-08
1.07184e-05
0.000733012
2.87221e-08
1.07179e-05
0.000733001
1.54564e-08
1.07176e-05
0.000733021
1.07171e-05
0.000733001
1.48022e-09
6.84374e-08
9.03321e-06
1.44973e-09
6.84191e-08
9.03319e-06
1.42725e-09
6.84052e-08
9.03301e-06
1.11492e-09
6.8401e-08
9.03301e-06
5.08435e-10
6.84013e-08
9.03318e-06
6.84058e-08
9.03269e-06
1.40524e-11
2.79445e-10
4.20008e-08
2.09128e-11
2.79418e-10
4.19918e-08
2.08289e-11
2.7937e-10
4.19865e-08
1.54866e-11
2.79374e-10
4.19868e-08
7.02129e-12
2.7939e-10
4.19885e-08
2.79411e-10
4.199e-08
1.3644e-13
5.75119e-13
1.5849e-10
2.35273e-13
5.75359e-13
1.58476e-10
2.6238e-13
5.75367e-13
1.58496e-10
2.31438e-13
5.75333e-13
1.58547e-10
1.43761e-13
5.75268e-13
1.58607e-10
5.75196e-13
1.58674e-10
4.03461e-16
4.29939e-15
2.51383e-13
6.25365e-16
4.30459e-15
2.51588e-13
6.9528e-16
4.30609e-15
2.51716e-13
6.20434e-16
4.3061e-15
2.5184e-13
3.92664e-16
4.30552e-15
2.51959e-13
4.30512e-15
2.52084e-13
6.94898e-19
3.79716e-16
1.29106e-18
3.80248e-16
1.65086e-18
3.80398e-16
1.57149e-18
3.80439e-16
9.96182e-19
3.80441e-16
3.8045e-16
-6.55034e-07
0.052354
-0.182545
-1.48773e-06
0.0523542
-0.182545
-1.91935e-06
0.0523536
-0.182545
-1.6492e-06
0.0523527
-0.182545
-7.42359e-07
0.0523518
-0.182545
0.0523516
-0.182545
1.13252e-07
0.168703
-0.33006
1.5474e-07
0.168703
-0.33006
2.53558e-07
0.168702
-0.33006
2.20094e-07
0.168701
-0.330059
1.14176e-07
0.1687
-0.330057
0.168699
-0.330056
6.84921e-07
0.403195
-0.607821
1.81982e-06
0.403195
-0.607822
2.6601e-06
0.403193
-0.60782
2.53568e-06
0.403192
-0.607818
1.29424e-06
0.403191
-0.607816
0.403189
-0.607814
9.25805e-07
0.838574
-1.16144
1.64044e-06
0.838574
-1.16144
2.30518e-06
0.838572
-1.16144
2.0273e-06
0.83857
-1.16144
3.64904e-07
0.838569
-1.16144
0.838566
-1.16144
-8.58162e-07
-0.0216967
-0.117302
-5.36355e-07
-0.0216975
-0.117301
-8.1065e-07
-0.0216976
-0.117301
-1.2732e-06
-0.0216974
-0.1173
-2.58189e-06
-0.021698
-0.1173
-0.0216972
-0.1173
-1.14525e-07
-0.000688908
0.00297451
-2.42499e-07
-0.000688979
0.00297453
-4.17103e-07
-0.000688985
0.00297449
-4.45829e-07
-0.000688992
0.00297441
-4.84866e-07
-0.000689037
0.00297427
-0.00068905
0.00297411
-2.2507e-09
-8.95477e-06
4.72431e-05
-6.46307e-09
-8.9548e-06
4.72537e-05
6.15133e-09
-8.95473e-06
4.7252e-05
1.34818e-08
-8.95496e-06
4.72404e-05
1.4283e-08
-8.95537e-06
4.72221e-05
-8.95499e-06
4.72035e-05
1.9277e-10
-4.89056e-08
4.12247e-07
2.79995e-10
-4.88964e-08
4.12267e-07
3.03986e-10
-4.88914e-08
4.12248e-07
2.33831e-10
-4.88929e-08
4.12192e-07
1.03014e-10
-4.8896e-08
4.12135e-07
-4.88984e-08
4.1204e-07
1.55688e-12
-1.56682e-10
7.95178e-10
1.82609e-12
-1.56674e-10
7.95465e-10
9.98653e-13
-1.56693e-10
7.95245e-10
4.26205e-14
-1.5674e-10
7.94649e-10
-4.44643e-13
-1.56797e-10
7.93907e-10
-1.56857e-10
7.93071e-10
1.63882e-15
-2.49436e-13
6.16903e-13
-1.74872e-15
-2.49634e-13
6.16647e-13
-4.9539e-15
-2.49758e-13
6.16834e-13
-6.20223e-15
-2.49877e-13
6.17152e-13
-5.25564e-15
-2.4999e-13
6.1752e-13
-2.50106e-13
6.18048e-13
-7.45352e-18
1.59412e-17
5.05479e-16
-1.00593e-17
1.59818e-17
5.05925e-16
-1.0219e-17
1.5993e-17
5.06358e-16
-8.97506e-18
1.59919e-17
5.06738e-16
-5.98784e-18
1.59855e-17
5.07095e-16
1.59781e-17
5.07551e-16
-1.09942e-20
4.28025e-17
-3.34802e-21
4.28685e-17
5.81711e-21
4.28936e-17
1.07879e-20
4.29017e-17
9.37319e-21
4.29024e-17
4.29054e-17
-1.16898e-06
-0.0813912
-0.101153
-1.98335e-06
-0.0813919
-0.101153
-2.25043e-06
-0.0813929
-0.101152
-1.77653e-06
-0.081394
-0.101152
-8.13379e-07
-0.0813946
-0.101151
-0.0813943
-0.101151
-4.04603e-07
-0.11876
-0.29269
-4.88725e-07
-0.118762
-0.292691
-3.85753e-07
-0.118763
-0.29269
-1.78878e-07
-0.118765
-0.292688
-2.75608e-07
-0.118765
-0.292686
-0.118765
-0.292686
1.50659e-06
-0.011489
-0.715094
2.3847e-06
-0.011489
-0.715095
2.56965e-06
-0.0114902
-0.715093
2.24851e-06
-0.0114914
-0.715091
1.49687e-06
-0.0114919
-0.715089
-0.0114917
-0.715086
1.14676e-06
0.206418
-1.42421
1.01454e-06
0.206418
-1.4242
9.391e-07
0.206416
-1.4242
7.93291e-07
0.206414
-1.4242
5.32557e-07
0.206413
-1.4242
0.206414
-1.4242
3.33649e-07
-0.00302388
-1.18242e-06
3.30417e-07
-0.00302389
-1.18255e-06
2.30668e-07
-0.00302384
-1.18253e-06
1.46748e-07
-0.00302377
-1.18253e-06
-1.22765e-07
-0.00302363
-1.18255e-06
-0.00302347
-1.18236e-06
-1.07785e-08
-6.32153e-05
1.17849e-05
-1.38895e-08
-6.32152e-05
1.17866e-05
-8.48977e-09
-6.32143e-05
1.17865e-05
-9.94165e-09
-6.32142e-05
1.17863e-05
-1.01965e-08
-6.32166e-05
1.17862e-05
-6.32152e-05
1.17833e-05
-2.31575e-10
-4.08006e-07
-9.8993e-08
1.07566e-10
-4.08025e-07
-9.89632e-08
5.79515e-10
-4.0801e-07
-9.90022e-08
7.73642e-10
-4.07954e-07
-9.91452e-08
6.52536e-10
-4.07896e-07
-9.93593e-08
-4.07798e-07
-9.94769e-08
1.54454e-13
-1.15662e-09
4.61839e-09
2.83872e-12
-1.15685e-09
4.61846e-09
3.16479e-12
-1.15655e-09
4.6184e-09
2.46273e-12
-1.1559e-09
4.61858e-09
1.60244e-12
-1.15516e-09
4.61908e-09
-1.15426e-09
4.61885e-09
7.50219e-15
-3.43926e-13
1.13089e-11
3.29992e-15
-3.43995e-13
1.13083e-11
-3.45076e-15
-3.43485e-13
1.13077e-11
-7.19027e-15
-3.42903e-13
1.13075e-11
-6.39236e-15
-3.42303e-13
1.13078e-11
-3.4152e-13
1.13074e-11
-1.35918e-17
5.95691e-19
1.07691e-15
-4.30353e-17
6.28887e-19
1.07681e-15
-6.09184e-17
6.42158e-19
1.07719e-15
-6.19757e-17
6.43571e-19
1.07772e-15
-4.3244e-17
6.39204e-19
1.07827e-15
6.37766e-19
1.07892e-15
-9.1452e-20
1.86595e-18
1.3417e-16
-1.36204e-19
1.88551e-18
1.34295e-16
-1.4656e-19
1.88232e-18
1.34408e-16
-1.28549e-19
1.87051e-18
1.34505e-16
-8.13655e-20
1.8534e-18
1.3459e-16
1.83292e-18
1.34688e-16
-4.28644e-23
2.6628e-19
-2.07057e-24
2.66808e-19
4.43371e-23
2.66997e-19
7.02873e-23
2.6704e-19
5.97752e-23
2.67004e-19
2.66977e-19
-4.7614e-07
-0.250644
0.149492
-4.69669e-07
-0.250645
0.149492
-2.92473e-07
-0.250645
0.149493
1.47027e-07
-0.250645
0.149493
2.667e-07
-0.250645
0.149493
-0.250644
0.149493
1.69675e-07
-0.498877
-0.0444568
-1.29882e-07
-0.498878
-0.0444565
-3.71786e-07
-0.498879
-0.0444557
-1.28037e-07
-0.498879
-0.0444546
6.63175e-08
-0.498878
-0.0444534
-0.498876
-0.0444534
8.35674e-07
-0.429749
-0.784185
-6.71566e-07
-0.429746
-0.784187
-2.15309e-06
-0.429746
-0.784187
-2.80282e-06
-0.429746
-0.784185
-1.5945e-06
-0.429746
-0.784185
-0.429743
-0.784182
7.57985e-07
-1.02595e-05
-1.25656
1.02996e-06
-1.02608e-05
-1.25656
2.49528e-06
-1.02608e-05
-1.25656
3.14639e-06
-1.02606e-05
-1.25656
1.69285e-06
-1.02606e-05
-1.25656
-1.02583e-05
-1.25656
2.25318e-12
-1.14514e-05
-6.67033e-10
5.61434e-12
-1.14529e-05
-6.66992e-10
9.24368e-12
-1.14528e-05
-6.66964e-10
1.13375e-11
-1.14527e-05
-6.67041e-10
8.36396e-12
-1.14527e-05
-6.67167e-10
-1.14502e-05
-6.67237e-10
-4.48016e-11
-4.25014e-08
2.06981e-07
1.14451e-11
-4.24779e-08
2.07022e-07
9.93745e-11
-4.24663e-08
2.07011e-07
1.59407e-10
-4.24861e-08
2.07014e-07
1.92834e-10
-4.2534e-08
2.07024e-07
-4.25815e-08
2.06962e-07
-2.61733e-12
-4.58242e-09
2.15151e-09
6.89511e-13
-4.58249e-09
2.15152e-09
-3.28992e-13
-4.58244e-09
2.15127e-09
-1.73731e-12
-4.58262e-09
2.15159e-09
-1.03892e-12
-4.58312e-09
2.15232e-09
-4.5829e-09
2.1524e-09
5.9386e-15
-1.13029e-11
4.88823e-11
1.18371e-14
-1.13024e-11
4.88756e-11
1.07897e-14
-1.13017e-11
4.88774e-11
1.06476e-14
-1.13015e-11
4.88855e-11
1.02696e-14
-1.13018e-11
4.88967e-11
-1.13015e-11
4.88955e-11
-5.54741e-18
-4.79361e-16
6.5388e-15
-2.24583e-17
-4.79228e-16
6.53807e-15
-1.95642e-17
-4.79153e-16
6.53876e-15
-6.15061e-18
-4.79155e-16
6.54021e-15
6.58329e-18
-4.79188e-16
6.54198e-15
-4.79207e-16
6.54214e-15
-8.26155e-20
-2.87258e-19
2.54954e-16
-1.59981e-19
-2.87369e-19
2.54977e-16
-1.84469e-19
-2.87591e-19
2.55013e-16
-1.6174e-19
-2.87851e-19
2.55065e-16
-9.49266e-20
-2.88121e-19
2.55114e-16
-2.88407e-19
2.55155e-16
-3.76147e-22
-1.4941e-22
8.03688e-19
-6.39493e-22
-1.49684e-22
8.04315e-19
-7.25616e-22
-1.49926e-22
8.05049e-19
-6.45743e-22
-1.50126e-22
8.05767e-19
-4.06284e-22
-1.50303e-22
8.06407e-19
-1.50496e-22
8.07087e-19
1.14092e-26
1.1685e-21
1.20805e-25
1.17077e-21
2.0926e-25
1.17177e-21
2.37309e-25
1.17217e-21
1.71293e-25
1.17226e-21
1.17243e-21
-1.45859e-131
-1.27411e-123
8.48731e-130
-3.98184e-132
-1.26969e-123
8.47388e-130
-4.35943e-133
-1.26771e-123
8.47272e-130
1.59037e-132
-1.26693e-123
8.46835e-130
2.19362e-132
-1.26459e-123
8.45837e-130
-1.26121e-123
8.45042e-130
-2.01463e-125
-1.94527e-117
1.34929e-123
-4.88146e-126
-1.94035e-117
1.34825e-123
1.42625e-126
-1.93931e-117
1.34857e-123
5.49374e-126
-1.93829e-117
1.34815e-123
8.72124e-126
-1.93596e-117
1.34743e-123
-1.9338e-117
1.34788e-123
-1.63225e-119
-1.46711e-111
1.09038e-117
-3.11366e-120
-1.46324e-111
1.08948e-117
2.2037e-120
-1.46245e-111
1.08955e-117
5.67105e-120
-1.46174e-111
1.08936e-117
8.12149e-120
-1.4602e-111
1.08899e-117
-1.45861e-111
1.08946e-117
-8.84725e-114
-7.16637e-106
5.7917e-112
-1.46778e-114
-7.14687e-106
5.78654e-112
1.56332e-114
-7.14246e-106
5.78583e-112
3.42605e-114
-7.13912e-106
5.78568e-112
4.67493e-114
-7.13218e-106
5.78439e-112
-7.12438e-106
5.78742e-112
-3.38242e-108
-2.53066e-100
2.20849e-106
-4.56518e-109
-2.52375e-100
2.20521e-106
7.52196e-109
-2.52199e-100
2.20467e-106
1.48713e-108
-2.52091e-100
2.20465e-106
1.92896e-108
-2.51861e-100
2.20438e-106
-2.51584e-100
2.20525e-106
-9.02223e-103
-6.87747e-95
6.19454e-101
-4.41972e-104
-6.85928e-95
6.18217e-101
3.08332e-103
-6.85439e-95
6.18097e-101
5.12366e-103
-6.85201e-95
6.18222e-101
6.24699e-103
-6.84638e-95
6.18336e-101
-6.83895e-95
6.18791e-101
-1.76151e-97
-1.50945e-89
1.28648e-95
9.59661e-99
-1.50584e-89
1.28374e-95
8.4825e-98
-1.50488e-89
1.28387e-95
1.28212e-97
-1.50455e-89
1.28466e-95
1.50084e-97
-1.50345e-89
1.28553e-95
-1.50187e-89
1.28699e-95
-2.78052e-92
-2.80142e-84
1.9532e-90
5.44672e-93
-2.79602e-84
1.9506e-90
1.89853e-92
-2.7946e-84
1.95194e-90
2.66067e-92
-2.79427e-84
1.95352e-90
2.95208e-92
-2.79234e-84
1.95484e-90
-2.78938e-84
1.95684e-90
-2.83878e-87
-4.6143e-79
1.70785e-85
1.83457e-87
-4.60688e-79
1.70642e-85
3.75799e-87
-4.60537e-79
1.70899e-85
4.75411e-87
-4.60524e-79
1.71148e-85
4.94391e-87
-4.6023e-79
1.71434e-85
-4.59743e-79
1.71885e-85
-2.54727e-82
-6.45065e-74
-7.16759e-75
3.51834e-82
-6.44114e-74
-7.16717e-75
6.09245e-82
-6.44197e-74
-7.1483e-75
7.43338e-82
-6.4437e-74
-7.13394e-75
7.27923e-82
-6.44266e-74
-7.10267e-75
-6.43998e-74
-7.05688e-75
-8.33963e-78
-5.36213e-69
-5.10246e-69
5.89145e-77
-5.35873e-69
-5.09315e-69
8.48511e-77
-5.36187e-69
-5.09249e-69
9.19982e-77
-5.36486e-69
-5.09213e-69
8.1655e-77
-5.36592e-69
-5.08967e-69
-5.36678e-69
-5.08558e-69
-9.77966e-73
-1.20663e-63
4.04511e-72
-1.20629e-63
5.96232e-72
-1.20697e-63
6.28727e-72
-1.2075e-63
5.35637e-72
-1.20769e-63
-1.20797e-63
-7.14563e-126
-8.44133e-118
1.10587e-123
-1.67504e-126
-8.42306e-118
1.10394e-123
6.64847e-127
-8.42111e-118
1.10396e-123
2.19957e-126
-8.41824e-118
1.10363e-123
3.49265e-126
-8.4083e-118
1.10246e-123
-8.39844e-118
1.10121e-123
-9.65114e-120
-1.32866e-111
1.81679e-117
-1.00096e-120
-1.32674e-111
1.81477e-117
2.70449e-120
-1.32698e-111
1.81533e-117
5.57799e-120
-1.32673e-111
1.81506e-117
9.00462e-120
-1.32602e-111
1.81426e-117
-1.32612e-111
1.81432e-117
-8.04698e-114
-1.02753e-105
1.51709e-111
-3.98437e-115
-1.02593e-105
1.51527e-111
2.89197e-114
-1.02609e-105
1.51555e-111
5.40796e-114
-1.02595e-105
1.51545e-111
8.23953e-114
-1.02558e-105
1.51503e-111
-1.02572e-105
1.51518e-111
-4.39451e-108
-5.11132e-100
8.32321e-106
8.16549e-110
-5.10314e-100
8.31181e-106
1.88107e-108
-5.1034e-100
8.31277e-106
3.3009e-108
-5.10308e-100
8.31257e-106
4.81129e-108
-5.1017e-100
8.3109e-106
-5.10263e-100
8.31211e-106
-1.5765e-102
-1.817e-94
3.27719e-100
2.05534e-103
-1.81415e-94
3.27217e-100
9.12352e-103
-1.81417e-94
3.27252e-100
1.45614e-102
-1.81419e-94
3.27266e-100
2.03096e-102
-1.81389e-94
3.27241e-100
-1.8143e-94
3.27321e-100
-3.81695e-97
-4.87601e-89
9.6524e-95
1.17684e-97
-4.86886e-89
9.63753e-95
3.1864e-97
-4.869e-89
9.63899e-95
4.6829e-97
-4.86951e-89
9.6409e-95
6.23803e-97
-4.86921e-89
9.64181e-95
-4.87047e-89
9.64565e-95
-6.84245e-92
-1.018e-83
2.17924e-89
3.57919e-92
-1.0167e-83
2.17622e-89
8.01675e-92
-1.01678e-83
2.1768e-89
1.13165e-91
-1.01701e-83
2.17755e-89
1.44537e-91
-1.01705e-83
2.17804e-89
-1.01736e-83
2.1791e-89
-6.96531e-87
-1.67789e-78
3.55501e-84
8.00433e-87
-1.67588e-78
3.549e-84
1.36868e-86
-1.6761e-78
3.55007e-84
1.82371e-86
-1.67671e-78
3.55193e-84
2.276e-86
-1.67703e-78
3.55378e-84
-1.6778e-78
3.55694e-84
-5.37142e-82
-2.24131e-73
3.18143e-79
1.21053e-81
-2.23906e-73
3.17479e-79
1.93382e-81
-2.23957e-73
3.17593e-79
2.45738e-81
-2.2405e-73
3.17809e-79
2.88044e-81
-2.24104e-73
3.18079e-79
-2.24206e-73
3.18517e-79
-1.27843e-77
-2.49499e-68
-1.28907e-69
1.2423e-76
-2.49319e-68
-1.28626e-69
1.65128e-76
-2.494e-68
-1.28602e-69
1.82368e-76
-2.49493e-68
-1.28686e-69
2.01826e-76
-2.49529e-68
-1.28833e-69
-2.49604e-68
-1.29183e-69
-7.20728e-72
-1.73291e-63
-1.26368e-63
1.09536e-71
-1.7323e-63
-1.2629e-63
1.50807e-71
-1.73311e-63
-1.26311e-63
1.60222e-71
-1.73388e-63
-1.26337e-63
1.62245e-71
-1.73426e-63
-1.26345e-63
-1.73494e-63
-1.26386e-63
-1.67665e-66
-2.75834e-58
-3.02328e-67
-2.75885e-58
2.98165e-67
-2.7605e-58
5.65361e-67
-2.76171e-58
9.11225e-67
-2.76244e-58
-2.764e-58
-2.4491e-121
-3.89092e-113
7.35203e-119
-2.85767e-122
-3.8821e-113
7.33736e-119
6.20078e-122
-3.88191e-113
7.33757e-119
1.26145e-121
-3.88046e-113
7.33457e-119
1.76729e-121
-3.87674e-113
7.32756e-119
-3.87467e-113
7.32333e-119
-3.41384e-115
-6.60759e-107
1.30904e-112
3.15965e-116
-6.59673e-107
1.30719e-112
1.91824e-115
-6.5977e-107
1.30737e-112
3.17593e-115
-6.59662e-107
1.30713e-112
4.60199e-115
-6.59476e-107
1.30672e-112
-6.59904e-107
1.30741e-112
-3.06552e-109
-5.47629e-101
1.18259e-106
5.96523e-110
-5.46719e-101
1.18085e-106
2.05796e-109
-5.46755e-101
1.18095e-106
3.23098e-109
-5.46736e-101
1.18086e-106
4.47451e-109
-5.46704e-101
1.18073e-106
-5.47134e-101
1.18152e-106
-1.7395e-103
-2.88941e-95
6.97917e-101
4.76582e-104
-2.88459e-95
6.96829e-101
1.36562e-103
-2.88471e-95
6.96879e-101
2.06531e-103
-2.88489e-95
6.96882e-101
2.75987e-103
-2.88512e-95
6.96894e-101
-2.88772e-95
6.97453e-101
-6.32719e-98
-1.07434e-89
2.9166e-95
2.63078e-98
-1.0726e-89
2.91197e-95
6.32946e-98
-1.07266e-89
2.91223e-95
9.11369e-98
-1.07283e-89
2.91256e-95
1.18681e-97
-1.07305e-89
2.91305e-95
-1.07412e-89
2.91584e-95
-1.4825e-92
-2.97505e-84
8.81735e-90
1.05426e-92
-2.97063e-84
8.8041e-90
2.08769e-92
-2.97093e-84
8.80541e-90
2.86887e-92
-2.9717e-84
8.80765e-90
3.64175e-92
-2.97264e-84
8.81053e-90
-2.97578e-84
8.82021e-90
-2.39746e-87
-6.45036e-79
1.96255e-84
2.85169e-87
-6.4423e-79
1.95989e-84
4.99597e-87
-6.44335e-79
1.96034e-84
6.61675e-87
-6.44563e-79
1.96111e-84
8.19098e-87
-6.44809e-79
1.962e-84
-6.45492e-79
1.96429e-84
-1.49634e-82
-1.16404e-73
3.31516e-79
6.15762e-82
-1.16286e-73
3.31122e-79
8.96325e-82
-1.16313e-73
3.31198e-79
1.11244e-81
-1.16359e-73
3.3131e-79
1.34411e-81
-1.16403e-73
3.31428e-79
-1.16514e-73
3.31751e-79
-4.41804e-79
-1.84423e-68
3.93053e-74
1.01716e-76
-1.84274e-68
3.92573e-74
1.37397e-76
-1.84326e-68
3.92623e-74
1.6151e-76
-1.84397e-68
3.92703e-74
1.797e-76
-1.84454e-68
3.92813e-74
-1.84602e-68
3.9319e-74
-2.24569e-72
-2.60717e-63
1.03519e-70
1.46272e-71
-2.60552e-63
1.04416e-70
2.03093e-71
-2.60629e-63
1.04648e-70
2.28727e-71
-2.6072e-63
1.0478e-70
2.29154e-71
-2.60792e-63
1.05743e-70
-2.60978e-63
1.08973e-70
-2.16991e-66
-1.86464e-58
-1.54377e-58
8.77771e-67
-1.8638e-58
-1.54403e-58
1.6042e-66
-1.86469e-58
-1.54426e-58
1.6901e-66
-1.86552e-58
-1.54445e-58
1.71354e-66
-1.86613e-58
-1.54457e-58
-1.86755e-58
-1.54531e-58
-2.9979e-61
-2.6262e-53
-9.57926e-62
-2.62741e-53
-8.85274e-63
-2.6292e-53
5.3599e-62
-2.63048e-53
1.35215e-61
-2.63138e-53
-2.63335e-53
-1.22021e-115
-2.734e-107
6.52367e-113
-1.82298e-117
-2.73131e-107
6.51879e-113
5.21795e-116
-2.73247e-107
6.52153e-113
8.90397e-116
-2.73163e-107
6.51918e-113
1.1646e-115
-2.72954e-107
6.51399e-113
-2.72883e-107
6.5119e-113
-1.84521e-109
-5.30712e-101
1.33641e-106
6.794e-110
-5.30503e-101
1.33612e-106
1.68349e-109
-5.30709e-101
1.33664e-106
2.48404e-109
-5.30703e-101
1.33655e-106
3.36469e-109
-5.30648e-101
1.33631e-106
-5.3108e-101
1.33725e-106
-1.86038e-103
-4.97631e-95
1.38482e-100
8.47405e-104
-4.9742e-95
1.38444e-100
1.94279e-103
-4.97604e-95
1.38497e-100
2.80127e-103
-4.97669e-95
1.38506e-100
3.66856e-103
-4.97732e-95
1.38512e-100
-4.98214e-95
1.3863e-100
-1.1383e-97
-2.9178e-89
9.30347e-95
6.50044e-98
-2.91654e-89
9.30057e-95
1.39424e-97
-2.9177e-89
9.30436e-95
1.95532e-97
-2.9184e-89
9.30591e-95
2.4953e-97
-2.91921e-89
9.30768e-95
-2.92241e-89
9.31693e-95
-4.28661e-92
-1.16906e-83
4.38145e-89
3.43544e-92
-1.16864e-83
4.38021e-89
6.61111e-92
-1.16915e-83
4.38217e-89
8.9822e-92
-1.16955e-83
4.38339e-89
1.13308e-91
-1.17002e-83
4.38484e-89
-1.17141e-83
4.38977e-89
-9.40922e-87
-3.29369e-78
1.47398e-83
1.21259e-86
-3.29304e-78
1.47375e-83
2.06855e-86
-3.29465e-78
1.47449e-83
2.72828e-86
-3.29608e-78
1.47505e-83
3.40962e-86
-3.29769e-78
1.47568e-83
-3.30176e-78
1.47742e-83
-1.0694e-81
-6.47504e-73
3.41665e-78
2.79938e-81
-6.47508e-73
3.41652e-78
4.2878e-81
-6.47858e-73
3.41839e-78
5.49304e-81
-6.48181e-73
3.4199e-78
6.73263e-81
-6.48519e-73
3.42152e-78
-6.49302e-73
3.42552e-78
-3.80591e-77
-8.80209e-68
5.24182e-73
4.00703e-76
-8.80322e-68
5.24146e-73
5.72106e-76
-8.80837e-68
5.24447e-73
7.01805e-76
-8.81294e-68
5.24699e-73
8.2687e-76
-8.81752e-68
5.24973e-73
-8.82753e-68
5.25608e-73
-3.6182e-72
-8.37183e-63
4.49151e-68
3.54246e-71
-8.37353e-63
4.49175e-68
4.73341e-71
-8.37826e-63
4.49385e-68
5.3134e-71
-8.38218e-63
4.49545e-68
5.69171e-71
-8.38585e-63
4.49721e-68
-8.39423e-63
4.50195e-68
-3.16808e-66
-6.06126e-58
1.74171e-63
7.73827e-67
-6.06291e-58
1.74238e-63
1.54365e-66
-6.06619e-58
1.74331e-63
1.68167e-66
-6.06871e-58
1.74403e-63
2.03387e-66
-6.07091e-58
1.74484e-63
-6.07642e-58
1.74694e-63
-4.85769e-61
-2.47462e-53
-1.15155e-53
-8.70732e-62
-2.47559e-53
-1.15248e-53
6.16901e-64
-2.47706e-53
-1.15324e-53
1.81663e-62
-2.47819e-53
-1.15365e-53
7.61734e-62
-2.47924e-53
-1.15381e-53
-2.48184e-53
-1.15435e-53
-1.89615e-56
-1.50749e-48
-9.62621e-58
-1.50896e-48
7.02901e-57
-1.51028e-48
1.49871e-56
-1.51121e-48
2.45158e-56
-1.51187e-48
-1.51314e-48
1.29111e-06
0.701218
-0.551727
8.76734e-07
0.70122
-0.551727
3.80802e-07
0.701221
-0.551727
4.64665e-07
0.701221
-0.551728
7.43244e-07
0.701221
-0.551728
0.70122
-0.551726
4.98953e-06
1.28175
-0.580513
3.00555e-06
1.28175
-0.580507
1.93013e-06
1.28175
-0.580507
1.33247e-06
1.28175
-0.580507
1.19686e-06
1.28175
-0.580507
1.28175
-0.580505
8.92363e-06
-1.08742
6.26186e-06
-1.08741
4.07011e-06
-1.08741
3.69302e-06
-1.08741
4.27231e-06
-1.08741
-1.0874
2.1548e-06
0.419244
-1.0154
6.63337e-07
0.419244
-1.0154
-3.29984e-07
0.419244
-1.0154
-5.35214e-07
0.419244
-1.0154
3.07457e-07
0.419244
-1.0154
0.419243
-1.0154
9.74612e-07
1.60952
-1.77021
8.73771e-07
1.60952
-1.77021
5.76634e-07
1.60952
-1.77021
5.13135e-07
1.60952
-1.77021
1.10201e-06
1.60952
-1.77021
1.60952
-1.77021
-6.93025e-06
-2.58615
-4.73675e-06
-2.58614
5.73987e-07
-2.58614
1.96016e-06
-2.58614
3.25884e-06
-2.58614
-2.58613
-2.4757e-07
-0.59559
-1.02596
-1.21029e-06
-0.595592
-1.02595
-1.68644e-06
-0.595592
-1.02595
-1.86483e-06
-0.595592
-1.02595
-1.06541e-06
-0.595592
-1.02595
-0.595592
-1.02595
-1.21691e-06
0.620696
-0.951324
-1.86519e-06
0.620696
-0.951324
-6.06898e-07
0.620696
-0.951323
8.77638e-07
0.620696
-0.951323
8.36282e-07
0.620696
-0.951325
0.620698
-0.951325
-4.65475e-07
-2.75456e-32
-8.80979e-07
-2.75636e-32
9.10767e-07
-2.75803e-32
2.5914e-06
-2.75943e-32
1.36836e-06
-2.76009e-32
-2.76065e-32
1.92149e-07
-0.237903
-2.07883e-07
-9.72216e-07
-0.237902
-2.07918e-07
2.96858e-07
-0.237902
-2.07909e-07
1.73828e-06
-0.237902
-2.07911e-07
2.93264e-07
-0.237902
-2.07921e-07
-0.237901
-2.07869e-07
1.74241e-08
-1.80439e-33
-9.48017e-10
-6.06414e-07
-1.80557e-33
-9.48252e-10
-4.37015e-07
-1.80667e-33
-9.48184e-10
-2.51736e-07
-1.80758e-33
-9.48173e-10
-7.62541e-07
-1.80802e-33
-9.48213e-10
-1.80839e-33
-9.47994e-10
4.9325e-39
-2.935e-32
-4.1063e-41
-2.93691e-32
1.97512e-39
-2.9387e-32
2.35906e-39
-2.94018e-32
-6.19854e-40
-2.9409e-32
-2.94149e-32
-2.02706e-14
1.20059e-10
-2.08699e-07
5.20059e-14
1.20119e-10
-2.08734e-07
1.56892e-13
1.20118e-10
-2.08725e-07
2.22483e-13
1.201e-10
-2.08727e-07
2.10535e-13
1.20093e-10
-2.08737e-07
1.20104e-10
-2.08685e-07
-3.05284e-16
-6.76441e-33
-8.28241e-10
-3.56424e-16
-6.76892e-33
-8.28418e-10
-2.39032e-16
-6.77306e-33
-8.2835e-10
-2.1954e-16
-6.77651e-33
-8.28357e-10
-2.409e-16
-6.77818e-33
-8.28404e-10
-6.77945e-33
-8.28175e-10
-4.81233e-38
-3.18536e-31
-4.15969e-38
-3.1874e-31
-8.62053e-38
-3.18929e-31
-1.56122e-37
-3.19088e-31
-1.22865e-37
-3.19167e-31
-3.19231e-31
-2.52506e-12
8.28239e-10
-2.20489e-09
1.11636e-12
8.28439e-10
-2.20491e-09
2.09092e-12
8.2836e-10
-2.20468e-09
3.7238e-12
8.28365e-10
-2.20499e-09
6.24885e-12
8.28419e-10
-2.20569e-09
8.28162e-10
-2.20576e-09
-8.45183e-15
-8.33704e-30
-9.82595e-17
6.25353e-15
-8.34238e-30
-9.82085e-17
9.70692e-15
-8.34733e-30
-9.82332e-17
1.07358e-14
-8.35152e-30
-9.82739e-17
1.9157e-14
-8.35362e-30
-9.83061e-17
-8.3554e-30
-9.82953e-17
-2.66535e-36
-8.65567e-30
-2.63453e-36
-8.66122e-30
-3.10711e-36
-8.66636e-30
-2.37522e-36
-8.67071e-30
-1.3312e-36
-8.67289e-30
-8.67473e-30
4.74205e-15
-2.14546e-15
-5.35606e-11
-8.97049e-15
-2.14453e-15
-5.35533e-11
-4.50629e-14
-2.14524e-15
-5.35552e-11
-6.03983e-14
-2.1458e-15
-5.35638e-11
-3.2256e-14
-2.14614e-15
-5.35758e-11
-2.14622e-15
-5.3574e-11
-1.17809e-22
-1.57215e-30
-2.03963e-15
-2.9596e-22
-1.57328e-30
-2.03876e-15
-7.18177e-22
-1.5742e-30
-2.0394e-15
-7.67817e-22
-1.57497e-30
-2.03995e-15
-3.70061e-22
-1.57532e-30
-2.0403e-15
-1.57557e-30
-2.04036e-15
-6.80323e-35
-4.45053e-28
-3.28585e-35
-4.45333e-28
-3.02943e-35
-4.45589e-28
-2.23233e-35
-4.45809e-28
8.30796e-36
-4.45923e-28
-4.46019e-28
-8.91671e-19
2.00818e-15
-5.97454e-15
-5.11346e-17
2.00729e-15
-5.97344e-15
-5.82665e-17
2.00796e-15
-5.97392e-15
-4.35897e-17
2.00852e-15
-5.9753e-15
-1.94854e-17
2.00886e-15
-5.97707e-15
2.00893e-15
-5.97725e-15
-2.4036e-20
-8.65749e-29
-4.38563e-18
-5.81418e-20
-8.66337e-29
-4.38856e-18
-5.92199e-20
-8.66811e-29
-4.3899e-18
-3.90389e-20
-8.67223e-29
-4.39006e-18
-2.14836e-20
-8.67432e-29
-4.38944e-18
-8.67574e-29
-4.38826e-18
-7.67368e-34
-3.51387e-26
-1.80052e-33
-3.51598e-26
-2.10694e-33
-3.51795e-26
-1.9959e-33
-3.51965e-26
-1.59123e-33
-3.52054e-26
-3.52133e-26
-1.00957e-19
3.34072e-16
-2.14002e-18
-6.93478e-20
3.34208e-16
-2.14095e-18
8.20521e-22
3.34258e-16
-2.14181e-18
4.99834e-20
3.3425e-16
-2.14274e-18
6.05183e-20
3.3421e-16
-2.14344e-18
3.34141e-16
-2.14391e-18
-3.71765e-22
-1.38151e-27
-6.25858e-21
-2.91166e-22
-1.38245e-27
-6.26225e-21
-1.28222e-22
-1.38315e-27
-6.26528e-21
5.57785e-24
-1.38389e-27
-6.26813e-21
5.21027e-23
-1.38442e-27
-6.26993e-21
-1.38446e-27
-6.27092e-21
-9.32131e-32
-6.29295e-24
8.05435e-33
-6.29652e-24
3.47252e-32
-6.29988e-24
5.90337e-32
-6.30285e-24
8.4922e-32
-6.30446e-24
-6.30593e-24
-2.27399e-22
1.66872e-18
-1.09928e-21
-4.06321e-23
1.66953e-18
-1.10008e-21
1.44622e-22
1.67023e-18
-1.10122e-21
2.80304e-22
1.67091e-18
-1.10243e-21
2.97633e-22
1.67136e-18
-1.10356e-21
1.67167e-18
-1.10465e-21
-1.69256e-25
2.19917e-21
-3.52404e-24
-5.82147e-26
2.20031e-21
-3.52669e-24
6.56731e-26
2.20141e-21
-3.53034e-24
1.84835e-25
2.20241e-21
-3.53416e-24
1.91669e-25
2.20297e-21
-3.53759e-24
2.2035e-21
-3.54094e-24
-1.76965e-30
-5.8583e-27
-1.84405e-29
-5.86246e-27
-1.8019e-29
-5.86875e-27
-4.7684e-30
-5.87533e-27
-1.04558e-29
-5.88117e-27
-5.88725e-27
8.05857e-26
2.59334e-21
2.0321e-22
-1.32783e-25
2.59523e-21
2.03337e-22
-2.89618e-25
2.59776e-21
2.03528e-22
-2.82766e-25
2.60036e-21
2.03722e-22
-1.55264e-25
2.60268e-21
2.03884e-22
2.60509e-21
2.04088e-22
1.00099e-29
4.48138e-24
-8.45952e-28
-1.38013e-28
4.48446e-24
-8.47589e-28
-2.00069e-28
4.4891e-24
-8.48443e-28
-1.44157e-28
4.49395e-24
-8.48927e-28
-4.85605e-29
4.49825e-24
-8.49197e-28
4.50284e-24
-8.49495e-28
-7.39756e-32
-1.80815e-30
-1.31722e-31
-1.8115e-30
-1.5166e-31
-1.81343e-30
-1.18856e-31
-1.8146e-30
-7.65984e-32
-1.81531e-30
-1.81625e-30
-3.34313e-29
3.08555e-24
2.17198e-24
-1.85402e-28
3.09102e-24
2.17588e-24
-2.54421e-28
3.09396e-24
2.178e-24
-2.41456e-28
3.09559e-24
2.17919e-24
-1.62368e-28
3.09642e-24
2.17983e-24
3.09761e-24
2.18073e-24
-3.94488e-33
4.25935e-27
1.27498e-27
-1.20803e-32
4.26698e-27
1.27725e-27
-1.2315e-32
4.27135e-27
1.27858e-27
1.98991e-32
4.27392e-27
1.27938e-27
5.70332e-32
4.2754e-27
1.27984e-27
4.27753e-27
1.28053e-27
-8.23402e-35
-1.34622e-34
-8.7895e-35
-1.34873e-34
-7.59989e-35
-1.35001e-34
-4.46525e-35
-1.35077e-34
-7.54775e-36
-1.35125e-34
-1.35177e-34
-9.26312e-48
1.57094e-44
-2.18267e-40
4.45427e-44
8.9708e-49
1.57368e-44
-2.18633e-40
4.46196e-44
4.14551e-48
1.57557e-44
-2.18885e-40
4.46705e-44
5.6743e-48
1.5768e-44
-2.19052e-40
4.47041e-44
4.9469e-48
1.57764e-44
-2.19163e-40
4.47269e-44
1.57898e-44
-2.19337e-40
4.47653e-44
-1.5568e-51
9.94508e-48
-6.67011e-44
1.03535e-47
1.04437e-51
9.96197e-48
-6.68111e-44
1.03714e-47
1.87741e-51
9.97365e-48
-6.68892e-44
1.03834e-47
2.24306e-51
9.98121e-48
-6.69404e-44
1.03913e-47
2.06652e-51
9.9862e-48
-6.69749e-44
1.03967e-47
9.99466e-48
-6.70314e-44
1.04063e-47
-1.24777e-56
-3.63519e-48
4.23542e-52
1.07172e-55
-3.64113e-48
4.2429e-52
1.45095e-55
-3.64544e-48
4.24788e-52
1.61954e-55
-3.64831e-48
4.25115e-52
1.5298e-55
-3.6503e-48
4.25346e-52
-3.65376e-48
4.25784e-52
-1.097e-44
8.79129e-41
-7.73823e-37
1.36693e-44
8.80724e-41
-7.75191e-37
2.37892e-44
8.81795e-41
-7.76098e-37
2.79427e-44
8.8249e-41
-7.76689e-37
2.60539e-44
8.82955e-41
-7.77085e-37
8.83659e-41
-7.77682e-37
6.25143e-49
6.57449e-44
-2.85742e-40
7.70087e-48
6.58604e-44
-2.86238e-40
1.13069e-47
6.59373e-44
-2.86575e-40
1.26816e-47
6.5987e-44
-2.86795e-40
1.16313e-47
6.60204e-44
-2.86946e-40
6.60747e-44
-2.87186e-40
4.2535e-52
-2.04807e-44
9.28295e-52
-2.05158e-44
1.21979e-51
-2.05409e-44
1.24334e-51
-2.05578e-44
1.07916e-51
-2.05699e-44
-2.05902e-44
-9.75995e-42
3.39027e-37
-1.89976e-33
3.85289e-41
3.3964e-37
-1.90319e-33
6.67107e-41
3.40042e-37
-1.90539e-33
7.66853e-41
3.40302e-37
-1.90679e-33
6.31713e-41
3.40475e-37
-1.90772e-33
3.40733e-37
-1.90907e-33
6.82299e-45
2.9209e-40
-8.09872e-37
2.74728e-44
2.92604e-40
-8.11306e-37
4.17747e-44
2.92947e-40
-8.12257e-37
4.21833e-44
2.93168e-40
-8.1287e-37
2.93304e-44
2.93317e-40
-8.13285e-37
2.93554e-40
-8.13919e-37
1.90163e-48
-7.45906e-41
4.34019e-48
-7.47209e-41
5.55223e-48
-7.48118e-41
4.96526e-48
-7.48724e-41
2.76518e-48
-7.49149e-41
-7.49826e-41
-4.79605e-38
8.92384e-34
-3.11721e-30
3.07104e-38
8.94014e-34
-3.12291e-30
8.24994e-38
8.95043e-34
-3.12638e-30
1.0022e-37
8.95698e-34
-3.12856e-30
7.43995e-38
8.96125e-34
-3.12993e-30
8.96731e-34
-3.13186e-30
-3.69148e-42
8.78685e-37
-1.49216e-33
5.06803e-41
8.80248e-37
-1.49481e-33
8.11775e-41
8.81265e-37
-1.49652e-33
7.39641e-41
8.81917e-37
-1.49761e-33
3.90587e-41
8.82346e-37
-1.49831e-33
8.83008e-37
-1.49937e-33
1.74726e-45
-1.5945e-37
1.17398e-44
-1.59725e-37
1.50497e-44
-1.59915e-37
1.17796e-44
-1.6004e-37
4.39171e-45
-1.60124e-37
-1.60254e-37
-5.38806e-35
1.53558e-30
-3.29751e-27
-1.24001e-36
1.53839e-30
-3.30351e-27
3.8779e-35
1.54009e-30
-3.30699e-27
5.82622e-35
1.54114e-30
-3.30907e-27
4.82012e-35
1.5418e-30
-3.31031e-27
1.54275e-30
-3.31204e-27
-1.66977e-38
1.76417e-33
-1.77097e-30
5.476e-38
1.76733e-33
-1.77413e-30
7.59959e-38
1.76932e-33
-1.77608e-30
7.14954e-38
1.77057e-33
-1.77728e-30
4.55722e-38
1.77137e-33
-1.77803e-30
1.7726e-33
-1.77914e-30
-3.09054e-42
-1.40816e-34
1.5332e-41
-1.41051e-34
1.94001e-41
-1.41223e-34
1.5772e-41
-1.41339e-34
9.30046e-42
-1.41411e-34
-1.41522e-34
-1.05387e-31
1.79221e-27
-1.3019e-31
1.79549e-27
-1.24013e-31
1.79737e-27
-8.6963e-32
1.7985e-27
-1.00288e-32
1.79916e-27
1.80009e-27
-5.27688e-35
2.44988e-30
-4.27198e-35
2.45431e-30
-2.09413e-35
2.45699e-30
9.34248e-36
2.45864e-30
5.28836e-35
2.45966e-30
2.46117e-30
-1.10824e-38
-1.45042e-38
-8.86529e-39
-1.4192e-39
1.27813e-38
-5.48693e-112
5.85635e-109
-2.14123e-103
1.28341e-112
5.86177e-109
-2.14277e-103
4.27286e-112
5.86874e-109
-2.14536e-103
6.2536e-112