/*--------------------------------*- C++ -*----------------------------------*\
| =========                 |                                                 |
| \\      /  F ield         | OpenFOAM: The Open Source CFD Toolbox           |
|  \\    /   O peration     | Version:  v1612+                                |
|   \\  /    A nd           | Web:      www.OpenFOAM.com                      |
|    \\/     M anipulation  |                                                 |
\*---------------------------------------------------------------------------*/
FoamFile
{
    version     2.0;
    format      ascii;
    class       volScalarField;
    location    "0.8";
    object      p_rgh;
}
// * * * * * * * * * * * * * * * * * * * * * * * * * * * * * * * * * * * * * //

dimensions      [1 -1 -2 0 0 0 0];

internalField   nonuniform List<scalar> 
1116
(
30407.6
30407.6
30407.6
30407.7
30407.7
30407.7
29148.9
29148.9
29148.9
29148.9
29148.9
29148.9
26848.6
26848.6
26848.6
26848.6
26848.6
26848.6
20181.1
20181.1
20181.1
20181.1
20181.1
20181.1
4645.59
4645.59
4645.59
4645.59
4645.6
4645.59
192.287
192.295
192.298
192.299
192.3
192.302
44.2446
44.2448
44.2449
44.2456
44.2456
44.2457
34.0246
34.0236
34.024
34.0245
34.0244
34.0241
24.2031
24.203
24.2036
24.2042
24.2047
24.2051
18.381
18.3816
18.3819
18.382
18.3821
18.3822
15.1868
15.1872
15.187
15.1866
15.1861
15.1857
13.5417
13.5417
13.5414
13.541
13.5404
13.54
31504.4
31504.4
31504.4
31504.4
31504.4
31504.4
30522
30522
30522
30522.1
30522.1
30522.1
29068.1
29068.1
29068.1
29068.1
29068.1
29068.1
21248.7
21248.7
21248.7
21248.7
21248.7
21248.7
2162.97
2162.99
2162.99
2162.98
2162.97
2162.96
-61.3789
-61.379
-61.3783
-61.3771
-61.3777
-61.3782
26.2802
26.2784
26.2786
26.2782
26.277
26.2749
20.5636
20.5631
20.563
20.5624
20.5621
20.5619
18.0472
18.0475
18.0476
18.0477
18.0482
18.0488
15.2253
15.2252
15.2251
15.2252
15.2254
15.2257
13.0584
13.0582
13.058
13.058
13.058
13.058
11.77
11.77
11.7699
11.7698
11.7697
11.7695
33477.3
33477.3
33477.3
33477.3
33477.3
33477.3
33332.4
33332.4
33332.4
33332.5
33332.5
33332.5
33429.5
33429.5
33429.5
33429.5
33429.5
33429.4
24589.3
24589.2
24589.2
24589.2
24589.2
24589.2
77.1776
77.1765
77.1698
77.1641
77.1605
77.1646
-13.251
-13.2531
-13.253
-13.2523
-13.2531
-13.2553
15.674
15.6743
15.6744
15.6737
15.6732
15.6726
12.3761
12.3766
12.3762
12.3756
12.3754
12.3755
12.729
12.729
12.7286
12.7285
12.7289
12.7293
11.4142
11.4137
11.4135
11.4137
11.4141
11.4145
10.2313
10.2311
10.2313
10.2316
10.232
10.2324
9.34133
9.34156
9.34178
9.34203
9.34223
9.34234
35264.8
35264.8
35264.8
35264.8
35264.8
35264.8
36862.6
36862.6
36862.6
36862.7
36862.6
36862.6
38626.1
38626.1
38626.1
38626.1
38626.1
38626
27967.3
27967.3
27967.3
27967.3
27967.3
27967.3
-29.454
-29.454
-29.4543
-29.4537
-29.453
-29.4528
-1.33212
-1.33207
-1.33154
-1.33106
-1.33065
-1.33105
5.27812
5.27925
5.27962
5.27974
5.2799
5.27994
7.58137
7.58182
7.58142
7.58112
7.58088
7.58054
8.57773
8.57721
8.57656
8.57621
8.576
8.57582
8.19344
8.19301
8.19293
8.19306
8.19326
8.19342
7.5032
7.50342
7.50385
7.50434
7.50481
7.50518
6.78701
6.78732
6.78768
6.78805
6.78839
6.78864
0.018937
0.0189157
0.0189055
0.0189076
0.0189103
0.0189128
0.0199858
0.0199696
0.0199644
0.0199689
0.0199751
0.0199837
0.0222012
0.0221872
0.0221831
0.0221882
0.022196
0.0222056
0.0256452
0.0256346
0.0256311
0.0256366
0.0256453
0.0256553
0.0304184
0.0304135
0.0304103
0.0304167
0.0304258
0.0304354
0.0366218
0.0366245
0.0366226
0.0366299
0.0366389
0.0366473
0.044325
0.0443374
0.0443383
0.0443463
0.0443546
0.0443608
0.0535202
0.0535449
0.0535493
0.0535574
0.0535638
0.0535666
0.0640484
0.0640815
0.0640905
0.0640969
0.0640999
0.064098
0.0753963
0.0754326
0.0754405
0.0754416
0.075438
0.0754286
0.0864013
0.0864314
0.0864323
0.0864251
0.0864126
0.0863945
0.0960328
0.0960422
0.096033
0.0960174
0.0959972
0.0959723
0.0180041
0.0179896
0.0179855
0.0179901
0.0179964
0.0180048
0.0190696
0.0190595
0.0190576
0.0190637
0.0190737
0.0190876
0.0213104
0.0213019
0.0213007
0.0213078
0.0213192
0.0213341
0.0248134
0.0248077
0.0248065
0.0248145
0.0248266
0.0248415
0.0297119
0.0297104
0.0297095
0.0297181
0.0297302
0.0297438
0.0361621
0.0361663
0.0361665
0.0361753
0.0361862
0.0361971
0.044333
0.0443449
0.0443482
0.0443559
0.0443643
0.0443705
0.0543548
0.0543747
0.0543799
0.0543856
0.05439
0.0543896
0.0660642
0.0660867
0.066091
0.0660923
0.06609
0.0660803
0.0790818
0.0790995
0.0790977
0.07909
0.0790763
0.0790534
0.092534
0.0925379
0.0925233
0.0925045
0.0924805
0.0924482
0.105458
0.105438
0.105411
0.105384
0.105353
0.105312
0.0162312
0.0162204
0.0162182
0.0162234
0.0162305
0.0162394
0.0172609
0.0172534
0.0172529
0.0172596
0.01727
0.0172836
0.01943
0.0194239
0.0194235
0.0194314
0.0194433
0.0194577
0.0228491
0.0228453
0.0228452
0.022854
0.0228664
0.0228807
0.0276899
0.0276895
0.0276905
0.0276996
0.0277116
0.0277247
0.0341623
0.0341669
0.0341698
0.0341785
0.0341892
0.0341996
0.0425083
0.0425207
0.0425256
0.0425329
0.0425409
0.0425466
0.0530748
0.0530912
0.0530965
0.053101
0.053104
0.0531023
0.0663605
0.0663732
0.0663737
0.0663714
0.0663658
0.0663537
0.0834157
0.0834119
0.083399
0.0833849
0.0833681
0.0833454
0.102343
0.102311
0.102279
0.102251
0.102223
0.102194
0.123115
0.123065
0.123025
0.122994
0.122968
0.122944
0.0136509
0.0136434
0.0136426
0.0136475
0.0136544
0.0136626
0.0145849
0.0145799
0.01458
0.0145866
0.0145962
0.0146082
0.0165607
0.0165567
0.0165573
0.0165649
0.0165757
0.0165883
0.0197154
0.019713
0.0197145
0.0197227
0.0197338
0.0197464
0.0242775
0.024278
0.0242806
0.0242889
0.0242996
0.024311
0.030579
0.030584
0.0305879
0.0305958
0.0306052
0.0306141
0.0390726
0.0390834
0.0390884
0.0390946
0.0391011
0.0391054
0.0502022
0.0502129
0.0502161
0.0502184
0.0502192
0.0502159
0.0638684
0.0638684
0.0638621
0.063855
0.0638458
0.0638317
0.0789983
0.0789699
0.078944
0.0789242
0.0789051
0.0788843
0.0993023
0.0992379
0.0991949
0.099167
0.0991471
0.0991332
0.1317
0.131634
0.131603
0.131594
0.131601
0.131622
37604.6
37604.6
37604.6
37604.6
37604.6
37604.6
28615.3
28615.2
28615.1
28615.1
28615.1
28615.1
25327.8
25327.7
25327.7
25327.7
25327.7
25327.7
42797.2
42797.1
42797.1
42797.1
42797.1
42797.1
33365.3
33365.3
33365.3
33365.3
33365.3
33365.3
35352.5
35352.2
35352.2
35352.2
35352.2
35352.2
47072.3
47072.3
47072.3
47072.3
47072.4
47072.4
39076.4
39076.4
39076.4
39076.4
39076.4
39076.5
21290.3
21290.3
21290.3
21290.3
21290.4
21290.4
19851.3
19851.4
19851.4
19851.4
19851.4
19851.4
1337.68
1337.69
1337.68
1337.68
1337.69
1337.7
-78.7444
-78.7432
-78.7439
-78.7428
-78.7399
-78.7399
-42.1181
-42.1181
-42.1186
-42.1184
-42.1178
-42.1182
-25.3185
-25.3184
-25.3187
-25.3185
-25.3176
-25.318
-38.7848
-38.7851
-38.7849
-38.7847
-38.7845
-38.7843
-12.202
-12.2021
-12.2019
-12.2017
-12.2013
-12.2013
10.1751
10.1752
10.1755
10.1761
10.1766
10.1768
-2.82648
-2.82614
-2.82594
-2.82581
-2.82566
-2.8258
-0.361714
-0.361414
-0.36131
-0.361
-0.360841
-0.36084
8.60653
8.60686
8.60708
8.60739
8.6076
8.6076
-1.14786
-1.14775
-1.14758
-1.14749
-1.14743
-1.14748
3.81322
3.81328
3.81334
3.81355
3.81361
3.81354
4.28924
4.28926
4.28951
4.28971
4.28976
4.28969
-1.14933
-1.14929
-1.14918
-1.14912
-1.14912
-1.14918
5.63509
5.63498
5.63503
5.63504
5.63496
5.63482
4.98073
4.9809
4.98112
4.98121
4.98117
4.98102
0.427165
0.427288
0.427381
0.427421
0.427409
0.427362
5.52867
5.52878
5.5288
5.52884
5.52877
5.52868
3.55916
3.55936
3.5594
3.55936
3.55926
3.55912
0.698765
0.698804
0.698793
0.698748
0.698685
0.698618
4.96934
4.96949
4.96963
4.96974
4.96982
4.9699
2.94403
2.94403
2.94395
2.94386
2.9438
2.94375
0.819006
0.818955
0.81889
0.818827
0.818782
0.818752
4.1409
4.14092
4.14097
4.14106
4.1412
4.14133
2.36785
2.36775
2.36768
2.36765
2.36768
2.36773
0.729831
0.729787
0.729757
0.729743
0.729749
0.729765
0.423882
0.423729
0.423736
0.423821
0.423924
0.424007
0.305336
0.305262
0.305308
0.305399
0.305506
0.305602
0.118619
0.118609
0.11864
0.118685
0.118737
0.118785
0.602626
0.602579
0.60265
0.602779
0.60293
0.603068
0.431693
0.43171
0.4318
0.431928
0.432071
0.432202
0.165215
0.165239
0.165285
0.165343
0.165405
0.16546
0.853261
0.853259
0.853355
0.85351
0.853682
0.853824
0.602279
0.602315
0.602422
0.602569
0.602718
0.602828
0.226517
0.226543
0.226593
0.226656
0.226715
0.226751
1.20954
1.20953
1.20962
1.20977
1.20992
1.21003
0.833405
0.833422
0.833518
0.833658
0.833788
0.83386
0.304847
0.304862
0.304909
0.304968
0.305016
0.305036
1.71511
1.71509
1.71515
1.71526
1.7154
1.71549
1.14318
1.14318
1.14325
1.14336
1.14346
1.14352
0.400809
0.400818
0.400856
0.400902
0.400939
0.400959
2.37014
2.3701
2.37013
2.37022
2.37034
2.37046
1.54973
1.54972
1.54974
1.54981
1.54989
1.54998
0.510349
0.510353
0.510365
0.510385
0.510413
0.510442
0.0103547
0.0103503
0.0103504
0.0103547
0.0103607
0.0103676
0.00649309
0.00649159
0.00649249
0.00649576
0.00650014
0.00650519
0.00227356
0.00227391
0.00227497
0.00227651
0.0022786
0.0022812
0.0111008
0.0110981
0.0110993
0.0111049
0.0111128
0.0111225
0.00697589
0.00697529
0.00697704
0.00698107
0.00698661
0.00699339
0.00245013
0.0024507
0.00245194
0.00245369
0.00245611
0.00245922
0.0126877
0.0126857
0.0126875
0.0126939
0.0127026
0.0127128
0.00800699
0.00800683
0.00800907
0.00801357
0.00801957
0.00802659
0.00282811
0.00282877
0.00283011
0.00283198
0.00283452
0.00283767
0.0152565
0.0152556
0.0152581
0.015265
0.0152739
0.0152839
0.00969495
0.0096956
0.00969817
0.00970284
0.00970892
0.00971581
0.00345402
0.00345476
0.00345614
0.00345801
0.00346052
0.00346355
0.0190568
0.019058
0.0190613
0.019068
0.0190766
0.0190857
0.0122385
0.0122403
0.0122432
0.0122477
0.0122535
0.0122598
0.00441176
0.00441264
0.00441399
0.00441575
0.00441808
0.00442075
0.0245062
0.024511
0.0245149
0.0245211
0.0245285
0.0245355
0.0159889
0.0159924
0.0159954
0.0159995
0.0160044
0.0160091
0.00585059
0.00585171
0.00585299
0.00585451
0.00585636
0.00585818
0.0323155
0.0323229
0.032327
0.0323315
0.032336
0.0323386
0.0215793
0.0215829
0.0215856
0.0215884
0.0215909
0.0215919
0.00803137
0.0080324
0.00803325
0.00803406
0.00803473
0.00803462
0.0438844
0.043889
0.0438897
0.0438897
0.0438882
0.0438833
0.0302639
0.0302643
0.0302636
0.0302623
0.0302599
0.030255
0.0114178
0.0114173
0.0114165
0.0114155
0.0114139
0.0114109
0.062287
0.0622767
0.0622657
0.0622563
0.0622461
0.0622329
0.0442877
0.0442758
0.0442656
0.0442576
0.0442494
0.04424
0.0168455
0.0168403
0.0168362
0.0168326
0.0168291
0.0168252
0.0949812
0.0949384
0.0949118
0.094894
0.0948809
0.0948705
0.0682924
0.0682571
0.0682383
0.068228
0.0682241
0.0682258
0.0262186
0.0262069
0.0262011
0.0261983
0.0261991
0.026205
0.154303
0.154232
0.154207
0.154204
0.154216
0.154241
0.108929
0.108882
0.108872
0.108884
0.108913
0.108958
0.0430666
0.0430573
0.0430596
0.0430691
0.0430884
0.0431211
0.253527
0.253489
0.253495
0.253538
0.253609
0.25371
0.18015
0.180159
0.180195
0.180256
0.180344
0.180462
0.0730736
0.0730924
0.0731162
0.0731489
0.0731962
0.0732605
)
;

boundaryField
{
    seabed_topleft_surface
    {
        type            fixedFluxPressure;
        gradient        uniform 0;
        value           nonuniform List<scalar> 
72
(
30407.6
30407.6
30407.6
30407.7
30407.7
30407.7
29148.9
29148.9
29148.9
29148.9
29148.9
29148.9
26848.6
26848.6
26848.6
26848.6
26848.6
26848.6
20181.1
20181.1
20181.1
20181.1
20181.1
20181.1
4645.59
4645.59
4645.59
4645.59
4645.6
4645.59
192.287
192.295
192.298
192.299
192.3
192.302
44.2446
44.2448
44.2449
44.2456
44.2456
44.2457
34.0246
34.0236
34.024
34.0245
34.0244
34.0241
24.2031
24.203
24.2036
24.2042
24.2047
24.2051
18.381
18.3816
18.3819
18.382
18.3821
18.3822
15.1868
15.1872
15.187
15.1866
15.1861
15.1857
13.5417
13.5417
13.5414
13.541
13.5404
13.54
)
;
    }
    seabed_topright_surface
    {
        type            fixedFluxPressure;
        gradient        uniform 0;
        value           nonuniform List<scalar> 
72
(
0.018937
0.0189157
0.0189055
0.0189076
0.0189103
0.0189128
0.0199858
0.0199696
0.0199644
0.0199689
0.0199751
0.0199837
0.0222012
0.0221872
0.0221831
0.0221882
0.022196
0.0222056
0.0256452
0.0256346
0.0256311
0.0256366
0.0256453
0.0256553
0.0304184
0.0304135
0.0304103
0.0304167
0.0304258
0.0304354
0.0366218
0.0366245
0.0366226
0.0366299
0.0366389
0.0366473
0.044325
0.0443374
0.0443383
0.0443463
0.0443546
0.0443608
0.0535202
0.0535449
0.0535493
0.0535574
0.0535638
0.0535666
0.0640484
0.0640815
0.0640905
0.0640969
0.0640999
0.064098
0.0753963
0.0754326
0.0754405
0.0754416
0.075438
0.0754286
0.0864013
0.0864314
0.0864323
0.0864251
0.0864126
0.0863945
0.0960328
0.0960422
0.096033
0.0960174
0.0959972
0.0959723
)
;
    }
    breakwater_top_surface
    {
        type            fixedFluxPressure;
        gradient        uniform 0;
        value           nonuniform List<scalar> 
36
(
0.423882
0.423729
0.423736
0.423821
0.423924
0.424007
0.602626
0.602579
0.60265
0.602779
0.60293
0.603068
0.853261
0.853259
0.853355
0.85351
0.853682
0.853824
1.20954
1.20953
1.20962
1.20977
1.20992
1.21003
1.71511
1.71509
1.71515
1.71526
1.7154
1.71549
2.37014
2.3701
2.37013
2.37022
2.37034
2.37046
)
;
    }
    breakwater_left_surface
    {
        type            fixedFluxPressure;
        gradient        uniform 0;
        value           nonuniform List<scalar> 
24
(
13.5417
13.5417
13.5414
13.541
13.5404
13.54
11.77
11.77
11.7699
11.7698
11.7697
11.7695
9.34133
9.34156
9.34178
9.34203
9.34223
9.34234
6.78701
6.78732
6.78768
6.78805
6.78839
6.78864
)
;
    }
    breakwater_right_surface
    {
        type            fixedFluxPressure;
        gradient        uniform 0;
        value           nonuniform List<scalar> 
24
(
0.0960328
0.0960422
0.096033
0.0960174
0.0959972
0.0959723
0.105458
0.105438
0.105411
0.105384
0.105353
0.105312
0.123115
0.123065
0.123025
0.122994
0.122968
0.122944
0.1317
0.131634
0.131603
0.131594
0.131601
0.131622
)
;
    }
    water_front_surface
    {
        type            fixedFluxPressure;
        gradient        uniform 0;
        value           nonuniform List<scalar> 
186
(
30407.6
29148.9
26848.6
20181.1
4645.59
192.287
44.2446
34.0246
24.2031
18.381
15.1868
13.5417
31504.4
30522
29068.1
21248.7
2162.97
-61.3789
26.2802
20.5636
18.0472
15.2253
13.0584
11.77
33477.3
33332.4
33429.5
24589.3
77.1776
-13.251
15.674
12.3761
12.729
11.4142
10.2313
9.34133
35264.8
36862.6
38626.1
27967.3
-29.454
-1.33212
5.27812
7.58137
8.57773
8.19344
7.5032
6.78701
0.018937
0.0199858
0.0222012
0.0256452
0.0304184
0.0366218
0.044325
0.0535202
0.0640484
0.0753963
0.0864013
0.0960328
0.0180041
0.0190696
0.0213104
0.0248134
0.0297119
0.0361621
0.044333
0.0543548
0.0660642
0.0790818
0.092534
0.105458
0.0162312
0.0172609
0.01943
0.0228491
0.0276899
0.0341623
0.0425083
0.0530748
0.0663605
0.0834157
0.102343
0.123115
0.0136509
0.0145849
0.0165607
0.0197154
0.0242775
0.030579
0.0390726
0.0502022
0.0638684
0.0789983
0.0993023
0.1317
37604.6
28615.3
25327.8
42797.2
33365.3
35352.5
47072.3
39076.4
21290.3
19851.3
1337.68
-78.7444
-42.1181
-25.3185
-38.7848
-12.202
10.1751
-2.82648
-0.361714
8.60653
-1.14786
3.81322
4.28924
-1.14933
5.63509
4.98073
0.427165
5.52867
3.55916
0.698765
4.96934
2.94403
0.819006
4.1409
2.36785
0.729831
0.423882
0.305336
0.118619
0.602626
0.431693
0.165215
0.853261
0.602279
0.226517
1.20954
0.833405
0.304847
1.71511
1.14318
0.400809
2.37014
1.54973
0.510349
0.0103547
0.00649309
0.00227356
0.0111008
0.00697589
0.00245013
0.0126877
0.00800699
0.00282811
0.0152565
0.00969495
0.00345402
0.0190568
0.0122385
0.00441176
0.0245062
0.0159889
0.00585059
0.0323155
0.0215793
0.00803137
0.0438844
0.0302639
0.0114178
0.062287
0.0442877
0.0168455
0.0949812
0.0682924
0.0262186
0.154303
0.108929
0.0430666
0.253527
0.18015
0.0730736
)
;
    }
    water_back_surface
    {
        type            fixedFluxPressure;
        gradient        uniform 0;
        value           nonuniform List<scalar> 
186
(
30407.7
29148.9
26848.6
20181.1
4645.59
192.302
44.2457
34.0241
24.2051
18.3822
15.1857
13.54
31504.4
30522.1
29068.1
21248.7
2162.96
-61.3782
26.2749
20.5619
18.0488
15.2257
13.058
11.7695
33477.3
33332.5
33429.4
24589.2
77.1646
-13.2553
15.6726
12.3755
12.7293
11.4145
10.2324
9.34234
35264.8
36862.6
38626
27967.3
-29.4528
-1.33105
5.27994
7.58054
8.57582
8.19342
7.50518
6.78864
0.0189128
0.0199837
0.0222056
0.0256553
0.0304354
0.0366473
0.0443608
0.0535666
0.064098
0.0754286
0.0863945
0.0959723
0.0180048
0.0190876
0.0213341
0.0248415
0.0297438
0.0361971
0.0443705
0.0543896
0.0660803
0.0790534
0.0924482
0.105312
0.0162394
0.0172836
0.0194577
0.0228807
0.0277247
0.0341996
0.0425466
0.0531023
0.0663537
0.0833454
0.102194
0.122944
0.0136626
0.0146082
0.0165883
0.0197464
0.024311
0.0306141
0.0391054
0.0502159
0.0638317
0.0788843
0.0991332
0.131622
37604.6
28615.1
25327.7
42797.1
33365.3
35352.2
47072.4
39076.5
21290.4
19851.4
1337.7
-78.7399
-42.1182
-25.318
-38.7843
-12.2013
10.1768
-2.8258
-0.36084
8.6076
-1.14748
3.81354
4.28969
-1.14918
5.63482
4.98102
0.427362
5.52868
3.55912
0.698618
4.9699
2.94375
0.818752
4.14133
2.36773
0.729765
0.424007
0.305602
0.118785
0.603068
0.432202
0.16546
0.853824
0.602828
0.226751
1.21003
0.83386
0.305036
1.71549
1.14352
0.400959
2.37046
1.54998
0.510442
0.0103676
0.00650519
0.0022812
0.0111225
0.00699339
0.00245922
0.0127128
0.00802659
0.00283767
0.0152839
0.00971581
0.00346355
0.0190857
0.0122598
0.00442075
0.0245355
0.0160091
0.00585818
0.0323386
0.0215919
0.00803462
0.0438833
0.030255
0.0114109
0.0622329
0.04424
0.0168252
0.0948705
0.0682258
0.026205
0.154241
0.108958
0.0431211
0.25371
0.180462
0.0732605
)
;
    }
    water_left_surface
    {
        type            fixedFluxPressure;
        gradient        uniform 0;
        value           nonuniform List<scalar> 
42
(
30407.6
30407.6
30407.6
30407.7
30407.7
30407.7
31504.4
31504.4
31504.4
31504.4
31504.4
31504.4
33477.3
33477.3
33477.3
33477.3
33477.3
33477.3
35264.8
35264.8
35264.8
35264.8
35264.8
35264.8
37604.6
37604.6
37604.6
37604.6
37604.6
37604.6
28615.3
28615.2
28615.1
28615.1
28615.1
28615.1
25327.8
25327.7
25327.7
25327.7
25327.7
25327.7
)
;
    }
    water_right_surface
    {
        type            fixedFluxPressure;
        gradient        uniform 0;
        value           nonuniform List<scalar> 
42
(
0.018937
0.0189157
0.0189055
0.0189076
0.0189103
0.0189128
0.0180041
0.0179896
0.0179855
0.0179901
0.0179964
0.0180048
0.0162312
0.0162204
0.0162182
0.0162234
0.0162305
0.0162394
0.0136509
0.0136434
0.0136426
0.0136475
0.0136544
0.0136626
0.0103547
0.0103503
0.0103504
0.0103547
0.0103607
0.0103676
0.00649309
0.00649159
0.00649249
0.00649576
0.00650014
0.00650519
0.00227356
0.00227391
0.00227497
0.00227651
0.0022786
0.0022812
)
;
    }
    water_top_surface
    {
        type            totalPressure;
        rho             rho;
        psi             none;
        gamma           1;
        p0              uniform 0;
        value           nonuniform List<scalar> 
180
(
0
0
0
0
0
0
0
0
0
0
0
0
0
0
0
0
0
0
-37.0513
-37.0555
-37.0551
-37.0537
-37.0513
-37.048
-21.5641
-21.5663
-21.5663
-21.5664
-21.5665
-21.5651
-4.05287
-4.05244
-4.05218
-4.05187
-4.05175
-4.05148
-0.334998
-0.33518
-0.335307
-0.335394
-0.335464
-0.33549
-0.288618
-0.288695
-0.288701
-0.28869
-0.288666
-0.288608
-0.0202006
-0.0201908
-0.0201773
-0.0201645
-0.0201522
-0.0201372
-0.000254558
-0.000254059
-0.000253712
-0.0002535
-0.000253392
-0.00025318
0
0
0
0
0
0
0
0
0
0
0
0
0
0
0
0
0
0
0
0
0
0
0
0
0
0
0
0
0
0
0
0
0
0
0
0
0
0
0
0
0
0
0
0
0
0
0
0
0
0
0
0
0
0
0
0
0
0
0
0
0
0
0
0
0
0
0
0
0
0
0
0
0
0
0
0
0
0
0
0
0
0
0
0
0
0
0
0
0
0
0
0
0
0
0
0
0
0
0
0
0
0
0
0
0
0
0
0
0
0
0
0
0
0
0
0
0
0
0
0
)
;
    }
}


// ************************************************************************* //
