/*--------------------------------*- C++ -*----------------------------------*\
| =========                 |                                                 |
| \\      /  F ield         | OpenFOAM: The Open Source CFD Toolbox           |
|  \\    /   O peration     | Version:  v1612+                                |
|   \\  /    A nd           | Web:      www.OpenFOAM.com                      |
|    \\/     M anipulation  |                                                 |
\*---------------------------------------------------------------------------*/
FoamFile
{
    version     2.0;
    format      ascii;
    class       surfaceScalarField;
    location    "0.8";
    object      phi;
}
// * * * * * * * * * * * * * * * * * * * * * * * * * * * * * * * * * * * * * //

dimensions      [0 3 -1 0 0 0 0];

internalField   nonuniform List<scalar> 
2916
(
-1.3566e-07
0.135528
-0.135528
-4.00784e-07
0.135529
-0.135528
-6.16333e-07
0.135529
-0.135529
-5.55697e-07
0.135529
-0.135529
-2.56424e-07
0.135529
-0.135529
0.135528
-0.135529
4.69454e-07
0.35641
-0.220882
9.26888e-07
0.356411
-0.220883
1.25004e-06
0.356411
-0.220882
1.27381e-06
0.356411
-0.220882
8.53076e-07
0.35641
-0.220881
0.356409
-0.22088
8.85655e-07
0.741465
-0.385056
1.65843e-06
0.741466
-0.385056
2.05694e-06
0.741466
-0.385055
1.95731e-06
0.741465
-0.385054
1.04137e-06
0.741464
-0.385053
0.741463
-0.385052
4.4925e-07
1.47649
-0.73503
7.78003e-07
1.4765
-0.735031
1.13878e-06
1.4765
-0.735031
1.34888e-06
1.4765
-0.735032
9.30389e-07
1.4765
-0.735032
1.47649
-0.73503
2.22323e-06
2.8008
-1.32431
-2.12318e-06
2.8008
-1.3243
-6.29073e-06
2.8008
-1.3243
-9.69684e-06
2.8008
-1.3243
-9.36405e-06
2.8008
-1.32431
2.8008
-1.32432
1.08104e-06
2.11086
0.68994
-1.38696e-06
2.11084
0.689965
-1.23498e-05
2.11084
0.689966
-1.57418e-05
2.11084
0.689961
-2.35233e-05
2.11084
0.689972
2.11082
0.689957
2.13e-05
1.26882
0.842019
9.77006e-06
1.26874
0.842103
-2.99821e-06
1.26872
0.842127
1.57217e-05
1.26871
0.842116
6.39085e-06
1.26871
0.842137
1.2687
0.842122
8.81093e-05
0.703248
0.565482
6.80152e-05
0.703217
0.565531
6.50824e-05
0.703187
0.565534
5.73477e-05
0.703187
0.565538
3.10789e-05
0.703198
0.565543
0.70322
0.565511
5.76173e-05
0.405028
0.298155
7.58694e-05
0.405058
0.298129
8.16037e-05
0.405066
0.298108
6.08104e-05
0.405085
0.298112
2.82864e-05
0.405106
0.298119
0.405126
0.298122
6.97117e-05
0.228439
0.176512
0.000134795
0.228507
0.17649
0.000155634
0.228531
0.176513
0.000137598
0.228544
0.176556
8.66212e-05
0.228549
0.176607
0.22855
0.176665
6.56732e-05
0.107683
0.120684
0.000119773
0.107726
0.120732
0.000136346
0.107734
0.120781
0.00012395
0.107729
0.120829
8.10132e-05
0.107719
0.120875
0.10771
0.120924
3.20715e-05
0.107659
6.60852e-05
0.107698
8.5454e-05
0.107719
8.25371e-05
0.107735
5.39177e-05
0.107749
0.107764
-7.05982e-07
0.0563194
-0.191847
-1.60349e-06
0.0563196
-0.191847
-2.11243e-06
0.056319
-0.191847
-1.83304e-06
0.056318
-0.191847
-8.49973e-07
0.0563172
-0.191847
0.0563169
-0.191846
9.14792e-09
0.179574
-0.344136
-3.31303e-09
0.179574
-0.344137
6.06414e-08
0.179573
-0.344136
6.72073e-08
0.179571
-0.344135
-1.03602e-07
0.17957
-0.344134
0.17957
-0.344133
7.11113e-07
0.427135
-0.632618
1.86087e-06
0.427135
-0.632618
2.66938e-06
0.427134
-0.632617
2.50612e-06
0.427132
-0.632615
1.25735e-06
0.427131
-0.632613
0.427129
-0.632611
1.0038e-06
0.903966
-1.21186
1.74984e-06
0.903967
-1.21186
2.4468e-06
0.903964
-1.21186
2.03418e-06
0.903963
-1.21186
6.04648e-07
0.903962
-1.21186
0.903959
-1.21186
-4.95323e-06
2.15793
-2.57827
-2.63216e-06
2.1579
-2.57823
-4.58484e-06
2.15791
-2.57824
-7.97678e-06
2.15792
-2.57826
-1.71355e-05
2.15794
-2.57828
2.15792
-2.5783
-3.16967e-05
1.48281
1.36508
-4.31349e-05
1.48269
1.3652
-7.48101e-05
1.48269
1.36521
-7.18913e-05
1.48268
1.3652
-8.26775e-05
1.48271
1.36522
1.48269
1.36511
-2.95581e-06
0.621506
1.70333
-3.2373e-05
0.62137
1.70343
3.47768e-05
0.62134
1.7034
8.50879e-05
0.621333
1.70341
9.17199e-05
0.621352
1.70348
0.621431
1.70346
9.47989e-05
0.376123
0.810761
0.000125756
0.376082
0.810782
0.000149705
0.376062
0.810789
0.000117714
0.376079
0.810813
5.56121e-05
0.376114
0.810835
0.37618
0.810812
0.000112993
0.218101
0.456057
0.000140177
0.218112
0.456084
7.87711e-05
0.218146
0.456093
-8.70436e-07
0.218184
0.456089
-3.96707e-05
0.218214
0.456062
0.218258
0.456007
3.11894e-05
0.118915
0.275666
-2.66591e-05
0.118987
0.275673
-9.0621e-05
0.119015
0.275706
-0.000117392
0.119023
0.275745
-9.83972e-05
0.119025
0.275781
0.119025
0.275802
-5.32781e-05
0.0521089
0.187551
-7.58018e-05
0.0521608
0.187582
-7.98034e-05
0.0521696
0.187632
-7.06782e-05
0.0521593
0.187685
-4.62565e-05
0.0521402
0.187738
0.052117
0.187788
-3.49134e-05
0.15981
-9.91081e-06
0.159839
2.2237e-05
0.159861
3.95309e-05
0.15988
3.44304e-05
0.159897
0.159916
-1.21804e-06
-0.0810722
-0.110773
-2.27215e-06
-0.081073
-0.110773
-2.50389e-06
-0.0810741
-0.110773
-1.90331e-06
-0.0810752
-0.110772
-7.73895e-07
-0.0810758
-0.110772
-0.0810755
-0.110772
-5.12777e-07
-0.111791
-0.313417
-8.11189e-07
-0.111792
-0.313417
-6.39252e-07
-0.111794
-0.313416
-3.01327e-07
-0.111796
-0.313415
-2.17703e-07
-0.111796
-0.313413
-0.111796
-0.313412
1.81865e-06
0.0049239
-0.749335
2.52575e-06
0.00492416
-0.749336
2.6895e-06
0.00492296
-0.749334
2.36441e-06
0.00492171
-0.749332
1.78337e-06
0.00492124
-0.74933
0.00492139
-0.749326
1.36447e-06
0.332112
-1.53905
1.32178e-06
0.332112
-1.53905
1.25225e-06
0.33211
-1.53905
1.08657e-06
0.332107
-1.53905
6.98613e-07
0.332107
-1.53905
0.332108
-1.53905
3.43589e-05
-0.621691
-1.6245
3.25181e-05
-0.621676
-1.62444
2.10885e-05
-0.621677
-1.62444
1.42318e-05
-0.62168
-1.62446
-1.64273e-05
-0.62165
-1.62449
-0.62163
-1.62458
-5.85626e-05
-0.805218
1.54867
-8.26353e-05
-0.805222
1.54876
-5.71895e-05
-0.805216
1.54872
-6.08012e-05
-0.805196
1.54872
-6.53577e-05
-0.805161
1.54873
-0.805145
1.54855
-3.37466e-05
-0.287708
1.18586
2.1393e-05
-0.287726
1.18589
0.000124261
-0.287721
1.18582
0.000157265
-0.28768
1.18586
0.000128589
-0.28762
1.18597
-0.287545
1.186
-1.08554e-06
-0.0828511
0.605893
8.86746e-05
-0.0828945
0.60586
0.000111144
-0.0828713
0.605916
8.29629e-05
-0.0828129
0.605966
4.88101e-05
-0.0827402
0.605983
-0.0826471
0.605964
8.21685e-05
-0.0172243
0.390349
4.57226e-05
-0.0172321
0.390463
-3.37742e-05
-0.017205
0.390504
-8.17284e-05
-0.017171
0.390494
-7.50605e-05
-0.0171331
0.390448
-0.0170826
0.390367
-4.67397e-05
0.00271859
0.25578
-0.000170768
0.00274777
0.255819
-0.00025106
0.00275927
0.255824
-0.000258745
0.00276198
0.255822
-0.000181048
0.00276099
0.255811
0.00276288
0.255776
-0.000113799
0.00373787
0.186646
-0.000178491
0.00376229
0.186632
-0.00019507
0.00375849
0.186652
-0.00017278
0.00374392
0.186684
-0.000110549
0.00372279
0.186716
0.00369671
0.186744
-2.87372e-05
0.163575
-7.15498e-06
0.163581
1.97913e-05
0.163595
3.50272e-05
0.16361
3.06945e-05
0.163624
0.163643
-3.70393e-07
-0.259658
0.148885
-6.07788e-07
-0.259659
0.148886
-3.75615e-07
-0.25966
0.148887
1.81098e-07
-0.25966
0.148887
4.2745e-07
-0.25966
0.148887
-0.259659
0.148887
2.87311e-07
-0.50652
-0.066556
-2.03526e-07
-0.506521
-0.0665556
-4.39642e-07
-0.506521
-0.0665548
-1.58363e-07
-0.506521
-0.0665539
1.68058e-07
-0.50652
-0.0665528
-0.506518
-0.0665527
1.28471e-06
-0.408463
-0.847393
-4.30408e-07
-0.408459
-0.847396
-2.05058e-06
-0.408459
-0.847395
-2.69587e-06
-0.408459
-0.847394
-1.4512e-06
-0.408458
-0.847393
-0.408456
-0.84739
1.1212e-06
-0.311859
-1.63566
1.51935e-06
-0.311856
-1.63566
3.4559e-06
-0.311856
-1.63565
4.59194e-06
-0.311855
-1.63565
2.78726e-06
-0.311851
-1.63565
-0.31185
-1.63565
1.58102e-05
-1.67015
-0.266226
3.36809e-05
-1.67015
-0.266165
5.02795e-05
-1.67016
-0.266167
6.57581e-05
-1.67014
-0.266195
4.66147e-05
-1.67009
-0.266234
-1.67005
-0.266323
-1.59604e-05
-1.18457
1.0631
-4.05725e-06
-1.18456
1.06316
2.28663e-05
-1.18457
1.06312
3.05521e-05
-1.18456
1.06312
4.29987e-05
-1.18452
1.06314
-1.18452
1.06306
-4.88047e-05
-0.473211
0.474541
4.84346e-06
-0.473236
0.474509
4.59278e-06
-0.473233
0.474484
-2.15465e-05
-0.473198
0.474526
-1.23435e-05
-0.473165
0.474599
-0.473173
0.474635
1.78474e-05
-0.245945
0.378615
6.0655e-05
-0.245986
0.378581
5.4249e-05
-0.245944
0.378632
5.22074e-05
-0.245896
0.378665
5.05186e-05
-0.245857
0.378679
-0.245831
0.378676
4.04783e-07
-0.110671
0.25508
-2.37077e-05
-0.110657
0.255158
-2.48618e-05
-0.110615
0.255173
-4.82456e-06
-0.110581
0.255158
1.51983e-05
-0.110555
0.255126
-0.110529
0.255081
-6.75816e-05
-0.0466618
0.191837
-0.000144173
-0.0466383
0.191872
-0.000170622
-0.0466292
0.191865
-0.00015111
-0.0466288
0.191851
-8.95416e-05
-0.0466335
0.19183
-0.0466357
0.191794
-7.21856e-05
-0.0169421
0.156994
-0.000123043
-0.0169373
0.156982
-0.000139292
-0.0169479
0.156989
-0.000124451
-0.0169625
0.157004
-7.96311e-05
-0.0169798
0.157018
-0.0169982
0.157027
-5.80067e-06
0.146639
6.14125e-06
0.146634
1.60567e-05
0.146638
1.96742e-05
0.146644
1.40982e-05
0.146649
0.146658
-1.20492e-07
-3.82576e-05
3.83781e-05
-2.49992e-08
-3.82523e-05
3.84069e-05
-4.90277e-09
-3.82434e-05
3.84242e-05
2.03928e-08
-3.82522e-05
3.84145e-05
3.42723e-08
-3.82483e-05
3.84193e-05
-3.82275e-05
3.8447e-05
-1.53467e-07
-7.78759e-05
3.99118e-05
-4.26127e-08
-7.78942e-05
3.99422e-05
3.33027e-09
-7.78994e-05
3.99525e-05
2.74168e-08
-7.78992e-05
3.99513e-05
4.60143e-08
-7.78961e-05
3.9956e-05
-7.78983e-05
3.99801e-05
-2.19354e-07
-0.000120294
4.27888e-05
-6.11786e-08
-0.000120319
4.28283e-05
1.92896e-10
-0.000120329
4.28361e-05
4.2649e-08
-0.000120329
4.28367e-05
7.37734e-08
-0.000120324
4.28451e-05
-0.000120325
4.28753e-05
-3.25188e-07
-0.000166338
4.65904e-05
-8.86815e-08
-0.000166367
4.66395e-05
6.13101e-09
-0.000166379
4.66472e-05
6.74622e-08
-0.000166377
4.66523e-05
1.10128e-07
-0.000166369
4.66656e-05
-0.000166366
4.67059e-05
-4.62792e-07
-0.000215966
5.04251e-05
-1.20192e-07
-0.000215987
5.04622e-05
2.25371e-08
-0.000215996
5.04703e-05
1.12045e-07
-0.000215984
5.04773e-05
1.65378e-07
-0.000215965
5.04969e-05
-0.000215953
5.05407e-05
-5.88888e-07
-0.000267226
5.23377e-05
-1.16834e-07
-0.000267216
5.23603e-05
7.86474e-08
-0.000267211
5.2374e-05
1.92558e-07
-0.000267184
5.23908e-05
2.56006e-07
-0.000267157
5.24247e-05
-0.000267134
5.24894e-05
-7.07357e-07
-0.000315905
5.00606e-05
-1.22946e-07
-0.000315844
5.00784e-05
1.19278e-07
-0.000315824
5.00986e-05
2.60434e-07
-0.000315795
5.01335e-05
3.38845e-07
-0.000315772
5.01871e-05
-0.000315753
5.02697e-05
-8.20769e-07
-0.000355825
4.16078e-05
-1.20855e-07
-0.000355772
4.16465e-05
1.75097e-07
-0.00035574
4.16812e-05
3.46954e-07
-0.000355702
4.17208e-05
4.34944e-07
-0.000355666
4.17714e-05
-0.000355637
4.18468e-05
-8.14713e-07
-0.000376802
2.28347e-05
-3.66368e-08
-0.000376735
2.28765e-05
2.77455e-07
-0.00037667
2.29207e-05
4.55457e-07
-0.00037662
2.29595e-05
5.40417e-07
-0.000376568
2.30121e-05
-0.000376514
2.30893e-05
-7.2433e-07
-0.000358794
-1.61137e-05
7.46303e-08
-0.00035869
-1.60289e-05
4.00754e-07
-0.000358625
-1.59518e-05
5.89737e-07
-0.00035859
-1.58886e-05
6.62418e-07
-0.000358539
-1.57974e-05
-0.000358467
-1.5667e-05
-5.07776e-07
-0.000257923
-9.91298e-05
2.57275e-07
-0.000257753
-9.89059e-05
5.47505e-07
-0.00025771
-9.88005e-05
6.86397e-07
-0.000257694
-9.87204e-05
7.2226e-07
-0.000257666
-9.86238e-05
-0.000257617
-9.84711e-05
-1.33351e-07
-0.00025656
3.45119e-07
-0.000256338
5.578e-07
-0.000256247
6.66058e-07
-0.000256198
6.9889e-07
-0.000256126
-0.000255988
-1.09241e-07
-3.79884e-05
7.66286e-05
-3.32833e-08
-3.79864e-05
7.66388e-05
1.39098e-09
-3.79839e-05
7.66456e-05
1.83374e-08
-3.79861e-05
7.66456e-05
3.26663e-08
-3.79833e-05
7.66491e-05
-3.79687e-05
7.66501e-05
-1.33221e-07
-7.76238e-05
7.99618e-05
-4.56507e-08
-7.76388e-05
7.99724e-05
-4.93643e-09
-7.76434e-05
7.99743e-05
2.43607e-08
-7.76443e-05
7.9974e-05
5.24693e-08
-7.76389e-05
7.99786e-05
-7.76383e-05
7.99769e-05
-1.82641e-07
-0.000120678
8.6399e-05
-5.27564e-08
-0.000120696
8.64138e-05
4.43217e-09
-0.000120706
8.64122e-05
4.47096e-08
-0.000120702
8.64129e-05
8.90979e-08
-0.000120695
8.64173e-05
-0.00012069
8.64163e-05
-2.58914e-07
-0.000168679
9.54033e-05
-5.49402e-08
-0.000168694
9.54135e-05
2.53779e-08
-0.000168701
9.54135e-05
8.73716e-08
-0.000168692
9.54129e-05
1.49508e-07
-0.000168675
9.54177e-05
-0.000168661
9.54177e-05
-3.32007e-07
-0.000222948
0.000105837
-3.72995e-08
-0.000222957
0.000105837
7.98564e-08
-0.000222957
0.000105837
1.65705e-07
-0.000222938
0.000105838
2.51898e-07
-0.000222912
0.000105846
-0.000222889
0.000105852
-3.97227e-07
-0.000285413
0.000116328
-9.09985e-09
-0.000285406
0.000116324
1.53913e-07
-0.000285406
0.000116325
2.67764e-07
-0.000285372
0.000116335
3.79925e-07
-0.000285332
0.000116352
-0.000285294
0.000116369
-4.69071e-07
-0.000358874
0.000125461
3.61461e-08
-0.000358889
0.000125456
2.42986e-07
-0.00035888
0.000125471
3.96211e-07
-0.000358825
0.000125488
5.39796e-07
-0.000358758
0.000125511
-0.000358679
0.000125532
-4.57391e-07
-0.000437654
0.000122639
9.79719e-08
-0.000437598
0.000122617
2.97541e-07
-0.000437558
0.000122638
4.64321e-07
-0.000437516
0.000122661
6.38325e-07
-0.000437465
0.000122701
-0.00043742
0.00012275
-4.34912e-07
-0.000494189
8.18473e-05
1.65594e-07
-0.000494089
8.18346e-05
4.10105e-07
-0.000494031
8.18622e-05
6.06632e-07
-0.000494001
8.18917e-05
7.99079e-07
-0.000493967
8.19393e-05
-0.000493919
8.20024e-05
-2.78379e-07
-0.00047963
-2.82156e-05
2.69846e-07
-0.000479479
-2.80943e-05
4.76816e-07
-0.000479417
-2.80257e-05
6.33327e-07
-0.000479382
-2.79879e-05
8.14953e-07
-0.000479336
-2.79608e-05
-0.00047927
-2.79467e-05
-6.00003e-08
-0.000358005
-0.000218513
4.68645e-07
-0.000357763
-0.00021825
6.40399e-07
-0.000357681
-0.000218131
7.62927e-07
-0.000357653
-0.000218072
9.03844e-07
-0.000357608
-0.000218028
-0.000357525
-0.000217984
1.42829e-07
-0.00061271
4.36834e-07
-0.000612427
6.10063e-07
-0.000612323
7.48449e-07
-0.000612277
9.43885e-07
-0.000612265
-0.000612252
-8.25611e-08
-3.60665e-05
0.000112901
-2.37495e-08
-3.60634e-05
0.000112912
3.54681e-09
-3.60652e-05
0.000112913
2.61636e-08
-3.60662e-05
0.000112911
4.54737e-08
-3.6061e-05
0.000112912
-3.60473e-05
0.000112911
-9.42321e-08
-7.4162e-05
0.000118388
-1.78333e-08
-7.41699e-05
0.0001184
1.58039e-08
-7.4175e-05
0.000118396
4.11129e-08
-7.41729e-05
0.000118394
6.93723e-08
-7.41649e-05
0.000118395
-7.41596e-05
0.000118391
-1.35911e-07
-0.000116498
0.000129186
-1.68849e-08
-0.000116509
0.000129198
3.02242e-08
-0.000116513
0.000129194
6.7265e-08
-0.000116507
0.000129192
1.08275e-07
-0.000116496
0.000129191
-0.000116484
0.000129187
-1.90278e-07
-0.000165152
0.000144721
-1.16522e-08
-0.000165162
0.000144729
6.19934e-08
-0.000165164
0.000144725
1.17723e-07
-0.000165152
0.000144721
1.72152e-07
-0.000165131
0.00014472
-0.000165112
0.000144717
-2.41347e-07
-0.000221379
0.000163002
1.27996e-08
-0.000221379
0.000163006
1.17604e-07
-0.000221379
0.000163003
1.92168e-07
-0.000221357
0.000163001
2.65553e-07
-0.00022133
0.000163003
-0.000221305
0.000163006
-2.86182e-07
-0.000282687
0.000178893
5.29823e-08
-0.00028267
0.000178896
1.83908e-07
-0.000282663
0.000178899
2.80054e-07
-0.000282634
0.000178904
3.76213e-07
-0.000282605
0.000178912
-0.00028258
0.000178925
-3.15537e-07
-0.000341414
0.000185766
9.33188e-08
-0.000341371
0.000185768
2.48983e-07
-0.000341352
0.000185781
3.68783e-07
-0.000341326
0.000185792
4.90973e-07
-0.000341305
0.000185809
-0.000341299
0.000185829
-2.91292e-07
-0.000393381
0.00017642
1.44929e-07
-0.000393307
0.000176429
3.05255e-07
-0.000393269
0.00017644
4.35452e-07
-0.000393242
0.000176441
5.81245e-07
-0.000393223
0.000176448
-0.000393222
0.000176456
-1.69988e-07
-0.000448571
0.000138909
2.66613e-07
-0.000448448
0.00013893
4.34913e-07
-0.000448386
0.000138942
5.70993e-07
-0.000448346
0.000138939
7.08227e-07
-0.000448307
0.000138945
-0.000448289
0.000138959
1.53156e-07
-0.000482021
6.82211e-06
5.47944e-07
-0.000481738
6.95397e-06
6.9797e-07
-0.000481641
7.01413e-06
8.03455e-07
-0.000481602
7.04354e-06
8.88201e-07
-0.000481577
7.07889e-06
-0.000481575
7.13928e-06
4.9842e-07
-0.000435916
-0.00026351
7.49993e-07
-0.000435562
-0.000263075
8.20201e-07
-0.000435476
-0.000262933
8.34916e-07
-0.000435451
-0.000262867
8.46894e-07
-0.000435451
-0.000262847
-0.000435472
-0.000262839
5.63199e-07
-0.00104793
6.01307e-07
-0.00104737
6.22662e-07
-0.00104723
6.55931e-07
-0.00104721
7.10853e-07
-0.00104728
-0.00104742
-6.16687e-08
-3.22132e-05
0.000145287
-1.44333e-08
-3.22096e-05
0.000145301
9.75159e-09
-3.22141e-05
0.000145297
2.95465e-08
-3.2214e-05
0.000145293
4.50005e-08
-3.22085e-05
0.000145294
-3.21972e-05
0.000145292
-6.79607e-08
-6.68307e-05
0.000153278
5.35306e-10
-6.68368e-05
0.000153291
2.85541e-08
-6.68401e-05
0.000153285
4.89357e-08
-6.68367e-05
0.000153282
7.03153e-08
-6.68284e-05
0.000153281
-6.68221e-05
0.000153276
-9.60381e-08
-0.000106734
0.000169462
4.16074e-09
-0.000106742
0.000169475
4.39907e-08
-0.000106743
0.00016947
7.39551e-08
-0.000106736
0.000169466
1.04994e-07
-0.000106724
0.000169463
-0.000106711
0.000169458
-1.29607e-07
-0.000155704
0.000194233
1.83635e-08
-0.000155708
0.000194246
7.75264e-08
-0.000155706
0.000194242
1.20179e-07
-0.000155693
0.000194237
1.61488e-07
-0.000155674
0.000194233
-0.000155655
0.000194228
-1.6423e-07
-0.000220037
0.000228105
4.15407e-08
-0.000220029
0.000228117
1.21241e-07
-0.000220025
0.000228116
1.78196e-07
-0.000220005
0.000228111
2.36207e-07
-0.000219982
0.000228107
-0.000219961
0.000228104
-1.9533e-07
-0.000311434
0.00027132
6.64207e-08
-0.000311409
0.000271335
1.63388e-07
-0.000311399
0.000271339
2.36957e-07
-0.000311374
0.000271334
3.16822e-07
-0.000311351
0.000271329
-0.000311335
0.000271323
-2.05079e-07
-0.000442093
0.000317699
1.0191e-07
-0.00044205
0.000317711
2.1401e-07
-0.000442025
0.000317717
3.08424e-07
-0.000441998
0.000317709
4.12124e-07
-0.000441972
0.000317703
-0.000441961
0.000317697
-1.72207e-07
-0.000616158
0.000351913
1.57412e-07
-0.000616078
0.00035189
2.90002e-07
-0.000616045
0.000351899
3.99978e-07
-0.000616028
0.000351896
5.18416e-07
-0.000616024
0.000351903
-0.000616043
0.000351925
5.84911e-08
-0.000787018
0.000311046
3.43824e-07
-0.000786851
0.000311058
4.46458e-07
-0.000786779
0.000311053
5.27191e-07
-0.000786754
0.000311029
6.16725e-07
-0.000786756
0.000311016
-0.00078678
0.000311018
4.40507e-07
-0.000942737
0.000163328
5.48038e-07
-0.000942375
0.000163423
5.58374e-07
-0.000942233
0.000163419
5.5517e-07
-0.00094218
0.000163395
5.937e-07
-0.000942191
0.000163364
-0.000942238
0.000163353
8.3719e-07
-0.000916531
-0.000289703
7.13801e-07
-0.0009161
-0.000289253
5.82609e-07
-0.000915932
-0.000289127
4.49858e-07
-0.000915888
-0.000289096
3.53323e-07
-0.00091597
-0.000289111
-0.000916239
-0.000289162
9.12817e-07
-0.00196514
5.59895e-07
-0.00196414
4.2393e-07
-0.00196391
3.56472e-07
-0.00196393
2.75991e-07
-0.00196413
-0.0019645
1.7531e-06
0.727096
-0.578212
1.24001e-06
0.727099
-0.578212
6.89154e-07
0.727099
-0.578212
7.17629e-07
0.727099
-0.578212
8.86908e-07
0.727099
-0.578212
0.727099
-0.578211
6.63462e-06
1.34462
-0.617534
3.93219e-06
1.34463
-0.617524
2.54465e-06
1.34462
-0.617524
1.68647e-06
1.34462
-0.617524
1.30176e-06
1.34462
-0.617525
1.34462
-0.617522
1.01158e-05
-1.1739
7.24182e-06
-1.17389
4.82979e-06
-1.17389
4.31426e-06
-1.17389
4.62515e-06
-1.17389
-1.17388
3.15215e-06
0.39873
-1.0435
1.30574e-06
0.398731
-1.0435
6.30858e-08
0.398731
-1.0435
-2.70939e-07
0.398731
-1.0435
4.51807e-07
0.398731
-1.0435
0.39873
-1.04349
1.48617e-06
1.69842
-1.91722
1.39341e-06
1.69842
-1.91722
1.25354e-06
1.69842
-1.91722
1.38458e-06
1.69842
-1.91722
1.99264e-06
1.69842
-1.91722
1.69842
-1.91721
-7.34327e-06
-3.49432
-5.02922e-06
-3.49431
1.05451e-06
-3.49431
2.94768e-06
-3.49431
4.52002e-06
-3.49431
-3.49429
-1.64824e-07
-0.686799
-1.2041
-1.26739e-06
-0.686801
-1.20409
-1.7745e-06
-0.686801
-1.20409
-1.84243e-06
-0.686801
-1.20409
-9.22153e-07
-0.686801
-1.20409
-0.6868
-1.20408
-1.55438e-06
1.18788
-3.7919
-2.97515e-06
1.18788
-3.7919
-5.81625e-07
1.18788
-3.7919
2.44871e-06
1.18788
-3.7919
1.90422e-06
1.18788
-3.7919
1.18789
-3.79189
-7.84974e-09
-6.72396
-2.29887e-06
-6.72395
3.04821e-06
-6.72396
8.4643e-06
-6.72395
3.84368e-06
-6.72394
-6.72393
6.06718e-07
-1.42577
-1.41398
-2.18508e-06
-1.42577
-1.41397
1.16073e-06
-1.42577
-1.41398
5.04866e-06
-1.42577
-1.41398
1.41332e-06
-1.42577
-1.41397
-1.42575
-1.41398
-2.7743e-07
-2.65259
-2.56508
-2.1878e-05
-2.6526
-2.56505
-1.56199e-05
-2.6526
-2.56508
-8.59019e-06
-2.6526
-2.56508
-2.71407e-05
-2.6526
-2.56505
-2.65259
-2.56508
1.03615e-05
-4.52676
9.89495e-06
-4.52677
1.80816e-05
-4.52677
2.04371e-05
-4.52677
6.77264e-06
-4.52674
-4.52671
-1.51026e-05
0.127663
-1.80786
2.69001e-05
0.127679
-1.80785
6.53268e-05
0.127677
-1.80786
8.43175e-05
0.127667
-1.80786
7.88831e-05
0.127662
-1.80786
0.127674
-1.80789
-2.94867e-05
-1.14688
-1.29051
-3.08412e-05
-1.14689
-1.29049
-1.90889e-05
-1.1469
-1.29051
-1.31416e-05
-1.1469
-1.29051
-1.32363e-05
-1.1469
-1.29049
-1.14689
-1.29053
-1.07921e-05
-2.00954
-1.83394e-05
-2.00955
-3.06447e-05
-2.00954
-4.26541e-05
-2.00954
-3.03422e-05
-2.00953
-2.00951
-2.80581e-05
0.263195
-1.00793
1.00188e-05
0.263211
-1.00794
2.31227e-05
0.263197
-1.00795
3.90909e-05
0.263195
-1.00795
7.09438e-05
0.263202
-1.00795
0.26319
-1.00795
-1.91291e-05
-0.448254
-0.57904
9.97482e-06
-0.448264
-0.579047
1.33365e-05
-0.448268
-0.579052
1.70538e-05
-0.448265
-0.579049
4.04089e-05
-0.448263
-0.579049
-0.448249
-0.579046
-1.84827e-05
-0.889385
-1.69282e-05
-0.889388
-1.87076e-05
-0.889388
-1.55831e-05
-0.889387
-4.22477e-06
-0.889384
-0.889374
-8.16979e-08
-0.0324118
-0.500973
-7.8789e-06
-0.0324345
-0.500984
-4.8329e-05
-0.0324393
-0.500989
-6.17345e-05
-0.0324237
-0.500986
-3.24563e-05
-0.0324009
-0.500978
-0.0323815
-0.500964
-6.69439e-06
-0.157314
-0.454128
-1.31274e-05
-0.157327
-0.454141
-2.89079e-05
-0.157327
-0.454144
-2.86999e-05
-0.157322
-0.454145
-1.19835e-05
-0.157317
-0.454145
-0.157305
-0.454132
-9.75313e-06
-0.572728
-7.75437e-06
-0.572736
-5.72629e-06
-0.572736
-4.55493e-06
-0.572736
1.16328e-06
-0.572736
-0.572726
-2.19709e-06
0.138676
-0.261031
-3.08097e-05
0.138668
-0.261043
-3.98445e-05
0.138684
-0.261035
-2.84122e-05
0.138695
-0.261025
-1.15021e-05
0.138699
-0.261014
0.138701
-0.261
-6.28448e-06
-0.102994
-0.21245
-2.04277e-05
-0.103002
-0.21246
-2.01348e-05
-0.102998
-0.21246
-1.23407e-05
-0.102995
-0.212458
-4.69233e-06
-0.102993
-0.212456
-0.102986
-0.212448
-2.27384e-06
-0.244805
-4.91253e-06
-0.244809
-4.13258e-06
-0.244809
-2.87641e-06
-0.244809
-8.52325e-07
-0.244808
-0.244804
-2.77126e-05
0.108281
-0.114204
-2.20418e-05
0.108309
-0.114206
-1.19448e-06
0.108319
-0.114202
1.66125e-05
0.108317
-0.1142
2.10374e-05
0.10831
-0.114199
0.108299
-0.114194
-2.22551e-05
0.0022933
-0.106442
-1.95913e-05
0.002292
-0.106445
-8.84511e-06
0.00229438
-0.106443
5.81178e-07
0.0022947
-0.106441
5.63957e-06
0.00229312
-0.106441
0.00229623
-0.106436
-3.26215e-06
-0.123265
-2.25988e-06
-0.123267
-5.99994e-07
-0.123267
7.30082e-07
-0.123266
1.68804e-06
-0.123266
-0.123263
-1.6503e-05
0.115648
-0.0380021
-6.06514e-06
0.115657
-0.0380008
8.34186e-06
0.115656
-0.0380035
1.91436e-05
0.115653
-0.0380085
2.08206e-05
0.115648
-0.038015
0.11564
-0.0380187
-7.37515e-06
0.0532243
-0.0440103
-2.42251e-06
0.0532235
-0.0440106
2.18073e-06
0.0532238
-0.0440103
5.84297e-06
0.0532233
-0.044011
6.66209e-06
0.0532217
-0.0440122
0.0532231
-0.0440113
-1.19102e-06
-0.0529489
-1.6196e-07
-0.0529498
6.63867e-07
-0.0529499
1.30319e-06
-0.0529501
1.45556e-06
-0.0529505
-0.0529495
-1.71219e-06
0.106849
0.0121447
-7.60195e-06
0.106847
0.0121449
-1.27094e-05
0.106848
0.0121451
-1.19736e-05
0.106852
0.0121449
-6.96688e-06
0.106855
0.012144
0.106857
0.012144
-2.62343e-07
0.0706817
-0.0078381
-1.6996e-09
0.0706795
-0.00783888
-5.08105e-07
0.0706799
-0.00783874
-2.18508e-07
0.0706808
-0.00783878
5.93488e-07
0.0706815
-0.00783902
0.0706841
-0.0078381
4.84247e-07
-0.0180658
2.75134e-07
-0.0180664
7.17163e-08
-0.0180665
-1.83185e-08
-0.0180666
3.99701e-08
-0.0180668
-0.0180662
-1.45425e-06
0.0927453
0.0660433
-5.79822e-06
0.0927421
0.0660423
-8.62947e-06
0.0927422
0.0660433
-9.1336e-06
0.092743
0.0660446
-7.02577e-06
0.0927438
0.0660459
0.0927456
0.0660483
2.38043e-06
0.0641204
0.0207864
1.42785e-06
0.0641186
0.0207852
3.87827e-07
0.0641186
0.020785
-2.88724e-07
0.0641188
0.0207848
-4.91879e-07
0.0641191
0.0207848
0.0641207
0.0207857
1.95826e-07
-0.000774896
-2.02928e-07
-0.000775458
-4.35354e-07
-0.000775616
-5.47336e-07
-0.000775705
-5.04395e-07
-0.000775732
-0.000775452
9.62205e-07
0.00260414
-0.00988645
0.00728136
-2.57339e-07
0.002604
-0.00988652
0.00728097
-5.43683e-07
0.00260394
-0.00988672
0.00728084
-5.76079e-07
0.00260393
-0.00988691
0.00728093
-4.39947e-07
0.00260393
-0.00988709
0.00728103
0.00260396
-0.00988751
0.00728122
5.65598e-07
0.00441058
-0.00648862
0.00468041
-2.95665e-07
0.00441047
-0.00648874
0.00468014
-5.02531e-07
0.00441047
-0.00648893
0.00468011
-5.73855e-07
0.00441054
-0.0064891
0.0046802
-5.28649e-07
0.00441062
-0.00648922
0.00468025
0.00441074
-0.00648949
0.00468037
1.61205e-07
-0.00209612
0.00163212
-7.69645e-08
-0.00209617
0.00163206
-1.33641e-07
-0.00209621
0.00163204
-1.67676e-07
-0.00209624
0.00163205
-1.85783e-07
-0.00209626
0.00163204
-0.00209633
0.00163206
2.86707e-07
0.00397699
-0.013866
-4.62954e-07
0.00397691
-0.0138658
-8.02378e-07
0.00397693
-0.013866
-9.22521e-07
0.00397696
-0.0138662
-8.63904e-07
0.00397697
-0.0138663
0.00397702
-0.0138667
-1.28206e-07
0.00632648
-0.00884056
-5.83864e-07
0.00632646
-0.00884039
-7.7317e-07
0.00632646
-0.00884043
-8.52466e-07
0.00632653
-0.00884053
-8.15863e-07
0.00632662
-0.00884057
0.00632677
-0.00884068
-1.25431e-07
-0.0025964
-1.60633e-07
-0.00259631
-1.93492e-07
-0.00259635
-2.35854e-07
-0.0025964
-2.37266e-07
-0.00259642
-0.00259646
-5.99668e-08
0.0060218
-0.0198892
-7.06589e-07
0.00602165
-0.0198887
-1.03761e-06
0.00602165
-0.0198888
-1.11778e-06
0.00602168
-0.019889
-9.34966e-07
0.00602175
-0.0198891
0.00602193
-0.0198895
-2.92882e-07
0.00895268
-0.0117725
-7.09013e-07
0.00895255
-0.0117721
-8.70229e-07
0.00895261
-0.0117721
-8.84719e-07
0.00895275
-0.0117721
-6.84174e-07
0.00895289
-0.0117721
0.0089532
-0.0117723
-1.52847e-07
-0.00306155
-2.18307e-07
-0.00306139
-2.67986e-07
-0.00306142
-2.65829e-07
-0.00306146
-1.90486e-07
-0.00306146
-0.00306155
-2.10017e-07
0.00922113
-0.029111
-8.57175e-07
0.00922097
-0.0291104
-1.24864e-06
0.00922098
-0.0291107
-1.23568e-06
0.00922104
-0.0291109
-7.67096e-07
0.00922114
-0.0291111
0.00922137
-0.0291117
-1.02893e-07
0.01262
-0.0151721
-6.63906e-07
0.0126198
-0.0151715
-8.92785e-07
0.0126199
-0.0151715
-8.30719e-07
0.01262
-0.0151714
-4.43473e-07
0.0126202
-0.0151714
0.0126206
-0.0151718
-1.06731e-07
-0.00320618
-2.51608e-07
-0.00320598
-2.98971e-07
-0.003206
-2.44666e-07
-0.00320601
-7.2288e-08
-0.00320604
-0.00320624
4.09142e-08
0.0141195
-0.0432312
-7.93448e-07
0.0141193
-0.0432303
-1.29143e-06
0.0141193
-0.0432307
-1.30214e-06
0.0141194
-0.0432312
-8.66396e-07
0.0141196
-0.0432317
0.0141199
-0.0432331
1.47401e-07
0.0176124
-0.018666
-5.34031e-07
0.017612
-0.0186652
-8.16837e-07
0.0176121
-0.0186651
-7.54289e-07
0.0176123
-0.0186649
-4.47785e-07
0.0176124
-0.0186649
0.0176129
-0.0186657
-7.37715e-08
-0.00245581
-2.80754e-07
-0.00245555
-3.17856e-07
-0.00245551
-2.48996e-07
-0.00245551
-1.08579e-07
-0.00245554
-0.00245583
-5.75246e-07
0.0228118
-1.79582e-06
0.0228115
-2.53528e-06
0.0228117
-2.55398e-06
0.0228121
-1.87575e-06
0.0228124
0.022813
-2.12064e-07
0.0249311
-6.96123e-07
0.0249306
-1.01377e-06
0.0249308
-1.01233e-06
0.024931
-8.11753e-07
0.0249313
0.0249321
-1.82954e-07
-3.1606e-07
-3.76962e-07
-3.59799e-07
-2.67765e-07
-3.80465e-08
0.000168572
-2.3152e-05
-3.17856e-09
0.000168588
-2.31481e-05
1.61291e-08
0.00016858
-2.3153e-05
2.95574e-08
0.000168578
-2.31521e-05
4.04068e-08
0.000168577
-2.31482e-05
0.000168576
-2.31402e-05
-1.10849e-08
0.000183402
-1.47471e-05
1.35004e-08
0.000183418
-1.47455e-05
2.20608e-08
0.000183415
-1.47473e-05
2.75532e-08
0.000183413
-1.47468e-05
3.30121e-08
0.000183411
-1.47446e-05
0.000183409
-1.47396e-05
4.79392e-09
-5.14068e-06
1.52388e-08
-5.13988e-06
1.78835e-08
-5.14007e-06
1.97104e-08
-5.14e-06
2.12766e-08
-5.13941e-06
-5.13786e-06
-3.72074e-08
0.000178507
-4.81773e-05
1.60495e-08
0.000178521
-4.81788e-05
3.41929e-08
0.000178516
-4.81804e-05
4.74503e-08
0.000178513
-4.8178e-05
6.21928e-08
0.000178511
-4.81724e-05
0.000178506
-4.81686e-05
-9.4918e-09
0.000194747
-3.08607e-05
2.15005e-08
0.000194761
-3.08602e-05
3.16496e-08
0.00019476
-3.08606e-05
3.90731e-08
0.000194757
-3.08589e-05
4.79681e-08
0.000194752
-3.08549e-05
0.000194746
-3.08518e-05
3.87939e-09
-1.08133e-05
1.59716e-08
-1.08129e-05
2.03146e-08
-1.08124e-05
2.38285e-08
-1.08116e-05
2.73386e-08
-1.08099e-05
-1.08081e-05
-5.53424e-08
0.000198984
-7.742e-05
1.85032e-08
0.000199
-7.74215e-05
4.61318e-08
0.000198997
-7.74212e-05
6.68916e-08
0.000198993
-7.74164e-05
8.95806e-08
0.000198989
-7.74087e-05
0.000198983
-7.74014e-05
-1.99618e-08
0.000218424
-5.01205e-05
2.38293e-08
0.000218437
-5.01201e-05
4.03822e-08
0.000218437
-5.01188e-05
5.25332e-08
0.000218432
-5.01149e-05
6.72389e-08
0.000218425
-5.01091e-05
0.000218418
-5.01033e-05
3.76411e-09
-1.77246e-05
1.80594e-08
-1.77236e-05
2.42273e-08
-1.77225e-05
2.97998e-08
-1.77206e-05
3.62106e-08
-1.77176e-05
-1.77147e-05
-7.62078e-08
0.000231304
-0.00011408
2.96909e-08
0.000231321
-0.000114078
7.16149e-08
0.000231319
-0.000114077
1.02351e-07
0.000231314
-0.000114069
1.34138e-07
0.000231307
-0.000114059
0.000231299
-0.000114049
-2.75413e-08
0.000256709
-7.52629e-05
3.34356e-08
0.000256723
-7.52598e-05
5.81625e-08
0.000256723
-7.52573e-05
7.7593e-08
0.000256716
-7.52512e-05
9.88726e-08
0.000256706
-7.52432e-05
0.000256695
-7.52364e-05
4.72069e-09
-2.70067e-05
2.30694e-08
-2.70047e-05
3.14179e-08
-2.70028e-05
3.97638e-08
-2.7e-05
5.05771e-08
-2.69963e-05
-2.69934e-05
-9.71565e-08
0.000277461
-0.000162854
4.73908e-08
0.000277479
-0.000162847
1.04508e-07
0.000277479
-0.000162846
1.47024e-07
0.000277471
-0.000162835
1.92087e-07
0.000277461
-0.000162823
0.000277451
-0.000162814
-3.15178e-08