/*--------------------------------*- C++ -*----------------------------------*\
| =========                 |                                                 |
| \\      /  F ield         | OpenFOAM: The Open Source CFD Toolbox           |
|  \\    /   O peration     | Version:  v1612+                                |
|   \\  /    A nd           | Web:      www.OpenFOAM.com                      |
|    \\/     M anipulation  |                                                 |
\*---------------------------------------------------------------------------*/
FoamFile
{
    version     2.0;
    format      ascii;
    class       volVectorField;
    location    "0.8";
    object      U;
}
// * * * * * * * * * * * * * * * * * * * * * * * * * * * * * * * * * * * * * //

dimensions      [0 1 -1 0 0 0 0];

internalField   nonuniform List<vector> 
1116
(
(0.143113 1.60612e-08 -0.151729)
(0.143114 -2.17483e-07 -0.151729)
(0.143114 -5.43239e-07 -0.15173)
(0.143114 -6.05423e-07 -0.15173)
(0.143114 -4.14185e-07 -0.15173)
(0.143114 -1.2839e-07 -0.15173)
(0.36735 3.04085e-07 -0.244181)
(0.367352 6.32555e-07 -0.244182)
(0.367352 1.08891e-06 -0.244182)
(0.367351 1.3517e-06 -0.244181)
(0.367351 1.18153e-06 -0.24418)
(0.36735 3.68248e-07 -0.244179)
(1.16989 5.43026e-07 -0.425604)
(1.16989 1.25126e-06 -0.425604)
(1.16989 1.81665e-06 -0.425604)
(1.16989 2.07483e-06 -0.425603)
(1.16989 1.65123e-06 -0.425602)
(1.16988 5.17099e-07 -0.4256)
(1.66452 3.0482e-07 -0.846473)
(1.66453 6.7261e-07 -0.846473)
(1.66453 7.64729e-07 -0.846473)
(1.66452 1.20299e-06 -0.846474)
(1.66452 1.30538e-06 -0.846474)
(1.66452 7.6298e-07 -0.846472)
(3.20213 3.04154e-06 -1.22676)
(3.20214 1.7668e-06 -1.22675)
(3.20214 -5.8109e-06 -1.22675)
(3.20214 -6.8769e-06 -1.22675)
(3.20215 -1.16652e-05 -1.22675)
(3.20214 -7.12952e-06 -1.22675)
(5.44662 6.54087e-06 -0.921643)
(5.4466 6.19121e-06 -0.921644)
(5.44661 -1.34979e-05 -0.921643)
(5.44662 -1.12365e-05 -0.921642)
(5.44663 -2.56158e-05 -0.921647)
(5.44662 -1.12314e-05 -0.921631)
(4.43569 9.78432e-06 0.396605)
(4.43556 2.54071e-05 0.396687)
(4.43555 -6.17182e-06 0.396727)
(4.43555 7.17306e-06 0.396708)
(4.43554 9.0345e-06 0.396727)
(4.43549 6.74737e-06 0.396725)
(1.78285 3.8677e-05 0.591713)
(1.78273 8.53945e-05 0.591808)
(1.78265 7.19458e-05 0.591792)
(1.78263 5.92737e-05 0.59178)
(1.78262 4.28383e-05 0.591778)
(1.78262 1.47281e-05 0.591717)
(1.11235 2.00809e-05 0.331059)
(1.11231 6.78865e-05 0.330986)
(1.1123 8.71929e-05 0.330964)
(1.11235 7.20876e-05 0.330974)
(1.1124 4.89339e-05 0.330981)
(1.11244 1.83361e-05 0.330978)
(0.651089 4.62945e-05 0.193203)
(0.65121 0.000116649 0.193158)
(0.651269 0.000148912 0.193195)
(0.651327 0.000148132 0.19326)
(0.651378 0.000116204 0.193325)
(0.651422 4.80387e-05 0.193394)
(0.352372 4.495e-05 0.13217)
(0.352521 0.00010497 0.132248)
(0.352565 0.000128281 0.132319)
(0.352574 0.000130646 0.132385)
(0.352573 0.000104455 0.132447)
(0.352578 4.28422e-05 0.13251)
(0.132216 1.63396e-05 0.118814)
(0.132275 4.91236e-05 0.118868)
(0.132283 7.58403e-05 0.118891)
(0.132274 8.4958e-05 0.118906)
(0.132261 6.88483e-05 0.11892)
(0.132256 2.7177e-05 0.118937)
(0.0595105 -3.01163e-07 -0.354901)
(0.0595107 -1.10007e-06 -0.354902)
(0.0595101 -1.8589e-06 -0.354902)
(0.0595092 -1.95821e-06 -0.354902)
(0.0595083 -1.40873e-06 -0.354902)
(0.059508 -4.90105e-07 -0.354902)
(0.128397 3.47874e-08 -0.594256)
(0.128398 -2.71047e-08 -0.594257)
(0.128396 5.38591e-08 -0.594256)
(0.128393 2.37265e-07 -0.594255)
(0.128391 -2.44745e-08 -0.594253)
(0.12839 -1.9192e-07 -0.594251)
(0.649173 2.5472e-07 -1.03005)
(0.649174 1.21969e-06 -1.03005)
(0.649171 2.34754e-06 -1.03004)
(0.649168 2.6886e-06 -1.03004)
(0.649165 1.98293e-06 -1.03004)
(0.649163 7.3591e-07 -1.03004)
(0.657211 3.89181e-07 -1.98311)
(0.657211 1.54898e-06 -1.98311)
(0.657208 2.03449e-06 -1.98311)
(0.657205 2.33915e-06 -1.98311)
(0.657202 1.07149e-06 -1.98311)
(0.6572 2.82151e-07 -1.9831)
(1.76401 -2.69836e-06 -3.43197)
(1.76402 -3.7168e-06 -3.43192)
(1.76401 -3.0172e-06 -3.43192)
(1.76401 -4.56128e-06 -3.43193)
(1.76401 -1.3844e-05 -3.43196)
(1.76399 -1.42588e-05 -3.43199)
(7.15428 -5.53916e-05 2.40837)
(7.15412 -1.77254e-05 2.40847)
(7.15417 -5.35919e-05 2.40848)
(7.15418 -7.01981e-05 2.40846)
(7.15428 -9.8369e-05 2.40851)
(7.1541 -5.85715e-05 2.40844)
(0.747214 -2.43354e-05 2.93049)
(0.746941 -1.84879e-05 2.93074)
(0.746902 -3.69131e-06 2.93074)
(0.746868 7.3946e-05 2.93073)
(0.746898 8.60268e-05 2.93081)
(0.747048 3.16873e-05 2.93074)
(1.33725 4.42977e-05 1.50945)
(1.33712 0.000110316 1.50953)
(1.33706 0.000139716 1.50951)
(1.33707 0.000141165 1.50953)
(1.33711 8.83892e-05 1.50956)
(1.33721 2.02386e-05 1.50951)
(0.693715 7.63217e-05 0.795142)
(0.693631 0.000144961 0.79508)
(0.693634 0.000107423 0.795062)
(0.693706 3.49553e-05 0.795067)
(0.693795 -3.11746e-05 0.795043)
(0.693923 -2.67307e-05 0.794986)
(0.408416 4.47979e-05 0.470282)
(0.408538 1.93391e-05 0.470262)
(0.408612 -7.05298e-05 0.470338)
(0.408671 -0.000105153 0.47044)
(0.408732 -0.000112707 0.470541)
(0.408801 -5.24887e-05 0.470633)
(0.23094 -2.73483e-05 0.31779)
(0.231132 -6.76565e-05 0.317896)
(0.231205 -8.12113e-05 0.318014)
(0.231229 -7.70948e-05 0.318126)
(0.231235 -6.19324e-05 0.318237)
(0.231236 -2.57033e-05 0.318346)
(0.114962 -2.80919e-05 0.275099)
(0.115052 -3.14085e-05 0.275181)
(0.115073 7.73012e-06 0.275229)
(0.115068 3.19029e-05 0.275265)
(0.115054 3.88384e-05 0.275299)
(0.115037 1.80378e-05 0.275337)
(-0.0851286 -5.66118e-07 -0.330062)
(-0.0851296 -1.73801e-06 -0.330062)
(-0.0851308 -2.34715e-06 -0.330062)
(-0.0851321 -2.11545e-06 -0.330061)
(-0.0851329 -1.32079e-06 -0.33006)
(-0.0851326 -4.3992e-07 -0.330059)
(-0.251816 -2.12925e-07 -0.656272)
(-0.251818 -6.6325e-07 -0.656273)
(-0.251821 -7.08252e-07 -0.656271)
(-0.251823 -4.25026e-07 -0.656268)
(-0.251824 -2.47072e-07 -0.656266)
(-0.251823 -6.62139e-08 -0.656263)
(-0.14115 6.24825e-07 -1.32637)
(-0.141152 2.30985e-06 -1.32637)
(-0.141155 2.80711e-06 -1.32637)
(-0.141158 2.37911e-06 -1.32637)
(-0.141159 1.87621e-06 -1.32636)
(-0.141159 1.05594e-06 -1.32636)
(-0.164086 8.42753e-07 -2.63469)
(-0.164083 1.38371e-06 -2.63469)
(-0.164084 1.23338e-06 -2.63469)
(-0.164086 1.0966e-06 -2.63469)
(-0.164086 8.59962e-07 -2.63469)
(-0.164086 2.88047e-07 -2.63468)
(0.216462 2.83772e-05 -4.65561)
(0.21647 2.38926e-05 -4.65556)
(0.216461 2.82031e-05 -4.65557)
(0.216449 1.78434e-05 -4.6556)
(0.216443 4.3156e-06 -4.65565)
(0.216446 -2.16422e-05 -4.65569)
(-1.60872 -0.000107774 4.21827)
(-1.60865 -7.08862e-05 4.21861)
(-1.60863 -4.21321e-05 4.2186)
(-1.60862 -2.99745e-05 4.21859)
(-1.60853 -8.65546e-05 4.21861)
(-1.60855 -9.69249e-05 4.2182)
(-0.922022 -2.19959e-05 3.08867)
(-0.92203 -2.30472e-05 3.08882)
(-0.922064 6.42839e-05 3.08871)
(-0.922001 0.000159535 3.08876)
(-0.92189 0.000151033 3.08893)
(-0.921761 5.37608e-05 3.08893)
(0.0328411 -2.00081e-05 1.42337)
(0.0327616 3.14021e-05 1.42333)
(0.032819 0.000106783 1.42339)
(0.0329683 0.000100047 1.42347)
(0.0331544 6.6012e-05 1.42352)
(0.0333513 1.95925e-05 1.42348)
(0.0587464 6.73837e-05 0.848643)
(0.0586998 8.18152e-05 0.848802)
(0.0587835 -2.46035e-06 0.848856)
(0.0588927 -5.82606e-05 0.848841)
(0.0590072 -8.19271e-05 0.848773)
(0.0591479 -4.10761e-05 0.848643)
(0.104085 -8.41498e-06 0.52575)
(0.104145 -9.87396e-05 0.525817)
(0.104202 -0.000213886 0.525857)
(0.104246 -0.000250191 0.525887)
(0.10429 -0.000220679 0.52591)
(0.104345 -9.42514e-05 0.525891)
(0.0918783 -6.45072e-05 0.368477)
(0.0919524 -0.00015284 0.368493)
(0.0919655 -0.000184346 0.368557)
(0.0919554 -0.000180557 0.368634)
(0.0919307 -0.000142642 0.368712)
(0.0918951 -5.81726e-05 0.368781)
(0.0803013 -2.39341e-05 0.31765)
(0.0803337 -2.37132e-05 0.317681)
(0.080329 9.53276e-06 0.317719)
(0.0803099 2.66024e-05 0.317755)
(0.0802801 3.36644e-05 0.317787)
(0.0802423 1.66734e-05 0.317825)
(-0.248168 -1.55413e-07 -0.080206)
(-0.248169 -5.81113e-07 -0.0802052)
(-0.248169 -5.07727e-07 -0.0802045)
(-0.24817 -1.72681e-07 -0.0802037)
(-0.248169 4.76498e-07 -0.0802029)
(-0.248168 3.85452e-07 -0.0802021)
(-0.788388 4.49e-08 -0.57711)
(-0.78839 1.67437e-07 -0.57711)
(-0.788391 -2.81186e-07 -0.577108)
(-0.788392 -3.75661e-07 -0.577106)
(-0.78839 -3.36347e-08 -0.577103)
(-0.788387 3.12216e-07 -0.577102)
(-1.17412 -2.02485e-07 -1.58636)
(-1.17412 1.52417e-06 -1.58637)
(-1.17412 -1.60776e-06 -1.58637)
(-1.17412 -1.78454e-06 -1.58636)
(-1.17412 -3.34004e-06 -1.58636)
(-1.17412 -3.80261e-07 -1.58635)
(-0.889475 2.11765e-06 -2.94578)
(-0.889456 -2.81315e-07 -2.94578)
(-0.889454 3.14446e-06 -2.94578)
(-0.889453 3.32196e-06 -2.94578)
(-0.889452 5.15986e-06 -2.94578)
(-0.889447 -1.20762e-07 -2.94577)
(-1.37219 5.24877e-05 -1.53503)
(-1.37217 -2.6244e-05 -1.53485)
(-1.37217 6.16765e-05 -1.53486)
(-1.37216 5.22536e-05 -1.53492)
(-1.37214 0.000104238 -1.53503)
(-1.37215 -1.46057e-05 -1.53532)
(-3.73239 -2.0984e-05 2.14335)
(-3.73237 -1.54306e-05 2.14344)
(-3.7324 1.16669e-05 2.14333)
(-3.73236 4.1695e-05 2.14334)
(-3.73227 3.37409e-05 2.14338)
(-3.73222 1.97951e-05 2.14314)
(-1.04952 -3.75396e-05 1.51879)
(-1.04954 -1.98792e-05 1.51875)
(-1.04959 2.00153e-05 1.51866)
(-1.04952 -1.43337e-05 1.51875)
(-1.04943 -1.97708e-05 1.51894)
(-1.04945 -4.98375e-06 1.51902)
(-0.549022 1.3254e-05 0.925293)
(-0.549137 4.24905e-05 0.925228)
(-0.549063 5.64083e-05 0.925342)
(-0.548956 4.92062e-05 0.925425)
(-0.548868 4.93584e-05 0.92545)
(-0.548839 2.71315e-05 0.925417)
(-0.227986 6.83088e-06 0.608692)
(-0.22795 -1.28908e-05 0.608949)
(-0.227832 -3.10144e-05 0.609031)
(-0.227741 -1.51917e-05 0.609014)
(-0.227681 1.01583e-05 0.608941)
(-0.227641 1.38978e-05 0.608817)
(-0.0610487 -4.01696e-05 0.422102)
(-0.0609662 -0.000110229 0.422182)
(-0.0609073 -0.000152083 0.422173)
(-0.0608746 -0.000154278 0.42215)
(-0.0608601 -0.000116508 0.422113)
(-0.0608475 -4.44276e-05 0.422037)
(0.013159 -4.21576e-05 0.321722)
(0.0131772 -0.000100713 0.32169)
(0.0131665 -0.000125349 0.321711)
(0.013148 -0.000126122 0.321751)
(0.0131214 -9.88487e-05 0.32179)
(0.013091 -3.9662e-05 0.321816)
(0.0534785 -6.54698e-06 0.288114)
(0.0534702 -2.14954e-06 0.288105)
(0.0534497 1.16525e-05 0.288116)
(0.0534266 1.67918e-05 0.288131)
(0.053401 1.73946e-05 0.288144)
(0.0533734 8.08559e-06 0.288164)
(3.78695e-05 -1.85881e-07 3.85062e-05)
(3.78717e-05 -1.8305e-07 3.85188e-05)
(3.78676e-05 5.42776e-08 3.85254e-05)
(3.78776e-05 5.12928e-08 3.85135e-05)
(3.78757e-05 3.03454e-08 3.85134e-05)
(3.78617e-05 3.04911e-08 3.85262e-05)
(0.000114989 -1.88708e-07 4.00531e-05)
(0.000115007 -1.75955e-07 4.00664e-05)
(0.000115007 4.57548e-08 4.00697e-05)
(0.000115016 3.82955e-08 4.00636e-05)
(0.00011501 6.89989e-08 4.0063e-05)
(0.000114995 6.31927e-08 4.00729e-05)
(0.000196129 -2.18731e-07 4.2983e-05)
(0.000196168 -2.10131e-07 4.29985e-05)
(0.000196182 4.57904e-08 4.30018e-05)
(0.000196181 5.40264e-08 4.2994e-05)
(0.000196171 9.25707e-08 4.29951e-05)
(0.00019617 7.51916e-08 4.30065e-05)
(0.000283417 -2.63788e-07 4.68553e-05)
(0.000283468 -2.70368e-07 4.68719e-05)
(0.000283489 3.58484e-08 4.6872e-05)
(0.000283486 7.54638e-08 4.6866e-05)
(0.000283474 1.23207e-07 4.68684e-05)
(0.00028347 8.95867e-08 4.68858e-05)
(0.000377709 -3.18615e-07 5.06166e-05)
(0.000377758 -3.42973e-07 5.06328e-05)
(0.000377778 2.76468e-08 5.06345e-05)
(0.000377764 1.05884e-07 5.06346e-05)
(0.000377736 1.68375e-07 5.06498e-05)
(0.000377718 1.13868e-07 5.06837e-05)
(0.000477476 -3.67001e-07 5.19027e-05)
(0.000477503 -4.0582e-07 5.19143e-05)
(0.000477522 3.85005e-08 5.1924e-05)
(0.000477491 1.73813e-07 5.19365e-05)
(0.000477448 2.52124e-07 5.19691e-05)
(0.000477414 1.54969e-07 5.20275e-05)
(0.000578254 -4.01807e-07 4.47302e-05)
(0.000578241 -4.70533e-07 4.47371e-05)
(0.000578255 4.01339e-08 4.47612e-05)
(0.000578205 2.41514e-07 4.47996e-05)
(0.000578147 3.26204e-07 4.48654e-05)
(0.000578093 1.92876e-07 4.49641e-05)
(0.0006697 -4.1793e-07 1.88927e-05)
(0.000669636 -5.20456e-07 1.89099e-05)
(0.000669602 4.2685e-08 1.89604e-05)
(0.000669525 3.20095e-07 1.90111e-05)
(0.000669443 4.10499e-07 1.90846e-05)
(0.000669363 2.34944e-07 1.91952e-05)
(0.000734923 -4.19201e-07 -4.5769e-05)
(0.000734806 -5.01064e-07 -4.57459e-05)
(0.000734697 1.16887e-07 -4.5687e-05)
(0.000734592 4.29306e-07 -4.56348e-05)
(0.000734481 5.15584e-07 -4.55513e-05)
(0.000734368 2.84462e-07 -4.54321e-05)
(0.000778869 -3.89227e-07 -0.000152629)
(0.000778671 -3.97248e-07 -0.000152544)
(0.000778515 2.47783e-07 -0.000152475)
(0.000778408 5.42803e-07 -0.000152434)
(0.00077828 6.27967e-07 -0.000152374)
(0.000778133 3.40314e-07 -0.000152278)
(0.000682924 -2.5692e-07 -0.000273322)
(0.000682588 -1.56081e-07 -0.000273125)
(0.000682457 4.02074e-07 -0.000273039)
(0.000682393 6.30089e-07 -0.000272982)
(0.000682282 6.84104e-07 -0.000272899)
(0.000682093 3.55755e-07 -0.000272763)
(0.000349349 -5.96076e-08 -0.000432156)
(0.000349127 7.47856e-08 -0.000431989)
(0.000349077 4.3593e-07 -0.000431932)
(0.000349068 6.33621e-07 -0.000431914)
(0.000349024 6.65832e-07 -0.000431865)
(0.00034891 3.31271e-07 -0.000431751)
(3.68856e-05 -1.58057e-07 0.000112002)
(3.68863e-05 -1.41081e-07 0.000112026)
(3.68846e-05 4.50412e-08 0.000112039)
(3.68877e-05 2.89067e-08 0.000112028)
(3.68849e-05 5.6387e-08 0.000112031)
(3.68723e-05 5.60086e-08 0.000112046)
(0.000112164 -1.56406e-07 0.000116775)
(0.000112179 -1.33337e-07 0.000116799)
(0.000112181 4.7179e-08 0.000116805)
(0.000112185 3.2589e-08 0.000116799)
(0.000112176 9.52236e-08 0.000116803)
(0.000112162 8.67372e-08 0.000116812)
(0.00019205 -1.79846e-07 0.000125925)
(0.00019208 -1.59576e-07 0.000125956)
(0.000192094 4.68608e-08 0.000125958)
(0.000192091 5.11835e-08 0.000125951)
(0.000192078 1.24643e-07 0.000125957)
(0.000192071 1.00047e-07 0.000125969)
(0.000279583 -2.0565e-07 0.00013852)
(0.000279613 -1.99067e-07 0.000138548)
(0.00027963 4.67102e-08 0.000138548)
(0.000279618 8.56962e-08 0.000138541)
(0.000279594 1.70942e-07 0.000138549)
(0.000279575 1.25382e-07 0.00013857)
(0.000377514 -2.28293e-07 0.000152618)
(0.000377538 -2.26286e-07 0.000152635)
(0.000377544 6.52714e-08 0.000152636)
(0.000377518 1.49226e-07 0.000152638)
(0.000377474 2.55399e-07 0.000152662)
(0.000377435 1.69469e-07 0.000152707)
(0.000489259 -2.48003e-07 0.000164997)
(0.000489262 -2.45327e-07 0.000165004)
(0.000489262 1.01599e-07 0.000165014)
(0.000489207 2.36826e-07 0.000165038)
(0.000489138 3.6438e-07 0.00016509)
(0.000489069 2.26559e-07 0.000165173)
(0.000617938 -2.63971e-07 0.000172807)
(0.000617888 -2.78135e-07 0.000172811)
(0.000617861 1.37332e-07 0.000172849)
(0.000617786 3.52148e-07 0.000172906)
(0.000617706 5.02285e-07 0.000172997)
(0.000617627 3.01835e-07 0.000173126)
(0.000765317 -2.45277e-07 0.000174958)
(0.000765212 -2.53345e-07 0.000174967)
(0.000765137 1.79504e-07 0.000175035)
(0.000765048 4.18154e-07 0.00017511)
(0.000764949 5.68834e-07 0.000175217)
(0.000764854 3.38668e-07 0.000175366)
(0.000903901 -2.32613e-07 0.000162243)
(0.000903717 -2.04379e-07 0.000162281)
(0.000903605 2.68872e-07 0.000162367)
(0.000903528 5.47084e-07 0.000162443)
(0.000903441 7.15114e-07 0.000162551)
(0.000903347 4.09301e-07 0.000162701)
(0.000975027 -1.31455e-07 0.000108716)
(0.000974735 -3.53941e-08 0.00010888)
(0.000974578 3.52295e-07 0.000109029)
(0.000974487 5.57634e-07 0.000109153)
(0.000974377 6.95201e-07 0.000109311)
(0.000974243 3.94625e-07 0.000109508)
(0.000868105 -4.59282e-08 -5.72425e-05)
(0.000867585 1.53763e-07 -5.67223e-05)
(0.000867375 5.36626e-07 -5.64771e-05)
(0.000867259 7.18993e-07 -5.63067e-05)
(0.000867098 8.01137e-07 -5.6131e-05)
(0.000866843 4.21424e-07 -5.58801e-05)
(0.000471957 4.4013e-08 -0.000485242)
(0.000471581 2.51027e-07 -0.000484774)
(0.000471457 5.18015e-07 -0.000484613)
(0.000471408 6.94892e-07 -0.000484538)
(0.000471333 8.23714e-07 -0.000484472)
(0.000471178 4.38073e-07 -0.000484342)
(3.42972e-05 -1.32024e-07 0.000180361)
(3.42953e-05 -9.99387e-08 0.000180382)
(3.42961e-05 6.0943e-08 0.000180389)
(3.42977e-05 3.75941e-08 0.000180387)
(3.42918e-05 6.65421e-08 0.000180392)
(3.42785e-05 5.82309e-08 0.000180393)
(0.000104656 -1.26564e-07 0.000188821)
(0.000104661 -9.49632e-08 0.000188843)
(0.000104667 5.81272e-08 0.000188842)
(0.000104666 4.79239e-08 0.00018884)
(0.000104652 1.08851e-07 0.000188845)
(0.000104633 8.74421e-08 0.000188841)
(0.000180509 -1.38239e-07 0.00020534)
(0.000180526 -1.16017e-07 0.000205366)
(0.000180536 5.59414e-08 0.000205361)
(0.000180527 7.25026e-08 0.000205359)
(0.000180508 1.40546e-07 0.000205363)
(0.000180491 1.01752e-07 0.00020536)
(0.000265729 -1.57155e-07 0.00022884)
(0.00026575 -1.39493e-07 0.000228858)
(0.000265756 6.5272e-08 0.000228854)
(0.000265738 1.09411e-07 0.00022885)
(0.000265707 1.90848e-07 0.000228855)
(0.000265676 1.29039e-07 0.000228856)
(0.00036353 -1.75251e-07 0.000256572)
(0.000363543 -1.58569e-07 0.000256576)
(0.000363545 8.70387e-08 0.000256572)
(0.000363511 1.69256e-07 0.000256572)
(0.000363464 2.67494e-07 0.000256584)
(0.000363417 1.68584e-07 0.000256599)
(0.000473168 -1.83491e-07 0.000281643)
(0.000473153 -1.73133e-07 0.00028164)
(0.000473147 1.15661e-07 0.000281644)
(0.000473093 2.46319e-07 0.00028166)
(0.000473033 3.58815e-07 0.000281687)
(0.000472977 2.17763e-07 0.000281726)
(0.000587797 -1.78291e-07 0.000286576)
(0.000587736 -1.7472e-07 0.000286571)
(0.000587707 1.48099e-07 0.000286595)
(0.000587645 3.26044e-07 0.000286622)
(0.000587588 4.48423e-07 0.000286663)
(0.00058755 2.66748e-07 0.000286713)
(0.000699873 -1.47642e-07 0.000245663)
(0.000699758 -1.30082e-07 0.000245632)
(0.000699697 1.99032e-07 0.000245656)
(0.000699638 3.94001e-07 0.000245683)
(0.000699589 5.07495e-07 0.000245737)
(0.000699572 2.94455e-07 0.00024581)
(0.000811354 -7.93505e-08 0.000115155)
(0.000811147 6.00405e-09 0.000115169)
(0.000811039 3.28118e-07 0.000115206)
(0.000810967 5.11809e-07 0.000115235)
(0.000810902 6.11094e-07 0.000115285)
(0.000810875 3.41368e-07 0.000115362)
(0.000962427 5.74174e-08 -0.000150889)
(0.000962 2.85388e-07 -0.000150671)
(0.00096182 5.88542e-07 -0.000150532)
(0.000961725 7.46089e-07 -0.000150433)
(0.000961655 8.03604e-07 -0.00015032)
(0.000961628 4.16818e-07 -0.000150169)
(0.00108618 2.11953e-07 -0.000634248)
(0.0010853 5.53928e-07 -0.000633473)
(0.00108503 7.66493e-07 -0.000633112)
(0.00108491 8.27955e-07 -0.000632909)
(0.00108484 7.95433e-07 -0.000632786)
(0.00108482 3.89275e-07 -0.000632609)
(0.000870126 2.3571e-07 -0.00174403)
(0.00086951 4.8843e-07 -0.00174334)
(0.000869335 5.80235e-07 -0.00174307)
(0.000869266 6.39655e-07 -0.00174295)
(0.000869232 6.68987e-07 -0.00174293)
(0.000869223 3.40236e-07 -0.0017429)
(2.9865e-05 -1.05141e-07 0.000240549)
(2.98612e-05 -7.23935e-08 0.000240573)
(2.98642e-05 5.83037e-08 0.000240569)
(2.98643e-05 3.82562e-08 0.000240563)
(2.98574e-05 6.4221e-08 0.000240566)
(2.98454e-05 5.18825e-08 0.000240563)
(9.15993e-05 -9.51641e-08 0.000253156)
(9.16008e-05 -6.81844e-08 0.000253178)
(9.1608e-05 5.26392e-08 0.000253169)
(9.16042e-05 5.22988e-08 0.000253164)
(9.15892e-05 1.04637e-07 0.000253164)
(9.15714e-05 7.79741e-08 0.000253156)
(0.000159859 -1.03934e-07 0.000278414)
(0.000159871 -8.44656e-08 0.000278436)
(0.000159876 5.28685e-08 0.000278428)
(0.000159866 7.57245e-08 0.000278422)
(0.000159846 1.3292e-07 0.000278419)
(0.000159828 9.05634e-08 0.00027841)
(0.000240478 -1.17e-07 0.000316197)
(0.000240489 -9.86845e-08 0.000316216)
(0.000240489 6.42408e-08 0.000316208)
(0.00024047 1.08645e-07 0.0003162)
(0.000240441 1.77344e-07 0.000316195)
(0.000240411 1.14579e-07 0.000316188)
(0.000342353 -1.25835e-07 0.000365373)
(0.00034235 -1.08499e-07 0.000365387)
(0.000342347 8.23362e-08 0.000365383)
(0.000342315 1.55833e-07 0.000365377)
(0.000342275 2.36922e-07 0.000365376)
(0.000342236 1.46048e-07 0.000365377)
(0.00048299 -1.24785e-07 0.000421698)
(0.000482957 -1.1482e-07 0.00042171)
(0.000482944 1.00071e-07 0.000421719)
(0.000482898 2.07491e-07 0.000421722)
(0.000482852 2.99505e-07 0.00042173)
(0.000482812 1.82154e-07 0.000421743)
(0.00068303 -1.1181e-07 0.000472658)
(0.00068296 -1.02894e-07 0.000472668)
(0.000682925 1.32667e-07 0.000472685)
(0.000682877 2.73971e-07 0.00047269)
(0.000682832 3.68893e-07 0.000472702)
(0.000682811 2.18996e-07 0.000472717)
(0.000967886 -8.80932e-08 0.000484837)
(0.000967747 -4.9714e-08 0.000484828)
(0.000967679 1.96839e-07 0.000484836)
(0.000967633 3.52359e-07 0.000484823)
(0.000967601 4.46563e-07 0.000484827)
(0.000967611 2.5371e-07 0.000484848)
(0.00132383 2.30233e-08 0.000404141)
(0.00132357 1.51024e-07 0.00040414)
(0.00132346 3.57788e-07 0.000404135)
(0.00132341 4.81808e-07 0.000404106)
(0.0013234 5.33489e-07 0.00040411)
(0.00132344 2.83191e-07 0.000404151)
(0.00172302 1.8784e-07 2.56828e-05)
(0.00172246 4.44053e-07 2.59121e-05)
(0.00172225 5.42316e-07 2.59428e-05)
(0.00172218 5.50045e-07 2.59294e-05)
(0.0017222 5.34298e-07 2.59224e-05)
(0.00172226 2.71935e-07 2.59763e-05)
(0.00218439 3.27361e-07 -0.000910727)
(0.00218334 6.93002e-07 -0.00091004)
(0.00218291 6.68475e-07 -0.000909838)
(0.00218276 4.88775e-07 -0.000909789)
(0.00218283 3.59374e-07 -0.000909832)
(0.00218317 1.77719e-07 -0.000909923)
(0.0019089 3.58467e-07 -0.00358605)
(0.00190796 6.47969e-07 -0.00358444)
(0.00190762 5.02628e-07 -0.00358405)
(0.00190752 3.73572e-07 -0.00358403)
(0.00190762 3.42081e-07 -0.00358425)
(0.00190801 1.83126e-07 -0.00358474)
(-0.563018 9.07383e-07 0.804425)
(-0.563018 1.48832e-06 0.804428)
(-0.563018 1.02168e-06 0.804429)
(-0.563018 2.59532e-07 0.804429)
(-0.563019 9.27933e-07 0.804429)
(-0.563018 8.93019e-07 0.804428)
(-0.529806 3.19898e-06 1.50275)
(-0.529808 5.1204e-06 1.50275)
(-0.529808 3.37658e-06 1.50275)
(-0.529809 1.93208e-06 1.50276)
(-0.52981 1.51828e-06 1.50276)
(-0.52981 6.68269e-07 1.50276)
(-0.992168 5.83441e-06 4.42263)
(-0.992158 9.47242e-06 4.42263)
(-0.992156 4.95649e-06 4.42263)
(-0.992158 3.92116e-06 4.42263)
(-0.992158 4.84488e-06 4.42262)
(-0.992155 3.24229e-06 4.42262)
(-1.63487 1.04502e-06 0.458437)
(-1.63487 2.69677e-06 0.458438)
(-1.63487 2.98465e-07 0.458438)
(-1.63487 1.76259e-07 0.458438)
(-1.63487 -3.61887e-07 0.458438)
(-1.63487 7.12413e-07 0.458437)
(-2.15013 -3.67475e-07 0.571689)
(-2.15009 2.50218e-06 0.571694)
(-2.15009 3.75248e-07 0.571695)
(-2.15009 1.96483e-06 0.571693)
(-2.15009 7.83355e-07 0.571693)
(-2.15008 2.29254e-06 0.571695)
(-3.90448 -1.47241e-05 7.07294)
(-3.90445 -7.11887e-06 7.07294)
(-3.90445 1.20975e-06 7.07294)
(-3.90445 2.12692e-06 7.07294)
(-3.90445 2.21568e-06 7.07294)
(-3.90442 5.05587e-06 7.07293)
(-2.31231 -1.97356e-06 -1.22947)
(-2.31228 1.4624e-06 -1.22948)
(-2.31228 -3.26207e-06 -1.22948)
(-2.31228 -7.667e-08 -1.22948)
(-2.31228 -3.44011e-06 -1.22948)
(-2.31227 1.57321e-06 -1.22947)
(-5.02035 1.0325e-06 -1.63699)
(-5.02036 -2.74745e-06 -1.63699)
(-5.02036 -2.15939e-06 -1.63699)
(-5.02036 5.76956e-07 -1.63699)
(-5.02037 3.45257e-06 -1.63699)
(-5.02035 7.84319e-07 -1.63699)
(-8.77888 8.07947e-06 7.56115)
(-8.77886 -7.20066e-06 7.56116)
(-8.77886 2.18636e-06 7.56116)
(-8.77886 3.45683e-06 7.56116)
(-8.77885 1.29344e-05 7.56116)
(-8.77881 -6.91594e-06 7.56116)
(-2.57963 9.79739e-06 -2.88374)
(-2.57963 -8.43957e-06 -2.88374)
(-2.57964 4.0786e-06 -2.88374)
(-2.57964 -1.92004e-06 -2.88374)
(-2.57964 1.14816e-05 -2.88374)
(-2.57963 -9.08004e-06 -2.88373)
(-9.38854 4.58559e-05 -1.89969)
(-9.38853 -4.30153e-05 -1.89968)
(-9.38855 -1.4225e-06 -1.89968)
(-9.38855 -2.7732e-05 -1.89968)
(-9.38853 1.56103e-05 -1.89967)
(-9.38853 -6.99576e-05 -1.89963)
(-15.4865 8.04529e-05 -8.60898)
(-15.4865 -3.90669e-05 -8.60895)
(-15.4866 3.08145e-05 -8.60898)
(-15.4866 2.24359e-06 -8.60898)
(-15.4865 7.27376e-05 -8.60897)
(-15.4864 -8.29414e-05 -8.60899)
(-3.58342 5.20396e-05 -0.327393)
(-3.58339 -7.0457e-05 -0.327358)
(-3.58342 9.86988e-05 -0.327354)
(-3.58342 3.86828e-05 -0.327385)
(-3.58339 0.000151347 -0.327416)
(-3.58344 -4.56641e-05 -0.327428)
(-2.92056 4.59718e-05 1.19981)
(-2.92048 -8.45122e-05 1.19985)
(-2.92056 5.73044e-06 1.19984)
(-2.92056 -4.50907e-05 1.19983)
(-2.92049 4.36416e-05 1.19984)
(-2.9206 -9.1117e-05 1.19988)
(-5.80133 -5.8024e-06 -6.56838)
(-5.80131 -2.34287e-05 -6.56842)
(-5.80132 -5.41751e-06 -6.56845)
(-5.80131 -5.07182e-05 -6.56845)
(-5.80131 -3.0919e-05 -6.56846)
(-5.8013 -1.77708e-05 -6.56845)
(-2.75053 -4.288e-05 0.94633)
(-2.75054 -1.73871e-05 0.9464)
(-2.75055 3.05002e-05 0.946351)
(-2.75056 2.15707e-05 0.946352)
(-2.75057 6.34494e-05 0.946386)
(-2.75061 6.48937e-05 0.946336)
(-0.414562 -3.19866e-05 0.601959)
(-0.41453 -6.65842e-07 0.60197)
(-0.414545 1.44376e-05 0.601947)
(-0.414539 1.49514e-05 0.601945)
(-0.41453 2.86429e-05 0.601944)
(-0.414566 3.45619e-05 0.601936)
(-1.78574 -7.97137e-06 -2.84743)
(-1.78573 -1.57015e-05 -2.84748)
(-1.78574 -1.86572e-05 -2.84748)
(-1.78573 -1.67248e-05 -2.84748)
(-1.7857 -1.22545e-05 -2.84747)
(-1.78567 5.44711e-07 -2.84741)
(-1.52659 -6.51404e-07 0.102858)
(-1.52661 3.34188e-06 0.1028)
(-1.52663 -2.01573e-05 0.102787)
(-1.52663 -6.02063e-05 0.102836)
(-1.52663 -4.68638e-05 0.102911)
(-1.5266 -9.77434e-06 0.102966)
(-1.8083 -8.59125e-07 -0.0562213)
(-1.80834 -5.88522e-06 -0.0562483)
(-1.80835 -2.33462e-05 -0.0562501)
(-1.80835 -2.86536e-05 -0.0562374)
(-1.80836 -1.96291e-05 -0.0562223)
(-1.80832 -1.81637e-06 -0.0562014)
(-2.09846 -6.56992e-06 -0.820032)
(-2.09849 -9.13673e-06 -0.820065)
(-2.09849 -5.08478e-06 -0.82006)
(-2.09849 -5.42186e-06 -0.820054)
(-2.09849 -1.67938e-06 -0.820047)
(-2.09846 2.17988e-06 -0.820012)
(-0.670642 8.67159e-06 0.44591)
(-0.67067 -1.20987e-05 0.445888)
(-0.670668 -3.84206e-05 0.445948)
(-0.670653 -3.28538e-05 0.445987)
(-0.67063 -1.9276e-05 0.446001)
(-0.6706 -5.17696e-06 0.445998)
(-0.310677 5.10199e-08 0.216954)
(-0.310697 -1.2356e-05 0.216941)
(-0.310699 -2.11907e-05 0.216952)
(-0.310697 -1.52102e-05 0.216961)
(-0.310692 -7.16697e-06 0.216966)
(-0.310675 -2.03452e-06 0.216976)
(-0.44625 -4.32119e-07 -0.76065)
(-0.446255 -4.42435e-06 -0.760671)
(-0.446254 -3.83114e-06 -0.760666)
(-0.446253 -3.53853e-06 -0.760663)
(-0.446251 -1.04789e-06 -0.760661)
(-0.446241 -1.53678e-06 -0.760637)
(-0.364744 -1.94183e-05 0.324023)
(-0.36476 -2.94988e-05 0.324141)
(-0.364748 -1.00293e-05 0.324174)
(-0.364736 8.28659e-06 0.324163)
(-0.364726 2.08369e-05 0.324131)
(-0.364706 1.26374e-05 0.32408)
(-0.35974 -1.38925e-05 0.172924)
(-0.359754 -2.22239e-05 0.172927)
(-0.359751 -1.30513e-05 0.172932)
(-0.359747 -3.57654e-06 0.172932)
(-0.359744 4.26264e-06 0.172928)
(-0.359731 4.36849e-06 0.17293)
(-0.405543 -1.81099e-06 -0.202007)
(-0.40555 -2.73532e-06 -0.202016)
(-0.40555 -1.19319e-06 -0.202013)
(-0.405549 -5.09116e-08 -0.202013)
(-0.405549 1.38233e-06 -0.202015)
(-0.40554 1.12969e-06 -0.202005)
(-0.13595 -1.51904e-05 0.282148)
(-0.135947 -1.54855e-05 0.282178)
(-0.135943 3.50337e-06 0.282168)
(-0.135946 1.27287e-05 0.282152)
(-0.135953 2.20868e-05 0.282128)
(-0.135953 1.30145e-05 0.28209)
(-0.125204 -5.00522e-06 0.185982)
(-0.125205 -5.78317e-06 0.185984)
(-0.125201 2.0684e-07 0.185984)
(-0.125199 3.76001e-06 0.185983)
(-0.1252 6.82477e-06 0.185979)
(-0.125195 4.10657e-06 0.185978)
(-0.142904 -4.65194e-07 -0.0242562)
(-0.142906 -8.36137e-07 -0.0242624)
(-0.142906 2.42722e-07 -0.0242621)
(-0.142906 9.142e-07 -0.0242628)
(-0.142906 1.41119e-06 -0.0242644)
(-0.142902 5.64242e-07 -0.0242581)
(-0.0256864 2.39724e-07 0.240264)
(-0.0256834 -2.8934e-06 0.240243)
(-0.0256847 -9.5157e-06 0.240248)
(-0.0256884 -1.22399e-05 0.240263)
(-0.0256946 -8.32499e-06 0.240277)
(-0.0256984 -2.42645e-06 0.240285)
(-0.0432838 -2.11358e-09 0.170428)
(-0.0432841 1.32752e-07 0.170425)
(-0.0432832 -2.02233e-07 0.170427)
(-0.0432834 -5.0131e-07 0.17043)
(-0.0432844 4.60286e-07 0.170433)
(-0.0432827 6.6847e-07 0.170438)
(-0.0638448 2.852e-07 0.0685262)
(-0.0638462 3.47382e-07 0.0685213)
(-0.0638461 1.41552e-07 0.0685215)
(-0.0638463 -3.95732e-09 0.0685219)
(-0.0638467 4.3229e-08 0.0685223)
(-0.0638453 -8.47344e-09 0.0685273)
(0.0859349 -1.25396e-07 0.217038)
(0.0859317 -2.95424e-06 0.217027)
(0.0859328 -6.90629e-06 0.217028)
(0.085935 -8.43412e-06 0.217031)
(0.0859371 -7.75039e-06 0.217035)
(0.0859406 -3.39033e-06 0.217042)
(0.0210584 1.30812e-06 0.145977)
(0.0210562 1.82616e-06 0.145975)
(0.021056 7.01993e-07 0.145976)
(0.0210559 3.0287e-11 0.145978)
(0.0210558 -3.37304e-07 0.14598)
(0.0210575 -2.45709e-07 0.145985)
(-0.0136623 1.07129e-07 0.0873457)
(-0.0136634 -1.27864e-08 0.0873419)
(-0.0136636 -2.89536e-07 0.0873417)
(-0.0136637 -4.77527e-07 0.0873418)
(-0.0136638 -4.49015e-07 0.087342)
(-0.0136629 -2.23297e-07 0.0873453)
(0.0172377 3.41386e-07 0.00368052)
(0.0172374 3.54874e-07 0.00368033)
(0.0172374 -2.92152e-07 0.00368025)
(0.0172377 -7.62829e-07 0.00368023)
(0.017238 -7.04829e-07 0.00368025)
(0.0172386 -3.10843e-07 0.0036803)
(0.011147 1.60601e-07 0.0106702)
(0.0111469 4.09404e-08 0.0106698)
(0.011147 -4.86118e-07 0.0106698)
(0.0111473 -7.64877e-07 0.0106699)
(0.0111474 -7.72276e-07 0.01067)
(0.0111478 -3.75232e-07 0.0106704)
(0.00377743 -1.35322e-09 0.0143677)
(0.00377741 -2.38876e-08 0.0143673)
(0.00377741 -1.15538e-07 0.0143673)
(0.00377745 -2.01201e-07 0.0143676)
(0.00377746 -2.42204e-07 0.0143678)
(0.00377754 -1.33455e-07 0.0143685)
(0.0238253 -1.05562e-07 0.00589863)
(0.0238252 -3.5168e-07 0.00589841)
(0.0238256 -8.09961e-07 0.00589833)
(0.0238259 -1.27166e-06 0.00589832)
(0.0238262 -1.22634e-06 0.00589837)
(0.023827 -6.02748e-07 0.00589852)
(0.0154901 -2.84749e-07 0.0158753)
(0.01549 -6.56192e-07 0.0158749)
(0.0154903 -9.91486e-07 0.0158749)
(0.0154906 -1.18887e-06 0.0158752)
(0.0154907 -1.12767e-06 0.0158754)
(0.0154911 -5.5554e-07 0.015876)
(0.00475516 -1.84552e-07 0.0201575)
(0.00475514 -2.4627e-07 0.0201572)
(0.00475521 -2.08405e-07 0.0201574)
(0.00475531 -2.82526e-07 0.0201578)
(0.00475535 -2.97084e-07 0.0201581)
(0.00475548 -1.60209e-07 0.020159)
(0.033845 -3.18389e-07 0.00921491)
(0.0338444 -7.59081e-07 0.0092147)
(0.0338447 -1.22024e-06 0.00921468)
(0.033845 -1.67825e-06 0.00921473)
(0.0338452 -1.38754e-06 0.00921482)
(0.0338458 -6.10236e-07 0.00921512)
(0.0208257 -3.70809e-07 0.0233735)
(0.0208251 -7.93749e-07 0.023373)
(0.0208251 -1.16879e-06 0.0233732)
(0.0208252 -1.38633e-06 0.0233735)
(0.0208253 -1.01318e-06 0.0233738)
(0.0208255 -3.70257e-07 0.0233746)
(0.00576439 -1.91238e-07 0.0278664)