/*--------------------------------*- C++ -*----------------------------------*\
| =========                 |                                                 |
| \\      /  F ield         | OpenFOAM: The Open Source CFD Toolbox           |
|  \\    /   O peration     | Version:  v1612+                                |
|   \\  /    A nd           | Web:      www.OpenFOAM.com                      |
|    \\/     M anipulation  |                                                 |
\*---------------------------------------------------------------------------*/
FoamFile
{
    version     2.0;
    format      ascii;
    class       volScalarField;
    location    "5.7";
    object      p;
}
// * * * * * * * * * * * * * * * * * * * * * * * * * * * * * * * * * * * * * //

dimensions      [1 -1 -2 0 0 0 0];

internalField   nonuniform List<scalar> 
320
(
14724.8
14724.8
14724.8
14724.8
4.97305
4.97263
4.97225
4.97152
4.97144
4.97234
4.97183
4.97204
4.97221
4.97234
4.973
4.97337
4914.82
4914.88
4914.9
4914.87
4914.87
4914.88
4914.89
4914.87
4914.87
4914.82
4914.85
4914.85
14724.8
14724.8
14724.8
14724.8
14724.8
14724.8
14724.8
14724.8
14724.8
14724.8
14724.8
14724.8
24534.8
24534.8
24534.8
24534.8
24534.8
24534.8
24534.8
24534.8
24534.8
24534.8
24534.8
24534.8
24534.8
24534.8
24534.8
24534.8
4.97529
4.9744
4.97314
4.97149
4.97106
4.97144
4.97094
4.97099
4.97211
4.97463
4.97401
4.9723
4.97185
4.97254
4.97353
4.97307
4.97336
4.97339
4.97364
4.97551
4914.89
4914.85
4914.89
4914.89
4914.87
4914.85
4914.85
4914.83
4914.86
4914.85
4914.85
4914.86
4914.88
4914.87
4914.87
4914.84
4914.84
4914.89
4914.89
4914.85
14724.8
14724.8
14724.8
14724.8
14724.8
14724.8
14724.8
14724.8
14724.8
14724.8
14724.8
14724.8
14724.8
14724.8
14724.8
14724.8
14724.8
14724.8
14724.8
14724.8
24534.8
24534.8
24534.8
24534.8
24534.8
24534.8
24534.8
24534.8
24534.8
24534.8
24534.8
24534.8
24534.8
24534.8
24534.8
24534.8
24534.8
24534.8
24534.8
24534.8
34344.8
34344.8
34344.8
34344.8
34344.8
34344.8
34344.8
34344.8
34344.8
34344.8
34344.8
34344.8
34344.8
34344.8
34344.8
34344.8
34344.8
34344.8
34344.8
34344.8
34344.8
34344.8
34344.8
34344.8
34344.8
34344.8
34344.8
34344.8
34344.8
34344.8
34344.8
34344.8
34344.8
34344.8
34344.8
34344.8
4.97534
4.97593
4.97681
4.9728
4.97188
4.97113
4.97181
4.97024
4.9714
4.97058
4.97247
4.97264
4.97378
4.97564
4.97519
4.97549
4.97262
4.97094
4.97259
4.97358
4.97467
4.97438
4.97341
4.9739
4.97425
4.97332
4.97375
4.97594
4914.81
4914.89
4914.91
4914.84
4914.87
4914.88
4914.91
4914.8
4914.81
4914.85
4914.85
4914.83
4914.85
4914.89
4914.9
4914.89
4914.82
4914.87
4914.9
4914.91
4914.89
4914.84
4914.82
4914.83
4914.86
4914.9
4914.86
4914.8
14724.8
14724.8
14724.8
14724.8
14724.8
14724.8
14724.8
14724.8
14724.8
14724.8
14724.8
14724.8
14724.8
14724.8
14724.8
14724.8
14724.8
14724.8
14724.8
14724.8
14724.8
14724.8
14724.8
14724.8
14724.8
14724.8
14724.8
14724.8
24534.8
24534.8
24534.8
24534.8
24534.8
24534.8
24534.8
24534.8
24534.8
24534.8
24534.8
24534.8
24534.8
24534.8
24534.8
24534.8
24534.8
24534.8
24534.8
24534.8
24534.8
24534.8
24534.8
24534.8
24534.8
24534.8
24534.8
24534.8
34344.8
34344.8
34344.8
34344.8
34344.8
34344.8
34344.8
34344.8
34344.8
34344.8
34344.8
34344.8
34344.8
34344.8
34344.8
34344.8
34344.8
34344.8
34344.8
34344.8
34344.8
34344.8
34344.8
34344.8
34344.8
34344.8
34344.8
34344.8
4.97221
4.97251
4.97208
4.97176
4914.87
4914.83
4914.87
4914.86
)
;

boundaryField
{
    top_fluid_surface
    {
        type            calculated;
        value           nonuniform List<scalar> 
64
(
0
-3.21256e-10
-1.63617e-09
-1.92716e-10
-1.9921e-09
-8.56656e-09
-2.03799e-08
0
-9.50054e-10
0
0
-6.81196e-11
-1.50609e-10
-1.71487e-11
-1.11928e-10
-3.01851e-09
0
0
0
0
-1.04203e-09
0
0
0
-1.64329e-08
0
0
0
0
-4.27672e-09
-2.86005e-09
0
0
-3.70943e-09
-5.44284e-09
0
0
-1.46043e-09
-7.08275e-08
-2.73762e-08
0
-2.45479e-08
-1.79873e-09
0
-9.70843e-11
-4.03278e-12
-9.96598e-09
-1.3023e-10
-1.69973e-08
-1.83707e-09
-1.8666e-08
-6.86225e-08
-3.73512e-08
0
0
0
0
-9.51591e-09
-1.59545e-09
-2.69801e-08
-2.22824e-08
0
-1.25879e-10
0
)
;
    }
    bottom_fluid_surface
    {
        type            calculated;
        value           nonuniform List<scalar> 
64
(
39249.8
39249.8
39249.8
39249.8
39249.8
39249.8
39249.8
39249.8
39249.8
39249.8
39249.8
39249.8
39249.8
39249.8
39249.8
39249.8
39249.8
39249.8
39249.8
39249.8
39249.8
39249.8
39249.8
39249.8
39249.8
39249.8
39249.8
39249.8
39249.8
39249.8
39249.8
39249.8
39249.8
39249.8
39249.8
39249.8
39249.8
39249.8
39249.8
39249.8
39249.8
39249.8
39249.8
39249.8
39249.8
39249.8
39249.8
39249.8
39249.8
39249.8
39249.8
39249.8
39249.8
39249.8
39249.8
39249.8
39249.8
39249.8
39249.8
39249.8
39249.8
39249.8
39249.8
39249.8
)
;
    }
    lateral_surface_1
    {
        type            calculated;
        value           nonuniform List<scalar> 
40
(
4.97534
4.97593
4.97681
4.9728
4.97188
4.97113
4.97181
4.97594
4914.81
4914.89
4914.91
4914.84
4914.87
4914.88
4914.91
4914.8
14724.8
14724.8
14724.8
14724.8
14724.8
14724.8
14724.8
14724.8
24534.8
24534.8
24534.8
24534.8
24534.8
24534.8
24534.8
24534.8
34344.8
34344.8
34344.8
34344.8
34344.8
34344.8
34344.8
34344.8
)
;
    }
    lateral_surface_2
    {
        type            calculated;
        value           nonuniform List<scalar> 
40
(
4.97564
4.97519
4.97549
4.97262
4.97094
4.97259
4.97358
4.97467
4914.89
4914.9
4914.89
4914.82
4914.87
4914.9
4914.91
4914.89
14724.8
14724.8
14724.8
14724.8
14724.8
14724.8
14724.8
14724.8
24534.8
24534.8
24534.8
24534.8
24534.8
24534.8
24534.8
24534.8
34344.8
34344.8
34344.8
34344.8
34344.8
34344.8
34344.8
34344.8
)
;
    }
    lateral_surface_3
    {
        type            calculated;
        value           nonuniform List<scalar> 
40
(
4.97181
4.97024
4.9714
4.97058
4.97247
4.97264
4.97378
4.97564
4914.91
4914.8
4914.81
4914.85
4914.85
4914.83
4914.85
4914.89
14724.8
14724.8
14724.8
14724.8
14724.8
14724.8
14724.8
14724.8
24534.8
24534.8
24534.8
24534.8
24534.8
24534.8
24534.8
24534.8
34344.8
34344.8
34344.8
34344.8
34344.8
34344.8
34344.8
34344.8
)
;
    }
    lateral_surface_4
    {
        type            calculated;
        value           nonuniform List<scalar> 
40
(
4.97467
4.97438
4.97341
4.9739
4.97425
4.97332
4.97375
4.97594
4914.89
4914.84
4914.82
4914.83
4914.86
4914.9
4914.86
4914.8
14724.8
14724.8
14724.8
14724.8
14724.8
14724.8
14724.8
14724.8
24534.8
24534.8
24534.8
24534.8
24534.8
24534.8
24534.8
24534.8
34344.8
34344.8
34344.8
34344.8
34344.8
34344.8
34344.8
34344.8
)
;
    }
}


// ************************************************************************* //
