/*--------------------------------*- C++ -*----------------------------------*\
| =========                 |                                                 |
| \\      /  F ield         | OpenFOAM: The Open Source CFD Toolbox           |
|  \\    /   O peration     | Version:  v1612+                                |
|   \\  /    A nd           | Web:      www.OpenFOAM.com                      |
|    \\/     M anipulation  |                                                 |
\*---------------------------------------------------------------------------*/
FoamFile
{
    version     2.0;
    format      ascii;
    class       volVectorField;
    location    "5.7";
    object      U;
}
// * * * * * * * * * * * * * * * * * * * * * * * * * * * * * * * * * * * * * //

dimensions      [0 1 -1 0 0 0 0];

internalField   nonuniform List<vector> 
320
(
(-4.72342e-06 -1.2703e-05 1.43749e-05)
(-5.33137e-06 -9.89008e-06 -2.14739e-05)
(-1.69054e-05 -8.12942e-06 -1.82929e-05)
(3.11402e-06 1.52636e-05 -1.80755e-05)
(0.000284401 -0.000100424 2.32437e-05)
(3.85418e-05 -5.36469e-05 -2.53478e-05)
(0.000226199 -1.48634e-05 -5.72043e-05)
(-4.52824e-05 7.14057e-05 -1.96324e-05)
(0.00020141 3.89987e-05 -6.31205e-05)
(4.1413e-05 8.74623e-05 -0.000130894)
(-9.93147e-05 -9.44003e-05 -0.00020189)
(-0.000150237 -0.000188265 0.000187385)
(-0.00032792 -6.47062e-05 -4.35902e-05)
(-0.000246956 -0.000296539 -7.4996e-06)
(-0.000334609 8.59748e-05 0.000182782)
(-2.01258e-05 0.000119159 -1.16722e-05)
(7.33344e-06 -5.31438e-06 3.07383e-05)
(8.33162e-06 1.13199e-06 2.58871e-05)
(2.00504e-05 -1.69369e-07 4.65208e-06)
(-4.44744e-07 1.3295e-06 -1.3639e-05)
(1.24298e-05 -5.6345e-06 -6.40578e-07)
(7.79105e-06 1.34226e-05 2.71535e-05)
(-1.08588e-05 4.27622e-06 1.91254e-05)
(2.47479e-06 -1.46167e-05 -1.88938e-05)
(-2.00904e-05 1.76774e-05 3.70176e-05)
(-1.58045e-05 -2.83381e-05 2.99269e-05)
(-2.55345e-05 -5.65066e-06 -2.60093e-05)
(-1.11465e-05 -5.24501e-06 1.07526e-05)
(-4.42023e-06 -7.73191e-07 2.01987e-05)
(-9.72338e-06 -6.56829e-06 2.20638e-05)
(-1.67676e-05 4.10201e-07 1.72301e-06)
(1.06824e-06 1.34563e-07 -1.46308e-05)
(-6.23362e-06 6.37254e-06 -5.89025e-07)
(-2.06603e-06 -3.12795e-06 1.52001e-05)
(9.16931e-06 2.48368e-06 9.28644e-06)
(-4.48328e-06 9.94386e-06 -1.78304e-05)
(3.54949e-06 -9.90564e-06 2.32981e-05)
(2.09549e-06 1.50231e-05 1.99188e-05)
(9.16155e-06 2.59221e-06 -1.4372e-05)
(5.5792e-06 -1.87457e-06 9.01571e-06)
(-3.22944e-06 -7.14846e-06 4.23812e-06)
(-3.70395e-06 -5.65827e-06 -6.76258e-06)
(-9.33115e-06 -4.29286e-06 -3.35704e-06)
(1.48339e-06 9.15015e-06 -7.38537e-06)
(-2.30668e-06 -2.66822e-07 6.12949e-06)
(-5.71731e-06 -4.22837e-06 1.07242e-06)
(-9.75545e-06 -1.44255e-07 -1.56702e-07)
(2.37057e-07 5.21706e-08 5.98438e-09)
(-3.8487e-06 4.93845e-06 -1.53732e-07)
(-1.76244e-06 -1.66037e-06 4.31155e-06)
(5.52734e-06 1.15356e-06 2.50774e-06)
(-2.52761e-06 6.61114e-06 -2.46803e-06)
(1.58909e-06 -5.32057e-06 5.68235e-06)
(9.03954e-07 8.44803e-06 4.04833e-06)
(4.41775e-06 1.3662e-06 -4.30359e-06)
(2.38905e-06 -9.10134e-07 2.19968e-06)
(-0.000379528 5.62027e-05 1.73557e-05)
(6.7461e-05 0.000247724 -5.8564e-06)
(-4.74997e-05 2.95041e-05 -1.49618e-05)
(-6.47362e-05 0.00019552 -7.76983e-05)
(0.000179347 0.00052267 9.02397e-05)
(0.000365777 -3.42132e-05 0.000307952)
(7.42235e-05 7.78412e-05 0.000170484)
(0.000247097 -0.00025759 0.000339367)
(0.000146342 -0.000432109 -4.56514e-05)
(-3.82367e-06 -8.54677e-06 7.59416e-05)
(-0.000136813 0.00016835 0.000225502)
(0.000344311 0.000128983 0.00020128)
(0.000271673 -5.32164e-05 -0.000181289)
(-0.000162837 -0.000238729 7.22193e-05)
(0.000178564 -0.000602305 6.13972e-05)
(-0.000167323 -0.00027332 0.000253979)
(0.000139553 0.000171525 0.000271827)
(0.00016136 0.000268741 -9.24848e-05)
(0.000220035 -0.000145328 -7.56314e-05)
(0.000118105 -4.86845e-05 0.000187247)
(-1.94469e-05 -2.25825e-05 -1.67596e-05)
(-7.80184e-06 3.39097e-07 1.70773e-05)
(-9.88509e-07 -1.59139e-05 1.50506e-05)
(2.79643e-06 5.10798e-07 -9.29126e-07)
(-4.39676e-06 2.70186e-05 -3.56443e-05)
(8.66827e-06 -2.10991e-06 -5.42166e-05)
(-1.05232e-05 3.3013e-06 -3.24186e-05)
(-1.31419e-05 -1.62051e-05 -6.90543e-05)
(6.91692e-06 -2.48501e-05 9.48246e-08)
(-2.42737e-06 -3.89935e-06 2.00635e-05)
(-1.66965e-05 2.08008e-05 -2.59329e-05)
(2.64915e-05 4.77545e-06 -4.26933e-05)
(1.05038e-05 -4.02647e-06 3.67354e-05)
(-2.23102e-05 -2.61478e-07 -2.95208e-05)
(4.12494e-06 -2.12286e-05 -1.28753e-05)
(-2.66166e-05 -8.11148e-06 -2.65269e-05)
(-7.45195e-07 3.94008e-06 -3.85294e-05)
(6.67101e-06 1.58705e-05 -1.21224e-05)
(-2.80975e-06 7.73686e-07 1.61122e-06)
(2.59909e-05 4.33461e-06 -2.59191e-05)
(7.8494e-06 7.93052e-06 -5.94074e-06)
(-2.99545e-08 8.50839e-07 1.10391e-05)
(-6.51518e-06 8.8666e-06 1.4055e-05)
(-7.16607e-06 3.04993e-06 -4.58681e-06)
(4.02354e-06 -1.30317e-05 -2.39941e-05)
(-6.10962e-06 1.66756e-06 -2.78509e-05)
(7.503e-06 6.44266e-07 -2.18315e-05)
(8.17131e-06 1.21307e-05 -3.7097e-05)
(7.83203e-07 1.95849e-05 -2.67316e-07)
(2.50673e-06 7.10208e-06 1.76538e-05)
(1.08678e-05 -4.71906e-06 -1.6708e-05)
(-9.95856e-06 3.59282e-06 -2.30244e-05)
(-4.51406e-06 6.65118e-06 2.2254e-05)
(6.47168e-06 -6.6165e-07 -1.85928e-05)
(-7.63224e-06 1.11789e-05 -8.56112e-06)
(1.11204e-05 5.5687e-06 -1.49294e-05)
(-3.54972e-06 -2.51868e-06 -2.33569e-05)
(-7.17887e-06 -9.22013e-06 -5.99017e-06)
(-4.72862e-07 -2.08555e-06 6.27221e-07)
(-1.10968e-05 -4.31296e-06 -1.6753e-05)
(4.15634e-06 4.71721e-06 -2.94463e-06)
(8.88308e-08 7.37391e-07 4.15675e-06)
(-3.82649e-06 5.66271e-06 -1.17131e-06)
(-4.76075e-06 2.42371e-06 1.39031e-07)
(2.55422e-06 -7.14063e-06 -6.99939e-06)
(-4.37802e-06 7.69438e-07 -1.13384e-05)
(3.81014e-06 2.48625e-07 -6.30252e-06)
(4.59788e-06 7.15072e-06 -1.19795e-05)
(-5.33959e-07 1.14776e-05 7.64697e-07)
(9.748e-07 4.50214e-06 1.40175e-06)
(6.47542e-06 -2.60545e-06 -3.87447e-06)
(-6.78829e-06 1.69183e-06 -7.20792e-06)
(-2.85679e-06 4.43342e-06 3.7003e-06)
(4.00991e-06 -1.52815e-07 -4.85308e-06)
(-4.22006e-06 7.05314e-06 -1.92452e-06)
(6.95598e-06 3.50524e-06 -4.83225e-06)
(-1.93954e-06 -1.46422e-06 -5.51405e-06)
(-4.4399e-06 -5.6635e-06 -2.61288e-06)
(-5.59331e-07 -5.28246e-07 7.6415e-07)
(-6.42999e-06 -1.58525e-06 -2.21672e-06)
(-2.49971e-06 -3.45363e-06 1.20964e-06)
(-9.46753e-07 -1.57071e-06 -2.03568e-06)
(-5.49695e-06 -1.52707e-06 -1.56709e-06)
(-3.07969e-07 5.45759e-06 -1.62108e-06)
(-3.22268e-06 -6.07625e-07 2.24852e-06)
(-3.79701e-06 -6.08941e-07 2.4902e-06)
(-4.47699e-06 7.02904e-07 1.22171e-07)
(3.49322e-07 3.54006e-08 -1.48011e-06)
(-1.9594e-06 1.63434e-06 9.59396e-08)
(-4.9248e-07 -8.76611e-08 1.53438e-06)
(2.21466e-06 1.90366e-06 1.36624e-06)
(-1.64989e-06 2.45252e-06 -1.6094e-06)
(1.16224e-06 -1.30546e-06 2.35953e-06)
(-9.6634e-08 4.60775e-06 2.25198e-06)
(2.29825e-06 7.03578e-07 -1.20174e-06)
(7.01327e-07 1.58044e-07 1.49476e-06)
(1.76637e-06 2.50941e-06 -5.536e-07)
(-1.73272e-06 -4.13506e-07 6.27099e-07)
(-2.25728e-06 1.97558e-06 1.36782e-06)
(-1.2753e-06 -4.29821e-08 -7.64633e-07)
(-5.41889e-09 -3.21476e-06 -2.07486e-06)
(-2.64125e-06 1.01568e-06 -2.84111e-06)
(5.20935e-07 9.46887e-07 -2.3189e-06)
(5.74615e-07 4.61578e-06 -3.73815e-06)
(-4.66005e-09 5.93482e-06 -2.62921e-08)
(2.72281e-07 2.23647e-06 1.63564e-06)
(2.07177e-06 -1.26829e-06 -1.82385e-06)
(-2.84816e-06 1.47625e-06 -2.65184e-06)
(-2.28782e-06 1.85689e-06 2.31195e-06)
(7.60399e-07 9.69215e-07 -1.99548e-06)
(-2.52789e-06 3.63733e-06 -8.53528e-07)
(2.21082e-06 1.59549e-06 -2.07638e-06)
(-1.92459e-06 -3.9107e-07 -2.62706e-06)
(-2.26856e-06 -2.65569e-06 -9.95737e-07)
(-1.68693e-06 -1.13951e-06 1.55701e-07)
(-3.94069e-06 -9.74718e-07 -1.87381e-06)
(8.56416e-05 8.31996e-05 9.5196e-05)
(-0.000315354 6.81724e-05 -8.61328e-05)
(0.000312333 2.03838e-05 -0.000104334)
(9.1996e-05 -0.000177512 0.000201882)
(-0.000264317 -0.000118148 1.29765e-05)
(-6.63426e-05 2.28817e-05 -5.40449e-05)
(-0.000500522 0.000126694 -0.000376371)
(-0.000399054 0.000624943 -0.000232299)
(-0.000398345 -0.000119338 0.00020031)
(-0.00048272 -4.55226e-05 -0.000221576)
(-0.000521695 0.000111646 -5.99788e-05)
(-0.000117611 -0.000162225 -4.97174e-06)
(-0.000251195 6.65252e-05 -1.39344e-05)
(-4.22206e-05 -0.000230208 -2.83999e-06)
(4.60822e-05 -0.000439629 -0.000141181)
(-9.5452e-05 -0.000279834 1.61388e-05)
(0.000121871 -0.000480343 -0.000184376)
(0.000216781 -5.92075e-05 -6.06147e-05)
(0.000219087 -0.000425575 -0.000193215)
(0.000172517 -0.000439195 -0.000370466)
(-0.000135796 -0.000419256 -0.000273317)
(-0.000116337 -0.000578053 7.11452e-05)
(-0.0001128 -0.00010409 0.000270475)
(5.21953e-05 3.17425e-05 8.67361e-06)
(-0.000252963 0.000167213 4.14212e-05)
(-5.04951e-05 7.34776e-05 -0.000137956)
(-3.26538e-05 -7.60038e-05 -5.64881e-05)
(-7.78128e-05 3.80013e-05 -0.000232293)
(3.17745e-05 1.34623e-05 1.3515e-05)
(-7.15276e-06 -2.38655e-06 -2.15766e-05)
(6.64665e-07 1.16857e-06 1.91202e-05)
(8.15989e-06 -1.08549e-05 -3.36799e-05)
(-2.28823e-05 -7.98088e-06 -2.71977e-05)
(-1.53385e-05 1.48216e-05 1.05697e-05)
(-1.91063e-05 2.96308e-06 4.59409e-05)
(-3.09646e-05 2.45141e-05 2.29444e-05)
(-2.16126e-05 -6.29752e-06 -2.85185e-05)
(-3.5153e-05 -2.04775e-05 4.21247e-05)
(-4.53831e-05 1.18027e-05 6.15141e-05)
(-7.14823e-06 2.41353e-05 1.64331e-05)
(3.59559e-06 1.85338e-05 -1.53708e-05)
(1.52829e-05 -1.17401e-06 -1.90681e-05)
(4.64571e-06 -1.28573e-05 2.93092e-05)
(-8.85168e-07 -8.24729e-06 2.16916e-06)
(1.39673e-05 -2.86689e-05 2.12582e-05)
(7.51224e-06 4.27586e-06 9.86021e-06)
(-2.88888e-06 -2.56758e-05 1.54921e-05)
(1.41864e-08 -1.51447e-05 1.78893e-05)
(6.19962e-06 -2.15651e-05 4.60602e-05)
(-2.20517e-07 -2.68934e-05 -5.86725e-06)
(5.36945e-07 1.28069e-05 -3.46774e-05)
(2.06969e-05 4.94658e-06 3.30064e-05)
(1.54605e-06 -7.7142e-06 5.55779e-06)
(-2.88533e-06 1.40774e-05 -4.89889e-06)
(1.48476e-05 1.20019e-05 2.57776e-05)
(4.78289e-06 3.39694e-06 1.48942e-05)
(-1.19815e-05 -8.02185e-06 1.01722e-05)
(4.1683e-07 8.38699e-07 -6.98794e-06)
(-5.35717e-06 -5.89965e-07 7.91653e-06)
(-1.19222e-05 6.16679e-06 -1.73675e-05)
(5.12969e-06 4.81806e-06 -2.30077e-05)
(1.03072e-05 -6.12877e-06 6.46539e-06)
(1.19298e-05 -1.46526e-06 2.68631e-05)
(1.65934e-05 -1.33646e-05 1.29756e-05)
(1.15976e-05 3.88995e-06 -1.94786e-05)
(1.88158e-05 1.44167e-05 1.64596e-05)
(2.53676e-05 -3.46657e-07 3.86721e-05)
(6.33997e-06 -8.79584e-06 8.83212e-06)
(-3.0109e-06 -7.96497e-06 -6.46588e-06)
(-8.72433e-06 1.85723e-06 -1.13531e-05)
(-2.46215e-06 7.56881e-06 1.85213e-05)
(1.44209e-06 6.82566e-06 3.44485e-06)
(-2.19996e-06 1.69939e-05 1.44422e-05)
(-2.28203e-07 -9.32357e-07 4.32631e-06)
(-9.78131e-07 1.2708e-05 4.67364e-06)
(-5.7871e-06 6.51681e-06 9.4693e-06)
(-7.65785e-06 1.08633e-05 2.81232e-05)
(-3.31166e-06 1.62458e-05 -8.96071e-07)
(-2.59138e-06 -5.82228e-06 -2.22099e-05)
(-1.47029e-05 -3.27537e-06 2.2163e-05)
(-3.34896e-06 5.66906e-06 7.41807e-06)
(1.85609e-07 -5.79419e-06 -3.66672e-06)
(-7.05733e-06 -3.5794e-06 1.78014e-05)
(9.18824e-07 -4.58668e-08 6.81918e-06)
(-6.1955e-06 -4.6591e-06 3.68314e-06)
(6.64864e-08 5.90786e-07 -3.96781e-06)
(-3.25232e-06 -5.69275e-07 4.25221e-06)
(-7.40378e-06 3.93196e-06 -6.10356e-06)
(3.04782e-06 3.00798e-06 -3.25559e-06)
(6.5869e-06 -3.87657e-06 -1.58589e-06)
(6.49239e-06 -1.02487e-06 5.8505e-06)
(9.3441e-06 -8.54109e-06 4.26452e-06)
(5.09189e-06 1.11162e-06 -3.76314e-06)
(9.68627e-06 9.02754e-06 6.68434e-06)
(1.38705e-05 5.94323e-07 7.20863e-06)
(3.13007e-06 -5.28308e-06 4.96661e-06)
(-2.89011e-06 -4.16731e-06 -1.42944e-06)
(-5.53921e-06 1.3106e-06 -1.21577e-06)
(-2.09584e-06 3.95976e-06 5.28294e-06)
(1.04787e-06 4.3812e-06 7.07131e-07)
(-1.51145e-06 9.38716e-06 4.52944e-06)
(-6.82918e-07 -8.95463e-07 2.07744e-06)
(-1.03063e-06 7.21331e-06 3.87223e-06)
(-3.11301e-06 4.14498e-06 2.5037e-06)
(-3.64921e-06 6.10623e-06 8.15301e-06)
(-1.68798e-06 9.91611e-06 4.09471e-07)
(-7.86305e-07 -3.04023e-06 -3.29732e-06)
(-8.23321e-06 -2.94757e-06 5.53269e-06)
(-2.26962e-06 2.74632e-06 -7.95481e-08)
(1.76474e-07 -2.90026e-06 5.60713e-07)
(-4.6417e-06 -9.19162e-07 3.85927e-06)
(8.42527e-07 8.25101e-07 3.77548e-06)
(-4.47876e-06 -2.11608e-06 6.26717e-07)
(1.40114e-07 2.36091e-07 -1.08989e-06)
(-2.68885e-06 -4.89839e-07 7.86629e-07)
(-4.16754e-06 1.19223e-06 -1.33692e-06)
(7.13339e-07 1.42043e-06 -2.3448e-06)
(1.10232e-06 -7.96423e-07 1.01789e-06)
(4.39797e-06 3.12677e-07 3.04263e-06)
(5.50707e-06 -3.78653e-06 1.80582e-06)
(3.8262e-06 1.22925e-06 -1.69761e-06)
(5.72065e-06 3.25122e-06 1.58403e-06)
(6.1305e-06 1.10874e-06 3.95916e-06)
(2.21361e-06 -3.89964e-07 8.7323e-07)
(-1.94264e-07 -1.79111e-06 -1.05376e-06)
(-1.81396e-06 1.78485e-06 -1.43299e-06)
(-5.27488e-07 3.40456e-06 2.11547e-06)
(2.67722e-07 2.58462e-06 1.16616e-07)
(-9.10504e-07 5.20859e-06 1.52379e-06)
(-1.14283e-06 6.46986e-07 7.77779e-07)
(-6.18199e-07 4.06361e-06 1.17096e-06)
(-1.49206e-06 2.02557e-06 1.25196e-06)
(-2.12491e-06 3.02776e-06 2.78999e-06)
(-1.12271e-06 4.67208e-06 -2.54686e-07)
(-1.09016e-06 -7.02183e-07 -2.36916e-06)
(-3.42037e-06 1.28405e-07 2.09387e-06)
(-5.70683e-07 9.41226e-07 5.73454e-07)
(1.76538e-07 -1.51411e-06 1.17039e-07)
(-9.45296e-07 -2.82449e-07 1.81546e-06)
(8.688e-07 -3.02e-07 7.66306e-07)
(-0.000105681 4.17377e-05 -0.000211104)
(3.79202e-05 0.000102521 8.68999e-05)
(0.000300786 0.000176556 -1.58669e-05)
(6.73012e-05 -0.000344355 6.38554e-05)
(-1.42487e-06 1.12107e-05 3.13311e-05)
(4.15655e-06 1.09248e-05 -3.43486e-05)
(2.39112e-05 9.38289e-06 -2.31202e-05)
(-1.54877e-06 -2.44375e-05 -3.08431e-05)
)
;

boundaryField
{
    top_fluid_surface
    {
        type            pressureInletOutletVelocity;
        value           nonuniform List<vector> 
64
(
(0.000284401 -0.000100424 2.32437e-05)
(0 0 -2.53478e-05)
(0 0 -5.72043e-05)
(0 0 -1.96324e-05)
(0 0 -6.31205e-05)
(0 0 -0.000130894)
(0 0 -0.00020189)
(-0.000150237 -0.000188265 0.000187385)
(0 0 -4.35902e-05)
(-0.000246956 -0.000296539 -7.4996e-06)
(-0.000334609 8.59748e-05 0.000182782)
(0 0 -1.16722e-05)
(0 0 1.73557e-05)
(0 0 -5.8564e-06)
(0 0 -1.49618e-05)
(0 0 -7.76983e-05)
(0.000179347 0.00052267 9.02397e-05)
(0.000365777 -3.42132e-05 0.000307952)
(7.42235e-05 7.78412e-05 0.000170484)
(0.000247097 -0.00025759 0.000339367)
(0 0 -4.56514e-05)
(-3.82367e-06 -8.54677e-06 7.59416e-05)
(-0.000136813 0.00016835 0.000225502)
(0.000344311 0.000128983 0.00020128)
(0 0 -0.000181289)
(-0.000162837 -0.000238729 7.22193e-05)
(0.000178564 -0.000602305 6.13972e-05)
(-0.000167323 -0.00027332 0.000253979)
(0.000139553 0.000171525 0.000271827)
(0 0 -9.24848e-05)
(0 0 -7.56314e-05)
(0.000118105 -4.86845e-05 0.000187247)
(8.56416e-05 8.31996e-05 9.5196e-05)
(0 0 -8.61328e-05)
(0 0 -0.000104334)
(9.1996e-05 -0.000177512 0.000201882)
(-0.000264317 -0.000118148 1.29765e-05)
(0 0 -5.40449e-05)
(0 0 -0.000376371)
(0 0 -0.000232299)
(-0.000398345 -0.000119338 0.00020031)
(0 0 -0.000221576)
(0 0 -5.99788e-05)
(-0.000117611 -0.000162225 -4.97174e-06)
(0 0 -1.39344e-05)
(0 0 -2.83999e-06)
(0 0 -0.000141181)
(0 0 1.61388e-05)
(0 0 -0.000184376)
(0 0 -6.06147e-05)
(0 0 -0.000193215)
(0 0 -0.000370466)
(0 0 -0.000273317)
(-0.000116337 -0.000578053 7.11452e-05)
(-0.0001128 -0.00010409 0.000270475)
(5.21953e-05 3.17425e-05 8.67361e-06)
(-0.000252963 0.000167213 4.14212e-05)
(0 0 -0.000137956)
(0 0 -5.64881e-05)
(0 0 -0.000232293)
(0 0 -0.000211104)
(3.79202e-05 0.000102521 8.68999e-05)
(0 0 -1.58669e-05)
(6.73012e-05 -0.000344355 6.38554e-05)
)
;
    }
    bottom_fluid_surface
    {
        type            noSlip;
    }
    lateral_surface_1
    {
        type            noSlip;
    }
    lateral_surface_2
    {
        type            noSlip;
    }
    lateral_surface_3
    {
        type            noSlip;
    }
    lateral_surface_4
    {
        type            noSlip;
    }
}


// ************************************************************************* //
