/*--------------------------------*- C++ -*----------------------------------*\
| =========                 |                                                 |
| \\      /  F ield         | OpenFOAM: The Open Source CFD Toolbox           |
|  \\    /   O peration     | Version:  v1612+                                |
|   \\  /    A nd           | Web:      www.OpenFOAM.com                      |
|    \\/     M anipulation  |                                                 |
\*---------------------------------------------------------------------------*/
FoamFile
{
    version     2.0;
    format      ascii;
    class       surfaceScalarField;
    location    "4.95";
    object      alphaPhi;
}
// * * * * * * * * * * * * * * * * * * * * * * * * * * * * * * * * * * * * * //

dimensions      [0 3 -1 0 0 0 0];

internalField   nonuniform List<scalar> 
2916
(
-3.23334e-06
0.0490206
-1.12672e-07
-3.585e-06
0.0490211
-1.12686e-07
-7.28039e-07
0.0490212
-1.12679e-07
-1.51485e-06
0.0490215
-1.12652e-07
-3.11573e-06
0.0490212
-1.12627e-07
0.0490204
-1.12656e-07
-2.35269e-06
0.090142
-3.19571e-06
-3.24228e-06
0.0901451
-3.20046e-06
-4.44244e-07
0.0901447
-3.19858e-06
-1.78466e-06
0.0901445
-3.1984e-06
-4.62776e-06
0.0901447
-3.19923e-06
0.0901432
-3.19608e-06
6.51523e-07
0.057152
0.0248429
-7.19875e-07
0.0571612
0.0248418
-1.19948e-06
0.0571591
0.024842
-3.50817e-06
0.0571586
0.0248433
-5.3747e-06
0.0571603
0.0248423
0.0571551
0.0248395
1.39432e-06
-0.105138
0.109299
-1.10923e-06
-0.105131
0.109304
-3.04872e-06
-0.105133
0.109302
-5.34079e-06
-0.105132
0.109302
-5.59112e-06
-0.105131
0.109301
-0.105136
0.109297
2.58794e-05
-0.636732
0.262749
3.94934e-06
-0.636702
0.262777
-1.87904e-06
-0.636703
0.262762
-5.70675e-06
-0.636703
0.262761
-2.07082e-05
-0.636696
0.262768
-0.636725
0.262753
7.91589e-06
-1.24437
0.434139
1.46037e-05
-1.24437
0.434166
8.70719e-06
-1.24435
0.434154
-3.26043e-06
-1.24434
0.434158
-1.50826e-05
-1.24435
0.434166
-1.24438
0.43415
-2.89127e-05
-1.637
0.391493
2.03151e-05
-1.63707
0.39149
1.43419e-05
-1.637
0.391499
-1.23658e-06
-1.637
0.391506
2.05525e-06
-1.63702
0.391506
-1.63703
0.391497
-4.3765e-05
-1.78805
0.149868
1.75048e-05
-1.78823
0.149871
9.3281e-06
-1.78812
0.149899
-2.2032e-06
-1.78811
0.149902
1.7092e-05
-1.78816
0.149901
-1.7881
0.149858
0.000107124
-1.58631
-0.203113
2.43697e-05
-1.58652
-0.20289
-1.78062e-05
-1.5864
-0.202942
-1.23498e-05
-1.58641
-0.20297
-4.80012e-05
-1.58649
-0.202907
-1.58634
-0.203081
0.000353009
-1.11043
-0.477267
2.30224e-05
-1.1105
-0.476726
-6.4011e-05
-1.11044
-0.476911
-3.54449e-05
-1.11049
-0.476989
-0.000193258
-1.11055
-0.476826
-1.1104
-0.477174
0.000251265
-0.472358
-0.637754
-1.32329e-05
-0.472308
-0.637366
-6.71725e-05
-0.472303
-0.637514
-5.78451e-05
-0.47235
-0.637587
-0.000221427
-0.472349
-0.637467
-0.47232
-0.637728
-0.000120301
-0.469245
-5.79772e-05
-0.469385
-2.50418e-05
-0.46935
-4.06385e-05
-0.469346
-4.97541e-05
-0.469353
-0.469377
-6.35615e-12
5.77432e-08
-2.21081e-07
-3.14049e-12
5.77117e-08
-2.21155e-07
-1.58889e-13
5.77168e-08
-2.21103e-07
2.21711e-12
5.77144e-08
-2.21097e-07
5.03908e-12
5.7703e-08
-2.21092e-07
5.77453e-08
-2.21101e-07
-1.13138e-11
1.89395e-07
-3.37919e-06
-7.98545e-12
1.89529e-07
-3.38415e-06
-4.87125e-12
1.89462e-07
-3.38218e-06
3.70807e-12
1.8945e-07
-3.38201e-06
1.32777e-11
1.89471e-07
-3.38288e-06
1.89388e-07
-3.37955e-06
1.55728e-07
0.00582993
-0.000392135
-2.14568e-07
0.00583381
-0.000392065
-2.09915e-07
0.00583163
-0.000392043
-8.45407e-08
0.00583146
-0.000392078
-1.3815e-07
0.00583253
-0.000392054
0.00582997
-0.000391994
7.50717e-06
-0.00463679
-0.00322487
-1.46772e-06
-0.00463339
-0.00322841
-1.90096e-06
-0.00463497
-0.003227
-6.93201e-07
-0.00463466
-0.00322593
-4.51211e-06
-0.00463352
-0.00322677
-0.00463539
-0.00322547
9.48793e-05
-0.34425
-0.0181587
1.55671e-06
-0.344283
-0.0181732
-8.92597e-06
-0.344254
-0.0181667
2.68112e-07
-0.344239
-0.0181621
-5.35016e-05
-0.344248
-0.0181667
-0.344249
-0.0181593
0.000157608
-1.29571
0.196211
1.16805e-05
-1.29574
0.196433
-5.03538e-06
-1.2957
0.196328
3.70755e-08
-1.29569
0.196317
-0.000104535
-1.29569
0.196392
-1.29573
0.196253
0.000120949
-1.42699
0.286976
8.41912e-06
-1.42721
0.287375
-8.074e-06
-1.42709
0.287206
7.42518e-06
-1.42707
0.287173
-7.6006e-05
-1.42713
0.287316
-1.42706
0.287073
0.000187304
-1.27325
-0.00532735
-7.5574e-06
-1.27346
-0.00495097
-2.23357e-05
-1.27336
-0.00509452
2.46575e-05
-1.27335
-0.0051438
-8.05778e-05
-1.27339
-0.00500705
-1.27331
-0.00524813
0.000397087
-0.93338
-0.456
1.00739e-05
-0.933285
-0.455588
-3.90387e-05
-0.933317
-0.455725
2.29644e-05
-0.933342
-0.455807
-0.000170852
-0.933299
-0.455661
-0.933331
-0.455929
0.000150242
-0.548423
-0.538555
-2.62611e-05
-0.547699
-0.538481
-4.10392e-05
-0.547998
-0.538498
-2.48799e-05
-0.548052
-0.538537
-0.000115437
-0.547824
-0.538487
-0.548233
-0.538604
-0.000352709
-0.335351
-0.508228
-7.2478e-05
-0.334701
-0.50827
2.02893e-06
-0.334969
-0.508274
-4.85792e-05
-0.335006
-0.508242
3.73755e-05
-0.33478
-0.508223
-0.335228
-0.508354
-0.000314257
-0.503415
-8.96811e-05
-0.503247
-5.65316e-05
-0.503361
-4.64605e-05
-0.503347
0.000140269
-0.503218
-0.503556
-7.98511e-12
-2.24243e-07
-7.39674e-09
-2.62327e-12
-2.24372e-07
-7.40577e-09
-6.98146e-13
-2.2427e-07
-7.40364e-09
1.61793e-12
-2.24315e-07
-7.40316e-09
6.55883e-12
-2.24333e-07
-7.40401e-09
-2.24297e-07
-7.39877e-09
-5.91565e-10
-3.93388e-06
1.72154e-07
-1.40253e-10
-3.93973e-06
1.71426e-07
-9.41053e-11
-3.93718e-06
1.71531e-07
2.72628e-11
-3.9372e-06
1.71595e-07
3.72142e-10
-3.93825e-06
1.71431e-07
-3.93444e-06
1.71945e-07
-5.37728e-08
-0.000445416
2.86737e-05
-4.36555e-10
-0.000445476
2.86608e-05
5.2114e-09
-0.000445382
2.86545e-05
9.07101e-09
-0.000445432
2.8672e-05
4.666e-08
-0.00044544
2.86616e-05
-0.000445276
2.86638e-05
1.18392e-06
-0.00461303
0.000323902
3.97976e-07
-0.00461599
0.000324446
-6.53323e-08
-0.00461371
0.000323769
2.02513e-07
-0.00461445
0.000324825
-1.70625e-08
-0.00461537
0.000325186
-0.00461264
0.000324184
3.44376e-05
-0.0541446
0.000420666
-2.68053e-06
-0.0541117
0.000420273
-4.14185e-06
-0.0541247
0.000420003
-6.58667e-08
-0.0541202
0.000421435
-2.12717e-05
-0.0541043
0.000421371
-0.0541218
0.000420471
0.000213789
-0.865684
-0.0672714
-1.0859e-06
-0.866014
-0.0669636
-2.06205e-05
-0.865852
-0.0670927
2.9968e-06
-0.86585
-0.0671369
-0.000126518
-0.865945
-0.0670207
-0.865726
-0.0671842
0.000104732
-0.897362
-0.129592
8.16427e-06
-0.897682
-0.129485
-1.27017e-05
-0.897528
-0.129512
8.54979e-06
-0.897551
-0.129562
-4.69319e-05
-0.897653
-0.12952
-0.897444
-0.129557
-0.000182894
-0.555953
-0.157789
-1.19094e-05
-0.55599
-0.157927
-7.38144e-06
-0.555962
-0.157848
-1.47604e-05
-0.556025
-0.157864
0.00010794
-0.556049
-0.157912
-0.555989
-0.157817
-0.000564888
-0.0796153
-0.000172984
-4.1471e-05
-0.0794662
-0.000171611
2.69917e-05
-0.0795417
-0.000171843
-4.84664e-05
-0.0795484
-0.00017282
0.00026321
-0.0794975
-0.000172596
-0.0796309
-0.000173285
-0.000445241
0.0954973
-0.000582548
-3.1287e-05
0.0955769
-0.000583916
6.0196e-05
0.0955159
-0.000583571
-1.63141e-05
0.0955762
-0.000582907
0.000176305
0.0955916
-0.000582986
0.0954358
-0.000583771
-0.000292697
0.00712735
-0.00151961
-1.72708e-05
0.00708835
-0.00151874
3.16929e-05
0.00708124
-0.00151958
7.9259e-06
0.00714481
-0.00151834
0.0001974
0.00696751
-0.00151682
0.00717929
-0.00152183
0.0001064
-0.0190046
1.80308e-05
-0.019016
9.98278e-06
-0.0190214
-1.75541e-07
-0.0190109
-0.000141246
-0.0190516
-0.0189965
-3.92558e-12
2.18497e-07
1.18903e-08
-1.09001e-12
2.18203e-07
1.18623e-08
-5.46916e-13
2.1827e-07
1.18696e-08
-2.34645e-13
2.18468e-07
1.18669e-08
1.92664e-12
2.1832e-07
1.1856e-08
2.18444e-07
1.18968e-08
-2.11588e-12
4.14189e-07
1.29873e-07
-5.66385e-12
4.13612e-07
1.29338e-07
-1.86673e-11
4.13689e-07
1.29508e-07
-2.36879e-13
4.13752e-07
1.29656e-07
-7.35749e-12
4.13637e-07
1.29442e-07
4.13859e-07
1.29829e-07
6.81764e-09
9.45646e-06
1.2574e-05
3.8047e-09
9.4877e-06
1.25368e-05
3.07176e-10
9.47594e-06
1.25462e-05
1.94777e-09
9.46159e-06
1.25702e-05
-1.0844e-09
9.47251e-06
1.25536e-05
9.4535e-06
1.25711e-05
-2.9229e-08
-0.000193546
0.00033544
-6.42356e-08
-0.000190937
0.000333436
-8.69383e-08
-0.000192258
0.000334117
-3.2321e-08
-0.000192256
0.000334937
5.44053e-09
-0.000191094
0.000334191
-0.000192894
0.000335045
2.04718e-06
-0.11286
0.00964927
-2.8814e-06
-0.112841
0.00966149
-5.26289e-06
-0.11282
0.00965464
-8.62451e-07
-0.1129
0.00965733
7.06554e-07
-0.112904
0.00966282
-0.112857
0.00965399
-3.35441e-05
-0.11585
-0.0134991
-9.57999e-06
-0.115819
-0.0135019
-7.37244e-06
-0.115801
-0.0134959
-2.32799e-06
-0.115892
-0.0135138
2.07717e-05
-0.115899
-0.0135142
-0.115848
-0.0134985
-7.7565e-05
-0.0537076
-8.02627e-06
-7.50272e-06
-0.0536883
-8.1e-06
-2.76107e-06
-0.0536718
-8.07257e-06
-7.45741e-06
-0.0537293
-8.05833e-06
4.39065e-05
-0.053744
-8.07051e-06
-0.0537059
-8.04448e-06
-4.18724e-05
0.000100335
-8.57457e-05
-4.89889e-06
9.87818e-05
-8.59009e-05
-3.66047e-06
9.9053e-05
-8.58728e-05
-8.66101e-06
0.000100149
-8.57377e-05
1.84074e-05
9.99414e-05
-8.56962e-05
0.000100425
-8.59042e-05
-3.98999e-09
3.89427e-06
-7.59283e-05
-1.23903e-09
3.89661e-06
-7.61172e-05
-2.34813e-09
3.89852e-06
-7.60758e-05
-2.51395e-09
3.89292e-06
-7.5953e-05
1.27411e-09
3.89055e-06
-7.59369e-05
3.8977e-06
-7.61453e-05
-4.48948e-09
1.97141e-05
-0.000597913
1.02536e-09
1.97177e-05
-0.000599292
6.19549e-09
1.97228e-05
-0.00059895
2.95659e-09
1.97105e-05
-0.000598268
8.77721e-09
1.96993e-05
-0.000598338
1.97305e-05
-0.000599156
-1.65714e-10
1.01992e-06
-0.00149874
9.9922e-11
1.00462e-06
-0.00149786
7.62167e-11
1.01153e-06
-0.0014987
1.86623e-10
1.0133e-06
-0.00149747
2.57471e-09
1.00517e-06
-0.00149596
1.01837e-06
-0.00150094
6.50253e-07
-0.0190002
3.86583e-08
-0.0190103
-4.58763e-08
-0.0190162
2.28547e-07
-0.0190061
-4.83186e-07
-0.0190458
-0.0189919
-1.69317e-07
-4.54168e-05
1.19636e-05
1.31554e-07
-5.59495e-05
1.41338e-05
-1.32596e-07
-3.93913e-05
1.05987e-05
-5.8136e-08
-5.75675e-05
1.42196e-05
1.6082e-06
-5.87123e-05
2.2211e-05
-2.24728e-05
6.77938e-06
-4.6252e-06
-0.000288355
0.000179346
3.52376e-06
-0.000350674
0.00020306
-4.87749e-06
-0.000255825
0.000164008
-1.9002e-06
-0.000354865
0.000208159
5.23165e-05
-0.000540279
0.000319129
-0.000127516
0.000120177
-7.30271e-05
-0.00292588
0.00192217
3.30561e-05
-0.0034188
0.00203967
-0.00012578
-0.00267085
0.00184104
-7.38826e-05
-0.00348771
0.00211762
0.000779207
-0.00548379
0.00261557
-0.00142136
0.0015855
3.39395e-05
-0.136234
0.00696966
0.000500262
-0.15016
0.0068429
-2.31857e-06
-0.127686
0.00704186
0.000370487
-0.157655
0.00728214
0.00304632
-0.228928
0.00579789
-0.0876665
0.00714668
0.00134913
-0.274404
-0.000441918
0.00301136
-0.280146
-0.000431488
0.00595197
-0.271964
-0.00039046
0.00358649
-0.258617
-0.000410056
-0.00152976
-0.302155
-0.000453959
-0.212094
-0.000332348
0.0025134
-0.275466
-0.00262743
0.00489678
-0.280151
-0.00247933
0.0120323
-0.271304
-0.00226436
0.00807003
-0.278546
-0.00210037
-0.00809006
-0.306924
-0.00186148
-0.254499
-0.00192741
0.00271264
-0.25819
-0.0128416
0.00552114
-0.254789
-0.0133334
0.0135847
-0.250791
-0.0138978
0.0108883
-0.248918
-0.0110314
-0.0117246
-0.253273
-0.00639071
-0.25488
-0.0137999
0.00095116
-0.266545
-0.0538692
0.00344344
-0.271317
-0.0548005
0.0108638
-0.281041
-0.0556343
0.00822546
-0.293431
-0.0439981
-0.0126675
-0.300403
-0.02497
-0.286562
-0.0527834
-0.00190357
-0.166897
-0.190974
-0.0011589
-0.172248
-0.198652
0.00409004
-0.16541
-0.196641
-0.00613712
-0.158409
-0.183226
-0.0096208
-0.197663
-0.160836
-0.156243
-0.198371
-0.00176524
0.0142533
-0.196433
0.00155174
0.012733
-0.201612
0.0282524
0.00709023
-0.207005
0.00030673
0.0161292
-0.19649
-0.0498665
0.0552678
-0.267935
0.000121408
-0.203078
0.00168799
0.0119188
-0.037144
0.00451142
0.0117249
-0.042451
0.0157596
0.0144745
-0.0581452
0.0106429
0.0109374
-0.0253731
-0.0194766
0.00803046
-0.00200511
0.0121563
-0.0967455
0.000322013
0.00840573
0.000574463
0.00827953
0.00165251
0.00664902
0.00115741
0.00941345
-0.00179271
0.00978919
0.00504561
-1.13854e-07
3.55214e-06
5.34988e-06
3.57539e-08
3.50217e-06
6.40605e-06
-1.11226e-07
3.13448e-06
4.82907e-06
-3.87842e-08
3.21855e-06
6.63522e-06
1.25213e-06
8.4925e-07
1.15343e-05
3.43926e-06
2.91005e-06
-3.94623e-06
-0.00125279
0.00025145
-1.17146e-06
-0.00153364
0.000298254
-2.93023e-06
-0.00105009
0.000213488
-1.47974e-06
-0.00161545
0.000311554
2.09131e-05
-0.00294719
0.000560221
-0.000602512
0.000139214
-2.81466e-05
-0.00702903
0.00167788
-9.03361e-05
-0.00720507
0.0016043
-5.26323e-05
-0.00697443
0.00172574
-5.76043e-05
-0.00746012
0.00165932
-0.000244956
-0.00777647
0.00132849
-0.00652037
0.00196696
7.64092e-06
0.000159654
-0.00070357
-0.000110453
0.000165578
-0.000695638
-0.000119074
0.000158806
-0.000701682
-0.000127635
0.000175806
-0.000719969
-0.000267129
0.000204002
-0.000700355
0.00014284
-0.000689631
2.80209e-07
-0.000282107
-4.75428e-07
8.2439e-08
-0.000265272
-4.65146e-07
-3.17401e-07
-0.000230906
-4.12977e-07
-2.52381e-07
-0.000233965
-3.92272e-07
6.15343e-07
-0.000250508
-3.46769e-07
-0.000188653
-3.30345e-07
5.13829e-06
-0.0029135
-1.05589e-06
5.16654e-06
-0.00274348
-1.03721e-06
3.5598e-06
-0.00249245
-1.11884e-06
4.2677e-06
-0.00233398
-9.76954e-07
4.11641e-06
-0.0021112
-5.51453e-07
-0.00211062
-1.25102e-06
4.70761e-05
-0.0157672
-3.44753e-05
6.28303e-05
-0.0160566
-3.55019e-05
0.000119931
-0.0164103
-3.64752e-05
0.000131235
-0.0133454
-3.08026e-05
-0.00011211
-0.00824717
-1.13214e-05
-0.0159877
-3.4411e-05
-0.000122514
-0.0781707
-0.00122644
2.91708e-05
-0.0778782
-0.00124283
0.000611028
-0.0772824
-0.00128018
0.00037525
-0.0631908
-0.000985836
-0.00148399
-0.0448366
-0.000345375
-0.0752976
-0.00121297
-0.00120369
-0.216948
-0.0468675
-0.00107009
-0.221903
-0.048798
0.00192929
-0.231147
-0.0521379
0.000302174
-0.20419
-0.0411533
-0.00899099
-0.175081
-0.0173174
-0.241968
-0.0535062
-0.00206604
-0.199458
-0.230061
-0.00448114
-0.204981
-0.2364
-0.00346475
-0.210232
-0.240799
-0.00209812
-0.186523
-0.235806
-0.0120081
-0.145619
-0.196101
-0.222276
-0.24915
0.00367889
-0.00352241
-0.238413
0.00385589
-0.00359835
-0.241096
0.00623441
-0.0184759
-0.251642
0.00560949
-0.0049798
-0.211
-0.00173111
-0.0051986
-0.0854505
-0.0390052
-0.296041
0.000523452
0.00110114
0.00108144
0.000864467
0.00194279
-0.0158645
0.00185462
0.00329866
-0.000665047
0.00633011
-0.0358406
-9.20387e-09
3.68438e-06
4.13039e-07
-6.96919e-10
4.45074e-06
4.5004e-07
-1.01943e-08
3.27696e-06
3.92211e-07
-2.7075e-09
4.6386e-06
4.59798e-07
1.0017e-07
8.37177e-06
5.19413e-07
1.97939e-06
2.62372e-07
-1.11954e-06
-0.000185507
4.39286e-05
-7.07345e-07
-0.000214136
4.39372e-05
-8.91269e-07
-0.000182341
4.68634e-05
-3.51699e-08
-0.000228334
4.55568e-05
3.22821e-06
-0.000292184
2.10537e-05
-0.000119525
3.65667e-05
-1.31114e-05
-0.00026401
5.19715e-05
-3.12102e-05
-0.000277489
5.0318e-05
-1.1825e-05
-0.000294581
5.29937e-05
-2.19504e-05
-0.000283635
4.99419e-05
-7.54021e-05
-0.000232711
4.19065e-05
-0.000287753
5.60756e-05
-5.31421e-06
-2.90287e-06
-5.71926e-05
-1.49434e-05
-2.89943e-06
-5.70519e-05
-1.51293e-05
-2.97508e-06
-5.566e-05
-1.11163e-05
-2.8248e-06
-5.6414e-05
-2.4784e-05
-2.50586e-06
-5.25032e-05
-2.94509e-06
-5.14206e-05
-6.18108e-09
-5.32665e-07
-2.72447e-06
-1.51603e-08
-5.36717e-07
-2.70794e-06
-3.47683e-08
-5.19587e-07
-2.75512e-06
-2.99502e-08
-5.2021e-07
-2.61332e-06
2.2086e-08
-5.78357e-07
-2.23795e-06
-5.0927e-07
-2.65713e-06
5.65015e-10
-7.20133e-07
-7.4558e-07
-8.57381e-09
-7.49148e-07
-7.38002e-07
-3.75953e-08
-7.52993e-07
-7.6302e-07
-2.80274e-08
-6.63583e-07
-7.78001e-07
5.18498e-08
-3.38476e-07
-7.67865e-07
-7.02424e-07
-9.38781e-07
9.87504e-10
-3.50515e-05
-1.37589e-07
-5.68435e-08
-3.60507e-05
-1.35346e-07
-1.59569e-07
-3.69755e-05
-1.42133e-07
-5.25038e-08
-3.14359e-05
-1.29141e-07
7.23008e-08
-1.16942e-05
-8.20358e-08
-3.48676e-05
-1.62988e-07
-6.83647e-07
-0.00126081
-1.20573e-09
-2.86946e-06
-0.0012767
-1.13015e-09
-5.45055e-06
-0.00131459
-1.1781e-09
-1.60544e-06
-0.00102112
-9.9786e-10
1.43088e-06
-0.000360075
-4.65958e-10
-0.00124641
-1.31726e-09
-3.81758e-05
-0.0477915
-0.000292226
-8.15332e-05
-0.0496947
-0.000329264
-7.23665e-05
-0.0531024
-0.000350935
9.91093e-06
-0.0418733
-0.000377953
-0.000232081
-0.0170105
-0.000422882
-0.0545401
-0.000435108
-0.00184388
-0.195852
-0.0531128
-0.00536254
-0.195003
-0.0556859
-0.0127246
-0.192518
-0.0606858
-0.00170472
-0.201902
-0.0481688
-0.000463205
-0.177197
-0.016323
-0.223426
-0.0630018
-0.00405427
-0.109712
-0.305063
-0.0145946
-0.118179
-0.315812
-0.0412373
-0.136246
-0.328334
-0.0334253
-0.0790436
-0.322403
0.0451547
-0.0029298
-0.314832
-0.136126
-0.315296
0.000819538
-0.184701
-0.00324624
-0.193012
-0.0442233
-0.217391
0.000400359
-0.161976
0.00143088
0.00157376
-0.228389
-1.91389e-10
3.37819e-07
3.30603e-08
-8.44395e-11
3.62044e-07
3.60574e-08
-2.58254e-10
3.22275e-07
3.13644e-08
-2.02274e-10
3.676e-07
3.68802e-08
1.57114e-09
3.74451e-07
4.41778e-08
2.18478e-07
2.24093e-08
-8.42811e-08
1.24536e-05
6.35273e-07
-5.88607e-08
1.32293e-05
6.98692e-07
-1.12409e-07
1.18136e-05
6.00655e-07
-1.26159e-08
1.33399e-05
7.21899e-07
2.70473e-07
1.47421e-05
8.84005e-07
8.76977e-06
4.08741e-07
-5.99771e-07
5.55784e-05
3.66134e-06
-1.19147e-06
5.48868e-05
3.64479e-06
-6.85784e-07
5.46547e-05
3.66843e-06
-9.09519e-07
5.4097e-05
3.69106e-06
-1.86916e-06
4.94925e-05
3.15476e-06
5.30551e-05
3.56068e-06
-8.16026e-08
3.52749e-06
-3.80624e-06
-3.71742e-07
3.23308e-06
-3.86633e-06
-1.23942e-07
3.85209e-06
-3.74939e-06
-2.19838e-07
2.95846e-06
-3.91856e-06
-1.39475e-06
1.95576e-06
-3.13263e-06
5.1367e-06
-3.38509e-06
2.27031e-08
5.55468e-07
-1.34492e-07
-2.97211e-08
5.3569e-07
-1.46763e-07
3.12022e-09
5.27294e-07
-8.14772e-08
-9.72523e-08
5.82426e-07
-1.38161e-07
-1.67982e-07
5.6613e-07
-1.238e-07
6.61444e-07
-8.07734e-08
5.45546e-09
1.28912e-07
-1.58833e-07
6.65908e-09
1.26848e-07
-1.58422e-07
1.08152e-08
1.33096e-07
-1.57956e-07
2.23512e-09
1.20565e-07
-1.57537e-07
-1.26578e-08
7.46714e-08
-1.55198e-07
1.52242e-07
-1.58284e-07
3.43262e-11
1.16811e-09
-9.8954e-09
2.94585e-11
1.09999e-09
-9.6049e-09
2.51703e-11
1.14392e-09
-1.01735e-08
-4.5732e-11
1.0233e-09
-9.53454e-09
-4.33281e-12
9.42356e-10
-8.14686e-09
1.34864e-09
-1.2044e-08
-1.95848e-12
1.60143e-10
-1.13416e-10
-4.27267e-12
1.60607e-10
-1.08539e-10
-8.89854e-12
1.71023e-10
-1.14645e-10
-9.58035e-12
2.15574e-10
-1.14964e-10
6.59216e-12
5.97377e-10
-1.00415e-10
2.37391e-10
-1.28602e-10
-6.75612e-08
-0.000292158
1.03654e-10
-2.14883e-07
-0.000329117
3.81193e-11
-5.78821e-07
-0.00035057
4.95885e-11
-1.80286e-06
-0.000376728
5.51428e-11
1.94813e-06
-0.000426632
-2.97618e-11
-0.00043316
4.97952e-11
-8.1316e-05
-0.0522565
-0.00106045
-0.000179146
-0.0548274
-0.00108193
-0.000247816
-0.0598468
-0.00111217
-0.000215436
-0.0475201
-0.00105191
6.09448e-05
-0.0164687
-0.000564638
-0.0622089
-0.00115528
-0.00360054
-0.213816
-0.0911362
-0.0105705
-0.216336
-0.0922499
-0.0243535
-0.220523
-0.0939374
-0.0144709
-0.23676
-0.0943444
0.00958769
-0.207954
-0.0774076
-0.237297
-0.0966394
-0.00873491
-0.312534
-0.0302634
-0.310597
-0.0844081
-0.306537
-0.101473
-0.304439
0.090654
-0.320232
-0.296891
1.11257e-13
3.06052e-09
-4.50941e-09
-2.02692e-13
3.0486e-09
-4.50599e-09
-3.74377e-13
3.05259e-09
-4.50695e-09
-4.45435e-13
3.05245e-09
-4.4971e-09
-6.64061e-13
3.04378e-09
-4.49423e-09
3.05992e-09
-4.51408e-09
1.06076e-14
5.89595e-10
-2.26172e-10
8.67292e-17
5.8943e-10
-2.2468e-10
-6.89931e-15
5.89183e-10
-2.25057e-10
-1.13647e-14
5.89003e-10
-2.24622e-10
-2.05938e-14
5.88976e-10
-2.2384e-10
5.89041e-10
-2.26605e-10
9.76167e-17
5.45699e-13
-2.10662e-16
5.44795e-13
-4.8886e-16
5.4482e-13
-6.48987e-16
5.44501e-13
-6.92504e-16
5.43915e-13
5.44976e-13
-1.25601e-11
3.30792e-08
3.63619e-07
-7.67447e-12
3.29628e-08
3.62459e-07
-9.67939e-12
3.29958e-08
3.62777e-07
-8.56336e-12
3.29863e-08
3.63579e-07
-6.49863e-12
3.29298e-08
3.63065e-07
3.30915e-08
3.63539e-07
-3.44898e-13
1.11031e-09
4.49329e-09
-1.90668e-13
1.10901e-09
4.49194e-09
-2.78286e-13
1.1091e-09
4.49112e-09
-2.99455e-13
1.1093e-09
4.49926e-09
-1.76505e-13
1.10863e-09
4.49757e-09
1.10995e-09
4.49617e-09
-3.24532e-15
2.11898e-11
-2.76251e-15
2.10983e-11
-4.43428e-15
2.11267e-11
-4.77487e-15
2.11434e-11
-2.86504e-15
2.1104e-11
2.11726e-11
9.85656e-11
2.61638e-07
6.35292e-06
2.77829e-11
2.61315e-07
6.30315e-06
-1.40867e-10
2.61315e-07
6.31997e-06
-5.33588e-11
2.61632e-07
6.34369e-06
-1.1939e-10
2.61486e-07
6.3239e-06
2.61559e-07
6.34853e-06
-9.51213e-12
7.16672e-09
7.38124e-08
-2.68581e-12
7.14269e-09
7.30274e-08
-3.49758e-12
7.1496e-09
7.32962e-08
-3.57783e-12
7.1568e-09
7.34585e-08
5.48566e-13
7.14663e-09
7.31883e-08
7.1638e-09
7.34956e-08
-7.92406e-14
4.52588e-09
-3.00639e-14
4.51064e-09
-4.76493e-14
4.5154e-09
-4.42144e-14
4.52239e-09
-5.92461e-15
4.51645e-09
4.52278e-09
1.82282e-08
3.43127e-05
-0.00012393
1.2099e-08
3.3792e-05
-0.000121141
-8.92926e-10
3.39636e-05
-0.000121944
-1.21948e-09
3.41833e-05
-0.000123322
-3.24493e-09
3.39896e-05
-0.00012231
3.42358e-05
-0.000123711
6.37125e-10
3.7025e-07
1.46261e-05
2.18183e-10
3.68942e-07
1.4556e-05
-3.43291e-10
3.69302e-07
1.45792e-05
-1.21837e-10
3.70025e-07
1.46086e-05
-2.73541e-10
3.69478e-07
1.45808e-05
3.70128e-07
1.4614e-05
-8.89608e-12
2.49761e-07
-2.67309e-13
2.49006e-07
-5.55772e-12
2.49216e-07
-3.3514e-12
2.4963e-07
4.14098e-12
2.4931e-07
2.49695e-07
-9.14514e-07
9.16535e-05
-0.00053803
-3.24049e-07
9.24614e-05
-0.000537204
-1.87592e-07
9.22652e-05
-0.00053806
-4.82964e-07
9.18029e-05
-0.000537276
2.93808e-07
9.2106e-05
-0.000536731
9.19618e-05
-0.000538688
-9.41023e-09
1.04168e-05
8.09727e-05
-1.20428e-08
1.04121e-05
8.12976e-05
-1.26715e-08
1.04107e-05
8.12749e-05
-2.23238e-08
1.04205e-05
8.09565e-05
-1.30171e-08
1.04172e-05
8.10705e-05
1.04212e-05
8.11181e-05
-2.85551e-10
5.62299e-06
1.1579e-10
5.62363e-06
1.71828e-10
5.62245e-06
-1.70682e-10
5.62514e-06
-1.39312e-10
5.62519e-06
5.62464e-06
1.12181e-07
-5.99781e-05
-8.02234e-06
-1.86185e-08
-5.97995e-05
-8.02055e-06
-1.15275e-08
-5.99231e-05
-8.0225e-06
-2.47712e-08
-5.98474e-05
-8.02449e-06
-6.17264e-08
-5.97047e-05
-8.0247e-06
-5.999e-05
-8.02621e-06
8.72401e-09
1.42876e-05
3.80293e-06
-2.77948e-10
1.43558e-05
3.82122e-06
-1.19789e-09
1.43351e-05
3.81516e-06
-1.00624e-09
1.42983e-05
3.80895e-06
-5.37129e-09
1.43439e-05
3.81289e-06
1.43031e-05
3.7996e-06
7.63461e-10
1.0404e-05
-1.68518e-10
1.04124e-05
-7.3948e-11
1.04069e-05
-3.3331e-10
1.04091e-05
-1.42064e-09
1.04129e-05
1.04029e-05
2.6917e-09
-1.34013e-05
-9.91318e-06
-5.89366e-10
-1.34603e-05
-9.92008e-06
-9.82829e-10
-1.34378e-05
-9.92035e-06
-7.01507e-10
-1.3441e-05
-9.91281e-06
-2.19908e-09
-1.3459e-05
-9.90996e-06
-1.3428e-05
-9.92527e-06
2.91145e-08
1.71661e-06
-6.76494e-06
1.9485e-09
1.74815e-06
-6.70645e-06
-1.59156e-09
1.72791e-06
-6.75438e-06
9.4976e-10
1.72313e-06
-6.7647e-06
-1.48792e-08
1.73073e-06
-6.76443e-06
1.71604e-06
-6.76834e-06
1.82376e-09
5.39575e-06
-6.04393e-10
5.40809e-06
-1.21578e-10
5.40193e-06
2.06174e-11
5.40185e-06
-1.75583e-09
5.40513e-06
5.39139e-06
1.49775e-09
-2.19466e-05
-7.74165e-05
-6.78496e-10
-2.19804e-05
-7.75411e-05
-9.79621e-10
-2.19686e-05
-7.75325e-05
-1.53179e-09
-2.19569e-05
-7.74026e-05
-4.04635e-09
-2.19577e-05
-7.73571e-05
-2.19361e-05
-7.76105e-05
5.10396e-09
-1.3135e-05
-6.26591e-07
-7.43155e-11
-1.31615e-05
-6.29268e-07
-2.26662e-10
-1.31486e-05
-6.2931e-07
1.00333e-09
-1.31466e-05
-6.29006e-07
-3.33378e-09
-1.31455e-05
-6.28491e-07
-1.31235e-05
-6.26235e-07
-8.9757e-10
2.42065e-07
3.80402e-10
2.49245e-07
1.13092e-09
2.45814e-07
9.95703e-10
2.45195e-07
1.86164e-09
2.46529e-07
2.40827e-07
1.55299e-08
-3.36798e-07
-0.000153166
1.11793e-09
-3.45479e-07
-0.00015344
6.75233e-09
-3.39832e-07
-0.000153417
-7.01626e-10
-3.3945e-07
-0.000153151
-3.51418e-08
-3.40977e-07
-0.000153061
-3.37285e-07
-0.000153596
9.73027e-12
-9.69298e-07
-6.0936e-08
2.96022e-12
-9.80655e-07
-6.08779e-08
8.01277e-12
-9.74993e-07
-6.08089e-08
4.26875e-12
-9.74397e-07
-6.06525e-08
-1.58746e-11
-9.76087e-07
-6.03176e-08
-9.69046e-07
-6.15319e-08
-9.88892e-11
2.54988e-08
4.71835e-11
2.57312e-08
8.65368e-11
2.56237e-08
7.58559e-11
2.56047e-08
1.52086e-10
2.56223e-08
2.54772e-08
2.28238e-07
-7.80284e-06
-0.000744993
1.92297e-08
-7.81056e-06
-0.000746206
4.98165e-08
-7.80845e-06
-0.000746082
9.34199e-09
-7.78422e-06
-0.000745081
-3.63549e-07
-7.73755e-06
-0.000744765
-7.87305e-06
-0.000746743
-3.42032e-11
-1.99205e-08
-7.49453e-06
1.93564e-11
-2.01514e-08
-7.50189e-06
5.55642e-11
-2.00456e-08
-7.49979e-06
1.51889e-11
-2.00113e-08
-7.47667e-06
-1.06551e-10
-1.99997e-08
-7.43195e-06
-1.99368e-08
-7.56192e-06
-8.08775e-14
5.82838e-09
6.93637e-14
5.84312e-09
7.72501e-14
5.83503e-09
7.74301e-14
5.85077e-09
1.02347e-13
5.88493e-09
5.77964e-09
4.02186e-06
0.000393773
-0.00263271
-6.541e-07
0.000394026
-0.00262457
-1.30257e-06
0.00039402
-0.00262932
-2.83619e-07
0.000392913
-0.00262766
1.08875e-06
0.000391049
-0.00262432
0.000396179
-0.00263393
-1.82555e-09
-1.14431e-05
1.28115e-05
3.12777e-09
-1.14488e-05
1.28131e-05
1.21815e-08
-1.14486e-05
1.28074e-05
4.72942e-09
-1.14303e-05
1.27783e-05
-1.85574e-08
-1.13994e-05
1.27148e-05
-1.14826e-05
1.28787e-05
1.68223e-10
1.01129e-06
1.51491e-10
1.01065e-06
-3.3818e-11
1.01109e-06
1.43065e-10
1.01085e-06
3.62955e-10
1.01034e-06
1.01139e-06
-1.23392e-05
-1.60589e-05
-0.0801404
-2.81885e-05
-1.60483e-05
-0.0801598
-5.04108e-05
-1.60481e-05
-0.0801954
-9.10094e-06
-1.60127e-05
-0.0801352
9.67596e-05
-1.59392e-05
-0.0801219
-1.61432e-05
-0.0802466
1.40452e-10
-3.24752e-06
3.15156e-18
1.77198e-11
-3.23508e-06
4.36257e-18
1.61538e-10
-3.24087e-06
1.91246e-16
-1.97254e-11
-3.23418e-06
7.13729e-16
-3.83337e-10
-3.224e-06
1.13223e-19
-3.26485e-06
3.67295e-19
4.84848e-10
3.68706e-26
3.56124e-10
5.28723e-26
5.49416e-10
5.0457e-26
1.8617e-10
1.15435e-25
-1.27826e-09
1.67181e-25
1.32518e-25
-0.000260686
-2.10776e-06
-0.248599
0.317787
-0.000369377
-2.30198e-05
-0.248576
0.317647
-0.00108959
-2.5081e-05
-0.248624
0.318305
-0.00076303
-6.18846e-09
-0.248166
0.316742
0.00121675
-1.49801e-07
-0.248016
0.314947
-0.000115617
-0.248792
0.319114
-6.67958e-09
1.21201e-25
-2.15171e-06
5.06238e-08
-2.41631e-09
-6.70183e-24
-2.35683e-05
5.44195e-07
6.281e-09
-3.42476e-20
-2.56802e-05
5.90434e-07
-4.91744e-11
-2.70603e-18
-4.8979e-12
1.46605e-10
-1.27747e-07
-1.25621e-14
-2.56626e-08
3.55946e-09
1.01859e-25
-0.000118392
2.64807e-06
-1.07595e-27
3.87784e-25
-9.32027e-26
-7.29822e-24
1.64791e-25
4.30524e-25
-3.55841e-20
7.49536e-25
1.3285e-21
-1.59628e-16
2.8067e-25
1.56886e-16
7.38615e-28
1.95709e-25
6.8818e-15
2.8104e-25
-7.66578e-26
-5.90835e-05
-9.05834e-05
-0.179316
-4.65616e-05
-0.000157719
-0.179331
3.29445e-06
-0.000174462
-0.179398
5.26819e-05
-2.30424e-10
-0.179093
0.000120842
-1.22007e-06
-0.178931
-4.11571e-05
-0.179468
-1.34656e-07
5.62081e-25
2.60999e-14
-1.41906e-07
2.44838e-25
2.11413e-14
-2.5363e-14
1.1259e-24
3.94408e-14
-2.35351e-10
4.06103e-25
3.67765e-15
-1.24597e-06
2.87623e-25
2.41466e-13
4.4299e-25
3.82219e-15
1.65476e-27
-9.5115e-27
1.03226e-26
-4.61205e-27
4.8417e-27
-2.47168e-26
2.88007e-27
-8.24352e-27
9.37296e-28
-5.86603e-27
-1.38705e-26
-6.86385e-05
1.54826e-14
-0.0988231
-8.76896e-05
1.25253e-14
-0.0987709
-7.8628e-05
2.32906e-14
-0.0988999
-2.23962e-05
2.22565e-15
-0.0984306
0.000150097
1.4793e-13
-0.0982266
2.22788e-15
-0.0991033
1.94972e-17
8.66278e-25
3.08737e-18
2.17771e-16
8.20028e-25
4.74438e-18
4.96966e-17
8.65144e-25
2.10379e-16
1.59272e-17
7.58979e-25
7.52662e-16
-6.62467e-15
1.4826e-24
1.94074e-24
4.87915e-25
1.51857e-24
1.10787e-27
-2.55487e-25
1.67595e-27
-2.42069e-25
1.38966e-27
-2.56938e-25
2.71861e-27
-2.22571e-25
-2.96218e-27
-4.2789e-25
-1.49155e-25
-7.58591e-05
2.75371e-18
-0.00705109
1.0383e-05
4.24832e-18
-0.00706038
0.000297292
1.89188e-16
-0.0070755
-9.61259e-06
6.69625e-16
-0.00709792
-0.000493158
1.72981e-24
-0.00720506
1.3659e-24
-0.0070085
2.4985e-20
1.79208e-24
9.22713e-18
1.34028e-18
2.20705e-24
1.36146e-17
1.09296e-17
2.41147e-24
6.10555e-16
7.62604e-27
2.37237e-24
2.23943e-15
-5.56884e-26
2.31911e-24
2.22637e-25
1.75849e-24
1.98226e-25
1.79835e-27
-9.98263e-25
2.47657e-27
-1.22673e-24
1.01053e-26
-1.34668e-24
2.04594e-27
-1.31402e-24
-1.9144e-26
-1.2676e-24
-9.9706e-25
-8.84492e-05
7.09018e-17
0.0490074
-0.000102954
1.04343e-16
0.0490242
-5.45372e-05
4.68542e-15
0.0490607
-1.93707e-05
1.77068e-14
0.0489298
7.7141e-05
1.83544e-24
0.0488193
1.46205e-24
0.0491874
1.72799e-19
6.292e-25
-2.91821e-17
1.24427e-17
8.51388e-25
-4.29344e-17
1.51484e-16
8.56631e-25
-1.93049e-15
1.70112e-27
1.50472e-24
-7.29291e-15
-3.76564e-26
2.01815e-24
-7.58578e-25
1.57468e-24
-6.03034e-25
4.05234e-28
-4.66343e-25
2.34554e-28
-6.29726e-25
2.86398e-27
-6.3582e-25
9.78351e-28
-1.10952e-24
-8.32399e-27
-1.47437e-24
-1.18004e-24
-6.00973e-05
4.36207e-17
-8.26159e-05
6.04979e-17
-8.24271e-05
2.61797e-15
-1.83247e-05
9.95745e-15
0.000121726
1.5836e-18
4.98118e-18
2.21252e-20
2.43307e-25
4.90341e-19
3.48723e-25
1.19046e-17
3.32462e-25
3.57704e-22
7.61071e-25
-4.9344e-21
1.10224e-24
8.71968e-25
-1.60905e-29
-7.6383e-29
-1.21399e-28
-2.16323e-29
3.94406e-28
-6.33354e-12
1.30651e-09
3.04022e-08
-5.11062e-12
1.35776e-09
3.30369e-08
-8.26077e-12
1.25253e-09
2.88958e-08
-1.34288e-11
1.28851e-09
3.38817e-08
2.27949e-11
1.34189e-09
3.96474e-08
8.2684e-10
2.09421e-08
-1.35075e-13
3.90285e-10
5.78368e-10
-1.39342e-13
3.83327e-10
6.30888e-10
-1.65284e-13
3.7913e-10
5.51432e-10
-2.95328e-13
3.13928e-10
6.46813e-10
6.95886e-14
2.48022e-10
7.78758e-10
2.26928e-10
4.09722e-10
-6.74183e-15
2.89574e-12
-9.30632e-15
3.94538e-12
-9.34939e-15
2.74324e-12
-8.16588e-15
2.89918e-12
9.69518e-17
6.15146e-12
1.75205e-12
-2.21661e-09
2.19904e-08
6.62367e-07
-1.92627e-09
2.44237e-08
7.20454e-07
-3.89179e-09
2.06946e-08
6.29856e-07
-1.67531e-09
2.52756e-08
7.41287e-07
9.06595e-09
3.21602e-08
8.36745e-07
1.37984e-08
4.43269e-07
-2.01374e-11
2.27632e-09
1.89409e-08
-2.3446e-11
2.49634e-09
2.088e-08
-3.3939e-11
2.14384e-09
1.78822e-08
-3.94907e-11
2.55679e-09
2.16386e-08
3.00293e-11
3.10643e-09