/*--------------------------------*- C++ -*----------------------------------*\
| =========                 |                                                 |
| \\      /  F ield         | OpenFOAM: The Open Source CFD Toolbox           |
|  \\    /   O peration     | Version:  v1612+                                |
|   \\  /    A nd           | Web:      www.OpenFOAM.com                      |
|    \\/     M anipulation  |                                                 |
\*---------------------------------------------------------------------------*/
FoamFile
{
    version     2.0;
    format      ascii;
    class       surfaceScalarField;
    location    "4.95";
    object      phi;
}
// * * * * * * * * * * * * * * * * * * * * * * * * * * * * * * * * * * * * * //

dimensions      [0 3 -1 0 0 0 0];

internalField   nonuniform List<scalar> 
2916
(
-8.27929e-06
0.123971
-0.123962
-9.34288e-06
0.123973
-0.123972
-1.98225e-06
0.123974
-0.123981
-4.38456e-06
0.123974
-0.123972
-9.05534e-06
0.123973
-0.123969
0.12397
-0.123979
-5.80276e-06
0.19771
-0.0737332
-8.20545e-06
0.197718
-0.0737425
-1.22009e-06
0.197718
-0.0737509
-5.09356e-06
0.197717
-0.0737388
-1.28718e-05
0.197717
-0.0737356
0.197712
-0.0737548
2.10465e-06
0.0862475
0.11146
-1.28266e-06
0.0862647
0.111457
-3.05067e-06
0.0862608
0.111459
-8.87548e-06
0.0862599
0.111463
-1.29391e-05
0.0862628
0.111458
0.0862527
0.111446
3.00599e-06
-0.267236
0.353481
-2.29829e-06
-0.267224
0.353494
-6.35006e-06
-0.267225
0.35349
-1.07857e-05
-0.267224
0.353488
-1.11851e-05
-0.267221
0.353484
-0.267226
0.353468
3.60334e-05
-0.792864
0.525592
6.30063e-06
-0.792839
0.525644
-2.03018e-06
-0.792834
0.525617
-8.20188e-06
-0.792834
0.525616
-2.90612e-05
-0.792827
0.525628
-0.792851
0.525596
7.14983e-06
-1.30768
0.514805
1.57068e-05
-1.30767
0.514828
9.67091e-06
-1.30765
0.51482
-3.20107e-06
-1.30765
0.514826
-1.53742e-05
-1.30765
0.514833
-1.30768
0.514817
-3.31485e-05
-1.69905
0.391406
2.06547e-05
-1.69913
0.391398
1.47562e-05
-1.69905
0.39141
-1.28268e-06
-1.69905
0.391418
3.95686e-06
-1.69907
0.391417
-1.69909
0.391409
-4.57193e-05
-1.83726
0.138258
1.74884e-05
-1.83745
0.138259
9.17289e-06
-1.83733
0.138289
-2.55663e-06
-1.83733
0.138293
1.84654e-05
-1.83738
0.138291
-1.83732
0.138246
0.00011881
-1.62251
-0.214866
2.53578e-05
-1.62273
-0.214626
-1.9839e-05
-1.6226
-0.214684
-1.283e-05
-1.62262
-0.214714
-5.36014e-05
-1.6227
-0.214644
-1.62254
-0.214829
0.00036904
-1.13401
-0.48887
2.36803e-05
-1.13408
-0.488308
-6.69641e-05
-1.13401
-0.4885
-3.71466e-05
-1.13407
-0.48858
-0.000203387
-1.13412
-0.488409
-1.13397
-0.488771
0.000254266
-0.48161
-0.652659
-1.44694e-05
-0.481551
-0.652257
-6.89445e-05
-0.481549
-0.65241
-6.02065e-05
-0.481598
-0.652483
-0.000229398
-0.481593
-0.65236
-0.48157
-0.652633
-0.000127091
-0.481482
-6.01187e-05
-0.481618
-2.60695e-05
-0.481583
-4.22192e-05
-0.481582
-4.85287e-05
-0.481586
-0.481619
-0.000115193
1.03105
-1.15489
-5.96773e-05
1.031
-1.15503
-6.64079e-06
1.03099
-1.15502
3.55431e-05
1.03099
-1.15501
8.64007e-05
1.03099
-1.15501
1.03101
-1.1549
-0.000110244
1.46861
-0.511184
-8.8543e-05
1.46868
-0.511445
-5.45593e-05
1.46863
-0.511428
2.69162e-05
1.46857
-0.511403
0.000113344
1.46859
-0.511422
1.46866
-0.511293
9.99902e-05
0.630881
0.949085
-0.000100861
0.631435
0.948899
-0.000103842
0.631171
0.948919
-4.3781e-05
0.631101
0.948871
-8.1171e-05
0.631256
0.948825
0.631039
0.948987
0.000287509
-0.632076
1.61615
-4.88572e-05
-0.631692
1.61696
-7.27017e-05
-0.631872
1.61656
-2.4118e-05
-0.63185
1.61639
-0.000163898
-0.631723
1.6166
-0.63199
1.61633
0.000553929
-1.35557
1.24853
1.98091e-05
-1.35544
1.24993
-4.87929e-05
-1.35549
1.2493
-2.0476e-06
-1.35548
1.24919
-0.000313442
-1.35543
1.24965
-1.35554
1.24883
0.000250814
-1.54184
0.700823
1.87945e-05
-1.54182
0.701433
-8.11269e-06
-1.54181
0.701169
7.38959e-07
-1.54181
0.70115
-0.000165341
-1.54179
0.70136
-1.54185
0.700965
0.000123697
-1.48278
0.332224
8.238e-06
-1.48296
0.332659
-8.76215e-06
-1.48286
0.332482
8.08795e-06
-1.48285
0.332442
-7.65254e-05
-1.48289
0.332598
-1.48285
0.332332
0.000204505
-1.31519
-0.0295412
-1.715e-06
-1.3154
-0.0290985
-2.18511e-05
-1.31529
-0.0292614
2.53522e-05
-1.31528
-0.0293218
-8.78087e-05
-1.31532
-0.0291636
-1.31525
-0.0294472
0.000407404
-0.996254
-0.534208
9.67431e-06
-0.996006
-0.533618
-3.95932e-05
-0.9961
-0.533827
2.3738e-05
-0.996139
-0.53392
-0.000175749
-0.99605
-0.533715
-0.996156
-0.534095
0.000132938
-0.627214
-0.858043
-3.21136e-05
-0.626305
-0.857844
-4.39754e-05
-0.626683
-0.857905
-3.02821e-05
-0.626757
-0.857975
-0.00011588
-0.626483
-0.857891
-0.626967
-0.858076
-0.00042207
-0.383988
-0.895463
-8.3743e-05
-0.38328
-0.895621
4.46892e-06
-0.38357
-0.89561
-5.58533e-05
-0.383618
-0.895562
5.19712e-05
-0.383385
-0.895566
-0.383836
-0.895712
-0.000341497
-0.865128
-9.84207e-05
-0.865141
-6.09268e-05
-0.865191
-5.12059e-05
-0.865209
0.000144257
-0.865166
-0.865311
-9.43765e-05
-1.07812
-0.0766825
-3.51629e-05
-1.07821
-0.0768771
-1.51453e-05
-1.0782
-0.0768396
9.43856e-06
-1.07819
-0.0768386
6.40712e-05
-1.07819
-0.0768727
-1.07816
-0.0766753
-0.000218877
-1.75691
0.16783
-4.22966e-05
-1.75723
0.167401
-3.08622e-05
-1.75714
0.167495
4.82534e-06
-1.75715
0.16752
0.000128785
-1.75716
0.167424
-1.75705
0.167717
-0.000487327
-2.61281
1.80547
-1.35471e-05
-2.6143
1.80549
3.44905e-05
-2.61353
1.80527
7.19298e-05
-2.61354
1.80522
0.000409266
-2.61388
1.8052
-2.61279
1.80515
0.000810216
-4.19985
3.20238
0.000175982
-4.20291
3.2062
-7.65959e-05
-4.20115
3.20442
0.000102331
-4.20117
3.20385
-0.000120409
-4.20208
3.20503
-4.19989
3.20331
0.00322992
-3.62894
0.674402
-0.000259662
-3.62944
0.67995
-0.000392283
-3.62924
0.677523
-5.37941e-06
-3.62923
0.676861
-0.00198982
-3.62928
0.678831
-3.62897
0.675921
0.000963371
-2.45969
-0.469391
2.66812e-06
-2.45954
-0.467514
-8.95167e-05
-2.45962
-0.468359
1.19737e-05
-2.45968
-0.468503
-0.000569497
-2.45957
-0.46777
-2.45969
-0.468883
0.00013557
-1.61982
-0.50778
1.27857e-05
-1.61947
-0.507289
-2.14459e-05
-1.61962
-0.507477
1.36768e-05
-1.6197
-0.50757
-5.29825e-05
-1.61955
-0.507348
-1.61978
-0.507629
-0.000368619
-0.955261
-0.693735
-2.65596e-05
-0.954722
-0.694184
-8.15331e-06
-0.954946
-0.693957
-2.70322e-05
-0.955068
-0.693937
0.000213765
-0.954898
-0.69406
-0.955192
-0.693822
-0.00131616
-0.226642
-1.26151
-9.95545e-05
-0.226003
-1.26355
5.97544e-05
-0.226309
-1.26262
-0.000116268
-0.226336
-1.26248
0.000612597
-0.226134
-1.26321
-0.226646
-1.26203
-0.00200289
0.56211
-1.64479
-0.000141419
0.562562
-1.64827
0.000277926
0.562237
-1.64687
-6.50879e-05
0.56259
-1.64656
0.000798824
0.56271
-1.6476
0.561762
-1.64568
-0.00168142
0.0486964
-0.380367
-9.86259e-05
0.0484286
-0.38307
0.000185371
0.0484242
-0.382081
5.19834e-05
0.0487579
-0.381596
0.00118359
0.0478105
-0.381798
0.0489585
-0.381723
0.000638524
-0.817071
0.000107903
-0.816181
5.89175e-05
-0.816717
2.37981e-06
-0.816393
-0.000821053
-0.816533
-0.817173
-0.000105884
-0.881368
0.80479
-3.25471e-05
-0.881464
0.804514
-1.97445e-05
-0.881424
0.804572
-1.22128e-05
-0.881416
0.80457
4.41823e-05
-0.881438
0.80451
-0.881428
0.804799
-2.71573e-06
-1.7411
1.02757
-7.92688e-06
-1.74128
1.02723
-3.74699e-05
-1.74122
1.02732
-4.89746e-06
-1.74127
1.02735
-1.68642e-05
-1.74125
1.02725
-1.74126
1.02753
0.000239008
-2.38513
2.44926
0.000180658
-2.38481
2.44908
1.88327e-05
-2.38481
2.44902
7.53503e-05
-2.3852
2.4491
-1.73763e-05
-2.38494
2.44898
-2.38522
2.4491
-4.56359e-05
-3.15848
3.97577
-0.000132734
-3.15733
3.97881
-0.000156656
-3.1576
3.97725
-6.41504e-05
-3.15829
3.97685
-8.09952e-06
-3.1578
3.97783
-3.15833
3.97642
9.00821e-05
-3.64643
1.16227
-0.000227991
-3.64436
1.1673
-0.000385244
-3.64516
1.16523
-7.39027e-05
-3.6459
1.16415
7.74441e-05
-3.64517
1.16606
-3.64614
1.1638
-0.000906792
-3.37514
-0.739779
-0.000236274
-3.37246
-0.740084
-0.000193864
-3.3737
-0.739854
-7.25198e-05
-3.37417
-0.74035
0.000570151
-3.37322
-0.740368
-3.37467
-0.739775
-0.00230514
-2.54498
-1.33563
-0.000227632
-2.54134
-1.34048
-0.000118827
-2.54291
-1.33838
-0.000252526
-2.54352
-1.33809
0.00130613
-2.54235
-1.33978
-2.54425
-1.33675
-0.00267288
0.044449
-3.28049
-0.000375047
0.046412
-3.28424
-0.000346369
0.0459575
-3.28285
-0.000628421
0.0448001
-3.28197
0.00112151
0.0451643
-3.28332
0.044391
-3.28134
-0.00190308
2.10161
-3.31677
-0.000587496
2.10053
-3.31899
-0.0010876
2.10166
-3.31782
-0.00124279
2.10061
-3.31814
0.000624671
2.0996
-3.31951
2.10041
-3.31742
-0.000464397
2.26436
-1.80708
0.000119011
2.26033
-1.80867
0.000681011
2.26197
-1.80775
0.000339514
2.26281
-1.80843
0.00100945
2.26128
-1.80997
2.26198
-1.80626
-0.000106382
0.457232
1.42687
0.000166008
0.451541
1.42546
0.00021894
0.453881
1.42596
0.000313373
0.455246
1.42588
0.00332134
0.451492
1.42499
0.45639
1.42718
0.00230929
-0.362153
8.49181e-05
-0.362419
-0.00033486
-0.362416
0.000872529
-0.362354
-0.00108542
-0.363082
-0.361875
-0.0314331
-2.08536
2.11679
0.0203253
-2.17231
2.12054
-0.0314368
-2.06129
2.11305
-0.0107077
-2.13294
2.11221
0.219138
-2.34887
2.11903
-1.87157
2.09071
-0.046092
-4.80504
2.76577
0.0282641
-4.9915
2.74483
-0.0603168
-4.77407
2.80136
-0.0165317
-4.92005
2.74332
0.325391
-5.29693
2.60613
-4.41756
2.87138
-0.0513385
-7.22058
2.46688
0.0163966
-7.44769
2.38845
-0.0992602
-7.23225
2.57383
-0.0308463
-7.37297
2.3845
0.373809
-7.70672
2.00513
-6.87119
2.82743
0.00519986
-7.93871
0.712931
0.0395765
-8.12188
0.639806
0.0103361
-8.00057
0.79756
0.026014
-8.01579
0.627143
0.17678
-8.17225
0.314763
-7.72883
1.03442
0.0301419
-7.53037
-0.438486
0.0663117
-7.68719
-0.470859
0.123459
-7.5901
-0.467611
0.0780138
-7.59763
-0.372712
-0.0329489
-7.73785
-0.323432
-7.3446
-0.417181
0.0476467
-6.64168
-0.936336
0.0920717
-6.74342
-0.988196
0.22388
-6.64208
-1.07984
0.14684
-6.70328
-0.817312
-0.159109
-6.9268
-0.505103
-6.34069
-1.16302
0.0491936
-5.93841
-0.752463
0.100389
-5.9625
-0.832115
0.251523
-5.87122
-0.921994
0.190228
-5.94365
-0.698338
-0.230232
-6.14824
-0.3581
-5.58685
-0.984069
0.0144723
-4.75976
-1.19312
0.0521792
-4.76593
-1.23427
0.162531
-4.71967
-1.2619
0.111628
-4.82744
-1.06531
-0.196328
-5.10947
-0.730814
-4.55471
-1.22847
-0.0411164
-2.12541
-2.59323
-0.0251756
-2.14677
-2.63511
0.0549541
-2.15454
-2.64526
-0.100087
-2.08427
-2.58812
-0.147879
-2.37466
-2.68702
-2.12497
-2.57761
-0.0323137
0.846194
-2.93929
0.0277133
0.771638
-2.97843
0.407842
0.479463
-3.01413
0.00517788
1.18776
-2.86936
-0.750147
1.26009
-2.87943
-0.00947853
-2.86564
0.058599
2.59659
-1.809
0.157852
2.56542
-1.89304
0.556926
2.17814
-2.09776
0.378625
2.80023
-1.43417
-0.694283
2.72214
-0.389138
1.52379
-2.22755
0.137422
2.45917
0.322294
2.38055
0.732063
1.76837
0.564657
2.96763
-0.540445
3.82724
0.983345
-0.038748
-1.83768
3.99322
0.00988699
-1.93236
4.00427
-0.0469087
-1.82238
3.99222
-0.0103081
-1.92588
4.00149
0.250597
-2.16898
4.0271
-1.61522
3.95652
-0.045925
-3.92066
4.89467
-0.0220209
-4.10008
4.88864
-0.047419
-3.92136
4.92574
-0.00941107
-4.11279
4.89222
0.128545
-4.51105
4.81023
-3.57109
4.9558
-0.0185198
-5.53137
4.09611
-0.0868743
-5.7004
4.05713
-0.0515127
-5.56125
4.17835
-0.0372358
-5.7896
4.04703
-0.217611
-6.18748
3.86194
-5.30622
4.34495
0.0118391
-6.09233
1.26205
-0.0718644
-6.19394
1.21705
-0.0835835
-6.08418
1.33221
-0.0959794
-6.35878
1.20872
-0.179052
-6.89464
1.105
-5.98951
1.53866
0.0544725
-5.21916
-1.36612
0.0177209
-5.23813
-1.38992
-0.0759662
-5.08714
-1.37096
-0.063415
-5.47854
-1.26551
0.131876
-6.37279
-1.04058
-5.01888
-1.25593
0.0904116
-4.24766
-1.99825
0.0987768
-4.19471
-2.03998
0.0793053
-3.99846
-2.14904
0.101136
-4.38561
-1.93208
0.0942288
-5.43499
-1.43599
-3.81544
-2.27224
0.0610493
-4.14204
-0.919126
0.0895813
-4.07176
-0.983597
0.185567
-3.92991
-1.08654
0.240543
-4.21048
-0.928441
-0.197871
-4.96068
-0.393996
-3.76781
-1.22957
-0.0152107
-4.08603
-1.23391
0.00236433
-4.06161
-1.26199
0.0881221
-3.9738
-1.30376
0.0750299
-4.21056
-1.05213
-0.231359
-4.78124
-0.603862
-3.89771
-1.32993
-0.0230429
-3.44681
-3.20941
-0.0198619
-3.44138
-3.25852
0.0410244
-3.38254
-3.29741
0.00421293
-3.52812
-3.23376
-0.192953
-3.71805
-3.55304
-3.33689
-3.3314
-0.0301262
-2.40948
-3.9465
-0.0600968
-2.42597
-3.96388
-0.0438711
-2.42515
-3.98774
-0.032939
-2.50974
-3.89868
-0.168679
-2.52861
-3.93313
-2.42568
-3.94552
0.0515617
-1.55144
-2.7186
0.0598602
-1.55462
-2.77268
0.154925
-1.72045
-2.89753
0.17088
-1.50346
-2.4564
-0.0388927
-1.37949
-1.32849
-1.68283
-3.0093
0.469495
0.438233
0.970974
0.324445
1.28836
-0.269459
1.62658
1.12595
-0.256126
4.33045
-0.955608
-0.0229976
-0.374081
4.3903
-0.00200583
-0.416158
4.39944
-0.0307156
-0.37071
4.39164
-0.00408727
-0.424722
4.39958
0.13357
-0.533826
4.42327
-0.276824
4.36691
-0.0330847
-0.656063
5.20973
-0.0299901
-0.749166
5.21855
-0.0289432
-0.668681
5.22266
0.00107923
-0.787387
5.22486
0.0456417
-0.989624
5.22146
-0.483486
5.2081
-0.0323529
-1.14219
4.61459
-0.087764
-1.23482
4.59819
-0.0254044
-1.21363
4.66094
-0.0572828
-1.3073
4.59881
-0.235042
-1.48562
4.5357
-1.11552
4.74193
-0.0383689
-1.71142
1.86964
-0.0955344
-1.78431
1.8237
-0.10534
-1.79742
1.9258
-0.138829
-1.8774
1.81232
-0.133399
-2.10419
1.71814
-1.81302
2.10277
-0.0266557
-1.92859
-1.1223
-0.0687427
-1.9805
-1.15164
-0.171689
-1.95969
-1.10575
-0.147174
-2.01291
-1.15452
0.125481
-2.2504
-1.16703
-1.94923
-0.99424
0.00408703
-1.92713
-2.0038
-0.0460052
-1.95133
-2.01906
-0.216228
-1.92271
-2.0158
-0.162954
-1.94327
-2.05499
0.310103
-2.11149
-2.04796
-1.89804
-2.01333
0.000273222
-1.23788
-1.60865
-0.0774115
-1.23959
-1.61765
-0.245179
-1.21399
-1.62749
-0.211228
-1.27989
-1.62578
0.29243
-1.4574
-1.55174
-1.1844
-1.65077
-0.0248326
-1.04523
-1.40174
-0.0890739
-1.03782
-1.39952
-0.189212
-1.01076
-1.40685
-0.167489
-1.06385
-1.28989
0.144687
-1.2135
-1.15994
-0.969891
-1.39975
-0.0245933
-2.08888
-2.14117
-0.0494628
-2.09534
-2.17612
-0.0570819
-2.09222
-2.20832
-0.00660596
-2.10355
-2.24454
-0.116876
-2.23888
-2.41738
-2.10281
-2.31535
-0.0437056
-2.2016
-3.79007
-0.10628
-2.20577
-3.79088
-0.205029
-2.17893
-3.80229
-0.121002
-2.35754
-3.72871
-0.0110253
-3.01629
-3.2657
-2.26092
-3.79844
-0.0445242
-1.51789
-3.35779
-0.156342
-1.5047
-3.36194
-0.439088
-1.42164
-3.37207
-0.369867
-1.6298
-3.25337
0.48857
-2.30663
-2.89658
-1.45584
-3.32581
0.0120871
-1.09175
-0.0287573
-1.13941
-0.435257
-1.2846
-0.0109332
-0.928172
1.08408
0.928806
-1.32737
-0.00863366
0.429382
3.96955
-0.00461002
0.421596
3.97381
-0.0127578
0.428116
3.97167
-0.00426794
0.416258
3.97483
0.0380828
0.394576
3.98634
0.443038
3.96196
-0.0184394
1.24338
4.41417
-0.0154441
1.21497
4.42219
-0.0240865
1.24145
4.41796
-0.00075993
1.19073
4.42706
0.0508851
1.1215
4.44289
1.30467
4.39735
-0.0209102
1.98998
3.88891
-0.0458545
1.95007
3.88803
-0.0212308
1.97183
3.90594
-0.0335851
1.90365
3.89825
-0.0882909
1.8207
3.8912
2.03389
3.92442
-0.0113175
2.10574
1.7652
-0.0518152
2.06828
1.74599
-0.0159558
2.07824
1.78353
-0.0523335
2.00883
1.74351
-0.18458
1.94705
1.72403
2.10186
1.85022
0.00959335
1.18119
-0.207356
-0.00571377
1.15706
-0.225116
0.0017058
1.16559
-0.200509
-0.0280229
1.11475
-0.230707
-0.107108
1.08485
-0.225749
1.16891
-0.168395
0.0211744
0.642671
-1.48645
0.02734
0.626546
-1.49471
0.0408116
0.627271
-1.49095
0.00953785
0.590054
-1.49901
-0.0346728
0.569245
-1.48814
0.61504
-1.49413
0.00962377
0.621545
-1.59714
0.00867673
0.610044
-1.6002
0.00618211
0.599427
-1.59715
-0.0143394
0.573023
-1.58822
0.00172008
0.55519
-1.55374
0.567566
-1.60157
-0.0338272
0.734506
-1.48087
-0.069937
0.720539
-1.4739
-0.14301
0.728959
-1.46331
-0.140316
0.716646
-1.4362
0.0971077
0.531888
-1.37405
0.709386
-1.44446
-0.00962469
-0.167594
-1.22944
-0.0279984
-0.184785
-1.25242
-0.062045
-0.183141
-1.26217
-0.0637603
-0.236799
-1.28937
0.0641465
-0.737497
-1.2759
-0.223985
-1.31783
-0.0350768
-1.53764
-2.38495
-0.0712474
-1.5672
-2.37229
-0.104502
-1.60807
-2.3441
-0.0955025
-1.58201
-2.39249
0.0238796
-1.86041
-2.26217
-1.67082
-2.32773
-0.0440558
-1.25223
-3.59913
-0.120268
-1.26696
-3.58596
-0.251811
-1.28839
-3.56021
-0.18722
-1.3535
-3.54647
0.111494
-1.72917
-3.32654
-1.37448
-3.51066
-0.0518049
-2.29217
-0.177061
-2.28111
-0.493817
-2.25623
-0.601081
-2.17441
0.533713
-1.93516
-2.16813
1.55873e-06
1.1353
-0.330509
-1.93881e-05
1.13513
-0.330591
-3.16101e-05
1.13516
-0.330573
-3.69069e-05
1.13516
-0.330583
-5.1113e-05
1.13513
-0.330601
1.13531
-0.330555
2.96756e-05
1.33439
-0.199123
-6.53285e-07
1.33432
-0.199157
-2.19776e-05
1.33433
-0.199149
-3.51034e-05
1.33434
-0.19916
-6.08595e-05
1.33433
-0.199168
1.3344
-0.199154
2.48349e-06
0.0119575
-3.50422e-06
0.0119603
-1.01187e-05
0.011961
-1.33025e-05
0.0119576
-1.25898e-05
0.0119572
0.0119494
-8.54652e-05
1.37978
-0.682637
-5.55039e-05
1.37963
-0.683021
-7.45001e-05
1.37967
-0.682898
-6.3888e-05
1.37967
-0.682913
-5.2372e-05
1.37964
-0.682996
1.3798
-0.682865
-7.46321e-05
1.45266
-0.271926
-4.31652e-05
1.4526
-0.27216
-6.38535e-05
1.45261
-0.272077
-6.7654e-05
1.45262
-0.272102
-3.94055e-05
1.45261
-0.272163
1.45268
-0.272081
-1.7366e-05
0.0563746
-1.43656e-05
0.0563469
-2.41546e-05
0.0563653
-2.64019e-05
0.0563547
-1.59402e-05
0.0563455
0.0563422
8.36906e-05
2.14121
-0.374672
3.20464e-05
2.1411
-0.374982
-0.000101487
2.14109
-0.374831
-3.82184e-05
2.14119
-0.375061
-9.14045e-05
2.14112
-0.375071
2.14124
-0.375102
-0.000162962
1.6904
0.179048
-5.87602e-05
1.69035
0.178481
-7.91733e-05
1.69036
0.178682
-7.33182e-05
1.69039
0.178693
-1.03487e-05
1.69037
0.17852
1.69046
0.178693
-7.59737e-05
0.19803
-2.72227e-05
0.197831
-4.36419e-05
0.197924
-4.18494e-05
0.197915
-6.16028e-06
0.197858
0.197917
0.000253454
3.73289
-0.132047
0.000270639
3.73415
-0.130335
1.11865e-05
3.73345
-0.130774
-4.30484e-05
3.73353
-0.131692
-7.60237e-06
3.73382
-0.131088
3.73331
-0.132002
0.000149568
2.16456
1.74723
0.000113733
2.16486
1.74781
-0.000119951
2.16465
1.74772
-6.7954e-05
2.16487
1.74731
-6.25823e-05
2.16486
1.74747
2.16489
1.74705
-8.68599e-05
0.992429
1.83336e-06
0.992233
-5.25008e-05
0.992334
-2.93297e-05
0.992327
4.19493e-05
0.992211
0.992341
-0.000546495
2.57101
-1.54024
-0.000242032
2.57495
-1.53829
-8.56939e-05
2.57327
-1.53897
-0.000316466
2.57246
-1.53976
0.000122046
2.57382
-1.53929
2.5724
-1.54047
-3.18131e-05
2.76684
1.55143
-0.000179506
2.76948
1.55343
-0.000178083
2.76817
1.55283
-0.00028789
2.76801
1.55187
-0.000233847
2.76873
1.55252
2.768
1.55122
-8.39965e-05
1.94121
3.51938e-05
1.94193
5.87209e-05
1.94166
-7.19688e-05
1.94143
-6.42191e-05
1.94169
1.94116
0.000828478
1.15757
-3.43842
-6.57943e-05
1.159
-3.43648
-4.80371e-05
1.15839
-3.43723
-9.81658e-05
1.15771
-3.43777
-0.000433099
1.15831
-3.43764
1.15772
-3.4384
0.00106012
2.17417
0.533779
-2.36134e-05
2.17746
0.536054
-0.000157116
2.176
0.535365
-0.000101545
2.17517
0.534361
-0.000608962
2.17647
0.534868
2.1751
0.533235
0.000247026
2.02184
-4.30812e-05
2.02321
-1.52424e-05
2.02266
-8.47921e-05
2.02224
-0.00041285
2.02278
2.0214
0.00113322
-0.760142
-4.01505
-0.000232644
-0.762046
-4.01355
-0.00042845
-0.761333
-4.01409
-0.000283686
-0.761456
-4.01455
-0.000899613
-0.762152
-4.01465
-0.761465
-4.01459
0.00223652
0.199179
-0.427781
0.000172226
0.202483
-0.426411
-7.53716e-05
0.201009
-0.426726
0.000127299
0.200192
-0.42749
-0.00111302
0.201392
-0.427439
0.198986
-0.428329
0.000421127
1.3995
-0.000126378
1.40093
-3.9181e-05
1.40027
6.04477e-06
1.39994
-0.000391272
1.4004
1.39878
0.000687416
-2.89006
-4.40616
-0.000266152
-2.89008
-4.40676
-0.000372166
-2.89023
-4.4066
-0.000598876
-2.89023
-4.40607
-0.00171786
-2.89056
-4.40629
-2.89126
-4.4064
0.0010692
-2.54862
-0.770297
-1.01744e-05
-2.545
-0.770407
-1.06273e-05
-2.54677
-0.77019
0.000248654
-2.54749
-0.770481
-0.000730834
-2.54639
-0.770627
-2.5496
-0.770711
-0.00034322
0.607671
0.000139856
0.608794
0.000420517
0.608217
0.000367915
0.608033
0.000690497
0.608268
0.607096
0.000810438
-3.00497
-4.71877
8.51511e-05
-3.00386
-4.72116
0.000425861
-3.0043
-4.72047
-8.67426e-06
-3.00483
-4.71895
-0.00197293
-3.00505
-4.71879
-3.00495
-4.72084
0.000284453
-3.03514
-0.740418
0.000130217
-3.03381
-0.740304
0.000345633
-3.03444
-0.740265
0.000168638
-3.03468
-0.740445
-0.000632386
-3.03446
-0.740415
-3.03526
-0.741032
-0.000431099
0.178483
0.000203338
0.178862
0.000375964
0.178653
0.000329502
0.178611
0.000656139
0.178619
0.178176
0.000913043
-1.55434
-4.97242
4.27823e-05
-1.55318
-4.97578
0.000147316
-1.55358
-4.97474
9.21142e-06
-1.55431
-4.97292
-0.00146953
-1.55501
-4.97227
-1.55276
-4.9758
-0.000345533
-1.92482
-0.369588
0.000207437
-1.92434
-0.369706
0.000565222
-1.92456
-0.369653
0.000144242
-1.92474
-0.3696
-0.0011438
-1.9249
-0.369242
-1.92441
-0.370539
-0.000131138
0.188759
0.000126151
0.188774
0.000141009
0.188764
0.000140061
0.188754
0.000147097
0.188717
0.188647
0.00142508
0.353681
-3.90066
-0.000222595
0.353744
-3.90243
-0.000452323
0.353649
-3.90221
-0.000113767
0.353101
-3.90048
0.000364977
0.351834
-3.89959
0.355067
-3.90332
-8.29824e-05
-0.605035
0.589215
0.000143965
-0.6051
0.588913
0.000558957
-0.60514
0.588726
0.000204878
-0.605526
0.58938
-0.000957426
-0.606123
0.589871
-0.604413
0.587983
9.83734e-05
0.572124
9.00002e-05
0.571835
3.24491e-06
0.57205
8.01595e-05
0.571738
0.00013948
0.571142
0.572594
-0.00027944
-2.66635
-1.59618
-0.000637241
-2.66823
-1.59625
-0.00111057
-2.66776
-1.59639
-0.000202004
-2.66821
-1.59553
0.00209433
-2.6704
-1.59457
-2.66576
-1.59734
0.000565612
-1.99739
-0.0803088
4.80535e-05
-1.99864
-0.08016
0.00060429
-1.99828
-0.0813021
-8.99199e-05
-1.99848
-0.079659
-0.00132544
-1.99984
-0.0794522
-1.997
-0.0821048
0.000507456
-0.172079
0.000353342
-0.172253
0.000528121
-0.172343
0.000188265
-0.172431
-0.00121086
-0.172713
-0.172274
-0.00104023
-0.478595
-0.969071
1.44871
-0.00145909
-0.479125
-0.969162
1.4487
-0.00432653
-0.475919
-0.96944
1.44823
-0.0030996
-0.477956
-0.966784
1.44351
0.00481998
-0.474965
-0.966173
1.43322
-0.469047
-0.968936
1.4428
-0.00983467
-0.549022
-0.722905
0.803166
-0.00363612
-0.550919
-0.724929
0.790525
0.00751718
-0.547363
-0.726759
0.78705
-0.0114596
-0.54626
-0.704413
0.791694
-0.0371241
-0.546244
-0.69709
0.794034
-0.535607
-0.735641
0.765079
-0.00521654
-0.277833
0.420166
-0.0072628
-0.274711
0.414631
-0.00806949
-0.272427
0.411856
-0.00974362
-0.27121
0.409264
-0.00369672
-0.266412
0.404204
-0.265187
0.401203
-0.000241146
-0.260869
-0.707961
-0.000173803
-0.261254
-0.707975
4.49588e-05
-0.261629
-0.708031
0.00021013
-0.259148
-0.707802
0.000431384
-0.258851
-0.707543
-0.26034
-0.708164
-0.0043234
-0.403223
-0.576228
-0.00431368
-0.408845
-0.577346
-0.00406597
-0.409962
-0.578671
-0.00677858
-0.393592
-0.567253
-0.00813287
-0.392986
-0.561598
-0.41955
-0.58456
-0.00276803
0.00814646
-0.0037701
0.0090515
-0.00460164
0.0103926
-0.00399275
0.00931411
-0.00104569
0.00935205
0.0147457
-0.000274541
-0.349445
-0.358241
-0.000335622
-0.349803
-0.358111
-0.000260871
-0.349581
-0.358524
-9.31462e-05
-0.35089
-0.357079
0.000503754
-0.351647
-0.356493
-0.348614
-0.359047
-0.000621565
-0.549501
-0.375548
-0.00326807
-0.549836
-0.374666
-0.00765941
-0.549363
-0.374499
-5.30767e-05
-0.552123
-0.373625
0.0154113
-0.557917
-0.370789
-0.541384
-0.376376
-0.00078503
0.165736
-0.00110999
0.165982
-0.00106474
0.166863
-0.00110433
0.165573
0.0010893
0.164701
0.16924
-0.000360367
-0.336047
-0.0218334
6.97776e-05
-0.336661
-0.0218799
0.00149232
-0.338014
-0.0219321
-5.80338e-05
-0.333475
-0.022054
-0.00250441
-0.331546
-0.0225003
-0.339914
-0.0216375
-0.00200693
-0.649133
-0.0604549
-0.00242092
-0.650249
-0.0606657
-0.00542178
-0.648917
-0.0605986
-0.0014952
-0.652197
-0.0588338
0.0105836
-0.657849
-0.0565662
-0.642817
-0.0628917
-0.000546234
0.374499
-0.000721196
0.374337
-0.00293083
0.37528
-0.00061076
0.374281
0.0056525
0.372725
0.377295
-0.000441062
-0.473022
0.45163
-0.00049472
-0.473494
0.451668
-0.000215172
-0.473976
0.451765
-9.61758e-05
-0.473222
0.451049
0.000284593
-0.473235
0.450354
-0.473692
0.45234
-0.000769501
-0.72826
0.195551
-0.00123792
-0.729375
0.195685
-0.00395868
-0.727991
0.196139
-0.000412504
-0.731382
0.19578
0.0094649
-0.736117
0.196439
-0.723354
0.196235
-0.000350957
0.551801
-0.000219883
0.551526
-0.00145737
0.552355
-0.000365522
0.551418
0.0031276
0.549985
0.554012
-0.000363888
-1.14419
-0.00048668
-1.14446
-0.000452158
-1.14466
-0.000114265
-1.14482
0.000647265
-1.14498
-1.14435
-0.000410797
-1.02854
-0.000197047
-1.02915
-0.00138708
-1.02864
-0.000235974
-1.02985
0.00360323
-1.03183
-1.02662
7.02053e-05
0.000222601
0.0003443
2.44686e-05
-0.00040757
-0.00292164
3.36537
0.607098
-0.00300227
3.36685
0.60704
-0.00427168
3.36698
0.605954
-0.00315255
3.36777
0.605936
0.00649093
3.3714
0.605301
3.3649
0.603552
-0.00108367
2.96419
0.40226
-0.00146871
2.96469
0.402553
-0.00146258
2.96506
0.401919
-0.00148176
2.96525
0.402541
0.000434557
2.96603
0.403448
2.96502
0.400314
-0.000328604
0.148008
-0.000492684
0.148025
-0.00047445
0.14797
-0.000441183
0.148001
2.603e-06
0.148104
0.147898
-0.00580539
3.51493
1.51214
-0.00583598
3.5181
1.51115
-0.010584
3.5162
1.51246
-0.00238211
3.51959
1.50521
0.019644
3.5279
1.49826
3.50796
1.51258
-0.00139986
2.95606
0.962528
-0.00185967
2.95684
0.964278
-0.00252971
2.95685
0.961945
-0.00192837
2.95723
0.964297
0.00226605
2.95912
0.968035
2.95561
0.954934
-0.000352007
0.355673
-0.00049868
0.355986
-0.000416483
0.355441
-0.000610113
0.356247
-0.000235385
0.357347
0.35398
-0.00733577
2.98914
2.41925
-0.0160859
2.99221
2.41572
-0.012527
2.99276
2.42207
-0.0104247
2.99899
2.40237
-0.0134933
3.00593
2.3866
2.99141
2.4321
-0.0021275
2.40812
1.54568
-0.00414063
2.40965
1.54885
-0.00498462
2.40907
1.54648
-0.00295866
2.4118
1.54946
0.000763646
2.41579
1.55444
2.40791
1.5392
-0.000578841
0.543082
-0.000791529
0.544057
-0.00123628
0.542997
-0.00088959
0.545454
0.000850753
0.548055
0.540238
-0.00208326
1.74335
2.44318
-0.0169072
1.74078
2.43575
-0.00238273
1.74646
2.44461
-0.0198931
1.74549
2.41789
-0.0684801
1.75216
2.40706
1.75518
2.45866
-0.000580082
1.51854
1.77107
-0.00428946
1.5193
1.77404
-0.00279722
1.51861
1.77285
-0.00551358
1.52174
1.77593
-0.00716562
1.52624
1.78202
1.51823
1.76899
-0.000496068
0.606186
-0.000844508
0.607387
-0.0017297
0.606325
-0.00101814
0.609425
0.00241261
0.61225
0.604093
0.00362314
0.150026
2.08217
-0.00746961
0.143903
2.07783
0.00514405
0.148637
2.08285
-0.0158243
0.143545
2.06461
-0.0472787
0.148217
2.06455
0.156608
2.08638
0.00108053
0.471588
1.44843
-0.0022809
0.471089
1.45022
-0.000834366
0.470838
1.4492
-0.00531433
0.471846
1.45211
-0.00728412
0.474415
1.45779
0.471189
1.44713
-0.000408986
0.464498
-0.000833597
0.46517
-0.00189128
0.464464
-0.00112905
0.466187
0.00243389
0.467506
0.463485
0.00273065
-0.818417
1.41141
-0.00287303
-0.821423
1.41014
-0.000339037
-0.820777
1.41015
-0.0111405
-0.82419
1.40059
-0.0109074
-0.82416
1.40034
-0.822259
1.4036
0.000791779
-0.311818
0.941037
0.000120441
-0.312337
0.941806
9.02684e-05
-0.312092
0.940545
-0.00144293
-0.311875
0.941326
-0.000614874
-0.310474
0.943277
-0.312385
0.936637
-0.000494405
0.302951
-0.000942444
0.303041
-0.0017081
0.302777
-0.000995576
0.302921
0.00152472
0.303058
0.302191
-0.00452092
-1.09291
0.9117
-0.0129351
-1.09387
0.912236
-0.0183741
-1.09251
0.910954
-0.0202878
-1.09228
0.906568
0.00998862
-1.08852
0.904848
-1.09206
0.904077
-0.00101972
-0.693036
0.542182
-0.00204726
-0.692808
0.541772
-0.00242997
-0.691831
0.540247
-0.00252422
-0.690253
0.539392
0.000337637
-0.687298
0.539194
-0.690686
0.535602
-0.000975295
0.162007
-0.00188292
0.161907
-0.00257729
0.1618
-0.00195822
0.16146
0.00110158
0.161084
0.161673
-0.0119007
-1.12733
0.570066
-0.0240004
-1.12568
0.576114
-0.0347391
-1.12199
0.580382
-0.029885
-1.1138
0.579319
0.0108037
-1.10087
0.590976
-1.11343
0.583846
-0.00431288
-1.0773
0.496461
-0.00820264
-1.07578
0.495761
-0.00981747
-1.0741
0.493973
-0.0102081
-1.07061
0.496587
-0.00440696
-1.0671
0.49963
-1.06899
0.486762
-0.00146439
0.13505
-0.00253403
0.134984
-0.00300963
0.134755
-0.00252247
0.135242
-0.000650058
0.135459
0.134399
0.011999
-0.825137
0.153766
0.00451197
-0.825726
0.156913
-0.0198554
-0.823344
0.165924
-0.0171455
-0.821329
0.108567
0.0511143
-0.809664
0.0564808
-0.822631
0.139764
-0.00678966
-0.874804
0.552921
-0.0121016
-0.874687
0.550036
-0.0100816
-0.874461
0.543072
-0.0141594
-0.870211
0.549548
-0.0138227
-0.862835
0.552467
-0.874703
0.525012
-0.00115149
0.209904
-0.00214277
0.20918
-0.00347281
0.208117
-0.0027718
0.206982
0.00230148
0.205362
0.206216
-0.020834
-1.50918
-0.701173
-0.0387554
-1.50344
-0.694017
-0.0585422
-1.4876
-0.670784
-0.0941615
-1.5087
-0.739605
0.0280515
-1.48525
-0.842645
-1.48304
-0.67688
-0.0148901
-1.5907
0.649334
-0.0220585
-1.59032
0.64409
-0.0155018
-1.58685
0.635761
-0.0282095
-1.57613
0.62969
-0.0129285
-1.55764
0.609573
-1.58079
0.609831
-0.00296597
0.209792
-0.00680263
0.208459
-0.0129984
0.207742
-0.00828618
0.2067
0.0110683
0.204161
0.205151
0.00742943
-1.97297
-2.33476
0.015207
-1.96707
-2.32069
0.0433043
-1.96248
-2.29661
0.00569651
-1.88411
-2.36436
0.00672271
-1.6456
-2.52461
-1.89689
-2.28392
-0.0358977
-1.68901
0.401266
-0.0768455
-1.6886
0.406567
-0.127366
-1.68367
0.407469
-0.130941
-1.64828
0.397428
0.0453426
-1.60112
0.38881
-1.65541
0.413686
-0.00454447
0.250225
-0.0131407
0.250713
-0.0307022
0.251467
-0.0208692
0.253178
0.0220487
0.253554
0.254619
0.00551014
-3.18374
0.00586539
-3.15346
0.0192244
-3.11798
0.0236679
-3.0997
-0.0128799
-2.99001
-3.02213
-0.0340081
-1.9453
-0.059815
-1.93056
-0.0650179
-1.91825
-0.0756143
-1.89998
-0.0299457
-1.85283
-1.87331
-0.0174211
-0.0293811
-0.0341684
-0.0315185
-0.0159612
)
;

boundaryField
{
    seabed_topleft_surface
    {
        type            calculated;
        value           uniform 0;
    }
    seabed_topright_surface
    {
        type            calculated;
        value           uniform 0;
    }
    breakwater_top_surface
    {
        type            calculated;
        value           uniform 0;
    }
    breakwater_left_surface
    {
        type            calculated;
        value           uniform 0;
    }
    breakwater_right_surface
    {
        type            calculated;