/*--------------------------------*- C++ -*----------------------------------*\
| =========                 |                                                 |
| \\      /  F ield         | OpenFOAM: The Open Source CFD Toolbox           |
|  \\    /   O peration     | Version:  v1612+                                |
|   \\  /    A nd           | Web:      www.OpenFOAM.com                      |
|    \\/     M anipulation  |                                                 |
\*---------------------------------------------------------------------------*/
FoamFile
{
    version     2.0;
    format      ascii;
    class       volScalarField;
    location    "4.05";
    object      p;
}
// * * * * * * * * * * * * * * * * * * * * * * * * * * * * * * * * * * * * * //

dimensions      [1 -1 -2 0 0 0 0];

internalField   nonuniform List<scalar> 
1116
(
2594.42
2594.43
2594.43
2594.45
2594.46
2594.41
2641.23
2641.25
2641.25
2641.26
2641.27
2641.23
2810.43
2810.44
2810.45
2810.45
2810.46
2810.44
3062.88
3062.89
3062.89
3062.89
3062.9
3062.89
3426.76
3426.77
3426.78
3426.77
3426.78
3426.78
3984.66
3984.67
3984.68
3984.67
3984.68
3984.68
5198.31
5198.36
5198.35
5198.37
5198.38
5198.37
8141.06
8141.13
8141.09
8141.09
8141.09
8141.1
12330.6
12330.5
12330.5
12330.5
12330.5
12330.5
15994.1
15994
15994
15994
15993.9
15993.9
19503.2
19502.7
19502.5
19502.4
19502.3
19502.5
22480.9
22480.6
22480.4
22480.3
22480.2
22480.2
-32.0474
-32.0467
-32.0466
-32.047
-32.0476
-32.0481
-38.1022
-38.1011
-38.1012
-38.1018
-38.1025
-38.1035
-58.8608
-58.8603
-58.8607
-58.8613
-58.8618
-58.8629
-93.7904
-93.7911
-93.7917
-93.7921
-93.7922
-93.7917
-44.2039
-44.2042
-44.2045
-44.205
-44.2048
-44.2026
116.265
116.266
116.268
116.267
116.267
116.269
322.395
322.379
322.384
322.385
322.385
322.391
1069.97
1070
1069.98
1069.96
1069.97
1070.01
3762.17
3761.52
3761.81
3761.75
3761.69
3761.9
7245.72
7245.69
7245.74
7245.54
7245.47
7245.4
10741.8
10740.1
10739.3
10738.8
10738.9
10739.5
13942.4
13941.7
13941.2
13940.9
13940.9
13941
-22.8438
-22.8437
-22.8438
-22.8442
-22.8447
-22.8452
-25.9162
-25.9161
-25.9163
-25.9168
-25.9175
-25.9182
-39.5932
-39.5932
-39.5936
-39.594
-39.5944
-39.5949
-74.9353
-74.9355
-74.9361
-74.9362
-74.936
-74.9365
-87.6228
-87.6217
-87.6216
-87.621
-87.6201
-87.6211
-37.6149
-37.614
-37.6136
-37.613
-37.6127
-37.6132
6.5958
6.5876
6.59083
6.5899
6.58887
6.59098
64.9489
64.91
64.9254
64.9208
64.9183
64.9347
318.134
317.508
317.8
317.787
317.707
317.919
2232.16
2233.94
2233.07
2232.83
2233.07
2232.37
5927.13
5912.28
5909.79
5909.99
5909.74
5916.59
7917.44
7915.9
7914.97
7914.68
7914.81
7915.25
-42.1338
-42.1337
-42.1338
-42.1341
-42.1345
-42.1348
-43.9323
-43.9323
-43.9325
-43.9329
-43.9332
-43.9336
-49.2157
-49.2158
-49.216
-49.2163
-49.2165
-49.2169
-60.2715
-60.2715
-60.2717
-60.2714
-60.2711
-60.2717
-53.2113
-53.2102
-53.21
-53.2093
-53.2087
-53.2094
-24.9965
-24.9939
-24.9938
-24.9934
-24.9928
-24.9941
-5.8565
-5.85995
-5.8573
-5.85828
-5.85865
-5.85892
32.7099
32.7392
32.7273
32.7231
32.7251
32.7163
34.2572
34.216
34.2241
34.2172
34.2258
34.2311
321.446
320.621
320.967
320.955
320.938
321.08
4063.33
4070.71
4071.17
4070.49
4071.47
4067.04
4613.1
4614.17
4614.17
4614.14
4614.22
4613.36
7.7404
7.74032
7.74031
7.74034
7.74039
7.74042
8.39205
8.39203
8.39206
8.39211
8.39217
8.39222
9.74448
9.74452
9.74456
9.7446
9.74464
9.74466
11.9011
11.9012
11.9012
11.9011
11.9011
11.9011
15.0365
15.0364
15.0363
15.036
15.0358
15.0357
19.4143
19.414
19.4137
19.4132
19.4133
19.4136
25.384
25.3831
25.3839
25.3821
25.3843
25.3873
33.4481
33.443
33.4499
33.4375
33.4444
33.4602
44.0897
44.066
44.1066
44.0218
44.0371
44.1547
51.2015
51.147
51.258
51.0129
51.0067
51.3875
19.1269
19.131
19.1363
19.106
19.074
19.2253
-2.08888
-2.08339
-2.08505
-2.07326
-2.0651
-2.04298
-2.74386
-2.7439
-2.74388
-2.74383
-2.74376
-2.7437
-2.11884
-2.11884
-2.1188
-2.11875
-2.1187
-2.11865
-0.824772
-0.82476
-0.824755
-0.824749
-0.824741
-0.824721
1.23288
1.23288
1.23287
1.23286
1.23286
1.23287
4.22982
4.2298
4.22985
4.22983
4.22996
4.23007
8.48261
8.48233
8.48282
8.48193
8.48284
8.48421
14.507
14.5047
14.508
14.5014
14.505
14.5117
24.274
24.2578
24.2847
24.2314
24.2429
24.3099
43.443
43.3724
43.5053
43.2383
43.2375
43.6455
51.3781
51.2783
51.292
51.3567
51.0933
51.1321
-12.7041
-12.6091
-12.7314
-12.502
-12.4472
-12.5981
-37.7851
-37.7582
-37.7999
-37.7379
-37.7307
-37.7053
-13.8791
-13.8791
-13.879
-13.879
-13.8789
-13.8789
-13.333
-13.333
-13.3329
-13.3329
-13.3329
-13.3328
-12.2131
-12.2131
-12.2131
-12.2131
-12.2131
-12.2131
-10.4577
-10.4577
-10.4577
-10.4577
-10.4577
-10.4576
-7.94889
-7.94893
-7.9487
-7.94871
-7.94842
-7.94816
-4.47319
-4.47392
-4.47246
-4.47375
-4.47279
-4.4723
0.129806
0.1258
0.131987
0.123315
0.126163
0.129124
7.83661
7.81495
7.84551
7.80745
7.80651
7.83477
20.7072
20.6608
20.6714
20.7613
20.7168
20.5374
-5.28327
-5.31315
-5.58133
-4.86932
-4.93704
-5.89682
-125.04
-124.771
-125.316
-124.55
-124.481
-125.637
-74.5753
-74.5623
-74.5504
-74.6672
-74.7544
-74.3778
-25.5538
-25.5537
-25.5537
-25.5537
-25.5536
-25.5536
-25.1326
-25.1326
-25.1326
-25.1326
-25.1325
-25.1325
-24.2978
-24.2977
-24.2977
-24.2978
-24.2978
-24.2978
-23.0766
-23.0766
-23.0766
-23.0765
-23.0765
-23.0764
-21.5561
-21.5561
-21.5558
-21.5557
-21.5554
-21.5553
-19.9795
-19.9798
-19.9789
-19.979
-19.9786
-19.9791
-19.2591
-19.2602
-19.2579
-19.2586
-19.2574
-19.2616
-22.1526
-22.157
-22.1577
-22.1304
-22.1238
-22.184
-35.2888
-35.2918
-35.3591
-35.1512
-35.1256
-35.4839
-75.814
-75.8192
-75.9301
-75.742
-75.708
-75.9456
-112.823
-113.35
-114.162
-112.879
-112.673
-114.067
-419.075
-418.502
-420.382
-416.663
-413.434
-425.761
-49.1476
-49.1476
-49.1477
-49.1478
-49.148
-49.1482
-58.299
-58.299
-58.299
-58.299
-58.2991
-58.2992
-67.324
-67.3241
-67.324
-67.324
-67.3239
-67.3238
-50.1653
-50.1653
-50.1655
-50.1657
-50.1659
-50.1662
-58.3904
-58.3905
-58.3905
-58.3906
-58.3907
-58.3908
-67.1463
-67.1464
-67.1463
-67.1463
-67.1463
-67.1461
-52.7362
-52.7362
-52.7364
-52.7366
-52.7368
-52.737
-58.3434
-58.3434
-58.3435
-58.3435
-58.3436
-58.3436
-66.638
-66.6381
-66.6381
-66.6381
-66.6381
-66.6381
-54.1552
-54.1553
-54.1553
-54.1553
-54.1553
-54.1552
-56.5947
-56.5945
-56.5945
-56.5945
-56.5946
-56.5946
-65.5781
-65.5781
-65.5781
-65.5782
-65.5782
-65.5783
-45.7923
-45.7928
-45.7928
-45.7928
-45.7927
-45.7923
-51.5442
-51.544
-51.5439
-51.5439
-51.5439
-51.5441
-64.1377
-64.1377
-64.1377
-64.1377
-64.1377
-64.1378
-29.0171
-29.0178
-29.018
-29.0182
-29.0184
-29.0178
-46.7187
-46.7191
-46.7193
-46.7193
-46.7192
-46.719
-62.0043
-62.0046
-62.0047
-62.0048
-62.0049
-62.0047
-28.6431
-28.6441
-28.6439
-28.6437
-28.644
-28.6442
-47.3667
-47.3646
-47.3656
-47.3651
-47.3646
-47.3651
-63.2586
-63.2596
-63.2598
-63.2597
-63.2598
-63.2594
-3.48202
-3.45814
-3.46591
-3.4668
-3.46717
-3.47322
-31.2485
-31.2382
-31.2402
-31.2394
-31.2397
-31.2413
-58.7902
-58.7876
-58.7871
-58.787
-58.7867
-58.7875
-57.245
-57.2693
-57.2738
-57.2579
-57.2627
-57.2551
-84.1581
-84.1671
-84.1688
-84.1621
-84.1661
-84.1665
-80.4863
-80.4919
-80.4928
-80.4887
-80.4906
-80.4943
-138.355
-138.526
-138.476
-138.443
-138.464
-138.375
-114.202
-114.165
-114.165
-114.18
-114.179
-114.183
-85.5695
-85.5705
-85.5692
-85.5676
-85.5646
-85.5758
329.103
331.081
330.281
330.068
330.377
329.915
-95.1497
-95.1426
-95.1363
-95.1487
-95.1558
-95.1316
-87.6366
-87.6519
-87.6432
-87.6428
-87.6411
-87.6491
1058.63
1059.16
1058.97
1059.09
1058.91
1059.16
-69.8668
-69.8899
-69.8741
-69.9086
-69.9389
-69.8204
-73.0399
-73.043
-73.0425
-73.0384
-73.031
-73.044
1796
1795.87
1796.63
1797.54
1798.65
1797.02
-40.1791
-40.3009
-40.2871
-39.9212
-39.5065
-40.4284
-61.1758
-61.2536
-61.2329
-61.2555
-61.2309
-61.2725
2097.31
2098.99
2098.98
2098.88
2103.2
2093.89
-39.3238
-39.3272
-39.3066
-39.3264
-39.2763
-39.3539
-60.0099
-59.9614
-59.9467
-60.0725
-60.0761
-59.8992
2682.02
2682.11
2682.66
2682.19
2683.04
2681.76
-21.5177
-21.5797
-21.5569
-21.4829
-21.4519
-21.5662
-63.6091
-63.6113
-63.6138
-63.613
-63.6126
-63.6155
3059.53
3059.63
3060.09
3059.82
3060.26
3060.19
67.9828
68.0724
68.1407
68.2604
68.9379
67.7219
-65.4873
-65.4755
-65.4749
-65.4803
-65.4631
-65.49
3205.32
3205.38
3205.54
3205.46
3204.64
3206.31
185.187
185.602
185.455
185.863
187.261
183.995
-65.2938
-65.2808
-65.2827
-65.2744
-65.2475
-65.3167
3186.09
3186.1
3186.23
3185.95
3184.38
3187.83
-3.61351
-3.45308
-3.54615
-3.43819
-3.13894
-3.82533
-70.2222
-70.2034
-70.2092
-70.1974
-70.1693
-70.2444
-37.6065
-37.6064
-37.6064
-37.6064
-37.6063
-37.6063
-49.9406
-49.9406
-49.9406
-49.9406
-49.9406
-49.9405
-62.405
-62.405
-62.405
-62.4049
-62.4049
-62.4049
-37.3266
-37.3266
-37.3266
-37.3266
-37.3266
-37.3266
-49.7898
-49.7898
-49.7898
-49.7898
-49.7898
-49.7898
-62.3615
-62.3615
-62.3615
-62.3615
-62.3615
-62.3615
-36.7982
-36.7982
-36.7982
-36.7982
-36.7983
-36.7983
-49.5187
-49.5187
-49.5187
-49.5187
-49.5187
-49.5188
-62.2893
-62.2893
-62.2893
-62.2893
-62.2894
-62.2894
-36.1122
-36.1122
-36.1122
-36.1122
-36.1122
-36.1122
-49.2097
-49.2097
-49.2097
-49.2098
-49.2098
-49.2098
-62.2232
-62.2232
-62.2233
-62.2233
-62.2234
-62.2234
-35.4922
-35.4922
-35.4921
-35.492
-35.492
-35.492
-49.0414
-49.0414
-49.0415
-49.0415
-49.0417
-49.0416
-62.2262
-62.2262
-62.2263
-62.2264
-62.2265
-62.2265
-35.4392
-35.439
-35.439
-35.4384
-35.4385
-35.439
-49.3255
-49.3254
-49.3259
-49.3258
-49.3266
-49.3262
-62.4315
-62.4315
-62.4317
-62.4319
-62.4322
-62.4321
-37.1109
-37.1099
-37.1106
-37.1074
-37.1073
-37.1093
-50.4533
-50.4539
-50.4551
-50.4543
-50.456
-50.46
-62.4116
-62.412
-62.4129
-62.414
-62.415
-62.4156
-43.0087
-43.003
-43.007
-42.9928
-42.9924
-42.9865
-54.6264
-54.622
-54.6252
-54.6254
-54.6387
-54.6015
-64.3992
-64.3995
-64.3997
-64.3972
-64.3983
-64.4003
-52.5491
-52.5428
-52.5505
-52.5272
-52.5193
-52.5688
-55.2918
-55.268
-55.2923
-55.3378
-55.3537
-55.3938
-62.7426
-62.7378
-62.7468
-62.769
-62.7778
-62.7492
-87.3894
-87.3557
-87.4348
-87.4987
-87.5683
-87.072
-76.1689
-76.1728
-76.3862
-76.5735
-76.9213
-76.9843
-68.1223
-68.1654
-68.2061
-68.2034
-68.2163
-68.4548
-96.0948
-96.3575
-96.1378
-94.9176
-94.3818
-96.0258
-71.1589
-70.8082
-70.2475
-71.6673
-72.7913
-69.3262
-62.1468
-62.1155
-62.0911
-62.2219
-62.3741
-62.0142
-1.155
-5.72623
-4.26294
8.03619
18.0533
-3.68068
-94.057
-94.0127
-93.4763
-97.0773
-98.1858
-94.7108
-57.0564
-57.1103
-57.0462
-57.4644
-57.6693
-57.0191
)
;

boundaryField
{
    seabed_topleft_surface
    {
        type            calculated;
        value           nonuniform List<scalar> 
72
(
5181.82
5181.85
5181.85
5181.88
5181.9
5181.82
5249.68
5249.71
5249.72
5249.74
5249.76
5249.69
5594.93
5594.95
5594.96
5594.97
5594.98
5594.94
6164.52
6164.54
6164.55
6164.55
6164.57
6164.56
6927.61
6927.64
6927.65
6927.65
6927.66
6927.66
7946.92
7946.93
7946.94
7946.94
7946.94
7946.96
9681.67
9681.7
9681.7
9681.71
9681.71
9681.73
12930.1
12930.2
12930.2
12930.2
12930.2
12930.2
17119.7
17119.6
17119.6
17119.6
17119.5
17119.6
20783.2
20783.1
20783.1
20783
20783
20783
24292.1
24291.6
24291.5
24291.3
24291.2
24291.4
27262.9
27262.6
27262.4
27262.2
27262.1
27262.2
)
;
    }
    seabed_topright_surface
    {
        type            calculated;
        value           nonuniform List<scalar> 
72
(
12.6623
12.6622
12.6622
12.6622
12.6622
12.6623
13.3139
13.3139
13.3139
13.314
13.314
13.3141
14.6663
14.6664
14.6664
14.6665
14.6665
14.6665
16.823
16.823
16.823
16.823
16.8229
16.8229
19.9583
19.9583
19.9581
19.9579
19.9577
19.9575
24.3361
24.3358
24.3356
24.3351
24.3352
24.3355
30.3059
30.305
30.3057
30.3039
30.3061
30.3091
38.3699
38.3649
38.3718
38.3593
38.3663
38.3821
49.012
48.9883
49.0289
48.9441
48.9594
49.0772
56.124
56.0695
56.1805
55.9353
55.9291
56.3101
24.0495
24.0536
24.0589
24.0286
23.9966
24.1479
2.83376
2.83924
2.83757
2.84935
2.85751
2.87963
)
;
    }
    breakwater_top_surface
    {
        type            calculated;
        value           nonuniform List<scalar> 
36
(
3619.04
3618.37
3619.9
3621.74
3623.35
3620.81
4213
4216.79
4216.61
4216.26
4225.36
4205.88
5329.5
5329.78
5330.56
5329.95
5331.66
5328.36
5857.23
5857.45
5858.02
5857.88
5858.4
5858.16
6003.13
6003.32
6003.6
6003.59
6002.77
6004.44
5980.42
5980.66
5980.77
5980.82
5979.7
5981.97
)
;
    }
    breakwater_left_surface
    {
        type            calculated;
        value           nonuniform List<scalar> 
24
(
22497.3
22497
22496.8
22496.6
22496.5
22496.6
13958.4
13957.8
13957.2
13957
13956.9
13957.1
7933.19
7931.65
7930.72
7930.43
7930.56
7931
4627.46
4628.54
4628.53
4628.51
4628.59
4627.73
)
;
    }
    breakwater_right_surface
    {
        type            calculated;
        value           nonuniform List<scalar> 
24
(
-2.07202
-2.06653
-2.06819
-2.05641
-2.04824
-2.02612
-37.7683
-37.7415
-37.7832
-37.7212
-37.714
-37.6885
-74.559
-74.5461
-74.5342
-74.651
-74.7382
-74.3616
-418.005
-417.434
-419.306
-415.604
-412.389
-424.663
)
;
    }
    water_front_surface
    {
        type            calculated;
        value           nonuniform List<scalar> 
186
(
2594.42
2641.23
2810.43
3062.88
3426.76
3984.66
5198.31
8141.06
12330.6
15994.1
19503.2
22480.9
-32.0474
-38.1022
-58.8608
-93.7904
-44.2039
116.265
322.395
1069.97
3762.17
7245.72
10741.8
13942.4
-22.8438
-25.9162
-39.5932
-74.9353
-87.6228
-37.6149
6.5958
64.9489
318.134
2232.16
5927.13
7917.44
-42.1338
-43.9323
-49.2157
-60.2715
-53.2113
-24.9965
-5.8565
32.7099
34.2572
321.446
4063.33
4613.1
7.7404
8.39205
9.74448
11.9011
15.0365
19.4143
25.384
33.4481
44.0897
51.2015
19.1269
-2.08888
-2.74386
-2.11884
-0.824772
1.23288
4.22982
8.48261
14.507
24.274
43.443
51.3781
-12.7041
-37.7851
-13.8791
-13.333
-12.2131
-10.4577
-7.94889
-4.47319
0.129806
7.83661
20.7072
-5.28327
-125.04
-74.5753
-25.5538
-25.1326
-24.2978
-23.0766
-21.5561
-19.9795
-19.2591
-22.1526
-35.2888
-75.814
-112.823
-419.075
-49.1476
-58.299
-67.324
-50.1653
-58.3904
-67.1463
-52.7362
-58.3434
-66.638
-54.1552
-56.5947
-65.5781
-45.7923
-51.5442
-64.1377
-29.0171
-46.7187
-62.0043
-28.6431
-47.3667
-63.2586
-3.48202
-31.2485
-58.7902
-57.245
-84.1581
-80.4863
-138.355
-114.202
-85.5695
329.103
-95.1497
-87.6366
1058.63
-69.8668
-73.0399
1796
-40.1791
-61.1758
2097.31
-39.3238
-60.0099
2682.02
-21.5177
-63.6091
3059.53
67.9828
-65.4873
3205.32
185.187
-65.2938
3186.09
-3.61351
-70.2222
-37.6065
-49.9406
-62.405
-37.3266
-49.7898
-62.3615
-36.7982
-49.5187
-62.2893
-36.1122
-49.2097
-62.2232
-35.4922
-49.0414
-62.2262
-35.4392
-49.3255
-62.4315
-37.1109
-50.4533
-62.4116
-43.0087
-54.6264
-64.3992
-52.5491
-55.2918
-62.7426
-87.3894
-76.1689
-68.1223
-96.0948
-71.1589
-62.1468
-1.155
-94.057
-57.0564
)
;
    }
    water_back_surface
    {
        type            calculated;
        value           nonuniform List<scalar> 
186
(
2594.41
2641.23
2810.44
3062.89
3426.78
3984.68
5198.37
8141.1
12330.5
15993.9
19502.5
22480.2
-32.0481
-38.1035
-58.8629
-93.7917
-44.2026
116.269
322.391
1070.01
3761.9
7245.4
10739.5
13941
-22.8452
-25.9182
-39.5949
-74.9365
-87.6211
-37.6132
6.59098
64.9347
317.919
2232.37
5916.59
7915.25
-42.1348
-43.9336
-49.2169
-60.2717
-53.2094
-24.9941
-5.85892
32.7163
34.2311
321.08
4067.04
4613.36
7.74042
8.39222
9.74466
11.9011
15.0357
19.4136
25.3873
33.4602
44.1547
51.3875
19.2253
-2.04298
-2.7437
-2.11865
-0.824721
1.23287
4.23007
8.48421
14.5117
24.3099
43.6455
51.1321
-12.5981
-37.7053
-13.8789
-13.3328
-12.2131
-10.4576
-7.94816
-4.4723
0.129124
7.83477
20.5374
-5.89682
-125.637
-74.3778
-25.5536
-25.1325
-24.2978
-23.0764
-21.5553
-19.9791
-19.2616
-22.184
-35.4839
-75.9456
-114.067
-425.761
-49.1482
-58.2992
-67.3238
-50.1662
-58.3908
-67.1461
-52.737
-58.3436
-66.6381
-54.1552
-56.5946
-65.5783
-45.7923
-51.5441
-64.1378
-29.0178
-46.719
-62.0047
-28.6442
-47.3651
-63.2594
-3.47322
-31.2413
-58.7875
-57.2551
-84.1665
-80.4943
-138.375
-114.183
-85.5758
329.915
-95.1316
-87.6491
1059.16
-69.8204
-73.044
1797.02
-40.4284
-61.2725
2093.89
-39.3539
-59.8992
2681.76
-21.5662
-63.6155
3060.19
67.7219
-65.49
3206.31
183.995
-65.3167
3187.83
-3.82533
-70.2444
-37.6063
-49.9405
-62.4049
-37.3266
-49.7898
-62.3615
-36.7983
-49.5188
-62.2894
-36.1122
-49.2098
-62.2234
-35.492
-49.0416
-62.2265
-35.439
-49.3262
-62.4321
-37.1093
-50.46
-62.4156
-42.9865
-54.6015
-64.4003
-52.5688
-55.3938
-62.7492
-87.072
-76.9843
-68.4548
-96.0258
-69.3262
-62.0142
-3.68068
-94.7108
-57.0191
)
;
    }
    water_left_surface
    {
        type            calculated;
        value           nonuniform List<scalar> 
42
(
2603.28
2603.29
2603.29
2603.31
2603.32
2603.28
-32.0309
-32.0302
-32.0301
-32.0305
-32.0311
-32.0316
-22.8276
-22.8276
-22.8276
-22.828
-22.8285
-22.829
-42.1179
-42.1179
-42.118
-42.1182
-42.1186
-42.1189
-49.1476
-49.1476
-49.1477
-49.1478
-49.148
-49.1482
-58.299
-58.299
-58.299
-58.299
-58.2991
-58.2992
-67.324
-67.3241
-67.324
-67.324
-67.3239
-67.3238
)
;
    }
    water_right_surface
    {
        type            calculated;
        value           nonuniform List<scalar> 
42
(
7.75725
7.75717
7.75717
7.7572
7.75724
7.75728
-2.72735
-2.72739
-2.72736
-2.72731
-2.72725
-2.72719
-13.8629
-13.8629
-13.8628
-13.8628
-13.8627
-13.8627
-25.5379
-25.5379
-25.5378
-25.5378
-25.5377
-25.5377
-37.6065
-37.6064
-37.6064
-37.6064
-37.6063
-37.6063
-49.9406
-49.9406
-49.9406
-49.9406
-49.9406
-49.9405
-62.405
-62.405
-62.405
-62.4049
-62.4049
-62.4049
)
;
    }
    water_top_surface
    {
        type            calculated;
        value           nonuniform List<scalar> 
180
(
-71.8137
-71.8141
-71.814
-71.8139
-71.8138
-71.8133
-71.528
-71.5282
-71.5281
-71.528
-71.5279
-71.5274
-70.6378
-70.638
-70.6379
-70.6378
-70.6379
-70.6376
-69.4736
-69.4738
-69.4739
-69.4739
-69.474
-69.4738
-68.6722
-68.6722
-68.6722
-68.6722
-68.6722
-68.6722
-68.67
-68.67
-68.67
-68.67
-68.67
-68.67
-68.67
-68.67
-68.67
-68.67
-68.67
-68.67
-68.67
-68.67
-68.67
-68.67
-68.67
-68.67
-68.6733
-68.6733
-68.6733
-68.6733
-68.6733
-68.6733
-69.1019
-69.0991
-69.0986
-69.0957
-69.0906
-69.0957
-91.7645
-91.7667
-91.7721
-91.7742
-91.7753
-91.7832
-87.9573
-88.0114
-87.9877
-87.9907
-88.0174
-87.9485
-81.9517
-82.8455
-82.947
-81.6329
-81.5549
-83.2723
-82.8463
-82.7074
-82.6434
-82.9913
-83.0603
-82.3975
-70.3169
-70.3235
-70.3131
-70.334
-70.3499
-70.2905
-77.8664
-77.8927
-77.8716
-77.9235
-78.0392
-77.7632
-85.123
-85.1588
-85.1285
-85.1687
-85.2535
-85.0357
-84.879
-84.9612
-84.9017
-84.949
-85.04
-84.8034
-68.67
-68.67
-68.67
-68.67
-68.67
-68.67
-68.67
-68.67
-68.67
-68.67
-68.67
-68.67
-68.67
-68.67
-68.67
-68.67
-68.67
-68.67
-68.67
-68.67
-68.67
-68.67
-68.67
-68.67
-68.67
-68.67
-68.67
-68.67
-68.67
-68.67
-68.67
-68.67
-68.67
-68.67
-68.67
-68.67
-68.67
-68.67
-68.67
-68.67
-68.67
-68.67
-68.67
-68.67
-68.67
-68.67
-68.67
-68.67
-68.6714
-68.6714
-68.6714
-68.6714
-68.6714
-68.6713
-68.8646
-68.8614
-68.8619
-68.8645
-68.8691
-68.851
-71.4231
-71.4323
-71.4434
-71.4719
-71.5495
-71.4023
-68.7015
-68.6724
-68.6724
-71.1558
-74.512
-68.6723
)
;
    }
}


// ************************************************************************* //
