/*--------------------------------*- C++ -*----------------------------------*\
| =========                 |                                                 |
| \\      /  F ield         | OpenFOAM: The Open Source CFD Toolbox           |
|  \\    /   O peration     | Version:  v1612+                                |
|   \\  /    A nd           | Web:      www.OpenFOAM.com                      |
|    \\/     M anipulation  |                                                 |
\*---------------------------------------------------------------------------*/
FoamFile
{
    version     2.0;
    format      ascii;
    class       surfaceScalarField;
    location    "4.3";
    object      alphaPhi;
}
// * * * * * * * * * * * * * * * * * * * * * * * * * * * * * * * * * * * * * //

dimensions      [0 3 -1 0 0 0 0];

internalField   nonuniform List<scalar> 
816
(
-2.08903e-06
-4.77497e-06
4.61015e-06
-1.9495e-06
-3.39514e-06
7.86953e-06
4.68066e-07
4.92111e-06
1.05262e-06
7.00299e-06
-1.551e-05
-2.97928e-06
1.8421e-06
2.81959e-06
8.29562e-06
-1.47957e-05
-1.42395e-07
3.88499e-06
5.02635e-06
-1.12297e-05
3.56671e-09
-4.123e-09
4.00903e-06
-1.70632e-09
1.58224e-09
1.51415e-09
-3.60859e-06
-8.72873e-10
2.02654e-10
3.56685e-11
-4.48278e-06
-2.37195e-09
1.86943e-09
-7.78345e-10
2.8606e-06
-1.11246e-09
2.06833e-09
-6.64779e-10
1.99656e-06
1.59803e-09
8.1704e-11
3.11393e-09
-1.89637e-06
-9.88338e-10
4.31468e-10
2.29671e-09
-2.00653e-06
-1.32437e-09
3.43397e-09
1.4314e-09
-9.34532e-07
-1.58513e-09
1.83938e-10
8.60174e-10
1.23602e-06
-1.03433e-09
1.1021e-09
1.3611e-10
4.22771e-06
-6.58558e-10
1.2538e-09
-2.01345e-09
-1.27186e-06
-9.78721e-10
-8.16423e-10
-5.76688e-07
4.54655e-10
-1.83568e-09
9.75191e-06
8.44755e-06
-1.64806e-05
3.26736e-06
8.68781e-06
1.52694e-05
-2.08663e-05
2.82991e-06
5.65746e-06
-2.50948e-07
-9.84449e-06
-4.64806e-07
1.03806e-05
-1.69517e-06
8.82814e-06
3.01615e-06
-1.44648e-06
-1.88192e-06
9.06784e-06
3.6434e-06
-5.24155e-06
8.39816e-07
-1.5465e-05
1.94562e-06
4.30574e-06
-2.52029e-06
-7.18987e-06
-2.68369e-06
9.34324e-06
-3.10831e-06
5.42477e-06
-1.33951e-05
7.67201e-06
4.30769e-06
-2.21357e-05
5.7111e-06
1.26664e-05
1.70727e-05
-1.33994e-05
9.29464e-07
1.083e-05
8.6869e-06
7.34061e-06
3.88967e-06
-3.69723e-06
-1.23646e-06
1.08199e-05
6.91243e-06
1.94372e-07
-3.92867e-06
-8.41246e-06
3.12976e-07
-4.67412e-06
-8.48887e-06
-2.63086e-06
-2.58037e-06
-4.09306e-06
-2.44915e-06
-5.40543e-06
-2.34431e-08
3.41712e-06
3.9393e-06
1.96819e-06
3.13801e-06
3.80518e-06
-1.34163e-06
-7.41682e-06
-1.12769e-06
-3.63582e-06
-9.26859e-07
-3.09979e-06
-6.05281e-07
6.29079e-07
2.39846e-06
3.2362e-06
-1.59473e-06
-9.41442e-06
-4.09798e-06
-6.32545e-06
-6.661e-06
-6.00759e-06
5.26041e-07
-3.37867e-06
3.31049e-06
-1.1892e-06
-8.66203e-07
-5.52697e-06
-2.14569e-06
-8.09369e-07
-3.94646e-06
3.50963e-06
-1.28507e-06
-8.5058e-07
-1.91207e-08
3.00302e-06
9.97073e-07
2.24227e-06
-7.86073e-07
1.47347e-06
1.62624e-06
2.06297e-06
6.4885e-07
1.73477e-06
1.82427e-06
-1.24709e-07
-2.29851e-06
1.85216e-07
-2.65695e-06
-2.49412e-06
-1.16479e-06
-1.88868e-06
-1.71508e-06
-1.00493e-06
-2.76572e-06
-1.09985e-06
1.46073e-07
2.32479e-06
2.49611e-07
9.9516e-07
2.13142e-06
7.77416e-07
-1.51858e-06
-1.49641e-07
-2.57819e-06
-2.20379e-06
-1.13985e-06
-8.69837e-07
-8.64973e-07
3.90536e-08
2.24658e-06
3.96235e-07
-3.41163e-07
-2.49934e-06
-3.87289e-06
-2.64894e-06
-3.11344e-06
7.3015e-08
-1.67026e-06
-1.40138e-06
-5.38775e-07
8.7033e-07
-2.90416e-06
-1.56919e-06
-1.01841e-07
6.77303e-10
-1.05413e-09
3.49915e-06
1.34318e-09
9.36146e-10
3.34423e-06
-1.687e-09
-1.21013e-09
-4.42596e-07
-6.634e-11
-1.00112e-10
-1.63121e-06
-1.56182e-09
2.534e-09
-2.49016e-06
-2.68714e-09
-1.20027e-09
-7.63507e-10
-1.80403e-06
-1.3306e-09
-1.31227e-09
-6.64414e-07
-2.09901e-09
-4.53433e-09
7.34029e-12
-1.70126e-09
-3.12472e-09
7.99328e-07
-9.80632e-10
1.38216e-09
1.17671e-06
-1.90206e-09
-3.46643e-09
9.41806e-10
-2.5907e-06
-1.07004e-10
-2.12034e-10
-5.28049e-06
-2.90162e-09
1.40634e-11
2.00322e-06
-1.10041e-09
-2.19513e-10
8.6517e-11
-3.82168e-09
1.90081e-09
-1.41207e-06
-2.01426e-09
-3.32659e-10
-6.00304e-10
6.80074e-11
4.6166e-10
-3.53637e-09
1.31032e-06
-1.03517e-09
-4.00989e-09
-2.59973e-07
-9.92526e-10
-1.02997e-09
-7.07791e-07
-3.39705e-10
2.80418e-05
-4.87077e-10
-8.79914e-10
-6.18571e-06
-4.68205e-06
1.93579e-05
1.20635e-05
6.17167e-08
-5.58667e-06
5.32075e-06
2.95748e-06
-1.19593e-05
6.58391e-06
-1.17016e-06
-7.38742e-07
9.1056e-07
1.04218e-05
1.55165e-05
-1.34146e-05
-1.52803e-05
2.60019e-06
1.83578e-05
-3.52943e-06
-3.4355e-06
9.03013e-06
-6.28842e-06
-2.08734e-05
3.11905e-05
-1.66661e-05
-1.58213e-05
6.26972e-06
-6.18029e-06
3.72894e-06
-1.66103e-05
6.68286e-06
-8.3593e-06
-3.41249e-06
5.56642e-06
2.38913e-06
-1.50097e-05
2.02953e-05
-1.08969e-05
1.75422e-06
-1.68024e-05
-2.52272e-06
3.21741e-06
1.25976e-05
-5.94892e-06
8.43788e-06
2.11952e-06
-1.11224e-05
-2.75351e-06
5.81144e-06
6.48331e-06
1.1505e-05
1.66014e-07
1.67612e-05
-5.40498e-06
-5.70303e-06
1.43737e-05
-5.40896e-06
-5.94916e-06
2.20706e-06
2.56144e-06
7.64478e-06
-8.51823e-06
-1.46268e-05
5.04804e-06
2.8827e-06
8.18063e-06
-2.20099e-06
1.9365e-06
-3.18921e-06
1.01733e-06
-1.48652e-06
-4.06322e-06
-7.23056e-06
1.01688e-06
-6.19419e-07
-5.08337e-06
-2.54404e-06
6.85534e-06
4.695e-06
7.55983e-06
-3.07189e-08
8.52027e-06
1.89903e-06
4.2923e-07
3.66275e-06
8.83841e-06
6.50217e-06
1.39744e-05
1.49286e-05
6.43451e-06
2.69813e-06
2.51402e-06
-2.03496e-06
-7.74897e-06
-5.16152e-06
4.77037e-06
-1.65407e-06
2.91283e-06
-1.37163e-06
4.29346e-06
9.30027e-06
4.44063e-06
-8.62162e-07
-8.02779e-06
-2.95272e-07
-9.17129e-07
5.97335e-06
2.57864e-06
-2.96604e-06
1.34568e-06
1.78231e-06
1.02941e-06
-2.23794e-06
3.04389e-06
-3.64813e-06
9.63835e-07
7.50318e-06
6.61721e-06
3.77451e-06
6.09891e-06
4.26793e-06
1.99349e-06
6.17679e-07
1.2188e-06
3.2148e-06
2.62233e-06
6.58738e-06
2.95194e-06
1.00219e-06
2.66602e-06
-1.41119e-06
1.05971e-06
-1.11639e-06
-2.42206e-08
-4.59586e-07
-1.38683e-07
-3.55081e-06
8.95618e-07
-3.69352e-07
-2.62699e-06
-1.99383e-06
1.81773e-06
3.47224e-06
4.4505e-06
-2.39084e-07
2.64944e-06
1.38707e-06
-2.0907e-08
1.29307e-06
4.47653e-06
3.87587e-06
3.76268e-06
8.45249e-06
4.20483e-06
6.28319e-07
1.62187e-06
-2.08014e-06
-1.53964e-06
-2.68547e-06
2.76111e-06
-1.54451e-06
1.18688e-06
-1.3919e-06
2.08632e-06
2.90145e-06
1.94195e-06
-1.39707e-06
-1.77724e-06
-5.34616e-07
-1.1994e-06
1.76678e-06
1.51406e-06
-1.49559e-06
5.32688e-07
1.04505e-06
6.43986e-08
-8.88434e-07
1.36168e-06
-2.78278e-06
1.51631e-06
2.25977e-06
2.93135e-06
2.61565e-06
1.86171e-06
2.57455e-06
1.08672e-06
1.91755e-07
3.61711e-07
8.65562e-07
1.16444e-06
3.2939e-06
-5.00881e-09
-1.69705e-06
1.55196e-06
-6.82973e-07
4.46587e-07
5.40902e-07
1.26307e-06
-4.59128e-07
3.3514e-07
5.00347e-07
5.63963e-07
1.2624e-06
-1.11035e-07
-1.23075e-06
2.84026e-07
-5.60514e-07
-8.53565e-07
-7.04673e-07
-3.32862e-07
-6.18762e-07
-4.49533e-07
1.27162e-06
-8.84997e-08
9.92231e-07
-8.75136e-07
1.12265e-07
-1.52309e-06
-5.42282e-07
5.08116e-08
-3.05667e-07
4.8543e-07
-5.65307e-07
-6.29992e-07
-1.74367e-06
-1.71861e-06
1.58263e-08
-1.0551e-06
-4.57459e-07
-1.78647e-06
-5.69005e-07
1.42552e-06
3.9031e-07
-9.0438e-07
3.96526e-07
2.35678e-07
7.55616e-07
-1.31601e-06
9.94053e-07
-9.25822e-07
-7.66488e-07
1.12447e-06
2.44263e-06
6.21008e-08
1.20717e-06
1.55738e-07
2.46313e-06
1.56021e-06
3.36154e-06
1.39091e-06
9.28676e-07
-8.47222e-07
-6.56032e-07
1.36548e-06
-6.6496e-07
-5.3612e-07
8.83837e-07
1.3673e-06
-3.40877e-07
-6.17436e-08
-2.84262e-07
1.09077e-06
-6.85759e-07
6.54563e-07
2.78589e-07
-2.94165e-07
-7.62787e-07
6.19632e-07
1.36516e-06
1.18827e-06
8.32574e-07
4.91826e-07
3.05114e-07
5.56764e-07
1.21639e-06
1.85566e-09
-8.86915e-10
5.17049e-07
5.23406e-10
6.69955e-11
1.93732e-09
1.11376e-06
-1.35671e-09
4.11899e-10
-5.94245e-10
6.16412e-06
-1.98592e-09
2.24163e-06
3.2396e-09
-7.22356e-06
2.02257e-09
8.9621e-08
-1.17924e-09
2.64519e-08
-8.11855e-10
-4.05568e-06
-1.79288e-09
-9.07611e-06
-1.92158e-09
2.97449e-06
-9.38157e-10
3.64424e-06
7.02793e-10
3.1973e-07
2.20333e-09
-1.35634e-06
1.1557e-09
-7.88287e-06
2.7031e-10
-6.98892e-06
-3.05377e-10
-1.38835e-06
-2.34742e-10
-1.79e-07
-1.98208e-09
1.91553e-06
5.37046e-09
2.94101e-06
1.61869e-09
-2.19704e-06
-7.35252e-10
-1.98445e-06
-1.97475e-09
-3.68994e-06
-2.48263e-09
-3.06942e-07
-7.35174e-10
-6.95785e-06
-1.12441e-10
-6.36705e-06
5.69214e-06
1.63601e-05
-1.6658e-05
-3.98305e-06
-2.65645e-06
1.2936e-05
1.44834e-06
-1.29505e-05
-2.21834e-06
2.02285e-05
-7.72386e-06
2.1846e-05
-7.38898e-06
-7.34753e-06
4.94778e-06
-2.39551e-05
1.16004e-05
-1.39886e-05
-1.16278e-06
1.23026e-05
-7.95928e-06
-2.01916e-05
9.04684e-07
-4.73153e-05
1.3692e-05
-1.05227e-05
7.21077e-06
2.48204e-05
-1.11893e-05
1.20795e-05
-1.86819e-06
-1.91308e-05
-6.97722e-06
2.21842e-06
-7.13138e-06
-1.91423e-06
-2.09666e-06
-1.22629e-06
-3.78416e-07
-6.48688e-06
-5.94556e-06
1.30737e-06
1.87902e-05
-1.50187e-05
6.82444e-06
7.89694e-06
-3.50642e-06
1.94568e-05
2.50765e-06
-2.14835e-05
3.37477e-06
-9.62722e-06
-1.12192e-05
2.47041e-07
-9.97899e-06
-1.39006e-05
-1.18981e-06
-2.25802e-06
2.55833e-06
-1.63836e-06
2.10773e-06
6.35143e-06
-4.42335e-06
-5.43155e-06
-7.15512e-08
8.74164e-06
7.68671e-06
9.02299e-06
9.02141e-06
-3.95231e-06
-3.99101e-06
-1.08655e-05
-3.34477e-06
-7.0504e-06
6.22606e-06
4.61375e-06
3.33638e-06
-8.49331e-06
-8.72562e-06
-2.03688e-05
-1.1681e-05
-5.02004e-06
-2.23585e-06
1.02857e-05
4.85985e-06
5.00656e-06
-3.49096e-07
-9.12636e-06
-1.33212e-06
1.85183e-06
1.59781e-06
-2.4976e-07
2.24972e-07
-1.61009e-07
-1.7416e-07
-3.44641e-06
2.23252e-06
7.12352e-07
-5.40471e-06
-7.33796e-06
-7.23958e-07
4.23349e-06
5.68959e-06
9.35166e-06
-8.62158e-07
-8.51164e-06
-1.29439e-06
-4.68417e-06
6.12154e-07
-4.36955e-07
-9.88679e-07
-5.68999e-06
4.0616e-07
-6.5617e-07
6.4585e-07
-5.15326e-07
1.59283e-06
2.57459e-06
-1.8802e-06
-2.01353e-06
6.56654e-07
2.71255e-06
4.84677e-06
2.19967e-06
4.95451e-06
-7.08885e-07
-2.53066e-06
-3.39377e-06
-2.52979e-06
-2.55568e-06
2.85684e-06
6.19514e-07
1.9476e-06
-3.12787e-06
-4.4299e-06
-5.51564e-06
-5.97678e-06
-1.82304e-06
-1.18905e-06
2.84503e-06
2.27007e-06
1.5347e-06
-1.46333e-06
-2.67613e-06
-1.40125e-06
5.26707e-07
7.23136e-07
-5.57605e-07
2.49912e-07
-2.35406e-07
-2.51606e-07
-1.46176e-06
1.40168e-06
1.12488e-07
-4.00112e-06
-1.94258e-06
-6.28209e-07
9.57361e-07
3.84243e-06
2.11047e-06
7.84412e-07
-2.49221e-06
-3.45251e-07
-1.01406e-06
-2.38418e-07
-2.43932e-07
-1.27069e-06
-1.36813e-06
-1.62187e-07
-4.49591e-07
5.10489e-07
1.22155e-06
-5.61436e-07
8.49832e-07
2.1763e-06
2.59755e-06
-8.40812e-07
-9.60152e-07
8.80387e-07
2.30631e-07
-1.90152e-06
-2.81707e-06
-6.45189e-07
8.91647e-07
-4.4502e-07
-4.7478e-07
3.14261e-07
2.00636e-08
-3.47206e-07
4.31949e-07
-1.51302e-06
-2.66161e-07
1.07739e-06
-8.66987e-08
-2.57246e-07
-2.23806e-07
-3.7975e-07
2.39353e-10
3.60001e-09
-0.000129965
-1.4539e-09
2.55419e-11
1.11419e-09
-2.66312e-06
5.37348e-08
5.97507e-06
1.15608e-05
-2.78202e-06
9.24173e-06
)
;

boundaryField
{
    top_fluid_surface
    {
        type            calculated;
        value           nonuniform List<scalar> 
64
(
0
2.59596e-09
2.21176e-09
0
0
0
0
1.7327e-09
4.11158e-10
0
2.51686e-09
0
0
0
1.08546e-09
0
1.23762e-09
4.94926e-09
1.48684e-09
4.48343e-09
0
0
8.96293e-10
2.72877e-09
0
1.75615e-09
4.71127e-10
2.47214e-09
2.63286e-09
0
0
0
0
2.29534e-09
0
4.4772e-10
0
0
0
0
1.57517e-09
0
0
0
0
0
0
1.30879e-09
0
0
0
0
0
1.80456e-09
2.76508e-09
3.45851e-10
0
0
0
0
2.46387e-09
2.90175e-09
2.43902e-09
2.34515e-09
)
;
    }
    bottom_fluid_surface
    {
        type            calculated;
        value           uniform 0;
    }
    lateral_surface_1
    {
        type            calculated;
        value           uniform 0;
    }
    lateral_surface_2
    {
        type            calculated;
        value           uniform 0;
    }
    lateral_surface_3
    {
        type            calculated;
        value           uniform 0;
    }
    lateral_surface_4
    {
        type            calculated;
        value           uniform 0;
    }
}


// ************************************************************************* //
