/*--------------------------------*- C++ -*----------------------------------*\
| =========                 |                                                 |
| \\      /  F ield         | OpenFOAM: The Open Source CFD Toolbox           |
|  \\    /   O peration     | Version:  v1612+                                |
|   \\  /    A nd           | Web:      www.OpenFOAM.com                      |
|    \\/     M anipulation  |                                                 |
\*---------------------------------------------------------------------------*/
FoamFile
{
    version     2.0;
    format      ascii;
    class       volVectorField;
    location    "4.3";
    object      U;
}
// * * * * * * * * * * * * * * * * * * * * * * * * * * * * * * * * * * * * * //

dimensions      [0 1 -1 0 0 0 0];

internalField   nonuniform List<vector> 
320
(
(-2.65247e-06 -8.153e-06 5.70666e-06)
(-9.76591e-07 -5.93873e-06 -1.10586e-05)
(-7.00488e-06 -2.06797e-06 -1.2851e-05)
(1.72996e-06 7.155e-06 -7.60121e-06)
(0.000444115 0.000149414 -5.99782e-05)
(0.000238461 4.55701e-05 0.000140302)
(0.000165079 4.69631e-05 0.000112658)
(-0.000222379 -5.80641e-05 -2.4238e-05)
(9.81851e-05 -4.45403e-05 -8.69459e-05)
(-0.000157803 -5.89149e-05 -0.000126964)
(-0.00031794 -0.000199629 -6.09644e-05)
(-0.000120663 -0.000156832 0.000102706)
(-0.000148992 1.78728e-05 1.51278e-05)
(8.16755e-06 -0.000184175 -1.97351e-05)
(-7.00327e-05 0.000155133 0.000157829)
(0.000157846 0.000159846 -0.000176093)
(2.61921e-08 1.62964e-06 2.27045e-05)
(1.70115e-05 4.08907e-06 2.05416e-05)
(1.64447e-05 -1.34533e-06 8.55976e-06)
(2.14976e-06 1.2774e-06 -8.31636e-06)
(1.18433e-05 -5.31655e-06 -1.01755e-05)
(4.6007e-06 8.67208e-07 1.7855e-05)
(-6.47771e-06 -2.05113e-06 7.84232e-06)
(1.1818e-05 -1.64701e-05 -6.73054e-06)
(-5.84608e-06 8.57648e-06 2.73318e-05)
(-1.31312e-06 -1.9186e-05 1.68911e-05)
(-1.31705e-05 -1.09027e-05 -8.27246e-06)
(-1.43528e-05 -8.47838e-06 1.39341e-06)
(2.8552e-06 -8.32896e-07 1.22005e-05)
(-2.53982e-06 -3.12152e-06 1.70065e-05)
(-7.04926e-06 -7.22001e-07 8.39154e-06)
(2.72938e-06 -3.88278e-06 -7.70841e-06)
(-2.3262e-06 3.86204e-06 -5.88016e-06)
(-2.0406e-06 -7.53026e-07 1.2291e-05)
(4.95342e-06 -7.64365e-07 5.50218e-06)
(-3.61573e-06 5.9738e-06 -5.0166e-06)
(2.7981e-06 -5.16984e-06 1.5068e-05)
(1.04845e-06 8.11786e-06 9.54607e-06)
(6.18981e-06 3.91942e-06 -5.97538e-06)
(5.55844e-06 4.31696e-06 1.79075e-06)
(-1.26597e-06 -6.01543e-06 1.63448e-06)
(-7.91431e-08 -3.56713e-06 -3.28214e-06)
(-3.47673e-06 -1.56748e-06 -2.10125e-06)
(2.10485e-06 3.56968e-06 -2.91829e-06)
(1.62335e-06 -1.20412e-06 3.59846e-06)
(-1.87495e-06 -2.01403e-06 2.05155e-06)
(-3.69721e-06 -8.24186e-07 1.40522e-06)
(2.01017e-06 -2.03565e-06 2.24674e-08)
(-1.17379e-06 2.23939e-06 -1.36752e-06)
(-4.86152e-07 -6.41293e-07 3.13444e-06)
(3.7277e-06 -7.91995e-07 1.37376e-06)
(-1.77611e-06 4.2891e-06 5.96838e-08)
(1.74206e-06 -3.36684e-06 4.4505e-06)
(3.69651e-07 4.07976e-06 2.449e-06)
(3.52464e-06 1.53294e-06 -1.23624e-06)
(3.40286e-06 1.93675e-06 -4.39606e-07)
(-3.76806e-05 -0.000188278 -3.64196e-05)
(0.000162628 0.000160338 -4.09428e-05)
(-2.0322e-05 0.000126102 6.32363e-05)
(-0.000122912 0.000340157 -7.33296e-05)
(9.30432e-05 0.000477234 6.2077e-05)
(0.000134338 -5.37975e-05 0.000334941)
(-1.34183e-05 -6.25489e-05 8.45675e-05)
(0.000115003 -0.000290428 0.000295955)
(-6.23223e-05 -0.000495539 -5.84143e-05)
(-0.000117376 -0.000113755 -1.42825e-05)
(-0.000197897 0.000119644 4.75646e-05)
(-1.44282e-05 -8.56314e-05 0.000140161)
(7.65414e-05 -0.000122975 -5.752e-05)
(-7.64983e-05 -0.000237943 0.000106031)
(8.85732e-05 -0.000268371 2.6286e-05)
(-0.00012473 -7.13481e-05 0.000148953)
(0.000100295 0.000229378 0.000160976)
(0.00021212 0.000442559 -4.58534e-06)
(0.00015141 0.000182967 -0.00016958)
(0.000209405 1.50107e-06 -3.16705e-05)
(-7.99899e-06 -1.52229e-05 -2.20728e-05)
(-4.64714e-06 -8.24075e-06 8.26781e-06)
(4.47018e-06 -9.93065e-06 1.11716e-05)
(3.69235e-06 1.96446e-06 1.29924e-06)
(-7.18364e-06 1.64689e-05 -1.81375e-05)
(4.98313e-06 2.54572e-06 -2.72154e-05)
(2.32986e-06 4.15346e-06 -1.38561e-05)
(-6.44818e-06 -1.28377e-05 -4.39166e-05)
(-1.08617e-06 -2.52012e-05 -6.79958e-06)
(3.87173e-06 -9.2457e-06 1.97848e-05)
(-1.13066e-05 9.20082e-06 -6.06088e-06)
(1.8147e-05 -4.17662e-06 -2.38227e-05)
(9.0561e-06 -8.25826e-06 2.2033e-05)
(-1.17796e-05 2.44097e-06 -1.33104e-05)
(4.03331e-06 -1.22544e-05 -2.40802e-06)
(-1.98594e-05 -6.00435e-06 -7.89597e-06)
(-2.77797e-07 -4.66706e-06 -1.8464e-05)
(4.26319e-06 4.44026e-06 -1.72128e-05)
(-8.00625e-07 6.80034e-06 -2.05943e-06)
(1.93983e-05 7.10859e-06 -7.42932e-06)
(4.26772e-06 5.33253e-06 -1.33004e-05)
(4.7857e-06 2.53763e-07 4.06229e-06)
(-1.08726e-06 8.34123e-06 1.00522e-05)
(-1.47015e-06 5.15188e-06 5.40448e-07)
(3.98143e-06 -5.92533e-06 -1.134e-05)
(-2.69369e-06 1.07859e-06 -1.22376e-05)
(6.03657e-06 -1.21507e-06 -4.80056e-06)
(1.08082e-05 2.38626e-06 -2.15921e-05)
(-2.6305e-07 9.04029e-06 -4.82175e-06)
(-3.02074e-06 5.39115e-06 1.46829e-05)
(7.47831e-06 -5.23311e-06 -4.40067e-06)
(-4.99719e-06 1.36138e-07 -1.55389e-05)
(-2.59775e-06 1.06214e-06 1.3015e-05)
(3.82205e-06 -1.92824e-06 -1.09147e-05)
(-1.9358e-06 2.89225e-06 -2.23835e-06)
(8.22782e-06 3.20017e-06 -5.11064e-06)
(-2.55869e-06 1.32391e-06 -1.35411e-05)
(-3.54777e-06 -3.64275e-06 -9.93215e-06)
(-1.6459e-06 -2.75522e-06 -1.33894e-06)
(-9.17646e-06 -1.8732e-06 -6.68337e-06)
(2.78633e-06 3.22493e-06 -4.615e-06)
(2.68482e-06 8.17313e-07 1.57074e-06)
(-4.59097e-07 4.30967e-06 -5.18989e-07)
(-4.13446e-07 2.55442e-06 5.03655e-07)
(2.53507e-06 -4.03455e-06 -3.1118e-06)
(-1.05145e-06 4.09565e-07 -4.37587e-06)
(3.12286e-06 -1.04366e-06 -2.28425e-06)
(6.07419e-06 1.07335e-06 -5.66205e-06)
(1.40849e-07 5.80559e-06 -8.78286e-07)
(-1.05779e-06 3.48265e-06 1.20335e-06)
(5.42378e-06 -3.65771e-06 -1.88564e-06)
(-2.82558e-06 -3.60403e-07 -4.0589e-06)
(-9.01809e-07 6.42756e-07 2.40692e-06)
(3.21672e-06 -1.05748e-06 -1.94313e-06)
(-5.90767e-07 1.71325e-06 -2.78818e-07)
(5.41843e-06 1.44202e-06 -1.42725e-06)
(-6.20715e-07 2.1513e-07 -2.69097e-06)
(-2.19853e-06 -2.98226e-06 -2.71e-06)
(-6.17988e-07 -1.94247e-06 -4.55253e-07)
(-4.58871e-06 -5.35518e-07 -1.20432e-06)
(-7.36498e-07 -2.57294e-06 3.53139e-07)
(7.61086e-07 -9.9604e-07 -9.65518e-07)
(-1.57793e-06 -5.57106e-07 -1.60057e-06)
(7.757e-07 2.07383e-06 -6.79308e-07)
(4.70205e-07 -6.99735e-07 1.90127e-06)
(-6.2931e-07 -7.15552e-08 1.88428e-06)
(-7.068e-07 -1.11749e-07 5.03798e-07)
(1.50961e-06 -1.16793e-06 -4.37895e-07)
(8.81203e-08 4.11375e-07 -3.96193e-07)
(7.77023e-08 -7.03906e-07 1.17615e-06)
(1.72956e-06 -5.22389e-09 3.02054e-07)
(-7.58188e-07 1.09889e-06 -7.05781e-07)
(1.3393e-06 -9.91491e-07 1.39276e-06)
(5.41272e-07 2.09552e-06 1.20558e-06)
(1.91761e-06 1.0521e-06 -3.90581e-07)
(1.90976e-06 1.4566e-06 6.56824e-07)
(1.73398e-06 1.771e-06 -1.1715e-06)
(7.91659e-07 1.13985e-07 6.74872e-07)
(1.73095e-07 1.7763e-06 8.06984e-07)
(1.1587e-06 7.36247e-07 1.79782e-07)
(1.12244e-06 -1.58477e-06 -7.34437e-07)
(-2.96915e-07 2.79359e-07 -1.14413e-06)
(1.34183e-06 -2.01116e-07 -6.07432e-07)
(2.20823e-06 6.41911e-07 -2.13882e-06)
(1.55115e-07 1.98812e-06 -3.5984e-07)
(-2.11341e-07 1.22187e-06 1.55611e-06)
(2.08146e-06 -1.87356e-06 -5.86018e-07)
(-1.02709e-06 1.96148e-07 -1.6968e-06)
(-5.91664e-07 7.49231e-08 1.36797e-06)
(1.08266e-06 -5.91372e-08 -1.31865e-06)
(-4.7496e-07 9.84532e-07 -7.13816e-07)
(1.97054e-06 5.57498e-07 -1.14074e-06)
(-6.06842e-07 2.12076e-08 -1.51852e-06)
(-8.13181e-07 -1.20445e-06 -1.34734e-06)
(-8.09523e-07 -8.83375e-07 1.02897e-07)
(-2.32375e-06 -2.70029e-07 -4.78138e-07)
(0.000320851 9.63049e-05 -7.47132e-05)
(-6.76566e-07 -8.921e-05 0.000135746)
(0.000131396 5.9506e-05 -9.23481e-05)
(5.91895e-05 -5.78429e-05 7.44396e-05)
(-0.000184761 -1.9406e-05 -0.0001082)
(6.46504e-05 4.04821e-06 -8.63259e-05)
(-0.000290587 8.853e-06 -0.000184173)
(-0.000287178 0.000408581 -5.64403e-05)
(-0.000359243 -5.90001e-05 8.42841e-05)
(-0.000291689 -7.60091e-05 -7.87575e-05)
(-0.00037319 -9.19418e-05 -2.39823e-05)
(-9.71006e-05 -0.000290386 -8.09777e-05)
(-0.000168014 2.14861e-05 -0.000124849)
(3.73105e-05 -0.000163393 -5.93167e-05)
(-0.000160191 -0.000368522 -0.000202708)
(-0.000185554 -0.000119862 4.9416e-05)
(-7.50413e-05 -0.000379766 -8.89556e-05)
(3.13411e-05 -5.99693e-05 -2.61623e-05)
(-3.93143e-06 -0.00033585 -0.000169464)
(7.30581e-05 -0.000132028 -4.43966e-05)
(0.000195197 -0.00031956 -0.000312272)
(6.84984e-06 -0.000434788 0.000107036)
(2.87673e-05 2.93453e-05 0.000173842)
(0.000106875 0.00015238 1.00476e-05)
(-4.87043e-05 0.00020652 -3.83829e-05)
(-0.000128711 0.000155873 -4.8201e-05)
(-7.50173e-05 -1.73059e-05 -9.52775e-05)
(-0.00014741 2.41673e-05 -8.01412e-05)
(2.88217e-05 7.9192e-06 6.06516e-06)
(9.97069e-07 -5.53409e-06 -2.00731e-05)
(-5.26674e-06 -1.07654e-06 1.56258e-05)
(6.80591e-06 -4.91507e-06 -2.33255e-05)
(-9.95545e-06 -3.41258e-06 -2.18121e-05)
(-7.2205e-06 8.73238e-06 9.37558e-06)
(-9.02627e-06 -3.3749e-06 2.55272e-05)
(-2.1133e-05 1.41673e-05 1.76749e-05)
(-1.13282e-05 8.16741e-06 -1.50577e-05)
(-1.55121e-05 -1.01538e-05 2.13071e-05)
(-2.56323e-05 -8.73454e-06 4.98139e-05)
(-1.14089e-05 1.11858e-05 1.58634e-05)
(1.07529e-05 1.57338e-05 -2.71559e-05)
(1.35709e-05 -3.40892e-06 -1.30642e-05)
(5.44494e-06 -6.22613e-06 2.55809e-05)
(-4.69919e-07 -4.9827e-06 -3.79955e-06)
(1.0981e-05 -1.70646e-05 3.51238e-06)
(5.20065e-06 2.18319e-06 2.68224e-06)
(-1.85004e-06 -1.32073e-05 1.13929e-05)
(3.28819e-06 -7.74675e-06 1.44029e-07)
(7.01346e-06 -1.24627e-05 2.37143e-05)
(2.29809e-06 -2.07082e-05 -9.68033e-06)
(-1.43821e-06 4.26478e-06 -2.46145e-05)
(1.25675e-05 4.93569e-06 2.45437e-05)
(8.16505e-06 -1.14252e-05 1.101e-05)
(-3.29863e-06 6.65917e-06 -9.64025e-07)
(8.0228e-06 1.43995e-05 1.66374e-05)
(3.99218e-06 3.88824e-06 4.22657e-06)
(-7.13955e-06 -2.71009e-06 2.35707e-06)
(3.43159e-06 -4.37313e-08 -7.51665e-06)
(-1.54607e-07 -1.87437e-06 8.59678e-06)
(-7.43833e-06 4.89668e-06 -1.44082e-05)
(7.21716e-06 4.47665e-06 -1.74302e-05)
(9.54276e-06 -3.79075e-06 7.15682e-06)
(6.97118e-06 -1.08457e-06 1.9388e-05)
(9.67738e-06 -7.08371e-06 1.07499e-05)
(5.81304e-06 1.33324e-06 -8.58728e-06)
(9.93187e-06 9.61937e-06 1.50252e-05)
(1.6647e-05 -2.43755e-06 3.73937e-05)
(5.10964e-06 -1.45829e-05 6.69621e-06)
(-6.97563e-06 -7.44296e-06 -1.80021e-05)
(-7.72348e-06 2.41602e-06 -8.60469e-06)
(-2.47205e-06 3.16357e-06 1.53295e-05)
(3.21445e-06 1.86734e-06 -1.85207e-06)
(-1.34167e-06 7.42737e-06 -2.18741e-07)
(-1.55138e-06 -1.78764e-06 -3.57394e-07)
(9.68019e-07 6.38089e-06 3.4715e-06)
(-5.18845e-07 1.0665e-06 -2.23156e-06)
(-3.73328e-06 4.96408e-06 9.83773e-06)
(1.64083e-07 6.81885e-06 -7.75983e-06)
(1.92393e-07 -5.79205e-06 -1.67964e-05)
(-8.82832e-06 -3.6572e-06 1.46992e-05)
(-4.78839e-06 4.83194e-06 8.56576e-06)
(-3.53405e-07 -1.31284e-06 4.63067e-07)
(-3.34578e-06 -1.62423e-07 9.92316e-06)
(1.35734e-06 1.993e-06 -1.4748e-06)
(-3.04969e-06 -1.41448e-06 8.45105e-07)
(2.05004e-06 1.03742e-07 -4.52634e-06)
(5.38578e-07 -6.78185e-07 2.99788e-06)
(-3.61209e-06 2.24998e-06 -4.74825e-06)
(4.647e-06 2.47481e-06 -3.01661e-06)
(5.68579e-06 -2.81043e-06 -7.81348e-08)
(3.43691e-06 -6.75985e-07 4.30307e-06)
(5.57136e-06 -4.18281e-06 3.41229e-06)
(3.28864e-06 -2.36397e-07 -1.0918e-06)
(4.92541e-06 5.08982e-06 4.43671e-06)
(9.42202e-06 -7.42681e-07 7.04943e-06)
(3.10939e-06 -7.77311e-06 2.61464e-06)
(-4.15668e-06 -3.9733e-06 -4.6446e-06)
(-4.34648e-06 1.23789e-06 -2.72337e-06)
(-1.74732e-07 1.42775e-06 3.0524e-06)
(3.35693e-06 3.54817e-07 -3.72107e-07)
(-5.72747e-07 3.49458e-06 1.24545e-06)
(-1.07903e-06 -1.89799e-06 8.40066e-07)
(6.71556e-07 3.6718e-06 2.46086e-06)
(-2.5375e-07 6.47161e-07 3.23741e-07)
(-2.24638e-06 3.33477e-06 3.1741e-06)
(4.41224e-07 4.61471e-06 -4.20097e-07)
(6.5506e-07 -3.39683e-06 -1.87588e-06)
(-4.39756e-06 -3.53714e-06 4.25728e-06)
(-3.09719e-06 1.53564e-06 9.71394e-07)
(1.20303e-07 -4.53487e-07 8.52376e-08)
(-1.60825e-06 7.93169e-07 1.96769e-06)
(1.44898e-06 1.64275e-06 5.60702e-07)
(-2.19761e-06 -6.44551e-07 2.60402e-07)
(1.52575e-06 3.39135e-07 -1.06319e-06)
(4.6491e-07 -4.36324e-07 9.70465e-07)
(-1.25157e-06 6.65885e-07 -7.55464e-07)
(2.65426e-06 9.88347e-07 -1.3182e-06)
(2.15686e-06 -8.2968e-07 1.26497e-06)
(2.49265e-06 -4.60768e-08 2.14913e-06)
(3.27625e-06 -1.71752e-06 1.58947e-06)
(2.35989e-06 1.0764e-07 -3.14113e-07)
(3.10453e-06 1.3372e-06 1.15559e-06)
(3.89819e-06 -7.75349e-07 3.35187e-06)
(1.68727e-06 -3.12346e-06 1.06843e-06)
(-1.21339e-06 -2.14799e-06 -1.40816e-06)
(-1.68258e-06 6.42029e-07 -7.3007e-07)
(-1.19316e-07 1.11123e-06 1.81532e-06)
(1.10342e-06 5.50003e-07 -6.78868e-07)
(-2.18916e-07 2.08926e-06 -2.87419e-07)
(-5.029e-07 -2.58168e-07 -2.67893e-07)
(4.2969e-07 2.0005e-06 3.52891e-07)
(2.0009e-07 3.94795e-07 -4.85232e-07)
(-9.73422e-07 1.32545e-06 8.10152e-07)
(-4.27676e-08 1.71131e-06 -1.18395e-06)
(-2.46645e-07 -1.12338e-06 -2.04904e-06)
(-1.72364e-06 -6.88196e-07 1.09289e-06)
(-9.56049e-07 8.4942e-07 7.08976e-07)
(3.30235e-07 -5.39721e-08 2.82105e-07)
(-1.26655e-07 3.82909e-07 9.97835e-07)
(9.83169e-07 4.65269e-07 -1.22245e-07)
(4.7764e-05 0.000291314 -5.61709e-05)
(-0.000123328 3.572e-06 0.000177542)
(0.000293291 0.00015045 0.000154567)
(-0.000112379 -0.000355218 0.000143561)
(7.91982e-06 1.74805e-05 1.03682e-05)
(1.49581e-06 8.75671e-06 -2.09529e-05)
(1.96873e-05 2.65737e-06 -2.01496e-05)
(8.09281e-07 -1.52865e-05 -1.53174e-05)
)
;

boundaryField
{
    top_fluid_surface
    {
        type            pressureInletOutletVelocity;
        value           nonuniform List<vector> 
64
(
(0 0 -5.99782e-05)
(0.000238461 4.55701e-05 0.000140302)
(0.000165079 4.69631e-05 0.000112658)
(0 0 -2.4238e-05)
(0 0 -8.69459e-05)
(0 0 -0.000126964)
(0 0 -6.09644e-05)
(-0.000120663 -0.000156832 0.000102706)
(-0.000148992 1.78728e-05 1.51278e-05)
(0 0 -1.97351e-05)
(-7.00327e-05 0.000155133 0.000157829)
(0 0 -0.000176093)
(0 0 -3.64196e-05)
(0 0 -4.09428e-05)
(-2.0322e-05 0.000126102 6.32363e-05)
(0 0 -7.33296e-05)
(9.30432e-05 0.000477234 6.2077e-05)
(0.000134338 -5.37975e-05 0.000334941)
(-1.34183e-05 -6.25489e-05 8.45675e-05)
(0.000115003 -0.000290428 0.000295955)
(0 0 -5.84143e-05)
(0 0 -1.42825e-05)
(-0.000197897 0.000119644 4.75646e-05)
(-1.44282e-05 -8.56314e-05 0.000140161)
(0 0 -5.752e-05)
(-7.64983e-05 -0.000237943 0.000106031)
(8.85732e-05 -0.000268371 2.6286e-05)
(-0.00012473 -7.13481e-05 0.000148953)
(0.000100295 0.000229378 0.000160976)
(0 0 -4.58534e-06)
(0 0 -0.00016958)
(0 0 -3.16705e-05)
(0 0 -7.47132e-05)
(-6.76566e-07 -8.921e-05 0.000135746)
(0 0 -9.23481e-05)
(5.91895e-05 -5.78429e-05 7.44396e-05)
(0 0 -0.0001082)
(0 0 -8.63259e-05)
(0 0 -0.000184173)
(0 0 -5.64403e-05)
(-0.000359243 -5.90001e-05 8.42841e-05)
(0 0 -7.87575e-05)
(0 0 -2.39823e-05)
(0 0 -8.09777e-05)
(0 0 -0.000124849)
(0 0 -5.93167e-05)
(0 0 -0.000202708)
(-0.000185554 -0.000119862 4.9416e-05)
(0 0 -8.89556e-05)
(0 0 -2.61623e-05)
(0 0 -0.000169464)
(0 0 -4.43966e-05)
(0 0 -0.000312272)
(6.84984e-06 -0.000434788 0.000107036)
(2.87673e-05 2.93453e-05 0.000173842)
(0.000106875 0.00015238 1.00476e-05)
(0 0 -3.83829e-05)
(0 0 -4.8201e-05)
(0 0 -9.52775e-05)
(0 0 -8.01412e-05)
(0 0 -5.61709e-05)
(-0.000123328 3.572e-06 0.000177542)
(0.000293291 0.00015045 0.000154567)
(-0.000112379 -0.000355218 0.000143561)
)
;
    }
    bottom_fluid_surface
    {
        type            noSlip;
    }
    lateral_surface_1
    {
        type            noSlip;
    }
    lateral_surface_2
    {
        type            noSlip;
    }
    lateral_surface_3
    {
        type            noSlip;
    }
    lateral_surface_4
    {
        type            noSlip;
    }
}


// ************************************************************************* //
