/*--------------------------------*- C++ -*----------------------------------*\
| =========                 |                                                 |
| \\      /  F ield         | OpenFOAM: The Open Source CFD Toolbox           |
|  \\    /   O peration     | Version:  v1612+                                |
|   \\  /    A nd           | Web:      www.OpenFOAM.com                      |
|    \\/     M anipulation  |                                                 |
\*---------------------------------------------------------------------------*/
FoamFile
{
    version     2.0;
    format      ascii;
    class       volScalarField;
    location    "6.1";
    object      p;
}
// * * * * * * * * * * * * * * * * * * * * * * * * * * * * * * * * * * * * * //

dimensions      [1 -1 -2 0 0 0 0];

internalField   nonuniform List<scalar> 
320
(
14724.8
14724.8
14724.8
14724.8
4.97779
4.97685
4.97566
4.97682
4.97652
4.97665
4.97684
4.97857
4.97984
4.97989
4.97713
4.9778
4914.9
4914.84
4914.82
4914.84
4914.83
4914.86
4914.85
4914.86
4914.91
4914.84
4914.84
4914.89
14724.8
14724.8
14724.8
14724.8
14724.8
14724.8
14724.8
14724.8
14724.8
14724.8
14724.8
14724.8
24534.8
24534.8
24534.8
24534.8
24534.8
24534.8
24534.8
24534.8
24534.8
24534.8
24534.8
24534.8
24534.8
24534.8
24534.8
24534.8
4.97708
4.97769
4.97637
4.97614
4.97489
4.97573
4.97618
4.97653
4.97642
4.97666
4.97645
4.97643
4.97902
4.97697
4.9772
4.97991
4.97696
4.97769
4.9778
4.97851
4914.9
4914.9
4914.85
4914.87
4914.83
4914.82
4914.83
4914.83
4914.87
4914.9
4914.87
4914.85
4914.88
4914.85
4914.87
4914.86
4914.86
4914.84
4914.85
4914.87
14724.8
14724.8
14724.8
14724.8
14724.8
14724.8
14724.8
14724.8
14724.8
14724.8
14724.8
14724.8
14724.8
14724.8
14724.8
14724.8
14724.8
14724.8
14724.8
14724.8
24534.8
24534.8
24534.8
24534.8
24534.8
24534.8
24534.8
24534.8
24534.8
24534.8
24534.8
24534.8
24534.8
24534.8
24534.8
24534.8
24534.8
24534.8
24534.8
24534.8
34344.8
34344.8
34344.8
34344.8
34344.8
34344.8
34344.8
34344.8
34344.8
34344.8
34344.8
34344.8
34344.8
34344.8
34344.8
34344.8
34344.8
34344.8
34344.8
34344.8
34344.8
34344.8
34344.8
34344.8
34344.8
34344.8
34344.8
34344.8
34344.8
34344.8
34344.8
34344.8
34344.8
34344.8
34344.8
34344.8
4.97925
4.97743
4.97719
4.97671
4.97599
4.97568
4.97557
4.97576
4.97689
4.97672
4.97677
4.97688
4.97745
4.97627
4.97623
4.97643
4.97624
4.97534
4.97615
4.97547
4.97741
4.97803
4.98016
4.97832
4.97847
4.97828
4.97933
4.98004
4914.91
4914.9
4914.88
4914.86
4914.85
4914.83
4914.88
4914.88
4914.85
4914.86
4914.86
4914.89
4914.89
4914.89
4914.89
4914.91
4914.91
4914.88
4914.83
4914.88
4914.91
4914.91
4914.88
4914.89
4914.9
4914.88
4914.88
4914.86
14724.8
14724.8
14724.8
14724.8
14724.8
14724.8
14724.8
14724.8
14724.8
14724.8
14724.8
14724.8
14724.8
14724.8
14724.8
14724.8
14724.8
14724.8
14724.8
14724.8
14724.8
14724.8
14724.8
14724.8
14724.8
14724.8
14724.8
14724.8
24534.8
24534.8
24534.8
24534.8
24534.8
24534.8
24534.8
24534.8
24534.8
24534.8
24534.8
24534.8
24534.8
24534.8
24534.8
24534.8
24534.8
24534.8
24534.8
24534.8
24534.8
24534.8
24534.8
24534.8
24534.8
24534.8
24534.8
24534.8
34344.8
34344.8
34344.8
34344.8
34344.8
34344.8
34344.8
34344.8
34344.8
34344.8
34344.8
34344.8
34344.8
34344.8
34344.8
34344.8
34344.8
34344.8
34344.8
34344.8
34344.8
34344.8
34344.8
34344.8
34344.8
34344.8
34344.8
34344.8
4.97774
4.97728
4.9769
4.97714
4914.86
4914.83
4914.83
4914.82
)
;

boundaryField
{
    top_fluid_surface
    {
        type            calculated;
        value           nonuniform List<scalar> 
64
(
-9.01661e-09
0
0
0
0
0
0
-5.81441e-10
-3.01136e-08
0
0
-1.49315e-08
-8.50898e-09
-3.00033e-08
0
-2.70645e-09
0
0
0
0
-1.82011e-09
0
0
0
0
0
0
0
0
0
0
0
-1.73427e-08
-1.32931e-08
-2.21567e-09
0
0
0
-3.26668e-08
-5.66119e-09
0
-6.81534e-09
-2.73798e-09
-4.81821e-09
-1.89019e-08
-2.19891e-11
-8.80711e-09
-6.78855e-09
-5.00454e-08
-5.67344e-09
0
-3.53838e-08
-5.89598e-08
-6.49301e-09
0
-1.66953e-09
0
-1.9441e-10
-7.17403e-09
-3.69728e-09
-2.31976e-09
0
0
0
)
;
    }
    bottom_fluid_surface
    {
        type            calculated;
        value           nonuniform List<scalar> 
64
(
39249.8
39249.8
39249.8
39249.8
39249.8
39249.8
39249.8
39249.8
39249.8
39249.8
39249.8
39249.8
39249.8
39249.8
39249.8
39249.8
39249.8
39249.8
39249.8
39249.8
39249.8
39249.8
39249.8
39249.8
39249.8
39249.8
39249.8
39249.8
39249.8
39249.8
39249.8
39249.8
39249.8
39249.8
39249.8
39249.8
39249.8
39249.8
39249.8
39249.8
39249.8
39249.8
39249.8
39249.8
39249.8
39249.8
39249.8
39249.8
39249.8
39249.8
39249.8
39249.8
39249.8
39249.8
39249.8
39249.8
39249.8
39249.8
39249.8
39249.8
39249.8
39249.8
39249.8
39249.8
)
;
    }
    lateral_surface_1
    {
        type            calculated;
        value           nonuniform List<scalar> 
40
(
4.97925
4.97743
4.97719
4.97671
4.97599
4.97568
4.97557
4.98004
4914.91
4914.9
4914.88
4914.86
4914.85
4914.83
4914.88
4914.86
14724.8
14724.8
14724.8
14724.8
14724.8
14724.8
14724.8
14724.8
24534.8
24534.8
24534.8
24534.8
24534.8
24534.8
24534.8
24534.8
34344.8
34344.8
34344.8
34344.8
34344.8
34344.8
34344.8
34344.8
)
;
    }
    lateral_surface_2
    {
        type            calculated;
        value           nonuniform List<scalar> 
40
(
4.97627
4.97623
4.97643
4.97624
4.97534
4.97615
4.97547
4.97741
4914.89
4914.89
4914.91
4914.91
4914.88
4914.83
4914.88
4914.91
14724.8
14724.8
14724.8
14724.8
14724.8
14724.8
14724.8
14724.8
24534.8
24534.8
24534.8
24534.8
24534.8
24534.8
24534.8
24534.8
34344.8
34344.8
34344.8
34344.8
34344.8
34344.8
34344.8
34344.8
)
;
    }
    lateral_surface_3
    {
        type            calculated;
        value           nonuniform List<scalar> 
40
(
4.97557
4.97576
4.97689
4.97672
4.97677
4.97688
4.97745
4.97627
4914.88
4914.88
4914.85
4914.86
4914.86
4914.89
4914.89
4914.89
14724.8
14724.8
14724.8
14724.8
14724.8
14724.8
14724.8
14724.8
24534.8
24534.8
24534.8
24534.8
24534.8
24534.8
24534.8
24534.8
34344.8
34344.8
34344.8
34344.8
34344.8
34344.8
34344.8
34344.8
)
;
    }
    lateral_surface_4
    {
        type            calculated;
        value           nonuniform List<scalar> 
40
(
4.97741
4.97803
4.98016
4.97832
4.97847
4.97828
4.97933
4.98004
4914.91
4914.91
4914.88
4914.89
4914.9
4914.88
4914.88
4914.86
14724.8
14724.8
14724.8
14724.8
14724.8
14724.8
14724.8
14724.8
24534.8
24534.8
24534.8
24534.8
24534.8
24534.8
24534.8
24534.8
34344.8
34344.8
34344.8
34344.8
34344.8
34344.8
34344.8
34344.8
)
;
    }
}


// ************************************************************************* //
