/*--------------------------------*- C++ -*----------------------------------*\
| =========                 |                                                 |
| \\      /  F ield         | OpenFOAM: The Open Source CFD Toolbox           |
|  \\    /   O peration     | Version:  v1612+                                |
|   \\  /    A nd           | Web:      www.OpenFOAM.com                      |
|    \\/     M anipulation  |                                                 |
\*---------------------------------------------------------------------------*/
FoamFile
{
    version     2.0;
    format      ascii;
    class       volScalarField;
    location    "6.1";
    object      p_rgh;
}
// * * * * * * * * * * * * * * * * * * * * * * * * * * * * * * * * * * * * * //

dimensions      [1 -1 -2 0 0 0 0];

internalField   nonuniform List<scalar> 
320
(
-9800.22
-9800.21
-9800.22
-9800.22
-0.00525104
0.00419561
0.00729572
0.000186363
0.0014079
0.00102705
0.0019515
-0.0011296
-0.0103274
0.00210554
0.0117022
-0.00884311
-9799.88
-9799.96
-9799.97
-9799.93
-9799.92
-9799.87
-9799.85
-9799.82
-9799.84
-9799.92
-9800.04
-9799.85
-9800.2
-9800.21
-9800.22
-9800.22
-9800.22
-9800.22
-9800.22
-9800.22
-9800.2
-9800.21
-9800.2
-9800.2
-9800.21
-9800.21
-9800.21
-9800.21
-9800.2
-9800.21
-9800.21
-9800.22
-9800.22
-9800.21
-9800.21
-9800.21
-9800.21
-9800.21
-9800.2
-9800.2
-0.00739001
-0.0119461
0.00200963
-0.00245092
0.0121945
0.0179446
0.0152159
0.0177207
-0.0035544
0.00131708
0.00536872
0.0108111
0.00710941
0.00697958
0.00312806
0.00929812
0.00650892
0.00147798
0.000630282
0.00196581
-9799.89
-9799.83
-9799.97
-9799.86
-9800.03
-9800.06
-9800.04
-9800.06
-9799.86
-9799.94
-9800.04
-9800.05
-9799.85
-9800.01
-9800.02
-9800.03
-9800.03
-9799.92
-9799.94
-9800
-9800.19
-9800.2
-9800.2
-9800.22
-9800.21
-9800.21
-9800.21
-9800.2
-9800.21
-9800.19
-9800.2
-9800.19
-9800.21
-9800.2
-9800.19
-9800.19
-9800.19
-9800.21
-9800.2
-9800.19
-9800.2
-9800.21
-9800.2
-9800.21
-9800.21
-9800.21
-9800.21
-9800.21
-9800.21
-9800.2
-9800.2
-9800.2
-9800.21
-9800.2
-9800.2
-9800.2
-9800.2
-9800.2
-9800.2
-9800.2
-9800.21
-9800.21
-9800.21
-9800.21
-9800.2
-9800.21
-9800.21
-9800.21
-9800.21
-9800.21
-9800.21
-9800.21
-9800.2
-9800.2
-9800.2
-9800.2
-9800.2
-9800.21
-9800.2
-9800.21
-9800.21
-9800.21
-9800.21
-9800.21
-9800.21
-9800.2
-9800.2
-9800.2
-9800.21
-9800.2
-9800.2
-9800.2
-9800.2
-9800.2
-9800.2
-9800.2
-0.00897192
-0.00847524
-0.0015111
0.00488193
-0.00154298
0.0030641
-0.0079549
-0.0034034
0.00107902
-0.00404959
-0.000772254
-0.00385475
-0.0113513
-0.00114908
-0.00485362
-0.00564837
-0.0151487
-0.00491427
0.00161622
-0.0111725
-0.0148422
-0.00603608
0.00204091
-0.00117973
0.00258816
0.000839231
-0.00467578
-0.00480463
-9799.86
-9799.86
-9799.88
-9800.01
-9799.95
-9799.94
-9799.81
-9799.86
-9799.96
-9799.82
-9799.85
-9799.88
-9799.82
-9799.91
-9799.88
-9799.9
-9799.84
-9799.88
-9799.92
-9799.82
-9799.82
-9799.9
-9799.99
-9799.9
-9799.94
-9799.9
-9799.84
-9799.79
-9800.2
-9800.2
-9800.21
-9800.2
-9800.22
-9800.22
-9800.23
-9800.22
-9800.21
-9800.22
-9800.22
-9800.2
-9800.2
-9800.2
-9800.2
-9800.19
-9800.2
-9800.21
-9800.22
-9800.21
-9800.2
-9800.19
-9800.19
-9800.19
-9800.19
-9800.2
-9800.2
-9800.21
-9800.2
-9800.2
-9800.2
-9800.2
-9800.21
-9800.21
-9800.21
-9800.21
-9800.22
-9800.22
-9800.21
-9800.21
-9800.2
-9800.2
-9800.2
-9800.2
-9800.2
-9800.21
-9800.21
-9800.2
-9800.2
-9800.19
-9800.19
-9800.2
-9800.19
-9800.2
-9800.2
-9800.21
-9800.2
-9800.2
-9800.21
-9800.2
-9800.21
-9800.21
-9800.22
-9800.21
-9800.21
-9800.21
-9800.21
-9800.21
-9800.2
-9800.2
-9800.2
-9800.2
-9800.2
-9800.21
-9800.21
-9800.2
-9800.2
-9800.2
-9800.2
-9800.2
-9800.2
-9800.2
-9800.2
-9800.21
-0.00186324
0.0047411
0.00300944
0.0088414
-9799.84
-9799.94
-9799.94
-9799.97
)
;

boundaryField
{
    top_fluid_surface
    {
        type            totalPressure;
        rho             rho;
        psi             none;
        gamma           1;
        p0              uniform 0;
        value           nonuniform List<scalar> 
64
(
-9.01661e-09
0
0
0
0
0
0
-5.81441e-10
-3.01136e-08
0
0
-1.49315e-08
-8.50898e-09
-3.00033e-08
0
-2.70645e-09
0
0
0
0
-1.82011e-09
0
0
0
0
0
0
0
0
0
0
0
-1.73427e-08
-1.32931e-08
-2.21567e-09
0
0
0
-3.26668e-08
-5.66119e-09
0
-6.81534e-09
-2.73798e-09
-4.81821e-09
-1.89019e-08
-2.19891e-11
-8.80711e-09
-6.78855e-09
-5.00454e-08
-5.67344e-09
0
-3.53838e-08
-5.89598e-08
-6.49301e-09
0
-1.66953e-09
0
-1.9441e-10
-7.17403e-09
-3.69728e-09
-2.31976e-09
0
0
0
)
;
    }
    bottom_fluid_surface
    {
        type            fixedFluxPressure;
        gradient        uniform 0;
        value           nonuniform List<scalar> 
64
(
-9800.21
-9800.21
-9800.21
-9800.21
-9800.2
-9800.21
-9800.21
-9800.21
-9800.21
-9800.21
-9800.21
-9800.21
-9800.2
-9800.2
-9800.2
-9800.2
-9800.2
-9800.21
-9800.2
-9800.21
-9800.21
-9800.21
-9800.21
-9800.21
-9800.21
-9800.2
-9800.2
-9800.2
-9800.21
-9800.2
-9800.2
-9800.2
-9800.2
-9800.2
-9800.2
-9800.2
-9800.2
-9800.2
-9800.21
-9800.2
-9800.21
-9800.21
-9800.22
-9800.21
-9800.21
-9800.21
-9800.21
-9800.21
-9800.2
-9800.2
-9800.2
-9800.2
-9800.2
-9800.21
-9800.21
-9800.2
-9800.2
-9800.2
-9800.2
-9800.2
-9800.2
-9800.2
-9800.2
-9800.21
)
;
    }
    lateral_surface_1
    {
        type            fixedFluxPressure;
        gradient        uniform 0;
        value           nonuniform List<scalar> 
40
(
-0.00897192
-0.00847524
-0.0015111
0.00488193
-0.00154298
0.0030641
-0.0079549
-0.00480463
-9799.86
-9799.86
-9799.88
-9800.01
-9799.95
-9799.94
-9799.81
-9799.79
-9800.2
-9800.2
-9800.21
-9800.2
-9800.22
-9800.22
-9800.23
-9800.21
-9800.2
-9800.2
-9800.2
-9800.2
-9800.21
-9800.21
-9800.21
-9800.21
-9800.2
-9800.2
-9800.21
-9800.2
-9800.21
-9800.21
-9800.22
-9800.21
)
;
    }
    lateral_surface_2
    {
        type            fixedFluxPressure;
        gradient        uniform 0;
        value           nonuniform List<scalar> 
40
(
-0.00114908
-0.00485362
-0.00564837
-0.0151487
-0.00491427
0.00161622
-0.0111725
-0.0148422
-9799.91
-9799.88
-9799.9
-9799.84
-9799.88
-9799.92
-9799.82
-9799.82
-9800.2
-9800.2
-9800.19
-9800.2
-9800.21
-9800.22
-9800.21
-9800.2
-9800.2
-9800.2
-9800.2
-9800.2
-9800.21
-9800.21
-9800.2
-9800.2
-9800.2
-9800.2
-9800.2
-9800.2
-9800.21
-9800.21
-9800.2
-9800.2
)
;
    }
    lateral_surface_3
    {
        type            fixedFluxPressure;
        gradient        uniform 0;
        value           nonuniform List<scalar> 
40
(
-0.0079549
-0.0034034
0.00107902
-0.00404959
-0.000772254
-0.00385475
-0.0113513
-0.00114908
-9799.81
-9799.86
-9799.96
-9799.82
-9799.85
-9799.88
-9799.82
-9799.91
-9800.23
-9800.22
-9800.21
-9800.22
-9800.22
-9800.2
-9800.2
-9800.2
-9800.21
-9800.21
-9800.22
-9800.22
-9800.21
-9800.21
-9800.2
-9800.2
-9800.22
-9800.21
-9800.21
-9800.21
-9800.21
-9800.21
-9800.2
-9800.2
)
;
    }
    lateral_surface_4
    {
        type            fixedFluxPressure;
        gradient        uniform 0;
        value           nonuniform List<scalar> 
40
(
-0.0148422
-0.00603608
0.00204091
-0.00117973
0.00258816
0.000839231
-0.00467578
-0.00480463
-9799.82
-9799.9
-9799.99
-9799.9
-9799.94
-9799.9
-9799.84
-9799.79
-9800.2
-9800.19
-9800.19
-9800.19
-9800.19
-9800.2
-9800.2
-9800.21
-9800.2
-9800.19
-9800.19
-9800.2
-9800.19
-9800.2
-9800.2
-9800.21
-9800.2
-9800.2
-9800.2
-9800.2
-9800.2
-9800.2
-9800.2
-9800.21
)
;
    }
}


// ************************************************************************* //
