/*--------------------------------*- C++ -*----------------------------------*\
| =========                 |                                                 |
| \\      /  F ield         | OpenFOAM: The Open Source CFD Toolbox           |
|  \\    /   O peration     | Version:  v1612+                                |
|   \\  /    A nd           | Web:      www.OpenFOAM.com                      |
|    \\/     M anipulation  |                                                 |
\*---------------------------------------------------------------------------*/
FoamFile
{
    version     2.0;
    format      ascii;
    class       surfaceScalarField;
    location    "6.1";
    object      phi;
}
// * * * * * * * * * * * * * * * * * * * * * * * * * * * * * * * * * * * * * //

dimensions      [0 3 -1 0 0 0 0];

internalField   nonuniform List<scalar> 
816
(
-3.05379e-06
-9.63e-06
3.2757e-06
-6.79076e-06
-1.24031e-05
2.8589e-05
2.7868e-06
5.5526e-06
-2.06152e-06
9.62939e-06
-1.89472e-05
-7.8938e-06
-1.46934e-07
4.88442e-06
6.12654e-06
-1.25797e-05
-1.80074e-06
7.53847e-06
1.13168e-05
-2.22264e-05
0.000570475
-0.000334068
-2.69059e-06
-0.000189928
0.0002177
0.000467045
-3.11307e-06
-8.94034e-05
7.06723e-05
-1.25257e-05
1.09834e-05
-0.000177367
0.000366881
-3.87335e-05
-5.55162e-07
0.0001089
-0.00012573
-0.000126763
-2.93753e-06
0.000222667
-0.000205847
-1.15811e-05
-0.000173714
-2.06328e-05
-0.000101139
-0.000118562
-0.000167295
-0.000229937
0.000300959
1.29453e-05
-3.49582e-06
-0.000118845
0.000107669
0.000252285
-1.17421e-06
4.87244e-05
0.000160464
0.000130589
-1.7253e-05
-0.000119975
0.000311894
-0.000315826
8.34707e-06
-7.52142e-05
-4.0498e-05
1.95121e-06
-0.000233965
-9.11526e-05
1.07603e-05
3.78944e-06
-2.26845e-05
-1.55957e-07
1.06703e-05
1.68285e-05
-2.43911e-05
4.49318e-06
1.2701e-05
4.79498e-06
1.96846e-07
-5.64091e-07
2.19159e-05
-2.50343e-06
9.26465e-06
-7.95608e-06
-2.03285e-06
-8.53521e-07
-4.65583e-06
8.3873e-07
-4.64796e-06
2.16231e-06
-2.3421e-05
6.94194e-06
1.36249e-05
7.04678e-06
-1.68696e-05
1.41343e-06
1.80726e-05
9.52153e-06
1.29419e-05
-1.33137e-05
6.86076e-06
9.35155e-06
-3.33975e-05
6.92885e-06
2.74592e-05
1.71849e-05
-3.12025e-05
3.78323e-06
7.72055e-06
3.15003e-07
2.47031e-05
4.68445e-06
-1.12544e-05
-1.53468e-05
6.26929e-06
5.17564e-06
-6.37443e-06
-1.47707e-07
-1.19631e-05
-9.42846e-07
-1.15236e-05
-1.05066e-05
-3.15791e-06
1.97154e-06
4.39842e-07
-1.73987e-06
-1.20137e-05
2.52241e-06
3.69362e-06
2.99771e-06
-1.80721e-06
-2.5062e-06
3.75689e-07
-2.31305e-06
-1.13394e-05
-2.27933e-06
-9.30802e-06
-2.56789e-06
-7.91033e-06
-1.1761e-06
-2.847e-06
6.72951e-06
6.29271e-06
-1.60922e-06
-1.5986e-05
-7.79633e-06
-1.09392e-05
-1.08304e-05
-1.37991e-05
-3.2698e-06
-8.73524e-07
1.06349e-05
-2.66103e-06
-7.66653e-06
-5.18701e-06
-3.50066e-06
-2.4898e-06
-5.96212e-06
2.68765e-06
-2.99994e-06
-3.65663e-06
1.30055e-06
4.0328e-06
-1.46716e-06
3.28235e-06
-4.47641e-06
2.02984e-07
3.22252e-06
1.18606e-06
-7.16593e-07
4.64078e-06
4.20637e-06
-4.22656e-06
-2.96801e-07
-7.32626e-07
-3.99437e-06
-7.35959e-06
-1.59251e-06
-1.72942e-06
1.22156e-06
-1.14933e-06
-7.05006e-06
6.88562e-08
2.31704e-06
1.55744e-06
-4.05223e-07
-2.71106e-07
3.72698e-07
-9.98577e-07
-1.85748e-06
-1.3738e-06
-5.01439e-06
-3.35215e-06
-1.99013e-06
-3.48377e-07
-2.78523e-06
-8.27046e-07
4.67177e-06
1.14385e-06
-7.93804e-07
-5.02487e-06
-6.2914e-06
-4.74412e-06
-5.85505e-06
-1.45468e-06
-4.08258e-06
-1.17263e-07
-1.28439e-06
3.22966e-06
-2.86388e-06
-2.61288e-06
-2.58402e-06
9.47529e-05
-3.70362e-05
1.95115e-05
-0.000112889
0.00041757
1.38108e-06
-3.23765e-05
0.000236529
5.52145e-06
-1.40098e-05
0.000236546
1.5384e-05
-6.55296e-05
0.000163628
1.35793e-05
-0.000237017
-0.000224243
-6.58201e-05
1.08768e-05
-0.000157672
-0.000291262
5.56714e-07
-0.000279624
-0.00061397
-3.77459e-06
-0.000222963
-0.000401715
-2.41206e-06
-0.000124676
0.000126052
-0.000168179
-0.000248889
-0.000283999
-1.62483e-05
5.1396e-08
-0.000219314
-0.000254694
8.58682e-06
-0.000500852
-0.000141058
-9.22931e-05
-0.000130244
-0.000254309
7.46906e-06
-0.000205444
0.000279875
3.62782e-06
-0.000370364
-0.000329551
0.000114643
-1.76637e-05
5.38655e-06
-0.000175154
1.14342e-05
-0.000262583
-0.000196039
-2.67501e-06
-0.000105915
-0.000226326
-1.30054e-06
-0.00010392
2.85198e-07
-0.000251872
-0.000130202
-1.32879e-05
1.09783e-06
1.60011e-05
6.35546e-06
-3.91129e-07
-1.58587e-05
-2.90127e-06
1.74337e-06
-1.35532e-05
1.42734e-05
-7.78237e-07
3.90697e-06
1.22001e-05
1.48048e-05
3.67823e-05
-1.7849e-05
-2.4265e-05
2.13789e-06
4.55416e-05
-1.82539e-06
-6.89742e-06
3.19202e-05
-2.67256e-05
-2.95599e-05
5.36527e-05
-3.3676e-05
-2.28724e-05
-4.18203e-06
-4.2662e-06
1.33326e-05
-1.36649e-05
1.24556e-06
-1.34703e-05
-3.06612e-06
2.97576e-05
-1.5514e-06
-1.9953e-05
3.93215e-05
-1.95103e-05
4.762e-06
-3.46559e-05
-3.28258e-06
5.70524e-06
3.02671e-05
-1.73128e-05
2.3067e-05
1.81116e-05
-2.71707e-05
-7.80877e-06
1.65814e-06
2.386e-05
1.43119e-05
-1.47917e-05
3.39439e-05
-1.74732e-05
-8.6187e-06
8.00561e-06
-1.23002e-05
-1.99218e-06
-1.70924e-06
-6.20023e-06
2.64693e-05
-1.21404e-05
-2.04145e-05
6.1917e-06
2.07836e-06
7.33406e-06
-4.79077e-06
-2.04235e-06
-8.0646e-06
-4.66747e-07
-4.97108e-06
-5.24147e-06
-8.53521e-06
-1.93252e-06
1.87079e-06
-2.72392e-06
-6.19165e-06
1.71668e-05
1.23264e-05
1.15317e-05
1.92103e-06
2.05186e-05
4.87118e-06
5.91352e-06
1.45358e-05
1.63842e-05
1.56564e-05
2.45139e-05
1.97895e-05
9.05324e-06
-2.10585e-06
2.24354e-06
-7.0778e-06
-6.4558e-06
2.46402e-06
6.43044e-06
9.00718e-07
1.33283e-05
-8.72094e-07
1.08018e-05
1.79807e-05
1.02978e-05
-3.02513e-06
-1.54468e-05
9.18888e-07
-1.62117e-06
1.3724e-05
7.31013e-06
-7.77732e-06
8.1146e-06
1.11478e-05
4.96385e-06
-3.47237e-07
1.08237e-05
-5.35319e-06
7.55285e-06
1.50684e-05
7.72561e-06
5.61701e-06
4.33765e-06
2.89957e-06
2.38918e-06
-6.52072e-07
-1.33704e-06
1.1512e-05
7.33635e-06
1.21174e-05
3.50113e-06
1.14152e-06
2.54909e-06
-2.70381e-06
-1.69978e-06
-2.58474e-06
-9.87698e-07
-3.62871e-06
2.5724e-07
-5.15772e-06
-1.08631e-06
1.52162e-07
-1.95231e-06
-3.15573e-06
5.25668e-06
6.81728e-06
7.20595e-06
7.97473e-07
7.46848e-06
2.04718e-06
3.53196e-06
4.70925e-06
8.63095e-06
9.43444e-06
7.83768e-06
1.11519e-05
5.68992e-06
-7.90739e-07
1.09024e-06
-4.49197e-06
-6.64481e-07
1.06902e-06
3.34085e-06
3.61884e-07
3.88939e-06
-4.52688e-07
6.11209e-06
5.89353e-06
5.90521e-06
-1.93773e-06
-3.67315e-06
9.31868e-07
-8.09478e-07
4.14027e-06
3.46399e-06
-4.43286e-06
2.38118e-06
6.16182e-06
3.24453e-06
-3.14883e-07
3.97463e-06
-3.56922e-06
4.09165e-06
4.50026e-06
4.71592e-06
3.3103e-06
1.9754e-06
1.88018e-06
1.53135e-06
-2.85441e-07
-1.20848e-06
2.68989e-06
4.64458e-06
6.86099e-06
-8.55293e-07
-2.7189e-06
1.45441e-06
-1.52958e-06
1.55034e-06
6.31958e-07
2.66695e-07
-3.13105e-06
-2.61585e-07
1.84378e-06
-6.86696e-07
3.3368e-06
-3.45198e-06
7.83418e-07
1.45844e-07
-3.34129e-06
-1.1988e-06
7.7807e-07
-3.75673e-07
-3.66487e-06
2.53931e-07
3.98045e-07
-6.21395e-07
-7.95431e-07
-9.40052e-07
-4.28362e-07
-2.58918e-06
-6.7443e-07
2.81152e-07
-9.26229e-07
1.15789e-06
-1.08431e-06
-1.45417e-06
-3.08414e-06
-3.04889e-06
-2.54658e-07
-3.8471e-07
-9.52981e-07
-1.87452e-06
-3.01965e-07
8.98596e-07
1.09137e-06
-1.31803e-06
-1.57433e-06
3.88057e-08
-8.412e-07
-1.67542e-06
-5.08869e-07
-5.64792e-07
-1.17146e-06
2.46246e-06
3.46731e-06
1.16679e-06
1.49955e-06
2.19693e-06
4.0753e-06
4.85816e-06
4.37997e-06
2.40884e-06
1.24684e-06
-1.26422e-06
7.80517e-07
2.23865e-06
3.68729e-07
-3.01705e-07
3.20847e-06
3.35975e-06
6.05158e-08
6.35788e-07
1.94856e-07
2.56925e-06
-2.03716e-06
2.97627e-06
1.68456e-06
-3.1457e-08
-1.04284e-06
1.91584e-06
2.29355e-06
2.2781e-06
6.47161e-07
1.34239e-06
3.42405e-07
2.19676e-06
2.92243e-06
0.000200892
-6.37419e-05
-4.54383e-06
0.000390854
1.37477e-05
0.000469045
5.63773e-06
0.000220913
1.47649e-06
0.000112313
2.4287e-06
-0.000237951
-3.71725e-06
0.000199675
1.40769e-05
0.000157866
3.11703e-06
-8.30916e-05
-7.60931e-06
-0.000154741
-7.0449e-06
-0.000285735
-4.20384e-06
-0.000219388
-1.26695e-07
-4.41546e-05
-6.55042e-06
-2.29495e-05
2.0366e-06
-8.35066e-05
3.63306e-06
-7.09432e-05
3.27516e-06
1.32039e-05
2.84371e-06
-5.42652e-05
1.29845e-05
-0.000307226
6.54304e-06
-0.000280287
2.23706e-05
0.000362253
2.33741e-06
0.000253444
4.092e-06
0.000158071
-1.50013e-05
-1.99273e-05
9.59135e-08
-0.000161941
-0.000163561
-0.000249608
1.15201e-05
-0.000139734
-6.59674e-06
-1.42421e-05
4.86817e-06
-6.96407e-06
-1.18539e-05
-1.12281e-07
1.92996e-05
1.55727e-05
-9.70645e-06
3.98723e-07
2.99911e-05
-2.17463e-05
2.02112e-05
-3.33856e-05
-1.54452e-05
2.19213e-05
-3.33086e-05
2.1501e-05
-1.56914e-05
-1.41188e-05
1.88069e-05
-8.91888e-06
-3.95366e-05
1.14887e-05
-5.95924e-05
2.04368e-05
-9.21072e-06
5.39091e-06
4.22205e-06
-1.22724e-05
1.97258e-05
-2.46664e-06
-1.94667e-05
-3.25449e-06
3.86413e-06
-6.12753e-06
-1.77709e-05
-2.5675e-06
-7.37774e-06
-5.06028e-06
-1.09791e-05
-6.73303e-06
-1.47283e-05
3.03156e-05
-3.561e-05
1.66094e-05
8.02106e-06
-1.43083e-05
2.70853e-05
-6.25508e-06
-2.60339e-05
-2.43705e-06
1.44019e-06
-4.43931e-06
1.19476e-05
1.58743e-06
-2.69635e-05
-2.65385e-05
-7.7711e-06
9.92245e-06
-6.68071e-06
-1.86862e-06
8.60348e-06
-7.80027e-06
-4.24257e-06
-4.17345e-08
1.37356e-05
7.88847e-06
9.55021e-06
1.04503e-05
-5.6376e-06
-7.30795e-06
-1.55858e-05
-3.15189e-06
-8.34814e-06
1.17909e-05
8.7524e-06
4.77921e-06
-1.61149e-05
-8.88907e-06
-2.61097e-05
-1.0514e-05
-5.35027e-06
-5.62204e-06
1.80997e-06
5.16054e-06
8.93048e-06
1.03349e-06
-8.92124e-06
2.16362e-06
1.85914e-06
3.30718e-06
-8.67709e-06
9.30964e-07
-3.99981e-06
1.93385e-06
-4.68763e-06
4.59515e-06
-6.21816e-06
-1.43978e-05
-1.66258e-05
-4.30741e-06
2.86355e-06
4.73335e-06
1.2713e-05
-1.43441e-06
-1.21016e-05
2.20116e-06
7.88646e-07
7.7399e-06
5.05934e-06
5.11803e-06
-1.22094e-05
-1.14751e-05
-4.53295e-06
4.79663e-06
-2.29211e-06
-1.74034e-06
3.11453e-06
-4.92864e-06
-2.03709e-06
-5.5661e-07
4.21314e-06
4.94935e-06
2.09363e-06
6.59489e-06
-4.44361e-07
-4.48588e-06
-4.4421e-06
-2.70486e-06
-2.91988e-06
6.04093e-06
2.02467e-06
3.94716e-06
-5.42286e-06
-4.21144e-06
-6.80247e-06
-5.74149e-06
-2.72754e-06
-3.52903e-06
6.87764e-07
3.34739e-06
2.07011e-06
6.21094e-07
-2.83599e-06
1.36368e-06
6.96668e-07
1.45481e-06
-2.881e-06
2.58775e-08
-1.6387e-06
1.35172e-06
-2.54027e-06
3.19208e-06
-1.84629e-06
-8.12962e-06
-5.21606e-06
-2.7081e-06
6.91703e-07
3.2971e-06
3.10112e-06
-6.06774e-07
-3.48738e-06
1.10759e-06
9.83286e-07
4.51309e-06
4.29372e-07
2.57667e-06
-3.41309e-06
-4.10435e-06
-2.8141e-06
2.71932e-06
-1.02795e-06
-3.02495e-06
-4.76965e-07
1.04324e-06
2.99825e-06
-1.45523e-06
-8.84875e-07
2.65525e-06
1.31486e-06
-1.11231e-06
-2.60283e-06
-1.1373e-06
9.29814e-07
3.399e-07
7.75021e-07
1.28563e-06
3.04738e-07
3.27641e-07
1.3905e-06
-3.82054e-06
-1.39158e-06
6.764e-07
-5.18344e-07
1.11801e-06
1.88326e-06
1.38593e-06
0.000157515
0.000166295
-5.23973e-06
-0.00011334
-6.81756e-06
0.000354862
-1.51691e-06
6.2312e-06
7.91549e-06
1.80641e-05
-9.51181e-06
9.58206e-06
)
;

boundaryField
{
    top_fluid_surface
    {
        type            calculated;
        value           nonuniform List<scalar> 
64
(
-0.000243476
0.000139207
0.000266524
4.14436e-05
6.6756e-05
7.83388e-06
2.5645e-05
-9.04209e-05
-0.00045329
5.82011e-05
0.000508573
-0.000325125
-0.000240944
-0.000465882
8.27677e-05
-0.000118569
0.000503253
0.000747441
0.000621827
0.000780265
-0.000121311
1.16624e-05
0.000251896
0.000469013
0.000136759
0.000292261
0.000149676
0.000406568
0.000334614
6.83459e-05
3.9157e-05
0.000122605
-0.00036551
-0.000320966
-0.000104606
0.000238802
2.09915e-05
0.000124334
-0.000435412
-0.000183541
0.000101833
-0.000197367
-8.87638e-05
-0.000181306
-0.000409252
-3.04665e-05
-0.000229928
-0.000228529
-0.000602026
-0.000176147
4.4837e-05
-0.000465098
-0.000631998
-0.000227503
0.000149367
-8.28796e-05
5.17142e-05
-1.9112e-05
-0.000222545
-0.000172749
-0.000110244
0.000232576
0.000168066
0.00034705
)
;
    }
    bottom_fluid_surface
    {
        type            calculated;
        value           uniform 0;
    }
    lateral_surface_1
    {
        type            calculated;
        value           uniform 0;
    }
    lateral_surface_2
    {
        type            calculated;
        value           uniform 0;
    }
    lateral_surface_3
    {
        type            calculated;
        value           uniform 0;
    }
    lateral_surface_4
    {
        type            calculated;
        value           uniform 0;
    }
}


// ************************************************************************* //
