/*--------------------------------*- C++ -*----------------------------------*\
| =========                 |                                                 |
| \\      /  F ield         | OpenFOAM: The Open Source CFD Toolbox           |
|  \\    /   O peration     | Version:  v1612+                                |
|   \\  /    A nd           | Web:      www.OpenFOAM.com                      |
|    \\/     M anipulation  |                                                 |
\*---------------------------------------------------------------------------*/
FoamFile
{
    version     2.0;
    format      ascii;
    class       volScalarField;
    location    "8";
    object      alpha.water;
}
// * * * * * * * * * * * * * * * * * * * * * * * * * * * * * * * * * * * * * //

dimensions      [0 0 0 0 0 0 0];

internalField   nonuniform List<scalar> 
320
(
1
1
1
1
1.84923e-05
1.95579e-05
1.93618e-05
2.0234e-05
1.8979e-05
2.03239e-05
1.91577e-05
1.9865e-05
2.01587e-05
1.88441e-05
1.63243e-05
1.82926e-05
0.999978
0.999976
0.999978
0.999982
0.999976
0.999979
0.999978
0.999975
0.999976
0.99998
0.999989
0.999979
1
1
1
1
1
1
1
1
1
1
1
1
1
1
1
1
1
1
1
1
1
1
1
1
1
1
1
1
1.85932e-05
1.95877e-05
1.80451e-05
1.92318e-05
1.65641e-05
1.53219e-05
1.57599e-05
1.49909e-05
1.97713e-05
1.9782e-05
1.59394e-05
1.46303e-05
1.7823e-05
1.62857e-05
1.51147e-05
1.56493e-05
1.64544e-05
1.74904e-05
1.89178e-05
1.65153e-05
0.999977
0.999977
0.999988
0.999981
0.999991
0.999992
0.999992
0.999992
0.99998
0.999986
0.999993
0.999991
0.999977
0.999988
0.999991
0.99999
0.99999
0.999985
0.999976
0.999988
1
1
1
1
1
1
1
1
1
1
1
1
1
1
1
1
1
1
1
1
1
1
1
1
1
1
1
1
1
1
1
1
1
1
1
1
1
1
1
1
1
1
1
1
1
1
1
1
1
1
1
1
1
1
1
1
1
1
1
1
1
1
1
1
1
1
1
1
1
1
1
1
1
1
1
1
1.88411e-05
1.95399e-05
2.00806e-05
1.80451e-05
1.81194e-05
1.78848e-05
2.22506e-05
1.89632e-05
1.86485e-05
1.94677e-05
1.98654e-05
1.94911e-05
2.19659e-05
1.90067e-05
2.06386e-05
2.1239e-05
1.93076e-05
1.85589e-05
1.81396e-05
1.83323e-05
1.82706e-05
1.85649e-05
2.10977e-05
1.84029e-05
1.85352e-05
1.91976e-05
1.93236e-05
2.15091e-05
0.999983
0.999978
0.99998
0.999987
0.999984
0.999984
0.999977
0.999983
0.999985
0.999978
0.999979
0.999979
0.999978
0.999984
0.999981
0.999977
0.999977
0.999979
0.999982
0.999978
0.999978
0.999978
0.999974
0.999978
0.999981
0.999977
0.999979
0.999973
1
1
1
1
1
1
1
1
1
1
1
1
1
1
1
1
1
1
1
1
1
1
1
1
1
1
1
1
1
1
1
1
1
1
1
1
1
1
1
1
1
1
1
1
1
1
1
1
1
1
1
1
1
1
1
1
1
1
1
1
1
1
1
1
1
1
1
1
1
1
1
1
1
1
1
1
1
1
1
1
1
1
1
1
2.01723e-05
1.95724e-05
1.89842e-05
2.0106e-05
0.999977
0.999975
0.999978
0.999972
)
;

boundaryField
{
    top_fluid_surface
    {
        type            inletOutlet;
        inletValue      uniform 0;
        value           nonuniform List<scalar> 
64
(
0
0
0
0
1.8979e-05
0
0
0
0
0
1.63243e-05
0
0
0
1.80451e-05
0
1.65641e-05
1.53219e-05
1.57599e-05
1.49909e-05
0
0
1.59394e-05
1.46303e-05
1.7823e-05
1.62857e-05
1.51147e-05
1.56493e-05
1.64544e-05
1.74904e-05
0
1.65153e-05
0
0
0
1.80451e-05
1.81194e-05
1.78848e-05
0
0
1.86485e-05
0
0
0
0
0
0
0
0
1.85589e-05
1.81396e-05
0
0
0
0
0
1.85352e-05
0
0
0
0
0
0
0
)
;
    }
    bottom_fluid_surface
    {
        type            zeroGradient;
    }
    lateral_surface_1
    {
        type            zeroGradient;
    }
    lateral_surface_2
    {
        type            zeroGradient;
    }
    lateral_surface_3
    {
        type            zeroGradient;
    }
    lateral_surface_4
    {
        type            zeroGradient;
    }
}


// ************************************************************************* //
