/*--------------------------------*- C++ -*----------------------------------*\
| =========                 |                                                 |
| \\      /  F ield         | OpenFOAM: The Open Source CFD Toolbox           |
|  \\    /   O peration     | Version:  v1612+                                |
|   \\  /    A nd           | Web:      www.OpenFOAM.com                      |
|    \\/     M anipulation  |                                                 |
\*---------------------------------------------------------------------------*/
FoamFile
{
    version     2.0;
    format      ascii;
    class       surfaceScalarField;
    location    "8";
    object      alphaPhi;
}
// * * * * * * * * * * * * * * * * * * * * * * * * * * * * * * * * * * * * * //

dimensions      [0 3 -1 0 0 0 0];

internalField   nonuniform List<scalar> 
816
(
-1.25707e-06
-1.00994e-05
4.74563e-06
-1.33197e-05
-1.63916e-05
3.63191e-05
6.92482e-06
2.60785e-06
-8.99264e-06
3.37833e-06
-5.16448e-06
-7.3833e-06
2.21006e-06
1.37148e-06
5.89068e-06
-1.21551e-05
-6.44768e-06
7.51963e-06
4.02201e-06
-5.61995e-06
5.97688e-10
1.56565e-10
-5.97953e-06
-4.17964e-09
3.93414e-09
2.96439e-09
-4.92404e-06
6.96388e-11
1.24718e-09
2.173e-09
-6.08086e-07
-2.12078e-09
5.76406e-09
4.14375e-09
1.06355e-06
2.98449e-09
5.86251e-10
2.73863e-09
-5.57523e-06
2.59448e-09
-1.43566e-09
5.87676e-09
-9.43492e-05
-1.47349e-09
4.67278e-09
2.99576e-09
-7.02594e-06
5.18305e-09
-2.85321e-09
6.16602e-09
-9.33721e-05
5.25504e-09
-3.19263e-09
-1.27906e-09
9.13611e-08
8.10477e-09
5.31767e-09
5.04554e-10
4.37817e-06
3.53126e-09
-3.15756e-09
-3.87989e-09
7.99055e-11
2.353e-09
-7.92749e-09
2.43945e-06
-3.9591e-09
3.68198e-10
2.2994e-05
-4.86724e-06
-3.04136e-05
-3.02363e-06
1.42311e-05
3.05507e-05
-3.4013e-05
9.87178e-06
8.85474e-06
2.29348e-06
-3.28447e-06
-3.85224e-06
3.28986e-05
-2.76622e-06
2.13856e-05
-6.59743e-07
-1.04832e-05
6.00412e-06
-1.62781e-05
5.30666e-06
-1.41196e-05
2.87519e-06
-2.61676e-05
5.33691e-06
2.31968e-05
6.00293e-06
-3.40091e-05
6.57996e-06
1.30111e-05
1.5381e-05
-5.27096e-06
-1.07391e-05
1.60132e-06
4.7231e-06
-4.48254e-05
2.24061e-05
3.52471e-05
2.4362e-05
-2.50817e-05
1.30664e-05
6.3421e-06
-1.05213e-05
5.44052e-05
8.47414e-06
-2.24564e-05
-1.62317e-05
2.61888e-06
7.85497e-06
-1.13851e-05
1.68209e-06
-1.48858e-05
-1.06022e-06
-1.82309e-05
-1.39755e-05
-1.06201e-05
1.46778e-06
-1.27401e-06
-2.07753e-06
-1.96348e-05
5.78389e-06
8.34278e-06
-2.71769e-07
-4.84845e-06
-6.27576e-06
-5.86074e-06
2.2074e-06
-1.35976e-05
-6.44948e-06
-1.32134e-05
-3.08696e-06
-1.54944e-05
-5.77463e-06
-1.04277e-05
-2.13469e-06
6.42452e-06
-6.95022e-06
-2.06597e-05
-9.38237e-06
-1.82875e-05
-1.35517e-05
-1.22336e-05
-4.95103e-06
5.35553e-06
2.33752e-05
-1.18835e-06
-8.27968e-06
-1.14163e-07
-8.12588e-07
-1.14654e-06
-5.96644e-06
2.90283e-06
-6.81112e-06
-5.35196e-06
3.69625e-06
1.78892e-06
-5.5418e-06
2.24717e-06
-3.97792e-06
1.5761e-06
1.18069e-06
1.07382e-06
-3.44175e-06
4.16159e-06
2.97177e-06
-6.4039e-06
4.81562e-07
-1.0514e-06
-5.03596e-06
-1.0252e-05
-6.10434e-06
-2.23138e-06
8.33924e-07
-1.77817e-06
-1.05662e-05
-1.04095e-08
4.07966e-06
-4.6e-07
1.6412e-08
-1.61665e-06
-2.22027e-06
-1.83665e-06
3.26471e-07
-3.97941e-06
-7.21236e-06
-4.40104e-06
-2.13296e-06
-3.03521e-06
-5.87242e-06
-5.14664e-06
4.03052e-06
-1.64872e-06
-3.09931e-06
-6.26533e-06
-1.04696e-05
-5.99299e-06
-7.80756e-06
-2.93783e-06
-3.44057e-06
2.28751e-06
-5.56561e-07
7.00647e-06
-9.40342e-07
-1.36554e-06
-3.19028e-06
-4.6817e-09
4.28228e-09
9.50282e-07
-3.77084e-09
5.75407e-11
3.97242e-08
-3.7811e-09
-2.83556e-10
6.44838e-11
-9.55821e-10
1.84527e-09
2.13081e-06
-6.53508e-10
4.38825e-09
3.16535e-06
-5.28211e-09
-5.05017e-09
1.13676e-09
4.10942e-11
-4.15281e-09
-2.29176e-09
-1.68131e-06
-5.32729e-09
-9.72981e-09
-1.18587e-07
-7.73625e-09
-5.77106e-09
-1.27387e-06
-2.30363e-09
1.06159e-08
3.65272e-06
-1.0646e-08
-4.69511e-09
5.82359e-09
-7.16458e-06
-5.47796e-09
3.26595e-10
7.89676e-11
-5.49767e-09
3.11449e-09
-3.8209e-06
-7.62967e-10
1.7784e-09
-9.22779e-07
-1.19288e-09
-1.6458e-09
-1.32304e-06
-3.96735e-09
-5.16308e-09
-3.97578e-09
-1.12065e-06
-4.74185e-09
-6.9884e-09
3.24119e-07
-2.62928e-09
-6.03543e-09
6.7739e-07
-3.10845e-09
-2.25065e-09
1.98947e-06
-1.64344e-09
-2.30907e-06
-5.24032e-09
-1.67326e-09
-1.75396e-05
9.84934e-06
8.49642e-06
6.55068e-06
9.85094e-06
-2.59974e-05
-2.17783e-06
9.50816e-06
-9.53696e-07
1.4053e-05
6.22591e-06
-1.45259e-06
8.84467e-06
2.42887e-05
5.95898e-05
-3.3316e-05
-3.19597e-05
1.92996e-06
6.9465e-05
-1.1503e-05
-1.83327e-05
5.94908e-05
-4.44834e-05
-4.83404e-05
8.36925e-05
-4.9566e-05
-2.67025e-05
-5.4097e-06
-5.08934e-06
3.07952e-05
-1.14261e-05
-1.90672e-05
-1.83334e-05
-4.58924e-06
6.61874e-05
-1.20732e-05
-2.80347e-05
6.96873e-05
-3.52432e-05
9.32814e-06
-4.80847e-05
-3.37257e-06
3.51508e-06
4.30557e-05
-2.26526e-05
2.58842e-05
4.46689e-05
-4.31269e-05
-2.65243e-05
-2.80537e-06
5.77257e-05
3.1191e-06
-2.72279e-05
6.08293e-05
-2.60451e-05
-1.93072e-05
1.19909e-05
-9.22909e-06
-3.36172e-07
-4.18515e-06
8.47061e-07
5.16104e-05
-2.01045e-05
-2.74653e-05
6.48129e-06
-1.94703e-07
5.17491e-06
-3.04907e-06
-7.315e-06
-1.22284e-05
-1.01719e-06
-7.65041e-06
1.05366e-06
-1.22851e-05
-5.27635e-06
-5.58218e-07
-5.34027e-06
-8.39775e-06
2.70753e-05
1.84836e-05
1.71539e-05
2.67471e-06
3.11323e-05
7.62593e-06
1.1368e-05
2.67034e-05
2.37847e-05
2.55105e-05
3.73739e-05
2.62904e-05
1.39563e-05
-2.80915e-06
2.46986e-06
-1.52125e-05
-4.91813e-06
1.22865e-05
1.03685e-05
2.95481e-06
2.90534e-05
5.71664e-06
1.84169e-05
3.07566e-05
1.76742e-05
-4.58944e-06
-2.08114e-05
2.12431e-06
-2.03626e-06
2.0371e-05
1.07307e-05
-1.45528e-05
2.01089e-05
2.34959e-05
1.35785e-05
9.31444e-07
2.50851e-05
-1.15518e-06
1.47077e-05
2.72217e-05
1.48525e-05
9.63188e-06
5.73109e-06
1.01463e-05
1.34307e-06
-1.58767e-06
4.8516e-06
2.34801e-05
1.07912e-05
1.84579e-05
4.17437e-06
-8.02181e-08
2.25456e-06
-2.07743e-06
-4.01367e-06
-3.90803e-06
-1.16439e-06
-4.7003e-06
2.63518e-06
-6.99766e-06
-2.57956e-06
-7.24902e-07
-3.73308e-06
-4.44885e-06
8.97521e-06
1.01214e-05
9.85804e-06
1.27196e-06
1.15037e-05
3.34082e-06
6.4947e-06
8.68398e-06
1.23288e-05
1.42711e-05
1.2291e-05
1.50596e-05
7.98519e-06
-9.71356e-07
4.60037e-07
-8.90869e-06
3.97093e-07
6.41091e-06
5.16063e-06
1.58552e-06
8.2643e-06
3.04316e-06
9.78218e-06
9.98091e-06
9.52419e-06
-3.34588e-06
-4.74255e-06
1.06932e-06
-1.30093e-06
6.33557e-06
5.71457e-06
-7.80846e-06
5.93728e-06
1.27319e-05
7.9339e-06
5.14159e-07
8.04346e-06
-1.77054e-06
7.93645e-06
8.65748e-06
8.19555e-06
4.61314e-06
2.61807e-06
5.8633e-06
3.58198e-07
-6.01317e-07
1.9012e-06
6.09692e-06
6.5375e-06
1.11797e-05
-7.75881e-07
-2.90135e-06
1.49585e-06
-3.18905e-06
3.35802e-06
-7.1318e-07
-1.17527e-06
-4.0618e-06
4.44935e-07
1.78494e-06
-2.22051e-06
4.46811e-06
-5.83347e-06
2.2492e-06
5.49345e-08
-5.43952e-06
-3.33194e-06
9.83844e-07
-5.27332e-07
-5.91082e-06
9.09387e-07
-1.08157e-06
-7.43526e-07
-2.41769e-06
3.49989e-07
-2.09596e-06
-3.4242e-06
-7.28088e-07
-3.38675e-07
-3.1128e-06
1.17997e-06
-2.69232e-06
-1.61582e-06
-4.80436e-06
-3.91399e-06
-4.34924e-07
6.81685e-07
-7.59133e-07
-1.26019e-06
1.01624e-06
6.09191e-07
1.11556e-06
-7.13565e-07
-3.33399e-06
9.31137e-08
-1.52411e-06
-2.50613e-06
-1.70932e-06
-1.07271e-06
-1.27802e-06
3.5252e-06
5.01382e-06
2.08675e-06
2.23456e-06
4.12724e-06
5.57056e-06
7.91934e-06
6.07712e-06
3.85056e-06
9.93271e-07
-2.61255e-06
3.06836e-06
3.79054e-06
1.02942e-06
1.20992e-06
5.14785e-06
5.52179e-06
8.38219e-08
1.49665e-06
4.97898e-07
4.29409e-06
-3.58089e-06
5.98821e-06
4.01651e-06
-1.91914e-07
-1.67983e-07
3.76637e-06
4.27511e-06
3.30788e-06
2.33716e-06
1.19439e-06
2.53691e-06
3.32594e-06
5.10773e-06
-7.72998e-11
-4.44391e-09
-1.55404e-06
-4.53665e-10
-1.15588e-06
3.01548e-09
1.63961e-06
-9.58085e-11
4.16281e-10
-2.1612e-09
-1.20888e-06
-1.05433e-08
-1.2579e-06
9.00668e-09
4.04726e-06
5.09606e-09
-6.96429e-08
1.84825e-10
-1.71357e-06
-4.14907e-10
2.40705e-07
-2.11337e-09
1.1679e-06
-1.84549e-09
-3.17589e-06
5.60925e-10
-4.82879e-06
6.38529e-10
3.87213e-07
4.14583e-09
-8.83075e-07
8.96077e-09
6.76546e-07
5.76609e-09
1.6219e-06
4.69477e-09
-1.68132e-07
2.61777e-09
8.40848e-07
-9.21137e-10
1.46779e-07
-6.33408e-10
-3.04024e-06
-6.08879e-09
-1.33552e-07
-8.87857e-10
6.80289e-07
-3.16403e-09
2.39586e-06
-3.22195e-09
1.02979e-05
-3.67172e-09
-1.75211e-05
-8.46612e-09
3.83865e-05
-8.15735e-06
1.1355e-05
-2.03334e-05
-9.39195e-06
4.52438e-06
1.0278e-05
2.46444e-05
-1.52095e-05
1.96609e-06
5.17342e-05
-2.50019e-05
3.4201e-05
-4.25785e-05
-1.72153e-05
3.35218e-05
-5.94528e-05
2.30014e-05
-2.06113e-05
-2.29874e-05
2.56142e-05
-1.21003e-05
-5.44041e-05
1.372e-05
-7.18108e-05
1.77797e-05
-1.13421e-05
1.20514e-05
-1.69554e-05
-1.3441e-05
2.63418e-05
-6.46737e-06
-2.32394e-05
-4.24614e-06
-1.13173e-05
-6.46673e-07
-3.51102e-05
1.67232e-07
-1.07673e-05
-7.94602e-06
-1.12992e-05
-1.3218e-05
-3.61856e-05
3.37647e-05
-5.06576e-05
1.12626e-05
-2.64992e-06
-4.85562e-06
2.19274e-05
3.11844e-06
-3.0413e-05
-9.11571e-06
-9.23842e-06
-1.89255e-05
-3.81988e-06
-1.44248e-05
-3.55097e-05
-4.82721e-05
-1.02547e-05
1.76369e-05
-5.91823e-06
-8.15292e-06
5.15872e-06
-1.71132e-05
-7.26034e-06
-1.08993e-06
2.34262e-05
1.20544e-05
1.57144e-05
1.93024e-05
-5.97988e-06
-1.31739e-05
-2.69759e-05
-5.93891e-06
-1.06938e-05
1.4692e-05
1.26032e-05
6.87372e-06
-2.28096e-05
-6.50992e-06
-3.21519e-05
-1.00648e-05
-5.31308e-06
-7.36714e-06
-7.37384e-06
7.19441e-06
1.17781e-05
4.96636e-06
-1.06793e-05
4.3721e-06
-5.03516e-06
2.74033e-06
-1.58156e-05
-3.19133e-07
-5.59672e-06
5.17613e-06
-6.06265e-06
8.12076e-06
-1.56417e-05
-1.94052e-05
-2.31407e-05
-6.92075e-06
-1.56281e-06
3.26417e-06
1.05825e-05
1.43123e-06
-1.37298e-05
6.51863e-06
-4.14066e-06
9.85378e-06
-2.27309e-06
9.68686e-06
-1.6865e-05
-2.09273e-05
-5.66846e-06
8.70207e-06
-2.3834e-06
-4.35014e-06
1.76359e-06
-9.61775e-06
-3.14434e-06
-7.60939e-07
7.57096e-06
7.70737e-06
3.51069e-06
1.13849e-05
4.62776e-07
-7.58477e-06
-7.99785e-06
-4.44771e-06
-3.9647e-06
8.21915e-06
3.27602e-06
5.02618e-06
-7.28329e-06
-3.68569e-06
-8.3945e-06
-5.58446e-06
-2.96345e-06
-4.67895e-06
-1.87624e-06
4.82464e-06
2.29919e-06
2.96328e-06
-3.65835e-06
2.02774e-06
-1.07654e-06
1.06082e-06
-5.34404e-06
-3.55307e-07
-3.12334e-06
2.84316e-06
-3.55532e-06
4.47512e-06
-4.55321e-06
-1.08486e-05
-7.83511e-06
-3.97362e-06
-5.323e-07
2.53355e-06
2.29893e-06
9.7202e-07
-4.0025e-06
2.82179e-06
-1.54391e-07
5.14274e-06
-2.61321e-06
4.39812e-06
-4.90793e-06
-7.81696e-06
-4.19286e-06
5.15492e-06
-3.16062e-06
-6.21203e-06
-1.14481e-06
1.2956e-06
5.27697e-06
-2.72771e-06
-1.67271e-06
3.84269e-06
2.13512e-06
-1.78376e-07
-2.15006e-06
-9.80201e-07
1.31831e-06
1.46494e-06
1.59903e-06
1.77034e-06
1.30927e-07
8.57113e-07
2.28484e-06
-5.54919e-06
-2.07999e-06
5.5265e-08
3.37173e-07
2.50958e-06
2.44888e-06
2.65185e-06
-3.95662e-09
6.03517e-09
6.29079e-07
5.45527e-10
-5.0939e-06
-3.93081e-10
-4.75511e-06
-3.50047e-06
3.45343e-06
1.96528e-05
-9.94492e-06
1.74341e-05
)
;

boundaryField
{
    top_fluid_surface
    {
        type            calculated;
        value           nonuniform List<scalar> 
64
(
0
0
0
0
3.74607e-10
0
0
0
0
0
7.97464e-09
0
0
0
1.18656e-09
0
6.2617e-09
1.0772e-08
1.03108e-08
1.2723e-08
0
0
1.09239e-08
1.27521e-08
1.72013e-09
8.63025e-09
1.07745e-08
9.86702e-09
7.84038e-09
3.61163e-09
0
8.1032e-09
0
0
0
1.62368e-09
1.36373e-09
9.92022e-10
0
0
9.78793e-10
0
0
0
0
0
0
0
0
1.91372e-10
7.44173e-10
0
0
0
0
0
1.1042e-09
0
0
0
0
0
0
0
)
;
    }
    bottom_fluid_surface
    {
        type            calculated;
        value           uniform 0;
    }
    lateral_surface_1
    {
        type            calculated;
        value           uniform 0;
    }
    lateral_surface_2
    {
        type            calculated;
        value           uniform 0;
    }
    lateral_surface_3
    {
        type            calculated;
        value           uniform 0;
    }
    lateral_surface_4
    {
        type            calculated;
        value           uniform 0;
    }
}


// ************************************************************************* //
