/*--------------------------------*- C++ -*----------------------------------*\
| =========                 |                                                 |
| \\      /  F ield         | OpenFOAM: The Open Source CFD Toolbox           |
|  \\    /   O peration     | Version:  v1612+                                |
|   \\  /    A nd           | Web:      www.OpenFOAM.com                      |
|    \\/     M anipulation  |                                                 |
\*---------------------------------------------------------------------------*/
FoamFile
{
    version     2.0;
    format      ascii;
    class       volScalarField;
    location    "8";
    object      p;
}
// * * * * * * * * * * * * * * * * * * * * * * * * * * * * * * * * * * * * * //

dimensions      [1 -1 -2 0 0 0 0];

internalField   nonuniform List<scalar> 
320
(
14724.8
14724.8
14724.8
14724.8
4.9957
4.99651
4.99613
4.99694
4.99691
4.99472
4.99825
4.99359
4.99744
4.99629
4.99626
4.99578
4914.88
4914.89
4914.9
4914.93
4914.85
4914.88
4914.89
4914.86
4914.9
4914.9
4914.87
4914.88
14724.8
14724.8
14724.8
14724.8
14724.8
14724.8
14724.8
14724.8
14724.8
14724.8
14724.8
14724.8
24534.8
24534.8
24534.8
24534.8
24534.8
24534.8
24534.8
24534.8
24534.8
24534.8
24534.8
24534.8
24534.8
24534.8
24534.8
24534.8
4.99591
4.99527
4.99548
4.99524
4.99502
4.99585
4.99669
4.9976
4.99776
4.99849
4.99807
4.99791
4.99716
4.99688
4.99574
4.99609
4.99622
4.99563
4.9967
4.9972
4914.88
4914.9
4914.89
4914.91
4914.89
4914.87
4914.88
4914.87
4914.91
4914.94
4914.88
4914.86
4914.83
4914.86
4914.86
4914.87
4914.88
4914.87
4914.88
4914.87
14724.8
14724.8
14724.8
14724.8
14724.8
14724.8
14724.8
14724.8
14724.8
14724.8
14724.8
14724.8
14724.8
14724.8
14724.8
14724.8
14724.8
14724.8
14724.8
14724.8
24534.8
24534.8
24534.8
24534.8
24534.8
24534.8
24534.8
24534.8
24534.8
24534.8
24534.8
24534.8
24534.8
24534.8
24534.8
24534.8
24534.8
24534.8
24534.8
24534.8
34344.8
34344.8
34344.8
34344.8
34344.8
34344.8
34344.8
34344.8
34344.8
34344.8
34344.8
34344.8
34344.8
34344.8
34344.8
34344.8
34344.8
34344.8
34344.8
34344.8
34344.8
34344.8
34344.8
34344.8
34344.8
34344.8
34344.8
34344.8
34344.8
34344.8
34344.8
34344.8
34344.8
34344.8
34344.8
34344.8
4.99532
4.99588
4.99531
4.99506
4.99494
4.99468
4.99454
4.99523
4.99631
4.99628
4.9972
4.99727
4.9978
4.99733
4.99732
4.99759
4.99722
4.99686
4.99606
4.99558
4.99566
4.99557
4.9961
4.99535
4.99412
4.99789
5.00566
4.99525
4914.91
4914.9
4914.92
4914.89
4914.87
4914.87
4914.94
4914.91
4914.88
4914.9
4914.91
4914.9
4914.93
4914.92
4914.93
4914.92
4914.89
4914.86
4914.86
4914.88
4914.88
4914.89
4914.9
4914.88
4914.87
4914.88
4914.93
4914.9
14724.8
14724.8
14724.8
14724.8
14724.8
14724.8
14724.8
14724.8
14724.8
14724.8
14724.8
14724.8
14724.8
14724.8
14724.8
14724.8
14724.8
14724.8
14724.8
14724.8
14724.8
14724.8
14724.8
14724.8
14724.8
14724.8
14724.8
14724.8
24534.8
24534.8
24534.8
24534.8
24534.8
24534.8
24534.8
24534.8
24534.8
24534.8
24534.8
24534.8
24534.8
24534.8
24534.8
24534.8
24534.8
24534.8
24534.8
24534.8
24534.8
24534.8
24534.8
24534.8
24534.8
24534.8
24534.8
24534.8
34344.8
34344.8
34344.8
34344.8
34344.8
34344.8
34344.8
34344.8
34344.8
34344.8
34344.8
34344.8
34344.8
34344.8
34344.8
34344.8
34344.8
34344.8
34344.8
34344.8
34344.8
34344.8
34344.8
34344.8
34344.8
34344.8
34344.8
34344.8
4.99755
4.99692
4.99678
4.99802
4914.9
4914.88
4914.89
4914.88
)
;

boundaryField
{
    top_fluid_surface
    {
        type            calculated;
        value           nonuniform List<scalar> 
64
(
-3.17395e-10
-4.97938e-09
-2.86454e-09
-8.81599e-09
-7.39e-11
-5.61532e-09
-3.85108e-10
-1.85022e-09
-1.92923e-08
-4.51237e-09
0
-2.44286e-10
-2.44902e-11
-1.19011e-08
0
-5.64459e-09
0
0
0
0
-4.76853e-09
-6.13563e-09
0
0
0
0
0
0
0
0
-1.64398e-09
0
-7.69032e-10
-3.1215e-09
-2.07078e-08
0
0
0
-1.25891e-07
-3.47005e-09
0
-1.26434e-08
-1.9814e-08
-2.88848e-09
-4.43158e-08
-1.66137e-11
-2.1578e-08
-3.29913e-08
-6.49687e-09
0
0
-5.67763e-10
-5.80405e-10
-9.36986e-11
-2.49555e-08
-6.80033e-10
-5.6429e-11
-8.9132e-11
-2.44239e-09
-4.45192e-08
-1.47843e-08
-1.19062e-09
-2.85803e-11
-4.4324e-09
)
;
    }
    bottom_fluid_surface
    {
        type            calculated;
        value           nonuniform List<scalar> 
64
(
39249.8
39249.8
39249.8
39249.8
39249.8
39249.8
39249.8
39249.8
39249.8
39249.8
39249.8
39249.8
39249.8
39249.8
39249.8
39249.8
39249.8
39249.8
39249.8
39249.8
39249.8
39249.8
39249.8
39249.8
39249.8
39249.8
39249.8
39249.8
39249.8
39249.8
39249.8
39249.8
39249.8
39249.8
39249.8
39249.8
39249.8
39249.8
39249.8
39249.8
39249.8
39249.8
39249.8
39249.8
39249.8
39249.8
39249.8
39249.8
39249.8
39249.8
39249.8
39249.8
39249.8
39249.8
39249.8
39249.8
39249.8
39249.8
39249.8
39249.8
39249.8
39249.8
39249.8
39249.8
)
;
    }
    lateral_surface_1
    {
        type            calculated;
        value           nonuniform List<scalar> 
40
(
4.99532
4.99588
4.99531
4.99506
4.99494
4.99468
4.99454
4.99525
4914.91
4914.9
4914.92
4914.89
4914.87
4914.87
4914.94
4914.9
14724.8
14724.8
14724.8
14724.8
14724.8
14724.8
14724.8
14724.8
24534.8
24534.8
24534.8
24534.8
24534.8
24534.8
24534.8
24534.8
34344.8
34344.8
34344.8
34344.8
34344.8
34344.8
34344.8
34344.8
)
;
    }
    lateral_surface_2
    {
        type            calculated;
        value           nonuniform List<scalar> 
40
(
4.99733
4.99732
4.99759
4.99722
4.99686
4.99606
4.99558
4.99566
4914.92
4914.93
4914.92
4914.89
4914.86
4914.86
4914.88
4914.88
14724.8
14724.8
14724.8
14724.8
14724.8
14724.8
14724.8
14724.8
24534.8
24534.8
24534.8
24534.8
24534.8
24534.8
24534.8
24534.8
34344.8
34344.8
34344.8
34344.8
34344.8
34344.8
34344.8
34344.8
)
;
    }
    lateral_surface_3
    {
        type            calculated;
        value           nonuniform List<scalar> 
40
(
4.99454
4.99523
4.99631
4.99628
4.9972
4.99727
4.9978
4.99733
4914.94
4914.91
4914.88
4914.9
4914.91
4914.9
4914.93
4914.92
14724.8
14724.8
14724.8
14724.8
14724.8
14724.8
14724.8
14724.8
24534.8
24534.8
24534.8
24534.8
24534.8
24534.8
24534.8
24534.8
34344.8
34344.8
34344.8
34344.8
34344.8
34344.8
34344.8
34344.8
)
;
    }
    lateral_surface_4
    {
        type            calculated;
        value           nonuniform List<scalar> 
40
(
4.99566
4.99557
4.9961
4.99535
4.99412
4.99789
5.00566
4.99525
4914.88
4914.89
4914.9
4914.88
4914.87
4914.88
4914.93
4914.9
14724.8
14724.8
14724.8
14724.8
14724.8
14724.8
14724.8
14724.8
24534.8
24534.8
24534.8
24534.8
24534.8
24534.8
24534.8
24534.8
34344.8
34344.8
34344.8
34344.8
34344.8
34344.8
34344.8
34344.8
)
;
    }
}


// ************************************************************************* //
