/*--------------------------------*- C++ -*----------------------------------*\
| =========                 |                                                 |
| \\      /  F ield         | OpenFOAM: The Open Source CFD Toolbox           |
|  \\    /   O peration     | Version:  v1612+                                |
|   \\  /    A nd           | Web:      www.OpenFOAM.com                      |
|    \\/     M anipulation  |                                                 |
\*---------------------------------------------------------------------------*/
FoamFile
{
    version     2.0;
    format      ascii;
    class       volScalarField;
    location    "8";
    object      p_rgh;
}
// * * * * * * * * * * * * * * * * * * * * * * * * * * * * * * * * * * * * * //

dimensions      [1 -1 -2 0 0 0 0];

internalField   nonuniform List<scalar> 
320
(
-9800.21
-9800.2
-9800.21
-9800.2
8.28073e-05
-0.00432532
-0.00374243
-0.00720547
-0.00108581
-0.00986593
-0.000626503
-0.00875363
-0.00634271
-0.00105058
0.0112662
0.0011444
-9799.8
-9799.76
-9799.78
-9799.81
-9799.8
-9799.81
-9799.78
-9799.78
-9799.75
-9799.8
-9799.97
-9799.8
-9800.21
-9800.2
-9800.21
-9800.19
-9800.21
-9800.2
-9800.21
-9800.22
-9800.21
-9800.2
-9800.2
-9800.21
-9800.21
-9800.21
-9800.21
-9800.21
-9800.21
-9800.21
-9800.2
-9800.2
-9800.21
-9800.2
-9800.21
-9800.21
-9800.21
-9800.2
-9800.2
-9800.21
-0.000194385
-0.00571501
0.00205729
-0.00399995
0.00885577
0.015772
0.0144637
0.0191479
-0.00412085
-0.00344352
0.0149657
0.0212223
0.00482571
0.0120761
0.0166774
0.0144077
0.0105912
0.00492895
-0.0010018
0.0112736
-9799.78
-9799.77
-9799.94
-9799.81
-9799.98
-9800.01
-9800.01
-9800.02
-9799.8
-9799.85
-9800.02
-9800.01
-9799.83
-9799.96
-9800
-9799.99
-9799.97
-9799.91
-9799.77
-9799.96
-9800.21
-9800.21
-9800.19
-9800.2
-9800.18
-9800.18
-9800.18
-9800.18
-9800.19
-9800.18
-9800.19
-9800.2
-9800.22
-9800.2
-9800.2
-9800.2
-9800.2
-9800.21
-9800.21
-9800.2
-9800.21
-9800.21
-9800.2
-9800.2
-9800.19
-9800.19
-9800.19
-9800.19
-9800.2
-9800.19
-9800.19
-9800.2
-9800.21
-9800.21
-9800.2
-9800.21
-9800.2
-9800.21
-9800.21
-9800.21
-9800.21
-9800.2
-9800.21
-9800.2
-9800.21
-9800.2
-9800.2
-9800.2
-9800.2
-9800.2
-9800.21
-9800.21
-9800.21
-9800.21
-9800.21
-9800.21
-9800.21
-9800.21
-9800.2
-9800.2
-9800.19
-9800.19
-9800.19
-9800.19
-9800.2
-9800.19
-9800.2
-9800.2
-9800.21
-9800.21
-9800.21
-9800.21
-9800.21
-9800.21
-9800.21
-9800.21
-0.00200775
-0.00486373
-0.0080829
0.00163248
0.0011487
0.00204741
-0.0194915
-0.00269033
-6.87987e-05
-0.00411425
-0.00514385
-0.00324207
-0.0148369
-0.000802287
-0.00880955
-0.0114844
-0.00238962
0.000917343
0.00217814
0.000747646
0.00112893
-0.000404397
-0.0122775
0.000172436
-0.00170073
-0.00118132
0.00597746
-0.015143
-9799.84
-9799.78
-9799.79
-9799.93
-9799.89
-9799.89
-9799.73
-9799.83
-9799.89
-9799.78
-9799.78
-9799.79
-9799.74
-9799.84
-9799.79
-9799.75
-9799.77
-9799.84
-9799.87
-9799.79
-9799.8
-9799.8
-9799.72
-9799.79
-9799.85
-9799.78
-9799.76
-9799.71
-9800.2
-9800.21
-9800.21
-9800.19
-9800.21
-9800.2
-9800.2
-9800.19
-9800.19
-9800.2
-9800.19
-9800.2
-9800.19
-9800.19
-9800.19
-9800.2
-9800.21
-9800.22
-9800.21
-9800.22
-9800.22
-9800.21
-9800.22
-9800.21
-9800.21
-9800.21
-9800.2
-9800.21
-9800.21
-9800.21
-9800.2
-9800.19
-9800.2
-9800.19
-9800.2
-9800.19
-9800.2
-9800.2
-9800.2
-9800.2
-9800.19
-9800.19
-9800.19
-9800.2
-9800.21
-9800.22
-9800.21
-9800.21
-9800.21
-9800.21
-9800.21
-9800.21
-9800.21
-9800.22
-9800.21
-9800.21
-9800.21
-9800.2
-9800.2
-9800.2
-9800.2
-9800.19
-9800.2
-9800.2
-9800.2
-9800.2
-9800.2
-9800.2
-9800.19
-9800.19
-9800.19
-9800.2
-9800.2
-9800.21
-9800.21
-9800.21
-9800.21
-9800.21
-9800.21
-9800.21
-9800.21
-9800.21
-9800.21
-9800.21
-0.00629336
-0.00398836
-0.00124884
-0.00550565
-9799.76
-9799.75
-9799.79
-9799.72
)
;

boundaryField
{
    top_fluid_surface
    {
        type            totalPressure;
        rho             rho;
        psi             none;
        gamma           1;
        p0              uniform 0;
        value           nonuniform List<scalar> 
64
(
-3.17395e-10
-4.97938e-09
-2.86454e-09
-8.81599e-09
-7.39e-11
-5.61532e-09
-3.85108e-10
-1.85022e-09
-1.92923e-08
-4.51237e-09
0
-2.44286e-10
-2.44902e-11
-1.19011e-08
0
-5.64459e-09
0
0
0
0
-4.76853e-09
-6.13563e-09
0
0
0
0
0
0
0
0
-1.64398e-09
0
-7.69032e-10
-3.1215e-09
-2.07078e-08
0
0
0
-1.25891e-07
-3.47005e-09
0
-1.26434e-08
-1.9814e-08
-2.88848e-09
-4.43158e-08
-1.66137e-11
-2.1578e-08
-3.29913e-08
-6.49687e-09
0
0
-5.67763e-10
-5.80405e-10
-9.36986e-11
-2.49555e-08
-6.80033e-10
-5.6429e-11
-8.9132e-11
-2.44239e-09
-4.45192e-08
-1.47843e-08
-1.19062e-09
-2.85803e-11
-4.4324e-09
)
;
    }
    bottom_fluid_surface
    {
        type            fixedFluxPressure;
        gradient        uniform 0;
        value           nonuniform List<scalar> 
64
(
-9800.21
-9800.2
-9800.21
-9800.2
-9800.21
-9800.2
-9800.2
-9800.2
-9800.2
-9800.2
-9800.21
-9800.21
-9800.21
-9800.21
-9800.21
-9800.21
-9800.21
-9800.21
-9800.2
-9800.2
-9800.19
-9800.19
-9800.19
-9800.19
-9800.2
-9800.19
-9800.2
-9800.2
-9800.21
-9800.21
-9800.21
-9800.21
-9800.21
-9800.21
-9800.21
-9800.21
-9800.21
-9800.2
-9800.2
-9800.2
-9800.2
-9800.19
-9800.2
-9800.2
-9800.2
-9800.2
-9800.2
-9800.2
-9800.19
-9800.19
-9800.19
-9800.2
-9800.2
-9800.21
-9800.21
-9800.21
-9800.21
-9800.21
-9800.21
-9800.21
-9800.21
-9800.21
-9800.21
-9800.21
)
;
    }
    lateral_surface_1
    {
        type            fixedFluxPressure;
        gradient        uniform 0;
        value           nonuniform List<scalar> 
40
(
-0.00200775
-0.00486373
-0.0080829
0.00163248
0.0011487
0.00204741
-0.0194915
-0.015143
-9799.84
-9799.78
-9799.79
-9799.93
-9799.89
-9799.89
-9799.73
-9799.71
-9800.2
-9800.21
-9800.21
-9800.19
-9800.21
-9800.2
-9800.2
-9800.21
-9800.21
-9800.21
-9800.2
-9800.19
-9800.2
-9800.19
-9800.2
-9800.21
-9800.21
-9800.2
-9800.2
-9800.2
-9800.2
-9800.19
-9800.2
-9800.21
)
;
    }
    lateral_surface_2
    {
        type            fixedFluxPressure;
        gradient        uniform 0;
        value           nonuniform List<scalar> 
40
(
-0.000802287
-0.00880955
-0.0114844
-0.00238962
0.000917343
0.00217814
0.000747646
0.00112893
-9799.84
-9799.79
-9799.75
-9799.77
-9799.84
-9799.87
-9799.79
-9799.8
-9800.19
-9800.19
-9800.2
-9800.21
-9800.22
-9800.21
-9800.22
-9800.22
-9800.19
-9800.19
-9800.2
-9800.21
-9800.22
-9800.21
-9800.21
-9800.21
-9800.19
-9800.19
-9800.2
-9800.2
-9800.21
-9800.21
-9800.21
-9800.21
)
;
    }
    lateral_surface_3
    {
        type            fixedFluxPressure;
        gradient        uniform 0;
        value           nonuniform List<scalar> 
40
(
-0.0194915
-0.00269033
-6.87987e-05
-0.00411425
-0.00514385
-0.00324207
-0.0148369
-0.000802287
-9799.73
-9799.83
-9799.89
-9799.78
-9799.78
-9799.79
-9799.74
-9799.84
-9800.2
-9800.19
-9800.19
-9800.2
-9800.19
-9800.2
-9800.19
-9800.19
-9800.2
-9800.19
-9800.2
-9800.2
-9800.2
-9800.2
-9800.19
-9800.19
-9800.2
-9800.2
-9800.2
-9800.2
-9800.2
-9800.2
-9800.19
-9800.19
)
;
    }
    lateral_surface_4
    {
        type            fixedFluxPressure;
        gradient        uniform 0;
        value           nonuniform List<scalar> 
40
(
0.00112893
-0.000404397
-0.0122775
0.000172436
-0.00170073
-0.00118132
0.00597746
-0.015143
-9799.8
-9799.8
-9799.72
-9799.79
-9799.85
-9799.78
-9799.76
-9799.71
-9800.22
-9800.21
-9800.22
-9800.21
-9800.21
-9800.21
-9800.2
-9800.21
-9800.21
-9800.21
-9800.21
-9800.21
-9800.21
-9800.22
-9800.21
-9800.21
-9800.21
-9800.21
-9800.21
-9800.21
-9800.21
-9800.21
-9800.21
-9800.21
)
;
    }
}


// ************************************************************************* //
