/*--------------------------------*- C++ -*----------------------------------*\
| =========                 |                                                 |
| \\      /  F ield         | OpenFOAM: The Open Source CFD Toolbox           |
|  \\    /   O peration     | Version:  v1612+                                |
|   \\  /    A nd           | Web:      www.OpenFOAM.com                      |
|    \\/     M anipulation  |                                                 |
\*---------------------------------------------------------------------------*/
FoamFile
{
    version     2.0;
    format      ascii;
    class       surfaceScalarField;
    location    "8";
    object      phi;
}
// * * * * * * * * * * * * * * * * * * * * * * * * * * * * * * * * * * * * * //

dimensions      [0 3 -1 0 0 0 0];

internalField   nonuniform List<scalar> 
816
(
-1.28985e-06
-1.00543e-05
4.7807e-06
-1.33088e-05
-1.64107e-05
3.62827e-05
6.93927e-06
2.57519e-06
-9.09169e-06
3.26352e-06
-4.97401e-06
-7.40781e-06
2.28585e-06
1.32485e-06
5.8401e-06
-1.20996e-05
-6.488e-06
7.48931e-06
3.88038e-06
-5.34265e-06
2.81906e-05
7.84136e-06
-1.16008e-06
-0.000213926
0.000196649
0.000151696
-7.77037e-06
8.40926e-06
5.67575e-05
0.000106155
-1.60434e-06
-0.000100677
0.000299468
0.000198693
4.23836e-06
0.000148665
2.87891e-05
0.0001823
-2.37848e-05
0.000130052
-8.06272e-05
0.000246297
-4.74412e-06
-0.000115932
0.000186749
0.000204158
-1.7083e-05
0.000273083
-0.000139455
0.000268591
-6.64176e-06
0.000217615
-0.000207656
-5.94566e-05
4.1711e-06
0.000405599
0.000275331
3.43431e-05
1.41945e-05
0.000189933
-0.000171846
-0.000208531
5.96579e-06
0.000144988
-0.000404302
1.09567e-05
-0.000216566
7.38473e-06
2.29174e-05
-4.84917e-06
-3.05188e-05
-3.14467e-06
1.4026e-05
3.05746e-05
-3.41321e-05
9.82117e-06
8.93935e-06
2.38202e-06
-3.3272e-06
-3.71977e-06
3.30167e-05
-2.70038e-06
2.15409e-05
-5.70774e-07
-1.04366e-05
6.41287e-06
-1.65934e-05
5.18049e-06
-1.43014e-05
2.7765e-06
-2.63231e-05
5.09585e-06
2.28963e-05
6.3048e-06
-3.40189e-05
6.70476e-06
1.31126e-05
1.51569e-05
-5.63143e-06
-1.05059e-05
1.23308e-06
4.7301e-06
-4.48651e-05
2.25361e-05
3.52484e-05
2.44515e-05
-2.51181e-05
1.31098e-05
6.35925e-06
-1.04895e-05
5.45279e-05
8.52396e-06
-2.27231e-05
-1.63302e-05
2.5381e-06
7.87796e-06
-1.14392e-05
1.70836e-06
-1.49304e-05
-1.07766e-06
-1.82885e-05
-1.40466e-05
-1.06661e-05
1.46281e-06
-1.30671e-06
-2.05444e-06
-1.97171e-05
5.80254e-06
8.43755e-06
-3.37425e-07
-4.87294e-06
-6.45365e-06
-5.964e-06
2.24745e-06
-1.36144e-05
-6.5324e-06
-1.33029e-05
-2.96434e-06
-1.55426e-05
-5.78495e-06
-1.05096e-05
-2.26551e-06
6.4548e-06
-6.97502e-06
-2.06885e-05
-9.39457e-06
-1.83211e-05
-1.35623e-05
-1.22064e-05
-4.9938e-06
5.40501e-06
2.3432e-05
-1.18626e-06
-8.30624e-06
-9.83386e-08
-8.11113e-07
-1.16139e-06
-5.96413e-06
2.90159e-06
-6.81952e-06
-5.36506e-06
3.7123e-06
1.75897e-06
-5.62379e-06
2.24075e-06
-3.96409e-06
1.60192e-06
1.17058e-06
1.07698e-06
-3.47371e-06
4.12796e-06
2.95716e-06
-6.42013e-06
5.01767e-07
-1.06899e-06
-5.0515e-06
-1.02961e-05
-6.16587e-06
-2.24918e-06
8.40557e-07
-1.79569e-06
-1.06206e-05
-2.77085e-08
4.10391e-06
-5.05695e-07
4.16687e-08
-1.65674e-06
-2.29623e-06
-1.87189e-06
3.89784e-07
-4.02325e-06
-7.24818e-06
-4.39655e-06
-2.08272e-06
-3.05528e-06
-5.88885e-06
-5.16275e-06
4.06379e-06
-1.66891e-06
-3.12021e-06
-6.26343e-06
-1.04779e-05
-6.00336e-06
-7.81259e-06
-2.94134e-06
-3.42434e-06
2.30959e-06
-5.44708e-07
7.02305e-06
-9.33995e-07
-1.34756e-06
-3.20801e-06
-0.000233831
0.000217547
5.43076e-06
-0.000192178
1.733e-06
2.49435e-06
-0.000187032
-1.40718e-05
3.67015e-06
-4.87451e-05
9.78527e-05
8.52087e-06
-3.31254e-05
0.000256114
1.30008e-05
-0.000292451
-0.000266927
6.69393e-05
2.82264e-06
-0.000224581
-0.000162262
-3.71065e-06
-0.000269574
-0.000493481
-1.2959e-06
-0.000385165
-0.000298371
6.49566e-06
-0.000113707
0.000580408
8.89425e-06
-0.000477777
-0.000218001
0.000366096
-2.73284e-06
-0.000253029
2.91819e-05
6.1244e-06
-0.000277697
0.000182493
-3.28948e-06
-3.03148e-05
0.00011678
-6.88098e-06
-5.88358e-05
-0.00010844
-2.16525e-06
-0.000214616
-0.000274791
-0.000249235
-2.24481e-06
-0.000221504
-0.000408479
-2.82768e-06
-0.000134317
-0.000329352
-6.20778e-07
-0.000140805
-0.000140342
8.21158e-06
-9.1677e-05
3.41146e-06
-0.000258393
-0.000168283
-1.76507e-05
9.93263e-06
8.36424e-06
6.45567e-06
9.76413e-06
-2.60761e-05
-2.33387e-06
9.49683e-06
-8.14411e-07
1.41125e-05
6.24388e-06
-1.39986e-06
8.9971e-06
2.43293e-05
5.97663e-05
-3.31589e-05
-3.20702e-05
1.95346e-06
6.96335e-05
-1.15595e-05
-1.8377e-05
5.9729e-05
-4.44248e-05
-4.85759e-05
8.38486e-05
-4.9822e-05
-2.70439e-05
-5.4204e-06
-5.0813e-06
3.12717e-05
-1.11344e-05
-1.89802e-05
-1.81961e-05
-4.32787e-06
6.64755e-05
-1.2228e-05
-2.78015e-05
6.97575e-05
-3.53935e-05
9.04878e-06
-4.84922e-05
-3.38276e-06
3.44154e-06
4.32021e-05
-2.246e-05
2.58873e-05
4.48263e-05
-4.32093e-05
-2.66521e-05
-2.88122e-06
5.79159e-05
3.04611e-06
-2.71573e-05
6.10643e-05
-2.59752e-05
-1.93142e-05
1.19959e-05
-9.22708e-06
-4.40398e-07
-4.35903e-06
8.45503e-07
5.16785e-05
-2.02616e-05
-2.80285e-05
6.4504e-06
-2.28797e-07
5.11537e-06
-3.07121e-06
-7.3853e-06
-1.22704e-05
-1.0477e-06
-7.70678e-06
1.12854e-06
-1.22833e-05
-5.33016e-06
-5.12242e-07
-5.31908e-06
-8.42631e-06
2.71685e-05
1.85585e-05
1.7136e-05
2.66402e-06
3.12117e-05
7.61432e-06
1.13966e-05
2.6807e-05
2.38444e-05
2.55364e-05
3.74597e-05
2.629e-05
1.39087e-05
-2.79077e-06
2.45555e-06
-1.51601e-05
-4.78715e-06
1.23329e-05
1.03874e-05
3.08422e-06
2.91734e-05
5.74764e-06
1.85518e-05
3.08109e-05
1.77006e-05
-4.6379e-06
-2.09709e-05
2.11168e-06
-2.04977e-06
2.04007e-05
1.08033e-05
-1.45918e-05
2.01679e-05
2.35705e-05
1.36264e-05
9.34218e-07
2.516e-05
-1.1056e-06
1.47737e-05
2.72918e-05
1.49321e-05
9.65567e-06
5.74013e-06
1.01868e-05
1.27598e-06
-1.62262e-06
4.8479e-06
2.35486e-05
1.07927e-05
1.83927e-05
4.13759e-06
-7.49447e-08
2.22611e-06
-2.10242e-06
-4.06939e-06
-3.92263e-06
-1.19043e-06
-4.73823e-06
2.65676e-06
-7.01751e-06
-2.59765e-06
-7.22418e-07
-3.72429e-06
-4.44743e-06
9.00938e-06
1.01474e-05
9.86242e-06
1.27394e-06
1.15354e-05
3.32954e-06
6.50175e-06
8.72194e-06
1.23425e-05
1.42784e-05
1.23255e-05
1.5053e-05
7.96142e-06
-9.57433e-07
4.42804e-07
-8.87809e-06
4.44977e-07
6.42531e-06
5.17543e-06
1.65707e-06
8.3122e-06
3.0572e-06
9.86102e-06
1.00022e-05
9.53309e-06
-3.35515e-06
-4.78347e-06
1.07486e-06
-1.30423e-06
6.34008e-06
5.73022e-06
-7.82864e-06
5.95481e-06
1.27727e-05
7.95548e-06
5.12592e-07
8.06449e-06
-1.744e-06
7.95679e-06
8.68235e-06
8.22061e-06
4.63432e-06
2.62969e-06
5.8993e-06
3.47293e-07
-6.19288e-07
1.93765e-06
6.10504e-06
6.52292e-06
1.11773e-05
-8.01734e-07
-2.89544e-06
1.49581e-06
-3.17401e-06
3.36369e-06
-7.23791e-07
-1.20853e-06
-4.08464e-06
4.59045e-07
1.79602e-06
-2.24618e-06
4.46978e-06
-5.86184e-06
2.27348e-06
3.48209e-08
-5.47065e-06
-3.36157e-06
9.79921e-07
-5.33402e-07
-5.94511e-06
9.14791e-07
-1.11037e-06
-7.57693e-07
-2.4571e-06
3.94872e-07
-2.13063e-06
-3.43163e-06
-6.94812e-07
-3.44993e-07
-3.10874e-06
1.1905e-06
-2.70226e-06
-1.61578e-06
-4.80502e-06
-3.91528e-06
-4.30959e-07
6.85568e-07
-7.51931e-07
-1.26584e-06
1.03139e-06
5.81106e-07
1.12579e-06
-7.31472e-07
-3.36785e-06
8.01534e-08
-1.55024e-06
-2.51671e-06
-1.73462e-06
-1.06665e-06
-1.26841e-06
3.53443e-06
5.0118e-06
2.09359e-06
2.22843e-06
4.1284e-06
5.57031e-06
7.91762e-06
6.07061e-06
3.84091e-06
9.77821e-07
-2.57896e-06
3.05688e-06
3.7992e-06
1.0732e-06
1.21145e-06
5.19469e-06
5.52526e-06
8.97529e-08
1.50099e-06
5.02997e-07
4.29974e-06
-3.59022e-06
6.0081e-06
4.02774e-06
-1.91695e-07
-1.53334e-07
3.77391e-06
4.28443e-06
3.31496e-06
2.34477e-06
1.18899e-06
2.55397e-06
3.31718e-06
5.11514e-06
-9.21169e-06
-0.000203543
-1.07566e-06
-1.69794e-05
-2.60938e-06
0.000152955
7.66025e-06
-4.07894e-06
1.51967e-05
-0.000118384
-1.85765e-06
-0.000470731
-1.96169e-06
0.000397565
1.72639e-05
0.000264071
1.04505e-06
2.51088e-06
-8.49134e-06
-2.77041e-05
1.10844e-06
-0.0001118
3.76488e-06
-8.26965e-05
-3.15437e-06
2.26475e-05
-3.23116e-06
3.75884e-05
5.8282e-07
0.000192846
2.88056e-06
0.000423844
4.59732e-06
0.000311132
4.51736e-06
0.000264909
-6.45323e-06
0.000147936
2.81305e-06
-4.99752e-05
1.61996e-06
-3.53568e-05
-3.85446e-06
-0.00029093
1.68303e-06
-4.92732e-05
2.54037e-06
-0.000141279
-1.10237e-06
-0.000219209
-1.42817e-05
-0.000268671
-2.11638e-06
-0.000281309
2.61574e-07
-1.39588e-05
1.13012e-05
-2.02902e-05
-9.23345e-06
4.54893e-06
1.02933e-05
2.48982e-05
-1.51319e-05
2.11659e-06
5.18023e-05
-2.50161e-05
3.41554e-05
-4.29394e-05
-1.7369e-05
3.36854e-05
-5.94667e-05
2.31513e-05
-2.04967e-05
-2.29569e-05
2.56682e-05
-1.22047e-05
-5.45325e-05
1.36928e-05
-7.18248e-05
1.76347e-05
-1.13809e-05
1.20816e-05
-1.69201e-05
-1.34863e-05
2.6467e-05
-6.38938e-06
-2.31604e-05
-3.97155e-06
-1.13511e-05
-4.69658e-07
-3.52337e-05
1.48884e-07
-1.09158e-05
-8.1332e-06
-1.14281e-05
-1.31978e-05
-3.62537e-05
3.36909e-05
-5.07566e-05
1.1202e-05
-2.70875e-06
-4.73094e-06
2.18366e-05
3.27162e-06
-3.05382e-05
-9.283e-06
-9.29656e-06
-1.94018e-05
-3.89117e-06
-1.4089e-05
-3.51703e-05
-4.84008e-05
-1.02697e-05
1.76429e-05
-5.85042e-06
-8.17891e-06
5.12794e-06
-1.71335e-05
-7.21655e-06
-1.09355e-06
2.34845e-05
1.20531e-05
1.56925e-05
1.92675e-05
-6.02401e-06
-1.32259e-05
-2.69721e-05
-5.93194e-06
-1.06518e-05
1.47274e-05
1.26208e-05
6.86436e-06
-2.283e-05
-6.5185e-06
-3.21548e-05
-1.01366e-05
-5.31281e-06
-7.38398e-06
-7.34641e-06
7.21957e-06
1.18617e-05
5.06169e-06
-1.06155e-05
4.48561e-06
-5.0349e-06
2.80477e-06
-1.58605e-05
-3.14983e-07
-5.69465e-06
5.14859e-06
-6.09603e-06
8.14617e-06
-1.56895e-05
-1.94251e-05
-2.31882e-05
-6.92482e-06
-1.59424e-06
3.26032e-06
1.05355e-05
1.43076e-06
-1.37798e-05
6.50764e-06
-4.19265e-06
9.75011e-06
-2.29314e-06
9.77552e-06
-1.67885e-05
-2.09761e-05
-5.68525e-06
8.72532e-06
-2.36944e-06
-4.38777e-06
1.74846e-06
-9.64852e-06
-3.13779e-06
-7.70586e-07
7.5938e-06
7.7024e-06
3.49965e-06
1.13766e-05
4.54119e-07
-7.59736e-06
-7.99743e-06
-4.43731e-06
-3.95009e-06
8.23037e-06
3.28132e-06
5.02002e-06
-7.28146e-06
-3.6977e-06
-8.38686e-06
-5.61782e-06
-2.95546e-06
-4.68525e-06
-1.86301e-06
4.8464e-06
2.32288e-06
3.0198e-06
-3.62528e-06
2.09882e-06
-1.06514e-06
1.1158e-06
-5.35474e-06
-3.47384e-07
-3.16564e-06
2.84375e-06
-3.56741e-06
4.48236e-06
-4.57001e-06
-1.0861e-05
-7.84991e-06
-3.97412e-06
-5.38392e-07
2.52438e-06
2.2862e-06
9.8481e-07
-4.00703e-06
2.85358e-06
-1.61007e-07
5.10309e-06
-2.64662e-06
4.40442e-06
-4.90545e-06
-7.83222e-06
-4.21991e-06
5.17491e-06
-3.18383e-06
-6.23762e-06
-1.15943e-06
1.27501e-06
5.26862e-06
-2.72663e-06
-1.6631e-06
3.84664e-06
2.12995e-06
-1.91514e-07
-2.17294e-06
-9.78122e-07
1.34317e-06
1.50783e-06
1.6467e-06
1.81078e-06
1.40518e-07
8.66702e-07
2.29444e-06
-5.56111e-06
-2.07977e-06
5.11159e-08
3.33009e-07
2.52817e-06
2.43778e-06
2.65371e-06
-0.00019686
0.000303025
-5.2158e-06
1.76666e-05
-6.65875e-06
-3.173e-05
2.22913e-06
-1.15716e-06
3.3958e-06
1.98507e-05
-9.91919e-06
1.75557e-05
)
;

boundaryField
{
    top_fluid_surface
    {
        type            calculated;
        value           nonuniform List<scalar> 
64
(
-1.70344e-05
-0.000180795
-0.000151183
-0.000275958
-8.8268e-06
-0.000127235
-4.46703e-05
-6.53069e-05
-0.000329854
-0.000128632
0.000494562
-2.45563e-06
-1.55558e-05
-0.000266414
6.98967e-05
-0.000189693
0.00038714
0.000708238
0.000653331
0.000860294
-0.000174541
-0.000190128
0.000686818
0.000895139
0.000121804
0.000532713
0.000714216
0.000636476
0.000484092
0.00020461
-9.14401e-05
0.000500054
-6.6185e-05
-0.0001755
-0.000364857
9.19257e-05
8.00503e-05
6.06199e-05
-0.000885603
-0.000136081
4.50946e-05
-0.000243237
-0.000305091
-0.000139816
-0.000580043
-1.43602e-05
-0.000376806
-0.000487879
-0.000173333
1.83711e-05
5.11383e-05
-1.97829e-05
-1.03781e-05
-2.16477e-05
-0.000467076
-4.25177e-05
-5.08429e-05
-1.40876e-05
-0.000154931
-0.00056251
-0.000306807
-0.000122569
-2.59798e-05
-0.000204518
)
;
    }
    bottom_fluid_surface
    {
        type            calculated;
        value           uniform 0;
    }
    lateral_surface_1
    {
        type            calculated;
        value           uniform 0;
    }
    lateral_surface_2
    {
        type            calculated;
        value           uniform 0;
    }
    lateral_surface_3
    {
        type            calculated;
        value           uniform 0;
    }
    lateral_surface_4
    {
        type            calculated;
        value           uniform 0;
    }
}


// ************************************************************************* //
