/*--------------------------------*- C++ -*----------------------------------*\
| =========                 |                                                 |
| \\      /  F ield         | OpenFOAM: The Open Source CFD Toolbox           |
|  \\    /   O peration     | Version:  v1612+                                |
|   \\  /    A nd           | Web:      www.OpenFOAM.com                      |
|    \\/     M anipulation  |                                                 |
\*---------------------------------------------------------------------------*/
FoamFile
{
    version     2.0;
    format      ascii;
    class       volVectorField;
    location    "8";
    object      U;
}
// * * * * * * * * * * * * * * * * * * * * * * * * * * * * * * * * * * * * * //

dimensions      [0 1 -1 0 0 0 0];

internalField   nonuniform List<vector> 
320
(
(6.07422e-06 -1.21708e-05 2.38955e-05)
(-8.27381e-06 -8.03641e-06 -5.11203e-07)
(-1.70634e-05 -6.58921e-06 -9.78619e-06)
(3.20847e-06 2.23635e-05 6.11352e-07)
(0.00014773 0.000131863 -2.5195e-05)
(-6.63475e-05 -8.67766e-05 -9.97936e-05)
(0.000324295 1.63952e-05 -7.56906e-05)
(0.000131855 0.00022798 -0.000132785)
(0.000282148 0.000116533 1.20437e-05)
(-0.000207235 0.000275071 -0.000105975)
(-0.000286779 0.000391769 -2.77528e-05)
(-7.22799e-05 0.000203388 -6.08313e-05)
(-0.00052611 0.000462036 -0.00019643)
(-0.000443973 -0.000301953 -9.49986e-05)
(-0.000499018 0.00021225 0.000274918)
(-0.00016547 0.000241684 -2.21036e-05)
(2.32372e-05 2.10921e-06 3.88065e-05)
(2.09214e-05 1.62363e-07 3.44155e-05)
(4.3801e-05 4.74212e-06 3.39648e-06)
(1.40827e-05 1.93231e-06 -1.9104e-05)
(2.92951e-05 -9.8775e-06 1.61957e-05)
(8.60669e-06 2.62742e-05 3.40477e-05)
(-1.39646e-05 1.35914e-05 4.04587e-05)
(2.57336e-06 -1.72077e-05 8.09846e-06)
(-3.667e-05 3.75248e-05 5.46149e-05)
(-2.73121e-05 -4.72747e-05 3.2932e-05)
(-3.62082e-05 2.79728e-06 -6.71857e-05)
(-1.41798e-05 1.55109e-05 2.22308e-05)
(-1.00993e-05 2.08987e-06 2.21586e-05)
(-1.18241e-05 3.51655e-06 2.97799e-05)
(-2.69429e-05 8.53668e-07 2.82706e-06)
(-9.86891e-06 2.86274e-06 -2.00495e-05)
(-1.77435e-05 6.98651e-06 1.26081e-05)
(-9.56215e-06 -1.5864e-05 1.961e-05)
(5.30219e-06 -8.75814e-06 2.40047e-05)
(6.08046e-07 1.06227e-05 1.58853e-06)
(2.04987e-05 -1.51584e-05 3.38236e-05)
(1.41061e-05 2.78288e-05 1.99874e-05)
(1.84284e-05 -1.08205e-06 -3.83948e-05)
(6.38297e-06 -8.61181e-06 1.16069e-05)
(2.83542e-06 -7.24454e-06 8.88013e-06)
(-5.148e-06 -4.85912e-06 -4.66144e-06)
(-1.00587e-05 -3.98524e-06 -1.28976e-06)
(1.86526e-06 1.23782e-05 -6.69771e-06)
(-5.27819e-06 1.1843e-06 7.55171e-06)
(-7.12858e-06 1.67058e-06 3.69458e-07)
(-1.45028e-05 3.94482e-07 3.27565e-08)
(-5.66336e-06 1.74901e-06 1.78486e-06)
(-9.24723e-06 5.44307e-06 2.21556e-06)
(-4.99859e-06 -8.38237e-06 6.99575e-06)
(4.28031e-06 -4.6857e-06 8.58031e-06)
(-1.04592e-07 6.7548e-06 3.63597e-06)
(1.04889e-05 -9.76961e-06 8.4859e-06)
(7.51583e-06 1.53173e-05 3.44436e-06)
(9.77852e-06 -7.87721e-08 -1.0583e-05)
(4.12741e-06 -4.04978e-06 4.15117e-06)
(-0.000573763 0.000174317 -6.99859e-06)
(7.38173e-05 0.000318477 -0.00015428)
(-6.24397e-05 7.5983e-05 3.15384e-05)
(2.5311e-05 0.000180635 -0.000106251)
(0.000160758 0.00048359 0.000217422)
(0.000239426 1.88082e-05 0.000400139)
(0.00013987 0.000129973 0.000369756)
(4.11094e-06 -0.000464602 0.00049009)
(-1.08663e-05 -0.000518168 -9.76579e-05)
(-0.000497548 -4.07489e-05 -0.000110776)
(-0.000630634 7.35392e-05 0.000386583)
(-8.6868e-05 0.000132777 0.00048797)
(3.96042e-05 0.000202484 3.77114e-05)
(-0.000460334 0.000290169 0.000302201)
(0.000268135 -1.10834e-05 0.000387291)
(4.7458e-05 0.000218332 0.000356663)
(3.38989e-05 0.000257001 0.00028375)
(0.000245999 0.000599947 0.000110165)
(0.00015781 5.48188e-05 -5.73407e-05)
(0.000173787 0.000196806 0.000277319)
(-4.25834e-05 -1.95049e-05 -1.23248e-05)
(9.06329e-06 3.91465e-06 3.71232e-05)
(8.3627e-06 -1.96798e-05 -6.54601e-07)
(1.31479e-05 6.84884e-07 5.61857e-06)
(-3.07189e-06 4.42962e-05 -7.37501e-05)
(1.80097e-05 1.09466e-06 -9.76126e-05)
(-1.62741e-05 3.65898e-06 -7.87345e-05)
(-1.76279e-05 -4.39093e-05 -0.000117166)
(2.25489e-06 -4.73052e-05 7.73268e-06)
(-2.70862e-05 -8.35119e-06 1.33652e-05)
(-3.16086e-05 1.43075e-05 -8.08897e-05)
(3.99272e-05 -2.73847e-06 -9.28828e-05)
(1.46703e-05 -4.60065e-06 5.32877e-05)
(-3.42647e-05 3.2507e-06 -5.78537e-05)
(2.87504e-05 -4.41452e-05 -5.59483e-05)
(-2.70355e-05 -1.02565e-05 -7.23251e-05)
(4.16745e-06 1.55626e-05 -7.7773e-05)
(1.79281e-05 3.95534e-05 -1.44414e-05)
(-2.343e-06 -4.26753e-06 6.88285e-06)
(2.45584e-05 5.67419e-06 -6.13284e-05)
(1.82496e-05 8.70621e-06 -5.99932e-06)
(-6.05412e-06 2.51754e-07 1.68335e-05)
(-7.03688e-06 1.62807e-05 3.0289e-06)
(-1.03536e-05 2.56116e-06 -1.90673e-06)
(1.39461e-06 -2.19457e-05 -4.14262e-05)
(-9.17721e-06 4.00688e-06 -4.2678e-05)
(9.47157e-06 1.16177e-06 -4.16226e-05)
(7.80689e-06 2.26764e-05 -5.44563e-05)
(-2.84583e-06 2.55145e-05 3.99055e-06)
(1.53641e-05 5.00388e-06 1.1682e-05)
(1.65312e-05 -8.5054e-06 -4.87561e-05)
(-2.32789e-05 -1.17798e-06 -4.74226e-05)
(-1.06602e-05 2.87639e-06 3.77069e-05)
(1.82674e-05 -1.81767e-06 -3.18039e-05)
(-1.42207e-05 2.42785e-05 -3.38356e-05)
(1.38024e-05 6.46051e-06 -4.146e-05)
(-4.61444e-06 -8.6654e-06 -4.4487e-05)
(-1.56458e-05 -1.98958e-05 -8.72137e-06)
(-4.66886e-06 1.91211e-06 1.42025e-06)
(-1.79999e-05 -5.10205e-06 -4.16014e-05)
(1.05991e-05 5.70818e-06 -3.65187e-06)
(-2.8848e-06 1.04814e-06 7.02205e-06)
(-4.35802e-06 9.71513e-06 -5.83259e-06)
(-6.08726e-06 2.59257e-06 2.49068e-06)
(1.63017e-06 -1.14983e-05 -1.45299e-05)
(-5.03293e-06 2.09474e-06 -1.97913e-05)
(4.85419e-06 3.96617e-07 -1.32128e-05)
(5.48567e-06 1.30435e-05 -2.03262e-05)
(-2.56245e-06 1.43024e-05 1.34295e-06)
(8.72639e-06 2.80604e-06 -2.61285e-06)
(9.74182e-06 -4.9823e-06 -1.18523e-05)
(-1.32732e-05 -5.75666e-07 -1.5657e-05)
(-4.97415e-06 2.07108e-06 6.58087e-06)
(1.07944e-05 -1.61774e-06 -8.86582e-06)
(-8.35173e-06 1.30759e-05 -7.88258e-06)
(9.08844e-06 3.47715e-06 -1.07944e-05)
(-1.99588e-06 -4.69644e-06 -1.18552e-05)
(-8.51444e-06 -1.06335e-05 -3.36394e-06)
(-1.3055e-06 2.00524e-06 1.95985e-06)
(-1.0537e-05 -2.94246e-06 -6.91027e-06)
(-3.09411e-07 -3.79893e-06 2.15099e-06)
(-1.03595e-06 -1.33181e-06 -3.59949e-07)
(-7.172e-06 -1.49629e-06 -1.03858e-06)
(-5.56256e-07 8.40206e-06 7.61408e-08)
(-6.31251e-06 5.42202e-07 2.64077e-06)
(-4.79512e-06 2.82152e-06 3.73119e-06)
(-6.8888e-06 1.65816e-06 5.78806e-09)
(-1.59584e-06 4.3987e-07 -1.86929e-06)
(-4.3567e-06 1.20395e-06 1.24176e-06)
(-2.48045e-06 -2.83995e-06 1.94458e-06)
(1.66433e-06 -1.59141e-07 3.2621e-06)
(-8.87473e-08 2.19683e-06 -3.9033e-07)
(5.98809e-06 -3.32177e-06 3.46616e-06)
(3.27834e-06 8.18132e-06 3.1462e-06)
(6.00394e-06 -4.72319e-07 -3.26038e-06)
(1.44349e-06 -6.9264e-07 2.58949e-06)
(4.74451e-06 2.97578e-06 -5.50688e-07)
(-3.82355e-06 -5.74698e-07 1.18555e-06)
(-2.15189e-06 3.5053e-06 5.42119e-07)
(-1.49378e-06 -7.14302e-07 -7.56452e-07)
(-1.386e-06 -5.22571e-06 -3.97115e-06)
(-3.97458e-06 2.71946e-06 -3.96714e-06)
(-2.80572e-07 1.20029e-06 -4.59983e-06)
(8.55397e-08 7.51741e-06 -5.05884e-06)
(-1.42528e-06 7.43853e-06 5.88366e-07)
(2.40109e-06 9.81421e-07 1.58283e-06)
(3.24107e-06 -3.38127e-06 -4.81565e-06)
(-5.59312e-06 -2.94781e-07 -4.76605e-06)
(-4.00935e-06 5.41308e-07 3.14697e-06)
(3.72683e-06 5.64355e-07 -3.70082e-06)
(-4.76244e-06 5.98964e-06 -3.83316e-06)
(3.0404e-06 1.74843e-06 -4.95611e-06)
(-2.48182e-06 -1.48052e-06 -5.26626e-06)
(-4.27739e-06 -5.63385e-06 -1.676e-06)
(-3.41659e-06 -7.17258e-07 -6.19043e-07)
(-6.92343e-06 -1.9549e-06 -4.82999e-06)
(0.00027885 0.000307642 -3.92182e-05)
(-0.000287494 0.000192646 -7.90126e-05)
(0.000247657 2.10599e-05 -0.000203508)
(7.32276e-05 1.74592e-05 6.21454e-05)
(-7.92816e-05 -0.000113709 6.01312e-05)
(-0.000161954 0.000122859 2.32272e-05)
(-0.000733699 0.000207103 -0.000501778)
(-0.000655161 0.000579702 -8.33073e-05)
(-0.000640046 -3.11958e-06 4.74329e-05)
(-0.000675643 -4.03753e-06 -0.000159019)
(-0.000773375 -3.33963e-05 -0.000199068)
(-0.000249228 -0.00022564 -7.60063e-05)
(-0.000479826 0.00010113 -0.000297711)
(-0.000107168 -7.56853e-05 5.76433e-06)
(1.8317e-05 -0.000448806 -0.00020774)
(-0.000380072 -0.000589868 -0.000256871)
(-0.000415702 -0.000695824 -0.00011399)
(-0.000230661 -0.000263417 9.22621e-06)
(-0.000316014 -0.000427827 1.39447e-05)
(4.45495e-05 -0.000406061 -3.36976e-05)
(3.90942e-05 -0.000206014 -3.40707e-05)
(0.00023876 0.000292066 -1.36893e-05)
(0.000340702 0.000228369 -0.000223408)
(0.000250182 -0.000102331 -3.68791e-05)
(-1.75077e-05 0.000336422 -1.05265e-05)
(-1.39972e-05 0.000165071 -1.33516e-05)
(9.44683e-05 0.000297803 -6.98912e-05)
(8.6893e-05 0.000299541 -0.000298393)
(3.24831e-05 3.01138e-05 1.42575e-05)
(-1.24263e-05 4.9344e-06 -1.23173e-05)
(2.34115e-05 -3.77215e-08 2.66202e-05)
(2.4157e-05 -9.41956e-06 -6.14496e-05)
(-2.01641e-05 -1.58288e-05 -3.6483e-05)
(-3.24589e-05 2.38906e-05 1.81853e-05)
(-4.6053e-05 1.35586e-05 8.31313e-05)
(-5.63864e-05 5.1136e-05 2.83154e-05)
(-3.92122e-05 -8.4618e-06 -3.2811e-05)
(-6.59394e-05 -3.36918e-05 7.26035e-05)
(-7.65413e-05 8.64748e-06 8.54715e-05)
(-1.34067e-05 1.68158e-05 1.84851e-05)
(-1.24349e-05 2.13185e-05 2.1669e-05)
(1.62615e-05 8.00832e-07 -2.71797e-05)
(9.26534e-06 -2.78909e-05 3.27441e-05)
(2.99179e-06 -3.5552e-05 1.65174e-05)
(4.93803e-06 -6.24837e-05 4.56375e-05)
(-3.41269e-06 -5.71081e-07 1.29571e-05)
(2.86624e-06 -4.43998e-05 1.76959e-05)
(1.36598e-05 -3.76951e-05 4.44388e-05)
(1.24288e-05 -2.93121e-05 6.55398e-05)
(2.08122e-05 -3.74504e-05 2.40106e-06)
(1.91265e-05 1.29434e-05 -2.54227e-05)
(4.40096e-05 -2.31868e-06 3.81328e-05)
(1.25109e-06 -3.70806e-06 7.57479e-06)
(7.55101e-07 2.21393e-05 6.53851e-06)
(2.76526e-05 1.53207e-05 4.13015e-05)
(1.04075e-05 1.28666e-05 6.21708e-05)
(-2.33349e-05 -1.5673e-05 6.33519e-06)
(1.03237e-06 -3.0153e-06 -7.63602e-06)
(-1.76732e-05 1.5425e-06 7.05042e-06)
(-1.41358e-05 8.60486e-06 -3.66794e-05)
(1.12751e-05 8.64093e-06 -2.9694e-05)
(1.48719e-05 -1.30264e-05 1.58732e-05)
(2.20798e-05 -4.83071e-06 4.28015e-05)
(3.02753e-05 -2.14788e-05 1.539e-05)
(2.25462e-05 8.93044e-06 -1.95961e-05)
(3.52008e-05 1.98531e-05 3.56711e-05)
(4.12302e-05 -5.33555e-06 5.63891e-05)
(7.1962e-06 -8.32118e-06 5.05931e-06)
(7.39626e-06 -1.15471e-05 1.36735e-05)
(-9.34941e-06 -2.83508e-06 -2.24923e-05)
(-5.88887e-06 1.39091e-05 1.65264e-05)
(-3.38513e-06 1.84155e-05 8.22574e-06)
(-6.07781e-06 3.38232e-05 2.50301e-05)
(1.24962e-06 1.21583e-06 6.64424e-06)
(-9.05536e-07 2.19136e-05 5.84245e-06)
(-8.62711e-06 2.03884e-05 2.53305e-05)
(-7.24305e-06 1.63239e-05 3.43896e-05)
(-1.13081e-05 2.0618e-05 2.51228e-06)
(-1.09055e-05 -5.5494e-06 -1.78928e-05)
(-2.33209e-05 -1.62367e-06 2.28033e-05)
(-3.86666e-06 -1.13609e-06 9.40753e-06)
(-4.56277e-06 -1.0966e-05 2.8049e-07)
(-1.67449e-05 -9.96046e-06 2.70506e-05)
(-9.42404e-06 -8.35262e-06 3.1183e-05)
(-1.20518e-05 -9.36896e-06 4.46826e-06)
(1.37121e-07 -1.54159e-06 -2.63155e-06)
(-9.28547e-06 1.09272e-06 5.83839e-06)
(-8.67355e-06 4.85924e-06 -1.27115e-05)
(6.71006e-06 5.40812e-06 -3.19784e-06)
(9.93193e-06 -7.93806e-06 -3.10048e-06)
(1.17083e-05 -2.89425e-06 1.02475e-05)
(1.67521e-05 -1.23717e-05 5.40603e-06)
(1.08344e-05 3.6182e-06 -5.32751e-06)
(1.82754e-05 1.22658e-05 1.1335e-05)
(2.27023e-05 -1.97298e-06 9.68517e-06)
(3.26021e-06 -5.14083e-06 5.40934e-06)
(3.25989e-06 -6.44125e-06 1.73485e-06)
(-5.98707e-06 -2.44397e-06 -2.51242e-06)
(-4.022e-06 6.80283e-06 4.73464e-06)
(-1.61716e-06 1.03044e-05 1.78607e-06)
(-2.77263e-06 1.81608e-05 7.60047e-06)
(9.37619e-07 -1.95165e-07 5.64111e-06)
(-5.15304e-07 1.22493e-05 5.82812e-06)
(-4.67748e-06 1.1114e-05 7.18884e-06)
(-4.03375e-06 8.57508e-06 1.22385e-05)
(-6.57274e-06 1.21474e-05 9.81575e-07)
(-4.96194e-06 -3.4146e-06 -2.30586e-06)
(-1.34635e-05 -2.2844e-06 5.45087e-06)
(-2.54995e-06 6.11506e-07 -1.69689e-07)
(-2.21907e-06 -6.07207e-06 4.8603e-06)
(-1.06272e-05 -5.03862e-06 6.99283e-06)
(-4.31548e-06 -3.05722e-06 1.26736e-05)
(-8.39528e-06 -4.32791e-06 1.55315e-07)
(6.32921e-08 -1.43914e-06 -6.89877e-07)
(-6.84205e-06 3.53249e-07 5.65665e-07)
(-4.65554e-06 1.57937e-06 -2.68003e-06)
(1.84221e-06 2.85693e-06 -3.26388e-06)
(1.22222e-06 -1.75667e-06 2.25435e-06)
(8.55901e-06 2.48643e-07 5.27405e-06)
(1.05644e-05 -5.91103e-06 2.24546e-06)
(7.87371e-06 2.76356e-06 -1.15755e-06)
(1.06084e-05 4.49984e-06 3.02513e-06)
(1.11731e-05 5.93074e-08 6.43823e-06)
(3.15039e-06 -5.24333e-07 6.15709e-07)
(3.21046e-06 -3.50133e-06 1.69643e-06)
(-1.33237e-06 1.50565e-06 -2.13344e-06)
(-1.54538e-06 6.04847e-06 2.19543e-06)
(-1.20435e-06 5.45214e-06 2.68737e-07)
(-2.25822e-06 1.04938e-05 2.8739e-06)
(-9.47881e-07 2.11728e-06 8.54432e-07)
(5.39784e-07 7.43237e-06 1.17859e-06)
(-2.08822e-06 5.30426e-06 2.02046e-06)
(-2.30892e-06 4.75809e-06 3.69976e-06)
(-2.8551e-06 5.6929e-06 8.99152e-10)
(-2.60564e-06 -1.04127e-06 -2.52717e-06)
(-5.64472e-06 8.63675e-07 2.4097e-06)
(-2.6145e-07 -1.40704e-06 3.88408e-07)
(-1.41796e-06 -3.33871e-06 1.34575e-07)
(-2.88296e-06 -2.00302e-06 2.94229e-06)
(-1.46611e-06 -2.91107e-06 3.18489e-06)
(-0.000254404 0.00032045 -0.000171955)
(-0.000178724 0.00017239 -4.8798e-05)
(0.000109731 0.000225194 -7.56047e-06)
(-0.000159216 -0.000122497 -9.41531e-05)
(-6.28479e-06 2.64152e-05 4.74484e-05)
(1.09983e-05 1.81697e-05 -1.14888e-05)
(3.86169e-05 1.50871e-05 -1.52882e-05)
(-3.56137e-06 -3.84203e-05 -1.36875e-05)
)
;

boundaryField
{
    top_fluid_surface
    {
        type            pressureInletOutletVelocity;
        value           nonuniform List<vector> 
64
(
(0 0 -2.5195e-05)
(0 0 -9.97936e-05)
(0 0 -7.56906e-05)
(0 0 -0.000132785)
(0 0 1.20437e-05)
(0 0 -0.000105975)
(0 0 -2.77528e-05)
(0 0 -6.08313e-05)
(0 0 -0.00019643)
(0 0 -9.49986e-05)
(-0.000499018 0.00021225 0.000274918)
(0 0 -2.21036e-05)
(0 0 -6.99859e-06)
(0 0 -0.00015428)
(-6.24397e-05 7.5983e-05 3.15384e-05)
(0 0 -0.000106251)
(0.000160758 0.00048359 0.000217422)
(0.000239426 1.88082e-05 0.000400139)
(0.00013987 0.000129973 0.000369756)
(4.11094e-06 -0.000464602 0.00049009)
(0 0 -9.76579e-05)
(0 0 -0.000110776)
(-0.000630634 7.35392e-05 0.000386583)
(-8.6868e-05 0.000132777 0.00048797)
(3.96042e-05 0.000202484 3.77114e-05)
(-0.000460334 0.000290169 0.000302201)
(0.000268135 -1.10834e-05 0.000387291)
(4.7458e-05 0.000218332 0.000356663)
(3.38989e-05 0.000257001 0.00028375)
(0.000245999 0.000599947 0.000110165)
(0 0 -5.73407e-05)
(0.000173787 0.000196806 0.000277319)
(0 0 -3.92182e-05)
(0 0 -7.90126e-05)
(0 0 -0.000203508)
(7.32276e-05 1.74592e-05 6.21454e-05)
(-7.92816e-05 -0.000113709 6.01312e-05)
(-0.000161954 0.000122859 2.32272e-05)
(0 0 -0.000501778)
(0 0 -8.33073e-05)
(-0.000640046 -3.11958e-06 4.74329e-05)
(0 0 -0.000159019)
(0 0 -0.000199068)
(0 0 -7.60063e-05)
(0 0 -0.000297711)
(0 0 5.76433e-06)
(0 0 -0.00020774)
(0 0 -0.000256871)
(0 0 -0.00011399)
(-0.000230661 -0.000263417 9.22621e-06)
(-0.000316014 -0.000427827 1.39447e-05)
(0 0 -3.36976e-05)
(0 0 -3.40707e-05)
(0 0 -1.36893e-05)
(0 0 -0.000223408)
(0 0 -3.68791e-05)
(0 0 -1.05265e-05)
(0 0 -1.33516e-05)
(0 0 -6.98912e-05)
(0 0 -0.000298393)
(0 0 -0.000171955)
(0 0 -4.8798e-05)
(0 0 -7.56047e-06)
(0 0 -9.41531e-05)
)
;
    }
    bottom_fluid_surface
    {
        type            noSlip;
    }
    lateral_surface_1
    {
        type            noSlip;
    }
    lateral_surface_2
    {
        type            noSlip;
    }
    lateral_surface_3
    {
        type            noSlip;
    }
    lateral_surface_4
    {
        type            noSlip;
    }
}


// ************************************************************************* //
