/*--------------------------------*- C++ -*----------------------------------*\
| =========                 |                                                 |
| \\      /  F ield         | OpenFOAM: The Open Source CFD Toolbox           |
|  \\    /   O peration     | Version:  v1612+                                |
|   \\  /    A nd           | Web:      www.OpenFOAM.com                      |
|    \\/     M anipulation  |                                                 |
\*---------------------------------------------------------------------------*/
FoamFile
{
    version     2.0;
    format      ascii;
    class       volScalarField;
    location    "5.15";
    object      p;
}
// * * * * * * * * * * * * * * * * * * * * * * * * * * * * * * * * * * * * * //

dimensions      [1 -1 -2 0 0 0 0];

internalField   nonuniform List<scalar> 
320
(
14724.8
14724.8
14724.8
14724.8
4.96607
4.9656
4.96628
4.96649
4.96684
4.96753
4.96761
4.96805
4.96724
4.96666
4.96682
4.96642
4914.89
4914.87
4914.83
4914.88
4914.87
4914.87
4914.87
4914.9
4914.87
4914.88
4914.84
4914.86
14724.8
14724.8
14724.8
14724.8
14724.8
14724.8
14724.8
14724.8
14724.8
14724.8
14724.8
14724.8
24534.8
24534.8
24534.8
24534.8
24534.8
24534.8
24534.8
24534.8
24534.8
24534.8
24534.8
24534.8
24534.8
24534.8
24534.8
24534.8
4.96637
4.96577
4.96648
4.96802
4.96706
4.96641
4.966
4.96594
4.96623
4.96643
4.96671
4.96746
4.96911
4.96858
4.96782
4.9675
4.9667
4.96657
4.96664
4.9662
4914.81
4914.85
4914.83
4914.88
4914.84
4914.85
4914.86
4914.85
4914.86
4914.83
4914.84
4914.83
4914.88
4914.84
4914.84
4914.86
4914.85
4914.8
4914.81
4914.83
14724.8
14724.8
14724.8
14724.8
14724.8
14724.8
14724.8
14724.8
14724.8
14724.8
14724.8
14724.8
14724.8
14724.8
14724.8
14724.8
14724.8
14724.8
14724.8
14724.8
24534.8
24534.8
24534.8
24534.8
24534.8
24534.8
24534.8
24534.8
24534.8
24534.8
24534.8
24534.8
24534.8
24534.8
24534.8
24534.8
24534.8
24534.8
24534.8
24534.8
34344.8
34344.8
34344.8
34344.8
34344.8
34344.8
34344.8
34344.8
34344.8
34344.8
34344.8
34344.8
34344.8
34344.8
34344.8
34344.8
34344.8
34344.8
34344.8
34344.8
34344.8
34344.8
34344.8
34344.8
34344.8
34344.8
34344.8
34344.8
34344.8
34344.8
34344.8
34344.8
34344.8
34344.8
34344.8
34344.8
4.96671
4.96586
4.96577
4.96656
4.96888
4.96591
4.96638
4.96642
4.96597
4.96582
4.96563
4.96619
4.96785
4.96449
4.96637
4.96673
4.9671
4.96823
4.96957
4.96931
4.96832
4.96677
4.9667
4.96662
4.96629
4.9664
4.96695
4.96656
4914.88
4914.8
4914.8
4914.85
4914.89
4914.85
4914.85
4914.88
4914.91
4914.89
4914.88
4914.88
4914.85
4914.81
4914.81
4914.86
4914.87
4914.88
4914.83
4914.81
4914.84
4914.87
4914.86
4914.87
4914.83
4914.8
4914.82
4914.9
14724.8
14724.8
14724.8
14724.8
14724.8
14724.8
14724.8
14724.8
14724.8
14724.8
14724.8
14724.8
14724.8
14724.8
14724.8
14724.8
14724.8
14724.8
14724.8
14724.8
14724.8
14724.8
14724.8
14724.8
14724.8
14724.8
14724.8
14724.8
24534.8
24534.8
24534.8
24534.8
24534.8
24534.8
24534.8
24534.8
24534.8
24534.8
24534.8
24534.8
24534.8
24534.8
24534.8
24534.8
24534.8
24534.8
24534.8
24534.8
24534.8
24534.8
24534.8
24534.8
24534.8
24534.8
24534.8
24534.8
34344.8
34344.8
34344.8
34344.8
34344.8
34344.8
34344.8
34344.8
34344.8
34344.8
34344.8
34344.8
34344.8
34344.8
34344.8
34344.8
34344.8
34344.8
34344.8
34344.8
34344.8
34344.8
34344.8
34344.8
34344.8
34344.8
34344.8
34344.8
4.96727
4.96697
4.96771
4.96743
4914.88
4914.87
4914.84
4914.86
)
;

boundaryField
{
    top_fluid_surface
    {
        type            calculated;
        value           nonuniform List<scalar> 
64
(
-1.82044e-08
-2.89786e-10
0
-1.2183e-09
-5.58316e-09
-9.81246e-09
-7.67744e-09
-4.24828e-12
-4.34105e-09
-1.33624e-08
0
-3.79885e-10
0
0
0
-2.53507e-09
0
0
0
0
-3.03241e-10
0
0
0
-1.56946e-08
0
0
0
0
0
0
0
-1.26456e-08
0
0
0
-3.09224e-09
-2.056e-08
-6.59546e-09
-9.58171e-09
-1.20743e-10
-7.119e-08
-2.58628e-08
-7.96649e-09
-1.18669e-09
0
0
-7.49649e-11
-1.19669e-08
-1.00518e-08
0
0
-2.5037e-09
-1.22287e-09
0
-1.82393e-09
0
0
0
-3.36141e-08
-4.01973e-08
0
0
0
)
;
    }
    bottom_fluid_surface
    {
        type            calculated;
        value           nonuniform List<scalar> 
64
(
39249.8
39249.8
39249.8
39249.8
39249.8
39249.8
39249.8
39249.8
39249.8
39249.8
39249.8
39249.8
39249.8
39249.8
39249.8
39249.8
39249.8
39249.8
39249.8
39249.8
39249.8
39249.8
39249.8
39249.8
39249.8
39249.8
39249.8
39249.8
39249.8
39249.8
39249.8
39249.8
39249.8
39249.8
39249.8
39249.8
39249.8
39249.8
39249.8
39249.8
39249.8
39249.8
39249.8
39249.8
39249.8
39249.8
39249.8
39249.8
39249.8
39249.8
39249.8
39249.8
39249.8
39249.8
39249.8
39249.8
39249.8
39249.8
39249.8
39249.8
39249.8
39249.8
39249.8
39249.8
)
;
    }
    lateral_surface_1
    {
        type            calculated;
        value           nonuniform List<scalar> 
40
(
4.96671
4.96586
4.96577
4.96656
4.96888
4.96591
4.96638
4.96656
4914.88
4914.8
4914.8
4914.85
4914.89
4914.85
4914.85
4914.9
14724.8
14724.8
14724.8
14724.8
14724.8
14724.8
14724.8
14724.8
24534.8
24534.8
24534.8
24534.8
24534.8
24534.8
24534.8
24534.8
34344.8
34344.8
34344.8
34344.8
34344.8
34344.8
34344.8
34344.8
)
;
    }
    lateral_surface_2
    {
        type            calculated;
        value           nonuniform List<scalar> 
40
(
4.96449
4.96637
4.96673
4.9671
4.96823
4.96957
4.96931
4.96832
4914.81
4914.81
4914.86
4914.87
4914.88
4914.83
4914.81
4914.84
14724.8
14724.8
14724.8
14724.8
14724.8
14724.8
14724.8
14724.8
24534.8
24534.8
24534.8
24534.8
24534.8
24534.8
24534.8
24534.8
34344.8
34344.8
34344.8
34344.8
34344.8
34344.8
34344.8
34344.8
)
;
    }
    lateral_surface_3
    {
        type            calculated;
        value           nonuniform List<scalar> 
40
(
4.96638
4.96642
4.96597
4.96582
4.96563
4.96619
4.96785
4.96449
4914.85
4914.88
4914.91
4914.89
4914.88
4914.88
4914.85
4914.81
14724.8
14724.8
14724.8
14724.8
14724.8
14724.8
14724.8
14724.8
24534.8
24534.8
24534.8
24534.8
24534.8
24534.8
24534.8
24534.8
34344.8
34344.8
34344.8
34344.8
34344.8
34344.8
34344.8
34344.8
)
;
    }
    lateral_surface_4
    {
        type            calculated;
        value           nonuniform List<scalar> 
40
(
4.96832
4.96677
4.9667
4.96662
4.96629
4.9664
4.96695
4.96656
4914.84
4914.87
4914.86
4914.87
4914.83
4914.8
4914.82
4914.9
14724.8
14724.8
14724.8
14724.8
14724.8
14724.8
14724.8
14724.8
24534.8
24534.8
24534.8
24534.8
24534.8
24534.8
24534.8
24534.8
34344.8
34344.8
34344.8
34344.8
34344.8
34344.8
34344.8
34344.8
)
;
    }
}


// ************************************************************************* //
