/*--------------------------------*- C++ -*----------------------------------*\
| =========                 |                                                 |
| \\      /  F ield         | OpenFOAM: The Open Source CFD Toolbox           |
|  \\    /   O peration     | Version:  v1612+                                |
|   \\  /    A nd           | Web:      www.OpenFOAM.com                      |
|    \\/     M anipulation  |                                                 |
\*---------------------------------------------------------------------------*/
FoamFile
{
    version     2.0;
    format      ascii;
    class       volScalarField;
    location    "2.4";
    object      alpha.water;
}
// * * * * * * * * * * * * * * * * * * * * * * * * * * * * * * * * * * * * * //

dimensions      [0 0 0 0 0 0 0];

internalField   nonuniform List<scalar> 
320
(
1
1
1
1
6.90373e-06
7.80291e-06
7.31519e-06
5.215e-06
4.58757e-06
6.13789e-06
5.11072e-06
4.93547e-06
6.6583e-06
7.18901e-06
6.01129e-06
4.31878e-06
0.999988
0.999993
0.999993
0.999992
0.999996
0.99999
0.999992
0.999991
0.999986
0.999992
0.999995
0.999994
1
1
1
1
1
1
1
1
1
1
1
1
1
1
1
1
1
1
1
1
1
1
1
1
1
1
1
1
3.99771e-06
6.44529e-06
6.78112e-06
6.89446e-06
6.14335e-06
5.42001e-06
4.37006e-06
4.42067e-06
6.34115e-06
7.4264e-06
5.48655e-06
5.37258e-06
6.45202e-06
5.24784e-06
6.56498e-06
6.25812e-06
5.08042e-06
4.06987e-06
4.34671e-06
6.31801e-06
0.999996
0.999989
0.999996
0.999996
0.999998
0.999996
0.999993
1
0.999998
0.999992
0.999992
0.999997
0.999988
0.999994
0.999994
0.999995
0.999995
0.999996
0.999994
0.999994
1
1
1
1
1
1
1
1
1
1
1
1
1
1
1
1
1
1
1
1
1
1
1
1
1
1
1
1
1
1
1
1
1
1
1
1
1
1
1
1
1
1
1
1
1
1
1
1
1
1
1
1
1
1
1
1
1
1
1
1
1
1
1
1
1
1
1
1
1
1
1
1
1
1
1
1
6.22652e-06
4.81932e-06
8.04702e-06
5.4538e-06
5.08632e-06
5.93723e-06
7.25821e-06
6.10689e-06
4.80918e-06
6.17397e-06
8.72939e-06
8.57604e-06
6.52854e-06
7.06994e-06
7.96807e-06
6.05287e-06
6.4189e-06
6.51329e-06
6.28799e-06
6.2146e-06
7.97497e-06
6.98634e-06
5.20598e-06
5.31502e-06
5.30435e-06
6.72461e-06
7.48939e-06
6.72276e-06
0.999994
0.999997
0.999995
0.999998
0.999996
0.999991
0.99999
0.99999
0.999994
0.999993
0.99999
0.999993
0.999999
0.999996
0.999992
0.999996
0.999996
0.999994
0.99999
0.999993
0.999992
0.999996
0.999997
0.999991
0.999992
0.999996
0.999993
0.999996
1
1
1
1
1
1
1
1
1
1
1
1
1
1
1
1
1
1
1
1
1
1
1
1
1
1
1
1
1
1
1
1
1
1
1
1
1
1
1
1
1
1
1
1
1
1
1
1
1
1
1
1
1
1
1
1
1
1
1
1
1
1
1
1
1
1
1
1
1
1
1
1
1
1
1
1
1
1
1
1
1
1
1
1
8.05247e-06
6.59708e-06
5.34785e-06
4.63587e-06
0.999996
0.999998
0.999998
0.999995
)
;

boundaryField
{
    top_fluid_surface
    {
        type            inletOutlet;
        inletValue      uniform 0;
        value           nonuniform List<scalar> 
64
(
0
0
0
5.215e-06
4.58757e-06
0
5.11072e-06
4.93547e-06
0
0
0
4.31878e-06
3.99771e-06
0
0
0
6.14335e-06
5.42001e-06
4.37006e-06
4.42067e-06
6.34115e-06
0
5.48655e-06
5.37258e-06
0
5.24784e-06
0
0
5.08042e-06
4.06987e-06
4.34671e-06
6.31801e-06
0
4.81932e-06
0
5.4538e-06
5.08632e-06
0
7.25821e-06
0
4.80918e-06
0
0
0
6.52854e-06
0
0
0
0
0
0
6.2146e-06
0
0
5.20598e-06
5.31502e-06
5.30435e-06
0
0
0
0
0
5.34785e-06
4.63587e-06
)
;
    }
    bottom_fluid_surface
    {
        type            zeroGradient;
    }
    lateral_surface_1
    {
        type            zeroGradient;
    }
    lateral_surface_2
    {
        type            zeroGradient;
    }
    lateral_surface_3
    {
        type            zeroGradient;
    }
    lateral_surface_4
    {
        type            zeroGradient;
    }
}


// ************************************************************************* //
