/*--------------------------------*- C++ -*----------------------------------*\
| =========                 |                                                 |
| \\      /  F ield         | OpenFOAM: The Open Source CFD Toolbox           |
|  \\    /   O peration     | Version:  v1612+                                |
|   \\  /    A nd           | Web:      www.OpenFOAM.com                      |
|    \\/     M anipulation  |                                                 |
\*---------------------------------------------------------------------------*/
FoamFile
{
    version     2.0;
    format      ascii;
    class       volScalarField;
    location    "2.4";
    object      p_rgh;
}
// * * * * * * * * * * * * * * * * * * * * * * * * * * * * * * * * * * * * * //

dimensions      [1 -1 -2 0 0 0 0];

internalField   nonuniform List<scalar> 
320
(
-9800.2
-9800.19
-9800.21
-9800.22
-0.00417169
-0.00836962
-0.00567116
0.00361269
0.00668815
-0.000444818
0.00410681
0.0062372
-0.00221682
-0.00464215
0.00383313
0.00788705
-9800
-9800.04
-9800.05
-9800.09
-9800.14
-9800.04
-9800.1
-9800.1
-9799.99
-9800.04
-9800.06
-9800.13
-9800.21
-9800.2
-9800.2
-9800.22
-9800.21
-9800.21
-9800.22
-9800.22
-9800.22
-9800.21
-9800.2
-9800.21
-9800.2
-9800.2
-9800.21
-9800.21
-9800.21
-9800.2
-9800.21
-9800.21
-9800.21
-9800.21
-9800.21
-9800.22
-9800.22
-9800.21
-9800.21
-9800.21
0.00965489
-0.00211721
-0.00383508
-0.00334633
0.0010285
0.00331062
0.00772918
0.00797481
0.000252385
-0.00538039
0.00277282
0.00348396
0.00153114
0.0055355
-0.0011665
-0.00134686
0.00626399
0.00898888
0.00832438
-0.000799195
-9800.16
-9800.01
-9800.08
-9800.08
-9800.14
-9800.14
-9800.12
-9800.19
-9800.15
-9800.03
-9800.09
-9800.14
-9799.98
-9800.12
-9800.06
-9800.08
-9800.13
-9800.16
-9800.13
-9800.11
-9800.21
-9800.21
-9800.2
-9800.2
-9800.2
-9800.21
-9800.22
-9800.2
-9800.2
-9800.2
-9800.21
-9800.21
-9800.21
-9800.21
-9800.21
-9800.21
-9800.21
-9800.21
-9800.21
-9800.21
-9800.21
-9800.21
-9800.2
-9800.2
-9800.21
-9800.21
-9800.21
-9800.2
-9800.2
-9800.2
-9800.21
-9800.21
-9800.21
-9800.21
-9800.21
-9800.21
-9800.21
-9800.21
-9800.21
-9800.21
-9800.21
-9800.21
-9800.21
-9800.21
-9800.21
-9800.2
-9800.21
-9800.21
-9800.21
-9800.21
-9800.21
-9800.21
-9800.21
-9800.21
-9800.21
-9800.21
-9800.21
-9800.21
-9800.2
-9800.21
-9800.21
-9800.21
-9800.21
-9800.21
-9800.2
-9800.2
-9800.21
-9800.21
-9800.21
-9800.21
-9800.21
-9800.21
-9800.21
-9800.21
-9800.21
-9800.21
-0.00177914
0.00481396
-0.0104771
0.00193202
0.00464407
0.000772194
-0.00673867
0.00533369
0.00688066
-0.00145011
-0.0127562
-0.00993947
-0.00015033
-0.00406455
-0.00881549
-0.000311896
-0.0011894
-0.000655477
0.000297445
0.00218405
-0.00621936
-0.00245788
0.00387031
0.00256543
0.00267698
-0.00304616
-0.00644842
-0.00403533
-9800.07
-9800.15
-9800.05
-9800.15
-9800.14
-9800.04
-9800.09
-9800
-9800.12
-9800.06
-9800
-9800.03
-9800.16
-9800.07
-9800.03
-9800.09
-9800.09
-9800.07
-9800.03
-9800.1
-9800.03
-9800.08
-9800.15
-9800.05
-9800.09
-9800.08
-9800.04
-9800.08
-9800.2
-9800.21
-9800.2
-9800.2
-9800.21
-9800.21
-9800.23
-9800.21
-9800.22
-9800.21
-9800.2
-9800.19
-9800.19
-9800.19
-9800.2
-9800.2
-9800.2
-9800.2
-9800.21
-9800.21
-9800.2
-9800.2
-9800.21
-9800.21
-9800.22
-9800.19
-9800.2
-9800.2
-9800.2
-9800.2
-9800.2
-9800.2
-9800.21
-9800.21
-9800.21
-9800.21
-9800.21
-9800.21
-9800.2
-9800.2
-9800.2
-9800.19
-9800.2
-9800.2
-9800.2
-9800.21
-9800.21
-9800.21
-9800.21
-9800.21
-9800.21
-9800.21
-9800.21
-9800.2
-9800.2
-9800.2
-9800.2
-9800.2
-9800.2
-9800.2
-9800.21
-9800.21
-9800.21
-9800.21
-9800.21
-9800.21
-9800.2
-9800.2
-9800.2
-9800.2
-9800.2
-9800.2
-9800.21
-9800.21
-9800.21
-9800.21
-9800.21
-9800.21
-9800.21
-9800.21
-9800.21
-9800.2
-9800.2
-9800.2
-0.00981547
-0.00289211
0.00375342
0.00608201
-9800.06
-9800.11
-9800.15
-9800.13
)
;

boundaryField
{
    top_fluid_surface
    {
        type            totalPressure;
        rho             rho;
        psi             none;
        gamma           1;
        p0              uniform 0;
        value           nonuniform List<scalar> 
64
(
-3.24466e-09
-1.43011e-08
-5.7479e-09
0
0
-4.0911e-10
0
0
-1.1146e-09
-3.87153e-09
0
0
0
-1.58287e-09
-4.43039e-09
-1.42848e-09
0
0
0
0
0
-5.75447e-09
0
0
-5.14387e-09
0
-4.8452e-10
-8.27565e-10
0
0
0
-1.28695e-11
-2.10639e-09
0
-2.86088e-08
0
0
-5.76357e-12
-2.75738e-08
0
0
-3.1483e-09
-3.70903e-08
-1.67855e-08
0
-4.32389e-09
-1.99743e-08
-7.82598e-10
-1.43092e-10
-2.38014e-10
-1.53884e-10
0
-5.31992e-09
-3.9209e-10
0
0
0
-1.781e-09
-7.90534e-09
-4.32133e-09
-1.78008e-08
-1.34191e-09
0
0
)
;
    }
    bottom_fluid_surface
    {
        type            fixedFluxPressure;
        gradient        uniform 0;
        value           nonuniform List<scalar> 
64
(
-9800.21
-9800.21
-9800.21
-9800.21
-9800.21
-9800.2
-9800.21
-9800.21
-9800.21
-9800.21
-9800.21
-9800.21
-9800.21
-9800.21
-9800.21
-9800.21
-9800.21
-9800.21
-9800.2
-9800.21
-9800.21
-9800.21
-9800.21
-9800.21
-9800.2
-9800.2
-9800.21
-9800.21
-9800.21
-9800.21
-9800.21
-9800.21
-9800.21
-9800.21
-9800.21
-9800.21
-9800.2
-9800.2
-9800.2
-9800.2
-9800.21
-9800.21
-9800.21
-9800.21
-9800.21
-9800.21
-9800.2
-9800.2
-9800.2
-9800.2
-9800.2
-9800.2
-9800.21
-9800.21
-9800.21
-9800.21
-9800.21
-9800.21
-9800.21
-9800.21
-9800.21
-9800.2
-9800.2
-9800.2
)
;
    }
    lateral_surface_1
    {
        type            fixedFluxPressure;
        gradient        uniform 0;
        value           nonuniform List<scalar> 
40
(
-0.00177914
0.00481396
-0.0104771
0.00193202
0.00464407
0.000772194
-0.00673867
-0.00403533
-9800.07
-9800.15
-9800.05
-9800.15
-9800.14
-9800.04
-9800.09
-9800.08
-9800.2
-9800.21
-9800.2
-9800.2
-9800.21
-9800.21
-9800.23
-9800.2
-9800.2
-9800.2
-9800.2
-9800.2
-9800.21
-9800.21
-9800.21
-9800.2
-9800.2
-9800.2
-9800.2
-9800.2
-9800.21
-9800.21
-9800.21
-9800.2
)
;
    }
    lateral_surface_2
    {
        type            fixedFluxPressure;
        gradient        uniform 0;
        value           nonuniform List<scalar> 
40
(
-0.00406455
-0.00881549
-0.000311896
-0.0011894
-0.000655477
0.000297445
0.00218405
-0.00621936
-9800.07
-9800.03
-9800.09
-9800.09
-9800.07
-9800.03
-9800.1
-9800.03
-9800.19
-9800.2
-9800.2
-9800.2
-9800.2
-9800.21
-9800.21
-9800.2
-9800.19
-9800.2
-9800.2
-9800.2
-9800.21
-9800.21
-9800.21
-9800.21
-9800.2
-9800.2
-9800.2
-9800.21
-9800.21
-9800.21
-9800.21
-9800.21
)
;
    }
    lateral_surface_3
    {
        type            fixedFluxPressure;
        gradient        uniform 0;
        value           nonuniform List<scalar> 
40
(
-0.00673867
0.00533369
0.00688066
-0.00145011
-0.0127562
-0.00993947
-0.00015033
-0.00406455
-9800.09
-9800
-9800.12
-9800.06
-9800
-9800.03
-9800.16
-9800.07
-9800.23
-9800.21
-9800.22
-9800.21
-9800.2
-9800.19
-9800.19
-9800.19
-9800.21
-9800.21
-9800.21
-9800.21
-9800.2
-9800.2
-9800.2
-9800.19
-9800.21
-9800.21
-9800.21
-9800.21
-9800.2
-9800.2
-9800.2
-9800.2
)
;
    }
    lateral_surface_4
    {
        type            fixedFluxPressure;
        gradient        uniform 0;
        value           nonuniform List<scalar> 
40
(
-0.00621936
-0.00245788
0.00387031
0.00256543
0.00267698
-0.00304616
-0.00644842
-0.00403533
-9800.03
-9800.08
-9800.15
-9800.05
-9800.09
-9800.08
-9800.04
-9800.08
-9800.2
-9800.2
-9800.21
-9800.21
-9800.22
-9800.19
-9800.2
-9800.2
-9800.21
-9800.21
-9800.21
-9800.21
-9800.21
-9800.2
-9800.2
-9800.2
-9800.21
-9800.21
-9800.21
-9800.21
-9800.21
-9800.2
-9800.2
-9800.2
)
;
    }
}


// ************************************************************************* //
