/*--------------------------------*- C++ -*----------------------------------*\
| =========                 |                                                 |
| \\      /  F ield         | OpenFOAM: The Open Source CFD Toolbox           |
|  \\    /   O peration     | Version:  v1612+                                |
|   \\  /    A nd           | Web:      www.OpenFOAM.com                      |
|    \\/     M anipulation  |                                                 |
\*---------------------------------------------------------------------------*/
FoamFile
{
    version     2.0;
    format      ascii;
    class       surfaceScalarField;
    location    "2.4";
    object      phi;
}
// * * * * * * * * * * * * * * * * * * * * * * * * * * * * * * * * * * * * * //

dimensions      [0 3 -1 0 0 0 0];

internalField   nonuniform List<scalar> 
816
(
-3.48199e-06
-5.36435e-07
1.82492e-06
2.25943e-06
-3.34637e-07
2.60597e-07
7.48747e-08
1.49242e-06
-5.25159e-07
2.1433e-06
-6.69103e-06
-1.30775e-06
2.17694e-06
2.55618e-06
2.82462e-06
-6.8374e-06
-1.9338e-07
2.21877e-06
3.9124e-06
-7.2047e-06
-0.000138097
0.000327262
-3.62632e-06
-0.000108854
9.33758e-05
7.30625e-05
-1.79712e-06
4.44957e-05
9.01746e-05
0.000123215
-2.48534e-06
1.72424e-05
0.00016058
4.1233e-05
-8.41657e-07
4.39084e-06
-6.80356e-05
-0.000101548
-5.01865e-07
-0.000175551
5.14793e-05
0.000183261
6.45516e-06
-0.000193686
-7.1626e-05
7.50377e-05
1.10818e-05
-0.000112281
7.09813e-05
1.95862e-05
1.56434e-07
-0.000146964
-4.36336e-05
1.01498e-05
-4.4131e-06
8.24026e-06
9.39492e-05
7.65488e-05
4.82959e-06
0.000104591
-5.2908e-05
0.000223385
-0.000137391
0.000272488
-0.000158844
-1.70028e-06
4.74742e-05
6.34301e-05
-1.60088e-06
7.56607e-06
-1.02491e-05
-4.20058e-06
2.7274e-06
5.02783e-06
-9.37785e-06
-2.25433e-06
1.07604e-06
-1.28996e-06
-2.23303e-06
2.48747e-06
2.3976e-06
-2.78759e-06
4.50615e-06
-4.66688e-06
2.20163e-06
-2.91331e-06
2.85913e-06
1.06136e-06
-3.83593e-06
-2.20127e-06
-2.49389e-06
9.2722e-06
-7.31377e-08
1.10308e-06
1.13571e-06
1.91942e-06
4.21664e-06
-6.03106e-07
9.42917e-07
-4.43547e-06
2.76537e-06
4.22735e-06
-8.85883e-06
-1.49568e-06
3.22908e-06
4.30749e-06
-4.08041e-06
-1.57391e-06
-3.85091e-06
5.10361e-06
-5.46523e-06
-8.67311e-07
8.76454e-07
2.62972e-06
-1.0997e-06
9.05371e-07
-1.22603e-06
-1.46008e-06
-4.47864e-06
-1.29969e-06
-2.13094e-06
-4.93798e-06
-2.05331e-06
-4.47791e-08
-1.49929e-06
-7.66383e-07
-2.00899e-06
8.70751e-07
2.90519e-06
1.20776e-07
9.6328e-07
1.62083e-06
9.42481e-07
6.40286e-07
-8.94956e-07
-1.53333e-08
-1.24863e-06
1.92425e-06
1.19567e-06
8.16961e-07
2.56665e-06
6.65016e-07
1.7289e-06
-1.57716e-06
-3.4763e-06
-3.01778e-08
-1.22059e-06
-1.71015e-06
-2.13335e-06
6.32695e-07
-1.99176e-06
-3.70614e-06
7.00727e-07
1.38995e-06
-2.5962e-06
3.47898e-07
-2.22438e-06
-4.39287e-07
4.54894e-07
1.53785e-06
2.88203e-07
-5.15095e-07
9.4215e-07
-1.37425e-06
8.56501e-07
-1.1676e-06
1.02353e-06
1.76508e-06
7.39819e-07
-2.44853e-07
1.23613e-06
1.21801e-06
-2.55815e-07
-1.0029e-06
-1.45938e-06
-1.32663e-06
-1.51778e-06
-1.78036e-06
-9.47786e-07
-5.2764e-07
-5.99533e-07
-1.74662e-06
-1.4925e-07
6.49693e-07
-4.95061e-07
8.34841e-07
6.84198e-07
9.39379e-07
4.09306e-07
1.62906e-07
5.55434e-07
-6.52225e-07
-2.73734e-07
1.36818e-06
8.94184e-07
2.92202e-07
1.83645e-06
1.19307e-06
-1.97271e-08
-5.11339e-07
1.18348e-07
5.40559e-08
-1.31754e-06
-8.01781e-07
2.70606e-07
-4.22044e-07
-1.73958e-06
-5.54888e-08
-1.23096e-06
-2.07986e-06
4.55932e-07
2.74043e-07
-0.000230739
-7.36253e-05
-2.06698e-06
-4.14175e-05
-9.55767e-05
5.81223e-06
-0.000142842
1.40097e-05
9.34867e-06
9.51943e-05
3.69628e-05
-1.88686e-06
0.00011556
8.41263e-05
-3.72526e-06
-1.40415e-05
-0.000104548
1.87767e-05
-1.45293e-06
3.6388e-05
-0.000136517
4.82077e-06
-0.000162103
-0.000299647
-1.18014e-06
-0.000349921
-0.000258576
-4.01348e-06
-0.000260062
0.00023944
-4.352e-06
-8.06029e-05
-0.000196099
0.000148028
-1.63033e-06
-9.63929e-05
3.65627e-05
3.79673e-06
-0.000131497
0.000135966
-0.000117325
-2.93137e-05
-1.85094e-05
-7.81174e-06
-8.23903e-05
0.000128448
-1.53944e-06
-2.72208e-05
-5.78048e-05
0.000136779
1.3162e-05
7.57097e-05
7.69732e-05
-1.86042e-05
5.0625e-06
-0.000133405
2.12188e-06
-1.29046e-05
-0.000273827
-3.61506e-06
-0.000142812
-1.15869e-05
-0.000159739
-0.00016232
-4.58265e-06
-1.96178e-06
7.44762e-06
-5.13002e-06
4.92943e-07
1.28638e-06
-4.60031e-06
4.83123e-06
3.57329e-06
-4.93014e-07
-9.11377e-07
2.35202e-06
5.60722e-07
3.78836e-06
4.79135e-06
-1.05085e-05
-8.83014e-06
-8.52476e-07
2.96026e-06
-5.48717e-06
1.62106e-06
6.25992e-06
-1.0704e-05
-6.7137e-07
1.17253e-05
-9.28444e-06
-9.37971e-06
4.55192e-06
-3.94989e-07
-2.41228e-06
-1.37423e-05
8.47321e-06
-9.21063e-06
-2.568e-06
2.94165e-06
-4.41288e-06
-2.10893e-06
5.22412e-06
8.38708e-08
4.26863e-06
-3.0758e-06
-1.51132e-06
3.43906e-06
-2.87344e-06
-6.13502e-06
1.47265e-07
-1.09688e-06
3.15987e-06
4.80502e-06
4.6532e-06
-8.09639e-07
5.07317e-06
1.72793e-06
7.81594e-07
-1.13419e-05
-1.6782e-06
7.99792e-06
-8.46128e-06
-6.22117e-06
1.53075e-06
-5.34318e-06
-6.74252e-06
-8.66903e-06
-5.95616e-06
-1.85675e-06
4.13314e-06
3.99007e-06
-1.42584e-06
-1.76137e-06
1.35322e-06
-1.47535e-06
-2.92069e-07
1.75321e-06
-1.70047e-06
1.60867e-06
5.96098e-07
-9.23667e-07
-3.88025e-07
1.87258e-06
7.58655e-07
4.13271e-06
-4.57649e-07
1.35649e-06
-3.69922e-07
4.45465e-07
4.07333e-06
1.36925e-06
3.86716e-06
5.30376e-06
3.94596e-06
4.5053e-06
1.6672e-06
2.20087e-06
-9.9187e-07
-6.73351e-06
-2.61808e-06
1.09932e-06
-1.87004e-07
2.53289e-06
-1.70223e-06
3.1687e-06
2.29395e-06
4.0529e-07
1.90506e-06
-9.55922e-07
9.0679e-07
7.37152e-07
-1.36805e-06
-3.83535e-07
-2.01834e-06
-1.09379e-06
2.15863e-06
5.57762e-07
-1.88515e-06
-8.11431e-07
-1.43336e-06
-1.06479e-06
2.98323e-07
2.82798e-07
1.14037e-06
4.22482e-06
2.25436e-06
1.13545e-06
7.47045e-07
1.11054e-06
-2.99048e-06
-1.58759e-06
3.09798e-06
-1.20241e-06
3.00456e-06
8.95013e-07
-7.95133e-07
-5.33172e-07
3.07477e-07
-1.08998e-06
-9.35694e-08
9.88063e-07
-1.44806e-06
5.59924e-07
4.10218e-07
-1.07129e-06
-2.70553e-07
7.0919e-07
6.5658e-10
1.98948e-06
-4.19499e-07
5.42919e-07
-8.19023e-07
9.17791e-07
1.39938e-06
8.41888e-07
3.06958e-06
1.35022e-06
2.73976e-06
3.12197e-06
4.48513e-07
1.71592e-06
-1.32971e-06
-1.7359e-06
-1.39729e-06
8.411e-07
6.03057e-08
1.0042e-06
-5.10843e-07
2.14378e-06
5.91459e-07
4.84537e-07
1.59525e-06
-3.2731e-07
9.90067e-07
1.11159e-06
-5.16558e-07
-3.0899e-07
-1.66206e-06
-5.04361e-07
1.25318e-06
8.87467e-07
-1.68801e-06
-1.48511e-07
-6.09206e-07
-1.2258e-06
1.94134e-07
-1.19475e-07
6.94599e-07
9.03952e-07
1.33135e-06
6.19077e-07
1.05866e-07
1.16959e-06
-8.31761e-07
-9.93457e-07
2.44804e-06
-1.34222e-06
2.95592e-07
-2.26881e-08
1.34761e-06
2.51132e-07
-3.52606e-08
-7.10723e-07
-8.70515e-07
8.36529e-07
1.05819e-06
-3.63766e-07
9.53786e-07
-7.31339e-07
8.33592e-08
-7.04918e-07
-7.8426e-07
-9.28551e-07
7.68554e-08
-3.51615e-07
-6.66821e-07
5.15118e-07
-3.17185e-07
4.06093e-07
1.54119e-07
4.86148e-07
-6.92287e-08
-3.01877e-07
1.11738e-06
6.00049e-07
1.28938e-06
6.26302e-07
-7.44663e-07
4.09926e-07
2.66949e-07
-5.95659e-07
4.67129e-07
-9.74786e-07
4.79765e-07
-1.07498e-06
4.43286e-07
-1.02008e-06
1.57461e-06
-7.37663e-07
-8.89159e-07
-5.37274e-07
-1.65368e-07
-6.58569e-07
2.99414e-07
-4.02734e-07
-2.12109e-08
-1.23167e-08
1.00663e-06
-2.6643e-08
-1.30568e-07
6.35845e-07
4.24316e-07
1.39853e-06
7.42657e-07
1.3134e-06
4.81787e-07
-2.6773e-07
-5.77556e-07
4.24477e-07
5.67994e-07
-1.42045e-07
1.41938e-06
3.07955e-07
1.16203e-06
4.97337e-07
8.10429e-07
1.975e-07
-1.06752e-06
7.90436e-07
5.49048e-07
-1.01204e-06
2.88455e-08
-6.41269e-07
2.76951e-07
-6.34638e-08
7.9369e-07
-7.0312e-08
5.39556e-07
-5.82428e-07
1.24089e-06
3.22747e-05
-0.000103834
1.38903e-05
-0.000197645
3.74675e-06
9.07775e-05
1.44331e-05
0.000102277
3.70606e-06
3.73849e-06
2.55434e-06
-7.9343e-06
4.78306e-06
-9.64766e-05
0.00014634
3.95119e-05
-0.000145559
-0.000180951
-2.24611e-06
-0.000286365
2.22908e-05
-0.000115088
5.1052e-07
2.15447e-05
-7.2845e-06
-7.0592e-05
-2.75141e-06
9.55455e-05
6.98985e-06
0.000268097
5.19532e-06
0.000193125
1.46804e-05
0.000110673
-5.40349e-06
0.000108002
-9.6721e-06
1.04658e-05
1.26615e-05
-9.52283e-05
-1.26334e-05
0.000147918
-1.19372e-05
0.000176678
-6.93459e-06
5.82799e-05
3.98934e-06
-1.39611e-05
-0.000155911
-0.000135033
4.63037e-06
-0.000151993
-6.94363e-07
-5.82382e-05
-3.23561e-06
4.66395e-06
3.09187e-06
-1.77273e-06
3.97554e-06
-2.60894e-06
4.97414e-06
4.9549e-06
2.01249e-06
1.69652e-06
6.52167e-06
-7.16742e-06
6.54513e-06
-2.71622e-06
2.09963e-06
1.41914e-06
-8.72535e-06
1.06905e-07
-9.43516e-06
-4.83154e-06
7.60151e-06
3.33268e-06
3.1593e-06
1.02366e-05
-1.49753e-05
6.52655e-06
-1.04233e-05
-6.11332e-06
8.41048e-06
-4.38526e-06
5.52009e-06
-2.21779e-07
-8.08682e-06
3.08379e-06
7.89065e-06
-2.92805e-06
2.16878e-06
6.50731e-07
-3.74261e-06
1.01276e-05
1.11509e-06
4.84428e-06
-5.32687e-06
-1.0982e-06
-1.08759e-05
-5.74105e-06
-1.73051e-06
-1.01141e-05
7.46185e-06
1.87123e-06
3.56202e-06
3.38728e-06
-6.33302e-06
-8.18578e-07
-2.81413e-06
-4.10142e-06
-1.0953e-05
-1.48076e-06
-1.68922e-06
2.1385e-06
1.93883e-06
-8.3382e-07
2.6918e-06
-1.58423e-06
1.29176e-06
-1.19047e-07
3.35985e-06
2.16325e-06
3.33953e-06
3.636e-06
1.42281e-06
-1.47767e-06
-3.66319e-06
-2.52921e-06
-4.30787e-06
5.18698e-07
4.15596e-06
3.13618e-06
1.90713e-06
-6.85738e-07
-7.20746e-06
-3.38487e-06
-5.52074e-06
-1.36903e-06
3.76777e-06
1.66845e-06
2.48315e-06
-1.24287e-06
-4.07953e-06
1.17849e-06
3.76344e-06
2.89338e-06
8.30555e-07
2.33801e-06
-2.29933e-06
2.08286e-06
9.93672e-07
1.59819e-06
-2.73532e-06
-3.4801e-06
-5.8086e-06
-2.71836e-06
-1.92646e-06
5.01867e-08
3.25992e-06
1.72132e-06
2.15799e-06
3.93334e-07
-2.77916e-06
5.35939e-07
-1.83721e-06
-1.66706e-06
-5.66653e-06
-1.01342e-06
-1.42329e-06
1.88833e-06
4.72308e-07
-7.79714e-07
1.23979e-06
-8.74997e-07
2.99812e-07
-2.48472e-07
1.25567e-06
9.672e-07
1.00437e-06
1.98404e-06
4.97637e-07
-6.02573e-07
-1.00183e-06
-1.65537e-06
-1.3623e-06
7.29832e-07
9.3259e-07
3.12139e-06
3.53495e-07
2.13036e-07
-1.5639e-06
-2.19756e-06
-1.39643e-06
-8.02869e-07
9.8323e-07
9.49995e-07
7.30031e-07
-1.23326e-06
-1.06427e-06
7.78371e-07
1.2175e-06
1.81597e-06
2.62848e-07
1.18263e-06
-7.17429e-07
2.0252e-06
-1.92215e-07
1.66383e-06
-1.16559e-06
-2.31421e-06
-1.87262e-06
-2.65268e-06
-7.18789e-07
-6.2805e-07
6.16462e-07
1.08822e-06
3.1275e-07
4.92067e-07
-8.57165e-07
3.17444e-07
-5.12464e-07
-1.12984e-06
-1.78115e-06
-2.65286e-07
-1.04514e-06
9.24479e-07
-5.54494e-07
-7.76026e-07
-1.70406e-07
4.0811e-07
8.54692e-07
-1.4986e-07
-5.09202e-07
2.94068e-07
1.0723e-06
2.47856e-07
-6.68218e-07
-2.54856e-07
4.81105e-07
-1.59308e-07
8.87216e-07
1.42274e-06
1.17347e-06
1.16478e-06
7.85589e-07
-1.09867e-06
-1.28104e-06
-6.38671e-07
-5.20988e-08
-1.37835e-07
-1.03755e-07
-6.57639e-07
-4.21269e-06
0.000215006
3.65367e-06
9.71898e-05
3.71561e-06
1.17794e-05
-1.24141e-06
8.14767e-06
-3.87215e-07
-1.46899e-07
-3.29676e-06
-9.26176e-07
)
;

boundaryField
{
    top_fluid_surface
    {
        type            calculated;
        value           nonuniform List<scalar> 
64
(
-0.000158372
-0.0003302
-0.00021637
0.000143044
0.000264736
-3.87276e-05
0.000130004
0.000240235
-9.40233e-05
-0.000162736
6.37145e-05
0.000350794
0.000398598
-0.000102187
-0.000172157
-0.000112933
5.92635e-05
0.000161222
0.000307493
0.000332889
5.33129e-05
-0.000209107
0.000112688
0.000122485
-2.84493e-05
0.000223242
-6.34738e-05
-5.33928e-05
0.000255329
0.000382717
0.000360425
-2.12774e-06
-0.000104241
0.000182932
-0.000448457
7.48675e-05
0.000203804
-3.2683e-08
-0.000166549
9.05147e-05
0.000231631
-0.000110988
-0.000524161
-0.000368917
3.46368e-05
-0.00017634
-0.000377086
-4.79447e-05
-4.59206e-05
-5.71166e-05
-1.84457e-05
9.78939e-05
-0.000219288
-6.86153e-05
0.000173442
4.24311e-05
9.13829e-05
-0.000116605
-0.000244768
-0.000173175
-0.000369016
-0.000103076
0.000118176
0.000214749
)
;
    }
    bottom_fluid_surface
    {
        type            calculated;
        value           uniform 0;
    }
    lateral_surface_1
    {
        type            calculated;
        value           uniform 0;
    }
    lateral_surface_2
    {
        type            calculated;
        value           uniform 0;
    }
    lateral_surface_3
    {
        type            calculated;
        value           uniform 0;
    }
    lateral_surface_4
    {
        type            calculated;
        value           uniform 0;
    }
}


// ************************************************************************* //
