/*--------------------------------*- C++ -*----------------------------------*\
| =========                 |                                                 |
| \\      /  F ield         | OpenFOAM: The Open Source CFD Toolbox           |
|  \\    /   O peration     | Version:  v1612+                                |
|   \\  /    A nd           | Web:      www.OpenFOAM.com                      |
|    \\/     M anipulation  |                                                 |
\*---------------------------------------------------------------------------*/
FoamFile
{
    version     2.0;
    format      ascii;
    class       volVectorField;
    location    "2.4";
    object      U;
}
// * * * * * * * * * * * * * * * * * * * * * * * * * * * * * * * * * * * * * //

dimensions      [0 1 -1 0 0 0 0];

internalField   nonuniform List<vector> 
320
(
(-4.68459e-06 -2.82236e-06 5.56496e-07)
(-1.12551e-06 -2.61286e-06 -3.66471e-06)
(-3.14586e-06 1.5242e-06 -5.52859e-06)
(3.92445e-08 2.5587e-06 -6.76018e-06)
(-0.000295264 2.8751e-05 -8.05564e-05)
(1.27772e-05 2.33148e-05 -0.000169122)
(0.000153796 5.45406e-05 -0.000107219)
(7.50154e-05 0.000150667 7.54423e-05)
(-5.83372e-05 -6.75107e-05 0.000135036)
(-0.000123811 -0.000101321 -2.86045e-05)
(-0.000204494 -9.26569e-05 5.46315e-05)
(7.04766e-06 -9.41523e-05 0.000121183)
(-4.10221e-05 4.61181e-05 -4.72144e-05)
(-0.00015079 -5.3909e-05 -8.79946e-05)
(-0.000351807 -0.000155035 0.000166153)
(-0.000309067 -0.000189925 0.000180143)
(-6.32249e-06 5.18367e-06 1.00906e-05)
(3.76114e-06 3.52193e-06 1.14374e-05)
(5.63771e-06 -3.7851e-06 2.8745e-06)
(-2.90342e-06 -2.95155e-07 -5.93908e-06)
(6.40656e-06 -4.05867e-06 -4.18103e-06)
(9.78008e-06 -1.81375e-07 3.08941e-06)
(-4.17754e-06 1.51648e-06 -1.21112e-06)
(2.27395e-06 -3.62854e-06 -2.13077e-06)
(-1.44791e-06 -1.36898e-06 9.39066e-06)
(-4.89102e-06 -7.36767e-06 3.52129e-06)
(-2.54872e-06 -3.29606e-06 5.78381e-06)
(-6.96605e-06 -3.79894e-06 -5.74876e-06)
(8.53768e-07 -1.90102e-07 8.2809e-06)
(-2.61135e-06 2.1187e-07 9.10015e-06)
(-2.4034e-06 -1.58116e-07 2.6632e-06)
(-5.6399e-07 -1.71802e-07 -4.80203e-06)
(-4.27395e-07 2.48274e-06 -2.66351e-06)
(-1.161e-06 -7.15175e-07 1.37358e-06)
(-1.66985e-07 1.75103e-06 -2.02761e-06)
(-3.66053e-06 2.2409e-06 -8.81058e-07)
(-8.40301e-07 1.18089e-06 5.92556e-06)
(-1.39682e-06 1.53487e-06 4.21833e-06)
(-2.35852e-07 1.38681e-06 6.16978e-06)
(1.48485e-06 3.29179e-06 -1.40086e-06)
(-2.90197e-06 -1.37071e-06 -4.75018e-07)
(-1.58695e-06 -2.04457e-06 -1.53287e-06)
(-2.1459e-06 4.3936e-07 -8.71918e-07)
(-5.0649e-07 8.81629e-07 -1.42098e-06)
(1.09735e-06 7.88435e-07 1.73752e-06)
(-1.42712e-06 4.69262e-07 7.75567e-07)
(-2.07044e-06 -6.32174e-07 -5.91299e-09)
(-1.56122e-06 -4.50077e-07 -6.89488e-07)
(-8.90512e-08 1.80746e-06 -3.42633e-07)
(-1.83266e-07 -5.60083e-07 5.7761e-07)
(-2.18845e-07 1.34406e-06 -8.89023e-08)
(-2.17267e-06 1.18615e-06 2.65045e-07)
(-1.21744e-06 7.20302e-07 2.12576e-06)
(-8.57498e-07 1.52324e-07 4.47626e-07)
(2.31397e-07 1.19869e-06 1.32752e-06)
(8.42067e-07 2.79917e-06 -3.57038e-07)
(-0.000162797 4.99725e-05 0.000206746)
(-0.000239004 0.00016141 -5.62649e-05)
(1.52007e-05 -0.000113447 -9.41318e-05)
(2.99257e-05 -9.25571e-05 -5.34505e-05)
(1.47579e-05 5.78026e-05 3.65914e-05)
(0.000149752 6.86219e-05 8.4753e-05)
(-6.23725e-05 -3.79534e-05 0.000153642)
(-0.000305601 -0.000219784 0.000174407)
(-0.00022384 -0.00029424 3.769e-05)
(-0.000155297 -0.000277517 -0.00010728)
(-0.000259859 -5.96506e-05 6.01611e-05)
(-2.79221e-05 -0.000119929 6.02565e-05)
(-0.000104654 -0.000111026 0.000101429)
(-7.41617e-05 -2.16684e-05 0.000118523)
(0.000100677 -6.12979e-05 -3.11294e-05)
(-0.000115018 -0.000170426 -4.06833e-05)
(-3.81134e-05 -0.000133058 0.000147428)
(-8.41339e-05 2.63149e-05 0.00019502)
(0.000169346 0.000218674 0.000185822)
(0.000276836 0.000269542 5.05742e-06)
(-4.00445e-06 4.83844e-06 -1.05555e-05)
(-3.83624e-06 3.03936e-06 -1.18285e-06)
(5.40511e-06 -1.73917e-07 -2.80295e-06)
(3.50361e-06 -1.59787e-06 -2.48414e-06)
(-6.34108e-06 1.03732e-05 -6.52527e-06)
(-1.9523e-06 -2.88556e-06 -5.30416e-06)
(-6.87098e-06 3.26579e-07 -9.13819e-06)
(-4.68043e-06 4.10519e-06 -1.35189e-05)
(5.92439e-06 -5.70262e-06 -7.02135e-06)
(7.65097e-06 -1.1922e-05 1.4095e-05)
(-8.12852e-07 -8.05542e-07 -4.15802e-06)
(4.4652e-06 2.27371e-06 -5.59718e-06)
(-5.83381e-07 -3.42477e-06 3.24215e-06)
(-5.69929e-06 -1.84338e-06 1.9851e-06)
(-3.43451e-06 2.49713e-06 1.74218e-06)
(-6.61128e-06 -2.82072e-06 1.51188e-06)
(9.53969e-06 -4.54535e-06 -2.17439e-06)
(5.89431e-06 3.7309e-07 -1.13523e-05)
(5.71661e-06 3.7279e-06 -3.67811e-06)
(7.39642e-06 8.5393e-06 6.39876e-06)
(-2.65695e-06 1.7086e-06 -6.44232e-06)
(-1.60451e-06 2.61019e-06 -2.17335e-06)
(-1.15745e-06 3.54952e-06 -2.786e-06)
(3.23055e-07 1.80698e-06 -9.57779e-07)
(3.33069e-06 -2.5242e-07 -2.73174e-06)
(-1.18658e-06 -6.75093e-07 -1.45424e-06)
(9.71895e-07 -6.36798e-07 -5.8489e-06)
(2.77107e-06 1.96166e-06 -9.25982e-06)
(1.22178e-06 5.19884e-06 -2.24813e-06)
(-4.26253e-07 3.1665e-06 1.25151e-05)
(3.0204e-06 -2.29609e-06 -3.28971e-06)
(-2.91683e-06 3.18722e-07 -4.19825e-06)
(-2.57572e-06 1.50788e-06 1.89103e-06)
(-1.07175e-06 -1.13369e-06 2.5623e-06)
(-6.99838e-07 2.42085e-06 1.17844e-06)
(2.73012e-06 1.91591e-06 8.39012e-07)
(-1.79226e-08 2.12867e-06 -4.98454e-08)
(-8.70352e-07 5.92446e-08 -6.8217e-06)
(-1.87937e-06 -2.61134e-06 -7.50657e-07)
(-5.06846e-06 6.78573e-07 5.53555e-06)
(-2.12606e-06 1.11262e-06 -9.02787e-07)
(-5.72071e-07 2.03525e-06 -5.16181e-08)
(-1.66346e-07 2.7177e-06 -1.43499e-06)
(-1.54238e-07 1.67689e-06 -6.46196e-07)
(1.46065e-06 2.88813e-07 -1.08482e-06)
(-1.30325e-06 -9.37729e-07 -8.60241e-07)
(5.37096e-07 -6.31791e-08 -1.43301e-06)
(2.29063e-06 2.25958e-06 -1.88673e-06)
(1.48267e-06 3.48438e-06 -8.77922e-07)
(4.69675e-07 2.31594e-06 1.82921e-06)
(2.05127e-06 -9.63994e-07 -1.01069e-06)
(-2.25272e-06 7.25812e-07 -7.48805e-07)
(-1.52215e-06 1.56567e-06 5.101e-07)
(-1.46681e-06 -3.84455e-07 7.60141e-07)
(-1.18663e-06 1.62946e-06 5.23722e-07)
(9.81826e-07 1.79546e-06 2.35428e-07)
(1.93997e-07 1.8882e-06 -2.31379e-07)
(-1.9134e-07 3.28855e-07 -9.15721e-07)
(-1.71884e-06 -1.56903e-06 -2.9763e-08)
(-3.65784e-06 4.68143e-07 1.20262e-06)
(-1.86089e-06 -2.52092e-07 7.51942e-08)
(-8.14347e-07 -4.0045e-07 -2.36862e-07)
(-1.20906e-06 7.91926e-07 -4.03276e-07)
(-6.29745e-07 8.72813e-07 -7.02918e-07)
(-1.85072e-07 3.36729e-07 7.32174e-07)
(-1.00769e-06 4.78351e-07 9.27265e-07)
(-8.31492e-07 -2.44385e-08 2.36613e-07)
(-8.2344e-07 1.25855e-07 -6.65628e-07)
(-1.96771e-07 1.01461e-06 -3.66042e-07)
(-4.53865e-07 -2.90843e-07 1.47463e-08)
(-5.91662e-07 8.43244e-07 -3.67478e-07)
(-1.53498e-06 6.4982e-07 -2.91006e-07)
(-8.21618e-07 7.65287e-07 3.07196e-07)
(-6.67352e-07 5.46902e-07 2.10762e-07)
(-6.1569e-07 6.23535e-07 8.06672e-07)
(-2.78193e-08 1.35207e-06 -4.08626e-07)
(-1.25415e-06 8.98067e-07 -8.03524e-07)
(-9.87172e-07 1.06762e-06 -4.68185e-07)
(-4.53179e-07 1.28963e-06 -3.28703e-07)
(-2.37182e-08 7.60083e-07 -1.07035e-07)
(7.47283e-07 2.58809e-07 -4.52423e-07)
(-3.7821e-07 -3.21371e-07 -3.4262e-07)
(1.94223e-07 2.34271e-07 -1.0737e-06)
(6.01724e-07 1.24239e-06 -7.23317e-07)
(3.51741e-07 1.39455e-06 -1.50744e-07)
(1.59778e-07 1.07864e-06 1.30887e-06)
(3.54534e-07 -3.55531e-07 -7.6827e-07)
(-1.57041e-06 5.25547e-07 -3.32278e-07)
(-1.1311e-06 7.73715e-07 1.03948e-08)
(-1.06067e-06 1.99761e-07 9.56814e-08)
(-7.68947e-07 1.09044e-06 4.26859e-07)
(1.08844e-07 1.04314e-06 8.47085e-08)
(-4.04549e-07 9.97855e-07 -2.78518e-07)
(-4.23456e-07 3.87441e-07 -8.28e-07)
(-8.68114e-07 -3.01732e-07 -3.0632e-07)
(-1.79035e-06 4.84797e-07 3.30558e-07)
(0.000246984 0.000117904 -6.49059e-05)
(-0.000200771 6.06569e-05 9.06198e-05)
(-0.000131616 0.00015579 -0.000239202)
(0.000267403 -4.66716e-05 3.69191e-05)
(-1.75653e-05 -9.61723e-05 0.00010359)
(2.67685e-05 1.699e-07 -3.39516e-06)
(-5.5295e-05 -0.000108008 -0.000233988)
(-0.000163758 2.95612e-05 0.000185658)
(-8.31297e-05 -2.21782e-05 0.000122718)
(-0.000254808 -0.000303647 -7.93511e-05)
(-0.000348574 -0.000228067 -0.000272361)
(-0.000264051 4.82163e-05 -0.000183224)
(-7.0201e-06 -2.26109e-05 2.64016e-05)
(-9.7434e-06 -0.000155615 -9.29934e-05)
(-0.000186333 -0.000153081 -0.000199871)
(-0.000280964 -0.000124586 -3.95626e-05)
(-0.00015274 -0.000131859 -1.6917e-05)
(-9.12376e-05 2.14817e-07 -2.18181e-05)
(-9.08339e-05 -0.000145248 -1.75433e-05)
(6.67472e-05 1.72232e-05 5.95724e-05)
(0.000114837 -0.00011105 -0.00010315)
(-1.3565e-05 -0.000203315 -2.80032e-05)
(-2.74477e-05 -9.2751e-05 8.69025e-05)
(6.40555e-05 -2.29313e-05 0.000182463)
(8.24274e-05 5.19545e-05 3.78374e-05)
(8.97794e-05 0.000170988 -5.96826e-05)
(3.52035e-05 0.000128419 -0.00012574)
(-5.17658e-05 3.11712e-05 -9.29659e-05)
(5.58688e-06 6.6473e-06 -2.3311e-06)
(-1.46586e-06 4.42123e-06 -5.73069e-06)
(-1.31049e-06 4.10848e-06 7.34594e-07)
(8.39808e-06 1.89559e-06 -6.38309e-06)
(-4.90901e-06 1.11578e-06 -8.37834e-06)
(-6.71115e-06 1.03089e-05 -1.82836e-06)
(-6.66525e-07 1.486e-06 9.17396e-06)
(-9.48949e-06 3.16152e-06 1.00839e-05)
(-7.87881e-06 -4.31517e-06 -9.14449e-06)
(-1.09188e-05 -3.02384e-06 -8.45144e-07)
(-1.12283e-05 8.73617e-06 1.9354e-05)
(-6.28729e-06 1.21497e-05 1.18836e-05)
(6.62412e-06 -1.71387e-06 -1.06316e-05)
(3.92122e-06 -8.09445e-06 -4.53069e-06)
(5.01568e-06 -5.39117e-06 1.20847e-05)
(-4.41666e-06 -5.45913e-06 -6.38666e-06)
(-1.55831e-06 -1.78762e-06 -1.46713e-06)
(6.39115e-06 5.64458e-07 5.71164e-06)
(-7.36973e-06 -8.76215e-06 -4.57964e-07)
(-1.10104e-05 2.23457e-06 4.14624e-06)
(-1.20236e-06 -1.18621e-06 1.07676e-05)
(-4.62299e-06 2.55587e-06 1.07304e-06)
(-1.14325e-06 1.1605e-05 -8.28235e-06)
(9.80306e-06 5.1379e-06 -2.05041e-06)
(8.54023e-06 -7.11892e-06 6.6484e-06)
(2.31074e-06 -2.29661e-06 3.96738e-06)
(2.5158e-06 4.70793e-06 1.30337e-05)
(-1.52e-06 2.61112e-06 3.21651e-06)
(-3.24847e-06 2.07518e-06 -4.23268e-06)
(-4.46785e-07 8.13317e-07 -4.23355e-06)
(-9.87053e-07 -1.34931e-07 -3.32263e-06)
(-1.80819e-06 1.95858e-07 -5.71035e-06)
(1.39844e-06 5.15656e-07 -5.79192e-06)
(3.57675e-06 -8.79585e-07 -2.58895e-06)
(2.85557e-06 2.69571e-07 6.27378e-06)
(4.00473e-06 -2.95638e-06 7.3859e-06)
(1.51734e-07 -2.51686e-06 -7.47918e-06)
(2.1629e-06 3.78581e-06 -4.38754e-06)
(4.57417e-06 2.73279e-06 1.28429e-05)
(2.93399e-06 -3.91234e-06 1.00758e-05)
(-4.53704e-06 -3.05876e-06 -5.93644e-06)
(-3.2913e-06 5.0956e-07 -4.63622e-06)
(4.59168e-07 -7.36157e-07 6.22347e-06)
(1.68691e-06 -3.75858e-07 -7.19987e-06)
(-3.97096e-06 5.97395e-07 -1.77234e-06)
(-2.2082e-06 6.78211e-07 3.17623e-06)
(-1.75326e-06 2.29841e-07 -2.39044e-06)
(-2.61173e-06 1.35975e-06 4.86004e-06)
(-1.15928e-06 2.14174e-06 1.0351e-05)
(-3.77283e-07 4.20814e-06 3.21993e-06)
(6.27933e-07 1.86286e-06 -6.35046e-06)
(-4.30379e-07 -2.06553e-06 -4.58178e-06)
(-3.56627e-06 -4.74687e-07 4.42283e-06)
(-9.64304e-07 -9.06466e-07 2.96222e-06)
(-1.86148e-06 3.39638e-07 9.48465e-06)
(-1.30328e-06 2.6334e-06 8.90218e-07)
(-2.4956e-06 1.17936e-06 -3.77917e-07)
(-7.25044e-07 3.16575e-07 -1.45976e-06)
(-5.07725e-07 -2.21649e-07 -6.11345e-08)
(-1.06876e-06 2.52229e-07 -1.6341e-06)
(3.58443e-07 6.80762e-07 -1.08861e-06)
(1.92085e-06 -2.60447e-07 -4.22782e-07)
(1.58067e-06 2.20556e-07 1.68931e-06)
(2.06167e-06 -1.54721e-06 1.9396e-06)
(-2.5535e-07 -1.55573e-06 -8.92201e-07)
(1.44367e-06 3.14379e-06 -1.04344e-07)
(2.95161e-06 2.75304e-06 1.71049e-06)
(1.93712e-06 -2.38103e-06 1.37314e-06)
(-2.9138e-06 -1.81198e-06 -1.59405e-06)
(-2.19079e-06 3.90344e-07 -1.13068e-06)
(6.34681e-07 -3.32662e-07 1.08123e-06)
(1.40686e-06 2.25337e-07 -1.45474e-06)
(-2.7485e-06 3.1174e-07 -3.31132e-07)
(-1.0624e-06 7.21117e-07 8.65923e-07)
(-1.28123e-06 -1.48005e-07 7.17557e-07)
(-2.55902e-06 5.35544e-07 1.48647e-06)
(-1.01029e-06 1.22438e-06 2.17405e-06)
(-3.21451e-07 3.15639e-06 6.76126e-07)
(5.16639e-07 2.10093e-06 -5.4041e-07)
(-1.59742e-08 -1.02084e-06 -4.43861e-08)
(-2.39239e-06 -7.14145e-07 1.48686e-06)
(-1.05898e-06 -6.67346e-07 4.74408e-07)
(-1.49072e-06 3.35849e-07 2.22626e-06)
(-1.19127e-06 1.47881e-06 4.07604e-07)
(-1.43805e-06 5.05752e-07 -3.55082e-07)
(-6.10637e-07 4.21014e-07 -7.7297e-07)
(-5.76634e-07 -1.37761e-07 -3.63393e-07)
(-7.00157e-07 1.04765e-08 -5.68558e-07)
(1.99328e-07 1.09217e-07 -6.96541e-07)
(7.74447e-07 -2.12569e-07 -4.12869e-07)
(7.29994e-07 8.20518e-08 4.24368e-07)
(1.02462e-06 -3.92576e-07 5.93624e-07)
(7.86086e-08 -5.77499e-07 -7.31216e-07)
(7.68486e-07 1.10579e-06 -4.33021e-07)
(9.50126e-07 1.17213e-06 1.26088e-06)
(6.98229e-07 -7.32789e-07 1.0908e-06)
(-1.17721e-06 -5.70645e-07 -4.4812e-07)
(-9.51051e-07 1.25614e-07 -1.36254e-07)
(1.36627e-07 -1.00545e-07 1.03931e-06)
(9.9224e-08 1.48765e-07 -6.35823e-07)
(-1.72091e-06 1.54763e-07 -1.76942e-07)
(-1.20919e-06 2.99265e-07 4.30383e-07)
(-1.13835e-06 2.32853e-07 -3.05124e-07)
(-1.15694e-06 3.76944e-07 5.79128e-07)
(-4.95326e-07 6.20843e-07 1.10202e-06)
(-2.51427e-07 1.46554e-06 5.11071e-07)
(-1.20228e-07 1.12969e-06 -5.6992e-07)
(-1.64877e-07 1.46027e-08 -4.67188e-07)
(-1.10348e-06 1.59971e-07 4.20826e-07)
(-3.92348e-07 -1.4824e-08 3.40876e-07)
(-8.16573e-07 3.28129e-07 1.0113e-06)
(-5.49015e-07 7.73309e-07 3.30538e-07)
(-2.67631e-05 0.000183622 -0.000188684)
(4.08979e-05 0.000173825 -5.18055e-05)
(3.36792e-05 0.000178082 6.36587e-05)
(-2.06097e-05 -2.08636e-05 0.000103371)
(3.48541e-06 2.44787e-06 6.70729e-07)
(-3.56342e-06 -4.41829e-07 -7.1981e-06)
(-3.46842e-06 -3.44465e-06 -6.71551e-06)
(1.01798e-06 -8.57816e-06 -8.14273e-06)
)
;

boundaryField
{
    top_fluid_surface
    {
        type            pressureInletOutletVelocity;
        value           nonuniform List<vector> 
64
(
(0 0 -8.05564e-05)
(0 0 -0.000169122)
(0 0 -0.000107219)
(7.50154e-05 0.000150667 7.54423e-05)
(-5.83372e-05 -6.75107e-05 0.000135036)
(0 0 -2.86045e-05)
(-0.000204494 -9.26569e-05 5.46315e-05)
(7.04766e-06 -9.41523e-05 0.000121183)
(0 0 -4.72144e-05)
(0 0 -8.79946e-05)
(-0.000351807 -0.000155035 0.000166153)
(-0.000309067 -0.000189925 0.000180143)
(-0.000162797 4.99725e-05 0.000206746)
(0 0 -5.62649e-05)
(0 0 -9.41318e-05)
(0 0 -5.34505e-05)
(1.47579e-05 5.78026e-05 3.65914e-05)
(0.000149752 6.86219e-05 8.4753e-05)
(-6.23725e-05 -3.79534e-05 0.000153642)
(-0.000305601 -0.000219784 0.000174407)
(-0.00022384 -0.00029424 3.769e-05)
(0 0 -0.00010728)
(-0.000259859 -5.96506e-05 6.01611e-05)
(-2.79221e-05 -0.000119929 6.02565e-05)
(0 0 0.000101429)
(-7.41617e-05 -2.16684e-05 0.000118523)
(0 0 -3.11294e-05)
(0 0 -4.06833e-05)
(-3.81134e-05 -0.000133058 0.000147428)
(-8.41339e-05 2.63149e-05 0.00019502)
(0.000169346 0.000218674 0.000185822)
(0 0 5.05742e-06)
(0 0 -6.49059e-05)
(-0.000200771 6.06569e-05 9.06198e-05)
(0 0 -0.000239202)
(0.000267403 -4.66716e-05 3.69191e-05)
(-1.75653e-05 -9.61723e-05 0.00010359)
(0 0 -3.39516e-06)
(0 0 -0.000233988)
(-0.000163758 2.95612e-05 0.000185658)
(-8.31297e-05 -2.21782e-05 0.000122718)
(0 0 -7.93511e-05)
(0 0 -0.000272361)
(0 0 -0.000183224)
(-7.0201e-06 -2.26109e-05 2.64016e-05)
(0 0 -9.29934e-05)
(0 0 -0.000199871)
(0 0 -3.95626e-05)
(0 0 -1.6917e-05)
(0 0 -2.18181e-05)
(0 0 -1.75433e-05)
(6.67472e-05 1.72232e-05 5.95724e-05)
(0 0 -0.00010315)
(0 0 -2.80032e-05)
(-2.74477e-05 -9.2751e-05 8.69025e-05)
(6.40555e-05 -2.29313e-05 0.000182463)
(8.24274e-05 5.19545e-05 3.78374e-05)
(0 0 -5.96826e-05)
(0 0 -0.00012574)
(0 0 -9.29659e-05)
(0 0 -0.000188684)
(0 0 -5.18055e-05)
(3.36792e-05 0.000178082 6.36587e-05)
(-2.06097e-05 -2.08636e-05 0.000103371)
)
;
    }
    bottom_fluid_surface
    {
        type            noSlip;
    }
    lateral_surface_1
    {
        type            noSlip;
    }
    lateral_surface_2
    {
        type            noSlip;
    }
    lateral_surface_3
    {
        type            noSlip;
    }
    lateral_surface_4
    {
        type            noSlip;
    }
}


// ************************************************************************* //
