/*--------------------------------*- C++ -*----------------------------------*\
| =========                 |                                                 |
| \\      /  F ield         | OpenFOAM: The Open Source CFD Toolbox           |
|  \\    /   O peration     | Version:  v1612+                                |
|   \\  /    A nd           | Web:      www.OpenFOAM.com                      |
|    \\/     M anipulation  |                                                 |
\*---------------------------------------------------------------------------*/
FoamFile
{
    version     2.0;
    format      ascii;
    class       surfaceScalarField;
    location    "9.35";
    object      alphaPhi;
}
// * * * * * * * * * * * * * * * * * * * * * * * * * * * * * * * * * * * * * //

dimensions      [0 3 -1 0 0 0 0];

internalField   nonuniform List<scalar> 
2916
(
-0.00477076
-0.0420899
0.0319001
0.00291163
-0.0578851
0.0344912
0.0181613
-0.0623085
0.0324504
0.008491
-0.0319476
0.0280971
-0.0181792
-0.0174104
0.0293175
-0.06038
0.0291808
0.00188033
-0.136413
0.0522633
0.00202535
-0.149917
0.0498039
-0.00109676
-0.154116
0.0513865
0.000236693
-0.134207
0.0590631
-0.00672598
-0.123382
0.0693745
-0.159505
0.0493872
0.000591437
-0.149079
-0.00067667
-0.000635337
-0.155636
-0.00521641
-0.0058378
-0.157394
-0.00392913
-0.0037523
-0.150696
0.0013352
-0.00226451
-0.146312
0.00708519
-0.167591
-0.00637601
-0.00260163
-0.0995167
-0.021552
-0.00213814
-0.104725
-0.025966
-0.00327646
-0.105485
-0.0253392
-0.00441458
-0.101185
-0.0229068
-0.00418733
-0.098635
-0.0224275
-0.115806
-0.0305148
-0.00201055
-0.0205315
-0.0515658
-0.001504
-0.0260022
-0.0537981
-0.00121367
-0.0264807
-0.0538286
-0.00276817
-0.0210342
-0.0531192
-0.00413935
-0.0176032
-0.0542034
-0.0342865
-0.0601893
-0.00104035
0.0828821
-0.0773439
-0.00041637
0.0767672
-0.0797552
0.000623041
0.0763255
-0.0809912
-0.000649083
0.082699
-0.0804536
-0.00326738
0.0875452
-0.0810322
0.0702615
-0.0865769
0.00112137
0.173942
-0.0697778
0.000185068
0.170245
-0.070456
0.000560376
0.16918
-0.0716181
3.32537e-05
0.174622
-0.0699413
-0.00084387
0.178976
-0.069107
0.163979
-0.0731059
0.00271927
0.262514
-0.0692063
6.89553e-05
0.262997
-0.0684246
-0.00117629
0.261518
-0.0696372
-0.000328756
0.263127
-0.0679058
0.00113787
0.262945
-0.0639895
0.258212
-0.071649
-0.00106912
0.197596
-0.0232044
-0.000136886
0.19489
-0.0226118
2.66795e-05
0.195626
-0.023227
-0.0019403
0.197091
-0.0219464
-0.00315692
0.195671
-0.0207221
0.194199
-0.0272792
-0.00657072
0.104494
0.0853478
-0.000503537
0.0928864
0.0846606
0.00181614
0.0940982
0.0868051
-0.00108051
0.105164
0.0816479
-0.00397497
0.107307
0.0773952
0.090003
0.0883718
-0.00763471
-0.114177
0.212867
-0.000315617
-0.133365
0.206894
0.0015553
-0.129515
0.209711
-5.86639e-05
-0.112498
0.206519
0.00124288
-0.107119
0.199975
-0.133943
0.213058
0.0142221
-0.123378
-0.000235644
-0.106474
-0.00395885
-0.116531
0.00901107
-0.118942
0.012242
-0.100572
-0.112917
0.00391685
0.00214547
2.03351e-05
-0.00767449
0.0131048
0.000113464
-0.0235487
0.0140102
0.000145908
-0.0104592
-0.00761919
0.00118735
0.0143852
-0.0142084
0.00121808
0.01081
0.000196485
-0.000509502
0.022601
0.000233039
0.00261147
0.0319397
0.00014015
0.00982867
0.0308237
-2.01141e-06
0.00377
0.0206867
0.000225157
-0.00561275
0.0210558
0.000299061
0.0293159
-9.41508e-05
-0.00486257
0.0584459
-0.000418356
0.00348597
0.0673363
-0.000416035
0.0189416
0.0639861
-0.000350576
0.00852895
0.0609902
-0.00034565
-0.0106032
0.0654261
-0.000322048
0.0673047
-0.000279713
-0.005312
0.184118
-3.24882e-05
0.00129983
0.191551
-3.23807e-05
0.0116035
0.189434
-2.74804e-05
0.00512135
0.188506
-2.65399e-05
-0.00611254
0.193194
-2.39019e-05
0.198128
-2.22692e-05
-0.00299506
0.392434
-3.4732e-06
-0.000172901
0.397401
-3.45335e-06
0.00150645
0.39726
-2.93989e-06
-0.000120485
0.395621
-2.82805e-06
0.000278841
0.398264
-2.52282e-06
0.408824
-2.4262e-06
-0.00224366
0.632578
-4.84703e-07
-0.00049059
0.635556
-4.91903e-07
-0.000446472
0.636444
-4.21503e-07
-0.00109668
0.632634
-4.03234e-07
0.00134297
0.631874
-8.29081e-07
0.645438
-3.77535e-07
-0.0017553
0.839748
-2.52993e-07
-0.000656664
0.842852
-1.08038e-07
-0.000107381
0.843687
-1.09353e-07
-0.000845056
0.838
-1.70034e-07
0.00132162
0.835392
-7.37348e-07
0.848012
-7.84807e-08
0.00225096
0.966035
-8.54543e-08
-0.000564103
0.971851
-6.53828e-08
-0.000944684
0.970445
-6.91433e-08
0.000426632
0.965472
-6.66777e-08
0.00284113
0.96309
-1.44493e-07
0.971423
-4.6444e-08
0.00244829
0.907252
0.0412897
-0.000557945
0.917078
0.0427511
1.17449e-05
0.913217
0.0424539
0.00012085
0.914547
0.0407207
-0.00144734
0.916471
0.0393477
0.909085
0.0432487
-0.00262187
0.654864
0.345135
0.000164393
0.667512
0.332064
0.00521874
0.65612
0.335065
-0.00104688
0.66702
0.328955
-0.0141409
0.680462
0.330401
0.644294
0.345478
-0.00741085
0.14328
0.287168
-0.000907531
0.14341
0.301776
0.00340659
0.139348
0.296744
-0.00457577
0.156138
0.292048
-0.0199817
0.160821
0.304687
0.129227
0.282835
0.00815532
0.0307292
-0.00246992
0.0455909
-0.00966044
0.0379079
0.00624966
0.034418
0.0193978
0.0453394
0.0415535
7.43224e-06
0.000213343
-0.000199213
1.15253e-05
0.000315291
-0.000163768
-8.65664e-06
0.000382158
-0.000166896
-2.40908e-06
0.000151192
-0.000153828
1.02522e-05
6.32921e-05
-0.000157943
0.00038365
-0.000156043
-1.06908e-06
0.000454574
-6.91019e-06
1.61966e-06
0.000452756
-2.97795e-09
1.35052e-07
0.000381636
-5.80733e-09
9.21866e-07
0.000375562
-7.74517e-11
1.4826e-05
0.000349131
-6.58002e-07
0.000304326
-2.60542e-14
-2.7175e-07
3.65345e-05
-4.38044e-08
2.33689e-08
3.64257e-05
-6.29615e-11
1.59817e-07
3.09239e-05
-5.10234e-11
2.26486e-07
2.98454e-05
-6.51199e-13
4.47462e-07
2.6866e-05
-4.15651e-09
2.50606e-05
-8.48191e-12
-8.56358e-09
4.0554e-06
-5.20834e-10
3.95195e-09
4.03246e-06
6.18655e-13
1.38225e-08
3.43366e-06
5.80805e-13
1.79224e-08
3.3014e-06
-1.2013e-13
3.89213e-08
2.9432e-06
-4.84326e-11
2.83035e-06
-8.6118e-15
1.01577e-10
5.82108e-07
-6.68747e-12
8.13609e-10
5.78399e-07
-1.5229e-14
1.10359e-09
4.93478e-07
-1.35263e-13
1.93532e-09
4.72705e-07
-1.55778e-10
4.00092e-09
4.18313e-07
-4.48764e-13
4.12998e-07
-4.64077e-09
-3.85272e-12
1.30704e-07
-5.39515e-08
1.57556e-10
1.10582e-07
-2.04538e-08
1.28831e-10
9.35505e-08
-1.6009e-08
2.84447e-10
1.02918e-07
-4.24044e-08
8.08098e-10
1.7666e-07
-6.10179e-07
8.79009e-08
-5.78123e-08
-9.54082e-11
7.66762e-08
-2.01905e-07
9.40206e-12
2.96872e-08
-2.51874e-08
7.76827e-11
3.06268e-08
-4.4612e-08
5.96294e-11
4.91293e-08
-1.15858e-07
-2.94925e-12
1.55478e-07
-7.22968e-07
2.13705e-08
-1.43985e-08
-1.22825e-11
7.48722e-10
1.10792e-09
4.07803e-12
-3.10241e-08
2.72754e-10
1.92447e-11
-3.18947e-08
2.51913e-10
1.29763e-11
-8.71067e-09
7.71895e-10
-1.22209e-11
1.41715e-08
2.27651e-09
-1.94012e-08
1.39797e-10
-1.04529e-05
0.0391611
0.00214274
1.28152e-05
0.0405163
0.00221666
4.43339e-05
0.0402254
0.00220366
7.56581e-06
0.0386137
0.00215011
-7.15582e-05
0.037318
0.00211403
0.0409551
0.0022305
-0.000221752
0.368934
0.0241331
-0.000113427
0.3655
0.0260934
9.30839e-05
0.364943
0.0261142
-0.000586772
0.360705
0.026664
-0.000776792
0.355882
0.027204
0.366857
0.0260762
-0.0144387
0.292571
0.106122
-0.005004
0.297325
0.125271
-6.92864e-05
0.294845
0.119943
-0.00566122
0.300898
0.121489
-0.00819606
0.320226
0.127304
0.272483
0.115949
0.00492264
0.336739
-0.0018117
0.35953
-0.0116429
0.347789
0.000544581
0.335676
0.0310138
0.339452
0.35021
2.51606e-06
-4.52339e-07
-9.51073e-05
1.33375e-06
-7.79999e-11
-6.56341e-05
-5.00797e-08
-1.0172e-10
-5.40274e-05
-7.91531e-07
-5.31205e-12
-7.07039e-05
1.75461e-06
-7.41703e-08
-9.20313e-05
-4.10148e-16
-3.01371e-05
6.29801e-10
-7.07986e-11
-7.36272e-06
-2.88783e-13
-1.03252e-13
-2.42387e-09
2.94891e-12
-1.41982e-13
-5.91977e-09
2.50924e-14
-1.04271e-15
-7.98226e-11
-6.94802e-18
-4.62927e-12
-7.32074e-07
-2.64438e-14
-9.55551e-20
1.51837e-11
-4.33103e-13
-4.3889e-08
2.15268e-14
2.0027e-14
-4.79225e-11
-2.53991e-16
1.70192e-14
-5.11606e-11
2.06776e-16
-1.37386e-16
-6.61567e-13
5.51709e-12
-5.1639e-14
-4.1666e-09
-8.52902e-17
-2.99021e-12
5.58805e-14
-2.74895e-15
-5.2132e-10
3.45754e-15
-9.71459e-18
-1.02128e-12
-8.75892e-17
-8.44853e-17
-7.12267e-13
-2.00538e-14
-9.31363e-14
-7.16519e-15
-3.2967e-20
-7.59436e-15
-4.85215e-11
-3.42574e-14
-1.05987e-14
-1.99662e-18
5.66636e-14
-6.74647e-12
-4.29417e-17
4.59067e-17
-1.52436e-14
-1.21094e-13
4.4466e-16
-1.47407e-14
-6.38399e-15
6.25262e-13
-1.56621e-10
-9.56202e-13
4.4107e-12
-2.03585e-12
2.00676e-11
-4.6619e-09
-3.22498e-11
1.29702e-08
-3.2497e-08
-9.95949e-12
1.19096e-09
-1.40474e-08
7.88224e-11
9.78235e-10
-5.32407e-09
-1.7839e-09
7.33921e-09
-2.41826e-08
5.72971e-11
1.00664e-07
-4.995e-07
8.04826e-09
-6.04191e-08
-3.19005e-09
2.90491e-07
-1.07947e-06
-3.08496e-10
2.26467e-08
-1.1424e-07
1.39855e-09
6.25059e-08
-2.17532e-07
-1.8767e-09
1.79028e-07
-4.69161e-07
-2.04174e-09
6.79911e-07
-1.10251e-06
1.30118e-08
-7.07868e-08
1.65946e-09
3.8745e-07
-7.58554e-08
-1.19209e-10
-5.7915e-08
-1.82167e-09
-7.21871e-10
-2.31192e-08
-5.4878e-08
-3.828e-11
-8.06323e-09
-6.31771e-08
1.36911e-09
7.26794e-07
-4.79524e-08
-9.32552e-08
1.19238e-08
2.67788e-06
0.00198055
0.000160702
4.65015e-06
0.00205313
0.000165371
8.55283e-06
0.00204413
0.000161977
3.27292e-06
0.00200218
0.000160086
-6.85037e-06
0.00196775
0.000163382
0.00206404
0.000166953
0.000448015
0.0234048
0.00217462
0.000183729
0.025535
0.00279799
0.000113592
0.0254231
0.00272038
2.49531e-05
0.026047
0.00261805
2.50918e-05
0.0261696
0.00291948
0.0253262
0.00273968
0.00296328
0.123451
-0.00201896
0.000592291
0.127193
0.025498
-1.57754e-06
0.12306
0.0226947
-0.000233722
0.128198
0.0193867
0.000418246
0.12781
0.0249948
0.119573
0.0218129
0.00418224
0.384831
0.00132189
0.387908
-0.00397664
0.385296
-0.0018439
0.398793
0.0154289
0.390425
0.378936
0.00906927
0.0347437
-0.0454073
-0.00230884
0.0369087
-0.0272811
-0.01593
0.0354261
-0.0229847
-0.0379492
0.0366119
-0.0150772
-0.0325208
0.026229
-0.0315774
0.0248274
-0.0554692
0.0126757
0.0674439
-0.0471251
-2.84374e-05
0.0653585
-0.0175861
-0.000902795
0.0545462
-0.0197967
-0.00718301
0.0427494
-0.000356184
-0.0226685
0.0494325
-0.00735836
0.0532987
-0.0395813
0.0120758
0.0837626
-0.0299696
-0.00106646
0.0977515
-0.0209375
0.0149218
0.0599354
-0.0231103
0.0161271
0.0359214
0.00366738
-0.0193046
0.0771031
0.00579576
0.0712268
-0.0345983
0.0339644
0.0837436
-0.0357044
0.0250033
0.106108
-0.0010073
0.0196136
0.0394375
0.0241131
-0.000926423
0.0409156
0.0136533
-0.0307096
0.101669
0.00325789
0.0828549
-0.0442769
0.0485577
0.0836504
-0.050373
0.0482815
0.0863106
0.0183011
-0.00105176
0.00511044
0.026431
-0.0239903
0.0278218
0.00452927
-0.0384267
0.118643
-0.00447125
0.102153
-0.05976
0.0467132
0.0904578
-0.0556439
0.0461573
0.0641771
0.0207643
-0.00327675
-0.00613497
0.00975007
-0.0420131
0.0213815
0.00386054
-0.046774
0.142312
-0.0209373
0.115698
-0.0620305
0.0624238
0.0973941
-0.0710912
0.0868455
0.0502676
-0.0126355
0.0788042
-0.0105315
0.0113704
-0.0344813
0.0179152
0.0164394
-0.0658827
0.213333
-0.0420504
0.121972
-0.077583
0.0243029
0.0199592
-0.0520303
0.0283788
0.017195
-0.0730827
0.0131229
-0.00863847
-0.0100381
-0.0193323
0.00873844
0.0254592
-0.0422094
0.0141596
0.00258764
0.0128803
-0.0606078
-0.0260245
0.0072014
0.0105857
-0.0172689
-0.000799081
-0.0311899
0.00331328
-0.0176332
-0.0189257
-0.0045232
0.0135366
0.0139306
-0.019484
0.0108157
0.0146292
-0.00544494
-0.00760935
-0.00399424
-0.000261946
0.0116043
-0.0263079
0.00281803
0.00569269
-0.0231654
-0.0176716
0.000222751
-0.0033477
-0.0031932
0.00640985
-0.000175398
-0.00225854
0.00957687
-0.0161303
0.00840483
-8.10467e-06
0.00098237
0.00603604
-0.00590749
0.00177209
0.00634697
-0.0268621
-0.00816273
0.00398786
-0.0105535
-0.0110097
-0.0020986
0.00801027
-0.0109972
-0.00136026
-0.00890921
0.00172187
0.00299429
-0.00105443
-0.000709577
0.00143092
-0.00903444
0.000818677
-0.00876147
-0.00344355
-0.000251656
-0.011965
-0.00194526
0.00442511
0.0104918
-2.84919e-07
-0.0109347
0.0100365
-9.48651e-09
-0.0487257
0.00290347
0.00104927
-0.0302951
0.00745749
-1.81078e-07
-0.00518953
0.00741283
-9.55794e-07
0.00683879
-3.93359e-07
-0.00767982
0.0240933
-2.34583e-06
-0.0283083
0.0240992
-9.04442e-05
-0.0642541
0.011008
0.000360951
-0.0248962
0.016199
-5.68802e-07
0.00431487
0.0154253
-1.44963e-06
0.00969985
-4.94356e-07
-0.0199714
0.0465959
-0.000381983
-0.0230571
0.040473
-0.000378571
-0.0332908
0.0213012
-0.000149206
-0.0175948
0.0246369
-8.4786e-07
0.00851079
0.0331126
-6.966e-08
0.0282117
-4.10623e-05
-0.0244646
0.088558
-0.00467983
-0.0276389
0.0598164
-0.00613039
-0.00689135
0.0362393
-0.00895262
0.0047338
0.0403824
-0.000425143
0.0125067
0.03572
-3.86773e-06
0.0512691
-1.48268e-05
-0.0336471
0.136418
-0.0209108
-0.0267955
0.0768525
0.000843885
-0.0127298
0.0323679
0.00255176
0.0219224
0.0983161
-0.00149284
0.0235022
0.0529884
-2.87895e-05
0.0776197
-3.37303e-06
-0.0566342
0.157585
-0.0228132
-0.0388763
0.150644
-0.00471075
-0.0417582
0.0655474
0.00417966
0.0059766
0.129144
-0.0471117
0.0330585
0.141042
-0.00326603
0.144418
-0.00012666
-0.0444462
0.143784
-0.0150435
-0.0511589
0.205831
-0.0480892
-0.0685601
0.111086
0.000553151
-0.0257677
0.139156
-0.0433302
0.0167449
0.17888
-0.048841
0.162401
-0.0753241
0.0190712
0.0480791
-0.027653
0.00837004
0.202974
-0.0484655
-0.0537521
0.105511
0.017972
-0.0367946
-0.0101918
0.0326044
-0.0433019
0.123238
-0.0606777
0.183827
-0.114352
0.038753
0.00298241
-0.00699932
0.0652363
0.0715099
-0.0805325
0.00355954
0.0463997
0.0348299
-0.00813154
0.0103149
0.0191555
-0.0129319
-0.0053634
0.0393574
0.00124825
-0.0441492
0.00769207
0.00241589
0.00508694
0.0239964
-0.00441933
0.00680268
0.0101661
-0.00157355
0.0151732
0.000277368
0.00979638
0.0191631
0.000577372
0.00105086
0.00892663
0.00119699
0.00343369
0.00237985
0.00488227
0.00444741
0.00260795
0.000570665
0.00782569
-0.0012271
-0.00019188
-3.28708e-05
-0.000625419
0.000205281
-0.000487405
0.00026004
-0.000928448
-0.000691694
0.00259891
0.00127178
0.00116007
0.000307326
0.000655563
0.00159722
0.000395776
0.000132658
-6.51205e-05
-0.00349836
-0.000992235
-0.0118744
-0.000133003
1.39576e-08
6.88677e-11
-4.12493e-07
2.38926e-08
5.87486e-09
-1.38844e-07
-4.63716e-09
-1.48253e-05
4.06057e-06
-1.63281e-08
-2.22029e-09
-1.32403e-07
-8.03279e-09
-3.13362e-09
-9.33801e-07
2.10794e-09
-3.73959e-07
-4.68784e-07
6.12139e-08
-2.05031e-06
-8.47167e-05
1.25885e-06
-7.77096e-08
-5.2274e-09
2.68518e-06
1.57938e-07
-5.44064e-09
2.9737e-09
-5.41896e-07
-2.58754e-09
1.01069e-08
-1.45319e-06
1.57426e-08
-4.85664e-07
0.00038265
0.0031747
-7.2755e-06
2.40979e-06
6.07356e-06
-2.30721e-06
8.43091e-07
-0.000144675
-2.1037e-07
6.25347e-09
1.15796e-08
-1.15608e-08
2.3186e-09
7.6347e-09
-5.17691e-08
6.35243e-07
-4.1667e-05
-0.000956706
0.00218948
1.78542e-05
-0.000961762
0.00108702
-1.65234e-06
0.00043535
0.000118868
-6.24372e-07
3.09277e-06
7.47325e-06
-3.39634e-07
2.49183e-08
9.0355e-08
-8.70062e-07
2.70827e-08
-1.41512e-05
-0.00942008
0.000827238
8.82771e-06
-0.00708471
0.0081069
-2.306e-06
0.00155639
0.00334645
-4.98036e-06
2.95559e-05
4.18662e-05
-3.89802e-07
5.16233e-07
8.10088e-07
-3.24044e-07
-1.24544e-07
-2.63261e-06
-0.0217157
0.00224802
-2.23227e-06
-0.0174013
0.0228225
-4.58398e-05
0.00344524
0.0346648
-1.9639e-05
0.00353416
0.0104661
-4.8717e-07
0.000129408
0.000140339
-8.68881e-07
2.67e-06
8.52668e-08
-0.0147673
0.00229815
-1.6352e-05
-0.0504465
0.0529568
-5.32217e-05
-0.00698494
0.138383
-3.75079e-06
0.0395496
0.0740468
-1.7117e-07
0.00029047
0.0154816
-2.64566e-08
0.0471672
-2.73843e-07
-0.0290021
0.0371518
-0.000196751
-0.0602314
0.177302
-0.00778127
-0.0537902
0.114989
-0.0229811
-0.00474589
0.0348011
0.000340888
0.0246335
0.0942477
-0.0347547
0.143594
-0.00203321
-0.0301399
0.0653105
0.00164442
-0.0653141
0.117498
-0.0343919
-0.0246817
0.0336862
0.0207163
-0.000227725
0.000663068
0.0214644
-0.00364639
0.0254236
0.0370417
0.181303
-0.0170616
0.0114949
0.0305329
-0.00896382
0.02043
0.00308944
0.0176708
-0.000844164
0.000551702
0.0260359
-0.00030993
-0.0011671
0.0178593
-0.00564948
-0.00130605
0.0204944
0.0103636
0.0056894
0.0076831
1.74895e-06
0.000678913
0.00140581
2.98651e-05
0.0100962
-0.0001248
-0.00125134
0.0028217
-0.000313499
-0.00596301
0.0045397
-0.000469029
-0.00715047
0.00288266
0.000178047
0.0112571
0.00177422
0.00172095
0.00436761
0.00290997
0.00615614
0.00115323
0.00591624
-0.00521972
-0.00572643
-0.00929642
-0.000560208
-4.4651e-08
3.59273e-08
-7.41972e-07
5.42919e-08
1.77937e-08
-7.48075e-07
6.20848e-06
-1.9472e-07
-2.08111e-06
1.54293e-06
-3.50131e-07
2.09232e-07
-1.50366e-08
1.33219e-09
-2.15469e-07
5.03084e-09
-5.65442e-07
-2.49752e-07
1.89402e-06
-5.06196e-06
1.93771e-08
8.09433e-08
-1.35728e-06
3.80493e-07
1.48018e-07
-4.75673e-07
2.36961e-07
9.62906e-09
-2.87418e-07
7.6194e-08
1.50381e-07
-1.7357e-06
3.31244e-06
-3.74149e-06
-5.36102e-07
3.51685e-07
-5.1212e-06
-5.93582e-08
1.64701e-06
-2.70438e-06
4.51464e-10
1.85559e-08
-1.32492e-07
5.88967e-09
4.97343e-09
-6.82908e-09
1.57025e-06
1.88044e-08
-1.69656e-06
5.10924e-05
-2.56069e-06
-6.10955e-09
1.83303e-05
-9.00865e-08
-6.35704e-09
9.7757e-08
-7.96815e-08
-3.60362e-09
2.60861e-08
-6.26709e-07
-8.30091e-08
1.36974e-08
-2.60726e-07
-3.54116e-06
1.84899e-06
-1.32227e-06
2.75877e-05
5.41289e-06
1.42263e-06
2.33634e-05
2.7305e-06
-1.50286e-08
2.0186e-07
-9.23418e-07
1.97601e-09
1.50594e-07
-5.11683e-06
7.16472e-09
2.70149e-08
-4.0494e-07
1.70584e-07
6.98938e-07
-5.56323e-07
3.15242e-07
5.04652e-06
9.44245e-06
3.61076e-05
-2.2682e-05
2.58943e-07
1.72759e-06
-3.78081e-05
2.29721e-07
5.03119e-07
-1.99621e-05
1.38546e-08
3.12821e-08
-3.00437e-07
2.12024e-08
5.85645e-08
-2.76315e-07
3.32787e-07
6.07557e-08
1.65274e-05
2.04564e-05
-1.60849e-05
5.78796e-07
2.15297e-06
-3.76811e-05
1.0552e-07
4.38985e-07
-3.23825e-06
1.59467e-08
4.00331e-08
-1.08683e-07
1.13776e-08
3.64318e-08
-2.8859e-08
4.0639e-08
-4.35512e-09
-2.28334e-05
0.000112725
0.00024892
-0.00851941
0.000734216
-1.5636e-05
-0.00270328
0.0456743
-0.0168539
0.00753426
0.0306705
-0.0194604
0.002496
0.0142896
-0.00574154
0.000462809
-8.56015e-09
-0.00030569
0.00618148
-0.000452047
-0.0321906
0.0190965
-0.00239828
-0.0111264
0.0294536
0.000369325
-0.000313907
0.00784295
0.0231572
0.0154104
0.0159551
0.000776501
0.055585
-0.0118654
-0.0133425
0.0315453
-0.00407217
-0.0191348
0.0243994
-0.00172766
-0.00375662
1.79959e-05
0.00961766
-0.00118553
-0.00171964
0.0142119
0.00237007
-0.000148015
0.0191893
0.02636
0.00746461
0.00205964
0.00664146
0.00279324
0.000323906
0.000931745
0.0187104
0.00174076
-0.00477809
0.00207142
0.000284129
-0.0102962
0.00682765
-0.00425387
-0.00900864
0.00816196
-0.00059598
0.0118209
0.0075048
0.000815208
0.0179937
0.00391159
0.0215067
0.000718917
0.00731155
-0.00465245
-0.00570659
-0.00877841
-2.73378e-05
4.35022e-06
-7.49546e-05
-6.7748e-06
4.53594e-06
-4.4321e-05
-6.71354e-08
-5.35693e-06
-2.65577e-05
-1.6643e-07
4.67195e-07
-6.10659e-05
-2.24118e-09
9.24207e-06
-8.58521e-05
-6.9516e-07
-5.2075e-06
-1.48195e-13
-4.42291e-05
-1.72603e-05
-1.89553e-11
-3.5268e-06
-4.72145e-05
-1.3533e-08
3.21732e-05
-1.4687e-05
1.41568e-06
5.77252e-05
-7.24365e-05
-4.1848e-09
8.22619e-06
-2.20902e-05
-2.80947e-12
-1.87919e-06
-2.23417e-17
-4.71165e-05
-2.95319e-10
-4.46531e-07
1.87633e-07
1.58237e-05
1.45771e-07
8.2709e-05
-1.4304e-09
3.62642e-05
-2.17892e-12
-5.14545e-16
6.86643e-08
-1.03384e-12
4.48171e-08
-4.52257e-11
-5.97897e-10
-2.25013e-10
-2.39143e-13
-1.72366e-07
-2.74891e-10
-2.13522e-09
-1.85454e-10
-1.27468e-13
-8.8131e-19
-2.57603e-13
4.23077e-09
-1.02246e-18
-1.48196e-13
-6.1152e-12
-1.39327e-11
3.07907e-14
-8.85197e-10
-1.32557e-08
-2.40357e-12
4.30644e-09
-9.89821e-08
2.95412e-10
4.16517e-12
-6.74039e-11
-1.76632e-12
-1.6889e-20
-1.03775e-13
7.81085e-15
-2.38743e-17
4.35851e-20
-3.09253e-10
2.00328e-15
-2.25187e-10
3.14667e-12
1.50011e-09
2.91794e-11
2.28324e-12
1.82402e-14
5.38413e-16
-6.12879e-22
-7.04969e-21
2.54754e-10
-3.35389e-14
6.52464e-10
1.50042e-13
-9.43262e-13
2.96577e-13
6.45686e-13
-3.28628e-10
-1.12249e-13
1.38995e-13
-4.30627e-13
1.45945e-13
1.26952e-12
-1.10418e-14
6.08695e-11
-1.97949e-17
5.36945e-13
4.88719e-18
-1.87143e-15
1.20574e-16
9.31702e-15
-3.31791e-12
1.47638e-15
2.15611e-12
-2.92514e-11
1.05685e-12
3.07085e-15
-2.52578e-14
1.56826e-16
2.51534e-18
-2.28091e-18
3.78427e-17
-3.4654e-18
1.36101e-18
1.46385e-18
1.95514e-17
1.1574e-15
2.71593e-15
7.00999e-15
2.4572e-14
1.30514e-17
1.22315e-16
-2.74373e-23
3.73626e-20
5.47068e-20
5.14015e-13
4.79581e-16
1.30642e-10
8.24509e-16
-3.50716e-15
3.00664e-13
3.32283e-15
-1.10536e-12
2.2578e-13
5.94766e-18
-2.97472e-15
1.38207e-13
-3.4241e-16
4.35606e-16
1.23469e-11
-1.06932e-19
5.25991e-13
-3.88153e-19
-5.06452e-17
-6.74392e-17
1.97645e-18
-2.81016e-15
7.38723e-16
2.62746e-15
-2.57783e-14
1.732e-14
6.19466e-18
-7.15624e-17
2.40193e-16
-2.65908e-23
-5.86944e-17
-6.01756e-17
-1.05379e-18
2.30763e-18
-2.01599e-18
1.28448e-18
-3.38222e-18
6.56984e-17
8.48386e-18
2.69621e-16
7.0297e-20
1.80367e-18
-1.72688e-21
1.45701e-18
2.62458e-20
5.66338e-15
8.68524e-15
1.23881e-10
8.85134e-18
-3.85381e-17
2.9084e-13
1.70168e-17
-1.31032e-14
2.20352e-13
-2.82853e-17
-2.71855e-16
9.25351e-10
-2.80561e-11
-2.14679e-14
3.84624e-11
-3.50296e-10
2.73425e-09
-1.45677e-17
-9.95827e-20
-1.22827e-15
1.79223e-20
-3.8603e-17
7.24197e-16
-1.40217e-20
-4.44056e-17
4.05334e-15
4.25033e-21
-2.29744e-17
1.11413e-17
-6.57543e-14
-3.5076e-17
1.51747e-13
-2.62138e-20
3.61342e-10
2.30051e-23
1.00018e-18
-1.31511e-20
8.32852e-19
-1.04063e-20
7.80856e-19
-1.00359e-20
4.82554e-19
-1.35077e-24
5.13729e-19
2.91698e-23
1.36249e-11
-2.30597e-13
6.31407e-09
7.59438e-12
-7.52964e-09
4.90694e-09
9.30223e-12
-1.03413e-13
6.64963e-09
-3.50152e-10
-8.47376e-14
1.3763e-08
-1.38954e-11
-7.24202e-11
8.04558e-08
-4.11249e-08
1.08673e-08
1.43168e-16
-2.72892e-12
2.49696e-12
-2.12818e-17
-5.4122e-13
1.04105e-09
-1.0921e-16
-1.46166e-12
1.3292e-12
-8.07929e-15
-9.41332e-13
8.64479e-13
-7.81408e-11
-2.76709e-12
8.70511e-12
-6.54863e-15
3.15093e-09
4.45798e-16
-2.72937e-12
-6.71645e-16
-5.40099e-13
5.748e-17
-1.46239e-12
2.05333e-16
-9.41479e-13
-2.76016e-19
-2.76687e-12
-6.54889e-15
-2.2127e-10
-8.27875e-07
1.15544e-09
-3.93052e-11
-1.04692e-07
6.32878e-10
5.00381e-11
-2.37336e-07
6.9258e-11
-1.64466e-09
-5.04949e-07
5.27967e-10
-1.78222e-10
-5.90735e-07
5.17752e-09
-6.22827e-08
4.84899e-10
2.78718e-09
-7.13758e-08
-1.24039e-07
7.62066e-11
-3.05483e-09
-1.3511e-09
-9.28665e-10
-1.99323e-08
-3.46711e-08
-2.49197e-09
-3.21762e-08
-3.41858e-08
-2.33354e-10
-4.91398e-08
-5.52045e-08
-6.31651e-10
-7.38197e-10
1.34449e-10
-7.1513e-08
-2.58794e-11
-2.89504e-09
-1.48316e-11
-1.99448e-08
1.74816e-11
-3.22094e-08
8.45321e-11
-4.92096e-08
-5.47127e-10
-4.4247e-11
-2.33668e-06
2.31269e-06
6.68603e-12
-4.14707e-08
3.73899e-08
6.87418e-10
-1.08688e-06
1.04588e-06
-3.10244e-10
-1.55187e-06
1.48434e-06
8.02917e-10
-1.48696e-06
1.45962e-06
-3.33032e-08
-1.30271e-08
-6.38349e-08
-2.07231e-06
2.54992e-09
2.00395e-09
-7.49117e-08
6.35486e-08
3.82128e-09
-1.34868e-06
-5.12703e-08
-1.15929e-07
-1.20403e-06
6.26832e-08
-4.13889e-08
-1.30438e-06
-3.7143e-08
-1.82607e-08
-5.71697e-08
-1.228e-09
-1.57711e-06
-1.35568e-08
-7.54261e-08
-2.56316e-09
-1.7005e-06
-5.21805e-09
-1.32571e-06
6.5864e-09
-1.17697e-06
-2.29183e-10
3.53104e-07
8.54104e-06
0.000154337
7.39134e-07
5.08256e-06
0.000160166
8.38861e-07
7.42215e-06
0.000155623
5.29231e-07
8.54772e-06
0.000153422
-8.20357e-07
7.87417e-06
0.000158319
6.6945e-06
0.000159464
-5.98944e-08
2.42623e-06
6.81695e-06
6.32814e-08
6.09538e-08
5.08884e-06
4.4417e-08
1.92177e-06
5.34513e-06
-1.76268e-07
2.67518e-06
6.85426e-06
-1.6365e-07
1.52677e-06
6.69645e-06
8.56327e-08
6.57141e-06
-5.86645e-07
1.01917e-06
3.78113e-07
5.19905e-07
-2.21444e-08
-1.3872e-08
-2.75226e-06
9.11231e-07
-6.82731e-08
1.38436e-08
1.71304e-08
0.000163537
0.000165132
0.00199531
6.39064e-05
0.000218384
0.00283566
3.35333e-05
0.000262672
0.00263973
4.7397e-05
0.000305346
0.0024475
2.0967e-06
0.000338705
0.00278037
0.000252375
0.00264365
1.45711e-05
4.14542e-05
0.000116495
5.2958e-06
3.05117e-05
0.000202671
-3.63697e-08
4.62083e-05
0.000227245
5.67739e-06
4.53067e-05
0.000261809
1.19536e-06
4.03481e-05
0.000310085
2.20143e-05
0.000238543
1.68977e-06
8.60938e-06
5.02624e-07
1.60053e-05
-6.22001e-07
1.43548e-05
1.20891e-08
1.21955e-05
-2.54244e-07
1.76916e-05
1.0384e-05
0.0013842
0.00528383
-0.0172967
0.000120078
0.00209041
0.0272613
-5.18043e-05
0.00253118
0.0231419
0.000101503
0.00311887
0.0187325
0.000105079
0.00300341
0.0249472
0.00247461
0.0222174
0.000159153
0.000345518
0.000164596
-2.08413e-05
0.000421743
0.00171819
-6.1062e-05
0.000650091
0.00133943
2.42591e-05
0.000837475
0.000930603
4.77531e-05
0.0011362
0.00144754
0.000516562
0.00128486
9.69459e-06
3.9446e-05
-2.92259e-06
0.00010867
-7.20976e-06
8.37742e-05
2.4034e-06
5.80843e-05
9.62846e-06
9.43904e-05
8.39653e-05
0.0420224
-0.0013689
0.243145
-0.00594196
0.00575007
0.237967
-0.026018
0.00546087
0.232547
0.00619632
0.00207615
0.248864
0.0223637
0.00468752
0.247174
0.00370831
0.226617
-0.00123595
-0.000141432
0.000114915
-0.00196976
0.000640834
0.00727836
-0.000534909
0.000270331
0.00493469
-0.000291237
-6.42549e-07
0.00274871
0.000382243
8.27605e-05
0.00517179
0.000404315
0.00471748
-0.000171953
1.52261e-05
-3.72185e-05
0.000190934
6.64114e-06
8.13987e-05
-3.36442e-05
2.83074e-05
-2.52626e-05
6.01615e-05
0.000108468
0.00101684
-0.000258658
-0.00622532
0.00590878
0.00165735
-0.000286583
-0.0062919
0.00677504
0.000738125
-1.23619e-05
-0.0061178
0.00794113
-0.000310312
-3.45191e-06
-0.00653096
0.00916813
-0.000775131
-1.05197e-06
-0.00715202
0.0102875
-0.000584202
-0.00578851
0.00600119
2.08619e-05
-5.06651e-07
-5.69086e-07
-0.000465419
7.31588e-06
-9.07877e-08
-3.12054e-06
-0.000271861
7.93359e-07
-2.80916e-06
-5.7597e-06
9.55073e-07
2.73882e-07
-1.2753e-07
-6.90834e-06
8.75074e-07
-9.02039e-07
-6.72167e-07
-2.61555e-06
7.44063e-08
-6.87954e-07
2.03747e-06
-0.000588757
5.97595e-07
3.46597e-08
-3.46202e-06
9.01916e-06
-3.97448e-08
-1.91553e-05
3.88194e-05
-9.20238e-07
-4.64025e-05
1.47228e-05
1.85849e-06
-7.05171e-05
4.49501e-07
3.82291e-06
-5.59346e-05
8.2373e-07
-4.32316e-06
0.000451335
-0.00015932
-0.00519875
0.000688924
-0.000203692
-0.00551794
0.000559265
-0.000217218
-0.00588805
7.84519e-05
-0.00021494
-0.00592768
-0.000514508
-0.000172501
-0.00551402
-0.000113241
-0.00542526
8.12666e-07
6.81101e-07
-0.000163524
1.2111e-06
4.94056e-07
-0.000209893
-4.82705e-09
-3.12719e-07
-0.000222497
-1.75766e-06
-4.18875e-07
-0.000221451
-9.85842e-07
-2.85008e-07
-0.000177906
3.07329e-07
-0.000113875
-4.00325e-09
-1.5578e-06
-4.73404e-08
-1.77119e-06
-2.38377e-07
-8.02086e-08
-1.95967e-07
-5.37137e-07
-5.53705e-09
-2.13315e-07
-4.19244e-07
0.000172122
0.00115734
-0.00567689
0.000380189
0.00123354
-0.00614082
0.000131665
0.00116375
-0.00660365
-0.000143849
0.00110441
-0.00606463
-0.000176688
0.000995588
-0.00550617
0.000931956
-0.00593352
1.26408e-05
-8.38442e-06
6.04204e-05
1.38151e-05
-9.14733e-06
-3.34646e-05
-4.00393e-06
-9.50397e-06
-3.67804e-05
-1.90881e-05
-8.32439e-06
0.000128447
-1.88441e-05
-4.56459e-06
0.000153025
-6.50078e-06
-2.30778e-05
-1.23014e-07
-1.34538e-05
-4.00476e-07
-1.43932e-05
-8.12987e-07
-1.19054e-05
-5.21805e-07
-8.85439e-06
-9.71433e-08
-8.81033e-06
-9.73516e-06
-8.72724e-05
0.00474703
0.00155704
0.000196703
0.0044009
0.00142988
8.71243e-05
0.00435749
0.00123958
-4.70916e-05
0.00471812
0.00187026
-4.36971e-06
0.00473205
0.00203064
0.00433321
0.00109881
-1.78491e-06
-0.000127692
-0.0082359
4.46112e-05
-0.000125339
-0.00740716
-0.000101513
-0.000124412
-0.00724047
-9.89984e-05
-0.000157582
-0.0094775
7.46619e-05
-0.000158398
-0.00988066
-0.000105457
-0.00647976
-2.57962e-06
-0.000195599
-2.61305e-06
-0.000194876
-4.60943e-06
-0.000186635
-3.67813e-06
-0.000225581
-1.83262e-07
-0.00023247
-0.00016437
-0.000718794
0.0133977
-0.0449176
0.000353312
0.0117248
-0.0380707
0.000366837
0.0115384
-0.0348487
1.83218e-06
0.0129552
-0.0462567
6.78436e-06
0.0128545
-0.0485101
0.0114224
-0.032995
-0.000563667
0.00108682
-0.0252742
4.25307e-05
0.000750695
-0.0262306
-0.000368236
0.000741086
-0.0240349
-0.000316804
0.00132722
-0.0282845
0.000716589
0.0012955
-0.0301037
0.000700481
-0.0226764
-1.81733e-05
-2.36259e-05
-6.84709e-06
-0.00012303
-9.42196e-06
-0.00010141
-1.2608e-05
-3.17163e-05
3.19661e-06
-7.66781e-05
-0.000135642
0.00142105
0.0312381
-0.00183781
0.035005
-0.00276995
0.031605
0.000727392
0.0328564
0.00258383
0.0348206
0.0308378
-0.00135411
-0.000127117
-0.000543024
-0.000848096
-0.000331465
-0.000869951
-0.00043142
-0.000237468
0.000300017
-0.000504967
-0.000163187
-1.22858e-05
-1.1856e-05
-2.3913e-06
-3.85145e-06
-1.10942e-06
2.69253e-08
-5.48227e-07
2.9945e-08
-1.669e-06
-3.67183e-07
1.1421e-07
1.1904e-06
-1.7096e-06
5.62908e-07
7.07795e-08
-4.94252e-07
7.04656e-07
-9.5138e-08
-1.8615e-07
1.95496e-07
-6.43029e-07
1.20571e-07
4.10954e-08
-0
5.84518e-08
-3.49914e-07
-1.06269e-284
2.79079e-08
1.7279e-07
-0
2.11751e-07
-1.33504e-09
-5.42974e-306
7.63291e-09
-3.71505e-08
-2.34663e-308
2.36484e-08
-2.02739e-311
8.38823e-08
0
0
0
1.39085e-287
0
0
1.37761e-308
6.92434e-309
1.95682e-311
2.76277e-311
2.43237e-314
-3.27543e-08
-1.59613e-06
7.26842e-07
-4.5465e-08
-3.08427e-07
2.62392e-08
4.88861e-09
-6.91698e-08
-1.14472e-09
1.05059e-07
-1.5156e-08
1.56215e-08
8.18771e-08
-1.03315e-06
1.9919e-07
-1.88969e-06
3.75885e-07
9.18153e-08
-0
-2.43357e-08
1.2173e-09
-4.09183e-12
4.07386e-09
1.58554e-10
-1.99885e-09
-2.08284e-09
3.31985e-09
-1.68996e-11
3.18176e-10
-8.46143e-08
-2.06845e-14
2.95509e-08
-5.09182e-18
2.168e-08
0
0
-4.09781e-12
5.98353e-15
1.69433e-11
3.09702e-11
2.07116e-14
2.29927e-14
5.09642e-18
2.19987e-17
4.5951e-21
-7.0224e-07
-2.16318e-06
6.53867e-07
-1.22984e-07
-1.64811e-07
1.3032e-07
9.88408e-09
-1.0681e-08
2.63553e-08
2.98392e-08
-6.786e-09
6.55276e-10
1.7061e-07
-8.85444e-07
1.19558e-07
-1.07991e-06
1.78882e-07
1.60464e-07
-0
-6.08409e-13
-1.18685e-10
-9.36044e-11
-6.28549e-11
7.49127e-11
-1.47253e-08
1.88743e-10
-6.6333e-10
-1.29047e-09
3.60118e-10
-2.44743e-08
-1.49774e-11
-3.40075e-11
-4.59208e-21