/*--------------------------------*- C++ -*----------------------------------*\
| =========                 |                                                 |
| \\      /  F ield         | OpenFOAM: The Open Source CFD Toolbox           |
|  \\    /   O peration     | Version:  v1612+                                |
|   \\  /    A nd           | Web:      www.OpenFOAM.com                      |
|    \\/     M anipulation  |                                                 |
\*---------------------------------------------------------------------------*/
FoamFile
{
    version     2.0;
    format      ascii;
    class       surfaceScalarField;
    location    "9.35";
    object      phi;
}
// * * * * * * * * * * * * * * * * * * * * * * * * * * * * * * * * * * * * * //

dimensions      [0 3 -1 0 0 0 0];

internalField   nonuniform List<scalar> 
2916
(
-0.00660698
-0.0625756
0.0691826
0.00385061
-0.084461
0.0740034
0.0246887
-0.0904006
0.0695625
0.0115529
-0.0485276
0.0616634
-0.0248528
-0.0281511
0.0645569
-0.0878206
0.0629678
0.00227295
-0.16258
0.0977316
0.0024794
-0.177448
0.0927806
-0.0013657
-0.181823
0.0952672
0.00024137
-0.159945
0.10981
-0.00842807
-0.147754
0.128272
-0.187891
0.0916425
0.000537341
-0.162285
-0.000832212
-0.00071741
-0.169369
-0.00682469
-0.00618463
-0.171156
-0.00519916
-0.0040417
-0.164038
0.00195086
-0.00253792
-0.159458
0.0102002
-0.182127
-0.0083021
-0.00274474
-0.110226
-0.0493141
-0.00224209
-0.115741
-0.0541299
-0.00339626
-0.116541
-0.0534611
-0.00459744
-0.112017
-0.05082
-0.00443407
-0.109392
-0.0502296
-0.12756
-0.0590007
-0.0020996
-0.0278202
-0.0803067
-0.00159357
-0.0336341
-0.0826134
-0.00131877
-0.0341621
-0.0826539
-0.0029059
-0.0283987
-0.0820314
-0.0043371
-0.0248281
-0.0831324
-0.0425518
-0.0893456
-0.00103651
0.0798072
-0.106591
-0.000442589
0.0733808
-0.107609
0.000571182
0.0728689
-0.108045
-0.00069671
0.0795949
-0.106726
-0.00340671
0.0846974
-0.106816
0.0663825
-0.112341
0.00121386
0.174803
-0.0962101
0.000232491
0.170956
-0.0965937
0.000614919
0.169773
-0.0972868
6.45456e-05
0.175571
-0.0954256
-0.000912807
0.180272
-0.0945976
0.164205
-0.098735
0.00287415
0.267431
-0.0955017
0.000126005
0.268062
-0.094358
-0.00118696
0.266652
-0.095566
-0.00031265
0.268274
-0.0935771
0.00121386
0.26786
-0.0891145
0.263282
-0.0978633
-0.00119487
0.29381
-0.0251843
-0.000124336
0.2915
-0.0245087
4.6116e-05
0.291639
-0.025157
-0.00227827
0.294431
-0.0238329
-0.00364742
0.291772
-0.0225425
0.288898
-0.0292633
-0.00840048
0.167262
0.134949
-0.000598417
0.149253
0.134445
0.00242762
0.150933
0.13768
-0.00136207
0.168815
0.129405
-0.0051948
0.172899
0.122706
0.143704
0.139998
-0.01013
-0.152831
0.330222
-0.000436816
-0.177257
0.316817
0.00210075
-0.172883
0.321278
-0.000112925
-0.149681
0.32071
0.00154379
-0.141632
0.312874
-0.179476
0.324724
0.0212758
-0.174107
-0.000307356
-0.155674
-0.0058113
-0.167378
0.0133878
-0.16888
0.0180264
-0.146271
-0.161449
0.0175525
0.00462114
0.047009
-0.0360622
0.0506772
0.0769409
-0.108781
0.0542249
0.0880563
-0.0486196
-0.0412908
0.0427927
0.0657942
-0.0731723
0.0233153
0.0407904
0.0879715
-0.00252802
0.0642411
0.0406396
0.0101401
0.0925258
0.0382638
0.0386023
0.0890388
0.0319911
0.0147139
0.0583435
0.034064
-0.0218913
0.0596747
0.0320305
0.0847225
0.0258191
-0.0147331
0.1292
-0.0510585
0.0103875
0.149774
-0.0891933
0.0566346
0.141784
-0.104192
0.0256922
0.134924
-0.0436868
-0.0313869
0.145582
-0.018628
0.150026
-0.104992
-0.0122085
0.334554
-0.242459
0.00303327
0.349127
-0.268725
0.0268156
0.345437
-0.280896
0.0120276
0.342508
-0.243617
-0.0139543
0.35213
-0.230795
0.361737
-0.284666
-0.00567002
0.634138
-0.374221
-0.000334707
0.644526
-0.383348
0.00290156
0.645112
-0.385565
-0.000143262
0.638729
-0.375208
0.00070606
0.642846
-0.374698
0.66257
-0.389473
-0.00355683
0.924585
-0.393481
-0.00081879
0.931104
-0.396925
-0.00106416
0.933527
-0.396214
-0.00189552
0.925657
-0.392821
0.00249701
0.924167
-0.392529
0.94615
-0.393423
-0.00270491
1.13287
-0.301792
-0.000943848
1.13836
-0.305613
-0.000226426
1.14041
-0.304883
-0.00136236
1.13324
-0.301872
0.00218947
1.12868
-0.302666
1.14853
-0.298926
0.00306651
1.18162
-0.147318
-0.000682136
1.18998
-0.142222
-0.00116584
1.18871
-0.143382
0.000648334
1.18422
-0.146372
0.00392113
1.18231
-0.146011
1.19262
-0.138034
0.003065
1.08409
0.0692872
-0.000610344
1.09575
0.0733942
5.8567e-05
1.0902
0.0726785
0.000216928
1.09184
0.0683853
-0.00167918
1.09593
0.0657298
1.08789
0.073786
-0.00303202
0.782823
0.439245
0.000237953
0.799075
0.427848
0.00647744
0.786285
0.435357
-0.00122672
0.799804
0.42915
-0.0171146
0.813958
0.420567
0.770708
0.44007
-0.0117594
0.273846
0.850959
-0.00145464
0.26924
0.836348
0.0052681
0.265129
0.835712
-0.00679901
0.296361
0.83622
-0.0296161
0.304572
0.845077
0.24755
0.818266
0.0157595
0.0839797
-0.00462708
0.133953
-0.018143
0.111266
0.0119783
0.0973589
0.0363785
0.133901
0.12248
0.0420456
1.00642
-1.00146
0.0439701
1.04662
-0.971609
-0.0544467
1.10826
-0.921789
-0.0354712
1.007
-0.983186
0.150712
0.929107
-1.09197
1.12086
-0.882173
-0.00585986
2.6841
-1.63118
0.0105991
2.69495
-1.62652
0.00251533
2.73885
-1.59051
0.00631326
2.67809
-1.64082
0.115627
2.62141
-1.76958
2.76268
-1.50038
-0.0355507
4.52039
-1.85179
0.00190213
4.51208
-1.94377
0.024282
4.54776
-1.93548
0.0329984
4.50791
-1.88222
0.0704501
4.45095
-1.88562
4.62321
-1.89507
-0.0161235
6.53116
-2.23711
0.00454356
6.51458
-2.29189
0.0254946
6.53876
-2.29284
0.0330903
6.50982
-2.25313
0.0809538
6.44423
-2.27194
6.64968
-2.23018
-0.000111849
8.76386
-2.60681
0.0108584
8.75407
-2.63381
0.0185901
8.77395
-2.62848
0.0345638
8.73949
-2.62085
0.0813459
8.67006
-2.64731
8.90624
-2.56468
-0.000622971
11.3961
-3.02505
0.0158848
11.3612
-3.02061
0.0144147
11.3858
-3.00658
0.0311207
11.3684
-3.03848
0.0540169
11.2984
-3.04375
11.5308
-2.96392
-0.0468771
13.9839
-2.84276
0.00466365
13.9476
-2.94348
0.0355624
13.9689
-2.91887
0.0169917
13.9473
-2.86211
0.00226824
13.9058
-2.89541
14.0823
-2.84821
-0.0694594
12.3977
1.50835
0.0152294
12.3446
1.37603
0.104077
12.3704
1.36624
0.0208221
12.3925
1.49161
-0.122674
12.4646
1.43876
12.3804
1.44124
-0.010413
6.58343
5.89397
0.0126762
6.51419
5.88075
0.0498401
6.52407
5.88184
0.0068356
6.57678
5.92715
-0.0894125
6.66085
5.96571
6.48762
5.87711
-0.00400714
2.81437
4.21231
-0.00237064
2.7558
4.1846
0.00346811
2.74252
4.21108
-0.0131277
2.80137
4.22116
-0.0198095
2.86286
4.22523
2.68234
4.22554
-0.0758868
0.709356
3.03186
-0.0261021
0.702181
2.84019
-0.000454431
0.690125
2.86246
-0.0306923
0.723138
2.94469
-0.0397011
0.754522
2.96243
0.64174
2.81916
0.00962826
0.783707
-0.00382371
0.849586
-0.0225365
0.820104
0.00122735
0.796733
0.0596836
0.829967
0.823904
0.0634739
-0.393549
-0.671387
0.0679072
-0.447928
-0.528116
-0.00505964
-0.430997
-0.417826
-0.0118766
-0.393993
-0.582375
0.0452958
-0.396279
-0.752868
-0.479029
-0.357847
0.00809551
-0.102163
-1.93066
-0.00257797
-0.124374
-1.9394
0.0259236
-0.15561
-1.8944
0.016029
-0.102466
-1.92245
-0.014196
-0.0829923
-2.05264
-0.200194
-1.79341
0.0257117
-0.068756
-1.91091
0.025991
-0.0825408
-1.98588
-0.0231485
-0.0763207
-1.96563
0.0202905
-0.0770515
-1.95107
0.0970234
-0.0852442
-1.9601
-0.0446278
-1.95361
0.00830934
-0.0389612
-2.27521
-0.0131451
-0.0524807
-2.3005
-0.0405358
-0.0521122
-2.28966
-0.0298986
-0.0491598
-2.29165
-0.000938516
-0.0600137
-2.32613
-0.0239492
-2.2518
-0.00622297
0.165221
-2.80476
-0.0167853
0.140609
-2.81633
-0.0420954
0.153612
-2.8089
-0.0364882
0.140485
-2.81611
-0.0117549
0.111546
-2.84361
0.1736
-2.77399
-0.0120959
0.672192
-3.51993
-0.0142113
0.632557
-3.51044
-0.042008
0.669623
-3.4948
-0.0206064
0.617686
-3.53708
0.00100923
0.583561
-3.53737
0.684917
-3.47423
-0.102576
3.03213
-5.10012
-0.0234333
2.87588
-5.26595
0.0324885
2.90725
-5.21241
-0.0170034
2.94186
-5.1368
-0.0271078
2.86345
-5.16518
2.96456
-5.15496
-0.189307
6.61747
-1.88768
0.00582381
6.44256
-2.38577
0.197767
6.46071
-2.37916
0.0272778
6.59631
-1.99235
-0.0885436
6.57947
-2.16144
6.49612
-2.17887
0.0430502
6.67439
5.79399
0.0639801
6.65089
5.65148
0.118891
6.6521
5.63554
0.0461685
6.81947
5.77672
-0.0896332
6.92711
5.75387
6.65717
5.62643
0.205547
3.93271
6.74845
0.0834047
4.06236
6.89527
0.0527953
4.08088
6.8129
0.0139854
4.21596
6.86348
0.012349
4.26464
6.88934
4.07522
6.81985
0.34545
0.833643
5.78548
0.0847437
0.954812
6.20844
0.0106951
0.885782
6.1316
-0.022405
0.933821
6.25992
0.050583
0.988604
6.16547
0.839812
6.10515
0.00947068
1.60788
0.00274705
1.81112
-0.00914646
1.71778
-0.00297628
1.72438
0.0326251
1.78297
1.69634
0.0908933
0.346479
-0.437372
-0.0216081
0.368086
-0.255585
-0.157762
0.354676
-0.218522
-0.378121
0.363902
-0.143543
-0.323522
0.262066
-0.316665
0.250932
-0.574454
0.128705
0.663447
-0.445672
0.00333498
0.644182
-0.150726
-0.0039926
0.542747
-0.180744
-0.0670177
0.429108
-0.00218067
-0.21748
0.487993
-0.0754641
0.520553
-0.487102
0.122742
0.82652
-0.285816
-0.00857532
0.965591
-0.190091
0.154009
0.625981
-0.245818
0.169052
0.369369
0.0446958
-0.187363
0.751921
0.0924864
0.686089
-0.352899
0.342098
0.841959
-0.357538
0.25189
1.07265
-0.0168476
0.204049
0.422728
0.251094
-0.00339996
0.425021
0.151798
-0.305976
0.999693
0.0548045
0.812702
-0.432589
0.513068
0.84755
-0.518659
0.511278
0.882441
0.191995
-0.00208063
0.0913651
0.844722
-0.292028
0.457086
0.257882
-0.426145
1.18711
-0.0532951
1.02088
-0.634323
0.482401
0.935633
-0.570483
0.481684
0.666917
0.216242
-0.231335
-0.0643535
0.868737
-0.474689
0.607657
0.092783
-0.491058
1.51172
-0.308248
1.24939
-0.719572
0.631101
1.02453
-0.720001
0.879797
0.545422
-0.127202
0.830717
-0.143527
0.128253
-0.37297
1.57435
0.236991
-0.690407
2.27184
-0.442681
1.32539
-0.766409
0.298658
1.28979
-0.563911
0.824254
0.551703
-0.531877
0.942124
-0.117045
-0.144352
-1.05235
2.35559
1.21323
-1.30066
2.53466
-0.0145056
0.717646
-0.69291
-0.848716
1.76965
0.36885
-0.351461
0.66116
-0.606713
0.264806
-0.326302
-0.40701
-1.00183
1.68666
1.93557
-1.11217
1.58969
1.05529
-0.0880051
-0.306515
-0.852193
1.09455
1.5273
-1.60987
1.16979
0.249047
-1.37321
-0.551985
-0.0109724
-0.556152
-0.0899241
0.95952
-0.0416982
-0.165313
1.24055
-0.432682
0.302979
-0.0160282
0.128198
0.982378
-1.29943
0.794062
1.65913
-1.71572
-0.454652
0.31895
-0.849947
-0.753887
-0.201807
0.219144
-0.751355
-0.48305
-0.310012
0.0964747
0.292639
-0.164442
-0.34604
1.43274
-0.906266
0.105574
-0.513354
-1.1468
-0.0116246
-1.25308
-0.321638
0.0807309
0.254276
-0.772379
-0.204472
0.192824
-0.163205
-0.94789
0.0592683
0.465627
-0.865358
0.222384
-0.448458
-0.190476
0.268964
-1.26051
0.282121
-1.04705
-0.207314
0.531645
-0.515728
-0.544399
0.433978
-0.0547952
-1.14233
0.211108
0.265348
-0.581229
0.360341
-0.70124
0.320073
0.511113
-1.21891
0.541919
-0.426827
-0.422487
0.683457
-0.0151396
-0.478865
0.657621
-0.357356
-0.616909
0.38617
-0.282837
-0.293774
0.407676
-0.325773
0.431803
0.684269
-0.806246
0.714946
-0.0941227
-0.417569
0.875549
-0.132061
-0.426364
0.857905
-0.208336
-0.0882743
0.591735
-0.292561
0.142103
0.571999
-0.242903
0.346188
0.715863
-0.180875
0.716082
-0.0875369
-0.313782
1.17494
-0.504269
-0.360494
0.99583
0.100783
-0.172929
0.67161
0.577281
0.400355
1.00298
-0.746383
0.465415
0.900291
-0.302783
0.797564
-0.25039
-0.437088
1.58651
-0.544967
-0.541108
1.38803
-0.0719369
-0.630061
1.08194
0.54736
0.119463
1.558
-1.21176
0.518031
1.45818
-1.26471
1.21753
-0.621506
-0.400815
1.82137
-0.554047
-0.554651
2.03413
-0.619472
-0.955064
1.49241
0.118199
-0.501002
2.04472
-0.703792
0.197225
2.21238
-1.8951
1.94993
-1.30159
0.209727
1.65384
-0.606108
0.0527574
2.56225
-0.903027
-0.902348
1.90868
0.394481
-1.02484
2.52484
0.855611
-0.523829
2.52301
-0.826153
2.28097
-1.54778
0.697911
1.60683
-0.282051
1.20366
2.31406
-0.864268
0.305784
1.72973
0.669815
-0.862256
2.36669
3.26176
-0.496505
1.96116
1.2514
2.24039
-0.762438
1.0491
1.71887
0.366154
1.65821
1.64951
0.304486
1.05376
0.927974
1.39524
0.249182
1.39001
2.74077
0.210693
0.445035
2.79517
2.23847
0.515595
1.05877
0.84668
0.795805
1.20044
0.540235
2.62673
-0.531817
-0.0559065
3.03509
-0.478277
0.185241
0.949424
0.180434
-0.645013
-0.0517159
1.12036
1.39501
0.444774
0.237464
1.17511
1.24264
0.25858
0.966197
-0.0952197
-0.607757
-0.781878
-1.21144
0.0168466
0.28053
-0.00112689
-1.05178
0.509708
0.124612
-0.51699
-0.216459
-0.0585532
1.25035
-0.611257
-0.107717
0.0540604
-0.261739
-0.0976664
-1.51236
0.0608196
-1.36961
-0.242109
0.431838
-0.706582
-0.274295
0.665998
-0.563993
-0.251707
0.0196025
0.164606
-0.174411
0.144782
-1.03103
-0.103876
0.303769
-1.69088
0.559592
-1.02947
0.108337
0.821298
-0.512934
0.319017
0.5064
-0.408436
0.304176
-0.0498762
-0.198516
0.284716
0.542578
-0.704107
0.240346
0.823053
-1.28116
1.21415
-0.508335
-0.600275
1.13401
0.155503
-0.429775
0.312599
-0.185036
0.212167
0.0526574
-1.03704
0.387303
0.88891
-0.764371
0.328297
1.18928
-0.488096
0.828014
0.626894
-1.47854
1.27562
0.832661
-1.17232
0.715401
-0.608235
0.381341
0.379754
-1.30348
0.995786
0.856005
-1.32792
0.883162
1.39222
-0.393101
-0.00942185
1.47021
-2.17721
1.40738
1.50048
-1.5229
1.39984
-1.4107
0.451588
1.09473
-2.1421
1.87652
1.21244
-2.99312
1.94198
1.50725
-1.44521
0.301108
1.00995
-2.78645
1.42408
2.21571
-2.08205
2.01823
-1.94226
-0.125735
2.13517
-2.87855
1.91714
2.15775
-3.69198
1.86815
2.00372
-2.34259
1.66567
-0.798004
-2.53311
1.96734
1.38375
-1.77564
2.66486
-2.30713
-1.08048
2.50964
-0.675158
-0.132239
2.13618
-0.071059
0.433994
2.28668
-1.67534
2.65915
-2.10726
-0.901013
2.42655
0.159745
-0.871829
2.79428
-1.02287
-1.24788
2.12417
1.43134
-0.677408
1.45099
3.37647
-0.050205
1.59129
1.31958
2.83465
-0.98814
0.51382
2.77123
-0.492344
0.983696
2.06585
0.56303
0.578007
0.635895
3.28921
-0.275032
-0.43328
5.47809
-0.397651
-0.26397
4.77304
2.80475
0.147835
1.51462
1.98797
0.0644497
1.72547
0.922199
3.55954
-0.148166
-0.800622
6.34524
-0.311547
-1.2176
1.89713
-0.18333
-1.36288
0.918978
0.842021
3.17441
1.58628
0.639148
2.48203
1.26909
1.84155
0.806045
0.606589
-0.590393
-0.90028
-1.06745
-0.0414127
-0.329707
0.0465182
-0.76859
0.0821355
0.0611021
-0.989931
0.844507
-0.132102
0.620086
0.976542
-0.12538
0.0474085
0.493141
0.00554827
-1.0345
0.00769571
-0.884161
-0.299788
0.669755
-1.03003
0.189049
0.438494
-1.43022
0.700267
0.498631
-0.977341
0.46305
0.33922
-1.25841
0.0802786
0.19713
-1.49969
0.280102
-1.2216
-0.419181
1.4454
-0.869398
-0.239812
1.20814
-1.35745
0.0780757
1.03151
-1.04928
0.31065
0.738169
-1.33563
0.0809885
0.670248
-1.52462
0.972623
-1.11987
-0.152289
1.75075
0.00244026
-0.391999
2.23113
-0.968323
-0.316277
1.53029
-1.61155
-0.119559
1.31042
-1.53334
-0.160853
1.58076
-1.35731
1.30653
0.132132
0.109304
1.49715
0.976961
-0.244808
2.96006
-0.983054
0.0115175
2.07091
-2.10042
0.0520557
1.74801
-1.80606
0.140195
2.21382
-1.1143
1.48779
1.42914
0.216075
0.944009
1.83754
0.379446
2.70538
-1.31938
0.909293
2.06599
-2.66704
0.691485
1.66871
-2.69602
0.805764
2.21398
-1.55966
2.18352
1.11998
0.473506
0.378359
2.30784
0.657188
2.15184
-1.5724
1.29211
1.95025
-3.39773
1.34052
1.8515
-3.92317
1.04436
2.29035
-2.12279
2.51488
-0.0850087
-0.217833
0.245192
1.73474
-0.999246
2.45122
-1.8251
-0.167646
2.66607
-2.22258
0.823356
2.15278
-1.36335
0.997377
2.05128
-1.61029
2.22744
-0.822452
-1.44775
1.53862
0.314069
-2.50288
2.88224
-0.398755
-1.57734
2.22612
0.945741
-0.0361068
1.261
2.72702
0.752574
1.28361
1.29857
2.514
-0.522118
-1.11525
2.37606
-0.214537
-1.7931
2.15433
1.96878
-1.24884
0.0417825
4.92929
-0.412621
-0.733911
6.63678
0.204689
-0.0755954
5.51494
2.26059
0.60593
0.700107
1.34079
0.399616
1.68214
0.65045
4.0814
1.45054
-1.20129
7.8199
0.0432288
-1.48803
4.05855
-0.96921
-1.15668
3.0125
0.775187
3.6906
1.83463
0.14531
2.96446
0.789713
2.35031
0.218905
0.751137
-0.479246
-0.643588
-0.829405
0.0901867
0.0416564
-0.616131
-0.096913
0.0423202
-0.421533
-0.107247
-0.0414783
-0.250606
-0.0834217
0.00847585
-0.508368
-0.123962
0.0839066
-0.684993
-0.143306
-0.120553
-0.153388
-0.418889
-0.122816
-0.0744264
-0.0692053
-0.762295
-0.00892327
0.398596
-0.77169
0.0532814
0.478271
-0.540619
-0.0474244
0.0673368
-0.168106
-0.105954
-0.00827115
-0.0449453
-0.410265
-0.121052
-0.0373662
0.0120831
0.404367
0.0589472
0.58851
-0.0455082
0.239897
-0.147366
-0.146069
0.0246126
-2.39665
0.344465
-0.0139024
-2.37821
0.370078
-0.0051009
-2.35236
0.365741
-0.00703657
-2.38817
0.343694
-0.0617432
-2.46883
0.32759
-2.31506
0.306521
-0.0254973
-2.53715
0.0915676
-0.0132286
-2.51079
0.111387
0.0620159
-2.49315
0.11882
0.0561408
-2.52657
0.0968472
-0.0367869
-2.56182
0.0799645
-2.49679
0.0999985
-0.060227
0.00930221
-0.0125876
0.0178243
0.082129
0.0184221
0.0885251
0.0126375
0.0150297
-0.000315473
-0.00463031
0.019004
-2.15899
0.573543
0.0171597
-2.19361
0.579656
0.0275922
-2.18914
0.578818
0.0237264
-2.17802
0.574505
0.00109835
-2.17741
0.567528
-2.19461
0.548622
0.0089135
-2.27612
0.199783
0.00828077
-2.28511
0.203518
0.0145509
-2.28485
0.20826
0.0180854
-2.28358
0.198881
0.0149448
-2.28444
0.190141
-2.28508
0.205406
0.00152757
0.0458707
0.000567423
0.0509057
0.00112567
0.0522893
0.00274111
0.0462565
0.000163315
0.0394541
0.0379528
0.00504435
-2.50383
0.797117
0.00342888
-2.51377
0.794545
0.0123373
-2.51169
0.791944
0.00268478
-2.50398
0.796484
-0.0356629
-2.51859
0.798337
-2.49989
0.761048
0.00202536
-2.65953
0.353454
0.000716747
-2.66174
0.352797
0.00567667
-2.66119
0.352797
0.00922694
-2.66006
0.351408
-0.000111283
-2.66859
0.349472
-2.64942
0.354828
-0.0027039
0.069976
-0.00106299
0.0705211
0.00337378
0.0704744
0.0028501
0.0696049
-0.00409275
0.068817
0.0685669
0.00284414
-2.86433
0.853846
0.00223791
-2.87132
0.85014
0.00405329
-2.87099
0.85222
-0.0011621
-2.86332
0.848915
-0.0203692
-2.87066
0.844598
-2.86317
0.829853
0.00498331
-2.93134
0.415473
0.0014913
-2.93502
0.419983
-0.000867835
-2.93513
0.41929
0.000754049
-2.93279
0.419246
-0.000628433
-2.93698
0.417169
-2.92831
0.419337
0.000796493
0.0647772
-0.000985877
0.0680059
-0.00118128
0.0662273
-0.000960215
0.0661083
-0.0026007
0.065727
0.0680958
0.00169178
-3.41508
0.747303
0.00478818
-3.40255
0.739149
-0.00697144
-3.39748
0.766656
-0.00341955
-3.41263
0.720915
-0.00119227
-3.41379
0.718786
-3.38322
0.737651
0.00309376
-3.34431
0.341607
-0.000203111
-3.33373
0.354455
-0.00542778
-3.33539
0.362424
-0.00503078
-3.33908
0.345291
-0.0101705
-3.34358
0.35209
-3.31795
0.343895
0.00114074
-0.0081512
-0.00209822
0.00582313
0.000317081
-0.00376899
0.00145623
-0.00337505
-0.000785238
-0.00317277
0.0109886
-0.0147967
-4.45394
0.115915
0.0167158
-4.58179
0.0234627
0.00164612
-4.55067
0.119986
-0.0119571
-4.49949
0.0972125
-0.0126433
-4.511
0.0652885
-4.50852
0.0785569
0.0225471
-3.89066
-0.244226
0.00841057
-3.9563
-0.25689
-0.0194329
-3.96544
-0.194969
-0.0174641
-3.94026
-0.215912
-0.000960544
-3.92537
-0.250053
-3.91953
-0.246059
0.0472915
-0.359445
-0.0121675
-0.237143
-0.0102035
-0.319596
0.0141435
-0.330501
0.0563532
-0.349254
-0.216847
-0.102881
-3.96317
2.29428
0.0111158
-4.60205
2.12574
0.0469782
-4.53019
2.23516
-0.0249979
-4.16916
2.34599
-0.147091
-4.3093
2.33523
-4.43019
2.18278
-0.238576
-3.2876
-0.681225
0.0813249
-4.07011
-1.10873
0.00964952
-3.86132
-0.792168
-0.198
-3.53467
-0.642755
-0.37928
-3.55819
-0.819884
-4.02896
-1.02657
-0.0169261
-1.05175
-0.040056
-0.842526
-0.0107522
-1.11351
-0.0204632
-1.06519
0.0423409
-1.14654
-0.725696
0.0733188
3.60866
4.40629
0.134061
3.04258
4.67389
0.159744
3.18852
4.65649
0.0954557
3.39043
4.79655
-0.145846
3.36181
4.96859
2.96205
4.70131
-0.232476
1.87343
1.28648
0.301847
0.221708
1.17783
0.0993721
1.28707
1.31176
-0.3094
1.69419
1.46225
-0.651913
1.41402
1.47042
0.062834
1.22073
-0.260076
0.113695
0.168558
0.218542
-0.00698334
-0.0233525
-0.472108
0.10353
-0.565907
-0.00621375
0.233598
0.769121
7.88292
2.50269
0.318335
8.02366
3.99629
0.182856
7.77689
3.82798
0.218342
7.89032
3.73421
0.00959633
7.90658
4.1601
7.73014
3.80061
0.79711
7.36541
1.00688
0.278395
7.25435
2.46586
0.0475563
7.1847
2.13478
0.241348
7.3363
1.82249
0.0474141
7.32421
2.24672
6.91827
2.08002
0.361981
0.751865
0.176626
1.49817
-0.0966161
1.22784
0.0179218
1.05185
-0.119781
1.13664
1.17286
0.774751
7.64081
-0.127396
0.163297
9.27903
1.53715
-0.0208236
8.99129
1.15241
0.130549
9.03109
0.811675
0.117978
9.04441
1.29374
8.90365
1.12009
0.39739
8.16846
0.081838
-0.0627284
9.8111
2.39391
-0.21375
9.38825
1.88883
0.0890592
9.29247
1.2583
0.194771
9.38193
1.80348
9.34266
1.83577
0.181165
0.664728
-0.110549
1.78012
-0.206286
1.37936
0.0379325
1.02232
0.154958
1.16294
1.33011
0.275613
-0.706746
1.91162
-0.0361908
1.66512
1.99496
-0.163068
1.12143
1.87564
0.0416292
0.406533
1.92483
0.142566
1.02764
1.94813
1.09528
1.86372
-0.366265
-1.32153
1.06289
-0.669613
2.7751
1.58727
-0.551454
1.53932
1.35278
-0.145512
0.000294796
1.2586
0.137498
1.12453
1.42358
1.73581
1.33274
-1.35732
0.285495
-0.407822
0.950609
0.0241467
0.779872
-0.50125
0.5138
-0.255315
0.719685
0.817046
0.056119
-0.0157616
-0.486807
0.446449
0.0946652
-0.221158
-0.534122
0.716734
0.0462279
-0.51046
-0.568178
1.12708
-0.015074
-0.611232
-0.609167
1.2817
-0.0411184
-0.567671
-0.638338
1.23205
-0.287593
-0.629985
0.87646
0.511393
0.164023
-0.202734
-0.488443
0.791467
0.0616831
-0.480485
-0.0824288
0.606136
-0.072649
-0.798389
0.54591
0.209261
0.0140257
-0.903697
0.675315
-0.0527978
0.0614692
-0.452062
0.0849807
0.113847
0.0876203
-0.541857
0.3715
0.00749311
-0.415898
0.760636
-0.103245
-0.531096
0.802503
-0.129458
-0.477531
0.43845
0.167362
-0.699187
0.0684456
0.427051
-0.920363
0.432782
-0.7704
0.0236328
-0.239612
-0.270827
0.0368123
-0.26422
-0.283082
0.0338488
-0.258106
-0.307108
0.00479196
-0.258423
-0.321687
-0.0296569
-0.279038
-0.324851
-0.349695
-0.309947
0.156803
0.147029
-0.746176
0.18233
0.104381
-0.874613
-0.00014889
0.111089
-0.985104
-0.284612
0.163873
-1.04153
-0.268229
0.156799
-0.904281
0.0981229
-0.628427
-0.012079
-0.355417
-0.0687804
-0.423913
-0.126344
-0.429132
-0.101868
-0.267813
-0.0227167
-0.148577
-0.12755
0.00863073
0.13087
-0.410328
0.0190077
0.138339
-0.431798
0.00699574
0.131503
-0.426598
-0.00665288
0.125732
-0.433771
-0.00877182
0.11424
-0.436972
0.102589
-0.421308
0.0739738
0.475775
-1.16506
0.0726879
0.472195
-1.20718
-0.0211679
0.465881
-1.22563
-0.127681
0.465666
-1.27495
-0.131011
0.474865
-1.26158
0.475864
-1.13271
-0.0247918
-0.493177
-0.0854161
-0.51849
-0.16099
-0.516607
-0.134417
-0.478945
-0.0503518
-0.447644
-0.401881
-0.00367232
0.483742
-0.890398
0.0113717
0.457183
-0.904024
0.00463218
0.455553
-0.875411
-0.0019478
0.471739
-0.898929
0.000775741
0.465126
-0.904821
0.454288
-0.87482
-0.000729424
0.808236
-1.48882
0.0164066
0.754314
-1.52145
-0.0297608
0.756113
-1.48002
-0.0269953
0.773879
-1.57985
0.024398
0.76813
-1.61598
0.766513
-1.42054
-0.0407742
-0.587635
-0.0420204
-0.676837
-0.0657742
-0.657694
-0.0533027
-0.650354
-0.00315698
-0.671215
-0.591158
-0.0275864
0.628446
-1.49126
0.015063
0.560293
-1.50697
0.0160746
0.559404
-1.43583
0.000691482
0.587245
-1.47079
-0.000790443
0.570442
-1.47378
0.561941
-1.43755
-0.0414006
0.796472
-1.61544
0.00517198
0.745055
-1.75278
-0.026196
0.732902
-1.62215
-0.0199395
0.721024
-1.71989
0.0556437
0.687168
-1.80828
0.764258
-1.56721
-0.0883159
-0.604932
-0.0332476
-0.893832
-0.0321924
-0.811152
-0.0478242
-0.768035
0.00875881
-0.872047
-0.766287
0.0142575
0.406103
-0.0194548
0.521702
-0.0273292
0.447685
0.00674392
0.419965
0.0248856
0.456206
0.451058
-0.0846136
-0.0618407
-0.0394818
0.311053
-0.0258101
0.164647
-0.0242031
-0.0429293
0.0176918
0.0296064
0.234276
-0.0890311
-0.0744261
-0.0655246
-0.0807305
0.00558537
-0.213508
-0.584503
0.029424
-0.42162
-0.903858
0.122044
0.240414
-0.156465
0.114521
0.635086
-0.57574
0.228481
0.347911
-0.977562
0.230237
-0.672035
0.135788
0.0459725
-0.722071
0.0915985
-0.101781
-0.884181
0.12808
0.0466014
-0.369679
0.0648339
0.0344701
-0.707894
0.144288
-0.106348
-0.981269
0.144527
-0.880715
0.102333
0.00828676
0.0823449
-0.0845418
0.0717618
0.0685461
0.064118
0.138528
0.0698662
0.0462832
0.0646394
0.0658572
-0.0336082
-1.11251
0.145516
-0.102641
-1.26371
0.0245737
0.0675674
-1.16247
0.129441
0.113568
-1.24885
0.172917
0.0564115
-1.36051
0.148214
-1.15038
0.120979
0.09957
-1.1035
-0.016981
0.0825618
-1.17351
0.054888
0.00602926
-1.12137
0.100271
-0.0384639
-1.17027
0.110202
-0.100841
-1.24339
0.089789
-1.16765
0.0187671
0.0201132
0.0723981
-0.0104838
0.0836805
0.0381832
0.0708534
0.0672305
0.0636464
0.0137366
0.0586427
0.0500878
-0.15383
-0.960274
0.390225
-0.136052
-1.44435
0.0936954
0.134087
-1.30191
0.111936
0.209617
-1.3421
0.103858
0.148318
-1.44423
0.129128
-1.22542
0.374845
0.226543
-1.04729
-0.156508
0.10818
-1.1854
-0.0856971
0.00589105
-1.13173
0.0323778
-0.0472244
-1.22342
0.0446388
-0.0890765
-1.29105
-0.0215404
-1.21502
-0.0807067
0.0399146
0.0779149
-0.0122776
0.111483
0.03557
0.0925661
0.0396603
0.076693
-0.0197517
0.0596178
0.0171988
0.159022
-0.549382
0.783024
0.340339
-1.51036
0.454413
0.190899
-1.61625
0.266082
0.0202235
-1.5576
0.298797
-0.154557
-1.63005
0.576643
-0.800805
1.15323
0.436071
-0.965572
-0.176389
0.261442
-1.25885
-0.162574
-0.0335559
-1.30048
0.0116052
-0.168423
-1.39313
0.0150316
-0.300873
-1.45514
-0.0639997
-1.22243
0.0400421
0.103594
0.0693784
0.0155211
0.110816
-0.0017713
0.0932036
-0.0252793
0.0655223
-0.091151
0.0189887
-0.0408296
0.863051
-0.0311274
0.928062
0.980906
-1.46045
0.813956
0.432003
-1.86672
0.58128
-0.130107
-1.67245
0.727299
-0.408729
-1.61119
1.35216
0.0215513
2.15209
0.655352
-0.851108
-0.0117605
0.422074
-1.3646
-0.0251473
-0.0810369
-1.49646
0.144458
-0.380885
-1.53838
0.180806
-0.685586
-1.55455
0.184058
-1.05666
0.432665
0.161218
0.0632556
0.0310572
0.094366
-0.0743949
0.103772
-0.107816
0.0650297
-0.179227
-0.00271546
-0.027847
1.60851
0.311642
0.845447
1.66947
-1.51255
0.946165
0.892883
-2.12761
0.818436
-0.167551
-1.86164
0.953358
-0.563405
-1.69152
1.87987
-0.052829
2.7615
0.871007
-0.851602
0.280475
0.672337
-1.64664
0.307614
0.0961986
-1.82798
0.420968
-0.333962
-1.75756
0.506886
-0.717484
-1.73453
0.610583
-1.14246
0.804812
0.220855
0.0922919
0.0616271
0.093743
-0.10561
0.12374
-0.144772
0.114752
-0.224187
0.0293598
-0.0258052
2.33977
0.336035
0.477483
2.45804
-1.52629
0.781777
1.36046
-2.7712
1.28949
-0.396413
-2.59086
1.37791
-0.761162
-1.68426
1.80609
-0.29962
2.21494
1.15338
-0.998028
0.461154
1.2191
-2.01561
0.73121
0.248892
-2.52076
1.14074
-0.72084
-2.10952
0.995279
-0.934352
-1.78982
0.929651
-1.09634
0.667179
0.334437
0.148773
0.234457
0.159635
-0.250783
0.427658
-0.3942
0.261043
-0.379822
0.0901341
-0.111852
1.8174
-0.110116
0.504936
1.18612
-2.00905
1.59702
0.364759
-2.55384
2.4421
0.280975
-2.34776
2.44611
-0.0647964
-1.48956
2.03113
-0.446667
1.77436
1.21973
-1.41548
0.546783
1.21963
-2.693
1.41525
-0.259663
-2.0841
2.1503
-0.849475
-2.61597
1.85329
-0.932634
-1.79505
1.3183
-1.06759
0.355468
0.513249
0.205719
0.276763
0.441716
-0.488419
1.17976
-0.829493
0.763115
-0.60929
0.252987
-0.318973
-0.427502
-0.511278
1.75778
-1.22027
-0.695476
2.6865
-0.816563
0.211651
2.77249
0.435459
1.53488
2.38623
0.726433
0.925405
2.11332
-0.161647
2.14032
-0.0290424
-1.16025
1.22479
-0.130879
-1.22425
2.04587
-0.687325
0.615413
2.30299
-0.121652
0.600384
2.22212
0.104377
0.169879
1.84779
-0.462907
0.761105
0.304239
0.700635
0.182227
1.05068
-0.888007
1.38478
-1.15761
1.26046
-0.912882
0.675031
-0.475699
-1.47614
0.44409
2.5753
-2.88059
3.20774
2.85199
-1.9867
5.38551
1.42238
-0.222535
6.3879
0.870935
0.836226
5.28972
1.27978
1.22729
2.35519
-1.66777
1.13863
2.19802
-2.52325
3.58828
2.5208
-1.73277
5.1935
1.70451
-0.153217
5.60689
1.42358
1.05483
4.4334
1.49606
1.55013
1.49309
-1.41183
1.47731
-1.84235
1.65164
-1.18766
1.31415
-0.695755
1.12617
-0.408778
0.811054
0.0707282
-0.104138
1.53231
1.54674
0.442275
5.18057
1.20641
1.01699
9.09981
-0.432251
-0.0121503
6.79634
-0.837713
-0.665462
5.42934
-0.48374
4.30067
1.07966
-0.771748
2.7592
1.74289
-0.796798
6.04777
1.67866
0.0548437
9.19927
0.753419
0.0140118
7.82131
0.439441
0.0508836
6.32596
0.562571
4.71655
1.1281
-1.12423
1.18718
-1.25366
1.61186
-0.562004
1.38246
-0.203509
1.16303
-0.00234058
0.925191
0.470753
0.8819
1.2566
1.64885
1.94591
1.22577
1.33681
0.365044
0.825464
-0.21517
0.499121
1.83114
0.671545
1.83949
1.40096
2.81273
1.35817
2.67893
0.94191
2.35648
0.0167351
2.07185
2.43411
0.589013
1.22138
1.3406
0.912399
0.15899
)
;

boundaryField
{
    seabed_topleft_surface
    {
        type            calculated;
        value           uniform 0;
    }
    seabed_topright_surface
    {
        type            calculated;
        value           uniform 0;
    }
    breakwater_top_surface
    {
        type            calculated;
        value           uniform 0;
    }
    breakwater_left_surface
    {
        type            calculated;
        value           uniform 0;
    }
    breakwater_right_surface
    {
        type            calculated;
        value           uniform 0;
    }
    water_front_surface
    {
        type            calculated;
        value           uniform 0;
    }
    water_back_surface
    {
        type            calculated;
        value           uniform 0;
    }
    water_left_surface
    {
        type            calculated;
        value           uniform 0;
    }
    water_right_surface
    {
        type            calculated;
        value           uniform 0;
    }
    water_top_surface
    {
        type            calculated;
        value           nonuniform List<scalar> 
180
(
0.408502
-1.14728
-1.27237
-0.679255
0.327873
0.377693
-2.60728
-2.56417
-2.54734
-2.59111
-2.63538
-2.6232
-2.31422
-2.31723
-2.31927
-2.31882
-2.32164
-2.3275
-2.68093
-2.68299
-2.68381
-2.68288
-2.69101
-2.68413
-2.92694
-2.93072
-2.93068
-2.92951
-2.93225
-2.93044
-3.27252
-3.26831
-3.26781
-3.27073
-3.27244
-3.26163
-3.58665
-3.65388
-3.65158
-3.63749
-3.6215
-3.63534
-2.57836
-3.4416
-3.09671
-2.79027
-2.82371
-3.47777
0.968066
-1.268
0.372454
0.990599
0.367492
-1.46237
6.36526
6.16007
6.20675
6.27343
6.31906
5.85922
8.07443
9.82087
9.33247
9.07778
9.23861
9.34037
0.41502
2.65512
1.70684
1.03421
1.32184
1.99356
0.200929
0.30689
0.492473
0.909904
0.924785