/*--------------------------------*- C++ -*----------------------------------*\
| =========                 |                                                 |
| \\      /  F ield         | OpenFOAM: The Open Source CFD Toolbox           |
|  \\    /   O peration     | Version:  v1612+                                |
|   \\  /    A nd           | Web:      www.OpenFOAM.com                      |
|    \\/     M anipulation  |                                                 |
\*---------------------------------------------------------------------------*/
FoamFile
{
    version     2.0;
    format      ascii;
    class       volVectorField;
    location    "9.35";
    object      U;
}
// * * * * * * * * * * * * * * * * * * * * * * * * * * * * * * * * * * * * * //

dimensions      [0 1 -1 0 0 0 0];

internalField   nonuniform List<vector> 
1116
(
(-0.00783759 0.00387459 0.177131)
(-0.0596385 -0.016438 0.180587)
(-0.0739306 0.024672 0.171662)
(0.0358633 0.0253774 0.174366)
(0.087457 -0.00313801 0.180549)
(-0.0604759 -0.0468463 0.164527)
(-0.239884 0.0129878 0.34866)
(-0.278305 -0.00751784 0.364764)
(-0.289483 0.0118328 0.374465)
(-0.226068 -0.014307 0.356659)
(-0.192676 0.0144071 0.363655)
(-0.292882 -0.0282942 0.367122)
(-0.342819 0.00572607 0.159355)
(-0.360555 -0.0041728 0.162139)
(-0.36506 0.00281504 0.170623)
(-0.345862 -0.0159866 0.156998)
(-0.332007 0.00644734 0.159544)
(-0.385692 -0.0100759 0.160274)
(-0.284353 -0.000422062 -0.0819156)
(-0.295158 -0.00449462 -0.088818)
(-0.296821 0.000468312 -0.0873497)
(-0.289023 -0.00775202 -0.0853233)
(-0.284603 -0.0026684 -0.08463)
(-0.320371 -0.00467209 -0.093813)
(-0.173852 -0.000386907 -0.246242)
(-0.185531 -0.00411097 -0.252272)
(-0.187058 0.00112011 -0.253236)
(-0.175676 -0.00327723 -0.247496)
(-0.170163 -0.0029514 -0.247014)
(-0.207482 -0.00552381 -0.256819)
(0.00396921 0.000546603 -0.281105)
(-0.00997211 -0.00250623 -0.283962)
(-0.0107759 0.00166163 -0.28537)
(0.00335633 -0.000581209 -0.280582)
(0.0117317 -0.000979015 -0.28143)
(-0.0250185 -0.00565829 -0.284546)
(0.239273 0.00302908 -0.224403)
(0.227151 -0.000926884 -0.228025)
(0.225732 0.00144551 -0.229337)
(0.239038 -0.00034434 -0.223757)
(0.250903 0.000474495 -0.222622)
(0.214519 -0.00248804 -0.226341)
(0.388545 0.00543468 -0.170145)
(0.382941 0.000106469 -0.180915)
(0.379076 0.000114767 -0.181159)
(0.391694 -0.00272816 -0.169743)
(0.399841 0.0020796 -0.159429)
(0.367487 0.00062476 -0.18795)
(0.629089 -0.00136975 -0.0417474)
(0.633277 -0.00118647 -0.0497576)
(0.632136 0.000991796 -0.0481976)
(0.62976 -0.000950951 -0.0428082)
(0.62245 -0.00353442 -0.0417914)
(0.627659 -0.00355813 -0.0600814)
(0.64982 -0.0102003 -0.0777598)
(0.636006 -0.00474295 -0.0685063)
(0.638746 0.00322753 -0.0639269)
(0.649956 0.00130088 -0.0845443)
(0.642628 -0.00396639 -0.102389)
(0.630867 -0.00547907 -0.0551593)
(-0.192606 -0.0114977 -0.483871)
(-0.245415 -0.00418384 -0.500793)
(-0.240186 0.00264148 -0.495271)
(-0.188499 0.000617668 -0.490615)
(-0.172938 -0.000572635 -0.509755)
(-0.253716 0.00331328 -0.480329)
(-0.703385 0.0240913 -1.05151)
(-0.748278 0.0151055 -1.0453)
(-0.735246 -0.0154673 -1.04724)
(-0.700203 0.00483063 -1.05651)
(-0.691167 0.0187387 -1.05735)
(-0.740159 0.0204384 -1.03217)
(-0.106514 0.0007304 0.0409148)
(0.0107362 0.0354473 0.0557657)
(0.015802 -0.108267 0.0497244)
(-0.262663 -0.0973967 0.0174144)
(-0.385804 0.00833073 0.020923)
(-0.0163992 0.113419 0.0337327)
(0.122739 -0.0379149 -0.0156873)
(0.186503 0.0348842 -0.0474804)
(0.193076 -0.0156092 -0.0472715)
(0.0981693 0.0827166 0.0210392)
(0.0899444 -0.0555928 0.0834646)
(0.170916 0.0184444 -0.0538967)
(0.153853 -0.040217 -0.163983)
(0.204341 0.015215 -0.189911)
(0.184752 0.0069082 -0.189672)
(0.15727 0.0946394 -0.150531)
(0.174649 -0.0487767 -0.123095)
(0.188316 -0.00573929 -0.194397)
(0.386041 -0.0236864 -0.102503)
(0.417547 0.00238674 -0.111945)
(0.403828 0.00425168 -0.11042)
(0.405901 0.0443995 -0.104695)
(0.433716 -0.0242457 -0.105589)
(0.432481 0.00121065 -0.126552)
(0.954466 -0.0115458 -0.0605055)
(0.977884 0.000523876 -0.0633438)
(0.97591 -0.00149716 -0.0629301)
(0.967456 0.00868484 -0.0647599)
(0.980649 -0.00922709 -0.0698556)
(1.01204 0.0101642 -0.0841922)
(1.57619 -0.00673662 -0.107132)
(1.59451 -0.000914984 -0.108856)
(1.59857 -0.00128553 -0.109634)
(1.58023 0.000142703 -0.107781)
(1.58094 -0.00447237 -0.107381)
(1.62741 0.00843845 -0.125983)
(2.03442 -0.00337168 -0.133627)
(2.04361 -0.00159172 -0.131541)
(2.04927 -0.000723177 -0.133406)
(2.03444 0.000438919 -0.131591)
(2.02887 -0.00240575 -0.129072)
(2.06603 0.0056335 -0.142439)
(2.4154 0.00291903 -0.189347)
(2.42794 0.00223603 -0.175433)
(2.42998 -0.00322205 -0.179712)
(2.4171 0.000577326 -0.183779)
(2.40644 0.000861367 -0.17729)
(2.44235 0.00596571 -0.183143)
(2.2779 0.00554532 -0.0697839)
(2.30363 0.000336115 -0.0597855)
(2.29523 -0.00112184 -0.0636443)
(2.28893 0.00106755 -0.0641326)
(2.29152 -0.000827977 -0.0596241)
(2.30164 -0.00138507 -0.0686469)
(2.22356 -0.000582699 0.529625)
(2.24494 -0.00416306 0.518945)
(2.23086 0.00476991 0.5261)
(2.24033 0.0064131 0.515788)
(2.2506 -0.0098755 0.50875)
(2.21362 -0.01807 0.526151)
(1.13655 -0.0105734 1.63959)
(1.17935 -0.0058778 1.60926)
(1.1447 0.00138975 1.61831)
(1.1848 0.00781963 1.61332)
(1.23132 -0.0206108 1.60627)
(1.10239 -0.031853 1.61512)
(0.594617 0.0103755 0.236652)
(0.536538 0.0165628 0.307503)
(0.545404 -0.0239378 0.260184)
(0.640936 -0.00850412 0.264115)
(0.649879 0.0273823 0.359704)
(0.511971 0.0502388 0.271944)
(0.581375 -0.0423631 -0.0254168)
(0.684212 0.133418 0.0371986)
(0.858453 -0.0593245 0.0731402)
(0.558151 -0.0578936 -0.0170074)
(0.378098 0.00908683 -0.103739)
(0.869814 0.238683 0.0904728)
(3.75476 -0.0625213 -0.0489406)
(3.82034 0.0572364 -0.015257)
(3.91054 -0.0299874 -0.0297751)
(3.77243 0.0266545 -0.107506)
(3.6251 -0.00891954 -0.196433)
(3.94039 0.234126 -0.0341696)
(7.28818 -0.0789767 -0.27889)
(7.25503 0.0246157 -0.437319)
(7.33128 -0.0178275 -0.511064)
(7.26554 0.0528527 -0.271012)
(7.16947 -0.0093777 -0.213683)
(7.42991 0.182702 -0.503667)
(11.137 -0.0608768 -1.19622)
(11.0911 0.0287294 -1.31819)
(11.142 -0.0151729 -1.37306)
(11.0917 0.0546259 -1.20013)
(10.9837 0.0042696 -1.14714)
(11.3209 0.162226 -1.35572)
(14.9935 -0.0414841 -1.80454)
(14.9555 0.0394548 -1.85747)
(14.995 -0.0146946 -1.86954)
(14.9526 0.0468843 -1.80945)
(14.8098 0.0159 -1.80518)
(15.2607 0.146015 -1.84406)
(19.917 -0.0367659 -1.93251)
(19.9181 0.039064 -1.94721)
(19.9597 -0.0127169 -1.94107)
(19.8616 0.0371301 -1.93207)
(19.7297 0.00949243 -1.93365)
(20.2262 0.114461 -1.90175)
(23.1006 -0.0660958 -1.38677)
(22.9669 0.00239837 -1.42291)
(23.0278 0.00383304 -1.4144)
(23.0408 0.0467471 -1.39238)
(22.879 -0.0307976 -1.40621)
(23.3627 0.0584273 -1.36167)
(32.5566 -0.104062 0.878354)
(32.5429 -0.00091717 0.883091)
(32.5696 0.031081 0.880594)
(32.4629 0.143058 0.87274)
(32.4458 -0.125382 0.86061)
(32.6875 -0.0389415 0.912844)
(17.915 -0.0344208 1.91028)
(17.7183 0.00730765 1.89192)
(17.773 0.0181865 1.89892)
(17.9391 0.083114 1.92582)
(18.2069 -0.0851569 1.94589)
(17.7204 -0.0539236 1.90014)
(9.25857 -0.0249852 1.37587)
(9.10907 0.013259 1.33637)
(9.12234 -0.0171833 1.36299)
(9.24116 0.0256884 1.35968)
(9.35607 -0.0435013 1.34172)
(9.02089 -0.00518759 1.37819)
(2.289 -0.0525053 1.7004)
(2.30645 -0.0538773 1.74116)
(2.2479 -0.0102132 1.72313)
(2.31454 0.00633652 1.71668)
(2.44557 -0.050195 1.78117)
(2.11887 -0.0365229 1.64414)
(1.55775 0.00778083 0.218039)
(1.53183 0.00804551 0.372802)
(1.51974 -0.014299 0.318362)
(1.59315 -0.0301421 0.250929)
(1.63565 0.0339867 0.319469)
(1.4183 0.0622518 0.355212)
(-1.65157 -0.0313695 -2.75873)
(-1.8271 0.14767 -2.7469)
(-1.6063 -0.0326156 -2.622)
(-1.68321 0.0268288 -2.70136)
(-1.74097 -0.041256 -2.96196)
(-1.59266 0.10273 -2.50942)
(-0.0961517 0.0407358 -4.76648)
(-0.144293 -0.0245362 -4.81286)
(-0.296031 0.0173152 -4.69936)
(-0.0786383 0.0254083 -4.74857)
(-0.0103767 0.0188651 -5.05891)
(-0.509404 -0.060997 -4.42102)
(-0.665977 0.0273217 -5.24299)
(-0.707268 0.027658 -5.42588)
(-0.664293 0.0101315 -5.34981)
(-0.685528 -0.0441171 -5.34173)
(-0.702512 0.0916903 -5.38256)
(-0.600848 0.0575715 -5.25179)
(-0.316891 0.0279849 -5.97387)
(-0.346624 -0.013211 -6.0262)
(-0.357428 -0.0176537 -5.98172)
(-0.340446 -0.0495146 -6.02576)
(-0.355213 0.00963209 -6.12671)
(-0.283252 -0.0185908 -5.82184)
(-0.944775 0.00937674 -6.88314)
(-0.982985 -0.0219317 -6.89991)
(-0.963296 -0.0150903 -6.86754)
(-0.976944 -0.0552036 -6.9201)
(-1.02955 0.000745227 -7.00869)
(-0.87935 -0.0354583 -6.71414)
(0.347912 -0.000147301 -8.15537)
(0.263906 -0.0184975 -8.12558)
(0.3151 -0.0133099 -8.08742)
(0.248771 -0.0601371 -8.19906)
(0.144328 0.0184059 -8.20641)
(0.35962 -0.0170739 -8.00457)
(-0.303285 -0.0916367 -9.25542)
(-0.378001 -0.0603127 -9.53673)
(-0.275915 0.0251724 -9.4508)
(-0.407896 0.0063281 -9.30194)
(-0.427394 -0.0214666 -9.36404)
(-0.245972 -0.0284617 -9.31821)
(9.96294 -0.222977 1.51664)
(9.37325 -0.0948475 1.13047)
(9.40674 0.118209 1.10916)
(9.73252 0.191467 1.4795)
(9.41963 -0.117119 1.35042)
(9.62739 -0.049004 1.28793)
(18.1254 -0.0636617 14.0727)
(17.9048 0.0850035 14.0834)
(17.9284 0.0626255 14.0663)
(18.2789 0.206519 14.1282)
(18.4732 -0.137223 14.1793)
(17.9529 -0.0494658 14.0521)
(14.0424 0.0467647 11.3681)
(14.2866 0.183972 11.3753)
(14.303 0.0174472 11.3936)
(14.5655 0.103775 11.398)
(14.7603 -0.0571192 11.4091)
(14.3242 0.0392204 11.4226)
(4.35783 0.181174 8.47672)
(4.38461 0.215137 7.45576)
(4.31692 0.0196642 7.51616)
(4.65844 0.0193856 7.76184)
(4.74639 -0.0206056 7.64957)
(4.17521 0.040015 7.4657)
(3.19253 -0.0191481 2.42062)
(3.51544 0.0311524 2.50979)
(3.33698 -0.0236477 2.454)
(3.2853 0.00959642 2.43555)
(3.396 -0.0149936 2.486)
(3.27622 0.068289 2.43648)
(-0.308135 0.034683 -0.591085)
(-0.415349 0.153303 -0.252729)
(-0.33676 -0.181009 -0.669267)
(-0.372983 -0.185069 0.0767201)
(-0.195704 -0.531158 -0.0845913)
(-0.116519 -0.0688149 -0.718234)
(-1.01896 0.0253039 -0.753623)
(-1.01752 0.259206 -0.038122)
(-0.978939 -0.256415 -0.682625)
(-1.02445 0.25227 0.0904308)
(-0.791384 -0.405527 0.144682)
(-0.784599 0.00753987 -0.801783)
(-1.55214 0.0808867 -0.588342)
(-1.55436 0.173901 0.035013)
(-1.1858 -0.203251 -0.51913)
(-0.700268 0.550208 -0.210752)
(-1.21749 -0.259724 0.168212)
(-1.25356 -0.0677623 -0.669648)
(-1.70483 0.186249 -0.652149)
(-2.2402 0.418732 -0.144431)
(-1.29072 0.122183 0.252938)
(-0.809113 0.331588 0.13486)
(-1.72934 -0.356995 -0.0379604)
(-1.37178 -0.148107 -0.889076)
(-1.5736 0.187154 -0.851475)
(-2.06616 0.731713 -0.291859)
(-0.4475 0.257828 0.825992)
(-0.919959 -0.242996 0.487195)
(-2.23793 -0.475651 -0.107105)
(-1.73259 -0.216396 -1.14353)
(-1.67118 0.210909 -0.811857)
(-1.50887 0.66318 -0.146518)
(-0.116764 0.193535 0.859132)
(-1.13205 -0.525041 0.381)
(-2.64875 -0.599686 -0.0768796)
(-2.26071 -0.226729 -0.944047)
(-2.00045 0.41066 -0.894798)
(-1.08241 0.684727 -0.603975)
(0.29451 1.2197 -0.731088)
(-1.68298 0.384032 0.43221)
(-3.68646 -1.09437 0.0449392)
(-2.72844 -0.248709 -0.744227)
(-1.85761 -0.0322394 -0.279252)
(-0.957431 0.688918 -0.958018)
(0.657543 0.895049 -1.42219)
(-4.20677 0.429933 1.32158)
(-4.91454 -2.01505 0.387544)
(-2.1303 -0.311801 -0.741378)
(-3.06332 -0.86179 0.8255)
(-0.840104 -0.467944 -1.16774)
(0.404846 -0.394925 -1.60481)
(-6.0236 0.623227 2.01104)
(-5.31568 -2.11603 1.05425)
(-0.326523 0.0882398 -0.648188)
(-4.31867 -0.126221 1.70795)
(-1.16261 -1.46136 -0.720828)
(1.61218 -1.82877 -1.80489)
(-1.45481 -0.707356 -0.205566)
(-1.38974 -0.551089 -0.0992215)
(0.90743 0.502371 -0.778631)
(-0.749628 0.493984 1.10177)
(-3.28804 -0.567627 1.5648)
(1.45735 -1.90332 -1.64554)
(2.54691 -1.26367 -2.66446)
(2.3852 -0.311986 -2.19334)
(1.15341 0.670455 -0.859978)
(-0.0300423 0.429779 0.286606)
(-1.19791 0.134287 3.24102)
(0.8263 -0.949166 -0.775935)
(1.39615 -0.655727 -1.70921)
(1.41667 -0.269821 -1.52392)
(0.323767 0.229539 -0.313557)
(-0.0163581 -0.265071 -1.25031)
(0.0442402 0.482486 -0.800347)
(0.302774 -0.892231 -0.249463)
(-0.114256 -1.10964 -0.749125)
(-0.134095 -0.451269 -1.32705)
(-0.0632436 0.0991375 -1.76013)
(-0.876244 -0.470298 -1.14399)
(-0.734684 0.147293 -0.598193)
(-0.509396 -1.25674 -0.0624664)
(-0.719379 -0.963276 -0.113807)
(-0.805768 -0.158799 -0.528012)
(-0.858028 0.722027 -1.4088)
(-1.22877 -0.591539 -0.616542)
(-1.00055 -0.20957 -0.805545)
(-0.334534 -0.750039 -0.463567)
(-0.777402 -0.405647 0.375219)
(-1.34843 -0.207476 0.141845)
(-1.31982 0.952249 -0.920436)
(-1.46758 -0.580137 -0.683869)
(-1.57965 -0.303085 0.0923962)
(-1.23875 -0.442085 0.735622)
(-0.855815 0.276213 0.44264)
(-1.34954 -0.049851 0.230015)
(-1.4678 0.792715 -0.923565)
(-1.90535 -0.611361 -1.02876)
(-1.94313 -0.101564 1.03484)
(-1.34941 -0.545679 2.27591)
(-1.56048 0.298646 0.473584)
(-1.44232 0.284998 -0.153772)
(-1.24443 0.823275 -1.31134)
(-2.54586 -0.697372 -1.24437)
(-2.31522 -0.26338 1.0023)
(-1.96322 -0.779283 2.17584)
(-2.52474 -0.233654 -0.0330498)
(-2.11269 0.357378 -1.21724)
(-1.63643 0.843879 -1.85025)
(-3.41134 -0.61394 -1.72807)
(-3.27053 -0.278887 0.108406)
(-2.59793 -0.788636 1.11057)
(-3.62557 -0.91672 0.286339)
(-3.42074 -0.149859 -1.87811)
(-2.827 0.576731 -2.28938)
(-3.47599 -0.0325928 -1.72379)
(-4.73456 0.300345 -1.21861)
(-3.56014 -0.211052 0.70218)
(-5.07222 -1.23837 2.56515)
(-4.99338 -1.10107 -0.519128)
(-4.16853 0.265707 -2.09088)
(-2.95066 0.177441 0.533926)
(-5.30029 0.931278 -1.34984)
(-4.4582 1.2733 -0.0409555)
(-6.83843 -0.432837 5.00752)
(-6.1387 -1.43716 2.51021)
(-4.69031 0.368149 -0.634543)
(-4.58324 0.867335 3.42406)
(-4.28815 1.10109 1.58313)
(-2.82853 1.81364 1.79967)
(-3.82692 0.522182 3.61087)
(-2.65893 -0.169725 4.55921)
(-4.3633 0.687582 2.18261)
(-3.15956 1.00551 2.904)
(-3.1802 1.3486 4.5895)
(-1.39129 0.232573 3.15654)
(-2.38437 -0.733559 2.18228)
(0.266087 -0.538192 0.151159)
(-4.65279 1.02185 1.42657)
(-0.351106 0.346542 -1.01077)
(-0.292938 0.773856 1.8774)
(0.487692 0.703158 1.34102)
(1.61367 0.26085 -1.9112)
(2.73357 -0.610311 -2.81566)
(-0.190731 -0.709742 -0.468687)
(0.519101 -0.222647 -1.9015)
(0.429673 0.741063 0.0732128)
(0.599417 0.141222 2.00816)
(0.513714 -0.669872 -1.2903)
(0.451982 -0.246819 -3.73706)
(0.192827 -0.225797 -2.49229)
(-0.439587 -0.455787 -0.883596)
(-0.895711 -0.0368288 0.45972)
(-0.389367 -0.558249 1.30908)
(-0.0904555 0.0153911 -2.39032)
(0.0183259 -0.24099 -3.94545)
(-0.417098 -0.00169594 -0.621914)
(-1.45392 -0.937462 0.540134)
(-1.78863 1.04315 -0.265282)
(0.242898 -0.245306 -0.46265)
(-0.391338 0.671667 -1.3424)
(-0.978963 -0.0114114 -2.86575)
(-1.94548 0.428378 0.357339)
(-2.06942 -0.866378 0.287313)
(-0.345561 -0.301632 -0.737572)
(0.1781 -0.561463 -1.72748)
(-1.53152 0.888528 -1.25465)
(-1.95522 -0.0362694 -0.752896)
(-2.99395 0.676406 0.692203)
(-2.31945 -1.44567 -0.301444)
(-0.672641 -1.44878 -0.585612)
(-0.211607 -0.5929 -0.192846)
(-1.47697 1.14556 -2.88402)
(-2.64225 0.723559 -0.926118)
(-0.643257 1.2318 0.6666)
(-2.62399 -2.4027 -0.341623)
(-2.00449 -1.96948 -1.20629)
(-1.24167 -0.671614 -0.0714456)
(-0.997389 1.44371 -4.68501)
(-2.14003 1.95537 -3.56082)
(0.746057 2.0584 -0.0648321)
(-2.58927 -3.07133 0.104218)
(-3.16914 -2.53694 -2.21015)
(-3.35522 -0.972781 -0.505362)
(-3.20033 0.646178 -2.72369)
(-2.78448 2.48032 -5.08672)
(-1.81106 1.55396 -2.60927)
(-3.3405 -2.64225 -0.86973)
(-4.31479 -2.17825 -1.99139)
(-4.97745 -1.20575 1.07031)
(-4.90019 -0.670457 0.937242)
(-4.22438 0.297445 -2.44933)
(-4.155 0.704741 -3.54669)
(-4.36921 -0.87545 -1.79223)
(-5.62741 -1.04496 -1.80064)
(-5.65919 -0.568733 2.56055)
(-5.27933 -1.17413 6.81412)
(-5.1301 -0.640699 2.02044)
(-5.42958 0.561336 -2.18293)
(-4.96464 0.0421872 -1.70457)
(-5.5426 0.699384 -0.481765)
(-4.53703 1.1405 3.40186)
(-3.29536 0.230429 7.50213)
(-3.47597 -0.944356 6.80294)
(-5.77732 0.345964 -0.415111)
(-5.52184 0.465149 0.214612)
(-4.28916 2.16052 6.10249)
(-0.502453 0.196521 9.66414)
(3.05551 -0.0549145 1.7789)
(3.3894 -0.752323 -0.023546)
(-5.93475 0.501514 4.4417)
(-2.92493 0.791772 2.20141)
(-1.34919 2.08302 3.45584)
(0.651275 2.29112 2.62094)
(2.12357 1.51276 -0.997542)
(2.97314 -0.377781 -2.2198)
(1.44079 -1.1237 0.47921)
(0.322914 -0.182098 -1.77611)
(0.0794915 -0.38135 -1.8184)
(0.921098 0.481538 2.82936)
(0.930516 1.03699 1.61872)
(0.216631 0.904581 -1.56523)
(0.105828 0.10096 -2.22942)
(-0.489002 -0.322753 -1.62941)
(-0.289889 -0.158938 -2.73268)
(-0.50364 0.450748 -0.88329)
(-0.41696 0.716577 -1.67417)
(-0.164635 0.267692 -2.53598)
(-0.0592685 -0.0602613 -2.52039)
(-1.96636 -0.47277 -2.15114)
(-1.32984 -0.279064 -1.6195)
(-1.51259 -0.164604 -0.46011)
(-0.904063 0.322225 -1.75028)
(-0.453537 0.191256 -2.43719)
(-0.884915 0.0223426 -1.83521)
(-3.57625 -0.283415 0.118794)
(-3.40065 -0.0829782 -0.185593)
(-2.32231 -0.522409 -2.36191)
(-1.79336 0.0104484 -1.97336)
(-2.02104 -0.313489 -1.43174)
(-3.10864 0.0928769 1.37551)
(-3.57002 -0.198273 2.56007)
(-5.32418 0.237369 -1.52831)
(-3.3801 -0.462882 -4.46995)
(-3.14642 0.440991 -2.92079)
(-3.9704 -0.426015 -0.92046)
(-2.53256 0.799636 3.94852)
(-2.90375 -0.85924 4.88553)
(-5.63191 0.941905 -3.74337)
(-3.59786 0.229488 -7.22557)
(-2.69172 1.03538 -6.62962)
(-4.38374 0.169135 -2.45028)
(-3.87893 1.34288 3.00653)
(-2.26178 -0.84072 6.79365)
(-4.00344 1.20583 -5.08726)
(-1.90253 0.645825 -9.3773)
(-1.30285 1.29973 -10.3351)
(-3.69402 0.974144 -4.50903)
(-5.27541 1.14688 -0.847528)
(-0.738052 -0.375129 5.39498)
(-3.15648 -0.501625 -5.59163)
(-4.59041 -0.549959 -3.46913)
(-4.87672 0.14586 -1.18261)
(-4.04389 1.18401 -3.52532)
(-3.74179 0.761829 -3.5026)
(-1.85628 -0.759179 2.18289)
(-5.59642 -2.46142 -1.27395)
(-5.92353 -1.7065 3.07548)
(-5.0659 -0.721824 6.32493)
(-4.27991 0.515986 2.87781)
(-4.60033 0.910314 -1.3594)
(-4.55421 -0.951753 -0.515544)
(-5.91486 -1.4988 2.40901)
(-4.94996 -1.35719 8.13184)
(-3.24612 -0.551798 11.9832)
(-3.66638 -0.539265 9.9329)
(-5.55262 0.842624 0.734996)
(-5.39318 -0.214388 -0.0889965)
(-5.13199 1.21897 6.29688)
(0.482515 1.80217 12.209)
(2.76022 1.3311 4.23439)
(1.34977 -1.34064 2.71778)
(-5.78881 0.0173474 6.25594)
(0.272537 0.779932 -0.234373)
(0.829398 2.451 0.829857)
(1.65065 2.83557 -0.0157404)
(2.79779 1.64682 -1.57244)
(3.38663 -0.188555 -2.26469)
(1.98328 -0.875761 -0.869646)
(-1.21415 -0.0661778 -0.349678)
(-1.34614 0.131595 0.220465)
(-1.21728 -0.0705062 0.556826)
(-1.29932 0.0124317 -0.0548946)
(-1.34918 0.00931229 -0.488881)
(-1.27242 0.109183 0.692088)
(-0.888942 -0.380129 -1.41601)
(-0.6415 -0.318131 -1.33265)
(-0.446247 0.160089 -1.12783)
(-0.790667 0.606425 -1.33828)
(-1.01348 0.189939 -1.49314)
(-0.767495 -0.0290347 -0.867404)
(-0.708398 -0.441128 0.775274)
(-0.117148 -0.228077 -2.04354)
(0.0279577 0.145459 -2.27899)
(-0.381349 0.601911 -1.16519)
(-0.813156 0.404463 0.636343)
(-0.789473 0.0667547 0.735322)
(0.806453 0.0320089 -3.33008)
(0.89493 0.00358504 -3.31899)
(0.87432 -0.033884 -3.25661)
(0.792009 0.029864 -3.31475)
(0.758301 -0.0398466 -3.50953)
(0.662384 -0.0879967 -3.12951)
(0.4745 -0.0145243 -4.88157)
(0.555176 -0.0438965 -4.83321)
(0.568754 0.0258258 -4.79946)
(0.499886 0.0933229 -4.86941)
(0.450096 0.00229441 -4.95708)
(0.490117 -0.0586782 -4.76793)
(0.10727 -0.0384075 -4.79783)
(0.131981 -0.0533696 -4.72036)
(0.128713 0.0362892 -4.68895)
(0.120986 0.0986308 -4.76775)
(0.0940505 0.0433527 -4.84614)
(0.0789248 -0.00674662 -4.82169)
(0.675474 0.0239244 -2.86506)
(0.697027 0.0140499 -2.96803)
(0.696781 0.0145163 -2.95936)
(0.683493 0.0380178 -2.91867)
(0.650326 0.00721738 -2.91612)
(0.651866 -0.00631008 -2.99894)
(0.00399789 0.00894651 -4.4457)
(0.0196683 0.00574883 -4.47049)
(0.0374008 0.0104224 -4.46455)
(0.00659968 0.0179446 -4.46228)
(-0.0243497 0.0161497 -4.4611)
(0.0279451 0.00924605 -4.44736)
(-0.0350658 0.00114031 -4.25277)
(-0.013752 0.000964114 -4.25839)
(-0.00768209 0.000260828 -4.26222)
(-0.0317988 0.00245082 -4.26133)
(-0.0575632 0.00140071 -4.26627)
(-0.0603697 -0.00102729 -4.27738)
(1.57421 0.00487606 -3.498)
(1.57193 0.00572065 -3.53896)
(1.56757 -0.000609975 -3.53749)
(1.56908 0.026172 -3.50697)
(1.57517 -0.0224817 -3.54496)
(1.5008 -0.0382047 -3.54289)
(0.717847 0.00247069 -5.07159)
(0.714447 0.000371585 -5.07048)
(0.715581 0.00101006 -5.06542)
(0.710655 0.0109421 -5.06688)
(0.708463 0.00381153 -5.07981)
(0.717942 -0.00357219 -5.02507)
(0.171287 -0.00193381 -4.93766)
(0.171192 -0.00269678 -4.94178)
(0.171034 0.00122628 -4.94339)
(0.170264 0.00486757 -4.94133)
(0.168773 -0.00112406 -4.95661)
(0.166634 -0.00451055 -4.94352)
(1.72647 0.00113055 -4.45531)
(1.71588 0.00487089 -4.48074)
(1.7106 -0.00172896 -4.48171)
(1.72811 0.010862 -4.45992)
(1.72819 -0.0145963 -4.47995)
(1.65104 -0.0193207 -4.4916)
(0.775951 0.00448941 -5.47601)
(0.776208 0.00383672 -5.47911)
(0.775706 -0.00175367 -5.47765)
(0.775588 0.00110986 -5.47198)
(0.770053 -0.000210349 -5.47859)
(0.780759 -0.000859037 -5.44868)
(0.131415 0.000794652 -5.39705)
(0.132983 6.53624e-05 -5.40422)
(0.132825 -0.00132047 -5.40429)
(0.130869 -0.000532264 -5.40199)
(0.130138 -0.00186401 -5.40723)
(0.130757 -0.00226158 -5.40376)
(2.03221 0.00220306 -5.84851)
(2.02527 0.00364557 -5.83637)
(2.03702 0.000730759 -5.81545)
(2.00952 -0.00881628 -5.86519)
(1.98984 0.000359571 -5.86204)
(2.00599 -0.00191425 -5.80874)
(1.04439 0.00617362 -6.14859)
(1.06222 0.00114479 -6.12053)
(1.05897 -0.00264571 -6.12289)
(1.06017 -0.00405726 -6.13009)
(1.05633 -0.00775293 -6.14191)
(1.0557 -0.00887862 -6.07899)
(0.137837 0.00145849 -6.04915)
(0.156684 -0.000620224 -6.04039)
(0.146509 -0.00171307 -6.04024)
(0.147759 0.00223376 -6.04589)
(0.145218 9.4054e-05 -6.04883)
(0.16143 -0.00164314 -6.02697)
(1.30008 -0.0330727 -8.66349)
(1.29996 0.0234641 -9.00673)
(1.3967 0.000681387 -8.90765)
(1.22091 -0.00141319 -8.76154)
(1.25177 -0.013353 -8.82981)
(1.32368 -0.00706673 -8.8023)
(0.50978 0.0198595 -7.42125)
(0.541011 0.0290789 -7.53978)
(0.594211 -0.0166813 -7.53769)
(0.518513 -0.0214397 -7.49284)
(0.555645 -0.00740822 -7.46846)
(0.509913 0.0049675 -7.4679)
(-0.203749 0.0470315 -6.65144)
(-0.157026 0.0146817 -6.77623)
(-0.18712 -0.0233446 -6.77576)
(-0.186743 -0.00343122 -6.74769)
(-0.181846 0.0387846 -6.71639)
(-0.140027 0.0423257 -6.73715)
(-1.18936 -0.266657 -6.80919)
(-1.57073 0.010468 -8.10509)
(-1.26602 0.0356019 -8.04871)
(-1.17066 0.0836516 -7.1246)
(-1.33946 -0.156848 -7.58206)
(-1.36881 -0.0991906 -7.57219)
(-2.12877 -0.378662 -6.57579)
(-2.22528 0.0017605 -7.55055)
(-1.95935 0.0878864 -7.43087)
(-1.9925 -0.048549 -7.01047)
(-2.20663 -0.400344 -7.04392)
(-2.13905 -0.187271 -7.3959)
(-1.22099 -0.0589562 -4.87553)
(-0.790467 -0.00184493 -6.53037)
(-1.07501 -0.0353645 -5.87463)
(-1.12927 0.0108691 -5.27976)
(-1.20567 -0.0375536 -5.34121)
(-0.738524 0.0858025 -6.58859)
(9.0941 -0.0896666 11.3556)
(8.95496 0.176178 10.8231)
(9.04702 0.0671074 10.7765)
(9.36021 0.257797 11.2162)
(9.5403 -0.134857 11.0584)
(9.03648 -0.0577989 10.7528)
(-0.041498 -0.424633 4.45747)
(-1.45758 0.122125 2.85055)
(-0.573625 0.286301 3.42157)
(-0.00974559 -0.0540484 3.77236)
(-0.408693 -0.620033 3.8417)
(-1.19411 -0.375497 2.65979)
(-2.69286 -0.643178 1.73311)
(-2.32915 0.0969992 -2.40286)
(-3.1179 0.186211 0.640849)
(-2.82911 -0.17655 1.77428)
(-3.10825 -0.82059 0.64089)
(-1.94286 -0.177761 -2.74857)
(10.42 0.376865 16.1314)
(11.4212 0.636888 16.4752)
(11.1897 0.104517 16.1974)
(11.3932 0.294299 16.3902)
(11.8387 0.00916838 16.462)
(11.2811 0.0354288 16.1803)
(6.05184 0.476057 14.7909)
(6.72545 0.699559 14.973)
(6.4388 -0.0835517 14.4654)
(6.52351 0.222542 14.8036)
(6.81047 0.0849111 14.7695)
(6.47172 0.0469337 14.3411)
(3.0835 0.232057 11.8097)
(3.09905 0.481149 11.4026)
(2.96103 -0.208112 11.4985)
(3.13535 0.0803443 11.6259)
(3.02976 -0.0828804 11.7079)
(2.7961 -0.0509402 10.8314)
(-2.91649 0.520921 12.9979)
(3.16147 0.531594 15.85)
(2.2702 -0.0785537 15.5607)
(1.2086 0.0876319 15.8335)
(2.93139 0.0836531 15.7105)
(2.11191 0.0966082 15.4791)
(-1.62176 0.485323 16.5513)
(3.95514 0.299172 19.2501)
(2.91438 -0.385512 18.5842)
(1.50636 -0.0231947 18.6516)
(3.00312 0.155194 18.734)
(2.74337 0.173722 18.4026)
(0.306382 0.302048 14.9066)
(3.35056 0.185432 18.0969)
(2.428 -0.42662 17.1931)
(1.54585 -0.0321225 16.7271)
(1.96939 0.131183 17.0022)
(2.32641 0.181808 17.1979)
(3.36281 0.177601 4.15278)
(4.40542 0.209145 4.7937)
(3.9653 -0.237193 4.5081)
(3.71694 -0.0190201 4.56098)
(3.94593 0.0693317 4.71925)
(3.97031 0.16992 4.44556)
(1.1092 -0.274122 -6.21997)
(3.42439 -0.271948 3.367)
(2.62752 -0.833212 1.17085)
(1.74513 -0.286685 -2.19518)
(2.30788 0.0270851 0.590666)
(2.63721 0.214733 1.19491)
(1.57069 -1.19928 0.656485)
(2.96244 -0.794942 4.70522)
(2.33738 -0.0336416 2.9442)
(1.76766 -0.0473388 1.74893)
(2.02873 -0.562683 2.21454)
(2.32026 -0.0448162 3.46963)
(1.56187 0.0407418 -0.306218)
(1.75624 0.127337 -0.467492)
(1.7922 0.124291 -0.505959)
(1.92148 0.0259408 -0.467975)
(2.00742 -0.0656804 -0.395888)
(1.88065 -0.0617534 -0.340899)
(-0.51518 0.351497 0.245636)
(0.191188 1.09976 -0.67858)
(1.28697 1.20179 -2.17219)
(1.56343 0.544831 -2.77063)
(0.0670501 0.126792 -2.59699)
(-1.23059 -0.27973 -1.08692)
(-0.539268 0.200372 0.631058)
(-0.39247 0.865667 0.959813)
(-0.391693 1.27703 1.52497)
(-1.11028 1.05526 2.7663)
(-1.80962 0.342546 2.812)
(-1.67748 -0.072665 1.59497)
(0.501324 0.0243755 -0.272273)
(0.519263 0.0462423 -0.27357)
(0.624164 0.0558653 -0.264689)
(0.665742 0.0421262 -0.279459)
(0.664174 -0.0320754 -0.285417)
(0.663567 -0.0406514 -0.30677)
(1.22012 0.139222 -0.908763)
(1.65511 0.303544 -1.01988)
(2.03183 0.230861 -0.970633)
(2.10015 -0.241954 -0.988338)
(1.60014 -0.524455 -1.18916)
(0.713212 -0.230771 -1.49494)
(0.540437 0.00779219 1.58691)
(0.804486 -0.0479776 1.4659)
(0.870406 -0.20019 1.42913)
(0.298545 -0.165198 1.74204)
(-0.111026 -0.0927896 1.97337)
(-0.192345 0.00991786 1.92348)
(0.635492 0.00374191 0.032728)
(0.673945 0.0247272 0.0360524)
(0.678084 0.0257418 0.0313905)
(0.695699 -0.00392378 0.0394456)
(0.708014 -0.0153646 0.0380259)
(0.669131 -0.0066859 0.0279425)
(2.12488 0.0606081 0.751813)
(2.23707 0.133838 0.788029)
(2.32276 0.0619854 0.75618)
(2.46239 -0.133428 0.718118)
(2.40196 -0.223246 0.657191)
(2.12084 -0.122345 0.601052)
(0.787549 -0.0130806 1.93126)
(0.841847 -0.0700198 1.89647)
(0.863071 -0.208146 1.89897)
(0.797377 -0.246533 1.9578)
(0.715755 -0.127204 2.07378)
(0.650839 -0.0401709 2.10624)
(1.14078 -0.0122664 0.130827)
(1.19613 0.00494288 0.138896)
(1.16903 0.0200877 0.131514)
(1.17186 -0.000745863 0.131092)
(1.16946 -0.00216575 0.133929)
(1.16226 0.00131173 0.128474)
(2.61461 -0.0303655 2.32334)
(2.67399 0.0265788 2.15465)
(2.6663 0.0125468 2.15851)
(2.77034 -0.0838252 2.25875)
(2.78181 0.010117 2.21952)
(2.5528 0.0540904 2.14781)
(1.17436 -0.0492294 2.84818)
(1.2411 -0.0647305 2.75457)
(1.23349 -0.0725243 2.77233)
(1.1769 -0.113984 2.79776)
(1.14859 -0.0307107 2.81891)
(1.05055 0.0169947 2.86706)
(2.09959 -0.0641056 0.383615)
(2.08759 0.000714449 0.371183)
(2.02585 0.0331818 0.345968)
(2.11775 0.0100786 0.404406)
(2.14451 -0.0110816 0.434959)
(2.02478 0.0153569 0.333005)
(2.71377 -0.120666 2.89844)
(2.81109 0.00619099 2.50355)
(2.66832 0.00177582 2.52046)
(2.9182 -0.0571583 2.67613)
(3.05846 0.00741013 2.56297)
(2.55403 0.123982 2.53245)
(1.34564 -0.122477 2.59739)
(1.52212 -0.0997717 2.63004)
(1.46435 -0.0139699 2.55879)
(1.54902 -0.102319 2.41566)
(1.64309 -0.0223902 2.3356)
(1.34017 0.0559038 2.74916)
(4.05212 -0.0280056 1.32353)
(3.93848 0.0725593 1.25938)
(3.75048 -0.120566 1.16103)
(3.92085 0.0245211 1.41442)
(3.89328 -0.0102459 1.49767)
(3.72805 0.103841 1.09477)
(3.86774 -0.172143 1.30932)
(4.1798 -0.0221455 1.91957)
(3.81066 -0.116695 1.58406)
(4.04199 0.0167563 1.37408)
(4.2158 -0.066381 1.54049)
(3.70449 0.120833 1.61665)
(0.46363 -0.181828 -1.30019)
(1.77441 -0.185332 0.729698)
(1.54061 -0.0128983 0.0317682)
(1.07652 -0.125832 -1.26184)
(1.51559 -0.0937528 -1.01985)
(1.58898 0.0650088 0.52322)
(0.0766264 0.0992638 -1.06316)
(-0.265232 -0.547665 -1.78024)
(0.0644009 -0.131994 -0.357559)
(-0.271725 0.558163 -1.40546)
(-0.37363 0.540678 -2.07369)
(-0.16772 0.0520708 -1.03189)
(-0.154624 0.169352 -1.17701)
(-0.210121 -0.0979576 -1.66556)
(0.122911 -0.0511556 -0.328893)
(-0.216858 0.111875 -0.956522)
(-0.244761 -0.0391755 -1.76211)
(-0.184461 -0.160449 -1.56978)
(-0.143103 0.0663484 -1.50157)
(-0.106113 -0.0595405 -1.59441)
(-0.074267 -0.0627142 -1.08027)
(-0.116026 0.164476 -1.56623)
(-0.104133 0.083122 -1.76337)
(-0.105908 0.0103829 -1.66323)
(-0.213481 0.0725903 -2.15119)
(-0.235942 -0.122806 -2.57427)
(-0.462519 -0.0476104 -2.62228)
(-0.54213 0.144245 -2.79831)
(-0.482005 0.102591 -2.85429)
(-0.346045 -0.0153583 -2.07203)
(-0.189302 0.0724129 -1.97945)
(-0.268211 0.123819 -2.14375)
(-0.34106 0.0183559 -1.83938)
(-0.309741 -0.00696502 -1.99834)
(-0.289304 -0.0657641 -2.31195)
(-0.196646 -0.106992 -2.17024)
(-0.152702 0.0312612 -2.05893)
(-0.150513 -0.0034494 -2.1351)
(-0.146785 -0.00895876 -2.17805)
(-0.132603 0.0729612 -2.2081)
(-0.125368 0.0390667 -2.1892)
(-0.129116 -0.00774495 -2.10316)
(-0.301278 -0.0317114 -1.44362)
(0.14531 -0.197188 -3.09918)
(-0.115752 -0.0215731 -3.1082)
(-0.207229 0.221318 -2.94706)
(-0.148535 0.188885 -2.97204)
(-0.133546 0.0535881 -2.25221)
(0.271915 0.235022 -1.94808)
(0.0560825 0.208034 -2.29824)
(-0.091694 0.00355874 -1.88737)
(-0.157252 0.00280493 -2.14833)
(-0.0955711 -0.0823363 -2.44018)
(0.119469 -0.0931799 -2.22251)
(-0.154833 0.0582543 -2.01721)
(-0.204235 -0.000667096 -2.14301)
(-0.162706 -0.012651 -2.22019)
(-0.141176 0.067541 -2.29312)
(-0.127707 -0.00116918 -2.27711)
(-0.0846344 -0.027542 -2.22028)
(-1.27928 -0.0109006 -0.0749313)
(-0.528602 0.350329 -2.99882)
(-0.303406 0.307709 -3.52737)
(-0.243154 0.115858 -3.26528)
(-0.407609 -0.109336 -3.21219)
(-1.43772 -0.130005 -0.77951)
(0.385699 0.372177 -1.82623)
(0.314652 0.429627 -2.70163)
(-0.0220585 0.0367581 -2.54716)
(-0.0123958 -0.0875059 -2.63807)
(0.199822 -0.259658 -2.88748)
(0.245015 -0.25473 -2.1913)
(-0.160347 0.103191 -1.95161)
(-0.241332 0.0567845 -2.15323)
(-0.202389 -0.0178904 -2.36811)
(-0.161384 0.0129384 -2.50844)
(-0.102211 -0.0696522 -2.49053)
(0.0214697 -0.0725868 -2.31812)