/*--------------------------------*- C++ -*----------------------------------*\
| =========                 |                                                 |
| \\      /  F ield         | OpenFOAM: The Open Source CFD Toolbox           |
|  \\    /   O peration     | Version:  v1612+                                |
|   \\  /    A nd           | Web:      www.OpenFOAM.com                      |
|    \\/     M anipulation  |                                                 |
\*---------------------------------------------------------------------------*/
FoamFile
{
    version     2.0;
    format      ascii;
    class       surfaceScalarField;
    location    "6.05";
    object      alphaPhi;
}
// * * * * * * * * * * * * * * * * * * * * * * * * * * * * * * * * * * * * * //

dimensions      [0 3 -1 0 0 0 0];

internalField   nonuniform List<scalar> 
2916
(
-4.00848e-05
-0.700458
0.393022
1.20291e-05
-0.700553
0.393025
1.59344e-05
-0.700507
0.393026
-4.97296e-07
-0.70049
0.393029
2.25227e-05
-0.700515
0.393014
-0.700484
0.393028
-7.09155e-05
-1.16275
0.278906
1.65767e-05
-1.16291
0.278757
1.78656e-05
-1.16282
0.278823
-3.75009e-06
-1.16279
0.278846
2.85979e-05
-1.16284
0.2788
-1.16279
0.278865
-2.83599e-05
-1.31764
0.154948
9.8483e-06
-1.3178
0.15488
9.10069e-06
-1.31769
0.154909
-3.42817e-06
-1.31768
0.154933
2.9923e-06
-1.31772
0.15491
-1.31769
0.154931
-1.73491e-05
-1.34918
0.0315897
8.09223e-06
-1.34936
0.0315688
9.52768e-06
-1.34924
0.0315804
2.21457e-06
-1.34925
0.031617
-6.84991e-06
-1.34929
0.0316084
-1.34923
0.0315667
1.12399e-05
-1.29268
-0.0514693
8.92955e-06
-1.29288
-0.0514391
1.76372e-05
-1.29276
-0.0514561
9.12081e-06
-1.29281
-0.0514048
-3.13139e-05
-1.29283
-0.0513862
-1.29273
-0.0514961
-2.06291e-05
-1.17856
-0.0861545
3.74571e-05
-1.17892
-0.0860973
0.000102476
-1.17875
-0.0861408
2.24341e-05
-1.17875
-0.086052
-0.000117856
-1.17877
-0.086011
-1.17869
-0.0862005
-3.54563e-05
-1.04443
-0.0910471
5.01349e-05
-1.04502
-0.0909988
0.000162552
-1.04482
-0.0910474
1.33941e-05
-1.04468
-0.0909175
-0.000114331
-1.04484
-0.0908273
-1.04462
-0.091147
0.000166967
-0.910705
-0.0880563
-5.41915e-06
-0.911087
-0.087989
-2.23445e-05
-0.910996
-0.0880218
-9.18855e-05
-0.910873
-0.0879328
0.000302081
-0.911593
-0.0878676
-0.910415
-0.0880913
0.000381774
-0.740214
-0.12531
3.02846e-06
-0.739666
-0.125491
-0.000230605
-0.739839
-0.125371
-9.08753e-05
-0.740204
-0.125268
0.000412451
-0.74185
-0.124769
-0.738489
-0.125865
0.000741118
-0.537564
-0.158263
3.61673e-05
-0.534244
-0.159593
-0.00075123
-0.534868
-0.159059
0.000185226
-0.537509
-0.158524
0.00117385
-0.540943
-0.156852
-0.531276
-0.160818
0.000832726
-0.200567
-0.292532
-2.16826e-05
-0.196662
-0.291378
-0.00115553
-0.197275
-0.291133
-5.27485e-05
-0.200436
-0.292885
0.00146016
-0.203753
-0.293538
-0.194256
-0.290098
-0.000537286
-0.152528
0.000210961
-0.150101
0.000814386
-0.150512
0.000145747
-0.152296
-0.00146183
-0.154545
-0.148639
0.000120691
-1.24088
0.863642
2.34184e-05
-1.24128
0.863914
-2.13628e-05
-1.24107
0.863802
-1.22197e-05
-1.24108
0.863789
-4.30293e-05
-1.24119
0.863833
-1.24096
0.863706
7.79639e-05
-1.49683
0.582343
1.81801e-06
-1.49716
0.582276
-8.72029e-06
-1.497
0.582321
9.73062e-06
-1.49701
0.582319
-4.95962e-05
-1.4971
0.58233
-1.49689
0.582302
2.41743e-05
-1.32454
0.065295
-7.63392e-06
-1.32484
0.0653312
1.10195e-05
-1.3247
0.0653103
1.08334e-05
-1.3247
0.0653228
-2.07411e-05
-1.32478
0.0653419
-1.32459
0.0652969
-0.000177523
-0.781461
-0.0242497
-1.64088e-05
-0.781677
-0.0242021
5.57811e-05
-0.781587
-0.0242187
2.73547e-05
-0.781575
-0.0242349
0.000103853
-0.781637
-0.0242235
-0.781489
-0.0242379
-0.000210271
-0.307577
-0.00161991
-5.51852e-06
-0.30786
-0.00160997
7.85174e-05
-0.307761
-0.0016133
3.32272e-05
-0.307701
-0.0016175
0.000130687
-0.307807
-0.00161528
-0.307638
-0.00161658
-6.71689e-05
-0.025249
-0.000135264
-2.46803e-05
-0.0255613
-0.000134191
-4.40682e-05
-0.0254617
-0.000134562
1.20756e-05
-0.0253803
-0.000135188
0.000220201
-0.0255408
-0.000134797
-0.025294
-0.000134849
0.000121674
0.120881
-1.73774e-05
-5.96723e-05
0.120708
-1.71402e-05
-0.000200513
0.120762
-1.72314e-05
-2.97456e-05
0.120768
-1.73436e-05
0.000305968
0.120593
-1.74266e-05
0.120965
-1.7289e-05
0.000168628
0.22601
-5.93687e-05
-7.67973e-05
0.226207
-6.01545e-05
-0.000270249
0.226168
-5.91717e-05
-4.68025e-05
0.225947
-6.02079e-05
0.000547563
0.225677
-6.09551e-05
0.226382
-5.83436e-05
-0.000156407
0.230362
-0.0023461
3.09862e-05
0.230449
-0.00235211
0.000140088
0.230609
-0.00232784
0.000180396
0.230092
-0.00236305
-0.000223358
0.230361
-0.00240288
0.230714
-0.00228182
-0.00248509
0.141314
-0.00255027
0.000531446
0.135071
-0.00242544
0.00277696
0.136631
-0.00245133
0.000203626
0.140722
-0.00255013
-0.0066731
0.147131
-0.00266263
0.130413
-0.00235961
-0.00268516
-0.0171306
0.000405238
0.000701376
-0.0230474
0.000289013
0.00310017
-0.0219535
0.000321038
0.000810198
-0.0174555
0.000386632
-0.00600986
-0.0129105
0.000540491
-0.0261847
0.000223787
0.00057845
-0.0220154
-0.000145704
-0.0245186
-0.00119928
-0.023895
0.000218973
-0.0224582
0.00257565
-0.0206447
-0.0254546
0.000273914
-0.748232
1.13093
1.63768e-05
-0.748484
1.13069
-3.54375e-05
-0.748361
1.13073
-1.18981e-06
-0.748378
1.13082
-0.000114223
-0.748433
1.13081
-0.748284
1.13079
-8.0433e-05
-0.0775901
-2.09611e-08
-3.39022e-06
-0.077679
-2.31944e-08
7.48462e-06
-0.0776344
-2.2296e-08
-6.33404e-06
-0.0776252
-2.1902e-08
6.35036e-05
-0.0776603
-2.13519e-08
-0.0775986
-2.26909e-08
-5.22215e-05
0.0260169
-3.18762e-07
1.98336e-06
0.0259644
-3.42819e-07
1.64921e-05
0.0259828
-3.3484e-07
1.94505e-06
0.0260005
-3.28051e-07
2.32929e-05
0.025988
-3.20069e-07
0.0260039
-3.42853e-07
-2.56577e-06
0.00177031
-4.05287e-07
6.89378e-07
0.00175963
-4.12745e-07
2.11429e-06
0.00176326
-4.11694e-07
4.59472e-07
0.00176779
-4.04559e-07
2.07548e-07
0.00176528
-4.06961e-07
0.00176679
-4.13798e-07
-1.94007e-07
0.000151468
-7.34674e-07
3.5226e-08
0.000150098
-5.21376e-07
1.51943e-07
0.000150524
-5.43338e-07
2.46606e-08
0.000151204
-5.71858e-07
1.9551e-09
0.000150918
-7.51935e-07
0.000150891
-5.3857e-07
3.6216e-08
1.88552e-05
-2.73715e-06
-7.79635e-09
1.8706e-05
-2.82777e-06
-2.55639e-08
1.87404e-05
-2.78496e-06
-7.45497e-09
1.88465e-05
-2.83822e-06
2.96488e-08
1.88016e-05
-2.7809e-06
1.87832e-05
-2.76732e-06
2.3581e-08
6.21458e-06
-2.68963e-06
-4.72695e-09
6.22614e-06
-2.59751e-06
-1.47424e-08
6.21321e-06
-2.59978e-06
-4.81343e-09
6.23406e-06
-2.69591e-06
1.38731e-08
6.23941e-06
-2.74571e-06
6.21733e-06
-2.56151e-06
1.36623e-08
3.95808e-06
-5.27296e-05
-3.28341e-09
3.98683e-06
-5.35332e-05
-1.4977e-08
3.97613e-06
-5.25656e-05
-4.6128e-09
3.96657e-06
-5.35569e-05
1.87747e-08
3.96075e-06
-5.42026e-05
4.00114e-06
-5.15729e-05
5.45669e-10
9.37368e-06
-0.00234127
-1.22654e-09
1.76872e-05
-0.00235561
-1.59105e-08
1.61838e-05
-0.00232983
-3.30897e-09
9.70338e-06
-0.00235855
5.68496e-08
-3.2218e-06
-0.00238547
2.36579e-05
-0.00229098
-0.000335613
-0.0139804
-0.00569473
7.55585e-05
-0.0151704
-0.00548535
0.000291784
-0.0148105
-0.00555902
4.85515e-05
-0.0141773
-0.0056577
-0.0007193
-0.0132838
-0.00579985
-0.0158213
-0.00541644
-0.000985534
-0.00222829
-0.0264593
0.000312407
-0.00467952
-0.0276932
0.00115635
-0.00422244
-0.0271275
0.000474817
-0.00245266
-0.0269644
-0.00215616
-0.000685944
-0.0259046
-0.00586674
-0.0278459
0.00133528
-0.0306479
-0.000258213
-0.0326883
-0.00131249
-0.0321599
-0.000215654
-0.0311103
0.00302994
-0.0296789
-0.033394
-0.000424862
-1.63385e-07
0.456105
-0.000100762
-1.78461e-07
0.453863
5.93367e-05
-1.72664e-07
0.454636
3.09879e-05
-1.69686e-07
0.455005
0.000128921
-1.64734e-07
0.454521
-1.76127e-07
0.455303
-9.38342e-11
-1.27405e-10
-3.31651e-08
-3.57266e-11
-5.9293e-11
-3.29601e-08
2.6294e-11
-1.41007e-10
-3.31306e-08
1.86906e-11
-1.17375e-10
-3.32048e-08
4.39151e-11
-7.33673e-11
-3.31279e-08
-6.59486e-11
-3.32349e-08
-3.99666e-10
-3.11587e-08
-1.42912e-07
8.40211e-11
-3.15613e-08
-1.51407e-07
1.56369e-10
-3.14861e-08
-1.49122e-07
-5.85321e-13
-3.13433e-08
-1.45315e-07
7.90616e-11
-3.14819e-08
-1.42515e-07
-3.13053e-08
-1.50845e-07
-1.00622e-09
-5.23401e-08
-2.37311e-07
2.56281e-10
-5.47546e-08
-2.31852e-07
8.52298e-10
-5.41482e-08
-2.33895e-07
1.45821e-10
-5.28153e-08
-2.36567e-07
-4.47187e-10
-5.28893e-08
-2.3721e-07
-5.39607e-08
-2.33866e-07
-1.78654e-09
-1.53103e-07
-3.18225e-07
2.74402e-10
-1.72817e-07
-2.63905e-07
1.23276e-09
-1.65776e-07
-2.85221e-07
2.58921e-10
-1.59841e-07
-3.0956e-07
-1.2294e-09
-1.56486e-07
-3.2667e-07
-1.6578e-07
-2.73798e-07
3.51745e-09
-1.05879e-06
-1.69468e-06
-9.13618e-10
-1.03018e-06
-1.81827e-06
-3.31621e-09
-1.04103e-06
-1.76589e-06
-7.43852e-10
-9.96909e-07
-1.78433e-06
2.32756e-09
-1.05151e-06
-1.75021e-06
-1.04725e-06
-1.74086e-06
9.06191e-08
-6.11043e-07
-3.34073e-06
-1.20086e-08
-5.93368e-07
-3.11686e-06
-5.48983e-08
-5.19336e-07
-3.16026e-06
-1.37639e-08
-5.13696e-07
-3.35449e-06
5.46527e-08
-5.73537e-07
-3.39042e-06
-5.62281e-07
-3.1055e-06
1.77861e-07
-0.000219995
0.000174503
1.0983e-07
-0.000236649
0.000190564
-1.26026e-07
-0.000226369
0.000181566
1.50687e-07
-0.000228582
0.000182241
4.48563e-07
-0.000228383
0.000181333
-0.000222638
0.000179125
-1.4357e-05
-0.0059021
0.00230882
2.57231e-06
-0.00596293
0.00230241
5.3258e-06
-0.00580105
0.00229546
5.1324e-06
-0.00598059
0.00231321
-6.97995e-07
-0.00614826
0.00233484
-0.00551905
0.00227256
-0.000124157
-0.0622174
0.00342224
-1.02145e-05
-0.0603297
0.00285504
9.62396e-05
-0.0609293
0.00319005
2.19695e-06
-0.0618256
0.00315906
-3.68649e-05
-0.0634555
0.00308404
-0.0596714
0.00340766
0.000107171
-0.0432273
-0.019379
-3.18136e-05
-0.0424251
-0.0193077
-7.65384e-06
-0.0426125
-0.0193087
-3.72874e-05
-0.0431718
-0.0194061
0.000127493
-0.0438917
-0.0194591
-0.0419945
-0.0192257
0.000385176
-0.0483772
-1.81796e-05
-0.0488267
-0.000123424
-0.0487746
-3.2566e-05
-0.0484778
0.000405997
-0.048114
-0.0490875
-0.0129068
-0.127036
0.116611
-0.0048948
-0.15666
0.13198
-0.022836
-0.154622
0.0644023
0.00111656
-0.186906
0.100287
0.0743558
-0.214839
0.0793013
-0.0654323
0.108153
0.000492518
-0.213912
0.0666848
0.0138508
-0.238437
0.0583696
0.0314242
-0.243018
0.060182
0.0238692
-0.254809
0.0668725
0.0252747
-0.347471
0.080226
-0.183038
0.0794331
-0.00895747
-0.107247
0.0292819
-0.0027126
-0.184312
0.0230034
-0.00684305
-0.0951647
0.0280866
-0.0228479
-0.228117
0.0283378
-0.00586738
-0.392614
0.0318184
-0.157314
0.0349988
-0.00494808
-0.159471
0.0128126
0.00766966
-0.332663
0.0080113
-0.00165729
-0.13152
0.00846293
-0.00113389
-0.255125
0.00874993
-0.000639674
-0.384896
0.00411417
-0.152591
0.0142612
0.0057191
-0.280733
-0.00316064
0.013024
-0.324741
-0.000454994
0.0160157
-0.289289
-0.00224989
0.0176351
-0.29192
-6.05418e-05
0.00295655
-0.353795
-6.12497e-05
-0.281763
0.00470953
0.0129236
-0.28315
-1.88645e-06
0.00526308
-0.294616
-1.97501e-06
0.0213918
-0.291655
-2.87235e-05
0.0272827
-0.284025
-3.33853e-05
-3.84629e-05
-0.321697
-0.000615392
-0.285351
-5.91278e-05
0.00196391
-0.273351
-0.000593283
-0.00284794
-0.225043
-0.000144937
0.0152942
-0.215757
-2.02635e-05
0.0244185
-0.234049
-0.000654091
0.0052019
-0.286932
-0.0102458
-0.282384
-0.000967042
-0.0100009
-0.247283
-0.00508051
-0.00198938
-0.231946
-0.00419537
0.00856266
-0.201578
-0.00203329
0.0253851
-0.229068
-0.00794951
0.0113884
-0.251248
-0.0160481
-0.268412
-0.00564303
-0.0120535
-0.207947
-0.0176181
0.00428503
-0.220467
-0.0222528
0.0204579
-0.208791
-0.0172613
0.0317986
-0.210702
-0.0305148
0.00235383
-0.195067
-0.027462
-0.251063
-0.0177816
-0.0162291
-0.0994927
-0.0842321
0.0138383
-0.125257
-0.120562
0.0545933
-0.155274
-0.0933758
0.0615828
-0.12419
-0.0935144
-0.0133555
-0.069056
-0.0520273
-0.0895015
-0.158777
-0.00813127
0.0296343
-0.114867
0.00149558
0.0207262
-0.151452
0.0745758
0.000907819
-0.225972
0.0591368
0.0142972
-0.121571
-0.00278223
0.0418583
-0.0472312
0.0141691
-0.0789164
-0.00536191
0.0344124
-0.0051412
0.0148281
0.03362
-0.0629748
0.0232397
0.0119276
0.00494632
0.0621825
0.0149374
-0.000639858
-0.128196
0.218541
0.000965155
-0.103473
0.199808
0.00468221
-0.113015
0.120255
0.0311601
-0.103808
0.15974
0.0599578
-0.0888535
0.134436
-0.0806023
0.204258
-0.00163814
-0.0339094
0.00729111
-0.000715727
-0.0288322
0.0107991
0.00298991
-0.0336135
0.0132942
0.000333404
-0.0298192
0.0148641
0.00371149
-0.032473
0.00761988
-0.0425569
0.0216916
-0.000117502
-0.00888989
0.000299614
-0.000666625
-0.00840337
0.000334744
-5.3944e-06
-0.0106276
0.000507237
-0.000206329
-0.0084863
0.000307888
-0.00247918
-0.00411243
-1.61689e-05
-0.0115825
0.00158998
8.95995e-05
-0.000359684
-1.0184e-07
-0.000937107
5.27396e-05
-2.69359e-07
-0.000208729
-0.00222666
-1.16415e-07
-0.000274107
5.93273e-05
-1.24584e-06
-0.00164892
3.0966e-05
-1.60027e-06
-0.00342497
-1.15385e-07
-7.91934e-07
1.86938e-06
-3.45073e-09
-0.000405022
1.97583e-06
-4.49299e-10
-6.17537e-08
2.76987e-05
-4.0874e-11
-5.47729e-07
-7.28536e-07
-2.00009e-11
2.13635e-07
-3.1045e-05
-1.13367e-10
3.80134e-05
-6.3741e-09
-4.16239e-09
2.94292e-10
-1.0525e-08
-3.42079e-09
2.43794e-09
-1.56944e-09
-1.03177e-06
6.38489e-09
-2.66507e-09
-1.1322e-05
-2.38213e-05
-2.71143e-09
7.65385e-06
-0.000665403
-1.00685e-08
-1.3463e-05
-4.49756e-09
5.49701e-06
-0.000595038
-3.73803e-06
1.1212e-06
-0.000139805
-6.82131e-07
-8.83345e-07
-1.82001e-05
-4.36788e-08
-0.000165464
-0.000513388
3.35647e-09
-2.04547e-06
-0.000363776
-7.05983e-07
-0.000966422
-1.39029e-05
0.000132536
-0.00575443
4.24487e-06
-1.56378e-05
-0.00418384
-1.30386e-06
-0.000197708
-0.00186599
-2.60786e-06
-0.00104064
-0.00762403
2.87962e-07
0.00079631
-0.0109595
-3.36509e-06
-0.00584924
4.6503e-06
-0.000351525
-0.0316913
-7.70525e-05
-0.000252701
-0.0255289
-2.12349e-05
-0.00288645
-0.0164822
-9.96264e-06
-0.00706501
-0.0325722
-0.000174819
0.00892312
-0.0507162
-0.000422097
-0.00894397
-0.00040726
-0.000218845
-0.0920677
-0.00962817
-0.00379176
-0.0954602
-0.00860065
-0.0221246
-0.0346071
-0.00468316
-0.0144066
-0.086075
-0.0119015
0.00309336
-0.07974
-0.0244479
-0.105653
-0.0233143
0.00485024
-0.033811
-0.136729
0.00521864
-0.0457816
-0.12874
0.00230351
-0.119195
-0.109369
-0.00474125
-0.0508249
-0.115223
-0.0343365
-0.0121895
-0.0745318
-0.0545715
-0.213469
0.0124947
-0.0551215
0.0192207
-0.087415
0.064357
-0.190508
9.41035e-05
-0.0745204
-0.0189392
0.0342509
-0.108373
-0.0312389
-0.00842303
0.136977
-0.00323596
-0.00996304
0.0284258
0.0182197
-0.011396
0.0835645
0.0294692
-0.014073
0.101095
0.0243008
-0.00720537
0.0850062
-0.00118045
0.0791723
-0.000396433
-0.000284273
0.000533325
-0.000174708
-0.000336638
0.000883096
0.000505285
-0.00050242
0.00161576
0.000441429
-0.000318863
0.00120061
0.00023761
-4.88993e-06
0.000623052
-0.00155403
0.00226532
1.38636e-05
-1.31406e-09
1.46204e-06
1.1967e-05
-3.73291e-09
-1.04904e-08
1.68117e-05
-4.27299e-09
-1.64311e-07
6.00263e-06
-1.51744e-08
-1.7043e-07
-1.49347e-05
-2.75729e-08
-7.86202e-08
-4.92588e-09
2.09811e-05
2.25444e-10
-2.73554e-11
-1.03288e-07
4.57451e-10
-5.37616e-12
-2.73306e-07
1.42437e-09
-1.36891e-12
-1.2166e-07
9.86488e-09
-1.22172e-12
-1.26946e-06
8.8829e-09
5.63661e-13
-1.62686e-06
-7.58639e-11
-1.11324e-07
-2.38855e-13
-3.39271e-09
-7.46977e-11
-2.84644e-13
-4.46584e-10
-1.1177e-11
2.50357e-13
-3.1266e-11
-1.35218e-11
1.17883e-13
-1.34966e-11
-3.482e-12
-6.78818e-12
-1.04859e-10
-8.83556e-13
-6.4387e-09
-1.78742e-11
-2.28657e-10
-1.10172e-08
-1.37207e-09
-8.60382e-12
-2.18032e-09
-4.53262e-11
-1.43556e-11
-2.39465e-09
-2.99065e-10
-7.73488e-11
-2.56561e-09
-9.83303e-11
-4.85403e-09
-5.31842e-09
-7.80603e-11
-1.98077e-08
-4.41065e-10
5.78073e-08
-3.30453e-06
3.79767e-08
6.19651e-09
-6.68984e-07
2.02272e-08
1.33458e-09
-5.15264e-08
3.43202e-09
-9.39895e-10
1.29517e-09
-3.34461e-10
-7.10961e-07
2.02189e-09
-3.41592e-09
-1.52974e-05
-3.88731e-08
6.99355e-07
-2.14022e-07
2.32784e-07
-1.39056e-07
-1.22727e-06
6.39246e-08
2.47075e-07
-3.11904e-06
8.62916e-08
2.1276e-07
2.84508e-07
-1.94726e-08
-3.15955e-06
1.65128e-08
-3.04404e-08
-1.40249e-05
4.33721e-07
-2.94805e-06
-7.42624e-05
-8.20981e-08
-8.9786e-06
-1.72462e-05
4.054e-07
-7.98727e-07
-2.1739e-05
3.97638e-07
1.82923e-07
-0.000175498
-2.19519e-08
4.10688e-06
-0.000426004
-2.49784e-09
-0.000417183
-2.11043e-07
-2.22702e-05
-0.00967007
-1.3885e-07
-5.45792e-05
-0.00849578
-5.93698e-05
-0.000260997
-0.00449724
-7.3158e-08
-0.000307306
-0.0116413
-0.000382713
0.000152861
-0.0237457
-0.00157039
-0.0235526
-2.41332e-05
0.00192871
-0.102026
-0.0195474
0.00062833
-0.103919
-0.0166874
-0.00474493
-0.0786097
-0.00916032
-0.00225802
-0.083835
-0.0424445
0.00495953
-0.0111525
-0.0824677
-0.0881074
-0.0341356
0.0209804
-0.13035
0.0195457
-0.14724
-0.0377912
-0.17424
-0.0110259
-0.148537
0.00316959
0.00686093
-0.143673
-0.00630997
0.00251873
0.00363596
-0.000749947
-0.000783408
0.0341518
0.00627034
-0.00146916
0.0590299
0.00545328
-0.00113385
-0.00198171
0.00568515
-0.000567604
-0.00759974
0.00488205
0.0981808
-5.10862e-06
-1.4786e-06
0.00236477
4.848e-06
-3.59082e-08
8.95233e-05
3.3738e-05
-9.71012e-07
0.000118546
2.52346e-05
-5.93439e-07
7.57737e-05
1.927e-05
-1.84896e-06
6.32321e-05
-2.10115e-05
0.00587341
1.26508e-08
-8.60953e-08
-4.35582e-08
2.23898e-09
-1.94768e-07
-9.30297e-08
-6.07268e-09
-1.49473e-07
-1.03677e-06
-2.06479e-08
-7.95139e-07
-3.29238e-08
-3.03996e-07
-1.57234e-06
-9.19618e-08
-2.84723e-07
-4.76589e-08
1.40697e-08
-1.38044e-09
-7.58335e-08
8.44166e-10
-1.44177e-10
-4.19462e-07
-3.99929e-09
-4.96972e-10
-2.25005e-07
-7.06325e-08
-1.35378e-10
-1.49907e-06
-4.94141e-08
-2.11527e-11
-2.27105e-06
-3.22068e-10
-9.22062e-07
-1.08067e-13
-1.4416e-09
-7.8941e-12
-3.79049e-14
-4.62402e-11
-1.11817e-10
-2.48371e-13
-5.05661e-10
-5.87972e-12
-7.74296e-14
-1.3514e-10
-4.03588e-12
-4.59151e-14
-2.09016e-11
-8.50799e-13
-3.36845e-10
-3.28831e-12
7.93758e-13
-5.4824e-09
-4.92327e-10
3.13916e-12
1.0431e-10
-2.0089e-10
4.21038e-11
-1.59027e-10
-2.79283e-10
1.56358e-13
-1.43294e-10
-1.84513e-10
-2.49911e-11
-4.02592e-12
-3.67854e-11
-5.19795e-10
-2.16053e-10
4.78716e-10
-3.54345e-08
-5.04207e-10
2.88351e-10
-2.03275e-08
-4.9425e-11
1.73518e-10
-5.03232e-09
4.12651e-13
6.1364e-11
-6.25473e-10
-6.56561e-11
-6.28624e-09
-1.38061e-09
-4.51936e-11
-1.05544e-07
-6.72887e-10
2.59002e-08
1.29436e-07
3.77609e-10
1.83259e-08
4.75713e-08
2.31715e-10
2.79715e-08
3.55058e-08
2.07969e-10
3.33002e-09
4.75168e-09
-6.64383e-11
-8.48124e-08
7.82732e-09
-1.60592e-10
2.3804e-07
1.04689e-09
-2.39068e-09
5.01277e-09
-4.27059e-11
4.30483e-08
3.97224e-07
-6.25627e-11
2.74592e-07
1.83697e-07
2.09495e-08
4.46424e-09
2.53027e-07
-7.57409e-12
8.15927e-11
9.48427e-09
-1.41582e-14
2.69814e-08
-1.51163e-12
-1.41375e-07
7.45165e-09
-7.35995e-12
-1.45108e-09
-5.9112e-05
-2.5858e-09
-2.33649e-07
1.50364e-06
-6.02895e-07
2.69399e-07
-0.000382907
-6.81221e-08
2.51566e-05
-0.00157295
-2.24175e-05
2.49653e-06
-1.44651e-06
-6.79474e-05
-0.0142376
-0.000700977
-0.000104493
-0.0123477
-0.000686916
-0.000386065
-0.00347042
-0.000419464
-0.00460041
-0.0182318
-0.0028341
0.00690976
-0.0594404
-0.011371
-0.0262332
-0.000988111
-0.00446258
-0.0671411
-0.0177327
-0.0659555
-0.0312913
-0.0620808
-0.0387741
-0.0706058
0.0296954
-0.057312
-0.0746357
-2.03231e-06
0.0015285
-2.19829e-07
-2.88204e-05
0.00154561
-2.37694e-07
-1.36628e-05
0.00154171
-2.31467e-07
7.4049e-06
0.00153219
-2.23293e-07
7.1034e-07
0.00153972
-2.22352e-07
0.00153474
-2.33777e-07
-1.20248e-05
0.00154106
-3.55833e-07
-8.69827e-07
0.001535
-3.69076e-07
4.78247e-06
0.0015366
-3.64671e-07
-2.01153e-07
0.00153771
-3.59821e-07
3.11827e-06
0.00153694
-3.56654e-07
0.00153839
-3.65835e-07
2.57521e-07
-2.22266e-05
-8.67195e-08
-2.2133e-05
-5.32584e-08
-2.21616e-05
-3.34304e-08
-2.21575e-05
-2.14974e-07
-2.21391e-05
-2.21732e-05
-2.68223e-10
3.56036e-08
-1.42556e-07
-6.94646e-12
3.51429e-08
-1.53215e-07
3.67901e-11
3.53629e-08
-1.50155e-07
-2.43677e-11
3.55106e-08
-1.45725e-07
1.38528e-10
3.53396e-08
-1.43337e-07
3.54432e-08
-1.51218e-07
-4.5489e-10
9.89725e-08
-2.66741e-07
-1.35847e-10
8.90859e-08
-2.68162e-07
-1.2756e-10
9.16122e-08
-2.68326e-07
-1.0543e-10
9.54673e-08
-2.67245e-07
1.14012e-10
9.89434e-08
-2.66451e-07
9.10068e-08
-2.68588e-07
-7.67342e-08
-8.32732e-08
-2.14134e-08
-6.75972e-08
-2.45835e-08
-7.41902e-08
-1.96367e-08
-7.29733e-08
2.09e-08
-6.8735e-08
-7.62765e-08
8.88322e-11
-4.70679e-08
-1.08799e-07
8.27255e-11
-4.02893e-08
-1.17898e-07
1.49336e-10
-4.25014e-08
-1.16974e-07
6.04806e-11
-4.57427e-08
-1.12726e-07
-3.20873e-10
-4.75649e-08
-1.06766e-07
-4.16003e-08
-1.18466e-07
-1.33527e-10
-2.22658e-07
-7.03636e-08
-1.41692e-11
-2.23633e-07
-7.49479e-08
-6.95687e-11
-2.23373e-07
-7.34317e-08
-2.02466e-11
-2.2337e-07
-7.15486e-08
-1.59512e-11
-2.23594e-07
-7.073e-08
-2.22968e-07
-7.4379e-08
-1.37236e-10
-3.35329e-12
-1.69097e-11
-5.60963e-12
-2.18044e-11
-4.6702e-12
-8.33931e-12
-3.93121e-12
4.09832e-11
-3.52199e-12
-5.02687e-12
-1.23236e-09
-1.7105e-07
-3.07266e-08
2.72003e-10
-1.64488e-07
-3.54216e-08
9.6789e-10
-1.66629e-07
-3.26967e-08
2.02809e-10
-1.69779e-07
-3.01628e-08
-9.74458e-10
-1.71359e-07
-2.81656e-08
-1.6586e-07
-3.47375e-08
-1.31376e-10
-8.79797e-12
-1.24782e-08
4.55182e-11
-1.41929e-11
-7.60441e-09
6.81167e-11
-1.19324e-11
-9.5422e-09
3.78108e-11
-1.02419e-11
-1.15185e-08
-1.47402e-10
-9.30092e-12
-1.22352e-08
-1.27649e-11
-8.53093e-09
-2.94094e-16
-1.2151e-11
8.40574e-17
-1.98029e-11
1.20711e-16
-1.66027e-11
6.51437e-17
-1.4173e-11
-2.19993e-16
-1.28226e-11
-1.7792e-11
-2.96799e-09
-1.11289e-07
3.86871e-07
3.93164e-10
-7.94408e-08
2.18481e-07
1.98983e-09
-8.87333e-08
4.08641e-07
5.45606e-10
-1.02453e-07
4.19011e-07
-2.44541e-09
-1.13306e-07
4.03708e-07
-8.26863e-08
3.61067e-07
-8.8003e-10
-1.75078e-09
2.19509e-07
1.51036e-10
-1.52706e-09
3.16674e-07
5.94576e-10
-1.60952e-09
2.64535e-07
1.47464e-10
-1.73529e-09
2.38536e-07
-7.21358e-10
-1.79275e-09
2.25488e-07
-1.55005e-09
2.74322e-07
-3.10709e-13
-1.76262e-09
7.02457e-14
-1.54725e-09
1.06586e-13
-1.62616e-09
5.07341e-14
-1.7494e-09
-2.62035e-13
-1.80526e-09
-1.5681e-09
-1.04532e-08
-7.51673e-07
4.62433e-07
6.76929e-10
-1.16556e-06
-5.75134e-07
2.75491e-09
-9.36282e-07
1.32621e-07
1.77198e-09
-7.84818e-07
3.73566e-07
-2.91453e-09
-7.67602e-07
4.40354e-07
-1.01767e-06
-9.09476e-08
-4.84301e-08
-3.01755e-09
7.16374e-07
5.82249e-09
-3.54718e-09
-4.84277e-07
2.28365e-08
-3.24084e-09
4.63997e-08
5.0046e-09
-3.10878e-09
2.39965e-07
-2.7643e-08
-3.15802e-09
5.14663e-07
-3.16377e-09
-1.07645e-07
-8.8734e-10
-6.47144e-09
8.94577e-11
-1.07572e-08
3.43936e-10
-8.89953e-09
3.82917e-11
-7.68037e-09
-5.46878e-10
-7.09724e-09
-9.41129e-09
4.05675e-07
4.18239e-06
-9.39525e-06
-3.17542e-08
5.97775e-06
-1.16236e-05
-3.02522e-07
5.26913e-06
-1.02768e-05
-2.703e-08
4.89211e-06
-1.04989e-05
3.85102e-07
4.76299e-06
-1.02582e-05
5.1946e-06
-1.01436e-05
-1.98643e-07
2.03886e-05
-1.58898e-05
-9.3209e-08
2.50973e-05
-2.38901e-05
-2.40275e-07
2.3211e-05
-2.11627e-05
-1.18275e-08
2.18057e-05
-1.94827e-05
4.43391e-07
2.10829e-05
-1.77431e-05
2.36769e-05
-2.17808e-05
-1.91964e-07
-1.81751e-05
5.01752e-09
-3.18751e-05
5.84653e-08
-2.63294e-05
5.51625e-09
-2.24174e-05
-5.69337e-08
-1.9081e-05
-2.85567e-05
1.89715e-06
0.000954561
-0.00230687
3.90158e-07
0.00110494
-0.00261228
5.34699e-07
0.00103532
-0.00245506
3.04644e-07
0.00102112
-0.00246119
-1.25748e-06
0.000998372
-0.00243246
0.00102982
-0.00240871
2.82064e-05
0.00130975
-0.00251149
-4.09623e-06
0.00143886
-0.00262448
-1.82168e-05
0.00138955
-0.00256896
-3.94701e-06
0.00134688
-0.00255482
2.00631e-05
0.00132526
-0.00255604
0.00140766
-0.00256754
8.43648e-06
-0.000132935
-2.38375e-06
-0.000179205
-7.90621e-06
-0.000162717
-1.84383e-06
-0.000141548
1.09997e-05
-0.000136498
-0.000169464
-4.28846e-05
0.00386611
-0.00761516
6.34199e-06
0.00365579
-0.00734365
4.45144e-05
0.00376836
-0.00747822
5.48248e-06
0.00376364
-0.00751661
-7.94898e-05
0.00378531
-0.00754851
0.00379591
-0.00749386
4.75043e-05
6.86149e-05
-0.000596351
-6.24537e-06
9.89981e-05
-0.000642642
-6.01489e-06
8.87566e-05
-0.000637455
-6.07149e-06
6.31088e-05
-0.000620123
-5.0256e-06
6.14735e-05
-0.000600506
0.000100829
-0.000636866
2.66185e-05
-0.00032546
-4.74548e-06
-0.000328617
-1.55451e-05
-0.00032084
-3.66115e-06
-0.000328774
1.85313e-05
-0.000336329
-0.000320147
-2.32622e-05
-0.00045359
-0.000333809
2.77656e-06
-0.000525631
-0.000369468
2.15549e-05
-0.000495812
-0.000349719
-4.02157e-08
-0.000481482
-0.000351118
-4.62824e-05
-0.000480011
-0.000354046
-0.000485653
-0.000340893
-1.60272e-07
-0.000668815
-5.29477e-10
-1.7789e-08
-0.00070616
-5.28573e-10
5.87098e-07
-0.000695091
-5.28771e-10
7.78033e-09
-0.000680437
-5.30289e-10
-9.44879e-07
-0.00068032
-5.17749e-10
-0.000692729
-5.15627e-10
1.36125e-06
-2.96446e-09
-8.93442e-07
-2.9127e-09
6.25633e-06
-2.92173e-09
-3.8513e-07
-2.98768e-09
-1.00186e-05
-3.06199e-09
-2.84276e-09
1.11888e-05
-6.30301e-11
-0.019724
-4.00801e-07
-5.48783e-11
-0.0196655
-5.00979e-06
-5.64126e-11
-0.0196538
-1.54766e-06
-6.54763e-11
-0.0197607
1.6781e-05
-8.96347e-11
-0.0198314
-5.33076e-11
-0.0195498
-2.93242e-13
-1.26469e-10
-4.1103e-10
9.31873e-14
-1.23981e-10
-4.05141e-10
3.04791e-13
-1.2437e-10
-4.06311e-10
7.0651e-14
-1.2752e-10
-4.13218e-10
-4.22842e-13
-1.31223e-10
-4.22335e-10
-1.20576e-10
-3.95449e-10
-2.12478e-13
-3.09072e-09
6.69343e-14
-3.03696e-09
3.59787e-13
-3.0464e-09
7.77908e-14
-3.11492e-09
-6.16633e-13
-3.19252e-09
-2.96395e-09
0.000205036
-2.99855e-08
-0.0445269
-2.50855e-05
-2.95576e-08
-0.0448522
-0.000151732
-2.96724e-08
-0.0448638
-1.43786e-05
-3.01431e-08
-0.044703
0.000379522
-3.08605e-08
-0.0446933
-2.88289e-08
-0.0448965
-1.88397e-12
-3.03947e-08
7.46163e-16
1.97987e-13
-2.99649e-08
6.1063e-16
1.27756e-12
-3.00798e-08
1.36363e-15
2.29491e-13
-3.05553e-08
9.6484e-16
-1.80942e-12
-3.12808e-08
6.96737e-15
-2.92261e-08
2.65013e-16
-1.95782e-11
2.2393e-26
2.11017e-12
2.73563e-26
1.67853e-11
2.95346e-26
-7.8327e-13
3.36188e-26
-3.20108e-11
3.84377e-26
2.95274e-26
-0.000551506
7.45688e-16
-0.0380605
0.0672029
-0.000783405
5.66402e-16
-0.0380665
0.0665469
-0.00109785
2.04808e-18
-0.0379683
0.0658699
-0.000911127
2.14171e-19
-0.0388168
0.0659712
0.000286995
2.31595e-17
-0.0390791
0.0628318
7.505e-17
-0.0382234
0.0670829
6.73313e-18
7.62497e-26
4.80697e-18
-4.17177e-18
4.93489e-20
-1.47999e-25
1.12857e-17
-6.20051e-18
6.89655e-21
-1.14171e-22
2.48627e-19
-3.16616e-20
4.86687e-19
-4.57051e-20
7.9545e-20
-1.65703e-20
3.8737e-19
-2.97262e-17
2.24415e-17
-2.66701e-18
1.68591e-26
1.14569e-17
-5.7304e-18
-2.15195e-27
4.40479e-26
-9.7337e-27
-5.35309e-24
2.6374e-26
5.17625e-24
-4.14789e-21
7.1759e-26
4.02801e-21
-1.80834e-18
3.32429e-26
1.75847e-18
8.27711e-29
3.40989e-26
6.50489e-18
2.87486e-26
-2.95644e-27
-7.14184e-05
7.98367e-16
-0.0184991
-6.53592e-05
5.98116e-16
-0.0184489
6.67342e-05
6.75308e-18
-0.0184141
4.61128e-05
6.79979e-19
-0.0188668
-0.000129659
1.44031e-16
-0.0189003
9.63523e-17
-0.0185973
-2.69017e-17
5.84756e-26
-2.90637e-16
-3.35477e-17
3.53242e-26
-2.15107e-16
-4.89999e-19
9.86725e-26
-2.32758e-18
-2.93931e-20
4.49683e-26
-2.54701e-19
-3.09852e-18
4.6988e-26
-5.41948e-17
4.08965e-26
-3.3136e-17
3.76402e-28
2.93185e-26
2.58177e-27
2.74312e-26
2.12073e-27
2.89677e-26
1.58501e-27
2.37347e-26
1.43523e-28
4.26874e-26
1.53686e-26
-0.000100179
1.07619e-15
0.000898457
-4.83229e-05
8.78878e-16
0.000926947
7.97834e-05
1.56057e-15
0.000938687
1.02775e-05
5.04634e-18
0.00091819
9.39651e-06
9.77122e-15
0.000921835
4.08288e-16
0.000948221
-7.94265e-18
6.0286e-26
-2.06928e-15
-1.05339e-17
5.67394e-26
-1.67857e-15
-6.83475e-18
6.115e-26
-2.96849e-15
-1.02798e-19
5.33218e-26
-9.54005e-18
-2.24295e-16
9.99051e-26
-1.84197e-14
3.52253e-26
-7.73115e-16
5.35815e-28
-1.01753e-27
1.20903e-27
-1.05683e-27
1.44247e-27
-1.42986e-27
2.22634e-27
-1.86605e-27
3.2607e-28
-4.22015e-27
-1.46362e-27
-1.13562e-05
5.10979e-16
0.0206716
-7.70237e-05
4.12958e-16
0.0207437
-0.000162895
7.57544e-16
0.020774
-8.738e-06
4.88928e-17
0.0205401
0.000152102
4.76977e-15
0.0204649
1.88901e-16
0.0207733
-3.04597e-18
8.01607e-26
-1.92699e-15
-5.1582e-18
9.3404e-26
-1.5705e-15
-8.76862e-18
1.02047e-25
-2.8903e-15
-7.28302e-19
9.7662e-26
-1.8208e-16
-1.18181e-16
1.07987e-25
-1.77261e-14
7.30648e-26
-7.23069e-16
3.86094e-28
-4.07347e-26
6.43958e-28
-4.77145e-26
6.50235e-28
-5.24845e-26
7.65944e-28
-4.99269e-26
3.23792e-28
-5.51762e-26
-3.82894e-26
-0.000123377
4.51283e-16
0.0320147
-0.000115645
3.71349e-16
0.0332152
-6.83982e-05
7.38179e-16
0.0338335
-1.98276e-06
2.39302e-16
0.0320332
5.28732e-05
4.23485e-15
0.0320225
1.66427e-16
0.0341716
-1.32146e-18
6.24513e-26
-1.33147e-15
-1.66343e-18
7.49932e-26
-1.08685e-15
-1.89302e-18
8.16043e-26
-2.15986e-15
-7.8408e-19
8.44361e-26
-6.99704e-16
-3.96776e-17
9.35659e-26
-1.23828e-14
6.86684e-26
-4.88154e-16
3.73583e-29
-4.51792e-26
1.1204e-28
-5.41688e-26
1.40489e-28
-5.90497e-26
2.01821e-28
-6.09016e-26
1.40693e-28
-6.73394e-26
-5.00385e-26
-4.56251e-05
4.70567e-16
-8.08465e-05
3.87641e-16
-5.86792e-05
8.64138e-16
2.28333e-06
6.11329e-16
9.20315e-05
4.40927e-15
1.67963e-16
-3.90314e-19
6.33958e-26
-2.87274e-19
7.79464e-26
-1.6912e-19
8.39159e-26
-1.90407e-19
9.54982e-26
-6.75668e-18
1.09077e-25
8.37366e-26
-4.00591e-29
1.25403e-29
2.50761e-29
6.83652e-29
6.12812e-29
-0.00185881
0.0851941
0.00272689
-0.000480849
0.104474
0.000972435
0.00160786
0.103268
-0.000196051
0.000154175
0.0204858
-6.98796e-05
0.000938469
0.0121902
-0.00011029
0.136122
0.0034208
-0.00457517
0.133838
-0.00286259
-0.00645692
0.13769
-3.08697e-05
-0.00541456
0.133567
-8.07987e-05
-0.000142239
0.0476653
-2.30831e-05
0.00254368
0.0324303
-0.000280343
0.167515
-0.000888765
-0.00641059
-0.000312606
-0.0193916
-0.00031544
-0.0156142
-2.46941e-05
-0.000616627
-2.41745e-06
0.00691194
-0.000122096
-0.00116117
0.000366052
0.00319396
-4.51517e-06
0.000102429
0.000683127
-1.03641e-05
3.4868e-06
2.6623e-05
-8.41148e-06
8.03723e-07
9.36185e-06
-1.25215e-06
-0.000416145
0.000262321
-8.31174e-06
0.00529014
-1.7009e-05
4.09792e-05
0.000330015
-4.11275e-05
5.03723e-05
0.000291751
-5.40031e-05
6.1092e-07
1.30466e-05
-2.15422e-05
-1.71719e-05
5.54337e-06
-3.59065e-06
-0.000409199
0.000100868
-1.08806e-05