/*--------------------------------*- C++ -*----------------------------------*\
| =========                 |                                                 |
| \\      /  F ield         | OpenFOAM: The Open Source CFD Toolbox           |
|  \\    /   O peration     | Version:  v1612+                                |
|   \\  /    A nd           | Web:      www.OpenFOAM.com                      |
|    \\/     M anipulation  |                                                 |
\*---------------------------------------------------------------------------*/
FoamFile
{
    version     2.0;
    format      ascii;
    class       volScalarField;
    location    "6.05";
    object      p;
}
// * * * * * * * * * * * * * * * * * * * * * * * * * * * * * * * * * * * * * //

dimensions      [1 -1 -2 0 0 0 0];

internalField   nonuniform List<scalar> 
1116
(
22934.5
22934.8
22934.7
22934.7
22934.7
22934.6
20754.4
20754.6
20754.5
20754.5
20754.6
20754.5
16911.5
16911.6
16911.6
16911.6
16911.6
16911.5
13794.1
13794.1
13794.1
13794.1
13794.1
13794.1
11435.4
11435.4
11435.4
11435.4
11435.4
11435.3
9666.97
9666.93
9666.83
9667
9666.96
9666.96
8463.19
8463.27
8463.18
8463.19
8463.06
8463.4
7641.26
7641.34
7641.59
7641.18
7641.47
7641.17
7452.9
7453.31
7452.98
7453.14
7452.37
7452.74
7995
7997.97
7996.45
7995.01
7991.45
7999.68
9052.32
9050.86
9051.03
9052.64
9055.83
9048.84
8408.7
8404.16
8404.66
8408.71
8415.19
8400.97
16708.9
16709.2
16709.1
16709.1
16709.2
16708.9
10641.2
10641.7
10641.5
10641.5
10641.6
10641.2
5285.24
5285.5
5285.34
5285.28
5285.44
5285.18
3560.59
3560.94
3560.8
3560.7
3560.83
3560.61
2647.07
2647.41
2647.29
2647.13
2647.22
2647.18
1975.37
1975.09
1975.19
1975.33
1975.52
1975.12
1499.44
1499.75
1499.8
1499.37
1499.46
1499.77
1228.61
1228.66
1228.8
1228.47
1229.03
1228.24
1336.28
1337.16
1336.84
1336.17
1334.15
1338.37
1793.68
1801.74
1796.61
1795.52
1783.83
1809.9
2684.04
2684.72
2681.24
2688.02
2685.16
2682.88
2047.23
2051.43
2050.38
2048.34
2046.49
2052.81
5763.95
5763.45
5763.77
5763.75
5763.54
5763.75
1432.35
1432.25
1432.36
1432.36
1432.23
1432.27
89.3214
89.238
89.2455
89.2683
89.2576
89.2805
-25.4751
-25.4834
-25.4855
-25.4752
-25.4693
-25.5179
-20.1785
-20.2241
-20.2154
-20.1836
-20.1534
-20.2433
-29.9179
-30.2171
-30.0953
-29.9961
-29.93
-30.0901
-52.5383
-52.6841
-52.5703
-52.6101
-52.5657
-52.6115
39.5045
39.5722
39.5623
39.5879
39.6678
39.3275
238.437
238.391
238.283
238.601
238.819
238.004
516.546
518.842
518.025
516.579
515.589
518.498
739.308
740.495
738.532
740.46
736.963
739.037
710.237
707.334
709.182
708.569
711.54
706.501
-56.6942
-56.782
-56.6533
-56.7128
-56.8063
-56.7102
-48.8003
-48.7936
-48.7958
-48.7953
-48.7906
-48.7974
-5.80101
-5.77496
-5.78789
-5.79946
-5.7956
-5.79676
-9.63282
-9.58856
-9.60837
-9.62536
-9.63038
-9.62139
-13.0281
-12.9816
-13.0064
-13.0044
-13.0108
-13.003
-39.6367
-39.861
-39.7641
-39.6912
-39.6344
-39.7504
-91.0417
-91.5059
-91.294
-91.2006
-91.0944
-91.2917
-52.3816
-52.4507
-52.4634
-52.4282
-52.4397
-52.5295
73.5359
73.7559
73.6417
73.5831
73.4371
73.7797
121.602
122.208
122.106
121.651
121.428
122.308
220.281
218.776
219.667
219.713
221.15
218.878
5.57836
2.64905
4.26017
4.06151
6.73687
2.07524
3222.69
3367.14
3234.27
3440.07
3651.82
3400.77
2128.07
2150.6
2166.23
2230.07
2365.89
2254.84
1023.35
1079.84
1036.16
1166.55
1268.5
1225.37
507.653
568.93
485.577
600.548
613.281
677.676
425.768
458.158
422.983
447.285
490.189
535.939
444.402
431.494
443.546
440.487
460.871
468.336
431.747
357.194
376.995
382.291
452.625
454.385
412.171
373.36
344.809
395.28
475.752
439.071
724.633
656.011
559.318
729.994
821.606
723.535
1563.62
1570.91
1419.63
1460.33
1495.97
1608.17
1597.73
1601.61
1708.26
1537.1
1534.23
1553.19
1477.09
1475.01
1498.39
1497.06
1504.2
1531.57
1551.99
1432.62
1469.37
1440.61
1518.03
1597.96
234.887
248.477
255.481
297.24
326.001
268.969
62.8178
57.8621
59.3504
50.8295
27.0518
54.2457
-26.1373
-34.4197
-23.3177
-33.2032
-31.6662
-13.4429
-42.2573
-41.6972
-41.6491
-40.1079
-38.6184
-40.5396
-21.2984
-22.0891
-25.2207
-24.5173
-27.6747
-30.0873
-5.00759
-5.72205
-6.1767
-8.41492
-10.4763
-9.51852
1.32787
-2.14882
-1.02775
-1.6488
2.19762
0.697679
18.2955
19.0944
16.584
19.7032
43.1001
26.4042
163.247
157.276
103.553
159.852
191.128
146.803
337.074
397.257
373.056
472.089
314.551
547.899
760.039
749.321
714.148
730.286
524.717
786.786
224.352
244.975
263.795
262.028
262.123
383.592
15.8896
21.7083
22.15
13.285
-0.471023
-5.6385
-2.06818
0.738591
1.8975
0.917582
-1.12712
-1.69676
-6.08502
-7.00981
-3.13955
-5.58713
-5.88357
-6.59707
-12.165
-12.8376
-11.5169
-11.1139
-10.6607
-10.4662
-16.6902
-16.4687
-17.4239
-16.4951
-16.3489
-15.0402
-14.4962
-14.3523
-14.4201
-14.8737
-17.3385
-14.5365
-20.0213
-18.1119
-17.9735
-20.1103
-22.3236
-19.7212
-29.8825
-28.0628
-26.9339
-28.291
-27.8169
-28.7402
-30.4792
-27.5395
-24.8424
-21.6302
-16.942
-18.5861
60.9704
65.3719
54.6648
83.5845
20.1054
127.113
370.705
335.436
270.932
238.272
228.85
240.359
36.2441
35.3518
35.7902
42.4046
28.4878
65.2809
-19.7914
-19.4016
-18.9608
-21.4582
-25.9701
-25.558
-15.3946
-16.5542
-17.0154
-18.4571
-21.0639
-20.8143
-31.7293
-32.8169
-31.524
-32.4898
-32.4804
-32.1025
-33.1396
-33.0938
-33.1944
-32.9963
-32.8397
-33.1436
-34.1316
-34.1093
-34.5434
-34.0041
-34.1406
-34.3784
-29.3259
-28.8606
-29.5583
-29.9567
-29.5405
-28.5978
-30.8371
-30.1813
-30.5967
-31.7611
-32.0068
-31.5895
-34.5454
-33.6444
-34.5106
-36.2873
-37.3483
-38.9371
-40.3179
-40.5271
-42.2296
-40.1073
-38.6746
-39.5085
-20.3708
-21.519
-22.7851
-23.4393
-25.6822
-31.9232
-197.339
-196.212
-177
-239.791
-76.7532
-209.456
200.315
199.802
200.034
200.072
200.018
200.104
-50.04
-49.9472
-49.9473
-49.9703
-49.963
-49.9992
-61.9446
-61.9855
-61.9682
-61.9667
-61.9768
-61.9619
-48.9489
-48.9525
-48.9597
-48.9621
-48.9493
-48.9605
-63.969
-63.9586
-63.958
-63.9577
-63.9577
-63.9597
-72.8228
-72.8252
-72.8242
-72.823
-72.8237
-72.8215
-9.87389
-9.99934
-9.97735
-9.96274
-9.98925
-9.93156
-41.4049
-41.4139
-41.4179
-41.4132
-41.4221
-41.4085
-61.9682
-61.9616
-61.9653
-61.9634
-61.9627
-61.964
-28.4901
-28.4355
-28.4679
-28.4808
-28.4967
-28.4634
-43.9919
-43.9583
-43.9789
-43.9811
-43.9969
-43.9706
-63.0451
-63.033
-63.0397
-63.0406
-63.0457
-63.0369
-27.9491
-27.8487
-27.9097
-27.8993
-27.9418
-27.8798
-36.5886
-36.4051
-36.4952
-36.5279
-36.5798
-36.473
-59.2067
-59.1795
-59.1949
-59.193
-59.2054
-59.1859
-37.5554
-37.6069
-37.6073
-37.5241
-37.523
-37.5803
-27.5996
-27.2402
-27.4187
-27.4589
-27.5385
-27.3954
-58.5693
-58.4143
-58.4788
-58.5025
-58.5195
-58.4767
-51.8109
-52.0272
-51.9393
-51.8482
-51.793
-51.9748
-25.3668
-25.2961
-25.3083
-25.3211
-25.2838
-25.3664
-49.2546
-49.1008
-49.1877
-49.1343
-49.122
-49.2068
-49.0499
-49.41
-49.3184
-49.1906
-49.2116
-49.2531
-37.8088
-38.2759
-38.0989
-37.9615
-37.8351
-38.1731
-57.0859
-57.3476
-57.2158
-57.1899
-57.0522
-57.2852
-38.5222
-38.3292
-38.3207
-38.4626
-38.864
-37.62
-84.7135
-85.354
-85.0478
-84.9404
-84.9257
-85.0168
-89.4456
-89.7142
-89.5555
-89.5992
-89.5641
-89.5881
-52.6407
-52.0723
-52.2327
-52.4892
-52.8778
-51.7223
-87.7643
-87.6326
-87.6595
-87.7126
-87.7958
-87.5724
-93.0208
-93.0399
-93.0248
-93.0571
-93.1815
-92.9666
-25.7207
-25.8732
-25.7812
-25.7819
-25.609
-25.8673
-62.1022
-61.9963
-62.0396
-62.0443
-62.0627
-62.0403
-81.2434
-81.1651
-81.1788
-81.2374
-81.2915
-81.14
40.3018
38.7915
39.3543
39.8916
40.9847
38.3836
-57.3637
-57.3311
-57.3397
-57.3508
-57.3703
-57.3224
-77.0175
-77.004
-77.0078
-77.0164
-77.024
-76.9947
390.407
390.255
392.146
400.237
409.768
398.506
-48.7507
-48.7717
-48.8672
-48.9747
-48.9314
-48.9864
-72.1858
-72.1569
-72.1072
-71.9554
-71.8193
-71.906
441.429
442.056
442.145
440.386
440.723
441.008
-50.7545
-50.7879
-50.8328
-50.9337
-51.0374
-50.9963
-69.1723
-69.1696
-69.1503
-69.0826
-69.0376
-69.0583
446.902
447.449
447.714
445.811
445.653
446.679
-51.3716
-51.3621
-51.3553
-51.2997
-51.3116
-51.3128
-67.8968
-67.8888
-67.8594
-67.806
-67.7747
-67.7769
455.695
455.854
455.879
455.758
455.853
456.049
-52.5913
-52.5974
-52.6095
-52.6213
-52.6332
-52.6402
-67.5589
-67.556
-67.5518
-67.5477
-67.5406
-67.5378
442.14
442.751
442.925
441.997
441.793
443.098
-53.3272
-53.3274
-53.332
-53.342
-53.347
-53.3484
-69.0478
-69.0533
-69.0516
-69.0445
-69.0392
-69.0412
349.083
349.45
349.871
349.112
349.285
349.762
-53.8773
-53.8734
-53.8749
-53.8759
-53.8791
-53.8786
-73.4187
-73.4361
-73.432
-73.4267
-73.4217
-73.4272
35.6978
27.248
9.77617
-0.663255
-13.6829
12.4351
-105.848
-104.568
-95.5267
-81.1874
-82.848
-98.3707
-183.424
-179.494
-172.501
-157.942
-153.27
-172.72
-34.6627
-42.2136
-44.388
-44.573
-46.4082
-35.4615
-62.2377
-64.6889
-66.865
-67.4803
-67.6017
-56.6924
-88.1455
-86.0721
-86.3637
-86.276
-88.6388
-87.6068
-30.246
-32.2137
-34.8601
-36.9694
-37.0399
-34.8578
-51.466
-53.074
-54.7136
-55.7831
-55.2957
-52.1185
-69.4913
-69.9482
-69.3255
-67.5669
-68.0696
-67.2511
-39.6655
-40.5431
-40.6697
-41.4568
-41.6464
-40.2511
-58.3196
-58.6185
-58.6288
-58.8188
-59.0137
-58.3443
-72.9247
-73.0426
-72.6445
-72.9491
-72.9605
-72.7733
-37.3385
-37.4861
-37.6376
-37.7976
-37.8453
-37.7503
-52.4444
-52.5261
-52.6061
-52.6058
-52.6185
-52.5241
-65.0221
-65.0565
-65.0576
-65.0049
-65.0643
-65.0501
-39.7733
-39.7357
-39.8834
-39.9748
-39.9795
-39.7925
-53.3805
-53.3822
-53.458
-53.4803
-53.5541
-53.4729
-64.5881
-64.5925
-64.5999
-64.6198
-64.6244
-64.6027
-37.2179
-37.2044
-37.3222
-37.7096
-37.8456
-37.5439
-51.4381
-51.4472
-51.5544
-51.6417
-51.6995
-51.6052
-63.1462
-63.1449
-63.1511
-63.1702
-63.1735
-63.1522
-38.1581
-38.1003
-37.8396
-38.4024
-38.7371
-38.5043
-52.2478
-52.2458
-52.3321
-52.5366
-52.6788
-52.6048
-63.1197
-63.1334
-63.1084
-63.1606
-63.1742
-63.1592
-41.8971
-41.8668
-41.4813
-42.1113
-42.0805
-42.0408
-53.0454
-53.0919
-53.2369
-53.433
-53.6374
-53.7818
-63.3239
-63.3287
-63.2959
-63.3169
-63.3135
-63.2913
-40.9176
-40.9314
-40.3223
-40.2211
-39.9547
-39.8054
-53.4511
-53.579
-53.8241
-53.8915
-54.1454
-54.1994
-63.6974
-63.7045
-63.6081
-63.6369
-63.6194
-63.5697
-43.0994
-43.2717
-42.9413
-44.8736
-45.4115
-45.8149
-53.2827
-53.4182
-53.5376
-54.0817
-54.7898
-54.4357
-65.8678
-65.8883
-65.86
-65.7822
-65.8036
-65.8254
-34.2461
-33.1323
-27.4667
-18.8203
27.0211
-21.1058
-46.1901
-46.2106
-46.1868
-45.9664
-47.598
-46.6419
-70.7385
-70.8941
-71.0239
-71.1309
-71.9216
-71.2136
)
;

boundaryField
{
    seabed_topleft_surface
    {
        type            calculated;
        value           nonuniform List<scalar> 
72
(
25238.6
25238.8
25238.7
25238.7
25238.8
25238.6
24858.8
24859
24858.8
24858.8
24858.9
24858.8
21708.1
21708.1
21708.1
21708.1
21708.1
21708.1
18590.6
18590.7
18590.7
18590.6
18590.7
18590.6
16229.9
16229.9
16229.8
16229.9
16229.9
16229.8
14430.2
14430.2
14430.1
14430.3
14430.3
14430.2
13161.7
13161.9
13161.8
13161.7
13161.7
13161.9
12281.3
12281.7
12281.9
12281.4
12281.7
12281.4
12064.6
12065.3
12065
12064.9
12064.1
12064.6
12600.3
12603.6
12602
12600.4
12596.8
12605.2
13650.1
13648.8
13649
13650.5
13653.9
13646.5
12983.4
12978.5
12978.9
12983.5
12990.4
12975.2
)
;
    }
    seabed_topright_surface
    {
        type            calculated;
        value           nonuniform List<scalar> 
72
(
3636.36
3782.74
3631.27
3887.55
4102.37
3767.1
2542.45
2567.04
2594.4
2661.81
2822.88
2709.31
1281.4
1325.08
1270.03
1464.62
1725.49
1525.68
607.064
835.469
539.713
884.523
1068.87
902.633
805.109
885.507
791.54
851.351
934.838
918.877
876.149
861.356
882.966
884.202
917.407
930.736
864.41
706.213
738.966
765.634
909.058
916.055
845.162
756.9
687.403
787.528
930.824
899.723
1160.72
1092.96
999.285
1182.66
1276.37
1182.92
2002.92
2012.42
1865.46
1910.47
1948.74
2057.73
2038.1
2044.32
2154.28
1985.07
1983.31
1760.05
1669.67
1686.7
1712.87
1703.66
1951.91
1725.31
)
;
    }
    breakwater_top_surface
    {
        type            calculated;
        value           nonuniform List<scalar> 
36
(
854.568
853.914
857.796
878.594
891.387
872.674
935.527
936.758
936.95
933.275
933.33
934.631
942.83
944.02
944.468
940.283
939.878
942.059
961.326
961.601
961.662
961.35
961.515
961.957
944.77
946.131
946.485
944.446
943.921
946.86
790.986
792.068
792.875
791.103
791.274
792.752
)
;
    }
    breakwater_left_surface
    {
        type            calculated;
        value           nonuniform List<scalar> 
24
(
8424.36
8419.82
8420.33
8424.38
8430.86
8416.64
2051.81
2055.98
2054.94
2052.91
2051.09
2057.35
710.66
707.756
709.604
708.991
711.962
706.923
6.1728
3.24369
4.85498
4.6564
7.33176
2.67013
)
;
    }
    breakwater_right_surface
    {
        type            calculated;
        value           nonuniform List<scalar> 
24
(
1477.75
1475.74
1499.12
1497.77
1505.74
1532.23
760.626
749.925
715.827
731.212
525.131
788.051
372.336
337.074
272.577
239.909
229.155
241.807
-196.208
-195.124
-176.045
-238.851
-75.6126
-208.306
)
;
    }
    water_front_surface
    {
        type            calculated;
        value           nonuniform List<scalar> 
186
(
22934.5
20754.4
16911.5
13794.1
11435.4
9666.97
8463.19
7641.26
7452.9
7995
9052.32
8408.7
16708.9
10641.2
5285.24
3560.59
2647.07
1975.37
1499.44
1228.61
1336.28
1793.68
2684.04
2047.23
5763.95
1432.35
89.3214
-25.4751
-20.1785
-29.9179
-52.5383
39.5045
238.437
516.546
739.308
710.237
-56.6942
-48.8003
-5.80101
-9.63282
-13.0281
-39.6367
-91.0417
-52.3816
73.5359
121.602
220.281
5.57836
3222.69
2128.07
1023.35
507.653
425.768
444.402
431.747
412.171
724.633
1563.62
1597.73
1477.09
1551.99
234.887
62.8178
-26.1373
-42.2573
-21.2984
-5.00759
1.32787
18.2955
163.247
337.074
760.039
224.352
15.8896
-2.06818
-6.08502
-12.165
-16.6902
-14.4962
-20.0213
-29.8825
-30.4792
60.9704
370.705
36.2441
-19.7914
-15.3946
-31.7293
-33.1396
-34.1316
-29.3259
-30.8371
-34.5454
-40.3179
-20.3708
-197.339
200.315
-50.04
-61.9446
-48.9489
-63.969
-72.8228
-9.87389
-41.4049
-61.9682
-28.4901
-43.9919
-63.0451
-27.9491
-36.5886
-59.2067
-37.5554
-27.5996
-58.5693
-51.8109
-25.3668
-49.2546
-49.0499
-37.8088
-57.0859
-38.5222
-84.7135
-89.4456
-52.6407
-87.7643
-93.0208
-25.7207
-62.1022
-81.2434
40.3018
-57.3637
-77.0175
390.407
-48.7507
-72.1858
441.429
-50.7545
-69.1723
446.902
-51.3716
-67.8968
455.695
-52.5913
-67.5589
442.14
-53.3272
-69.0478
349.083
-53.8773
-73.4187
35.6978
-105.848
-183.424
-34.6627
-62.2377
-88.1455
-30.246
-51.466
-69.4913
-39.6655
-58.3196
-72.9247
-37.3385
-52.4444
-65.0221
-39.7733
-53.3805
-64.5881
-37.2179
-51.4381
-63.1462
-38.1581
-52.2478
-63.1197
-41.8971
-53.0454
-63.3239
-40.9176
-53.4511
-63.6974
-43.0994
-53.2827
-65.8678
-34.2461
-46.1901
-70.7385
)
;
    }
    water_back_surface
    {
        type            calculated;
        value           nonuniform List<scalar> 
186
(
22934.6
20754.5
16911.5
13794.1
11435.3
9666.96
8463.4
7641.17
7452.74
7999.68
9048.84
8400.97
16708.9
10641.2
5285.18
3560.61
2647.18
1975.12
1499.77
1228.24
1338.37
1809.9
2682.88
2052.81
5763.75
1432.27
89.2805
-25.5179
-20.2433
-30.0901
-52.6115
39.3275
238.004
518.498
739.037
706.501
-56.7102
-48.7974
-5.79676
-9.62139
-13.003
-39.7504
-91.2917
-52.5295
73.7797
122.308
218.878
2.07524
3400.77
2254.84
1225.37
677.676
535.939
468.336
454.385
439.071
723.535
1608.17
1553.19
1531.57
1597.96
268.969
54.2457
-13.4429
-40.5396
-30.0873
-9.51852
0.697679
26.4042
146.803
547.899
786.786
383.592
-5.6385
-1.69676
-6.59707
-10.4662
-15.0402
-14.5365
-19.7212
-28.7402
-18.5861
127.113
240.359
65.2809
-25.558
-20.8143
-32.1025
-33.1436
-34.3784
-28.5978
-31.5895
-38.9371
-39.5085
-31.9232
-209.456
200.104
-49.9992
-61.9619
-48.9605
-63.9597
-72.8215
-9.93156
-41.4085
-61.964
-28.4634
-43.9706
-63.0369
-27.8798
-36.473
-59.1859
-37.5803
-27.3954
-58.4767
-51.9748
-25.3664
-49.2068
-49.2531
-38.1731
-57.2852
-37.62
-85.0168
-89.5881
-51.7223
-87.5724
-92.9666
-25.8673
-62.0403
-81.14
38.3836
-57.3224
-76.9947
398.506
-48.9864
-71.906
441.008
-50.9963
-69.0583
446.679
-51.3128
-67.7769
456.049
-52.6402
-67.5378
443.098
-53.3484
-69.0412
349.762
-53.8786
-73.4272
12.4351
-98.3707
-172.72
-35.4615
-56.6924
-87.6068
-34.8578
-52.1185
-67.2511
-40.2511
-58.3443
-72.7733
-37.7503
-52.5241
-65.0501
-39.7925
-53.4729
-64.6027
-37.5439
-51.6052
-63.1522
-38.5043
-52.6048
-63.1592
-42.0408
-53.7818
-63.2913
-39.8054
-54.1994
-63.5697
-45.8149
-54.4357
-65.8254
-21.1058
-46.6419
-71.2136
)
;
    }
    water_left_surface
    {
        type            calculated;
        value           nonuniform List<scalar> 
42
(
22942.4
22942.7
22942.6
22942.6
22942.6
22942.5
16719.2
16719.5
16719.4
16719.4
16719.5
16719.2
5773.05
5772.55
5772.87
5772.85
5772.64
5772.85
-50.5605
-50.6552
-50.5242
-50.5825
-50.6775
-50.5791
200.315
199.802
200.034
200.072
200.018
200.104
-50.04
-49.9472
-49.9473
-49.9703
-49.963
-49.9992
-61.9446
-61.9855
-61.9682
-61.9667
-61.9768
-61.9619
)
;
    }
    water_right_surface
    {
        type            calculated;
        value           nonuniform List<scalar> 
42
(
3224.11
3368.57
3235.63
3441.61
3653.36
3402.03
1553.37
1434.01
1470.52
1442.02
1519.4
1599.29
225.519
245.733
264.594
263.169
263.148
384.557
36.6163
35.5002
36.1824
42.7704
28.6964
65.7169
35.6978
27.248
9.77617
-0.663255
-13.6829
12.4351
-105.848
-104.568
-95.5267
-81.1874
-82.848
-98.3707
-183.424
-179.494
-172.501
-157.942
-153.27
-172.72
)
;
    }
    water_top_surface
    {
        type            calculated;
        value           nonuniform List<scalar> 
180
(
-69.3835
-69.3892
-69.3861
-69.386
-69.3874
-69.3848
-69.4554
-69.4626
-69.4588
-69.4586
-69.4605
-69.4571
-71.7485
-71.7661
-71.757
-71.759
-71.7653
-71.7553
-73.4533
-73.4473
-73.4507
-73.4513
-73.4549
-73.4478
-69.8163
-69.7976
-69.8064
-69.8106
-69.8182
-69.8013
-68.67
-68.67
-68.67
-68.67
-68.67
-68.67
-68.7512
-68.7947
-68.7766
-68.7647
-68.7538
-68.7841
-79.0338
-80.761
-80.1541
-79.4091
-78.9224
-80.571
-86.2796
-87.7133
-87.2326
-86.3636
-86.014
-87.6744
-72.9183
-73.8003
-73.6499
-73.066
-73.0462
-73.6434
-92.7833
-92.7558
-92.7501
-92.8095
-92.9334
-92.6476
-77.8378
-77.8418
-77.8346
-77.8482
-77.8676
-77.8167
-70.2025
-70.1767
-70.1731
-70.3289
-70.3347
-70.3031
-71.1165
-71.1271
-71.1279
-71.1628
-71.1634
-71.1763
-70.6896
-70.6903
-70.6856
-70.672
-70.6828
-70.6538
-71.4083
-71.4115
-71.4083
-71.41
-71.4184
-71.3848
-72.9428
-72.9456
-72.9416
-72.9483
-72.9589
-72.9207
-74.0964
-74.0992
-74.0979
-74.099
-74.109
-74.0845
-1439.47
-1536.98
-1334.67
-483.779
-364.786
-1692.62
-68.9199
-68.7406
-68.7314
-68.7314
-68.7314
-68.8041
-69.3031
-68.7723
-70.0931
-69.8024
-70.1215
-72.0527
-79.6976
-79.4892
-79.0012
-80.0563
-79.9807
-78.1983
-71.6267
-71.6373
-71.6041
-71.4548
-71.5
-71.5202
-70.4061
-70.4005
-70.4124
-70.3988
-70.4013
-70.3924
-69.2404
-69.2416
-69.2561
-69.2748
-69.2873
-69.269
-69.2581
-69.2685
-69.2884
-69.3239
-69.3539
-69.3348
-69.2963
-69.3141
-69.3296
-69.3516
-69.3801
-69.3667
-70.5771
-70.6683
-70.7118
-70.775
-70.8172
-70.786
-72.1223
-72.2232
-72.2021
-72.3886
-72.4056
-72.2479
-69.4455
-69.476
-69.4686
-69.6647
-70.0993
-69.6274
)
;
    }
}


// ************************************************************************* //
