/*--------------------------------*- C++ -*----------------------------------*\
| =========                 |                                                 |
| \\      /  F ield         | OpenFOAM: The Open Source CFD Toolbox           |
|  \\    /   O peration     | Version:  v1612+                                |
|   \\  /    A nd           | Web:      www.OpenFOAM.com                      |
|    \\/     M anipulation  |                                                 |
\*---------------------------------------------------------------------------*/
FoamFile
{
    version     2.0;
    format      ascii;
    class       volVectorField;
    location    "6.05";
    object      U;
}
// * * * * * * * * * * * * * * * * * * * * * * * * * * * * * * * * * * * * * //

dimensions      [0 1 -1 0 0 0 0];

internalField   nonuniform List<vector> 
1116
(
(-1.06191 -9.30575e-05 0.465476)
(-1.0622 -4.75614e-05 0.465551)
(-1.06208 7.67267e-05 0.465535)
(-1.06202 -1.16454e-05 0.465521)
(-1.06209 1.6721e-05 0.465512)
(-1.06199 6.05464e-05 0.465499)
(-2.29033 -0.000111124 0.330269)
(-2.29072 -3.65309e-05 0.330249)
(-2.29052 6.60849e-05 0.330257)
(-2.29044 -2.35652e-05 0.330275)
(-2.29056 1.93636e-05 0.330267)
(-2.29042 3.77918e-05 0.330264)
(-2.60369 -5.41315e-05 0.247109)
(-2.60399 -3.32451e-06 0.247002)
(-2.6038 2.42819e-05 0.247043)
(-2.60375 -9.26619e-06 0.247082)
(-2.60385 5.88949e-06 0.247033)
(-2.60378 -1.95637e-06 0.247091)
(-2.74467 -3.55653e-05 0.128543)
(-2.74504 6.15099e-06 0.128462)
(-2.7448 9.4739e-06 0.128504)
(-2.74479 5.00878e-06 0.128556)
(-2.74488 2.34873e-06 0.128494)
(-2.7448 -2.01686e-05 0.128537)
(-2.73288 8.52394e-06 0.018918)
(-2.73327 1.69364e-05 0.0189192)
(-2.73303 -1.31866e-06 0.018929)
(-2.73309 4.05227e-05 0.0190092)
(-2.73315 -1.75523e-05 0.0189636)
(-2.73298 -5.91232e-05 0.0189226)
(-2.57848 -1.16374e-05 -0.0416145)
(-2.57887 -3.64503e-05 -0.0415446)
(-2.57864 0.00010079 -0.0415791)
(-2.57875 0.000145364 -0.0414269)
(-2.57877 -0.000106757 -0.0414072)
(-2.57856 -0.000145524 -0.041665)
(-2.34878 2.96622e-05 -0.0908234)
(-2.34983 -0.000109624 -0.0908197)
(-2.34942 0.000198781 -0.0908365)
(-2.34919 0.000175082 -0.0905436)
(-2.3492 -0.000160521 -0.0902675)
(-2.34931 -4.16356e-05 -0.0911587)
(-2.14597 0.000387001 -0.215114)
(-2.14733 -6.55872e-05 -0.215228)
(-2.14682 6.41103e-05 -0.21512)
(-2.14644 -0.000128257 -0.214833)
(-2.14681 -1.72838e-05 -0.214082)
(-2.14648 0.000576454 -0.215937)
(-1.92174 0.000815391 -0.472778)
(-1.92189 0.000109368 -0.472881)
(-1.92195 -0.000110127 -0.472536)
(-1.92186 -0.000350961 -0.47273)
(-1.92418 0.000103884 -0.471516)
(-1.92019 0.000915566 -0.473942)
(-1.52196 0.00135431 -0.726648)
(-1.51839 0.000548648 -0.725487)
(-1.51925 -0.000515214 -0.725298)
(-1.52192 -0.00101123 -0.726938)
(-1.52703 0.00117381 -0.726865)
(-1.51526 0.00193387 -0.725866)
(-0.957499 0.000738314 -0.792566)
(-0.946236 0.000857554 -0.789248)
(-0.947826 -0.000908703 -0.789324)
(-0.957412 -0.00151881 -0.7929)
(-0.966729 0.00150594 -0.795649)
(-0.93674 0.000985936 -0.786806)
(-0.235048 -0.00137775 -0.21106)
(-0.227009 -6.88771e-05 -0.208459)
(-0.228492 0.000516636 -0.209101)
(-0.23439 0.00133896 -0.210449)
(-0.241497 -0.000772829 -0.21303)
(-0.224502 -0.00328666 -0.206694)
(-2.28959 0.000215529 3.03942)
(-2.29047 0.000150566 3.03923)
(-2.29001 -0.000101863 3.03934)
(-2.29003 3.23198e-05 3.0394)
(-2.29026 -4.81856e-05 3.03925)
(-2.28982 -0.000111094 3.03942)
(-3.35387 0.000114208 1.10746)
(-3.35428 6.74671e-05 1.10673)
(-3.35403 -7.30893e-05 1.10707)
(-3.35411 5.7585e-05 1.10717)
(-3.35418 -2.53412e-05 1.10695)
(-3.35395 -9.77367e-05 1.10727)
(-3.19738 4.91241e-05 0.28113)
(-3.19784 3.98346e-06 0.281)
(-3.1976 -2.78911e-05 0.281061)
(-3.19765 5.01289e-05 0.281108)
(-3.19773 -1.52256e-05 0.281079)
(-3.19749 -3.58124e-05 0.281086)
(-2.70783 -0.00024692 -0.0352054)
(-2.70832 -0.000190478 -0.0351877)
(-2.70811 0.000142408 -0.035194)
(-2.70809 1.20611e-06 -0.0351216)
(-2.70819 8.3376e-05 -0.035086)
(-2.70794 0.00017064 -0.0352778)
(-1.80683 -0.000397368 -0.278596)
(-1.80764 -0.000289893 -0.278439)
(-1.80734 0.000258391 -0.278535)
(-1.80719 1.64572e-06 -0.278383)
(-1.80743 0.00014753 -0.278247)
(-1.807 0.000293066 -0.278719)
(-0.715729 -0.000175397 -0.421685)
(-0.717395 -0.000121073 -0.421439)
(-0.716847 8.99345e-06 -0.421625)
(-0.716365 -0.000279468 -0.421355)
(-0.716952 0.000362806 -0.421152)
(-0.716169 0.000624501 -0.421849)
(0.38148 0.000465393 -0.454296)
(0.379848 0.000297089 -0.453883)
(0.380322 -0.000611147 -0.454153)
(0.380732 -0.000823973 -0.453848)
(0.379427 0.000671615 -0.453596)
(0.381643 0.00114936 -0.454406)
(1.20327 0.000859581 -0.370512)
(1.20176 0.000434751 -0.369953)
(1.20208 -0.000936691 -0.370204)
(1.20266 -0.00150379 -0.37008)
(1.20196 0.00130609 -0.370211)
(1.20317 0.00243346 -0.369991)
(1.8967 -0.000535913 -0.314671)
(1.89935 -0.000203898 -0.315068)
(1.8987 0.000311916 -0.314968)
(1.89648 0.000731785 -0.314438)
(1.89411 6.08242e-06 -0.313432)
(1.89979 -0.000613886 -0.315827)
(0.699197 -0.00856132 -0.205558)
(0.696738 -0.00402225 -0.211724)
(0.701484 0.00632934 -0.209949)
(0.695255 0.0120633 -0.20613)
(0.704304 -0.011974 -0.19987)
(0.699609 -0.0213641 -0.216278)
(0.639258 -0.0093508 -0.671891)
(0.580262 -0.00318959 -0.670539)
(0.591298 0.00566281 -0.669722)
(0.63741 0.0126002 -0.672327)
(0.692759 -0.00953043 -0.672024)
(0.530276 -0.0193402 -0.668316)
(-1.32216 0.00362323 -0.735252)
(-1.37469 0.00161895 -0.724817)
(-1.36492 -0.00307321 -0.726652)
(-1.32678 -0.00551324 -0.734344)
(-1.29493 0.00634439 -0.743309)
(-1.38219 0.0146396 -0.718446)
(-3.01554 0.000480785 4.48241)
(-3.01609 0.000313765 4.48483)
(-3.01574 -0.000222921 4.4839)
(-3.01582 8.03638e-05 4.48364)
(-3.01602 -9.73392e-05 4.48415)
(-3.01572 -0.000221193 4.48312)
(-2.71409 -0.000399342 0.949206)
(-2.71503 -0.000232751 0.949275)
(-2.7146 0.000233608 0.94928)
(-2.71462 -0.000177885 0.949223)
(-2.71484 0.000112655 0.949341)
(-2.7143 0.000356185 0.949155)
(-0.0176696 -0.00164023 -0.00984281)
(-0.0198482 -0.000940473 -0.00971931)
(-0.0188757 0.00106138 -0.009807)
(-0.0185429 -0.0002126 -0.00975618)
(-0.0195013 0.000315619 -0.00969922)
(-0.0178979 0.00082892 -0.00982345)
(4.30013 -0.00579866 -1.86735)
(4.29143 -0.00293878 -1.87033)
(4.2948 0.00507506 -1.86938)
(4.29834 0.00180011 -1.86832)
(4.2959 -7.48244e-05 -1.86913)
(4.2979 7.77593e-05 -1.86825)
(7.83384 -0.0103159 -2.73772)
(7.8118 -0.00469929 -2.74318)
(7.81845 0.00757137 -2.74142)
(7.83133 0.00316661 -2.73932)
(7.82622 -0.000268462 -2.7402)
(7.82325 -0.00120836 -2.73968)
(11.8496 0.00848425 -2.87537)
(11.8026 0.00836938 -2.87476)
(11.8144 -0.00966902 -2.87412)
(11.8438 -0.00913616 -2.87664)
(11.8408 0.00634921 -2.87805)
(11.8194 0.00870444 -2.87215)
(14.4872 0.0248544 -2.03733)
(14.5234 0.0174178 -2.02681)
(14.5056 -0.0222222 -2.02895)
(14.5036 -0.0171978 -2.03667)
(14.4912 0.0100448 -2.03972)
(14.5115 0.0161096 -2.02826)
(14.3003 0.0214222 -0.464135)
(14.3517 0.0130369 -0.462033)
(14.3242 -0.0212413 -0.461235)
(14.327 -0.0164854 -0.464678)
(14.3098 0.0129345 -0.466962)
(14.3389 0.0200948 -0.459073)
(4.36515 0.00619204 1.65991)
(4.47252 0.00531035 1.65583)
(4.46695 -0.0126388 1.6507)
(4.35962 -0.0304422 1.66268)
(4.30897 0.0338936 1.66655)
(4.50538 0.0558924 1.64379)
(-3.70485 -0.074904 1.28262)
(-3.57066 -0.0252563 1.25727)
(-3.59387 0.041592 1.26126)
(-3.70117 0.0815995 1.28313)
(-3.87265 -0.0738683 1.29828)
(-3.42375 -0.138488 1.24913)
(1.38116 -0.0423031 0.936752)
(0.974755 -0.0140652 0.913791)
(1.05485 0.028308 0.923404)
(1.34781 0.0677014 0.929316)
(1.65353 -0.0463519 0.966131)
(0.690786 -0.0768478 0.894299)
(-1.8281 0.0554799 -0.00974104)
(-2.04326 0.0289982 -0.0818571)
(-2.0043 -0.0411382 -0.0612042)
(-1.85929 -0.0716179 -0.0255184)
(-1.67833 0.0638101 0.0289982)
(-2.04659 0.131018 -0.105394)
(-4.33244 -0.00130732 7.92616)
(-4.33253 -0.000776688 7.93023)
(-4.33244 0.000432656 7.92848)
(-4.3325 -0.000187189 7.92815)
(-4.33251 0.000287952 7.92917)
(-4.3326 0.000404135 7.92734)
(2.37744 -0.00103366 -1.15711)
(2.39155 -0.000976526 -1.15638)
(2.38462 0.000402249 -1.15675)
(2.38356 -8.00934e-05 -1.15674)
(2.38814 0.000457168 -1.15672)
(2.38202 0.000666271 -1.15669)
(-2.45512 -0.00497896 -4.65229)
(-2.46731 -0.00230922 -4.65527)
(-2.46268 0.00356493 -4.65387)
(-2.46126 0.000183532 -4.65397)
(-2.46503 0.000197648 -4.65553)
(-2.45662 0.000722589 -4.65308)
(-0.263133 -0.0145372 -4.93201)
(-0.298622 -0.00784108 -4.94163)
(-0.285567 0.012726 -4.93854)
(-0.269602 0.00822374 -4.93491)
(-0.276117 -0.00446126 -4.93859)
(-0.277746 -0.00695574 -4.93341)
(-2.99871 -0.026199 -5.70291)
(-3.12978 -0.0117818 -5.72474)
(-3.09071 0.0159978 -5.71658)
(-3.02007 0.0147481 -5.70847)
(-3.02222 -0.00943668 -5.71874)
(-3.08391 -0.0190591 -5.70293)
(-3.99838 0.0127937 -6.6015)
(-4.27296 0.0169492 -6.5251)
(-4.18838 -0.0216754 -6.54563)
(-4.05664 -0.0146602 -6.58904)
(-4.02075 0.0093895 -6.608)
(-4.20696 0.0103079 -6.53368)
(-5.69051 0.0536166 -2.06112)
(-5.78939 0.0414429 -1.91799)
(-5.74471 -0.0470765 -1.96836)
(-5.7329 -0.0354868 -2.0241)
(-5.71932 0.0239061 -2.04991)
(-5.75639 0.0346732 -1.96304)
(-2.06079 -0.00221255 7.85708)
(-2.03846 0.0069312 7.90155)
(-2.02717 -0.0011534 7.88245)
(-2.06681 -0.00340731 7.87452)
(-2.08327 0.0107546 7.86295)
(-2.01112 0.00783 7.88997)
(-6.21313 -0.0203798 9.21044)
(-6.2879 -0.0105086 9.19963)
(-6.20745 0.0129188 9.23957)
(-6.28614 0.00483389 9.18099)
(-6.32208 0.00171389 9.12864)
(-6.14114 0.004041 9.31473)
(-7.1124 -0.00592973 0.364273)
(-7.14127 -0.00593393 0.362521)
(-7.11813 0.00505967 0.380567)
(-7.13826 0.00341894 0.350326)
(-7.15743 -0.00368103 0.309385)
(-7.0933 0.00107383 0.43393)
(-4.76132 0.00471927 -2.7806)
(-4.77376 0.000513822 -2.83782)
(-4.76419 -0.00114603 -2.81284)
(-4.77519 -0.00156833 -2.80253)
(-4.78694 0.000945367 -2.78159)
(-4.75102 0.005203 -2.82359)
(-2.30346 0.00964123 -2.27578)
(-2.32298 0.0052153 -2.33111)
(-2.31819 -0.00454227 -2.31813)
(-2.30998 -0.00512754 -2.28811)
(-2.30274 0.00600188 -2.25254)
(-2.33083 0.00872318 -2.35024)
(1.56733 -0.209707 0.694375)
(2.12415 0.0505768 0.622022)
(1.56339 -0.318359 1.00236)
(2.54912 -0.467541 0.195101)
(3.8261 0.522441 -0.190536)
(0.637316 1.49731 1.19357)
(4.30732 -0.0861975 -0.991782)
(5.43399 0.0888621 -1.52722)
(4.75966 0.181263 -1.38836)
(5.27777 0.339567 -1.33219)
(6.74009 0.115337 -1.66251)
(2.74649 0.30384 -0.229355)
(6.26389 -0.30825 -2.16981)
(7.74114 0.0586859 -2.80274)
(6.60604 -0.26915 -2.5405)
(7.5455 -0.358861 -2.43166)
(8.85006 -0.206466 -2.58375)
(5.5595 -0.0109642 -1.83041)
(7.62365 -0.314179 -2.18768)
(9.42314 0.192855 -3.20914)
(7.91438 -0.0812325 -2.48341)
(8.67895 -0.025877 -2.77662)
(9.43241 -0.0408933 -2.72559)
(6.90709 0.0327277 -2.43172)
(8.47595 -0.003883 -2.68442)
(9.65338 0.199138 -3.40484)
(9.18122 0.0447925 -3.40925)
(8.88707 0.34508 -2.93662)
(9.05109 0.0639822 -2.40932)
(7.41587 -0.0102089 -2.66836)
(7.9692 0.114158 -2.66307)
(8.91163 0.159011 -3.30041)
(8.60574 -0.0427807 -3.67963)
(8.3144 0.462965 -2.84539)
(8.45928 0.117236 -2.01606)
(7.47377 -0.117842 -2.84536)
(7.59794 -0.0599602 -2.48459)
(8.17009 0.0804004 -3.21099)
(7.87567 -0.125896 -3.73755)
(7.71463 0.363518 -2.69739)
(7.80823 0.125164 -1.57989)
(7.44797 -0.0468655 -2.8881)
(7.21865 -0.307281 -2.18705)
(7.75958 0.0812264 -3.24295)
(7.606 -0.140501 -3.829)
(7.26588 0.346013 -2.60452)
(7.03056 0.15262 -1.20157)
(7.27467 0.00894711 -2.86506)
(6.15061 -0.401108 -1.87806)
(6.89407 0.133343 -3.29303)
(7.01613 -0.069802 -3.92746)
(6.35608 0.607857 -2.63838)
(5.72694 0.119617 -0.927872)
(6.35937 -0.104937 -2.78554)
(3.94676 -0.390046 -1.88808)
(4.73665 0.121781 -3.29175)
(5.22492 0.10736 -4.13051)
(4.41662 1.12367 -2.81227)
(3.45857 0.0983682 -0.832149)
(4.26874 -0.317827 -2.64696)
(1.15548 -0.222585 -1.73812)
(1.83962 -0.00038233 -2.55317)
(2.8541 0.059534 -3.99895)
(1.91339 1.33073 -2.47997)
(0.583266 0.38673 -0.580253)
(1.13792 -0.427974 -1.32357)
(-2.25146 -0.0719519 0.584818)
(-2.27925 -0.281843 0.325902)
(-1.7676 0.0891325 -0.301077)
(-2.05458 0.784475 0.572522)
(-2.28661 0.190362 0.294658)
(-2.61609 -0.0579758 2.00235)
(3.09347 -0.110449 4.61137)
(3.82643 0.0880025 5.31293)
(2.64943 -0.0338624 5.58377)
(4.3081 0.0651042 4.29643)
(5.97178 0.494337 4.31159)
(0.846438 1.30672 5.74916)
(6.7809 -0.104919 4.40922)
(7.36245 -0.132694 4.95959)
(6.9634 -0.00933979 4.50584)
(6.56405 0.414451 5.0476)
(7.93572 -0.09628 4.14355)
(3.94477 0.264053 5.10688)
(7.48256 -0.078516 4.19306)
(8.42748 -0.0590606 4.74537)
(8.16162 -0.357003 4.8498)
(8.4417 0.334061 4.04562)
(9.40605 -0.578314 3.24591)
(6.88925 -0.563523 3.84541)
(5.87462 0.17752 4.18834)
(5.99173 -0.222842 3.42019)
(6.85632 -0.510865 5.84182)
(5.7664 0.0275862 2.88546)
(4.2581 -1.00357 2.51509)
(5.83677 -0.121554 3.28494)
(0.971535 -0.0748991 1.75032)
(-0.439161 -0.4235 1.51222)
(3.99203 -1.13914 2.60953)
(0.411704 -1.59038 1.86386)
(2.12507 -0.0320235 1.35414)
(3.79047 0.503344 2.5276)
(-0.783849 -0.692394 0.17712)
(-1.26577 0.622541 1.40539)
(0.0513602 -1.08794 0.656825)
(3.52171 -1.37341 0.666501)
(4.67574 0.00482091 1.61239)
(-0.791583 0.752188 2.37261)
(-0.43097 0.258335 1.24196)
(0.413447 0.582977 1.80333)
(-1.97831 0.318195 1.19111)
(3.14686 -0.470417 0.93853)
(4.74564 -0.381037 0.503101)
(2.28003 0.136303 2.37337)
(5.68208 0.130472 1.5422)
(4.88776 0.201717 1.74265)
(3.44446 -0.77087 2.5014)
(4.59413 -0.956499 0.728759)
(6.01497 -0.0908046 -0.375878)
(6.81931 1.07412 2.40719)
(7.11446 -0.18132 -0.574253)
(6.32529 -0.0114521 -0.785286)
(5.7343 -0.970812 0.921965)
(6.62436 -0.930647 -0.913265)
(7.50174 -0.00796877 -1.20956)
(7.26164 1.05782 0.259254)
(6.06011 -0.152469 -4.17316)
(6.10435 0.1767 -4.98896)
(5.86464 -0.680859 -3.82312)
(6.19687 -0.435455 -3.51051)
(6.3603 -0.343385 -2.38337)
(5.85799 0.477174 -4.94573)
(4.03395 -0.129828 -3.87673)
(4.20909 0.329682 -4.31007)
(4.59061 -0.213878 -5.83084)
(3.92715 0.350907 -3.29792)
(3.89061 -0.677341 -1.54715)
(4.11012 -0.210053 -4.81366)
(-0.602162 0.0859636 1.01402)
(0.189907 0.563535 0.30263)
(1.87337 0.361057 -2.51192)
(0.550072 1.09187 -0.0353952)
(-2.49728 -0.337117 2.48539)
(0.863953 -0.439611 -0.811228)
(2.47843 -0.441507 8.57716)
(2.80166 -0.232798 9.49378)
(1.62797 0.0801193 8.77317)
(4.21964 0.351021 8.1509)
(6.23506 0.29575 8.79998)
(0.733857 0.818623 8.55146)
(-0.344713 -0.66807 7.08985)
(2.85183 -0.457182 6.8956)
(3.18336 0.165628 6.06765)
(2.68067 1.06569 7.41934)
(1.59927 0.731014 9.74235)
(-0.645894 0.554196 9.38376)
(2.7912 0.360312 -0.18835)
(2.40231 0.510891 -1.57908)
(2.46506 0.307097 -0.807916)
(2.31634 0.467804 -1.47498)
(3.39505 -0.0636825 -3.58356)
(4.40902 -0.425848 0.661074)
(0.858866 0.127591 -5.50635)
(0.911147 0.0324381 -6.293)
(1.18472 0.258788 -5.22691)
(0.991951 0.620078 -6.14325)
(0.866724 0.456909 -5.80494)
(1.06297 0.135516 -5.86429)
(1.69082 0.0102538 -5.73484)
(1.96854 -0.0843947 -5.50583)
(1.41198 -0.0111456 -5.79714)
(1.91895 0.0999455 -5.05517)
(1.97349 -0.0679039 -4.66834)
(2.19615 -0.0378958 -5.1972)
(1.12495 -0.288119 -2.29745)
(0.958463 -0.163728 -1.38263)
(0.935026 -0.0360049 -2.68836)
(0.975677 -0.355117 -2.44756)
(1.15035 -0.530435 -2.71161)
(0.925762 -0.187556 -1.63769)
(0.28174 -0.0530878 1.6876)
(0.472687 0.275888 2.92328)
(-0.0462722 0.129424 1.84309)
(0.754142 0.269545 -0.721141)
(0.73306 -0.648491 -1.91116)
(0.929152 -0.429554 3.16813)
(0.985132 0.153805 3.34509)
(1.31578 0.0646329 3.67918)
(0.627956 -0.297407 4.25425)
(-0.81978 0.643525 0.427735)
(-0.831494 -0.437348 -2.25615)
(2.92458 0.28131 3.75741)
(0.0245798 -0.0668165 0.0652255)
(-0.238297 -0.410228 2.30854)
(1.14168 -0.605648 3.03836)
(0.481031 -0.105076 -1.03248)
(1.02153 0.267976 -4.17905)
(1.82889 0.568715 -1.10308)
(2.9102 -0.0569402 -5.22326)
(3.48602 -0.100592 -5.08963)
(3.69739 -0.71184 -3.76267)
(4.07378 -1.01342 -6.07416)
(4.25662 -0.127774 -6.69414)
(3.29989 0.494045 -5.33497)
(3.41138 0.0559444 -5.82817)
(3.5653 0.383914 -6.06566)
(2.96016 -0.278528 -6.54506)
(3.59834 -0.893422 -6.20095)
(4.30746 -0.204636 -4.83001)
(4.06862 0.607205 -6.94812)
(2.29561 0.0353253 -2.8726)
(2.57476 0.367697 -3.41845)
(2.76613 -0.0621608 -4.45915)
(2.26592 -0.552098 -2.75196)
(-1.15044 -0.185218 4.02838)
(2.2876 0.571185 -3.64968)
(1.51395 -0.580086 9.06343)
(1.35309 -0.190265 9.42217)
(1.10073 0.0862633 8.95722)
(3.83018 0.383631 9.80491)
(5.7776 -0.00733702 10.7435)
(1.24846 0.667817 8.44683)
(-2.06711 -0.557736 10.0861)
(0.596174 -0.0318821 7.04028)
(1.175 0.363437 6.40238)
(0.376189 1.2398 7.35459)
(-0.153295 0.541924 9.23276)
(-2.33118 0.753072 11.892)
(4.04322 0.432554 0.69913)
(4.64487 0.446316 -0.0540588)
(4.48464 -0.0662889 0.00685059)
(4.63702 -0.130776 0.0649421)
(4.81615 -0.782431 0.0769683)
(2.65904 -0.632696 1.24679)
(0.290137 0.0793275 -0.93415)
(0.338703 0.0611261 -0.848016)
(0.510936 -0.111156 -0.683471)
(0.5708 -0.029568 -1.34613)
(0.460883 -0.114218 -1.48639)
(0.647987 -0.127002 -0.906562)
(2.80628 -0.0225673 -0.932872)
(2.87503 -0.00284874 -1.02131)
(2.76602 -0.0064829 -0.938566)
(2.82533 -0.137438 -0.921044)
(2.74762 -0.0381696 -1.08643)
(2.68476 0.0186005 -0.956747)
(1.91296 -0.0831615 -0.3506)
(1.90416 0.0939918 -0.133423)
(1.82406 0.175322 -0.284867)
(1.60409 0.0803091 -0.310066)
(1.47201 -0.0770041 -0.226163)
(1.72474 -0.19193 0.00698107)
(1.42863 -0.126729 0.512689)
(1.29509 0.186863 1.18169)
(1.3623 0.550672 0.773719)
(1.24179 0.626677 0.127216)
(1.12138 -0.341803 0.159125)
(1.08133 -0.61856 1.06991)
(-0.625435 0.0321453 1.34765)
(-0.403858 0.222514 1.83963)
(-0.525052 0.53439 2.23023)
(-0.513586 1.13829 0.464049)
(-0.617646 -0.0645739 0.34658)
(-0.353487 -0.534632 1.86666)
(-1.85903 -0.122543 0.426312)
(-1.69341 0.0270633 0.433153)
(-1.60615 0.567583 1.0408)
(-1.32541 1.12653 0.412576)
(-1.25226 0.692733 0.346079)
(-1.68642 0.123558 0.589068)
(-0.297731 0.0062141 -1.29775)
(0.235274 -0.0999685 -1.67031)
(0.111874 0.0109891 -0.674136)
(0.508097 -7.12162e-05 -2.16512)
(1.06588 -0.00391121 -3.11628)
(-2.47993 0.0826705 -0.586652)
(1.07327 0.0289043 -5.74709)
(0.815582 -0.0982721 -5.44939)
(-0.499811 -0.155211 -4.711)
(2.09054 -0.534172 -6.54206)
(3.91348 0.0509303 -6.04106)
(2.22473 0.607258 -5.98702)
(3.28854 -0.0204688 -4.2607)
(3.30851 -0.0928037 -4.32059)
(3.33414 -0.372638 -4.33554)
(2.9785 -0.809705 -4.21694)
(2.55822 -0.0735423 -2.76725)
(3.0061 0.569884 -4.14941)
(-5.0424 -0.000640374 8.1436)
(-5.04117 -0.000208797 8.13359)
(-5.04172 6.44819e-05 8.13703)
(-5.04192 -0.000276648 8.13905)
(-5.04144 0.000182816 8.13666)
(-5.04223 0.000174049 8.13995)
(-4.29745 -0.00286734 6.45167)
(-4.296 -0.00209638 6.47244)
(-4.29682 0.00115295 6.46412)
(-4.29648 4.16213e-05 6.4609)
(-4.29635 0.000445949 6.46783)
(-4.29724 0.000934374 6.45786)
(-3.07475 0.000245605 10.315)
(-3.07445 0.000260572 10.3219)
(-3.07522 -0.000297741 10.3182)
(-3.07489 -0.000122781 10.3171)
(-3.07499 -0.000363266 10.3201)
(-3.07541 -0.000396711 10.3151)
(3.5949 -0.00246922 -0.334172)
(3.53401 -0.00149434 -0.343165)
(3.55698 0.00097137 -0.339637)
(3.56707 -0.000597293 -0.338702)
(3.54779 0.000712867 -0.34138)
(3.57591 0.00112819 -0.339448)
(-1.50099 -0.00552004 1.55227)
(-1.49628 -0.00371225 1.54993)
(-1.49953 8.52437e-05 1.54934)
(-1.4963 -0.0028047 1.55094)
(-1.49564 0.000634302 1.55003)
(-1.49884 0.00173372 1.54929)
(0.567346 -0.00742748 0.202419)
(0.578532 -0.00419245 0.15625)
(0.573618 0.000536695 0.174337)
(0.574417 -0.00418739 0.173484)
(0.57745 0.000858336 0.160563)
(0.572227 0.00247261 0.179997)
(-4.60261 0.000104112 -0.932747)
(-4.60041 0.00199996 -0.937568)
(-4.60025 0.00213127 -0.934425)
(-4.60047 0.00234126 -0.9361)
(-4.60127 -0.00213035 -0.938666)
(-4.59817 -0.00454815 -0.934498)
(-2.64381 -0.00149277 -2.45728)
(-2.64196 -0.000309093 -2.46764)
(-2.64276 6.9213e-05 -2.46297)
(-2.64185 -0.000757209 -2.46358)
(-2.64012 9.47647e-05 -2.46696)
(-2.64347 -0.000195658 -2.46212)
(-0.507967 -0.000787521 -2.48204)
(-0.507457 -0.000491883 -2.48909)
(-0.507461 0.000110635 -2.48545)
(-0.507409 -0.000252855 -2.48624)
(-0.507206 0.000160579 -2.48881)
(-0.507689 0.000239899 -2.48479)
(-2.03528 -0.0179583 -2.64958)
(-2.07554 -0.00923388 -2.64551)
(-2.06171 0.013992 -2.64715)
(-2.04229 0.0121275 -2.64949)
(-2.04291 -0.00805736 -2.65577)
(-2.05816 -0.0149266 -2.64065)
(-0.523989 -0.00255463 -3.23543)
(-0.527202 -0.00100839 -3.2324)
(-0.525005 0.00178852 -3.23423)
(-0.525112 0.00187833 -3.23499)
(-0.521293 -0.00123236 -3.23708)
(-0.527334 -0.00294168 -3.23318)
(-0.116227 -0.000685914 -3.09335)
(-0.117083 -0.000366255 -3.09137)
(-0.116581 0.000518497 -3.09246)
(-0.116438 0.000509165 -3.09267)
(-0.116101 -0.000284793 -3.09383)
(-0.116813 -0.00059458 -3.09154)
(-3.45574 -0.0386675 -2.512)
(-3.62257 -0.018233 -2.49637)
(-3.57018 0.0240799 -2.50152)
(-3.48606 0.0228481 -2.50896)
(-3.46544 -0.0155258 -2.52503)
(-3.57853 -0.0308667 -2.48507)
(-1.47713 -0.026141 -1.92891)
(-1.4974 -0.014598 -1.91898)
(-1.48653 0.0191611 -1.92469)
(-1.48519 0.0158827 -1.92619)
(-1.47649 -0.0118015 -1.9368)
(-1.49221 -0.0209648 -1.91584)
(-0.404823 -0.0022778 -1.51382)
(-0.411655 -0.0010613 -1.5014)
(-0.408872 0.00137324 -1.50727)
(-0.407347 0.00140582 -1.51009)
(-0.405952 -0.000967463 -1.51514)
(-0.409944 -0.00221516 -1.5039)
(-5.32599 -0.0235803 -3.18121)
(-5.7222 -0.00488194 -3.02555)
(-5.58938 0.00547712 -3.07937)
(-5.42083 0.00499871 -3.13885)
(-5.34234 -0.000432522 -3.17166)
(-5.63215 -0.00636513 -3.06076)
(-2.63263 -0.075302 -1.02249)
(-2.87863 -0.0412728 -0.952432)
(-2.78899 0.0479981 -0.98083)
(-2.69533 0.0366692 -1.0017)
(-2.65288 -0.025513 -1.0254)
(-2.81835 -0.0434789 -0.960349)
(-0.408122 -0.0196034 0.475486)
(-0.429096 -0.0116504 0.539826)
(-0.419606 0.0124205 0.512414)
(-0.417457 0.00945536 0.496077)
(-0.413741 -0.00807178 0.477479)
(-0.422141 -0.0135499 0.524346)
(-8.62554 0.0293709 0.744283)
(-8.95076 0.0258075 0.984172)
(-8.81906 -0.0268901 0.890263)
(-8.74206 -0.0207497 0.830968)
(-8.68175 0.0195414 0.805915)
(-8.84872 0.028049 0.88626)
(-6.10583 -0.00734636 1.20765)
(-6.65895 -9.8783e-05 1.45246)
(-6.46052 -0.0105983 1.35831)
(-6.27143 -0.0143069 1.29829)
(-6.19312 0.0137134 1.29658)
(-6.5034 0.0270968 1.34889)
(-0.976649 -0.0513819 4.46942)
(-1.20107 -0.0276095 4.61188)
(-1.12061 0.0254596 4.5559)
(-1.0387 0.0139379 4.51795)
(-1.0066 -0.0104538 4.50638)
(-1.14528 -0.0168259 4.56101)
(-8.83796 0.00300915 9.04302)
(-8.9178 0.00597879 9.0234)
(-8.86069 0.00295659 9.02383)
(-8.8936 0.0112437 9.0539)
(-8.90166 -0.00842268 9.08726)
(-8.84849 -0.0166099 8.99224)
(-8.19752 0.0667548 7.20154)
(-8.46047 0.0363387 7.10746)
(-8.33559 -0.0449135 7.1202)
(-8.33132 -0.0297229 7.21935)
(-8.34719 0.0185279 7.33378)
(-8.31512 0.0441095 7.03528)
(-2.90669 0.05407 7.15847)
(-3.25141 0.0295683 7.29394)
(-3.1261 -0.0462779 7.23761)
(-3.02621 -0.0464116 7.21995)
(-3.0099 0.0319173 7.2559)
(-3.13429 0.0700226 7.21512)
(-8.88709 -0.0239075 8.94406)
(-8.96606 -0.0207963 8.76946)
(-8.91478 0.0250772 8.85825)
(-8.94055 0.0318181 8.87348)
(-8.97799 -0.0325597 8.91896)
(-8.87046 -0.0405458 8.84686)
(-7.14782 0.0432009 6.7514)
(-7.17909 0.0132708 6.39305)
(-7.14589 -0.0164214 6.52331)
(-7.19371 0.00808086 6.64532)
(-7.25322 -0.0162872 6.75442)
(-7.10845 -0.00352283 6.47243)
(-2.13507 0.0966473 4.93929)
(-2.23718 0.0431979 4.88663)
(-2.18766 -0.0602216 4.88722)
(-2.18856 -0.0436722 4.93352)
(-2.2354 0.0253464 4.97501)
(-2.16507 0.0721973 4.87572)
(-8.23441 -0.00319471 0.0656051)
(-8.20641 -0.0111461 -0.073098)
(-8.21675 0.0110856 -0.00238842)
(-8.2357 0.0117353 0.00809823)
(-8.26289 -0.0176174 0.0130069)
(-8.20313 -0.01141 0.0215503)
(-3.52379 0.00234075 -2.30464)
(-3.4133 -0.0169282 -2.50138)
(-3.44398 0.0149745 -2.42248)
(-3.51295 0.0330377 -2.37538)
(-3.55949 -0.0352917 -2.38509)
(-3.41084 -0.0322508 -2.39561)
(-1.04805 0.0141621 -2.91456)
(-1.0166 -0.00971931 -3.20288)
(-1.0143 0.00745813 -3.15555)
(-1.05708 0.0206685 -2.96473)
(-1.08159 -0.0248014 -2.95803)
(-0.997559 -0.0126206 -3.15341)
(-5.21327 0.0096988 -5.3978)
(-5.20426 0.00673645 -5.38629)
(-5.206 -0.00534501 -5.38824)
(-5.21125 -0.00819469 -5.40183)
(-5.21714 0.00912233 -5.4118)
(-5.20239 0.0157661 -5.37729)
(-2.43102 -0.0146654 -5.40257)
(-2.43137 -0.00891881 -5.37742)
(-2.42433 0.0141595 -5.37609)
(-2.43325 0.0192851 -5.40778)
(-2.42706 -0.0140934 -5.44225)
(-2.42845 -0.0251799 -5.3441)
(-0.529792 -0.00469106 -6.94436)
(-0.527629 -0.00364916 -6.94039)
(-0.526218 0.00615818 -6.93954)
(-0.531513 0.0108615 -6.94805)
(-0.531193 -0.00943828 -6.96583)
(-0.527525 -0.0152192 -6.92469)
(-4.15517 0.0078556 -3.61455)
(-4.17267 0.00521837 -3.59247)
(-4.16571 -0.00616603 -3.60251)
(-4.16275 -0.00881969 -3.60628)
(-4.15852 0.0093123 -3.61814)
(-4.17034 0.01543 -3.59503)
(-2.76779 -0.00520855 -6.0962)
(-2.76847 -0.00313713 -6.07031)
(-2.76886 0.00359458 -6.07686)
(-2.76684 0.00338547 -6.09292)
(-2.76605 -0.00313485 -6.10515)
(-2.77061 -0.00492561 -6.06321)
(-0.595106 -0.00217254 -4.28187)
(-0.593241 -0.00141523 -4.28276)
(-0.593841 0.00169674 -4.28105)
(-0.596146 0.00195329 -4.2842)
(-0.598846 -0.00247468 -4.28871)
(-0.592866 -0.00355508 -4.27683)
(2.00849 -0.00568913 0.532076)
(2.01677 -0.0139966 0.541613)
(2.031 -0.0161218 0.550807)
(1.92805 -0.0177405 0.629785)
(1.86141 -0.00490155 0.523201)
(1.96905 0.00845877 0.590883)
(0.395029 -0.00816558 -5.26347)
(0.430794 -0.0201576 -5.29704)
(0.462563 -0.0533087 -5.2421)
(0.627695 -0.0369595 -4.70903)
(0.698131 -0.00761194 -4.32481)
(0.631567 -0.00939945 -4.80703)
(0.767651 -0.006201 -1.75041)
(0.774233 -0.0367413 -1.73564)
(0.771031 -0.102053 -1.73352)
(0.801446 -0.113896 -1.82117)
(0.803422 -0.0306084 -1.82432)
(0.782478 0.0124546 -1.80696)
(0.604914 -0.00100686 -0.20062)
(0.605027 -0.000762969 -0.204999)
(0.599097 -0.000522509 -0.203002)
(0.59603 0.00222575 -0.198531)
(0.588476 -0.000162154 -0.166615)
(0.592374 -0.00412656 -0.193224)
(-0.390135 0.0121185 -1.82292)
(-0.398205 0.0261198 -1.84152)
(-0.394149 0.0476494 -1.86903)
(-0.42821 0.0333098 -1.71481)
(-0.416484 0.0135179 -1.66327)
(-0.411616 0.0162142 -1.79116)
(0.725315 -0.00482436 -2.21162)
(0.721953 -0.0139076 -2.21639)
(0.703979 -0.033237 -2.21671)
(0.658298 -0.0397167 -2.23239)
(0.636456 -0.0117116 -2.23267)
(0.63776 0.00361518 -2.23846)
(0.227184 -0.000872408 0.199922)
(0.225404 -0.00179826 0.199249)
(0.225089 0.000963266 0.198515)
(0.224771 0.0009607 0.199711)
(0.224926 -0.000424529 0.199181)
(0.22308 0.000807779 0.193438)
(-0.287644 0.0014106 -1.21134)
(-0.282307 0.00266869 -1.21676)
(-0.270272 0.00226522 -1.21673)
(-0.250741 0.00131665 -1.21654)
(-0.244399 0.00762605 -1.21821)
(-0.238384 0.00811469 -1.20703)
(0.225924 -0.00334703 -2.00925)
(0.224257 -0.0105754 -2.00955)
(0.218913 -0.0170334 -2.00721)
(0.200829 -0.0185992 -2.00044)
(0.189911 -0.0114766 -2.00581)
(0.196272 -0.00291104 -1.99134)
(-0.270698 -0.000263927 0.251014)
(-0.270039 -1.76382e-05 0.2504)
(-0.270135 -0.00234256 0.249952)
(-0.269394 -0.00247248 0.252147)
(-0.269847 0.00220581 0.255548)
(-0.268869 0.00237426 0.246462)
(-1.19651 0.000716625 -1.23446)
(-1.19715 0.00247001 -1.22603)
(-1.19697 0.00420011 -1.22186)
(-1.19252 0.00239708 -1.24757)
(-1.19121 0.0064616 -1.25358)
(-1.19741 0.00716264 -1.21612)
(-0.261078 -0.0017929 -2.33961)
(-0.263252 -0.00453889 -2.34094)
(-0.267674 -0.00515831 -2.3396)
(-0.272986 -0.0056992 -2.34032)
(-0.276829 -0.00512912 -2.34393)
(-0.280788 -0.00199488 -2.3296)
(-0.580386 -0.00151071 0.215003)
(-0.579997 -0.00165227 0.213612)
(-0.578954 -0.0014014 0.213393)
(-0.581388 -0.00112462 0.215569)
(-0.581274 0.000991971 0.21874)
(-0.57933 0.00107778 0.210708)
(-1.7544 0.000977659 -2.05642)
(-1.7555 0.00200174 -2.0677)
(-1.75542 0.00285209 -2.06826)
(-1.75162 0.000382894 -2.07239)
(-1.74961 0.00371412 -2.07543)
(-1.75711 0.00574229 -2.06184)
(-0.874617 -0.000161096 -2.92276)
(-0.876396 -0.00119641 -2.92369)
(-0.878265 -0.001698 -2.92233)
(-0.87784 -0.00181313 -2.92463)
(-0.877988 -0.00278348 -2.92828)
(-0.884055 -0.00177936 -2.91523)
(-1.84691 -0.000629021 1.04065)
(-1.84959 -0.000984319 1.04313)
(-1.84789 -0.00134252 1.04124)
(-1.84972 -0.00109291 1.04191)
(-1.84981 0.00124446 1.04267)
(-1.84839 0.00148636 1.04015)
(-2.75993 0.00135103 -5.39498)
(-2.75558 0.00110978 -5.42363)
(-2.75783 0.000865102 -5.41677)
(-2.75451 -0.000339014 -5.41269)
(-2.75368 0.0010726 -5.4076)
(-2.75854 0.00291815 -5.41719)
(-1.05932 0.00124019 -3.29402)
(-1.05723 0.000502237 -3.29484)
(-1.05897 -0.000730391 -3.29443)
(-1.0586 -0.000404282 -3.29478)
(-1.05886 -0.00162369 -3.29782)
(-1.06142 -0.00135599 -3.2904)
(1.54195 -0.389759 8.84281)
(1.58636 0.0314675 9.15732)
(1.92438 -0.0422534 8.82986)
(3.98011 0.430471 10.7349)
(4.90687 -0.489206 12.6138)
(2.33774 0.676473 8.14284)
(2.7682 -0.305359 7.82584)
(2.83402 -0.0188463 7.78757)
(3.63961 -0.423117 8.10096)
(5.7315 -0.172498 10.8575)
(5.98292 -0.120293 12.6652)
(3.65329 0.750915 7.48641)
(5.17584 -0.274365 13.9495)
(5.282 -0.264278 14.1117)
(6.12173 -0.798795 14.0147)
(7.92693 -0.628758 14.9528)
(7.92611 -0.107086 15.9167)
(5.30411 0.746354 13.8016)
(-2.42931 0.0365528 10.8354)
(-1.59436 1.0064 8.75736)
(-1.19415 0.742527 7.29083)
(-1.6181 1.01985 7.62897)
(-1.30479 -0.655607 9.62327)
(-2.7234 0.339999 12.9397)
(-1.22804 0.336354 11.2016)
(-0.805658 1.16184 10.9616)
(-1.41167 0.699762 10.8536)
(-2.73996 -0.0308411 11.2937)
(-2.47177 -2.15328 13.5265)
(-2.14708 -0.593435 12.3623)
(2.72594 0.161176 7.91549)
(2.90294 0.156359 8.38525)
(1.72587 -0.135082 8.82765)
(-0.306008 -0.612126 9.47878)
(0.454492 -2.19221 9.31563)
(2.56187 -0.581839 4.07687)
(4.98699 0.280405 -2.0622)
(5.7729 0.564454 -2.80498)
(5.36208 0.19077 -2.60525)
(5.27997 0.253483 -2.58594)
(5.59653 -0.839719 -2.74683)
(3.83486 -0.571853 -1.51978)
(4.63166 -0.0627283 -0.933275)
(4.76801 -0.0571465 -1.03369)
(3.97568 -0.951667 -0.454121)
(3.22842 -0.223443 2.27137)
(3.61895 -0.301209 1.55665)
(3.74849 0.298074 -0.785543)
(1.88577 -0.261011 -1.12541)
(1.99649 -0.57784 -0.452538)
(1.67212 -1.29774 -1.68729)
(1.48582 -0.375299 -1.50512)
(1.4801 0.413505 -1.70399)
(1.87718 1.08332 0.0537513)
(0.0537468 0.00822414 -3.99091)
(-0.0108958 0.0358739 -3.96709)
(0.133531 -0.125451 -3.87174)
(0.391215 -0.0271201 -4.4415)