/*--------------------------------*- C++ -*----------------------------------*\
| =========                 |                                                 |
| \\      /  F ield         | OpenFOAM: The Open Source CFD Toolbox           |
|  \\    /   O peration     | Version:  v1612+                                |
|   \\  /    A nd           | Web:      www.OpenFOAM.com                      |
|    \\/     M anipulation  |                                                 |
\*---------------------------------------------------------------------------*/
FoamFile
{
    version     2.0;
    format      ascii;
    class       volScalarField;
    location    "9.6";
    object      p;
}
// * * * * * * * * * * * * * * * * * * * * * * * * * * * * * * * * * * * * * //

dimensions      [1 -1 -2 0 0 0 0];

internalField   nonuniform List<scalar> 
1116
(
6498.71
6507.38
6506.76
6495.62
6490.07
6504.52
6911.78
6912.78
6915.22
6921.13
6924.06
6919.83
7661.24
7653.86
7655.66
7664.03
7661.36
7652.06
8241.84
8231.12
8228.96
8238.61
8237.12
8219.06
8716.76
8710.85
8708.74
8713.77
8712.05
8702.93
9187.96
9185.85
9185.51
9191.18
9191.68
9186.24
9884.76
9885.32
9887.88
9899.41
9912.91
9901.14
10843.2
10844.8
10841.3
10830.9
10812.3
10831.5
12122.6
12122.1
12121.2
12116.4
12115.5
12116.4
13533.7
13535.9
13533.6
13528.3
13523.1
13536.5
14238.7
14243.7
14236.2
14230.6
14230.1
14236.4
14273.5
14260.3
14258.5
14262.5
14249.8
14263.6
1198.53
1212.98
1212.71
1198.96
1196.73
1212.86
1375.27
1372.82
1373.04
1383.34
1393.77
1369.69
1563.83
1539.82
1539.23
1571.39
1585.36
1531.6
1814.47
1793.92
1788.18
1809.45
1811.26
1773.76
2003.15
1992.04
1987.4
2000.35
1996.99
1976.6
2240.28
2234
2232.24
2242.03
2240
2231.17
2547.35
2540.74
2539.28
2548.69
2550.6
2544.21
3089.13
3083.58
3081.76
3084.6
3087.66
3084.13
4286.44
4283.61
4281.76
4274.26
4266.73
4287.34
5443.42
5446.26
5447.87
5438.55
5419.09
5464.03
6264.81
6255.41
6242.15
6235.96
6231.32
6250.9
7985.72
7983.79
7979.05
7979.84
7956.39
8000.7
-25.044
-25.0169
-25.065
-25.1162
-25.0418
-25.1141
-27.45
-27.2114
-27.1321
-27.4844
-27.654
-27.245
-31.3231
-30.9925
-30.8503
-30.9739
-31.143
-30.592
-31.6903
-31.6673
-31.5794
-31.4868
-31.4668
-31.3707
-29.874
-30.0455
-30.0556
-29.9188
-29.9422
-30.0303
-24.4125
-24.5323
-24.6636
-24.5386
-24.6481
-24.7767
-3.39576
-3.27932
-3.42429
-3.56276
-3.64171
-3.47776
129.765
129.993
129.824
129.397
129.561
130.461
365.599
365.735
366.046
366.513
365.664
369.481
613.714
623.085
628.024
631.977
629.716
633.441
1960.9
1892.96
1879.7
1864.65
1862.57
1906.45
4775.27
4768.48
4767.38
4758.96
4768.42
4748.4
-24.6996
-24.7828
-24.8249
-24.6848
-24.5676
-24.8671
-24.7999
-24.8128
-24.8285
-24.8513
-24.741
-24.8926
-24.5367
-24.3845
-24.4251
-24.5356
-24.5369
-24.5192
-26.1608
-26.0643
-26.0692
-26.1166
-26.0778
-26.0704
-26.5446
-26.5002
-26.5184
-26.5204
-26.4724
-26.5224
-27.4662
-27.5269
-27.5447
-27.5232
-27.5346
-27.535
-26.0467
-25.7443
-25.7846
-26.0906
-25.9852
-26.1831
-6.75636
-6.5601
-6.48353
-6.56785
-6.31804
-6.75644
-3.90309
-4.8092
-4.89866
-4.13422
-4.19924
-3.79926
25.3209
14.2584
11.7977
11.5071
10.9063
8.76085
225.682
167.041
156.346
153.931
151.17
144.394
1251.83
1097.25
1133.19
1096.73
1074.55
1111.82
758.03
770.469
758.79
661.344
613.141
574.049
770.812
786.354
754.496
680.649
636.264
580.659
828.261
824.332
784.895
757.907
726.792
696.202
888.503
858.088
849.243
842.678
806.208
804
952.702
910.409
941.811
905.92
849.45
883.5
1014.07
963.748
949.705
959.916
880.147
941.884
1073.73
985.534
1060.03
1089.82
1013.03
1064.92
1161.87
1085.34
1165.64
1092.06
1136.69
1216.73
1094.78
1100.34
1115.36
965.325
1026.31
1182.84
893.379
941.018
954.814
842.447
910.593
990.975
770.022
781.476
779.215
750.826
736.983
829.85
678.917
660.447
632.753
594.14
595.884
617.6
107.741
148.739
168.13
65.2408
50.1342
38.8967
107.189
162.94
149.874
78.8613
56.0177
40.5136
158.131
163.986
153.924
140.496
105.037
71.7454
201.739
200.407
211.431
205.877
173.102
124.333
251.585
251.517
258.435
212.591
173.608
177.434
323.579
248.029
219.96
212.015
149.733
198.988
438.757
319.497
245.994
292.091
170.063
242.773
466.117
444.054
355.026
350.81
287.981
353.196
534.707
421.328
328.643
367.73
248.252
411.066
545.856
463.129
443.818
462.841
458.489
470.239
564.481
546.458
499.429
473.849
468.766
482.286
517.29
516.989
483.503
476.844
473.622
482.689
-23.7532
-24.2633
-23.7198
-23.5872
-22.4432
-21.4022
-23.0781
-23.7466
-23.1407
-22.1799
-21.2841
-20.6803
-19.4517
-22.6785
-21.9323
-21.9128
-21.7117
-20.5443
-18.3941
-19.4031
-19.4287
-20.583
-21.3652
-21.4392
-14.3694
-13.3931
-14.4857
-17.0435
-18.2615
-18.9738
-16.0253
-14.4201
-8.82539
-12.9776
-13.5981
-13.3777
-8.06291
-11.9897
-4.65593
-8.34404
-8.60657
-7.31896
8.05659
-0.868032
35.1232
18.942
-1.90695
5.04971
106.419
61.2517
56.8349
45.4857
3.89735
44.0109
303.951
119.325
109.129
218.724
150.068
101.734
388.853
342.32
318.086
335.484
335.528
319.427
384.656
386.562
360.573
355.554
361.175
378.959
-31.5934
-33.4671
-34.9872
-32.497
-30.6062
-29.5434
-31.3506
-33.1506
-33.8739
-32.475
-31.0469
-29.3249
-32.3379
-32.5756
-32.6558
-32.3866
-32.0468
-30.4443
-34.0394
-33.8752
-33.4734
-33.0988
-33.4305
-32.4441
-35.9181
-36.742
-34.14
-32.9054
-34.0647
-33.1935
-37.1664
-39.9517
-33.5629
-32.2173
-33.6561
-32.5977
-33.7936
-41.1471
-31.42
-29.6578
-32.3344
-31.3659
-34.0388
-43.6977
-30.8908
-31.3152
-33.4761
-30.3964
-21.0777
-25.9515
-5.88569
2.09761
-8.58203
-9.83255
60.048
20.9778
55.3058
112.665
60.5453
27.6082
151.455
81.3608
101.19
172.398
175.743
164.37
268.719
260.176
243.194
243.187
255.62
277.972
-46.0151
-46.2388
-46.4304
-46.2469
-46.1296
-46.2124
-51.7394
-51.3671
-51.4772
-51.4219
-51.7401
-51.8557
-69.413
-68.8514
-68.694
-69.1349
-70.0923
-69.6777
-45.4746
-45.7707
-45.8827
-45.6231
-45.4479
-45.4972
-55.1258
-55.221
-55.3011
-55.2113
-55.1895
-55.128
-70.1526
-69.8684
-69.8698
-70.0533
-70.4684
-70.5585
-44.5015
-44.4806
-44.4906
-44.4744
-44.4713
-44.4686
-54.566
-54.5665
-54.5682
-54.5639
-54.5725
-54.5741
-69.4151
-69.3992
-69.4006
-69.4255
-69.4776
-69.4772
-44.7599
-44.757
-44.7615
-44.7455
-44.746
-44.7291
-55.4851
-55.4894
-55.4946
-55.4981
-55.5093
-55.5092
-70.1995
-70.1911
-70.1967
-70.2171
-70.2511
-70.2532
-43.5858
-43.5882
-43.5906
-43.5935
-43.5911
-43.598
-55.3077
-55.32
-55.3193
-55.3258
-55.3298
-55.3422
-70.5159
-70.5302
-70.5274
-70.5364
-70.5445
-70.5441
-42.2429
-42.2309
-42.2375
-42.2497
-42.2536
-42.2566
-55.0869
-55.0524
-55.0727
-55.0849
-55.0987
-55.0789
-71.0262
-71.0526
-71.0394
-71.0616
-71.0778
-71.0819
-35.4059
-35.3723
-35.3903
-35.4246
-35.4046
-35.4793
-52.6853
-52.7613
-52.739
-52.8607
-52.9075
-52.9964
-71.4996
-71.7083
-71.6474
-71.7365
-71.713
-71.7369
-29.2576
-29.1186
-29.3085
-28.924
-29.1179
-28.9749
-54.2568
-52.9261
-53.7706
-53.9536
-54.0518
-53.2605
-70.4476
-70.9808
-70.6733
-70.809
-71.2193
-71.537
-28.8468
-28.0373
-29.3452
-29.4438
-28.9424
-28.0458
-45.7351
-47.3281
-47.3654
-47.1188
-47.2697
-47.4338
-80.602
-83.1062
-80.812
-80.9434
-80.9907
-81.2615
-5.14031
-19.2599
-20.8506
-22.8859
-25.0388
-25.2785
-43.2714
-50.088
-50.1996
-51.2755
-53.2898
-53.4183
-78.8153
-80.1649
-79.9007
-80.2966
-80.5481
-80.184
69.3137
46.5882
48.5489
44.3591
38.4813
39.0166
-65.3504
-62.948
-58.0936
-59.0593
-61.57
-61.7155
-98.3304
-81.8882
-75.2728
-73.9056
-73.5874
-73.5571
560.715
487.814
623.687
558.601
502.971
590.709
-111.345
-125.725
-102.584
-97.3936
-100.668
-97.455
-89.2794
-79.4739
-72.4001
-70.7513
-66.3167
-66.8148
143.652
136.526
111.879
85.5875
72.3269
97.3016
-30.9174
-34.6164
-35.7419
-37.5548
-38.2656
-37.1654
-70.3297
-71.7043
-71.1808
-69.0528
-67.6738
-68.2936
126.919
122.224
116.837
107.869
100.65
102.546
-32.4914
-34.6837
-36.0805
-36.9683
-36.4542
-35.9291
-70.093
-70.9305
-70.5331
-68.7841
-67.2086
-67.1697
197.812
193.207
190.358
189.602
187.577
182.095
-33.7831
-35.0992
-36.9822
-38.0277
-38.9819
-36.8273
-82.8946
-81.4652
-80.9925
-80.9448
-79.2121
-76.7855
293.639
291.76
289.076
289.38
288.874
285.413
-61.1149
-41.5089
-54.6195
-66.179
-62.1852
-50.5659
-108.905
-103.147
-102.267
-105.501
-103.375
-97.3363
440.973
429.624
446.571
460.019
443.898
446.796
-5.86883
62.9395
11.2493
-25.2979
25.2398
18.9408
-81.3728
-80.7194
-82.8651
-83.9015
-82.544
-81.3087
842.368
528.446
919.384
1049.77
726.345
875.249
-68.8829
-41.8199
-34.1326
-45.9984
-36.7489
-34.3443
-69.7051
-70.2974
-74.0026
-75.5767
-72.1504
-72.7907
-43.1343
-43.4125
-43.2089
-42.3956
-42.2498
-42.1886
-53.5523
-53.4757
-53.278
-53.2709
-53.2364
-53.2228
-64.0823
-64.0893
-63.9116
-63.9984
-64.0422
-64.0368
-43.2528
-43.4322
-43.5978
-43.2444
-42.7593
-42.3907
-53.8504
-53.8851
-53.958
-53.7804
-53.6386
-53.474
-64.5516
-64.614
-64.5214
-64.5266
-64.5489
-64.4865
-44.0318
-43.4142
-43.1131
-42.976
-42.792
-42.6837
-53.945
-53.8725
-53.7928
-53.7308
-53.6265
-53.5557
-64.721
-64.7883
-64.6741
-64.6994
-64.6951
-64.6263
-45.6821
-44.3566
-43.5732
-43.2686
-43.4329
-43.5336
-54.2764
-54.1344
-53.9735
-53.8968
-53.9582
-53.9843
-64.8782
-65.0283
-64.941
-64.937
-64.9292
-64.7635
-45.4485
-44.7218
-43.1326
-41.9802
-43.0919
-42.6203
-53.1913
-53.1043
-52.9318
-52.8434
-53.0221
-52.7626
-64.6225
-64.9289
-64.9294
-64.812
-64.6426
-64.1982
-43.8445
-45.2273
-42.4777
-40.4233
-42.1688
-40.3233
-51.0654
-51.0764
-51.2863
-51.2655
-51.3975
-50.4431
-64.0385
-64.637
-64.9785
-64.8298
-64.5462
-63.8927
-38.0482
-40.7067
-37.8099
-35.2824
-38.303
-36.4297
-45.5653
-45.7953
-46.7951
-47.3954
-48.0266
-47.1103
-63.6988
-64.2268
-64.9502
-64.9382
-64.7939
-64.3311
-38.3126
-41.5751
-38.554
-36.6588
-36.4146
-33.8192
-43.0645
-43.3627
-44.6175
-45.3306
-45.9651
-45.595
-64.3032
-65.1818
-67.0745
-66.5205
-65.9141
-65.4765
-35.8971
-38.1515
-26.045
1.73863
-17.8392
-21.8056
-52.8208
-51.2882
-47.8005
-40.4399
-48.6171
-47.6564
-74.7674
-76.7221
-77.0767
-76.1258
-74.004
-70.8028
16.1656
-8.38902
2.42264
40.4684
22.1813
3.84218
-47.7281
-48.8333
-44.0256
-32.0202
-35.481
-33.5533
-82.9198
-81.3216
-80.2023
-90.4309
-82.779
-81.3296
29.7507
-19.3589
-11.7187
35.9439
26.7144
41.802
-69.5339
-70.417
-71.4793
-66.7275
-57.4399
-46.8612
-95.5398
-88.2301
-92.4265
-95.1678
-88.008
-80.5951
142.017
145.742
159.084
144.845
124.548
177.783
-37.3368
-31.8435
-21.778
-30.0188
-34.0431
-18.1519
-84.0055
-93.3062
-86.3557
-73.8729
-73.7743
-72.1804
)
;

boundaryField
{
    seabed_topleft_surface
    {
        type            calculated;
        value           nonuniform List<scalar> 
72
(
10218.1
10235.5
10237.6
10200.4
10188.3
10228.3
10971.9
10985.6
11000.1
10990.1
11001.3
11004.5
12273.4
12270.8
12276.3
12277.7
12274.2
12272.9
12884.5
12873.9
12871.9
12881.5
12880.1
12861.6
13360.5
13354.7
13352.7
13357.8
13356.2
13346.7
13832.8
13830.8
13830.6
13836.4
13836.9
13831.3
14530
14530.7
14533.3
14545
14558.5
14546.6
15488.6
15490.3
15486.9
15476.5
15457.9
15477.1
16472.9
16451.1
16461.9
16455.6
16457.9
16457.9
17383.7
17381.1
17378.7
17375.7
17372.6
17382.6
18096.2
18103.5
18093.8
18087.6
18088.6
18095.7
17592.1
17521.4
17544.7
17575.2
17527.3
17552.2
)
;
    }
    seabed_topright_surface
    {
        type            calculated;
        value           nonuniform List<scalar> 
72
(
1242.96
1260.34
1249
1146.38
1082.78
1032.24
1256.17
1277.38
1245.8
1168.9
1116.3
1031.11
1318.85
1316.68
1277.54
1250.4
1217.98
1167.15
1381.18
1351.33
1342.14
1335.33
1297.49
1295.32
1445.46
1403.39
1434.65
1388.85
1340.71
1374.71
1506.7
1456.49
1375.12
1451.46
1371.36
1432.7
1566.07
1478.14
1552.37
1582.1
1504.37
1554.51
1653.94
1577.68
1600.79
1324.9
1626.28
1704.51
1500.64
1535.52
1331.11
1007.79
1354.74
1575.42
957.442
1098.79
1076.95
874.389
970.874
1181.42
795.709
812.663
886.813
858.181
822.154
991.763
731.326
700.37
718.7
700.55
699.473
736.024
)
;
    }
    breakwater_top_surface
    {
        type            calculated;
        value           nonuniform List<scalar> 
36
(
245.552
238.426
213.779
187.487
170.389
194.379
228.799
224.124
218.737
209.681
197.728
199.322
258.409
256.574
255.735
249.919
246.269
246.094
375.375
371.951
365.407
372.423
377.071
363.199
1083.8
1096.27
1055.55
1109.35
1127.18
1050.56
1930.12
1625.06
2014.23
2137.71
1800.13
1940
)
;
    }
    breakwater_left_surface
    {
        type            calculated;
        value           nonuniform List<scalar> 
24
(
14284.9
14271.4
14269.7
14273.8
14261
14274.9
7994.43
7992.49
7987.73
7988.55
7965.07
8009.36
4783.82
4777.02
4775.91
4767.51
4776.96
4756.91
1259.9
1105.13
1141.11
1104.62
1082.33
1119.8
)
;
    }
    breakwater_right_surface
    {
        type            calculated;
        value           nonuniform List<scalar> 
24
(
679.097
660.584
633.047
594.505
596.239
618.005
517.426
517.038
483.55
476.897
473.669
482.736
384.708
386.602
360.611
355.605
361.281
379.006
268.796
260.215
243.232
243.255
255.836
278.025
)
;
    }
    water_front_surface
    {
        type            calculated;
        value           nonuniform List<scalar> 
186
(
6498.71
6911.78
7661.24
8241.84
8716.76
9187.96
9884.76
10843.2
12122.6
13533.7
14238.7
14273.5
1198.53
1375.27
1563.83
1814.47
2003.15
2240.28
2547.35
3089.13
4286.44
5443.42
6264.81
7985.72
-25.044
-27.45
-31.3231
-31.6903
-29.874
-24.4125
-3.39576
129.765
365.599
613.714
1960.9
4775.27
-24.6996
-24.7999
-24.5367
-26.1608
-26.5446
-27.4662
-26.0467
-6.75636
-3.90309
25.3209
225.682
1251.83
758.03
770.812
828.261
888.503
952.702
1014.07
1073.73
1161.87
1094.78
893.379
770.022
678.917
107.741
107.189
158.131
201.739
251.585
323.579
438.757
466.117
534.707
545.856
564.481
517.29
-23.7532
-23.0781
-19.4517
-18.3941
-14.3694
-16.0253
-8.06291
8.05659
106.419
303.951
388.853
384.656
-31.5934
-31.3506
-32.3379
-34.0394
-35.9181
-37.1664
-33.7936
-34.0388
-21.0777
60.048
151.455
268.719
-46.0151
-51.7394
-69.413
-45.4746
-55.1258
-70.1526
-44.5015
-54.566
-69.4151
-44.7599
-55.4851
-70.1995
-43.5858
-55.3077
-70.5159
-42.2429
-55.0869
-71.0262
-35.4059
-52.6853
-71.4996
-29.2576
-54.2568
-70.4476
-28.8468
-45.7351
-80.602
-5.14031
-43.2714
-78.8153
69.3137
-65.3504
-98.3304
560.715
-111.345
-89.2794
143.652
-30.9174
-70.3297
126.919
-32.4914
-70.093
197.812
-33.7831
-82.8946
293.639
-61.1149
-108.905
440.973
-5.86883
-81.3728
842.368
-68.8829
-69.7051
-43.1343
-53.5523
-64.0823
-43.2528
-53.8504
-64.5516
-44.0318
-53.945
-64.721
-45.6821
-54.2764
-64.8782
-45.4485
-53.1913
-64.6225
-43.8445
-51.0654
-64.0385
-38.0482
-45.5653
-63.6988
-38.3126
-43.0645
-64.3032
-35.8971
-52.8208
-74.7674
16.1656
-47.7281
-82.9198
29.7507
-69.5339
-95.5398
142.017
-37.3368
-84.0055
)
;
    }
    water_back_surface
    {
        type            calculated;
        value           nonuniform List<scalar> 
186
(
6504.52
6919.83
7652.06
8219.06
8702.93
9186.24
9901.14
10831.5
12116.4
13536.5
14236.4
14263.6
1212.86
1369.69
1531.6
1773.76
1976.6
2231.17
2544.21
3084.13
4287.34
5464.03
6250.9
8000.7
-25.1141
-27.245
-30.592
-31.3707
-30.0303
-24.7767
-3.47776
130.461
369.481
633.441
1906.45
4748.4
-24.8671
-24.8926
-24.5192
-26.0704
-26.5224
-27.535
-26.1831
-6.75644
-3.79926
8.76085
144.394
1111.82
574.049
580.659
696.202
804
883.5
941.884
1064.92
1216.73
1182.84
990.975
829.85
617.6
38.8967
40.5136
71.7454
124.333
177.434
198.988
242.773
353.196
411.066
470.239
482.286
482.689
-21.4022
-20.6803
-20.5443
-21.4392
-18.9738
-13.3777
-7.31896
5.04971
44.0109
101.734
319.427
378.959
-29.5434
-29.3249
-30.4443
-32.4441
-33.1935
-32.5977
-31.3659
-30.3964
-9.83255
27.6082
164.37
277.972
-46.2124
-51.8557
-69.6777
-45.4972
-55.128
-70.5585
-44.4686
-54.5741
-69.4772
-44.7291
-55.5092
-70.2532
-43.598
-55.3422
-70.5441
-42.2566
-55.0789
-71.0819
-35.4793
-52.9964
-71.7369
-28.9749
-53.2605
-71.537
-28.0458
-47.4338
-81.2615
-25.2785
-53.4183
-80.184
39.0166
-61.7155
-73.5571
590.709
-97.455
-66.8148
97.3016
-37.1654
-68.2936
102.546
-35.9291
-67.1697
182.095
-36.8273
-76.7855
285.413
-50.5659
-97.3363
446.796
18.9408
-81.3087
875.249
-34.3443
-72.7907
-42.1886
-53.2228
-64.0368
-42.3907
-53.474
-64.4865
-42.6837
-53.5557
-64.6263
-43.5336
-53.9843
-64.7635
-42.6203
-52.7626
-64.1982
-40.3233
-50.4431
-63.8927
-36.4297
-47.1103
-64.3311
-33.8192
-45.595
-65.4765
-21.8056
-47.6564
-70.8028
3.84218
-33.5533
-81.3296
41.802
-46.8612
-80.5951
177.783
-18.1519
-72.1804
)
;
    }
    water_left_surface
    {
        type            calculated;
        value           nonuniform List<scalar> 
42
(
6511.45
6520.15
6519.54
6508.31
6502.74
6517.28
1202.57
1217.08
1216.8
1203
1200.77
1216.96
-25.0278
-25.0007
-25.0488
-25.1
-25.0256
-25.0979
-24.6837
-24.767
-24.809
-24.6689
-24.5518
-24.8512
-46.0151
-46.2388
-46.4304
-46.2469
-46.1296
-46.2124
-51.7394
-51.3671
-51.4772
-51.4219
-51.7401
-51.8557
-69.413
-68.8514
-68.694
-69.1349
-70.0923
-69.6777
)
;
    }
    water_right_surface
    {
        type            calculated;
        value           nonuniform List<scalar> 
42
(
759.69
772.146
760.469
663.006
614.749
575.618
108.077
149.344
168.845
65.5238
50.279
38.9961
-23.737
-24.2471
-23.7036
-23.571
-22.427
-21.386
-31.5775
-33.4512
-34.9713
-32.481
-30.5904
-29.5275
-43.1343
-43.4125
-43.2089
-42.3956
-42.2498
-42.1886
-53.5523
-53.4757
-53.278
-53.2709
-53.2364
-53.2228
-64.0823
-64.0893
-63.9116
-63.9984
-64.0422
-64.0368
)
;
    }
    water_top_surface
    {
        type            calculated;
        value           nonuniform List<scalar> 
180
(
-76.3095
-70.8582
-70.8404
-70.1538
-76.5799
-76.5756
-75.7937
-75.4488
-75.4189
-75.6033
-75.9963
-76.0486
-74.3605
-74.3661
-74.3756
-74.3762
-74.3977
-74.4262
-75.9186
-75.9247
-75.9327
-75.938
-75.9817
-75.9805
-76.9522
-76.9778
-76.9755
-76.9761
-76.9913
-77.001
-78.6253
-78.6466
-78.6346
-78.6582
-78.6655
-78.6566
-80.1736
-80.6137
-80.5161
-80.5657
-80.4901
-80.5278
-82.4135
-86.1297
-84.1429
-82.9845
-83.8359
-85.9601
-74.2913
-88.7368
-77.8931
-75.3705
-80.2315
-87.7345
-68.7306
-68.6702
-68.7383
-68.7484
-68.6874
-68.67
-136.244
-77.1382
-73.504
-75.9227
-74.1176
-74.5362
-74.476
-69.1071
-68.785
-68.8423
-69.0042
-68.8499
-72.2584
-71.0975
-70.9239
-70.8866
-70.8866
-70.8866
-72.9086
-71.9354
-71.0975
-70.9239
-70.8866
-71.6151
-115.007
-93.483
-92.5728
-112.898
-107.894
-86.143
-280.628
-225.699
-215.701
-255.333
-251.528
-213.091
-80.5459
-73.105
-75.3462
-79.5682
-75.3554
-73.0778
-74.9912
-70.2531
-71.4309
-73.1889
-69.9002
-69.4673
-69.4539
-69.4872
-69.0604
-69.4666
-69.6373
-69.5541
-70.1628
-70.2554
-70.3109
-70.336
-70.2603
-70.1407
-70.15
-70.288
-70.3963
-70.4451
-70.3727
-70.2912
-70.0761
-70.3158
-70.5428
-70.698
-70.6908
-70.4391
-69.68
-70.1113
-70.51
-70.7799
-70.7194
-70.0648
-69.4326
-70.2028
-70.7428
-71.1718
-71.0186
-69.9757
-69.2388
-70.3732
-71.3257
-71.3613
-71.1104
-69.8136
-70.252
-72.9022
-73.2265
-74.1733
-72.941
-70.492
-77.7437
-80.917
-71.7852
-78.4719
-76.8421
-71.7709
-107.218
-68.67
-84.1915
-230.627
-104.449
-69.8767
-255.136
-68.9756
-112.372
-172.476
-148.041
-68.9721
-101.376
-177.564
-179.515
-71.2071
-70.8866
-72.4314
)
;
    }
}


// ************************************************************************* //
