/*--------------------------------*- C++ -*----------------------------------*\
| =========                 |                                                 |
| \\      /  F ield         | OpenFOAM: The Open Source CFD Toolbox           |
|  \\    /   O peration     | Version:  v1612+                                |
|   \\  /    A nd           | Web:      www.OpenFOAM.com                      |
|    \\/     M anipulation  |                                                 |
\*---------------------------------------------------------------------------*/
FoamFile
{
    version     2.0;
    format      ascii;
    class       volScalarField;
    location    "9.6";
    object      p_rgh;
}
// * * * * * * * * * * * * * * * * * * * * * * * * * * * * * * * * * * * * * //

dimensions      [1 -1 -2 0 0 0 0];

internalField   nonuniform List<scalar> 
1116
(
10218.1
10235.5
10237.6
10200.4
10188.3
10228.3
10971.9
10985.6
11000.1
10990.1
11001.3
11004.5
12273.4
12270.8
12276.3
12277.7
12274.2
12272.9
12884.5
12873.9
12871.9
12881.5
12880.1
12861.6
13360.5
13354.7
13352.7
13357.8
13356.2
13346.7
13832.8
13830.8
13830.6
13836.4
13836.9
13831.3
14530
14530.7
14533.3
14545
14558.5
14546.6
15488.6
15490.3
15486.9
15476.5
15457.9
15477.1
16472.9
16451.1
16461.9
16455.6
16457.9
16457.9
17383.7
17381.1
17378.7
17375.7
17372.6
17382.6
18096.2
18103.5
18093.8
18087.6
18088.6
18095.7
17592.1
17521.4
17544.7
17575.2
17527.3
17552.2
4805.18
4868.36
4868.88
4808.3
4794.55
4869.4
5509.22
5497.91
5501.81
5544.86
5577.64
5492.95
6253.22
6149.97
6149.66
6282.29
6332.69
6121.61
7287.66
7197.45
7175.3
7266.83
7274.79
7118.21
8012.42
7962.62
7943.15
8000.67
7987.87
7900.77
8927.88
8900.91
8892.69
8933.39
8926.1
8889.14
10102.7
10075.3
10070.5
10106.6
10114.2
10090.7
12252.7
12234.7
12227.9
12235.2
12246.1
12238.7
16365.1
16364
16356
16334.5
16327.8
16351.5
17594
17596.9
17598.5
17589
17569.4
17614.1
18090
18182
18121.7
18130.2
18206
18053.1
15762.9
15737.9
15721.7
15751.2
15696.9
15726.7
-0.493057
-0.470784
-0.520697
-0.567574
-0.490513
-0.571609
-2.90883
-2.67018
-2.59093
-2.94315
-3.11283
-2.70376
-6.7819
-6.4513
-6.30914
-6.43273
-6.60179
-6.05082
-7.14911
-7.12607
-7.03818
-6.94563
-6.92559
-6.82955
-5.33278
-5.50435
-5.51441
-5.37763
-5.40103
-5.48907
0.128705
0.00887274
-0.122459
0.00259338
-0.106821
-0.235432
21.1455
21.2619
21.1169
20.9785
20.8995
21.0634
154.307
154.534
154.365
153.938
154.102
155.002
390.093
390.819
390.566
391.052
390.133
394.165
1993.61
2035.83
2043.61
2025.79
1987.87
2091.32
11184.8
10471.9
10607.2
10301.2
10010.4
10899.8
17740.1
17715.9
17703.9
17716.7
17705.1
17651.4
9.65019
9.5674
9.52558
9.66526
9.78197
9.48362
9.55097
9.53811
9.52234
9.49954
9.60989
9.45824
9.81417
9.9664
9.92578
9.81525
9.81394
9.83171
8.19003
8.28657
8.28162
8.2343
8.27309
8.28052
7.80625
7.85065
7.83246
7.8305
7.87843
7.82842
6.88465
6.82394
6.80614
6.82764
6.81798
6.81601
8.30672
8.60688
8.56689
8.26186
8.36831
8.16805
27.5945
27.7908
27.8674
27.783
28.0328
27.5944
30.4323
29.475
29.3846
30.149
30.0829
30.4719
61.2795
50.3787
47.8928
47.5719
46.8931
44.9426
345.12
221.301
208.925
206.432
203.528
196.845
18715.2
18165.1
18272.4
18173.4
17923.1
18372.1
1242.96
1260.34
1249
1146.38
1082.78
1032.24
1256.17
1277.38
1245.8
1168.9
1116.3
1031.11
1318.85
1316.68
1277.54
1250.4
1217.98
1167.15
1381.18
1351.33
1342.14
1335.33
1297.49
1295.32
1445.46
1403.39
1434.65
1388.85
1340.71
1374.71
1506.7
1456.49
1375.12
1451.46
1371.36
1432.7
1566.07
1478.14
1552.37
1582.1
1504.37
1554.51
1653.94
1577.68
1600.79
1324.9
1626.28
1704.51
1500.64
1535.52
1331.11
1007.79
1354.74
1575.42
957.442
1098.79
1076.95
874.389
970.874
1181.42
795.709
812.663
886.813
858.181
822.154
991.763
731.326
700.37
718.7
700.55
699.473
736.024
407.422
687.926
805.863
317.697
179.24
127.539
431.918
750.504
721.021
367.402
254.537
145.719
601.333
714.42
688.215
643.312
478.469
283.195
799.841
872.284
923.437
903.55
763.093
510.385
1069.42
1087.4
1206.05
889.153
734.378
745.729
1470.29
1133.81
845.598
920.218
609.202
821.486
1861.39
1322.45
964.137
1238.67
618.965
973.953
1819.64
1883.78
1527.45
1214.42
1219.91
1424.19
1110.24
1848.12
1489.55
553.905
1379.76
1566.21
622.739
1662.18
1239.75
549.938
900.647
1364.28
641.365
703.049
645.858
583.311
511.554
564.611
639.068
560.839
525.004
523.761
515.379
524.446
0.788197
0.277989
0.821471
0.954134
2.09811
3.13921
1.46386
0.794716
1.4006
2.36134
3.25721
3.86114
55.7093
1.86319
2.60898
2.62847
2.82957
3.99653
53.7285
5.13815
5.11258
3.95827
3.17603
3.10335
10.18
63.6742
44.0224
7.49781
6.28028
5.65068
8.54286
137.449
56.7792
11.5637
10.9449
11.1643
16.4944
44.9233
112.53
16.1972
15.9347
17.2224
32.8991
45.9323
411.534
330.227
22.6343
29.5909
511.656
735.895
1158.9
337.907
566.757
472.979
1226.73
1926.86
950.849
302.832
645.972
1239.33
877.55
1046.53
530.922
415.556
453.893
867.079
463.583
446.775
419.204
433.05
521.105
451.265
2.77499
0.901194
-0.635625
2.04291
3.77965
4.81731
3.09211
1.21392
0.477954
1.88173
3.32825
5.03554
2.01352
1.78514
1.69519
1.96432
2.34534
4.72856
0.311894
0.47864
0.878483
1.25219
0.997756
2.96648
-1.567
-2.39091
0.211075
1.44563
0.322243
1.66393
-2.81221
-5.60054
0.788153
2.13367
0.699299
1.75383
0.562658
-6.79413
2.93092
4.69312
2.01655
2.98499
0.314685
-9.3467
3.46007
3.03568
0.874797
3.95448
58.7271
8.40194
194.494
387.024
242.124
24.5184
277.923
439.545
763.935
236.003
502.11
515.688
706.162
818.458
283.796
290.305
442.519
758.043
436.283
345.094
325.263
388.262
723.339
394.202
3.18688
2.44567
2.43672
2.86493
3.03345
0.755893
8.42263
4.94528
3.54564
8.81056
8.64914
5.36583
1.44582
-5.08638
-4.92902
-4.26764
1.01759
1.42826
-1.32963
-1.62574
-1.73771
-1.47808
-1.30287
-1.35215
-1.16935
-1.20597
-1.29401
-1.20407
-1.23394
-1.17179
-6.38759
-6.10199
-6.1048
-6.28823
-6.7034
-6.79346
-0.356464
-0.335633
-0.345554
-0.329409
-0.326264
-0.323617
-0.611029
-0.611526
-0.613163
-0.608917
-0.617501
-0.619127
-5.65013
-5.63417
-5.63561
-5.66047
-5.71262
-5.7122
-0.614903
-0.612022
-0.616458
-0.600493
-0.601039
-0.584119
-1.53008
-1.5344
-1.53963
-1.54315
-1.55429
-1.5542
-6.4345
-6.42609
-6.43165
-6.45212
-6.48607
-6.48823
0.559221
0.556811
0.55442
0.551521
0.553895
0.54699
-1.35267
-1.36498
-1.36433
-1.37079
-1.37481
-1.38719
-6.75091
-6.76519
-6.76238
-6.77136
-6.7795
-6.77909
1.90214
1.91415
1.90753
1.8953
1.89161
1.88859
-1.13189
-1.09737
-1.11766
-1.12988
-1.14375
-1.12388
-7.26119
-7.28763
-7.27445
-7.29661
-7.3128
-7.31694
8.7425
8.77312
8.75535
8.72179
8.74361
8.66606
1.2711
1.19375
1.21607
1.09434
1.04766
0.958658
-7.73456
-7.9433
-7.88243
-7.97154
-7.94798
-7.97194
14.8876
15.0264
14.8367
15.2212
15.0271
15.1701
-0.283948
1.0292
0.200176
0.0172099
-0.0839232
0.694526
-6.67108
-7.21524
-6.8962
-7.03891
-7.45328
-7.77198
15.2955
16.1064
14.7997
14.7013
15.2022
16.0982
8.22192
6.62701
6.59195
6.84159
6.68713
6.52115
-16.7285
-19.3411
-16.9427
-17.0578
-17.1953
-17.4965
39.1533
25.031
23.4406
21.4064
19.2455
19.0182
10.693
3.86907
3.7626
2.70274
0.671145
0.538559
-14.994
-16.3998
-16.0722
-16.4588
-16.7669
-16.419
230.129
96.9281
98.7111
94.461
88.464
89.3479
140.36
5.70155
9.27556
15.4991
5.63968
8.89996
28.1816
-10.2599
-7.01911
-3.40602
-4.76392
-4.34487
6803.34
10359.1
9953.56
8869.61
9312.09
9817.59
-57.0618
-57.3584
-42.7402
-40.6535
-39.6907
-37.4632
-20.1232
-15.303
-8.52826
-6.82626
-2.24141
-2.88277
1060.75
1053.63
1028.98
1002.68
954.884
970.997
181.593
108.147
32.3704
18.4392
17.431
86.2085
-3.23267
-5.68525
-5.3229
-3.22947
-1.85048
-2.47032
1043.84
1039.32
1033.93
1024.18
974.351
973.53
46.3485
42.5204
44.9092
31.3628
22.4748
24.8303
-2.39215
-4.13333
-4.51401
-2.92626
-1.38532
-0.669969
743.186
763.514
778.755
732.454
715.805
758.086
438.758
284.457
328.091
433.36
418.324
281.401
23.898
5.3404
4.96796
23.8886
20.9749
3.20439
1029.26
1013.48
976.054
1036.77
1082.65
985.489
1284.83
1341.29
1232.3
1306.24
1310.23
1207.63
151.678
106.431
98.0269
131.594
130.187
100.534
6226.38
6429.41
5927.37
6304.02
6593.42
5880.65
1076.3
1693.25
1253.25
1058.61
1363.97
1326.58
-17.6078
-16.9544
-19.1001
-20.1365
-18.779
-17.5437
10632.2
10398
10773
10841.2
10390.4
10458
-14.9127
834.368
299.004
19.3715
437.833
365.895
-5.94015
-6.53236
-10.2376
-11.8117
-8.38539
-9.02566
1.05366
0.791375
1.21613
1.94059
1.90457
1.99338
0.416548
0.492329
0.938446
0.684123
0.723123
0.754402
-0.317311
-0.324277
-0.146571
-0.233444
-0.277244
-0.271812
1.03989
0.741128
0.556042
0.913705
1.42764
1.85351
0.143291
0.0724744
0.00269937
0.174578
0.321214
0.525841
-0.786557
-0.848974
-0.756355
-0.761636
-0.783949
-0.721547
0.231094
0.75183
1.03307
1.16914
1.38372
1.46762
0.0168101
0.0824977
0.162471
0.224369
0.328499
0.406997
-0.956013
-1.02328
-0.908828
-0.934368
-0.930064
-0.861267
-1.53075
-0.211219
0.575882
0.87934
0.726538
0.717253
-0.321437
-0.179435
-0.0185439
0.0584372
-0.00315313
-0.0293463
-1.11318
-1.26329
-1.17602
-1.17203
-1.16424
-0.998536
-1.30342
-0.576606
1.02787
2.17096
1.07978
1.80189
0.763746
0.85637
1.0238
1.11288
0.936307
1.19287
-0.857522
-1.16392
-1.16438
-1.04702
-0.877616
-0.433153
0.372024
-0.760684
1.7957
3.72396
1.99455
3.92322
2.91322
2.90226
2.70635
2.70226
2.57338
3.51781
-0.273486
-0.871963
-1.21353
-1.06361
-0.772805
-0.127748
6.56022
4.22777
6.45341
8.86262
5.84388
7.71542
10.3513
9.59453
7.19382
6.55959
5.93067
6.84867
0.066153
-0.461787
-1.18521
-1.17313
-1.02733
-0.558603
5.86398
2.57087
5.59103
7.48622
7.73046
10.3258
10.9075
10.5933
9.33755
8.62443
7.98997
8.36013
-0.538239
-1.41681
-3.30949
-2.75552
-2.14341
-1.65223
114.297
34.8922
106.186
318.386
156.22
22.3395
1.13415
13.7933
29.8133
61.8428
20.3659
16.7753
-11.0024
-12.9571
-11.9709
-12.3608
-10.239
-7.03783
279.366
115.45
268.03
331.93
394.898
559.01
249.082
5.36177
89.8192
318.947
186.739
106.146
16.6396
-17.5566
-2.02446
123.723
14.2091
-17.5646
354.517
415.705
167.768
204.643
330.021
695.984
359.775
46.3401
90.2352
181.938
326.621
369.194
141.372
-24.1813
11.9194
64.9887
49.4591
-16.5496
927.209
607.674
321.286
691.685
874.092
785.773
486.91
521.39
379.007
307.459
322.296
370.695
10.1296
71.5751
80.3365
-7.75206
-7.95107
-4.92264
)
;

boundaryField
{
    seabed_topleft_surface
    {
        type            fixedFluxPressure;
        gradient        uniform 0;
        value           nonuniform List<scalar> 
72
(
10218.1
10235.5
10237.6
10200.4
10188.3
10228.3
10971.9
10985.6
11000.1
10990.1
11001.3
11004.5
12273.4
12270.8
12276.3
12277.7
12274.2
12272.9
12884.5
12873.9
12871.9
12881.5
12880.1
12861.6
13360.5
13354.7
13352.7
13357.8
13356.2
13346.7
13832.8
13830.8
13830.6
13836.4
13836.9
13831.3
14530
14530.7
14533.3
14545
14558.5
14546.6
15488.6
15490.3
15486.9
15476.5
15457.9
15477.1
16472.9
16451.1
16461.9
16455.6
16457.9
16457.9
17383.7
17381.1
17378.7
17375.7
17372.6
17382.6
18096.2
18103.5
18093.8
18087.6
18088.6
18095.7
17592.1
17521.4
17544.7
17575.2
17527.3
17552.2
)
;
    }
    seabed_topright_surface
    {
        type            fixedFluxPressure;
        gradient        uniform 0;
        value           nonuniform List<scalar> 
72
(
1242.96
1260.34
1249
1146.38
1082.78
1032.24
1256.17
1277.38
1245.8
1168.9
1116.3
1031.11
1318.85
1316.68
1277.54
1250.4
1217.98
1167.15
1381.18
1351.33
1342.14
1335.33
1297.49
1295.32
1445.46
1403.39
1434.65
1388.85
1340.71
1374.71
1506.7
1456.49
1375.12
1451.46
1371.36
1432.7
1566.07
1478.14
1552.37
1582.1
1504.37
1554.51
1653.94
1577.68
1600.79
1324.9
1626.28
1704.51
1500.64
1535.52
1331.11
1007.79
1354.74
1575.42
957.442
1098.79
1076.95
874.389
970.874
1181.42
795.709
812.663
886.813
858.181
822.154
991.763
731.326
700.37
718.7
700.55
699.473
736.024
)
;
    }
    breakwater_top_surface
    {
        type            fixedFluxPressure;
        gradient        uniform 0;
        value           nonuniform List<scalar> 
36
(
1060.75
1053.63
1028.98
1002.68
954.884
970.997
1043.84
1039.32
1033.93
1024.18
974.351
973.53
743.186
763.514
778.755
732.454
715.805
758.086
1029.26
1013.48
976.054
1036.77
1082.65
985.489
6226.38
6429.41
5927.37
6304.02
6593.42
5880.65
10632.2
10398
10773
10841.2
10390.4
10458
)
;
    }
    breakwater_left_surface
    {
        type            fixedFluxPressure;
        gradient        uniform 0;
        value           nonuniform List<scalar> 
24
(
17592.1
17521.4
17544.7
17575.2
17527.3
17552.2
15762.9
15737.9
15721.7
15751.2
15696.9
15726.7
17740.1
17715.9
17703.9
17716.7
17705.1
17651.4
18715.2
18165.1
18272.4
18173.4
17923.1
18372.1
)
;
    }
    breakwater_right_surface
    {
        type            fixedFluxPressure;
        gradient        uniform 0;
        value           nonuniform List<scalar> 
24
(
731.326
700.37
718.7
700.55
699.473
736.024
639.068
560.839
525.004
523.761
515.379
524.446
463.583
446.775
419.204
433.05
521.105
451.265
436.283
345.094
325.263
388.262
723.339
394.202
)
;
    }
    water_front_surface
    {
        type            fixedFluxPressure;
        gradient        uniform 0;
        value           nonuniform List<scalar> 
186
(
10218.1
10971.9
12273.4
12884.5
13360.5
13832.8
14530
15488.6
16472.9
17383.7
18096.2
17592.1
4805.18
5509.22
6253.22
7287.66
8012.42
8927.88
10102.7
12252.7
16365.1
17594
18090
15762.9
-0.493057
-2.90883
-6.7819
-7.14911
-5.33278
0.128705
21.1455
154.307
390.093
1993.61
11184.8
17740.1
9.65019
9.55097
9.81417
8.19003
7.80625
6.88465
8.30672
27.5945
30.4323
61.2795
345.12
18715.2
1242.96
1256.17
1318.85
1381.18
1445.46
1506.7
1566.07
1653.94
1500.64
957.442
795.709
731.326
407.422
431.918
601.333
799.841
1069.42
1470.29
1861.39
1819.64
1110.24
622.739
641.365
639.068
0.788197
1.46386
55.7093
53.7285
10.18
8.54286
16.4944
32.8991
511.656
1226.73
877.55
463.583
2.77499
3.09211
2.01352
0.311894
-1.567
-2.81221
0.562658
0.314685
58.7271
277.923
706.162
436.283
3.18688
8.42263
1.44582
-1.32963
-1.16935
-6.38759
-0.356464
-0.611029
-5.65013
-0.614903
-1.53008
-6.4345
0.559221
-1.35267
-6.75091
1.90214
-1.13189
-7.26119
8.7425
1.2711
-7.73456
14.8876
-0.283948
-6.67108
15.2955
8.22192
-16.7285
39.1533
10.693
-14.994
230.129
140.36
28.1816
6803.34
-57.0618
-20.1232
1060.75
181.593
-3.23267
1043.84
46.3485
-2.39215
743.186
438.758
23.898
1029.26
1284.83
151.678
6226.38
1076.3
-17.6078
10632.2
-14.9127
-5.94015
1.05366
0.416548
-0.317311
1.03989
0.143291
-0.786557
0.231094
0.0168101
-0.956013
-1.53075
-0.321437
-1.11318
-1.30342
0.763746
-0.857522
0.372024
2.91322
-0.273486
6.56022
10.3513
0.066153
5.86398
10.9075
-0.538239
114.297
1.13415
-11.0024
279.366
249.082
16.6396
354.517
359.775
141.372
927.209
486.91
10.1296
)
;
    }
    water_back_surface
    {
        type            fixedFluxPressure;
        gradient        uniform 0;
        value           nonuniform List<scalar> 
186
(
10228.3
11004.5
12272.9
12861.6
13346.7
13831.3
14546.6
15477.1
16457.9
17382.6
18095.7
17552.2
4869.4
5492.95
6121.61
7118.21
7900.77
8889.14
10090.7
12238.7
16351.5
17614.1
18053.1
15726.7
-0.571609
-2.70376
-6.05082
-6.82955
-5.48907
-0.235432
21.0634
155.002
394.165
2091.32
10899.8
17651.4
9.48362
9.45824
9.83171
8.28052
7.82842
6.81601
8.16805
27.5944
30.4719
44.9426
196.845
18372.1
1032.24
1031.11
1167.15
1295.32
1374.71
1432.7
1554.51
1704.51
1575.42
1181.42
991.763
736.024
127.539
145.719
283.195
510.385
745.729
821.486
973.953
1424.19
1566.21
1364.28
564.611
524.446
3.13921
3.86114
3.99653
3.10335
5.65068
11.1643
17.2224
29.5909
472.979
1239.33
867.079
451.265
4.81731
5.03554
4.72856
2.96648
1.66393
1.75383
2.98499
3.95448
24.5184
515.688
758.043
394.202
0.755893
5.36583
1.42826
-1.35215
-1.17179
-6.79346
-0.323617
-0.619127
-5.7122
-0.584119
-1.5542
-6.48823
0.54699
-1.38719
-6.77909
1.88859
-1.12388
-7.31694
8.66606
0.958658
-7.97194
15.1701
0.694526
-7.77198
16.0982
6.52115
-17.4965
19.0182
0.538559
-16.419
89.3479
8.89996
-4.34487
9817.59
-37.4632
-2.88277
970.997
86.2085
-2.47032
973.53
24.8303
-0.669969
758.086
281.401
3.20439
985.489
1207.63
100.534
5880.65
1326.58
-17.5437
10458
365.895
-9.02566
1.99338
0.754402
-0.271812
1.85351
0.525841
-0.721547
1.46762
0.406997
-0.861267
0.717253
-0.0293463
-0.998536
1.80189
1.19287
-0.433153
3.92322
3.51781
-0.127748
7.71542
6.84867
-0.558603
10.3258
8.36013
-1.65223
22.3395
16.7753
-7.03783
559.01
106.146
-17.5646
695.984
369.194
-16.5496
785.773
370.695
-4.92264
)
;
    }
    water_left_surface
    {
        type            fixedFluxPressure;
        gradient        uniform 0;
        value           nonuniform List<scalar> 
42
(
10218.1
10235.5
10237.6
10200.4
10188.3
10228.3
4805.18
4868.36
4868.88
4808.3
4794.55
4869.4
-0.493057
-0.470784
-0.520697
-0.567574
-0.490513
-0.571609
9.65019
9.5674
9.52558
9.66526
9.78197
9.48362
3.18688
2.44567
2.43672
2.86493
3.03345
0.755893
8.42263
4.94528
3.54564
8.81056
8.64914
5.36583
1.44582
-5.08638
-4.92902
-4.26764
1.01759
1.42826
)
;
    }
    water_right_surface
    {
        type            fixedFluxPressure;
        gradient        uniform 0;
        value           nonuniform List<scalar> 
42
(
1242.96
1260.34
1249
1146.38
1082.78
1032.24
407.422
687.926
805.863
317.697
179.24
127.539
0.788197
0.277989
0.821471
0.954134
2.09811
3.13921
2.77499
0.901194
-0.635625
2.04291
3.77965
4.81731
1.05366
0.791375
1.21613
1.94059
1.90457
1.99338
0.416548
0.492329
0.938446
0.684123
0.723123
0.754402
-0.317311
-0.324277
-0.146571
-0.233444
-0.277244
-0.271812
)
;
    }
    water_top_surface
    {
        type            totalPressure;
        rho             rho;
        psi             none;
        gamma           1;
        p0              uniform 0;
        value           nonuniform List<scalar> 
180
(
0
-2.18823
-2.17039
-1.48377
0
0
-7.12369
-6.77876
-6.74893
-6.93333
-7.32632
-7.37858
-5.69049
-5.69606
-5.70557
-5.7062
-5.72774
-5.75621
-7.24859
-7.2547
-7.26272
-7.26801
-7.31173
-7.31054
-8.28221
-8.30782
-8.30552
-8.30609
-8.32125
-8.33095
-9.9553
-9.97657
-9.96457
-9.98819
-9.9955
-9.98657
-11.5036
-11.9437
-11.8461
-11.8957
-11.8201
-11.8578
-13.7435
-17.4597
-15.4729
-14.3145
-15.1659
-17.2901
-5.62134
-20.0668
-9.22314
-6.70046
-11.5615
-19.0645
0
0
0
0
0
0
0
0
0
0
0
0
0
0
0
0
0
0
0
0
0
0
0
0
0
0
0
0
0
0
0
0
0
0
0
0
0
0
0
0
0
0
-11.8759
-4.43503
-6.67618
-10.8982
-6.6854
-4.40782
-6.32124
-1.58305
-2.76092
-4.51886
-1.23023
-0.797275
-0.783936
-0.817193
-0.390401
-0.796573
-0.967345
-0.88411
-1.49277
-1.58543
-1.64093
-1.66598
-1.59028
-1.47071
-1.48002
-1.61804
-1.72628
-1.77507
-1.70275
-1.62118
-1.40613
-1.64584
-1.87279
-2.02803
-2.02079
-1.76906
-1.00997
-1.44133
-1.84002
-2.10995
-2.0494
-1.39485
-0.762601
-1.53283
-2.07277
-2.50182
-2.34858
-1.30572
-0.568836
-1.70324
-2.65574
-2.69127
-2.44045
-1.1436
-1.58196
-4.23224
-4.55651
-5.5033
-4.27104
-1.82199
-9.07367
-12.247
-3.11516
-9.8019
-8.17209
-3.10091
0
0
0
0
0
-1.20665
0
0
0
0
0
0
0
0
0
0
0
0
)
;
    }
}


// ************************************************************************* //
