/*--------------------------------*- C++ -*----------------------------------*\
| =========                 |                                                 |
| \\      /  F ield         | OpenFOAM: The Open Source CFD Toolbox           |
|  \\    /   O peration     | Version:  v1612+                                |
|   \\  /    A nd           | Web:      www.OpenFOAM.com                      |
|    \\/     M anipulation  |                                                 |
\*---------------------------------------------------------------------------*/
FoamFile
{
    version     2.0;
    format      ascii;
    class       volVectorField;
    location    "9.6";
    object      U;
}
// * * * * * * * * * * * * * * * * * * * * * * * * * * * * * * * * * * * * * //

dimensions      [0 1 -1 0 0 0 0];

internalField   nonuniform List<vector> 
1116
(
(-0.1001 0.00133834 0.251802)
(-0.153354 -0.0194343 0.252419)
(-0.168338 0.0273007 0.243824)
(-0.0579744 0.0291582 0.250078)
(-0.00582033 -0.00630493 0.257411)
(-0.155759 -0.050729 0.235758)
(-0.485364 0.0113586 0.362902)
(-0.522253 -0.00907462 0.375168)
(-0.532305 0.00941083 0.383)
(-0.472356 -0.0167959 0.367596)
(-0.439745 0.0134249 0.371868)
(-0.537369 -0.0265855 0.375839)
(-0.597598 0.00489049 0.128786)
(-0.615473 -0.00434996 0.130991)
(-0.618268 0.00116765 0.138021)
(-0.598931 -0.0152871 0.125005)
(-0.585665 0.00591184 0.126786)
(-0.639473 -0.00892231 0.128522)
(-0.521025 0.000524029 -0.0974533)
(-0.533452 -0.00287505 -0.101662)
(-0.534166 -0.000404887 -0.0998729)
(-0.525723 -0.00682039 -0.10002)
(-0.520776 -0.000606655 -0.0991225)
(-0.560137 -0.0033111 -0.104105)
(-0.414911 0.000923156 -0.22415)
(-0.426718 -0.00231038 -0.227562)
(-0.428146 3.39694e-05 -0.227815)
(-0.418585 -0.00374845 -0.225033)
(-0.413886 -0.000801264 -0.224089)
(-0.454704 -0.00425023 -0.229139)
(-0.292685 0.00174427 -0.248825)
(-0.30506 -0.00111487 -0.249795)
(-0.306208 0.000370852 -0.250592)
(-0.293527 -0.00198172 -0.248823)
(-0.285563 0.000277913 -0.249695)
(-0.327028 -0.00478956 -0.250026)
(-0.0817881 0.00379744 -0.193138)
(-0.0924693 -0.00018896 -0.194899)
(-0.0944036 0.00123801 -0.195469)
(-0.0803272 -0.000263867 -0.192657)
(-0.0683399 8.13184e-05 -0.192762)
(-0.109387 -0.0035702 -0.193261)
(-0.0386385 0.00585364 -0.162684)
(-0.0413322 0.000655071 -0.171258)
(-0.0471235 0.00104424 -0.171237)
(-0.0295706 -0.00253455 -0.160376)
(-0.0126968 0.00206326 -0.1502)
(-0.0632141 0.000310781 -0.177308)
(0.190907 0.000134508 -0.0779133)
(0.197333 -0.000429464 -0.0820279)
(0.195231 0.00156449 -0.0823555)
(0.194918 -0.000929474 -0.0739105)
(0.191197 -0.00299377 -0.0709037)
(0.186998 -0.00292729 -0.0955911)
(0.349217 -0.00993681 0.0368174)
(0.333306 -0.0041283 0.045022)
(0.336536 0.00500494 0.0479154)
(0.349658 0.00348881 0.0305797)
(0.344528 -0.00522459 0.0164731)
(0.326438 -0.00758143 0.0523553)
(-0.324983 -0.01318 -0.437802)
(-0.387608 -0.00433105 -0.467482)
(-0.378332 0.00579677 -0.457997)
(-0.31877 0.00272798 -0.443527)
(-0.301312 -0.00148661 -0.460563)
(-0.393383 0.00335691 -0.443955)
(-0.647329 0.026649 -0.846274)
(-0.691103 0.0201068 -0.835837)
(-0.676747 -0.0140932 -0.838398)
(-0.64364 0.00949747 -0.853278)
(-0.638335 0.01822 -0.845844)
(-0.680631 0.0163103 -0.824126)
(-0.197249 -0.0138075 0.296482)
(-0.0930208 0.0118517 0.291386)
(-0.097354 -0.0852695 0.277629)
(-0.338975 -0.0651785 0.277478)
(-0.434387 -0.00983745 0.29211)
(-0.119923 0.0808325 0.261762)
(-0.138581 -0.0367776 0.141018)
(-0.0722053 0.0269018 0.10735)
(-0.0672391 -0.0154972 0.103832)
(-0.160484 0.0646552 0.170191)
(-0.170371 -0.0418607 0.226794)
(-0.0827024 0.0243987 0.0980059)
(-0.0560813 -0.0315368 -0.152898)
(0.0100353 0.0246424 -0.171727)
(-0.00973944 -0.00776154 -0.173994)
(-0.054412 0.0745301 -0.142626)
(-0.041995 -0.028021 -0.11634)
(0.000298311 0.0203765 -0.173272)
(0.255321 -0.0189236 -0.11381)
(0.29505 0.0123919 -0.120665)
(0.280026 -0.000473413 -0.117228)
(0.278103 0.0441005 -0.114365)
(0.304044 -0.0111084 -0.112344)
(0.315812 0.015238 -0.12807)
(0.824571 -0.00951999 -0.0495634)
(0.848892 0.00729205 -0.049819)
(0.844478 -0.00538344 -0.0473734)
(0.843378 0.0111175 -0.0553157)
(0.859538 -0.00122883 -0.0596308)
(0.892932 0.0185058 -0.0678559)
(1.4783 -0.00442564 -0.0799005)
(1.49584 0.00524329 -0.0782904)
(1.49875 -0.00741978 -0.0773868)
(1.48764 -0.00395029 -0.0836519)
(1.49074 7.26048e-05 -0.0851549)
(1.54732 0.0159014 -0.0988026)
(1.88375 -0.00264278 -0.0858022)
(1.89317 0.00298514 -0.0833021)
(1.89992 -0.00423067 -0.0832445)
(1.88579 -0.0058372 -0.0856856)
(1.8819 -0.000424702 -0.0859416)
(1.93527 0.0119037 -0.0982729)
(2.27176 0.000237624 -0.141673)
(2.27774 0.00313379 -0.13135)
(2.28487 -0.00132476 -0.133338)
(2.26499 -0.000522099 -0.136474)
(2.24159 0.000104921 -0.133075)
(2.31113 0.0088182 -0.138689)
(2.06054 0.00584416 -0.185616)
(2.07485 0.00300111 -0.171416)
(2.07279 -6.84413e-05 -0.176254)
(2.06038 0.00422395 -0.176231)
(2.05406 -0.00207725 -0.170997)
(2.08904 -0.000773134 -0.179697)
(1.66656 0.000723234 0.318707)
(1.69956 -0.00453621 0.317353)
(1.68783 0.00461034 0.320122)
(1.69411 0.0100424 0.309955)
(1.7077 -0.0107233 0.306255)
(1.67331 -0.0200599 0.318626)
(0.685459 -0.00903786 1.17903)
(0.731098 -0.00186208 1.152)
(0.70109 0.00998852 1.1596)
(0.745088 0.0113859 1.1615)
(0.791173 -0.0213095 1.15838)
(0.65898 -0.0329805 1.15322)
(0.0881605 0.018639 -0.0518997)
(0.0412771 0.024639 0.0350999)
(0.0437138 -0.0205372 -0.0122738)
(0.139434 0.00897855 -0.00216942)
(0.151118 0.0219436 0.103501)
(0.0102078 0.0295569 -0.012756)
(0.567469 -0.0105369 0.315474)
(0.60741 0.110755 0.288803)
(0.716397 -0.0337167 0.276319)
(0.538993 -0.0623869 0.342315)
(0.410923 0.0115343 0.315945)
(0.723863 0.16032 0.297312)
(3.29351 -0.035407 -0.0207339)
(3.42772 0.0717277 -0.017811)
(3.50934 -0.00470459 -0.0151042)
(3.3892 0.0101329 -0.0917626)
(3.36292 -0.0104079 -0.190192)
(3.49148 0.152401 -0.00333309)
(6.49377 -0.0661352 -0.539233)
(6.51433 -0.00212619 -0.576721)
(6.5886 0.00602061 -0.580753)
(6.57041 0.0485606 -0.564488)
(6.59288 -0.0305536 -0.543509)
(6.59625 0.0903893 -0.55976)
(10.0639 -0.058976 -1.40007)
(9.97788 -0.0249733 -1.42671)
(10.019 -0.00862293 -1.44584)
(10.0915 0.0318144 -1.40962)
(10.0923 -0.0352931 -1.37203)
(10.0667 0.0620225 -1.41321)
(13.1933 -0.0372237 -1.86175)
(13.0523 -0.012468 -1.86243)
(13.0686 -0.0164129 -1.8771)
(13.1865 0.0130898 -1.87319)
(13.1526 -0.0183263 -1.85939)
(13.1531 0.0588413 -1.84217)
(17.2511 -0.0174382 -1.80193)
(17.1288 0.0107363 -1.77697)
(17.1381 -0.0177605 -1.77217)
(17.2129 0.0049691 -1.81095)
(17.1619 0.00640794 -1.81164)
(17.2289 0.0628408 -1.75065)
(18.842 -0.0236201 -1.25641)
(18.6901 0.0127385 -1.24191)
(18.7307 -0.000602609 -1.22447)
(18.7871 0.00815675 -1.25342)
(18.7164 0.0202861 -1.26078)
(18.8832 0.0683525 -1.19043)
(25.7763 -0.0716294 0.663286)
(25.6478 -0.0286928 0.675315)
(25.6791 0.0287215 0.685566)
(25.6828 0.0406689 0.674263)
(25.6382 -0.0299767 0.667153)
(25.7634 0.0303376 0.722375)
(13.0389 -0.0313313 1.40063)
(12.9842 -0.0188333 1.39448)
(12.9933 0.00683247 1.40843)
(13.0201 0.0271326 1.41889)
(13.1143 -0.0448104 1.43097)
(12.8808 -0.0222753 1.40169)
(6.04899 -0.00851263 1.28308)
(5.97919 -0.0190411 1.24753)
(5.95754 -0.00612841 1.25766)
(5.96258 0.015342 1.25413)
(6.03092 -0.0205443 1.2471)
(5.88408 -0.0236106 1.26943)
(1.8892 -0.0440115 1.55131)
(1.76142 -0.0442095 1.55165)
(1.73305 -0.00152683 1.55579)
(1.77422 0.0228792 1.58278)
(1.8597 -0.0615247 1.63734)
(1.61343 -0.0630619 1.48875)
(0.388532 -0.0015393 -0.302126)
(0.339216 -0.000937525 -0.161812)
(0.337686 -0.010926 -0.211324)
(0.419008 -0.0278594 -0.248214)
(0.446439 0.0261746 -0.152525)
(0.2505 0.0574229 -0.218799)
(-1.5525 -0.00542615 -2.20883)
(-1.75285 0.163281 -2.20134)
(-1.58921 -0.053849 -2.08636)
(-1.61795 -0.0454111 -2.17076)
(-1.64637 0.00564594 -2.40777)
(-1.58473 0.13822 -2.07552)
(-0.0966106 0.0560907 -4.22448)
(-0.0920023 0.000480945 -4.24992)
(-0.207796 0.0015029 -4.12462)
(-0.105604 -0.00422556 -4.22468)
(-0.0783268 0.00552433 -4.47628)
(-0.410621 -0.0577269 -3.98646)
(-0.940084 0.0210613 -4.60359)
(-0.967912 0.00980892 -4.71756)
(-0.962414 0.0247315 -4.6519)
(-0.96219 -0.00593876 -4.66122)
(-0.980747 0.0614579 -4.69412)
(-0.954054 0.0169617 -4.59549)
(-0.995198 0.0185499 -4.89436)
(-1.0142 -0.00443794 -4.93803)
(-1.0334 -0.00357854 -4.90403)
(-1.00904 -0.0253374 -4.91754)
(-1.00384 0.00832807 -4.97498)
(-1.02955 -0.021934 -4.83207)
(-1.8308 0.00973668 -5.13132)
(-1.84069 -0.00144428 -5.15567)
(-1.84234 -0.00250881 -5.14353)
(-1.83951 -0.0303989 -5.15207)
(-1.83799 0.0107572 -5.19557)
(-1.84849 -0.0147457 -5.09606)
(-1.93419 0.0139658 -5.11561)
(-1.9622 0.00488622 -5.10469)
(-1.94927 0.00247149 -5.07836)
(-1.9794 -0.0186322 -5.14969)
(-2.00699 0.0159813 -5.16089)
(-1.94481 -0.0165347 -5.05979)
(-1.73754 -0.068109 -5.2695)
(-1.6195 -0.0649676 -5.31578)
(-1.59519 0.0602228 -5.258)
(-1.76557 0.017494 -5.27765)
(-1.69764 0.0145456 -5.27077)
(-1.6868 0.0354953 -5.22794)
(4.79244 -0.226206 2.03921)
(3.97836 -0.111393 1.51009)
(4.11952 0.0511672 1.5777)
(4.59941 0.0205555 1.88853)
(4.18344 -0.0821772 1.68096)
(4.6761 0.0140294 1.90311)
(13.3551 -0.103471 12.7792)
(12.9423 -0.043424 12.6791)
(13.0487 -0.0243259 12.755)
(13.3316 0.00315326 12.8158)
(13.2685 -0.0842834 12.8323)
(13.265 -0.0246899 12.7947)
(10.2362 0.119249 9.55422)
(10.9426 0.141927 9.55012)
(10.946 0.00647711 9.46332)
(10.9836 0.0123526 9.44567)
(10.9893 0.00333978 9.48268)
(11.0776 0.0202736 9.44731)
(3.55117 0.271621 5.67289)
(4.38353 0.214925 5.27688)
(4.28315 0.040273 5.17179)
(4.33623 0.0304811 5.27967)
(4.35607 -0.0253366 5.34452)
(4.21228 -0.0361352 5.03644)
(2.21613 0.0346616 1.32706)
(2.34977 0.0497505 1.23069)
(2.24378 -0.00761005 1.18871)
(2.26977 0.0217732 1.19673)
(2.32409 -0.015666 1.24806)
(2.16781 0.0368134 1.1756)
(-0.224386 -0.0565639 -0.488262)
(-0.308211 0.114962 -0.356188)
(-0.268906 0.00557134 -0.659201)
(-0.290363 0.0796071 0.127066)
(-0.171919 -0.300384 -0.13381)
(-0.126583 0.0363554 -0.612664)
(-0.767913 -0.105617 -0.705485)
(-0.8368 0.261354 -0.242301)
(-0.841902 -0.0751895 -0.741494)
(-0.859142 0.432153 0.143625)
(-0.634309 -0.167712 0.143112)
(-0.586819 0.208886 -0.721205)
(-1.19703 -0.00216572 -0.604475)
(-1.23704 0.240879 -0.106535)
(-0.984285 -0.125983 -0.608208)
(-0.611387 0.628906 -0.254506)
(-0.886807 -0.0172356 0.16285)
(-0.869622 0.12393 -0.563267)
(-1.3344 0.129562 -0.617733)
(-1.88472 0.347359 -0.219208)
(-1.20424 0.110275 -0.0882635)
(-0.597509 0.50471 -0.0110293)
(-1.33413 -0.150961 -0.0653263)
(-0.950211 -0.00296461 -0.705148)
(-1.25264 0.167764 -0.882538)
(-2.10328 0.612148 -0.54742)
(-0.675765 0.370204 0.400855)
(-0.719528 0.0766413 0.450924)
(-1.86677 -0.371433 -0.272328)
(-1.08704 -0.146279 -1.04873)
(-1.35205 0.188767 -1.10318)
(-1.77019 0.759574 -0.592191)
(-0.136977 0.192228 0.821569)
(-0.947116 -0.43514 0.368303)
(-2.07596 -0.469002 -0.301195)
(-1.31843 -0.245529 -1.1491)
(-1.75016 0.334614 -1.34683)
(-1.58202 0.616249 -0.904204)
(0.219324 0.762539 -0.661762)
(-1.18768 0.0804433 0.240238)
(-2.65606 -0.606776 -0.207305)
(-1.81418 -0.167433 -1.06755)
(-2.22167 0.318497 -1.28173)
(-1.81081 0.572742 -1.04966)
(-0.0296431 0.950313 -1.18532)
(-3.50405 -0.566521 0.780242)
(-3.80578 -1.26347 -0.583461)
(-2.23183 -0.242091 -1.19343)
(-2.94703 -0.506215 -0.23678)
(-2.3963 0.191238 -1.51132)
(-1.30169 0.85827 -1.17068)
(-5.32496 -0.791763 2.15353)
(-4.64599 -2.20522 -0.3344)
(-2.2009 -0.25859 -1.11165)
(-4.12496 -1.33256 0.772699)
(-2.00502 -1.15829 -1.57279)
(-1.44183 -0.633925 -0.817973)
(-5.74888 -0.288229 3.00956)
(-3.99334 -2.26239 0.767234)
(-0.694354 0.120363 -0.663236)
(-3.84068 -0.256931 1.54499)
(-3.38757 -1.5971 -0.164479)
(0.646608 -1.58801 -1.88623)
(0.793964 -0.744827 -1.97447)
(0.38959 -0.505107 -1.53151)
(0.0311984 0.396328 -0.821491)
(-0.971067 0.600331 0.493551)
(-2.724 0.662551 2.33873)
(0.143035 -0.477245 -0.753998)
(0.738092 -0.495893 -1.71363)
(0.867535 -0.289039 -1.50952)
(-0.279101 0.244025 -0.480438)
(0.114578 -0.659963 -0.764733)
(0.159942 0.119368 -0.843772)
(0.261448 -0.416158 -0.458734)
(-0.0289203 0.316365 -0.603391)
(0.0198506 0.146324 -0.863446)
(-0.0121302 0.197906 -0.867453)
(-0.472542 -0.839479 -0.602294)
(-0.58297 -0.27658 -0.682813)
(-0.48854 -0.748788 -0.247965)
(-0.347733 0.259488 -0.0729116)
(-0.352819 0.47818 -0.420513)
(-0.446068 0.958836 0.119037)
(-0.830407 -0.623429 -0.466338)
(-0.745379 -0.181569 -0.821437)
(-0.157735 -0.605301 -0.328244)
(-0.523072 -0.0644002 0.201115)
(-0.858027 0.430646 0.0646189)
(-0.790898 1.3357 0.285182)
(-1.13096 -0.600111 -0.47095)
(-1.1541 -0.374298 -0.331759)
(-0.896145 -0.351853 0.173107)
(-0.68217 0.468856 0.27753)
(-1.15361 0.366904 0.19583)
(-1.22451 1.12191 -0.0767988)
(-1.51379 -0.55447 -0.894053)
(-1.6421 -0.0456258 0.55963)
(-1.20015 -0.139628 1.4852)
(-1.13856 0.664608 0.663809)
(-1.38616 0.353795 0.232583)
(-1.14704 0.760732 -0.651845)
(-1.94773 -0.568625 -1.2697)
(-1.8745 0.295382 1.11806)
(-1.48505 -0.378782 2.38259)
(-1.63967 0.364946 0.186404)
(-1.58042 0.437403 -0.171303)
(-1.07519 0.717712 -1.19581)
(-2.70985 -0.600686 -1.4822)
(-2.1345 -0.0782658 0.719228)
(-1.99813 -0.689587 1.27439)
(-2.54012 -0.154656 -0.580339)
(-2.01716 0.639223 -1.10676)
(-1.51369 0.719071 -1.80478)
(-3.16388 -0.590293 -1.78653)
(-3.19827 -0.517489 -0.397907)
(-3.13223 -0.897815 1.05957)
(-4.02985 -0.676807 0.165907)
(-3.20237 0.199183 -2.48831)
(-2.64802 0.496423 -2.66397)
(-2.63501 0.268454 -0.393176)
(-4.51779 -0.125675 -1.66241)
(-4.04161 -0.112748 0.521373)
(-5.88216 -0.834328 3.83728)
(-4.76086 -0.694448 -1.49691)
(-3.87611 0.261516 -2.8317)
(-3.53576 0.297081 3.22573)
(-5.13917 0.612194 -1.21238)
(-4.02753 0.935283 -0.283784)
(-6.17088 -0.316493 6.22347)
(-5.18849 -1.20086 1.1417)
(-4.619 0.379003 -1.91932)
(-4.66516 0.632996 4.80575)
(-5.54266 1.07516 1.93965)
(-3.24971 1.37235 2.27948)
(-3.87199 -0.0421726 4.26035)
(-2.47306 -0.815665 4.14096)
(-5.24474 0.418435 0.577469)
(-2.11279 0.337172 1.27658)
(-3.52976 1.77154 5.28594)
(-1.31833 1.01548 3.18602)
(-0.862079 -0.596786 1.57495)
(-0.0449822 -1.10937 -0.0338753)
(-3.83623 -0.364582 1.26081)
(0.417962 0.00991766 0.329647)
(0.288231 0.737578 -1.09255)
(0.455543 0.127572 -1.25245)
(0.657584 -1.00406 -1.04279)
(0.509274 -0.498458 -0.906229)
(0.232071 -0.365865 -0.522727)
(-0.259702 -0.127011 1.10295)
(-0.853802 0.194295 -1.58659)
(-0.589105 -0.577451 -2.03023)
(-0.232294 -0.347198 -2.10041)
(-0.16291 -0.570759 -2.401)
(-0.277484 -0.102114 1.62997)
(-1.2507 -0.600351 0.403073)
(-2.1059 0.808722 -0.672729)
(-0.932499 -0.140697 -0.710786)
(-0.948308 0.363213 -2.57358)
(-1.03983 -0.260641 -3.36723)
(-1.56889 0.292713 2.24327)
(-2.30257 -0.682291 0.502563)
(-1.92046 0.533137 -1.08952)
(-1.43048 -0.149331 -2.53928)
(-2.05089 0.801492 -1.93291)
(-2.3016 0.109002 -2.09359)
(-3.11461 0.559823 1.94678)
(-2.90417 -1.12252 -0.368402)
(-0.934447 -0.997266 -1.6109)
(-1.01571 -0.173118 -1.47093)
(-2.6569 1.09518 -1.34154)
(-3.38379 0.764684 -0.419613)
(-3.05988 0.920252 0.982469)
(-2.91429 -1.8725 -1.26467)
(-1.41963 -1.47416 -1.16223)
(-1.31598 -0.377254 0.21093)
(-2.59675 1.27345 -2.44608)
(-3.65333 1.2284 -0.576322)
(-2.58981 1.4174 0.610475)
(-4.05472 -1.49555 -1.18167)
(-2.87188 -1.27979 -2.1297)
(-0.995018 -0.575446 -1.40315)
(-0.825949 1.23397 -5.34553)
(-3.3627 1.54914 -2.73702)
(-2.56124 1.70976 -0.0301567)
(0.517346 -1.9515 1.39676)
(-2.5591 -1.69894 -3.20456)
(-2.86897 -0.767277 -2.19508)
(-2.75816 0.887196 -3.77541)
(-3.06458 1.90064 -4.57251)
(-2.32835 1.1793 -1.84359)
(-2.25618 -1.94868 -0.664499)
(-4.07653 -1.93336 -2.2761)
(-4.63138 -0.877268 0.640707)
(-4.25052 0.0151892 2.3895)
(-3.865 0.612118 -1.67275)
(-3.37308 0.763873 -3.74194)
(-3.40936 0.277172 -1.27466)
(-4.90134 -0.748187 -1.85691)
(-4.29639 -0.452887 2.47221)
(-3.47885 -1.1672 8.3611)
(-3.68165 -0.128185 2.73715)
(-4.27068 0.744204 -2.83187)
(-3.84649 0.863902 0.10693)
(-5.15669 0.947176 0.0365129)
(-3.25135 0.767742 4.47049)
(1.55812 -1.57695 7.39258)
(2.40469 -0.843635 3.75379)
(-4.60999 0.641223 -0.883123)
(-3.64392 0.550136 3.03349)
(-4.57404 2.17839 6.37526)
(-2.75296 2.08253 8.32417)
(0.157554 0.5524 3.99622)
(1.39166 -0.975567 0.288846)
(-3.28595 -0.707328 3.77769)
(0.278595 0.154845 -1.57836)
(0.0415585 -0.0191311 -1.7905)
(0.846573 0.321197 1.66543)
(1.00137 0.126551 1.70073)
(0.167976 0.37497 -0.902574)
(0.0765264 -0.00907093 -1.67662)
(-0.351815 0.0765384 -1.66779)
(-0.0996851 0.24176 -2.67657)
(-0.186012 0.283518 -1.44121)
(-0.39942 0.0124298 -1.72447)
(-0.376741 -0.41315 -2.30168)
(-0.0877229 -0.401033 -2.03285)
(-1.13614 -0.304243 -2.66937)
(-0.527262 -0.343934 -2.13368)
(-0.84487 -0.096673 -1.12032)
(-0.507975 0.133762 -1.97453)
(-0.334231 -0.222975 -2.36404)
(-0.524911 -0.353423 -1.93486)
(-2.76841 -0.381964 -1.38378)
(-1.89092 -0.392772 -0.960857)
(-1.19463 -0.43559 -1.89122)
(-0.739154 -0.0868489 -2.09288)
(-1.10861 -0.23947 -1.87463)
(-2.52577 -0.183284 0.364298)
(-3.84568 -0.212539 1.35325)
(-3.4143 -0.390262 -1.60669)
(-1.50093 -0.787818 -3.23469)
(-1.49711 0.0515866 -2.05275)
(-2.41057 -0.374166 -0.932767)
(-2.91621 0.418161 2.63698)
(-3.4654 -0.44908 2.83214)
(-4.57588 -0.0900257 -3.30101)
(-2.11443 -0.949371 -4.21975)
(-2.11901 0.366109 -2.7689)
(-3.52694 -0.210209 -0.95348)
(-2.66499 1.16051 3.08484)
(-2.28892 -0.511056 4.29458)
(-5.20627 0.724142 -2.15091)
(-2.74176 0.0316422 -5.78562)
(-1.68109 0.55737 -5.1975)
(-3.70218 -0.158902 -1.90555)
(-3.5341 1.3074 2.76765)
(1.24618 -0.778144 6.50526)
(-2.08138 0.941548 -2.65867)
(-0.981021 -0.24656 -8.28724)
(-0.148696 0.116073 -8.4024)
(-2.38004 -0.0860003 -3.07847)
(-3.36986 0.720383 0.708933)
(1.13887 -0.806343 2.48152)
(-2.32368 -1.19481 -5.03932)
(-3.77188 -1.47069 -2.75228)
(-3.40734 -0.0779625 2.55134)
(-3.06583 1.20762 -0.801637)
(-1.88893 1.33958 -2.24222)
(-1.77288 -0.609368 1.36755)
(-4.55453 -2.29105 0.784611)
(-3.50604 -1.80183 5.09894)
(0.494481 -1.03354 9.24872)
(-1.66241 0.568452 4.93578)
(-3.12201 1.4101 -0.660087)
(-3.42206 0.192058 0.862597)
(-4.61168 0.0389658 2.98619)
(-1.68979 -0.562015 9.19814)
(4.41993 -0.212454 6.43094)
(4.77636 -0.799893 2.48374)
(-3.99909 0.712673 1.99952)
(-1.28164 0.620698 2.25711)
(-2.94639 2.1019 6.70554)
(-0.877844 2.98761 10.915)
(1.08254 2.30425 4.01009)
(2.58364 0.0676103 -0.390026)
(0.300055 -1.33814 3.79282)
(-1.04863 -0.0933805 0.072851)
(-1.17862 0.158327 0.763697)
(-1.15176 -0.0474358 1.2151)
(-1.13615 0.0538266 0.426825)
(-1.16225 0.0836307 -0.080612)
(-1.23653 0.137492 1.33537)
(-0.382093 -0.482194 -1.02033)
(0.0163456 -0.359333 -1.14945)
(0.148173 0.122922 -0.948056)
(-0.145596 0.68906 -1.09813)
(-0.486926 0.434485 -1.05013)
(-0.374419 0.00411209 -0.384377)
(-0.45696 -0.559452 1.29222)
(0.118078 -0.227077 -2.09228)
(0.172517 0.090073 -2.08373)
(-0.00153528 0.538027 -1.72292)
(-0.537836 0.592836 0.991996)
(-0.575428 0.0377967 1.54528)
(0.612245 0.0264363 -2.78292)
(0.695395 0.0233823 -2.7279)
(0.684252 -0.00806913 -2.64442)
(0.628049 0.0382107 -2.76696)
(0.572394 -0.0159861 -2.91361)
(0.579964 -0.0566126 -2.64403)
(0.388375 -0.0485443 -4.0773)
(0.462357 -0.0760722 -3.98799)
(0.472237 0.0604929 -3.94053)
(0.447168 0.150937 -4.02688)
(0.36437 0.0555062 -4.11098)
(0.384071 -0.0264791 -4.03549)
(-0.0136393 -0.0475784 -3.77478)
(0.0236053 -0.056398 -3.68225)
(0.0338423 0.0379935 -3.67414)
(0.00971834 0.104257 -3.72399)
(-0.039523 0.0721467 -3.82807)
(-0.0273634 0.0121829 -3.8417)
(0.420945 0.0150988 -2.31328)
(0.450191 0.00483697 -2.38036)
(0.442306 0.00684223 -2.38039)
(0.422625 0.0286658 -2.34949)
(0.389896 -0.00117148 -2.34086)
(0.401072 -0.0128817 -2.38159)
(-0.0551647 0.0037567 -3.67008)
(-0.0311554 0.00296666 -3.68491)
(-0.021119 0.00455968 -3.68236)
(-0.0510547 0.0100856 -3.68043)
(-0.0912655 0.0149031 -3.6735)
(-0.0641071 0.00589959 -3.67024)
(0.000585965 -0.00140722 -3.37372)
(0.0260596 -0.00129184 -3.37535)
(0.0274618 0.00268581 -3.37817)
(0.00851027 0.00942615 -3.37836)
(-0.0217058 0.00635193 -3.38474)
(-0.0321249 -0.000308347 -3.39315)
(1.04277 0.00204138 -2.75142)
(1.0482 0.00486558 -2.77749)
(1.04784 0.00498211 -2.78139)
(1.04416 0.0264852 -2.75415)
(1.04484 -0.00627926 -2.76265)
(1.0229 -0.0149906 -2.77536)
(0.320856 0.000917181 -4.12297)
(0.319537 0.000634016 -4.12318)
(0.319842 0.00389278 -4.12061)
(0.318947 0.00944445 -4.12348)
(0.31393 0.00872502 -4.13345)
(0.324915 0.000972229 -4.10132)
(0.100357 -0.00169064 -3.80762)
(0.102067 -0.00126232 -3.80922)
(0.101473 0.00331282 -3.81134)
(0.100597 0.00766913 -3.81274)
(0.0978906 0.00294194 -3.8242)
(0.0957644 -0.00176214 -3.8239)
(1.32278 0.00236462 -3.27238)
(1.32318 0.00760408 -3.29025)
(1.32042 0.00134103 -3.29248)
(1.32751 0.0169542 -3.26919)
(1.3342 -0.0053516 -3.27429)
(1.29699 -0.0062152 -3.29406)
(0.279741 0.00494423 -4.32038)
(0.279488 0.0030131 -4.32903)
(0.279162 -0.000365206 -4.32481)
(0.278661 0.00127665 -4.32581)
(0.274385 0.0055242 -4.33032)
(0.288549 0.00294034 -4.31195)
(0.0871765 0.00158607 -4.06991)
(0.0900151 0.000777364 -4.07621)
(0.0882217 9.83862e-05 -4.07566)
(0.0883045 0.00206782 -4.0758)
(0.0878028 0.000204634 -4.07951)
(0.0870345 -0.000869668 -4.08187)
(1.28355 -0.000409684 -3.82829)
(1.29795 0.00324225 -3.81809)
(1.2835 0.0057362 -3.82055)
(1.30719 0.0141346 -3.8161)
(1.29961 -0.00527903 -3.82965)
(1.29326 -0.0067603 -3.80559)
(0.309873 0.00225755 -4.68969)
(0.339404 -0.000639111 -4.67986)
(0.319879 0.00295993 -4.68191)
(0.334451 0.008423 -4.68404)
(0.328472 0.00188688 -4.69229)
(0.362877 -0.00337968 -4.66118)
(0.0916554 0.00443281 -4.46168)
(0.109342 0.00128972 -4.46642)
(0.0980719 -0.000330674 -4.46373)
(0.102612 0.00571036 -4.46901)
(0.103485 0.00434166 -4.47064)
(0.115297 0.00199793 -4.46863)
(2.31626 0.0395723 -4.7237)
(2.30607 0.0162488 -4.76448)
(2.32886 -0.00310849 -4.74906)
(2.30082 0.0049872 -4.76432)
(2.3363 0.0379237 -4.73421)
(2.29231 0.0530261 -4.72206)
(0.639523 0.0666835 -4.84675)
(0.619662 0.0153275 -4.93318)
(0.621983 -0.0141712 -4.92812)
(0.645322 0.0259791 -4.92388)
(0.660015 0.0588417 -4.89471)
(0.630468 0.0600059 -4.87977)
(-0.0396602 0.0391693 -4.79554)
(0.013037 0.013226 -4.88637)
(-0.0289218 -0.0128463 -4.86633)
(-0.0209062 0.014983 -4.87653)
(-0.00129125 0.0278818 -4.86101)
(0.0416289 0.022153 -4.86882)
(-0.331042 -0.232514 -6.71945)
(-0.0720835 0.00021332 -7.40514)
(-0.0477794 0.0425602 -7.1835)
(-0.135321 -0.027134 -6.90014)
(-0.26044 -0.227354 -7.23834)
(0.0766431 -0.099527 -7.02879)
(-0.197108 -0.183035 -5.13791)
(0.309373 -0.0478245 -5.82746)
(0.0385318 0.0791568 -5.46483)
(-0.0165312 0.0412384 -5.23293)
(-0.00797506 -0.167874 -5.46507)
(0.459183 -0.0457189 -5.68195)
(-0.0116199 0.0744381 -5.2413)
(0.326017 0.0233921 -5.90779)
(0.0578001 -0.0637091 -5.56142)
(0.0333471 0.043063 -5.34918)
(0.0807903 0.0883934 -5.50608)
(0.329999 0.0801109 -5.87924)
(7.48292 -0.288158 6.57028)
(6.82051 -0.0504505 4.95472)
(7.15683 0.0598174 5.12839)
(7.49839 -0.00639285 5.52576)
(7.50783 -0.285 5.35356)
(7.17118 -0.159201 5.11316)
(1.10169 -0.262207 1.02559)
(-0.812889 0.260709 -2.47194)
(-0.0699899 0.246404 -1.18189)
(0.683522 -0.0889673 -0.754985)
(0.286337 -0.569971 -1.35267)
(-0.294862 -0.22414 -2.75254)
(-1.36556 -0.0323148 -3.35142)
(-0.531952 0.0836442 -6.3337)
(-1.16104 -0.039764 -4.29349)
(-1.31527 -0.0526233 -3.65934)
(-1.05217 -0.240444 -4.80735)
(-0.3181 0.0216555 -6.17361)
(10.4081 0.496224 12.4615)
(11.4705 0.697998 12.3291)
(11.2294 0.172063 11.844)
(11.4836 0.167958 12.0308)
(11.5583 -0.00435214 12.0378)
(11.5785 -0.0140172 11.8942)
(9.30346 0.811636 12.1049)
(10.1466 1.26615 11.6393)
(9.27466 0.439807 10.3863)
(9.58015 0.321495 10.1702)
(9.44708 -0.0555757 10.0218)
(9.28628 -0.0718486 9.6379)
(6.46437 0.787686 8.76757)
(6.39638 1.28968 6.778)
(5.21103 0.533597 5.95591)
(5.39861 0.385948 5.95477)
(5.10886 -0.173554 5.16336)
(4.72076 -0.185863 4.02394)
(-2.37193 0.843667 8.09185)
(3.84155 0.872654 11.5071)
(3.11071 0.204523 10.9643)
(3.61562 0.230174 11.0062)
(4.41351 0.0658655 11.0638)
(3.45983 -0.0366858 10.7805)
(-2.34573 0.94881 10.894)
(6.54968 1.20406 17.299)
(7.08296 0.327792 16.3819)
(7.2506 0.493738 16.1615)
(8.19578 0.243411 16.022)
(7.2753 0.00530055 15.8973)
(-1.80404 0.20922 13.6715)
(7.15959 0.492146 18.2002)
(7.21203 0.0180334 17.2987)
(6.84659 0.470397 17.2954)
(7.65876 0.220088 16.6677)
(6.77811 -0.0341594 16.4905)
(1.60763 0.351186 2.97446)
(3.71962 0.309751 4.5615)
(3.26763 -0.181849 4.12551)
(3.06515 0.116848 4.15361)
(3.50736 0.0623775 4.29566)
(3.27874 0.0421451 4.01702)
(-0.376367 -0.45902 -7.92187)
(4.03028 0.357731 2.73946)
(2.87132 -1.56085 -0.00819879)
(2.60682 0.086292 -0.25227)
(4.42835 0.279455 2.0234)
(3.29313 -0.129873 0.379505)
(1.27232 -2.9544 0.740694)
(4.29579 -1.20117 8.05516)
(3.08552 -1.57472 5.94414)
(2.60891 -0.719687 5.54736)
(4.28228 -0.207912 7.65706)
(3.26986 0.0834582 6.77867)
(0.895521 0.111279 -0.175544)
(1.1001 0.307945 -0.414102)
(1.11544 0.33523 -0.566546)
(1.33235 0.192105 -0.511974)
(1.4569 -0.0711981 -0.409702)
(1.28608 -0.127814 -0.4154)
(0.512823 0.302079 1.79362)
(1.22862 0.887936 1.72173)
(1.63442 1.09423 1.45386)
(2.29589 0.417876 0.496645)
(0.993852 -0.253788 0.304346)
(0.144766 -0.403086 1.72013)
(0.749548 0.346938 2.40005)
(1.56031 0.983809 2.67128)
(1.92184 1.02621 2.48088)
(1.10705 0.732114 3.19004)
(-0.11346 0.0920695 3.64474)
(-0.477338 -0.367811 3.17661)
(0.854177 0.0482992 -0.0910815)
(0.926047 0.106891 -0.0983757)
(1.08965 0.13616 -0.0973687)
(1.23781 0.122333 -0.106888)
(1.32945 0.00207595 -0.0983245)
(1.20782 -0.0450315 -0.134214)
(1.80252 0.209172 1.9507)
(2.37633 0.416239 1.88949)
(2.56541 0.358874 1.75023)
(2.76851 -0.0422551 1.82212)
(2.8415 -0.349623 1.83567)
(2.27724 -0.171096 1.49416)
(0.719546 0.0901571 3.43136)
(1.14626 0.111736 3.22436)
(1.28031 -0.239485 3.04275)
(0.991183 -0.514867 3.22391)
(0.609326 -0.379914 3.45335)
(0.284339 -0.0869882 3.1298)
(2.29627 0.0293352 0.448287)
(2.32053 0.0839289 0.461752)
(2.29694 0.0944807 0.43366)
(2.36715 0.0753396 0.443751)
(2.39998 0.0515564 0.447162)
(2.30835 0.0145108 0.410915)
(3.53927 0.00714085 3.04978)
(3.62666 0.151275 2.8894)
(3.50191 0.198803 2.81924)
(3.67472 0.0470748 2.70606)
(3.76416 -0.0462374 2.49057)
(3.49025 -0.0278258 2.77954)
(1.38361 -0.0649505 5.02574)
(1.06781 -0.0194148 4.2814)
(1.03202 -0.0226288 4.12076)
(1.44422 -0.196536 4.65032)
(1.3706 -0.305195 4.51926)
(0.754722 -0.162779 4.07155)
(3.84801 0.0415954 0.639699)
(3.74718 0.11855 0.66018)
(3.7262 0.0888816 0.670552)
(3.6967 0.0810314 0.600676)
(3.56337 0.0435966 0.592872)
(3.73274 0.0134044 0.626952)
(4.31212 -0.172046 2.21345)
(4.24621 -0.0390046 1.50491)
(4.01278 0.159635 1.71208)
(4.18087 -0.0109922 1.63264)
(4.24383 -0.0616598 1.28379)
(3.96342 0.110367 1.70459)
(3.44805 -0.240222 4.28442)
(3.38555 -0.193051 3.48726)
(3.14792 0.126193 3.4899)
(3.40738 -0.0525043 3.66652)
(3.52635 -0.227638 3.3896)
(3.00541 -0.0553122 3.58528)
(4.56635 0.0461573 0.467103)
(3.81061 0.0827971 0.424532)
(3.88513 -0.190074 0.339828)
(3.97495 0.0674092 0.430484)
(3.64906 0.0288065 0.507482)
(3.82937 0.0421426 0.287857)
(3.75609 -0.52257 -0.301924)
(4.30442 -0.199097 0.0977781)
(3.649 0.0100843 -0.279352)
(3.67028 -0.151287 -0.704973)
(4.0268 -0.147258 -0.529469)
(3.63959 0.210566 -0.235872)
(2.32578 -0.294308 -4.87424)
(3.07401 -0.474545 -2.97883)
(2.65973 0.0291126 -3.65443)
(2.46233 -0.25943 -4.66891)
(2.91543 -0.368426 -3.65686)
(2.82607 -0.0401082 -2.96928)
(4.01196 0.212108 1.18747)
(3.89063 0.141719 1.66694)
(3.71346 -0.395244 1.42326)
(3.59921 0.0898123 1.51267)
(3.59605 0.109958 1.69207)
(3.6643 0.0612251 1.35929)
(0.218997 -1.16125 -4.85301)
(4.44989 -0.13799 0.201174)
(2.22273 -0.719187 -2.46111)
(0.679017 -0.392926 -4.40999)
(3.31534 -0.0677564 -1.457)
(2.54909 0.134693 -2.08142)
(-0.0260281 -0.466231 -3.55629)
(2.06739 -0.90889 -1.78101)
(1.53607 -0.344432 -2.35096)
(1.17366 -0.521838 -3.00698)
(2.09985 -0.404013 -1.57005)
(2.13255 0.170384 -1.26407)
(-0.0320462 0.122976 -0.842844)
(-0.203359 -0.480304 -1.32136)
(0.181071 -0.283226 0.123377)
(-0.249825 0.246705 -0.79771)
(-0.424135 0.348969 -1.54661)
(-0.237032 0.0489972 -0.727096)
(-0.203754 0.127933 -1.02444)
(-0.208929 -0.145369 -1.34)
(0.0136646 -0.104774 -0.191663)
(-0.244604 0.134692 -0.703873)
(-0.234621 -0.0308908 -1.34953)
(-0.192635 -0.114588 -1.22681)
(-0.131224 0.0403016 -1.25309)
(-0.104365 -0.0707391 -1.27937)
(-0.126804 -0.0666471 -0.88457)
(-0.116473 0.134665 -1.26312)
(-0.0960877 0.0730015 -1.39183)
(-0.0983284 0.0170992 -1.33063)
(-0.284191 0.111066 -1.74772)
(-0.274856 -0.0290902 -2.12103)
(-0.406304 -0.114232 -2.18248)
(-0.524495 -0.0721335 -2.24224)
(-0.495412 -0.0741174 -2.26487)
(-0.366875 -0.0865462 -1.47422)
(-0.229123 0.0636656 -1.69086)
(-0.281886 0.0842609 -1.85966)
(-0.317303 -0.00836346 -1.59551)
(-0.278626 -0.0142619 -1.68213)
(-0.254808 -0.0824739 -1.8934)
(-0.203159 -0.10491 -1.7551)
(-0.130589 0.025662 -1.72873)
(-0.124362 -0.0191509 -1.78153)
(-0.127828 -0.0232137 -1.81242)
(-0.115171 0.0537544 -1.82618)
(-0.1067 0.0285283 -1.78421)
(-0.112429 -0.00456759 -1.71585)
(-0.137967 -0.0794762 -1.42205)
(0.138669 -0.247603 -2.57034)
(-0.0131097 -0.113474 -2.48036)
(-0.10274 0.056646 -2.36881)
(-0.147148 0.0218504 -2.4127)
(-0.0274676 0.00354179 -1.78324)
(0.122552 0.16937 -1.74026)
(-0.0770605 0.130593 -1.89521)
(-0.139734 -0.0260199 -1.57606)
(-0.164725 -0.00961566 -1.77389)
(-0.12878 -0.099634 -1.95723)
(0.0194396 -0.0898652 -1.80734)
(-0.133532 0.0328116 -1.72118)
(-0.151257 -0.0212004 -1.79959)
(-0.121287 -0.0205634 -1.85878)
(-0.102973 0.0461348 -1.88484)
(-0.096564 -0.00120493 -1.84606)
(-0.0797912 -0.0197367 -1.80131)
(-0.649292 -0.21842 -0.65434)
(0.0716971 -0.00554706 -2.9135)
(0.0835927 -0.0278773 -2.93501)
(0.167117 -0.0184457 -2.73778)
(0.0541533 -0.101237 -2.85573)
(-0.590794 -0.137924 -1.14637)
(0.408332 0.287619 -1.69071)
(0.280933 0.284069 -2.18245)
(-0.000147986 -0.0293881 -1.99599)
(0.00827743 -0.0545782 -2.07657)
(0.187976 -0.197507 -2.28816)
(0.359394 -0.199066 -1.82204)
(-0.127168 0.0718911 -1.67753)
(-0.190065 0.0212555 -1.81484)
(-0.147698 -0.0216965 -1.93589)
(-0.110705 0.0162853 -2.0145)