/*--------------------------------*- C++ -*----------------------------------*\
| =========                 |                                                 |
| \\      /  F ield         | OpenFOAM: The Open Source CFD Toolbox           |
|  \\    /   O peration     | Version:  v1612+                                |
|   \\  /    A nd           | Web:      www.OpenFOAM.com                      |
|    \\/     M anipulation  |                                                 |
\*---------------------------------------------------------------------------*/
FoamFile
{
    version     2.0;
    format      ascii;
    class       volScalarField;
    location    "0.3";
    object      p;
}
// * * * * * * * * * * * * * * * * * * * * * * * * * * * * * * * * * * * * * //

dimensions      [0 2 -2 0 0 0 0];

internalField   nonuniform List<scalar> 
320
(
4.33914e-11
0.00379502
7.20484e-10
0.00379502
-0.000963434
0.00475384
0.011162
0.0111621
0.0111621
0.011162
0.00475384
-0.000963434
-0.00736866
-0.00736878
-0.00736878
-0.00736866
-0.000311877
0.00410285
0.00853963
0.00853958
0.00853958
0.00853963
0.00410285
-0.000311878
-0.00474746
-0.00474741
-0.00474741
-0.00474746
8.5414e-09
0.00379501
0.00756217
0.00756221
0.00756221
0.00756217
0.00379501
8.63017e-09
-0.00376605
-0.00376609
-0.00376609
-0.00376605
0.000333273
0.00346288
0.000333273
0.00346288
0.000333269
0.00346289
0.00646398
0.00646397
0.00646397
0.00646398
0.00346289
0.000333269
-0.00266705
-0.00266704
-0.00266704
-0.00266705
-0.00736853
-0.000963436
0.00475384
0.0111618
0.0163002
0.0163001
0.0162999
0.0162999
0.0163001
0.0163002
0.0111618
0.00475384
-0.000963437
-0.00736853
-0.0125027
-0.0125026
-0.0125024
-0.0125024
-0.0125026
-0.0125027
-0.00474749
-0.000311901
0.00410287
0.00853967
0.0122132
0.0122129
0.0122127
0.0122127
0.0122129
0.0122132
0.00853967
0.00410287
-0.000311901
-0.00474749
-0.00842092
-0.00842069
-0.00842045
-0.00842045
-0.00842069
-0.00842092
-0.00376599
2.12115e-08
0.003795
0.00756211
0.0107877
0.0107877
0.0107877
0.0107877
0.0107877
0.0107877
0.00756211
0.003795
2.13145e-08
-0.00376599
-0.00698981
-0.00698982
-0.00698982
-0.00698982
-0.00698982
-0.00698981
-0.00266706
0.000333264
0.00346289
0.00646399
0.00891088
0.00891082
0.00891077
0.00891077
0.00891082
0.00891088
0.00646399
0.00346289
0.000333264
-0.00266706
-0.00511269
-0.00511263
-0.00511258
-0.00511258
-0.00511263
-0.00511269
0.000484448
0.00331238
0.000484448
0.00331238
0.000484446
0.00331238
0.00599948
0.00599948
0.00599948
0.00599948
0.00331238
0.000484446
-0.00220201
-0.00220201
-0.00220201
-0.00220201
-0.00220201
0.000484445
0.00331238
0.00599948
0.00818731
0.0081873
0.0081873
0.0081873
0.0081873
0.00818731
0.00599948
0.00331238
0.000484445
-0.00220201
-0.0043888
-0.00438879
-0.00438879
-0.00438879
-0.00438879
-0.0043888
-0.0125049
-0.00736709
-0.000963513
0.00475394
0.0111604
0.0163024
0.03358
0.0335835
0.0335838
0.0335841
0.0335841
0.0335838
0.0335835
0.03358
0.0163024
0.0111604
0.00475394
-0.000963513
-0.00736709
-0.0125049
-0.029774
-0.0297775
-0.0297777
-0.0297781
-0.0297781
-0.0297777
-0.0297775
-0.029774
-0.00842289
-0.00474773
-0.000312096
0.00410308
0.00853992
0.0122152
0.0171299
0.0171279
0.0171278
0.0171276
0.0171276
0.0171278
0.0171279
0.0171299
0.0122152
0.00853992
0.00410308
-0.000312096
-0.00474773
-0.00842289
-0.013329
-0.013327
-0.0133268
-0.0133266
-0.0133266
-0.0133268
-0.013327
-0.013329
-0.00698988
-0.00376557
6.52972e-08
0.00379496
0.00756169
0.0107878
0.0146303
0.014632
0.0146322
0.0146324
0.0146324
0.0146322
0.014632
0.0146303
0.0107878
0.00756169
0.00379496
6.52757e-08
-0.00376557
-0.00698988
-0.0108297
-0.0108314
-0.0108316
-0.0108318
-0.0108318
-0.0108316
-0.0108314
-0.0108297
-0.00511308
-0.00266712
0.000333229
0.00346293
0.00646405
0.00891127
0.010828
0.0108277
0.0108277
0.0108277
0.0108277
0.0108277
0.0108277
0.010828
0.00891127
0.00646405
0.00346293
0.000333229
-0.00266712
-0.00511308
-0.0070276
-0.0070273
-0.00702725
-0.00702722
-0.00702722
-0.00702725
-0.0070273
-0.0070276
-0.00438883
-0.00220199
0.000484437
0.00331239
0.00599946
0.00818734
0.00975691
0.00975722
0.00975727
0.00975731
0.00975731
0.00975727
0.00975722
0.00975691
0.00818734
0.00599946
0.00331239
0.000484437
-0.00220199
-0.00438883
-0.00595715
-0.00595747
-0.00595751
-0.00595755
-0.00595755
-0.00595751
-0.00595747
-0.00595715
-0.000963445
0.00475385
-0.000963445
0.00475385
-0.000311855
0.00410282
-0.000311855
0.00410282
)
;

boundaryField
{
    top_fluid_surface
    {
        type            zeroGradient;
    }
    bottom_fluid_surface
    {
        type            zeroGradient;
    }
    lateral_surface_1
    {
        type            zeroGradient;
    }
    lateral_surface_2
    {
        type            zeroGradient;
    }
    lateral_surface_3
    {
        type            zeroGradient;
    }
    lateral_surface_4
    {
        type            zeroGradient;
    }
}


// ************************************************************************* //
