/*--------------------------------*- C++ -*----------------------------------*\
| =========                 |                                                 |
| \\      /  F ield         | OpenFOAM: The Open Source CFD Toolbox           |
|  \\    /   O peration     | Version:  v1612+                                |
|   \\  /    A nd           | Web:      www.OpenFOAM.com                      |
|    \\/     M anipulation  |                                                 |
\*---------------------------------------------------------------------------*/
FoamFile
{
    version     2.0;
    format      ascii;
    class       surfaceScalarField;
    location    "0.3";
    object      phi;
}
// * * * * * * * * * * * * * * * * * * * * * * * * * * * * * * * * * * * * * //

dimensions      [0 3 -1 0 0 0 0];

internalField   nonuniform List<scalar> 
816
(
-0.00113048
1.9785e-11
-1.45677e-10
0.00110466
-9.01763e-05
0.000115998
1.4485e-11
1.24134e-10
-0.00110477
9.00593e-05
-0.000115774
-0.00113048
-1.15876e-10
0.00110466
-9.01763e-05
0.000115998
-0.00110477
1.30166e-10
9.00593e-05
-0.000115774
0.00425877
-0.0041334
-0.000125364
-3.65435e-09
1.89777e-09
0.00413356
0.0001252
3.29055e-09
-1.75617e-09
-1.17543e-08
0.000468624
4.95992e-08
0.0036649
-9.23292e-13
0.000468636
0.00366491
-0.00413356
1.17476e-08
0.000468636
0.00366491
-0.00413356
-0.00413356
0.000468624
0.0036649
4.95919e-08
-0.00425877
0.0001252
3.28973e-09
-1.75452e-09
-0.0041334
-0.000125364
-3.65218e-09
1.89176e-09
1.18189e-08
-0.000468691
-4.97702e-08
-0.00366467
-6.69519e-12
-0.000468702
-0.00366468
0.00413339
-1.1824e-08
-0.000468702
-0.00366468
0.00413339
-0.00046869
-4.97693e-08
-0.00366467
-0.00134778
0.00133841
-0.000115999
7.58895e-09
-2.58437e-09
-0.00133835
0.000115775
-7.9271e-09
2.75389e-09
7.48434e-09
0.000391986
-1.8353e-08
-0.0012617
1.65048e-12
0.000391984
-0.00126168
0.00133834
-7.48256e-09
0.000391984
-0.00126168
0.00133834
0.00133835
0.000391986
-0.0012617
-1.83537e-08
0.00134778
0.000115775
-7.92376e-09
2.74492e-09
0.00133841
-0.000115999
7.58173e-09
-2.61623e-09
-7.37148e-09
-0.000392148
1.80614e-08
0.00126185
-2.44821e-12
-0.000392146
0.00126184
-0.0013384
7.35159e-09
-0.000392146
0.00126184
-0.0013384
-0.000392148
1.80532e-08
0.00126185
-0.00113048
0.00110466
-9.01762e-05
-4.51348e-10
-0.00110477
9.00593e-05
4.25809e-10
-1.93575e-09
0.000287872
8.15623e-09
-0.00100066
1.83186e-12
0.000287873
-0.00100066
1.93853e-09
0.000287873
-0.00100066
0.00110477
0.000287872
-0.00100066
8.14896e-09
0.00113048
9.00593e-05
4.0316e-10
0.00110466
-9.01762e-05
-4.71699e-10
1.93391e-09
-0.000287959
-8.17985e-09
0.00100048
-1.34861e-11
-0.00028796
0.00100048
-1.96057e-09
-0.00028796
0.00100048
-0.000287959
-8.17039e-09
0.00100048
-0.000939234
1.07271e-11
4.4811e-10
0.000895721
-4.66634e-05
-5.3276e-12
-5.0744e-10
-0.000895788
4.66131e-05
-0.000939234
4.94385e-10
0.000895721
-4.66634e-05
-0.000895788
-5.03774e-10
4.66131e-05
-0.000939235
0.000895722
1.31081e-09
-4.66637e-05
-0.000895789
-1.33848e-09
4.66134e-05
1.23662e-09
-2.75808e-09
-0.000752976
0.000145061
5.30884e-12
-0.000752974
0.00014506
-1.2356e-09
-0.000752974
0.00014506
0.000895789
-0.000752976
-2.76412e-09
0.000145061
0.000939235
-1.3357e-09
4.66134e-05
0.000895722
1.30475e-09
-4.66637e-05
-1.23372e-09
2.76181e-09
0.000752856
-0.000145095
-1.85636e-12
0.000752854
-0.000145094
1.21708e-09
0.000752854
-0.000145094
2.75206e-09
0.000752856
-0.000145095
0.0041334
-0.00366465
-0.000468677
-1.16097e-07
0.00425876
-0.000125361
-3.43805e-09
0.00413356
0.000125197
2.70474e-09
0.00366488
0.000468611
1.15763e-07
8.97903e-08
0.000833647
-2.03355e-07
0.00283135
2.21975e-08
0.000833647
0.00283132
1.65869e-12
0.000833645
0.00283129
-2.22032e-08
0.000833645
0.00283129
-8.97953e-08
0.000833647
0.00283132
-0.00366488
0.000833647
0.00283135
-2.03356e-07
-0.00413356
0.000468611
1.1576e-07
-0.00425876
0.000125197
2.69612e-09
-0.0041334
-0.000125361
-3.44847e-09
-0.00366465
-0.000468677
-1.16101e-07
-8.98264e-08
-0.000833603
2.03468e-07
-0.00283117
-2.22113e-08
-0.000833603
-0.00283114
-1.35688e-11
-0.000833601
-0.0028311
2.21997e-08
-0.000833601
-0.0028311
8.98237e-08
-0.000833603
-0.00283114
-0.000833603
2.03466e-07
-0.00283117
-0.00133841
0.00126187
-0.000392149
3.27379e-08
-0.00134778
-0.000116
1.57469e-08
-0.00133835
0.000115776
-1.63825e-08
-0.00126171
0.000391987
-3.33193e-08
9.23013e-08
0.000684912
-1.92246e-07
-0.00111288
2.96528e-08
0.000684894
-0.00111288
4.07456e-12
0.000684877
-0.00111288
-2.96476e-08
0.000684877
-0.00111288
-9.22999e-08
0.000684894
-0.00111288
0.00126171
0.000684912
-0.00111288
-1.92248e-07
0.00133835
0.000391987
-3.33264e-08
0.00134778
0.000115776
-1.639e-08
0.00133841
-0.000116
1.57396e-08
0.00126187
-0.000392149
3.27329e-08
-9.19531e-08
-0.000684996
1.9137e-07
0.00111316
-2.95755e-08
-0.000684979
0.00111317
-1.3634e-11
-0.000684961
0.00111317
2.95529e-08
-0.000684961
0.00111317
9.19421e-08
-0.000684979
0.00111317
-0.000684996
1.91368e-07
0.00111316
-0.00110465
0.00100047
-0.000287956
-2.01442e-08
-0.00113048
-9.01757e-05
-1.08642e-09
-0.00110476
9.00588e-05
1.01369e-09
-0.00100066
0.00028787
2.01241e-08
5.81601e-09
0.000502361
-1.24588e-08
-0.000818098
1.63366e-09
0.000502358
-0.000818118
8.75091e-12
0.000502354
-0.000818134
-1.63533e-09
0.000502354
-0.000818134
-5.8237e-09
0.000502358
-0.000818118
0.00100066
0.000502361
-0.000818098
-1.24677e-08
0.00110476
0.00028787
2.01138e-08
0.00113048
9.00588e-05
1.00612e-09
0.00110465
-9.01757e-05
-1.10432e-09
0.00100047
-0.000287956
-2.0141e-08
-5.88113e-09
-0.000502408
1.25773e-08
0.000817878
-1.67072e-09
-0.000502405
0.000817899
-1.31902e-11
-0.000502401
0.000817914
1.64877e-09
-0.000502401
0.000817914
5.87586e-09
-0.000502405
0.000817899
-0.000502408
1.25851e-08
0.000817878
-0.00089572
0.000752857
-0.000145095
4.93932e-09
-0.000939234
-4.66639e-05
2.62635e-09
-0.000895787
4.66136e-05
-2.65384e-09
-0.000752977
0.000145062
-4.9163e-09
1.2621e-08
0.000246812
-2.69e-08
-0.000497413
4.23747e-09
0.000246808
-0.000497418
8.17167e-12
0.000246805
-0.000497421
-4.23493e-09
0.000246805
-0.000497421
-1.26323e-08
0.000246808
-0.000497418
0.000752977
0.000246812
-0.000497414
-2.6921e-08
0.000895787
0.000145062
-4.92372e-09
0.000939234
4.66136e-05
-2.65495e-09
0.00089572
-4.66639e-05
2.62788e-09
0.000752857
-0.000145095
4.93895e-09
-1.26868e-08
-0.000246813
2.70044e-08
0.000497248
-4.27238e-09
-0.00024681
0.000497253
-1.37108e-11
-0.000246807
0.000497255
4.25443e-09
-0.000246807
0.000497255
1.26826e-08
-0.00024681
0.000497253
-0.000246813
2.70086e-08
0.000497248
-0.000841276
-1.29988e-14
2.2316e-10
0.000794612
-3.59804e-12
-2.23673e-10
-0.000794662
-0.000841276
2.21733e-10
0.000794612
-0.000794662
-2.34491e-10
-0.000841276
0.000794612
5.23776e-10
-0.000794662
-5.22891e-10
2.72699e-10
-3.55676e-10
-0.000649601
-5.51316e-13
-0.000649602
-2.83426e-10
-0.000649602
0.000794662
-0.000649601
-3.66652e-10
0.000841276
-5.27123e-10
0.000794612
5.21265e-10
-2.82645e-10
3.79578e-10
0.000649517
-2.26037e-12
0.000649518
2.84853e-10
0.000649518
3.78696e-10
0.000649517
-0.00079461
0.000649514
8.85737e-11
-0.000841274
9.34104e-10
-0.00079466
-9.17114e-10
-0.000649598
-5.71201e-11
9.65488e-10
-2.14477e-09
-0.000402786
3.01096e-10
-0.000402792
-3.7628e-13
-0.000402796
-3.1196e-10
-0.000402796
-9.76772e-10
-0.000402792
0.000649598
-0.000402786
-2.15569e-09
0.00079466
-5.96714e-11
0.000841274
-9.20788e-10
0.00079461
9.28873e-10
0.000649514
8.80545e-11
-1.03527e-09
2.25723e-09
0.0004027
-3.38398e-10
0.000402706
-6.1834e-12
0.00040271
3.32393e-10
0.00040271
1.0362e-09
0.000402706
2.26092e-09
0.0004027
0.00365375
-0.00282232
-0.000831228
0.00412091
-0.00046727
0.00424591
-0.000125001
0.00412107
0.000124838
0.00365398
0.000467204
0.00282251
0.000831272
-3.67576e-07
0.00282287
-1.70063e-07
0.00283115
-4.78974e-08
0.0028312
4.60432e-13
0.00283124
4.78953e-08
0.00283124
1.70055e-07
0.0028312
3.67567e-07
0.00283115
-0.00282251
0.00282287
-0.00365398
0.000831272
-0.00412107
0.000467204
-0.00424591
0.000124838
-0.00412091
-0.000125001
-0.00365375
-0.00046727
-0.00282232
-0.000831228
3.66255e-07
-0.00282269
1.69465e-07
-0.00283097
4.76905e-08
-0.00283102
-9.71176e-12
-0.00283105
-4.76975e-08
-0.00283105
-1.69462e-07
-0.00283102
-3.66246e-07
-0.00283097
-0.00282269
-0.00125807
0.00110995
-0.000682923
-0.00133437
-0.00039093
-0.00134371
-0.00011565
-0.00133431
0.000115427
-0.00125791
0.000390769
-0.00110967
0.000682839
1.9532e-07
0.00171301
8.65411e-08
0.00171839
2.13623e-08
0.00171838
2.60201e-12
0.00171838
-2.13677e-08
0.00171838
-8.65499e-08
0.00171838
-1.95323e-07
0.00171839
0.00110967
0.00171301
0.00125791
0.000682839
0.00133431
0.000390769
0.00134371
0.000115427
0.00133437
-0.00011565
0.00125807
-0.00039093
0.00110995
-0.000682923
-1.95862e-07
-0.00171254
-8.68143e-08
-0.00171791
-2.14692e-08
-0.00171791
-1.22393e-11
-0.00171791
2.14535e-08
-0.00171791
8.68082e-08
-0.00171791
1.95857e-07
-0.00171791
-0.00171254
-0.000997429
0.000815432
-0.000500914
-0.0011013
-0.000287078
-0.00112705
-8.99042e-05
-0.00110141
8.97876e-05
-0.000997611
0.000286992
-0.000815651
0.000500866
-1.49752e-07
0.000897508
-6.98781e-08
0.000900208
-2.12947e-08
0.000900218
2.33933e-12
0.000900223
2.12885e-08
0.000900223
6.98701e-08
0.000900218
1.49745e-07
0.000900208
0.000815651
0.000897508
0.000997611
0.000500866
0.00110141
0.000286992
0.00112705
8.97876e-05
0.0011013
-8.99042e-05
0.000997429
-0.000287078
0.000815432
-0.000500914
1.49391e-07
-0.000897258
6.96775e-08
-0.000899957
2.12e-08
-0.000899966
-1.21951e-11
-0.000899971
-2.12095e-08
-0.000899971
-6.9682e-08
-0.000899966
-1.49387e-07
-0.000899957
-0.000897258
-0.000750601
0.000495781
-0.000246067
-0.00089302
-0.000144654
-0.000936399
-4.65232e-05
-0.000893087
4.6473e-05
-0.00075072
0.00014462
-0.000495946
0.000246065
5.95656e-09
0.000401556
1.26041e-09
0.000402799
-4.39898e-10
0.000402801
5.35394e-12
0.000402801
4.3933e-10
0.000402801
-1.27358e-09
0.000402801
-5.97659e-09
0.000402799
0.000495946
0.000401556
0.00075072
0.000246065
0.000893087
0.00014462
0.000936399
4.6473e-05
0.00089302
-4.65232e-05
0.000750601
-0.000144654
0.000495781
-0.000246067
-6.32792e-09
-0.000401471
-1.43744e-09
-0.000402714
3.6583e-10
-0.000402715
-1.20584e-11
-0.000402716
-3.78373e-10
-0.000402716
1.4384e-09
-0.000402715
6.34472e-09
-0.000402714
-0.000401471
-0.000647563
0.000401499
-0.000792217
-0.000838739
-0.000792267
-0.000647647
-0.000401584
-2.83103e-08
-1.44139e-08
-5.26489e-09
-3.80133e-12
5.25328e-09
1.44002e-08
2.83001e-08
0.000401584
0.000647647
0.000792267
0.000838739
0.000792217
0.000647563
0.000401499
2.8099e-08
1.42805e-08
5.20425e-09
-2.76891e-12
-5.20061e-09
-1.42804e-08
-2.80907e-08
0.00425876
1.00363e-11
-0.000125366
3.50734e-12
0.000125202
0.00425876
-0.000125366
0.000125202
-0.00134777
1.10604e-11
-6.06863e-12
-0.00134777
)
;

boundaryField
{
    top_fluid_surface
    {
        type            calculated;
        value           uniform 0;
    }
    bottom_fluid_surface
    {
        type            calculated;
        value           uniform 0;
    }
    lateral_surface_1
    {
        type            calculated;
        value           uniform 0;
    }
    lateral_surface_2
    {
        type            calculated;
        value           uniform 0;
    }
    lateral_surface_3
    {
        type            calculated;
        value           uniform 0;
    }
    lateral_surface_4
    {
        type            calculated;
        value           uniform 0;
    }
}


// ************************************************************************* //
