/*--------------------------------*- C++ -*----------------------------------*\
| =========                 |                                                 |
| \\      /  F ield         | OpenFOAM: The Open Source CFD Toolbox           |
|  \\    /   O peration     | Version:  v1612+                                |
|   \\  /    A nd           | Web:      www.OpenFOAM.com                      |
|    \\/     M anipulation  |                                                 |
\*---------------------------------------------------------------------------*/
FoamFile
{
    version     2.0;
    format      ascii;
    class       volVectorField;
    location    "0.3";
    object      U;
}
// * * * * * * * * * * * * * * * * * * * * * * * * * * * * * * * * * * * * * //

dimensions      [0 1 -1 0 0 0 0];

internalField   nonuniform List<vector> 
320
(
(-0.0011227 5.15901e-11 0.000102666)
(-0.00112275 -2.43991e-11 -0.000102462)
(-0.0011227 2.38491e-12 0.000102666)
(-0.00112275 6.31118e-11 -0.000102462)
(0.00420396 2.19405e-09 8.56452e-05)
(0.00420391 -2.01111e-09 -8.54383e-05)
(0.00416599 -1.46357e-08 -0.000332665)
(0.004166 -6.60997e-09 -0.000332676)
(0.004166 6.60877e-09 -0.000332676)
(0.00416599 1.46241e-08 -0.000332665)
(0.00420391 1.99542e-09 -8.54383e-05)
(0.00420396 -2.2141e-09 8.56452e-05)
(0.00416555 -1.47363e-08 0.000332824)
(0.00416557 -6.6319e-09 0.000332835)
(0.00416557 6.64877e-09 0.000332835)
(0.00416555 1.47296e-08 0.000332824)
(-0.00134666 -3.31374e-09 0.000141486)
(-0.00134664 3.51166e-09 -0.000141346)
(-0.00128352 9.3475e-09 -0.000509875)
(-0.0012835 4.29284e-09 -0.000509881)
(-0.0012835 -4.28829e-09 -0.000509881)
(-0.00128352 -9.34972e-09 -0.000509875)
(-0.00134664 -3.50364e-09 -0.000141346)
(-0.00134666 3.30449e-09 0.000141486)
(-0.00128368 9.1945e-09 0.000509908)
(-0.00128367 4.23017e-09 0.000509914)
(-0.00128367 -4.22301e-09 0.000509914)
(-0.00128368 -9.17754e-09 0.000509908)
(-0.0011227 2.00378e-10 0.000102667)
(-0.00112275 -2.20031e-10 -0.000102464)
(-0.00105211 -2.63035e-09 -0.000326798)
(-0.00105211 -9.15227e-10 -0.000326795)
(-0.00105211 9.20873e-10 -0.000326795)
(-0.00105211 2.62292e-09 -0.000326798)
(-0.00112275 1.69321e-10 -0.000102464)
(-0.0011227 -2.22919e-10 0.000102667)
(-0.00105196 -2.65776e-09 0.000326976)
(-0.00105196 -8.93587e-10 0.000326973)
(-0.00105196 9.31265e-10 0.000326973)
(-0.00105196 2.62634e-09 0.000326976)
(-0.000926282 -2.69875e-10 7.01293e-05)
(-0.000926315 2.77981e-10 -7.0056e-05)
(-0.000926282 2.97432e-10 7.01294e-05)
(-0.000926315 -2.85199e-10 -7.0056e-05)
(-0.000926283 -6.35635e-10 7.01292e-05)
(-0.000926316 6.49704e-10 -7.00558e-05)
(-0.000832939 1.5665e-09 -0.00022223)
(-0.000832937 6.98601e-10 -0.000222231)
(-0.000832937 -6.86175e-10 -0.000222231)
(-0.000832939 -1.57597e-09 -0.00022223)
(-0.000926316 -6.49287e-10 -7.00558e-05)
(-0.000926283 6.1387e-10 7.01292e-05)
(-0.000832848 1.56401e-09 0.000222276)
(-0.000832846 6.92523e-10 0.000222277)
(-0.000832846 -6.86627e-10 0.000222277)
(-0.000832848 -1.55419e-09 0.000222276)
(0.00416552 1.01596e-07 0.00033281)
(0.00420396 4.6079e-09 8.56421e-05)
(0.00420391 -3.91411e-09 -8.54352e-05)
(0.00416596 -1.01292e-07 -0.000332651)
(0.00270707 1.8031e-07 -0.000605148)
(0.00270706 2.73876e-08 -0.000605155)
(0.00270704 1.275e-08 -0.000605159)
(0.00270704 -1.27479e-08 -0.000605159)
(0.00270706 -2.7396e-08 -0.000605155)
(0.00270707 -1.80315e-07 -0.000605148)
(0.00416596 1.01286e-07 -0.000332651)
(0.00420391 3.90542e-09 -8.54352e-05)
(0.00420396 -4.61227e-09 8.56421e-05)
(0.00416552 -1.01594e-07 0.00033281)
(0.0027071 1.80394e-07 0.000605487)
(0.00270709 2.73987e-08 0.000605494)
(0.00270707 1.27645e-08 0.000605498)
(0.00270707 -1.27409e-08 0.000605498)
(0.00270709 -2.73943e-08 0.000605494)
(0.0027071 -1.80396e-07 0.000605487)
(-0.0012837 -3.11182e-08 0.0005099)
(-0.00134666 -1.41936e-08 0.000141485)
(-0.00134664 1.4785e-08 -0.000141345)
(-0.00128353 3.16457e-08 -0.000509867)
(-0.00133339 1.74253e-07 -0.000901997)
(-0.00133339 3.69734e-08 -0.000901986)
(-0.00133338 1.68943e-08 -0.000901974)
(-0.00133338 -1.68859e-08 -0.000901974)
(-0.00133339 -3.69716e-08 -0.000901986)
(-0.00133339 -1.74252e-07 -0.000901997)
(-0.00128353 -3.16473e-08 -0.000509867)
(-0.00134664 -1.47829e-08 -0.000141345)
(-0.00134666 1.41954e-08 0.000141485)
(-0.0012837 3.11212e-08 0.0005099)
(-0.00133333 1.73514e-07 0.00090175)
(-0.00133333 3.68623e-08 0.000901739)
(-0.00133332 1.6862e-08 0.000901727)
(-0.00133332 -1.68326e-08 0.000901727)
(-0.00133333 -3.68477e-08 0.000901739)
(-0.00133333 -1.73507e-07 0.00090175)
(-0.00105196 1.70368e-08 0.000326979)
(-0.00112269 9.03779e-10 0.000102668)
(-0.00112274 -8.20999e-10 -0.000102465)
(-0.00105211 -1.69992e-08 -0.000326802)
(-0.00100319 1.13946e-08 -0.000562297)
(-0.0010032 1.79973e-09 -0.000562282)
(-0.00100321 1.10733e-09 -0.000562268)
(-0.00100321 -1.09168e-09 -0.000562268)
(-0.0010032 -1.81519e-09 -0.000562282)
(-0.00100319 -1.13989e-08 -0.000562297)
(-0.00105211 1.69905e-08 -0.000326802)
(-0.00112274 8.22753e-10 -0.000102465)
(-0.00112269 -9.2223e-10 0.000102668)
(-0.00105196 -1.70212e-08 0.000326979)
(-0.00100296 1.1498e-08 0.000562485)
(-0.00100298 1.84621e-09 0.00056247)
(-0.00100299 1.13015e-09 0.000562455)
(-0.00100299 -1.0998e-09 0.000562455)
(-0.00100298 -1.83648e-09 0.00056247)
(-0.00100296 -1.14983e-08 0.000562485)
(-0.000832848 -4.64452e-09 0.000222274)
(-0.000926281 -2.37436e-09 7.01286e-05)
(-0.000926314 2.42483e-09 -7.00553e-05)
(-0.000832939 4.64044e-09 -0.000222227)
(-0.000660327 2.39504e-08 -0.000387698)
(-0.00066033 5.41027e-09 -0.000387699)
(-0.000660331 2.29439e-09 -0.000387698)
(-0.000660331 -2.27945e-09 -0.000387698)
(-0.00066033 -5.41722e-09 -0.000387699)
(-0.000660327 -2.39678e-08 -0.000387698)
(-0.000832939 -4.64485e-09 -0.000222227)
(-0.000926314 -2.41743e-09 -7.00553e-05)
(-0.000926281 2.38832e-09 7.01286e-05)
(-0.000832848 4.6561e-09 0.000222274)
(-0.000660166 2.40502e-08 0.000387695)
(-0.000660169 5.45357e-09 0.000387696)
(-0.00066017 2.31812e-09 0.000387695)
(-0.00066017 -2.28905e-09 0.000387695)
(-0.000660169 -5.44786e-09 0.000387696)
(-0.000660166 -2.40467e-08 0.000387695)
(-0.000827847 -1.27765e-10 2.34142e-05)
(-0.000827873 1.26372e-10 -2.33887e-05)
(-0.000827847 1.28367e-10 2.34143e-05)
(-0.000827873 -1.3195e-10 -2.33887e-05)
(-0.000827848 -2.87778e-10 2.34144e-05)
(-0.000827873 2.83198e-10 -2.33888e-05)
(-0.000732238 3.19487e-10 -7.25043e-05)
(-0.000732238 1.68767e-10 -7.25038e-05)
(-0.000732238 -1.69599e-10 -7.25038e-05)
(-0.000732238 -3.36573e-10 -7.25043e-05)
(-0.000827873 -2.96838e-10 -2.33888e-05)
(-0.000827848 2.8162e-10 2.34144e-05)
(-0.00073217 3.29806e-10 7.25219e-05)
(-0.00073217 1.75225e-10 7.25213e-05)
(-0.00073217 -1.69517e-10 7.25213e-05)
(-0.00073217 -3.38988e-10 7.25219e-05)
(-0.000732168 -2.51775e-10 7.25223e-05)
(-0.000827845 -8.85693e-10 2.34145e-05)
(-0.000827871 8.80365e-10 -2.33889e-05)
(-0.000732236 2.10389e-10 -7.25048e-05)
(-0.00054807 1.89575e-09 -0.000121861)
(-0.000548076 3.74708e-10 -0.000121858)
(-0.000548079 1.48591e-10 -0.000121856)
(-0.000548079 -1.4946e-10 -0.000121856)
(-0.000548076 -3.90599e-10 -0.000121858)
(-0.00054807 -1.90532e-09 -0.000121861)
(-0.000732236 -2.15544e-10 -7.25048e-05)
(-0.000827871 -8.79648e-10 -2.33889e-05)
(-0.000827845 8.83109e-10 2.34145e-05)
(-0.000732168 2.55516e-10 7.25223e-05)
(-0.000547979 2.00418e-09 0.000121863)
(-0.000547984 4.22471e-10 0.00012186)
(-0.000547987 1.70013e-10 0.000121858)
(-0.000547987 -1.55882e-10 0.000121858)
(-0.000547984 -4.2739e-10 0.00012186)
(-0.000547979 -2.00248e-09 0.000121863)
(0.00269894 -1.65752e-07 0.000603671)
(0.00415284 9.34948e-08 0.000331763)
(0.00419125 3.54177e-09 8.5385e-05)
(0.0041912 -2.99335e-09 -8.51793e-05)
(0.00415327 -9.32692e-08 -0.000331605)
(0.00269891 1.65673e-07 -0.000603335)
(0.0035637 -3.00095e-07 -0.00225183)
(0.00357438 -3.30886e-07 -0.00225882)
(0.00357434 -5.87609e-08 -0.00225887)
(0.0035743 -2.79765e-08 -0.00225891)
(0.0035743 2.7977e-08 -0.00225891)
(0.00357434 5.87571e-08 -0.00225887)
(0.00357438 3.30871e-07 -0.00225882)
(0.0035637 3.00092e-07 -0.00225183)
(0.00269891 -1.65668e-07 -0.000603335)
(0.00415327 9.32712e-08 -0.000331605)
(0.0041912 2.99006e-09 -8.51793e-05)
(0.00419125 -3.54704e-09 8.5385e-05)
(0.00415284 -9.35023e-08 0.000331763)
(0.00269894 1.65757e-07 0.000603671)
(0.00356316 -2.99117e-07 0.00225219)
(0.00357383 -3.2974e-07 0.00225918)
(0.00357379 -5.84862e-08 0.00225923)
(0.00357375 -2.78649e-08 0.00225927)
(0.00357375 2.78811e-08 0.00225927)
(0.00357379 5.84898e-08 0.00225923)
(0.00357383 3.29727e-07 0.00225918)
(0.00356316 2.99113e-07 0.00225219)
(-0.00132936 -1.53505e-07 0.000899072)
(-0.00127984 -2.61684e-08 0.000508324)
(-0.00134257 -1.23535e-08 0.000141063)
(-0.00134256 1.27914e-08 -0.000140923)
(-0.00127968 2.65817e-08 -0.000508291)
(-0.00132942 1.54167e-07 -0.000899318)
(-0.000715447 1.59606e-07 -0.00276563)
(-0.000717597 1.73485e-07 -0.0027741)
(-0.000717606 2.6246e-08 -0.00277412)
(-0.00071761 1.23695e-08 -0.00277414)
(-0.00071761 -1.2365e-08 -0.00277414)
(-0.000717606 -2.62579e-08 -0.00277412)
(-0.000717597 -1.73493e-07 -0.0027741)
(-0.000715447 -1.59603e-07 -0.00276563)
(-0.00132942 -1.54171e-07 -0.000899318)
(-0.00127968 -2.65926e-08 -0.000508291)
(-0.00134256 -1.28083e-08 -0.000140923)
(-0.00134257 1.2335e-08 0.000141063)
(-0.00127984 2.61553e-08 0.000508324)
(-0.00132936 1.53503e-07 0.000899072)
(-0.000716277 1.60016e-07 0.00276501)
(-0.000718433 1.73974e-07 0.00277347)
(-0.000718441 2.63847e-08 0.0027735)
(-0.000718446 1.24297e-08 0.00277351)
(-0.000718446 -1.24072e-08 0.00277351)
(-0.000718441 -2.63745e-08 0.0027735)
(-0.000718433 -1.73972e-07 0.00277347)
(-0.000716277 -1.6001e-07 0.00276501)
(-0.000999895 -1.07792e-08 0.000560808)
(-0.00104877 1.52909e-08 0.000325982)
(-0.00111927 7.13677e-10 0.000102359)
(-0.00111932 -6.81127e-10 -0.000102157)
(-0.00104891 -1.52925e-08 -0.000325805)
(-0.00100012 1.06823e-08 -0.000560621)
(-0.000505591 -1.19081e-07 -0.00100313)
(-0.000507166 -1.34242e-07 -0.00100614)
(-0.000507183 -2.69758e-08 -0.00100613)
(-0.000507196 -1.18102e-08 -0.00100612)
(-0.000507196 1.18139e-08 -0.00100612)
(-0.000507183 2.69656e-08 -0.00100613)
(-0.000507166 1.34233e-07 -0.00100614)
(-0.000505591 1.19077e-07 -0.00100313)
(-0.00100012 -1.06919e-08 -0.000560621)
(-0.00104891 1.52831e-08 -0.000325805)
(-0.00111932 6.65448e-10 -0.000102157)
(-0.00111927 -7.27709e-10 0.000102359)
(-0.00104877 -1.53022e-08 0.000325982)
(-0.000999895 1.07667e-08 0.000560808)
(-0.000505437 -1.18827e-07 0.00100273)
(-0.000507012 -1.3391e-07 0.00100574)
(-0.000507029 -2.68523e-08 0.00100573)
(-0.000507042 -1.17507e-08 0.00100571)
(-0.000507042 1.17735e-08 0.00100571)
(-0.000507029 2.68529e-08 0.00100573)
(-0.000507012 1.33916e-07 0.00100574)
(-0.000505437 1.18816e-07 0.00100273)
(-0.000658173 -2.09075e-08 0.000386519)
(-0.000830325 -3.7882e-09 0.000221587)
(-0.000923466 -2.04997e-09 6.99143e-05)
(-0.000923499 2.04667e-09 -6.9841e-05)
(-0.000830416 3.75828e-09 -0.00022154)
(-0.000658333 2.082e-08 -0.000386522)
(-0.00027957 4.26043e-09 -0.000671646)
(-0.000280417 4.12764e-09 -0.000673722)
(-0.000280422 -6.03206e-10 -0.000673735)
(-0.000280424 -4.64783e-10 -0.000673744)
(-0.000280424 4.74763e-10 -0.000673744)
(-0.000280422 5.9191e-10 -0.000673735)
(-0.000280417 -4.15023e-09 -0.000673722)
(-0.00027957 -4.27246e-09 -0.000671646)
(-0.000658333 -2.08415e-08 -0.000386522)
(-0.000830416 -3.76743e-09 -0.00022154)
(-0.000923499 -2.05622e-09 -6.9841e-05)
(-0.000923466 2.03803e-09 6.99143e-05)
(-0.000830325 3.77771e-09 0.000221587)
(-0.000658173 2.0896e-08 0.000386519)
(-0.00027946 4.52224e-09 0.000671545)
(-0.000280307 4.46107e-09 0.00067362)
(-0.000280311 -4.92294e-10 0.000673633)
(-0.000280314 -4.16595e-10 0.000673642)
(-0.000280314 4.39855e-10 0.000673642)
(-0.000280311 4.96439e-10 0.000673633)
(-0.000280307 -4.46852e-09 0.00067362)
(-0.00027946 -4.54181e-09 0.000671545)
(-0.000546316 -1.74641e-09 0.000121499)
(-0.000729947 -9.57907e-11 7.23023e-05)
(-0.000825332 -7.31925e-10 2.33437e-05)
(-0.000825357 7.15257e-10 -2.33181e-05)
(-0.000730015 5.1859e-11 -7.22847e-05)
(-0.000546408 1.66148e-09 -0.000121497)
(-0.000217854 -2.22163e-08 -0.000182002)
(-0.000218518 -2.60346e-08 -0.000182544)
(-0.000218523 -6.75824e-09 -0.000182541)
(-0.000218526 -2.9423e-09 -0.000182539)
(-0.000218526 2.93423e-09 -0.000182539)
(-0.000218523 6.74484e-09 -0.000182541)
(-0.000218518 2.6019e-08 -0.000182544)
(-0.000217854 2.22119e-08 -0.000182002)
(-0.000546408 -1.67201e-09 -0.000121497)
(-0.000730015 -5.43514e-11 -7.22847e-05)
(-0.000825357 -7.20303e-10 -2.33181e-05)
(-0.000825332 7.27514e-10 2.33437e-05)
(-0.000729947 9.08992e-11 7.23023e-05)
(-0.000546316 1.73907e-09 0.000121499)
(-0.000217803 -2.20693e-08 0.000181949)
(-0.000218468 -2.58286e-08 0.000182491)
(-0.000218473 -6.67497e-09 0.000182488)
(-0.000218476 -2.90429e-09 0.000182485)
(-0.000218476 2.90882e-09 0.000182485)
(-0.000218473 6.66987e-09 0.000182488)
(-0.000218468 2.58291e-08 0.000182491)
(-0.000217803 2.20558e-08 0.000181949)
(0.00420395 1.15458e-09 8.56478e-05)
(0.00420391 -1.0777e-09 -8.5441e-05)
(0.00420395 -1.12807e-09 8.56478e-05)
(0.00420391 1.08799e-09 -8.54409e-05)
(-0.00134665 -1.44121e-09 0.000141487)
(-0.00134663 1.52107e-09 -0.000141347)
(-0.00134665 1.46945e-09 0.000141487)
(-0.00134663 -1.52928e-09 -0.000141347)
)
;

boundaryField
{
    top_fluid_surface
    {
        type            fixedValue;
        value           uniform (1 0 0);
    }
    bottom_fluid_surface
    {
        type            noSlip;
    }
    lateral_surface_1
    {
        type            noSlip;
    }
    lateral_surface_2
    {
        type            noSlip;
    }
    lateral_surface_3
    {
        type            noSlip;
    }
    lateral_surface_4
    {
        type            noSlip;
    }
}


// ************************************************************************* //
