/*--------------------------------*- C++ -*----------------------------------*\
| =========                 |                                                 |
| \\      /  F ield         | OpenFOAM: The Open Source CFD Toolbox           |
|  \\    /   O peration     | Version:  v1612+                                |
|   \\  /    A nd           | Web:      www.OpenFOAM.com                      |
|    \\/     M anipulation  |                                                 |
\*---------------------------------------------------------------------------*/
FoamFile
{
    version     2.0;
    format      ascii;
    class       volScalarField;
    location    "7.1";
    object      alpha.water;
}
// * * * * * * * * * * * * * * * * * * * * * * * * * * * * * * * * * * * * * //

dimensions      [0 0 0 0 0 0 0];

internalField   nonuniform List<scalar> 
1116
(
0.686491
0.686491
0.686491
0.686491
0.686491
0.686491
0.940147
0.940227
0.940178
0.940166
0.940191
0.940165
0.974387
0.974387
0.974387
0.974387
0.974387
0.974387
0.974387
0.974387
0.974387
0.974387
0.974387
0.974387
0.974387
0.974387
0.974387
0.974387
0.974387
0.974387
0.911236
0.911046
0.911025
0.911334
0.91135
0.910984
0.861498
0.862016
0.861979
0.861622
0.861166
0.862217
0.834518
0.83487
0.834999
0.834413
0.83408
0.835112
0.82014
0.820037
0.82029
0.819935
0.819924
0.82019
0.812196
0.811459
0.811824
0.811998
0.812492
0.81139
0.810989
0.810281
0.810624
0.810796
0.811283
0.81027
0.810308
0.809739
0.809924
0.810123
0.810616
0.809835
0.766042
0.765969
0.766003
0.766036
0.766018
0.766026
0.940182
0.940227
0.940203
0.940179
0.940191
0.940178
0.795916
0.796001
0.795973
0.795953
0.795992
0.795938
0.608464
0.60847
0.60849
0.608457
0.608448
0.60846
0.385934
0.385819
0.385809
0.385928
0.385934
0.385839
0.21639
0.217505
0.217262
0.216818
0.216338
0.217718
0.116038
0.114121
0.114402
0.115893
0.117721
0.113235
0.112196
0.11163
0.111888
0.111867
0.111908
0.11151
0.133835
0.133615
0.133919
0.133518
0.132789
0.134233
0.130552
0.130284
0.130294
0.130586
0.130121
0.131105
0.144015
0.148223
0.147613
0.144241
0.140963
0.150649
0.238838
0.238834
0.240107
0.238681
0.239159
0.239733
0.766078
0.766077
0.766074
0.766071
0.76607
0.766067
0.491164
0.491149
0.491165
0.491172
0.491137
0.491199
0.172756
0.173027
0.17289
0.172899
0.172978
0.172799
0.0533864
0.0535853
0.0535246
0.0534309
0.0534134
0.053499
0.0153897
0.0158427
0.0156127
0.0156324
0.0157533
0.0155114
0.000357019
0.000169031
0.00017033
0.000281723
0.000339473
0.000133412
0.000408201
0.000335796
0.000335236
0.00035446
0.000297324
0.000252905
0.00581117
0.00494207
0.00499725
0.00586704
0.00710696
0.00423251
0.0137633
0.0132865
0.0131648
0.0139483
0.0145794
0.0127265
0.0198546
0.020008
0.0196731
0.02011
0.0197337
0.0198653
0.0226879
0.0233676
0.0229079
0.0228988
0.0221336
0.023181
0.0263475
0.0277305
0.0272477
0.0261327
0.0249218
0.0272725
0.766077
0.766074
0.766068
0.76607
0.766067
0.766062
0.066496
0.0665334
0.0664831
0.0665538
0.0665885
0.0664004
2.79332e-06
2.54375e-06
2.53831e-06
2.68377e-06
3.01312e-06
2.54848e-06
1.41561e-05
5.62024e-06
5.33153e-06
1.09039e-05
1.9481e-05
6.2213e-06
3.35682e-05
2.19773e-05
2.15551e-05
2.92235e-05
4.13065e-05
2.26888e-05
0.00026816
7.77865e-05
7.87462e-05
0.000185411
0.000464864
5.33657e-05
0.00376038
0.00284329
0.00289044
0.00371236
0.00413271
0.00248883
0.00431722
0.00453167
0.00457934
0.00448428
0.00421055
0.00437501
0.000146914
0.000216186
0.000188002
9.70146e-05
1.31872e-06
0.000317406
4.7782e-06
4.31415e-06
4.58412e-06
4.9045e-06
5.0678e-06
4.38052e-06
0.00774001
0.00706611
0.00720008
0.00783147
0.00816033
0.00685721
0.0273633
0.0278618
0.027494
0.0270281
0.0269985
0.0274507
0.0919001
0.091906
0.0919355
0.0919101
0.091913
0.0919144
0.0918914
0.0919001
0.091906
0.0919567
0.0919151
0.091918
0.0908374
0.0391325
0.0571185
0.0603403
0.0919115
0.0919144
0.0341778
0.0583258
0.0697669
0.0504694
0.0650873
0.0919102
0.0569856
0.072927
0.0729456
0.072923
0.065488
0.0918477
0.0726824
0.0682349
0.0710872
0.0606947
0.065878
0.044557
0.0727187
0.0635946
0.0512925
0.0266986
0.0582045
0.0166851
0.0726971
0.0711835
0.04506
0.0379482
0.0514124
0.0394827
0.0726875
0.0725282
0.0538765
0.0638022
0.0636011
0.0750827
0.0726015
0.0691565
0.0743774
0.0736898
0.0722413
0.0750827
0.0654708
0.0531262
0.0780819
0.0796903
0.0799834
0.0737481
0.0408097
0.054614
0.077302
0.0799834
0.0799834
0.0556965
0.0918913
0.0729696
0.091906
0.0919375
0.0919102
0.0919162
0.0842658
0.0379038
0.0653198
0.056827
0.0406308
0.091927
0.0111858
0.00807942
0.00348127
0.00722293
0.0102255
0.015981
0.00387516
0.0025749
0.00356713
0.00271528
0.00446939
0.00323692
0.00189358
5.61695e-09
5.09805e-06
1.07178e-08
0.00119935
0.000473108
2.39536e-09
2.01892e-09
1.07291e-09
1.52665e-09
9.01535e-05
0.00119677
1.85105e-09
2.82795e-09
4.13956e-09
2.721e-05
0.000342167
0.00424043
1.71457e-09
1.85104e-09
1.10361e-08
3.11698e-05
0.000117693
0.00393319
1.68283e-09
1.71457e-09
2.07807e-09
1.32375e-08
4.61951e-09
0.000619003
1.32371e-09
-2.25209e-09
1.34974e-08
1.98576e-07
6.1557e-07
6.73738e-05
0.00359612
0.00334541
0.000709798
0.00454661
0.00882348
0.00279605
0.0399118
0.0144486
0.00309318
0.0380609
0.0717374
0.0374646
0.0918682
0.0901549
0.0824548
0.0694574
0.0762913
0.091904
0.0655327
0.00742155
0.0277012
0.0171645
0.0126837
0.0700376
0.000144569
1.10573e-06
7.77007e-07
4.5882e-07
1.16708e-06
0.00174927
2.78879e-07
2.67873e-08
1.86477e-08
9.88167e-09
2.79623e-08
5.14606e-07
6.97732e-09
1.30711e-09
7.21462e-10
8.09976e-10
1.55137e-09
8.40229e-09
2.57567e-09
1.43821e-09
6.72194e-10
1.22207e-09
1.52667e-09
4.65675e-09
6.11063e-09
2.8681e-08
1.11484e-09
1.48322e-08
3.55256e-06
1.05727e-08
1.89079e-09
2.45287e-09
3.98185e-09
6.23071e-08
4.47605e-06
2.408e-09
1.71456e-09
9.31904e-08
1.42276e-08
4.61649e-09
4.126e-09
4.44889e-09
2.66783e-09
7.42301e-08
1.77046e-08
8.66951e-08
4.61127e-09
4.45046e-09
1.20648e-06
1.46095e-06
2.87591e-07
2.69807e-07
6.10659e-07
2.14573e-08
0.00527556
2.27064e-05
0.00108522
3.69833e-05
4.01507e-05
2.49577e-06
0.091848
0.0918441
0.0916232
0.0315143
0.047061
0.091874
0.033679
0.0127971
0.0101023
0.00369992
0.00574622
0.0221941
4.70147e-06
1.87979e-06
6.24954e-07
3.87628e-07
1.63072e-07
1.96601e-06
6.72979e-08
2.64213e-08
7.30521e-10
-2.89132e-10
5.56259e-10
2.41082e-08
8.871e-11
5.82029e-12
1.53381e-12
7.50254e-14
-4.89659e-12
7.67939e-12
5.57939e-09
1.46479e-08
6.36025e-10
4.66245e-09
1.61526e-08
1.51062e-07
1.35634e-08
2.80408e-08
6.82011e-10
1.21365e-08
8.61572e-08
1.68443e-08
1.84578e-09
1.73224e-09
9.60814e-10
2.22091e-09
2.27109e-10
2.58109e-10
1.81472e-09
3.08415e-07
8.67301e-07
4.24616e-09
2.75985e-10
3.42208e-09
5.25277e-08
2.68939e-06
5.70157e-06
1.20451e-07
-2.84736e-10
8.23757e-09
1.60065e-07
1.60308e-06
3.09602e-06
0.00122705
0.00147661
0.000196519
0.00528666
0.0129264
0.0177574
0.0138826
0.00764071
0.00980918
0.64923
0.648136
0.648552
0.648799
0.648599
0.648864
0.0888247
0.0864944
0.0874503
0.0880026
0.0876111
0.0881569
0.00177641
0.00165981
0.00172603
0.001762
0.00171397
0.00178574
0.0461223
0.046367
0.0462032
0.0462889
0.046387
0.0459426
0.0139964
0.0138938
0.0139482
0.0139224
0.0138613
0.013918
0.00179892
0.00155889
0.00166716
0.00167846
0.00160687
0.0017267
2.54392e-06
2.53776e-06
2.53843e-06
2.53777e-06
2.54314e-06
2.54852e-06
2.79352e-06
2.54392e-06
2.53843e-06
2.68395e-06
3.01372e-06
2.54852e-06
1.06928e-05
1.78458e-05
1.23944e-05
1.59725e-05
1.22735e-05
4.8055e-06
2.79089e-06
2.54367e-06
2.53843e-06
2.68331e-06
3.01369e-06
2.54852e-06
9.24676e-06
4.32412e-06
4.23547e-06
9.38756e-06
3.41807e-05
4.58143e-06
0.000298119
0.000294689
0.000298748
0.00031508
0.000302028
0.000263544
0.000342402
1.13955e-05
5.30404e-06
0.000179115
0.000564458
4.50762e-05
0.000995336
0.000678457
0.000665534
0.00089003
0.00117236
0.00070784
0.000958578
0.000894614
0.000912883
0.000969726
0.00105635
0.000984412
0.0019539
0.00125099
0.00121853
0.00183257
0.00185485
0.00134915
0.00164021
0.00160541
0.00156225
0.00152498
0.00146628
0.00145452
0.000193072
0.000285296
0.000303131
0.000184887
8.19739e-05
0.000348152
0.00188139
0.0023688
0.00243644
0.00196581
0.00175103
0.00214779
4.79764e-12
4.84296e-12
2.83668e-05
4.95224e-12
4.93135e-12
0.000108598
4.86269e-23
3.21639e-23
2.45717e-23
5.1037e-23
1.0141e-22
1.67204e-23
3.41801e-10
3.20484e-10
3.18417e-10
3.35007e-10
3.60535e-10
3.55521e-10
2.26171e-10
2.13369e-10
1.59216e-10
2.18511e-10
2.53655e-10
1.77761e-10
7.92708e-18
7.81962e-18
6.99429e-18
6.36191e-18
7.94274e-18
6.9956e-18
5.83109e-09
6.19813e-09
6.0654e-09
5.90287e-09
5.62028e-09
6.96922e-09
3.41798e-10
3.20328e-10
7.63031e-10
3.34839e-10
3.59013e-10
2.14459e-09
7.27587e-08
7.31862e-08
7.30879e-08
7.60395e-08
7.72403e-08
7.31954e-08
5.67752e-08
5.96483e-08
5.99942e-08
5.75195e-08
5.21535e-08
6.09982e-08
7.37162e-08
7.95476e-08
7.80276e-08
7.34518e-08
6.65042e-08
7.92698e-08
4.14734e-07
4.14837e-07
4.14963e-07
4.15024e-07
4.15011e-07
4.1501e-07
-3.5749e-09
-2.17549e-09
-2.6182e-09
-4.5923e-09
-2.20844e-08
-1.92799e-09
7.33079e-12
7.47948e-12
7.53992e-12
7.4251e-12
7.15132e-12
7.58723e-12
1.01847e-08
1.00929e-08
1.00827e-08
1.01539e-08
1.01516e-08
1.011e-08
0.0112303
0.0104553
0.010858
0.0112775
0.0116023
0.0106592
-2.10051e-20
-1.68057e-20
-3.07134e-20
-3.27504e-21
-1.86142e-19
-9.41801e-21
6.28216e-18
6.28128e-18
6.16919e-18
6.28145e-18
6.28157e-18
6.28111e-18
0.0534566
0.0529923
0.0526874
0.0527742
0.0529412
0.0531477
2.49204e-27
1.28439e-27
3.77643e-28
1.70848e-27
4.00666e-27
2.35876e-27
3.40549e-12
1.7249e-12
4.96636e-13
2.19436e-12
4.87013e-12
2.53083e-12
0.0549157
0.0549466
0.0554515
0.0560325
0.0568268
0.0557587
-3.32991e-16
-2.6147e-16
-1.30276e-16
-1.65068e-17
-6.14653e-16
-9.49106e-17
-1.50838e-26
-1.22814e-26
-1.85441e-26
-1.28164e-26
-1.95441e-26
-9.48261e-27
0.0577042
0.0577466
0.0578082
0.0578545
0.0578556
0.0578314
-1.45264e-15
-1.20928e-15
-1.95059e-15
-2.69473e-16
-1.27632e-14
-7.98257e-16
-1.96697e-26
-1.86823e-26
-2.0187e-26
-1.80751e-26
-3.29932e-26
-1.19397e-26
0.0575489
0.0575511
0.0575578
0.0576308
0.0576632
0.0576703
-1.04317e-15
-8.50214e-16
-1.47349e-15
-9.12581e-17
-9.2379e-15
-4.98017e-16
-1.83033e-26
-2.12923e-26
-2.32701e-26
-2.21011e-26
-2.42863e-26
-1.68058e-26
0.0572456
0.057249
0.0572523
0.0573079
0.057333
0.0573586
-6.16798e-16
-5.00983e-16
-8.93684e-16
-6.59112e-17
-5.45844e-15
-2.81986e-16
-1.2401e-26
-1.45434e-26
-1.58884e-26
-1.54705e-26
-1.70158e-26
-1.20496e-26
0.0526204
0.0525292
0.0525766
0.0526053
0.0526238
0.052558
-2.63024e-16
-2.13787e-16
-3.88592e-16
-4.13957e-17
-2.34384e-15
-1.20207e-16
-1.02365e-26
-1.21533e-26
-1.32513e-26
-1.3341e-26
-1.47614e-26
-1.0727e-26
0.0918441
0.0918389
0.091835
0.081274
0.05772
0.0918332
0.0916859
0.0754521
0.0900371
0.0783077
0.0229862
0.0876943
0.0276788
0.000513005
0.0128985
0.0100993
2.59133e-18
0.0261507
0.0149375
0.0121177
0.00863226
0.00436432
0.00332033
0.0135112
1.45412e-06
0.00904619
0.0023078
0.00247809
0.002468
4.80779e-10
2.17925e-19
0.00264256
0.00130039
0.00127415
0.000741559
4.41384e-23
3.72256e-07
8.55827e-08
8.4174e-10
-7.83474e-10
-5.09779e-09
1.26512e-07
4.70791e-18
7.18933e-11
1.14608e-10
2.07749e-11
4.77808e-09
-1.77364e-11
-2.34534e-10
2.08539e-18
-2.62716e-18
1.14608e-10
7.53444e-18
1.34689e-08
-3.94924e-09
-8.35843e-10
-1.7608e-11
1.09784e-12
-3.48736e-12
2.4337e-07
-8.94962e-16
2.18588e-12
4.19504e-09
-7.31003e-14
-3.45759e-11
2.29757e-15
-1.24737e-15
7.36323e-09
5.57159e-09
4.07876e-10
-2.58536e-15
8.87737e-21
7.09847e-16
-2.58746e-12
7.41064e-12
2.99875e-12
-1.32871e-14
-4.52414e-14
-1.98566e-15
1.00727e-15
1.90401e-16
1.1399e-16
8.38845e-16
7.00218e-11
8.38324e-16
3.20772e-15
1.80682e-21
1.66863e-20
9.6408e-16
4.81746e-13
9.96829e-10
1.27957e-09
4.06845e-11
5.03376e-14
1.65501e-12
1.41567e-09
1.88709e-13
1.76935e-14
6.49856e-15
3.15059e-16
1.04128e-14
1.3728e-14
2.56799e-14
1.5968e-14
1.13908e-14
2.9521e-14
4.59706e-14
2.54521e-14
4.21212e-09
1.02298e-08
6.30406e-11
6.65152e-11
8.24571e-13
2.22911e-10
8.33511e-11
1.67912e-10
3.80715e-12
5.03408e-14
8.2534e-13
5.05698e-13
4.88382e-14
2.87964e-14
5.13709e-12
5.70706e-13
2.37903e-13
3.04455e-14
1.62294e-10
2.83465e-09
7.10317e-10
2.17495e-10
6.63713e-11
1.53015e-11
6.13347e-11
2.93249e-09
8.13948e-09
1.5031e-09
8.8824e-12
3.02328e-12
1.13124e-11
1.64872e-10
7.12855e-10
8.69164e-11
5.40904e-13
4.80998e-12
6.41117e-09
9.63581e-08
1.00584e-07
3.13658e-08
2.91004e-08
1.29923e-08
1.13549e-08
1.45713e-07
1.71243e-07
5.77842e-08
2.42099e-09
3.4075e-08
8.29012e-10
3.67141e-09
3.3715e-09
8.43535e-10
5.12253e-15
2.91172e-10
2.73296e-07
1.88438e-06
1.13017e-06
4.05151e-07
1.98768e-08
2.43799e-07
2.47962e-06
2.32742e-06
1.25715e-06
7.64701e-07
4.14859e-08
4.48906e-07
1.88606e-09
1.54853e-09
2.24708e-10
-2.86864e-15
1.31192e-21
-9.42856e-16
1.14523e-08
4.99825e-09
-3.27622e-09
-1.10763e-08
-6.63238e-11
-1.77711e-08
-1.76567e-11
-4.13296e-13
1.83195e-12
-2.2441e-12
3.95034e-13
-5.18906e-12
-2.45494e-12
-2.81216e-12
-3.01529e-13
-6.98649e-17
1.17862e-13
-9.14757e-17
0.020369
0.0209774
0.0189213
0.0169449
0.0125134
0.0190472
3.37486e-14
1.67044e-14
4.75234e-15
2.21951e-14
5.49208e-14
3.53915e-14
7.23791e-19
3.99984e-19
7.08473e-20
3.89847e-17
4.54644e-11
1.05712e-15
)
;

boundaryField
{
    seabed_topleft_surface
    {
        type            zeroGradient;
    }
    seabed_topright_surface
    {
        type            zeroGradient;
    }
    breakwater_top_surface
    {
        type            zeroGradient;
    }
    breakwater_left_surface
    {
        type            zeroGradient;
    }
    breakwater_right_surface
    {
        type            zeroGradient;
    }
    water_front_surface
    {
        type            zeroGradient;
    }
    water_back_surface
    {
        type            zeroGradient;
    }
    water_left_surface
    {
        type            zeroGradient;
    }
    water_right_surface
    {
        type            zeroGradient;
    }
    water_top_surface
    {
        type            inletOutlet;
        inletValue      uniform 0;
        value           nonuniform List<scalar> 
180
(
0.00177641
0.00165981
0.00172603
0.001762
0.00171397
0.00178574
0.00179892
0.00155889
0.00166716
0.00167846
0.00160687
0.0017267
1.06928e-05
1.78458e-05
1.23944e-05
1.59725e-05
1.22735e-05
4.8055e-06
0.000298119
0.000294689
0.000298748
0.00031508
0.000302028
0.000263544
0.000958578
0.000894614
0.000912883
0.000969726
0.00105635
0.000984412
0
0
0
0
0
0
0
0
0
0
0
0
0
0
0
0
0
0
0
0
0
0
0
0
0
0
0
0
0
0
0
0
0
0
0
0
0
0
0
0
0
0
0
0
0
0
0
0
0
0
0
0
0
0
0
0
0
0
0
0
0
0
0
0
0
0
0
0
0
0
0
0
0
0
0
0
0
0
0.0276788
0
0.0128985
0.0100993
0
0.0261507
0
0.00264256
0.00130039
0.00127415
0.000741559
0
-2.34534e-10
0
0
1.14608e-10
7.53444e-18
1.34689e-08
0
0
0
0
0
0
0
0
0
0
0
0
0
0
0
0
0
0
4.88382e-14
2.87964e-14
5.13709e-12
5.70706e-13
2.37903e-13
3.04455e-14
1.13124e-11
1.64872e-10
7.12855e-10
8.69164e-11
5.40904e-13
4.80998e-12
8.29012e-10
3.67141e-09
3.3715e-09
8.43535e-10
5.12253e-15
2.91172e-10
0
0
0
0
0
0
0
0
0
0
0
0
0
0
0
0
0
0
)
;
    }
}


// ************************************************************************* //
