/*--------------------------------*- C++ -*----------------------------------*\
| =========                 |                                                 |
| \\      /  F ield         | OpenFOAM: The Open Source CFD Toolbox           |
|  \\    /   O peration     | Version:  v1612+                                |
|   \\  /    A nd           | Web:      www.OpenFOAM.com                      |
|    \\/     M anipulation  |                                                 |
\*---------------------------------------------------------------------------*/
FoamFile
{
    version     2.0;
    format      ascii;
    class       volScalarField;
    location    "7.1";
    object      p;
}
// * * * * * * * * * * * * * * * * * * * * * * * * * * * * * * * * * * * * * //

dimensions      [1 -1 -2 0 0 0 0];

internalField   nonuniform List<scalar> 
1116
(
18132.5
18132.5
18132.4
18132.4
18132.5
18132.5
17107.7
17107.9
17107.7
17107.7
17107.8
17107.7
14877.7
14878
14878
14877.9
14877.9
14877.9
12178.5
12179
12178.9
12178.9
12179
12178.8
9528.3
9528.65
9528.3
9529.36
9529.11
9528.84
7346.86
7352.75
7351.5
7350.74
7349.42
7355.26
5840.27
5840.05
5843.78
5845.2
5868.64
5848.49
5371.58
5366.88
5370.2
5370.23
5378.01
5367.14
5404.51
5398.3
5400.63
5403.53
5407.17
5397.95
5491.48
5490.37
5488.91
5495.77
5494.74
5500.32
5814.36
5828.31
5824.57
5816.32
5802.28
5837.59
6245.48
6247.5
6250.7
6242.36
6244.42
6248.65
11942.9
11942.8
11942.7
11942.9
11942.9
11942.8
9498.01
9498.16
9498.18
9498.18
9498.24
9498.09
6295.35
6296.45
6296.01
6295.9
6296.25
6295.5
3676.06
3677.12
3676.82
3676.61
3676.77
3676.73
1871.88
1870.94
1871.69
1872.26
1873.04
1871.34
929.965
926.192
927.067
928.711
936.886
927.542
587.103
585.151
585.525
586.782
590.347
585.343
607.638
603.716
605.014
607.882
609.343
601.748
822.047
823.199
821.961
822.733
820.339
825.629
1012.38
1014.24
1011.56
1016.67
1015.15
1027.77
1301.32
1307.21
1303.94
1303.5
1296.62
1307.05
1577.13
1581.95
1580.93
1573.35
1569.56
1576.81
6671.77
6671.52
6671.46
6671.55
6671.42
6671.43
2602.55
2603.09
2602.88
2603.06
2603.16
2603
848.209
848.127
848.919
848.076
847.308
849.916
205.841
206.433
206.437
206.119
206.392
206.449
-31.9912
-36.0798
-34.0045
-32.9683
-31.8033
-37.5279
75.5873
69.0203
70.2406
75.0319
79.6643
64.8501
156.814
155.545
155.74
157.288
157.012
155.356
134.9
137.526
136.724
136.33
136.013
139.412
97.0025
98.5447
97.3889
97.3113
95.6953
101.699
127.018
125.022
124.127
128.897
128.547
126.993
249.829
251.144
248.892
250.681
247.247
248.665
233.323
233.984
232.739
232.868
232.285
232.756
3744.78
3744.81
3744.31
3744.58
3744.14
3743.66
-33.2972
-33.7928
-33.4912
-33.531
-33.3772
-33.0839
-45.2916
-45.3736
-45.127
-45.561
-45.7843
-44.8063
-63.1299
-63.8013
-63.8163
-63.1479
-62.1094
-63.6157
-53.3609
-54.1405
-54.0906
-53.8553
-53.4692
-54.8065
-5.22982
-5.39329
-5.38804
-5.8853
-7.36606
-7.85754
22.8586
25.3516
25.1396
23.9865
22.0833
24.647
0.318952
1.58573
1.49538
0.855135
-0.261464
2.50902
-9.32617
-9.10859
-9.13035
-9.34057
-9.62915
-8.76605
-6.10578
-6.10579
-6.05065
-6.10755
-6.1404
-6.34009
4.39058
3.99616
4.04499
4.36133
4.35536
3.5486
-94.8224
-96.5594
-95.7999
-95.6007
-94.255
-96.0269
2103.65
2100.16
2139.64
2152.7
2168.92
2099.5
1840.69
1781.11
1900.71
1786.2
1781.79
1750.76
1250.25
1201.16
1255.13
1251.55
1275.28
1346.71
703.507
746.473
760.353
757.876
735.628
862.153
470.891
439.376
445.863
448.874
446.325
543.635
392.494
378.494
391.953
356.584
330.443
321.158
359.143
307.239
263.882
219.171
236.713
239.243
350.596
313.609
233.544
196.626
234.666
291.897
349.263
351.637
281.94
275.192
302.711
361.815
389.036
362.856
375.536
377.516
430.791
403.277
538.432
524.378
496.995
580.154
631.709
560.867
580.432
572.303
572.568
656.069
714.333
666.194
1213.29
1228.83
1212.55
1266.03
1186.09
1138.12
576.009
461.268
524.456
474.34
459.976
502.107
81.7225
56.3603
64.7293
63.825
69.3551
90.5081
-12.0044
-45.0542
-40.1143
-30.3947
-12.83
-19.7296
-34.7479
-37.3065
-32.901
-31.011
-23.7067
-13.1096
-24.4656
-21.2436
-16.754
-10.2468
-4.48842
5.1356
-26.225
-30.1047
-32.6491
-33.28
-31.772
-21.5498
-27.4506
-31.9461
-37.0233
-47.8313
-62.7367
-44.2383
-5.42514
-9.07157
-14.2675
-20.6019
-22.7752
-20.6043
17.625
15.956
10.1933
8.04267
9.33102
1.83685
57.6389
36.5527
34.8435
44.5862
63.5984
54.5897
89.7291
48.1939
55.2784
107.197
227.037
145.038
583.881
591.664
527.696
565.153
470.45
533.538
28.3911
75.8956
68.623
47.7076
30.3902
32.066
-21.9132
-18.4617
-19.9857
-18.8042
-16.0953
-18.7024
-22.0042
-24.7569
-22.2589
-22.1723
-20.4598
-18.3685
-16.178
-14.8055
-12.5109
-12.3416
-10.8626
-10.4495
-20.0988
-19.7042
-17.6683
-15.0289
-12.8351
-11.1848
-28.7921
-28.1617
-26.5156
-24.3928
-22.9806
-22.5407
-29.3983
-28.2532
-25.6443
-27.1514
-27.9329
-24.5326
-15.0376
-13.2815
-10.4405
-14.7161
-17.7465
-16.4295
-18.0988
-16.5491
-13.5774
-20.9851
-20.272
-21.7803
-8.89797
-9.60356
-8.20961
-7.28504
-4.11777
-4.43127
-39.8551
-22.987
-27.9199
-25.8004
-28.064
-26.1642
280.17
305.175
221.068
263.785
226.724
244.536
-13.7163
0.44985
-9.0724
-13.5128
-20.8601
-8.37667
-15.7622
-14.4866
-14.34
-14.9571
-15.6007
-16.4216
-26.3046
-28.5765
-29.0524
-28.2206
-28.0247
-25.7826
-30.3111
-30.2588
-30.1469
-29.5915
-29.3196
-28.9344
-36.4844
-37.5481
-37.244
-35.4227
-35.0327
-35.9944
-41.576
-43.0442
-43.3349
-41.178
-38.6926
-38.7154
-38.2681
-37.9773
-37.2864
-41.2353
-41.5295
-43.0417
-24.5342
-23.8566
-23.5499
-26.5382
-27.8177
-28.2945
-32.5185
-31.4636
-31.8386
-27.5514
-29.871
-31.7098
-12.8853
-10.0524
-13.485
-17.8196
-19.2912
-19.2096
-47.3573
-47.8401
-58.2247
-115.655
-120.118
-88.3051
2078.75
2089.61
2084.47
2081.3
2082.06
2078.16
99.4476
98.879
98.4294
94.8567
95.0787
99.0511
-92.8043
-92.0194
-92.5093
-92.4078
-92.006
-92.9885
-78.1884
-80.5273
-79.5415
-79.6053
-79.347
-78.6363
-116.071
-116.484
-116.428
-116.281
-114.959
-115.469
-103.666
-102.714
-103.165
-103.168
-102.471
-104.375
-63.3532
-63.7223
-63.5304
-63.6408
-63.7954
-63.5281
-58.6486
-58.3561
-58.5232
-58.106
-57.4416
-57.731
-70.0144
-70.4975
-70.2835
-69.897
-69.7468
-69.9332
-93.8405
-93.6969
-93.7486
-94.0735
-94.0086
-93.889
-87.4631
-87.5036
-87.6657
-87.8438
-87.9563
-87.6238
-91.4284
-91.8368
-91.9008
-91.7977
-92.0342
-90.9417
-72.2405
-73.1873
-73.0632
-72.9893
-72.9907
-74.6216
-77.4236
-77.9012
-78.2001
-79.2279
-80.6201
-79.9584
-112.123
-110.868
-111.3
-113.42
-116.272
-110.87
-31.1659
-31.9848
-32.2185
-32.5781
-32.5797
-33.9855
-40.8138
-43.0462
-43.5122
-42.509
-45.0497
-46.5785
-92.9292
-91.8219
-91.8415
-92.3843
-91.0633
-90.312
-18.8258
-17.9108
-18.2216
-19.5586
-20.4783
-20.5018
-43.6071
-43.1236
-43.0785
-43.4714
-43.355
-41.9291
-75.9867
-76.4929
-76.5121
-75.7005
-74.97
-76.2231
-26.8937
-27.049
-27.1561
-27.017
-27.1133
-26.8182
-42.5585
-42.5762
-42.5861
-42.5954
-42.5866
-42.5351
-63.718
-63.789
-63.7852
-63.7473
-63.7064
-63.7909
-24.0697
-24.047
-23.9833
-24.0402
-24.0158
-24.0582
-42.5705
-42.5567
-42.5216
-42.5066
-42.4737
-42.4507
-60.7603
-60.771
-60.7586
-60.7262
-60.7058
-60.7266
-32.0129
-31.8857
-31.8213
-32.0617
-31.9745
-31.6957
-49.7998
-49.7603
-49.7799
-49.8149
-49.8352
-49.7292
-61.3801
-61.3781
-61.3727
-61.374
-61.3729
-61.3632
-45.1843
-45.0594
-44.9897
-45.1508
-45.1225
-44.8804
-55.2465
-55.2302
-55.2309
-55.231
-55.2286
-55.2206
-64.39
-64.3895
-64.3851
-64.3827
-64.38
-64.3723
-7.91225
-9.90891
-8.79239
-7.72915
-6.74241
-9.33029
-50.6091
-50.585
-50.6401
-50.6532
-50.6627
-50.6444
-70.1008
-70.0259
-70.0721
-70.0902
-70.1288
-70.0486
201.207
201.144
200.043
197.939
194.62
199.664
-47.9767
-47.741
-47.6518
-47.5952
-47.7155
-47.4851
-71.2043
-71.1906
-71.1976
-71.4013
-71.6495
-71.5746
218.895
219.243
221.033
223.135
226.188
222.763
-51.3305
-51.3146
-51.2773
-51.2001
-51.0944
-51.1024
-69.9851
-70.0163
-70.0457
-70.1136
-70.1175
-70.0901
234.421
234.623
234.926
235.14
235.121
235.092
-49.5558
-49.5342
-49.5172
-49.547
-49.577
-49.5309
-69.2404
-69.251
-69.2636
-69.2893
-69.3089
-69.3092
233.465
233.468
233.56
233.939
234.172
234.116
-50.253
-50.2435
-50.2292
-50.2041
-50.1807
-50.1678
-69.2595
-69.2671
-69.2774
-69.2874
-69.2908
-69.2928
228.065
228.044
228.12
228.292
228.391
228.484
-49.4606
-49.4467
-49.4307
-49.42
-49.4133
-49.4164
-70.0148
-70.0205
-70.0315
-70.0481
-70.0566
-70.053
192.812
192.473
192.758
192.561
192.624
192.617
-47.127
-47.1247
-47.1122
-47.1023
-47.0866
-47.1022
-71.8122
-71.8225
-71.8414
-71.8604
-71.8682
-71.8612
179.128
171.743
112.823
147.003
124.783
160.436
-157.79
220.563
-186.41
-131.024
30.5744
-107.315
-130.702
-85.8433
-130.342
-131.36
-102.053
-133.503
-33.707
-31.992
-42.0521
-43.0682
-48.0994
-42.3908
-68.4907
-70.5251
-82.9747
-74.4673
-70.7024
-65.5075
-81.5808
-88.2965
-93.2499
-91.7718
-89.1388
-84.2238
-24.4842
-24.2235
-24.0312
-25.9692
-28.9073
-29.8122
-42.1187
-40.6073
-42.4828
-43.3513
-44.5268
-46.8942
-63.3254
-60.5218
-62.641
-62.608
-63.2248
-65.3147
-33.0413
-34.1995
-35.2216
-36.554
-37.9692
-37.1511
-52.3706
-52.871
-53.3981
-53.4886
-53.1368
-53.3975
-66.7974
-67.5404
-67.7344
-67.9621
-67.1185
-66.9731
-34.3741
-34.224
-33.9766
-34.1775
-34.2898
-34.1986
-50.6146
-50.4242
-50.5572
-50.8162
-51.1309
-51.3697
-61.5362
-61.5101
-61.495
-61.5886
-61.6476
-61.7278
-38.2189
-37.773
-38.0887
-38.3716
-38.4996
-38.0226
-53.1976
-53.1156
-53.2129
-53.3406
-53.4605
-53.4565
-62.1462
-62.0714
-62.0629
-62.2478
-62.2804
-62.281
-39.9616
-40.4464
-40.8198
-40.5558
-40.3067
-40.2931
-52.8498
-52.2548
-52.2249
-52.6742
-53.0738
-53.1522
-61.7183
-61.6909
-61.5837
-61.6268
-61.6529
-61.7221
-41.7727
-42.1691
-42.3108
-41.8102
-41.4012
-40.9311
-54.6962
-54.7754
-55.1561
-54.8176
-54.7288
-54.9258
-61.9772
-61.9181
-61.918
-61.7441
-61.7889
-61.845
-34.7909
-35.6948
-37.1417
-37.5284
-37.9477
-36.7689
-55.5263
-56.1178
-56.243
-55.4694
-54.3957
-54.5403
-60.6408
-60.5281
-60.5773
-60.701
-60.8452
-60.8743
-38.753
-39.8668
-41.519
-42.6485
-41.9121
-41.9717
-58.8062
-58.813
-58.6507
-58.3108
-57.6345
-58.0039
-60.7818
-60.7467
-60.8348
-60.9179
-61.0174
-61.0382
-44.6238
-46.2257
-45.8265
-49.6933
-46.7047
-47.3574
-60.7592
-60.7584
-60.4445
-60.3648
-59.3093
-59.8722
-61.2733
-61.3486
-61.6162
-61.9947
-62.1874
-62.103
-4.14997
-8.10442
-11.61
-15.782
-23.8074
-10.4874
-58.1679
-58.0054
-57.497
-57.531
-57.0724
-57.2274
-72.7585
-72.8477
-72.4413
-72.1736
-71.5247
-72.2923
)
;

boundaryField
{
    seabed_topleft_surface
    {
        type            calculated;
        value           nonuniform List<scalar> 
72
(
21512.9
21512.8
21512.8
21512.8
21512.8
21512.8
21735.2
21735.8
21735.5
21735.4
21735.6
21735.4
19673.7
19673.9
19673.9
19673.8
19673.8
19673.8
16974.5
16974.9
16974.8
16974.8
16974.9
16974.7
14324.2
14324.6
14324.2
14325.3
14325
14324.8
11832.3
11837.2
11835.9
11836.6
11835.4
11839.4
10081.1
10083.4
10087
10086.7
10107.9
10092.9
9479.77
9476.8
9480.76
9477.91
9484.04
9478.25
9442.01
9435.29
9438.87
9440.02
9443.6
9435.69
9489.92
9485.18
9485.52
9493.23
9494.63
9494.8
9806.86
9817.33
9815.28
9807.87
9796.22
9826.55
10234.6
10233.9
10238
10230.6
10235.1
10235.5
)
;
    }
    seabed_topright_surface
    {
        type            calculated;
        value           nonuniform List<scalar> 
72
(
2560.44
2556.98
2596.6
2609.54
2625.78
2556.35
2297.44
2237.9
2357.53
2243.26
2238.65
2207.64
1701.81
1398.49
1540.9
1553.16
1732.13
1803.57
876.479
1038.18
1108.31
1010.95
1060.58
1318.99
756.007
802.876
809.454
812.354
773.247
1000.17
754.79
718.923
746.406
659.937
659.282
545.163
721.617
624.852
521.006
355.368
527.822
326.205
712.965
668.535
460.023
388.136
492.379
490.953
711.584
713.175
551.769
593.825
620.355
735.913
750.935
707.816
746.166
744.765
790.919
777.376
865.269
790.518
885.84
976.908
1029.9
928.403
786.012
845.759
957.579
1054.26
1112.53
944.972
)
;
    }
    breakwater_top_surface
    {
        type            calculated;
        value           nonuniform List<scalar> 
36
(
468.055
465.716
463.121
461.442
458.942
464.998
492.892
493.391
497.655
502.605
509.55
500.891
522.082
522.492
523.097
523.538
523.524
523.376
520.365
520.379
520.504
521.24
521.632
521.611
513.479
513.474
513.567
514.011
514.233
514.452
455.562
454.776
455.294
455.237
455.391
455.061
)
;
    }
    breakwater_left_surface
    {
        type            calculated;
        value           nonuniform List<scalar> 
24
(
6259.14
6261.16
6264.35
6256.02
6258.09
6262.31
1581.09
1585.91
1584.91
1577.3
1573.53
1580.78
233.765
234.449
233.196
233.307
232.705
233.213
-94.3726
-96.1017
-95.348
-95.1562
-93.811
-95.5757
)
;
    }
    breakwater_right_surface
    {
        type            calculated;
        value           nonuniform List<scalar> 
24
(
581.136
573.24
573.886
657.433
715.697
667.149
90.4042
48.4488
55.346
107.842
228.237
145.673
-39.7536
-22.9704
-27.8862
-25.7836
-28.0471
-26.148
-47.2576
-47.6192
-57.9272
-115.419
-119.981
-88.1336
)
;
    }
    water_front_surface
    {
        type            calculated;
        value           nonuniform List<scalar> 
186
(
18132.5
17107.7
14877.7
12178.5
9528.3
7346.86
5840.27
5371.58
5404.51
5491.48
5814.36
6245.48
11942.9
9498.01
6295.35
3676.06
1871.88
929.965
587.103
607.638
822.047
1012.38
1301.32
1577.13
6671.77
2602.55
848.209
205.841
-31.9912
75.5873
156.814
134.9
97.0025
127.018
249.829
233.323
3744.78
-33.2972
-45.2916
-63.1299
-53.3609
-5.22982
22.8586
0.318952
-9.32617
-6.10578
4.39058
-94.8224
2103.65
1840.69
1250.25
703.507
470.891
392.494
359.143
350.596
349.263
389.036
538.432
580.432
1213.29
576.009
81.7225
-12.0044
-34.7479
-24.4656
-26.225
-27.4506
-5.42514
17.625
57.6389
89.7291
583.881
28.3911
-21.9132
-22.0042
-16.178
-20.0988
-28.7921
-29.3983
-15.0376
-18.0988
-8.89797
-39.8551
280.17
-13.7163
-15.7622
-26.3046
-30.3111
-36.4844
-41.576
-38.2681
-24.5342
-32.5185
-12.8853
-47.3573
2078.75
99.4476
-92.8043
-78.1884
-116.071
-103.666
-63.3532
-58.6486
-70.0144
-93.8405
-87.4631
-91.4284
-72.2405
-77.4236
-112.123
-31.1659
-40.8138
-92.9292
-18.8258
-43.6071
-75.9867
-26.8937
-42.5585
-63.718
-24.0697
-42.5705
-60.7603
-32.0129
-49.7998
-61.3801
-45.1843
-55.2465
-64.39
-7.91225
-50.6091
-70.1008
201.207
-47.9767
-71.2043
218.895
-51.3305
-69.9851
234.421
-49.5558
-69.2404
233.465
-50.253
-69.2595
228.065
-49.4606
-70.0148
192.812
-47.127
-71.8122
179.128
-157.79
-130.702
-33.707
-68.4907
-81.5808
-24.4842
-42.1187
-63.3254
-33.0413
-52.3706
-66.7974
-34.3741
-50.6146
-61.5362
-38.2189
-53.1976
-62.1462
-39.9616
-52.8498
-61.7183
-41.7727
-54.6962
-61.9772
-34.7909
-55.5263
-60.6408
-38.753
-58.8062
-60.7818
-44.6238
-60.7592
-61.2733
-4.14997
-58.1679
-72.7585
)
;
    }
    water_back_surface
    {
        type            calculated;
        value           nonuniform List<scalar> 
186
(
18132.5
17107.7
14877.9
12178.8
9528.84
7355.26
5848.49
5367.14
5397.95
5500.32
5837.59
6248.65
11942.8
9498.09
6295.5
3676.73
1871.34
927.542
585.343
601.748
825.629
1027.77
1307.05
1576.81
6671.43
2603
849.916
206.449
-37.5279
64.8501
155.356
139.412
101.699
126.993
248.665
232.756
3743.66
-33.0839
-44.8063
-63.6157
-54.8065
-7.85754
24.647
2.50902
-8.76605
-6.34009
3.5486
-96.0269
2099.5
1750.76
1346.71
862.153
543.635
321.158
239.243
291.897
361.815
403.277
560.867
666.194
1138.12
502.107
90.5081
-19.7296
-13.1096
5.1356
-21.5498
-44.2383
-20.6043
1.83685
54.5897
145.038
533.538
32.066
-18.7024
-18.3685
-10.4495
-11.1848
-22.5407
-24.5326
-16.4295
-21.7803
-4.43127
-26.1642
244.536
-8.37667
-16.4216
-25.7826
-28.9344
-35.9944
-38.7154
-43.0417
-28.2945
-31.7098
-19.2096
-88.3051
2078.16
99.0511
-92.9885
-78.6363
-115.469
-104.375
-63.5281
-57.731
-69.9332
-93.889
-87.6238
-90.9417
-74.6216
-79.9584
-110.87
-33.9855
-46.5785
-90.312
-20.5018
-41.9291
-76.2231
-26.8182
-42.5351
-63.7909
-24.0582
-42.4507
-60.7266
-31.6957
-49.7292
-61.3632
-44.8804
-55.2206
-64.3723
-9.33029
-50.6444
-70.0486
199.664
-47.4851
-71.5746
222.763
-51.1024
-70.0901
235.092
-49.5309
-69.3092
234.116
-50.1678
-69.2928
228.484
-49.4164
-70.053
192.617
-47.1022
-71.8612
160.436
-107.315
-133.503
-42.3908
-65.5075
-84.2238
-29.8122
-46.8942
-65.3147
-37.1511
-53.3975
-66.9731
-34.1986
-51.3697
-61.7278
-38.0226
-53.4565
-62.281
-40.2931
-53.1522
-61.7221
-40.9311
-54.9258
-61.845
-36.7689
-54.5403
-60.8743
-41.9717
-58.0039
-61.0382
-47.3574
-59.8722
-62.103
-10.4874
-57.2274
-72.2923
)
;
    }
    water_left_surface
    {
        type            calculated;
        value           nonuniform List<scalar> 
42
(
18144.1
18144.1
18144
18144
18144
18144
11955.6
11955.5
11955.4
11955.5
11955.5
11955.5
6684.17
6683.93
6683.86
6683.96
6683.83
6683.83
3756.94
3756.97
3756.47
3756.75
3756.31
3755.83
2078.75
2089.61
2084.47
2081.3
2082.06
2078.16
99.4476
98.879
98.4294
94.8567
95.0787
99.0511
-92.8043
-92.0194
-92.5093
-92.4078
-92.006
-92.9885
)
;
    }
    water_right_surface
    {
        type            calculated;
        value           nonuniform List<scalar> 
42
(
2105.22
2101.73
2141.21
2154.27
2170.49
2101.06
1214.82
1230.05
1214.08
1267.56
1187.62
1139.65
585.383
593.138
529.046
566.292
471.7
535.041
281.643
306.647
222.537
264.3
227.486
246.009
179.128
171.743
112.823
147.003
124.783
160.436
-157.79
220.563
-186.41
-131.024
30.5744
-107.315
-130.702
-85.8433
-130.342
-131.36
-102.053
-133.503
)
;
    }
    water_top_surface
    {
        type            calculated;
        value           nonuniform List<scalar> 
180
(
-190.534
-182.535
-187.078
-189.545
-186.251
-191.174
-192.079
-175.612
-183.04
-183.815
-178.903
-187.124
-69.4035
-69.8942
-69.5203
-69.7657
-69.512
-68.9997
-89.1213
-88.8861
-89.1645
-90.2849
-89.3896
-86.7495
-134.43
-130.042
-131.295
-135.195
-141.137
-136.202
-73.8579
-71.4319
-71.197
-74.4741
-78.2048
-69.3956
-83.3614
-83.7133
-83.7689
-83.1718
-83.01
-83.8292
-73.7098
-73.8226
-73.8112
-73.7661
-73.7357
-73.876
-69.8738
-69.8748
-69.8735
-69.8677
-69.8668
-69.8679
-69.9944
-69.9906
-69.9938
-69.9912
-70.0065
-69.9817
-71.7329
-71.7289
-71.7304
-71.7283
-71.7393
-71.7186
-70.3515
-70.3827
-70.3875
-70.3777
-70.3723
-70.3832
-68.9619
-68.9382
-68.9283
-68.953
-69.0108
-68.9463
-70.4687
-70.5151
-70.5268
-70.4935
-70.4583
-70.4393
-69.8202
-69.8124
-69.7977
-69.7974
-69.7933
-69.7922
-70.0993
-70.1085
-70.1077
-70.1057
-70.1063
-70.0961
-70.3251
-70.3311
-70.3276
-70.3233
-70.3266
-70.3215
-69.3335
-69.3305
-69.3285
-69.3256
-69.324
-69.3241
-1967.48
-73.9632
-953.527
-761.495
-71.705
-1862.64
-68.6814
-249.953
-157.879
-156.078
-119.542
-71.59
-68.67
-68.6954
-69.2483
-68.67
-68.67
-68.6709
-71.5667
-72.149
-72.1797
-72.258
-72.0382
-71.8652
-68.6747
-68.6727
-68.6748
-68.6744
-68.6785
-68.6774
-68.8732
-68.8479
-68.8584
-68.9189
-68.9522
-68.9318
-68.67
-68.67
-68.67
-68.67
-68.67
-68.67
-68.67
-68.67
-68.67
-68.67
-68.67
-68.67
-68.6701
-68.6703
-68.6702
-68.6701
-68.67
-68.67
-68.9228
-68.9639
-69.0098
-69.0153
-69.041
-69.0315
-70.033
-70.1602
-70.2985
-70.3653
-70.4122
-70.2939
-70.8349
-70.5047
-70.1369
-70.4529
-71.0347
-70.551
)
;
    }
}


// ************************************************************************* //
