/*--------------------------------*- C++ -*----------------------------------*\
| =========                 |                                                 |
| \\      /  F ield         | OpenFOAM: The Open Source CFD Toolbox           |
|  \\    /   O peration     | Version:  v1612+                                |
|   \\  /    A nd           | Web:      www.OpenFOAM.com                      |
|    \\/     M anipulation  |                                                 |
\*---------------------------------------------------------------------------*/
FoamFile
{
    version     2.0;
    format      ascii;
    class       volScalarField;
    location    "7.1";
    object      p_rgh;
}
// * * * * * * * * * * * * * * * * * * * * * * * * * * * * * * * * * * * * * //

dimensions      [1 -1 -2 0 0 0 0];

internalField   nonuniform List<scalar> 
1116
(
21512.9
21512.8
21512.8
21512.8
21512.8
21512.8
21735.2
21735.8
21735.5
21735.4
21735.6
21735.4
19673.7
19673.9
19673.9
19673.8
19673.8
19673.8
16974.5
16974.9
16974.8
16974.8
16974.9
16974.7
14324.2
14324.6
14324.2
14325.3
14325
14324.8
11832.3
11837.2
11835.9
11836.6
11835.4
11839.4
10081.1
10083.4
10087
10086.7
10107.9
10092.9
9479.77
9476.8
9480.76
9477.91
9484.04
9478.25
9442.01
9435.29
9438.87
9440.02
9443.6
9435.69
9489.92
9485.18
9485.52
9493.23
9494.63
9494.8
9806.86
9817.33
9815.28
9807.87
9796.22
9826.55
10234.6
10233.9
10238
10230.6
10235.1
10235.5
23231.3
23230.1
23230.5
23231.2
23230.9
23231
23349.2
23350
23349.7
23349.3
23349.6
23349.2
18023.4
18025.7
18024.9
18024.5
18025.4
18023.9
12645.4
12646.6
12646.6
12645.9
12645.9
12646
7566.32
7563.69
7564.29
7566.61
7567.49
7564.38
4129.26
4141.9
4139.19
4134.3
4135.41
4146.38
2309.55
2279.38
2283.88
2307.08
2337.55
2266.52
2273.54
2261.28
2266.37
2268.94
2270.99
2257.55
2806.39
2804.31
2807.56
2802.43
2789.3
2815.84
2948.42
2946.33
2943.8
2953.21
2944.85
2971.95
3435.49
3503.31
3491.06
3440.99
3385.88
3538.85
5106.8
5111.56
5129.26
5100.7
5103.95
5119.64
25478
25477.7
25477.6
25477.6
25477.4
25477.4
14668.8
14669
14669.1
14669.5
14668.7
14670.1
5108.15
5114.71
5112.15
5111.52
5112.68
5110.91
1539.24
1544.71
1543.22
1540.61
1540.45
1542.61
369.854
376.871
373.308
374.826
378.955
367.301
108.881
97.7056
98.9577
106.48
112.528
92.6621
191.363
188.319
188.5
190.52
188.843
186.097
301.912
283.23
283.781
304.712
334.793
267.72
458.973
448.826
444.687
463.817
477.674
438.252
638.328
640.093
630.987
646.469
636.892
638.565
830.602
848.58
835.057
836.623
814.431
841.528
903.816
938.383
925.302
898.096
867.825
925.927
30068.2
30068.2
30067.4
30067.8
30067.2
30066.6
2282.97
2283.75
2282.33
2284.72
2286.06
2279.9
-10.8448
-10.9354
-10.689
-11.118
-11.33
-10.368
-28.2932
-29.2576
-29.2825
-28.4229
-27.09
-29.0514
-17.8581
-19.0355
-19
-18.5015
-17.7008
-19.677
38.3234
31.6269
31.6651
34.8282
42.9373
28.3247
186.253
157.274
158.68
185.733
198.254
144.406
182.822
191.448
192.993
189.091
178.581
186.995
30.0663
32.661
31.6721
28.3395
24.767
36.4771
28.4091
28.3931
28.4575
28.4116
28.3844
28.1611
304.352
280.831
285.478
307.461
318.74
273.215
878.542
893.912
882.051
866.262
866.592
880.336
2560.44
2556.98
2596.6
2609.54
2625.78
2556.35
2297.44
2237.9
2357.53
2243.26
2238.65
2207.64
1701.81
1398.49
1540.9
1553.16
1732.13
1803.57
876.479
1038.18
1108.31
1010.95
1060.58
1318.99
756.007
802.876
809.454
812.354
773.247
1000.17
754.79
718.923
746.406
659.937
659.282
545.163
721.617
624.852
521.006
355.368
527.822
326.205
712.965
668.535
460.023
388.136
492.379
490.953
711.584
713.175
551.769
593.825
620.355
735.913
750.935
707.816
746.166
744.765
790.919
777.376
865.269
790.518
885.84
976.908
1029.9
928.403
786.012
845.759
957.579
1054.26
1112.53
944.972
2580.37
2317.44
2579.84
2633.79
2553.44
2505.56
1830.86
1033.82
1500.48
1325.38
1072.66
1869.71
261.074
189.995
130.694
184.855
234.573
340.428
59.7571
7.57153
27.1139
24.297
67.6765
42.639
7.851
-22.5749
-18.0945
-16.2793
8.67533
8.58457
-9.73405
-6.51207
-2.02245
4.48471
11.5699
37.4798
-11.4935
-15.3731
-17.9175
-18.148
-12.0049
55.5872
-12.7191
-17.2145
-22.2916
-32.6411
-46.2731
28.3771
9.3064
5.65997
0.464061
-5.87024
-8.04359
3.23694
32.3566
30.6875
24.925
22.7771
24.0716
17.5599
125.294
100.518
60.0209
126.229
208.183
110.47
691.834
275.562
115.532
682.063
1297.51
711.129
2860.72
2826.5
2573.75
2292.56
2365.4
2811.26
1659.57
282.388
772.306
493.065
365.894
1773.69
6.17233
6.10657
4.57458
5.74821
8.47448
48.725
2.54384
-0.215104
2.28275
2.36909
4.08211
6.18534
8.36336
9.73573
12.0303
12.1996
13.6786
14.0919
4.44247
4.83702
6.87288
9.51231
11.7061
13.3565
-4.25072
-3.61977
-1.97435
0.148707
1.64766
2.00074
-4.85711
-3.71197
-1.10306
-2.60869
-3.28193
0.00868579
9.50361
11.2619
14.101
9.8252
6.79481
8.11183
6.44246
7.99388
10.9642
3.55823
4.26932
2.76095
15.6728
14.9734
16.3386
17.2628
20.4384
20.1104
114.025
2.11091
23.2273
-0.352464
-2.53842
-1.56183
3466.42
3491.3
3399.61
1379.6
1876.04
3431.68
1176.38
473.952
371.953
147.806
210.681
787.599
18.75
19.9287
20.0323
19.4071
18.7558
17.9967
8.04855
5.77524
5.29849
6.13022
6.32615
8.5691
4.03981
4.09209
4.20398
4.75934
5.03131
5.41648
-2.13336
-3.19668
-2.89315
-1.07166
-0.6813
-1.63829
-7.22469
-8.69238
-8.98402
-6.82674
-4.33881
-4.36393
-3.91713
-3.6264
-2.9355
-6.88434
-7.17863
-8.69081
9.81675
10.5049
10.8307
7.81278
6.53316
6.05649
1.83418
2.97954
2.70789
6.80358
4.47983
2.64137
21.4711
24.3534
20.9722
58.6393
65.7317
21.8851
168.413
430.099
585.498
395.098
176.435
282.663
30754.5
30717.1
30730.3
30738
30730
30737.7
4941.15
4814.97
4866.05
4892.25
4871.37
4904.75
84.12
77.4773
81.2059
83.5985
80.9411
84.5303
1999.99
2008.44
2002.2
2005.92
2010.5
1991.62
692.303
686.361
689.352
688.105
686.137
688.679
74.6923
60.3539
66.8002
67.5172
63.653
69.383
-19.096
-19.4654
-19.2734
-19.3839
-19.5383
-19.2707
-4.54299
-4.26396
-4.43134
-4.00633
-3.32419
-3.63861
-5.56828
-5.59566
-5.72897
-5.11456
-5.19992
-5.86212
-49.5724
-49.4398
-49.4917
-49.8101
-49.7307
-49.6316
-33.0097
-33.3155
-33.4824
-33.3828
-32.159
-33.4218
-8.67291
-9.29971
-9.10517
-7.96169
-9.02966
-10.3886
-12.9953
-28.5398
-28.6843
-20.9451
-3.95267
-28.4887
30.181
12.6233
11.6279
22.7006
36.5265
12.1499
12.7048
9.88481
10.6172
12.1178
14.7838
15.6028
99.1476
67.3299
65.6649
92.3846
93.3659
69.6584
101.55
97.4419
94.6497
93.6438
87.939
85.7764
-16.8653
-9.88318
-8.7667
-16.8417
-22.0765
-4.36928
108.29
130.7
133.372
111.28
100.888
118.363
10.3479
10.8314
12.4055
10.4836
10.6
17.8795
-12.2217
-12.7279
-12.7471
-11.9355
-11.205
-12.4581
17.2513
17.0961
16.9889
17.128
17.0318
17.3268
11.3965
11.3788
11.3689
11.3596
11.3684
11.4199
0.0469749
-0.0240088
-0.020181
0.0177034
0.0585631
-0.0258642
20.0756
20.0983
20.162
20.1051
20.1294
20.0871
11.3845
11.3983
11.4335
11.4484
11.4813
11.5045
3.00931
2.99863
3.01106
3.0436
3.06415
3.04306
12.1346
12.2619
12.3264
12.0859
12.1728
12.452
4.15916
4.19898
4.1793
4.14405
4.1234
4.23008
2.41131
2.41329
2.41871
2.41743
2.41851
2.4282
-1.03942
-0.914538
-0.844789
-1.006
-0.978493
-0.735497
-1.29146
-1.27521
-1.27595
-1.27596
-1.2736
-1.26563
-0.624341
-0.623869
-0.619431
-0.617055
-0.614315
-0.60666
531.497
495.324
514.201
533.762
549.074
504.896
3.34593
3.37004
3.3149
3.30178
3.29231
3.31059
-6.33584
-6.26088
-6.30709
-6.32518
-6.36379
-6.28355
2602.83
2582.3
2567.75
2569.47
2573.52
2587.67
5.97831
6.21397
6.30319
6.35979
6.23954
6.46993
-7.43931
-7.42558
-7.43262
-7.63632
-7.8845
-7.80957
2684.87
2686.58
2710.64
2738.36
2776.44
2725.91
2.62451
2.64039
2.67773
2.75492
2.86055
2.85256
-6.22008
-6.25127
-6.28069
-6.34856
-6.35248
-6.32505
2823.37
2825.44
2828.46
2830.72
2830.75
2829.65
4.39923
4.42084
4.43776
4.40797
4.37796
4.42407
-5.47541
-5.48604
-5.49858
-5.52431
-5.54386
-5.54424
2815.57
2815.66
2816.06
2819.65
2821.31
2821.57
3.702
3.71151
3.72584
3.75087
3.77429
3.78722
-5.49453
-5.50214
-5.51235
-5.52242
-5.52579
-5.52778
2796.79
2796.92
2797.14
2799.76
2800.97
2802.19
4.49444
4.50833
4.52435
4.53503
4.54172
4.53856
-6.24975
-6.25548
-6.26651
-6.28309
-6.29159
-6.288
2557.56
2553.2
2555.58
2556.64
2557.52
2554.61
6.82805
6.83029
6.84281
6.85271
6.86841
6.85276
-8.04721
-8.05754
-8.07637
-8.09543
-8.10319
-8.09615
4273.68
4266.06
4206.97
3775.4
2714.43
4254.5
4838.13
4341.46
4720.64
4143.8
1323.51
4673.45
1696.24
10.6008
755.076
575.742
-38.2881
1596.09
669.195
546.554
382.783
193.547
142.475
597.608
-14.4573
471.029
95.3729
113.059
116.281
-11.5525
-17.8158
143.803
53.3517
53.1582
21.8644
-20.4588
19.6772
19.9253
20.1138
18.1758
15.2375
14.3384
11.8363
13.3477
11.4722
10.6037
9.42845
7.06085
0.439547
3.24315
1.12405
1.15698
0.540236
-1.54883
11.1035
9.94547
8.92342
7.59105
6.17583
7.00461
1.58437
1.08398
0.557136
0.466374
0.818248
0.557505
-3.03235
-3.77495
-3.96901
-4.19706
-3.35348
-3.20813
9.77094
9.92102
10.1684
9.96751
9.85522
9.94641
3.34043
3.53083
3.39783
3.13879
2.82412
2.58535
2.22884
2.25485
2.26998
2.17641
2.11743
2.03723
5.92612
6.3721
6.05626
5.77343
5.64541
6.12246
0.757402
0.8394
0.742061
0.614394
0.494466
0.49849
1.61884
1.69364
1.70214
1.5172
1.48461
1.48397
4.1836
3.69902
3.32519
3.58924
3.83833
3.85193
1.10525
1.70018
1.73007
1.28082
0.881228
0.802793
2.04665
2.0741
2.18131
2.13823
2.11209
2.04287
2.37233
1.97602
1.8342
2.33485
2.7438
3.21391
-0.741231
-0.820224
-1.20064
-0.862488
-0.773756
-0.970816
1.7878
1.84696
1.84702
2.02086
1.97607
1.92004
9.35434
8.45442
7.00769
6.618
6.19859
7.37669
-1.57068
-2.15491
-2.27879
-1.51128
-0.440597
-0.583477
3.12427
3.23711
3.1879
3.06405
2.91979
2.89068
5.40406
4.36133
2.6758
1.51434
2.2338
2.18406
-4.71755
-4.7325
-4.6279
-4.3146
-3.67728
-4.0247
2.98334
3.01841
2.93026
2.84712
2.74763
2.72677
-0.478257
-2.08047
-1.68167
-5.5488
-2.55973
-3.21314
-6.8042
-6.80336
-6.48947
-6.4098
-5.35434
-5.9172
2.49166
2.41643
2.14882
1.77034
1.57756
1.662
938.285
961.16
866.979
775.645
572.187
873.654
-4.21293
-4.05041
-3.54195
-3.57602
-3.11737
-3.27238
-8.99353
-9.08271
-8.67625
-8.40859
-7.75973
-8.52725
)
;

boundaryField
{
    seabed_topleft_surface
    {
        type            fixedFluxPressure;
        gradient        uniform 0;
        value           nonuniform List<scalar> 
72
(
21512.9
21512.8
21512.8
21512.8
21512.8
21512.8
21735.2
21735.8
21735.5
21735.4
21735.6
21735.4
19673.7
19673.9
19673.9
19673.8
19673.8
19673.8
16974.5
16974.9
16974.8
16974.8
16974.9
16974.7
14324.2
14324.6
14324.2
14325.3
14325
14324.8
11832.3
11837.2
11835.9
11836.6
11835.4
11839.4
10081.1
10083.4
10087
10086.7
10107.9
10092.9
9479.77
9476.8
9480.76
9477.91
9484.04
9478.25
9442.01
9435.29
9438.87
9440.02
9443.6
9435.69
9489.92
9485.18
9485.52
9493.23
9494.63
9494.8
9806.86
9817.33
9815.28
9807.87
9796.22
9826.55
10234.6
10233.9
10238
10230.6
10235.1
10235.5
)
;
    }
    seabed_topright_surface
    {
        type            fixedFluxPressure;
        gradient        uniform 0;
        value           nonuniform List<scalar> 
72
(
2560.44
2556.98
2596.6
2609.54
2625.78
2556.35
2297.44
2237.9
2357.53
2243.26
2238.65
2207.64
1701.81
1398.49
1540.9
1553.16
1732.13
1803.57
876.479
1038.18
1108.31
1010.95
1060.58
1318.99
756.007
802.876
809.454
812.354
773.247
1000.17
754.79
718.923
746.406
659.937
659.282
545.163
721.617
624.852
521.006
355.368
527.822
326.205
712.965
668.535
460.023
388.136
492.379
490.953
711.584
713.175
551.769
593.825
620.355
735.913
750.935
707.816
746.166
744.765
790.919
777.376
865.269
790.518
885.84
976.908
1029.9
928.403
786.012
845.759
957.579
1054.26
1112.53
944.972
)
;
    }
    breakwater_top_surface
    {
        type            fixedFluxPressure;
        gradient        uniform 0;
        value           nonuniform List<scalar> 
36
(
2602.83
2582.3
2567.75
2569.47
2573.52
2587.67
2684.87
2686.58
2710.64
2738.36
2776.44
2725.91
2823.37
2825.44
2828.46
2830.72
2830.75
2829.65
2815.57
2815.66
2816.06
2819.65
2821.31
2821.57
2796.79
2796.92
2797.14
2799.76
2800.97
2802.19
2557.56
2553.2
2555.58
2556.64
2557.52
2554.61
)
;
    }
    breakwater_left_surface
    {
        type            fixedFluxPressure;
        gradient        uniform 0;
        value           nonuniform List<scalar> 
24
(
10234.6
10233.9
10238
10230.6
10235.1
10235.5
5106.8
5111.56
5129.26
5100.7
5103.95
5119.64
903.816
938.383
925.302
898.096
867.825
925.927
878.542
893.912
882.051
866.262
866.592
880.336
)
;
    }
    breakwater_right_surface
    {
        type            fixedFluxPressure;
        gradient        uniform 0;
        value           nonuniform List<scalar> 
24
(
786.012
845.759
957.579
1054.26
1112.53
944.972
691.834
275.562
115.532
682.063
1297.51
711.129
114.025
2.11091
23.2273
-0.352464
-2.53842
-1.56183
168.413
430.099
585.498
395.098
176.435
282.663
)
;
    }
    water_front_surface
    {
        type            fixedFluxPressure;
        gradient        uniform 0;
        value           nonuniform List<scalar> 
186
(
21512.9
21735.2
19673.7
16974.5
14324.2
11832.3
10081.1
9479.77
9442.01
9489.92
9806.86
10234.6
23231.3
23349.2
18023.4
12645.4
7566.32
4129.26
2309.55
2273.54
2806.39
2948.42
3435.49
5106.8
25478
14668.8
5108.15
1539.24
369.854
108.881
191.363
301.912
458.973
638.328
830.602
903.816
30068.2
2282.97
-10.8448
-28.2932
-17.8581
38.3234
186.253
182.822
30.0663
28.4091
304.352
878.542
2560.44
2297.44
1701.81
876.479
756.007
754.79
721.617
712.965
711.584
750.935
865.269
786.012
2580.37
1830.86
261.074
59.7571
7.851
-9.73405
-11.4935
-12.7191
9.3064
32.3566
125.294
691.834
2860.72
1659.57
6.17233
2.54384
8.36336
4.44247
-4.25072
-4.85711
9.50361
6.44246
15.6728
114.025
3466.42
1176.38
18.75
8.04855
4.03981
-2.13336
-7.22469
-3.91713
9.81675
1.83418
21.4711
168.413
30754.5
4941.15
84.12
1999.99
692.303
74.6923
-19.096
-4.54299
-5.56828
-49.5724
-33.0097
-8.67291
-12.9953
30.181
12.7048
99.1476
101.55
-16.8653
108.29
10.3479
-12.2217
17.2513
11.3965
0.0469749
20.0756
11.3845
3.00931
12.1346
4.15916
2.41131
-1.03942
-1.29146
-0.624341
531.497
3.34593
-6.33584
2602.83
5.97831
-7.43931
2684.87
2.62451
-6.22008
2823.37
4.39923
-5.47541
2815.57
3.702
-5.49453
2796.79
4.49444
-6.24975
2557.56
6.82805
-8.04721
4273.68
4838.13
1696.24
669.195
-14.4573
-17.8158
19.6772
11.8363
0.439547
11.1035
1.58437
-3.03235
9.77094
3.34043
2.22884
5.92612
0.757402
1.61884
4.1836
1.10525
2.04665
2.37233
-0.741231
1.7878
9.35434
-1.57068
3.12427
5.40406
-4.71755
2.98334
-0.478257
-6.8042
2.49166
938.285
-4.21293
-8.99353
)
;
    }
    water_back_surface
    {
        type            fixedFluxPressure;
        gradient        uniform 0;
        value           nonuniform List<scalar> 
186
(
21512.8
21735.4
19673.8
16974.7
14324.8
11839.4
10092.9
9478.25
9435.69
9494.8
9826.55
10235.5
23231
23349.2
18023.9
12646
7564.38
4146.38
2266.52
2257.55
2815.84
2971.95
3538.85
5119.64
25477.4
14670.1
5110.91
1542.61
367.301
92.6621
186.097
267.72
438.252
638.565
841.528
925.927
30066.6
2279.9
-10.368
-29.0514
-19.677
28.3247
144.406
186.995
36.4771
28.1611
273.215
880.336
2556.35
2207.64
1803.57
1318.99
1000.17
545.163
326.205
490.953
735.913
777.376
928.403
944.972
2505.56
1869.71
340.428
42.639
8.58457
37.4798
55.5872
28.3771
3.23694
17.5599
110.47
711.129
2811.26
1773.69
48.725
6.18534
14.0919
13.3565
2.00074
0.00868579
8.11183
2.76095
20.1104
-1.56183
3431.68
787.599
17.9967
8.5691
5.41648
-1.63829
-4.36393
-8.69081
6.05649
2.64137
21.8851
282.663
30737.7
4904.75
84.5303
1991.62
688.679
69.383
-19.2707
-3.63861
-5.86212
-49.6316
-33.4218
-10.3886
-28.4887
12.1499
15.6028
69.6584
85.7764
-4.36928
118.363
17.8795
-12.4581
17.3268
11.4199
-0.0258642
20.0871
11.5045
3.04306
12.452
4.23008
2.4282
-0.735497
-1.26563
-0.60666
504.896
3.31059
-6.28355
2587.67
6.46993
-7.80957
2725.91
2.85256
-6.32505
2829.65
4.42407
-5.54424
2821.57
3.78722
-5.52778
2802.19
4.53856
-6.288
2554.61
6.85276
-8.09615
4254.5
4673.45
1596.09
597.608
-11.5525
-20.4588
14.3384
7.06085
-1.54883
7.00461
0.557505
-3.20813
9.94641
2.58535
2.03723
6.12246
0.49849
1.48397
3.85193
0.802793
2.04287
3.21391
-0.970816
1.92004
7.37669
-0.583477
2.89068
2.18406
-4.0247
2.72677
-3.21314
-5.9172
1.662
873.654
-3.27238
-8.52725
)
;
    }
    water_left_surface
    {
        type            fixedFluxPressure;
        gradient        uniform 0;
        value           nonuniform List<scalar> 
42
(
21512.9
21512.8
21512.8
21512.8
21512.8
21512.8
23231.3
23230.1
23230.5
23231.2
23230.9
23231
25478
25477.7
25477.6
25477.6
25477.4
25477.4
30068.2
30068.2
30067.4
30067.8
30067.2
30066.6
30754.5
30717.1
30730.3
30738
30730
30737.7
4941.15
4814.97
4866.05
4892.25
4871.37
4904.75
84.12
77.4773
81.2059
83.5985
80.9411
84.5303
)
;
    }
    water_right_surface
    {
        type            fixedFluxPressure;
        gradient        uniform 0;
        value           nonuniform List<scalar> 
42
(
2560.44
2556.98
2596.6
2609.54
2625.78
2556.35
2580.37
2317.44
2579.84
2633.79
2553.44
2505.56
2860.72
2826.5
2573.75
2292.56
2365.4
2811.26
3466.42
3491.3
3399.61
1379.6
1876.04
3431.68
4273.68
4266.06
4206.97
3775.4
2714.43
4254.5
4838.13
4341.46
4720.64
4143.8
1323.51
4673.45
1696.24
10.6008
755.076
575.742
-38.2881
1596.09
)
;
    }
    water_top_surface
    {
        type            totalPressure;
        rho             rho;
        psi             none;
        gamma           1;
        p0              uniform 0;
        value           nonuniform List<scalar> 
180
(
0
0
0
0
0
0
0
0
0
0
0
0
0
0
0
0
0
0
0
0
0
0
0
0
0
0
0
0
0
0
-5.18794
-2.76193
-2.527
-5.80413
-9.5348
-0.725565
-14.6914
-15.0433
-15.0989
-14.5018
-14.34
-15.1592
-5.03978
-5.15262
-5.14124
-5.09614
-5.06568
-5.20599
-1.20382
-1.20477
-1.20351
-1.19769
-1.19677
-1.19792
-1.32438
-1.32064
-1.32379
-1.32119
-1.33646
-1.31165
-3.06288
-3.05889
-3.06036
-3.05828
-3.06932
-3.0486
-1.68152
-1.71272
-1.71747
-1.70765
-1.70234
-1.71316
-0.291911
-0.268207
-0.258252
-0.283007
-0.340784
-0.2763
-1.79875
-1.84508
-1.85675
-1.82347
-1.78832
-1.76926
-1.15016
-1.14238
-1.12765
-1.12738
-1.12327
-1.12215
-1.42932
-1.43849
-1.43767
-1.43575
-1.43627
-1.42609
-1.65514
-1.66111
-1.65764
-1.65328
-1.65657
-1.65146
-0.663456
-0.660501
-0.65847
-0.655564
-0.653963
-0.65407
0
-5.29319
0
0
-3.03499
0
-0.0114067
0
0
0
0
-2.91997
0
-0.02539
-0.578294
0
0
0
-2.89668
-3.47899
-3.50973
-3.58803
-3.36822
-3.19518
-0.00465868
-0.0027224
-0.00476013
-0.0043683
-0.00851549
-0.00738021
-0.20316
-0.177936
-0.188386
-0.248863
-0.282226
-0.261771
0
0
0
0
0
0
0
0
0
0
0
0
0
0
0
0
0
0
-0.252777
-0.29394
-0.339843
-0.345256
-0.370985
-0.361461
-1.36299
-1.49021
-1.62855
-1.69535
-1.74222
-1.62386
-2.1649
-1.8347
-1.46687
-1.78293
-2.36467
-1.88097
)
;
    }
}


// ************************************************************************* //
