/*--------------------------------*- C++ -*----------------------------------*\
| =========                 |                                                 |
| \\      /  F ield         | OpenFOAM: The Open Source CFD Toolbox           |
|  \\    /   O peration     | Version:  v1612+                                |
|   \\  /    A nd           | Web:      www.OpenFOAM.com                      |
|    \\/     M anipulation  |                                                 |
\*---------------------------------------------------------------------------*/
FoamFile
{
    version     2.0;
    format      ascii;
    class       surfaceScalarField;
    location    "2.1";
    object      alphaPhi;
}
// * * * * * * * * * * * * * * * * * * * * * * * * * * * * * * * * * * * * * //

dimensions      [0 3 -1 0 0 0 0];

internalField   nonuniform List<scalar> 
816
(
-2.71036e-06
-1.35561e-06
1.8971e-07
9.22576e-07
-2.00875e-06
4.96276e-06
-1.28562e-06
2.1269e-06
-2.51846e-06
4.6069e-07
-1.50327e-06
-1.19958e-06
2.60071e-08
6.38657e-07
-3.46639e-07
-4.60973e-07
-5.29371e-07
1.78174e-06
2.3756e-06
-6.19207e-06
-3.31203e-10
1.06298e-09
1.35486e-06
-8.79816e-10
7.71839e-10
9.14718e-11
-1.1828e-05
-3.32503e-10
-3.7524e-11
-2.19391e-10
-1.01395e-05
5.9131e-11
-1.38843e-10
-3.71519e-10
3.68672e-06
-9.25608e-10
7.13078e-10
-3.29714e-10
3.82713e-06
-8.6108e-11
5.06988e-11
-1.17072e-10
1.82371e-06
8.13802e-10
-3.48558e-10
5.54688e-10
1.51147e-06
-9.41698e-11
6.57448e-10
5.59298e-10
3.83792e-06
-8.68191e-11
6.17313e-11
5.3686e-10
2.88384e-06
-2.11646e-10
6.56909e-10
5.30954e-10
3.07938e-07
-7.62681e-11
-6.976e-10
3.07978e-10
-5.57244e-06
-1.72076e-10
-2.55132e-10
4.78585e-11
-1.5237e-10
2.03502e-10
4.73388e-06
-1.27482e-06
-4.85486e-06
-1.21692e-06
8.82211e-06
1.47907e-06
-1.22053e-05
7.01171e-08
-6.35709e-07
-5.57047e-06
-1.96217e-06
1.92992e-06
-1.40738e-06
-3.27092e-06
7.49616e-06
-4.36404e-06
9.17896e-06
-1.35595e-07
5.86984e-06
4.59113e-06
9.40098e-07
-3.87065e-06
-6.75459e-07
7.44368e-06
3.88084e-06
-3.18186e-06
1.25513e-06
1.67313e-06
2.98149e-06
1.29367e-06
7.19038e-06
-3.20022e-06
1.04829e-05
6.47302e-06
-2.26079e-06
2.59299e-07
9.13354e-06
3.82738e-06
5.69753e-07
-3.13663e-06
1.698e-06
8.34724e-07
-6.48426e-06
-5.42733e-06
6.14807e-06
8.20559e-06
1.47038e-06
9.43601e-07
7.25625e-07
-2.34887e-06
-2.02304e-06
-1.04575e-06
-2.81397e-06
-5.23993e-06
-1.27193e-06
-9.57143e-07
-5.91259e-07
-8.19336e-07
-2.40366e-06
9.25212e-07
3.56564e-06
-4.58449e-07
1.4613e-06
2.6496e-06
2.17272e-06
-6.2276e-07
-2.63025e-08
1.52293e-06
-8.29762e-08
3.76821e-07
5.55954e-07
1.48067e-06
2.32716e-06
3.33811e-06
1.82143e-06
-5.96841e-07
-4.34208e-07
7.22217e-07
3.77802e-07
-6.09361e-07
9.82439e-07
1.44847e-07
-2.25917e-06
-3.11622e-06
-7.97206e-07
4.47707e-06
-1.60698e-06
7.34369e-07
-1.52257e-06
-4.42995e-07
-2.86422e-07
4.29814e-07
-1.91824e-07
-6.30573e-07
9.78961e-07
-1.68508e-06
2.89942e-07
-4.99883e-07
-1.9532e-07
-1.77382e-07
-2.09106e-08
-4.93665e-07
9.31013e-07
8.26894e-07
6.22066e-07
-1.70428e-06
-4.37928e-07
-7.84798e-07
-1.75602e-06
-4.97265e-07
-1.36727e-06
-2.00382e-07
-4.72538e-07
-1.61216e-06
-2.59409e-08
8.35224e-07
-2.13656e-07
1.08967e-06
9.69479e-07
1.28517e-06
7.55131e-07
-3.00035e-07
9.37779e-07
3.09684e-07
9.5807e-10
-8.93941e-08
1.01881e-06
2.61555e-07
1.1082e-06
1.10605e-06
8.5976e-07
-3.31716e-07
7.2875e-07
6.61239e-07
-3.83488e-07
-1.26609e-07
1.95182e-07
4.04475e-07
-1.55783e-06
-2.66811e-07
-9.9238e-07
-5.49062e-07
6.12241e-07
1.15427e-06
-5.91863e-10
-1.00564e-10
5.35499e-11
-7.42152e-10
1.7059e-10
3.72725e-06
-1.57954e-09
2.75426e-10
-5.56934e-06
-5.97553e-10
-8.24117e-11
-9.57897e-06
-2.3109e-10
5.84874e-11
1.19479e-11
-7.15315e-10
-9.13179e-10
-3.4707e-10
-1.5708e-06
-8.62352e-10
1.66479e-10
5.91071e-06
-1.51931e-09
-2.30565e-11
-6.95187e-07
-1.36753e-09
-9.55522e-10
-6.50058e-06
-8.98344e-11
-3.66203e-10
-9.55255e-06
5.25201e-10
-1.84377e-09
3.98811e-10
2.63991e-06
-5.04024e-10
4.05795e-10
-4.43849e-06
-2.42101e-10
9.33953e-10
4.56408e-06
2.00031e-10
4.60254e-10
2.40394e-11
-8.16697e-10
-3.77396e-11
-1.11298e-05
-9.07881e-11
7.28968e-10
-1.62985e-11
-1.00296e-05
4.97347e-11
-1.19477e-11
2.30202e-06
-1.05452e-09
-3.09419e-10
4.98872e-11
-9.43714e-10
-8.04425e-10
3.16512e-06
-2.21899e-11
4.96486e-07
-1.56933e-09
-1.11288e-10
1.88745e-06
-1.86287e-06
9.57741e-06
2.73155e-07
6.5076e-06
4.83407e-06
4.99569e-06
2.1348e-06
-1.7059e-06
-1.23369e-06
-6.00939e-06
-1.07285e-07
-3.85823e-06
-5.5562e-09
3.46547e-06
-7.49298e-06
-8.52158e-06
-2.20797e-06
4.17534e-06
-4.81328e-06
5.46429e-06
1.23021e-05
-9.55367e-07
1.41799e-06
9.03679e-06
-9.11289e-07
-2.69817e-06
3.63286e-06
1.65447e-06
-4.96201e-06
-1.27485e-05
5.41312e-06
-2.57978e-06
-1.01043e-06
7.50025e-06
3.19101e-06
-6.37877e-06
1.68108e-06
-1.42426e-06
3.15523e-06
1.78308e-06
3.26413e-06
7.66949e-06
6.23507e-07
-2.4527e-07
-8.57599e-07
-5.15506e-06
-5.27139e-06
3.47093e-06
-4.04562e-06
-4.37314e-06
2.0709e-06
-1.92175e-06
4.5828e-06
-1.69519e-06
-1.90043e-06
1.0688e-05
-5.12219e-06
7.25861e-07
6.88766e-06
3.4013e-06
-2.65043e-06
2.38704e-06
-2.98395e-07
-8.26683e-07
3.98885e-06
4.60528e-06
2.00652e-07
1.87328e-07
2.527e-06
2.50258e-07
-5.6926e-07
-7.82131e-07
-1.42854e-06
4.44583e-07
-7.00037e-08
-1.83569e-06
-1.29835e-06
1.99286e-06
5.67361e-07
2.65442e-06
-1.11213e-06
2.58783e-06
-9.98102e-07
2.23015e-06
5.72725e-06
2.7898e-06
4.73851e-06
3.96919e-06
4.74719e-06
4.98478e-06
1.68687e-06
3.22671e-06
-3.02039e-06
-5.5034e-06
-1.04705e-06
1.80612e-06
-4.36722e-07
3.83145e-06
9.81064e-07
1.26374e-06
5.09286e-07
9.38869e-07
1.37331e-06
9.64618e-07
2.55336e-06
1.62334e-06
6.97104e-07
3.98731e-07
-2.13511e-06
-2.62598e-06
6.16112e-07
6.11557e-07
-2.93077e-06
-1.77305e-06
-1.43054e-06
-1.49157e-06
2.42169e-06
8.65553e-07
1.56308e-06
4.86773e-06
1.96266e-06
2.55043e-06
3.52124e-06
3.11083e-06
-1.10557e-06
4.35293e-07
4.55961e-06
-3.96291e-07
2.47066e-06
1.2758e-06
7.0997e-07
2.06236e-07
6.02361e-07
8.86975e-07
-6.07444e-07
5.33874e-08
-5.05789e-07
-2.54161e-07
2.45342e-07
-1.11472e-06
-7.06461e-07
6.48997e-07
4.3564e-07
1.34033e-06
-1.89128e-07
8.41856e-07
-3.43736e-07
1.60455e-06
1.96711e-06
1.77634e-06
2.82042e-06
1.07672e-06
2.97277e-06
3.23507e-06
2.70066e-07
1.93595e-06
-1.99171e-06
-1.59389e-06
-4.07001e-07
1.70599e-06
-3.38685e-07
1.29806e-06
1.17442e-06
3.84902e-07
2.43141e-07
5.53529e-07
6.16628e-07
2.08281e-07
1.63409e-06
1.39667e-06
1.23624e-07
5.22423e-07
-1.45476e-06
-7.92544e-07
4.51278e-07
5.69767e-07
-1.97715e-06
-3.34436e-07
-2.44448e-07
-8.52631e-07
7.08307e-07
7.72255e-07
7.33532e-07
1.31574e-06
1.69681e-06
1.87099e-06
8.30533e-07
2.15994e-06
-3.22106e-07
8.71555e-07
2.68027e-06
-8.60673e-07
8.01934e-08
-8.52511e-08
6.68517e-07
3.26367e-08
2.39349e-07
-8.36337e-07
-3.85946e-07
2.98025e-07
1.4904e-07
-2.48664e-07
7.33629e-07
-1.61489e-07
-3.72299e-07
-3.3326e-07
-9.44691e-07
-3.27203e-07
1.46441e-07
-3.82059e-07
-7.11042e-07
6.66999e-07
-2.37425e-07
6.96441e-07
4.8832e-07
-5.71726e-08
4.99718e-07
2.58122e-07
2.55432e-07
6.87139e-07
7.74353e-07
6.41943e-07
-5.05934e-07
5.26931e-07
3.75673e-07
-1.95645e-07
2.47279e-07
-6.9633e-07
1.76865e-07
-3.90816e-07
4.80937e-07
-5.4728e-07
1.3505e-06
8.2585e-08
-3.79677e-07
1.05705e-07
-4.59591e-07
-1.81663e-07
-8.01298e-08
-4.8692e-07
-1.90873e-07
1.38496e-07
6.44185e-07
9.24274e-08
-1.11636e-07
1.11864e-06
7.19824e-07
1.61818e-06
1.07702e-06
1.57735e-06
8.15549e-07
-9.65378e-07
4.16797e-08
9.01886e-07
-5.10044e-08
6.36227e-07
3.64985e-07
5.11265e-07
4.87307e-07
7.3147e-07
7.24418e-07
4.22588e-07
-9.09383e-07
4.73101e-07
3.79446e-07
-9.69422e-07
1.09493e-07
-4.20963e-07
4.09806e-07
2.63109e-07
8.05397e-07
6.15676e-07
9.5669e-07
2.63672e-07
1.37919e-06
1.19191e-10
1.55477e-10
-5.95673e-07
-8.96196e-10
1.1197e-06
6.47304e-10
-8.95706e-06
3.46971e-10
1.68325e-07
-2.80373e-10
7.21064e-07
-3.75645e-10
3.85126e-06
-8.1583e-11
3.09112e-06
-1.60302e-10
7.22143e-07
-8.16741e-10
3.51537e-06
3.74588e-10
2.40151e-07
1.59532e-09
-9.40074e-06
3.13811e-10
-1.14139e-05
-7.99145e-10
1.15185e-11
-4.98382e-10
-2.94368e-06
5.13124e-12
-5.96231e-06
1.06194e-09
4.33955e-09
5.03277e-10
4.66979e-07
3.55395e-10
-6.62655e-06
1.26854e-09
2.28994e-06
6.37019e-10
5.54655e-07
-2.41905e-10
-9.78136e-06
-9.00167e-10
-1.04632e-05
-1.11492e-09
1.28243e-06
5.25184e-10
1.89841e-06
4.93655e-10
1.19288e-06
-2.04416e-10
-7.08854e-06
-1.00664e-09
-9.51255e-06
-7.20024e-06
7.01868e-07
1.6372e-06
-9.45488e-07
1.86516e-06
4.20256e-06
-5.0988e-07
-4.43703e-06
-4.07393e-06
2.13033e-06
-7.43066e-06
8.23736e-06
-2.68947e-06
2.04105e-06
3.1467e-06
-5.57547e-06
2.16305e-06
-6.50915e-06
2.32784e-06
9.21984e-06
3.72727e-06
-1.01115e-06
6.77562e-06
-1.61564e-05
3.81847e-06
-1.13667e-05
2.75412e-07
6.01729e-06
-4.11883e-06
2.15156e-07
-4.07275e-06
-1.06832e-05
-2.20496e-06
1.18575e-06
-3.85068e-06
1.33776e-06
-2.32092e-06
-6.06094e-06
5.5568e-06
5.99791e-07
5.41652e-06
-8.20527e-07
7.37978e-07
-8.34661e-06
-4.38344e-06
-2.67132e-06
-4.62847e-06
6.9109e-06
-5.91512e-08
9.6528e-07
3.82589e-06
-4.17176e-06
2.3358e-06
-5.37403e-06
1.20656e-06
-1.17383e-05
-6.84236e-06
-2.65894e-06
3.14016e-06
-9.97827e-07
-8.36882e-08
1.83009e-06
-1.56641e-06
-2.70077e-06
-1.44103e-06
5.81717e-07
1.04623e-06
3.91479e-06
2.71976e-06
9.15968e-07
-8.73134e-07
-1.97645e-06
-2.29374e-06
-2.40969e-06
2.22026e-06
3.72679e-06
4.532e-06
-5.21569e-07
6.0689e-07
-7.47947e-06
-2.58518e-06
-4.94999e-06
-1.43959e-07
2.51753e-06
7.59686e-07
-6.87038e-07
-2.35436e-06
-5.79378e-06
-4.00447e-07
1.9859e-07
1.3611e-06
5.06212e-07
4.02742e-07
-2.5467e-06
1.33926e-06
6.42426e-08
1.95256e-06
-8.08703e-07
-2.6788e-06
-3.7101e-06
-3.09874e-06
-1.63966e-06
-2.45027e-08
2.40939e-06
1.39023e-06
4.11434e-07
1.91866e-06
-2.73651e-06
2.00438e-06
-2.35242e-06
-1.39338e-07
-5.03965e-06
-3.84716e-06
-1.80181e-06
1.99881e-06
-3.27946e-07
-1.00871e-07
8.38341e-07
-1.33396e-06
-5.76581e-07
-1.44186e-06
1.98309e-07
1.75324e-07
1.19836e-06
1.20576e-06
3.31864e-07
-2.84938e-07
-5.31947e-07
-5.77862e-07
-7.42731e-07
1.78859e-06
1.0472e-06
3.02505e-06
3.54416e-08
4.10325e-07
-1.88265e-06
-1.03155e-06
-1.58136e-06
6.45552e-07
3.76158e-07
3.76922e-07
-4.34269e-07
-1.94541e-06
-1.78658e-06
-6.56726e-07
7.74646e-08
4.22102e-07
-2.31425e-08
1.68921e-07
-6.61573e-07
9.26853e-07
-1.74592e-07
1.07639e-06
-4.98371e-07
-1.25917e-06
-1.37171e-06
-1.68393e-06
-6.34634e-07
-5.59044e-08
5.34064e-07
9.84963e-07
1.42407e-07
6.35428e-07
-6.98426e-07
1.13151e-06
-6.97297e-07
4.95032e-07
-1.7268e-06
-1.35706e-06
-1.22115e-06
1.15225e-06
-3.0003e-07
-7.66553e-07
-7.36456e-07
-5.49634e-09
4.94086e-07
-3.39461e-08
-1.14468e-07
8.32665e-07
1.59462e-06
7.94249e-07
3.19695e-08
4.3163e-07
-1.3089e-08
-9.02205e-07
-1.8705e-07
3.0324e-07
3.81052e-07
6.37771e-07
6.17924e-07
-7.53687e-07
-1.00504e-06
-3.5742e-07
1.94099e-07
2.99305e-07
5.56692e-07
2.04996e-07
-1.6375e-10
-1.51612e-10
-1.59113e-05
-9.53702e-10
-1.28449e-05
-1.91908e-10
-5.2744e-06
2.83303e-06
-9.36243e-07
-4.37661e-06
-6.92706e-06
-2.13985e-06
)
;

boundaryField
{
    top_fluid_surface
    {
        type            calculated;
        value           nonuniform List<scalar> 
64
(
0
2.15538e-10
4.42636e-10
5.11468e-10
4.59347e-11
0
0
0
0
6.98329e-10
6.64976e-10
8.92139e-10
8.48828e-10
0
1.44831e-10
7.50274e-10
1.01445e-09
7.89244e-10
0
8.68676e-10
1.27731e-09
2.43432e-10
0
1.51505e-10
0
6.78995e-10
9.71532e-11
6.68041e-10
4.91475e-10
7.04749e-10
6.24489e-10
2.30059e-10
0
0
0
0
2.48309e-10
0
0
0
0
0
0
7.43733e-10
1.24401e-09
0
0
0
1.25932e-10
3.3411e-10
0
1.51143e-10
9.2945e-10
1.07127e-09
0
0
0
6.53986e-10
5.07374e-10
0
9.38576e-10
1.15724e-09
0
0
)
;
    }
    bottom_fluid_surface
    {
        type            calculated;
        value           uniform 0;
    }
    lateral_surface_1
    {
        type            calculated;
        value           uniform 0;
    }
    lateral_surface_2
    {
        type            calculated;
        value           uniform 0;
    }
    lateral_surface_3
    {
        type            calculated;
        value           uniform 0;
    }
    lateral_surface_4
    {
        type            calculated;
        value           uniform 0;
    }
}


// ************************************************************************* //
