/*--------------------------------*- C++ -*----------------------------------*\
| =========                 |                                                 |
| \\      /  F ield         | OpenFOAM: The Open Source CFD Toolbox           |
|  \\    /   O peration     | Version:  v1612+                                |
|   \\  /    A nd           | Web:      www.OpenFOAM.com                      |
|    \\/     M anipulation  |                                                 |
\*---------------------------------------------------------------------------*/
FoamFile
{
    version     2.0;
    format      ascii;
    class       surfaceScalarField;
    location    "2.1";
    object      phi;
}
// * * * * * * * * * * * * * * * * * * * * * * * * * * * * * * * * * * * * * //

dimensions      [0 3 -1 0 0 0 0];

internalField   nonuniform List<scalar> 
816
(
-2.7528e-06
-1.40448e-06
2.14026e-07
9.57106e-07
-2.09603e-06
5.08217e-06
-1.3609e-06
2.16245e-06
-2.47836e-06
4.41616e-07
-1.51184e-06
-1.24253e-06
-4.94274e-08
7.00146e-07
-2.4313e-07
-5.7044e-07
-4.29175e-07
1.80118e-06
2.53465e-06
-6.47794e-06
-3.40017e-05
0.000184279
6.92653e-06
-0.000134604
0.000126794
1.48073e-05
-1.72994e-05
-6.10865e-05
-8.14716e-06
-5.98994e-05
-6.00473e-06
1.36232e-05
-2.69811e-05
-4.56963e-05
1.70534e-05
-0.000144521
0.000139985
-6.62024e-05
9.72181e-06
-2.79166e-05
-8.05927e-06
-1.23856e-05
7.75989e-06
0.000135567
-5.96823e-05
0.000100054
7.63141e-06
-1.9675e-05
9.8063e-05
8.66943e-05
1.8865e-05
-1.08808e-05
3.92764e-05
0.000106791
1.35445e-05
-1.87393e-05
0.000117006
0.00010901
-7.4869e-06
-1.66683e-05
-0.00013215
7.26742e-05
-1.09445e-05
-3.45873e-05
-5.15084e-05
1.03522e-05
-4.02624e-05
5.06213e-05
4.86315e-06
-9.00368e-07
-4.98398e-06
-1.35058e-06
8.9183e-06
1.56356e-06
-1.23605e-05
-8.99553e-08
-7.59093e-07
-5.7186e-06
-2.20197e-06
1.87389e-06
-1.5909e-06
-3.27527e-06
7.39144e-06
-4.71421e-06
9.21167e-06
-6.59006e-07
5.74196e-06
4.39534e-06
4.26136e-07
-4.04895e-06
-6.62098e-07
7.76212e-06
3.81503e-06
-3.00129e-06
1.43009e-06
1.94456e-06
2.98768e-06
1.43242e-06
7.19314e-06
-3.20766e-06
1.01953e-05
6.7e-06
-2.40125e-06
2.13465e-07
9.19485e-06
3.76047e-06
3.91317e-07
-3.25075e-06
1.66328e-06
8.11118e-07
-6.61907e-06
-5.56282e-06
6.11293e-06
7.99246e-06
1.20849e-06
9.45687e-07
7.22777e-07
-2.29663e-06
-2.08762e-06
-1.09561e-06
-2.78764e-06
-5.34779e-06
-1.34045e-06
-9.8244e-07
-6.87289e-07
-8.39364e-07
-2.47783e-06
8.90418e-07
3.57022e-06
-5.212e-07
1.38914e-06
2.68086e-06
2.13471e-06
-6.54098e-07
-1.10411e-08
1.53828e-06
-1.39768e-07
4.3487e-07
6.43962e-07
1.50986e-06
2.37914e-06
3.37894e-06
1.85792e-06
-6.43567e-07
-4.81632e-07
7.242e-07
3.78837e-07
-5.60817e-07
8.40143e-07
2.03975e-07
-2.23563e-06
-3.19162e-06
-7.92048e-07
4.40935e-06
-1.68333e-06
7.36899e-07
-1.54392e-06
-5.16076e-07
-2.77379e-07
4.48636e-07
-2.01705e-07
-6.99273e-07
1.01265e-06
-1.71181e-06
2.88575e-07
-5.18006e-07
-1.61114e-07
-9.57256e-08
5.69043e-08
-4.72323e-07
9.36315e-07
8.6771e-07
6.29247e-07
-1.70357e-06
-4.85671e-07
-8.05298e-07
-1.75893e-06
-5.51337e-07
-1.38633e-06
-2.61692e-07
-4.68268e-07
-1.66381e-06
-5.30254e-08
7.9316e-07
-2.60873e-07
1.08844e-06
9.4553e-07
1.29653e-06
7.69169e-07
-3.06998e-07
9.71965e-07
2.6825e-07
4.56381e-09
-4.80297e-08
1.03658e-06
2.86849e-07
1.1669e-06
1.12369e-06
8.6841e-07
-3.18827e-07
7.20079e-07
6.73917e-07
-3.96321e-07
-1.27526e-07
1.82967e-07
3.70565e-07
-1.57218e-06
-2.86038e-07
-1.01375e-06
-6.00363e-07
6.1316e-07
1.12577e-06
-0.000105384
-2.13488e-05
8.5157e-06
-0.000142712
2.20756e-05
1.50554e-05
-0.000208832
5.05426e-05
-7.4108e-06
-0.000101514
-3.4803e-05
-1.40196e-05
-4.42686e-05
1.24997e-05
-9.94449e-06
-0.000122935
-0.000160261
-5.95751e-05
3.70366e-07
-0.000159615
1.79773e-05
2.44696e-05
-0.000219335
-8.97475e-06
-2.49377e-07
-0.000187368
-0.000180512
-7.15123e-06
-2.13803e-05
-5.58977e-05
-1.15826e-05
0.00010091
-0.000257848
6.76925e-05
1.10242e-05
-8.11753e-05
8.04861e-05
-6.61724e-06
-4.8329e-05
0.000159483
1.74676e-05
2.91213e-05
0.000101882
3.34556e-06
-0.000127887
-5.58364e-07
-1.6195e-05
-1.13287e-05
0.000126955
-3.5065e-06
-1.50281e-05
1.09221e-06
-2.61715e-07
7.61719e-06
-0.000147404
-7.27708e-05
1.14339e-05
-0.000154549
-0.000187665
1.13247e-05
-9.27639e-06
-3.30647e-07
-0.000235976
-2.65988e-05
1.78255e-06
-1.66395e-06
9.5933e-06
2.74314e-08
6.55052e-06
4.83728e-06
4.62321e-06
2.31486e-06
-1.64592e-06
-1.61081e-06
-6.00306e-06
-2.12822e-07
-3.94814e-06
5.91088e-08
3.45541e-06
-7.78787e-06
-8.74517e-06
-2.40881e-06
4.10458e-06
-5.2365e-06
5.51644e-06
1.24242e-05
-1.20238e-06
1.65358e-06
9.17297e-06
-9.81948e-07
-2.77314e-06
3.60019e-06
1.80905e-06
-5.14169e-06
-1.30356e-05
5.44885e-06
-3.04755e-06
-1.08342e-06
7.50026e-06
3.01826e-06
-6.25357e-06
1.77262e-06
-1.21918e-06
3.34791e-06
1.78901e-06
3.47414e-06
7.63121e-06
5.30297e-07
-5.72651e-07
-7.98954e-07
-5.20477e-06
-5.13888e-06
3.5698e-06
-3.9933e-06
-4.45595e-06
1.83518e-06
-1.99519e-06
4.37465e-06
-2.25488e-06
-1.84781e-06
1.0686e-05
-5.40453e-06
5.08685e-07
6.70246e-06
3.30796e-06
-2.84402e-06
2.07961e-06
-2.31896e-07
-8.69009e-07
4.06046e-06
4.60186e-06
1.18701e-07
1.6108e-07
2.54449e-06
1.71075e-07
-5.31578e-07
-7.63603e-07
-1.52531e-06
4.30285e-07
-1.45749e-07
-1.8701e-06
-1.26789e-06
1.96804e-06
5.18006e-07
2.66775e-06
-1.12938e-06
2.55463e-06
-1.06579e-06
2.20554e-06
5.8037e-06
2.78205e-06
4.76175e-06
4.0118e-06
4.74815e-06
4.99877e-06
1.64221e-06
3.26114e-06
-3.03841e-06
-5.65778e-06
-1.07385e-06
1.73221e-06
-4.27033e-07
3.85838e-06
8.97825e-07
1.33651e-06
5.38305e-07
9.78059e-07
1.42345e-06
9.71787e-07
2.57679e-06
1.65594e-06
6.51819e-07
3.62966e-07
-2.16245e-06
-2.6772e-06
6.62664e-07
6.25528e-07
-2.93285e-06
-1.82691e-06
-1.48463e-06
-1.50654e-06
2.38163e-06
7.71599e-07
1.59225e-06
4.8732e-06
1.92076e-06
2.50915e-06
3.46383e-06
3.05966e-06
-1.17643e-06
3.51813e-07
4.55021e-06
-4.11729e-07
2.50107e-06
1.27116e-06
6.4154e-07
2.15406e-07
6.10254e-07
8.27379e-07
-5.81573e-07
6.32555e-08
-5.70435e-07
-2.68076e-07
2.4301e-07
-1.16136e-06
-6.92956e-07
6.56626e-07
4.02481e-07
1.34162e-06
-2.30432e-07
8.3977e-07
-4.06036e-07
1.60703e-06
1.98802e-06
1.73476e-06
2.85234e-06
1.09048e-06
2.98077e-06
3.24653e-06
2.64494e-07
1.95887e-06
-2.00933e-06
-1.62259e-06
-4.40613e-07
1.66511e-06
-3.26208e-07
1.31662e-06
1.11503e-06
4.30035e-07
2.54175e-07
5.6715e-07
6.62579e-07
2.08942e-07
1.65132e-06
1.43899e-06
1.10362e-07
4.82438e-07
-1.48225e-06
-8.08686e-07
4.63249e-07
5.89299e-07
-2.00519e-06
-3.4572e-07
-2.82254e-07
-8.69433e-07
6.94978e-07
7.34746e-07
7.3978e-07
1.30975e-06
1.66988e-06
1.8469e-06
8.09904e-07
2.15813e-06
-3.41721e-07
8.03309e-07
2.70809e-06
-8.71767e-07
5.85621e-08
-7.81662e-08
6.8826e-07
1.15055e-08
2.52295e-07
-8.42605e-07
-3.97139e-07
3.17811e-07
1.9874e-07
-2.45504e-07
7.39208e-07
-1.63677e-07
-3.62237e-07
-3.54396e-07
-9.38771e-07
-3.49244e-07
1.26832e-07
-3.8587e-07
-7.25695e-07
6.41691e-07
-2.5168e-07
6.79927e-07
4.91659e-07
-5.13596e-08
5.04839e-07
2.32469e-07
2.77299e-07
6.97292e-07
8.08579e-07
6.55438e-07
-5.11835e-07
5.3585e-07
3.88895e-07
-1.98967e-07
2.58692e-07
-7.02683e-07
1.79793e-07
-4.1797e-07
4.82968e-07
-5.60319e-07
1.36418e-06
4.83141e-08
-3.78802e-07
7.91436e-08
-4.43477e-07
-2.13245e-07
-7.75357e-08
-4.99368e-07
-1.86173e-07
1.24845e-07
6.41492e-07
7.53221e-08
-1.34484e-07
1.10983e-06
7.1018e-07
1.62138e-06
1.0735e-06
1.56568e-06
8.1944e-07
-9.61321e-07
1.86619e-08
8.78413e-07
-3.74052e-08
6.18349e-07
3.98804e-07
5.1372e-07
5.22766e-07
7.39608e-07
7.49657e-07
4.19129e-07
-9.28797e-07
4.82113e-07
3.88221e-07
-9.85719e-07
1.03161e-07
-4.32147e-07
4.01087e-07
2.59413e-07
7.97243e-07
5.96179e-07
9.53033e-07
2.23052e-07
1.39063e-06
1.64653e-05
1.7637e-05
-4.78592e-07
-0.000117539
4.96152e-06
8.44476e-05
-1.06525e-05
6.63124e-05
7.02525e-07
-5.01059e-05
8.98074e-06
-6.68762e-05
1.46515e-05
1.49037e-05
-5.84269e-06
-6.9971e-05
1.14586e-06
-0.000106492
1.58017e-05
4.26832e-05
1.94676e-06
0.00021085
-1.22604e-05
6.595e-05
-1.73531e-05
-0.000126502
-8.70884e-06
-0.000105887
-5.54158e-06
2.87904e-05
-6.50674e-06
0.000178622
6.64125e-07
0.000100186
2.74457e-08
7.48282e-05
-8.53549e-06
0.00019613
9.96854e-06
0.000138655
4.51271e-06
-5.54162e-05
-1.39533e-05
-0.000164858
-1.18092e-05
-0.000156614
5.378e-06
7.30186e-05
8.72812e-06
8.85111e-05
5.3105e-06
-4.56942e-05
-1.09067e-05
-0.000163779
-1.31035e-05
-9.10447e-06
6.81527e-07
1.6674e-06
-8.08982e-07
1.75606e-06
4.43552e-06
-3.40386e-07
-4.23095e-06
-3.8531e-06
2.43212e-06
-7.47816e-06
8.21635e-06
-2.68477e-06
2.21412e-06
2.97393e-06
-5.6532e-06
1.82399e-06
-6.53291e-06
2.21227e-06
9.46322e-06
4.00264e-06
-8.54084e-07
7.12619e-06
-1.61714e-05
3.73257e-06
-1.16143e-05
2.64519e-07
6.04602e-06
-4.18148e-06
2.75746e-07
-3.97541e-06
-1.05275e-05
-1.93967e-06
1.47691e-06
-3.83329e-06
1.23656e-06
-2.4658e-06
-6.17239e-06
5.88847e-06
8.52954e-07
5.6152e-06
-9.87123e-07
4.21214e-07
-8.61744e-06
-4.8455e-06
-2.75929e-06
-4.83621e-06
7.1381e-06
9.24042e-08
1.25484e-06
4.19368e-06
-4.10216e-06
2.35205e-06
-5.43937e-06
9.26892e-07
-1.19416e-05
-6.59549e-06
-2.68728e-06
3.09459e-06
-8.64684e-07
-8.94658e-08
1.95309e-06
-1.5466e-06
-2.60073e-06
-1.36121e-06
7.26551e-07
1.04244e-06
3.94445e-06
2.76098e-06
1.01799e-06
-8.78021e-07
-2.01377e-06
-2.3079e-06
-2.45411e-06
2.22811e-06
3.86123e-06
4.52485e-06
-3.6056e-07
6.12715e-07
-7.50771e-06
-2.64567e-06
-5.09418e-06
-1.8687e-07
2.51118e-06
7.26929e-07
-6.38294e-07
-2.33807e-06
-5.72382e-06
-3.08424e-07
3.43419e-07
1.41821e-06
4.93625e-07
4.18039e-07
-2.59654e-06
1.45003e-06
1.80442e-07
1.98602e-06
-8.61506e-07
-2.76131e-06
-3.86974e-06
-3.18829e-06
-1.70531e-06
-6.32698e-08
2.5282e-06
1.44487e-06
5.1891e-07
1.9425e-06
-2.67726e-06
1.96611e-06
-2.40525e-06
-2.66638e-07
-5.16067e-06
-3.77045e-06
-1.80089e-06
2.02182e-06
-2.85529e-07
-8.85575e-08
8.80079e-07
-1.32076e-06
-5.39024e-07
-1.40427e-06
2.42923e-07
1.69283e-07
1.21016e-06
1.22026e-06
3.78594e-07
-2.66146e-07
-5.14567e-07
-6.26517e-07
-7.56602e-07
1.75587e-06
1.07925e-06
3.07854e-06
5.8538e-08
4.28929e-07
-1.87396e-06
-1.10106e-06
-1.5996e-06
6.07288e-07
3.93336e-07
3.7152e-07
-4.04949e-07
-1.9441e-06
-1.76006e-06
-6.11005e-07
1.21272e-07
4.67958e-07
-2.1917e-08
1.90806e-07
-6.73196e-07
1.01449e-06
-1.56298e-07
1.13471e-06
-5.19227e-07
-1.3173e-06
-1.41743e-06
-1.77448e-06
-6.54789e-07
-9.24414e-08
5.63349e-07
9.95345e-07
1.66553e-07
6.71274e-07
-6.84663e-07
1.12871e-06
-7.08049e-07
4.33549e-07
-1.76359e-06
-1.31857e-06
-1.22057e-06
1.15396e-06
-2.93139e-07
-7.48562e-07
-7.12729e-07
-3.45426e-09
4.93883e-07
-2.39476e-08
-1.29955e-07
8.1988e-07
1.59188e-06
7.87422e-07
-4.75033e-09
4.05495e-07
8.42889e-10
-8.85857e-07
-1.48273e-07
3.42368e-07
4.08678e-07
6.72727e-07
6.37745e-07
-7.78294e-07
-1.04186e-06
-3.7369e-07
1.9158e-07
3.00506e-07
5.43046e-07
1.65688e-07
-3.93778e-05
-1.05609e-05
-2.96238e-05
-0.000163755
-1.23099e-05
-8.23911e-05
-1.14965e-05
1.25897e-05
-1.01718e-06
-4.66208e-06
-7.28942e-06
-2.19855e-06
)
;

boundaryField
{
    top_fluid_surface
    {
        type            calculated;
        value           nonuniform List<scalar> 
64
(
-0.000153899
2.36043e-05
9.63191e-05
-2.93399e-05
2.06458e-05
-0.000112612
-0.000199006
-3.40891e-05
-0.000129738
0.000135808
0.000139748
0.000225343
0.000220625
-8.29661e-05
2.12421e-05
0.000150809
0.000244235
0.000205175
-5.45246e-05
0.000210895
0.000335518
4.47983e-05
-0.000116298
2.14166e-05
-0.00013765
0.000146931
3.55402e-06
0.000117126
0.000127746
0.000185106
0.000162474
5.37936e-05
-0.000268564
-1.32226e-05
-0.000398939
-8.48825e-05
6.20716e-05
-0.000116674
-7.62597e-05
-7.92129e-05
-0.000116444
-0.000375826
-0.000343284
0.000140401
0.000296413
-1.26844e-05
-0.000349851
-0.000235688
2.94432e-05
6.36857e-05
-0.000257991
4.49236e-05
0.000208142
0.000246448
-1.29087e-05
-0.00038522
-0.000176289
0.000135919
0.000104928
-0.000135814
0.000140843
0.000252538
-1.09152e-05
-0.000119388
)
;
    }
    bottom_fluid_surface
    {
        type            calculated;
        value           uniform 0;
    }
    lateral_surface_1
    {
        type            calculated;
        value           uniform 0;
    }
    lateral_surface_2
    {
        type            calculated;
        value           uniform 0;
    }
    lateral_surface_3
    {
        type            calculated;
        value           uniform 0;
    }
    lateral_surface_4
    {
        type            calculated;
        value           uniform 0;
    }
}


// ************************************************************************* //
