/*--------------------------------*- C++ -*----------------------------------*\
| =========                 |                                                 |
| \\      /  F ield         | OpenFOAM: The Open Source CFD Toolbox           |
|  \\    /   O peration     | Version:  v1612+                                |
|   \\  /    A nd           | Web:      www.OpenFOAM.com                      |
|    \\/     M anipulation  |                                                 |
\*---------------------------------------------------------------------------*/
FoamFile
{
    version     2.0;
    format      ascii;
    class       surfaceScalarField;
    location    "9.7";
    object      phi;
}
// * * * * * * * * * * * * * * * * * * * * * * * * * * * * * * * * * * * * * //

dimensions      [0 3 -1 0 0 0 0];

internalField   nonuniform List<scalar> 
816
(
4.51008e-06
-1.14973e-05
7.00642e-06
-2.26817e-05
-1.903e-05
4.16924e-05
7.42328e-06
-6.39778e-07
-1.13671e-05
-5.29376e-06
1.43504e-05
-3.53771e-06
-4.21432e-07
-6.08833e-06
2.27766e-06
-3.73261e-06
-1.12357e-05
-6.05195e-07
-8.24433e-06
2.38429e-05
0.000171056
-7.81278e-05
-2.07252e-07
-0.000267545
0.000307313
0.000259348
-7.02445e-07
-0.000106842
0.000137993
0.000266279
-3.095e-06
-0.000269562
0.000538997
0.000359153
-7.36179e-06
0.000379799
-0.00014484
0.000306868
-6.93589e-06
0.000282503
-0.000264438
-2.57919e-05
4.02258e-06
9.55148e-05
0.000406624
-6.91615e-05
2.07872e-06
0.000390862
-0.000164744
6.7097e-05
1.4976e-06
0.000171143
-0.000199884
-6.29882e-05
3.61149e-06
0.000267125
5.68638e-05
-5.1342e-05
-5.37836e-06
-1.416e-05
-6.89127e-05
-0.000271536
8.67433e-06
-3.64034e-06
-9.00658e-05
-1.35777e-06
-0.000264741
-4.15569e-05
2.43028e-05
-3.05625e-06
-3.38149e-05
-2.18258e-06
1.32071e-05
4.75674e-05
-4.64135e-05
1.89539e-05
2.77365e-06
1.71204e-06
-8.5292e-06
-5.96661e-07
5.1071e-05
-5.5364e-06
1.09527e-05
1.59345e-05
-2.76439e-05
1.40603e-05
-2.60894e-05
2.76793e-05
-2.78425e-05
-4.21014e-06
-2.58217e-05
1.249e-05
3.44022e-05
4.30414e-06
-3.54435e-05
2.49757e-05
2.61031e-06
2.56726e-05
-1.42308e-05
-6.87943e-06
-1.17493e-06
1.00766e-05
-5.44035e-05
3.0951e-05
4.2718e-05
2.71318e-05
-3.43611e-05
1.52232e-05
-6.7245e-06
-1.64132e-05
7.96476e-05
7.25888e-06
-3.58424e-05
-1.89461e-05
-6.17854e-06
4.19721e-06
-1.05655e-05
2.20881e-07
-1.72208e-05
7.18524e-07
-2.23491e-05
-2.04715e-05
-1.4817e-05
7.99506e-07
-4.23259e-06
-3.54308e-07
-2.70745e-05
2.66431e-06
4.40009e-06
-6.68123e-06
-1.13761e-05
-1.12475e-05
-1.20434e-05
7.15143e-07
-1.34827e-05
-5.51142e-06
-1.89166e-05
-4.76238e-06
-1.70798e-05
-1.34866e-05
-1.74839e-05
-5.81567e-06
3.74836e-06
-3.67354e-06
-2.49936e-05
-1.81309e-05
-2.50944e-05
-1.62375e-05
-1.49821e-05
-1.30329e-05
1.14087e-05
3.48982e-05
-5.62007e-06
-9.99088e-06
5.41544e-06
-2.74778e-06
2.35022e-06
-6.81343e-06
4.47567e-06
-1.28785e-05
-6.20032e-06
3.5104e-06
-1.13548e-07
-6.68039e-06
3.26481e-07
-1.10523e-06
1.89442e-07
-3.87883e-06
1.26221e-07
-5.30403e-06
-6.46064e-07
1.06998e-07
-4.9484e-06
-1.40454e-06
-2.06883e-07
-6.19782e-06
-1.20863e-05
-9.27698e-06
-4.17303e-06
8.59041e-09
-6.84491e-07
-1.4252e-05
-1.38558e-06
2.42608e-06
-3.10808e-06
-1.5707e-06
-5.44188e-06
-5.23461e-06
-3.45186e-06
-3.28738e-07
-3.06549e-06
-1.07314e-05
-4.80485e-06
-3.36299e-06
-7.71246e-06
-7.00139e-06
-9.33869e-06
2.77834e-06
-2.44601e-06
-1.74826e-06
-1.10074e-05
-1.43895e-05
-7.19766e-06
-9.09666e-06
-7.38354e-06
-4.14293e-06
6.13816e-06
-3.21062e-06
9.98434e-06
2.21058e-06
-3.19242e-06
-4.30399e-06
-4.8606e-05
0.000116652
-1.6378e-06
-0.000170992
0.000130667
9.52912e-07
-0.000306948
0.000144027
2.06675e-05
-0.000124183
0.000448494
-5.88278e-06
-0.000350665
0.00034282
-7.54101e-06
-0.000494455
-0.000152474
9.65662e-05
-5.80581e-06
-0.000193405
-0.000171597
-1.35612e-05
-0.000340502
-0.000491324
-1.30773e-05
-0.000400976
-0.000242208
8.47096e-06
-6.04337e-05
0.00049574
-2.33764e-06
-0.000394793
-6.51496e-05
5.29557e-05
-8.68103e-07
-0.000137206
-0.000327783
1.12521e-06
-0.000212323
-8.73126e-05
2.05465e-06
-6.51821e-05
-0.000164455
1.17156e-06
-0.000191727
8.16775e-05
2.49009e-06
-0.000431888
-0.000493542
-0.000148856
6.41686e-06
-0.0003987
-0.000377456
7.60176e-06
-0.00036879
-0.000316386
6.75545e-06
-0.000266731
-0.000175997
-2.11161e-06
-0.000144737
-2.17835e-06
-0.000362157
-0.000174869
-1.75121e-05
1.4348e-05
-7.80241e-06
1.42851e-06
1.5156e-05
-3.00211e-05
-5.22931e-06
2.3314e-05
9.77779e-06
2.13097e-05
1.97443e-05
-1.059e-05
9.12518e-06
2.46785e-05
7.48574e-05
-4.38352e-05
-4.35434e-05
-6.94539e-07
9.56201e-05
-2.45532e-05
-3.01218e-05
9.08087e-05
-5.74762e-05
-7.19633e-05
0.00011438
-5.82979e-05
-3.741e-05
-1.0095e-05
-3.31819e-06
4.98372e-05
-2.92943e-05
-3.57569e-05
-2.49472e-05
-3.98603e-06
0.000109416
-2.25975e-05
-4.28604e-05
0.000102544
-4.02858e-05
1.38876e-05
-5.75624e-05
-5.32493e-06
2.73813e-06
7.22348e-05
-2.62954e-05
3.13681e-05
7.97307e-05
-6.14209e-05
-4.45218e-05
-6.71679e-06
9.75474e-05
-1.12775e-05
-3.83752e-05
9.19587e-05
-3.81029e-05
-2.53363e-05
2.8282e-05
-2.76158e-05
-8.0339e-07
-1.34213e-05
-9.72063e-06
7.81198e-05
-2.84491e-05
-3.82986e-05
8.23997e-06
-7.46767e-06
-2.43154e-06
-7.27309e-07
-8.59909e-06
-1.4759e-05
2.31895e-06
-7.51784e-06
6.18537e-06
-1.23561e-05
-8.69032e-06
-5.60839e-06
-4.15439e-06
-1.42278e-05
3.43903e-05
2.62178e-05
1.98077e-05
1.06598e-06
4.20806e-05
1.1183e-05
1.57125e-05
4.00542e-05
2.94246e-05
3.49241e-05
5.03837e-05
3.27419e-05
2.0228e-05
-5.72131e-06
4.80766e-06
-3.00599e-05
-1.0944e-05
2.11508e-05
1.07857e-05
2.71756e-07
4.73551e-05
1.28076e-05
2.03074e-05
4.4836e-05
2.41714e-05
-1.09948e-05
-2.52468e-05
2.71411e-06
-2.79214e-06
3.29432e-05
1.29379e-05
-1.84581e-05
3.56807e-05
3.49051e-05
2.48183e-05
4.20591e-06
4.2566e-05
7.21373e-06
2.26781e-05
4.09878e-05
1.94566e-05
1.67859e-05
1.41794e-05
1.43762e-05
1.88416e-06
-5.46308e-06
4.20614e-06
3.57317e-05
1.58551e-05
2.09479e-05
5.63663e-06
-4.87401e-06
3.38215e-07
-1.34605e-06
-4.51884e-06
-4.70495e-06
-2.76433e-08
-4.04908e-06
4.10878e-06
-7.69869e-06
-3.9563e-06
-2.47199e-06
-3.95093e-06
-7.20323e-06
1.18102e-05
1.45038e-05
1.13032e-05
3.96489e-07
1.533e-05
4.91573e-06
8.45088e-06
1.28785e-05
1.60169e-05
1.84846e-05
1.64785e-05
1.86303e-05
1.01039e-05
-1.99029e-06
1.57642e-06
-1.64551e-05
-4.80073e-07
1.09565e-05
5.13735e-06
5.03832e-07
1.32422e-05
6.4091e-06
1.0713e-05
1.45341e-05
1.23545e-05
-7.43841e-06
-5.11542e-06
7.90657e-07
-2.20433e-06
1.08446e-05
5.85332e-06
-1.00802e-05
1.10943e-05
1.88221e-05
1.36344e-05
2.19765e-06
1.35622e-05
2.3284e-06
1.1739e-05
1.33254e-05
1.07378e-05
8.56203e-06
6.04787e-06
8.10155e-06
3.59762e-07
-1.35899e-06
9.2572e-07
1.01504e-05
8.72625e-06
1.23941e-05
1.21988e-06
-4.28447e-06
3.24849e-06
-6.3929e-06
2.96519e-06
-5.37629e-07
-8.87676e-07
-2.49604e-06
-9.28299e-07
-7.42552e-07
-2.1813e-06
2.75612e-06
-5.20988e-06
1.20819e-06
1.03009e-06
-5.82249e-06
-4.10228e-06
-1.70809e-07
7.17194e-07
-7.76905e-06
-5.64345e-07
-2.07087e-06
-2.85136e-06
-3.34987e-06
-8.88848e-07
-1.32944e-06
-5.44072e-06
-2.29947e-06
-2.84573e-06
-5.75244e-06
6.52865e-08
-1.45542e-06
-4.24382e-06
-7.2584e-06
-3.4344e-06
-2.91446e-06
3.22597e-06
-3.05635e-06
5.53245e-07
-4.2646e-07
1.99387e-06
-1.63122e-06
5.18295e-07
-2.97377e-06
1.35627e-06
-7.34087e-07
-2.18064e-06
-2.39459e-06
-7.81804e-08
-2.66254e-06
5.82393e-06
6.24188e-06
1.46771e-06
3.40451e-06
4.91934e-06
7.3492e-06
9.90811e-06
8.13104e-06
4.59859e-06
1.97664e-06
-6.00747e-06
5.83674e-06
4.28331e-06
-6.40148e-07
2.43052e-06
4.43884e-06
6.60243e-06
-2.38183e-06
1.76399e-06
-3.54272e-07
4.57533e-06
-3.8748e-06
8.35264e-06
6.26011e-06
9.82153e-07
1.42745e-06
6.08692e-06
5.29565e-06
6.08709e-06
2.9849e-06
1.97628e-06
2.37138e-06
5.12183e-06
5.61441e-06
9.75002e-05
-0.00023195
8.92811e-07
5.40785e-05
-2.81241e-07
0.000201131
5.19069e-06
4.47546e-05
8.5338e-06
0.000287653
-4.61914e-06
-0.000189137
-1.40789e-05
0.000419646
-1.60007e-06
0.000237514
1.44635e-05
3.09624e-05
1.09235e-05
9.70831e-05
1.68347e-06
6.60549e-05
-6.21334e-06
6.94462e-05
-1.0636e-05
7.91023e-05
-3.70316e-06
6.37911e-05
1.05607e-05
2.94099e-05
2.47928e-06
-1.89017e-05
3.82633e-06
-0.000126637
-1.02354e-05
-0.000198061
-2.66802e-06
-0.000202063
1.296e-05
-0.000280896
-1.34092e-07
0.00014823
-2.6735e-06
-8.82836e-05
-1.13979e-06
2.26426e-05
1.07051e-06
-4.58518e-05
6.64729e-06
-0.000150846
7.62055e-06
-0.000258584
1.49188e-06
-0.000375435
-3.38174e-06
-1.39305e-06
1.45228e-05
-3.5704e-05
-9.75056e-06
1.14754e-05
3.74299e-06
3.71177e-05
-2.54746e-05
1.02277e-05
5.82547e-05
-1.86665e-05
3.45892e-05
-5.38847e-05
-2.26755e-05
3.54339e-05
-9.16846e-05
2.06102e-05
-1.49264e-05
-2.22687e-05
2.90051e-05
-1.11007e-05
-6.67445e-05
9.47631e-06
-8.47196e-05
1.3723e-05
-1.80995e-05
1.3242e-05
-3.94874e-05
-1.50174e-05
3.84665e-05
-8.19573e-06
-2.94934e-05
-3.10721e-06
-2.75113e-05
-4.23428e-06
-5.09757e-05
2.044e-07
-9.13644e-06
-9.47562e-06
-3.67681e-06
-1.89465e-05
-5.15882e-05
3.53069e-05
-5.67546e-05
8.83247e-06
-1.94533e-05
-4.20502e-06
2.46466e-06
7.21675e-07
-3.66766e-05
-1.12264e-05
-8.26367e-06
-2.01363e-05
-1.13553e-07
-2.55697e-05
-3.83669e-05
-6.25694e-05
-8.95405e-06
2.00809e-05
-5.05871e-06
-7.75059e-06
1.8074e-06
-1.92433e-05
-1.15863e-05
-1.23193e-07
2.67363e-05
1.48688e-05
1.54143e-05
2.76375e-05
-9.24243e-06
-2.32529e-05
-4.07905e-05
-1.00578e-05
-8.29102e-06
1.67372e-05
1.33908e-05
8.10488e-06
-2.86993e-05
-5.21015e-06
-3.86708e-05
-1.01776e-05
-8.32926e-06
-1.18086e-05
-1.6708e-05
1.01222e-05
1.65357e-05
4.84493e-06
-1.34393e-05
1.73393e-06
-1.16033e-05
-2.95485e-06
-2.21164e-05
-4.39574e-06
-4.97683e-06
6.30255e-06
-1.4409e-06
1.14431e-05
-2.18267e-05
-1.94098e-05
-2.59032e-05
-5.90007e-06
-8.13173e-06
1.09304e-06
2.68832e-06
5.82874e-07
-1.67157e-05
9.6999e-06
-3.01302e-06
1.41846e-05
-4.02003e-07
1.50003e-05
-1.82308e-05
-2.74618e-05
-4.29292e-06
1.01435e-05
-2.29578e-06
-3.7829e-06
-1.75833e-07
-1.04498e-05
-4.73772e-06
4.36044e-07
8.22914e-06
9.94572e-06
1.97069e-06
1.54056e-05
-2.09441e-07
-1.27076e-05
-1.27033e-05
-5.93515e-06
-3.76255e-06
9.2906e-06
3.09354e-06
5.53069e-06
-8.91839e-06
-4.13551e-06
-1.03775e-05
-6.60645e-06
-4.28839e-06
-7.38502e-06
-4.97982e-06
6.44796e-06
2.7069e-06
2.97554e-06
-4.82981e-06
6.19872e-07
-2.86395e-06
-2.20314e-06
-6.95365e-06
-3.01221e-06
-3.37145e-06
3.63052e-06
-2.23035e-06
6.03871e-06
-5.41269e-06
-1.05816e-05
-9.29953e-06
-3.37159e-06
-1.71871e-06
1.54656e-06
1.08622e-07
7.88324e-08
-4.50512e-06
4.52663e-06
6.26633e-07
7.69895e-06
-2.69765e-06
7.11957e-06
-5.29997e-06
-1.01466e-05
-2.78782e-06
5.6e-06
-2.8148e-06
-6.24576e-06
-2.1485e-07
1.68546e-06
7.32935e-06
-5.37177e-06
-2.90988e-06
3.58051e-06
2.00783e-06
-2.38061e-07
-2.55057e-06
-1.7069e-06
9.92716e-07
4.44153e-07
7.15798e-09
-3.51624e-07
-1.96548e-06
3.76031e-07
3.33156e-06
-5.96265e-06
-1.43136e-06
1.08415e-07
9.08582e-07
4.504e-06
4.0671e-06
4.30066e-06
2.08329e-05
0.000239644
6.33371e-06
6.83823e-05
-3.72403e-06
0.000163602
2.20596e-06
1.06029e-06
3.00139e-07
2.24148e-05
-1.42988e-05
1.46374e-05
)
;

boundaryField
{
    top_fluid_surface
    {
        type            calculated;
        value           nonuniform List<scalar> 
64
(
-0.000132464
-0.000120676
-0.00027773
-0.000324508
4.34013e-05
-0.000145553
-0.00018507
-0.000110595
-0.000201987
7.61667e-05
0.000299183
-4.89693e-05
-0.000160565
-0.000146896
-1.81684e-05
-0.000221751
0.000760494
0.0009824
0.000994763
0.00104
-0.000100266
-0.000276212
0.000986102
0.000979671
-1.90781e-05
0.000530357
0.000682474
0.000679869
0.000569586
0.000190255
-3.6241e-05
0.00047707
-0.000232834
-0.000132922
-0.000463427
1.86603e-05
-0.000591221
-5.71749e-06
-0.000606996
1.52939e-05
2.12895e-06
-0.000406423
-0.000364708
-5.54834e-05
-0.00040309
4.46308e-06
-3.50118e-05
-9.44563e-05
-9.25115e-05
-6.92102e-06
-0.000204557
-0.000346659
-0.000426034
-0.000255809
-0.000511867
-0.00030872
-0.000170239
-3.99219e-05
-5.55939e-05
-0.000610838
-5.28762e-05
-5.95805e-05
-0.000201953
-0.000221318
)
;
    }
    bottom_fluid_surface
    {
        type            calculated;
        value           uniform 0;
    }
    lateral_surface_1
    {
        type            calculated;
        value           uniform 0;
    }
    lateral_surface_2
    {
        type            calculated;
        value           uniform 0;
    }
    lateral_surface_3
    {
        type            calculated;
        value           uniform 0;
    }
    lateral_surface_4
    {
        type            calculated;
        value           uniform 0;
    }
}


// ************************************************************************* //
