/*--------------------------------*- C++ -*----------------------------------*\
| =========                 |                                                 |
| \\      /  F ield         | OpenFOAM: The Open Source CFD Toolbox           |
|  \\    /   O peration     | Version:  v1612+                                |
|   \\  /    A nd           | Web:      www.OpenFOAM.com                      |
|    \\/     M anipulation  |                                                 |
\*---------------------------------------------------------------------------*/
FoamFile
{
    version     2.0;
    format      ascii;
    class       surfaceScalarField;
    location    "8.7";
    object      alphaPhi;
}
// * * * * * * * * * * * * * * * * * * * * * * * * * * * * * * * * * * * * * //

dimensions      [0 3 -1 0 0 0 0];

internalField   nonuniform List<scalar> 
816
(
-2.59479e-06
-1.05155e-05
5.34605e-06
-1.45928e-05
-1.79096e-05
4.02687e-05
6.53059e-06
2.33393e-06
-1.28937e-05
-9.91796e-08
1.53006e-06
-9.33685e-06
4.02341e-07
1.55225e-06
2.543e-06
-5.66191e-06
-1.1684e-05
4.07015e-06
-1.56591e-06
6.43177e-06
9.18102e-09
-4.55993e-09
1.33647e-06
-7.73865e-10
3.98587e-09
9.90911e-09
-6.75375e-07
5.791e-09
-3.40989e-09
-8.93065e-10
-6.08753e-06
6.77297e-10
1.32879e-08
9.67503e-10
-2.77882e-06
9.40443e-09
-7.11002e-09
4.94132e-09
2.28374e-06
9.57911e-09
-8.24398e-09
-3.55298e-09
5.91418e-07
4.94404e-09
5.87649e-09
-1.24111e-09
1.44908e-06
6.24408e-09
-3.57652e-09
5.39594e-09
3.39307e-07
2.89139e-09
-1.84058e-09
-1.94216e-09
-6.82426e-06
6.42614e-09
5.15054e-09
-9.16223e-10
5.53881e-07
2.74528e-09
-1.79427e-09
-6.24444e-09
-1.0661e-05
3.08296e-10
-2.83291e-09
1.3172e-06
-4.48671e-09
-2.52185e-09
2.12102e-05
-4.85007e-07
-3.08406e-05
-6.79801e-07
1.58082e-05
3.4218e-05
-3.99752e-05
2.06809e-05
4.40758e-06
-6.77691e-07
-4.87079e-06
-2.94473e-07
3.74014e-05
-7.26475e-06
2.17681e-05
3.60368e-06
-1.49752e-05
1.29946e-05
-1.45862e-05
1.32838e-05
-1.23124e-05
1.64314e-06
-2.3839e-05
9.81224e-06
2.86795e-05
1.01245e-05
-3.02149e-05
1.64501e-05
9.2271e-06
2.79779e-05
-9.07172e-06
-1.01287e-05
2.63643e-06
9.75599e-06
-5.40922e-05
2.15387e-05
3.93795e-05
2.68739e-05
-3.56604e-05
1.45404e-05
-3.11266e-06
-1.8483e-05
5.80842e-05
4.79001e-06
-3.38984e-05
-1.93922e-05
-3.56714e-06
5.03615e-06
-1.22973e-05
2.47704e-06
-1.60237e-05
4.17921e-07
-2.23441e-05
-1.70502e-05
-1.0667e-05
-1.03374e-07
-2.33696e-06
-6.88083e-07
-2.40416e-05
3.4144e-06
1.00778e-05
-4.69898e-06
-6.05243e-06
-6.77934e-06
-1.00225e-05
3.16775e-06
-1.20647e-05
-6.45519e-06
-1.4504e-05
-2.00665e-07
-1.49033e-05
-7.79492e-06
-9.35627e-06
-3.83052e-06
4.38021e-06
-5.19092e-06
-2.45507e-05
-1.43698e-05
-1.93853e-05
-1.55264e-05
-1.69018e-05
-7.04706e-06
5.59743e-06
2.52441e-05
-2.89784e-06
-1.06795e-05
1.01514e-06
-1.61589e-06
-2.25511e-06
-5.64361e-06
3.45125e-06
-7.50491e-06
-5.95006e-06
3.62351e-06
1.04774e-06
-8.71621e-06
1.67664e-06
-4.96727e-06
7.23677e-07
9.27786e-07
2.60156e-07
-6.54136e-06
1.70295e-06
1.93872e-06
-7.0369e-06
1.07526e-06
-9.02854e-07
-5.76165e-06
-1.27168e-05
-7.21205e-06
-3.11153e-06
-9.61875e-08
-9.6731e-07
-1.34726e-05
-5.07678e-07
3.45143e-06
-2.74543e-06
5.49355e-07
-2.75378e-06
-5.27183e-06
-1.86015e-06
2.28025e-06
-4.61358e-06
-8.52694e-06
-3.92843e-06
-1.68787e-07
-4.83291e-06
-5.92778e-06
-4.62182e-06
3.3816e-06
-2.00669e-06
-2.16378e-06
-8.61276e-06
-1.09098e-05
-7.42543e-06
-8.88467e-06
-4.08378e-06
-5.24392e-06
3.01318e-06
-1.33874e-06
7.18803e-06
-3.45192e-07
-1.71497e-06
-4.49241e-06
5.60673e-09
-6.22926e-10
-2.97427e-06
-1.4579e-09
1.01739e-08
-1.16134e-06
-2.55434e-09
5.84324e-09
4.10753e-10
8.3808e-10
9.71293e-09
-5.5299e-06
-1.26556e-10
9.26045e-10
-2.00916e-06
-5.87593e-09
-6.43529e-10
-2.47944e-09
1.68891e-10
-5.95027e-10
-4.55771e-09
-1.89094e-06
-3.29816e-09
-7.90193e-09
1.96467e-06
-4.62121e-09
-3.31616e-09
-2.9371e-06
1.80525e-10
4.48655e-09
-7.5064e-06
-6.46887e-09
-2.28604e-09
-2.01886e-09
9.98235e-11
-3.38863e-09
-5.53404e-09
-2.28393e-06
-3.59387e-09
2.2152e-09
1.88369e-06
-4.20455e-10
6.67391e-10
-5.46037e-06
-2.46325e-09
4.98908e-10
-2.9457e-07
-8.0878e-09
-7.74588e-09
-4.27484e-09
6.01854e-11
-6.60492e-09
-9.10533e-09
-1.50544e-05
-4.79885e-09
-9.78456e-09
-4.73746e-06
-3.74091e-09
-2.47617e-09
-2.38383e-06
-2.72542e-09
-2.31368e-06
-3.94903e-09
-4.59652e-09
-1.49972e-05
8.65938e-06
1.63406e-06
5.59653e-06
1.2445e-05
-3.18547e-05
-1.02524e-06
1.05144e-05
2.50884e-06
1.97284e-05
1.04662e-05
-4.52397e-06
6.38065e-06
2.00705e-05
6.25891e-05
-4.04359e-05
-3.43058e-05
-2.07222e-06
8.16076e-05
-1.81041e-05
-2.3814e-05
7.77659e-05
-4.942e-05
-5.42014e-05
0.000101098
-5.31582e-05
-2.94577e-05
-9.07914e-06
-7.12514e-06
3.78536e-05
-1.66621e-05
-3.39434e-05
-2.43303e-05
-1.09533e-06
8.56396e-05
-1.48393e-05
-3.2853e-05
8.18185e-05
-3.5175e-05
1.46997e-05
-5.07167e-05
-3.75619e-06
4.8349e-06
5.29762e-05
-2.49201e-05
2.94758e-05
5.55604e-05
-5.0645e-05
-3.32733e-05
-3.39813e-06
6.97039e-05
-3.10137e-06
-3.38987e-05
6.73972e-05
-3.48097e-05
-2.51862e-05
1.4666e-05
-2.47651e-05
-4.01675e-06
-1.0099e-05
-8.1584e-06
6.52383e-05
-2.27432e-05
-3.43861e-05
7.97318e-06
-4.7173e-06
1.30662e-06
-1.88931e-06
-9.06246e-06
-1.48703e-05
6.66085e-07
-9.79709e-06
2.91254e-06
-1.05166e-05
-6.50055e-06
-1.74045e-06
-6.78852e-06
-1.34601e-05
2.95231e-05
2.1053e-05
1.90731e-05
-1.92695e-07
3.61251e-05
8.18334e-06
1.25502e-05
3.44341e-05
2.58916e-05
3.05614e-05
4.44652e-05
2.86202e-05
1.67205e-05
-3.63507e-06
1.98333e-06
-1.97729e-05
-4.83658e-06
1.36513e-05
1.10155e-05
4.12701e-06
3.74218e-05
9.77243e-06
2.10348e-05
3.58077e-05
2.13055e-05
-4.17052e-06
-2.28813e-05
1.81725e-06
-5.17875e-07
2.43114e-05
1.06547e-05
-1.56696e-05
2.48136e-05
2.74548e-05
1.83968e-05
2.30555e-06
3.00976e-05
2.32625e-06
1.60094e-05
3.04387e-05
1.61888e-05
1.01417e-05
7.08084e-06
1.04942e-05
-3.77633e-07
-5.07765e-06
3.94041e-06
2.90358e-05
1.26127e-05
1.87288e-05
4.07772e-06
-2.48307e-06
1.23899e-06
-1.7826e-06
-5.79538e-06
-4.8773e-06
-8.92696e-07
-6.15657e-06
3.03857e-06
-6.99918e-06
-3.34117e-06
-1.06879e-06
-4.48026e-06
-6.48607e-06
1.01183e-05
1.17573e-05
1.07038e-05
-8.10958e-09
1.3387e-05
2.82455e-06
6.82642e-06
1.13159e-05
1.35582e-05
1.56769e-05
1.47604e-05
1.55977e-05
8.31604e-06
-9.62738e-07
8.48199e-08
-9.90953e-06
9.38743e-07
7.06636e-06
5.4732e-06
3.65924e-06
1.0649e-05
4.71203e-06
1.20756e-05
1.16178e-05
1.08983e-05
-3.12551e-06
-5.04688e-06
7.36361e-07
-5.56774e-07
7.56756e-06
5.62154e-06
-8.5835e-06
7.21592e-06
1.48654e-05
1.0637e-05
1.08786e-06
9.46013e-06
3.91236e-08
8.66923e-06
9.56703e-06
9.24243e-06
5.2471e-06
3.2478e-06
5.82258e-06
-1.21117e-06
-1.48556e-06
1.05875e-06
7.83499e-06
6.47209e-06
1.12099e-05
-1.91113e-06
-3.21405e-06
2.21186e-06
-3.0368e-06
3.05854e-06
-3.92545e-07
-2.90746e-06
-5.34904e-06
-1.92047e-07
2.58824e-06
-3.93954e-06
3.65789e-06
-6.84036e-06
2.87277e-06
3.47658e-07
-6.98847e-06
-3.45057e-06
-1.08404e-08
2.55759e-07
-7.72111e-06
1.7637e-07
-2.51328e-06
-1.46539e-06
-4.11178e-06
1.65309e-06
-2.88214e-06
-4.12202e-06
5.78349e-07
-1.21447e-06
-2.27642e-06
6.34275e-07
-2.1107e-06
-2.84931e-06
-4.71334e-06
-4.18819e-06
-6.07424e-07
1.15751e-06
-1.16604e-06
-1.13643e-06
7.64182e-07
7.02392e-07
6.37291e-09
-3.62489e-07
-4.30447e-06
5.7e-07
-2.53614e-06
-2.17225e-06
-2.5183e-06
-8.02204e-07
-2.46309e-06
4.6184e-06
5.40402e-06
1.14395e-06
1.98994e-06
4.06144e-06
5.87545e-06
8.52576e-06
6.19477e-06
3.93686e-06
6.8758e-07
-2.52296e-06
3.34186e-06
4.06023e-06
2.28077e-06
1.88403e-06
6.59997e-06
6.08834e-06
6.50662e-07
1.50864e-06
1.1499e-06
4.33289e-06
-3.66471e-06
6.74282e-06
5.36212e-06
6.34394e-08
8.70275e-07
4.03244e-06
4.98146e-06
3.67877e-06
2.38149e-06
6.08711e-07
2.34504e-06
3.5249e-06
5.21717e-06
5.32037e-09
-9.98039e-09
-5.48215e-06
7.3884e-09
8.98472e-06
1.22123e-08
-2.46442e-05
6.06719e-09
-7.23645e-06
4.89286e-09
1.01776e-05
-8.36685e-10
-1.80637e-05
3.5355e-09
-6.20065e-06
-3.72165e-10
2.00511e-06
-5.56874e-09
3.936e-06
-2.74531e-09
3.06647e-06
-1.40314e-09
-3.77923e-06
6.5782e-10
-2.76611e-07
5.2901e-10
3.47447e-06
-6.42277e-10
2.22132e-10
-3.01887e-09
-4.70045e-06
-1.94027e-09
-1.68724e-06
-1.14976e-09
-3.86298e-06
1.13714e-09
-1.69847e-06
-1.39493e-09
2.41703e-06
-3.74621e-09
-7.38978e-06
2.44838e-09
2.64691e-06
-2.8527e-09
-4.55179e-06
-1.11988e-09
-2.14347e-06
-3.36957e-09
1.68003e-06
-7.57706e-09
2.98613e-06
-6.276e-09
-2.47483e-06
-8.10052e-09
2.69205e-06
2.08928e-06
1.5441e-05
-3.62904e-05
-9.69352e-06
1.17927e-05
6.7218e-06
2.99485e-05
-2.24433e-05
-1.40092e-06
4.71816e-05
-2.40281e-05
4.42294e-05
-4.22793e-05
-1.58449e-05
3.22362e-05
-7.88493e-05
1.70787e-05
-2.13813e-05
-2.71867e-05
3.01337e-05
-1.06377e-05
-5.40935e-05
9.64172e-06
-7.54896e-05
1.57688e-05
-1.06708e-05
1.39051e-05
-2.04935e-05
-1.22224e-05
3.36897e-05
-3.46623e-06
-2.54104e-05
-5.81194e-07
-1.94686e-05
-2.80516e-09
-4.38573e-05
2.66295e-06
-7.66392e-06
-6.93561e-06
-8.5908e-06
-1.85469e-05
-4.57141e-05
3.78821e-05
-5.10072e-05
1.16042e-05
-1.16777e-05
-7.75578e-06
1.06477e-05
-2.77378e-06
-3.5303e-05
-1.35467e-05
-5.981e-06
-1.95787e-05
-7.94502e-07
-2.25859e-05
-3.42242e-05
-4.72027e-05
-8.32025e-06
1.54445e-05
-4.24535e-06
-6.96477e-06
2.83783e-06
-1.87856e-05
-9.58604e-06
-4.59167e-06
2.24282e-05
1.37028e-05
1.89432e-05
2.53755e-05
-6.50396e-06
-1.96104e-05
-3.37955e-05
-1.05605e-05
-1.12267e-05
1.25099e-05
1.52751e-05
7.50468e-06
-2.31945e-05
-6.08399e-06
-3.32895e-05
-9.72018e-06
-5.00615e-06
-8.56629e-06
-7.88769e-06
1.02169e-05
1.49768e-05
6.73716e-06
-1.09867e-05
4.5382e-06
-7.5911e-06
1.38095e-06
-1.93972e-05
3.91626e-07
-4.80591e-06
7.65299e-06
-5.15688e-06
8.9617e-06
-1.96515e-05
-1.81102e-05
-2.39948e-05
-5.94933e-06
-5.27596e-06
1.55842e-06
5.60208e-06
-9.92578e-07
-1.65236e-05
5.65335e-06
-2.13578e-06
9.51601e-06
-8.13571e-07
1.003e-05
-1.60165e-05
-2.12251e-05
-4.32574e-06
8.44044e-06
-1.87912e-06
-4.69835e-06
6.4686e-07
-1.07727e-05
-4.12804e-06
-2.19757e-06
7.22518e-06
8.4602e-06
3.79988e-06
1.33802e-05
2.11466e-07
-1.04108e-05
-1.01626e-05
-6.60148e-06
-4.22707e-06
7.59687e-06
4.01096e-06
5.06488e-06
-7.04282e-06
-4.17374e-06
-8.44005e-06
-6.37926e-06
-2.76835e-06
-5.43785e-06
-1.84386e-06
6.50372e-06
3.16264e-06
4.74163e-06
-3.54939e-06
3.5977e-06
-1.79415e-06
1.33558e-06
-6.30517e-06
3.05018e-07
-3.06551e-06
4.24405e-06
-3.39009e-06
5.23241e-06
-5.59924e-06
-1.02463e-05
-8.80858e-06
-3.61178e-06
-1.56401e-06
1.46463e-06
6.23461e-07
-7.53596e-07
-4.95539e-06
2.62948e-06
3.9798e-07
5.20037e-06
-2.48971e-06
4.44211e-06
-4.51748e-06
-7.92239e-06
-3.08607e-06
4.91827e-06
-3.3603e-06
-7.13392e-06
-2.11231e-06
9.90166e-07
6.0092e-06
-4.1766e-06
-3.08706e-06
2.90138e-06
1.75502e-06
-4.03957e-07
-2.43715e-06
-1.12489e-06
1.91487e-06
2.53074e-06
2.68128e-06
2.51684e-06
8.33662e-07
1.64757e-06
3.10829e-06
-5.47582e-06
-1.85266e-06
-4.21928e-07
-4.06789e-07
2.49111e-06
2.32632e-06
2.58839e-06
1.08432e-09
3.88744e-09
-1.35577e-06
-2.35219e-09
3.39188e-07
1.83562e-09
-3.24589e-06
-6.99237e-07
-5.84152e-06
2.21923e-05
-1.19568e-05
7.57168e-06
)
;

boundaryField
{
    top_fluid_surface
    {
        type            calculated;
        value           nonuniform List<scalar> 
64
(
0
0
0
0
0
0
0
0
0
0
8.18831e-09
0
0
0
5.15439e-09
0
1.24102e-08
1.30147e-08
1.25297e-08
1.2672e-08
2.77818e-10
1.82612e-09
1.25141e-08
1.11819e-08
0
9.49084e-09
1.25789e-08
1.29942e-08
1.2438e-08
3.13211e-09
0
5.30083e-09
8.98016e-11
0
0
6.1518e-09
0
2.78337e-09
0
2.11173e-09
3.38076e-09
0
0
0
0
7.94963e-10
1.43432e-10
0
0
0
0
0
0
0
0
0
0
0
0
0
0
0
0
0
)
;
    }
    bottom_fluid_surface
    {
        type            calculated;
        value           uniform 0;
    }
    lateral_surface_1
    {
        type            calculated;
        value           uniform 0;
    }
    lateral_surface_2
    {
        type            calculated;
        value           uniform 0;
    }
    lateral_surface_3
    {
        type            calculated;
        value           uniform 0;
    }
    lateral_surface_4
    {
        type            calculated;
        value           uniform 0;
    }
}


// ************************************************************************* //
