/*--------------------------------*- C++ -*----------------------------------*\
| =========                 |                                                 |
| \\      /  F ield         | OpenFOAM: The Open Source CFD Toolbox           |
|  \\    /   O peration     | Version:  v1612+                                |
|   \\  /    A nd           | Web:      www.OpenFOAM.com                      |
|    \\/     M anipulation  |                                                 |
\*---------------------------------------------------------------------------*/
FoamFile
{
    version     2.0;
    format      ascii;
    class       surfaceScalarField;
    location    "7.75";
    object      alphaPhi;
}
// * * * * * * * * * * * * * * * * * * * * * * * * * * * * * * * * * * * * * //

dimensions      [0 3 -1 0 0 0 0];

internalField   nonuniform List<scalar> 
816
(
-3.65079e-07
-1.00567e-05
5.04257e-06
-1.26612e-05
-1.53316e-05
3.33733e-05
5.85905e-06
3.8668e-06
-6.03528e-06
6.33582e-06
-1.04181e-05
-8.04494e-06
1.39977e-06
2.10984e-06
6.601e-06
-1.21285e-05
-5.27273e-06
7.74061e-06
7.7434e-06
-1.25064e-05
1.79168e-09
-9.85176e-10
7.43563e-07
-5.35497e-09
6.73413e-09
2.67582e-09
-7.24371e-07
-1.70753e-09
3.04229e-09
4.25512e-09
-1.43759e-06
-5.57189e-09
5.03744e-09
4.79934e-09
-1.22116e-05
1.95882e-09
-2.00755e-10
3.88002e-09
3.0565e-06
2.62894e-09
-1.25198e-09
2.95106e-09
2.80969e-08
-1.70099e-09
4.02299e-09
2.65524e-09
4.24241e-07
2.96463e-09
-2.23679e-09
4.75933e-09
2.88814e-06
2.37036e-09
-3.83401e-09
-4.13708e-09
-9.69985e-06
5.15051e-09
3.2591e-09
-1.08399e-09
3.33831e-06
3.03585e-09
-9.57786e-10
-6.06291e-09
-1.6933e-06
2.01355e-09
-4.66596e-09
1.91821e-06
-3.48748e-09
4.5135e-10
2.26867e-05
-3.63978e-06
-2.82665e-05
3.37458e-07
1.29353e-05
3.04862e-05
-2.9628e-05
1.32886e-05
7.31384e-06
1.96373e-07
-1.0609e-06
-4.12274e-06
3.07163e-05
-8.2343e-06
1.58068e-05
-1.47647e-06
-1.35836e-05
7.04273e-06
-7.63695e-06
1.07606e-05
-9.37832e-06
-1.48101e-06
-2.67058e-05
8.56747e-06
2.63632e-05
4.45833e-06
-2.90376e-05
7.96944e-06
1.42711e-05
2.0839e-05
4.02792e-07
-1.29169e-05
5.22039e-06
6.01498e-06
-4.37735e-05
1.73207e-05
3.31729e-05
2.31592e-05
-2.77021e-05
1.10518e-05
5.81529e-06
-1.15977e-05
5.00188e-05
6.57618e-06
-2.17829e-05
-1.56231e-05
3.28453e-06
5.64123e-06
-1.0214e-05
1.03341e-06
-1.40634e-05
-8.93119e-09
-1.65542e-05
-1.15997e-05
-7.86472e-06
1.51944e-06
-6.43798e-08
-1.66473e-06
-1.73929e-05
3.95299e-06
6.44724e-06
8.78476e-07
-3.35484e-06
-2.63831e-06
-2.99187e-06
-3.51609e-07
-1.39303e-05
-4.49744e-06
-1.12831e-05
-4.0872e-06
-1.33058e-05
-4.28136e-06
-8.69859e-06
8.48684e-07
5.46805e-06
-6.00915e-06
-1.96243e-05
-9.21632e-06
-1.76315e-05
-1.34121e-05
-1.36439e-05
-4.72264e-06
4.07212e-06
2.1526e-05
-1.68664e-06
-8.41027e-06
-4.49598e-07
-1.63664e-06
-1.00961e-06
-6.32567e-06
3.30323e-06
-6.45395e-06
-4.87742e-06
3.02004e-06
2.8658e-06
-3.47185e-06
2.87297e-06
-4.2345e-06
1.12622e-06
1.7986e-06
1.5143e-06
-2.22121e-06
4.79653e-06
3.9345e-06
-5.97418e-06
1.57684e-07
-2.94825e-07
-4.64364e-06
-8.95216e-06
-4.07542e-06
-1.6792e-06
3.71854e-07
-7.00476e-07
-9.01446e-06
3.19598e-07
2.97477e-06
7.08236e-07
-3.23518e-07
-7.36819e-07
-2.54701e-07
-8.87667e-07
-1.4524e-06
-2.56452e-06
-6.29526e-06
-4.35994e-06
-3.11773e-06
-2.00854e-06
-4.87125e-06
-4.47936e-06
4.03039e-06
-7.14373e-07
-2.39935e-06
-6.04534e-06
-1.02472e-05
-5.42713e-06
-7.45784e-06
-2.99145e-06
-3.81898e-06
2.12076e-06
-1.13706e-06
6.63181e-06
-9.16896e-07
-2.11801e-06
-3.07009e-06
-5.33142e-09
5.45591e-09
2.74711e-06
-3.56086e-09
3.89741e-10
6.60898e-07
-3.84171e-09
-3.24902e-10
-2.43616e-06
-2.49154e-09
1.78894e-09
3.23528e-07
-1.90033e-09
6.37261e-09
4.00086e-07
-6.56316e-09
-4.136e-09
3.29953e-09
4.04291e-07
-3.25891e-09
-7.18855e-10
-3.8605e-06
-7.53405e-09
-6.40323e-09
-1.29814e-06
-7.40009e-09
-3.75219e-09
6.1503e-07
-4.00014e-09
6.69442e-09
-2.05033e-05
-9.2658e-09
-4.25383e-09
2.88898e-09
-5.93934e-06
-5.85552e-09
-1.54681e-09
6.88227e-11
-6.26204e-09
3.56181e-09
2.53408e-06
-5.25024e-10
4.35345e-10
-8.07288e-07
-3.60723e-09
-1.09581e-09
-7.17223e-07
-4.26814e-09
-6.15632e-09
-3.87831e-09
6.48263e-07
-5.73545e-09
-7.1775e-09
-7.4882e-06
-4.05632e-09
-6.98207e-09
1.15894e-07
-5.66037e-10
-6.29408e-10
1.51973e-06
-3.59491e-11
4.71328e-11
-3.44897e-09
-8.2553e-10
-1.38048e-05
7.31949e-06
1.26089e-05
8.2542e-06
1.22212e-05
-2.4301e-05
1.47308e-06
1.0379e-05
-4.43852e-06
1.74704e-05
6.03613e-06
-3.39441e-06
6.02795e-06
1.98878e-05
5.32702e-05
-3.44986e-05
-3.05797e-05
2.12703e-07
6.48799e-05
-1.1855e-05
-1.76733e-05
5.50849e-05
-4.36905e-05
-4.40755e-05
7.96776e-05
-4.38151e-05
-2.108e-05
-5.50447e-06
-4.57458e-06
2.30792e-05
-1.69947e-05
-1.71813e-05
-1.70266e-05
-7.88923e-06
5.93667e-05
-7.82192e-06
-3.14969e-05
6.61126e-05
-3.08979e-05
1.09611e-05
-4.16399e-05
-3.06826e-06
4.17618e-06
4.23183e-05
-2.03401e-05
2.5343e-05
4.12252e-05
-4.04375e-05
-2.20763e-05
-1.19321e-06
5.35385e-05
6.16432e-06
-2.66273e-05
5.63644e-05
-2.72435e-05
-1.8736e-05
1.09358e-05
-1.0424e-05
-3.98216e-07
-2.14857e-06
-3.96924e-06
5.04372e-05
-1.55297e-05
-2.54537e-05
7.90282e-06
-1.31847e-07
6.47295e-06
-2.08097e-06
-5.19573e-06
-1.14852e-05
2.95256e-07
-6.22064e-06
-1.05781e-06
-1.02234e-05
-3.62052e-06
-2.11096e-06
-5.58183e-06
-9.20062e-06
2.43333e-05
1.72059e-05
1.73117e-05
1.89494e-06
2.90089e-05
7.3729e-06
1.02651e-05
2.4723e-05
2.28642e-05
2.48396e-05
3.55298e-05
2.65792e-05
1.52414e-05
-3.34067e-06
2.92993e-06
-1.62041e-05
-7.13808e-06
1.12981e-05
1.02854e-05
4.05805e-07
2.63148e-05
5.22087e-06
1.54683e-05
2.91647e-05
1.75924e-05
-3.77536e-06
-1.87803e-05
1.83172e-06
-1.76135e-06
2.01542e-05
1.09171e-05
-1.38332e-05
1.86867e-05
2.19757e-05
1.26266e-05
7.12965e-07
2.33362e-05
-1.99496e-06
1.32952e-05
2.58688e-05
1.31797e-05
8.85854e-06
5.0137e-06
8.66989e-06
2.23509e-06
-1.00476e-06
3.84875e-06
2.26462e-05
1.2131e-05
1.77848e-05
5.08592e-06
-4.39863e-07
2.60442e-06
-1.68522e-06
-2.52337e-06
-3.76979e-06
-3.8411e-07
-3.63296e-06
1.92567e-06
-5.95917e-06
-1.83406e-06
-9.91268e-07
-3.62043e-06
-5.08461e-06
7.83698e-06
9.94753e-06
9.81062e-06
6.81685e-07
1.0664e-05
3.5824e-06
5.85813e-06
7.97637e-06
1.22794e-05
1.41053e-05
1.17357e-05
1.52919e-05
8.44725e-06
-1.23223e-06
9.80664e-07
-9.51947e-06
-4.29846e-07
6.16049e-06
5.15448e-06
1.37354e-07
7.46451e-06
2.90712e-06
8.21571e-06
9.59349e-06
9.46841e-06
-3.26717e-06
-4.15e-06
8.60116e-07
-1.37596e-06
6.3618e-06
5.852e-06
-7.47377e-06
5.52475e-06
1.19436e-05
7.29719e-06
4.35082e-07
7.58834e-06
-2.42495e-06
7.48211e-06
8.306e-06
7.52942e-06
4.38554e-06
2.49074e-06
4.48807e-06
7.63049e-07
-2.37995e-07
7.53403e-07
5.85494e-06
6.77991e-06
1.03493e-05
-1.53543e-07
-3.19828e-06
1.8233e-06
-3.35456e-06
2.88813e-06
-1.1015e-08
-1.34788e-07
-3.61239e-06
2.06866e-07
1.73429e-06
-1.29236e-06
4.52042e-06
-5.06388e-06
1.64735e-06
6.24289e-07
-4.45559e-06
-2.29368e-06
7.62834e-07
-2.31786e-08
-4.87165e-06
4.12221e-07
-8.74285e-08
-5.19855e-07
-1.24431e-06
-9.62848e-07
-9.85168e-07
-2.94629e-06
-1.43813e-06
9.35347e-08
-3.12149e-06
1.1739e-06
-2.25541e-06
-1.48483e-06
-4.81582e-06
-3.70963e-06
-6.21662e-07
7.29469e-07
-1.14124e-06
-1.06183e-06
3.74776e-07
1.40161e-06
6.40328e-07
-4.92695e-07
-2.25844e-06
5.28623e-07
-7.42734e-07
-1.87939e-06
-8.91477e-07
-8.67469e-07
-1.78954e-06
3.59558e-06
5.14581e-06
1.58994e-06
2.43566e-06
3.74171e-06
5.73594e-06
7.85154e-06
6.36306e-06
4.13184e-06
1.47107e-06
-3.33747e-06
3.19927e-06
3.81065e-06
-1.13081e-07
1.25621e-06
4.07916e-06
5.49385e-06
-2.4723e-07
1.3474e-06
3.23931e-07
4.31025e-06
-3.47479e-06
5.6601e-06
3.65657e-06
-1.98104e-07
-5.18096e-07
3.57235e-06
3.91923e-06
3.22833e-06
1.69361e-06
1.46849e-06
1.89428e-06
3.48462e-06
4.48026e-06
-1.93185e-09
-1.78274e-09
-9.86507e-06
-2.26454e-09
8.20071e-08
1.97361e-09
-1.95421e-06
-5.11965e-10
-4.33327e-06
-2.42439e-09
1.99453e-06
-1.01601e-08
1.79306e-06
1.10512e-08
-4.96798e-07
6.93578e-09
-2.10142e-06
1.43642e-09
-4.86517e-07
1.12349e-09
1.11823e-06
-2.76434e-10
-4.46746e-06
5.72155e-10
5.37412e-07
7.54704e-10
-1.37939e-05
2.05028e-09
-1.59599e-05
7.39675e-10
5.16783e-07
5.11545e-09
-1.27138e-06
4.26049e-09
7.61661e-07
3.54428e-09
1.33509e-06
1.66618e-09
-1.35436e-06
-1.68159e-09
-1.70482e-06
9.45416e-11
6.8506e-07
-5.03885e-09
-2.58356e-06
-6.86323e-10
-5.25592e-06
-1.22157e-09
1.31376e-06
-3.5658e-09
-6.6244e-06
-3.77213e-09
2.65697e-06
-5.00378e-09
-6.78951e-06
-4.04497e-06
1.06167e-05
-2.52565e-05
-1.40571e-05
7.64522e-06
1.144e-05
2.44596e-05
-1.7691e-05
-2.21931e-06
4.46525e-05
-2.26178e-05
3.48576e-05
-3.39699e-05
-1.5962e-05
2.72925e-05
-6.16681e-05
1.74365e-05
-2.34012e-05
-2.21905e-05
2.70947e-05
-9.16052e-06
-5.22899e-05
1.3003e-05
-7.21185e-05
2.21091e-05
-1.03102e-05
1.09008e-05
-1.72064e-05
-1.10781e-05
2.32407e-05
-9.13341e-06
-2.68861e-05
-1.00613e-05
-1.12915e-05
-4.38326e-06
-3.30661e-05
1.30958e-06
-5.83186e-06
-6.27703e-06
-1.30352e-05
-1.47028e-05
-3.43522e-05
3.62346e-05
-4.78614e-05
1.40866e-05
-1.60568e-06
-9.32667e-06
2.35591e-05
-1.82758e-06
-2.86254e-05
-1.1876e-05
-6.38798e-06
-1.31295e-05
2.20219e-06
-1.28214e-05
-3.51617e-05
-4.33729e-05
-1.00903e-05
1.52082e-05
-7.04184e-06
-6.29659e-06
5.55434e-06
-1.53835e-05
-8.30021e-06
-1.17556e-06
2.02261e-05
1.26087e-05
1.54943e-05
2.03269e-05
-6.46637e-06
-1.33251e-05
-2.80112e-05
-7.68037e-06
-1.17369e-05
1.40369e-05
1.27502e-05
7.0346e-06
-2.24196e-05
-6.58497e-06
-3.19207e-05
-8.4488e-06
-5.51483e-06
-6.66247e-06
-7.64408e-06
6.79848e-06
9.78606e-06
2.43203e-06
-1.22038e-05
1.56365e-06
-5.20744e-06
1.11853e-06
-1.50352e-05
2.53135e-07
-3.14275e-06
5.05217e-06
-6.92088e-06
7.07098e-06
-1.44126e-05
-1.87966e-05
-2.20002e-05
-6.75906e-06
-1.02557e-06
3.11707e-06
1.16835e-05
1.01467e-06
-1.33475e-05
5.52221e-06
-2.22525e-06
1.04276e-05
1.14659e-06
9.38984e-06
-1.6335e-05
-1.87618e-05
-5.03786e-06
7.38724e-06
-2.60325e-06
-3.0248e-06
1.83622e-06
-8.20939e-06
-3.51661e-06
-3.23718e-07
6.38172e-06
8.17942e-06
3.37642e-06
1.16042e-05
6.25805e-08
-7.85431e-06
-8.53224e-06
-5.31164e-06
-4.44779e-06
7.71988e-06
3.30499e-06
4.80948e-06
-7.23371e-06
-3.4702e-06
-8.3617e-06
-4.84737e-06
-3.16772e-06
-4.17215e-06
-2.16138e-06
4.13069e-06
1.55026e-06
1.42464e-06
-4.33263e-06
3.44989e-07
-1.23028e-06
-1.39606e-07
-5.0922e-06
-3.12541e-07
-2.12651e-06
2.32727e-06
-3.70836e-06
4.06327e-06
-4.20621e-06
-1.05559e-05
-7.39356e-06
-3.99491e-06
-3.19529e-07
2.50843e-06
2.75069e-06
5.40966e-07
-3.84458e-06
2.39928e-06
4.24573e-07
5.83849e-06
-1.53876e-06
4.3399e-06
-4.4978e-06
-7.02365e-06
-3.46979e-06
4.35924e-06
-2.13358e-06
-5.12342e-06
-6.13321e-07
1.90719e-06
5.56437e-06
-2.96721e-06
-2.256e-06
3.48965e-06
1.98019e-06
-4.52809e-08
-1.75392e-06
-7.13272e-07
8.34847e-07
2.77412e-07
3.03182e-07
7.10737e-07
-7.81243e-08
5.13987e-07
1.97276e-06
-5.41254e-06
-2.08969e-06
1.36455e-07
2.07657e-07
2.33113e-06
2.69187e-06
2.66218e-06
-2.46142e-09
4.92551e-09
9.64517e-07
1.80937e-09
4.15993e-07
9.40982e-10
-9.19281e-06
1.96688e-06
5.62058e-06
2.128e-05
-1.20512e-05
1.07966e-05
)
;

boundaryField
{
    top_fluid_surface
    {
        type            calculated;
        value           nonuniform List<scalar> 
64
(
0
0
0
0
0
0
0
0
0
0
6.24018e-09
0
0
0
1.36841e-09
0
4.82208e-09
9.52589e-09
1.07361e-08
1.19121e-08
0
1.4442e-09
1.13976e-08
1.11086e-08
0
9.4483e-09
9.82277e-09
9.14784e-09
8.6812e-09
1.07757e-09
0
7.8007e-09
3.44554e-10
0
0
0
0
0
0
0
2.18775e-09
0
0
0
0
0
0
0
0
0
0
0
0
0
0
0
1.82303e-09
9.55305e-11
7.59131e-10
0
0
0
0
0
)
;
    }
    bottom_fluid_surface
    {
        type            calculated;
        value           uniform 0;
    }
    lateral_surface_1
    {
        type            calculated;
        value           uniform 0;
    }
    lateral_surface_2
    {
        type            calculated;
        value           uniform 0;
    }
    lateral_surface_3
    {
        type            calculated;
        value           uniform 0;
    }
    lateral_surface_4
    {
        type            calculated;
        value           uniform 0;
    }
}


// ************************************************************************* //
