/*--------------------------------*- C++ -*----------------------------------*\
| =========                 |                                                 |
| \\      /  F ield         | OpenFOAM: The Open Source CFD Toolbox           |
|  \\    /   O peration     | Version:  v1612+                                |
|   \\  /    A nd           | Web:      www.OpenFOAM.com                      |
|    \\/     M anipulation  |                                                 |
\*---------------------------------------------------------------------------*/
FoamFile
{
    version     2.0;
    format      ascii;
    class       volScalarField;
    location    "2.95";
    object      alpha.water;
}
// * * * * * * * * * * * * * * * * * * * * * * * * * * * * * * * * * * * * * //

dimensions      [0 0 0 0 0 0 0];

internalField   nonuniform List<scalar> 
1116
(
0.889846
0.889841
0.889842
0.889841
0.889838
0.889842
0.891482
0.891478
0.891479
0.891478
0.891475
0.891479
0.901974
0.901968
0.90197
0.901969
0.901966
0.90197
0.922516
0.92251
0.922512
0.922511
0.922509
0.922513
0.942791
0.942785
0.942786
0.942786
0.942784
0.942788
0.95603
0.956026
0.956025
0.956024
0.956023
0.956026
0.962167
0.962163
0.962161
0.96216
0.962159
0.962162
0.971672
0.971669
0.971668
0.971667
0.971667
0.971668
0.973115
0.973115
0.973115
0.973115
0.973115
0.973115
0.973117
0.973117
0.973117
0.973117
0.973117
0.973117
0.973117
0.973117
0.973117
0.973117
0.973117
0.973117
0.968523
0.968523
0.968523
0.968524
0.968526
0.96852
0.338163
0.338165
0.338163
0.33816
0.33816
0.33816
0.181445
0.181443
0.181443
0.18144
0.181438
0.181443
0.155862
0.15586
0.15586
0.155858
0.155856
0.15586
0.185831
0.185828
0.185828
0.185827
0.185824
0.185828
0.248677
0.248673
0.248674
0.248673
0.24867
0.248675
0.326696
0.326692
0.326695
0.326694
0.326692
0.326695
0.388679
0.388676
0.388678
0.388677
0.388676
0.388677
0.390779
0.390777
0.390778
0.390778
0.390778
0.390778
0.40686
0.406851
0.406853
0.406854
0.406853
0.406856
0.580768
0.58074
0.580749
0.580749
0.580744
0.580761
0.924738
0.924723
0.924727
0.924727
0.924723
0.924735
0.968463
0.968463
0.968463
0.968464
0.968465
0.96846
3.49341e-08
3.49337e-08
3.49344e-08
3.4936e-08
3.49382e-08
3.494e-08
1.38692e-08
1.38684e-08
1.38686e-08
1.3867e-08
1.38652e-08
1.38681e-08
9.99799e-09
9.9976e-09
9.99773e-09
9.99656e-09
9.99532e-09
9.99667e-09
4.71981e-09
4.71987e-09
4.71988e-09
4.71969e-09
4.71941e-09
4.71888e-09
5.55082e-10
5.5508e-10
5.55079e-10
5.55055e-10
5.55021e-10
5.54964e-10
6.79516e-11
6.7951e-11
6.79502e-11
6.79469e-11
6.79427e-11
6.79352e-11
2.42104e-12
2.4213e-12
2.42074e-12
2.42033e-12
2.4203e-12
2.4188e-12
7.41908e-14
7.41197e-14
7.41714e-14
7.417e-14
7.41553e-14
7.41917e-14
7.44048e-06
7.43031e-06
7.43462e-06
7.43413e-06
7.43451e-06
7.43799e-06
0.000680831
0.000680359
0.000680592
0.000680588
0.000680479
0.000680777
0.492543
0.492481
0.492495
0.4925
0.492492
0.492518
0.923575
0.923567
0.923574
0.923568
0.923559
0.923592
5.47066e-07
5.47085e-07
5.47189e-07
5.47305e-07
5.47327e-07
5.47272e-07
4.46604e-06
4.46579e-06
4.46588e-06
4.46589e-06
4.46573e-06
4.46618e-06
1.39974e-08
1.39962e-08
1.39953e-08
1.39939e-08
1.39941e-08
1.39966e-08
1.71673e-07
1.71642e-07
1.71647e-07
1.71601e-07
1.71555e-07
1.71667e-07
1.80996e-07
1.80988e-07
1.80987e-07
1.80984e-07
1.80976e-07
1.8096e-07
2.42106e-12
2.42131e-12
2.42075e-12
2.42034e-12
2.42031e-12
2.41881e-12
1.19521e-13
1.19292e-13
1.19398e-13
1.19411e-13
1.19367e-13
1.19481e-13
-4.64208e-16
-4.63806e-16
-4.64165e-16
-4.63953e-16
-4.63888e-16
-4.65307e-16
-2.63388e-06
-2.63374e-06
-2.63377e-06
-2.6339e-06
-2.63418e-06
-2.6337e-06
6.2371e-05
6.23784e-05
6.23778e-05
6.23766e-05
6.23776e-05
6.23774e-05
0.0143273
0.0143068
0.01431
0.0143133
0.0143094
0.0143192
0.903706
0.903683
0.903683
0.903696
0.903713
0.903667
2.02468e-60
2.02854e-60
2.02826e-60
2.02829e-60
2.02897e-60
2.0248e-60
5.05524e-56
5.06116e-56
5.0595e-56
5.05953e-56
5.0619e-56
5.05338e-56
6.68833e-52
6.68513e-52
6.67974e-52
6.67932e-52
6.6839e-52
6.67638e-52
5.88275e-48
5.87076e-48
5.86444e-48
5.86555e-48
5.87399e-48
5.87491e-48
1.47766e-42
1.47434e-42
1.47229e-42
1.48293e-42
1.52063e-42
1.45905e-42
9.88177e-38
9.96382e-38
1.0007e-37
1.01219e-37
1.0416e-37
1.00102e-37
5.66285e-34
5.81997e-34
5.89399e-34
5.98704e-34
6.16731e-34
5.91653e-34
5.90959e-31
6.22098e-31
6.33899e-31
6.4322e-31
6.57768e-31
6.22428e-31
7.34518e-29
7.9144e-29
8.02065e-29
7.97778e-29
7.91137e-29
7.15533e-29
3.86366e-31
4.11657e-31
4.16414e-31
4.15374e-31
4.14071e-31
3.77819e-31
3.97503e-30
3.98294e-30
3.98373e-30
3.98585e-30
3.99084e-30
3.99113e-30
1.91643e-27
1.92113e-27
1.92135e-27
1.92149e-27
1.92216e-27
1.91968e-27
1.68472e-57
1.68795e-57
1.68771e-57
1.68771e-57
1.68826e-57
1.68477e-57
4.16737e-53
4.17397e-53
4.17297e-53
4.17291e-53
4.17449e-53
4.1668e-53
5.31082e-49
5.31522e-49
5.31271e-49
5.31232e-49
5.31484e-49
5.30674e-49
4.50758e-45
4.50816e-45
4.50511e-45
4.50577e-45
4.51217e-45
4.50234e-45
4.52165e-39
4.52471e-39
4.5188e-39
4.54764e-39
4.6557e-39
4.45029e-39
2.29296e-34
2.30837e-34
2.31297e-34
2.33332e-34
2.39292e-34
2.28962e-34
1.12399e-30
1.14292e-30
1.15004e-30
1.16254e-30
1.19225e-30
1.13884e-30
1.09528e-27
1.12586e-27
1.13517e-27
1.14563e-27
1.16848e-27
1.106e-27
1.51263e-25
1.56951e-25
1.57502e-25
1.56655e-25
1.56669e-25
1.44043e-25
1.24371e-27
1.2818e-27
1.28516e-27
1.2823e-27
1.28812e-27
1.19313e-27
5.85986e-27
5.86924e-27
5.8693e-27
5.8711e-27
5.87688e-27
5.8755e-27
1.80526e-24
1.80892e-24
1.80883e-24
1.80867e-24
1.80895e-24
1.80631e-24
5.37376e-55
5.38421e-55
5.38358e-55
5.38369e-55
5.3855e-55
5.37443e-55
1.30469e-50
1.30705e-50
1.30685e-50
1.30687e-50
1.30734e-50
1.30484e-50
1.57875e-46
1.5811e-46
1.58071e-46
1.5807e-46
1.58133e-46
1.57856e-46
1.81872e-42
1.81973e-42
1.81713e-42
1.81942e-42
1.83267e-42
1.80138e-42
5.94613e-36
5.95634e-36
5.94879e-36
5.98485e-36
6.12117e-36
5.84065e-36
1.89945e-31
1.90892e-31
1.91012e-31
1.92444e-31
1.97011e-31
1.88086e-31
6.82337e-28
6.89078e-28
6.90893e-28
6.96774e-28
7.13117e-28
6.8005e-28
5.65531e-25
5.73398e-25
5.75022e-25
5.79148e-25
5.906e-25
5.60422e-25
9.57487e-23
9.67308e-23
9.67746e-23
9.65367e-23
9.77549e-23
9.17506e-23
2.11284e-21
2.06006e-21
1.91474e-21
1.77178e-21
1.30982e-21
1.30474e-21
2.30209e-23
2.27393e-23
2.18216e-23
2.08576e-23
1.83847e-23
1.76603e-23
8.20556e-22
8.21924e-22
8.21769e-22
8.21582e-22
8.21552e-22
8.20241e-22
7.90808e-53
7.92348e-53
7.92266e-53
7.92291e-53
7.92562e-53
7.90937e-53
1.86394e-48
1.8675e-48
1.8673e-48
1.86736e-48
1.86801e-48
1.86435e-48
2.10536e-44
2.10912e-44
2.10883e-44
2.10886e-44
2.10957e-44
2.10559e-44
1.8238e-39
1.82392e-39
1.81813e-39
1.82418e-39
1.85785e-39
1.77642e-39
4.86343e-33
4.8723e-33
4.86506e-33
4.89284e-33
5.00019e-33
4.76614e-33
1.00808e-28
1.01112e-28
1.01038e-28
1.01679e-28
1.03945e-28
9.91011e-29
2.80683e-25
2.81918e-25
2.81853e-25
2.83733e-25
2.89966e-25
2.76367e-25
1.97395e-22
1.98377e-22
1.98259e-22
1.99476e-22
2.03505e-22
1.93759e-22
3.41275e-20
3.4041e-20
3.41652e-20
3.40682e-20
3.48692e-20
3.31548e-20
4.74705e-18
4.72045e-18
4.62045e-18
4.65583e-18
3.36371e-18
4.50714e-18
1.38911e-19
1.11009e-19
7.58096e-20
1.0988e-19
4.96525e-20
1.05596e-19
3.30339e-21
3.09722e-21
2.41549e-21
3.07112e-21
2.08625e-21
3.0003e-21
5.49341e-07
5.49304e-07
5.49454e-07
5.49625e-07
5.49653e-07
5.49618e-07
5.18633e-08
5.18441e-08
5.18608e-08
5.18807e-08
5.18886e-08
5.19024e-08
-2.754e-15
-3.01643e-15
-3.09625e-15
-3.0274e-15
-3.00953e-15
-3.08157e-15
5.7125e-06
5.71252e-06
5.71254e-06
5.71257e-06
5.7126e-06
5.7126e-06
2.08161e-06
2.08074e-06
2.08121e-06
2.0811e-06
2.0801e-06
2.08184e-06
-1.51894e-14
-1.66358e-14
-1.70771e-14
-1.66972e-14
-1.65985e-14
-1.69974e-14
3.54002e-07
3.53987e-07
3.53965e-07
3.54044e-07
3.54138e-07
3.54076e-07
6.05245e-08
6.05106e-08
6.05112e-08
6.05221e-08
6.05297e-08
6.05436e-08
-1.01712e-13
-1.11402e-13
-1.14353e-13
-1.11809e-13
-1.1115e-13
-1.13813e-13
2.2071e-07
2.20575e-07
2.20604e-07
2.20478e-07
2.20428e-07
2.20838e-07
4.40375e-19
4.40513e-19
4.4047e-19
4.40814e-19
4.40994e-19
4.40317e-19
-7.54116e-14
-8.25903e-14
-8.47755e-14
-8.28851e-14
-8.23964e-14
-8.43676e-14
2.5232e-07
2.5232e-07
2.52319e-07
2.52316e-07
2.52313e-07
2.5231e-07
8.07464e-08
8.06956e-08
8.06964e-08
8.06761e-08
8.06451e-08
8.0679e-08
-2.33724e-15
-2.56184e-15
-2.6323e-15
-2.57288e-15
-2.55644e-15
-2.58976e-15
2.97469e-08
2.97452e-08
2.97418e-08
2.97389e-08
2.97357e-08
2.9728e-08
4.84899e-18
4.84264e-18
4.84564e-18
4.84651e-18
4.84426e-18
4.85556e-18
-1.20061e-18
-1.29354e-18
-1.32439e-18
-1.29969e-18
-1.29155e-18
-1.31084e-18
-9.91318e-13
-9.93083e-13
-9.9199e-13
-9.91619e-13
-9.91671e-13
-9.87543e-13
-1.09095e-14
-1.08592e-14
-1.08915e-14
-1.09156e-14
-1.08832e-14
-1.10392e-14
-9.4559e-18
-9.34751e-18
-9.41756e-18
-9.47541e-18
-9.43582e-18
-9.71248e-18
-6.5502e-14
-6.55333e-14
-6.55079e-14
-6.54981e-14
-6.55121e-14
-6.54031e-14
-2.86203e-13
-2.84819e-13
-2.85629e-13
-2.86212e-13
-2.85259e-13
-2.89569e-13
-3.35277e-15
-3.33361e-15
-3.34702e-15
-3.35663e-15
-3.34783e-15
-3.39978e-15
-1.06671e-07
-1.06664e-07
-1.06678e-07
-1.06677e-07
-1.06656e-07
-1.06698e-07
-1.76017e-12
-1.75137e-12
-1.75626e-12
-1.7596e-12
-1.75338e-12
-1.78059e-12
-1.10297e-12
-1.09751e-12
-1.10056e-12
-1.10265e-12
-1.09899e-12
-1.11534e-12
4.66245e-06
4.66204e-06
4.66225e-06
4.66261e-06
4.66326e-06
4.66209e-06
-1.62528e-07
-1.62556e-07
-1.62521e-07
-1.62578e-07
-1.62853e-07
-1.62273e-07
-1.02561e-12
-1.31257e-12
-2.95417e-12
-1.76513e-12
-5.29057e-13
-9.80411e-12
6.67195e-05
6.67248e-05
6.67256e-05
6.67251e-05
6.67209e-05
6.67289e-05
5.89922e-06
5.8999e-06
5.89985e-06
5.89997e-06
5.9e-06
5.89985e-06
2.84796e-07
2.8483e-07
2.84843e-07
2.84879e-07
2.84902e-07
2.84792e-07
0.545658
0.545637
0.545643
0.545617
0.545553
0.545689
0.0303911
0.0303654
0.0303712
0.0304224
0.0304846
0.0302965
1.35496e-05
1.35479e-05
1.35478e-05
1.35499e-05
1.35541e-05
1.35441e-05
-8.20386e-12
-4.305e-12
-1.3926e-11
-3.20214e-12
-1.18381e-14
-1.0005e-10
4.75079e-14
4.85619e-14
4.99602e-14
5.02329e-14
4.89102e-14
4.25574e-14
1.6566e-35
1.68218e-35
1.63892e-35
1.70061e-35
1.2693e-36
1.3222e-35
1.50228e-06
1.49904e-06
1.50082e-06
1.50477e-06
1.51188e-06
1.49097e-06
2.85027e-08
2.85285e-08
2.85015e-08
2.86735e-08
2.91577e-08
2.79447e-08
0.00118261
0.00117104
0.00117053
0.00120282
0.00127336
0.00110644
0.00397672
0.00397069
0.0039696
0.00399558
0.00403528
0.00392085
0.0443388
0.0442389
0.0442394
0.044491
0.0449806
0.0437857
0.0889614
0.0889563
0.0889014
0.0891436
0.0897259
0.088338
0.0326377
0.0326215
0.0326194
0.0327053
0.0327703
0.0325896
0.360306
0.360076
0.360055
0.360675
0.361895
0.359
0.136574
0.136805
0.13671
0.13649
0.136144
0.137054
0.464416
0.46432
0.464258
0.464742
0.465747
0.463398
0.424607
0.424762
0.424771
0.424237
0.423081
0.42598
0.00621226
0.00619102
0.00621466
0.00616982
0.00603758
0.00639994
0.541688
0.541677
0.541675
0.541661
0.541647
0.541716
0.0981169
0.0981509
0.098176
0.0979778
0.0974734
0.098714
0.00160552
0.00160507
0.00160543
0.00160617
0.0016075
0.00160221
4.61562e-51
4.62455e-51
4.62411e-51
4.62427e-51
4.62585e-51
4.61641e-51
7.94512e-53
7.96139e-53
7.96128e-53
7.96159e-53
7.96382e-53
7.94694e-53
3.17629e-56
3.18315e-56
3.18306e-56
3.18319e-56
3.18415e-56
3.17713e-56
1.04232e-46
1.04433e-46
1.04424e-46
1.04428e-46
1.04464e-46
1.04258e-46
3.62641e-48
3.63366e-48
3.63365e-48
3.63378e-48
3.63471e-48
3.62743e-48
1.66749e-51
1.67098e-51
1.67094e-51
1.671e-51
1.67145e-51
1.66793e-51
1.0737e-42
1.07571e-42
1.0756e-42
1.07562e-42
1.07595e-42
1.07387e-42
7.79031e-44
7.80512e-44
7.80504e-44
7.80515e-44
7.80684e-44
7.79188e-44
4.48098e-47
4.48997e-47
4.48986e-47
4.48994e-47
4.49101e-47
4.48189e-47
2.86841e-36
2.86888e-36
2.85927e-36
2.86956e-36
2.92643e-36
2.78744e-36
3.44605e-33
3.44662e-33
3.43513e-33
3.44755e-33
3.51587e-33
3.34858e-33
2.63223e-30
2.63244e-30
2.62354e-30
2.63287e-30
2.68483e-30
2.55715e-30
2.41455e-30
2.41871e-30
2.41463e-30
2.42793e-30
2.48e-30
2.36319e-30
9.28978e-28
9.30494e-28
9.28835e-28
9.33906e-28
9.53718e-28
9.08869e-28
2.42772e-25
2.43153e-25
2.42706e-25
2.44034e-25
2.49175e-25
2.375e-25
2.67605e-26
2.68158e-26
2.67776e-26
2.69328e-26
2.75128e-26
2.62205e-26
5.21729e-24
5.22641e-24
5.21756e-24
5.247e-24
5.35816e-24
5.107e-24
5.88236e-22
5.89206e-22
5.88147e-22
5.91471e-22
6.03873e-22
5.75728e-22
4.71736e-23
4.72823e-23
4.72152e-23
4.74937e-23
4.85034e-23
4.623e-23
5.25718e-21
5.26637e-21
5.25692e-21
5.287e-21
5.3976e-21
5.14593e-21
2.59297e-19
2.59725e-19
2.59233e-19
2.60727e-19
2.6612e-19
2.53814e-19
2.22929e-20
2.23429e-20
2.23042e-20
2.24333e-20
2.288e-20
2.18237e-20
1.34522e-18
1.34749e-18
1.3448e-18
1.35258e-18
1.37757e-18
1.31649e-18
2.35446e-17
2.35826e-17
2.35341e-17
2.36723e-17
2.41503e-17
2.30499e-17
2.81448e-18
2.77518e-18
2.81317e-18
2.77764e-18
2.87733e-18
2.7478e-18
6.95151e-17
6.56732e-17
6.94702e-17
6.54942e-17
7.10362e-17
6.79121e-17
1.68898e-17
1.68687e-17
1.689e-17
1.68621e-17
1.66741e-17
1.68898e-17
7.44972e-16
7.39702e-16
7.20368e-16
7.39799e-16
3.87891e-16
7.24896e-16
1.39097e-14
1.3957e-14
1.39381e-14
1.39988e-14
1.8805e-17
1.34169e-14
1.55109e-17
1.36052e-17
1.55109e-17
1.35211e-17
1.51527e-17
1.54049e-17
1.27646e-13
1.27286e-13
1.27545e-13
1.26557e-13
2.13637e-13
1.33266e-13
3.60825e-17
6.2748e-18
6.10936e-18
1.63505e-18
4.01949e-19
3.0424e-17
4.82648e-18
4.9092e-18
4.79265e-18
5.04433e-18
4.01948e-19
3.64112e-18
5.89018e-19
-9.03071e-17
1.34879e-19
-8.989e-17
3.00002e-20
-9.33731e-17
1.76266e-17
4.88025e-17
4.82209e-17
4.96798e-17
1.87229e-17
1.67546e-17
3.48472e-24
3.38229e-24
3.12212e-24
3.24037e-24
2.63571e-25
3.33881e-24
)
;

boundaryField
{
    seabed_topleft_surface
    {
        type            zeroGradient;
    }
    seabed_topright_surface
    {
        type            zeroGradient;
    }
    breakwater_top_surface
    {
        type            zeroGradient;
    }
    breakwater_left_surface
    {
        type            zeroGradient;
    }
    breakwater_right_surface
    {
        type            zeroGradient;
    }
    water_front_surface
    {
        type            zeroGradient;
    }
    water_back_surface
    {
        type            zeroGradient;
    }
    water_left_surface
    {
        type            zeroGradient;
    }
    water_right_surface
    {
        type            zeroGradient;
    }
    water_top_surface
    {
        type            inletOutlet;
        inletValue      uniform 0;
        value           nonuniform List<scalar> 
180
(
0
0
0
0
0
0
0
0
0
0
0
0
0
0
0
0
0
0
0
0
0
0
0
0
0
0
0
0
0
0
0
0
0
0
0
0
0
0
0
0
0
0
0
0
0
0
0
0
0
0
0
0
0
0
-1.02561e-12
-1.31257e-12
-2.95417e-12
-1.76513e-12
-5.29057e-13
-9.80411e-12
2.84796e-07
2.8483e-07
2.84843e-07
2.84879e-07
2.84902e-07
2.84792e-07
1.35496e-05
1.35479e-05
1.35478e-05
1.35499e-05
1.35541e-05
1.35441e-05
0
0
0
0
0
0
0.00118261
0.00117104
0.00117053
0.00120282
0.00127336
0.00110644
0.0889614
0.0889563
0.0889014
0.0891436
0.0897259
0.088338
0.136574
0.136805
0.13671
0.13649
0.136144
0.137054
0.00621226
0.00619102
0.00621466
0.00616982
0.00603758
0.00639994
0.00160552
0.00160507
0.00160543
0.00160617
0.0016075
0.00160221
0
0
0
0
0
0
0
0
0
0
0
0
0
0
0
0
0
0
0
0
0
0
0
0
0
0
0
0
0
0
0
0
0
0
0
0
0
0
0
0
0
0
0
0
0
0
0
0
0
0
0
0
0
0
0
0
0
0
0
0
0
0
0
0
0
0
0
0
0
0
0
0
)
;
    }
}


// ************************************************************************* //
