/*--------------------------------*- C++ -*----------------------------------*\
| =========                 |                                                 |
| \\      /  F ield         | OpenFOAM: The Open Source CFD Toolbox           |
|  \\    /   O peration     | Version:  v1612+                                |
|   \\  /    A nd           | Web:      www.OpenFOAM.com                      |
|    \\/     M anipulation  |                                                 |
\*---------------------------------------------------------------------------*/
FoamFile
{
    version     2.0;
    format      ascii;
    class       volScalarField;
    location    "4.65";
    object      p;
}
// * * * * * * * * * * * * * * * * * * * * * * * * * * * * * * * * * * * * * //

dimensions      [1 -1 -2 0 0 0 0];

internalField   nonuniform List<scalar> 
320
(
14724.8
14724.8
14724.8
14724.8
4.96205
4.96281
4.96264
4.96267
4.96217
4.96237
4.96053
4.96164
4.96172
4.95958
4.96199
4.96102
4914.82
4914.88
4914.89
4914.83
4914.85
4914.86
4914.84
4914.83
4914.86
4914.8
4914.83
4914.85
14724.8
14724.8
14724.8
14724.8
14724.8
14724.8
14724.8
14724.8
14724.8
14724.8
14724.8
14724.8
24534.8
24534.8
24534.8
24534.8
24534.8
24534.8
24534.8
24534.8
24534.8
24534.8
24534.8
24534.8
24534.8
24534.8
24534.8
24534.8
4.96131
4.96193
4.96165
4.9616
4.96172
4.96214
4.96232
4.9634
4.96715
4.96064
4.95997
4.96035
4.96157
4.96067
4.96062
4.96189
4.96213
4.96091
4.96032
4.96052
4914.87
4914.88
4914.87
4914.86
4914.84
4914.84
4914.85
4914.85
4914.89
4914.87
4914.85
4914.83
4914.84
4914.82
4914.84
4914.82
4914.82
4914.87
4914.87
4914.85
14724.8
14724.8
14724.8
14724.8
14724.8
14724.8
14724.8
14724.8
14724.8
14724.8
14724.8
14724.8
14724.8
14724.8
14724.8
14724.8
14724.8
14724.8
14724.8
14724.8
24534.8
24534.8
24534.8
24534.8
24534.8
24534.8
24534.8
24534.8
24534.8
24534.8
24534.8
24534.8
24534.8
24534.8
24534.8
24534.8
24534.8
24534.8
24534.8
24534.8
34344.8
34344.8
34344.8
34344.8
34344.8
34344.8
34344.8
34344.8
34344.8
34344.8
34344.8
34344.8
34344.8
34344.8
34344.8
34344.8
34344.8
34344.8
34344.8
34344.8
34344.8
34344.8
34344.8
34344.8
34344.8
34344.8
34344.8
34344.8
34344.8
34344.8
34344.8
34344.8
34344.8
34344.8
34344.8
34344.8
4.96073
4.96062
4.96137
4.96156
4.96107
4.96089
4.96176
4.96284
4.963
4.96252
4.96178
4.96166
4.96728
4.95654
4.95959
4.96104
4.96077
4.96084
4.95987
4.95997
4.95948
4.96066
4.96167
4.96147
4.96025
4.95979
4.96068
4.96115
4914.86
4914.91
4914.89
4914.83
4914.81
4914.82
4914.88
4914.86
4914.84
4914.9
4914.9
4914.82
4914.89
4914.82
4914.87
4914.87
4914.84
4914.81
4914.85
4914.85
4914.84
4914.83
4914.84
4914.86
4914.83
4914.89
4914.86
4914.8
14724.8
14724.8
14724.8
14724.8
14724.8
14724.8
14724.8
14724.8
14724.8
14724.8
14724.8
14724.8
14724.8
14724.8
14724.8
14724.8
14724.8
14724.8
14724.8
14724.8
14724.8
14724.8
14724.8
14724.8
14724.8
14724.8
14724.8
14724.8
24534.8
24534.8
24534.8
24534.8
24534.8
24534.8
24534.8
24534.8
24534.8
24534.8
24534.8
24534.8
24534.8
24534.8
24534.8
24534.8
24534.8
24534.8
24534.8
24534.8
24534.8
24534.8
24534.8
24534.8
24534.8
24534.8
24534.8
24534.8
34344.8
34344.8
34344.8
34344.8
34344.8
34344.8
34344.8
34344.8
34344.8
34344.8
34344.8
34344.8
34344.8
34344.8
34344.8
34344.8
34344.8
34344.8
34344.8
34344.8
34344.8
34344.8
34344.8
34344.8
34344.8
34344.8
34344.8
34344.8
4.96243
4.96215
4.96345
4.96205
4914.85
4914.82
4914.84
4914.82
)
;

boundaryField
{
    top_fluid_surface
    {
        type            calculated;
        value           nonuniform List<scalar> 
64
(
0
-1.12318e-09
-6.02309e-09
0
-1.28708e-09
-3.83537e-09
-1.79487e-10
0
-9.52823e-10
-2.27106e-10
0
-2.90934e-09
-2.94392e-09
-9.33345e-09
-7.81292e-10
-6.68464e-10
0
0
0
0
-4.06132e-09
-3.12489e-09
0
0
-6.28017e-10
0
0
0
0
-4.22558e-10
-8.82955e-09
0
-1.7644e-10
-3.61129e-09
-2.39534e-08
0
0
0
-4.46054e-08
-9.58013e-10
0
-8.69993e-08
-5.04165e-08
0
-1.65293e-09
0
-1.0286e-08
-2.30689e-09
-3.28897e-10
0
-7.28893e-10
-7.42545e-10
-6.6508e-09
0
0
-5.51546e-09
0
-9.64633e-09
-4.3158e-09
0
-1.43109e-08
0
0
0
)
;
    }
    bottom_fluid_surface
    {
        type            calculated;
        value           nonuniform List<scalar> 
64
(
39249.8
39249.8
39249.8
39249.8
39249.8
39249.8
39249.8
39249.8
39249.8
39249.8
39249.8
39249.8
39249.8
39249.8
39249.8
39249.8
39249.8
39249.8
39249.8
39249.8
39249.8
39249.8
39249.8
39249.8
39249.8
39249.8
39249.8
39249.8
39249.8
39249.8
39249.8
39249.8
39249.8
39249.8
39249.8
39249.8
39249.8
39249.8
39249.8
39249.8
39249.8
39249.8
39249.8
39249.8
39249.8
39249.8
39249.8
39249.8
39249.8
39249.8
39249.8
39249.8
39249.8
39249.8
39249.8
39249.8
39249.8
39249.8
39249.8
39249.8
39249.8
39249.8
39249.8
39249.8
)
;
    }
    lateral_surface_1
    {
        type            calculated;
        value           nonuniform List<scalar> 
40
(
4.96073
4.96062
4.96137
4.96156
4.96107
4.96089
4.96176
4.96115
4914.86
4914.91
4914.89
4914.83
4914.81
4914.82
4914.88
4914.8
14724.8
14724.8
14724.8
14724.8
14724.8
14724.8
14724.8
14724.8
24534.8
24534.8
24534.8
24534.8
24534.8
24534.8
24534.8
24534.8
34344.8
34344.8
34344.8
34344.8
34344.8
34344.8
34344.8
34344.8
)
;
    }
    lateral_surface_2
    {
        type            calculated;
        value           nonuniform List<scalar> 
40
(
4.95654
4.95959
4.96104
4.96077
4.96084
4.95987
4.95997
4.95948
4914.82
4914.87
4914.87
4914.84
4914.81
4914.85
4914.85
4914.84
14724.8
14724.8
14724.8
14724.8
14724.8
14724.8
14724.8
14724.8
24534.8
24534.8
24534.8
24534.8
24534.8
24534.8
24534.8
24534.8
34344.8
34344.8
34344.8
34344.8
34344.8
34344.8
34344.8
34344.8
)
;
    }
    lateral_surface_3
    {
        type            calculated;
        value           nonuniform List<scalar> 
40
(
4.96176
4.96284
4.963
4.96252
4.96178
4.96166
4.96728
4.95654
4914.88
4914.86
4914.84
4914.9
4914.9
4914.82
4914.89
4914.82
14724.8
14724.8
14724.8
14724.8
14724.8
14724.8
14724.8
14724.8
24534.8
24534.8
24534.8
24534.8
24534.8
24534.8
24534.8
24534.8
34344.8
34344.8
34344.8
34344.8
34344.8
34344.8
34344.8
34344.8
)
;
    }
    lateral_surface_4
    {
        type            calculated;
        value           nonuniform List<scalar> 
40
(
4.95948
4.96066
4.96167
4.96147
4.96025
4.95979
4.96068
4.96115
4914.84
4914.83
4914.84
4914.86
4914.83
4914.89
4914.86
4914.8
14724.8
14724.8
14724.8
14724.8
14724.8
14724.8
14724.8
14724.8
24534.8
24534.8
24534.8
24534.8
24534.8
24534.8
24534.8
24534.8
34344.8
34344.8
34344.8
34344.8
34344.8
34344.8
34344.8
34344.8
)
;
    }
}


// ************************************************************************* //
