/*--------------------------------*- C++ -*----------------------------------*\
| =========                 |                                                 |
| \\      /  F ield         | OpenFOAM: The Open Source CFD Toolbox           |
|  \\    /   O peration     | Version:  v1612+                                |
|   \\  /    A nd           | Web:      www.OpenFOAM.com                      |
|    \\/     M anipulation  |                                                 |
\*---------------------------------------------------------------------------*/
FoamFile
{
    version     2.0;
    format      ascii;
    class       surfaceScalarField;
    location    "4.65";
    object      phi;
}
// * * * * * * * * * * * * * * * * * * * * * * * * * * * * * * * * * * * * * //

dimensions      [0 3 -1 0 0 0 0];

internalField   nonuniform List<scalar> 
816
(
-2.25756e-06
-5.2912e-06
3.79263e-06
-4.22551e-06
-5.51532e-06
1.3498e-05
1.2142e-06
4.28233e-06
-1.04934e-07
6.67045e-06
-1.43215e-05
-5.77642e-06
2.2583e-06
4.267e-06
4.75029e-06
-1.07958e-05
-2.34585e-06
4.42368e-06
5.5428e-06
-1.21728e-05
0.000139803
-0.000124277
-1.84823e-05
-0.000212329
0.000210918
8.5326e-05
-1.34387e-05
-7.5058e-05
0.000237142
9.41967e-05
-2.53284e-06
-2.28755e-05
0.000235357
0.000124846
-1.45109e-05
-0.000312735
0.000252923
0.000144926
1.47911e-05
-0.000119804
0.000169912
0.000324458
1.30181e-05
-0.000196931
0.000129751
0.000195655
1.28483e-06
-4.01773e-05
0.000178099
0.000225516
-7.58892e-06
8.13018e-05
-0.000265569
-3.93025e-05
-1.90219e-05
0.000143451
0.000229507
-6.2734e-05
-2.4515e-05
1.41837e-05
4.08128e-05
-0.000251085
3.99661e-06
8.36715e-05
-0.000225504
7.3461e-06
-0.000171391
-8.28798e-05
7.10277e-06
-3.77458e-06
-2.66378e-05
-4.43184e-06
8.2859e-06
1.14674e-05
-2.4203e-05
-3.88491e-07
8.82968e-06
4.52481e-06
-6.35818e-06
-2.49176e-06
1.43572e-05
-7.05688e-06
4.1909e-06
-4.9023e-06
-1.48526e-06
-4.66358e-06
8.67307e-06
2.945e-07
-5.32543e-07
5.41407e-06
-1.46012e-05
3.20518e-06
8.60762e-06
5.40585e-06
-9.52817e-06
-2.25236e-06
1.38484e-05
5.91761e-07
4.96312e-06
-1.43446e-05
6.07682e-06
5.98754e-06
-3.08304e-05
-7.30066e-07
1.29688e-05
7.08248e-06
-2.44789e-05
-3.26421e-06
7.67201e-06
4.68185e-07
9.80873e-06
4.39367e-08
-1.08014e-06
-2.51508e-06
6.76692e-06
-1.07764e-06
-2.00793e-06
-5.97415e-06
-1.18594e-05
-3.00563e-06
-6.93595e-06
-1.12621e-05
-3.73754e-06
-8.28199e-07
-3.91099e-06
-1.95701e-06
-6.59944e-06
-3.19292e-07
1.53251e-06
2.03628e-06
7.33456e-07
4.06219e-06
1.2063e-06
1.99435e-07
-7.50137e-06
-2.3196e-06
-4.24827e-06
6.20896e-07
-4.69839e-06
-8.36572e-07
9.24271e-07
1.63952e-06
5.29305e-06
-2.21635e-06
-1.4228e-05
-5.66013e-06
-7.80846e-06
-1.02347e-05
-1.11116e-05
-1.10199e-06
-5.69591e-06
4.37449e-06
-3.33556e-06
-1.04721e-06
-8.73457e-06
-4.40861e-06
-9.70243e-07
-2.96819e-06
2.57896e-06
-2.49852e-06
-1.65757e-06
3.28953e-07
2.96739e-06
3.83307e-07
2.00147e-06
-2.82621e-06
1.49495e-06
2.12371e-06
9.95415e-07
-1.04068e-06
2.21333e-06
1.85096e-06
-1.17989e-07
-3.89576e-06
-1.59685e-06
-3.68663e-06
-3.62705e-06
-2.23735e-06
-2.56453e-06
-9.00546e-07
-1.72419e-06
-3.9625e-06
-9.57947e-07
-2.26441e-07
1.66484e-06
-4.38613e-07
7.13284e-07
1.1045e-06
9.62322e-07
-1.98142e-07
-1.58277e-06
-2.63504e-06
-2.37498e-06
-6.89378e-08
-9.50065e-07
-1.66848e-06
2.64278e-07
2.86908e-06
-9.02595e-08
-1.02135e-06
-3.6258e-06
-4.9277e-06
-4.38197e-06
-5.68593e-06
-9.53732e-07
-3.38882e-06
-3.17599e-06
-1.81091e-06
1.15703e-06
-4.78062e-06
-3.00557e-06
-3.47754e-07
-0.000129601
0.000115599
1.49442e-05
-2.51379e-05
5.8961e-05
5.76292e-07
-0.000142598
-5.93085e-07
-5.9391e-06
6.95075e-05
-9.75054e-06
5.2134e-06
4.72036e-05
5.561e-05
5.31736e-06
-0.000109948
-0.000218661
-0.000122128
-5.13875e-06
-9.30908e-05
-6.7588e-05
-2.52937e-06
-0.000451216
-0.000192922
4.64949e-06
-0.000382131
-0.000135855
5.63062e-07
-7.79107e-05
0.000210269
1.59989e-05
-0.000149516
-0.000135124
0.000251688
-4.73393e-06
-5.07059e-06
4.78004e-05
4.25525e-06
-0.000208656
0.000113005
4.40965e-06
4.67315e-05
-4.00558e-06
4.67788e-07
-0.000135282
4.90714e-05
7.18302e-07
-8.30444e-05
-5.65435e-05
-0.000176951
-7.58201e-06
2.12332e-05
-0.000442573
-4.61647e-06
-0.000172428
-0.000298854
1.26385e-05
-2.6214e-05
-0.000102756
1.18788e-05
-4.78161e-05
4.45668e-06
-6.8068e-05
-4.33831e-05
-2.98667e-06
-3.94744e-06
2.27727e-05
5.46517e-06
2.70927e-06
-5.29613e-06
-3.44131e-06
2.67045e-06
-1.34326e-05
6.82711e-06
7.91905e-07
3.68791e-07
3.73775e-06
1.28032e-05
1.93299e-05
-1.50198e-05
-1.05417e-05
1.44852e-06
2.23333e-05
-2.30855e-06
-5.1225e-06
1.35897e-05
-1.4446e-05
-2.14621e-05
3.72305e-05
-2.30017e-05
-2.29129e-05
4.14704e-06
-2.82359e-06
9.24304e-06
-1.41653e-05
4.72932e-06
-1.26344e-05
4.05466e-07
1.03845e-05
3.7846e-06
-1.20006e-05
2.42924e-05
-9.85104e-06
2.72045e-06
-2.35787e-05
-1.50557e-07
3.58218e-06
1.35564e-05
-1.55794e-05
1.41969e-05
4.28563e-06
-1.47892e-05
-3.34665e-07
2.6491e-06
6.63723e-06
8.77583e-06
-1.12283e-05
1.7799e-05
-1.30206e-05
-1.02687e-05
1.89088e-05
-7.84719e-06
-3.35737e-06
6.10663e-06
-1.88658e-06
1.46866e-05
-5.10489e-06
-1.30702e-05
6.71487e-06
2.67355e-06
1.10248e-05
-6.37589e-06
2.4524e-06
-2.79108e-06
-1.25243e-06
-1.16497e-06
-5.7943e-06
-7.76076e-06
1.16336e-06
5.74648e-08
-3.97864e-06
-3.73824e-06
8.64733e-06
6.05424e-06
9.52981e-06
-5.26603e-07
1.01037e-05
2.41366e-06
7.42604e-07
5.66393e-06
8.68856e-06
8.28374e-06
1.67655e-05
1.4131e-05
5.77182e-06
2.061e-06
2.29642e-06
-6.85416e-07
-6.61648e-06
-5.11714e-06
4.02592e-06
1.33578e-06
5.03602e-06
-9.24817e-07
7.68421e-06
1.10866e-05
6.025e-06
-7.08085e-07
-1.05597e-05
6.62237e-07
-1.28793e-06
6.21828e-06
2.26946e-06
-3.87457e-06
1.77827e-06
3.10618e-06
1.98538e-06
-3.38576e-06
3.26692e-06
-4.91313e-06
-6.3847e-07
8.2328e-06
5.71389e-06
2.71293e-06
8.28955e-06
3.92896e-06
1.86257e-06
2.95997e-06
-4.17077e-07
6.97365e-06
3.85504e-06
8.39485e-06
4.46551e-06
8.60239e-07
3.86704e-06
-2.95146e-06
1.92911e-06
-9.07973e-07
-9.56012e-07
-7.82232e-07
-3.96154e-07
-4.93355e-06
8.64866e-07
-2.6607e-07
-3.05725e-06
-1.95944e-06
2.38526e-06
3.41517e-06
5.6674e-06
-3.02545e-07
3.30456e-06
1.16554e-06
-9.41553e-09
1.96871e-06
5.05682e-06
4.37022e-06
4.786e-06
8.68621e-06
3.54525e-06
4.50112e-07
8.46979e-07
-6.92782e-07
-8.37915e-07
-3.68186e-06
2.15464e-06
4.50338e-07
1.86088e-06
-5.9105e-07
4.12899e-06
3.425e-06
3.01286e-06
-9.72163e-07
-2.76792e-06
1.58624e-07
-1.10117e-06
1.66925e-06
1.03762e-06
-2.07682e-06
5.4994e-07
1.35817e-06
8.38703e-07
-1.93167e-06
1.41523e-06
-3.23327e-06
-1.89867e-07
2.39045e-06
3.13305e-06
1.35219e-06
2.80034e-06
2.12147e-06
8.15363e-07
8.98958e-07
-4.19924e-07
1.98603e-06
2.12738e-06
4.52256e-06
-1.9142e-07
-1.00653e-06
8.22427e-07
-1.29502e-06
8.86595e-07
1.38096e-07
7.60433e-07
-1.7175e-06
6.73646e-07
1.00909e-06
-6.6456e-07
1.65795e-06
-4.31706e-07
-1.66861e-06
-7.90017e-07
-1.24443e-06
-1.63829e-06
-2.12854e-07
-5.92804e-07
-1.40553e-06
-5.1398e-07
6.02396e-07
-2.26282e-07
-1.74851e-09
2.37228e-07
-1.04805e-06
-1.79406e-06
2.54627e-07
-4.63896e-08
-5.12943e-08
8.60977e-07
-1.26914e-06
-8.8421e-07
-2.29149e-06
-3.31035e-06
-3.61476e-07
-2.2583e-06
-1.21534e-06
-3.19567e-06
-1.09702e-06
2.1338e-06
3.47546e-07
-1.81921e-06
7.60047e-07
-3.40831e-07
7.34757e-07
-2.01901e-06
9.25651e-07
-1.06354e-06
-7.74104e-07
1.13453e-06
2.94623e-06
-1.48997e-09
1.1094e-06
1.33754e-07
2.42455e-06
1.79544e-06
3.11782e-06
9.44067e-07
2.51404e-07
4.03305e-07
-1.32707e-06
1.04038e-06
8.64921e-07
-4.03131e-07
2.45316e-06
1.77444e-06
2.18573e-07
3.13644e-07
-1.22903e-07
1.11183e-06
-1.24388e-06
1.0162e-06
6.49474e-07
-1.13773e-06
-9.97483e-07
-5.91764e-07
1.46986e-06
3.3652e-07
6.45534e-07
1.16979e-07
1.14526e-08
7.29442e-07
1.70728e-06
-0.000112733
7.481e-05
-5.00579e-07
3.33055e-06
1.84398e-05
0.000264462
7.03603e-06
6.72073e-05
5.42565e-06
-0.000114022
4.00178e-06
-0.000354871
3.4643e-06
0.000196105
5.61016e-06
7.62305e-05
-1.07946e-05
-0.000309689
-9.33992e-06
6.66978e-05
-8.51571e-06
0.000267469
-5.94272e-06
0.000131031
1.02659e-06
0.000111653
1.51343e-05
-1.05629e-05
1.37169e-05
0.000137103
6.02129e-06
0.000301671
-8.43017e-06
0.00016649
-1.05093e-05
0.000138874
-1.00855e-05
1.43716e-05
1.72563e-05
-4.29381e-05
1.51515e-05
0.000120757
1.29278e-05
-4.61024e-05
-1.09168e-05
-0.00018474
-1.09096e-05
-0.000174965
-1.86006e-06
-0.000251008
3.76196e-06
-5.36371e-05
1.28921e-05
6.25231e-05
2.53903e-06
-1.24731e-05
3.90302e-06
-3.83203e-06
-5.91991e-06
-1.31322e-07
2.74501e-05
1.00195e-05
-7.21703e-06
4.53686e-07
2.13931e-05
-1.15501e-05
1.97077e-05
-1.4599e-05
-8.66456e-06
1.42515e-05
-2.32241e-05
1.20813e-05
-2.04302e-05
-1.03094e-05
1.21702e-05
-1.01548e-05
-2.07253e-05
5.57589e-06
-4.39624e-05
7.00949e-06
-1.51826e-05
-7.90701e-07
2.74505e-05
-3.69436e-06
2.37556e-05
6.93623e-06
-1.55516e-05
2.40544e-06
3.71625e-07
-6.76758e-06
-9.61523e-06
-9.27322e-06
-8.62261e-06
-3.46607e-06
-5.08949e-06
-5.60439e-06
1.62456e-06
2.59433e-05
-1.78685e-05
8.9317e-06
5.53256e-06
-1.27593e-05
1.88388e-05
-4.4024e-06
-2.33237e-05
-2.52915e-06
-5.37981e-06
-1.44065e-06
9.89906e-06
4.0624e-06
-1.59799e-05
-1.25604e-05
-6.08976e-06
6.31109e-06
-2.28895e-06
3.10586e-06
1.18704e-05
-1.95403e-06
-3.41316e-06
1.46061e-06
1.02158e-05
7.64198e-06
9.54577e-06
8.37068e-06
-3.34287e-06
-3.3355e-06
-1.15174e-05
-4.48568e-06
-9.75512e-06
4.68939e-06
5.40636e-06
2.51082e-06
-9.8613e-06
-7.24031e-06
-2.00928e-05
-1.39577e-05
-6.1609e-06
-4.78829e-06
1.32065e-05
7.94022e-06
1.104e-05
3.44024e-06
-7.013e-06
2.93229e-06
-3.6172e-08
3.31436e-06
-3.97875e-06
-5.69173e-07
-4.08492e-06
-8.71847e-07
-2.52235e-06
3.09064e-06
7.61926e-07
-7.10423e-06
-7.6718e-06
-1.76836e-06
2.18062e-06
3.45846e-06
8.6969e-06
-3.53362e-06
-1.06208e-05
-2.77578e-06
-2.21244e-06
2.64737e-06
4.05531e-06
1.68012e-06
-6.62281e-06
-4.57045e-06
-2.4188e-06
2.81637e-06
-5.62301e-07
1.96383e-06
4.528e-06
-1.17596e-06
-1.23778e-06
8.98517e-07
3.20236e-06
5.16653e-06
2.21636e-06
5.73241e-06
-4.96399e-07
-2.22839e-06
-3.5619e-06
-2.89206e-06
-3.43645e-06
2.85216e-06
8.19206e-07
1.35008e-06
-3.30782e-06
-4.987e-06
-5.07791e-06
-8.32986e-06
-1.99396e-06
-2.69242e-06
3.94682e-06
4.91535e-06
3.46403e-06
1.7852e-06
-1.70932e-06
9.788e-07
1.75417e-07
1.57843e-06
-1.57688e-06
-7.00784e-07
-1.65657e-06
-5.90577e-07
-1.59912e-06
1.58118e-06
-5.7162e-08
-3.76818e-06
-2.32549e-06
-1.02533e-06
2.68978e-07
2.60747e-06
1.8224e-06
-1.66437e-06
-3.22801e-06
-1.7424e-06
-1.94182e-08
9.52091e-07
9.32183e-07
3.31127e-07
-1.49122e-06
-1.42788e-06
-1.25731e-06
1.42039e-06
1.4444e-06
-1.38672e-07
1.04136e-06
2.18938e-06
2.81442e-06
-7.50359e-07
-1.24895e-06
6.72917e-07
-2.12904e-07
-2.16395e-06
-3.90322e-06
-1.27251e-06
2.19998e-06
1.52541e-06
1.29048e-06
1.48179e-06
1.35156e-07
-3.53216e-07
6.03386e-07
-1.72408e-06
-8.13121e-07
4.96691e-09
-1.76092e-06
-1.14001e-06
-2.00653e-07
1.14948e-08
-3.87464e-05
0.000326252
4.76587e-06
1.64147e-05
-8.83865e-06
0.000105119
-1.21961e-05
6.21782e-07
1.02437e-05
1.51565e-05
-6.38914e-06
4.92912e-06
)
;

boundaryField
{
    top_fluid_surface
    {
        type            calculated;
        value           nonuniform List<scalar> 
64
(
6.32307e-06
-9.72071e-05
-0.000216188
4.66636e-05
-8.26382e-05
-0.000130142
-2.47189e-05
0.000164907
-9.11473e-05
-3.33627e-06
0.000373619
-0.0001349
-0.000148915
-0.000263518
-7.70396e-05
-6.21593e-05
0.000257175
0.000514108
8.61364e-05
0.000382281
-0.000187758
-0.000107644
6.92552e-05
0.000374739
-3.46038e-05
0.000408067
8.43932e-05
0.00045307
0.000501655
-5.3135e-05
-0.000246144
0.000118132
-3.08832e-05
-0.000162022
-0.000409597
0.000261803
0.000221938
0.00012831
-0.000556248
-8.69273e-05
0.000299686
-0.000823465
-0.000594064
3.0576e-05
-0.000144646
2.95952e-05
-0.000250705
-0.000153211
-6.19898e-05
8.535e-05
-2.6432e-05
-4.32979e-05
-0.000178821
0.000117615
0.000165882
-0.000185657
4.32781e-05
-0.00025939
-0.000161087
0.000149301
-0.00031264
0.000445256
5.66564e-05
0.000465629
)
;
    }
    bottom_fluid_surface
    {
        type            calculated;
        value           uniform 0;
    }
    lateral_surface_1
    {
        type            calculated;
        value           uniform 0;
    }
    lateral_surface_2
    {
        type            calculated;
        value           uniform 0;
    }
    lateral_surface_3
    {
        type            calculated;
        value           uniform 0;
    }
    lateral_surface_4
    {
        type            calculated;
        value           uniform 0;
    }
}


// ************************************************************************* //
