/*--------------------------------*- C++ -*----------------------------------*\
| =========                 |                                                 |
| \\      /  F ield         | OpenFOAM: The Open Source CFD Toolbox           |
|  \\    /   O peration     | Version:  v1612+                                |
|   \\  /    A nd           | Web:      www.OpenFOAM.com                      |
|    \\/     M anipulation  |                                                 |
\*---------------------------------------------------------------------------*/
FoamFile
{
    version     2.0;
    format      ascii;
    class       volScalarField;
    location    "0.1";
    object      p;
}
// * * * * * * * * * * * * * * * * * * * * * * * * * * * * * * * * * * * * * //

dimensions      [0 2 -2 0 0 0 0];

internalField   nonuniform List<scalar> 
320
(
2.69706e-11
0.00376393
-4.44165e-11
0.00376393
-0.000948831
0.00471232
0.0108254
0.0108254
0.0108254
0.0108254
0.00471232
-0.000948831
-0.00706162
-0.00706164
-0.00706164
-0.00706162
-0.000394138
0.00415776
0.00868963
0.00868961
0.00868961
0.00868963
0.00415776
-0.000394138
-0.00492591
-0.00492589
-0.00492589
-0.00492591
-2.68538e-09
0.00376393
0.00743732
0.00743731
0.00743731
0.00743732
0.00376393
-2.77057e-09
-0.00367328
-0.00367328
-0.00367328
-0.00367328
0.000300687
0.00346341
0.000300687
0.00346341
0.000300686
0.00346341
0.00649109
0.00649108
0.00649108
0.00649109
0.00346341
0.000300685
-0.00272691
-0.00272691
-0.00272691
-0.00272691
-0.00706159
-0.000948822
0.00471231
0.0108254
0.0169689
0.0169688
0.0169688
0.0169688
0.0169688
0.0169689
0.0108254
0.00471231
-0.000948823
-0.00706159
-0.0132046
-0.0132046
-0.0132045
-0.0132045
-0.0132046
-0.0132046
-0.00492594
-0.000394146
0.00415777
0.00868966
0.0129008
0.0129007
0.0129007
0.0129007
0.0129007
0.0129008
0.00868966
0.00415777
-0.000394147
-0.00492594
-0.00913699
-0.00913689
-0.00913683
-0.00913683
-0.00913689
-0.00913699
-0.00367329
-6.34093e-09
0.00376394
0.00743733
0.0107634
0.0107634
0.0107634
0.0107634
0.0107634
0.0107634
0.00743733
0.00376394
-6.89064e-09
-0.00367329
-0.00699918
-0.00699917
-0.00699916
-0.00699916
-0.00699917
-0.00699918
-0.00272692
0.000300684
0.00346341
0.00649109
0.00906976
0.00906975
0.00906975
0.00906975
0.00906975
0.00906976
0.00649109
0.00346341
0.000300683
-0.00272692
-0.00530544
-0.00530543
-0.00530543
-0.00530543
-0.00530543
-0.00530543
0.000455849
0.00330832
0.000455849
0.00330832
0.000455848
0.00330832
0.00601003
0.00601003
0.00601003
0.00601003
0.00330832
0.000455848
-0.0022458
-0.00224579
-0.00224579
-0.00224579
-0.0022458
0.000455848
0.00330832
0.00601003
0.00823653
0.00823654
0.00823654
0.00823654
0.00823654
0.00823653
0.00601003
0.00330832
0.000455847
-0.0022458
-0.00447218
-0.00447219
-0.00447219
-0.00447219
-0.00447219
-0.00447218
-0.0132054
-0.00706125
-0.000948773
0.00471227
0.0108251
0.0169696
0.0328301
0.0328316
0.0328318
0.032832
0.032832
0.0328318
0.0328316
0.0328301
0.0169696
0.0108251
0.00471227
-0.000948773
-0.00706125
-0.0132054
-0.029065
-0.0290665
-0.0290667
-0.0290668
-0.0290668
-0.0290667
-0.0290665
-0.029065
-0.00913767
-0.00492609
-0.000394189
0.00415781
0.00868981
0.0129015
0.0177243
0.0177236
0.0177235
0.0177235
0.0177235
0.0177235
0.0177236
0.0177243
0.0129015
0.00868981
0.00415781
-0.00039419
-0.00492609
-0.00913767
-0.0139596
-0.0139589
-0.0139588
-0.0139587
-0.0139587
-0.0139588
-0.0139589
-0.0139596
-0.00699928
-0.00367332
-2.0344e-08
0.00376395
0.00743735
0.0107635
0.0140568
0.0140573
0.0140573
0.0140573
0.0140573
0.0140573
0.0140573
0.0140568
0.0107635
0.00743735
0.00376395
-2.08624e-08
-0.00367332
-0.00699928
-0.0102923
-0.0102927
-0.0102928
-0.0102928
-0.0102928
-0.0102928
-0.0102927
-0.0102923
-0.00530548
-0.00272693
0.000300675
0.00346342
0.00649111
0.0090698
0.01097
0.0109701
0.0109701
0.0109701
0.0109701
0.0109701
0.0109701
0.01097
0.0090698
0.00649111
0.00346342
0.000300674
-0.00272694
-0.00530548
-0.00720547
-0.00720558
-0.0072056
-0.00720562
-0.00720562
-0.0072056
-0.00720557
-0.00720547
-0.00447218
-0.0022458
0.000455844
0.00330832
0.00601003
0.00823653
0.00968084
0.00968094
0.00968097
0.00968098
0.00968098
0.00968096
0.00968094
0.00968084
0.00823653
0.00601003
0.00330832
0.000455844
-0.0022458
-0.00447218
-0.00591637
-0.00591648
-0.0059165
-0.00591651
-0.00591651
-0.0059165
-0.00591647
-0.00591637
-0.000948836
0.00471233
-0.000948836
0.00471233
-0.000394133
0.00415775
-0.000394133
0.00415775
)
;

boundaryField
{
    top_fluid_surface
    {
        type            zeroGradient;
    }
    bottom_fluid_surface
    {
        type            zeroGradient;
    }
    lateral_surface_1
    {
        type            zeroGradient;
    }
    lateral_surface_2
    {
        type            zeroGradient;
    }
    lateral_surface_3
    {
        type            zeroGradient;
    }
    lateral_surface_4
    {
        type            zeroGradient;
    }
}


// ************************************************************************* //
