/*--------------------------------*- C++ -*----------------------------------*\
| =========                 |                                                 |
| \\      /  F ield         | OpenFOAM: The Open Source CFD Toolbox           |
|  \\    /   O peration     | Version:  v1612+                                |
|   \\  /    A nd           | Web:      www.OpenFOAM.com                      |
|    \\/     M anipulation  |                                                 |
\*---------------------------------------------------------------------------*/
FoamFile
{
    version     2.0;
    format      ascii;
    class       surfaceScalarField;
    location    "0.1";
    object      phi;
}
// * * * * * * * * * * * * * * * * * * * * * * * * * * * * * * * * * * * * * //

dimensions      [0 3 -1 0 0 0 0];

internalField   nonuniform List<scalar> 
816
(
-0.00037913
7.065e-14
1.80861e-10
0.000369461
-3.07225e-05
4.03912e-05
1.30864e-11
-1.76795e-10
-0.000369464
3.07182e-05
-4.03835e-05
-0.00037913
1.98539e-10
0.000369461
-3.07225e-05
4.03912e-05
-0.000369464
-1.74565e-10
3.07182e-05
-4.03835e-05
0.00143911
-0.00139993
-3.91746e-05
-7.14154e-10
2.02911e-10
0.00139994
3.91684e-05
7.01795e-10
-2.003e-10
-6.49727e-10
0.000144533
3.33381e-09
0.0012554
4.41309e-12
0.000144534
0.0012554
-0.00139994
6.5054e-10
0.000144534
0.0012554
-0.00139994
-0.00139994
0.000144533
0.0012554
3.33321e-09
-0.00143911
3.91684e-05
7.06401e-10
-1.97924e-10
-0.00139993
-3.91746e-05
-7.12172e-10
1.97858e-10
6.54171e-10
-0.000144535
-3.34135e-09
-0.00125539
-6.99182e-12
-0.000144536
-0.0012554
0.00139993
-6.53838e-10
-0.000144536
-0.0012554
0.00139993
-0.000144535
-3.34104e-09
-0.00125539
-0.000460488
0.000461704
-4.03913e-05
7.58354e-10
-2.96183e-10
-0.000461702
4.03836e-05
-7.62649e-10
3.03235e-10
1.07826e-09
0.000132806
-2.84439e-09
-0.000449974
6.91226e-13
0.000132806
-0.000449972
0.000461701
-1.07925e-09
0.000132806
-0.000449972
0.000461701
0.000461702
0.000132806
-0.000449974
-2.84738e-09
0.000460487
4.03836e-05
-7.54964e-10
3.00073e-10
0.000461704
-4.03913e-05
7.51059e-10
-3.06757e-10
-1.06324e-09
-0.000132813
2.8316e-09
0.00044998
4.54217e-12
-0.000132813
0.000449978
-0.000461703
1.0576e-09
-0.000132813
0.000449978
-0.000461703
-0.000132813
2.82571e-09
0.00044998
-0.00037913
0.000369461
-3.07225e-05
4.26251e-10
-0.000369465
3.07183e-05
-4.04549e-10
5.40729e-10
9.75213e-05
-1.16343e-09
-0.000334179
-6.16226e-12
9.75209e-05
-0.000334179
-5.45871e-10
9.75209e-05
-0.000334179
0.000369465
9.75213e-05
-0.000334179
-1.16714e-09
0.00037913
3.07183e-05
-4.18857e-10
0.000369461
-3.07226e-05
4.32812e-10
-5.46781e-10
-9.75246e-05
1.16016e-09
0.000334172
-1.31504e-11
-9.75242e-05
0.000334172
5.45368e-10
-9.75242e-05
0.000334172
-9.75246e-05
1.17249e-09
0.000334172
-0.000316237
1.05894e-11
1.02903e-10
0.000301612
-1.60976e-05
-9.57495e-12
-9.04858e-11
-0.000301615
1.60957e-05
-0.000316237
9.96147e-11
0.000301612
-1.60975e-05
-0.000301615
-1.05684e-10
1.60957e-05
-0.000316237
0.000301612
2.27157e-10
-1.60976e-05
-0.000301615
-2.15395e-10
1.60958e-05
2.00002e-10
-4.84362e-10
-0.000254121
5.00276e-05
-1.05809e-11
-0.000254121
5.00274e-05
-2.14414e-10
-0.000254121
5.00274e-05
0.000301615
-0.000254121
-4.90095e-10
5.00276e-05
0.000316237
-2.20404e-10
1.60958e-05
0.000301612
2.06426e-10
-1.60976e-05
-1.89458e-10
4.77867e-10
0.000254116
-5.00289e-05
8.57374e-12
0.000254116
-5.00287e-05
1.98344e-10
0.000254117
-5.00287e-05
4.79894e-10
0.000254116
-5.00289e-05
0.00139993
-0.00125539
-0.000144533
-9.74535e-09
0.00143911
-3.91739e-05
-1.75054e-09
0.00139994
3.91678e-05
1.74022e-09
0.0012554
0.000144531
9.74919e-09
8.321e-09
0.000305057
-2.36309e-08
0.00095036
1.68631e-09
0.000305057
0.000950352
1.86477e-12
0.000305058
0.000950347
-1.69209e-09
0.000305058
0.000950347
-8.32507e-09
0.000305057
0.000950352
-0.0012554
0.000305057
0.00095036
-2.36358e-08
-0.00139994
0.000144531
9.73616e-09
-0.00143911
3.91678e-05
1.73906e-09
-0.00139993
-3.9174e-05
-1.75659e-09
-0.00125539
-0.000144533
-9.75469e-09
-8.32033e-09
-0.000305054
2.36301e-08
-0.000950354
-1.68657e-09
-0.000305055
-0.000950346
-2.41155e-12
-0.000305056
-0.000950341
1.68437e-09
-0.000305056
-0.000950341
8.31941e-09
-0.000305055
-0.000950346
-0.000305054
2.36318e-08
-0.000950354
-0.000461705
0.000449983
-0.000132814
5.95805e-09
-0.000460488
-4.03914e-05
1.58923e-09
-0.000461703
4.03837e-05
-1.5947e-09
-0.000449976
0.000132807
-5.96767e-09
9.75408e-09
0.000252948
-2.41549e-08
-0.000397853
2.85286e-09
0.000252945
-0.000397854
7.07413e-13
0.000252943
-0.000397854
-2.854e-09
0.000252943
-0.000397854
-9.7578e-09
0.000252945
-0.000397854
0.000449976
0.000252948
-0.000397853
-2.41652e-08
0.000461703
0.000132807
-5.96884e-09
0.000460488
4.03837e-05
-1.59385e-09
0.000461705
-4.03915e-05
1.5876e-09
0.000449983
-0.000132814
5.95691e-09
-9.74631e-09
-0.00025295
2.41425e-08
0.000397865
-2.84698e-09
-0.000252947
0.000397866
-4.46557e-12
-0.000252946
0.000397866
2.84385e-09
-0.000252946
0.000397866
9.74694e-09
-0.000252947
0.000397866
-0.00025295
2.41482e-08
0.000397865
-0.000369462
0.000334172
-9.75251e-05
1.92128e-09
-0.000379131
-3.07227e-05
7.6772e-10
-0.000369465
3.07184e-05
-7.4399e-10
-0.000334179
9.75218e-05
-1.9223e-09
2.01592e-09
0.000176546
-4.39589e-09
-0.000257775
7.17487e-10
0.000176545
-0.000257778
-5.3208e-12
0.000176545
-0.00025778
-7.2382e-10
0.000176545
-0.00025778
-2.02477e-09
0.000176545
-0.000257778
0.000334179
0.000176546
-0.000257775
-4.4059e-09
0.000369465
9.75218e-05
-1.92475e-09
0.000379131
3.07184e-05
-7.46551e-10
0.000369462
-3.07227e-05
7.45278e-10
0.000334172
-9.75251e-05
1.92328e-09
-2.01944e-09
-0.000176547
4.39959e-09
0.000257766
-7.22091e-10
-0.000176546
0.000257769
2.42141e-12
-0.000176545
0.000257771
7.17797e-10
-0.000176545
0.000257771
2.02111e-09
-0.000176546
0.000257769
-0.000176547
4.40305e-09
0.000257766
-0.000301612
0.000254116
-5.00292e-05
9.4377e-10
-0.000316238
-1.60977e-05
4.07824e-10
-0.000301615
1.60959e-05
-4.12574e-10
-0.00025412
5.00279e-05
-9.4423e-10
4.34674e-10
8.69563e-05
-1.24127e-09
-0.000164529
9.945e-11
8.69558e-05
-0.000164531
-1.48344e-11
8.69555e-05
-0.000164532
-1.16683e-10
8.69555e-05
-0.000164532
-4.4259e-10
8.69558e-05
-0.000164531
0.00025412
8.69563e-05
-0.000164529
-1.24559e-09
0.000301615
5.00279e-05
-9.4359e-10
0.000316238
1.60959e-05
-4.05619e-10
0.000301612
-1.60977e-05
4.0992e-10
0.000254116
-5.00292e-05
9.42431e-10
-4.34614e-10
-8.69562e-05
1.24269e-09
0.000164524
-1.02433e-10
-8.69557e-05
0.000164526
4.56842e-12
-8.69554e-05
0.000164526
1.11358e-10
-8.69554e-05
0.000164526
4.39158e-10
-8.69557e-05
0.000164526
-8.69562e-05
1.24172e-09
0.000164524
-0.000283251
-1.05027e-11
3.47356e-11
0.000267154
-7.39213e-12
-2.37914e-11
-0.000267156
-0.000283251
1.93625e-11
0.000267154
-0.000267156
-4.5109e-11
-0.000283251
0.000267154
8.38674e-11
-0.000267156
-7.90639e-11
2.24821e-11
-8.16129e-11
-0.000217128
-1.35315e-11
-0.000217128
-4.13516e-11
-0.000217128
0.000267156
-0.000217128
-9.37823e-11
0.000283251
-9.47452e-11
0.000267154
7.05649e-11
-1.45413e-11
7.28467e-11
0.000217125
1.07295e-11
0.000217125
3.19406e-11
0.000217125
8.11867e-11
0.000217125
-0.000267154
0.000217124
1.95323e-10
-0.000283251
1.65401e-10
-0.000267155
-1.65531e-10
-0.000217127
-1.9304e-10
-3.41813e-10
4.60323e-10
-0.000130171
-1.7987e-10
-0.000130172
-1.37905e-11
-0.000130173
1.60518e-10
-0.000130173
3.27216e-10
-0.000130172
0.000217127
-0.000130171
4.50326e-10
0.000267155
-1.97976e-10
0.000283251
-1.6933e-10
0.000267154
1.6012e-10
0.000217124
1.89826e-10
3.46941e-10
-4.61055e-10
0.000130168
1.83004e-10
0.000130169
5.38652e-12
0.00013017
-1.6422e-10
0.00013017
-3.34302e-10
0.000130169
-4.49922e-10
0.000130168
0.0012541
-0.000949315
-0.000304763
0.00139848
-0.000144385
0.00143761
-3.91343e-05
0.00139848
3.91282e-05
0.00125411
0.000144383
0.000949321
0.000304765
-5.9895e-08
0.000949381
-2.45303e-08
0.000950324
-7.18895e-09
0.000950334
-1.28644e-12
0.00095034
7.19052e-09
0.00095034
2.45292e-08
0.000950334
5.9886e-08
0.000950324
-0.000949321
0.000949381
-0.00125411
0.000304765
-0.00139848
0.000144383
-0.00143761
3.91282e-05
-0.00139848
-3.91343e-05
-0.0012541
-0.000144385
-0.000949315
-0.000304763
5.98769e-08
-0.000949375
2.45263e-08
-0.000950319
7.19088e-09
-0.000950329
-8.70247e-14
-0.000950334
-7.18946e-09
-0.000950334
-2.45243e-08
-0.000950329
-5.98715e-08
-0.000950319
-0.000949375
-0.000449523
0.000397477
-0.000252693
-0.000461225
-0.000132677
-0.000460007
-4.03502e-05
-0.000461223
4.03425e-05
-0.000449516
0.00013267
-0.000397465
0.00025269
2.53387e-08
0.00055189
8.90671e-09
0.000552488
1.76686e-09
0.000552488
-1.27804e-12
0.000552487
-1.76502e-09
0.000552487
-8.91201e-09
0.000552488
-2.5349e-08
0.000552488
0.000397465
0.00055189
0.000449516
0.00025269
0.000461223
0.00013267
0.000460007
4.03425e-05
0.000461225
-4.03502e-05
0.000449523
-0.000132677
0.000397477
-0.000252693
-2.53437e-08
-0.000551873
-8.90584e-09
-0.000552471
-1.76303e-09
-0.00055247
-1.51596e-12
-0.00055247
1.76668e-09
-0.00055247
8.91072e-09
-0.00055247
2.53571e-08
-0.000552471
-0.000551873
-0.000333826
0.000257503
-0.000176365
-0.000369077
-9.74238e-05
-0.000378736
-3.0691e-05
-0.000369081
3.06867e-05
-0.000333833
9.74206e-05
-0.000257512
0.000176364
-1.26548e-08
0.000294391
-4.91349e-09
0.000294705
-1.34661e-09
0.000294706
-1.16798e-11
0.000294706
1.33026e-09
0.000294706
4.90271e-09
0.000294706
1.26509e-08
0.000294705
0.000257512
0.000294391
0.000333833
0.000176364
0.000369081
9.74205e-05
0.000378736
3.06867e-05
0.000369077
-3.0691e-05
0.000333826
-9.74238e-05
0.000257503
-0.000176365
1.2651e-08
-0.000294383
4.91104e-09
-0.000294697
1.34416e-09
-0.000294698
6.44185e-13
-0.000294698
-1.33401e-09
-0.000294698
-4.90189e-09
-0.000294698
-1.26479e-08
-0.000294697
-0.000294383
-0.000253854
0.000164356
-8.68654e-05
-0.0003013
-4.99771e-05
-0.00031591
-1.6081e-05
-0.000301303
1.60792e-05
-0.000253859
4.99758e-05
-0.000164362
8.68656e-05
-4.30344e-09
0.000130034
-2.18949e-09
0.000130173
-8.66482e-10
0.000130173
-1.20389e-11
0.000130174
8.41153e-10
0.000130174
2.17669e-09
0.000130173
4.30095e-09
0.000130173
0.000164362
0.000130034
0.000253859
8.68656e-05
0.000301303
4.99758e-05
0.00031591
1.60792e-05
0.0003013
-1.6081e-05
0.000253854
-4.99771e-05
0.000164356
-8.68654e-05
4.29971e-09
-0.000130031
2.18777e-09
-0.00013017
8.65241e-10
-0.000130171
8.00964e-12
-0.000130171
-8.54952e-10
-0.000130171
-2.18085e-09
-0.000130171
-4.3e-09
-0.00013017
-0.000130031
-0.000216901
0.000130035
-0.000266877
-0.000282958
-0.000266879
-0.000216904
-0.000130038
-3.78366e-09
-1.90762e-09
-7.76786e-10
-1.42852e-11
7.47179e-10
1.89203e-09
3.77838e-09
0.000130038
0.000216904
0.000266879
0.000282958
0.000266877
0.000216901
0.000130035
3.78379e-09
1.91236e-09
7.70853e-10
9.9174e-12
-7.57307e-10
-1.89999e-09
-3.78295e-09
0.00143911
7.35453e-12
-3.91749e-05
5.3227e-12
3.91688e-05
0.00143911
-3.91749e-05
3.91688e-05
-0.000460487
1.83599e-11
-2.91766e-12
-0.000460487
)
;

boundaryField
{
    top_fluid_surface
    {
        type            calculated;
        value           uniform 0;
    }
    bottom_fluid_surface
    {
        type            calculated;
        value           uniform 0;
    }
    lateral_surface_1
    {
        type            calculated;
        value           uniform 0;
    }
    lateral_surface_2
    {
        type            calculated;
        value           uniform 0;
    }
    lateral_surface_3
    {
        type            calculated;
        value           uniform 0;
    }
    lateral_surface_4
    {
        type            calculated;
        value           uniform 0;
    }
}


// ************************************************************************* //
