/*--------------------------------*- C++ -*----------------------------------*\
| =========                 |                                                 |
| \\      /  F ield         | OpenFOAM: The Open Source CFD Toolbox           |
|  \\    /   O peration     | Version:  v1612+                                |
|   \\  /    A nd           | Web:      www.OpenFOAM.com                      |
|    \\/     M anipulation  |                                                 |
\*---------------------------------------------------------------------------*/
FoamFile
{
    version     2.0;
    format      ascii;
    class       volVectorField;
    location    "0.1";
    object      U;
}
// * * * * * * * * * * * * * * * * * * * * * * * * * * * * * * * * * * * * * //

dimensions      [0 1 -1 0 0 0 0];

internalField   nonuniform List<vector> 
320
(
(-0.000374992 -8.86695e-11 3.59968e-05)
(-0.000374993 9.46365e-11 -3.59906e-05)
(-0.000374992 8.85693e-11 3.59968e-05)
(-0.000374993 -6.37058e-11 -3.59906e-05)
(0.0014213 2.91757e-10 2.36973e-05)
(0.0014213 -2.84734e-10 -2.36899e-05)
(0.00136556 -9.89287e-10 -9.03018e-05)
(0.00136556 -3.08982e-10 -9.03027e-05)
(0.00136556 3.18642e-10 -9.03027e-05)
(0.00136556 9.90066e-10 -9.03018e-05)
(0.0014213 2.84214e-10 -2.36899e-05)
(0.0014213 -2.89396e-10 2.36974e-05)
(0.00136555 -9.9899e-10 9.03084e-05)
(0.00136555 -3.1029e-10 9.03093e-05)
(0.00136555 3.24082e-10 9.03093e-05)
(0.00136555 9.971e-10 9.03084e-05)
(-0.000461109 -4.42646e-10 4.41629e-05)
(-0.000461109 4.29374e-10 -4.41583e-05)
(-0.000455561 1.52637e-09 -0.000157002)
(-0.000455559 5.34667e-10 -0.000157003)
(-0.000455559 -5.32877e-10 -0.000157003)
(-0.000455561 -1.53581e-09 -0.000157002)
(-0.000461109 -4.25447e-10 -4.41583e-05)
(-0.000461109 4.14423e-10 4.41629e-05)
(-0.000455564 1.5095e-09 0.000157002)
(-0.000455563 5.20495e-10 0.000157003)
(-0.000455563 -5.26732e-10 0.000157003)
(-0.000455564 -1.50558e-09 0.000157002)
(-0.000374992 -2.53392e-10 3.59969e-05)
(-0.000374993 2.30158e-10 -3.59907e-05)
(-0.000352863 7.41815e-10 -0.000115786)
(-0.000352863 2.66321e-10 -0.000115785)
(-0.000352863 -2.75858e-10 -0.000115785)
(-0.000352863 -7.46645e-10 -0.000115786)
(-0.000374994 -2.67652e-10 -3.59907e-05)
(-0.000374992 2.9391e-10 3.59969e-05)
(-0.000352858 7.31663e-10 0.000115791)
(-0.000352858 2.97742e-10 0.000115791)
(-0.000352858 -2.66435e-10 0.000115791)
(-0.000352858 -7.70065e-10 0.000115791)
(-0.000310374 -4.68187e-11 2.36038e-05)
(-0.000310375 3.99583e-11 -2.36008e-05)
(-0.000310374 7.32734e-11 2.36038e-05)
(-0.000310375 -5.62152e-11 -2.36007e-05)
(-0.000310374 -1.65371e-10 2.36038e-05)
(-0.000310375 1.26642e-10 -2.36008e-05)
(-0.000279916 2.82443e-10 -7.41265e-05)
(-0.000279916 9.22925e-11 -7.41263e-05)
(-0.000279916 -1.12011e-10 -7.41263e-05)
(-0.000279916 -2.94796e-10 -7.41265e-05)
(-0.000310375 -1.45792e-10 -2.36008e-05)
(-0.000310374 1.13754e-10 2.36039e-05)
(-0.000279913 2.70506e-10 7.41288e-05)
(-0.000279913 8.75606e-11 7.41286e-05)
(-0.000279913 -1.02269e-10 7.41285e-05)
(-0.000279913 -2.79513e-10 7.41288e-05)
(0.00136554 7.6418e-09 9.03067e-05)
(0.0014213 1.45577e-09 2.36969e-05)
(0.0014213 -1.43821e-09 -2.36894e-05)
(0.00136556 -7.63697e-09 -9.03001e-05)
(0.000945365 1.87783e-08 -0.000199045)
(0.000945359 2.3937e-09 -0.000199046)
(0.000945356 8.3533e-10 -0.000199046)
(0.000945356 -8.31005e-10 -0.000199046)
(0.000945359 -2.40108e-09 -0.000199046)
(0.000945365 -1.87839e-08 -0.000199045)
(0.00136556 7.62984e-09 -9.03001e-05)
(0.0014213 1.44401e-09 -2.36894e-05)
(0.0014213 -1.45739e-09 2.36969e-05)
(0.00136554 -7.64477e-09 9.03068e-05)
(0.000945367 1.87764e-08 0.000199058)
(0.000945362 2.39363e-09 0.00019906)
(0.000945358 8.35199e-10 0.00019906)
(0.000945358 -8.28547e-10 0.00019906)
(0.000945362 -2.39401e-09 0.00019906)
(0.000945367 -1.87775e-08 0.000199058)
(-0.000455566 -5.19934e-09 0.000157001)
(-0.00046111 -1.3738e-09 4.41625e-05)
(-0.00046111 1.38931e-09 -4.41579e-05)
(-0.000455563 5.21687e-09 -0.000157001)
(-0.000463726 2.00011e-08 -0.000323275)
(-0.000463726 4.05549e-09 -0.000323274)
(-0.000463725 1.41129e-09 -0.000323274)
(-0.000463725 -1.40996e-09 -0.000323274)
(-0.000463726 -4.05974e-09 -0.000323274)
(-0.000463726 -2.00088e-08 -0.000323275)
(-0.000455563 -5.21921e-09 -0.000157001)
(-0.00046111 -1.38286e-09 -4.41579e-05)
(-0.00046111 1.379e-09 4.41625e-05)
(-0.000455566 5.20424e-09 0.000157001)
(-0.000463725 1.99892e-08 0.000323265)
(-0.000463725 4.04702e-09 0.000323264)
(-0.000463725 1.41106e-09 0.000323264)
(-0.000463725 -1.40144e-09 0.000323264)
(-0.000463725 -4.04897e-09 0.000323264)
(-0.000463725 -1.99917e-08 0.000323265)
(-0.000352859 -1.84005e-09 0.000115792)
(-0.000374992 -7.25138e-10 3.59971e-05)
(-0.000374994 6.94361e-10 -3.59909e-05)
(-0.000352864 1.84797e-09 -0.000115786)
(-0.000313617 3.82363e-09 -0.00021269)
(-0.000313619 9.91884e-10 -0.000212688)
(-0.000313619 3.50346e-10 -0.000212686)
(-0.000313619 -3.59665e-10 -0.000212686)
(-0.000313619 -1.00325e-09 -0.000212688)
(-0.000313617 -3.83353e-09 -0.00021269)
(-0.000352864 -1.85128e-09 -0.000115786)
(-0.000374994 -6.92259e-10 -3.59909e-05)
(-0.000374992 6.88939e-10 3.59971e-05)
(-0.000352859 1.84804e-09 0.000115792)
(-0.000313608 3.82602e-09 0.000212694)
(-0.00031361 9.96131e-10 0.000212692)
(-0.000313611 3.53767e-10 0.00021269)
(-0.000313611 -3.56194e-10 0.00021269)
(-0.00031361 -9.98914e-10 0.000212692)
(-0.000313608 -3.82905e-09 0.000212694)
(-0.000279913 -8.44956e-10 7.41292e-05)
(-0.000310374 -3.63816e-10 2.3604e-05)
(-0.000310376 3.75916e-10 -2.3601e-05)
(-0.000279916 8.51799e-10 -7.4127e-05)
(-0.00021581 9.80332e-10 -0.000131898)
(-0.000215812 1.43352e-10 -0.000131898)
(-0.000215812 3.9582e-11 -0.000131897)
(-0.000215812 -6.52414e-11 -0.000131897)
(-0.000215812 -1.57804e-10 -0.000131898)
(-0.000215811 -9.85067e-10 -0.000131898)
(-0.000279916 -8.5202e-10 -7.4127e-05)
(-0.000310376 -3.69374e-10 -2.3601e-05)
(-0.000310374 3.67342e-10 2.3604e-05)
(-0.000279913 8.47848e-10 7.41292e-05)
(-0.000215805 9.80505e-10 0.000131899)
(-0.000215806 1.42668e-10 0.000131898)
(-0.000215807 4.69726e-11 0.000131898)
(-0.000215807 -5.58335e-11 0.000131898)
(-0.000215806 -1.5599e-10 0.000131898)
(-0.000215805 -9.79657e-10 0.000131899)
(-0.000276972 -2.1119e-11 8.0759e-06)
(-0.000276973 8.02779e-12 -8.07502e-06)
(-0.000276972 4.12135e-12 8.07595e-06)
(-0.000276973 -2.34969e-11 -8.07502e-06)
(-0.000276972 -5.08979e-11 8.07598e-06)
(-0.000276973 3.67476e-11 -8.07504e-06)
(-0.000244311 3.53701e-11 -2.5036e-05)
(-0.000244311 3.10692e-12 -2.50359e-05)
(-0.000244311 -2.67367e-11 -2.50359e-05)
(-0.000244311 -5.34719e-11 -2.5036e-05)
(-0.000276973 -6.52079e-11 -8.07505e-06)
(-0.000276972 2.95004e-11 8.07598e-06)
(-0.000244309 2.19022e-11 2.50367e-05)
(-0.000244309 2.37485e-12 2.50366e-05)
(-0.000244309 -2.24493e-11 2.50366e-05)
(-0.000244309 -3.69804e-11 2.50367e-05)
(-0.000244309 -1.62555e-10 2.50368e-05)
(-0.000276972 -1.47498e-10 8.07603e-06)
(-0.000276973 1.48475e-10 -8.0751e-06)
(-0.000244311 1.64541e-10 -2.50362e-05)
(-0.000177205 -4.70469e-10 -4.3425e-05)
(-0.000177206 -2.49679e-10 -4.34247e-05)
(-0.000177206 -9.80693e-11 -4.34246e-05)
(-0.000177206 7.33603e-11 -4.34246e-05)
(-0.000177206 2.30488e-10 -4.34247e-05)
(-0.000177205 4.56713e-10 -4.3425e-05)
(-0.000244311 -1.7578e-10 -2.50362e-05)
(-0.000276973 -1.5654e-10 -8.0751e-06)
(-0.000276972 1.37922e-10 8.07603e-06)
(-0.000244309 1.58132e-10 2.50368e-05)
(-0.000177202 -4.73978e-10 4.34249e-05)
(-0.000177203 -2.56327e-10 4.34247e-05)
(-0.000177203 -9.2233e-11 4.34246e-05)
(-0.000177203 8.01882e-11 4.34246e-05)
(-0.000177203 2.36642e-10 4.34247e-05)
(-0.000177202 4.61942e-10 4.34249e-05)
(0.000944385 -1.72177e-08 0.000198853)
(0.0013641 6.95396e-09 9.02078e-05)
(0.00141981 1.25623e-09 2.36714e-05)
(0.00141981 -1.25635e-09 -2.3664e-05)
(0.00136411 -6.9641e-09 -9.02012e-05)
(0.000944382 1.72175e-08 -0.00019884)
(0.00127555 -4.34119e-08 -0.00067668)
(0.00127687 -5.0069e-08 -0.000677413)
(0.00127686 -1.02002e-08 -0.000677421)
(0.00127685 -3.54756e-09 -0.000677425)
(0.00127685 3.54459e-09 -0.000677425)
(0.00127686 1.0201e-08 -0.000677421)
(0.00127687 5.00624e-08 -0.000677413)
(0.00127555 4.34066e-08 -0.00067668)
(0.000944382 -1.72177e-08 -0.00019884)
(0.00136411 6.95329e-09 -9.02012e-05)
(0.00141981 1.25236e-09 -2.3664e-05)
(0.00141981 -1.26333e-09 2.36714e-05)
(0.0013641 -6.9648e-09 9.02078e-05)
(0.000944385 1.72178e-08 0.000198853)
(0.00127553 -4.33971e-08 0.000676694)
(0.00127684 -5.00567e-08 0.000677427)
(0.00127684 -1.02034e-08 0.000677435)
(0.00127683 -3.54567e-09 0.00067744)
(0.00127683 3.54559e-09 0.00067744)
(0.00127684 1.02016e-08 0.000677435)
(0.00127684 5.00521e-08 0.000677427)
(0.00127553 4.33938e-08 0.000676694)
(-0.00046325 -1.73527e-08 0.000322937)
(-0.000455097 -4.2224e-09 0.000156833)
(-0.000460629 -1.11095e-09 4.41159e-05)
(-0.000460629 1.10794e-09 -4.41113e-05)
(-0.000455094 4.22171e-09 -0.000156833)
(-0.000463251 1.73529e-08 -0.000322947)
(-0.00023827 1.85891e-08 -0.0008941)
(-0.000238516 2.01694e-08 -0.000895047)
(-0.000238518 2.45797e-09 -0.000895052)
(-0.000238518 8.7387e-10 -0.000895055)
(-0.000238518 -8.75318e-10 -0.000895055)
(-0.000238518 -2.46017e-09 -0.000895052)
(-0.000238516 -2.01807e-08 -0.000895047)
(-0.00023827 -1.85935e-08 -0.0008941)
(-0.000463251 -1.73604e-08 -0.000322947)
(-0.000455094 -4.21774e-09 -0.000156833)
(-0.000460629 -1.10881e-09 -4.41113e-05)
(-0.000460629 1.10723e-09 4.41159e-05)
(-0.000455097 4.21728e-09 0.000156833)
(-0.00046325 1.73468e-08 0.000322937)
(-0.000238305 1.85938e-08 0.000894079)
(-0.000238552 2.01715e-08 0.000895026)
(-0.000238553 2.453e-09 0.000895032)
(-0.000238553 8.77475e-10 0.000895035)
(-0.000238553 -8.73582e-10 0.000895035)
(-0.000238553 -2.45467e-09 0.000895032)
(-0.000238552 -2.01825e-08 0.000895026)
(-0.000238305 -1.86051e-08 0.000894079)
(-0.000313277 -3.18645e-09 0.000212479)
(-0.00035249 -1.37914e-09 0.000115671)
(-0.0003746 -5.27021e-10 3.59596e-05)
(-0.000374601 5.19458e-10 -3.59535e-05)
(-0.000352495 1.37488e-09 -0.000115666)
(-0.000313285 3.1807e-09 -0.000212475)
(-0.000145786 -8.90716e-09 -0.000363999)
(-0.000145943 -1.02876e-08 -0.00036437)
(-0.000145945 -2.0377e-09 -0.000364368)
(-0.000145946 -6.64643e-10 -0.000364367)
(-0.000145946 6.44668e-10 -0.000364367)
(-0.000145945 2.01844e-09 -0.000364368)
(-0.000145943 1.02791e-08 -0.00036437)
(-0.000145786 8.91235e-09 -0.000363999)
(-0.000313285 -3.1876e-09 -0.000212475)
(-0.000352495 -1.37602e-09 -0.000115666)
(-0.000374601 -5.22906e-10 -3.59534e-05)
(-0.0003746 5.27478e-10 3.59596e-05)
(-0.00035249 1.37764e-09 0.000115671)
(-0.000313277 3.1852e-09 0.000212479)
(-0.00014578 -8.90591e-09 0.000363983)
(-0.000145937 -1.02835e-08 0.000364354)
(-0.000145939 -2.03631e-09 0.000364352)
(-0.00014594 -6.55234e-10 0.000364351)
(-0.00014594 6.54067e-10 0.000364351)
(-0.000145939 2.01819e-09 0.000364352)
(-0.000145937 1.02783e-08 0.000364354)
(-0.00014578 8.9081e-09 0.000363983)
(-0.000215579 -8.81523e-10 0.000131761)
(-0.00027962 -6.71016e-10 7.40514e-05)
(-0.00031005 -2.87899e-10 2.35792e-05)
(-0.000310051 2.86919e-10 -2.35762e-05)
(-0.000279624 6.64981e-10 -7.40491e-05)
(-0.000215584 8.82149e-10 -0.000131761)
(-8.74268e-05 -2.99972e-09 -0.000209916)
(-8.75191e-05 -3.83909e-09 -0.000210139)
(-8.75201e-05 -1.26862e-09 -0.00021014)
(-8.75206e-05 -4.33779e-10 -0.00021014)
(-8.75206e-05 4.09792e-10 -0.00021014)
(-8.75201e-05 1.2407e-09 -0.00021014)
(-8.75191e-05 3.83258e-09 -0.000210139)
(-8.74268e-05 3.00615e-09 -0.000209916)
(-0.000215584 -8.84601e-10 -0.000131761)
(-0.000279624 -6.64397e-10 -7.40491e-05)
(-0.000310051 -2.78372e-10 -2.35762e-05)
(-0.00031005 2.91649e-10 2.35793e-05)
(-0.00027962 6.6686e-10 7.40514e-05)
(-0.000215579 8.84416e-10 0.000131761)
(-8.74237e-05 -2.99748e-09 0.000209912)
(-8.75161e-05 -3.8364e-09 0.000210135)
(-8.7517e-05 -1.2666e-09 0.000210136)
(-8.75175e-05 -4.33166e-10 0.000210136)
(-8.75175e-05 4.17833e-10 0.000210136)
(-8.7517e-05 1.25069e-09 0.000210136)
(-8.75161e-05 3.83314e-09 0.000210135)
(-8.74237e-05 3.00364e-09 0.000209912)
(-0.000177016 3.02927e-10 4.33799e-05)
(-0.000244053 -1.47947e-10 2.50106e-05)
(-0.000276682 -1.15899e-10 8.06758e-06)
(-0.000276683 1.17412e-10 -8.06665e-06)
(-0.000244056 1.40942e-10 -2.501e-05)
(-0.000177019 -3.11763e-10 -4.33799e-05)
(-6.73459e-05 -2.59775e-09 -6.33262e-05)
(-6.74169e-05 -3.34717e-09 -6.33924e-05)
(-6.74175e-05 -1.13605e-09 -6.33925e-05)
(-6.74178e-05 -3.92205e-10 -6.33926e-05)
(-6.74178e-05 3.62644e-10 -6.33926e-05)
(-6.74175e-05 1.10775e-09 -6.33925e-05)
(-6.74169e-05 3.33814e-09 -6.33924e-05)
(-6.73459e-05 2.59948e-09 -6.33262e-05)
(-0.000177019 3.07345e-10 -4.33799e-05)
(-0.000244056 -1.38345e-10 -2.501e-05)
(-0.000276683 -1.14192e-10 -8.06665e-06)
(-0.000276682 1.18217e-10 8.06758e-06)
(-0.000244053 1.42152e-10 2.50106e-05)
(-0.000177016 -3.09958e-10 4.33799e-05)
(-6.73444e-05 -2.59337e-09 6.33247e-05)
(-6.74153e-05 -3.35273e-09 6.3391e-05)
(-6.7416e-05 -1.14049e-09 6.33911e-05)
(-6.74163e-05 -3.87268e-10 6.33911e-05)
(-6.74163e-05 3.67862e-10 6.33911e-05)
(-6.7416e-05 1.11952e-09 6.33911e-05)
(-6.74153e-05 3.34557e-09 6.3391e-05)
(-6.73444e-05 2.59922e-09 6.33247e-05)
(0.0014213 1.05263e-10 2.36976e-05)
(0.0014213 -9.02657e-11 -2.36901e-05)
(0.0014213 -8.72922e-11 2.36976e-05)
(0.0014213 1.01787e-10 -2.36901e-05)
(-0.000461108 -1.37445e-10 4.41631e-05)
(-0.000461108 1.48525e-10 -4.41585e-05)
(-0.000461108 1.78185e-10 4.41631e-05)
(-0.000461108 -1.54164e-10 -4.41585e-05)
)
;

boundaryField
{
    top_fluid_surface
    {
        type            fixedValue;
        value           uniform (1 0 0);
    }
    bottom_fluid_surface
    {
        type            noSlip;
    }
    lateral_surface_1
    {
        type            noSlip;
    }
    lateral_surface_2
    {
        type            noSlip;
    }
    lateral_surface_3
    {
        type            noSlip;
    }
    lateral_surface_4
    {
        type            noSlip;
    }
}


// ************************************************************************* //
