/*--------------------------------*- C++ -*----------------------------------*\
| =========                 |                                                 |
| \\      /  F ield         | OpenFOAM: The Open Source CFD Toolbox           |
|  \\    /   O peration     | Version:  v1612+                                |
|   \\  /    A nd           | Web:      www.OpenFOAM.com                      |
|    \\/     M anipulation  |                                                 |
\*---------------------------------------------------------------------------*/
FoamFile
{
    version     2.0;
    format      ascii;
    class       surfaceScalarField;
    location    "4.8";
    object      alphaPhi;
}
// * * * * * * * * * * * * * * * * * * * * * * * * * * * * * * * * * * * * * //

dimensions      [0 3 -1 0 0 0 0];

internalField   nonuniform List<scalar> 
2916
(
-5.5697e-06
0.0575657
-1.1406e-07
-4.86462e-06
0.0575664
-1.13925e-07
-8.71398e-07
0.0575664
-1.13969e-07
-4.78695e-08
0.0575667
-1.13975e-07
6.8166e-07
0.0575664
-1.13927e-07
0.0575657
-1.14107e-07
-4.50239e-06
0.115438
-4.21563e-07
-4.64043e-06
0.115441
-4.2147e-07
-5.41751e-07
0.115441
-4.21543e-07
7.90853e-09
0.115441
-4.21521e-07
-3.0802e-07
0.115441
-4.21431e-07
0.115439
-4.2154e-07
-1.74899e-06
0.155872
-3.49648e-07
-3.1527e-06
0.155881
-3.50407e-07
-2.73915e-07
0.155879
-3.5046e-07
-1.01916e-06
0.155879
-3.50431e-07
-3.57079e-06
0.155881
-3.50368e-07
0.155875
-3.49659e-07
2.28477e-06
0.0892962
0.0491127
-3.68406e-07
0.0893158
0.049112
-1.27713e-06
0.0893115
0.0491119
-3.71133e-06
0.0893109
0.049113
-6.0191e-06
0.0893149
0.0491118
0.0893021
0.0491096
5.96641e-06
-0.196987
0.178601
-1.7058e-06
-0.196958
0.178607
-4.41474e-06
-0.196963
0.178603
-6.26907e-06
-0.196962
0.178601
-1.10478e-05
-0.196955
0.178602
-0.196979
0.178597
1.23921e-05
-0.808706
0.387902
5.35895e-06
-0.80868
0.387926
3.60297e-08
-0.808672
0.387914
-5.74403e-06
-0.808669
0.387914
-1.54424e-05
-0.808664
0.38792
-0.808701
0.387907
-1.86624e-06
-1.34833
0.538832
1.80837e-05
-1.34834
0.538846
1.08665e-05
-1.3483
0.538843
-9.59377e-07
-1.3483
0.538844
-9.8388e-06
-1.34831
0.538851
-1.34835
0.538841
-2.75965e-05
-1.70576
0.356745
1.86606e-05
-1.70585
0.356759
1.4569e-05
-1.70577
0.356767
1.66003e-06
-1.70576
0.356771
3.93474e-06
-1.7058
0.356779
-1.7058
0.356747
3.69446e-06
-1.67976
-0.0268602
1.87876e-05
-1.67994
-0.026798
3.79536e-06
-1.67982
-0.0268003
-4.35203e-06
-1.67983
-0.026802
5.08366e-06
-1.67988
-0.0267864
-1.6798
-0.0268535
0.000206481
-1.26433
-0.416366
2.31275e-05
-1.26449
-0.415992
-3.53297e-05
-1.26439
-0.416108
-2.61319e-05
-1.26442
-0.416149
-0.000106705
-1.26449
-0.416045
-1.26434
-0.416298
0.000272249
-0.566173
-0.698762
2.96637e-06
-0.56621
-0.698342
-5.79581e-05
-0.566169
-0.698489
-4.37271e-05
-0.566203
-0.698556
-0.000178949
-0.566241
-0.698442
-0.56615
-0.698702
-5.59438e-05
-0.565162
-4.28964e-05
-0.565274
-1.93454e-05
-0.565243
-3.05382e-05
-0.565241
-6.11886e-05
-0.56526
-0.565258
-4.81636e-12
5.61298e-08
-2.59364e-07
-1.79727e-12
5.6127e-08
-2.59234e-07
5.50334e-13
5.61275e-08
-2.59278e-07
2.74162e-12
5.61276e-08
-2.59286e-07
5.40262e-12
5.61271e-08
-2.59238e-07
5.61309e-08
-2.59414e-07
-7.02311e-12
1.14813e-07
-5.69417e-07
-3.06068e-12
1.14806e-07
-5.69332e-07
6.53123e-13
1.14808e-07
-5.69406e-07
4.1199e-12
1.14807e-07
-5.69385e-07
7.74438e-12
1.14805e-07
-5.69294e-07
1.14814e-07
-5.69396e-07
-4.76564e-12
1.63558e-07
-4.8971e-07
-3.16538e-12
1.63656e-07
-4.90585e-07
-1.43453e-12
1.63654e-07
-4.90633e-07
1.39783e-12
1.63663e-07
-4.90615e-07
4.00053e-12
1.63653e-07
-4.90548e-07
1.63536e-07
-4.89702e-07
1.70682e-07
0.0182956
-0.00066815
-1.05214e-07
0.0183021
-0.000667634
-1.22002e-07
0.0182987
-0.000667816
-8.8196e-08
0.0182985
-0.000667892
-1.89502e-07
0.0183003
-0.000667694
0.018296
-0.000667795
9.36389e-06
-0.0178899
-0.00433461
-1.22742e-06
-0.0178811
-0.00433676
-2.23721e-06
-0.0178837
-0.00433595
-1.10276e-06
-0.017882
-0.00433453
-6.66851e-06
-0.0178792
-0.00433505
-0.0178855
-0.00433468
8.31464e-05
-0.575755
0.0121543
6.14093e-06
-0.575733
0.0121799
-6.4413e-06
-0.575719
0.0121645
-4.39447e-06
-0.575708
0.0121602
-5.30849e-05
-0.575696
0.0121689
-0.575744
0.012153
8.72528e-05
-1.26678
0.399867
1.01666e-05
-1.2668
0.400082
2.65737e-06
-1.26677
0.399979
-1.10626e-06
-1.26676
0.399976
-6.82855e-05
-1.26675
0.400048
-1.26681
0.399913
9.36124e-05
-1.2291
0.318178
2.58142e-07
-1.22928
0.318537
-8.12363e-06
-1.22918
0.318387
1.14669e-05
-1.22917
0.318364
-4.54199e-05
-1.22921
0.318494
-1.22916
0.31826
0.000374734
-1.06406
-0.19309
1.30874e-05
-1.06415
-0.192374
-3.06095e-05
-1.06408
-0.19266
2.72922e-05
-1.06412
-0.192722
-0.000158451
-1.06414
-0.192477
-1.06405
-0.192938
0.000493846
-0.721705
-0.693646
5.233e-06
-0.721212
-0.693167
-7.30657e-05
-0.721378
-0.693341
3.01503e-07
-0.721489
-0.693419
-0.000197066
-0.721381
-0.69325
-0.721495
-0.693595
-6.01753e-05
-0.382841
-0.857511
-6.55461e-05
-0.382339
-0.857349
-5.97794e-05
-0.382506
-0.857435
-4.11098e-05
-0.382614
-0.857459
1.05242e-05
-0.382528
-0.857366
-0.382617
-0.857632
-0.000373365
-0.810258
-9.50138e-05
-0.810261
-4.20406e-05
-0.810301
-3.74611e-05
-0.810323
0.000138801
-0.810294
-0.810423
-1.69554e-12
-2.4632e-08
-5.39476e-08
1.59226e-12
-2.46234e-08
-5.39167e-08
2.6241e-12
-2.46232e-08
-5.39267e-08
4.16611e-12
-2.46214e-08
-5.39308e-08
6.67409e-12
-2.46213e-08
-5.39172e-08
-2.46795e-08
-5.39606e-08
-2.32733e-11
1.8899e-06
-2.00057e-07
-2.74054e-12
1.88654e-06
-2.00199e-07
3.727e-12
1.88763e-06
-2.00144e-07
1.12574e-11
1.8884e-06
-2.00017e-07
3.13188e-11
1.8872e-06
-2.0013e-07
1.88784e-06
-2.00136e-07
-2.24908e-10
1.53935e-06
-2.2911e-07
-1.23623e-10
1.53679e-06
-2.28658e-07
-6.41531e-12
1.53723e-06
-2.28868e-07
1.84851e-10
1.53742e-06
-2.29103e-07
4.27327e-10
1.53684e-06
-2.28881e-07
1.53813e-06
-2.28918e-07
1.11059e-07
-0.00071569
2.02426e-05
1.74135e-08
-0.000714878
2.01642e-05
2.44522e-09
-0.000715171
2.01917e-05
1.51998e-08
-0.000715296
2.02115e-05
-2.54204e-08
-0.000715012
2.01835e-05
-0.000715205
2.0212e-05
3.08832e-06
-0.00661399
0.000428621
-2.26514e-07
-0.00660771
0.00042769
-7.11875e-07
-0.0066101
0.000427689
-1.80982e-07
-0.00661124
0.000429086
-1.52832e-06
-0.0066092
0.000428808
-0.00661152
0.000428436
3.39698e-05
-0.218471
0.00188795
-2.67154e-06
-0.218372
0.00189629
-5.74582e-06
-0.21841
0.00189211
-5.56526e-07
-0.218393
0.00189165
-2.2158e-05
-0.218364
0.00189487
-0.2184
0.00188918
0.000194641
-0.827112
-0.0546722
3.41792e-06
-0.827222
-0.0542119
-1.22535e-05
-0.827166
-0.0544181
2.14647e-06
-0.827163
-0.0544494
-0.000117316
-0.827199
-0.0542806
-0.827111
-0.0545566
0.000253617
-0.703214
-0.111871
1.57128e-06
-0.70332
-0.111524
-2.54705e-05
-0.703267
-0.111671
2.09301e-05
-0.703295
-0.111729
-0.000137425
-0.70333
-0.111587
-0.703243
-0.111796
-7.22246e-05
-0.393049
-0.212109
-1.43418e-05
-0.392772
-0.212255
1.14767e-05
-0.392905
-0.212175
6.57127e-06
-0.392935
-0.2122
1.50108e-05
-0.392847
-0.21223
-0.393042
-0.212151
-0.000719759
-0.0683643
-0.000833232
-3.6885e-05
-0.0678294
-0.00083716
8.09385e-05
-0.0681028
-0.000835805
-3.164e-05
-0.0680545
-0.000834734
0.000283073
-0.0678636
-0.000835761
-0.0683622
-0.000837139
-0.000577403
-0.074823
-0.000878997
-3.80523e-05
-0.0744607
-0.000882131
5.56997e-05
-0.0746518
-0.00088103
-2.13204e-05
-0.0745962
-0.000880737
0.000240048
-0.0744929
-0.000882114
-0.0748248
-0.000880452
-8.65838e-05
-0.00922314
-2.97113e-05
-0.00922656
-4.33316e-05
-0.00922526
1.32593e-06
-0.00923239
0.000101813
-0.00926935
-0.0091887
-3.08248e-12
-4.2321e-08
-4.56207e-09
-4.06427e-13
-4.24446e-08
-4.56325e-09
2.20666e-13
-4.24002e-08
-4.56373e-09
9.97107e-13
-4.23685e-08
-4.56357e-09
3.60828e-12
-4.24184e-08
-4.56129e-09
-4.23642e-08
-4.56348e-09
-3.12817e-11
1.01449e-07
-6.33992e-08
-1.70874e-12
1.00984e-07
-6.34637e-08
3.63027e-12
1.0115e-07
-6.34612e-08
3.08947e-12
1.01288e-07
-6.34606e-08
2.06284e-11
1.01108e-07
-6.34487e-08
1.01269e-07
-6.34144e-08
1.63374e-11
-2.13588e-07
1.98024e-08
5.42006e-12
-2.12933e-07
1.96544e-08
-2.21705e-12
-2.13193e-07
1.9702e-08
-3.6043e-13
-2.13468e-07
1.9725e-08
-3.77404e-12
-2.13198e-07
1.96768e-08
-2.1325e-07
1.97539e-08
1.99241e-08
9.92359e-06
4.97155e-06
1.95231e-09
9.91588e-06
4.95018e-06
-1.82762e-09
9.9191e-06
4.9579e-06
1.3696e-09
9.91704e-06
4.96799e-06
-6.59919e-09
9.91371e-06
4.95984e-06
9.91432e-06
4.9688e-06
4.83677e-07
3.78403e-06
0.000239248
-2.14522e-07
6.81597e-06
0.00023695
-3.5964e-07
5.22586e-06
0.000237819
-1.0375e-07
5.19202e-06
0.000238682
-2.72039e-07
6.40536e-06
0.000237794
4.53429e-06
0.000238699
6.54368e-07
-0.149383
0.00883008
-5.86719e-06
-0.149245
0.00881824
-5.46494e-06
-0.149286
0.00882187
6.6415e-07
-0.149382
0.00883318
-1.31727e-06
-0.149325
0.0088281
-0.149343
0.0088299
-8.74941e-05
-0.200996
-6.43837e-06
-1.6336e-05
-0.200949
-6.43925e-06
9.26864e-06
-0.200935
-6.43823e-06
6.30789e-06
-0.201044
-6.437e-06
3.77764e-05
-0.201039
-6.43957e-06
-0.200997
-6.43436e-06
-0.000212656
-0.124154
-3.05553e-05
-1.32357e-05
-0.12412
-3.05992e-05
2.35964e-05
-0.12411
-3.05919e-05
-1.24151e-06
-0.124184
-3.05702e-05
9.80243e-05
-0.12418
-3.05877e-05
-0.124172
-3.05831e-05
-0.000163481
0.000361281
-0.000341502
-1.11052e-05
0.000364513
-0.000341597
1.638e-05
0.000363271
-0.000341681
-1.1225e-05
0.000362709
-0.000341416
6.44288e-05
0.000363286
-0.000341493
0.000364898
-0.000341545
-6.16018e-08
2.2916e-05
-0.00033048
-3.18033e-09
2.28283e-05
-0.000331209
8.49134e-10
2.28742e-05
-0.000331001
-1.03636e-08
2.28801e-05
-0.000330702
2.08424e-08
2.28563e-05
-0.000330987
2.28691e-05
-0.00033081
1.55267e-08
2.29643e-05
-0.000714376
2.03828e-09
2.28899e-05
-0.000717525
9.17597e-10
2.29276e-05
-0.000716556
9.2947e-09
2.29415e-05
-0.000716011
5.83657e-08
2.28896e-05
-0.000717643
2.29731e-05
-0.000715805
3.87501e-07
-0.0087109
4.82204e-08
-0.00871364
1.25488e-09
-0.00871255
9.73339e-08
-0.00871994
-1.56417e-07
-0.00875657
-0.0086762
2.95907e-10
-1.1108e-06
1.29637e-07
1.3721e-09
-1.17356e-06
1.34325e-07
1.07396e-09
-9.99924e-07
1.17832e-07
1.5463e-09
-1.12856e-06
1.2762e-07
5.14387e-09
-1.39994e-06
1.51657e-07
-6.73704e-07
8.49863e-08
1.0147e-08
-1.44402e-05
1.1368e-05
1.78337e-07
-1.50711e-05
1.16692e-05
8.3904e-08
-1.31297e-05
1.0435e-05
1.69492e-07
-1.41865e-05
1.10008e-05
7.46435e-07
-1.72107e-05
1.27932e-05
-8.86773e-06
7.68031e-06
6.16593e-07
-0.00022421
0.000168492
6.124e-06
-0.000234669
0.0001714
4.24184e-06
-0.000206324
0.000156682
6.04673e-06
-0.000220596
0.000163552
1.77941e-05
-0.000261983
0.000183251
-0.000145259
0.000124629
1.37848e-05
-0.00239599
0.0015086
9.10168e-05
-0.00249427
0.00150698
6.70823e-05
-0.00225396
0.00144773
8.10742e-05
-0.00237655
0.00147987
0.000240589
-0.00276329
0.00155843
-0.00171619
0.00129688
0.000210792
-0.0863287
0.00343616
0.000484582
-0.0870771
0.0034381
0.00056797
-0.0832167
0.0036018
0.000503074
-0.0884772
0.00371415
0.000552723
-0.10192
0.00362976
-0.0744847
0.00406024
0.00126588
-0.162922
-0.00210468
0.00201481
-0.167085
-0.00206456
0.00430062
-0.16466
-0.00198394
0.00284739
-0.169763
-0.00178852
-0.00254249
-0.190404
-0.00156337
-0.161314
-0.00185507
0.00271404
-0.207833
-0.0108151
0.00424049
-0.212235
-0.0108429
0.00972183
-0.213226
-0.0113357
0.00681891
-0.211973
-0.00941684
-0.00865048
-0.222927
-0.00707643
-0.21318
-0.0117452
0.00239495
-0.227467
-0.0370874
0.00356848
-0.231598
-0.0370779
0.00939648
-0.235581
-0.0389465
0.0075076
-0.235058
-0.0298551
-0.0117273
-0.240637
-0.0166597
-0.239621
-0.0400129
-0.000455066
-0.126474
-0.153334
-0.000543411
-0.128481
-0.157105
0.0025428
-0.131551
-0.16126
-0.00162093
-0.129143
-0.156554
-0.00719314
-0.135601
-0.154054
-0.134827
-0.165822
-0.000353194
0.021242
-0.193935
0.000621704
0.0208941
-0.199647
0.0100418
0.0177056
-0.207134
-0.00118862
0.0229318
-0.186919
-0.0189654
0.0236205
-0.200769
0.0126795
-0.213563
0.00056121
0.00631301
-0.0239967
0.00119663
0.00650504
-0.0255749
0.00461047
0.00635744
-0.0355383
0.00114317
0.00688101
-0.0124671
-0.00724071
0.00648922
-0.00206975
0.0129594
-0.0512152
7.0737e-05
0.00472977
0.000211819
0.00468366
0.000450046
0.00424474
1.53027e-05
0.00523726
-0.00108346
0.00519927
0.00312889
4.59131e-12
-1.45577e-08
7.2538e-08
2.2327e-10
-1.88534e-08
7.6321e-08
4.29985e-11
-1.2183e-08
6.68372e-08
2.98557e-10
-2.28311e-08
7.59544e-08
1.803e-09
-3.61412e-08
9.01344e-08
-2.85772e-09
4.62835e-08
-2.64403e-08
6.20726e-06
4.45889e-06
4.54444e-08
6.12944e-06
4.68912e-06
-4.172e-08
5.64937e-06
4.1953e-06
5.79757e-08
5.33278e-06
4.80128e-06
5.202e-07
5.90593e-06
5.45034e-06
4.7067e-06
2.96746e-06
-1.64237e-06
-0.00128206
0.000211137
2.90293e-07
-0.00134832
0.000220743
-1.03869e-06
-0.00112719
0.000185393
3.70638e-07
-0.00127228
0.000209812
7.92047e-06
-0.00155568
0.000248014
-0.000731226
0.000123303
-2.74568e-05
-0.0039449
0.000690501
-4.22751e-05
-0.003997
0.000687746
-4.33004e-05
-0.00395975
0.000709356
-5.82486e-05
-0.00401162
0.000696355
-7.09494e-05
-0.00411816
0.000658544
-0.00384697
0.000769694
-2.93935e-05
5.94146e-05
-5.60784e-07
-7.06897e-05
6.19576e-05
2.88085e-07
-0.00011809
7.00262e-05
3.93282e-07
-0.000110441
8.05065e-05
1.97447e-06
-5.30964e-05
9.93171e-05
2.96175e-06
7.97589e-05
-0.000411474
1.17571e-06
-0.00204644
-4.97111e-07
-3.69454e-07
-0.00200111
-5.5238e-07
-3.60758e-06
-0.00191033
-8.90881e-07
-7.12089e-07
-0.00171094
-4.90902e-07
3.57316e-06
-0.00146868
-2.10634e-07
-0.0017718
-5.3423e-07
2.81719e-05
-0.0128424
-4.70592e-05
2.09875e-05
-0.0127875
-4.90674e-05
3.09305e-05
-0.0132059
-4.98293e-05
4.98879e-05
-0.0111049
-4.15637e-05
-1.8169e-05
-0.00845229
-2.42656e-05
-0.0134855
-4.93048e-05
-1.39136e-05
-0.0555971
-0.0012978
-3.54424e-05
-0.055602
-0.00130653
0.000106936
-0.0573845
-0.00133243
5.365e-05
-0.0453561
-0.000927736
-0.00031534
-0.0252766
-0.000319772
-0.0566763
-0.00133384
-0.000168611
-0.2126
-0.0487599
-4.68363e-05
-0.21723
-0.0502453
0.00130152
-0.222498
-0.0521426
0.000190561
-0.205529
-0.0447185
-0.00377973
-0.176673
-0.0304661
-0.226298
-0.0541927
-0.0011707
-0.196216
-0.252714
-0.00359323
-0.200172
-0.257496
-0.00391533
-0.20892
-0.26327
-0.00283466
-0.184809
-0.258768
-0.00134253
-0.180906
-0.255214
-0.221256
-0.278736
0.000678933
-0.00214618
-0.256811
0.00013577
-0.0020064
-0.267604
0.0011575
-0.00177196
-0.288075
0.00162388
-0.00175777
-0.22914
0.00103967
-0.00196111
-0.159599
-0.0232032
-0.309102
9.10384e-05
0.000777788
0.000203041
0.00065237
0.000316384
0.000238084
0.000382034
0.000975851
-0.00033571
0.00129822
-0.0228481
-8.39875e-12
4.35559e-08
2.78226e-09
-1.97916e-12
4.62187e-08
2.89896e-09
-9.28815e-12
3.98906e-08
2.65185e-09
5.2804e-12
4.69115e-08
2.8936e-09
9.27838e-11
5.56262e-08
3.34009e-09
2.60936e-08
2.08128e-09
-2.85131e-09
3.4919e-06
7.30721e-08
-9.75198e-10
3.68439e-06
7.52085e-08
-6.49744e-09
3.28252e-06
7.30536e-08
3.97299e-10
3.8152e-06
8.03346e-08
2.95057e-08
4.29447e-06
8.47647e-08
2.26472e-06
6.42148e-08
-4.13895e-07
-6.42214e-05
-5.19194e-06
-2.82696e-07
-7.01712e-05
-5.68743e-06
-6.49196e-07
-6.3392e-05
-2.82578e-06
-2.09462e-07
-7.71805e-05
-3.69169e-06
1.36026e-06
-9.1504e-05
-7.41969e-06
-4.95053e-05
1.60376e-06
-5.68248e-06
-1.03515e-05
1.37358e-05
-8.24548e-06
-1.13452e-05
1.32046e-05
-8.5277e-06
-1.09256e-05
1.47158e-05
-1.02159e-05
-1.24327e-05
1.39522e-05
-9.91854e-06
-1.48565e-05
1.31193e-05
-2.65172e-05
1.2795e-05
-7.35241e-07
-1.75914e-07
-1.17367e-05
-1.12223e-06
-1.88074e-07
-1.15646e-05
-1.08448e-06
-1.90796e-07
-1.25203e-05
-1.55476e-06
-1.74784e-07
-1.19193e-05
-2.53598e-06
-1.83899e-07
-1.2001e-05
-3.49563e-07
-1.32777e-05
-4.40083e-09
-7.65574e-07
-5.67008e-07
-6.12292e-09
-8.40675e-07
-4.90479e-07
-1.20414e-08
-8.27754e-07
-7.28332e-07
-1.34225e-08
-7.11459e-07
-4.93522e-07
8.41163e-09
-4.89537e-07
-4.81839e-07
-8.49604e-07
-6.33043e-07
-1.64576e-08
-4.7431e-05
-3.56539e-07
-6.20584e-08
-4.94898e-05
-3.55689e-07
-1.84642e-07
-5.01178e-05
-3.92375e-07
-8.09834e-08
-4.20028e-05
-3.49193e-07
1.34154e-07
-2.46479e-05
-2.96629e-07
-4.95656e-05
-4.24617e-07
-1.82441e-07
-0.00134503
-6.00217e-09
-1.7819e-06
-0.00135441
-5.64521e-09
-4.88866e-06
-0.00137943
-6.45608e-09
-1.71712e-06
-0.00097289
-4.94767e-09
3.31514e-06
-0.000349452
-2.85932e-09
-0.00138009
-8.51826e-09
1.60391e-06
-0.0495941
-0.000496055
1.27198e-05
-0.0510445
-0.000548754
0.000101794
-0.0530298
-0.000564955
9.70953e-05
-0.045122
-0.000547798
-0.000253375
-0.0297962
-0.000643184
-0.0551553
-0.000653244
-0.000842846
-0.229712
-0.0645093
-0.00261194
-0.23775
-0.0665406
-0.00603009
-0.244467
-0.0693989
-0.00170976
-0.233795
-0.0607557
0.00078962
-0.195289
-0.0383648
-0.254781
-0.0723402
-0.00207783
-0.0866019
-0.367988
-0.00968084
-0.0923288
-0.368415
-0.0294307
-0.11128
-0.368273
-0.0216995
-0.0616197
-0.381726
0.0364684
-0.00076106
-0.388016
-0.122909
-0.375789
-5.92607e-05
-0.187619
-0.00375957
-0.198265
-0.0197118
-0.222438
0.00262571
-0.165308
0.000276092
0.000175311
-0.244957
-3.09259e-13
7.4644e-11
5.36403e-11
-2.92754e-13
8.41031e-11
5.78876e-11
-3.80424e-13
6.91518e-11
5.6622e-11
-2.66843e-13
9.46435e-11
6.88235e-11
9.81918e-13
1.29997e-10
7.92887e-11
3.97903e-11
4.0835e-11
-4.59771e-11
4.45874e-08
4.22923e-09
-4.2985e-11
4.58101e-08
4.39955e-09
-9.91592e-11
4.50904e-08
5.05355e-09
-4.92082e-11
4.95263e-08
5.72051e-09
2.41921e-10
4.95261e-08
5.49986e-09
4.17626e-08
4.87008e-09
-8.94227e-09
3.10855e-06
9.89857e-08
-9.33543e-09
3.20569e-06
1.03088e-07
-2.2817e-08
3.07493e-06
9.23812e-08
-7.41702e-09
3.40075e-06
1.11443e-07
3.61543e-08
3.55604e-06
1.24265e-07
2.66172e-06
8.3373e-08
-1.75325e-07
1.50705e-05
6.54467e-07
-2.691e-07
1.46097e-05
6.08733e-07
-3.02758e-07
1.56998e-05
5.63459e-07
-2.41533e-07
1.53482e-05
6.7658e-07
-8.82088e-08
1.46724e-05
6.18392e-07
1.30467e-05
6.02181e-07
-7.61562e-09
1.53009e-07
-2.67859e-07
-1.83074e-08
1.43309e-07
-2.51112e-07
-7.24938e-09
1.64558e-07
-3.09401e-07
-2.17586e-08
1.32801e-07
-2.84903e-07
-8.23143e-08
1.23414e-07
-2.74047e-07
5.95262e-07
-5.87248e-07
2.36854e-09
3.50159e-07
-3.99072e-08
-2.3384e-10
3.48753e-07
-4.14205e-08
6.52482e-09
3.87714e-07
-3.52055e-08
-4.67177e-09
3.35675e-07
-4.46138e-08
-2.14754e-08
2.73057e-07
-3.84422e-08
4.07678e-07
-4.68019e-08
6.79351e-11
6.84477e-09
-1.34585e-08
6.19232e-11
6.49106e-09
-1.3546e-08
1.56388e-10
7.44865e-09
-1.3919e-08
-1.00469e-11
6.09273e-09
-1.26872e-08
-2.34752e-10
5.89679e-09
-1.0198e-08
1.00568e-08
-1.24728e-08
-1.89037e-12
9.66096e-10
-3.3939e-10
-4.48993e-12
9.67027e-10
-3.24269e-10
-7.98886e-12
1.11687e-09
-3.47757e-10
-9.9133e-12
1.22403e-09
-3.0711e-10
2.34912e-12
3.06225e-09
-2.5646e-10
1.70773e-09
-4.02712e-10
-5.89771e-08
-0.000495996
2.10271e-10
-1.03614e-07
-0.00054871
9.42808e-11
-2.14073e-07
-0.000564845
1.15873e-10
-1.68128e-07
-0.000547845
1.24396e-10
1.49977e-07
-0.000643499
-5.76765e-11
-0.000653093
1.19382e-10
-5.23109e-05
-0.0633859
-0.0015502
-0.000114143
-0.0654381
-0.00157098
-0.000126756
-0.068343
-0.00159125
-2.27012e-06
-0.0598777
-0.00153315
-4.9814e-06
-0.0379067
-0.00109079
-0.0713445
-0.00163571
-0.0018987
-0.269971
-0.110436
-0.00798057
-0.272222
-0.111649
-0.0198395
-0.274873
-0.11245
-0.00996633
-0.290362
-0.113493
0.0123651
-0.271337
-0.10289
-0.288019
-0.114769
-0.00514699
-0.381761
-0.0246402
-0.380489
-0.0733189
-0.378209
-0.0859388
-0.372625
0.0913846
-0.377505
-0.370477
5.51162e-13
-2.2696e-12
-2.62832e-08
1.27799e-13
-2.24799e-12
-2.62389e-08
-8.70122e-14
-2.25003e-12
-2.62522e-08
-2.82496e-13
-2.25328e-12
-2.62513e-08
-7.00423e-13
-2.25862e-12
-2.62243e-08
-2.27044e-12
-2.62918e-08
1.56304e-15
1.07266e-11
-2.13626e-11
1.94214e-16
1.07256e-11
-2.11595e-11
-2.90766e-16
1.06905e-11
-2.12148e-11
-7.08156e-16
1.0655e-11
-2.11832e-11
-2.13084e-15
1.06544e-11
-2.11048e-11
1.06552e-11
-2.13403e-11
4.38175e-18
-5.53071e-15
1.90514e-18
-5.54411e-15
-7.61279e-19
-5.51785e-15
-3.38972e-18
-5.5281e-15
-6.75805e-18
-5.54037e-15
-5.52283e-15
-8.65005e-12
-1.07288e-11
9.96284e-09
-3.44798e-12
-1.08974e-11
9.89975e-09
-5.54374e-12
-1.08655e-11
9.92104e-09
-7.6614e-12
-1.09417e-11
9.92582e-09
-3.48867e-12
-1.10318e-11
9.89854e-09
-1.08234e-11
9.95517e-09
5.0951e-16
1.15898e-11
-9.40646e-11
-2.17451e-15
1.15537e-11
-9.37547e-11
-7.30935e-15
1.15516e-11
-9.38201e-11
-1.07417e-14
1.15027e-11
-9.37989e-11
-1.7262e-14
1.1483e-11
-9.36822e-11
1.15346e-11
-9.40745e-11
6.21361e-18
-1.73678e-14
7.13669e-19
-1.74239e-14
-9.95079e-18
-1.73993e-14
-1.86856e-17
-1.73858e-14
-2.69533e-17
-1.74112e-14
-1.73788e-14
-6.80527e-13
1.5202e-09
1.6343e-08
-6.02049e-13
1.51152e-09
1.61771e-08
-7.38886e-13
1.5147e-09
1.62366e-08
-6.70721e-13
1.5172e-09
1.62568e-08
-4.15042e-13
1.51419e-09
1.61936e-08
1.51806e-09
1.63013e-08
-6.41092e-14
1.23097e-10
-2.40117e-09
-1.72874e-14
1.22914e-10
-2.39716e-09
-2.08866e-14
1.22932e-10
-2.39822e-09
-2.17556e-14
1.23053e-10
-2.40038e-09
1.11789e-14
1.2297e-10
-2.3987e-09
1.23166e-10
-2.40053e-09
-4.87736e-17
-3.31656e-11
-2.79002e-17
-3.30426e-11
-6.86063e-17
-3.30663e-11
-6.55798e-17
-3.31008e-11
-6.33474e-17
-3.30385e-11
-3.31588e-11
5.53973e-10
8.76854e-08
1.43273e-06
9.64044e-12
8.77902e-08
1.4157e-06
-1.49721e-10
8.77134e-08
1.42219e-06
-1.6053e-11
8.79359e-08
1.43067e-06
-2.49265e-10
8.79701e-08
1.42424e-06
8.79397e-08
1.43213e-06
-8.44331e-12
3.45929e-09
1.93086e-08
-5.32976e-13
3.48829e-09
1.95064e-08
-1.70112e-12
3.47454e-09
1.94212e-08
-2.42695e-12
3.47812e-09
1.94239e-08
2.72814e-12
3.4877e-09
1.94861e-08
3.47491e-09
1.93977e-08
-1.31647e-13
1.01308e-09
-1.7218e-14
1.00843e-09
-3.42175e-14
1.01026e-09
-3.5655e-14
1.01137e-09
3.72752e-14
1.00956e-09
1.01166e-09
4.30548e-08
3.08591e-05
-6.73862e-05
5.94266e-09
3.03169e-05
-6.3225e-05
-8.35748e-09
3.05233e-05
-6.47834e-05
2.01114e-10
3.07296e-05
-6.63466e-05
-1.38762e-08
3.05177e-05
-6.48088e-05
3.07533e-05
-6.67599e-05
3.73419e-09
1.11791e-06
2.50457e-05
3.1692e-10
1.11525e-06
2.49871e-05
-5.72524e-10
1.1161e-06
2.50086e-05
2.14938e-10
1.11744e-06
2.50333e-05
-1.91451e-09
1.11634e-06
2.50082e-05
1.11741e-06
2.50267e-05
8.57026e-11
8.00708e-07
1.29469e-11
7.99304e-07
-8.25344e-12
7.99733e-07
1.02437e-11
8.00527e-07
-5.38999e-11
7.99963e-07
8.00408e-07
-6.92879e-07
9.77342e-05
-4.45919e-06
-3.03723e-07
9.76941e-05
-4.45263e-06
-2.51218e-07
9.7699e-05
-4.45536e-06
-3.4899e-07
9.77732e-05
-4.45773e-06
1.41532e-07
9.77534e-05
-4.45566e-06
9.77553e-05
-4.45905e-06
-6.44904e-08
2.82445e-05
5.24551e-05
-2.22029e-08
2.823e-05
5.25404e-05
-1.64309e-08
2.82316e-05
5.2504e-05
-4.16238e-08
2.82531e-05
5.24949e-05
-1.76124e-08
2.82465e-05
5.25149e-05
2.82491e-05
5.24214e-05
-2.37239e-09
9.85129e-06
-9.17931e-10
9.85261e-06
-7.33256e-10
9.85068e-06
-1.82353e-09
9.85585e-06
-1.5364e-09
9.85606e-06
9.84973e-06
9.73571e-11
-2.86094e-06
-9.7117e-06
-4.23693e-10
-2.86108e-06
-9.7053e-06
-3.24798e-10
-2.85983e-06
-9.70884e-06
-8.0189e-10
-2.85997e-06
-9.70922e-06
-1.12142e-09
-2.86153e-06
-9.70836e-06
-2.85688e-06
-9.71259e-06
7.97746e-09
1.62869e-05
-5.8302e-06
-1.04403e-09
1.6323e-05
-5.8014e-06
-3.03384e-09
1.63053e-05
-5.81219e-06
-3.22441e-09
1.63028e-05
-5.82686e-06
-6.21355e-09
1.63185e-05
-5.82122e-06
1.62866e-05
-5.84477e-06
-2.25629e-10
5.90063e-06
-1.87024e-10
5.91806e-06
-8.05799e-11
5.9097e-06
-3.60134e-10
5.90912e-06
4.00947e-10
5.91194e-06
5.89524e-06
4.41422e-10
-1.44469e-05
-2.74956e-05
-6.66213e-10
-1.44946e-05
-2.74837e-05
-9.74136e-10
-1.4478e-05
-2.74975e-05
-1.55736e-09
-1.44717e-05
-2.74821e-05
-2.33449e-09
-1.44861e-05
-2.74842e-05
-1.44739e-05
-2.74992e-05
1.99857e-08
-1.06019e-05
-6.93388e-06
9.00752e-11
-1.05804e-05
-6.95336e-06
-2.64151e-09
-1.0594e-05
-6.94201e-06
-5.31564e-10
-1.05988e-05
-6.9451e-06
-1.13428e-08
-1.05879e-05
-6.94698e-06
-1.06146e-05
-6.92357e-06
3.46312e-10
4.54217e-06
1.09912e-09
4.56173e-06
1.84775e-09
4.55249e-06
1.82666e-09
4.55145e-06
3.66775e-09
4.55294e-06
4.53607e-06
-7.05884e-11
-2.86108e-05
-0.000342554
-1.88724e-09
-2.87064e-05
-0.000342539
-2.62239e-09
-2.86671e-05
-0.000342678
-5.21439e-09
-2.86454e-05
-0.000342417
-8.75223e-09
-2.86592e-05
-0.000342481
-2.85603e-05
-0.000342661
5.0783e-09
-5.69418e-06
-6.74176e-08
1.16194e-10
-5.73698e-06
-6.74575e-08
-5.92811e-10
-5.7181e-06
-6.75063e-08
-3.66234e-10
-5.71457e-06
-6.7516e-08
-3.74108e-09
-5.71527e-06
-6.74815e-08
-5.67263e-06
-6.74386e-08
-9.78096e-11
1.56244e-07
8.40151e-11
1.57011e-07
1.52438e-10
1.5668e-07
1.47084e-10
1.56642e-07
2.9251e-10
1.56575e-07
1.55749e-07
1.34975e-07
-1.14093e-08
-0.000673147
-1.34078e-08
-1.16179e-08
-0.000673576
-9.32331e-09
-1.14713e-08
-0.000673661
2.04217e-10
-1.14652e-08
-0.000673107
-1.2629e-07
-1.15359e-08
-0.000673319
-1.1412e-08
-0.000673575
2.21108e-12
-1.49943e-08
-5.84464e-08
-6.15988e-14
-1.51814e-08
-5.85033e-08
-1.11775e-13
-1.50979e-08
-5.84766e-08
1.30019e-13
-1.50839e-08
-5.84978e-08
-6.76585e-13
-1.50861e-08
-5.85461e-08
-1.49573e-08
-5.85095e-08
-8.33345e-13
1.41331e-07
4.99835e-13
1.41951e-07
5.90965e-13
1.41688e-07
8.92096e-13
1.41674e-07
2.64019e-12
1.4158e-07
1.40915e-07
1.25805e-06
-1.03325e-05
-0.00137805
5.48877e-08
-1.03353e-05
-0.00137917
3.8781e-08
-1.03346e-05
-0.00137947
4.12801e-07
-1.03347e-05
-0.00137876
6.08967e-07
-1.03377e-05
-0.00138042
-1.03337e-05
-0.00137804
5.85015e-12
-1.0374e-05
-5.37853e-09
3.10109e-11
-1.03765e-05
-5.36735e-09
8.89309e-11
-1.03759e-05
-5.38901e-09
5.21635e-11
-1.03757e-05
-5.35515e-09
-7.12632e-11
-1.0379e-05
-5.33658e-09
-1.03748e-05
-5.4451e-09
-2.12831e-10
1.07981e-06
2.29907e-10
1.07773e-06
-3.42117e-10
1.0789e-06
4.94367e-10
1.07751e-06
2.05412e-09
1.07478e-06
1.08218e-06
-6.69522e-06
-4.2006e-06
-0.086565
-1.32917e-05
-4.18144e-06
-0.0865709
-2.97509e-05
-4.19002e-06
-0.0865878
-4.98054e-06
-4.18201e-06
-0.0866065
6.21476e-05
-4.17161e-06
-0.0866597
-4.22192e-06
-0.0865586
4.98686e-12
-4.20623e-06
1.06477e-17
1.67325e-12
-4.18705e-06
1.42363e-17
3.28629e-11
-4.19569e-06
6.02908e-16
-3.9845e-12
-4.18758e-06
2.29258e-15
-1.01782e-10
-4.1771e-06
6.08757e-19
-4.22771e-06
1.93046e-18
4.43959e-10
6.61654e-27
5.14837e-10
1.01248e-26
9.19649e-10
9.07529e-27
2.2385e-10
2.64369e-26
-2.38262e-09
4.08397e-26
3.14263e-26
-0.000260195
-8.67153e-05
-0.309595
0.383588
-0.000372787
-0.000124007
-0.309614
0.383493
-0.00104099
-0.000137539
-0.309644
0.384092
-0.000517093
-1.74153e-05
-0.309419
0.382551
0.00125521
-2.50732e-07
-0.309176
0.381069
-0.000232446
-0.309825
0.385082
-3.2995e-08
5.64018e-26
-8.91938e-05
2.51142e-06
-9.12797e-10
3.42003e-27
-0.000127577
3.53803e-06
6.75383e-08
-7.05219e-21
-0.000141519
3.91178e-06
-4.22055e-11
-9.04842e-17
-1.78468e-05
4.99128e-07
-2.42955e-07
-1.99677e-14
-1.5011e-08
7.19182e-09
6.31572e-26
-0.000239184
6.49435e-06
2.90931e-29
4.77118e-25
-4.39168e-26
-8.34889e-25
2.02086e-25
-2.60654e-27
-7.18498e-21
9.30019e-25
1.31018e-22
-1.55705e-16
3.46628e-25
6.52133e-17
8.69539e-28
2.43891e-25
1.19209e-14
3.52811e-25
-4.7707e-26
-3.60693e-05
-0.000264939
-0.235417
-8.47236e-05
-0.000225493
-0.235458
-0.000112957
-0.000240357
-0.235482
4.44777e-05
-0.000248717
-0.235385
0.000290763
-5.71308e-07
-0.235428
-6.50844e-05
-0.235449
-3.86794e-07
7.57158e-25
5.33072e-14
-3.06995e-07
3.259e-25
4.31156e-14
-1.35184e-08
1.51057e-24
8.09734e-14
-3.82972e-11
5.45781e-25
7.17123e-15
-5.86358e-07
3.81676e-25
4.93846e-13
5.82576e-25
3.81075e-15
1.82216e-27
-2.09823e-26
1.01438e-26
-9.39324e-27
6.29499e-27
-4.57163e-26
3.58644e-27
-1.67056e-26
-5.31389e-28
-1.18101e-26
-1.96064e-26
-6.20587e-05
2.14989e-14
-0.159845
-0.000127543
1.73595e-14
-0.159865
-0.000273382
3.23701e-14
-0.159839
-2.01996e-05
2.96234e-15
-0.160036
0.000515164
2.06508e-13
-0.160259
1.50691e-15
-0.159415
3.70463e-17
1.34087e-24
3.01318e-18
4.06256e-16
1.27047e-24
4.49231e-18
9.83685e-17
1.33503e-24
2.08296e-16
5.86902e-17
1.17323e-24
7.4895e-16
-1.35271e-14
2.31215e-24
2.53201e-24
7.44049e-25
1.96836e-24
1.22207e-27
-2.83692e-25
2.33892e-27
-2.6988e-25
3.68442e-27
-2.84162e-25
2.30951e-27
-2.49092e-25
-7.07235e-27
-4.83979e-25
-1.63157e-25
-7.4999e-05
2.6013e-18
-0.0362218
-9.31369e-05
3.88345e-18
-0.0362344
-2.37375e-05
1.80244e-16
-0.0362363
1.66959e-05
6.48879e-16
-0.0362985
8.46066e-05
2.20266e-24
-0.0364592
1.69365e-24
-0.0361106
2.69792e-20
3.35467e-24
1.25085e-17
1.42814e-18
4.17151e-24
1.79803e-17
1.38344e-17
4.54199e-24
8.26094e-16
1.09507e-26
4.53579e-24
2.99446e-15
-9.5268e-26
4.37553e-24
2.19119e-25
3.29534e-24
2.07155e-25
2.43913e-27
-1.24467e-24
8.54717e-28
-1.54311e-24
4.1658e-27
-1.69342e-24
1.88006e-27
-1.66322e-24
-1.02757e-26
-1.57105e-24
-1.2562e-24
-8.59204e-05
1.012e-16
0.0383228
-0.000139619
1.44907e-16
0.0383425
-0.000233957
6.63728e-15
0.0383486
-5.31653e-06
2.54034e-14
0.0383829
0.000457463
1.99195e-24
0.0383903
1.56867e-24
0.0383653
3.74034e-19
7.01595e-25
-5.72179e-17
2.29723e-17
1.01194e-24
-8.19094e-17
2.76488e-16
9.57317e-25
-3.76137e-15
3.69515e-27
2.24119e-24
-1.43337e-14
-5.29988e-26
3.29175e-24
-1.12497e-24
2.52328e-24
-8.92061e-25
3.90841e-28
-4.16145e-25
3.20929e-29
-5.9874e-25
1.6443e-27
-5.69157e-25
8.72155e-28
-1.31959e-24
-6.66104e-27
-1.91378e-24
-1.51961e-24
-4.71623e-05
5.38172e-17
-8.86847e-05
7.19893e-17
-0.000167304
3.03813e-15
-1.15392e-05
1.16198e-14
0.000340716
3.09199e-18
9.6881e-18
3.79968e-20
1.70875e-25
1.31701e-18
2.60615e-25
1.37642e-17
2.33785e-25
1.23955e-21
6.78574e-25
-9.51091e-21
1.03925e-24
8.14423e-25
-8.66806e-30
-5.29024e-29
-1.44027e-28
-4.15673e-29
8.92091e-28
-4.59217e-15
2.84215e-12
3.11515e-11
-5.41159e-15
2.74527e-12
3.38115e-11
-7.09413e-15
2.61641e-12
3.42201e-11
-6.52834e-15
2.44668e-12
4.3907e-11
7.0104e-15
2.39526e-12
4.89499e-11
1.7884e-12
2.4423e-11
-1.45626e-16
1.39773e-12
1.52375e-13
-1.80768e-16
1.32724e-12
1.68161e-13
-2.17724e-16
1.30569e-12
1.34721e-13
-1.79488e-16
1.12562e-12
1.76741e-13
6.51924e-17
9.28309e-13
2.3562e-13
9.05841e-13
8.00416e-14
-4.66602e-18
3.38344e-15
-7.02275e-18
3.26069e-15
-7.39472e-18
3.11083e-15
-5.1224e-18
3.08049e-15
-2.16222e-19
2.6819e-15
2.20072e-15
-8.82732e-13
7.86783e-11
4.04638e-09
-1.01743e-12
8.26794e-11
4.20557e-09
-1.75293e-12
7.54045e-11
4.89022e-09
-1.69634e-12
8.61366e-11
5.53648e-09
1.79919e-12
9.74549e-11
5.26876e-09
5.99744e-11
4.76106e-09
-1.2421e-14
4.4084e-12
6.53727e-11
-1.56187e-14
4.63398e-12
6.87247e-11