/*--------------------------------*- C++ -*----------------------------------*\
| =========                 |                                                 |
| \\      /  F ield         | OpenFOAM: The Open Source CFD Toolbox           |
|  \\    /   O peration     | Version:  v1612+                                |
|   \\  /    A nd           | Web:      www.OpenFOAM.com                      |
|    \\/     M anipulation  |                                                 |
\*---------------------------------------------------------------------------*/
FoamFile
{
    version     2.0;
    format      ascii;
    class       volScalarField;
    location    "4.8";
    object      p;
}
// * * * * * * * * * * * * * * * * * * * * * * * * * * * * * * * * * * * * * //

dimensions      [1 -1 -2 0 0 0 0];

internalField   nonuniform List<scalar> 
1116
(
1945.25
1945.24
1945.25
1945.24
1945.24
1945.27
1981.04
1981.03
1981.03
1981.03
1981.03
1981.06
2092.85
2092.84
2092.84
2092.84
2092.84
2092.87
2667.84
2667.84
2667.83
2667.83
2667.84
2667.85
4602.65
4602.59
4602.6
4602.61
4602.6
4602.62
8878.48
8878.49
8878.47
8878.44
8878.44
8878.45
14203.6
14203.5
14203.5
14203.5
14203.5
14203.5
17258.2
17258.3
17258.2
17258.2
17258.3
17258.2
18373.7
18374.2
18373.6
18373.6
18374
18373.6
19963.5
19963.3
19963.3
19963.3
19963.3
19963.3
21647.9
21647.3
21647.5
21647.5
21647.4
21647.7
21476.1
21476.2
21476.2
21476.2
21476.2
21476.4
13.0632
13.0633
13.0636
13.0642
13.0648
13.0651
17.8175
17.8175
17.8178
17.8185
17.8193
17.8198
50.3108
50.3093
50.3093
50.3099
50.311
50.3129
115.552
115.544
115.546
115.547
115.547
115.552
305.214
305.089
305.135
305.147
305.116
305.17
1890.73
1890.8
1890.77
1890.72
1890.74
1890.72
5342.31
5341.69
5341.92
5341.93
5341.7
5342.07
7567.66
7567.43
7567.57
7567.62
7567.49
7567.57
8460.4
8459.94
8460.29
8460.31
8459.99
8460.08
9388.61
9387.42
9387.96
9387.98
9387.62
9388.43
9406.29
9405.95
9406.09
9406.12
9405.92
9406.57
9287.34
9287.35
9287.35
9287.4
9287.45
9287.45
19.8886
19.8887
19.8891
19.8896
19.89
19.8902
19.435
19.4355
19.4359
19.4363
19.4367
19.4366
26.8627
26.8637
26.8646
26.8649
26.8645
26.8633
43.5096
43.512
43.5121
43.5116
43.5122
43.5115
38.6557
38.6484
38.6515
38.6528
38.6529
38.6571
189.864
189.756
189.811
189.83
189.795
189.865
1349.35
1348.84
1349.03
1348.97
1348.8
1349.06
3700.78
3700.9
3700.86
3700.93
3700.92
3700.8
3815.67
3817.42
3816.65
3816.68
3817.19
3816.2
2266.83
2268.67
2267.86
2267.73
2268.21
2267.54
1724.86
1725.56
1725.3
1725.11
1725.15
1725.31
1904.78
1903.79
1904.33
1904.16
1903.49
1905.21
-4.62369
-4.62261
-4.62231
-4.62198
-4.62168
-4.62236
1.04796
1.04866
1.0488
1.04901
1.04925
1.04887
13.0239
13.0226
13.023
13.0234
13.023
13.0235
26.8291
26.8238
26.826
26.8271
26.8255
26.8275
10.7295
10.7299
10.7311
10.733
10.7341
10.7346
12.7877
12.7094
12.7407
12.7761
12.7492
12.7936
225.268
225.22
225.191
225.352
225.342
225.257
339.746
339.814
339.71
339.882
339.939
339.772
19.2761
19.659
19.4768
19.507
19.6129
19.564
-87.9045
-87.8946
-87.9108
-87.905
-87.9001
-87.9161
53.5316
53.5158
53.5193
53.5113
53.5105
53.4827
199.28
199.232
199.246
199.221
199.171
199.283
77.3009
77.3331
77.264
77.2335
77.2708
76.9277
81.5265
81.681
81.5375
81.5205
81.6876
81.0565
83.4784
83.8165
83.635
83.6597
84.0176
83.2541
85.564
86.1634
85.9551
86.2512
87.1825
85.5675
99.3069
100.768
100.242
102.331
107.29
98.3274
106.912
109.235
109.898
114.288
116.458
107.23
175.249
175.314
173.403
170.204
147.809
173.557
1049.05
1037.33
1019.53
978.628
871.925
971.996
2774.5
2774.6
2778.66
2785.37
2777.41
2759.17
2209.02
2198.9
2231.32
2124.96
2053.9
2276.64
1185.74
1183.69
1182.91
1169.39
1138.85
1192.66
1172.17
1171.92
1171.17
1169.97
1166.6
1184.51
55.5757
55.6192
55.5789
55.592
55.6832
55.3695
55.5587
55.7021
55.6073
55.6939
55.9649
55.2712
36.589
36.7611
36.9605
37.1791
37.4748
37.6493
-39.2882
-39.0969
-38.2873
-37.8759
-37.6324
-35.2391
-160.546
-160.211
-159.67
-157.89
-156.047
-156.618
-147.026
-147.217
-147.396
-146.507
-145.87
-146.928
-74.824
-76.2193
-77.5997
-79.9981
-84.745
-80.0664
31.4262
30.8456
30.4032
27.2512
23.3513
28.8473
278.769
275.669
276.602
247.807
197.782
271.663
601.58
593.038
596.309
510.565
414.958
602.616
600.828
596.693
613.316
560.912
503.479
609.793
961.264
958.623
953.636
948.312
926.266
935.908
22.9054
22.9257
22.9269
22.9421
22.9995
22.8934
16.8603
16.9256
16.9068
16.9751
17.1362
16.8329
-6.23401
-6.17527
-6.02197
-5.99412
-5.94475
-5.60474
-65.6533
-65.5996
-65.3773
-65.3219
-65.3542
-65.1909
-116.506
-116.544
-116.632
-116.697
-116.745
-117.092
-110.261
-110.338
-110.448
-110.073
-109.317
-110.701
-67.9705
-68.107
-68.1264
-67.6829
-66.4817
-68.3784
-43.6909
-43.8754
-43.7718
-43.3991
-42.3785
-43.5461
-23.4012
-24.1928
-24.8735
-27.704
-33.8821
-27.6873
117.46
118.739
123.733
99.1576
48.6897
119.936
572.257
579.617
586.062
576.638
702.785
603.642
916.183
918.368
887.781
871.513
874.657
849.228
-5.79521
-5.78579
-5.77655
-5.76593
-5.74657
-5.77079
-12.0202
-12.0053
-11.9997
-11.9815
-11.9433
-12.007
-28.8415
-28.8225
-28.7915
-28.78
-28.7532
-28.7088
-63.0266
-63.0842
-63.0194
-63.1114
-63.1959
-62.8865
-96.8209
-97.0561
-96.9599
-97.1838
-97.3495
-96.7946
-97.0403
-97.2072
-97.2225
-97.3456
-97.5085
-97.4221
-65.5462
-65.5879
-65.6093
-65.5683
-65.4649
-65.7089
-48.9447
-48.8812
-48.7423
-48.4021
-47.7989
-48.5154
-45.7389
-45.763
-45.7716
-45.7685
-45.8259
-45.8828
-26.0416
-25.6076
-25.0849
-27.1325
-29.8175
-25.2788
60.3513
69.6097
80.0194
31.9924
-2.20709
73.8227
-861.234
-833.572
-772.445
-689.882
67.4333
-622.083
-13.1424
-13.1427
-13.1426
-13.1425
-13.1423
-13.1418
-39.7805
-39.7807
-39.7808
-39.7808
-39.7806
-39.7804
-57.5982
-57.5981
-57.5981
-57.598
-57.5981
-57.5982
-13.6948
-13.6954
-13.6955
-13.6955
-13.6953
-13.6947
-38.1783
-38.1783
-38.1784
-38.1784
-38.1784
-38.1787
-57.8754
-57.8752
-57.8753
-57.8753
-57.8753
-57.8755
-11.6559
-11.6582
-11.6578
-11.6577
-11.6581
-11.6573
-38.2455
-38.2469
-38.2473
-38.2473
-38.2474
-38.2469
-59.6189
-59.6189
-59.6191
-59.6191
-59.619
-59.6189
-14.2967
-14.3087
-14.3055
-14.3017
-14.3043
-14.2985
-47.3068
-47.3135
-47.3142
-47.3135
-47.3142
-47.3114
-62.3199
-62.3179
-62.3193
-62.3192
-62.3186
-62.3199
-19.2921
-19.2777
-19.2808
-19.2822
-19.2778
-19.2858
-41.2364
-41.2206
-41.2236
-41.2244
-41.2213
-41.2288
-63.7789
-63.7776
-63.7782
-63.7782
-63.7785
-63.7795
-108.677
-108.674
-108.675
-108.679
-108.676
-108.677
-104.924
-104.932
-104.932
-104.933
-104.935
-104.932
-85.8312
-85.8338
-85.8348
-85.8353
-85.8359
-85.8359
-124.783
-124.791
-124.788
-124.788
-124.79
-124.79
-124.604
-124.622
-124.617
-124.619
-124.624
-124.617
-88.2326
-88.2332
-88.2328
-88.2354
-88.2356
-88.2359
-107.252
-107.244
-107.247
-107.247
-107.247
-107.251
-115.842
-115.842
-115.841
-115.842
-115.843
-115.84
-83.0957
-83.0922
-83.0938
-83.0959
-83.0955
-83.0986
-93.773
-93.7575
-93.7639
-93.7665
-93.7664
-93.7606
-96.3403
-96.3392
-96.3397
-96.3402
-96.3393
-96.3341
-78.307
-78.3047
-78.3058
-78.3068
-78.3059
-78.3078
-56.171
-56.1724
-56.1764
-56.1812
-56.1865
-56.1756
-60.2986
-60.299
-60.3002
-60.3024
-60.3039
-60.3009
-72.0543
-72.0537
-72.0535
-72.0535
-72.053
-72.0532
-2.03781
-2.04683
-2.0431
-2.0505
-2.05182
-2.04353
-34.871
-34.8742
-34.8757
-34.876
-34.8781
-34.876
-66.1686
-66.1687
-66.169
-66.1691
-66.1695
-66.1691
63.3175
63.3061
63.3223
63.2909
63.3208
63.2925
-47.1112
-47.1111
-47.1091
-47.108
-47.1091
-47.1073
-71.8192
-71.8195
-71.8197
-71.8214
-71.8259
-71.816
1340.43
1340.58
1340.84
1341.44
1342.58
1341.2
-50.6044
-50.5792
-50.5517
-50.6202
-50.6104
-50.3836
-69.5899
-69.572
-69.5445
-69.511
-69.4632
-69.4652
1362.63
1362.87
1363.08
1362.29
1361.82
1363.61
-52.8447
-52.8288
-52.8175
-52.8552
-52.8734
-52.6874
-68.3965
-68.385
-68.3709
-68.3489
-68.3163
-68.3381
1358.64
1358.69
1358.82
1358.59
1358.51
1359.17
-52.5617
-52.5743
-52.568
-52.5658
-52.5976
-52.583
-67.1774
-67.1763
-67.1752
-67.18
-67.1762
-67.1845
1224.02
1223.88
1224.92
1221.34
1219.46
1226.98
-51.1905
-51.1933
-51.1919
-51.2054
-51.2123
-51.189
-68.227
-68.2199
-68.2251
-68.2053
-68.1789
-68.2499
1080.75
1080.8
1081.39
1080.01
1079.48
1082.41
-48.8509
-48.8552
-48.8527
-48.8581
-48.8624
-48.8554
-69.8463
-69.8405
-69.8454
-69.8369
-69.8168
-69.8605
844.241
844.251
844.61
843.932
843.83
845.03
-46.9086
-46.9094
-46.9084
-46.9073
-46.9072
-46.9112
-74.2868
-74.2857
-74.2865
-74.2885
-74.2872
-74.288
-27.1029
-27.1008
-27.0982
-27.0958
-27.092
-27.0972
-44.6031
-44.6024
-44.6015
-44.6005
-44.5991
-44.601
-60.8352
-60.835
-60.8347
-60.8343
-60.8339
-60.8343
-31.2231
-31.2198
-31.2176
-31.2141
-31.2057
-31.2194
-46.4051
-46.4039
-46.4027
-46.4009
-46.3978
-46.4023
-61.2097
-61.2094
-61.2089
-61.2083
-61.2074
-61.2086
-39.6811
-39.6772
-39.6753
-39.6737
-39.6587
-39.6615
-50.1772
-50.1744
-50.1719
-50.1673
-50.1586
-50.1696
-62.1904
-62.1893
-62.1883
-62.1862
-62.1837
-62.1885
-53.8943
-53.9118
-53.897
-53.9315
-53.9506
-53.802
-55.954
-55.9516
-55.9486
-55.9452
-55.9376
-55.9342
-63.6599
-63.6581
-63.658
-63.6549
-63.651
-63.6588
-67.6182
-67.6706
-67.6268
-67.6773
-67.6814
-67.5435
-62.7632
-62.7666
-62.7659
-62.7714
-62.7691
-62.7746
-65.3209
-65.3204
-65.3217
-65.3213
-65.3197
-65.3259
-66.2212
-66.2464
-66.2209
-66.2618
-66.2302
-66.2035
-67.3288
-67.3389
-67.3481
-67.3551
-67.3798
-67.4223
-66.2976
-66.298
-66.2989
-66.2986
-66.3019
-66.312
-59.8941
-59.8986
-59.8769
-59.8449
-59.7626
-59.8593
-63.479
-63.482
-63.4827
-63.4843
-63.485
-63.4943
-65.8355
-65.8349
-65.8335
-65.8315
-65.829
-65.8355
-53.7045
-53.6929
-53.6578
-53.5969
-53.5053
-53.6026
-60.9062
-60.9008
-60.8883
-60.8738
-60.8567
-60.8591
-65.8616
-65.8594
-65.8553
-65.8504
-65.8451
-65.8484
-49.095
-49.1558
-49.1995
-49.244
-49.162
-49.3723
-59.3858
-59.3791
-59.3608
-59.3582
-59.3385
-59.3279
-65.7081
-65.7082
-65.7057
-65.7009
-65.6919
-65.7056
-47.4733
-47.4269
-47.3408
-47.1752
-46.6641
-47.2626
-59.2789
-59.2489
-59.1866
-59.2111
-59.1396
-59.0782
-66.5527
-66.5449
-66.5291
-66.4998
-66.4562
-66.5098
-50.6602
-50.6215
-50.9666
-48.8633
-43.9794
-50.1967
-57.6159
-57.5565
-57.438
-57.2716
-56.8137
-57.0655
-68.1186
-68.0985
-68.0565
-67.9427
-67.8261
-67.9532
700.433
698.633
695.947
728.27
747.345
702.958
-54.4088
-54.345
-54.2499
-54.2382
-54.0376
-53.9774
-76.2733
-76.2134
-76.12
-76.0145
-75.8486
-75.8536
)
;

boundaryField
{
    seabed_topleft_surface
    {
        type            calculated;
        value           nonuniform List<scalar> 
72
(
3855.27
3855.25
3855.26
3855.25
3855.25
3855.3
3923.18
3923.16
3923.17
3923.16
3923.16
3923.22
4151.51
4151.49
4151.49
4151.48
4151.5
4151.55
5079.59
5079.58
5079.57
5079.58
5079.59
5079.62
7805.31
7805.24
7805.26
7805.27
7805.27
7805.31
13278.7
13278.7
13278.7
13278.7
13278.7
13278.7
18998.9
18998.9
18998.8
18998.8
18998.8
18998.9
22053.5
22053.7
22053.6
22053.6
22053.6
22053.6
23169
23169.5
23168.9
23168.9
23169.3
23168.9
24758.7
24758.6
24758.5
24758.5
24758.5
24758.5
26442.8
26442.2
26442.4
26442.4
26442.3
26442.7
26269.9
26270
26270
26270
26270
26270.2
)
;
    }
    seabed_topright_surface
    {
        type            calculated;
        value           nonuniform List<scalar> 
72
(
82.2231
82.2554
82.1861
82.1557
82.1931
81.8498
86.4492
86.6037
86.46
86.4431
86.6104
85.9788
88.4211
88.7597
88.576
88.6017
88.963
88.1903
90.8937
91.5001
91.2552
91.5687
92.5524
90.7878
155.962
156.453
151.708
156.315
166.76
139.947
289.947
293.694
293.429
300.011
312.892
288.785
397.285
400.684
401.892
397.19
380.63
410.619
1278.85
1270.73
1255.84
1212.67
1109.89
1217.78
3011.51
3015.26
3023.35
3028.77
3025.4
3012.98
2431.92
2424.02
2461.53
2338.31
2268.6
2515.77
1271.83
1269.77
1275
1250.76
1215.95
1291.32
1178.77
1178.45
1177.65
1176.42
1172.97
1193.24
)
;
    }
    breakwater_top_surface
    {
        type            calculated;
        value           nonuniform List<scalar> 
36
(
2748.93
2749.15
2749.5
2750.07
2751.26
2750.19
2773.11
2773.41
2773.68
2772.97
2772.58
2774.4
2764.63
2764.74
2764.97
2764.59
2764.42
2765.78
2493.84
2493.53
2495.79
2488.11
2483.96
2500.32
2215.02
2215.09
2216.38
2213.44
2212.13
2218.65
1766.39
1766.39
1767.16
1765.76
1765.49
1768.07
)
;
    }
    breakwater_left_surface
    {
        type            calculated;
        value           nonuniform List<scalar> 
24
(
21492.6
21492.6
21492.6
21492.7
21492.6
21492.8
9303.2
9303.21
9303.21
9303.26
9303.31
9303.31
1910.74
1909.74
1910.28
1910.11
1909.45
1911.17
199.296
199.248
199.262
199.237
199.187
199.299
)
;
    }
    breakwater_right_surface
    {
        type            calculated;
        value           nonuniform List<scalar> 
24
(
1172.2
1171.94
1171.2
1169.99
1166.62
1184.54
961.286
958.644
953.658
948.334
926.287
935.929
916.921
919.179
888.831
871.942
874.677
850.418
-858.126
-830.46
-769.331
-686.769
70.5446
-618.976
)
;
    }
    water_front_surface
    {
        type            calculated;
        value           nonuniform List<scalar> 
186
(
1945.25
1981.04
2092.85
2667.84
4602.65
8878.48
14203.6
17258.2
18373.7
19963.5
21647.9
21476.1
13.0632
17.8175
50.3108
115.552
305.214
1890.73
5342.31
7567.66
8460.4
9388.61
9406.29
9287.34
19.8886
19.435
26.8627
43.5096
38.6557
189.864
1349.35
3700.78
3815.67
2266.83
1724.86
1904.78
-4.62369
1.04796
13.0239
26.8291
10.7295
12.7877
225.268
339.746
19.2761
-87.9045
53.5316
199.28
77.3009
81.5265
83.4784
85.564
99.3069
106.912
175.249
1049.05
2774.5
2209.02
1185.74
1172.17
55.5757
55.5587
36.589
-39.2882
-160.546
-147.026
-74.824
31.4262
278.769
601.58
600.828
961.264
22.9054
16.8603
-6.23401
-65.6533
-116.506
-110.261
-67.9705
-43.6909
-23.4012
117.46
572.257
916.183
-5.79521
-12.0202
-28.8415
-63.0266
-96.8209
-97.0403
-65.5462
-48.9447
-45.7389
-26.0416
60.3513
-861.234
-13.1424
-39.7805
-57.5982
-13.6948
-38.1783
-57.8754
-11.6559
-38.2455
-59.6189
-14.2967
-47.3068
-62.3199
-19.2921
-41.2364
-63.7789
-108.677
-104.924
-85.8312
-124.783
-124.604
-88.2326
-107.252
-115.842
-83.0957
-93.773
-96.3403
-78.307
-56.171
-60.2986
-72.0543
-2.03781
-34.871
-66.1686
63.3175
-47.1112
-71.8192
1340.43
-50.6044
-69.5899
1362.63
-52.8447
-68.3965
1358.64
-52.5617
-67.1774
1224.02
-51.1905
-68.227
1080.75
-48.8509
-69.8463
844.241
-46.9086
-74.2868
-27.1029
-44.6031
-60.8352
-31.2231
-46.4051
-61.2097
-39.6811
-50.1772
-62.1904
-53.8943
-55.954
-63.6599
-67.6182
-62.7632
-65.3209
-66.2212
-67.3288
-66.2976
-59.8941
-63.479
-65.8355
-53.7045
-60.9062
-65.8616
-49.095
-59.3858
-65.7081
-47.4733
-59.2789
-66.5527
-50.6602
-57.6159
-68.1186
700.433
-54.4088
-76.2733
)
;
    }
    water_back_surface
    {
        type            calculated;
        value           nonuniform List<scalar> 
186
(
1945.27
1981.06
2092.87
2667.85
4602.62
8878.45
14203.5
17258.2
18373.6
19963.3
21647.7
21476.4
13.0651
17.8198
50.3129
115.552
305.17
1890.72
5342.07
7567.57
8460.08
9388.43
9406.57
9287.45
19.8902
19.4366
26.8633
43.5115
38.6571
189.865
1349.06
3700.8
3816.2
2267.54
1725.31
1905.21
-4.62236
1.04887
13.0235
26.8275
10.7346
12.7936
225.257
339.772
19.564
-87.9161
53.4827
199.283
76.9277
81.0565
83.2541
85.5675
98.3274
107.23
173.557
971.996
2759.17
2276.64
1192.66
1184.51
55.3695
55.2712
37.6493
-35.2391
-156.618
-146.928
-80.0664
28.8473
271.663
602.616
609.793
935.908
22.8934
16.8329
-5.60474
-65.1909
-117.092
-110.701
-68.3784
-43.5461
-27.6873
119.936
603.642
849.228
-5.77079
-12.007
-28.7088
-62.8865
-96.7946
-97.4221
-65.7089
-48.5154
-45.8828
-25.2788
73.8227
-622.083
-13.1418
-39.7804
-57.5982
-13.6947
-38.1787
-57.8755
-11.6573
-38.2469
-59.6189
-14.2985
-47.3114
-62.3199
-19.2858
-41.2288
-63.7795
-108.677
-104.932
-85.8359
-124.79
-124.617
-88.2359
-107.251
-115.84
-83.0986
-93.7606
-96.3341
-78.3078
-56.1756
-60.3009
-72.0532
-2.04353
-34.876
-66.1691
63.2925
-47.1073
-71.816
1341.2
-50.3836
-69.4652
1363.61
-52.6874
-68.3381
1359.17
-52.583
-67.1845
1226.98
-51.189
-68.2499
1082.41
-48.8554
-69.8605
845.03
-46.9112
-74.288
-27.0972
-44.601
-60.8343
-31.2194
-46.4023
-61.2086
-39.6615
-50.1696
-62.1885
-53.802
-55.9342
-63.6588
-67.5435
-62.7746
-65.3259
-66.2035
-67.4223
-66.312
-59.8593
-63.4943
-65.8355
-53.6026
-60.8591
-65.8484
-49.3723
-59.3279
-65.7056
-47.2626
-59.0782
-66.5098
-50.1967
-57.0655
-67.9532
702.958
-53.9774
-75.8536
)
;
    }
    water_left_surface
    {
        type            calculated;
        value           nonuniform List<scalar> 
42
(
1951.79
1951.79
1951.79
1951.78
1951.79
1951.81
13.0797
13.0798
13.0801
13.0807
13.0813
13.0816
19.9047
19.9049
19.9053
19.9057
19.9062
19.9064
-4.60782
-4.60674
-4.60644
-4.60611
-4.60581
-4.60649
-13.1424
-13.1427
-13.1426
-13.1425
-13.1423
-13.1418
-39.7805
-39.7807
-39.7808
-39.7808
-39.7806
-39.7804
-57.5982
-57.5981
-57.5981
-57.598
-57.5981
-57.5982
)
;
    }
    water_right_surface
    {
        type            calculated;
        value           nonuniform List<scalar> 
42
(
77.3177
77.35
77.2808
77.2504
77.2877
76.9446
55.5922
55.6357
55.5954
55.6085
55.6997
55.386
22.9216
22.9419
22.9431
22.9583
23.0157
22.9096
-5.77934
-5.76992
-5.76067
-5.75006
-5.7307
-5.75492
-27.1029
-27.1008
-27.0982
-27.0958
-27.092
-27.0972
-44.6031
-44.6024
-44.6015
-44.6005
-44.5991
-44.601
-60.8352
-60.835
-60.8347
-60.8343
-60.8339
-60.8343
)
;
    }
    water_top_surface
    {
        type            calculated;
        value           nonuniform List<scalar> 
180
(
-68.67
-68.67
-68.67
-68.67
-68.67
-68.67
-68.67
-68.67
-68.67
-68.67
-68.67
-68.67
-68.67
-68.67
-68.67
-68.67
-68.67
-68.67
-68.67
-68.67
-68.67
-68.67
-68.67
-68.67
-68.67
-68.67
-68.67
-68.67
-68.67
-68.67
-68.6833
-68.6832
-68.6832
-68.6833
-68.6832
-68.6833
-68.9317
-68.9315
-68.9316
-68.9317
-68.9317
-68.9318
-69.337
-69.3306
-69.3345
-69.3354
-69.3336
-69.3392
-80.1896
-80.176
-80.1824
-80.1833
-80.1805
-80.1872
-80.1943
-80.1864
-80.1876
-80.1881
-80.1868
-80.1865
-73.88
-73.8771
-73.8777
-73.8789
-73.8793
-73.8765
-70.6736
-70.6769
-70.6752
-70.6757
-70.6797
-70.6709
-70.83
-70.8545
-70.8373
-70.8349
-70.906
-70.7759
-70.5569
-70.5739
-70.5755
-70.5016
-70.4828
-70.5813
-71.0305
-71.031
-71.0276
-71.0511
-71.1169
-70.9312
-72.668
-72.6841
-72.6449
-72.741
-72.8517
-72.5332
-72.828
-72.8457
-72.8143
-72.8774
-72.9647
-72.7334
-70.8505
-70.859
-70.8502
-70.8634
-70.8895
-70.8239
-68.67
-68.67
-68.67
-68.67
-68.67
-68.67
-68.67
-68.67
-68.67
-68.67
-68.67
-68.67
-68.67
-68.67
-68.67
-68.67
-68.67
-68.67
-68.67
-68.67
-68.67
-68.67
-68.67
-68.67
-68.67
-68.67
-68.67
-68.67
-68.67
-68.67
-68.67
-68.67
-68.67
-68.67
-68.67
-68.67
-68.7784
-68.7782
-68.7779
-68.7776
-68.7771
-68.7775
-70.0902
-70.0877
-70.087
-70.0846
-70.083
-70.0802
-69.7769
-69.7768
-69.7764
-69.767
-69.7554
-69.78
-73.6765
-73.6744
-73.6542
-73.6573
-73.6398
-73.6146
-74.4999
-74.5033
-74.4512
-74.3928
-74.3383
-74.3342
-71.0033
-70.9739
-70.9741
-70.8947
-70.6756
-70.9232
)
;
    }
}


// ************************************************************************* //
