/*--------------------------------*- C++ -*----------------------------------*\
| =========                 |                                                 |
| \\      /  F ield         | OpenFOAM: The Open Source CFD Toolbox           |
|  \\    /   O peration     | Version:  v1612+                                |
|   \\  /    A nd           | Web:      www.OpenFOAM.com                      |
|    \\/     M anipulation  |                                                 |
\*---------------------------------------------------------------------------*/
FoamFile
{
    version     2.0;
    format      ascii;
    class       volScalarField;
    location    "8";
    object      alpha.water;
}
// * * * * * * * * * * * * * * * * * * * * * * * * * * * * * * * * * * * * * //

dimensions      [0 0 0 0 0 0 0];

internalField   nonuniform List<scalar> 
1116
(
0.723192
0.72304
0.723124
0.723124
0.723125
0.723186
0.835399
0.835238
0.835083
0.835452
0.835867
0.83485
0.974091
0.974091
0.974091
0.974091
0.974091
0.974091
0.974107
0.974107
0.974107
0.974107
0.974107
0.974107
0.974107
0.974107
0.974107
0.974107
0.974107
0.974107
0.962007
0.961418
0.961553
0.961899
0.961824
0.961666
0.876304
0.876189
0.876563
0.875707
0.874593
0.877657
0.801859
0.802342
0.802838
0.801134
0.800707
0.803677
0.759635
0.758802
0.759215
0.759167
0.760181
0.758591
0.748732
0.746912
0.747056
0.748771
0.750408
0.745911
0.737219
0.734137
0.734057
0.737889
0.73948
0.73354
0.704983
0.703914
0.703845
0.705023
0.705334
0.704899
0.736532
0.736536
0.736536
0.736536
0.736504
0.736472
0.734421
0.734825
0.73371
0.735098
0.73607
0.73386
0.809103
0.80933
0.808813
0.809266
0.809535
0.809539
0.929004
0.92857
0.928873
0.92869
0.928512
0.929499
0.954765
0.954391
0.954668
0.954509
0.954528
0.954816
0.860382
0.8623
0.861878
0.860871
0.860655
0.861925
0.545154
0.550373
0.549049
0.547012
0.544589
0.550499
0.211411
0.21245
0.212297
0.212297
0.210175
0.218571
0.15812
0.154525
0.155678
0.156767
0.160246
0.14886
0.170189
0.167873
0.168084
0.168852
0.170688
0.16528
0.120369
0.118527
0.118485
0.119354
0.119933
0.11857
0.0902547
0.0879573
0.0883073
0.0903082
0.0914493
0.088765
0.373185
0.376515
0.377907
0.372702
0.37248
0.37795
0.0909459
0.0918656
0.0917895
0.0911765
0.0903417
0.0924133
0.114695
0.113565
0.113075
0.115052
0.115625
0.113692
0.251317
0.247921
0.247287
0.250946
0.252054
0.248487
0.37056
0.369925
0.3695
0.370225
0.369851
0.370799
0.330783
0.330591
0.330791
0.329905
0.32941
0.331886
0.242721
0.238829
0.239911
0.242364
0.245912
0.234077
0.115132
0.12029
0.119193
0.115366
0.112911
0.117842
0.0259061
0.0307429
0.0295487
0.0264073
0.0236478
0.0351327
0.00946266
0.0116635
0.0114684
0.00948979
0.00834554
0.0128933
0.0210187
0.0197623
0.0199573
0.0213893
0.0218617
0.0195728
0.0272624
0.0241398
0.0243721
0.0279554
0.0305087
0.0240992
1.80151e-05
1.62465e-05
1.70044e-05
1.739e-05
1.33425e-05
1.17882e-05
1.1729e-05
9.82808e-06
1.10447e-05
9.43148e-06
6.31026e-06
6.69234e-06
3.6595e-06
2.53017e-06
3.38949e-06
2.06131e-06
7.86237e-07
1.44253e-06
2.52756e-07
1.92443e-07
2.47952e-07
1.51984e-07
6.39172e-08
1.23166e-07
1.11942e-08
1.25088e-08
1.3841e-08
1.2833e-08
1.34149e-08
1.39173e-08
2.73746e-08
2.6797e-08
2.66944e-08
2.32979e-08
2.37275e-08
2.38407e-08
3.91545e-08
3.67171e-08
3.41763e-08
3.34568e-08
3.36105e-08
3.34568e-08
0.00233522
0.00215839
0.00218555
0.00229737
0.00232125
0.00098532
6.51551e-05
7.71872e-05
7.41342e-05
6.53518e-05
6.03193e-05
8.27145e-05
5.68805e-06
7.28255e-06
6.90281e-06
5.52211e-06
5.02507e-06
8.62209e-06
0.000212974
0.000499453
0.000458355
0.000192075
0.000152155
0.000522087
0.00357561
0.0043119
0.0043673
0.0034969
0.00322192
0.00462736
0.093195
0.093195
0.0928409
0.0925336
0.0927522
0.0930444
0.093195
0.0931944
0.0931722
0.0930517
0.0930771
0.0930571
0.0931943
0.0926483
0.0859069
0.0930133
0.0930539
0.0930245
0.072459
0.0442423
0.0161391
0.0422617
0.0662371
0.0656816
0.0571173
0.0421892
0.0425377
0.0255546
0.0108907
0.0121699
0.0557507
0.0558525
0.0558525
0.0557824
0.045347
0.0453697
0.0558249
0.0547882
0.0503311
0.0549518
0.054215
0.053281
0.0558102
0.0545168
0.0406878
0.0273981
0.0357241
0.0468998
0.0543401
0.0545087
0.0413747
0.0136385
0.0162652
0.0519498
0.0313885
0.0544746
0.0434327
0.0171242
0.0202597
0.0522571
0.027445
0.0443607
0.0439176
0.0371802
0.0379717
0.0522571
0.0304004
0.0267385
0.0433521
0.050447
0.0521477
0.0522571
0.0931952
0.0931944
0.093188
0.0931716
0.0931454
0.0931005
0.0931943
0.0895013
0.0931872
0.0931547
0.0931315
0.0930873
0.0931959
0.0480277
0.0320291
0.0404319
0.0864486
0.0930438
0.0493914
0.0191856
0.0121882
0.0274669
0.0304342
0.041845
0.00688211
0.00733181
0.00686206
0.00798065
0.0058803
0.00695193
0.000288157
0.000196416
0.000340182
0.00128071
0.00271268
0.00231797
8.96488e-06
2.04738e-06
2.94453e-07
3.09538e-07
8.99798e-06
6.08536e-07
0.000186581
3.20227e-07
4.23649e-07
0.000327289
0.00075895
6.8216e-07
0.00272772
0.000173383
1.15134e-06
0.00119944
0.000949033
1.44821e-06
0.0103184
0.00159587
2.19574e-06
0.000223778
0.000216684
0.000707924
0.00953472
2.09074e-05
1.34974e-05
2.18874e-05
0.000108855
0.00495835
0.0100933
0.00378595
1.97286e-05
0.000108855
0.000291092
0.0048714
0.0931875
0.0931905
0.0931837
0.0931513
0.0931025
0.0930533
0.0856148
0.0925838
0.0931581
0.093113
0.0931063
0.0677168
0.0845579
0.087139
0.0773675
0.0670973
0.0904831
0.0357652
0.0520114
0.0248577
0.0124672
0.0103404
0.0265782
0.0179863
0.0018871
7.51696e-05
2.15037e-05
9.43544e-06
2.65734e-05
0.00134609
3.77508e-06
4.44119e-06
1.15125e-06
3.09538e-07
9.7756e-07
1.07981e-06
1.14006e-07
3.1881e-07
3.55688e-07
9.08872e-08
1.10227e-07
4.2294e-07
1.46303e-08
1.45235e-07
3.52286e-07
1.43945e-07
9.78608e-07
1.25634e-06
6.84859e-08
3.19084e-07
7.62247e-07
9.13854e-07
4.37718e-06
0.000233548
5.08875e-06
1.44697e-06
1.20243e-06
0.000153109
0.00116318
0.000548507
1.18434e-05
0.00100353
0.00127935
0.00355429
0.00446207
6.87442e-06
0.00376974
0.00612399
0.0053684
0.00772152
0.00752762
0.00442111
0.078431
0.0313214
0.0869441
0.0930993
0.0853389
0.0794784
0.00591602
0.0557028
0.0443827
0.0895231
0.0630705
0.00173874
8.83947e-05
0.0689556
0.0664505
0.0556366
0.0231454
2.31854e-07
0.00173581
0.0265252
0.0203418
0.00471875
0.00438408
2.18288e-05
0.00105907
4.96276e-05
2.60398e-05
4.79188e-06
5.20713e-06
6.97364e-06
9.00363e-06
2.0869e-06
5.91393e-07
6.28132e-08
1.06811e-07
8.64038e-06
1.33183e-08
1.76962e-07
1.82509e-08
2.19578e-09
1.70965e-08
1.57011e-07
4.23688e-09
8.33997e-07
9.11586e-07
5.9833e-09
4.39687e-06
2.6127e-05
1.42764e-08
6.1199e-07
1.71413e-06
4.45323e-08
5.01658e-06
0.000137167
5.45495e-07
3.84442e-07
7.78401e-07
7.56787e-07
1.21717e-06
0.000127343
9.64282e-06
1.52998e-06
1.19914e-06
0.0019669
0.00282651
3.43721e-06
0.00902231
0.00884475
0.00875705
0.00921322
0.00921322
0.00916046
0.000112707
7.80085e-05
7.05253e-05
0.000120458
0.000183872
9.5928e-05
0.000409372
0.000182194
0.000105381
0.000394187
0.000449576
0.000185437
0.000409372
0.00040952
0.000412354
0.000446413
0.000449576
0.000446166
0.000327447
0.000219506
0.000204269
0.000303377
0.000372934
0.000181931
0.000409372
0.000397087
0.000394129
0.000397219
0.000421721
0.000417152
0.000259994
0.000193918
0.00018615
0.000174431
0.000136618
0.00035364
0.000330743
0.000329888
0.000327348
0.000321501
0.000218078
0.000268559
8.94861e-05
6.53395e-05
6.48654e-05
4.50715e-15
3.54796e-15
0.000109255
3.63396e-26
5.12888e-26
5.10253e-26
1.11543e-25
1.62634e-25
1.45037e-05
0.00013002
8.07635e-05
0.000115993
5.88872e-05
1.57998e-05
4.58486e-05
1.0235e-12
9.66443e-13
8.96306e-13
9.48433e-13
8.42941e-13
1.34475e-12
1.34224e-18
1.15597e-18
1.21882e-18
5.57372e-19
5.40747e-19
1.97911e-22
5.71754e-09
5.71007e-09
6.51974e-09
6.52656e-09
6.51175e-09
7.09906e-09
1.20432e-10
1.12962e-10
1.03886e-10
1.09409e-10
9.58144e-11
1.40422e-10
-7.65517e-14
-1.64019e-16
-1.71478e-14
-1.3426e-13
-1.30302e-13
6.4768e-18
1.38235e-07
1.64296e-07
1.82217e-07
1.44442e-07
2.075e-07
1.82386e-07
3.0838e-07
5.04023e-07
3.98306e-07
4.11232e-07
8.31081e-07
4.99133e-07
2.77582e-09
2.16256e-09
2.27361e-09
1.37665e-09
1.86401e-10
7.52987e-09
1.19755e-05
1.44995e-05
1.35747e-05
1.37042e-05
1.38324e-05
9.27716e-06
6.36507e-06
8.51948e-06
7.67946e-06
6.79636e-06
6.16021e-06
7.28612e-06
1.82724e-07
1.98794e-07
1.90372e-07
1.27274e-07
7.02698e-08
3.55416e-07
8.21884e-06
8.8889e-06
8.54483e-06
9.15893e-06
9.45171e-06
5.66036e-06
1.72804e-06
1.52646e-06
1.59618e-06
1.56871e-06
1.39642e-06
1.38592e-06
3.07636e-07
3.3043e-07
3.13868e-07
2.83044e-07
2.29967e-07
3.77029e-07
4.62908e-06
5.69618e-06
5.41787e-06
4.61149e-06
4.33814e-06
6.27269e-06
3.50515e-07
4.08023e-07
3.93858e-07
3.46596e-07
3.34242e-07
4.6512e-07
1.81177e-07
1.85291e-07
1.85662e-07
1.81815e-07
1.8418e-07
1.88008e-07
3.50293e-07
4.06335e-07
3.92345e-07
3.46197e-07
3.3288e-07
4.58136e-07
1.81177e-07
1.8529e-07
1.85661e-07
1.81815e-07
1.8418e-07
1.88007e-07
1.75162e-07
1.78557e-07
1.79328e-07
1.75777e-07
1.78571e-07
1.80166e-07
3.27393e-06
2.63745e-06
2.64679e-06
3.28178e-06
3.07464e-06
2.34801e-06
4.68659e-06
2.75433e-06
2.915e-06
4.81503e-06
4.61367e-06
2.15511e-06
5.16622e-08
4.82133e-08
4.88802e-08
5.18362e-08
5.32422e-08
4.94541e-08
0.00699777
0.0072728
0.00719147
0.00688625
0.00660194
0.00713094
5.40008e-10
4.9626e-10
4.923e-10
5.35846e-10
5.20365e-10
4.76803e-10
-1.38153e-15
-5.45372e-16
-6.60776e-16
-1.92885e-15
-2.36422e-15
6.65748e-18
0.034303
0.0337417
0.0333344
0.033285
0.0331561
0.0333806
-4.66859e-21
-8.22278e-21
-8.67746e-22
-9.60769e-21
2.42015e-26
3.38768e-28
-4.03692e-15
-3.07665e-15
8.95667e-18
1.19829e-17
4.46115e-13
2.31681e-13
0.0363346
0.0362199
0.0359071
0.0356793
0.0356686
0.0359016
-2.79045e-16
-2.21298e-16
-1.30636e-17
-1.24379e-16
-1.77513e-15
-1.21582e-16
-3.60825e-27
-3.10502e-27
1.18473e-17
2.71605e-17
6.89852e-20
6.47224e-23
0.0367636
0.0367464
0.0367148
0.0366885
0.0366732
0.0366898
-3.57346e-16
-3.27117e-16
-6.21946e-16
-9.68082e-17
-5.30534e-15
-2.25159e-16
-5.7452e-27
-5.44723e-27
-5.91026e-27
-5.3269e-27
-9.44221e-27
-3.61042e-27
0.0359942
0.0360338
0.0360612
0.0360354
0.0360081
0.0360739
2.38602e-27
1.83571e-27
1.80239e-27
2.27495e-27
2.16388e-27
1.37123e-27
-4.74683e-27
-5.34936e-27
-5.85582e-27
-5.55624e-27
-6.32175e-27
-4.21389e-27
0.035582
0.0355987
0.0356397
0.035598
0.0355682
0.0355981
3.8619e-25
3.02955e-25
3.05023e-25
4.00666e-25
3.90326e-25
2.59786e-25
-3.8338e-27
-4.42606e-27
-4.84121e-27
-4.66773e-27
-5.14662e-27
-3.58585e-27
0.0331708
0.0331987
0.0331936
0.0331377
0.0330694
0.0331001
3.22065e-12
2.5122e-12
2.53573e-12
3.3812e-12
3.33862e-12
2.18756e-12
6.16086e-18
6.66122e-18
6.77934e-18
6.23154e-18
6.65207e-18
7.34798e-18
0.00224836
8.43769e-09
0.0158444
0.0407488
0.00213953
2.38244e-07
4.47189e-12
1.45023e-12
0.00104313
0.00288074
9.29304e-09
1.74241e-08
-9.35828e-21
1.55144e-18
1.44792e-12
9.29304e-09
6.72791e-18
-1.7478e-12
1.37196e-06
1.90518e-08
3.34805e-08
6.91738e-08
0.000696499
2.31854e-07
5.99852e-05
1.5762e-06
2.52196e-08
2.28649e-08
2.67114e-08
2.1428e-05
-1.37874e-14
-6.98555e-18
1.85722e-08
8.08044e-09
2.11601e-06
5.96269e-06
8.53718e-05
0.00166768
0.000308678
0.0101004
0.000145035
1.43448e-07
0.000216185
3.11514e-08
3.93636e-08
6.91728e-08
7.26992e-05
6.05839e-05
4.95308e-13
-1.25657e-12
1.42795e-06
8.31113e-07
1.08301e-05
2.27137e-05
0.000414009
0.00724324
0.00736119
0.00443069
1.25527e-06
2.82774e-08
1.86945e-05
0.000686376
0.000790542
0.000794599
2.40051e-07
1.51164e-09
8.36124e-08
3.0614e-08
8.28435e-07
4.68261e-08
8.58765e-10
9.7977e-10
9.87444e-05
0.0010974
0.00119066
2.66856e-05
3.44418e-06
4.93571e-08
3.0333e-07
0.00012192
0.000240836
2.16198e-05
3.25745e-09
1.66988e-09
1.3649e-09
2.13638e-08
1.97673e-08
1.33861e-06
5.65776e-09
3.15896e-10
8.15726e-07
1.83041e-07
1.85154e-08
2.33969e-09
3.74991e-08
4.5187e-07
2.58875e-08
5.17922e-08
4.00356e-08
9.47339e-10
6.81626e-11
2.57982e-10
4.00247e-10
6.35832e-10
4.89238e-10
1.18651e-10
3.14316e-11
5.29934e-11
7.04105e-09
6.04561e-08
1.68194e-09
1.25838e-09
8.78491e-11
3.32121e-08
6.50991e-10
6.2363e-10
4.3946e-10
6.89164e-11
3.14313e-11
8.38986e-10
4.00247e-10
3.98207e-10
3.79333e-10
2.97813e-10
3.14316e-11
3.14316e-11
1.59422e-09
2.49772e-07
8.38674e-07
2.36895e-09
2.3773e-07
1.53561e-06
7.84712e-10
2.04833e-09
5.32705e-09
7.55951e-08
6.18247e-11
2.19802e-10
4.00247e-10
9.36575e-09
2.00915e-08
1.47683e-08
3.14316e-11
5.57762e-11
2.51802e-09
1.62579e-07
1.76941e-06
1.0161e-08
3.03072e-09
2.3901e-09
1.59422e-09
7.46137e-09
1.08336e-06
3.91189e-07
9.22584e-11
2.22128e-10
9.18641e-08
3.51879e-07
1.80105e-07
4.09114e-08
1.47843e-10
5.96007e-09
4.54208e-08
1.31128e-07
7.08017e-07
4.45474e-08
4.52419e-09
7.1481e-11
1.26496e-05
1.0342e-05
5.48391e-06
1.94946e-07
-1.96569e-13
1.16962e-11
7.90655e-07
1.57009e-06
6.69205e-07
5.25297e-10
-2.87762e-13
2.26852e-11
2.02684e-06
3.72178e-07
7.43306e-07
2.57413e-07
2.64004e-09
-2.5952e-10
4.57167e-05
3.21747e-05
2.42108e-05
2.56735e-07
-1.47118e-12
5.14251e-14
2.81205e-07
1.75309e-07
2.47642e-07
2.15552e-09
-1.49518e-14
-2.94442e-16
0.00870484
0.00684414
0.00680593
0.00769826
0.00724298
0.00844236
6.36501e-13
5.68519e-13
1.55089e-10
2.04369e-11
2.26915e-13
1.06526e-15
2.63427e-10
-7.51942e-14
1.55203e-10
-1.79184e-16
2.79117e-18
2.32207e-18
)
;

boundaryField
{
    seabed_topleft_surface
    {
        type            zeroGradient;
    }
    seabed_topright_surface
    {
        type            zeroGradient;
    }
    breakwater_top_surface
    {
        type            zeroGradient;
    }
    breakwater_left_surface
    {
        type            zeroGradient;
    }
    breakwater_right_surface
    {
        type            zeroGradient;
    }
    water_front_surface
    {
        type            zeroGradient;
    }
    water_back_surface
    {
        type            zeroGradient;
    }
    water_left_surface
    {
        type            zeroGradient;
    }
    water_right_surface
    {
        type            zeroGradient;
    }
    water_top_surface
    {
        type            inletOutlet;
        inletValue      uniform 0;
        value           nonuniform List<scalar> 
180
(
0.000409372
0.00040952
0.000412354
0.000446413
0.000449576
0.000446166
0
0
0
0
0
0
0
0
0
0
0
0
0
0
0
0
0
0
0
0
0
0
0
0
0
0
0
0
0
0
1.82724e-07
1.98794e-07
1.90372e-07
1.27274e-07
7.02698e-08
3.55416e-07
3.07636e-07
3.3043e-07
3.13868e-07
2.83044e-07
2.29967e-07
3.77029e-07
1.81177e-07
1.85291e-07
1.85662e-07
1.81815e-07
1.8418e-07
1.88008e-07
1.75162e-07
1.78557e-07
1.79328e-07
1.75777e-07
1.78571e-07
1.80166e-07
0
0
0
0
0
0
0
0
0
0
0
0
0
0
0
0
0
0
0
0
0
0
0
0
0
0
0
0
0
0
0
0
0
0
0
0
0
0
0
0
0
0
0
0
6.77934e-18
6.23154e-18
6.65207e-18
7.34798e-18
0
0
1.44792e-12
9.29304e-09
0
0
0
0
0
0
0
0
0
0
0
0
0
0
8.36124e-08
3.0614e-08
8.28435e-07
4.68261e-08
8.58765e-10
9.7977e-10
1.3649e-09
2.13638e-08
1.97673e-08
1.33861e-06
5.65776e-09
3.15896e-10
4.00247e-10
6.35832e-10
4.89238e-10
1.18651e-10
3.14316e-11
5.29934e-11
4.00247e-10
3.98207e-10
3.79333e-10
2.97813e-10
3.14316e-11
3.14316e-11
4.00247e-10
9.36575e-09
2.00915e-08
1.47683e-08
3.14316e-11
5.57762e-11
9.18641e-08
3.51879e-07
1.80105e-07
4.09114e-08
1.47843e-10
5.96007e-09
0
1.57009e-06
6.69205e-07
0
0
0
0
0
0
0
0
0
0
0
0
0
0
0
)
;
    }
}


// ************************************************************************* //
