/*--------------------------------*- C++ -*----------------------------------*\
| =========                 |                                                 |
| \\      /  F ield         | OpenFOAM: The Open Source CFD Toolbox           |
|  \\    /   O peration     | Version:  v1612+                                |
|   \\  /    A nd           | Web:      www.OpenFOAM.com                      |
|    \\/     M anipulation  |                                                 |
\*---------------------------------------------------------------------------*/
FoamFile
{
    version     2.0;
    format      ascii;
    class       surfaceScalarField;
    location    "8";
    object      alphaPhi;
}
// * * * * * * * * * * * * * * * * * * * * * * * * * * * * * * * * * * * * * //

dimensions      [0 3 -1 0 0 0 0];

internalField   nonuniform List<scalar> 
2916
(
0.00178375
0.347802
-0.363642
-0.000568664
0.347128
-0.357642
-0.000216683
0.345801
-0.359762
-0.000787113
0.348855
-0.361715
-0.00195128
0.351625
-0.36373
0.345749
-0.361692
0.00154049
0.664009
-0.29159
-0.000541356
0.662599
-0.286416
-0.00293707
0.662353
-0.287265
-0.00189167
0.664364
-0.290153
0.00284078
0.666187
-0.293444
0.662395
-0.286742
0.00207799
0.73677
-0.0748162
-1.94907e-05
0.735601
-0.0708822
-0.00309395
0.735814
-0.0703643
-0.00110726
0.736679
-0.074279
0.00472976
0.737805
-0.0774315
0.735557
-0.0684108
0.000614442
0.628865
0.10731
8.67417e-05
0.626764
0.109385
-0.00118999
0.627472
0.109639
-0.000348045
0.62816
0.107697
0.00209767
0.629009
0.10637
0.62714
0.110534
-0.000768426
0.429496
0.200157
0.000135232
0.424309
0.201571
0.000455322
0.425911
0.20126
-2.11373e-05
0.427828
0.200828
-0.000769185
0.429364
0.200412
0.425142
0.201249
-0.000888631
0.191844
0.208859
0.000170026
0.184702
0.208848
0.00131071
0.186433
0.208693
0.000109847
0.190005
0.209251
-0.00204621
0.192052
0.209462
0.185249
0.208443
0.000650872
-0.0348416
0.179525
2.04449e-05
-0.037291
0.177466
-0.000256066
-0.0367424
0.177983
-0.000289178
-0.0351261
0.178982
0.00150387
-0.035324
0.179076
-0.036797
0.178037
0.00105996
-0.218814
0.137963
0.000433287
-0.216798
0.136329
-0.000260057
-0.216958
0.136797
0.000929785
-0.218356
0.13742
0.00328998
-0.221441
0.138447
-0.215199
0.137717
-0.000500371
-0.285059
0.0527343
0.000689866
-0.28402
0.0523804
0.00173191
-0.283669
0.0521749
0.0015577
-0.28536
0.0529675
0.00158963
-0.288619
0.0527992
-0.283141
0.0550268
-0.00129511
-0.2479
-0.0227658
0.000591513
-0.250559
-0.0216176
0.00310991
-0.249836
-0.0222888
0.000955529
-0.248952
-0.0217022
-0.00330591
-0.249609
-0.0224053
-0.251941
-0.0205907
-0.000580744
-0.167273
-0.0428373
0.000222794
-0.17609
-0.0394664
0.00219655
-0.175462
-0.0400818
0.000183268
-0.168142
-0.0418402
-0.00496533
-0.163858
-0.0429986
-0.179751
-0.0407739
0.00279477
-0.0975824
-0.00120222
-0.0986728
-0.00396993
-0.099114
-0.00197187
-0.0975009
0.00491813
-0.0976266
-0.10065
0.00102532
0.39828
-0.436347
0.00310795
0.392473
-0.425573
0.0116246
0.385654
-0.427309
0.00656497
0.403021
-0.433052
-0.0130652
0.419886
-0.436747
0.382272
-0.429174
-0.0038094
0.762883
-0.314161
-0.000248755
0.753534
-0.315508
0.00276166
0.750786
-0.318109
-0.000593856
0.764135
-0.311958
-0.00692068
0.775431
-0.306894
0.746359
-0.320446
0.000486772
1.05895
-0.126745
0.00086184
1.04958
-0.125337
-1.44971e-05
1.04966
-0.12527
0.000650678
1.05862
-0.126321
0.00156435
1.06688
-0.126305
1.04594
-0.124667
0.00300269
1.20376
0.0295788
0.00067718
1.19942
0.0305006
-0.00328174
1.19968
0.0319651
0.000562252
1.20341
0.0291745
0.00916833
1.20723
0.0284847
1.19786
0.0342371
0.000552722
1.20086
0.122555
0.000312751
1.1991
0.1227
-0.000770519
1.19815
0.123973
0.000268099
1.20145
0.122066
0.00380646
1.20284
0.121602
1.19806
0.124771
0.00426532
0.910085
0.0810901
0.000352673
0.918383
0.0843781
-0.00145861
0.913441
0.0847826
0.000187158
0.914703
0.0814061
0.00245257
0.914094
0.0808092
0.915101
0.0850949
0.00567074
0.39065
0.0187404
0.000207765
0.399182
0.0204674
-0.00440872
0.395908
0.0207968
-0.00125142
0.395041
0.0186436
0.00607064
0.392054
0.0171289
0.399431
0.0219422
0.000955634
0.235658
0.0025847
0.000605008
0.234528
0.00255999
-0.000566127
0.234905
0.00262086
0.00114026
0.234936
0.00253967
0.00476904
0.238312
0.00249341
0.228042
0.00267125
-0.0041059
0.220097
-0.0157298
0.000633333
0.224709
-0.0125305
0.00333912
0.224359
-0.0131125
-0.000717037
0.219772
-0.0156122
-0.00804958
0.218674
-0.0175358
0.223103
-0.010005
-0.00529781
0.128807
-0.0198037
-6.74495e-05
0.1306
-0.0186026
0.00407002
0.130918
-0.0184075
-0.000451847
0.128645
-0.0199122
-0.00911684
0.126092
-0.0205171
0.133539
-0.0181533
-0.00257059
0.032275
-0.0104419
-0.000132115
0.0245183
-0.011844
0.00213553
0.0256606
-0.0115581
0.000787019
0.0320428
-0.0102562
-0.00479409
0.036204
-0.00963209
0.0242361
-0.0120398
0.00487606
-0.00281691
-0.00107126
-0.000566859
-0.00612174
-0.000548471
-0.00115682
-0.00314611
0.00793009
-0.00434712
-0.000851843
0.00768977
0.137923
-0.000261056
-0.0037284
0.15371
-0.000216346
-0.0199849
0.161964
-0.000228654
-0.0102497
0.134578
-0.000282826
0.0155874
0.114598
-0.000410718
0.165522
-0.000245245
0.00141206
0.100269
-0.000835393
0.000853726
0.108
-0.000485751
0.00203359
0.108115
-0.000442776
0.00140479
0.101122
-0.000745101
0.00159614
0.0967489
-0.00105676
0.110566
-0.000348352
5.56395e-06
0.28275
-0.00107908
-8.41028e-05
0.286664
-0.00103065
0.000419705
0.28386
-0.00102849
-0.000509321
0.284057
-0.00107601
0.00126734
0.282977
-0.000862575
0.287223
-0.00076782
0.000664693
0.728009
-0.000537673
-0.000253604
0.728365
-0.000361472
-0.000971503
0.725963
-0.000492678
-0.00111067
0.727447
-0.000294919
0.000899668
0.726254
-0.000107368
0.727181
-0.000197846
-0.000206309
0.893186
-2.59786e-05
0.000106157
0.893593
-1.92795e-05
0.000510207
0.892594
-2.51189e-05
0.000303603
0.892506
-1.49684e-05
-0.00110552
0.892079
-5.40573e-06
0.891875
-1.17515e-05
0.00129629
0.808747
-2.87405e-06
0.000152682
0.810509
-2.23168e-06
-5.19908e-05
0.809204
-2.82503e-06
-8.81961e-06
0.810367
-1.64959e-06
-0.00161717
0.814357
-5.53918e-07
0.801509
-1.43361e-06
0.00987463
0.421861
-1.41105e-05
0.000185484
0.446695
-1.43062e-05
-0.0100764
0.440884
-1.40026e-05
-0.0022516
0.42869
-1.6438e-05
0.0159883
0.42636
-1.77455e-05
0.439109
-8.11309e-06
0.0044023
0.0443506
0.0267015
7.5418e-05
0.0677135
0.025892
-0.00636619
0.0627785
0.0263492
0.00607922
0.044072
0.0263435
0.0304574
0.0353193
0.026055
0.0815771
0.0194815
-0.00506356
-0.00712641
-0.00457453
-0.000464353
-0.0049406
-0.0071142
0.00252036
-0.00552667
-0.00672052
-0.00137092
-0.00784405
-0.00420176
-0.0092608
-0.00833095
-0.00288617
0.000241614
-0.00678294
-0.00143885
-0.016513
-1.5574e-05
-0.000328087
-0.0181275
-5.70618e-05
0.000414802
-0.0178838
-5.76384e-05
-0.000733409
-0.0170684
9.36533e-06
-0.00356836
-0.0164718
-1.89369e-05
-0.0177864
-0.000249648
0.00106718
-0.0147199
-0.00146375
-0.000629743
-0.0147786
-0.000356862
-0.00217878
-0.0144643
-0.000217363
-0.000872174
-0.0154701
-0.00164776
0.00200811
-0.0159569
-0.00207312
-0.0142857
-0.000474583
0.00127742
-0.0156156
-0.000677674
-0.0134054
-0.00194271
-0.0135635
-0.00140373
-0.0159301
0.00178255
-0.0177604
-0.0130914
4.99259e-06
6.30812e-06
-0.000219403
-2.30265e-06
1.70346e-05
-0.000177303
-1.64665e-05
2.18194e-05
-0.000182459
-7.81556e-06
4.08245e-06
-0.000237639
1.37855e-05
-9.8348e-06
-0.000359303
1.83667e-05
-0.000211277
1.75843e-06
1.18388e-05
-0.000792289
2.18684e-06
2.08702e-05
-0.000443709
5.52899e-06
2.26632e-05
-0.000396183
5.47578e-06
1.11127e-05
-0.000700673
2.82849e-06
2.91193e-06
-0.00101055
2.11535e-05
-0.000317631
-1.20334e-06
3.28275e-05
-0.00107605
-3.99026e-07
3.68978e-05
-0.00102723
3.21633e-06
3.6957e-05
-0.00102325
2.67646e-06
3.06538e-05
-0.00107083
1.88247e-06
2.03176e-05
-0.00086473
3.19988e-05
-0.000766144
-5.13007e-07
2.89853e-05
-0.000532005
-3.58975e-07
2.17414e-05
-0.00034505
3.07721e-07
2.82622e-05
-0.000483089
-2.22266e-08
1.67087e-05
-0.000279091
1.60655e-08
6.01907e-06
-9.22359e-05
1.33296e-05
-0.000178356
-1.55065e-08
3.05247e-06
-2.28916e-08
2.15384e-08
2.47592e-06
-3.3277e-08
6.50033e-08
3.16272e-06
-3.55926e-08
5.43092e-10
1.86185e-06
-2.65451e-08
-1.34087e-08
6.84962e-07
-2.9322e-08
1.62199e-06
-3.02423e-08
-1.09755e-09
4.89113e-07
-9.3836e-08
1.03906e-08
4.52076e-07
-1.80175e-07
2.38017e-08
5.20274e-07
-1.96398e-07
1.20032e-08
3.38866e-07
-8.01104e-08
-5.52253e-09
2.05716e-07
-6.46372e-08
3.52855e-07
-1.4611e-07
6.27073e-12
1.22929e-06
-1.4838e-05
4.2735e-10
8.82934e-07
-1.47608e-05
2.36535e-09
9.78034e-07
-1.44939e-05
3.48673e-09
1.28744e-06
-1.7429e-05
7.55539e-10
1.52457e-06
-1.90718e-05
4.72119e-07
-8.27292e-06
0.000318197
0.00488854
-1.74723e-05
-0.000190198
0.00776398
-0.000159355
-0.000492943
0.00731153
-0.000137743
0.000215154
0.00456313
1.0219e-05
0.00147897
0.00302707
8.78327e-05
0.00786079
-0.000161869
-0.000144598
-0.000118254
0.00024367
-5.76377e-05
-3.74096e-05
0.000240277
-1.21274e-05
-5.3786e-05
0.000243649
-9.8998e-05
-0.000135436
0.00025078
-0.000318121
-0.000187375
0.000239085
0.000260026
0.000173626
-4.81409e-05
-0.000113716
6.11431e-06
-1.5597e-05
-0.000163848
7.35763e-06
-1.70198e-06
-0.000160248
7.10587e-06
-4.96842e-05
-0.000105325
6.06237e-06
-0.000165989
-0.00011574
5.06093e-06
-0.00019919
7.8491e-06
-1.753e-05
-0.00214566
1.66028e-06
3.88947e-05
-0.00244744
3.96266e-06
7.12036e-05
-0.00250692
3.61967e-06
2.33927e-05
-0.00211812
4.34389e-07
-5.94599e-05
-0.00235574
-1.81756e-05
-0.00260242
2.61895e-06
-0.000171179
-0.0152711
0.000123034
-0.015745
0.000369334
-0.015673
0.00018257
-0.015151
-0.000425257
-0.0149264
-0.0156313
-0.0148499
0.0544326
-0.0395756
-0.0142815
0.00210641
-0.0026676
0.0150177
-0.00540576
-0.0264613
0.0105449
0.0157138
-0.0113546
0.0164153
-0.00605044
0.00297558
0.0441655
-0.0300258
-0.0024557
0.0857682
-0.0288728
0.012119
-0.0303169
0.0160169
0.0548021
-0.0433848
-0.00934296
0.0327513
0.0118164
0.0227077
-0.00958786
0.00427628
0.0293843
0.0626985
-0.0306723
0.0372807
0.033711
0.0129525
0.0617291
-0.0782555
0.0254389
0.0372586
-0.0215403
0.0181109
-0.0362499
0.0420089
0.0412387
-0.0553725
-0.0189933
0.0397372
0.0186808
-0.0132681
0.0171997
-0.0714313
0.0330463
0.0065165
-0.094584
0.0286984
0.013139
-0.0445566
0.0212996
-0.00296693
-0.0082046
0.0395779
-0.0197136
-0.0306254
0.0401228
-0.0286881
0.0205398
0.00864918
-0.108665
0.0210143
0.00290169
-0.110038
0.0139389
0.00829132
-0.127359
0.0171712
0.000355398
-0.106817
0.0266617
0.000837659
-0.0572499
0.0171155
-0.0582011
0.017245
0.00378933
-0.11233
0.0037034
0.000165612
-0.105189
0.00202281
0.00256985
-0.12722
0.0007042
0.0151299
-0.119246
0.00175899
0.0058073
-0.108282
0.0131335
-0.077795
0.00931029
-0.00521717
-0.103059
-0.000406119
-0.00133469
-0.101228
-0.000479452
0.00508475
-0.0953283
-0.000183508
0.00676572
-0.119132
-1.96374e-05
-3.42092e-05
-0.101104
-0.000516723
-0.0829446
-1.55711e-05
-0.0107933
-0.0903132
0.00132611
-0.00203
-0.0995029
-0.000220315
0.00221533
-0.0745
-0.000361268
-0.00212929
-0.0490161
0.00398333
-0.00566366
-0.0561299
0.0035008
-0.0810144
-8.07534e-05
-0.0202044
-0.0796989
0.00476973
-0.0127978
-0.0957802
-0.000997976
0.000212434
-0.0693543
-0.00044614
-0.00156726
-0.024611
0.00442085
-0.0103218
-0.0370602
0.00366292
-0.0810981
-0.000745399
-0.0274259
-0.0514797
0.00796327
-0.0303988
-0.0822963
-0.000742968
-0.0122519
-0.0664873
-0.00148729
-0.00508615
-0.0245778
0.00145195
0.000967535
-0.033675
-0.00259935
-0.0688208
-0.000715369
-0.0125371
-0.0282764
0.000985158
-0.0241069
-0.0446732
-0.00509786
-0.0281952
-0.0427632
-0.000535567
-0.00440296
-0.0245028
-0.0142841
0.0258764
-0.0234986
-0.0250035
-0.0337357
0.00144744
-0.00556487
-0.0086826
-0.00226958
-0.0244392
0.00208232
-0.0159025
0.0131357
-0.0198427
0.0220325
-0.0213055
-0.00104715
0.00936607
0.0850618
-0.134008
-0.0070632
0.0483701
-0.0347923
0.00977426
0.0660334
-0.1094
0.0146936
0.00967676
-0.0284911
-0.00687878
0.0165491
0.00383905
0.078745
-0.119133
0.0465295
0.137601
-0.128254
0.0232463
0.0387242
0.00124471
0.02136
0.0756455
-0.0187198
-0.025568
0.0264751
0.0486668
-0.0500293
0.0599511
0.00772186
0.121269
-0.125948
0.0633849
0.149511
-0.0650699
0.00408657
0.0137779
0.0378352
-0.00526763
-0.00376289
0.0426212
-0.0433822
0.00783329
0.0536718
-0.0662917
0.0202969
0.00466448
0.102901
-0.0631531
0.00953022
0.00913536
0.00862766
-0.00386636
0.00169508
0.0342414
-0.00871027
-0.00113413
0.0401726
-0.0203892
-0.00129597
0.0309026
-0.0246952
-0.00641804
0.0187185
0.000203812
0.00466947
0.00379396
4.59125e-05
0.000306198
-0.00282815
0.0018556
-8.28017e-05
-0.00823452
-0.00047181
0.000779204
-0.00410121
-0.0048391
0.00281468
-0.00111565
-0.0105072
0.00753301
-0.00356402
0.00931413
0.000428013
0.000672778
-0.000368831
0.000116974
0.00048976
-6.7565e-05
-6.75243e-05
0.000182936
-7.559e-05
-0.000498661
1.9708e-05
-0.000214609
-0.000177253
6.4715e-05
-2.43653e-05
1.03227e-05
-1.69349e-05
7.52648e-06
5.31736e-05
-1.90134e-05
1.3347e-06
3.24635e-05
-2.11588e-05
-3.98311e-08
6.54939e-06
-5.72459e-06
-6.31339e-07
4.68306e-08
-1.0527e-06
8.97784e-06
-0.000583151
-1.08045e-05
7.21742e-07
-3.06313e-06
0.000209747
0.000859994
-1.57842e-06
2.7835e-06
1.78535e-05
-9.80684e-07
-0.000378988
2.55349e-05
-9.59541e-07
-0.000639503
-0.000493268
-2.02706e-05
9.00932e-05
-0.00200089
4.5671e-06
9.14669e-07
-8.62991e-08
0.0037331
-0.00894357
0.000147524
0.000473003
0.000899302
2.233e-05
1.36934e-05
3.6189e-05
-4.34803e-06
0.000209854
-0.00024482
-1.90507e-05
0.000151365
-0.000483263
-6.78992e-05
-0.000549006
-7.25461e-05
0.000785763
-0.0133623
8.70346e-05
0.00155842
0.00010643
0.000385437
2.75699e-05
1.54019e-05
6.50179e-05
0.000201986
-0.000117034
-3.09345e-05
0.000234935
-0.000607069
-0.00305403
-0.00307343
-5.01141e-05
-0.00124784
-0.011169
-0.000215075
-1.78513e-05
-0.00564825
-0.000587525
-3.50777e-05
-0.000308504
-0.000215148
6.26659e-05
-0.000315456
-0.0142088
0.000975593
-0.000545958
-0.0259436
-0.00216088
-0.000311741
0.00123332
-0.0231931
0.000654113
-0.0247208
2.33055e-05
-0.0155953
-1.67775e-05
-0.0200842
-0.00139895
-0.0204278
-0.0104475
-0.00285489
0.0631899
-0.194303
-0.000151105
0.0601296
-0.0976866
0.0148767
0.0619402
-0.188062
0.0443191
0.0419467
-0.10396
0.0247734
0.0477342
-0.0270254
0.069346
-0.165897
-0.0163231
0.0982744
-0.0917733
0.0161316
0.114278
-0.0858349
0.0550442
0.0999477
-0.100254
0.0650703
0.0893628
-0.0118205
0.0334908
0.131713
-0.0475524
0.0521741
-0.0440496
0.0288515
0.0923261
-0.0407214
0.0277443
0.093481
-0.0431142
0.0253457
0.0575688
0.018465
-0.0380714
0.0257572
0.0640968
-0.0111916
0.0954428
-0.0637008
0.0262052
-0.0109391
0.0112264
0.0286424
-0.0268585
-0.0043489
0.00066121
0.0260234
-0.00576163
0.001211
0.0358075
-0.0261817
-0.00194141
0.0164049
-0.00960975
-0.0061077
0.00667996
0.00519201
-0.000972917
0.00153289
0.000425873
2.17343e-05
-0.000400249
0.000157207
0.00197826
-0.00076675
6.79588e-05
0.00216114
-0.00102295
0.000204014
0.000882893
-0.000658882
3.07719e-05
0.000941094
4.35691e-05
0.000203749
2.62869e-05
2.35622e-05
-1.8732e-05
3.051e-05
2.71549e-05
3.07081e-05
5.67442e-06
7.90012e-06
1.4733e-06
-6.1211e-06
1.89835e-06
-2.42105e-06
-1.64041e-05
1.28473e-05
7.97639e-07
6.05848e-06
-3.98348e-06
-1.85825e-06
5.76899e-06
-2.05712e-07
1.59071e-07
3.10613e-06
-1.40203e-06
-9.99862e-08
4.19189e-07
-4.41181e-07
-4.72179e-07
5.19948e-07
-6.09797e-08
3.8924e-08
1.13094e-06
-1.82484e-07
4.50385e-07
-1.85113e-07
-3.69637e-07
4.53383e-06
-2.12862e-08
-5.04968e-07
1.40354e-06
-1.30369e-07
-4.512e-06
1.12244e-06
7.8317e-09
-2.21723e-05
-2.6196e-06
-4.21958e-07
-1.20099e-06
-1.46725e-05
-3.6615e-06
-2.15304e-05
1.32335e-06
5.00071e-06
0.000144191
2.29355e-06
-3.6417e-07
2.74174e-05
-5.87602e-07
-2.22925e-05
1.05559e-05
2.06416e-06
-3.10835e-05
-1.86167e-05
1.26781e-06
1.57791e-05
-0.000147515
-2.37067e-06
-0.000382677
0.000206249
-3.56282e-06
0.000213829
3.07524e-05
1.74328e-05
0.000375535
1.48829e-05
3.63976e-06
8.7781e-05
4.07912e-06
0.000382658
-0.000219067
0.000168654
0.000877938
-0.000657998
-0.000550913
5.41351e-05
8.21854e-05
-0.000207185
4.32121e-05
0.000190551
-0.000199807
-0.000784184
0.00107604
0.000638443
-0.00120276
0.00153087
0.00121481
-0.00415598
-0.00969453
0.000451572
-0.00635843
-0.0181561
8.44331e-05
0.000115767
0.00439215
-0.023652
0.00311406
-0.0213232
0.00225126
-0.0135259
-0.00227174
-0.0206531
-0.00955487
-0.021399
-0.015533
-0.0128369
0.0123469
-0.0779088
0.00229513
0.0147946
-2.05111e-05
-0.00657078
0.0128524
-0.12147
0.0176807
0.0267499
-0.158247
0.0390832
0.0363093
-0.0470466
0.0259039
-0.00114489
-0.0452621
0.00280215
-0.000136245
0.00290741
0.0942233
-0.00023556
0.0382542
0.0503302
-0.000524474
0.0679744
0.0770195
-0.0429643
0.0328958
0.0624796
-0.0492821
0.00140039
-1.96796e-05
-0.0381665
0.000873359
-0.000446013
0.0285047
0.117113
-0.0717586
0.0325709
0.0986649
-0.0452594
0.0216722
0.0366849
0.00973441
0.00956508
0.0152051
-0.0133645
2.73524e-05
-8.6172e-08
-0.00479957
0.00226852
-0.00101282
0.00104458
-0.0001529
-0.00201015
0.00424935
0.00153757
0.0253037
0.00215533
-0.000327694
0.0115773
0.00144172
-0.000659156
-0.00072774
8.15471e-06
-3.23328e-07
-0.000672458
0.000335915
2.76696e-05
-0.00116729
0.000146902
0.00188365
-0.000294753
0.000100728
0.00257257
-0.000162098
1.08739e-05
0.000377924
3.67158e-05
5.57644e-06
5.2017e-05
7.28855e-05
1.0872e-06
-3.71528e-05
-2.53231e-06
4.48003e-06
-2.57635e-05
7.10463e-06
0.000142992
-4.68485e-06
1.71607e-06
7.49737e-05
-3.27326e-06
6.58891e-08
6.49073e-06
3.13267e-06
-1.31865e-06
7.29114e-07
4.77532e-06
3.79236e-06
-2.7172e-06
-1.68134e-07
2.51621e-08
-5.85736e-07
-4.16294e-07
2.28962e-06
-7.47138e-08
-1.65174e-07
8.76972e-07
-6.98423e-08
-5.10731e-08
4.13755e-08
-7.7482e-08
-1.48729e-06
5.91188e-09
3.22734e-06
3.16754e-08
-3.15732e-07
1.45596e-07
1.04912e-08
-1.64351e-06
5.22717e-07
7.38274e-07
8.88939e-07
-7.40324e-08
5.81996e-07
4.75133e-07
-1.31253e-07
3.07312e-08
-2.08968e-05
-3.90879e-06
1.07882e-06
-0.00011768
1.15528e-05
9.38489e-08
2.25711e-06
4.71481e-08
-7.46033e-07
2.1631e-06
3.90859e-07
-7.28955e-07
1.80718e-06
2.06327e-06
4.49543e-07
-1.79101e-07
8.58861e-08
-5.72028e-05
1.3874e-05
-1.22131e-07
-0.000131865
3.2257e-06
4.75652e-06
2.45471e-05
2.27063e-06
3.60691e-07
2.16015e-05
1.95321e-06
-8.81051e-06
2.04483e-05
3.76809e-06
1.26527e-05
0.000149
2.03724e-06
1.4764e-05
-0.000519795
-1.96894e-05
9.98813e-05
-4.69661e-05
1.72382e-05
0.00021595
5.26604e-06
3.7504e-05
0.00106526
1.77268e-05
0.000245668
0.00131465
3.78202e-05
0.00160781
-0.00684596
-0.00071757
-1.96382e-05
-0.00920815
-0.00176996
0.000199333
-1.43754e-07
0.00187111
-0.0215089
0.00466818
-0.018937
0.00853469
-0.0171868
0.00129747
-0.0171963
-0.00874601
-0.0174981
-0.0207898
3.50023e-05
-9.10558e-05
-0.000467384
-2.83723e-06
-6.70407e-06
-0.00011335
-3.44448e-05
-3.47408e-06
-6.48409e-05
-4.5294e-05
-4.94774e-05
-0.000448723
0.000120747
-0.000142848
-0.00083522
-8.43529e-06
-8.25723e-05
1.84381e-05
0.000905009
-0.000977354
1.60777e-05
0.000771985
-0.00087376
3.35433e-06
0.000730016
-0.000750368
3.9829e-05
0.000957045
-0.00129941
8.51835e-05
0.000953452
-0.00105197
0.000962451
-0.000848746
-8.71657e-05
-0.000542144
6.18963e-05
-0.000871502
0.000185819
-0.0010795
9.07003e-05
-0.000531001
-8.22768e-05
-0.000417821
-0.00121755
-1.23222e-05
-8.51918e-05
-0.00101318
2.45013e-05
-7.95102e-05
-0.000880488
0.000144754
-9.08389e-05
-0.000837208
0.000127905
-0.000150294
-0.00107831
-2.70729e-05
-0.00030661
-0.00140886
-5.75942e-05
-0.000656183
-1.30997e-05
-0.000501751
-0.000732883
3.3678e-05
-0.000202194
-0.000615776
0.000171515
-8.22764e-05
-0.000344977
0.000115519
-0.000510887
-0.000296901
-6.42812e-05
-0.000677152
-1.75293e-09
0.000103908
-0.000587972
6.031e-07
-2.6384e-13
7.0855e-06
-4.30415e-13
2.66427e-05
-4.48526e-13
3.20145e-05
-4.7446e-13
-4.7023e-06
-3.83157e-13
-0.000241677
-5.81015e-05
-0.000387132
-0.00068021
-2.1257e-05
-0.000320468
-0.000613948
4.04836e-05
-0.000252807
-0.00062311
1.00013e-05
-0.000182346
-0.000702887
-6.00016e-05
-7.56965e-10
-0.000372267
-0.000267945
-0.000327014
4.50172e-06
-3.93953e-13
-8.97334e-09
-1.84024e-06
-4.10957e-13
-1.77727e-08
-1.14164e-06
-3.63328e-13
-9.40023e-09
1.5868e-09
-8.14507e-14
-3.34903e-09
1.39608e-11
-2.44799e-14
-9.37059e-10
-0.000177665
-2.89034e-08
9.19437e-16
-6.58712e-13
4.34103e-16
-8.40975e-13
-3.61945e-16
-8.11089e-13
4.95797e-16
-5.56769e-13
6.11929e-15
-4.13316e-13
-1.47578e-10
-4.22404e-06
-1.37832e-08
-3.19229e-07
-6.54102e-06
-1.50509e-08
-4.6718e-07
-1.4126e-05
-1.63448e-08
-4.81905e-07
-3.32792e-06
-2.63027e-08
-3.65807e-07
-8.1506e-07
-5.0842e-08
-4.19686e-07
-5.01837e-09
-3.97662e-07
5.03712e-11
-9.56127e-11
-2.27214e-08
-1.39929e-11
-9.60905e-11
-3.26728e-08
-1.36845e-10
-8.83014e-11
-2.55422e-08
-6.63301e-11
-9.61424e-11
-2.96352e-08
2.92085e-10
-9.08074e-11
-5.20549e-08
-8.26163e-12
-3.36407e-08
1.46111e-13
-9.64175e-11
1.82448e-14
-9.68176e-11
-8.47957e-14
-8.90107e-11
7.28148e-14
-9.68567e-11
3.05322e-13
-9.14614e-11
-1.55581e-10
-8.88883e-10
-4.46826e-08
-2.94315e-07
-3.33829e-11
-7.13972e-08
-4.27572e-07
6.98617e-10
-5.80092e-08
-4.45899e-07
8.83581e-11
-5.75078e-08
-3.19976e-07
-1.40863e-09
-9.4472e-08
-3.38635e-07
-6.52901e-08
-3.52334e-07
1.74976e-09
-2.04136e-09
-6.84507e-08
-7.09747e-10
-2.3657e-09
-1.00492e-07
-4.31737e-09
-2.0878e-09
-7.89708e-08
-2.7239e-09
-2.1762e-09
-8.77281e-08
7.36164e-09
-2.56437e-09
-1.5508e-07
-2.59874e-09
-9.09964e-08
1.51816e-11
-2.15254e-09
-2.14982e-12
-2.44667e-09
-2.19645e-11
-2.15694e-09
-6.99726e-12
-2.28737e-09
2.23738e-11
-2.68453e-09
-2.73544e-09
-1.39748e-08
-3.41664e-07
-1.06285e-07
1.05139e-08
-8.31437e-07
-2.65255e-07
5.00409e-08
-6.87302e-07
-2.22019e-07
2.39524e-08
-4.13991e-07
-1.32048e-07
-2.77323e-08
-5.20508e-07
-1.9832e-07
-8.62835e-07
-3.37795e-07
3.48408e-08
-3.31634e-08
-3.91266e-06
-1.22167e-08
-5.4665e-08
-5.68106e-06
-6.04674e-08
-4.77674e-08
-4.8809e-06
-1.00362e-08
-3.52027e-08
-4.55197e-06
2.01873e-07
-5.62575e-08
-4.58741e-06
-7.29392e-08
-4.11505e-06
4.29984e-10
-8.93276e-08
9.32683e-12
-1.10927e-07
-5.94373e-10
-9.83621e-08
-1.70537e-10
-6.11803e-08
7.07027e-10
-6.71613e-08
-2.52649e-07
2.36066e-06
2.5299e-05
-0.000101455
-9.01216e-07
2.55981e-05
-4.80347e-05
-2.64698e-06
2.42053e-05
-5.79734e-05
7.10324e-07
2.87077e-05
-0.000115387
6.02323e-06
3.20655e-05
-0.000150835
1.53242e-05
4.02115e-06
1.4971e-07
1.63352e-06
-3.74729e-05
-3.71467e-07
2.7675e-06
-3.27552e-05
-1.32206e-07
2.24466e-06
-3.37805e-05
5.19951e-07
1.00639e-06
-3.84384e-05
1.70082e-06
1.53107e-08
-3.93937e-05
4.95323e-06
-2.21748e-05
-1.57856e-09
-1.71544e-06
2.05508e-09
-1.64457e-06
1.22112e-08
-1.62156e-06
1.20251e-08
-1.65726e-06
1.23571e-08
-1.56213e-06
-1.31969e-06
3.27908e-05
4.18781e-05
-0.000220831
-2.16298e-05
3.52577e-05
-0.000188908
-6.34924e-05
3.67482e-05
-0.000196545
-1.00155e-05
4.17416e-05
-0.000230738
8.79726e-05
4.10248e-05
-0.000248446
2.33869e-05
-8.62862e-05
-5.68028e-08
8.76553e-06
-1.09334e-05
-6.32461e-07
9.28141e-06
-1.24253e-05
-7.75672e-07
9.04491e-06
-1.2078e-05
-4.07977e-07
8.98302e-06
-1.11514e-05
4.08809e-07
7.67504e-06
-1.1448e-05
8.87611e-06
-1.08714e-05
-7.17594e-08
-1.8928e-07
-1.35282e-08
-2.3761e-07
8.35025e-08
-2.2914e-07
1.05107e-08
-1.90226e-07
-1.23239e-07
-1.8705e-07
-2.50217e-07
-1.03434e-05
1.21834e-05
-9.17726e-06
-6.04746e-08
1.54175e-05
-9.5513e-06
7.9845e-06
1.46864e-05
-9.72131e-06
-4.69618e-06
1.21372e-05
-9.39711e-06
-4.39124e-05
1.12282e-05
-9.75207e-06
1.60533e-05
-6.87089e-06
-5.02143e-07
8.23251e-07
-5.64708e-08
7.30343e-08
1.10896e-06
-1.28119e-07
4.2647e-07
1.05297e-06
-1.25531e-07
-3.10013e-07
8.22962e-07
-6.12416e-08
-2.21628e-06
8.33453e-07
-7.16651e-08
1.26732e-06
-1.39024e-07
-1.50878e-08
3.12531e-08
-3.58386e-09
3.95612e-08
3.72593e-09
3.70272e-08
-1.68534e-08
3.29205e-08
-4.24854e-08
3.43697e-08
4.95496e-08
-6.75319e-07
2.45233e-07
-3.6147e-06
2.24002e-07
2.60221e-07
-4.77641e-06
6.88277e-07
2.54876e-07
-4.65091e-06
-3.66952e-07
2.45931e-07
-3.48061e-06
-3.42279e-06
2.35218e-07
-2.783e-06
2.50102e-07
-4.49357e-06
5.82468e-09
-6.46829e-08
4.48525e-07
7.99469e-09
-5.05205e-08
3.48498e-07
3.71068e-09
-4.54185e-08
3.46755e-07
-2.84489e-09
-6.49777e-08
4.59692e-07
-3.69044e-08
-5.13416e-08
4.40312e-07
-6.96852e-08
3.10478e-07
5.78321e-10
6.26048e-08
-7.3822e-10
5.82865e-08
-2.22429e-09
5.89564e-08
-8.61901e-10
6.30548e-08
1.4147e-09
6.36538e-08
5.52148e-08
-7.93006e-06
5.00037e-05
-7.16399e-05
8.00228e-06
2.33608e-05
-5.83431e-05
1.95963e-05
2.49232e-05
-5.64678e-05
9.25804e-06
5.11144e-05
-7.17998e-05
-1.7456e-05
5.25859e-05
-7.48671e-05
1.91042e-05
-5.50506e-05
1.36174e-07
-2.59261e-08
6.1234e-06
1.82838e-08
-1.2907e-07
4.73927e-06
-1.05385e-07
-1.0799e-07
4.7773e-06
1.85617e-08
-1.30734e-08
6.1875e-06
1.82442e-07
2.68366e-08
5.87646e-06
-1.05017e-07
4.02078e-06
-2.05272e-11
3.51291e-08
1.38088e-10
2.96742e-08
1.55418e-10
2.94712e-08
1.05639e-10
3.49042e-08
-6.96671e-11
3.28725e-08
2.64153e-08
-7.96505e-05
-6.10454e-06
-0.0176838
-5.92832e-06
-4.73154e-06
-0.0177225
4.84548e-05
-4.76945e-06
-0.0177229
-1.33787e-05
-6.16609e-06
-0.0177208
-0.000169816
-5.85122e-06
-0.0177565
-4.01394e-06
-0.0176691
1.68939e-09
-3.49241e-08
4.86164e-08
-1.23692e-09
-2.95287e-08
3.80248e-08
-4.7216e-09
-2.93279e-08
3.83311e-08
-2.32032e-09
-3.46998e-08
5.0171e-08
3.69156e-09
-3.26596e-08
4.83793e-08
-2.62881e-08
3.27006e-08
1.14006e-11
1.93626e-10
-4.54145e-12
1.61431e-10
-1.94462e-11
1.5822e-10
-8.76289e-12
1.9371e-10
1.54392e-11
1.88712e-10
1.42713e-10
0.000878878
-5.77826e-11
-0.0124986
0.0170875
0.000956585
-4.84396e-11
-0.0123489
0.0177375
0.000536648
-1.07089e-08
-0.0121269
0.0181386
-0.000244136
-1.40687e-09
-0.0121447
0.0181567
-0.00107749
-1.94401e-11
-0.0121356
0.0180632
-2.69904e-13
-0.0121853
0.0167958
-5.42944e-15
-5.78462e-11
7.12983e-17
6.89337e-14
-1.07745e-11
-3.7718e-11
4.92348e-17
4.73859e-14
-2.3289e-12
-1.49643e-10
1.38045e-17
-1.05677e-08
-1.29758e-14
-1.11522e-11
1.52863e-17
-1.39803e-09
-3.5858e-17
-5.92601e-13
1.79446e-16
-1.88606e-11
-1.93773e-13
1.63645e-17
-7.61831e-14
3.75348e-12
1.30149e-28
-6.16484e-11
4.93926e-12
2.14847e-29
-3.89309e-11
1.00767e-11
8.25402e-15
-1.54797e-10
2.49253e-14
-6.6456e-17
-1.12461e-12
1.41264e-14
-9.54465e-21
-7.24634e-14
-8.44216e-24
-3.32473e-16
-0.000443482
1.19345e-16
-0.0065135
-0.000593227
1.03145e-16
-0.00632301
-0.000328379
4.16421e-17
-0.00620013
-0.000153712
5.94212e-17
-0.0063244
-0.000105295
8.49335e-16
-0.00649795
5.63962e-17
-0.00636855
7.2868e-18
1.5087e-27
8.29576e-17
4.41376e-18
1.38394e-27
7.34175e-17
5.44324e-18
-7.58772e-15
1.27586e-16
4.19763e-17
-1.37264e-17
1.7809e-17
-4.86456e-18
-2.99263e-20
9.1492e-16
-2.78729e-23
3.71698e-17
-5.93441e-29
1.94534e-28
-1.38589e-28
2.20991e-28
7.94116e-16
3.20604e-28
1.94639e-18
4.0737e-28
1.88353e-21
8.63355e-28
3.35969e-28
-0.000128797
5.82432e-17
-0.000384177
-9.57298e-05
5.44607e-17
-0.000352221
3.12307e-05
1.05645e-16
-0.000310267
1.39786e-05
1.64167e-17
-0.000263607
-7.34094e-05
9.11324e-16
-0.000258715
3.76993e-17
-0.000293652
5.63683e-18
1.24715e-27
-2.57257e-15
1.8184e-17
1.20627e-27
-1.92551e-15
3.32097e-18
1.30285e-27
-1.80216e-15
1.43609e-16
1.17221e-27
-2.16122e-15
3.70274e-18
2.08548e-27
-1.98066e-15
7.77088e-28
-1.2469e-15
-8.84609e-29
-4.89316e-28
-1.60729e-28
-4.40907e-28
-2.00979e-28
-4.31196e-28
-1.43606e-28
-3.32786e-28
-1.05749e-28
-5.2649e-28
-1.8977e-28
-6.84765e-05
-5.36219e-13
0.00587248
-0.000155856
-4.09887e-13
0.00588958
-0.000210681
-4.04109e-13
0.0059348
-0.000190989
-5.14861e-13
0.00595375
-8.46373e-05
-4.95624e-13
0.0059532
-3.12602e-13
0.00590434
-1.10245e-16
1.22424e-27
-5.38681e-13
-1.73669e-16
1.38295e-27
-4.11749e-13
-2.38842e-16
1.50755e-27
-4.05846e-13
-1.74656e-16
1.4383e-27
-5.17086e-13
-3.61746e-17
1.64954e-27
-4.97743e-13
1.08726e-27
-3.13885e-13
-3.36347e-29
-1.02039e-27
-8.01077e-29
-1.14357e-27
-1.06354e-28
-1.22798e-27
-8.25811e-29
-1.13919e-27
-4.43128e-29
-1.27289e-27
-8.42746e-28
-4.88209e-05
-2.17811e-10
0.0126045
-0.000149966
-1.69886e-10
0.0126466
-0.000216877
-1.71488e-10
0.0126707
-0.000194729
-2.28714e-10
0.0126707
-7.82162e-05
-2.2588e-10
0.0126625
-1.47972e-10
0.012627
-2.32314e-14
1.55853e-27
-2.18327e-10
-3.15672e-14
1.79576e-27
-1.7029e-10
-5.2786e-14
1.96355e-27
-1.71872e-10
-4.52812e-14
1.90858e-27
-2.29238e-10
-1.2666e-14
2.12555e-27
-2.26411e-10
1.45961e-27
-1.48299e-10
-1.65014e-29
-5.66652e-28
-3.88646e-29
-6.64523e-28
-5.4271e-29
-7.07662e-28
-4.26667e-29
-6.48989e-28
-1.56336e-29
-6.85419e-28
-4.87994e-28
-5.57165e-05
-4.8572e-08
6.99107e-06
-3.79984e-08
6.65982e-05
-3.83013e-08
-1.35692e-05
-5.01092e-08
-0.000169419
-4.83131e-08
-3.26815e-08
-3.5101e-12
-1.93558e-10
-2.14881e-12
-1.61438e-10
-3.40695e-12
-1.58238e-10
-2.21499e-12
-1.93674e-10
7.71335e-13
-1.88684e-10
-1.42758e-10
6.82828e-14
6.03604e-14
3.97571e-14
6.55371e-14
6.96543e-14
2.1838e-05
-5.322e-05
-1.61186e-06
2.06632e-06
-3.38952e-08
-8.07397e-07
-0.0147071
-0.00917677
-2.60901e-06
-0.00973125
-0.0345186
-0.00111341
0.00113598
-1.29729e-06
-0.000168532
-8.36164e-06
-2.74886e-08
2.27967e-08
-4.92092e-10
-5.32419e-05
9.23306e-07
-7.75242e-12
-9.34357e-07
-0.00192003
1.89296e-05
-9.95574e-07
-3.2484e-07
7.8859e-06
-1.56225e-06
-3.81611e-07
-7.77735e-08
-1.14661e-06
-2.13499e-07
-8.49538e-06
2.1042e-13
-4.92302e-10
1.36762e-10
-1.44304e-10
-5.39178e-06
-1.91534e-07
-3.68513e-08
-3.9758e-08
-3.58624e-08
-7.87624e-08
-2.49408e-07
-1.17288e-07
-0.000174607
-2.13883e-06
-6.23911e-07
-2.30614e-05
-0.000213121
-0.000495289
-3.2665e-07
-3.24182e-05
-0.00115943
-2.71669e-06
-0.000792391
-2.47509e-06
-0.000132025
0.000232096
-2.11643e-05
-1.51869e-07
2.51095e-05
-5.78464e-08
-0.000232758
3.58103e-07
-3.07738e-08
-3.45341e-07
-5.01445e-08
-1.44946e-07
-9.83979e-07
-3.60417e-06
-2.9274e-07
-5.38514e-07
-2.85199e-05
-9.94184e-06
-9.82637e-05
-2.40626e-05
-4.71975e-05
2.90167e-10
-5.86312e-08
5.10198e-11
-3.0679e-08
-2.27109e-09
-5.97002e-07
-6.1865e-09
-5.00129e-07
-2.32643e-06
-1.02526e-05
-1.80259e-05
7.68296e-05
-0.000219261
-0.000152571
-5.56712e-05
-0.000507783
0.00472331
-0.00193845
-0.000141689
0.00280412
-0.000263498
-7.82473e-05
0.0236473
-7.77636e-06
-0.000244223