/*--------------------------------*- C++ -*----------------------------------*\
| =========                 |                                                 |
| \\      /  F ield         | OpenFOAM: The Open Source CFD Toolbox           |
|  \\    /   O peration     | Version:  v1612+                                |
|   \\  /    A nd           | Web:      www.OpenFOAM.com                      |
|    \\/     M anipulation  |                                                 |
\*---------------------------------------------------------------------------*/
FoamFile
{
    version     2.0;
    format      ascii;
    class       volScalarField;
    location    "8";
    object      p;
}
// * * * * * * * * * * * * * * * * * * * * * * * * * * * * * * * * * * * * * //

dimensions      [1 -1 -2 0 0 0 0];

internalField   nonuniform List<scalar> 
1116
(
15745.4
15739.5
15745
15742.9
15748.7
15743.9
15585.3
15581.8
15583.5
15587.5
15600.4
15580.5
15667.6
15662.5
15663.5
15667.1
15674.7
15661.7
16054.1
16051.5
16051.5
16053.6
16056.7
16050.4
15908.7
15908.2
15907.8
15908.8
15909.4
15908.1
14631.1
14630.5
14630.6
14630.6
14630.3
14632.4
12311.3
12307.8
12309.5
12311.4
12311.3
12309.6
8796.33
8800.87
8801.2
8796.26
8794.09
8804.83
6480.35
6476.77
6477.25
6477.43
6480.12
6469.32
5525.74
5522.57
5522.62
5521.04
5525.91
5511.67
4974.88
4963.08
4963.19
4973.15
4975.94
4959.68
4678.77
4669.41
4671.86
4683.51
4689.07
4673.1
8067.95
8059.74
8059.8
8074.37
8079.85
8062.35
6421.37
6444.8
6444.08
6429.18
6431.06
6446.3
6432.68
6431.89
6432.1
6429.3
6440.49
6425.13
7230.73
7222.85
7223.29
7225.77
7232.01
7212.6
7081.67
7080.86
7081.24
7080.07
7081.76
7078.91
5515.25
5513.39
5516.35
5511.9
5511.53
5518.45
3594.89
3589.48
3592.86
3596.18
3600.03
3599.49
2127.74
2124.65
2125.16
2130.03
2131.47
2131.41
1186.29
1203.67
1197.19
1188.75
1177.7
1225.02
1008.96
1010.74
1009.1
1007.52
1004.35
1005.24
1005.45
996.727
996.305
1009.77
1010.47
995.753
1106.41
1088.63
1093.77
1113.94
1121.25
1081.16
1829.03
1844.13
1846.1
1829.76
1832.66
1846.46
456.246
466.542
465.298
456.58
451.338
469.425
571.713
572.13
570.67
575.676
578.844
571.795
1222.22
1210.68
1210.69
1220.9
1223.81
1206.17
1755.79
1759.21
1758.47
1754.62
1751.47
1757.98
1498.16
1495.41
1496.91
1493.14
1491.06
1502.42
1099.08
1077.41
1084.39
1097.75
1116.13
1055.23
871.628
872.397
874.636
870.464
849.511
816.25
249.194
270.621
263.752
251.775
239.246
287.921
123.006
132.623
130.975
123.626
119.753
134.435
175.572
175.893
176.421
177.108
179.437
178.439
134.61
135.122
136.381
135.301
139.114
141.668
-13.9585
-13.9159
-14.4947
-14.0271
-13.3391
-14.3513
-19.263
-18.9271
-19.7198
-20.9173
-21.7624
-21.3491
-41.6143
-41.3476
-40.9268
-41.7411
-42.6068
-43.0721
-82.3818
-81.5529
-81.3539
-82.4887
-83.4759
-81.4483
-118.759
-118.145
-118.267
-118.866
-119.258
-117.236
-125.148
-126.718
-126.769
-125.531
-125.546
-125.476
-71.4374
-74.1516
-73.8378
-69.9247
-69.0146
-73.1247
8.1951
4.66949
6.51864
9.90837
10.303
5.39903
32.5753
33.9757
33.5464
32.5163
30.8885
33.9217
26.9705
28.4442
28.3824
26.8402
27.1708
30.6594
25.6192
25.8182
25.8758
26.1805
26.4374
27.2561
-29.1122
-28.7493
-29.2354
-29.6879
-31.4935
-29.0191
2659.65
2586.11
2609.77
2562.21
2550.81
2585.11
2517.57
2452.36
2458.87
2409.16
2363.86
2430.52
2134.95
2037.66
1966.04
1952.22
2003.96
2015.35
1482.6
1336.48
1290.78
1328.39
1275.87
1362.91
768.061
710.083
764.73
726.304
666.263
687.977
359.201
334.549
347.591
406.221
458.851
455.547
311.368
300.491
292.891
316.228
321.026
300.059
308.479
298.592
232.279
227.732
239.543
239.58
296.501
263.291
208.722
186.78
182.726
240.488
271.521
253.035
205.934
163.651
193.069
252.156
336.998
327.388
257.217
327.733
397.019
351.862
359.532
370.152
350.52
372.456
390.122
374.874
1736.29
1622.5
1691.03
1669.95
1588.99
1649.22
1511.43
1352.27
1478.07
1361.26
1218.1
1353.4
1065.12
1021.88
1024.77
953.476
957.778
953.563
515.992
522.082
568.352
564.115
585.865
550.081
53.8236
30.0326
12.703
42.4923
96.7972
125.246
-25.7686
-32.1521
-31.568
-29.411
-25.0072
-18.5111
-2.71245
-3.74705
2.17052
5.01598
-0.778375
-5.60237
19.4808
13.8963
4.67051
7.74872
8.10066
2.9961
19.4156
8.48232
-3.20328
-1.90343
-2.53932
4.98636
18.4097
9.53465
11.4912
11.9272
13.8527
20.7667
33.1296
45.9988
45.0187
54.1213
52.6631
29.2285
37.8296
55.7389
58.0443
65.2467
55.5101
37.5588
974.41
864.305
990.477
1007.48
963.046
975.495
578.754
674.263
761.505
739.15
551.347
425.314
395.215
502.5
580.822
377.694
291.227
173.848
141.763
101.17
163.962
118.188
115.254
62.2461
5.52531
3.07512
2.72234
-0.297128
0.719954
0.296799
-9.54529
-8.04503
-8.47057
-12.3133
-18.0785
-15.0285
-0.732183
0.543143
0.55035
-0.882045
-1.38691
-3.87373
-2.85356
-3.83378
-6.87062
-6.59014
-5.20308
-6.22835
-18.5283
-18.6827
-24.7933
-20.4311
-17.2378
-14.7665
-28.8911
-26.173
-24.9746
-18.6778
-20.2127
-18.582
-22.5579
-22.0013
-17.1757
-21.7284
-26.1765
-23.9429
-47.6804
-60.1512
-49.1317
-32.0458
-40.7422
-38.6193
281.229
150.684
310.094
422.077
408.469
357.322
21.07
211.353
180.837
426.591
135.67
5.02271
-4.27679
101.368
225.618
61.9422
-13.6107
-28.86
-58.7351
-59.5604
-15.0587
-24.7376
-47.2741
-42.2812
-35.4506
-30.65
-22.326
-21.1392
-20.347
-24.0665
-23.8212
-21.2353
-21.1844
-23.2653
-21.5162
-22.577
-22.3203
-20.0032
-20.4324
-21.7961
-22.1499
-22.9574
-25.9063
-26.6552
-28.4272
-27.0765
-25.8024
-24.0213
-34.723
-37.2872
-40.1351
-34.9413
-35.4861
-29.693
-38.9938
-41.5291
-47.8368
-42.6154
-43.2811
-42.3269
-24.8444
-28.4476
-33.6204
-41.7051
-33.6046
-28.2586
-53.4783
-59.9034
-65.9785
-89.3285
-102.031
-58.4644
-9.64209
-10.4626
-11.7245
-9.91274
-8.60394
-10.9478
-40.1128
-38.901
-40.1439
-39.7908
-40.452
-38.7203
-69.5509
-68.1873
-68.5823
-69.9826
-70.387
-66.8768
-27.7953
-27.5237
-28.1522
-29.4193
-30.5957
-28.8226
-58.5731
-57.6591
-57.8924
-58.9015
-59.5594
-57.4785
-80.5985
-79.5159
-79.4618
-80.1723
-79.9044
-77.7532
-48.0616
-47.2498
-47.0096
-48.2559
-48.9939
-46.7386
-70.9852
-70.5802
-70.5606
-70.8513
-70.9217
-69.4803
-85.5704
-85.9183
-86.0777
-85.3415
-85.3185
-86.434
-68.6495
-67.9876
-68.0444
-68.4476
-68.4809
-67.7241
-75.3779
-75.3656
-75.4065
-75.1672
-74.8897
-75.2778
-80.2708
-80.5336
-80.4894
-80.3364
-80.2343
-80.6973
-93.8095
-93.0796
-93.2517
-93.7444
-94.2097
-93.1385
-81.9546
-81.7802
-81.7836
-81.8902
-81.8402
-81.6505
-74.9972
-75.305
-75.2553
-74.8442
-74.4971
-75.1832
-130.791
-130.711
-130.992
-131.41
-131.669
-129.824
-88.8574
-88.9155
-88.9183
-88.9356
-88.6736
-88.7452
-68.7167
-68.8404
-68.8223
-68.6292
-68.3795
-68.9784
-137.414
-139.051
-138.737
-137.701
-136.477
-138.701
-85.7503
-85.7672
-85.5566
-85.7418
-85.5617
-85.9573
-63.3685
-63.2973
-63.2368
-63.2764
-63.3227
-63.6838
-77.7873
-78.8952
-78.6993
-78.0303
-78.7885
-82.7568
-67.3241
-67.5987
-67.5703
-67.4028
-67.7434
-68.9284
-63.79
-63.8288
-63.807
-63.6331
-63.628
-63.8125
-15.419
-15.2611
-15.5694
-15.6485
-17.1171
-15.7038
-43.6064
-43.5605
-43.7562
-43.6869
-44.0545
-43.9508
-61.61
-61.6245
-61.6546
-61.5164
-61.4609
-61.6296
-11.1798
-10.2944
-10.5808
-11.1403
-11.3079
-9.17925
-44.9796
-45.0045
-45.022
-44.8088
-44.6895
-44.5809
-59.9872
-60.0828
-60.0752
-59.992
-59.972
-60.146
-19.5449
-19.3868
-19.4882
-19.7258
-20.0837
-19.3324
-46.2939
-46.386
-46.3547
-46.2618
-46.126
-46.3158
-58.9144
-58.9332
-58.9517
-58.9348
-58.9342
-58.9683
-23.0626
-22.5474
-22.7822
-23.2501
-23.8462
-22.4185
-50.1888
-50.168
-50.1081
-50.0651
-49.9533
-49.9577
-65.3501
-65.3909
-65.3901
-65.3493
-65.3088
-65.3738
107.148
103.572
102.496
103.332
102.513
103.285
-47.6017
-47.6288
-47.4986
-47.0418
-46.8362
-46.7986
-69.1174
-69.235
-69.3011
-69.4094
-69.4767
-69.4912
126.706
126.029
125.28
124.321
123.805
124.791
-48.9595
-48.8475
-48.6467
-48.4845
-48.3838
-48.3904
-67.5655
-67.5536
-67.619
-67.841
-68.0363
-68.1148
132.062
131.866
131.548
131.451
131.444
131.483
-48.1694
-48.1534
-48.103
-48.0142
-47.9523
-47.9201
-68.1691
-68.1897
-68.2223
-68.255
-68.2851
-68.2943
129.527
129.63
129.659
129.513
129.401
129.61
-48.072
-48.0469
-48.0118
-47.9778
-47.9505
-47.9353
-68.1462
-68.1504
-68.1674
-68.1934
-68.2156
-68.2284
126.858
126.948
127.026
126.768
126.595
126.753
-46.5494
-46.5344
-46.5219
-46.488
-46.4517
-46.4363
-67.9155
-67.9198
-67.917
-67.9188
-67.9239
-67.9289
105.92
106.416
106.178
105.525
104.746
105.67
-45.5819
-45.5278
-45.5283
-45.5527
-45.5557
-45.4776
-68.6177
-68.6224
-68.6285
-68.6325
-68.6385
-68.6409
-27.6257
-33.6603
-18.8836
3.32646
-28.9354
-39.9678
-51.6481
-52.4155
-54.1429
-56.0222
-56.8109
-55.3356
-65.9573
-66.7988
-64.3838
-64.2981
-67.5721
-65.872
-51.1056
-45.9804
-43.4149
-49.4025
-69.2416
-69.3927
-62.1392
-64.4434
-65.5368
-72.4928
-70.7376
-66.061
-69.6019
-70.9382
-71.8017
-71.717
-68.6023
-66.8483
-60.5075
-69.9094
-77.6497
-75.3267
-84.1174
-72.7271
-71.8743
-79.7991
-82.1545
-85.0288
-81.2765
-73.4836
-67.2983
-69.9545
-70.4303
-70.3674
-66.8267
-65.9836
-92.8267
-117.925
-118.889
-79.6516
-80.3481
-70.2981
-75.148
-84.7357
-86.6707
-82.1862
-74.2239
-68.4218
-67.2303
-67.8717
-68.0171
-67.5157
-65.3346
-65.1799
-53.3482
-50.6061
-41.7035
-38.4687
-39.5351
-39.818
-58.571
-59.541
-56.9135
-52.4711
-54.5736
-53.6224
-64.6305
-65.2759
-65.0033
-64.0239
-63.8452
-63.5853
-31.7573
-29.2107
-27.716
-30.0228
-32.0074
-32.8057
-49.6493
-48.8002
-47.9967
-48.742
-49.8499
-49.82
-63.9289
-64.0777
-63.9092
-63.5999
-63.4277
-63.4176
-30.2826
-29.0209
-29.0348
-31.4342
-31.8924
-31.9146
-49.4514
-49.4121
-49.1417
-49.7113
-49.9411
-49.7357
-63.841
-64.2149
-63.9039
-63.6856
-63.2791
-63.1117
-34.6652
-34.9272
-37.2039
-37.3298
-36.7476
-36.8345
-50.8046
-51.036
-51.3658
-51.7113
-50.964
-52.0171
-63.3762
-63.5003
-63.2723
-63.3126
-62.976
-62.8278
-42.4807
-43.2289
-46.1355
-44.2066
-43.105
-42.5721
-52.8975
-53.037
-53.4309
-53.7954
-53.7639
-55.0218
-62.9294
-62.8114
-62.1308
-62.2474
-62.1801
-61.8451
-42.902
-42.8162
-46.2045
-47.8709
-45.3284
-43.95
-52.3642
-51.6966
-51.3584
-53.1363
-53.5984
-53.7183
-62.3038
-62.208
-61.0526
-61.0222
-61.5657
-61.581
-31.8992
-30.7301
-31.1254
-37.8117
-39.013
-36.3563
-55.3989
-55.1366
-53.5534
-54.1639
-54.3196
-54.1547
-61.696
-61.6025
-61.1821
-61.0486
-61.2499
-61.1748
-14.931
-14.5673
-12.1611
-24.6183
-30.2631
-28.1578
-54.3416
-54.0982
-53.7438
-53.1904
-52.3913
-52.4558
-67.2879
-66.8209
-66.5425
-66.9842
-67.212
-67.3513
)
;

boundaryField
{
    seabed_topleft_surface
    {
        type            calculated;
        value           nonuniform List<scalar> 
72
(
19306.2
19299.5
19305.5
19303.4
19309.2
19304.6
19697.8
19693.5
19694.5
19700.3
19715.2
19690.3
20462.1
20456.9
20458
20461.5
20469.1
20456.2
20848.6
20846
20846.1
20848.2
20851.3
20844.9
20703.3
20702.8
20702.3
20703.4
20703.9
20702.7
19366.2
19362.7
19363.4
19365.1
19364.5
19365.8
16625
16620.9
16624.4
16622.1
16616.6
16630
12743.9
12750.9
12753.6
12740.3
12736
12761.4
10220.3
10212.7
10215.2
10215.1
10222.8
10204.2
9212.13
9200.01
9200.76
9207.62
9220.54
9184.19
8604.66
8577.7
8577.42
8606.23
8616.84
8571.37
8150.05
8135.44
8137.54
8154.98
8162.07
8143.96
)
;
    }
    seabed_topright_surface
    {
        type            calculated;
        value           nonuniform List<scalar> 
72
(
3122.81
3049.26
3071.18
3022.11
3011.78
3047.53
2980.72
2915.51
2921.92
2871.61
2826.44
2892.99
2598.11
2498.13
2393.36
2414.49
2466.42
2477.67
1843.8
1558.94
1375.05
1541.11
1606.48
1690.78
1053.82
922.446
978.807
856.876
724.734
752.738
638.246
614.094
627.135
685.421
686.741
683.548
590.777
574.802
545.288
591.345
592.519
566.96
587.816
571.569
437.26
367.369
420.118
475.105
568.61
536.228
417.08
258.761
267.623
500.844
430.778
525.805
424.412
252.771
297.606
514.023
476.865
550.428
478.079
515.467
588.645
613.728
513.93
506.545
568.602
625.422
651.451
636.74
)
;
    }
    breakwater_top_surface
    {
        type            calculated;
        value           nonuniform List<scalar> 
36
(
280.141
273.815
270.743
271.337
269.886
271.758
309.655
308.415
306.133
304.057
303.49
305.618
317.112
316.831
316.359
316.133
316.051
316.172
310.807
311.104
311.267
310.995
310.749
311.28
306.118
306.29
306.568
306.107
305.787
306.092
273.365
273.998
273.735
272.807
271.694
272.769
)
;
    }
    breakwater_left_surface
    {
        type            calculated;
        value           nonuniform List<scalar> 
24
(
4690.66
4681.28
4683.73
4695.4
4700.96
4684.99
1107.92
1090.09
1095.24
1115.44
1122.77
1082.64
135.067
135.529
136.791
135.77
139.623
142.074
-29.0396
-28.6651
-29.1503
-29.6166
-31.4266
-28.9298
)
;
    }
    breakwater_right_surface
    {
        type            calculated;
        value           nonuniform List<scalar> 
24
(
360.06
370.619
351.267
373.322
391.017
375.77
38.0127
55.8179
58.0612
65.265
55.5314
37.6557
-47.6032
-60.036
-49.0287
-31.9047
-40.6043
-38.5316
-53.3194
-59.7472
-65.8237
-89.1665
-101.869
-58.3033
)
;
    }
    water_front_surface
    {
        type            calculated;
        value           nonuniform List<scalar> 
186
(
15745.4
15585.3
15667.6
16054.1
15908.7
14631.1
12311.3
8796.33
6480.35
5525.74
4974.88
4678.77
8067.95
6421.37
6432.68
7230.73
7081.67
5515.25
3594.89
2127.74
1186.29
1008.96
1005.45
1106.41
1829.03
456.246
571.713
1222.22
1755.79
1498.16
1099.08
871.628
249.194
123.006
175.572
134.61
-13.9585
-19.263
-41.6143
-82.3818
-118.759
-125.148
-71.4374
8.1951
32.5753
26.9705
25.6192
-29.1122
2659.65
2517.57
2134.95
1482.6
768.061
359.201
311.368
308.479
296.501
271.521
336.998
359.532
1736.29
1511.43
1065.12
515.992
53.8236
-25.7686
-2.71245
19.4808
19.4156
18.4097
33.1296
37.8296
974.41
578.754
395.215
141.763
5.52531
-9.54529
-0.732183
-2.85356
-18.5283
-28.8911
-22.5579
-47.6804
281.229
21.07
-4.27679
-58.7351
-35.4506
-23.8212
-22.3203
-25.9063
-34.723
-38.9938
-24.8444
-53.4783
-9.64209
-40.1128
-69.5509
-27.7953
-58.5731
-80.5985
-48.0616
-70.9852
-85.5704
-68.6495
-75.3779
-80.2708
-93.8095
-81.9546
-74.9972
-130.791
-88.8574
-68.7167
-137.414
-85.7503
-63.3685
-77.7873
-67.3241
-63.79
-15.419
-43.6064
-61.61
-11.1798
-44.9796
-59.9872
-19.5449
-46.2939
-58.9144
-23.0626
-50.1888
-65.3501
107.148
-47.6017
-69.1174
126.706
-48.9595
-67.5655
132.062
-48.1694
-68.1691
129.527
-48.072
-68.1462
126.858
-46.5494
-67.9155
105.92
-45.5819
-68.6177
-27.6257
-51.6481
-65.9573
-51.1056
-62.1392
-69.6019
-60.5075
-71.8743
-67.2983
-92.8267
-75.148
-67.2303
-53.3482
-58.571
-64.6305
-31.7573
-49.6493
-63.9289
-30.2826
-49.4514
-63.841
-34.6652
-50.8046
-63.3762
-42.4807
-52.8975
-62.9294
-42.902
-52.3642
-62.3038
-31.8992
-55.3989
-61.696
-14.931
-54.3416
-67.2879
)
;
    }
    water_back_surface
    {
        type            calculated;
        value           nonuniform List<scalar> 
186
(
15743.9
15580.5
15661.7
16050.4
15908.1
14632.4
12309.6
8804.83
6469.32
5511.67
4959.68
4673.1
8062.35
6446.3
6425.13
7212.6
7078.91
5518.45
3599.49
2131.41
1225.02
1005.24
995.753
1081.16
1846.46
469.425
571.795
1206.17
1757.98
1502.42
1055.23
816.25
287.921
134.435
178.439
141.668
-14.3513
-21.3491
-43.0721
-81.4483
-117.236
-125.476
-73.1247
5.39903
33.9217
30.6594
27.2561
-29.0191
2585.11
2430.52
2015.35
1362.91
687.977
455.547
300.059
239.58
240.488
252.156
351.862
374.874
1649.22
1353.4
953.563
550.081
125.246
-18.5111
-5.60237
2.9961
4.98636
20.7667
29.2285
37.5588
975.495
425.314
173.848
62.2461
0.296799
-15.0285
-3.87373
-6.22835
-14.7665
-18.582
-23.9429
-38.6193
357.322
5.02271
-28.86
-42.2812
-24.0665
-22.577
-22.9574
-24.0213
-29.693
-42.3269
-28.2586
-58.4644
-10.9478
-38.7203
-66.8768
-28.8226
-57.4785
-77.7532
-46.7386
-69.4803
-86.434
-67.7241
-75.2778
-80.6973
-93.1385
-81.6505
-75.1832
-129.824
-88.7452
-68.9784
-138.701
-85.9573
-63.6838
-82.7568
-68.9284
-63.8125
-15.7038
-43.9508
-61.6296
-9.17925
-44.5809
-60.146
-19.3324
-46.3158
-58.9683
-22.4185
-49.9577
-65.3738
103.285
-46.7986
-69.4912
124.791
-48.3904
-68.1148
131.483
-47.9201
-68.2943
129.61
-47.9353
-68.2284
126.753
-46.4363
-67.9289
105.67
-45.4776
-68.6409
-39.9678
-55.3356
-65.872
-69.3927
-66.061
-66.8483
-72.7271
-73.4836
-65.9836
-70.2981
-68.4218
-65.1799
-39.818
-53.6224
-63.5853
-32.8057
-49.82
-63.4176
-31.9146
-49.7357
-63.1117
-36.8345
-52.0171
-62.8278
-42.5721
-55.0218
-61.8451
-43.95
-53.7183
-61.581
-36.3563
-54.1547
-61.1748
-28.1578
-52.4558
-67.3513
)
;
    }
    water_left_surface
    {
        type            calculated;
        value           nonuniform List<scalar> 
42
(
15757.6
15751.7
15757.2
15755.1
15760.9
15756.1
8080.12
8071.9
8071.97
8086.54
8092.02
8074.51
1835.08
1850.24
1852.23
1835.8
1838.7
1852.59
-13.9423
-13.8998
-14.4786
-14.011
-13.323
-14.3352
-9.64209
-10.4626
-11.7245
-9.91274
-8.60394
-10.9478
-40.1128
-38.901
-40.1439
-39.7908
-40.452
-38.7203
-69.5509
-68.1873
-68.5823
-69.9826
-70.387
-66.8768
)
;
    }
    water_right_surface
    {
        type            calculated;
        value           nonuniform List<scalar> 
42
(
2661.24
2587.7
2611.35
2563.78
2552.38
2586.7
1737.84
1624.05
1692.59
1671.5
1590.54
1650.78
975.933
865.828
992
1009.01
964.568
977.016
282.488
151.196
311.489
423.569
409.838
358.598
-27.6257
-33.6603
-18.8836
3.32646
-28.9354
-39.9678
-51.6481
-52.4155
-54.1429
-56.0222
-56.8109
-55.3356
-65.9573
-66.7988
-64.3838
-64.2981
-67.5721
-65.872
)
;
    }
    water_top_surface
    {
        type            calculated;
        value           nonuniform List<scalar> 
180
(
-96.7535
-96.7636
-96.958
-99.2945
-99.5115
-99.2776
-74.0287
-72.1151
-70.9592
-75.2727
-77.7831
-68.7206
-91.1089
-90.8609
-90.6842
-91.9183
-92.9131
-87.1995
-84.4956
-85.1339
-84.8316
-84.9442
-85.0242
-84.5498
-76.2319
-76.7483
-76.5616
-76.2299
-76.0306
-76.4201
-69.0754
-69.3361
-69.3595
-69.0483
-68.9171
-69.401
-68.6825
-68.6836
-68.6831
-68.6787
-68.6748
-68.6944
-68.6911
-68.6927
-68.6915
-68.6894
-68.6858
-68.6959
-68.6824
-68.6827
-68.6827
-68.6825
-68.6826
-68.6829
-68.682
-68.6822
-68.6823
-68.6821
-68.6823
-68.6824
-68.6895
-68.6905
-68.6928
-68.6894
-68.6919
-68.6928
-69.0531
-69.0568
-69.0538
-69.054
-69.0511
-69.0527
-68.7164
-68.7419
-68.7204
-68.6775
-68.6707
-68.6731
-69.418
-69.4299
-69.3482
-69.3487
-69.3506
-69.4116
-69.1266
-69.1429
-69.1275
-69.1258
-69.1259
-69.1179
-69.2582
-69.2729
-69.266
-69.2678
-69.2691
-69.268
-69.0904
-69.0984
-69.0922
-69.0815
-69.0752
-69.079
-68.67
-68.67
-68.67
-68.67
-68.67
-68.67
-69.0041
-75.6691
-68.67
-68.6706
-75.5923
-69.4913
-78.2591
-77.3903
-80.9601
-77.6437
-75.8302
-73.7433
-70.8012
-74.6524
-71.4299
-71.1834
-71.7695
-68.9822
-68.6757
-68.6721
-68.7268
-68.6732
-68.6701
-68.6701
-68.6701
-68.6715
-68.6714
-68.7618
-68.6704
-68.67
-68.67
-68.67
-68.67
-68.67
-68.67
-68.67
-68.67
-68.67
-68.67
-68.67
-68.67
-68.67
-68.67
-68.6706
-68.6714
-68.671
-68.67
-68.67
-68.6763
-68.6941
-68.6824
-68.6728
-68.67
-68.6704
-68.6736
-68.7777
-68.7159
-68.7861
-68.8908
-69.0556
-69.0777
-69.334
-69.0836
-69.4718
-69.7124
-69.7235
-69.589
-69.965
-69.9191
-69.695
-69.5873
-69.4882
)
;
    }
}


// ************************************************************************* //
