/*--------------------------------*- C++ -*----------------------------------*\
| =========                 |                                                 |
| \\      /  F ield         | OpenFOAM: The Open Source CFD Toolbox           |
|  \\    /   O peration     | Version:  v1612+                                |
|   \\  /    A nd           | Web:      www.OpenFOAM.com                      |
|    \\/     M anipulation  |                                                 |
\*---------------------------------------------------------------------------*/
FoamFile
{
    version     2.0;
    format      ascii;
    class       volScalarField;
    location    "8";
    object      p_rgh;
}
// * * * * * * * * * * * * * * * * * * * * * * * * * * * * * * * * * * * * * //

dimensions      [1 -1 -2 0 0 0 0];

internalField   nonuniform List<scalar> 
1116
(
19306.2
19299.5
19305.5
19303.4
19309.2
19304.6
19697.8
19693.5
19694.5
19700.3
19715.2
19690.3
20462.1
20456.9
20458
20461.5
20469.1
20456.2
20848.6
20846
20846.1
20848.2
20851.3
20844.9
20703.3
20702.8
20702.3
20703.4
20703.9
20702.7
19366.2
19362.7
19363.4
19365.1
19364.5
19365.8
16625
16620.9
16624.4
16622.1
16616.6
16630
12743.9
12750.9
12753.6
12740.3
12736
12761.4
10220.3
10212.7
10215.2
10215.1
10222.8
10204.2
9212.13
9200.01
9200.76
9207.62
9220.54
9184.19
8604.66
8577.7
8577.42
8606.23
8616.84
8571.37
8150.05
8135.44
8137.54
8154.98
8162.07
8143.96
18922.1
18913.9
18914
18928.5
18933.6
18915.6
17244.4
17273.8
17256.7
17262.2
17278.4
17261.1
18354.8
18357.4
18349.9
18353.8
18369
18353.7
20917.4
20903.1
20908
20907.8
20911.4
20906.6
21147.5
21141.2
21145.6
21142.1
21144.1
21145.5
18192
18218.4
18215.2
18195.9
18192.3
18217.9
11632.5
11703.9
11687.8
11661.2
11629.4
11715.8
5253.76
5265.95
5264.22
5269.09
5239.31
5362.8
3528.04
3492.51
3503
3510.58
3550.73
3430.48
3528.33
3496.02
3497.48
3507.21
3531.06
3452.35
2791.62
2755.79
2754.76
2781
2790.23
2755.46
2449.4
2397.81
2408.1
2457.71
2481.82
2402.22
11002.8
11099.6
11135.7
10991.7
10989.2
11137.1
2710.48
2743.32
2740.21
2716.46
2690.75
2759.63
3408.2
3380.89
3367.43
3420.9
3438.12
3383.67
7408.2
7313.42
7297.88
7397.81
7427.88
7322.77
10865.2
10853.1
10841.9
10855.8
10843.5
10873.3
9632.38
9624.94
9631.35
9605.85
9591.62
9663.69
7074.33
6957.24
6990.75
7064.23
7169.6
6818.55
3718.83
3846.04
3821.38
3723.4
3642.24
3729.88
908.867
1048.87
1012.73
923.733
843.552
1173.8
379.54
443.114
436.683
380.825
348.899
475.077
715.422
684.939
690.248
726.044
739.954
682.84
827.533
751.491
758.444
845.216
911.626
757.04
21.0106
20.9925
20.4397
20.9205
21.4696
20.4041
15.4903
15.761
15.0101
13.7573
12.805
13.2314
-7.13782
-6.90993
-6.45965
-7.31951
-8.22894
-8.67172
-48.0222
-47.1955
-46.9945
-48.1326
-49.1228
-47.0932
-84.408
-83.7934
-83.9159
-84.5146
-84.9068
-82.8851
-90.7961
-92.366
-92.4171
-91.1795
-91.194
-91.1247
-37.0852
-39.7994
-39.4857
-35.5726
-34.6625
-38.7726
122.683
113.089
115.87
123.097
124.311
73.5627
69.1621
70.9754
70.4413
69.1098
67.3094
71.1111
61.5166
63.0449
62.9702
61.3805
61.6941
65.3061
67.2786
77.3086
75.9559
67.1227
66.0097
79.5232
127.941
153.571
154.986
124.664
113.423
164.127
3122.81
3049.26
3071.18
3022.11
3011.78
3047.53
2980.72
2915.51
2921.92
2871.61
2826.44
2892.99
2598.11
2498.13
2393.36
2414.49
2466.42
2477.67
1843.8
1558.94
1375.05
1541.11
1606.48
1690.78
1053.82
922.446
978.807
856.876
724.734
752.738
638.246
614.094
627.135
685.421
686.741
683.548
590.777
574.802
545.288
591.345
592.519
566.96
587.816
571.569
437.26
367.369
420.118
475.105
568.61
536.228
417.08
258.761
267.623
500.844
430.778
525.805
424.412
252.771
297.606
514.023
476.865
550.428
478.079
515.467
588.645
613.728
513.93
506.545
568.602
625.422
651.451
636.74
3122.55
3008.75
3077.19
3055.87
2974.52
3034.1
2897.68
2684.17
2864.22
2746.93
2603.43
2738.08
2451.39
1743.43
1510.87
1563.23
2244.75
2337.6
1257.61
819.164
762.454
983.071
1048.49
1180.64
169.838
152.665
128.422
174.673
198.068
242.288
-6.79629
-14.53
-11.8301
4.16842
29.6462
30.3335
12.151
11.0146
16.9064
19.752
14.0856
9.1381
36.9582
28.6325
19.4083
27.2969
34.0015
17.7377
74.2903
25.7655
11.5452
30.4799
26.1589
19.7392
184.995
47.7522
26.2551
29.952
31.7731
45.9166
188.182
61.038
59.9488
69.1749
68.9966
116.931
201.101
126.187
73.0662
81.5802
74.5255
123.982
3283.6
3173.57
3299.57
3315.78
3270.15
3281.39
2702.28
2968.65
3069.97
3046.51
2858.54
2110.05
2492.83
2663.4
2502.16
2047.23
2534.11
1075.23
1441.45
735.138
494.158
396.241
791.404
527.75
76.3318
29.4592
27.7907
24.4754
25.9126
57.8395
15.0884
16.605
16.0988
12.2355
6.48662
9.53915
23.8118
25.0921
25.1003
23.6614
23.157
20.6778
21.688
20.711
17.6792
17.9546
19.3621
18.3436
6.01452
5.86636
-0.233447
4.13249
7.4107
15.5005
-4.22517
-1.59638
-0.403885
9.61709
32.8458
19.4067
2.27365
27.143
38.7309
89.952
107.76
0.766843
69.2823
114.53
107.025
181.801
168.351
94.3128
3007.06
1259.88
3328.06
3651.27
3371.35
3119.1
258.438
2157.23
1738.25
3533.06
2334.38
99.041
33.1075
2502.04
2540.32
2005.55
815.009
5.49886
35.1828
885.045
717.352
171.544
137.523
-7.18125
35.2438
5.40396
12.9185
13.3762
14.1826
10.5237
10.8387
13.1872
13.1868
11.0877
12.8383
12.0704
12.0311
14.3538
13.9191
12.5548
12.2016
11.3989
8.44469
7.72426
5.95492
7.27462
8.69935
11.2262
-0.371641
-2.91529
-5.72536
-0.588881
-0.963091
9.36493
-4.62424
-7.16499
-13.4592
-8.23853
-8.88842
-3.60606
9.83737
5.9558
0.771621
60.143
97.7424
6.21023
290.487
277.969
268.884
261.188
248.486
290.242
39.4734
37.1227
35.5307
39.5445
43.65
37.4277
35.9078
24.8745
19.4913
35.4112
37.7356
25.2299
20.2916
21.6646
21.4501
22.2194
22.0165
25.3095
30.7904
26.3017
25.0012
28.1049
29.996
23.3457
17.4475
17.6994
17.3066
16.464
17.1268
18.9615
-0.271608
-3.39815
-3.83882
-5.29583
-7.43667
8.53903
10.6694
11.4435
11.5717
10.0676
4.76853
9.25009
-12.2069
-13.1033
-13.1093
-16.8963
-16.9667
-9.63631
-21.8054
-22.1533
-22.3127
-21.5765
-21.5535
-21.7451
-18.7705
-20.2809
-18.784
-21.7056
-23.6392
-21.5571
-21.4229
-21.4106
-21.4515
-21.2122
-20.9347
-21.3228
-16.5058
-16.7686
-16.7244
-16.5714
-16.4693
-16.9323
-49.6643
-48.9344
-49.1064
-49.5991
-50.0644
-48.9932
-27.9996
-27.8252
-27.8286
-27.9352
-27.8852
-27.6955
-11.2322
-11.54
-11.4903
-11.0792
-10.7321
-11.4182
-86.6395
-86.5586
-86.8388
-87.2582
-87.5152
-85.6706
-34.8857
-34.9333
-34.9418
-34.9584
-34.6738
-34.7633
-4.95156
-5.07523
-5.05718
-4.86408
-4.61446
-5.21294
-92.7407
-94.2664
-93.9936
-92.9521
-91.722
-94.1464
-31.4522
-31.3529
-31.1877
-31.4204
-31.2746
-31.6096
0.408102
0.480362
0.540307
0.496733
0.446811
0.103799
-33.2798
-34.3582
-34.1775
-33.4814
-34.2267
-38.3622
-13.276
-13.5614
-13.5293
-13.3632
-13.7132
-14.8987
-0.00543124
-0.0427859
-0.0219836
0.149936
0.151697
-0.023438
28.9302
29.1351
28.8145
28.6998
27.2192
28.7178
10.3675
10.4165
10.22
10.2868
9.91853
10.0293
2.16655
2.15228
2.12224
2.26019
2.31587
2.1474
32.9807
33.8686
33.5815
33.0199
32.8518
34.986
8.98515
8.9605
8.94297
9.15596
9.27545
9.38422
3.78892
3.69361
3.70119
3.7842
3.80442
3.63051
24.7445
24.8745
24.7735
24.564
24.1969
24.9161
7.91376
7.71748
7.75747
7.95271
8.07772
7.75534
4.85392
4.83487
4.81645
4.83347
4.83416
4.79985
329.69
342.334
338.513
324.584
311.45
336.207
3.76622
3.78704
3.84688
3.88994
4.00169
3.99735
-1.58506
-1.62593
-1.62507
-1.58433
-1.54379
-1.60883
1664.09
1635.76
1616.72
1615.37
1608.87
1619.54
6.3533
6.32622
6.4564
6.91321
7.11876
7.15638
-5.35235
-5.47
-5.53614
-5.6444
-5.7117
-5.7262
1773.24
1767.5
1752.96
1741.95
1740.97
1752.23
4.99551
5.10748
5.30835
5.47049
5.57116
5.5646
-3.80045
-3.78864
-3.85401
-4.07603
-4.27129
-4.34977
1797.51
1796.56
1794.85
1793.59
1792.91
1793.68
5.78561
5.80157
5.85196
5.9408
6.00266
6.03495
-4.40413
-4.42468
-4.45733
-4.49004
-4.52012
-4.52927
1761.05
1762.9
1764.13
1762.85
1761.54
1764.64
5.88296
5.90811
5.94315
5.97717
6.00451
6.01969
-4.3812
-4.38541
-4.40241
-4.42839
-4.45064
-4.46337
1740.2
1741.03
1742.91
1740.81
1739.33
1740.8
7.40564
7.42063
7.43308
7.46702
7.50333
7.51868
-4.15048
-4.15482
-4.15203
-4.15384
-4.15892
-4.16394
1612.93
1614.65
1614.19
1611.07
1607.28
1609.56
8.37308
8.42717
8.42666
8.40228
8.39929
8.47743
-4.85268
-4.85742
-4.86355
-4.8675
-4.8735
-4.87587
115.674
10.4851
724.015
1844.53
109.565
4.18772
2.30693
1.5395
56.0381
153.208
-2.85543
-1.37971
-2.19231
-3.03383
-0.618796
-0.532537
-3.80713
-2.10704
-6.90006
-1.83451
0.731601
-5.25446
5.61962
-25.2375
-4.95092
-10.4034
-11.5804
-18.5366
-16.7812
-10.951
-5.83688
-7.17315
-8.03548
-7.95145
-4.70251
-2.70352
-12.5975
47.7819
-19.8917
414.254
-33.5763
-28.5758
-6.26666
-25.8424
-28.1974
-31.0701
-23.403
-16.2631
-3.53335
-6.18949
-6.57437
-6.54947
-2.37185
-0.771742
-30.4235
245.653
249.891
159.89
-36.1477
-26.1518
-20.1854
6.21572
9.8953
14.5985
-20.256
-14.4667
-3.45999
-4.10476
-4.19935
-3.74772
-1.56951
-1.41489
-4.84851
41.9354
54.9506
6.85313
4.76177
4.32921
-4.59968
0.985617
10.0228
2.64926
-0.618436
0.332664
-0.865381
-1.50956
-1.23707
-0.173628
-0.0798829
0.179711
12.4237
14.9424
16.4298
14.1223
12.1392
11.3592
4.30707
5.15759
5.96041
5.21302
4.10508
4.13504
-0.163912
-0.312643
-0.144169
0.165127
0.337307
0.347428
13.8627
15.1268
15.1102
12.7109
12.2526
12.2318
4.50361
4.54291
4.81333
4.24372
4.01394
4.21935
-0.0759356
-0.449888
-0.138873
0.0794384
0.485873
0.653282
9.47986
9.22883
6.97809
6.81527
7.40793
7.37824
3.15044
2.9191
2.58953
2.24773
2.99097
1.93795
0.388793
0.265335
0.493994
0.453338
0.789016
0.937161
1.66437
0.923314
-1.91251
-0.0611976
1.04011
1.57298
1.05759
0.918396
0.582513
0.18069
0.191081
-1.06682
0.841433
0.976001
1.64565
1.52022
1.58487
1.92029
1.24505
1.33454
-2.02831
-3.72393
-1.18317
0.194961
2.27261
2.81582
2.89218
0.829219
0.356613
0.236732
1.51158
1.65698
2.75504
2.74283
2.19935
2.18401
12.3352
13.4313
13.0524
6.34469
5.13209
7.78869
1.02026
0.552685
1.70662
-0.195079
-0.364579
-0.199692
2.08695
2.17368
2.5987
2.7165
2.51506
2.5902
413.105
331.41
332.131
359.027
333.304
388.302
-0.386585
-0.143232
0.211181
0.764599
1.56368
1.49918
-3.52289
-3.05588
-2.77744
-3.21922
-3.44702
-3.58625
)
;

boundaryField
{
    seabed_topleft_surface
    {
        type            fixedFluxPressure;
        gradient        uniform 0;
        value           nonuniform List<scalar> 
72
(
19306.2
19299.5
19305.5
19303.4
19309.2
19304.6
19697.8
19693.5
19694.5
19700.3
19715.2
19690.3
20462.1
20456.9
20458
20461.5
20469.1
20456.2
20848.6
20846
20846.1
20848.2
20851.3
20844.9
20703.3
20702.8
20702.3
20703.4
20703.9
20702.7
19366.2
19362.7
19363.4
19365.1
19364.5
19365.8
16625
16620.9
16624.4
16622.1
16616.6
16630
12743.9
12750.9
12753.6
12740.3
12736
12761.4
10220.3
10212.7
10215.2
10215.1
10222.8
10204.2
9212.13
9200.01
9200.76
9207.62
9220.54
9184.19
8604.66
8577.7
8577.42
8606.23
8616.84
8571.37
8150.05
8135.44
8137.54
8154.98
8162.07
8143.96
)
;
    }
    seabed_topright_surface
    {
        type            fixedFluxPressure;
        gradient        uniform 0;
        value           nonuniform List<scalar> 
72
(
3122.81
3049.26
3071.18
3022.11
3011.78
3047.53
2980.72
2915.51
2921.92
2871.61
2826.44
2892.99
2598.11
2498.13
2393.36
2414.49
2466.42
2477.67
1843.8
1558.94
1375.05
1541.11
1606.48
1690.78
1053.82
922.446
978.807
856.876
724.734
752.738
638.246
614.094
627.135
685.421
686.741
683.548
590.777
574.802
545.288
591.345
592.519
566.96
587.816
571.569
437.26
367.369
420.118
475.105
568.61
536.228
417.08
258.761
267.623
500.844
430.778
525.805
424.412
252.771
297.606
514.023
476.865
550.428
478.079
515.467
588.645
613.728
513.93
506.545
568.602
625.422
651.451
636.74
)
;
    }
    breakwater_top_surface
    {
        type            fixedFluxPressure;
        gradient        uniform 0;
        value           nonuniform List<scalar> 
36
(
1664.09
1635.76
1616.72
1615.37
1608.87
1619.54
1773.24
1767.5
1752.96
1741.95
1740.97
1752.23
1797.51
1796.56
1794.85
1793.59
1792.91
1793.68
1761.05
1762.9
1764.13
1762.85
1761.54
1764.64
1740.2
1741.03
1742.91
1740.81
1739.33
1740.8
1612.93
1614.65
1614.19
1611.07
1607.28
1609.56
)
;
    }
    breakwater_left_surface
    {
        type            fixedFluxPressure;
        gradient        uniform 0;
        value           nonuniform List<scalar> 
24
(
8150.05
8135.44
8137.54
8154.98
8162.07
8143.96
2449.4
2397.81
2408.1
2457.71
2481.82
2402.22
827.533
751.491
758.444
845.216
911.626
757.04
127.941
153.571
154.986
124.664
113.423
164.127
)
;
    }
    breakwater_right_surface
    {
        type            fixedFluxPressure;
        gradient        uniform 0;
        value           nonuniform List<scalar> 
24
(
513.93
506.545
568.602
625.422
651.451
636.74
201.101
126.187
73.0662
81.5802
74.5255
123.982
69.2823
114.53
107.025
181.801
168.351
94.3128
290.487
277.969
268.884
261.188
248.486
290.242
)
;
    }
    water_front_surface
    {
        type            fixedFluxPressure;
        gradient        uniform 0;
        value           nonuniform List<scalar> 
186
(
19306.2
19697.8
20462.1
20848.6
20703.3
19366.2
16625
12743.9
10220.3
9212.13
8604.66
8150.05
18922.1
17244.4
18354.8
20917.4
21147.5
18192
11632.5
5253.76
3528.04
3528.33
2791.62
2449.4
11002.8
2710.48
3408.2
7408.2
10865.2
9632.38
7074.33
3718.83
908.867
379.54
715.422
827.533
21.0106
15.4903
-7.13782
-48.0222
-84.408
-90.7961
-37.0852
122.683
69.1621
61.5166
67.2786
127.941
3122.81
2980.72
2598.11
1843.8
1053.82
638.246
590.777
587.816
568.61
430.778
476.865
513.93
3122.55
2897.68
2451.39
1257.61
169.838
-6.79629
12.151
36.9582
74.2903
184.995
188.182
201.101
3283.6
2702.28
2492.83
1441.45
76.3318
15.0884
23.8118
21.688
6.01452
-4.22517
2.27365
69.2823
3007.06
258.438
33.1075
35.1828
35.2438
10.8387
12.0311
8.44469
-0.371641
-4.62424
9.83737
290.487
39.4734
35.9078
20.2916
30.7904
17.4475
-0.271608
10.6694
-12.2069
-21.8054
-18.7705
-21.4229
-16.5058
-49.6643
-27.9996
-11.2322
-86.6395
-34.8857
-4.95156
-92.7407
-31.4522
0.408102
-33.2798
-13.276
-0.00543124
28.9302
10.3675
2.16655
32.9807
8.98515
3.78892
24.7445
7.91376
4.85392
329.69
3.76622
-1.58506
1664.09
6.3533
-5.35235
1773.24
4.99551
-3.80045
1797.51
5.78561
-4.40413
1761.05
5.88296
-4.3812
1740.2
7.40564
-4.15048
1612.93
8.37308
-4.85268
115.674
2.30693
-2.19231
-6.90006
-4.95092
-5.83688
-12.5975
-6.26666
-3.53335
-30.4235
-20.1854
-3.45999
-4.84851
-4.59968
-0.865381
12.4237
4.30707
-0.163912
13.8627
4.50361
-0.0759356
9.47986
3.15044
0.388793
1.66437
1.05759
0.841433
1.24505
2.27261
1.51158
12.3352
1.02026
2.08695
413.105
-0.386585
-3.52289
)
;
    }
    water_back_surface
    {
        type            fixedFluxPressure;
        gradient        uniform 0;
        value           nonuniform List<scalar> 
186
(
19304.6
19690.3
20456.2
20844.9
20702.7
19365.8
16630
12761.4
10204.2
9184.19
8571.37
8143.96
18915.6
17261.1
18353.7
20906.6
21145.5
18217.9
11715.8
5362.8
3430.48
3452.35
2755.46
2402.22
11137.1
2759.63
3383.67
7322.77
10873.3
9663.69
6818.55
3729.88
1173.8
475.077
682.84
757.04
20.4041
13.2314
-8.67172
-47.0932
-82.8851
-91.1247
-38.7726
73.5627
71.1111
65.3061
79.5232
164.127
3047.53
2892.99
2477.67
1690.78
752.738
683.548
566.96
475.105
500.844
514.023
613.728
636.74
3034.1
2738.08
2337.6
1180.64
242.288
30.3335
9.1381
17.7377
19.7392
45.9166
116.931
123.982
3281.39
2110.05
1075.23
527.75
57.8395
9.53915
20.6778
18.3436
15.5005
19.4067
0.766843
94.3128
3119.1
99.041
5.49886
-7.18125
10.5237
12.0704
11.3989
11.2262
9.36493
-3.60606
6.21023
290.242
37.4277
25.2299
25.3095
23.3457
18.9615
8.53903
9.25009
-9.63631
-21.7451
-21.5571
-21.3228
-16.9323
-48.9932
-27.6955
-11.4182
-85.6706
-34.7633
-5.21294
-94.1464
-31.6096
0.103799
-38.3622
-14.8987
-0.023438
28.7178
10.0293
2.1474
34.986
9.38422
3.63051
24.9161
7.75534
4.79985
336.207
3.99735
-1.60883
1619.54
7.15638
-5.7262
1752.23
5.5646
-4.34977
1793.68
6.03495
-4.52927
1764.64
6.01969
-4.46337
1740.8
7.51868
-4.16394
1609.56
8.47743
-4.87587
4.18772
-1.37971
-2.10704
-25.2375
-10.951
-2.70352
-28.5758
-16.2631
-0.771742
-26.1518
-14.4667
-1.41489
4.32921
0.332664
0.179711
11.3592
4.13504
0.347428
12.2318
4.21935
0.653282
7.37824
1.93795
0.937161
1.57298
-1.06682
1.92029
0.194961
0.236732
2.18401
7.78869
-0.199692
2.5902
388.302
1.49918
-3.58625
)
;
    }
    water_left_surface
    {
        type            fixedFluxPressure;
        gradient        uniform 0;
        value           nonuniform List<scalar> 
42
(
19306.2
19299.5
19305.5
19303.4
19309.2
19304.6
18922.1
18913.9
18914
18928.5
18933.6
18915.6
11002.8
11099.6
11135.7
10991.7
10989.2
11137.1
21.0106
20.9925
20.4397
20.9205
21.4696
20.4041
39.4734
37.1227
35.5307
39.5445
43.65
37.4277
35.9078
24.8745
19.4913
35.4112
37.7356
25.2299
20.2916
21.6646
21.4501
22.2194
22.0165
25.3095
)
;
    }
    water_right_surface
    {
        type            fixedFluxPressure;
        gradient        uniform 0;
        value           nonuniform List<scalar> 
42
(
3122.81
3049.26
3071.18
3022.11
3011.78
3047.53
3122.55
3008.75
3077.19
3055.87
2974.52
3034.1
3283.6
3173.57
3299.57
3315.78
3270.15
3281.39
3007.06
1259.88
3328.06
3651.27
3371.35
3119.1
115.674
10.4851
724.015
1844.53
109.565
4.18772
2.30693
1.5395
56.0381
153.208
-2.85543
-1.37971
-2.19231
-3.03383
-0.618796
-0.532537
-3.80713
-2.10704
)
;
    }
    water_top_surface
    {
        type            totalPressure;
        rho             rho;
        psi             none;
        gamma           1;
        p0              uniform 0;
        value           nonuniform List<scalar> 
180
(
0
0
0
0
0
0
-5.35871
-3.44511
-2.28921
-6.6027
-9.1131
-0.0506368
-22.4389
-22.1909
-22.0142
-23.2483
-24.2431
-18.5295
-15.8256
-16.4639
-16.1616
-16.2742
-16.3542
-15.8798
-7.5619
-8.0783
-7.89159
-7.55992
-7.36055
-7.75009
-0.405415
-0.666133
-0.689505
-0.378252
-0.247094
-0.73101
0
0
0
0
0
0
0
0
0
0
0
0
0
0
0
0
0
0
0
0
0
0
0
0
-0.0195129
-0.0205212
-0.0227603
-0.0193538
-0.0219
-0.0228411
-0.383128
-0.386787
-0.383777
-0.384019
-0.38111
-0.382715
-0.0464363
-0.0719278
-0.0503726
-0.00751365
-0.000672379
-0.00308582
-0.748009
-0.759903
-0.678193
-0.678724
-0.680553
-0.741584
-0.45665
-0.472944
-0.457545
-0.455793
-0.455873
-0.447869
-0.588237
-0.602923
-0.596041
-0.59783
-0.599082
-0.597977
-0.420367
-0.428394
-0.422203
-0.411545
-0.405212
-0.408951
0
0
0
0
0
0
-0.334058
-6.99908
0
0
-6.92228
-0.821322
-9.58908
-8.72034
-12.2901
-8.97371
-7.16025
-5.07332
-2.13118
-5.98244
-2.75988
-2.51344
-3.09952
-0.312173
0
0
0
0
0
0
0
0
0
0
0
0
0
0
0
0
0
0
0
0
0
0
0
0
0
0
0
0
0
0
0
0
0
0
0
0
-0.00363355
0
0
-0.116095
-0.220766
-0.385606
-0.407666
-0.664028
-0.413599
-0.801799
-1.04237
-1.05349
-0.918966
-1.29496
-1.24911
-1.02503
-0.917261
-0.818163
)
;
    }
}


// ************************************************************************* //
