/*--------------------------------*- C++ -*----------------------------------*\
| =========                 |                                                 |
| \\      /  F ield         | OpenFOAM: The Open Source CFD Toolbox           |
|  \\    /   O peration     | Version:  v1612+                                |
|   \\  /    A nd           | Web:      www.OpenFOAM.com                      |
|    \\/     M anipulation  |                                                 |
\*---------------------------------------------------------------------------*/
FoamFile
{
    version     2.0;
    format      ascii;
    class       surfaceScalarField;
    location    "8";
    object      phi;
}
// * * * * * * * * * * * * * * * * * * * * * * * * * * * * * * * * * * * * * //

dimensions      [0 3 -1 0 0 0 0];

internalField   nonuniform List<scalar> 
2916
(
0.00245094
0.389857
-0.392308
-0.000752131
0.388995
-0.385792
-7.11385e-05
0.387376
-0.388057
-0.000955344
0.391121
-0.390237
-0.00291286
0.394526
-0.392569
0.387207
-0.39012
0.00181008
0.683678
-0.295632
-0.000692397
0.681932
-0.290434
-0.00360001
0.681622
-0.291339
-0.00235075
0.684032
-0.29416
0.0033621
0.686178
-0.297364
0.681523
-0.290954
0.00218337
0.755359
-0.0738642
-2.96528e-05
0.754131
-0.0699867
-0.00327962
0.754339
-0.0694666
-0.00118767
0.755279
-0.0733387
0.00496086
0.756488
-0.0764583
0.754059
-0.0675752
0.000684637
0.647754
0.10692
8.89243e-05
0.645597
0.10913
-0.00129101
0.646319
0.1094
-0.000377395
0.647032
0.107332
0.00225283
0.647932
0.105925
0.645966
0.110346
-0.00076618
0.447702
0.200819
0.000140096
0.442397
0.202293
0.000441095
0.444038
0.20198
-3.02951e-05
0.44599
0.201513
-0.000744973
0.447576
0.201071
0.443237
0.201984
-0.000918937
0.219736
0.228885
0.000174741
0.212365
0.228938
0.00136267
0.214113
0.228738
0.000105826
0.217899
0.229348
-0.00215634
0.220226
0.229613
0.212684
0.228397
0.000771373
-0.0282033
0.247168
1.25215e-05
-0.0309448
0.244069
-0.000312412
-0.0303025
0.24474
-0.000327241
-0.0285445
0.246459
0.001717
-0.0288466
0.247028
-0.0302594
0.244661
0.00121326
-0.274545
0.245129
0.000540912
-0.271791
0.241518
-0.000252053
-0.27176
0.24225
0.00118198
-0.274281
0.244302
0.00393279
-0.278377
0.24678
-0.269338
0.243012
-0.000601539
-0.38365
0.109706
0.000922791
-0.382619
0.109304
0.00225492
-0.381893
0.108801
0.00207459
-0.384384
0.110284
0.00220592
-0.388201
0.109692
-0.381729
0.114596
-0.00169246
-0.342892
-0.0390651
0.000823496
-0.347878
-0.0372576
0.00416833
-0.346785
-0.0384524
0.00130748
-0.344312
-0.0372113
-0.00430136
-0.344268
-0.0383237
-0.35047
-0.03556
-0.000670937
-0.246571
-0.0956504
0.000294207
-0.260487
-0.0883557
0.00284679
-0.259553
-0.0897842
0.000245468
-0.247851
-0.0938602
-0.00652253
-0.241093
-0.0964065
-0.265797
-0.0911956
0.00421206
-0.250783
-0.0017809
-0.254494
-0.00602741
-0.255307
-0.0028734
-0.251005
0.00746125
-0.251428
-0.258336
0.00107533
0.527138
-0.920521
0.00443078
0.518592
-0.90774
0.0164865
0.50952
-0.909632
0.00925533
0.533526
-0.916531
-0.018257
0.556686
-0.921742
0.504952
-0.913328
-0.00556241
0.988301
-0.751232
-0.000447834
0.975548
-0.752504
0.00402178
0.973032
-0.75932
-0.000945042
0.989241
-0.744908
-0.0102918
1.00318
-0.734513
0.966753
-0.763046
0.000502231
1.19109
-0.277159
0.00101758
1.18047
-0.275421
-0.000131305
1.18056
-0.275845
0.000630834
1.19099
-0.275848
0.00163262
1.20067
-0.274947
1.17504
-0.274232
0.00328327
1.25727
0.0374644
0.000773778
1.25299
0.0391185
-0.00354667
1.2529
0.0413812
0.000645827
1.25721
0.0369204
0.00993212
1.26144
0.0358689
1.2506
0.0447239
0.000623583
1.29287
0.164596
0.000344843
1.29056
0.164998
-0.000874105
1.28939
0.16671
0.000294663
1.29351
0.164046
0.00416327
1.29523
0.163409
1.289
0.167739
0.00479387
1.37361
0.143345
0.000406103
1.37582
0.14807
-0.00158576
1.37107
0.14905
0.000224087
1.37731
0.143733
0.00268563
1.37949
0.14289
1.3707
0.14939
0.0103139
1.51919
0.0912794
0.000335591
1.53115
0.0987132
-0.00797067
1.52345
0.100664
-0.00234912
1.52795
0.0902004
0.0107452
1.53053
0.0828973
1.51929
0.106811
0.0050356
1.62071
0.13857
0.00262148
1.65374
0.121345
-0.00331385
1.64373
0.127907
0.00488449
1.6304
0.133654
0.0218261
1.62118
0.139183
1.64514
0.138985
-0.0265617
1.26419
0.492783
0.00428357
1.31923
0.412967
0.0216316
1.30883
0.426346
-0.00466169
1.27381
0.493161
-0.053538
1.24253
0.537226
1.35596
0.350244
-0.0316789
0.714086
0.542722
-0.00031439
0.734246
0.516364
0.0245875
0.735197
0.510281
-0.00284564
0.718152
0.545884
-0.0551847
0.697785
0.558756
0.758569
0.506644
-0.0207083
0.28772
0.351424
-0.00135813
0.225632
0.400909
0.0166706
0.235313
0.392071
0.00611766
0.286759
0.348086
-0.0386574
0.320461
0.325693
0.22222
0.406496
0.0558941
-0.0189571
-0.012965
0.0399968
-0.0721318
0.0391732
-0.0128486
-0.0235293
0.0918281
-0.0356437
0.0557122
0.0208761
0.434703
-1.3761
-0.0106466
0.486003
-1.36222
-0.0563867
0.512258
-1.37615
-0.0294749
0.424042
-1.36749
0.0441493
0.355169
-1.35054
0.524048
-1.39323
0.0158454
1.07667
-1.40904
0.0102604
1.16137
-1.42228
0.0247558
1.16644
-1.428
0.017908
1.08379
-1.39781
0.0189106
1.04004
-1.42039
1.18675
-1.40684
6.34899e-05
1.56221
-0.762764
-0.00062798
1.61811
-0.731476
0.00468742
1.61102
-0.72574
-0.00281519
1.56673
-0.751276
0.0125314
1.54286
-0.793111
1.62454
-0.699486
0.00306216
1.95943
-0.362819
-0.00108126
1.97675
-0.315379
-0.00430972
1.97302
-0.317388
-0.00444369
1.96151
-0.357726
0.00463588
1.9549
-0.38525
1.96853
-0.294634
-0.000593693
2.29353
-0.168913
0.000274745
2.29893
-0.158049
0.00135775
2.29712
-0.158469
0.000706476
2.29422
-0.168019
-0.00296565
2.29336
-0.171384
2.29259
-0.159289
0.00335472
2.86531
-0.431785
0.00049474
2.86754
-0.41768
0.000649073
2.8576
-0.411587
7.2794e-05
2.87914
-0.440611
-0.00605289
2.89371
-0.451328
2.83845
-0.402516
0.0401382
3.13737
-0.220921
0.00062278
3.33647
-0.330695
-0.041295
3.28732
-0.287144
-0.0091478
3.17755
-0.24036
0.0640312
3.11408
-0.210656
3.37055
-0.361257
0.0380985
1.76779
1.47005
0.000370764
2.25969
1.23585
-0.0518744
2.17238
1.2951
0.054503
1.73821
1.46662
0.255664
1.56333
1.48878
2.573
1.19219
-0.168987
-0.463447
2.89301
-0.013209
-0.214687
2.73156
0.0942176
-0.262358
2.75366
-0.0528668
-0.513959
2.89242
-0.28801
-0.63844
2.97414
0.0919665
2.54327
-0.122736
-1.16253
1.36454
-0.0259995
-1.23488
1.43982
0.040619
-1.21557
1.39687
-0.0783571
-1.19449
1.34539
-0.276701
-1.23159
1.35025
-1.19775
1.51966
0.0507851
-0.754033
-0.107858
-0.0316056
-0.834642
0.0830652
-0.105026
-0.81063
0.0605557
-0.0403777
-0.775159
-0.135896
0.0940032
-0.744313
-0.295967
-0.800942
0.103694
0.0481888
-0.821179
-0.0282704
-0.718186
-0.0800361
-0.719691
-0.0475218
-0.831202
0.0602994
-0.887778
-0.684931
0.231171
0.256751
-1.86402
-0.11477
0.872554
-1.88884
-0.759305
1.09377
-1.82539
-0.388372
0.157971
-1.8964
0.690182
-0.531517
-1.89758
1.1837
-1.88675
0.0766652
0.484999
-1.71395
0.135059
1.14977
-1.75789
0.318479
1.21421
-1.73186
0.28995
0.529412
-1.74072
0.149815
0.118445
-1.93021
1.62468
-1.698
-0.0888326
1.97413
-2.16307
-0.0228221
2.43695
-2.08467
0.221214
2.31786
-2.07343
0.194529
2.03779
-2.23297
0.160079
1.84701
-2.48723
2.96154
-1.87627
-0.122574
4.31253
-2.57864
-0.0582353
4.66067
-2.60344
0.0641343
4.51
-2.6319
-0.00758226
4.41927
-2.6675
-0.00293037
4.22435
-2.76724
5.05719
-2.39321
-0.0569912
6.3364
-2.13579
0.0460824
6.77711
-2.37757
0.127851
6.67537
-2.40561
-0.0139275
6.54191
-2.14887
-0.0787413
6.19912
-2.08134
7.07494
-2.25577
-0.00587624
6.32171
-0.411215
0.145217
6.86112
-0.652776
0.276807
6.8056
-0.673412
0.194872
6.54175
-0.358514
-0.105004
6.30272
-0.255049
7.21374
-0.646328
0.0235994
3.99109
2.0861
0.0192992
4.65784
1.87689
0.0539692
4.54917
1.93462
0.0993225
4.10785
2.14819
0.0384425
3.91318
2.23976
5.17883
1.7121
0.0993716
1.19592
4.16585
-0.0585267
2.04496
4.00664
-0.149207
1.8837
4.05124
0.0653274
1.14394
4.21599
0.427491
0.805599
4.23419
2.81935
3.97916
-0.100183
-0.45463
4.64374
-0.0387659
-0.0545363
4.76964
-0.00588214
-0.13748
4.74196
-0.0695285
-0.521235
4.62124
-0.17488
-0.768298
4.65339
0.368609
4.81914
-0.165502
-0.555786
1.6312
-0.0469811
-0.501931
1.76869
0.00931476
-0.528378
1.73148
-0.215571
-0.55792
1.60697
-0.484851
-0.748924
1.60016
-0.541232
1.94465
-0.0377664
-0.72386
0.0979857
0.0725856
-0.725539
0.196319
0.162608
-0.731671
0.173821
0.104506
-0.710279
0.074567
-0.118336
-0.783861
-0.0381897
-0.723852
0.167976
-0.0420664
-1.50297
0.0280023
-1.51379
0.0908748
-1.51424
0.0545497
-1.50516
-0.102691
-1.5144
-1.51147
-0.152187
0.589826
-0.437639
-0.149889
0.0303971
-0.0326943
0.165792
-0.0186296
-0.297051
0.116038
0.176465
-0.12671
0.153868
-0.0619647
0.0241341
0.482574
-0.328706
-0.0190163
0.939728
-0.330885
0.134006
-0.285244
0.162619
0.604344
-0.377555
-0.111412
0.364966
0.184565
0.231277
-0.0949152
0.0923601
0.305557
0.72266
-0.335001
0.418786
0.407137
0.113805
0.746487
-0.929216
0.316272
0.427504
-0.317374
0.258802
-0.414207
0.550984
0.475292
-0.591959
-0.150654
0.420767
0.275543
-0.144843
0.722135
-0.845664
0.530666
0.841091
-1.80556
0.757385
0.359369
-1.27116
1.43551
-0.0886782
-0.156005
1.15504
-0.402641
-0.630601
0.79391
-0.544672
0.417574
0.283295
-1.82191
0.692951
0.139332
-2.39526
0.733671
0.488961
-2.44459
0.823803
0.831402
-2.13198
1.63354
0.152374
-1.95611
2.00454
-2.15022
1.75792
0.0626963
-2.03747
0.152863
-0.00309801
-2.40281
0.0733377
0.0319602
-2.51373
0.0340785
0.274044
-2.42129
0.0472297
0.146344
-2.37462
0.546215
-2.41487
0.410999
-0.0929333
-1.84901
-0.0955286
-0.0213302
-2.09439
-0.380018
0.0935436
-2.09871
-0.529899
0.117038
-1.99277
-0.452019
-0.00641329
-2.19921
-0.0519674
-2.05899
-0.362291
-0.192983
-1.67911
0.0230839
-0.0181499
-1.88893
-0.380293
0.165138
-1.9019
-0.380095
-0.110007
-1.99118
0.273552
-0.24676
-2.23596
0.173505
-1.82527
-0.480482
-0.304378
-1.55458
0.17985
-0.236022
-1.80707
-0.150222
0.0290178
-1.81062
-0.356315
-0.304012
-2.10521
0.447067
-0.47753
-2.34366
0.281226
-1.5741
-0.728702
-0.584755
-1.51619
0.546362
-0.584154
-1.72099
-0.086677
-0.28479
-1.71544
-0.394551
-0.456886
-2.06086
0.127747
0.0356797
-2.11166
-0.724572
-1.31518
-0.223234
-0.635155
-0.962308
0.0812753
-0.621927
-1.17242
-0.561796
-0.630286
-1.22681
-0.480264
-0.156809
-1.00267
-1.53167
0.691079
-0.865067
-2.09448
-0.645209
0.0211031
-0.336583
-0.625725
-0.159201
-1.34981
0.0265712
-1.41258
0.210689
-1.18679
0.4246
-1.07898
-0.220608
0.108318
0.910346
-1.4563
-0.0773783
0.538776
-0.385774
0.109058
0.721839
-1.20533
0.172978
0.130232
-0.320863
-0.0699432
0.22892
0.0381356
0.85007
-1.24872
0.504081
1.52291
-1.44753
0.255556
0.945898
0.00402308
0.236845
0.869103
-0.239966
-0.252777
0.353656
0.497476
-0.529175
0.729101
0.0817737
1.4725
-1.48661
0.720599
1.6942
-0.778083
0.428732
0.914471
0.639567
-0.33708
0.919934
0.973783
-1.4624
0.635961
1.31831
-0.921421
0.545032
0.0638581
1.43306
-1.02682
0.392608
1.62923
0.203027
-0.152599
0.437701
1.77936
-0.668315
0.00440347
2.86675
-1.30549
0.00506147
2.42311
-0.744565
-0.203033
0.981052
0.770671
0.335394
0.536763
1.39482
0.390605
-0.350849
0.806972
1.25201
-0.997096
-0.40243
1.87688
-0.672288
-1.22342
2.53721
-0.205429
-1.66144
2.99608
-0.508572
2.83173
1.01247
1.50519
-0.969982
0.451246
1.64929
-0.207754
-0.114519
0.538616
-0.341201
-0.189717
-0.644985
-0.456008
-0.0770981
-1.39213
0.164288
-0.328121
0.15345
0.368729
2.04995
-1.00901
0.0747588
2.84393
-1.28069
-0.183666
1.72296
-1.45581
0.0182545
0.0382887
-1.33721
0.524016
-0.951444
-0.998416
1.0902
-1.25659
1.06387
1.05068
-0.0415119
0.649518
3.51521
-0.637225
-0.990843
3.31091
-0.327683
-0.775867
-0.579182
0.676047
0.156272
-2.53949
0.829411
0.479708
0.28628
1.41619
-1.16619
0.980529
2.50341
1.64655
0.631215
1.02935
3.39303
1.03562
0.155695
-1.10713
1.84868
0.114496
-2.97081
0.753747
-0.762707
0.62821
0.109226
-1.94128
1.21222
1.26172
-1.13977
1.54715
1.74436
0.424614
2.09123
0.769506
-1.51909
1.51456
0.877751
-2.18805
-1.61558
-0.744899
0.636708
-1.04939
-1.3815
0.570892
-0.884334
-1.49885
-0.367769
-0.19023
-1.12946
0.379709
0.314791
-0.912007
-2.64378
1.0759
-1.21221
-3.83142
-0.602057
0.954156
0.202046
-2.20927
0.284918
-2.93153
0.115219
-2.37235
-0.0604273
-1.92315
-0.319811
-2.03181
-1.14248
-0.0342081
0.692893
-2.11499
-0.0127195
0.673499
-1.08076
0.148924
0.679736
-2.04671
0.474656
0.47825
-1.12485
0.27621
0.517988
-0.281406
0.811692
-1.7842
-0.229672
1.40007
-1.92504
0.146537
1.5305
-1.22919
0.589692
1.45784
-1.46122
0.761879
1.00582
-0.202287
0.470974
1.55298
-0.662314
1.47603
-1.67997
0.320347
1.95287
-1.65122
0.448262
2.52045
-0.478302
0.408589
2.21576
0.25554
-0.306698
1.91974
1.11968
-0.0834189
2.31998
-0.926421
1.74815
-1.38236
0.406128
2.9396
-1.18984
-0.148867
3.91101
0.943801
-0.506893
3.01555
2.42498
-1.18008
2.15015
2.86588
-0.46292
2.24768
0.3362
1.72854
-0.107913
0.487935
2.82972
0.0125508
-0.396396
4.09394
1.95341
-0.960381
2.36685
3.08958
-1.01764
1.23044
3.51418
-0.378192
1.64394
2.96037
1.58948
2.5926
0.204565
1.96421
-0.309036
0.365846
3.29551
0.429393
0.228772
2.04278
0.11994
-0.0922327
1.17841
-0.0829728
-0.343871
1.71092
0.348948
1.10089
0.298168
-0.251335
1.41185
-0.205322
0.0628248
2.02397
-0.323304
-0.159471
1.35452
-0.54525
-0.471699
0.621505
-0.46808
0.063514
0.489512
-0.312224
0.198059
-0.290249
-0.963428
2.04242
0.291354
-1.74419
2.30367
-0.136164
-2.42558
1.66338
0.0448497
-1.73349
-0.179339
0.784799
-0.271949
-1.09601
0.953397
-0.711632
0.924022
0.106681
1.75839
1.15788
-0.192276
2.49135
0.742495
-1.20569
2.35336
1.35906
-0.807821
-0.816685
2.08815
0.190677
-1.58787
0.24711
-0.963565
1.07082
-0.0748093
0.841776
2.20365
0.439329
1.04333
2.48104
0.388074
1.24878
3.24706
0.642046
-0.8199
1.2638
0.790751
-1.23538
-2.11678
0.0805152
0.383379
-0.321014
0.042631
1.69105
-0.508627
-0.233181
1.09635
0.215307
-0.333974
1.23853
0.312963
-0.861158
-2.70018
0.151695
-1.17352
-3.73201
0.0810681
1.1053
0.606524
-2.77317
0.365759
-2.92395
0.289332
-2.6299
-0.254765
-2.24021
-1.10488
-2.35521
-2.16629
-0.241966
0.228093
-2.10112
0.0218169
0.31979
-1.66433
-0.14289
0.160818
-2.04282
0.185758
0.30769
-1.76118
0.577153
0.532782
-1.20558
0.449555
-1.6566
-1.35136
1.08446
-1.43005
-0.013597
1.37459
-3.62175
0.45785
1.43926
-3.21111
1.38922
1.63088
-2.45684
1.90915
1.72681
-2.37628
1.04569
-0.366956
-0.944657
1.33329
-0.95539
0.26073
2.316
-2.6251
1.05338
2.42122
-1.51906
1.09931
2.41264
0.291995
1.01339
2.67087
-1.78456
0.605119
0.0716008
-0.283217
1.07701
-0.650346
0.0458473
3.13785
-0.207117
0.468385
2.9685
1.45516
0.903867
2.2216
2.62143
0.444307
2.30131
1.16532
0.224054
0.717458
-0.83506
1.29921
0.625414
-1.25093
3.72969
1.77744
-0.931762
2.79806
2.94085
-0.550947
1.82294
3.53203
0.310849
2.05079
2.3491
1.39135
1.73615
-0.806472
1.09025
0.706392
-0.553052
2.27357
1.6321
-0.445059
1.28867
1.52134
-0.400552
0.73328
0.962181
0.398681
0.888075
0.712425
0.972176
1.11603
-0.837148
0.838149
0.883929
-0.617929
0.598525
1.13252
-0.582558
-0.0968192
0.804866
-0.654148
-0.309405
0.646194
-0.27242
-0.421491
0.615614
-0.46467
0.874176
-0.822517
1.24309
0.708932
-2.14769
0.793757
0.993781
-2.96946
-0.0351462
0.804944
-2.15075
-0.755621
0.412301
-1.18623
-0.88753
0.45492
-1.2787
0.551815
0.118062
1.41508
0.867826
-1.34334
1.71178
1.28587
-2.50975
0.992712
1.49761
-1.17404
-0.718195
0.715013
-0.774728
-0.721876
-0.317853
-1.10054
0.117936
0.724798
1.38141
1.51252
0.194634
2.18166
2.54131
-0.650332
2.02456
3.06018
0.288427
-0.767298
0.374143
0.329907
-1.06641
-1.81372
0.554005
-0.941262
1.24678
0.780995
1.04468
1.66803
1.31625
1.54051
1.7251
1.31347
1.89255
0.588449
-0.736552
-1.59428
-0.56277
-1.01022
-2.63699
1.06406
0.0324727
0.217651
-2.20982
0.535296
-1.92534
1.00772
-1.78886
0.14753
-2.11657
-0.962113
-2.25578
-2.06434
0.380222
-0.210863
-2.03338
-0.0305906
-0.125919
-1.3521
-0.721187
-0.100429
-1.03436
-0.276419
-0.223857
-2.1173
0.855014
-0.326744
-2.70227
-0.171111
-0.860627
0.0471142
1.9719
-2.22988
0.167856
2.10953
-2.35619
0.0240974
2.10523
-2.06191
0.0971004
1.95817
-2.25503
0.185247
1.77223
-2.18712
2.14224
-2.1281
-0.213229
-1.59883
0.139358
-1.9789
0.418858
-1.89548
0.189984
-1.54532
-0.203658
-1.44704
-1.99587
-0.0464247
-0.651617
-3.0493
0.132835
-0.389766
-2.89949
0.448528
-0.30599
-2.77592
0.335894
-0.736456
-3.00894
-0.105426
-1.17776
-3.0134
-0.180667
-2.48339
-0.0371096
-0.949072
-1.89531
0.093648
-0.53922
-2.33749
0.381073
-0.354329
-2.30099
0.255878
-1.0942
-1.77209
-0.167001
-1.53883
-1.40317
0.218565
-2.69433
-0.00248677
-0.704076
0.0348153
-1.05894
0.15927
-1.13562
0.146385
-0.595563
-0.0672032
-0.410307
-1.59876
-0.170616
-2.4624
-2.57935
-0.0642795
-2.27702
-2.81347
0.13433
-2.23036
-2.8176
0.0398014
-2.61918
-2.52819
-0.217652
-2.93556
-2.30762
-1.8546
-2.7227
0.0552064
-3.14791
-1.26501
-0.0206259
-3.00811
-1.53057
-0.0780443
-2.95372
-1.52022
-0.0118481
-3.28289
-1.17457
0.0807824
-3.4646
-0.96675
-2.55207
-1.91608
0.0792634
-0.294996
0.027905
-0.394868
-0.0411791
-0.411878
0.0468503
-0.269357
0.170715
-0.228307
-0.648403
-0.0348385
-3.14667
-1.97648
-0.0479462
-3.26317
-2.14063
-0.118379
-3.25095
-2.12811
-0.0892968
-3.26583
-1.95894
-0.00768378
-3.30383
-1.85264
-3.01695
-2.10665
0.129728
-3.15331
-1.3881
-0.0305722
-3.24104
-1.3924
-0.266585
-3.19142
-1.34373
-0.0687687
-3.22144
-1.41678
0.326981
-3.22272
-1.44361
-3.10174
-1.50431
0.0677872
-0.476508
0.0088973
-0.477661
-0.0408068
-0.481933
0.0364737
-0.486773
0.169453
-0.495574
-0.533019
-0.0645513
-2.93059
-1.11713
-0.0020624
-3.26738
-1.31331
0.0480601
-3.27806
-1.30579
0.00824726
-2.94945
-1.11855
-0.100209
-2.81838
-1.00714
-3.1538
-1.30884
0.109028
-2.55069
-1.87702
-0.0390065
-2.69509
-1.81666
-0.231393
-2.66862
-1.76079
-0.0780014
-2.5609
-1.95872
0.210688
-2.47849
-2.07219
-2.62825
-1.81917
0.063187
-1.00645
-0.0105012
-0.944165
-0.101929
-0.929063
-0.037887
-1.02907
0.117041
-1.07582
-0.93324
-0.0651537
-1.16478
-0.298407
0.0512124
-1.69091
-0.391542
0.221611
-1.74972
-0.399881
0.125948
-1.08631
-0.295092
-0.144816
-0.747048
-0.244374
-1.76501
-0.334976
0.0991149
-0.983963
-2.15696
-0.0286965
-1.23276
-2.147
-0.146032
-1.26416
-2.12901
-0.00915483
-0.960662
-2.22125
0.247344
-0.770372
-2.30537
-1.29114
-2.0457
0.0586467
-1.61534
0.00108348
-1.54848
-0.0916932
-1.51898
-0.030862
-1.63438
0.137729
-1.68978
-1.48493
0.171487
2.07648
-0.460277
-0.0628224
1.88943
-0.169785
-0.194174
1.8913
-0.225203
0.0457117
2.13377
-0.520566
0.509186
2.24779
-0.715876
1.65015
0.236158
0.0222684
2.14153
-2.24427
-0.0459468
1.94596
-2.13531
-0.0232391
1.89109
-2.15151
0.0770072
2.12491
-2.31264
0.249953
2.22838
-2.45891
1.73717
-1.88277
-0.00741491
-1.28249
0.00356086
-1.26849
0.0403644
-1.24871
0.0492467
-1.28726
0.0549328
-1.32311
-1.1998
0.11069
4.94881
-1.35393
-0.0741857
5.02676
-1.00503
-0.197816
5.02864
-1.07897
-0.00679209
4.93464
-1.43024
0.355486
4.82587
-1.66983
4.99685
-0.426043
0.0029264
4.28208
-1.58048
-0.0430704
4.48057
-1.54313
-0.057115
4.44467
-1.5535
-0.021236
4.20803
-1.62191
0.0550502
4.05519
-1.76451
4.51666
-1.34753
-0.048356
-0.399827
-0.0115802
-0.432512
0.0515983
-0.427349
0.00512485
-0.400599
-0.0972549
-0.422622
-0.422249
-0.101616
4.19973
-0.808297
-0.00213692
4.40082
-0.735679
0.0828248
4.34872
-0.770696
-0.0587761
4.17172
-0.839125
-0.405547
4.24936
-0.919035
4.49903
-0.511487
-0.0781445
2.83136
-0.13397
0.0137006
2.97336
-0.207514
0.0772947
2.94004
-0.208424
-0.0603
2.82789
-0.140484
-0.320646
2.90346
-0.158257
3.04384
-0.212984
-0.032278
0.293962
-0.00663056
0.265394
0.00965894
0.264621
-0.0432779
0.296699
-0.0873452
0.292562
0.235506
-0.0901707
1.81988
-0.906806
0.0264845
1.87809
-0.961735
0.0951345
1.85073
-0.95861
-0.0692154
1.82255
-0.890357
-0.365412
1.82778
-0.850465
1.9799
-0.912152
0.0134815
1.09381
0.578627
0.0168208
1.11381
0.553428
0.00599045
1.1002
0.55294
-0.0111379
1.11122
0.58798
-0.0707154
1.1127
0.616408
1.14767
0.548529
0.00506967
0.521859
-0.00391166
0.522151
-0.0135938
0.519062
-0.00470023
0.523736
0.00933747
0.522192
0.518501
-0.0396245
0.69962
-1.46881
0.0395143
0.669661
-1.51421
0.103354
0.657569
-1.5062
0.0564085
0.689421
-1.45827
-0.0992409
0.683513
-1.41652
0.643731
-1.48715
0.0320495
0.23034
1.01586
0.0043487
0.230454
1.02033
-0.0248799
0.221634
1.01811
0.00333741
0.226421
1.02276
0.0489725
0.21555
1.03873
0.222772
1.01846
0.000245872
0.840397
0.00279669
0.841161
0.00240224
0.838251
0.00186418
0.838961
-0.000326504
0.835346
0.838579
-0.0105741
-1.43307
-1.52814
-0.000811366
-1.51294
-1.52483
0.00641071
-1.49929
-1.52837
-0.00206473
-1.41738
-1.53757
-0.0236871
-1.36247
-1.54682
-1.49161
-1.5307
0.0151677
-0.884782
0.452399
-0.0152315
-0.91951
0.457304
-0.0435517
-0.909541
0.456679
-0.022979
-0.876793
0.4616
0.0350295
-0.850379
0.468629
-0.90101
0.462893
0.0106446
0.439365
-0.00433096
0.433615
-0.0181828
0.437848
-0.00834859
0.447558
0.0150447
0.454986
0.447497
0.0272968
-0.74691
-0.617037
1.33665
0.029643
-0.797214
-0.6455
1.44037
0.0161093
-0.846599
-0.651829
1.51196
-0.00763796
-0.828232
-0.650122
1.5021
-0.0328661
-0.823605
-0.658662
1.5075
-0.807543
-0.634704
1.40938
-0.00425809
-0.538662
-0.253586
0.049597
-0.0335889
-0.584262
-0.220004
0.0363857
-0.0567661
-0.606042
-0.157626
-0.0597512
-0.0229218
-0.574686
-0.119752
-0.167635
-0.00560209
-0.55713
-0.098159
-0.185632
-0.546398
-0.131856
-0.134887
0.0463018
-0.0323578
-0.41473
0.102056
-0.00322044
-0.473781
0.144793
0.00947844
-0.515308
0.108263
-0.0699843
-0.388559
0.0384289
-0.111459
-0.324024
-0.125481
-0.316559
-0.0118935
-0.428409
-0.176734
-0.0158624
-0.466529
-0.175002
-0.00879527
-0.48401
-0.174886
-0.0042219
-0.477421
-0.177274
-0.0030364
-0.478668
-0.181179
-0.464296
-0.173444
-0.0335977
-0.416041
-0.232353
-0.052083
-0.443222
-0.224821
-0.0439156
-0.444379
-0.205421
-0.0234167
-0.433853
-0.183815
0.00295879
-0.431004
-0.172194
-0.428346
-0.164845
0.0164906
-0.0332327
0.0450893
-0.0400961
0.0768523
-0.0535329
0.0633659
-0.075777
0.0279116
-0.0908185
-0.0925027
-0.003427
-0.162715
-0.0105914
-0.00250903
-0.16627
-0.00965034
0.000887985
-0.169752
-0.00853141
0.000378641
-0.169455
-0.00730936
-0.00200511
-0.1716
-0.0071955
-0.167276
-0.00817344
-0.017172
-0.214986
-0.162908
-0.0293876
-0.219412
-0.159461
-0.0347371
-0.218476
-0.151345
-0.0274454
-0.218074
-0.142487
-0.0166193
-0.218853
-0.135766
-0.213217
-0.135523
0.0155193
0.0840993
0.0295767
0.0799469
0.0340422
0.0720054
0.0270276
0.0613382
0.0112555
0.0545565
0.0513279
-0.00194338
-0.18927
0.180622
-0.00433544
-0.188035
0.180777
-0.00579356
-0.188817
0.181743
-0.00525858
-0.190548
0.182704
-0.00238833
-0.193188
0.183122
-0.191864
0.181302
-0.00915627
-0.255501
-0.0875199
-0.0145467
-0.256199
-0.0859067
-0.015656
-0.255166
-0.0838856
-0.0118951
-0.256578
-0.0802182
-0.0039645
-0.258619
-0.0782662
-0.255752
-0.0756008
0.00711194
0.211766
0.0150394
0.210581
0.0183004
0.206408
0.0149775
0.201639
0.00710147
0.197908
0.196538
-0.00141324
-0.481256
0.663291
-0.00425137
-0.478707
0.662322
-0.00607351
-0.48073
0.664296
-0.00545007
-0.487869
0.66995
-0.00222094
-0.494836
0.674729
-0.48766
0.666742
-0.00468088
-0.403394
-0.160701
-0.00614182
-0.402641
-0.160513
-0.0078612
-0.40263
-0.160268
-0.00692678
-0.405892
-0.163132
-0.00302765
-0.409963
-0.16704
-0.404015
-0.162275
0.00431982
0.140316
0.00865691
0.14278
0.011131
0.138273
0.00910629
0.130959
0.0030915
0.124927
0.128008
-0.00176977
-0.863077
0.000225068
-0.864504
0.00214494
-0.865989
-0.000364117
-0.865108
-0.00522429
-0.867232
-0.869187
-0.003317
-0.568061
-0.00194098
-0.569088
-0.00232905
-0.56919
-0.00171108
-0.567259
0.00035028
-0.567706
-0.568219
0.00504703
0.00487294
0.00316696
0.00477099
0.0052083
-0.109605
-1.72512
-0.266388
0.403569
-1.97719
-0.200319
-0.468618
-1.04686
-0.123773
-0.579328
-1.34229
-0.308184
0.445095
-2.0617
-0.16831
-1.20459
-0.00691887
0.0410267
-0.913045
-0.853104
0.714925
-2.26688
-0.384208
-0.643492
1.04007
-0.728505
-1.38177
0.0503554
-0.654373
-0.688451
-2.23397
-0.521043
-0.832521
-1.06052
0.0129113
-0.461689
-0.0200445
-0.215742
-0.59482
-0.450195
-0.612696
-0.621992
-0.39124
-0.452749
-0.520904
-0.062745
-1.89005
0.256362
-0.0861893
-3.64493
-0.153694
-0.724598
-3.59554
0.899059
-0.902578
-4.03261
1.44557
-0.912191
-2.76247
0.227492
-0.653724
-0.632342
0.710242
-2.37041
-1.08299
0.204374
-2.80154
-0.721724
-0.480592
-3.26811
-0.370967
-1.6149
-3.15957
-0.393107
-1.34086
-2.23228
-1.32527
-1.49392
-1.56118
0.286777
-0.771188
0.125582
-0.609429
-0.247998
-0.687537
-0.784923
-0.979577
-0.527441
-0.932349
-0.848781
0.50062
-0.843509
-0.356137
-0.11878
-3.22353
1.06415
-0.238573
-2.15042
1.65021
-0.16518
-0.816348
2.48052
-0.967891
-1.04542
0.291061
0.286842
-1.81547
0.702113
-1.02783
-1.60079
-0.221876
-2.49015
-0.531116
-0.932101
-1.67591
-0.135253
-1.08112
-1.19856
0.138117
-0.829265
-0.953073
-1.66946
-0.26711
-1.8365
0.283439
-0.996085
-0.216427
-0.772831
-0.434357
-0.907013
-0.538321
-0.900296
-0.196634
-0.939307
-0.919441
0.113206
-0.000827692
-1.11886
-0.375896
-0.276101
1.62223
-0.23992
1.0413
1.92808
0.736425
2.33884
1.78677
0.436921
1.52538
0.230497
0.599587
-1.26068
-0.131812
0.15304
-1.62285
-0.767066
0.193269
-0.365235
-0.761074
0.799353
0.100707
-0.00686421
1.43887
0.28388
0.175163
0.780625
-1.10673
0.267465
-1.32921
-0.191782
-0.816189
-0.306151
-0.75967
-0.238919
-0.699672
-0.0101941
-0.579723
0.117884
-0.676988
-0.657703
-1.36399
1.2871
-0.416556
-1.39731
1.91957
1.51341
-0.736469
2.77
1.4381
0.700194
2.99338
0.88875
1.04778
1.97033
0.261675
1.46405
0.0591964
-1.17427
1.46652
-0.628
-1.1349
1.89136
-0.376399
-0.117083
2.19456
-0.341672
1.32619
2.13079
-0.296806
0.931753
1.59994
-0.341894
1.41879
-0.352197
-0.375589
-0.367041
-0.253498
-0.632479
0.158054
-0.70333
0.480953
-0.473235
0.261539
-0.34295
-0.374997
-1.20401
1.28925
0.204593
-0.672412
2.25195
0.361968
0.487246
2.08636
-0.286582
1.10037
1.54556
-0.307756
0.848063
1.01497
0.211441
1.55511
0.468171
-0.786823
1.5418
-0.0937363
-0.229496
2.07653
-0.758312
0.721504
2.06652
-1.27284
1.13433
1.76149
-0.925574
0.449339
1.41666
-0.0585872
1.4512
0.201059
-0.198314
-0.120045
0.00329847
-0.663852
0.27628
-0.934553
0.368926
-0.560997
0.118682
-0.129989
-0.100995
-0.500302
1.37409
0.214731
-0.258196
1.79669
-0.544308
0.0356958
1.38239
-1.158
0.150993
1.17685
-0.953713
-0.0857368
0.97507
0.0887136
1.3593
-0.102691
-0.0777044
1.36218
-0.00411908
0.431506
1.71676
-1.18759
0.659002
1.59362
-1.71157
0.659479
1.49928
-1.24848
0.180705
1.3633
0.0319609
1.34197
0.399096
0.125501
-0.139256
0.303964
-0.724102
0.232055
-0.931538
0.16817
-0.583339
0.0606775
-0.125672
-0.0184686
0.495671
0.786335
-0.358342
0.0220511
1.40951
-0.486417
-0.715345
1.12727
-0.74293
-0.821757
0.549006
-0.984007
-0.740406
0.792664
-0.330383
0.811362
-1.10265
0.593801
0.646689
-0.458276
1.02695
1.05424
-1.26547
0.895339
0.942507
-1.39519
0.282006
0.780588
-0.866731
-0.0207387
0.888768
0.2386
0.793867
0.395851
0.246053
-0.238248
0.405126
-0.633116
0.221882
-0.624536
-0.0633292
-0.316315
-0.049851
-0.0327878
0.05795
0.836067
0.600191
-0.926775
0.21849
1.55499
-0.137953
-0.458967
1.45803
-0.0258868
-0.26045
0.343952
-0.811466
-0.688465
0.325375
-0.545598
0.0755402
-1.74872
0.528998
0.447113
-0.834196
0.95875
0.918232
-1.05847
1.15004
0.761383
-0.88984
0.678001
0.305245
-0.355989
0.339992
0.53795
0.36403
0.456712
0.35467
0.02138
-0.26492
0.150846
-0.431132
0.189979
-0.344015
-0.0105268
-0.127502
-0.0488857
-0.00993838
0.0286634
0.803029
0.854548
-1.07183
1.20918
2.12315
-0.125944
1.34614
2.51286
0.384481
1.254
0.535688
-0.880873
0.0523978
-0.366696
-0.79102
-0.621324
-2.01626
0.137655
0.296533
-0.413837
0.779522
0.794172
-0.371359
1.70091
0.888204
-0.186574
1.43131
0.0391085
0.410189
0.802416
-0.190691
0.816914
-0.264287
0.80005
-0.11953
0.18964
-0.061643
0.174207
0.125614
0.204235
0.0674099
0.21038
0.00617491
0.202709
0.227433
0.431039
0.71503
-1.17322
1.53871
1.12737
-0.820469
2.75914
1.61019
-0.553588
1.51688
-0.0696819
-1.16321
-0.0116994
-0.655555
-1.24388
-0.370755
-1.62473
-0.230983
0.246774
0.285403
0.121245
0.152306
0.251472
0.845635
0.286421
0.412803
0.578516
-0.308135
0.915762
0.25005
-0.505532
0.995358
-0.319471
0.998816
0.0832527
0.819459
0.190752
0.819346
0.339492
0.81288
0.213248
0.688534
0.025515
0.641083
0.693519
-0.0982923
-1.9481
-0.11854
-1.28519
0.0484609
-0.997481
0.113797
-1.84301
0.141399
-2.01977
-2.13829
-0.380204
-1.23289
-0.294839
-1.0827
-0.0103872
-0.928878
0.0641312
-1.1694
0.0725732
-1.21848
-1.20178
-0.0723843
0.0786475
0.318922
0.24647
0.104566
)
;

boundaryField
{
    seabed_topleft_surface
    {
        type            calculated;
        value           uniform 0;
    }
    seabed_topright_surface
    {
        type            calculated;
        value           uniform 0;
    }
    breakwater_top_surface
    {
        type            calculated;
        value           uniform 0;
    }
    breakwater_left_surface
    {
        type            calculated;
        value           uniform 0;
    }
    breakwater_right_surface
    {
        type            calculated;
        value           uniform 0;
    }
    water_front_surface
    {
        type            calculated;
        value           uniform 0;
    }
    water_back_surface
    {
        type            calculated;
        value           uniform 0;
    }
    water_left_surface
    {
        type            calculated;
        value           uniform 0;
    }
    water_right_surface
    {
        type            calculated;
        value           uniform 0;
    }
    water_top_surface
    {
        type            calculated;
        value           nonuniform List<scalar> 
180
(
3.78396
3.73585
3.72121
3.73236
3.61291
3.93445
-1.84134
-1.49648
-1.23865
-2.03107
-2.36197
-0.245746
-3.63625
-3.62083
-3.60838
-3.69713
-3.77047
-3.33172
-3.03959
-3.09936
-3.07166
-3.08131
-3.08844
-3.04767
-2.08394
-2.15489
-2.13006
-2.08264
-2.05317
-2.11099
-0.433713
-0.57088
-0.581464
-0.416179
-0.325002
-0.601713
1.81609
1.65499
1.58401
1.76891
1.85602
1.50698
3.44777
3.60781
3.56013
3.36784
3.25708
3.64185
2.16985
2.2498
2.23178
2.18353
2.23234
2.29874
0.860839
0.866031
0.855443
0.875289
0.869031
0.874016
-0.0884448
-0.0911074
-0.0971599
-0.0882662
-0.0954139
-0.0976335
-0.494397
-0.496987
-0.495286
-0.495224
-0.493413