/*--------------------------------*- C++ -*----------------------------------*\
| =========                 |                                                 |
| \\      /  F ield         | OpenFOAM: The Open Source CFD Toolbox           |
|  \\    /   O peration     | Version:  v1612+                                |
|   \\  /    A nd           | Web:      www.OpenFOAM.com                      |
|    \\/     M anipulation  |                                                 |
\*---------------------------------------------------------------------------*/
FoamFile
{
    version     2.0;
    format      ascii;
    class       volVectorField;
    location    "8";
    object      U;
}
// * * * * * * * * * * * * * * * * * * * * * * * * * * * * * * * * * * * * * //

dimensions      [0 1 -1 0 0 0 0];

internalField   nonuniform List<vector> 
1116
(
(0.438879 0.00317443 -0.317253)
(0.440617 0.000625234 -0.313291)
(0.434857 -0.00148567 -0.314197)
(0.443763 0.00100844 -0.316749)
(0.454725 -0.0021756 -0.318306)
(0.432808 -0.00451573 -0.316215)
(1.10037 0.00218961 -0.28272)
(1.09551 0.000758059 -0.281166)
(1.09439 -0.00193119 -0.278656)
(1.10094 -0.00575094 -0.2837)
(1.10555 0.00254323 -0.288981)
(1.09453 0.00209433 -0.277786)
(1.56093 0.00191054 -0.26073)
(1.55855 0.00174612 -0.25986)
(1.55871 -0.00176578 -0.258696)
(1.56132 -0.00474393 -0.260624)
(1.56408 0.00312287 -0.263488)
(1.55843 0.00497217 -0.257922)
(1.52979 0.00036752 -0.0136082)
(1.52782 0.000754232 -0.0112792)
(1.52848 -0.000559165 -0.0116449)
(1.52931 -0.00185109 -0.0126832)
(1.53088 0.00137126 -0.0147822)
(1.52786 0.00231515 -0.0102601)
(1.11188 -0.00113177 0.179025)
(1.10586 -0.000352086 0.180267)
(1.10798 0.000568952 0.179413)
(1.10976 0.000434853 0.180283)
(1.1117 -0.000471037 0.179244)
(1.10744 -0.00114057 0.180204)
(0.684546 -0.00104687 0.194811)
(0.669269 -0.000801368 0.188799)
(0.673545 0.00115832 0.189181)
(0.67984 0.00152088 0.194178)
(0.684352 -0.00138804 0.196194)
(0.670709 -0.00251145 0.18737)
(0.187923 0.0016986 -0.0606514)
(0.17267 -0.000528807 -0.0711468)
(0.175702 0.000611182 -0.0687988)
(0.185333 -0.00111969 -0.0633749)
(0.190917 0.000426921 -0.0565297)
(0.171703 0.00262853 -0.0748405)
(-0.425141 0.00227258 -0.442871)
(-0.425056 0.000497638 -0.45062)
(-0.424418 0.000706116 -0.448048)
(-0.424876 -0.00146227 -0.445017)
(-0.430107 0.00334204 -0.439331)
(-0.421697 0.00588376 -0.453308)
(-0.817994 -0.00192003 -0.651689)
(-0.80916 0.000410416 -0.651338)
(-0.809234 0.00172107 -0.650919)
(-0.817881 0.00227348 -0.651802)
(-0.828049 0.00271007 -0.653999)
(-0.804761 0.000556993 -0.64694)
(-0.867937 -0.00425526 -0.661689)
(-0.870471 0.000393084 -0.651936)
(-0.867629 0.00154237 -0.652821)
(-0.870721 0.0058094 -0.66057)
(-0.877657 -0.00231399 -0.671548)
(-0.867972 -0.00811841 -0.639747)
(-0.792778 -0.0024783 -0.579776)
(-0.805748 0.000442133 -0.558359)
(-0.80529 0.000220339 -0.560817)
(-0.794798 0.00664821 -0.578677)
(-0.795442 -0.00588355 -0.598543)
(-0.812655 -0.00952033 -0.546971)
(-0.374191 0.00502904 -0.44506)
(-0.404417 0.0019267 -0.424635)
(-0.402549 -0.0052125 -0.428779)
(-0.376548 -0.00553335 -0.444798)
(-0.358277 0.000809725 -0.464718)
(-0.414409 0.0118367 -0.422114)
(0.197708 0.00255039 -1.25277)
(0.19083 -0.00128118 -1.23379)
(0.165181 0.00965259 -1.24335)
(0.220741 0.0247245 -1.24302)
(0.283219 -0.00537542 -1.24866)
(0.156154 -0.033562 -1.24865)
(1.68375 -0.00322674 -0.855478)
(1.66008 -0.00541097 -0.835255)
(1.64977 0.00425622 -0.84215)
(1.68644 0.00221552 -0.848001)
(1.71491 -0.0036882 -0.853095)
(1.64097 -0.0175201 -0.841844)
(2.3355 0.000175303 0.00333724)
(2.30572 0.000553506 0.0169239)
(2.30683 0.00160577 0.0176622)
(2.33524 -0.00206467 0.00491954)
(2.36046 0.00412884 -0.00338626)
(2.29091 -0.00235967 0.0234368)
(2.55992 0.00233919 0.487034)
(2.54933 0.00299212 0.49389)
(2.5486 -0.00118934 0.495523)
(2.56074 -0.00563606 0.487563)
(2.57351 0.0074837 0.484011)
(2.54236 0.00880194 0.497425)
(2.53078 0.000335325 0.592661)
(2.52712 0.000735308 0.597124)
(2.52739 6.28578e-05 0.597223)
(2.53033 -0.0019957 0.593825)
(2.53343 0.00276509 0.593568)
(2.52569 0.00469324 0.595695)
(2.6214 0.00546557 0.602606)
(2.6162 0.00290424 0.609063)
(2.61149 -0.001789 0.608031)
(2.6241 -0.00194564 0.605009)
(2.62786 0.00226437 0.603966)
(2.6113 0.00375159 0.608434)
(2.91213 0.0111998 0.854745)
(2.92805 0.0066151 0.856083)
(2.91313 -0.00562564 0.855778)
(2.92612 -0.0092741 0.855296)
(2.93101 0.00537422 0.848991)
(2.91419 0.0134753 0.863795)
(3.35109 0.00485924 1.20021)
(3.38223 0.00430102 1.19381)
(3.36654 0.000125733 1.19411)
(3.36922 -0.00542663 1.19985)
(3.37307 0.0141052 1.20373)
(3.34051 0.0265365 1.20944)
(3.50673 -0.0282868 0.994173)
(3.61271 -0.0125394 0.991446)
(3.58666 0.0176511 0.989558)
(3.52756 0.0258313 0.995939)
(3.4837 -0.0404768 0.997081)
(3.6456 -0.0387552 1.00547)
(2.07804 -0.0402593 0.536863)
(2.18577 -0.016467 0.531245)
(2.17129 0.0154653 0.527875)
(2.09614 0.0332808 0.542629)
(2.01887 -0.0400832 0.550365)
(2.28386 -0.0600424 0.523255)
(0.894394 -0.0394003 0.294239)
(0.86601 -0.00758245 0.297532)
(0.879875 0.00396555 0.294754)
(0.897352 0.0371549 0.300454)
(0.893982 -0.0259995 0.311558)
(0.870163 -0.0605693 0.275754)
(0.189656 0.0464012 -0.338416)
(-0.0395458 0.0424707 -0.371967)
(-0.0110951 -0.0635103 -0.370544)
(0.184181 -0.0621168 -0.33938)
(0.338857 0.0461713 -0.322546)
(-0.0656622 0.0974385 -0.390465)
(-0.440627 0.018661 -2.41776)
(-0.420161 0.0230921 -2.38103)
(-0.359124 -0.0416143 -2.37805)
(-0.498538 -0.0717242 -2.4133)
(-0.66262 0.0151863 -2.43003)
(-0.339908 0.0744821 -2.38838)
(1.73314 0.0062838 -2.50101)
(1.90754 0.030436 -2.52417)
(1.94434 -0.0131096 -2.54577)
(1.75195 0.0571136 -2.48287)
(1.65798 -0.0287694 -2.43911)
(1.9707 0.0747305 -2.55863)
(2.75006 -0.00338958 -1.30276)
(2.91448 0.0036976 -1.30957)
(2.89752 -0.00583614 -1.31321)
(2.7625 0.0165566 -1.29741)
(2.68798 -0.0194696 -1.28517)
(2.95143 0.0386565 -1.30988)
(3.62461 0.00127718 -0.384311)
(3.68146 0.00256402 -0.386376)
(3.67156 -0.0044619 -0.380198)
(3.62869 -0.00173169 -0.386604)
(3.60477 -0.0048473 -0.386693)
(3.67101 0.0107079 -0.369991)
(4.19282 -0.000853388 0.141892)
(4.21067 0.000154387 0.139272)
(4.20608 0.000269248 0.146132)
(4.19762 0.00209742 0.138454)
(4.19325 -0.00134449 0.135737)
(4.19212 -0.00291013 0.15195)
(4.84746 0.00127269 0.0892412)
(4.85034 0.00369193 0.103583)
(4.84866 -0.00226711 0.108702)
(4.84407 0.00328773 0.0884791)
(4.84446 -0.00348987 0.0856318)
(4.84702 -0.00629763 0.110097)
(6.30768 0.0354813 -0.370588)
(6.31507 0.0287132 -0.338857)
(6.27878 -0.0263803 -0.32944)
(6.3655 -0.0490294 -0.376203)
(6.43914 0.0390932 -0.402985)
(6.19876 0.0559802 -0.311464)
(6.42283 0.0282081 -0.476846)
(7.24558 0.053028 -0.550353)
(7.08752 -0.0516423 -0.520102)
(6.51587 -0.0482041 -0.499505)
(6.13067 0.161918 -0.481204)
(7.44839 0.270763 -0.495447)
(0.377734 -0.1797 1.1862)
(1.51149 -0.0802179 0.84799)
(1.31071 0.0411558 0.907905)
(0.200627 0.156406 1.18454)
(-0.136823 -0.306972 1.37732)
(2.76963 -0.117707 0.554905)
(-1.93399 -0.0889683 1.54549)
(-2.08954 -0.0872344 1.47052)
(-2.07338 0.0240611 1.4493)
(-1.98611 0.0325936 1.53925)
(-2.12902 -0.226527 1.59557)
(-2.04385 -0.187262 1.46767)
(-1.61214 0.0603907 0.818434)
(-1.76476 0.0315153 0.989591)
(-1.71463 -0.0905632 0.962879)
(-1.68515 -0.107464 0.796999)
(-1.66563 0.0409917 0.709648)
(-1.6727 0.122161 1.03468)
(-1.41365 0.0544844 0.157117)
(-1.49723 0.0275703 0.409993)
(-1.45284 -0.0732381 0.405837)
(-1.43186 -0.0900188 0.141119)
(-1.35583 0.0144639 0.0650485)
(-1.41708 0.0859969 0.474396)
(0.168369 0.190053 -3.44445)
(0.921623 0.279112 -3.38518)
(1.33621 -0.546031 -3.3518)
(-0.447738 -0.830042 -3.45668)
(-2.06687 0.191976 -3.43342)
(1.23927 0.968302 -3.42605)
(0.5941 0.00661035 -3.19647)
(2.2383 0.177763 -3.31889)
(2.66174 0.0544604 -3.31022)
(0.790872 0.490529 -3.18664)
(-0.446125 -0.00990953 -3.28002)
(3.05933 0.347282 -3.27454)
(1.51051 -0.0828474 -2.23306)
(2.62965 -0.0875046 -2.14567)
(2.5111 0.0685939 -2.11991)
(1.55002 0.292269 -2.20781)
(0.941584 0.0667282 -2.40776)
(3.76931 0.201525 -2.03395)
(5.76118 -0.0611999 -1.70133)
(6.58535 -0.125356 -1.48874)
(6.20933 0.0419968 -1.51583)
(5.93119 0.0453069 -1.67873)
(5.73999 -0.0858389 -1.80729)
(7.5959 0.126505 -1.37775)
(10.43 -0.0541253 -1.27712)
(11.0647 -0.0260366 -1.23223)
(10.8185 0.0976211 -1.24525)
(10.6991 0.108483 -1.27038)
(10.0632 -0.154249 -1.28362)
(11.6864 0.0708199 -1.2307)
(13.2671 -0.15289 -1.78901)
(14.3904 0.114569 -1.73327)
(14.24 0.134382 -1.7308)
(13.8351 0.478531 -1.77008)
(13.0751 -0.179491 -1.82401)
(14.9569 0.00729455 -1.62654)
(11.5034 -0.146305 -0.0234547)
(12.5121 0.138995 -0.376114)
(12.4365 -0.112301 -0.263866)
(11.9068 0.291231 -0.0627269)
(11.7801 -0.05699 0.0431792)
(13.3956 0.0473213 -0.481936)
(6.80208 0.0425944 4.59641)
(8.33372 0.0822133 3.93361)
(8.04185 -0.159745 4.09012)
(6.83419 -0.081561 4.62666)
(6.178 0.229829 4.72091)
(9.45507 0.41619 3.73835)
(0.447731 -0.102286 8.59463)
(2.22004 -0.029977 8.52481)
(1.8452 -0.066324 8.52834)
(0.177364 0.0589112 8.57002)
(-0.547146 -0.268356 8.60365)
(4.01621 0.0833729 8.3157)
(-0.56638 -0.100855 3.16314)
(-0.441249 -0.125331 3.53289)
(-0.486601 0.0275935 3.41402)
(-0.611719 -0.0423011 3.094)
(-0.919177 -0.404147 3.03404)
(-0.454011 -0.308802 3.86978)
(-0.424334 -0.0581405 -1.14486)
(-0.262842 -0.00230711 -0.649305)
(-0.333979 0.121909 -0.715977)
(-0.396635 0.199724 -1.21301)
(-0.849771 -0.0419328 -1.73325)
(-0.311221 -0.135529 -0.646726)
(-4.43675 -0.0444592 -3.32228)
(-4.37124 -0.0207701 -3.19309)
(-4.35768 0.065245 -3.1988)
(-4.43953 0.113306 -3.34654)
(-4.49912 -0.0433433 -3.47273)
(-4.29598 -0.102968 -3.15312)
(-0.571696 -0.193287 -0.265536)
(-0.187397 -0.183252 -0.287745)
(-0.524285 -0.0404339 -0.254673)
(-0.280533 0.311524 -0.43916)
(0.453035 -0.0929952 -0.133836)
(-0.245058 0.448766 -0.0603726)
(-1.89337 -0.0364225 0.121442)
(0.0566911 -0.0284718 -0.399761)
(0.591338 0.340641 -1.21651)
(-0.472029 0.783766 -0.45957)
(-0.225067 -0.141484 0.230102)
(-1.77156 0.0139756 0.236347)
(-1.8771 0.0665891 0.342683)
(1.21732 0.677357 -1.00816)
(1.15431 0.762347 -1.50111)
(-0.173646 0.0415741 -0.631219)
(-0.190525 -0.7638 -0.0304868)
(-1.21349 -0.392021 -0.016199)
(0.363639 0.353993 -0.333513)
(2.93681 0.864424 -1.28797)
(0.512283 0.74243 -0.478664)
(-1.83202 0.168451 0.00965845)
(0.961871 -0.431434 -0.030372)
(0.207696 -0.213561 -0.197065)
(3.2731 0.120619 -0.749886)
(4.63685 0.313919 -1.56621)
(4.53758 0.0764258 -1.95446)
(2.66908 0.786429 -0.342746)
(2.08537 0.590996 0.879751)
(2.59598 -0.143233 -0.169968)
(4.03348 -0.0865994 -0.914354)
(5.1239 0.172531 -1.94449)
(5.52523 -0.178834 -2.67366)
(5.4988 0.271921 -2.03849)
(4.83934 0.263268 -0.754177)
(5.19507 -0.0233083 -1.45081)
(4.0765 -0.214629 -1.04386)
(4.68891 0.0183831 -1.99257)
(4.89789 -0.0745784 -2.64817)
(4.50254 0.288109 -2.10659)
(4.6893 -0.0314957 -1.34171)
(4.66099 0.0105522 -1.65799)
(3.61563 -0.241277 -0.93798)
(4.22343 -0.0927832 -1.90635)
(4.29333 0.0233065 -2.4423)
(4.06766 0.303097 -1.83044)
(4.57327 -0.484194 -1.62558)
(4.0932 -0.0272979 -1.50458)
(3.33345 -0.256575 -0.490089)
(3.99761 -0.365386 -1.63555)
(4.09408 -0.149474 -2.21178)
(4.53079 0.192395 -1.73524)
(5.14253 -0.883638 -1.75157)
(3.64406 0.118674 -1.21737)
(3.13853 -0.387519 0.236247)
(3.87784 -0.745751 -1.20699)
(4.06595 -0.467777 -2.0383)
(5.05938 -0.23391 -2.09133)
(5.28428 -0.531449 -2.13745)
(3.17834 0.644843 -0.915097)
(2.47782 -0.392027 0.733408)
(3.24446 -0.763187 -0.771846)
(3.5228 -0.685101 -1.9255)
(3.44276 -0.390986 -2.14784)
(3.48963 0.164336 -2.60324)
(2.16779 0.989893 -0.628269)
(1.02703 -0.282184 0.390628)
(1.64525 -0.29146 -0.778095)
(1.93351 -0.100059 -1.50942)
(1.49635 0.175886 -1.2536)
(1.08596 0.287786 -1.14523)
(0.638555 0.471124 -0.0748949)
(-1.07528 -0.138832 -1.55434)
(-0.429417 0.27344 0.124314)
(-1.60861 -0.359625 -1.01323)
(-0.162626 0.552652 -0.126014)
(0.54251 -0.296621 0.180491)
(-0.732347 0.213324 -1.34972)
(-2.59895 0.205064 -1.48688)
(-1.75673 0.571595 0.887897)
(-1.32665 0.0891486 0.711706)
(-0.324715 0.278296 1.20213)
(-1.35002 -0.897746 0.76074)
(-2.49295 0.0728982 -1.63123)
(-3.22552 0.453828 -0.0207676)
(-2.10774 0.811558 1.97506)
(-2.14613 0.169942 2.2316)
(-1.20618 -0.995161 2.21147)
(-1.80832 -1.57294 1.46753)
(-3.16406 -0.245745 -0.598368)
(-3.32101 0.419528 2.02064)
(-1.64846 0.249884 3.73425)
(-1.91199 -0.416067 5.09836)
(-1.70878 -1.10182 3.9772)
(-0.587569 -1.17088 2.95556)
(-2.45246 -0.408489 1.62712)
(-2.41096 0.683531 2.66544)
(-0.139428 0.154292 3.57847)
(1.45343 -1.00609 4.13527)
(1.1634 -0.665141 5.2831)
(1.21884 -0.389851 5.35806)
(-0.613718 -0.0419016 5.61536)
(-3.58815 0.68169 1.0382)
(-3.81448 0.898751 1.82827)
(-0.975571 0.15087 2.40504)
(2.50535 -0.351415 1.88761)
(4.23049 -0.0447937 2.07147)
(1.92196 -0.046692 2.32328)
(-3.99103 0.265934 0.400359)
(-4.42606 0.259488 0.00387845)
(-2.33404 0.0263946 -0.0416488)
(-1.02756 -0.290999 -0.20868)
(-0.125874 0.233122 0.904514)
(-1.42236 0.608031 -0.268746)
(-4.54695 0.693143 1.07244)
(-6.84213 1.1876 0.366397)
(-3.95255 -0.296801 0.656838)
(0.817513 -1.16628 2.40358)
(3.95587 -0.178647 2.03723)
(-2.6462 0.349095 -0.298931)
(0.598667 0.196996 1.31392)
(-6.75061 2.40856 1.34195)
(-8.7166 1.87891 1.10124)
(0.893197 0.557854 2.8662)
(6.27936 -0.382696 2.36084)
(1.2843 0.784731 -0.953266)
(3.44369 -0.681087 1.65207)
(0.117282 0.799226 1.05171)
(-5.23647 1.77047 1.08705)
(2.8459 1.60487 2.33134)
(5.34865 -0.239627 -1.40849)
(1.45682 2.24018 0.401621)
(3.82596 -0.996824 -0.587172)
(4.04536 -0.576854 -1.74953)
(2.70418 -1.69383 0.719989)
(2.78442 1.56496 -4.46833)
(4.37269 -0.848366 -6.69553)
(1.52075 2.4735 0.6658)
(2.65 0.0902347 -3.2259)
(3.72648 0.422988 -5.17893)
(3.00416 -0.0240992 -4.233)
(3.14429 0.42534 -3.43745)
(3.2071 -0.616005 -3.35007)
(1.03552 -0.189634 -0.944425)
(-0.161126 -0.357468 -3.86489)
(-0.415932 0.245528 -1.44013)
(-0.461978 -0.233912 -3.42073)
(-0.658866 0.522328 -1.02929)
(0.272083 0.271639 0.0236576)
(-0.2311 0.307791 -3.26507)
(-2.24734 -0.667044 -3.89195)
(-2.15854 0.268975 -0.834224)
(-2.14135 0.072263 -1.55262)
(-1.15459 1.03498 0.895333)
(-2.11036 0.252052 -0.366195)
(-2.52791 0.60218 -4.0143)
(-3.06217 -0.0776737 -2.73788)
(-3.79711 0.680795 0.782671)
(-3.57223 0.336779 1.93861)
(-2.76184 0.253892 2.82914)
(-3.92076 -0.714272 -1.15202)
(-3.04979 0.462653 -3.35095)
(-4.07593 0.249894 -1.01406)
(-5.68156 0.362635 3.47203)
(-4.8942 -0.456763 6.32492)
(-4.80075 -0.824991 5.14536)
(-5.03232 -1.12875 0.506623)
(-3.56042 0.0829068 -0.556091)
(-6.28167 0.410558 -0.533134)
(-9.19408 0.377073 2.63551)
(-6.29252 -1.00081 4.93078)
(-3.52898 -1.02195 6.12046)
(-3.2826 -0.731153 7.0622)
(-3.2419 0.00344651 6.28996)
(-5.47115 0.0160682 -3.32171)
(-8.56773 0.473426 -1.85681)
(-5.15119 0.255437 -2.77263)
(-2.72516 0.102734 -2.69296)
(-4.67796 -0.437686 -0.962895)
(-3.47014 0.0382648 -1.27239)
(-2.42996 -0.409387 -3.28576)
(-4.84714 0.032752 -3.85121)
(-3.08744 0.0827679 -4.40806)
(-2.02612 -0.477612 -3.86031)
(-2.75893 -0.252199 -3.6514)
(-1.16738 0.314697 -3.42641)
(-2.50325 -0.486292 -1.27881)
(-2.0482 -1.38176 -2.66257)
(-1.18017 -2.23965 -1.55384)
(0.18897 -2.17432 1.00496)
(1.316 -0.847889 1.80999)
(0.767698 0.193244 1.55231)
(-5.27466 0.0668 2.03042)
(-6.26683 0.23941 0.461409)
(-4.8878 -0.841658 2.37026)
(-0.2607 -1.01048 5.3721)
(3.0795 -0.566583 1.35416)
(1.7175 0.997666 2.68801)
(-2.48275 -0.466376 3.41553)
(-4.50474 0.389546 4.01296)
(-6.39688 0.235148 5.62375)
(1.29434 0.767793 3.9452)
(3.29785 0.155352 -3.99577)
(1.05933 1.51354 1.37265)
(-2.95714 -1.11642 2.66238)
(-1.234 0.426077 0.0180592)
(-0.45884 -1.17385 0.0721894)
(2.46588 1.47147 -5.44868)
(4.04489 -0.947385 -7.20019)
(-2.30299 1.32694 2.39176)
(3.6312 0.414805 -5.47574)
(3.89393 0.530703 -6.07247)
(3.3299 0.266463 -5.24042)
(3.29607 0.413998 -4.20963)
(3.42137 -1.03095 -4.48382)
(2.46773 -0.943059 -3.80583)
(1.36772 -0.919973 -4.11537)
(0.236471 0.262701 -2.70944)
(1.17586 -0.13329 -4.38988)
(1.03433 -0.0988889 -3.23185)
(0.765426 0.369528 -0.993262)
(1.58796 0.7378 -3.40249)
(-1.80637 -1.88558 -3.60063)
(-1.49272 0.0258805 -3.61821)
(-1.57853 -0.143916 -3.88524)
(-2.11735 1.29481 -1.55033)
(-2.59802 0.907533 -2.06383)
(-2.45443 1.80421 -2.41087)
(-2.64248 -1.31631 -2.97231)
(-3.48095 0.389538 -2.50664)
(-3.88896 0.243507 -0.782678)
(-4.03361 1.4523 1.73031)
(-4.23906 0.534183 -2.03326)
(-2.47047 1.02249 -1.34681)
(-1.92941 -0.906214 -2.94404)
(-5.48639 0.292921 0.150641)
(-5.67295 -0.150177 3.17159)
(-5.81633 1.00262 5.46493)
(-5.9694 0.33472 0.933541)
(0.328227 0.778745 0.374524)
(-2.78385 -0.928435 0.480611)
(-8.22425 -0.695493 3.56986)
(-7.00865 -1.31526 5.54388)
(-4.67218 -0.640278 6.73961)
(-4.76584 -0.226 4.68714)
(-1.98974 0.610295 4.0555)
(-2.42613 -0.734943 1.71326)
(-6.98651 -0.545718 3.02143)
(-5.26866 -0.543055 3.04176)
(-3.19365 -0.477951 2.11731)
(-3.38567 -0.0655737 2.01176)
(-3.64388 0.638236 2.11428)
(-2.31152 -0.665575 2.16832)
(-2.84965 -0.656691 2.20857)
(-0.81779 -0.613766 1.84119)
(-0.524943 -0.60125 1.65113)
(-0.811548 -0.493132 2.07373)
(-0.842453 -0.0921633 1.95166)
(-1.55972 -0.170676 2.1297)
(-0.0080028 -1.42132 1.95826)
(0.81399 -2.84626 1.63251)
(1.43622 -2.40853 1.56309)
(1.88754 -1.60132 1.29795)
(2.08615 -0.442592 1.52508)
(-3.88895 0.563264 2.44987)
(-3.60317 -0.415806 2.20205)
(-1.31116 -2.46013 2.75079)
(0.933428 -1.57333 2.40928)
(1.75092 -1.06716 -0.693838)
(2.28309 -0.00303335 1.53326)
(-2.63021 0.360062 4.43154)
(-4.36232 1.0867 5.49515)
(-3.95197 -0.946247 6.37493)
(1.65999 0.152816 0.384812)
(2.4587 0.194225 -4.33944)
(2.59737 0.537185 -0.16934)
(-5.90616 -0.039762 4.31498)
(-7.86482 2.18141 4.85402)
(-7.87617 1.08275 5.01048)
(1.65648 1.7624 -4.1631)
(3.28308 -0.46532 -6.13683)
(-6.17275 -0.386864 2.51229)
(3.67016 0.0812036 -4.53388)
(3.50765 0.280793 -4.28927)
(3.44558 0.832621 -4.04361)
(3.71896 0.853868 -4.22468)
(3.8134 -0.678642 -4.5088)
(3.25514 -0.741074 -3.9419)
(-2.13062 0.218546 -2.22148)
(-0.56685 0.427298 -2.41862)
(0.137203 -0.530387 -2.30081)
(-2.71089 -0.625238 -2.30968)
(-4.57509 0.231253 -2.28859)
(-0.0988403 1.07551 -2.43118)
(-4.55003 -0.0262603 1.08531)
(-4.23457 0.162856 1.67278)
(-3.24526 0.0483666 1.66835)
(-4.83857 0.0168381 1.13172)
(-5.34897 0.103085 0.665036)
(-3.24682 0.332092 1.48361)
(-4.39281 -0.265455 6.90305)
(-4.87486 -0.0435066 6.80876)
(-4.29699 0.266339 6.7818)
(-4.50952 0.439153 6.79974)
(-4.75273 -0.160678 6.57847)
(-3.91347 -0.0986841 7.14995)
(-6.49026 -0.0743363 -2.12057)
(-5.21949 0.00861272 -2.05693)
(-4.6108 0.23663 -1.98133)
(-6.32086 0.54247 -2.23014)
(-6.94085 -0.0198981 -2.85433)
(-3.7166 -0.108565 -1.8322)
(-5.1293 -0.020325 -0.70257)
(-6.0017 -0.0203236 0.273615)
(-5.76449 0.177807 0.540316)
(-4.97195 0.469429 -0.907233)
(-4.20442 -0.0807596 -1.97591)
(-6.06471 -0.136222 0.914302)
(-2.56103 -0.0428269 -3.27452)
(-3.67122 0.0539888 -2.62574)
(-3.91274 -0.00645801 -2.14057)
(-2.20604 0.312514 -3.63477)
(-1.56639 -0.0681468 -4.27011)
(-4.79497 -0.0260085 -0.319149)
(-5.91486 -0.121579 -4.47596)
(-6.5962 -0.14767 -4.21444)
(-6.66001 0.0535879 -4.19471)
(-5.81435 0.136778 -4.72776)
(-5.12341 -0.104431 -5.40043)
(-6.33038 -0.187545 -3.54899)
(-2.50412 0.0599296 -5.15337)
(-3.41575 0.0645934 -4.73854)
(-3.47793 -0.0999616 -4.58678)
(-2.12971 -0.0663862 -5.49317)
(-1.33891 0.0325708 -5.98611)
(-4.67506 0.174448 -3.82935)
(-0.28209 0.0464741 -6.70013)
(-0.588463 0.0812892 -6.663)
(-0.636689 -0.0456605 -6.6364)
(-0.20145 -0.00251686 -6.81985)
(-0.0664424 0.0866912 -6.96419)
(-1.49337 0.178912 -6.08858)
(-4.33645 -0.0312861 -6.00413)
(-4.62861 -0.00661551 -6.27952)
(-4.61985 -0.0927394 -6.32827)
(-4.22582 -0.151695 -6.30945)
(-3.98396 -0.018914 -6.48925)
(-4.53578 0.0245594 -5.7273)
(-2.2926 0.121093 -6.154)
(-2.44496 0.123513 -6.34132)
(-2.3611 -0.191706 -6.224)
(-2.28405 -0.293832 -6.31797)
(-2.23659 0.194748 -6.31266)
(-2.78939 0.348198 -6.00328)
(-0.716257 0.0514445 -5.6269)
(-0.773529 0.0536933 -5.73923)
(-0.787234 -0.0329739 -5.68627)
(-0.709075 -0.033067 -5.706)
(-0.696996 0.115261 -5.71995)
(-0.876959 0.154026 -5.63629)
(-3.23066 -0.0674137 -5.05127)
(-3.58657 -0.0130641 -5.89615)
(-3.54287 0.00389603 -5.96588)
(-3.27897 0.0764332 -5.10106)
(-3.13555 -0.0752772 -4.85396)
(-3.55294 -0.0477518 -5.57554)
(-3.21239 0.110894 -5.74247)
(-3.05014 0.104381 -6.14475)
(-2.93811 -0.179458 -6.1015)
(-3.36395 -0.260752 -5.76414)
(-3.57944 0.125055 -5.50021)
(-3.15301 0.263204 -5.98347)
(-1.19552 0.0526695 -3.88938)
(-1.14782 0.04184 -4.01993)
(-1.15271 -0.0607625 -3.97313)
(-1.22508 -0.108068 -3.88867)
(-1.26806 0.0599574 -3.83696)
(-1.22688 0.106855 -3.93706)
(-2.11855 -0.102425 -0.22452)
(-2.5704 0.00764698 -1.27133)
(-2.58795 0.0779312 -1.35795)
(-2.09267 0.299485 -0.0202607)
(-1.77406 -0.134476 0.484619)
(-2.55666 -0.0376609 -1.35205)
(-4.41505 0.0810171 -3.01189)
(-4.37045 0.088125 -3.71477)
(-4.26457 -0.135862 -3.81979)
(-4.58226 -0.145837 -2.95594)
(-4.77364 0.140166 -2.3864)
(-4.24478 0.269447 -3.88685)
(-2.84831 0.04631 -0.900167)
(-2.63963 0.047554 -1.15377)
(-2.58205 -0.0464105 -1.17375)
(-2.92499 -0.11161 -0.869162)
(-3.07743 0.0768943 -0.702309)
(-2.55347 0.124921 -1.20839)
(0.475612 0.0656853 5.35092)
(0.468332 0.159119 5.04527)
(0.466451 -0.239771 5.12932)
(0.479713 -0.080629 5.56478)
(0.454303 0.220383 5.76582)
(0.68699 0.500482 4.59939)
(-4.45975 0.0142564 4.49153)
(-4.44993 0.019869 4.04563)
(-4.46615 -0.0847691 3.96745)
(-4.56496 0.0286988 4.52191)
(-4.72011 0.145474 4.75317)
(-4.20991 0.264413 3.51555)
(-3.40184 -0.0132198 3.19737)
(-3.33711 0.00168702 2.89824)
(-3.2727 0.00744321 2.76716)
(-3.40633 0.0602511 3.10908)
(-3.49069 0.0416479 3.27183)
(-3.18952 0.0397768 2.62894)
(-1.5527 0.0607051 10.6317)
(-0.582653 0.0859918 10.5465)
(-0.752698 -0.197074 10.5916)
(-1.75319 -0.109336 10.6925)
(-2.43932 0.124209 10.6011)
(0.626447 0.394772 10.452)
(-4.115 -0.0167933 9.66002)
(-3.69877 0.0170507 10.0726)
(-3.75219 -0.0941904 10.0341)
(-4.26677 0.00516805 9.54819)
(-4.70574 -0.0398688 9.20923)
(-2.93748 0.112798 10.1728)
(-1.91877 -0.0592095 6.30367)
(-1.93558 -0.0322688 6.59859)
(-1.92168 0.00843893 6.51035)
(-1.92281 0.100443 6.15351)
(-1.97968 -0.0925554 5.94733)
(-1.77891 -0.0967504 6.65511)
(-3.01355 -0.107875 9.12832)
(-2.60416 -0.0449153 9.47428)
(-2.73852 0.034702 9.3782)
(-3.13969 0.151154 9.08737)
(-3.43754 -0.322583 9.21047)
(-1.6214 -0.270238 9.63717)
(-1.72702 -0.084612 6.80147)
(-1.98397 -0.0460007 7.1787)
(-1.98097 0.0621059 7.09242)
(-1.7556 0.107225 6.76431)
(-1.88535 -0.24545 6.94688)
(-1.95219 -0.308722 7.3597)
(0.333151 -0.0330535 4.02424)
(0.218405 -0.0284851 4.17222)
(0.223271 0.0117733 4.13847)
(0.331073 0.0119498 4.04776)
(0.303916 -0.0840874 4.1353)
(0.0953267 -0.0963663 4.26077)
(-0.937146 -0.0734291 3.18476)
(-1.04235 -0.0441826 3.29957)
(-1.05522 0.0735973 3.25022)
(-0.937093 0.0832412 3.17592)
(-0.944977 -0.25313 3.21682)
(-1.03292 -0.283089 3.56456)
(1.01405 -0.000324327 3.0387)
(0.91889 0.0264639 3.11081)
(0.915232 -0.00387971 3.07543)
(1.01544 0.0154014 3.07127)
(1.07253 -0.0381899 3.0835)
(0.860842 -0.0785723 3.21724)
(0.91388 0.0023787 1.57762)
(0.909665 0.00381408 1.58848)
(0.903766 -0.00989324 1.56873)
(0.925005 -0.0110322 1.6052)
(0.932129 0.00559387 1.59394)
(0.906298 0.00483584 1.60621)
(-3.01123 -0.0441437 1.40547)
(-3.16798 -0.0120087 1.23467)
(-3.13469 0.0756303 1.22434)
(-2.95466 0.11403 1.38991)
(-2.78928 -0.036174 1.4216)
(-3.02904 -0.101003 1.1447)
(1.49843 0.0197971 1.29237)
(1.49082 0.0299552 1.30111)
(1.49243 -0.0202394 1.27223)
(1.52572 -0.0255762 1.27193)
(1.58714 0.0361217 1.23254)
(1.50942 0.034585 1.27725)
(1.38583 -0.000980221 -0.197383)
(1.39628 0.0013703 -0.202432)
(1.38689 0.00278565 -0.213202)
(1.38217 0.00319039 -0.196596)
(1.36597 0.000527478 -0.209151)
(1.38544 -0.00235767 -0.213623)
(-3.43677 -0.00793514 -1.62922)
(-3.43641 -0.00648221 -1.74793)
(-3.44563 0.00406157 -1.74264)
(-3.45216 0.00680639 -1.61674)
(-3.46554 -0.0138397 -1.55315)
(-3.45099 -0.0171108 -1.76401)
(2.22839 0.0162912 -3.05794)
(2.25769 0.00901909 -3.2053)
(2.24823 -0.0343034 -3.16778)
(2.23651 -0.0504106 -3.02303)
(2.23675 0.0158305 -2.91256)
(2.24635 0.0402745 -3.13189)
(1.64488 0.00995236 -0.87546)
(1.63404 0.00589711 -0.879605)
(1.63427 -0.0128457 -0.876156)
(1.64544 -0.0179503 -0.876418)
(1.65171 0.00625617 -0.873082)
(1.638 0.0150479 -0.874911)
(2.19279 0.0234625 0.211206)
(2.28672 0.0478463 0.186696)
(2.29447 0.037803 0.119699)
(2.29852 0.0174816 0.214452)
(2.33206 -0.0447283 0.227204)
(2.25458 -0.0455984 0.21143)
(1.096 0.00650826 -3.85003)
(0.941352 -0.0244322 -4.09151)
(0.686373 -0.0812536 -4.29968)
(0.573618 -0.0598102 -4.29381)
(0.491802 -0.0161845 -4.27271)
(0.69512 -0.00536521 -4.16233)
(-0.263855 0.028088 -0.304716)
(-0.378767 0.0974072 -0.379247)
(-0.473614 0.203153 -0.317362)
(-0.267556 0.221766 -0.122546)
(-0.148413 0.107188 -0.0366288)
(-0.0856252 0.0137375 -0.0785138)
(0.439458 -0.0100269 -0.158944)
(0.451788 -0.0257325 -0.187609)
(0.465081 -0.020017 -0.204554)
(0.474396 -0.00865723 -0.222557)
(0.481267 -0.00604546 -0.225151)
(0.456442 -0.000639857 -0.21075)
(0.165154 -0.0260813 -1.91084)
(0.160928 -0.0712208 -2.08603)
(0.128928 -0.0733901 -2.16643)
(0.0727987 -0.054255 -2.10662)
(0.0505243 -0.0107212 -2.09991)
(0.00693791 0.0166601 -2.03339)
(0.321178 0.0117112 -1.22305)
(0.349224 0.0444781 -1.23272)
(0.391611 0.0988349 -1.16456)
(0.442096 0.114364 -1.16501)
(0.471146 0.0685636 -1.16659)
(0.461505 0.0185504 -1.21777)
(0.270107 -0.00324778 0.152542)
(0.267002 -0.00726302 0.15093)
(0.262189 -0.001028 0.147975)
(0.254963 0.00387925 0.152694)
(0.251975 -0.00267378 0.150017)
(0.254825 -0.00290816 0.143021)
(0.630086 -0.0155436 -0.819604)
(0.61521 -0.0379693 -0.834932)
(0.582756 -0.0493558 -0.847363)
(0.552393 -0.0477652 -0.84894)
(0.529654 -0.0350623 -0.856214)
(0.542778 -0.0130917 -0.826221)
(-0.137292 0.0120708 -0.955558)
(-0.130926 0.0354457 -0.972445)
(-0.111775 0.0504629 -0.956479)
(-0.0696512 0.0492153 -0.954648)
(-0.0412313 0.0291151 -0.954737)
(-0.0287586 0.00649699 -0.946322)
(-0.219659 -0.00112858 0.154879)
(-0.220791 -0.00439201 0.154557)
(-0.221064 -0.00811979 0.153429)
(-0.218911 -0.0101021 0.155552)
(-0.216161 -0.00596254 0.15702)
(-0.215205 -0.000274698 0.147855)
(0.118079 -0.00724323 -0.965657)
(0.11529 -0.0185553 -0.957898)
(0.109912 -0.0229528 -0.95916)
(0.103356 -0.022775 -0.969121)
(0.0982109 -0.0117401 -0.983516)
(0.0858857 -0.000303194 -0.96618)
(-0.212572 0.00519473 -1.08453)
(-0.206835 0.0171432 -1.09797)
(-0.194987 0.0267049 -1.09169)
(-0.182464 0.0268287 -1.09333)
(-0.173604 0.0167863 -1.09448)
(-0.168573 0.00460192 -1.09348)
(-0.553552 -0.000667766 -0.148063)
(-0.552174 -0.00338431 -0.14758)
(-0.555973 -0.00843812 -0.148401)
(-0.562418 -0.0110578 -0.149816)
(-0.567666 -0.00574382 -0.149847)
(-0.559811 -3.85155e-05 -0.1541)
(0.166385 -0.0044637 -2.18656)
(0.164557 -0.00875013 -2.17288)
(0.162526 -0.0104381 -2.18114)
(0.153674 -0.0113929 -2.21692)
(0.150191 -0.00753871 -2.25336)
(0.15377 -0.00230717 -2.20938)
(-0.705003 0.00302879 -0.916834)
(-0.70518 0.00965606 -0.925537)
(-0.700042 0.01582 -0.918825)
(-0.693649 0.0174109 -0.907156)
(-0.687792 0.00889204 -0.900157)
(-0.688027 0.000622417 -0.904312)
(-2.2686 -0.0021879 0.214735)
(-2.26699 -0.00184238 0.212402)
(-2.2702 0.00228152 0.213484)
(-2.28575 0.00354992 0.214709)
(-2.29818 -0.00543756 0.22179)
(-2.27524 -0.00692187 0.205985)
(0.352429 -0.00276527 -4.49688)
(0.351921 -0.00420395 -4.5055)
(0.353971 -0.00274574 -4.51186)
(0.376126 -0.00580106 -4.50422)
(0.397083 -0.000886543 -4.51737)
(0.372998 0.00348641 -4.51964)
(0.275331 0.00558267 0.132413)
(0.266073 0.00880248 0.13547)
(0.277917 0.00512281 0.139033)
(0.298737 0.00515774 0.142019)
(0.315308 0.00915127 0.148433)
(0.30382 0.00571176 0.151039)
(2.87175 -1.2757 -3.26723)
(0.0551281 0.860619 -3.50689)
(2.29914 0.26607 -2.9235)
(2.80992 -1.04465 -3.25449)
(2.01839 -0.171222 -3.31342)
(3.04798 0.868336 -2.51292)
(2.27582 -0.712124 -3.02809)
(0.334158 0.798459 -4.10496)
(2.37742 0.363485 -0.464662)
(2.42033 -1.48885 -1.09793)
(0.656704 -1.18148 -4.45414)
(2.17288 0.0347353 -2.03939)
(1.5712 -0.00556506 -0.81728)
(0.127863 -0.00820768 -3.74105)
(1.852 0.0230464 3.79583)
(1.65784 -1.17024 1.20319)
(0.466712 -0.238144 -3.72089)
(1.44859 -0.291564 -1.28179)
(-1.54685 -0.363105 -2.27276)
(0.916777 0.320352 -8.76438)
(-1.78628 -0.393496 -7.52097)
(-1.41843 -0.928629 -7.52829)
(-1.19332 -0.974718 -6.07562)
(-2.7738 -0.48975 0.381319)
(1.52765 0.509896 -3.88213)
(1.47754 0.633337 -5.9223)
(0.679187 -0.129113 -6.48434)
(0.436645 -1.09774 -7.36297)
(1.80269 -1.65083 -4.46906)
(2.62459 -0.498316 -1.88859)
(0.517873 0.194376 -4.37903)
(0.906921 0.256824 -4.17612)
(0.271651 -0.0235589 -4.95788)
(1.21046 -0.508808 -4.23678)
(1.46766 -0.75617 -3.78456)
(0.736036 -0.196453 -3.18557)
(0.153889 0.146536 -1.45387)
(-0.28802 0.583028 -6.49827)
(-1.90928 -0.872566 -4.57364)
(-4.46542 0.549732 -0.369447)
(0.295627 -1.05711 -4.10718)
(4.76769 -0.181652 1.33632)
(2.95483 0.250383 -1.17335)
(1.73022 0.727271 -5.76702)
(1.11921 -0.97441 -3.63541)
(1.37032 -0.999048 -2.40446)
(3.88456 -0.937048 -0.385788)
(3.86649 -0.244112 0.0659061)
(2.32951 0.274419 -2.06462)
(1.39692 0.113063 -3.45911)
(2.24671 -0.434447 -2.34963)
(2.44769 -0.467921 -2.24238)
(2.17609 -0.339027 -2.49002)
(2.54022 -0.0533992 -0.790392)
(1.94634 -0.0935601 -0.142516)
(-3.68809 0.101708 -0.877686)
(-4.61119 -0.784394 2.30597)
(-5.4382 0.561998 4.57453)
(-1.17894 0.337042 3.11639)
(2.89178 0.901781 1.65001)
(3.68982 -0.169585 0.343755)
(0.360156 -0.287228 0.0832923)
(-0.581529 -1.04463 2.26244)
(-1.97955 -0.228653 4.38271)
(2.34008 0.275229 2.72604)
(3.04399 0.177049 1.05029)
(1.82582 -0.11029 0.25118)
(1.56847 -0.284692 0.437168)
(1.37921 -0.327786 0.853121)
(1.09615 -0.134627 1.54181)
(1.49146 0.151696 0.644696)
(1.23626 0.0024673 0.178084)
(1.48736 -1.38468 2.02382)
(-3.7013 -1.06728 3.23127)
(-4.03875 -1.25973 5.37761)
(-2.55142 -0.00742528 6.2238)
(-0.273055 1.07602 3.78417)
(1.23103 0.88605 2.42009)
(2.04572 -1.08428 2.8281)
(0.681976 -1.19183 3.90873)