/*--------------------------------*- C++ -*----------------------------------*\
| =========                 |                                                 |
| \\      /  F ield         | OpenFOAM: The Open Source CFD Toolbox           |
|  \\    /   O peration     | Version:  v1612+                                |
|   \\  /    A nd           | Web:      www.OpenFOAM.com                      |
|    \\/     M anipulation  |                                                 |
\*---------------------------------------------------------------------------*/
FoamFile
{
    version     2.0;
    format      ascii;
    class       surfaceScalarField;
    location    "9.05";
    object      alphaPhi;
}
// * * * * * * * * * * * * * * * * * * * * * * * * * * * * * * * * * * * * * //

dimensions      [0 3 -1 0 0 0 0];

internalField   nonuniform List<scalar> 
2916
(
-0.00382224
0.0468711
-0.034557
0.00585462
0.0292222
-0.0316211
0.0225226
0.0237104
-0.0331163
0.0106299
0.0587784
-0.0375252
-0.0178457
0.0749617
-0.0365712
0.0258801
-0.0359714
0.00506032
0.043548
0.00161847
0.00178166
0.0325566
0.00203738
-0.00747983
0.0282658
0.0050123
-0.000765711
0.0444767
0.00816961
0.000997184
0.0530331
0.0174361
0.0242965
0.00332531
0.00395448
0.0612769
-0.0151342
9.74449e-05
0.0555458
-0.0138339
-0.0101582
0.0530898
-0.0102421
-0.00449042
0.0598198
-0.0144612
0.00384861
0.0650267
-0.013113
0.0465418
-0.0138418
0.000574626
0.109293
-0.0323699
-0.00107378
0.105937
-0.0324879
-0.00576274
0.105047
-0.0310119
-0.00443024
0.108524
-0.0338344
0.00147519
0.112111
-0.0367864
0.100748
-0.0364447
-0.00144332
0.196583
-0.0696506
-0.00082999
0.193084
-0.0715567
-0.000856041
0.193534
-0.0722569
-0.00201476
0.195664
-0.0698098
-0.0018561
0.198563
-0.0704446
0.191713
-0.0766165
-0.00132003
0.294155
-0.0801124
-0.000544954
0.289591
-0.081147
0.000773292
0.290807
-0.0824637
-0.000966542
0.292864
-0.079345
-0.00310749
0.295648
-0.0788311
0.289028
-0.0842996
0.000705169
0.384586
-0.0750008
-0.0007051
0.381551
-0.0744219
-0.000518368
0.382439
-0.0757036
-0.00107424
0.384008
-0.0744753
-0.00123823
0.384716
-0.0727916
0.380877
-0.0769744
0.00134338
0.359156
-0.062155
-0.0010912
0.360255
-0.063076
-0.00170258
0.36066
-0.0640144
-0.00141755
0.35912
-0.0621776
-0.00111738
0.354563
-0.0572138
0.362126
-0.0679272
-0.00330047
0.261656
0.0271096
-0.00102476
0.258591
0.0245658
-0.000238428
0.259748
0.025592
-0.00262973
0.260846
0.026043
-0.00514412
0.259091
0.0259265
0.25949
0.0229083
-0.00482397
0.159812
0.132935
-0.00103302
0.146921
0.135138
-8.21249e-05
0.148513
0.136541
-0.000871184
0.160508
0.129411
-0.00304437
0.163091
0.126287
0.143791
0.13831
0.000913279
-0.0806987
0.169517
0.000614112
-0.097602
0.17528
-0.000389643
-0.0959714
0.175056
0.00177662
-0.0796208
0.168959
0.00179014
-0.071214
0.167006
-0.100811
0.175786
0.0129308
-0.103096
-0.000469724
-0.0902313
-0.00345548
-0.101074
0.00796961
-0.1003
0.0134671
-0.0828188
-0.0945532
0.00520251
0.0382144
-0.000186693
-0.0059145
0.0515507
-7.92142e-05
-0.0224655
0.053365
-6.00331e-05
-0.00981394
0.0266216
-0.000104663
0.0144839
0.015713
-0.0001748
0.0493358
-5.696e-05
0.00275983
0.0940802
-3.09701e-05
0.00329729
0.10591
-5.02704e-06
0.00694631
0.10578
-8.40752e-06
0.00428459
0.0911206
-2.72058e-06
-0.00256183
0.0893204
-6.77999e-06
0.103532
-5.92327e-06
0.00280127
0.161331
-1.64559e-06
0.00434457
0.16935
-2.78133e-07
0.00917718
0.167035
-4.17245e-07
0.00624066
0.165176
-1.76606e-07
-0.000955421
0.170789
-4.15201e-07
0.16861
-3.15679e-07
0.000141475
0.312114
-1.66656e-07
0.00143194
0.316624
-2.91756e-08
0.00335192
0.314424
-4.37157e-08
0.00146195
0.316654
-1.79668e-08
0.000800489
0.323621
-4.1401e-08
0.319097
-3.41967e-08
-0.00416372
0.542699
-2.26427e-08
-0.000685609
0.546237
-4.06559e-09
0.00168406
0.545225
-6.10139e-09
-0.000701018
0.544164
-2.43451e-09
-0.000218162
0.546699
-5.72593e-09
0.548259
-4.93329e-09
-0.00398843
0.756817
-3.49947e-09
-0.00192433
0.758155
6.0981e-10
-8.774e-06
0.75787
4.24532e-10
-0.000866083
0.756367
7.76428e-10
0.000198851
0.757636
-9.74509e-10
0.755786
-8.80848e-10
-0.000205811
0.936475
1.31509e-08
-0.00268613
0.938655
1.48344e-08
-0.00201262
0.937541
1.35364e-08
-0.00142671
0.936955
1.42405e-08
0.000402233
0.938574
1.21842e-08
0.934186
1.58351e-08
0.0013224
1.04453
-0.0270983
-0.00232928
1.05569
-0.00730626
-0.00357161
1.05123
-0.00784656
-0.00115499
1.04994
-0.026048
0.00264243
1.05338
-0.0174206
1.04975
-0.0124112
0.000568848
1.10921
-0.000451623
-0.000848579
1.12015
-0.000776947
-0.000317724
1.11445
-0.000645095
-0.00112394
1.11501
-0.000879767
-0.00397424
1.12046
-0.000880241
1.10722
-0.000975524
0.00263144
0.528636
0.201171
-0.000335205
0.547533
0.217137
8.8626e-05
0.537035
0.211807
-0.00301862
0.546766
0.206782
-0.0148598
0.559512
0.211404
0.527587
0.206787
0.00877087
0.237143
0.0335036
0.000443679
0.228113
0.0385265
-0.00194875
0.229477
0.0370622
0.000966422
0.24294
0.0343817
-0.00542008
0.242629
0.0346878
0.221606
0.0376516
0.00265192
0.157145
-0.00234372
0.152888
-0.0108338
0.153889
0.00296282
0.154357
0.0282916
0.153343
0.159656
1.32333e-07
5.00192e-06
-0.000191177
-5.25992e-08
2.59277e-06
-8.13565e-05
-4.27189e-07
2.08304e-06
-6.13856e-05
-2.6755e-07
2.90166e-06
-0.000107718
7.74072e-07
3.9296e-06
-0.00017938
1.99578e-06
-5.79385e-05
1.34055e-08
1.84075e-06
-2.77834e-05
2.77266e-09
3.1124e-07
-2.71806e-06
2.62756e-09
4.68675e-07
-6.77032e-06
2.19541e-09
1.97003e-07
-1.49816e-08
3.05811e-08
4.64707e-07
-3.32112e-06
3.53565e-07
-4.23437e-06
1.30868e-09
1.93851e-07
-9.34156e-16
6.22127e-10
3.37932e-08
6.11424e-15
1.01511e-09
5.10372e-08
3.07805e-15
5.65506e-10
2.08463e-08
4.70909e-15
1.94809e-09
4.81231e-08
-1.85764e-13
3.98344e-08
-3.13273e-14
2.93093e-10
2.69026e-08
-6.06688e-13
6.59108e-11
4.84437e-09
3.56523e-13
9.94653e-11
7.28785e-09
1.89783e-13
6.10195e-11
2.91746e-09
4.67341e-13
2.29142e-10
6.61863e-09
-7.8925e-11
5.89149e-09
-2.903e-11
2.24207e-11
4.25033e-09
-1.71919e-11
3.79031e-12
7.82556e-10
1.48575e-11
3.7328e-12
1.1777e-09
8.82329e-12
2.86039e-12
4.60104e-10
2.37192e-11
1.63699e-11
1.13028e-09
-2.4103e-10
1.04348e-09
-1.35178e-10
1.11392e-10
6.31987e-10
7.47987e-12
5.44903e-11
-1.76946e-08
-2.28507e-10
1.32838e-10
-1.23361e-08
-1.67153e-10
-1.27257e-12
-2.26131e-08
-2.68959e-10
-1.46517e-12
1.7196e-10
-1.59995e-11
1.63078e-10
-1.90732e-12
2.34944e-09
-3.338e-07
-8.61225e-08
2.57954e-09
-3.8338e-07
-9.65716e-08
4.09723e-09
-3.4821e-07
-8.74961e-08
2.18186e-09
-3.56206e-07
-9.18249e-08
4.83799e-09
-3.06286e-07
-7.78834e-08
-4.06175e-07
-1.02808e-07
-6.1197e-06
0.0109623
0.000311488
-4.98856e-06
0.00246493
0.00015523
-1.81843e-06
0.0026901
0.000164504
9.64723e-06
0.0102172
0.000289023
-1.01461e-05
0.00628821
0.000223951
0.00442072
0.000208599
-0.00109684
0.159804
0.00461765
-0.000465917
0.151332
0.00370394
0.00078767
0.152136
0.00402475
-0.000122946
0.158572
0.0042656
-0.00173547
0.154354
0.00411138
0.152643
0.00407949
-0.000278063
0.374101
0.028951
-0.0018002
0.367771
0.0143474
0.00104018
0.365111
0.0203158
-0.00170884
0.373319
0.0242341
-0.00619633
0.370762
0.0215062
0.3657
0.019734
0.025151
0.520366
0.028287
-0.00517688
0.558521
0.0232217
-0.0103654
0.502037
0.0258431
0.000264598
0.522917
0.0273466
0.000507005
0.532605
0.0219549
0.487821
0.0287187
-0.0103758
0.709507
6.48492e-05
0.601454
-0.00525578
0.672675
-0.00612395
0.699599
0.0199843
0.674477
0.667855
2.08038e-06
-3.12945e-05
-0.00016795
1.8625e-06
-7.68603e-06
-8.70636e-05
3.19748e-06
-8.04405e-06
-6.83861e-05
2.96612e-06
-2.38939e-07
-0.000141473
3.42302e-06
-1.93991e-05
-0.000156663
-6.47436e-06
-6.00661e-05
-4.66292e-08
-9.41738e-15
-3.26628e-05
1.27017e-08
1.19563e-15
-1.28579e-08
2.5317e-07
6.49108e-16
9.06621e-17
2.11755e-10
7.89628e-16
-9.61715e-10
-1.42731e-08
-1.24579e-12
-8.88105e-06
-3.56759e-13
-6.01898e-15
2.85442e-17
-5.08654e-15
-5.29354e-15
1.04852e-17
6.46634e-14
3.78814e-15
1.03576e-16
3.25005e-14
2.52964e-15
-5.10225e-16
8.91154e-14
-2.10282e-14
1.7207e-15
-7.64419e-13
-6.69366e-13
-1.70544e-13
-2.9843e-13
4.20981e-15
-1.60798e-13
-4.55186e-13
3.14556e-15
3.97283e-12
-2.36183e-14
7.60739e-15
2.29496e-12
-4.12048e-14
-6.77114e-14
6.97561e-12
-1.74694e-12
2.91574e-15
-2.68238e-11
-5.29363e-11
-7.04097e-12
-2.22393e-11
3.00715e-13
1.50402e-12
-1.91575e-11
2.44823e-13
2.00115e-10
-3.03957e-12
1.1113e-12
1.33993e-10
-2.92989e-12
-4.19293e-12
3.34097e-10
-7.07585e-11
-3.27316e-13
-1.40553e-10
-4.96688e-10
-1.86923e-12
-6.47024e-10
4.13652e-11
-2.34774e-12
-1.84661e-10
3.11108e-11
-3.69903e-10
-2.79001e-11
9.75933e-11
-3.22144e-10
-2.5714e-11
-3.04268e-11
-4.17667e-10
-5.83554e-10
-4.06804e-13
3.66826e-10
-6.57409e-09
2.89092e-11
-4.3731e-11
1.80748e-09
-6.17818e-08
-2.82645e-08
1.97995e-10
-6.32791e-08
-3.1528e-08
3.22537e-10
-6.14513e-08
-3.12929e-08
-2.93382e-10
-6.07197e-08
-2.69235e-08
-2.73929e-10
-4.70727e-08
-4.01428e-08
-7.80335e-08
-3.4156e-08
-7.24723e-07
0.000310094
2.00694e-06
-3.75512e-08
0.000153413
9.0349e-07
6.90386e-07
0.000162533
1.05822e-06
1.54108e-07
0.000287678
1.79766e-06
2.94794e-09
0.0002272
-3.3077e-06
0.000206963
1.5662e-06
-2.82349e-05
0.0047932
8.05654e-05
-1.50269e-05
0.00389727
5.58655e-05
1.69896e-05
0.00420065
6.45203e-05
2.06207e-06
0.00440161
7.48736e-05
4.37274e-05
0.0041467
5.80283e-05
0.00428826
6.59181e-05
0.000213104
0.0327368
0.000605711
2.77214e-07
0.017625
0.000635867
3.10038e-05
0.023599
0.000668253
-3.82012e-05
0.0278412
0.000661249
3.76482e-05
0.0246958
0.000659959
0.0231789
0.000652559
0.0122332
0.274334
-0.000189313
-0.000323922
0.225387
0.00123424
-0.00517662
0.246117
0.000337141
0.00211865
0.27183
0.000632074
0.00565628
0.259872
0.00107723
0.243877
0.000124246
-0.0200795
0.330895
-0.00149353
0.236374
0.00226182
0.270615
-0.00112235
0.341868
0.00766461
0.33236
0.251985
0.00464825
0.0443424
-0.0509734
-0.0117855
0.0441396
-0.0336654
-0.0139652
0.0423016
-0.0418731
-0.0298935
0.0422826
-0.0266065
-0.035292
0.0275502
-0.0338086
0.030704
-0.064437
0.00509683
0.083417
-0.0450571
-0.012853
0.0765083
-0.0219535
0.00114993
0.0564627
-0.0284164
0.00488041
0.0445583
-0.00583542
-0.0267554
0.0551151
0.000592518
0.0717957
-0.0671371
0.012573
0.0984985
-0.0281245
-0.0055567
0.104671
-0.0102984
0.0158053
0.0588292
-0.0235577
0.0165357
0.0441892
-0.00019049
-0.0281045
0.0874231
0.012503
0.0957561
-0.0518636
0.0420457
0.0936119
-0.0380247
0.0402905
0.0946283
0.0112084
0.0127413
0.00996598
0.0191569
-0.0134436
0.0309575
0.00306952
-0.037214
0.116022
-0.004629
0.114158
-0.0551977
0.0513384
0.0823562
-0.0429453
0.0634
0.0584562
0.0224828
-0.00175552
0.00449383
0.0316743
-0.0375059
0.0207616
0.0215731
-0.0398073
0.1337
-0.0147601
0.139048
-0.0636915
0.0559271
0.0611395
-0.0390539
0.0444224
0.00641986
0.0124167
0.0325868
0.0013071
0.0269528
-0.0106755
0.0222607
0.0212183
-0.0331297
0.0491189
-0.00573693
0.0371554
-0.0484701
0.0590823
0.00418143
-0.042692
0.114037
-0.0331086
-0.0175205
0.0124116
-0.0324874
0.0130177
-0.00442822
0.0191977
0.0335874
-0.0318031
0.00439081
0.0215398
0.0111696
-0.00925902
0.0117996
0.00333936
-0.0092616
0.0143164
-0.0465791
-0.0147126
0.0129481
-0.0496851
-0.00163442
0.00138744
0.0150755
0.0163715
-0.010685
0.00894333
0.0189453
-0.0160933
0.0117273
-0.00434806
-0.000175369
0.00694706
-0.0223977
-0.0093824
0.00318229
-0.00330722
-0.0597375
0.000893975
0.000968325
-0.00636372
0.0104138
0.00347802
-0.00305497
0.0117587
-0.0269082
0.011034
-0.000337619
-0.00662878
0.00577839
-0.0187833
-0.00266237
0.00761724
-0.0391326
-0.0346832
0.00112618
-0.00454404
-0.0247286
0.00434972
0.00281845
-0.0139573
0.00493376
-0.0288425
0.00535843
-0.0016438
-0.00745318
0.00256766
-0.00331604
-0.00289613
0.0035917
-0.0163373
-0.0159844
-0.00115044
-0.0119944
-0.0203134
-0.00228484
0.00708594
-0.0224432
-0.00868859
-0.0164386
-0.00201422
-0.000454262
-0.0031537
-0.000701193
9.99122e-05
-0.00586467
-0.00606142
-0.00791172
-0.0125223
-0.00136319
-0.0157211
-0.00338943
0.00230142
0.0283886
-2.41077e-07
-0.013353
0.0207827
-1.2618e-07
-0.0495472
0.00261432
1.84138e-05
-0.0523915
0.0137288
-5.46523e-07
-0.0164469
0.0224401
-3.30091e-07
0.0225541
-1.65311e-07
-0.0146807
0.0490434
-2.55586e-06
-0.0263486
0.0410834
-0.000176338
-0.0594515
0.019466
0.000167022
-0.0561088
0.0275274
-1.09606e-07
-0.00357421
0.0364166
-6.25371e-07
0.0455572
-3.65194e-07
-0.0292249
0.0726119
0.000301235
-0.0479382
0.0709652
-1.37763e-05
-0.0439277
0.0452548
-0.00197255
-0.0252224
0.0464011
-5.48791e-09
0.00707173
0.0545665
-6.10073e-08
0.0863315
-8.51418e-05
-0.0537713
0.138651
-0.00987551
-0.0413738
0.0903676
-0.000493475
-0.0263453
0.0364305
0.00291686
0.0101776
0.0882382
-2.74212e-08
0.0345851
0.0908891
-1.10264e-07
0.124994
-9.67123e-06
-0.0646161
0.171329
-0.0153496
-0.0396015
0.155515
-0.0117338
-0.0270135
0.033406
0.00988254
-0.00328883
0.142479
-0.00683568
0.0577535
0.160198
-0.064466
0.155912
-0.00345844
-0.0245757
0.14716
-0.0294588
-0.0172805
0.195991
-0.0336497
-0.0323731
0.0595177
0.0121059
-0.0624002
0.0685289
0.00244366
-0.00985245
0.187006
-0.0619098
0.196973
-0.0708273
0.0327939
0.108748
-0.0488252
0.0438645
0.208252
-0.0444783
-0.0217069
0.0669808
0.0371321
-0.0219547
-0.0100241
0.0365589
-0.0227909
0.0487379
0.00285134
0.0904381
-0.0633821
0.0652052
-0.00170887
-0.0311071
0.0556413
0.0170209
-0.0289569
0.00170037
0.0281931
0.0303948
-0.00766308
0.0101137
0.0211183
-0.00427514
-0.00223634
0.0255527
-0.0070924
0.0100133
0.0140382
-0.000715642
-0.00762934
0.0261658
-0.000101066
0.0035402
0.0176961
0.00221261
0.00391668
0.00253366
0.00481702
0.0176483
0.00401712
-0.00123495
0.00744551
0.00355556
0.00382043
0.00379092
0.00113459
0.00101373
0.00809209
-0.00666954
0.00633211
0.0014892
-0.000295393
-0.000907701
0.000771297
-0.000367279
-0.000511975
0.000595467
-0.000570559
4.72714e-05
0.00118492
0.000380502
0.000900022
-0.00102211
5.27947e-05
0.000691667
-0.00421742
0.00168096
-7.28012e-05
-0.00146677
-3.45091e-05
-0.000202174
-0.000679012
-0.00259587
-1.31624e-05
-0.000708496
-0.00934476
-5.28585e-05
-0.000136252
0.00189875
-0.00408854
0.00056574
-0.00288063
0.000944
-0.00585657
9.70672e-05
-0.0129595
-0.000228011
-0.0176736
-0.00425623
5.61287e-10
3.88792e-09
-1.30593e-07
4.2536e-09
5.15246e-09
-1.00245e-07
-1.00771e-08
1.07143e-05
7.68424e-06
-1.44462e-08
2.20743e-09
-5.52241e-07
-2.59387e-09
2.98034e-09
-3.60549e-07
7.218e-09
-2.03004e-07
-2.1246e-06
7.20044e-08
-3.11785e-07
-0.000178998
2.04979e-06
-1.459e-06
-6.81413e-09
-2.14465e-06
8.8441e-07
-6.9711e-09
2.98435e-10
-1.10262e-07
1.88844e-09
7.85747e-09
-6.42059e-07
1.90988e-08
-4.01426e-07
-4.37886e-07
0.00515431
3.6778e-05
-1.10971e-05
5.63939e-07
-5.3489e-08
-4.37868e-09
-0.00198427
-1.52043e-06
-1.9363e-10
-1.34002e-09
-1.05805e-08
4.09878e-09
4.1816e-09
-6.41552e-08
1.12019e-06
-8.62409e-05
-0.00369557
0.00458759
0.000116368
-0.00791683
0.00465642
-1.17165e-05
-2.81825e-09
0.00509138
-6.49753e-06
5.9485e-09
2.58852e-09
-4.26478e-08
9.3244e-09
6.29945e-09
-1.18304e-07
1.91871e-08
-8.57252e-06
-0.0133464
0.00330651
-1.48667e-05
-0.0413663
0.0381562
-8.52541e-05
-0.00659284
0.0887373
-1.48335e-05
0.0202521
0.0800045
-6.07882e-07
0.00376222
0.0169068
-1.41986e-06
0.00130361
1.69904e-06
-0.00910932
0.00538501
-0.00032403
-0.0638023
0.114507
-0.000219748
-0.0269456
0.124553
-0.0158479
0.0364494
0.110171
-0.0670725
0.0593355
0.168196
-0.00290432
0.238197
-6.27151e-05
-0.0699848
0.0345361
0.000109266
-0.0453264
0.172935
-0.0228218
-0.0458734
0.0592591
0.0100471
-0.00625956
0.0187304
0.010939
0.048399
0.112734
-0.0443874
0.166385
-0.0628319
-0.0288845
0.0584087
-0.00515092
-0.00528158
0.204007
-0.00544022
-0.0149252
0.00761192
0.0243843
-0.00159949
-0.000960471
0.0179503
0.00188705
-0.00086177
0.0297588
0.0333239
-0.000875598
0.00382709
0.0244503
-0.015784
0.0222043
-0.00136251
0.00838828
2.14787e-05
0.00151407
0.00365327
0.000473896
0.00106741
0.00365341
0.000165941
5.09659e-05
0.00319559
0.00219031
0.00610523
0.00345963
0.00216695
-0.00265553
0.000397269
-0.000219143
0.00256063
6.07687e-05
0.000112484
0.000616876
-1.98022e-05
-0.000149344
0.000385681
-0.000161797
-0.000459279
0.000191022
0.000571141
0.00119124
0.000694894
0.000340815
0.000168041
0.000589941
0.00025201
0.000264325
0.00132279
-0.00121996
0.000566162
0.000135354
-0.00398104
0.00144336
-0.000499672
-0.00388058
-0.00433987
-0.000514076
0.00110896
0.0024855
-0.00826904
0.00838256
-0.00868595
0.00800359
-0.00697331
0.00454441
-0.0122691
-0.00283614
-0.014625
-0.00952826
-1.47551e-08
3.8043e-08
-8.08883e-07
-2.74745e-07
2.20827e-08
-1.01195e-07
7.05619e-06
-9.39512e-08
3.01447e-07
2.77893e-07
-3.04119e-08
-1.58239e-06
4.67379e-10
-1.97358e-08
-1.67639e-07
1.76922e-08
-4.9671e-07
-2.32214e-07
1.59184e-06
-7.59857e-06
9.39927e-08
9.66821e-07
-3.48528e-06
7.85001e-07
8.15675e-07
-7.51706e-07
5.69111e-08
9.64943e-09
-5.96049e-08
1.85041e-07
8.38642e-08
-2.34043e-06
5.04405e-06
-6.62836e-06
-6.07892e-07
3.67595e-05
-3.72506e-06
-3.99352e-09
4.28783e-06
-3.73835e-06
3.69526e-09
7.08939e-08
-7.88284e-07
1.72264e-08
6.70458e-09
-2.37498e-08
2.9533e-06
4.31055e-08
-2.96551e-06
0.000181394
-1.68817e-06
1.26111e-05
0.000142964
5.14098e-07
1.07484e-06
8.45922e-06
-4.3628e-06
6.69713e-09
1.7932e-07
-5.54528e-06
2.31371e-08
2.11986e-08
-8.01333e-08
6.54397e-08
2.468e-07
-1.65242e-06
3.61554e-06
1.01753e-05
5.02113e-05
0.000104154
-1.98247e-05
9.29451e-07
3.26919e-06
-3.08415e-05
2.45422e-07
3.55102e-07
-1.43249e-05
2.27817e-08
3.06242e-08
-4.02119e-07
1.13079e-08
7.58233e-08
-1.23707e-06
5.88312e-06
-5.41402e-07
1.15086e-05
0.000115472
-3.60448e-05
-9.493e-05
1.16187e-05
-0.000120356
0.000176336
0.00398243
-4.0302e-05
0.00336802
0.0186795
-2.48595e-06
6.79729e-05
0.000396528
-1.36307e-07
1.15746e-05
-5.17865e-11
-6.96664e-05
0.00070888
-5.97738e-05
-0.0256725
0.00316218
-0.000140296
-0.00601934
0.0657312
-0.0231326
0.0136682
0.0558864
-0.0267561
0.010526
0.0402842
-0.0125496
0.0740404
-0.00454998
-0.00303849
0.0122608
-0.00169265
-0.018703
0.038462
-0.00616057
-0.0125352
0.00788801
0.0167316
-0.000131503
0.000186105
0.027927
0.0234495
0.0168204
0.0104183
0.0758556
0.000685796
-0.0208355
0.0235643
-0.00681806
-0.0105429
0.0279438
0.00279407
-0.00157724
0.000448797
0.00190868
-0.000124636
0.000215242
0.00176665
0.00191448
0.000415249
0.00744633
0.00151325
0.0121694
-0.00426366
0.00428991
0.000334455
-0.000717204
0.00336353
0.00800318
-9.71937e-05
9.19312e-05
0.000296616
-0.000102093
5.97077e-05
0.000226728
-0.000390779
0.000268197
0.000224656
0.000457728
0.00133744
0.000443354
0.002679
0.000298165
0.000325619
0.00326203
0.000426445
3.6489e-05
0.000826073
9.37555e-05
-4.5674e-05
0.000680375
0.000175239
-0.00017625
-0.00512162
0.000237136
0.00125808
0.000158357
0.00555683
-0.00833531
0.00963797
-0.00735611
0.0116893
-0.00724322
0.00719905
-0.00988317
-0.0028385
-0.0126084
-0.0137574
1.28729e-05
-0.000110443
-8.67232e-06
3.69792e-06
-4.35329e-05
-1.35212e-07
-1.51281e-05
-4.00854e-05
1.86182e-17
-1.38474e-05
-8.69258e-05
-2.06978e-08
-3.40263e-06
-0.000105529
-1.18147e-05
-1.69464e-05
-5.20473e-14
-2.29157e-05
-2.60386e-05
4.00024e-17
-5.01091e-06
-3.8413e-05
5.7488e-19
2.22761e-05
-3.3317e-05
-3.88976e-17
1.90647e-05
-2.52066e-05
-7.87988e-16
-2.16124e-06
-3.4422e-05
-1.2331e-14
-5.38881e-07
-8.34912e-15
-3.72411e-05
1.17321e-20
-1.65586e-06
-4.77333e-21
5.73818e-05
-2.64124e-19
4.47411e-05
-1.94473e-21
9.32067e-06
-6.21668e-22
-1.61372e-18
1.4807e-07
2.39168e-16
-1.14148e-13
9.66086e-19
3.90926e-18
4.99961e-16
-5.90049e-20
-1.89332e-18
3.73497e-16
-2.1659e-08
-3.83945e-17
-4.42688e-13
-1.15566e-16
-6.67488e-16
-1.38019e-11
-3.85214e-16
-5.78298e-14
1.67954e-20
8.87098e-20
8.90475e-18
-2.00637e-20
-2.43734e-22
-4.23011e-17
1.56713e-20
-1.33879e-20
-4.08132e-17
3.37479e-19
-9.96355e-23
-8.26704e-16
-1.16936e-17
-4.42759e-21
-1.29864e-14
-8.0262e-20
-8.7459e-15
-1.69017e-24
1.07668e-19
-6.87229e-23
-4.95003e-21
1.8991e-22
-2.77771e-19
1.03544e-24
-1.85549e-21
-1.15118e-21
-8.86736e-21
-1.69513e-18
7.89346e-17
6.31771e-17
-1.19583e-13
-2.19357e-17
-3.3498e-16
-6.15614e-15
-1.4827e-16
-3.29878e-16
-1.07951e-14
-4.93487e-16
-9.80761e-15
-4.53565e-13
1.45749e-15
-1.6169e-13
-1.43472e-11
-1.03698e-13
-2.54128e-13
-7.05856e-19
1.06106e-18
-2.20944e-14
2.41724e-18
-5.0763e-20
-5.17629e-16
3.97624e-18
-2.91932e-18
-4.07268e-16
1.51671e-16
-1.81037e-20
-1.09157e-14
9.35226e-16
-8.54516e-20
-1.75464e-13
-3.04764e-17
-1.11465e-13
-1.46176e-21
8.90233e-19
2.64571e-24
-4.80536e-20
7.77711e-21
-4.96547e-19
5.28245e-25
-1.03954e-21
-4.10817e-20
-1.47726e-20
-2.17307e-17
-1.05858e-16
-1.93402e-13
-4.38059e-13
-3.21053e-16
-4.48288e-14
-1.08674e-12
-4.13755e-15
-4.39354e-14
-6.73216e-13
-6.43517e-13
-8.41529e-13
-9.44026e-13
-9.91763e-13
-1.82029e-11
-5.05716e-11
-6.98399e-12
-2.90076e-11
6.06414e-16
9.06346e-18
-1.98198e-13
-4.60558e-17
-5.11654e-19
-4.47205e-14
4.75974e-17
-6.82727e-18
-4.45552e-14
5.71125e-17
-1.30619e-20
-8.39918e-13
-8.74579e-14
-3.05916e-18
-1.73966e-11
-1.76086e-15
-7.17476e-12
-1.21656e-21
1.17796e-20
-1.58816e-20
-1.01085e-19
-3.54653e-24
-4.06812e-19
-3.09865e-22
-2.63316e-30
-1.655e-18
-4.04194e-34
-2.01367e-31
-3.34962e-14
-1.33821e-11
-7.97798e-12
-2.5101e-14
-4.12485e-12
-9.1448e-13
-3.40949e-14
-3.90888e-12
-6.31457e-13
-1.95633e-11
-4.85104e-11
-8.81079e-11
-4.74756e-11
-1.68939e-09
9.95256e-10
-9.45342e-10
-6.69059e-09
2.99737e-14
9.90131e-20
-1.1433e-11
-6.80335e-15
-5.43622e-18
-4.11941e-12
-4.29421e-14
-2.16049e-17
-3.88569e-12
-4.67964e-12
-7.23628e-28
-4.46718e-11
-1.18431e-11
-1.12206e-31
-1.70143e-09
-5.57802e-29
-4.63748e-09
-5.90343e-22
1.87228e-22
-8.04033e-21
-1.17779e-27
-3.09331e-32
-1.97981e-25
-1.17078e-35
4.90208e-39
-1.0874e-32
9.73677e-44
-1.55695e-95
-1.49318e-12
-5.25477e-10
-4.08198e-09
-6.59964e-13
-2.05431e-10
-6.60464e-10
6.40126e-12
-1.63772e-10
-5.67858e-10
-5.58882e-10
-6.59641e-09
-4.24672e-09
-1.93776e-10
-9.91916e-08
-6.66702e-07
-3.05561e-08
-3.23528e-09
-9.29135e-12
1.38247e-21
-5.27513e-10
-2.0862e-12
-3.76087e-25
-2.66859e-09
1.4031e-12
-6.26402e-23
-1.69867e-10
-1.80322e-09
3.71974e-38
3.0984e-09
-1.42764e-09
7.31348e-43
-1.13484e-08
-5.01671e-93
-1.36894e-08
-1.85482e-24
1.13336e-25
-5.38797e-27
1.29973e-28
1.63673e-41
3.08192e-32
-3.08957e-41
1.57842e-36
-4.15642e-97
-3.01348e-114
-3.50593e-99
5.16633e-10
-1.8311e-07
6.14556e-08
6.11119e-11
-4.08535e-08
1.47262e-08
4.07653e-11
-4.32457e-08
1.86983e-08
7.02426e-10
-1.11768e-07
3.61548e-08
1.60485e-08
-2.04991e-07
5.5096e-07
-3.23301e-08
2.88844e-08
-6.7643e-09
1.35426e-24
6.48967e-07
-5.09914e-10
1.77079e-27
1.08466e-07
-2.12605e-10
3.65062e-31
1.41253e-07
-5.08027e-09
1.93685e-35
3.0944e-07
-6.09187e-09
-1.60558e-111
3.58533e-07
-2.1729e-96
3.28843e-08
-1.19089e-26
-5.66981e-27
-4.78035e-30
-4.94061e-29
-5.92367e-34
-6.24777e-33
-2.18556e-115
-3.28101e-37
5.14618e-116
1.89269e-114
2.48341e-99
-1.98069e-08
-7.18203e-07
2.92575e-06
-1.19732e-09
-2.59507e-07
1.12331e-06
9.22328e-09
-3.73204e-07
1.38216e-06
-5.47247e-08
-5.96117e-07
2.38392e-06
-4.67328e-08
-7.95605e-07
3.03558e-06
-8.89325e-09
1.59057e-06
-4.31099e-07
-3.29285e-07
3.07131e-06
-2.21111e-08
-1.76868e-09
9.27265e-07
1.59491e-07
-2.03288e-07
6.95533e-07
-2.45908e-07
-1.14066e-07
1.52348e-06
-5.07534e-08
-2.48603e-07
1.36517e-06
-3.35287e-10
6.64011e-08
3.24317e-09
-1.19459e-06
-4.76051e-09
6.2348e-09
-6.66045e-10
-5.62191e-07
9.33211e-10
-2.13755e-07
8.31697e-09
-5.96722e-07
7.97661e-09
-4.04923e-06
3.08845e-06
9.62588e-05
-1.69022e-06
-2.07533e-08
6.24256e-05
-8.51375e-07
-1.23696e-06
7.56737e-05
-2.82667e-06
1.57435e-06
8.66773e-05
-2.65943e-06
4.59834e-07
7.51162e-05
-9.21963e-07
7.75148e-05
-1.94515e-06
6.87534e-06
4.86989e-06
2.65865e-07
-4.44522e-06
6.26947e-06
7.90963e-08
4.99273e-07
3.37118e-06
-4.32805e-07
2.76297e-06
3.05985e-06
-1.35995e-06
1.67157e-06
2.20879e-06
-2.24528e-06
3.51782e-06
-4.96151e-06
-8.60783e-06
2.25704e-07
-1.16406e-06
2.80044e-06
-3.67435e-06
-4.43955e-06
-3.1229e-06
-3.74386e-06
-5.14394e-06
-9.44517e-07
2.07797e-05
4.3112e-06
0.000685409
-3.7093e-06
3.14282e-06
0.000719554
-9.66391e-06
1.73258e-06
0.000754481
3.43263e-06
3.10647e-06
0.000736981
1.19849e-05
2.6843e-06
0.000722082
6.04074e-06
0.000744656
1.38875e-06
9.03357e-06
-7.33702e-07
-1.04056e-07
1.3906e-05
-3.4113e-06
-5.89683e-07
1.03893e-05
-1.76901e-06
8.48887e-07
5.64776e-06
-6.96305e-07
7.61054e-07
9.26062e-06
-4.46256e-06
1.18301e-05
-2.04904e-06
-3.69221e-06
-1.49815e-05
5.38757e-07
-6.05089e-06
1.905e-06
-1.51602e-05
-4.8082e-07
-6.5294e-06
-3.30087e-06
-1.7965e-05
-2.94976e-06
9.73725e-05
-0.000632135
0.000842508
1.79469e-05
-7.53563e-05
0.00184157
-3.44184e-05
-0.000486847
0.00140589
7.94095e-05
-0.000396792
0.0014481
0.000193861
-0.000230388
0.00169302
-0.000512691
0.00134479
4.0918e-06
4.96323e-07
-0.00103672
-5.62897e-06
1.42472e-05
-0.000866919
2.34014e-06
4.69657e-08
-0.000912051
1.03725e-05
1.57442e-05
-0.000991528
-6.6582e-06
1.86124e-05
-0.00101719
-8.48588e-06
-0.000900446
-4.5752e-06
-5.9589e-05
-2.16322e-08
-6.92908e-05
2.22866e-06
-4.55757e-05
-7.78014e-07
-6.6569e-05
-5.44338e-06
-5.39041e-05
-6.72873e-05
-0.00145377
0.00365187
0.0158799
-0.000449648
0.003436
0.01757
-8.56079e-05
0.00237354
0.0150846
-0.000625095
0.00393481
0.019378
2.06578e-05
0.00272719
0.0219813
0.0029576
0.0142871
-6.25958e-05
0.000721671
0.00103131
-5.10467e-05
0.000641768
0.00103909
-4.68781e-05
6.77235e-05
0.00105536
-7.77385e-05
0.000723195
0.00125151
-6.21266e-05
8.17551e-05
0.00126269
0.000351267
0.000969751
6.35455e-08
2.10349e-05
2.67412e-07
2.89828e-05
-1.49877e-06
2.39139e-05
1.14603e-07
2.77988e-05
1.99723e-06
2.59683e-05
2.70331e-05
0.000575582
-0.000133699
-0.00692661
0.0088295
0.00109987
-0.000232375
-0.00685587
0.0091309
0.000317029
-2.44354e-05
-0.00694459
0.010711
-0.00100721
-0.000110129
-0.00744975
0.0123734
-0.00187645
-0.000270847
-0.0082522
0.012494
-8.15699e-06
-0.00692876
0.0085179
8.44313e-07
-4.85853e-07
2.82997e-07
-0.000134375
2.6112e-06
-1.88346e-06
-2.45755e-11
-0.000232264
1.68898e-07
-4.40639e-06
-3.95763e-10
-1.7594e-05
7.50492e-08
-2.88667e-06
-6.55427e-10
-0.000107159
-6.12277e-09
-1.59112e-06
1.53567e-06
-0.000270721
-5.18113e-08
1.11167e-07
-8.23013e-06
-4.02699e-09
2.5138e-09
-4.86511e-07
1.18694e-07
-9.61285e-09
-2.14637e-06
6.77593e-07
6.81844e-07
-2.20639e-05
3.51867e-07
1.38983e-06
-3.22708e-05
-1.84161e-10
4.69628e-07
-1.151e-05
1.63701e-09
-6.4467e-08
0.000128117
-2.84798e-07
-0.00344441
0.000107731
-4.93203e-09
-0.00363723
0.000169948
-5.98545e-08
-0.00390751
5.79248e-05
-1.1439e-07
-0.00386303
-0.000149241
-1.54626e-06
-0.0035415
-1.09328e-07
-0.00340631
3.23167e-10
-3.81675e-10
-5.5472e-09
1.04376e-11
-6.72003e-10
-7.83818e-09
-2.88692e-10
-5.3603e-08
-1.18975e-08
-1.11142e-08
-9.70962e-08
-1.47596e-08
-7.28289e-10
-2.29006e-08
-6.7215e-09
-2.89514e-10
-1.21371e-09
-4.69798e-11
-9.97609e-13
-1.37743e-08
-1.31847e-12
-4.49636e-08
1.6062e-09
-2.68894e-09
2.10718e-09
3.5413e-10
1.16495e-09
1.21079e-10
7.06587e-05
-7.43699e-07
-0.00042535
0.000147263
-8.326e-07
-0.000567983
3.72834e-05
-1.00897e-06
-0.000521667
-7.87683e-05
-1.38597e-06
-0.000516851
-4.40372e-05
-1.18646e-06
-0.000478827
-4.54374e-07
-0.000463056
4.16031e-10
-8.27483e-13
-7.5177e-07
1.63489e-10
-1.34532e-12
-8.42345e-07
-2.56121e-09
-1.10756e-10
-1.01945e-06
-4.26482e-09
-5.57818e-11
-1.40464e-06
-1.19862e-09
8.89878e-12
-1.19911e-06
3.19694e-10
-4.58483e-07
-4.235e-12
-2.17899e-09
-3.58008e-11
-2.15179e-09
-2.6881e-10
-4.89804e-10
-1.45933e-11
-4.68233e-10
2.42636e-12
-2.92413e-10
-9.56687e-10
1.821e-05
-5.80622e-05
0.0023415
6.04175e-05
-6.04104e-05
0.00211492
2.71387e-05
-6.81244e-05
0.00222968
-1.17343e-06
-9.84541e-05
0.00217086
-4.51149e-06
-9.57431e-05
0.00211916
-4.1903e-05
0.00222847
-6.78841e-08
-2.71896e-08
-5.88248e-05
-6.68497e-08
-2.45645e-08
-6.1353e-05
-5.05209e-08
-3.17596e-08
-6.9254e-05
-8.61098e-08
-5.34499e-08
-9.99249e-05
-3.4054e-08
-6.57083e-08
-9.7091e-05
-1.7626e-08
-4.24672e-05
-2.46155e-10
-3.31662e-08
-3.57218e-10
-3.0752e-08
-5.93015e-10
-3.57156e-08
-1.65214e-10
-5.3154e-08
-3.76011e-12
-7.27861e-08
-2.16135e-08
-9.56691e-05
0.00023269
0.00257238
0.000128506
0.000205729
0.00165257
1.62031e-05
0.000218856
0.00220561
-5.17767e-05
0.000383224
0.00192719
1.83161e-05
0.000458703
0.00146487
8.25862e-05
0.00234792
-2.06076e-06
-4.54846e-06
-0.000914425
-1.31208e-06
-5.48431e-06
-0.00110018
-2.15391e-06
-5.34704e-06
-0.0010856
-2.22148e-06
-5.6116e-06
-0.00117593
5.89989e-08
-5.9417e-06
-0.0011752
-4.57117e-06
-0.000979831
-2.76724e-08
-5.0839e-06
-2.81688e-08
-6.06079e-06
-3.38181e-08
-5.95319e-06
2.95529e-09
-6.53131e-06
4.4189e-08
-6.93545e-06
-4.97854e-06
-0.00064206
0.00686647
2.45718e-05
0.00722932
-0.000227556
0.00684923
-0.000134441
0.0072505
0.000238472
0.00771402
0.00673802
-2.22614e-05
-3.97545e-06
-9.58739e-06
-7.00523e-06
-7.5442e-05
-3.3919e-06
-5.2622e-05
-4.64826e-06
7.08606e-05
-1.57969e-06
-9.61999e-06
-1.14274e-06
-1.16662e-07
-2.69544e-08
-1.58013e-07
3.86185e-07
2.77719e-08
-7.9512e-07
-6.06388e-07
-3.65136e-07
-3.10025e-07
7.15034e-08
3.43434e-06
-6.3804e-06
5.73086e-07
4.65106e-09
-6.78177e-07
3.87835e-07
-5.24739e-08
-3.70283e-07
4.94172e-08
-1.02879e-06
5.22615e-08
2.24773e-07
-0
-1.33481e-08
4.41198e-08
-1.72674e-71
1.91489e-08
9.04236e-08
-3.98661e-90
-2.21808e-08
-2.85161e-08
-3.87128e-79
3.03788e-08
-1.21968e-07
-3.9227e-81
4.74603e-08
-2.1816e-84
6.90107e-08
0
0
-5.3623e-93
2.2467e-74
5.13271e-93
1.57506e-93
1.01298e-81
4.67075e-82
2.03929e-84
4.98083e-84
2.32301e-87
2.10211e-07
-3.56622e-06
1.80075e-06
-1.27096e-09
-1.39787e-06
1.51879e-07
2.43867e-09
-6.93471e-09
-7.97955e-09
3.14119e-07
-1.11824e-08
1.41371e-09
3.82371e-07
-2.5754e-06
1.45429e-07
-4.79134e-06
1.08461e-06
2.57635e-07
-1.23812e-252
-4.5229e-07
1.99044e-08
-2.30884e-74
-2.94247e-08
-1.00964e-10
-4.39753e-09
-1.67278e-11
8.69685e-09
-2.41905e-10
2.46752e-10
-1.38229e-07
-3.69038e-12
1.41175e-08
-7.1176e-17
-2.81206e-07
1.16651e-255
1.13582e-255
1.0447e-77
3.30792e-77
1.14204e-10
1.38708e-10
3.69357e-12
1.71898e-11
7.11951e-17
3.11723e-15
1.90994e-20
3.16945e-07
-4.79552e-06
1.46953e-06
1.71959e-07
-1.8104e-06
2.35217e-06
1.16853e-08
-2.93063e-08
4.41647e-07
6.98603e-09
-1.76676e-08
7.95326e-09
3.64535e-07
-1.81155e-06