/*--------------------------------*- C++ -*----------------------------------*\
| =========                 |                                                 |
| \\      /  F ield         | OpenFOAM: The Open Source CFD Toolbox           |
|  \\    /   O peration     | Version:  v1612+                                |
|   \\  /    A nd           | Web:      www.OpenFOAM.com                      |
|    \\/     M anipulation  |                                                 |
\*---------------------------------------------------------------------------*/
FoamFile
{
    version     2.0;
    format      ascii;
    class       surfaceScalarField;
    location    "9.05";
    object      phi;
}
// * * * * * * * * * * * * * * * * * * * * * * * * * * * * * * * * * * * * * //

dimensions      [0 3 -1 0 0 0 0];

internalField   nonuniform List<scalar> 
2916
(
-0.00513644
0.0561515
-0.051015
0.00782099
0.0335356
-0.046493
0.030283
0.0264043
-0.0488664
0.0143537
0.0714916
-0.0555623
-0.024107
0.0924386
-0.0539779
0.0291987
-0.0533057
0.0067861
0.0433238
0.00604156
0.00262808
0.0306252
0.00706843
-0.00924748
0.0257844
0.0124955
-0.000934798
0.0444086
0.0187703
0.00121693
0.0542969
0.0359899
0.0211476
0.00926798
0.00408151
0.0570745
-0.0178322
7.54575e-05
0.0510005
-0.0163693
-0.0106674
0.0484929
-0.0119657
-0.00479774
0.0554328
-0.0168938
0.00380721
0.0607623
-0.0150704
0.0412937
-0.0163389
0.00045067
0.104907
-0.0482831
-0.00116462
0.101398
-0.0487826
-0.00583814
0.10047
-0.047304
-0.00459748
0.104081
-0.0498886
0.00123819
0.107734
-0.0528079
0.0958153
-0.0532834
-0.00156977
0.195781
-0.0893042
-0.000891437
0.192053
-0.0913331
-0.00085076
0.192459
-0.0920297
-0.00211802
0.194838
-0.0894898
-0.00208164
0.197881
-0.0901831
0.190374
-0.0966407
-0.00134944
0.29786
-0.10073
-0.000531538
0.2931
-0.101865
0.000849884
0.294281
-0.103203
-0.000939417
0.296547
-0.09992
-0.00316163
0.299491
-0.0993878
0.292351
-0.105138
0.000743536
0.392703
-0.0955862
-0.000685547
0.389496
-0.0949666
-0.000480787
0.390424
-0.0963476
-0.00105192
0.392116
-0.0949982
-0.00121924
0.392818
-0.093159
0.388887
-0.0977556
0.00139543
0.453318
-0.0620106
-0.00115218
0.455073
-0.0630292
-0.00172538
0.454993
-0.0639961
-0.00153326
0.45388
-0.0619558
-0.0011674
0.449767
-0.0573154
0.455365
-0.0676456
-0.00403211
0.419156
0.0381934
-0.00127132
0.417547
0.034765
-0.000306876
0.41789
0.0361386
-0.00325215
0.420087
0.0367386
-0.00635163
0.416207
0.0366591
0.416887
0.0321269
-0.00635328
0.215735
0.209775
-0.00134004
0.199601
0.212933
-4.01129e-05
0.201245
0.215346
-0.00120187
0.217188
0.204061
-0.00406302
0.220951
0.198118
0.194987
0.217837
0.00100915
-0.117762
0.332488
0.000759967
-0.142243
0.342093
-0.000499985
-0.13963
0.342134
0.0021727
-0.116289
0.330804
0.00230337
-0.104652
0.325473
-0.146557
0.343848
0.0194613
-0.137223
-0.000803371
-0.121979
-0.00534353
-0.13509
0.0118208
-0.133453
0.0199527
-0.112784
-0.126605
0.0236683
0.148639
-0.223322
-0.0268364
0.202667
-0.198656
-0.101537
0.209996
-0.184162
-0.0435757
0.101509
-0.215032
0.0648805
0.0581135
-0.220548
0.192599
-0.181025
0.0102423
0.270072
-0.125634
0.0125341
0.297884
-0.0904395
0.0275096
0.296475
-0.0889591
0.0168782
0.26441
-0.1335
-0.0106794
0.265686
-0.144026
0.288916
-0.0977277
0.00683311
0.308534
-0.063128
0.0116119
0.319818
-0.043083
0.0266853
0.313661
-0.0442257
0.0178528
0.315951
-0.0596028
-0.00448462
0.329381
-0.0564282
0.315894
-0.0478018
-9.8524e-05
0.447918
-0.187569
0.00269565
0.452482
-0.184241
0.00701894
0.448939
-0.186905
0.00299229
0.453894
-0.183805
0.00112215
0.464119
-0.185676
0.454151
-0.190419
-0.006174
0.684142
-0.319354
-0.000948476
0.687689
-0.331766
0.00258399
0.686907
-0.333531
-0.00110147
0.685955
-0.317866
-0.000472767
0.689103
-0.315796
0.690332
-0.333294
-0.00538606
0.916659
-0.327861
-0.00247066
0.919086
-0.336178
0.000154204
0.918491
-0.337412
-0.00112283
0.917036
-0.329724
0.000142983
0.9184
-0.329951
0.91866
-0.333323
-0.000312078
1.11453
-0.293146
-0.00338701
1.11836
-0.291163
-0.00250996
1.11606
-0.294793
-0.0017257
1.11648
-0.295229
0.00059088
1.11693
-0.294007
1.11607
-0.294577
-0.000265477
1.25272
-0.199937
-0.00287107
1.26663
-0.208694
-0.00248164
1.261
-0.209325
-0.00221149
1.25853
-0.20427
0.00275416
1.26143
-0.206779
1.25972
-0.208539
0.000721386
1.30371
-0.013512
-0.0010426
1.32008
-0.0169236
-0.000678261
1.31233
-0.0155527
-0.00121621
1.31435
-0.0185508
-0.00443233
1.32047
-0.0191671
1.30641
-0.0189998
0.00335218
1.00434
0.505789
-0.00043911
1.01684
0.519965
0.000336452
1.00762
0.519278
-0.00421542
1.0206
0.502362
-0.0208979
1.03265
0.502623
0.993241
0.510112
0.0244391
0.5417
0.77069
0.00102855
0.532541
0.849803
-0.0055275
0.52855
0.82776
0.00238918
0.558506
0.784986
-0.0157136
0.572098
0.804127
0.511175
0.8102
0.00672106
0.397756
-0.00480639
0.42209
-0.0208044
0.409459
0.00597233
0.398276
0.0539104
0.411375
0.438481
0.0392475
1.5057
-1.76827
-0.0383473
1.66146
-1.78252
-0.201491
1.71566
-1.73668
-0.0847959
1.43778
-1.7695
0.253708
1.31057
-1.86962
1.75404
-1.68135
0.0243445
3.74056
-2.38483
0.031868
3.89513
-2.33164
0.0186487
3.92643
-2.28651
0.0389002
3.70128
-2.41725
0.232368
3.58913
-2.61605
4.02813
-2.13945
0.0379063
6.24623
-2.60671
0.110625
6.43076
-2.65143
0.119751
6.47263
-2.59955
0.160016
6.2553
-2.65389
0.240287
6.14293
-2.69049
6.67029
-2.44968
0.0913823
8.68987
-2.72259
0.116956
8.92666
-2.70572
0.118451
8.96079
-2.67656
0.176894
8.73611
-2.72306
0.29026
8.61061
-2.76673
9.25627
-2.48614
0.0609385
10.3394
-2.02986
0.058359
10.5955
-1.99799
0.0420459
10.6227
-1.97913
0.0764366
10.4034
-2.01956
0.158267
10.2867
-2.07368
10.8998
-1.81856
-0.0470919
10.2093
-0.150683
-0.0324307
10.3846
-0.139953
-0.0480877
10.4337
-0.132783
-0.0584394
10.2323
-0.148217
-0.0729166
10.1667
-0.19547
10.5553
-0.0616748
-0.039947
8.17997
1.77618
-0.058448
8.35046
1.76146
-0.0976845
8.40903
1.76915
-0.0606917
8.13567
1.76437
-0.0997264
8.16585
1.74585
8.382
1.77894
-0.0131825
5.13675
2.85647
-0.0314338
5.32575
2.83427
-0.0264779
5.33037
2.86438
0.0157185
5.09593
2.79328
-0.0403181
5.22427
2.79084
5.25992
2.87322
-0.0608708
2.98036
2.20375
-0.0249841
3.02957
2.24337
0.0459926
3.00332
2.24052
-0.00567565
2.97515
2.1539
-0.0896022
3.0842
2.20483
2.92537
2.22595
-0.00283388
1.8617
1.62728
-0.0187618
1.87365
1.69181
0.0119662
1.83348
1.6584
-0.0173163
1.88139
1.6254
-0.0634859
1.93412
1.69887
1.78048
1.59152
0.167802
1.37127
1.09332
-0.036589
1.35197
1.57588
-0.0674281
1.33693
1.35514
0.00311516
1.38818
1.20765
0.00187192
1.41414
1.32534
1.28722
1.30533
-0.014581
1.78361
-0.0012402
1.76072
-0.0132295
1.75838
-0.0101682
1.7834
0.0404797
1.77487
1.76618
0.0393791
-0.604927
-1.20273
0.0789164
-0.667858
-1.15421
0.0575199
-0.635571
-1.07972
0.0333831
-0.581573
-1.1638
0.0598087
-0.568728
-1.32732
-0.632484
-0.989061
-0.0255379
-0.416201
-2.54802
0.0278481
-0.480326
-2.57255
0.12436
-0.508567
-2.51002
0.0665157
-0.409139
-2.53184
-0.0117975
-0.3689
-2.73756
-0.46805
-2.31568
-0.00999235
-0.443579
-2.56934
-0.00743224
-0.440432
-2.69388
-0.0569257
-0.4094
-2.64922
-0.0188975
-0.466968
-2.63408
0.0703175
-0.492459
-2.65614
-0.28986
-2.55755
-0.0287814
-0.494677
-2.6427
-0.0412795
-0.461219
-2.67243
-0.0425886
-0.443584
-2.64106
-0.0461374
-0.514011
-2.67247
0.00113271
-0.570385
-2.73607
-0.290202
-2.48466
-0.0346882
-0.279392
-2.21046
-0.0476005
-0.246046
-2.20025
-0.082067
-0.218175
-2.17007
-0.0838613
-0.303928
-2.22785
-0.0202594
-0.406724
-2.30094
-0.103606
-2.02542
-0.0390128
0.296659
-0.687719
-0.0398117
0.300172
-0.685367
-0.0784023
0.344957
-0.657323
-0.0563815
0.253916
-0.728078
-0.0214098
0.166049
-0.803214
0.413763
-0.600456
-0.0473658
1.39897
0.721236
-0.00858216
1.31531
0.707543
-0.0144065
1.381
0.738927
0.00247337
1.31762
0.683794
0.00258877
1.21187
0.699913
1.45916
0.736134
-0.122436
3.1032
1.27467
-0.00204273
3.08236
0.94682
0.101271
3.11555
1.02652
0.00293239
3.04225
1.16699
-0.00468371
2.97673
1.0336
3.19862
1.12908
-0.0442002
3.5131
1.83805
-0.0236647
3.6914
1.61379
0.036701
3.63909
1.65661
0.00701049
3.52139
1.70443
0.0700242
3.55028
1.56826
3.73332
1.76127
0.0878806
2.50444
2.54806
0.00181363
2.91455
2.55473
0.0191569
2.77169
2.50846
-0.0146829
2.68933
2.49131
0.0137206
2.70311
2.51764
2.88882
2.44974
0.403283
1.43558
1.7589
-0.00869899
1.63205
3.27036
-0.212496
1.57564
2.75499
0.0879148
1.53757
2.059
0.298656
1.5506
2.26712
1.61247
2.88035
-0.0409517
3.26013
-0.00913093
3.36095
0.000597883
3.32429
-0.00155391
3.32312
0.0237776
3.30014
3.40243
0.0526571
0.45022
-0.502877
-0.116861
0.440818
-0.271299
-0.147005
0.428095
-0.397951
-0.314651
0.42847
-0.260824
-0.369613
0.269369
-0.214408
0.310171
-0.679784
0.0571138
0.839398
-0.446292
-0.127018
0.774067
-0.149118
0.00791685
0.608461
-0.3153
0.0400028
0.456851
-0.0604673
-0.274512
0.564452
0.0194323
0.722133
-0.686473
0.127982
1.00325
-0.291838
-0.057556
1.07011
-0.110502
0.159789
0.671553
-0.280437
0.166852
0.450622
-0.000834164
-0.290177
0.888463
0.133019
0.968444
-0.536488
0.446114
0.959035
-0.401895
0.4122
0.985734
0.118288
0.120618
0.319817
0.643318
-0.139808
0.542566
0.168483
-0.385443
1.19538
-0.0612849
1.20278
-0.61978
0.538429
0.86053
-0.439924
0.668997
0.61871
0.236456
-0.0491576
0.0929394
0.945032
-0.399326
0.529342
0.363394
-0.418098
1.39225
-0.178092
1.45181
-0.667128
0.592032
0.669436
-0.400938
0.887916
0.125213
0.197614
0.467497
0.0242981
0.48906
-0.350438
1.09062
0.256655
-0.594098
1.70723
-0.0713263
1.28405
-0.426342
0.762434
0.321508
-0.414507
1.43944
-0.368737
-0.183055
1.74991
-0.490559
0.204389
-0.130281
2.03478
0.936032
-1.00415
2.12701
0.454093
0.468455
-0.188547
0.194624
0.29725
-0.170365
0.623804
-0.505409
-0.292509
1.26168
-1.08329
-0.0451376
0.134738
1.45253
1.70919
-0.594739
1.28645
1.57004
-0.35251
0.226226
-0.26969
0.216169
0.350772
-0.572164
-0.312685
0.10975
-0.364526
-1.32586
0.0349238
0.10074
-0.392397
1.37966
0.102538
-0.350124
1.63477
-0.749728
0.499757
-0.202322
-0.450988
0.869479
-1.09793
-0.351964
0.93489
-1.21495
-1.28212
0.0732818
-0.401259
-1.66213
0.456046
0.108393
-1.61332
0.753541
-0.925937
0.284601
-0.302849
-0.613138
0.464999
-1.28551
-0.586913
1.21761
-1.54474
-0.847328
-0.175561
-0.740143
-1.12663
-1.3401
0.209488
-1.10479
-1.45816
-0.614605
-0.101844
-0.103879
-0.509258
-0.880838
0.190046
-0.800153
-0.928013
-0.375818
-1.55097
-0.0472087
-1.4334
-0.661813
0.0659279
0.38657
-0.955374
-0.199677
0.317749
-0.323443
-1.38519
0.0513066
0.73625
-1.30805
0.245323
-0.583283
-0.287068
0.335325
-1.57071
0.331853
-1.2987
-0.150579
0.72954
-0.638684
-0.454272
0.637243
-0.164918
-1.39646
0.328072
0.350119
-1.09687
0.407923
-0.522649
-0.0570191
0.631903
-1.317
0.744681
-1.15632
-0.50558
0.888282
0.0550005
-0.68567
0.901043
-0.194212
-0.621312
0.629846
-0.646569
-0.415941
0.538022
-0.336304
0.105162
0.773972
-0.530153
0.955533
-0.642177
-0.514871
1.19256
-0.191299
-0.614311
1.12207
-0.00329625
-0.383782
0.770971
0.271664
0.124503
1.07889
-0.88067
0.481705
1.03446
-0.678978
1.12389
-0.306434
-0.496735
1.57181
-0.32244
-0.494884
1.51485
-0.158179
-0.297758
0.948153
0.570725
-0.053272
1.53726
-0.339467
0.61884
1.71596
-1.5317
1.59902
-0.523419
-0.198701
1.95179
-0.582223
-0.226042
2.12207
-0.382265
-0.618678
1.29479
0.535061
-0.715537
1.85996
0.0308147
-0.0774351
2.12937
-1.12284
2.19341
-1.09817
0.590771
2.00987
-1.06335
0.519916
2.55801
-0.548143
-0.416524
1.57068
0.864938
-1.06807
2.41011
1.03743
-0.561357
2.08628
-0.00952512
2.08295
-0.639446
1.29037
1.4457
-0.896565
1.85991
2.09528
-0.399312
0.455586
1.66368
1.26619
-0.761214
2.12459
3.2115
-0.30954
1.252
1.95264
1.72466
0.274978
1.50446
0.744334
-0.452322
3.16908
0.234161
0.30625
1.83239
1.17955
1.85574
1.45759
0.812137
3.06692
0.9318
-0.329812
3.74238
1.80063
1.35559
1.04837
0.36746
0.197979
1.7892
-1.36505
1.79328
1.04153
-0.651989
2.65249
0.608564
-0.909976
2.61112
0.558528
-1.42308
1.89685
0.924486
1.71927
0.479883
-0.20047
0.553047
0.338619
-1.26802
1.26184
-0.176569
-1.25005
0.937692
-0.417258
-1.21314
-0.796249
0.0185947
-1.18859
-2.12851
-0.0995279
0.940764
0.689316
-1.39904
1.28791
-1.67657
0.964037
-1.85419
0.204472
-2.00454
-0.387544
-2.02997
-1.14889
0.015114
0.136422
-1.10691
0.192344
0.217445
-0.718113
-0.476785
0.0122332
1.39315
-0.766918
0.0990051
-0.39215
-0.121722
0.148871
-2.36478
0.336596
-1.75702
-0.636396
0.606537
-0.472401
-0.679657
0.613956
-0.518165
-0.628201
-0.0797736
0.390672
-0.306692
0.0282805
-0.773432
0.091448
0.366857
-1.93312
0.862886
-1.59116
-0.232654
0.791754
0.102439
-0.252349
0.478327
-0.0388847
-0.461686
-0.36349
-0.153512
-0.00167511
-0.147234
-0.620799
0.403055
0.42334
-0.991365
1.04336
-0.419596
-1.15407
0.930065
0.824461
-1.2975
0.545771
0.0726845
-0.292015
0.215335
-1.31264
0.597601
0.186482
-2.104
0.773171
0.490517
-0.921724
0.340926
1.16917
-2.32632
1.21331
1.72064
-2.07843
1.30908
-1.16938
-0.197264
1.35503
-2.45014
1.52747
1.31493
-3.19265
1.86114
1.10365
-2.4785
0.299167
1.37948
-3.21305
1.90564
1.9385
-2.1276
2.10633
-2.26497
-0.503311
2.21831
-1.95251
0.797508
2.2598
-2.21487
1.3716
2.21887
-2.81216
2.11911
-1.5465
-1.90561
2.51067
0.237237
-1.23171
2.80961
-1.92532
-1.01178
2.45923
0.404075
-0.434855
2.42015
0.300158
0.407532
2.23337
-0.866407
2.84841
-0.961213
-0.505044
3.10604
-0.986891
-0.42318
3.17092
-0.842494
-1.50672
2.79623
2.01273
-0.999993
1.94668
3.17824
0.0236929
1.56227
1.60005
3.22692
-0.0798386
0.255843
3.56524
-1.16737
1.3359
2.12122
0.275901
0.457993
2.12929
3.40058
0.169601
0.602898
4.6991
0.184196
0.439678
4.85037
3.6994
1.06731
0.821037
3.56806
-0.625871
1.46827
1.1397
2.12757
0.752405
0.607627
4.89002
-0.164168
-0.45716
4.58775
-0.557667
-0.718447
3.44847
1.82011
3.04089
1.59429
1.6557
0.871116
1.40524
0.19523
2.39535
1.13936
-0.707768
2.51897
0.0354598
-1.0514
0.901886
-0.314624
-1.06107
-1.43581
-0.181962
2.62821
1.68694
-1.43029
2.19776
-1.99215
1.6166
-1.9808
0.568257
-2.00759
-0.468612
-2.05416
-1.79946
-0.377572
0.123101
-0.852437
-0.0392124
0.0960918
-1.15256
1.05151
-0.0619426
0.364374
1.23714
-0.0723931
-0.505386
0.655553
-0.0605153
-1.72267
0.058486
-1.15995
-0.341394
0.96871
-0.976611
0.14593
0.74389
-1.65328
0.833053
0.747519
-1.10591
0.926355
0.480487
-1.41961
0.550718
0.245923
-1.86392
0.537414
-1.51937
-0.1979
1.54201
-0.27296
-0.0258158
1.77445
-1.24153
0.19319
1.52136
-1.14636
0.445884
1.1472
-1.5402
0.283831
1.14276
-1.72615
1.34782
-0.946173
0.146941
1.46103
0.758498
0.280715
2.40247
-0.689111
0.474847
1.93467
-1.92009
0.277695
1.3604
-2.12006
0.0123067
1.9247
-1.43828
1.82918
0.700124
0.44454
1.21274
1.52439
0.60067
2.299
-1.22204
1.23522
1.62747
-2.77749
1.18507
1.2103
-2.99241
0.371951
2.05292
-1.7936
2.12265
1.45796
0.182741
1.51933
1.44917
-0.124252
2.39045
-2.04942
0.936913
2.12569
-3.51188
1.96063
2.12035
-4.14863
1.2657
2.15863
-2.22294
1.87838
-0.0365338
-0.518602
1.71386
0.561305
-1.47182
2.95093
-1.53258
-0.286541
2.83876
-1.49428
0.688787
2.58994
-1.14476
0.934578
2.45457
-1.40814
2.48582
-0.634072
-1.46291
2.57455
-0.384675
-2.07747
3.29939
-0.57639
-1.40375
2.66409
1.51368
-0.0741705
2.07321
2.3654
0.694179
2.03191
1.25436
2.95041
0.149747
-1.42294
3.24424
-0.414121
-2.15731
3.13804
1.17162
-2.16677
1.74049
4.33364
-0.909534
0.727891
4.78717
0.392373
1.80336
3.77701
3.30509
1.105
-0.667393
3.22599
0.0597706
-0.774363
3.079
2.29358
-1.36931
1.62266
5.60279
-1.57252
0.77875
4.7401
-0.863578
0.438588
4.1043
2.32543
3.15697
1.3128
1.3433
1.441
2.11405
1.46303
3.21008
1.55015
0.675936
4.02959
-0.0586978
0.196249
3.09324
-0.987493
-0.739939
0.671514
0.569119
3.39703
1.05051
-1.13749
1.54104
-1.01965
1.44744
-1.21126
0.884771
-1.24868
-0.376986
-1.53235
-1.60733
0.0906195
-0.84919
-0.444159
0.0352062
-0.603709
-0.49508
-0.117641
-0.442851
-0.484015
-0.0951118
-0.725513
-0.460813
-0.0296759
-0.920303
-0.472457
-0.437449
-0.581287
-0.203873
-0.215371
-0.429946
-0.0637607
-0.36547
-0.378353
0.230667
-0.414543
-0.322737
0.150423
-0.218249
-0.42702
-0.0124833
-0.278466
-0.478931
-0.0444119
-0.40552
-0.331627
-0.35727
-0.0221778
-0.31378
0.494236
-0.25821
0.332025
-0.351493
0.071791
-0.389633
-0.362047
0.0120849
-2.70612
-0.29815
-0.0263936
-2.72168
-0.307468
0.000835168
-2.681
-0.340262
-0.00642597
-2.68894
-0.296452
-0.0928286
-2.81842
-0.305192
-2.5505
-0.43929
-0.0108427
-2.82947
-0.295744
-0.0264746
-2.81191
-0.272487
0.0227212
-2.78927
-0.263664
0.0239689
-2.82332
-0.293878
-0.0746333
-2.89116
-0.307591
-2.74458
-0.286074
-0.0201642
-0.215364
-0.0135243
-0.208299
0.0411937
-0.203071
0.0305422
-0.219463
-0.0368577
-0.225214
-0.21862
0.0370569
-2.28642
-0.618117
0.0161965
-2.36004
-0.620445
-0.0147654
-2.34275
-0.615772
0.000382301
-2.3233
-0.622383
0.0065934
-2.32852
-0.639022
-2.3475
-0.642747
0.0239876
-2.267
-0.339155
0.0165498
-2.28692
-0.338158
0.028485
-2.28422
-0.334123
0.0316061
-2.28012
-0.340177
0.0249534
-2.28015
-0.349314
-2.28138
-0.327243
0.00290114
-0.199102
0.000368885
-0.197638
0.00626563
-0.195746
0.000437591
-0.200322
-0.00513339
-0.205152
-0.203498
-0.0108712
-2.23041
-1.01954
-0.0214606
-2.25949
-1.0228
-0.0129998
-2.24397
-1.02133
-0.0420103
-2.24074
-1.0251
-0.106631
-2.27307
-1.0374
-2.20131
-1.03274
0.00974106
-2.17359
-0.405715
-0.00208482
-2.17533
-0.41049
0.00271066
-2.16888
-0.414013
0.000670907
-2.17052
-0.408356
-0.0265546
-2.18153
-0.413635
-2.14031
-0.414795
-0.00507426
-0.200431
-0.0062559
-0.20013
-0.000582402
-0.199999
-0.00418799
-0.200935
-0.0145786
-0.201457
-0.201828
-0.0242527
-1.84327
-1.36247
-0.0189366
-1.86693
-1.36144
-0.0133929
-1.85176
-1.34519
-0.0343392
-1.85485
-1.37715
-0.0884694
-1.87843
-1.40578
-1.81189
-1.33473
0.00363865
-1.76778
-0.484839
-0.00256451
-1.77597
-0.495258
-0.00271107
-1.77044
-0.495185
-0.00598331
-1.76814
-0.491795
-0.0190478
-1.77116
-0.507843
-1.74951
-0.49623
-0.00114526
-0.188101
-0.00385833
-0.184775
-0.00231189
-0.18625
-0.00567451
-0.184027
-0.0105773
-0.186486
-0.183468
-0.0337407
-1.13452
-0.881934
-0.0178901
-1.15124
-0.911413
-0.0205417
-1.1313
-0.868557
-0.0126166
-1.16524
-0.947918
-0.020461
-1.18648
-1.01467
-1.10472
-0.850932
-0.0283944
-1.36949
-0.221471
-0.0139591
-1.37558
-0.285354
-0.0109795
-1.36453
-0.264937
-0.0238098
-1.37347
-0.270724
-0.0328012
-1.37921
-0.306122
-1.33785
-0.295898
0.0017606
-0.124186
-0.00467941
-0.112599
-0.000478529
-0.123997
0.000947051
-0.122721
-0.00460716
-0.124095
-0.110145
0.028543
-0.532918
0.343677
0.0225045
-0.556388
0.358552
0.00676107
-0.518138
0.404252
0.0536609
-0.574938
0.263912
0.017996
-0.536429
0.257333
-0.510975
0.414171
-0.0270276
-1.23107
0.503706
-0.00372236
-1.24567
0.380623
-0.00412676
-1.21457
0.431908
-0.0143688
-1.24591
0.410496
-0.0301373
-1.22521
0.39843
-1.18242
0.345408
0.0104014
-0.00850644
0.00270702
0.0209555
0.00178095
0.00623306
-0.00873541
0.00788001
0.0015192
-0.0107217
0.0162604
-0.376927
-0.312334
2.30761
-0.0222995
-0.889144
1.83989
0.132348
-0.808899
2.08503
-0.114699
-0.481894
2.15983
-0.313686
-0.609105
2.09902
-0.715695
1.94526
-0.590732
-0.710249
1.49235
-0.0732815
-1.70138
0.675412
0.166676
-1.62068
1.00373
-0.222604
-1.13489
1.45277
-0.537668
-1.05315
1.15754
-1.59948
0.691526
0.0177562
-0.228869
-0.0964152
0.0588673
-0.0397195
-0.167313
0.0524839
-0.191216
0.112248
-0.247179
0.121223
-0.444394
1.07196
3.51809
-0.156648
0.158693
3.00725
-0.0638868
0.46806
3.18082
-0.282662
0.64123
3.44181
-0.254142
0.309132
3.32963
0.380705
3.07168
-0.784771
1.62387
1.72521
0.122572
-1.06201
0.98877
0.157693
0.291604
1.14507
-0.637531
1.17498
1.71425
-1.25243
0.807561
1.27402
-1.1168
0.936601
-0.583344
-1.04724
0.0715963
-0.45482
0.238034
-0.863428
-0.385966
-0.982492
-0.742469
-1.14738
-0.38424
0.281869
3.55571
2.22858
-0.0534209
3.37984
2.51743
-0.129882
3.42144
2.34429
0.0376325
3.34931
2.4163
0.141506
3.37549
2.36791
3.32981
2.33311
0.308939
5.02917
-0.057174
-0.0309451
4.86463
-0.156137
-0.128521
4.92427
-0.260184
0.166673
4.79652
-0.028152
0.175548
4.90492
-0.264294
4.7215
-0.279547
-0.189633
-1.76392
0.0681633
-1.76669
0.102556
-1.82652
-0.0263379
-1.77222
-0.224531
-1.98406
-1.63425
0.11434
3.51207
0.361066
0.0285808
4.91673
0.956823
-0.053266
4.50319
0.67794
0.1077
3.75427
0.560068
0.289721
3.8263
0.626708
4.8164
0.686778
0.0740262
4.0732
-0.692333
-0.0734368
5.49532
-0.587267
0.0188953
4.82327
-0.672585
0.129956
4.20042
-0.585363
-0.0411835
4.33265
-0.599505
5.16395
-0.66828
-0.239697
-1.19663
-0.00538787
-1.35943
0.116795
-1.30134
-0.0356768
-1.19645
-0.310576
-1.29832
-1.28191
-0.0455346
3.1766
0.490135
-0.0165506
3.65024
0.638549
-0.00939404
3.45203
0.543049
-0.0154073
3.32144
0.56776
0.0207293
3.26372
0.626985
3.58124
0.528694
-0.0669689
1.74164
0.809595
-0.0226142
2.09403
0.924583
0.00657435
1.82368
0.926573
-0.0364372
1.8724
0.906688
-0.0532113
1.76313
0.917861
2.00063
0.859118
0.00177107
0.334604
-0.0034622
0.425957
-0.0211429
0.414609
-0.00214787
0.385405
0.049098
0.390849
0.375258
0.0265116
-0.599822
-0.55289
1.1262
0.0535606
-0.60508
-0.561476
1.13951
0.0168255
-0.695652
-0.572857
1.30524
-0.0446604
-0.664948
-0.621585
1.34802
-0.0899416
-0.656311
-0.670787
1.37238
-0.674911
-0.620753
1.20572
0.219238
-0.355901
0.0747764
-0.537936
0.399641
-0.391382
-0.0598455
-0.334255
0.270379
-0.30809
-0.246353
-0.0119459
0.0364702
-0.159781
-0.205384
-0.0658725
-0.0237995
-0.220165
0.178935
-0.554809
-0.296211
0.462787
-0.865284
-0.0266911
0.250501
-0.583522
0.0543484
0.206243
-0.616377
0.0760365
0.330461
-0.910284
0.0608927
0.65162
-1.35204
0.117398
0.674227
-1.37785
0.58374
-1.08804
0.0062941
-0.39091
-0.168274
0.00594144
-0.384059
-0.177065
0.00921047
-0.384017
-0.192109
0.00300124
-0.420574
-0.194802
-0.00789325
-0.475185
-0.184708
-0.453178
-0.175469
0.0411637
-0.106798
-0.250499
0.0321644
-0.117191
-0.317714
-0.0774946
-0.123359
-0.397352
-0.233482
-0.118076
-0.351894
-0.197575
-0.13553
-0.196627
-0.096795
-0.0911712
-0.0504144
-0.0131473
-0.116051
-0.0167946
-0.115383
0.0326134
-0.0235226
0.173826
0.0222574
0.14957
0.121849
0.00324943
-0.149381
-0.0221425
0.00691223
-0.151584
-0.0291433
0.00177046
-0.159711
-0.0272562
-0.00365591
-0.1618
-0.0275765
-0.00208854
-0.160142
-0.0261336
-0.15273
-0.0248278
0.0200077
-0.00111744
-0.41877
0.00935174
-0.00729378
-0.451352
-0.056104
-0.00879469
-0.482815
-0.11884
-0.000679094
-0.450281
-0.0888066
0.00985559
-0.39666
0.0289945
-0.361704
-0.031555
-0.14903
-0.0719077
-0.145113
-0.0902662
-0.133298
-0.0256904
-0.0989306
0.00199198
-0.0976387
-0.08981
0.000686203
-0.108343
0.0855147
0.00288537
-0.107144
0.0758014
0.00132271
-0.107105
0.0814107
-7.61145e-05
-0.103088
0.0769099
-0.000351805
-0.10046
0.0746017
-0.106707
0.0815276
-0.0348723
0.0631059
-0.555349
-0.0297733
0.0623369
-0.625937
-0.0153072
0.0688294
-0.673218
-0.0278897
0.0758334
-0.616623
-0.0272479
0.0809799
-0.578745
0.0788206
-0.574483
-0.017003
-0.320254
-0.0235359
-0.331468
-0.0265603
-0.326335
-0.0120629
-0.31083
-0.000914801
-0.309014
-0.29629
-0.00370171
0.032247
0.0569692
0.00566772
0.0314705
0.0349611
0.000125454
0.0312413
0.0557116
-0.00231972
0.0471441
0.0322108
0.00204591
0.0540239
0.016212
0.0205337
0.0630398
-0.0203312
0.379799
-0.882573
-0.0118032
0.380427
-0.983424
-0.0171818
0.388941
-1.02554
-0.0139515
0.391692
-0.964404
0.00345507
0.400299
-0.942429
0.380112
-0.930608
-0.0219001
-0.483748
-0.0201145
-0.527232
-0.015528
-0.528037
0.000842495
-0.512068
0.0179721
-0.508979
-0.490299
-0.0290582
0.576162
0.00208399
0.642368
-0.00617513
0.607019
-0.00664645
0.600442
0.00725135
0.629299
0.598985
-0.0198992
0.523086
-0.00447089
0.568101
-0.0491734
0.552753
-0.0322858
0.525839
0.0448941
0.527551
0.57239
-0.0517297
-0.00583437
-0.00180767
-0.00671934
0.0157397
-0.0751174
-0.703926
-0.0733904
-0.0935647
-1.1987
0.0645906
0.669745
-0.515086
0.116155
0.882268
-0.870889
0.152983
0.359607
-1.30478
0.104774
-0.861402
0.0610607
0.142359
-0.84337
-0.00291415
0.00966176
-1.14211
0.0761039
0.0195237
-0.514549
-0.010398
-0.0481687
-0.913005
0.10981
-0.187262
-1.28056
0.114881
-1.08914
0.0404812
0.0512502
0.0786126
-0.0740104
0.0722561
0.0711452
0.0239607
0.144749
0.0668158
0.0298066
0.0703314
0.0595405
0.020753
-1.2972
0.22645
-0.0087093
-1.60408
0.0448578
0.324825
-1.48093
0.157646
0.411072
-1.54692
0.194054
0.253055
-1.70124
0.100116
-1.44649
0.241236
0.155325
-1.31116
-0.144282
0.114682
-1.4114
-0.0759346
-0.0241912
-1.37764
0.0251887
-0.0666328
-1.45283
0.0581601
-0.106066
-1.56279
0.015863
-1.43376
-0.0783177
0.0509166
0.052599
0.0236152
0.080771
0.0493086
0.0591069
0.0702855
0.0553019
0.00181155
0.0483808
0.0173321
0.170387
-0.847853
0.630958
0.263765
-1.68011
0.390059
0.537345
-1.6471
0.384815
0.450557
-1.68826
0.428905
0.216769
-1.83998
0.447745
-1.37611
0.887945
0.39552
-1.14802
-0.239633
0.245896
-1.42101
-0.185408
0.0296072
-1.37223
-0.0333999
-0.052533
-1.52571
-0.0222543
-0.107196
-1.65035
-0.119106
-1.47565
-0.0859718
0.0943544
0.0349975
0.010105
0.0860812
0.0454677
0.0572974
0.0335022
0.0401344
-0.0525381
-0.00816898
-0.0705531
0.805393
-0.329415
0.913478
1.22738
-1.61449
0.893452
0.84219
-1.98497
0.834884
0.114185
-1.87176
0.908607
-0.333112
-1.83865
1.29541
-0.660255
1.91521
0.625853
-1.08199
-0.112907
0.439932
-1.52887
-0.0851013
-0.0607462
-1.63732
0.119635
-0.296367
-1.75446
0.0960647
-0.436609
-1.80164
-0.0158674
-1.43934
0.256501
0.139309
-0.00849526
0.00684208
0.0386137
-0.0527394
0.0213842
-0.0878687
-0.014641
-0.150422
-0.142588
-0.189123
1.73355
-0.275029
0.979347
2.09174
-1.79883
1.11205
1.29481
-2.17543
1.02975
0.0069373
-1.89156
1.09563
-0.714963
-1.57629
1.8
-0.0591401
2.71735
0.675558
-1.1216
0.0581099
0.407076
-1.75968
0.14423
-0.135088
-1.89633
0.382698
-0.493869
-1.81845
0.381738
-0.688008
-1.76061
0.362589
-1.27192
0.78127
0.127028
-0.0694596
-0.0561259
-0.0230911
-0.203381
0.0183571
-0.168841
-0.0316228
-0.194621
-0.197485
-0.199347
2.37091
-0.64131
0.698919
2.51484
-2.035
0.953695
1.53699
-2.86698
1.36269
-0.122724
-2.89303
1.49976
-0.564934
-1.65466
1.67393
-0.141
2.25688
0.777177
-1.36283
0.00245353
0.740395
-2.33406
0.480074
0.0565166
-2.56684
0.766434
-0.956093
-2.21234
0.713657
-0.987831
-1.81363
0.553296
-1.19593
0.848364
0.162765
-0.148862
-0.00603258
-0.0855512
-0.272654
0.0652927
-0.324624
0.00704156
-0.322615
-0.171466
-0.300855
1.1745
-0.728939
0.814665
0.626391
-2.02403
1.99325
0.560991
-2.89509
2.8289
0.484606
-2.31268
2.74405
-0.0383746
-1.30929
2.09806
-0.305181
1.88962
0.664392
-1.37232
-0.0185578
0.580453
-2.59518
1.13516
-0.0793809
-3.38379
1.91497
-0.760103
-2.46514
1.54684
-1.05069
-1.30191
0.836501
-0.605001
0.0974904
0.323255
-0.350596
0.25651
-0.0825708
-0.466451
0.621878
-0.721187
0.12848
-0.581585
-0.28333
-0.75217
-0.735773
-0.404663
1.57042
-1.36497
-0.726787
2.77284
-0.622839
0.642206
2.95825
0.562411
1.33832
2.58588
0.558058
0.944756
2.41202
0.495175
2.10225
-0.425685
-0.56813
0.570593
-0.493286
-1.23286
1.70884
-0.89118
0.824451
2.13062
-0.128844
0.387753
1.73508
-0.212114
0.744911
1.11962
0.756016
-0.375463
0.149399
-0.289242
-0.0858262
0.318852
-1.62372
0.969268
-1.24862
0.168823
-0.612011
-0.484941
-1.09888
-2.09536
0.604978
2.64668
-2.94968
1.76661
3.03217
-1.80548
3.80378
2.34392
-0.283791
4.00543
1.84593
0.581989
3.08959
2.23365
1.892
1.89723
-2.03381
1.54318
1.6662
-2.67285
2.07052
2.04396
-1.85153
3.57555
1.53753
-0.486837
3.44552
0.930292
0.352495
2.79596
0.573913
2.11267
-0.243643
-0.84494
0.41788
-1.43302
0.933251
-1.62927
0.666793
-0.910123
-0.0656831
-0.225179
-0.516103
-0.693475
-1.60711
1.47455
2.83902
-2.69673
3.04411
3.37126
-2.72008
5.63388
2.33617
-2.25625
4.53563
1.58656
-0.831732
3.89772
1.01572
3.01841
1.20406
-1.57524
2.78529
1.9307
-2.76566
3.60327
2.67522
-2.57425
5.02105
1.95895
-2.11033
3.68593
1.31607
-0.952025
2.62602
0.687305
2.05097
-0.228236
-0.321581
0.504536
-0.938452
1.43798
-0.801679
1.33754
-0.771608
0.908626
-0.48887
0.410105
-0.247772
0.433551
3.10829
0.738178
1.18643
4.43672
1.39173
1.28187
5.42811
0.842214
0.409464
5.01711
0.535104
-1.19763
3.56057
-0.266253
3.42639
-0.0229242
0.384942
3.43669
1.21736
0.960426
4.69747
1.83898
1.4434
5.36111
1.54298
1.25414
5.06323
1.4592
0.162634
4.0647
1.27468
2.69691
0.663876
0.507694
0.229368
1.15316
0.996596
1.564
1.44394
1.332
1.64977
0.584931
1.37253
0.545529
0.196356
0.53053
0.720415
0.987529
0.980008
0.676606
0.893411
0.721043
0.186317
0.280873
-0.238212
0.372773
0.837177
1.33707
1.52796
1.76088
1.78383
1.79955
2.0757
1.03244
1.76785
0.592822
0.312662
1.07138
1.32744
1.09141
0.778718
)
;

boundaryField
{
    seabed_topleft_surface
    {
        type            calculated;
        value           uniform 0;
    }
    seabed_topright_surface
    {
        type            calculated;
        value           uniform 0;
    }
    breakwater_top_surface
    {
        type            calculated;
        value           uniform 0;
    }
    breakwater_left_surface
    {
        type            calculated;
        value           uniform 0;
    }
    breakwater_right_surface
    {
        type            calculated;
        value           uniform 0;
    }
    water_front_surface
    {
        type            calculated;
        value           uniform 0;
    }
    water_back_surface
    {
        type            calculated;
        value           uniform 0;
    }
    water_left_surface
    {
        type            calculated;
        value           uniform 0;
    }
    water_right_surface
    {
        type            calculated;
        value           uniform 0;
    }
    water_top_surface
    {
        type            calculated;
        value           nonuniform List<scalar> 
180
(
0.473526
-0.361142
-0.672749
0.295454
0.3714
0.389427
-2.95122
-2.92403
-2.89912
-2.9447
-2.98818
-2.92486
-2.28616
-2.29505
-2.29744
-2.29343
-2.29464
-2.30164
-2.16718
-2.17166
-2.1703
-2.16631
-2.17484
-2.15656
-1.77897
-1.78861
-1.78574
-1.78169
-1.78123
-1.77844
-1.43517
-1.44132
-1.43098
-1.4362
-1.43604
-1.41578
-1.35715
-1.37153
-1.34388
-1.366
-1.34884
-1.3073
-0.507639
-1.62512
-1.50383
-1.028
-0.87646
-1.59219
3.02559
-1.20326
0.821282
2.59026
2.06427
-1.3538
5.93548
5.9187
5.85297
5.71514
5.93979
5.74698
3.7456
4.85375
4.1759
3.77712
3.92181
4.50104
0.208634
0.313883
0.125418
0.271559
0.0227174
0.392562
0.00381131
-0.0622872
0.250045
0.555782