/*--------------------------------*- C++ -*----------------------------------*\
| =========                 |                                                 |
| \\      /  F ield         | OpenFOAM: The Open Source CFD Toolbox           |
|  \\    /   O peration     | Version:  v1612+                                |
|   \\  /    A nd           | Web:      www.OpenFOAM.com                      |
|    \\/     M anipulation  |                                                 |
\*---------------------------------------------------------------------------*/
FoamFile
{
    version     2.0;
    format      ascii;
    class       volVectorField;
    location    "9.05";
    object      U;
}
// * * * * * * * * * * * * * * * * * * * * * * * * * * * * * * * * * * * * * //

dimensions      [0 1 -1 0 0 0 0];

internalField   nonuniform List<vector> 
1116
(
(0.08911 0.00337582 0.0739176)
(0.0392728 -0.014846 0.0768712)
(0.0240778 0.0311716 0.0679328)
(0.133346 0.0303748 0.0716423)
(0.182472 -0.0017468 0.0779479)
(0.037517 -0.0477801 0.0619991)
(0.114655 0.0175129 0.287424)
(0.0788852 -0.00388113 0.30754)
(0.0663516 0.00806253 0.319496)
(0.125788 -0.0238527 0.295731)
(0.154944 0.020839 0.303775)
(0.0624969 -0.0170287 0.312341)
(0.113136 0.00979414 0.150032)
(0.0958783 -0.000140551 0.161994)
(0.0888837 0.000350122 0.173666)
(0.108916 -0.0234597 0.147085)
(0.123584 0.0116973 0.144711)
(0.0716024 -0.00118611 0.163218)
(0.152829 0.00219151 -0.0827719)
(0.144677 -0.000727175 -0.0854584)
(0.141648 -0.00139365 -0.0824507)
(0.149504 -0.0118713 -0.0859656)
(0.157236 0.00174067 -0.0888045)
(0.127382 0.00208582 -0.0892868)
(0.258727 -0.000550148 -0.267239)
(0.251309 -0.00211356 -0.273633)
(0.250479 0.000648807 -0.275355)
(0.257591 -0.00285836 -0.267079)
(0.264073 -0.00162048 -0.266848)
(0.244321 -0.00171409 -0.277538)
(0.443913 -0.000887453 -0.272296)
(0.435076 -0.00161488 -0.275932)
(0.436965 0.00073617 -0.278663)
(0.441362 0.000694956 -0.270962)
(0.447014 -0.00233691 -0.271802)
(0.434502 -0.00369054 -0.275859)
(0.667549 0.00171674 -0.207544)
(0.656344 -0.000412501 -0.212533)
(0.658706 -0.000717171 -0.214466)
(0.664977 -0.000430457 -0.207745)
(0.671521 -0.00149796 -0.204763)
(0.653948 -0.00110497 -0.212999)
(0.884754 0.00280023 -0.116096)
(0.879665 -0.000336905 -0.133356)
(0.880876 -0.0016504 -0.132123)
(0.884402 -0.00160415 -0.119581)
(0.882223 -0.0017282 -0.109229)
(0.878143 -0.000379905 -0.142613)
(0.934538 -0.00422531 -0.0710313)
(0.942594 -0.00333077 -0.0809604)
(0.941509 0.000653744 -0.0765562)
(0.936329 -0.00113542 -0.0760619)
(0.92439 -0.0059601 -0.0786626)
(0.943497 -0.00553483 -0.0856743)
(0.688207 -0.00712184 -0.249153)
(0.677623 -0.00318147 -0.230339)
(0.680893 -0.000272858 -0.227603)
(0.688968 5.67373e-05 -0.255171)
(0.681626 -0.00247684 -0.274953)
(0.676463 -0.00441934 -0.213444)
(-0.177141 -0.000903781 -0.683063)
(-0.218401 0.00388377 -0.66874)
(-0.215135 -0.0029713 -0.669107)
(-0.173746 0.00169949 -0.683159)
(-0.160868 0.00291294 -0.703637)
(-0.226363 0.00179886 -0.650106)
(-0.595222 0.0199983 -1.15934)
(-0.634414 0.0115236 -1.14865)
(-0.630647 -0.0120329 -1.15876)
(-0.593618 0.00302718 -1.15821)
(-0.572095 0.0170022 -1.16149)
(-0.635355 0.0206374 -1.13995)
(0.0132265 4.28452e-05 -0.334757)
(0.150826 0.0400539 -0.318301)
(0.167854 -0.0982854 -0.319959)
(-0.145919 -0.0812391 -0.351797)
(-0.295739 0.00383787 -0.350539)
(0.126467 0.104618 -0.333179)
(0.524895 -0.0262328 -0.276307)
(0.601801 0.0506318 -0.293705)
(0.612617 -0.0258106 -0.289108)
(0.497864 0.0732742 -0.246493)
(0.481184 -0.0475094 -0.197915)
(0.584656 0.0342058 -0.291661)
(0.576176 -0.0183044 -0.235799)
(0.610084 0.0361819 -0.238875)
(0.596798 -0.0109116 -0.230854)
(0.589765 0.0549163 -0.228715)
(0.617562 -0.0271661 -0.219918)
(0.594163 0.0229935 -0.239505)
(0.707309 -0.0103078 -0.0929512)
(0.717875 0.0108433 -0.0898682)
(0.706466 -0.00466383 -0.086751)
(0.724069 0.0154165 -0.0955568)
(0.753316 -0.011169 -0.104753)
(0.717437 0.0152863 -0.101883)
(1.12301 -0.00740648 -0.0435041)
(1.13099 -0.00263887 -0.0435114)
(1.12761 0.000497735 -0.0444345)
(1.12961 0.00354132 -0.0441084)
(1.13962 -0.00624216 -0.0470391)
(1.13586 0.00588708 -0.0581011)
(1.58439 -0.00376629 -0.0744241)
(1.58942 -0.00513562 -0.0741068)
(1.58904 0.000364104 -0.0763992)
(1.58526 -0.000256389 -0.0727472)
(1.58842 -0.0022608 -0.0701359)
(1.58991 0.00290305 -0.0864187)
(2.01143 0.00144927 -0.131505)
(2.01456 -0.00230456 -0.124468)
(2.01283 -0.0032817 -0.127384)
(2.01205 -0.00236149 -0.129345)
(2.01498 -0.000273974 -0.125293)
(2.01084 0.000996811 -0.13513)
(2.37183 0.00288359 -0.125013)
(2.39058 -0.0021097 -0.110736)
(2.38155 -0.0031637 -0.11514)
(2.381 -0.00350004 -0.121371)
(2.38342 0.00151681 -0.113287)
(2.38064 0.00237657 -0.11958)
(2.65841 0.00319776 0.207283)
(2.69747 -0.00219692 0.203811)
(2.68233 7.17004e-05 0.204947)
(2.6732 -0.00076436 0.206923)
(2.68075 -0.00270987 0.208469)
(2.67978 -0.0042433 0.199104)
(2.69564 0.00486111 1.06697)
(2.72192 0.00161968 1.06281)
(2.7069 -0.00250979 1.06862)
(2.72122 0.00322551 1.05109)
(2.73752 -0.0137403 1.04721)
(2.68828 -0.0203242 1.06759)
(1.60212 0.0176331 2.01589)
(1.63822 0.0181573 2.05221)
(1.61378 -0.013935 2.04717)
(1.63672 0.00541716 2.011)
(1.67189 -0.0038912 2.01361)
(1.57481 -0.0204976 2.03573)
(1.55976 -0.00433092 0.605309)
(1.50311 0.011124 0.646794)
(1.50121 -0.0154519 0.612878)
(1.59875 -0.020972 0.61316)
(1.64267 0.0293021 0.688512)
(1.46498 0.0678293 0.629976)
(1.03216 -0.0554799 -1.00842)
(1.34351 0.14254 -0.9125)
(1.53358 -0.231828 -0.838081)
(0.786197 -0.148002 -0.951508)
(0.538785 0.0246693 -0.988583)
(1.50815 0.391084 -0.805393)
(5.09102 -0.102311 -0.680677)
(5.42998 0.165252 -0.502391)
(5.45936 -0.104758 -0.492082)
(5.01737 0.118985 -0.757179)
(4.76067 -0.0195629 -0.882249)
(5.59137 0.427394 -0.496695)
(9.84115 -0.144788 -0.617946)
(10.1273 0.223501 -0.533261)
(10.221 -0.0331284 -0.530278)
(9.80923 0.283432 -0.628553)
(9.59532 0.0038374 -0.645968)
(10.5003 0.43067 -0.504679)
(14.5038 -0.139146 -1.32853)
(14.9341 0.280683 -1.30431)
(15.0116 -0.0592512 -1.31536)
(14.5754 0.316298 -1.30539)
(14.3692 0.022572 -1.31101)
(15.5281 0.479392 -1.29569)
(19.0057 -0.153372 -2.07136)
(19.5424 0.257776 -2.1208)
(19.6041 -0.147201 -2.12622)
(19.1342 0.235149 -2.05813)
(18.845 -0.102225 -2.0489)
(20.3078 0.432599 -2.0912)
(21.8568 -0.180975 -1.74975)
(22.3451 0.111846 -1.78538)
(22.3952 -0.186014 -1.78776)
(21.9785 0.109091 -1.74415)
(21.7937 -0.272226 -1.74359)
(22.8023 0.207692 -1.73184)
(19.7974 -0.105268 -0.470349)
(19.9867 0.0124007 -0.485166)
(20.1291 -0.139899 -0.492786)
(19.764 0.00892027 -0.474829)
(19.6923 -0.174265 -0.479329)
(20.1723 0.0291482 -0.473768)
(12.8733 -0.0687184 0.411263)
(13.4028 -0.00731557 0.424891)
(13.4762 -0.0415814 0.425895)
(12.7347 0.0306176 0.385506)
(12.9413 -0.0371018 0.397056)
(13.3519 -0.0141225 0.422255)
(7.24955 -0.0723059 -0.202289)
(7.42832 -0.0525172 -0.201554)
(7.38245 0.0170814 -0.198757)
(7.20832 0.0595275 -0.22319)
(7.48329 -0.0716138 -0.218162)
(7.23217 -0.0841986 -0.209591)
(4.70761 -0.00399397 0.700489)
(4.74375 -0.0117616 0.75118)
(4.68304 -0.008744 0.744805)
(4.71507 0.0304794 0.705944)
(4.89207 -0.0642729 0.717898)
(4.52413 -0.0653808 0.708087)
(2.94701 0.149798 0.85294)
(2.94127 0.079613 1.0889)
(2.86559 -0.109986 1.02797)
(3.00789 -0.00784792 0.91211)
(3.03403 0.00891602 0.985932)
(2.81424 -0.00859813 0.96473)
(3.74721 -0.0432354 1.17419)
(3.77658 -0.00358711 1.22819)
(3.7592 0.00859061 1.21174)
(3.7844 -0.0302741 1.16757)
(3.89521 0.00940952 1.14416)
(3.59633 0.0532898 1.30666)
(-1.88824 -0.0709633 -4.13406)
(-1.95716 0.161099 -4.23941)
(-1.59521 -0.0219254 -4.15332)
(-1.8893 0.115337 -4.17982)
(-1.98955 -0.051591 -4.47338)
(-1.57591 0.160953 -4.00745)
(-0.871395 -0.000181975 -6.19712)
(-1.07978 -0.0395203 -6.221)
(-1.30761 0.0824426 -6.09609)
(-0.786063 0.140266 -6.21322)
(-0.630317 0.0132197 -6.70134)
(-1.31249 -0.051545 -5.64294)
(-1.32388 -0.0245935 -6.69377)
(-1.37115 0.0147749 -6.95052)
(-1.25845 -0.0373151 -6.81028)
(-1.39053 -0.0538983 -6.81958)
(-1.42631 0.0267487 -6.88664)
(-1.05817 0.0751347 -6.38859)
(-1.55729 -0.0268162 -6.29895)
(-1.51661 -0.0372777 -6.29728)
(-1.4782 -0.0421717 -6.21109)
(-1.60333 -0.0264631 -6.33158)
(-1.68607 -0.0419267 -6.46268)
(-1.10521 0.0320893 -5.66662)
(-1.75692 -0.0447845 -3.51477)
(-1.63317 -0.0305833 -3.39331)
(-1.57954 -0.0642409 -3.33118)
(-1.79477 -0.0724519 -3.51317)
(-1.984 -0.0686118 -3.69731)
(-1.15941 0.0228708 -2.87796)
(-0.0397351 -0.0547321 1.4007)
(0.0117112 -0.0212351 1.46722)
(0.101954 -0.0622822 1.49314)
(-0.115506 -0.0590497 1.38668)
(-0.41036 -0.061083 1.22622)
(0.347946 0.0200828 1.6323)
(2.65005 -0.0538364 5.18069)
(2.62208 -0.0158241 5.17624)
(2.75742 -0.00882158 5.20972)
(2.50887 -0.00609976 5.14444)
(2.32373 7.63717e-05 5.09753)
(2.8684 0.0152331 5.20826)
(5.51917 -0.140039 7.28427)
(5.18092 -0.0814819 6.92845)
(5.32824 0.0796215 7.04709)
(5.2878 0.0596074 7.10021)
(5.05406 -0.0432615 6.96897)
(5.49935 0.0396748 7.15478)
(8.22484 -0.0943574 6.58592)
(8.54013 -0.033858 6.59578)
(8.51228 0.0206965 6.60544)
(8.20416 0.0337318 6.44709)
(8.17562 -0.00753325 6.54134)
(8.78198 0.0935673 6.6087)
(7.26721 -0.0128261 4.28579)
(7.63641 0.0491331 4.57736)
(7.45474 0.0196692 4.39909)
(7.31811 0.0277594 4.28549)
(7.44366 -0.0360865 4.49001)
(7.56922 0.0101677 4.27748)
(4.02553 0.358035 2.70901)
(4.91036 0.330338 3.98444)
(4.67001 -0.327295 3.34457)
(4.53068 -0.0742295 2.99854)
(4.53764 0.253009 3.2927)
(4.83512 0.268602 3.23129)
(4.38863 -0.107605 4.93137)
(5.0955 0.0249814 4.80947)
(4.72736 -0.030568 4.81303)
(4.51181 0.03514 4.94419)
(4.67892 -0.0453879 4.9392)
(4.75407 0.105888 4.75725)
(-0.417229 0.0564512 -0.673642)
(-0.535167 0.0312063 -0.166289)
(-0.431662 -0.283858 -0.89269)
(-0.495311 -0.0366702 -0.13457)
(-0.191841 -0.538054 0.00780006)
(-0.152587 -0.13568 -0.756115)
(-1.30789 0.0707076 -0.72773)
(-1.18285 0.0384709 0.121311)
(-1.15061 -0.345144 -0.644448)
(-1.13104 0.373352 -0.0650433)
(-0.833289 -0.298512 0.204664)
(-1.03845 -0.178895 -0.793501)
(-1.92704 0.142734 -0.527726)
(-1.86217 0.0800588 0.138898)
(-1.31452 -0.199304 -0.382379)
(-0.708932 0.547769 -0.263189)
(-1.42672 -0.272944 0.241232)
(-1.7339 -0.209899 -0.716511)
(-2.08222 0.218052 -0.543081)
(-2.41531 0.559378 -0.00534596)
(-1.32774 0.245862 0.668323)
(-1.17062 0.0657684 0.239729)
(-2.11603 -0.445295 0.046396)
(-2.04754 -0.165926 -0.934489)
(-1.72484 0.199332 -0.429224)
(-1.66829 0.849348 0.172679)
(-0.133957 0.342104 0.901043)
(-1.16071 -0.392106 0.581685)
(-2.89685 -0.528431 0.289011)
(-2.78378 -0.198293 -0.685726)
(-1.77795 0.309891 -0.141776)
(-0.953851 0.786583 0.230353)
(-0.414825 0.993857 0.0163857)
(-1.20366 -0.00774934 0.127033)
(-2.91119 -0.756913 0.312814)
(-3.12241 -0.309182 -0.129245)
(-1.00362 0.400852 -0.107719)
(0.499267 1.02813 -0.70037)
(0.431319 1.94217 -0.860977)
(-3.01968 1.1927 0.327472)
(-3.78915 -1.41064 0.485532)
(-1.7692 -0.319048 -0.440139)
(-0.21882 -0.0505016 0.281993)
(1.32728 0.530324 -0.991633)
(2.13336 0.523914 -1.69501)
(-4.64316 1.55064 0.913938)
(-4.39231 -1.1083 1.07015)
(0.204508 0.0775874 -0.552555)
(-1.00716 -0.115834 0.855794)
(1.18804 -0.358921 -0.61202)
(2.73472 -0.879689 -1.82654)
(-1.83086 0.24872 0.580508)
(-1.21774 -0.093303 0.377234)
(1.35765 0.333926 -0.668166)
(-0.208788 0.312102 1.33637)
(0.278204 -0.798026 0.682115)
(3.35403 -1.37674 -1.9922)
(3.86477 -0.760919 -2.27607)
(3.13008 -0.226247 -1.52613)
(1.99239 0.499774 -0.780665)
(1.29981 0.150853 0.984129)
(0.337151 -0.857908 2.78895)
(2.3933 -1.72871 -1.27669)
(3.50082 -1.04529 -2.60721)
(3.55212 -0.355326 -2.52533)
(1.86352 0.663074 -0.70122)
(0.611897 0.21485 0.283427)
(0.520563 -0.539576 2.11991)
(1.25467 -0.967312 -0.802)
(1.85703 -0.442139 -1.77015)
(1.7381 -0.271278 -1.46459)
(0.626228 0.137829 -0.250366)
(-0.145656 -0.240216 -1.32365)
(-0.046046 0.350943 -1.01206)
(0.4827 -0.851839 -0.923651)
(-0.0642816 -1.62261 -1.03208)
(-0.189696 -0.741491 -0.826075)
(0.0109772 0.14625 -1.92132)
(-1.25446 -0.498094 -1.12316)
(-1.08509 0.158278 -0.811968)
(-0.603912 -1.16572 -0.786165)
(-0.834483 -1.33771 -0.235599)
(-1.04075 -0.708905 -0.162265)
(-1.12833 0.568646 -2.08531)
(-1.60702 -0.708951 -0.711818)
(-1.51901 -0.345296 -0.612076)
(-0.775928 -0.898499 -0.752216)
(-0.796476 -0.35803 0.251588)
(-1.50515 -0.498462 0.213595)
(-1.76495 0.748059 -1.50501)
(-1.95641 -0.721267 -0.947923)
(-2.09099 -0.425185 0.434716)
(-1.80289 -0.679668 1.66686)
(-1.55831 0.0725062 0.481436)
(-1.61545 0.0655455 -0.286823)
(-1.86604 1.02749 -1.52821)
(-2.61773 -0.710973 -1.18752)
(-2.54771 -0.408988 0.674435)
(-1.73255 -0.403335 2.35758)
(-2.79486 -0.229968 0.669891)
(-2.56771 0.13187 -0.93522)
(-2.43329 1.06273 -1.89943)
(-3.38524 -0.520601 -1.45023)
(-3.55346 0.0428487 0.388059)
(-2.3662 -0.375766 1.44365)
(-3.42307 -0.952868 0.608626)
(-4.03368 -0.518049 -0.654552)
(-3.6891 0.449801 -1.62422)
(-4.00742 -0.00578871 -1.52301)
(-4.81775 0.90521 -0.152295)
(-2.99147 0.251205 1.41755)
(-4.35902 -0.928679 2.65219)
(-4.58501 -1.25525 0.898847)
(-4.54993 0.185901 -0.412908)
(-3.73298 0.307672 -0.89045)
(-5.57269 1.9006 -0.299041)
(-3.6499 1.40076 1.47872)
(-6.48293 -0.250494 4.8962)
(-4.81673 -1.17179 4.25628)
(-3.81671 0.420828 1.20193)
(-1.8985 0.212488 0.604641)
(-3.09242 2.62279 1.11218)
(-3.95981 2.87545 2.05049)
(-3.46349 1.22731 4.15232)
(-1.26236 1.10069 5.08028)
(-3.21778 1.04094 2.54792)
(-1.27497 0.910513 1.90431)
(1.68231 0.842518 2.63739)
(-0.767037 1.97926 2.42446)
(-0.565577 0.662839 3.57011)
(1.55374 0.158711 3.57411)
(-3.83736 1.12735 1.90203)
(-0.542768 0.447667 0.59765)
(2.72367 0.32249 1.24256)
(2.32347 0.0986379 0.590074)
(3.15393 -0.180069 -2.20744)
(3.12544 -0.615211 -3.77846)
(-1.09899 0.563023 0.538415)
(1.55729 0.473046 -2.58969)
(2.01159 0.882296 -1.68434)
(2.88568 1.32998 -3.06568)
(3.31721 0.814382 -4.0342)
(3.60368 -0.31636 -4.00021)
(1.82886 -0.660501 -1.93291)
(0.632713 -0.371458 -2.14005)
(0.553352 0.433737 -0.527011)
(0.797722 -0.113664 3.19156)
(0.197709 -1.01654 -1.60717)
(0.203052 -0.395524 -5.326)
(0.122441 0.270237 -3.1915)
(-0.980796 -0.801472 -0.971493)
(-1.32007 -0.304531 0.279072)
(-0.970958 -0.994175 1.91025)
(-0.468411 -0.404008 -1.75711)
(-0.48736 -0.206824 -4.64954)
(-1.18933 0.446898 -2.69013)
(-1.68672 -1.2169 0.871365)
(-1.46215 0.646238 0.191611)
(1.1592 -1.00236 -1.19599)
(0.397367 0.203865 -1.31724)
(-0.925995 -0.223957 -1.91963)
(-2.39184 0.926119 -0.691445)
(-1.60664 -1.36285 0.39932)
(-0.196522 -1.10689 -0.418231)
(0.736985 -1.14545 -0.803)
(0.894643 0.603191 -4.04989)
(-0.287234 0.457269 -2.21626)
(-1.52496 1.19647 0.784138)
(-2.01362 -2.42127 0.268362)
(-1.84131 -2.42284 -1.14678)
(-1.68168 -1.10296 0.0558703)
(-1.47529 0.664134 -1.82083)
(-0.721915 1.91008 -4.87648)
(0.972785 1.97098 0.300774)
(-3.00578 -3.28543 -0.0557569)
(-3.26343 -2.65659 -1.5596)
(-4.03424 -0.95688 1.10196)
(-3.83607 -0.0112409 -0.323406)
(-3.34732 1.26208 -3.31532)
(-2.9004 1.54551 -2.33963)
(-4.18537 -2.00732 -2.20634)
(-4.65592 -1.51724 -1.66745)
(-4.92966 -0.818253 2.33884)
(-4.99213 -1.00367 1.812)
(-4.72552 0.0461597 -0.872082)
(-4.8452 0.843241 -1.79472)
(-5.22489 -0.884291 -2.77396)
(-6.01123 -0.194271 -1.08559)
(-5.50237 -0.692421 3.67843)
(-6.36983 -1.67514 7.2655)
(-4.79044 -0.562644 3.31722)
(-5.92881 0.582838 -0.15029)
(-6.30993 -0.616797 -2.57747)
(-6.78039 0.965878 -0.199112)
(-6.93573 1.01913 4.1734)
(-3.44542 0.230169 7.5956)
(-3.19991 -0.00691872 9.72666)
(-7.18788 0.445987 2.4837)
(-7.01055 -0.404412 -1.32991)
(-2.28345 1.54169 4.22428)
(-4.2177 1.47804 7.2038)
(-1.75037 0.420775 7.43321)
(-0.798916 -1.01563 4.85511)
(-8.15676 0.369868 5.10002)
(-7.52724 0.618051 1.62695)
(-3.82859 1.72166 3.80403)
(-0.169231 1.33111 2.64382)
(2.04156 0.799482 -1.32698)
(2.73842 -0.681243 -3.88654)
(-1.74801 0.0827806 2.62709)
(1.22931 0.893853 -2.66689)
(3.09561 1.96921 -4.41313)
(3.52674 2.004 -4.3215)
(3.46961 1.28332 -4.10604)
(3.5598 -0.111003 -4.08553)
(2.74689 -0.816303 -3.13676)
(0.46733 -0.219264 -2.05231)
(0.16462 -0.377172 -1.75437)
(0.995566 0.299495 2.90919)
(0.719279 1.41721 0.491382)
(0.269597 1.05017 -3.52458)
(0.17745 0.293997 -3.25089)
(-0.954863 -0.400006 -1.1313)
(-0.535806 -0.110076 -2.3792)
(-0.833002 0.322639 -0.217724)
(-0.411583 1.06851 -1.35068)
(0.12072 0.79705 -3.03917)
(-0.243682 0.306145 -2.9342)
(-2.85378 -0.622623 -0.289731)
(-2.37656 0.179275 -0.557472)
(-2.24433 -0.212702 0.294778)
(-1.53671 0.611989 -1.47499)
(-1.019 0.222538 -2.35928)
(-1.92043 0.355992 -1.13958)
(-3.26456 -0.592715 2.19043)
(-4.52393 0.673816 0.546643)
(-3.60751 0.104234 -3.58965)
(-2.73245 0.724597 -4.06745)
(-3.23536 -0.364968 -1.80298)
(-3.55772 0.431258 2.67006)
(-2.83947 -0.808199 5.0376)
(-4.71647 1.16894 -2.78014)
(-2.7852 0.524526 -8.15043)
(-1.22333 1.55463 -9.16312)
(-3.77414 0.201641 -4.77064)
(-4.37197 0.705086 4.00588)
(-3.49423 -0.199189 5.78161)
(-3.79208 0.0471354 -6.27824)
(-2.04312 0.19901 -8.41758)
(-1.94926 1.47871 -8.28487)
(-2.95095 1.72103 -6.634)
(-3.49144 1.01756 -2.16009)
(-3.31595 -0.321998 2.79248)
(-4.63699 -1.21015 -4.00806)
(-5.40341 -0.76327 -0.729619)
(-5.40486 0.164342 -0.481451)
(-4.82899 0.997841 -2.16313)
(-4.14543 0.858115 -1.59046)
(-4.03814 -0.992036 -0.84757)
(-6.13694 -2.05921 -1.60384)
(-6.3163 -1.51389 3.88047)
(-5.96624 -0.770435 5.32716)
(-5.19161 0.540965 2.99595)
(-5.49366 0.872566 -0.104255)
(-5.88667 -1.26003 -1.69386)
(-7.06416 -1.66692 1.43139)
(-6.20595 -2.16435 8.86588)
(-4.37893 -1.59646 10.1603)
(-5.24735 -0.204146 8.44159)
(-6.84716 0.735025 1.58128)
(-6.36302 -0.914212 -0.957592)
(-6.40671 -0.605795 3.64689)
(-4.62046 -0.713771 10.486)
(-2.42559 -1.54482 9.2099)
(-4.40286 -1.67474 7.69656)
(-7.2467 0.325326 5.76206)
(-7.35124 0.285296 1.74234)
(-8.55503 1.64789 5.34363)
(-6.16044 2.22868 6.77617)
(-4.15291 0.558155 4.48154)
(0.940005 -0.631544 -1.48734)
(-5.64623 -0.822571 6.89202)
(2.66465 0.477897 -2.6993)
(2.82403 1.27572 -2.8945)
(3.21582 1.46728 -3.10449)
(3.48995 1.37517 -3.3707)
(3.71454 0.120097 -3.81116)
(3.1286 -0.660692 -3.38531)
(-1.80753 -0.0148818 -1.09214)
(-1.99396 0.168913 -0.83188)
(-1.78919 -0.122311 -0.638119)
(-1.89484 -0.0569816 -0.910746)
(-1.94728 -0.11029 -1.24197)
(-1.84369 0.0358773 -0.400683)
(-1.83967 -0.212283 -1.64118)
(-1.73249 -0.122056 -1.02781)
(-1.51818 0.0322142 -0.662804)
(-1.81454 0.325553 -1.38588)
(-1.99618 -0.0267545 -1.75662)
(-1.65702 -0.00159839 -0.918831)
(-1.61582 -0.289881 0.867996)
(-1.45662 -0.258455 -0.592992)
(-1.21424 0.230152 -1.16944)
(-1.55392 0.562676 0.549492)
(-1.72791 0.111729 0.691221)
(-1.59826 0.0105156 0.732809)
(-0.123466 0.034267 -4.33078)
(-0.150701 -0.015318 -4.40813)
(-0.308295 -0.0419919 -4.29397)
(-0.108599 0.046374 -4.26892)
(-0.10356 -0.0601434 -4.565)
(-0.662404 -0.116484 -3.98933)
(-0.11474 0.0120157 -5.19813)
(-0.024801 -0.0365322 -5.17781)
(-0.00839205 -0.015721 -5.13967)
(-0.123651 0.0635955 -5.19095)
(-0.146785 -0.0256617 -5.36344)
(-0.178942 -0.101696 -4.96777)
(-0.0921463 -0.00747197 -5.43824)
(-0.0766698 -0.025128 -5.3881)
(-0.0708758 0.00990443 -5.34196)
(-0.116959 0.0511672 -5.42491)
(-0.10982 -0.00726889 -5.505)
(-0.112484 -0.0416562 -5.38508)
(-1.14731 0.0362669 -4.13355)
(-1.15052 0.0389511 -4.35703)
(-1.12418 -0.0122881 -4.31882)
(-1.15032 -0.0107276 -4.25073)
(-1.19317 0.0097172 -4.26991)
(-1.17717 0.00219712 -4.37364)
(-0.922603 0.0248039 -4.07943)
(-0.91206 0.017799 -4.13401)
(-0.889243 0.0163486 -4.11505)
(-0.911007 0.0310771 -4.11423)
(-0.948396 0.0268133 -4.11387)
(-0.841398 0.0192039 -4.09903)
(-0.574691 0.00474912 -4.22517)
(-0.562653 -0.00100459 -4.24186)
(-0.553332 0.0025607 -4.24653)
(-0.571135 0.00619393 -4.23827)
(-0.594787 -0.00505203 -4.24049)
(-0.575787 -0.00540949 -4.25379)
(-1.64003 0.00448301 -4.70344)
(-1.65004 -0.0255068 -4.81988)
(-1.65849 -0.0208881 -4.78549)
(-1.65224 0.00503686 -4.76394)
(-1.6734 -0.0910424 -4.86625)
(-1.71188 -0.106438 -4.71094)
(-0.631518 0.0140592 -3.75788)
(-0.638969 0.0029579 -3.75415)
(-0.645572 -0.00789595 -3.73117)
(-0.644371 0.0149807 -3.74554)
(-0.646325 -0.0155748 -3.76448)
(-0.656975 -0.0248552 -3.6577)
(-0.342688 -0.00293928 -4.02545)
(-0.345624 -0.00730933 -4.03403)
(-0.345206 -0.00262867 -4.03169)
(-0.348918 0.00125696 -4.02387)
(-0.34919 -0.0110809 -4.04024)
(-0.356249 -0.0116128 -4.00564)
(-2.66294 -0.0101837 -4.664)
(-2.6644 -0.0304702 -4.74613)
(-2.65012 -0.0115845 -4.70065)
(-2.6732 -0.00583027 -4.71443)
(-2.70103 -0.0676185 -4.79052)
(-2.63644 -0.0823448 -4.60933)
(-1.01264 0.00971962 -2.79414)
(-1.02606 -0.00141897 -2.80473)
(-1.03243 -0.00461273 -2.79019)
(-1.01546 0.0012774 -2.78834)
(-1.03074 -0.0161528 -2.79895)
(-1.03099 -0.0115264 -2.72936)
(-0.420628 0.00043545 -3.32913)
(-0.417405 -0.00299744 -3.34739)
(-0.41793 -0.00316341 -3.34211)
(-0.418299 -0.00160713 -3.3344)
(-0.418818 -0.00970553 -3.33377)
(-0.415319 -0.00767061 -3.32846)
(-2.50504 -0.0207349 -3.34741)
(-2.49422 -0.029302 -3.40072)
(-2.44514 -0.0111595 -3.33893)
(-2.54721 -0.0224034 -3.45148)
(-2.62195 -0.00713175 -3.51356)
(-2.41264 -0.0178976 -3.28976)
(-0.867914 -0.013064 -1.72402)
(-0.88999 -0.0271665 -1.73925)
(-0.881863 -0.00509877 -1.71935)
(-0.882933 -0.0163475 -1.74083)
(-0.920055 -0.032396 -1.76396)
(-0.878066 -0.0170376 -1.66126)
(-0.274955 0.0047472 -2.7134)
(-0.26661 -0.0021982 -2.7245)
(-0.271733 -0.00465195 -2.70537)
(-0.260905 0.00317717 -2.71516)
(-0.271492 -0.00200377 -2.71481)
(-0.264072 -0.00457941 -2.67651)
(-0.602116 0.0167279 -1.42779)
(-0.73509 0.0376149 -1.49578)
(-0.620161 -0.00367477 -1.39059)
(-0.811077 0.0211108 -1.56692)
(-0.986266 0.0486413 -1.45201)
(-0.584272 0.00197249 -1.40119)
(0.143451 -0.0100574 -1.24441)
(-0.0774266 -0.0271634 -1.27111)
(-0.0115223 0.0164546 -1.21134)
(-0.025337 -0.0206779 -1.27948)
(-0.131359 -0.0215318 -1.22883)
(-0.149651 -0.011898 -1.16942)
(-0.212694 0.0195685 -2.55707)
(-0.173958 0.00303206 -2.58445)
(-0.221205 0.00506842 -2.53355)
(-0.237205 -0.0050552 -2.57421)
(-0.226326 -0.00635761 -2.54483)
(-0.1693 0.0100087 -2.46596)
(2.5948 -0.432307 -1.03921)
(2.80571 -0.204284 -2.1791)
(2.87633 0.141832 -1.95732)
(2.47362 0.168861 -1.34656)
(2.61304 -0.406807 -1.82241)
(2.86494 -0.248087 -1.62483)
(2.20288 -0.517319 -0.806193)
(2.02663 -0.337205 -2.11272)
(2.17646 0.140172 -2.003)
(2.06057 0.106834 -1.23692)
(2.15903 -0.525778 -1.29108)
(1.99169 -0.300472 -1.87733)
(0.265102 0.0359834 -0.98409)
(0.356926 -0.0168772 -3.07255)
(0.333135 -0.121289 -2.85513)
(0.359975 0.0285496 -1.96047)
(0.270339 0.076987 -1.67226)
(0.325579 0.106525 -3.00885)
(5.42969 -0.547419 2.12968)
(3.50906 -0.271796 1.31492)
(4.33558 -0.092181 1.44845)
(4.99627 0.014422 1.70549)
(4.66766 -0.477792 1.11022)
(3.85959 -0.0846405 1.83622)
(2.72251 -1.01224 1.00194)
(-0.0884238 -0.253591 -0.995667)
(0.886912 0.401679 -0.202116)
(2.68104 -0.0159104 0.0758193)
(1.47987 -1.33848 -0.330645)
(-0.014763 -0.727748 -0.82279)
(-1.58016 -0.823661 5.66515)
(-0.301227 -0.0862883 -2.17672)
(-1.32862 0.168184 1.58733)
(-1.48416 0.210103 4.86001)
(-1.65134 -0.955667 3.87726)
(-0.0841988 -0.24334 -2.47876)
(9.17992 0.0949108 6.20733)
(8.76527 0.21112 5.80872)
(8.72768 -0.234759 5.89237)
(9.15603 0.0388334 5.96968)
(8.94261 0.00661415 5.91502)
(8.68962 0.182642 5.70184)
(4.88094 0.0982705 7.58726)
(4.54644 0.292702 7.2741)
(4.30633 -0.301149 7.39594)
(4.87238 0.124531 7.09199)
(4.21749 0.0976804 7.21453)
(4.23493 0.223791 7.19126)
(-2.03475 -0.292597 10.9871)
(-1.1374 0.0368982 10.9317)
(-1.59702 0.0375552 10.8281)
(-1.89225 0.1552 10.5788)
(-2.37381 -0.221639 10.9852)
(-1.11845 -0.105395 10.6074)
(-1.60812 0.089469 5.01607)
(0.135463 0.178842 8.76611)
(-0.593959 -0.157293 7.78668)
(-0.889763 0.0475666 5.74386)
(-0.797654 0.22346 6.09945)
(-0.592085 0.197759 8.34291)
(-4.83827 0.0342712 6.95688)
(-4.82101 0.0418088 10.273)
(-4.97023 -0.110944 8.95402)
(-4.71086 0.130006 7.39262)
(-4.88262 0.0639276 7.66566)
(-4.94079 -0.110503 9.63671)
(-5.01928 -0.264774 6.94733)
(-5.99413 -0.116218 8.98297)
(-5.68981 0.101948 7.73905)
(-5.16437 0.109035 7.00375)
(-5.569 -0.191724 7.26985)
(-5.49395 -0.316587 8.33155)
(3.59697 -0.12525 6.6886)
(4.3779 0.0281478 6.78343)
(3.94727 -0.0584186 6.6918)
(3.83441 0.0491573 6.84424)
(4.03815 -0.0796544 6.84452)
(3.95817 0.104035 6.79282)
(1.59008 -0.0608568 5.64045)
(2.08278 -0.00642945 7.283)
(1.85014 -0.0253276 6.57514)
(1.88237 -0.0164382 6.06849)
(2.00964 -0.0358435 5.95481)
(1.83207 -0.0180482 6.98981)
(0.167498 0.00378116 0.363549)
(0.5339 -0.000926289 0.570924)
(0.433343 -0.00241679 0.225938)
(0.314766 -0.047971 0.475528)
(0.354245 0.0510863 0.0218587)
(0.344837 0.0252248 0.708343)
(1.841 0.0242677 -0.200425)
(1.91591 0.077655 -0.322079)
(1.90137 0.0678857 -0.39273)
(2.06058 -0.0230652 -0.33202)
(2.28637 -0.133116 -0.234226)
(2.09549 -0.0991837 -0.181046)
(-0.880777 0.0698589 -2.78553)
(-0.580796 0.570805 -2.78222)
(-0.186026 0.570454 -3.18607)
(-0.194661 0.11532 -3.05623)
(-1.1802 -0.00416475 -3.0674)
(-1.75375 -0.00605345 -3.26239)
(-1.18413 -0.0726654 0.0685238)
(-1.02841 0.0117289 -0.126501)
(-1.47521 0.116642 0.812894)
(-2.37252 0.0889392 1.72114)
(-2.43342 0.15713 1.31582)
(-2.11327 0.165614 1.0129)
(0.449187 0.0120779 -0.27616)
(0.451377 0.00612713 -0.275544)
(0.516516 0.00945981 -0.26715)
(0.535412 0.0154847 -0.296473)
(0.504932 -0.00821765 -0.317285)
(0.480837 -0.00927444 -0.30833)
(0.469192 0.0364232 -1.61398)
(0.722092 0.0943476 -1.57962)
(1.02014 -0.00795743 -1.60866)
(0.878358 -0.273022 -1.81762)
(0.356656 -0.370941 -2.13655)
(-0.0092915 -0.156978 -2.00438)
(0.0554824 -0.0341735 0.674142)
(0.0769876 -0.127507 0.565774)
(-0.0568164 -0.229732 0.566038)
(-0.507734 -0.102396 0.839988)
(-0.447893 0.0442061 1.06127)
(-0.353134 0.0165318 1.19413)
(0.26639 0.00160492 0.0215579)
(0.283457 0.00949029 0.0224841)
(0.281089 0.00867953 0.0191128)
(0.28441 -0.0035826 0.0290911)
(0.284372 -0.00582971 0.029526)
(0.272132 -0.000758335 0.0181871)
(0.648149 0.0164849 -0.656122)
(0.683632 0.0473959 -0.672881)
(0.72728 -0.025063 -0.716733)
(0.681752 -0.152469 -0.745463)
(0.535891 -0.172841 -0.739347)
(0.427249 -0.0722474 -0.687821)
(0.0123216 -0.0202296 0.538534)
(0.0100423 -0.0803329 0.52241)
(-0.00897587 -0.153589 0.562279)
(-0.0660849 -0.0861924 0.651094)
(-0.0689391 0.00804547 0.71304)
(-0.0764786 -0.00212807 0.751272)
(-0.176044 0.000632633 0.0340109)
(-0.16546 0.00296203 0.0338548)
(-0.170641 0.00324173 0.0310307)
(-0.168292 0.0008734 0.0335257)
(-0.174136 -0.000852025 0.0358179)
(-0.172666 -0.000361959 0.0253801)
(0.953898 -0.0364287 -0.508532)
(1.04325 -0.0626992 -0.511446)
(1.10871 -0.0274429 -0.507633)
(1.04238 -0.0267015 -0.491805)
(0.986672 -0.0478152 -0.484)
(0.949525 -0.0241514 -0.505849)
(0.547848 -0.0151378 0.76695)
(0.539595 -0.0294391 0.776676)
(0.511062 -0.0432535 0.804005)
(0.458855 -0.0311936 0.826931)
(0.462866 -0.00261544 0.849594)
(0.443893 -0.000579369 0.85915)
(-0.0495423 -0.012734 -0.143184)
(-0.0174372 0.00225957 -0.146764)
(-0.0343933 0.00888196 -0.150616)
(-0.0291819 -0.00530242 -0.143796)
(-0.0159492 0.000879928 -0.141382)
(-0.028262 0.00052872 -0.159046)
(1.56829 -0.0212591 0.375044)
(1.80294 -0.0395131 0.37172)
(1.92473 0.00292712 0.379535)
(1.75409 -0.0463479 0.463561)
(1.66278 0.00593059 0.504255)
(1.68283 0.00366421 0.310183)
(0.746379 -0.0165792 1.67331)
(0.810449 -0.0337412 1.69697)
(0.810435 -0.0334166 1.73062)
(0.789412 -0.0222343 1.70201)
(0.783875 0.0267031 1.72077)
(0.748565 0.0257481 1.74905)
(-0.345633 -0.041579 -0.0332922)
(-0.269018 -0.0152131 -0.122004)
(-0.358727 0.0129532 -0.12987)
(-0.231807 -0.0287927 0.079302)
(-0.153246 0.00195391 0.180783)
(-0.409682 0.0364724 -0.234754)
(1.6259 -0.0249421 2.68902)
(1.71453 -0.0128827 3.06376)
(1.81678 -0.0184654 2.90596)
(1.76548 -0.13603 2.75252)
(1.73127 0.0555461 2.8112)
(1.6474 0.065126 2.94237)
(1.03502 -0.064952 1.23952)
(1.12619 -0.0514677 1.22191)
(1.14033 0.0247235 1.26329)
(1.1036 -0.0320393 1.16744)
(1.09276 0.0177999 1.11585)
(1.05691 0.0249277 1.37806)
(0.312234 0.174784 -1.27215)
(-0.218346 -0.3241 -2.32473)
(-0.0248231 0.205505 -1.4097)
(-0.129236 0.90321 -2.10424)
(-0.148807 0.646073 -2.63075)
(0.0252861 -0.0443429 -1.11831)
(-0.00106748 0.216532 -1.41169)
(-0.179762 0.00736247 -2.2468)
(0.314209 0.0288791 -0.731668)
(-0.127596 -0.0128331 -1.43751)
(-0.199938 -0.0705503 -2.4374)
(-0.0976192 -0.269229 -2.05992)
(-0.13283 0.104259 -1.79352)
(-0.101768 -0.0341451 -2.00907)
(0.0704922 -0.0646047 -1.25129)
(-0.102741 0.167516 -1.94182)
(-0.115674 0.081803 -2.28283)
(-0.0995401 -0.0157543 -2.06294)
(-0.0280131 0.139933 -2.48863)
(-0.0351034 -0.084135 -3.4389)
(-0.38207 0.081357 -3.51627)
(-0.415717 0.427757 -3.50334)
(-0.236465 0.345494 -3.51335)
(-0.258182 0.0661691 -2.54842)
(0.0248275 0.113907 -2.3866)
(-0.0936643 0.196384 -2.62061)
(-0.249617 0.0119278 -2.27825)
(-0.262926 -0.061576 -2.52232)
(-0.219883 -0.0686418 -2.9731)
(-0.0454625 -0.122645 -2.76147)
(-0.142947 0.0389295 -2.46828)
(-0.154667 0.0396139 -2.57255)
(-0.141806 0.015222 -2.6604)
(-0.131543 0.0783851 -2.70474)
(-0.132862 0.0327872 -2.72125)
(-0.108824 -0.0260847 -2.56605)
(-0.79795 0.143972 -0.942972)
(-0.157732 0.219367 -3.46086)
(-0.340118 0.370656 -3.9663)
(-0.459026 0.513285 -3.66399)
(-0.227986 0.294642 -3.57673)
(-0.765695 0.0485366 -2.28481)
(0.56244 0.366241 -2.14461)
(0.387622 0.375844 -2.91435)
(0.126792 0.0761661 -2.44763)
(-0.00493585 -0.0212568 -2.78648)
(0.141655 -0.0864622 -3.24004)
(0.355768 -0.123495 -2.72176)
(-0.0935067 0.102038 -2.25583)
(-0.196107 0.0392197 -2.4719)
(-0.127874 -0.00917944 -2.59383)
(-0.114987 0.0789303 -2.76751)
(-0.0831364 -0.0257509 -2.78424)
(0.0293836 -0.0544509 -2.65924)
(-1.81474 0.274279 0.987948)
(-1.4464 1.1292 -2.61339)
(-1.12339 1.16748 -3.86274)
(-1.18818 0.478657 -3.37881)
(-1.53525 -0.325499 -2.93162)
(-2.86249 -0.217013 0.274393)
(0.369759 0.500577 -2.1675)
(0.35237 0.624636 -3.51815)
(0.0295901 0.124088 -3.41393)
(0.116057 -0.218329 -3.44843)
(0.387263 -0.392099 -3.7226)
(0.0131997 -0.325365 -2.5784)
(-0.0385697 0.130015 -2.15451)
(-0.131182 0.0815984 -2.47083)
(-0.0835805 -0.0624535 -2.83791)
(-0.0297507 -0.0451827 -3.07155)