/*--------------------------------*- C++ -*----------------------------------*\
| =========                 |                                                 |
| \\      /  F ield         | OpenFOAM: The Open Source CFD Toolbox           |
|  \\    /   O peration     | Version:  v1612+                                |
|   \\  /    A nd           | Web:      www.OpenFOAM.com                      |
|    \\/     M anipulation  |                                                 |
\*---------------------------------------------------------------------------*/
FoamFile
{
    version     2.0;
    format      ascii;
    class       volScalarField;
    location    "2.8";
    object      p;
}
// * * * * * * * * * * * * * * * * * * * * * * * * * * * * * * * * * * * * * //

dimensions      [1 -1 -2 0 0 0 0];

internalField   nonuniform List<scalar> 
320
(
14724.8
14724.8
14724.8
14724.8
4.93966
4.93808
4.93808
4.94004
4.93945
4.93931
4.94039
4.94052
4.93988
4.93927
4.93916
4.94003
4914.85
4914.83
4914.83
4914.85
4914.81
4914.82
4914.81
4914.86
4914.82
4914.83
4914.82
4914.87
14724.8
14724.8
14724.8
14724.8
14724.8
14724.8
14724.8
14724.8
14724.8
14724.8
14724.8
14724.8
24534.8
24534.8
24534.8
24534.8
24534.8
24534.8
24534.8
24534.8
24534.8
24534.8
24534.8
24534.8
24534.8
24534.8
24534.8
24534.8
4.94039
4.9401
4.93954
4.94047
4.94033
4.9389
4.94042
4.93857
4.93807
4.93794
4.93908
4.93979
4.93946
4.93997
4.9402
4.93979
4.94014
4.9408
4.9406
4.93903
4914.83
4914.83
4914.83
4914.84
4914.86
4914.83
4914.81
4914.82
4914.86
4914.86
4914.85
4914.81
4914.81
4914.86
4914.85
4914.8
4914.82
4914.83
4914.87
4914.85
14724.8
14724.8
14724.8
14724.8
14724.8
14724.8
14724.8
14724.8
14724.8
14724.8
14724.8
14724.8
14724.8
14724.8
14724.8
14724.8
14724.8
14724.8
14724.8
14724.8
24534.8
24534.8
24534.8
24534.8
24534.8
24534.8
24534.8
24534.8
24534.8
24534.8
24534.8
24534.8
24534.8
24534.8
24534.8
24534.8
24534.8
24534.8
24534.8
24534.8
34344.8
34344.8
34344.8
34344.8
34344.8
34344.8
34344.8
34344.8
34344.8
34344.8
34344.8
34344.8
34344.8
34344.8
34344.8
34344.8
34344.8
34344.8
34344.8
34344.8
34344.8
34344.8
34344.8
34344.8
34344.8
34344.8
34344.8
34344.8
34344.8
34344.8
34344.8
34344.8
34344.8
34344.8
34344.8
34344.8
4.93897
4.93945
4.93634
4.94204
4.94141
4.93992
4.9377
4.93999
4.93948
4.93954
4.93812
4.93726
4.93739
4.93746
4.93693
4.93836
4.93863
4.93947
4.94126
4.93907
4.93945
4.93899
4.93997
4.94059
4.94084
4.93939
4.93893
4.93854
4914.83
4914.8
4914.76
4914.81
4914.83
4914.8
4914.76
4914.85
4914.8
4914.77
4914.83
4914.88
4914.83
4914.8
4914.84
4914.79
4914.84
4914.8
4914.79
4914.86
4914.88
4914.86
4914.81
4914.78
4914.81
4914.8
4914.85
4914.84
14724.8
14724.8
14724.8
14724.8
14724.8
14724.8
14724.8
14724.8
14724.8
14724.8
14724.8
14724.8
14724.8
14724.8
14724.8
14724.8
14724.8
14724.8
14724.8
14724.8
14724.8
14724.8
14724.8
14724.8
14724.8
14724.8
14724.8
14724.8
24534.8
24534.8
24534.8
24534.8
24534.8
24534.8
24534.8
24534.8
24534.8
24534.8
24534.8
24534.8
24534.8
24534.8
24534.8
24534.8
24534.8
24534.8
24534.8
24534.8
24534.8
24534.8
24534.8
24534.8
24534.8
24534.8
24534.8
24534.8
34344.8
34344.8
34344.8
34344.8
34344.8
34344.8
34344.8
34344.8
34344.8
34344.8
34344.8
34344.8
34344.8
34344.8
34344.8
34344.8
34344.8
34344.8
34344.8
34344.8
34344.8
34344.8
34344.8
34344.8
34344.8
34344.8
34344.8
34344.8
4.93881
4.93844
4.93967
4.93929
4914.83
4914.8
4914.8
4914.79
)
;

boundaryField
{
    top_fluid_surface
    {
        type            calculated;
        value           nonuniform List<scalar> 
64
(
-1.13051e-08
-1.61816e-09
-4.09733e-10
-8.80254e-10
0
-5.17396e-14
0
-1.55539e-09
-1.22613e-09
-7.61126e-10
0
-1.72779e-09
0
-1.18486e-10
-9.09296e-10
-3.13165e-09
-2.16919e-10
0
0
0
0
-1.68423e-08
-8.48782e-10
0
-3.64276e-10
-4.70292e-10
-2.74525e-11
0
0
0
-1.69954e-09
-2.96778e-11
-8.62949e-10
0
-1.21297e-08
0
0
0
-2.38321e-08
-6.95388e-09
0
0
-1.14827e-08
-4.41263e-08
0
0
-6.07153e-09
0
-3.05425e-09
0
0
-4.96273e-09
-3.63557e-08
-1.50952e-09
0
0
0
0
-5.67292e-09
-9.85672e-10
0
0
0
0
)
;
    }
    bottom_fluid_surface
    {
        type            calculated;
        value           nonuniform List<scalar> 
64
(
39249.8
39249.8
39249.8
39249.8
39249.8
39249.8
39249.8
39249.8
39249.8
39249.8
39249.8
39249.8
39249.8
39249.8
39249.8
39249.8
39249.8
39249.8
39249.8
39249.8
39249.8
39249.8
39249.8
39249.8
39249.8
39249.8
39249.8
39249.8
39249.8
39249.8
39249.8
39249.8
39249.8
39249.8
39249.8
39249.8
39249.8
39249.8
39249.8
39249.8
39249.8
39249.8
39249.8
39249.8
39249.8
39249.8
39249.8
39249.8
39249.8
39249.8
39249.8
39249.8
39249.8
39249.8
39249.8
39249.8
39249.8
39249.8
39249.8
39249.8
39249.8
39249.8
39249.8
39249.8
)
;
    }
    lateral_surface_1
    {
        type            calculated;
        value           nonuniform List<scalar> 
40
(
4.93897
4.93945
4.93634
4.94204
4.94141
4.93992
4.9377
4.93854
4914.83
4914.8
4914.76
4914.81
4914.83
4914.8
4914.76
4914.84
14724.8
14724.8
14724.8
14724.8
14724.8
14724.8
14724.8
14724.8
24534.8
24534.8
24534.8
24534.8
24534.8
24534.8
24534.8
24534.8
34344.8
34344.8
34344.8
34344.8
34344.8
34344.8
34344.8
34344.8
)
;
    }
    lateral_surface_2
    {
        type            calculated;
        value           nonuniform List<scalar> 
40
(
4.93746
4.93693
4.93836
4.93863
4.93947
4.94126
4.93907
4.93945
4914.8
4914.84
4914.79
4914.84
4914.8
4914.79
4914.86
4914.88
14724.8
14724.8
14724.8
14724.8
14724.8
14724.8
14724.8
14724.8
24534.8
24534.8
24534.8
24534.8
24534.8
24534.8
24534.8
24534.8
34344.8
34344.8
34344.8
34344.8
34344.8
34344.8
34344.8
34344.8
)
;
    }
    lateral_surface_3
    {
        type            calculated;
        value           nonuniform List<scalar> 
40
(
4.9377
4.93999
4.93948
4.93954
4.93812
4.93726
4.93739
4.93746
4914.76
4914.85
4914.8
4914.77
4914.83
4914.88
4914.83
4914.8
14724.8
14724.8
14724.8
14724.8
14724.8
14724.8
14724.8
14724.8
24534.8
24534.8
24534.8
24534.8
24534.8
24534.8
24534.8
24534.8
34344.8
34344.8
34344.8
34344.8
34344.8
34344.8
34344.8
34344.8
)
;
    }
    lateral_surface_4
    {
        type            calculated;
        value           nonuniform List<scalar> 
40
(
4.93945
4.93899
4.93997
4.94059
4.94084
4.93939
4.93893
4.93854
4914.88
4914.86
4914.81
4914.78
4914.81
4914.8
4914.85
4914.84
14724.8
14724.8
14724.8
14724.8
14724.8
14724.8
14724.8
14724.8
24534.8
24534.8
24534.8
24534.8
24534.8
24534.8
24534.8
24534.8
34344.8
34344.8
34344.8
34344.8
34344.8
34344.8
34344.8
34344.8
)
;
    }
}


// ************************************************************************* //
