/*--------------------------------*- C++ -*----------------------------------*\
| =========                 |                                                 |
| \\      /  F ield         | OpenFOAM: The Open Source CFD Toolbox           |
|  \\    /   O peration     | Version:  v1612+                                |
|   \\  /    A nd           | Web:      www.OpenFOAM.com                      |
|    \\/     M anipulation  |                                                 |
\*---------------------------------------------------------------------------*/
FoamFile
{
    version     2.0;
    format      ascii;
    class       volVectorField;
    location    "2.8";
    object      U;
}
// * * * * * * * * * * * * * * * * * * * * * * * * * * * * * * * * * * * * * //

dimensions      [0 1 -1 0 0 0 0];

internalField   nonuniform List<vector> 
320
(
(-5.13893e-06 -2.89817e-06 -6.47897e-06)
(1.63469e-07 -1.18581e-06 -9.01353e-06)
(-2.69976e-06 3.34778e-06 -5.13284e-06)
(-4.57145e-07 4.88726e-06 -7.84324e-08)
(6.15675e-05 5.55836e-05 -0.000150367)
(0.000131172 4.13213e-05 -5.68887e-05)
(6.69757e-06 -1.34691e-05 -2.86263e-05)
(-0.00010553 6.93876e-05 -4.19584e-05)
(-9.72066e-05 -5.7601e-05 8.87792e-05)
(-0.000119945 -0.000134453 3.21682e-07)
(-5.08618e-05 -0.000176076 3.83887e-05)
(9.20448e-05 -0.000225203 -5.57744e-05)
(-0.000100775 -0.000100564 -4.95203e-05)
(0.000133708 -0.000160705 -3.9016e-05)
(-6.76307e-05 -4.72738e-05 2.90462e-05)
(-5.8451e-05 -9.65124e-05 -5.87842e-05)
(-1.29994e-05 -2.649e-06 1.48419e-05)
(1.30415e-06 3.63638e-06 1.00405e-05)
(1.14992e-05 5.6048e-06 9.23372e-07)
(7.41799e-06 9.14574e-06 -2.16246e-06)
(5.58065e-07 -7.05279e-06 -3.99298e-06)
(-5.79119e-06 -1.52648e-06 8.10122e-06)
(-7.50316e-06 -2.88746e-06 4.92119e-06)
(8.29071e-06 -5.87742e-06 1.04927e-06)
(-7.04682e-07 3.55867e-06 1.65209e-05)
(-3.25589e-06 -3.90954e-06 2.73573e-06)
(-1.42806e-05 -8.368e-06 3.09429e-06)
(-1.02296e-05 -9.08313e-06 -6.08833e-06)
(1.47172e-06 -1.41209e-06 1.08306e-05)
(-3.15832e-06 -8.68071e-08 5.25367e-06)
(-2.96065e-06 1.46566e-06 -4.87094e-07)
(7.55917e-07 -1.96998e-07 -6.82836e-07)
(-3.0947e-06 2.52659e-06 -4.861e-07)
(-5.44658e-06 -3.77971e-07 6.15265e-06)
(-6.57798e-07 8.91183e-07 5.98411e-06)
(-4.75985e-06 3.76004e-06 3.00931e-06)
(-4.42808e-07 7.44392e-07 1.26096e-05)
(-1.27664e-06 4.50842e-06 1.73667e-06)
(-6.75309e-07 2.98576e-06 3.13764e-06)
(3.01928e-06 3.92756e-06 -1.96887e-06)
(-3.59282e-06 -1.54875e-06 -8.97217e-07)
(2.80996e-07 -7.69706e-07 -2.33133e-06)
(-1.95445e-06 2.81376e-06 -5.57304e-07)
(-2.96947e-07 3.02822e-06 -7.97427e-07)
(3.72776e-07 -5.13892e-07 2.21167e-06)
(-2.18166e-06 4.83746e-07 5.28771e-07)
(-1.79287e-06 1.13842e-06 2.01265e-08)
(4.85679e-07 3.35967e-07 -3.56204e-07)
(-1.90108e-06 1.35475e-06 -3.20387e-07)
(-3.27827e-06 -4.75141e-07 1.3136e-06)
(-1.17801e-06 5.5735e-07 6.7196e-07)
(-2.83383e-06 2.17688e-06 8.87856e-07)
(-2.80922e-07 8.01418e-07 3.45938e-06)
(-1.32669e-06 2.26922e-06 4.7195e-07)
(-1.01266e-06 1.55752e-06 6.95465e-07)
(1.16719e-06 2.92216e-06 -1.28823e-06)
(-3.51483e-05 -0.00023246 6.95383e-05)
(-2.15909e-05 -7.96212e-05 -1.53939e-05)
(1.89511e-05 -0.000141774 -4.2645e-05)
(-9.35808e-05 1.61921e-05 -7.9141e-05)
(-4.46711e-05 3.92123e-06 -2.08288e-05)
(8.9596e-05 2.96308e-05 5.25881e-05)
(0.000112408 -1.18938e-05 5.26577e-05)
(-0.00018297 -0.000199633 0.000151381)
(-0.000192579 -0.000337727 0.000186581)
(-5.47995e-05 -0.000121034 -0.000183533)
(-0.000258663 0.000101737 -4.12015e-05)
(2.75574e-05 -0.000123421 0.000125684)
(0.000125823 3.0783e-05 -2.69917e-05)
(5.30465e-05 -7.30237e-05 -3.06689e-05)
(0.000137551 -0.000235998 -7.40979e-06)
(-6.11895e-05 -0.000144202 8.44588e-05)
(7.71966e-05 -2.4203e-05 1.10283e-05)
(7.38804e-05 7.16024e-05 6.88026e-05)
(3.39386e-05 8.88862e-05 -5.83016e-05)
(0.000228371 -4.01355e-06 -7.70426e-06)
(1.48314e-06 1.00727e-06 -1.19891e-05)
(-1.03291e-05 3.59791e-06 3.91496e-06)
(-7.86827e-07 -8.39703e-06 -3.88552e-06)
(1.27293e-06 -8.28392e-06 -7.72154e-06)
(-3.20501e-06 3.09474e-06 -1.33304e-05)
(9.88355e-06 9.78084e-06 -8.08256e-06)
(-2.48189e-06 2.03553e-06 -4.07852e-06)
(-1.42892e-05 -1.12183e-05 -1.87694e-05)
(-6.68835e-06 -1.45368e-05 -1.53086e-05)
(-5.05901e-06 -8.94416e-06 1.43106e-05)
(-1.10908e-05 2.73186e-06 -3.10226e-07)
(6.22184e-06 -9.68788e-06 -7.07112e-06)
(1.89887e-06 -6.41373e-06 1.102e-05)
(-3.51954e-06 4.3442e-06 9.98032e-07)
(5.72138e-06 -5.67182e-06 2.01081e-06)
(-8.23787e-06 -5.61445e-06 2.59387e-06)
(-2.5771e-06 -5.65798e-06 -2.82641e-06)
(-2.79675e-06 1.60563e-06 -1.24794e-05)
(9.03572e-06 1.31143e-05 -4.52992e-06)
(1.78971e-05 1.12489e-05 2.89506e-06)
(-4.62608e-07 7.64775e-07 -6.1555e-06)
(-1.12441e-06 2.58944e-06 2.71064e-06)
(-2.71422e-06 3.17566e-06 -4.38406e-06)
(-5.79758e-07 1.9608e-06 -7.14835e-06)
(4.67179e-06 -2.87304e-06 -1.07119e-05)
(-1.7258e-07 1.24898e-06 -4.56354e-06)
(2.36615e-06 -1.31968e-06 8.65913e-07)
(2.48607e-06 -1.31493e-06 -1.22562e-05)
(-2.04382e-06 4.56949e-06 -1.25042e-05)
(-5.13668e-06 5.08261e-06 8.6686e-06)
(5.83296e-07 -2.14586e-06 7.68043e-07)
(-4.59516e-06 -1.04625e-06 -3.69655e-06)
(-2.55289e-06 1.34154e-06 9.45285e-06)
(1.27078e-06 -8.80488e-07 1.54282e-06)
(1.09771e-06 3.47468e-07 1.34993e-06)
(4.20709e-06 1.21269e-06 3.18535e-06)
(-2.37308e-06 3.11537e-06 -1.67234e-07)
(-3.20342e-06 1.39773e-06 -5.51417e-06)
(-2.25741e-06 -1.1996e-06 -1.4073e-06)
(-4.91259e-06 7.14966e-08 8.41636e-07)
(-9.21316e-07 1.58286e-06 -1.8723e-06)
(-1.15441e-06 2.96024e-06 5.01064e-07)
(-1.37132e-06 2.62793e-06 -1.81424e-06)
(3.67435e-08 1.34821e-06 -1.41622e-06)
(2.8619e-06 -1.12032e-06 -2.53653e-06)
(4.46656e-08 9.32674e-07 -1.78113e-06)
(8.89255e-07 -8.77909e-07 -1.46606e-06)
(1.22502e-06 -7.35737e-07 -3.02248e-06)
(-1.35204e-06 3.00475e-06 -2.90099e-06)
(-3.13105e-06 2.6616e-06 5.46414e-07)
(5.46319e-07 -1.69577e-06 -5.48004e-07)
(-2.94897e-06 -8.63855e-07 -7.86888e-07)
(-2.19852e-06 5.11318e-07 2.08901e-06)
(1.28209e-07 -4.23186e-07 3.4852e-07)
(6.92449e-07 5.56224e-07 4.10988e-07)
(2.22062e-06 7.21975e-07 7.56788e-07)
(-1.04006e-06 2.08203e-06 -1.07159e-07)
(-1.77463e-06 9.45134e-07 -1.19758e-06)
(-6.876e-07 -4.22557e-07 -7.02271e-07)
(-3.0352e-06 1.49316e-06 1.51469e-07)
(-2.16736e-06 -1.77937e-07 -6.46013e-07)
(-2.69677e-07 1.60562e-07 -8.24846e-07)
(-1.35721e-06 1.5669e-06 -3.19093e-07)
(-8.59635e-07 1.60158e-06 -1.3983e-07)
(-2.42222e-07 1.07022e-07 1.07248e-06)
(-1.13946e-06 6.26085e-07 7.72947e-07)
(-7.18803e-07 5.05444e-07 -6.33473e-08)
(-2.83491e-07 1.01893e-07 -5.72751e-08)
(-1.13918e-06 6.24394e-07 1.43879e-07)
(-1.96756e-06 -4.3857e-07 5.39658e-07)
(-1.21218e-06 6.05397e-07 4.42462e-07)
(-2.09084e-06 8.69318e-07 5.84971e-07)
(-5.23288e-07 7.42719e-07 1.23025e-06)
(-7.30649e-07 1.52506e-06 4.32746e-07)
(-9.09877e-07 1.27555e-06 6.10759e-07)
(3.9677e-07 1.70179e-06 9.86415e-08)
(-6.38498e-07 9.58197e-07 -8.0199e-07)
(-1.09166e-06 1.29404e-06 -1.33611e-07)
(-6.68099e-07 1.19359e-06 -7.99959e-07)
(1.52039e-07 6.44554e-07 -7.48448e-07)
(1.19947e-06 -3.78897e-07 -9.03455e-07)
(-8.08032e-08 1.90554e-07 -3.33826e-07)
(2.92898e-07 -2.59811e-07 -1.64806e-07)
(-3.53725e-08 -8.24844e-08 -1.04985e-06)
(-1.03419e-06 8.90845e-07 -9.32748e-07)
(-1.62173e-06 1.05383e-06 9.92728e-07)
(-8.53728e-07 -6.45725e-07 -5.07579e-08)
(-2.16752e-06 7.86199e-08 -3.41417e-07)
(-1.49453e-06 4.43211e-07 8.43273e-07)
(-4.12377e-07 5.2641e-09 4.07776e-07)
(7.79538e-08 4.10299e-07 3.17883e-07)
(5.68781e-07 5.51047e-07 3.20842e-07)
(-7.4745e-07 1.18031e-06 2.0201e-07)
(-1.02771e-06 9.49483e-07 -6.05999e-07)
(-7.0614e-07 3.784e-07 1.04283e-07)
(-1.51133e-06 7.91498e-07 6.67763e-08)
(0.000278326 1.56812e-05 -4.15439e-05)
(1.72268e-05 -0.000127709 0.000178263)
(-2.79059e-05 -3.65918e-05 -0.000155185)
(3.5786e-05 -0.000121116 0.000189081)
(-0.00013962 -5.34092e-05 5.47362e-05)
(6.7345e-05 -7.57523e-05 2.24887e-05)
(-0.000106569 -0.000165307 -0.000217465)
(-0.0001964 3.7635e-05 -0.000117931)
(-7.24451e-05 0.00014406 8.27127e-05)
(-8.24539e-05 -0.000202248 0.000135866)
(-0.000262781 -0.000361353 -0.000151544)
(-0.000245513 -6.63649e-06 -0.000297073)
(6.757e-05 0.000168128 2.41984e-05)
(4.28465e-05 -4.426e-05 2.19676e-05)
(-0.000125865 -1.98402e-05 -0.000110196)
(-0.000117073 2.70087e-05 8.94733e-05)
(2.02834e-05 -0.000160945 -7.81569e-05)
(4.17211e-05 3.41633e-05 6.43072e-05)
(0.000165937 -7.69846e-05 3.18221e-05)
(0.000261248 -7.83422e-05 -9.96266e-05)
(0.00016841 -0.000200401 -0.00026965)
(4.61515e-05 -0.000395447 -5.49458e-05)
(8.8074e-06 -0.000161189 0.000125818)
(2.90976e-05 -2.5635e-05 1.91518e-05)
(7.00231e-06 -9.10185e-05 8.42926e-06)
(-0.000133411 5.77616e-05 6.18546e-05)
(-2.38745e-05 1.35157e-05 -0.000106517)
(-0.000116211 -7.63155e-05 -4.43998e-05)
(1.51809e-05 3.24239e-06 -9.0945e-07)
(-2.57835e-06 3.00296e-06 -6.34764e-06)
(-3.59635e-06 7.30377e-06 1.24966e-06)
(1.31856e-05 -3.72997e-06 -8.57528e-06)
(8.37911e-09 -6.66849e-06 -1.00792e-05)
(-9.10203e-06 -2.4647e-06 6.71259e-06)
(-8.46733e-06 -7.71235e-07 1.20517e-05)
(-6.77375e-06 1.07022e-05 1.34278e-05)
(-8.60366e-07 6.32764e-06 -5.09795e-06)
(-1.0227e-05 -1.50276e-05 6.64812e-06)
(-1.79225e-05 -1.126e-05 2.3287e-05)
(-1.02677e-05 7.70311e-06 7.66654e-06)
(4.31726e-06 5.44947e-06 -2.09064e-05)
(4.12622e-06 -3.63225e-06 -7.1697e-06)
(-3.97118e-06 -3.44076e-06 1.3238e-05)
(-5.04867e-06 -4.7202e-06 -4.18495e-06)
(1.64232e-06 -9.48386e-06 -5.96032e-06)
(-5.74117e-06 -1.40601e-07 5.4914e-06)
(-1.44653e-06 -1.84349e-06 8.71453e-06)
(7.00909e-06 -2.21401e-06 7.64503e-07)
(4.12079e-06 -3.13116e-06 7.85424e-06)
(3.2038e-06 -1.09029e-05 -6.02758e-06)
(-1.10963e-06 -4.74013e-06 -1.04998e-05)
(4.07843e-06 1.53148e-06 9.74911e-06)
(6.08018e-06 3.24532e-06 1.24919e-05)
(5.7177e-06 1.16109e-05 1.17638e-06)
(4.57666e-06 7.15085e-06 1.05001e-05)
(1.62009e-06 2.85419e-07 1.87147e-07)
(-2.27341e-06 8.22872e-07 -2.93206e-06)
(5.01341e-07 -2.53607e-07 -2.02219e-06)
(-9.39073e-07 -1.41047e-07 -3.41962e-06)
(-2.52975e-06 -4.38884e-07 -6.15947e-06)
(3.08798e-06 -3.25664e-07 -6.54258e-06)
(5.17622e-06 -4.10673e-06 6.96123e-06)
(2.96433e-06 -8.30176e-07 8.78335e-06)
(6.24089e-06 -3.388e-06 8.50723e-06)
(2.44954e-06 -8.39952e-07 -1.02241e-06)
(4.1519e-06 2.46131e-06 5.5274e-06)
(6.23035e-06 -1.8835e-06 1.31036e-05)
(3.58361e-06 -8.00026e-06 3.16202e-07)
(-6.33911e-06 -2.9266e-06 -1.80418e-05)
(-4.42544e-06 2.44686e-06 -7.89046e-06)
(-2.82463e-06 5.33159e-07 5.12579e-06)
(6.82591e-07 1.34814e-07 -2.84424e-06)
(-4.14517e-06 4.34096e-07 -6.47878e-06)
(-4.92574e-06 -3.15237e-07 3.97529e-06)
(5.51287e-07 2.80686e-06 8.23373e-06)
(1.75987e-06 4.04289e-07 -1.12672e-07)
(-4.9033e-07 2.1447e-06 2.27187e-06)
(1.25006e-06 1.5668e-06 -5.83377e-06)
(7.28816e-07 -2.72621e-06 -6.39557e-06)
(-2.68901e-06 -2.90205e-06 8.53931e-06)
(-5.28859e-06 3.10138e-06 1.19054e-05)
(-9.85364e-07 2.21826e-06 1.66762e-07)
(-1.87083e-06 7.48885e-07 3.94435e-06)
(-3.08008e-07 2.38571e-06 -2.59322e-06)
(-1.17875e-06 1.23984e-06 -1.69613e-07)
(-2.99891e-07 1.90463e-07 -1.431e-06)
(-6.72284e-07 6.18421e-07 6.14352e-07)
(-5.69631e-07 -2.9166e-07 -1.61863e-06)
(1.95537e-06 -1.83269e-07 -1.32525e-06)
(2.99446e-06 -2.21028e-06 6.45229e-07)
(1.59721e-06 -3.15846e-07 2.54219e-06)
(3.49164e-06 -1.60159e-06 2.06583e-06)
(1.11593e-06 -8.34221e-07 -1.52557e-07)
(1.72475e-06 1.5163e-06 1.50044e-06)
(3.51013e-06 -8.86552e-07 2.06666e-06)
(1.57393e-06 -4.83119e-06 2.16759e-07)
(-4.32582e-06 -2.04189e-06 -4.0609e-06)
(-3.12955e-06 8.37997e-07 -1.80463e-06)
(-1.69817e-06 -3.58253e-07 9.73349e-07)
(2.47194e-07 -5.9489e-07 -2.91005e-07)
(-3.38509e-06 -5.91343e-08 -4.94028e-07)
(-3.2745e-06 -1.58762e-07 1.63235e-06)
(-3.25827e-07 1.01685e-06 2.48589e-06)
(3.8771e-07 2.95272e-07 5.93878e-07)
(-3.60057e-07 1.32159e-06 9.31645e-07)
(6.66258e-07 1.40972e-06 -6.81202e-07)
(4.9344e-07 -9.31097e-07 -2.3262e-07)
(-9.86806e-07 -1.72602e-06 1.97866e-06)
(-3.31459e-06 1.90999e-06 2.53188e-06)
(-2.19561e-08 1.66157e-06 5.78381e-08)
(-1.23048e-06 1.09171e-06 1.35177e-06)
(-4.23403e-07 2.04691e-06 -4.99122e-08)
(-9.63372e-07 5.14356e-07 -6.74151e-07)
(-1.05766e-07 3.78867e-07 -6.99411e-07)
(-4.77613e-07 -1.83739e-08 -7.43884e-07)
(-4.89981e-07 -2.3518e-07 -7.35789e-07)
(8.53682e-07 -1.96491e-07 -7.79137e-07)
(1.27452e-06 -9.36823e-07 3.67798e-07)
(1.03417e-06 -2.71544e-07 9.06648e-07)
(1.69945e-06 -7.10772e-07 9.01552e-07)
(7.02297e-07 -4.01129e-07 1.62598e-08)
(1.10777e-06 1.47321e-07 4.11183e-07)
(1.10943e-06 -7.02697e-07 1.32965e-06)
(4.87557e-07 -2.02493e-06 1.55249e-07)
(-1.80635e-06 -9.22486e-07 -1.55005e-06)
(-1.48875e-06 2.90528e-07 -9.45771e-07)
(-1.31095e-06 -2.70602e-08 6.19522e-07)
(-9.92348e-07 -2.02551e-08 -5.58833e-07)
(-2.30112e-06 1.11557e-07 -5.12966e-07)
(-2.01748e-06 1.13341e-07 5.69937e-07)
(-4.90377e-07 6.34507e-07 7.70023e-07)
(2.07156e-07 1.91339e-07 4.10809e-07)
(-1.88984e-07 5.05303e-07 5.93604e-07)
(1.24981e-07 3.66888e-07 -2.07975e-07)
(-2.32393e-07 -8.26845e-08 -4.24042e-07)
(-5.08749e-07 -7.14353e-08 6.34429e-07)
(-1.48414e-06 1.31686e-06 1.17553e-06)
(-1.41369e-07 1.21817e-06 -3.76902e-08)
(-6.44368e-07 7.00962e-07 6.58822e-07)
(-2.31903e-07 9.26818e-07 -4.29568e-07)
(0.00011543 0.000263452 0.000181226)
(-5.03818e-05 9.14715e-05 0.000113063)
(0.000201265 -5.69542e-05 0.000201639)
(-6.3292e-05 -0.000185264 0.000163463)
(2.39144e-06 8.57969e-06 -4.32885e-06)
(7.46718e-06 1.29775e-05 -1.26717e-05)
(8.34552e-06 7.91754e-06 -9.11247e-06)
(1.87064e-06 1.99102e-06 -4.65672e-06)
)
;

boundaryField
{
    top_fluid_surface
    {
        type            pressureInletOutletVelocity;
        value           nonuniform List<vector> 
64
(
(0 0 -0.000150367)
(0 0 -5.68887e-05)
(0 0 -2.86263e-05)
(0 0 -4.19584e-05)
(-9.72066e-05 -5.7601e-05 8.87792e-05)
(0 0 3.21682e-07)
(-5.08618e-05 -0.000176076 3.83887e-05)
(0 0 -5.57744e-05)
(0 0 -4.95203e-05)
(0 0 -3.9016e-05)
(-6.76307e-05 -4.72738e-05 2.90462e-05)
(0 0 -5.87842e-05)
(-3.51483e-05 -0.00023246 6.95383e-05)
(0 0 -1.53939e-05)
(0 0 -4.2645e-05)
(0 0 -7.9141e-05)
(0 0 -2.08288e-05)
(8.9596e-05 2.96308e-05 5.25881e-05)
(0.000112408 -1.18938e-05 5.26577e-05)
(-0.00018297 -0.000199633 0.000151381)
(-0.000192579 -0.000337727 0.000186581)
(0 0 -0.000183533)
(0 0 -4.12015e-05)
(2.75574e-05 -0.000123421 0.000125684)
(0 0 -2.69917e-05)
(0 0 -3.06689e-05)
(0 0 -7.40979e-06)
(-6.11895e-05 -0.000144202 8.44588e-05)
(7.71966e-05 -2.4203e-05 1.10283e-05)
(7.38804e-05 7.16024e-05 6.88026e-05)
(0 0 -5.83016e-05)
(0 0 -7.70426e-06)
(0 0 -4.15439e-05)
(1.72268e-05 -0.000127709 0.000178263)
(0 0 -0.000155185)
(3.5786e-05 -0.000121116 0.000189081)
(-0.00013962 -5.34092e-05 5.47362e-05)
(6.7345e-05 -7.57523e-05 2.24887e-05)
(0 0 -0.000217465)
(0 0 -0.000117931)
(-7.24451e-05 0.00014406 8.27127e-05)
(-8.24539e-05 -0.000202248 0.000135866)
(0 0 -0.000151544)
(0 0 -0.000297073)
(6.757e-05 0.000168128 2.41984e-05)
(4.28465e-05 -4.426e-05 2.19676e-05)
(0 0 -0.000110196)
(-0.000117073 2.70087e-05 8.94733e-05)
(0 0 -7.81569e-05)
(4.17211e-05 3.41633e-05 6.43072e-05)
(0.000165937 -7.69846e-05 3.18221e-05)
(0 0 -9.96266e-05)
(0 0 -0.00026965)
(0 0 -5.49458e-05)
(8.8074e-06 -0.000161189 0.000125818)
(2.90976e-05 -2.5635e-05 1.91518e-05)
(7.00231e-06 -9.10185e-05 8.42926e-06)
(-0.000133411 5.77616e-05 6.18546e-05)
(0 0 -0.000106517)
(0 0 -4.43998e-05)
(0.00011543 0.000263452 0.000181226)
(-5.03818e-05 9.14715e-05 0.000113063)
(0.000201265 -5.69542e-05 0.000201639)
(-6.3292e-05 -0.000185264 0.000163463)
)
;
    }
    bottom_fluid_surface
    {
        type            noSlip;
    }
    lateral_surface_1
    {
        type            noSlip;
    }
    lateral_surface_2
    {
        type            noSlip;
    }
    lateral_surface_3
    {
        type            noSlip;
    }
    lateral_surface_4
    {
        type            noSlip;
    }
}


// ************************************************************************* //
