/*--------------------------------*- C++ -*----------------------------------*\
| =========                 |                                                 |
| \\      /  F ield         | OpenFOAM: The Open Source CFD Toolbox           |
|  \\    /   O peration     | Version:  v1612+                                |
|   \\  /    A nd           | Web:      www.OpenFOAM.com                      |
|    \\/     M anipulation  |                                                 |
\*---------------------------------------------------------------------------*/
FoamFile
{
    version     2.0;
    format      ascii;
    class       surfaceScalarField;
    location    "6.3";
    object      alphaPhi;
}
// * * * * * * * * * * * * * * * * * * * * * * * * * * * * * * * * * * * * * //

dimensions      [0 3 -1 0 0 0 0];

internalField   nonuniform List<scalar> 
816
(
-2.4277e-06
-9.4197e-06
2.3588e-06
-8.20115e-06
-1.37198e-05
3.14088e-05
3.44585e-06
5.35478e-06
-2.25417e-06
8.36626e-06
-1.73339e-05
-6.85578e-06
4.50483e-07
3.19316e-06
4.88933e-06
-1.10906e-05
-2.13925e-06
7.18798e-06
9.85109e-06
-1.83141e-05
9.62681e-09
-8.56231e-09
2.88336e-06
-2.52935e-09
2.06986e-09
7.33606e-09
-3.79421e-06
-5.68625e-10
5.38353e-11
-2.25112e-09
-2.76324e-06
-1.67572e-09
4.86994e-09
-1.72939e-09
-3.51203e-06
3.11687e-09
-2.89315e-09
-1.95158e-09
-5.01837e-06
4.16114e-09
-2.85254e-09
-1.79756e-10
-2.77807e-06
8.63394e-10
-8.53894e-12
-1.80529e-09
-1.22806e-06
-1.92125e-09
5.07895e-09
-1.10581e-09
3.34718e-12
-1.44995e-09
3.33162e-10
2.86845e-09
2.6943e-06
2.75803e-09
-7.52697e-12
1.99185e-09
-3.12964e-06
-2.11918e-09
5.40314e-09
-4.64984e-09
-8.02384e-06
-2.67263e-09
5.72201e-10
-6.07587e-06
-2.55972e-09
-3.99943e-09
1.6758e-05
2.42657e-06
-2.08042e-05
-1.47701e-06
1.51108e-05
2.20797e-05
-2.58298e-05
2.35026e-06
1.32259e-05
3.00285e-06
-2.97091e-06
-2.78393e-06
2.07188e-05
-3.404e-06
1.02588e-05
-6.56985e-06
-2.242e-06
-3.11874e-06
-7.44314e-06
-5.14212e-07
-2.96802e-06
4.60144e-06
-2.55016e-05
4.34539e-06
1.03893e-05
6.78249e-06
-2.16497e-05
-2.6321e-06
2.09373e-05
5.24382e-06
7.28723e-06
-1.61343e-05
3.58596e-06
9.66703e-06
-3.06496e-05
1.23074e-05
2.76293e-05
2.12076e-05
-2.99405e-05
2.69541e-06
1.25748e-05
-3.82768e-06
2.56552e-05
3.72582e-06
-1.18008e-05
-1.37349e-05
4.22661e-06
7.63814e-06
-5.4395e-06
-7.27345e-07
-1.10211e-05
-1.25392e-06
-1.07554e-05
-1.11233e-05
-4.0304e-06
1.56927e-06
-1.22467e-06
-1.93347e-06
-1.21356e-05
2.64439e-06
3.45715e-06
3.46589e-06
-2.74508e-06
-4.06384e-06
-1.29885e-07
-1.53766e-06
-1.22265e-05
-3.34861e-06
-1.11393e-05
-3.25666e-06
-9.65793e-06
-3.09655e-06
-5.85633e-06
4.30776e-06
6.02796e-06
-1.91717e-06
-1.50645e-05
-6.62424e-06
-1.29097e-05
-1.03433e-05
-1.37382e-05
-4.58088e-06
-9.10458e-07
1.14031e-05
-3.37629e-06
-7.16354e-06
-5.01059e-06
-3.18933e-06
-1.74131e-06
-5.81283e-06
2.13314e-06
-4.11254e-06
-4.18158e-06
1.34997e-06
3.86912e-06
-1.44706e-06
2.85056e-06
-4.0475e-06
2.25769e-07
2.14777e-06
7.47795e-07
-7.39797e-07
4.19037e-06
3.70245e-06
-3.53417e-06
-6.86892e-07
-9.34236e-07
-3.7181e-06
-6.63708e-06
-2.19607e-06
-1.95041e-06
1.05808e-06
-1.34336e-06
-7.21371e-06
-3.6085e-07
2.24974e-06
1.5537e-06
-7.38929e-07
-1.22652e-06
1.94838e-07
-1.52288e-06
-1.59172e-06
-1.8285e-06
-6.36993e-06
-3.66384e-06
-2.20013e-06
-1.4119e-06
-3.44938e-06
-2.38637e-06
4.33719e-06
3.82535e-07
-7.27494e-07
-4.84476e-06
-7.42587e-06
-4.44114e-06
-5.79696e-06
-2.48358e-06
-4.01563e-06
-1.74422e-07
-1.82666e-06
3.508e-06
-2.95833e-06
-2.63739e-06
-2.3958e-06
3.34695e-09
-2.79023e-09
3.00543e-06
-9.94758e-10
8.62916e-09
2.42604e-08
4.59378e-10
5.24979e-09
4.60201e-07
-2.16107e-10
4.94969e-09
-2.41777e-06
-2.07782e-09
1.23715e-09
7.95925e-07
-4.56957e-09
-2.25472e-09
-1.77681e-09
1.81037e-11
-3.52857e-09
-4.47657e-09
-3.78513e-06
-4.83652e-09
-1.05631e-08
-4.61945e-06
-3.63462e-09
-5.79156e-09
-2.40459e-06
-7.66873e-10
2.75644e-09
4.02045e-06
-5.83798e-09
-3.44001e-09
-7.44756e-11
6.82056e-07
-1.97977e-09
-4.55174e-09
9.82565e-11
-7.44528e-09
-1.92692e-09
-4.35079e-06
-1.22838e-09
-3.77668e-09
1.21877e-11
-1.92951e-09
2.00974e-09
7.68439e-07
-4.738e-09
-5.32066e-09
6.40274e-10
-4.61422e-06
-1.51025e-09
-3.69426e-09
-1.29186e-06
-3.66739e-09
-3.77012e-09
-1.7143e-05
-2.30397e-09
-3.10888e-09
-9.40817e-06
-4.04576e-09
-2.90731e-06
-3.9446e-09
-3.75782e-09
-1.32397e-05
3.25016e-06
1.74656e-05
7.11472e-06
4.9706e-06
-1.41631e-05
2.11561e-07
6.40454e-06
-1.35064e-05
1.28597e-05
-1.1182e-06
7.42497e-08
4.20011e-06
1.51039e-05
3.55526e-05
-2.18426e-05
-2.72249e-05
1.60469e-06
4.44917e-05
-8.90134e-06
-9.96758e-06
3.14442e-05
-3.02316e-05
-3.53321e-05
5.52385e-05
-3.65455e-05
-2.52551e-05
-3.75671e-06
-4.99634e-06
1.63524e-05
-1.1696e-05
-1.0493e-06
-1.35392e-05
7.24801e-07
3.43606e-05
-4.96692e-06
-1.69027e-05
4.1869e-05
-2.54211e-05
3.16126e-06
-3.99207e-05
-7.58811e-06
6.80014e-07
2.99405e-05
-1.27126e-05
2.24982e-05
2.10131e-05
-2.72934e-05
-1.2563e-05
3.92038e-06
2.84606e-05
1.13442e-05
-1.18408e-05
3.71545e-05
-1.96884e-05
-1.15641e-05
4.91668e-06
-1.46389e-05
-5.30018e-06
-2.02463e-06
-5.66476e-06
3.03197e-05
-1.60403e-05
-1.92605e-05
7.16775e-06
1.54774e-06
8.25062e-06
-4.48332e-06
-8.63554e-07
-7.55933e-06
1.93094e-07
-3.82295e-06
-5.16213e-06
-9.38445e-06
-1.41712e-06
4.05739e-07
-4.65912e-06
-6.85345e-06
1.7016e-05
1.20979e-05
1.18854e-05
1.39664e-06
2.05296e-05
3.5663e-06
5.25788e-06
1.4518e-05
1.65202e-05
1.50957e-05
2.51567e-05
2.01115e-05
8.42284e-06
-2.29379e-06
1.86174e-06
-7.35844e-06
-5.12686e-06
3.01281e-06
6.20007e-06
2.04653e-06
1.53064e-05
-1.48952e-06
1.21109e-05
1.89906e-05
9.72166e-06
-4.0686e-06
-1.77691e-05
8.59505e-08
-3.52397e-06
1.39529e-05
8.82793e-06
-9.31366e-06
9.64738e-06
1.31823e-05
3.97777e-06
6.42361e-07
1.27002e-05
-7.09062e-06
9.29903e-06
1.65916e-05
7.32887e-06
5.16774e-06
2.92086e-06
2.75384e-06
1.6871e-06
-1.04401e-06
-6.81549e-07
1.31376e-05
7.40004e-06
1.30329e-05
4.22799e-06
8.97612e-07
2.91624e-06
-2.7288e-06
-9.3589e-07
-2.39718e-06
-8.94511e-07
-2.95496e-06
2.6903e-07
-5.59358e-06
-9.10708e-07
-2.59077e-07
-2.70556e-06
-3.48739e-06
5.11017e-06
7.12396e-06
7.36396e-06
5.4767e-07
7.38549e-06
1.91005e-06
3.15675e-06
4.63793e-06
8.82213e-06
9.0373e-06
8.01838e-06
1.14517e-05
5.0149e-06
-8.30479e-07
7.39038e-07
-4.63027e-06
-1.12337e-07
1.52505e-06
3.10522e-06
8.62871e-07
4.51574e-06
-1.07089e-06
6.66683e-06
6.22035e-06
5.55654e-06
-2.73729e-06
-4.4384e-06
4.28802e-07
-1.93749e-06
4.22181e-06
4.10225e-06
-4.76201e-06
2.89157e-06
6.98247e-06
2.60849e-06
2.52171e-07
4.64228e-06
-4.36301e-06
5.11633e-06
4.98713e-06
4.26316e-06
3.21226e-06
1.60661e-06
1.42526e-06
1.22041e-06
-3.54315e-07
-1.32624e-06
3.20854e-06
4.6655e-06
7.39042e-06
-2.47511e-07
-2.72693e-06
1.17164e-06
-2.37471e-06
1.56347e-06
5.11957e-07
5.35464e-07
-2.8226e-06
-3.61483e-07
1.21881e-06
-5.98632e-07
3.05224e-06
-2.95993e-06
4.08384e-07
1.2486e-08
-2.89059e-06
-1.49857e-06
6.67924e-07
-3.67284e-07
-3.54255e-06
1.24044e-08
4.5838e-07
-1.22498e-06
-8.82075e-07
-8.47427e-07
-6.77634e-07
-3.35806e-06
-9.74964e-07
-2.54427e-07
-1.8859e-06
9.48514e-07
-1.06857e-06
-1.40485e-06
-3.8429e-06
-2.98041e-06
-8.69974e-07
-4.28012e-07
-1.41374e-06
-1.95283e-06
-4.53779e-07
1.48869e-06
8.05328e-07
-1.3242e-06
-9.72985e-07
9.17488e-08
-3.21653e-07
-1.86631e-06
-1.76421e-07
-7.55787e-07
-1.34817e-06
2.61176e-06
3.67705e-06
9.54728e-07
1.54665e-06
1.85726e-06
4.19394e-06
4.44454e-06
4.54893e-06
1.87864e-06
1.06238e-06
-1.236e-06
9.58997e-07
2.04728e-06
5.73656e-07
-6.50803e-07
3.39866e-06
3.15724e-06
-4.49798e-07
3.75071e-07
-4.79252e-07
2.86603e-06
-2.16834e-06
3.33024e-06
1.25984e-06
2.30451e-07
-1.58899e-06
2.44252e-06
1.9063e-06
2.27988e-06
3.62172e-07
1.21199e-06
2.68028e-07
2.19499e-06
3.04242e-06
6.77665e-09
-6.40076e-09
1.49655e-06
8.34243e-09
8.85408e-07
7.89785e-09
-1.78742e-06
3.69308e-09
1.74321e-11
3.29054e-09
5.90424e-07
-7.93017e-10
-2.45033e-06
1.41271e-09
3.05017e-06
-8.78518e-11
1.88423e-06
-3.0375e-09
6.80796e-07
-2.56383e-09
-8.59143e-06
-4.30382e-09
-4.4546e-06
-4.88453e-09
1.04954e-06
-7.20364e-10
-2.53582e-06
8.80766e-10
5.84078e-07
-7.44441e-10
8.43556e-07
-1.63448e-09
2.66024e-06
-3.22012e-10
1.88711e-06
-1.09053e-09
4.6195e-07
-3.9974e-09
-9.68312e-06
-4.88598e-09
1.26434e-06
4.82747e-09
2.16126e-06
1.70269e-09
1.60163e-06
2.16022e-09
-8.39754e-07
-1.19272e-09
-3.5993e-07
-4.98673e-09
3.26722e-10
-3.86035e-09
3.99903e-06
-4.9806e-09
-4.11648e-06
-1.7347e-05
5.74357e-06
-5.71097e-06
-9.9006e-06
3.89648e-06
1.936e-05
1.63273e-05
-1.13695e-05
3.74022e-07
3.2797e-05
-1.93732e-05
2.50228e-05
-3.12789e-05
-1.60757e-05
2.06285e-05
-3.87667e-05
1.79588e-05
-1.67324e-05
-1.04126e-05
2.3662e-05
-9.67421e-06
-4.23019e-05
9.2907e-06
-6.16218e-05
1.67886e-05
-8.39827e-06
7.49619e-06
4.92313e-06
-1.28703e-05
2.0688e-05
-4.21972e-06
-1.87947e-05
-3.60179e-06
6.70529e-06
-1.64134e-06
-1.62619e-05
1.09823e-06
-6.82004e-06
-8.63511e-06
-1.61257e-05
-1.25255e-05
-1.86993e-05
3.12613e-05
-3.55664e-05
1.45764e-05
1.06156e-05
-9.54857e-06
3.4876e-05
-3.54324e-06
-2.44103e-05
-3.44454e-06
1.36919e-06
-3.63467e-06
1.03885e-05
8.75361e-07
-2.86098e-05
-2.85981e-05
-7.17156e-06
1.02952e-05
-5.61824e-06
-1.4148e-06
9.13925e-06
-8.04219e-06
-4.53833e-06
5.41768e-07
1.48342e-05
1.01106e-05
1.0805e-05
1.27916e-05
-6.64023e-06
-8.74462e-06
-1.72282e-05
-4.86663e-06
-8.72061e-06
1.25482e-05
9.81878e-06
4.38913e-06
-1.76262e-05
-9.84766e-06
-2.72765e-05
-1.17734e-05
-4.6098e-06
-5.86922e-06
2.03221e-06
5.3256e-06
9.48811e-06
1.0686e-06
-8.32644e-06
2.85052e-06
3.44311e-06
4.36501e-06
-8.06357e-06
1.61978e-06
-3.98237e-06
1.18873e-06
-6.86004e-06
3.22294e-06
-7.54237e-06
-1.58741e-05
-1.64644e-05
-6.08121e-06
4.81964e-06
6.47478e-06
1.52348e-05
4.11711e-07
-1.10206e-05
3.14081e-06
1.42256e-06
7.96419e-06
4.89701e-06
5.19769e-06
-1.28047e-05
-1.3097e-05
-4.51188e-06
5.51165e-06
-1.94623e-06
-1.35618e-06
3.30371e-06
-4.6495e-06
-2.11781e-06
6.53028e-08
4.54782e-06
5.88916e-06
2.26841e-06
7.15301e-06
-7.68134e-07
-4.9875e-06
-5.08089e-06
-3.16849e-06
-3.16388e-06
6.34704e-06
2.22034e-06
3.44234e-06
-5.89784e-06
-5.14603e-06
-7.23576e-06
-6.55038e-06
-2.46335e-06
-3.80718e-06
8.26805e-07
3.31108e-06
2.36113e-06
6.23038e-07
-2.53853e-06
1.8508e-06
1.16297e-06
1.97132e-06
-2.62058e-06
1.38239e-07
-1.7069e-06
6.40813e-07
-3.24495e-06
2.38536e-06
-2.29183e-06
-9.01455e-06
-5.0636e-06
-2.96593e-06
1.39449e-06
3.84936e-06
4.06655e-06
5.9904e-08
-2.95966e-06
1.70884e-06
1.20412e-06
4.97498e-06
3.13959e-07
3.13504e-06
-3.5691e-06
-4.4476e-06
-2.64454e-06
2.89557e-06
-6.53239e-07
-2.67153e-06
2.06035e-08
1.5375e-06
3.3931e-06
-1.684e-06
-1.16949e-06
2.59799e-06
8.93723e-07
-1.79672e-06
-3.20532e-06
-1.41116e-06
9.55849e-07
4.6167e-07
9.84707e-07
1.5279e-06
2.02104e-07
-1.67206e-07
8.91416e-07
-4.16879e-06
-1.50971e-06
9.6995e-07
-8.11327e-08
1.48519e-06
2.06832e-06
1.5478e-06
2.76468e-09
2.00805e-09
-4.95123e-06
-1.65029e-09
-7.91713e-06
7.17826e-09
-9.39199e-06
-5.65771e-06
8.57547e-06
2.05119e-05
-7.66489e-06
1.37556e-05
)
;

boundaryField
{
    top_fluid_surface
    {
        type            calculated;
        value           nonuniform List<scalar> 
64
(
0
2.13973e-09
5.50827e-09
0
0
0
0
3.29476e-10
0
0
6.88784e-09
0
0
0
1.71027e-09
5.90368e-10
7.81448e-09
9.35198e-09
8.42786e-09
8.85949e-09
0
0
4.41952e-09
6.96429e-09
0
4.82519e-09
3.02917e-09
2.98096e-09
4.99536e-09
2.73793e-11
0
1.7401e-09
0
0
9.92492e-10
3.40768e-09
0
0
0
0
0
0
0
0
0
0
0
0
0
0
1.16015e-09
0
0
0
0
0
9.19664e-10
0
0
0
0
1.82665e-09
3.69446e-10
5.65214e-09
)
;
    }
    bottom_fluid_surface
    {
        type            calculated;
        value           uniform 0;
    }
    lateral_surface_1
    {
        type            calculated;
        value           uniform 0;
    }
    lateral_surface_2
    {
        type            calculated;
        value           uniform 0;
    }
    lateral_surface_3
    {
        type            calculated;
        value           uniform 0;
    }
    lateral_surface_4
    {
        type            calculated;
        value           uniform 0;
    }
}


// ************************************************************************* //
