/*--------------------------------*- C++ -*----------------------------------*\
| =========                 |                                                 |
| \\      /  F ield         | OpenFOAM: The Open Source CFD Toolbox           |
|  \\    /   O peration     | Version:  v1612+                                |
|   \\  /    A nd           | Web:      www.OpenFOAM.com                      |
|    \\/     M anipulation  |                                                 |
\*---------------------------------------------------------------------------*/
FoamFile
{
    version     2.0;
    format      ascii;
    class       volScalarField;
    location    "6.3";
    object      p;
}
// * * * * * * * * * * * * * * * * * * * * * * * * * * * * * * * * * * * * * //

dimensions      [1 -1 -2 0 0 0 0];

internalField   nonuniform List<scalar> 
320
(
14724.8
14724.8
14724.8
14724.8
4.9792
4.97901
4.97881
4.97983
4.97991
4.97968
4.97954
4.9799
4.97988
4.98
4.9803
4.97997
4914.89
4914.85
4914.82
4914.89
4914.88
4914.88
4914.86
4914.82
4914.9
4914.89
4914.85
4914.9
14724.8
14724.8
14724.8
14724.8
14724.8
14724.8
14724.8
14724.8
14724.8
14724.8
14724.8
14724.8
24534.8
24534.8
24534.8
24534.8
24534.8
24534.8
24534.8
24534.8
24534.8
24534.8
24534.8
24534.8
24534.8
24534.8
24534.8
24534.8
4.97925
4.97963
4.97862
4.97839
4.97743
4.97844
4.97885
4.97952
4.97902
4.97858
4.97876
4.979
4.9795
4.97989
4.97877
4.98037
4.97989
4.98053
4.98163
4.97953
4914.89
4914.9
4914.86
4914.82
4914.82
4914.82
4914.83
4914.84
4914.88
4914.89
4914.87
4914.85
4914.88
4914.85
4914.87
4914.88
4914.86
4914.85
4914.9
4914.88
14724.8
14724.8
14724.8
14724.8
14724.8
14724.8
14724.8
14724.8
14724.8
14724.8
14724.8
14724.8
14724.8
14724.8
14724.8
14724.8
14724.8
14724.8
14724.8
14724.8
24534.8
24534.8
24534.8
24534.8
24534.8
24534.8
24534.8
24534.8
24534.8
24534.8
24534.8
24534.8
24534.8
24534.8
24534.8
24534.8
24534.8
24534.8
24534.8
24534.8
34344.8
34344.8
34344.8
34344.8
34344.8
34344.8
34344.8
34344.8
34344.8
34344.8
34344.8
34344.8
34344.8
34344.8
34344.8
34344.8
34344.8
34344.8
34344.8
34344.8
34344.8
34344.8
34344.8
34344.8
34344.8
34344.8
34344.8
34344.8
34344.8
34344.8
34344.8
34344.8
34344.8
34344.8
34344.8
34344.8
4.98054
4.97996
4.98237
4.97821
4.9787
4.97796
4.97755
4.97709
4.97849
4.97937
4.97955
4.97882
4.97925
4.979
4.97834
4.97827
4.97874
4.97968
4.97943
4.97856
4.97867
4.9787
4.9806
4.97977
4.98005
4.97919
4.98128
4.98262
4914.9
4914.88
4914.84
4914.86
4914.9
4914.88
4914.84
4914.86
4914.9
4914.87
4914.87
4914.88
4914.91
4914.89
4914.89
4914.89
4914.9
4914.88
4914.84
4914.87
4914.9
4914.9
4914.93
4914.89
4914.84
4914.88
4914.88
4914.9
14724.8
14724.8
14724.8
14724.8
14724.8
14724.8
14724.8
14724.8
14724.8
14724.8
14724.8
14724.8
14724.8
14724.8
14724.8
14724.8
14724.8
14724.8
14724.8
14724.8
14724.8
14724.8
14724.8
14724.8
14724.8
14724.8
14724.8
14724.8
24534.8
24534.8
24534.8
24534.8
24534.8
24534.8
24534.8
24534.8
24534.8
24534.8
24534.8
24534.8
24534.8
24534.8
24534.8
24534.8
24534.8
24534.8
24534.8
24534.8
24534.8
24534.8
24534.8
24534.8
24534.8
24534.8
24534.8
24534.8
34344.8
34344.8
34344.8
34344.8
34344.8
34344.8
34344.8
34344.8
34344.8
34344.8
34344.8
34344.8
34344.8
34344.8
34344.8
34344.8
34344.8
34344.8
34344.8
34344.8
34344.8
34344.8
34344.8
34344.8
34344.8
34344.8
34344.8
34344.8
4.98009
4.98004
4.9804
4.97993
4914.87
4914.85
4914.85
4914.82
)
;

boundaryField
{
    top_fluid_surface
    {
        type            calculated;
        value           nonuniform List<scalar> 
64
(
-4.68517e-09
0
0
-4.33898e-11
-6.73726e-11
-5.11505e-09
-9.07001e-10
0
-2.82843e-08
-3.44285e-09
0
-1.77831e-08
-1.8291e-09
-3.00519e-08
0
0
0
0
0
0
-3.44466e-09
-1.20001e-09
0
0
-2.82945e-09
0
0
0
0
-2.21146e-11
-1.1214e-09
0
-1.50698e-08
-3.12532e-09
-6.49587e-10
0
-5.79527e-10
-2.66169e-10
-7.14683e-09
-9.89963e-10
-2.07043e-10
-1.4314e-08
-3.59169e-09
-9.13729e-10
-3.60603e-08
-8.88332e-10
-2.93741e-09
-1.5485e-09
-3.89232e-08
-6.35106e-10
0
-1.16486e-08
-4.88373e-08
-3.74949e-09
-9.15755e-10
-4.97696e-10
0
-1.29393e-08
-6.9776e-09
-4.1862e-08
-2.7591e-09
0
0
0
)
;
    }
    bottom_fluid_surface
    {
        type            calculated;
        value           nonuniform List<scalar> 
64
(
39249.8
39249.8
39249.8
39249.8
39249.8
39249.8
39249.8
39249.8
39249.8
39249.8
39249.8
39249.8
39249.8
39249.8
39249.8
39249.8
39249.8
39249.8
39249.8
39249.8
39249.8
39249.8
39249.8
39249.8
39249.8
39249.8
39249.8
39249.8
39249.8
39249.8
39249.8
39249.8
39249.8
39249.8
39249.8
39249.8
39249.8
39249.8
39249.8
39249.8
39249.8
39249.8
39249.8
39249.8
39249.8
39249.8
39249.8
39249.8
39249.8
39249.8
39249.8
39249.8
39249.8
39249.8
39249.8
39249.8
39249.8
39249.8
39249.8
39249.8
39249.8
39249.8
39249.8
39249.8
)
;
    }
    lateral_surface_1
    {
        type            calculated;
        value           nonuniform List<scalar> 
40
(
4.98054
4.97996
4.98237
4.97821
4.9787
4.97796
4.97755
4.98262
4914.9
4914.88
4914.84
4914.86
4914.9
4914.88
4914.84
4914.9
14724.8
14724.8
14724.8
14724.8
14724.8
14724.8
14724.8
14724.8
24534.8
24534.8
24534.8
24534.8
24534.8
24534.8
24534.8
24534.8
34344.8
34344.8
34344.8
34344.8
34344.8
34344.8
34344.8
34344.8
)
;
    }
    lateral_surface_2
    {
        type            calculated;
        value           nonuniform List<scalar> 
40
(
4.979
4.97834
4.97827
4.97874
4.97968
4.97943
4.97856
4.97867
4914.89
4914.89
4914.89
4914.9
4914.88
4914.84
4914.87
4914.9
14724.8
14724.8
14724.8
14724.8
14724.8
14724.8
14724.8
14724.8
24534.8
24534.8
24534.8
24534.8
24534.8
24534.8
24534.8
24534.8
34344.8
34344.8
34344.8
34344.8
34344.8
34344.8
34344.8
34344.8
)
;
    }
    lateral_surface_3
    {
        type            calculated;
        value           nonuniform List<scalar> 
40
(
4.97755
4.97709
4.97849
4.97937
4.97955
4.97882
4.97925
4.979
4914.84
4914.86
4914.9
4914.87
4914.87
4914.88
4914.91
4914.89
14724.8
14724.8
14724.8
14724.8
14724.8
14724.8
14724.8
14724.8
24534.8
24534.8
24534.8
24534.8
24534.8
24534.8
24534.8
24534.8
34344.8
34344.8
34344.8
34344.8
34344.8
34344.8
34344.8
34344.8
)
;
    }
    lateral_surface_4
    {
        type            calculated;
        value           nonuniform List<scalar> 
40
(
4.97867
4.9787
4.9806
4.97977
4.98005
4.97919
4.98128
4.98262
4914.9
4914.9
4914.93
4914.89
4914.84
4914.88
4914.88
4914.9
14724.8
14724.8
14724.8
14724.8
14724.8
14724.8
14724.8
14724.8
24534.8
24534.8
24534.8
24534.8
24534.8
24534.8
24534.8
24534.8
34344.8
34344.8
34344.8
34344.8
34344.8
34344.8
34344.8
34344.8
)
;
    }
}


// ************************************************************************* //
