/*--------------------------------*- C++ -*----------------------------------*\
| =========                 |                                                 |
| \\      /  F ield         | OpenFOAM: The Open Source CFD Toolbox           |
|  \\    /   O peration     | Version:  v1612+                                |
|   \\  /    A nd           | Web:      www.OpenFOAM.com                      |
|    \\/     M anipulation  |                                                 |
\*---------------------------------------------------------------------------*/
FoamFile
{
    version     2.0;
    format      ascii;
    class       volScalarField;
    location    "6.3";
    object      p_rgh;
}
// * * * * * * * * * * * * * * * * * * * * * * * * * * * * * * * * * * * * * //

dimensions      [1 -1 -2 0 0 0 0];

internalField   nonuniform List<scalar> 
320
(
-9800.22
-9800.2
-9800.21
-9800.2
-0.00200075
0.00411649
0.0107871
-0.00158095
-0.00113597
-0.00363692
-0.000934202
-0.000221851
-0.00824848
-0.00296415
0.0117323
-0.00894621
-9799.88
-9799.96
-9799.96
-9799.89
-9799.87
-9799.84
-9799.83
-9799.85
-9799.84
-9799.88
-9800.03
-9799.84
-9800.21
-9800.21
-9800.21
-9800.2
-9800.2
-9800.21
-9800.21
-9800.22
-9800.2
-9800.2
-9800.19
-9800.2
-9800.21
-9800.21
-9800.21
-9800.21
-9800.2
-9800.21
-9800.21
-9800.21
-9800.21
-9800.21
-9800.21
-9800.21
-9800.2
-9800.2
-9800.2
-9800.2
-0.00304725
-0.0104611
0.00301165
0.00127886
0.0164315
0.0204835
0.0172397
0.017225
-0.00425179
0.000340949
0.00789416
0.0127674
-0.00214827
0.00967653
0.00518581
0.00355516
0.00786126
-0.00171557
-0.00368534
0.000337188
-9799.88
-9799.83
-9799.97
-9799.88
-9800.03
-9800.05
-9800.04
-9800.06
-9799.86
-9799.91
-9800.04
-9800.04
-9799.85
-9800
-9800.01
-9800.02
-9800.03
-9799.92
-9799.89
-9800
-9800.2
-9800.21
-9800.2
-9800.22
-9800.21
-9800.21
-9800.21
-9800.2
-9800.2
-9800.19
-9800.2
-9800.19
-9800.21
-9800.2
-9800.19
-9800.18
-9800.19
-9800.2
-9800.19
-9800.19
-9800.2
-9800.21
-9800.21
-9800.22
-9800.21
-9800.21
-9800.21
-9800.2
-9800.21
-9800.2
-9800.2
-9800.2
-9800.21
-9800.2
-9800.2
-9800.19
-9800.2
-9800.2
-9800.2
-9800.2
-9800.21
-9800.21
-9800.21
-9800.2
-9800.21
-9800.2
-9800.21
-9800.21
-9800.21
-9800.21
-9800.21
-9800.21
-9800.2
-9800.2
-9800.2
-9800.2
-9800.2
-9800.21
-9800.2
-9800.21
-9800.21
-9800.21
-9800.21
-9800.2
-9800.2
-9800.2
-9800.2
-9800.2
-9800.21
-9800.2
-9800.2
-9800.2
-9800.2
-9800.2
-9800.2
-9800.2
-0.00740301
-0.00360492
-0.00141214
0.00478605
-0.00301127
-0.000920399
-0.00134061
-4.87775e-05
-0.00213885
-0.00730044
-0.00143271
-0.000972697
-0.0143476
-0.00320655
-0.00204725
-0.00155453
-0.0113015
-0.000209029
0.00146447
-0.00586411
-0.0122804
-0.00415339
-0.00429934
8.25233e-05
0.0014187
-0.00798669
-0.00513731
-0.0160179
-9799.86
-9799.86
-9799.88
-9800
-9799.9
-9799.9
-9799.8
-9799.86
-9799.92
-9799.81
-9799.84
-9799.88
-9799.81
-9799.88
-9799.88
-9799.9
-9799.83
-9799.87
-9799.91
-9799.81
-9799.82
-9799.9
-9799.95
-9799.9
-9799.93
-9799.83
-9799.83
-9799.77
-9800.2
-9800.21
-9800.22
-9800.2
-9800.2
-9800.21
-9800.23
-9800.22
-9800.2
-9800.21
-9800.21
-9800.2
-9800.2
-9800.2
-9800.2
-9800.2
-9800.2
-9800.21
-9800.21
-9800.21
-9800.2
-9800.19
-9800.17
-9800.19
-9800.2
-9800.21
-9800.2
-9800.2
-9800.2
-9800.21
-9800.21
-9800.21
-9800.21
-9800.21
-9800.22
-9800.21
-9800.21
-9800.21
-9800.21
-9800.2
-9800.2
-9800.2
-9800.2
-9800.2
-9800.2
-9800.21
-9800.21
-9800.2
-9800.2
-9800.19
-9800.19
-9800.2
-9800.2
-9800.2
-9800.2
-9800.2
-9800.2
-9800.2
-9800.21
-9800.21
-9800.21
-9800.21
-9800.22
-9800.21
-9800.21
-9800.21
-9800.21
-9800.2
-9800.2
-9800.2
-9800.2
-9800.2
-9800.2
-9800.21
-9800.21
-9800.2
-9800.2
-9800.2
-9800.19
-9800.2
-9800.2
-9800.2
-9800.2
-9800.2
-0.00249858
0.00163761
-0.000341032
0.0103115
-9799.83
-9799.94
-9799.93
-9799.96
)
;

boundaryField
{
    top_fluid_surface
    {
        type            totalPressure;
        rho             rho;
        psi             none;
        gamma           1;
        p0              uniform 0;
        value           nonuniform List<scalar> 
64
(
-4.68517e-09
0
0
-4.33898e-11
-6.73726e-11
-5.11505e-09
-9.07001e-10
0
-2.82843e-08
-3.44285e-09
0
-1.77831e-08
-1.8291e-09
-3.00519e-08
0
0
0
0
0
0
-3.44466e-09
-1.20001e-09
0
0
-2.82945e-09
0
0
0
0
-2.21146e-11
-1.1214e-09
0
-1.50698e-08
-3.12532e-09
-6.49587e-10
0
-5.79527e-10
-2.66169e-10
-7.14683e-09
-9.89963e-10
-2.07043e-10
-1.4314e-08
-3.59169e-09
-9.13729e-10
-3.60603e-08
-8.88332e-10
-2.93741e-09
-1.5485e-09
-3.89232e-08
-6.35106e-10
0
-1.16486e-08
-4.88373e-08
-3.74949e-09
-9.15755e-10
-4.97696e-10
0
-1.29393e-08
-6.9776e-09
-4.1862e-08
-2.7591e-09
0
0
0
)
;
    }
    bottom_fluid_surface
    {
        type            fixedFluxPressure;
        gradient        uniform 0;
        value           nonuniform List<scalar> 
64
(
-9800.21
-9800.21
-9800.21
-9800.2
-9800.21
-9800.2
-9800.21
-9800.21
-9800.21
-9800.21
-9800.21
-9800.21
-9800.2
-9800.2
-9800.2
-9800.2
-9800.2
-9800.21
-9800.2
-9800.21
-9800.21
-9800.21
-9800.21
-9800.2
-9800.2
-9800.2
-9800.2
-9800.2
-9800.21
-9800.2
-9800.2
-9800.2
-9800.2
-9800.2
-9800.2
-9800.2
-9800.2
-9800.2
-9800.21
-9800.21
-9800.21
-9800.21
-9800.22
-9800.21
-9800.21
-9800.21
-9800.21
-9800.2
-9800.2
-9800.2
-9800.2
-9800.2
-9800.2
-9800.21
-9800.21
-9800.2
-9800.2
-9800.2
-9800.19
-9800.2
-9800.2
-9800.2
-9800.2
-9800.2
)
;
    }
    lateral_surface_1
    {
        type            fixedFluxPressure;
        gradient        uniform 0;
        value           nonuniform List<scalar> 
40
(
-0.00740301
-0.00360492
-0.00141214
0.00478605
-0.00301127
-0.000920399
-0.00134061
-0.0160179
-9799.86
-9799.86
-9799.88
-9800
-9799.9
-9799.9
-9799.8
-9799.77
-9800.2
-9800.21
-9800.22
-9800.2
-9800.2
-9800.21
-9800.23
-9800.2
-9800.2
-9800.21
-9800.21
-9800.21
-9800.21
-9800.21
-9800.22
-9800.2
-9800.2
-9800.2
-9800.21
-9800.21
-9800.21
-9800.21
-9800.22
-9800.2
)
;
    }
    lateral_surface_2
    {
        type            fixedFluxPressure;
        gradient        uniform 0;
        value           nonuniform List<scalar> 
40
(
-0.00320655
-0.00204725
-0.00155453
-0.0113015
-0.000209029
0.00146447
-0.00586411
-0.0122804
-9799.88
-9799.88
-9799.9
-9799.83
-9799.87
-9799.91
-9799.81
-9799.82
-9800.2
-9800.2
-9800.2
-9800.2
-9800.21
-9800.21
-9800.21
-9800.2
-9800.2
-9800.2
-9800.2
-9800.2
-9800.21
-9800.21
-9800.2
-9800.2
-9800.2
-9800.2
-9800.2
-9800.2
-9800.21
-9800.21
-9800.2
-9800.2
)
;
    }
    lateral_surface_3
    {
        type            fixedFluxPressure;
        gradient        uniform 0;
        value           nonuniform List<scalar> 
40
(
-0.00134061
-4.87775e-05
-0.00213885
-0.00730044
-0.00143271
-0.000972697
-0.0143476
-0.00320655
-9799.8
-9799.86
-9799.92
-9799.81
-9799.84
-9799.88
-9799.81
-9799.88
-9800.23
-9800.22
-9800.2
-9800.21
-9800.21
-9800.2
-9800.2
-9800.2
-9800.22
-9800.21
-9800.21
-9800.21
-9800.21
-9800.2
-9800.2
-9800.2
-9800.22
-9800.21
-9800.21
-9800.21
-9800.21
-9800.2
-9800.2
-9800.2
)
;
    }
    lateral_surface_4
    {
        type            fixedFluxPressure;
        gradient        uniform 0;
        value           nonuniform List<scalar> 
40
(
-0.0122804
-0.00415339
-0.00429934
8.25233e-05
0.0014187
-0.00798669
-0.00513731
-0.0160179
-9799.82
-9799.9
-9799.95
-9799.9
-9799.93
-9799.83
-9799.83
-9799.77
-9800.2
-9800.19
-9800.17
-9800.19
-9800.2
-9800.21
-9800.2
-9800.2
-9800.2
-9800.19
-9800.19
-9800.2
-9800.2
-9800.2
-9800.2
-9800.2
-9800.2
-9800.2
-9800.19
-9800.2
-9800.2
-9800.2
-9800.2
-9800.2
)
;
    }
}


// ************************************************************************* //
