/*--------------------------------*- C++ -*----------------------------------*\
| =========                 |                                                 |
| \\      /  F ield         | OpenFOAM: The Open Source CFD Toolbox           |
|  \\    /   O peration     | Version:  v1612+                                |
|   \\  /    A nd           | Web:      www.OpenFOAM.com                      |
|    \\/     M anipulation  |                                                 |
\*---------------------------------------------------------------------------*/
FoamFile
{
    version     2.0;
    format      ascii;
    class       volVectorField;
    location    "6.3";
    object      U;
}
// * * * * * * * * * * * * * * * * * * * * * * * * * * * * * * * * * * * * * //

dimensions      [0 1 -1 0 0 0 0];

internalField   nonuniform List<vector> 
320
(
(5.98143e-07 -8.47333e-06 2.15255e-05)
(-4.42945e-06 -8.39554e-06 -1.03695e-05)
(-1.57906e-05 -8.38722e-06 -7.80604e-06)
(3.24547e-06 1.58273e-05 -1.1404e-05)
(0.000771815 0.000109601 -9.68005e-05)
(0.000546396 -7.0342e-05 6.66167e-05)
(0.000500511 -0.00011652 0.000219206)
(0.000215339 -0.000134108 -9.31555e-06)
(0.000276676 -0.000124028 -1.1608e-05)
(7.67061e-06 -8.96329e-05 -0.000101144)
(1.69951e-05 -0.00020421 -4.25911e-05)
(0.000227768 -0.000114978 2.06986e-05)
(-8.77879e-05 0.000139645 -0.000237841)
(2.27403e-05 -0.000448923 -8.29801e-05)
(-8.167e-05 0.000211408 0.000287233)
(0.000175131 0.000292252 -0.00018859)
(1.26706e-05 1.62089e-06 2.8954e-05)
(1.84458e-05 1.01097e-05 2.58317e-05)
(2.73208e-05 4.50854e-06 1.93186e-06)
(-3.18093e-06 3.12472e-06 -1.08029e-05)
(1.34649e-05 -1.20421e-05 5.82543e-06)
(6.24866e-06 7.39976e-06 3.0991e-05)
(-1.56906e-05 -2.29107e-06 2.49362e-05)
(5.12086e-06 -2.13146e-05 -1.01156e-05)
(-1.86821e-05 1.83969e-05 3.99988e-05)
(-9.50531e-06 -3.57343e-05 3.41322e-05)
(-2.57363e-05 -2.06091e-06 -3.52781e-05)
(-1.68442e-05 7.63657e-06 1.71849e-05)
(-4.4671e-06 2.82336e-06 1.55503e-05)
(-6.43021e-06 -2.56547e-06 2.28714e-05)
(-1.65021e-05 1.77329e-06 2.62558e-06)
(-6.66181e-07 1.20304e-06 -9.62829e-06)
(-8.17212e-06 3.95263e-06 7.22336e-06)
(-4.70247e-06 -1.00625e-05 1.89074e-05)
(7.90942e-06 -3.11882e-06 1.55231e-05)
(-4.8436e-07 8.8848e-06 -7.0618e-06)
(1.10919e-05 -1.28508e-05 2.41239e-05)
(8.70086e-06 1.69089e-05 2.40128e-05)
(1.37138e-05 2.92385e-06 -1.78017e-05)
(5.80247e-06 -8.80182e-07 1.21147e-05)
(-1.42675e-07 -5.76418e-06 6.89531e-06)
(-2.70219e-06 -5.83736e-06 -4.69191e-06)
(-9.37485e-06 -5.1085e-06 -8.14753e-07)
(2.25263e-06 8.91771e-06 -5.99907e-06)
(-2.30534e-06 9.05377e-07 5.11256e-06)
(-4.57135e-06 -2.35751e-06 8.22128e-07)
(-9.73326e-06 9.50635e-07 7.62926e-07)
(-6.23452e-07 1.05969e-06 2.3757e-06)
(-4.15389e-06 3.24718e-06 1.86278e-06)
(-2.35859e-06 -5.81961e-06 5.81382e-06)
(5.65347e-06 -1.54837e-06 5.24292e-06)
(-8.19414e-07 5.4402e-06 5.64896e-07)
(5.16826e-06 -8.00172e-06 5.86938e-06)
(4.55233e-06 9.59398e-06 4.61447e-06)
(7.32602e-06 1.23215e-06 -5.50835e-06)
(3.73256e-06 -7.66132e-07 2.34465e-06)
(-7.30923e-05 5.9524e-05 -6.04831e-05)
(0.000523763 0.000149794 -0.000245161)
(0.000437611 0.000124525 5.19555e-05)
(0.000342425 0.000327234 2.42667e-05)
(0.000285861 0.000456594 0.000364304)
(0.000210164 -0.000198315 0.000466459)
(0.000127673 -0.000144763 0.00039081)
(0.000198097 -0.000595257 0.000427619)
(9.52718e-05 -0.000694078 -8.3002e-05)
(-0.000192995 -6.28582e-05 -4.89899e-05)
(-0.000213975 9.59351e-05 0.000183161)
(0.000247621 -0.000128633 0.00030281)
(0.000296389 8.1087e-06 -7.52257e-05)
(2.68785e-05 0.000141707 0.000210785)
(0.000512112 -0.000227363 0.000117502)
(8.07473e-05 -0.000120134 0.000121492)
(0.000304201 7.79704e-05 0.000206514)
(0.000411805 0.000343298 6.59874e-06)
(0.000345673 0.000118036 -4.73583e-05)
(0.000404159 0.000269466 6.2301e-05)
(-2.59188e-05 -1.43244e-05 -2.00072e-05)
(2.11516e-06 1.98349e-07 2.13428e-05)
(6.65647e-06 -1.5118e-05 1.33156e-05)
(6.7944e-06 8.32495e-07 1.16858e-06)
(-9.13387e-06 2.96849e-05 -4.52622e-05)
(1.07014e-05 1.34006e-07 -6.49493e-05)
(-1.34872e-05 3.49786e-06 -4.21201e-05)
(-1.577e-05 -2.57788e-05 -7.84711e-05)
(1.94268e-06 -4.03647e-05 4.68097e-06)
(-6.66489e-06 -1.17728e-05 1.49386e-05)
(-2.461e-05 1.07397e-05 -3.84695e-05)
(2.31858e-05 -4.95664e-06 -5.36074e-05)
(1.13965e-05 -1.15631e-05 4.41283e-05)
(-1.70824e-05 3.24797e-06 -3.7069e-05)
(1.57715e-05 -3.16201e-05 -2.24011e-05)
(-2.90701e-05 -1.37376e-05 -3.56903e-05)
(5.93726e-06 6.14366e-06 -4.71371e-05)
(1.84646e-05 1.97648e-05 -8.62553e-06)
(3.78018e-06 1.43922e-06 2.34944e-06)
(2.00005e-05 1.02906e-05 -3.37879e-05)
(1.10746e-05 1.0025e-05 -1.25158e-05)
(2.28323e-06 3.14998e-08 9.95801e-06)
(-3.37952e-06 1.08258e-05 1.27168e-05)
(-5.49134e-06 2.74843e-06 -1.4082e-06)
(3.44506e-06 -1.55923e-05 -2.75283e-05)
(-6.50502e-06 2.26185e-06 -2.89155e-05)
(8.24044e-06 -6.49176e-08 -2.34524e-05)
(8.07603e-06 1.1794e-05 -3.69608e-05)
(-1.6966e-06 1.59246e-05 3.29786e-06)
(4.96704e-06 2.76005e-06 1.04356e-05)
(1.08718e-05 -1.03741e-05 -2.66351e-05)
(-1.57023e-05 -1.83143e-06 -2.95279e-05)
(-6.05618e-06 3.2356e-06 3.11294e-05)
(1.30339e-05 4.07914e-07 -2.292e-05)
(-5.48541e-06 1.46042e-05 -1.719e-05)
(1.5561e-05 4.55271e-06 -2.0007e-05)
(2.86815e-07 -5.767e-06 -2.72675e-05)
(-5.82884e-06 -1.13727e-05 -2.61846e-06)
(8.32096e-07 1.83851e-07 1.36895e-06)
(-1.44269e-05 -3.9967e-06 -2.37454e-05)
(6.28832e-06 6.0635e-06 -5.00233e-06)
(1.44876e-06 1.26217e-06 3.93629e-06)
(-2.74739e-06 6.74832e-06 -1.95612e-06)
(-4.08482e-06 2.02797e-06 1.57108e-06)
(2.78897e-06 -8.39077e-06 -7.20895e-06)
(-3.50335e-06 1.10389e-06 -1.18298e-05)
(4.24079e-06 -2.57817e-07 -6.17915e-06)
(4.75239e-06 7.18265e-06 -1.25835e-05)
(-1.23401e-06 9.48316e-06 1.26529e-06)
(3.1217e-06 1.62716e-06 -1.12548e-06)
(6.87787e-06 -6.1507e-06 -6.28808e-06)
(-9.00748e-06 -7.1215e-07 -9.57821e-06)
(-2.92121e-06 2.88259e-06 6.26426e-06)
(7.63798e-06 -9.58338e-07 -5.6709e-06)
(-3.43178e-06 7.68109e-06 -3.73848e-06)
(9.47191e-06 2.3547e-06 -6.77399e-06)
(2.88188e-07 -2.95084e-06 -7.01008e-06)
(-2.9438e-06 -6.58414e-06 -2.163e-06)
(1.65586e-06 -1.32292e-07 6.91753e-07)
(-7.93825e-06 -2.60823e-06 -4.21838e-06)
(-4.9695e-07 -2.83644e-06 1.79239e-06)
(2.60166e-07 -1.76506e-06 -1.37238e-06)
(-5.24239e-06 -2.17455e-06 -9.20099e-07)
(3.516e-07 5.30257e-06 -1.32448e-06)
(-2.87882e-06 1.36044e-07 2.15434e-06)
(-2.46752e-06 5.77007e-07 2.79148e-06)
(-3.96861e-06 1.13123e-06 -1.74421e-07)
(5.47695e-07 -1.73391e-08 -1.09044e-06)
(-1.89571e-06 3.10594e-08 8.53606e-07)
(-8.981e-07 -2.70013e-06 1.79643e-06)
(2.46579e-06 4.84102e-08 1.92753e-06)
(-2.51263e-07 1.33699e-06 -1.19637e-06)
(3.72392e-06 -2.91626e-06 2.62722e-06)
(2.42399e-06 5.05685e-06 2.87449e-06)
(4.60869e-06 5.98533e-07 -1.59639e-06)
(1.91691e-06 3.92328e-07 2.12794e-06)
(3.24671e-06 3.14192e-06 -9.21685e-07)
(-6.81622e-07 -1.41112e-07 7.56269e-07)
(-7.3502e-07 2.47888e-06 1.32847e-06)
(-1.54447e-07 -2.48652e-07 -1.05303e-06)
(2.29014e-08 -3.83653e-06 -2.54847e-06)
(-2.37429e-06 1.27914e-06 -3.03204e-06)
(6.16939e-07 3.07842e-07 -2.72202e-06)
(5.52104e-07 3.85676e-06 -3.82171e-06)
(-3.5005e-07 4.15497e-06 3.33907e-07)
(6.54343e-07 1.55578e-07 1.3162e-06)
(2.21088e-06 -3.5724e-06 -2.66099e-06)
(-3.68553e-06 -3.77592e-07 -3.22401e-06)
(-2.27772e-06 6.48409e-07 2.87486e-06)
(2.95278e-06 4.41296e-07 -2.48948e-06)
(-1.80761e-06 3.74881e-06 -1.72368e-06)
(3.92639e-06 8.0822e-07 -2.69062e-06)
(-4.83517e-07 -1.28981e-06 -3.09629e-06)
(-1.28511e-06 -3.34355e-06 -1.0098e-06)
(-8.75142e-07 -1.22594e-06 -1.13708e-07)
(-4.59506e-06 -1.41749e-06 -2.40991e-06)
(0.000537723 0.000211632 -0.000173608)
(0.000295051 7.228e-05 -7.9061e-05)
(0.000708624 -0.000156068 -3.5758e-05)
(0.000369647 -0.000112965 0.000133356)
(0.000170803 -8.71595e-05 -3.40449e-05)
(0.000285419 5.95446e-05 -2.30725e-05)
(-0.00040432 -8.79083e-05 -0.000119556)
(-0.000554666 0.000250068 -4.44964e-05)
(-0.000609932 -0.00027306 -2.03491e-05)
(-0.000628711 -0.000144443 -0.000169198)
(-0.000610836 -0.000155579 -8.47549e-05)
(-0.000194695 -0.000479514 -4.27488e-05)
(-0.000394937 1.48927e-05 -0.000268553)
(-0.000116775 -0.00012679 -4.21505e-05)
(1.56526e-05 -0.000406377 -7.66473e-05)
(7.32445e-05 -0.000335116 -5.56506e-05)
(0.000104439 -0.000690945 -0.00027901)
(-4.23784e-05 -0.000194025 -3.564e-05)
(0.000145131 -0.000353855 3.9394e-05)
(0.000427253 -0.000310988 -0.000152634)
(7.57141e-05 -0.000270154 -0.000312529)
(0.00011643 -0.000205659 -8.65966e-05)
(9.67653e-05 -6.79829e-05 -4.27961e-05)
(0.000168192 -0.000117928 -3.15498e-05)
(-9.96711e-05 0.000253681 8.56807e-06)
(7.74195e-05 0.00028183 -0.000160868)
(6.58187e-05 0.00025435 -0.000118132)
(6.27915e-05 0.000208348 -0.000289351)
(1.7786e-05 1.92606e-05 1.4938e-05)
(-6.75454e-06 3.15415e-07 -2.23205e-05)
(1.34638e-05 9.8346e-08 1.80711e-05)
(1.7814e-05 -1.10356e-05 -4.11863e-05)
(-1.74794e-05 -1.10593e-05 -2.67576e-05)
(-2.54903e-05 1.32359e-05 1.59968e-05)
(-3.30147e-05 5.29889e-06 5.11916e-05)
(-4.0951e-05 3.70172e-05 2.33198e-05)
(-2.56812e-05 1.53697e-07 -2.8401e-05)
(-4.0931e-05 -2.33414e-05 5.37475e-05)
(-5.25101e-05 3.38441e-06 7.01676e-05)
(-1.17754e-05 1.65036e-05 1.41928e-05)
(4.3502e-06 1.72443e-05 -5.68748e-06)
(1.72398e-05 -4.10206e-06 -2.20845e-05)
(8.44299e-06 -1.69873e-05 2.75564e-05)
(-5.69936e-07 -1.921e-05 -4.75595e-06)
(6.61072e-06 -4.10265e-05 2.48975e-05)
(-3.08263e-06 -2.63732e-06 1.04388e-05)
(1.37293e-06 -2.65467e-05 1.94308e-05)
(1.34712e-05 -2.10918e-05 2.5758e-05)
(1.06307e-05 -2.42457e-05 5.12531e-05)
(7.47635e-06 -3.92937e-05 -9.98139e-06)
(2.95846e-06 8.56168e-06 -3.97872e-05)
(2.97742e-05 1.1796e-05 3.15366e-05)
(8.6141e-06 -4.21577e-06 -2.08766e-06)
(5.79683e-06 9.17509e-06 -9.35607e-06)
(1.6347e-05 -3.18966e-07 3.24454e-05)
(-4.81106e-06 -1.89823e-06 3.24113e-05)
(-1.65367e-05 -9.70489e-06 7.22954e-06)
(1.77609e-06 -3.40081e-07 -1.39437e-05)
(-5.26827e-06 -4.07428e-07 4.8855e-06)
(-9.14772e-06 7.21271e-06 -2.28352e-05)
(9.913e-06 5.36124e-06 -2.09203e-05)
(1.11996e-05 -8.19212e-06 1.41422e-05)
(1.30017e-05 -2.39214e-06 2.66572e-05)
(1.88017e-05 -1.49523e-05 1.1493e-05)
(1.36417e-05 6.56879e-06 -1.69003e-05)
(2.3109e-05 1.57863e-05 2.74186e-05)
(2.94898e-05 -5.98455e-06 4.81167e-05)
(5.3342e-06 -1.31772e-05 4.04416e-06)
(3.90302e-07 -1.10029e-05 -2.63737e-06)
(-8.42553e-06 -4.66866e-07 -1.70636e-05)
(-2.32467e-06 8.34684e-06 1.22194e-05)
(-1.11618e-07 6.82392e-06 -6.91056e-06)
(-5.6997e-06 1.93294e-05 1.09951e-05)
(-2.72345e-06 -3.17782e-06 4.33125e-06)
(-2.76066e-07 1.59967e-05 9.7065e-06)
(-2.117e-06 1.0132e-05 1.15246e-05)
(-5.07817e-06 1.26296e-05 2.42273e-05)
(-2.581e-06 1.80861e-05 -9.0479e-06)
(-1.596e-06 -7.07654e-06 -2.6167e-05)
(-1.42108e-05 -4.48047e-06 1.86463e-05)
(-3.10714e-07 3.46865e-06 -9.20047e-07)
(6.2978e-07 -9.48017e-06 -1.0318e-05)
(-9.97446e-06 -7.3447e-06 2.26615e-05)
(-2.71914e-06 -2.44981e-06 2.22432e-05)
(-9.01976e-06 -6.07036e-06 2.79957e-06)
(-1.3772e-07 -1.55137e-07 -5.36768e-06)
(-2.99035e-06 3.55596e-07 4.25288e-06)
(-5.33736e-06 4.28403e-06 -7.83021e-06)
(5.40567e-06 2.94552e-06 -2.23089e-06)
(6.97071e-06 -5.20642e-06 -1.36771e-07)
(6.94268e-06 -1.23646e-06 7.6419e-06)
(1.09127e-05 -8.44588e-06 5.09678e-06)
(6.88746e-06 2.40237e-06 -3.51131e-06)
(1.22111e-05 9.31464e-06 9.70274e-06)
(1.64594e-05 -2.22755e-06 9.1312e-06)
(2.80123e-06 -7.44984e-06 4.31227e-06)
(-4.73386e-07 -6.38483e-06 -1.6698e-06)
(-5.2106e-06 -8.65284e-07 -2.94192e-06)
(-1.46826e-06 3.87193e-06 3.4471e-06)
(-1.93405e-08 3.72462e-06 -1.14484e-06)
(-3.37968e-06 1.07689e-05 3.67331e-06)
(-5.73141e-07 -1.90289e-06 2.87181e-06)
(3.69809e-07 8.42087e-06 5.6262e-06)
(-1.82779e-06 5.3651e-06 3.85169e-06)
(-3.15255e-06 6.81683e-06 7.42478e-06)
(-1.70085e-06 1.03412e-05 -1.79097e-06)
(-4.92488e-07 -4.28203e-06 -5.8346e-06)
(-8.3372e-06 -2.82128e-06 3.70109e-06)
(-3.62897e-07 2.59972e-06 -1.73078e-06)
(8.4645e-07 -5.7606e-06 1.74435e-07)
(-5.99125e-06 -4.61239e-06 4.4592e-06)
(-1.15777e-06 -1.23692e-06 5.83775e-06)
(-5.60455e-06 -2.69388e-06 9.21661e-07)
(6.4053e-07 -2.55028e-07 -1.21501e-06)
(-2.21578e-06 -8.77229e-08 4.02772e-07)
(-2.35998e-06 1.27914e-06 -1.63777e-06)
(2.3468e-06 1.53726e-06 -2.44664e-06)
(1.19715e-06 -1.22213e-06 1.45404e-06)
(5.10059e-06 3.62981e-07 3.20962e-06)
(6.68571e-06 -3.82007e-06 1.71719e-06)
(5.11706e-06 1.72526e-06 -1.39487e-06)
(7.13183e-06 2.90899e-06 2.29769e-06)
(7.71816e-06 -9.35931e-07 4.87576e-06)
(2.33914e-06 -2.59785e-06 7.58576e-07)
(9.65384e-07 -3.72664e-06 -1.01938e-07)
(-1.54306e-06 9.34606e-07 -1.80109e-06)
(-5.04306e-07 3.44307e-06 1.6586e-06)
(-3.64961e-07 2.09327e-06 -8.67723e-07)
(-1.755e-06 6.01887e-06 1.51769e-06)
(-1.07013e-06 1.6275e-07 8.18924e-07)
(6.23524e-07 4.81131e-06 1.14616e-06)
(-2.83636e-07 2.49199e-06 1.14799e-06)
(-1.62597e-06 3.28731e-06 2.67862e-06)
(-8.30643e-07 4.65129e-06 -8.04166e-07)
(-7.23481e-07 -1.59221e-06 -2.89643e-06)
(-3.23104e-06 -1.5459e-07 1.90497e-06)
(4.11735e-07 2.06912e-07 -3.85938e-07)
(3.19407e-07 -2.91765e-06 -6.79047e-07)
(-1.28e-06 -1.58754e-06 2.30208e-06)
(1.49346e-07 -1.26456e-06 2.35942e-06)
(0.000161257 0.00019025 -7.42846e-05)
(0.000211291 7.89724e-05 8.13846e-05)
(0.000640241 7.03323e-05 2.91012e-05)
(0.00022083 -0.000386587 0.000240336)
(4.58835e-06 2.71013e-05 3.88429e-05)
(9.54465e-06 1.73572e-05 -2.72405e-05)
(3.20915e-05 1.31952e-05 -1.64248e-05)
(-5.52968e-06 -3.52027e-05 -2.94501e-05)
)
;

boundaryField
{
    top_fluid_surface
    {
        type            pressureInletOutletVelocity;
        value           nonuniform List<vector> 
64
(
(0 0 -9.68005e-05)
(0.000546396 -7.0342e-05 6.66167e-05)
(0.000500511 -0.00011652 0.000219206)
(0 0 -9.31555e-06)
(0 0 -1.1608e-05)
(0 0 -0.000101144)
(0 0 -4.25911e-05)
(0.000227768 -0.000114978 2.06986e-05)
(0 0 -0.000237841)
(0 0 -8.29801e-05)
(-8.167e-05 0.000211408 0.000287233)
(0 0 -0.00018859)
(0 0 -6.04831e-05)
(0 0 -0.000245161)
(0.000437611 0.000124525 5.19555e-05)
(0.000342425 0.000327234 2.42667e-05)
(0.000285861 0.000456594 0.000364304)
(0.000210164 -0.000198315 0.000466459)
(0.000127673 -0.000144763 0.00039081)
(0.000198097 -0.000595257 0.000427619)
(0 0 -8.3002e-05)
(0 0 -4.89899e-05)
(-0.000213975 9.59351e-05 0.000183161)
(0.000247621 -0.000128633 0.00030281)
(0 0 -7.52257e-05)
(2.68785e-05 0.000141707 0.000210785)
(0.000512112 -0.000227363 0.000117502)
(8.07473e-05 -0.000120134 0.000121492)
(0.000304201 7.79704e-05 0.000206514)
(0 0 6.59874e-06)
(0 0 -4.73583e-05)
(0.000404159 0.000269466 6.2301e-05)
(0 0 -0.000173608)
(0 0 -7.9061e-05)
(0 0 -3.5758e-05)
(0.000369647 -0.000112965 0.000133356)
(0 0 -3.40449e-05)
(0 0 -2.30725e-05)
(0 0 -0.000119556)
(0 0 -4.44964e-05)
(0 0 -2.03491e-05)
(0 0 -0.000169198)
(0 0 -8.47549e-05)
(0 0 -4.27488e-05)
(0 0 -0.000268553)
(0 0 -4.21505e-05)
(0 0 -7.66473e-05)
(0 0 -5.56506e-05)
(0 0 -0.00027901)
(0 0 -3.564e-05)
(0.000145131 -0.000353855 3.9394e-05)
(0 0 -0.000152634)
(0 0 -0.000312529)
(0 0 -8.65966e-05)
(0 0 -4.27961e-05)
(0 0 -3.15498e-05)
(-9.96711e-05 0.000253681 8.56807e-06)
(0 0 -0.000160868)
(0 0 -0.000118132)
(0 0 -0.000289351)
(0 0 -7.42846e-05)
(0.000211291 7.89724e-05 8.13846e-05)
(0.000640241 7.03323e-05 2.91012e-05)
(0.00022083 -0.000386587 0.000240336)
)
;
    }
    bottom_fluid_surface
    {
        type            noSlip;
    }
    lateral_surface_1
    {
        type            noSlip;
    }
    lateral_surface_2
    {
        type            noSlip;
    }
    lateral_surface_3
    {
        type            noSlip;
    }
    lateral_surface_4
    {
        type            noSlip;
    }
}


// ************************************************************************* //
