/*--------------------------------*- C++ -*----------------------------------*\
| =========                 |                                                 |
| \\      /  F ield         | OpenFOAM: The Open Source CFD Toolbox           |
|  \\    /   O peration     | Version:  v1612+                                |
|   \\  /    A nd           | Web:      www.OpenFOAM.com                      |
|    \\/     M anipulation  |                                                 |
\*---------------------------------------------------------------------------*/
FoamFile
{
    version     2.0;
    format      ascii;
    class       volScalarField;
    location    "3.45";
    object      alpha.water;
}
// * * * * * * * * * * * * * * * * * * * * * * * * * * * * * * * * * * * * * //

dimensions      [0 0 0 0 0 0 0];

internalField   nonuniform List<scalar> 
1116
(
0.726048
0.726042
0.726044
0.726044
0.726041
0.726044
0.727117
0.727112
0.727113
0.727113
0.72711
0.727114
0.757185
0.75718
0.757182
0.757182
0.757179
0.757182
0.802164
0.802158
0.80216
0.80216
0.802158
0.802161
0.846836
0.846829
0.846832
0.846832
0.84683
0.846834
0.885348
0.885341
0.885343
0.885343
0.885341
0.885346
0.916975
0.916968
0.916969
0.916968
0.916966
0.916971
0.968021
0.968015
0.968015
0.968014
0.968012
0.968017
0.973041
0.973041
0.973041
0.973041
0.973041
0.973041
0.973041
0.973041
0.973041
0.973041
0.973041
0.973041
0.973038
0.973038
0.973038
0.973038
0.973038
0.973038
0.970457
0.970457
0.970457
0.970457
0.970457
0.970457
0.0653127
0.0653113
0.0653118
0.0653101
0.0653095
0.065314
0.0308581
0.0308567
0.0308567
0.0308567
0.0308568
0.0308584
0.0246393
0.0246388
0.0246383
0.0246389
0.0246395
0.024639
0.0328711
0.0328708
0.0328703
0.0328709
0.0328715
0.032871
0.050462
0.0504615
0.0504611
0.0504616
0.0504624
0.0504621
0.076171
0.07617
0.0761697
0.0761703
0.0761712
0.0761712
0.109785
0.109784
0.109783
0.109784
0.109785
0.109785
0.1602
0.160194
0.160195
0.160195
0.160196
0.160199
0.344786
0.34477
0.344773
0.344773
0.344771
0.344785
0.80229
0.802262
0.802269
0.802269
0.802261
0.802283
0.973032
0.973032
0.973032
0.973032
0.973032
0.973032
0.972968
0.972968
0.972968
0.972968
0.972968
0.972968
1.57897e-08
1.57902e-08
1.579e-08
1.57907e-08
1.57921e-08
1.57924e-08
3.27178e-09
3.27197e-09
3.27186e-09
3.27129e-09
3.27132e-09
3.27199e-09
1.89868e-09
1.89838e-09
1.89843e-09
1.89803e-09
1.89781e-09
1.89876e-09
9.30897e-10
9.30901e-10
9.30882e-10
9.30802e-10
9.30732e-10
9.30741e-10
1.51887e-10
1.51889e-10
1.51879e-10
1.51858e-10
1.51834e-10
1.51812e-10
9.16487e-12
9.16479e-12
9.16402e-12
9.16267e-12
9.16136e-12
9.1602e-12
-6.55277e-15
-6.5584e-15
-6.55657e-15
-6.55687e-15
-6.55846e-15
-6.55272e-15
-1.74891e-06
-1.75114e-06
-1.75012e-06
-1.75005e-06
-1.75073e-06
-1.74973e-06
0.000129884
0.00012991
0.000129899
0.000129898
0.000129906
0.000129894
0.101208
0.101161
0.10118
0.101179
0.101168
0.101191
0.793127
0.793089
0.793104
0.793098
0.793084
0.793119
0.972936
0.972936
0.972936
0.972936
0.972936
0.972936
4.61375e-07
4.61279e-07
4.6136e-07
4.61432e-07
4.61422e-07
4.61516e-07
2.13105e-06
2.13084e-06
2.1309e-06
2.13091e-06
2.13081e-06
2.13113e-06
9.47795e-08
9.48338e-08
9.48145e-08
9.48132e-08
9.48477e-08
9.47816e-08
6.24641e-08
6.24221e-08
6.24302e-08
6.24002e-08
6.23856e-08
6.24918e-08
6.43148e-08
6.43089e-08
6.43083e-08
6.4305e-08
6.43026e-08
6.43116e-08
8.24934e-09
8.24921e-09
8.24843e-09
8.24709e-09
8.24568e-09
8.2441e-09
-1.0848e-11
-1.08548e-11
-1.08509e-11
-1.08489e-11
-1.08492e-11
-1.08447e-11
-2.09022e-09
-2.07583e-09
-2.07563e-09
-2.0723e-09
-2.07208e-09
-2.08014e-09
2.55402e-06
2.55535e-06
2.5539e-06
2.55391e-06
2.55407e-06
2.55416e-06
0.000134723
0.000134749
0.000134737
0.000134737
0.000134744
0.000134734
0.372943
0.372849
0.372876
0.37288
0.37286
0.372905
0.972223
0.972223
0.972223
0.972223
0.972223
0.972223
4.52121e-42
4.42883e-42
4.37656e-42
4.46839e-42
4.45882e-42
4.25014e-42
1.28989e-38
1.2639e-38
1.24927e-38
1.28063e-38
1.27246e-38
1.21931e-38
1.71208e-35
1.67814e-35
1.65912e-35
1.70889e-35
1.68963e-35
1.62876e-35
1.3763e-32
1.34945e-32
1.33446e-32
1.38207e-32
1.35883e-32
1.31861e-32
7.35262e-30
7.21124e-30
7.13265e-30
7.4332e-30
7.263e-30
7.09965e-30
2.71695e-27
2.66549e-27
2.63716e-27
2.76693e-27
2.68643e-27
2.6464e-27
7.10518e-25
6.97366e-25
6.90279e-25
7.29109e-25
7.03957e-25
6.98676e-25
1.34618e-22
1.32235e-22
1.30994e-22
1.39043e-22
1.33881e-22
1.33605e-22
1.95471e-20
1.92278e-20
1.90693e-20
2.02263e-20
1.95567e-20
1.95066e-20
2.43227e-18
2.39789e-18
2.38129e-18
2.49447e-18
2.45154e-18
2.41472e-18
6.26302e-17
6.19005e-17
6.13393e-17
6.80015e-17
6.57652e-17
6.42058e-17
2.48508e-16
2.45942e-16
2.44755e-16
2.51741e-16
2.53034e-16
2.45906e-16
3.58752e-41
3.54073e-41
3.4711e-41
3.42856e-41
3.39349e-41
3.15572e-41
9.54727e-38
9.41987e-38
9.23469e-38
9.13379e-38
9.02177e-38
8.42119e-38
1.17684e-34
1.16075e-34
1.13793e-34
1.12758e-34
1.1108e-34
1.04156e-34
8.94102e-32
8.81491e-32
8.64146e-32
8.58442e-32
8.42759e-32
7.94623e-32
4.7705e-29
4.70029e-29
4.60763e-29
4.5929e-29
4.48937e-29
4.26215e-29
1.9732e-26
1.94254e-26
1.90429e-26
1.90674e-26
1.85435e-26
1.77527e-26
7.01288e-24
6.89584e-24
6.76138e-24
6.8054e-24
6.58882e-24
6.36499e-24
2.41046e-21
2.36787e-21
2.32315e-21
2.34797e-21
2.27323e-21
2.21004e-21
8.97235e-19
8.80774e-19
8.65161e-19
8.74359e-19
8.56651e-19
8.30783e-19
7.04586e-17
6.81591e-17
6.50893e-17
6.72409e-17
6.34197e-17
6.07212e-17
2.08536e-16
2.05382e-16
2.04189e-16
2.11156e-16
2.11134e-16
2.05387e-16
1.06383e-14
1.05782e-14
1.05051e-14
1.06733e-14
1.11202e-14
1.01988e-14
9.40998e-36
9.33284e-36
9.30611e-36
9.33532e-36
9.56254e-36
9.07883e-36
2.63553e-32
2.61499e-32
2.60811e-32
2.61347e-32
2.67267e-32
2.55095e-32
3.32547e-29
3.30135e-29
3.29372e-29
3.29616e-29
3.36376e-29
3.23159e-29
2.40564e-26
2.38984e-26
2.3853e-26
2.38313e-26
2.42541e-26
2.34932e-26
1.06434e-23
1.05827e-23
1.05686e-23
1.05371e-23
1.06863e-23
1.04606e-23
2.91417e-21
2.9008e-21
2.89935e-21
2.88323e-21
2.91096e-21
2.88793e-21
4.96843e-19
4.95282e-19
4.9561e-19
4.91356e-19
4.93497e-19
4.97415e-19
3.26704e-17
3.26062e-17
3.2659e-17
3.23224e-17
3.23363e-17
3.29587e-17
1.39868e-15
1.41351e-15
1.43967e-15
1.34897e-15
1.24565e-15
1.5621e-15
1.69323e-13
1.69325e-13
1.70746e-13
1.66022e-13
1.62283e-13
1.77358e-13
6.87492e-11
6.84729e-11
6.83098e-11
6.8828e-11
7.09149e-11
6.77012e-11
2.45538e-10
2.4153e-10
2.36846e-10
2.56133e-10
2.90809e-10
2.19949e-10
4.42752e-38
4.39144e-38
4.37745e-38
4.3946e-38
4.50482e-38
4.25329e-38
1.18369e-34
1.17418e-34
1.17057e-34
1.17408e-34
1.20199e-34
1.13981e-34
1.41409e-31
1.40298e-31
1.39888e-31
1.40154e-31
1.43257e-31
1.36568e-31
9.70943e-29
9.63514e-29
9.60893e-29
9.61428e-29
9.80714e-29
9.411e-29
4.1456e-26
4.11476e-26
4.10473e-26
4.10032e-26
4.17169e-26
4.0371e-26
1.12199e-23
1.114e-23
1.11184e-23
1.10846e-23
1.12401e-23
1.09981e-23
1.83836e-21
1.82659e-21
1.82471e-21
1.815e-21
1.83223e-21
1.81939e-21
2.90126e-20
2.88695e-20
2.88913e-20
2.86825e-20
2.83666e-20
2.92697e-20
8.18498e-20
8.11036e-20
8.08519e-20
8.19652e-20
8.54218e-20
8.05881e-20
2.29299e-13
2.40713e-13
2.52347e-13
1.98409e-13
1.19248e-13
3.05214e-13
2.62886e-08
2.62365e-08
2.62374e-08
2.62511e-08
2.6728e-08
2.62146e-08
8.60524e-07
8.55148e-07
8.47365e-07
8.69946e-07
9.19211e-07
8.13252e-07
8.74166e-08
8.73628e-08
8.74014e-08
8.74392e-08
8.74391e-08
8.74782e-08
4.20259e-18
4.20068e-18
4.20076e-18
4.19814e-18
4.19411e-18
4.20213e-18
-7.74008e-16
-8.477e-16
-8.70139e-16
-8.50792e-16
-8.45761e-16
-8.6607e-16
2.17238e-06
2.1724e-06
2.1724e-06
2.17242e-06
2.17243e-06
2.17243e-06
5.60048e-07
5.59386e-07
5.59651e-07
5.59596e-07
5.59058e-07
5.60186e-07
-4.02267e-15
-4.40543e-15
-4.52233e-15
-4.42174e-15
-4.39558e-15
-4.50155e-15
6.60571e-07
6.60498e-07
6.60517e-07
6.60552e-07
6.60551e-07
6.60623e-07
9.48487e-24
8.36573e-24
7.67772e-24
8.13927e-24
8.11462e-24
7.91891e-24
-2.77539e-14
-3.03957e-14
-3.12014e-14
-3.05073e-14
-3.03272e-14
-3.10558e-14
1.37261e-08
1.36482e-08
1.36647e-08
1.36085e-08
1.35909e-08
1.38006e-08
1.90337e-18
1.89223e-18
1.89302e-18
1.89158e-18
1.88373e-18
1.88272e-18
-1.94466e-14
-2.12963e-14
-2.186e-14
-2.13726e-14
-2.12464e-14
-2.17561e-14
6.51435e-08
6.51435e-08
6.51427e-08
6.51418e-08
6.51425e-08
6.51425e-08
4.48868e-09
4.43261e-09
4.44069e-09
4.41703e-09
4.39083e-09
4.46293e-09
-1.08712e-15
-1.19103e-15
-1.22318e-15
-1.19571e-15
-1.18834e-15
-1.21014e-15
3.00515e-08
3.0039e-08
3.00395e-08
3.0034e-08
3.00277e-08
3.00405e-08
8.05212e-21
8.05495e-21
8.05518e-21
8.05766e-21
8.05781e-21
8.05988e-21
-1.06095e-17
-1.16188e-17
-1.19318e-17
-1.1664e-17
-1.15909e-17
-1.17815e-17
8.00099e-11
7.98267e-11
7.98385e-11
7.97575e-11
7.96444e-11
7.9834e-11
1.4898e-17
1.48979e-17
1.48979e-17
1.48979e-17
1.48979e-17
1.48978e-17
-2.02758e-18
-2.00425e-18
-2.0193e-18
-2.03169e-18
-2.02317e-18
-2.08267e-18
4.85954e-11
4.83609e-11
4.83855e-11
4.82863e-11
4.81562e-11
4.83831e-11
1.45793e-17
1.54876e-17
1.5008e-17
1.46529e-17
1.45232e-17
1.32674e-17
-3.42896e-15
-3.41006e-15
-3.4213e-15
-3.42921e-15
-3.4178e-15
-3.47035e-15
-7.77503e-09
-7.77342e-09
-7.75541e-09
-7.75749e-09
-7.75767e-09
-7.71025e-09
-1.53976e-13
-9.94044e-14
-9.42777e-14
-1.09641e-13
-1.69631e-13
-1.10836e-13
-2.04617e-13
-2.03598e-13
-2.0416e-13
-2.04546e-13
-2.03852e-13
-2.06925e-13
6.65243e-06
6.65375e-06
6.65314e-06
6.65326e-06
6.65357e-06
6.65313e-06
1.56555e-07
1.56551e-07
1.56554e-07
1.56578e-07
1.56577e-07
1.56579e-07
7.19488e-18
7.20295e-18
7.20169e-18
7.20382e-18
7.21283e-18
7.19022e-18
0.000154424
0.000154359
0.000154389
0.000154392
0.000154375
0.000154401
0.00221633
0.00221187
0.00221301
0.00221188
0.00220513
0.00222225
0.000423042
0.000421711
0.00042206
0.0004219
0.000420493
0.000424044
0.69646
0.696438
0.696438
0.696414
0.696329
0.69651
0.125074
0.125101
0.125085
0.125058
0.125024
0.125125
-2.83882e-19
-3.18778e-19
-3.33449e-19
-3.42576e-19
-3.35084e-19
-2.77766e-19
0.000174427
0.000174564
0.000174593
0.000174124
0.000176216
0.000173307
0.000245127
0.000244819
0.000245725
0.000233082
0.000240233
0.000207559
0.0065179
0.00659452
0.0066072
0.00652644
0.00682521
0.00623333
0.0840443
0.0840199
0.0840341
0.0838102
0.0847769
0.0831027
0.145294
0.145284
0.145454
0.144317
0.144746
0.143991
0.0524269
0.052607
0.0527228
0.0520666
0.0516132
0.0529927
0.192055
0.191963
0.191916
0.192367
0.192758
0.192227
0.255326
0.255534
0.255674
0.256204
0.256779
0.256779
0.00349844
0.00347663
0.0035077
0.0032104
0.00232963
0.0043016
0.332603
0.332437
0.332456
0.333685
0.334784
0.332207
0.212701
0.212865
0.212767
0.212566
0.211846
0.213157
1.19114e-24
1.22423e-24
1.19114e-24
1.22423e-24
1.19114e-24
1.15805e-24
0.68433
0.684291
0.684268
0.684593
0.685193
0.683906
0.227598
0.227679
0.227622
0.227959
0.228377
0.227012
7.67624e-23
7.67624e-23
7.57034e-23
7.62325e-23
7.67615e-23
7.51742e-23
0.696111
0.696099
0.696093
0.696078
0.696061
0.696161
0.258926
0.259005
0.258966
0.259011
0.259287
0.258621
3.2272e-21
3.23722e-21
3.23529e-21
3.17683e-21
3.14011e-21
3.27705e-21
2.96937e-31
2.96515e-31
2.96561e-31
2.96667e-31
3.01043e-31
2.94841e-31
1.23906e-33
1.23693e-33
1.23712e-33
1.23785e-33
1.25616e-33
1.22935e-33
1.30711e-35
1.30754e-35
1.30608e-35
1.31095e-35
1.33564e-35
1.28662e-35
1.06438e-27
1.06318e-27
1.06338e-27
1.0635e-27
1.07916e-27
1.05789e-27
4.65006e-30
4.6431e-30
4.6439e-30
4.64568e-30
4.71457e-30
4.61733e-30
9.0273e-32
9.031e-32
9.02144e-32
9.05443e-32
9.22811e-32
8.8968e-32
1.60859e-24
1.60746e-24
1.60782e-24
1.6075e-24
1.63092e-24
1.60063e-24
7.50897e-27
7.50016e-27
7.50168e-27
7.50272e-27
7.6139e-27
7.46329e-27
2.49921e-28
2.49979e-28
2.4978e-28
2.5055e-28
2.5536e-28
2.47028e-28
1.26022e-21
1.26e-21
1.26034e-21
1.25952e-21
1.27732e-21
1.25552e-21
6.5081e-24
6.50303e-24
6.50447e-24
6.5032e-24
6.59873e-24
6.47489e-24
3.30297e-25
3.3025e-25
3.30136e-25
3.30771e-25
3.37061e-25
3.27992e-25
5.19797e-19
5.20048e-19
5.20207e-19
5.19514e-19
5.2559e-19
5.18488e-19
3.15439e-21
3.1534e-21
3.15413e-21
3.15203e-21
3.19724e-21
3.14135e-21
2.21884e-22
2.21761e-22
2.21822e-22
2.21878e-22
2.26051e-22
2.21626e-22
5.20872e-17
5.21085e-17
5.21167e-17
5.20615e-17
5.28066e-17
5.19685e-17
8.42274e-19
8.42471e-19
8.42678e-19
8.41486e-19
8.51747e-19
8.39398e-19
7.85404e-20
7.84831e-20
7.85535e-20
7.84379e-20
7.99016e-20
7.88275e-20
1.83759e-17
1.83756e-17
1.83756e-17
1.83761e-17
1.83745e-17
1.83761e-17
1.0696e-16
1.07042e-16
1.07067e-16
1.0676e-16
1.08504e-16
1.0642e-16
1.41248e-17
1.41171e-17
1.41328e-17
1.41001e-17
1.43329e-17
1.41827e-17
1.60247e-17
1.60235e-17
1.60235e-17
1.60244e-17
1.60187e-17
1.60265e-17
4.21598e-14
4.22058e-14
4.22145e-14
4.20709e-14
4.27662e-14
4.19395e-14
3.87603e-16
3.87557e-16
3.87734e-16
3.86868e-16
3.93742e-16
3.86846e-16
2.01771e-17
2.01671e-17
2.01868e-17
2.01365e-17
2.01504e-17
2.0309e-17
8.33257e-12
8.33563e-12
8.34191e-12
8.31538e-12
8.43705e-12
8.31229e-12
3.50059e-13
3.49901e-13
3.50291e-13
3.49577e-13
3.56685e-13
3.52559e-13
5.06792e-13
5.15109e-13
5.22654e-13
4.85167e-13
4.34829e-13
5.58295e-13
2.32479e-09
2.32684e-09
2.32794e-09
2.32079e-09
2.37028e-09
2.30421e-09
2.96624e-11
2.96752e-11
2.9707e-11
2.96408e-11
3.02937e-11
2.93769e-11
2.59936e-08
2.59388e-08
2.59374e-08
2.59608e-08
2.64209e-08
2.58753e-08
6.50433e-08
6.53165e-08
6.53791e-08
6.59411e-08
6.86754e-08
6.13802e-08
3.26177e-10
3.27551e-10
3.29329e-10
3.27706e-10
3.40703e-10
3.08545e-10
1.02239e-06
1.0186e-06
1.01181e-06
1.02864e-06
1.06926e-06
9.82817e-07
7.86796e-18
7.65512e-18
5.94495e-18
8.18275e-18
6.57141e-18
1.0561e-17
1.35747e-25
1.20257e-25
9.99574e-26
1.37188e-25
4.21558e-26
1.87607e-25
)
;

boundaryField
{
    seabed_topleft_surface
    {
        type            zeroGradient;
    }
    seabed_topright_surface
    {
        type            zeroGradient;
    }
    breakwater_top_surface
    {
        type            zeroGradient;
    }
    breakwater_left_surface
    {
        type            zeroGradient;
    }
    breakwater_right_surface
    {
        type            zeroGradient;
    }
    water_front_surface
    {
        type            zeroGradient;
    }
    water_back_surface
    {
        type            zeroGradient;
    }
    water_left_surface
    {
        type            zeroGradient;
    }
    water_right_surface
    {
        type            zeroGradient;
    }
    water_top_surface
    {
        type            inletOutlet;
        inletValue      uniform 0;
        value           nonuniform List<scalar> 
180
(
0
0
0
0
0
0
0
0
0
0
0
0
0
0
0
0
0
0
0
0
0
0
0
0
0
0
0
0
0
0
0
0
0
0
0
0
0
0
0
0
0
0
0
0
0
0
0
0
0
0
0
0
0
0
7.19488e-18
7.20295e-18
7.20169e-18
7.20382e-18
7.21283e-18
7.19022e-18
0.000423042
0.000421711
0.00042206
0.0004219
0.000420493
0.000424044
0
0
0
0
0
0
0.0065179
0.00659452
0.0066072
0.00652644
0.00682521
0.00623333
0.0524269
0.052607
0.0527228
0.0520666
0.0516132
0.0529927
0
0
0
0
0
0
0
0
0
0
0
0
0
0
0
0
0
0
0
0
0
0
0
0
1.30711e-35
1.30754e-35
1.30608e-35
1.31095e-35
1.33564e-35
1.28662e-35
9.0273e-32
9.031e-32
9.02144e-32
9.05443e-32
9.22811e-32
8.8968e-32
2.49921e-28
2.49979e-28
2.4978e-28
2.5055e-28
2.5536e-28
2.47028e-28
3.30297e-25
3.3025e-25
3.30136e-25
3.30771e-25
3.37061e-25
3.27992e-25
2.21884e-22
2.21761e-22
2.21822e-22
2.21878e-22
2.26051e-22
2.21626e-22
7.85404e-20
7.84831e-20
7.85535e-20
7.84379e-20
7.99016e-20
7.88275e-20
1.41248e-17
1.41171e-17
1.41328e-17
1.41001e-17
1.43329e-17
1.41827e-17
3.87603e-16
3.87557e-16
3.87734e-16
3.86868e-16
3.93742e-16
3.86846e-16
3.50059e-13
3.49901e-13
3.50291e-13
3.49577e-13
3.56685e-13
3.52559e-13
2.96624e-11
2.96752e-11
2.9707e-11
2.96408e-11
3.02937e-11
2.93769e-11
3.26177e-10
3.27551e-10
3.29329e-10
3.27706e-10
3.40703e-10
3.08545e-10
0
0
0
0
0
0
)
;
    }
}


// ************************************************************************* //
