/*--------------------------------*- C++ -*----------------------------------*\
| =========                 |                                                 |
| \\      /  F ield         | OpenFOAM: The Open Source CFD Toolbox           |
|  \\    /   O peration     | Version:  v1612+                                |
|   \\  /    A nd           | Web:      www.OpenFOAM.com                      |
|    \\/     M anipulation  |                                                 |
\*---------------------------------------------------------------------------*/
FoamFile
{
    version     2.0;
    format      ascii;
    class       volScalarField;
    location    "3.45";
    object      p_rgh;
}
// * * * * * * * * * * * * * * * * * * * * * * * * * * * * * * * * * * * * * //

dimensions      [1 -1 -2 0 0 0 0];

internalField   nonuniform List<scalar> 
1116
(
7966.59
7966.55
7966.56
7966.56
7966.53
7966.56
7796.75
7796.71
7796.72
7796.71
7796.69
7796.73
7854.68
7854.64
7854.65
7854.65
7854.63
7854.65
8285.57
8285.52
8285.53
8285.53
8285.52
8285.54
8893.15
8893.1
8893.12
8893.12
8893.1
8893.13
9603.72
9603.67
9603.68
9603.69
9603.68
9603.71
10572.9
10572.8
10572.8
10572.8
10572.8
10572.9
12227
12227
12227
12227
12227
12227
14936
14936
14936
14936
14936
14936
18857.6
18857.5
18857.5
18857.5
18857.5
18857.6
22543.4
22543.4
22543.4
22543.4
22543.3
22543.4
24564.7
24564.6
24564.6
24564.6
24564.6
24564.6
1285.57
1285.55
1285.55
1285.52
1285.51
1285.6
617.623
617.6
617.598
617.598
617.601
617.63
495.297
495.29
495.281
495.291
495.302
495.293
662.301
662.296
662.287
662.297
662.309
662.298
1014.38
1014.37
1014.36
1014.37
1014.38
1014.38
1525.19
1525.17
1525.17
1525.18
1525.19
1525.19
2189.5
2189.48
2189.47
2189.48
2189.5
2189.51
3209.24
3209.15
3209.16
3209.17
3209.18
3209.24
7092.61
7092.31
7092.37
7092.37
7092.33
7092.6
17594.5
17594.2
17594.3
17594.3
17594.2
17594.5
24695.3
24695.3
24695.3
24695.3
24695.3
24695.3
27275.8
27275.8
27275.8
27275.8
27275.8
27275.7
6.18952
6.19001
6.19022
6.19047
6.19062
6.19028
6.99035
6.99063
6.99074
6.99085
6.99097
6.9908
7.7561
7.75623
7.75621
7.7561
7.75601
7.75586
9.78595
9.78603
9.78603
9.78599
9.78595
9.78587
11.8708
11.8708
11.8708
11.8708
11.8708
11.8709
14.4859
14.4859
14.4859
14.4859
14.4858
14.4859
24.0053
24.0048
24.0045
24.0043
24.0041
24.0042
47.8647
47.8636
47.8626
47.8619
47.862
47.8622
137.873
137.871
137.872
137.872
137.873
137.877
2970.42
2969.38
2969.82
2969.8
2969.55
2970.09
23805
23803.9
23804.3
23804.2
23803.8
23804.8
31855.5
31855.7
31855.7
31855.7
31855.7
31855.6
5.94117
5.94139
5.9416
5.94186
5.94203
5.94198
6.77051
6.77065
6.77068
6.77071
6.77071
6.77054
7.58419
7.58429
7.58427
7.58421
7.58415
7.58398
9.8606
9.8607
9.86074
9.86077
9.86083
9.86071
12.5656
12.5658
12.5658
12.5658
12.566
12.5659
14.2314
14.2317
14.2316
14.2315
14.2315
14.2314
16.025
16.0252
16.0251
16.0248
16.0247
16.0242
17.4507
17.4492
17.4486
17.4481
17.4478
17.4481
18.9197
18.8966
18.9009
18.9004
18.895
18.9071
74.2615
74.2804
74.2807
74.2808
74.2826
74.276
13404.7
13402.5
13403
13403.1
13402.7
13403.8
36394.2
36394.2
36394.1
36394.2
36394.1
36394.2
3.33917
3.33918
3.33918
3.33917
3.33916
3.33915
3.50147
3.50146
3.50146
3.50148
3.5015
3.50151
3.83321
3.83323
3.83329
3.83338
3.83347
3.83354
4.34908
4.34914
4.34924
4.34936
4.34946
4.34953
5.0687
5.06876
5.06879
5.0688
5.06878
5.06876
6.01284
6.01281
6.01269
6.01253
6.01237
6.01226
7.196
7.19591
7.19574
7.1956
7.1955
7.19544
8.61756
8.61756
8.61759
8.61778
8.61802
8.61813
10.2488
10.2491
10.2494
10.2503
10.2512
10.2508
11.9793
11.9829
11.9807
11.9823
11.9859
11.9754
13.7108
13.711
13.7109
13.7108
13.7105
13.7094
15.0006
15.0003
14.9997
14.9988
14.998
14.9977
3.18034
3.18035
3.18034
3.18034
3.18032
3.18031
3.34434
3.34436
3.34438
3.3444
3.34441
3.34441
3.67765
3.67769
3.67773
3.67778
3.6778
3.67781
4.18897
4.18899
4.189
4.18899
4.18896
4.18893
4.88845
4.88839
4.8883
4.88821
4.88813
4.88807
5.78875
5.78866
5.78857
5.78855
5.78858
5.78861
6.90558
6.90563
6.9058
6.90609
6.90642
6.90665
8.24931
8.24977
8.25016
8.25095
8.25181
8.25227
9.82652
9.82613
9.82751
9.82995
9.8329
9.83592
11.5907
11.5876
11.59
11.5887
11.5854
11.5951
13.8649
13.8641
13.8637
13.863
13.8626
13.8619
15.9019
15.9011
15.899
15.8962
15.8942
15.894
2.86642
2.86642
2.86641
2.8664
2.86639
2.86637
3.02644
3.02645
3.02646
3.02646
3.02645
3.02643
3.35618
3.35619
3.35619
3.35616
3.35612
3.35608
3.87805
3.87802
3.87795
3.87786
3.87775
3.87768
4.63206
4.63197
4.63185
4.63176
4.6317
4.63168
5.67613
5.67605
5.67606
5.67617
5.67635
5.67651
7.07289
7.07293
7.07313
7.07343
7.07375
7.07399
8.88536
8.88517
8.88532
8.88516
8.88488
8.88481
11.1635
11.1638
11.1625
11.1599
11.1568
11.1544
13.7238
13.7223
13.7207
13.7185
13.7165
13.7171
16.836
16.8336
16.8309
16.8296
16.8279
16.8234
19.3578
19.3543
19.3466
19.3353
19.3256
19.3276
2.40703
2.40702
2.407
2.40699
2.40697
2.40696
2.55074
2.55074
2.55072
2.55069
2.55066
2.55064
2.84519
2.84517
2.84512
2.84505
2.84497
2.84491
3.30175
3.30169
3.3016
3.30149
3.30139
3.30132
3.93437
3.9343
3.93426
3.93424
3.93425
3.93428
4.76276
4.7628
4.76294
4.76311
4.7633
4.76344
5.82261
5.82276
5.823
5.82322
5.82337
5.82342
7.16812
7.16818
7.16833
7.16837
7.16823
7.16799
8.98899
8.98857
8.98889
8.98994
8.99079
8.9899
10.9266
10.9252
10.9241
10.9242
10.9236
10.9194
14.6501
14.6388
14.6327
14.648
14.6633
14.6075
23.2861
23.2807
23.2585
23.2089
23.1753
23.2124
3.77056
3.77071
3.77082
3.77089
3.77091
3.77086
1.88805
1.88809
1.88813
1.88814
1.8881
1.88805
-0.776674
-0.776753
-0.776767
-0.77678
-0.776801
-0.77675
4.27464
4.27472
4.27474
4.27473
4.27467
4.27454
2.129
2.12893
2.12894
2.12891
2.12881
2.12881
-0.757095
-0.757156
-0.757142
-0.75713
-0.757139
-0.757054
4.69694
4.69697
4.69691
4.69686
4.69682
4.69671
2.70255
2.70247
2.70243
2.70241
2.70238
2.70242
-0.656866
-0.656903
-0.656867
-0.656846
-0.656859
-0.656806
5.72558
5.72566
5.72565
5.72565
5.72567
5.72564
3.56342
3.56341
3.56344
3.56344
3.56345
3.56355
-0.546502
-0.54659
-0.546615
-0.546643
-0.546677
-0.546678
7.18964
7.1898
7.18986
7.18988
7.1899
7.18981
4.71739
4.71744
4.71751
4.7175
4.71746
4.71745
-0.177899
-0.178043
-0.178123
-0.178174
-0.178177
-0.178116
9.26145
9.26153
9.26151
9.26148
9.2615
9.26143
6.03082
6.03074
6.03069
6.03063
6.03055
6.03053
0.512926
0.512853
0.51284
0.512848
0.512863
0.512963
13.7406
13.7405
13.7403
13.7402
13.7402
13.7399
8.11802
8.11783
8.11764
8.11755
8.11747
8.11741
1.49017
1.4902
1.4903
1.49036
1.49037
1.49043
10.9497
10.9492
10.9487
10.9484
10.9481
10.9476
7.99727
7.9971
7.99689
7.99677
7.9967
7.99636
3.80219
3.80204
3.80233
3.80252
3.80257
3.80269
20.0739
20.0684
20.0692
20.0684
20.0673
20.0698
20.6385
20.6372
20.6374
20.6373
20.6376
20.6366
2.11501
2.11523
2.11593
2.11657
2.11702
2.11619
9.33851
9.33233
9.33673
9.3377
9.33658
9.33653
30.6778
30.6782
30.6792
30.6801
30.6866
30.6686
19.515
19.5172
19.519
19.521
19.5227
19.5173
-51.2742
-51.1859
-51.1995
-51.193
-51.1807
-51.23
165.436
165.2
165.261
165.223
164.861
165.758
15.0959
15.0287
15.0557
15.0526
14.9773
15.171
30944.4
30943.6
30943.4
30942.4
30938.5
30946.8
7279.47
7280.95
7280.05
7278.48
7276.38
7282.57
-1.63688
-1.62883
-1.61228
-1.5904
-1.56651
-1.593
58.6389
58.6947
58.6319
58.0703
58.244
57.3296
-65.1363
-65.155
-64.9018
-65.0132
-64.6811
-64.0672
273.575
278.359
279.113
274.746
291.73
258.389
3808.67
3807.61
3808.27
3797.39
3840.09
3766.82
7643.48
7643.37
7652.57
7594.74
7614.57
7587.36
2996.73
3006.48
3012.94
2966.71
2914.07
3036.46
8874.84
8871.04
8869.67
8883.43
8903.77
8886.75
15123.2
15138.8
15148.8
15178.6
15272.1
15177.5
213.768
212.401
214.588
194.671
137.848
263.569
15189.5
15181.4
15181.4
15234.4
15280.6
15169.7
12485.8
12495.4
12489.7
12477.5
12435.2
12511.7
3.33176
3.43758
3.63152
3.95125
5.17294
2.86067
31349.7
31347.6
31346
31360.1
31383
31328.6
13363.8
13368.5
13365.1
13384.8
13410.1
13328.7
7.43373
7.47767
7.54615
7.619
7.88952
7.46594
31357.7
31356.9
31356.1
31355.6
31353.3
31358.3
15240.2
15244.8
15242.5
15245.1
15261.2
15222.1
4.62375
4.64489
4.67617
4.71435
4.77448
4.68407
1.82412
1.8241
1.82408
1.82406
1.82404
1.82403
1.13939
1.13937
1.13936
1.13935
1.13934
1.13934
0.393724
0.393721
0.393719
0.393717
0.393716
0.393721
1.93963
1.93962
1.93959
1.93957
1.93954
1.93953
1.21242
1.21241
1.2124
1.21238
1.21238
1.21238
0.421592
0.421591
0.421587
0.421584
0.421584
0.421589
2.1816
2.18158
2.18154
2.18149
2.18145
2.18143
1.36326
1.36324
1.36323
1.36321
1.3632
1.3632
0.482951
0.482946
0.48294
0.482936
0.482935
0.482939
2.57783
2.5778
2.57776
2.57772
2.57769
2.57768
1.59951
1.59949
1.59947
1.59946
1.59946
1.59946
0.591294
0.591288
0.591285
0.591284
0.591285
0.591289
3.18716
3.18714
3.18713
3.18713
3.18712
3.18713
1.92778
1.92776
1.92775
1.92774
1.92773
1.92773
0.778488
0.778482
0.778483
0.778474
0.778478
0.778482
4.11957
4.11955
4.11953
4.11949
4.11944
4.1194
2.3649
2.36486
2.36479
2.3647
2.3646
2.36452
1.07156
1.07153
1.07154
1.07146
1.07146
1.07143
5.54702
5.54689
5.54668
5.54638
5.54612
5.54593
2.94776
2.9476
2.94732
2.94696
2.94644
2.94579
1.5695
1.56938
1.56939
1.56918
1.56905
1.569
7.68775
7.6873
7.68653
7.68557
7.68484
7.68448
3.38262
3.38217
3.38124
3.38023
3.37917
3.37903
2.08238
2.08194
2.08188
2.08119
2.0805
2.08082
11.3244
11.3233
11.3204
11.3164
11.3128
11.3114
5.72581
5.72437
5.72229
5.72117
5.71848
5.72145
3.15402
3.15341
3.15241
3.15084
3.14791
3.14661
16.2467
16.2454
16.2407
16.2339
16.2298
16.2252
5.44048
5.43889
5.43204
5.42463
5.4201
5.41137
3.91615
3.91865
3.91441
3.90735
3.90486
3.8868
25.7933
25.7858
25.7678
25.7461
25.7284
25.7364
6.71999
6.71328
6.67398
6.67891
6.61951
6.68675
-10.8324
-10.864
-10.9382
-10.8582
-11.0709
-10.7676
32.8851
32.8567
32.814
32.6697
32.6395
32.5843
18.2183
18.1643
18.1547
17.89
17.9918
17.6355
40.822
40.7463
40.7331
40.541
40.3654
40.6358
)
;

boundaryField
{
    seabed_topleft_surface
    {
        type            fixedFluxPressure;
        gradient        uniform 0;
        value           nonuniform List<scalar> 
72
(
7966.59
7966.55
7966.56
7966.56
7966.53
7966.56
7796.75
7796.71
7796.72
7796.71
7796.69
7796.73
7854.68
7854.64
7854.65
7854.65
7854.63
7854.65
8285.57
8285.52
8285.53
8285.53
8285.52
8285.54
8893.15
8893.1
8893.12
8893.12
8893.1
8893.13
9603.72
9603.67
9603.68
9603.69
9603.68
9603.71
10572.9
10572.8
10572.8
10572.8
10572.8
10572.9
12227
12227
12227
12227
12227
12227
14936
14936
14936
14936
14936
14936
18857.6
18857.5
18857.5
18857.5
18857.5
18857.6
22543.4
22543.4
22543.4
22543.4
22543.3
22543.4
24564.7
24564.6
24564.6
24564.6
24564.6
24564.6
)
;
    }
    seabed_topright_surface
    {
        type            fixedFluxPressure;
        gradient        uniform 0;
        value           nonuniform List<scalar> 
72
(
3.33917
3.33918
3.33918
3.33917
3.33916
3.33915
3.50147
3.50146
3.50146
3.50148
3.5015
3.50151
3.83321
3.83323
3.83329
3.83338
3.83347
3.83354
4.34908
4.34914
4.34924
4.34936
4.34946
4.34953
5.0687
5.06876
5.06879
5.0688
5.06878
5.06876
6.01284
6.01281
6.01269
6.01253
6.01237
6.01226
7.196
7.19591
7.19574
7.1956
7.1955
7.19544
8.61756
8.61756
8.61759
8.61778
8.61802
8.61813
10.2488
10.2491
10.2494
10.2503
10.2512
10.2508
11.9793
11.9829
11.9807
11.9823
11.9859
11.9754
13.7108
13.711
13.7109
13.7108
13.7105
13.7094
15.0006
15.0003
14.9997
14.9988
14.998
14.9977
)
;
    }
    breakwater_top_surface
    {
        type            fixedFluxPressure;
        gradient        uniform 0;
        value           nonuniform List<scalar> 
36
(
58.6389
58.6947
58.6319
58.0703
58.244
57.3296
3808.67
3807.61
3808.27
3797.39
3840.09
3766.82
8874.84
8871.04
8869.67
8883.43
8903.77
8886.75
15189.5
15181.4
15181.4
15234.4
15280.6
15169.7
31349.7
31347.6
31346
31360.1
31383
31328.6
31357.7
31356.9
31356.1
31355.6
31353.3
31358.3
)
;
    }
    breakwater_left_surface
    {
        type            fixedFluxPressure;
        gradient        uniform 0;
        value           nonuniform List<scalar> 
24
(
24564.7
24564.6
24564.6
24564.6
24564.6
24564.6
27275.8
27275.8
27275.8
27275.8
27275.8
27275.7
31855.5
31855.7
31855.7
31855.7
31855.7
31855.6
36394.2
36394.2
36394.1
36394.2
36394.1
36394.2
)
;
    }
    breakwater_right_surface
    {
        type            fixedFluxPressure;
        gradient        uniform 0;
        value           nonuniform List<scalar> 
24
(
15.0006
15.0003
14.9997
14.9988
14.998
14.9977
15.9019
15.9011
15.899
15.8962
15.8942
15.894
19.3578
19.3543
19.3466
19.3353
19.3256
19.3276
23.2861
23.2807
23.2585
23.2089
23.1753
23.2124
)
;
    }
    water_front_surface
    {
        type            fixedFluxPressure;
        gradient        uniform 0;
        value           nonuniform List<scalar> 
186
(
7966.59
7796.75
7854.68
8285.57
8893.15
9603.72
10572.9
12227
14936
18857.6
22543.4
24564.7
1285.57
617.623
495.297
662.301
1014.38
1525.19
2189.5
3209.24
7092.61
17594.5
24695.3
27275.8
6.18952
6.99035
7.7561
9.78595
11.8708
14.4859
24.0053
47.8647
137.873
2970.42
23805
31855.5
5.94117
6.77051
7.58419
9.8606
12.5656
14.2314
16.025
17.4507
18.9197
74.2615
13404.7
36394.2
3.33917
3.50147
3.83321
4.34908
5.0687
6.01284
7.196
8.61756
10.2488
11.9793
13.7108
15.0006
3.18034
3.34434
3.67765
4.18897
4.88845
5.78875
6.90558
8.24931
9.82652
11.5907
13.8649
15.9019
2.86642
3.02644
3.35618
3.87805
4.63206
5.67613
7.07289
8.88536
11.1635
13.7238
16.836
19.3578
2.40703
2.55074
2.84519
3.30175
3.93437
4.76276
5.82261
7.16812
8.98899
10.9266
14.6501
23.2861
3.77056
1.88805
-0.776674
4.27464
2.129
-0.757095
4.69694
2.70255
-0.656866
5.72558
3.56342
-0.546502
7.18964
4.71739
-0.177899
9.26145
6.03082
0.512926
13.7406
8.11802
1.49017
10.9497
7.99727
3.80219
20.0739
20.6385
2.11501
9.33851
30.6778
19.515
-51.2742
165.436
15.0959
30944.4
7279.47
-1.63688
58.6389
-65.1363
273.575
3808.67
7643.48
2996.73
8874.84
15123.2
213.768
15189.5
12485.8
3.33176
31349.7
13363.8
7.43373
31357.7
15240.2
4.62375
1.82412
1.13939
0.393724
1.93963
1.21242
0.421592
2.1816
1.36326
0.482951
2.57783
1.59951
0.591294
3.18716
1.92778
0.778488
4.11957
2.3649
1.07156
5.54702
2.94776
1.5695
7.68775
3.38262
2.08238
11.3244
5.72581
3.15402
16.2467
5.44048
3.91615
25.7933
6.71999
-10.8324
32.8851
18.2183
40.822
)
;
    }
    water_back_surface
    {
        type            fixedFluxPressure;
        gradient        uniform 0;
        value           nonuniform List<scalar> 
186
(
7966.56
7796.73
7854.65
8285.54
8893.13
9603.71
10572.9
12227
14936
18857.6
22543.4
24564.6
1285.6
617.63
495.293
662.298
1014.38
1525.19
2189.51
3209.24
7092.6
17594.5
24695.3
27275.7
6.19028
6.9908
7.75586
9.78587
11.8709
14.4859
24.0042
47.8622
137.877
2970.09
23804.8
31855.6
5.94198
6.77054
7.58398
9.86071
12.5659
14.2314
16.0242
17.4481
18.9071
74.276
13403.8
36394.2
3.33915
3.50151
3.83354
4.34953
5.06876
6.01226
7.19544
8.61813
10.2508
11.9754
13.7094
14.9977
3.18031
3.34441
3.67781
4.18893
4.88807
5.78861
6.90665
8.25227
9.83592
11.5951
13.8619
15.894
2.86637
3.02643
3.35608
3.87768
4.63168
5.67651
7.07399
8.88481
11.1544
13.7171
16.8234
19.3276
2.40696
2.55064
2.84491
3.30132
3.93428
4.76344
5.82342
7.16799
8.9899
10.9194
14.6075
23.2124
3.77086
1.88805
-0.77675
4.27454
2.12881
-0.757054
4.69671
2.70242
-0.656806
5.72564
3.56355
-0.546678
7.18981
4.71745
-0.178116
9.26143
6.03053
0.512963
13.7399
8.11741
1.49043
10.9476
7.99636
3.80269
20.0698
20.6366
2.11619
9.33653
30.6686
19.5173
-51.23
165.758
15.171
30946.8
7282.57
-1.593
57.3296
-64.0672
258.389
3766.82
7587.36
3036.46
8886.75
15177.5
263.569
15169.7
12511.7
2.86067
31328.6
13328.7
7.46594
31358.3
15222.1
4.68407
1.82403
1.13934
0.393721
1.93953
1.21238
0.421589
2.18143
1.3632
0.482939
2.57768
1.59946
0.591289
3.18713
1.92773
0.778482
4.1194
2.36452
1.07143
5.54593
2.94579
1.569
7.68448
3.37903
2.08082
11.3114
5.72145
3.14661
16.2252
5.41137
3.8868
25.7364
6.68675
-10.7676
32.5843
17.6355
40.6358
)
;
    }
    water_left_surface
    {
        type            fixedFluxPressure;
        gradient        uniform 0;
        value           nonuniform List<scalar> 
42
(
7966.59
7966.55
7966.56
7966.56
7966.53
7966.56
1285.57
1285.55
1285.55
1285.52
1285.51
1285.6
6.18952
6.19001
6.19022
6.19047
6.19062
6.19028
5.94117
5.94139
5.9416
5.94186
5.94203
5.94198
3.77056
3.77071
3.77082
3.77089
3.77091
3.77086
1.88805
1.88809
1.88813
1.88814
1.8881
1.88805
-0.776674
-0.776753
-0.776767
-0.77678
-0.776801
-0.77675
)
;
    }
    water_right_surface
    {
        type            fixedFluxPressure;
        gradient        uniform 0;
        value           nonuniform List<scalar> 
42
(
3.33917
3.33918
3.33918
3.33917
3.33916
3.33915
3.18034
3.18035
3.18034
3.18034
3.18032
3.18031
2.86642
2.86642
2.86641
2.8664
2.86639
2.86637
2.40703
2.40702
2.407
2.40699
2.40697
2.40696
1.82412
1.8241
1.82408
1.82406
1.82404
1.82403
1.13939
1.13937
1.13936
1.13935
1.13934
1.13934
0.393724
0.393721
0.393719
0.393717
0.393716
0.393721
)
;
    }
    water_top_surface
    {
        type            totalPressure;
        rho             rho;
        psi             none;
        gamma           1;
        p0              uniform 0;
        value           nonuniform List<scalar> 
180
(
-1.83772
-1.83806
-1.83805
-1.83807
-1.83811
-1.83778
-1.9352
-1.93548
-1.93542
-1.93539
-1.93539
-1.93501
-1.71134
-1.71151
-1.71141
-1.71135
-1.71137
-1.71113
-1.81414
-1.81447
-1.81448
-1.81452
-1.81463
-1.81448
-1.739
-1.73952
-1.73964
-1.73972
-1.73977
-1.73944
-1.80205
-1.80239
-1.8024
-1.80239
-1.80237
-1.80196
-1.79585
-1.79595
-1.7958
-1.79575
-1.79583
-1.79546
-1.71165
-1.71165
-1.71154
-1.7116
-1.71177
-1.71128
-0.872201
-0.872378
-0.872406
-0.872561
-0.872743
-0.872422
0
0
0
0
0
0
0
0
0
0
0
0
-11.9107
-11.9028
-11.9058
-11.9041
-11.9125
-11.893
0
0
0
0
0
0
0
0
0
0
0
0
-11.5974
-11.6234
-11.4988
-12.065
-15.3449
-9.98338
-27.4804
-27.4778
-27.4317
-27.2529
-26.4925
-27.7807
-1.73741
-1.73726
-1.72687
-1.70456
-1.66474
-1.73178
-2.32424
-2.31611
-2.31025
-2.32135
-2.34618
-2.2737
0
0
0
0
0
0
0
0
0
0
0
0
0
0
0
0
0
0
0
0
0
0
0
0
0
0
0
0
0
0
0
0
0
0
0
0
0
0
0
0
0
0
0
0
0
0
0
0
0
0
0
0
0
0
0
0
0
0
0
0
0
0
0
0
0
0
-0.768578
-0.76108
-0.759816
-0.774592
-0.742099
-0.800651
)
;
    }
}


// ************************************************************************* //
