/*--------------------------------*- C++ -*----------------------------------*\
| =========                 |                                                 |
| \\      /  F ield         | OpenFOAM: The Open Source CFD Toolbox           |
|  \\    /   O peration     | Version:  v1612+                                |
|   \\  /    A nd           | Web:      www.OpenFOAM.com                      |
|    \\/     M anipulation  |                                                 |
\*---------------------------------------------------------------------------*/
FoamFile
{
    version     2.0;
    format      ascii;
    class       surfaceScalarField;
    location    "3.45";
    object      phi;
}
// * * * * * * * * * * * * * * * * * * * * * * * * * * * * * * * * * * * * * //

dimensions      [0 3 -1 0 0 0 0];

internalField   nonuniform List<scalar> 
2916
(
3.15299e-06
0.381861
-0.381864
8.41536e-06
0.381862
-0.381867
9.01559e-06
0.381863
-0.381864
4.41998e-06
0.381865
-0.381861
7.82154e-07
0.381865
-0.381862
0.381859
-0.381858
8.89769e-06
0.735437
-0.353585
9.03766e-06
0.735445
-0.353584
1.29208e-05
0.735445
-0.353586
4.66206e-06
0.735446
-0.353573
-1.03986e-05
0.735448
-0.353568
0.735437
-0.353589
1.22394e-05
0.945538
-0.210113
8.93767e-06
0.945554
-0.210105
1.07827e-05
0.945551
-0.210108
4.07262e-06
0.945552
-0.210099
-1.05094e-05
0.945556
-0.210093
0.945539
-0.210112
1.31024e-05
1.09241
-0.146888
8.48914e-06
1.09244
-0.146877
8.53817e-06
1.09243
-0.14688
3.81403e-06
1.09243
-0.146875
-8.18165e-06
1.09244
-0.146868
1.09242
-0.146884
1.20137e-05
1.20255
-0.11015
7.49699e-06
1.20258
-0.110137
6.14051e-06
1.20257
-0.11014
2.54187e-06
1.20257
-0.110137
-6.45992e-06
1.20258
-0.110131
1.20255
-0.110144
1.00266e-05
1.2718
-0.0692637
6.58213e-06
1.27183
-0.0692526
3.94853e-06
1.27183
-0.0692539
3.3139e-07
1.27183
-0.0692522
-5.2885e-06
1.27183
-0.0692489
1.27181
-0.069258
6.31724e-06
1.28583
-0.0140307
4.81702e-06
1.28586
-0.014024
1.30895e-06
1.28586
-0.014023
-1.99238e-06
1.28585
-0.0140219
-3.84385e-06
1.28585
-0.0140219
1.28583
-0.0140256
4.47791e-06
1.14278
0.143048
4.27014e-06
1.1428
0.143055
-3.9217e-07
1.1428
0.143058
-4.54342e-06
1.1428
0.143059
-4.86764e-06
1.1428
0.143054
1.14277
0.143056
4.43762e-06
0.737406
0.405365
4.59826e-06
0.737434
0.405369
-1.21938e-06
0.737435
0.405373
-6.81538e-06
0.737431
0.405373
-1.0267e-05
0.737439
0.405364
0.737386
0.405371
5.85046e-06
0.151777
0.585624
4.13427e-06
0.151806
0.585629
-1.64913e-06
0.15181
0.585631
-6.89114e-06
0.151806
0.585631
-1.41678e-05
0.151822
0.585624
0.151743
0.585629
1.81385e-05
-0.249704
0.401462
4.36919e-06
-0.249674
0.401493
-9.62838e-07
-0.24967
0.401486
-5.13406e-06
-0.249673
0.401483
-1.86681e-05
-0.249652
0.401488
-0.24973
0.401454
-2.01922e-05
-0.249684
-2.08864e-05
-0.249673
-1.43488e-05
-0.249677
-4.32605e-06
-0.249683
2.15916e-05
-0.249678
-0.249708
-1.13639e-05
0.675483
-1.05734
-4.69163e-06
0.675475
-1.05735
2.1912e-05
0.675485
-1.05738
2.61595e-05
0.675472
-1.05734
4.68533e-06
0.675464
-1.0573
0.675505
-1.05736
-1.23999e-05
1.19919
-0.877278
-5.90421e-06
1.19918
-0.877293
2.91891e-05
1.19918
-0.877317
3.76314e-05
1.19917
-0.877275
6.17269e-06
1.19916
-0.877237
1.19921
-0.877292
3.50538e-06
1.53725
-0.548183
4.87158e-06
1.53726
-0.548194
2.54553e-05
1.53725
-0.548201
3.03713e-05
1.53724
-0.548178
3.00913e-06
1.53725
-0.548155
1.53727
-0.54817
1.9392e-05
1.74127
-0.350927
1.16301e-05
1.74132
-0.350923
2.62004e-05
1.74129
-0.350929
2.65303e-05
1.74128
-0.350912
-7.08658e-06
1.74131
-0.350886
1.74129
-0.350903
3.38141e-05
1.89354
-0.262445
1.3815e-05
1.89362
-0.262413
2.31466e-05
1.89357
-0.262428
2.24914e-05
1.89356
-0.262418
-1.58081e-05
1.8936
-0.262385
1.89354
-0.262416
4.58468e-05
2.03915
-0.214928
1.35241e-05
2.03926
-0.214869
1.82345e-05
2.0392
-0.214892
1.85798e-05
2.03919
-0.214888
-2.17634e-05
2.03924
-0.214849
2.03916
-0.214896
5.28834e-05
2.1901
-0.16503
1.14182e-05
2.19024
-0.164955
1.25376e-05
2.19017
-0.16499
1.2876e-05
2.19016
-0.164991
-2.59279e-05
2.19021
-0.164954
2.19011
-0.165008
5.80294e-05
2.06428
0.26881
1.09647e-05
2.06445
0.268886
1.00414e-05
2.06437
0.26885
9.20565e-06
2.06437
0.268847
-3.03628e-05
2.06443
0.268877
2.06432
0.268823
8.06679e-05
1.58324
0.886323
2.08034e-05
1.58342
0.886461
1.41035e-05
1.58334
0.886411
6.8672e-06
1.58334
0.886411
-4.39603e-05
1.5834
0.886446
1.58329
0.886357
5.06298e-05
1.03535
1.13347
2.79026e-05
1.03554
1.13353
1.41222e-05
1.03547
1.13351
-3.79556e-07
1.03547
1.13351
-3.07616e-05
1.03553
1.13352
1.03539
1.13349
4.64916e-05
0.473441
0.963323
1.70979e-05
0.473621
0.963442
7.51709e-06
0.473576
0.963394
-3.69385e-06
0.473575
0.963394
-2.65627e-05
0.473623
0.963416
0.47348
0.963341
-6.20673e-05
0.22382
-2.59152e-05
0.223912
-8.86885e-06
0.223882
4.82993e-06
0.223878
4.4731e-05
0.223905
0.223817
-0.000124112
0.261316
-1.31853
-6.59163e-05
0.261285
-1.3187
-2.79805e-05
0.261278
-1.31869
3.86078e-05
0.261273
-1.31868
0.000129583
0.26128
-1.31867
0.261313
-1.31854
-0.000119268
0.551348
-1.16719
-4.95455e-05
0.551291
-1.16737
6.3734e-07
0.551275
-1.16736
6.31005e-05
0.551276
-1.16734
0.000149375
0.5513
-1.16734
0.551351
-1.16718
-9.50955e-05
0.994295
-0.991037
-3.16386e-05
0.99424
-0.991209
1.52286e-05
0.994221
-0.991195
6.13478e-05
0.994228
-0.991176
0.000126041
0.99426
-0.991179
0.994312
-0.991004
-0.000102369
1.68267
-1.0392
-3.95299e-05
1.68262
-1.03937
7.81031e-06
1.6826
-1.03935
5.71344e-05
1.68261
-1.03934
0.00012927
1.68264
-1.03934
1.6827
-1.03916
-0.000113007
2.56347
-1.14313
-6.12273e-05
2.56342
-1.14326
-1.74629e-05
2.56338
-1.14325
3.45868e-05
2.56338
-1.14325
0.000106892
2.56343
-1.14324
2.56348
-1.14309
-0.000134164
3.64761
-1.29894
-0.000120687
3.64756
-1.29902
-6.42191e-05
3.64748
-1.29904
9.8311e-06
3.64746
-1.29904
7.13592e-05
3.64753
-1.29901
3.64757
-1.29892
-0.000164966
4.53033
-1.04758
-0.000126606
4.53023
-1.04767
-8.93032e-05
4.53018
-1.04774
-2.87259e-05
4.53018
-1.04777
8.48609e-05
4.53021
-1.04775
4.53031
-1.04767
-4.90268e-05
4.00957
0.789613
-1.74904e-05
4.00961
0.789477
-2.53503e-05
4.00958
0.789461
-4.13449e-05
4.00958
0.789453
4.75964e-05
4.00959
0.789402
4.00963
0.789555
7.20509e-05
2.17276
2.72306
5.37999e-06
2.17277
2.72336
5.34923e-06
2.17274
2.72324
-9.48597e-08
2.17276
2.72324
-3.9295e-05
2.17276
2.72332
2.17275
2.72319
6.5969e-05
0.990248
2.31591
6.06224e-05
0.990505
2.31581
4.40568e-05
0.990394
2.31588
3.86626e-06
0.990403
2.31591
-4.75577e-05
0.990468
2.31586
0.990313
2.31588
0.000189853
0.389405
1.56398
5.13101e-05
0.389729
1.56436
1.7635e-05
0.389618
1.5642
-2.19106e-06
0.389625
1.56419
-8.25817e-05
0.389711
1.56425
0.389481
1.56409
-0.00012311
0.613348
-2.38049e-05
0.613542
-7.09359e-06
0.613484
1.21294e-05
0.613484
9.39117e-05
0.613534
0.613392
-1.63518e-05
-0.334163
-0.984348
-5.02074e-06
-0.334131
-0.984572
-1.11289e-05
-0.334144
-0.984539
-1.28176e-05
-0.334142
-0.984529
4.83982e-06
-0.334127
-0.98456
-0.334193
-0.984339
2.13936e-06
-0.528361
-0.972999
6.59337e-06
-0.528267
-0.973239
-1.15156e-05
-0.528287
-0.973202
-9.23389e-06
-0.528282
-0.973198
1.76002e-05
-0.528252
-0.973238
-0.528388
-0.972966
-8.21489e-07
-0.63031
-0.889087
5.88902e-06
-0.630153
-0.889329
-9.58156e-06
-0.630176
-0.88929
-6.31442e-06
-0.630172
-0.889289
2.71912e-05
-0.630132
-0.889332
-0.630315
-0.889051
-5.66729e-05
-0.645915
-1.02354
-4.12292e-05
-0.645747
-1.02379
-4.7056e-05
-0.645778
-1.02374
-3.06995e-05
-0.645778
-1.02375
3.62225e-05
-0.645744
-1.0238
-0.64592
-1.02352
-0.000108335
-0.684978
-1.10396
-7.6519e-05
-0.684845
-1.10419
-6.80155e-05
-0.684887
-1.10415
-4.15729e-05
-0.684896
-1.10416
4.83755e-05
-0.684869
-1.10421
-0.685005
-1.10396
-0.000138576
-0.669481
-1.31429
-7.94928e-05
-0.66943
-1.3145
-6.20937e-05
-0.669473
-1.31447
-2.78418e-05
-0.669498
-1.31448
8.82269e-05
-0.669501
-1.3145
-0.669527
-1.31431
-0.000179549
0.0623487
-1.77923
-3.66912e-05
0.0621505
-1.77939
2.71035e-06
0.0621472
-1.7794
6.03076e-05
0.0621203
-1.77945
0.000280509
0.0620061
-1.77948
0.0623679
-1.77928
-2.90077e-05
1.71718
-0.865203
9.14889e-05
1.71705
-0.865548
0.000113409
1.71705
-0.865476
9.04279e-05
1.71704
-0.865445
0.000170119
1.71692
-0.865591
1.71727
-0.86518
0.000870161
1.47769
2.96168
0.000122064
1.47957
2.96159
0.000125092
1.47869
2.9616
0.000121858
1.47862
2.96166
-0.000431244
1.47918
2.96162
1.47834
2.9617
-0.000137269
-0.0458261
3.83957
4.84788e-05
-0.0436136
3.83879
4.56386e-05
-0.0445976
3.83917
-1.33515e-05
-0.0446501
3.83924
-8.4566e-06
-0.0439601
3.83899
-0.0450313
3.83924
0.000184274
0.197571
1.32039
0.000139203
0.197921
1.32287
2.11181e-05
0.197794
1.32193
-2.60638e-05
0.197766
1.32182
-8.04466e-05
0.197786
1.32256
0.197735
1.32124
-9.4906e-05
0.811014
6.28777e-06
0.811362
2.4585e-05
0.811259
3.13315e-05
0.811243
1.68662e-05
0.811334
0.811144
-1.79803e-06
-0.0101283
0.01013
-2.69932e-06
-0.010129
0.0101301
-2.95928e-06
-0.0101296
0.0101301
-2.60181e-06
-0.0101302
0.0101301
-1.66183e-06
-0.0101307
0.0101301
-0.0101314
0.0101301
-2.66091e-06
-0.0206884
0.0105626
-3.78892e-06
-0.0206903
0.0105636
-4.31858e-06
-0.0206919
0.010564
-3.9749e-06
-0.0206935
0.0105642
-2.63631e-06
-0.0206951
0.0105642
-0.020697
0.0105639
-3.91604e-06
-0.0322086
0.0115247
-6.1e-06
-0.0322135
0.0115279
-7.42512e-06
-0.0322175
0.011529
-7.20973e-06
-0.0322211
0.0115293
-5.01888e-06
-0.0322246
0.0115288
-0.0322288
0.0115276
-7.89155e-06
-0.045246
0.0130467
-1.2834e-05
-0.0452571
0.0130498
-1.51181e-05
-0.0452644
0.0130499
-1.444e-05
-0.04527
0.0130486
-1.02068e-05
-0.0452748
0.013046
-0.0452814
0.0130419
-1.79385e-05
-0.0603246
0.0150972
-2.43772e-05
-0.0603437
0.0150914
-2.46462e-05
-0.0603523
0.0150864
-2.09583e-05
-0.0603564
0.0150809
-1.37503e-05
-0.0603585
0.0150748
-0.0603637
0.0150676
-3.38219e-05
-0.0775506
0.0172587
-3.37219e-05
-0.0775741
0.0172269
-2.38008e-05
-0.0775758
0.0172109
-1.28306e-05
-0.0775694
0.0171999
-4.87709e-06
-0.0775599
0.017192
-0.0775553
0.0171862
-3.89146e-05
-0.0963135
0.0188
-1.47641e-05
-0.0963275
0.0187267
1.90616e-05
-0.0963088
0.0186976
4.13504e-05
-0.0962791
0.0186861
3.93319e-05
-0.096245
0.0186861
-0.0962138
0.0186968
-1.21222e-05
-0.113373
0.0170705
6.23197e-05
-0.113364
0.0169606
0.00013421
-0.113316
0.0169347
0.000163506
-0.113252
0.0169429
0.000129266
-0.113186
0.0169741
-0.113116
0.0170304
6.62045e-05
-0.123396
0.00995632
0.00019217
-0.123344
0.00985411
0.000278458
-0.123278
0.009876
0.000297944
-0.123223
0.00995015
0.000227142
-0.123169
0.0100539
-0.123071
0.0101831
9.833e-05
-0.116387
-0.0071068
0.000275334
-0.116294
-0.00722452
0.000294765
-0.116246
-0.00705074
0.000261606
-0.116195
-0.00699398
0.000348563
-0.116125
-0.00712955
-0.116048
-0.00667423
0.000111949
-0.0760444
-0.0404544
0.000148378
-0.0759753
-0.0403533
0.000150387
-0.0759368
-0.0403108
0.000140621
-0.075903
-0.0402798
0.000110319
-0.0758542
-0.0402396
-0.0757785
-0.0401588
-5.47533e-05
-0.0759896
-0.000108687
-0.0759205
-0.000133848
-0.0759116
-0.000140495
-0.0758954
-0.000116082
-0.0758774
-0.0758938
-2.02778e-06
-0.00987257
0.0200046
-3.02219e-06
-0.00987388
0.0200046
-3.16482e-06
-0.00987478
0.0200049
-2.67597e-06
-0.00987551
0.0200051
-1.66053e-06
-0.00987614
0.0200053
-0.00987682
0.0200055
-3.95359e-06
-0.0198983
0.0205926
-4.71351e-06
-0.0199014
0.0205936
-4.57097e-06
-0.0199034
0.0205942
-3.74152e-06
-0.0199051
0.0205945
-2.24215e-06
-0.0199065
0.0205945
-0.0199082
0.020594
-6.54135e-06
-0.0299553
0.0215901
-7.49619e-06
-0.0299622
0.0215929
-6.9737e-06
-0.0299661
0.0215939
-5.57031e-06
-0.029969
0.0215941
-3.35962e-06
-0.0299714
0.0215933
-0.0299748
0.0215914
-9.02466e-06
-0.0394365
0.0225388
-9.805e-06
-0.0394504
0.02254
-8.36384e-06
-0.0394562
0.0225392
-6.33681e-06
-0.0394594
0.022537
-4.07403e-06
-0.0394615
0.0225334
-0.0394657
0.0225281
-8.11108e-06
-0.0471973
0.0228656
-5.60878e-06
-0.0472191
0.0228546
-7.80667e-07
-0.047224
0.0228468
2.08791e-06
-0.0472231
0.0228396
1.99564e-06
-0.0472201
0.022832
-0.0472201
0.0228237
-1.38929e-06
-0.05185
0.0219102
1.2722e-05
-0.0518825
0.0218718
2.56123e-05
-0.0518813
0.0218523
2.93763e-05
-0.0518684
0.0218399
2.1492e-05
-0.0518524
0.0218315
-0.0518401
0.0218273
4.67266e-05
-0.0525442
0.0194451
8.08478e-05
-0.0525617
0.0193691
9.75436e-05
-0.0525412
0.0193395
9.28526e-05
-0.0525077
0.0193292
6.28638e-05
-0.0524699
0.0193324
-0.052431
0.0193498
0.000108057
-0.050176
0.0145933
0.000168257
-0.0501621
0.0145
0.000188685
-0.0501143
0.0144869
0.000170881
-0.0500502
0.0145021
0.000110521
-0.0499769
0.0145405
-0.0498962
0.0146063
0.000187596
-0.0498636
0.00945642
0.000219833
-0.0497735
0.00943396
0.000200932
-0.0496719
0.00945325
0.000148556
-0.0495423
0.00949451
7.13978e-05
-0.0493974
0.0095525
-0.0492697
0.00962847
0.000265798
-0.0579646
0.000729073
0.000292499
-0.0577872
0.000763346
0.000339646
-0.0576474
0.000878546
0.000331104
-0.0575258
0.00100031
9.16099e-05
-0.0574158
0.00112889
-0.0571726
0.00132087
2.28773e-05
-0.0331267
-0.0653137
-0.000105425
-0.032979
-0.0650314
-0.000221116
-0.0328778
-0.0649644
-0.000227886
-0.0327862
-0.0650102
-3.60922e-05
-0.0327156
-0.0651305
-0.0326203
-0.0647473
-0.000173418
-0.108942
-0.000276147
-0.108795
-0.000311835
-0.108753
-0.000318173
-0.108675
-9.77694e-05
-0.108815
-0.108611
-9.97449e-07
-0.00959613
0.0296015
-1.77601e-06
-0.00959706
0.0296016
-1.89065e-06
-0.00959749
0.0296018
-1.55824e-06
-0.00959775
0.029602
-9.88174e-07
-0.00959784
0.0296021
-0.00959782
0.0296021
-2.80896e-06
-0.0199969
0.030996
-2.70928e-06
-0.019999
0.0309967
-2.15388e-06
-0.0199998
0.0309971
-1.34242e-06
-0.0200003
0.0309974
-5.58755e-07
-0.0200004
0.0309973
-0.0200003
0.0309967
-4.39481e-06
-0.0324026
0.0340019
-3.17957e-06
-0.0324074
0.0340036
-1.52203e-06
-0.0324091
0.0340043
4.87581e-08
-0.0324098
0.0340043
8.9038e-07
-0.0324095
0.0340033
-0.0324088
0.0340015
-4.58685e-06
-0.0486243
0.038767
-1.69337e-06
-0.0486349
0.0387659
1.997e-06
-0.0486371
0.038764
4.29546e-06
-0.0486362
0.0387613
4.138e-06
-0.0486332
0.0387573
-0.0486287
0.0387522
-2.03716e-06
-0.0712104
0.0454531
5.56806e-06
-0.0712287
0.0454382
1.33789e-05
-0.0712285
0.0454279
1.6942e-05
-0.0712211
0.0454192
1.37053e-05
-0.0712093
0.0454106
-0.0711939
0.0454028
9.84615e-06
-0.102832
0.0535191
2.98794e-05
-0.102853
0.0534726
4.52432e-05
-0.102842
0.0534477
4.89187e-05
-0.102818
0.0534321
3.62817e-05
-0.102787
0.0534223
-0.102751
0.0534202
3.57761e-05
-0.144968
0.0615436
7.63148e-05
-0.144978
0.0614523
0.000102701
-0.144945
0.0614151
0.000104231
-0.144893
0.0614022
7.29727e-05
-0.144833
0.0614078
-0.144765
0.0614356
8.93431e-05
-0.194864
0.0643989
0.000146174
-0.194824
0.0642888
0.000170832
-0.194752
0.0642681
0.000155578
-0.194667
0.0642902
9.92118e-05
-0.194583
0.0643466
-0.194505
0.064445
0.000134317
-0.230339
0.0447974
0.000212277
-0.230226
0.0447588
0.000239145
-0.23013
0.044803
0.000209228
-0.230034
0.0448914
0.000129582
-0.22996
0.0450092
-0.229931
0.0451839
7.49999e-05
-0.249981
0.0202979
2.26365e-05
-0.249868
0.0204583
-3.32181e-05
-0.2498
0.020605
-9.85798e-05
-0.249746
0.0207797
-0.000133301
-0.249715
0.0209181
-0.249819
0.0210748
-0.000183936
-0.122084
-0.193026
-0.000305822
-0.121986
-0.19279
-0.000387927
-0.121904
-0.19278
-0.000343667
-0.121834
-0.192967
-0.000139794
-0.121772
-0.193277
-0.12182
-0.192887
-0.000268101
-0.230758
-7.10231e-05
-0.230977
0.000244785
-0.230973
9.03402e-05
-0.230356
-0.000476912
-0.230021
-0.230909
-4.8941e-07
-0.00840057
0.0380019
-1.01871e-06
-0.00840148
0.0380019
-9.61454e-07
-0.00840162
0.038002
-7.26303e-07
-0.00840155
0.0380021
-5.03775e-07
-0.0084013
0.0380021
-0.00840103
0.0380022
-1.67262e-06
-0.0170584
0.0396549
-9.30372e-07
-0.0170598
0.0396551
-8.49442e-08
-0.0170598
0.0396553
5.3852e-07
-0.0170592
0.0396553
6.05768e-07
-0.0170584
0.039655
-0.0170575
0.0396547
-1.03644e-06
-0.0258561
0.0428025
1.49769e-06
-0.0258581
0.0428029
3.63809e-06
-0.0258573
0.0428027
4.54748e-06
-0.0258556
0.042802
3.70119e-06
-0.0258533
0.042801
-0.0258512
0.0427998
4.44096e-06
-0.0340317
0.0469402
1.01497e-05
-0.0340345
0.046938
1.36718e-05
-0.0340317
0.0469355
1.39166e-05
-0.034027
0.0469326
9.96978e-06
-0.0340213
0.0469293
-0.0340153
0.0469261
1.88581e-05
-0.0397223
0.0511242
2.87599e-05
-0.0397224
0.0511134
3.22658e-05
-0.0397153
0.0511057
2.95498e-05
-0.0397056
0.0510992
1.96779e-05
-0.0396945
0.0510933
-0.0396823
0.051089
4.30306e-05
-0.0401298
0.0538812
5.49695e-05
-0.0401196
0.0538549
5.31129e-05
-0.040108
0.0538406
4.31121e-05
-0.0400955
0.0538315
2.53203e-05
-0.040081
0.0538262
-0.0400646
0.0538262
6.80935e-05
-0.0326018
0.0539461
6.81657e-05
-0.032573
0.0539043
4.91524e-05
-0.0325641
0.0538893
2.7107e-05
-0.032558
0.0538858
7.92525e-06
-0.0325478
0.0538914
-0.032531
0.0539086
5.15265e-05
-0.0139969
0.0457418
3.05457e-06
-0.0139405
0.0457036
-5.95353e-05
-0.0139457
0.0457109
-9.07228e-05
-0.0139738
0.0457356
-7.25938e-05
-0.013995
0.0457746
-0.0139861
0.0458273
-5.07926e-05
0.0082692
0.0225817
-0.00022939
0.00840963
0.0225862
-0.000372789
0.00839404
0.0226055
-0.000379768
0.00828843
0.022636
-0.000181084
0.0081422
0.0226735
0.00834319
0.0226732
-0.000168626
-0.00140116
0.0301372
-0.000403363
-0.00110021
0.0302027
-0.000547292
-0.00112088
0.0302631
-0.000509411
-0.00141756
0.0304473
-0.000159831
-0.00200867
0.0307192
-0.00109325
0.0303511
0.000231858
-0.0480017
-0.146657
-0.000375215
-0.047184
-0.146097
-0.00166657
-0.046662
-0.145947
-0.0010655
-0.0483919
-0.146596
0.00278266
-0.0520312
-0.147102
-0.0450879
-0.146109
0.000417827
-0.279179
0.00074829
-0.278492
0.000349007
-0.277236
0.00112263
-0.279521
0.00214518
-0.283076
-0.273851
2.64892e-05
-1.03753
0.0531568
5.58774e-06
-1.03772
0.0531661
-1.23698e-05
-1.03769
0.0531664
-2.37229e-05
-1.03768
0.0531671
-3.34923e-05
-1.03772
0.0531677
-1.03753
0.0531552
3.66109e-05
-1.02763
-0.00993398
1.2136e-05
-1.02776
-0.00993534
-1.08254e-06
-1.02774
-0.00993614
-1.22694e-05
-1.02774
-0.00993673
-3.71415e-05
-1.02776
-0.00993741
-1.02763
-0.00993921
2.56835e-05
0.0123479
1.03401e-05
0.0123476
2.35757e-06
0.0123474
-6.44685e-06
0.0123469
-2.48642e-05
0.0123463
0.0123464
3.19524e-05
-1.07743
0.157557
9.53114e-06
-1.07762
0.157572
-6.73237e-06
-1.07759
0.157573
-1.91836e-05
-1.07759
0.15757
-3.70745e-05
-1.07762
0.157569
-1.07741
0.157555
3.83467e-05
-1.06136
-0.0260445
1.10036e-05
-1.06148
-0.0260495
-5.65364e-06
-1.06146
-0.02605
-2.14929e-05
-1.06146
-0.0260497
-5.05574e-05
-1.06148
-0.0260498
-1.06135
-0.026048
2.63515e-05
0.0180651
9.69172e-06
0.0180644
5.5202e-07
0.0180639
-9.44973e-06
0.0180635
-2.98251e-05
0.0180627
0.0180642
2.07423e-05
-1.00433
0.272782
2.66315e-06
-1.00453
0.272787
-7.19084e-06
-1.00449
0.272787
-1.83279e-05
-1.00449
0.272784
-3.61334e-05
-1.00453
0.272784
-1.00431
0.272776
3.91408e-05
-1.00114
-0.0292794
8.3734e-06
-1.00126
-0.0292883
-1.02023e-05
-1.00124
-0.0292864
-2.69185e-05
-1.00124
-0.0292848
-5.80641e-05
-1.00126
-0.0292844
-1.00113
-0.0292737
2.3942e-05
0.0224521
6.18413e-06
0.0224526
-3.43553e-06
0.0224522
-1.17188e-05
0.022452
-2.87317e-05
0.0224516
0.0224522
1.85147e-05
-1.08842
0.337644
2.74736e-06
-1.08862
0.337634
-6.29912e-06
-1.08858
0.337635
-2.15171e-05
-1.08858
0.337633
-4.34029e-05
-1.08862
0.337628
-1.08841
0.337631
3.7865e-05
-1.05081
-0.0669261
9.58504e-06
-1.05093
-0.0669421
-5.59369e-06
-1.05091
-0.0669366
-1.88785e-05
-1.05091
-0.0669338
-4.70232e-05
-1.05093
-0.0669351
-1.05082
-0.0669125
2.45899e-05
0.00758418
5.86243e-06
0.00758568
-3.21725e-06
0.00758492
-1.00544e-05
0.00758455
-2.4354e-05
0.00758474
0.00758263
1.73313e-05
-1.07624
0.309909
7.10046e-06
-1.07643
0.309896
6.44671e-07
-1.0764
0.309897
-1.36096e-05
-1.0764
0.309898
-3.27156e-05
-1.07644
0.30989
-1.07625
0.309899
4.55644e-05
-1.03428
-0.108929
1.86099e-05
-1.0344
-0.108947
4.57513e-06
-1.03439
-0.108943
-9.18404e-06
-1.03439
-0.108942
-3.99192e-05
-1.03441
-0.108944
-1.03429
-0.108925
2.41564e-05
-0.0120698
6.74723e-06
-0.012067
-1.72729e-06
-0.0120685
-8.8048e-06
-0.0120695
-2.37099e-05
-0.012069
-0.0120733
2.62728e-05
-1.09568
0.0912698
1.02807e-05
-1.09585
0.091264
-4.14307e-06
-1.09582
0.0912626
-9.32099e-06
-1.09582
0.0912457
-1.70156e-05
-1.09584
0.0912383
-1.09569
0.0912601
3.62517e-05
-1.05642
-0.148227
1.59285e-05
-1.05653
-0.148243
4.19236e-06
-1.05652
-0.148237
-6.51946e-06
-1.05652
-0.148234
-3.19892e-05
-1.05654
-0.148225
-1.05641
-0.148237
2.00186e-05
-0.0381756
4.6671e-06
-0.0381696
-4.46801e-06
-0.038173
-1.0212e-05
-0.0381756
-2.23932e-05
-0.0381748
-0.0381778
2.19813e-05
-1.19025
-0.497723
1.98727e-05
-1.19039
-0.497744
1.07343e-05
-1.19037
-0.497759
3.08901e-06
-1.19039
-0.497807
-2.79187e-06
-1.19042
-0.497818
-1.19026
-0.497765
1.84e-05
-0.971007
-0.367495
4.19738e-06
-0.971115
-0.367501
-3.02251e-07
-0.971103
-0.367504
-1.5823e-05
-0.971104
-0.367507
-5.35229e-05
-0.971134
-0.367477
-0.971007
-0.367541
2.01653e-05
0.017144
2.75227e-06
0.0171582
-6.41074e-06
0.0171463
-9.48048e-06
0.0171368
-1.98664e-05
0.0171347
0.0171365
6.69304e-05
-1.71538
0.352395
7.43759e-05
-1.71566
0.352357
8.19625e-05
-1.71559
0.352344
3.36051e-05
-1.71554
0.35233
-5.79459e-05
-1.71563
0.352309
-1.71541
0.352402
3.15762e-05
-1.14157
-0.941346
-2.61186e-05
-1.14172
-0.941392
-4.22974e-05
-1.1417
-0.941377
-3.2607e-05
-1.1417
-0.941353
-4.8955e-05
-1.14177
-0.941326
-1.14164
-0.941361
4.93443e-05
-0.140225
-4.0946e-06
-0.140191
-2.09829e-05
-0.140222
-6.714e-06
-0.140249
-2.30941e-05
-0.140239
-0.140262
0.000369839
1.36946
1.94423
0.000189754
1.36915
1.94496
0.000282579
1.3693
1.94455
0.000231515
1.36948
1.94455
-4.3008e-05
1.3694
1.94479
1.36952
1.94453
0.000127664
-0.162896
0.590882
-5.7744e-05
-0.163138
0.591081
-4.83253e-05
-0.163042
0.590954
6.01811e-05
-0.162952
0.590972
0.000194991
-0.163007
0.590945
-0.162904
0.591258
-3.06937e-05
0.444708
-0.000179218
0.444705
-0.000208996
0.444628
-0.000100332
0.444566
5.77639e-05
0.44452
0.444673
0.000448353
3.8311
1.95225
5.15629e-05
3.83122
1.95293
0.000115527
3.8312
1.95245
0.000164044
3.8313
1.95245
-3.88624e-05
3.83122
1.95276
3.83133
1.9524
0.00040759
4.01518
0.406386
4.87931e-05
4.01565
0.407012
-0.000158069
4.01557
0.406792
0.000116177
4.01574
0.406257
0.00122525
4.01581
0.405238
4.01562
0.408191
0.000515916
0.827306
0.000129469
0.8282
-1.10596e-05
0.827765
-6.75472e-05
0.827546
-0.000262686
0.827847
0.826838
-0.000292026
2.41822
0.854715
0.00017186
2.41991
0.855428
-1.3703e-06
2.41933
0.855221
-3.51025e-05
2.4191
0.8552
0.000225078
2.41932
0.855747
2.41907
0.854795
0.00053759
3.68128
-0.857217
0.000346797
3.68432
-0.857204
0.000222999
3.68337
-0.857123
-8.09216e-06
3.68351
-0.857912
-0.000762841
3.68524
-0.859926
3.68103
-0.854529
-0.000486007
0.0968623
-0.000273844
0.0979305
-0.000355444
0.0972931
-0.000237588
0.0968309
0.000765078
0.0971049
0.0955444
5.31298e-05
0.889065
0.776611
7.26247e-05
0.889971
0.776799
3.14435e-05
0.889677
0.776843
2.92499e-05
0.88962
0.776826
-5.34524e-05
0.889939
0.777224
0.889329
0.776556
0.000320978
-1.04064
1.07216
0.000241425
-1.03961
1.07246
0.000489276
-1.04011
1.07241
1.15079e-06
-1.04015
1.07235
-0.00148079
-1.04086
1.07235
-1.03931
1.07263
-0.00134249
1.47467
-0.00221618
1.47503
-0.00290111
1.47397
-0.00193127
1.47152
0.00104603
1.46952
1.47218
-0.00190381
0.0767006
-2.95324
2.87844
-0.000217831
0.0709102
-2.95403
2.88144
0.00193789
0.0708924
-2.95439
2.88134
0.000159651
0.0764274
-2.95277
2.87812
0.0262392
0.0480271
-2.95446
2.88035
0.108045
-2.96172
2.87992
0.00378633
2.13877
-0.767967
-1.29789
-0.00253664
2.146
-0.769653
-1.29912
-0.0100701
2.14416
-0.773473
-1.29226
-0.00508009
2.14519
-0.767168
-1.30659
-0.0442905
2.16312
-0.799935
-1.27595
2.14151
-0.750349
-1.32741
0.00956338
-1.8121
-0.354469
0.00144773
-1.82328
-0.345174
0.00180803
-1.82227
-0.353591
0.000945287
-1.8087
-0.349183
-0.0533849
-1.819
-0.35175
-1.77443
-0.368931
-0.000178119
-1.10586
-1.84719
-0.000805913
-1.10671
-1.8467
-0.00192384
-1.10674
-1.84653
0.000514007
-1.10574
-1.84947
0.00574889
-1.10518
-1.85451
-1.10865
-1.84733
0.000199622
1.01457
-2.8886
-0.00221748
1.01562
-2.88956
-0.00909548
1.01572
-2.88905
-1.01492e-05
1.01328
-2.89527
0.0136618
1.00186
-2.92065
1.02515
-2.87049
0.00320233
-3.86379
-0.00122377
-3.86849
-0.00428744
-3.86908
0.0048122
-3.86167
-0.00757205
-3.829
-3.847
-0.000291304
-0.672981
-1.17392
-0.000317116
-0.673182
-1.17349
-0.000189932
-0.673334
-1.17332
0.000289089
-0.674463
-1.17548
0.00171678
-0.678595
-1.17734
-0.672036
-1.17358
-0.000541704
-0.845167
-2.71587
-0.00247798
-0.844855
-2.71595
-0.00959302
-0.840005
-2.71527
-0.00532141
-0.860406
-2.7136
0.0329776
-0.935953
-2.70159
-0.78657
-2.72297
-0.00186821
-3.07022
-0.00597559
-3.06974
-0.015113
-3.06891
-0.0124987
-3.05349
0.0167011
-2.89335
-3.10373
0.000292137
-0.52902
-0.645192
0.000769051
-0.52887
-0.6451
0.00153753
-0.528946
-0.645146
0.00100722
-0.529396
-0.645557
-0.000599402
-0.529567
-0.646169
-0.528896
-0.645279
-0.000266735
-1.47674
-1.76789
-0.000270784
-1.47681
-1.768
0.000252493
-1.47677
-1.76796
-0.000131446
-1.47558
-1.76703
-0.00228301
-1.46368
-1.76533
-1.4859
-1.76826
-0.00582764
-2.18334
-0.0137024
-2.18144
-0.0272974
-2.1775
-0.0409
-2.17026
0.0439512
-2.13454
-2.17451
0.000253632
-0.11812
-0.527326
0.000403141
-0.118016
-0.527234
0.000669972
-0.11817
-0.527243
0.000334365
-0.117527
-0.527695
-0.0010455
-0.116134
-0.528655
-0.119727
-0.526597
-3.43352e-05
-0.3893
-1.49667
0.000183176
-0.389478
-1.49676
-1.66243e-05
-0.389169
-1.49676
-5.96161e-05
-0.387657
-1.49686
0.000672922
-0.384166
-1.49803
-0.391715
-1.49559
-0.00392818
-2.01497
-0.00771912
-2.01371
-0.0118578
-2.01124
-0.0145245
-2.00847
0.00975677
-2.00362
-2.00483
8.4709e-05
0.249201
0.000197411
0.249452
0.000479675
0.249318
0.000160066
0.249451
-0.00119301
0.249923
0.248767
0.000113546
-0.17542
1.64201e-06
-0.174736
-0.000427407
-0.174605
7.67381e-06
-0.175495
0.00144897
-0.177198
-0.172749
-0.00217629
-0.00343623
-0.00426638
-0.00428602
0.000201598
1.00209e-07
0.0445836
-0.00658296
-3.3498e-07
0.0445833
-0.00658314
-4.6924e-07
0.0445834
-0.00658294
-5.31351e-07
0.0445834
-0.00658268
-5.65075e-07
0.0445833
-0.00658237
0.0445835
-0.0065821
-1.03799e-07
0.0485875
-0.00400527
-4.58098e-07
0.0485873
-0.00400537
-6.11847e-07
0.0485873
-0.00400524
-6.77392e-07
0.0485874
-0.00400508
-6.52802e-07
0.0485874
-0.00400489
0.0485877
-0.00400469
-2.26999e-07
-0.00201028
-3.62956e-07
-0.00201029
-4.30441e-07
-0.0020102
-4.42127e-07
-0.0020101
-3.87771e-07
-0.00200999
-0.00200982
-5.30279e-07
0.0472329
-0.0141613
1.56457e-07
0.0472329
-0.014161
6.61471e-07
0.0472328
-0.0141604
8.16781e-07
0.0472328
-0.0141596
6.20484e-07
0.0472326
-0.014159
0.0472326
-0.0141584
-3.40974e-07
0.0512904
-0.00806313
1.09295e-07
0.0512903
-0.00806274
3.51299e-07
0.0512902
-0.00806232
4.0506e-07
0.0512901
-0.00806185
3.23837e-07
0.05129
-0.00806144
0.0512902
-0.00806119
-1.95017e-07
-0.00479372
-4.13195e-08
-0.00479363
4.57707e-08
-0.00479347
1.24193e-07
-0.0047933
2.1671e-07
-0.00479315
-0.004793
8.72972e-07
0.0528849
-0.0242427
2.85629e-06
0.052885
-0.0242417
3.86333e-06
0.0528848
-0.0242408
3.90765e-06
0.0528844
-0.02424
2.94504e-06
0.0528838
-0.0242394
0.0528836
-0.0242391
7.607e-07
0.0568929
-0.01207
1.95993e-06
0.0568926
-0.0120691
2.38729e-06
0.0568922
-0.0120685
2.29122e-06
0.0568919
-0.0120681
1.69054e-06
0.0568915
-0.0120678
0.0568915
-0.012068
5.01932e-07
-0.00946206
8.23739e-07
-0.00946211
9.6317e-07
-0.00946208
9.42348e-07
-0.00946199
7.61021e-07
-0.00946203
-0.00946193
4.56699e-06
0.0622696
-0.0395746
6.97809e-06
0.0622685
-0.0395735
7.728e-06
0.0622672
-0.039573
6.85256e-06
0.0622657
-0.0395726
4.49215e-06
0.0622642
-0.0395726
0.0622631
-0.0395726
3.30923e-06
0.0656494
-0.0154516
4.43373e-06
0.0656486
-0.0154502
4.38698e-06
0.0656478
-0.0154497
3.49002e-06
0.0656471
-0.0154496
1.78332e-06
0.0656464
-0.0154497
0.0656463
-0.0154506
8.7094e-07
-0.0179246
9.91702e-07
-0.017925
1.05208e-06
-0.0179253
6.10273e-07
-0.017925
2.3217e-07
-0.0179254
-0.0179246
8.80772e-06
0.0766319
-0.065092
1.04066e-05
0.076627
-0.0650912
9.88028e-06
0.0766231
-0.0650918
7.77043e-06
0.0766196
-0.0650923
4.79652e-06
0.0766164
-0.0650936
0.0766147
-0.0650943
4.85863e-06
0.0778524
-0.0166781
5.12809e-06
0.077851
-0.0166765
4.04289e-06
0.0778499
-0.0166772
2.45989e-06
0.0778492
-0.0166789
6.18213e-07
0.0778485
-0.0166807
0.0778487
-0.0166837
7.79697e-07
-0.0339043
8.72303e-07
-0.0339043
1.61781e-06
-0.0339053
3.96096e-07
-0.0339026
7.04413e-07
-0.0339047
-0.033902
1.10493e-05
0.0983224
-0.109547
1.0411e-05
0.0983103
-0.109548
7.38647e-06
0.0983033
-0.109552
3.67542e-06
0.0982986
-0.109556
1.73422e-06
0.0982955
-0.109562
0.0982962
-0.109563
7.39966e-06
0.0957548
-0.0141197
6.34189e-06
0.0957528
-0.0141183
2.80873e-06
0.0957513
-0.0141217
-2.61565e-07
0.0957512
-0.0141281
-2.55988e-06
0.0957503
-0.0141332
0.0957511
-0.0141409
1.19068e-07
-0.0611319
-9.83952e-07
-0.06113
1.87086e-06
-0.061137
-1.23606e-06
-0.0611265
3.31963e-06
-0.0611391
-0.061128
1.10088e-05
0.127469
-0.183083
4.71015e-06
0.12745
-0.183089
-3.20419e-06
0.127443
-0.183099
-1.24266e-05
0.127443
-0.183106
-9.63517e-06
0.127446
-0.183121
0.127458
-0.183122
3.10431e-06
0.120194
-0.00684834
-1.04611e-05
0.120192
-0.00684572
-2.36218e-05
0.120191
-0.00685646
-2.77539e-05
0.120193
-0.00687437
-2.11153e-05
0.120193
-0.00688804
0.120193
-0.0068973
8.43351e-06
-0.110744
4.58211e-06
-0.110729
1.0489e-05
-0.110752
-7.43938e-06
-0.110713
-5.85785e-06
-0.110752
-0.11075
-6.12422e-06
0.187188
-0.324523
-2.9985e-05
0.187177
-0.32454
-4.06792e-05
0.187182
-0.32456
-6.31023e-05
0.187215
-0.324564
-3.12298e-05
0.187232
-0.32461
0.187278
-0.324602
3.81106e-06
0.163507
0.0168286
-1.52674e-06
0.163507
0.01683
-2.19051e-05
0.163505
0.0168408
-1.46275e-05
0.163509
0.016824
-4.90538e-05
0.163517
0.0168628
0.16351
0.0168216
1.67495e-05
-0.16687
3.50543e-06
-0.166811
2.67945e-05
-0.166895
-1.9587e-05
-0.166754
7.3864e-06
-0.166896
-0.16684
-4.49893e-05
0.210611
-0.512508
-7.87883e-05
0.210636
-0.512557
-7.54922e-05
0.210645
-0.512603
-0.000150276
0.210697
-0.51255
-0.00014144
0.21074
-0.512685
0.210625
-0.512696
-3.60361e-05
0.224641
0.00283441
-0.000185123
0.224657
0.00295828
-0.000314516
0.224669
0.00294674
-0.000301831
0.224706
0.0028047
-0.000530976
0.224855