/*--------------------------------*- C++ -*----------------------------------*\
| =========                 |                                                 |
| \\      /  F ield         | OpenFOAM: The Open Source CFD Toolbox           |
|  \\    /   O peration     | Version:  v1612+                                |
|   \\  /    A nd           | Web:      www.OpenFOAM.com                      |
|    \\/     M anipulation  |                                                 |
\*---------------------------------------------------------------------------*/
FoamFile
{
    version     2.0;
    format      ascii;
    class       surfaceScalarField;
    location    "7.6";
    object      phi;
}
// * * * * * * * * * * * * * * * * * * * * * * * * * * * * * * * * * * * * * //

dimensions      [0 3 -1 0 0 0 0];

internalField   nonuniform List<scalar> 
816
(
-4.44986e-07
-1.06445e-05
5.66222e-06
-1.19313e-05
-1.48531e-05
3.22115e-05
5.2242e-06
4.70619e-06
-4.88725e-06
8.1708e-06
-1.36512e-05
-7.56396e-06
1.44235e-06
3.14447e-06
8.0043e-06
-1.5648e-05
-4.18446e-06
8.38633e-06
9.2449e-06
-1.5695e-05
0.000148805
-8.53494e-05
4.13573e-06
-0.000237527
0.000371829
0.00017498
-3.32453e-06
-6.87788e-05
0.000178929
0.00027177
6.19793e-07
-0.000284867
0.000270752
0.000178152
-1.3266e-05
9.32989e-05
-5.09147e-05
0.000255857
1.30862e-05
0.000208536
-9.14377e-05
6.995e-05
-5.42649e-06
-5.24087e-05
0.000291563
8.4399e-05
2.85252e-06
0.000166921
-0.000101234
0.000297291
1.02127e-05
0.000135236
-0.000174432
-0.000126175
1.14672e-05
0.000250633
0.000185005
-0.000112439
-8.27776e-06
6.52171e-05
-7.37576e-05
-0.000382474
-1.17304e-06
8.49542e-05
-0.000229631
4.33464e-06
-0.000176721
-6.95195e-06
2.13849e-05
-1.97827e-06
-2.75983e-05
1.85681e-06
1.12913e-05
3.00682e-05
-2.64459e-05
1.50926e-05
6.88854e-06
-6.73669e-07
8.86127e-07
-3.44707e-07
3.11347e-05
-8.78176e-06
1.57215e-05
-1.12768e-06
-1.42373e-05
9.54271e-06
-4.67883e-06
1.1221e-05
-9.83669e-06
-4.07413e-06
-2.84227e-05
9.01672e-06
2.42154e-05
2.88972e-06
-2.62594e-05
8.63405e-06
1.41898e-05
1.72499e-05
2.37133e-06
-1.07011e-05
4.27356e-06
1.19954e-05
-3.84986e-05
1.85695e-05
3.6053e-05
2.12207e-05
-3.11747e-05
1.01338e-05
3.63875e-06
-1.03388e-05
4.71407e-05
5.20924e-06
-2.2266e-05
-1.66298e-05
3.43071e-06
5.14684e-06
-9.7546e-06
7.50991e-07
-1.38194e-05
9.15439e-07
-1.53699e-05
-1.01893e-05
-5.83453e-06
8.23646e-07
1.13427e-06
-4.42162e-07
-1.60014e-05
3.28568e-06
6.64734e-06
1.81741e-06
-2.30386e-06
-1.82014e-06
-1.43575e-06
-2.13134e-06
-1.41454e-05
-3.64175e-06
-1.0806e-05
-4.65881e-06
-1.23312e-05
-3.00569e-06
-8.84701e-06
1.79973e-06
6.22361e-06
-4.11587e-06
-1.82243e-05
-8.37099e-06
-1.66312e-05
-1.31771e-05
-1.41206e-05
-4.82275e-06
3.80382e-06
2.04206e-05
-2.16276e-06
-8.95188e-06
-7.3151e-07
-2.39472e-06
-1.05991e-06
-6.56763e-06
3.65745e-06
-6.22975e-06
-4.62287e-06
2.8134e-06
3.49534e-06
-2.62057e-06
3.51422e-06
-3.88214e-06
1.2051e-06
2.0951e-06
2.04089e-06
-1.48801e-06
5.21032e-06
4.47157e-06
-5.71786e-06
-7.93809e-08
1.44081e-07
-4.49793e-06
-8.23769e-06
-2.90511e-06
-1.26182e-06
-6.94923e-08
3.69613e-07
-7.93631e-06
5.34881e-07
2.72744e-06
1.42527e-06
-1.75605e-07
-4.28327e-07
4.16871e-07
-5.81551e-07
-2.2679e-06
-1.9002e-06
-6.06934e-06
-4.34032e-06
-3.51091e-06
-1.40072e-06
-4.47332e-06
-4.52868e-06
4.37654e-06
-3.46627e-07
-1.89021e-06
-5.72312e-06
-1.01454e-05
-4.99015e-06
-7.10194e-06
-3.01558e-06
-3.80031e-06
2.2508e-06
-1.51928e-06
6.3677e-06
-9.89604e-07
-2.57822e-06
-3.20494e-06
-0.000214006
0.000301208
8.37568e-06
-0.000133452
8.24743e-05
7.16706e-07
-0.000130916
1.32303e-05
-3.46226e-06
-0.000102251
0.00011761
-2.5888e-06
-0.00011393
0.00036492
-3.98257e-06
-0.000367712
-0.000189125
0.000214979
6.05923e-08
-0.000182384
-4.33026e-05
-2.37076e-06
-0.000374268
-0.000332061
3.43891e-08
-0.00030598
-9.42799e-05
3.11481e-06
-0.000210569
0.000303057
-3.79818e-06
-0.000369829
-0.000151153
8.18886e-05
-2.10886e-06
-0.000233347
-0.000171558
1.14611e-06
-0.000296874
0.000163027
7.60863e-06
-2.12843e-05
-6.64785e-07
1.91482e-06
-0.000181393
-3.60142e-05
9.77009e-07
-0.000253687
-0.00033331
-0.000206313
-2.13948e-06
-0.000245274
-0.000451862
-3.30138e-06
-0.000310662
-0.00036904
-6.50445e-07
-4.12941e-05
-9.76444e-06
1.4552e-06
-3.68554e-05
1.74285e-06
-0.000123315
-2.69063e-05
-1.23009e-05
3.98123e-06
1.31915e-05
8.63412e-06
1.27388e-05
-2.37165e-05
3.25977e-06
1.12045e-05
-6.40748e-06
1.98504e-05
5.98831e-06
-4.76658e-06
6.50952e-06
1.66954e-05
4.88539e-05
-3.31339e-05
-3.08195e-05
-1.43797e-06
6.18489e-05
-1.3306e-05
-1.6726e-05
5.37774e-05
-4.04878e-05
-4.20465e-05
7.76526e-05
-4.18302e-05
-2.06044e-05
-6.34339e-06
-3.84887e-06
2.12431e-05
-1.80004e-05
-1.48491e-05
-1.74798e-05
-7.87403e-06
5.66142e-05
-5.71992e-06
-3.08086e-05
6.33892e-05
-2.85941e-05
8.78811e-06
-4.12903e-05
-3.44966e-06
4.66162e-06
4.35145e-05
-1.46232e-05
2.46499e-05
3.93898e-05
-3.90174e-05
-1.94602e-05
-6.72033e-07
5.1204e-05
8.8762e-06
-2.45863e-05
5.55054e-05
-2.55777e-05
-1.71761e-05
9.624e-06
-1.2943e-05
-2.18511e-06
-2.32079e-06
-7.26632e-06
4.90779e-05
-1.66289e-05
-2.8322e-05
8.88403e-06
-9.34389e-07
6.52199e-06
-2.01217e-06
-3.84127e-06
-1.1293e-05
1.21148e-06
-5.30624e-06
-2.04905e-06
-8.72552e-06
-2.62981e-06
-3.03823e-06
-4.84663e-06
-1.03426e-05
2.2555e-05
1.7006e-05
1.70095e-05
9.1292e-07
2.76866e-05
6.91034e-06
9.66985e-06
2.39103e-05
2.29425e-05
2.45274e-05
3.46894e-05
2.66602e-05
1.52585e-05
-3.93915e-06
3.21578e-06
-1.60573e-05
-7.50821e-06
1.08417e-05
9.98036e-06
-3.87139e-07
2.5055e-05
5.04588e-06
1.4327e-05
2.80119e-05
1.76476e-05
-4.24263e-06
-1.85267e-05
2.03029e-06
-1.65904e-06
2.0314e-05
1.2241e-05
-1.37327e-05
1.78984e-05
2.14098e-05
1.21547e-05
5.8482e-07
2.2504e-05
-2.24975e-06
1.27962e-05
2.55033e-05
1.29617e-05
8.40889e-06
4.52843e-06
7.32185e-06
2.11406e-06
-1.10854e-06
2.68415e-06
2.21907e-05
1.18762e-05
1.6183e-05
5.6767e-06
-9.959e-07
2.55804e-06
-1.71289e-06
-1.71148e-06
-3.79432e-06
2.56694e-08
-2.91052e-06
1.54163e-06
-5.29234e-06
-1.23722e-06
-1.26271e-06
-3.06813e-06
-5.74759e-06
7.11789e-06
1.01864e-05
9.76474e-06
1.13553e-07
1.01891e-05
3.71384e-06
5.42993e-06
7.68908e-06
1.23434e-05
1.39218e-05
1.13957e-05
1.52147e-05
8.31984e-06
-1.4892e-06
1.24124e-06
-9.49365e-06
-6.73218e-07
5.86292e-06
5.07892e-06
-4.04877e-07
7.05686e-06
2.81842e-06
7.51501e-06
9.2623e-06
9.42488e-06
-3.55509e-06
-4.04454e-06
9.5322e-07
-1.51745e-06
6.4296e-06
6.10578e-06
-7.45457e-06
5.2971e-06
1.16714e-05
6.85387e-06
3.37288e-07
7.39171e-06
-2.84919e-06
7.24146e-06
8.20936e-06
7.36309e-06
4.31305e-06
2.3997e-06
3.53554e-06
6.97717e-07
-1.58709e-07
8.77109e-08
5.83355e-06
6.57189e-06
9.47599e-06
8.01015e-08
-3.35243e-06
2.09926e-06
-3.44411e-06
2.64196e-06
4.03188e-07
5.57071e-07
-3.21067e-06
2.5505e-07
1.65203e-06
-7.26807e-07
4.627e-06
-4.59604e-06
1.23393e-06
9.64306e-07
-3.80697e-06
-1.63991e-06
2.81774e-07
6.39728e-07
-4.18527e-06
2.68449e-07
4.05052e-07
-4.10426e-07
-6.34281e-07
-1.56368e-06
-3.94961e-07
-2.79507e-06
-1.76918e-06
3.55509e-07
-3.24066e-06
1.37133e-06
-2.05514e-06
-1.31769e-06
-4.87013e-06
-3.48971e-06
-7.31426e-07
8.51698e-07
-1.41998e-06
-1.00927e-06
-1.04692e-07
2.01873e-06
2.5326e-08
-5.0047e-07
-1.59955e-06
7.90652e-07
-2.07964e-07
-1.48491e-06
-3.04895e-07
-5.12662e-07
-2.28793e-06
3.89633e-06
5.21861e-06
1.15175e-06
2.57678e-06
3.39083e-06
5.86666e-06
7.70986e-06
6.44629e-06
4.11721e-06
1.70554e-06
-3.54606e-06
3.21071e-06
3.77333e-06
-5.7694e-07
1.28451e-06
3.54227e-06
5.49021e-06
-5.58939e-07
1.41049e-06
1.7127e-07
4.35664e-06
-3.54108e-06
5.5831e-06
3.40331e-06
-2.65952e-07
-7.75636e-07
3.43205e-06
3.77511e-06
3.14548e-06
1.26319e-06
1.43792e-06
1.44167e-06
3.38802e-06
3.90531e-06
-0.000115823
-0.000130517
-1.15642e-05
-7.04068e-05
-1.06734e-06
0.000118108
-8.50867e-06
-4.98673e-05
-6.47287e-06
-9.61916e-05
8.00263e-06
-0.000384763
5.52517e-06
0.000444608
-9.92247e-06
0.00033115
-3.72653e-06
9.34292e-05
8.83451e-06
9.95094e-05
-1.68022e-06
1.49799e-05
-8.64336e-06
0.000106525
3.66556e-06
3.02486e-05
-1.36494e-05
6.28885e-05
3.96128e-06
-6.2985e-06
-6.46201e-06
9.65789e-05
-9.32769e-06
0.000147079
3.33707e-06
0.000173425
5.64858e-07
2.85184e-05
-1.41972e-05
-0.000130434
2.84e-06
4.41087e-05
4.79412e-06
-0.000205782
-3.67455e-06
-5.45002e-05
-1.05399e-05
-9.65783e-05
4.00689e-06
-0.000225726
1.39994e-06
-0.000133942
1.39317e-05
-0.0002107
-3.86994e-06
-2.59334e-06
1.30063e-05
-2.57032e-05
-1.30318e-05
1.06308e-05
1.1986e-05
2.54294e-05
-1.95498e-05
-2.23842e-06
4.01329e-05
-2.13389e-05
3.28627e-05
-3.0916e-05
-1.70571e-05
2.34945e-05
-6.38409e-05
1.27619e-05
-2.43033e-05
-1.8959e-05
2.91104e-05
-8.01147e-06
-5.2304e-05
1.25758e-05
-7.17421e-05
2.35444e-05
-1.02133e-05
1.05479e-05
-1.6139e-05
-1.23325e-05
2.08018e-05
-8.48079e-06
-2.64702e-05
-1.12758e-05
-1.10442e-05
-5.53299e-06
-3.26742e-05
2.31513e-06
-5.00396e-06
-9.4594e-06
-1.63734e-05
-1.40996e-05
-3.24137e-05
3.69134e-05
-4.67315e-05
1.56328e-05
-8.90658e-07
-1.13514e-05
2.48146e-05
-3.90625e-06
-2.93073e-05
-1.342e-05
-3.47987e-06
-1.23695e-05
4.62441e-06
-1.16871e-05
-3.17601e-05
-3.99983e-05
-8.60062e-06
1.37437e-05
-6.30263e-06
-4.35381e-06
5.72507e-06
-1.37231e-05
-8.97303e-06
-8.16668e-07
1.85002e-05
1.31017e-05
1.40962e-05
2.07093e-05
-7.65552e-06
-1.42004e-05
-2.89282e-05
-9.26563e-06
-1.22174e-05
1.391e-05
1.28542e-05
6.89776e-06
-2.23424e-05
-6.75864e-06
-3.14259e-05
-7.91657e-06
-5.84782e-06
-6.18842e-06
-7.06071e-06
5.90321e-06
8.70775e-06
1.65992e-06
-1.2269e-05
7.89288e-07
-5.13557e-06
6.55596e-07
-1.48955e-05
4.07591e-07
-2.71948e-06
3.821e-06
-7.55039e-06
6.59144e-06
-1.37894e-05
-1.86404e-05
-2.1504e-05
-6.69774e-06
-6.91626e-07
3.09433e-06
1.27602e-05
2.68419e-07
-1.35235e-05
4.76469e-06
-6.54492e-07
9.90993e-06
2.15989e-06
9.20468e-06
-1.48817e-05
-1.70651e-05
-4.04916e-06
6.60506e-06
-2.30109e-06
-1.94803e-06
1.90608e-06
-7.12421e-06
-3.76808e-06
3.89224e-07
5.70509e-06
8.54457e-06
2.88256e-06
1.16193e-05
-5.30582e-07
-8.31668e-06
-8.99291e-06
-6.03174e-06
-4.71745e-06
7.28296e-06
3.26501e-06
4.49399e-06
-7.19851e-06
-3.45543e-06
-8.25471e-06
-4.73538e-06
-3.33059e-06
-3.86377e-06
-2.088e-06
3.65324e-06
1.15051e-06
9.08709e-07
-4.46915e-06
-1.28045e-07
-1.28765e-06
-5.6051e-07
-5.05388e-06
-3.87791e-07
-1.9526e-06
1.91308e-06
-3.76098e-06
3.84403e-06
-4.07598e-06
-1.04661e-05
-7.20361e-06
-4.14272e-06
-1.81296e-07
2.60978e-06
3.14397e-06
3.05912e-07
-3.86725e-06
2.29947e-06
8.83094e-07
5.63732e-06
-1.09443e-06
4.1433e-06
-3.91881e-06
-6.32676e-06
-2.71414e-06
3.791e-06
-1.30948e-06
-4.28217e-06
-5.97606e-08
2.3166e-06
5.69953e-06
-3.28573e-06
-2.76857e-06
3.0783e-06
1.75073e-06
-5.45266e-08
-1.68119e-06
-5.72312e-07
5.69744e-07
-1.31563e-07
-1.41611e-07
2.84692e-07
-2.69488e-07
3.14713e-07
1.79884e-06
-5.41694e-06
-2.20835e-06
1.59017e-07
6.8884e-08
2.21181e-06
2.55286e-06
2.5355e-06
-4.30907e-05
0.000275389
-2.9688e-06
3.82601e-05
2.4828e-06
1.31125e-05
-1.41543e-06
1.1062e-05
5.52242e-06
1.95863e-05
-1.19763e-05
1.23248e-05
)
;

boundaryField
{
    top_fluid_surface
    {
        type            calculated;
        value           nonuniform List<scalar> 
64
(
-0.000201908
-0.000130904
-6.98663e-05
6.56571e-05
-0.000196151
-4.56587e-05
-8.84207e-05
-0.000181346
-2.21652e-05
-7.73809e-07
0.000416007
-0.000286859
-0.000139256
-0.000400058
0.000125276
-0.000269509
0.000311254
0.000604499
0.000738518
0.000808671
-8.50614e-05
0.000124082
0.000736802
0.000716247
-0.000189953
0.000589859
0.000629571
0.00060077
0.000625337
4.26908e-05
-0.000331653
0.000440986
0.000132588
-0.000173797
-0.000307119
7.31556e-05
-7.58329e-05
-8.61042e-05
-0.000821519
-7.45871e-05
4.58064e-05
-0.000381277
-0.000213691
-0.000308291
-0.000293313
-3.75807e-05
-7.78606e-05
-0.000386337
-0.000353504
-4.7067e-05
-3.00035e-05
-9.22906e-05
-0.000177078
-7.96474e-05
-0.000387591
-0.000273875
8.44732e-05
-0.000142589
5.39788e-05
-0.000337264
-8.61839e-05
4.31762e-05
2.61142e-05
-0.000119049
)
;
    }
    bottom_fluid_surface
    {
        type            calculated;
        value           uniform 0;
    }
    lateral_surface_1
    {
        type            calculated;
        value           uniform 0;
    }
    lateral_surface_2
    {
        type            calculated;
        value           uniform 0;
    }
    lateral_surface_3
    {
        type            calculated;
        value           uniform 0;
    }
    lateral_surface_4
    {
        type            calculated;
        value           uniform 0;
    }
}


// ************************************************************************* //
