/*--------------------------------*- C++ -*----------------------------------*\
| =========                 |                                                 |
| \\      /  F ield         | OpenFOAM: The Open Source CFD Toolbox           |
|  \\    /   O peration     | Version:  v1612+                                |
|   \\  /    A nd           | Web:      www.OpenFOAM.com                      |
|    \\/     M anipulation  |                                                 |
\*---------------------------------------------------------------------------*/
FoamFile
{
    version     2.0;
    format      ascii;
    class       surfaceScalarField;
    location    "8.9";
    object      alphaPhi;
}
// * * * * * * * * * * * * * * * * * * * * * * * * * * * * * * * * * * * * * //

dimensions      [0 3 -1 0 0 0 0];

internalField   nonuniform List<scalar> 
816
(
-1.18736e-06
-1.1076e-05
5.9799e-06
-1.6509e-05
-1.82366e-05
4.10289e-05
6.24859e-06
2.4266e-06
-1.29012e-05
-6.4689e-07
3.68277e-06
-8.2276e-06
7.45012e-08
1.1231e-07
2.38451e-06
-5.42302e-06
-1.18354e-05
3.1209e-06
-2.24782e-06
8.9817e-06
1.11642e-08
-6.66409e-09
1.09665e-06
-1.66939e-09
3.4538e-09
1.27683e-08
-1.85488e-06
3.97192e-09
-2.39068e-09
4.73969e-10
3.325e-07
-5.81184e-10
1.50955e-08
1.4524e-09
1.48553e-06
1.16533e-08
-1.03281e-08
5.19021e-09
8.64511e-07
1.08906e-08
-1.18568e-08
-5.99631e-09
9.21462e-07
6.28521e-09
5.64412e-09
-4.90243e-09
1.51518e-06
6.12304e-09
-4.16002e-09
1.35949e-09
3.98252e-07
4.06741e-09
-3.5279e-09
-3.10209e-09
-6.58627e-06
9.50801e-09
3.50302e-09
-9.9736e-10
-1.74749e-06
2.03819e-09
9.1905e-10
-4.22822e-09
-4.4016e-06
4.03777e-10
-2.01245e-10
5.75138e-07
-4.29896e-09
-3.05338e-09
2.24407e-05
-2.04371e-06
-3.09631e-05
-1.87601e-07
1.54556e-05
3.62449e-05
-4.16533e-05
2.4262e-05
1.72519e-06
-1.20258e-06
-4.04451e-06
7.8114e-07
4.25505e-05
-7.23476e-06
2.08822e-05
5.74835e-06
-1.60313e-05
1.43579e-05
-1.54351e-05
1.53464e-05
-1.42499e-05
-7.01073e-07
-2.38466e-05
1.13032e-05
3.08571e-05
9.54276e-06
-3.05669e-05
1.74831e-05
7.76497e-06
2.84789e-05
-9.87443e-06
-1.04259e-05
2.87687e-06
8.50265e-06
-5.42671e-05
2.43481e-05
4.18182e-05
2.6585e-05
-3.27995e-05
1.65177e-05
-3.91862e-06
-1.77635e-05
6.47107e-05
7.64427e-06
-3.34871e-05
-1.8064e-05
-3.77472e-06
4.643e-06
-1.16006e-05
1.63618e-06
-1.58427e-05
8.22503e-07
-2.24975e-05
-1.78675e-05
-1.05001e-05
-3.3165e-07
-2.16917e-06
-3.03979e-07
-2.37088e-05
3.23083e-06
9.58705e-06
-5.16099e-06
-6.61361e-06
-6.68202e-06
-1.07581e-05
2.44077e-06
-1.20511e-05
-5.93489e-06
-1.49111e-05
-8.27976e-07
-1.48929e-05
-9.27882e-06
-1.06452e-05
-4.00228e-06
4.01833e-06
-5.71018e-06
-2.49174e-05
-1.45598e-05
-1.97298e-05
-1.57941e-05
-1.55727e-05
-7.04131e-06
7.27672e-06
2.73396e-05
-2.20894e-06
-9.79714e-06
2.15279e-06
-1.52128e-06
-1.62598e-06
-5.87907e-06
3.70455e-06
-8.44607e-06
-5.99408e-06
3.36288e-06
1.23005e-06
-8.40211e-06
1.53829e-06
-4.52082e-06
5.89072e-07
9.30907e-08
3.4046e-07
-6.51825e-06
1.34202e-06
1.781e-06
-6.37747e-06
4.79904e-07
-5.4227e-07
-5.71217e-06
-1.27262e-05
-7.00824e-06
-3.31119e-06
-3.74405e-07
-7.0077e-07
-1.33518e-05
-4.50185e-07
3.13967e-06
-2.74309e-06
4.34181e-07
-2.92072e-06
-5.32735e-06
-1.82172e-06
1.71559e-06
-4.03765e-06
-8.65788e-06
-3.97436e-06
-5.55501e-07
-5.40102e-06
-5.91369e-06
-5.12853e-06
3.11137e-06
-1.95212e-06
-2.40883e-06
-9.02575e-06
-1.11198e-05
-7.49315e-06
-8.92835e-06
-4.23268e-06
-4.72303e-06
3.5109e-06
-1.30981e-06
7.77549e-06
2.3094e-07
-1.8984e-06
-4.1661e-06
6.47308e-09
-1.05734e-09
3.48485e-07
-3.54158e-09
1.17482e-08
-1.1616e-06
-3.25789e-09
9.10803e-09
-1.22766e-05
6.9613e-10
1.10686e-08
-8.37787e-06
-1.13604e-09
1.9256e-09
-5.65308e-07
-5.95278e-09
-8.25871e-10
-1.09032e-09
8.5779e-11
1.87766e-10
-4.3247e-09
4.32491e-08
-1.96637e-09
-8.87751e-09
1.28974e-06
-3.40217e-09
-3.37978e-09
-1.59764e-05
2.12303e-09
2.45907e-09
2.23479e-07
-5.4473e-09
-3.31536e-09
-3.61389e-09
1.32171e-11
-3.64245e-09
-7.87283e-09
1.21486e-06
-4.45002e-09
-3.99181e-10
1.27262e-06
-8.75459e-11
-9.33732e-10
-1.82926e-06
-7.4665e-10
-4.76605e-10
-5.50666e-06
-7.23655e-09
-8.19364e-09
-4.60228e-09
-6.67671e-06
-6.38246e-09
-8.55581e-09
-7.00259e-06
-3.71424e-09
-8.46985e-09
-5.02832e-07
-3.01689e-09
-2.33732e-09
1.02451e-06
-2.64686e-09
8.45399e-11
-5.23041e-09
-4.82764e-09
-1.45631e-05
8.81861e-06
-3.895e-07
4.24524e-06
1.55173e-05
-3.14415e-05
1.14517e-07
1.18474e-05
2.23589e-06
2.09895e-05
1.19442e-05
-6.18009e-06
6.99351e-06
2.06178e-05
6.51198e-05
-4.10355e-05
-3.32574e-05
-3.24445e-06
8.48015e-05
-1.41786e-05
-2.4591e-05
8.22228e-05
-5.02042e-05
-5.35152e-05
0.000105989
-5.53102e-05
-2.94144e-05
-1.0655e-05
-7.28709e-06
3.9062e-05
-1.8776e-05
-3.37358e-05
-1.93551e-05
-4.49558e-06
9.0184e-05
-1.58768e-05
-3.40521e-05
8.84871e-05
-3.6835e-05
1.64227e-05
-5.07655e-05
-4.55794e-06
5.95124e-06
5.63064e-05
-2.31086e-05
3.05206e-05
5.95092e-05
-5.38569e-05
-3.50348e-05
-4.92279e-06
7.36136e-05
-5.03706e-06
-3.57581e-05
7.16232e-05
-3.34268e-05
-2.74187e-05
1.7569e-05
-1.82743e-05
-2.83791e-06
-9.06461e-06
-6.5356e-06
6.87477e-05
-2.35316e-05
-3.58291e-05
8.4459e-06
-5.64317e-06
8.6746e-07
-1.91248e-06
-8.52972e-06
-1.50285e-05
1.45015e-06
-9.2917e-06
2.4876e-06
-1.00687e-05
-6.51353e-06
-2.76162e-06
-6.50306e-06
-1.41679e-05
3.02663e-05
2.25402e-05
2.0038e-05
-7.57404e-07
3.74388e-05
1.02484e-05
1.30422e-05
3.63082e-05
2.69179e-05
3.24635e-05
4.65419e-05
2.92681e-05
1.82411e-05
-4.66904e-06
2.34957e-06
-2.23812e-05
-6.66873e-06
1.56642e-05
1.28624e-05
2.50086e-06
3.95503e-05
1.08324e-05
2.14067e-05
3.84823e-05
2.18354e-05
-4.61589e-06
-2.25643e-05
1.84773e-06
-2.46613e-07
2.58335e-05
1.15346e-05
-1.61746e-05
2.6569e-05
2.88655e-05
1.99947e-05
2.24906e-06
3.18869e-05
3.58671e-06
1.68717e-05
3.2006e-05
1.79362e-05
1.08637e-05
8.37917e-06
1.29824e-05
1.10792e-07
-4.49037e-06
4.67845e-06
3.09456e-05
1.32927e-05
1.90183e-05
4.7214e-06
-3.10009e-06
1.17227e-06
-1.70582e-06
-5.23919e-06
-4.9706e-06
-5.38426e-07
-5.83971e-06
2.88071e-06
-6.82947e-06
-3.18686e-06
-1.37883e-06
-4.75476e-06
-6.97497e-06
1.03602e-05
1.22946e-05
1.13765e-05
-3.91141e-07
1.38423e-05
3.68509e-06
7.03618e-06
1.19202e-05
1.42174e-05
1.66861e-05
1.54532e-05
1.61029e-05
9.06629e-06
-1.27193e-06
2.44828e-07
-1.16009e-05
4.47888e-07
7.60691e-06
5.96846e-06
2.6981e-06
1.12555e-05
5.32215e-06
1.19709e-05
1.25019e-05
1.12874e-05
-3.44889e-06
-4.75465e-06
7.36811e-07
-4.52571e-07
8.11593e-06
5.71109e-06
-8.85135e-06
7.80435e-06
1.56746e-05
1.14415e-05
1.14185e-06
1.00097e-05
7.49059e-07
9.06431e-06
1.00653e-05
9.81034e-06
5.48483e-06
3.7279e-06
6.90692e-06
-1.00073e-06
-1.2061e-06
1.31121e-06
8.51912e-06
7.03769e-06
1.14013e-05
-1.41311e-06
-3.5112e-06
2.48851e-06
-3.55752e-06
2.89638e-06
-1.94701e-07
-2.58126e-06
-4.92559e-06
-3.50008e-07
2.10566e-06
-3.7007e-06
3.49122e-06
-6.41721e-06
2.51422e-06
6.55718e-07
-6.7808e-06
-3.21584e-06
-2.55728e-07
5.24781e-07
-7.54781e-06
-2.06765e-11
-2.38605e-06
-1.5428e-06
-3.97021e-06
1.10324e-06
-2.45262e-06
-4.16904e-06
1.3921e-07
-1.47761e-06
-2.64725e-06
4.73794e-07
-2.14966e-06
-3.08822e-06
-4.90278e-06
-4.04886e-06
-7.24424e-07
1.47307e-06
-1.27006e-06
-7.81964e-07
6.13295e-07
1.19353e-06
-5.17643e-07
-2.27432e-07
-3.83596e-06
8.26604e-07
-2.1671e-06
-1.94634e-06
-2.27466e-06
-7.34305e-07
-2.82205e-06
4.98698e-06
5.87531e-06
8.86592e-07
2.53919e-06
4.13422e-06
6.27137e-06
9.03991e-06
6.54858e-06
4.34711e-06
9.25258e-07
-3.46326e-06
3.81673e-06
4.41839e-06
1.51233e-06
2.16641e-06
6.2488e-06
6.28411e-06
4.2615e-07
1.54586e-06
1.14601e-06
4.3699e-06
-3.75394e-06
7.08897e-06
5.63989e-06
1.71601e-07
1.09785e-06
4.28834e-06
5.2243e-06
3.90665e-06
2.82218e-06
8.18719e-07
2.50701e-06
3.86955e-06
5.21473e-06
5.33516e-09
-7.05489e-09
-2.9203e-06
9.88847e-09
3.64771e-07
1.45983e-08
-1.04694e-05
8.73052e-09
-1.53702e-05
7.41223e-09
1.57431e-06
-1.64401e-09
1.80543e-06
5.23705e-09
-3.50782e-06
1.66778e-09
-3.14798e-06
-2.49915e-09
-6.66178e-06
-2.02114e-09
2.62269e-06
-8.94584e-10
1.99451e-06
9.52329e-10
9.87721e-11
6.65845e-10
1.83597e-06
-2.2932e-09
2.04291e-10
-4.97933e-09
-5.47465e-06
-4.7919e-09
-9.4673e-07
-2.79285e-09
-9.60671e-07
-9.56849e-10
8.74188e-07
-3.18397e-09
-1.69456e-06
-3.92179e-09
-5.98994e-07
9.64564e-10
3.63422e-07
-3.75542e-09
-3.86755e-06
-5.96212e-10
-2.19232e-06
-3.13513e-09
2.68424e-08
-6.61734e-09
-8.28815e-06
-6.50991e-09
3.70011e-07
-7.25806e-09
8.42128e-07
1.66759e-06
1.66208e-05
-3.49766e-05
-9.20392e-06
1.44749e-05
7.17142e-06
3.21413e-05
-2.46834e-05
-1.25937e-06
4.67825e-05
-2.40306e-05
4.45023e-05
-4.14316e-05
-1.64705e-05
3.37912e-05
-8.40336e-05
1.73631e-05
-2.21701e-05
-3.17528e-05
2.50164e-05
-1.44642e-05
-5.5522e-05
1.19809e-05
-7.36449e-05
1.8126e-05
-1.05892e-05
1.61782e-05
-2.51993e-05
-1.16207e-05
3.31519e-05
-8.70994e-06
-3.19292e-05
-4.60781e-06
-2.15407e-05
1.41274e-07
-4.26605e-05
5.70634e-06
-6.14255e-06
-9.77784e-06
-9.55764e-06
-1.73527e-05
-4.65967e-05
3.73297e-05
-5.27979e-05
1.12685e-05
-1.39408e-05
-5.1636e-06
8.7274e-06
-8.12518e-07
-3.73854e-05
-1.81882e-05
-1.19801e-05
-2.25168e-05
-6.36214e-07
-2.2076e-05
-3.32812e-05
-5.0426e-05
-8.33968e-06
1.69872e-05
-4.60473e-06
-6.18734e-06
3.01636e-06
-1.85978e-05
-1.06781e-05
-3.94211e-06
2.20166e-05
1.42626e-05
1.97722e-05
2.69711e-05
-6.67027e-06
-2.06174e-05
-3.64299e-05
-1.08138e-05
-1.18726e-05
1.12113e-05
1.32154e-05
6.20976e-06
-2.36356e-05
-5.15682e-06
-3.3025e-05
-8.34942e-06
-5.00036e-06
-8.2508e-06
-9.62602e-06
1.02411e-05
1.46771e-05
4.56688e-06
-1.34301e-05
2.42029e-06
-8.61357e-06
7.81784e-07
-1.91797e-05
5.78624e-07
-4.07807e-06
7.34196e-06
-4.78503e-06
9.91369e-06
-2.03238e-05
-1.84687e-05
-2.44463e-05
-5.88626e-06
-6.45042e-06
1.89959e-06
4.59785e-06
-5.90438e-07
-1.69695e-05
4.79764e-06
-4.40958e-06
9.48291e-06
-6.5929e-07
1.12841e-05
-1.60498e-05
-2.20748e-05
-4.34241e-06
8.68149e-06
-1.97944e-06
-4.03985e-06
7.02945e-07
-1.05482e-05
-4.48911e-06
-2.14647e-06
6.90217e-06
9.03012e-06
3.85686e-06
1.44293e-05
1.79893e-07
-1.09751e-05
-1.10989e-05
-6.79091e-06
-4.6515e-06
6.87678e-06
3.28186e-06
4.65985e-06
-7.15587e-06
-3.89959e-06
-8.3635e-06
-5.82348e-06
-2.84597e-06
-5.37725e-06
-2.52259e-06
6.63861e-06
2.70871e-06
3.68773e-06
-4.43272e-06
2.44287e-06
-2.08724e-06
6.89112e-07
-6.16666e-06
2.06992e-07
-2.86554e-06
4.37713e-06
-3.22243e-06
5.44831e-06
-5.65743e-06
-1.01831e-05
-8.91947e-06
-3.5625e-06
-1.76529e-06
1.47069e-06
3.65004e-07
-5.54963e-07
-5.08838e-06
2.15835e-06
-2.03615e-07
5.27864e-06
-2.52262e-06
5.02919e-06
-4.47469e-06
-8.20641e-06
-3.05597e-06
5.00087e-06
-3.04253e-06
-6.77925e-06
-1.83942e-06
1.31737e-06
6.57389e-06
-4.5394e-06
-3.35483e-06
2.44147e-06
1.56165e-06
-2.29861e-07
-2.12605e-06
-9.19256e-07
1.72863e-06
1.74774e-06
1.84179e-06
1.96436e-06
5.99337e-07
1.69782e-06
3.24837e-06
-5.59362e-06
-1.78021e-06
-3.28861e-07
-1.82714e-07
2.46e-06
2.38038e-06
2.92356e-06
5.47075e-09
4.4421e-09
-4.40032e-06
-1.62198e-09
8.3528e-07
6.42906e-09
-4.68978e-06
6.79038e-07
-5.4642e-06
2.17777e-05
-1.34827e-05
8.27501e-06
)
;

boundaryField
{
    top_fluid_surface
    {
        type            calculated;
        value           nonuniform List<scalar> 
64
(
0
0
0
0
0
0
0
0
0
0
3.04034e-09
0
0
0
4.69837e-09
0
1.3263e-08
1.44215e-08
1.35877e-08
1.41858e-08
0
3.32646e-09
1.3915e-08
1.16914e-08
0
9.09227e-09
1.20865e-08
1.19155e-08
8.92317e-09
2.24762e-09
0
5.60663e-09
0
0
0
5.39511e-09
9.82493e-10
3.74299e-09
0
2.44963e-09
4.33112e-09
0
0
7.75598e-10
0
2.53724e-09
7.7737e-10
0
0
0
1.30882e-09
0
0
0
0
0
6.02442e-10
0
0
0
0
0
0
0
)
;
    }
    bottom_fluid_surface
    {
        type            calculated;
        value           uniform 0;
    }
    lateral_surface_1
    {
        type            calculated;
        value           uniform 0;
    }
    lateral_surface_2
    {
        type            calculated;
        value           uniform 0;
    }
    lateral_surface_3
    {
        type            calculated;
        value           uniform 0;
    }
    lateral_surface_4
    {
        type            calculated;
        value           uniform 0;
    }
}


// ************************************************************************* //
