/*--------------------------------*- C++ -*----------------------------------*\
| =========                 |                                                 |
| \\      /  F ield         | OpenFOAM: The Open Source CFD Toolbox           |
|  \\    /   O peration     | Version:  v1612+                                |
|   \\  /    A nd           | Web:      www.OpenFOAM.com                      |
|    \\/     M anipulation  |                                                 |
\*---------------------------------------------------------------------------*/
FoamFile
{
    version     2.0;
    format      ascii;
    class       volScalarField;
    location    "8.9";
    object      p_rgh;
}
// * * * * * * * * * * * * * * * * * * * * * * * * * * * * * * * * * * * * * //

dimensions      [1 -1 -2 0 0 0 0];

internalField   nonuniform List<scalar> 
320
(
-9800.2
-9800.2
-9800.2
-9800.2
-0.00599685
-0.00344986
-0.00260775
-0.0034031
-0.00445502
-0.000440838
-0.00369798
-0.0075155
-0.00872652
-0.00512917
0.0011008
-0.00384034
-9799.74
-9799.75
-9799.77
-9799.75
-9799.75
-9799.78
-9799.76
-9799.74
-9799.74
-9799.78
-9799.92
-9799.78
-9800.2
-9800.2
-9800.21
-9800.21
-9800.21
-9800.21
-9800.21
-9800.2
-9800.19
-9800.18
-9800.18
-9800.2
-9800.2
-9800.2
-9800.2
-9800.2
-9800.2
-9800.2
-9800.21
-9800.21
-9800.2
-9800.21
-9800.2
-9800.2
-9800.2
-9800.19
-9800.19
-9800.2
-0.00716721
-0.00402043
0.00518342
-0.000988433
0.0170029
0.0203042
0.0197033
0.0192098
-0.00240381
-0.00156714
0.0178703
0.014714
-0.00242672
0.0106617
0.0151814
0.0139117
0.00889976
0.00226609
-0.00669464
0.00564705
-9799.73
-9799.76
-9799.88
-9799.76
-9799.97
-9799.99
-9800
-9800
-9799.79
-9799.81
-9800
-9799.99
-9799.77
-9799.95
-9799.98
-9799.98
-9799.95
-9799.89
-9799.76
-9799.92
-9800.2
-9800.21
-9800.2
-9800.22
-9800.2
-9800.2
-9800.2
-9800.19
-9800.21
-9800.21
-9800.2
-9800.18
-9800.2
-9800.18
-9800.18
-9800.18
-9800.18
-9800.19
-9800.2
-9800.19
-9800.2
-9800.21
-9800.21
-9800.21
-9800.2
-9800.2
-9800.2
-9800.2
-9800.21
-9800.21
-9800.2
-9800.19
-9800.2
-9800.19
-9800.19
-9800.19
-9800.19
-9800.19
-9800.2
-9800.2
-9800.2
-9800.2
-9800.2
-9800.2
-9800.2
-9800.2
-9800.2
-9800.21
-9800.2
-9800.21
-9800.2
-9800.2
-9800.2
-9800.19
-9800.2
-9800.2
-9800.2
-9800.21
-9800.21
-9800.21
-9800.2
-9800.2
-9800.2
-9800.2
-9800.21
-9800.21
-9800.2
-9800.2
-9800.2
-9800.2
-9800.19
-9800.19
-9800.19
-9800.19
-9800.2
-9800.21
-0.00470701
-0.00927073
-0.00911392
0.00339005
-0.00226688
0.00260027
-0.00663767
0.00330952
0.00455107
-0.000506817
-0.00327288
0.000117616
-0.00458851
0.00268761
0.000370426
-0.00364352
-0.00601547
-0.00174363
0.00185012
-0.00623633
-0.00402935
-0.00443517
-0.0111023
-0.000286609
5.70005e-05
-0.00321534
-0.00442348
-0.0135253
-9799.76
-9799.73
-9799.71
-9799.87
-9799.81
-9799.86
-9799.69
-9799.86
-9799.83
-9799.76
-9799.77
-9799.82
-9799.72
-9799.85
-9799.8
-9799.73
-9799.76
-9799.79
-9799.85
-9799.74
-9799.74
-9799.74
-9799.7
-9799.76
-9799.8
-9799.76
-9799.76
-9799.67
-9800.2
-9800.2
-9800.21
-9800.21
-9800.22
-9800.21
-9800.22
-9800.22
-9800.22
-9800.21
-9800.21
-9800.22
-9800.23
-9800.22
-9800.22
-9800.21
-9800.2
-9800.2
-9800.2
-9800.2
-9800.2
-9800.2
-9800.2
-9800.2
-9800.2
-9800.2
-9800.2
-9800.22
-9800.2
-9800.19
-9800.21
-9800.21
-9800.21
-9800.21
-9800.21
-9800.21
-9800.21
-9800.21
-9800.21
-9800.21
-9800.21
-9800.21
-9800.22
-9800.21
-9800.2
-9800.2
-9800.2
-9800.2
-9800.2
-9800.19
-9800.2
-9800.2
-9800.2
-9800.2
-9800.2
-9800.22
-9800.2
-9800.18
-9800.2
-9800.21
-9800.21
-9800.21
-9800.21
-9800.21
-9800.21
-9800.21
-9800.21
-9800.21
-9800.21
-9800.21
-9800.21
-9800.21
-9800.2
-9800.2
-9800.2
-9800.2
-9800.2
-9800.19
-9800.2
-9800.2
-9800.2
-9800.2
-9800.2
-9800.22
-0.00686001
-0.00675187
-0.00606766
-0.0120867
-9799.74
-9799.73
-9799.75
-9799.7
)
;

boundaryField
{
    top_fluid_surface
    {
        type            totalPressure;
        rho             rho;
        psi             none;
        gamma           1;
        p0              uniform 0;
        value           nonuniform List<scalar> 
64
(
-1.42748e-08
-5.65624e-09
-1.79817e-09
-1.77212e-09
-7.64471e-09
-1.09836e-09
-7.83702e-09
-1.39258e-08
-2.31457e-08
-8.84639e-09
0
-5.57895e-09
-1.0266e-08
-6.64821e-09
0
-2.68715e-10
0
0
0
0
-6.09605e-10
-2.02592e-11
0
0
-7.32736e-09
0
0
0
0
0
-1.19276e-08
0
-4.72605e-09
-1.53887e-08
-1.78194e-08
0
-1.10332e-10
0
-2.07725e-08
0
0
-6.63795e-09
-1.40004e-08
0
-6.7433e-09
0
0
-6.41212e-09
-1.49852e-08
-1.51179e-09
0
-1.55391e-08
-1.16601e-08
-3.84544e-09
-2.02911e-08
-1.26314e-09
0
-2.59013e-09
-9.53769e-09
-6.33026e-08
-1.4947e-08
-9.83037e-09
-4.56345e-09
-3.06202e-08
)
;
    }
    bottom_fluid_surface
    {
        type            fixedFluxPressure;
        gradient        uniform 0;
        value           nonuniform List<scalar> 
64
(
-9800.2
-9800.2
-9800.2
-9800.2
-9800.2
-9800.2
-9800.2
-9800.21
-9800.2
-9800.21
-9800.2
-9800.2
-9800.2
-9800.19
-9800.2
-9800.2
-9800.2
-9800.21
-9800.21
-9800.21
-9800.2
-9800.2
-9800.2
-9800.2
-9800.21
-9800.21
-9800.2
-9800.2
-9800.2
-9800.2
-9800.19
-9800.19
-9800.19
-9800.19
-9800.2
-9800.21
-9800.2
-9800.18
-9800.2
-9800.21
-9800.21
-9800.21
-9800.21
-9800.21
-9800.21
-9800.21
-9800.21
-9800.21
-9800.21
-9800.21
-9800.21
-9800.21
-9800.2
-9800.2
-9800.2
-9800.2
-9800.2
-9800.19
-9800.2
-9800.2
-9800.2
-9800.2
-9800.2
-9800.22
)
;
    }
    lateral_surface_1
    {
        type            fixedFluxPressure;
        gradient        uniform 0;
        value           nonuniform List<scalar> 
40
(
-0.00470701
-0.00927073
-0.00911392
0.00339005
-0.00226688
0.00260027
-0.00663767
-0.0135253
-9799.76
-9799.73
-9799.71
-9799.87
-9799.81
-9799.86
-9799.69
-9799.67
-9800.2
-9800.2
-9800.21
-9800.21
-9800.22
-9800.21
-9800.22
-9800.22
-9800.2
-9800.19
-9800.21
-9800.21
-9800.21
-9800.21
-9800.21
-9800.22
-9800.2
-9800.18
-9800.2
-9800.21
-9800.21
-9800.21
-9800.21
-9800.22
)
;
    }
    lateral_surface_2
    {
        type            fixedFluxPressure;
        gradient        uniform 0;
        value           nonuniform List<scalar> 
40
(
0.00268761
0.000370426
-0.00364352
-0.00601547
-0.00174363
0.00185012
-0.00623633
-0.00402935
-9799.85
-9799.8
-9799.73
-9799.76
-9799.79
-9799.85
-9799.74
-9799.74
-9800.22
-9800.22
-9800.21
-9800.2
-9800.2
-9800.2
-9800.2
-9800.2
-9800.21
-9800.22
-9800.21
-9800.2
-9800.2
-9800.2
-9800.2
-9800.2
-9800.21
-9800.21
-9800.21
-9800.2
-9800.2
-9800.2
-9800.2
-9800.2
)
;
    }
    lateral_surface_3
    {
        type            fixedFluxPressure;
        gradient        uniform 0;
        value           nonuniform List<scalar> 
40
(
-0.00663767
0.00330952
0.00455107
-0.000506817
-0.00327288
0.000117616
-0.00458851
0.00268761
-9799.69
-9799.86
-9799.83
-9799.76
-9799.77
-9799.82
-9799.72
-9799.85
-9800.22
-9800.22
-9800.22
-9800.21
-9800.21
-9800.22
-9800.23
-9800.22
-9800.21
-9800.21
-9800.21
-9800.21
-9800.21
-9800.21
-9800.21
-9800.21
-9800.21
-9800.21
-9800.21
-9800.21
-9800.21
-9800.21
-9800.21
-9800.21
)
;
    }
    lateral_surface_4
    {
        type            fixedFluxPressure;
        gradient        uniform 0;
        value           nonuniform List<scalar> 
40
(
-0.00402935
-0.00443517
-0.0111023
-0.000286609
5.70005e-05
-0.00321534
-0.00442348
-0.0135253
-9799.74
-9799.74
-9799.7
-9799.76
-9799.8
-9799.76
-9799.76
-9799.67
-9800.2
-9800.2
-9800.2
-9800.2
-9800.2
-9800.2
-9800.2
-9800.22
-9800.2
-9800.19
-9800.2
-9800.2
-9800.2
-9800.2
-9800.2
-9800.22
-9800.2
-9800.19
-9800.2
-9800.2
-9800.2
-9800.2
-9800.2
-9800.22
)
;
    }
}


// ************************************************************************* //
