/*--------------------------------*- C++ -*----------------------------------*\
| =========                 |                                                 |
| \\      /  F ield         | OpenFOAM: The Open Source CFD Toolbox           |
|  \\    /   O peration     | Version:  v1612+                                |
|   \\  /    A nd           | Web:      www.OpenFOAM.com                      |
|    \\/     M anipulation  |                                                 |
\*---------------------------------------------------------------------------*/
FoamFile
{
    version     2.0;
    format      ascii;
    class       surfaceScalarField;
    location    "8.9";
    object      phi;
}
// * * * * * * * * * * * * * * * * * * * * * * * * * * * * * * * * * * * * * //

dimensions      [0 3 -1 0 0 0 0];

internalField   nonuniform List<scalar> 
816
(
-1.09079e-06
-1.10943e-05
6.02749e-06
-1.66085e-05
-1.82419e-05
4.10071e-05
6.2401e-06
2.41858e-06
-1.28814e-05
-6.8556e-07
3.81825e-06
-8.14954e-06
7.21967e-08
4.19381e-08
2.39694e-06
-5.45575e-06
-1.18295e-05
3.06704e-06
-2.29201e-06
9.14292e-06
0.000524334
-0.000319572
4.21761e-06
-8.07162e-05
0.000158478
0.00062418
-2.24784e-06
0.00018768
-0.000112424
2.55058e-05
1.60444e-06
-2.71376e-05
0.000735817
7.36311e-05
4.01916e-06
0.00056946
-0.000491455
0.000250188
8.09182e-06
0.000559736
-0.000533211
-0.000301575
1.1876e-06
0.000316522
0.000289659
-0.000236279
4.4949e-06
0.000314388
-0.000183942
5.37582e-05
1.00353e-06
0.00019021
-0.000167571
-0.000142401
-7.8153e-06
0.000432897
0.000153014
-4.80279e-05
-2.42745e-06
9.13541e-05
4.84575e-05
-0.00020121
-4.7668e-06
1.8812e-05
-3.55137e-06
2.81106e-06
-0.000199999
-0.000142686
2.24718e-05
-2.12497e-06
-3.10176e-05
-1.77632e-07
1.53749e-05
3.63619e-05
-4.1735e-05
2.44255e-05
1.60559e-06
-1.21424e-06
-4.01005e-06
9.32077e-07
4.28132e-05
-7.20659e-06
2.08115e-05
5.88034e-06
-1.61285e-05
1.43881e-05
-1.5529e-05
1.54419e-05
-1.43915e-05
-7.65096e-07
-2.38668e-05
1.12365e-05
3.09668e-05
9.47869e-06
-3.06232e-05
1.75232e-05
7.69455e-06
2.83997e-05
-9.93513e-06
-1.04076e-05
2.82484e-06
8.46045e-06
-5.42226e-05
2.45862e-05
4.19178e-05
2.65792e-05
-3.26557e-05
1.66187e-05
-3.94403e-06
-1.76783e-05
6.51052e-05
7.84929e-06
-3.34657e-05
-1.80285e-05
-3.76719e-06
4.63956e-06
-1.1589e-05
1.58801e-06
-1.58503e-05
8.59932e-07
-2.24739e-05
-1.79117e-05
-1.04976e-05
-3.48574e-07
-2.16757e-06
-2.80084e-07
-2.37021e-05
3.21867e-06
9.55151e-06
-5.1846e-06
-6.64728e-06
-6.70094e-06
-1.07803e-05
2.40412e-06
-1.2064e-05
-5.91189e-06
-1.49398e-05
-8.71885e-07
-1.49139e-05
-9.34984e-06
-1.07326e-05
-4.02117e-06
4.01902e-06
-5.73998e-06
-2.4913e-05
-1.45459e-05
-1.97535e-05
-1.58066e-05
-1.5491e-05
-7.05099e-06
7.37467e-06
2.74801e-05
-2.16658e-06
-9.76404e-06
2.21274e-06
-1.50248e-06
-1.58263e-06
-5.89571e-06
3.72441e-06
-8.49582e-06
-5.99148e-06
3.35261e-06
1.22577e-06
-8.37364e-06
1.52649e-06
-4.48235e-06
5.85843e-07
4.90046e-08
3.49274e-07
-6.51003e-06
1.30436e-06
1.78113e-06
-6.35955e-06
4.40019e-07
-4.80304e-07
-5.71689e-06
-1.27081e-05
-6.98097e-06
-3.33533e-06
-3.78849e-07
-6.8969e-07
-1.33369e-05
-4.72588e-07
3.11602e-06
-2.74459e-06
4.14683e-07
-2.93295e-06
-5.32735e-06
-1.82552e-06
1.671e-06
-4.00281e-06
-8.67406e-06
-3.98384e-06
-5.73471e-07
-5.42859e-06
-5.91218e-06
-5.16435e-06
3.1085e-06
-1.95334e-06
-2.41504e-06
-9.02633e-06
-1.11436e-05
-7.49096e-06
-8.92789e-06
-4.23848e-06
-4.69326e-06
3.5359e-06
-1.3062e-06
7.82256e-06
2.62616e-07
-1.88991e-06
-4.13604e-06
0.000299323
-5.66302e-05
1.81154e-06
-0.00016179
0.000560394
-2.03419e-06
-0.000147803
0.000484253
-3.33977e-06
3.07954e-05
0.000550321
4.14881e-06
-7.1289e-05
0.000115231
-2.70887e-06
-0.000304232
-4.91234e-05
-6.54987e-05
3.58583e-06
7.42327e-06
-0.000270239
5.651e-06
-9.52325e-05
-0.000442704
5.74963e-06
-0.000163095
-0.000188488
2.52795e-07
0.000112387
0.000149348
-4.50607e-06
-0.000213677
-0.000121869
-0.000224155
2.47232e-07
-0.00019649
-0.000388287
4.98555e-06
-0.00021259
-2.89619e-05
5.79749e-06
-3.67678e-06
-5.91849e-05
-1.5962e-06
-3.47906e-05
-2.94294e-05
-5.04988e-06
-0.000331778
-0.000385254
-0.000254394
-8.89919e-06
-0.000280954
-0.000442751
-8.62131e-06
-0.000181222
-0.000387023
-2.31512e-08
-0.000149601
-0.000122033
4.67806e-06
-0.000127099
2.97104e-06
-0.00024628
-0.000227888
-1.45654e-05
8.83276e-06
-5.0971e-07
4.19536e-06
1.56706e-05
-3.13807e-05
1.43555e-07
1.19408e-05
2.20138e-06
2.1059e-05
1.20062e-05
-6.27863e-06
7.19703e-06
2.06449e-05
6.52613e-05
-4.09971e-05
-3.32506e-05
-3.28137e-06
8.49285e-05
-1.40615e-05
-2.46293e-05
8.24064e-05
-5.02072e-05
-5.37725e-05
0.000106175
-5.54133e-05
-2.90695e-05
-1.0531e-05
-6.83588e-06
3.90077e-05
-1.89986e-05
-3.38067e-05
-1.92484e-05
-4.64842e-06
9.03824e-05
-1.59902e-05
-3.41286e-05
8.87782e-05
-3.69718e-05
1.64743e-05
-5.08155e-05
-4.59366e-06
5.97238e-06
5.64717e-05
-2.29563e-05
3.05388e-05
5.97234e-05
-5.39845e-05
-3.51268e-05
-5.01081e-06
7.38702e-05
-5.09246e-06
-3.57703e-05
7.18954e-05
-3.32973e-05
-2.74806e-05
1.76875e-05
-1.80494e-05
-2.82315e-06
-9.03699e-06
-6.49092e-06
6.89088e-05
-2.36566e-05
-3.59041e-05
8.49674e-06
-5.66207e-06
8.18969e-07
-1.94657e-06
-8.54247e-06
-1.50177e-05
1.50206e-06
-9.24084e-06
2.48435e-06
-1.00265e-05
-6.50802e-06
-2.83146e-06
-6.44563e-06
-1.42151e-05
3.02739e-05
2.2614e-05
2.00633e-05
-7.88979e-07
3.74958e-05
1.03191e-05
1.30758e-05
3.63966e-05
2.69789e-05
3.25443e-05
4.66202e-05
2.93118e-05
1.83428e-05
-4.70293e-06
2.45619e-06
-2.25513e-05
-6.75518e-06
1.57816e-05
1.28819e-05
2.43845e-06
3.96392e-05
1.08493e-05
2.14203e-05
3.85986e-05
2.18398e-05
-4.66122e-06
-2.25688e-05
1.84937e-06
-2.48946e-07
2.59202e-05
1.15991e-05
-1.62077e-05
2.66481e-05
2.89488e-05
2.00919e-05
2.24246e-06
3.19782e-05
3.68233e-06
1.69383e-05
3.21166e-05
1.8042e-05
1.09346e-05
8.45206e-06
1.30785e-05
1.6443e-07
-4.46301e-06
4.6856e-06
3.10585e-05
1.32891e-05
1.90418e-05
4.80275e-06
-3.07002e-06
1.18626e-06
-1.82978e-06
-5.25102e-06
-4.98124e-06
-5.13204e-07
-5.82502e-06
2.88875e-06
-6.77465e-06
-3.18727e-06
-1.39035e-06
-4.72855e-06
-6.98365e-06
1.03601e-05
1.23267e-05
1.14143e-05
-4.09479e-07
1.38302e-05
3.74067e-06
7.04232e-06
1.1932e-05
1.42688e-05
1.67429e-05
1.54705e-05
1.61403e-05
9.0976e-06
-1.31276e-06
2.53288e-07
-1.16934e-05
4.01446e-07
7.62825e-06
6.01571e-06
2.64399e-06
1.13027e-05
5.33943e-06
1.19761e-05
1.25519e-05
1.12949e-05
-3.46989e-06
-4.74842e-06
7.26255e-07
-4.75156e-07
8.15876e-06
5.73477e-06
-8.86114e-06
7.8624e-06
1.57569e-05
1.14444e-05
1.16013e-06
1.00209e-05
8.03673e-07
9.08442e-06
1.00872e-05
9.85495e-06
5.51532e-06
3.75467e-06
6.97079e-06
-9.45455e-07
-1.18767e-06
1.2943e-06
8.59611e-06
7.00103e-06
1.1381e-05
-1.38643e-06
-3.52767e-06
2.49913e-06
-3.57724e-06
2.90262e-06
-2.07502e-07
-2.55416e-06
-4.88774e-06
-3.63743e-07
2.07255e-06
-3.69487e-06
3.46446e-06
-6.41753e-06
2.50531e-06
7.10528e-07
-6.76254e-06
-3.15494e-06
-2.3315e-07
5.68698e-07
-7.53975e-06
-9.54327e-10
-2.39015e-06
-1.55229e-06
-3.97493e-06
1.06849e-06
-2.4468e-06
-4.15696e-06
1.13863e-07
-1.48737e-06
-2.67235e-06
4.77298e-07
-2.14717e-06
-3.06836e-06
-4.94483e-06
-4.02603e-06
-7.36767e-07
1.48945e-06
-1.28822e-06
-7.56441e-07
6.1525e-07
1.24742e-06
-3.77495e-07
-4.67581e-07
-3.82665e-06
7.33426e-07
-2.1632e-06
-1.95766e-06
-2.2869e-06
-7.01419e-07
-2.845e-06
5.0585e-06
5.88897e-06
8.92104e-07
2.57647e-06
4.13413e-06
6.3042e-06
9.0589e-06
6.58908e-06
4.36956e-06
9.5636e-07
-3.48382e-06
3.81236e-06
4.45849e-06
1.45304e-06
2.17007e-06
6.23202e-06
6.28748e-06
4.32528e-07
1.52686e-06
1.13032e-06
4.35758e-06
-3.80004e-06
7.16184e-06
5.617e-06
2.01268e-07
1.1282e-06
4.30931e-06
5.24511e-06
3.94019e-06
2.84748e-06
9.02782e-07
2.46776e-06
3.82529e-06
5.12255e-06
0.000249014
-0.000303741
-3.53731e-06
0.000447487
-2.47858e-07
0.000662286
-5.73211e-06
0.000439873
-1.00907e-06
0.000379731
1.84938e-05
-8.85185e-05
6.64627e-06
0.000245373
-1.10728e-05
8.7794e-05
-6.43608e-06
-0.000116713
-1.06703e-05
-9.58834e-05
1.19347e-05
-3.77253e-05
7.51685e-06
5.97533e-05
-2.2738e-06
8.17925e-06
5.58147e-06
-0.000113151
1.66999e-06
-0.000263409
-1.56653e-05
-0.000216618
-1.21383e-06
-0.000135915
-4.36291e-07
-5.38312e-05
4.23297e-06
-0.000150771
-2.29724e-06
-0.000186799
1.17564e-07
4.2983e-05
1.48378e-06
-0.000166783
-4.84231e-06
-2.87826e-05
-2.29899e-06
-0.00015351
-3.02733e-07
-0.000313097
-1.1592e-05
-0.000308811
1.65944e-06
-0.000314378
3.42006e-06
6.2827e-06
1.66602e-05
-3.48527e-05
-9.1198e-06
1.45977e-05
7.12289e-06
3.23143e-05
-2.47129e-05
-1.11741e-06
4.679e-05
-2.41374e-05
4.42691e-05
-4.15603e-05
-1.66164e-05
3.39184e-05
-8.42212e-05
1.73641e-05
-2.21629e-05
-3.18739e-05
2.48694e-05
-1.46549e-05
-5.5696e-05
1.23775e-05
-7.35833e-05
1.79717e-05
-1.08497e-05
1.62126e-05
-2.54968e-05
-1.15887e-05
3.31138e-05
-9.04012e-06
-3.21779e-05
-4.79398e-06
-2.16446e-05
1.93759e-07
-4.25855e-05
5.82016e-06
-6.08573e-06
-9.8536e-06
-9.66377e-06
-1.72913e-05
-4.66531e-05
3.72558e-05
-5.29447e-05
1.12605e-05
-1.40215e-05
-4.97907e-06
8.6581e-06
-7.30654e-07
-3.75217e-05
-1.83337e-05
-1.22247e-05
-2.26675e-05
-6.45007e-07
-2.20272e-05
-3.32352e-05
-5.05745e-05
-8.35107e-06
1.71516e-05
-4.60232e-06
-6.04815e-06
2.92434e-06
-1.86167e-05
-1.07227e-05
-3.85275e-06
2.20392e-05
1.42596e-05
1.97484e-05
2.70062e-05
-6.71715e-06
-2.06398e-05
-3.65825e-05
-1.08599e-05
-1.19072e-05
1.12031e-05
1.31367e-05
6.17026e-06
-2.36618e-05
-5.04948e-06
-3.30311e-05
-8.34455e-06
-5.0966e-06
-8.26363e-06
-9.77816e-06
1.02e-05
1.46429e-05
4.45839e-06
-1.35195e-05
2.34946e-06
-8.65432e-06
7.68499e-07
-1.91694e-05
5.78451e-07
-4.05337e-06
7.31213e-06
-4.79793e-06
9.94997e-06
-2.03286e-05
-1.84687e-05
-2.45086e-05
-5.87335e-06
-6.57151e-06
1.88966e-06
4.53561e-06
-5.90938e-07
-1.6991e-05
4.79959e-06
-4.51978e-06
9.52358e-06
-6.72901e-07
1.13862e-05
-1.60615e-05
-2.2078e-05
-4.46287e-06
8.84156e-06
-1.92909e-06
-3.8032e-06
6.22376e-07
-1.05385e-05
-4.62451e-06
-2.15517e-06
6.8381e-06
9.02012e-06
3.84813e-06
1.4447e-05
2.11992e-07
-1.09656e-05
-1.11235e-05
-6.78105e-06
-4.69663e-06
6.85281e-06
3.21153e-06
4.62607e-06
-7.18611e-06
-3.87877e-06
-8.36653e-06
-5.83071e-06
-2.87324e-06
-5.34708e-06
-2.59799e-06
6.65016e-06
2.6273e-06
3.59474e-06
-4.4959e-06
2.38045e-06
-2.0798e-06
6.69336e-07
-6.14715e-06
2.19797e-07
-2.87197e-06
4.38438e-06
-3.23794e-06
5.39718e-06
-5.61947e-06
-1.01988e-05
-8.85244e-06
-3.49785e-06
-1.74703e-06
1.48524e-06
3.25356e-07
-5.64502e-07
-5.11023e-06
2.11827e-06
-2.3383e-07
5.31504e-06
-2.53876e-06
5.17196e-06
-4.4921e-06
-8.15274e-06
-3.30499e-06
5.17481e-06
-2.85347e-06
-6.69257e-06
-1.79225e-06
1.33712e-06
6.54903e-06
-4.56732e-06
-3.35568e-06
2.4426e-06
1.55728e-06
-2.285e-07
-2.15918e-06
-8.99319e-07
1.76357e-06
1.70376e-06
1.78491e-06
1.92361e-06
6.06591e-07
1.75505e-06
3.22959e-06
-5.66736e-06
-1.76193e-06
-3.0077e-07
-1.69655e-07
2.43298e-06
2.40721e-06
3.15394e-06
0.000260934
0.000205733
-6.90335e-06
-6.82785e-05
1.93773e-06
0.000307861
-7.24663e-06
2.58559e-06
-5.35547e-06
2.17542e-05
-1.35518e-05
8.38047e-06
)
;

boundaryField
{
    top_fluid_surface
    {
        type            calculated;
        value           nonuniform List<scalar> 
64
(
-0.000287466
-0.000172701
-0.000110785
-0.000129268
-0.000209684
-5.76926e-05
-0.000198443
-0.00031471
-0.000381101
-0.000231644
0.000143665
-0.000180513
-0.000283229
-0.00019246
0.00024036
-2.6383e-05
0.000782925
0.000910191
0.000866479
0.000889306
-4.96648e-05
-3.52211e-06
0.000838271
0.000685999
-0.000170204
0.000499436
0.000692311
0.000667934
0.000470367
0.000112152
-0.000285169
0.000291863
-0.000187754
-0.000358778
-0.000355032
0.000256655
-3.85622e-05
0.000132478
-0.000327012
0.000119143
0.00022841
-0.000128158
-0.000228967
8.40573e-06
-0.000188574
0.00012557
1.51758e-05
-0.000201404
-0.000293426
-9.02224e-05
6.40775e-05
-0.000296127
-0.000231682
-0.00017114
-0.000416655
-5.67857e-05
2.16838e-05
-0.000134699
-0.00022545
-0.000623773
-0.000305127
-0.000274867
-0.000212858
-0.000482399
)
;
    }
    bottom_fluid_surface
    {
        type            calculated;
        value           uniform 0;
    }
    lateral_surface_1
    {
        type            calculated;
        value           uniform 0;
    }
    lateral_surface_2
    {
        type            calculated;
        value           uniform 0;
    }
    lateral_surface_3
    {
        type            calculated;
        value           uniform 0;
    }
    lateral_surface_4
    {
        type            calculated;
        value           uniform 0;
    }
}


// ************************************************************************* //
