/*--------------------------------*- C++ -*----------------------------------*\
| =========                 |                                                 |
| \\      /  F ield         | OpenFOAM: The Open Source CFD Toolbox           |
|  \\    /   O peration     | Version:  v1612+                                |
|   \\  /    A nd           | Web:      www.OpenFOAM.com                      |
|    \\/     M anipulation  |                                                 |
\*---------------------------------------------------------------------------*/
FoamFile
{
    version     2.0;
    format      ascii;
    class       volScalarField;
    location    "2.4";
    object      alpha.water;
}
// * * * * * * * * * * * * * * * * * * * * * * * * * * * * * * * * * * * * * //

dimensions      [0 0 0 0 0 0 0];

internalField   nonuniform List<scalar> 
1116
(
0.993188
0.993188
0.993188
0.993188
0.993188
0.993188
0.993188
0.993188
0.993188
0.993188
0.993188
0.993188
0.991793
0.991792
0.991792
0.991792
0.991792
0.991792
0.990368
0.990368
0.990368
0.990368
0.990368
0.990368
0.989824
0.989824
0.989824
0.989824
0.989824
0.989824
0.989337
0.989336
0.989336
0.989336
0.989336
0.989336
0.988934
0.988934
0.988934
0.988934
0.988934
0.988934
0.980249
0.980248
0.980248
0.980248
0.980247
0.980247
0.952819
0.952806
0.952813
0.952813
0.95281
0.952814
0.952665
0.952652
0.95266
0.952659
0.952656
0.95266
0.951794
0.95178
0.951788
0.951787
0.951784
0.951788
0.940775
0.940777
0.940776
0.940777
0.94078
0.940771
0.9464
0.946398
0.946398
0.9464
0.9464
0.9464
0.736481
0.736473
0.736474
0.736477
0.736477
0.736477
0.715302
0.715297
0.715298
0.715299
0.715298
0.715301
0.707687
0.707683
0.707684
0.707683
0.707681
0.707685
0.689308
0.689305
0.689306
0.689303
0.689302
0.689304
0.634519
0.634517
0.634517
0.634514
0.634513
0.634513
0.532464
0.532462
0.532461
0.532458
0.532456
0.532456
0.394016
0.394016
0.394014
0.39401
0.394007
0.394006
0.200788
0.200789
0.200788
0.200785
0.200783
0.200783
0.221747
0.221744
0.221744
0.221742
0.221739
0.221741
0.541652
0.541621
0.541628
0.541625
0.541614
0.541628
0.891397
0.891389
0.891391
0.891391
0.891388
0.891384
0.24079
0.240786
0.240786
0.24079
0.240791
0.240789
0.0324066
0.0324038
0.0324041
0.0324053
0.0324051
0.0324055
0.00570287
0.00570197
0.0057018
0.00570186
0.00570185
0.00570226
2.1097e-08
2.10975e-08
2.10941e-08
2.11036e-08
2.11094e-08
2.10764e-08
8.3065e-09
8.30397e-09
8.30292e-09
8.30429e-09
8.3046e-09
8.29755e-09
4.79646e-12
4.79668e-12
4.79586e-12
4.79442e-12
4.79254e-12
4.79109e-12
2.54273e-12
2.54243e-12
2.54209e-12
2.54181e-12
2.54145e-12
2.54116e-12
5.57502e-12
5.5748e-12
5.57495e-12
5.57396e-12
5.5749e-12
5.56819e-12
-1.73641e-10
-1.73767e-10
-1.73728e-10
-1.73682e-10
-1.73723e-10
-1.73418e-10
-6.18252e-06
-6.18363e-06
-6.18377e-06
-6.1836e-06
-6.18343e-06
-6.18174e-06
0.0117569
0.0117474
0.0117489
0.0117489
0.0117463
0.0117511
0.729232
0.729215
0.729217
0.729208
0.729192
0.729238
7.91654e-08
7.91639e-08
7.91627e-08
7.91708e-08
7.91714e-08
7.9158e-08
2.99371e-08
2.99386e-08
2.99346e-08
2.9947e-08
2.99555e-08
2.99161e-08
2.10977e-08
2.10982e-08
2.10948e-08
2.11043e-08
2.11101e-08
2.1077e-08
8.30631e-09
8.30378e-09
8.30273e-09
8.30411e-09
8.30442e-09
8.29736e-09
4.79511e-12
4.7953e-12
4.79447e-12
4.79304e-12
4.79116e-12
4.78976e-12
2.54273e-12
2.54244e-12
2.54209e-12
2.54182e-12
2.54145e-12
2.54117e-12
2.54244e-12
2.54209e-12
2.54182e-12
2.54145e-12
2.54117e-12
2.54117e-12
2.54273e-12
2.54244e-12
2.5421e-12
2.54182e-12
2.54145e-12
2.54117e-12
-5.65411e-11
-5.65407e-11
-5.65412e-11
-5.65613e-11
-5.65546e-11
-5.66411e-11
-2.93835e-08
-2.91432e-08
-2.92354e-08
-2.92922e-08
-2.93227e-08
-2.95848e-08
0.00017707
0.000177043
0.000177044
0.000177041
0.000177025
0.00017705
0.678609
0.678559
0.678577
0.678577
0.678544
0.678625
7.47015e-62
7.48459e-62
7.48403e-62
7.48481e-62
7.48804e-62
7.47445e-62
1.67624e-57
1.67925e-57
1.67907e-57
1.67925e-57
1.67998e-57
1.67708e-57
2.05694e-53
2.05955e-53
2.059e-53
2.05903e-53
2.05985e-53
2.05636e-53
1.72354e-49
1.72407e-49
1.72308e-49
1.72288e-49
1.72359e-49
1.7211e-49
1.0069e-45
1.00595e-45
1.00501e-45
1.00484e-45
1.00545e-45
1.00461e-45
3.77425e-42
3.76904e-42
3.76592e-42
3.76648e-42
3.771e-42
3.77202e-42
7.67202e-39
7.67433e-39
7.67748e-39
7.68735e-39
7.7066e-39
7.72063e-39
6.46806e-36
6.50757e-36
6.53021e-36
6.55254e-36
6.58394e-36
6.5986e-36
1.84058e-33
1.87809e-33
1.89426e-33
1.90448e-33
1.91835e-33
1.90903e-33
4.93629e-33
4.93875e-33
4.93828e-33
4.94121e-33
4.94857e-33
4.95019e-33
4.09e-30
4.09803e-30
4.09891e-30
4.10123e-30
4.10656e-30
4.10727e-30
1.95704e-27
1.96184e-27
1.96208e-27
1.96224e-27
1.96298e-27
1.96057e-27
1.32601e-58
1.32855e-58
1.32842e-58
1.32851e-58
1.32903e-58
1.32649e-58
3.03213e-54
3.03772e-54
3.03739e-54
3.03757e-54
3.03874e-54
3.03318e-54
3.66389e-50
3.66963e-50
3.6689e-50
3.66887e-50
3.67014e-50
3.66355e-50
2.91613e-46
2.91929e-46
2.91822e-46
2.91794e-46
2.9189e-46
2.91411e-46
1.55803e-42
1.55882e-42
1.55798e-42
1.55776e-42
1.55839e-42
1.55639e-42
5.17744e-39
5.17931e-39
5.17699e-39
5.17727e-39
5.18123e-39
5.17793e-39
9.6774e-36
9.69243e-36
9.69594e-36
9.70374e-36
9.72234e-36
9.72097e-36
9.48105e-33
9.53676e-33
9.56015e-33
9.5836e-33
9.64079e-33
9.60535e-33
5.32069e-30
5.40387e-30
5.43242e-30
5.45114e-30
5.51183e-30
5.41324e-30
7.83632e-30
7.82806e-30
7.82453e-30
7.8288e-30
7.84159e-30
7.84819e-30
6.08107e-27
6.09077e-27
6.09134e-27
6.09396e-27
6.10093e-27
6.10148e-27
1.88341e-24
1.8874e-24
1.88744e-24
1.88741e-24
1.88792e-24
1.88545e-24
9.3546e-56
9.37254e-56
9.37167e-56
9.37213e-56
9.37557e-56
9.35718e-56
2.16896e-51
2.17305e-51
2.17284e-51
2.17294e-51
2.17373e-51
2.16962e-51
2.54559e-47
2.55001e-47
2.54964e-47
2.54965e-47
2.55048e-47
2.54575e-47
1.89796e-43
1.90078e-43
1.90035e-43
1.90025e-43
1.90082e-43
1.89748e-43
9.37774e-40
9.38932e-40
9.38649e-40
9.38575e-40
9.38878e-40
9.37404e-40
2.96553e-36
2.96919e-36
2.96848e-36
2.96855e-36
2.97022e-36
2.96616e-36
6.13708e-33
6.1486e-33
6.14958e-33
6.15331e-33
6.17341e-33
6.15042e-33
1.11915e-29
1.12398e-29
1.12535e-29
1.12794e-29
1.14182e-29
1.12414e-29
1.52545e-26
1.53692e-26
1.53947e-26
1.54369e-26
1.56935e-26
1.52471e-26
4.02728e-24
4.07731e-24
4.0695e-24
4.05357e-24
4.08568e-24
3.88916e-24
5.91457e-24
5.92369e-24
5.92352e-24
5.92434e-24
5.92843e-24
5.92509e-24
8.79534e-22
8.81155e-22
8.8109e-22
8.8097e-22
8.8103e-22
8.79689e-22
3.20312e-53
3.20931e-53
3.209e-53
3.20913e-53
3.21025e-53
3.2038e-53
7.43386e-49
7.44808e-49
7.4474e-49
7.4477e-49
7.45027e-49
7.43585e-49
8.31257e-45
8.32777e-45
8.32681e-45
8.3269e-45
8.3295e-45
8.31364e-45
5.67225e-41
5.68193e-41
5.68106e-41
5.68092e-41
5.68251e-41
5.67201e-41
2.48508e-37
2.48903e-37
2.48857e-37
2.48845e-37
2.48911e-37
2.48471e-37
7.08026e-34
7.09106e-34
7.08973e-34
7.09009e-34
7.09847e-34
7.0799e-34
2.48136e-30
2.48556e-30
2.48521e-30
2.4885e-30
2.51721e-30
2.47853e-30
1.10329e-26
1.1061e-26
1.10621e-26
1.10909e-26
1.1297e-26
1.09873e-26
2.11718e-23
2.12396e-23
2.12381e-23
2.1299e-23
2.17142e-23
2.09656e-23
1.86692e-20
1.87273e-20
1.86971e-20
1.87228e-20
1.9051e-20
1.82434e-20
1.98336e-21
1.98631e-21
1.98608e-21
1.98608e-21
1.98742e-21
1.98402e-21
1.09527e-21
1.09474e-21
1.09734e-21
1.09206e-21
1.06146e-21
1.13322e-21
1.24849e-06
1.24853e-06
1.24874e-06
1.24897e-06
1.24901e-06
1.24881e-06
1.52423e-06
1.5242e-06
1.52456e-06
1.52497e-06
1.52506e-06
1.52492e-06
-2.12796e-14
-2.33087e-14
-2.39252e-14
-2.33931e-14
-2.32552e-14
-2.38102e-14
1.77387e-05
1.77354e-05
1.77364e-05
1.77331e-05
1.77317e-05
1.77435e-05
2.53203e-05
2.53203e-05
2.53204e-05
2.53204e-05
2.53205e-05
2.53205e-05
-1.24309e-13
-1.36157e-13
-1.39765e-13
-1.36656e-13
-1.35849e-13
-1.39101e-13
2.99371e-08
2.99386e-08
2.99346e-08
2.9947e-08
2.99555e-08
2.99161e-08
1.1387e-07
1.13784e-07
1.13709e-07
1.13941e-07
1.14249e-07
1.14169e-07
-7.42419e-13
-8.13191e-13
-8.34724e-13
-8.16153e-13
-8.11347e-13
-8.30726e-13
6.65305e-07
6.65592e-07
6.6546e-07
6.66023e-07
6.66422e-07
6.64757e-07
7.09974e-07
7.09725e-07
7.09749e-07
7.09488e-07
7.09296e-07
7.10092e-07
-6.72241e-13
-7.36288e-13
-7.55758e-13
-7.38927e-13
-7.34572e-13
-7.52075e-13
6.54329e-07
6.54059e-07
6.53997e-07
6.54105e-07
6.54126e-07
6.53665e-07
7.54642e-07
7.54638e-07
7.54633e-07
7.54626e-07
7.54611e-07
7.54591e-07
-2.7568e-15
-3.03682e-15
-3.13939e-15
-3.06352e-15
-3.03564e-15
-2.88185e-15
3.14719e-12
3.14734e-12
3.14723e-12
3.14677e-12
3.14716e-12
3.14392e-12
3.45677e-09
3.45692e-09
3.45627e-09
3.45463e-09
3.45192e-09
3.45096e-09
2.91852e-21
2.92094e-21
2.92197e-21
2.9242e-21
2.92969e-21
2.92413e-21
2.59219e-12
2.59207e-12
2.59207e-12
2.59143e-12
2.59212e-12
2.58694e-12
2.11501e-14
2.11716e-14
2.11711e-14
2.11685e-14
2.11781e-14
2.11286e-14
1.53217e-17
1.53273e-17
1.53229e-17
1.53245e-17
1.53201e-17
1.53322e-17
5.02907e-11
5.02852e-11
5.03177e-11
5.03051e-11
5.03709e-11
5.00887e-11
3.33481e-12
3.33473e-12
3.3355e-12
3.33513e-12
3.33627e-12
3.33222e-12
1.52648e-17
1.52262e-17
1.51982e-17
1.51992e-17
1.5153e-17
1.52619e-17
4.71475e-11
4.71805e-11
4.71925e-11
4.72106e-11
4.71937e-11
4.72306e-11
2.55521e-11
2.55441e-11
2.56451e-11
2.56834e-11
2.60621e-11
2.50217e-11
-7.55272e-13
-7.55504e-13
-7.54767e-13
-7.54546e-13
-7.53286e-13
-7.57365e-13
1.11859e-10
1.11602e-10
1.11497e-10
1.1151e-10
1.11263e-10
1.12287e-10
3.18812e-08
3.1848e-08
3.18585e-08
3.18529e-08
3.18574e-08
3.18546e-08
-1.38283e-09
-1.38817e-09
-1.38677e-09
-1.38772e-09
-1.37812e-09
-1.39534e-09
1.85859e-05
1.85877e-05
1.85865e-05
1.85849e-05
1.8579e-05
1.85896e-05
1.75639e-06
1.756e-06
1.75631e-06
1.75567e-06
1.755e-06
1.75643e-06
6.86492e-08
6.86681e-08
6.8674e-08
6.86528e-08
6.86229e-08
6.85552e-08
0.309629
0.309598
0.309631
0.309625
0.309545
0.309735
3.90998e-05
3.90093e-05
3.93093e-05
3.92615e-05
3.84334e-05
4.02402e-05
-4.05908e-12
-4.11479e-12
-4.09608e-12
-4.24822e-12
-4.29614e-12
-4.08127e-12
1.18649e-12
1.1893e-12
1.18551e-12
1.19274e-12
1.23123e-12
1.14685e-12
1.62574e-10
1.68129e-10
1.55935e-10
1.65078e-10
1.74449e-10
4.12053e-11
2.5108e-08
2.52282e-08
2.52031e-08
2.51393e-08
2.59642e-08
2.47202e-08
2.13057e-10
2.13433e-10
2.13127e-10
2.13468e-10
2.16933e-10
2.09983e-10
4.96453e-08
4.97368e-08
4.96724e-08
4.97378e-08
5.05982e-08
4.88711e-08
4.86715e-06
4.87206e-06
4.86177e-06
4.88324e-06
4.97003e-06
4.76371e-06
2.73394e-06
2.73848e-06
2.73362e-06
2.74062e-06
2.74523e-06
2.7361e-06
1.61062e-06
1.61213e-06
1.61001e-06
1.61371e-06
1.61543e-06
1.60855e-06
0.00349595
0.00349692
0.00349443
0.00349962
0.00352443
0.00346381
1.84665e-06
1.84622e-06
1.84607e-06
1.84598e-06
1.84592e-06
1.84592e-06
0.02304
0.023039
0.0230269
0.0230589
0.0231582
0.0228869
0.0192143
0.0192169
0.0192081
0.019229
0.0193173
0.0190954
0.0321962
0.0321997
0.0321794
0.0322197
0.0323667
0.0320087
0.0629202
0.0629235
0.062925
0.062939
0.062939
0.0629316
0.00995133
0.00995314
0.0099526
0.00995368
0.00993777
0.00997846
0.261798
0.261784
0.261775
0.261831
0.262025
0.261563
0.0583315
0.0583468
0.0583407
0.0583462
0.0583589
0.0583447
-6.09823e-11
-6.11956e-11
-6.11064e-11
-6.11954e-11
-6.12571e-11
-6.10061e-11
4.67011e-51
4.67915e-51
4.6787e-51
4.67886e-51
4.68047e-51
4.6709e-51
8.04967e-53
8.06616e-53
8.06605e-53
8.06636e-53
8.06862e-53
8.05152e-53
3.21923e-56
3.22618e-56
3.22609e-56
3.22623e-56
3.2272e-56
3.22008e-56
1.05706e-46
1.0591e-46
1.05901e-46
1.05905e-46
1.05941e-46
1.05732e-46
3.68161e-48
3.68897e-48
3.68896e-48
3.68909e-48
3.69004e-48
3.68265e-48
1.69208e-51
1.69563e-51
1.69559e-51
1.69565e-51
1.69611e-51
1.69254e-51
1.09207e-42
1.09411e-42
1.094e-42
1.09402e-42
1.09436e-42
1.09224e-42
7.9341e-44
7.94919e-44
7.94911e-44
7.94922e-44
7.95095e-44
7.93571e-44
4.55663e-47
4.56578e-47
4.56566e-47
4.56575e-47
4.56683e-47
4.55756e-47
6.58576e-39
6.59761e-39
6.59679e-39
6.59672e-39
6.59854e-39
6.58602e-39
1.01802e-39
1.01985e-39
1.01984e-39
1.01983e-39
1.02002e-39
1.01816e-39
8.04496e-43
8.06026e-43
8.06009e-43
8.06015e-43
8.06182e-43
8.04634e-43
2.48112e-35
2.48538e-35
2.48503e-35
2.48494e-35
2.48554e-35
2.48094e-35
8.2461e-36
8.26016e-36
8.25999e-36
8.25985e-36
8.26103e-36
8.24684e-36
1.02805e-38
1.02991e-38
1.02989e-38
1.02988e-38
1.03006e-38
1.02818e-38
1.06751e-31
1.06901e-31
1.06854e-31
1.06925e-31
1.07868e-31
1.06539e-31
4.94428e-29
4.94976e-29
4.94536e-29
4.95372e-29
5.04946e-29
4.90659e-29
3.92024e-26
3.92458e-26
3.92056e-26
3.92836e-26
4.00637e-26
3.87319e-26
1.79265e-27
1.79488e-27
1.79373e-27
1.79732e-27
1.8311e-27
1.78e-27
1.29687e-24
1.29837e-24
1.29724e-24
1.3002e-24
1.32624e-24
1.28179e-24
7.16436e-22
7.17261e-22
7.16507e-22
7.18399e-22
7.33176e-22
7.04882e-22
1.0274e-23
1.0288e-23
1.02803e-23
1.03062e-23
1.05124e-23
1.01577e-23
5.50291e-21
5.50941e-21
5.50364e-21
5.519e-21
5.63254e-21
5.41409e-21
1.91835e-18
1.92061e-18
1.91811e-18
1.92439e-18
1.96498e-18
1.87945e-18
1.87979e-20
1.88245e-20
1.88051e-20
1.88608e-20
1.92463e-20
1.84936e-20
6.94041e-18
6.94875e-18
6.93919e-18
6.96298e-18
7.10906e-18
6.79872e-18
1.84518e-17
1.84517e-17
1.84522e-17
1.84512e-17
1.84503e-17
1.95235e-17
2.7883e-17
2.79177e-17
2.78783e-17
2.7966e-17
2.85374e-17
2.72894e-17
5.43277e-15
5.43908e-15
5.43106e-15
5.45012e-15
5.56282e-15
5.30828e-15
1.91011e-17
1.91091e-17
1.91125e-17
1.90319e-17
1.92481e-17
1.85879e-17
8.48551e-15
8.4775e-15
8.46908e-15
8.50088e-15
8.53348e-15
8.36844e-15
1.91157e-12
1.90808e-12
1.90664e-12
1.91615e-12
1.91135e-12
1.89162e-12
2.6924e-15
2.69501e-15
2.69229e-15
2.69297e-15
2.74805e-15
1.30905e-15
1.11894e-13
1.13227e-13
1.11086e-13
1.15598e-13
1.35365e-13
9.23637e-14
1.18819e-10
1.19737e-10
1.18599e-10
1.20802e-10
1.3245e-10
1.08944e-10
1.08763e-17
1.08737e-17
1.08884e-17
1.08508e-17
1.08267e-17
1.09659e-17
)
;

boundaryField
{
    seabed_topleft_surface
    {
        type            zeroGradient;
    }
    seabed_topright_surface
    {
        type            zeroGradient;
    }
    breakwater_top_surface
    {
        type            zeroGradient;
    }
    breakwater_left_surface
    {
        type            zeroGradient;
    }
    breakwater_right_surface
    {
        type            zeroGradient;
    }
    water_front_surface
    {
        type            zeroGradient;
    }
    water_back_surface
    {
        type            zeroGradient;
    }
    water_left_surface
    {
        type            zeroGradient;
    }
    water_right_surface
    {
        type            zeroGradient;
    }
    water_top_surface
    {
        type            inletOutlet;
        inletValue      uniform 0;
        value           nonuniform List<scalar> 
180
(
0
0
0
0
0
0
0
0
0
0
0
0
0
0
0
0
0
0
0
0
0
0
0
0
0
0
0
0
0
0
0
0
0
0
0
0
0
0
0
0
0
0
0
0
0
0
0
0
0
0
0
0
0
0
-1.38283e-09
-1.38817e-09
-1.38677e-09
-1.38772e-09
-1.37812e-09
-1.39534e-09
6.86492e-08
6.86681e-08
6.8674e-08
6.86528e-08
6.86229e-08
6.85552e-08
0
0
0
0
0
0
2.5108e-08
2.52282e-08
2.52031e-08
2.51393e-08
2.59642e-08
2.47202e-08
4.86715e-06
4.87206e-06
4.86177e-06
4.88324e-06
4.97003e-06
4.76371e-06
0.00349595
0.00349692
0.00349443
0.00349962
0.00352443
0.00346381
0.0192143
0.0192169
0.0192081
0.019229
0.0193173
0.0190954
0.00995133
0.00995314
0.0099526
0.00995368
0.00993777
0.00997846
0
0
0
0
0
0
0
0
0
0
0
0
0
0
0
0
0
0
0
0
0
0
0
0
0
0
0
0
0
0
0
0
0
0
0
0
0
0
0
0
0
0
0
0
0
0
0
0
0
0
0
0
0
0
0
0
0
0
0
0
0
0
0
0
0
0
0
0
0
0
0
0
0
0
0
0
0
0
)
;
    }
}


// ************************************************************************* //
