/*--------------------------------*- C++ -*----------------------------------*\
| =========                 |                                                 |
| \\      /  F ield         | OpenFOAM: The Open Source CFD Toolbox           |
|  \\    /   O peration     | Version:  v1612+                                |
|   \\  /    A nd           | Web:      www.OpenFOAM.com                      |
|    \\/     M anipulation  |                                                 |
\*---------------------------------------------------------------------------*/
FoamFile
{
    version     2.0;
    format      ascii;
    class       surfaceScalarField;
    location    "2.4";
    object      alphaPhi;
}
// * * * * * * * * * * * * * * * * * * * * * * * * * * * * * * * * * * * * * //

dimensions      [0 3 -1 0 0 0 0];

internalField   nonuniform List<scalar> 
2916
(
-8.0661e-06
0.640355
-0.603217
-3.65457e-06
0.640357
-0.603232
-2.85207e-06
0.640357
-0.603228
-5.22466e-06
0.640358
-0.603226
-1.49396e-06
0.640359
-0.603233
0.640355
-0.603226
-8.70248e-06
1.29482
-0.617325
-4.55355e-06
1.29483
-0.617342
-4.94684e-06
1.29483
-0.617338
-4.55158e-06
1.29483
-0.617338
3.21254e-06
1.29483
-0.617345
1.29482
-0.617333
-6.13866e-06
1.72025
-0.388822
-3.50768e-06
1.72026
-0.388835
-5.12817e-06
1.72026
-0.38883
-5.2724e-06
1.72026
-0.388831
1.39793e-06
1.72026
-0.388837
1.72025
-0.388825
-4.63721e-06
2.01625
-0.257682
-4.23285e-06
2.01626
-0.257689
-7.02031e-06
2.01626
-0.257684
-6.97793e-06
2.01626
-0.257687
-5.65625e-08
2.01626
-0.257693
2.01625
-0.257681
-6.65415e-06
2.24464
-0.191441
-6.91667e-06
2.24465
-0.191447
-9.58404e-06
2.24465
-0.191444
-8.24089e-06
2.24465
-0.191447
-5.17382e-07
2.24465
-0.191454
2.24463
-0.191443
-1.0411e-05
2.43959
-0.159302
-9.50162e-06
2.4396
-0.159311
-1.11028e-05
2.4396
-0.159308
-9.34512e-06
2.4396
-0.159312
-1.45232e-06
2.4396
-0.159319
2.43957
-0.159308
-1.07052e-05
2.61157
-0.138504
-7.70638e-06
2.61158
-0.138515
-7.91761e-06
2.61157
-0.138513
-6.75059e-06
2.61157
-0.138515
4.62375e-08
2.61158
-0.138522
2.61155
-0.138513
-4.25635e-06
2.72647
-0.127519
9.47835e-07
2.72649
-0.127533
1.3647e-06
2.72649
-0.127528
1.98972e-06
2.72648
-0.127528
6.11917e-06
2.72649
-0.127533
2.72646
-0.127522
-7.87285e-07
2.55918
0.0801479
1.04953e-05
2.55918
0.0801287
1.04551e-05
2.5592
0.080135
9.17637e-06
2.55919
0.0801381
1.19393e-05
2.5592
0.0801339
2.55916
0.0801541
-5.64402e-07
1.90995
0.563412
1.01372e-05
1.90997
0.56336
1.20128e-05
1.90999
0.563389
1.13402e-05
1.90998
0.563392
9.0156e-06
1.90999
0.563383
1.90994
0.563406
7.58408e-06
0.799432
1.02487
2.00529e-06
0.799471
1.02484
6.51885e-06
0.799469
1.02486
6.66252e-06
0.799467
1.02486
-2.2789e-06
0.79949
1.02485
0.799427
1.02486
-3.39616e-05
0.735442
-1.94743e-05
0.735438
-1.2463e-05
0.735439
-8.0841e-06
0.735441
7.33789e-06
0.735454
0.735407
-4.86787e-06
0.617766
-0.872241
-5.98691e-06
0.617761
-0.872243
-5.42779e-06
0.617764
-0.872243
-1.32119e-05
0.617768
-0.872245
-1.68615e-05
0.617767
-0.872254
0.617757
-0.872254
7.80497e-06
1.00956
-0.421825
-6.4116e-06
1.00956
-0.421816
-8.55752e-06
1.00956
-0.42182
-8.80192e-06
1.00956
-0.421823
-1.10826e-05
1.00956
-0.421826
1.00956
-0.421827
1.16418e-05
1.33976
-0.207808
-3.35201e-06
1.33977
-0.207803
-7.72249e-06
1.33977
-0.207804
-8.05839e-06
1.33977
-0.207806
-1.62558e-05
1.33977
-0.207806
1.33976
-0.20781
1.78064e-05
1.55822
-0.0185561
2.31245e-06
1.55824
-0.0185543
-3.33008e-06
1.55823
-0.018554
-6.85114e-06
1.55823
-0.0185546
-1.71459e-05
1.55823
-0.0185548
1.55821
-0.0185558
1.63032e-05
1.63783
-0.00111646
5.78094e-06
1.63786
-0.00111638
1.93741e-06
1.63785
-0.00111638
-1.89759e-06
1.63785
-0.00111644
-1.22715e-05
1.63785
-0.00111646
1.63783
-0.00111655
1.55848e-05
1.59457
-9.27094e-05
9.68741e-06
1.59461
-9.27065e-05
8.5132e-06
1.5946
-9.27077e-05
4.97536e-06
1.59459
-9.27151e-05
-4.01901e-06
1.5946
-9.27169e-05
1.59457
-9.27258e-05
1.59781e-05
1.39971
-1.09309e-05
1.29171e-05
1.39976
-1.09307e-05
1.37207e-05
1.39974
-1.0931e-05
1.12831e-05
1.39973
-1.09321e-05
3.50427e-06
1.39974
-1.09323e-05
1.39972
-1.09337e-05
1.33256e-05
1.09855
-1.63379e-06
9.09578e-06
1.0986
-1.63378e-06
8.49511e-06
1.09858
-1.63385e-06
6.90861e-06
1.09857
-1.63401e-06
4.86338e-07
1.09856
-1.63403e-06
1.09854
-1.63428e-06
8.55758e-06
0.979513
-3.56556e-07
4.55537e-06
0.979545
-3.56657e-07
2.38887e-06
0.979533
-3.56627e-07
1.3147e-06
0.97952
-3.56633e-07
-2.12408e-06
0.979514
-3.56663e-07
0.979502
-3.5652e-07
7.62222e-06
1.266
0.039388
3.6868e-06
1.26603
0.0393805
8.3665e-07
1.26601
0.0393819
-6.26332e-07
1.26601
0.0393811
-1.95618e-06
1.266
0.0393792
1.26599
0.0393819
2.39618e-05
1.28092
0.427172
8.0565e-06
1.28097
0.427118
7.52823e-06
1.28095
0.427122
7.49557e-06
1.28094
0.427115
-2.74209e-06
1.28092
0.427094
1.28092
0.427122
-2.75399e-05
1.77534
-1.90949e-06
1.77532
5.257e-06
1.77532
1.4678e-05
1.77531
2.76448e-05
1.77528
1.77531
1.7741e-06
0.0931654
-3.56747e-06
-2.13337e-06
0.0931623
-3.56777e-06
-8.93783e-07
0.0931638
-3.5683e-06
-2.35437e-07
0.0931638
-3.56863e-06
-4.24717e-06
0.093163
-3.56859e-06
0.0931675
-3.56793e-06
5.23876e-08
0.011935
-6.32081e-05
-1.19248e-06
0.0119333
-6.31898e-05
-5.66645e-07
0.0119331
-6.31954e-05
-3.6839e-07
0.0119334
-6.31765e-05
-1.54447e-06
0.0119335
-6.31684e-05
0.0119338
-6.3235e-05
1.67548e-07
0.019776
-7.77894e-07
1.66607e-07
0.0197741
-7.77708e-07
3.60638e-07
0.0197738
-7.77703e-07
4.45382e-07
0.0197744
-7.77681e-07
3.03497e-07
0.0197746
-7.77719e-07
0.0197758
-7.77964e-07
5.74101e-08
0.00122074
-9.48224e-07
6.61238e-08
0.00122066
-9.49713e-07
6.63119e-08
0.00122066
-9.4928e-07
5.13955e-08
0.00122073
-9.51433e-07
2.95653e-08
0.00122075
-9.53013e-07
0.00122085
-9.467e-07
2.74214e-09
0.000105583
-1.31288e-06
4.70412e-09
0.000105581
-1.31216e-06
4.65085e-09
0.000105582
-1.31191e-06
3.97045e-09
0.00010559
-1.31231e-06
2.37647e-09
0.000105593
-1.31243e-06
0.000105603
-1.31064e-06
9.23576e-11
1.28742e-05
-2.97597e-10
3.95159e-10
1.2874e-05
-2.97655e-10
4.95969e-10
1.28744e-05
-2.97568e-10
4.97375e-10
1.28756e-05
-2.97416e-10
4.82438e-10
1.28759e-05
-2.97185e-10
1.28775e-05
-2.97061e-10
1.54967e-11
1.94327e-06
-1.08765e-11
4.51916e-11
1.94326e-06
-1.08768e-11
6.24552e-11
1.94334e-06
-1.08796e-11
6.19751e-11
1.94354e-06
-1.08659e-11
7.38005e-11
1.94356e-06
-1.08843e-11
1.94386e-06
-1.08429e-11
3.35216e-12
3.0979e-07
-3.32365e-10
5.23977e-12
3.09795e-07
-3.32373e-10
5.66562e-12
3.09809e-07
-3.32419e-10
4.55935e-12
3.0984e-07
-3.32354e-10
8.61789e-13
3.09844e-07
-3.32471e-10
3.09892e-07
-3.31808e-10
-6.92214e-13
-5.34341e-08
5.83837e-09
-1.20108e-12
-5.35266e-08
5.83852e-09
-1.40538e-12
-5.34828e-08
5.83878e-09
-1.25516e-12
-5.34601e-08
5.83933e-09
-1.23681e-12
-5.34864e-08
5.83922e-09
-5.33097e-08
5.84008e-09
-1.4363e-07
0.0354972
0.0039245
-2.78905e-07
0.0354894
0.00392483
-2.48807e-07
0.0354907
0.00392483
-2.19206e-07
0.03549
0.00392463
3.4034e-07
0.0354876
0.00392459
0.035492
0.00392383
-2.01451e-06
0.206133
0.109533
-2.77402e-07
0.206122
0.109531
-5.80929e-08
0.206126
0.10953
-5.71206e-07
0.206123
0.109528
2.57428e-06
0.206106
0.109525
0.206123
0.109527
-3.88278e-06
1.77056
7.20741e-06
1.77043
2.61439e-05
1.77047
5.205e-05
1.77045
2.19091e-05
1.77033
1.77065
-4.82476e-12
4.66756e-08
-3.65475e-06
-3.22437e-12
4.66742e-08
-3.65507e-06
1.09246e-12
4.66781e-08
-3.65562e-06
6.79156e-12
4.66794e-08
-3.65608e-06
9.73389e-12
4.66781e-08
-3.65606e-06
4.66847e-08
-3.65539e-06
-8.54283e-11
7.57414e-07
-6.39462e-05
-3.08225e-11
7.57203e-07
-6.39279e-05
2.84401e-11
7.57212e-07
-6.39334e-05
1.72244e-11
7.57111e-07
-6.39144e-05
-1.39004e-11
7.57087e-07
-6.39062e-05
7.57521e-07
-6.39733e-05
-1.62859e-12
2.47362e-08
-7.85308e-08
1.16274e-12
2.47357e-08
-7.8549e-08
2.33646e-12
2.47314e-08
-7.85302e-08
2.98964e-12
2.47452e-08
-7.85993e-08
4.52869e-12
2.47556e-08
-7.86558e-08
2.47174e-08
-7.84803e-08
1.93981e-12
1.47273e-08
-9.49726e-07
4.08627e-12
1.4729e-08
-9.51217e-07
4.11505e-12
1.47275e-08
-9.50785e-07
3.40443e-12
1.4738e-08
-9.52925e-07
3.25646e-12
1.47453e-08
-9.54496e-07
1.47177e-08
-9.48212e-07
1.42514e-12
1.07692e-11
-1.2982e-06
4.27401e-12
1.07607e-11
-1.29748e-06
4.67997e-12
1.07504e-11
-1.29722e-06
3.96717e-12
1.07533e-11
-1.29761e-06
3.73062e-12
1.07547e-11
-1.29773e-06
1.072e-11
-1.29596e-06
-1.7868e-15
-2.79912e-12
-2.93549e-10
-1.73104e-15
-2.79931e-12
-2.9362e-10
-1.43961e-15
-2.79855e-12
-2.93546e-10
-7.6335e-16
-2.79799e-12
-2.93394e-10
6.45425e-16
-2.79797e-12
-2.93163e-10
-2.79637e-12
-2.93072e-10
-8.02493e-16
-8.76157e-12
-1.44378e-11
-1.11378e-15
-8.76262e-12
-1.44401e-11
-1.2615e-15
-8.76454e-12
-1.44419e-11
-1.13936e-15
-8.75889e-12
-1.44339e-11
-5.16565e-16
-8.7684e-12
-1.44429e-11
-8.75176e-12
-1.44165e-11
-1.21109e-15
3.91294e-12
-3.56468e-10
-2.96451e-15
3.91237e-12
-3.56478e-10
-5.7274e-15
3.91356e-12
-3.56529e-10
-7.07708e-15
3.91224e-12
-3.56459e-10
-1.04446e-14
3.91274e-12
-3.56585e-10
3.90451e-12
-3.55907e-10
-3.54403e-15
1.9227e-09
6.07996e-11
-2.13246e-14
1.92169e-09
6.0777e-11
-4.189e-14
1.92214e-09
6.08001e-11
-5.20271e-14
1.92557e-09
6.08297e-11
-1.0887e-13
1.92453e-09
6.08419e-11
1.93765e-09
6.08453e-11
-1.59202e-08
0.0034928
0.000431793
-1.02224e-07
0.00349306
0.000431934
-1.05661e-07
0.00349305
0.000431869
-7.80509e-08
0.00349284
0.000431849
-1.11219e-07
0.00349287
0.000431829
0.00349204
0.000431769
8.18695e-07
0.0928482
0.019421
-9.5504e-08
0.0928494
0.0194202
-8.58334e-08
0.0928485
0.0194195
8.73945e-08
0.0928454
0.0194196
3.30742e-07
0.0928428
0.0194197
0.0928463
0.019418
-1.65348e-05
1.58841
4.05168e-06
1.58827
4.27051e-05
1.58833
3.10856e-05
1.58837
-4.24476e-05
1.58833
1.58844
1.14318e-68
1.66728e-64
-2.95976e-61
-3.00856e-68
1.67035e-64
-2.96547e-61
-5.06747e-68
1.67014e-64
-2.96519e-61
-5.12847e-68
1.67021e-64
-2.96544e-61
-3.64369e-68
1.67083e-64
-2.96663e-61
1.66765e-64
-2.96102e-61
-5.4525e-64
7.62349e-60
-7.02385e-57
-1.32714e-63
7.63665e-60
-7.03575e-57
-1.82144e-63
7.63544e-60
-7.03471e-57
-1.88998e-63
7.63572e-60
-7.03521e-57
-1.44432e-63
7.63856e-60
-7.03812e-57
7.62468e-60
-7.02555e-57
-1.12693e-59
1.4448e-55
-9.07089e-53
-2.36997e-59
1.44648e-55
-9.07978e-53
-3.58934e-59
1.44594e-55
-9.07641e-53
-3.92679e-59
1.44579e-55
-9.07608e-53
-2.87169e-59
1.44619e-55
-9.07961e-53
1.44353e-55
-9.06431e-53
-1.49149e-55
1.67817e-51
-7.90713e-49
-4.05081e-55
1.67832e-51
-7.90607e-49
-6.47397e-55
1.67701e-51
-7.9004e-49
-7.23609e-55
1.67647e-51
-7.89933e-49
-5.33172e-55
1.67679e-51
-7.90312e-49
1.67396e-51
-7.893e-49
-2.40954e-51
1.2874e-47
-4.74534e-45
-6.18081e-51
1.28563e-47
-4.73921e-45
-9.02808e-51
1.28397e-47
-4.73462e-45
-9.68573e-51
1.28334e-47
-4.73433e-45
-7.12413e-51
1.28371e-47
-4.73832e-45
1.28216e-47
-4.73631e-45
-3.1007e-47
6.14325e-44
-1.80272e-41
-5.82549e-47
6.13057e-44
-1.80097e-41
-7.28254e-47
6.12237e-44
-1.80007e-41
-7.22276e-47
6.12076e-44
-1.80098e-41
-5.13565e-47
6.12572e-44
-1.80397e-41
6.12443e-44
-1.80554e-41
-1.57466e-43
1.54723e-40
-3.74471e-38
-2.36735e-43
1.54621e-40
-3.75303e-38
-2.5887e-43
1.54594e-40
-3.75818e-38
-2.35023e-43
1.54731e-40
-3.76576e-38
-1.58352e-43
1.55065e-40
-3.77883e-38
1.55269e-40
-3.78645e-38
-2.3313e-40
1.55566e-37
-3.64886e-35
-2.92941e-40
1.56335e-37
-3.68846e-35
-2.75432e-40
1.56798e-37
-3.70814e-35
-2.19263e-40
1.57299e-37
-3.72543e-35
-1.32675e-40
1.58028e-37
-3.75515e-35
1.58323e-37
-3.74928e-35
-7.673e-38
4.96906e-35
-1.54592e-32
-7.49451e-38
5.06416e-35
-1.59075e-32
-5.00717e-38
5.10615e-35
-1.60759e-32
-2.28194e-38
5.13386e-35
-1.61721e-32
-3.90934e-39
5.17186e-35
-1.63656e-32
5.14639e-35
-1.60659e-32
-8.86637e-38
1.30032e-34
3.31908e-36
-2.92651e-39
1.2993e-34
3.14619e-36
1.02093e-37
1.29891e-34
3.11146e-36
1.69735e-37
1.29991e-34
3.13394e-36
1.55115e-37
1.30223e-34
3.1987e-36
1.303e-34
3.29894e-36
9.09553e-35
8.39267e-32
2.37184e-32
1.85198e-34
8.39805e-32
2.37307e-32
2.54172e-34
8.39676e-32
2.37705e-32
2.77046e-34
8.40118e-32
2.38531e-32
2.17713e-34
8.41358e-32
2.39851e-32
8.41888e-32
2.41395e-32
5.95479e-32
4.00972e-29
5.82712e-32
4.02033e-29
4.33529e-32
4.0207e-29
2.89422e-32
4.02087e-29
1.67157e-32
4.023e-29
4.02034e-29
1.00195e-66
2.99099e-61
-4.19868e-58
-7.95835e-65
2.99625e-61
-4.20674e-58
-1.08678e-64
2.99572e-61
-4.20629e-58
-1.08194e-64
2.99567e-61
-4.20648e-58
-8.73193e-65
2.99667e-61
-4.208e-58
2.99074e-61
-4.19971e-58
-2.27909e-60
1.40077e-56
-1.01524e-53
-3.69165e-60
1.40314e-56
-1.01707e-53
-4.06366e-60
1.40285e-56
-1.01693e-53
-3.7466e-60
1.40281e-56
-1.01696e-53
-2.7725e-60
1.40325e-56
-1.01733e-53
1.40057e-56
-1.01542e-53
-6.56475e-56
2.63546e-52
-1.28479e-49
-8.43025e-56
2.63903e-52
-1.28661e-49
-8.76495e-56
2.63808e-52
-1.28627e-49
-7.60026e-56
2.6377e-52
-1.28621e-49
-4.59931e-56
2.63828e-52
-1.28665e-49
2.6332e-52
-1.28435e-49
-1.03326e-51
2.932e-48
-1.05681e-45
-1.36411e-51
2.93416e-48
-1.05771e-45
-1.42778e-51
2.93231e-48
-1.05724e-45
-1.24322e-51
2.93137e-48
-1.05713e-45
-7.62899e-52
2.93172e-48
-1.05753e-45
2.92628e-48
-1.05592e-45
-1.12376e-47
2.05299e-44
-5.77627e-42
-1.51837e-47
2.05283e-44
-5.77846e-42
-1.56711e-47
2.05089e-44
-5.77536e-42
-1.36018e-47
2.04994e-44
-5.77498e-42
-8.59986e-48
2.05018e-44
-5.77831e-42
2.04689e-44
-5.77246e-42
-7.13306e-44
8.48564e-41
-1.98097e-38
-9.28281e-44
8.48038e-41
-1.98246e-38
-9.11295e-44
8.4717e-41
-1.98209e-38
-7.56773e-44
8.46881e-41
-1.98273e-38
-4.6963e-44
8.47248e-41
-1.98504e-38
8.46374e-41
-1.98437e-38
-2.16676e-40
1.88888e-37
-4.28125e-35
-2.5016e-40
1.88892e-37
-4.29411e-35
-2.14861e-40
1.88825e-37
-4.29867e-35
-1.55046e-40
1.88905e-37
-4.30514e-35
-8.52608e-41
1.89219e-37
-4.32381e-35
1.89128e-37
-4.3139e-35
-2.46011e-37
2.11179e-34
-7.36252e-32
-2.07825e-37
2.11952e-34
-7.42804e-32
-1.01492e-37
2.12311e-34
-7.4542e-32
-8.07911e-39
2.12791e-34
-7.48295e-32
2.98466e-38
2.14069e-34
-7.58405e-32
2.13277e-34
-7.47454e-32
-6.46632e-35
1.28691e-31
-7.33393e-29
4.61419e-35
1.3033e-31
-7.46734e-29
1.71491e-34
1.30931e-31
-7.50855e-29
2.36826e-34
1.31409e-31
-7.5376e-29
1.98373e-34
1.32954e-31
-7.65803e-29
1.30676e-31
-7.42289e-29
1.66383e-34
1.8727e-31
7.35849e-33
4.80278e-34
1.86525e-31
6.93202e-33
7.23626e-34
1.86369e-31
6.89112e-33
7.90096e-34
1.86594e-31
7.02159e-33
5.92288e-34
1.87132e-31
7.28222e-33
1.87615e-31
7.66479e-33
4.01697e-31
1.19911e-28
6.0268e-29
5.90035e-31
1.19802e-28
6.0403e-29
6.50573e-31
1.198e-28
6.05459e-29
6.01233e-31
1.19961e-28
6.07727e-29
4.07942e-31
1.20303e-28
6.11155e-29
1.20623e-28
6.15058e-29
6.71075e-29
7.56584e-26
1.96779e-29
7.58489e-26
-4.3387e-29
7.58609e-26
-8.28499e-29
7.58691e-26
-7.74384e-29
7.59136e-26
7.58601e-26
1.59579e-62
2.03894e-58
-2.13612e-55
-4.41416e-62
2.0426e-58
-2.14025e-55
-6.45714e-62
2.04229e-58
-2.14003e-55
-6.56434e-62
2.04228e-58
-2.1401e-55
-5.46724e-62
2.04298e-58
-2.14085e-55
2.03896e-58
-2.13653e-55
-1.10793e-57
9.74871e-54
-5.20103e-51
-2.15175e-57
9.76604e-54
-5.21074e-51
-2.35238e-57
9.76443e-54
-5.21012e-51
-2.11631e-57
9.76439e-54
-5.21028e-51
-1.60809e-57
9.76768e-54
-5.21209e-51
9.74918e-54
-5.20204e-51
-3.65291e-53
1.80278e-49
-6.34507e-47
-4.76161e-53
1.80565e-49
-6.35558e-47
-4.59333e-53
1.8052e-49
-6.35441e-47
-3.56191e-53
1.80506e-49
-6.35432e-47
-1.93676e-53
1.80556e-49
-6.3564e-47
1.80217e-49
-6.34459e-47
-5.67175e-49
1.91712e-45
-4.86874e-43
-6.91714e-49
1.91951e-45
-4.87547e-43
-6.38287e-49
1.91877e-45
-4.87416e-43
-4.72611e-49
1.91844e-45
-4.87391e-43
-2.37616e-49
1.91886e-45
-4.87558e-43
1.9154e-45
-4.86733e-43
-5.48984e-45
1.29681e-41
-2.45536e-39
-6.34972e-45
1.29787e-41
-2.45836e-39
-5.49078e-45
1.29718e-41
-2.45767e-39
-3.80854e-45
1.2969e-41
-2.45764e-39
-1.75976e-45
1.29723e-41
-2.45872e-39
1.29516e-41
-2.45527e-39
-2.9878e-41
5.55582e-38
-8.19576e-36
-3.00483e-41
5.55898e-38
-8.20829e-36
-2.13366e-41
5.55613e-38
-8.20773e-36
-1.05788e-41
5.55566e-38
-8.20996e-36
-1.81636e-42
5.55885e-38
-8.22279e-36
5.55173e-38
-8.20616e-36
-7.84651e-38
1.54135e-34
-3.31107e-32
-5.16517e-38
1.54278e-34
-3.32006e-32
-5.60202e-39
1.54265e-34
-3.32167e-32
3.06812e-38
1.54363e-34
-3.3279e-32
3.91951e-38
1.549e-34
-3.36831e-32
1.54373e-34
-3.31885e-32
-7.01996e-35
3.6651e-31
-1.56735e-28
1.0733e-34
3.67671e-31
-1.57559e-28
2.94562e-34
3.68078e-31
-1.57781e-28
3.87302e-34
3.69043e-31
-1.58319e-28
3.2019e-34
3.73802e-31
-1.61343e-28
3.68308e-31
-1.5695e-28
3.20575e-31
6.23718e-28
-2.7455e-25
8.58014e-31
6.27735e-28
-2.76669e-25
1.24715e-30
6.2888e-28
-2.77057e-25
1.33162e-30
6.31032e-28
-2.77916e-25
9.93089e-31
6.4218e-28
-2.83135e-25
6.24747e-28
-2.72889e-25
2.73133e-28
1.84042e-25
-7.357e-23
4.45234e-28
1.86182e-25
-7.44333e-23
5.14815e-28
1.85909e-25
-7.42232e-23
4.7647e-28
1.85376e-25
-7.39005e-23
3.13241e-28
1.87122e-25
-7.44786e-23
1.78455e-25
-7.03534e-23
3.89822e-28
2.5631e-25
7.22053e-26
4.66171e-28
2.56644e-25
7.25236e-26
4.13185e-28
2.56799e-25
7.27432e-26
2.89909e-28
2.57121e-25
7.30203e-26
1.22122e-28
2.57686e-25
7.3392e-26
2.57994e-25
7.3733e-26
-3.19257e-26
7.34783e-23
-8.32294e-26
7.36385e-23
-1.24775e-25
7.36527e-23
-1.33356e-25
7.36569e-23
-1.03336e-25
7.36921e-23
7.35954e-23
6.86434e-60
6.36234e-56
-4.04257e-53
-1.19139e-59
6.3739e-56
-4.05044e-53
-1.74322e-59
6.37295e-56
-4.05002e-53
-1.78556e-59
6.37302e-56
-4.05016e-53
-1.56985e-59
6.37525e-56
-4.05154e-53
6.36247e-56
-4.04322e-53
-2.79579e-55
3.0755e-51
-9.67023e-49
-5.68543e-55
3.08104e-51
-9.68876e-49
-5.75304e-55
3.08059e-51
-9.68773e-49
-4.98646e-55
3.08066e-51
-9.68804e-49
-4.21316e-55
3.08176e-51
-9.69133e-49
3.07588e-51
-9.67223e-49
-9.73109e-51
5.52142e-47
-1.10709e-44
-1.09022e-50
5.53067e-47
-1.10909e-44
-8.23745e-51
5.52967e-47
-1.10894e-44
-4.73172e-51
5.52961e-47
-1.10894e-44
-2.20827e-51
5.53143e-47
-1.10929e-44
5.52105e-47
-1.10716e-44
-1.22234e-46
5.52022e-43
-7.68615e-41
-1.08505e-46
5.52839e-43
-7.69904e-41
-5.72259e-47
5.52712e-43
-7.69772e-41
-5.41186e-48
5.52691e-43
-7.69757e-41
2.038e-47
5.52864e-43
-7.69993e-41
5.51871e-43
-7.68584e-41
-6.67923e-43
3.38038e-39
-3.41109e-37
-3.73675e-43
3.38474e-39
-3.41657e-37
9.52506e-44
3.38391e-39
-3.41602e-37
4.66059e-43
3.38387e-39
-3.41603e-37
5.34103e-43
3.38507e-39
-3.4172e-37
3.37946e-39
-3.41141e-37
-4.73246e-40
1.28859e-35
-1.72633e-33
2.2272e-39
1.29005e-35
-1.7289e-33
4.88035e-39
1.2898e-35
-1.72837e-33
6.27714e-39
1.29005e-35
-1.72981e-33
5.2617e-39
1.29186e-35
-1.74546e-33
1.2888e-35
-1.72443e-33
2.1397e-35
5.88364e-32
-3.38162e-29
4.55072e-35
5.89094e-32
-3.38775e-29
6.11245e-35
5.89072e-32
-3.38693e-29
6.35697e-35
5.90039e-32
-3.39498e-29
4.67866e-35
5.97109e-32
-3.46003e-29
5.88249e-32
-3.36454e-29
3.18785e-31
3.35189e-28
-2.14772e-25
5.25755e-31
3.35908e-28
-2.15333e-25
6.15858e-31
3.36043e-28
-2.15326e-25
5.84203e-31
3.37115e-28
-2.15979e-25
4.04633e-31
3.43651e-28
-2.20374e-25
3.34565e-28
-2.12953e-25
1.13032e-27
8.16404e-25
-3.98537e-22
1.64224e-27
8.1894e-25
-3.99788e-22
1.75625e-27
8.19372e-25
-3.99653e-22
1.54298e-27
8.22476e-25
-4.00931e-22
9.92417e-28
8.39502e-25
-4.0904e-22
8.1174e-25
-3.92747e-22
9.63127e-25
8.70849e-22
-3.37688e-19
1.22493e-24
8.73961e-22
-3.3867e-19
1.1295e-24
8.73306e-22
-3.38008e-19
8.25701e-25
8.75462e-22
-3.38537e-19
3.73336e-25
8.91939e-22
-3.44556e-19
8.55277e-22
-3.28352e-19
-4.01271e-26
8.79793e-23
5.9655e-23
-9.85959e-26
8.81797e-23
5.98479e-23
-1.54098e-25
8.82534e-23
5.99507e-23
-1.76192e-25
8.83477e-23
6.01874e-23
-1.52349e-25
8.85013e-23
6.05567e-23
8.84209e-23
5.99256e-23
-2.52035e-25
5.29575e-20
-3.94831e-25
5.2615e-20
-4.7066e-25
5.30363e-20
-3.78333e-25
5.22416e-20
-3.36683e-25
4.68459e-20
5.91827e-20
-7.2094e-11
-3.05853e-06
-1.49557e-06
-1.85684e-11
-3.05859e-06
-1.49605e-06
-8.21598e-12
-3.05935e-06
-1.49609e-06
4.05418e-11
-3.06011e-06
-1.4961e-06
1.33546e-10
-3.06028e-06
-1.49595e-06
-3.05997e-06
-1.49536e-06
1.3686e-11
4.17979e-14
-1.25146e-06
3.97945e-11
4.57853e-14
-1.25172e-06
2.71632e-11
4.6996e-14
-1.25187e-06
2.79031e-11
4.59502e-14
-1.25207e-06
5.9875e-11
4.56794e-14
-1.25213e-06
4.6768e-14
-1.25201e-06
-1.66942e-19
1.36633e-15
1.93155e-19
1.49682e-15
4.57645e-19
1.53649e-15
5.73302e-19
1.50175e-15
5.88498e-19
1.49259e-15
1.52966e-15
-8.74135e-10
-5.90865e-05
-9.29354e-07
2.05363e-11
-5.9086e-05
-9.29714e-07
5.82164e-10
-5.90856e-05
-9.29475e-07
6.58351e-10
-5.90853e-05
-9.30505e-07
6.72562e-10
-5.90858e-05
-9.31419e-07
-5.90858e-05
-9.2916e-07
-6.59134e-10
2.66011e-13
-2.74594e-08
-8.32387e-10
2.91372e-13
-2.75444e-08
-6.87693e-10
2.99091e-13
-2.7506e-08
-2.89517e-10
2.92436e-13
-2.75641e-08
-1.5686e-10
2.90712e-13
-2.76527e-08
2.97658e-13
-2.74971e-08
-2.48092e-18
6.16227e-14
-1.41299e-18
6.74934e-14
-8.17418e-19
6.92824e-14
-2.05754e-19
6.77391e-14
1.7537e-18
6.73387e-14
6.89602e-14
-4.70974e-13
-1.54106e-07
-8.81492e-07
-4.73182e-13
-1.53997e-07
-8.81976e-07
-1.18834e-12
-1.53893e-07
-8.81822e-07
-1.18153e-12
-1.54209e-07
-8.82588e-07
2.77758e-13
-1.54629e-07
-8.83124e-07
-1.54506e-07
-8.80852e-07
1.00575e-13
1.07362e-12
-1.69739e-07
-1.25217e-12
1.17601e-12
-1.69641e-07
-1.55231e-12
1.20713e-12
-1.69663e-07
-1.74574e-12
1.18027e-12
-1.69602e-07
-2.86605e-12
1.17333e-12
-1.69566e-07
1.20129e-12
-1.69855e-07
-1.21174e-17
-2.00075e-14
-9.60172e-18
-2.19217e-14
-8.87711e-18
-2.25004e-14
-4.61238e-18
-2.20007e-14
8.43629e-18
-2.18721e-14
-2.23825e-14
-1.40281e-11
-1.2832e-06
-3.13695e-07
-2.47013e-11
-1.2834e-06
-3.13963e-07
-3.4399e-11
-1.28326e-06
-3.13911e-07
-2.83663e-11
-1.28365e-06
-3.14286e-07
6.24822e-13
-1.28393e-06
-3.14556e-07
-1.28266e-06
-3.13535e-07
1.1345e-11
1.31207e-12
-3.97312e-08
-1.44564e-11
1.43715e-12
-3.97123e-08
-2.85521e-11
1.47515e-12
-3.97221e-08
-3.64037e-11
1.4423e-12
-3.97274e-08
-4.4683e-11
1.43382e-12
-3.97361e-08
1.46789e-12
-3.97734e-08
-1.70519e-17
-2.19079e-14
-1.65822e-17
-2.39975e-14
-1.19151e-17
-2.4632e-14
-2.46357e-18
-2.40835e-14
1.50987e-17
-2.39417e-14
-2.45103e-14
-4.94568e-11
-1.27974e-06
-6.85229e-09
-6.36886e-11
-1.27982e-06
-6.85335e-09
-5.40936e-11
-1.27979e-06
-6.85208e-09
-3.31375e-11
-1.27973e-06
-6.84905e-09
3.96382e-12
-1.27964e-06
-6.8443e-09
-1.27942e-06
-6.84205e-09
1.01294e-11
4.94587e-15
3.58546e-08
-2.6724e-11
5.44855e-15
3.58543e-08
-5.02087e-11
5.63258e-15
3.58527e-08
-5.47554e-11
5.49648e-15
3.5844e-08
-5.09479e-11
5.44654e-15
3.58237e-08
5.17029e-15
3.58141e-08
-5.01063e-20
-1.87163e-18
-3.23575e-20
-1.87371e-18
-1.15697e-20
-1.87386e-18
1.73788e-20
-1.87378e-18
6.71173e-20
-1.87485e-18
-1.87038e-18
-1.49877e-14
-7.14562e-09
-8.90931e-12
-1.90203e-14
-7.14674e-09
-8.92098e-12
-1.85825e-14
-7.1454e-09
-8.92377e-12
-1.48496e-14
-7.14222e-09
-8.92219e-12
-7.0927e-15
-7.13726e-09
-8.92361e-12
-7.13494e-09
-8.8918e-12
9.1801e-14
-5.49063e-15
-5.05167e-12
-1.85926e-14
-5.49642e-15
-5.0379e-12
-9.00077e-14
-5.49633e-15
-5.05065e-12
-1.42591e-13
-5.49575e-15
-5.04596e-12
-1.66001e-13
-5.49848e-15
-5.05939e-12
-5.4853e-15
-5.01996e-12
4.54928e-22
-5.49246e-15
-7.08787e-22
-5.49824e-15
-1.26445e-21
-5.49816e-15
-1.54458e-21
-5.49758e-15
-2.23465e-21
-5.50031e-15
-5.48713e-15
-4.78327e-16
-7.77038e-12
-3.17405e-11
-4.83655e-16
-7.77073e-12
-3.1755e-11
-6.30372e-16
-7.77244e-12
-3.17647e-11
-5.87871e-16
-7.77151e-12
-3.17408e-11
-4.27814e-16
-7.77421e-12
-3.17746e-11
-7.76401e-12
-3.16002e-11
-1.86334e-16
-1.3982e-13
-1.28064e-11
-3.38298e-16
-1.39891e-13
-1.2793e-11
-3.10727e-16
-1.39945e-13
-1.28076e-11
-2.4688e-16
-1.39908e-13
-1.2802e-11
-3.28273e-17
-1.40026e-13
-1.28182e-11
-1.39543e-13
-1.27686e-11
-2.71547e-19
-1.45374e-13
-4.2244e-19
-1.4545e-13
-5.58355e-19
-1.45504e-13
-5.92955e-19
-1.45467e-13
-2.62394e-19
-1.45588e-13
-1.45092e-13
-3.81383e-15
-1.36647e-09
6.36656e-10
-7.18405e-15
-1.36628e-09
6.36763e-10
-1.83293e-14
-1.36639e-09
6.36554e-10
-2.15838e-14
-1.36622e-09
6.36482e-10
-3.81775e-14
-1.36634e-09
6.36064e-10
-1.36549e-09
6.37326e-10
-1.80525e-14
-3.05469e-11
-1.33905e-09
-4.55004e-14
-3.05709e-11
-1.3388e-09
-4.17837e-14
-3.05711e-11
-1.33896e-09
-1.24542e-14
-3.05669e-11
-1.33882e-09
1.0022e-13
-3.05755e-11
-1.33904e-09
-3.05165e-11
-1.33801e-09
-2.75153e-16
-3.0692e-11
-2.84482e-16
-3.07164e-11
-3.51313e-16
-3.07165e-11
-2.65538e-16
-3.07124e-11
5.03631e-16
-3.07219e-11
-3.06611e-11
6.60489e-13
-6.10634e-08
6.23693e-08
2.38197e-13
-6.10496e-08
6.23573e-08
6.17246e-14
-6.10421e-08
6.23495e-08
-1.62231e-13
-6.1033e-08
6.23385e-08
-1.1119e-12
-6.0995e-08
6.23022e-08
-6.10948e-08
6.2391e-08
1.81211e-11
-3.00621e-09
-5.81568e-08
8.77158e-12
-3.00763e-09
-5.81136e-08
9.63905e-12
-3.00734e-09
-5.81164e-08
9.08363e-12
-3.00678e-09
-5.81083e-08
1.33598e-11
-3.00632e-09
-5.80748e-08
-3.0046e-09
-5.81664e-08
-8.61795e-14
-3.02926e-09
-9.86874e-14
-3.03077e-09
-9.39154e-14
-3.03051e-09
-1.41687e-14
-3.03002e-09
3.71072e-13
-3.02987e-09
-3.02733e-09
3.54593e-08
9.767e-06
0.000421982
3.62096e-09
9.77993e-06
0.000422175
-7.20477e-09
9.77439e-06
0.000422097
-1.53542e-08
9.77499e-06
0.000422073
-4.57505e-08
9.77748e-06
0.000422069
9.76407e-06
0.000421955
1.67359e-09
5.21042e-07
8.95085e-06
1.27261e-09
5.2167e-07
8.96669e-06
1.3317e-09
5.21538e-07
8.9604e-06
9.10187e-10
5.21473e-07
8.96166e-06
-1.19653e-10
5.21305e-07
8.96453e-06
5.2097e-07
8.95147e-06
1.38135e-11
4.44209e-07
3.14284e-11
4.44741e-07
4.49647e-11
4.4461e-07
4.16199e-11
4.44592e-07
3.98841e-11
4.44232e-07
4.44473e-07
5.12347e-07
0.00085903
0.0188846
1.39237e-07
0.000859611
0.0188843
1.0565e-07
0.000859375
0.0188836
2.26152e-08
0.000859382
0.0188836
-1.14472e-07
0.000859217
0.0188839
0.000859446
0.0188817
3.37729e-08
3.89849e-05
0.000779675
3.36049e-08
3.91363e-05
0.000780133
2.96991e-08
3.90997e-05
0.000779928
1.82822e-08
3.91128e-05
0.000779945
4.97592e-08
3.90051e-05
0.000779907
3.91934e-05
0.000779906
9.66375e-11
3.47055e-05
1.4015e-09
3.4849e-05
1.59156e-09
3.48134e-05
1.30995e-09
3.48281e-05
3.31479e-09
3.47289e-05
3.49019e-05
0.000123106
0.0862105
0.949159
8.84317e-05
0.0862763
0.949164
4.32543e-05
0.0862645
0.949189
8.73557e-05
0.0862713
0.949271
0.000105057
0.0862865
0.949785
0.0862767
0.94862
1.10815e-05
0.00213909
0.0836303
8.01805e-06
0.00214916
0.0837056
2.43382e-06
0.0021467
0.0836823
3.28737e-06
0.0021471
0.0836848
3.01759e-05
0.00214047
0.0837246
0.00215316
0.0836625
-6.06592e-08
0.00217386
8.92674e-08
0.00218386
3.72054e-08
0.00218157
9.86567e-08
0.00218187
4.82001e-07
0.00217481
0.00218854
-1.77725e-14
-6.38848e-09
6.43147e-09
-4.85667e-11
-1.61293e-14
-6.39331e-09
6.43634e-09
-4.86408e-11
-3.47412e-14
-6.3845e-09
6.42747e-09
-4.8524e-11
-7.82631e-15
-6.40044e-09
6.4435e-09
-4.87459e-11
-1.37839e-14
-6.43946e-09
6.48335e-09
-4.97994e-11
-6.34174e-09
6.38382e-09
-4.74137e-11
1.32242e-11
-2.36116e-06
2.62537e-06
-2.07342e-08
5.82291e-12
-2.36078e-06
2.62968e-06
-2.07502e-08
1.96012e-11
-2.35771e-06
2.62633e-06
-2.07293e-08
1.30997e-11
-2.36646e-06
2.63017e-06
-2.077e-08
-2.45233e-10
-2.38267e-06
2.6733e-06
-2.10304e-08
-2.32842e-06
2.58468e-06
-2.03827e-08
-9.71236e-10
-2.74583e-06
4.81666e-08
-4.93863e-10
-2.74899e-06
4.82411e-08
-5.26279e-09
-2.73842e-06
4.81357e-08
-9.1225e-11
-2.76039e-06
4.83961e-08
2.79533e-08
-2.82287e-06
4.92948e-08
-2.6622e-06
4.71007e-08
-5.00511e-12
-1.95908e-07
2.02191e-07
-3.66377e-12
-1.95559e-07
2.01841e-07
-1.26129e-11
-1.95265e-07
2.01549e-07
-3.93909e-12
-1.9635e-07
2.02633e-07
4.14691e-11
-1.95901e-07
2.02196e-07
-1.94061e-07
2.00325e-07
3.96288e-09
1.24731e-05
-1.04409e-05
1.66149e-09
1.24696e-05
-1.04318e-05
6.81252e-09
1.24383e-05
-1.04112e-05
3.00814e-09
1.25187e-05
-1.04731e-05
-5.43595e-08
1.26948e-05
-1.05831e-05
1.21595e-05
-1.02052e-05
8.98764e-08
-0.000415915
5.32838e-08
-0.000416638
1.71796e-07
-0.000415927
5.50971e-08
-0.000416921
-1.31875e-06
-0.000426069
-0.000406604
-5.95861e-10
1.13792e-05
4.75843e-06
-2.8208e-10
1.13183e-05
4.76279e-06
-1.88278e-09
1.13476e-05
4.75967e-06
-6.66669e-10
1.13558e-05
4.76282e-06
5.32937e-09
1.12539e-05
4.76351e-06
1.12465e-05
4.76836e-06
2.04867e-07
0.00364346
-0.0036393
-9.12339e-08
0.00364384
-0.00363925
1.98227e-07
0.00364122
-0.00363716
3.05193e-07
0.00364724
-0.00364304
-2.65155e-06
0.00367351
-0.0036665
0.00360688
-0.00360508
1.69315e-06
-0.0374148
7.77055e-07
-0.0374241
5.2574e-06
-0.0374038
-5.83355e-07
-0.0374495
-3.6352e-05
-0.0376749
-0.037135
-1.1052e-10
2.71624e-06
9.43567e-07
-2.40317e-11
2.71697e-06
9.46742e-07
-1.30095e-09
2.70221e-06
9.46467e-07
9.25108e-11
2.7093e-06
9.29488e-07
8.7857e-09
2.72248e-06
9.08765e-07
2.6826e-06
9.70971e-07
-3.80168e-06
0.0837312
-0.220875
-3.97651e-06
0.0837261
-0.220857
1.63541e-06
0.0836884
-0.220846
-2.97967e-06
0.0838005
-0.221032
-2.95331e-05
0.0842068
-0.221466
0.0831541
-0.220264
3.48227e-06
-0.123402
6.34028e-07
-0.123425
1.43412e-05
-0.12338
8.39036e-07
-0.123492
-0.00011572
-0.124012
-0.122745
-2.37627e-06
0.0733703
-0.201052
-2.46478e-06
0.0733806
-0.201056
1.45501e-05
0.0733434
-0.200972
-6.32298e-06
0.0734154
-0.20117
-5.57888e-05
0.0737233
-0.201973
0.0730098
-0.200092
-3.13763e-06
0.119592
-0.333635
5.7544e-07
0.119612
-0.333653
1.94241e-05
0.119596
-0.333647
-2.76805e-05
0.119654
-0.333765
-5.48893e-05
0.119815
-0.334072
0.119442
-0.333309
2.21898e-06
-0.0157873
1.36274e-06
-0.0157988
3.9122e-06
-0.0157917
-9.82997e-07
-0.015806
-2.31838e-05
-0.015826
-0.0157749
1.83305e-06
0.319369
6.96902e-06
0.319403
0.0001375
0.319384
3.4286e-05
0.319434
-0.000788243
0.319717
0.319115
1.06683e-05
0.0136139
1.88215e-05
0.0136149
3.85916e-05
0.0136102
2.94118e-06
0.0136241
-9.68462e-05
0.013649
0.0135881
3.82384e-07
3.93042e-07
4.78444e-07
4.50768e-07
-1.67904e-06
1.1536e-57
-8.12271e-55
6.69336e-54
-1.14387e-57
-8.13948e-55
6.706e-54
-1.91416e-57
-8.13935e-55
6.70518e-54
-2.18714e-57
-8.13965e-55
6.70536e-54
-2.24441e-57
-8.14191e-55
6.70767e-54
-8.12453e-55
6.69395e-54
9.52378e-60
-3.53989e-58
7.27971e-56
-1.46629e-59
-3.5476e-58
7.29449e-56
-2.38214e-59
-3.54749e-58
7.29427e-56
-3.00658e-59
-3.54763e-58
7.29453e-56
-3.43331e-59
-3.54868e-58
7.29657e-56
-3.5408e-58
7.28101e-56
-4.83305e-64
9.68509e-60
-2.92384e-63
9.70593e-60
-4.20252e-63
9.70552e-60
-5.55604e-63
9.70596e-60
-7.31424e-63
9.70895e-60
9.68758e-60
-9.5137e-54
-3.94305e-50
3.16475e-49
-4.34363e-53
-3.95098e-50
3.17083e-49
-4.85656e-53
-3.95095e-50
3.17054e-49
-4.77321e-53
-3.95108e-50
3.17072e-49
-5.19992e-53
-3.95209e-50
3.17191e-49