/*--------------------------------*- C++ -*----------------------------------*\
| =========                 |                                                 |
| \\      /  F ield         | OpenFOAM: The Open Source CFD Toolbox           |
|  \\    /   O peration     | Version:  v1612+                                |
|   \\  /    A nd           | Web:      www.OpenFOAM.com                      |
|    \\/     M anipulation  |                                                 |
\*---------------------------------------------------------------------------*/
FoamFile
{
    version     2.0;
    format      ascii;
    class       volScalarField;
    location    "2.4";
    object      p_rgh;
}
// * * * * * * * * * * * * * * * * * * * * * * * * * * * * * * * * * * * * * //

dimensions      [1 -1 -2 0 0 0 0];

internalField   nonuniform List<scalar> 
1116
(
23948.1
23948.1
23948.1
23948.1
23948.1
23948.1
22839.8
22839.8
22839.8
22839.8
22839.8
22839.8
20568.2
20568.3
20568.3
20568.3
20568.3
20568.3
18789
18789
18789
18789
18789
18789
17808.3
17808.3
17808.3
17808.3
17808.3
17808.3
17024.9
17024.9
17024.9
17024.8
17024.8
17024.8
16216
16216
16216
16216
16216
16216
15594.7
15594.7
15594.7
15594.6
15594.6
15594.6
15819.7
15819.7
15819.7
15819.7
15819.7
15819.7
18678
18677.9
18678
18678
18678
18678.1
23552.6
23552.4
23552.5
23552.5
23552.5
23552.6
29811.6
29811.6
29811.7
29811.7
29811.8
29811.7
22287
22286.9
22287
22287
22287
22287
16395
16394.8
16394.9
16394.9
16394.9
16394.9
14455.4
14455.3
14455.3
14455.3
14455.3
14455.4
13866.5
13866.4
13866.4
13866.4
13866.4
13866.5
13529.4
13529.4
13529.4
13529.3
13529.3
13529.3
12490.6
12490.6
12490.6
12490.5
12490.5
12490.5
10480.1
10480.1
10480
10480
10479.9
10479.9
7743.66
7743.65
7743.61
7743.52
7743.47
7743.45
3966.92
3966.94
3966.93
3966.87
3966.83
3966.84
4772.32
4772.23
4772.24
4772.2
4772.16
4772.22
13797.8
13797.1
13797.2
13797.1
13796.9
13797.2
31797.7
31797.6
31797.6
31797.6
31797.5
31797.6
7066.3
7066.18
7066.17
7066.28
7066.31
7066.25
948.585
948.508
948.516
948.551
948.546
948.555
106.87
106.845
106.842
106.845
106.846
106.859
-71.5498
-71.5507
-71.551
-71.5513
-71.5511
-71.5507
-49.3353
-49.3349
-49.3353
-49.3359
-49.3363
-49.3369
-19.1515
-19.1493
-19.1495
-19.1507
-19.1519
-19.1537
-10.5663
-10.5651
-10.565
-10.5661
-10.5672
-10.5702
-3.89456
-3.89471
-3.89489
-3.89601
-3.89765
-3.89905
67.65
67.6498
67.6492
67.6473
67.6436
67.6397
285.748
285.748
285.745
285.742
285.74
285.731
1118.33
1118.12
1118.17
1118.17
1118.14
1118.24
24085.8
24084.8
24084.9
24084.7
24084.1
24085.8
-17.4572
-17.4562
-17.4561
-17.4561
-17.4559
-17.4565
-22.9769
-22.9765
-22.9758
-22.9752
-22.9747
-22.9747
-31.9623
-31.9619
-31.9613
-31.9607
-31.9604
-31.9604
-31.6328
-31.6328
-31.6327
-31.6327
-31.6329
-31.6333
-14.8201
-14.8195
-14.8195
-14.8197
-14.8202
-14.8209
-3.8883
-3.88746
-3.88766
-3.88851
-3.88943
-3.89096
-12.5742
-12.5741
-12.5749
-12.5762
-12.5781
-12.5811
-42.075
-42.0758
-42.0771
-42.0777
-42.0794
-42.0785
-48.3777
-48.3774
-48.379
-48.3787
-48.3798
-48.376
-19.2547
-19.2545
-19.2545
-19.2544
-19.2547
-19.2557
-3.41013
-3.44311
-3.43992
-3.44031
-3.44643
-3.45999
23882.1
23880.2
23880.9
23880.9
23879.7
23882.6
-0.0530856
-0.0530555
-0.0530444
-0.0530426
-0.0530454
-0.0530497
-0.0547263
-0.0547159
-0.0547153
-0.0547176
-0.0547236
-0.0547361
-0.0579185
-0.0579246
-0.057924
-0.0579178
-0.0579111
-0.0579104
-0.062169
-0.062176
-0.0621597
-0.0621295
-0.0620964
-0.0620722
-0.0670357
-0.0670253
-0.0669759
-0.0669108
-0.0668461
-0.0667974
-0.0726195
-0.0725682
-0.072477
-0.0723789
-0.0722911
-0.072227
-0.079793
-0.0796927
-0.0795815
-0.079488
-0.0794212
-0.0793781
-0.0897193
-0.0896104
-0.0895669
-0.0895872
-0.0896561
-0.089729
-0.102602
-0.102581
-0.102734
-0.102993
-0.103301
-0.103637
-0.118859
-0.118985
-0.119404
-0.11987
-0.120372
-0.120785
-0.129005
-0.129272
-0.129679
-0.13012
-0.130537
-0.130866
-0.155003
-0.155024
-0.155043
-0.155064
-0.155071
-0.155065
-0.0516071
-0.0515864
-0.0515816
-0.0515859
-0.0515971
-0.0516146
-0.0539029
-0.0538948
-0.0538956
-0.0539006
-0.0539118
-0.053932
-0.0585544
-0.0585515
-0.0585442
-0.0585355
-0.0585299
-0.058532
-0.065364
-0.065353
-0.065326
-0.0652943
-0.0652657
-0.0652473
-0.0741671
-0.0741396
-0.0740931
-0.0740448
-0.0740033
-0.0739738
-0.0848467
-0.0848098
-0.0847646
-0.0847266
-0.0846986
-0.0846763
-0.0980957
-0.0980781
-0.0980881
-0.0981241
-0.0981731
-0.0982048
-0.114878
-0.114945
-0.115102
-0.115305
-0.115543
-0.115706
-0.133862
-0.134076
-0.134433
-0.134826
-0.135208
-0.135495
-0.15289
-0.153199
-0.153575
-0.15391
-0.154175
-0.154351
-0.153045
-0.153168
-0.153206
-0.153138
-0.152979
-0.152819
-0.162733
-0.16246
-0.162045
-0.161645
-0.161291
-0.161057
-0.0480525
-0.048041
-0.0480408
-0.0480497
-0.0480647
-0.0480837
-0.050938
-0.0509331
-0.0509369
-0.0509454
-0.0509595
-0.0509799
-0.0569556
-0.0569521
-0.0569473
-0.0569436
-0.0569439
-0.0569508
-0.0663983
-0.0663886
-0.0663715
-0.0663552
-0.0663445
-0.0663414
-0.0799249
-0.0799118
-0.0798942
-0.0798826
-0.0798785
-0.0798788
-0.0986377
-0.0986369
-0.0986481
-0.0986738
-0.0987031
-0.0987392
-0.123145
-0.12319
-0.123284
-0.12341
-0.123534
-0.123621
-0.151701
-0.151848
-0.152087
-0.152354
-0.152607
-0.152783
-0.178038
-0.178286
-0.178586
-0.178855
-0.179058
-0.179174
-0.195111
-0.195249
-0.195262
-0.195133
-0.194892
-0.194655
-0.18338
-0.183143
-0.182631
-0.181965
-0.181274
-0.180731
-0.203906
-0.203513
-0.203038
-0.202606
-0.202328
-0.202212
-0.0418267
-0.0418249
-0.0418283
-0.0418393
-0.041855
-0.0418724
-0.0450423
-0.0450412
-0.0450471
-0.0450576
-0.0450726
-0.0450908
-0.0518958
-0.051893
-0.0518931
-0.0518965
-0.0519041
-0.0519151
-0.0631207
-0.0631191
-0.0631192
-0.0631236
-0.0631333
-0.0631448
-0.0799662
-0.0799829
-0.0800053
-0.0800339
-0.0800631
-0.0800847
-0.103858
-0.103916
-0.103989
-0.104065
-0.104131
-0.104171
-0.135253
-0.13537
-0.135507
-0.135641
-0.13575
-0.135812
-0.174351
-0.174509
-0.17467
-0.174802
-0.174886
-0.174917
-0.214742
-0.21484
-0.214843
-0.214748
-0.214581
-0.214409
-0.251526
-0.251362
-0.250956
-0.250403
-0.249829
-0.249388
-0.22186
-0.221321
-0.220519
-0.219643
-0.218947
-0.218513
-0.160982
-0.160783
-0.160708
-0.160692
-0.160806
-0.160888
-13.8034
-13.8031
-13.8026
-13.8023
-13.8021
-13.8022
-11.8067
-11.8067
-11.8065
-11.8064
-11.8063
-11.8064
-8.59434
-8.59442
-8.5945
-8.59457
-8.59461
-8.59457
-15.9863
-15.9861
-15.9857
-15.9854
-15.9853
-15.9848
-11.8088
-11.8085
-11.8083
-11.8081
-11.8081
-11.8082
-9.48644
-9.48654
-9.48658
-9.48662
-9.48663
-9.48651
-22.7441
-22.7436
-22.7432
-22.7429
-22.7427
-22.7427
-14.9071
-14.9069
-14.9067
-14.9066
-14.9065
-14.9065
-8.30846
-8.30856
-8.30862
-8.30866
-8.30869
-8.30859
-24.2028
-24.2024
-24.2022
-24.202
-24.2019
-24.2022
-15.3889
-15.3889
-15.3888
-15.3888
-15.3888
-15.3888
-10.5555
-10.5555
-10.5556
-10.5556
-10.5556
-10.5555
-21.407
-21.4069
-21.4068
-21.4068
-21.4069
-21.4071
-12.7101
-12.7103
-12.7104
-12.7105
-12.7106
-12.7106
-9.69736
-9.69741
-9.69741
-9.6974
-9.69741
-9.69726
-18.4344
-18.4342
-18.4343
-18.4344
-18.4346
-18.4347
-12.0747
-12.0749
-12.0751
-12.0752
-12.0752
-12.0751
-9.80676
-9.80674
-9.80666
-9.80661
-9.8066
-9.80656
-16.654
-16.654
-16.6543
-16.6547
-16.6553
-16.6554
-12.4628
-12.4628
-12.4629
-12.4631
-12.4632
-12.4636
-8.1186
-8.11855
-8.11852
-8.1185
-8.1185
-8.11861
-29.5842
-29.5832
-29.5835
-29.5832
-29.5835
-29.581
-18.295
-18.2944
-18.2943
-18.2948
-18.2948
-18.2952
-6.48643
-6.48642
-6.48636
-6.48631
-6.4859
-6.48632
-44.2818
-44.2816
-44.2814
-44.2797
-44.2799
-44.2742
-27.2311
-27.2327
-27.2318
-27.2316
-27.2309
-27.23
-1.41745
-1.4181
-1.41802
-1.41827
-1.41709
-1.4185
-48.7301
-48.7367
-48.7364
-48.7335
-48.7317
-48.7272
-7.04019
-7.04318
-7.04428
-7.04478
-7.04497
-7.04392
4.63974
4.63939
4.63929
4.63856
4.63854
4.63835
-42.9665
-42.9952
-42.9977
-43.0015
-43.005
-43.0202
4.51508
4.51674
4.5184
4.5179
4.52712
4.49174
6.63621
6.63568
6.6358
6.63576
6.64015
6.63172
13642.6
13641
13642.5
13642.2
13638.5
13647.2
-99.4281
-99.4785
-99.4582
-99.4729
-99.461
-99.4859
-7.04386
-7.04725
-7.04823
-7.0522
-7.04978
-7.05847
0.901057
0.901354
0.901031
0.902133
0.902864
0.901499
-11.3268
-11.3283
-11.3299
-11.3267
-11.3548
-11.2905
2.02602
2.02787
2.02722
2.03208
2.04889
2.009
4.60944
4.61049
4.60893
4.60932
4.61893
4.5998
-15.3686
-15.3693
-15.3721
-15.3646
-15.3948
-15.3284
-0.355966
-0.356511
-0.358389
-0.3466
-0.371901
-0.3178
4.22489
4.22636
4.21986
4.22085
4.23724
4.20295
-16.8542
-16.8543
-16.8522
-16.8577
-16.87
-16.8231
174.261
174.307
174.146
174.498
175.883
172.431
28.2463
28.2434
28.2398
28.2387
28.2683
28.1783
1198.21
1198.15
1197.51
1199.18
1204.43
1190.14
946.61
946.7
946.155
947.42
952.072
940.294
1455.42
1455.58
1454.68
1456.44
1462.95
1447.15
3537.78
3537.99
3537.85
3539.15
3540.61
3535.74
376.6
376.65
376.595
376.7
375.662
378.165
9403.71
9402.73
9402.43
9404.56
9408.29
9398.61
3153.9
3154.75
3154.37
3154.76
3155.42
3154.56
-101.927
-101.948
-101.953
-101.949
-101.972
-101.957
-0.0325652
-0.0325703
-0.0325754
-0.0325858
-0.0325991
-0.032612
-0.0208752
-0.0208804
-0.0208846
-0.0208917
-0.0209
-0.0209073
-0.00778695
-0.00778836
-0.00778963
-0.0077914
-0.00779352
-0.00779519
-0.0354074
-0.0354127
-0.0354188
-0.0354285
-0.0354413
-0.0354543
-0.0227341
-0.0227381
-0.0227422
-0.0227485
-0.0227563
-0.0227634
-0.00837439
-0.00837488
-0.00837598
-0.00837748
-0.00837944
-0.00838111
-0.0415576
-0.0415585
-0.0415626
-0.0415696
-0.0415796
-0.0415889
-0.0267322
-0.0267337
-0.0267365
-0.0267411
-0.0267475
-0.0267536
-0.00943604
-0.00943593
-0.00943663
-0.00943788
-0.00943981
-0.00944181
-0.0520089
-0.0520151
-0.0520241
-0.0520356
-0.0520491
-0.0520618
-0.0336125
-0.0336163
-0.0336214
-0.033628
-0.0336355
-0.0336423
-0.0105485
-0.0105495
-0.010551
-0.010553
-0.0105559
-0.0105585
-0.068565
-0.0685923
-0.0686199
-0.0686469
-0.0686694
-0.068682
-0.0450555
-0.045068
-0.0450785
-0.0450882
-0.0450954
-0.0450974
-0.0101311
-0.0101343
-0.0101369
-0.0101393
-0.0101409
-0.0101405
-0.0942428
-0.0942971
-0.0943449
-0.0943831
-0.094405
-0.0944059
-0.0652965
-0.0653125
-0.0653226
-0.0653287
-0.0653278
-0.065318
-0.00428507
-0.00428706
-0.00428786
-0.00428794
-0.00428551
-0.00427955
-0.132535
-0.132596
-0.132637
-0.132658
-0.132654
-0.13263
-0.105072
-0.105081
-0.105083
-0.105079
-0.105069
-0.105054
0.0176067
0.0176072
0.0176088
0.0176098
0.0176138
0.017617
-0.185066
-0.185083
-0.185062
-0.185012
-0.184942
-0.184868
-0.193133
-0.19314
-0.193133
-0.193115
-0.193095
-0.193069
0.077165
0.0771626
0.0771681
0.0771651
0.0771774
0.0771738
-0.242901
-0.242837
-0.242715
-0.242561
-0.242411
-0.242295
-0.407017
-0.407013
-0.406995
-0.40692
-0.406888
-0.406803
0.22156
0.221548
0.221586
0.221565
0.221623
0.221592
-0.319208
-0.319095
-0.318937
-0.318768
-0.318634
-0.318552
-0.880841
-0.880807
-0.880805
-0.880621
-0.880647
-0.880347
0.508713
0.508714
0.508825
0.508749
0.508956
0.508717
-0.293127
-0.293083
-0.293066
-0.293052
-0.293081
-0.293098
-2.02547
-2.02538
-2.0256
-2.02498
-2.02557
-2.02395
0.965649
0.965691
0.965955
0.965894
0.966586
0.965412
-0.201362
-0.201332
-0.201517
-0.201431
-0.201611
-0.201688
-4.53927
-4.53929
-4.54026
-4.53835
-4.54332
-4.53136
0.958009
0.958191
0.958652
0.958877
0.961424
0.956514
)
;

boundaryField
{
    seabed_topleft_surface
    {
        type            fixedFluxPressure;
        gradient        uniform 0;
        value           nonuniform List<scalar> 
72
(
23948.1
23948.1
23948.1
23948.1
23948.1
23948.1
22839.8
22839.8
22839.8
22839.8
22839.8
22839.8
20568.2
20568.3
20568.3
20568.3
20568.3
20568.3
18789
18789
18789
18789
18789
18789
17808.3
17808.3
17808.3
17808.3
17808.3
17808.3
17024.9
17024.9
17024.9
17024.8
17024.8
17024.8
16216
16216
16216
16216
16216
16216
15594.7
15594.7
15594.7
15594.6
15594.6
15594.6
15819.7
15819.7
15819.7
15819.7
15819.7
15819.7
18678
18677.9
18678
18678
18678
18678.1
23552.6
23552.4
23552.5
23552.5
23552.5
23552.6
29811.6
29811.6
29811.7
29811.7
29811.8
29811.7
)
;
    }
    seabed_topright_surface
    {
        type            fixedFluxPressure;
        gradient        uniform 0;
        value           nonuniform List<scalar> 
72
(
-0.0530856
-0.0530555
-0.0530444
-0.0530426
-0.0530454
-0.0530497
-0.0547263
-0.0547159
-0.0547153
-0.0547176
-0.0547236
-0.0547361
-0.0579185
-0.0579246
-0.057924
-0.0579178
-0.0579111
-0.0579104
-0.062169
-0.062176
-0.0621597
-0.0621295
-0.0620964
-0.0620722
-0.0670357
-0.0670253
-0.0669759
-0.0669108
-0.0668461
-0.0667974
-0.0726195
-0.0725682
-0.072477
-0.0723789
-0.0722911
-0.072227
-0.079793
-0.0796927
-0.0795815
-0.079488
-0.0794212
-0.0793781
-0.0897193
-0.0896104
-0.0895669
-0.0895872
-0.0896561
-0.089729
-0.102602
-0.102581
-0.102734
-0.102993
-0.103301
-0.103637
-0.118859
-0.118985
-0.119404
-0.11987
-0.120372
-0.120785
-0.129005
-0.129272
-0.129679
-0.13012
-0.130537
-0.130866
-0.155003
-0.155024
-0.155043
-0.155064
-0.155071
-0.155065
)
;
    }
    breakwater_top_surface
    {
        type            fixedFluxPressure;
        gradient        uniform 0;
        value           nonuniform List<scalar> 
36
(
0.901057
0.901354
0.901031
0.902133
0.902864
0.901499
4.60944
4.61049
4.60893
4.60932
4.61893
4.5998
4.22489
4.22636
4.21986
4.22085
4.23724
4.20295
28.2463
28.2434
28.2398
28.2387
28.2683
28.1783
1455.42
1455.58
1454.68
1456.44
1462.95
1447.15
9403.71
9402.73
9402.43
9404.56
9408.29
9398.61
)
;
    }
    breakwater_left_surface
    {
        type            fixedFluxPressure;
        gradient        uniform 0;
        value           nonuniform List<scalar> 
24
(
29811.6
29811.6
29811.7
29811.7
29811.8
29811.7
31797.7
31797.6
31797.6
31797.6
31797.5
31797.6
24085.8
24084.8
24084.9
24084.7
24084.1
24085.8
23882.1
23880.2
23880.9
23880.9
23879.7
23882.6
)
;
    }
    breakwater_right_surface
    {
        type            fixedFluxPressure;
        gradient        uniform 0;
        value           nonuniform List<scalar> 
24
(
-0.155003
-0.155024
-0.155043
-0.155064
-0.155071
-0.155065
-0.162733
-0.16246
-0.162045
-0.161645
-0.161291
-0.161057
-0.203906
-0.203513
-0.203038
-0.202606
-0.202328
-0.202212
-0.160982
-0.160783
-0.160708
-0.160692
-0.160806
-0.160888
)
;
    }
    water_front_surface
    {
        type            fixedFluxPressure;
        gradient        uniform 0;
        value           nonuniform List<scalar> 
186
(
23948.1
22839.8
20568.2
18789
17808.3
17024.9
16216
15594.7
15819.7
18678
23552.6
29811.6
22287
16395
14455.4
13866.5
13529.4
12490.6
10480.1
7743.66
3966.92
4772.32
13797.8
31797.7
7066.3
948.585
106.87
-71.5498
-49.3353
-19.1515
-10.5663
-3.89456
67.65
285.748
1118.33
24085.8
-17.4572
-22.9769
-31.9623
-31.6328
-14.8201
-3.8883
-12.5742
-42.075
-48.3777
-19.2547
-3.41013
23882.1
-0.0530856
-0.0547263
-0.0579185
-0.062169
-0.0670357
-0.0726195
-0.079793
-0.0897193
-0.102602
-0.118859
-0.129005
-0.155003
-0.0516071
-0.0539029
-0.0585544
-0.065364
-0.0741671
-0.0848467
-0.0980957
-0.114878
-0.133862
-0.15289
-0.153045
-0.162733
-0.0480525
-0.050938
-0.0569556
-0.0663983
-0.0799249
-0.0986377
-0.123145
-0.151701
-0.178038
-0.195111
-0.18338
-0.203906
-0.0418267
-0.0450423
-0.0518958
-0.0631207
-0.0799662
-0.103858
-0.135253
-0.174351
-0.214742
-0.251526
-0.22186
-0.160982
-13.8034
-11.8067
-8.59434
-15.9863
-11.8088
-9.48644
-22.7441
-14.9071
-8.30846
-24.2028
-15.3889
-10.5555
-21.407
-12.7101
-9.69736
-18.4344
-12.0747
-9.80676
-16.654
-12.4628
-8.1186
-29.5842
-18.295
-6.48643
-44.2818
-27.2311
-1.41745
-48.7301
-7.04019
4.63974
-42.9665
4.51508
6.63621
13642.6
-99.4281
-7.04386
0.901057
-11.3268
2.02602
4.60944
-15.3686
-0.355966
4.22489
-16.8542
174.261
28.2463
1198.21
946.61
1455.42
3537.78
376.6
9403.71
3153.9
-101.927
-0.0325652
-0.0208752
-0.00778695
-0.0354074
-0.0227341
-0.00837439
-0.0415576
-0.0267322
-0.00943604
-0.0520089
-0.0336125
-0.0105485
-0.068565
-0.0450555
-0.0101311
-0.0942428
-0.0652965
-0.00428507
-0.132535
-0.105072
0.0176067
-0.185066
-0.193133
0.077165
-0.242901
-0.407017
0.22156
-0.319208
-0.880841
0.508713
-0.293127
-2.02547
0.965649
-0.201362
-4.53927
0.958009
)
;
    }
    water_back_surface
    {
        type            fixedFluxPressure;
        gradient        uniform 0;
        value           nonuniform List<scalar> 
186
(
23948.1
22839.8
20568.3
18789
17808.3
17024.8
16216
15594.6
15819.7
18678.1
23552.6
29811.7
22287
16394.9
14455.4
13866.5
13529.3
12490.5
10479.9
7743.45
3966.84
4772.22
13797.2
31797.6
7066.25
948.555
106.859
-71.5507
-49.3369
-19.1537
-10.5702
-3.89905
67.6397
285.731
1118.24
24085.8
-17.4565
-22.9747
-31.9604
-31.6333
-14.8209
-3.89096
-12.5811
-42.0785
-48.376
-19.2557
-3.45999
23882.6
-0.0530497
-0.0547361
-0.0579104
-0.0620722
-0.0667974
-0.072227
-0.0793781
-0.089729
-0.103637
-0.120785
-0.130866
-0.155065
-0.0516146
-0.053932
-0.058532
-0.0652473
-0.0739738
-0.0846763
-0.0982048
-0.115706
-0.135495
-0.154351
-0.152819
-0.161057
-0.0480837
-0.0509799
-0.0569508
-0.0663414
-0.0798788
-0.0987392
-0.123621
-0.152783
-0.179174
-0.194655
-0.180731
-0.202212
-0.0418724
-0.0450908
-0.0519151
-0.0631448
-0.0800847
-0.104171
-0.135812
-0.174917
-0.214409
-0.249388
-0.218513
-0.160888
-13.8022
-11.8064
-8.59457
-15.9848
-11.8082
-9.48651
-22.7427
-14.9065
-8.30859
-24.2022
-15.3888
-10.5555
-21.4071
-12.7106
-9.69726
-18.4347
-12.0751
-9.80656
-16.6554
-12.4636
-8.11861
-29.581
-18.2952
-6.48632
-44.2742
-27.23
-1.4185
-48.7272
-7.04392
4.63835
-43.0202
4.49174
6.63172
13647.2
-99.4859
-7.05847
0.901499
-11.2905
2.009
4.5998
-15.3284
-0.3178
4.20295
-16.8231
172.431
28.1783
1190.14
940.294
1447.15
3535.74
378.165
9398.61
3154.56
-101.957
-0.032612
-0.0209073
-0.00779519
-0.0354543
-0.0227634
-0.00838111
-0.0415889
-0.0267536
-0.00944181
-0.0520618
-0.0336423
-0.0105585
-0.068682
-0.0450974
-0.0101405
-0.0944059
-0.065318
-0.00427955
-0.13263
-0.105054
0.017617
-0.184868
-0.193069
0.0771738
-0.242295
-0.406803
0.221592
-0.318552
-0.880347
0.508717
-0.293098
-2.02395
0.965412
-0.201688
-4.53136
0.956514
)
;
    }
    water_left_surface
    {
        type            fixedFluxPressure;
        gradient        uniform 0;
        value           nonuniform List<scalar> 
42
(
23948.1
23948.1
23948.1
23948.1
23948.1
23948.1
22287
22286.9
22287
22287
22287
22287
7066.3
7066.18
7066.17
7066.28
7066.31
7066.25
-17.4572
-17.4562
-17.4561
-17.4561
-17.4559
-17.4565
-13.8034
-13.8031
-13.8026
-13.8023
-13.8021
-13.8022
-11.8067
-11.8067
-11.8065
-11.8064
-11.8063
-11.8064
-8.59434
-8.59442
-8.5945
-8.59457
-8.59461
-8.59457
)
;
    }
    water_right_surface
    {
        type            fixedFluxPressure;
        gradient        uniform 0;
        value           nonuniform List<scalar> 
42
(
-0.0530856
-0.0530555
-0.0530444
-0.0530426
-0.0530454
-0.0530497
-0.0516071
-0.0515864
-0.0515816
-0.0515859
-0.0515971
-0.0516146
-0.0480525
-0.048041
-0.0480408
-0.0480497
-0.0480647
-0.0480837
-0.0418267
-0.0418249
-0.0418283
-0.0418393
-0.041855
-0.0418724
-0.0325652
-0.0325703
-0.0325754
-0.0325858
-0.0325991
-0.032612
-0.0208752
-0.0208804
-0.0208846
-0.0208917
-0.0209
-0.0209073
-0.00778695
-0.00778836
-0.00778963
-0.0077914
-0.00779352
-0.00779519
)
;
    }
    water_top_surface
    {
        type            totalPressure;
        rho             rho;
        psi             none;
        gamma           1;
        p0              uniform 0;
        value           nonuniform List<scalar> 
180
(
-6.61792
-6.61824
-6.6185
-6.61865
-6.6188
-6.61846
-7.41243
-7.41298
-7.41307
-7.41319
-7.41326
-7.4127
-4.31512
-4.31565
-4.3158
-4.31592
-4.31598
-4.31564
-6.68757
-6.6882
-6.68821
-6.68826
-6.68834
-6.68778
-5.26055
-5.26089
-5.26078
-5.26071
-5.26072
-5.26024
-6.24744
-6.24765
-6.24747
-6.24734
-6.24734
-6.247
-6.08692
-6.08739
-6.08728
-6.08711
-6.08691
-6.08641
-5.14799
-5.14854
-5.14835
-5.14806
-5.14755
-5.14674
-2.32923
-2.3292
-2.32897
-2.32883
-2.32838
-2.3294
0
0
0
0
0
0
0
0
0
0
0
0
-3.03915
-3.01254
-3.01571
-3.01757
-3.05295
-2.98069
0
0
0
0
0
0
0
0
0
0
0
0
0
0
0
0
0
0
0
0
0
0
0
0
0
0
0
0
0
0
-6.01043
-5.99375
-6.00407
-5.98621
-5.9684
-6.02418
-0.000224541
-0.000224536
-0.000224534
-0.000224536
-0.00022454
-0.000224543
-0.000253665
-0.000253653
-0.00025365
-0.000253655
-0.000253666
-0.000253681
-0.00031959
-0.000319563
-0.000319563
-0.00031958
-0.000319614
-0.00031966
-0.000440786
-0.000440757
-0.000440785
-0.000440846
-0.000440942
-0.000441073
-0.000650094
-0.000650164
-0.0006503
-0.000650486
-0.000650727
-0.000651023
-0.00100561
-0.0010061
-0.00100652
-0.00100695
-0.00100738
-0.0010078
-0.00157612
-0.0015775
-0.00157827
-0.0015788
-0.00157904
-0.00157887
-0.00247538
-0.00247732
-0.0024776
-0.00247709
-0.00247558
-0.00247277
-0.00357905
-0.00357879
-0.00357638
-0.00357317
-0.00356834
-0.00356249
-0.00485036
-0.0048452
-0.00484045
-0.00483767
-0.00483282
-0.00483219
-0.00570276
-0.00569858
-0.00569749
-0.0057053
-0.00572867
-0.00568905
-0.0508789
-0.0509232
-0.0509756
-0.0510025
-0.0513107
-0.0507789
)
;
    }
}


// ************************************************************************* //
