/*--------------------------------*- C++ -*----------------------------------*\
| =========                 |                                                 |
| \\      /  F ield         | OpenFOAM: The Open Source CFD Toolbox           |
|  \\    /   O peration     | Version:  v1612+                                |
|   \\  /    A nd           | Web:      www.OpenFOAM.com                      |
|    \\/     M anipulation  |                                                 |
\*---------------------------------------------------------------------------*/
FoamFile
{
    version     2.0;
    format      ascii;
    class       surfaceScalarField;
    location    "2.4";
    object      phi;
}
// * * * * * * * * * * * * * * * * * * * * * * * * * * * * * * * * * * * * * //

dimensions      [0 3 -1 0 0 0 0];

internalField   nonuniform List<scalar> 
2916
(
-8.2188e-06
0.643386
-0.643378
-3.78133e-06
0.643389
-0.643393
-3.00137e-06
0.643388
-0.643389
-5.48841e-06
0.64339
-0.643387
-1.616e-06
0.643391
-0.643394
0.643386
-0.643388
-8.71417e-06
1.30121
-0.657815
-4.67129e-06
1.30122
-0.657832
-5.1501e-06
1.30122
-0.657829
-4.74092e-06
1.30122
-0.657828
3.26666e-06
1.30122
-0.657835
1.30121
-0.657824
-6.2983e-06
1.73248
-0.431268
-3.68294e-06
1.7325
-0.431282
-5.31999e-06
1.7325
-0.431277
-5.42687e-06
1.7325
-0.431278
1.37787e-06
1.7325
-0.431285
1.73249
-0.431272
-4.92595e-06
2.03085
-0.298362
-4.37325e-06
2.03087
-0.29837
-7.14388e-06
2.03086
-0.298366
-7.07713e-06
2.03086
-0.298368
-9.48338e-09
2.03086
-0.298375
2.03085
-0.298362
-6.73241e-06
2.26129
-0.230436
-6.94453e-06
2.26131
-0.230443
-9.63297e-06
2.26131
-0.23044
-8.3176e-06
2.26131
-0.230443
-4.44302e-07
2.26131
-0.230451
2.26129
-0.230439
-1.03497e-05
2.45766
-0.19636
-9.46008e-06
2.45768
-0.19637
-1.11264e-05
2.45768
-0.196367
-9.40631e-06
2.45767
-0.196371
-1.38313e-06
2.45768
-0.196379
2.45765
-0.196367
-1.08595e-05
2.62927
-0.171595
-7.81556e-06
2.62928
-0.171608
-8.07579e-06
2.62928
-0.171605
-6.93739e-06
2.62928
-0.171607
-7.29822e-08
2.62929
-0.171615
2.62926
-0.171605
-4.63256e-06
2.77742
-0.148143
6.22307e-07
2.77744
-0.148161
1.07291e-06
2.77743
-0.148155
1.69381e-06
2.77744
-0.148156
5.90294e-06
2.77744
-0.148162
2.77741
-0.148149
-9.71372e-07
2.65965
0.11777
1.0593e-05
2.65968
0.117745
1.07152e-05
2.65968
0.117752
9.3549e-06
2.65968
0.117757
1.2088e-05
2.65969
0.117752
2.65965
0.117779
-3.95722e-07
1.98113
0.678517
1.03278e-05
1.98118
0.678495
1.24374e-05
1.98118
0.678503
1.16764e-05
1.98117
0.678507
9.124e-06
1.98119
0.678503
1.98113
0.678521
8.01593e-06
0.819934
1.16119
1.95157e-06
0.819982
1.1612
6.64098e-06
0.819976
1.1612
6.93886e-06
0.819975
1.1612
-2.1428e-06
0.82
1.1612
0.819933
1.1612
-3.5733e-05
0.81997
-2.10409e-05
0.819967
-1.35357e-05
0.819969
-8.69619e-06
0.81997
7.96672e-06
0.819984
0.819941
-4.9277e-06
0.672845
-1.31622
-6.40888e-06
0.672842
-1.31623
-5.92559e-06
0.672845
-1.31623
-1.40571e-05
0.672849
-1.31623
-1.79095e-05
0.672847
-1.31624
0.672837
-1.31624
1.15638e-05
1.43571
-1.42069
-9.15273e-06
1.43572
-1.42069
-1.23372e-05
1.43572
-1.4207
-1.23373e-05
1.43572
-1.4207
-1.58343e-05
1.43573
-1.42071
1.43571
-1.42071
1.70893e-05
1.86073
-0.856308
-4.57375e-06
1.86076
-0.856297
-1.0859e-05
1.86075
-0.856303
-1.09914e-05
1.86075
-0.856309
-2.29271e-05
1.86076
-0.85631
1.86073
-0.856323
2.50224e-05
2.18552
-0.62318
3.74972e-06
2.18556
-0.623152
-4.46801e-06
2.18555
-0.623156
-9.24569e-06
2.18555
-0.623162
-2.39719e-05
2.18557
-0.623163
2.18553
-0.62318
2.40529e-05
2.42674
-0.471676
8.72641e-06
2.42679
-0.47166
3.0483e-06
2.42678
-0.471664
-2.70332e-06
2.42678
-0.47167
-1.8019e-05
2.4268
-0.47167
2.42676
-0.471687
2.47881e-05
2.74048
-0.510124
1.55142e-05
2.74055
-0.510122
1.37554e-05
2.74054
-0.510124
7.95576e-06
2.74054
-0.510127
-6.34191e-06
2.74056
-0.510126
2.74052
-0.51014
3.01557e-05
3.17957
-0.610718
2.47547e-05
3.17968
-0.61073
2.64611e-05
3.17966
-0.610727
2.16105e-05
3.17967
-0.610724
6.93529e-06
3.17969
-0.610723
3.17964
-0.610716
3.37494e-05
3.70012
-0.66873
2.42638e-05
3.70027
-0.668738
2.33364e-05
3.70023
-0.668728
1.89451e-05
3.70024
-0.668723
2.30785e-06
3.70026
-0.668721
3.7002
-0.668703
4.02107e-05
3.90153
-0.0836753
2.2712e-05
3.90169
-0.0836558
1.34129e-05
3.90164
-0.0836443
7.98468e-06
3.90164
-0.0836392
-9.65523e-06
3.90166
-0.0836329
3.90159
-0.0836214
3.69385e-05
3.29921
1.2808
1.58938e-05
3.29937
1.28083
4.71273e-06
3.29932
1.28083
-1.75667e-06
3.29932
1.28083
-1.08811e-05
3.29935
1.28083
3.29926
1.28084
4.95764e-05
1.49115
2.9692
1.7162e-05
1.49126
2.96934
1.49671e-05
1.49123
2.9693
1.37386e-05
1.49123
2.9693
-7.8609e-06
1.49122
2.96934
1.49119
2.96927
-3.08546e-05
2.31115
-1.75665e-06
2.3112
6.14324e-06
2.31119
1.60556e-05
2.31119
2.99662e-05
2.31119
2.31116
7.83787e-06
0.430947
-1.74717
-8.85507e-06
0.430939
-1.74716
-4.34544e-06
0.430947
-1.74719
-5.32234e-08
0.43094
-1.74717
-1.51851e-05
0.430935
-1.74716
0.430961
-1.74722
-6.18907e-07
1.45087
-2.44061
-3.45942e-05
1.45084
-2.44055
-1.5389e-05
1.45082
-2.44059
-9.11756e-06
1.45084
-2.4406
-4.35366e-05
1.45086
-2.4406
1.45082
-2.44061
1.46974e-05
2.22442
-1.62988
1.99492e-05
2.22439
-1.62986
4.60859e-05
2.22438
-1.6299
6.14293e-05
2.22443
-1.62991
4.34576e-05
2.22446
-1.62989
2.22448
-1.62994
0.000142253
3.44103
-1.83993
0.000161675
3.44113
-1.83991
0.000162959
3.44116
-1.83993
0.000129384
3.44123
-1.83993
7.67709e-05
3.44125
-1.8399
3.44132
-1.83994
0.000144156
5.22399
-2.25478
0.000245478
5.22417
-2.25481
0.000246317
5.22427
-2.25478
0.000207103
5.22437
-2.25477
0.000128424
5.2244
-2.25474
5.22449
-2.25473
6.07122e-05
7.53269
-2.81889
0.000235187
7.53282
-2.81894
0.000291055
7.53296
-2.81886
0.000288893
7.53306
-2.81881
0.000282173
7.53306
-2.81878
7.53327
-2.81864
7.14623e-05
9.56697
-2.64507
0.000224518
9.56708
-2.64515
0.000310302
9.56719
-2.64504
0.000305529
9.56725
-2.64492
0.000370621
9.56715
-2.64489
9.56748
-2.64455
0.000107814
10.183
-1.28487
0.000166638
10.1832
-1.28489
0.000181047
10.1832
-1.28478
0.000145315
10.1832
-1.28467
4.58406e-05
10.1832
-1.28469
10.1833
-1.28446
-0.000140264
7.56045
2.53901
-0.000244861
7.56058
2.53905
-0.000272169
7.56058
2.53902
-0.000228392
7.56054
2.53901
-0.000218479
7.56062
2.53895
7.56049
2.53895
-2.67778e-05
3.32296
5.51832
-6.31107e-05
3.32302
5.51841
-5.87468e-05
3.32301
5.51839
-5.33394e-05
3.32299
5.51837
8.10689e-05
3.32302
5.51829
3.32299
5.51842
-7.00219e-05
0.796593
5.49563
-1.17551e-05
0.796605
5.4957
-5.31207e-06
0.79661
5.49569
-2.23967e-05
0.796604
5.4957
9.31727e-05
0.796562
5.49568
0.796576
5.49577
2.32077e-07
3.10775
1.28172e-05
3.1078
3.58406e-05
3.10777
6.8538e-05
3.10776
2.60949e-05
3.1078
3.10776
-4.2715e-05
0.3855
-2.13263
-2.92188e-05
0.385486
-2.13266
4.99243e-06
0.385494
-2.13272
5.21628e-05
0.385462
-2.13268
7.91105e-05
0.385449
-2.13263
0.385561
-2.1327
-9.49252e-05
0.812049
-2.86706
-3.65803e-05
0.811963
-2.86709
2.7924e-05
0.81193
-2.86709
1.69883e-05
0.811959
-2.86709
-1.45051e-05
0.811988
-2.8671
0.811963
-2.86703
-5.30106e-05
0.792849
-1.61063
2.22647e-05
0.79268
-1.61065
5.60756e-05
0.792659
-1.61066
7.8338e-05
0.792681
-1.61066
0.000125301
0.792717
-1.61066
0.792787
-1.61064
8.69519e-05
0.462559
-1.50973
0.000185363
0.462486
-1.50981
0.000187115
0.46253
-1.5098
0.000156607
0.462573
-1.50979
0.000153421
0.46261
-1.50979
0.46271
-1.50971
7.2099e-05
-0.377796
-1.41449
0.000244481
-0.377858
-1.41463
0.000273568
-0.377689
-1.41459
0.000236111
-0.377605
-1.41456
0.000226345
-0.37758
-1.41454
-0.377391
-1.41441
-0.000262883
-1.125
-2.07142
-0.000249438
-1.12523
-2.07159
-0.000206834
-1.12506
-2.07154
-0.000111573
-1.12501
-2.0715
9.26904e-05
-1.12507
-2.07149
-1.12467
-2.07126
-0.000311188
-0.995114
-2.77465
-0.000428031
-0.995396
-2.77486
-0.000484744
-0.995263
-2.77478
-0.000438473
-0.995272
-2.7747
-0.000195579
-0.995466
-2.77473
-0.995037
-2.77438
-0.000132549
0.943712
-3.22356
-0.000334216
0.943661
-3.22374
-0.000653293
0.943858
-3.22358
-0.000811876
0.9437
-3.22348
-0.00121726
0.943644
-3.22339
0.942786
-3.2235
-6.06026e-05
2.7523
0.730478
-0.000273794
2.75259
0.730334
-0.000541557
2.75265
0.730488
-0.000677027
2.75244
0.730404
-0.00140306
2.75265
0.730665
2.75097
0.729367
-7.53544e-05
2.16971
6.10098
-0.000258646
2.17007
6.10112
-0.000247706
2.17005
6.10098
-0.000165436
2.16995
6.10078
-0.000223916
2.17009
6.10091
2.16933
6.09984
0.000268954
1.09719
6.56788
-2.2778e-05
1.09757
6.56849
-1.18833e-05
1.09748
6.56825
5.61882e-05
1.09742
6.56816
0.000146106
1.09749
6.56819
1.09727
6.56798
-2.26673e-05
4.20496
4.21504e-06
4.20534
6.18638e-05
4.2052
4.74841e-05
4.20519
-6.64482e-05
4.2054
4.20496
-5.70177e-07
0.00224051
-0.00223994
-6.33503e-07
0.00224039
-0.00223993
-7.13745e-07
0.00224033
-0.00223989
-6.26392e-07
0.0022402
-0.00223991
-3.98957e-07
0.00224009
-0.00223989
0.00223993
-0.00223986
-5.31472e-07
0.00456478
-0.00232349
-8.03087e-07
0.00456451
-0.00232307
-1.03799e-06
0.00456424
-0.00232295
-1.00083e-06
0.00456388
-0.00232295
-6.05881e-07
0.00456351
-0.002323
0.00456303
-0.00232308
-3.86351e-07
0.00704671
-0.00248122
-1.16357e-06
0.0070459
-0.00247963
-1.86792e-06
0.00704502
-0.00247917
-2.03527e-06
0.00704406
-0.00247909
-1.40567e-06
0.00704302
-0.00247922
0.00704183
-0.00247952
-6.36972e-07
0.00976337
-0.00271555
-2.67951e-06
0.00976095
-0.00271202
-4.36358e-06
0.00975864
-0.00271105
-4.85582e-06
0.00975637
-0.00271097
-3.56719e-06
0.00975401
-0.00271146
0.00975134
-0.00271257
-2.58931e-06
0.0128166
-0.00305018
-7.13957e-06
0.0128106
-0.00304457
-1.02897e-05
0.0128056
-0.00304332
-1.09216e-05
0.0128011
-0.00304368
-8.02517e-06
0.0127967
-0.0030452
0.0127915
-0.00304814
-9.23827e-06
0.0163152
-0.00348901
-1.72873e-05
0.0163031
-0.00348487
-2.12972e-05
0.0162943
-0.00348506
-2.09015e-05
0.0162873
-0.00348698
-1.48337e-05
0.0162808
-0.0034905
0.0162726
-0.00349626
-2.23455e-05
0.0202178
-0.00388045
-3.30426e-05
0.0201974
-0.00388481
-3.55318e-05
0.0201854
-0.00388961
-3.18186e-05
0.0201775
-0.00389494
-2.13148e-05
0.0201708
-0.00390144
0.0201608
-0.00391026
-3.75777e-05
0.0241152
-0.00386034
-4.57042e-05
0.0240866
-0.00388247
-4.15894e-05
0.0240748
-0.00389473
-3.18829e-05
0.0240704
-0.00390375
-1.8613e-05
0.0240678
-0.00391138
0.0240605
-0.00391912
-4.06839e-05
0.0270656
-0.00291043
-3.64379e-05
0.0270331
-0.0029516
-2.10427e-05
0.0270262
-0.00296743
-5.81904e-06
0.0270288
-0.0029742
2.49056e-06
0.0270339
-0.00297506
0.027034
-0.00297148
-1.4982e-05
0.0263989
0.000681197
6.08128e-06
0.0263672
0.000645052
3.00712e-05
0.0263635
0.000639033
4.44261e-05
0.0263697
0.00064517
3.91935e-05
0.0263796
0.000660005
0.0263897
0.000684046
2.73979e-05
0.0205682
0.00580347
5.33822e-05
0.0205433
0.00579889
7.09253e-05
0.0205368
0.00580977
7.5947e-05
0.0205367
0.00582876
5.91756e-05
0.0205416
0.00585589
0.0205538
0.00589631
3.05527e-05
0.0205383
3.0148e-05
0.0205455
2.25762e-05
0.0205457
1.4925e-05
0.0205454
8.37271e-06
0.0205495
0.020563
-5.36125e-07
0.00226804
-0.00450715
-6.96799e-07
0.00226775
-0.00450711
-7.29211e-07
0.00226757
-0.00450702
-5.81969e-07
0.00226739
-0.00450698
-2.80371e-07
0.00226726
-0.00450694
0.00226711
-0.00450689
-9.11419e-07
0.00464497
-0.00469904
-1.20037e-06
0.00464426
-0.00469857
-1.23388e-06
0.00464372
-0.00469833
-9.9987e-07
0.00464322
-0.00469825
-4.83791e-07
0.0046428
-0.00469825
0.00464234
-0.00469834
-1.81688e-06
0.00723022
-0.00506397
-2.44904e-06
0.00722853
-0.00506223
-2.56727e-06
0.0072272
-0.00506156
-2.18352e-06
0.00722603
-0.00506131
-1.21012e-06
0.00722498
-0.0050614
0.00722389
-0.0050618
-3.71683e-06
0.0101024
-0.00558323
-5.23255e-06
0.0100985
-0.0055795
-5.54324e-06
0.0100956
-0.00557823
-4.84123e-06
0.0100931
-0.00557791
-2.99185e-06
0.0100909
-0.00557842
0.0100885
-0.00557989
-7.69521e-06
0.0132345
-0.00617395
-1.06996e-05
0.0132259
-0.00616869
-1.10476e-05
0.0132202
-0.00616733
-9.57189e-06
0.0132157
-0.00616755
-6.11539e-06
0.0132117
-0.00616933
0.0132072
-0.00617315
-1.43961e-05
0.0164587
-0.00669895
-1.88512e-05
0.0164413
-0.00669657
-1.83687e-05
0.0164314
-0.00669749
-1.51666e-05
0.0164248
-0.00669999
-9.50324e-06
0.0164193
-0.0067045
0.0164126
-0.00671191
-2.24845e-05
0.0196021
-0.00700222
-2.55792e-05
0.0195704
-0.00701246
-2.1376e-05
0.0195561
-0.00701997
-1.49147e-05
0.0195491
-0.00702703
-8.09682e-06
0.0195448
-0.00703502
0.0195386
-0.00704531
-2.41227e-05
0.0223677
-0.00660302
-1.85026e-05
0.0223171
-0.00663651
-6.38911e-06
0.0223008
-0.00665294
3.355e-06
0.0222979
-0.00666351
6.30443e-06
0.0223003
-0.00667107
0.0223018
-0.00667659
-7.29659e-06
0.0242765
-0.00481301
1.57522e-05
0.0242079
-0.00486623
3.96895e-05
0.0241936
-0.0048847
5.12503e-05
0.0242006
-0.00488899
4.1581e-05
0.0242182
-0.00488359
0.0242403
-0.00486832
2.71968e-05
0.0239366
0.000993769
6.89225e-05
0.0238697
0.000942069
9.93646e-05
0.0238632
0.000939362
0.000106316
0.0238814
0.000957779
7.88167e-05
0.0239142
0.000992355
0.0239598
0.00104454
6.80663e-05
0.019742
0.00993094
9.76609e-05
0.0196983
0.00994309
0.00010542
0.0196991
0.00996797
9.53744e-05
0.0197195
0.0100022
6.34773e-05
0.0197555
0.0100482
0.0198081
0.0101128
2.98578e-05
0.0402516
2.78001e-06
0.0402727
-3.1143e-05
0.0402806
-5.1113e-05
0.0402868
-4.55256e-05
0.0403011
0.0403262
-2.59713e-07
0.00219536
-0.0067021
-4.70332e-07
0.00219513
-0.00670208
-5.02491e-07
0.00219501
-0.00670199
-3.80135e-07
0.0021949
-0.00670195
-1.60926e-07
0.00219484
-0.00670192
0.00219482
-0.00670189
-6.1589e-07
0.00452753
-0.00703042
-9.10307e-07
0.00452704
-0.00703004
-9.03065e-07
0.00452668
-0.00702983
-6.72758e-07
0.00452638
-0.00702974
-2.8699e-07
0.0045262
-0.00702976
0.00452611
-0.00702986
-1.49015e-06
0.00713376
-0.00766832
-1.96894e-06
0.00713264
-0.00766691
-1.87913e-06
0.00713181
-0.00766634
-1.38708e-06
0.00713115
-0.00766613
-6.16225e-07
0.00713072
-0.00766625
0.00713049
-0.00766666
-3.13895e-06
0.0101753
-0.00862113
-4.00001e-06
0.0101726
-0.00861824
-3.69885e-06
0.0101709
-0.00861721
-2.70833e-06
0.0101696
-0.008617
-1.31563e-06
0.0101688
-0.0086176
0.0101683
-0.0086191
-6.03061e-06
0.0139305
-0.00992281
-7.13022e-06
0.0139242
-0.00991937
-6.08779e-06
0.0139208
-0.00991855
-4.13432e-06
0.0139189
-0.00991905
-1.87487e-06
0.013918
-0.00992108
0.0139179
-0.00992503
-9.91241e-06
0.018864
-0.011623
-9.87832e-06
0.0188506
-0.0116242
-6.63238e-06
0.0188453
-0.0116262
-2.941e-06
0.0188436
-0.0116293
-3.94431e-07
0.0188443
-0.0116342
0.0188465
-0.0116417
-1.15729e-05
0.0252611
-0.0133887
-6.43426e-06
0.0252362
-0.0134049
1.65958e-06
0.0252304
-0.0134145
7.59021e-06
0.0252321
-0.0134227
8.09637e-06
0.0252386
-0.0134311
0.0252485
-0.0134401
-2.92855e-06
0.0328891
-0.0142292
1.45115e-05
0.0328513
-0.0142705
3.18147e-05
0.0328489
-0.0142899
3.96186e-05
0.0328611
-0.0143013
3.15292e-05
0.0328824
-0.0143077
0.0329114
-0.0143081
2.62224e-05
0.040986
-0.0129368
6.20352e-05
0.0409443
-0.0129952
8.66287e-05
0.0409527
-0.0130132
9.0454e-05
0.0409826
-0.0130144
6.54273e-05
0.0410266
-0.0130025
0.0410842
-0.012975
7.03627e-05
0.0457368
-0.00382714
0.000109434
0.0457058
-0.00385727
0.000123752
0.0457287
-0.00384997
0.000112425
0.0457778
-0.00382529
7.15965e-05
0.0458462
-0.00378556
0.0459316
-0.00373041
6.06269e-05
0.0433036
0.0123044
6.81026e-05
0.0432987
0.0123447
5.58035e-05
0.0433282
0.0123828
3.43985e-05
0.0433769
0.0124267
9.72581e-06
0.0434413
0.0124794
0.0435137
0.0125413
-4.4145e-05
0.0836008
-0.000104117
0.0836325
-0.000150465
0.0836562
-0.000157295
0.0836723
-0.000119517
0.083706
0.0837213
-6.85447e-08
0.00200408
-0.00870614
-2.90885e-07
0.00200385
-0.00870621
-3.06433e-07
0.00200375
-0.00870614
-2.17973e-07
0.00200369
-0.00870612
-8.73842e-08
0.00200368
-0.00870612
0.0020037
-0.00870604
-4.23371e-07
0.00417516
-0.00920129
-6.35624e-07
0.00417466
-0.00920112
-5.47341e-07
0.00417441
-0.00920097
-3.45518e-07
0.00417429
-0.00920091
-1.35283e-07
0.0041743
-0.00920093
0.00417438
-0.00920093
-1.22035e-06
0.00670487
-0.0101968
-1.3078e-06
0.00670378
-0.0101961
-9.16756e-07
0.00670331
-0.0101958
-4.03592e-07
0.00670316
-0.0101956
-9.0411e-09
0.00670326
-0.0101957
0.00670345
-0.0101959
-2.14773e-06
0.009826
-0.01174
-1.90797e-06
0.00982367
-0.0117386
-9.12084e-07
0.00982293
-0.011738
9.72267e-08
0.00982289
-0.011738
6.00638e-07
0.00982331
-0.0117384
0.00982389
-0.0117393
-2.26098e-06
0.0137357
-0.0138304
-1.02861e-06
0.0137314
-0.0138291
9.8317e-07
0.0137307
-0.013829
2.50107e-06
0.0137314
-0.0138297
2.56653e-06
0.0137328
-0.0138314
0.0137345
-0.0138337
6.79723e-07
0.0183777
-0.0162663
4.67646e-06
0.0183704
-0.0162685
8.51789e-06
0.0183705
-0.0162711
1.0264e-05
0.0183735
-0.0162744
8.17538e-06
0.0183781
-0.0162785
0.0183833
-0.0162832
1.11158e-05
0.0239377
-0.0189609
2.12301e-05
0.0239271
-0.0189732
2.74705e-05
0.0239301
-0.0189817
2.78648e-05
0.0239386
-0.0189894
1.98261e-05
0.0239503
-0.0189965
0.0239646
-0.0190022
3.21563e-05
0.0306369
-0.0209616
5.09727e-05
0.0306262
-0.0209892
5.84651e-05
0.0306366
-0.0210044
5.44404e-05
0.0306558
-0.0210151
3.63667e-05
0.0306815
-0.0210213
0.0307143
-0.0210212
5.51555e-05
0.0387989
-0.0211543
7.7369e-05
0.038799
-0.0211898
8.05975e-05
0.0388237
-0.0212032
6.87568e-05
0.0388601
-0.0212065
4.19271e-05
0.0389063
-0.0211999
0.038963
-0.0211814
4.78332e-05
0.0465987
-0.0116742
5.67528e-05
0.046625
-0.0116909
4.85449e-05
0.046665
-0.0116817
3.17203e-05
0.0467137
-0.0116604
1.03893e-05
0.04677
-0.0116267
0.0468289
-0.0115854
-3.1291e-05
0.0436526
0.0152828
-6.65589e-05
0.0436897
0.015316
-9.61465e-05
0.0437279
0.0153503
-0.00010362
0.0437688
0.0153804
-8.55904e-05
0.043809
0.0154236
0.0438397
0.0154456
-0.00012536
0.12738
-0.000191553
0.12739
-0.000228451
0.127422
-0.000194324
0.127407
-0.000148466
0.12747
0.127412
-5.61174e-05
-2.02415
-0.108431
-1.25937e-05
-2.02423
-0.108482
-3.69116e-06
-2.02425
-0.10848
3.39366e-05
-2.02422
-0.108495
0.000106297
-2.02421
-0.108491
-2.0242
-0.108395
8.41179e-06
-1.98088
-0.0432777
2.21843e-05
-1.98096
-0.0432882
1.3561e-05
-1.98095
-0.0432939
1.42445e-05
-1.98092
-0.0433011
3.49502e-05
-1.98093
-0.0433032
-1.98086
-0.0432991
8.869e-06
-0.00943109
-6.11637e-06
-0.00943291
-1.7312e-05
-0.00943288
-2.27241e-05
-0.00942897
-2.38889e-05
-0.00942687
-0.00943611
-5.10172e-05
-2.33812
-0.637328
-4.04277e-06
-2.33818
-0.637446
2.75165e-05
-2.33814
-0.637458
3.31571e-05
-2.33813
-0.637458
3.59392e-05
-2.33815
-0.637444
-2.33804
-0.63734
-2.35218e-05
-2.15288
-0.228498
-3.12795e-05
-2.15295
-0.228507
-2.68987e-05
-2.15293
-0.228515
-1.21666e-05
-2.15292
-0.228527
-7.44004e-06
-2.15293
-0.22853
-2.15284
-0.228516
1.94487e-05
-0.0766934
1.028e-05
-0.0766892
6.00308e-06
-0.0766913
1.37388e-06
-0.0766891
-1.29781e-05
-0.0766872
-0.0767026
-1.03329e-05
-1.40348
-0.844459
-1.30333e-05
-1.40354
-0.844556
-3.11126e-05
-1.40352
-0.844577
-3.16288e-05
-1.40352
-0.844595
3.76186e-06
-1.40354
-0.844601
-1.40344
-0.844537
4.54078e-08
-1.4863
-0.145684
-1.19996e-05
-1.48635
-0.145683
-1.44896e-05
-1.48634
-0.145699
-1.58877e-05
-1.48633
-0.145711
-2.58757e-05
-1.48634
-0.145716
-1.48626
-0.145723
1.63803e-05
0.0309272
1.21155e-05
0.0309356
1.0811e-05
0.0309339
5.53029e-06
0.0309351
-1.03032e-05
0.0309364
0.0309227
-2.23498e-05
-1.89153
-0.462637
-4.01349e-05
-1.89167
-0.46268
-5.50573e-05
-1.89165
-0.462716
-4.49849e-05
-1.89164
-0.462749
-1.13252e-06
-1.89167
-0.462766
-1.89149
-0.462754
1.55841e-05
-1.98664
-0.0505889
-1.99826e-05
-1.98675
-0.0505747
-3.9569e-05
-1.98674
-0.050588
-5.07088e-05
-1.98675
-0.0505962
-6.31835e-05
-1.98677
-0.0506043
-1.98665
-0.0506266
2.57894e-05
0.0313793
2.27541e-05
0.0313824
1.62258e-05
0.0313822
3.77099e-06
0.0313823
-2.03508e-05
0.0313822
0.0313798
-7.73898e-05
-1.73071
-0.14635
-0.000100904
-1.73087
-0.146418
-8.69986e-05
-1.73085
-0.14647
-5.4427e-05
-1.73083
-0.146509
2.32803e-06
-1.73084
-0.14652
-1.73065
-0.146509
1.31976e-05
-1.82285
0.041542
-3.37472e-05
-1.82295
0.0415527
-6.39361e-05
-1.82296
0.0415522
-7.01745e-05
-1.82296
0.0415503
-6.68101e-05
-1.82299
0.0415443
-1.82288
0.0415433
1.89105e-05
-0.0210553
1.14044e-05
-0.0210567
4.62962e-06
-0.0210589
-5.01865e-06
-0.0210605
-2.37866e-05
-0.0210621
-0.0210621
-0.000117409
-2.07856
-0.139094
-0.000146449
-2.07871
-0.139267
-0.000143295
-2.0787
-0.139309
-0.000115051
-2.07869
-0.13934
-5.72902e-05
-2.07871
-0.139357
-2.07853
-0.139293
2.67794e-05
-2.0351
-0.00194367
-4.12707e-06
-2.03519
-0.00193261
-2.37539e-05
-2.03518
-0.0019423
-3.89194e-05
-2.03519
-0.00193982
-4.69282e-05
-2.03521
-0.00195271
-2.03511
-0.00192489
4.78256e-06
-0.130585
-7.0062e-06
-0.130589
-1.25858e-05
-0.13059
-1.55337e-05
-0.130592
-2.24192e-05
-0.130597
-0.130589
-0.000148674
-2.30773
-0.605861
-0.000148158
-2.30786
-0.60626
-0.000193153
-2.30785
-0.606196
-0.00017869
-2.30783
-0.606225
-0.00013318
-2.30784
-0.60629
-2.30765
-0.606154
-4.32687e-05
-1.9623
-0.347325
-7.91458e-05
-1.96237
-0.347387
-7.06599e-05
-1.96237
-0.347431
-5.42479e-05
-1.96236
-0.347428
-1.5305e-06
-1.96236
-0.347493
-1.96227
-0.347316
-9.99729e-06
-0.204895
-1.56687e-05
-0.204902
-2.09206e-05
-0.204904
-2.22587e-05
-0.204907
-8.95167e-06
-0.204929
-0.20489
-3.75096e-05
-2.6422
-1.18719
-7.02346e-05
-2.64233
-1.18764
-0.000186937
-2.64226
-1.1874
-0.00022049
-2.64221
-1.18746
-0.000404676
-2.64199
-1.18751
-2.64231
-1.18775
-3.17772e-05
-1.93726
-1.05222
-7.83482e-05
-1.93731
-1.05236
-7.29211e-05
-1.93731
-1.05238
-1.7543e-05
-1.9373
-1.05239
0.000193743
-1.93719
-1.0525
-1.93727
-1.05217
-4.56236e-05
-0.427978
-4.84262e-05
-0.428037
-6.03632e-05
-0.42805
-4.60334e-05
-0.42806
8.45334e-05
-0.428107
-0.427955
0.000568385
-1.19078
0.733503
0.000204085
-1.19087
0.73392
3.53811e-05
-1.19062
0.733873
-0.000168239
-1.19061
0.733755
-0.00101163
-1.1898
0.733801
-1.19232
0.732921
0.000569763
-1.30871
-0.934862
0.000270259
-1.30863
-0.934292
0.000280664
-1.30856
-0.934449
0.000260034
-1.30852
-0.934464
0.000372951
-1.308
-0.934418
-1.3093
-0.934807
-7.58526e-05
-0.638824
-9.75183e-05
-0.638918
-9.53144e-05
-0.638935
-1.23582e-05
-0.638977
0.000396357
-0.638902
-0.638968
0.000869183
4.47631
2.3573
6.97963e-05
4.47719
2.35864
-0.000221613
4.47693
2.35822
-0.000420032
4.47659
2.35814
-0.00116427
4.47722
2.35824
4.47405
2.35754
0.00111652
2.57797
0.962361
0.000798062
2.57925
0.963966
0.00079326
2.57914
0.963342
0.000501306
2.57885
0.963564
-0.000180265
2.57942
0.96406
2.57655
0.962511
0.000261386
0.460456
0.000497316
0.46069
0.000685019
0.460556
0.000613117
0.460627
0.000563411
0.460866
0.46004
0.00142724
6.44966
2.4741
0.000337213
6.45165
2.47657
0.000229361
6.45101
2.47557
8.19157e-06
6.4506
2.47591
-0.000246993
6.44906
2.47762
6.45184
2.47343
0.00175684
4.70035
2.70991
0.0017112
4.70347
2.7122
0.00145944
4.70332
2.71129
0.000858856
4.70292
2.71186
0.00254699
4.69934
2.7121
4.70603
2.71087
0.000135273
2.05302
0.000691281
2.05322
0.000751526
2.05321
0.000614232
2.05331
0.00157064
2.0528
2.05351
0.000396681
2.64611
4.03256
0.000277249
2.64899
4.03305
0.000126668
2.64799
4.03292
0.000263894
2.64799
4.03298
0.000357399
2.64822
4.03471
2.64784
4.03091
0.00162588
1.30013
4.05426
0.00107423
1.30632
4.05542
0.000282122
1.30503
4.05503
0.000439161
1.30478
4.05491
0.00422305
1.29966
4.05687
1.30978
4.05315
-8.30948e-05
4.48605
0.000424108
4.48607
0.000203029
4.48622
0.000454349
4.48603
0.00218727
4.48659
4.48568
-3.9557e-05
-0.132889
0.626055
-0.493126
-3.56154e-05
-0.132879
0.625979
-0.493105
-8.10035e-05
-0.132864
0.626074
-0.493165
-2.24434e-05
-0.132904
0.625907
-0.493062
-3.92228e-05
-0.132726
0.625911
-0.493169
-0.13311
0.626186
-0.493117
0.000190973
-0.305295
0.694906
-0.522691
8.1924e-05
-0.305088
0.695137
-0.52282
0.000300235
-0.30544
0.695295
-0.522938
0.000177355
-0.304858
0.694754
-0.522679
-0.00365014
-0.302061
0.697655
-0.524492
-0.308414
0.692579
-0.520924
-0.000148577
-0.987542
0.574404
-7.9089e-05
-0.98806
0.574502
-0.000841615
-0.986962
0.574463
-2.18166e-05
-0.989288
0.574745
0.00429161
-0.996925
0.576135
-0.978831
0.572941
-4.16486e-05
-0.313643
0.939739
-1.65984e-05
-0.313712
0.939664
-0.00010952
-0.313591
0.939756
-3.49511e-05
-0.313813
0.939644
0.000467268
-0.314324
0.939731
-0.313137
0.939791
0.000486119
0.637106
-0.256331
0.000198116
0.637611
-0.255901
0.000844378
0.636857
-0.255801
0.000347561
0.638029
-0.256592
-0.00692567
0.645352
-0.254748
0.628677
-0.256161
0.000343179
-2.74935
0.000202173
-2.75019
0.00072055
-2.74875
0.000174132
-2.75164
-0.00547735
-2.76447
-2.73429
-0.000176297
0.185568
0.754347
-0.000107562
0.185092
0.754502
-0.000636573
0.185349
0.754937
-0.000117327
0.185303
0.753822
0.00195294
0.184252
0.753407
0.184989
0.756755
9.34104e-05
2.46935
-2.54021
-8.5605e-05
2.46939
-2.54002
0.000109552
2.4693
-2.53995
0.000100572
2.46935
-2.54063
-0.00194591
2.47278
-2.54123
2.46528
-2.5384
0.000415919
-5.29839
0.000179422
-5.29913
0.00135497
-5.29846
-0.000148511
-5.29953
-0.00918694
-5.31065
-5.28638
-9.93223e-06
0.728454
0.0259008
2.78808e-05
0.728381
0.0260764
-0.000724589
0.728813
0.0268745
0.000161107
0.728051
0.024885
0.00535947
0.726028
0.0221811
0.731738
0.0303761
-0.00015621
3.14871
-4.96031
-0.000166181
3.14878
-4.96041
8.62903e-05
3.14882
-4.96022
-0.000106562
3.14863
-4.96102
-0.00122731
3.15001
-4.96409
3.1482
-4.95609
0.000189872
-6.60743
3.94589e-05
-6.60787
0.000804586
-6.60791
7.13296e-05
-6.60777
-0.00629105
-6.61337
-6.60151
-6.11638e-05
1.98442
-1.95845
-5.46294e-05
1.98452
-1.95845
0.000448996
1.98443
-1.95806
-0.000173127
1.98446
-1.95896
-0.00163952
1.98616
-1.96251
1.98302
-1.95428
-3.49467e-05
2.3624
-5.33826
2.52089e-05
2.36272
-5.33866
0.00031516
2.36254
-5.33862
-0.000465614
2.36271
-5.33848
-0.000753486
2.36326
-5.3409
2.36256
-5.33639
0.000217098
-6.44713
0.000144334
-6.44731
0.000328758
-6.44762
-4.79278e-05
-6.44689
-0.00156767
-6.44851
-6.44648
1.67394e-05
2.07409
3.68946e-05
2.07458
0.000534865
2.07437
0.000135803
2.07442
-0.00299972
2.07534
2.07363
0.000197363
0.789884
0.000320427
0.791204
0.000645974
0.790455
6.14681e-05
0.79143
-0.00155346
0.792928
0.78884
0.000381607
0.000364234
0.000423829
0.000394729
-0.000909915
1.37648e-07
-0.0101531
0.00144652
-1.16569e-07
-0.0101533
0.00144646
-1.81241e-07
-0.0101532
0.00144642
-1.78657e-07
-0.0101532
0.00144641
-1.57805e-07
-0.0101532
0.00144641
-0.0101531
0.00144641
1.22948e-07
-0.0110666
0.000912961
-7.32715e-08
-0.0110668
0.000912941
-1.42459e-07
-0.0110668
0.000912926
-1.9201e-07
-0.0110668
0.00091292
-2.28779e-07
-0.0110668
0.000912917
-0.0110666
0.000912904
-1.71141e-09
0.000303428
-6.15278e-08
0.000303422
-9.19426e-08
0.000303417
-1.26336e-07
0.000303416
-1.66688e-07
0.000303418
0.000303418
-1.06898e-07
-0.0107779
0.00302272
-2.76694e-07
-0.0107781
0.00302267
-2.47628e-07
-0.010778
0.00302267
-1.73209e-07
-0.010778
0.00302271
-1.48876e-07
-0.010778
0.0030228
-0.0107779
0.00302285
1.18665e-08
-0.0117742
0.0019085
-1.39002e-07
-0.0117743
0.00190852
-1.7021e-07
-0.0117743
0.00190853
-1.99908e-07
-0.0117743
0.00190856
-2.54794e-07
-0.0117743
0.00190861
-0.0117741
0.00190864
-3.77519e-08
0.000610301
-7.4182e-08
0.000610313
-9.40419e-08
0.000610321
-1.18117e-07
0.000610337
-1.52324e-07
0.00061036
0.000610373
-3.35064e-07
-0.0120685
0.00489436
-3.23217e-07
-0.0120685
0.00489445
-6.22389e-08
-0.0120684
0.00489459
1.83476e-07
-0.0120684
0.00489482
2.48614e-07
-0.0120685
0.00489508
-0.0120683
0.00489525
1.11776e-08
-0.0132604
0.00309999
-4.53333e-08
-0.0132606
0.00310007
-1.42378e-08
-0.0132606
0.00310015
-5.8788e-09
-0.0132606
0.00310026
-6.81396e-08
-0.0132606
0.00310037
-0.0132605
0.0031004
-2.58712e-08
0.00089572
-2.86613e-08
0.000895743
-2.13198e-08
0.000895768
-2.88461e-08
0.000895799
-6.18581e-08
0.00089583
0.000895831
-1.82412e-07
-0.0141548
0.00730911
2.60818e-07
-0.0141547
0.00730953
8.96432e-07
-0.0141547
0.00731008
1.28495e-06
-0.0141548
0.00731071
1.09295e-06
-0.014155
0.00731132
-0.0141551
0.00731169
1.85811e-07
-0.0157285
0.00467308
2.9692e-07
-0.0157287
0.00467325
4.43896e-07
-0.0157288
0.00467344
4.61494e-07
-0.0157288
0.00467366
2.59261e-07
-0.0157289
0.00467386
-0.0157288
0.00467392
5.77293e-08
0.00103502
8.27289e-08
0.00103504
1.03712e-07
0.00103509
7.09531e-08
0.00103515
-2.31575e-08
0.0010352
0.00103523
1.26956e-06
-0.0172423
0.0107193
2.56702e-06
-0.0172424
0.0107205
3.63869e-06
-0.0172427
0.0107217
3.92983e-06
-0.0172432
0.010723
2.89293e-06
-0.0172439
0.010724
-0.0172444
0.0107245
7.12417e-07
-0.0195581
0.00698754
1.11682e-06
-0.0195584
0.00698785
1.39477e-06
-0.0195586
0.00698821
1.3044e-06
-0.0195589
0.00698859
7.41702e-07
-0.0195592
0.0069889
-0.0195592
0.006989
1.53471e-07
0.000647976
2.59946e-07
0.000648001
3.23615e-07
0.000648106
2.66729e-07
0.000648241
8.29178e-08
0.000648344
0.000648472
5.3432e-06
-0.0216255
0.0160723
8.13751e-06
-0.0216266
0.0160744
9.36423e-06
-0.0216279
0.0160761
8.79898e-06
-0.0216294
0.0160775
5.85229e-06
-0.021631
0.0160783
-0.021632
0.0160784
1.794e-06
-0.0254369
0.0107963
2.76967e-06
-0.0254375
0.0107968
3.14083e-06
-0.0254381
0.0107972
2.7338e-06
-0.0254388
0.0107976
1.48779e-06
-0.0254395
0.0107979
-0.0254396
0.0107978
3.57255e-07
-0.00115604
6.71027e-07
-0.00115604
8.31298e-07
-0.00115594
7.13758e-07
-0.00115573
4.05436e-07
-0.00115569
-0.00115538
1.29805e-05
-0.0276987
0.0247962
1.68656e-05
-0.0277021
0.0247984
1.66632e-05
-0.0277052
0.024799
1.34854e-05
-0.0277082
0.0247987
7.58495e-06
-0.0277109
0.0247976
-0.0277124
0.0247959
3.51443e-06
-0.0347016
0.0177949
5.10328e-06
-0.034703
0.0177955
5.25021e-06
-0.0347043
0.0177957
4.17735e-06
-0.0347056
0.0177955
2.05445e-06
-0.0347067
0.0177952
-0.0347069
0.0177945
8.90278e-07
-0.00668648
1.44019e-06
-0.00668664
1.79888e-06
-0.00668695
1.30926e-06
-0.00668634
1.02476e-06
-0.00668692
-0.00668568
1.88311e-05
-0.0358134
0.0396286
2.06796e-05
-0.0358215
0.0396287
1.63196e-05
-0.0358267
0.0396255
9.47622e-06
-0.0358308
0.0396212
2.75065e-06
-0.0358335
0.0396166
-0.0358339
0.0396118
5.80362e-06
-0.0501932
0.0321686
6.90667e-06
-0.0501957
0.0321688
5.54045e-06
-0.0501977
0.0321679
3.62071e-06
-0.0501991
0.0321655
7.59432e-07
-0.0502002
0.0321648
-0.0501996
0.032161
1.25692e-06
-0.0210771
1.5547e-06
-0.0210774
2.65394e-06
-0.0210797
1.34405e-06
-0.0210768
2.42155e-06
-0.0210804
-0.021075
1.3923e-05
-0.0471329
0.0655933
8.01511e-06
-0.0471446
0.0655899
-2.42162e-06
-0.0471492