/*--------------------------------*- C++ -*----------------------------------*\
| =========                 |                                                 |
| \\      /  F ield         | OpenFOAM: The Open Source CFD Toolbox           |
|  \\    /   O peration     | Version:  v1612+                                |
|   \\  /    A nd           | Web:      www.OpenFOAM.com                      |
|    \\/     M anipulation  |                                                 |
\*---------------------------------------------------------------------------*/
FoamFile
{
    version     2.0;
    format      ascii;
    class       volVectorField;
    location    "2.4";
    object      U;
}
// * * * * * * * * * * * * * * * * * * * * * * * * * * * * * * * * * * * * * //

dimensions      [0 1 -1 0 0 0 0];

internalField   nonuniform List<vector> 
1116
(
(0.659671 -8.6843e-06 -0.541339)
(0.659672 -5.68929e-06 -0.541357)
(0.65967 -2.74319e-06 -0.541353)
(0.659675 -3.66382e-06 -0.541352)
(0.659677 -5.62401e-06 -0.541356)
(0.65966 1.56824e-06 -0.541349)
(1.94831 -9.51507e-06 -0.547485)
(1.94831 -6.01363e-06 -0.547508)
(1.94831 -4.23431e-06 -0.547502)
(1.94831 -6.02678e-06 -0.547503)
(1.94832 -1.67809e-06 -0.54751)
(1.94831 6.4179e-06 -0.547492)
(3.04647 -7.69926e-06 -0.375899)
(3.04648 -3.5419e-06 -0.375919)
(3.04648 -4.5638e-06 -0.375912)
(3.04648 -6.25399e-06 -0.375913)
(3.04648 -3.34249e-06 -0.37592)
(3.04647 5.43575e-06 -0.375901)
(3.80401 -7.36386e-06 -0.260751)
(3.80404 -2.36121e-06 -0.260762)
(3.80404 -6.98603e-06 -0.260756)
(3.80404 -7.28778e-06 -0.260758)
(3.80404 -5.63093e-06 -0.260765)
(3.80401 5.3984e-06 -0.260748)
(4.32386 -8.52409e-06 -0.168698)
(4.32389 -3.94359e-06 -0.168705)
(4.32388 -1.06704e-05 -0.168701)
(4.32388 -8.47473e-06 -0.168704)
(4.32388 -7.012e-06 -0.168712)
(4.32385 5.6027e-06 -0.168695)
(4.72654 -1.11744e-05 -0.0801075)
(4.72657 -7.4107e-06 -0.0801141)
(4.72656 -1.28359e-05 -0.08011)
(4.72656 -9.30905e-06 -0.0801144)
(4.72656 -8.14871e-06 -0.080124)
(4.72652 4.51508e-06 -0.080107)
(5.07394 -1.18569e-05 0.00478792)
(5.07396 -7.42738e-06 0.00477979)
(5.07396 -9.70903e-06 0.00478369)
(5.07396 -6.98163e-06 0.00477885)
(5.07396 -5.53901e-06 0.0047676)
(5.07391 5.10833e-06 0.00478097)
(5.37301 -7.38604e-06 0.0639736)
(5.37303 -2.12996e-07 0.0639576)
(5.37303 6.82633e-07 0.0639641)
(5.37303 9.51909e-07 0.0639599)
(5.37304 2.81618e-06 0.0639489)
(5.37299 8.97457e-06 0.0639634)
(5.64882 -6.5546e-06 0.267611)
(5.64887 5.39338e-06 0.267601)
(5.64886 1.27893e-05 0.267601)
(5.64886 7.72156e-06 0.267597)
(5.64888 1.10087e-05 0.267587)
(5.64881 1.32465e-05 0.267599)
(5.18436 -7.34745e-06 0.620804)
(5.18443 5.95369e-06 0.620789)
(5.18444 1.49739e-05 0.620784)
(5.18443 9.38467e-06 0.620779)
(5.18444 1.06747e-05 0.620766)
(5.18435 1.07656e-05 0.620767)
(3.14847 4.554e-06 0.990823)
(3.14856 6.18681e-06 0.990822)
(3.14856 1.96293e-07 0.990805)
(3.14855 1.1052e-05 0.990801)
(3.14859 5.94626e-07 0.990789)
(3.14846 -3.27178e-06 0.990778)
(0.841002 -3.2994e-05 0.561022)
(0.841114 -3.31413e-05 0.561006)
(0.841083 -1.04028e-05 0.56101)
(0.841087 -1.56622e-05 0.561006)
(0.841148 8.28617e-07 0.561001)
(0.840995 1.17657e-05 0.560999)
(0.279959 -6.33054e-06 -2.06308)
(0.27993 -2.62872e-06 -2.06312)
(0.279943 -9.28833e-06 -2.0631)
(0.279954 -1.85635e-06 -2.0631)
(0.279946 -2.52415e-05 -2.06312)
(0.27993 -1.08301e-05 -2.0631)
(2.14091 1.73149e-05 -2.2501)
(2.14092 -7.69822e-07 -2.25015)
(2.14092 -1.30409e-05 -2.25014)
(2.14093 -9.89026e-06 -2.25014)
(2.14093 -1.38992e-05 -2.25016)
(2.14091 -1.78104e-05 -2.25013)
(3.34592 2.30431e-05 -1.52712)
(3.34596 4.07397e-06 -1.52716)
(3.34596 -1.02282e-05 -1.52715)
(3.34596 -1.05436e-05 -1.52715)
(3.34597 -1.43613e-05 -1.52717)
(3.34593 -2.40124e-05 -1.52713)
(4.0187 2.85907e-05 -1.051)
(4.01876 1.29596e-05 -1.05102)
(4.01874 -3.78171e-06 -1.05101)
(4.01874 -6.20026e-06 -1.05102)
(4.01877 -1.41633e-05 -1.05104)
(4.01871 -2.66512e-05 -1.051)
(4.54514 2.71201e-05 -0.83695)
(4.54522 1.56444e-05 -0.836974)
(4.5452 3.56847e-06 -0.836965)
(4.5452 1.38031e-06 -0.836977)
(4.54523 -7.66479e-06 -0.837001)
(4.54516 -2.39017e-05 -0.836966)
(5.07132 2.71508e-05 -0.774236)
(5.07144 1.88856e-05 -0.77427)
(5.07141 1.34507e-05 -0.774263)
(5.07142 1.0784e-05 -0.774275)
(5.07146 4.71558e-06 -0.774299)
(5.07137 -1.65768e-05 -0.774268)
(5.70017 3.17568e-05 -0.770429)
(5.70034 2.45334e-05 -0.770475)
(5.70031 2.58125e-05 -0.770467)
(5.70032 2.20861e-05 -0.770475)
(5.70035 2.09137e-05 -0.770495)
(5.70029 -8.90033e-06 -0.770468)
(6.77387 4.02527e-05 -0.777575)
(6.77413 2.42282e-05 -0.777635)
(6.77407 2.37161e-05 -0.777615)
(6.77408 1.83647e-05 -0.777617)
(6.77412 1.99681e-05 -0.777633)
(6.77402 -1.58376e-05 -0.777594)
(7.48236 5.1389e-05 -0.037368)
(7.48266 2.69155e-05 -0.0374356)
(7.48258 1.65674e-05 -0.0374115)
(7.48259 6.75527e-06 -0.0373961)
(7.48263 8.8555e-06 -0.037403)
(7.48251 -2.48778e-05 -0.0373323)
(8.00666 4.26967e-05 1.41688)
(8.00697 2.34333e-05 1.41681)
(8.00687 1.23316e-05 1.41685)
(8.00687 -5.11595e-06 1.41687)
(8.00693 1.27306e-06 1.41686)
(8.00678 -1.86722e-05 1.41693)
(5.92452 4.1815e-05 3.03867)
(5.92479 2.93877e-05 3.03868)
(5.9247 1.5252e-05 3.03869)
(5.92469 1.2708e-05 3.0387)
(5.9247 3.70507e-06 3.03869)
(5.92458 -1.12788e-05 3.03872)
(2.284 -3.16596e-05 2.9678)
(2.28424 -2.41222e-05 2.96782)
(2.28417 1.8874e-05 2.96781)
(2.28418 -5.08262e-06 2.96782)
(2.28417 2.91615e-05 2.96789)
(2.28409 4.06345e-05 2.9677)
(-1.00524 4.03289e-05 -3.2365)
(-1.0053 -2.90878e-05 -3.23653)
(-1.00523 1.27338e-05 -3.23655)
(-1.00528 -1.82779e-05 -3.23652)
(-1.00533 1.80974e-05 -3.23653)
(-1.0051 -4.90642e-05 -3.23657)
(2.24372 5.42106e-05 -3.92309)
(2.24374 -5.94431e-05 -3.92306)
(2.24371 -5.7237e-07 -3.92311)
(2.24374 -2.36367e-05 -3.9231)
(2.24376 3.63558e-06 -3.92313)
(2.24362 -8.68846e-05 -3.92315)
(3.54755 3.29682e-05 -2.24651)
(3.54741 -1.76876e-05 -2.24643)
(3.54735 6.14923e-05 -2.24648)
(3.5474 2.59631e-05 -2.2465)
(3.54746 9.12023e-05 -2.24648)
(3.54744 -2.48715e-06 -2.24658)
(5.017 0.000118852 -2.0516)
(5.01703 0.000122733 -2.05148)
(5.01704 0.000195411 -2.05152)
(5.01716 0.000105832 -2.05154)
(5.01721 0.000143123 -2.05151)
(5.01734 1.6276e-05 -2.05162)
(8.49028 0.000152683 -1.84641)
(8.4907 0.000169139 -1.84632)
(8.4908 0.000283099 -1.84634)
(8.49101 0.000179916 -1.84635)
(8.49105 0.00020857 -1.84632)
(8.49119 2.18568e-05 -1.84643)
(12.5581 6.68327e-05 -2.01461)
(12.5584 0.00010887 -2.01457)
(12.5587 0.000305337 -2.01456)
(12.5589 0.000229768 -2.01454)
(12.5589 0.000333519 -2.01451)
(12.5591 0.000123281 -2.01457)
(16.398 5.85954e-05 -2.2322)
(16.3982 0.0001206 -2.2322)
(16.3984 0.000316198 -2.23215)
(16.3986 0.000238255 -2.23209)
(16.3985 0.00039016 -2.23205)
(16.3991 0.000190194 -2.23197)
(19.4498 9.36215e-05 -1.68043)
(19.4502 0.000123262 -1.68039)
(19.4504 0.000219857 -1.68029)
(19.4505 0.000126037 -1.68022)
(19.4502 0.000118157 -1.68022)
(19.4511 -3.98435e-05 -1.68014)
(19.6633 -1.07464e-05 0.403152)
(19.6638 -0.00022176 0.403294)
(19.6638 -0.000255285 0.40332)
(19.6637 -0.000246843 0.403296)
(19.6639 -0.000235328 0.403285)
(19.6634 -0.000285893 0.403219)
(10.3891 2.99012e-05 4.0853)
(10.3887 -5.96087e-05 4.08566)
(10.3888 -6.77339e-05 4.08563)
(10.3888 -7.80412e-05 4.08561)
(10.3887 4.3952e-05 4.08563)
(10.3889 -1.58291e-07 4.08549)
(4.29943 -2.57024e-05 6.48735)
(4.29957 -4.98947e-05 6.48759)
(4.29957 1.25149e-05 6.48753)
(4.29953 -3.89317e-05 6.48754)
(4.29951 4.23368e-05 6.48763)
(4.29928 5.74746e-05 6.48749)
(3.52107 -1.2486e-05 5.1446)
(3.52146 -1.70699e-06 5.14473)
(3.52137 3.83808e-05 5.14469)
(3.52139 3.87008e-05 5.14467)
(3.5213 5.21246e-05 5.1446)
(3.52143 2.79237e-05 5.14472)
(-0.891794 0.00010861 -3.56405)
(-0.891814 -0.000151015 -3.56402)
(-0.891714 7.63096e-05 -3.56412)
(-0.891882 -7.05144e-05 -3.56408)
(-0.891959 0.000195307 -3.564)
(-0.891381 -8.93784e-05 -3.56419)
(1.95205 -3.43312e-05 -5.01725)
(1.95202 -0.000121901 -5.01715)
(1.95195 4.73847e-05 -5.01721)
(1.95202 8.12115e-06 -5.01725)
(1.95205 2.67122e-05 -5.01725)
(1.95189 -6.27983e-05 -5.01722)
(1.19905 -4.69802e-05 -3.30567)
(1.19873 -4.0509e-05 -3.30564)
(1.19865 7.53243e-05 -3.30571)
(1.1987 3.93634e-05 -3.30574)
(1.19879 0.000125517 -3.30569)
(1.19883 8.02071e-05 -3.30578)
(1.14896 4.55979e-05 -3.69991)
(1.14863 0.000118172 -3.69988)
(1.14862 0.000208556 -3.6999)
(1.14865 0.000137643 -3.69988)
(1.1487 0.000168548 -3.69984)
(1.14892 9.09726e-05 -3.69986)
(0.330005 3.27203e-05 -4.55203)
(0.330022 0.000138142 -4.5522)
(0.330223 0.000294198 -4.5521)
(0.330392 0.000207248 -4.55206)
(0.330515 0.000249078 -4.55199)
(0.330727 0.000125408 -4.55186)
(-2.75264 -0.000176214 -6.43873)
(-2.75293 -0.000249879 -6.43898)
(-2.75252 -0.000221807 -6.43878)
(-2.75238 -0.000184578 -6.43862)
(-2.7524 9.15643e-08 -6.43856)
(-2.75188 0.000118012 -6.43807)
(-3.43193 -0.000194433 -6.44809)
(-3.43259 -0.000343912 -6.44841)
(-3.43232 -0.000444026 -6.44818)
(-3.43231 -0.00043959 -6.44788)
(-3.43265 -0.000348834 -6.44788)
(-3.43166 -0.000128769 -6.44689)
(-2.91018 -5.53743e-05 -4.09799)
(-2.91078 -0.000201122 -4.09815)
(-2.9104 -0.000497562 -4.09788)
(-2.91033 -0.000590937 -4.09751)
(-2.91083 -0.00112996 -4.09759)
(-2.90967 -0.000875152 -4.09678)
(6.58369 9.10239e-05 6.23931)
(6.58408 -0.000166306 6.2393)
(6.58445 -0.000463862 6.23916)
(6.58389 -0.00040445 6.23918)
(6.58418 -0.0010931 6.23913)
(6.58013 -0.00110218 6.23923)
(9.05713 4.28416e-05 13.6781)
(9.05805 -0.000188803 13.678)
(9.05793 -0.00027108 13.6779)
(9.05764 -0.000169784 13.6779)
(9.05821 -0.000152559 13.6776)
(9.05561 -0.000236069 13.6781)
(4.12754 0.000181625 12.4747)
(4.12843 8.10749e-05 12.4753)
(4.12823 -1.03511e-05 12.4751)
(4.12798 -4.24339e-06 12.4751)
(4.12793 0.000122178 12.4751)
(4.12767 6.85238e-05 12.4753)
(5.76721 -4.84569e-05 7.10627)
(5.76768 -1.36572e-05 7.10637)
(5.76766 2.98192e-05 7.10632)
(5.76767 8.70751e-05 7.10628)
(5.76802 -7.52693e-06 7.10652)
(5.76725 -0.000110376 7.10618)
(-0.00221243 -5.85528e-08 -0.00224046)
(-0.0022123 -6.14398e-07 -0.00224046)
(-0.00221222 -8.25507e-07 -0.00224043)
(-0.00221209 -6.35481e-07 -0.00224044)
(-0.00221197 -5.79702e-07 -0.00224043)
(-0.00221179 -2.1427e-07 -0.0022404)
(-0.0067198 -1.06967e-07 -0.00232324)
(-0.00671942 -6.81214e-07 -0.00232283)
(-0.0067191 -1.02151e-06 -0.00232271)
(-0.00671862 -9.72434e-07 -0.00232272)
(-0.00671814 -9.03836e-07 -0.00232277)
(-0.0067175 -3.92135e-07 -0.00232286)
(-0.0114642 1.57643e-08 -0.00247658)
(-0.0114633 -6.93093e-07 -0.00247495)
(-0.0114622 -1.61763e-06 -0.00247448)
(-0.0114609 -1.9343e-06 -0.00247442)
(-0.0114595 -1.84455e-06 -0.00247455)
(-0.0114579 -8.33029e-07 -0.00247487)
(-0.016591 1.4259e-07 -0.00269238)
(-0.0165881 -1.33636e-06 -0.00268868)
(-0.0165851 -3.67115e-06 -0.00268766)
(-0.016582 -4.63794e-06 -0.00268758)
(-0.0165786 -4.45414e-06 -0.00268808)
(-0.0165748 -2.02293e-06 -0.00268921)
(-0.0222706 -6.02587e-07 -0.00296652)
(-0.0222629 -4.38435e-06 -0.00296048)
(-0.0222559 -8.96908e-06 -0.00295912)
(-0.0222492 -1.07041e-05 -0.00295946)
(-0.0222424 -1.00049e-05 -0.00296099)
(-0.0222345 -4.50331e-06 -0.00296396)
(-0.0287007 -4.15024e-06 -0.00341644)
(-0.0286835 -1.30251e-05 -0.00341042)
(-0.0286699 -1.96011e-05 -0.00341026)
(-0.0286583 -2.12878e-05 -0.0034123)
(-0.0286469 -1.88563e-05 -0.00341614)
(-0.028633 -8.31154e-06 -0.00342241)
(-0.0359119 -1.14049e-05 -0.00435368)
(-0.0358794 -2.82668e-05 -0.00435551)
(-0.035858 -3.47224e-05 -0.00436002)
(-0.0358423 -3.39252e-05 -0.00436576)
(-0.035828 -2.80391e-05 -0.00437304)
(-0.0358085 -1.19971e-05 -0.00438306)
(-0.0434192 -2.11711e-05 -0.00595315)
(-0.043367 -4.44628e-05 -0.00597341)
(-0.0433411 -4.41509e-05 -0.0059861)
(-0.0433271 -3.69481e-05 -0.00599629)
(-0.0433163 -2.67488e-05 -0.00600562)
(-0.0432972 -1.07027e-05 -0.00601581)
(-0.0504566 -2.57797e-05 -0.00802457)
(-0.050388 -4.44301e-05 -0.00806715)
(-0.0503661 -2.91901e-05 -0.00808526)
(-0.0503628 -1.34439e-05 -0.0080946)
(-0.0503648 -7.82989e-07 -0.00809847)
(-0.050357 2.06134e-06 -0.00809881)
(-0.0521721 -1.37351e-05 -0.00927777)
(-0.0520967 -9.80434e-06 -0.00932986)
(-0.0520837 1.93653e-05 -0.00934313)
(-0.0520936 3.82181e-05 -0.00934117)
(-0.0521118 4.51691e-05 -0.00932842)
(-0.0521263 2.22487e-05 -0.00930564)
(-0.0496988 1.05026e-05 -0.00764944)
(-0.0496301 3.77834e-05 -0.00766828)
(-0.0496187 6.27723e-05 -0.0076614)
(-0.0496276 7.37538e-05 -0.00764286)
(-0.0496485 7.20319e-05 -0.00761451)
(-0.0496818 3.36687e-05 -0.0075718)
(-0.0264019 1.96864e-05 0.00492042)
(-0.0263709 3.45595e-05 0.00492318)
(-0.0263615 2.6126e-05 0.00492359)
(-0.0263597 1.83995e-05 0.00492321)
(-0.0263646 1.21051e-05 0.0049261)
(-0.0263816 4.64702e-06 0.00493918)
(-0.00219213 -8.38842e-08 -0.00656899)
(-0.00219183 -5.8918e-07 -0.00656894)
(-0.00219165 -8.06986e-07 -0.00656882)
(-0.00219146 -6.0575e-07 -0.00656879)
(-0.00219133 -4.62482e-07 -0.00656873)
(-0.00219118 -1.46791e-07 -0.00656865)
(-0.00667779 -3.92436e-07 -0.00683595)
(-0.0066768 -1.08337e-06 -0.00683509)
(-0.00667611 -1.25879e-06 -0.00683474)
(-0.00667544 -1.06083e-06 -0.00683466)
(-0.0066749 -7.66139e-07 -0.00683471)
(-0.00667431 -2.73895e-07 -0.00683487)
(-0.0114579 -9.29375e-07 -0.00734085)
(-0.0114557 -2.20297e-06 -0.00733756)
(-0.0114539 -2.53213e-06 -0.00733645)
(-0.0114523 -2.30372e-06 -0.00733615)
(-0.0114509 -1.73601e-06 -0.00733636)
(-0.0114494 -6.92016e-07 -0.00733705)
(-0.016702 -1.94708e-06 -0.00806555)
(-0.016697 -4.57276e-06 -0.00805827)
(-0.016693 -5.35629e-06 -0.00805602)
(-0.0166894 -5.08489e-06 -0.00805562)
(-0.0166861 -3.95658e-06 -0.0080566)
(-0.0166826 -1.60399e-06 -0.00805914)
(-0.0224601 -4.10053e-06 -0.0089438)
(-0.0224488 -9.38103e-06 -0.00893264)
(-0.0224405 -1.07266e-05 -0.00892988)
(-0.0224335 -1.01334e-05 -0.00893037)
(-0.022427 -7.95088e-06 -0.00893359)
(-0.0224197 -3.26339e-06 -0.00894025)
(-0.0285544 -7.94675e-06 -0.00978286)
(-0.0285298 -1.72469e-05 -0.00977433)
(-0.0285142 -1.83435e-05 -0.00977487)
(-0.0285026 -1.6499e-05 -0.00977919)
(-0.0284922 -1.25469e-05 -0.0097874)
(-0.0284796 -5.0831e-06 -0.00980106)
(-0.0347552 -1.32919e-05 -0.00995302)
(-0.0347051 -2.59159e-05 -0.00996488)
(-0.0346795 -2.31335e-05 -0.00997685)
(-0.034664 -1.78401e-05 -0.00998963)
(-0.0346519 -1.17334e-05 -0.0100051)
(-0.0346361 -4.37909e-06 -0.010026)
(-0.0407778 -1.63795e-05 -0.00800713)
(-0.0406875 -2.55372e-05 -0.00806181)
(-0.0406524 -1.22924e-05 -0.00809162)
(-0.0406388 -9.2209e-07 -0.008113)
(-0.0406338 6.23675e-06 -0.00813067)
(-0.0406261 4.06288e-06 -0.00814792)
(-0.0465547 -1.07182e-05 -0.00228101)
(-0.0464166 -1.56045e-06 -0.00237944)
(-0.0463784 2.90161e-05 -0.00241756)
(-0.046379 4.57931e-05 -0.00243241)
(-0.0463983 4.91883e-05 -0.00243214)
(-0.0464226 2.33123e-05 -0.00241936)
(-0.0500259 4.62916e-06 0.0124177)
(-0.0498661 4.05974e-05 0.0123235)
(-0.0498415 8.51402e-05 0.0123086)
(-0.0498711 0.000102548 0.0123267)
(-0.0499307 9.80326e-05 0.0123686)
(-0.0500112 4.46402e-05 0.0124352)
(-0.055112 3.50467e-05 0.0319338)
(-0.0549867 8.37041e-05 0.0319278)
(-0.0549868 0.000100619 0.0319577)
(-0.0550409 9.95107e-05 0.0320077)
(-0.0551341 8.37759e-05 0.0320787)
(-0.0552693 3.63694e-05 0.0321828)
(-0.0445997 2.6701e-05 0.080847)
(-0.0445503 2.69587e-05 0.0808669)
(-0.0445506 -1.59522e-05 0.0808693)
(-0.0445741 -4.22433e-05 0.08087)
(-0.0446203 -5.29996e-05 0.0808826)
(-0.0446945 -2.7048e-05 0.0809176)
(-0.00207419 3.59464e-08 -0.0106895)
(-0.00207396 -3.00897e-07 -0.0106895)
(-0.00207384 -5.47634e-07 -0.0106893)
(-0.00207373 -3.94558e-07 -0.0106893)
(-0.00207367 -2.75274e-07 -0.0106892)
(-0.00207363 -8.09564e-08 -0.010689)
(-0.00634471 -2.8807e-07 -0.011181)
(-0.00634406 -7.9286e-07 -0.0111802)
(-0.00634361 -9.24308e-07 -0.0111797)
(-0.0063432 -7.34888e-07 -0.0111796)
(-0.00634297 -4.54561e-07 -0.0111796)
(-0.00634282 -1.39612e-07 -0.0111797)
(-0.0109839 -7.76127e-07 -0.0121311)
(-0.0109826 -1.77058e-06 -0.0121281)
(-0.0109815 -1.90536e-06 -0.012127)
(-0.0109806 -1.55821e-06 -0.0121265)
(-0.01098 -9.75512e-07 -0.0121267)
(-0.0109796 -3.27963e-07 -0.0121275)
(-0.0162579 -1.66891e-06 -0.0135293)
(-0.0162548 -3.6316e-06 -0.013523)
(-0.0162524 -3.75826e-06 -0.0135208)
(-0.0162506 -3.08642e-06 -0.0135202)
(-0.0162493 -1.94791e-06 -0.0135213)
(-0.0162484 -6.55404e-07 -0.0135241)
(-0.0225468 -3.34056e-06 -0.0152693)
(-0.022539 -6.79335e-06 -0.0152608)
(-0.0225343 -6.4098e-06 -0.0152586)
(-0.0225311 -4.94295e-06 -0.0152592)
(-0.022529 -2.9265e-06 -0.0152628)
(-0.0225278 -9.39451e-07 -0.0152703)
(-0.0305577 -5.90416e-06 -0.0171284)
(-0.030539 -1.06866e-05 -0.017127)
(-0.0305303 -7.99239e-06 -0.0171296)
(-0.0305259 -4.63866e-06 -0.0171349)
(-0.0305243 -1.32467e-06 -0.0171441)
(-0.0305243 9.53307e-08 -0.0171589)
(-0.0412226 -8.08241e-06 -0.0187896)
(-0.0411816 -1.12087e-05 -0.0188162)
(-0.0411682 -2.27663e-06 -0.0188328)
(-0.0411656 4.72242e-06 -0.0188474)
(-0.04117 8.65713e-06 -0.0188635)
(-0.0411786 4.75759e-06 -0.0188834)
(-0.0545262 -6.21842e-06 -0.019523)
(-0.0544517 1.67169e-06 -0.0195993)
(-0.0544373 2.34759e-05 -0.0196348)
(-0.0544465 3.50501e-05 -0.0196558)
(-0.0544708 3.69554e-05 -0.0196691)
(-0.0545068 1.74199e-05 -0.0196757)
(-0.0717014 7.02257e-06 -0.0180676)
(-0.0716003 3.82251e-05 -0.0181827)
(-0.0715985 7.33076e-05 -0.0182189)
(-0.0716379 8.65085e-05 -0.018223)
(-0.0717042 8.06016e-05 -0.0182043)
(-0.071795 3.61613e-05 -0.0181613)
(-0.0842183 3.3777e-05 -0.00895177)
(-0.0841238 8.75029e-05 -0.00903428)
(-0.0841562 0.000114088 -0.0090262)
(-0.0842455 0.000115576 -0.00897823)
(-0.0843751 9.48738e-05 -0.00889829)
(-0.0845428 3.95258e-05 -0.00878336)
(-0.101594 3.60483e-05 0.0049327)
(-0.101568 6.91794e-05 0.00498502)
(-0.101643 6.06208e-05 0.00504584)
(-0.101773 4.4756e-05 0.00511993)
(-0.101948 2.25716e-05 0.00521568)
(-0.102161 5.38772e-06 0.00534364)
(-0.0751385 -1.24176e-05 0.0686352)
(-0.0751494 -6.43483e-05 0.068697)
(-0.0751949 -0.000124763 0.0687247)
(-0.0752635 -0.000149658 0.0687466)
(-0.0753581 -0.000144172 0.0687853)
(-0.0754658 -6.86779e-05 0.068836)
(-0.00184114 6.10214e-08 -0.0144176)
(-0.00184091 -1.1975e-07 -0.0144177)
(-0.00184082 -3.11358e-07 -0.0144176)
(-0.00184076 -2.34742e-07 -0.0144175)
(-0.00184075 -1.49479e-07 -0.0144175)
(-0.00184076 -3.70227e-08 -0.0144173)
(-0.00566357 -2.54729e-07 -0.015187)
(-0.00566288 -5.83885e-07 -0.0151865)
(-0.00566255 -5.84448e-07 -0.0151862)
(-0.00566239 -4.12257e-07 -0.0151861)
(-0.0056624 -2.05549e-07 -0.0151861)
(-0.00566248 -5.00217e-08 -0.0151862)
(-0.00992985 -7.10897e-07 -0.0167146)
(-0.00992841 -1.34984e-06 -0.0167127)
(-0.00992775 -1.07773e-06 -0.0167118)
(-0.0099275 -6.13728e-07 -0.0167114)
(-0.00992761 -1.19118e-07 -0.0167116)
(-0.00992785 5.3414e-08 -0.0167122)
(-0.0150155 -1.29679e-06 -0.0190436)
(-0.0150125 -2.19905e-06 -0.0190396)
(-0.0150114 -1.3466e-06 -0.0190381)
(-0.0150112 -3.81984e-07 -0.0190378)
(-0.0150117 4.84992e-07 -0.0190388)
(-0.0150122 4.18565e-07 -0.019041)
(-0.02131 -1.58332e-06 -0.0221551)
(-0.021304 -2.07958e-06 -0.0221506)
(-0.0213026 -4.19283e-08 -0.0221497)
(-0.0213031 1.69705e-06 -0.0221508)
(-0.0213046 2.68983e-06 -0.0221542)
(-0.0213062 1.44263e-06 -0.0221602)
(-0.0290046 -5.92231e-07 -0.0259075)
(-0.0289927 1.70984e-06 -0.0259109)
(-0.0289916 6.32895e-06 -0.0259153)
(-0.0289944 8.9445e-06 -0.0259214)
(-0.0289992 9.30298e-06 -0.0259302)
(-0.0290046 4.38904e-06 -0.0259419)
(-0.0382274 4.26974e-06 -0.0299568)
(-0.0382056 1.4475e-05 -0.0299858)
(-0.0382061 2.31902e-05 -0.0300037)
(-0.038215 2.63077e-05 -0.0300193)
(-0.0382287 2.37907e-05 -0.0300347)
(-0.0382455 1.05019e-05 -0.0300493)
(-0.0494003 1.50322e-05 -0.0321403)
(-0.0493672 3.94188e-05 -0.0322103)
(-0.0493741 5.20964e-05 -0.0322453)
(-0.0493971 5.37663e-05 -0.0322677)
(-0.049431 4.52935e-05 -0.0322806)
(-0.0494762 1.92955e-05 -0.0322806)
(-0.0647623 2.79156e-05 -0.0301039)
(-0.0647326 6.50811e-05 -0.030198)
(-0.0647605 7.54751e-05 -0.0302292)
(-0.0648136 7.13859e-05 -0.0302335)
(-0.0648875 5.53697e-05 -0.0302147)
(-0.0649842 2.24276e-05 -0.0301679)
(-0.0808439 2.69071e-05 -0.00716593)
(-0.080857 5.4498e-05 -0.00721503)
(-0.0809243 5.11046e-05 -0.00719733)
(-0.0810192 3.91292e-05 -0.0071471)
(-0.0811391 2.10896e-05 -0.00706763)
(-0.0812823 5.41972e-06 -0.00695962)
(-0.114459 -1.00762e-05 0.0398389)
(-0.114557 -4.11868e-05 0.0399237)
(-0.11467 -7.62645e-05 0.0400001)
(-0.114799 -9.36415e-05 0.0400864)
(-0.114934 -9.76272e-05 0.0401811)
(-0.115055 -4.88921e-05 0.0402812)
(-0.114728 -6.19644e-05 0.269106)
(-0.114793 -0.000152579 0.269148)
(-0.114863 -0.000202067 0.269202)
(-0.11493 -0.000202987 0.269223)
(-0.115005 -0.000173952 0.269304)
(-0.115043 -8.2126e-05 0.26931)
(-0.222775 -3.80507e-05 -3.83525)
(-0.222767 -5.11415e-05 -3.83535)
(-0.222728 3.08046e-05 -3.83543)
(-0.222801 -3.58405e-05 -3.83537)
(-0.222825 0.00010283 -3.83529)
(-0.222616 7.4392e-05 -3.83534)
(0.119178 -7.10681e-06 -3.68297)
(0.119158 2.27683e-05 -3.68315)
(0.11915 1.66925e-05 -3.68315)
(0.119141 8.16155e-06 -3.68311)
(0.119139 2.22761e-05 -3.68311)
(0.119128 3.4487e-05 -3.683)
(0.08215 9.74167e-06 -3.63665)
(0.082142 3.88759e-06 -3.63674)
(0.0821419 -1.38707e-05 -3.63673)
(0.0821561 -1.76177e-05 -3.6367)
(0.0821623 -2.54274e-05 -3.63672)
(0.0821353 -1.55946e-05 -3.63663)
(-0.199383 -5.94562e-05 -4.67026)
(-0.199562 -1.84051e-05 -4.67037)
(-0.199587 1.06913e-05 -4.67031)
(-0.199573 4.11045e-05 -4.67029)
(-0.199534 1.98815e-05 -4.67034)
(-0.199354 3.86655e-05 -4.67012)
(-0.313132 -2.80087e-06 -4.14627)
(-0.313147 -2.80714e-05 -4.1464)
(-0.313161 -3.42231e-05 -4.14636)
(-0.313183 -1.39228e-05 -4.14634)
(-0.313193 -7.03203e-06 -4.14637)
(-0.313167 -1.13113e-05 -4.1462)
(-0.142222 1.42015e-05 -3.84888)
(-0.142224 1.61059e-05 -3.84897)
(-0.142223 5.15519e-06 -3.84893)
(-0.142217 6.55827e-06 -3.84891)
(-0.142213 -5.60349e-06 -3.84892)
(-0.142232 -1.23289e-05 -3.84878)
(-2.3552 -1.11073e-05 -2.43536)
(-2.3555 1.73827e-06 -2.43549)
(-2.35553 -2.9369e-05 -2.43547)
(-2.35555 -2.84045e-05 -2.43545)
(-2.35554 -2.80929e-05 -2.4355)
(-2.3553 3.22455e-05 -2.43535)
(-0.584237 6.22719e-06 -2.64869)
(-0.584267 -3.86569e-06 -2.64879)
(-0.584294 -1.78905e-05 -2.64876)
(-0.584322 -6.86996e-06 -2.64876)
(-0.584327 -2.59663e-05 -2.64879)
(-0.584291 -2.18076e-05 -2.64861)
(-0.0816384 1.10463e-05 -2.93623)
(-0.0816228 1.3471e-05 -2.93631)
(-0.0816315 1.10242e-05 -2.93628)
(-0.0816301 9.28263e-06 -2.93627)
(-0.0816285 -2.34566e-06 -2.93627)
(-0.0816643 -1.05555e-05 -2.93617)
(-1.14102 -3.11651e-06 -2.58828)
(-1.14108 -2.74789e-05 -2.5886)
(-1.14114 -5.38583e-05 -2.58852)
(-1.1412 -4.96104e-05 -2.58849)
(-1.14124 -2.28538e-05 -2.58852)
(-1.14123 1.58453e-05 -2.58818)
(-0.0593003 1.94556e-05 -4.01639)
(-0.0592668 3.05521e-06 -4.01661)
(-0.0593038 -3.40992e-05 -4.01661)
(-0.0593217 -3.54763e-05 -4.01664)
(-0.0593367 -6.31989e-05 -4.01671)
(-0.0593993 -5.02732e-05 -4.0164)
(0.153117 1.62276e-05 -3.65549)
(0.153128 2.60655e-05 -3.65562)
(0.153132 1.77722e-05 -3.6556)
(0.153134 1.40479e-05 -3.6556)
(0.153137 -1.02896e-05 -3.65562)
(0.15313 -1.80467e-05 -3.6555)
(-0.665341 -5.17839e-05 -1.76442)
(-0.665465 -9.33032e-05 -1.7648)
(-0.665541 -9.0432e-05 -1.76471)
(-0.665613 -7.31062e-05 -1.76462)
(-0.665635 -1.99019e-05 -1.76462)
(-0.665586 1.83804e-05 -1.76421)
(-0.0785076 1.78714e-05 -3.94981)
(-0.0784907 -4.91163e-07 -3.95004)
(-0.0785 -5.50502e-05 -3.95005)
(-0.0785108 -5.94207e-05 -3.95007)
(-0.0785244 -7.51019e-05 -3.95013)
(-0.0785404 -4.15217e-05 -3.94985)
(0.0154624 1.36768e-05 -3.24173)
(0.0154651 1.6323e-05 -3.24187)
(0.0154607 7.1024e-06 -3.24187)
(0.0154579 2.72e-06 -3.24188)
(0.0154549 -1.58507e-05 -3.24191)
(0.0154504 -1.93919e-05 -3.24179)
(0.0549635 -6.83415e-05 -2.47428)
(0.0548123 -0.00014204 -2.47466)
(0.0546757 -0.000129294 -2.47468)
(0.0545917 -0.000127349 -2.47467)
(0.0545755 -7.95739e-05 -2.4747)
(0.0545749 -3.20156e-05 -2.47429)
(0.21557 2.19873e-05 -4.38545)
(0.21559 1.57928e-05 -4.38561)
(0.215597 -2.06484e-05 -4.38558)
(0.215602 -2.63966e-05 -4.38557)
(0.215598 -4.79021e-05 -4.38562)
(0.215617 -2.72294e-05 -4.38539)
(-0.127804 6.70427e-06 -3.53277)
(-0.127813 2.39896e-07 -3.53291)
(-0.127818 -1.03674e-05 -3.53293)
(-0.127822 -1.20984e-05 -3.53294)
(-0.127827 -1.98244e-05 -3.53296)
(-0.127823 -1.66053e-05 -3.53285)
(-0.411695 -9.86939e-05 -4.37316)
(-0.412147 -0.000157543 -4.37359)
(-0.412159 -0.000136882 -4.3735)
(-0.41219 -0.000199268 -4.37346)
(-0.412239 -0.000163817 -4.37349)
(-0.412043 -5.86686e-05 -4.37302)
(-0.203973 -2.51148e-05 -3.82285)
(-0.203949 -6.22149e-05 -3.82291)
(-0.203994 -7.19745e-05 -3.82292)
(-0.203989 -6.65556e-05 -3.8229)
(-0.204038 -2.39386e-05 -3.82292)
(-0.20395 1.33534e-05 -3.82275)
(-0.347545 -4.04062e-06 -3.48679)
(-0.347552 -1.23156e-05 -3.48692)
(-0.347553 -1.78732e-05 -3.48691)
(-0.347555 -2.07196e-05 -3.48691)
(-0.347576 -1.54295e-05 -3.48688)
(-0.347544 -5.15791e-06 -3.48677)
(-2.31705 1.73209e-05 -6.40447)
(-2.31817 -4.66105e-05 -6.40493)
(-2.3179 -0.000129305 -6.40459)
(-2.31797 -0.000164971 -6.40456)
(-2.31816 -0.000344478 -6.40416)
(-2.31776 -0.000231838 -6.40526)
(-1.29589 2.26842e-05 -3.62804)
(-1.2961 -6.27234e-05 -3.62812)
(-1.29625 -6.19421e-05 -3.62817)
(-1.29625 -0.000107502 -3.62808)
(-1.29647 9.25031e-05 -3.62771)
(-1.29585 0.000222003 -3.62803)
(-0.548242 -3.09915e-05 -3.20643)
(-0.548252 -4.79744e-05 -3.2065)
(-0.548261 -4.16293e-05 -3.20647)
(-0.548263 -8.50051e-05 -3.20647)
(-0.548336 2.78e-05 -3.20646)
(-0.5482 9.00017e-05 -3.20639)
(-2.90365 0.000533849 -2.39025)
(-2.90433 0.000429424 -2.39088)
(-2.9036 -6.85293e-05 -2.39004)
(-2.90376 0.000189102 -2.39042)
(-2.90384 -0.000636543 -2.38924)
(-2.90515 -0.000811447 -2.39513)
(-3.59236 0.000469843 -1.93587)
(-3.59276 0.000402939 -1.93568)
(-3.59268 0.00021247 -1.93556)
(-3.59269 0.000224116 -1.93541)
(-3.5929 0.000310242 -1.93368)
(-3.59206 0.000366673 -1.93778)
(-1.067 -6.63319e-05 -2.1566)
(-1.06726 -0.000101094 -2.1565)
(-1.06729 -4.45904e-05 -2.1564)
(-1.06732 -0.00018428 -2.1564)
(-1.06737 0.000199357 -2.15628)
(-1.067 0.000377109 -2.15677)
(5.99949 0.000746014 12.1912)
(6.00201 0.000488636 12.1917)
(6.0011 -0.000285718 12.1912)
(6.00089 -4.71986e-05 12.1905)
(6.00127 -0.000839423 12.1913)
(5.99907 -0.000994017 12.1869)
(0.58499 0.000921515 6.3554)
(0.587456 0.000990888 6.35833)
(0.586715 0.000574979 6.35788)
(0.586632 0.000801716 6.35712)
(0.5869 4.33583e-05 6.35854)
(0.584982 -0.000322646 6.35096)
(-1.35684 0.000154098 2.62927)
(-1.35685 0.000332116 2.63107)
(-1.35688 0.000591013 2.63116)
(-1.35708 0.000579729 2.6309)
(-1.35697 0.000582496 2.63162)
(-1.35723 0.000418825 2.62867)
(3.22548 0.00109845 14.4709)
(3.23076 0.000846686 14.4726)
(3.2287 7.28399e-05 14.4718)
(3.22918 0.000292563 14.4715)
(3.23205 -0.000178761 14.4717)
(3.22448 -0.0004632 14.4706)
(4.3629 0.00141234 10.6549)
(4.36782 0.00186757 10.6609)
(4.36582 0.0014899 10.6597)
(4.36699 0.000808441 10.6586)
(4.36882 0.00161543 10.6527)
(4.36383 0.00154791 10.6636)
(3.49559 -0.000114397 5.6663)
(3.49653 0.000366445 5.67135)
(3.49601 0.000888513 5.67178)
(3.49655 0.000346286 5.67135)
(3.49763 0.00115932 5.66409)
(3.4941 0.00113112 5.67824)
(7.09482 0.000257012 9.18114)
(7.09665 0.000369351 9.18241)
(7.09603 0.000229072 9.18192)
(7.09619 1.24707e-06 9.18187)
(7.09724 0.00037479 9.18225)
(7.09481 0.000424766 9.18141)
(4.67833 0.00109969 4.54693)
(4.68242 0.00140938 4.55578)
(4.68079 0.00091661 4.55285)
(4.68132 -0.000767306 4.55287)
(4.68168 0.00248746 4.55246)
(4.68042 0.00370187 4.55292)
(5.93764 -0.000294008 -2.46397)
(5.9377 0.000166321 -2.45322)
(5.93827 0.000613459 -2.45456)
(5.93785 -0.000364792 -2.45538)
(5.93499 0.00150485 -2.46957)
(5.94081 0.00197124 -2.44058)
(-1.20655 -7.25701e-05 0.252361)
(-1.20644 -1.04907e-05 0.252434)
(-1.20664 -0.000143457 0.252617)
(-1.20636 -3.34962e-05 0.25229)
(-1.20626 -4.48599e-06 0.253701)
(-1.20699 -0.000170974 0.25083)
(-1.18115 0.000130796 -1.4459)
(-1.18144 0.000461034 -1.44593)
(-1.18176 -0.000320715 -1.44602)
(-1.18098 0.00175427 -1.44597)
(-1.18519 -0.00243043 -1.44662)
(-1.17759 -0.00483528 -1.44527)
(1.25022 -6.19851e-05 0.239461)
(1.25038 -0.000267254 0.240652)
(1.25011 -0.000101762 0.23892)
(1.25111 -0.00276931 0.241994)
(1.2524 0.00336852 0.258284)
(1.24916 0.00629777 0.221202)
(-1.56683 -0.000178057 -0.0760638)
(-1.56667 0.000124106 -0.0759459)
(-1.56687 -0.000244058 -0.0755017)
(-1.56637 -0.000224774 -0.0764702)
(-1.56681 0.000488807 -0.0751742)
(-1.56655 0.000159411 -0.0769335)
(-1.47547 0.000393518 -2.51519)
(-1.47612 0.0012393 -2.5158)
(-1.47618 -0.000908748 -2.51546)
(-1.4755 0.00447783 -2.51593)
(-1.48205 -0.00474477 -2.52114)
(-1.47006 -0.010957 -2.51027)
(1.73825 0.000246237 7.13277)
(1.73993 0.000841313 7.13673)
(1.73607 -0.000460662 7.13146)
(1.74386 0.00348428 7.13976)
(1.77075 -0.00421176 7.19292)
(1.70693 -0.00858155 7.07262)
(-1.38347 -0.000368669 -0.379008)
(-1.38347 7.14268e-05 -0.379478)
(-1.38351 -0.000534572 -0.378788)
(-1.38381 -0.00139372 -0.379621)
(-1.38362 0.00167681 -0.38023)
(-1.38459 0.00208153 -0.379425)
(2.16123 -0.000183092 1.26305)
(2.1604 0.000367763 1.26148)
(2.16012 -0.000496245 1.26208)
(2.16214 0.000777144 1.26227)
(2.16106 -0.00103168 1.25853)
(2.15703 -0.00282707 1.26123)
(9.26521 0.000298403 14.7398)
(9.26713 0.000791893 14.7416)
(9.26495 -0.000388289 14.7396)
(9.26867 0.00563072 14.7419)
(9.29827 -0.0076125 14.7689)
(9.23163 -0.0140835 14.7116)
(-2.53609 -0.000310243 -2.55266)
(-2.53659 0.000248325 -2.55289)
(-2.53863 -0.000195475 -2.5512)
(-2.53321 -0.00263986 -2.55411)
(-2.53166 0.00458404 -2.56454)
(-2.54359 0.00642168 -2.53762)
(8.67382 -0.000298702 7.57874)
(8.67384 -0.000156802 7.57863)
(8.67341 -0.00025394 7.5788)
(8.67542 0.000480971 7.57849)
(8.6805 -0.00103246 7.58289)
(8.66625 -0.00182585 7.57487)
(13.2221 0.000117211 12.9848)
(13.2232 0.000292139 12.9852)
(13.223 -9.02323e-05 12.9848)
(13.2232 0.00330041 12.9849)
(13.2372 -0.00484069 12.9891)
(13.207 -0.00835308 12.9837)
(2.09159 -9.15292e-05 3.9484)
(2.09132 -7.00998e-05 3.94833)
(2.08993 -9.12028e-05 3.94802)
(2.09303 0.0014868 3.94849)
(2.10344 -0.00191138 3.95364)
(2.07889 -0.00344002 3.94292)
(10.6948 -0.000101977 8.7457)
(10.6952 6.54642e-05 8.74639)
(10.6952 -0.000124573 8.74614)