/*--------------------------------*- C++ -*----------------------------------*\
| =========                 |                                                 |
| \\      /  F ield         | OpenFOAM: The Open Source CFD Toolbox           |
|  \\    /   O peration     | Version:  v1612+                                |
|   \\  /    A nd           | Web:      www.OpenFOAM.com                      |
|    \\/     M anipulation  |                                                 |
\*---------------------------------------------------------------------------*/
FoamFile
{
    version     2.0;
    format      ascii;
    class       volScalarField;
    location    "4.5";
    object      p_rgh;
}
// * * * * * * * * * * * * * * * * * * * * * * * * * * * * * * * * * * * * * //

dimensions      [1 -1 -2 0 0 0 0];

internalField   nonuniform List<scalar> 
1116
(
4229.17
4229.2
4229.21
4229.2
4229.2
4229.21
4299.6
4299.62
4299.64
4299.62
4299.63
4299.65
4560.24
4560.25
4560.27
4560.25
4560.26
4560.29
5071.3
5071.3
5071.31
5071.3
5071.32
5071.35
6301.83
6301.85
6301.86
6301.86
6301.88
6301.9
8912.63
8912.63
8912.66
8912.68
8912.69
8912.73
13839.3
13839.2
13839.3
13839.3
13839.3
13839.3
18646.2
18646.2
18646.2
18646.2
18646.2
18646.2
22194.5
22194.7
22194.6
22194.6
22194.6
22194.5
25087.9
25088
25087.9
25087.9
25087.9
25087.9
28749.8
28749.6
28749.6
28749.7
28749.7
28749.8
30483.8
30483.7
30483.8
30483.8
30483.8
30483.9
1.84163
1.84161
1.84168
1.84217
1.84269
1.84281
7.69401
7.6938
7.69383
7.69437
7.69504
7.69542
20.7903
20.7902
20.7904
20.7909
20.7918
20.7926
70.6875
70.6873
70.6874
70.6877
70.6887
70.6903
162.911
162.911
162.909
162.912
162.915
162.914
627.175
627.116
627.14
627.157
627.138
627.189
5204.24
5203.64
5203.85
5203.87
5203.7
5204.05
15807.8
15807.8
15807.7
15807.7
15807.7
15807.8
21876.1
21876.6
21876.5
21876.5
21876.5
21876.3
23919.5
23918.8
23919.3
23919.3
23919.1
23919.4
27479.6
27478.6
27479.1
27479.2
27479.1
27479.4
29210.1
29209.9
29210
29210.1
29210.1
29210.2
16.3892
16.3894
16.3898
16.3904
16.3911
16.3916
16.2393
16.2396
16.24
16.2405
16.2411
16.2415
18.7472
18.7476
18.7479
18.7482
18.7488
18.749
12.9643
12.9645
12.9649
12.9651
12.9652
12.9651
-5.69697
-5.70292
-5.70144
-5.70143
-5.70237
-5.69958
31.4812
31.4707
31.4749
31.4754
31.4734
31.4768
142.79
142.74
142.767
142.771
142.758
142.787
5502.45
5503.64
5503.05
5502.88
5503.27
5502.54
16851
16857
16854.5
16854
16855.6
16852.5
23127.6
23129.1
23128.5
23128.4
23128.7
23128.2
26660.6
26663.6
26662.5
26662.4
26663.2
26662.2
25787.3
25787.1
25787.5
25788
25788.1
25788.3
6.85043
6.85101
6.8514
6.85198
6.8526
6.85272
6.54213
6.54247
6.54262
6.54287
6.54326
6.54333
10.2495
10.25
10.2499
10.2499
10.2501
10.2499
5.57607
5.57611
5.57616
5.57596
5.57553
5.57512
-13.1761
-13.1848
-13.1834
-13.1845
-13.1888
-13.1853
13.5124
13.5109
13.5138
13.5152
13.5152
13.5153
43.594
43.5974
43.5995
43.6061
43.6081
43.609
1510.56
1511.58
1511.35
1511.33
1511.14
1511.01
7067.06
7075.74
7072.15
7072.1
7073.76
7070.3
8689.86
8704.41
8698.11
8697.6
8701.37
8695.13
6442.08
6449.39
6446.61
6446.09
6447.84
6446.22
5205.72
5204.44
5205.57
5206.07
5205.95
5207.06
36.251
36.2514
36.252
36.2525
36.2529
36.2511
38.0962
38.0966
38.0984
38.0988
38.1014
38.0934
42.3292
42.3278
42.3369
42.3416
42.3726
42.3128
52.2022
52.193
52.2036
52.2599
52.3961
52.0676
59.2664
59.2907
59.2527
59.2661
59.3983
58.9393
46.2597
46.4483
46.3818
45.88
45.9224
46.0713
89.3496
89.3925
89.8215
88.9491
89.859
88.5347
509.693
506.683
505.963
510.055
504.5
497.293
1836.06
1831.7
1834.8
1844.39
1840.66
1833.32
966.254
961.802
961.894
961.589
953.345
964.901
217.173
216.947
217.062
216.664
215.183
217.073
183.83
183.425
182.824
182.081
181.448
181.509
33.3297
33.3299
33.3303
33.3304
33.3305
33.3291
34.69
34.6904
34.6916
34.6911
34.6926
34.6852
37.0444
37.0455
37.0499
37.0514
37.0702
37.022
40.8069
40.8209
40.8109
40.8617
40.9343
40.6762
36.507
36.6346
36.4613
36.6393
36.525
36.0864
-24.8121
-24.4904
-24.8322
-24.965
-25.5933
-25.0876
-143.966
-143.817
-143.98
-144.5
-145.126
-143.044
-94.1852
-95.0015
-95.3631
-93.7553
-93.4534
-94.576
444.279
439.435
440.528
446.6
439.829
442.97
499.129
500.288
502.056
494.821
493.561
520.503
22.7355
26.1336
37.3799
1.70192
-20.8526
61.151
121.449
119.926
120.71
115.93
112.125
116.934
27.1154
27.1154
27.1154
27.1151
27.1149
27.1139
27.2931
27.2932
27.2933
27.2926
27.2928
27.2886
26.7994
26.8
26.8
26.7996
26.8037
26.7837
23.4658
23.4738
23.4637
23.4756
23.4899
23.4091
10.5251
10.5814
10.5008
10.5358
10.4724
10.3905
-31.0506
-30.9994
-31.0658
-31.2422
-31.4609
-30.9183
-84.7818
-84.8839
-84.7187
-84.6949
-84.4403
-84.0386
-82.8467
-82.8916
-82.6387
-82.395
-81.743
-81.896
-28.1256
-28.2869
-28.2864
-27.547
-27.4677
-28.7037
815.02
809.904
823.131
820.495
782.585
860.419
2045.38
2054.09
2130.65
1967.24
1866.16
2263.47
104.874
106.601
120.372
116.754
120.367
147.069
20.0239
20.0239
20.0236
20.0233
20.0229
20.0225
19.4031
19.403
19.4027
19.4021
19.4015
19.4001
17.4627
17.4628
17.4621
17.4614
17.4605
17.4557
12.4457
12.4478
12.4442
12.4441
12.4421
12.4285
1.35778
1.36943
1.35498
1.36077
1.34806
1.33408
-21.292
-21.2784
-21.2855
-21.3153
-21.3712
-21.2262
-45.9516
-45.9483
-45.8952
-45.8858
-45.8664
-45.6822
-51.3733
-51.3959
-51.3093
-51.1443
-50.9901
-50.977
-27.2815
-27.2672
-27.2336
-27.0084
-26.7558
-27.1401
-15.1341
-15.0038
-14.6247
-15.0918
-14.7373
-13.174
3596.86
3599.37
3643.01
3544.2
3395.57
3724.94
6351.9
6393.56
6233.8
6617.55
6695.09
6114.43
6.98134
6.98157
6.98195
6.98243
6.98273
6.98286
3.27864
3.27872
3.27887
3.27903
3.27905
3.27897
0.416907
0.416803
0.416732
0.416679
0.416662
0.416734
6.61141
6.61129
6.61126
6.61147
6.61167
6.61179
3.54392
3.54372
3.54359
3.54368
3.54376
3.54378
0.657278
0.65728
0.657284
0.657294
0.657309
0.65737
8.19589
8.19584
8.19558
8.19568
8.19591
8.19599
4.65084
4.65071
4.65048
4.65059
4.65075
4.65086
1.21344
1.2135
1.21352
1.21354
1.21352
1.21352
1.80674
1.80651
1.80622
1.80602
1.80569
1.80551
2.23748
2.23781
2.23739
2.23745
2.23741
2.2373
1.77198
1.77205
1.77197
1.77194
1.77186
1.77183
-16.2784
-16.2804
-16.2803
-16.2808
-16.2824
-16.281
-2.83497
-2.83287
-2.83388
-2.83388
-2.83361
-2.83304
2.48512
2.48555
2.48515
2.48516
2.48514
2.48527
1.77676
1.77605
1.7774
1.77945
1.78058
1.78223
2.69972
2.70186
2.70244
2.70211
2.70272
2.70411
1.67348
1.67406
1.67379
1.67331
1.67344
1.67461
-17.09
-17.0881
-17.0894
-17.0866
-17.0829
-17.0843
-27.8806
-27.8843
-27.8843
-27.8812
-27.8808
-27.885
-14.2966
-14.2998
-14.3007
-14.2997
-14.2999
-14.3035
-83.5906
-83.5901
-83.59
-83.5867
-83.5835
-83.5825
-72.5445
-72.5525
-72.5522
-72.5499
-72.55
-72.5526
-23.2141
-23.2191
-23.2189
-23.2194
-23.2188
-23.2209
-71.2476
-71.2495
-71.2484
-71.2459
-71.2436
-71.2404
-70.5475
-70.554
-70.5506
-70.5517
-70.5541
-70.5532
-13.0757
-13.0781
-13.0767
-13.0783
-13.0763
-13.0777
-43.2968
-43.287
-43.2888
-43.2861
-43.2811
-43.283
-38.1696
-38.1707
-38.1695
-38.1709
-38.1699
-38.1679
-11.6985
-11.6997
-11.6987
-11.7
-11.6981
-11.7023
-27.2459
-27.236
-27.2417
-27.2415
-27.2295
-27.2476
-19.0764
-19.0742
-19.0747
-19.0747
-19.074
-19.0733
-9.39806
-9.3955
-9.39657
-9.39676
-9.39635
-9.39749
-17.5345
-17.5345
-17.5445
-17.5651
-17.5241
-17.5731
3.37137
3.36978
3.36793
3.3687
3.36912
3.3713
-10.8645
-10.8665
-10.8684
-10.8711
-10.8714
-10.8646
17901.7
17901.5
17902.2
17900.6
17899.8
17903.4
7.22243
7.21949
7.25227
7.27315
7.29058
7.20094
-5.08639
-5.10014
-5.09628
-5.16535
-5.25298
-5.13502
17993.8
17994
17994.3
17993.6
17993.4
17994.9
5.40852
5.41263
5.4429
5.37859
5.33712
5.46497
-4.76854
-4.76577
-4.76398
-4.74599
-4.74729
-4.77065
18030.1
18030.4
18030.1
18031.1
18033
18028.4
162.894
162.666
162.302
165.525
170.771
156.736
-4.1973
-4.19835
-4.19102
-4.17517
-4.17301
-4.20976
17925.7
17926.9
17926.5
17928.8
17932.6
17923.6
0.869196
0.879155
0.87009
0.866766
0.929319
0.860687
-4.56476
-4.57823
-4.55529
-4.58413
-4.62876
-4.54977
16601.6
16604.7
16603.5
16613.6
16630.7
16586
3.06799
3.06437
3.05381
3.03507
3.07212
3.04935
-5.40268
-5.40679
-5.39956
-5.39977
-5.4142
-5.40265
12612
12610.2
12611.1
12616.5
12627.8
12601.6
0.72236
0.719599
0.717443
0.705568
0.706473
0.733898
-13.216
-13.2171
-13.2165
-13.2294
-13.2364
-13.2092
13.4866
13.4866
13.4864
13.486
13.4857
13.4855
7.70987
7.70986
7.70969
7.70944
7.70924
7.70911
2.45353
2.45349
2.45337
2.45323
2.45313
2.45308
12.7236
12.7235
12.7232
12.7228
12.7224
12.7219
7.17813
7.17808
7.1779
7.17765
7.17739
7.17717
2.26853
2.26849
2.2684
2.26828
2.26817
2.2681
10.8418
10.8416
10.8412
10.8406
10.8399
10.8387
6.00684
6.00682
6.00666
6.00639
6.00603
6.00561
1.89523
1.89527
1.89524
1.89515
1.89502
1.89489
7.11674
7.11694
7.1167
7.11679
7.11581
7.11276
3.8494
3.84964
3.84973
3.84983
3.84963
3.84893
1.18023
1.18035
1.18034
1.1803
1.18024
1.18015
0.580469
0.582724
0.583052
0.587064
0.585511
0.577564
0.497558
0.498608
0.499136
0.500026
0.499855
0.498381
0.20113
0.201334
0.20135
0.201354
0.201421
0.201402
-9.76479
-9.75674
-9.75661
-9.75021
-9.7583
-9.75358
-4.43321
-4.43035
-4.4297
-4.42763
-4.42798
-4.42737
-1.21549
-1.21505
-1.21495
-1.21491
-1.21487
-1.21392
-20.6209
-20.6097
-20.5916
-20.5724
-20.5649
-20.5397
-10.157
-10.1517
-10.1458
-10.1378
-10.1324
-10.1249
-2.55387
-2.55289
-2.55085
-2.54852
-2.54584
-2.54642
-22.6406
-22.6259
-22.5967
-22.492
-22.4373
-22.4901
-14.1617
-14.1507
-14.1353
-14.1145
-14.1012
-14.0811
-3.57679
-3.57413
-3.56903
-3.56312
-3.55784
-3.55904
-16.8133
-16.7997
-16.7958
-16.6684
-16.5161
-16.7465
-11.8882
-11.888
-11.8709
-11.8574
-11.8389
-11.8279
-2.98191
-2.97871
-2.96904
-2.95703
-2.92535
-2.97524
-15.1763
-15.1375
-15.0975
-15.07
-14.9798
-14.9113
-11.9249
-11.9202
-11.8926
-11.9086
-11.884
-11.8276
-3.49331
-3.49599
-3.48465
-3.47606
-3.4332
-3.48811
-7.1349
-6.70427
-9.7044
-4.14766
2.43255
-12.4814
-6.52103
-6.50504
-6.48714
-6.45765
-6.44717
-6.46991
-5.56811
-5.57025
-5.56264
-5.52146
-5.48021
-5.57441
10711
10711.6
10695.7
10711.7
10723.4
10698.4
2.17856
2.22143
2.23468
2.50281
2.56572
2.10694
-13.5236
-13.5697
-13.6037
-13.2488
-12.8462
-13.721
)
;

boundaryField
{
    seabed_topleft_surface
    {
        type            fixedFluxPressure;
        gradient        uniform 0;
        value           nonuniform List<scalar> 
72
(
4229.17
4229.2
4229.21
4229.2
4229.2
4229.21
4299.6
4299.62
4299.64
4299.62
4299.63
4299.65
4560.24
4560.25
4560.27
4560.25
4560.26
4560.29
5071.3
5071.3
5071.31
5071.3
5071.32
5071.35
6301.83
6301.85
6301.86
6301.86
6301.88
6301.9
8912.63
8912.63
8912.66
8912.68
8912.69
8912.73
13839.3
13839.2
13839.3
13839.3
13839.3
13839.3
18646.2
18646.2
18646.2
18646.2
18646.2
18646.2
22194.5
22194.7
22194.6
22194.6
22194.6
22194.5
25087.9
25088
25087.9
25087.9
25087.9
25087.9
28749.8
28749.6
28749.6
28749.7
28749.7
28749.8
30483.8
30483.7
30483.8
30483.8
30483.8
30483.9
)
;
    }
    seabed_topright_surface
    {
        type            fixedFluxPressure;
        gradient        uniform 0;
        value           nonuniform List<scalar> 
72
(
36.251
36.2514
36.252
36.2525
36.2529
36.2511
38.0962
38.0966
38.0984
38.0988
38.1014
38.0934
42.3292
42.3278
42.3369
42.3416
42.3726
42.3128
52.2022
52.193
52.2036
52.2599
52.3961
52.0676
59.2664
59.2907
59.2527
59.2661
59.3983
58.9393
46.2597
46.4483
46.3818
45.88
45.9224
46.0713
89.3496
89.3925
89.8215
88.9491
89.859
88.5347
509.693
506.683
505.963
510.055
504.5
497.293
1836.06
1831.7
1834.8
1844.39
1840.66
1833.32
966.254
961.802
961.894
961.589
953.345
964.901
217.173
216.947
217.062
216.664
215.183
217.073
183.83
183.425
182.824
182.081
181.448
181.509
)
;
    }
    breakwater_top_surface
    {
        type            fixedFluxPressure;
        gradient        uniform 0;
        value           nonuniform List<scalar> 
36
(
17901.7
17901.5
17902.2
17900.6
17899.8
17903.4
17993.8
17994
17994.3
17993.6
17993.4
17994.9
18030.1
18030.4
18030.1
18031.1
18033
18028.4
17925.7
17926.9
17926.5
17928.8
17932.6
17923.6
16601.6
16604.7
16603.5
16613.6
16630.7
16586
12612
12610.2
12611.1
12616.5
12627.8
12601.6
)
;
    }
    breakwater_left_surface
    {
        type            fixedFluxPressure;
        gradient        uniform 0;
        value           nonuniform List<scalar> 
24
(
30483.8
30483.7
30483.8
30483.8
30483.8
30483.9
29210.1
29209.9
29210
29210.1
29210.1
29210.2
25787.3
25787.1
25787.5
25788
25788.1
25788.3
5205.72
5204.44
5205.57
5206.07
5205.95
5207.06
)
;
    }
    breakwater_right_surface
    {
        type            fixedFluxPressure;
        gradient        uniform 0;
        value           nonuniform List<scalar> 
24
(
183.83
183.425
182.824
182.081
181.448
181.509
121.449
119.926
120.71
115.93
112.125
116.934
104.874
106.601
120.372
116.754
120.367
147.069
6351.9
6393.56
6233.8
6617.55
6695.09
6114.43
)
;
    }
    water_front_surface
    {
        type            fixedFluxPressure;
        gradient        uniform 0;
        value           nonuniform List<scalar> 
186
(
4229.17
4299.6
4560.24
5071.3
6301.83
8912.63
13839.3
18646.2
22194.5
25087.9
28749.8
30483.8
1.84163
7.69401
20.7903
70.6875
162.911
627.175
5204.24
15807.8
21876.1
23919.5
27479.6
29210.1
16.3892
16.2393
18.7472
12.9643
-5.69697
31.4812
142.79
5502.45
16851
23127.6
26660.6
25787.3
6.85043
6.54213
10.2495
5.57607
-13.1761
13.5124
43.594
1510.56
7067.06
8689.86
6442.08
5205.72
36.251
38.0962
42.3292
52.2022
59.2664
46.2597
89.3496
509.693
1836.06
966.254
217.173
183.83
33.3297
34.69
37.0444
40.8069
36.507
-24.8121
-143.966
-94.1852
444.279
499.129
22.7355
121.449
27.1154
27.2931
26.7994
23.4658
10.5251
-31.0506
-84.7818
-82.8467
-28.1256
815.02
2045.38
104.874
20.0239
19.4031
17.4627
12.4457
1.35778
-21.292
-45.9516
-51.3733
-27.2815
-15.1341
3596.86
6351.9
6.98134
3.27864
0.416907
6.61141
3.54392
0.657278
8.19589
4.65084
1.21344
1.80674
2.23748
1.77198
-16.2784
-2.83497
2.48512
1.77676
2.69972
1.67348
-17.09
-27.8806
-14.2966
-83.5906
-72.5445
-23.2141
-71.2476
-70.5475
-13.0757
-43.2968
-38.1696
-11.6985
-27.2459
-19.0764
-9.39806
-17.5345
3.37137
-10.8645
17901.7
7.22243
-5.08639
17993.8
5.40852
-4.76854
18030.1
162.894
-4.1973
17925.7
0.869196
-4.56476
16601.6
3.06799
-5.40268
12612
0.72236
-13.216
13.4866
7.70987
2.45353
12.7236
7.17813
2.26853
10.8418
6.00684
1.89523
7.11674
3.8494
1.18023
0.580469
0.497558
0.20113
-9.76479
-4.43321
-1.21549
-20.6209
-10.157
-2.55387
-22.6406
-14.1617
-3.57679
-16.8133
-11.8882
-2.98191
-15.1763
-11.9249
-3.49331
-7.1349
-6.52103
-5.56811
10711
2.17856
-13.5236
)
;
    }
    water_back_surface
    {
        type            fixedFluxPressure;
        gradient        uniform 0;
        value           nonuniform List<scalar> 
186
(
4229.21
4299.65
4560.29
5071.35
6301.9
8912.73
13839.3
18646.2
22194.5
25087.9
28749.8
30483.9
1.84281
7.69542
20.7926
70.6903
162.914
627.189
5204.05
15807.8
21876.3
23919.4
27479.4
29210.2
16.3916
16.2415
18.749
12.9651
-5.69958
31.4768
142.787
5502.54
16852.5
23128.2
26662.2
25788.3
6.85272
6.54333
10.2499
5.57512
-13.1853
13.5153
43.609
1511.01
7070.3
8695.13
6446.22
5207.06
36.2511
38.0934
42.3128
52.0676
58.9393
46.0713
88.5347
497.293
1833.32
964.901
217.073
181.509
33.3291
34.6852
37.022
40.6762
36.0864
-25.0876
-143.044
-94.576
442.97
520.503
61.151
116.934
27.1139
27.2886
26.7837
23.4091
10.3905
-30.9183
-84.0386
-81.896
-28.7037
860.419
2263.47
147.069
20.0225
19.4001
17.4557
12.4285
1.33408
-21.2262
-45.6822
-50.977
-27.1401
-13.174
3724.94
6114.43
6.98286
3.27897
0.416734
6.61179
3.54378
0.65737
8.19599
4.65086
1.21352
1.80551
2.2373
1.77183
-16.281
-2.83304
2.48527
1.78223
2.70411
1.67461
-17.0843
-27.885
-14.3035
-83.5825
-72.5526
-23.2209
-71.2404
-70.5532
-13.0777
-43.283
-38.1679
-11.7023
-27.2476
-19.0733
-9.39749
-17.5731
3.3713
-10.8646
17903.4
7.20094
-5.13502
17994.9
5.46497
-4.77065
18028.4
156.736
-4.20976
17923.6
0.860687
-4.54977
16586
3.04935
-5.40265
12601.6
0.733898
-13.2092
13.4855
7.70911
2.45308
12.7219
7.17717
2.2681
10.8387
6.00561
1.89489
7.11276
3.84893
1.18015
0.577564
0.498381
0.201402
-9.75358
-4.42737
-1.21392
-20.5397
-10.1249
-2.54642
-22.4901
-14.0811
-3.55904
-16.7465
-11.8279
-2.97524
-14.9113
-11.8276
-3.48811
-12.4814
-6.46991
-5.57441
10698.4
2.10694
-13.721
)
;
    }
    water_left_surface
    {
        type            fixedFluxPressure;
        gradient        uniform 0;
        value           nonuniform List<scalar> 
42
(
4229.17
4229.2
4229.21
4229.2
4229.2
4229.21
1.84163
1.84161
1.84168
1.84217
1.84269
1.84281
16.3892
16.3894
16.3898
16.3904
16.3911
16.3916
6.85043
6.85101
6.8514
6.85198
6.8526
6.85272
6.98134
6.98157
6.98195
6.98243
6.98273
6.98286
3.27864
3.27872
3.27887
3.27903
3.27905
3.27897
0.416907
0.416803
0.416732
0.416679
0.416662
0.416734
)
;
    }
    water_right_surface
    {
        type            fixedFluxPressure;
        gradient        uniform 0;
        value           nonuniform List<scalar> 
42
(
36.251
36.2514
36.252
36.2525
36.2529
36.2511
33.3297
33.3299
33.3303
33.3304
33.3305
33.3291
27.1154
27.1154
27.1154
27.1151
27.1149
27.1139
20.0239
20.0239
20.0236
20.0233
20.0229
20.0225
13.4866
13.4866
13.4864
13.486
13.4857
13.4855
7.70987
7.70986
7.70969
7.70944
7.70924
7.70911
2.45353
2.45349
2.45337
2.45323
2.45313
2.45308
)
;
    }
    water_top_surface
    {
        type            totalPressure;
        rho             rho;
        psi             none;
        gamma           1;
        p0              uniform 0;
        value           nonuniform List<scalar> 
180
(
-1.6856
-1.68604
-1.68622
-1.68644
-1.68661
-1.68627
-1.4364
-1.43645
-1.43641
-1.43648
-1.43659
-1.43632
-0.791731
-0.79163
-0.791536
-0.791592
-0.791778
-0.79182
-0.110877
-0.110895
-0.110882
-0.110882
-0.110895
-0.110812
0
0
0
0
0
0
0
0
0
0
0
0
0
0
0
0
0
0
0
0
0
0
0
0
0
0
0
0
0
0
-4.31189
-4.30378
-4.30861
-4.31088
-4.31073
-4.31611
-6.35222
-6.35221
-6.3526
-6.35698
-6.36496
-6.34416
-5.47914
-5.49351
-5.48681
-5.49024
-5.50668
-5.46858
-3.64295
-3.72499
-3.71388
-3.66852
-3.77291
-3.70769
-1.7473
-1.73324
-1.72136
-1.77379
-1.8079
-1.678
-1.74722
-1.76175
-1.73854
-1.83633
-1.95634
-1.64305
-8.23556
-8.29513
-8.16661
-8.48195
-8.84682
-7.83366
-9.39298
-9.4463
-9.35838
-9.52484
-9.78601
-9.12007
-5.92276
-5.9445
-5.92202
-5.96111
-6.02023
-5.85616
0
0
0
0
0
0
0
0
0
0
0
0
0
0
0
0
0
0
0
0
0
0
0
0
0
0
0
0
0
0
0
0
0
0
0
0
0
0
0
0
0
0
-0.0238535
-0.0234805
-0.0237843
-0.0237289
-0.0237197
-0.0236432
-0.0160071
-0.0160761
-0.0166384
-0.0151385
-0.0139182
-0.0181047
-6.22113
-6.23874
-6.22824
-6.20835
-6.1814
-6.23072
-6.95049
-7.00478
-7.00513
-6.93173
-6.98896
-6.9959
-1.45825
-1.42303
-1.48147
-1.31433
-0.949807
-1.55752
)
;
    }
}


// ************************************************************************* //
