/*--------------------------------*- C++ -*----------------------------------*\
| =========                 |                                                 |
| \\      /  F ield         | OpenFOAM: The Open Source CFD Toolbox           |
|  \\    /   O peration     | Version:  v1612+                                |
|   \\  /    A nd           | Web:      www.OpenFOAM.com                      |
|    \\/     M anipulation  |                                                 |
\*---------------------------------------------------------------------------*/
FoamFile
{
    version     2.0;
    format      ascii;
    class       surfaceScalarField;
    location    "5.95";
    object      phi;
}
// * * * * * * * * * * * * * * * * * * * * * * * * * * * * * * * * * * * * * //

dimensions      [0 3 -1 0 0 0 0];

internalField   nonuniform List<scalar> 
816
(
-3.85306e-06
-9.91187e-06
4.66127e-06
-5.38722e-06
-1.12569e-05
2.57879e-05
2.31648e-06
5.88208e-06
-2.05743e-06
1.1088e-05
-2.1161e-05
-8.46099e-06
5.05099e-09
5.79144e-06
7.71916e-06
-1.49805e-05
-1.52412e-06
8.52207e-06
1.21424e-05
-2.52027e-05
0.000432824
-0.000231455
-2.21535e-06
-0.000141606
0.000182666
0.000350258
-7.1394e-07
-6.69845e-05
8.86698e-05
5.28911e-06
2.62979e-05
-0.000127296
0.000359233
-1.95746e-05
-1.05753e-06
4.22074e-05
-8.32629e-05
-9.6319e-05
-6.74772e-07
0.000212307
-0.00016209
5.59454e-05
7.66626e-06
-1.59025e-05
-7.23119e-05
5.8921e-06
1.53663e-05
-0.000196806
0.000310016
0.000192653
-0.000168591
-0.000120173
0.000116459
0.000171483
-1.03944e-05
-0.000105257
0.000115114
6.67956e-05
1.10503e-06
-0.000113806
0.000205974
-0.000258052
1.92541e-06
-5.04751e-05
-7.77644e-05
5.16185e-06
-0.000172801
-9.99011e-05
6.2955e-06
3.55663e-06
-2.59785e-05
8.83607e-07
5.72358e-06
1.35578e-05
-2.24818e-05
6.57573e-06
1.18054e-05
4.90163e-06
1.56873e-06
1.70951e-06
2.25318e-05
-2.46397e-06
1.08278e-05
-7.79791e-06
-1.51628e-06
1.58086e-06
-1.3894e-06
1.92536e-06
-4.34463e-06
1.1112e-06
-2.18066e-05
8.86332e-06
1.72519e-05
7.59032e-06
-1.40346e-05
4.78124e-06
1.5776e-05
1.25817e-05
1.63731e-05
-1.23111e-05
5.79268e-06
4.52622e-06
-3.52113e-05
4.2837e-06
2.37679e-05
1.88949e-05
-2.80303e-05
7.97016e-06
7.03535e-06
3.33546e-06
2.34877e-05
5.17333e-06
-1.23515e-05
-1.57592e-05
8.79949e-06
2.90929e-06
-7.88049e-06
-5.0674e-08
-1.28393e-05
-6.05596e-07
-1.21264e-05
-1.01407e-05
-2.13272e-06
1.67945e-06
1.05128e-06
-1.34299e-06
-1.19516e-05
2.55921e-06
4.72242e-06
3.07663e-06
-3.06554e-07
-7.34011e-07
8.3804e-07
-3.01887e-06
-1.07319e-05
-1.27408e-06
-7.20246e-06
-2.31647e-06
-6.87484e-06
6.9165e-07
-7.41634e-07
8.1274e-06
6.97319e-06
-2.50117e-06
-1.577e-05
-7.91988e-06
-9.79733e-06
-1.04029e-05
-1.2913e-05
-1.45319e-06
-3.90608e-07
1.01705e-05
-2.09144e-06
-7.61807e-06
-4.699e-06
-3.89642e-06
-3.18907e-06
-6.06517e-06
3.24641e-06
-2.0441e-06
-3.20958e-06
1.37163e-06
4.31076e-06
-1.54778e-06
3.80123e-06
-4.61903e-06
5.11277e-07
4.01368e-06
1.78281e-06
-8.02579e-07
5.18939e-06
4.51997e-06
-4.74734e-06
-1.16834e-07
-4.98991e-07
-4.25177e-06
-7.84138e-06
-1.10432e-06
-1.61719e-06
9.57545e-07
-9.79154e-07
-7.07605e-06
3.25529e-07
2.40873e-06
1.67139e-06
8.15113e-08
8.55221e-07
4.84819e-07
-3.97948e-07
-1.99568e-06
-1.05002e-06
-3.72691e-06
-3.10639e-06
-1.81828e-06
4.64918e-07
-2.314e-06
-4.03865e-08
5.17734e-06
1.69364e-06
-1.13422e-06
-4.54234e-06
-5.53746e-06
-4.58947e-06
-5.72773e-06
-5.03128e-07
-3.81378e-06
1.07703e-08
-6.55792e-07
3.05997e-06
-2.65639e-06
-2.43344e-06
-2.66108e-06
-2.55374e-05
1.60308e-05
0.000274429
-0.000169153
0.000283574
-1.15488e-06
-8.19413e-05
0.000140969
-1.27725e-06
6.25746e-06
0.000120989
0.000299352
-4.18802e-05
0.000213517
1.97007e-05
-0.000223842
-0.000280577
-2.90012e-05
2.10635e-05
-9.52395e-05
-0.000213492
8.04058e-06
-0.000268424
-0.00055882
3.31653e-06
-0.000205701
-0.000385433
-2.21984e-06
-0.000122686
0.00010967
5.91224e-06
-0.000170966
-0.000288352
-4.4042e-05
1.44661e-06
-0.000221664
-0.000212363
1.68452e-06
-0.000459859
-0.000115547
6.09972e-06
-0.000208032
-0.000169327
1.87674e-05
-0.000295051
0.000412623
-7.81199e-07
-0.000455048
-0.000251916
6.25099e-05
-3.03405e-07
1.36904e-05
-0.000207382
-4.58109e-06
-0.000245609
-0.000138055
1.06658e-05
-9.80554e-05
-0.000111575
6.23648e-06
-0.000151367
2.14327e-05
-0.000220007
-0.000153067
-1.35676e-05
-1.18918e-06
1.38277e-05
6.6786e-06
-2.61117e-06
-1.7306e-05
-4.80122e-06
1.24813e-06
-1.31053e-05
1.57794e-05
-1.28684e-06
4.01268e-06
1.05433e-05
1.50801e-05
3.60417e-05
-1.80586e-05
-2.15467e-05
1.73725e-06
4.49802e-05
-7.21452e-07
-5.65427e-06
3.13821e-05
-2.4624e-05
-2.5512e-05
5.29375e-05
-3.17645e-05
-1.80334e-05
-3.30418e-06
-2.34148e-06
1.03653e-05
-1.79686e-05
1.21595e-06
-1.4203e-05
-5.07426e-06
2.60142e-05
1.40752e-06
-2.09212e-05
3.71875e-05
-1.51794e-05
5.75866e-06
-3.11882e-05
-9.3588e-07
8.22319e-06
2.95518e-05
-1.79833e-05
2.1106e-05
1.56591e-05
-2.56663e-05
-4.05786e-06
1.47034e-06
2.17587e-05
1.54823e-05
-1.68913e-05
3.15458e-05
-1.47804e-05
-7.7127e-06
1.07911e-05
-6.65445e-06
7.47844e-07
1.61365e-07
-3.85276e-06
2.38668e-05
-8.46091e-06
-2.02971e-05
5.40553e-06
2.13173e-06
6.42805e-06
-4.84692e-06
-3.15588e-06
-8.36954e-06
-9.82808e-07
-5.54779e-06
-5.34873e-06
-7.52924e-06
-2.23751e-06
2.05991e-06
-2.74213e-06
-5.90544e-06
1.65554e-05
1.17487e-05
1.14188e-05
2.05172e-06
2.01303e-05
4.94022e-06
6.28825e-06
1.42065e-05
1.60437e-05
1.63809e-05
2.42009e-05
1.94485e-05
1.05222e-05
-1.53954e-06
2.82467e-06
-7.15375e-06
-8.19938e-06
1.39764e-06
6.42348e-06
3.0008e-09
1.18062e-05
-8.81244e-08
9.62523e-06
1.69671e-05
1.12405e-05
-2.30899e-06
-1.42382e-05
1.97884e-06
-4.28017e-07
1.31194e-05
6.67636e-06
-7.40933e-06
6.8978e-06
1.01076e-05
5.62902e-06
-1.05353e-06
1.00685e-05
-4.4611e-06
6.00837e-06
1.44166e-05
8.60978e-06
6.10283e-06
4.85483e-06
3.78783e-06
3.16499e-06
1.52468e-07
-9.85285e-07
1.03554e-05
7.53818e-06
1.12869e-05
2.99955e-06
1.23986e-06
2.17101e-06
-2.56806e-06
-2.2296e-06
-2.74391e-06
-8.52579e-07
-4.04306e-06
1.84416e-07
-4.87131e-06
-1.2135e-06
3.26802e-07
-2.00512e-06
-3.08827e-06
5.13891e-06
6.29273e-06
7.02691e-06
8.87692e-07
7.41126e-06
1.70158e-06
3.74368e-06
4.70505e-06
8.32936e-06
9.83642e-06
7.79219e-06
1.08087e-05
6.57684e-06
-7.18928e-07
1.38576e-06
-4.31843e-06
-1.31383e-06
3.53481e-07
3.60743e-06
9.46065e-08
3.42115e-06
2.23847e-07
5.73166e-06
5.52276e-06
6.26777e-06
-1.41941e-06
-3.29644e-06
1.38683e-06
-1.89763e-07
3.94104e-06
3.40848e-06
-4.6089e-06
1.93123e-06
5.82695e-06
3.56901e-06
-6.95365e-07
3.69319e-06
-3.09862e-06
3.64931e-06
4.30801e-06
5.26995e-06
3.12847e-06
2.03348e-06
2.71167e-06
1.70683e-06
-2.18807e-07
-5.77453e-07
2.32068e-06
4.52801e-06
6.45844e-06
-1.41384e-06
-2.69965e-06
1.75702e-06
-8.33658e-07
1.63383e-06
7.70796e-07
-2.71721e-08
-3.2555e-06
1.61596e-08
2.32457e-06
-7.9128e-07
3.69988e-06
-3.83618e-06
1.07891e-06
2.95094e-07
-3.69658e-06
-9.60699e-07
7.79006e-07
-3.39638e-07
-3.78628e-06
5.08965e-07
3.95666e-07
7.47699e-08
-7.47246e-07
-1.02177e-06
-2.27319e-07
-1.75975e-06
-4.60112e-07
8.34943e-07
-2.93268e-07
1.53857e-06
-1.28762e-06
-1.07544e-06
-2.51807e-06
-3.06369e-06
2.82523e-07
-2.85845e-07
-5.22287e-07
-1.77796e-06
-8.39938e-08
4.66172e-07
1.24195e-06
-1.25473e-06
-2.04377e-06
1.0253e-07
-1.26157e-06
-1.55417e-06
-6.96149e-07
-5.54941e-07
-1.10969e-06
2.24699e-06
3.33924e-06
1.28274e-06
1.30701e-06
2.47631e-06
3.93188e-06
5.34131e-06
4.19699e-06
3.06025e-06
1.34461e-06
-1.27116e-06
5.31949e-07
2.48092e-06
2.5842e-07
1.42512e-07
3.01829e-06
3.59954e-06
3.00203e-07
9.54111e-07
6.19244e-07
2.52686e-06
-2.19803e-06
2.84722e-06
1.91385e-06
-2.84114e-07
-7.12066e-07
1.63473e-06
2.67633e-06
2.17192e-06
1.00789e-06
1.37139e-06
5.58954e-07
2.17059e-06
2.80216e-06
7.23534e-05
2.20416e-05
1.0346e-06
0.000238975
1.52591e-05
0.000398407
1.07035e-05
0.000180085
5.10603e-07
-2.38769e-05
-8.95889e-07
-0.000352675
-2.81697e-06
0.000279052
2.34028e-05
0.000280429
4.19021e-06
-4.90332e-05
-5.91221e-06
-0.000124514
-2.87247e-06
-0.000253271
-1.82866e-06
-0.000145475
1.57928e-06
-8.14433e-05
-8.0178e-07
-1.28051e-05
3.78668e-06
-6.3243e-05
1.13743e-05
-4.89231e-05
2.46288e-06
-6.2603e-06
-1.37983e-06
-6.14452e-05
-2.1922e-06
-0.000286198
1.66236e-05
-0.000205705
1.42271e-05
0.000431793
-8.42179e-07
0.000376456
-5.1935e-07
6.49933e-05
-7.7722e-06
-0.000100321
-2.64742e-06
-0.00011881
3.97693e-06
-0.000160553
3.08795e-05
-2.27047e-05
1.52447e-05
-4.42421e-08
5.40556e-06
-1.17264e-05
-1.46283e-05
-2.3215e-06
1.81446e-05
1.27591e-05
-9.76864e-06
-2.50375e-06
2.74783e-05
-2.15505e-05
2.09906e-05
-2.96136e-05
-1.29397e-05
2.07428e-05
-3.22125e-05
1.91878e-05
-1.62097e-05
-1.5436e-05
1.84049e-05
-6.81818e-06
-3.618e-05
1.35754e-05
-5.74996e-05
2.22367e-05
-1.07211e-05
4.91144e-06
5.17044e-06
-1.15675e-05
1.86168e-05
-1.18871e-06
-2.01849e-05
-3.18536e-06
9.87314e-07
-9.08178e-06
-1.99425e-05
-5.44614e-06
-7.97683e-06
-1.95785e-06
-8.1101e-06
-3.58324e-06
-1.28527e-05
2.96364e-05
-3.63743e-05
1.44302e-05
5.3116e-06
-1.39287e-05
2.51889e-05
-4.32869e-06
-2.78977e-05
-3.95043e-06
-1.68776e-06
-6.27357e-06
1.07017e-05
-1.45529e-06
-2.59811e-05
-2.17864e-05
-7.96496e-06
8.46258e-06
-7.63778e-06
-2.25818e-06
7.62526e-06
-8.2078e-06
-4.73819e-06
-1.05641e-06
1.27338e-05
6.98979e-06
1.01675e-05
9.99502e-06
-4.20141e-06
-6.63385e-06
-1.55019e-05
-2.86082e-06
-8.55053e-06
1.11164e-05
9.36371e-06
5.64803e-06
-1.46498e-05
-7.50962e-06
-2.48887e-05
-9.35653e-06
-6.03376e-06
-5.1498e-06
2.35292e-06
5.23518e-06
8.24874e-06
1.19139e-06
-9.70311e-06
1.63955e-06
2.74336e-07
2.28317e-06
-9.34889e-06
2.11338e-07
-3.93108e-06
2.71929e-06
-3.91219e-06
5.77232e-06
-5.75147e-06
-1.37252e-05
-1.68736e-05
-4.08252e-06
1.26472e-06
4.33814e-06
1.22789e-05
-2.05472e-06
-1.28801e-05
1.43654e-06
-1.27249e-06
7.14771e-06
4.03948e-06
4.24883e-06
-1.17552e-05
-9.04165e-06
-4.28318e-06
3.80346e-06
-2.62098e-06
-1.95234e-06
2.7686e-06
-5.26739e-06
-2.24679e-06
-1.31104e-06
3.89269e-06
4.49551e-06
2.36586e-06
6.72151e-06
-6.17859e-08
-4.36411e-06
-4.36068e-06
-2.97072e-06
-2.88676e-06
5.84036e-06
2.25956e-06
4.41734e-06
-4.88586e-06
-3.33933e-06
-6.31249e-06
-5.02987e-06
-2.95379e-06
-3.0084e-06
6.82339e-07
3.48183e-06
1.74797e-06
5.914e-07
-3.22e-06
9.67184e-07
2.10551e-07
1.04342e-06
-3.16143e-06
8.62205e-08
-1.5995e-06
1.85413e-06
-2.26208e-06
3.65201e-06
-1.70575e-06
-7.69606e-06
-5.47376e-06
-3.08773e-06
1.93892e-07
3.24009e-06
2.82357e-06
-4.96986e-07
-3.89425e-06
4.60664e-07
4.37686e-07
3.68214e-06
2.09386e-07
1.70197e-06
-3.29009e-06
-3.48337e-06
-2.80383e-06
2.37746e-06
-1.26381e-06
-3.37906e-06
-1.02206e-06
7.96118e-07
2.92447e-06
-1.42826e-06
-9.25387e-07
2.66903e-06
1.73965e-06
-3.73734e-07
-1.98674e-06
-7.68849e-07
9.84361e-07
2.5492e-07
6.08286e-07
1.05446e-06
4.18982e-07
6.69323e-07
1.74123e-06
-3.73577e-06
-1.59613e-06
5.19959e-07
-6.9306e-07
7.84674e-07
1.57451e-06
1.10147e-06
9.58385e-05
0.000196753
8.9615e-07
-0.000125825
-4.97408e-06
0.000254773
-5.04578e-06
3.34741e-05
6.09661e-06
1.53717e-05
-9.48634e-06
8.48066e-06
)
;

boundaryField
{
    top_fluid_surface
    {
        type            calculated;
        value           nonuniform List<scalar> 
64
(
-0.000195537
5.48781e-05
5.62782e-05
5.88151e-05
2.44925e-05
-9.50659e-05
-0.000148866
0.000194282
3.32086e-05
-1.88839e-05
0.00044364
-0.000209151
-0.000244545
-0.000351354
6.77794e-05
-0.000256109
0.000314201
0.000650192
0.000477429
0.000737833
-2.89635e-05
-4.37792e-05
0.000275936
0.00042768
-8.68325e-05
0.000222719
0.000120491
0.000448387
0.000450865
-5.82489e-05
1.00776e-06
0.000186957
-0.000260893
-0.000417535
-0.000240865
0.00023463
0.000139626
0.00012535
-0.000676265
-0.000287962
0.000297754
-0.000192359
-5.95409e-05
-0.000236617
-0.0002446
-7.69246e-05
-0.000305208
-0.000234401
-0.000464701
-0.000132755
-0.000112609
-0.000571064
-0.000628491
-0.000191939
0.000388398
-8.49749e-05
-6.77765e-05
-0.000211081
-0.000215772
-3.75628e-05
-0.0002015
0.000258065
0.000230422
0.000231429
)
;
    }
    bottom_fluid_surface
    {
        type            calculated;
        value           uniform 0;
    }
    lateral_surface_1
    {
        type            calculated;
        value           uniform 0;
    }
    lateral_surface_2
    {
        type            calculated;
        value           uniform 0;
    }
    lateral_surface_3
    {
        type            calculated;
        value           uniform 0;
    }
    lateral_surface_4
    {
        type            calculated;
        value           uniform 0;
    }
}


// ************************************************************************* //
