/*--------------------------------*- C++ -*----------------------------------*\
| =========                 |                                                 |
| \\      /  F ield         | OpenFOAM: The Open Source CFD Toolbox           |
|  \\    /   O peration     | Version:  v1612+                                |
|   \\  /    A nd           | Web:      www.OpenFOAM.com                      |
|    \\/     M anipulation  |                                                 |
\*---------------------------------------------------------------------------*/
FoamFile
{
    version     2.0;
    format      ascii;
    class       volVectorField;
    location    "5.5";
    object      U;
}
// * * * * * * * * * * * * * * * * * * * * * * * * * * * * * * * * * * * * * //

dimensions      [0 1 -1 0 0 0 0];

internalField   nonuniform List<vector> 
320
(
(-6.06207e-06 -1.12781e-05 1.39153e-05)
(-4.89609e-06 -9.2114e-06 -2.38617e-05)
(-1.54193e-05 -6.94882e-06 -1.63454e-05)
(2.62802e-06 1.56916e-05 -1.51588e-05)
(0.000235082 -0.000179662 2.60522e-05)
(-3.37094e-05 -0.000173095 3.68135e-05)
(9.40366e-05 -4.71962e-05 1.93439e-05)
(-7.61127e-05 2.81031e-05 -9.46335e-05)
(0.00018254 0.000116146 -9.86268e-05)
(7.87371e-05 0.000238125 -0.000159812)
(-6.4568e-05 4.5665e-06 -0.000211844)
(-0.000192494 -0.000131377 -9.39839e-05)
(-0.000448291 -8.85139e-06 -3.67739e-05)
(-0.000381139 -0.000350568 -1.59582e-05)
(-0.000508162 1.20811e-05 0.000199566)
(-0.000141105 8.57133e-06 -9.32497e-05)
(6.52364e-06 -2.06529e-06 2.66955e-05)
(1.53959e-05 -1.91668e-06 2.52808e-05)
(1.98464e-05 -1.73747e-06 7.71699e-06)
(1.05013e-06 -9.52615e-08 -1.32734e-05)
(9.37744e-06 -5.29022e-06 -1.37582e-06)
(5.15265e-06 1.08041e-05 2.63547e-05)
(-1.14672e-05 3.40265e-06 1.89519e-05)
(4.92659e-06 -1.42251e-05 -1.69921e-05)
(-1.56629e-05 2.03156e-05 3.64688e-05)
(-1.14157e-05 -2.70167e-05 2.7657e-05)
(-2.64944e-05 -6.8558e-06 -2.25648e-05)
(-1.86692e-05 -5.585e-06 8.62218e-06)
(-3.43019e-06 -7.4646e-07 1.45715e-05)
(-7.64752e-06 -7.75696e-06 2.14142e-05)
(-1.55528e-05 -6.75416e-07 5.44252e-06)
(1.90872e-06 -1.00239e-06 -1.41315e-05)
(-6.64688e-06 6.5082e-06 -8.0401e-07)
(-2.80874e-06 -2.10716e-06 1.55329e-05)
(8.55976e-06 3.07493e-06 1.09989e-05)
(-4.40862e-06 1.04489e-05 -1.56435e-05)
(3.28121e-06 -7.51304e-06 2.2761e-05)
(1.68241e-06 1.40378e-05 1.70797e-05)
(7.68503e-06 2.77507e-06 -1.20104e-05)
(3.78224e-06 -9.07629e-07 6.95342e-06)
(-3.30192e-06 -6.29947e-06 3.63515e-06)
(-3.31152e-06 -5.00468e-06 -7.37374e-06)
(-8.5549e-06 -3.37027e-06 -3.48648e-06)
(9.96337e-07 8.87395e-06 -6.96588e-06)
(-1.78809e-06 -1.37523e-08 5.00301e-06)
(-4.83282e-06 -4.06464e-06 1.11033e-06)
(-8.89632e-06 -7.25707e-07 3.34071e-07)
(3.34624e-07 -4.70374e-07 -2.70685e-07)
(-4.17394e-06 4.6933e-06 -4.96528e-07)
(-2.28795e-06 -1.26808e-06 4.22373e-06)
(4.75202e-06 1.20167e-06 2.50295e-06)
(-2.49334e-06 6.75774e-06 -2.3735e-06)
(1.72942e-06 -4.28347e-06 5.54253e-06)
(8.9107e-07 8.06512e-06 3.34055e-06)
(3.99011e-06 1.76213e-06 -3.60752e-06)
(1.81254e-06 7.02037e-08 1.63085e-06)
(-0.000493508 -0.000123015 5.51648e-05)
(-7.24602e-05 0.00013554 -4.20951e-05)
(-0.000175907 4.42592e-05 3.08032e-05)
(-0.000195071 0.000235027 -0.000101351)
(0.000112834 0.000511606 7.02283e-05)
(0.000236809 -5.40599e-05 0.000271295)
(3.52585e-05 9.78973e-05 0.0001356)
(0.000251957 -0.000136517 0.000307184)
(0.000228301 -0.000235677 -0.000102019)
(4.38749e-05 0.000205846 7.72289e-05)
(-5.81841e-05 0.000327167 0.000245897)
(0.000416757 0.000198159 0.000222344)
(0.000245939 7.59026e-06 -0.000230696)
(-0.000299853 -0.000190804 8.88141e-05)
(6.33437e-05 -0.000520317 0.000106402)
(-0.000235201 -0.000213413 0.000204449)
(1.08272e-05 7.92635e-05 0.000218574)
(2.44346e-05 0.000188101 -3.98803e-05)
(6.78743e-05 -0.000165072 -2.89676e-05)
(0.000129769 -6.59312e-06 0.000246681)
(-1.90899e-05 -2.17602e-05 -1.68999e-05)
(-6.57051e-06 -7.66472e-06 1.30429e-05)
(3.35777e-06 -1.50612e-05 1.61328e-05)
(3.11266e-06 7.77685e-07 7.49836e-07)
(-7.30999e-06 2.34223e-05 -3.16524e-05)
(2.02665e-06 -3.97994e-06 -4.95872e-05)
(-1.14994e-05 1.80967e-06 -2.89199e-05)
(-1.6393e-05 -1.50875e-05 -6.57785e-05)
(1.66464e-06 -2.39204e-05 -1.55198e-06)
(-2.11467e-06 -2.44189e-06 1.99477e-05)
(-1.79457e-05 1.72722e-05 -2.28113e-05)
(2.23219e-05 3.19961e-07 -3.90804e-05)
(8.74417e-06 -5.31896e-06 3.59626e-05)
(-1.99489e-05 3.73291e-06 -2.57871e-05)
(8.84098e-06 -1.3906e-05 -1.03493e-05)
(-2.25423e-05 -5.6924e-06 -2.4183e-05)
(1.00707e-06 -9.66202e-07 -3.61858e-05)
(7.0554e-06 1.07578e-05 -1.1219e-05)
(-5.86528e-06 5.33986e-06 3.81778e-06)
(2.4767e-05 1.22965e-05 -2.36294e-05)
(7.13835e-06 7.54383e-06 -5.4974e-06)
(7.8698e-07 -1.16267e-06 6.9026e-06)
(-4.96747e-06 8.34789e-06 1.5733e-05)
(-6.40346e-06 3.0678e-06 -2.01629e-06)
(3.23978e-06 -1.29662e-05 -1.98423e-05)
(-7.90793e-06 5.56736e-07 -2.5175e-05)
(6.18363e-06 -3.0492e-07 -1.95829e-05)
(6.76144e-06 1.09754e-05 -3.64784e-05)
(-6.10066e-07 1.94409e-05 -1.49443e-06)
(9.88433e-07 8.30616e-06 1.71259e-05)
(9.71924e-06 -4.60626e-06 -1.51968e-05)
(-9.92861e-06 2.98566e-06 -2.03367e-05)
(-4.82936e-06 6.50421e-06 2.31568e-05)
(5.72787e-06 3.97418e-07 -1.44657e-05)
(-6.00876e-06 1.15845e-05 -6.0208e-06)
(1.15468e-05 6.4042e-06 -1.45448e-05)
(-3.25751e-06 -2.54599e-06 -2.30086e-05)
(-6.7988e-06 -9.17901e-06 -3.68e-06)
(-1.60742e-06 -1.29345e-06 3.76063e-06)
(-1.05351e-05 -2.0083e-06 -1.58809e-05)
(3.93478e-06 5.11946e-06 -2.6695e-06)
(8.32937e-07 2.75529e-07 3.63315e-06)
(-2.59955e-06 5.23875e-06 -5.29466e-07)
(-3.96126e-06 1.97329e-06 5.42157e-07)
(2.11702e-06 -7.37792e-06 -6.01375e-06)
(-4.81087e-06 2.31251e-07 -1.05476e-05)
(3.09096e-06 -2.82177e-07 -5.98217e-06)
(3.97309e-06 6.25143e-06 -1.17794e-05)
(-1.28461e-06 1.10842e-05 3.86475e-07)
(-1.10711e-07 4.73977e-06 1.68994e-06)
(5.70867e-06 -2.72988e-06 -3.3946e-06)
(-7.02963e-06 1.39137e-06 -6.24172e-06)
(-3.06957e-06 4.17853e-06 3.82272e-06)
(3.83689e-06 5.19913e-07 -3.74975e-06)
(-2.94996e-06 7.13155e-06 -1.17144e-06)
(7.0962e-06 3.81196e-06 -4.55387e-06)
(-1.53656e-06 -1.10957e-06 -5.30601e-06)
(-4.10998e-06 -5.37813e-06 -2.0438e-06)
(-9.90725e-07 -6.91236e-08 1.21967e-06)
(-6.40909e-06 -3.79049e-07 -1.99351e-06)
(-2.51504e-06 -3.00437e-06 1.10974e-06)
(-8.40642e-07 -1.25402e-06 -1.92722e-06)
(-5.12355e-06 -1.03656e-06 -1.40786e-06)
(-5.83216e-07 5.29691e-06 -1.41677e-06)
(-2.83264e-06 -5.07229e-07 1.99714e-06)
(-3.32638e-06 -5.55764e-07 2.35144e-06)
(-4.01185e-06 2.94446e-07 2.92315e-07)
(2.6274e-07 -2.61208e-07 -1.29603e-06)
(-2.1601e-06 1.59438e-06 4.18838e-08)
(-8.63346e-07 1.42604e-07 1.5243e-06)
(1.7903e-06 1.94687e-06 1.36751e-06)
(-1.6915e-06 2.7149e-06 -1.27597e-06)
(1.08495e-06 -7.09524e-07 2.27859e-06)
(-1.51772e-07 4.47336e-06 2.0446e-06)
(2.00712e-06 1.0369e-06 -1.04615e-06)
(4.72051e-07 6.799e-07 1.22896e-06)
(1.79532e-06 2.68618e-06 -8.38507e-07)
(-1.27937e-06 -6.3393e-07 3.82582e-07)
(-1.64232e-06 1.77883e-06 1.37097e-06)
(-8.60742e-07 -3.33936e-07 -4.02922e-07)
(-1.32408e-07 -3.42897e-06 -1.68919e-06)
(-2.81586e-06 5.67717e-07 -2.58266e-06)
(1.55606e-07 5.9774e-07 -2.02397e-06)
(2.33032e-07 4.17082e-06 -3.65496e-06)
(-5.03563e-07 5.71324e-06 -1.78038e-07)
(-2.9284e-07 2.36431e-06 1.55233e-06)
(1.60629e-06 -1.17029e-06 -1.70184e-06)
(-3.15551e-06 1.40465e-06 -2.4362e-06)
(-2.46716e-06 1.94015e-06 2.36315e-06)
(6.46386e-07 1.36481e-06 -1.74748e-06)
(-2.0546e-06 3.80892e-06 -7.45092e-07)
(2.30175e-06 1.91674e-06 -1.95926e-06)
(-1.66838e-06 -1.14397e-07 -2.51674e-06)
(-2.1238e-06 -2.38055e-06 -9.60302e-07)
(-1.83154e-06 -7.19037e-07 2.66762e-07)
(-3.75363e-06 -3.06624e-07 -1.86614e-06)
(0.000222058 0.000163452 1.24171e-05)
(-0.000282741 2.90726e-06 0.000104828)
(6.94081e-05 -4.6395e-05 -6.64046e-05)
(-0.000132394 -0.000139396 0.000173626)
(-0.000370996 -8.93752e-05 -9.81336e-05)
(8.58421e-06 3.71629e-05 -0.000134003)
(-0.000401952 1.45028e-05 -0.000245868)
(-0.000426953 0.000461478 -4.63981e-05)
(-0.000452013 -0.000124084 5.51746e-05)
(-0.000495329 4.44608e-05 -0.000281987)
(-0.000505744 0.00030999 -7.46351e-05)
(-5.28177e-05 3.14049e-05 5.27076e-05)
(-0.000237785 0.000212658 -5.81061e-06)
(-4.542e-05 -0.00012323 7.26093e-05)
(0.000116016 -0.000316845 -7.55608e-06)
(8.70796e-05 -0.000195031 7.89902e-05)
(0.0002542 -0.000460661 -4.19863e-05)
(0.000195675 -3.42306e-05 -6.05812e-05)
(7.78279e-05 -0.000410526 -0.000206943)
(1.6783e-05 -0.000409849 -0.00033471)
(-0.000194467 -0.000363513 -0.000174317)
(-0.000148457 -0.000441901 0.000142857)
(-0.000117095 -6.13507e-05 0.000179197)
(3.06579e-06 -9.16545e-05 3.16902e-05)
(-0.000288827 6.95896e-05 0.000138726)
(-0.00011666 0.000111744 5.65132e-05)
(-1.04792e-05 3.32793e-05 -6.20507e-05)
(-7.66441e-05 9.73767e-05 -9.76934e-05)
(3.34528e-05 1.67387e-05 8.95195e-06)
(1.29038e-06 -1.73231e-06 -2.36676e-05)
(-1.75594e-07 -3.64117e-06 2.01518e-05)
(6.95342e-06 -8.12885e-06 -3.22455e-05)
(-1.86374e-05 -7.23756e-06 -2.58429e-05)
(-1.32943e-05 1.36196e-05 1.10368e-05)
(-1.72193e-05 -1.25116e-06 4.44541e-05)
(-3.20897e-05 1.60961e-05 2.24454e-05)
(-2.45473e-05 -5.92853e-06 -3.04059e-05)
(-3.40389e-05 -1.85119e-05 3.87058e-05)
(-4.48617e-05 7.87109e-06 5.84249e-05)
(-1.10828e-05 2.50802e-05 1.42947e-05)
(4.13301e-06 2.27963e-05 -1.97044e-05)
(1.41535e-05 8.19406e-07 -1.88096e-05)
(7.18465e-06 -9.19718e-06 3.02208e-05)
(2.38934e-06 -8.48025e-06 6.37494e-07)
(1.1123e-05 -2.95329e-05 1.83518e-05)
(1.5141e-06 2.71823e-06 9.49786e-06)
(-7.07618e-06 -2.2301e-05 1.74042e-05)
(2.22407e-06 -1.01541e-05 1.6635e-05)
(9.04912e-06 -1.56845e-05 4.34145e-05)
(3.51917e-06 -2.1035e-05 -8.97589e-06)
(1.92256e-06 1.24815e-05 -3.42509e-05)
(2.16922e-05 2.57831e-06 3.06632e-05)
(5.46915e-06 -1.37273e-05 6.53381e-06)
(-2.79064e-06 1.21292e-05 -2.41363e-06)
(1.22567e-05 1.7558e-05 2.53525e-05)
(2.47168e-06 6.95302e-06 1.18672e-05)
(-9.92171e-06 -6.2072e-06 4.16927e-06)
(2.93795e-06 1.32648e-06 -8.39405e-06)
(-4.23516e-06 -2.00753e-06 1.10007e-05)
(-1.18778e-05 6.34938e-06 -1.72078e-05)
(5.76052e-06 4.90362e-06 -2.13402e-05)
(1.07025e-05 -5.81453e-06 7.84302e-06)
(1.16386e-05 -2.55898e-06 2.8788e-05)
(1.48942e-05 -1.55409e-05 1.20962e-05)
(9.06472e-06 2.26874e-06 -2.35633e-05)
(1.66062e-05 1.36677e-05 1.38576e-05)
(2.30353e-05 -2.84723e-07 3.44247e-05)
(5.3474e-06 -7.88253e-06 5.38495e-06)
(-4.28593e-06 -6.07563e-06 -1.03981e-05)
(-9.03178e-06 3.10555e-06 -1.03175e-05)
(-2.07869e-06 7.8497e-06 2.04962e-05)
(2.51091e-06 6.17236e-06 1.81586e-06)
(-2.54989e-06 1.50574e-05 1.10768e-05)
(-1.82011e-06 -1.20612e-06 4.10531e-06)
(-1.79911e-06 1.20481e-05 8.74532e-06)
(-5.13415e-06 6.32032e-06 1.2243e-05)
(-7.04787e-06 1.11739e-05 2.79453e-05)
(-2.1946e-06 1.70785e-05 -4.46868e-06)
(-1.55456e-06 -4.76126e-06 -2.41721e-05)
(-1.33602e-05 -4.30699e-06 1.88882e-05)
(-3.31611e-06 4.42514e-06 7.97207e-06)
(2.4328e-07 -4.6456e-06 -1.59502e-07)
(-6.66797e-06 -7.71804e-07 1.77163e-05)
(1.47932e-06 1.93994e-06 2.29749e-06)
(-5.86525e-06 -3.79999e-06 2.51559e-06)
(1.15803e-06 1.01164e-06 -3.94163e-06)
(-1.90751e-06 -1.02327e-06 4.94392e-06)
(-6.53072e-06 3.7521e-06 -5.73646e-06)
(3.72029e-06 2.90786e-06 -3.07481e-06)
(6.39094e-06 -3.92942e-06 -1.07423e-06)
(5.98596e-06 -1.36622e-06 6.40492e-06)
(8.54918e-06 -9.22843e-06 4.00701e-06)
(4.13542e-06 2.4819e-07 -4.89476e-06)
(8.56612e-06 8.31314e-06 5.45106e-06)
(1.27304e-05 3.17688e-07 5.80197e-06)
(2.63253e-06 -5.35155e-06 3.98995e-06)
(-3.70525e-06 -3.62881e-06 -1.93327e-06)
(-5.7359e-06 1.83792e-06 -6.97984e-07)
(-2.18355e-06 3.86863e-06 6.00334e-06)
(1.06046e-06 3.91072e-06 6.34001e-07)
(-2.15632e-06 8.51672e-06 3.9921e-06)
(-1.62184e-06 -9.62443e-07 1.94842e-06)
(-1.22362e-06 7.069e-06 4.40742e-06)
(-2.31851e-06 4.09798e-06 3.02481e-06)
(-3.05218e-06 6.43752e-06 8.33099e-06)
(-7.12661e-07 9.93459e-06 3.459e-07)
(-2.49213e-07 -2.87021e-06 -3.77548e-06)
(-7.39463e-06 -3.14083e-06 4.78545e-06)
(-2.28044e-06 2.30788e-06 4.05182e-07)
(2.91254e-07 -2.22895e-06 9.97106e-07)
(-4.44032e-06 2.44747e-07 3.77048e-06)
(9.1502e-07 1.55533e-06 2.1868e-06)
(-4.0205e-06 -1.68936e-06 2.02816e-07)
(7.99355e-07 4.59156e-07 -1.56548e-06)
(-1.9253e-06 -6.93399e-07 7.89561e-07)
(-3.62638e-06 1.10508e-06 -1.24171e-06)
(1.19594e-06 1.29067e-06 -2.01545e-06)
(1.13087e-06 -9.51615e-07 1.30114e-06)
(4.06781e-06 2.73771e-08 3.15194e-06)
(5.0468e-06 -4.28065e-06 1.85792e-06)
(3.21613e-06 5.82456e-07 -1.78315e-06)
(5.06155e-06 2.78765e-06 1.41731e-06)
(5.40601e-06 9.35202e-07 3.62701e-06)
(1.82593e-06 -3.83241e-07 6.18151e-07)
(-6.90451e-07 -1.40661e-06 -1.45931e-06)
(-1.94499e-06 2.01468e-06 -1.54378e-06)
(-7.39898e-07 3.26924e-06 2.08012e-06)
(9.63011e-08 2.46174e-06 -1.14573e-07)
(-1.32013e-06 4.7792e-06 1.3003e-06)
(-1.65164e-06 6.26371e-07 7.82421e-07)
(-7.83817e-07 3.9637e-06 1.37229e-06)
(-1.19849e-06 2.05656e-06 1.27842e-06)
(-1.85496e-06 3.10758e-06 2.49172e-06)
(-8.03936e-07 4.86504e-06 -8.09188e-07)
(-7.98837e-07 -3.23322e-07 -2.50198e-06)
(-3.04398e-06 4.78416e-08 1.74649e-06)
(-6.36599e-07 8.7373e-07 5.60092e-07)
(2.10297e-07 -9.49948e-07 1.46718e-07)
(-8.67525e-07 4.97182e-07 1.69979e-06)
(1.0141e-06 1.92256e-07 4.1201e-07)
(-0.000254097 -5.19614e-05 -0.000272112)
(-4.36729e-05 9.01378e-06 -2.93315e-05)
(0.000231756 0.000137427 -9.59507e-05)
(4.56175e-05 -0.000291803 4.48351e-05)
(-2.90219e-06 1.80097e-05 2.93682e-05)
(3.68563e-06 1.22814e-05 -3.56526e-05)
(2.56627e-05 9.86429e-06 -2.14549e-05)
(-2.70822e-06 -1.91869e-05 -2.76679e-05)
)
;

boundaryField
{
    top_fluid_surface
    {
        type            pressureInletOutletVelocity;
        value           nonuniform List<vector> 
64
(
(0.000235082 -0.000179662 2.60522e-05)
(-3.37094e-05 -0.000173095 3.68135e-05)
(9.40366e-05 -4.71962e-05 1.93439e-05)
(0 0 -9.46335e-05)
(0 0 -9.86268e-05)
(0 0 -0.000159812)
(0 0 -0.000211844)
(0 0 -9.39839e-05)
(0 0 -3.67739e-05)
(-0.000381139 -0.000350568 -1.59582e-05)
(-0.000508162 1.20811e-05 0.000199566)
(0 0 -9.32497e-05)
(-0.000493508 -0.000123015 5.51648e-05)
(0 0 -4.20951e-05)
(-0.000175907 4.42592e-05 3.08032e-05)
(0 0 -0.000101351)
(0.000112834 0.000511606 7.02283e-05)
(0.000236809 -5.40599e-05 0.000271295)
(3.52585e-05 9.78973e-05 0.0001356)
(0.000251957 -0.000136517 0.000307184)
(0 0 -0.000102019)
(4.38749e-05 0.000205846 7.72289e-05)
(-5.81841e-05 0.000327167 0.000245897)
(0.000416757 0.000198159 0.000222344)
(0 0 -0.000230696)
(-0.000299853 -0.000190804 8.88141e-05)
(6.33437e-05 -0.000520317 0.000106402)
(-0.000235201 -0.000213413 0.000204449)
(1.08272e-05 7.92635e-05 0.000218574)
(0 0 -3.98803e-05)
(0 0 -2.89676e-05)
(0.000129769 -6.59312e-06 0.000246681)
(0.000222058 0.000163452 1.24171e-05)
(-0.000282741 2.90726e-06 0.000104828)
(0 0 -6.64046e-05)
(-0.000132394 -0.000139396 0.000173626)
(0 0 -9.81336e-05)
(0 0 -0.000134003)
(0 0 -0.000245868)
(0 0 -4.63981e-05)
(-0.000452013 -0.000124084 5.51746e-05)
(0 0 -0.000281987)
(0 0 -7.46351e-05)
(-5.28177e-05 3.14049e-05 5.27076e-05)
(-0.000237785 0.000212658 -5.81061e-06)
(-4.542e-05 -0.00012323 7.26093e-05)
(0 0 -7.55608e-06)
(8.70796e-05 -0.000195031 7.89902e-05)
(0 0 -4.19863e-05)
(0 0 -6.05812e-05)
(0 0 -0.000206943)
(0 0 -0.00033471)
(0 0 -0.000174317)
(-0.000148457 -0.000441901 0.000142857)
(-0.000117095 -6.13507e-05 0.000179197)
(3.06579e-06 -9.16545e-05 3.16902e-05)
(-0.000288827 6.95896e-05 0.000138726)
(-0.00011666 0.000111744 5.65132e-05)
(0 0 -6.20507e-05)
(0 0 -9.76934e-05)
(0 0 -0.000272112)
(0 0 -2.93315e-05)
(0 0 -9.59507e-05)
(4.56175e-05 -0.000291803 4.48351e-05)
)
;
    }
    bottom_fluid_surface
    {
        type            noSlip;
    }
    lateral_surface_1
    {
        type            noSlip;
    }
    lateral_surface_2
    {
        type            noSlip;
    }
    lateral_surface_3
    {
        type            noSlip;
    }
    lateral_surface_4
    {
        type            noSlip;
    }
}


// ************************************************************************* //
