/*--------------------------------*- C++ -*----------------------------------*\
| =========                 |                                                 |
| \\      /  F ield         | OpenFOAM: The Open Source CFD Toolbox           |
|  \\    /   O peration     | Version:  v1612+                                |
|   \\  /    A nd           | Web:      www.OpenFOAM.com                      |
|    \\/     M anipulation  |                                                 |
\*---------------------------------------------------------------------------*/
FoamFile
{
    version     2.0;
    format      ascii;
    class       volScalarField;
    location    "4.55";
    object      p;
}
// * * * * * * * * * * * * * * * * * * * * * * * * * * * * * * * * * * * * * //

dimensions      [1 -1 -2 0 0 0 0];

internalField   nonuniform List<scalar> 
320
(
14724.8
14724.8
14724.8
14724.8
4.96083
4.96179
4.96242
4.96138
4.96239
4.95933
4.95944
4.96035
4.96055
4.9605
4.95966
4.95943
4914.8
4914.83
4914.88
4914.82
4914.82
4914.86
4914.85
4914.82
4914.81
4914.8
4914.83
4914.86
14724.8
14724.8
14724.8
14724.8
14724.8
14724.8
14724.8
14724.8
14724.8
14724.8
14724.8
14724.8
24534.8
24534.8
24534.8
24534.8
24534.8
24534.8
24534.8
24534.8
24534.8
24534.8
24534.8
24534.8
24534.8
24534.8
24534.8
24534.8
4.95964
4.96249
4.96022
4.9611
4.96068
4.96145
4.96112
4.96037
4.95932
4.96016
4.95927
4.95889
4.95881
4.95829
4.95908
4.95962
4.95966
4.95994
4.95929
4.95933
4914.87
4914.87
4914.87
4914.87
4914.84
4914.83
4914.85
4914.84
4914.82
4914.88
4914.85
4914.83
4914.83
4914.82
4914.84
4914.82
4914.82
4914.88
4914.88
4914.85
14724.8
14724.8
14724.8
14724.8
14724.8
14724.8
14724.8
14724.8
14724.8
14724.8
14724.8
14724.8
14724.8
14724.8
14724.8
14724.8
14724.8
14724.8
14724.8
14724.8
24534.8
24534.8
24534.8
24534.8
24534.8
24534.8
24534.8
24534.8
24534.8
24534.8
24534.8
24534.8
24534.8
24534.8
24534.8
24534.8
24534.8
24534.8
24534.8
24534.8
34344.8
34344.8
34344.8
34344.8
34344.8
34344.8
34344.8
34344.8
34344.8
34344.8
34344.8
34344.8
34344.8
34344.8
34344.8
34344.8
34344.8
34344.8
34344.8
34344.8
34344.8
34344.8
34344.8
34344.8
34344.8
34344.8
34344.8
34344.8
34344.8
34344.8
34344.8
34344.8
34344.8
34344.8
34344.8
34344.8
4.95954
4.96006
4.96095
4.96089
4.95983
4.95992
4.96191
4.96183
4.96122
4.96295
4.96165
4.95811
4.95657
4.95807
4.95863
4.95991
4.95918
4.95909
4.95748
4.95827
4.95796
4.95915
4.96027
4.96023
4.95929
4.95966
4.95947
4.95959
4914.85
4914.92
4914.89
4914.83
4914.82
4914.82
4914.88
4914.81
4914.83
4914.89
4914.89
4914.85
4914.87
4914.9
4914.88
4914.86
4914.83
4914.8
4914.86
4914.86
4914.85
4914.82
4914.82
4914.86
4914.87
4914.9
4914.86
4914.79
14724.8
14724.8
14724.8
14724.8
14724.8
14724.8
14724.8
14724.8
14724.8
14724.8
14724.8
14724.8
14724.8
14724.8
14724.8
14724.8
14724.8
14724.8
14724.8
14724.8
14724.8
14724.8
14724.8
14724.8
14724.8
14724.8
14724.8
14724.8
24534.8
24534.8
24534.8
24534.8
24534.8
24534.8
24534.8
24534.8
24534.8
24534.8
24534.8
24534.8
24534.8
24534.8
24534.8
24534.8
24534.8
24534.8
24534.8
24534.8
24534.8
24534.8
24534.8
24534.8
24534.8
24534.8
24534.8
24534.8
34344.8
34344.8
34344.8
34344.8
34344.8
34344.8
34344.8
34344.8
34344.8
34344.8
34344.8
34344.8
34344.8
34344.8
34344.8
34344.8
34344.8
34344.8
34344.8
34344.8
34344.8
34344.8
34344.8
34344.8
34344.8
34344.8
34344.8
34344.8
4.96023
4.96052
4.96098
4.95927
4914.86
4914.82
4914.82
4914.82
)
;

boundaryField
{
    top_fluid_surface
    {
        type            calculated;
        value           nonuniform List<scalar> 
64
(
0
0
-3.07352e-09
0
-2.11953e-08
-9.06761e-09
-1.1537e-09
0
0
0
0
-8.02205e-09
-1.32564e-08
-7.78522e-09
-1.04975e-10
-1.01324e-09
0
0
0
0
-1.76817e-08
-4.60438e-09
0
0
0
0
0
0
0
-1.04755e-09
-1.39035e-08
0
-5.97822e-10
-5.53281e-09
-2.30649e-08
0
0
0
-3.98749e-08
0
0
-6.16504e-08
-3.78361e-08
-3.74609e-10
-9.12234e-10
-2.40676e-09
-1.8622e-08
-7.47095e-10
-2.78942e-10
0
-5.49649e-09
-4.19959e-09
-1.62937e-08
0
0
-4.09513e-09
-2.10452e-10
-1.1754e-08
-5.90591e-09
0
-2.48892e-08
0
0
0
)
;
    }
    bottom_fluid_surface
    {
        type            calculated;
        value           nonuniform List<scalar> 
64
(
39249.8
39249.8
39249.8
39249.8
39249.8
39249.8
39249.8
39249.8
39249.8
39249.8
39249.8
39249.8
39249.8
39249.8
39249.8
39249.8
39249.8
39249.8
39249.8
39249.8
39249.8
39249.8
39249.8
39249.8
39249.8
39249.8
39249.8
39249.8
39249.8
39249.8
39249.8
39249.8
39249.8
39249.8
39249.8
39249.8
39249.8
39249.8
39249.8
39249.8
39249.8
39249.8
39249.8
39249.8
39249.8
39249.8
39249.8
39249.8
39249.8
39249.8
39249.8
39249.8
39249.8
39249.8
39249.8
39249.8
39249.8
39249.8
39249.8
39249.8
39249.8
39249.8
39249.8
39249.8
)
;
    }
    lateral_surface_1
    {
        type            calculated;
        value           nonuniform List<scalar> 
40
(
4.95954
4.96006
4.96095
4.96089
4.95983
4.95992
4.96191
4.95959
4914.85
4914.92
4914.89
4914.83
4914.82
4914.82
4914.88
4914.79
14724.8
14724.8
14724.8
14724.8
14724.8
14724.8
14724.8
14724.8
24534.8
24534.8
24534.8
24534.8
24534.8
24534.8
24534.8
24534.8
34344.8
34344.8
34344.8
34344.8
34344.8
34344.8
34344.8
34344.8
)
;
    }
    lateral_surface_2
    {
        type            calculated;
        value           nonuniform List<scalar> 
40
(
4.95807
4.95863
4.95991
4.95918
4.95909
4.95748
4.95827
4.95796
4914.9
4914.88
4914.86
4914.83
4914.8
4914.86
4914.86
4914.85
14724.8
14724.8
14724.8
14724.8
14724.8
14724.8
14724.8
14724.8
24534.8
24534.8
24534.8
24534.8
24534.8
24534.8
24534.8
24534.8
34344.8
34344.8
34344.8
34344.8
34344.8
34344.8
34344.8
34344.8
)
;
    }
    lateral_surface_3
    {
        type            calculated;
        value           nonuniform List<scalar> 
40
(
4.96191
4.96183
4.96122
4.96295
4.96165
4.95811
4.95657
4.95807
4914.88
4914.81
4914.83
4914.89
4914.89
4914.85
4914.87
4914.9
14724.8
14724.8
14724.8
14724.8
14724.8
14724.8
14724.8
14724.8
24534.8
24534.8
24534.8
24534.8
24534.8
24534.8
24534.8
24534.8
34344.8
34344.8
34344.8
34344.8
34344.8
34344.8
34344.8
34344.8
)
;
    }
    lateral_surface_4
    {
        type            calculated;
        value           nonuniform List<scalar> 
40
(
4.95796
4.95915
4.96027
4.96023
4.95929
4.95966
4.95947
4.95959
4914.85
4914.82
4914.82
4914.86
4914.87
4914.9
4914.86
4914.79
14724.8
14724.8
14724.8
14724.8
14724.8
14724.8
14724.8
14724.8
24534.8
24534.8
24534.8
24534.8
24534.8
24534.8
24534.8
24534.8
34344.8
34344.8
34344.8
34344.8
34344.8
34344.8
34344.8
34344.8
)
;
    }
}


// ************************************************************************* //
