/*--------------------------------*- C++ -*----------------------------------*\
| =========                 |                                                 |
| \\      /  F ield         | OpenFOAM: The Open Source CFD Toolbox           |
|  \\    /   O peration     | Version:  v1612+                                |
|   \\  /    A nd           | Web:      www.OpenFOAM.com                      |
|    \\/     M anipulation  |                                                 |
\*---------------------------------------------------------------------------*/
FoamFile
{
    version     2.0;
    format      ascii;
    class       volVectorField;
    location    "4.55";
    object      U;
}
// * * * * * * * * * * * * * * * * * * * * * * * * * * * * * * * * * * * * * //

dimensions      [0 1 -1 0 0 0 0];

internalField   nonuniform List<vector> 
320
(
(-2.01529e-06 -8.21469e-06 7.72882e-06)
(-1.13003e-06 -6.47718e-06 -9.56607e-06)
(-9.82442e-06 -1.96104e-06 -8.02193e-06)
(7.4911e-08 8.20755e-06 -8.02555e-06)
(0.000333774 8.04716e-05 4.74699e-05)
(3.79852e-05 0.000146834 3.58044e-05)
(0.000153061 6.07576e-05 -7.84031e-05)
(-0.000379018 0.000130289 6.00743e-05)
(-7.88372e-05 7.20937e-05 -0.00020589)
(-0.000216348 3.85364e-05 -0.000134667)
(-0.000356631 -0.000143594 -4.80353e-05)
(-0.000166204 3.02428e-05 0.000112594)
(-0.000234904 0.000131432 1.78029e-05)
(-0.000111788 -0.00010511 3.99231e-05)
(-0.00029033 0.000263235 0.000157985)
(0.000123907 0.000217459 -0.000126665)
(7.51005e-06 1.04341e-06 2.65199e-05)
(1.36254e-05 5.0838e-06 2.41519e-05)
(1.46397e-05 3.75417e-06 9.25805e-06)
(-1.77532e-06 -8.99331e-07 -6.54925e-06)
(1.04466e-05 -1.03136e-05 -1.13551e-05)
(4.21178e-06 2.46516e-06 1.86029e-05)
(-1.23504e-05 -3.48707e-06 9.58456e-06)
(4.94507e-06 -2.0052e-05 -6.99421e-06)
(-6.01643e-06 4.7551e-06 3.3232e-05)
(8.36838e-07 -1.43346e-05 2.32532e-05)
(-1.26743e-05 -1.63182e-06 -1.12275e-05)
(-5.51104e-06 -3.19256e-06 2.15573e-06)
(2.95268e-06 6.75864e-07 1.77094e-05)
(-4.31194e-06 -2.76087e-06 2.19769e-05)
(-9.03074e-06 5.35289e-07 8.66891e-06)
(1.20467e-06 -3.82752e-06 -4.82506e-06)
(-4.41432e-06 2.98134e-06 -7.24442e-06)
(-3.54684e-06 -1.53931e-06 1.14402e-05)
(3.81213e-06 -1.34662e-06 6.92807e-06)
(-5.27209e-06 6.33775e-06 -3.67551e-06)
(3.45135e-06 -7.03789e-06 2.30074e-05)
(2.25544e-06 1.14639e-05 1.7827e-05)
(8.50302e-06 6.29773e-06 -7.28261e-06)
(7.84e-06 5.86842e-06 1.2998e-06)
(-8.60944e-07 -5.27448e-06 2.38999e-06)
(-4.93467e-07 -4.01506e-06 -3.0613e-06)
(-4.91509e-06 -1.20328e-06 -1.29737e-06)
(7.8688e-07 4.34835e-06 -2.99347e-06)
(2.28464e-06 -6.99179e-08 5.00542e-06)
(-1.9281e-06 -1.80154e-06 2.52641e-06)
(-4.99878e-06 -1.59234e-07 1.24677e-06)
(1.27515e-06 -2.55951e-06 9.19513e-07)
(-2.31864e-06 2.22519e-06 -1.40276e-06)
(-1.80272e-06 -1.0093e-06 3.16423e-06)
(2.93498e-06 -1.10149e-06 2.11014e-06)
(-2.48258e-06 4.18409e-06 5.3056e-07)
(2.14503e-06 -4.19475e-06 6.37277e-06)
(1.28106e-06 5.96991e-06 4.33094e-06)
(4.75048e-06 3.18467e-06 -1.48465e-06)
(4.71546e-06 3.16155e-06 6.47254e-08)
(-0.00022644 1.07882e-05 0.00016193)
(6.49261e-05 0.000309279 -0.000124782)
(1.43998e-05 9.22458e-05 -1.44896e-05)
(-8.30053e-05 0.000142258 -4.50164e-05)
(7.36976e-05 0.000391001 0.000102918)
(0.000213395 -0.000149249 0.00030539)
(-0.000258617 -4.85569e-05 4.75776e-05)
(-0.000118071 -0.00010456 0.000216984)
(-8.13511e-05 -0.000358691 -0.000188052)
(-8.95436e-05 -6.29728e-05 -9.59622e-05)
(-0.00029418 0.00014666 3.47679e-05)
(-0.000116241 -1.28935e-05 0.000163379)
(-1.98472e-05 3.76596e-05 0.000156531)
(-7.9999e-05 -0.000100137 0.000170265)
(9.84299e-05 -0.000199468 2.52708e-05)
(-0.000115412 -7.70514e-07 0.00023157)
(0.000172524 0.000368797 0.00024775)
(0.000210655 0.000527917 -4.57723e-05)
(0.000194649 0.000145139 -0.000166754)
(0.000183381 3.34466e-06 3.50349e-05)
(-6.42736e-06 -1.34543e-05 -2.51821e-05)
(1.71202e-06 2.36084e-07 8.43954e-06)
(2.97718e-06 -5.70729e-06 1.43472e-05)
(7.82851e-07 4.30499e-06 8.17498e-07)
(-2.40069e-06 2.19665e-05 -2.12015e-05)
(6.18395e-06 2.52503e-06 -3.10067e-05)
(-2.55202e-06 2.37823e-06 -1.61425e-05)
(-7.29542e-06 -1.33919e-05 -4.80861e-05)
(9.24571e-07 -2.73792e-05 -5.73304e-06)
(-8.28222e-07 -1.37514e-05 1.92447e-05)
(-1.34453e-05 1.3206e-05 -8.70455e-06)
(1.65258e-05 -2.29244e-06 -2.74228e-05)
(7.47081e-06 -7.62106e-06 2.43498e-05)
(-1.17386e-05 -6.90881e-06 -1.56132e-05)
(2.28165e-06 -1.64767e-05 -3.47267e-06)
(-1.72445e-05 -7.47734e-06 -9.75126e-06)
(4.84024e-06 1.06864e-06 -2.15249e-05)
(9.8628e-06 1.23715e-05 -1.9225e-05)
(2.60002e-06 7.28973e-06 -3.82117e-06)
(1.74055e-05 3.30139e-06 -1.23931e-05)
(5.67567e-06 8.82858e-06 -1.71686e-05)
(6.61371e-06 3.12618e-06 4.12764e-06)
(-9.89271e-07 9.94222e-06 1.366e-05)
(-2.56603e-06 5.2187e-06 -6.02788e-07)
(5.21656e-06 -6.3755e-06 -1.39642e-05)
(-3.07979e-06 1.01044e-06 -1.3053e-05)
(4.99428e-06 -1.86013e-06 -7.22605e-06)
(9.60058e-06 3.45752e-06 -2.41553e-05)
(-8.45e-07 9.54469e-06 -3.76976e-06)
(-4.23564e-06 3.79996e-06 1.37574e-05)
(6.4768e-06 -5.33715e-06 -7.13325e-06)
(-7.80231e-06 1.88409e-07 -1.79349e-05)
(-4.1314e-06 2.0685e-06 1.6022e-05)
(4.88525e-06 -3.61292e-06 -1.1347e-05)
(-2.64708e-06 3.34711e-06 -3.12778e-06)
(1.03245e-05 3.70791e-06 -4.64562e-06)
(-9.94346e-07 3.09063e-06 -1.41235e-05)
(-2.40886e-06 -2.63031e-06 -1.26976e-05)
(-3.76204e-08 -2.15174e-06 -5.11787e-06)
(-1.04938e-05 -2.24178e-06 -1.18287e-05)
(3.79185e-06 4.60881e-06 -5.49943e-06)
(4.10214e-06 1.90972e-06 1.62293e-06)
(-4.04166e-07 5.78245e-06 -2.27661e-07)
(-1.24399e-06 3.70222e-06 5.71926e-07)
(3.15748e-06 -3.85435e-06 -3.60554e-06)
(-1.7543e-06 7.17588e-07 -5.1658e-06)
(3.29993e-06 -1.33486e-06 -3.01457e-06)
(5.97971e-06 1.27048e-06 -6.89179e-06)
(-7.9298e-07 5.69696e-06 -6.53244e-07)
(-2.3182e-06 2.59451e-06 6.40624e-07)
(4.47979e-06 -3.21342e-06 -2.49824e-06)
(-4.40657e-06 -2.91271e-07 -4.61091e-06)
(-1.82174e-06 1.05936e-06 3.48536e-06)
(3.44713e-06 -2.04738e-06 -1.75075e-06)
(-1.11683e-06 1.73579e-06 -2.62096e-07)
(6.30599e-06 2.01802e-06 -1.43173e-06)
(-2.79014e-07 1.40219e-06 -2.7591e-06)
(-1.55774e-06 -1.84012e-06 -3.52079e-06)
(2.17603e-07 -1.02859e-06 -8.0132e-07)
(-5.33117e-06 -9.13409e-07 -2.09594e-06)
(-5.81567e-07 -2.04828e-06 5.75552e-07)
(4.7382e-07 -9.97751e-07 -8.693e-07)
(-2.45121e-06 -1.71658e-07 -1.1792e-06)
(-4.28899e-08 2.59011e-06 -6.78878e-07)
(5.96683e-07 1.20271e-07 2.1151e-06)
(-8.51564e-07 3.79925e-07 2.33415e-06)
(-1.43141e-06 3.27543e-07 8.77016e-07)
(9.26223e-07 -1.2396e-06 -3.38913e-07)
(-8.51675e-07 3.78596e-07 -4.76534e-07)
(-9.30111e-07 -9.53258e-07 1.27961e-06)
(1.02407e-06 -1.24935e-07 6.47748e-07)
(-1.24768e-06 1.17219e-06 -5.05799e-07)
(1.50739e-06 -1.18668e-06 1.96281e-06)
(8.64255e-07 3.25622e-06 1.77774e-06)
(2.65774e-06 2.05015e-06 -5.37917e-07)
(2.45954e-06 2.40423e-06 5.68865e-07)
(2.20778e-06 2.77662e-06 -1.61821e-06)
(1.44274e-06 7.76308e-07 5.69882e-07)
(2.66542e-07 2.57288e-06 1.13079e-06)
(8.51699e-07 1.14142e-06 4.40965e-08)
(1.29641e-06 -1.48679e-06 -9.32488e-07)
(-6.77465e-07 4.54447e-07 -1.2735e-06)
(1.05279e-06 -4.18014e-07 -6.69936e-07)
(1.70885e-06 7.33771e-07 -2.35101e-06)
(-6.32721e-07 1.80581e-06 -3.29215e-07)
(-1.19569e-06 5.97277e-07 1.40644e-06)
(1.07907e-06 -2.00661e-06 -8.0391e-07)
(-2.16834e-06 6.89663e-08 -1.89838e-06)
(-1.38946e-06 2.33506e-07 1.59891e-06)
(1.07276e-06 -3.66032e-07 -1.39268e-06)
(-7.52629e-07 1.14374e-06 -7.14617e-07)
(2.37375e-06 9.63686e-07 -1.17722e-06)
(-4.60781e-07 9.78692e-07 -1.68474e-06)
(-4.11978e-07 -4.52993e-07 -1.61283e-06)
(-4.73854e-07 -3.29697e-07 -4.66463e-07)
(-2.65903e-06 -1.57584e-07 -1.11677e-06)
(5.37332e-05 0.000127657 -3.45781e-05)
(-0.00018206 8.36672e-05 -0.000105193)
(0.000253514 8.35254e-05 -0.000214778)
(0.000206727 -0.000105059 0.000119367)
(-0.000143968 -0.000107943 5.41853e-05)
(-0.000102952 -4.39747e-05 1.16867e-05)
(-0.000454125 6.83901e-05 -0.0002824)
(-0.000343668 0.000456997 1.67877e-05)
(-0.000388867 -0.000271179 0.000153681)
(-0.0004636 -0.000198583 -0.000351142)
(-0.000538766 0.000250152 -0.000275086)
(-0.00011284 6.74169e-05 -2.73718e-05)
(-0.000113765 9.21208e-05 -4.27138e-05)
(4.1543e-05 -0.000185202 -6.93796e-05)
(-0.000135615 -0.000340398 -0.000192987)
(-0.000265861 -0.000138484 -3.86547e-05)
(-0.000247233 -0.000367263 -2.36196e-05)
(-7.92454e-05 -8.08813e-06 5.38466e-05)
(1.79548e-06 -0.0003092 -0.000104847)
(2.33186e-05 -8.92321e-05 -9.16471e-05)
(0.000100637 -0.00023339 -0.00018052)
(-4.42584e-05 -0.000237757 0.000102709)
(6.1942e-05 0.000205231 0.000149396)
(0.000160939 0.000220805 -9.05e-05)
(-8.59751e-05 0.000285766 -2.05159e-05)
(-8.16747e-05 0.000188519 -0.000153323)
(-4.16491e-05 -0.000128711 -0.000108682)
(-0.000213782 -4.42201e-05 7.54691e-05)
(1.99881e-05 6.54387e-06 7.34706e-06)
(-2.44538e-06 -4.54816e-06 -2.58926e-05)
(-2.37607e-07 2.56241e-06 1.46839e-05)
(9.55642e-06 -2.59935e-06 -2.60255e-05)
(-1.30347e-05 -4.0171e-06 -2.38751e-05)
(-8.78905e-06 1.12174e-05 7.73614e-06)
(-9.98907e-06 2.37225e-06 2.87341e-05)
(-1.88339e-05 1.92771e-05 2.12541e-05)
(-1.2679e-05 3.60207e-06 -1.65761e-05)
(-1.77573e-05 -1.43781e-05 2.6283e-05)
(-2.94312e-05 -6.83891e-06 5.22969e-05)
(-1.12051e-05 8.93087e-06 1.70399e-05)
(6.87573e-06 8.74745e-06 -3.07252e-05)
(1.12939e-05 -5.94866e-06 -2.03578e-05)
(-3.53605e-06 -1.03653e-05 2.44542e-05)
(-7.24896e-06 -3.24115e-06 -3.91439e-07)
(8.47616e-06 -1.65634e-05 8.63213e-06)
(9.56172e-06 4.80844e-06 6.33729e-06)
(2.83895e-06 -1.86526e-05 9.75009e-06)
(3.04982e-06 -9.76957e-06 -5.25679e-07)
(8.87695e-06 -1.94213e-05 2.4829e-05)
(-7.74144e-07 -2.72046e-05 -8.20424e-06)
(-1.84887e-06 7.3131e-06 -2.43923e-05)
(1.40164e-05 1.27711e-05 2.7688e-05)
(9.85454e-06 -3.87162e-06 7.46405e-06)
(-2.22617e-06 4.35264e-06 -5.64669e-06)
(6.91641e-06 3.93429e-06 1.89775e-05)
(-1.59341e-06 -1.96623e-06 9.56751e-06)
(-1.10728e-05 -4.05086e-06 3.26842e-06)
(2.47222e-06 1.22711e-06 -1.4938e-05)
(1.83795e-06 -8.47804e-07 5.18058e-06)
(-6.40492e-06 6.00306e-06 -1.61555e-05)
(7.28662e-06 4.56776e-06 -1.92477e-05)
(9.5219e-06 -3.84965e-06 5.19767e-06)
(7.70932e-06 2.62633e-07 1.94069e-05)
(1.18216e-05 -7.382e-06 1.51595e-05)
(6.70295e-06 3.13022e-07 -9.02859e-06)
(1.1124e-05 8.85312e-06 1.68608e-05)
(1.74156e-05 -2.85781e-06 3.7334e-05)
(4.81049e-06 -1.53766e-05 8.09146e-06)
(-7.50474e-06 -1.00988e-05 -2.27973e-05)
(-9.08731e-06 1.52501e-06 -1.77479e-05)
(-5.606e-06 3.10682e-06 1.14523e-05)
(6.47997e-08 2.89522e-06 8.13506e-07)
(-3.59332e-06 9.51867e-06 4.63182e-06)
(-1.47074e-06 -1.31349e-06 4.45474e-06)
(2.17275e-06 6.85792e-06 9.99482e-07)
(-7.8389e-07 1.39912e-06 -2.75068e-06)
(-4.25036e-06 4.99489e-06 9.22054e-06)
(-6.54809e-07 7.49584e-06 -4.58715e-06)
(-1.02678e-07 -5.38444e-06 -1.47191e-05)
(-9.74728e-06 -1.26885e-06 1.75711e-05)
(-4.4621e-06 7.25424e-06 4.11502e-06)
(1.3708e-07 -2.21779e-06 -6.08603e-06)
(-4.52794e-06 -2.20797e-06 1.12556e-05)
(1.70878e-07 6.47908e-07 5.17271e-06)
(-4.6786e-06 -2.30716e-06 9.61088e-07)
(1.89235e-06 2.84458e-07 -6.5529e-06)
(1.11095e-06 -4.07665e-07 2.16464e-06)
(-3.72065e-06 3.27566e-06 -5.09059e-06)
(4.63801e-06 2.90881e-06 -2.83952e-06)
(6.42199e-06 -2.6063e-06 -3.27167e-07)
(4.3549e-06 -3.55781e-07 4.3255e-06)
(6.60542e-06 -4.47405e-06 4.55286e-06)
(3.73519e-06 -1.67906e-08 -1.26379e-06)
(5.87105e-06 5.17428e-06 4.56943e-06)
(1.02442e-05 -1.86778e-06 6.29342e-06)
(2.73282e-06 -9.30701e-06 2.84583e-06)
(-4.75977e-06 -5.54221e-06 -5.47263e-06)
(-5.4038e-06 8.24389e-07 -4.30229e-06)
(-3.12176e-06 1.46849e-06 2.29281e-06)
(1.08308e-06 1.62793e-06 -3.18284e-07)
(-1.33777e-06 4.86517e-06 2.15258e-06)
(-7.26459e-07 -1.44081e-06 2.15136e-06)
(1.46858e-06 3.76989e-06 2.99463e-06)
(-3.48076e-07 5.37708e-07 6.06296e-07)
(-2.40427e-06 3.00112e-06 3.86965e-06)
(5.91412e-08 4.60669e-06 2.2136e-07)
(4.66603e-07 -3.35699e-06 -1.65056e-06)
(-5.31578e-06 -1.89374e-06 4.71422e-06)
(-2.8293e-06 3.68125e-06 -4.66555e-08)
(2.05542e-07 -6.11936e-07 -7.04563e-07)
(-2.4127e-06 -2.87476e-07 2.05366e-06)
(8.31466e-07 9.36999e-07 1.65441e-06)
(-3.02955e-06 -9.80712e-07 1.76345e-07)
(1.52565e-06 4.89842e-07 -1.54882e-06)
(8.00427e-07 -2.98587e-07 7.38542e-07)
(-1.21668e-06 1.13215e-06 -9.88226e-07)
(2.62825e-06 1.18464e-06 -1.68859e-06)
(2.28684e-06 -6.44404e-07 1.04648e-06)
(2.9612e-06 1.94206e-07 2.37922e-06)
(3.79981e-06 -1.82288e-06 1.90726e-06)
(2.62511e-06 8.39238e-08 -2.67019e-07)
(3.42929e-06 1.14669e-06 1.71131e-06)
(4.18981e-06 -1.30693e-06 3.66731e-06)
(1.38859e-06 -3.85777e-06 1.02002e-06)
(-1.47378e-06 -2.99848e-06 -1.89774e-06)
(-2.20716e-06 5.06692e-07 -1.49479e-06)
(-1.6246e-06 1.2401e-06 1.57543e-06)
(-4.01803e-07 9.35605e-07 -1.14962e-09)
(-1.21604e-06 2.72096e-06 2.49724e-07)
(-8.12675e-07 -1.66902e-08 1.79563e-07)
(5.97156e-07 2.14418e-06 2.35827e-07)
(9.6719e-08 4.58908e-07 -6.60562e-07)
(-1.08144e-06 1.29482e-06 6.84227e-07)
(-2.4552e-07 1.91099e-06 -1.0052e-06)
(-3.14177e-07 -8.9484e-07 -1.96305e-06)
(-2.10404e-06 4.70501e-07 1.46007e-06)
(-8.2237e-07 2.03707e-06 3.01652e-07)
(3.86024e-07 1.57167e-07 -3.18035e-07)
(-3.35516e-07 2.20907e-07 9.55456e-07)
(7.64513e-07 1.1931e-07 1.9881e-07)
(-6.11946e-06 0.000291345 -0.000223111)
(-5.56455e-06 0.000183272 0.00023861)
(0.000254149 0.000423414 8.17401e-05)
(-0.000124779 -0.000267748 0.000201768)
(9.98809e-06 1.87191e-05 1.41407e-05)
(5.68857e-06 6.57343e-06 -2.20022e-05)
(1.57168e-05 7.726e-06 -1.69391e-05)
(-5.99174e-06 -1.93765e-05 -1.76774e-05)
)
;

boundaryField
{
    top_fluid_surface
    {
        type            pressureInletOutletVelocity;
        value           nonuniform List<vector> 
64
(
(0.000333774 8.04716e-05 4.74699e-05)
(3.79852e-05 0.000146834 3.58044e-05)
(0 0 -7.84031e-05)
(-0.000379018 0.000130289 6.00743e-05)
(0 0 -0.00020589)
(0 0 -0.000134667)
(0 0 -4.80353e-05)
(-0.000166204 3.02428e-05 0.000112594)
(-0.000234904 0.000131432 1.78029e-05)
(-0.000111788 -0.00010511 3.99231e-05)
(-0.00029033 0.000263235 0.000157985)
(0 0 -0.000126665)
(0 0 0.00016193)
(0 0 -0.000124782)
(0 0 -1.44896e-05)
(0 0 -4.50164e-05)
(7.36976e-05 0.000391001 0.000102918)
(0.000213395 -0.000149249 0.00030539)
(-0.000258617 -4.85569e-05 4.75776e-05)
(-0.000118071 -0.00010456 0.000216984)
(0 0 -0.000188052)
(0 0 -9.59622e-05)
(-0.00029418 0.00014666 3.47679e-05)
(-0.000116241 -1.28935e-05 0.000163379)
(-1.98472e-05 3.76596e-05 0.000156531)
(-7.9999e-05 -0.000100137 0.000170265)
(9.84299e-05 -0.000199468 2.52708e-05)
(-0.000115412 -7.70514e-07 0.00023157)
(0.000172524 0.000368797 0.00024775)
(0 0 -4.57723e-05)
(0 0 -0.000166754)
(0.000183381 3.34466e-06 3.50349e-05)
(0 0 -3.45781e-05)
(0 0 -0.000105193)
(0 0 -0.000214778)
(0.000206727 -0.000105059 0.000119367)
(-0.000143968 -0.000107943 5.41853e-05)
(-0.000102952 -4.39747e-05 1.16867e-05)
(0 0 -0.0002824)
(-0.000343668 0.000456997 1.67877e-05)
(-0.000388867 -0.000271179 0.000153681)
(0 0 -0.000351142)
(0 0 -0.000275086)
(0 0 -2.73718e-05)
(0 0 -4.27138e-05)
(0 0 -6.93796e-05)
(0 0 -0.000192987)
(0 0 -3.86547e-05)
(0 0 -2.36196e-05)
(-7.92454e-05 -8.08813e-06 5.38466e-05)
(0 0 -0.000104847)
(0 0 -9.16471e-05)
(0 0 -0.00018052)
(-4.42584e-05 -0.000237757 0.000102709)
(6.1942e-05 0.000205231 0.000149396)
(0 0 -9.05e-05)
(0 0 -2.05159e-05)
(0 0 -0.000153323)
(0 0 -0.000108682)
(-0.000213782 -4.42201e-05 7.54691e-05)
(0 0 -0.000223111)
(-5.56455e-06 0.000183272 0.00023861)
(0.000254149 0.000423414 8.17401e-05)
(-0.000124779 -0.000267748 0.000201768)
)
;
    }
    bottom_fluid_surface
    {
        type            noSlip;
    }
    lateral_surface_1
    {
        type            noSlip;
    }
    lateral_surface_2
    {
        type            noSlip;
    }
    lateral_surface_3
    {
        type            noSlip;
    }
    lateral_surface_4
    {
        type            noSlip;
    }
}


// ************************************************************************* //
