/*--------------------------------*- C++ -*----------------------------------*\
| =========                 |                                                 |
| \\      /  F ield         | OpenFOAM: The Open Source CFD Toolbox           |
|  \\    /   O peration     | Version:  v1612+                                |
|   \\  /    A nd           | Web:      www.OpenFOAM.com                      |
|    \\/     M anipulation  |                                                 |
\*---------------------------------------------------------------------------*/
FoamFile
{
    version     2.0;
    format      ascii;
    class       volScalarField;
    location    "2.3";
    object      p_rgh;
}
// * * * * * * * * * * * * * * * * * * * * * * * * * * * * * * * * * * * * * //

dimensions      [1 -1 -2 0 0 0 0];

internalField   nonuniform List<scalar> 
1116
(
26934.1
26934.1
26934.1
26934.1
26934.1
26934.1
25643.9
25643.9
25643.9
25643.9
25643.9
25643.9
22635.6
22635.6
22635.6
22635.6
22635.6
22635.6
20238.2
20238.2
20238.2
20238.2
20238.2
20238.2
18725.7
18725.6
18725.6
18725.6
18725.6
18725.6
17539.5
17539.5
17539.5
17539.5
17539.5
17539.5
16306.4
16306.4
16306.4
16306.3
16306.3
16306.3
15197
15197
15197
15196.9
15196.9
15196.9
15027.6
15027.5
15027.5
15027.5
15027.5
15027.5
17814.9
17814.8
17814.8
17814.8
17814.7
17814.8
22769.4
22769.4
22769.4
22769.4
22769.4
22769.4
29991
29991
29991
29991
29991
29991
25740.5
25740.5
25740.5
25740.5
25740.5
25740.5
20748.2
20748.1
20748.1
20748.2
20748.2
20748.2
17610.4
17610.3
17610.4
17610.4
17610.4
17610.5
15904.9
15904.8
15904.8
15904.8
15904.8
15904.9
14548.8
14548.7
14548.8
14548.7
14548.7
14548.8
12846.8
12846.7
12846.7
12846.7
12846.6
12846.6
10191.4
10191.4
10191.3
10191.3
10191.2
10191.2
6992.49
6992.45
6992.4
6992.3
6992.24
6992.18
3192.03
3192
3191.98
3191.92
3191.88
3191.87
3773.45
3773.4
3773.43
3773.37
3773.35
3773.31
10545.6
10545.2
10545.3
10545.2
10545
10545.2
29841.7
29841.6
29841.6
29841.5
29841.4
29841.6
13594.9
13594.7
13594.8
13594.9
13594.9
13595
3389.5
3389.38
3389.41
3389.46
3389.47
3389.49
1555.93
1555.88
1555.88
1555.89
1555.89
1555.93
731.816
731.748
731.742
731.734
731.74
731.761
-51.4375
-51.4369
-51.4373
-51.4375
-51.4378
-51.4381
-57.9612
-57.9599
-57.96
-57.9607
-57.9618
-57.9639
-50.1232
-50.1219
-50.1208
-50.1207
-50.1216
-50.1238
-40.3906
-40.3893
-40.3881
-40.3873
-40.3879
-40.386
18.243
18.2442
18.2424
18.2386
18.2338
18.2307
190.293
190.293
190.284
190.273
190.265
190.245
774.824
774.841
774.824
774.811
774.822
774.776
21084.9
21084.6
21084.8
21084.6
21083.8
21085.9
-9.78295
-9.78273
-9.78274
-9.78227
-9.78157
-9.78154
-12.725
-12.7245
-12.7247
-12.725
-12.7249
-12.725
-7.79632
-7.79599
-7.79587
-7.79551
-7.79507
-7.79505
-13.1333
-13.1334
-13.1338
-13.134
-13.134
-13.134
-12.6347
-12.6345
-12.6344
-12.6344
-12.6344
-12.6344
-14.2283
-14.2281
-14.2282
-14.2285
-14.2288
-14.23
-28.1668
-28.1671
-28.1672
-28.1672
-28.1677
-28.1694
-50.7592
-50.7596
-50.7597
-50.7564
-50.7532
-50.7445
-60.7797
-60.7804
-60.7815
-60.7829
-60.7858
-60.7849
-31.8519
-31.8596
-31.8628
-31.8654
-31.8686
-31.8656
-21.7682
-21.7802
-21.7922
-21.7979
-21.7896
-21.7867
21627.7
21626.3
21627
21627.2
21626.7
21627.6
-0.22436
-0.224363
-0.224372
-0.224386
-0.224398
-0.224406
-0.235651
-0.235669
-0.235684
-0.235697
-0.235706
-0.23571
-0.258641
-0.258669
-0.25868
-0.258684
-0.258681
-0.258674
-0.294041
-0.294065
-0.294065
-0.294054
-0.294037
-0.294018
-0.342972
-0.34298
-0.342965
-0.34294
-0.34291
-0.342882
-0.407126
-0.40711
-0.407077
-0.407037
-0.406995
-0.406959
-0.488277
-0.488228
-0.488168
-0.488105
-0.488046
-0.487999
-0.587455
-0.587363
-0.587271
-0.587184
-0.587109
-0.587055
-0.704178
-0.704057
-0.70396
-0.703878
-0.703819
-0.703788
-0.836415
-0.836324
-0.836279
-0.836262
-0.836271
-0.836297
-0.968395
-0.968409
-0.96847
-0.968559
-0.968664
-0.968769
-1.08165
-1.08173
-1.08179
-1.08184
-1.08187
-1.0819
-0.213359
-0.213361
-0.213372
-0.213386
-0.213398
-0.213405
-0.224654
-0.224666
-0.224678
-0.224688
-0.224694
-0.224694
-0.247728
-0.24774
-0.247742
-0.247739
-0.247731
-0.247718
-0.283427
-0.28343
-0.283417
-0.283397
-0.283374
-0.283349
-0.332969
-0.332953
-0.332925
-0.332891
-0.332858
-0.332826
-0.397516
-0.397476
-0.397431
-0.397386
-0.397346
-0.397313
-0.479384
-0.479314
-0.479252
-0.479197
-0.479154
-0.479124
-0.582866
-0.582768
-0.582703
-0.582659
-0.582637
-0.582631
-0.711204
-0.711124
-0.71112
-0.711159
-0.711224
-0.711297
-0.864783
-0.864858
-0.865039
-0.86523
-0.865418
-0.865585
-1.02028
-1.02046
-1.02068
-1.02093
-1.02115
-1.02134
-1.16425
-1.16441
-1.16446
-1.16443
-1.16434
-1.16424
-0.191793
-0.191791
-0.191798
-0.191808
-0.191817
-0.191822
-0.202543
-0.202546
-0.202551
-0.202556
-0.202559
-0.20256
-0.224664
-0.224663
-0.224659
-0.224653
-0.224645
-0.224636
-0.259401
-0.259391
-0.259376
-0.259358
-0.25934
-0.259323
-0.308979
-0.308957
-0.308931
-0.308905
-0.308881
-0.308861
-0.377229
-0.377191
-0.377156
-0.377127
-0.377106
-0.377091
-0.469415
-0.469359
-0.469326
-0.469309
-0.469304
-0.469309
-0.589042
-0.588992
-0.588999
-0.589037
-0.589097
-0.589161
-0.738476
-0.738503
-0.738617
-0.738788
-0.738981
-0.739152
-0.925785
-0.925911
-0.926137
-0.92644
-0.926754
-0.926989
-1.14088
-1.1411
-1.14131
-1.14152
-1.14167
-1.14174
-1.42078
-1.42076
-1.42056
-1.42021
-1.41982
-1.41947
-0.160597
-0.16059
-0.160593
-0.160598
-0.160603
-0.160607
-0.170136
-0.170129
-0.170129
-0.170131
-0.170133
-0.170136
-0.189917
-0.189906
-0.189899
-0.189895
-0.189893
-0.189893
-0.221404
-0.221388
-0.221376
-0.221367
-0.22136
-0.221356
-0.267136
-0.267115
-0.267099
-0.267087
-0.26708
-0.267076
-0.330735
-0.330711
-0.3307
-0.330698
-0.330705
-0.330714
-0.4178
-0.417792
-0.417812
-0.417848
-0.417892
-0.417933
-0.54153
-0.541575
-0.541663
-0.541774
-0.541889
-0.541987
-0.719508
-0.719635
-0.719803
-0.719994
-0.720176
-0.720312
-0.982555
-0.982702
-0.982856
-0.983015
-0.98315
-0.983218
-1.33527
-1.33527
-1.33514
-1.33493
-1.33467
-1.33441
-1.8339
-1.83358
-1.83298
-1.83216
-1.83139
-1.83082
-6.05207
-6.0519
-6.05195
-6.05202
-6.05201
-6.05215
-6.02181
-6.02164
-6.02152
-6.02143
-6.02137
-6.02141
-6.48258
-6.48271
-6.48269
-6.48262
-6.48254
-6.48249
-6.57321
-6.57261
-6.57224
-6.57233
-6.57233
-6.57171
-4.70947
-4.70932
-4.70922
-4.70912
-4.70904
-4.70904
-7.12666
-7.12673
-7.12669
-7.12665
-7.12664
-7.12656
-9.70305
-9.70301
-9.70301
-9.70312
-9.70309
-9.70253
-7.55539
-7.55546
-7.55551
-7.5555
-7.55547
-7.55544
-5.0811
-5.08107
-5.08101
-5.08096
-5.08094
-5.08089
-13.7794
-13.7792
-13.7793
-13.7794
-13.7793
-13.7795
-8.84116
-8.84127
-8.8413
-8.84132
-8.84134
-8.84134
-8.10939
-8.10945
-8.10948
-8.10952
-8.10957
-8.10948
-18.0852
-18.0852
-18.0852
-18.0852
-18.0851
-18.0853
-9.31289
-9.31302
-9.31303
-9.31303
-9.31306
-9.31307
-7.45862
-7.45872
-7.45878
-7.45882
-7.45886
-7.45874
-22.4406
-22.4407
-22.4407
-22.4406
-22.4405
-22.4407
-12.6468
-12.647
-12.647
-12.647
-12.647
-12.647
-8.6431
-8.64312
-8.64308
-8.64305
-8.64301
-8.64291
-23.0126
-23.0127
-23.0128
-23.0124
-23.012
-23.0116
-14.1217
-14.1218
-14.1218
-14.1216
-14.1213
-14.121
-7.1821
-7.18198
-7.18187
-7.18177
-7.18167
-7.18169
-30.2008
-30.2
-30.2
-30.1986
-30.1972
-30.1938
-16.524
-16.524
-16.5237
-16.5237
-16.523
-16.523
-4.81267
-4.81246
-4.81232
-4.81223
-4.81188
-4.81244
-37.3153
-37.3175
-37.3166
-37.3158
-37.3155
-37.3114
-16.6116
-16.6132
-16.6123
-16.613
-16.6128
-16.6136
0.39907
0.399348
0.399533
0.399464
0.400374
0.398252
-22.4993
-22.505
-22.5085
-22.5095
-22.5074
-22.4999
7.10062
7.10119
7.10065
7.09803
7.09671
7.0984
5.3474
5.34896
5.349
5.34789
5.34675
5.34568
-21.0977
-21.1075
-21.1111
-21.1179
-21.1106
-21.1215
23.2574
23.2606
23.2649
23.2641
23.2666
23.252
8.67147
8.67019
8.66797
8.66803
8.66734
8.65901
8457.84
8456.77
8457.58
8458.08
8458.13
8457.31
-64.8011
-64.7993
-64.7961
-64.8074
-64.7956
-64.8119
-21.9837
-21.9881
-21.9943
-21.9955
-21.9972
-22.0221
-5.30619
-5.30578
-5.30586
-5.30284
-5.29763
-5.29186
-5.53853
-5.53943
-5.54407
-5.53941
-5.54198
-5.49853
5.56232
5.56321
5.5654
5.5693
5.57409
5.55058
-8.26393
-8.26306
-8.2643
-8.26166
-8.24943
-8.24385
-8.83143
-8.83648
-8.8466
-8.84996
-8.87537
-8.70989
9.65998
9.66345
9.66595
9.68403
9.68432
9.61351
-15.4485
-15.4461
-15.4475
-15.4414
-15.4291
-15.4418
-10.6754
-10.6758
-10.6806
-10.6737
-10.679
-10.6201
4.63012
4.62989
4.62247
4.64526
4.65792
4.6098
-13.7015
-13.7003
-13.7001
-13.697
-13.6824
-13.7186
67.2345
67.23
67.153
67.2983
67.8204
66.3458
271.713
271.742
271.638
271.868
272.826
270.461
304.767
304.885
304.579
305.054
306.879
302.301
1640.32
1640.39
1640.07
1640.93
1643.61
1636.36
386.681
386.732
386.662
386.902
387.513
386.072
5037.91
5037.47
5037.32
5038.4
5040.93
5034.21
2023.81
2023.91
2023.82
2024.4
2025.15
2023.1
-92.3514
-92.3646
-92.3739
-92.3604
-92.419
-92.3138
-0.121243
-0.121234
-0.121234
-0.121235
-0.121238
-0.121242
-0.0755031
-0.0754964
-0.0754957
-0.0754961
-0.0754983
-0.0755033
-0.0259553
-0.0259536
-0.0259534
-0.0259539
-0.0259555
-0.0259594
-0.128664
-0.128654
-0.128652
-0.128653
-0.128656
-0.128664
-0.0801178
-0.0801103
-0.0801098
-0.080112
-0.0801174
-0.0801276
-0.0274504
-0.0274489
-0.0274495
-0.0274515
-0.0274551
-0.0274617
-0.144159
-0.144146
-0.144143
-0.144145
-0.144149
-0.144158
-0.0897427
-0.0897363
-0.0897378
-0.0897429
-0.0897514
-0.0897635
-0.0304107
-0.0304109
-0.0304132
-0.0304169
-0.0304221
-0.0304294
-0.169159
-0.169147
-0.169143
-0.169144
-0.169148
-0.169155
-0.105262
-0.105258
-0.105261
-0.105266
-0.105274
-0.105284
-0.034579
-0.0345801
-0.0345827
-0.0345861
-0.0345905
-0.0345962
-0.206326
-0.206315
-0.206311
-0.206312
-0.206317
-0.206326
-0.128418
-0.128414
-0.128416
-0.12842
-0.128427
-0.128437
-0.0387774
-0.0387775
-0.038779
-0.0387816
-0.0387856
-0.0387915
-0.260582
-0.260575
-0.26058
-0.260593
-0.260611
-0.260629
-0.162956
-0.162954
-0.162959
-0.16297
-0.162983
-0.162999
-0.0405861
-0.0405872
-0.0405905
-0.0405952
-0.0406017
-0.0406106
-0.340097
-0.340115
-0.340147
-0.340185
-0.340224
-0.340258
-0.216159
-0.216169
-0.216187
-0.216207
-0.216227
-0.216246
-0.0283427
-0.0283488
-0.0283562
-0.0283651
-0.0283738
-0.0283831
-0.457421
-0.45748
-0.457539
-0.457594
-0.457639
-0.45767
-0.306486
-0.306514
-0.306538
-0.306559
-0.306574
-0.306581
0.0203363
0.0203265
0.02032
0.02031
0.0203078
0.0203027
-0.625062
-0.625136
-0.625172
-0.625182
-0.625172
-0.625144
-0.484649
-0.484683
-0.484689
-0.484671
-0.484654
-0.484604
0.171539
0.17153
0.17155
0.171541
0.17158
0.171568
-0.898161
-0.898168
-0.898077
-0.897919
-0.89775
-0.897597
-0.835045
-0.835018
-0.834961
-0.834774
-0.834707
-0.834502
0.53857
0.53857
0.538678
0.538646
0.538827
0.538729
-1.37441
-1.37422
-1.37387
-1.37334
-1.37285
-1.37249
-1.49922
-1.49901
-1.499
-1.4981
-1.49827
-1.49726
1.39511
1.39514
1.39547
1.39535
1.39608
1.39553
-2.77487
-2.77446
-2.77397
-2.77239
-2.77109
-2.76973
-2.66185
-2.66153
-2.66204
-2.65913
-2.65923
-2.65441
2.63234
2.63244
2.6333
2.63345
2.63496
2.63342
)
;

boundaryField
{
    seabed_topleft_surface
    {
        type            fixedFluxPressure;
        gradient        uniform 0;
        value           nonuniform List<scalar> 
72
(
26934.1
26934.1
26934.1
26934.1
26934.1
26934.1
25643.9
25643.9
25643.9
25643.9
25643.9
25643.9
22635.6
22635.6
22635.6
22635.6
22635.6
22635.6
20238.2
20238.2
20238.2
20238.2
20238.2
20238.2
18725.7
18725.6
18725.6
18725.6
18725.6
18725.6
17539.5
17539.5
17539.5
17539.5
17539.5
17539.5
16306.4
16306.4
16306.4
16306.3
16306.3
16306.3
15197
15197
15197
15196.9
15196.9
15196.9
15027.6
15027.5
15027.5
15027.5
15027.5
15027.5
17814.9
17814.8
17814.8
17814.8
17814.7
17814.8
22769.4
22769.4
22769.4
22769.4
22769.4
22769.4
29991
29991
29991
29991
29991
29991
)
;
    }
    seabed_topright_surface
    {
        type            fixedFluxPressure;
        gradient        uniform 0;
        value           nonuniform List<scalar> 
72
(
-0.22436
-0.224363
-0.224372
-0.224386
-0.224398
-0.224406
-0.235651
-0.235669
-0.235684
-0.235697
-0.235706
-0.23571
-0.258641
-0.258669
-0.25868
-0.258684
-0.258681
-0.258674
-0.294041
-0.294065
-0.294065
-0.294054
-0.294037
-0.294018
-0.342972
-0.34298
-0.342965
-0.34294
-0.34291
-0.342882
-0.407126
-0.40711
-0.407077
-0.407037
-0.406995
-0.406959
-0.488277
-0.488228
-0.488168
-0.488105
-0.488046
-0.487999
-0.587455
-0.587363
-0.587271
-0.587184
-0.587109
-0.587055
-0.704178
-0.704057
-0.70396
-0.703878
-0.703819
-0.703788
-0.836415
-0.836324
-0.836279
-0.836262
-0.836271
-0.836297
-0.968395
-0.968409
-0.96847
-0.968559
-0.968664
-0.968769
-1.08165
-1.08173
-1.08179
-1.08184
-1.08187
-1.0819
)
;
    }
    breakwater_top_surface
    {
        type            fixedFluxPressure;
        gradient        uniform 0;
        value           nonuniform List<scalar> 
36
(
-5.30619
-5.30578
-5.30586
-5.30284
-5.29763
-5.29186
-8.26393
-8.26306
-8.2643
-8.26166
-8.24943
-8.24385
-15.4485
-15.4461
-15.4475
-15.4414
-15.4291
-15.4418
-13.7015
-13.7003
-13.7001
-13.697
-13.6824
-13.7186
304.767
304.885
304.579
305.054
306.879
302.301
5037.91
5037.47
5037.32
5038.4
5040.93
5034.21
)
;
    }
    breakwater_left_surface
    {
        type            fixedFluxPressure;
        gradient        uniform 0;
        value           nonuniform List<scalar> 
24
(
29991
29991
29991
29991
29991
29991
29841.7
29841.6
29841.6
29841.5
29841.4
29841.6
21084.9
21084.6
21084.8
21084.6
21083.8
21085.9
21627.7
21626.3
21627
21627.2
21626.7
21627.6
)
;
    }
    breakwater_right_surface
    {
        type            fixedFluxPressure;
        gradient        uniform 0;
        value           nonuniform List<scalar> 
24
(
-1.08165
-1.08173
-1.08179
-1.08184
-1.08187
-1.0819
-1.16425
-1.16441
-1.16446
-1.16443
-1.16434
-1.16424
-1.42078
-1.42076
-1.42056
-1.42021
-1.41982
-1.41947
-1.8339
-1.83358
-1.83298
-1.83216
-1.83139
-1.83082
)
;
    }
    water_front_surface
    {
        type            fixedFluxPressure;
        gradient        uniform 0;
        value           nonuniform List<scalar> 
186
(
26934.1
25643.9
22635.6
20238.2
18725.7
17539.5
16306.4
15197
15027.6
17814.9
22769.4
29991
25740.5
20748.2
17610.4
15904.9
14548.8
12846.8
10191.4
6992.49
3192.03
3773.45
10545.6
29841.7
13594.9
3389.5
1555.93
731.816
-51.4375
-57.9612
-50.1232
-40.3906
18.243
190.293
774.824
21084.9
-9.78295
-12.725
-7.79632
-13.1333
-12.6347
-14.2283
-28.1668
-50.7592
-60.7797
-31.8519
-21.7682
21627.7
-0.22436
-0.235651
-0.258641
-0.294041
-0.342972
-0.407126
-0.488277
-0.587455
-0.704178
-0.836415
-0.968395
-1.08165
-0.213359
-0.224654
-0.247728
-0.283427
-0.332969
-0.397516
-0.479384
-0.582866
-0.711204
-0.864783
-1.02028
-1.16425
-0.191793
-0.202543
-0.224664
-0.259401
-0.308979
-0.377229
-0.469415
-0.589042
-0.738476
-0.925785
-1.14088
-1.42078
-0.160597
-0.170136
-0.189917
-0.221404
-0.267136
-0.330735
-0.4178
-0.54153
-0.719508
-0.982555
-1.33527
-1.8339
-6.05207
-6.02181
-6.48258
-6.57321
-4.70947
-7.12666
-9.70305
-7.55539
-5.0811
-13.7794
-8.84116
-8.10939
-18.0852
-9.31289
-7.45862
-22.4406
-12.6468
-8.6431
-23.0126
-14.1217
-7.1821
-30.2008
-16.524
-4.81267
-37.3153
-16.6116
0.39907
-22.4993
7.10062
5.3474
-21.0977
23.2574
8.67147
8457.84
-64.8011
-21.9837
-5.30619
-5.53853
5.56232
-8.26393
-8.83143
9.65998
-15.4485
-10.6754
4.63012
-13.7015
67.2345
271.713
304.767
1640.32
386.681
5037.91
2023.81
-92.3514
-0.121243
-0.0755031
-0.0259553
-0.128664
-0.0801178
-0.0274504
-0.144159
-0.0897427
-0.0304107
-0.169159
-0.105262
-0.034579
-0.206326
-0.128418
-0.0387774
-0.260582
-0.162956
-0.0405861
-0.340097
-0.216159
-0.0283427
-0.457421
-0.306486
0.0203363
-0.625062
-0.484649
0.171539
-0.898161
-0.835045
0.53857
-1.37441
-1.49922
1.39511
-2.77487
-2.66185
2.63234
)
;
    }
    water_back_surface
    {
        type            fixedFluxPressure;
        gradient        uniform 0;
        value           nonuniform List<scalar> 
186
(
26934.1
25643.9
22635.6
20238.2
18725.6
17539.5
16306.3
15196.9
15027.5
17814.8
22769.4
29991
25740.5
20748.2
17610.5
15904.9
14548.8
12846.6
10191.2
6992.18
3191.87
3773.31
10545.2
29841.6
13595
3389.49
1555.93
731.761
-51.4381
-57.9639
-50.1238
-40.386
18.2307
190.245
774.776
21085.9
-9.78154
-12.725
-7.79505
-13.134
-12.6344
-14.23
-28.1694
-50.7445
-60.7849
-31.8656
-21.7867
21627.6
-0.224406
-0.23571
-0.258674
-0.294018
-0.342882
-0.406959
-0.487999
-0.587055
-0.703788
-0.836297
-0.968769
-1.0819
-0.213405
-0.224694
-0.247718
-0.283349
-0.332826
-0.397313
-0.479124
-0.582631
-0.711297
-0.865585
-1.02134
-1.16424
-0.191822
-0.20256
-0.224636
-0.259323
-0.308861
-0.377091
-0.469309
-0.589161
-0.739152
-0.926989
-1.14174
-1.41947
-0.160607
-0.170136
-0.189893
-0.221356
-0.267076
-0.330714
-0.417933
-0.541987
-0.720312
-0.983218
-1.33441
-1.83082
-6.05215
-6.02141
-6.48249
-6.57171
-4.70904
-7.12656
-9.70253
-7.55544
-5.08089
-13.7795
-8.84134
-8.10948
-18.0853
-9.31307
-7.45874
-22.4407
-12.647
-8.64291
-23.0116
-14.121
-7.18169
-30.1938
-16.523
-4.81244
-37.3114
-16.6136
0.398252
-22.4999
7.0984
5.34568
-21.1215
23.252
8.65901
8457.31
-64.8119
-22.0221
-5.29186
-5.49853
5.55058
-8.24385
-8.70989
9.61351
-15.4418
-10.6201
4.6098
-13.7186
66.3458
270.461
302.301
1636.36
386.072
5034.21
2023.1
-92.3138
-0.121242
-0.0755033
-0.0259594
-0.128664
-0.0801276
-0.0274617
-0.144158
-0.0897635
-0.0304294
-0.169155
-0.105284
-0.0345962
-0.206326
-0.128437
-0.0387915
-0.260629
-0.162999
-0.0406106
-0.340258
-0.216246
-0.0283831
-0.45767
-0.306581
0.0203027
-0.625144
-0.484604
0.171568
-0.897597
-0.834502
0.538729
-1.37249
-1.49726
1.39553
-2.76973
-2.65441
2.63342
)
;
    }
    water_left_surface
    {
        type            fixedFluxPressure;
        gradient        uniform 0;
        value           nonuniform List<scalar> 
42
(
26934.1
26934.1
26934.1
26934.1
26934.1
26934.1
25740.5
25740.5
25740.5
25740.5
25740.5
25740.5
13594.9
13594.7
13594.8
13594.9
13594.9
13595
-9.78295
-9.78273
-9.78274
-9.78227
-9.78157
-9.78154
-6.05207
-6.0519
-6.05195
-6.05202
-6.05201
-6.05215
-6.02181
-6.02164
-6.02152
-6.02143
-6.02137
-6.02141
-6.48258
-6.48271
-6.48269
-6.48262
-6.48254
-6.48249
)
;
    }
    water_right_surface
    {
        type            fixedFluxPressure;
        gradient        uniform 0;
        value           nonuniform List<scalar> 
42
(
-0.22436
-0.224363
-0.224372
-0.224386
-0.224398
-0.224406
-0.213359
-0.213361
-0.213372
-0.213386
-0.213398
-0.213405
-0.191793
-0.191791
-0.191798
-0.191808
-0.191817
-0.191822
-0.160597
-0.16059
-0.160593
-0.160598
-0.160603
-0.160607
-0.121243
-0.121234
-0.121234
-0.121235
-0.121238
-0.121242
-0.0755031
-0.0754964
-0.0754957
-0.0754961
-0.0754983
-0.0755033
-0.0259553
-0.0259536
-0.0259534
-0.0259539
-0.0259555
-0.0259594
)
;
    }
    water_top_surface
    {
        type            totalPressure;
        rho             rho;
        psi             none;
        gamma           1;
        p0              uniform 0;
        value           nonuniform List<scalar> 
180
(
-6.44101
-6.44136
-6.44126
-6.44104
-6.44099
-6.44078
-7.39613
-7.39682
-7.39674
-7.39676
-7.39684
-7.39635
-3.16697
-3.16707
-3.16691
-3.16685
-3.16683
-3.16658
-5.3495
-5.34984
-5.34974
-5.34974
-5.34984
-5.34948
-3.74737
-3.74775
-3.74782
-3.74791
-3.74805
-3.7478
-4.5533
-4.5536
-4.55362
-4.55364
-4.5537
-4.55333
-4.30687
-4.30692
-4.30675
-4.30662
-4.30651
-4.30622
-2.93232
-2.93226
-2.93205
-2.93191
-2.93178
-2.93162
-1.11222
-1.11203
-1.1118
-1.11165
-1.11165
-1.11186
0
0
0
0
0
0
0
0
0
0
0
0
-6.06094
-6.04964
-6.04802
-6.04785
-6.08936
-5.99838
-0.00724779
-0.00723086
-0.00725213
-0.00719463
-0.00686311
-0.00758754
0
0
0
0
0
0
0
0
0
0
0
0
0
0
0
0
0
0
0
0
0
0
0
0
-0.56078
-0.559197
-0.560604
-0.557619
-0.554497
-0.56214
-8.34436e-05
-8.34433e-05
-8.34431e-05
-8.34431e-05
-8.34434e-05
-8.34432e-05
-9.41241e-05
-9.41225e-05
-9.41218e-05
-9.41218e-05
-9.41224e-05
-9.41229e-05
-0.000118123
-0.000118118
-0.000118116
-0.000118116
-0.000118118
-0.000118121
-0.00016177
-0.000161754
-0.000161751
-0.000161753
-0.000161761
-0.000161775
-0.00023583
-0.000235798
-0.000235798
-0.000235813
-0.000235843
-0.000235889
-0.000358197
-0.000358165
-0.000358196
-0.000358259
-0.000358355
-0.00035849
-0.000543719
-0.000543808
-0.000543962
-0.000544156
-0.000544395
-0.000544697
-0.000808536
-0.000809069
-0.00080948
-0.000809856
-0.000810201
-0.000810548
-0.000975362
-0.000976516
-0.000976924
-0.000977062
-0.000976788
-0.000976301
-0.000885283
-0.000886282
-0.000885604
-0.000884603
-0.000882381
-0.000880532
0
0
0
0
0
0
0
0
0
0
0
0
)
;
    }
}


// ************************************************************************* //
