/*--------------------------------*- C++ -*----------------------------------*\
| =========                 |                                                 |
| \\      /  F ield         | OpenFOAM: The Open Source CFD Toolbox           |
|  \\    /   O peration     | Version:  v1612+                                |
|   \\  /    A nd           | Web:      www.OpenFOAM.com                      |
|    \\/     M anipulation  |                                                 |
\*---------------------------------------------------------------------------*/
FoamFile
{
    version     2.0;
    format      ascii;
    class       surfaceScalarField;
    location    "0.7";
    object      alphaPhi;
}
// * * * * * * * * * * * * * * * * * * * * * * * * * * * * * * * * * * * * * //

dimensions      [0 3 -1 0 0 0 0];

internalField   nonuniform List<scalar> 
2916
(
7.76976e-09
0.0820757
-0.0820757
-1.09924e-07
0.0820761
-0.0820759
-2.00296e-07
0.0820761
-0.082076
-1.90287e-07
0.0820761
-0.0820761
-7.86795e-08
0.0820761
-0.0820761
0.082076
-0.082076
3.86182e-07
0.22486
-0.142785
7.31007e-07
0.224861
-0.142785
1.09186e-06
0.224861
-0.142785
1.19542e-06
0.22486
-0.142784
8.39796e-07
0.22486
-0.142784
0.22486
-0.142783
6.64458e-07
0.481409
-0.256549
1.1432e-06
0.48141
-0.25655
1.45769e-06
0.481409
-0.256549
1.4847e-06
0.481409
-0.256549
8.8637e-07
0.481409
-0.256548
0.481408
-0.256547
2.9253e-07
1.06554
-0.58413
4.62474e-07
1.06554
-0.58413
4.80885e-07
1.06554
-0.58413
5.06986e-07
1.06554
-0.58413
2.59328e-07
1.06554
-0.58413
1.06554
-0.584129
-3.30579e-07
0.00790309
-0.133269
-3.32825e-07
0.00790322
-0.133269
-5.32048e-07
0.00790329
-0.133268
-7.51174e-07
0.00790335
-0.133268
-1.49174e-06
0.00790324
-0.133268
0.00790343
-0.133269
-1.3074e-07
8.85719e-05
0.00694805
-3.04714e-07
8.85734e-05
0.00694826
-4.84234e-07
8.85746e-05
0.00694834
-5.86868e-07
8.85749e-05
0.00694831
-7.93035e-07
8.85804e-05
0.00694826
8.85746e-05
0.00694747
-1.94142e-09
4.86652e-07
7.44474e-05
-9.42782e-09
4.86576e-07
7.44561e-05
-8.26636e-09
4.8649e-07
7.44494e-05
-4.63341e-09
4.86463e-07
7.44473e-05
-7.97616e-10
4.86471e-07
7.44519e-05
4.86448e-07
7.44492e-05
-2.17077e-11
1.01421e-09
3.99633e-07
-2.91904e-11
1.01403e-09
3.99578e-07
-1.10542e-11
1.01369e-09
3.99473e-07
1.01395e-11
1.01369e-09
3.99435e-07
1.60401e-11
1.01379e-09
3.99453e-07
1.01375e-09
3.99448e-07
-9.0369e-14
8.25194e-13
7.29014e-10
4.25095e-13
8.23508e-13
7.28269e-10
5.69562e-13
8.23184e-13
7.28271e-10
4.43432e-13
8.23428e-13
7.28446e-10
2.35008e-13
8.23513e-13
7.28529e-10
8.23435e-13
7.28477e-10
1.99796e-15
1.00282e-15
3.69304e-13
2.9172e-15
1.00098e-15
3.68705e-13
2.84894e-15
1.0002e-15
3.6921e-13
2.24717e-15
9.9976e-16
3.69729e-13
1.30979e-15
9.99403e-16
3.69897e-13
9.98903e-16
3.70074e-13
3.31615e-18
2.9147e-16
2.49145e-16
4.10248e-18
2.91529e-16
2.48246e-16
3.86747e-18
2.91593e-16
2.47486e-16
3.10239e-18
2.9166e-16
2.46821e-16
1.87864e-18
2.91721e-16
2.46305e-16
2.91769e-16
2.45973e-16
1.30858e-22
3.09479e-19
1.94696e-22
3.10695e-19
2.62559e-22
3.11315e-19
2.47864e-22
3.11787e-19
1.43355e-22
3.12244e-19
3.12749e-19
-3.18072e-07
0.0227596
-0.104835
-7.69652e-07
0.0227598
-0.104835
-9.99581e-07
0.0227595
-0.104835
-8.52213e-07
0.022759
-0.104835
-3.73948e-07
0.0227585
-0.104835
0.0227581
-0.104835
2.27543e-07
0.0833602
-0.203385
3.88982e-07
0.0833604
-0.203386
6.72506e-07
0.08336
-0.203385
8.10405e-07
0.0833593
-0.203385
4.75677e-07
0.0833586
-0.203384
0.0833581
-0.203383
4.81341e-07
0.211473
-0.384663
1.12216e-06
0.211473
-0.384663
1.55215e-06
0.211473
-0.384662
1.4683e-06
0.211472
-0.384661
7.6364e-07
0.211471
-0.38466
0.21147
-0.384659
3.84514e-07
0.490941
-0.863598
7.07797e-07
0.490941
-0.863598
7.75622e-07
0.49094
-0.863597
5.65759e-07
0.490939
-0.863596
2.50932e-07
0.490938
-0.863596
0.490937
-0.863595
-8.4122e-09
-0.00619694
-0.000145588
-1.30499e-07
-0.00619722
-0.000145582
-1.8256e-07
-0.00619729
-0.000145579
-3.13862e-07
-0.00619728
-0.000145576
-7.00979e-07
-0.00619722
-0.000145573
-0.00619637
-0.000145558
-2.20094e-08
-6.89138e-05
0.000463614
-4.02855e-08
-6.8924e-05
0.000463589
-5.05761e-08
-6.89166e-05
0.000463586
-8.27469e-08
-6.89154e-05
0.000463582
-9.03013e-08
-6.89212e-05
0.000463574
-6.89189e-05
0.000463536
4.12797e-10
-3.56521e-07
3.73015e-06
5.00775e-10
-3.56474e-07
3.72984e-06
1.83697e-09
-3.56386e-07
3.72947e-06
2.28048e-09
-3.56358e-07
3.72931e-06
1.55096e-09
-3.56381e-07
3.72932e-06
-3.56373e-07
3.7293e-06
4.00902e-12
-7.63466e-10
3.94162e-08
1.45075e-11
-7.62777e-10
3.94077e-08
1.64704e-11
-7.62775e-10
3.93989e-08
1.24609e-11
-7.62931e-10
3.93938e-08
4.39932e-12
-7.63011e-10
3.93905e-08
-7.62941e-10
3.93862e-08
2.25613e-14
-5.38749e-13
3.35518e-11
3.30922e-14
-5.3791e-13
3.35178e-11
2.87579e-14
-5.40035e-13
3.35154e-11
1.97139e-14
-5.42259e-13
3.35225e-11
1.00459e-14
-5.43619e-13
3.35241e-11
-5.4448e-13
3.35247e-11
6.02041e-18
-2.43615e-18
9.15946e-16
2.6688e-18
-2.41604e-18
9.13155e-16
1.12727e-19
-2.41135e-18
9.12287e-16
-4.66904e-19
-2.41069e-18
9.12064e-16
-4.97084e-19
-2.4079e-18
9.11666e-16
-2.40551e-18
9.11604e-16
-1.59038e-21
-6.51372e-23
1.36418e-18
-3.47556e-21
-6.49755e-23
1.3709e-18
-4.07751e-21
-6.48805e-23
1.37595e-18
-3.57992e-21
-6.48297e-23
1.38025e-18
-2.17428e-21
-6.48066e-23
1.3837e-18
-6.48078e-23
1.38625e-18
-6.3602e-25
6.9414e-23
-7.95467e-25
6.99291e-23
-7.44548e-25
7.0179e-23
-5.8893e-25
7.03737e-23
-3.4752e-25
7.05621e-23
7.07733e-23
-7.56407e-07
-0.0694831
-0.0353509
-1.41368e-06
-0.0694835
-0.035351
-1.4956e-06
-0.0694842
-0.0353509
-1.06447e-06
-0.0694848
-0.0353507
-4.01404e-07
-0.0694853
-0.0353503
-0.0694852
-0.03535
-4.29325e-08
-0.124652
-0.148216
-2.37502e-07
-0.124653
-0.148216
-2.2389e-07
-0.124654
-0.148216
-1.46539e-07
-0.124655
-0.148215
-1.58329e-07
-0.124655
-0.148213
-0.124655
-0.148213
5.62861e-07
-0.10573
-0.403586
9.2526e-07
-0.10573
-0.403586
8.10751e-07
-0.105731
-0.403585
3.3605e-07
-0.105732
-0.403583
-2.49191e-08
-0.105732
-0.403582
-0.105733
-0.403582
4.01989e-07
-3.25895e-05
-0.929101
1.28397e-07
-3.25885e-05
-0.929101
-3.10137e-07
-3.25902e-05
-0.9291
-4.54158e-07
-3.25933e-05
-0.929099
-3.2528e-07
-3.25953e-05
-0.929097
-3.25931e-05
-0.929096
-2.02642e-12
-0.000178545
-1.42612e-08
1.07588e-11
-0.000178538
-1.42591e-08
-7.742e-12
-0.000178536
-1.42585e-08
2.56863e-12
-0.000178537
-1.42583e-08
2.78041e-11
-0.000178536
-1.42583e-08
-0.000178519
-1.42581e-08
-2.02672e-10
-7.6279e-07
2.46476e-06
9.52856e-10
-7.62689e-07
2.46476e-06
3.53653e-09
-7.62576e-07
2.4647e-06
5.21715e-09
-7.62528e-07
2.46467e-06
4.87795e-09
-7.62519e-07
2.46459e-06
-7.62468e-07
2.46421e-06
1.71335e-12
-3.92885e-08
9.18582e-09
4.47232e-11
-3.928e-08
9.19188e-09
6.94284e-11
-3.92713e-08
9.19072e-09
6.3009e-11
-3.92664e-08
9.18986e-09
3.37063e-11
-3.9263e-08
9.19072e-09
-3.92587e-08
9.18787e-09
6.68085e-14
-3.35178e-11
1.41767e-10
1.47653e-13
-3.3484e-11
1.41667e-10
1.41324e-13
-3.34816e-11
1.41627e-10
8.92235e-14
-3.34887e-11
1.41622e-10
3.06786e-14
-3.34902e-11
1.41626e-10
-3.34908e-11
1.4164e-10
1.21147e-16
-1.0452e-15
3.05816e-14
9.02092e-17
-1.04303e-15
3.05498e-14
4.61631e-17
-1.04333e-15
3.05441e-14
1.56862e-17
-1.04417e-15
3.05487e-14
-2.85539e-18
-1.04448e-15
3.05509e-14
-1.04466e-15
3.05529e-14
-6.79207e-21
-2.03877e-21
1.13602e-17
-2.25756e-20
-2.04802e-21
1.13633e-17
-2.92722e-20
-2.05494e-21
1.14327e-17
-2.71093e-20
-2.06082e-21
1.14949e-17
-1.77617e-20
-2.06545e-21
1.15269e-17
-2.06867e-21
1.15461e-17
-4.91569e-24
-3.90194e-26
2.19353e-22
-7.25576e-24
-3.92697e-26
2.21228e-22
-7.63403e-24
-3.93966e-26
2.2255e-22
-6.49732e-24
-3.94984e-26
2.23633e-22
-4.03031e-24
-3.96052e-26
2.2444e-22
-3.97397e-26
2.24984e-22
-1.06867e-28
-0
-1.25978e-28
-0
-1.15765e-28
-0
-8.6685e-29
-0
-4.54654e-29
-0
-0
-7.44234e-07
-0.16964
0.134289
-1.09107e-06
-0.16964
0.13429
-9.89133e-07
-0.169641
0.13429
-4.68586e-07
-0.169641
0.13429
3.21327e-08
-0.169641
0.13429
-0.16964
0.13429
-5.12054e-07
-0.355888
0.0380329
-1.11651e-06
-0.355889
0.0380331
-1.49364e-06
-0.355889
0.0380335
-1.44454e-06
-0.35589
0.038034
-9.95788e-07
-0.355889
0.0380346
-0.355888
0.0380348
-5.22245e-07
-0.469104
-0.290347
-9.78794e-07
-0.469105
-0.290348
-1.66171e-06
-0.469105
-0.290347
-2.09594e-06
-0.469105
-0.290346
-1.63458e-06
-0.469105
-0.290346
-0.469104
-0.290346
4.87743e-07
-2.29316e-06
-0.989761
3.73041e-07
-2.29313e-06
-0.989761
7.84205e-07
-2.29309e-06
-0.989761
4.88616e-07
-2.29308e-06
-0.98976
-5.1874e-07
-2.29302e-06
-0.989759
-2.29271e-06
-0.989757
-2.33095e-13
-2.32635e-06
1.31998e-08
3.73158e-13
-2.32632e-06
1.32005e-08
1.46804e-12
-2.32627e-06
1.32002e-08
1.93887e-12
-2.32626e-06
1.32003e-08
1.42894e-12
-2.3262e-06
1.32e-08
-2.32589e-06
1.31979e-08
1.02857e-11
1.50301e-08
1.88487e-08
4.54558e-11
1.503e-08
1.88491e-08
7.81249e-11
1.503e-08
1.88478e-08
9.31527e-11
1.50296e-08
1.88483e-08
7.71488e-11
1.50282e-08
1.8849e-08
1.5026e-08
1.88451e-08
-1.83516e-15
-1.41477e-10
7.6737e-11
1.66211e-13
-1.41376e-10
7.67379e-11
1.89802e-13
-1.41335e-10
7.67262e-11
1.63845e-13
-1.4133e-10
7.67295e-11
1.71311e-13
-1.41336e-10
7.67412e-11
-1.41352e-10
7.67285e-11
2.83228e-16
-3.05409e-14
2.93987e-13
3.4473e-16
-3.05091e-14
2.93761e-13
2.85706e-16
-3.05032e-14
2.93714e-13
1.94693e-16
-3.05077e-14
2.93722e-13
1.37491e-16
-3.05099e-14
2.93736e-13
-3.05119e-14
2.93691e-13
-3.92354e-21
-4.01477e-20
6.71131e-17
-4.90716e-20
-4.0177e-20
6.70895e-17
-6.33444e-20
-4.03992e-20
6.71427e-17
-5.76953e-20
-4.05951e-20
6.71911e-17
-3.22852e-20
-4.06929e-20
6.72021e-17
-4.07424e-20
6.72064e-17
-2.94658e-23
-3.50499e-25
-0
-4.53547e-23
-3.53309e-25
-0
-4.71317e-23
-3.55321e-25
-0
-3.96297e-23
-3.56989e-25
-0
-2.4224e-23
-3.58239e-25
-0
-3.59072e-25
-0
-3.53753e-28
-0
0
-5.21127e-28
-0
0
-5.50235e-28
-0
0
-4.74072e-28
-0
0
-3.01689e-28
-0
0
-0
0
0
0
0
0
0
0
0
0
0
0
0
0
0
0
0
0
0
0
0
0
0
0
0
0
0
0
0
0
0
0
0
0
0
0
0
0
0
0
0
0
0
0
0
0
0
0
0
0
0
0
0
0
0
0
0
0
0
0
0
0
0
0
0
0
0
0
0
0
0
0
0
0
0
0
0
0
0
0
0
0
0
0
0
0
0
0
0
0
0
0
0
0
0
0
0
0
0
0
0
0
0
0
0
0
0
0
0
0
0
0
0
0
0
0
0
0
0
0
0
0
0
0
0
0
0
0
0
0
0
0
0
0
0
0
0
0
0
0
0
0
0
0
0
0
0
0
0
0
0
0
0
0
0
0
0
0
0
0
0
0
0
0
0
0
0
0
0
0
0
0
0
0
0
0
0
0
0
0
0
0
0
0
0
0
0
0
0
0
0
0
0
0
0
0
0
0
0
0
0
0
0
0
0
0
0
0
0
0
0
0
0
0
0
0
0
0
0
0
0
0
0
0
0
0
0
0
0
0
0
0
0
0
0
0
0
0
0
0
0
0
0
0
0
0
0
0
0
0
0
0
0
0
0
0
0
0
0
0
0
0
0
0
0
0
0
0
0
0
0
0
0
0
0
0
0
0
0
0
0
0
0
0
0
0
0
0
0
0
0
0
0
0
0
0
0
0
0
0
0
0
0
0
0
0
0
0
0
0
0
0
0
0
0
0
0
0
0
0
0
0
0
0
0
0
0
0
0
0
0
0
0
0
0
0
0
0
0
0
0
0
0
0
0
0
0
0
0
0
0
0
0
0
0
0
0
0
0
0
0
0
0
0
0
0
0
0
0
0
0
0
0
0
0
0
0
0
0
0
0
0
0
0
0
0
0
0
0
0
0
0
0
0
0
0
0
0
0
0
0
0
0
0
0
0
0
0
0
0
0
0
0
0
0
0
0
0
0
0
0
0
0
0
0
0
0
0
0
0
0
0
0
0
0
0
0
0
0
0
0
0
0
0
0
0
0
0
0
0
0
0
0
0
0
0
0
0
0
0
0
0
0
0
0
0
0
0
0
0
0
0
0
0
0
0
0
0
0
0
0
0
0
0
0
0
0
0
0
0
0
0
0
0
0
0
0
0
0
0
0
0
0
0
0
0
0
0
0
0
0
0
0
0
0
0
0
0
0
0
0
0
0
0
0
0
0
0
0
0
0
0
0
0
0
0
0
0
0
0
0
0
0
0
0
0
0
0
0
0
0
0
0
0
0
0
0
0
0
0
0
0
0
0
0
0
0
0
0
0
0
0
0
0
0
0
0
0
0
0
0
0
0
0
0
0
0
0
0
0
0
0
0
0
0
0
0
0
0
0
0
0
0
0
0
0
0
0
0
0
0
0
0
0
0
0
0
0
0
0
0
0
0
0
0
0
0
0
0
0
0
0
0
0
0
0
0
0
0
0
0
0
0
0
0
0
0
0
0
0
0
0
0
0
0
0
0
0
0
0
0
0
0
0
0
0
0
0
0
0
0
0
0
0
0
0
0
0
0
0
0
0
0
0
0
0
0
0
0
0
0
0
0
0
0
0
0
0
0
0
0
0
0
0
0
0
0
0
0
0
0
0
0
0
0
0
0
0
0
0
0
0
0
0
0
0
0
0
0
0
0
0
0
0
0
0
0
0
0
0
0
0
0
0
0
0
0
0
0
0
0
0
0
0
0
0
0
0
0
0
0
0
0
0
0
0
0
0
0
0
0
0
0
0
0
0
0
0
0
0
0
0
0
0
0
0
0
0
0
0
0
0
0
0
0
0
0
0
0
0
0
0
0
0
0
-2.9438e-07
0.441152
-0.306862
-5.09097e-07
0.441152
-0.306862
-6.00421e-07
0.441152
-0.306862
-5.01502e-07
0.441152
-0.306862
-2.50344e-07
0.441152
-0.306862
0.441152
-0.306862
1.66463e-07
0.764449
-0.323295
-3.87874e-08
0.76445
-0.323295
-1.156e-07
0.76445
-0.323296
-1.47105e-07
0.76445
-0.323296
1.97094e-08
0.76445
-0.323296
0.76445
-0.323295
8.55435e-07
-0.464645
4.08332e-07
-0.464644
1.57578e-07
-0.464644
1.83708e-07
-0.464644
5.30806e-07
-0.464644
-0.464642
-4.6952e-07
0.394332
-0.663158
-7.64758e-07
0.394332
-0.663159
-8.93182e-07
0.394332
-0.663159
-7.79042e-07
0.394332
-0.663159
-4.00776e-07
0.394332
-0.663159
0.394332
-0.663158
-4.17104e-07
0.887912
-0.816848
-5.70973e-07
0.887912
-0.816849
-6.79154e-07
0.887912
-0.816849
-6.8546e-07
0.887912
-0.816849
-2.37802e-07
0.887912
-0.816849
0.887911
-0.816848
-4.8428e-07
-1.31452
-1.8111e-07
-1.31452
4.30554e-08
-1.31452
-1.69833e-07
-1.31452
-9.23651e-08
-1.31452
-1.31451
-4.4647e-07
-0.00617064
-0.947095
-8.32198e-07
-0.00617115
-0.947096
-8.63237e-07
-0.00617088
-0.947096
-6.94209e-07
-0.00617079
-0.947095
-3.52503e-07
-0.00617087
-0.947095
-0.00617127
-0.947094
5.23868e-08
1.18382
-1.67416
-1.79679e-08
1.18382
-1.67416
-1.06587e-07
1.18382
-1.67416
-8.77971e-08
1.18382
-1.67416
4.35541e-08
1.18382
-1.67416
1.18382
-1.67416
-6.57675e-07
-1.88075
-9.71366e-09
-1.88075
5.93963e-07
-1.88075
1.29223e-06
-1.88075
1.23273e-06
-1.88075
-1.88074
-2.31173e-07
-0.646003
-3.11068e-08
-8.99332e-07
-0.646003
-3.11075e-08
-8.25949e-07
-0.646003
-3.11063e-08
-5.9478e-07
-0.646003
-3.11067e-08
-7.17184e-07
-0.646003
-3.11069e-08
-0.646001
-3.11015e-08
7.49271e-08
0.170067
-5.41204e-10
-8.57207e-07
0.170067
-5.41222e-10
-5.78672e-07
0.170067
-5.41186e-10
-2.22347e-07
0.170067
-5.41197e-10
-8.52068e-07
0.170067
-5.41217e-10
0.170067
-5.41123e-10
9.0539e-08
-0
-5.73533e-07
-0
-3.90479e-07
-0
-1.35636e-07
-0
-5.17838e-07
-0
-0
-4.94985e-15
1.54706e-10
-1.81554e-08
-3.85523e-15
1.54712e-10
-1.81555e-08
7.23725e-16
1.54706e-10
-1.81546e-08
3.96873e-15
1.54708e-10
-1.81549e-08
4.38295e-15
1.54712e-10
-1.81554e-08
1.54695e-10
-1.81521e-08
-5.81014e-17
-0
-3.86516e-10
-1.06746e-16
-0
-3.86527e-10
-1.47622e-16
-0
-3.86498e-10
-1.5208e-16
-0
-3.86506e-10
-1.38502e-16
-0
-3.86523e-10
-0
-3.86445e-10
0
0
0
0
0
0
0
0
0
0
0
-8.64895e-14
3.86515e-10
-7.75351e-11
8.56946e-14
3.86529e-10
-7.75358e-11
5.08087e-14
3.86497e-10
-7.75241e-11
1.00394e-13
3.86506e-10
-7.75273e-11
3.4157e-13
3.86524e-10
-7.75389e-11
3.86444e-10
-7.75261e-11
-1.18402e-15
-0
-0
3.59288e-16
-0
-0
1.69253e-16
-0
-0
5.47291e-16
-0
-0
1.84722e-15
-0
-0
-0
-0
0
0
0
0
0
0
0
0
0
0
0
6.4918e-18
-0
-4.193e-13
-3.85356e-17
-0
-4.18951e-13
-3.84487e-16
-0
-4.18856e-13
-4.52919e-16
-0
-4.1887e-13
-7.51045e-17
-0
-4.18919e-13
-0
-4.18908e-13
0
0
0
0
0
0
0
0
0
0
0
0
0
0
0
0
0
0
0
0
0
0
0
0
0
0
0
0
1.14358e-19
-0
-4.38131e-19
2.56077e-20
-0
-4.37984e-19
-8.92571e-21
-0
-4.38379e-19
4.06826e-21
-0
-4.38734e-19
2.79796e-20
-0
-4.38817e-19
-0
-4.38845e-19
0
0
0
0
0
0
0
0
0
0
0
0
0
0
0
0
0
0
0
0
0
0
0
0
0
0
0
0
-2.28963e-23
-0
-0
-2.79706e-23
-0
-0
-1.99834e-23
-0
-0
-9.83243e-24
-0
-0
-1.43458e-24
-0
-0
-0
-0
0
0
0
0
0
0
0
0
0
0
0
0
0
0
0
0
0
0
0
0
0
0
0
0
0
0
0
0
0
0
0
0
0
0
0
0
0
0
0
0
0
0
0
0
0
0
0
0
0
0
0
0
0
0
0
0
0
0
0
0
0
0
0
0
0
0
0
0
0
0
0
0
0
0
0
0
0
0
0
0
0
0
0
0
0
0
0
0
0
0
0
0
0
0
0
0
0
0
0
0
0
0
0
0
0
0
0
0
0
0
0
0
0
0
0
0
0
0
0
0
0
0
0
0
0
0
0
0
0
0
0
0
0
0
0
0
0
0
0
0
0
0
0
0
0
0
0
0
0
0
0
0
0
0
0
0
0
0
0
0
0
0
0
0
0
0
0
0
0
0
0
0
0
0
0
0
0
0
0
0
0
0
0
0
0
0
0
0
0
0
0
0
0
0
0
0
0
0
0
0
0
0
0
0
0
0
0
0
0
0
0
0
0
0
0
0
0
0
0
0
0
0
0
0
0
0
0
0
0
0
0
0
0
0
0
0
0
0
0
0
0
0
0
0
0
0
0
0
0
0
0
0
0
0
0
0
0
0
0
0
0
0
0
0
0
0
0
0
0
0
0
0
0
0
0
0
0
0
0
0
0
0
0
0
0
0
0
0
0
0
0
0
0
0
0
0
0
0
0
0
0
0
0
0
0
0
0
0
0
0
0
0
0
0
0
0
0
0
0
0
0
0
0
0
0
0
0
0
0
0
0
0
0
0
0
0
0
0
0
0
0
0
0
0
0
0
0
0
0
0
0
0
0
0
0
0
0
0
0
0
0
0
0
0
0
0
0
0
0
0
0
0
0
0
0
0
0
0
0
0
0
0
0
0
0
0
0
0
0
0
0
0
0
0
0
0
0
0
0
0
0
0
0
0
0
0
0
0
0
0
0
0
0
0
0
0
0
0
0
0
0
0
0
0
0
0
0
0
0
0
0
0
0
0
0
0
0
0
0
0
0
0
0
0
0
0
0
0
0
0
0
0
0
0
0
0
0
0
0
0
0
0
0
0
0
0
0
0
0
0
0
0
0
0
0
0
0
0
0
0
0
0
0
0
0
0
0
0
0
0
0
0
0
0
0
0
0
0
0
0
0
0
0
0
0
0
0
0
0
0
0
0
0
0
0
0
0
0
0
0
0
0
0
0
0
0
0
0
0
0
0
0
0
0
0
0
0
0
0
0
0
0
0
0
0
0
0
0
0
0
0
0
0
0
0
0
0
0
0
0
0
0
0
0
0
0
0
0
0
0
0
0
0
0
0
0
0
0
0
0
0
0
0
0
0
0
0
0
0
0
0
0
0
0
0
0
0
0
0
0
0
0
0
0
0
0
0
0
0
0
0
0
0
0
0
0
0
0
0
0
0
0
0
0
0
0
0
0
0
0
0
0
0
0
0
0
0
0
0
0
0
0
0
0
0
0
0
0
0
0
0
0
0
0
0
0
0
0
0
0
0
0
0
0
0
0
0
0
0
0
0
0
0
0
0
0
0
0
0
0
0
0
0
0
0
0
0
0
0
0
0
0
0
0
0
0
0
0
0
0
0
0
0
0
0
0
0
0
0
0
0
0
0
0
0
0
0
0
0
0
0
0
0
0
0
0
0
0
0
0
0
0
0
0
0
0
0
0
0
0
0
0
0
0
0
0
0
0
0
0
0
0
0
0
0
0
0
0
0
0
0
0
0
0
0
0
0
0
0
0
0
0
0
0
0
0
0
0
0
0
0
0
0
0
0
0
0
0
0
0
0
0
0
0
0
0
0
0
0
0
0
0
0
0
0
0
0
0
0
0
0
0
0
0
0
0
0
0
0
0
0
0
0
0
0
0
0
0
0
0
0
0
0
0
0
0
0
0
0
0
0
0
0
0
0
0
0
0
0
0
0
0
0
0
0
0
0
0
0
0
0
0
0
0
0
0
0
0
0
0
0
0
0
0
0
0
0
0
0
0
0
0
0
0
0
0
0
0
0
0
0
0
0
0
0
0
0
0
0
0
0
0
0
0
0
0
0
0
0
0
0
0
0
0
0
0
0
0
0
0
0
0
0
0
0
0
0
0
0
0
0
0
0
0
0
0
0
0
0
0
0
0
0
0
0
0
0
0
0
0
0
0
0
0
0
)
;

boundaryField
{
    seabed_topleft_surface
    {
        type            calculated;
        value           uniform 0;
    }
    seabed_topright_surface
    {
        type            calculated;
        value           uniform 0;
    }
    breakwater_top_surface
    {
        type            calculated;
        value           uniform 0;
    }
    breakwater_left_surface
    {
        type            calculated;
        value           uniform 0;
    }
    breakwater_right_surface
    {
        type            calculated;
        value           uniform 0;
    }
    water_front_surface
    {
        type            calculated;
        value           uniform 0;
    }
    water_back_surface
    {
        type            calculated;
        value           uniform 0;
    }
    water_left_surface
    {
        type            calculated;
        value           uniform 0;
    }
    water_right_surface
    {
        type            calculated;
        value           uniform 0;
    }
    water_top_surface
    {
        type            calculated;
        value           nonuniform List<scalar> 
180
(
1.22913
1.22913
1.22913
1.22913
1.22913
1.22913
1.73801
1.73801
1.73801
1.73801
1.73801
1.73801
3.03617
3.03617
3.03617
3.03617
3.03617
3.03617
0.670784
0.670784
0.670783
0.670783
0.670784
0.670784
0
0
0
0
0
0
0
0
0
0
0
0
0
0
0
0
0
0
0
0
0
0
0
0
0
0
0
0
0
0
0
0
0
0
0
0
0
0
0
0
0
0
0
0
0
0
0
0
0
0
0
0
0
0
0
0
0
0
0
0
0
0
0
0
0
0
0
0
0
0
0
0
0
0
0
0
0
0
0
0
0
0
0
0
0
0
0
0
0
0
0
0
0
0
0
0
0
0
0
0
0
0
0
0
0
0
0
0
0
0
0
0
0
0
0
0
0
0
0
0
0
0
0
0
0
0
0
0
0
0
0
0
0
0
0
0
0
0
0
0
0
0
0
0
0
0
0
0
0
0
0
0
0
0
0
0
)
;
    }
}


// ************************************************************************* //
