/*--------------------------------*- C++ -*----------------------------------*\
| =========                 |                                                 |
| \\      /  F ield         | OpenFOAM: The Open Source CFD Toolbox           |
|  \\    /   O peration     | Version:  v1612+                                |
|   \\  /    A nd           | Web:      www.OpenFOAM.com                      |
|    \\/     M anipulation  |                                                 |
\*---------------------------------------------------------------------------*/
FoamFile
{
    version     2.0;
    format      ascii;
    class       volScalarField;
    location    "0.7";
    object      p_rgh;
}
// * * * * * * * * * * * * * * * * * * * * * * * * * * * * * * * * * * * * * //

dimensions      [1 -1 -2 0 0 0 0];

internalField   nonuniform List<scalar> 
1116
(
22302.8
22302.8
22302.8
22302.8
22302.9
22302.9
21334.7
21334.7
21334.7
21334.7
21334.7
21334.7
19852.4
19852.4
19852.4
19852.4
19852.4
19852.4
13805.6
13805.6
13805.6
13805.6
13805.6
13805.6
1393.37
1393.37
1393.37
1393.37
1393.37
1393.37
43.4123
43.4122
43.4128
43.4133
43.4135
43.4145
36.0726
36.0725
36.0729
36.073
36.0729
36.0726
26.5528
26.5521
26.5519
26.5518
26.5518
26.552
19.172
19.1718
19.1716
19.1716
19.1716
19.1717
14.5184
14.5186
14.5188
14.5189
14.5189
14.5188
11.7014
11.7016
11.7016
11.7015
11.7012
11.701
10.2616
10.2616
10.2615
10.2614
10.2612
10.2611
23209.6
23209.7
23209.7
23209.7
23209.7
23209.7
22709.8
22709.8
22709.8
22709.8
22709.8
22709.8
22101.8
22101.8
22101.8
22101.8
22101.8
22101.8
17187.6
17187.6
17187.6
17187.6
17187.6
17187.6
1189.42
1189.41
1189.41
1189.41
1189.41
1189.41
25.1597
25.1589
25.1609
25.1618
25.1615
25.1612
38.7411
38.7409
38.7415
38.7418
38.7416
38.741
21.7896
21.7894
21.7894
21.7896
21.7897
21.7899
15.6545
15.6545
15.6545
15.6547
15.6549
15.6552
11.9066
11.9065
11.9063
11.9062
11.9062
11.9063
9.86561
9.86545
9.86523
9.86504
9.86493
9.8649
8.76152
8.76145
8.76136
8.76126
8.76118
8.76113
24555.8
24555.8
24555.8
24555.8
24555.8
24555.8
25043.6
25043.6
25043.6
25043.6
25043.6
25043.6
25708.4
25708.4
25708.4
25708.4
25708.4
25708.4
23620.1
23620.1
23620.1
23620
23620
23620
-106.112
-106.112
-106.113
-106.113
-106.113
-106.111
-8.55782
-8.55748
-8.55718
-8.55702
-8.55739
-8.55834
8.71332
8.71386
8.71416
8.71442
8.71448
8.71418
10.0492
10.0498
10.05
10.05
10.05
10.0497
9.22173
9.22171
9.22172
9.22179
9.22191
9.22198
8.15512
8.15473
8.15456
8.15457
8.15474
8.15497
7.29093
7.29052
7.29023
7.29012
7.29017
7.29032
6.63849
6.63855
6.6386
6.63864
6.63868
6.63871
25463.3
25463.3
25463.3
25463.3
25463.3
25463.3
27011
27011
27011
27011
27011
27011
30311.2
30311.2
30311.2
30311.2
30311.2
30311.2
30978.2
30978.2
30978.2
30978.2
30978.2
30978.2
-62.1062
-62.1048
-62.1047
-62.1049
-62.1054
-62.1065
-16.2116
-16.2113
-16.2114
-16.2112
-16.211
-16.2111
-3.05375
-3.05347
-3.05349
-3.05343
-3.05328
-3.05312
2.45108
2.4513
2.45146
2.45145
2.45125
2.45095
4.43811
4.43798
4.43777
4.43748
4.43713
4.43678
4.897
4.89684
4.8967
4.89663
4.89661
4.89661
4.76652
4.76679
4.76708
4.7674
4.76769
4.76791
4.37677
4.37698
4.37722
4.37746
4.37767
4.3778
0.0121612
0.012157
0.0121568
0.0121566
0.012157
0.0121575
0.012806
0.0128026
0.0128028
0.0128031
0.0128039
0.0128054
0.0141335
0.0141302
0.0141306
0.0141309
0.0141319
0.0141335
0.0161932
0.01619
0.0161902
0.0161906
0.0161917
0.0161935
0.0190562
0.019053
0.0190532
0.0190537
0.019055
0.0190568
0.0228003
0.0227973
0.0227973
0.0227979
0.0227993
0.0228011
0.0274842
0.0274809
0.027481
0.0274815
0.0274829
0.0274847
0.0330925
0.0330885
0.0330885
0.0330889
0.0330902
0.0330919
0.0394173
0.0394123
0.0394122
0.0394123
0.0394135
0.0394154
0.0460715
0.0460656
0.0460656
0.0460658
0.046067
0.0460691
0.0525241
0.0525179
0.0525182
0.0525187
0.0525202
0.0525229
0.0568118
0.0568081
0.0568087
0.0568098
0.0568118
0.0568151
0.011546
0.0115429
0.0115432
0.0115435
0.0115444
0.0115459
0.0121824
0.0121801
0.0121806
0.0121813
0.0121825
0.0121849
0.0134944
0.0134922
0.0134926
0.0134935
0.0134949
0.0134974
0.0155402
0.015538
0.0155385
0.0155394
0.0155411
0.0155437
0.0184082
0.0184061
0.0184067
0.0184078
0.0184096
0.0184123
0.0222085
0.0222065
0.0222071
0.0222083
0.0222102
0.0222129
0.0270616
0.0270592
0.0270599
0.0270609
0.0270628
0.0270655
0.0330815
0.0330784
0.0330789
0.0330799
0.0330816
0.0330844
0.0403566
0.0403527
0.0403534
0.0403541
0.0403559
0.0403591
0.0486292
0.048625
0.0486259
0.0486272
0.0486295
0.0486336
0.0566236
0.0566199
0.0566213
0.0566231
0.056626
0.0566311
0.0623051
0.0623038
0.0623057
0.0623084
0.0623122
0.0623188
0.0103602
0.0103578
0.0103582
0.0103587
0.0103597
0.0103612
0.0109578
0.010956
0.0109566
0.0109574
0.0109588
0.0109611
0.0121951
0.0121934
0.012194
0.012195
0.0121965
0.0121989
0.014141
0.0141394
0.0141401
0.0141412
0.0141429
0.0141455
0.0169066
0.0169051
0.0169059
0.0169071
0.016909
0.0169117
0.0206454
0.0206437
0.0206447
0.0206459
0.0206478
0.0206504
0.0255442
0.0255419
0.0255427
0.0255438
0.0255457
0.0255483
0.0317577
0.0317545
0.0317553
0.0317562
0.0317579
0.0317607
0.0391513
0.0391474
0.0391482
0.039149
0.0391509
0.0391542
0.0477801
0.0477765
0.0477772
0.0477783
0.0477805
0.0477845
0.0581125
0.0581105
0.0581123
0.0581144
0.0581174
0.0581223
0.0679222
0.0679232
0.0679265
0.0679299
0.0679342
0.0679403
0.00866058
0.00865875
0.00865919
0.00865978
0.00866074
0.00866218
0.00918527
0.00918397
0.00918458
0.00918544
0.00918672
0.0091888
0.0102779
0.0102768
0.0102774
0.0102784
0.0102798
0.010282
0.0120164
0.0120153
0.0120161
0.0120172
0.0120188
0.0120211
0.0145346
0.0145336
0.0145345
0.0145357
0.0145374
0.0145397
0.0180491
0.0180477
0.0180488
0.01805
0.0180516
0.0180538
0.0229278
0.0229257
0.0229266
0.0229275
0.0229291
0.0229314
0.0298269
0.0298239
0.0298246
0.0298254
0.029827
0.0298298
0.0399165
0.0399134
0.0399142
0.0399153
0.0399173
0.0399209
0.0541637
0.054162
0.0541636
0.0541656
0.0541684
0.0541729
0.0732787
0.0732796
0.0732831
0.0732857
0.0732888
0.073293
0.0961848
0.0961899
0.0961951
0.0961991
0.0962031
0.0962078
25102.5
25102.5
25102.5
25102.5
25102.5
25102.5
19552.8
19552.8
19552.8
19552.8
19552.8
19552.8
13067.1
13067.1
13067
13067
13067
13067
29013.6
29013.6
29013.6
29013.6
29013.6
29013.6
22992.7
22992.7
22992.7
22992.8
22992.8
22992.8
20380.2
20380.2
20380.2
20380.2
20380.2
20380.2
36972.5
36972.5
36972.5
36972.5
36972.5
36972.5
30116
30116
30116
30116
30116
30116.1
34508.1
34508.1
34508.1
34508.2
34508.2
34508.2
34132.8
34132.8
34132.8
34132.8
34132.8
34132.8
20034.6
20034.6
20034.6
20034.6
20034.6
20034.6
9402.66
9402.66
9402.65
9402.65
9402.66
9402.66
-37.3738
-37.3729
-37.3731
-37.3732
-37.3732
-37.3743
-23.3765
-23.3745
-23.3747
-23.3745
-23.374
-23.3762
-79.5722
-79.5716
-79.5715
-79.5711
-79.57
-79.5693
-20.0738
-20.0737
-20.0737
-20.0738
-20.0738
-20.0739
-28.309
-28.3086
-28.3085
-28.3085
-28.3085
-28.3087
-41.975
-41.9751
-41.9751
-41.9751
-41.9752
-41.9752
-6.87869
-6.87858
-6.87854
-6.87851
-6.87851
-6.87849
-6.66706
-6.66705
-6.66708
-6.66712
-6.66717
-6.66721
-8.29333
-8.29328
-8.29325
-8.29324
-8.29322
-8.29323
-1.77532
-1.77532
-1.77524
-1.77521
-1.77522
-1.77523
-4.04634
-4.04637
-4.04637
-4.04639
-4.04643
-4.04647
-5.11488
-5.11488
-5.11487
-5.11486
-5.11485
-5.11484
1.33817
1.3382
1.33819
1.3381
1.33798
1.33784
-0.512422
-0.512413
-0.512415
-0.512432
-0.512464
-0.512504
-1.3775
-1.37748
-1.37747
-1.37745
-1.37744
-1.37743
2.48797
2.48795
2.48787
2.48777
2.48766
2.48756
0.770861
0.770864
0.770859
0.770844
0.770823
0.770805
-0.295682
-0.295673
-0.295663
-0.295655
-0.295649
-0.295646
2.77747
2.77753
2.77761
2.77771
2.77779
2.77785
1.26293
1.26295
1.26298
1.26301
1.26303
1.26304
0.190494
0.190501
0.190509
0.190516
0.190522
0.190524
2.42622
2.42631
2.42643
2.42655
2.42666
2.42674
1.1986
1.19862
1.19865
1.19868
1.19871
1.19872
0.294905
0.29491
0.294914
0.29492
0.294924
0.294925
0.231741
0.23175
0.231752
0.23175
0.231749
0.231748
0.173533
0.173538
0.173538
0.173535
0.173532
0.173529
0.0649026
0.0649031
0.0649016
0.0648998
0.0648977
0.0648956
0.338593
0.338601
0.338598
0.338596
0.338592
0.338587
0.246836
0.246839
0.246835
0.246832
0.246826
0.24682
0.0903299
0.0903297
0.0903266
0.0903245
0.0903218
0.0903193
0.487374
0.487382
0.487378
0.487375
0.487369
0.487361
0.347569
0.347572
0.347567
0.347562
0.347555
0.347548
0.123685
0.123685
0.123682
0.123679
0.123676
0.123674
0.699854
0.699864
0.699863
0.699862
0.699859
0.699853
0.484055
0.484058
0.484054
0.484048
0.484043
0.484038
0.165481
0.165482
0.165478
0.165475
0.165474
0.165472
1.00807
1.00808
1.00809
1.0081
1.00811
1.0081
0.66387
0.663876
0.663875
0.663871
0.663871
0.663866
0.213885
0.213886
0.213883
0.213881
0.213881
0.213879
1.4843
1.48433
1.48437
1.4844
1.48443
1.48444
0.892824
0.892831
0.892838
0.892845
0.892853
0.892853
0.261688
0.261687
0.261686
0.261687
0.261688
0.261687
0.00653333
0.0065322
0.00653261
0.00653321
0.00653408
0.00653533
0.00406968
0.00406924
0.00406959
0.00407009
0.00407075
0.0040717
0.00139097
0.001391
0.00139118
0.00139143
0.00139174
0.00139223
0.00694233
0.00694158
0.00694216
0.00694296
0.00694408
0.00694584
0.00432886
0.00432864
0.0043291
0.00432972
0.00433055
0.00433182
0.00148067
0.00148075
0.00148096
0.00148124
0.0014816
0.00148219
0.00779835
0.0077977
0.00779833
0.00779924
0.00780046
0.00780228
0.00487343
0.00487326
0.00487376
0.00487444
0.00487532
0.00487662
0.00166951
0.0016696
0.00166982
0.00167011
0.00167048
0.00167106
0.00917339
0.00917281
0.00917355
0.00917454
0.00917585
0.0091777
0.00575532
0.00575519
0.00575574
0.00575646
0.00575737
0.00575867
0.00197721
0.0019773
0.00197754
0.00197783
0.00197821
0.00197878
0.0111961
0.0111955
0.0111963
0.0111973
0.0111987
0.0112005
0.00707102
0.00707084
0.00707145
0.00707215
0.00707303
0.00707427
0.00244144
0.0024415
0.00244174
0.00244203
0.00244238
0.00244293
0.0140811
0.0140801
0.0140811
0.0140819
0.0140831
0.0140849
0.0089932
0.00899276
0.00899334
0.00899393
0.00899471
0.00899596
0.00313217
0.00313214
0.00313236
0.00313262
0.00313295
0.00313354
0.0181783
0.0181766
0.0181774
0.018178
0.0181792
0.0181811
0.011842
0.0118411
0.0118416
0.0118422
0.011843
0.0118446
0.00418377
0.0041837
0.0041839
0.00418419
0.00418461
0.00418542
0.0240778
0.0240757
0.0240763
0.0240771
0.0240786
0.0240813
0.0162543
0.0162534
0.0162539
0.0162548
0.0162561
0.0162583
0.00586385
0.00586386
0.00586417
0.00586464
0.00586529
0.00586642
0.0329127
0.032911
0.0329121
0.0329136
0.0329159
0.0329195
0.0235617
0.0235615
0.0235627
0.0235642
0.0235661
0.023569
0.0087082
0.00870851
0.00870907
0.00870977
0.00871064
0.00871194
0.0472995
0.0472997
0.047302
0.0473045
0.0473078
0.047312
0.036506
0.0365073
0.0365095
0.0365115
0.0365138
0.0365167
0.0137751
0.0137759
0.0137767
0.0137774
0.0137782
0.0137791
0.0732052
0.0732079
0.0732115
0.0732143
0.0732175
0.0732209
0.0598904
0.0598929
0.0598956
0.059897
0.0598981
0.0598992
0.0229367
0.0229375
0.022938
0.0229382
0.0229379
0.0229376
0.12765
0.127651
0.127654
0.127655
0.127656
0.127656
0.105677
0.105678
0.105678
0.105678
0.105676
0.105673
0.0403231
0.0403227
0.0403221
0.0403213
0.0403194
0.0403169
)
;

boundaryField
{
    seabed_topleft_surface
    {
        type            fixedFluxPressure;
        gradient        uniform 0;
        value           nonuniform List<scalar> 
72
(
22302.8
22302.8
22302.8
22302.8
22302.9
22302.9
21334.7
21334.7
21334.7
21334.7
21334.7
21334.7
19852.4
19852.4
19852.4
19852.4
19852.4
19852.4
13805.6
13805.6
13805.6
13805.6
13805.6
13805.6
1393.37
1393.37
1393.37
1393.37
1393.37
1393.37
43.4123
43.4122
43.4128
43.4133
43.4135
43.4145
36.0726
36.0725
36.0729
36.073
36.0729
36.0726
26.5528
26.5521
26.5519
26.5518
26.5518
26.552
19.172
19.1718
19.1716
19.1716
19.1716
19.1717
14.5184
14.5186
14.5188
14.5189
14.5189
14.5188
11.7014
11.7016
11.7016
11.7015
11.7012
11.701
10.2616
10.2616
10.2615
10.2614
10.2612
10.2611
)
;
    }
    seabed_topright_surface
    {
        type            fixedFluxPressure;
        gradient        uniform 0;
        value           nonuniform List<scalar> 
72
(
0.0121612
0.012157
0.0121568
0.0121566
0.012157
0.0121575
0.012806
0.0128026
0.0128028
0.0128031
0.0128039
0.0128054
0.0141335
0.0141302
0.0141306
0.0141309
0.0141319
0.0141335
0.0161932
0.01619
0.0161902
0.0161906
0.0161917
0.0161935
0.0190562
0.019053
0.0190532
0.0190537
0.019055
0.0190568
0.0228003
0.0227973
0.0227973
0.0227979
0.0227993
0.0228011
0.0274842
0.0274809
0.027481
0.0274815
0.0274829
0.0274847
0.0330925
0.0330885
0.0330885
0.0330889
0.0330902
0.0330919
0.0394173
0.0394123
0.0394122
0.0394123
0.0394135
0.0394154
0.0460715
0.0460656
0.0460656
0.0460658
0.046067
0.0460691
0.0525241
0.0525179
0.0525182
0.0525187
0.0525202
0.0525229
0.0568118
0.0568081
0.0568087
0.0568098
0.0568118
0.0568151
)
;
    }
    breakwater_top_surface
    {
        type            fixedFluxPressure;
        gradient        uniform 0;
        value           nonuniform List<scalar> 
36
(
0.231741
0.23175
0.231752
0.23175
0.231749
0.231748
0.338593
0.338601
0.338598
0.338596
0.338592
0.338587
0.487374
0.487382
0.487378
0.487375
0.487369
0.487361
0.699854
0.699864
0.699863
0.699862
0.699859
0.699853
1.00807
1.00808
1.00809
1.0081
1.00811
1.0081
1.4843
1.48433
1.48437
1.4844
1.48443
1.48444
)
;
    }
    breakwater_left_surface
    {
        type            fixedFluxPressure;
        gradient        uniform 0;
        value           nonuniform List<scalar> 
24
(
10.2616
10.2616
10.2615
10.2614
10.2612
10.2611
8.76152
8.76145
8.76136
8.76126
8.76118
8.76113
6.63849
6.63855
6.6386
6.63864
6.63868
6.63871
4.37677
4.37698
4.37722
4.37746
4.37767
4.3778
)
;
    }
    breakwater_right_surface
    {
        type            fixedFluxPressure;
        gradient        uniform 0;
        value           nonuniform List<scalar> 
24
(
0.0568118
0.0568081
0.0568087
0.0568098
0.0568118
0.0568151
0.0623051
0.0623038
0.0623057
0.0623084
0.0623122
0.0623188
0.0679222
0.0679232
0.0679265
0.0679299
0.0679342
0.0679403
0.0961848
0.0961899
0.0961951
0.0961991
0.0962031
0.0962078
)
;
    }
    water_front_surface
    {
        type            fixedFluxPressure;
        gradient        uniform 0;
        value           nonuniform List<scalar> 
186
(
22302.8
21334.7
19852.4
13805.6
1393.37
43.4123
36.0726
26.5528
19.172
14.5184
11.7014
10.2616
23209.6
22709.8
22101.8
17187.6
1189.42
25.1597
38.7411
21.7896
15.6545
11.9066
9.86561
8.76152
24555.8
25043.6
25708.4
23620.1
-106.112
-8.55782
8.71332
10.0492
9.22173
8.15512
7.29093
6.63849
25463.3
27011
30311.2
30978.2
-62.1062
-16.2116
-3.05375
2.45108
4.43811
4.897
4.76652
4.37677
0.0121612
0.012806
0.0141335
0.0161932
0.0190562
0.0228003
0.0274842
0.0330925
0.0394173
0.0460715
0.0525241
0.0568118
0.011546
0.0121824
0.0134944
0.0155402
0.0184082
0.0222085
0.0270616
0.0330815
0.0403566
0.0486292
0.0566236
0.0623051
0.0103602
0.0109578
0.0121951
0.014141
0.0169066
0.0206454
0.0255442
0.0317577
0.0391513
0.0477801
0.0581125
0.0679222
0.00866058
0.00918527
0.0102779
0.0120164
0.0145346
0.0180491
0.0229278
0.0298269
0.0399165
0.0541637
0.0732787
0.0961848
25102.5
19552.8
13067.1
29013.6
22992.7
20380.2
36972.5
30116
34508.1
34132.8
20034.6
9402.66
-37.3738
-23.3765
-79.5722
-20.0738
-28.309
-41.975
-6.87869
-6.66706
-8.29333
-1.77532
-4.04634
-5.11488
1.33817
-0.512422
-1.3775
2.48797
0.770861
-0.295682
2.77747
1.26293
0.190494
2.42622
1.1986
0.294905
0.231741
0.173533
0.0649026
0.338593
0.246836
0.0903299
0.487374
0.347569
0.123685
0.699854
0.484055
0.165481
1.00807
0.66387
0.213885
1.4843
0.892824
0.261688
0.00653333
0.00406968
0.00139097
0.00694233
0.00432886
0.00148067
0.00779835
0.00487343
0.00166951
0.00917339
0.00575532
0.00197721
0.0111961
0.00707102
0.00244144
0.0140811
0.0089932
0.00313217
0.0181783
0.011842
0.00418377
0.0240778
0.0162543
0.00586385
0.0329127
0.0235617
0.0087082
0.0472995
0.036506
0.0137751
0.0732052
0.0598904
0.0229367
0.12765
0.105677
0.0403231
)
;
    }
    water_back_surface
    {
        type            fixedFluxPressure;
        gradient        uniform 0;
        value           nonuniform List<scalar> 
186
(
22302.9
21334.7
19852.4
13805.6
1393.37
43.4145
36.0726
26.552
19.1717
14.5188
11.701
10.2611
23209.7
22709.8
22101.8
17187.6
1189.41
25.1612
38.741
21.7899
15.6552
11.9063
9.8649
8.76113
24555.8
25043.6
25708.4
23620
-106.111
-8.55834
8.71418
10.0497
9.22198
8.15497
7.29032
6.63871
25463.3
27011
30311.2
30978.2
-62.1065
-16.2111
-3.05312
2.45095
4.43678
4.89661
4.76791
4.3778
0.0121575
0.0128054
0.0141335
0.0161935
0.0190568
0.0228011
0.0274847
0.0330919
0.0394154
0.0460691
0.0525229
0.0568151
0.0115459
0.0121849
0.0134974
0.0155437
0.0184123
0.0222129
0.0270655
0.0330844
0.0403591
0.0486336
0.0566311
0.0623188
0.0103612
0.0109611
0.0121989
0.0141455
0.0169117
0.0206504
0.0255483
0.0317607
0.0391542
0.0477845
0.0581223
0.0679403
0.00866218
0.0091888
0.010282
0.0120211
0.0145397
0.0180538
0.0229314
0.0298298
0.0399209
0.0541729
0.073293
0.0962078
25102.5
19552.8
13067
29013.6
22992.8
20380.2
36972.5
30116.1
34508.2
34132.8
20034.6
9402.66
-37.3743
-23.3762
-79.5693
-20.0739
-28.3087
-41.9752
-6.87849
-6.66721
-8.29323
-1.77523
-4.04647
-5.11484
1.33784
-0.512504
-1.37743
2.48756
0.770805
-0.295646
2.77785
1.26304
0.190524
2.42674
1.19872
0.294925
0.231748
0.173529
0.0648956
0.338587
0.24682
0.0903193
0.487361
0.347548
0.123674
0.699853
0.484038
0.165472
1.0081
0.663866
0.213879
1.48444
0.892853
0.261687
0.00653533
0.0040717
0.00139223
0.00694584
0.00433182
0.00148219
0.00780228
0.00487662
0.00167106
0.0091777
0.00575867
0.00197878
0.0112005
0.00707427
0.00244293
0.0140849
0.00899596
0.00313354
0.0181811
0.0118446
0.00418542
0.0240813
0.0162583
0.00586642
0.0329195
0.023569
0.00871194
0.047312
0.0365167
0.0137791
0.0732209
0.0598992
0.0229376
0.127656
0.105673
0.0403169
)
;
    }
    water_left_surface
    {
        type            fixedFluxPressure;
        gradient        uniform 0;
        value           nonuniform List<scalar> 
42
(
22302.8
22302.8
22302.8
22302.8
22302.9
22302.9
23209.6
23209.7
23209.7
23209.7
23209.7
23209.7
24555.8
24555.8
24555.8
24555.8
24555.8
24555.8
25463.3
25463.3
25463.3
25463.3
25463.3
25463.3
25102.5
25102.5
25102.5
25102.5
25102.5
25102.5
19552.8
19552.8
19552.8
19552.8
19552.8
19552.8
13067.1
13067.1
13067
13067
13067
13067
)
;
    }
    water_right_surface
    {
        type            fixedFluxPressure;
        gradient        uniform 0;
        value           nonuniform List<scalar> 
42
(
0.0121612
0.012157
0.0121568
0.0121566
0.012157
0.0121575
0.011546
0.0115429
0.0115432
0.0115435
0.0115444
0.0115459
0.0103602
0.0103578
0.0103582
0.0103587
0.0103597
0.0103612
0.00866058
0.00865875
0.00865919
0.00865978
0.00866074
0.00866218
0.00653333
0.0065322
0.00653261
0.00653321
0.00653408
0.00653533
0.00406968
0.00406924
0.00406959
0.00407009
0.00407075
0.0040717
0.00139097
0.001391
0.00139118
0.00139143
0.00139174
0.00139223
)
;
    }
    water_top_surface
    {
        type            totalPressure;
        rho             rho;
        psi             none;
        gamma           1;
        p0              uniform 0;
        value           nonuniform List<scalar> 
180
(
0
0
0
0
0
0
0
0
0
0
0
0
0
0
0
0
0
0
0
0
0
0
0
0
-35.223
-35.2228
-35.2219
-35.2212
-35.2195
-35.2132
-12.9369
-12.9379
-12.9378
-12.9379
-12.9386
-12.9378
-2.0376
-2.03763
-2.03758
-2.0375
-2.03749
-2.03736
-0.887372
-0.887436
-0.887417
-0.887385
-0.88736
-0.887295
-0.248774
-0.24875
-0.248711
-0.24867
-0.24863
-0.248583
-0.0844115
-0.0844038
-0.0843947
-0.0843852
-0.0843754
-0.0843624
-0.0310312
-0.0310335
-0.0310341
-0.0310341
-0.0310334
-0.0310308
-0.0126841
-0.0126853
-0.012685
-0.0126841
-0.0126828
-0.0126804
-0.000192298
-0.000192351
-0.00019235
-0.000192338
-0.000192319
-0.000192288
-0.000383613
-0.000383715
-0.000383707
-0.00038367
-0.000383612
-0.000383518
-0.000751208
-0.000751413
-0.000751377
-0.000751263
-0.000751101
-0.000750869
-0.00145689
-0.00145725
-0.00145711
-0.0014568
-0.00145639
-0.00145584
-0.00281209
-0.00281249
-0.00281205
-0.00281135
-0.00281047
-0.00280929
-0.00539753
-0.00539722
-0.0053964
-0.0053953
-0.00539379
-0.00539139
-1.05161e-07
-1.05169e-07
-1.05164e-07
-1.05159e-07
-1.05153e-07
-1.05138e-07
-1.19175e-07
-1.19182e-07
-1.19176e-07
-1.19169e-07
-1.19162e-07
-1.19142e-07
-1.51528e-07
-1.51537e-07
-1.51529e-07
-1.51522e-07
-1.51513e-07
-1.5149e-07
-2.13009e-07
-2.13021e-07
-2.13012e-07
-2.13002e-07
-2.12992e-07
-2.12963e-07
-3.26601e-07
-3.26621e-07
-3.26608e-07
-3.26595e-07
-3.26582e-07
-3.26542e-07
-5.42016e-07
-5.42051e-07
-5.4203e-07
-5.42013e-07
-5.41994e-07
-5.41934e-07
-9.73452e-07
-9.73517e-07
-9.73484e-07
-9.7346e-07
-9.73433e-07
-9.73331e-07
-1.90253e-06
-1.90266e-06
-1.90261e-06
-1.90258e-06
-1.90254e-06
-1.90236e-06
-4.07045e-06
-4.07078e-06
-4.07071e-06
-4.07066e-06
-4.07059e-06
-4.07023e-06
-9.53988e-06
-9.54082e-06
-9.54071e-06
-9.54056e-06
-9.54031e-06
-9.53942e-06
-2.48099e-05
-2.48128e-05
-2.48123e-05
-2.48116e-05
-2.48105e-05
-2.48075e-05
-6.86129e-05
-6.86152e-05
-6.86129e-05
-6.86089e-05
-6.86027e-05
-6.85878e-05
)
;
    }
}


// ************************************************************************* //
