/*--------------------------------*- C++ -*----------------------------------*\
| =========                 |                                                 |
| \\      /  F ield         | OpenFOAM: The Open Source CFD Toolbox           |
|  \\    /   O peration     | Version:  v1612+                                |
|   \\  /    A nd           | Web:      www.OpenFOAM.com                      |
|    \\/     M anipulation  |                                                 |
\*---------------------------------------------------------------------------*/
FoamFile
{
    version     2.0;
    format      ascii;
    class       surfaceScalarField;
    location    "0.7";
    object      phi;
}
// * * * * * * * * * * * * * * * * * * * * * * * * * * * * * * * * * * * * * //

dimensions      [0 3 -1 0 0 0 0];

internalField   nonuniform List<scalar> 
2916
(
-6.53131e-09
0.0862287
-0.0862286
-1.6973e-07
0.0862291
-0.0862289
-2.90418e-07
0.0862291
-0.086229
-2.73811e-07
0.0862291
-0.0862291
-1.28034e-07
0.0862291
-0.0862291
0.0862289
-0.086229
3.66452e-07
0.235634
-0.149406
6.86096e-07
0.235635
-0.149406
1.04486e-06
0.235635
-0.149406
1.15531e-06
0.235634
-0.149405
8.15779e-07
0.235634
-0.149405
0.235634
-0.149404
5.95837e-07
0.503253
-0.267619
1.06318e-06
0.503253
-0.267619
1.39592e-06
0.503253
-0.267619
1.44621e-06
0.503253
-0.267618
8.72446e-07
0.503252
-0.267618
0.503252
-0.267617
2.47601e-07
1.10558
-0.602326
4.20311e-07
1.10558
-0.602326
4.53281e-07
1.10558
-0.602326
5.07813e-07
1.10558
-0.602326
2.70153e-07
1.10558
-0.602326
1.10558
-0.602325
-1.08503e-06
2.06093
-0.955353
-1.3892e-06
2.06093
-0.95535
-2.59693e-06
2.06093
-0.955348
-3.46885e-06
2.06093
-0.955349
-6.59948e-06
2.06094
-0.955354
2.06093
-0.95536
-1.25036e-05
1.14501
0.915935
-3.64011e-05
1.14498
0.915976
-5.45721e-05
1.14496
0.915977
-6.23407e-05
1.14497
0.91597
-8.74159e-05
1.145
0.915964
1.14498
0.915867
-1.34215e-05
0.62218
0.522845
-6.1755e-05
0.622126
0.522899
-5.29699e-05
0.622092
0.522866
-2.95244e-05
0.622094
0.522855
-3.78339e-06
0.622103
0.522873
0.6221
0.522872
-7.55709e-06
0.316828
0.305356
-1.53883e-05
0.316782
0.305346
-4.81164e-06
0.316784
0.305299
7.42886e-06
0.316806
0.305276
9.34471e-06
0.316825
0.305279
0.316828
0.305285
-6.10823e-06
0.154155
0.162677
5.31252e-05
0.154149
0.162585
6.90642e-05
0.15418
0.162588
5.27621e-05
0.154221
0.162601
2.65147e-05
0.154255
0.162598
0.154272
0.162586
0.000122796
0.0686067
0.0854265
0.000182601
0.0686411
0.0854493
0.000180664
0.0686715
0.0855067
0.000144268
0.068699
0.085557
8.48477e-05
0.0687228
0.0855912
0.0687421
0.0856155
9.5615e-05
0.0249796
0.0435319
0.000121987
0.0250085
0.0436057
0.000117413
0.0250192
0.0436569
9.64925e-05
0.0250229
0.0436976
5.98153e-05
0.0250271
0.0437318
0.0250371
0.0437645
7.72189e-06
0.0249713
1.31152e-05
0.0250051
1.81771e-05
0.0250168
1.76472e-05
0.0250245
1.06138e-05
0.0250334
0.0250468
-3.84486e-07
0.0247802
-0.111008
-9.18595e-07
0.0247804
-0.111009
-1.18595e-06
0.0247801
-0.111009
-1.01867e-06
0.0247795
-0.111009
-4.74024e-07
0.0247789
-0.111008
0.0247785
-0.111008
1.54278e-07
0.0898031
-0.214429
3.05469e-07
0.0898033
-0.214429
6.03326e-07
0.0898027
-0.214429
7.56813e-07
0.0898019
-0.214428
4.38316e-07
0.0898011
-0.214427
0.0898005
-0.214426
4.62967e-07
0.226043
-0.403859
1.18008e-06
0.226043
-0.403859
1.67831e-06
0.226042
-0.403859
1.61409e-06
0.226041
-0.403858
8.72285e-07
0.22604
-0.403856
0.22604
-0.403855
4.848e-07
0.541375
-0.917659
8.01664e-07
0.541376
-0.917659
8.69065e-07
0.541375
-0.917659
6.54836e-07
0.541374
-0.917658
2.70138e-07
0.541373
-0.917658
0.541372
-0.917658
1.09773e-06
1.85652
-2.2705
-1.53296e-06
1.85645
-2.27042
-2.75036e-06
1.85644
-2.27041
-4.75857e-06
1.85643
-2.2704
-1.06309e-05
1.85644
-2.27042
1.85646
-2.27046
-1.46682e-06
0.92819
1.84427
1.47537e-07
0.928116
1.84431
-7.83376e-06
0.928096
1.84432
-3.16027e-05
0.928091
1.84434
-4.31906e-05
0.928094
1.84432
0.928104
1.84418
1.13202e-05
0.28419
1.16683
6.60268e-06
0.2841
1.16691
5.24053e-05
0.284067
1.16685
7.35311e-05
0.284077
1.16684
5.60639e-05
0.284086
1.16689
0.284138
1.16689
3.20984e-05
0.106851
0.482664
0.000103133
0.106784
0.482601
0.00011469
0.1068
0.48256
8.54585e-05
0.106842
0.482545
2.89798e-05
0.106872
0.482552
0.106901
0.482551
0.000127668
0.0282531
0.241148
0.00018635
0.028216
0.241102
0.000160174
0.0282947
0.241122
0.000106992
0.0283717
0.241129
5.19964e-05
0.0284128
0.241118
0.0284443
0.241096
0.000102831
0.000800388
0.112782
5.02198e-05
0.000858521
0.112858
4.938e-06
0.000915676
0.112932
-8.09226e-06
0.000961679
0.112982
-9.95895e-06
0.000998794
0.113009
0.00102884
0.113021
-4.06546e-05
-0.00518052
0.0495541
-9.05655e-05
-0.00511971
0.0496313
-0.000107542
-0.00508741
0.0496777
-9.54699e-05
-0.00506635
0.0497131
-5.86947e-05
-0.00504945
0.0497416
-0.00503391
0.0497674
-8.48248e-05
0.0198769
-0.00010618
0.0199079
-9.89708e-05
0.0199231
-7.81139e-05
0.0199361
-4.60705e-05
0.0199494
0.0199654
-8.87545e-07
-0.0718291
-0.0391783
-1.63128e-06
-0.0718295
-0.0391785
-1.72892e-06
-0.0718302
-0.0391784
-1.2467e-06
-0.071831
-0.0391781
-5.00278e-07
-0.0718315
-0.0391777
-0.0718314
-0.0391774
-1.2929e-07
-0.127651
-0.158607
-3.41553e-07
-0.127651
-0.158607
-3.31888e-07
-0.127652
-0.158606
-2.27581e-07
-0.127654
-0.158605
-1.8458e-07
-0.127654
-0.158604
-0.127654
-0.158603
6.59461e-07
-0.099776
-0.431735
1.10014e-06
-0.0997763
-0.431735
9.90694e-07
-0.0997772
-0.431734
4.7808e-07
-0.0997781
-0.431732
5.84607e-08
-0.0997788
-0.431731
-0.099779
-0.43173
5.75926e-07
0.00167906
-1.01911
1.83902e-07
0.00167961
-1.01912
-3.24526e-07
0.00167797
-1.01911
-5.04225e-07
0.00167542
-1.01911
-4.19327e-07
0.00167346
-1.01911
0.00167231
-1.01911
1.81992e-05
-1.63466
-0.634184
1.37077e-05
-1.63465
-0.634085
3.02309e-06
-1.63464
-0.63408
-7.03515e-07
-1.63465
-0.634075
-9.08136e-06
-1.63465
-0.634086
-1.63462
-0.634185
-6.71767e-06
-0.907254
1.11687
1.67334e-05
-0.907261
1.11689
6.92337e-05
-0.907248
1.11688
0.000103591
-0.907236
1.11689
9.69241e-05
-0.907219
1.1169
-0.907147
1.11681
4.66183e-06
-0.33633
0.5959
8.91151e-05
-0.33636
0.595929
0.000138636
-0.336331
0.595888
0.000127455
-0.336281
0.5959
7.14473e-05
-0.336224
0.595951
-0.336133
0.595951
4.84194e-05
-0.180447
0.326732
0.00012392
-0.180485
0.326652
0.000121427
-0.180426
0.326654
7.84743e-05
-0.180356
0.326661
3.09897e-05
-0.180292
0.326667
-0.18021
0.326658
0.000126055
-0.101837
0.162417
9.42341e-05
-0.101815
0.162465
4.7013e-05
-0.101754
0.162498
1.42525e-05
-0.101697
0.162504
-3.91661e-06
-0.101648
0.162493
-0.101591
0.162472
-3.58584e-05
-0.0590365
0.070022
-0.000131884
-0.0589785
0.0701167
-0.000175302
-0.0589377
0.0701611
-0.000165551
-0.0589057
0.0701816
-0.000110054
-0.0588809
0.0701859
-0.0588586
0.0701758
-0.000135789
-0.0282461
0.0188976
-0.000206485
-0.028203
0.0189254
-0.000220494
-0.0281874
0.0189411
-0.000190466
-0.0281778
0.0189539
-0.00012002
-0.0281748
0.0189632
-0.0281824
0.0189693
-7.93227e-05
-0.00829094
-9.33684e-05
-0.00828088
-8.55322e-05
-0.00827311
-6.41011e-05
-0.00826524
-3.37485e-05
-0.00825838
-0.00825183
-8.1149e-07
-0.177788
0.138611
-1.21225e-06
-0.177789
0.138611
-1.1034e-06
-0.17779
0.138611
-5.32271e-07
-0.17779
0.138611
2.41554e-08
-0.17779
0.138611
-0.177789
0.138611
-5.13767e-07
-0.372753
0.0363578
-1.16628e-06
-0.372753
0.036358
-1.6074e-06
-0.372754
0.0363584
-1.55653e-06
-0.372754
0.0363589
-1.04422e-06
-0.372754
0.0363595
-0.372753
0.0363597
-4.60009e-07
-0.478736
-0.325751
-9.71049e-07
-0.478736
-0.325752
-1.72792e-06
-0.478736
-0.32575
-2.22415e-06
-0.478736
-0.32575
-1.79584e-06
-0.478736
-0.325749
-0.478735
-0.325749
6.00853e-07
-0.369109
-1.12874
4.19342e-07
-0.369108
-1.12874
9.78189e-07
-0.369108
-1.12874
7.18103e-07
-0.369107
-1.12874
-4.98343e-07
-0.369106
-1.12874
-0.369108
-1.12874
-2.75021e-05
-1.36706
0.363794
4.31535e-06
-1.36706
0.363823
4.50305e-05
-1.36706
0.363825
6.97251e-05
-1.36704
0.363829
6.71768e-05
-1.36701
0.363825
-1.36703
0.363806
3.86315e-06
-0.863155
0.612962
3.94754e-05
-0.863179
0.612979
6.95927e-05
-0.863165
0.612956
8.38779e-05
-0.863135
0.612962
7.28903e-05
-0.863086
0.61298
-0.863097
0.61295
7.23708e-07
-0.473368
0.206108
4.8606e-05
-0.473385
0.206095
5.21897e-05
-0.473354
0.206078
4.02977e-05
-0.473312
0.206089
4.02859e-05
-0.473252
0.20612
-0.473225
0.206121
7.98021e-05
-0.278471
0.131761
9.84212e-05
-0.278466
0.13172
8.33851e-05
-0.278413
0.13173
5.95026e-05
-0.278361
0.131736
4.32015e-05
-0.278306
0.131738
-0.278254
0.131731
5.84662e-08
-0.15964
0.0435861
-3.24405e-05
-0.159586
0.0436138
-4.1837e-05
-0.159533
0.0436258
-3.61502e-05
-0.159493
0.0436277
-1.75956e-05
-0.159457
0.0436235
-0.159416
0.0436165
-0.000110262
-0.0878032
-0.00170715
-0.000170994
-0.0877576
-0.00165223
-0.000178434
-0.0877338
-0.00163197
-0.000150497
-0.0877189
-0.00162203
-9.17799e-05
-0.0877093
-0.00162212
-0.0876999
-0.00163415
-9.13682e-05
-0.0391374
-0.0296791
-0.000131966
-0.0391245
-0.0296681
-0.000138713
-0.0391265
-0.0296616
-0.000119566
-0.0391314
-0.0296551
-7.60135e-05
-0.0391395
-0.0296525
-0.0391522
-0.0296561
-2.66342e-05
-0.0474028
-2.68501e-05
-0.0474064
-2.1413e-05
-0.0474068
-1.33415e-05
-0.0474066
-5.37468e-06
-0.0474078
-0.0474099
3.8673e-07
4.75713e-05
-4.7958e-05
1.10216e-07
4.75474e-05
-4.79969e-05
3.99536e-11
4.75278e-05
-4.80159e-05
-4.83605e-08
4.7515e-05
-4.80291e-05
-5.861e-08
4.75002e-05
-4.80432e-05
4.74662e-05
-4.80753e-05
2.94926e-07
9.66074e-05
-4.97846e-05
4.49461e-08
9.6602e-05
-4.98193e-05
-5.53728e-08
9.6591e-05
-4.98318e-05
-1.17111e-07
9.65846e-05
-4.98444e-05
-1.66456e-07
9.65778e-05
-4.98573e-05
9.65686e-05
-4.98856e-05
2.69912e-07
0.000149166
-5.32332e-05
2.4048e-08
0.00014916
-5.32667e-05
-7.87328e-08
0.000149153
-5.32746e-05
-1.39746e-07
0.000149149
-5.32881e-05
-1.82851e-07
0.000149146
-5.33009e-05
0.000149139
-5.33284e-05
2.45032e-07
0.00020646
-5.79431e-05
8.57211e-09
0.000206457
-5.79765e-05
-8.97109e-08
0.000206454
-5.79829e-05
-1.46328e-07
0.000206455
-5.79967e-05
-1.84859e-07
0.000206456
-5.80082e-05
0.000206452
-5.80338e-05
2.29827e-07
0.000268988
-6.31438e-05
9.75442e-09
0.000268995
-6.31746e-05
-7.94876e-08
0.000269001
-6.31797e-05
-1.30697e-07
0.000269009
-6.31908e-05
-1.68213e-07
0.000269016
-6.31982e-05
0.000269015
-6.32176e-05
2.49583e-07
0.000335727
-6.7342e-05
3.67288e-08
0.000335756
-6.73635e-05
-4.49764e-08
0.000335769
-6.73658e-05
-9.48434e-08
0.000335781
-6.73703e-05
-1.35984e-07
0.00033579
-6.73719e-05
0.000335786
-6.73839e-05
3.25263e-07
0.00040301
-6.79309e-05
9.09396e-08
0.000403062
-6.79384e-05
6.981e-10
0.000403073
-6.79357e-05
-5.91138e-08
0.000403081
-6.79351e-05
-1.10217e-07
0.000403081
-6.79362e-05
0.000403066
-6.79496e-05
4.42558e-07
0.000463554
-6.13206e-05
1.43039e-07
0.000463617
-6.13206e-05
2.57594e-08
0.000463613
-6.13215e-05
-5.59844e-08
0.000463611
-6.13265e-05
-1.2222e-07
0.000463593
-6.13386e-05
0.000463559
-6.137e-05
5.59022e-07
0.000501408
-3.8831e-05
1.57684e-07
0.000501457
-3.88368e-05
-6.64164e-09
0.000501434
-3.88517e-05
-1.08979e-07
0.000501414
-3.88754e-05
-1.85346e-07
0.000501381
-3.89055e-05
0.000501327
-3.89585e-05
6.2956e-07
0.000473437
2.67668e-05
1.28984e-07
0.000473441
2.6739e-05
-7.45888e-08
0.000473401
2.6712e-05
-1.95866e-07
0.000473366
2.66762e-05
-2.78474e-07
0.000473322
2.66368e-05
0.000473255
2.65771e-05
6.12408e-07
0.000347926
0.000124145
5.77852e-08
0.000347841
0.000124073
-1.72574e-07
0.000347822
0.000124029
-2.99577e-07
0.000347786
0.000123978
-3.79593e-07
0.000347753
0.000123925
0.000347699
0.000123844
3.52516e-07
0.000346675
-3.13463e-08
0.000346618
-2.09169e-07
0.000346584
-3.27612e-07
0.000346544
-4.13745e-07
0.000346499
0.000346403
2.71384e-07
4.79713e-05
-9.66709e-05
3.90986e-08
4.79515e-05
-9.66955e-05
-5.43918e-08
4.79383e-05
-9.67019e-05
-1.13146e-07
4.79272e-05
-9.67079e-05
-1.62931e-07
4.79145e-05
-9.67114e-05
4.7886e-05
-9.67116e-05
1.96128e-07
9.78378e-05
-0.000100635
-1.34585e-08
9.7832e-05
-0.000100657
-1.01594e-07
9.78252e-05
-0.000100658
-1.73696e-07
9.78181e-05
-0.000100665
-2.55881e-07
9.78119e-05
-0.000100668
9.78033e-05
-0.000100665
1.75782e-07
0.000151944
-0.000108263
-3.73532e-08
0.000151939
-0.000108283
-1.24103e-07
0.000151934
-0.000108283
-1.94426e-07
0.00015193
-0.000108289
-2.70099e-07
0.000151927
-0.000108292
0.000151922
-0.000108288
1.6e-07
0.000211932
-0.000118817
-4.78996e-08
0.000211931
-0.000118837
-1.3072e-07
0.000211928
-0.000118836
-1.97243e-07
0.000211929
-0.000118842
-2.66604e-07
0.000211931
-0.000118844
0.000211929
-0.000118839
1.59356e-07
0.000278718
-0.000130769
-3.73151e-08
0.00027873
-0.000130784
-1.15436e-07
0.000278733
-0.000130781
-1.78433e-07
0.000278741
-0.000130784
-2.42333e-07
0.000278748
-0.000130783
0.000278747
-0.000130776
1.93973e-07
0.000351473
-0.00014092
-1.56443e-09
0.000351508
-0.000140922
-8.05664e-08
0.000351516
-0.000140915
-1.44925e-07
0.000351527
-0.000140912
-2.0925e-07
0.000351531
-0.000140907
0.000351523
-0.000140898
2.68666e-07
0.000425546
-0.000142904
3.96295e-08
0.000425602
-0.000142889
-5.35936e-08
0.000425605
-0.000142877
-1.27266e-07
0.000425606
-0.000142873
-2.02436e-07
0.000425596
-0.000142871
0.000425566
-0.00014287
3.59178e-07
0.000488242
-0.000125127
5.91418e-08
0.0004883
-0.000125107
-6.45908e-08
0.000488283
-0.000125101
-1.60483e-07
0.000488262
-0.000125108
-2.56881e-07
0.000488226
-0.00012512
0.000488161
-0.000125141
4.18059e-07
0.000521212
-7.32194e-05
2.89314e-08
0.000521243
-7.32205e-05
-1.33415e-07
0.000521201
-7.32309e-05
-2.57931e-07
0.000521148
-7.32544e-05
-3.78123e-07
0.000521082
-7.32838e-05
0.000520985
-7.33226e-05
4.02855e-07
0.000524152
2.21104e-05
-8.00056e-08
0.000524138
2.20563e-05
-2.72805e-07
0.000524091
2.20074e-05
-4.15145e-07
0.000524038
2.19506e-05
-5.46726e-07
0.000523976
2.18919e-05
0.000523884
2.18145e-05
3.79772e-07
0.000397262
0.000249069
-1.36302e-07
0.000397165
0.000248977
-3.31824e-07
0.000397128
0.00024892
-4.79035e-07
0.000397076
0.000248877
-6.25983e-07
0.000397024
0.000248837
0.000396937
0.000248785
1.96248e-07
0.000742065
-1.66357e-07
0.000742027
-3.31123e-07
0.000741989
-5.02436e-07
0.000741968
-7.12405e-07
0.000741944
0.000741901
2.1096e-07
4.64062e-05
-0.00014369
9.47015e-09
4.63898e-05
-0.000143716
-7.59508e-08
4.63828e-05
-0.000143716
-1.28925e-07
4.63726e-05
-0.000143719
-1.71134e-07
4.63624e-05
-0.000143717
4.6339e-05
-0.00014371
1.472e-07
9.53176e-05
-0.000150375
-4.26716e-08
9.53142e-05
-0.000150398
-1.1921e-07
9.53099e-05
-0.000150395
-1.8335e-07
9.53048e-05
-0.000150397
-2.5381e-07
9.53014e-05
-0.000150394
9.5296e-05
-0.000150384
1.33658e-07
0.000149776
-0.000163505
-5.76105e-08
0.000149776
-0.000163527
-1.35953e-07
0.000149773
-0.000163524
-1.99324e-07
0.000149771
-0.000163525
-2.64296e-07
0.000149772
-0.000163522
0.000149771
-0.00016351
1.2802e-07
0.000212601
-0.000182404
-6.08079e-08
0.000212607
-0.000182424
-1.37671e-07
0.000212607
-0.000182421
-1.98906e-07
0.000212611
-0.000182422
-2.59054e-07
0.000212616
-0.000182418
0.000212619
-0.000182405
1.42609e-07
0.000286519
-0.000205428
-4.56051e-08
0.000286541
-0.000205444
-1.2153e-07
0.000286544
-0.000205438
-1.81655e-07
0.000286553
-0.000205437
-2.38508e-07
0.000286561
-0.000205431
0.000286562
-0.000205416
1.93268e-07
0.000374035
-0.000229198
-8.95964e-09
0.000374076
-0.000229203
-9.42166e-08
0.000374081
-0.000229193
-1.59631e-07
0.000374088
-0.000229188
-2.2021e-07
0.000374087
-0.000229182
0.000374074
-0.000229169
2.75046e-07
0.000478249
-0.000248
2.01644e-08
0.000478302
-0.000247992
-8.49139e-08
0.000478295
-0.000247981
-1.65023e-07
0.000478286
-0.00024798
-2.39391e-07
0.000478267
-0.00024798
0.000478225
-0.000247981
3.53669e-07
0.000608533
-0.00025653
2.17391e-08
0.000608577
-0.000256527
-1.19023e-07
0.000608548
-0.000256525
-2.23779e-07
0.000608516
-0.000256538
-3.19078e-07
0.000608471
-0.000256556
0.000608399
-0.000256578
3.8565e-07
0.000762138
-0.00022824
-2.49236e-08
0.000762151
-0.000228271
-1.95768e-07
0.000762105
-0.000228286
-3.20301e-07
0.000762057
-0.000228317
-4.342e-07
0.000762003
-0.000228351
0.000761922
-0.000228383
3.89565e-07
0.000800146
-1.75954e-05
-6.58132e-08
0.000800109
-1.7667e-05
-2.41735e-07
0.000800044
-1.77021e-05
-3.72024e-07
0.000799986
-1.77376e-05
-5.04199e-07
0.000799928
-1.77653e-05
0.000799854
-1.77888e-05
3.81937e-07
0.000663366
0.000383961
-8.49923e-08
0.000663242
0.000383876
-2.65178e-07
0.000663192
0.000383834
-4.03021e-07
0.00066314
0.000383818
-5.5176e-07
0.0006631
0.000383812
0.000663041
0.000383808
2.48569e-07
0.00140365
-1.06817e-07
0.00140366
-2.95439e-07
0.00140362
-4.73201e-07
0.0014036
-6.71929e-07
0.00140358
0.00140353
1.51067e-07
4.24146e-05
-0.000186618
-1.27702e-08
4.24019e-05
-0.000186647
-8.2666e-08
4.23975e-05
-0.000186642
-1.26173e-07
4.23895e-05
-0.000186643
-1.60345e-07
4.23819e-05
-0.000186638
4.23638e-05
-0.000186627
1.00831e-07
8.79818e-05
-0.000196626
-5.5134e-08
8.79797e-05
-0.00019665
-1.18222e-07
8.79767e-05
-0.000196645
-1.7108e-07
8.79735e-05
-0.000196643
-2.28525e-07
8.7972e-05
-0.000196636
8.79683e-05
-0.00019662
9.26845e-08
0.000140568
-0.000216744
-6.45879e-08
0.000140569
-0.000216767
-1.29847e-07
0.000140568
-0.000216762
-1.82472e-07
0.000140568
-0.000216759
-2.35598e-07
0.000140571
-0.000216752
0.00014057
-0.000216734
9.44957e-08
0.000204564
-0.000247044
-6.44717e-08
0.000204573
-0.000247068
-1.30127e-07
0.000204573
-0.000247062
-1.8167e-07
0.000204578
-0.000247059
-2.31646e-07
0.000204583
-0.000247051
0.000204585
-0.000247033
1.16644e-07
0.000285212
-0.000286727
-5.17201e-08
0.000285234
-0.000286749
-1.19182e-07
0.000285234
-0.000286741
-1.72036e-07
0.000285241
-0.000286737
-2.20733e-07
0.000285246
-0.000286729
0.000285243
-0.00028671
1.70804e-07
0.000387072
-0.000331773
-2.48646e-08
0.000387104
-0.000331793
-1.05903e-07
0.000387101
-0.000331781
-1.66307e-07
0.000387101
-0.000331777
-2.22319e-07
0.000387096
-0.00033177
0.000387076
-0.000331755
2.44074e-07
0.000509154
-0.000370964
-8.64501e-09
0.000509183
-0.000370986
-1.13938e-07
0.000509164
-0.000370975
-1.91834e-07
0.000509146
-0.000370975
-2.65372e-07
0.000509122
-0.000370974
0.000509076
-0.000370968
2.99192e-07
0.000632394
-0.000380914
-2.70799e-08
0.000632401
-0.000380948
-1.62601e-07
0.00063236
-0.000380944
-2.62641e-07
0.000632323
-0.000380954
-3.5796e-07
0.00063228
-0.000380964
0.000632216
-0.000380966
3.09944e-07
0.000720964
-0.000318227
-8.06061e-08
0.000720943
-0.000318285
-2.33582e-07
0.000720884
-0.000318291
-3.47285e-07
0.000720841
-0.000318309
-4.56585e-07
0.000720801
-0.000318322
0.000720742
-0.000318322
3.1059e-07
0.000816754
-0.00011501
-1.04851e-07
0.000816702
-0.000115087
-2.63939e-07
0.000816642
-0.0001151
-3.811e-07
0.000816615
-0.000115116
-4.98737e-07
0.000816599
-0.000115121
0.000816571
-0.000115111
3.44712e-07
0.000621287
0.00057766
-7.43238e-08
0.000621152
0.000577581
-2.36503e-07
0.000621104
0.000577572
-3.49807e-07
0.000621084
0.000577572
-4.79305e-07
0.000621097
0.000577587
0.000621101
0.000577611
1.89494e-07
0.0020233
-1.39767e-07
0.00202319
-3.01674e-07
0.00202315
-4.58677e-07
0.00202314
-6.51785e-07
0.00202317
0.00202313
-2.7721e-07
0.466379
-0.327768
-4.97762e-07
0.466379
-0.327768
-6.01989e-07
0.466379
-0.327768
-5.21556e-07
0.466379
-0.327768
-2.56621e-07
0.466379
-0.327768
0.466379
-0.327768
2.71627e-07
0.809683
-0.343305
8.68236e-08
0.809684
-0.343305
-1.06569e-08
0.809684
-0.343305
-5.9961e-08
0.809685
-0.343305
9.63043e-08
0.809685
-0.343305
0.809684
-0.343305
1.28742e-06
-0.507108
6.81338e-07
-0.507106
3.31997e-07
-0.507106
3.69624e-07
-0.507106
8.07439e-07
-0.507106
-0.507104
-4.85882e-07
0.411375
-0.702785
-7.73898e-07
0.411376
-0.702785
-9.0213e-07
0.411376
-0.702786
-7.82756e-07
0.411376
-0.702786
-3.92312e-07
0.411376
-0.702786
0.411376
-0.702785
-4.74094e-07
0.94297
-0.874899
-6.07683e-07
0.94297
-0.874899
-7.36968e-07
0.94297
-0.874899
-7.56434e-07
0.94297
-0.874899
-2.57779e-07
0.94297
-0.874899
0.942969
-0.874899
-5.64213e-07
-1.44778
-1.19328e-07
-1.44778
1.98974e-07
-1.44778
-5.3132e-08
-1.44778
1.12626e-08
-1.44778
-1.44777
-4.3818e-07
-0.0494373
-0.979098
-8.68644e-07
-0.0494379
-0.979098
-9.47073e-07
-0.0494376
-0.979098
-7.99015e-07
-0.0494375
-0.979098
-4.48329e-07
-0.0494376
-0.979098
-0.049438
-0.979096
9.1059e-09
1.28555
-2.20989
-3.01274e-08
1.28555
-2.20989
-1.20559e-07
1.28555
-2.20989
-9.36827e-08
1.28555
-2.20989
9.166e-08
1.28555
-2.20989
1.28555
-2.20989
-1.10254e-06
-3.73637
-2.24168e-07
-3.73638
7.89056e-07
-3.73638
1.95128e-06
-3.73638
1.86942e-06
-3.73637
-3.73637
-2.692e-07
-1.03466
-1.07318
-1.24284e-06
-1.03466
-1.07318
-1.05742e-06
-1.03466
-1.07318
-6.52844e-07
-1.03466
-1.07318
-9.17229e-07
-1.03466
-1.07318
-1.03466
-1.07318
3.23119e-07
1.0118
-4.25635
-2.78462e-06
1.0118
-4.25635
-1.84269e-06
1.0118
-4.25635
-6.71393e-07
1.0118
-4.25635
-2.9136e-06
1.0118
-4.25635
1.0118
-4.25635
3.29929e-07
-6.55148
-4.41834e-06
-6.55148
-3.1584e-06
-6.55148
-1.36654e-06
-6.55148
-3.78179e-06
-6.55148
-6.55148
-1.13124e-05
0.299627
-1.009
-7.94746e-06
0.299631
-1.00899
5.51481e-06
0.29963
-1.009
1.67058e-05
0.29963
-1.009
1.83014e-05
0.299636
-1.00899
0.299657
-1.00901
-7.99278e-06
-1.43699
-2.51973
-1.59862e-05
-1.43699
-2.51972
-2.20584e-05
-1.43699
-2.51972
-2.32239e-05
-1.43699
-2.51972
-2.14005e-05
-1.43699
-2.51972
-1.43698
-2.51974
-1.82936e-05
-3.1386
-2.09196e-05
-3.1386
-1.98366e-05
-3.1386
-2.08655e-05
-3.13859
-1.88726e-05
-3.13858
-3.13856
-9.39772e-06
0.469259
-0.86529
3.71322e-06
0.46927
-0.865293
2.83672e-06
0.469258
-0.865294
8.38509e-06
0.469259
-0.865294
2.76489e-05
0.469267
-0.865293
0.469264
-0.865298
-1.10513e-05
-0.959044
-1.09141
4.50365e-06
-0.959053
-1.09141
4.29547e-06
-0.959054
-1.09142
7.59832e-06
-0.959052
-1.09141
1.91514e-05
-0.959053
-1.09142
-0.959042
-1.09141
-9.67252e-06
-1.17647
-1.10851e-05
-1.17647
-1.39373e-05
-1.17647
-1.4869e-05
-1.17647
-1.06912e-05
-1.17647
-1.17646
7.95517e-07
-0.135673
-0.523514
-1.32352e-06
-0.135685
-0.52352
-1.67716e-05
-0.135687
-0.523522
-2.0145e-05
-0.135682
-0.523522
-4.05144e-06
-0.135672
-0.523519
-0.135667
-0.523515
-2.69555e-06
-0.581736
-0.645339
-5.88377e-06
-0.581746
-0.645348
-9.88903e-06
-0.581747
-0.645349
-8.65668e-06
-0.581745
-0.64535
-1.46678e-06
-0.581744
-0.645351
-0.581735
-0.645344
-4.76549e-06
-0.630491
-2.92005e-06
-0.630497
-2.56003e-06
-0.630497
-3.0532e-06
-0.630496
8.42695e-07
-0.630496
-0.63049
1.46119e-05
-0.0757191
-0.316049
1.79361e-06
-0.0757312
-0.316059
-3.08191e-06
-0.0757283
-0.316059
-1.07376e-06
-0.0757272
-0.316059
2.11789e-06
-0.0757273
-0.316058
-0.075729
-0.316054
7.59552e-07
-0.388177
-0.332886
-3.10769e-06
-0.388185
-0.332892
-2.2174e-06
-0.388185
-0.332893
-1.27271e-07
-0.388185
-0.332893
1.49783e-06
-0.388186
-0.332894
-0.388181
-0.332891
-9.71805e-07
-0.273933
-1.71548e-06
-0.273935
-1.56857e-06
-0.273936
-1.70188e-06
-0.273936
-1.31278e-06
-0.273936
-0.273933
-1.7775e-05
-0.0894118
-0.183033
-2.01361e-05
-0.0894034
-0.18304
-1.30254e-05
-0.0893979
-0.183043
-5.05013e-06
-0.0893952
-0.183045
3.99614e-07
-0.0893943
-0.183047
-0.0893928
-0.183045
-9.3438e-06
-0.24302
-0.17927
-9.39197e-06
-0.243021
-0.179273
-7.12058e-06
-0.243019
-0.179273
-4.25866e-06
-0.243018
-0.179274
-1.27785e-06
-0.243017
-0.179274
-0.243013
-0.179272
-2.37602e-06
-0.128226
-2.80403e-06
-0.128228
-2.67836e-06
-0.128228
-2.07482e-06
-0.128227
-1.0626e-06
-0.128227
-0.128226
-3.4642e-05
-0.0766954
-0.108011
-3.32238e-05
-0.0766853
-0.108009
-2.34714e-05
-0.0766785
-0.108007
-1.0746e-05
-0.0766741
-0.108007
-2.41694e-07
-0.0766724
-0.108008
-0.076672
-0.108008
-8.11044e-06
-0.156711
-0.0992458
-9.24109e-06
-0.15671
-0.0992463
-7.78247e-06
-0.156708
-0.0992457
-4.75932e-06
-0.156706
-0.0992454
-1.5681e-06
-0.156705
-0.0992453
-0.156702
-0.0992439
-1.86335e-06
-0.0597309
-2.71599e-06
-0.0597315
-2.62451e-06
-0.0597313
-1.91699e-06
-0.0597311
-9.66511e-07
-0.059731
-0.0597302
-1.10318e-05
-0.0656949
-0.0719839
-1.34189e-05
-0.0656933
-0.0719827
-1.18108e-05
-0.0656913
-0.071981
-6.93847e-06
-0.0656894
-0.0719795
-1.79452e-06
-0.0656886
-0.0719787
-0.0656886
-0.0719775
-2.92491e-06
-0.10597
-0.0589677
-4.08872e-06
-0.105971
-0.0589681
-3.71025e-06
-0.105971
-0.0589674
-2.25859e-06
-0.10597
-0.0589667
-7.10817e-07
-0.10597
-0.0589663
-0.105968
-0.0589651
-9.02086e-07
-0.0301612
-1.25779e-06
-0.0301615
-1.17692e-06
-0.0301613
-8.20453e-07
-0.0301612
-4.03454e-07
-0.030161
-0.0301605
-2.62972e-06
-0.0583823
-0.0610027
-3.92151e-06
-0.0583863
-0.0610027
-3.8137e-06
-0.0583875
-0.0610011
-2.39352e-06
-0.0583886
-0.0609996
-8.06365e-07
-0.0583898
-0.0609984
-0.0583907
-0.0609967
7.01629e-07
-0.0737889
-0.0435628
9.47547e-07
-0.0737906
-0.0435636
1.15168e-06
-0.0737909
-0.0435635
1.40291e-06
-0.0737912
-0.0435635
1.40484e-06
-0.0737916
-0.0435635
-0.0737906
-0.0435627
-3.77978e-07
-0.0178203
-2.61731e-07
-0.0178204
-1.19319e-07
-0.0178204
4.66265e-08
-0.0178203
1.90909e-07
-0.0178202
-0.0178199
4.23529e-07
-0.00326618
0.0119398
-0.00867402
1.50422e-07
-0.00326634
0.0119396
-0.0086745
-8.76258e-09
-0.00326632
0.0119396
-0.00867441
-4.87739e-08
-0.00326632
0.0119396
-0.00867449
-1.41786e-07
-0.00326632
0.0119396
-0.00867456
-0.00326628
0.0119392
-0.00867455
2.27261e-07
-0.00546088
0.0086682
-0.0064744
6.64641e-08
-0.00546112
0.00866806
-0.00647477
-2.30076e-08
-0.00546108
0.00866805
-0.0064747
-7.98867e-08
-0.00546109
0.00866803
-0.00647478
-2.03876e-07
-0.00546109
0.00866806
-0.00647482
-0.00546095
0.00866778
-0.0064748
6.31328e-08
0.00337403
-0.00244584
7.19802e-09
0.00337397
-0.00244596
-2.71662e-08
0.00337398
-0.00244594
-7.11262e-08
0.00337398
-0.00244597
-1.45553e-07
0.003374
-0.002446
0.00337391
-0.002446
3.6055e-08
-0.00459043
0.0165288
-5.50561e-08
-0.00459056
0.0165288
-7.10518e-08
-0.00459053
0.0165287
-1.13034e-07
-0.00459053
0.0165287
-2.33782e-07
-0.00459052
0.0165286
-0.00459043
0.0165283
-7.78289e-08
-0.00775477
0.0118313
-7.0296e-08
-0.00775495
0.0118313
-6.07614e-08
-0.0077549
0.0118312
-1.35902e-07
-0.0077549
0.0118312
-2.8221e-07
-0.0077549
0.0118312
-0.00775467
0.0118311
-6.64764e-08
0.00465459
-2.76686e-08
0.00465459
-2.55801e-08
0.00465461
-7.71481e-08
0.00465462
-1.58172e-07
0.00465466
0.00465465
-3.75427e-07
-0.00644782
0.0229763
-2.35236e-07
-0.00644795
0.0229764
-2.13435e-07
-0.00644791
0.0229764
-2.07251e-07
-0.00644788
0.0229763
-2.40687e-07
-0.00644785
0.0229763
-0.00644768
0.022976
-3.77981e-07
-0.0108755
0.0162589
-2.00985e-07
-0.0108757
0.0162591
-1.36017e-07
-0.0108756
0.0162591
-1.56146e-07
-0.0108756
0.0162591
-2.2658e-07
-0.0108756
0.0162591
-0.0108753
0.016259
-1.61444e-07
0.00644623
-4.25918e-08
0.0064463
-1.27569e-08
0.00644634
-3.32779e-08
0.00644635
-8.53955e-08
0.0064464
0.00644642
-6.99387e-07
-0.00901601
0.031993
-4.63092e-07
-0.00901614
0.0319934
-4.0365e-07
-0.00901608
0.0319932
-2.9892e-07
-0.00901601
0.031993
-1.45959e-07
-0.00901594
0.0319929
-0.00901569
0.0319925
-5.44768e-07
-0.0151593
0.0224033
-3.07827e-07
-0.0151594
0.0224036
-1.73664e-07
-0.0151594
0.0224037
-7.77654e-08
-0.0151593
0.0224036
8.49976e-09
-0.0151593
0.0224036
-0.015159
0.0224034
-1.97312e-07
0.00897439
-3.20528e-08
0.00897457
4.6735e-08
0.00897458
6.97528e-08
0.00897458
8.50762e-08
0.00897462
0.00897458
-8.5189e-07
-0.0125509
0.0445454
-8.37333e-07
-0.012551
0.0445461
-6.56894e-07
-0.0125509
0.0445456
-3.69712e-07
-0.0125508
0.0445452
-3.03575e-08
-0.0125507
0.0445448
-0.0125503
0.044544
-5.18215e-07
-0.0210703
0.0309244
-4.18227e-07
-0.0210705
0.0309251
-1.88934e-07
-0.0210705
0.030925
2.07093e-08
-0.0210704
0.030925
2.76158e-07
-0.0210704
0.0309249
-0.02107
0.0309245
-1.54028e-07
0.0125684
-1.66405e-08
0.0125686
6.92179e-08
0.0125686
1.45896e-07
0.0125686
2.45809e-07
0.0125686
0.0125684
-1.87383e-06
-0.0164547
-2.54155e-06
-0.0164547
-2.49457e-06
-0.0164543
-1.90049e-06
-0.0164538
-7.7707e-07
-0.0164534
-0.0164527
-6.10875e-07
-0.0290909
-6.7405e-07
-0.0290913
-5.82663e-07
-0.0290911
-2.42551e-07
-0.029091
2.63142e-07
-0.0290909
-0.0290903
-7.00558e-08
-3.77342e-08
2.48199e-08
1.35669e-07
3.04416e-07
8.86376e-08
-0.000217917
3.09072e-05
-2.95403e-08
-0.000217945
3.08994e-05
-7.87006e-08
-0.000217939
3.0896e-05
-1.10793e-07
-0.000217936
3.08904e-05
-1.36714e-07
-0.000217928
3.08849e-05
-0.000217913
3.08713e-05
2.98164e-08
-0.000238114
1.99416e-05
-3.4681e-08
-0.000238134
1.99377e-05
-6.20458e-08
-0.000238127
1.99354e-05
-8.2165e-08
-0.00023812
1.99321e-05
-9.99998e-08
-0.000238109
1.99287e-05
-0.000238089
1.99202e-05
-6.43666e-09
7.15822e-06
-2.31672e-08
7.15722e-06
-3.06375e-08
7.15663e-06
-3.95029e-08
7.15567e-06
-5.09757e-08
7.15466e-06
7.15212e-06
5.33127e-08
-0.000230713
6.44826e-05
-5.81011e-08
-0.000230735
6.44827e-05
-1.04649e-07
-0.000230728
6.44811e-05
-1.44627e-07
-0.000230722
6.44787e-05
-1.88246e-07
-0.000230712
6.44773e-05
-0.00023069
6.44739e-05
9.89422e-09
-0.000253002
4.19124e-05
-5.0701e-08
-0.000253019
4.19127e-05
-7.74499e-08
-0.00025301
4.19118e-05
-1.03143e-07
-0.000252999
4.19105e-05
-1.32513e-07
-0.000252985
4.19097e-05
-0.000252958
4.19077e-05
-1.10529e-08
1.5166e-05
-2.7003e-08
1.51662e-05
-3.4975e-08
1.51659e-05
-4.58201e-08
1.51656e-05
-6.0627e-08
1.51653e-05
1.51647e-05
4.88301e-08
-0.000257039
0.000104286
-6.46051e-08
-0.000257061
0.00010429
-1.12705e-07
-0.000257053
0.00010429
-1.52574e-07
-0.000257047
0.00010429
-1.92785e-07
-0.000257035
0.00010429
-0.000257013
0.000104288
7.77844e-09
-0.000284111
6.86772e-05
-5.42517e-08
-0.000284128
6.86802e-05
-8.19395e-08
-0.000284118
6.86803e-05
-1.07402e-07
-0.000284107
6.86803e-05
-1.34467e-07
-0.000284093
6.86807e-05
-0.000284064
6.86793e-05
-1.1652e-08
2.51848e-05
-2.81718e-08
2.51859e-05
-3.63994e-08
2.51859e-05
-4.70336e-08
2.5186e-05
-6.09523e-08
2.5186e-05
2.51854e-05
5.3398e-08
-0.000298582
0.000155331
-6.38916e-08
-0.000298605
0.000155342
-1.12641e-07
-0.000298597
0.000155342
-1.52329e-07
-0.00029859
0.000155344
-1.90445e-07
-0.000298579
0.000155345
-0.000298556
0.000155343
1.25329e-08
-0.000334607
0.000104388
-5.29128e-08
-0.000334626
0.000104396
-8.13917e-08
-0.000334616
0.000104396
-1.06924e-07
-0.000334605
0.000104397
-1.33362e-07
-0.00033459
0.000104397
-0.000334561
0.000104394
-1.00166e-08
3.90285e-05
-2.77629e-08
3.90309e-05
-3.63419e-08