/*--------------------------------*- C++ -*----------------------------------*\
| =========                 |                                                 |
| \\      /  F ield         | OpenFOAM: The Open Source CFD Toolbox           |
|  \\    /   O peration     | Version:  v1612+                                |
|   \\  /    A nd           | Web:      www.OpenFOAM.com                      |
|    \\/     M anipulation  |                                                 |
\*---------------------------------------------------------------------------*/
FoamFile
{
    version     2.0;
    format      ascii;
    class       volVectorField;
    location    "0.7";
    object      U;
}
// * * * * * * * * * * * * * * * * * * * * * * * * * * * * * * * * * * * * * //

dimensions      [0 1 -1 0 0 0 0];

internalField   nonuniform List<vector> 
1116
(
(0.0886271 3.12529e-08 -0.0973997)
(0.0886275 -7.8014e-08 -0.0974)
(0.0886276 -2.5109e-07 -0.0974002)
(0.0886276 -2.88465e-07 -0.0974003)
(0.0886276 -1.98149e-07 -0.0974003)
(0.0886275 -5.90881e-08 -0.0974002)
(0.22798 2.02245e-07 -0.165666)
(0.227981 4.81149e-07 -0.165666)
(0.227981 8.70976e-07 -0.165666)
(0.227981 1.13288e-06 -0.165666)
(0.227981 1.0757e-06 -0.165665)
(0.22798 4.22599e-07 -0.165664)
(0.822719 3.33371e-07 -0.297933)
(0.82272 8.47392e-07 -0.297933)
(0.82272 1.23349e-06 -0.297932)
(0.822719 1.44358e-06 -0.297932)
(0.822718 1.2378e-06 -0.297931)
(0.822717 4.61876e-07 -0.297931)
(0.965493 1.70033e-07 -0.694015)
(0.965494 4.35075e-07 -0.694015)
(0.965494 3.57255e-07 -0.694015)
(0.965493 4.56851e-07 -0.694015)
(0.965492 3.7558e-07 -0.694015)
(0.965491 2.29556e-07 -0.694014)
(2.47331 -5.50355e-07 -0.870433)
(2.47332 -6.88454e-07 -0.870429)
(2.47332 -2.1888e-06 -0.870427)
(2.47332 -2.33016e-06 -0.870427)
(2.47332 -6.1962e-06 -0.870429)
(2.47331 -4.56117e-06 -0.87043)
(4.6114 -2.14044e-05 0.228295)
(4.61138 -1.47772e-05 0.228325)
(4.61138 -4.32349e-05 0.228333)
(4.6114 -5.75101e-05 0.228327)
(4.61147 -9.02255e-05 0.228331)
(4.61139 -4.13282e-05 0.228276)
(1.39336 -4.36686e-06 0.611713)
(1.39328 -3.26585e-05 0.611764)
(1.39317 -6.41412e-05 0.611717)
(1.39316 -4.29069e-05 0.611695)
(1.39319 -1.74454e-05 0.611712)
(1.3932 2.82301e-06 0.611697)
(0.94932 -1.39577e-05 0.36519)
(0.949213 -1.93433e-05 0.36522)
(0.949175 -8.47191e-06 0.365154)
(0.949184 1.51632e-06 0.365115)
(0.949195 1.40647e-05 0.36511)
(0.949183 1.067e-05 0.365115)
(0.475023 -2.61009e-05 0.188038)
(0.474903 1.55487e-05 0.187884)
(0.474962 7.64024e-05 0.187888)
(0.47506 6.19529e-05 0.18791)
(0.475133 4.15519e-05 0.187906)
(0.475153 1.54699e-05 0.187886)
(0.224105 7.5668e-05 0.0994909)
(0.224167 0.000170174 0.0994976)
(0.224261 0.000185595 0.0995756)
(0.224357 0.000163141 0.0996492)
(0.224437 0.000114792 0.0996972)
(0.224492 4.32068e-05 0.0997272)
(0.0944432 6.1342e-05 0.0526131)
(0.0945484 0.000122286 0.0527174)
(0.0945993 0.000119685 0.0527915)
(0.0946295 0.000106762 0.0528497)
(0.0946577 7.72949e-05 0.0528973)
(0.0946952 2.94379e-05 0.0529407)
(0.0289634 3.91468e-06 0.0330174)
(0.0290067 1.03606e-05 0.0330626)
(0.0290141 1.59385e-05 0.0330748)
(0.0290118 1.85331e-05 0.0330805)
(0.0290123 1.34244e-05 0.033088)
(0.0290245 4.47723e-06 0.033102)
(0.0247601 -1.49156e-07 -0.215472)
(0.0247603 -6.24989e-07 -0.215473)
(0.02476 -1.06734e-06 -0.215473)
(0.0247595 -1.09414e-06 -0.215473)
(0.0247589 -7.301e-07 -0.215473)
(0.0247584 -2.20344e-07 -0.215473)
(0.0510495 8.40973e-08 -0.384741)
(0.0510501 2.11185e-07 -0.384742)
(0.0510491 4.56064e-07 -0.384742)
(0.0510476 7.29713e-07 -0.38474)
(0.051046 6.69462e-07 -0.384739)
(0.0510449 2.50219e-07 -0.384737)
(0.341223 1.87681e-07 -0.688225)
(0.341223 8.20026e-07 -0.688225)
(0.341222 1.45814e-06 -0.688223)
(0.34122 1.6853e-06 -0.688222)
(0.341218 1.28552e-06 -0.68822)
(0.341217 4.71533e-07 -0.688218)
(0.267341 1.08474e-07 -1.56287)
(0.267341 6.88268e-07 -1.56287)
(0.26734 8.70912e-07 -1.56287)
(0.267339 7.46254e-07 -1.56287)
(0.267337 3.55088e-07 -1.56287)
(0.267336 1.32206e-07 -1.56287)
(1.07938 1.04064e-06 -2.21889)
(1.07938 -1.82535e-07 -2.21888)
(1.07938 -1.97834e-06 -2.21888)
(1.07938 -3.36387e-06 -2.21888)
(1.07938 -8.48529e-06 -2.21889)
(1.07938 -6.32615e-06 -2.21891)
(5.19451 -4.20384e-05 3.09224)
(5.19429 9.71426e-06 3.09232)
(5.19425 2.33808e-05 3.09233)
(5.19424 -2.73023e-05 3.09232)
(5.19427 -5.98757e-05 3.0923)
(5.19421 -3.32293e-05 3.09203)
(0.568427 3.7161e-06 1.90099)
(0.56832 3.52807e-06 1.90116)
(0.568215 2.74034e-05 1.90104)
(0.568184 7.437e-05 1.90101)
(0.568179 6.14279e-05 1.90106)
(0.568307 1.81847e-05 1.90107)
(0.561071 -7.84722e-06 0.839245)
(0.560895 5.94617e-05 0.839172)
(0.560876 0.000124581 0.839066)
(0.560934 0.000104391 0.839017)
(0.560975 5.70126e-05 0.839024)
(0.561027 9.66144e-06 0.839042)
(0.174978 8.35167e-05 0.428648)
(0.174797 0.000174329 0.428451)
(0.174874 0.0001684 0.428472)
(0.175002 0.000130127 0.428497)
(0.17509 8.21101e-05 0.42848)
(0.175149 2.96135e-05 0.428443)
(0.0643705 8.07353e-05 0.211894)
(0.0644471 9.4801e-05 0.211989)
(0.0645819 1.49183e-05 0.212139)
(0.0647019 -5.93184e-06 0.212257)
(0.064797 -1.13416e-05 0.212329)
(0.0648707 -4.57372e-06 0.212373)
(0.0145166 -1.99435e-05 0.10303)
(0.0146999 -6.72118e-05 0.103206)
(0.0148142 -0.000101619 0.10332)
(0.0148951 -0.000102503 0.103408)
(0.0149608 -7.97715e-05 0.10348)
(0.0150193 -3.16236e-05 0.103546)
(0.00647532 -5.0832e-05 0.0542873)
(0.00656738 -0.000102847 0.0543644)
(0.00660654 -0.000101061 0.0543948)
(0.00663147 -8.77454e-05 0.0544173)
(0.00665275 -6.28195e-05 0.0544416)
(0.00667465 -2.39593e-05 0.0544742)
(-0.073802 -4.13359e-07 -0.174267)
(-0.0738025 -1.23939e-06 -0.174267)
(-0.0738033 -1.65397e-06 -0.174267)
(-0.0738041 -1.4447e-06 -0.174267)
(-0.0738047 -8.1011e-07 -0.174266)
(-0.0738047 -2.21945e-07 -0.174266)
(-0.211269 -3.87838e-09 -0.378604)
(-0.21127 -2.04306e-07 -0.378605)
(-0.211272 -3.51454e-07 -0.378604)
(-0.211274 -2.09536e-07 -0.378602)
(-0.211275 -1.96698e-07 -0.3786)
(-0.211275 -1.32613e-07 -0.378598)
(-0.298382 2.1487e-07 -0.804492)
(-0.298384 9.25421e-07 -0.804493)
(-0.298385 1.13368e-06 -0.804491)
(-0.298388 7.95368e-07 -0.804488)
(-0.298389 1.54875e-07 -0.804486)
(-0.298388 -9.30257e-08 -0.804483)
(-0.301522 2.99687e-07 -1.8531)
(-0.301522 4.2699e-07 -1.8531)
(-0.301523 4.30049e-08 -1.8531)
(-0.301524 -5.75449e-07 -1.8531)
(-0.301525 -4.48453e-07 -1.85309)
(-0.301525 -1.56119e-07 -1.85309)
(-1.07667 2.99724e-05 -4.31008)
(-1.07662 5.69462e-06 -4.30982)
(-1.07662 7.71461e-06 -4.30979)
(-1.07662 -1.44878e-06 -4.30977)
(-1.07663 3.51539e-06 -4.30981)
(-1.07667 -9.93411e-06 -4.31002)
(-3.02771 -5.79999e-06 3.19918)
(-3.02772 -2.39084e-06 3.19925)
(-3.02769 3.95854e-05 3.19926)
(-3.0277 9.82919e-05 3.19928)
(-3.02771 9.70255e-05 3.19927)
(-3.02759 4.14387e-05 3.19901)
(-0.734773 -1.5823e-05 1.7403)
(-0.734762 3.22267e-05 1.74044)
(-0.734744 0.000120252 1.74034)
(-0.734679 0.000141747 1.74036)
(-0.734591 9.65246e-05 1.74046)
(-0.734425 2.39233e-05 1.74044)
(-0.396432 2.61666e-05 0.79488)
(-0.396563 9.16269e-05 0.794703)
(-0.39647 0.000124909 0.794667)
(-0.396332 0.000101735 0.794663)
(-0.396193 4.47354e-05 0.794681)
(-0.396012 2.24595e-06 0.79467)
(-0.201133 9.1413e-05 0.398171)
(-0.201147 0.000128547 0.398204)
(-0.201 5.82937e-05 0.39826)
(-0.200857 2.84376e-05 0.39827)
(-0.200738 6.82767e-07 0.39825)
(-0.200602 -6.80329e-06 0.398217)
(-0.122393 -9.80134e-06 0.183241)
(-0.122251 -7.98534e-05 0.183428)
(-0.122121 -0.000157013 0.183539)
(-0.122019 -0.000167492 0.183597)
(-0.121939 -0.000136232 0.18362)
(-0.121859 -5.57531e-05 0.183619)
(-0.0708766 -7.47584e-05 0.0726663)
(-0.070742 -0.000176182 0.0727751)
(-0.0706727 -0.000209074 0.0728325)
(-0.0706218 -0.000200092 0.0728751)
(-0.0705872 -0.000153273 0.0729061)
(-0.0705683 -6.08529e-05 0.0729297)
(-0.0244429 -4.62722e-05 0.0156234)
(-0.0243905 -9.09233e-05 0.0156635)
(-0.0243693 -8.63735e-05 0.0156902)
(-0.0243542 -7.28046e-05 0.015716)
(-0.0243459 -4.77576e-05 0.01574)
(-0.0243491 -1.64464e-05 0.0157645)
(-0.171907 -3.65539e-07 0.050724)
(-0.171908 -9.94222e-07 0.0507241)
(-0.171908 -1.11811e-06 0.0507243)
(-0.171909 -7.66509e-07 0.0507248)
(-0.171909 -1.17935e-07 0.0507254)
(-0.171908 8.79428e-08 0.0507258)
(-0.543459 -2.54715e-07 -0.198058)
(-0.54346 -7.49156e-07 -0.198058)
(-0.543462 -1.27632e-06 -0.198057)
(-0.543462 -1.50829e-06 -0.198055)
(-0.543461 -1.29459e-06 -0.198053)
(-0.543459 -5.15941e-07 -0.198051)
(-1.03601 -6.76632e-07 -0.805979)
(-1.03601 -4.42402e-07 -0.80598)
(-1.03601 -1.17354e-06 -0.805978)
(-1.03601 -1.94074e-06 -0.805976)
(-1.03601 -2.34087e-06 -0.805975)
(-1.03601 -6.91462e-07 -0.805974)
(-0.850722 6.21718e-07 -1.94399)
(-0.850721 1.48538e-07 -1.94399)
(-0.850721 8.85676e-07 -1.94399)
(-0.85072 8.68546e-07 -1.94399)
(-0.85072 2.92675e-07 -1.94399)
(-0.850719 -9.14286e-07 -1.94399)
(-1.47895 1.31206e-05 0.705514)
(-1.47893 -3.7118e-05 0.705668)
(-1.47894 3.07781e-05 0.705673)
(-1.47893 5.36902e-05 0.705681)
(-1.47892 9.10695e-05 0.70566)
(-1.47895 5.86671e-06 0.705501)
(-2.3626 4.45911e-06 1.41568)
(-2.36263 1.24603e-05 1.41572)
(-2.3626 4.41264e-05 1.41567)
(-2.36255 8.29204e-05 1.41569)
(-2.36248 8.32171e-05 1.41573)
(-2.36255 4.05091e-05 1.41563)
(-1.17697 -1.26136e-05 0.714192)
(-1.177 1.96069e-05 0.714178)
(-1.17699 5.62356e-05 0.714125)
(-1.17691 3.97811e-05 0.714158)
(-1.17677 4.35597e-05 0.714251)
(-1.17674 2.82996e-05 0.714251)
(-0.671412 5.30398e-05 0.433336)
(-0.671466 9.97896e-05 0.433222)
(-0.67137 8.70805e-05 0.433243)
(-0.671267 6.55017e-05 0.433258)
(-0.671144 4.52199e-05 0.433263)
(-0.67105 1.99886e-05 0.433233)
(-0.396677 1.23158e-05 0.196737)
(-0.396573 -1.12429e-05 0.196885)
(-0.396443 -4.31874e-05 0.196956)
(-0.396342 -3.75372e-05 0.196972)
(-0.396251 -2.97979e-05 0.196962)
(-0.396157 -1.19167e-05 0.196931)
(-0.229842 -6.1366e-05 0.0668488)
(-0.229694 -0.000144028 0.0669998)
(-0.2296 -0.000167537 0.0670552)
(-0.229538 -0.000156011 0.0670777)
(-0.229493 -0.000116561 0.0670761)
(-0.229448 -4.54937e-05 0.0670507)
(-0.126721 -5.12719e-05 -0.00915364)
(-0.126658 -0.000113958 -0.00911453)
(-0.126639 -0.000128649 -0.00909442)
(-0.126631 -0.000122451 -0.00907738)
(-0.126634 -9.29884e-05 -0.00906968)
(-0.126647 -3.65941e-05 -0.00907409)
(-0.0539013 -1.55534e-05 -0.0599073)
(-0.0538979 -2.73142e-05 -0.0599094)
(-0.0539077 -2.19584e-05 -0.0599068)
(-0.0539187 -1.63831e-05 -0.0599029)
(-0.0539329 -7.36087e-06 -0.0599014)
(-0.0539532 -1.09677e-06 -0.0599015)
(-4.70065e-05 2.79039e-07 -4.79485e-05)
(-4.69805e-05 2.83347e-07 -4.79875e-05)
(-4.69596e-05 1.59827e-08 -4.80064e-05)
(-4.69461e-05 -2.04238e-08 -4.80196e-05)
(-4.69304e-05 -6.36641e-08 -4.80336e-05)
(-4.6894e-05 -3.15764e-08 -4.80655e-05)
(-0.000142413 2.27716e-07 -4.97682e-05)
(-0.000142382 1.9136e-07 -4.98034e-05)
(-0.00014235 -5.06019e-08 -4.98162e-05)
(-0.00014233 -7.68354e-08 -4.98289e-05)
(-0.000142308 -1.63116e-07 -4.98421e-05)
(-0.000142263 -1.00985e-07 -4.98708e-05)
(-0.000242677 2.18952e-07 -5.3203e-05)
(-0.000242665 1.63895e-07 -5.32373e-05)
(-0.000242647 -8.00709e-08 -5.32457e-05)
(-0.000242636 -9.84213e-08 -5.32595e-05)
(-0.000242625 -1.83386e-07 -5.32726e-05)
(-0.000242608 -1.10465e-07 -5.33008e-05)
(-0.000351055 2.08908e-07 -5.78573e-05)
(-0.000351043 1.43605e-07 -5.78926e-05)
(-0.000351032 -9.51182e-08 -5.78998e-05)
(-0.000351028 -1.05734e-07 -5.79144e-05)
(-0.000351025 -1.88037e-07 -5.79268e-05)
(-0.000351012 -1.1264e-07 -5.7954e-05)
(-0.00046927 2.02204e-07 -6.29244e-05)
(-0.00046927 1.37034e-07 -6.29588e-05)
(-0.000469273 -8.92291e-08 -6.29648e-05)
(-0.00046928 -9.17522e-08 -6.29776e-05)
(-0.000469288 -1.71811e-07 -6.29861e-05)
(-0.00046928 -1.04678e-07 -6.30083e-05)
(-0.000596901 2.13873e-07 -6.68803e-05)
(-0.000596934 1.6682e-07 -6.69066e-05)
(-0.000596953 -5.26749e-08 -6.69101e-05)
(-0.000596971 -5.31098e-08 -6.69162e-05)
(-0.000596988 -1.36133e-07 -6.69188e-05)
(-0.000596981 -8.92235e-08 -6.69338e-05)
(-0.000729747 2.60989e-07 -6.71579e-05)
(-0.000729826 2.40782e-07 -6.71702e-05)
(-0.00072985 -1.22773e-09 -6.71685e-05)
(-0.00072987 -7.76655e-09 -6.71681e-05)
(-0.00072988 -1.04435e-07 -6.71696e-05)
(-0.000729859 -7.82416e-08 -6.71851e-05)
(-0.000858434 3.41212e-07 -6.04535e-05)
(-0.00085855 3.37428e-07 -6.04557e-05)
(-0.000858557 2.78476e-08 -6.04564e-05)
(-0.000858562 6.3036e-09 -6.04599e-05)
(-0.000858543 -1.12057e-07 -6.04715e-05)
(-0.000858489 -8.71839e-08 -6.05042e-05)
(-0.000963792 4.31668e-07 -4.42983e-05)
(-0.000963905 4.11859e-07 -4.431e-05)
(-0.000963876 5.17976e-09 -4.43268e-05)
(-0.000963849 -2.79405e-08 -4.43531e-05)
(-0.000963793 -1.77077e-07 -4.43874e-05)
(-0.000963694 -1.24366e-07 -4.44524e-05)
(-0.000986872 4.97315e-07 -1.24528e-05)
(-0.000986925 4.34669e-07 -1.2503e-05)
(-0.00098685 -7.02987e-08 -1.25523e-05)
(-0.00098678 -1.05384e-07 -1.26192e-05)
(-0.000986687 -2.75799e-07 -1.26921e-05)
(-0.000986543 -1.7799e-07 -1.28046e-05)
(-0.000911237 5.05419e-07 9.3494e-05)
(-0.00091111 3.77224e-07 9.33938e-05)
(-0.000911037 -1.82554e-07 9.33344e-05)
(-0.000910944 -2.02589e-07 9.32586e-05)
(-0.000910844 -3.85914e-07 9.318e-05)
(-0.000910685 -2.3641e-07 9.30539e-05)
(-0.000486964 3.0653e-07 0.000324406)
(-0.000486828 1.91568e-07 0.000324328)
(-0.000486802 -2.00713e-07 0.000324288)
(-0.000486749 -2.44991e-07 0.000324237)
(-0.000486699 -4.1717e-07 0.000324182)
(-0.000486606 -2.59242e-07 0.000324052)
(-4.64161e-05 2.03303e-07 -0.000140776)
(-4.63942e-05 1.70274e-07 -0.000140838)
(-4.63801e-05 -4.75888e-08 -0.000140862)
(-4.63682e-05 -7.38616e-08 -0.000140881)
(-4.63548e-05 -1.55854e-07 -0.000140898)
(-4.63242e-05 -9.61452e-08 -0.000140929)
(-0.000140957 1.60774e-07 -0.000146385)
(-0.000140929 1.01016e-07 -0.00014644)
(-0.000140908 -9.70457e-08 -0.000146453)
(-0.000140889 -1.22529e-07 -0.000146472)
(-0.000140869 -2.40275e-07 -0.000146488)
(-0.00014083 -1.55042e-07 -0.000146513)
(-0.000241161 1.52562e-07 -0.000157123)
(-0.000241148 8.3612e-08 -0.000157177)
(-0.000241135 -1.17847e-07 -0.000157184)
(-0.000241123 -1.43447e-07 -0.000157204)
(-0.000241114 -2.58338e-07 -0.000157219)
(-0.000241098 -1.63793e-07 -0.000157243)
(-0.000350829 1.459e-07 -0.000171899)
(-0.000350819 7.21305e-08 -0.000171952)
(-0.000350809 -1.26875e-07 -0.000171959)
(-0.000350804 -1.47398e-07 -0.000171979)
(-0.000350803 -2.58061e-07 -0.000171992)
(-0.000350793 -1.63765e-07 -0.000172014)
(-0.000472536 1.46947e-07 -0.000188257)
(-0.000472542 7.57814e-08 -0.000188305)
(-0.000472541 -1.17705e-07 -0.000188308)
(-0.000472548 -1.29814e-07 -0.000188323)
(-0.000472557 -2.35939e-07 -0.00018833)
(-0.000472553 -1.52645e-07 -0.000188343)
(-0.000606852 1.69089e-07 -0.000201282)
(-0.000606894 1.09814e-07 -0.000201309)
(-0.000606906 -8.74e-08 -0.000201304)
(-0.000606925 -9.38502e-08 -0.000201307)
(-0.000606936 -2.02706e-07 -0.000201304)
(-0.000606927 -1.36929e-07 -0.000201308)
(-0.000749729 2.18484e-07 -0.000201435)
(-0.00074982 1.74234e-07 -0.000201429)
(-0.000749834 -5.3315e-08 -0.000201414)
(-0.000749848 -6.65275e-08 -0.000201409)
(-0.000749842 -1.93038e-07 -0.000201407)
(-0.000749802 -1.35463e-07 -0.000201419)
(-0.000888393 2.85684e-07 -0.000170347)
(-0.000888513 2.3529e-07 -0.000170322)
(-0.000888502 -6.13279e-08 -0.000170314)
(-0.000888481 -8.54102e-08 -0.000170323)
(-0.000888433 -2.42895e-07 -0.000170345)
(-0.000888331 -1.68199e-07 -0.000170393)
(-0.0010016 3.41267e-07 -6.9471e-05)
(-0.00100169 2.48967e-07 -6.947e-05)
(-0.00100163 -1.37791e-07 -6.94933e-05)
(-0.00100155 -1.67271e-07 -6.95411e-05)
(-0.00100143 -3.61485e-07 -6.96032e-05)
(-0.00100125 -2.39343e-07 -6.97017e-05)
(-0.00109335 3.55687e-07 0.000171381)
(-0.00109336 1.97178e-07 0.000171317)
(-0.00109326 -2.72939e-07 0.00017125)
(-0.00109313 -3.11085e-07 0.000171164)
(-0.00109299 -5.34341e-07 0.000171069)
(-0.00109277 -3.3711e-07 0.000170928)
(-0.00112125 3.53786e-07 0.000512703)
(-0.00112107 1.65612e-07 0.000512542)
(-0.00112096 -3.29633e-07 0.00051244)
(-0.00112082 -3.6534e-07 0.00051234)
(-0.00112068 -6.11341e-07 0.000512237)
(-0.00112045 -3.85881e-07 0.000512081)
(-0.000760842 2.08286e-07 0.00119251)
(-0.000760687 5.63038e-08 0.00119241)
(-0.000760629 -3.00173e-07 0.00119234)
(-0.000760551 -3.74235e-07 0.00119228)
(-0.000760473 -6.74837e-07 0.00119221)
(-0.000760332 -4.51719e-07 0.00119206)
(-4.38874e-05 1.61213e-07 -0.000229107)
(-4.38691e-05 1.16625e-07 -0.000229154)
(-4.38616e-05 -6.99574e-08 -0.00022916)
(-4.38505e-05 -9.06447e-08 -0.000229168)
(-4.38398e-05 -1.6348e-07 -0.000229169)
(-4.38146e-05 -9.7835e-08 -0.000229162)
(-0.000133828 1.2374e-07 -0.000239196)
(-0.000133807 6.46936e-08 -0.000239239)
(-0.000133795 -1.0682e-07 -0.000239237)
(-0.000133779 -1.35419e-07 -0.000239245)
(-0.000133765 -2.3701e-07 -0.000239245)
(-0.000133735 -1.49377e-07 -0.000239232)
(-0.000230888 1.18643e-07 -0.000258888)
(-0.000230883 5.32142e-08 -0.000258928)
(-0.000230876 -1.22336e-07 -0.000258925)
(-0.000230869 -1.51084e-07 -0.000258932)
(-0.000230867 -2.503e-07 -0.000258931)
(-0.000230861 -1.56137e-07 -0.000258916)
(-0.000340461 1.17579e-07 -0.000286882)
(-0.000340463 4.97417e-08 -0.00028692)
(-0.00034046 -1.26987e-07 -0.000286916)
(-0.000340461 -1.51106e-07 -0.000286922)
(-0.000340468 -2.47438e-07 -0.00028692)
(-0.00034047 -1.55491e-07 -0.000286904)
(-0.000467914 1.28243e-07 -0.00031989)
(-0.000467937 6.36814e-08 -0.00031992)
(-0.000467941 -1.16691e-07 -0.000319912)
(-0.000467954 -1.34324e-07 -0.000319913)
(-0.000467968 -2.28818e-07 -0.000319906)
(-0.000467974 -1.46627e-07 -0.000319884)
(-0.000619045 1.62007e-07 -0.000350874)
(-0.000619106 1.03422e-07 -0.000350879)
(-0.000619117 -9.57795e-08 -0.000350862)
(-0.000619134 -1.09243e-07 -0.000350854)
(-0.000619143 -2.10705e-07 -0.000350842)
(-0.000619136 -1.38647e-07 -0.000350819)
(-0.000801266 2.18421e-07 -0.000367334)
(-0.000801364 1.64751e-07 -0.000367308)
(-0.000801366 -8.33661e-08 -0.000367284)
(-0.000801366 -1.05428e-07 -0.000367278)
(-0.000801348 -2.26771e-07 -0.000367275)
(-0.000801295 -1.5103e-07 -0.000367273)
(-0.00103057 2.8107e-07 -0.000351528)
(-0.00103067 2.06736e-07 -0.000351497)
(-0.00103064 -1.18022e-07 -0.000351486)
(-0.00103059 -1.47765e-07 -0.000351504)
(-0.00103052 -3.0167e-07 -0.000351534)
(-0.0010304 -1.97699e-07 -0.000351572)
(-0.00132665 3.21289e-07 -0.000288507)
(-0.00132671 2.02569e-07 -0.000288523)
(-0.00132663 -1.96783e-07 -0.000288548)
(-0.00132654 -2.27073e-07 -0.000288603)
(-0.00132643 -4.13619e-07 -0.000288666)
(-0.00132626 -2.64816e-07 -0.000288736)
(-0.00154352 3.43557e-07 -0.000158034)
(-0.00154348 1.90986e-07 -0.000158129)
(-0.00154335 -2.48392e-07 -0.000158195)
(-0.00154323 -2.67311e-07 -0.00015826)
(-0.00154311 -4.79274e-07 -0.00015832)
(-0.00154294 -3.08535e-07 -0.00015838)
(-0.0016783 3.57123e-07 0.000157314)
(-0.00167807 1.80447e-07 0.000157133)
(-0.00167793 -2.80053e-07 0.00015703)
(-0.00167779 -2.87677e-07 0.000156975)
(-0.00167767 -5.24397e-07 0.000156937)
(-0.00167752 -3.41881e-07 0.000156906)
(-0.00110541 2.60334e-07 0.00110311)
(-0.00110524 1.11019e-07 0.00110303)
(-0.00110516 -2.68958e-07 0.00110295)
(-0.00110509 -3.36971e-07 0.00110293)
(-0.00110504 -6.30537e-07 0.0011029)
(-0.00110496 -4.27483e-07 0.00110287)
(-3.90082e-05 1.17255e-07 -0.000308692)
(-3.89937e-05 7.40201e-08 -0.000308743)
(-3.8989e-05 -7.38872e-08 -0.000308738)
(-3.89801e-05 -9.21978e-08 -0.000308742)
(-3.89721e-05 -1.51448e-07 -0.000308735)
(-3.89523e-05 -8.95905e-08 -0.000308719)
(-0.000119641 8.74943e-08 -0.000324262)
(-0.000119624 3.50338e-08 -0.000324306)
(-0.000119617 -1.01772e-07 -0.000324299)
(-0.000119605 -1.28652e-07 -0.000324299)
(-0.000119596 -2.1072e-07 -0.00032429)
(-0.000119573 -1.31402e-07 -0.000324265)
(-0.000208887 8.49214e-08 -0.000355268)
(-0.000208884 2.80446e-08 -0.00035531)
(-0.00020888 -1.12822e-07 -0.000355302)
(-0.000208877 -1.39396e-07 -0.000355301)
(-0.000208879 -2.19701e-07 -0.000355291)
(-0.000208877 -1.36283e-07 -0.000355264)
(-0.000314022 8.81295e-08 -0.000401143)
(-0.000314028 2.96279e-08 -0.000401184)
(-0.000314027 -1.1554e-07 -0.000401176)
(-0.000314032 -1.38521e-07 -0.000401174)
(-0.000314041 -2.17586e-07 -0.000401163)
(-0.000314044 -1.36151e-07 -0.000401134)
(-0.000443973 1.03025e-07 -0.000459456)
(-0.000443999 4.68151e-08 -0.000459492)
(-0.000444001 -1.092e-07 -0.000459479)
(-0.000444013 -1.28837e-07 -0.000459474)
(-0.000444025 -2.08122e-07 -0.000459461)
(-0.000444028 -1.32339e-07 -0.000459429)
(-0.000608917 1.40196e-07 -0.000522896)
(-0.000608968 8.24194e-08 -0.000522918)
(-0.000608968 -1.02657e-07 -0.000522898)
(-0.000608978 -1.19737e-07 -0.000522889)
(-0.00060898 -2.0918e-07 -0.000522876)
(-0.000608963 -1.34372e-07 -0.000522849)
(-0.000815574 1.93234e-07 -0.000572143)
(-0.000815636 1.27888e-07 -0.000572153)
(-0.000815617 -1.11805e-07 -0.000572132)
(-0.000815603 -1.3344e-07 -0.00057213)
(-0.000815574 -2.46914e-07 -0.00057213)
(-0.00081551 -1.59844e-07 -0.000572125)
(-0.0010527 2.42347e-07 -0.000559796)
(-0.00105274 1.51856e-07 -0.000559825)
(-0.00105268 -1.56921e-07 -0.000559818)
(-0.00105262 -1.85512e-07 -0.00055984)
(-0.00105255 -3.3302e-07 -0.000559868)
(-0.00105243 -2.13373e-07 -0.000559894)
(-0.00128542 2.68553e-07 -0.000381631)
(-0.00128539 1.41903e-07 -0.000381716)
(-0.00128529 -2.23562e-07 -0.00038174)
(-0.0012852 -2.53745e-07 -0.00038179)
(-0.0012851 -4.28895e-07 -0.000381838)
(-0.00128497 -2.70761e-07 -0.000381876)
(-0.00158154 2.92752e-07 0.000190585)
(-0.00158143 1.32953e-07 0.000190426)
(-0.0015813 -2.6773e-07 0.000190369)
(-0.00158121 -2.78681e-07 0.000190309)
(-0.00158115 -4.7182e-07 0.000190271)
(-0.00158106 -2.9907e-07 0.000190246)
(-0.00205559 3.39402e-07 0.0017684)
(-0.00205536 1.63864e-07 0.00176826)
(-0.00205524 -2.67275e-07 0.00176821)
(-0.00205518 -2.43311e-07 0.00176819)
(-0.00205517 -4.55073e-07 0.0017682)
(-0.00205514 -2.9701e-07 0.00176821)
(-0.00207867 2.55048e-07 0.00514535)
(-0.00207853 7.74028e-08 0.00514537)
(-0.00207847 -3.03611e-07 0.0051453)
(-0.00207843 -3.23994e-07 0.00514526)
(-0.00207843 -6.11902e-07 0.00514526)
(-0.00207839 -4.08842e-07 0.00514512)
(-0.312367 -1.07811e-07 0.54424)
(-0.312368 -3.55786e-07 0.544241)
(-0.312368 -4.48084e-07 0.544241)
(-0.312368 -4.56354e-07 0.544241)
(-0.312368 -4.22984e-07 0.544242)
(-0.312368 -2.58614e-07 0.544241)
(-0.309589 2.59291e-07 1.06234)
(-0.309589 1.74917e-07 1.06234)
(-0.309589 5.74444e-08 1.06234)
(-0.309589 -1.15968e-08 1.06234)
(-0.309589 2.8191e-08 1.06234)
(-0.309589 -3.61411e-08 1.06234)
(-0.430928 6.76995e-07 2.33493)
(-0.430929 9.8949e-07 2.33494)
(-0.430929 4.79376e-07 2.33494)
(-0.430929 2.83892e-07 2.33494)
(-0.430929 5.23311e-07 2.33494)
(-0.430928 3.43624e-07 2.33493)
(-1.00342 -4.76155e-07 0.407489)
(-1.00342 -6.33319e-07 0.407489)
(-1.00342 -6.73555e-07 0.40749)
(-1.00342 -7.71382e-07 0.40749)
(-1.00342 -6.55695e-07 0.407491)
(-1.00342 -5.70363e-08 0.407491)
(-1.02525 -4.89929e-07 0.878314)
(-1.02525 -4.41936e-07 0.878315)
(-1.02525 -5.85842e-07 0.878315)
(-1.02525 -5.44885e-07 0.878315)
(-1.02525 -6.86868e-07 0.878316)
(-1.02525 -1.67881e-08 0.878315)
(-1.65659 -1.44635e-06 3.2942)
(-1.65658 -2.08663e-07 3.2942)
(-1.65658 2.27397e-07 3.2942)
(-1.65658 3.63467e-07 3.2942)
(-1.65657 -4.42123e-07 3.2942)
(-1.65657 7.17226e-08 3.2942)
(-1.87534 -1.04488e-06 -0.140075)
(-1.87534 5.07206e-08 -0.140076)
(-1.87534 -1.32746e-06 -0.140075)
(-1.87534 -3.68804e-07 -0.140074)
(-1.87534 -1.3352e-06 -0.140074)
(-1.87534 7.12015e-07 -0.140075)
(-2.89522 -1.38106e-06 -0.175536)
(-2.89522 1.2691e-06 -0.175537)
(-2.89522 -1.13149e-06 -0.175537)
(-2.89522 8.98333e-07 -0.175537)
(-2.89522 -1.2927e-06 -0.175538)
(-2.89522 1.76989e-06 -0.175538)
(-4.42723 -1.74568e-06 6.20969)
(-4.42723 1.43275e-07 6.2097)
(-4.42723 -6.18243e-07 6.2097)
(-4.42723 1.92595e-06 6.2097)
(-4.42723 1.42618e-06 6.2097)
(-4.42722 2.76315e-06 6.20969)
(-1.63048 1.57462e-06 -2.11015)
(-1.63048 -1.96918e-06 -2.11015)
(-1.63048 -4.0576e-07 -2.11015)
(-1.63048 -1.56821e-06 -2.11015)
(-1.63048 4.73074e-07 -2.11015)
(-1.63048 -2.32984e-06 -2.11014)
(-4.58241 6.61429e-06 -1.62728)
(-4.58241 -5.7411e-06 -1.62728)
(-4.58241 2.12661e-07 -1.62728)
(-4.58241 -3.61749e-06 -1.62728)
(-4.58241 2.6556e-06 -1.62728)
(-4.5824 -8.52268e-06 -1.62728)
(-8.59396 1.11736e-05 6.55016)
(-8.59396 -9.89792e-06 6.55016)
(-8.59397 9.56335e-07 6.55016)
(-8.59397 -6.75708e-06 6.55016)
(-8.59396 4.98986e-06 6.55016)
(-8.59395 -1.34247e-05 6.55016)
(-2.63956 4.51723e-05 0.513343)
(-2.63955 -4.64422e-05 0.513372)
(-2.63956 2.0679e-05 0.513367)
(-2.63956 -1.06922e-05 0.513366)
(-2.63955 5.44713e-05 0.51337)
(-2.63957 -4.15228e-05 0.513389)
(-10.9331 7.75092e-05 1.21006)
(-10.9331 -5.29755e-05 1.21006)
(-10.9331 -2.55452e-06 1.21007)
(-10.9331 -3.23992e-05 1.21007)
(-10.9331 2.16884e-05 1.21008)
(-10.9331 -0.000104842 1.21013)
(-14.4111 3.09226e-05 -8.38971)
(-14.4111 -5.0604e-05 -8.38973)
(-14.4111 -1.2931e-06 -8.38975)
(-14.4111 -3.89086e-05 -8.38975)
(-14.411 1.43054e-05 -8.38976)
(-14.411 -4.98098e-05 -8.38977)
(-1.67468 -1.01921e-05 1.11681)
(-1.67467 -2.29336e-06 1.11685)
(-1.67468 6.28028e-06 1.11682)
(-1.67467 -3.49458e-06 1.11682)
(-1.67467 2.11299e-05 1.11685)
(-1.67471 2.50989e-05 1.11684)
(-1.26703 -1.07257e-05 0.583772)
(-1.26701 2.98721e-07 0.583775)
(-1.26702 4.43018e-06 0.583767)
(-1.26702 4.56777e-06 0.583767)
(-1.26701 1.26318e-05 0.583768)
(-1.26703 1.237e-05 0.583764)
(-1.67004 -6.36454e-06 -5.08434)
(-1.67002 -1.04886e-05 -5.08438)
(-1.67002 -1.07883e-05 -5.08438)
(-1.67001 -1.41635e-05 -5.08437)
(-1.66999 -1.40277e-05 -5.08437)
(-1.67 -4.49834e-06 -5.08433)
(-1.50658 4.38801e-07 0.0847581)
(-1.50659 2.66918e-06 0.0847263)
(-1.5066 -6.25663e-06 0.0847158)
(-1.5066 -2.3231e-05 0.0847261)
(-1.50659 -1.18468e-05 0.0847516)
(-1.50658 4.15255e-06 0.0847648)
(-2.25104 -1.79054e-06 -0.476379)
(-2.25106 -2.83356e-06 -0.476393)
(-2.25106 -8.31325e-06 -0.476393)
(-2.25106 -9.57568e-06 -0.476388)
(-2.25107 -5.30893e-06 -0.476381)
(-2.25105 1.54954e-06 -0.476372)
(-2.41916 -3.57236e-06 -2.0156)
(-2.41918 -3.35916e-06 -2.01562)
(-2.41918 -1.85588e-06 -2.01562)
(-2.41918 -3.36946e-06 -2.01562)
(-2.41918 -1.05211e-06 -2.01562)
(-2.41916 1.78427e-06 -2.0156)
(-0.788129 1.25301e-05 0.0680055)
(-0.788145 9.67406e-06 0.0679744)
(-0.788148 -3.51489e-06 0.0679902)
(-0.788148 -2.65751e-06 0.0679987)
(-0.788142 3.82788e-07 0.0679975)
(-0.788135 1.92757e-06 0.0679874)
(-0.758367 1.39539e-06 -0.317782)
(-0.758379 -1.10863e-06 -0.317796)
(-0.758381 -3.35169e-06 -0.317794)
(-0.758382 -1.11886e-06 -0.317793)
(-0.758382 7.28425e-07 -0.317792)
(-0.758374 5.53343e-07 -0.317786)
(-0.616767 1.37746e-07 -1.32914)
(-0.616772 -1.72131e-06 -1.32916)
(-0.616772 -1.33877e-06 -1.32916)
(-0.616772 -1.61582e-06 -1.32916)
(-0.616772 -1.15807e-06 -1.32916)
(-0.616766 -1.46656e-06 -1.32915)
(-0.492689 -1.27951e-05 -0.036715)
(-0.49271 -2.22099e-05 -0.0366404)
(-0.492716 -1.55056e-05 -0.0366056)
(-0.492722 -8.46251e-06 -0.0365947)
(-0.492725 -1.59323e-06 -0.0365963)
(-0.492719 7.93311e-07 -0.0366073)
(-0.504717 -5.84957e-06 -0.282963)
(-0.504726 -1.01404e-05 -0.282962)
(-0.504728 -7.84917e-06 -0.282957)
(-0.50473 -5.33226e-06 -0.282954)
(-0.504732 -2.81894e-06 -0.282953)
(-0.504727 -6.36814e-07 -0.282947)
(-0.399841 -1.01018e-06 -0.702355)
(-0.399845 -2.49807e-06 -0.702362)
(-0.399846 -2.62515e-06 -0.702361)
(-0.399846 -2.23655e-06 -0.70236)
(-0.399846 -1.47185e-06 -0.70236)
(-0.399842 -6.09802e-07 -0.702351)
(-0.282166 -2.22699e-05 -0.0718033)
(-0.282168 -3.76375e-05 -0.0717479)
(-0.282167 -2.63682e-05 -0.0717247)
(-0.282167 -1.60861e-05 -0.0717119)
(-0.282168 -3.50221e-06 -0.0717103)
(-0.282165 1.55525e-06 -0.0717212)
(-0.26452 -4.65239e-06 -0.21089)
(-0.264522 -9.10196e-06 -0.210884)
(-0.264522 -8.15455e-06 -0.210876)
(-0.264521 -5.90618e-06 -0.210871)
(-0.264521 -2.8444e-06 -0.210869)
(-0.264517 -6.14835e-07 -0.210865)
(-0.168806 -8.50584e-07 -0.408405)
(-0.168808 -2.27626e-06 -0.408409)
(-0.168807 -2.53453e-06 -0.408406)
(-0.168807 -2.13394e-06 -0.408404)
(-0.168807 -1.34839e-06 -0.408403)
(-0.168805 -5.88294e-07 -0.408396)
(-0.168572 -7.06786e-06 -0.0901073)
(-0.168565 -1.28682e-05 -0.0901024)
(-0.168559 -1.15491e-05 -0.0900964)
(-0.168555 -9.07005e-06 -0.0900893)
(-0.168553 -3.05458e-06 -0.0900861)
(-0.168551 3.59229e-07 -0.0900891)
(-0.150842 -1.71639e-06 -0.157558)
(-0.150842 -3.6131e-06 -0.157558)
(-0.15084 -3.6726e-06 -0.157555)
(-0.150838 -2.813e-06 -0.157553)
(-0.150836 -1.12898e-06 -0.157551)
(-0.150834 -9.0732e-08 -0.157548)
(-0.0842097 -4.71881e-07 -0.247104)
(-0.0842104 -1.09325e-06 -0.247107)
(-0.0842098 -1.13876e-06 -0.247105)
(-0.0842093 -9.14646e-07 -0.247104)
(-0.0842088 -5.36478e-07 -0.247104)
(-0.0842075 -2.18911e-07 -0.247099)
(-0.134683 -1.15432e-06 -0.102671)
(-0.134683 -3.05891e-06 -0.102682)
(-0.134681 -3.70734e-06 -0.102686)
(-0.134679 -3.06895e-06 -0.10269)
(-0.134678 -1.07808e-06 -0.102694)
(-0.134675 1.72249e-07 -0.102698)
(-0.100527 4.69728e-07 -0.118868)
(-0.100528 8.70881e-07 -0.11887)
(-0.100528 1.03292e-06 -0.118869)
(-0.100527 1.2949e-06 -0.118868)
(-0.100527 1.62256e-06 -0.118868)
(-0.100525 8.37993e-07 -0.118865)
(-0.0459495 -2.10224e-07 -0.157572)
(-0.0459499 -3.47175e-07 -0.157575)
(-0.0459496 -1.70957e-07 -0.157576)
(-0.0459494 -2.37487e-08 -0.157576)
(-0.0459491 1.70644e-07 -0.157576)
(-0.0459482 1.07088e-07 -0.157574)
(-0.0204698 9.1031e-07 -0.00516866)
(-0.0204701 6.19498e-07 -0.00516893)
(-0.02047 -1.59013e-07 -0.0051689)
(-0.02047 7.80362e-08 -0.00516892)
(-0.0204701 -2.07964e-07 -0.00516893)
(-0.0204697 -2.11294e-07 -0.00516889)
(-0.0150477 5.40347e-07 -0.013464)
(-0.015048 3.36415e-07 -0.0134646)
(-0.0150479 -1.42045e-07 -0.0134645)
(-0.0150479 2.26422e-08 -0.0134646)
(-0.015048 -3.18095e-07 -0.0134646)
(-0.0150477 -2.80491e-07 -0.0134643)
(-0.00577435 1.5237e-07 -0.0192768)
(-0.00577444 7.55922e-08 -0.0192775)
(-0.00577443 -7.40842e-08 -0.0192774)
(-0.00577447 -3.61128e-08 -0.0192774)
(-0.00577452 -2.30415e-07 -0.0192773)
(-0.00577443 -1.90102e-07 -0.0192767)
(-0.0281524 2.76707e-07 -0.00733624)
(-0.0281521 -2.64519e-08 -0.00733648)
(-0.028152 -2.47767e-07 -0.00733645)
(-0.0281519 1.1657e-08 -0.00733645)
(-0.0281519 -4.07881e-07 -0.00733646)
(-0.0281512 -4.40849e-07 -0.00733636)
(-0.0203246 5.63745e-08 -0.019102)