/*--------------------------------*- C++ -*----------------------------------*\
| =========                 |                                                 |
| \\      /  F ield         | OpenFOAM: The Open Source CFD Toolbox           |
|  \\    /   O peration     | Version:  v1612+                                |
|   \\  /    A nd           | Web:      www.OpenFOAM.com                      |
|    \\/     M anipulation  |                                                 |
\*---------------------------------------------------------------------------*/
FoamFile
{
    version     2.0;
    format      ascii;
    class       surfaceScalarField;
    location    "5.65";
    object      alphaPhi;
}
// * * * * * * * * * * * * * * * * * * * * * * * * * * * * * * * * * * * * * //

dimensions      [0 3 -1 0 0 0 0];

internalField   nonuniform List<scalar> 
2916
(
3.74268e-06
-0.164266
0.201961
1.13297e-06
-0.164287
0.202018
4.61136e-06
-0.164277
0.201989
7.33553e-06
-0.164277
0.201985
-3.02645e-06
-0.164284
0.202007
-0.164268
0.201975
-3.4105e-05
-0.7811
0.234039
8.23666e-06
-0.781098
0.233984
9.02786e-06
-0.781085
0.234011
-2.43256e-08
-0.78108
0.234016
1.07546e-05
-0.781081
0.234002
-0.781093
0.234021
-7.29083e-05
-1.79512
0.163601
1.41873e-05
-1.7952
0.163453
1.59872e-05
-1.79515
0.163519
-5.40101e-06
-1.79514
0.163542
1.92863e-05
-1.79516
0.163501
-1.79514
0.163559
-4.4605e-05
-1.79247
-0.00247724
1.15559e-05
-1.7926
-0.00253552
9.81834e-06
-1.79251
-0.00250908
-8.39023e-06
-1.7925
-0.00249213
1.91241e-06
-1.79253
-0.00250986
-1.79252
-0.00249112
-3.16996e-05
-1.73382
-0.0584955
7.43133e-06
-1.73404
-0.058465
6.78035e-06
-1.73391
-0.0584689
-3.68625e-06
-1.7339
-0.0584617
-5.00739e-06
-1.73395
-0.0584529
-1.7339
-0.0584962
5.18413e-07
-1.59236
-0.141065
1.0385e-05
-1.59271
-0.140948
9.88024e-06
-1.59254
-0.140978
4.53521e-06
-1.59251
-0.140984
-2.4469e-05
-1.59258
-0.140948
-1.59247
-0.141059
7.55733e-05
-1.35686
-0.234065
2.16084e-05
-1.35728
-0.233872
7.61919e-06
-1.35709
-0.233928
6.4455e-06
-1.35706
-0.233952
-5.13319e-05
-1.35714
-0.233884
-1.35697
-0.234043
0.000220385
-1.11305
-0.226914
1.74808e-05
-1.11328
-0.226729
-4.92588e-05
-1.11316
-0.226783
-9.27618e-06
-1.11322
-0.226773
1.10723e-05
-1.11345
-0.226599
-1.1129
-0.226964
0.00056599
-0.890319
-0.196035
-4.14496e-05
-0.889549
-0.195944
-0.000323644
-0.889733
-0.195952
-9.4244e-05
-0.890287
-0.1959
0.000592153
-0.891293
-0.195556
-0.888817
-0.196325
0.000771391
-0.6566
-0.21027
-0.000105426
-0.654488
-0.210069
-0.000671605
-0.654925
-0.210102
-0.000143033
-0.656487
-0.210117
0.00132569
-0.658669
-0.209815
-0.652936
-0.210475
0.0002398
-0.254899
-0.378325
-8.95934e-06
-0.252847
-0.377854
-0.000311379
-0.253219
-0.377847
1.17737e-05
-0.254859
-0.378342
0.000308249
-0.256533
-0.378778
-0.251591
-0.377521
-0.000865729
-0.229802
0.000225554
-0.229752
0.00106285
-0.229857
0.000178659
-0.229749
-0.00234638
-0.22976
-0.229766
-0.000188704
-0.0787215
0.0140045
-1.16942e-05
-0.0785413
0.0141246
8.7848e-06
-0.0786168
0.0140706
2.55607e-06
-0.0786228
0.0140588
6.77382e-05
-0.0785807
0.0140828
-0.0786709
0.0140453
-8.80897e-05
-1.57691
0.193284
-3.34035e-06
-1.5772
0.193279
-7.47571e-06
-1.57704
0.193285
4.79644e-06
-1.57702
0.193256
2.94825e-05
-1.5771
0.193275
-1.577
0.193273
0.000155254
-2.2317
-0.0462005
9.39499e-06
-2.23193
-0.0460257
-3.2598e-05
-2.23181
-0.0460852
4.11903e-06
-2.23182
-0.0461269
-9.45656e-05
-2.23187
-0.0460478
-2.23177
-0.0461685
0.000178033
-1.93576
-0.215566
1.16244e-06
-1.93595
-0.215329
-2.22025e-05
-1.93586
-0.215431
7.55833e-06
-1.93587
-0.215456
-0.000121461
-1.93589
-0.215365
-1.93584
-0.215519
0.000115874
-1.46322
-0.242948
-1.42356e-05
-1.4635
-0.24275
-1.36499e-05
-1.4634
-0.242836
1.1907e-05
-1.46337
-0.242852
-8.61593e-05
-1.4634
-0.242777
-1.46333
-0.242915
-6.047e-07
-0.842266
-0.258836
-3.31262e-05
-0.842668
-0.258745
-2.04932e-05
-0.842544
-0.258789
1.0574e-05
-0.842464
-0.258787
4.03181e-05
-0.842555
-0.258745
-0.842353
-0.258833
-8.34555e-05
-0.225449
-0.215125
-4.55153e-05
-0.225684
-0.215135
-7.38722e-05
-0.225606
-0.215136
4.63324e-06
-0.225572
-0.215129
0.000269951
-0.225752
-0.215123
-0.225344
-0.21511
-8.45176e-05
0.0726021
-0.0257834
-5.44162e-05
0.0725951
-0.0257884
-6.32891e-05
0.0726114
-0.0258007
1.48089e-05
0.0725295
-0.0257572
0.000222108
0.0722648
-0.0257183
0.0730158
-0.02582
-0.000106319
0.183226
-0.00244902
-1.68438e-05
0.182579
-0.00243999
-2.73471e-05
0.182789
-0.00244409
4.60617e-05
0.183125
-0.00244413
6.42986e-05
0.183704
-0.00244742
0.182321
-0.00244421
-0.000281118
0.151653
-0.000507447
5.81357e-05
0.149551
-0.000555263
0.000407455
0.150063
-0.00054313
8.1138e-05
0.151571
-0.000513401
-0.000763478
0.153955
-0.000491497
0.147842
-0.000566251
-0.00165833
-0.0459322
0.00117608
0.000320376
-0.0479062
0.000728349
0.00191734
-0.0475075
0.000791716
0.000150885
-0.0459131
0.00117489
-0.00327298
-0.0444089
0.00148285
-0.0490438
0.000514678
-0.000299678
-0.0144803
0.000127061
-0.0138002
0.000752363
-0.0138896
0.000365686
-0.0144739
-0.00128179
-0.0145997
-0.0136887
-0.000285619
-0.38812
0.0508552
4.36161e-06
-0.38842
0.0510734
1.22363e-05
-0.388278
0.050981
-7.55245e-06
-0.388241
0.0509621
0.000117201
-0.388279
0.0510056
-0.388223
0.050931
-0.000264085
-0.695481
0.018792
-1.99806e-05
-0.695626
0.0187719
2.19511e-06
-0.695608
0.0187922
-5.94111e-06
-0.695553
0.0187807
0.000126483
-0.695573
0.0187721
-0.695555
0.0187887
-0.000225646
-0.527758
-0.00079238
-1.8249e-05
-0.527798
-0.00079002
3.13044e-05
-0.527823
-0.000789456
1.39066e-06
-0.527784
-0.000789324
0.000106602
-0.527802
-0.000789048
-0.527796
-0.000790205
-0.000163196
-0.280554
-1.88669e-06
-1.99303e-05
-0.280614
-1.82356e-06
2.18697e-05
-0.280611
-1.87384e-06
9.66522e-07
-0.280575
-1.81205e-06
8.27314e-05
-0.280605
-1.82412e-06
-0.280577
-1.90005e-06
-0.000116314
-0.061055
-3.20072e-06
-1.78654e-05
-0.0611342
-3.20753e-06
5.24338e-06
-0.0611023
-3.19702e-06
5.70628e-07
-0.0610788
-3.19586e-06
7.93445e-05
-0.0611223
-3.22676e-06
-0.061058
-3.19661e-06
-4.02345e-05
0.0382368
-5.21244e-06
-1.34768e-05
0.0382077
-5.17407e-06
-1.67404e-05
0.0382283
-5.18667e-06
-1.96965e-06
0.0382221
-5.2097e-06
7.36602e-05
0.03817
-5.25199e-06
0.0382665
-5.17176e-06
2.70495e-06
0.028539
-4.44598e-06
-4.33026e-06
0.0285391
-4.44617e-06
-9.48621e-06
0.028554
-4.44929e-06
-1.60667e-06
0.0285095
-4.43524e-06
1.31123e-05
0.0284672
-4.45648e-06
0.0285744
-4.44821e-06
2.91869e-06
0.00277741
-2.56703e-05
-8.89712e-07
0.00278175
-2.8484e-05
-3.03439e-06
0.00278209
-2.77673e-05
-9.62654e-07
0.00277534
-2.61455e-05
5.13985e-06
0.00276676
-2.47742e-05
0.00278712
-2.88144e-05
3.91239e-07
0.000279334
-1.60151e-05
-3.35531e-08
0.000283793
-1.59089e-05
-6.64374e-07
0.000283056
-1.58566e-05
-1.0233e-07
0.000279631
-1.61467e-05
7.20477e-07
0.000277733
-1.65581e-05
0.000284629
-1.53482e-05
-5.46391e-07
0.000108296
-0.000385568
1.29108e-07
0.000110553
-0.000441649
4.87419e-07
0.000109688
-0.00042722
1.33782e-07
0.000108672
-0.000394428
-1.37403e-06
0.000109603
-0.000365346
0.000109093
-0.000451343
-0.000797768
0.00745875
-0.00801078
0.000139304
0.00488199
-0.00684115
0.000766757
0.00533361
-0.00707147
8.49825e-05
0.00738508
-0.00787198
-0.00142646
0.0096356
-0.00845736
0.00318432
-0.00666538
0.000779431
-0.0139725
-0.000156454
-0.0141962
-0.000789081
-0.0141428
-4.23122e-05
-0.0140082
0.00211786
-0.0132101
-0.0144723
-7.23364e-05
-0.0278871
-0.00350151
-8.96937e-06
-0.0280447
-0.00375685
-5.80147e-06
-0.0279837
-0.00363775
-5.37015e-06
-0.0279642
-0.00363994
2.99758e-05
-0.0279977
-0.00370915
-0.0279403
-0.00358416
-1.50454e-05
-6.71144e-06
-0.000491918
-5.47402e-06
-7.30087e-06
-0.000482673
-4.70906e-06
-7.03618e-06
-0.000488214
-6.1579e-06
-6.9734e-06
-0.000486274
3.13095e-06
-7.09989e-06
-0.000483617
-6.86672e-06
-0.000488774
-1.70325e-08
-6.41993e-07
-0.000797244
-6.27156e-09
-6.41976e-07
-0.000795508
-1.17776e-08
-6.42021e-07
-0.000794646
-8.54294e-09
-6.41134e-07
-0.00079448
3.51754e-09
-6.41221e-07
-0.000794338
-6.39274e-07
-0.000795225
-3.98702e-10
1.63523e-08
-1.42129e-06
8.89852e-12
1.46197e-08
-1.35756e-06
-1.91423e-10
1.56983e-08
-1.40341e-06
-1.44957e-10
1.59742e-08
-1.34905e-06
3.59384e-10
1.50103e-08
-1.35567e-06
1.62811e-08
-1.41994e-06
4.24766e-10
5.08188e-07
-2.67259e-06
-7.27457e-11
5.07792e-07
-2.68133e-06
-2.54676e-10
5.07553e-07
-2.66701e-06
-2.8496e-11
5.09126e-07
-2.68415e-06
8.04937e-10
5.09404e-07
-2.70824e-06
5.06079e-07
-2.65629e-06
1.16462e-09
6.12526e-07
-4.1946e-06
-1.45133e-10
6.10234e-07
-4.1522e-06
-7.65771e-10
6.11135e-07
-4.162e-06
-2.68275e-10
6.12611e-07
-4.19353e-06
2.7091e-09
6.10153e-07
-4.23053e-06
6.10216e-07
-4.13788e-06
2.03004e-09
2.7664e-07
-2.9401e-06
-7.16367e-10
2.73167e-07
-2.93434e-06
-1.47446e-09
2.73995e-07
-2.93156e-06
-4.82847e-10
2.7644e-07
-2.93275e-06
1.15087e-09
2.75261e-07
-2.95263e-06
2.73744e-07
-2.92533e-06
5.93302e-09
-1.85216e-05
-5.61787e-06
-1.38889e-09
-2.10304e-05
-5.91081e-06
-3.63983e-09
-2.03638e-05
-5.85357e-06
-4.62337e-11
-1.89301e-05
-5.67984e-06
-1.72319e-09
-1.7734e-05
-5.50283e-06
-2.12881e-05
-5.97752e-06
-2.33626e-07
-4.87782e-05
1.35808e-05
9.13304e-08
-5.39546e-05
1.54723e-05
2.63482e-07
-5.24128e-05
1.49062e-05
9.67677e-08
-4.96717e-05
1.38016e-05
-6.93457e-07
-4.71661e-05
1.29324e-05
-5.41116e-05
1.5574e-05
1.65992e-09
-0.00129633
0.00079821
5.47241e-07
-0.00140632
0.000836886
-2.02047e-06
-0.00137431
0.000826804
9.31163e-08
-0.00131905
0.000806615
1.99979e-06
-0.00126221
0.000791309
-0.00141558
0.000838769
8.81581e-05
-0.0828682
0.000528262
-1.99273e-05
-0.0891503
0.000557791
-0.000103531
-0.0875396
0.000572335
-4.4941e-05
-0.0818529
0.000522419
0.000169621
-0.0765429
0.000511804
-0.0883933
0.000592059
-0.000151473
-0.100643
4.03817e-05
-0.0988858
0.000321191
-0.0991483
-2.41578e-05
-0.101367
-0.000810705
-0.103375
-0.0989693
-0.00720659
-0.0251842
0.069391
-0.00781673
-0.0288154
0.0721157
-0.0253819
-0.0247537
0.0721715
-0.0168124
-0.0654823
0.0425681
0.0236547
-0.195083
0.0374603
-0.0576741
0.0847683
-0.00237977
-0.311584
0.058359
-0.00370119
-0.316343
0.0607547
-0.0110061
-0.139803
0.047254
-0.0247393
-0.333717
0.0683693
0.028496
-0.366884
0.0953931
-0.100136
0.0617086
0.00829382
-0.371334
0.0558185
0.0234772
-0.380242
0.0530787
0.0223187
-0.375064
0.0465535
0.021004
-0.376248
0.0504702
0.0169115
-0.393345
0.0341933
-0.176295
0.0345159
0.00199522
-0.374006
0.00527977
0.00332351
-0.382219
0.0050111
0.0148769
-0.383684
0.00361716
0.00757984
-0.365758
0.004261
-0.0146224
-0.305998
0.00869683
-0.226088
0.00710606
0.00270464
-0.269837
-2.96645e-05
0.00468306
-0.290882
-3.11415e-05
0.0141633
-0.276472
-2.52338e-05
0.00815349
-0.277822
-6.99588e-05
-0.014281
-0.428011
0.00190443
-0.25079
-0.000111881
0.00681183
-0.232091
-4.89801e-05
0.0111203
-0.290611
-8.62243e-05
0.0203536
-0.209427
-2.77565e-05
0.00930909
-0.304973
-0.000243092
-0.0160703
-0.403078
-0.00282785
-0.195779
-1.77617e-05
0.0174252
-0.272697
-0.00177877
0.018612
-0.314109
-0.00237417
0.0325152
-0.253572
-0.00109227
0.0216837
-0.309784
-0.00365585
-0.0202561
-0.361602
-0.00239675
-0.237013
-0.000686101
0.0219186
-0.271854
-0.0181278
0.0170709
-0.296259
-0.0119842
0.0446598
-0.267218
-0.017535
0.0348036
-0.287318
-0.0148178
-0.0203228
-0.308177
-0.000671657
-0.254242
-0.00964887
0.00287932
-0.19059
-0.079064
0.0070379
-0.222699
-0.0713435
0.0530856
-0.221895
-0.0868103
0.0506607
-0.212145
-0.0750662
-0.0227991
-0.216318
-0.020677
-0.240129
-0.039209
-0.0353471
-0.0195458
-0.13021
-0.00604379
-0.0653112
-0.180501
0.0716949
-0.093974
-0.201456
0.0532079
-0.0557124
-0.132072
-0.046342
-0.0370534
-0.0820168
-0.0924961
-0.262889
-0.0171655
0.111474
-0.107665
0.00556516
0.0839253
-0.165778
0.0816257
0.0580675
-0.225776
0.0667099
0.0831252
-0.11684
-0.0224952
0.0985192
-0.0404603
0.0366989
-0.136904
-0.00579631
0.0505971
-0.00940546
0.0427591
0.0106145
-0.00764863
0.023513
0.0347168
0.017143
0.0420352
0.0244051
-0.0111051
-0.0438742
0.160048
-0.021487
-0.046917
0.164964
-0.0482954
-0.046208
0.163921
-0.0136896
-0.0536031
0.120911
0.0263388
-0.055042
0.103644
-0.0514717
0.169227
0.000493047
-0.046124
0.0171426
0.0011874
-0.044671
0.0173358
0.000119654
-0.036306
0.0181481
-8.0217e-05
-0.0406944
0.0159066
0.000161881
-0.0385375
0.014694
-0.0385433
0.019073
0.000728884
-0.00524663
0.000779282
0.000500782
-0.00466662
0.000654501
0.00127631
-0.00351486
0.00110432
-0.000855762
-0.00463218
0.000572475
-0.00247956
-0.00736218
0.000460347
-0.00874862
0.00126598
-5.29483e-05
2.79237e-05
-4.1985e-08
-0.000137525
2.794e-05
-7.61685e-08
-0.00013903
2.40874e-05
-6.46612e-08
-0.000275493
3.38542e-05
-1.3511e-07
-0.00023451
-0.00101955
-2.54578e-07
7.08375e-05
-8.30876e-08
-7.43919e-09
-1.72939e-06
-3.85908e-09
-4.70952e-09
-3.17277e-06
-2.26071e-08
-2.08216e-07
-9.09905e-07
-1.58864e-08
-2.47809e-05
-1.1507e-05
-2.29795e-08
4.03986e-05
-0.000369967
-1.50785e-06
-6.12447e-07
-3.19003e-08
-2.0284e-07
-5.04247e-05
-7.85095e-08
-1.19124e-07
-8.92199e-05
-2.40134e-07
-2.20825e-06
-2.64719e-05
-9.807e-08
-4.61817e-05
-0.000210191
-4.24321e-07
-8.9236e-09
-0.00343585
-5.75824e-07
-1.81674e-05
-2.45724e-07
-3.56727e-06
-0.00182398
-1.69205e-06
-4.98112e-06
-0.00245413
-7.66678e-06
-4.80735e-05
-0.00107412
-1.39082e-06
-0.000919848
-0.00299319
-9.20883e-07
-2.42178e-06
-0.0135147
6.56205e-06
-0.000705374
-1.31218e-06
0.000125305
-0.0197494
-3.3048e-06
-8.55117e-05
-0.0133989
-9.29144e-07
-0.000455746
-0.018237
-3.37833e-07
-0.00122848
-0.0167818
-6.89763e-06
-1.98732e-05
-0.0189788
-7.20688e-05
-0.0103753
-5.60564e-06
0.00204287
-0.0374017
-0.00125373
-0.00295162
-0.0570067
-0.00145249
-0.00828144
-0.0563279
-0.00109074
-0.00275053
-0.0690569
-0.00109008
0.00141342
-0.0448442
-0.00266088
-0.0363279
-0.00104782
0.000757894
-0.0981645
-0.0276833
-0.00747039
-0.158578
-0.0461829
-0.0101681
-0.136868
-0.0546022
-0.000189402
-0.141376
-0.037144
0.001716
-0.0914986
-0.0514711
-0.150716
-0.0580337
0.0233237
-0.0140697
-0.260371
0.00946041
-0.0131929
-0.290625
0.0298828
-0.0769707
-0.301987
0.0153125
-0.0422607
-0.174671
-0.0374833
-0.0121302
-0.0794474
-0.0310041
-0.251081
0.00876567
0.00589963
0.0152615
0.00162197
0.0474202
-0.153274
0.00671732
0.0081749
-0.0137201
0.0348137
-0.0738412
-0.0112604
-0.0149179
0.204862
-0.0238015
-0.0143194
0.208024
-0.0430044
-0.0149409
0.215803
-0.0150997
-0.0142154
0.143578
0.0197025
-0.0133292
0.118684
-0.0158283
0.213358
0.000166061
-0.000760561
0.00472845
0.000167289
-0.000654113
0.00398827
0.000378354
-0.00104694
0.00387626
6.94648e-05
-0.000572219
0.00283299
-0.000514028
-0.000488892
0.00231867
-0.00118128
0.00375674
-2.00703e-06
-3.64251e-09
2.10766e-05
-1.39797e-05
-6.71294e-09
1.2488e-05
2.79224e-07
-6.77686e-09
4.328e-05
-3.42816e-06
-9.80517e-09
3.98507e-06
-3.19211e-05
-1.96518e-08
-4.48759e-09
-7.7699e-09
5.31021e-05
-2.35785e-10
-8.86779e-10
-4.44163e-08
-3.47241e-10
-2.72589e-09
-7.27149e-08
-9.36439e-10
-2.59423e-09
-5.07332e-08
-1.45691e-09
-1.82055e-09
-1.40507e-07
3.58275e-10
-7.94368e-08
-1.96165e-07
-2.18546e-09
-8.80857e-08
-9.05643e-11
-2.34683e-09
-5.53768e-10
-7.99007e-11
-1.96553e-08
-6.55614e-10
-1.31169e-10
-1.78662e-09
-9.0189e-10
-5.66063e-09
-1.62813e-08
-7.45024e-10
1.14533e-08
-1.60214e-06
-1.18931e-09
-2.07461e-08
-6.05777e-10
-5.2934e-09
-7.32228e-08
-2.26184e-09
-6.9065e-10
-2.50861e-07
-9.52729e-09
-1.73506e-09
-9.47711e-08
-3.00961e-09
-1.05562e-07
-3.33345e-07
-2.45485e-09
3.60745e-07
-5.56778e-06
-1.34144e-09
8.44266e-09
-1.19016e-09
-2.41404e-07
-1.52624e-06
-7.09704e-10
-1.89561e-08
-8.10565e-06
-3.599e-08
-3.60512e-08
-1.36555e-06
-2.16713e-08
-1.15005e-06
-1.39198e-07
-1.71892e-09
1.23218e-06
-1.39163e-06
-9.69779e-10
-6.29623e-08
-9.02268e-09
-1.35613e-06
-3.60905e-06
2.8703e-09
-1.30332e-07
-1.06299e-05
6.05257e-08
-3.28362e-08
-1.95078e-06
7.56155e-09
-3.34804e-07
-6.71685e-06
-2.24498e-08
-4.38696e-07
-7.33605e-05
-2.78642e-09
-6.22676e-06
4.02457e-09
2.30959e-07
-0.00125304
-3.80605e-06
-2.28803e-06
-0.0014511
-8.05506e-06
-7.84362e-06
-0.00108722
-2.92911e-08
-4.28758e-05
-0.00104654
-1.48519e-05
1.1871e-05
-0.00272674
-5.6747e-05
-0.00104232
-3.31637e-09
-1.18628e-05
-0.0278342
-0.00106509
-0.000471785
-0.045773
-0.00136272
-0.000500759
-0.0548147
-0.000824924
-0.000672921
-0.0359101
-0.00208359
0.000588933
-0.0393421
-0.00366857
-0.0576557
-0.000819365
0.00148395
-0.15192
-0.0868982
-0.0051764
-0.163478
-0.0956743
-0.0228761
-0.140154
-0.0868779
-0.00484854
-0.0657437
-0.109507
0.0116333
-0.0133507
-0.0901178
-0.130975
-0.122358
0.0361414
-0.176567
0.0657442
-0.184261
0.000502066
-0.220988
-0.000937225
-0.114177
0.00269283
0.00534083
-0.190097
-0.0102617
-0.00406126
0.234182
-0.0235266
-0.00342846
0.23482
-0.0359918
-0.00337171
0.241238
-0.00983094
-0.00252066
0.104675
0.0192303
-0.00212335
0.0564512
-0.00333135
0.199064
2.39039e-05
-2.13221e-05
0.000671411
2.21519e-05
-1.28394e-05
0.000579822
6.68946e-05
-4.31389e-05
0.000510949
1.22458e-05
-4.85844e-06
0.000374213
-7.21586e-05
-3.13938e-07
0.000279363
-5.32838e-05
0.000407115
6.38143e-08
-4.90101e-07
1.67169e-07
2.59888e-08
-4.30986e-07
8.95436e-08
8.20556e-07
-7.0105e-07
4.23087e-08
4.19968e-08
-3.69712e-07
1.1643e-07
-4.01129e-07
-2.48174e-07
1.65003e-07
-1.08383e-06
4.75785e-07
-2.9889e-10
-4.47318e-09
-5.27687e-07
-1.79082e-09
-3.54157e-09
-4.93158e-07
-6.4358e-09
-1.14084e-08
-7.22532e-07
-3.20638e-09
-2.81227e-09
-5.08236e-07
2.41243e-09
-7.72672e-10
-4.48244e-07
-2.0911e-09
-1.16508e-06
-5.96233e-12
-9.67548e-10
-5.10663e-10
-3.39548e-13
-4.21866e-10
-3.68548e-10
-1.16451e-11
-5.6604e-10
-6.14432e-10
-3.25469e-12
-4.0821e-10
-5.33971e-10
2.15051e-11
-3.04857e-10
-8.8588e-10
-5.00132e-10
-8.87651e-10
-1.04302e-11
-5.23648e-10
-2.57898e-09
8.67036e-12
-3.32945e-10
-2.38784e-09
8.54703e-12
-2.27219e-10
-2.67168e-09
5.73006e-12
-2.11212e-10
-1.77351e-09
1.34207e-11
-1.89846e-10
-6.95143e-10
-2.28321e-10
-1.83544e-09
-1.4566e-11
-1.80345e-09
-1.29584e-09
2.09727e-10
-3.30234e-08
-1.91608e-09
1.05496e-10
-1.94715e-08
-1.45655e-09
3.96989e-11
-3.51165e-10
-7.15471e-10
-1.24978e-11
-8.88372e-11
-2.96333e-10
-7.25621e-09
-1.23491e-09
1.26611e-10
1.47524e-09
-7.59555e-10
1.64002e-08
-3.2075e-10
-9.33201e-09
1.31095e-08
1.1331e-09
-5.24547e-09
2.92156e-10
-8.72482e-09
-8.83772e-10
-1.55272e-09
6.77184e-10
-4.22229e-10
4.9214e-10
-2.61793e-09
-1.87182e-08
-3.85971e-06
-5.83723e-08
8.82826e-08
-8.02388e-06
-2.11e-07
4.1119e-09
4.68716e-09
-1.23352e-07
2.33428e-07
-1.47845e-05
-3.06347e-07
-5.91508e-10
-5.59189e-05
-5.93485e-07
2.12028e-09
-8.89698e-08
-8.36436e-06
-0.00101648
-4.32228e-05
-2.55748e-06
-0.00130836
-6.67507e-05
3.15654e-06
-0.000773946
-5.67698e-05
7.00229e-05
-0.00205958
-0.000106185
-3.29739e-06
-0.00349142
-0.000158819
-0.000756806
-6.58884e-05
-0.000386071
-0.0732061
-0.00714897
-0.000464111
-0.0802391
-0.00660269
-0.00712593
-0.0752563
-0.00367219
-0.00741139
-0.100231
-0.0133014
0.00522721
-0.104523
-0.016255
-0.10048
-0.00681311
-0.00824802
-0.242246
-0.0227419
-0.243936
-0.0650512
-0.246595
-0.0540451
-0.215546
0.0519328
-0.192438
-0.225744
1.50924e-06
0.000449285
-5.55776e-05
-1.12314e-06
0.000445375
-5.42183e-05
-4.69954e-07
0.000446763
-5.50741e-05
-1.82755e-07
0.000447763
-5.48162e-05
-1.28451e-06
0.000446776
-5.44323e-05
0.000448089
-5.52303e-05
1.69836e-07
0.000208019
0.000218598
-1.62386e-07
0.00020715
0.000215578
-2.31175e-07
0.000207633
0.000216619
-1.36062e-07
0.000207579
0.000217156
-2.06956e-07
0.000207379
0.000216405
0.000207786
0.000217438
1.60242e-08
3.01918e-05
-1.5368e-08
2.99906e-05
-2.29873e-08
3.00914e-05
-1.75917e-08
3.00805e-05
-2.38602e-08
3.00282e-05
3.01179e-05
-9.7339e-07
-0.000161068
-0.00044928
-3.46776e-08
-0.00015763
-0.000444854
-1.0182e-07
-0.000159117
-0.000447889
-1.91411e-07
-0.000159095
-0.000446647
3.56579e-07
-0.000158202
-0.000445393
-0.000159748
-0.000448031
3.64067e-08
-1.06398e-06
8.05602e-06
7.21148e-09
-8.89628e-07
7.90636e-06
-9.83962e-09
-9.63702e-07
7.971e-06
-4.56866e-09
-9.59094e-07
7.95891e-06
-1.11556e-08
-9.10517e-07
7.91747e-06
-9.96023e-07
7.98853e-06
1.31276e-08
-1.77044e-07
1.50885e-09
-1.66661e-07
1.20318e-09
-1.71162e-07
1.05898e-09
-1.72317e-07
-5.79038e-09
-1.69865e-07
-1.73479e-07
-2.6927e-07
-1.12641e-05
-3.84758e-06
7.96644e-08
-1.11194e-05
-3.8109e-06
-2.53014e-07
-1.11782e-05
-4.32951e-06
-1.37332e-07
-1.11734e-05
-3.78795e-06
1.3841e-07
-1.11346e-05
-3.85678e-06
-1.11994e-05
-3.84919e-06
5.88428e-10
-2.36917e-06
1.30526e-07
3.65807e-10
-2.37527e-06
1.29688e-07
-3.09263e-11
-2.36857e-06
1.29987e-07
-1.97061e-11
-2.37304e-06
1.30056e-07
-2.48147e-10
-2.37569e-06
1.29921e-07
-2.37165e-06
1.2997e-07
2.37842e-09
-4.87184e-08
4.40697e-10
-4.92655e-08
6.97125e-10
-4.90739e-08
6.28284e-10
-4.93251e-08
-7.52676e-10
-4.96801e-08
-4.89109e-08
-2.23894e-10
-1.52878e-06
-2.67313e-06
3.06459e-10
-1.5262e-06
-2.64247e-06
1.76864e-10
-1.52783e-06
-2.66404e-06
3.64178e-11
-1.52652e-06
-2.62596e-06
-8.95605e-11
-1.52715e-06
-2.64425e-06
-1.52784e-06
-2.66289e-06
1.60485e-10
-6.90969e-07
3.07838e-07
1.58576e-10
-6.92244e-07
3.08202e-07
1.03105e-10
-6.91264e-07
3.08118e-07
1.27848e-10
-6.88008e-07
3.08141e-07
-1.08767e-10
-6.89139e-07
3.08393e-07
-6.90694e-07
3.07558e-07
1.43266e-11
1.05441e-08
3.29627e-12
1.06427e-08
9.48108e-12
1.05771e-08
7.72853e-12
1.05489e-08
-2.17959e-12
1.05845e-08
1.05235e-08
-9.60009e-10
-1.0959e-06
-3.32835e-06
4.62552e-10
-1.10095e-06
-3.30535e-06
1.08122e-09
-1.09455e-06
-3.30836e-06
7.1877e-11
-1.10145e-06
-3.3217e-06
-9.80755e-10
-1.10655e-06
-3.3494e-06
-1.09363e-06
-3.2999e-06
-2.84915e-10
-1.04965e-08
8.60972e-07
1.30258e-10
-1.05946e-08
8.62839e-07
2.67792e-10
-1.05293e-08
8.61818e-07
9.78966e-11
-1.05013e-08
8.63072e-07
-4.16372e-10
-1.05368e-08
8.64984e-07
-1.04759e-08
8.5912e-07
1.34923e-14
4.7612e-11
1.90085e-14
4.8165e-11
4.18483e-14
4.78437e-11
3.15702e-14
4.75993e-11
-6.1394e-16
4.77829e-11
4.75233e-11
-9.21745e-09
-4.70498e-06
-2.09431e-06
2.73883e-09
-4.67709e-06
-2.06857e-06
1.1151e-08
-4.6871e-06
-2.07147e-06
1.27888e-09
-4.70298e-06
-2.09025e-06
-1.24086e-08
-4.71397e-06
-2.12221e-06
-4.67538e-06
-2.05209e-06
-1.59858e-08
-4.64319e-11
-5.47479e-08
5.61774e-09
-4.69479e-11
-5.77783e-08
1.37331e-08
-4.66447e-11
-5.61521e-08
3.97109e-09
-4.64083e-11
-5.47079e-08
-2.32207e-08
-4.65778e-11
-5.08319e-08
-4.63443e-11
-6.01097e-08
9.32814e-17
1.18003e-12
5.897e-17
1.21719e-12
4.49621e-17
1.19897e-12
5.25468e-17
1.191e-12
-2.75032e-16
1.20535e-12
1.17865e-12
-1.06103e-08
-4.58221e-06
5.80577e-07
2.32271e-09
-4.20564e-06
5.59863e-07
1.20259e-08
-4.32036e-06
5.51129e-07
2.34817e-09
-4.31622e-06
5.09877e-07
-1.65557e-08
-4.49971e-06
5.75603e-07
-4.10223e-06
5.94662e-07
-6.36521e-08
-1.4421e-06
2.13448e-06
1.87842e-08
-1.47512e-06
2.60437e-06
5.58017e-08
-1.46948e-06
2.38915e-06
1.09756e-08
-1.48754e-06
2.1011e-06
-7.26538e-08
-1.48247e-06
1.88414e-06
-1.48225e-06
2.56462e-06
1.14693e-10
1.07593e-06
1.0115e-10
1.0943e-06
-2.1467e-11
1.08661e-06
9.54993e-11
1.08501e-06
-8.64327e-10
1.09223e-06
1.07758e-06
-3.11734e-08
-3.65679e-06
-2.42677e-06
5.91203e-09
-3.81414e-06
-2.25988e-06
4.0415e-08
-3.73008e-06
-2.33163e-06
1.17287e-08
-3.59847e-06
-2.50008e-06
-6.73956e-08
-3.47057e-06
-2.64473e-06
-3.81944e-06
-2.28769e-06
-2.52543e-07
2.01293e-06
-3.03209e-06
5.60873e-08
2.31554e-06
-3.90077e-06
1.9356e-07
2.17573e-06
-3.59704e-06
4.14515e-08
2.01388e-06
-3.15141e-06
-2.14286e-07
1.86399e-06
-2.84074e-06
2.30354e-06
-3.86886e-06
-9.36311e-09
3.08865e-06
3.0437e-09
3.08902e-06
6.99038e-09
3.06125e-06
1.27318e-09
3.04298e-06
-1.51255e-08
3.04304e-06
3.03146e-06
-2.34484e-07
7.55988e-05
-5.18295e-05
4.67906e-08
8.45583e-05
-5.77253e-05
2.46452e-07
8.03383e-05
-5.49484e-05
1.36828e-07
7.53772e-05
-5.19902e-05
-7.17497e-07
7.16262e-05
-4.94458e-05
8.26451e-05
-5.64424e-05
-7.89068e-07
0.000452209
-0.00256585
-6.95687e-07
0.00049253
-0.00266652
-1.06253e-06
0.000472266
-0.00265014
-1.94496e-07
0.000448308
-0.00260475
3.12734e-06
0.000427795
-0.00255753
0.000485795
-0.00269224
-4.33713e-07
-8.24267e-05
7.01932e-08
-8.9386e-05
1.42996e-07
-8.66213e-05
3.60011e-08
-8.38908e-05
4.85877e-08
-8.28668e-05
-8.82022e-05
1.87672e-06
0.00100916
-0.000225334
-2.34502e-08
0.00103614
-0.000220987
-2.34043e-06
0.00102617
-0.00022254
4.3695e-07
0.00101422
-0.000233917
2.88179e-06
0.00101061
-0.000242379
0.00102729
-0.000210966
2.52508e-05
0.00256158
-0.00220588
-9.19983e-06
0.0025631
-0.00223276
-2.57469e-05
0.0025606
-0.00223124
-7.15564e-06
0.00257468
-0.00223385
4.49324e-05
0.002585
-0.00223026
0.002552
-0.00221822
6.4278e-06
-9.75774e-10
-4.44842e-06
-9.96238e-10
-1.02238e-05
-9.66416e-10
-2.96399e-06
-9.83936e-10
1.76106e-05
-1.011e-09
-9.34679e-10
7.99979e-05
-0.000859133
0.00117295
-1.2353e-05
-0.000900865
0.00154856
-6.38546e-05
-0.000873248
0.00151584
-2.22691e-05
-0.000875266
0.00119464
0.00011243
-0.000871446
0.00105633
-0.000892328
0.00163308
1.26887e-05
-3.00746e-08
-2.04746e-08
-2.71077e-06
-2.98711e-08
-2.00712e-08
-6.27156e-06
-2.97653e-08
-2.0137e-08
-9.37534e-07
-3.01942e-08
-2.08055e-08
5.77745e-06
-3.07819e-08
-2.17335e-08
-2.90516e-08
-1.92874e-08
3.25879e-24
-3.10504e-08
-1.4351e-24
-3.08674e-08
-2.14833e-24
-3.07317e-08
-6.63819e-25
-3.11782e-08
2.71281e-24
-3.17929e-08
-2.99863e-08
0.000382918
-1.95804e-06
-0.0613091
2.12428e-05
-1.93602e-06
-0.0613291
-0.000129648
-1.9391e-06
-0.0612497
-7.81678e-05
-1.97604e-06
-0.0613924
0.000106024
-2.02853e-06
-0.0613928
-1.88136e-06
-0.0611498
2.48236e-10
-1.97876e-06
3.18607e-16
5.96852e-12
-1.95585e-06
2.80744e-16
-8.80235e-11
-1.95914e-06
2.0852e-15
-3.33842e-11
-1.9969e-06
6.10247e-15
1.04151e-10
-2.0504e-06
2.8362e-15
-1.90054e-06
9.39318e-17
2.37041e-09
8.93057e-26
-6.00765e-10
1.13419e-25
-1.43571e-09
1.20045e-25
-6.58915e-10
1.56008e-25
2.3323e-09
1.86346e-25
1.4855e-25
-0.000570533
8.54464e-16
-0.0797738
0.123224
-0.000289093
6.66549e-16
-0.0797263
0.122369
-0.000347348
-2.60582e-23
-0.0794834
0.122462
-0.00056235
-1.68179e-18
-0.0798618
0.122917
0.000869538
2.12608e-18
-0.0801453
0.12159
7.13371e-17
-0.0792768
0.122967
8.7163e-18
1.15266e-25
1.25886e-15
-9.13937e-16
-5.92854e-28
-2.25099e-26
9.45121e-16
-6.95892e-16
4.74533e-27
-5.7696e-23
3.12211e-23
4.11551e-25
3.6081e-22
-7.19525e-20
9.55876e-20
2.70911e-20
1.79654e-19
-9.35874e-17
2.41486e-16
-2.30253e-18
-6.30509e-21
1.59743e-16
-7.82165e-17
-1.44147e-28
1.0207e-25
-6.95432e-26
-1.08999e-24
5.10694e-26
1.01626e-24
-2.67173e-21
1.8945e-25
2.61276e-21
-3.40862e-18
7.69571e-26
3.334e-18
2.98394e-19
6.11572e-26
5.35931e-17
7.22212e-26
2.92088e-19
-2.85879e-07
1.37419e-15
-0.0368739
-6.4172e-05
1.02903e-15
-0.036779
1.15054e-05
3.45725e-23
-0.0367023
3.49906e-05
1.00114e-19
-0.037046
-0.000269673
2.6303e-16
-0.0370055
1.67944e-16
-0.0367131
1.92492e-18
1.7267e-25
-3.08957e-17
5.31703e-25
8.60845e-26
-2.84899e-17
3.41511e-21
3.23066e-25
-8.49277e-25
1.0508e-17
1.30076e-25
-3.57589e-21
-3.92264e-19
1.09225e-25
-9.36498e-18
1.26851e-25
-3.31274e-18
8.63057e-29
4.25508e-26
2.33801e-27
4.00862e-26
2.59125e-27
4.26857e-26
1.72371e-27
3.55711e-26
-8.4882e-30
6.41494e-26
2.2906e-26
8.78452e-05
2.76858e-15
-0.00240938
-2.35934e-05
2.23567e-15
-0.00237597
-0.000201035
4.09568e-15
-0.00240822
-0.00012199
2.78341e-23
-0.0023619
5.39956e-05
2.64008e-14
-0.00235054
9.04367e-16
-0.00238587
1.07538e-17
1.9739e-25
-3.87634e-15
6.57902e-18
1.85012e-25
-3.15985e-15
3.31662e-26
1.99493e-25
-5.82438e-15
-2.41643e-25
1.73606e-25
-3.87111e-23
-6.29786e-16
3.28956e-25
-3.67569e-14
1.15138e-25
-1.28456e-15
7.13318e-28
-1.94001e-26
1.08141e-27
-1.81608e-26
1.00038e-27
-1.99379e-26
2.24806e-27
-1.77357e-26
2.37478e-28
-3.4228e-26
-1.22587e-26
6.67096e-05
3.53326e-16
0.0143991
-2.15265e-05
2.86133e-16
0.0144125
-0.000183623
5.48737e-16
0.0143911
-4.04449e-05
1.24157e-16
0.0144964
0.000125272
3.40109e-15
0.0145137
1.10955e-16
0.0143843
1.72177e-18
2.72857e-25
-1.90548e-15
4.29702e-18
3.21039e-25
-1.55732e-15
1.32121e-18
3.5073e-25
-3.00567e-15
2.86156e-17
3.36833e-25
-6.65926e-16
-5.063e-17
3.63983e-25
-1.81896e-14
2.52233e-25
-6.10226e-16
5.56835e-28
-1.32198e-25
8.79404e-28
-1.55889e-25
8.94889e-28
-1.71064e-25
7.49891e-28
-1.62945e-25
-2.61564e-28
-1.75081e-25
-1.24674e-25
7.05883e-05
1.86764e-16
0.0346169
-1.76079e-05
1.55843e-16
0.0346744
-0.000167882
5.58266e-16
0.0346305
-3.26781e-05
1.0776e-15
0.0346771
0.0001394
1.76185e-15
0.0346551
5.8015e-17
0.034594
7.11887e-20
2.18266e-25
-8.11478e-16
1.63741e-18
2.66874e-25
-6.79009e-16
5.80935e-18
2.88031e-25
-2.43905e-15
7.02487e-18
3.19259e-25
-4.6691e-15
-1.56034e-17
3.58263e-25
-7.61447e-15
2.71137e-25
-2.54009e-16
1.24433e-28
-1.33931e-25
2.46866e-28
-1.6403e-25
1.37404e-28
-1.77453e-25
2.14871e-28
-1.95316e-25
1.26122e-28
-2.179e-25
-1.68253e-25
9.73639e-05
1.32619e-16
8.91013e-06
1.16662e-16
-8.4896e-05
8.66126e-16
-4.10715e-05
2.53936e-15
2.78979e-05
1.18156e-15
3.90071e-17
1.78288e-20
1.8286e-25
3.66398e-19
2.31236e-25
1.15055e-18
2.44781e-25
7.70455e-19
3.19645e-25
-1.92263e-18
3.83607e-25
3.01727e-25
4.44651e-29
7.96037e-29
-4.90404e-29
6.69126e-29
2.23877e-28
-0.00530384
0.0721786
-0.000599475
-0.0141921
0.0539865
-0.000524296
-0.0119929
0.0554675
-0.000469346
-0.0010685
0.0157685
-0.000349857
0.00253861
0.00115675
-0.000261449
0.0735089
-0.000360514
-0.000198661
0.00464744
-4.81622e-05
-0.000661711
0.00439841
-1.80352e-05
-0.000633359
0.00457571
-2.93624e-05
-4.34155e-05
0.00206177
-1.91127e-05
4.58944e-05
0.0010698
-2.78127e-06
0.0063111
-8.08256e-05
-4.84116e-05
-2.32474e-05
-0.00010946
-2.89264e-05
-0.00016531
-1.50579e-05
-2.32248e-05
6.02434e-06
1.16018e-05
-1.16909e-06
0.000154023
3.82314e-06
6.88548e-05
-2.78946e-07
4.3336e-06
5.62146e-05
-7.9552e-07
1.00433e-05
4.22522e-05
-5.87185e-06
3.21843e-06
5.14381e-05
-1.26294e-05
-4.68835e-06
4.10309e-05
-9.39751e-06
3.94809e-05
-2.09771e-06
7.24276e-07
2.74017e-05
-1.42231e-05
1.18354e-06
3.35084e-05
-3.01713e-06
1.71866e-06
3.28315e-05
-2.71829e-05
1.11157e-06
3.99302e-05
-6.51121e-06
5.6503e-07
4.60573e-05
-3.64167e-06
2.55193e-05
-6.87209e-05
7.1403e-07
1.62102e-06
-8.01306e-07
7.45203e-06
-3.23681e-05
7.37732e-06
4.16952e-06
1.05452e-05
5.89368e-05
2.75264e-05
3.95096e-05