/*--------------------------------*- C++ -*----------------------------------*\
| =========                 |                                                 |
| \\      /  F ield         | OpenFOAM: The Open Source CFD Toolbox           |
|  \\    /   O peration     | Version:  v1612+                                |
|   \\  /    A nd           | Web:      www.OpenFOAM.com                      |
|    \\/     M anipulation  |                                                 |
\*---------------------------------------------------------------------------*/
FoamFile
{
    version     2.0;
    format      ascii;
    class       surfaceScalarField;
    location    "5.65";
    object      phi;
}
// * * * * * * * * * * * * * * * * * * * * * * * * * * * * * * * * * * * * * //

dimensions      [0 3 -1 0 0 0 0];

internalField   nonuniform List<scalar> 
2916
(
3.8982e-05
-0.987573
0.987534
4.67277e-06
-0.987658
0.987692
1.22722e-05
-0.987629
0.987622
2.15549e-05
-0.987612
0.987603
-1.95773e-05
-0.987635
0.987676
-0.987594
0.987575
-8.06508e-05
-1.65098
0.663491
2.23705e-05
-1.65108
0.663319
2.3501e-05
-1.65103
0.663404
3.03345e-07
-1.65102
0.663428
2.51471e-05
-1.65104
0.663384
-1.651
0.663428
-8.48307e-05
-1.84863
0.197727
1.73773e-05
-1.84871
0.197531
1.91863e-05
-1.84865
0.197618
-6.44831e-06
-1.84864
0.19765
2.15589e-05
-1.84867
0.197595
-1.84865
0.197671
-4.35878e-05
-1.841
-0.00758469
1.14058e-05
-1.84113
-0.00764006
9.87808e-06
-1.84104
-0.00761537
-8.13121e-06
-1.84103
-0.0075978
7.83705e-07
-1.84106
-0.00761398
-1.84105
-0.00759816
-3.0411e-05
-1.77438
-0.0665848
7.66755e-06
-1.77462
-0.0665448
7.15072e-06
-1.77448
-0.0665518
-3.46599e-06
-1.77447
-0.066545
-6.50339e-06
-1.77453
-0.0665333
-1.77447
-0.0665844
2.21659e-06
-1.62739
-0.146994
1.10025e-05
-1.62776
-0.146872
1.1044e-05
-1.62758
-0.146904
5.28682e-06
-1.62756
-0.146909
-2.68071e-05
-1.62762
-0.146872
-1.62751
-0.146987
7.76415e-05
-1.38694
-0.240528
2.25622e-05
-1.38737
-0.240331
8.46482e-06
-1.38718
-0.240388
7.09973e-06
-1.38714
-0.240413
-5.07325e-05
-1.38722
-0.240346
-1.38706
-0.240502
0.000226935
-1.14732
-0.239851
1.82789e-05
-1.14752
-0.239639
-4.98847e-05
-1.14741
-0.239699
-9.76901e-06
-1.14748
-0.239701
1.4452e-05
-1.14773
-0.239509
-1.14714
-0.239905
0.000586814
-0.924311
-0.223591
-4.357e-05
-0.923455
-0.223439
-0.000336212
-0.923663
-0.223455
-9.85366e-05
-0.924274
-0.223444
0.000626522
-0.925372
-0.223087
-0.922665
-0.223847
0.00080979
-0.6851
-0.240021
-0.000110595
-0.682819
-0.239716
-0.00071206
-0.683291
-0.239771
-0.00014864
-0.68498
-0.239857
0.00141221
-0.687339
-0.239594
-0.68114
-0.240112
0.0002633
-0.267292
-0.418072
-1.03168e-05
-0.265068
-0.417477
-0.000344082
-0.265472
-0.417485
1.2475e-05
-0.267258
-0.418079
0.000344161
-0.269089
-0.418582
-0.263711
-0.417085
-0.000944352
-0.266347
0.000233735
-0.266246
0.0011369
-0.266375
0.000168758
-0.26629
-0.0025331
-0.266387
-0.266244
-0.00226921
-2.53337
3.52317
-0.000146287
-2.53281
3.51838
0.000113683
-2.53305
3.52041
3.76724e-05
-2.53314
3.52082
0.00077603
-2.53299
3.51993
-2.53324
3.52159
-0.000206078
-2.68768
0.818014
-4.19581e-06
-2.6875
0.817808
-1.79882e-05
-2.68755
0.817911
1.29474e-05
-2.68762
0.817874
6.50304e-05
-2.68755
0.817895
-2.68764
0.817894
0.000179753
-2.40288
-0.0872566
1.1341e-05
-2.40283
-0.0869644
-3.61313e-05
-2.40282
-0.0870635
4.87777e-06
-2.40288
-0.087132
-0.000110078
-2.40284
-0.0870024
-2.40288
-0.0872016
0.000182022
-2.02706
-0.383584
1.54218e-06
-2.02714
-0.383155
-2.14157e-05
-2.02708
-0.383326
7.7033e-06
-2.02712
-0.383387
-0.000125464
-2.0271
-0.38322
-2.02711
-0.383492
0.000118443
-1.60113
-0.492629
-1.67566e-05
-1.60135
-0.4922
-1.31968e-05
-1.60127
-0.492374
1.33453e-05
-1.60126
-0.492435
-8.95159e-05
-1.60125
-0.492281
-1.60123
-0.49255
-1.14607e-05
-1.04731
-0.700812
-4.15583e-05
-1.04767
-0.700519
-2.52357e-05
-1.04755
-0.700635
1.24416e-05
-1.0475
-0.700707
6.13501e-05
-1.04756
-0.700611
-1.04739
-0.700773
-0.000129146
-0.354226
-0.933479
-7.1467e-05
-0.354649
-0.933409
-0.000122778
-0.354509
-0.93338
8.86668e-06
-0.354425
-0.933616
0.000444375
-0.35463
-0.933713
-0.354208
-0.933235
-0.000161786
0.186958
-0.780874
-0.000113067
0.186867
-0.781204
-0.00014109
0.186918
-0.781097
3.18251e-05
0.186806
-0.781105
0.000486394
0.186246
-0.78084
0.187783
-0.78141
-0.000284664
0.41021
-0.446559
-3.52005e-05
0.408643
-0.445466
-4.86634e-05
0.409159
-0.445683
0.000118624
0.409995
-0.446801
0.000117173
0.411428
-0.448268
0.407976
-0.443924
-0.000706089
0.316508
-0.145613
0.000146613
0.311899
-0.143826
0.00103231
0.313074
-0.144573
0.000189593
0.316329
-0.145349
-0.00197158
0.321687
-0.147692
0.308078
-0.142186
-0.00328847
-0.11714
0.0188646
0.000649244
-0.122882
0.0133667
0.00383262
-0.121774
0.0141801
0.000321353
-0.117133
0.018895
-0.00656713
-0.112847
0.0228405
-0.126294
0.0107192
-0.000994097
-0.382493
0.00030829
-0.39043
0.00189212
-0.389733
0.000755939
-0.382287
-0.00326815
-0.375209
-0.395806
-0.00861844
-3.41274
6.94452
0.000127081
-3.4132
6.92283
0.000444507
-3.41287
6.93297
-0.000193921
-3.41299
6.93445
0.00349477
-3.41302
6.92926
-3.41294
6.93802
-0.00132484
-3.49115
0.897752
-8.3735e-05
-3.49113
0.894493
2.91245e-05
-3.49111
0.896039
-2.70224e-05
-3.49118
0.896116
0.000627514
-3.49114
0.895355
-3.49119
0.896772
-0.00100295
-2.5742
-1.0032
-8.45842e-05
-2.57407
-1.00494
0.000142617
-2.57413
-1.00428
7.05628e-06
-2.57417
-1.004
0.000469911
-2.57415
-1.00445
-2.5742
-1.00372
-0.000903535
-1.6196
-1.33729
-0.000114276
-1.61975
-1.33826
0.000120744
-1.61969
-1.338
5.45424e-06
-1.61966
-1.33779
0.000458797
-1.61977
-1.33805
-1.61962
-1.33761
-0.000833077
-0.498987
-1.61241
-0.000126586
-0.499664
-1.61299
3.41846e-05
-0.499351
-1.61288
5.02873e-06
-0.499218
-1.61285
0.000586241
-0.499641
-1.61299
-0.498974
-1.61261
-0.00054191
1.10006
-2.29932
-0.000184015
1.09893
-2.29947
-0.00023786
1.09945
-2.29938
-2.33698e-05
1.10002
-2.30016
0.00107064
1.09882
-2.30016
1.10056
-2.29924
0.000412803
3.01999
-2.85382
-0.000480536
3.01845
-2.85203
-0.00109664
3.01892
-2.85223
-0.000193993
3.02016
-2.85466
0.00140929
3.01924
-2.85574
3.01969
-2.85095
0.00587485
5.21391
-2.98067
-0.00163671
5.22248
-2.97772
-0.00589204
5.21994
-2.97787
-0.00178098
5.21646
-2.98151
0.0101131
5.20822
-2.98171
5.22638
-2.97798
0.00686851
4.96731
-0.206823
-0.00045454
4.96035
-0.176007
-0.0117618
4.96753
-0.181967
-0.00149514
4.96468
-0.205291
0.0124633
4.97664
-0.230648
4.9557
-0.160777
-0.0231145
1.29059
3.55421
0.00644589
1.23631
3.55068
0.0222457
1.25439
3.55277
0.00653368
1.28511
3.54993
-0.0593836
1.35171
3.54315
1.19701
3.55712
-0.0367784
0.254333
1.0919
0.0064207
0.162795
1.04368
0.035869
0.179691
1.05943
0.00411362
0.250899
1.08486
-0.0679405
0.330199
1.11641
0.0968373
1.04295
0.037025
-0.165185
-0.00812058
-0.182489
-0.0403343
-0.177829
-0.00505685
-0.166666
0.111295
-0.161362
-0.187673
-0.00598487
-2.56824
9.51875
-0.000965342
-2.57279
9.4906
-0.00040484
-2.5712
9.50361
-0.000327972
-2.57042
9.5048
0.00240269
-2.57135
9.49788
-2.56984
9.51027
-0.00150864
-2.42803
0.75905
-0.000512447
-2.42782
0.74853
-0.000404444
-2.42779
0.752523
-0.000596416
-2.42721
0.753102
0.000294991
-2.42745
0.750562
-2.42769
0.754917
-0.00163761
-1.222
-2.20759
-0.000528947
-1.22282
-2.21105
-0.00110857
-1.22211
-2.20938
-0.000833015
-1.22159
-2.2099
0.000330956
-1.22224
-2.21083
-1.22189
-2.20919
-0.000408225
-0.00323008
-2.55565
-8.33375e-05
-0.00562511
-2.55578
-0.000379518
-0.00420621
-2.5556
-0.000138597
-0.00375623
-2.55585
0.000468862
-0.00504838
-2.55584
-0.00317307
-2.55586
0.000513403
0.936233
-2.55238
5.18638e-05
0.932673
-2.55084
-0.000375315
0.93475
-2.55141
-0.000146893
0.935275
-2.55211
0.00193511
0.932383
-2.55251
0.936957
-2.55081
0.0019126
0.95421
-2.31921
-0.00017967
0.949514
-2.31422
-0.00114366
0.95195
-2.31562
-0.000431997
0.953091
-2.31869
0.00475836
0.948103
-2.32108
0.955342
-2.31286
0.00327938
0.337616
-2.2405
-0.0011429
0.328866
-2.22697
-0.00220507
0.331414
-2.23063
-0.000699226
0.336237
-2.23931
0.00122079
0.3338
-2.24336
0.332649
-2.22704
0.00664894
-1.23076
-1.41894
-0.00134167
-1.24287
-1.39799
-0.00410944
-1.23963
-1.40405
-5.36351e-05
-1.23302
-1.41632
-0.00116449
-1.23147
-1.41534
-1.23989
-1.40661
-0.0139853
-2.68368
1.26007
0.00593968
-2.72404
1.28523
0.0161868
-2.71102
1.27918
0.00681666
-2.69282
1.26388
-0.0403766
-2.67116
1.25624
-2.72483
1.28378
-0.000659358
-2.67278
3.54397
0.00167702
-2.68091
3.50522
-0.00521124
-2.66951
3.51816
0.000412025
-2.68548
3.53697
0.00554624
-2.69094
3.5578
-2.66344
3.50127
0.0113477
-1.78844
0.196212
-0.00211142
-1.78735
0.163576
-0.0117296
-1.78177
0.181303
-0.00623464
-1.79571
0.189595
0.0222122
-1.80707
0.204095
-1.7699
0.171634
0.00138655
-1.95501
0.000238327
-1.96869
0.00401744
-1.96338
0.00151931
-1.95988
-0.011858
-1.95506
-1.96944
-0.302081
-1.53409
1.83617
-0.492242
-1.61209
1.80225
-0.930555
-1.33565
1.77396
-0.460728
-2.25984
1.79001
0.604899
-2.94189
1.87627
-1.23337
1.83826
-0.00203186
-4.21643
2.68437
-0.0438447
-4.33497
2.7647
-0.653742
-3.77578
3.05003
-0.300765
-4.49776
1.88494
0.499631
-5.02086
1.27857
-3.05635
2.32261
0.105192
-5.02705
0.705428
0.300869
-5.20292
0.672271
0.329549
-5.00294
1.19848
0.33455
-5.16894
0.666179
0.29923
-5.57308
0.587534
-4.29329
1.53617
0.0245045
-5.14464
0.0930819
0.0411502
-5.30808
0.0885161
0.191057
-5.2071
0.0542566
0.118693
-5.21254
0.11596
-0.188729
-5.53297
0.267314
-4.68578
0.203766
0.0389167
-4.72083
-0.462729
0.068634
-4.95246
-0.385333
0.197287
-4.73863
-0.597128
0.100452
-4.83398
-0.28172
-0.191569
-5.27755
0.0366048
-4.24237
-0.634977
0.105777
-4.36867
-0.457927
0.161685
-4.68462
-0.323751
0.2216
-4.41117
-0.387378
0.103495
-4.48387
-0.232011
-0.188884
-4.83903
-0.146141
-3.70477
-0.726486
0.2082
-3.89606
-0.680814
0.212207
-4.22105
-0.467578
0.346324
-3.96084
-0.584443
0.245827
-4.01812
-0.365253
-0.212765
-4.29758
-0.0828639
-3.34159
-0.575943
0.230785
-3.49477
-0.632075
0.174263
-3.70277
-0.461759
0.461665
-3.50013
-0.74811
0.37243
-3.50497
-0.42391
-0.202852
-3.70108
-0.0212112
-3.11393
-0.430512
0.0136472
-2.31025
-1.19817
0.0717292
-2.55951
-1.20134
0.557223
-2.52693
-1.4587
0.540914
-2.3842
-1.10446
-0.222227
-2.57148
-0.366457
-2.50641
-0.829746
-0.394999
-0.20055
-1.7147
-0.0624215
-0.620663
-2.27142
0.78371
-0.89507
-2.47799
0.623118
-0.545554
-1.67806
-0.44519
-0.392424
-1.11075
-0.823997
-2.12761
-0.180101
1.41348
-1.43392
0.0631136
0.942614
-1.80649
0.885591
0.618916
-2.33646
0.750213
0.893654
-1.30383
-0.26951
1.16972
-0.542415
0.598524
-1.69203
-0.227538
1.64101
-0.390076
1.10515
0.389618
-0.160777
0.427008
0.856264
0.29316
1.30356
0.891684
-0.287822
-1.88069
4.00469
-0.45624
-2.07076
4.04143
-0.915656
-1.77354
4.00692
-0.390738
-2.91551
4.18061
0.526144
-3.56801
4.52739
-1.60925
3.97365
0.105701
-5.39175
6.08973
0.317501
-5.59213
6.07426
0.0785201
-4.82807
6.34355
0.0321707
-5.82622
4.842
0.0719611
-6.44439
4.11516
-4.38378
5.16911
0.0951646
-5.0862
0.304707
0.0690984
-5.12461
0.230816
0.230041
-4.64037
0.849836
-0.210666
-4.98629
0.26695
-0.530129
-5.78028
0.242891
-4.7467
1.36896
-0.119718
-3.15313
-1.72026
-0.392333
-3.08516
-1.67831
-0.376107
-2.89276
-1.70959
-0.471557
-3.28653
-1.48835
-0.261022
-4.64876
-1.07474
-3.27534
-1.52862
-0.130577
-1.76686
-1.71843
-0.244583
-1.82425
-1.53225
-0.326117
-1.632
-1.77635
-0.121846
-2.35141
-1.42111
0.166808
-4.04896
-0.851854
-1.71272
-2.03079
-0.119959
-1.32112
-0.783701
-0.230939
-1.67758
-0.359441
-0.475412
-1.14608
-0.628829
-0.285992
-2.42915
-0.343694
-0.0566419
-4.41036
-0.0140915
-1.28062
-1.21523
-0.0594241
-1.80982
-0.132689
-0.219696
-2.43266
0.447774
-0.565616
-1.52563
0.141029
-0.499065
-2.98335
0.122401
-0.180743
-4.97786
0.166318
-1.89767
-0.139634
0.144652
-2.87895
0.292395
-0.129478
-3.41433
0.794038
-0.46427
-2.54634
0.607394
-0.223049
-3.58838
-0.0601009
-0.0521953
-4.71806
-0.451867
-3.01751
0.637131
0.116045
-2.78575
-1.40741
-0.210085
-3.03481
-1.25472
-0.460591
-2.49673
-1.2578
-0.168244
-3.02017
-1.96502
0.243444
-3.96017
-1.53604
-2.89411
-0.709697
0.00781345
-1.94458
-2.56368
-0.143935
-2.05128
-3.10321
-0.126361
-1.82563
-3.16667
0.0031943
-2.00289
-2.82489
0.0635197
-2.35086
-2.78039
-1.86132
-3.09688
0.229615
-0.616352
-2.99176
0.0775524
-0.665451
-3.04026
0.406058
-1.11899
-3.37161
0.294019
-0.871406
-2.32327
-0.467759
-0.54497
-1.58652
-0.940698
-3.08041
0.781869
0.242792
1.1225
0.0990749
1.101
-1.25826
0.871811
0.214044
-0.659994
2.2904
-0.709008
-0.286815
-1.27399
5.56549
-0.525113
-1.46548
5.7452
-0.915804
-1.45598
5.85359
-0.439023
-2.21641
5.92024
0.425239
-2.68849
6.35163
-1.33998
5.73888
0.254216
-3.08245
7.64397
0.32438
-3.26933
7.80796
0.707727
-3.14124
7.64547
0.195651
-3.47083
6.6085
-0.744127
-3.76048
6.12692
-3.05957
6.14457
-0.0528131
-3.17059
0.44566
-0.154561
-3.18744
0.250672
-0.0106836
-3.23586
0.800575
-0.129105
-3.17646
0.0909977
-0.345193
-3.22239
-0.0791057
-3.15903
1.12323
-0.120445
-2.59071
-2.17969
-0.189268
-2.58297
-2.21397
-0.325591
-2.58155
-2.22757
-0.238101
-2.6024
-2.1499
0.0663939
-2.66486
-1.93677
-2.503
-2.11826
-0.154751
-2.06495
-2.08943
-0.0956542
-2.10339
-2.07092
-0.29352
-2.08524
-2.0748
-0.195468
-2.10287
-2.01869
0.410049
-2.21059
-1.91165
-2.01074
-2.11301
-0.283249
-1.34767
-1.21773
-0.156281
-1.47257
-1.11723
-0.303877
-1.39576
-1.17072
-0.136351
-1.48168
-1.13241
0.507775
-1.84217
-1.02663
-1.48461
-1.23358
-0.335631
-0.642577
-0.502155
-0.108381
-1.00344
-0.248604
-0.250771
-0.733859
-0.378478
-0.185717
-0.873894
-0.550442
0.161996
-1.3196
-0.703963
-0.985711
-0.476538
-0.0647691
-0.37529
0.0898765
-0.00750405
-0.621029
0.354359
-0.194779
-0.248292
0.309102
-0.279783
-0.417801
-0.431189
-0.120699
-0.967946
-0.962608
-0.670532
0.201253
0.0210135
-1.16614
-0.637581
-0.100758
-1.06668
-0.687295
-0.358779
-0.68955
-0.558527
-0.537251
-1.10805
-1.0963
0.146114
-1.71811
-1.46924
-0.987954
-0.246161
-0.0123186
-1.72591
-1.99159
-0.253277
-1.8083
-2.12063
-0.501215
-1.65996
-1.94832
-0.272646
-1.92415
-2.23736
0.265576
-2.0603
-2.97642
-1.75239
-2.06687
0.0305353
-1.40558
-3.34263
-0.0754835
-1.38225
-3.3603
-0.433226
-1.13974
-3.53409
-0.260429
-1.39419
-3.02603
0.18612
-1.3911
-2.70228
-1.22241
-3.42427
0.290723
-1.45351
0.546805
-1.53926
0.0016025
-1.8528
-0.09798
-1.08056
0.282821
0.518497
-1.6486
-0.274053
-1.6977
7.53724
-0.537615
-1.81927
7.82804
-0.852385
-1.89673
8.06508
-0.393455
-2.36131
7.82262
0.470958
-2.77002
8.25723
-1.88169
8.09153
0.276851
-2.71343
8.38286
0.298071
-2.83324
8.80071
0.991183
-2.91011
7.96574
0.221026
-2.89091
7.90826
-1.12564
-3.10002
7.8036
-3.14555
6.28279
0.119299
-2.7704
0.383328
0.0393682
-2.78592
0.283276
0.617497
-2.75154
0.0638722
0.32035
-2.79886
0.296089
-0.40268
-2.91643
0.460335
-2.76906
0.344057
-0.0116695
-2.21828
-2.72015
-0.097587
-2.16364
-2.75033
-0.139481
-2.22892
-2.70829
-0.0496145
-2.17877
-2.85985
0.0183648
-2.19371
-2.72747
-2.23106
-2.63789
-0.036395
-1.58777
-2.68355
-0.00179057
-1.57719
-2.69197
-0.050244
-1.58176
-2.67351
-0.0139043
-1.56046
-2.67334
0.0946613
-1.53614
-2.67779
-1.56798
-2.68143
-0.0336247
-1.08641
-1.68547
0.0339175
-1.0928
-1.66916
0.0332399
-1.07414
-1.67766
0.0261331
-1.01539
-1.67037
0.0610644
-0.940256
-1.65745
-1.04489
-1.6956
-0.0151231
-0.610279
-0.963164
0.172494
-0.602502
-0.926517
0.260059
-0.579839
-0.960346
0.200083
-0.515282
-0.990573
-0.055251
-0.389157
-0.999727
-0.582631
-0.994049
0.039731
0.0329682
-0.593101
0.339239
-0.00438997
-0.543262
0.63817
0.0412447
-0.610912
0.434147
-0.0110204
-0.731428
-0.241176
0.0546071
-0.731049
0.0556668
-0.678219
-0.019075
-0.0572442
-0.528293
0.180573
-0.343275
-0.548056
0.130928
0.0981072
-0.565742
0.060683
-0.460284
-0.576794
-0.0829569
-0.647093
-0.623899
0.19619
-0.469641
-0.0512392
-0.839628
-1.15796
-0.0600868
-1.06492
-1.39014
0.0485406
-0.809429
-1.14941
0.165556
-1.22383
-1.59082
-0.0336094
-1.55393
-1.87041
-0.717333
-1.18695
-0.0445902
-1.03213
-3.10554
-0.273858
-1.08409
-3.11186
-0.736761
-1.02454
-2.85607
-0.367189
-1.19372
-3.42572
0.278548
-1.60432
-3.29763
-1.17317
-2.68988
-0.0668077
-2.41883
-0.184685
-2.50547
-0.516976
-2.54505
-0.435059
-2.3562
0.458022
-1.9789
-2.36375
-0.00109241
9.91069
-0.390843
-0.00072133
9.88204
-0.391808
-0.00054419
9.89592
-0.392493
-0.00051046
9.89613
-0.391365
-5.62833e-05
9.88903
-0.391604
9.90213
-0.391921
0.000518259
8.53997
1.3702
-0.000833288
8.521
1.36239
-0.00122709
8.53102
1.3653
-0.000707281
8.53042
1.36519
-0.000840861
8.52599
1.36318
8.53486
1.36643
0.000485175
1.5525
-0.000652524
1.54604
-0.00100693
1.54901
-0.00073534
1.5489
-0.000879287
1.54714
1.54984
-0.00551458
2.18733
-1.81361
-0.000694007
2.16733
-1.81542
-0.00072466
2.1765
-1.81643
-0.00101337
2.17578
-1.81375
0.00189848
2.1704
-1.81435
2.17976
-1.81486
0.00195104
3.08177
0.473809
0.000537396
3.06131
0.469812
-0.00106644
3.07217
0.471231
-0.000604531
3.0691
0.47141
-0.00049173
3.06325
0.470214
3.0739
0.471797
0.00433449
1.20349
0.000535851
1.19922
0.00023406
1.20132
0.000256551
1.20085
-0.00187935
1.19955
1.20144
-0.000986533
-1.56685
-2.45336
0.000360304
-1.57068
-2.45713
-0.00090557
-1.5685
-2.45604
-0.000528527
-1.5696
-2.45442
0.000524378
-1.5707
-2.45552
-1.56894
-2.4546
0.000619574
-1.27767
0.184014
0.00055402
-1.28349
0.182695
-1.73301e-05
-1.27976
0.183069
-3.21515e-05
-1.28159
0.18341
-0.000237011
-1.2833
0.183022
-1.28049
0.183115
0.00238141
0.734208
0.000469248
0.732897
0.000689731
0.733713
0.000624468
0.733292
-0.000743855
0.732865
0.733416
-0.000457023
-2.49289
-2.51566
0.00065856
-2.49202
-2.522
0.000395583
-2.4922
-2.51918
7.26168e-05
-2.49281
-2.51715
-0.000190411
-2.49252
-2.51859
-2.49298
-2.51767
0.000260545
-2.5819
0.272758
0.000299302
-2.58218
0.272809
0.000196086
-2.58183
0.272809
0.000227209
-2.58227
0.272845
-0.000177876
-2.58229
0.273203
-2.58222
0.272182
0.000666426
0.311888
0.000154485
0.311889
0.000433045
0.311959
0.000354897
0.311747
-0.000106704
0.311741
0.311729
-0.00224948
-2.18273
-2.88306
0.00101489
-2.17982
-2.89628
0.00246764
-2.18099
-2.89106
0.000185448
-2.18192
-2.88505
-0.0021286
-2.18205
-2.88673
-2.18083
-2.88977
-0.000959505
-2.22941
0.320402
0.000429151
-2.22864
0.320241
0.000893433
-2.22902
0.320376
0.000325954
-2.22922
0.320702
-0.00138996
-2.22933
0.322193
-2.22887
0.318833
6.79301e-05
0.206847
9.16297e-05
0.207329
0.000195424
0.207119
0.000151403
0.206958
-1.47263e-05
0.207052
0.207007
-0.00725891
-1.66093
-3.5341
0.00207996
-1.65406
-3.56579
0.00853076
-1.65637
-3.55676
0.00104843
-1.65967
-3.53659
-0.00949123
-1.66167
-3.5356
-1.6544
-3.55773
-0.00418032
-1.24083
-0.0955122
0.00144607
-1.23918
-0.10026
0.00356694
-1.24003
-0.098093
0.000918755
-1.2405
-0.0958266
-0.00590035
-1.24107
-0.0915947
-1.2395
-0.101963
0.000107178
0.529295
6.96668e-05
0.530685
4.01014e-05
0.530085
6.52111e-05
0.52973
-0.000322033
0.530223
0.529586
-0.0148996
-1.36666
-4.39304
0.0031917
-1.35306
-4.45779
0.0166621
-1.35739
-4.44346
0.00340318
-1.36427
-4.39838
-0.0229614
-1.36792
-4.38468
-1.35502
-4.45271
-0.0154116
-0.391199
-1.05556
0.00446455
-0.390191
-1.083
0.0132977
-0.390887
-1.07344
0.00271096
-0.39084
-1.05867
-0.0172455
-0.391694
-1.04786
-0.390283
-1.08394
8.44615e-05
0.622841
0.000185617
0.622234
3.80267e-05
0.622689
0.000170319
0.623275
-0.00143996
0.626365
0.619623
-0.0117065
-0.702183
-5.0981
0.00212963
-0.665466
-5.20414
0.0157925
-0.679211
-5.18197
0.00496524
-0.694946
-5.10892
-0.0261377
-0.70292
-5.06598
-0.673804
-5.21165
-0.0278413
0.474519
-2.20442
0.00576483
0.497495
-2.27957
0.0222199
0.487609
-2.25672
0.00507114
0.478211
-2.21468
-0.023189
0.46568
-2.18819
0.498582
-2.27951
-0.0111241
0.120681
0.00358055
0.108769
0.0082729
0.113341
0.00149353
0.11944
-0.0171764
0.12427
0.107525
-0.0110932
1.67898
-5.50591
0.00245138
1.70295
-5.63538
0.0119614
1.69099
-5.60329
0.00729575
1.68747
-5.52784
-0.0345554
1.69574
-5.46364
1.68252
-5.64493
-0.0021665
2.27152
-2.79479
-0.00330471
2.30174
-2.87723
-0.00557119
2.28875
-2.8522
-0.00110885
2.28013
-2.8118
0.0150434
2.27879
-2.78739
2.28928
-2.87124
-0.00875212
-0.237153
0.000571563
-0.256121
0.00174973
-0.248471
0.000201731
-0.241628
0.0040538
-0.240162
-0.252017
0.00711235
2.95399
-4.92303
-0.000425539
2.92571
-5.04833
-0.00945624
2.93548
-5.01159
0.000980464
2.95473
-4.95604
0.0123726
2.98438
-4.9016
2.91288
-5.04416
0.0272007
2.43124
-2.29924
-0.00933196
2.41018
-2.32517
-0.0260774
2.41736
-2.31734
-0.00716186
2.438
-2.31399
0.0448521
2.46537
-2.32039
2.39675
-2.31026
0.012856
-0.289818
-0.00837641
-0.296236
-0.0188064
-0.292569
-0.00550217
-0.294344
0.0317522
-0.298586
-0.289551
0.0396329
-0.626579
-4.13987
-0.0067866
-0.646438
-4.1919
-0.0334662
-0.628012
-4.17559
-0.0102979
-0.633947
-4.15566
0.0562677
-0.628904
-4.13517
-0.634856
-4.18141
0.0138194
-2.02965
-0.909985
-0.00306279
-2.05279
-0.901934
-0.00611651
-2.03886
-0.903446
-0.00145641
-2.03666
-0.915929
0.00596569
-2.02493
-0.931785
-2.04761
-0.891548
0.00977554
0.348039
-0.00405952
0.349884
-0.00597211
0.349693
-0.00190887
0.348084
0.00700273
0.347345
0.350801
0.00792141
-4.83315
-1.26965
0.000438426
-4.88129
-1.27182
-0.00291471
-4.86495
-1.27067
-0.00133966
-4.84528
-1.27183
0.00240183
-4.82211
-1.27186
-4.87852
-1.26992
0.0120163
-3.84746
-1.90769
0.000389763
-3.86209
-1.90951
-0.00442848
-3.8546
-1.90897
-0.00119821
-3.85529
-1.90914
0.00517614
-3.85312
-1.90715
-3.85476
-1.91014
0.00730808
-0.619758
-0.00188927
-0.622182
-0.00477506
-0.621667
-0.00204489
-0.619907
0.00752323
-0.617785
-0.623375
-0.00445057
-0.512709
-0.613316
1.13048
-0.00220783
-0.516895
-0.615074
1.12973
-0.00242744
-0.516936
-0.618954
1.13611
-0.00412518
-0.493181
-0.601662
1.09654
0.00656716
-0.495196
-0.603629
1.08813
-0.498865
-0.606366
1.1118
-0.00641039
-0.743186
-0.300863
0.537751
-0.000224923
-0.748481
-0.303425
0.528825
0.00725252
-0.746438
-0.303563
0.525587
0.00814537
-0.72913
-0.302696
0.537752
-0.00110497
-0.722385
-0.290916
0.527355
-0.729255
-0.310643
0.539928
-0.00448042
-0.383726
0.443398
-0.0136752
-0.386515
0.447772
-0.0265688
-0.384337
0.450706
-0.0257974
-0.379229
0.447392
0.00242272
-0.360675
0.408424
-0.372619
0.448825
7.0049e-06
-0.336969
-0.276354
-0.000505512
-0.339125
-0.275437
4.96872e-05
-0.344889
-0.274619
0.000255067
-0.324046
-0.277821
-0.00203465
-0.323894
-0.277445
-0.333117
-0.275284
-0.000541917
-0.65115
0.013859
-0.00490764
-0.653849
0.0156646
-0.0105191
-0.657463
0.0146208
-0.0124884
-0.642317
0.0175436
0.000981667
-0.645585
0.0173049
-0.655158
0.0123803
-0.000614497
-0.134172
-0.00450992
-0.13451
-0.0125903
-0.132892
-0.00994455
-0.128063
0.000343547
-0.122432
-0.123915
0.000644328
-0.26106
-0.0159388
-0.000195903
-0.25894
-0.0156562
-0.00154924
-0.257746
-0.0155205
-0.000915411
-0.263046
-0.0154089
0.0004877
-0.263385
-0.0154624
-0.259918
-0.0148775
-0.00113525
-0.61866
0.372594
-0.000209031
-0.617222
0.373019
-5.99501e-05
-0.616846
0.373572
0.00251379
-0.620736
0.372659
0.00629591
-0.623357
0.373494
-0.617378
0.376135
-0.00235497
0.0609596
-0.0032553
0.0607466
-0.00344109
0.06175
-0.00418064
0.0635112
-0.00127281
0.0649561
0.0657088
0.000515985
-0.160132
0.143677
-0.000195549
-0.158751
0.143807
-0.00152483
-0.157803
0.143611
-0.000313387
-0.161115
0.144495
0.00109931
-0.161564
0.144689
-0.157413
0.143634
-0.000874912
-0.651093
0.86443
-0.00112377
-0.650217
0.864732
-0.00159993
-0.648949
0.865192
-0.00123976
-0.653245
0.864427
0.00247836
-0.655973
0.864184
-0.64577
0.86697
-0.0011067
0.315204
-0.00157086
0.315486
-0.0016254
0.316255
-0.00131407
0.315686
0.000399918
0.315218
0.318846
0.000591451
-0.333305
0.47639
-0.000166067
-0.332753
0.477317
-0.00146601
-0.33181
0.476722
-0.000269245
-0.334423
0.477722
0.00124933
-0.33486
0.47803
-0.331383
0.476267
-9.8317e-05
-0.920657
1.45188
-0.000921285
-0.920566
1.45337
-0.00177831
-0.919062
1.4533
-0.00130046
-0.922924
1.45245
0.00295857
-0.925665
1.45073
-0.916138
1.45468
-0.000411109
0.5703
-0.000762466
0.571193
-0.000349478
0.571595
-0.000544117
0.569949
-0.00047325
0.568336
0.573844
0.000896552
-0.794161
6.35735e-05
-0.793667
-0.00082386
-0.793059
-0.000355245
-0.794582
0.000369656
-0.794559
-0.793282
-8.67574e-06
-1.24997
-0.000300564
-1.24952
-0.000355983
-1.24868
-0.000444862
-1.25119
0.00132831
-1.25275
-1.24741
-0.000204684
-0.000402584
0.000241164
-0.000240562
-0.000890013
-0.184363
9.17706
-1.45545
-0.400417
9.55635
-1.51226
-0.407223
9.73982
-1.66793
-0.14758
9.59432
-2.03134
0.172361
10.2897
-2.35245
9.96781
-1.70392
-0.077332
10.4614
-1.20701
-0.222037
10.8683
-1.16729
-0.272165
11.074
-1.28407
-0.0935435
10.6391
-1.22343
0.0365611
11.3614
-1.20177
11.1321
-1.12769
-0.0637862
-0.241494
-0.168495
-0.269365
-0.329298
-0.216761
-0.206007
-0.0988587
-0.00488347
-0.12305
0.108785
0.355358
8.67411
-2.10206
0.454799
9.25577
-2.06676
1.24631
7.84903
-2.34274
0.461361
8.62126
-1.95938
-0.783175
8.79689
-2.10121
6.61478
-2.81909
0.32839
7.51222
-0.373517
0.547949
7.97724
-0.108314
0.858316
6.89106
-0.636466
0.454172
7.39875
0.403216
0.147236
7.52294
0.37911
6.60504
-0.970704
0.024256
0.979762
0.0247074
1.07616
-0.299439
0.903001
0.100529
1.04373
0.710539
1.1599
0.924802
0.198796
0.16268
-2.08021
0.19303
0.2534
-2.03112
0.314142
-0.330016
-2.06996
0.290925
0.277179
-1.91726
0.124149
0.469093
-1.94319
-0.161336
-2.18955
0.0887477
0.0828263
-0.382412
0.163422
0.278182
-0.207773
-0.535746
0.04629
-0.313604
0.228503
-0.480979
0.397125
1.00251
-0.310972
0.385168
0.323906
-0.453438
-0.0635713
1.16748
-0.191628
1.26023
-0.765758
1.21299
0.0519084
1.04337
0.850197
1.20944
1.20889
-0.0284332
-3.45704
-1.31488
-0.119291
-3.45881
-1.23178
-0.1573
-3.41958
-1.32067
0.0204256
-3.73277
-1.22206
0.114525
-3.59611
-1.16864
-3.36891
-1.34401
-0.0853296
-3.61722
-0.1369
-0.170669
-3.54931
-0.0319401
-0.457875
-3.38915
-0.0568288
-0.000280293
-3.77426
-0.0189834
0.395967
-3.65521
0.0480218
-3.3145
-0.111881
-0.0288357
0.402828
0.00208523
0.44123
-0.0724115
0.471497
-0.0401242
0.338883
0.0825449
0.420349
0.46499
-0.0373828
-2.91059
-1.05046
-0.0139708
-2.92787
-1.0193
-0.0562376
-2.91766
-1.03425
-0.0118422
-2.92212
-1.01768
0.0689288
-2.93646
-0.99074
-2.91399
-1.04251
-0.0349885
-2.64981
-0.362692
-0.0117956
-2.65001
-0.332986
-0.0104994
-2.64337
-0.33241
-0.0084389
-2.61758
-0.325581
0.0281853
-2.63128
-0.293779
-2.65142
-0.346272
-0.0109713
0.0569771
0.00668221
0.0596121
0.0425966
0.0744943
-0.0222101
0.0409304
-0.0366608
0.0598587
0.0660484
-0.0243945
-1.91585
-0.795679
-0.0079012
-1.91475
-0.790204
-0.0127981
-1.92079
-0.786227
-0.0106813
-1.91431
-0.775868
0.0299847
-1.92061
-0.768246
-1.92575
-0.782383
-0.0144984
-1.87367
-0.390372
-0.0057451
-1.86993
-0.386558
-0.00296042
-1.87447
-0.381509
-0.00140803
-1.86235
-0.379091
0.016445
-1.86376
-0.368487
-1.87536
-0.380215
-0.00338707
-0.0734519
-0.00242365
-0.0740368
0.00746554
-0.0698386
-0.00296145
-0.0763335
-0.00365749
-0.0721199
-0.0708188
-0.00690377
-1.16668
-0.585259
0.0228859
-1.16115
-0.585358
0.0264172
-1.16914
-0.580965
0.0166472
-1.18653
-0.570135
0.0122699
-1.19309
-0.570499
-1.18957
-0.574589
0.00289822
-1.30997
-0.249976
0.0136329
-1.3096
-0.248841
0.0206958
-1.31178
-0.245928
0.0134502
-1.31581
-0.24257
0.00522689
-1.31632
-0.237033
-1.31897
-0.245589
-0.00031232
-0.086268
2.74864e-05
-0.0869241
0.00225069
-0.085492
-0.000436128
-0.0868122
0.00034941
-0.0859175
-0.0850022
-0.0211854
-0.857608
-0.299566
0.0500694
-0.843354
-0.356518
0.0935548
-0.864312
-0.371048
0.0476988
-0.904381
-0.351322
0.0064283
-0.92531
-0.334963
-0.900283
-0.346095
0.0110033
-1.19146
0.072876
0.0307789
-1.19197
0.0800051
0.0416788
-1.19751
0.0763758
0.0263778
-1.20772
0.0760738
-0.000957777
-1.21132
0.0763124
-1.21005
0.0632199
0.000972761
-0.0776588
0.00280923
-0.0786603
0.00485911
-0.0788094
0.00261091
-0.0796471
0.00117863
-0.0797983
-0.0785318
-0.139428
-0.510083
-0.178347
-0.0587561
-0.487145
-0.4981
0.117344
-0.495859
-0.617032
0.0788623
-0.505061
-0.384572
-0.0603285
-0.531942
-0.287728
-0.475147
-0.400915
0.0152093
-0.902871
0.450456
0.0132806
-0.893155
0.487947
0.0164712
-0.892404
0.469733
-0.00310306
-0.897833
0.488423
-0.0432157
-0.905064
0.48955
-0.89093
0.435788
-0.00921366
0.0290574
-0.00486492
0.0256644
-0.00211285
0.0285637
-0.000537038
0.0263728
0.00356312
0.0184245
0.0317517
0.138194
-0.696256
-0.778248
0.0980145
-0.807885
-1.04018
0.391059
-0.751869
-1.30762
0.14659
-0.840643
-0.890282
-0.316528
-0.898144
-0.796875
-0.733058
-1.17134
0.0648504
-1.26636
0.955713
0.0234902
-1.28914
1.01056
0.0258103
-1.27931
0.994854
-0.0215387
-1.30494
1.00007
-0.0713997
-1.32147
0.962741
-1.29032
0.921646
0.00449819
0.225618
0.00280652
0.223203
0.00483255
0.226542
0.00984753
0.2137
0.0100812
0.201446
0.226296
0.0987952
-1.85105
-2.13154
0.0114275
-1.87938
-2.18529
0.0503357
-1.82674
-2.37587
-0.100045
-1.94698
-2.21865
-0.307402
-1.74389
-2.14326
-1.64229
-2.52633
0.000891076
-1.55903
0.662806
-0.0281072
-1.53866
0.698845
-0.0441888
-1.5279
0.712098
-0.123802
-1.57723
0.709941
-0.050095
-1.51005
0.655188
-1.47792
0.707178
-0.0175394
0.368509
0.00223378
0.366758
0.00611523
0.371859
-0.0206465
0.358432
-0.00327779
0.362185
0.382892
0.0558707
-3.47577
0.0120062
-3.51717
-0.144384
-3.62841
-0.0316447
-3.59105
-0.0108218
-3.05485
-3.7891
0.00774029
-2.28295
-0.0237633
-2.258
-0.102335
-2.31216
-0.135811
-2.30988
0.12661
-2.13473
-2.41539
0.0141356
0.00130461
-0.0733093
-0.0907214
0.115599
)
;

boundaryField
{
    seabed_topleft_surface
    {
        type            calculated;
        value           uniform 0;
    }
    seabed_topright_surface
    {
        type            calculated;
        value           uniform 0;
    }
    breakwater_top_surface
    {
        type            calculated;
        value           uniform 0;
    }
    breakwater_left_surface
    {
        type            calculated;
        value           uniform 0;
    }
    breakwater_right_surface
    {
        type            calculated;
        value           uniform 0;
    }
    water_front_surface
    {
        type            calculated;
        value           uniform 0;
    }
    water_back_surface
    {
        type            calculated;
        value           uniform 0;
    }