/*--------------------------------*- C++ -*----------------------------------*\
| =========                 |                                                 |
| \\      /  F ield         | OpenFOAM: The Open Source CFD Toolbox           |
|  \\    /   O peration     | Version:  v1612+                                |
|   \\  /    A nd           | Web:      www.OpenFOAM.com                      |
|    \\/     M anipulation  |                                                 |
\*---------------------------------------------------------------------------*/
FoamFile
{
    version     2.0;
    format      ascii;
    class       volVectorField;
    location    "5.65";
    object      U;
}
// * * * * * * * * * * * * * * * * * * * * * * * * * * * * * * * * * * * * * //

dimensions      [0 1 -1 0 0 0 0];

internalField   nonuniform List<vector> 
1116
(
(-0.903773 3.60716e-06 0.0773005)
(-0.903875 2.26254e-05 0.0773151)
(-0.903842 1.8806e-05 0.0773337)
(-0.903823 1.29268e-05 0.0773081)
(-0.903848 -1.0232e-06 0.0773078)
(-0.903803 -1.0781e-05 0.0773021)
(-2.77339 -9.59173e-05 0.242375)
(-2.77359 -3.7482e-05 0.24241)
(-2.77351 6.9022e-05 0.242414)
(-2.77347 -1.2158e-05 0.242398)
(-2.77352 1.12126e-05 0.242409)
(-2.77342 3.39397e-05 0.242368)
(-3.58286 -0.000113942 0.0707195)
(-3.58306 -4.21843e-05 0.0706533)
(-3.58295 7.19113e-05 0.0706822)
(-3.58292 -2.65086e-05 0.0706962)
(-3.58298 8.79004e-06 0.0706833)
(-3.58289 3.56e-05 0.0706913)
(-3.703 -8.41631e-05 -0.0440792)
(-3.70318 -1.66498e-05 -0.0440709)
(-3.70304 4.47482e-05 -0.0440747)
(-3.70301 -2.18259e-05 -0.0440609)
(-3.70307 -6.79336e-07 -0.0440588)
(-3.70306 5.50434e-06 -0.0440754)
(-3.65532 -6.92489e-05 -0.0365812)
(-3.65566 -6.7736e-06 -0.0364617)
(-3.65543 2.84124e-05 -0.0364959)
(-3.65541 -1.16076e-05 -0.036488)
(-3.6555 5.3135e-07 -0.0364661)
(-3.65546 -8.51097e-06 -0.0365592)
(-3.49494 -9.8401e-06 -0.148901)
(-3.49553 1.55413e-05 -0.148798)
(-3.49521 3.42008e-06 -0.148801)
(-3.49517 2.05036e-05 -0.148794)
(-3.4953 -1.10657e-05 -0.148799)
(-3.49514 -4.02766e-05 -0.14889)
(-3.11217 0.000115092 -0.293801)
(-3.11298 6.65767e-05 -0.293648)
(-3.11261 -3.64065e-05 -0.293655)
(-3.11253 5.84165e-05 -0.293657)
(-3.11266 -3.98654e-05 -0.29363)
(-3.11242 -7.69724e-05 -0.293781)
(-2.5973 0.000334271 -0.325702)
(-2.59809 0.00015196 -0.325395)
(-2.59773 -0.000112883 -0.325442)
(-2.59768 -4.77382e-06 -0.325444)
(-2.59786 -1.88185e-05 -0.325199)
(-2.59745 5.76262e-05 -0.325775)
(-2.16443 0.000731175 -0.384356)
(-2.16447 0.000311489 -0.384066)
(-2.16433 -0.000354048 -0.384082)
(-2.16465 -0.000437697 -0.384044)
(-2.16526 0.000310997 -0.383407)
(-2.16376 0.000797025 -0.384889)
(-1.75607 0.000960864 -0.583653)
(-1.7527 0.000468944 -0.5831)
(-1.75358 -0.000610939 -0.583152)
(-1.75569 -0.00100628 -0.583401)
(-1.75906 0.000831506 -0.582957)
(-1.75062 0.00164839 -0.583899)
(-1.13482 0.000284803 -0.7762)
(-1.12859 0.000274137 -0.774946)
(-1.12966 -0.00030636 -0.775066)
(-1.13467 -0.000348 -0.776228)
(-1.14082 0.000384849 -0.776831)
(-1.12411 0.000225049 -0.774767)
(-0.221399 -0.00111887 -0.25788)
(-0.218424 -0.000585079 -0.257962)
(-0.219092 0.000887908 -0.258099)
(-0.221299 0.00177751 -0.257785)
(-0.222746 -0.00156828 -0.257707)
(-0.21742 -0.00313218 -0.258186)
(-3.59099 -0.0028427 4.11181)
(-3.58834 -0.00130041 4.11334)
(-3.5895 0.00112696 4.11234)
(-3.5897 -0.000767627 4.11243)
(-3.58904 0.000686554 4.11293)
(-3.59023 0.00105412 4.11219)
(-5.33248 -0.000227533 2.1455)
(-5.33201 -7.60575e-05 2.14469)
(-5.33216 4.99689e-05 2.14503)
(-5.33229 -6.37439e-05 2.14516)
(-5.33215 7.59415e-05 2.14495)
(-5.33235 4.30903e-05 2.14523)
(-4.98817 0.000198623 0.677506)
(-4.988 0.000134497 0.676823)
(-4.988 -0.000113322 0.677119)
(-4.98813 5.41807e-05 0.677234)
(-4.98804 -4.86773e-05 0.677035)
(-4.98814 -0.00014461 0.677321)
(-4.38477 0.000194739 0.0240269)
(-4.38483 0.000119742 0.0238)
(-4.38474 -0.000110738 0.0239022)
(-4.38484 7.03238e-05 0.0239574)
(-4.3848 -6.21033e-05 0.0238911)
(-4.38481 -0.000154168 0.0239706)
(-3.67866 0.000123605 -0.188298)
(-3.67894 6.48681e-05 -0.188277)
(-3.6788 -8.40255e-05 -0.188266)
(-3.67883 5.55618e-05 -0.188249)
(-3.67882 -3.94185e-05 -0.18823)
(-3.67881 -0.000104903 -0.188321)
(-2.79959 1.13005e-06 -0.388143)
(-2.80013 -2.63324e-05 -0.387796)
(-2.79995 -3.83735e-05 -0.38791)
(-2.79989 -1.75342e-05 -0.387931)
(-2.79988 4.68259e-05 -0.387783)
(-2.79982 6.10333e-05 -0.388143)
(-1.51508 -0.000119612 -0.621224)
(-1.51588 -0.000127173 -0.620636)
(-1.51564 -2.843e-05 -0.62084)
(-1.51543 -0.000209033 -0.620898)
(-1.51558 0.000257182 -0.620603)
(-1.51524 0.000434025 -0.621235)
(-0.196094 -0.000122277 -0.720236)
(-0.196787 -0.000152927 -0.719647)
(-0.196518 -5.61189e-05 -0.719849)
(-0.19647 -0.000252043 -0.71988)
(-0.197069 0.000344076 -0.71934)
(-0.195834 0.000549789 -0.720408)
(0.730958 -0.000269712 -0.619964)
(0.731727 -0.00012426 -0.619466)
(0.731519 1.78038e-05 -0.61958)
(0.730994 -0.000154214 -0.619642)
(0.729483 0.000230861 -0.618938)
(0.733037 0.000226845 -0.620267)
(0.688963 -0.000972105 -0.476883)
(0.681744 -0.000387986 -0.476055)
(0.684269 0.000705296 -0.476287)
(0.687837 0.00124393 -0.476447)
(0.695691 -0.00105848 -0.476019)
(0.677587 -0.00217599 -0.476738)
(0.406997 -0.00389073 -0.994134)
(0.395018 -0.00238601 -0.993239)
(0.397221 0.00331125 -0.993207)
(0.407697 0.00521758 -0.994009)
(0.42211 -0.00483492 -0.995404)
(0.383014 -0.00801806 -0.99194)
(-1.40121 -0.000288717 -0.941985)
(-1.41263 -0.000751104 -0.940845)
(-1.41022 0.00101937 -0.941375)
(-1.40185 0.00230597 -0.941861)
(-1.39883 -0.00173074 -0.942886)
(-1.4143 -0.00223938 -0.940242)
(-7.29356 -0.00660848 7.26924)
(-7.29407 -0.00381507 7.25432)
(-7.29374 0.00249188 7.26121)
(-7.29408 -0.00133265 7.26207)
(-7.29391 0.0016119 7.25916)
(-7.29395 0.00269679 7.26442)
(-7.40995 -0.00122438 0.569939)
(-7.4105 -0.000715621 0.570649)
(-7.41017 0.000407817 0.570448)
(-7.41031 -0.000343624 0.570114)
(-7.41032 0.000342176 0.570547)
(-7.41023 0.000612003 0.570015)
(-6.03273 -0.00107039 -1.06933)
(-6.03247 -0.000660922 -1.0674)
(-6.03253 0.000469294 -1.06811)
(-6.03269 -0.000234636 -1.06853)
(-6.03258 0.000257359 -1.06779)
(-6.03274 0.000564731 -1.06889)
(-4.2766 -0.00099708 -1.50504)
(-4.27622 -0.00064298 -1.50307)
(-4.27639 0.000432879 -1.50385)
(-4.27645 -0.000244817 -1.50417)
(-4.27642 0.000262509 -1.50343)
(-4.27654 0.000578166 -1.50459)
(-2.40107 -0.000909596 -1.7133)
(-2.40173 -0.000597049 -1.71153)
(-2.40145 0.000370055 -1.71224)
(-2.40132 -0.000335573 -1.71254)
(-2.40169 0.000359005 -1.71192)
(-2.40114 0.000720631 -1.71293)
(-0.0504628 -0.000596964 -2.39687)
(-0.0522099 -0.000409572 -2.39577)
(-0.05135 0.000120603 -2.39618)
(-0.0510537 -0.000688392 -2.3966)
(-0.0522495 0.000689008 -2.39629)
(-0.0503089 0.00124208 -2.3966)
(3.48895 0.000447322 -3.70646)
(3.48649 0.000264554 -3.70621)
(3.48774 -0.001001 -3.70581)
(3.48912 -0.00134067 -3.70783)
(3.48511 0.0010896 -3.70909)
(3.49141 0.00158399 -3.70446)
(6.97199 0.00417333 -3.66129)
(6.96645 0.00341385 -3.66303)
(6.96784 -0.00532823 -3.66215)
(6.9724 -0.00507533 -3.66299)
(6.97349 0.00506418 -3.66227)
(6.96628 0.00597647 -3.66296)
(12.2493 0.0048024 -1.58808)
(12.2906 0.00678812 -1.58307)
(12.2785 -0.00868788 -1.58366)
(12.2593 -0.00994732 -1.58993)
(12.2251 0.00855815 -1.59688)
(12.3096 0.0092074 -1.57542)
(4.7453 -0.0204379 0.985483)
(4.646 -0.00850009 1.00162)
(4.70203 0.0153568 0.996442)
(4.71744 0.0283562 0.98597)
(4.82809 -0.0259846 0.968991)
(4.60933 -0.051005 1.01051)
(3.51793 -0.0326776 1.25623)
(3.36615 -0.0225586 1.23869)
(3.39066 0.0298876 1.2416)
(3.51702 0.0439573 1.25589)
(3.70507 -0.0423592 1.2709)
(3.20755 -0.0610123 1.22739)
(-2.30222 0.034668 0.21943)
(-2.53071 0.0211361 0.192431)
(-2.48329 -0.0312566 0.196509)
(-2.31811 -0.05552 0.219766)
(-2.16219 0.0565126 0.247545)
(-2.62735 0.106509 0.175185)
(-5.82413 -0.00606538 15.7146)
(-5.83726 -0.00351689 15.6603)
(-5.832 0.00151044 15.6848)
(-5.83152 -0.00200299 15.6884)
(-5.83407 0.00143999 15.6755)
(-5.82907 0.00251318 15.698)
(-5.42265 -0.00103464 2.01799)
(-5.42864 -0.000998 2.00603)
(-5.42696 -0.000192989 2.01163)
(-5.42454 -0.000675759 2.0118)
(-5.42593 -7.0674e-05 2.00881)
(-5.42441 0.000423384 2.01432)
(-3.33841 -0.00105851 -3.36228)
(-3.3357 -0.00104403 -3.37131)
(-3.33594 -0.000523352 -3.36759)
(-3.33528 -0.00109821 -3.36658)
(-3.33572 -6.43194e-05 -3.36917)
(-3.33668 0.000448451 -3.36495)
(-1.67316 -0.000509979 -3.9848)
(-1.67713 -0.000143946 -3.99003)
(-1.6747 5.66928e-05 -3.98818)
(-1.67383 -0.000531679 -3.98732)
(-1.67575 0.000281296 -3.98885)
(-1.67351 0.000388146 -3.98639)
(0.860928 0.000335336 -4.68049)
(0.854893 0.000285664 -4.68406)
(0.858258 -0.00022021 -4.68287)
(0.859205 -0.000633255 -4.6825)
(0.855791 0.000931716 -4.68353)
(0.861204 0.00120288 -4.68139)
(1.59911 0.00113367 -5.72999)
(1.59071 0.000984346 -5.73182)
(1.59573 -0.000901867 -5.73078)
(1.5966 -0.00192098 -5.73251)
(1.58912 0.00221036 -5.73331)
(1.60107 0.00316405 -5.72915)
(0.65913 0.00153696 -6.25241)
(0.649254 0.00185091 -6.2478)
(0.65438 -0.00280305 -6.24819)
(0.656494 -0.000973721 -6.25419)
(0.643315 0.000809574 -6.25678)
(0.664417 -0.000739569 -6.24437)
(-1.45483 0.00222992 -5.63611)
(-1.48062 0.00485385 -5.62397)
(-1.4748 -0.00629153 -5.62575)
(-1.45849 0.00169524 -5.6373)
(-1.45246 0.000359549 -5.639)
(-1.48165 -0.00737379 -5.62482)
(-5.17155 -0.0185594 0.945959)
(-5.17737 -0.00415109 1.04554)
(-5.17432 0.0101311 1.02487)
(-5.17559 0.0306477 0.953713)
(-5.19029 -0.0218546 0.873378)
(-5.15598 -0.049884 1.08854)
(-2.37779 -0.00154632 8.45416)
(-2.51808 0.0026273 8.40449)
(-2.47091 -0.00275513 8.42122)
(-2.41414 -0.00194617 8.44009)
(-2.33139 0.00213191 8.45178)
(-2.5308 0.00479288 8.41053)
(-4.85754 0.0183735 1.50216)
(-4.83417 0.0034259 1.38886)
(-4.81461 -0.00849133 1.43047)
(-4.87911 -0.0122371 1.48592)
(-4.92682 0.00560791 1.56147)
(-4.76295 0.0268693 1.4037)
(-3.38963 0.00326883 -1.40605)
(-3.38829 -0.00180303 -1.42178)
(-3.38349 0.00176892 -1.41513)
(-3.39942 0.00715485 -1.41095)
(-3.41833 -0.00764034 -1.40189)
(-3.37295 -0.00743565 -1.42432)
(0.677146 -0.21332 1.08786)
(0.842746 -0.324474 0.969866)
(1.07082 -0.824913 0.929857)
(2.30298 -0.848396 0.714394)
(3.5295 0.169622 0.495164)
(0.94951 0.712123 1.07319)
(6.16581 -0.0243433 -0.506548)
(6.28367 0.10379 -0.544003)
(4.98018 -0.401437 -0.224434)
(7.45832 -0.545521 -1.30194)
(8.95248 0.142149 -2.05048)
(4.55401 0.537593 -0.449226)
(10.1777 0.0024032 -2.38863)
(10.5797 0.231426 -2.62178)
(9.77861 0.309009 -2.32776)
(10.491 0.368365 -2.64827)
(11.426 0.219844 -3.13276)
(7.95554 0.299215 -1.60729)
(10.7106 0.0153312 -3.19435)
(11.0151 0.032776 -3.43941)
(10.9175 0.0345261 -3.47011)
(10.8413 0.344379 -3.18425)
(11.3845 -0.12803 -3.17867)
(9.59374 -0.211315 -2.65477)
(10.0516 0.00503415 -3.13979)
(10.431 0.0883884 -3.44085)
(10.1394 0.0390548 -3.49588)
(10.247 0.353433 -3.13352)
(11.0756 -0.149069 -3.08629)
(9.28234 -0.225723 -2.98631)
(9.43567 0.0672912 -3.09274)
(10.041 0.190733 -3.52497)
(9.50559 0.0571334 -3.53396)
(9.67215 0.428366 -3.12109)
(10.5229 -0.176873 -3.05881)
(8.1549 -0.276316 -2.96287)
(8.86636 0.179725 -3.04688)
(9.62969 0.275108 -3.54509)
(9.06804 0.0818098 -3.61921)
(9.09773 0.668992 -3.04136)
(9.67453 -0.161217 -2.92374)
(7.51118 -0.326466 -2.9831)
(8.05592 0.208969 -2.99907)
(8.73109 0.223128 -3.43937)
(8.27516 0.089657 -3.7022)
(8.20484 0.902661 -2.83957)
(8.6057 -0.139106 -2.59357)
(7.09409 -0.342959 -2.96035)
(6.41621 0.0200782 -3.04869)
(6.83479 -0.00396079 -3.47927)
(6.69024 0.114752 -4.03548)
(6.42642 1.10407 -2.74297)
(6.75728 -0.12339 -2.12004)
(6.16551 -0.316776 -3.09067)
(3.29763 -0.356936 -3.12412)
(4.00169 -0.282243 -4.10871)
(4.24824 0.142847 -4.77649)
(3.45987 1.31902 -3.09421)
(3.55108 -0.278026 -2.06697)
(4.14864 -0.388024 -3.6289)
(-1.13283 -0.287441 -2.38602)
(0.45448 -0.00469109 -3.35308)
(1.72874 0.15527 -4.3704)
(0.345307 1.46322 -2.84441)
(-0.864956 -0.0671396 -1.73195)
(1.03047 -0.381863 -2.54793)
(-3.82769 -0.20731 0.425557)
(-2.91174 -0.390626 -0.602075)
(-2.81266 -0.216691 -0.0680791)
(-3.12332 0.864228 0.305114)
(-3.57136 0.10156 -0.166832)
(-3.19761 0.377214 1.82122)
(2.56465 -0.261283 5.47396)
(2.91287 -0.213617 5.46856)
(3.10753 -0.861211 5.36781)
(4.97587 -0.781301 5.58545)
(6.05086 0.101506 6.00069)
(2.46998 0.791062 5.40796)
(6.76936 0.0103721 7.9352)
(7.27919 0.299554 8.0362)
(5.6703 0.170363 8.96046)
(8.84124 0.000472415 6.10457)
(10.691 0.0203065 4.83816)
(5.48223 0.143602 7.19486)
(12.6238 0.0138684 3.61257)
(12.8953 0.0978925 3.71822)
(11.6568 0.127825 4.92079)
(12.3374 0.186278 3.78733)
(12.8691 -0.624155 4.17221)
(10.2328 -0.179042 5.39912)
(7.0526 -0.0480126 2.53924)
(6.78194 -0.238446 2.75309)
(6.2142 -0.402227 2.67127)
(6.98433 -0.447818 2.70476)
(9.35249 -0.410081 3.26299)
(8.16785 -0.017619 2.57213)
(3.97502 -0.145183 0.379394)
(3.91218 -0.146174 1.0223)
(3.72595 -0.235038 0.122431)
(4.48741 -0.37226 1.23307)
(7.52855 0.00488335 2.69199)
(3.69666 0.492765 -0.579251)
(2.66215 -0.109166 0.686746)
(2.77964 -0.115954 1.74059)
(2.3195 -0.353771 1.29092)
(4.11947 -0.419283 1.82062)
(7.70501 -0.31952 2.32004)
(2.77728 0.289025 -0.679305)
(3.18099 -0.0573382 0.31891)
(4.1913 -0.0300533 1.76854)
(2.51985 -0.455429 1.01635)
(5.86323 -0.625064 1.6021)
(9.78993 -0.342751 2.66342)
(2.80095 0.0826253 0.40023)
(4.95802 0.106227 0.0373207)
(6.24211 0.129044 1.22531)
(4.33913 -0.353045 0.424684)
(6.8357 -0.444622 0.559591)
(10.1347 -0.138631 2.43836)
(5.56081 0.157791 1.08816)
(5.94256 0.122952 -2.5641)
(6.45103 0.0581573 -2.20377)
(5.38625 -0.419987 -2.70379)
(6.74674 -0.454458 -2.43027)
(8.51989 0.0337347 0.0529024)
(6.2528 0.514412 -1.35433)
(5.93036 -0.00610304 -4.6902)
(6.40729 0.041401 -5.84931)
(5.58882 -0.325196 -5.95366)
(5.93961 0.108762 -4.36022)
(6.80812 -0.130198 -3.25102)
(5.72947 0.295257 -5.80526)
(4.38223 0.032286 -4.12529)
(4.55043 0.322346 -4.5623)
(4.41764 -0.0826461 -5.55048)
(3.95496 0.814181 -2.82753)
(4.27247 -0.492204 -0.947935)
(4.08884 -0.0938559 -4.81834)
(-2.72021 0.252993 3.7147)
(-2.40515 1.10182 3.16006)
(1.2503 0.843933 -0.933665)
(-0.792028 1.57022 2.04119)
(-3.45367 -0.401548 4.10973)
(0.291393 -0.41357 0.691642)
(5.42419 -0.284899 9.07006)
(5.78842 -0.204701 9.26646)
(5.73893 -0.901201 9.33922)
(8.12188 -0.744544 9.76906)
(9.3689 -0.0480379 10.6063)
(4.74507 0.768314 9.1775)
(1.60856 0.107371 14.8416)
(2.14184 0.293595 15.0602)
(1.89146 0.518989 15.0794)
(3.13152 0.602906 12.4529)
(4.04645 -0.410426 11.2219)
(2.25092 -0.557145 12.1618)
(7.28546 -0.0102037 -1.17432)
(7.41375 -0.127297 -1.57852)
(7.4883 -0.0666316 0.315266)
(7.33 -0.000847184 -1.70331)
(7.46967 -0.276138 -2.21631)
(7.11598 -0.195414 1.78462)
(5.34727 -0.0855246 -6.28647)
(5.29986 -0.138686 -6.34906)
(5.36886 -0.221108 -6.41184)
(5.45744 -0.39362 -5.83418)
(5.58991 -0.0341052 -5.18593)
(5.28926 0.166167 -5.97979)
(5.42473 -0.135388 -4.91501)
(5.46665 -0.11232 -4.87321)
(5.42011 -0.113591 -4.90709)
(5.39936 -0.456004 -4.72828)
(5.39937 0.162123 -4.41802)
(5.23595 0.488855 -5.05379)
(3.73482 -0.243599 -2.68019)
(3.80249 -0.21401 -2.38781)
(3.76858 -0.122921 -2.60177)
(3.81897 -0.451503 -2.4795)
(4.20507 0.231427 -2.15469)
(3.75935 0.61771 -2.74206)
(2.1172 -0.318372 -0.610196)
(2.32205 -0.207428 0.283046)
(2.14581 -0.0572493 -0.207413)
(2.48058 -0.37082 -0.936766)
(3.56493 -0.0244463 -1.74944)
(2.48952 0.385424 -0.615635)
(0.0177054 -0.151423 1.40235)
(1.02965 0.0281553 2.31584)
(0.259199 -0.0277157 2.21485)
(0.974955 -0.356465 -0.477512)
(2.71657 -0.281687 -3.58853)
(1.14555 0.148129 1.56244)
(1.96473 -0.060522 -2.14555)
(1.69887 0.0590244 -1.89369)
(0.781652 -0.16707 -1.46957)
(1.71145 -0.675663 -4.10215)
(2.95039 -0.147206 -4.95504)
(1.60645 0.351485 -0.468745)
(4.26537 -0.0672195 -5.41461)
(4.45521 -0.0106081 -5.82815)
(3.99124 -0.392171 -5.92256)
(4.90139 -0.571392 -6.01285)
(5.65764 0.0257256 -6.99657)
(4.13388 0.484996 -5.85091)
(4.84611 -0.12837 -6.4418)
(4.83196 0.207768 -6.25488)
(4.48933 -0.301428 -6.6631)
(4.89254 -0.587537 -5.49339)
(5.45808 -0.125714 -4.43764)
(4.70496 0.680367 -6.35876)
(2.27663 -0.0303337 -2.01978)
(2.29674 0.667347 -2.1793)
(2.31058 0.208539 -3.22272)
(1.81809 -0.18898 -0.816388)
(-0.986698 -0.0647497 5.27087)
(2.18864 0.709616 -2.81413)
(7.96697 -0.283047 12.542)
(8.30928 -0.192495 13.0256)
(7.84406 -0.871882 13.3925)
(10.3455 -0.637752 13.2265)
(11.6378 -0.0535155 14.0418)
(6.60175 0.82338 13.2636)
(-0.0637063 0.213857 16.6799)
(0.14994 0.173077 17.1967)
(0.848109 0.588894 16.2168)
(0.563331 1.03539 15.1282)
(1.09299 -0.706344 14.4789)
(2.02975 -1.09432 12.8626)
(7.95731 0.0543832 1.83945)
(8.14373 0.0238838 1.66904)
(7.85374 0.200118 1.77093)
(7.99721 0.61016 1.60129)
(8.26156 -0.13859 1.72858)
(7.77994 -0.35857 2.14258)
(4.13834 -0.0517181 -3.63495)
(3.97418 0.0143227 -3.7174)
(4.18712 -0.151027 -3.64774)
(4.05143 -0.144371 -3.9059)
(4.13675 0.029803 -3.65613)
(4.24428 0.0379809 -3.53475)
(4.56273 -0.0429624 -4.2082)
(4.52829 -0.00939511 -4.19216)
(4.53574 0.00112225 -4.14615)
(4.54687 -0.0798503 -4.12369)
(4.50225 0.0620606 -4.07566)
(4.51557 0.0863026 -4.14729)
(2.93091 -0.0316415 -2.68887)
(2.92385 -0.0120192 -2.61101)
(2.90605 0.0579318 -2.6112)
(2.81161 0.0115171 -2.57172)
(2.73015 0.0437891 -2.48635)
(2.84852 0.0495329 -2.65294)
(2.04472 -0.0440191 -1.70434)
(2.03527 0.0325014 -1.55973)
(1.99459 0.243155 -1.61904)
(1.82406 0.2698 -1.5973)
(1.59812 0.0320622 -1.48364)
(1.91524 -0.0929275 -1.60162)
(0.549456 -0.0455617 -1.01905)
(0.510913 0.118527 -0.852648)
(0.505034 0.511308 -0.968022)
(0.559475 0.648403 -1.06968)
(0.3701 -0.00967072 -0.806438)
(0.663457 -0.287461 -0.851918)
(-0.377536 -0.114287 -0.32771)
(-0.217135 0.0845923 -0.450612)
(-0.354225 0.194113 -0.405033)
(-0.215864 0.105491 -0.46704)
(-0.305583 -0.0340634 -0.504013)
(-0.638335 -0.0726732 -0.145334)
(0.837825 -0.0186506 -1.73929)
(1.71892 -0.10652 -2.33575)
(0.100385 -0.00635766 -1.6633)
(2.33907 0.14922 -2.92234)
(3.39072 0.0881241 -4.02071)
(-0.0922418 -0.159921 -1.98207)
(4.10715 0.000841318 -6.15001)
(4.37305 -0.0718974 -6.39783)
(4.38661 -0.513711 -6.30576)
(4.59655 -0.771201 -6.13053)
(5.3104 0.0654287 -5.72255)
(4.65022 0.451616 -5.94098)
(2.81855 -0.046585 -3.84217)
(2.80101 -0.044955 -3.96658)
(2.83027 -0.359226 -4.04167)
(2.76448 -0.694497 -3.51272)
(2.84969 0.0919344 -2.83737)
(2.80153 0.543248 -3.64566)
(-2.13617 -0.00179146 20.3709)
(-2.13182 -0.000546142 20.3124)
(-2.13607 -2.74589e-05 20.3394)
(-2.13563 -0.00134773 20.3415)
(-2.13347 2.99796e-05 20.3269)
(-2.13698 0.00026347 20.353)
(0.945342 3.53199e-05 18.9331)
(0.932006 0.00038174 18.8827)
(0.936407 -0.00125802 18.9083)
(0.936862 -0.00135158 18.9079)
(0.934159 -0.000435945 18.8957)
(0.938804 -0.000560884 18.919)
(2.26283 0.000430705 12.8873)
(2.248 0.000296921 12.8672)
(2.25456 -0.00120058 12.8788)
(2.25451 -0.000924308 12.8768)
(2.25098 -0.000639362 12.8726)
(2.25686 -0.000710537 12.8821)
(-0.329182 -0.00306752 1.37238)
(-0.330691 -0.00304195 1.34319)
(-0.33427 0.000258829 1.35315)
(-0.328336 -0.00100783 1.35618)
(-0.32917 0.000214388 1.34926)
(-0.33127 0.00156085 1.36034)
(2.80673 0.00291126 6.66853)
(2.79287 0.00146104 6.61898)
(2.79844 -0.00152335 6.64468)
(2.79785 0.000187582 6.63796)
(2.79369 -0.000827893 6.62371)
(2.80013 -0.000976163 6.65008)
(3.36415 0.00399528 6.20448)
(3.35246 0.00247238 6.17794)
(3.35797 -0.00108359 6.19303)
(3.35741 0.00128519 6.18749)
(3.35382 -0.00100686 6.17991)
(3.35903 -0.00179118 6.19355)
(-5.09219 -0.000522069 -3.99459)
(-5.09943 -0.000149246 -3.99776)
(-5.09829 -7.3874e-05 -3.99626)
(-5.0958 -0.000719974 -3.998)
(-5.09795 9.68704e-05 -3.99869)
(-5.09591 0.000408707 -3.9974)
(0.158297 0.00149207 -2.31295)
(0.152055 0.000642898 -2.32496)
(0.153809 -0.000418233 -2.3175)
(0.155129 0.000566804 -2.32066)
(0.15322 -0.000386414 -2.32427)
(0.154841 -0.00048548 -2.31835)
(2.06456 0.00236657 -1.57116)
(2.05944 0.00136628 -1.57936)
(2.06235 -0.000231959 -1.57409)
(2.06113 0.00130485 -1.577)
(2.0595 -0.000323129 -1.57935)
(2.0617 -0.000838864 -1.57563)
(-4.96998 -0.000424307 -4.99986)
(-4.97853 2.05701e-06 -4.99598)
(-4.97493 0.000679524 -4.99727)
(-4.97174 0.000333064 -4.99853)
(-4.97409 -0.000187514 -4.99737)
(-4.97192 -0.000289774 -4.99924)
(0.405921 0.000526073 -4.59854)
(0.405672 0.000233567 -4.59912)
(0.405818 4.56678e-05 -4.59833)
(0.405936 0.000448393 -4.59945)
(0.406087 -9.5077e-05 -4.59949)
(0.405003 -0.000196508 -4.59933)
(0.777378 0.000615636 -4.06286)
(0.776968 0.00033488 -4.06357)
(0.777386 9.64378e-05 -4.06304)
(0.776856 0.000553995 -4.06356)
(0.776753 2.56357e-05 -4.06366)
(0.776811 -0.000143639 -4.06356)
(-5.21457 -0.00219174 -4.26835)
(-5.23075 -0.00102238 -4.25936)
(-5.22329 0.00237885 -4.26282)
(-5.21821 0.00199644 -4.26578)
(-5.22147 -0.0015152 -4.26652)
(-5.22033 -0.00249959 -4.26179)
(0.550176 -0.000713031 -4.05051)
(0.550641 -0.000404144 -4.049)
(0.550524 0.000845362 -4.04974)
(0.550623 0.000904053 -4.05014)
(0.552003 -0.000661965 -4.05003)
(0.548845 -0.0010254 -4.04987)
(0.362902 5.96093e-05 -3.92871)
(0.363373 5.90108e-05 -3.92803)
(0.363197 0.000137099 -3.92839)
(0.362931 0.000172556 -3.92858)
(0.363036 3.12107e-05 -3.92877)
(0.362915 -1.73982e-06 -3.92814)
(-6.25345 -0.00768923 -3.22828)
(-6.28962 -0.00356509 -3.2067)
(-6.2761 0.00650607 -3.2136)
(-6.25802 0.00815981 -3.22475)
(-6.26143 -0.00587215 -3.23262)
(-6.2741 -0.0115806 -3.20577)
(0.532603 -0.00341929 -2.45363)
(0.531203 -0.00182277 -2.45034)
(0.531913 0.00332348 -2.45204)
(0.533154 0.00347976 -2.45265)
(0.537352 -0.00287606 -2.45283)
(0.527823 -0.0046408 -2.45177)
(0.537492 0.000143311 -2.82131)
(0.538873 0.00011714 -2.81946)
(0.538276 -2.68922e-05 -2.82041)
(0.537876 0.000123146 -2.82111)
(0.538201 -0.000105567 -2.82222)
(0.538031 -0.000234612 -2.81932)
(-8.02927 -0.0171791 -2.42791)
(-8.11788 -0.00734661 -2.37894)
(-8.09565 0.0114673 -2.39386)
(-8.03562 0.0204105 -2.42075)
(-8.02807 -0.0139549 -2.43307)
(-8.10122 -0.0296794 -2.38531)
(-0.853689 -0.0135289 -1.50096)
(-0.86855 -0.00744818 -1.50354)
(-0.861859 0.0124007 -1.5034)
(-0.855369 0.0120617 -1.50005)
(-0.845702 -0.00929905 -1.50033)
(-0.871202 -0.0152825 -1.5038)
(1.56708 0.000247596 -0.717418)
(1.56859 0.000241719 -0.711474)
(1.56798 -0.000172594 -0.71438)
(1.56814 0.000406962 -0.716787)
(1.57093 -0.000503461 -0.719991)
(1.5653 -0.00109145 -0.711459)
(-9.98589 -0.0189704 -0.0646575)
(-10.1645 -0.00721765 0.00123978)
(-10.1282 0.00938688 -0.0201387)
(-9.99902 0.0281424 -0.051268)
(-9.94688 -0.0188779 -0.0457544)
(-10.1646 -0.0395776 -0.0317362)
(-2.80275 -0.0246793 -1.36642)
(-2.89163 -0.0142589 -1.32061)
(-2.86251 0.0202746 -1.34041)
(-2.81236 0.0188679 -1.35837)
(-2.7814 -0.0128587 -1.38718)
(-2.89343 -0.0201861 -1.31332)
(0.421714 -0.00889965 2.08567)
(0.420827 -0.00462758 2.10029)
(0.421637 0.00779697 2.09358)
(0.422215 0.00882191 2.08748)
(0.429067 -0.0083993 2.0837)
(0.414501 -0.0137811 2.0953)
(-10.9415 -0.0104282 4.38373)
(-11.177 -0.00435938 4.38158)
(-11.127 0.00577467 4.37956)
(-10.9704 0.0237651 4.39162)
(-10.8606 -0.0185099 4.43915)
(-11.1996 -0.0282901 4.33692)
(-5.69081 0.000682247 2.79458)
(-5.90543 -0.00202389 2.88254)
(-5.84031 -0.00431821 2.84164)
(-5.72088 -0.00881818 2.81818)
(-5.64363 0.00725503 2.81111)
(-5.90216 0.0218345 2.84397)
(0.499972 -0.00859493 4.77115)
(0.435349 -0.00453548 4.80466)
(0.45923 0.00472343 4.79091)
(0.493193 -0.00036456 4.77904)
(0.513779 0.00169468 4.7734)
(0.434782 0.0035987 4.79662)
(-10.4281 0.014262 6.53383)
(-10.7038 0.00716276 6.4513)
(-10.6267 -0.00950878 6.48157)
(-10.4887 -0.0112278 6.52014)
(-10.3415 0.00860574 6.57571)
(-10.7221 0.0274675 6.43691)
(-6.65679 0.026702 4.35218)
(-6.78093 0.0118712 4.29929)
(-6.74376 -0.0223492 4.31509)
(-6.69748 -0.0304367 4.36442)
(-6.67307 0.0214066 4.43547)
(-6.75936 0.0493309 4.26235)
(-2.06482 0.0146115 4.55983)
(-2.09616 0.00414601 4.55899)
(-2.08215 -0.0148738 4.56024)
(-2.08208 -0.0251335 4.5717)
(-2.09492 0.0173471 4.5894)
(-2.07492 0.0384462 4.54856)
(-11.1149 0.0371399 -0.268256)
(-11.3336 0.0191434 -0.304595)
(-11.2661 -0.0269897 -0.262782)
(-11.1799 -0.0344669 -0.286922)
(-11.1021 0.0244751 -0.293535)
(-11.297 0.0535723 -0.278471)
(-2.34292 0.0163404 -2.52096)
(-2.31261 0.004711 -2.5987)
(-2.32187 -0.00737518 -2.55936)
(-2.3639 -0.00715825 -2.5345)
(-2.4249 0.00275225 -2.49089)
(-2.27399 0.0137246 -2.58897)
(1.30516 0.00886075 -4.81968)
(1.31409 0.00350216 -4.83353)
(1.3124 -0.00721835 -4.82264)
(1.30695 -0.00655956 -4.83044)
(1.30529 0.0039448 -4.82462)
(1.31528 0.00852385 -4.82588)
(-3.46989 0.00723944 -4.73698)
(-3.47401 0.00458801 -4.77734)
(-3.47205 -0.00326206 -4.76286)
(-3.47358 -0.00230085 -4.74989)
(-3.47165 0.000651371 -4.73359)
(-3.47183 0.00237034 -4.77837)
(-1.77534 0.0119557 -11.1175)
(-1.77373 0.00594762 -11.2139)
(-1.77182 -0.0044531 -11.179)
(-1.77857 -0.00440478 -11.1438)
(-1.77953 0.00220553 -11.1013)
(-1.77061 0.008381 -11.2024)
(-0.255264 0.00632193 -5.20409)
(-0.257425 0.00327066 -5.19155)
(-0.256401 -0.00493894 -5.19104)
(-0.256224 -0.00536211 -5.20998)
(-0.256265 0.00342365 -5.22516)
(-0.255779 0.00684578 -5.17689)
(1.85049 -0.00439541 0.505254)
(1.85851 -0.00983934 0.531246)
(1.88169 0.0028587 0.518333)
(1.77796 -0.00903048 0.508158)
(1.78625 -0.00257459 0.422638)
(1.80952 0.0206609 0.45292)
(1.6914 -0.0106223 -2.99272)
(1.70711 -0.00584439 -3.03055)
(1.70029 0.00573879 -3.0178)
(1.70867 0.0134649 -2.8928)
(1.63753 0.00478912 -2.83072)
(1.7152 -0.00517294 -2.87215)
(1.25173 -0.00132403 -2.32272)
(1.26218 -0.0124063 -2.3293)
(1.26502 -0.0306355 -2.3277)
(1.25156 -0.0513448 -2.3232)
(1.18185 -0.0142016 -2.3261)
(1.25275 0.0174173 -2.33908)
(0.788518 0.000209975 -0.21307)
(0.787256 -0.000148312 -0.214934)
(0.78472 -0.00166935 -0.211969)
(0.796708 0.00197807 -0.206786)
(0.793819 -0.00137061 -0.184175)
(0.790103 -0.00514613 -0.203339)
(-0.183785 0.00253769 -1.61049)
(-0.190436 -0.00323606 -1.62089)
(-0.182881 -0.0127077 -1.65193)
(-0.19245 -0.0225975 -1.55451)
(-0.180929 -0.00836259 -1.5778)
(-0.15966 0.00993509 -1.60951)
(0.410552 0.00080088 -2.67286)
(0.408808 -0.00228494 -2.67859)
(0.40295 -0.0139011 -2.67502)
(0.395974 -0.0204214 -2.66136)
(0.379199 -0.00479221 -2.6557)
(0.378501 0.00425827 -2.68405)
(0.280696 0.00109704 0.172694)
(0.279279 0.000951884 0.171975)
(0.278666 -0.001723 0.171447)
(0.27882 -0.0023087 0.172338)
(0.279454 1.72361e-05 0.173214)
(0.276228 0.000968118 0.166849)
(0.0737664 -0.00132934 -1.61419)
(0.0735451 -0.00158562 -1.60287)
(0.0703602 0.00099936 -1.59837)
(0.0688727 -0.00164798 -1.62498)
(0.0599817 0.00829772 -1.63035)
(0.0565863 0.0124345 -1.6086)
(0.0928163 -0.00188947 -2.4092)
(0.094846 -0.00456468 -2.40976)
(0.0928838 -0.00487991 -2.40901)
(0.0843857 -0.00664978 -2.40992)
(0.0782317 -0.00434806 -2.41657)
(0.0822207 -0.00018024 -2.40001)
(-0.205683 0.000797071 0.255151)
(-0.205582 0.00106182 0.254426)
(-0.205535 -0.00190453 0.254018)
(-0.206433 -0.00186328 0.256219)
(-0.206866 0.00121969 0.259791)
(-0.206032 0.00117873 0.250462)
(-1.45822 -0.00125822 -1.2863)
(-1.45944 -0.00205156 -1.2778)
(-1.45987 -0.000661262 -1.27252)
(-1.45723 -0.00493184 -1.29292)
(-1.45618 0.000943935 -1.29937)
(-1.46177 0.00734984 -1.26883)
(-0.374092 -0.00100634 -2.70145)
(-0.375007 -0.00205768 -2.70234)
(-0.376952 -0.00232093 -2.69899)
(-0.37683 -0.00330554 -2.7061)
(-0.377144 -0.000220429 -2.71297)
(-0.383492 0.00161114 -2.68396)
(-0.389729 0.00077794 0.292205)
(-0.390382 0.00108693 0.291383)
(-0.389763 -0.00173794 0.29119)
(-0.391599 -0.00207675 0.29282)
(-0.391596 0.00143384 0.295413)
(-0.389672 0.00163708 0.288752)
(-1.88023 0.000223207 -2.16437)
(-1.88028 -0.000879062 -2.16066)
(-1.881 -0.00114589 -2.15526)
(-1.88021 -0.0048508 -2.17125)
(-1.87917 0.00132647 -2.17803)
(-1.88222 0.00729108 -2.14993)
(-0.897779 -0.00039253 -3.5183)
(-0.897965 -0.00104173 -3.52016)
(-0.899452 -0.000748141 -3.51678)
(-0.897266 -0.000737474 -3.52344)
(-0.89551 -0.000747406 -3.52925)
(-0.903657 -0.000334763 -3.50693)
(-1.66201 0.00112989 0.815982)
(-1.66522 0.00114476 0.817544)
(-1.66324 -0.00102656 0.816536)
(-1.66588 -0.00100443 0.816608)
(-1.66732 0.000278311 0.816975)
(-1.66122 0.000372396 0.815768)
(-4.39542 0.000168309 -4.72383)
(-4.40189 -0.000729673 -4.71992)
(-4.40078 0.000396323 -4.71654)
(-4.39794 -0.0016553 -4.72647)
(-4.39209 0.000394739 -4.72967)
(-4.40541 0.00406434 -4.71544)
(-1.51883 -0.000179777 -3.84255)
(-1.52385 -0.000711025 -3.84599)
(-1.52329 -0.000101962 -3.8432)
(-1.51856 0.000529359 -3.84714)
(-1.51294 -0.00106953 -3.84997)
(-1.5285 -0.00139246 -3.83841)
(8.90324 -0.237861 15.5743)
(9.146 -0.0914727 16.1394)
(8.38525 -0.628702 16.6417)
(10.4804 -0.199649 15.8085)
(11.2214 -0.249249 16.4467)
(6.84608 0.754172 17.2754)
(8.23894 -0.176133 17.7303)
(8.29849 0.0139122 18.4793)
(7.52121 -0.466004 18.7994)
(8.66204 0.0779057 18.9071)
(8.58488 -0.421181 20.5867)
(6.08773 0.625101 19.5365)
(4.35122 -0.17371 20.0043)
(4.61169 0.0786418 20.8935)
(3.8846 -0.442947 21.2731)
(4.31452 -0.0678621 19.7527)
(4.52429 -0.419201 20.998)
(2.78984 0.481765 20.4065)
(-1.01589 0.274883 15.2538)
(-1.02532 0.261868 16.2236)
(0.305712 0.761038 14.0052)
(-0.387706 1.29874 14.6689)
(0.184978 -0.424197 14.8152)
(1.89639 -0.86488 10.9266)
(-1.81828 0.248771 15.3728)
(-2.04548 0.351183 16.599)
(-0.773782 0.647601 13.6009)
(-2.08062 0.863431 15.9422)
(-2.10391 0.151326 16.5069)
(-0.0600885 -0.0391424 12.1099)
(-2.79947 -0.150222 12.0116)
(-2.94797 0.250705 12.6526)
(-2.45428 -0.262779 11.6762)
(-3.34741 -0.164403 11.2189)
(-3.45736 0.408868 10.8317)
(-2.46789 0.65572 12.4066)
(7.06371 -0.0735819 -0.59952)
(7.01393 0.338429 -0.781691)
(6.80607 0.144266 -1.65117)
(6.36892 0.263976 -0.791884)
(6.51572 0.224506 -0.399106)
(7.05521 0.155926 -1.19979)
(2.41578 -0.328729 0.749771)
(1.86134 0.576763 1.23389)
(2.19813 -0.41315 -0.0259823)
(-0.528045 -0.3427 1.42696)
(-0.352098 0.755268 1.65288)
(2.58191 0.826652 0.307402)
(-2.64032 -0.391949 -0.103842)
(-2.88852 0.313254 0.365317)
(-2.60794 -0.763504 0.522219)
(-2.3467 -0.432819 -2.46955)
(-2.76312 0.544695 -2.20673)
(-2.69843 0.780838 1.56958)
(1.62745 -0.135523 -6.70176)
(1.41779 0.0572161 -6.73772)
(1.72601 -0.217955 -6.6687)