/*--------------------------------*- C++ -*----------------------------------*\
| =========                 |                                                 |
| \\      /  F ield         | OpenFOAM: The Open Source CFD Toolbox           |
|  \\    /   O peration     | Version:  v1612+                                |
|   \\  /    A nd           | Web:      www.OpenFOAM.com                      |
|    \\/     M anipulation  |                                                 |
\*---------------------------------------------------------------------------*/
FoamFile
{
    version     2.0;
    format      ascii;
    class       volScalarField;
    location    "1.85";
    object      p;
}
// * * * * * * * * * * * * * * * * * * * * * * * * * * * * * * * * * * * * * //

dimensions      [1 -1 -2 0 0 0 0];

internalField   nonuniform List<scalar> 
1116
(
30693.6
30693.6
30693.6
30693.6
30693.6
30693.6
29312.3
29312.3
29312.3
29312.3
29312.3
29312.3
25383.9
25383.9
25383.9
25383.9
25383.9
25383.9
21065.4
21065.4
21065.4
21065.4
21065.4
21065.4
17100.3
17100.3
17100.3
17100.3
17100.3
17100.3
13747
13747
13747
13747
13747
13747
10616.5
10616.5
10616.5
10616.5
10616.5
10616.5
7583.52
7583.52
7583.5
7583.51
7583.51
7583.5
5720.56
5720.55
5720.53
5720.51
5720.49
5720.48
7771.37
7771.39
7771.34
7771.31
7771.3
7771.31
15852.9
15852.9
15852.8
15852.8
15852.7
15852.7
27163.6
27164
27164
27164.1
27164.1
27163.9
20556.1
20556.1
20556.1
20556.1
20556.1
20556.1
18171.8
18171.8
18171.8
18171.8
18171.8
18171.8
13535
13535
13535
13535
13535
13535
9210.3
9210.29
9210.28
9210.27
9210.25
9210.24
4803.84
4803.8
4803.81
4803.82
4803.81
4803.81
3089.55
3089.5
3089.51
3089.52
3089.51
3089.5
1807.66
1807.6
1807.61
1807.62
1807.63
1807.61
756.423
756.389
756.384
756.388
756.393
756.385
146.834
146.837
146.835
146.835
146.839
146.837
177.281
177.283
177.28
177.285
177.297
177.307
1320.61
1320.61
1320.63
1320.59
1320.72
1320.42
8635.31
8635.35
8635.31
8635.28
8634.76
8635.56
10536.4
10536.4
10536.4
10536.4
10536.4
10536.4
6292.52
6292.5
6292.52
6292.54
6292.54
6292.54
2705.1
2705.08
2705.09
2705.1
2705.1
2705.11
1075.56
1075.55
1075.56
1075.57
1075.57
1075.59
24.8999
24.8958
24.898
24.8998
24.8995
24.8996
-46.3711
-46.3688
-46.3678
-46.3677
-46.3676
-46.3671
-26.9813
-26.9792
-26.9779
-26.9772
-26.9766
-26.9756
7.64533
7.64509
7.6461
7.64703
7.64734
7.64743
37.1902
37.1883
37.1877
37.1872
37.1879
37.1861
63.6855
63.6845
63.6826
63.6817
63.6817
63.6797
191.731
191.743
191.748
191.757
191.775
191.78
975.342
975.354
975.33
975.382
975.196
975.325
3267.04
3267
3266.99
3267.01
3267.02
3267
249.683
249.676
249.68
249.687
249.693
249.696
-23.098
-23.0955
-23.0945
-23.0941
-23.0937
-23.0941
-35.9526
-35.9516
-35.9514
-35.9516
-35.9516
-35.9521
-15.1847
-15.184
-15.1837
-15.184
-15.1845
-15.185
-16.5338
-16.5332
-16.5331
-16.5334
-16.534
-16.5347
-24.588
-24.5877
-24.5873
-24.5872
-24.5872
-24.5872
-19.0008
-19.0006
-18.9999
-18.9994
-18.9992
-18.9987
-15.8055
-15.8058
-15.8061
-15.8067
-15.8074
-15.8077
-11.764
-11.7624
-11.7618
-11.7605
-11.7627
-11.7623
-48.2594
-48.2558
-48.2559
-48.2423
-48.2463
-48.238
35.3152
35.3132
35.3012
35.3265
35.2985
35.3595
-5.2984
-5.29841
-5.29841
-5.29841
-5.2984
-5.2984
-5.31677
-5.31678
-5.31677
-5.31676
-5.31676
-5.31675
-5.35418
-5.35417
-5.35416
-5.35416
-5.35415
-5.35415
-5.412
-5.41199
-5.41198
-5.41198
-5.41198
-5.41198
-5.49216
-5.49215
-5.49214
-5.49214
-5.49214
-5.49215
-5.59683
-5.59681
-5.59681
-5.5968
-5.59681
-5.59681
-5.728
-5.72799
-5.72798
-5.72798
-5.72798
-5.72798
-5.8871
-5.88709
-5.88708
-5.88708
-5.88709
-5.88709
-6.07359
-6.07361
-6.07361
-6.07362
-6.07363
-6.07363
-6.27791
-6.27801
-6.27806
-6.27808
-6.27806
-6.27802
-6.4693
-6.46935
-6.46939
-6.46943
-6.46946
-6.46947
-6.63481
-6.63484
-6.63486
-6.63486
-6.63486
-6.63484
-15.0901
-15.0901
-15.0901
-15.0901
-15.0901
-15.0901
-15.1085
-15.1085
-15.1085
-15.1085
-15.1085
-15.1085
-15.1463
-15.1463
-15.1463
-15.1463
-15.1463
-15.1463
-15.205
-15.205
-15.205
-15.205
-15.205
-15.205
-15.287
-15.287
-15.287
-15.287
-15.287
-15.287
-15.3949
-15.3949
-15.3949
-15.3949
-15.3949
-15.395
-15.5308
-15.5308
-15.5308
-15.5308
-15.5308
-15.5308
-15.6927
-15.6927
-15.6927
-15.6927
-15.6928
-15.6928
-15.8768
-15.8769
-15.8769
-15.8769
-15.8769
-15.877
-16.0835
-16.0835
-16.0835
-16.0835
-16.0836
-16.0837
-16.3123
-16.3123
-16.3124
-16.3125
-16.3125
-16.3126
-16.5489
-16.5489
-16.5489
-16.5489
-16.5489
-16.5488
-24.8642
-24.8642
-24.8642
-24.8642
-24.8642
-24.8642
-24.882
-24.882
-24.882
-24.882
-24.8819
-24.8819
-24.9184
-24.9184
-24.9184
-24.9184
-24.9184
-24.9184
-24.9757
-24.9757
-24.9757
-24.9757
-24.9757
-24.9757
-25.057
-25.057
-25.057
-25.057
-25.057
-25.057
-25.1669
-25.1669
-25.1669
-25.1669
-25.1669
-25.1669
-25.3121
-25.3121
-25.3122
-25.3122
-25.3122
-25.3122
-25.5049
-25.5049
-25.5049
-25.505
-25.505
-25.505
-25.7617
-25.7617
-25.7618
-25.7618
-25.7618
-25.7619
-26.0952
-26.0953
-26.0953
-26.0953
-26.0954
-26.0954
-26.4465
-26.4465
-26.4465
-26.4466
-26.4467
-26.4468
-26.8418
-26.8417
-26.8416
-26.8416
-26.8415
-26.8415
-34.6222
-34.6222
-34.6221
-34.6221
-34.6221
-34.6221
-34.6382
-34.6382
-34.6382
-34.6381
-34.6381
-34.6381
-34.6713
-34.6713
-34.6713
-34.6713
-34.6713
-34.6713
-34.724
-34.724
-34.724
-34.724
-34.724
-34.724
-34.8005
-34.8005
-34.8005
-34.8005
-34.8005
-34.8005
-34.9067
-34.9067
-34.9067
-34.9067
-34.9067
-34.9067
-35.0502
-35.0502
-35.0503
-35.0503
-35.0503
-35.0503
-35.2378
-35.2378
-35.2379
-35.2379
-35.2379
-35.2379
-35.4704
-35.4704
-35.4705
-35.4705
-35.4705
-35.4705
-35.7586
-35.7586
-35.7586
-35.7586
-35.7586
-35.7586
-36.131
-36.1309
-36.1308
-36.1307
-36.1305
-36.1304
-36.7269
-36.7268
-36.7267
-36.7266
-36.7265
-36.7265
912.969
912.925
912.925
912.952
912.945
912.882
-73.6498
-73.6548
-73.657
-73.6561
-73.6594
-73.6685
-68.7809
-68.7803
-68.7804
-68.7813
-68.7816
-68.7808
-6.02409
-6.02192
-6.02034
-6.01949
-6.01862
-6.0182
-56.9984
-56.992
-56.99
-56.9921
-56.9896
-56.9803
-70.8265
-70.8259
-70.8256
-70.8256
-70.8253
-70.8245
-46.5682
-46.5667
-46.566
-46.5655
-46.5652
-46.5652
-50.6005
-50.5998
-50.5991
-50.5987
-50.598
-50.5972
-68.8218
-68.8217
-68.8216
-68.8216
-68.8215
-68.8214
-46.5447
-46.5444
-46.5444
-46.5445
-46.5449
-46.5457
-56.3627
-56.3627
-56.3627
-56.3628
-56.363
-56.3633
-68.088
-68.088
-68.088
-68.088
-68.0879
-68.0877
-37.7199
-37.7201
-37.7205
-37.7209
-37.7214
-37.7221
-49.1815
-49.1818
-49.1818
-49.1819
-49.1821
-49.1823
-65.6223
-65.6222
-65.622
-65.6218
-65.6217
-65.6214
-42.5714
-42.5718
-42.5721
-42.5724
-42.5726
-42.5729
-52.9443
-52.9445
-52.9446
-52.9446
-52.9446
-52.9445
-66.617
-66.6169
-66.6167
-66.6165
-66.6164
-66.6163
-41.0387
-41.039
-41.0394
-41.0396
-41.0396
-41.0395
-53.6312
-53.6314
-53.6316
-53.6316
-53.6314
-53.6312
-66.7276
-66.7277
-66.7276
-66.7276
-66.7276
-66.7277
-35.8587
-35.8586
-35.8585
-35.8586
-35.8587
-35.859
-53.1692
-53.1692
-53.1692
-53.1692
-53.1692
-53.1693
-67.0652
-67.0653
-67.0654
-67.0654
-67.0653
-67.0653
-40.116
-40.1162
-40.1167
-40.1175
-40.1185
-40.1183
-58.6515
-58.6515
-58.6518
-58.6524
-58.653
-58.6539
-69.3927
-69.3927
-69.3926
-69.3924
-69.3922
-69.3923
-48.5802
-48.5797
-48.5804
-48.581
-48.5802
-48.583
-65.5382
-65.5388
-65.5399
-65.5398
-65.5359
-65.549
-69.7588
-69.7585
-69.7584
-69.758
-69.7576
-69.7591
-84.2208
-84.2186
-84.2192
-84.2103
-84.2267
-84.1902
-102.938
-102.936
-102.934
-102.928
-102.942
-102.904
-91.0337
-91.0342
-91.0349
-91.0341
-91.0401
-91.0316
-91.9281
-91.9302
-91.9353
-91.928
-91.9477
-91.899
-122.957
-122.953
-122.953
-122.951
-122.958
-122.938
-106.441
-106.444
-106.444
-106.444
-106.45
-106.427
-51.9576
-51.9575
-51.9574
-51.9574
-51.9572
-51.9572
-60.0034
-60.0035
-60.0035
-60.0033
-60.0028
-60.0024
-64.0201
-64.0201
-64.0201
-64.0202
-64.0202
-64.0204
-55.9021
-55.9021
-55.9019
-55.902
-55.9014
-55.9016
-63.7326
-63.7331
-63.7332
-63.733
-63.7317
-63.7311
-63.4787
-63.4786
-63.4787
-63.4789
-63.4787
-63.48
-59.0116
-59.0118
-59.0113
-59.0119
-59.0097
-59.012
-65.1488
-65.1491
-65.1487
-65.1493
-65.1472
-65.1498
-63.2734
-63.2734
-63.2735
-63.2741
-63.2726
-63.2773
-75.525
-75.5265
-75.5262
-75.5274
-75.5272
-75.5224
-80.3649
-80.369
-80.3655
-80.3688
-80.357
-80.3733
-65.2074
-65.2077
-65.2073
-65.2097
-65.2012
-65.2191
-71.361
-71.3607
-71.3577
-71.3615
-71.3455
-71.3689
-85.5461
-85.5507
-85.5461
-85.5492
-85.5245
-85.5666
-65.6641
-65.665
-65.6628
-65.67
-65.6479
-65.6854
-125.741
-125.744
-125.748
-125.75
-125.817
-125.698
-86.7805
-86.7781
-86.7741
-86.767
-86.7273
-86.8217
-73.7429
-73.7462
-73.7442
-73.749
-73.7365
-73.7522
-44.3504
-44.3504
-44.3504
-44.3504
-44.3504
-44.3504
-54.0834
-54.0834
-54.0834
-54.0834
-54.0834
-54.0834
-63.8095
-63.8095
-63.8095
-63.8095
-63.8095
-63.8095
-44.3632
-44.3631
-44.3631
-44.3631
-44.3631
-44.3631
-54.0916
-54.0916
-54.0916
-54.0916
-54.0916
-54.0916
-63.8124
-63.8124
-63.8124
-63.8124
-63.8124
-63.8124
-44.3897
-44.3897
-44.3897
-44.3897
-44.3897
-44.3897
-54.1087
-54.1087
-54.1087
-54.1087
-54.1087
-54.1087
-63.8185
-63.8185
-63.8185
-63.8185
-63.8185
-63.8185
-44.4325
-44.4325
-44.4325
-44.4325
-44.4325
-44.4325
-54.1367
-54.1367
-54.1367
-54.1367
-54.1367
-54.1367
-63.8285
-63.8285
-63.8285
-63.8285
-63.8285
-63.8285
-44.4962
-44.4962
-44.4962
-44.4962
-44.4962
-44.4962
-54.179
-54.179
-54.179
-54.179
-54.179
-54.179
-63.8435
-63.8435
-63.8435
-63.8435
-63.8435
-63.8435
-44.5887
-44.5887
-44.5887
-44.5887
-44.5887
-44.5887
-54.2419
-54.2419
-54.2419
-54.2419
-54.2419
-54.2419
-63.8658
-63.8658
-63.8658
-63.8658
-63.8658
-63.8658
-44.7238
-44.7238
-44.7238
-44.7238
-44.7238
-44.7238
-54.336
-54.336
-54.336
-54.336
-54.336
-54.336
-63.8983
-63.8983
-63.8983
-63.8983
-63.8983
-63.8983
-44.9322
-44.9322
-44.9323
-44.9323
-44.9323
-44.9322
-54.4829
-54.4829
-54.4829
-54.4829
-54.4829
-54.4829
-63.946
-63.946
-63.946
-63.9459
-63.9459
-63.9459
-45.2643
-45.2643
-45.2643
-45.2642
-45.2642
-45.2642
-54.7167
-54.7167
-54.7166
-54.7166
-54.7166
-54.7166
-64.0137
-64.0136
-64.0136
-64.0136
-64.0136
-64.0136
-45.8555
-45.8555
-45.8554
-45.8554
-45.8553
-45.8553
-55.1183
-55.1182
-55.1182
-55.1182
-55.1182
-55.1182
-64.1139
-64.1139
-64.1139
-64.1139
-64.1139
-64.1139
-46.874
-46.874
-46.8739
-46.8738
-46.8738
-46.8738
-55.8729
-55.8729
-55.8729
-55.8729
-55.8729
-55.8729
-64.2118
-64.2118
-64.2118
-64.2118
-64.2118
-64.2119
-48.753
-48.753
-48.753
-48.753
-48.753
-48.753
-57.2855
-57.2855
-57.2855
-57.2855
-57.2854
-57.2853
-64.279
-64.279
-64.2791
-64.2791
-64.2791
-64.2792
)
;

boundaryField
{
    seabed_topleft_surface
    {
        type            calculated;
        value           nonuniform List<scalar> 
72
(
35615.4
35615.4
35615.4
35615.4
35615.4
35615.4
34234.1
34234.1
34234.1
34234.1
34234.1
34234.1
30305.5
30305.5
30305.5
30305.5
30305.5
30305.5
25986.7
25986.7
25986.7
25986.7
25986.7
25986.7
22020
22020
22019.9
22019.9
22019.9
22019.9
18660.8
18660.8
18660.8
18660.8
18660.8
18660.8
15432.4
15432.4
15432.4
15432.4
15432.4
15432.4
12137.1
12137
12137
12137
12137
12137
9773.69
9773.6
9773.6
9773.57
9773.55
9773.55
11836.7
11836.7
11836.6
11836.6
11836.6
11836.6
19912.7
19912.6
19912.5
19912.5
19912.4
19912.4
30091.7
30092.2
30092.2
30092.3
30092.3
30092.1
)
;
    }
    seabed_topright_surface
    {
        type            calculated;
        value           nonuniform List<scalar> 
72
(
-0.376542
-0.376556
-0.376553
-0.376552
-0.376547
-0.376543
-0.394917
-0.39492
-0.394913
-0.394907
-0.394901
-0.394892
-0.432324
-0.432317
-0.432308
-0.432303
-0.432298
-0.432293
-0.490149
-0.490136
-0.490129
-0.490126
-0.490126
-0.490126
-0.570306
-0.570292
-0.570287
-0.570286
-0.570289
-0.570292
-0.674971
-0.674955
-0.67495
-0.674949
-0.674951
-0.674956
-0.806148
-0.806134
-0.806126
-0.806123
-0.806124
-0.806129
-0.965242
-0.965235
-0.965228
-0.965227
-0.965231
-0.965238
-1.15174
-1.15175
-1.15176
-1.15176
-1.15177
-1.15178
-1.35606
-1.35615
-1.35621
-1.35622
-1.3562
-1.35616
-1.54744
-1.54749
-1.54754
-1.54758
-1.54761
-1.54761
-1.71295
-1.71298
-1.713
-1.71301
-1.713
-1.71298
)
;
    }
    breakwater_top_surface
    {
        type            calculated;
        value           nonuniform List<scalar> 
36
(
-47.0526
-47.0525
-47.0524
-47.0524
-47.0522
-47.0522
-50.9971
-50.9971
-50.9969
-50.997
-50.9964
-50.9966
-54.1066
-54.1068
-54.1063
-54.1069
-54.1047
-54.107
-70.6192
-70.6206
-70.6204
-70.6215
-70.6213
-70.6165
-66.4557
-66.4553
-66.4524
-66.4562
-66.4402
-66.4636
-113.973
-113.973
-113.979
-113.98
-114.037
-113.942
)
;
    }
    breakwater_left_surface
    {
        type            calculated;
        value           nonuniform List<scalar> 
24
(
27173.7
27174
27174.1
27174.1
27174.1
27173.9
8641.98
8642.03
8641.99
8641.95
8641.43
8642.24
978.294
978.306
978.282
978.334
978.148
978.276
35.3496
35.3474
35.3355
35.3608
35.3329
35.3936
)
;
    }
    breakwater_right_surface
    {
        type            calculated;
        value           nonuniform List<scalar> 
24
(
-6.61795
-6.61798
-6.618
-6.61801
-6.618
-6.61798
-16.5324
-16.5324
-16.5324
-16.5324
-16.5324
-16.5323
-26.8256
-26.8255
-26.8255
-26.8254
-26.8253
-26.8253
-36.711
-36.711
-36.7109
-36.7108
-36.7107
-36.7106
)
;
    }
    water_front_surface
    {
        type            calculated;
        value           nonuniform List<scalar> 
186
(
30693.6
29312.3
25383.9
21065.4
17100.3
13747
10616.5
7583.52
5720.56
7771.37
15852.9
27163.6
20556.1
18171.8
13535
9210.3
4803.84
3089.55
1807.66
756.423
146.834
177.281
1320.61
8635.31
10536.4
6292.52
2705.1
1075.56
24.8999
-46.3711
-26.9813
7.64533
37.1902
63.6855
191.731
975.342
3267.04
249.683
-23.098
-35.9526
-15.1847
-16.5338
-24.588
-19.0008
-15.8055
-11.764
-48.2594
35.3152
-5.2984
-5.31677
-5.35418
-5.412
-5.49216
-5.59683
-5.728
-5.8871
-6.07359
-6.27791
-6.4693
-6.63481
-15.0901
-15.1085
-15.1463
-15.205
-15.287
-15.3949
-15.5308
-15.6927
-15.8768
-16.0835
-16.3123
-16.5489
-24.8642
-24.882
-24.9184
-24.9757
-25.057
-25.1669
-25.3121
-25.5049
-25.7617
-26.0952
-26.4465
-26.8418
-34.6222
-34.6382
-34.6713
-34.724
-34.8005
-34.9067
-35.0502
-35.2378
-35.4704
-35.7586
-36.131
-36.7269
912.969
-73.6498
-68.7809
-6.02409
-56.9984
-70.8265
-46.5682
-50.6005
-68.8218
-46.5447
-56.3627
-68.088
-37.7199
-49.1815
-65.6223
-42.5714
-52.9443
-66.617
-41.0387
-53.6312
-66.7276
-35.8587
-53.1692
-67.0652
-40.116
-58.6515
-69.3927
-48.5802
-65.5382
-69.7588
-84.2208
-102.938
-91.0337
-91.9281
-122.957
-106.441
-51.9576
-60.0034
-64.0201
-55.9021
-63.7326
-63.4787
-59.0116
-65.1488
-63.2734
-75.525
-80.3649
-65.2074
-71.361
-85.5461
-65.6641
-125.741
-86.7805
-73.7429
-44.3504
-54.0834
-63.8095
-44.3632
-54.0916
-63.8124
-44.3897
-54.1087
-63.8185
-44.4325
-54.1367
-63.8285
-44.4962
-54.179
-63.8435
-44.5887
-54.2419
-63.8658
-44.7238
-54.336
-63.8983
-44.9322
-54.4829
-63.946
-45.2643
-54.7167
-64.0137
-45.8555
-55.1183
-64.1139
-46.874
-55.8729
-64.2118
-48.753
-57.2855
-64.279
)
;
    }
    water_back_surface
    {
        type            calculated;
        value           nonuniform List<scalar> 
186
(
30693.6
29312.3
25383.9
21065.4
17100.3
13747
10616.5
7583.5
5720.48
7771.31
15852.7
27163.9
20556.1
18171.8
13535
9210.24
4803.81
3089.5
1807.61
756.385
146.837
177.307
1320.42
8635.56
10536.4
6292.54
2705.11
1075.59
24.8996
-46.3671
-26.9756
7.64743
37.1861
63.6797
191.78
975.325
3267
249.696
-23.0941
-35.9521
-15.185
-16.5347
-24.5872
-18.9987
-15.8077
-11.7623
-48.238
35.3595
-5.2984
-5.31675
-5.35415
-5.41198
-5.49215
-5.59681
-5.72798
-5.88709
-6.07363
-6.27802
-6.46947
-6.63484
-15.0901
-15.1085
-15.1463
-15.205
-15.287
-15.395
-15.5308
-15.6928
-15.877
-16.0837
-16.3126
-16.5488
-24.8642
-24.8819
-24.9184
-24.9757
-25.057
-25.1669
-25.3122
-25.505
-25.7619
-26.0954
-26.4468
-26.8415
-34.6221
-34.6381
-34.6713
-34.724
-34.8005
-34.9067
-35.0503
-35.2379
-35.4705
-35.7586
-36.1304
-36.7265
912.882
-73.6685
-68.7808
-6.0182
-56.9803
-70.8245
-46.5652
-50.5972
-68.8214
-46.5457
-56.3633
-68.0877
-37.7221
-49.1823
-65.6214
-42.5729
-52.9445
-66.6163
-41.0395
-53.6312
-66.7277
-35.859
-53.1693
-67.0653
-40.1183
-58.6539
-69.3923
-48.583
-65.549
-69.7591
-84.1902
-102.904
-91.0316
-91.899
-122.938
-106.427
-51.9572
-60.0024
-64.0204
-55.9016
-63.7311
-63.48
-59.012
-65.1498
-63.2773
-75.5224
-80.3733
-65.2191
-71.3689
-85.5666
-65.6854
-125.698
-86.8217
-73.7522
-44.3504
-54.0834
-63.8095
-44.3631
-54.0916
-63.8124
-44.3897
-54.1087
-63.8185
-44.4325
-54.1367
-63.8285
-44.4962
-54.179
-63.8435
-44.5887
-54.2419
-63.8658
-44.7238
-54.336
-63.8983
-44.9322
-54.4829
-63.9459
-45.2642
-54.7166
-64.0136
-45.8553
-55.1182
-64.1139
-46.8738
-55.8729
-64.2119
-48.753
-57.2853
-64.2792
)
;
    }
    water_left_surface
    {
        type            calculated;
        value           nonuniform List<scalar> 
42
(
30710.4
30710.4
30710.4
30710.4
30710.4
30710.4
20572.6
20572.6
20572.6
20572.6
20572.6
20572.6
10552.5
10552.5
10552.5
10552.5
10552.5
10552.6
3280.62
3280.59
3280.58
3280.6
3280.6
3280.58
912.969
912.925
912.925
912.952
912.945
912.882
-73.6498
-73.6548
-73.657
-73.6561
-73.6594
-73.6685
-68.7809
-68.7803
-68.7804
-68.7813
-68.7816
-68.7808
)
;
    }
    water_right_surface
    {
        type            calculated;
        value           nonuniform List<scalar> 
42
(
-5.28154
-5.28156
-5.28155
-5.28155
-5.28155
-5.28154
-15.0736
-15.0736
-15.0736
-15.0736
-15.0735
-15.0735
-24.848
-24.848
-24.848
-24.848
-24.848
-24.848
-34.6063
-34.6063
-34.6063
-34.6063
-34.6063
-34.6063
-44.3504
-44.3504
-44.3504
-44.3504
-44.3504
-44.3504
-54.0834
-54.0834
-54.0834
-54.0834
-54.0834
-54.0834
-63.8095
-63.8095
-63.8095
-63.8095
-63.8095
-63.8095
)
;
    }
    water_top_surface
    {
        type            calculated;
        value           nonuniform List<scalar> 
180
(
-77.1771
-77.1771
-77.1775
-77.1776
-77.1779
-77.1791
-82.7152
-82.7156
-82.7155
-82.716
-82.7166
-82.7163
-69.0306
-69.0308
-69.0308
-69.0309
-69.031
-69.0309
-72.3369
-72.3374
-72.3375
-72.3376
-72.3376
-72.3371
-72.2743
-72.2747
-72.2745
-72.2743
-72.2741
-72.2734
-72.3732
-72.3728
-72.3724
-72.3721
-72.372
-72.3717
-73.0189
-73.0185
-73.0183
-73.0183
-73.0186
-73.019
-72.7538
-72.7539
-72.7541
-72.7542
-72.7543
-72.7543
-73.4341
-73.4341
-73.4339
-73.4336
-73.433
-73.4335
-74.4311
-74.4305
-74.4297
-74.4285
-74.4277
-74.4283
-71.3532
-71.351
-71.3493
-71.3479
-71.3493
-71.3399
-69.1111
-69.1109
-69.111
-69.111
-69.111
-69.1115
-68.6718
-68.6718
-68.6718
-68.6718
-68.6718
-68.6718
-68.67
-68.67
-68.67
-68.67
-68.67
-68.67
-68.6701
-68.6701
-68.6701
-68.6701
-68.6701
-68.6701
-68.888
-68.8884
-68.8882
-68.8882
-68.8885
-68.8875
-73.6371
-73.6428
-73.6405
-73.6397
-73.6474
-73.6265
-73.8966
-73.9018
-73.8998
-73.899
-73.9026
-73.8903
-68.67
-68.67
-68.67
-68.67
-68.67
-68.67
-68.67
-68.67
-68.67
-68.67
-68.67
-68.67
-68.6701
-68.6701
-68.6701
-68.6701
-68.6701
-68.6701
-68.6701
-68.6701
-68.6701
-68.6701
-68.6701
-68.6701
-68.6701
-68.6701
-68.6701
-68.6701
-68.6701
-68.6701
-68.6702
-68.6702
-68.6702
-68.6702
-68.6702
-68.6702
-68.6703
-68.6703
-68.6703
-68.6703
-68.6703
-68.6703
-68.6706
-68.6706
-68.6706
-68.6706
-68.6706
-68.6706
-68.671
-68.671
-68.671
-68.671
-68.671
-68.671
-68.6718
-68.6718
-68.6718
-68.6718
-68.6718
-68.6718
-68.6726
-68.6726
-68.6726
-68.6726
-68.6726
-68.6726
-68.6731
-68.6731
-68.6731
-68.6731
-68.6731
-68.6731
)
;
    }
}


// ************************************************************************* //
