/*--------------------------------*- C++ -*----------------------------------*\
| =========                 |                                                 |
| \\      /  F ield         | OpenFOAM: The Open Source CFD Toolbox           |
|  \\    /   O peration     | Version:  v1612+                                |
|   \\  /    A nd           | Web:      www.OpenFOAM.com                      |
|    \\/     M anipulation  |                                                 |
\*---------------------------------------------------------------------------*/
FoamFile
{
    version     2.0;
    format      ascii;
    class       surfaceScalarField;
    location    "1.3";
    object      alphaPhi;
}
// * * * * * * * * * * * * * * * * * * * * * * * * * * * * * * * * * * * * * //

dimensions      [0 3 -1 0 0 0 0];

internalField   nonuniform List<scalar> 
2916
(
1.32467e-07
0.356316
-0.356316
3.33219e-07
0.356318
-0.356317
7.30929e-07
0.356317
-0.356317
1.36707e-06
0.356317
-0.356318
1.62372e-06
0.356317
-0.356317
0.356317
-0.356315
7.87326e-07
0.818517
-0.462202
8.46875e-07
0.81852
-0.462203
1.29411e-06
0.818519
-0.462202
1.17401e-06
0.818518
-0.462201
6.64475e-07
0.818518
-0.4622
0.818517
-0.462199
2.58205e-06
1.38317
-0.564659
4.67019e-06
1.38318
-0.564659
4.31317e-06
1.38318
-0.564656
2.5817e-06
1.38317
-0.564654
8.998e-07
1.38317
-0.564653
1.38317
-0.564652
-9.55968e-07
2.0876
-0.704409
3.82792e-06
2.0876
-0.704412
2.88981e-06
2.0876
-0.704406
7.25493e-07
2.0876
-0.704404
1.63123e-07
2.0876
-0.704406
2.08759
-0.704407
-1.56712e-05
2.87548
-0.787791
-3.07371e-06
2.87549
-0.78782
2.04722e-06
2.87549
-0.787815
3.10555e-06
2.87549
-0.787813
5.29172e-06
2.87549
-0.787815
2.87549
-0.787812
-2.85019e-05
3.45171
-0.61987
-1.00457e-05
3.45173
-0.619929
9.29891e-07
3.45173
-0.619928
4.4343e-06
3.45173
-0.619925
5.89511e-06
3.45173
-0.619924
3.45174
-0.61992
-2.26097e-05
3.36978
-0.209326
-8.93093e-06
3.36984
-0.209344
2.3702e-06
3.36984
-0.209342
7.46709e-06
3.36985
-0.209341
6.79189e-06
3.36985
-0.209341
3.36982
-0.209337
3.83622e-06
1.49479
-0.0837961
1.48153e-06
1.49497
-0.0838015
-5.41113e-06
1.49497
-0.0838017
-1.04648e-05
1.49496
-0.083802
-3.1428e-06
1.49496
-0.0838029
1.49483
-0.083803
-2.5557e-06
0.0211997
-0.00268329
-1.2153e-06
0.0212026
-0.00268603
-2.39547e-06
0.0212027
-0.00268564
-4.35485e-06
0.0212028
-0.0026855
-1.68379e-06
0.0212036
-0.00268587
0.0212005
-0.00268275
-2.56511e-07
0.00246063
0.0125359
-6.49976e-07
0.00246149
0.0125367
-7.28111e-07
0.0024613
0.0125369
-7.14964e-07
0.00246129
0.012537
1.58438e-07
0.00246141
0.0125369
0.00246034
0.0125371
1.01101e-07
0.00043945
0.00142297
1.30894e-07
0.000439732
0.0014233
1.85725e-07
0.000439665
0.00142323
2.55805e-07
0.000439651
0.00142323
2.68937e-07
0.000439711
0.0014233
0.000439413
0.00142314
-2.50055e-10
0.000112406
9.22293e-09
0.000112471
1.32486e-08
0.00011246
1.52886e-08
0.000112456
1.41511e-08
0.000112461
0.000112412
7.9911e-07
0.344624
-0.700941
6.77241e-07
0.344626
-0.700943
7.7749e-07
0.344625
-0.700942
4.66183e-07
0.344625
-0.700942
-2.14137e-07
0.344625
-0.700942
0.344624
-0.70094
3.45279e-06
0.741858
-0.859439
3.40513e-06
0.741864
-0.859441
2.60152e-06
0.741862
-0.859438
7.32943e-07
0.741862
-0.859437
-5.96841e-07
0.741863
-0.859437
0.74186
-0.859435
7.52143e-06
1.21271
-1.0355
7.78028e-06
1.21272
-1.0355
3.8425e-06
1.21272
-1.03549
1.10662e-06
1.21272
-1.03549
1.95595e-06
1.21272
-1.03549
1.21271
-1.03548
-9.86933e-08
1.8361
-1.32772
4.45677e-06
1.83612
-1.32773
2.92318e-06
1.83612
-1.32772
2.88143e-06
1.83612
-1.32772
5.17171e-06
1.83611
-1.32773
1.83611
-1.32772
-5.34283e-06
1.67188
-0.707781
5.0128e-06
1.6719
-0.707812
7.99888e-06
1.67192
-0.707816
9.12578e-06
1.67192
-0.707817
8.46252e-06
1.67192
-0.707822
1.67193
-0.707829
-2.6985e-06
0.44344
-0.150113
4.30905e-06
0.443454
-0.150124
7.11148e-06
0.443463
-0.150125
7.78753e-06
0.443467
-0.150126
6.20051e-06
0.443463
-0.150127
0.44347
-0.150129
6.10076e-07
0.091359
-0.0053296
3.07985e-07
0.0913654
-0.00533083
1.94805e-07
0.0913658
-0.00533092
1.3976e-07
0.0913662
-0.00533095
4.60043e-08
0.0913669
-0.00533105
0.0913674
-0.00533135
-1.71709e-07
0.00811044
-0.000525343
-2.69502e-07
0.00811146
-0.000525511
-2.17926e-07
0.00811147
-0.000525481
-9.48584e-08
0.00811145
-0.00052548
-1.48338e-07
0.00811157
-0.000525549
0.00811175
-0.000525574
-8.26208e-07
0.033358
-9.82592e-06
-9.89439e-07
0.03336
-9.57416e-06
-1.20001e-06
0.0333594
-9.58605e-06
-1.37677e-06
0.0333591
-9.53802e-06
-1.4265e-06
0.0333595
-9.36691e-06
0.0333565
-9.63837e-06
-7.66028e-08
0.0127757
0.00373745
-1.17918e-06
0.0127786
0.00373686
-1.24592e-06
0.0127777
0.00373684
-1.09141e-06
0.0127776
0.00373677
-1.22601e-06
0.0127784
0.00373658
0.0127746
0.0037373
1.15819e-07
-3.84202e-05
0.00262178
1.44781e-07
-3.84036e-05
0.0026227
1.15579e-07
-3.84129e-05
0.00262246
7.12759e-08
-3.84127e-05
0.00262248
7.84952e-08
-3.83911e-05
0.00262293
-3.84237e-05
0.00262174
-1.88484e-09
3.17218e-05
8.39793e-09
3.17495e-05
1.21769e-08
3.17445e-05
1.17221e-08
3.1745e-05
1.19284e-08
3.17553e-05
3.17264e-05
4.54516e-06
0.245508
-0.946453
5.12519e-06
0.245513
-0.946456
5.09806e-06
0.245513
-0.946454
3.85244e-06
0.245513
-0.946453
1.52008e-06
0.245513
-0.946452
0.245512
-0.94645
1.08886e-05
0.462237
-1.07616
1.06131e-05
0.462251
-1.07616
7.31574e-06
0.462253
-1.07615
4.79394e-06
0.462253
-1.07615
4.25013e-06
0.462253
-1.07615
0.462249
-1.07615
1.16495e-05
0.887729
-1.32406
9.50323e-06
0.887755
-1.32407
5.43324e-06
0.887757
-1.32406
5.1629e-06
0.887756
-1.32406
7.51536e-06
0.887754
-1.32407
0.887752
-1.32406
8.20518e-06
0.564572
-0.307126
1.07223e-05
0.564599
-0.30714
1.15401e-05
0.564605
-0.30714
1.19396e-05
0.564606
-0.307141
8.73744e-06
0.56461
-0.307142
0.564623
-0.30715
4.293e-06
0.155395
-0.0181462
5.4871e-06
0.155407
-0.0181485
5.85458e-06
0.155409
-0.0181487
5.86624e-06
0.155409
-0.0181487
3.56571e-06
0.15541
-0.018149
0.155413
-0.0181502
3.73681e-07
0.00587188
-0.000552813
3.70718e-07
0.00587324
-0.000552985
3.93203e-07
0.00587334
-0.000552987
4.43912e-07
0.00587337
-0.000552992
3.62148e-07
0.00587352
-0.000553013
0.00587387
-0.00055304
1.59039e-08
0.000544932
-2.3622e-06
-1.83233e-08
0.000545116
-2.36386e-06
-1.49035e-08
0.000545075
-2.36341e-06
-4.79779e-09
0.000545071
-2.36342e-06
-1.3858e-08
0.000545148
-2.36392e-06
0.000545169
-2.36415e-06
-2.04955e-11
4.22128e-05
-1.38292e-05
-1.73568e-09
4.22341e-05
-1.3831e-05
-2.40412e-09
4.22206e-05
-1.38301e-05
-2.15455e-09
4.22159e-05
-1.38295e-05
-2.75341e-09
4.22255e-05
-1.38299e-05
4.22178e-05
-1.383e-05
-6.93898e-08
0.000454501
-0.000132428
-7.05405e-08
0.000454728
-0.000132406
-8.57557e-08
0.000454563
-0.000132393
-1.14827e-07
0.000454537
-0.00013238
-1.33338e-07
0.000454777
-0.000132356
0.00045448
-0.000132341
7.40197e-08
7.14964e-05
0.000125422
2.33042e-08
7.18113e-05
0.000125389
-9.50872e-09
7.16542e-05
0.000125378
-1.01472e-07
7.16717e-05
0.000125368
-2.44526e-07
7.19739e-05
0.00012535
7.15378e-05
0.000125363
2.43616e-08
-4.80465e-06
-3.08851e-05
4.57356e-08
-4.79662e-06
-3.08523e-05
4.62762e-08
-4.79894e-06
-3.08519e-05
3.47986e-08
-4.79917e-06
-3.08572e-05
2.25187e-08
-4.79476e-06
-3.08722e-05
-4.8006e-06
-3.09131e-05
-3.50136e-10
2.3699e-06
-1.74279e-10
2.37274e-06
-3.36629e-11
2.3723e-06
5.37841e-11
2.37247e-06
2.30958e-10
2.37376e-06
2.3711e-06
1.38431e-05
-0.0126029
-0.933842
1.1263e-05
-0.0125922
-0.933839
8.4839e-06
-0.0125905
-0.933839
5.73294e-06
-0.01259
-0.933838
4.26341e-06
-0.0125901
-0.933839
-0.0125858
-0.933838
1.14809e-05
0.278197
-1.11963
6.92774e-06
0.278222
-1.11964
2.76925e-06
0.278224
-1.11964
2.40212e-07
0.278224
-1.11964
3.19761e-06
0.278222
-1.11964
0.278229
-1.11964
2.45448e-06
0.323501
-0.186299
1.67002e-06
0.323515
-0.186302
2.41121e-06
0.323516
-0.186301
1.21272e-06
0.323516
-0.186301
-1.44929e-06
0.323517
-0.186301
0.323527
-0.186304
6.97656e-07
0.0186002
-0.00201563
7.12388e-07
0.0186026
-0.00201611
7.26321e-07
0.0186028
-0.00201604
7.07499e-07
0.0186029
-0.00201606
3.92596e-07
0.0186031
-0.00201609
0.0186043
-0.00201631
4.14521e-08
0.000554312
-9.61541e-05
4.82907e-08
0.000554486
-9.61759e-05
4.11275e-08
0.000554488
-9.61735e-05
2.90869e-08
0.000554493
-9.61734e-05
8.42948e-09
0.000554515
-9.61766e-05
0.000554542
-9.61812e-05
-4.14479e-11
1.52451e-06
-1.70452e-08
-3.90274e-10
1.52616e-06
-1.70504e-08
3.72933e-11
1.52573e-06
-1.70471e-08
3.88079e-10
1.52592e-06
-1.70435e-08
1.35457e-11
1.52695e-06
-1.704e-08
1.52735e-06
-1.70329e-08
-9.74295e-13
-8.83599e-07
-6.65121e-09
2.88076e-13
-8.83624e-07
-6.65254e-09
3.30908e-12
-8.83597e-07
-6.65142e-09
6.05055e-12
-8.83416e-07
-6.65006e-09
2.87741e-12
-8.82856e-07
-6.65256e-09
-8.8266e-07
-6.65889e-09
4.59405e-11
-9.1064e-07
-2.07922e-07
1.00518e-10
-9.11106e-07
-2.07777e-07
8.14048e-11
-9.11105e-07
-2.07784e-07
3.25585e-12
-9.10999e-07
-2.07775e-07
-1.85401e-10
-9.10675e-07
-2.07783e-07
-9.10561e-07
-2.0794e-07
1.46693e-09
-0.000131799
-5.1077e-06
9.13619e-10
-0.000131794
-5.10694e-06
4.84537e-10
-0.000131784
-5.10605e-06
-9.65622e-11
-0.000131777
-5.10537e-06
-1.25653e-09
-0.000131764
-5.10429e-06
-0.000131756
-5.10269e-06
1.38047e-08
-1.93603e-05
5.18319e-06
1.20413e-08
-1.93696e-05
5.1821e-06
7.35745e-09
-1.93672e-05
5.18134e-06
1.62506e-09
-1.93683e-05
5.18103e-06
-4.54126e-09
-1.93746e-05
5.18086e-06
-1.9364e-05
5.1799e-06
3.21129e-10
-1.11459e-06
7.01447e-07
-2.21031e-10
-1.11457e-06
7.01836e-07
-9.00596e-10
-1.11449e-06
7.0178e-07
-1.22963e-09
-1.11448e-06
7.01873e-07
-7.20235e-10
-1.11452e-06
7.02206e-07
-1.11434e-06
7.01813e-07
-1.49139e-11
3.53368e-08
-2.07046e-11
3.5351e-08
-2.37309e-11
3.53501e-08
-2.21555e-11
3.53563e-08
-1.22749e-11
3.53745e-08
3.53602e-08
-1.64446e-80
-1.29637e-72
4.09447e-77
-3.48345e-81
-1.29778e-72
4.09919e-77
1.20162e-81
-1.29784e-72
4.09947e-77
3.60935e-81
-1.29796e-72
4.09984e-77
3.86938e-81
-1.29827e-72
4.10083e-77
-1.29696e-72
4.0968e-77
-2.79222e-76
-4.02794e-68
1.34655e-72
1.84255e-77
-4.03253e-68
1.34814e-72
1.41048e-76
-4.03286e-68
1.34826e-72
2.15094e-76
-4.03332e-68
1.34841e-72
2.71366e-76
-4.03443e-68
1.34878e-72
-4.03062e-68
1.34753e-72
-7.62733e-73
-6.01851e-64
2.19753e-68
1.56875e-72
-6.02548e-64
2.20012e-68
2.9268e-72
-6.02608e-64
2.20031e-68
3.68151e-72
-6.02684e-64
2.20058e-68
4.10255e-72
-6.02859e-64
2.20121e-68
-6.02301e-64
2.19918e-68
2.56247e-68
-5.69759e-60
2.31551e-64
2.83214e-68
-5.70428e-60
2.31824e-64
2.90457e-68
-5.70485e-60
2.31844e-64
2.80741e-68
-5.70562e-60
2.31874e-64
2.65095e-68
-5.70734e-60
2.31942e-64
-5.70211e-60
2.31729e-64
1.94774e-64
-3.80985e-56
1.72725e-60
1.20656e-64
-3.81437e-56
1.72926e-60
7.03031e-65
-3.81474e-56
1.72942e-60
4.10299e-65
-3.81525e-56
1.72964e-60
1.59492e-65
-3.81641e-56
1.73015e-60
-3.81294e-56
1.72855e-60
2.53071e-61
-1.90986e-52
9.47403e-57
-3.22584e-61
-1.9121e-52
9.48498e-57
-5.98584e-61
-1.91227e-52
9.48585e-57
-7.49322e-61
-1.91252e-52
9.48703e-57
-7.58305e-61
-1.91311e-52
9.48987e-57
-1.91137e-52
9.48114e-57
-6.39144e-57
-7.481e-49
3.88797e-53
-5.78506e-57
-7.48966e-49
3.89247e-53
-6.73745e-57
-7.49023e-49
3.89285e-53
-6.32942e-57
-7.49118e-49
3.89332e-53
-5.01216e-57
-7.49347e-49
3.89451e-53
-7.48673e-49
3.89098e-53
-5.20322e-53
-2.37167e-45
1.16027e-49
-3.25134e-53
-2.37437e-45
1.16158e-49
-2.32363e-53
-2.37453e-45
1.1617e-49
-1.45445e-53
-2.37483e-45
1.16186e-49
-5.70914e-54
-2.37557e-45
1.16224e-49
-2.37346e-45
1.16123e-49
-1.43512e-49
-6.3288e-42
1.74722e-46
-4.55292e-50
-6.33583e-42
1.74932e-46
9.04689e-52
-6.33625e-42
1.74962e-46
3.5632e-50
-6.33708e-42
1.74996e-46
5.90135e-50
-6.33917e-42
1.75067e-46
-6.33365e-42
1.74931e-46
-1.65427e-46
-1.33727e-38
-1.88729e-39
9.61406e-47
-1.33877e-38
-1.8888e-39
2.38148e-46
-1.33888e-38
-1.88866e-39
3.1133e-46
-1.33909e-38
-1.88871e-39
3.33075e-46
-1.33958e-38
-1.8892e-39
-1.33845e-38
-1.88744e-39
1.91162e-43
-1.67486e-35
-1.66022e-35
7.81998e-43
-1.67681e-35
-1.66196e-35
9.9484e-43
-1.67699e-35
-1.66205e-35
1.05191e-42
-1.67729e-35
-1.66231e-35
9.4876e-43
-1.67794e-35
-1.66293e-35
-1.67657e-35
-1.66156e-35
6.27024e-40
-5.65468e-32
1.15863e-39
-5.66127e-32
1.38833e-39
-5.66183e-32
1.43741e-39
-5.66286e-32
1.24174e-39
-5.66509e-32
-5.66049e-32
-7.44085e-77
-7.72268e-69
4.90051e-73
-6.61911e-78
-7.73129e-69
4.90607e-73
2.13921e-77
-7.73171e-69
4.90634e-73
3.78898e-77
-7.73235e-69
4.9067e-73
5.02702e-77
-7.73418e-69
4.90779e-73
-7.72658e-69
4.90282e-73
-1.1493e-72
-2.38144e-64
1.60672e-68
3.19882e-73
-2.38419e-64
1.60859e-68
1.05261e-72
-2.38439e-64
1.60871e-68
1.61264e-72
-2.38464e-64
1.60886e-68
2.24664e-72
-2.38529e-64
1.60927e-68
-2.38306e-64
1.60772e-68
-4.3304e-70
-3.51479e-60
2.60963e-64
1.36065e-68
-3.5189e-60
2.61267e-64
1.91403e-68
-3.51922e-60
2.61288e-64
2.34099e-68
-3.51963e-60
2.61316e-64
2.81736e-68
-3.52064e-60
2.61387e-64
-3.51741e-60
2.61141e-64
9.10919e-65
-3.26367e-56
2.7235e-60
1.22302e-64
-3.26752e-56
2.72669e-60
1.22855e-64
-3.26782e-56
2.72692e-60
1.25423e-64
-3.26822e-56
2.72723e-60
1.22382e-64
-3.26917e-56
2.72799e-60
-3.26619e-56
2.72546e-60
4.1602e-61
-2.12135e-52
1.99649e-56
8.54242e-62
-2.12386e-52
1.99882e-56
-9.0775e-62
-2.12403e-52
1.99899e-56
-2.37096e-61
-2.12429e-52
1.99923e-56
-4.22679e-61
-2.12491e-52
1.9998e-56
-2.12298e-52
1.99797e-56
-3.29389e-57
-1.0229e-48
1.06126e-52
-5.41875e-57
-1.02409e-48
1.0625e-52
-6.3598e-57
-1.02416e-48
1.06258e-52
-6.92875e-57
-1.02428e-48
1.06271e-52
-6.76187e-57
-1.02459e-48
1.06302e-52
-1.02366e-48
1.06206e-52
-5.38226e-53
-3.81684e-45
4.08062e-49
-4.53921e-53
-3.8212e-45
4.08526e-49
-3.74558e-53
-3.82143e-45
4.08557e-49
-2.93459e-53
-3.82186e-45
4.08606e-49
-1.74702e-53
-3.82302e-45
4.08731e-49
-3.8196e-45
4.08365e-49
-1.5082e-49
-1.15214e-41
1.08723e-45
-8.62012e-50
-1.15342e-41
1.08846e-45
-5.44035e-50
-1.15348e-41
1.08854e-45
-6.78846e-51
-1.15362e-41
1.08868e-45
5.3036e-50
-1.15399e-41
1.08903e-45
-1.15298e-41
1.08809e-45
1.19886e-47
-2.97664e-38
1.65548e-42
2.95005e-46
-2.97988e-38
1.65747e-42
4.45472e-46
-2.98003e-38
1.65764e-42
5.63054e-46
-2.98041e-38
1.6579e-42
6.76883e-46
-2.98144e-38
1.65849e-42
-2.97891e-38
1.6571e-42
1.48635e-42
-6.18067e-35
-7.79335e-36
2.27284e-42
-6.18759e-35
-7.79915e-36
2.57569e-42
-6.18806e-35
-7.79837e-36
2.64216e-42
-6.18904e-35
-7.79875e-36
2.50192e-42
-6.19139e-35
-7.80113e-36
-6.18633e-35
-7.7946e-36
5.15702e-39
-6.24237e-32
-7.90553e-32
5.67436e-39
-6.24958e-32
-7.91408e-32
5.64351e-39
-6.25012e-32
-7.91463e-32
4.95282e-39
-6.25119e-32
-7.91597e-32
3.77835e-39
-6.25363e-32
-7.91915e-32
-6.24856e-32
-7.91292e-32
4.53097e-36
-1.87298e-28
3.43803e-36
-1.87515e-28
3.12735e-36
-1.8753e-28
2.68869e-36
-1.87562e-28
1.65204e-36
-1.87636e-28
-1.87483e-28
-4.03564e-73
-5.60289e-65
5.22408e-69
1.72941e-74
-5.60899e-65
5.22982e-69
2.10174e-73
-5.60949e-65
5.23024e-69
3.23687e-73
-5.61014e-65
5.23079e-69
4.03829e-73
-5.61178e-65
5.23223e-69
-5.60668e-65
5.22734e-69
-5.48167e-69
-1.80964e-60
1.80425e-64
5.45595e-69
-1.81168e-60
1.80629e-64
9.84003e-69
-1.81186e-60
1.80646e-64
1.35677e-68
-1.81212e-60
1.80669e-64
1.7573e-68
-1.8127e-60
1.80724e-64
-1.81113e-60
1.80563e-64
1.38119e-65
-2.77785e-56
3.08191e-60
1.14803e-64
-2.78101e-56
3.08542e-60
1.57043e-64
-2.78131e-56
3.08573e-60
1.89295e-64
-2.78172e-56
3.08615e-60
2.20969e-64
-2.78264e-56
3.08712e-60
-2.78026e-56
3.08442e-60
2.59693e-61
-2.6506e-52
3.36223e-56
6.67972e-61
-2.65365e-52
3.36607e-56
7.87705e-61
-2.65392e-52
3.36642e-56
8.66966e-61
-2.65432e-52
3.36689e-56
9.26709e-61
-2.6552e-52
3.36799e-56
-2.65292e-52
3.36508e-56
-2.88269e-57
-1.73847e-48
2.5505e-52
-2.96446e-57
-1.74047e-48
2.55342e-52
-3.27247e-57
-1.74063e-48
2.55367e-52
-3.43384e-57
-1.74088e-48
2.55404e-52
-3.37574e-57
-1.74146e-48
2.55488e-52
-1.73996e-48
2.55269e-52
-6.27949e-53
-8.23671e-45
1.38946e-48
-5.83259e-53
-8.24608e-45
1.39104e-48
-5.72751e-53
-8.24676e-45
1.39117e-48
-5.15477e-53
-8.24789e-45
1.39137e-48
-3.91224e-53
-8.25065e-45
1.39184e-48
-8.24356e-45
1.39064e-48
-2.93918e-49
-2.89665e-41
5.50251e-45
-2.15857e-49
-2.8999e-41
5.50873e-45
-1.69967e-49
-2.90012e-41
5.50921e-45
-1.0382e-49
-2.90052e-41
5.50999e-45
-7.64327e-51
-2.90151e-41
5.51186e-45
-2.89905e-41
5.50718e-45
-1.81012e-46
-7.63913e-38
1.5496e-41
2.13895e-46
-7.64763e-38
1.55135e-41
4.60209e-46
-7.64819e-38
1.55147e-41
7.07587e-46
-7.64931e-38
1.5517e-41
9.69374e-46
-7.65206e-38
1.55225e-41
-7.6457e-38
1.55096e-41
3.0972e-42
-1.51448e-34
2.59947e-38
3.7309e-42
-1.51616e-34
2.60246e-38
4.08599e-42
-1.51628e-34
2.6027e-38
4.16123e-42
-1.51651e-34
2.60311e-38
3.88855e-42
-1.51709e-34
2.60408e-38
-1.51585e-34
2.60195e-38
1.10442e-38
-2.35347e-31
9.08944e-37
9.03138e-39
-2.35609e-31
9.12265e-37
8.05539e-39
-2.35626e-31
9.1302e-37
6.551e-39
-2.35665e-31
9.13398e-37
4.52914e-39
-2.35757e-31
9.13417e-37
-2.35567e-31
9.1207e-37
1.33266e-35
-1.73432e-28
-1.58818e-28
6.2303e-36
-1.73631e-28
-1.58988e-28
3.14765e-36
-1.73644e-28
-1.58997e-28
2.78776e-37
-1.73672e-28
-1.59025e-28
-2.71982e-36
-1.73739e-28
-1.59091e-28
-1.73598e-28
-1.58965e-28
-4.64643e-33
-2.89041e-25
-8.46647e-33
-2.89366e-25
-6.23977e-33
-2.89383e-25
-4.66505e-33
-2.89429e-25
-4.91887e-33
-2.8954e-25
-2.893e-25
-3.35076e-70
-6.60513e-62
8.04752e-66
7.8711e-71
-6.61198e-62
8.05591e-66
2.68165e-70
-6.61249e-62
8.05644e-66
3.79187e-70
-6.61331e-62
8.05736e-66
4.53485e-70
-6.61539e-62
8.05975e-66
-6.60956e-62
8.05245e-66
-3.94715e-66
-2.32167e-57
3.04954e-61
8.03417e-66
-2.32416e-57
3.05281e-61
1.26677e-65
-2.32436e-57
3.05304e-61
1.66689e-65
-2.3247e-57
3.05345e-61
2.06458e-65
-2.32549e-57
3.05443e-61
-2.32352e-57
3.05179e-61
2.37019e-63
-3.83607e-53
5.69268e-57
1.33992e-61
-3.84021e-53
5.69883e-57
1.90943e-61
-3.84055e-53
5.69929e-57
2.30588e-61
-3.84113e-53
5.7001e-57
2.7037e-61
-3.84246e-53
5.70201e-57
-3.83923e-53
5.69713e-57
-4.43123e-58
-3.8694e-49
6.71852e-53
4.00737e-58
-3.87361e-49
6.7258e-53
7.24839e-58
-3.87392e-49
6.72635e-53
9.53836e-58
-3.8745e-49
6.72733e-53
1.19826e-57
-3.87585e-49
6.72963e-53
-3.87258e-49
6.72391e-53
-1.18872e-53
-2.6129e-45
5.41309e-49
-7.69841e-54
-2.61572e-45
5.41895e-49
-6.13528e-54
-2.61591e-45
5.41937e-49
-4.44581e-54
-2.61629e-45
5.42016e-49
-1.76961e-54
-2.6172e-45
5.42204e-49
-2.61499e-45
5.41746e-49
-1.14506e-49
-1.23168e-41
3.03799e-45
-7.55096e-50
-1.233e-41
3.04126e-45
-5.75814e-50
-1.23308e-41
3.04148e-45
-3.62341e-50
-1.23325e-41
3.04193e-45
-4.33408e-51
-1.23369e-41
3.043e-45
-1.23265e-41
3.04044e-45
-3.17393e-46
-4.16452e-38
1.18811e-41
-7.41873e-47
-4.16894e-38
1.18939e-41
5.08914e-47
-4.16918e-38
1.18947e-41
1.76868e-46
-4.1698e-38
1.18965e-41
3.08778e-46
-4.17134e-38
1.19008e-41
-4.16789e-38
1.18909e-41
9.08203e-43
-1.04219e-34
3.1907e-38
1.40416e-42
-1.0433e-34
3.19413e-38
1.62993e-42
-1.04336e-34
3.19433e-38
1.77585e-42
-1.04352e-34
3.19483e-38
1.77761e-42
-1.04393e-34
3.19603e-38
-1.04308e-34
3.1934e-38
8.06964e-39
-2.0219e-31
5.49245e-35
6.36771e-39
-2.02405e-31
5.49842e-35
5.72157e-39
-2.02418e-31
5.49879e-35
4.71365e-39
-2.02452e-31
5.49968e-35
3.10988e-39
-2.02533e-31
5.50181e-35
-2.0237e-31
5.49731e-35
1.64317e-35
-3.18875e-28
3.42421e-32
8.20062e-36
-3.19215e-28
3.42805e-32
4.39404e-36
-3.19233e-28
3.42827e-32
5.82847e-37
-3.19287e-28
3.42882e-32
-3.49652e-36
-3.19416e-28
3.43012e-32
-3.19159e-28
3.42721e-32
1.25234e-32
-1.44886e-25
-2.71769e-25
-4.2387e-33
-1.45044e-25
-2.72051e-25
-1.15922e-32
-1.45051e-25
-2.72062e-25
-1.6263e-32
-1.45075e-25
-2.72107e-25
-1.9885e-32
-1.45132e-25
-2.72216e-25
-1.45013e-25
-2.71996e-25
-3.9785e-30
-2.26849e-22
-1.15068e-29
-2.27087e-22
-1.29983e-29
-2.27094e-22
-1.37274e-29
-2.27128e-22
-1.4745e-29
-2.27215e-22
-2.27024e-22
4.93491e-06
-0.544628
-0.276161
6.67719e-06
-0.54463
-0.276158
5.0342e-06
-0.544627
-0.276157
3.19416e-06
-0.544626
-0.276157
5.35585e-06
-0.544626
-0.276161
-0.544632
-0.276152
8.31365e-06
0.424765
-2.98233e-08
7.07601e-06
0.424774
-2.98203e-08
5.61107e-06
0.424774
-2.98221e-08
9.06228e-06
0.424772
-2.98199e-08
1.3638e-05
0.424771
-2.98149e-08
0.424782
-2.98005e-08
3.10696e-06
-1.41849e-08
3.43173e-06
-1.42255e-08
2.98796e-06
-1.42353e-08
4.09901e-06
-1.42242e-08
5.07505e-06
-1.42204e-08
-1.42242e-08
-1.42133e-06
-2.25602e-08
0.188272
-9.93167e-07
-2.2558e-08
0.188275
8.94452e-07
-2.25593e-08
0.188274
-1.6256e-06
-2.25576e-08
0.188275
-9.30806e-06
-2.25537e-08
0.188274
-2.25433e-08
0.188278
-2.67071e-16
-9.52412e-10
-5.09339e-08
1.17904e-14
-9.55138e-10
-5.09255e-08
4.8759e-14
-9.55797e-10
-5.09281e-08
4.52722e-14
-9.55043e-10
-5.0925e-08
-3.35736e-15
-9.54783e-10
-5.09165e-08
-9.55037e-10
-5.08919e-08
-5.88566e-15
-1.51373e-08
-8.13376e-15
-1.51807e-08
-1.31979e-14
-1.51911e-08
-1.53743e-14
-1.51792e-08
-9.89834e-15
-1.51752e-08
-1.51792e-08
1.44512e-07
-2.60941e-06
0.00195099
1.93214e-08
-2.60908e-06
0.00195147
7.12355e-08
-2.6092e-06
0.00195141
1.19808e-07
-2.60905e-06
0.00195142
9.99761e-08
-2.60865e-06
0.00195145
-2.60734e-06
0.00195168
2.01231e-13
-9.44943e-08
-2.57087e-06
6.57141e-13
-9.46417e-08
-2.57038e-06
1.33286e-12
-9.46769e-08
-2.57047e-06
2.91668e-12
-9.46332e-08
-2.57035e-06
4.79458e-12
-9.46127e-08
-2.56997e-06
-9.45987e-08
-2.56864e-06
5.02852e-14
-1.09633e-07
1.14182e-13
-1.09823e-07
8.31271e-14
-1.09869e-07
4.19024e-15
-1.09813e-07
1.99223e-14
-1.09789e-07
-1.09779e-07
8.09037e-09
-7.69291e-05
1.53221e-05
7.62896e-09
-7.69405e-05
1.5338e-05
6.22538e-09
-7.69381e-05
1.53384e-05
4.87614e-09
-7.69385e-05
1.53391e-05
3.67443e-09
-7.69382e-05
1.53406e-05
-7.69345e-05
1.53446e-05
1.97176e-10
-2.03338e-06
-0.00010115
2.72089e-10
-2.0361e-06
-0.000101153
1.83765e-10
-2.03675e-06
-0.000101155
1.03544e-10
-2.03595e-06
-0.000101155
1.15738e-10
-2.03565e-06
-0.000101154
-2.03549e-06
-0.000101149
3.79239e-12
-1.37808e-06
1.73286e-12
-1.38034e-06
8.09357e-13
-1.3812e-06
5.59347e-13
-1.38056e-06
1.9494e-12
-1.38037e-06
-1.38087e-06
4.49533e-11
-8.08482e-05
-1.00465e-09
1.40752e-11
-8.0854e-05
-1.00461e-09
-1.69283e-11
-8.08511e-05
-1.00447e-09
-7.71437e-11
-8.08503e-05
-1.00428e-09
-1.43151e-10
-8.08519e-05
-1.00394e-09
-8.08527e-05
-1.00349e-09
2.26196e-09
-6.40111e-06
-4.0466e-11
-9.65587e-11
-6.40326e-06
-4.05134e-11
-9.62073e-10
-6.40219e-06
-4.05173e-11
-1.49681e-09
-6.40134e-06
-4.0523e-11
-2.13646e-09
-6.40132e-06
-4.0517e-11
-6.40009e-06
-4.04711e-11
-1.50723e-11
-3.80508e-14
-1.70216e-11
-3.80838e-14
-1.76965e-11
-3.80808e-14
-7.99585e-12
-3.80753e-14
2.02396e-11
-3.80669e-14
-3.80225e-14
-4.5873e-14
2.65445e-11
-1.80138e-08
-4.32908e-14
2.6581e-11
-1.8019e-08
-1.5218e-14
2.65868e-11
-1.80156e-08
8.9699e-15
2.65952e-11
-1.80118e-08
1.24563e-14
2.65931e-11
-1.8008e-08
2.65529e-11
-1.80004e-08
-3.65519e-17
-2.84338e-16
-1.40419e-11
-4.42688e-17
-2.84549e-16
-1.4053e-11
-2.70994e-17
-2.84513e-16
-1.40512e-11
-5.64007e-18
-2.84448e-16
-1.40485e-11
1.11622e-17
-2.84366e-16
-1.40446e-11
-2.84044e-16
-1.40285e-11
-1.02811e-20
-3.83351e-14
-9.49405e-21
-3.83684e-14
-1.28623e-20
-3.83653e-14
-1.0788e-20
-3.83598e-14
1.54334e-21
-3.83513e-14
-3.83066e-14
1.93747e-13
-2.70434e-10
-8.74042e-08
1.12876e-12
-2.70544e-10
-8.74317e-08
1.66755e-12
-2.70475e-10
-8.74142e-08
1.87646e-12
-2.70387e-10
-8.73949e-08
1.31377e-12
-2.70325e-10
-8.73696e-08
-2.70247e-10
-8.7326e-08
-1.12557e-16
-4.0862e-13
-2.83346e-10
-6.60453e-17
-4.08908e-13
-2.83467e-10
3.36551e-17
-4.08798e-13
-2.83397e-10
3.37291e-16
-4.08648e-13
-2.83306e-10
5.73354e-16
-4.08478e-13
-2.83241e-10
-4.08047e-13
-2.83147e-10
-2.87283e-20
-4.46835e-13
1.03476e-19
-4.47157e-13
2.91539e-19
-4.47044e-13
5.54044e-19
-4.46888e-13
6.36245e-19
-4.4671e-13
-4.46233e-13
8.98963e-12
-1.67577e-09
-6.39991e-08
1.68132e-11
-1.67609e-09
-6.4022e-08
1.77904e-11
-1.67578e-09
-6.40137e-08
1.54531e-11
-1.67548e-09
-6.40044e-08
7.92968e-12
-1.675e-09
-6.3996e-08
-1.67397e-09
-6.39801e-08
-5.39296e-15
4.42351e-13
-2.37755e-09
2.09685e-14
4.46865e-13
-2.37842e-09
3.89381e-14
4.48145e-13
-2.378e-09
5.51852e-14
4.48616e-13
-2.37754e-09
5.76592e-14
4.49257e-13
-2.37684e-09
4.47237e-13
-2.37513e-09
-5.5316e-17
-2.37025e-11
-4.73289e-17
-2.37119e-11
-6.76822e-18
-2.37081e-11
4.97909e-17
-2.3705e-11
7.20443e-17
-2.37033e-11
-2.36875e-11
4.20376e-11
-1.00105e-07
-5.31912e-06
3.80193e-11
-1.00103e-07
-5.31871e-06
2.37113e-11
-1.00092e-07
-5.31797e-06
1.21405e-11
-1.0009e-07
-5.31756e-06
3.80422e-12
-1.00098e-07
-5.31723e-06
-1.00066e-07
-5.31592e-06
1.63325e-13
-8.30235e-10
-1.01196e-07
3.89356e-13
-8.30277e-10
-1.01196e-07
3.67614e-13
-8.30188e-10
-1.01184e-07
3.35207e-13
-8.30153e-10
-1.01182e-07
4.67455e-13
-8.30184e-10
-1.0119e-07
-8.2985e-10
-1.01155e-07
-2.55784e-15
-7.44795e-10
-1.06889e-15
-7.44923e-10
4.02368e-16
-7.44868e-10
1.53436e-15
-7.44886e-10
2.56175e-15
-7.45044e-10
-7.44762e-10
2.40623e-10
1.03522e-07
-5.49538e-07
4.2081e-11
1.0353e-07
-5.4972e-07
-2.13559e-10
1.03523e-07
-5.49651e-07
-3.60705e-10
1.03529e-07
-5.49679e-07
-2.49067e-10
1.0356e-07
-5.49834e-07
1.03529e-07
-5.49567e-07
-1.67888e-12
2.86152e-09
-8.05774e-09
-5.12057e-12
2.86179e-09
-8.06203e-09
-8.22393e-12
2.86145e-09
-8.06172e-09
-8.81749e-12
2.86129e-09
-8.06325e-09
-2.09827e-12
2.86154e-09
-8.06776e-09
2.86042e-09
-8.06327e-09
-6.33504e-14
-7.92725e-11
-7.3222e-14
-7.93189e-11
-7.04329e-14
-7.9318e-11
-5.73804e-14
-7.93347e-11
1.88455e-15
-7.93802e-11
-7.93318e-11
-3.81774e-11
1.77958e-08
-1.17592e-09
-8.40596e-11
1.78106e-08
-1.16273e-09
-1.14599e-10
1.78101e-08
-1.16316e-09
-1.16359e-10
1.78138e-08
-1.16069e-09
-6.7895e-11
1.78253e-08
-1.15329e-09
1.78116e-08
-1.16409e-09
-1.47717e-12
1.0609e-09
4.17137e-10
-2.44276e-12
1.06164e-09
4.18575e-10
-2.94668e-12
1.06161e-09
4.1851e-10
-2.83553e-12
1.0618e-09
4.18697e-10
-1.32784e-12
1.0624e-09
4.19328e-10
1.06163e-09
4.18129e-10
-1.21481e-14
7.18403e-12
-1.99725e-14
7.19313e-12
-2.47729e-14
7.19319e-12
-2.38406e-14
7.19565e-12
-8.49764e-15
7.20243e-12
7.1938e-12
-1.26857e-12
-3.99255e-10
1.94857e-10
-1.71345e-12
-4.00399e-10
1.95059e-10
-1.90854e-12
-4.00329e-10
1.95052e-10
-1.78079e-12
-4.00509e-10
1.95079e-10
-1.08129e-12
-4.01107e-10
1.9517e-10
-4.00124e-10
1.94995e-10
-3.34076e-14
2.03668e-11
-7.90065e-11
-4.95692e-14
2.03861e-11
-7.9211e-11
-5.65577e-14
2.03851e-11
-7.91983e-11
-5.24305e-14
2.03873e-11
-7.92259e-11
-2.66541e-14
2.0395e-11
-7.9325e-11
2.03778e-11
-7.91432e-11
-2.75918e-16
-5.41828e-13
-4.81351e-16
-5.42299e-13
-6.10201e-16
-5.42285e-13
-5.83922e-16
-5.42389e-13
-2.51612e-16
-5.42701e-13
-5.42241e-13
-1.54154e-25
4.00125e-20
-9.15253e-18
1.17084e-19
-7.56262e-25
4.00523e-20
-9.16178e-18
1.17201e-19
-8.44416e-25
4.00523e-20
-9.16162e-18
1.17201e-19
-6.71127e-25
4.00579e-20
-9.16284e-18
1.17217e-19
-1.96431e-25
4.00733e-20
-9.16642e-18
1.17262e-19
4.0039e-20
-9.15815e-18
1.17162e-19
-2.52187e-26
5.88816e-21
-7.00509e-19
7.36191e-21
-5.9745e-26
5.89427e-21
-7.01236e-19
7.36957e-21
-5.96921e-26
5.89441e-21
-7.01244e-19
7.36975e-21
-4.2183e-26
5.89543e-21
-7.01362e-19
7.37102e-21
-9.78889e-27
5.89796e-21
-7.01666e-19
7.37417e-21
5.89288e-21
-7.01046e-19
7.36782e-21
-1.5929e-28
-5.75481e-21
4.14733e-23
-3.27316e-28
-5.76081e-21
4.15169e-23
-3.4597e-28
-5.76096e-21
4.15184e-23
-2.49148e-28
-5.76199e-21
4.15259e-23
-4.21563e-29
-5.76452e-21
4.1544e-23
-5.75958e-21
4.15088e-23
-1.96231e-23
3.13891e-18
-5.52579e-16
-5.78131e-23
3.14207e-18
-5.53169e-16
-6.09873e-23
3.14201e-18
-5.53147e-16
-4.194e-23
3.14243e-18
-5.53218e-16
-8.21233e-24
3.14365e-18
-5.5345e-16
3.14083e-18
-5.52912e-16
-3.62705e-24
5.73552e-19
-4.6017e-17
-6.87388e-24
5.74144e-19
-4.60657e-17
-6.4627e-24
5.7415e-19
-4.60656e-17
-3.69859e-24
5.74247e-19
-4.60733e-17
-4.19124e-25
5.74496e-19
-4.60939e-17
5.73991e-19
-4.60513e-17
-3.32619e-26
-5.35694e-19
-5.4854e-26
-5.36252e-19
-5.18855e-26
-5.3626e-19
-3.1055e-26
-5.36355e-19
-7.25769e-27
-5.36595e-19
-5.36126e-19
-1.66774e-21
1.85088e-16
-1.1872e-15
-3.50413e-21
1.85285e-16
-1.18838e-15
-3.44938e-21
1.85277e-16
-1.18831e-15
-1.5459e-21
1.853e-16
-1.18843e-15
2.82741e-22
1.85377e-16
-1.18886e-15
1.85197e-16
-1.18773e-15
-3.42661e-22
3.74127e-17
-1.42853e-16
-5.52565e-22
3.74521e-17
-1.43007e-16
-4.96061e-22
3.74519e-17
-1.43006e-16
-2.74119e-22
3.74581e-17
-1.43031e-16
-1.21975e-24
3.74748e-17
-1.43096e-16
3.74403e-17
-1.4296e-16
-5.3654e-24
-3.46389e-17
-7.38209e-24
-3.46756e-17
-6.62871e-24
-3.46757e-17
-4.19141e-24
-3.46819e-17
-1.21103e-24
-3.46981e-17
-3.46664e-17
-1.11748e-19
1.00574e-14
-7.51992e-14
-1.8491e-19
1.00676e-14
-7.52597e-14
-1.90722e-19
1.00671e-14
-7.52578e-14
-5.39323e-20
1.00683e-14
-7.52653e-14
1.13092e-19
1.00724e-14
-7.52888e-14
1.0063e-14
-7.52321e-14
-6.19839e-20
3.49117e-16
-1.05858e-14
-7.91583e-20
3.4948e-16
-1.05967e-14
-7.29656e-20
3.49484e-16
-1.05967e-14
-4.69383e-20
3.49551e-16
-1.05985e-14
-3.85038e-21
3.49718e-16
-1.06035e-14
3.49401e-16
-1.05937e-14
-5.41872e-22
-8.3305e-17
-6.61259e-22
-8.33993e-17
-6.34128e-22
-8.33983e-17
-4.72932e-22
-8.3418e-17
-1.7938e-22
-8.34734e-17
-8.33841e-17
-4.46429e-18
9.1813e-13
-1.93834e-12
-1.36726e-17
9.19061e-13
-1.94118e-12
-1.33416e-17
9.19019e-13
-1.94101e-12
-8.88171e-18
9.19137e-13
-1.94134e-12
-3.74194e-18
9.19531e-13
-1.94254e-12
9.18687e-13
-1.93994e-12
-4.2332e-18
4.94765e-14
-1.13127e-12
-5.69066e-18
4.95244e-14
-1.13231e-12
-6.19885e-18
4.95238e-14
-1.13231e-12
-5.12335e-18
4.95308e-14
-1.13239e-12
-1.54359e-18
4.95499e-14
-1.13257e-12
4.95086e-14
-1.13179e-12
-4.26072e-20
-6.17812e-15
-5.26392e-20
-6.18473e-15
-5.6401e-20
-6.18476e-15
-4.55597e-20
-6.18579e-15
-1.34644e-20
-6.18843e-15
-6.18288e-15
-2.63598e-15
1.21938e-10
-5.31095e-15
1.22059e-10
-5.23515e-15
1.22053e-10
-4.61019e-15
1.22071e-10
-4.14418e-15
1.22126e-10
1.2202e-10
-3.06297e-16
1.2894e-12
-4.95886e-16
1.29053e-12
-5.78706e-16
1.29053e-12
-5.25962e-16
1.29062e-12
-2.4287e-16
1.29079e-12
1.29e-12
-2.92955e-18
-4.56412e-18
-5.5527e-18
-5.16573e-18
-2.04355e-18
-3.54945e-67
1.87534e-62
-1.31636e-58
2.5798e-67
1.87727e-62
-1.31771e-58
5.03782e-67
1.87745e-62
-1.31785e-58
6.55262e-67
1.87779e-62
-1.3181e-58
7.64535e-67
1.87849e-62
-1.31861e-58
1.87691e-62
-1.31753e-58
-7.35684e-71
2.25833e-65
-1.31114e-61
2.75345e-70
2.26071e-65
-1.31251e-61
4.20731e-70
2.26093e-65
-1.31265e-61
5.23823e-70
2.26135e-65
-1.31291e-61
6.072e-70
2.2622e-65
-1.31343e-61
2.26025e-65
-1.31232e-61