/*--------------------------------*- C++ -*----------------------------------*\
| =========                 |                                                 |
| \\      /  F ield         | OpenFOAM: The Open Source CFD Toolbox           |
|  \\    /   O peration     | Version:  v1612+                                |
|   \\  /    A nd           | Web:      www.OpenFOAM.com                      |
|    \\/     M anipulation  |                                                 |
\*---------------------------------------------------------------------------*/
FoamFile
{
    version     2.0;
    format      ascii;
    class       volScalarField;
    location    "1.3";
    object      p;
}
// * * * * * * * * * * * * * * * * * * * * * * * * * * * * * * * * * * * * * //

dimensions      [1 -1 -2 0 0 0 0];

internalField   nonuniform List<scalar> 
1116
(
35585.3
35585.3
35585.3
35585.3
35585.3
35585.3
34599.4
34599.4
34599.4
34599.3
34599.3
34599.3
31836.8
31836.8
31836.8
31836.7
31836.7
31836.7
27875.5
27875.5
27875.5
27875.5
27875.5
27875.5
21956.9
21957
21957
21957
21957
21957
14117
14117.1
14117.1
14117.1
14117.1
14117.1
5677.7
5677.78
5677.81
5677.82
5677.82
5677.85
3215.45
3215.61
3215.62
3215.61
3215.6
3215.51
430.728
430.754
430.756
430.76
430.764
430.757
158.679
158.68
158.682
158.683
158.684
158.685
127.62
127.622
127.625
127.625
127.623
127.62
136.094
136.094
136.092
136.092
136.09
136.086
26105.5
26105.5
26105.5
26105.6
26105.6
26105.6
24389.4
24389.4
24389.4
24389.4
24389.4
24389.4
20911.3
20911.3
20911.2
20911.2
20911.2
20911.2
15236.7
15236.7
15236.7
15236.6
15236.6
15236.7
7588.95
7589.01
7589.04
7589.07
7589.09
7589.13
1906.97
1906.98
1907
1907
1907
1907.02
63.5877
63.5821
63.5827
63.583
63.5816
63.5821
-117.615
-117.616
-117.615
-117.613
-117.616
-117.619
-226.166
-226.16
-226.162
-226.158
-226.157
-226.164
-67.1179
-67.1204
-67.1177
-67.1174
-67.1198
-67.1187
73.7661
73.7655
73.7677
73.771
73.771
73.7636
100.927
100.927
100.925
100.925
100.926
100.923
16981.1
16981.1
16981.1
16981.1
16981.1
16981.2
14341.3
14341.3
14341.3
14341.3
14341.3
14341.3
9653.48
9653.43
9653.41
9653.4
9653.42
9653.46
3164.28
3164.31
3164.32
3164.33
3164.34
3164.39
427.079
427.092
427.105
427.107
427.112
427.132
-66.962
-66.9605
-66.9613
-66.9628
-66.9635
-66.9634
-58.1694
-58.1695
-58.1688
-58.1697
-58.1713
-58.1714
-101.108
-101.11
-101.111
-101.112
-101.114
-101.116
-142.389
-142.39
-142.391
-142.39
-142.39
-142.39
-101.851
-101.854
-101.854
-101.854
-101.854
-101.854
4.74671
4.74576
4.74362
4.74272
4.74338
4.74249
30.1141
30.1153
30.1141
30.1127
30.1122
30.1113
8748.44
8748.43
8748.43
8748.44
8748.44
8748.4
6126.81
6126.77
6126.76
6126.75
6126.74
6126.73
1557.91
1557.95
1557.96
1557.97
1557.98
1558.01
-14.8193
-14.8246
-14.8268
-14.8263
-14.8233
-14.8194
-75.4872
-75.4854
-75.4863
-75.4879
-75.4891
-75.4905
-70.4368
-70.4346
-70.4338
-70.4346
-70.4355
-70.4346
-55.7388
-55.7408
-55.7411
-55.7422
-55.7436
-55.7445
-90.8521
-90.8533
-90.8539
-90.8539
-90.8545
-90.8544
-106.264
-106.265
-106.264
-106.264
-106.264
-106.264
-72.7914
-72.792
-72.792
-72.7923
-72.7928
-72.7931
-26.0922
-26.0916
-26.0922
-26.0935
-26.0945
-26.0946
-13.5749
-13.5757
-13.5763
-13.5763
-13.5763
-13.5765
-4.86815
-4.86822
-4.86824
-4.86824
-4.86823
-4.86822
-4.86515
-4.86519
-4.86519
-4.86518
-4.86515
-4.86512
-4.85883
-4.85885
-4.85884
-4.85882
-4.8588
-4.85877
-4.84913
-4.84913
-4.84912
-4.8491
-4.84908
-4.84906
-4.83595
-4.83593
-4.83592
-4.8359
-4.83589
-4.83588
-4.81911
-4.81909
-4.81909
-4.81909
-4.8191
-4.81911
-4.79845
-4.79845
-4.79847
-4.79849
-4.79852
-4.79854
-4.77363
-4.77366
-4.7737
-4.77373
-4.77376
-4.77378
-4.74495
-4.74501
-4.74505
-4.74507
-4.74509
-4.74509
-4.71391
-4.71398
-4.71401
-4.71401
-4.71399
-4.71397
-4.68588
-4.68593
-4.68593
-4.6859
-4.68585
-4.6858
-4.66182
-4.66182
-4.66179
-4.66174
-4.66169
-4.66163
-14.6805
-14.6805
-14.6805
-14.6805
-14.6805
-14.6805
-14.6775
-14.6775
-14.6775
-14.6775
-14.6774
-14.6774
-14.6711
-14.6711
-14.6711
-14.6711
-14.671
-14.671
-14.6613
-14.6613
-14.6613
-14.6613
-14.6613
-14.6612
-14.6479
-14.6479
-14.6479
-14.6479
-14.6479
-14.6479
-14.6308
-14.6308
-14.6308
-14.6308
-14.6308
-14.6308
-14.6098
-14.6098
-14.6098
-14.6099
-14.6099
-14.6099
-14.5854
-14.5855
-14.5855
-14.5855
-14.5855
-14.5856
-14.5582
-14.5582
-14.5582
-14.5583
-14.5582
-14.5582
-14.528
-14.5281
-14.5281
-14.528
-14.528
-14.528
-14.4962
-14.4962
-14.4961
-14.4961
-14.496
-14.4959
-14.4656
-14.4656
-14.4655
-14.4655
-14.4654
-14.4653
-24.4952
-24.4953
-24.4953
-24.4953
-24.4952
-24.4952
-24.4923
-24.4923
-24.4923
-24.4923
-24.4923
-24.4922
-24.4862
-24.4862
-24.4862
-24.4862
-24.4862
-24.4861
-24.4767
-24.4767
-24.4767
-24.4767
-24.4767
-24.4766
-24.4635
-24.4635
-24.4635
-24.4635
-24.4635
-24.4635
-24.4459
-24.4459
-24.4459
-24.4459
-24.4459
-24.4459
-24.4228
-24.4228
-24.4228
-24.4229
-24.4229
-24.4229
-24.3918
-24.3919
-24.3919
-24.3919
-24.3919
-24.3919
-24.3505
-24.3505
-24.3505
-24.3505
-24.3505
-24.3504
-24.2979
-24.2979
-24.2978
-24.2978
-24.2977
-24.2977
-24.2431
-24.243
-24.243
-24.243
-24.2429
-24.2429
-24.1859
-24.1858
-24.1858
-24.1858
-24.1858
-24.1857
-34.3123
-34.3123
-34.3123
-34.3123
-34.3123
-34.3122
-34.3096
-34.3097
-34.3096
-34.3096
-34.3096
-34.3096
-34.3041
-34.3041
-34.3041
-34.3041
-34.3041
-34.304
-34.2954
-34.2954
-34.2954
-34.2954
-34.2954
-34.2954
-34.283
-34.2831
-34.2831
-34.2831
-34.2831
-34.283
-34.2662
-34.2662
-34.2663
-34.2663
-34.2663
-34.2663
-34.2441
-34.2441
-34.2442
-34.2442
-34.2442
-34.2442
-34.2165
-34.2165
-34.2165
-34.2165
-34.2165
-34.2164
-34.1829
-34.1829
-34.1829
-34.1828
-34.1828
-34.1828
-34.1422
-34.1421
-34.1421
-34.142
-34.142
-34.142
-34.0861
-34.086
-34.086
-34.0859
-34.086
-34.086
-34.0413
-34.0413
-34.0413
-34.0413
-34.0414
-34.0415
7992.13
7992.16
7992.17
7992.17
7992.19
7992.19
-5.76694
-5.76183
-5.76238
-5.76236
-5.76185
-5.76415
-474.498
-474.496
-474.495
-474.494
-474.494
-474.496
1850.32
1850.35
1850.34
1850.34
1850.34
1850.36
-36.2595
-36.2581
-36.2576
-36.257
-36.2565
-36.2586
-117.593
-117.592
-117.592
-117.591
-117.59
-117.59
-38.1929
-38.1953
-38.1948
-38.1937
-38.1934
-38.1971
-66.8364
-66.8363
-66.8357
-66.8351
-66.8345
-66.8342
-99.7032
-99.7031
-99.703
-99.7029
-99.7028
-99.703
-50.7616
-50.7624
-50.7623
-50.7615
-50.7603
-50.7589
-61.7864
-61.7857
-61.7853
-61.7847
-61.784
-61.7839
-74.2815
-74.2812
-74.2811
-74.2811
-74.2812
-74.2813
-69.9235
-69.9225
-69.9219
-69.9218
-69.9218
-69.9216
-70.4024
-70.4021
-70.4019
-70.4019
-70.4021
-70.4022
-68.5498
-68.5498
-68.5499
-68.5499
-68.55
-68.5502
-71.455
-71.4546
-71.4541
-71.4541
-71.4545
-71.4547
-67.3922
-67.3926
-67.3929
-67.3934
-67.394
-67.3941
-67.7696
-67.7696
-67.7697
-67.7698
-67.7699
-67.77
-68.025
-68.0253
-68.0256
-68.026
-68.0265
-68.0268
-67.5377
-67.5378
-67.538
-67.5383
-67.5387
-67.5388
-67.7958
-67.7957
-67.7958
-67.7958
-67.7959
-67.796
-73.4831
-73.4835
-73.4839
-73.4843
-73.4847
-73.4847
-69.6375
-69.6372
-69.6373
-69.6375
-69.6377
-69.638
-67.916
-67.9161
-67.9162
-67.9162
-67.9162
-67.9162
-74.1693
-74.1697
-74.1696
-74.1697
-74.17
-74.1697
-65.5735
-65.5733
-65.5734
-65.5733
-65.5731
-65.5732
-66.7117
-66.7116
-66.7116
-66.7115
-66.7114
-66.7114
-55.934
-55.9345
-55.9347
-55.9347
-55.9347
-55.9345
-56.3136
-56.3131
-56.3127
-56.3123
-56.3119
-56.3118
-64.1292
-64.1288
-64.1285
-64.1282
-64.128
-64.1281
-37.2984
-37.2986
-37.2983
-37.2977
-37.2976
-37.2976
-49.0328
-49.032
-49.0311
-49.0303
-49.0297
-49.0296
-62.0915
-62.091
-62.0905
-62.0902
-62.0901
-62.0902
-34.501
-34.5009
-34.5007
-34.5002
-34.4999
-34.4999
-46.6614
-46.6604
-46.6596
-46.6592
-46.6591
-46.6594
-60.5939
-60.5935
-60.5931
-60.593
-60.5931
-60.5934
-43.162
-43.162
-43.1621
-43.1623
-43.1625
-43.1626
-53.0762
-53.0763
-53.0764
-53.0765
-53.0766
-53.0767
-63.3566
-63.3566
-63.3566
-63.3567
-63.3568
-63.3568
-42.8765
-42.8766
-42.8767
-42.8768
-42.877
-42.8771
-52.7043
-52.7044
-52.7045
-52.7046
-52.7048
-52.7048
-63.1664
-63.1664
-63.1664
-63.1665
-63.1666
-63.1666
-42.58
-42.58
-42.58
-42.5802
-42.5804
-42.5805
-52.1643
-52.1642
-52.1643
-52.1645
-52.1646
-52.1646
-62.8848
-62.8847
-62.8848
-62.8848
-62.8849
-62.8849
-42.1399
-42.1397
-42.1397
-42.1399
-42.1402
-42.1403
-51.3168
-51.3166
-51.3166
-51.3168
-51.317
-51.3172
-62.4791
-62.4791
-62.4791
-62.4791
-62.4792
-62.4793
-42.2757
-42.2755
-42.2755
-42.2755
-42.2758
-42.2761
-50.2348
-50.2347
-50.2346
-50.2347
-50.235
-50.2355
-61.9206
-61.9206
-61.9206
-61.9206
-61.9208
-61.921
-46.4947
-46.4946
-46.4945
-46.4947
-46.495
-46.4953
-49.3632
-49.3627
-49.3624
-49.3623
-49.3626
-49.3631
-61.2226
-61.2225
-61.2224
-61.2224
-61.2226
-61.2229
-44.1158
-44.1158
-44.1158
-44.1157
-44.1157
-44.1157
-53.9367
-53.9367
-53.9367
-53.9367
-53.9367
-53.9367
-63.7587
-63.7587
-63.7587
-63.7587
-63.7587
-63.7587
-44.1137
-44.1137
-44.1137
-44.1136
-44.1136
-44.1136
-53.9354
-53.9354
-53.9354
-53.9354
-53.9353
-53.9353
-63.7582
-63.7582
-63.7582
-63.7582
-63.7582
-63.7582
-44.1092
-44.1092
-44.1092
-44.1092
-44.1092
-44.1091
-53.9325
-53.9325
-53.9325
-53.9325
-53.9325
-53.9325
-63.7572
-63.7571
-63.7571
-63.7571
-63.7571
-63.7571
-44.1021
-44.1021
-44.1021
-44.1021
-44.1021
-44.1021
-53.9278
-53.9278
-53.9278
-53.9278
-53.9278
-53.9278
-63.7554
-63.7554
-63.7554
-63.7554
-63.7554
-63.7554
-44.0916
-44.0916
-44.0916
-44.0916
-44.0916
-44.0916
-53.9209
-53.9209
-53.9209
-53.9209
-53.9209
-53.9208
-63.7528
-63.7529
-63.7529
-63.7528
-63.7528
-63.7528
-44.0765
-44.0765
-44.0765
-44.0765
-44.0765
-44.0765
-53.9105
-53.9105
-53.9105
-53.9105
-53.9105
-53.9105
-63.7489
-63.7489
-63.7489
-63.7489
-63.7489
-63.7489
-44.0539
-44.0539
-44.0539
-44.0539
-44.0539
-44.0539
-53.8948
-53.8948
-53.8948
-53.8948
-53.8948
-53.8948
-63.7427
-63.7427
-63.7427
-63.7427
-63.7427
-63.7426
-44.0187
-44.0188
-44.0187
-44.0187
-44.0187
-44.0186
-53.8706
-53.8706
-53.8706
-53.8705
-53.8705
-53.8705
-63.7326
-63.7326
-63.7326
-63.7325
-63.7325
-63.7325
-43.9619
-43.9619
-43.9619
-43.9618
-43.9618
-43.9617
-53.8317
-53.8316
-53.8316
-53.8316
-53.8315
-53.8315
-63.7154
-63.7154
-63.7154
-63.7153
-63.7153
-63.7153
-43.87
-43.8699
-43.8699
-43.8699
-43.8698
-43.8698
-53.7673
-53.7672
-53.7672
-53.7672
-53.7672
-53.7672
-63.685
-63.685
-63.685
-63.685
-63.685
-63.685
-43.7185
-43.7184
-43.7185
-43.7185
-43.7185
-43.7186
-53.6487
-53.6487
-53.6488
-53.6488
-53.6489
-53.649
-63.6277
-63.6277
-63.6278
-63.6278
-63.6278
-63.6279
-43.5027
-43.5027
-43.5028
-43.5029
-43.503
-43.5031
-53.4383
-53.4384
-53.4385
-53.4386
-53.4387
-53.4388
-63.5248
-63.5248
-63.5248
-63.5249
-63.5249
-63.5249
)
;

boundaryField
{
    seabed_topleft_surface
    {
        type            calculated;
        value           nonuniform List<scalar> 
72
(
40507.1
40507.1
40507.1
40507.1
40507.1
40507.1
39521.3
39521.3
39521.2
39521.2
39521.2
39521.2
36758.7
36758.7
36758.6
36758.6
36758.5
36758.5
32797.4
32797.4
32797.4
32797.4
32797.3
32797.3
26878.5
26878.5
26878.5
26878.6
26878.6
26878.6
18918.1
18918.2
18918.2
18918.3
18918.3
18918.3
10149.7
10149.8
10149.8
10149.8
10149.8
10149.8
6436.97
6437.22
6437.23
6437.23
6437.21
6437.05
966.389
966.512
966.512
966.512
966.514
966.43
166.533
166.535
166.537
166.538
166.539
166.539
132.748
132.75
132.753
132.753
132.75
132.748
141.105
141.105
141.103
141.103
141.101
141.097
)
;
    }
    seabed_topright_surface
    {
        type            calculated;
        value           nonuniform List<scalar> 
72
(
0.0537024
0.0536383
0.0536181
0.0536201
0.0536297
0.0536397
0.05671
0.0566704
0.0566663
0.0566792
0.0567015
0.0567311
0.0630301
0.0630092
0.0630162
0.0630348
0.0630603
0.0630903
0.0727216
0.0727212
0.0727352
0.0727544
0.0727765
0.0728
0.0859092
0.0859264
0.0859402
0.0859517
0.0859618
0.0859714
0.102744
0.102763
0.102766
0.102761
0.102753
0.102744
0.123408
0.123407
0.123389
0.123365
0.12334
0.123317
0.14823
0.148197
0.148161
0.148126
0.148097
0.148075
0.176909
0.176847
0.176808
0.176782
0.176767
0.176764
0.207941
0.207872
0.207849
0.207849
0.207863
0.207888
0.235977
0.235925
0.23593
0.23596
0.236003
0.236053
0.260037
0.260033
0.260064
0.260112
0.260169
0.260228
)
;
    }
    breakwater_top_surface
    {
        type            calculated;
        value           nonuniform List<scalar> 
36
(
-38.257
-38.257
-38.2571
-38.2573
-38.2575
-38.2576
-37.9715
-37.9716
-37.9717
-37.9718
-37.972
-37.9721
-37.675
-37.675
-37.675
-37.6752
-37.6754
-37.6755
-37.2349
-37.2347
-37.2347
-37.2349
-37.2352
-37.2353
-37.3707
-37.3705
-37.3705
-37.3705
-37.3708
-37.3711
-41.5897
-41.5896
-41.5895
-41.5897
-41.59
-41.5903
)
;
    }
    breakwater_left_surface
    {
        type            calculated;
        value           nonuniform List<scalar> 
24
(
136.111
136.111
136.109
136.109
136.107
136.103
100.944
100.944
100.942
100.942
100.942
100.94
30.1303
30.1315
30.1303
30.1289
30.1284
30.1275
-13.559
-13.5598
-13.5605
-13.5605
-13.5604
-13.5606
)
;
    }
    breakwater_right_surface
    {
        type            calculated;
        value           nonuniform List<scalar> 
24
(
-4.64496
-4.64497
-4.64494
-4.64489
-4.64483
-4.64477
-14.4491
-14.449
-14.449
-14.4489
-14.4489
-14.4488
-24.1697
-24.1697
-24.1696
-24.1696
-24.1696
-24.1695
-34.0255
-34.0254
-34.0254
-34.0255
-34.0255
-34.0256
)
;
    }
    water_front_surface
    {
        type            calculated;
        value           nonuniform List<scalar> 
186
(
35585.3
34599.4
31836.8
27875.5
21956.9
14117
5677.7
3215.45
430.728
158.679
127.62
136.094
26105.5
24389.4
20911.3
15236.7
7588.95
1906.97
63.5877
-117.615
-226.166
-67.1179
73.7661
100.927
16981.1
14341.3
9653.48
3164.28
427.079
-66.962
-58.1694
-101.108
-142.389
-101.851
4.74671
30.1141
8748.44
6126.81
1557.91
-14.8193
-75.4872
-70.4368
-55.7388
-90.8521
-106.264
-72.7914
-26.0922
-13.5749
-4.86815
-4.86515
-4.85883
-4.84913
-4.83595
-4.81911
-4.79845
-4.77363
-4.74495
-4.71391
-4.68588
-4.66182
-14.6805
-14.6775
-14.6711
-14.6613
-14.6479
-14.6308
-14.6098
-14.5854
-14.5582
-14.528
-14.4962
-14.4656
-24.4952
-24.4923
-24.4862
-24.4767
-24.4635
-24.4459
-24.4228
-24.3918
-24.3505
-24.2979
-24.2431
-24.1859
-34.3123
-34.3096
-34.3041
-34.2954
-34.283
-34.2662
-34.2441
-34.2165
-34.1829
-34.1422
-34.0861
-34.0413
7992.13
-5.76694
-474.498
1850.32
-36.2595
-117.593
-38.1929
-66.8364
-99.7032
-50.7616
-61.7864
-74.2815
-69.9235
-70.4024
-68.5498
-71.455
-67.3922
-67.7696
-68.025
-67.5377
-67.7958
-73.4831
-69.6375
-67.916
-74.1693
-65.5735
-66.7117
-55.934
-56.3136
-64.1292
-37.2984
-49.0328
-62.0915
-34.501
-46.6614
-60.5939
-43.162
-53.0762
-63.3566
-42.8765
-52.7043
-63.1664
-42.58
-52.1643
-62.8848
-42.1399
-51.3168
-62.4791
-42.2757
-50.2348
-61.9206
-46.4947
-49.3632
-61.2226
-44.1158
-53.9367
-63.7587
-44.1137
-53.9354
-63.7582
-44.1092
-53.9325
-63.7572
-44.1021
-53.9278
-63.7554
-44.0916
-53.9209
-63.7528
-44.0765
-53.9105
-63.7489
-44.0539
-53.8948
-63.7427
-44.0187
-53.8706
-63.7326
-43.9619
-53.8317
-63.7154
-43.87
-53.7673
-63.685
-43.7185
-53.6487
-63.6277
-43.5027
-53.4383
-63.5248
)
;
    }
    water_back_surface
    {
        type            calculated;
        value           nonuniform List<scalar> 
186
(
35585.3
34599.3
31836.7
27875.5
21957
14117.1
5677.85
3215.51
430.757
158.685
127.62
136.086
26105.6
24389.4
20911.2
15236.7
7589.13
1907.02
63.5821
-117.619
-226.164
-67.1187
73.7636
100.923
16981.2
14341.3
9653.46
3164.39
427.132
-66.9634
-58.1714
-101.116
-142.39
-101.854
4.74249
30.1113
8748.4
6126.73
1558.01
-14.8194
-75.4905
-70.4346
-55.7445
-90.8544
-106.264
-72.7931
-26.0946
-13.5765
-4.86822
-4.86512
-4.85877
-4.84906
-4.83588
-4.81911
-4.79854
-4.77378
-4.74509
-4.71397
-4.6858
-4.66163
-14.6805
-14.6774
-14.671
-14.6612
-14.6479
-14.6308
-14.6099
-14.5856
-14.5582
-14.528
-14.4959
-14.4653
-24.4952
-24.4922
-24.4861
-24.4766
-24.4635
-24.4459
-24.4229
-24.3919
-24.3504
-24.2977
-24.2429
-24.1857
-34.3122
-34.3096
-34.304
-34.2954
-34.283
-34.2663
-34.2442
-34.2164
-34.1828
-34.142
-34.086
-34.0415
7992.19
-5.76415
-474.496
1850.36
-36.2586
-117.59
-38.1971
-66.8342
-99.703
-50.7589
-61.7839
-74.2813
-69.9216
-70.4022
-68.5502
-71.4547
-67.3941
-67.77
-68.0268
-67.5388
-67.796
-73.4847
-69.638
-67.9162
-74.1697
-65.5732
-66.7114
-55.9345
-56.3118
-64.1281
-37.2976
-49.0296
-62.0902
-34.4999
-46.6594
-60.5934
-43.1626
-53.0767
-63.3568
-42.8771
-52.7048
-63.1666
-42.5805
-52.1646
-62.8849
-42.1403
-51.3172
-62.4793
-42.2761
-50.2355
-61.921
-46.4953
-49.3631
-61.2229
-44.1157
-53.9367
-63.7587
-44.1136
-53.9353
-63.7582
-44.1091
-53.9325
-63.7571
-44.1021
-53.9278
-63.7554
-44.0916
-53.9208
-63.7528
-44.0765
-53.9105
-63.7489
-44.0539
-53.8948
-63.7426
-44.0186
-53.8705
-63.7325
-43.9617
-53.8315
-63.7153
-43.8698
-53.7672
-63.685
-43.7186
-53.649
-63.6279
-43.5031
-53.4388
-63.5249
)
;
    }
    water_left_surface
    {
        type            calculated;
        value           nonuniform List<scalar> 
42
(
35602.1
35602.1
35602.1
35602.1
35602.1
35602.1
26122
26122
26122.1
26122.1
26122.1
26122.1
16997.3
16997.3
16997.3
16997.3
16997.3
16997.3
8764.31
8764.3
8764.31
8764.32
8764.31
8764.28
7992.13
7992.16
7992.17
7992.17
7992.19
7992.19
-5.76694
-5.76183
-5.76238
-5.76236
-5.76185
-5.76415
-474.498
-474.496
-474.495
-474.494
-474.494
-474.496
)
;
    }
    water_right_surface
    {
        type            calculated;
        value           nonuniform List<scalar> 
42
(
-4.8513
-4.85136
-4.85138
-4.85138
-4.85137
-4.85136
-14.664
-14.664
-14.664
-14.664
-14.664
-14.664
-24.4791
-24.4791
-24.4791
-24.4791
-24.4791
-24.479
-34.2964
-34.2964
-34.2964
-34.2964
-34.2964
-34.2964
-44.1158
-44.1158
-44.1158
-44.1157
-44.1157
-44.1157
-53.9367
-53.9367
-53.9367
-53.9367
-53.9367
-53.9367
-63.7587
-63.7587
-63.7587
-63.7587
-63.7587
-63.7587
)
;
    }
    water_top_surface
    {
        type            calculated;
        value           nonuniform List<scalar> 
180
(
-11702.2
-11702.3
-11702.3
-11702.3
-11702.2
-11702.5
-122.251
-122.252
-122.249
-122.248
-122.247
-122.243
-89.5083
-89.5085
-89.5091
-89.5096
-89.5109
-89.5105
-74.2526
-74.2518
-74.2522
-74.2527
-74.2532
-74.2535
-71.6683
-71.6687
-71.6691
-71.6694
-71.6697
-71.6698
-69.8583
-69.8586
-69.8586
-69.8586
-69.8585
-69.8583
-69.416
-69.4159
-69.4158
-69.4158
-69.4157
-69.4156
-68.67
-68.67
-68.67
-68.67
-68.67
-68.67
-68.67
-68.67
-68.67
-68.67
-68.67
-68.67
-68.67
-68.67
-68.67
-68.67
-68.67
-68.67
-68.67
-68.67
-68.67
-68.67
-68.67
-68.67
-68.67
-68.67
-68.67
-68.67
-68.67
-68.67
-68.67
-68.67
-68.67
-68.67
-68.67
-68.67
-68.67
-68.67
-68.67
-68.67
-68.67
-68.67
-68.67
-68.67
-68.67
-68.67
-68.67
-68.67
-68.67
-68.67
-68.67
-68.67
-68.67
-68.67
-68.67
-68.67
-68.67
-68.67
-68.67
-68.67
-68.67
-68.67
-68.67
-68.67
-68.67
-68.67
-68.67
-68.67
-68.67
-68.67
-68.67
-68.67
-68.67
-68.67
-68.67
-68.67
-68.67
-68.67
-68.67
-68.67
-68.67
-68.67
-68.67
-68.67
-68.67
-68.67
-68.67
-68.67
-68.67
-68.67
-68.67
-68.67
-68.67
-68.67
-68.67
-68.67
-68.67
-68.67
-68.67
-68.67
-68.67
-68.67
-68.67
-68.67
-68.67
-68.67
-68.67
-68.67
-68.67
-68.67
-68.67
-68.67
-68.67
-68.67
-68.67
-68.67
-68.67
-68.67
-68.67
-68.67
-68.67
-68.67
-68.67
-68.67
-68.67
-68.67
-68.67
-68.67
-68.67
-68.67
-68.67
-68.67
-68.67
-68.67
-68.67
-68.67
-68.67
-68.67
)
;
    }
}


// ************************************************************************* //
