/*--------------------------------*- C++ -*----------------------------------*\
| =========                 |                                                 |
| \\      /  F ield         | OpenFOAM: The Open Source CFD Toolbox           |
|  \\    /   O peration     | Version:  v1612+                                |
|   \\  /    A nd           | Web:      www.OpenFOAM.com                      |
|    \\/     M anipulation  |                                                 |
\*---------------------------------------------------------------------------*/
FoamFile
{
    version     2.0;
    format      ascii;
    class       volScalarField;
    location    "1.3";
    object      p_rgh;
}
// * * * * * * * * * * * * * * * * * * * * * * * * * * * * * * * * * * * * * //

dimensions      [1 -1 -2 0 0 0 0];

internalField   nonuniform List<scalar> 
1116
(
40507.1
40507.1
40507.1
40507.1
40507.1
40507.1
39521.3
39521.3
39521.2
39521.2
39521.2
39521.2
36758.7
36758.7
36758.6
36758.6
36758.5
36758.5
32797.4
32797.4
32797.4
32797.4
32797.3
32797.3
26878.5
26878.5
26878.5
26878.6
26878.6
26878.6
18918.1
18918.2
18918.2
18918.3
18918.3
18918.3
10149.7
10149.8
10149.8
10149.8
10149.8
10149.8
6436.97
6437.22
6437.23
6437.23
6437.21
6437.05
966.389
966.512
966.512
966.512
966.514
966.43
166.533
166.535
166.537
166.538
166.539
166.539
132.748
132.75
132.753
132.753
132.75
132.748
141.105
141.105
141.103
141.103
141.101
141.097
40837
40837
40837.1
40837.1
40837.1
40837.1
39121
39120.9
39120.9
39120.9
39120.9
39120.9
35642.8
35642.7
35642.7
35642.7
35642.7
35642.7
29967.2
29967.2
29967.2
29967.2
29967.2
29967.2
19932.9
19932.9
19933
19933.1
19933.1
19933.2
7524.19
7524.22
7524.31
7524.34
7524.31
7524.38
179.958
179.946
179.959
179.963
179.954
179.968
-102.773
-102.774
-102.773
-102.771
-102.774
-102.777
-151.306
-151.305
-151.306
-151.303
-151.306
-151.304
28.2017
28.2063
28.2069
28.2065
28.205
28.1976
97.6976
97.7003
97.7017
97.7049
97.706
97.6942
115.689
115.689
115.687
115.687
115.687
115.685
41522.3
41522.3
41522.3
41522.3
41522.3
41522.3
38882.4
38882.4
38882.4
38882.4
38882.4
38882.4
33948.4
33948.4
33948.4
33948.4
33948.4
33948.5
18888.5
18888.6
18888.7
18888.8
18888.8
18889.1
2839.45
2839.47
2839.57
2839.59
2839.62
2839.76
-42.38
-42.3785
-42.3792
-42.3807
-42.3815
-42.3814
-33.6272
-33.6273
-33.6266
-33.6275
-33.6291
-33.6292
-76.5454
-76.5479
-76.5488
-76.5497
-76.552
-76.5537
-108.749
-108.75
-108.751
-108.751
-108.752
-108.753
-54.4922
-54.4936
-54.4956
-54.4954
-54.4947
-54.4975
32.2609
32.2615
32.259
32.2582
32.2597
32.2568
54.6832
54.6845
54.6833
54.6818
54.6814
54.6804
43099.2
43099.2
43099.2
43099.2
43099.2
43099.2
39795
39795
39795
39795
39795
39795
16516.2
16516.5
16516.6
16516.6
16516.7
16517.1
20.264
20.2588
20.2566
20.2571
20.2602
20.2642
-41.1162
-41.1143
-41.1153
-41.1168
-41.1181
-41.1195
-36.086
-36.0838
-36.083
-36.0838
-36.0847
-36.0837
-21.3878
-21.3897
-21.3901
-21.3911
-21.3926
-21.3934
-56.4616
-56.4628
-56.4634
-56.4634
-56.464
-56.4639
-71.9044
-71.9052
-71.9044
-71.904
-71.9044
-71.9037
-38.3736
-38.3741
-38.3742
-38.3744
-38.375
-38.3753
8.26213
8.26279
8.26222
8.26087
8.25991
8.25977
20.7778
20.777
20.7763
20.7763
20.7764
20.7762
0.0537024
0.0536383
0.0536181
0.0536201
0.0536297
0.0536397
0.05671
0.0566704
0.0566663
0.0566792
0.0567015
0.0567311
0.0630301
0.0630092
0.0630162
0.0630348
0.0630603
0.0630903
0.0727216
0.0727212
0.0727352
0.0727544
0.0727765
0.0728
0.0859092
0.0859264
0.0859402
0.0859517
0.0859618
0.0859714
0.102744
0.102763
0.102766
0.102761
0.102753
0.102744
0.123408
0.123407
0.123389
0.123365
0.12334
0.123317
0.14823
0.148197
0.148161
0.148126
0.148097
0.148075
0.176909
0.176847
0.176808
0.176782
0.176767
0.176764
0.207941
0.207872
0.207849
0.207849
0.207863
0.207888
0.235977
0.235925
0.23593
0.23596
0.236003
0.236053
0.260037
0.260033
0.260064
0.260112
0.260169
0.260228
0.0510148
0.0509717
0.0509653
0.0509769
0.0509984
0.051028
0.0540522
0.054028
0.0540343
0.0540545
0.0540862
0.0541312
0.0604081
0.0603964
0.0604093
0.0604331
0.0604655
0.060507
0.0701918
0.0701942
0.0702092
0.0702296
0.070254
0.0702824
0.083577
0.0835867
0.0835958
0.0836036
0.0836109
0.0836177
0.100742
0.100744
0.100737
0.100725
0.100711
0.100696
0.121722
0.121703
0.121675
0.121647
0.121618
0.121593
0.1461
0.146057
0.14602
0.14599
0.145967
0.145953
0.17335
0.173299
0.173275
0.173264
0.173266
0.173285
0.203471
0.203441
0.203445
0.203466
0.203503
0.203556
0.235348
0.235353
0.235388
0.235437
0.235498
0.235568
0.265908
0.265951
0.266005
0.266064
0.266128
0.266199
0.0459398
0.0459082
0.0459088
0.0459243
0.0459485
0.0459789
0.0488553
0.0488384
0.0488484
0.048871
0.0489035
0.0489467
0.0549651
0.0549563
0.0549702
0.0549943
0.0550259
0.0550646
0.0644657
0.0644653
0.0644777
0.0644956
0.0645177
0.0645433
0.0777208
0.0777197
0.077722
0.0777258
0.0777308
0.077737
0.0953336
0.0953177
0.095303
0.0952891
0.0952765
0.0952664
0.118407
0.118369
0.118341
0.118317
0.118299
0.118287
0.14935
0.149304
0.149279
0.149264
0.149261
0.149269
0.190703
0.190678
0.190678
0.190691
0.190717
0.190755
0.243299
0.243318
0.243351
0.243391
0.243439
0.243493
0.298089
0.298143
0.298192
0.298237
0.298282
0.298324
0.355276
0.35534
0.355384
0.355414
0.355436
0.355452
0.0385958
0.0385747
0.0385793
0.0385953
0.0386183
0.0386459
0.0412239
0.0412137
0.0412249
0.0412462
0.0412754
0.0413127
0.0467497
0.0467445
0.0467575
0.0467786
0.0468058
0.0468387
0.0554476
0.055445
0.055454
0.0554683
0.0554866
0.0555084
0.0678282
0.0678178
0.067816
0.0678179
0.0678228
0.0678308
0.0846581
0.0846306
0.0846151
0.0846054
0.0846008
0.0846014
0.106778
0.106736
0.106715
0.106705
0.106705
0.106715
0.13441
0.134377
0.134372
0.13438
0.1344
0.134432
0.167957
0.167965
0.167992
0.168027
0.168069
0.168118
0.208675
0.208734
0.208783
0.208826
0.208865
0.2089
0.26481
0.264884
0.264915
0.264924
0.26492
0.264906
0.309548
0.309577
0.30957
0.309533
0.309476
0.309414
51721.3
51721.4
51721.4
51721.4
51721.4
51721.4
34387.7
34387.9
34387.8
34387.8
34387.8
34388.1
10391.8
10391.9
10391.9
10391.9
10391.9
10392.1
18561.8
18562
18562
18562
18562
18562.2
17.6955
17.6969
17.6974
17.698
17.6985
17.6964
-53.8279
-53.8274
-53.8265
-53.8257
-53.825
-53.8247
5.89566
5.89318
5.89365
5.89482
5.89514
5.89135
-12.8814
-12.8813
-12.8807
-12.8801
-12.8795
-12.8792
-35.9382
-35.9381
-35.938
-35.9379
-35.9378
-35.938
-6.5878
-6.58857
-6.58847
-6.58768
-6.58645
-6.58503
-7.70902
-7.70844
-7.70795
-7.70742
-7.70677
-7.7067
-10.5047
-10.5043
-10.5042
-10.5042
-10.5042
-10.5044
-25.7785
-25.7775
-25.7769
-25.7768
-25.7768
-25.7766
-12.9569
-12.9567
-12.9564
-12.9565
-12.9567
-12.9567
-4.73283
-4.73272
-4.73275
-4.73283
-4.73291
-4.73306
-27.31
-27.3096
-27.3091
-27.3091
-27.3095
-27.3097
-13.4372
-13.4376
-13.4379
-13.4384
-13.439
-13.4391
-4.00455
-4.00457
-4.00467
-4.00478
-4.0049
-4.00502
-23.8795
-23.8798
-23.8801
-23.8805
-23.881
-23.8814
-13.5827
-13.5828
-13.583
-13.5833
-13.5837
-13.5838
-4.0308
-4.03074
-4.03077
-4.03084
-4.03092
-4.031
-29.3338
-29.3342
-29.3346
-29.335
-29.3354
-29.3354
-15.6825
-15.6822
-15.6823
-15.6825
-15.6827
-15.683
-4.15105
-4.15106
-4.15116
-4.15122
-4.15123
-4.15125
-30.0239
-30.0242
-30.0242
-30.0243
-30.0245
-30.0243
-11.6185
-11.6183
-11.6183
-11.6183
-11.6181
-11.6182
-2.94668
-2.9466
-2.9466
-2.94652
-2.94643
-2.94644
-11.7857
-11.7862
-11.7864
-11.7864
-11.7864
-11.7862
-2.35854
-2.35803
-2.35763
-2.35717
-2.35677
-2.35673
-0.36414
-0.363815
-0.363477
-0.363218
-0.363037
-0.363099
6.8469
6.84667
6.847
6.84753
6.84769
6.84762
4.92226
4.92302
4.92392
4.92471
4.92529
4.92538
1.67352
1.67399
1.67447
1.67476
1.67491
1.67483
9.6441
9.64415
9.64437
9.64483
9.64514
9.64517
7.29358
7.29457
7.29543
7.29584
7.29593
7.29563
3.17113
3.17154
3.17187
3.17197
3.17191
3.17165
0.982962
0.982951
0.982855
0.982698
0.982538
0.982441
0.87878
0.878745
0.87864
0.878495
0.878361
0.878288
0.408422
0.408404
0.40836
0.408298
0.408239
0.408216
1.26848
1.26844
1.26834
1.26815
1.26797
1.2679
1.25067
1.25065
1.25055
1.25039
1.25025
1.25021
0.598594
0.598596
0.598556
0.598491
0.598432
0.598423
1.56498
1.56504
1.56498
1.56478
1.56459
1.56453
1.79069
1.79076
1.7907
1.79055
1.7904
1.79037
0.880243
0.880272
0.880249
0.880188
0.880128
0.880116
2.00514
2.00528
2.00529
2.0051
2.00485
2.00466
2.63825
2.63838
2.63836
2.63821
2.63799
2.6378
1.28587
1.28592
1.28592
1.28586
1.28577
1.28569
1.86932
1.86946
1.86954
1.86945
1.86921
1.86891
3.72019
3.72032
3.72038
3.72026
3.71997
3.71955
1.84435
1.84441
1.84443
1.84436
1.84421
1.84401
-2.34972
-2.3496
-2.34951
-2.34968
-2.35004
-2.35034
4.5918
4.5923
4.59265
4.59266
4.59239
4.59187
2.5424
2.54253
2.5426
2.54258
2.5424
2.54208
0.0292448
0.0292335
0.0292397
0.0292541
0.0292734
0.029296
0.0182648
0.0182617
0.0182678
0.0182783
0.0182918
0.0183077
0.0063236
0.00632466
0.00632786
0.00633224
0.00633794
0.00634536
0.0313425
0.0313382
0.0313489
0.0313666
0.03139
0.0314192
0.0196185
0.0196192
0.0196275
0.0196396
0.0196553
0.0196749
0.00681115
0.00681304
0.0068167
0.00682144
0.00682761
0.00683582
0.0357808
0.0357793
0.0357901
0.0358067
0.0358278
0.035853
0.0224927
0.0224943
0.022502
0.0225129
0.0225266
0.0225432
0.00784841
0.00785014
0.00785331
0.00785737
0.00786257
0.00786934
0.042898
0.0428949
0.0429012
0.0429119
0.0429262
0.0429435
0.0271557
0.0271542
0.0271584
0.0271655
0.0271751
0.0271873
0.00955035
0.00955068
0.00955242
0.00955499
0.00955864
0.00956384
0.0533767
0.053364
0.0533616
0.0533639
0.0533703
0.0533806
0.034149
0.0341407
0.0341399
0.0341431
0.0341497
0.0341601
0.0121506
0.0121488
0.0121491
0.0121507
0.0121541
0.0121599
0.0685408
0.0685144
0.0685039
0.068502
0.0685068
0.0685189
0.0445112
0.044496
0.0444929
0.0444969
0.0445069
0.0445236
0.0161094
0.0161067
0.0161078
0.0161113
0.0161177
0.0161283
0.0911191
0.0910877
0.0910805
0.091086
0.0911018
0.0911284
0.0601652
0.0601517
0.0601565
0.06017
0.0601917
0.0602225
0.0223129
0.0223136
0.0223195
0.0223284
0.0223412
0.0223594
0.126257
0.126245
0.126259
0.126284
0.126318
0.126363
0.0844179
0.0844233
0.0844446
0.0844727
0.0845071
0.0845485
0.0324159
0.0324252
0.0324379
0.0324527
0.0324702
0.0324913
0.183052
0.183084
0.183124
0.183165
0.183207
0.183251
0.123338
0.123374
0.123407
0.123438
0.123468
0.123494
0.0496176
0.0496344
0.0496484
0.0496609
0.0496717
0.049679
0.275006
0.275076
0.275118
0.275143
0.275155
0.275156
0.18774
0.187784
0.1878
0.187801
0.187789
0.187763
0.0800374
0.0800461
0.0800452
0.0800391
0.0800262
0.0800025
0.426508
0.426557
0.42655
0.426514
0.426459
0.426392
0.306261
0.306263
0.306222
0.306161
0.30609
0.306014
0.13728
0.137262
0.137234
0.1372
0.137163
0.137127
0.642328
0.64229
0.642204
0.642091
0.641975
0.641879
0.516664
0.516601
0.516501
0.516382
0.516275
0.51621
0.240236
0.240204
0.240156
0.240104
0.240065
0.240057
)
;

boundaryField
{
    seabed_topleft_surface
    {
        type            fixedFluxPressure;
        gradient        uniform 0;
        value           nonuniform List<scalar> 
72
(
40507.1
40507.1
40507.1
40507.1
40507.1
40507.1
39521.3
39521.3
39521.2
39521.2
39521.2
39521.2
36758.7
36758.7
36758.6
36758.6
36758.5
36758.5
32797.4
32797.4
32797.4
32797.4
32797.3
32797.3
26878.5
26878.5
26878.5
26878.6
26878.6
26878.6
18918.1
18918.2
18918.2
18918.3
18918.3
18918.3
10149.7
10149.8
10149.8
10149.8
10149.8
10149.8
6436.97
6437.22
6437.23
6437.23
6437.21
6437.05
966.389
966.512
966.512
966.512
966.514
966.43
166.533
166.535
166.537
166.538
166.539
166.539
132.748
132.75
132.753
132.753
132.75
132.748
141.105
141.105
141.103
141.103
141.101
141.097
)
;
    }
    seabed_topright_surface
    {
        type            fixedFluxPressure;
        gradient        uniform 0;
        value           nonuniform List<scalar> 
72
(
0.0537024
0.0536383
0.0536181
0.0536201
0.0536297
0.0536397
0.05671
0.0566704
0.0566663
0.0566792
0.0567015
0.0567311
0.0630301
0.0630092
0.0630162
0.0630348
0.0630603
0.0630903
0.0727216
0.0727212
0.0727352
0.0727544
0.0727765
0.0728
0.0859092
0.0859264
0.0859402
0.0859517
0.0859618
0.0859714
0.102744
0.102763
0.102766
0.102761
0.102753
0.102744
0.123408
0.123407
0.123389
0.123365
0.12334
0.123317
0.14823
0.148197
0.148161
0.148126
0.148097
0.148075
0.176909
0.176847
0.176808
0.176782
0.176767
0.176764
0.207941
0.207872
0.207849
0.207849
0.207863
0.207888
0.235977
0.235925
0.23593
0.23596
0.236003
0.236053
0.260037
0.260033
0.260064
0.260112
0.260169
0.260228
)
;
    }
    breakwater_top_surface
    {
        type            fixedFluxPressure;
        gradient        uniform 0;
        value           nonuniform List<scalar> 
36
(
0.982962
0.982951
0.982855
0.982698
0.982538
0.982441
1.26848
1.26844
1.26834
1.26815
1.26797
1.2679
1.56498
1.56504
1.56498
1.56478
1.56459
1.56453
2.00514
2.00528
2.00529
2.0051
2.00485
2.00466
1.86932
1.86946
1.86954
1.86945
1.86921
1.86891
-2.34972
-2.3496
-2.34951
-2.34968
-2.35004
-2.35034
)
;
    }
    breakwater_left_surface
    {
        type            fixedFluxPressure;
        gradient        uniform 0;
        value           nonuniform List<scalar> 
24
(
141.105
141.105
141.103
141.103
141.101
141.097
115.689
115.689
115.687
115.687
115.687
115.685
54.6832
54.6845
54.6833
54.6818
54.6814
54.6804
20.7778
20.777
20.7763
20.7763
20.7764
20.7762
)
;
    }
    breakwater_right_surface
    {
        type            fixedFluxPressure;
        gradient        uniform 0;
        value           nonuniform List<scalar> 
24
(
0.260037
0.260033
0.260064
0.260112
0.260169
0.260228
0.265908
0.265951
0.266005
0.266064
0.266128
0.266199
0.355276
0.35534
0.355384
0.355414
0.355436
0.355452
0.309548
0.309577
0.30957
0.309533
0.309476
0.309414
)
;
    }
    water_front_surface
    {
        type            fixedFluxPressure;
        gradient        uniform 0;
        value           nonuniform List<scalar> 
186
(
40507.1
39521.3
36758.7
32797.4
26878.5
18918.1
10149.7
6436.97
966.389
166.533
132.748
141.105
40837
39121
35642.8
29967.2
19932.9
7524.19
179.958
-102.773
-151.306
28.2017
97.6976
115.689
41522.3
38882.4
33948.4
18888.5
2839.45
-42.38
-33.6272
-76.5454
-108.749
-54.4922
32.2609
54.6832
43099.2
39795
16516.2
20.264
-41.1162
-36.086
-21.3878
-56.4616
-71.9044
-38.3736
8.26213
20.7778
0.0537024
0.05671
0.0630301
0.0727216
0.0859092
0.102744
0.123408
0.14823
0.176909
0.207941
0.235977
0.260037
0.0510148
0.0540522
0.0604081
0.0701918
0.083577
0.100742
0.121722
0.1461
0.17335
0.203471
0.235348
0.265908
0.0459398
0.0488553
0.0549651
0.0644657
0.0777208
0.0953336
0.118407
0.14935
0.190703
0.243299
0.298089
0.355276
0.0385958
0.0412239
0.0467497
0.0554476
0.0678282
0.0846581
0.106778
0.13441
0.167957
0.208675
0.26481
0.309548
51721.3
34387.7
10391.8
18561.8
17.6955
-53.8279
5.89566
-12.8814
-35.9382
-6.5878
-7.70902
-10.5047
-25.7785
-12.9569
-4.73283
-27.31
-13.4372
-4.00455
-23.8795
-13.5827
-4.0308
-29.3338
-15.6825
-4.15105
-30.0239
-11.6185
-2.94668
-11.7857
-2.35854
-0.36414
6.8469
4.92226
1.67352
9.6441
7.29358
3.17113
0.982962
0.87878
0.408422
1.26848
1.25067
0.598594
1.56498
1.79069
0.880243
2.00514
2.63825
1.28587
1.86932
3.72019
1.84435
-2.34972
4.5918
2.5424
0.0292448
0.0182648
0.0063236
0.0313425
0.0196185
0.00681115
0.0357808
0.0224927
0.00784841
0.042898
0.0271557
0.00955035
0.0533767
0.034149
0.0121506
0.0685408
0.0445112
0.0161094
0.0911191
0.0601652
0.0223129
0.126257
0.0844179
0.0324159
0.183052
0.123338
0.0496176
0.275006
0.18774
0.0800374
0.426508
0.306261
0.13728
0.642328
0.516664
0.240236
)
;
    }
    water_back_surface
    {
        type            fixedFluxPressure;
        gradient        uniform 0;
        value           nonuniform List<scalar> 
186
(
40507.1
39521.2
36758.5
32797.3
26878.6
18918.3
10149.8
6437.05
966.43
166.539
132.748
141.097
40837.1
39120.9
35642.7
29967.2
19933.2
7524.38
179.968
-102.777
-151.304
28.1976
97.6942
115.685
41522.3
38882.4
33948.5
18889.1
2839.76
-42.3814
-33.6292
-76.5537
-108.753
-54.4975
32.2568
54.6804
43099.2
39795
16517.1
20.2642
-41.1195
-36.0837
-21.3934
-56.4639
-71.9037
-38.3753
8.25977
20.7762
0.0536397
0.0567311
0.0630903
0.0728
0.0859714
0.102744
0.123317
0.148075
0.176764
0.207888
0.236053
0.260228
0.051028
0.0541312
0.060507
0.0702824
0.0836177
0.100696
0.121593
0.145953
0.173285
0.203556
0.235568
0.266199
0.0459789
0.0489467
0.0550646
0.0645433
0.077737
0.0952664
0.118287
0.149269
0.190755
0.243493
0.298324
0.355452
0.0386459
0.0413127
0.0468387
0.0555084
0.0678308
0.0846014
0.106715
0.134432
0.168118
0.2089
0.264906
0.309414
51721.4
34388.1
10392.1
18562.2
17.6964
-53.8247
5.89135
-12.8792
-35.938
-6.58503
-7.7067
-10.5044
-25.7766
-12.9567
-4.73306
-27.3097
-13.4391
-4.00502
-23.8814
-13.5838
-4.031
-29.3354
-15.683
-4.15125
-30.0243
-11.6182
-2.94644
-11.7862
-2.35673
-0.363099
6.84762
4.92538
1.67483
9.64517
7.29563
3.17165
0.982441
0.878288
0.408216
1.2679
1.25021
0.598423
1.56453
1.79037
0.880116
2.00466
2.6378
1.28569
1.86891
3.71955
1.84401
-2.35034
4.59187
2.54208
0.029296
0.0183077
0.00634536
0.0314192
0.0196749
0.00683582
0.035853
0.0225432
0.00786934
0.0429435
0.0271873
0.00956384
0.0533806
0.0341601
0.0121599
0.0685189
0.0445236
0.0161283
0.0911284
0.0602225
0.0223594
0.126363
0.0845485
0.0324913
0.183251
0.123494
0.049679
0.275156
0.187763
0.0800025
0.426392
0.306014
0.137127
0.641879
0.51621
0.240057
)
;
    }
    water_left_surface
    {
        type            fixedFluxPressure;
        gradient        uniform 0;
        value           nonuniform List<scalar> 
42
(
40507.1
40507.1
40507.1
40507.1
40507.1
40507.1
40837
40837
40837.1
40837.1
40837.1
40837.1
41522.3
41522.3
41522.3
41522.3
41522.3
41522.3
43099.2
43099.2
43099.2
43099.2
43099.2
43099.2
51721.3
51721.4
51721.4
51721.4
51721.4
51721.4
34387.7
34387.9
34387.8
34387.8
34387.8
34388.1
10391.8
10391.9
10391.9
10391.9
10391.9
10392.1
)
;
    }
    water_right_surface
    {
        type            fixedFluxPressure;
        gradient        uniform 0;
        value           nonuniform List<scalar> 
42
(
0.0537024
0.0536383
0.0536181
0.0536201
0.0536297
0.0536397
0.0510148
0.0509717
0.0509653
0.0509769
0.0509984
0.051028
0.0459398
0.0459082
0.0459088
0.0459243
0.0459485
0.0459789
0.0385958
0.0385747
0.0385793
0.0385953
0.0386183
0.0386459
0.0292448
0.0292335
0.0292397
0.0292541
0.0292734
0.029296
0.0182648
0.0182617
0.0182678
0.0182783
0.0182918
0.0183077
0.0063236
0.00632466
0.00632786
0.00633224
0.00633794
0.00634536
)
;
    }
    water_top_surface
    {
        type            totalPressure;
        rho             rho;
        psi             none;
        gamma           1;
        p0              uniform 0;
        value           nonuniform List<scalar> 
180
(
0
0
0
0
0
0
-53.5806
-53.5817
-53.5793
-53.578
-53.5767
-53.573
-20.8383
-20.8385
-20.8391
-20.8396
-20.8409
-20.8405
-5.58264
-5.58177
-5.58219
-5.58272
-5.58321
-5.58354
-2.99831
-2.99866
-2.99908
-2.99944
-2.99972
-2.99981
-1.18834
-1.18858
-1.18863
-1.18859
-1.18851
-1.18834
-0.746007
-0.745925
-0.745849
-0.745772
-0.745675
-0.745572
0
0
0
0
0
0
0
0
0
0
0
0
0
0
0
0
0
0
0
0
0
0
0
0
0
0
0
0
0
0
0
0
0
0
0
0
0
0
0
0
0
0
0
0
0
0
0
0
0
0
0
0
0
0
0
0
0
0
0
0
0
0
0
0
0
0
0
0
0
0
0
0
0
0
0
0
0
0
0
0
0
0
0
0
0
0
0
0
0
0
0
0
0
0
0
0
0
0
0
0
0
0
0
0
0
0
0
0
0
0
0
0
0
0
0
0
0
0
0
0
0
0
0
0
0
0
0
0
0
0
0
0
0
0
0
0
0
0
)
;
    }
}


// ************************************************************************* //
