/*--------------------------------*- C++ -*----------------------------------*\
| =========                 |                                                 |
| \\      /  F ield         | OpenFOAM: The Open Source CFD Toolbox           |
|  \\    /   O peration     | Version:  v1612+                                |
|   \\  /    A nd           | Web:      www.OpenFOAM.com                      |
|    \\/     M anipulation  |                                                 |
\*---------------------------------------------------------------------------*/
FoamFile
{
    version     2.0;
    format      ascii;
    class       volVectorField;
    location    "1.3";
    object      U;
}
// * * * * * * * * * * * * * * * * * * * * * * * * * * * * * * * * * * * * * //

dimensions      [0 1 -1 0 0 0 0];

internalField   nonuniform List<vector> 
1116
(
(0.387976 1.73868e-07 -0.402341)
(0.387977 2.96667e-07 -0.402343)
(0.387977 4.50844e-07 -0.402343)
(0.387977 9.41651e-07 -0.402344)
(0.387977 1.36931e-06 -0.402344)
(0.387977 8.0792e-07 -0.402343)
(1.07823 7.37586e-07 -0.505678)
(1.07823 7.70772e-07 -0.50568)
(1.07823 1.18426e-06 -0.50568)
(1.07823 1.40945e-06 -0.505679)
(1.07823 1.00762e-06 -0.505679)
(1.07823 -1.72827e-07 -0.505677)
(2.18796 1.13524e-06 -0.642532)
(2.18796 3.85921e-06 -0.642533)
(2.18796 5.25263e-06 -0.64253)
(2.18796 3.33285e-06 -0.642527)
(2.18796 1.48929e-06 -0.642526)
(2.18795 -5.93581e-07 -0.642524)
(3.38352 -3.02851e-06 -0.794927)
(3.38353 1.5945e-06 -0.794932)
(3.38353 4.06271e-06 -0.794926)
(3.38352 1.53009e-06 -0.794922)
(3.38352 -8.87514e-07 -0.794922)
(3.38351 -4.08489e-08 -0.794926)
(4.76835 -1.63913e-05 -0.76448)
(4.76835 -1.09134e-05 -0.764511)
(4.76834 1.67905e-06 -0.764505)
(4.76834 1.34453e-06 -0.764502)
(4.76834 3.06243e-06 -0.764503)
(4.76834 5.15634e-06 -0.764503)
(6.29796 -2.67365e-05 -0.778913)
(6.29797 -2.41908e-05 -0.778954)
(6.29797 -1.39944e-06 -0.778948)
(6.29797 2.80716e-06 -0.778944)
(6.29797 5.11093e-06 -0.778946)
(6.29798 5.39143e-06 -0.778933)
(7.63379 -2.15823e-05 -1.22329)
(7.63389 -2.37141e-05 -1.22329)
(7.63389 -2.21538e-06 -1.22328)
(7.63389 7.08587e-06 -1.22328)
(7.6339 8.83336e-06 -1.22329)
(7.6339 5.25305e-06 -1.22327)
(9.02981 7.85747e-06 -1.626)
(9.02996 6.55145e-06 -1.626)
(9.02994 -7.43083e-06 -1.62598)
(9.02994 -9.29103e-06 -1.62598)
(9.02998 -1.15975e-05 -1.62601)
(9.02992 -1.4187e-06 -1.62595)
(10.6437 -7.01343e-06 -1.45879)
(10.6438 -6.6161e-06 -1.45884)
(10.6438 -1.78933e-05 -1.45881)
(10.6438 -2.80649e-05 -1.45881)
(10.6438 -3.15829e-05 -1.45884)
(10.6437 -2.34115e-08 -1.45873)
(11.9177 -3.59532e-05 0.605718)
(11.9179 -3.6787e-05 0.605554)
(11.9178 -4.86242e-05 0.605603)
(11.9179 -7.00394e-05 0.605621)
(11.9178 -3.64231e-05 0.605587)
(11.9176 3.94408e-05 0.605905)
(7.79557 4.28291e-05 1.99914)
(7.79644 0.000122095 1.99905)
(7.7962 0.000165167 1.99906)
(7.79614 0.000255406 1.99906)
(7.79598 0.000355894 1.99911)
(7.7951 0.000236687 1.99941)
(2.13022 -5.35591e-05 2.12261)
(2.13087 7.34312e-05 2.12271)
(2.13079 0.000287694 2.12275)
(2.13073 0.000396132 2.12278)
(2.13067 0.000422538 2.12283)
(2.13035 0.000200039 2.12287)
(0.38689 2.16595e-07 -1.02526)
(0.386891 8.41296e-07 -1.02527)
(0.38689 8.67692e-07 -1.02527)
(0.386889 6.26455e-07 -1.02526)
(0.386889 6.36115e-09 -1.02526)
(0.386889 -1.54024e-07 -1.02526)
(0.954958 1.18396e-06 -1.35541)
(0.954963 4.01578e-06 -1.35541)
(0.95496 3.62246e-06 -1.35541)
(0.954958 9.78781e-07 -1.35541)
(0.954959 -2.34706e-08 -1.3554)
(0.954956 -1.27521e-07 -1.3554)
(1.97665 2.64946e-06 -1.6032)
(1.97667 1.09989e-05 -1.6032)
(1.97667 5.39971e-06 -1.60319)
(1.97667 2.18806e-06 -1.60319)
(1.97667 -2.66816e-07 -1.60319)
(1.97666 3.62735e-06 -1.60318)
(2.77127 -4.1265e-06 -2.01359)
(2.7713 3.04285e-06 -2.0136)
(2.7713 3.88434e-06 -2.01358)
(2.7713 1.24036e-06 -2.01358)
(2.77129 3.57249e-06 -2.01358)
(2.77127 8.517e-06 -2.01358)
(4.21762 -6.07027e-06 -2.60723)
(4.21767 -4.42333e-06 -2.60732)
(4.21767 1.29695e-05 -2.6073)
(4.21766 4.09637e-06 -2.60729)
(4.21766 1.42353e-05 -2.6073)
(4.21765 8.04346e-06 -2.60729)
(6.15226 -2.77695e-06 -2.71487)
(6.15237 -8.00156e-06 -2.71513)
(6.15237 2.66746e-05 -2.71511)
(6.15237 9.79144e-06 -2.71509)
(6.15237 2.6698e-05 -2.7151)
(6.15233 5.94665e-06 -2.71507)
(8.16322 2.57805e-05 -2.2637)
(8.16344 3.61549e-06 -2.26406)
(8.16339 2.08191e-05 -2.26402)
(8.16339 -7.00017e-06 -2.26399)
(8.16344 1.22649e-05 -2.264)
(8.16341 -1.33323e-05 -2.26397)
(8.99031 -3.59709e-05 -3.54641)
(8.99136 -0.000139711 -3.54654)
(8.99117 -0.000112063 -3.54653)
(8.99111 -8.50709e-05 -3.54653)
(8.99132 -6.28944e-05 -3.54663)
(8.99134 -9.617e-05 -3.54655)
(13.0238 -7.6928e-05 0.1508)
(13.024 -0.000236063 0.150355)
(13.024 -0.000296824 0.150401)
(13.024 -0.000249752 0.150415)
(13.0244 -0.000370526 0.150324)
(13.0239 -0.000252916 0.150828)
(12.4705 3.59915e-05 3.82056)
(12.4708 -9.32171e-05 3.82023)
(12.4707 -0.000277975 3.82029)
(12.4707 -0.000174812 3.8203)
(12.4711 -0.000283762 3.82028)
(12.4699 -0.000174428 3.82073)
(6.89598 9.05813e-05 6.129)
(6.89752 0.000119231 6.12876)
(6.89702 2.77258e-05 6.12878)
(6.89699 0.000109105 6.12883)
(6.89754 1.05789e-05 6.12891)
(6.89574 -2.2085e-05 6.12952)
(2.61507 -0.000130074 6.20412)
(2.61584 6.0922e-05 6.2045)
(2.61579 0.000398469 6.20464)
(2.61574 0.000450079 6.20475)
(2.61579 0.0005214 6.20489)
(2.61543 0.000279944 6.20493)
(0.248974 1.82994e-06 -1.63105)
(0.248976 5.16218e-06 -1.63105)
(0.248975 5.31945e-06 -1.63105)
(0.248975 2.95223e-06 -1.63105)
(0.248975 2.5636e-06 -1.63105)
(0.248975 1.38428e-06 -1.63104)
(0.640966 4.87719e-06 -2.0323)
(0.640984 1.39974e-05 -2.0323)
(0.640983 7.68982e-06 -2.0323)
(0.640983 4.75357e-06 -2.03229)
(0.640983 3.23797e-06 -2.03229)
(0.640978 6.08977e-06 -2.03228)
(1.12125 6.93483e-06 -2.38214)
(1.12129 1.34388e-05 -2.38214)
(1.1213 6.02655e-06 -2.38212)
(1.1213 3.79465e-06 -2.38212)
(1.1213 6.83139e-06 -2.38212)
(1.12129 9.28161e-06 -2.38209)
(2.37483 2.02623e-05 -3.58949)
(2.3749 9.67909e-06 -3.58954)
(2.3749 2.40067e-05 -3.58951)
(2.37489 7.12536e-06 -3.58951)
(2.37488 2.6824e-05 -3.58951)
(2.37487 3.05599e-06 -3.58948)
(4.28138 5.66187e-05 -4.55672)
(4.28153 2.48542e-05 -4.5569)
(4.28151 7.44018e-05 -4.55685)
(4.2815 2.56822e-05 -4.55685)
(4.28149 7.43336e-05 -4.55685)
(4.28145 1.7666e-06 -4.55679)
(4.93097 9.3598e-05 -4.73511)
(4.93134 2.58733e-05 -4.73545)
(4.93133 9.47209e-05 -4.73534)
(4.93134 3.31141e-05 -4.73532)
(4.93138 0.000104738 -4.73535)
(4.93131 3.9022e-06 -4.73528)
(5.95313 0.000116848 -2.07867)
(5.95377 -1.88071e-05 -2.07929)
(5.95358 -6.73072e-05 -2.07919)
(5.95353 -4.72408e-05 -2.07916)
(5.95375 -5.18736e-06 -2.07932)
(5.9538 -7.17851e-05 -2.07939)
(3.08846 7.78819e-05 -5.39013)
(3.08944 -2.76902e-05 -5.39007)
(3.08876 -0.00022403 -5.39017)
(3.0886 -0.00014805 -5.39022)
(3.08922 -0.000186746 -5.39042)
(3.08929 -0.000175024 -5.39019)
(1.30793 -9.39625e-05 -0.596851)
(1.30864 -0.000164604 -0.597157)
(1.30813 -0.000235383 -0.597164)
(1.30798 -0.000195178 -0.597278)
(1.30873 -0.000365986 -0.597611)
(1.30837 -0.000281605 -0.597408)
(3.33531 6.17825e-05 7.24379)
(3.33572 5.9208e-05 7.24338)
(3.33533 -6.63365e-05 7.24335)
(3.33534 6.67738e-06 7.24332)
(3.33609 -0.000249987 7.24333)
(3.33518 -0.000252674 7.24369)
(1.22466 9.69287e-05 9.3065)
(1.22565 0.000295457 9.30653)
(1.22536 0.000343325 9.3066)
(1.22546 0.000311074 9.30682)
(1.22612 0.000225668 9.30718)
(1.22523 8.66613e-05 9.30744)
(2.0655 -0.000138853 8.0712)
(2.06593 -0.000109598 8.07183)
(2.06594 5.55124e-05 8.07207)
(2.06593 3.73354e-05 8.07231)
(2.06603 0.000129317 8.07263)
(2.06594 0.000108493 8.07262)
(-0.0682748 8.9141e-06 -2.34037)
(-0.0682674 1.44605e-05 -2.34038)
(-0.0682657 8.54615e-06 -2.34038)
(-0.0682651 5.90756e-06 -2.34038)
(-0.0682646 4.71767e-06 -2.34038)
(-0.0682594 3.71706e-06 -2.34038)
(-0.0195215 4.6178e-06 -2.18327)
(-0.0194909 1.38062e-05 -2.18327)
(-0.0194871 1.83765e-06 -2.18327)
(-0.0194869 2.66986e-06 -2.18327)
(-0.0194896 -2.58795e-06 -2.18327)
(-0.0194772 6.65863e-06 -2.18326)
(1.06614 1.9446e-05 -3.72117)
(1.06623 -6.42179e-06 -3.72116)
(1.06624 1.25897e-05 -3.72113)
(1.06624 -4.52317e-06 -3.72113)
(1.06623 9.57555e-06 -3.72113)
(1.06625 -1.76218e-05 -3.72108)
(2.99208 5.42187e-05 -4.93423)
(2.99225 3.64624e-05 -4.93431)
(2.99224 7.5894e-05 -4.93427)
(2.99224 4.25391e-05 -4.93427)
(2.99225 8.58505e-05 -4.93426)
(2.99237 1.06437e-05 -4.93423)
(4.4306 0.000146845 -5.29116)
(4.43109 0.000120431 -5.29141)
(4.43113 0.000154468 -5.29134)
(4.43114 6.30775e-05 -5.29134)
(4.43115 7.5463e-05 -5.29132)
(4.43114 -4.01082e-05 -5.2912)
(2.19471 4.88427e-05 -2.12119)
(2.19534 -5.74163e-05 -2.12177)
(2.19534 1.24589e-05 -2.12154)
(2.19537 1.15653e-05 -2.12148)
(2.19552 5.16877e-05 -2.12161)
(2.1954 -4.99164e-06 -2.12151)
(-1.08578 -4.3993e-05 -0.733768)
(-1.08573 6.9869e-06 -0.733608)
(-1.08602 5.31352e-05 -0.733626)
(-1.08598 0.000111738 -0.73362)
(-1.08558 0.000118895 -0.733831)
(-1.0854 2.27022e-05 -0.734266)
(-2.67388 2.97273e-06 -0.650228)
(-2.67418 8.93819e-05 -0.649932)
(-2.67424 7.64998e-05 -0.65009)
(-2.67416 6.18749e-05 -0.650225)
(-2.67375 -5.81651e-05 -0.650485)
(-2.67377 -0.000122308 -0.650926)
(-4.012 8.52256e-05 2.64588)
(-4.01222 0.000169362 2.64584)
(-4.01239 7.24151e-05 2.64557)
(-4.01235 6.25478e-05 2.64543)
(-4.01189 -8.50622e-05 2.64535)
(-4.01216 -0.000135877 2.64498)
(-2.57731 0.000105246 7.16686)
(-2.57729 0.000219214 7.16673)
(-2.5774 0.000148168 7.16659)
(-2.57727 9.77994e-05 7.16665)
(-2.57671 -4.25609e-05 7.16695)
(-2.57713 -8.69251e-05 7.16671)
(-0.621916 2.9197e-05 8.23996)
(-0.621628 6.01547e-05 8.24026)
(-0.621554 7.11025e-06 8.24051)
(-0.621406 -6.36753e-05 8.24088)
(-0.621069 -6.56222e-05 8.24157)
(-0.621177 -2.57825e-05 8.24146)
(1.12612 -8.26234e-05 6.96887)
(1.12638 -0.000155047 6.96947)
(1.12643 -0.000157004 6.96971)
(1.12649 -0.000169901 6.97001)
(1.12661 -0.000117405 6.97041)
(1.12656 -3.51662e-05 6.97036)
(0.000936264 3.60466e-07 0.000947107)
(0.000936366 5.42845e-07 0.000947061)
(0.000936421 2.01775e-07 0.00094701)
(0.000936468 -4.56055e-08 0.000946964)
(0.000936516 -1.06179e-07 0.000946917)
(0.000936553 -4.07271e-08 0.000946822)
(0.00284498 2.11192e-07 0.000983231)
(0.0028452 2.94637e-07 0.000983198)
(0.00284529 1.42971e-09 0.000983154)
(0.00284536 -2.3192e-07 0.000983119)
(0.00284542 -3.28766e-07 0.000983079)
(0.00284541 -1.63664e-07 0.000982993)
(0.00485726 1.18564e-07 0.00105213)
(0.00485752 1.30568e-07 0.00105211)
(0.0048576 -1.15425e-07 0.00105207)
(0.00485763 -2.97647e-07 0.00105205)
(0.00485763 -3.59625e-07 0.00105202)
(0.00485748 -1.73284e-07 0.00105194)
(0.00702958 2.34006e-08 0.00114522)
(0.0070299 -5.28609e-08 0.00114522)
(0.00702997 -2.10682e-07 0.0011452)
(0.00702995 -2.80871e-07 0.00114519)
(0.00702991 -3.14437e-07 0.00114518)
(0.00702964 -1.50677e-07 0.00114512)
(0.0093979 -4.46742e-08 0.0012465)
(0.00939824 -1.68206e-07 0.00124653)
(0.00939824 -2.10575e-07 0.00124655)
(0.00939816 -1.65904e-07 0.00124655)
(0.00939807 -1.82141e-07 0.00124657)
(0.00939768 -8.48272e-08 0.00124654)
(0.011956 -7.34578e-08 0.00132784)
(0.0119564 -1.50097e-07 0.00132791)
(0.0119563 -6.15145e-08 0.00132795)
(0.0119562 5.55833e-08 0.00132798)
(0.0119561 3.80346e-08 0.00132801)
(0.0119556 1.66535e-08 0.001328)
(0.0146383 1.8666e-08 0.0013519)
(0.0146386 2.36992e-08 0.00135198)
(0.0146384 1.49941e-07 0.00135204)
(0.0146383 2.89086e-07 0.00135205)
(0.0146382 2.40415e-07 0.00135209)
(0.0146377 1.14941e-07 0.00135208)
(0.0172702 1.80241e-07 0.00131372)
(0.0172706 3.44124e-07 0.00131378)
(0.0172704 4.05042e-07 0.00131381)
(0.0172703 4.58838e-07 0.0013138)
(0.0172703 3.87177e-07 0.00131379)
(0.0172697 1.86178e-07 0.00131374)
(0.0193384 3.59574e-07 0.00123525)
(0.0193389 6.79748e-07 0.00123527)
(0.0193388 6.00757e-07 0.00123526)
(0.0193388 5.03438e-07 0.00123523)
(0.0193389 3.76188e-07 0.00123521)
(0.0193383 1.64488e-07 0.00123514)
(0.0195533 4.27615e-07 0.000781099)
(0.0195539 7.98077e-07 0.000781151)
(0.0195539 5.68168e-07 0.000781144)
(0.019554 3.17276e-07 0.000781149)
(0.0195541 1.48003e-07 0.000781156)
(0.0195536 3.44933e-08 0.000781124)
(0.0175267 4.82609e-07 -0.00110658)
(0.0175273 6.66225e-07 -0.00110661)
(0.0175275 2.68469e-07 -0.00110661)
(0.0175277 4.37755e-09 -0.00110663)
(0.0175278 -2.14065e-07 -0.00110662)
(0.0175273 -1.63704e-07 -0.00110657)
(0.00900585 1.44337e-07 -0.00514189)
(0.00900625 4.20265e-08 -0.00514216)
(0.0090064 -3.22237e-07 -0.00514227)
(0.00900652 -4.91348e-07 -0.00514235)
(0.00900661 -6.40609e-07 -0.0051424)
(0.00900633 -3.15788e-07 -0.00514227)
(0.000920623 2.17297e-07 0.00276872)
(0.000920707 2.92093e-07 0.0027687)
(0.000920751 1.07595e-08 0.00276863)
(0.000920786 -2.29624e-07 0.00276857)
(0.000920823 -3.26874e-07 0.00276851)
(0.000920848 -1.74428e-07 0.00276836)
(0.0028021 1.05225e-07 0.00288041)
(0.00280228 1.01148e-07 0.00288041)
(0.00280236 -1.43679e-07 0.00288035)
(0.00280241 -3.69936e-07 0.00288031)
(0.00280245 -5.04654e-07 0.00288027)
(0.00280242 -2.73792e-07 0.00288013)
(0.00480079 4.97278e-08 0.00309537)
(0.004801 -1.65484e-08 0.0030954)
(0.00480106 -2.33168e-07 0.00309536)
(0.00480107 -4.03836e-07 0.00309533)
(0.00480106 -5.06701e-07 0.00309531)
(0.00480089 -2.69325e-07 0.00309518)
(0.00698496 -3.45833e-09 0.00339036)
(0.00698522 -1.20911e-07 0.00339043)
(0.00698525 -2.65497e-07 0.00339042)
(0.0069852 -3.4318e-07 0.00339042)
(0.00698513 -4.09419e-07 0.00339042)
(0.00698483 -2.14091e-07 0.00339031)
(0.00940472 -2.24259e-08 0.00371455)
(0.00940501 -1.29742e-07 0.00371468)
(0.00940495 -1.8412e-07 0.00371473)
(0.00940485 -1.67623e-07 0.00371476)
(0.00940472 -1.92901e-07 0.00371479)
(0.00940429 -1.02409e-07 0.00371471)
(0.0120608 2.39114e-10 0.00396425)
(0.0120611 -2.01392e-08 0.00396445)
(0.012061 2.19312e-08 0.00396454)
(0.0120608 9.75162e-08 0.00396458)
(0.0120607 9.12244e-08 0.00396462)
(0.0120602 3.45108e-08 0.00396453)
(0.0148329 1.12176e-07 0.0039285)
(0.0148333 2.20812e-07 0.0039287)
(0.0148331 2.85091e-07 0.00392879)
(0.014833 3.62809e-07 0.0039288)
(0.0148329 3.4726e-07 0.0039288)
(0.0148324 1.56741e-07 0.00392867)
(0.0174363 2.88212e-07 0.00317126)
(0.0174367 5.43456e-07 0.00317139)
(0.0174366 5.25404e-07 0.00317141)
(0.0174366 4.84477e-07 0.00317135)
(0.0174366 4.0288e-07 0.00317128)
(0.0174361 1.79833e-07 0.0031711)
(0.0196296 4.22249e-07 0.000858426)
(0.0196301 7.88056e-07 0.000858485)
(0.0196301 6.55272e-07 0.00085843)
(0.0196302 5.08086e-07 0.000858339)
(0.0196303 3.25982e-07 0.000858252)
(0.0196297 9.3949e-08 0.000858116)
(0.0213015 5.36932e-07 -0.00415262)
(0.021302 8.64442e-07 -0.00415264)
(0.0213021 5.3357e-07 -0.00415267)
(0.0213022 2.93779e-07 -0.00415271)
(0.0213023 -1.47454e-08 -0.00415275)
(0.0213017 -1.21777e-07 -0.00415269)
(0.0213943 4.02737e-07 -0.0113718)
(0.0213948 4.60157e-07 -0.011372)
(0.0213948 3.13871e-08 -0.0113721)
(0.0213949 -2.36062e-07 -0.0113721)
(0.021395 -5.99226e-07 -0.0113721)
(0.0213943 -4.42384e-07 -0.0113718)
(0.0144758 -1.46047e-07 -0.0241287)
(0.0144762 -5.01127e-07 -0.0241296)
(0.0144763 -8.00878e-07 -0.0241298)
(0.0144763 -8.80331e-07 -0.0241299)
(0.0144763 -1.11442e-06 -0.0241299)
(0.0144759 -6.03892e-07 -0.0241291)
(0.000866181 1.48585e-07 0.00448918)
(0.000866248 1.85403e-07 0.00448926)
(0.000866288 -5.86281e-08 0.00448922)
(0.000866312 -2.71009e-07 0.0044892)
(0.000866341 -3.38797e-07 0.0044892)
(0.000866355 -1.75218e-07 0.00448906)
(0.00264607 6.4201e-08 0.00468959)
(0.00264621 2.71888e-08 0.00468969)
(0.00264628 -1.87904e-07 0.00468966)
(0.00264631 -3.79782e-07 0.00468966)
(0.00264634 -4.86874e-07 0.00468967)
(0.00264629 -2.57362e-07 0.00468954)
(0.00456956 2.72004e-08 0.00508175)
(0.00456974 -5.272e-08 0.00508188)
(0.00456977 -2.46658e-07 0.00508187)
(0.00456976 -3.95412e-07 0.00508188)
(0.00456974 -4.77849e-07 0.0050819)
(0.00456956 -2.48554e-07 0.00508178)
(0.00673809 6.99598e-09 0.00563939)
(0.00673831 -9.12897e-08 0.00563956)
(0.00673829 -2.35503e-07 0.00563958)
(0.00673824 -3.16699e-07 0.00563961)
(0.00673816 -3.73386e-07 0.00563965)
(0.00673786 -1.93355e-07 0.00563951)
(0.00926354 2.0687e-08 0.00629643)
(0.00926379 -3.48797e-08 0.00629667)
(0.00926371 -1.12565e-07 0.00629672)
(0.0092636 -1.36123e-07 0.00629676)
(0.00926349 -1.72183e-07 0.0062968)
(0.00926308 -9.27128e-08 0.00629664)
(0.0122825 9.76505e-08 0.00691396)
(0.0122828 1.45153e-07 0.00691426)
(0.0122827 1.06581e-07 0.00691432)
(0.0122826 1.0517e-07 0.00691434)
(0.0122825 6.6539e-08 0.00691434)
(0.012282 2.0808e-08 0.00691411)
(0.0160244 2.27169e-07 0.00724817)
(0.0160248 4.0833e-07 0.00724845)
(0.0160247 3.47871e-07 0.00724846)
(0.0160246 3.02805e-07 0.00724841)
(0.0160246 2.40496e-07 0.00724833)
(0.0160241 1.07027e-07 0.007248)
(0.0208742 3.7897e-07 0.00695067)
(0.0208747 6.71022e-07 0.00695087)
(0.0208747 5.08442e-07 0.00695078)
(0.0208748 3.77484e-07 0.00695065)
(0.0208748 2.35982e-07 0.00695051)
(0.0208743 8.50918e-08 0.00695016)
(0.0268326 4.83178e-07 0.00561263)
(0.0268333 7.69842e-07 0.00561282)
(0.0268334 4.54597e-07 0.00561275)
(0.0268335 2.54315e-07 0.00561263)
(0.0268336 5.0666e-09 0.00561252)
(0.0268329 -6.89245e-08 0.00561228)
(0.0311673 3.54063e-07 0.00244823)
(0.031168 4.63499e-07 0.00244849)
(0.0311679 5.9967e-08 0.00244853)
(0.031168 -1.76824e-07 0.00244853)
(0.031168 -4.92589e-07 0.00244853)
(0.0311671 -3.4006e-07 0.00244849)
(0.0335749 -3.07202e-08 -0.00546931)
(0.0335756 -3.66224e-07 -0.00546937)
(0.0335755 -7.15887e-07 -0.00546929)
(0.0335753 -7.45446e-07 -0.00546915)
(0.0335751 -9.91819e-07 -0.00546909)
(0.0335741 -5.66498e-07 -0.00546887)
(0.021158 -9.8753e-07 -0.0224272)
(0.0211587 -1.54899e-06 -0.0224282)
(0.0211585 -1.30902e-06 -0.0224281)
(0.0211583 -8.44154e-07 -0.0224279)
(0.0211581 -7.79666e-07 -0.0224276)
(0.0211575 -2.3386e-07 -0.0224266)
(0.000766239 8.90774e-08 0.00603597)
(0.000766292 9.00553e-08 0.00603611)
(0.000766321 -9.87188e-08 0.00603608)
(0.000766338 -2.61352e-07 0.00603608)
(0.000766359 -3.10467e-07 0.00603611)
(0.000766365 -1.58943e-07 0.00603593)
(0.0023531 2.66543e-08 0.00634316)
(0.00235321 -2.69771e-08 0.00634332)
(0.00235325 -1.94549e-07 0.00634331)
(0.00235327 -3.42916e-07 0.00634332)
(0.00235329 -4.23728e-07 0.00634336)
(0.00235324 -2.20827e-07 0.0063432)
(0.0041091 8.62779e-09 0.00695638)
(0.00410924 -6.99305e-08 0.00695657)
(0.00410925 -2.27868e-07 0.00695658)
(0.00410924 -3.46293e-07 0.0069566)
(0.00410921 -4.09658e-07 0.00695665)
(0.00410904 -2.11467e-07 0.00695647)
(0.00617125 1.2902e-08 0.00786382)
(0.00617143 -6.18578e-08 0.00786406)
(0.0061714 -1.92399e-07 0.00786409)
(0.00617134 -2.70035e-07 0.00786412)
(0.00617127 -3.19455e-07 0.00786417)
(0.006171 -1.65393e-07 0.00786396)
(0.00871148 5.19674e-08 0.00901724)
(0.0087117 3.31507e-08 0.00901755)
(0.00871161 -6.40385e-08 0.00901758)
(0.00871153 -1.17157e-07 0.00901761)
(0.00871144 -1.62994e-07 0.00901764)
(0.00871109 -8.90712e-08 0.00901737)
(0.0119144 1.47585e-07 0.0102725)
(0.0119147 2.24143e-07 0.0102728)
(0.0119146 1.25272e-07 0.0102728)
(0.0119145 5.97766e-08 0.0102728)
(0.0119145 -4.51807e-09 0.0102728)
(0.0119141 -1.4873e-08 0.0102724)
(0.0158739 2.8026e-07 0.0112491)
(0.0158743 4.63064e-07 0.0112494)
(0.0158743 3.05868e-07 0.0112493)
(0.0158743 1.71728e-07 0.0112492)
(0.0158743 5.61782e-08 0.0112491)
(0.0158739 1.24734e-09 0.0112486)
(0.0204419 4.00101e-07 0.0110593)
(0.0204425 5.85877e-07 0.0110596)
(0.0204426 2.94267e-07 0.0110594)
(0.0204427 9.7055e-08 0.0110592)
(0.0204428 -1.00437e-07 0.0110591)
(0.0204422 -1.12729e-07 0.0110586)
(0.02549 3.34821e-07 0.00778783)
(0.0254908 4.09116e-07 0.00778808)
(0.0254909 4.08437e-08 0.00778794)
(0.025491 -2.00165e-07 0.00778783)
(0.0254911 -4.62673e-07 0.00778774)
(0.0254903 -3.38537e-07 0.00778744)
(0.032497 8.34064e-08 -0.00306408)
(0.0324978 -2.11596e-07 -0.00306384)
(0.0324977 -5.64741e-07 -0.00306374)
(0.0324975 -6.28196e-07 -0.00306361)
(0.0324975 -8.50783e-07 -0.00306353)
(0.0324964 -5.54701e-07 -0.00306338)
(0.0403487 -2.32943e-07 -0.0333663)
(0.0403497 -8.61283e-07 -0.0333672)
(0.0403493 -9.00115e-07 -0.033367)
(0.0403488 -6.87709e-07 -0.0333667)
(0.0403484 -7.87307e-07 -0.0333664)
(0.040347 -5.42012e-07 -0.0333653)
(0.041308 -6.93712e-07 -0.0953455)
(0.0413103 -1.13705e-06 -0.0953521)
(0.0413102 -5.86855e-07 -0.0953524)
(0.0413097 -1.79514e-07 -0.0953513)
(0.0413091 -6.53343e-08 -0.09535)
(0.0413073 -1.36606e-07 -0.0953459)
(-0.426952 3.14706e-06 -0.699072)
(-0.426935 7.47219e-06 -0.699053)
(-0.426929 4.39629e-06 -0.699054)
(-0.42693 3.53212e-06 -0.699052)
(-0.426937 3.21295e-06 -0.699054)
(-0.426926 6.26708e-06 -0.699052)
(-2.97548 1.13251e-05 -1.9132)
(-2.97549 1.33812e-05 -1.91322)
(-2.97547 7.43829e-06 -1.91321)
(-2.97548 8.18554e-06 -1.91321)
(-2.97549 1.97494e-05 -1.91321)
(-2.97547 1.7963e-05 -1.91323)
(-3.79383 1.30973e-05 10.9145)
(-3.79381 2.0284e-05 10.9145)
(-3.79378 1.49745e-05 10.9145)
(-3.79378 1.56564e-05 10.9145)
(-3.79379 2.82865e-05 10.9145)
(-3.79377 2.32703e-05 10.9145)
(-1.29806 1.56173e-05 -2.83082)
(-1.29804 -2.13423e-05 -2.83082)
(-1.29804 1.43675e-05 -2.83082)
(-1.29804 -8.2865e-06 -2.83081)
(-1.29806 -2.58107e-07 -2.83082)
(-1.298 -4.04242e-05 -2.83079)
(-7.17955 0.000137386 -5.86161)
(-7.17957 -0.000109974 -5.86162)
(-7.17957 0.000114944 -5.86161)
(-7.17957 -9.12865e-06 -5.86154)
(-7.17958 0.000138919 -5.86146)
(-7.17954 -0.000176093 -5.86155)
(-10.1884 6.66722e-06 -10.3511)
(-10.1884 -4.86815e-05 -10.3511)
(-10.1884 -4.88248e-05 -10.3511)
(-10.1884 -6.24973e-05 -10.3511)
(-10.1884 -4.01289e-05 -10.3511)
(-10.1883 -3.10776e-05 -10.3511)
(2.14624 4.19104e-05 -5.09954)
(2.14621 -1.49964e-05 -5.09964)
(2.14619 1.89206e-05 -5.09965)
(2.14619 -4.1713e-07 -5.09964)
(2.1462 3.83087e-05 -5.09965)
(2.14619 -2.50412e-05 -5.09969)
(1.81674 1.38297e-05 -5.01415)
(1.81675 -6.9811e-06 -5.01439)
(1.8167 2.79273e-05 -5.01444)
(1.81672 3.86029e-05 -5.01444)
(1.8168 0.000105491 -5.01445)
(1.81669 6.96998e-05 -5.01457)
(-2.60647 6.29292e-06 -6.4558)
(-2.60652 1.79077e-05 -6.45585)
(-2.60651 8.59663e-06 -6.45585)
(-2.60648 8.3905e-06 -6.45587)
(-2.60642 -6.05193e-06 -6.45597)
(-2.60638 5.71783e-06 -6.45592)
(1.43005 0.000127305 -5.2429)
(1.43058 0.000178988 -5.24308)
(1.43057 0.00017731 -5.24301)
(1.43058 0.000103243 -5.24302)
(1.43064 9.56025e-05 -5.24298)
(1.43092 1.27516e-05 -5.24288)
(-4.36854 6.81768e-05 -3.6291)
(-4.36869 9.45884e-05 -3.62938)
(-4.36871 5.28932e-05 -3.6294)
(-4.3687 4.36779e-05 -3.62944)
(-4.36864 2.95012e-05 -3.62954)
(-4.36829 2.17898e-05 -3.62953)
(-3.59252 1.54298e-05 -3.34098)
(-3.59269 2.17754e-05 -3.34095)
(-3.59271 8.21787e-06 -3.34089)
(-3.59272 9.25846e-06 -3.3409)
(-3.59267 8.67283e-06 -3.34093)
(-3.59263 1.23173e-05 -3.34089)
(-0.0451103 7.17388e-05 -2.90591)
(-0.0441961 -8.07518e-06 -2.90635)
(-0.044036 1.17579e-05 -2.90626)
(-0.0439561 -5.31699e-05 -2.90625)
(-0.0438206 -8.27641e-05 -2.90629)
(-0.0438199 -0.000104065 -2.90615)
(-3.2352 5.04681e-05 -0.289475)
(-3.23534 2.16047e-05 -0.28929)
(-3.23524 -1.08135e-05 -0.289252)
(-3.23523 -1.77242e-05 -0.289209)
(-3.2352 -3.11868e-05 -0.289185)
(-3.23492 -2.45653e-05 -0.289327)
(-3.02245 -1.88522e-05 -2.44646)
(-3.02263 -1.9677e-05 -2.44643)
(-3.02268 -1.57565e-05 -2.44639)
(-3.02272 -2.04133e-05 -2.44637)
(-3.02274 9.42882e-06 -2.44636)
(-3.02267 2.38741e-05 -2.4463)
(-3.81564 -0.00012826 0.343361)
(-3.81564 -0.000163218 0.343546)
(-3.81558 -7.50026e-05 0.343646)
(-3.8155 -2.00709e-05 0.343724)
(-3.81543 4.96723e-05 0.343669)
(-3.81542 3.83283e-05 0.343343)
(-3.13214 -5.58309e-05 -0.133959)
(-3.13237 -5.00027e-05 -0.133774)
(-3.1324 -3.51102e-05 -0.133722)
(-3.13243 -2.39469e-05 -0.133622)
(-3.13243 7.88565e-06 -0.13353)
(-3.13222 2.71431e-05 -0.133586)
(-1.52885 -1.04218e-05 -1.53694)
(-1.52896 -1.29702e-05 -1.53693)
(-1.52899 -1.50639e-05 -1.5369)
(-1.52904 -1.75645e-05 -1.53687)
(-1.52909 -4.19216e-06 -1.53685)
(-1.52903 7.73599e-06 -1.53684)
(-2.38149 -2.98208e-05 -0.258342)
(-2.38175 6.0468e-05 -0.258224)
(-2.38167 0.000148689 -0.258185)
(-2.38158 0.000136046 -0.258091)
(-2.38146 0.000167094 -0.258124)
(-2.38115 7.97246e-05 -0.25848)
(-1.91712 -8.59109e-06 -0.709312)
(-1.91725 -1.04898e-05 -0.709237)
(-1.91724 3.74721e-06 -0.709198)
(-1.91721 1.40173e-05 -0.709151)
(-1.9172 6.63947e-05 -0.709133)
(-1.91706 5.29939e-05 -0.709257)
(-1.46272 9.24659e-07 -1.21647)
(-1.46281 -1.02746e-06 -1.21645)
(-1.46281 5.9688e-06 -1.21644)
(-1.4628 8.73063e-06 -1.21645)
(-1.4628 1.75745e-05 -1.21646)
(-1.46272 1.14776e-05 -1.2165)
(-3.75269 3.51774e-05 -0.372833)
(-3.75299 0.000148121 -0.37254)
(-3.75288 0.000180641 -0.372561)
(-3.75277 0.000144948 -0.3726)
(-3.75262 0.000120284 -0.372724)
(-3.75242 4.69721e-05 -0.373139)
(-2.41332 -1.34001e-05 0.582403)
(-2.41348 9.81173e-06 0.582604)
(-2.41348 5.83442e-05 0.582644)
(-2.41345 7.55784e-05 0.582635)
(-2.41343 0.000112593 0.582588)
(-2.41326 7.32008e-05 0.582398)
(-1.01422 -2.6612e-06 0.222124)
(-1.01427 -1.31972e-05 0.222247)
(-1.01429 -5.44581e-06 0.222261)
(-1.0143 6.10499e-06 0.222246)
(-1.01431 1.86898e-05 0.222228)
(-1.01425 1.43554e-05 0.222134)
(-3.8496 9.4923e-05 2.10558)
(-3.84983 0.000172783 2.10588)
(-3.84972 0.000116228 2.10572)
(-3.84961 5.53977e-05 2.10562)
(-3.84946 2.49462e-05 2.10559)
(-3.84932 9.31473e-06 2.10508)
(-2.10429 1.89319e-05 1.70584)
(-2.10441 3.97302e-05 1.70611)
(-2.10438 5.22759e-05 1.70608)
(-2.10435 3.63959e-05 1.70601)
(-2.10437 5.69241e-05 1.70595)
(-2.10424 5.11096e-05 1.70566)
(-0.891699 -1.33183e-05 1.4037)
(-0.891746 -1.77253e-05 1.40383)
(-0.891755 2.41426e-06 1.40381)
(-0.891767 1.13763e-05 1.40378)
(-0.891787 2.57446e-05 1.40375)
(-0.891752 2.16205e-05 1.40363)
(-2.72513 8.54845e-05 4.64328)
(-2.7252 9.24128e-05 4.6434)
(-2.72515 -2.33319e-05 4.64335)
(-2.72509 -9.07359e-05 4.64339)
(-2.72501 -0.000110057 4.64373)
(-2.725 -4.90033e-05 4.64323)
(-1.35776 1.7227e-05 3.16233)
(-1.3578 -2.14091e-05 3.1625)
(-1.3578 -7.45857e-05 3.16249)
(-1.35783 -0.00010182 3.16249)
(-1.35789 -6.23236e-05 3.16258)
(-1.35784 4.34731e-06 3.16231)
(-0.462325 -8.31303e-06 2.49614)
(-0.462344 -2.4947e-05 2.49625)
(-0.462362 -2.7815e-05 2.49625)
(-0.462385 -2.95032e-05 2.49624)
(-0.462415 -8.90044e-06 2.49625)
(-0.462412 9.09564e-06 2.49612)
(-0.485875 -1.70423e-05 5.44334)
(-0.4858 -0.000138497 5.44365)
(-0.485767 -0.000266308 5.44383)
(-0.485751 -0.000304256 5.44411)
(-0.485707 -0.000254654 5.44469)
(-0.485761 -9.80846e-05 5.44442)
(-0.134144 -3.40653e-05 3.73773)
(-0.134149 -0.000132228 3.73791)
(-0.134164 -0.000204098 3.73797)
(-0.134193 -0.000223664 3.73808)
(-0.13421 -0.000165957 3.73831)
(-0.134268 -4.95995e-05 3.7381)
(-0.0850208 -9.66108e-06 2.89846)
(-0.0850272 -3.59705e-05 2.89857)
(-0.0850336 -5.64057e-05 2.8986)
(-0.085043 -6.52732e-05 2.89863)
(-0.0850487 -4.37486e-05 2.89868)
(-0.0850636 -8.6454e-06 2.89857)
(1.60133 -6.93973e-05 5.40774)
(1.60144 -0.000169742 5.40811)
(1.60146 -0.000212833 5.40825)
(1.60148 -0.00021428 5.40846)
(1.60151 -0.000178751 5.40879)
(1.60141 -7.62147e-05 5.40866)
(1.29997 -4.32444e-05 3.67022)
(1.30002 -0.00010801 3.6704)
(1.30004 -0.000144738 3.67046)
(1.30006 -0.000151856 3.67056)
(1.3001 -0.000120195 3.67071)
(1.30002 -4.48266e-05 3.67056)
(0.446843 -1.24912e-05 2.81142)
(0.446865 -3.45653e-05 2.81153)
(0.446875 -5.13409e-05 2.81156)
(0.446887 -5.73484e-05 2.81159)
(0.446905 -4.30235e-05 2.81163)
(0.446874 -1.30358e-05 2.81152)
(0.381436 -7.19113e-07 0.0889327)
(0.381449 2.43133e-07 0.0889358)
(0.381449 7.40215e-07 0.0889358)
(0.381449 1.49439e-06 0.0889358)
(0.381448 1.38707e-06 0.0889356)
(0.381435 1.43282e-06 0.0889326)
(0.314721 -4.34344e-07 0.250293)
(0.314733 -1.24323e-07 0.250301)
(0.314733 7.95912e-07 0.250301)
(0.314733 1.18066e-06 0.250301)
(0.314733 1.51668e-06 0.250301)
(0.314722 1.03871e-06 0.250292)
(0.122264 -9.43226e-08 0.381764)
(0.122269 -3.5278e-08 0.381776)
(0.122269 3.87421e-07 0.381776)
(0.122269 5.23529e-07 0.381776)
(0.122269 6.62269e-07 0.381775)
(0.122265 3.92282e-07 0.381762)
(0.513207 -2.82026e-07 0.118062)
(0.513226 8.15953e-07 0.118065)
(0.513227 6.2944e-07 0.118065)
(0.513227 1.46311e-06 0.118065)
(0.513226 1.22309e-06 0.118064)
(0.513207 1.58053e-06 0.11806)
(0.437112 -6.65022e-07 0.34811)
(0.437129 -9.96316e-07 0.348121)
(0.437131 -2.64839e-07 0.348121)
(0.437132 3.83316e-07 0.348121)
(0.437132 1.06758e-06 0.34812)
(0.437116 1.00077e-06 0.348108)
(0.171698 -3.12407e-07 0.538017)
(0.171705 -6.45188e-07 0.538035)
(0.171705 -1.05227e-07 0.538036)
(0.171706 2.16819e-07 0.538035)
(0.171706 4.45074e-07 0.538034)
(0.1717 3.05024e-07 0.538017)
(0.694307 -1.1001e-07 0.147623)
(0.694335 3.35349e-07 0.147627)
(0.694338 -8.32619e-07 0.147626)
(0.694338 3.8172e-07 0.147625)
(0.694337 7.19891e-07 0.147624)
(0.69431 1.74583e-06 0.147618)
(0.621616 -1.4243e-06 0.478028)
(0.621643 -3.34135e-06 0.478043)
(0.621647 -3.41837e-06 0.478043)
(0.621649 -2.26039e-06 0.478042)
(0.62165 -3.42691e-07 0.478041)
(0.621626 8.02047e-07 0.478024)
(0.241023 -9.07117e-07 0.751538)
(0.241034 -2.06698e-06 0.751564)
(0.241035 -1.50996e-06 0.751565)
(0.241036 -9.31858e-07 0.751565)
(0.241037 -2.60207e-07 0.751564)
(0.241028 5.92345e-08 0.751539)
(0.826462 -2.10208e-07 0.1537)
(0.826496 -6.63916e-07 0.153703)
(0.8265 -4.20825e-06 0.1537)
(0.826501 -1.32654e-06 0.153697)
(0.8265 1.19946e-06 0.153694)
(0.826464 3.54266e-06 0.153686)
(0.871036 -3.78892e-06 0.642743)
(0.871078 -9.31155e-06 0.642763)
(0.871086 -1.11695e-05 0.642763)
(0.871092 -8.74857e-06 0.642762)
(0.871096 -3.26676e-06 0.642761)
(0.87106 8.65333e-07 0.642736)
(0.338127 -1.57442e-06 1.04455)
(0.338143 -4.40263e-06 1.04458)
(0.338146 -4.92617e-06 1.04459)
(0.338149 -4.20542e-06 1.04459)
(0.338151 -1.98319e-06 1.04459)
(0.338137 -2.84604e-07 1.04455)
(1.06061 -1.47101e-06 0.354981)
(1.06066 -2.65369e-07 0.355007)
(1.06066 -6.43993e-06 0.355008)
(1.06066 -2.52591e-06 0.355011)
(1.06066 -5.21416e-06 0.355013)
(1.06059 -1.58392e-07 0.354989)
(1.27386 -1.00242e-05 0.870442)
(1.27393 -2.16853e-05 0.870479)
(1.27395 -2.60757e-05 0.870483)
(1.27396 -2.37595e-05 0.870486)
(1.27397 -1.56224e-05 0.870489)
(1.27391 -3.84549e-06 0.87045)
(0.479836 -3.79459e-06 1.42058)
(0.479864 -1.0528e-05 1.42063)
(0.47987 -1.26882e-05 1.42064)
(0.479877 -1.17084e-05 1.42064)
(0.479882 -6.46098e-06 1.42065)