/*--------------------------------*- C++ -*----------------------------------*\
| =========                 |                                                 |
| \\      /  F ield         | OpenFOAM: The Open Source CFD Toolbox           |
|  \\    /   O peration     | Version:  v1612+                                |
|   \\  /    A nd           | Web:      www.OpenFOAM.com                      |
|    \\/     M anipulation  |                                                 |
\*---------------------------------------------------------------------------*/
FoamFile
{
    version     2.0;
    format      ascii;
    class       volScalarField;
    location    "4.55";
    object      alpha.water;
}
// * * * * * * * * * * * * * * * * * * * * * * * * * * * * * * * * * * * * * //

dimensions      [0 0 0 0 0 0 0];

internalField   nonuniform List<scalar> 
1116
(
0.420241
0.420243
0.420245
0.420243
0.420243
0.420246
0.426526
0.426528
0.42653
0.426528
0.426528
0.426532
0.451144
0.451145
0.451146
0.451144
0.451145
0.45115
0.5053
0.505299
0.505301
0.5053
0.505301
0.505305
0.625733
0.625733
0.625735
0.625735
0.625737
0.62574
0.809301
0.809299
0.809302
0.809302
0.809301
0.809306
0.973787
0.973787
0.973787
0.973787
0.973787
0.973787
0.973801
0.973802
0.973801
0.973801
0.973801
0.973801
0.973804
0.973804
0.973804
0.973803
0.973803
0.973803
0.973782
0.973782
0.973782
0.973782
0.973782
0.973782
0.973771
0.973771
0.973771
0.973771
0.97377
0.97377
0.973893
0.973893
0.973893
0.973892
0.973892
0.973892
1.55585e-08
1.55583e-08
1.55584e-08
1.55585e-08
1.55584e-08
1.55589e-08
1.07804e-08
1.07803e-08
1.07803e-08
1.07802e-08
1.07802e-08
1.07807e-08
1.00057e-08
1.00057e-08
1.00057e-08
1.00057e-08
1.00057e-08
1.00057e-08
1.00019e-08
1.00019e-08
1.00019e-08
1.00019e-08
1.00019e-08
1.00019e-08
0.0033103
0.00331059
0.00331037
0.0033106
0.00331074
0.00331043
0.0452207
0.0452113
0.0452148
0.0452159
0.0452124
0.0452175
0.348271
0.348267
0.348261
0.34826
0.34826
0.348262
0.831741
0.831749
0.831738
0.831739
0.831741
0.831743
0.973821
0.973821
0.973821
0.97382
0.97382
0.97382
0.973797
0.973797
0.973797
0.973797
0.973796
0.973796
0.973917
0.973917
0.973917
0.973916
0.973916
0.973915
0.97373
0.97373
0.97373
0.97373
0.973729
0.973729
1.48985e-07
1.48899e-07
1.48926e-07
1.48933e-07
1.48906e-07
1.49011e-07
4.3086e-07
4.30785e-07
4.30809e-07
4.30807e-07
4.30767e-07
4.30895e-07
4.48169e-08
4.48038e-08
4.48049e-08
4.48002e-08
4.47997e-08
4.4831e-08
1.00028e-08
1.00028e-08
1.00028e-08
1.00028e-08
1.00028e-08
1.00028e-08
1.04866e-08
1.05134e-08
1.05117e-08
1.05069e-08
1.05131e-08
1.05012e-08
8.58861e-05
8.58933e-05
8.58885e-05
8.58939e-05
8.58975e-05
8.58921e-05
0.00896043
0.00895334
0.00895561
0.0089553
0.00895385
0.00895568
0.285251
0.285339
0.285295
0.285286
0.285313
0.285257
0.595637
0.595853
0.59575
0.595735
0.595797
0.595683
0.728983
0.729147
0.729072
0.729064
0.729108
0.729029
0.777227
0.777434
0.77735
0.777333
0.777383
0.777324
0.796541
0.796491
0.796528
0.79655
0.796522
0.796592
7.86732e-08
7.85685e-08
7.85969e-08
7.86039e-08
7.85701e-08
7.86941e-08
5.11198e-07
5.11203e-07
5.11207e-07
5.11215e-07
5.11222e-07
5.11222e-07
1.21001e-07
1.20928e-07
1.20945e-07
1.2094e-07
1.20922e-07
1.21026e-07
8.57793e-09
8.57586e-09
8.5772e-09
8.57779e-09
8.57642e-09
8.57854e-09
6.16575e-08
6.16578e-08
6.16607e-08
6.16639e-08
6.16565e-08
6.16542e-08
2.98771e-06
2.98191e-06
2.98446e-06
2.98496e-06
2.9827e-06
2.98521e-06
0.000424767
0.000421188
0.000423017
0.000423376
0.000421812
0.000423498
0.0720787
0.0721022
0.072096
0.0721064
0.0720974
0.0720887
0.173996
0.174221
0.17412
0.174129
0.174179
0.174078
0.172043
0.172358
0.172219
0.17221
0.172292
0.17216
0.100531
0.100667
0.100618
0.100601
0.100627
0.100622
0.102542
0.102485
0.102525
0.102535
0.102512
0.102581
1.26266e-11
1.25434e-11
1.26011e-11
1.26769e-11
1.30028e-11
1.19064e-11
4.24533e-11
4.2104e-11
4.21904e-11
4.29247e-11
4.43165e-11
3.93844e-11
4.15064e-09
4.09795e-09
4.09761e-09
4.2013e-09
4.33946e-09
3.79837e-09
2.1335e-07
2.10722e-07
2.1054e-07
2.16267e-07
2.23671e-07
1.95266e-07
6.21082e-06
6.14103e-06
6.12822e-06
6.28475e-06
6.44482e-06
5.71581e-06
0.000315127
0.000299901
0.000302629
0.000312604
0.000273719
0.000238271
0.0134807
0.0133276
0.0134562
0.0134487
0.0132491
0.0132753
0.0238985
0.0238401
0.023986
0.0238001
0.0238804
0.0244551
0.0242909
0.0242776
0.0243655
0.024247
0.0244551
0.0248626
0.0241734
0.0240322
0.0240667
0.0239177
0.0234476
0.0244287
0.0043434
0.00431588
0.00420378
0.00456136
0.00460918
0.00414718
8.19771e-05
7.1306e-05
5.96579e-05
4.85141e-05
3.25643e-05
4.72141e-05
4.79649e-13
4.78459e-13
4.82425e-13
4.76555e-13
4.83861e-13
4.60112e-13
8.61676e-12
8.55836e-12
8.59277e-12
8.63942e-12
8.83157e-12
8.09846e-12
8.423e-10
8.37278e-10
8.39113e-10
8.48439e-10
8.70808e-10
7.89836e-10
4.03195e-08
4.00887e-08
4.01624e-08
4.05757e-08
4.15811e-08
3.78455e-08
3.2154e-05
3.18101e-05
3.23151e-05
3.14063e-05
3.17907e-05
3.13996e-05
0.000125038
0.000124414
0.00012645
0.000121513
0.000118793
0.000125333
2.21003e-06
2.28828e-06
2.32916e-06
2.12508e-06
1.8883e-06
2.2711e-06
0.0020716
0.00205042
0.00196181
0.0021236
0.00175804
0.0017323
0.0239333
0.023691
0.0239615
0.0236039
0.0228048
0.0246573
0.0360486
0.03639
0.037459
0.0369665
0.0384859
0.03985
0.0155567
0.0155833
0.0189904
0.011643
0.0092294
0.0218448
7.13061e-05
5.9658e-05
4.85142e-05
3.25643e-05
2.14389e-05
3.25643e-05
6.93249e-15
6.89545e-15
6.96388e-15
6.87215e-15
7.03139e-15
6.63948e-15
3.20087e-13
3.18681e-13
3.20584e-13
3.19854e-13
3.26441e-13
3.03351e-13
3.54281e-11
3.52715e-11
3.54557e-11
3.54044e-11
3.612e-11
3.35852e-11
1.98703e-09
1.97837e-09
1.98882e-09
1.98296e-09
2.02114e-09
1.96772e-09
1.95475e-06
1.93407e-06
2.00171e-06
1.84073e-06
1.84827e-06
2.02709e-06
2.15819e-06
2.30267e-06
2.41292e-06
2.00493e-06
2.37187e-06
3.39543e-06
4.20141e-08
4.42462e-08
4.66107e-08
3.64305e-08
3.2032e-08
4.64172e-08
1.13657e-09
1.18873e-09
1.22479e-09
1.05657e-09
9.36107e-10
1.19841e-09
2.18798e-05
2.22075e-05
2.28403e-05
2.21886e-05
2.03351e-05
2.43191e-05
0.0355376
0.0353473
0.037048
0.0359304
0.0328984
0.0395854
0.11043
0.1105
0.111455
0.0999624
0.0929857
0.112678
0.000904389
0.000905279
0.00429877
5.83686e-05
2.14389e-05
0.00816752
1.58642e-16
1.57798e-16
1.5945e-16
1.57052e-16
1.60247e-16
1.53334e-16
6.93105e-15
6.89399e-15
6.96242e-15
6.87072e-15
7.03003e-15
6.63793e-15
9.23076e-13
9.17988e-13
9.27154e-13
9.14226e-13
9.35705e-13
8.84465e-13
6.58247e-11
6.54472e-11
6.60863e-11
6.51605e-11
6.66666e-11
6.31132e-11
2.80477e-09
2.78942e-09
2.81308e-09
2.77951e-09
2.83172e-09
2.69006e-09
9.61488e-09
9.71539e-09
9.75381e-09
9.42388e-09
9.07017e-09
9.69388e-09
2.68867e-10
2.73577e-10
2.91056e-10
2.54745e-10
2.08654e-10
3.04042e-10
1.09329e-11
1.06819e-11
9.96916e-12
9.86268e-12
9.55987e-12
9.44435e-12
1.17441e-09
1.0937e-09
1.03391e-09
8.25373e-10
1.36154e-10
8.08033e-10
2.60863e-05
2.70708e-05
2.56903e-05
2.8092e-05
2.94957e-05
2.55871e-05
0.112571
0.112835
0.113193
0.113998
0.11116
0.114392
0.21868
0.218707
0.218734
0.218734
0.218729
0.218661
6.76269e-10
6.74625e-10
6.75327e-10
6.74635e-10
6.72146e-10
6.76339e-10
2.32738e-10
2.30761e-10
2.31397e-10
2.31267e-10
2.3001e-10
2.33085e-10
-9.59458e-17
-1.05217e-16
-1.08049e-16
-1.05611e-16
-1.04975e-16
-1.07553e-16
2.41046e-07
2.4067e-07
2.40778e-07
2.40758e-07
2.4055e-07
2.41087e-07
5.8631e-22
5.86818e-22
5.86732e-22
5.86942e-22
5.87119e-22
5.8625e-22
-2.4289e-17
-8.36771e-17
-1.0153e-16
-8.59433e-17
-8.21989e-17
-9.8131e-17
7.25355e-09
7.24492e-09
7.24477e-09
7.2459e-09
7.2479e-09
7.25046e-09
4.74984e-14
4.74627e-14
4.74736e-14
4.74834e-14
4.74578e-14
4.74926e-14
7.31798e-18
7.31893e-18
7.31881e-18
7.31852e-18
7.31831e-18
7.31807e-18
1.39924e-09
1.39839e-09
1.39889e-09
1.39922e-09
1.39843e-09
1.3993e-09
1.13291e-11
1.1323e-11
1.13264e-11
1.13295e-11
1.13234e-11
1.13302e-11
-4.6876e-16
-4.70916e-16
-4.69263e-16
-4.7014e-16
-4.69658e-16
-4.69988e-16
1.03315e-08
1.03334e-08
1.03322e-08
1.03338e-08
1.03359e-08
1.03313e-08
9.31534e-10
9.30959e-10
9.31285e-10
9.31534e-10
9.3102e-10
9.31584e-10
1.6058e-11
1.6047e-11
1.6051e-11
1.60542e-11
1.60458e-11
1.60556e-11
2.91475e-07
2.9091e-07
2.91193e-07
2.9129e-07
2.91009e-07
2.91395e-07
4.11124e-08
4.1077e-08
4.10953e-08
4.11056e-08
4.10811e-08
4.11079e-08
2.29462e-09
2.29296e-09
2.29336e-09
2.29382e-09
2.29241e-09
2.29448e-09
1.32548e-06
1.34471e-06
1.33833e-06
1.33753e-06
1.33859e-06
1.33028e-06
2.50215e-06
2.49844e-06
2.50017e-06
2.50057e-06
2.49885e-06
2.50101e-06
3.20694e-07
3.20149e-07
3.20321e-07
3.20358e-07
3.20253e-07
3.20436e-07
1.40462e-06
1.40467e-06
1.40504e-06
1.40422e-06
1.40372e-06
1.40364e-06
4.25177e-06
4.26155e-06
4.2577e-06
4.25713e-06
4.25844e-06
4.24601e-06
3.65189e-06
3.66191e-06
3.6582e-06
3.65759e-06
3.65734e-06
3.65165e-06
7.32637e-07
7.32893e-07
7.33006e-07
7.31617e-07
7.30765e-07
7.30387e-07
1.20233e-05
1.20239e-05
1.2024e-05
1.20238e-05
1.20229e-05
1.20211e-05
3.20776e-06
3.22027e-06
3.21586e-06
3.2147e-06
3.21415e-06
3.20654e-06
5.92724e-08
5.94245e-08
5.81978e-08
5.67789e-08
5.60458e-08
5.57513e-08
5.20838e-08
5.22325e-08
5.07538e-08
4.97413e-08
4.90021e-08
4.85494e-08
1.86652e-09
1.95045e-09
1.91003e-09
1.86446e-09
1.82423e-09
1.88128e-09
5.29558e-07
5.30736e-07
5.3116e-07
5.29088e-07
5.27849e-07
5.27324e-07
6.04722e-08
6.20061e-08
6.16116e-08
5.96214e-08
5.8524e-08
5.90849e-08
2.06596e-05
2.06634e-05
2.06657e-05
2.06679e-05
2.06702e-05
2.06715e-05
0.000233254
0.000231846
0.000232252
0.000232269
0.000233737
0.000231082
1.56885e-07
1.55634e-07
1.56147e-07
1.55676e-07
1.55612e-07
1.57508e-07
4.25146e-06
4.22523e-06
4.23671e-06
4.22501e-06
4.21202e-06
4.28383e-06
0.350543
0.350542
0.350557
0.35052
0.350497
0.350592
7.4205e-08
6.70032e-08
6.39463e-08
1.22796e-07
6.94168e-08
7.37786e-08
2.07491e-06
1.70752e-06
1.71806e-06
7.7518e-07
1.00625e-07
1.28696e-06
0.351384
0.351387
0.35139
0.351383
0.351382
0.351407
5.58697e-06
1.05607e-05
1.40292e-05
-4.95912e-16
-1.28721e-15
2.38969e-05
-3.03735e-24
-1.29526e-24
-5.99475e-24
-2.23406e-24
-1.58468e-24
-2.29743e-24
0.351387
0.35139
0.35139
0.351398
0.351407
0.351407
0.00235863
0.00234753
0.0023579
0.00236191
0.00240682
0.00228131
-3.85092e-24
-3.69499e-24
-3.74811e-24
-3.39099e-24
-6.73744e-24
-2.12738e-24
0.348089
0.348093
0.348175
0.348006
0.347914
0.348268
-7.50474e-18
-9.95032e-18
-5.24951e-16
-2.02688e-15
-2.85258e-24
-2.1011e-24
-9.98586e-24
-1.25252e-23
-1.36611e-23
-1.36485e-23
-1.28104e-23
-9.99798e-24
0.313433
0.313487
0.313506
0.313619
0.31389
0.313248
-4.28794e-16
-5.71183e-16
-2.76764e-14
-1.08089e-13
-2.37002e-24
-2.04625e-24
-4.65447e-25
-1.05856e-24
-6.36416e-25
-5.13573e-24
-8.9413e-24
-6.8458e-24
0.240844
0.240808
0.240843
0.240906
0.241093
0.240692
-6.63005e-20
-8.85283e-20
-4.26265e-18
-1.68608e-17
6.3718e-25
-3.71658e-22
1.0762e-17
1.07358e-17
1.07219e-17
1.07452e-17
1.07362e-17
1.07803e-17
2.50159e-17
2.48582e-17
2.52131e-17
2.45967e-17
2.48849e-17
2.48622e-17
1.86021e-17
1.84453e-17
1.87974e-17
1.81864e-17
1.84773e-17
1.84326e-17
1.59073e-18
1.57494e-18
1.61233e-18
1.5485e-18
1.56968e-18
1.60829e-18
1.5885e-16
1.58009e-16
1.59646e-16
1.57293e-16
1.60479e-16
1.53502e-16
2.81771e-17
2.80232e-17
2.83708e-17
2.77688e-17
2.80467e-17
2.80305e-17
4.37604e-17
4.33378e-17
4.42916e-17
4.28661e-17
4.34527e-17
4.38421e-17
1.96194e-14
1.9506e-14
1.97177e-14
1.94047e-14
1.98718e-14
1.88366e-14
6.30066e-15
6.23401e-15
6.36496e-15
6.12216e-15
6.27042e-15
6.21518e-15
2.02569e-16
1.91329e-16
2.04328e-16
1.88423e-16
1.92198e-16
2.02533e-16
2.2704e-12
2.24984e-12
2.28072e-12
2.23489e-12
2.29857e-12
2.20026e-12
1.91605e-13
1.91105e-13
1.93022e-13
1.87437e-13
1.85089e-13
1.99886e-13
7.47641e-15
7.42121e-15
7.55186e-15
7.27978e-15
7.31978e-15
7.50014e-15
9.99282e-11
9.93112e-11
1.00104e-10
9.91728e-11
1.01162e-10
9.56601e-11
4.59001e-12
4.56117e-12
4.61245e-12
4.52396e-12
4.55879e-12
4.44944e-12
1.34066e-13
1.3322e-13
1.3476e-13
1.32077e-13
1.34241e-13
1.2996e-13
2.57427e-10
2.61151e-10
2.63058e-10
2.50872e-10
2.39553e-10
2.61118e-10
9.85835e-12
9.97702e-12
1.00431e-11
9.55515e-12
9.28195e-12
9.92298e-12
4.03261e-12
3.96073e-12
3.91561e-12
3.79715e-12
3.7904e-12
3.86316e-12
3.52999e-11
2.30369e-11
1.55521e-11
4.6112e-11
6.70717e-11
1.46388e-11
6.16075e-12
5.92126e-12
5.69065e-12
5.86274e-12
6.13802e-12
5.62164e-12
4.7737e-12
4.66187e-12
4.606e-12
4.59496e-12
4.59496e-12
4.59496e-12
-1.7489e-12
-1.98595e-12
-2.6296e-12
-5.81962e-13
2.00031e-13
-2.69728e-12
1.30206e-11
1.32482e-11
1.2609e-11
1.37252e-11
1.36959e-11
1.22534e-11
5.57199e-12
5.63544e-12
5.48181e-12
5.74559e-12
5.84406e-12
5.48825e-12
-1.79491e-09
-2.02424e-09
-1.81146e-09
-2.29916e-09
-2.42121e-09
-2.03973e-09
4.10403e-14
4.15203e-14
4.04093e-14
4.36927e-14
4.44475e-14
4.04634e-14
6.82702e-17
7.16775e-22
7.23139e-22
6.9532e-17
5.07571e-22
5.09498e-22
-5.00587e-07
-5.25205e-07
-5.07417e-07
-5.23651e-07
-5.05991e-07
-5.20627e-07
8.5635e-09
2.98568e-09
2.25452e-09
8.60592e-09
7.7411e-09
7.45462e-09
4.03112e-07
3.4348e-07
3.24064e-07
4.05285e-07
4.04921e-07
4.0458e-07
-4.02399e-08
-6.75777e-08
-1.27219e-07
-3.51634e-08
0.000108684
-7.56038e-08
2.08192e-09
1.83424e-09
2.21566e-09
2.2816e-09
7.45257e-09
1.31897e-08
1.62345e-12
5.66934e-18
6.36132e-09
3.76144e-11
1.36172e-07
7.32576e-08
0.213998
0.213939
0.213295
0.214656
0.215105
0.212936
2.2816e-09
1.97667e-09
2.39639e-09
2.45857e-09
7.45058e-09
1.4094e-08
2.06985e-06
1.69248e-06
1.44635e-06
5.17589e-06
1.15256e-05
1.30898e-06
)
;

boundaryField
{
    seabed_topleft_surface
    {
        type            zeroGradient;
    }
    seabed_topright_surface
    {
        type            zeroGradient;
    }
    breakwater_top_surface
    {
        type            zeroGradient;
    }
    breakwater_left_surface
    {
        type            zeroGradient;
    }
    breakwater_right_surface
    {
        type            zeroGradient;
    }
    water_front_surface
    {
        type            zeroGradient;
    }
    water_back_surface
    {
        type            zeroGradient;
    }
    water_left_surface
    {
        type            zeroGradient;
    }
    water_right_surface
    {
        type            zeroGradient;
    }
    water_top_surface
    {
        type            inletOutlet;
        inletValue      uniform 0;
        value           nonuniform List<scalar> 
180
(
0
0
0
0
0
0
0
0
0
0
0
0
0
0
0
0
0
0
0
0
0
0
0
0
1.6058e-11
1.6047e-11
1.6051e-11
1.60542e-11
1.60458e-11
1.60556e-11
2.29462e-09
2.29296e-09
2.29336e-09
2.29382e-09
2.29241e-09
2.29448e-09
3.20694e-07
3.20149e-07
3.20321e-07
3.20358e-07
3.20253e-07
3.20436e-07
3.65189e-06
3.66191e-06
3.6582e-06
3.65759e-06
3.65734e-06
3.65165e-06
0
0
0
0
0
0
0
0
0
0
0
0
0
0
0
0
0
0
0
0
0
0
0
0
0
0
0
0
0
0
0
0
0
0
0
0
0
0
0
0
0
0
0
0
0
0
0
0
0
0
0
0
0
0
0
0
0
0
0
0
1.59073e-18
1.57494e-18
1.61233e-18
1.5485e-18
1.56968e-18
1.60829e-18
4.37604e-17
4.33378e-17
4.42916e-17
4.28661e-17
4.34527e-17
4.38421e-17
2.02569e-16
1.91329e-16
2.04328e-16
1.88423e-16
1.92198e-16
2.02533e-16
7.47641e-15
7.42121e-15
7.55186e-15
7.27978e-15
7.31978e-15
7.50014e-15
1.34066e-13
1.3322e-13
1.3476e-13
1.32077e-13
1.34241e-13
1.2996e-13
4.03261e-12
3.96073e-12
3.91561e-12
3.79715e-12
3.7904e-12
3.86316e-12
4.7737e-12
4.66187e-12
4.606e-12
4.59496e-12
4.59496e-12
4.59496e-12
0
0
0
0
0
0
0
0
0
0
0
0
0
0
0
0
0
0
0
0
0
0
0
0
0
0
0
0
0
0
)
;
    }
}


// ************************************************************************* //
