/*--------------------------------*- C++ -*----------------------------------*\
| =========                 |                                                 |
| \\      /  F ield         | OpenFOAM: The Open Source CFD Toolbox           |
|  \\    /   O peration     | Version:  v1612+                                |
|   \\  /    A nd           | Web:      www.OpenFOAM.com                      |
|    \\/     M anipulation  |                                                 |
\*---------------------------------------------------------------------------*/
FoamFile
{
    version     2.0;
    format      ascii;
    class       surfaceScalarField;
    location    "4.55";
    object      phi;
}
// * * * * * * * * * * * * * * * * * * * * * * * * * * * * * * * * * * * * * //

dimensions      [0 3 -1 0 0 0 0];

internalField   nonuniform List<scalar> 
2916
(
-1.37841e-05
0.174855
-0.174841
-9.47716e-06
0.174857
-0.174862
-3.98213e-06
0.174857
-0.174862
3.05684e-06
0.174858
-0.174865
1.42051e-05
0.174857
-0.174869
0.174854
-0.174839
-9.76855e-06
0.31993
-0.145066
-9.12108e-06
0.319941
-0.145084
-2.82217e-06
0.319938
-0.145087
4.53149e-06
0.319939
-0.145089
1.12126e-05
0.31994
-0.145089
0.319931
-0.145066
-3.58055e-06
0.434014
-0.11408
-6.61358e-06
0.434033
-0.114089
-1.37319e-06
0.434028
-0.114095
2.97312e-06
0.434029
-0.114094
3.82589e-06
0.434032
-0.114092
0.434017
-0.114083
1.90795e-06
0.479835
-0.0458226
-3.39817e-06
0.479863
-0.0458244
-4.33394e-07
0.479855
-0.0458302
2.24107e-07
0.479855
-0.0458264
-3.30129e-06
0.479859
-0.0458241
0.479839
-0.0458249
2.06914e-06
0.337871
0.141962
-1.71805e-06
0.337908
0.141959
-2.07383e-06
0.337898
0.141958
-4.93919e-06
0.337897
0.141961
-8.31528e-06
0.337904
0.141959
0.337874
0.141956
-2.51387e-07
-0.0868674
0.424739
-4.0644e-06
-0.0868286
0.42474
-6.55791e-06
-0.0868353
0.424736
-8.5094e-06
-0.0868346
0.424734
-1.17973e-05
-0.0868264
0.424733
-0.086862
0.424725
1.11421e-05
-0.687795
0.600916
3.93575e-06
-0.687774
0.600952
-3.37589e-06
-0.687763
0.600935
-8.14095e-06
-0.687761
0.600932
-1.98771e-05
-0.687756
0.600942
-0.6878
0.600918
-5.29578e-06
-1.28169
0.593901
1.35725e-05
-1.2817
0.593911
6.20897e-06
-1.28166
0.593909
-4.30988e-06
-1.28166
0.593911
-1.19201e-05
-1.28166
0.593913
-1.28171
0.593901
6.34697e-06
-1.61194
0.330247
2.36492e-05
-1.612
0.330282
1.71291e-05
-1.61194
0.330283
3.33784e-06
-1.61194
0.330291
-1.17252e-05
-1.61195
0.330306
-1.61197
0.330245
7.38994e-05
-1.43958
-0.172436
3.07805e-05
-1.43966
-0.172299
8.19393e-06
-1.43959
-0.172324
-8.25814e-06
-1.4396
-0.172326
-4.39959e-05
-1.43962
-0.172295
-1.4396
-0.172414
0.000154582
-0.745918
-0.693818
1.6928e-05
-0.745931
-0.693592
-1.95231e-05
-0.745907
-0.693651
-2.71751e-05
-0.745917
-0.693672
-9.67855e-05
-0.745928
-0.693624
-0.745917
-0.693779
1.15604e-06
-0.74592
-2.31001e-05
-0.745906
-1.3063e-05
-0.745917
-1.45033e-05
-0.745916
-4.28173e-05
-0.7459
-0.74596
-8.38428e-05
1.39578
-1.57054
-3.10834e-05
1.3958
-1.57072
5.62549e-06
1.3958
-1.57071
4.47415e-05
1.3958
-1.57071
0.000102944
1.39581
-1.57073
1.3958
-1.57054
-9.02381e-05
2.77235
-1.52155
-3.7237e-05
2.77238
-1.52171
1.17803e-05
2.77238
-1.52172
7.04196e-05
2.77237
-1.52172
0.000133883
2.77238
-1.52172
2.7724
-1.52154
-8.97539e-05
4.15157
-1.4932
-2.70805e-05
4.1516
-1.49337
3.4574e-05
4.1516
-1.49338
9.74982e-05
4.15159
-1.49338
0.000149874
4.1516
-1.49337
4.15164
-1.49317
-6.60646e-05
4.36404
-0.258228
-2.64961e-05
4.36409
-0.258353
1.14578e-05
4.36408
-0.25835
5.04692e-05
4.36406
-0.258343
7.57326e-05
4.36409
-0.258342
4.3641
-0.258211
4.34233e-05
2.16913
2.33682
6.38701e-06
2.16921
2.33687
-9.08463e-06
2.16918
2.33687
-8.08824e-06
2.16914
2.33688
-3.63554e-05
2.16917
2.33691
2.16908
2.33695
-2.3752e-05
0.249554
2.34434
-2.36083e-05
0.249709
2.34424
-2.0469e-05
0.249659
2.34425
-4.18736e-05
0.249662
2.34423
-6.40086e-05
0.249713
2.34421
0.249593
2.34415
0.00019276
-0.566611
1.41689
2.12987e-06
-0.566533
1.41738
-1.41874e-05
-0.566543
1.41715
-1.02859e-05
-0.566527
1.41712
-0.000146095
-0.56649
1.41728
-0.566599
1.41696
3.21337e-05
-0.942681
0.969939
4.53345e-07
-0.942705
0.970115
-6.95553e-06
-0.942668
0.970042
-1.26875e-05
-0.942659
0.970048
-3.63558e-05
-0.942655
0.970102
-0.942703
0.969968
8.07421e-05
-0.983662
0.371148
8.98353e-06
-0.983749
0.371397
1.2789e-05
-0.983677
0.371289
1.65632e-05
-0.983678
0.371307
-2.34043e-05
-0.983698
0.371389
-0.983684
0.371202
0.000366106
-0.825998
-0.330466
2.21487e-05
-0.826005
-0.3297
-2.36415e-05
-0.825953
-0.330002
1.32059e-05
-0.826
-0.330041
-0.000132669
-0.826033
-0.329814
-0.82595
-0.33028
0.000435216
-0.444039
-1.07621
9.01969e-06
-0.443927
-1.07524
-6.91211e-05
-0.443913
-1.07561
-1.00836e-05
-0.443991
-1.07574
-0.000147104
-0.444042
-1.07548
-0.443916
-1.07596
-0.000190892
-1.18977
-5.60047e-05
-1.18997
-8.11406e-06
-1.18988
2.77038e-07
-1.18992
8.57118e-05
-1.19003
-1.18979
-2.5067e-05
-0.457975
-1.11254
-4.71006e-06
-0.457901
-1.11284
8.58788e-06
-0.457926
-1.11279
1.36889e-05
-0.457923
-1.11279
2.28143e-05
-0.457901
-1.11284
-0.457983
-1.11253
-3.78549e-05
-0.705327
-1.27416
1.42914e-06
-0.70523
-1.27442
8.02231e-06
-0.705258
-1.27439
2.16537e-05
-0.705267
-1.27438
6.44641e-05
-0.705246
-1.27442
-0.705318
-1.27414
-0.000124777
-0.564681
-1.63373
-3.37268e-05
-0.564727
-1.63397
-1.01505e-05
-0.564723
-1.63394
1.17576e-05
-0.564732
-1.63394
9.4015e-05
-0.564738
-1.63397
-0.564678
-1.63372
-0.000141989
1.05265
-1.87542
-7.57454e-05
1.0526
-1.87574
-5.62071e-05
1.05262
-1.87572
-2.94453e-05
1.05262
-1.87572
5.16848e-05
1.05261
-1.87577
1.05267
-1.8755
0.000601335
1.65258
1.7363
-4.85204e-06
1.65426
1.73581
-4.29252e-05
1.6535
1.73603
-2.28447e-06
1.6534
1.73606
-0.000305315
1.65393
1.73589
1.6532
1.7361
0.000649112
-0.829892
4.82616
-8.73006e-05
-0.826896
4.82614
-0.000124235
-0.828228
4.82602
-4.4835e-05
-0.828399
4.82596
-0.000374634
-0.8274
4.82588
-0.828666
4.82564
0.000994819
-2.16557
2.75157
-0.000184511
-2.16459
2.75627
-0.000145555
-2.16505
2.75393
8.26567e-05
-2.16509
2.75358
-0.000599965
-2.16479
2.75535
-2.16523
2.75293
0.000387985
-1.33806
0.142045
-7.77449e-06
-1.33737
0.143293
-3.3307e-05
-1.3377
0.142717
-1.03729e-05
-1.33773
0.142672
-0.000249853
-1.33754
0.143095
-1.33788
0.142363
0.000673793
-0.854833
-0.112758
8.74665e-06
-0.853931
-0.111382
-5.08554e-05
-0.854319
-0.112028
4.02617e-05
-0.85442
-0.112099
-0.000339934
-0.854183
-0.111591
-0.854564
-0.112452
0.000544629
-0.465872
-0.719971
-1.13498e-05
-0.464352
-0.718722
-5.65531e-05
-0.464996
-0.71928
4.00245e-05
-0.465164
-0.719393
-0.0002374
-0.464771
-0.718948
-0.465418
-0.719663
-0.000373904
-0.204159
-1.33755
-9.20023e-05
-0.203159
-1.33672
-7.84815e-05
-0.203573
-1.33705
-4.47251e-06
-0.203653
-1.33732
0.000389008
-0.203427
-1.33722
-0.203848
-1.33714
-0.00071278
-1.39321
-0.000109148
-1.39373
-0.000119139
-1.39344
-3.36796e-06
-1.39368
0.000694172
-1.39415
-1.39294
-6.34083e-06
0.0307753
-1.14331
3.12325e-06
0.030768
-1.14362
-3.69447e-06
0.0307773
-1.14356
-1.52851e-06
0.0307743
-1.14356
1.12395e-05
0.030771
-1.14362
0.0307868
-1.1433
-4.45264e-06
0.0124617
-1.25584
6.78689e-06
0.0124371
-1.2561
4.51424e-06
0.0124544
-1.25606
1.45421e-06
0.0124575
-1.25606
7.33398e-06
0.0124548
-1.25611
0.0124791
-1.25582
-0.000109344
-0.312231
-1.30892
-8.23433e-06
-0.312503
-1.30913
6.59561e-06
-0.312397
-1.3091
1.46411e-06
-0.312375
-1.3091
4.71322e-05
-0.312422
-1.30914
-0.312265
-1.30893
-9.67304e-05
-0.652192
-1.53536
-2.3795e-05
-0.65273
-1.5356
-5.11453e-05
-0.652514
-1.53558
-8.95805e-05
-0.652472
-1.53559
-3.14212e-05
-0.652618
-1.53564
-0.652322
-1.53548
0.000939458
-0.208773
1.29194
1.45141e-05
-0.207088
1.29109
-4.06702e-05
-0.20783
1.2914
8.35885e-05
-0.207926
1.29139
-0.000414127
-0.207289
1.29106
-0.208014
1.29138
0.000565841
-1.786
6.40283
-3.26181e-05
-1.78371
6.40336
-0.000125395
-1.78471
6.403
2.89011e-05
-1.785
6.40288
-0.000235472
-1.78412
6.40298
-1.78513
6.40252
-0.000614196
-3.64368
4.60986
-0.000325308
-3.64333
4.6156
-0.000234736
-3.64359
4.61273
-6.73014e-05
-3.64399
4.6124
-7.40028e-07
-3.64352
4.61468
-3.64377
4.61157
-0.00141119
-2.88073
-0.619487
-0.000115601
-2.8796
-0.621738
0.000454643
-2.88014
-0.621307
0.000161854
-2.88043
-0.620598
0.000226385
-2.88002
-0.620471
-2.88057
-0.620606
-0.00221493
-1.80268
-1.1886
-5.2683e-05
-1.7998
-1.19334
0.000523242
-1.80113
-1.19161
8.86475e-05
-1.80143
-1.19066
0.000852945
-1.80045
-1.19192
-1.80214
-1.19003
-0.00283918
-1.18408
-1.33573
-8.40581e-05
-1.18035
-1.34093
0.000437434
-1.18214
-1.33879
4.1893e-05
-1.18222
-1.33821
0.0013877
-1.18093
-1.33981
-1.18349
-1.33692
-0.00244859
-0.78797
-1.73121
-0.000118762
-0.786227
-1.73317
0.000192132
-0.787128
-1.73238
4.93708e-05
-0.786927
-1.73247
0.00153401
-0.786256
-1.73338
-0.787853
-1.73124
-0.000935206
-2.18025
-0.000105064
-2.18079
-0.000193049
-2.18048
3.03814e-05
-2.18083
0.000867606
-2.18125
-2.17993
-9.312e-05
-0.479514
0.479607
-0.000152876
-0.479568
0.47963
-8.17408e-05
-0.479696
0.479626
-8.91129e-06
-0.47972
0.479649
0.000244048
-0.479888
0.479637
-0.479371
0.479617
-0.000185865
-1.03682
0.557497
-0.000464995
-1.03677
0.557481
-0.000236017
-1.03748
0.557558
-0.000156522
-1.03729
0.557493
0.00151715
-1.0391
0.557543
-1.03544
0.557589
-0.00035606
-1.89915
0.862682
-0.00248252
-1.89646
0.861818
-0.0045883
-1.89834
0.862966
-0.0019095
-1.90236
0.862392
0.015566
-1.92147
0.864895
-1.88217
0.862294
9.88503e-05
-3.55698
1.65774
-0.00365005
-3.54925
1.65654
-0.0150938
-3.5432
1.65631
-0.00202732
-3.57554
1.66011
0.0552717
-3.64707
1.6683
-3.47599
1.64909
0.00175084
-5.86353
2.3048
0.00213866
-5.86142
2.31179
-0.00438721
-5.83637
2.2997
0.00424049
-5.90349
2.31933
0.0539971
-6.01453
2.3177
-5.71017
2.28818
0.00426763
-7.59288
1.72508
0.00987062
-7.61406
1.74704
0.0213494
-7.57376
1.7259
0.0152597
-7.64135
1.74395
0.00201372
-7.74015
1.73887
-7.45593
1.74778
0.0133328
-7.39681
-0.209407
0.0144746
-7.42256
-0.19264
0.020932
-7.38599
-0.194221
0.0231019
-7.41979
-0.223728
-0.0146286
-7.48593
-0.216494
-7.29838
-0.17218
0.0228059
-5.6983
-1.72131
0.021777
-5.71695
-1.70458
0.0361623
-5.71203
-1.68835
0.0541258
-5.68589
-1.75187
-0.0321488
-5.71474
-1.68491
-5.68692
-1.6436
0.0119919
-2.153
-3.55729
0.0126799
-2.1571
-3.56054
0.0285807
-2.16852
-3.5594
0.0229605
-2.12036
-3.55991
-0.0386717
-2.09637
-3.55674
-2.1752
-3.5504
0.00527791
1.90857
-4.06685
0.0218223
1.90774
-4.08138
0.0593597
1.87419
-4.08025
0.0165141
1.98152
-4.05903
-0.0913169
2.07629
-4.06483
1.80083
-4.06734
0.00429881
3.48433
-1.58006
0.0209099
3.47927
-1.58814
0.126828
3.44622
-1.67795
0.0194927
3.5325
-1.44364
-0.19167
3.61147
-1.32402
3.35661
-1.74745
0.0284021
3.45592
0.039884
3.46778
0.0628181
3.42328
0.0219791
3.57333
-0.0232557
3.65671
3.33336
-9.51069e-05
-0.510677
0.990382
-0.000148722
-0.510737
0.990425
-5.28633e-05
-0.510909
0.990442
3.52697e-08
-0.510855
0.990453
0.000228183
-0.511044
0.990455
-0.510567
0.990414
-0.000246055
-1.09486
1.14193
-0.000426389
-1.09505
1.14197
-0.000140124
-1.09573
1.14209
-8.74696e-05
-1.0954
1.14198
0.00117289
-1.09682
1.14206
-1.09377
1.14197
-0.00108201
-1.7985
1.56741
-0.00229627
-1.79903
1.56702
-0.00428803
-1.79845
1.56768
-0.000838845
-1.80472
1.56827
0.0132642
-1.81685
1.57082
-1.78439
1.56617
-0.00491508
-2.70172
2.56587
-0.00475885
-2.7086
2.56596
-0.0222403
-2.68899
2.56433
0.00417473
-2.74395
2.57293
0.0612669
-2.78765
2.58202
-2.62775
2.55372
-0.0138256
-3.96384
3.58074
-0.00119986
-4.00001
3.59057
-0.0274695
-3.94117
3.57816
0.0224679
-4.07255
3.598
0.0725241
-4.11582
3.59582
-3.82263
3.55559
-0.0156515
-4.88561
2.6625
0.00374022
-4.95827
2.68591
0.00503392
-4.89415
2.67759
0.00884045
-4.99618
2.66377
-0.0397913
-4.96934
2.64101
-4.78605
2.67141
0.0112553
-5.57766
0.471385
-0.00225045
-5.62932
0.491919
-0.00165628
-5.60218
0.513217
-0.0266012
-5.62528
0.430317
-0.0803197
-5.56207
0.429966
-5.56444
0.525885
0.0122317
-4.75805
-2.55315
-0.0135052
-4.77459
-2.53357
-0.0400312
-4.77395
-2.49006
-0.0449062
-4.76155
-2.61072
0.018917
-4.75542
-2.55538
-4.77371
-2.41541
0.00570834
-3.90646
-4.41458
-0.00310596
-3.90711
-4.41921
-0.0516192
-3.89338
-4.39146
0.00226991
-3.92383
-4.45152
0.0784373
-3.92218
-4.46614
-3.86393
-4.38175
-0.00302115
-2.88205
-5.08824
-0.013763
-2.87959
-5.09816
-0.0287205
-2.90653
-5.05214
-0.00305908
-2.86061
-5.14791
0.0275586
-2.83549
-5.18215
-2.89071
-5.013
-0.0143451
-1.46958
-2.97818
-0.0278779
-1.47319
-2.981
-0.0341095
-1.53488
-3.04337
-0.00671585
-1.36048
-2.97117
-0.00463006
-1.22248
-2.93911
-1.56551
-3.07727
0.0329176
1.95343
0.0985513
1.92895
0.356716
1.63023
0.239718
2.32985
-0.396782
3.07072
1.37107
-4.76198e-05
-0.335029
1.32546
-6.18411e-05
-0.33507
1.32551
-1.10953e-05
-0.335133
1.32553
3.83646e-05
-0.335128
1.32553
0.000187711
-0.335238
1.32555
-0.334865
1.32547
-0.000137409
-0.668176
1.47521
-0.000157043
-0.668362
1.47529
-4.14532e-05
-0.6685
1.47534
0.000105506
-0.668599
1.47531
0.000752033
-0.669174
1.47535
-0.667305
1.47516
-0.000574227
-0.911186
1.811
-0.000711383
-0.912219
1.81102
-0.00141859
-0.911364
1.81125
7.70366e-05
-0.913322
1.8115
0.0050867
-0.91578
1.81242
-0.906321
1.81027
-0.00274723
-0.789229
2.44666
-0.00205608
-0.793924
2.44697
-0.00915468
-0.786163
2.44623
0.00221585
-0.801906
2.45015
0.0250851
-0.811078
2.45445
-0.768386
2.44087
-0.00823206
-0.343162
3.14291
-0.000376646
-0.358945
3.14774
-0.0103096
-0.339446
3.14138
0.0167161
-0.38185
3.15092
0.037764
-0.389334
3.15303
-0.304064
3.12903
-0.0106466
-0.395039
2.72503
0.00454016
-0.427713
2.73949
0.0218828
-0.414348
2.73515
0.0178361
-0.433338
2.71931
-0.0219138
-0.40882
2.70025
-0.383274
2.7287
-0.00415975
-0.480433
0.560942
-0.00778291
-0.513727
0.581555
0.0109874
-0.518686
0.598786
-0.032122
-0.491344
0.531435
-0.0526591
-0.460189
0.501874
-0.522812
0.612769
-0.00890264
-1.43897
-1.58571
-0.0222752
-1.45777
-1.57615
-0.0159581
-1.45771
-1.55735
-0.0673459
-1.44596
-1.60471
-0.0331281
-1.43451
-1.61527
-1.45666
-1.51469
-0.000498518
-2.70136
-3.15168
-0.00230928
-2.7167
-3.15847
-0.00846729
-2.71781
-3.1252
-0.00510114
-2.71237
-3.18848
0.00759259
-2.70123
-3.21211
-2.72503
-3.10579
-0.00129803
-3.14077
-4.64754
-0.0118711
-3.15587
-4.64841
-0.0193972
-3.13892
-4.62349
-0.00377364
-3.21425
-4.66165
0.0230801
-3.25166
-4.65858
-3.11089
-4.60406
-0.0110132
-2.36833
-3.73961
-0.0419603
-2.36481
-3.74112
-0.121148
-2.35404
-3.74907
-0.0488543
-2.53681
-3.72091
0.151013
-2.66699
-3.72364
-2.28094
-3.75622
-0.0214848
-0.393415
-0.0477633
-0.409589
-0.119866
-0.651705
-0.207569
-0.119251
0.0902422
0.105924
-0.819633
-6.711e-06
-0.177815
1.50328
3.76668e-06
-0.177838
1.50334
2.97424e-05
-0.177842
1.50334
5.02254e-05
-0.17783
1.50334
9.46304e-05
-0.177842
1.50335
-0.177707
1.50327
-3.04446e-05
-0.303684
1.60111
1.36198e-06
-0.303767
1.60119
4.85815e-05
-0.30374
1.6012
0.000114605
-0.303772
1.60119
0.000318544
-0.303882
1.60119
-0.303276
1.60105
-0.000119474
-0.281656
1.78909
-1.71306e-05
-0.282062
1.78921
-0.000101619
-0.281635
1.78923
0.000241097
-0.281873
1.78926
0.00135307
-0.281988
1.78941
-0.280464
1.78882
-0.000495828
0.12186
2.04364
3.29379e-06
0.120477
2.04394
-0.00117709
0.122074
2.0437
0.000700484
0.122003
2.04439
0.00526683
0.122546
2.04535
0.123488
2.04219
-0.0019652
0.991212
2.27552
0.00185454
0.987421
2.27698
-0.000158306
0.990499
2.27497
0.00606422
0.988952
2.27775
0.0101524
0.992769
2.27872
0.992205
2.27046
-0.00329094
1.78848
1.93105
0.00646016
1.78089
1.93628
0.0177735
1.7811
1.93324
0.0118043
1.78516
1.92907
-0.0150301
1.79714
1.92271
1.7765
1.92938
-0.00344736
1.79716
0.555703
0.00450229
1.7914
0.563093
0.0287491
1.79122
0.564414
0.00461071
1.79096
0.549767
-0.0423942
1.80494
0.541075
1.77927
0.567609
-0.00566854
0.869615
-0.652499
-0.00258168
0.859761
-0.647594
0.00883033
0.867138
-0.644675
-0.0174307
0.863653
-0.65114
-0.0435337
0.865697
-0.649918
0.855313
-0.63427
-0.00718511
-0.680417
-1.59446
-0.00827535
-0.700261
-1.59735
-0.00452406
-0.670648
-1.59117
-0.0177895
-0.71687
-1.59469
-0.0109088
-0.764076
-1.58922
-0.665413
-1.59597
-0.00776396
-2.239
-3.08119
-0.0103497
-2.26032
-3.08577
0.0169708
-2.23658
-3.08489
-0.00628617
-2.28866
-3.0666
-0.0405173
-2.33822
-3.05021
-2.23
-3.07998
0.00331249
-2.01393
-3.968
-0.00670907
-2.02304
-3.96838
-0.0310785
-1.98792
-3.97336
0.00915314
-2.07722
-3.97258
0.0589007
-2.13341
-3.9782
-1.95745
-3.96987
0.0108995
-2.41824
-0.00230265
-2.41942
-0.201856
-2.44007
-0.0198839
-2.37845
0.320426
-2.36779
-2.45666
5.16928e-05
-1.03255
-0.110814
1.60759e-05
-1.03273
-0.110853
-5.49164e-07
-1.03269
-0.110847
-1.72447e-05
-1.03269
-0.110849
-5.49544e-05
-1.03273
-0.110856
-1.03254
-0.110818
3.54802e-05
-0.903939
-0.128646
7.63208e-06
-0.904059
-0.128641
-5.08666e-06
-0.904041
-0.128639
-1.8234e-05
-0.90404
-0.128639
-4.26277e-05
-0.904065
-0.128638
-0.903951
-0.12864
2.15509e-05
-0.02654
7.41601e-06
-0.0265394
1.8696e-06
-0.0265401
-5.54521e-06
-0.0265409
-2.48554e-05
-0.0265411
-0.0265429
1.65956e-05
-1.06411
-0.302552
-5.37071e-07
-1.06426
-0.302671
-1.33661e-05
-1.06424
-0.302645
-2.67196e-05
-1.06424
-0.302649
-4.2691e-05
-1.06428
-0.302673
-1.06411
-0.302577
1.5343e-05
-0.837807
-0.354969
-5.07008e-06
-0.837923
-0.354963
-1.39598e-05
-0.837912
-0.354959
-2.20037e-05
-0.837912
-0.354959
-4.20874e-05
-0.837934
-0.354959
-0.837822
-0.354965
1.77918e-05
-0.0665624
6.35799e-06
-0.0665582
4.23194e-07
-0.0665582
-5.29792e-06
-0.066559
-2.32674e-05
-0.0665586
-0.0665626
-8.05968e-05
-0.972121
-0.639271
-2.242e-05
-0.972252
-0.6396
-2.92277e-05
-0.972242
-0.639499
-4.20891e-05
-0.97224
-0.639505
-1.48575e-05
-0.972265
-0.639574
-0.972119
-0.639408
-2.09872e-05
-0.646117
-0.68095
-1.13587e-05
-0.646206
-0.681014
-2.31913e-05
-0.646205
-0.680979
-2.88807e-05
-0.646203
-0.680985
-3.29733e-05
-0.646221
-0.680997
-0.646117
-0.680991
1.397e-05
-0.161355
4.22012e-06
-0.161346
-5.56764e-06
-0.161343
-1.2014e-05
-0.161344
-2.3962e-05
-0.161342
-0.161362
-4.44781e-05
-1.04961
-1.12498
-1.18043e-05
-1.04978
-1.12544
-3.01733e-05
-1.04978
-1.12529
-4.2524e-05
-1.04978
-1.12531
-2.45911e-05
-1.04981
-1.12542
-1.04968
-1.12524
-8.18931e-05
-0.486959
-1.24352
-1.6029e-05
-0.487028
-1.24384
-2.54192e-05
-0.487033
-1.24372
-2.54229e-05
-0.487021
-1.24374
-2.29554e-06
-0.487034
-1.2438
-0.486933
-1.24374
-1.13587e-05
-0.506522
-7.07228e-06
-0.506565
-2.12628e-05
-0.506536
-2.47207e-05
-0.506544
-2.68977e-05
-0.506546
-0.506574
0.00074477
0.753289
-0.587081
-3.1452e-05
0.752941
-0.58652
-4.68056e-05
0.752988
-0.586862
6.24045e-05
0.752974
-0.586994
-0.00042364
0.752835
-0.586702
0.753052
-0.587322
0.00010795
0.606416
-1.09675
-1.82057e-05
0.606357
-1.09713
-1.43671e-05
0.606325
-1.09706
2.6496e-05
0.606343
-1.09715
-9.0797e-05
0.606323
-1.09717
0.606473
-1.09725
-4.17762e-05
-0.68638
1.0709e-05
-0.686619
-4.77041e-06
-0.686524
-6.33579e-06
-0.686554
-6.15892e-06
-0.68659
-0.686565
0.000366569
5.91369
-0.0983137
-7.60289e-05
5.91403
-0.0967424
-7.13508e-05
5.91369
-0.0975556
3.32193e-05
5.91359
-0.0978066
-0.000305364
5.91371
-0.097093
5.91341
-0.0985132
0.000345527
4.087
0.729599
-7.91808e-05
4.08717
0.73016
-0.000144883
4.08696
0.729748
-0.000159071
4.08688
0.729576
-0.000438332
4.08694
0.729889
4.08695
0.728771
0.000130878
0.609249
3.45112e-05
0.609327
2.2877e-05
0.609258
3.00566e-05
0.609161
-4.40527e-05
0.609233
0.608927
-0.00165831
6.11326
-1.60005
-0.000293208
6.11661
-1.59912
-0.000378288
6.11499
-1.59973
-0.000565583
6.1147
-1.59991
0.000495939
6.11591
-1.59938
6.11444
-1.60089
-0.000794815
5.73668
1.10698
-0.000333394
5.7389
1.10741
-0.000314781
5.73775
1.10697
-0.000412517
5.73756
1.10681
0.000143016
5.73823
1.10701
5.73776
1.1056
-0.000151993
1.77585
-0.000212947
1.77626
-0.000203809
1.77596
-0.000321424
1.77594
-0.00024256
1.776
1.77533
-2.96058e-05
1.44292
-3.66243
-0.000249199
1.44042
-3.66105
-0.000273168
1.44095
-3.66196
-0.000662717
1.4418
-3.66191
-0.00111416
1.44171
-3.6611
1.44124
-3.66385
0.000765844
2.48257
0.0665662
-4.26155e-05
2.48294
0.0657045
-0.000401542
2.48232
0.0659607
-0.000226726
2.48263
0.0658023
-0.000127826
2.48293
0.0656883
2.48198
0.0647346
0.000396354
1.74498
0.00015925
1.74467
2.52153e-05
1.74467
9.73475e-05
1.74471
0.000372655
1.74446
1.7442
0.0004248
-0.983919
-3.86753
-0.000190462
-0.988232
-3.86555
-0.000344299
-0.986747
-3.86667
-0.000480406
-0.985926
-3.86652
-0.000803106
-0.987084
-3.86562
-0.986492
-3.8682
0.00395952
-0.425821
-0.495491
2.53725e-05
-0.423303
-0.495289
-0.000861662
-0.424574
-0.495323
-0.000618616
-0.42464
-0.495729
-0.00263089
-0.423926
-0.49546
-0.426969
-0.497419
0.000275976
1.63071
0.000330137
1.63027
0.000227849
1.63033
0.000252794
1.63038
0.000614766
1.63009
1.62934
-0.000284948
-2.35899
-2.84399
-8.19402e-05
-2.36304
-2.84364
0.000163516
-2.36168
-2.84403
4.12971e-05
-2.36098
-2.84362
0.000190127
-2.36195
-2.84363
-2.36079
-2.84414
0.00207058
-2.40407
-0.452484
-0.000140219
-2.40417
-0.451949
-0.000233665
-2.40452
-0.452395
5.76793e-05
-2.40444
-0.452569
-0.00034923
-2.40433
-0.452671
-2.40545
-0.453112
0.000470668
1.08547
3.99859e-05
1.08437
-0.000236958
1.08466
0.000117884
1.08452
0.0011515
1.08357
1.08486
0.000151228
-3.00813
-1.56722
0.000226296
-3.00931
-1.56758
0.000474139
-3.00895
-1.5677
0.000103739
-3.00865
-1.56707
-0.000205672
-3.0096
-1.5671
-3.00794
-1.56765
0.000316621
-2.58234
-0.878593
0.000255561
-2.58258
-0.878624
0.00104722
-2.58258
-0.879554
0.000502449
-2.58272
-0.877961
-0.0010788
-2.58384
-0.876853
-2.58131
-0.880819
8.51612e-05
0.567434
-6.90803e-05
0.566148
-0.000410707
0.566745
0.000206621
0.566091
0.00147297
0.564221
0.568494
-0.000207583
-2.04002
-1.70725
-0.000295008
-2.04079
-1.7075
-0.000429339
-2.04063
-1.70742
-6.4598e-05
-2.04069
-1.70758
0.000918677
-2.04159
-1.70774
-2.03962
-1.70704
-7.08902e-05
-2.28119
-0.637345
0.000119657
-2.28276
-0.636846
0.00106093
-2.28225
-0.638878
0.00016736
-2.28227
-0.635482
-0.00201235
-2.28394
-0.632325
-2.28042
-0.64203
0.000261211
0.0226994
5.12538e-05
0.0222659
-0.00025401
0.0225888
-8.88866e-06
0.0218793
0.000216774
0.0205445
0.0236565
-0.000877297
-0.612255
-1.31593
1.92906
-0.000835593
-0.616128
-1.31506
1.93115
-0.00196828
-0.61502
-1.31475
1.93091
-0.000678822
-0.613685
-1.31644
1.92884
0.00316882
-0.613145
-1.31715
1.92645
-0.61674
-1.31323
1.93314
-0.00410156
-0.620891
-1.30849
1.32122
-0.00205423
-0.628512
-1.30265
1.31299
2.87877e-05
-0.626681
-1.30634
1.31592
0.000591113
-0.623396
-1.30626
1.31541
0.0108709
-0.629912
-1.30857
1.31506
-0.626354
-1.3077
1.32818
-0.00370905
-0.188123
0.436096
0.00138858
-0.185156
0.425115
0.0092517
-0.185896
0.423313
0.000847291
-0.190126
0.442452
-0.014276
-0.193283
0.458385
-0.185835
0.414889
-0.000145943
-0.308784
-1.007
-0.000283132
-0.307659
-1.00726
-0.000631225
-0.307192
-1.00721
2.87067e-05
-0.31013
-1.00697
0.00150315
-0.31185
-1.00678
-0.304301
-1.00742
-0.00253064
-0.389454
-1.22528
-0.00169169
-0.38699
-1.22416
-0.00245411
-0.385257
-1.22751
0.0004897
-0.394392
-1.22494
0.00819346
-0.400791
-1.22733
-0.377141
-1.22666
-0.00061228
0.0508324
0.00137229
0.0512681
0.00302458
0.0504503
0.00109398
0.0493935
-0.00338494
0.048146
0.0491944
-0.000157828
-0.288024
-0.718816
-0.000308882
-0.288209
-0.718904
-0.00108815
-0.28773
-0.718705
-0.000153026
-0.288944
-0.718962
0.0022043
-0.289791
-0.719342
-0.287163
-0.718057
-0.00236273
-0.68872
-0.822225
-0.00341668
-0.690155
-0.821156
-0.00918982
-0.687024
-0.822441
-0.000664051
-0.700525
-0.821885
0.0206578
-0.716836
-0.821606
-0.67191
-0.82126
0.000150064
0.0701827
0.000157607
0.0713221
-0.000503258
0.070406
0.000507519
0.0708272
0.00316501
0.0719805
0.0686734
-0.00016348
-0.390112
-0.32854
-0.000350775
-0.390195
-0.328522
-0.00155411
-0.38896
-0.328541
-9.84139e-05
-0.392015
-0.328403
0.00294915
-0.393804
-0.328586
-0.386921
-0.328187
-0.00409302
-1.16277
-0.0454731
-0.00336616
-1.16688
-0.0451996
-0.012222
-1.15763
-0.0449153
-0.00198581
-1.18007
-0.0440693
0.0289494
-1.20408
-0.0422655
-1.13371
-0.0455261
-0.000426408
0.184871
0.000199802
0.184832
0.00037739
0.184814
-0.000287556
0.185064
0.00031834
0.185133
0.184432
-0.000209246
-0.490733
0.162403
-0.000276926
-0.490931
0.162477
-0.00127049
-0.489967
0.162419
-2.35926e-05
-0.49221
0.16256
0.00276787
-0.493809
0.162431
-0.487879
0.16246
-0.00303856
-1.16959
0.636425
-0.00250408
-1.17325
0.63658
-0.00929411
-1.16639
0.638296
-0.00223903
-1.17926
0.635927
0.0254637
-1.19864
0.634861
-1.14776
0.639814
6.31914e-06
0.372027
-1.01544e-05
0.371844
0.000717416
0.372158
4.77755e-05
0.371877
-0.00256192
0.371389
0.372771
-0.000175934
-1.54467
-0.000233826
-1.54496
-0.000866326
-1.54437
-5.98886e-05
-1.54583
0.00191451
-1.54728
-1.54267
-0.00126816
-1.54433
-0.00104857
-1.54545
-0.0021709
-1.54383
-0.000622193
-1.54693
0.00567221
-1.55104
-1.53921
-3.60353e-05
5.66518e-05
0.000506712
0.000138605
-0.00107329
6.58901e-06
1.56086
-0.0575833
2.1282e-05
1.56092
-0.0575947
3.50138e-05
1.56092
-0.0575884
4.09292e-05
1.56092
-0.0575769
4.05202e-05
1.56091
-0.057566
1.56085
-0.0575301
6.89255e-06
1.58352
-0.022665
1.42574e-05
1.58359
-0.0226713
1.86032e-05
1.58358
-0.0226668
1.93499e-05
1.58358
-0.0226612
1.53744e-05
1.58357
-0.0226544
1.5835
-0.0226413
-2.25723e-06
-0.0081312
-3.45717e-06
-0.00813388
-4.03554e-06
-0.00813198
-2.72967e-06
-0.00813025
-1.05083e-06
-0.00812795
-0.00812373
8.99605e-06
1.60528
-0.0617554
3.81896e-05
1.60535
-0.061783
6.66123e-05
1.60534
-0.0617614
8.45366e-05
1.60534
-0.0617394
0.000105948
1.60533
-0.0617199
1.60524
-0.0616058
9.10281e-06
1.59626
-0.0136571
2.49953e-05
1.59633
-0.0136711
3.65236e-05
1.59633
-0.0136608
4.03788e-05
1.59632
-0.0136483
3.57136e-05
1.59631
-0.0136313
1.59623
-0.0136026
-8.77474e-07
-0.00566243
1.81631e-06
-0.00566837
3.32238e-06
-0.00566386
4.89882e-06
-0.00566026
4.71715e-06
-0.00565451
-0.00564629
1.49226e-05
1.67625
0.0510694
9.99302e-05
1.67635
0.0509899
0.000143532
1.67633
0.0510935
0.000212278
1.67632
0.051136
0.000350838
1.67631
0.0512443
1.67612
0.0514436
2.12659e-05
1.604
0.0585733
6.26756e-05
1.60409
0.0585536
9.03115e-05
1.60407
0.0585754
0.000102433
1.60406
0.0585992
0.000102942
1.60404
0.0586382
1.60394
0.0586794
5.48231e-06
0.016821
1.76809e-05
0.0168127
2.2135e-05
0.0168212
2.23125e-05
0.0168271
1.71561e-05
0.016838
0.0168475
3.33709e-06
1.73433
0.360378
0.000270416
1.73452
0.360136
0.000235761
1.73446
0.360373
0.000423653
1.73445
0.36089
0.000832615
1.73447
0.361717
1.734
0.360468
2.23261e-05
1.56627
0.226611
0.000124103
1.5664
0.226579
0.000162724
1.56636
0.226637
0.000205151
1.56632
0.226685
0.000211807
1.56627
0.226823
1.56615
0.226737
8.78624e-06
0.0725398
3.96841e-05
0.0725316
4.62327e-05
0.0725488
5.15437e-05
0.0725377
3.72588e-05
0.0725502
0.0725703
-7.27204e-05
1.68585
0.950129
0.0010604
1.6863
0.949683
0.000773591
1.68591
0.949721
0.00151366
1.68607
0.951822
0.00195131
1.68602
0.953981
1.68474
0.948141
4.83239e-05
1.41917
0.493243
0.000388897
1.41936
0.493176
0.000434314
1.41926
0.493239
0.000494825
1.41915
0.49355
0.000423836
1.419
0.493913
1.41892
0.492985
2.15924e-05
0.140132
0.000100147
0.140133
0.000121921
0.140162
0.000115217
0.14012
9.89691e-05
0.140084
0.140208
-0.000555371
1.37302
1.50871
0.00299211
1.37395
1.50847
0.00505262
1.37306
1.50784
0.003905
1.37242
1.50962
-0.00287293
1.37145
1.51201
1.37165
1.50299
-1.13885e-05
1.06579
0.800491
0.000669131
1.06602
0.800421
0.000711136
1.0658
0.800457
0.000754952
1.06561
0.800314
-6.20841e-05
1.06537
0.80081
1.06552
0.799049
2.49983e-05
0.236981
0.000138357
0.236947
0.000108896
0.237026
0.00010597
0.236785
-1.04121e-05
0.236785
0.236917
-0.00204172
0.590602
1.47586
0.00205851
0.591965
1.4755
0.00777532
0.591249
1.4753
0.00276547
0.590166
1.47423
-0.00987525
0.589777
1.47596
0.591687
1.46904
-0.000438242
0.521421
0.870111
0.000554203
0.521672
0.869722
0.0011386
0.521411
0.86971
0.000267104
0.521369
0.869982
-0.00177209
0.521648
0.870979
0.521289
0.867676
-1.94078e-06
0.214399
0.000124867
0.214212
4.69961e-05
0.214295
-1.32084e-05
0.214092
0.000366686
0.213801
0.214419
-0.00402028
-0.189546
1.01693
-0.00228153
-0.187606
1.01377
-0.00349683
-0.187777
1.01961
-0.0050603
-0.187931
1.01259
-0.00754078
-0.186878
1.0154
-0.184295
1.01152
-0.000337248
-0.179205
0.860114
-0.000191669
-0.178083
0.86006
0.000200749
-0.178817
0.860364
-0.00108616
-0.177816
0.861159
-0.00733823
-0.17676
0.867115
-0.177846
0.853892
-7.38045e-05
0.335655
0.000133857
0.335403
0.000468653
0.335188
-0.00015085
0.336571
-0.0019217
0.338269
0.333765
-0.00437484
-0.515029
-0.0581265
-0.00230107
-0.515712
-0.069941
-0.00664436
-0.51372
-0.0534921
-0.00716143
-0.51163
-0.0699519
0.000547602
-0.503659
-0.0778792
-0.518139
-0.0657631
0.00094366
-0.241024
0.585163
0.000491834
-0.240334
0.585128
0.00128232
-0.241478
0.587328
0.00024029
-0.237801
0.58837
-0.0065332
-0.232313
0.602542
-0.245332
0.574551
-0.00075629
0.354712
-0.000235237
0.354031
0.000878202
0.353385
-0.000609949
0.356477
-0.00114234
0.358329
0.351808
-0.00369277
-1.95382
-1.1818
-0.00490358
-1.96149
-1.19301
0.00242518
-1.95903
-1.18669
-0.00887338
-1.94441
-1.18084
-0.0220449
-1.92202
-1.1929
-1.96976
-1.19803
0.00108662
-1.91837
0.548622
-0.00381191
-1.92241
0.550954
-0.00510165
-1.92159
0.551182
0.000120443
-1.91157
0.550308
0.0103144
-1.8963
0.566623
-1.93134
0.54644
0.000314193
0.297503
-0.00162537
0.297153
-0.00544123
0.297334
-0.000620755
0.299596
0.017828
0.299182
0.299394
0.00240491
-2.21401
-2.9382
0.00844065
-2.22187
-2.94557
0.0210912
-2.22958
-2.94313
0.00289882
-2.19653
-2.9387
-0.0243547
-2.20196
-2.94189
-2.23998
-2.95227
-0.00733501
-1.92425
0.266194
-0.0116045
-1.93277
0.266123
-0.0204844
-1.93422
0.264705
-0.0133677
-1.91514
0.2618
0.00090045
-1.92295
0.273344
-1.93709
0.244459
0.00245909
0.368859
-0.00501717
0.376928
-0.0189232
0.381541
-0.00206701
0.363008
0.0286582
0.347557
0.39461
0.0034856
-3.43087
0.00738175
-3.43774
0.0122337
-3.45714
0.00742483
-3.3835
-0.00596909
-3.36984
-3.48176
0.0173496
-1.8608
0.0208701
-1.86215
0.0188473
-1.87449
0.035958
-1.8234
0.016999
-1.76248
-1.89212
0.0141668
0.0155149
0.0227149
0.0300909
-0.014095
)
;

boundaryField
{
    seabed_topleft_surface
    {
        type            calculated;