/*--------------------------------*- C++ -*----------------------------------*\
| =========                 |                                                 |
| \\      /  F ield         | OpenFOAM: The Open Source CFD Toolbox           |
|  \\    /   O peration     | Version:  v1612+                                |
|   \\  /    A nd           | Web:      www.OpenFOAM.com                      |
|    \\/     M anipulation  |                                                 |
\*---------------------------------------------------------------------------*/
FoamFile
{
    version     2.0;
    format      ascii;
    class       volVectorField;
    location    "4.55";
    object      U;
}
// * * * * * * * * * * * * * * * * * * * * * * * * * * * * * * * * * * * * * //

dimensions      [0 1 -1 0 0 0 0];

internalField   nonuniform List<vector> 
1116
(
(0.165141 -1.14692e-05 -0.195088)
(0.165141 -1.23052e-05 -0.195096)
(0.165142 -5.67186e-06 -0.195085)
(0.165143 -4.41428e-06 -0.195083)
(0.165141 1.15403e-05 -0.195095)
(0.165139 1.54252e-05 -0.195082)
(0.501883 -6.00239e-06 -0.329443)
(0.501894 -1.07292e-05 -0.329459)
(0.501891 -5.61222e-06 -0.329441)
(0.501894 -1.88961e-06 -0.329436)
(0.501893 1.1957e-05 -0.329454)
(0.501882 1.13286e-05 -0.329441)
(0.753731 1.1463e-06 -0.322026)
(0.753758 -7.18211e-06 -0.322047)
(0.753751 -4.23776e-06 -0.322028)
(0.753755 2.76911e-07 -0.322022)
(0.753756 6.50758e-06 -0.322041)
(0.753734 2.96452e-06 -0.322032)
(0.915002 6.25523e-06 -0.258744)
(0.915045 -2.76936e-06 -0.258769)
(0.915033 -2.64446e-06 -0.258751)
(0.915036 1.24843e-06 -0.258747)
(0.91504 -5.5377e-07 -0.258766)
(0.915008 -4.44114e-06 -0.258756)
(0.885779 5.70692e-06 -0.179408)
(0.885842 -1.34227e-06 -0.179436)
(0.885825 -2.57532e-06 -0.179421)
(0.885824 -1.699e-06 -0.179417)
(0.885833 -7.09124e-06 -0.179435)
(0.885786 -8.27505e-06 -0.179421)
(0.348929 6.84126e-07 -0.0136)
(0.349007 -2.46278e-06 -0.0136225)
(0.348988 -5.28316e-06 -0.0136124)
(0.348989 -6.21979e-06 -0.0136101)
(0.349003 -1.15156e-05 -0.0136229)
(0.348938 -8.91423e-06 -0.0136091)
(-0.609686 4.22919e-06 0.338602)
(-0.609618 1.22102e-05 0.338619)
(-0.609624 -2.37744e-06 0.338609)
(-0.609622 -3.19066e-06 0.338609)
(-0.609609 -1.73269e-05 0.338609)
(-0.609679 -1.49041e-05 0.338613)
(-1.88184 -1.65407e-05 0.603503)
(-1.88181 9.46662e-06 0.603536)
(-1.88177 1.15135e-05 0.603522)
(-1.88177 3.43092e-06 0.603524)
(-1.88176 -1.34442e-05 0.603529)
(-1.88186 -9.63532e-06 0.603515)
(-3.13409 2.06111e-06 0.238079)
(-3.13414 1.80701e-05 0.238139)
(-3.13403 1.61628e-05 0.238139)
(-3.13402 2.25703e-05 0.238147)
(-3.13403 -1.31242e-05 0.238165)
(-3.13415 -1.69265e-05 0.238062)
(-3.49548 9.3988e-05 -0.553057)
(-3.49564 6.51426e-05 -0.552972)
(-3.4955 -1.33646e-05 -0.552961)
(-3.49549 3.04002e-05 -0.552955)
(-3.49553 -4.36984e-05 -0.552942)
(-3.49554 -4.96796e-05 -0.553087)
(-2.45254 0.000171368 -1.22695)
(-2.45271 0.000101778 -1.22686)
(-2.45258 -5.85653e-05 -1.22686)
(-2.45259 2.14705e-05 -1.22687)
(-2.45265 -8.30126e-05 -1.22687)
(-2.45258 -9.07504e-05 -1.22697)
(-0.987523 1.41503e-05 -1.05033)
(-0.987335 -1.41798e-05 -1.05024)
(-0.987378 -2.53655e-05 -1.05029)
(-0.98741 1.7573e-06 -1.05029)
(-0.987387 -3.70694e-05 -1.05026)
(-0.987469 -3.46214e-05 -1.05036)
(1.3972 -8.0479e-05 -0.890324)
(1.39722 -7.7233e-05 -0.89043)
(1.39722 5.5553e-06 -0.89044)
(1.39722 1.1244e-05 -0.890456)
(1.39723 9.49716e-05 -0.890465)
(1.3972 8.65849e-05 -0.890315)
(4.19797 -9.8627e-05 -0.584999)
(4.19799 -9.91408e-05 -0.585091)
(4.19799 1.63053e-05 -0.585125)
(4.19798 1.48963e-05 -0.585139)
(4.198 0.000143619 -0.585126)
(4.19803 0.00011582 -0.584994)
(6.11934 -9.94423e-05 -0.355023)
(6.11943 -9.89748e-05 -0.35507)
(6.11944 3.93662e-05 -0.355116)
(6.11939 3.25817e-05 -0.355116)
(6.11942 0.000180518 -0.355081)
(6.11948 0.000141221 -0.355002)
(11.2726 -8.95793e-05 0.524809)
(11.2727 -8.04062e-05 0.524808)
(11.2727 3.69036e-05 0.524771)
(11.2727 -1.47141e-05 0.524788)
(11.2728 0.000112728 0.524828)
(11.2728 9.67427e-05 0.524853)
(5.8011 2.46902e-05 0.856312)
(5.80111 2.16121e-05 0.856326)
(5.8011 2.87447e-06 0.856314)
(5.80101 -1.79221e-05 0.856315)
(5.80103 -1.39221e-05 0.856323)
(5.80099 -1.88253e-05 0.856316)
(2.12221 -3.17735e-05 1.23555)
(2.12263 -2.96395e-05 1.23554)
(2.12249 6.85283e-07 1.23553)
(2.12245 -3.47775e-05 1.23553)
(2.12256 -5.62011e-05 1.23552)
(2.12226 -3.58443e-05 1.23551)
(-0.288611 0.000176013 1.69927)
(-0.288288 0.000103198 1.69935)
(-0.288389 -8.08456e-05 1.69931)
(-0.288355 4.84637e-05 1.6993)
(-0.288226 -8.52288e-05 1.69933)
(-0.28852 -0.000137833 1.69925)
(-1.26839 3.87794e-05 1.54125)
(-1.26837 2.23417e-05 1.54126)
(-1.26833 -1.96836e-05 1.54126)
(-1.2683 7.64348e-06 1.54127)
(-1.26828 -3.12303e-05 1.54127)
(-1.26843 -4.29358e-05 1.54124)
(-2.0188 9.60032e-05 0.88318)
(-2.01891 4.93565e-05 0.883239)
(-2.0188 -2.60108e-05 0.883254)
(-2.01878 4.80935e-05 0.883275)
(-2.01879 -1.53425e-05 0.883307)
(-2.01886 -3.53664e-05 0.883184)
(-1.98776 0.000390166 -0.258428)
(-1.98795 0.000213801 -0.257947)
(-1.98778 -0.000143978 -0.258058)
(-1.98781 9.08521e-05 -0.258069)
(-1.98785 -7.95361e-05 -0.257954)
(-1.98779 -0.000135283 -0.258313)
(-1.53319 0.000453157 -1.72441)
(-1.53279 0.000249337 -1.72365)
(-1.53281 -0.000209325 -1.72386)
(-1.53299 5.56868e-05 -1.72394)
(-1.533 -8.68788e-05 -1.72376)
(-1.53293 -0.000151102 -1.72426)
(-1.04536 -0.00024983 -2.02503)
(-1.04508 -0.000154016 -2.02508)
(-1.04508 6.24549e-05 -2.02508)
(-1.04523 -7.68751e-05 -2.02506)
(-1.04537 7.41485e-05 -2.02505)
(-1.04509 0.000113789 -2.02517)
(-0.534942 -3.12599e-05 -3.76159)
(-0.534829 -1.85279e-05 -3.76208)
(-0.534871 9.75622e-06 -3.76202)
(-0.534852 1.08595e-05 -3.76201)
(-0.534808 2.00439e-05 -3.76208)
(-0.534953 3.45185e-05 -3.76157)
(-1.58583 -4.20365e-05 -4.03424)
(-1.58564 -1.67198e-05 -4.03469)
(-1.58569 1.73421e-05 -4.03466)
(-1.5857 -1.23411e-06 -4.03464)
(-1.58565 5.21122e-05 -4.03468)
(-1.58582 7.39232e-05 -4.03422)
(-1.31326 -0.000126998 -4.56052)
(-1.31313 -8.70964e-05 -4.56101)
(-1.31318 1.35906e-05 -4.56098)
(-1.31321 -3.52147e-05 -4.56098)
(-1.31319 6.40192e-05 -4.56102)
(-1.31324 0.000101788 -4.5605)
(-1.38124 -0.000153075 -2.40203)
(-1.38137 -0.00011828 -2.40268)
(-1.38136 -1.44488e-05 -2.40264)
(-1.38134 -8.04264e-05 -2.40262)
(-1.38136 2.81926e-05 -2.40268)
(-1.38112 5.29184e-05 -2.40202)
(5.08622 0.000442861 6.21085)
(5.08592 0.000283232 6.21098)
(5.08605 -0.000150114 6.21096)
(5.08601 4.75505e-05 6.21102)
(5.08596 -0.000128629 6.21113)
(5.08611 -0.00024489 6.21123)
(2.976 0.000608245 7.68224)
(2.98486 0.000298711 7.68157)
(2.98098 -0.000315014 7.6817)
(2.98051 5.6824e-05 7.68164)
(2.98335 -0.000215203 7.68138)
(2.97946 -0.000338399 7.68122)
(-4.41139 0.00069795 4.20949)
(-4.4088 0.000359004 4.21205)
(-4.41004 -0.000373219 4.21085)
(-4.41021 0.000136625 4.21074)
(-4.40937 -0.000233631 4.21154)
(-4.41049 -0.000407436 4.21005)
(-2.39634 0.000377805 2.0594)
(-2.39509 0.000189243 2.06005)
(-2.39569 -0.000160563 2.05974)
(-2.39572 9.53309e-05 2.05976)
(-2.39537 -0.000143926 2.05997)
(-2.39601 -0.000232093 2.05953)
(-1.9241 0.000716751 0.791509)
(-1.92257 0.000359033 0.79234)
(-1.92324 -0.000316671 0.791941)
(-1.92335 0.000210825 0.791997)
(-1.92293 -0.000170865 0.792262)
(-1.92367 -0.000360302 0.791695)
(-1.4815 0.000559815 -0.799528)
(-1.47897 0.00026895 -0.797356)
(-1.48004 -0.000260419 -0.798287)
(-1.48035 0.000142392 -0.798414)
(-1.47967 -0.000106007 -0.797742)
(-1.48073 -0.000237064 -0.798995)
(-0.880897 -0.000485634 -2.12485)
(-0.876417 -0.000280743 -2.12197)
(-0.87831 0.000136116 -2.12315)
(-0.878759 -0.000297248 -2.12354)
(-0.877568 0.000287579 -2.12274)
(-0.879618 0.000496735 -2.12404)
(-1.11309 -0.000859424 -2.52582)
(-1.11282 -0.000445518 -2.52652)
(-1.11287 0.000233699 -2.52616)
(-1.1129 -0.000487847 -2.52634)
(-1.11305 0.000484643 -2.52674)
(-1.11284 0.000770349 -2.52575)
(0.171627 -5.13188e-07 -1.21462)
(0.171615 -2.94373e-06 -1.21533)
(0.171627 2.15773e-06 -1.21519)
(0.17162 -7.6277e-06 -1.2152)
(0.171612 8.0135e-06 -1.21534)
(0.171638 3.30748e-06 -1.2146)
(-0.165568 -1.26076e-06 -1.50652)
(-0.165611 -1.03208e-06 -1.50713)
(-0.165584 9.83915e-06 -1.50703)
(-0.165586 -3.36757e-06 -1.50703)
(-0.165594 8.2486e-06 -1.50715)
(-0.165537 -2.49838e-06 -1.50649)
(0.131144 -9.77504e-05 -2.09385)
(0.131002 -6.23946e-05 -2.09429)
(0.13108 3.21905e-05 -2.09423)
(0.131098 -2.00736e-05 -2.09424)
(0.131084 2.8772e-05 -2.09431)
(0.13121 3.44834e-05 -2.09389)
(-1.64792 -8.62179e-05 -3.37307)
(-1.64874 -5.6784e-05 -3.37358)
(-1.64843 -6.18518e-06 -3.37353)
(-1.64834 -8.8413e-05 -3.37356)
(-1.64846 -5.69389e-05 -3.37368)
(-1.648 -2.5784e-05 -3.37337)
(-1.72333 0.000811186 2.04528)
(-1.72535 0.00046028 2.04315)
(-1.72456 -0.000318115 2.04409)
(-1.72448 0.000213096 2.04414)
(-1.72515 -0.000137402 2.04332)
(-1.72414 -0.000422824 2.04409)
(2.46305 0.000781352 11.1847)
(2.4708 0.000327993 11.1858)
(2.46754 -0.000433228 11.1852)
(2.46704 0.000196855 11.185)
(2.46982 -0.000103781 11.1852)
(2.46635 -0.000369309 11.1843)
(-7.6974 -0.000721438 5.39581)
(-7.69455 -0.000652891 5.4106)
(-7.69619 5.06218e-05 5.40324)
(-7.69723 -0.000226037 5.40209)
(-7.69543 -7.59754e-05 5.40797)
(-7.69698 0.000154253 5.40055)
(-6.50352 -0.00142339 -1.32403)
(-6.50202 -0.00105598 -1.31896)
(-6.50278 0.000830499 -1.32128)
(-6.50327 0.000139585 -1.32151)
(-6.50261 7.48589e-05 -1.31978)
(-6.50336 0.00039368 -1.32269)
(-4.52064 -0.00210265 -1.24264)
(-4.51574 -0.00138374 -1.2377)
(-4.51798 0.00118171 -1.24)
(-4.51866 -0.000126608 -1.24034)
(-4.51694 0.000377664 -1.23852)
(-4.51963 0.000944368 -1.24152)
(-3.14987 -0.00279526 -2.01663)
(-3.14159 -0.00171323 -2.01287)
(-3.14544 0.00142114 -2.01461)
(-3.14604 -0.000546201 -2.01497)
(-3.14323 0.000697746 -2.01364)
(-3.14827 0.00153292 -2.01565)
(-2.4612 -0.0026092 -3.07626)
(-2.45398 -0.00149356 -3.07492)
(-2.45754 0.00116322 -3.07544)
(-2.45738 -0.000824739 -3.07617)
(-2.45493 0.000959594 -3.07631)
(-2.4601 0.00175325 -3.07505)
(-2.43804 -0.00103949 -2.86623)
(-2.4379 -0.000496624 -2.86743)
(-2.43807 0.000264081 -2.86668)
(-2.43777 -0.000713208 -2.86746)
(-2.43775 0.00072565 -2.86884)
(-2.43806 0.00111006 -2.86514)
(0.458128 -5.16265e-05 0.474817)
(0.458159 -0.000131452 0.474844)
(0.45825 -0.000130924 0.474824)
(0.458238 -6.79738e-05 0.474876)
(0.458448 0.000141084 0.474865)
(0.457936 0.00016029 0.474801)
(1.48398 -0.000111444 0.548163)
(1.4841 -0.000363822 0.54811)
(1.48467 -0.000334662 0.548216)
(1.48505 -0.000502292 0.548155)
(1.48665 0.000722717 0.548238)
(1.48285 0.00115702 0.54828)
(2.76229 0.000255408 0.895075)
(2.76189 -0.00130683 0.893571)
(2.76367 -0.0030993 0.896225)
(2.76349 -0.00790056 0.892849)
(2.76972 0.0077842 0.895984)
(2.75446 0.014094 0.896066)
(4.36993 0.00224687 1.8206)
(4.36051 -0.00184062 1.81966)
(4.36431 -0.00720624 1.82041)
(4.37604 -0.0258723 1.82174)
(4.43934 0.0291731 1.83161)
(4.3092 0.0517451 1.8129)
(9.02648 0.00526691 1.87228)
(9.0079 -0.000882603 1.89)
(8.98429 0.00383794 1.85917)
(9.09342 -0.0151513 1.91465)
(9.32006 0.0276729 1.90635)
(8.77634 0.0526414 1.86242)
(15.5503 0.00970532 -1.16216)
(15.5603 0.002611 -1.11788)
(15.482 0.0136884 -1.18496)
(15.659 0.0254058 -1.08757)
(15.8808 0.00299667 -1.09636)
(15.1555 -0.000233674 -1.06542)
(16.864 0.0195112 -4.80154)
(16.9195 0.0144257 -4.79211)
(16.8428 0.00495397 -4.85071)
(16.9184 0.046206 -4.75801)
(17.0959 -0.00276259 -4.83896)
(16.6526 -0.0314351 -4.77965)
(13.4331 0.022288 -6.39661)
(13.4881 0.0197847 -6.4055)
(13.4659 0.0131488 -6.44411)
(13.4285 0.0819574 -6.38174)
(13.5351 -0.00608987 -6.47642)
(13.3694 -0.0558942 -6.37724)
(8.70095 0.0100401 -7.52633)
(8.71296 0.00930098 -7.54528)
(8.7361 0.0121767 -7.57151)
(8.64502 0.0599379 -7.50594)
(8.64939 -0.0285105 -7.57174)
(8.70974 -0.0505821 -7.51224)
(4.46418 0.000353415 -7.96254)
(4.47857 0.00794017 -7.99446)
(4.51046 0.0379009 -8.02327)
(4.36255 0.0863936 -7.89173)
(4.27513 -0.066542 -7.93471)
(4.53172 -0.0822971 -7.97093)
(-7.5102 -0.00102705 -3.97725)
(-7.50436 0.00273656 -4.01073)
(-7.40598 0.0654778 -4.06378)
(-7.72479 0.161372 -3.78342)
(-7.96049 -0.142494 -3.74442)
(-7.16815 -0.157223 -4.13057)
(-8.78063 0.00650395 1.98591)
(-8.76929 0.0444682 2.03389)
(-8.67033 0.0476168 2.0204)
(-8.92841 0.0509039 2.36115)
(-9.10545 -0.0223415 2.45927)
(-8.48798 0.000545399 2.08155)
(0.471278 -4.78433e-05 1.43388)
(0.471327 -0.000130574 1.43395)
(0.471424 -0.00011073 1.43396)
(0.471395 -5.52845e-05 1.43398)
(0.471563 0.000125508 1.43396)
(0.471106 0.000149692 1.43393)
(1.49859 -0.000100583 1.66926)
(1.49884 -0.000421882 1.6693)
(1.49946 -0.00021676 1.66954)
(1.49957 -0.00029348 1.6693)
(1.50092 0.000496048 1.66941)
(1.49771 0.000898778 1.66949)
(2.7376 -0.000202069 2.45341)
(2.73889 -0.00176789 2.45194)
(2.73999 -0.00282239 2.45365)
(2.74066 -0.00645588 2.45489)
(2.74505 0.00695755 2.46112)
(2.73121 0.0119812 2.45092)
(3.61308 -0.00295297 4.41257)
(3.61634 -0.00322145 4.4114)
(3.6098 -0.011093 4.40821)
(3.63301 -0.0263696 4.42564)
(3.66846 0.0392222 4.44666)
(3.56654 0.0543966 4.38672)
(5.24605 -0.0135258 6.33245)
(5.26788 -0.0018325 6.35043)
(5.20383 -0.0085992 6.32661)
(5.38836 -0.0256476 6.36353)
(5.52884 0.059676 6.36032)
(5.02337 0.0673966 6.28214)
(9.94554 -0.0152908 5.7374)
(10.0516 -0.00201749 5.77329)
(9.88771 0.00485283 5.76482)
(10.2396 0.00715667 5.73462)
(10.2928 -0.0155154 5.71783)
(9.57384 -0.0260981 5.7423)
(11.6149 0.00691002 3.00308)
(11.7998 0.00709635 3.05005)
(11.6884 -0.00366843 3.11372)
(11.7983 -0.00857404 2.8969)
(11.6181 -0.0575921 3.00744)
(11.5683 -0.0495538 3.13305)
(9.20585 0.00862821 -2.65596)
(9.24114 0.00503256 -2.57638)
(9.25 -0.0241836 -2.47893)
(9.20673 -0.0609881 -2.76937)
(9.11049 -0.00786916 -2.45433)
(9.26733 0.0343199 -2.36908)
(9.7655 -0.000293656 -8.75375)
(9.76748 0.0115704 -8.75507)
(9.72484 -0.0226144 -8.71602)
(9.81142 -0.0561263 -8.78536)
(9.79852 0.0573253 -8.72713)
(9.6708 0.0768358 -8.71543)
(9.65726 -0.005654 -9.28314)
(9.66534 -0.00117994 -9.30794)
(9.63299 -0.0192534 -9.26567)
(9.72593 -0.0381766 -9.33947)
(9.7528 0.0255471 -9.33517)
(9.55501 0.051851 -9.23892)
(5.45782 -0.00941516 -3.68961)
(5.43478 -0.01475 -3.69042)
(5.57657 -0.0331507 -3.96006)
(5.32126 -0.0245048 -3.42243)
(5.19087 -0.0162513 -3.06997)
(5.55887 0.0353362 -4.12612)
(-3.14732 0.0354731 8.8385)
(-3.10218 0.0247982 8.79778)
(-2.87368 0.210494 8.50611)
(-3.43652 0.44234 8.73725)
(-3.88065 -0.165293 8.77168)
(-2.50489 -0.326592 7.84585)
(0.303341 -2.11518e-05 2.22332)
(0.30338 -5.99099e-05 2.22341)
(0.303417 -3.59612e-05 2.22345)
(0.303404 -1.00368e-05 2.22347)
(0.303458 0.000119123 2.22349)
(0.303206 0.000126376 2.22337)
(0.895368 -5.66769e-05 2.52943)
(0.89552 -0.000182969 2.52957)
(0.895715 -7.2722e-05 2.52973)
(0.895794 -7.00667e-05 2.52961)
(0.89635 0.000420871 2.52973)
(0.89467 0.000547236 2.52942)
(1.43032 -0.000162717 3.29039)
(1.43126 -0.00072594 3.29021)
(1.43116 -0.000848678 3.29098)
(1.43205 -0.00199611 3.29185)
(1.4337 0.00278972 3.29489)
(1.42705 0.00444347 3.28858)
(1.42122 -0.00194624 4.96716)
(1.42504 -0.00159154 4.96736)
(1.42082 -0.00437122 4.96539)
(1.42625 -0.0105087 4.97793)
(1.43126 0.0168128 4.99155)
(1.40797 0.0222981 4.94979)
(0.316504 -0.0100304 6.95523)
(0.328451 -0.000433454 6.96835)
(0.306816 -0.002786 6.95138)
(0.357122 -0.0113063 6.98027)
(0.387831 0.0368829 6.98464)
(0.258598 0.036473 6.91372)
(0.249237 -0.0156179 6.11286)
(0.299158 -0.0015963 6.15494)
(0.239386 0.0137613 6.1417)
(0.378233 0.0204317 6.10545)
(0.390381 -0.00293796 6.05206)
(0.132502 -0.0200354 6.12197)
(0.838647 -0.00417509 0.373343)
(0.922616 -0.00727204 0.434518)
(0.915145 0.000526775 0.479447)
(0.896339 0.00453079 0.262801)
(0.791918 -0.049128 0.148389)
(0.883512 -0.0421138 0.517476)
(1.72781 -0.00214435 -4.6764)
(1.76555 -0.0196869 -4.67701)
(1.77101 -0.0190194 -4.60437)
(1.73666 -0.0157498 -4.79708)
(1.70994 -0.0668278 -4.83919)
(1.76121 -0.0393899 -4.4348)
(5.45283 -0.00174383 -7.82153)
(5.49007 -0.000287589 -7.83368)
(5.48164 -0.00711295 -7.74282)
(5.49984 0.000670422 -7.94893)
(5.4939 -0.00655008 -8.03772)
(5.50267 0.00883086 -7.68144)
(8.65212 -0.00333607 -9.42819)
(8.68508 -0.000203734 -9.44335)
(8.63751 -0.0155402 -9.30665)
(8.76964 -0.030428 -9.59171)
(8.8136 0.018774 -9.72421)
(8.57186 0.0414563 -9.19122)
(7.71283 -0.0129589 -6.49063)
(7.73808 -0.0107474 -6.5033)
(7.6786 -0.0710917 -6.52914)
(7.83797 -0.140393 -6.52757)
(7.92211 0.083432 -6.56833)
(7.58224 0.134949 -6.55069)
(1.73268 -0.0251888 0.963477)
(1.73069 0.00210449 0.90077)
(2.251 -0.0860406 -0.0342507)
(1.71525 -0.190083 2.38207)
(1.81154 -0.0962249 4.09008)
(2.39541 0.201434 -0.556527)
(0.154203 -2.04378e-06 2.66267)
(0.154225 -6.6364e-06 2.66277)
(0.154228 1.50121e-05 2.66279)
(0.154217 3.36337e-05 2.6628)
(0.154216 7.75234e-05 2.66282)
(0.154124 5.85263e-05 2.66267)
(0.40568 -1.59829e-05 2.90904)
(0.40576 -2.71714e-05 2.90918)
(0.405769 2.65171e-05 2.90924)
(0.405763 5.29988e-05 2.90922)
(0.405844 0.000232292 2.90928)
(0.405334 0.000216982 2.90891)
(0.463285 -6.35856e-05 3.4133)
(0.463583 -9.61454e-05 3.41353)
(0.46337 3.34178e-06 3.4137)
(0.463613 -0.000156481 3.41384)
(0.464 0.000858114 3.41456)
(0.462113 0.00104595 3.41243)
(0.068609 -0.000484611 4.24287)
(0.069964 -0.000122809 4.24365)
(0.0683553 -0.000225783 4.24305)
(0.0687429 -0.00159169 4.24595)
(0.0679259 0.00346454 4.24947)
(0.0654709 0.00441428 4.23753)
(-1.37667 -0.0029255 5.18764)
(-1.37326 0.000510042 5.19255)
(-1.37681 0.00122271 5.1858)
(-1.37824 -0.000805186 5.19577)
(-1.38249 0.0103135 5.19877)
(-1.37886 0.00886057 5.17166)
(-3.28045 -0.00619183 4.59358)
(-3.27135 0.000403888 4.6109)
(-3.27772 0.0127428 4.60187)
(-3.2672 0.0192885 4.58868)
(-3.27329 -0.00339906 4.56797)
(-3.28161 -0.0157571 4.59092)
(-4.0733 -0.00617848 1.38805)
(-4.05788 -0.00288548 1.41078)
(-4.05457 0.0159782 1.41844)
(-4.06927 0.0301954 1.37011)
(-4.1038 -0.0246058 1.34547)
(-4.03335 -0.0399983 1.42791)
(-2.71532 -0.00590797 -1.18656)
(-2.71241 -0.00808662 -1.17328)
(-2.71823 0.00355868 -1.16419)
(-2.70338 0.015897 -1.17946)
(-2.72624 -0.0399232 -1.17024)
(-2.70265 -0.0505501 -1.14161)
(-0.764142 -0.00768075 -3.59851)
(-0.722836 -0.00696884 -3.60591)
(-0.750201 -0.00595884 -3.59764)
(-0.749548 -0.00807574 -3.60105)
(-0.72533 -0.0148903 -3.5957)
(-0.703932 -0.0111398 -3.62086)
(5.34815 -0.00564443 -7.30917)
(5.39682 -0.0106956 -7.30419)
(5.33809 0.00584838 -7.33824)
(5.44766 0.00604283 -7.22463)
(5.55863 -0.023294 -7.15279)
(5.32706 -0.0207412 -7.36844)
(6.97047 -0.00552548 -7.04058)
(6.99283 0.0114313 -7.03866)
(6.91572 -0.0183241 -7.05246)
(7.10105 -0.0513273 -6.99969)
(7.22498 0.061446 -7.01117)
(6.84158 0.0728111 -7.07302)
(4.16052 -0.0103279 -3.50644)
(4.16924 0.0422992 -3.5041)
(4.151 -0.0832536 -3.53097)
(4.19105 -0.187083 -3.46718)
(4.26472 0.180246 -3.48126)
(4.12752 0.231626 -3.56196)
(-0.0718454 5.30629e-05 -2.51078)
(-0.0718964 4.47134e-05 -2.51117)
(-0.0718892 -1.39962e-05 -2.5111)
(-0.0718918 1.28609e-05 -2.5111)
(-0.0719015 -4.56013e-05 -2.51117)
(-0.0718588 -5.99815e-05 -2.51077)
(-0.113541 3.36269e-05 -1.57543)
(-0.113544 2.59465e-05 -1.57569)
(-0.113544 -9.71232e-06 -1.57565)
(-0.113546 1.76721e-06 -1.57565)
(-0.113547 -3.88018e-05 -1.5757)
(-0.113548 -4.66823e-05 -1.57543)
(-0.0253422 1.84976e-05 -1.62709)
(-0.0253409 1.74e-05 -1.62724)
(-0.0253415 -3.7384e-07 -1.62722)
(-0.0253421 3.59355e-06 -1.62721)
(-0.0253419 -1.69419e-05 -1.62724)
(-0.0253437 -1.96872e-05 -1.6271)
(-0.433918 1.35859e-05 -2.63275)
(-0.43404 1.42226e-05 -2.63308)
(-0.434025 -1.59905e-05 -2.63304)
(-0.434032 -4.61371e-06 -2.63304)
(-0.434055 -4.10818e-05 -2.6331)
(-0.43394 -4.40248e-05 -2.63274)
(-0.429788 1.66364e-05 -1.52403)
(-0.42978 8.43091e-06 -1.52425)
(-0.429776 -1.68217e-05 -1.52422)
(-0.429776 -6.06439e-06 -1.52422)
(-0.42977 -3.61054e-05 -1.52427)
(-0.429773 -3.99323e-05 -1.52402)
(-0.0845631 1.71921e-05 -1.47939)
(-0.0845588 1.51334e-05 -1.47956)
(-0.0845596 -1.77245e-06 -1.47955)
(-0.0845618 2.94419e-06 -1.47955)
(-0.0845625 -1.60385e-05 -1.47958)
(-0.0845683 -1.9602e-05 -1.47943)
(-0.571069 -7.65866e-05 -2.3798)
(-0.571378 -4.76882e-05 -2.38012)
(-0.571299 -5.84917e-06 -2.38009)
(-0.571302 -4.18605e-05 -2.38008)
(-0.571362 -2.63406e-05 -2.38013)
(-0.571123 -8.56366e-06 -2.37979)
(-0.835114 -1.5476e-05 -1.34285)
(-0.835097 -1.05802e-05 -1.34301)
(-0.83508 -1.55163e-05 -1.343)
(-0.835084 -2.25419e-05 -1.34299)
(-0.835086 -3.1251e-05 -1.34303)
(-0.835107 -2.5059e-05 -1.34283)
(-0.169095 1.50408e-05 -1.01893)
(-0.169088 1.1904e-05 -1.01908)
(-0.169086 -4.8627e-06 -1.01908)
(-0.169088 -3.69531e-06 -1.01908)
(-0.169086 -2.0847e-05 -1.0191)
(-0.169101 -2.18387e-05 -1.01896)
(-1.91795 -4.41879e-05 -2.19977)
(-1.91888 -2.41298e-05 -2.20016)
(-1.91859 -2.5231e-06 -2.20014)
(-1.91861 -4.89915e-05 -2.20016)
(-1.9188 -3.35216e-05 -2.20022)
(-1.91846 -1.88787e-05 -2.19993)
(-1.95341 -7.845e-05 -1.48215)
(-1.9537 -4.37859e-05 -1.48237)
(-1.95358 5.98744e-06 -1.48235)
(-1.9536 -4.30706e-05 -1.48233)
(-1.95366 -1.05809e-05 -1.48238)
(-1.95364 1.03778e-05 -1.48215)
(-0.46801 -7.18138e-06 -0.273464)
(-0.467992 -7.29768e-06 -0.27353)
(-0.467978 -1.10364e-05 -0.273551)
(-0.467986 -2.18156e-05 -0.273538)
(-0.467982 -2.64796e-05 -0.273547)
(-0.468053 -2.08919e-05 -0.273411)
(-3.45574 0.000685129 2.21921)
(-3.45704 0.000328268 2.21833)
(-3.45661 -0.000279063 2.21851)
(-3.45669 0.000196896 2.21847)
(-3.45706 -0.000166626 2.21811)
(-3.45651 -0.000397392 2.21853)
(-3.52032 0.000166268 0.951043)
(-3.52134 3.76801e-05 0.950626)
(-3.521 -7.03213e-05 0.950594)
(-3.52107 5.74644e-05 0.950599)
(-3.52125 -4.07711e-05 0.950452)
(-3.52096 -8.57327e-05 0.950843)
(-1.50785 -2.8925e-05 1.40629)
(-1.50803 -1.31742e-05 1.40636)
(-1.50795 1.25077e-05 1.40632)
(-1.50795 -1.21291e-05 1.40636)
(-1.50797 -3.71859e-06 1.40638)
(-1.50802 -1.95237e-06 1.40655)
(2.03821 0.000702036 12.4451)
(2.04169 0.000176824 12.4459)
(2.04005 -0.0004211 12.4452)
(2.03969 0.000307026 12.445)
(2.04111 -0.000165211 12.4452)
(2.03832 -0.000504863 12.4443)
(0.14218 0.000647876 9.93053)
(0.141933 0.000164909 9.93095)
(0.141889 -0.000371347 9.93037)
(0.141594 9.68637e-05 9.93015)
(0.141717 -0.000356115 9.93032)
(0.141113 -0.000483937 9.93005)
(-0.838938 0.000226234 5.15136)
(-0.839602 8.26681e-05 5.1515)
(-0.839305 -4.30978e-05 5.15127)
(-0.83945 7.94445e-05 5.15122)
(-0.839551 -2.80924e-05 5.15126)
(-0.839335 -5.37055e-05 5.15167)
(-2.7122 -0.00119998 10.6369)
(-2.70911 -0.00102811 10.6434)
(-2.71091 2.18234e-05 10.6401)
(-2.71156 -0.000655573 10.6398)
(-2.70994 1.1756e-05 10.6423)
(-2.71298 0.000499614 10.6384)
(2.20175 -0.000951722 12.9409)
(2.20408 -0.000712218 12.9459)
(2.20249 0.00010238 12.9434)
(2.20218 -0.000554822 12.9429)
(2.20328 -0.000104501 12.9445)
(2.19956 0.000235489 12.9431)
(2.85935 -0.000191044 8.50666)
(2.86024 -0.000223916 8.51002)
(2.85966 -8.48165e-05 8.50816)
(2.85949 -0.000211479 8.50791)
(2.85984 -0.000342755 8.50883)
(2.85835 -0.000259968 8.50835)
(-5.05477 5.17531e-05 -0.988935)
(-5.05418 -0.000190473 -1.00066)
(-5.05495 -0.00023118 -0.997263)
(-5.05513 -0.00023283 -0.994473)
(-5.05458 -0.00102797 -0.995567)
(-5.05801 -0.000880945 -0.993806)
(1.31474 0.000436639 5.62132)
(1.31389 0.000414264 5.61984)
(1.31382 -0.000292405 5.61938)
(1.31348 -0.000331497 5.62028)
(1.31306 -0.000176561 5.62076)
(1.31137 -0.000190169 5.61853)
(3.90605 0.00016838 4.64165)
(3.90669 0.000351631 4.64485)
(3.90611 8.25443e-05 4.64294)
(3.90613 -6.89864e-05 4.64304)
(3.90604 0.000304792 4.6438)
(3.9051 0.000207872 4.64248)
(-7.97991 0.000834041 -3.73367)
(-7.97507 8.06902e-05 -3.75473)
(-7.97786 -0.000530103 -3.74652)
(-7.97748 -7.36086e-05 -3.74299)
(-7.9748 -0.000748517 -3.74923)
(-7.98223 -0.00065872 -3.73961)
(-0.695497 0.00381769 -0.443722)
(-0.698898 0.00222696 -0.441813)
(-0.697446 -0.00201797 -0.443331)
(-0.697852 0.000154206 -0.443255)
(-0.697919 -0.00162373 -0.441978)
(-0.701149 -0.00226077 -0.448161)
(3.77176 0.000281211 -0.637821)
(3.77026 0.000383241 -0.632553)
(3.7708 0.000111642 -0.634679)
(3.77085 0.000168977 -0.635019)
(3.76999 0.000446182 -0.634278)
(3.76954 0.000253962 -0.637032)
(-6.6971 0.000245321 -3.69782)
(-6.694 -0.000397588 -3.71864)
(-6.6956 8.57087e-05 -3.70999)
(-6.69529 0.000245598 -3.70766)
(-6.69456 -7.07187e-05 -3.71426)
(-6.69714 0.000209709 -3.7027)
(-0.857976 0.00252457 -4.5429)
(-0.853936 0.000858682 -4.54586)
(-0.855545 -0.000956651 -4.54568)
(-0.856596 0.000386607 -4.54467)
(-0.855653 -0.000342137 -4.54433)
(-0.859415 -5.77744e-05 -4.54708)
(2.66162 0.000520527 -3.48199)
(2.66083 0.000290383 -3.47923)
(2.66068 -0.000202715 -3.48062)
(2.66091 -0.000354632 -3.4813)
(2.66066 0.000686337 -3.48114)
(2.65825 0.00105866 -3.4829)
(-4.84927 0.000368819 -4.17823)
(-4.85104 5.82467e-05 -4.18514)
(-4.85103 0.000161807 -4.18236)
(-4.84939 0.000585129 -4.18208)
(-4.85038 -0.000198523 -4.18494)
(-4.85011 -0.000450331 -4.179)
(-1.24252 0.000683105 -5.76616)
(-1.24411 2.63896e-05 -5.76665)
(-1.24447 0.000355491 -5.76687)
(-1.24415 0.00152153 -5.76594)
(-1.2455 -0.000588432 -5.76733)
(-1.24369 -0.0012595 -5.76553)
(1.66521 0.0002423 -3.79624)
(1.66193 -3.44317e-06 -3.79591)
(1.6631 -0.000186408 -3.79614)
(1.6623 -0.000554227 -3.79723)
(1.65855 0.000981005 -3.79885)
(1.66632 0.00160374 -3.79447)
(-4.15369 -0.000247802 -2.85972)
(-4.15415 -0.000103997 -2.86074)
(-4.15437 -0.000295992 -2.86029)
(-4.15382 -0.000825069 -2.86065)
(-4.15364 0.000772676 -2.86157)
(-4.1541 0.00114468 -2.85913)
(-1.68486 0.00013308 -6.72403)
(-1.68357 -0.000281456 -6.72582)
(-1.6867 0.000491945 -6.72573)
(-1.68096 0.00167309 -6.7254)
(-1.67553 -0.00145883 -6.72711)
(-1.69222 -0.00218576 -6.72379)
(0.682314 0.00026404 -3.07358)
(0.680259 0.000289703 -3.07728)
(0.681456 -0.000215111 -3.0756)
(0.679898 -0.000264031 -3.07656)
(0.676324 0.000229219 -3.0807)
(0.685199 0.000260147 -3.07098)
(3.15926 -0.00125127 -0.859386)
(3.15415 -0.00143413 -0.858631)
(3.15309 -0.00102573 -0.856969)
(3.16226 -0.0049893 -0.861816)
(3.16757 0.0031211 -0.863051)
(3.14382 0.00600392 -0.852414)
(3.12177 -0.00410543 -2.08282)
(3.09433 -0.00910949 -2.10515)
(3.10281 0.00433516 -2.09944)
(3.11418 -0.00550983 -2.08988)
(3.12492 0.0083049 -2.08904)
(3.09763 0.02088 -2.10885)
(1.09911 -0.00476848 -2.52012)
(1.08429 -0.00516054 -2.54611)
(1.0873 0.00937591 -2.54117)
(1.10299 0.0177788 -2.52708)
(1.11182 -0.0160148 -2.56564)
(1.08394 -0.0233303 -2.53416)
(2.2622 -9.89658e-05 -0.812174)
(2.2636 -0.000314338 -0.813207)
(2.26366 -0.000506051 -0.813251)
(2.26126 -0.00147261 -0.811142)
(2.25933 0.00159081 -0.808589)
(2.2662 0.00285745 -0.814902)
(2.35391 -0.00397087 -0.914168)
(2.35648 -0.00423245 -0.906563)
(2.36466 0.000779108 -0.903207)
(2.34875 -0.00981695 -0.927689)
(2.34955 0.00998727 -0.945625)
(2.37396 0.0206557 -0.880263)
(-0.19382 -0.00113653 -1.80978)
(-0.191568 -0.000409818 -1.80271)
(-0.190888 0.00379187 -1.79619)
(-0.189591 0.00656704 -1.82279)
(-0.184045 -0.00355126 -1.84064)
(-0.186922 -0.00757889 -1.773)
(1.75913 -0.000163066 -0.3077)
(1.75911 -0.000233281 -0.308632)
(1.75875 -0.000876738 -0.308772)
(1.75955 -0.0022036 -0.306557)
(1.76019 0.0019966 -0.303607)
(1.75752 0.0034725 -0.311023)
(2.63878 -0.00407474 -1.64902)
(2.63282 -0.00341667 -1.6501)
(2.6376 -0.00557369 -1.64612)
(2.63626 -0.0240217 -1.6587)
(2.63757 0.0216532 -1.6705)
(2.63006 0.0412001 -1.63748)
(-0.046369 -0.000228581 -2.13727)
(-0.0505626 0.000608235 -2.14335)
(-0.0481836 -0.000468443 -2.13169)
(-0.0459155 -0.000653337 -2.18291)
(-0.0470758 0.00333662 -2.24674)
(-0.0457299 0.00280219 -2.07439)
(1.06079 -0.000415488 0.113177)
(1.06093 6.68481e-06 0.112205)
(1.06079 -0.00117313 0.11195)
(1.06068 -0.00317305 0.11404)
(1.06121 0.00299384 0.11691)
(1.05972 0.00471505 0.10924)
(0.731766 -0.0064665 -2.70946)
(0.732731 -0.00463576 -2.71301)
(0.733383 -0.00670454 -2.69905)
(0.730084 -0.0294896 -2.73363)
(0.728093 0.0251382 -2.7636)
(0.735775 0.0522829 -2.66728)
(-0.206924 -0.000685355 -3.83526)
(-0.207188 -0.000573073 -3.84771)
(-0.206046 0.0010059 -3.82042)
(-0.208965 0.000300571 -3.88711)
(-0.211765 -0.000357422 -3.96255)
(-0.202484 0.000170622 -3.74844)
(0.187535 -0.000520982 0.381621)
(0.187387 4.5748e-06 0.380553)
(0.187445 -0.00100076 0.38064)
(0.187345 -0.00265827 0.381631)
(0.187857 0.00279127 0.383037)
(0.187016 0.0040022 0.379355)
(-0.680626 -0.0048607 -3.14857)
(-0.682135 -0.00361855 -3.1523)
(-0.683575 -0.00451089 -3.14106)
(-0.683011 -0.0248735 -3.16382)
(-0.686189 0.0204747 -3.19268)
(-0.683343 0.0472209 -3.11167)
(-0.6848 7.45048e-05 -4.05071)
(-0.684145 -8.92555e-05 -4.06156)
(-0.685395 0.000120755 -4.04361)
(-0.683202 0.00209569 -4.07768)
(-0.679888 -0.00207462 -4.1301)
(-0.688217 -0.00470807 -3.99446)
(-0.888971 -0.000522002 0.510346)
(-0.889025 -9.01966e-05 0.509184)
(-0.888848 -0.000674382 0.509767)
(-0.889336 -0.00192513 0.509589)
(-0.889286 0.00191402 0.507943)
(-0.888689 0.00272962 0.511476)
(-1.45901 -0.0018784 -7.98259)
(-1.45809 -0.00236286 -7.98335)
(-1.46321 -0.000240234 -7.97988)
(-1.45498 -0.0067933 -7.98852)
(-1.44741 0.0045498 -7.99666)
(-1.47042 0.0140944 -7.97056)
(-0.432583 -9.10066e-05 -3.29498)
(-0.432719 -7.67981e-05 -3.30077)
(-0.43242 0.000353476 -3.29488)
(-0.433811 0.000917654 -3.30499)
(-0.435945 -0.000760861 -3.3207)
(-0.43125 -0.00159631 -3.27727)
(0.065618 6.13589e-06 2.85204)
(0.0656295 1.16277e-05 2.85215)
(0.0656255 2.50709e-05 2.85216)
(0.0656168 3.50461e-05 2.85215)
(0.0656074 4.06709e-05 2.85215)
(0.0655791 2.1612e-05 2.85202)
(0.0282459 7.21668e-06 2.91115)
(0.0282532 1.04084e-05 2.91127)
(0.0282501 1.36494e-05 2.91127)
(0.0282458 1.77714e-05 2.91126)
(0.0282404 1.65926e-05 2.91125)
(0.0282292 6.77317e-06 2.91112)
(0.00996175 1.25355e-06 2.94034)
(0.00996511 -2.10708e-06 2.94047)
(0.00996345 -4.77763e-06 2.94045)
(0.00996187 -3.53582e-06 2.94044)
(0.0099598 -2.13547e-06 2.94043)
(0.00995583 -1.27145e-06 2.94029)
(0.147078 4.86473e-06 2.98326)
(0.147116 1.96581e-05 2.9834)
(0.147099 4.95653e-05 2.9834)
(0.14707 6.94172e-05 2.98338)
(0.147041 9.73238e-05 2.98338)
(0.146915 6.23368e-05 2.98316)
(0.0558221 6.05893e-06 2.96287)
(0.0558427 1.64927e-05 2.963)
(0.0558299 2.83501e-05 2.96299)
(0.0558139 3.71422e-05 2.96297)