/*--------------------------------*- C++ -*----------------------------------*\
| =========                 |                                                 |
| \\      /  F ield         | OpenFOAM: The Open Source CFD Toolbox           |
|  \\    /   O peration     | Version:  v1612+                                |
|   \\  /    A nd           | Web:      www.OpenFOAM.com                      |
|    \\/     M anipulation  |                                                 |
\*---------------------------------------------------------------------------*/
FoamFile
{
    version     2.0;
    format      ascii;
    class       volScalarField;
    location    "1.6";
    object      p;
}
// * * * * * * * * * * * * * * * * * * * * * * * * * * * * * * * * * * * * * //

dimensions      [1 -1 -2 0 0 0 0];

internalField   nonuniform List<scalar> 
320
(
14724.8
14724.8
14724.8
14724.8
4.9228
4.9254
4.92533
4.92471
4.92441
4.9238
4.92371
4.92367
4.92333
4.92312
4.92301
4.92375
4914.82
4914.78
4914.83
4914.8
4914.8
4914.84
4914.78
4914.84
4914.85
4914.83
4914.83
4914.86
14724.8
14724.8
14724.8
14724.8
14724.8
14724.8
14724.8
14724.8
14724.8
14724.8
14724.8
14724.8
24534.8
24534.8
24534.8
24534.8
24534.8
24534.8
24534.8
24534.8
24534.8
24534.8
24534.8
24534.8
24534.8
24534.8
24534.8
24534.8
4.92361
4.92342
4.92313
4.925
4.92303
4.92408
4.92448
4.92427
4.92348
4.92328
4.92373
4.92376
4.9237
4.92356
4.92272
4.92263
4.92267
4.92418
4.92463
4.92373
4914.81
4914.8
4914.78
4914.84
4914.84
4914.85
4914.81
4914.81
4914.8
4914.82
4914.84
4914.84
4914.85
4914.85
4914.81
4914.83
4914.84
4914.81
4914.81
4914.83
14724.8
14724.8
14724.8
14724.8
14724.8
14724.8
14724.8
14724.8
14724.8
14724.8
14724.8
14724.8
14724.8
14724.8
14724.8
14724.8
14724.8
14724.8
14724.8
14724.8
24534.8
24534.8
24534.8
24534.8
24534.8
24534.8
24534.8
24534.8
24534.8
24534.8
24534.8
24534.8
24534.8
24534.8
24534.8
24534.8
24534.8
24534.8
24534.8
24534.8
34344.8
34344.8
34344.8
34344.8
34344.8
34344.8
34344.8
34344.8
34344.8
34344.8
34344.8
34344.8
34344.8
34344.8
34344.8
34344.8
34344.8
34344.8
34344.8
34344.8
34344.8
34344.8
34344.8
34344.8
34344.8
34344.8
34344.8
34344.8
34344.8
34344.8
34344.8
34344.8
34344.8
34344.8
34344.8
34344.8
4.92375
4.92409
4.9231
4.92335
4.92387
4.924
4.92323
4.92322
4.92445
4.92458
4.92557
4.92708
4.92365
4.92384
4.92317
4.92425
4.92411
4.92358
4.92315
4.92295
4.92244
4.92231
4.92357
4.92453
4.92331
4.92216
4.92292
4.92301
4914.78
4914.79
4914.76
4914.79
4914.8
4914.79
4914.84
4914.83
4914.79
4914.78
4914.8
4914.79
4914.8
4914.79
4914.76
4914.77
4914.79
4914.84
4914.78
4914.77
4914.83
4914.78
4914.78
4914.77
4914.77
4914.83
4914.83
4914.77
14724.8
14724.8
14724.8
14724.8
14724.8
14724.8
14724.8
14724.8
14724.8
14724.8
14724.8
14724.8
14724.8
14724.8
14724.8
14724.8
14724.8
14724.8
14724.8
14724.8
14724.8
14724.8
14724.8
14724.8
14724.8
14724.8
14724.8
14724.8
24534.8
24534.8
24534.8
24534.8
24534.8
24534.8
24534.8
24534.8
24534.8
24534.8
24534.8
24534.8
24534.8
24534.8
24534.8
24534.8
24534.8
24534.8
24534.8
24534.8
24534.8
24534.8
24534.8
24534.8
24534.8
24534.8
24534.8
24534.8
34344.8
34344.8
34344.8
34344.8
34344.8
34344.8
34344.8
34344.8
34344.8
34344.8
34344.8
34344.8
34344.8
34344.8
34344.8
34344.8
34344.8
34344.8
34344.8
34344.8
34344.8
34344.8
34344.8
34344.8
34344.8
34344.8
34344.8
34344.8
4.9218
4.92254
4.92268
4.92356
4914.78
4914.79
4914.79
4914.8
)
;

boundaryField
{
    top_fluid_surface
    {
        type            calculated;
        value           nonuniform List<scalar> 
64
(
0
-3.08035e-10
-1.62304e-09
0
0
-2.89791e-09
0
-3.03109e-10
-1.77423e-08
-9.14537e-10
-3.66419e-09
-5.15137e-09
0
0
0
-1.97089e-09
-5.74596e-10
-7.97951e-11
0
0
0
-1.30801e-09
-3.05822e-13
-1.15061e-10
-2.61186e-09
-3.77341e-09
-4.46841e-10
-2.48834e-09
-3.69782e-15
0
-3.46314e-10
-4.38782e-09
0
0
0
0
0
0
-8.42309e-09
-6.11059e-09
0
0
-5.31526e-10
-6.48813e-10
0
0
0
0
0
-7.37123e-09
0
0
-9.37455e-09
0
0
0
0
-3.20711e-09
-1.02706e-08
0
0
0
0
0
)
;
    }
    bottom_fluid_surface
    {
        type            calculated;
        value           nonuniform List<scalar> 
64
(
39249.8
39249.8
39249.8
39249.8
39249.8
39249.8
39249.8
39249.8
39249.8
39249.8
39249.8
39249.8
39249.8
39249.8
39249.8
39249.8
39249.8
39249.8
39249.8
39249.8
39249.8
39249.8
39249.8
39249.8
39249.8
39249.8
39249.8
39249.8
39249.8
39249.8
39249.8
39249.8
39249.8
39249.8
39249.8
39249.8
39249.8
39249.8
39249.8
39249.8
39249.8
39249.8
39249.8
39249.8
39249.8
39249.8
39249.8
39249.8
39249.8
39249.8
39249.8
39249.8
39249.8
39249.8
39249.8
39249.8
39249.8
39249.8
39249.8
39249.8
39249.8
39249.8
39249.8
39249.8
)
;
    }
    lateral_surface_1
    {
        type            calculated;
        value           nonuniform List<scalar> 
40
(
4.92375
4.92409
4.9231
4.92335
4.92387
4.924
4.92323
4.92301
4914.78
4914.79
4914.76
4914.79
4914.8
4914.79
4914.84
4914.77
14724.8
14724.8
14724.8
14724.8
14724.8
14724.8
14724.8
14724.8
24534.8
24534.8
24534.8
24534.8
24534.8
24534.8
24534.8
24534.8
34344.8
34344.8
34344.8
34344.8
34344.8
34344.8
34344.8
34344.8
)
;
    }
    lateral_surface_2
    {
        type            calculated;
        value           nonuniform List<scalar> 
40
(
4.92384
4.92317
4.92425
4.92411
4.92358
4.92315
4.92295
4.92244
4914.79
4914.76
4914.77
4914.79
4914.84
4914.78
4914.77
4914.83
14724.8
14724.8
14724.8
14724.8
14724.8
14724.8
14724.8
14724.8
24534.8
24534.8
24534.8
24534.8
24534.8
24534.8
24534.8
24534.8
34344.8
34344.8
34344.8
34344.8
34344.8
34344.8
34344.8
34344.8
)
;
    }
    lateral_surface_3
    {
        type            calculated;
        value           nonuniform List<scalar> 
40
(
4.92323
4.92322
4.92445
4.92458
4.92557
4.92708
4.92365
4.92384
4914.84
4914.83
4914.79
4914.78
4914.8
4914.79
4914.8
4914.79
14724.8
14724.8
14724.8
14724.8
14724.8
14724.8
14724.8
14724.8
24534.8
24534.8
24534.8
24534.8
24534.8
24534.8
24534.8
24534.8
34344.8
34344.8
34344.8
34344.8
34344.8
34344.8
34344.8
34344.8
)
;
    }
    lateral_surface_4
    {
        type            calculated;
        value           nonuniform List<scalar> 
40
(
4.92244
4.92231
4.92357
4.92453
4.92331
4.92216
4.92292
4.92301
4914.83
4914.78
4914.78
4914.77
4914.77
4914.83
4914.83
4914.77
14724.8
14724.8
14724.8
14724.8
14724.8
14724.8
14724.8
14724.8
24534.8
24534.8
24534.8
24534.8
24534.8
24534.8
24534.8
24534.8
34344.8
34344.8
34344.8
34344.8
34344.8
34344.8
34344.8
34344.8
)
;
    }
}


// ************************************************************************* //
