/*--------------------------------*- C++ -*----------------------------------*\
| =========                 |                                                 |
| \\      /  F ield         | OpenFOAM: The Open Source CFD Toolbox           |
|  \\    /   O peration     | Version:  v1612+                                |
|   \\  /    A nd           | Web:      www.OpenFOAM.com                      |
|    \\/     M anipulation  |                                                 |
\*---------------------------------------------------------------------------*/
FoamFile
{
    version     2.0;
    format      ascii;
    class       surfaceScalarField;
    location    "6";
    object      alphaPhi;
}
// * * * * * * * * * * * * * * * * * * * * * * * * * * * * * * * * * * * * * //

dimensions      [0 3 -1 0 0 0 0];

internalField   nonuniform List<scalar> 
2916
(
-2.52996e-05
-0.745877
0.399206
1.0741e-05
-0.745961
0.399228
1.14992e-05
-0.745921
0.399224
-4.41993e-06
-0.745907
0.399226
1.3403e-05
-0.745928
0.399213
-0.7459
0.399216
-6.86604e-05
-1.24868
0.284294
1.62705e-05
-1.24883
0.284143
1.71275e-05
-1.24874
0.28421
-6.52165e-06
-1.24871
0.284235
2.59222e-05
-1.24876
0.284185
-1.24871
0.28425
-2.67807e-05
-1.39083
0.142206
9.57186e-06
-1.39098
0.142144
9.17813e-06
-1.39088
0.142169
-4.14902e-06
-1.39087
0.142192
5.88954e-07
-1.39091
0.142173
-1.39088
0.14219
-2.01118e-05
-1.40837
0.0175873
8.68313e-06
-1.40856
0.017574
1.09514e-05
-1.40844
0.0175831
2.55954e-07
-1.40845
0.0176163
-9.05181e-06
-1.40848
0.0176082
-1.40843
0.0175674
3.18855e-06
-1.34089
-0.0659376
8.37875e-06
-1.34111
-0.0659078
1.72535e-05
-1.34099
-0.0659227
8.87346e-06
-1.34102
-0.0658748
-2.69571e-05
-1.34105
-0.0658579
-1.34095
-0.0659614
-3.24334e-06
-1.2152
-0.102745
3.15171e-05
-1.21554
-0.102686
7.92612e-05
-1.21538
-0.102726
1.84434e-05
-1.21538
-0.102645
-9.80716e-05
-1.21541
-0.102604
-1.21531
-0.102785
-4.28295e-06
-1.06989
-0.103893
4.87157e-05
-1.07043
-0.103814
0.00013814
-1.07024
-0.103867
1.42045e-05
-1.07013
-0.10376
-0.000111295
-1.07027
-0.103674
-1.07007
-0.103964
0.000188135
-0.928937
-0.0964534
-4.2266e-06
-0.929247
-0.096369
-3.63276e-05
-0.929172
-0.0964029
-8.55579e-05
-0.929093
-0.096325
0.00029667
-0.929785
-0.0962374
-0.928621
-0.0964851
0.000390848
-0.755732
-0.129667
-1.43399e-05
-0.755104
-0.129842
-0.000266591
-0.755304
-0.129716
-0.000116313
-0.755711
-0.129622
0.000467332
-0.757435
-0.129077
-0.753944
-0.130237
0.000720742
-0.553482
-0.159511
1.43045e-05
-0.550331
-0.160634
-0.000765376
-0.550914
-0.160176
0.000156656
-0.55345
-0.159743
0.0012154
-0.556845
-0.15826
-0.547439
-0.16178
0.000755983
-0.209399
-0.301367
3.91921e-07
-0.205619
-0.300445
-0.00100354
-0.20619
-0.30023
-8.68433e-06
-0.209323
-0.301652
0.00119206
-0.212547
-0.302146
-0.203191
-0.299443
-0.000631203
-0.162783
0.000246764
-0.160571
0.000996689
-0.160961
0.000187002
-0.162567
-0.00177826
-0.16463
-0.159177
0.00015507
-1.34697
0.910452
2.09365e-05
-1.34708
0.910173
-2.50337e-05
-1.34713
0.910265
-1.69872e-05
-1.34693
0.910337
-6.35238e-05
-1.34671
0.91025
-1.3469
0.910312
0.000120014
-1.61249
0.603796
6.21529e-06
-1.61268
0.603644
-1.22994e-05
-1.61258
0.603821
7.56246e-06
-1.6126
0.603673
-6.89047e-05
-1.61262
0.603486
-1.61251
0.603682
8.10495e-05
-1.45093
0.0449005
-1.03732e-05
-1.45127
0.0450178
1.23836e-06
-1.45112
0.0449575
9.34706e-06
-1.45112
0.0449605
-5.59856e-05
-1.45121
0.0450088
-1.45099
0.0449198
-0.000138505
-0.918335
-0.0880664
-1.47911e-05
-0.918597
-0.0881368
3.34229e-05
-0.918492
-0.088112
1.35623e-05
-0.918465
-0.0880929
8.63822e-05
-0.918531
-0.0881178
-0.918379
-0.0880867
-0.000200842
-0.392999
-0.0102719
-8.43188e-06
-0.393298
-0.0102409
7.06787e-05
-0.393192
-0.0102521
3.08727e-05
-0.393129
-0.0102628
0.000134117
-0.393237
-0.010252
-0.393057
-0.0102625
-0.000112071
-0.065045
-0.000735328
-1.89769e-05
-0.0653752
-0.00073086
-1.44339e-05
-0.0652654
-0.000732308
1.85787e-05
-0.0651804
-0.000734399
0.000199048
-0.0653318
-0.000733276
-0.0651046
-0.000733338
9.59502e-05
0.103678
-7.98141e-05
-5.965e-05
0.103455
-7.93818e-05
-0.000185864
0.103529
-7.94806e-05
-1.92577e-05
0.103555
-7.98463e-05
0.000320811
0.103396
-7.9651e-05
0.103719
-7.95189e-05
0.000144514
0.225626
-3.9624e-05
-7.23052e-05
0.225777
-4.05604e-05
-0.000247839
0.225744
-3.98537e-05
-3.91379e-05
0.225561
-4.03117e-05
0.000528066
0.22527
-4.0356e-05
0.225987
-3.93909e-05
-0.000187373
0.232934
-0.00156142
3.93911e-05
0.232901
-0.00158451
0.000180411
0.233053
-0.00156404
0.000175201
0.232684
-0.00157642
-0.000326432
0.232933
-0.00158401
0.23319
-0.00154333
-0.00219832
0.145311
-0.00217843
0.000468006
0.139743
-0.00206286
0.00239109
0.141159
-0.0020894
0.000160028
0.144825
-0.00217351
-0.0058414
0.15082
-0.00226662
0.135483
-0.00200817
-0.0026084
-0.0213691
0.000820473
0.000669702
-0.0269698
0.000667549
0.00301105
-0.0259229
0.000710708
0.000752392
-0.0216571
0.000797406
-0.00603366
-0.0172736
0.00100595
-0.029996
0.000570035
0.000543684
-0.0233353
-0.000115105
-0.0258523
-0.00108334
-0.0252339
0.000276822
-0.0237744
0.00240723
-0.0219143
-0.026821
0.000203604
-0.812325
1.05706
1.18888e-05
-0.81243
1.05633
-2.11756e-05
-0.812353
1.05656
4.44596e-07
-0.812389
1.0567
-9.4851e-05
-0.812436
1.05659
-0.812338
1.05675
-7.57385e-05
-0.136238
0.0149241
1.13023e-07
-0.13635
0.0147196
6.58984e-06
-0.136306
0.0148146
-1.89752e-05
-0.136292
0.0148397
7.79884e-05
-0.136327
0.0147749
-0.136255
0.0148613
-6.06931e-05
-0.00119856
-0.000199195
-5.69077e-07
-0.00121919
-0.000201767
1.31244e-05
-0.00121007
-0.000200139
-7.09004e-08
-0.00120268
-0.000200031
3.24139e-05
-0.00121064
-0.000200613
-0.00119972
-0.000200678
-1.34389e-05
0.0110889
-6.68007e-07
2.42809e-06
0.0110555
-6.58701e-07
8.93856e-06
0.0110676
-6.63791e-07
2.2948e-06
0.0110792
-6.67388e-07
3.57535e-06
0.0110676
-6.71739e-07
0.0110786
-6.60022e-07
-1.22136e-06
0.000819607
-1.10488e-06
2.25212e-07
0.000814446
-9.90339e-07
9.18323e-07
0.000816111
-1.03199e-06
1.38496e-07
0.000818527
-1.08403e-06
6.19514e-09
0.000817179
-1.13241e-06
0.00081734
-9.9974e-07
9.61272e-08
8.95595e-05
-5.0708e-06
-2.35738e-08
8.89192e-05
-4.90636e-06
-7.5419e-08
8.9107e-05
-4.94404e-06
-2.36224e-08
8.94575e-05
-5.0749e-06
1.0875e-07
8.9268e-05
-5.19035e-06
8.92603e-05
-4.83976e-06
5.64248e-08
1.73059e-05
-6.15764e-06
-1.19473e-08
1.72525e-05
-6.17668e-06
-3.83263e-08
1.72593e-05
-6.10909e-06
-1.17512e-08
1.73381e-05
-6.2345e-06
3.73263e-08
1.73193e-05
-6.27161e-06
1.73026e-05
-6.06083e-06
2.35479e-08
7.64393e-06
-2.81679e-05
-5.72625e-09
7.67475e-06
-2.90997e-05
-1.93176e-08
7.66637e-06
-2.8394e-05
-7.10481e-09
7.67052e-06
-2.87492e-05
1.84393e-08
7.67185e-06
-2.88358e-05
7.72772e-06
-2.79985e-05
1.12411e-08
2.88374e-05
-0.00158072
-2.30944e-09
3.32355e-05
-0.00160812
-2.6716e-08
3.17174e-05
-0.00158612
2.07162e-09
2.9288e-05
-0.00159607
8.169e-08
2.56351e-05
-0.00160007
3.5257e-05
-0.00156889
-0.000270085
-0.0117053
-0.00664154
6.65403e-05
-0.0125664
-0.00643183
0.000229486
-0.0122946
-0.00650232
2.16875e-05
-0.0118324
-0.00661588
-0.000573733
-0.0111516
-0.00680432
-0.0130784
-0.00630951
-0.00107616
-0.00214433
-0.0214384
0.000315548
-0.0045368
-0.0226712
0.00121686
-0.00410035
-0.0220857
0.000454248
-0.00234296
-0.0219288
-0.00239095
-0.000558612
-0.0209196
-0.00575914
-0.0227238
0.00128618
-0.033453
-0.000263708
-0.035539
-0.00130876
-0.0350012
-0.000222615
-0.0339209
0.00303827
-0.0324512
-0.0362593
-0.000577902
-0.014726
0.299398
-0.000115272
-0.0145188
0.297227
7.18076e-05
-0.0146151
0.298021
3.27542e-05
-0.0146407
0.298344
0.000190795
-0.0145745
0.297844
-0.0146618
0.298645
-2.16371e-07
0.000198635
-1.3457e-08
-3.32938e-07
0.000201232
-1.29547e-08
-1.59262e-07
0.000199589
-1.31492e-08
-3.24984e-07
0.000199478
-1.32952e-08
2.76758e-07
0.000200074
-1.34265e-08
0.000200122
-1.32131e-08
-1.74245e-08
-1.88563e-08
-2.35006e-07
3.81588e-09
-1.95011e-08
-2.52749e-07
5.05956e-09
-1.92778e-08
-2.45551e-07
-2.73282e-09
-1.90505e-08
-2.38446e-07
5.94561e-09
-1.9391e-08
-2.36434e-07
-1.90055e-08
-2.47553e-07
-8.28464e-10
-4.3746e-08
-3.73769e-07
2.32804e-10
-4.59769e-08
-3.7004e-07
7.50693e-10
-4.53976e-08
-3.72388e-07
1.85398e-10
-4.41907e-08
-3.73997e-07
-2.97921e-10
-4.48284e-08
-3.7438e-07
-4.47753e-08
-3.7189e-07
-1.91087e-09
-2.36232e-07
-6.21949e-07
3.41704e-10
-2.38402e-07
-5.15776e-07
1.49321e-09
-2.3844e-07
-5.53925e-07
3.11563e-10
-2.38273e-07
-6.00809e-07
-1.33032e-09
-2.42512e-07
-6.41066e-07
-2.33426e-07
-5.29168e-07
1.00387e-09
-2.46395e-06
-2.52076e-06
-4.77781e-10
-2.71957e-06
-2.1025e-06
-1.4866e-09
-2.60627e-06
-2.25309e-06
-3.18753e-10
-2.54775e-06
-2.44316e-06
6.43089e-10
-2.5061e-06
-2.6004e-06
-2.61469e-06
-2.13841e-06
7.35159e-08
-3.39265e-06
-4.98265e-06
-1.15741e-08
-3.61458e-06
-4.87859e-06
-5.1034e-08
-3.48985e-06
-4.8603e-06
-1.21595e-08
-3.46202e-06
-5.03832e-06
4.8869e-08
-3.45752e-06
-5.06048e-06
-3.49388e-06
-4.8089e-06
1.03986e-07
-0.000106954
8.02417e-05
6.72864e-08
-0.000110796
8.37793e-05
-6.5447e-08
-0.000107944
8.15565e-05
7.92403e-08
-0.000109073
8.21237e-05
1.12395e-07
-0.000109151
8.20841e-05
-0.000106993
8.0859e-05
-2.1559e-05
-0.00352425
0.00186012
4.40384e-06
-0.0036093
0.00186645
1.02757e-05
-0.00355284
0.00185493
8.05825e-06
-0.00356851
0.00186767
-4.54464e-06
-0.00357475
0.0018802
-0.00351666
0.0018382
-9.38638e-05
-0.0754644
0.00914984
-1.72093e-05
-0.073193
0.0085409
6.69193e-05
-0.0738776
0.00883621
-6.17164e-06
-0.0750539
0.00892738
1.7682e-05
-0.0766974
0.00899847
-0.0725139
0.00887873
-6.15556e-05
-0.0486756
-0.0203765
-1.85614e-05
-0.0476579
-0.0204201
0.00015701
-0.0479022
-0.0204078
-2.17532e-05
-0.048563
-0.0204709
-9.07866e-05
-0.0494306
-0.0203561
-0.0471562
-0.0203391
0.000297695
-0.0548109
-1.25098e-05
-0.0552814
-5.50984e-05
-0.0552557
-2.02215e-05
-0.0549144
0.000242007
-0.0545396
-0.0555691
-0.0120934
-0.133198
0.115597
-0.0112297
-0.16433
0.130574
-0.0243256
-0.121434
0.0562075
0.0038295
-0.176988
0.0992778
0.0589156
-0.192819
0.0826935
-0.0626988
0.086513
0.00345362
-0.235818
0.0670463
0.0187365
-0.276081
0.058852
0.0446497
-0.257402
0.0632182
0.043704
-0.281373
0.0604734
0.0315882
-0.311724
0.0712136
-0.1795
0.091305
-0.00780819
-0.140718
0.0314723
-0.00268357
-0.189027
0.025987
-0.00604312
-0.132791
0.0286087
-0.00995968
-0.231429
0.0286994
-0.0095175
-0.394271
0.0278426
-0.184497
0.0350101
-0.00475706
-0.111731
0.00998545
0.00105727
-0.266308
0.00930674
-0.00116947
-0.0574625
0.00708644
-0.00344608
-0.251626
0.00873326
0.000706048
-0.39598
0.00321507
-0.142491
0.0128483
0.00412901
-0.271172
0.000293883
0.011692
-0.322043
-0.000671738
0.0129471
-0.268453
0.0035762
0.0161438
-0.290067
-7.9425e-05
0.00602918
-0.367454
-0.000326511
-0.284159
0.00574022
0.0145229
-0.280971
-8.96328e-06
0.00933516
-0.317244
-2.40949e-06
0.0234187
-0.2857
-6.34302e-05
0.0278467
-0.297613
-0.000173153
-6.21582e-05
-0.333269
-0.00227203
-0.284757
-8.68546e-05
0.00406913
-0.276797
-0.000524802
-0.00100739
-0.247913
-0.000161707
0.021315
-0.236275
-3.14897e-05
0.0276147
-0.250449
-0.00125989
0.00341812
-0.29781
-0.00911914
-0.280052
-0.000981391
-0.0109656
-0.25278
-0.00523071
-0.00331626
-0.237226
-0.00450584
0.012846
-0.210408
-0.00252451
0.028933
-0.238827
-0.00861208
0.011632
-0.259976
-0.0149184
-0.267595
-0.00493049
-0.0178026
-0.210883
-0.0148157
-0.000429609
-0.224703
-0.0231943
0.0237896
-0.213497
-0.0219052
0.0351744
-0.212872
-0.0306452
0.00216472
-0.199574
-0.0242892
-0.250137
-0.0185627
-0.0222014
-0.0944088
-0.0842729
0.0090509
-0.121866
-0.12561
0.0627698
-0.147496
-0.112917
0.0664909
-0.116091
-0.0940621
-0.0141111
-0.0647982
-0.0474746
-0.090971
-0.169777
-0.00843982
0.0383038
-0.114297
0.00387549
0.0268756
-0.152594
0.0781507
0.00979704
-0.226047
0.0642752
0.0206177
-0.11752
-0.00295468
0.0501404
-0.0430007
0.016599
-0.0783134
-0.00499704
0.0373166
-0.00513706
0.0184877
0.0304601
-0.0564874
0.0222072
0.015903
0.00605849
0.0676715
0.0164341
-0.0048528
-0.133355
0.225077
-0.000291203
-0.13709
0.154065
0.00674223
-0.12976
0.134744
0.0378579
-0.130218
0.163313
0.051206
-0.0954117
0.149958
-0.089805
0.146559
-0.00184523
-0.0373245
0.00224326
0.000602426
-0.0323906
0.00831288
0.00796124
-0.033829
0.0130474
0.00182567
-0.032182
0.0170623
0.00512113
-0.0280242
0.00772979
-0.0427744
0.021647
-0.000217297
-0.00753818
0.000269328
-0.000683448
-0.00818382
0.000299686
0.000125451
-0.0103865
0.00044609
0.000391594
-0.00880608
0.000348278
-0.00200162
-0.00352878
9.50972e-05
-0.00960582
0.00131467
0.000219154
-0.00113202
-1.11798e-07
-0.000909458
4.13701e-05
-2.35128e-07
-7.19333e-06
-0.00392642
-1.17929e-07
-0.000179297
7.00376e-05
-1.14946e-06
-0.0010584
2.5778e-05
-1.91378e-06
-0.00242889
-1.04646e-07
-7.26268e-07
8.9436e-06
-3.69286e-09
-0.000633141
2.04714e-06
-5.80367e-10
-4.5563e-07
5.72621e-05
-6.96852e-11
-5.6975e-06
-4.1456e-06
-8.67441e-12
1.29512e-06
-0.000307726
-2.19466e-10
2.56909e-05
-6.90361e-09
-1.29916e-08
1.71056e-10
-1.15965e-08
-2.43776e-08
-3.46378e-07
-3.40168e-09
-6.2108e-06
2.4919e-08
-6.21145e-09
-0.000133763
-4.97461e-05
-6.75753e-10
4.87322e-05
-0.0018034
-9.03508e-09
-1.24267e-05
-4.05689e-09
4.59921e-06
-0.000526858
-2.54592e-06
9.66626e-07
-0.000157079
-1.40366e-06
-4.31833e-06
-2.61019e-05
-6.08441e-08
-0.000741447
-0.000572461
-4.93192e-08
-3.41659e-06
-0.00279096
-5.93197e-07
-0.000985257
-1.21539e-05
0.000128166
-0.00616007
4.13945e-06
-1.33584e-05
-0.00452002
-1.09422e-06
-0.000181938
-0.00237833
-2.06631e-06
-0.00123314
-0.00813656
-9.41453e-08
0.000916363
-0.0117395
-4.81734e-06
-0.00513034
4.51515e-07
-0.000425194
-0.0306284
-6.60832e-05
-0.000301338
-0.0284899
-1.1824e-05
-0.0025618
-0.0220084
-1.61639e-05
-0.00516172
-0.0361674
-0.000252893
0.00950084
-0.0537794
-0.000588769
-0.0144192
-0.000358326
-0.00252234
-0.0983846
-0.0122145
-0.00512427
-0.104291
-0.010759
-0.0195681
-0.0322717
-0.00711434
-0.010896
-0.09254
-0.014387
0.00406919
-0.0837763
-0.0278549
-0.105066
-0.0304483
0.0029393
-0.0295763
-0.158323
0.00131375
-0.0358551
-0.150069
0.00346413
-0.121689
-0.127431
-0.00218838
-0.0469836
-0.125567
-0.0347634
-0.012617
-0.0735654
-0.0540537
-0.216849
0.0117448
-0.0497216
0.0187266
-0.0822795
0.0716127
-0.192291
-0.000928128
-0.0529197
-0.0179995
0.0388345
-0.109099
-0.0227403
-0.00450489
0.0820321
-0.0011004
-0.00721933
0.00456086
0.0208552
-0.0107632
0.0831672
0.0264939
-0.0162671
0.0832008
0.0190488
-0.00768689
0.0596795
0.00240911
0.0774149
-0.000339844
-0.000260693
0.000321496
-0.00020024
-0.000300895
0.00120876
0.000579124
-0.000445229
0.00187476
0.000509449
-0.000354932
0.00118996
0.00024934
-0.000115547
0.00048395
-0.00127568
0.00110758
8.57459e-06
-1.71683e-09
-1.45117e-09
7.40668e-06
-4.2896e-09
-5.34749e-08
8.10302e-06
-3.04145e-09
-7.08811e-08
1.5185e-06
-1.94299e-08
-1.37871e-07
-1.85749e-05
-1.07387e-08
-3.29256e-07
-4.7907e-09
2.03932e-05
3.02218e-10
-4.2512e-11
-1.13745e-07
8.43753e-10
-9.61419e-12
-2.3995e-07
1.28104e-09
-3.13678e-12
-1.21414e-07
9.7222e-09
-2.43219e-12
-1.17734e-06
8.32486e-09
-6.03212e-13
-1.92304e-06
-1.05563e-10
-1.00866e-07
-6.96125e-13
-3.663e-09
-5.76468e-11
-2.4313e-13
-5.79936e-10
-1.13209e-11
4.37101e-13
-6.13112e-11
-1.56226e-11
3.48834e-13
-5.81613e-12
-5.19531e-12
-2.59671e-12
-7.55237e-11
-2.80803e-12
-6.96787e-09
-1.60528e-11
-3.12556e-10
-2.12621e-08
-1.11309e-09
-1.87313e-11
-4.19071e-09
-7.06908e-11
-4.58181e-12
-5.87101e-09
-4.18009e-10
-6.7114e-11
-5.53793e-10
-6.8674e-11
-3.54378e-09
-5.51704e-09
-6.89141e-11
-1.34085e-08
-1.02375e-09
2.60358e-08
-2.97393e-06
3.4322e-08
5.69402e-09
-1.07152e-06
1.40784e-08
1.36505e-09
-6.82874e-08
2.83834e-10
-1.81632e-09
-4.75547e-08
-1.5508e-10
-5.97672e-07
3.34454e-10
-3.22182e-09
-1.27165e-05
-6.49478e-08
1.37299e-06
-7.25249e-07
1.96487e-07
-5.56651e-08
-8.42251e-07
5.51418e-08
1.25156e-07
-2.33851e-06
4.84938e-08
1.82628e-08
1.73958e-09
-3.68676e-08
-4.78541e-06
1.17887e-09
-3.53069e-08
-1.70908e-05
4.32281e-07
-4.91193e-07
-6.65834e-05
2.87024e-07
-5.70576e-06
-8.60751e-06
8.5503e-07
-1.31038e-06
-2.38275e-05
6.46068e-07
-1.70966e-07
-0.000254028
-2.96638e-08
5.04436e-06
-0.00059362
-3.45733e-09
-0.000370115
-2.73855e-08
-1.74483e-05
-0.0121283
-0.000125385
-6.71238e-05
-0.0106022
-0.000156006
-0.000330415
-0.00680124
-4.74135e-05
-0.000316999
-0.0140553
-0.000586554
0.000179371
-0.0270807
-0.00184527
-0.0305955
-4.18209e-05
0.00233976
-0.113555
-0.0264095
0.000690166
-0.115564
-0.0212958
-0.00554048
-0.0906855
-0.014337
-0.00194846
-0.0646379
-0.0517346
0.00503602
-0.0146358
-0.0876394
-0.0983603
-0.0418707
0.0233896
-0.134769
0.0261068
-0.148662
-0.0311137
-0.173748
-0.00552948
-0.209253
0.00332308
0.00534501
-0.155489
-0.00336394
0.00269518
0.0242281
-0.000315403
-0.00108297
0.0922357
0.00370032
-0.00168126
0.0907091
0.0021935
-0.00109699
0.0091478
0.00643268
-0.000428519
0.008339
0.00508677
0.131876
2.46201e-05
-1.80261e-07
0.00148496
1.60623e-05
-3.84236e-07
0.00013469
3.93683e-05
-6.12309e-07
0.000170701
2.0787e-05
-8.09758e-07
0.000112266
1.50421e-05
-2.04617e-06
6.33743e-05
-2.04902e-05
0.00438896
2.60476e-09
-1.13408e-07
-5.91613e-08
2.74657e-10
-2.82706e-07
-1.44236e-07
-9.44065e-09
-1.76434e-07
-4.9256e-07
-2.429e-08
-1.01222e-06
-1.88918e-08
-3.09517e-07
-2.01181e-06
-6.38272e-08
-2.87581e-07
-5.99954e-08
1.07184e-08
-1.2036e-09
-1.11405e-07
4.56758e-10
-1.15296e-10
-6.18381e-07
-4.03894e-09
-5.40003e-10
-3.99471e-07
-7.88458e-08
-1.68646e-10
-1.97521e-06
-5.28927e-08
-1.0842e-10
-1.55466e-06
-2.20087e-10
-4.41019e-07
-1.35268e-13
-1.24523e-09
-8.63447e-12
-1.2956e-13
-4.6157e-11
-9.19951e-11
-3.83907e-13
-5.49702e-10
-7.21782e-12
-2.51176e-13
-1.21983e-10
-4.99576e-12
-9.78872e-14
-1.84116e-11
-9.891e-13
-2.03214e-10
-3.96951e-12
-7.95042e-13
-4.17322e-09
-5.62131e-10
2.88237e-12
1.2178e-10
-2.51557e-10
3.79283e-11
-1.56596e-10
-3.29803e-10
-9.46966e-14
-1.11951e-10
-2.19366e-10
-1.86862e-11
-1.04291e-11
-4.16337e-11
-9.82251e-10
-2.09997e-10
3.13728e-10
-3.47115e-08
-1.03742e-09
1.58239e-10
-2.38518e-08
-1.50376e-11
1.76457e-10
-1.93383e-09
-5.7965e-11
5.98438e-11
-3.32277e-10
-7.40277e-11
-4.33674e-09
-1.03936e-09
-4.65886e-11
-1.26584e-07
-2.52594e-10
2.66287e-08
1.36334e-07
2.613e-10
1.69174e-08
3.89261e-08
1.49013e-10
1.56284e-08
3.42179e-08
1.15604e-10
2.159e-09
2.64791e-09
-3.48556e-11
-9.47447e-08
3.68044e-09
-7.02845e-11
2.22303e-07
7.5597e-10
-1.09575e-09
4.24677e-07
-1.15353e-10
1.22906e-08
8.79205e-07
-6.08084e-11
2.26182e-07
4.53104e-07
1.47064e-08
3.10461e-09
1.96216e-07
-2.22127e-12
2.44231e-11
1.6008e-09
-5.33089e-15
1.95138e-07
-2.70398e-13
-1.15557e-06
-0.000123805
-1.97485e-12
-1.06328e-07
-0.000156171
-6.09497e-09
6.42512e-08
-4.64632e-05
-8.29838e-07
5.29943e-06
-0.000591496
-1.08591e-07
4.21428e-05
-0.0018627
-1.90563e-05
2.59059e-06
-1.73195e-06
-0.000101588
-0.0193711
-0.00100111
-0.000269727
-0.0173066
-0.000883215
-0.00084944
-0.0107276
-0.000609532
-0.00620664
-0.0248464
-0.00373394
0.00726827
-0.0693716
-0.0124622
-0.0333961
-0.00120218
-0.00455746
-0.0743093
-0.0183898
-0.0733961
-0.0384684
-0.0712955
-0.0423413
-0.0849601
0.0294268
-0.0609142
-0.0835688
-2.42188e-05
0.00151156
-5.20864e-07
-1.68688e-05
0.00150908
-5.15786e-07
2.78225e-06
0.00151186
-5.1864e-07
1.85497e-06
0.0015073
-5.20993e-07
7.6363e-06
0.0015096
-5.25725e-07
0.00151103
-5.14963e-07
-4.39553e-06
0.00151685
-5.10828e-07
-5.60453e-07
0.00150617
-5.14698e-07
2.71069e-06
0.0015095
-5.13869e-07
-5.23901e-07
0.00151143
-5.12031e-07
7.62029e-07
0.00150921
-5.13091e-07
0.0015127
-5.13072e-07
4.22641e-08
-2.34832e-05
-1.02506e-07
-2.33516e-05
-6.49923e-08
-2.33975e-05
-5.398e-08
-2.3398e-05
-1.25859e-07
-2.33678e-05
-2.34212e-05
-1.71535e-10
6.50043e-08
-2.64586e-07
-6.14278e-11
6.38687e-08
-2.63446e-07
1.27854e-11
6.4354e-08
-2.64441e-07
-1.8639e-11
6.47653e-08
-2.64936e-07
5.47448e-11
6.47847e-08
-2.65542e-07
6.42963e-08
-2.63964e-07
-5.98058e-10
2.31451e-07
-3.07649e-07
-1.72446e-10
2.21763e-07
-3.07183e-07
-1.84244e-10
2.25962e-07
-3.08151e-07
-1.50385e-10
2.2947e-07
-3.07693e-07
1.54239e-10
2.31923e-07
-3.07402e-07
2.23919e-07
-3.0813e-07
-9.54413e-08
2.38637e-09
-2.33586e-08
3.03143e-09
-2.89585e-08
2.74328e-09
-2.38178e-08
2.7793e-09
2.80556e-08
2.93423e-09
2.63721e-09
-1.14174e-10
-1.09384e-07
-1.12707e-07
7.2713e-11
-1.09081e-07
-1.37089e-07
1.43841e-10
-1.09378e-07
-1.27032e-07
4.9827e-11
-1.09839e-07
-1.16859e-07
-1.75085e-10
-1.10163e-07
-1.10649e-07
-1.09333e-07
-1.32559e-07
-2.41963e-10
-2.92237e-07
-8.33961e-08
-2.98661e-11
-2.92436e-07
-8.77123e-08
-7.34081e-11
-2.92513e-07
-8.65951e-08
-3.16086e-11
-2.9246e-07
-8.46427e-08
2.17615e-11
-2.92474e-07
-8.36807e-08
-2.92152e-07
-8.73579e-08
-1.40751e-10
-1.16102e-13
-1.83475e-11
-2.22122e-13
-2.42082e-11
-1.77911e-13
-5.9558e-12
-1.40277e-13
4.69826e-11
-1.18459e-13
-2.0011e-13
-1.17196e-09
-2.51342e-07
1.83257e-08
2.8098e-10
-2.49152e-07
-2.79924e-08
9.78248e-10
-2.51265e-07
-3.23477e-09
1.92589e-10
-2.52042e-07
1.2462e-08
-9.02158e-10
-2.51306e-07
2.22133e-08
-2.50921e-07
-1.65178e-08
-1.19551e-10
-6.33187e-13
4.06356e-11
4.64261e-11
-1.1632e-12
-7.24597e-11
6.47779e-11
-9.45307e-13
6.29227e-11
4.30006e-11
-7.59664e-13
8.83469e-11
-1.54725e-10
-6.48534e-13
-1.00733e-10
-1.05633e-12
1.59411e-12
-1.15393e-17
-7.49278e-13
4.76592e-18
-1.38533e-12
6.5384e-18
-1.12322e-12
3.69309e-18
-8.99938e-13
-1.08885e-17
-7.66978e-13
-1.25645e-12
-4.37483e-09
-1.86748e-07
3.20063e-07
6.74892e-10
-1.54886e-07
3.22135e-07
3.48848e-09
-1.65329e-07
3.3336e-07
8.36655e-10
-1.79589e-07
3.38272e-07
-4.04303e-09
-1.89346e-07
3.40383e-07
-1.58761e-07
3.16934e-07
-1.0422e-09
-2.95959e-10
1.7417e-07
2.20569e-10
-5.11529e-10
2.42846e-07
7.14505e-10
-4.27457e-10
2.23137e-07
1.92627e-10
-3.50564e-10
2.01609e-07
-9.76993e-10
-3.02911e-10
1.78444e-07
-4.70502e-10
2.33856e-07
-1.94258e-14
-2.96689e-10
5.11209e-15
-5.12939e-10
8.18881e-15
-4.28583e-10
3.46351e-15
-3.5146e-10
-1.86438e-14
-3.03655e-10
-4.71777e-10
-1.43834e-08
-1.6193e-06
5.12352e-06
1.36258e-09
-1.43726e-06
5.96016e-06
7.62036e-09
-1.5104e-06
5.62442e-06
2.99263e-09
-1.58425e-06
5.41373e-06
-8.94479e-09
-1.60051e-06
5.22814e-06
-1.46822e-06
5.68391e-06
-7.48798e-08
-2.62709e-08
8.34297e-06
1.03592e-08
-2.35096e-08
1.07989e-05
4.73875e-08
-2.46966e-08
9.86463e-06
1.00563e-08
-2.58689e-08
8.89546e-06
-5.47169e-08
-2.64023e-08
8.40683e-06
-2.37216e-08
1.03037e-05
-6.77449e-11
-2.64999e-08
8.10497e-12
-2.40984e-08
2.47243e-11
-2.5142e-08
3.98218e-12
-2.62001e-08
-5.39378e-11
-2.66481e-08
-2.42474e-08
1.59473e-07
-2.75331e-06
6.29399e-06
-3.01367e-08
-1.982e-06
7.36008e-06
-1.37261e-07
-2.3082e-06
7.05292e-06
-1.80862e-08
-2.54915e-06
6.53314e-06
1.70767e-07
-2.58267e-06
6.23668e-06
-2.30947e-06
7.30992e-06
-6.42128e-07
1.32544e-05
-1.36655e-05
2.01967e-08
1.63035e-05
-5.4665e-06
1.69343e-07
1.52721e-05
-8.40408e-06
5.58173e-08
1.39946e-05
-1.33039e-05
-9.65009e-08
1.33981e-05
-1.42245e-05
1.57127e-05
-5.55177e-06
-8.5726e-08
1.20068e-05
6.30547e-09
1.42231e-05
3.48292e-08
1.35741e-05
4.54781e-09
1.25663e-05
-4.88239e-08
1.21142e-05
1.3837e-05
1.42427e-06
0.000275655
-0.000447009
-1.79969e-08
0.000315837
-0.000531737
-6.67149e-07
0.000299764
-0.000495238
-1.11572e-07
0.00029012
-0.000482526
4.92399e-07
0.000280384
-0.00046314
0.000303992
-0.00049803
1.47621e-05
0.000718117
-0.00170806
-3.10105e-06
0.000818196
-0.00181332
-1.2713e-05
0.000781803
-0.00176442
-2.55638e-06
0.000744774
-0.00174086
1.54612e-05
0.000718974
-0.00173616
0.000802077
-0.00176945
1.9359e-06
-8.0225e-05
-1.10742e-06
-0.000113064
-2.86229e-06
-0.000101766
-7.43839e-07
-8.49825e-05
4.54711e-06
-8.03377e-05
-0.000107946
-2.11272e-05
0.00401429
-0.00820264
4.13922e-06
0.00398522
-0.008083
2.7986e-05
0.00400742
-0.00813904
2.58255e-06
0.00399174
-0.00817093
-5.24294e-05
0.00399932
-0.00820171
0.00401199
-0.00812315
5.25246e-05
3.506e-05
-0.000555044
-7.48127e-06
2.80629e-05
-0.000617884
-1.83411e-05
2.79203e-05
-0.000603666
-7.40474e-06
1.63419e-05
-0.000586137
1.69989e-05
2.99982e-05
-0.000560964
3.30183e-05
-0.000601101
3.20541e-05
-0.000348637
-6.45894e-06
-0.000367884
-2.15859e-05
-0.000356602
-5.07316e-06
-0.000355812
2.83961e-05
-0.000362687
-0.000356715
-8.49005e-06
-0.000133339
-0.000164456
-1.03393e-06
-5.39671e-05
-0.000194433
1.47656e-05
-8.69082e-05
-0.00017694
-2.84637e-07
-0.000105722
-0.000177615
-4.02095e-05
-0.000117489
-0.000179293
-8.68061e-05
-0.000175486
-4.54775e-08
-0.000337957
-8.95567e-10
3.64398e-08
-0.000426939
-8.94133e-10
9.258e-07
-0.000400802
-8.94365e-10
1.13477e-08
-0.00036314
-8.97099e-10
-1.62016e-06
-0.000348482
-8.75658e-10
-0.000405398
-8.71576e-10
2.74248e-06
-5.3064e-09
-1.9978e-06
-5.22595e-09
7.08281e-06
-5.2387e-09
-1.55923e-06
-5.35238e-09
-8.9841e-06
-5.47946e-09
-5.09843e-09
1.47164e-05
-1.10529e-10
-0.0204927
-1.38519e-06
-9.67735e-11
-0.0205985
-6.6241e-06
-9.93017e-11
-0.0205795
-2.18908e-06
-1.1519e-10
-0.0205875
1.78296e-05
-1.56543e-10
-0.0204996
-9.39334e-11
-0.0204967
-3.47679e-13
-2.36996e-10
-6.7677e-10
1.6525e-13
-2.33107e-10
-6.66329e-10
4.92929e-13
-2.33576e-10
-6.68436e-10
1.15839e-13
-2.39275e-10
-6.80513e-10
-7.0786e-13
-2.45865e-10
-6.96099e-10
-2.26601e-10
-6.50202e-10
-2.9028e-13
-5.54311e-09
1.36413e-13
-5.45948e-09
6.94758e-13
-5.47284e-09
1.49888e-13
-5.59111e-09
-1.18632e-12
-5.72398e-09
-5.32622e-09
0.000197722
-4.64961e-08
-0.0449894
-1.56429e-05
-4.57856e-08
-0.0451882
-0.000129097
-4.5981e-08
-0.0451463
-9.65399e-06
-4.6731e-08
-0.045168
0.000346649
-4.78706e-08
-0.0451695
-4.46604e-08
-0.0451367
-2.11891e-12
-4.71708e-08
7.67187e-16
2.50153e-13
-4.64543e-08
6.29371e-16
1.39622e-12
-4.66505e-08
1.4724e-15
3.06255e-13
-4.74105e-08
1.25152e-15
-1.42446e-12
-4.8565e-08
7.17643e-15
-4.53121e-08
2.67795e-16
-3.31565e-11
2.85791e-26
4.2606e-12
3.50464e-26
2.54037e-11
3.77806e-26
-2.08848e-13
4.35012e-26
-4.63998e-11
4.99165e-26
3.85397e-26
-0.00056499
8.29952e-16
-0.0408324
0.0722403
-0.000643681
6.34193e-16
-0.0408131
0.0716079
-0.000859841
2.24996e-18
-0.0406978
0.0709848
-0.000696387
1.71376e-19
-0.041684
0.0681828
0.000333698
2.56314e-17
-0.0419033
0.0651597
7.92949e-17
-0.0411022
0.0703594
4.93767e-18
8.1546e-26
5.94393e-17
-3.63232e-17
4.01522e-20
-1.76035e-25
5.12374e-17
-3.19991e-17
4.39162e-21
-1.35113e-22
5.06557e-19
-1.32526e-19
2.09338e-19
-5.05795e-20
1.36545e-19
-2.59605e-20
5.6331e-19
-3.39374e-17
3.39951e-17
-4.92193e-18
1.49303e-26
2.00681e-17
-1.09069e-17
-2.36343e-27
4.7832e-26
-1.30343e-26
-6.44561e-24
2.78429e-26
6.23895e-24
-4.9762e-21
7.9103e-26
4.83426e-21
-2.0923e-18
3.57833e-26
2.03673e-18
1.07145e-28
3.51463e-26
8.49548e-18
3.11848e-26
-3.36138e-27
-5.6473e-05
8.52186e-16
-0.0198389
-8.94513e-05
6.37676e-16
-0.0197795
-8.10072e-06
5.11343e-18
-0.0197426
2.97711e-05
6.99671e-19
-0.0202681
-0.000117275
1.5441e-16
-0.0202617
1.02587e-16
-0.0199946
-2.58188e-17
6.60821e-26
-3.02188e-16
-3.34029e-17
3.881e-26
-2.23296e-16
-3.51336e-19
1.13555e-25
-1.7093e-18
-2.44658e-20
5.06973e-26
-2.52652e-19
-3.79901e-18
5.15932e-26
-5.51734e-17
4.66645e-26
-3.37783e-17
4.10513e-28
2.96216e-26
2.9074e-27
2.76918e-26
2.37201e-27
2.91985e-26
1.73603e-27
2.37416e-26
1.56639e-28
4.25302e-26
1.5287e-26
-7.69927e-05
1.20487e-15
0.000960033
-6.15583e-05
9.81321e-16
0.000988783
9.24685e-06
1.75384e-15
0.00100182
-1.03559e-05
5.32719e-18
0.000996073
3.17216e-05
1.10845e-14
0.000997468
4.51963e-16
0.00103222
-1.0491e-17
6.97121e-26
-2.28594e-15
-1.54084e-17
6.55488e-26
-1.85522e-15
-1.8992e-17
7.06928e-26
-3.30525e-15
-1.30582e-19
6.17539e-26
-9.86994e-18
-2.53929e-16
1.16011e-25
-2.0495e-14
4.08255e-26
-8.42645e-16
5.77017e-28
-3.21298e-27
1.22749e-27
-3.13159e-27
1.42776e-27
-3.70256e-27
2.3172e-27
-3.91627e-27
3.68219e-28
-8.14224e-27
-2.86767e-27
-5.27001e-06
5.18283e-16
0.0212055
-7.74748e-05
4.18941e-16
0.0212865
-0.00017491
7.71763e-16
0.0213216
-4.48299e-06
5.53541e-17
0.0210752
0.000167463
4.8568e-15
0.0209772
1.87834e-16
0.0213244
-2.85619e-18
9.36729e-26
-2.03732e-15
-5.12271e-18
1.09225e-25
-1.66073e-15
-9.04331e-18
1.19354e-25
-3.07089e-15
-7.69656e-19
1.14322e-25
-2.15014e-16
-1.22078e-16
1.26289e-25
-1.88402e-14
8.55415e-26
-7.50605e-16
4.18538e-28
-4.80972e-26
6.88995e-28
-5.63275e-26
6.85728e-28
-6.19444e-26
8.19723e-28
-5.89274e-26
3.57244e-28
-6.50293e-26
-4.51661e-26
-9.78547e-05
4.25965e-16
0.0313814
-0.000106797
3.50477e-16
0.0315188
-9.57121e-05
7.10123e-16
0.0315706
-2.61419e-06
2.76028e-16
0.0314594
8.97024e-05
4.01686e-15
0.0314792
1.53803e-16
0.0315397
-1.16967e-18
7.22606e-26
-1.375e-15
-1.35564e-18
8.68886e-26
-1.12334e-15
-1.06467e-18
9.44706e-26
-2.27623e-15
-6.80504e-19
9.84044e-26
-8.82554e-16
-3.87619e-17
1.09135e-25
-1.28325e-14
8.02923e-26
-4.94478e-16
5.4696e-29
-5.30807e-26
1.17403e-28
-6.37573e-26
1.16242e-28
-6.94589e-26
2.03738e-28
-7.20342e-26
1.82613e-28
-7.96716e-26
-5.94433e-26
-2.21015e-05
4.37886e-16
-6.80708e-05
3.60957e-16
-7.32681e-05
8.43058e-16
2.64642e-06
7.1738e-16
0.000115906
4.11195e-15
1.53278e-16
-3.69893e-19
7.19606e-26
-2.04812e-19
8.86889e-26
-1.81267e-20
9.53387e-26
-1.11146e-19
1.09906e-25
-7.61329e-18
1.26069e-25
9.70538e-26
-2.23767e-29
1.48982e-29
2.85613e-30
6.77496e-29
9.35094e-29
-0.00364149
0.119825
0.00297637
-0.00422496
0.133013
0.000817335
-0.00164412
0.131267
-0.000187017
1.14039e-06
0.0368757
-0.000104298
0.00392418
0.0247099
-0.000161072
0.156376
0.00306057
-0.00588895
0.149922
-0.00183153
-0.00988926
0.159401
-9.93933e-06
-0.00973465
0.153476
-4.70112e-05
-0.000723826
0.0681126
-1.99407e-05
0.00547042
0.0465868
-0.00032643
0.185626
-0.0022163
-0.00732734
-0.000608699
-0.0223233
-0.000122684
-0.0190528
-2.40153e-05
-0.00147271
-4.06996e-06
0.00684279
-5.31689e-05
-0.000455454
0.000260616
0.00228297
-7.91141e-06
4.50526e-05
0.000301031
-1.0443e-05
2.26727e-06
2.61994e-05
-5.86299e-06
-2.92052e-06
1.47076e-05
-1.62667e-06
-0.000547318
0.000171766
-7.14044e-06
0.00343728
-1.91865e-05
6.1796e-05
0.000626793
-6.72929e-05
9.41989e-06
9.68734e-05
-3.30078e-05
-3.08664e-08
9.72188e-06
-2.11287e-05
-9.48585e-06
5.04062e-06
-2.49406e-07
-0.000201576
4.44683e-05
-5.9858e-06
0.000400333
-4.83835e-05
5.0533e-07
-3.05135e-05
-2.56844e-07
-3.38506e-05
-4.15132e-07
-1.78769e-05
-2.25516e-06