/*--------------------------------*- C++ -*----------------------------------*\
| =========                 |                                                 |
| \\      /  F ield         | OpenFOAM: The Open Source CFD Toolbox           |
|  \\    /   O peration     | Version:  v1612+                                |
|   \\  /    A nd           | Web:      www.OpenFOAM.com                      |
|    \\/     M anipulation  |                                                 |
\*---------------------------------------------------------------------------*/
FoamFile
{
    version     2.0;
    format      ascii;
    class       volScalarField;
    location    "6";
    object      alpha.water;
}
// * * * * * * * * * * * * * * * * * * * * * * * * * * * * * * * * * * * * * //

dimensions      [0 0 0 0 0 0 0];

internalField   nonuniform List<scalar> 
1116
(
0.435642
0.435642
0.435643
0.435643
0.435643
0.435644
0.814253
0.814264
0.814249
0.814248
0.814251
0.81425
0.974514
0.974514
0.974514
0.974514
0.974514
0.974514
0.974514
0.974514
0.974514
0.974514
0.974514
0.974514
0.974456
0.974456
0.974456
0.974456
0.974456
0.974456
0.970322
0.970327
0.970326
0.970325
0.970328
0.970321
0.958771
0.958795
0.95879
0.958781
0.958795
0.958773
0.947185
0.947236
0.947228
0.9472
0.947214
0.947209
0.941361
0.941434
0.941421
0.941374
0.941372
0.941415
0.940014
0.940087
0.940075
0.940027
0.940028
0.940065
0.938501
0.938543
0.93854
0.938509
0.938542
0.9385
0.934041
0.93396
0.933935
0.934065
0.934154
0.933911
0.546357
0.546579
0.546486
0.546457
0.546533
0.546427
0.939929
0.939929
0.939927
0.939929
0.939926
0.93992
0.939659
0.939748
0.939713
0.939702
0.939734
0.939671
0.76206
0.76215
0.762115
0.7621
0.762135
0.762075
0.58606
0.586091
0.586083
0.586066
0.586072
0.586074
0.433593
0.433644
0.433638
0.433589
0.433592
0.433639
0.335256
0.335376
0.335357
0.33525
0.335249
0.33536
0.270868
0.270878
0.270924
0.27083
0.27098
0.270786
0.27466
0.274968
0.274817
0.274696
0.274336
0.275097
0.340955
0.342069
0.341693
0.341069
0.339659
0.342942
0.402079
0.398845
0.399538
0.401884
0.404866
0.396863
0.291409
0.289953
0.290076
0.291356
0.292847
0.289264
0.5092
0.509193
0.509188
0.509194
0.509211
0.509191
0.305551
0.305623
0.305598
0.305597
0.305597
0.305567
0.0402609
0.0402567
0.0402553
0.0402549
0.0402573
0.0402554
0.00518274
0.00517696
0.00517898
0.00517834
0.00517491
0.00518142
1.00151e-07
9.8691e-08
9.94658e-08
1.00087e-07
1.00356e-07
9.92653e-08
1.54511e-07
1.52548e-07
1.53225e-07
1.54999e-07
1.56241e-07
1.51828e-07
8.65893e-07
8.64062e-07
8.645e-07
8.6825e-07
8.71131e-07
8.67724e-07
1.38205e-06
1.38045e-06
1.3808e-06
1.38394e-06
1.38874e-06
1.39125e-06
1.3479e-06
1.34298e-06
1.34488e-06
1.34864e-06
1.35379e-06
1.35542e-06
0.00386843
0.00405744
0.00399121
0.00389192
0.003716
0.00417295
0.0263509
0.0258614
0.0258069
0.0263938
0.0260171
0.0258168
0.0245756
0.024568
0.0245617
0.0245589
0.0245589
0.0245589
0.318387
0.317866
0.318056
0.318131
0.318019
0.318206
9.81949e-08
9.71944e-08
9.78038e-08
9.82115e-08
9.82892e-08
9.77395e-08
9.46579e-08
9.36068e-08
9.42339e-08
9.46627e-08
9.4714e-08
9.41886e-08
9.02586e-08
8.96097e-08
9.00858e-08
9.0343e-08
9.022e-08
9.01589e-08
9.46578e-08
9.36068e-08
9.42339e-08
9.46626e-08
9.4714e-08
9.41886e-08
1.00147e-07
9.86856e-08
9.94606e-08
1.00082e-07
1.00352e-07
9.92602e-08
1.53515e-07
1.51583e-07
1.52248e-07
1.54009e-07
1.55273e-07
1.50884e-07
8.88188e-07
8.69556e-07
8.83584e-07
8.84552e-07
8.86485e-07
8.95798e-07
1.32209e-06
1.31918e-06
1.31917e-06
1.32464e-06
1.33045e-06
1.33124e-06
0.0154324
0.0155665
0.0154549
0.0154866
0.0155095
0.0153426
0.0389514
0.0389415
0.0389609
0.0389774
0.0389884
0.0389553
0.0389666
0.0389784
0.03899
0.038995
0.038995
0.038995
0.0800532
0.0807396
0.0704362
0.0839393
0.084503
0.0705008
0.0806518
0.0819422
0.0834379
0.0844013
0.0851652
0.0847484
0.0642808
0.058122
0.0630951
0.0651389
0.0912247
0.066068
0.0177657
0.0422265
0.0108061
0.0551484
0.0924122
0.0481727
0.0628029
0.0860879
0.0559398
0.0776516
0.0912411
0.063584
0.0876211
0.0877442
0.0890553
0.0899585
0.0922504
0.0927202
0.0879878
0.0765482
0.0814044
0.0822911
0.0923262
0.0925973
0.0880534
0.077125
0.0716193
0.0805975
0.0918647
0.0924001
0.088678
0.0886545
0.0880022
0.0911776
0.0916602
0.0921649
0.0892889
0.0894697
0.0900334
0.0908137
0.0911994
0.0912342
0.0894233
0.089697
0.0901778
0.0904654
0.0906977
0.0440531
0.0378774
0.0413752
0.0400381
0.0396648
0.0904115
0.037908
0.0797558
0.0764315
0.063973
0.0826158
0.0814148
0.0718338
0.025334
0.0125921
0.0188934
0.00816104
0.000269374
0.0375872
0.00125071
0.00208323
0.00219214
0.00288359
0.00424135
0.00268711
0.00148504
0.00130226
0.00156317
0.00132108
0.000513553
0.00157505
0.00031875
1.07772e-11
0.000753858
4.25336e-12
4.31119e-12
0.00065506
1.13689e-09
5.78144e-10
7.68343e-11
1.05864e-11
5.81447e-05
5.3557e-09
1.40486e-09
2.40153e-08
1.0125e-08
5.80283e-10
0.00102838
4.34259e-07
2.65384e-05
1.56449e-06
3.13161e-07
3.60156e-07
0.00161301
2.3533e-05
0.00539286
0.000144363
9.0006e-06
0.00345406
0.013535
0.00680255
0.0398938
0.0395723
0.0205373
0.0406619
0.0356701
0.027046
0.0745299
0.0792301
0.0678902
0.0708527
0.049094
0.0703001
0.030278
0.0305945
0.104573
0.0455342
0.0208928
0.0706836
0.0582604
0.0318249
0.0454707
0.0626191
0.0549416
0.047712
0.000470226
7.79298e-06
1.12822e-05
1.13374e-05
3.0248e-06
0.00502364
-2.61341e-09
-3.89922e-09
-2.08487e-08
3.41846e-09
1.69336e-08
-2.74386e-11
4.72219e-11
9.01626e-12
3.04252e-12
1.10784e-12
3.67447e-12
6.935e-11
1.07772e-11
4.8612e-12
4.25336e-12
4.13849e-12
1.54963e-12
4.32097e-12
2.95562e-09
1.07758e-11
4.85408e-12
4.25329e-12
4.3164e-12
6.94396e-11
3.14821e-07
3.43418e-09
7.65352e-11
1.0562e-11
8.94265e-11
5.35385e-09
1.19972e-07
3.82258e-08
9.52223e-09
5.7397e-10
3.16383e-09
4.6878e-08
4.10462e-09
1.32287e-08
1.1663e-07
6.30375e-10
-8.57579e-11
-3.21626e-08
1.54129e-06
2.4207e-06
1.06533e-06
2.78114e-06
5.80258e-06
4.02759e-07
0.0118598
0.00801782
0.00568444
0.0108012
0.0185538
0.051449
0.10483
0.10483
0.10475
0.099462
0.0169246
0.0932409
0.0127304
0.0126364
0.0230734
0.013172
0.00502521
0.0300272
0.000183679
9.32186e-09
1.64086e-08
2.77873e-08
4.79744e-08
0.000814873
4.07221e-09
5.45693e-09
7.29374e-09
1.80911e-08
2.78022e-08
3.13896e-08
6.05055e-08
1.61825e-07
9.26501e-08
6.66521e-07
1.12382e-06
3.13946e-12
2.8208e-12
6.22779e-12
2.11739e-12
1.1757e-12
3.73939e-13
1.1757e-12
1.04364e-09
8.47783e-12
4.42192e-10
1.17848e-10
1.40208e-11
3.54467e-12
1.32078e-08
2.51198e-11
2.00562e-10
2.27746e-10
1.60916e-10
7.43046e-11
-2.33475e-10
7.28849e-11
1.93047e-11
2.30073e-10
3.71071e-09
-1.07828e-09
3.74871e-12
-6.67863e-11
-3.53242e-10
-9.46347e-12
-6.15687e-13
-3.10018e-11
-6.34378e-12
8.33657e-11
1.29945e-07
-5.35177e-11
-1.70455e-08
1.8276e-09
0.00178429
0.00170106
0.00104962
0.00695794
0.0200361
4.10569e-07
0.0770501
0.0749606
0.0684039
0.0692017
0.0773048
0.078028
0.0355058
0.0351357
0.0352692
0.035326
0.0352348
0.0353778
1.03338e-07
1.02169e-07
1.02832e-07
1.03321e-07
1.03526e-07
1.02692e-07
1.2147e-05
1.22074e-05
1.21703e-05
1.21677e-05
1.21836e-05
1.21543e-05
9.50814e-08
9.39429e-08
9.45863e-08
9.50589e-08
9.51777e-08
9.45094e-08
9.86184e-08
9.75306e-08
9.81562e-08
9.86077e-08
9.87529e-08
9.80603e-08
1.38354e-05
1.39172e-05
1.3869e-05
1.38662e-05
1.38879e-05
1.38485e-05
9.07843e-08
8.9955e-08
9.04613e-08
9.0804e-08
9.08189e-08
9.04761e-08
1.11149e-07
1.11649e-07
1.1171e-07
1.11455e-07
1.11358e-07
1.11733e-07
1.71974e-07
1.71439e-07
1.71805e-07
1.717e-07
1.71495e-07
1.71634e-07
8.73372e-08
8.73098e-08
8.74449e-08
8.75091e-08
8.7212e-08
8.77142e-08
7.31389e-08
7.27422e-08
7.28738e-08
7.31107e-08
7.34158e-08
7.27595e-08
1.30753e-22
2.49944e-22
2.00299e-22
1.58106e-22
1.33544e-22
2.25433e-22
1.34964e-07
1.03411e-07
1.14475e-07
1.28061e-07
1.38931e-07
1.08599e-07
6.55895e-08
5.19336e-08
5.63346e-08
6.21807e-08
6.51882e-08
5.37645e-08
2.67461e-19
6.31083e-19
4.72896e-19
3.38914e-19
2.6709e-19
5.56059e-19
4.30491e-07
2.31789e-07
3.10414e-07
3.86394e-07
4.42974e-07
2.67057e-07
8.76666e-07
6.85093e-07
7.62062e-07
8.39287e-07
8.55443e-07
7.23213e-07
5.29532e-18
5.38228e-18
5.48211e-18
5.44079e-18
5.3094e-18
5.56768e-18
7.36789e-07
5.95607e-07
6.52763e-07
7.09798e-07
7.54741e-07
6.15546e-07
7.05625e-07
7.3446e-07
7.37387e-07
7.40954e-07
7.03619e-07
7.35819e-07
1.58569e-09
4.89871e-09
2.30621e-09
1.86828e-09
1.6141e-09
3.46208e-09
1.33758e-05
1.79845e-05
1.5971e-05
1.52058e-05
1.40827e-05
1.61697e-05
0.00023469
0.000263702
0.00025354
0.000242053
0.000231718
0.000261557
8.68548e-05
0.000105579
9.90404e-05
9.0763e-05
8.44202e-05
0.00010435
0.00114887
0.00119102
0.00117614
0.00116792
0.00115165
0.00117857
0.00078664
0.000825104
0.00080895
0.000789318
0.000784331
0.000817444
0.000316518
0.000338173
0.000331395
0.000317898
0.000311746
0.000338188
0.00202335
0.00197012
0.00199659
0.0020017
0.0020059
0.00199654
3.55623e-05
4.19804e-05
4.21603e-05
4.07737e-05
3.56597e-05
4.06024e-05
0.000461956
0.000454628
0.000455826
0.00046043
0.000461111
0.000456038
2.19512e-06
3.08774e-11
3.08998e-11
5.91632e-07
4.2699e-06
3.0105e-11
1.54386e-11
1.54387e-11
1.54386e-11
1.54612e-11
1.50525e-11
1.50525e-11
2.58949e-16
4.54273e-22
4.58434e-22
4.55154e-22
2.57283e-16
4.48747e-22
0.023638
0.0232147
0.0233562
0.0235383
0.0237942
0.0231081
2.1209e-23
2.14406e-23
2.13744e-23
2.14075e-23
1.05049e-22
2.10766e-23
1.13336e-08
1.11914e-08
1.12305e-08
1.13951e-08
1.16526e-08
1.09256e-08
0.098157
0.0980151
0.098325
0.100696
0.101005
0.100094
-8.91564e-16
-6.75995e-16
-2.43428e-18
-2.21263e-19
-3.45218e-17
-9.73814e-17
-8.70565e-26
1.39975e-28
1.18574e-25
3.07182e-24
4.20993e-17
-1.74316e-26
0.102841
0.10298
0.103009
0.102667
0.102618
0.102786
-2.15132e-15
-1.59718e-15
-1.26584e-17
-1.87479e-18
-4.29244e-16
-2.65634e-16
-1.14682e-25
-6.69078e-26
-1.9383e-25
-8.95566e-26
-9.15973e-26
-8.04488e-26
0.103184
0.103331
0.103375
0.102958
0.10292
0.103111
-5.62911e-15
-4.57399e-15
-8.18371e-15
-2.46825e-17
-5.13502e-14
-2.11181e-15
-1.44771e-25
-1.36037e-25
-1.46633e-25
-1.27614e-25
-2.38657e-25
-8.48894e-26
0.105181
0.105203
0.10521
0.105175
0.105177
0.105223
-2.66593e-15
-2.17267e-15
-4.01884e-15
-2.82568e-16
-2.47754e-14
-9.83148e-16
-1.69208e-25
-1.97555e-25
-2.16154e-25
-2.05092e-25
-2.25697e-25
-1.55366e-25
0.103187
0.103398
0.103459
0.103205
0.103151
0.103493
-1.18667e-15
-9.69967e-16
-1.96459e-15
-7.63061e-16
-1.11033e-14
-4.26548e-16
-9.57806e-26
-1.15009e-25
-1.25109e-25
-1.29863e-25
-1.43662e-25
-1.06648e-25
0.0911163
0.0912451
0.0913031
0.0911701
0.0911738
0.0912767
-5.02629e-16
-4.1247e-16
-9.6452e-16
-8.20824e-16
-4.70969e-15
-1.75335e-16
-5.80528e-26
-7.13735e-26
-7.67918e-26
-8.84767e-26
-1.01457e-25
-7.82278e-26
0.0215321
0.0277443
0.026653
0.00551005
0.00304756
0.0354149
0.0283329
0.0283329
0.0283126
0.0103624
0.00627045
0.0354582
0.0217068
0.0229725
0.0198258
0.0076188
0.00545866
0.0244061
0.000317557
3.91876e-05
5.04643e-07
4.93281e-08
2.17388e-05
0.000578649
6.91342e-05
1.59727e-05
7.84261e-07
4.27643e-07
7.86741e-07
2.6154e-05
1.94023e-06
9.50548e-07
8.03632e-07
7.84252e-07
8.03632e-07
1.24952e-06
6.56373e-09
9.40029e-09
9.14476e-07
3.50703e-08
4.7899e-08
1.11937e-07
1.11512e-05
1.4273e-05
2.33446e-05
2.01408e-05
1.9304e-05
2.9576e-05
2.45593e-05
2.87473e-05
2.28828e-05
5.09637e-06
5.06444e-06
5.47819e-05
6.8134e-08
3.79457e-07
2.87792e-07
1.14539e-06
2.33105e-06
2.41938e-06
8.32316e-18
1.07755e-07
2.38249e-07
6.36417e-18
1.01384e-06
4.71975e-06
5.15938e-07
9.64228e-07
1.22712e-06
1.70352e-07
1.60107e-07
4.61598e-06
6.75519e-18
7.30485e-11
4.25758e-18
5.68281e-18
7.51953e-18
-5.63975e-15
4.91789e-18
2.09827e-18
2.09827e-18
4.19654e-18
7.46718e-19
7.46714e-19
2.79642e-25
2.98107e-25
1.9115e-25
1.32843e-24
3.68396e-24
1.51462e-26
4.22287e-10
3.6548e-10
4.28576e-10
3.01909e-10
5.77661e-11
2.56277e-10
6.2996e-18
4.65098e-18
4.22505e-18
5.78034e-18
8.13262e-16
1.55428e-18
1.16948e-14
1.1114e-14
9.02126e-15
1.29949e-14
1.01624e-14
3.39169e-15
1.12554e-10
1.6538e-10
3.0051e-10
2.0827e-10
7.44256e-11
1.42622e-10
1.23884e-16
1.81531e-15
9.83767e-17
1.44993e-16
1.39265e-13
3.71644e-17
3.42656e-13
3.43696e-13
3.00477e-13
3.8817e-13
3.69062e-13
1.30929e-13
-4.87464e-13
-3.21102e-13
-1.15686e-13
5.5887e-15
7.11817e-12
-1.23961e-14
1.70883e-16
2.71108e-16
2.79598e-16
1.29762e-14
1.76093e-15
2.24185e-16
2.35448e-14
3.80754e-14
3.16474e-14
3.89366e-14
3.65487e-14
2.66071e-14
-5.67731e-13
-3.1807e-13
-7.85694e-11
-1.14714e-13
-4.40129e-15
-2.07399e-12
2.48662e-21
2.21398e-21
1.43585e-22
-7.32208e-18
1.40206e-17
1.46416e-18
3.62512e-242
1.3109e-248
3.42429e-245
7.13676e-239
5.21096e-263
5.24028e-270
1.55917e-12
1.00573e-12
-2.88968e-10
-3.41738e-12
-5.25607e-09
-1.97324e-09
1.43756e-10
3.44247e-11
-1.48696e-12
2.85621e-11
-1.95777e-12
1.40618e-12
7.02617e-10
6.75442e-10
6.5599e-10
6.6696e-10
6.44309e-10
6.76612e-10
-2.03626e-11
-1.48347e-11
-5.03757e-09
-2.3028e-12
-4.43717e-08
-1.96987e-08
1.59502e-11
1.1873e-11
7.5962e-12
1.5482e-11
4.82917e-12
8.87875e-12
1.33027e-10
2.09949e-10
3.4986e-10
1.09226e-10
7.97213e-10
6.50824e-10
0.00449683
0.00476107
0.00577101
0.00882384
0.0221129
0.00760708
3.82778e-24
2.89927e-24
2.37401e-24
6.00533e-24
4.19381e-24
2.39779e-24
7.14802e-10
5.4908e-10
4.9687e-10
2.07508e-09
3.76378e-09
7.14549e-10
)
;

boundaryField
{
    seabed_topleft_surface
    {
        type            zeroGradient;
    }
    seabed_topright_surface
    {
        type            zeroGradient;
    }
    breakwater_top_surface
    {
        type            zeroGradient;
    }
    breakwater_left_surface
    {
        type            zeroGradient;
    }
    breakwater_right_surface
    {
        type            zeroGradient;
    }
    water_front_surface
    {
        type            zeroGradient;
    }
    water_back_surface
    {
        type            zeroGradient;
    }
    water_left_surface
    {
        type            zeroGradient;
    }
    water_right_surface
    {
        type            zeroGradient;
    }
    water_top_surface
    {
        type            inletOutlet;
        inletValue      uniform 0;
        value           nonuniform List<scalar> 
180
(
1.2147e-05
1.22074e-05
1.21703e-05
1.21677e-05
1.21836e-05
1.21543e-05
1.38354e-05
1.39172e-05
1.3869e-05
1.38662e-05
1.38879e-05
1.38485e-05
0
0
0
0
0
0
0
0
0
0
0
0
0
0
0
0
0
0
0
0
0
0
0
0
1.58569e-09
4.89871e-09
2.30621e-09
1.86828e-09
1.6141e-09
3.46208e-09
8.68548e-05
0.000105579
9.90404e-05
9.0763e-05
8.44202e-05
0.00010435
0.000316518
0.000338173
0.000331395
0.000317898
0.000311746
0.000338188
0
0
0
0
0
0
0
0
0
0
0
0
0
0
0
0
0
0
0
0
0
0
0
0
0
0
0
0
0
0
0
0
0
0
0
0
0
0
0
0
0
0
0
0
0
0
0
0
0
0
0
0
0
0
0.0217068
0.0229725
0.0198258
0.0076188
0.00545866
0.0244061
1.94023e-06
9.50548e-07
8.03632e-07
7.84252e-07
8.03632e-07
1.24952e-06
0
2.87473e-05
0
0
0
5.47819e-05
0
0
0
0
0
0
0
0
0
0
0
0
0
0
0
0
0
0
0
0
0
0
0
0
0
0
0
0
0
0
0
0
0
0
0
0
0
0
0
0
0
0
0
0
0
0
0
0
0
0
0
0
0
0
)
;
    }
}


// ************************************************************************* //
