/*--------------------------------*- C++ -*----------------------------------*\
| =========                 |                                                 |
| \\      /  F ield         | OpenFOAM: The Open Source CFD Toolbox           |
|  \\    /   O peration     | Version:  v1612+                                |
|   \\  /    A nd           | Web:      www.OpenFOAM.com                      |
|    \\/     M anipulation  |                                                 |
\*---------------------------------------------------------------------------*/
FoamFile
{
    version     2.0;
    format      ascii;
    class       volScalarField;
    location    "6";
    object      p;
}
// * * * * * * * * * * * * * * * * * * * * * * * * * * * * * * * * * * * * * //

dimensions      [1 -1 -2 0 0 0 0];

internalField   nonuniform List<scalar> 
1116
(
24059.3
24059.5
24059.3
24059.3
24059.3
24059.2
21763.7
21763.8
21763.7
21763.7
21763.7
21763.6
17680.6
17680.6
17680.6
17680.6
17680.6
17680.5
14517.4
14517.5
14517.5
14517.5
14517.5
14517.4
12045.5
12045.5
12045.4
12045.5
12045.5
12045.4
10146.6
10146.6
10146.4
10146.6
10146.6
10146.6
8834.27
8834.28
8834.19
8834.26
8834.2
8834.41
7936.64
7936.67
7936.93
7936.54
7936.89
7936.54
7631.02
7631.76
7631.48
7631.11
7630.06
7631.68
8073.74
8077.34
8075.65
8073.66
8069.46
8078.08
9185.76
9184.65
9184.63
9185.97
9188.25
9182.6
8618.09
8614
8614.28
8618.65
8624.45
8611.14
17745.9
17746
17746
17745.9
17746
17745.8
11518.2
11518.5
11518.5
11518.5
11518.5
11518.3
5664.2
5664.57
5664.47
5664.34
5664.47
5664.18
4156.21
4157
4156.7
4156.54
4156.84
4156.3
2951.07
2951.51
2951.36
2951.18
2951.31
2951.17
2171.22
2171.19
2171.21
2171.22
2171.4
2171.09
1629.37
1629.28
1629.42
1629.24
1629.45
1629.41
1307.35
1307.34
1307.49
1307.23
1307.9
1306.86
1380.18
1381.42
1381.01
1379.97
1377.95
1382.83
1769.12
1775.02
1772.2
1770.18
1761.52
1780.15
2712.42
2712.74
2709.41
2716.27
2712.17
2711.32
2162.17
2166
2165.06
2163.6
2162.45
2167.27
6391.2
6390.02
6390.65
6390.73
6390.38
6390.8
1553.02
1552.1
1552.55
1552.68
1552.34
1552.67
138.418
138.531
138.454
138.398
138.441
138.381
10.2735
10.1655
10.1909
10.2486
10.2429
10.2199
-22.8205
-22.8486
-22.8431
-22.8101
-22.778
-22.8688
-38.1382
-38.3777
-38.2837
-38.187
-38.1233
-38.2749
-57.8225
-58.0344
-57.9129
-57.892
-57.8306
-57.9107
5.66615
5.71541
5.72944
5.68476
5.72098
5.5887
209.815
209.964
209.908
209.865
209.97
209.758
526.485
526.426
526.038
527.276
527.147
526.748
755.248
756.595
754.524
756.71
752.533
756.268
783.29
779.89
781.872
781.759
785.038
778.928
135.898
134.007
134.877
135.113
134.526
135.309
-21.4484
-21.4924
-21.4605
-21.4578
-21.4775
-21.4578
-7.92979
-7.88003
-7.90564
-7.91134
-7.90036
-7.91979
-16.8045
-16.7523
-16.7746
-16.8013
-16.7833
-16.787
-13.5054
-13.4584
-13.4784
-13.4825
-13.4866
-13.4792
-38.6543
-38.7881
-38.7295
-38.6752
-38.6321
-38.7188
-83.9567
-84.2822
-84.1158
-84.0783
-83.9972
-84.0983
-73.1447
-73.2327
-73.2321
-73.2004
-73.2114
-73.2562
42.6908
42.9777
42.8387
42.7183
42.5362
43.0117
118.585
118.203
118.389
118.492
118.724
118.39
255.12
252.604
253.705
254.637
256.39
252.595
67.1641
63.9605
65.6857
65.8466
68.7891
63.5578
3356.24
3432.56
3278.99
3422.68
3574.3
3324.54
2292.17
2294.1
2274.77
2252.29
2283.15
2267.7
1103.95
1145.56
1097.27
1195.37
1251.91
1261.39
480.997
550.997
489.938
576.615
610.979
660.071
384.092
452.385
442.163
438.413
492.276
496.122
446.142
436.156
446.336
443.729
465.476
467.172
438.863
385.901
410.07
405.663
463.971
455.973
413.925
374.892
354.475
403.953
486.015
443.573
757.18
700.459
601.015
757.504
856.93
773.556
1680.29
1693.23
1569.67
1568.92
1585.47
1712.36
1689.74
1695.31
1756.56
1595.39
1579.81
1604.49
1522.8
1518.82
1556.26
1536.24
1557.12
1579.64
1674.79
1546.02
1584.82
1538.11
1496.36
1595.04
222.544
236.596
256.834
301.001
330.522
285.637
61.5453
59.6874
60.7985
54.9958
30.4707
55.3707
-15.5075
-26.4668
-9.38502
-28.5057
-26.4988
-9.365
-40.4846
-41.2645
-38.7894
-35.7806
-33.7629
-37.0337
-25.7897
-24.1084
-30.1856
-25.184
-26.1609
-30.8696
-4.52844
-5.35225
-6.42918
-9.34089
-9.33615
-8.17812
1.69212
-1.96622
-1.68003
-2.40586
0.0917296
0.72598
19.9208
23.4639
20.237
24.176
43.5387
25.5186
173.125
168.561
124.29
180.044
203.812
162.559
337.274
405.224
394.74
500.185
311.264
555.824
752.515
741.748
710.214
753.433
560.737
803.494
195.618
255.923
286.126
300.064
283.387
430.296
6.5612
16.6514
20.6897
17.1611
6.53144
-0.65145
5.93558
6.12257
5.61518
4.39744
3.52022
2.45566
1.04255
-0.314094
2.57188
-0.740091
-1.97675
-2.56805
-7.0136
-8.80293
-7.81651
-7.75622
-8.2697
-7.80851
-15.46
-15.3686
-16.2937
-15.2523
-14.9077
-13.9975
-13.4241
-13.5539
-13.9083
-14.4978
-16.5506
-13.7431
-18.5595
-17.6153
-17.3888
-18.7429
-21.145
-18.7817
-28.7329
-27.2141
-26.4669
-27.6228
-27.698
-28.9924
-29.4729
-26.3683
-22.8518
-18.5701
-15.0485
-17.5697
70.5487
77.4948
73.045
96.459
26.5437
152.871
412.982
373.908
299.068
275.22
261.503
267.568
28.3875
38.3533
42.3613
42.7386
42.2563
74.5243
-16.8019
-19.8988
-20.7817
-23.4342
-27.7177
-26.248
-13.4255
-15.3314
-16.51
-17.866
-19.806
-19.3459
-29.1407
-30.4271
-29.5323
-30.7181
-30.8433
-30.3394
-31.1481
-31.2092
-31.2584
-30.9946
-30.8286
-31.1208
-33.286
-33.2106
-33.717
-33.1247
-33.2522
-33.4443
-28.8997
-28.6872
-29.4881
-29.8905
-29.7317
-28.8531
-30.3743
-29.9527
-30.4162
-31.5165
-31.8416
-31.2381
-34.3054
-33.3572
-34.0667
-36.0407
-37.3708
-38.8416
-40.3932
-40.0711
-40.3446
-39.4863
-38.773
-40.1048
-19.4458
-20.4186
-22.5998
-25.4188
-25.6366
-33.8785
-209.049
-212.529
-221.027
-250.932
-59.7248
-194.424
103.774
102.729
103.096
103.206
103.012
103.383
-33.8041
-33.8013
-33.7977
-33.809
-33.8073
-33.8088
-63.1298
-63.1768
-63.1596
-63.1568
-63.1666
-63.1514
-40.1256
-40.1135
-40.1203
-40.1284
-40.1149
-40.1295
-65.7074
-65.6986
-65.6996
-65.6997
-65.6991
-65.7004
-75.4748
-75.4731
-75.4727
-75.4713
-75.4714
-75.4703
-26.677
-26.7084
-26.7082
-26.7021
-26.7118
-26.694
-47.8214
-47.8201
-47.8248
-47.8216
-47.826
-47.8184
-64.0371
-64.0293
-64.0329
-64.0309
-64.03
-64.032
-36.7086
-36.6609
-36.6857
-36.6982
-36.7062
-36.6861
-49.6833
-49.6594
-49.6738
-49.6757
-49.688
-49.6672
-65.7066
-65.6974
-65.702
-65.7031
-65.7065
-65.6996
-31.9176
-31.8151
-31.8688
-31.8752
-31.914
-31.8464
-41.5355
-41.4005
-41.464
-41.4955
-41.5394
-41.443
-61.1425
-61.1205
-61.1325
-61.1338
-61.1445
-61.1257
-39.4708
-39.4178
-39.4471
-39.4155
-39.4267
-39.4239
-31.3775
-31.065
-31.2156
-31.2565
-31.3379
-31.1881
-59.5235
-59.379
-59.4384
-59.4757
-59.5042
-59.4171
-54.5864
-55.092
-54.8804
-54.7052
-54.6039
-54.8827
-22.9062
-22.4604
-22.6577
-22.7314
-22.7598
-22.703
-51.9022
-51.7161
-51.812
-51.7829
-51.7936
-51.8187
-53.903
-54.2438
-54.1369
-54.0223
-54.0262
-54.146
-34.0766
-34.3139
-34.2115
-34.1188
-34.0018
-34.3233
-52.4596
-52.6669
-52.5747
-52.5134
-52.3539
-52.6578
-49.1249
-48.941
-48.9971
-49.1217
-49.5248
-48.6696
-80.4297
-81.1028
-80.784
-80.6963
-80.6807
-80.8833
-84.9222
-85.279
-85.0894
-85.097
-84.9976
-85.1577
-63.7849
-63.5946
-63.5422
-63.7485
-64.2025
-62.7061
-92.7575
-92.3012
-92.4902
-92.6868
-92.8448
-92.5011
-93.7191
-93.7449
-93.7089
-93.8087
-93.8861
-93.6753
-24.5303
-24.8052
-24.6578
-24.5754
-24.3664
-24.7085
-65.6875
-65.5855
-65.6348
-65.641
-65.669
-65.6408
-83.1706
-83.1073
-83.118
-83.1803
-83.2461
-83.0754
51.083
49.4213
50.0617
50.6633
51.7419
49.0312
-59.308
-59.2787
-59.2839
-59.3001
-59.3148
-59.275
-77.5669
-77.5489
-77.5535
-77.5634
-77.5687
-77.5424
409.09
408.824
410.411
419.412
427.436
416.948
-49.1915
-49.1321
-49.1395
-49.1794
-49.1252
-49.1717
-72.167
-72.113
-71.9908
-71.7192
-71.5804
-71.6909
456.464
457.167
457.265
455.645
456.133
456.181
-50.9846
-51.041
-51.1284
-51.2963
-51.3925
-51.3569
-69.0397
-69.0252
-68.9883
-68.9072
-68.8493
-68.8789
461.983
462.609
462.923
461.118
461.055
461.912
-51.609
-51.6091
-51.6063
-51.5693
-51.5864
-51.5842
-67.6982
-67.6883
-67.6587
-67.6116
-67.5804
-67.5796
470.699
470.852
470.876
470.797
470.845
471.005
-53.0471
-53.0559
-53.0697
-53.0827
-53.0956
-53.1065
-67.4265
-67.42
-67.4098
-67.3995
-67.388
-67.3838
450.683
451.484
451.718
450.784
450.637
451.838
-54.0692
-54.0748
-54.0822
-54.0881
-54.0938
-54.1043
-68.936
-68.9395
-68.9367
-68.9296
-68.9236
-68.9227
357.809
358.105
358.438
358.003
358.168
358.212
-55.1138
-55.1128
-55.1146
-55.118
-55.1215
-55.1234
-73.3263
-73.3408
-73.3364
-73.3325
-73.3277
-73.3296
51.4731
38.2414
25.8626
16.0229
5.08484
35.6834
-101.447
-100.995
-96.1828
-81.6145
-82.0411
-88.8524
-188.957
-182.594
-177.215
-162.783
-157.039
-166.313
-37.506
-44.1799
-47.4405
-47.0721
-50.8002
-37.2665
-68.9894
-70.5266
-72.1306
-72.4199
-71.4634
-59.9356
-94.0198
-92.286
-91.6614
-90.8647
-92.5883
-91.653
-29.3106
-31.2034
-33.9727
-36.0531
-36.2043
-33.7226
-54.2213
-55.3524
-55.9001
-56.6317
-56.1416
-52.9516
-70.0723
-70.6591
-69.5404
-67.8879
-68.478
-68.2876
-39.6122
-40.5889
-40.943
-41.8655
-42.191
-40.5377
-59.884
-60.1238
-59.9905
-60.0865
-60.4097
-59.4894
-74.3089
-74.4032
-73.9762
-73.969
-73.9664
-73.6881
-36.4428
-36.6326
-36.7962
-36.965
-37.0135
-36.9001
-52.1933
-52.2585
-52.3068
-52.2892
-52.2731
-52.1564
-65.4002
-65.4254
-65.4036
-65.3323
-65.3839
-65.3856
-39.6754
-39.6493
-39.7765
-39.8252
-39.7986
-39.6063
-53.2948
-53.2955
-53.3843
-53.3704
-53.4173
-53.3348
-64.8108
-64.8135
-64.8184
-64.8259
-64.8234
-64.7994
-37.6067
-37.4967
-37.5762
-37.8283
-37.8528
-37.2644
-51.4611
-51.4655
-51.5495
-51.611
-51.6524
-51.5209
-63.3377
-63.3342
-63.3348
-63.3446
-63.3397
-63.3165
-38.5606
-38.5104
-38.2639
-38.7593
-38.9718
-38.7004
-52.3134
-52.3315
-52.4222
-52.602
-52.7364
-52.6614
-63.282
-63.2947
-63.2748
-63.3199
-63.3275
-63.3105
-42.46
-42.4849
-42.0945
-42.6498
-42.6589
-42.5386
-53.3059
-53.3649
-53.5057
-53.7033
-53.9146
-54.0661
-63.3701
-63.3745
-63.3413
-63.3522
-63.3445
-63.3157
-42.1295
-42.0106
-41.4407
-41.512
-41.1972
-41.0133
-53.8755
-54.0143
-54.2766
-54.4093
-54.6327
-54.726
-63.7764
-63.7824
-63.6931
-63.7159
-63.7059
-63.66
-46.0019
-46.5715
-46.8832
-48.5
-48.1682
-48.1465
-54.3689
-54.5477
-54.6839
-55.2767
-55.5525
-55.2778
-66.1267
-66.1506
-66.1072
-66.0004
-66.0055
-66.0017
-34.0813
-33.8295
-29.6582
-14.9325
33.5877
-18.3408
-45.505
-45.7141
-45.8332
-45.8844
-47.5381
-46.2266
-71.0864
-71.2448
-71.2053
-71.3006
-71.9489
-71.2896
)
;

boundaryField
{
    seabed_topleft_surface
    {
        type            calculated;
        value           nonuniform List<scalar> 
72
(
26206.3
26206.4
26206.3
26206.2
26206.2
26206.1
25772.2
25772.4
25772.2
25772.2
25772.2
25772.1
22477.1
22477.2
22477.2
22477.1
22477.1
22477.1
19314
19314
19314
19314
19314.1
19313.9
16841.7
16841.7
16841.7
16841.7
16841.8
16841.7
14922.5
14922.5
14922.4
14922.5
14922.5
14922.5
13553.4
13553.5
13553.4
13553.4
13553.4
13553.6
12598.8
12599.1
12599.3
12598.8
12599.2
12598.8
12264.6
12265.7
12265.3
12264.7
12263.6
12265.5
12700.7
12704.6
12702.9
12700.6
12696.4
12705.2
13805.2
13804.3
13804.3
13805.5
13807.9
13802.1
13215.6
13211.1
13211.3
13216.3
13222.5
13208
)
;
    }
    seabed_topright_surface
    {
        type            calculated;
        value           nonuniform List<scalar> 
72
(
3754.77
3834.48
3630.24
3840.33
3994.72
3676.11
2693.66
2701.93
2689.95
2672.21
2706.82
2689.33
1424.94
1436.26
1412.43
1520.58
1705.37
1591.17
573.272
763.544
547.993
852.698
1070.29
901.855
697.812
880.595
722.137
825.143
945.824
813.682
881.891
872.511
889.137
890.971
923.987
927.993
876.415
767.205
815.252
815.204
922.854
916.19
851.799
759.033
711.544
805.167
942.629
902.821
1198.13
1141.29
1038.64
1210.74
1312.54
1231.65
2124.24
2138.07
2017.28
2020.37
2038.82
2165.87
2134.35
2141.26
2204.88
2045.12
2030.69
1826.02
1713.96
1727.18
1758.05
1736.2
2006.59
1770.96
)
;
    }
    breakwater_top_surface
    {
        type            calculated;
        value           nonuniform List<scalar> 
36
(
894.973
894.012
897.118
917.735
927.273
912.325
965.301
966.685
966.924
963.626
963.875
964.749
972.501
973.846
974.376
970.525
970.277
972.072
991
991.261
991.318
991.069
991.126
991.51
961.213
963.049
963.583
961.401
960.991
963.868
809.192
810.12
810.737
809.651
809.834
810.382
)
;
    }
    breakwater_left_surface
    {
        type            calculated;
        value           nonuniform List<scalar> 
24
(
8633.84
8629.74
8630.02
8634.39
8640.19
8626.89
2167
2170.8
2169.86
2168.43
2167.3
2172.06
783.704
780.304
782.285
782.173
785.451
779.341
67.7979
64.5945
66.3198
66.4808
69.4233
64.192
)
;
    }
    breakwater_right_surface
    {
        type            calculated;
        value           nonuniform List<scalar> 
24
(
1523.46
1519.53
1556.96
1536.93
1558.66
1580.3
753.031
742.269
711.956
754.201
561.098
804.676
414.694
375.619
300.778
276.845
261.793
269.092
-207.811
-211.324
-219.926
-249.819
-58.483
-193.17
)
;
    }
    water_front_surface
    {
        type            calculated;
        value           nonuniform List<scalar> 
186
(
24059.3
21763.7
17680.6
14517.4
12045.5
10146.6
8834.27
7936.64
7631.02
8073.74
9185.76
8618.09
17745.9
11518.2
5664.2
4156.21
2951.07
2171.22
1629.37
1307.35
1380.18
1769.12
2712.42
2162.17
6391.2
1553.02
138.418
10.2735
-22.8205
-38.1382
-57.8225
5.66615
209.815
526.485
755.248
783.29
135.898
-21.4484
-7.92979
-16.8045
-13.5054
-38.6543
-83.9567
-73.1447
42.6908
118.585
255.12
67.1641
3356.24
2292.17
1103.95
480.997
384.092
446.142
438.863
413.925
757.18
1680.29
1689.74
1522.8
1674.79
222.544
61.5453
-15.5075
-40.4846
-25.7897
-4.52844
1.69212
19.9208
173.125
337.274
752.515
195.618
6.5612
5.93558
1.04255
-7.0136
-15.46
-13.4241
-18.5595
-28.7329
-29.4729
70.5487
412.982
28.3875
-16.8019
-13.4255
-29.1407
-31.1481
-33.286
-28.8997
-30.3743
-34.3054
-40.3932
-19.4458
-209.049
103.774
-33.8041
-63.1298
-40.1256
-65.7074
-75.4748
-26.677
-47.8214
-64.0371
-36.7086
-49.6833
-65.7066
-31.9176
-41.5355
-61.1425
-39.4708
-31.3775
-59.5235
-54.5864
-22.9062
-51.9022
-53.903
-34.0766
-52.4596
-49.1249
-80.4297
-84.9222
-63.7849
-92.7575
-93.7191
-24.5303
-65.6875
-83.1706
51.083
-59.308
-77.5669
409.09
-49.1915
-72.167
456.464
-50.9846
-69.0397
461.983
-51.609
-67.6982
470.699
-53.0471
-67.4265
450.683
-54.0692
-68.936
357.809
-55.1138
-73.3263
51.4731
-101.447
-188.957
-37.506
-68.9894
-94.0198
-29.3106
-54.2213
-70.0723
-39.6122
-59.884
-74.3089
-36.4428
-52.1933
-65.4002
-39.6754
-53.2948
-64.8108
-37.6067
-51.4611
-63.3377
-38.5606
-52.3134
-63.282
-42.46
-53.3059
-63.3701
-42.1295
-53.8755
-63.7764
-46.0019
-54.3689
-66.1267
-34.0813
-45.505
-71.0864
)
;
    }
    water_back_surface
    {
        type            calculated;
        value           nonuniform List<scalar> 
186
(
24059.2
21763.6
17680.5
14517.4
12045.4
10146.6
8834.41
7936.54
7631.68
8078.08
9182.6
8611.14
17745.8
11518.3
5664.18
4156.3
2951.17
2171.09
1629.41
1306.86
1382.83
1780.15
2711.32
2167.27
6390.8
1552.67
138.381
10.2199
-22.8688
-38.2749
-57.9107
5.5887
209.758
526.748
756.268
778.928
135.309
-21.4578
-7.91979
-16.787
-13.4792
-38.7188
-84.0983
-73.2562
43.0117
118.39
252.595
63.5578
3324.54
2267.7
1261.39
660.071
496.122
467.172
455.973
443.573
773.556
1712.36
1604.49
1579.64
1595.04
285.637
55.3707
-9.365
-37.0337
-30.8696
-8.17812
0.72598
25.5186
162.559
555.824
803.494
430.296
-0.65145
2.45566
-2.56805
-7.80851
-13.9975
-13.7431
-18.7817
-28.9924
-17.5697
152.871
267.568
74.5243
-26.248
-19.3459
-30.3394
-31.1208
-33.4443
-28.8531
-31.2381
-38.8416
-40.1048
-33.8785
-194.424
103.383
-33.8088
-63.1514
-40.1295
-65.7004
-75.4703
-26.694
-47.8184
-64.032
-36.6861
-49.6672
-65.6996
-31.8464
-41.443
-61.1257
-39.4239
-31.1881
-59.4171
-54.8827
-22.703
-51.8187
-54.146
-34.3233
-52.6578
-48.6696
-80.8833
-85.1577
-62.7061
-92.5011
-93.6753
-24.7085
-65.6408
-83.0754
49.0312
-59.275
-77.5424
416.948
-49.1717
-71.6909
456.181
-51.3569
-68.8789
461.912
-51.5842
-67.5796
471.005
-53.1065
-67.3838
451.838
-54.1043
-68.9227
358.212
-55.1234
-73.3296
35.6834
-88.8524
-166.313
-37.2665
-59.9356
-91.653
-33.7226
-52.9516
-68.2876
-40.5377
-59.4894
-73.6881
-36.9001
-52.1564
-65.3856
-39.6063
-53.3348
-64.7994
-37.2644
-51.5209
-63.3165
-38.7004
-52.6614
-63.3105
-42.5386
-54.0661
-63.3157
-41.0133
-54.726
-63.66
-48.1465
-55.2778
-66.0017
-18.3408
-46.2266
-71.2896
)
;
    }
    water_left_surface
    {
        type            calculated;
        value           nonuniform List<scalar> 
42
(
24066.7
24066.8
24066.7
24066.6
24066.6
24066.5
17754.9
17755
17755
17755
17755
17754.8
6399.45
6398.27
6398.9
6398.98
6398.63
6399.06
140.963
139.064
139.936
140.173
139.585
140.37
103.774
102.729
103.096
103.206
103.012
103.383
-33.8041
-33.8013
-33.7977
-33.809
-33.8073
-33.8088
-63.1298
-63.1768
-63.1596
-63.1568
-63.1666
-63.1514
)
;
    }
    water_right_surface
    {
        type            calculated;
        value           nonuniform List<scalar> 
42
(
3357.6
3433.94
3280.2
3424.11
3575.74
3325.75
1676.13
1547.3
1585.9
1539.49
1497.72
1596.24
196.576
256.454
286.878
301.092
284.292
431.084
28.6053
38.5695
42.7431
42.9634
42.3518
75.0163
51.4731
38.2414
25.8626
16.0229
5.08484
35.6834
-101.447
-100.995
-96.1828
-81.6145
-82.0411
-88.8524
-188.957
-182.594
-177.215
-162.783
-157.039
-166.313
)
;
    }
    water_top_surface
    {
        type            calculated;
        value           nonuniform List<scalar> 
180
(
-69.5033
-69.5074
-69.5049
-69.5047
-69.5058
-69.5038
-69.6191
-69.6247
-69.6214
-69.6212
-69.6227
-69.62
-72.6889
-72.7121
-72.6997
-72.7025
-72.7104
-72.6979
-74.7766
-74.7725
-74.7747
-74.7752
-74.7779
-74.7721
-70.8099
-70.7934
-70.801
-70.8052
-70.8126
-70.7954
-68.7351
-68.7215
-68.7271
-68.7308
-68.7358
-68.7239
-68.6701
-68.6703
-68.6702
-68.6701
-68.6701
-68.6702
-74.6284
-75.9129
-75.4643
-74.8965
-74.4613
-75.8286
-90.3836
-91.8691
-91.4041
-90.4782
-90.0562
-91.8701
-69.7087
-70.2046
-70.1241
-69.7797
-69.7484
-70.1366
-95.5941
-95.6032
-95.581
-95.645
-95.766
-95.4811
-78.6482
-78.6486
-78.6407
-78.6606
-78.6821
-78.6212
-70.3466
-70.3243
-70.3147
-70.4399
-70.4335
-70.4273
-71.2526
-71.2625
-71.2622
-71.2948
-71.2892
-71.3125
-70.7854
-70.7869
-70.7836
-70.774
-70.7856
-70.7562
-71.5533
-71.5565
-71.5529
-71.5561
-71.5649
-71.5282
-73.2455
-73.2489
-73.2444
-73.2523
-73.2639
-73.2219
-74.5836
-74.5891
-74.5872
-74.588
-74.5982
-74.5729
-1557.79
-1644.62
-1428.75
-591.329
-443.141
-1742.96
-68.8031
-68.7352
-68.7251
-68.7238
-68.7251
-68.7557
-68.9111
-70.6421
-69.4721
-69.6137
-69.6856
-72.4281
-80.5015
-80.1495
-79.6411
-81.0474
-80.8888
-78.6253
-72.0336
-72.0399
-71.992
-71.8207
-71.8704
-71.8982
-70.5692
-70.5621
-70.5707
-70.5531
-70.5506
-70.5471
-69.3571
-69.3581
-69.3716
-69.3897
-69.4012
-69.3839
-69.3515
-69.3624
-69.3827
-69.416
-69.4442
-69.4254
-69.3599
-69.3775
-69.3902
-69.4083
-69.4319
-69.4148
-70.7657
-70.8618
-70.8978
-70.965
-70.9995
-70.9632
-72.4355
-72.5412
-72.5049
-72.6823
-72.6578
-72.4994
-69.5867
-69.6169
-69.6056
-69.8592
-70.3251
-69.7788
)
;
    }
}


// ************************************************************************* //
