/*--------------------------------*- C++ -*----------------------------------*\
| =========                 |                                                 |
| \\      /  F ield         | OpenFOAM: The Open Source CFD Toolbox           |
|  \\    /   O peration     | Version:  v1612+                                |
|   \\  /    A nd           | Web:      www.OpenFOAM.com                      |
|    \\/     M anipulation  |                                                 |
\*---------------------------------------------------------------------------*/
FoamFile
{
    version     2.0;
    format      ascii;
    class       volScalarField;
    location    "6";
    object      p_rgh;
}
// * * * * * * * * * * * * * * * * * * * * * * * * * * * * * * * * * * * * * //

dimensions      [1 -1 -2 0 0 0 0];

internalField   nonuniform List<scalar> 
1116
(
26206.3
26206.4
26206.3
26206.2
26206.2
26206.1
25772.2
25772.4
25772.2
25772.2
25772.2
25772.1
22477.1
22477.2
22477.2
22477.1
22477.1
22477.1
19314
19314
19314
19314
19314.1
19313.9
16841.7
16841.7
16841.7
16841.7
16841.8
16841.7
14922.5
14922.5
14922.4
14922.5
14922.5
14922.5
13553.4
13553.5
13553.4
13553.4
13553.4
13553.6
12598.8
12599.1
12599.3
12598.8
12599.2
12598.8
12264.6
12265.7
12265.3
12264.7
12263.6
12265.5
12700.7
12704.6
12702.9
12700.6
12696.4
12705.2
13805.2
13804.3
13804.3
13805.5
13807.9
13802.1
13215.6
13211.1
13211.3
13216.3
13222.5
13208
25801.2
25804.6
25803.2
25802.7
25803.9
25802.2
25365.7
25366
25365.9
25365.9
25365.9
25365.6
19507.7
19509.4
19508.7
19508.5
19509.1
19507.8
15386
15388.1
15387.3
15386.9
15387.8
15386.3
11590.7
11591.6
11591.4
11590.9
11591.1
11591
8567.04
8567.77
8567.7
8566.98
8567.22
8567.6
6577.99
6579.68
6579.53
6577.77
6577.97
6579.57
5308.39
5308.53
5309.35
5307.71
5310.58
5306.69
5437.03
5442.79
5440.15
5437.35
5430.03
5446.1
6801.61
6823.91
6815.56
6804.36
6774.93
6841.88
8644.45
8597.19
8604.05
8645.44
8685.23
8566.6
6465.51
6447.91
6448.77
6466.15
6486.94
6439.04
18899.6
18898.3
18898.8
18899
18899.1
18899
9068.65
9069.49
9069.33
9069.43
9069.1
9068.69
1150.02
1150.03
1149.92
1149.85
1149.96
1149.85
161.878
161.628
161.703
161.745
161.655
161.792
1.72312
1.69499
1.70056
1.73357
1.76564
1.67486
-13.5932
-13.8327
-13.7388
-13.642
-13.5783
-13.73
-33.2601
-33.4721
-33.3505
-33.3295
-33.268
-33.3482
30.2412
30.2904
30.3045
30.2599
30.2962
30.164
234.389
234.538
234.482
234.439
234.544
234.333
645.867
650.442
648.43
647.234
642.792
653.596
1425.83
1415.17
1411.76
1428.34
1414.93
1413.75
1410.34
1406.76
1408.58
1408.4
1411.68
1405.57
11096.2
11076.4
11083.8
11086.6
11082.2
11089.4
12.9058
12.8618
12.8937
12.8964
12.8768
12.8965
26.4243
26.4741
26.4485
26.4428
26.4538
26.4343
17.5494
17.6017
17.5794
17.5527
17.5706
17.567
20.8487
20.8957
20.8757
20.8716
20.8676
20.8749
-4.29998
-4.4338
-4.37516
-4.32087
-4.27781
-4.36455
-49.6005
-49.9261
-49.7597
-49.7222
-49.641
-49.7423
-38.7633
-38.852
-38.8509
-38.8192
-38.8301
-38.8745
77.0871
77.3738
77.2349
77.1146
76.9328
77.4082
682.521
686.74
683.098
684.29
685.309
679.246
1626.15
1623.29
1625.06
1626.56
1628.69
1623.76
1438.71
1435.92
1438.04
1438.37
1441.31
1436.08
3754.77
3834.48
3630.24
3840.33
3994.72
3676.11
2693.66
2701.93
2689.95
2672.21
2706.82
2689.33
1424.94
1436.26
1412.43
1520.58
1705.37
1591.17
573.272
763.544
547.993
852.698
1070.29
901.855
697.812
880.595
722.137
825.143
945.824
813.682
881.891
872.511
889.137
890.971
923.987
927.993
876.415
767.205
815.252
815.204
922.854
916.19
851.799
759.033
711.544
805.167
942.629
902.821
1198.13
1141.29
1038.64
1210.74
1312.54
1231.65
2124.24
2138.07
2017.28
2020.37
2038.82
2165.87
2134.35
2141.26
2204.88
2045.12
2030.69
1826.02
1713.96
1727.18
1758.05
1736.2
2006.59
1770.96
2863.27
2685.58
2541.03
2768.68
2709.26
2666.93
610.111
436.643
549.615
435.837
349.218
853.532
94.6833
105.077
107.791
112.164
107.621
109.648
21.079
7.42974
28.3514
5.66791
-4.20942
28.5461
-21.0621
-26.533
-12.9636
-21.049
-19.0314
-12.6618
-11.0581
-9.37686
-15.4541
-10.4525
-10.5737
-16.138
10.2031
9.37962
8.30248
5.39063
20.5298
6.55979
16.8142
12.7883
13.0561
12.331
38.5616
15.8038
114.018
40.32
35.1009
89.7402
257.462
140.362
774.964
765.669
441.264
793.188
743.492
575.32
1448.85
1585.97
1408.6
1557.64
1048.5
1605.15
1212.84
1206.73
2263.92
1438.28
882.942
1858.46
1648.51
1060.7
1425.46
1859.82
1654.91
1624.58
42.6308
41.3836
45.5075
41.9803
31.1468
147.053
30.4767
30.6637
30.1559
28.9387
28.0618
26.9969
25.5837
24.2271
27.1131
23.8011
22.5644
21.9731
17.5276
15.7383
16.7247
16.785
16.2715
16.7327
9.08129
9.1726
8.24752
9.28889
9.63349
10.5437
11.1248
10.9874
10.6329
10.0433
7.9906
10.7982
5.98462
6.92686
7.15263
5.79834
3.39629
5.76065
-4.19159
-2.67254
-1.92283
-3.08161
-3.15681
-4.45202
-4.89389
-1.7678
1.71548
6.03929
9.63493
6.98141
385.853
298.606
236.95
385.81
505.963
1438.77
3007.61
2968.54
2891.73
2738.24
700.979
2578.06
499.601
506.341
868.513
529.108
249.055
1139.3
23.8522
14.4523
13.5697
10.9176
6.63486
36.0665
20.9255
19.0197
17.8411
16.4855
14.5458
15.0061
5.21221
3.92936
4.82179
3.65567
3.54613
4.01151
3.20282
3.14163
3.09246
3.35626
3.52226
3.23011
1.06493
1.14027
0.633939
1.22621
1.09869
0.9066
5.45164
5.66364
4.8628
4.46036
4.61915
5.49782
3.97652
4.3982
3.93471
2.83441
2.50938
3.11277
0.0454767
0.993641
0.284113
-1.68981
-3.01993
-4.49074
-6.04236
-5.72027
-5.98925
-5.1354
-4.42273
-5.75385
76.1357
72.3067
47.7703
247.704
696.283
0.48651
2469.39
2394.21
2160.71
2158.18
2627.46
2517.58
1713.75
1696.39
1702.64
1705.26
1701.04
1707.72
20.1564
20.1593
20.1629
20.1515
20.1533
20.1518
1.40895
1.36581
1.38062
1.38328
1.37446
1.38782
4.02356
4.03565
4.02882
4.02079
4.03428
4.0197
-11.7471
-11.7384
-11.7393
-11.7394
-11.7388
-11.7402
-10.8285
-10.8215
-10.8243
-10.823
-10.8217
-10.8231
17.472
17.4406
17.4408
17.4469
17.4372
17.455
6.13963
6.14091
6.13621
6.13945
6.13501
6.14259
-0.2611
-0.253405
-0.256969
-0.254967
-0.254102
-0.256051
7.44026
7.48797
7.46316
7.45066
7.44268
7.46275
4.27565
4.29953
4.28511
4.28327
4.27098
4.2917
-1.94164
-1.93242
-1.93703
-1.93807
-1.94152
-1.93463
12.2334
12.3345
12.2813
12.2754
12.2371
12.3034
12.423
12.5573
12.4941
12.4629
12.4191
12.5149
2.62253
2.64446
2.63252
2.63122
2.6205
2.63931
4.69321
4.73744
4.71162
4.74655
4.73781
4.73285
22.6247
22.9269
22.7805
22.7437
22.6633
22.8059
4.24147
4.38597
4.32662
4.28929
4.26079
4.34788
-10.4089
-10.9207
-10.7066
-10.5289
-10.4256
-10.7105
31.0868
31.5342
31.337
31.2635
31.2331
31.2916
11.8629
12.0492
11.9531
11.9822
11.9715
11.9466
-9.16807
-9.30567
-9.28757
-9.20671
-9.26013
-9.28792
32.5285
33.8549
33.4096
32.8831
32.4431
33.7299
16.8381
17.8236
17.4993
17.0333
16.7887
17.7544
45.6863
47.7291
47.0168
46.5298
45.4091
47.4513
15.926
17.3261
16.7742
15.8037
15.5505
17.1328
-0.994593
0.0280012
-0.214207
-1.08152
-1.37402
0.150238
69.5915
67.4343
68.654
68.6732
68.4045
69.4881
-36.8857
-36.0835
-36.2627
-36.5341
-36.9677
-36.3576
-0.526893
-1.01951
-0.907209
-0.713766
-0.747773
-0.860091
19.7116
19.3398
19.4872
19.5957
19.9669
19.4365
-11.7325
-11.6305
-11.6798
-11.686
-11.714
-11.6858
-19.4056
-19.3423
-19.353
-19.4153
-19.4811
-19.3104
1137.69
1117.35
1124.24
1132.87
1145.23
1112.26
-5.353
-5.32365
-5.32887
-5.34506
-5.35985
-5.31996
-13.8012
-13.7832
-13.7878
-13.7977
-13.8029
-13.7767
4782.04
4775.52
4790.78
4904.32
4925.97
4875.34
4.76354
4.82292
4.81545
4.77563
4.82982
4.78329
-8.40197
-8.348
-8.22582
-7.95419
-7.81544
-7.92594
5035.99
5042.83
5044.19
5027.47
5025.81
5033.29
2.97045
2.91399
2.82662
2.65868
2.56245
2.59807
-5.27475
-5.26022
-5.22335
-5.14224
-5.08431
-5.1139
5056.64
5063.74
5065.99
5045.79
5044.06
5053.35
2.34603
2.34593
2.34873
2.38567
2.36863
2.37078
-3.93316
-3.92327
-3.8937
-3.84661
-3.81536
-3.81465
5153.41
5154.53
5154.86
5153.24
5153.37
5155.56
0.907871
0.899084
0.885333
0.872254
0.859428
0.848456
-3.66154
-3.65499
-3.64477
-3.6345
-3.62298
-3.6188
5045.45
5055.57
5058.51
5046.34
5043.82
5060.11
-0.114169
-0.119811
-0.127188
-0.133141
-0.138794
-0.149299
-5.17101
-5.17454
-5.17174
-5.16457
-5.15855
-5.15769
4420.26
4426.24
4429.13
4422.83
4423.16
4427.74
-1.15885
-1.1578
-1.15957
-1.16298
-1.16655
-1.16842
-9.56128
-9.5758
-9.57136
-9.56754
-9.5627
-9.56463
1045.2
1305.93
1245.43
303.166
183.63
1641.66
1479.68
1480.13
1483.85
530.886
309.898
1876.34
1257.56
1344.55
1149.48
386.309
254.449
1452.15
20.6435
1.69328
-3.27325
-2.9249
-5.69653
32.3974
-11.308
-15.7107
-18.1333
-18.4418
-17.466
-4.57092
-30.1312
-28.4604
-27.8452
-27.0497
-28.7721
-27.8084
14.8347
12.942
10.2126
8.09346
7.94286
10.4274
0.334774
-0.628059
-0.686845
-1.59112
-1.14607
2.59761
-4.74285
-5.06283
-4.3177
-3.79825
-4.39043
-1.03291
4.53581
3.57281
3.21467
2.33003
2.05677
3.71396
-5.92903
-6.16303
-6.02267
-6.13151
-6.40003
-5.27996
-10.511
-10.5768
-10.133
-10.1932
-10.1912
-9.62909
7.70219
7.51244
7.34875
7.18004
7.13154
7.24492
1.7617
1.6965
1.64816
1.66584
1.68189
1.79861
-1.63516
-1.66036
-1.63856
-1.56735
-1.61895
-1.62064
4.46962
4.49575
4.36851
4.31985
4.34637
4.53868
0.66023
0.659545
0.570717
0.58462
0.537746
0.620161
-1.04577
-1.04848
-1.05344
-1.06093
-1.05842
-1.03438
6.53833
6.64832
6.56885
6.31668
6.29217
6.88058
2.49395
2.48946
2.40552
2.34396
2.30264
2.43414
0.427297
0.430762
0.430177
0.420398
0.4253
0.448526
5.58445
5.63463
5.88111
5.38565
5.1732
5.44461
1.64163
1.6235
1.5328
1.35297
1.2186
1.29362
0.482977
0.470302
0.490221
0.445102
0.437476
0.454502
1.68499
1.66015
2.05054
1.4952
1.48611
1.60636
0.649076
0.590074
0.449328
0.251693
0.040441
-0.111085
0.394893
0.390484
0.423678
0.412761
0.420521
0.449255
2.01551
2.13442
2.70426
2.63299
2.94761
3.13162
0.0795122
-0.0592779
-0.321632
-0.454309
-0.677727
-0.770952
-0.0113902
-0.0173814
0.0719161
0.0490953
0.0591255
0.105018
-1.85689
-2.42649
-2.73837
-4.35499
-4.02514
-4.00239
-0.413898
-0.592729
-0.72886
-1.32168
-1.59755
-1.32284
-2.36169
-2.38556
-2.34219
-2.23538
-2.24043
-2.2367
208.378
220.283
268.993
418.351
1052.93
361.283
8.44996
8.24088
8.12177
8.07058
6.41689
7.72844
-7.32131
-7.4798
-7.44028
-7.53547
-8.18366
-7.52451
)
;

boundaryField
{
    seabed_topleft_surface
    {
        type            fixedFluxPressure;
        gradient        uniform 0;
        value           nonuniform List<scalar> 
72
(
26206.3
26206.4
26206.3
26206.2
26206.2
26206.1
25772.2
25772.4
25772.2
25772.2
25772.2
25772.1
22477.1
22477.2
22477.2
22477.1
22477.1
22477.1
19314
19314
19314
19314
19314.1
19313.9
16841.7
16841.7
16841.7
16841.7
16841.8
16841.7
14922.5
14922.5
14922.4
14922.5
14922.5
14922.5
13553.4
13553.5
13553.4
13553.4
13553.4
13553.6
12598.8
12599.1
12599.3
12598.8
12599.2
12598.8
12264.6
12265.7
12265.3
12264.7
12263.6
12265.5
12700.7
12704.6
12702.9
12700.6
12696.4
12705.2
13805.2
13804.3
13804.3
13805.5
13807.9
13802.1
13215.6
13211.1
13211.3
13216.3
13222.5
13208
)
;
    }
    seabed_topright_surface
    {
        type            fixedFluxPressure;
        gradient        uniform 0;
        value           nonuniform List<scalar> 
72
(
3754.77
3834.48
3630.24
3840.33
3994.72
3676.11
2693.66
2701.93
2689.95
2672.21
2706.82
2689.33
1424.94
1436.26
1412.43
1520.58
1705.37
1591.17
573.272
763.544
547.993
852.698
1070.29
901.855
697.812
880.595
722.137
825.143
945.824
813.682
881.891
872.511
889.137
890.971
923.987
927.993
876.415
767.205
815.252
815.204
922.854
916.19
851.799
759.033
711.544
805.167
942.629
902.821
1198.13
1141.29
1038.64
1210.74
1312.54
1231.65
2124.24
2138.07
2017.28
2020.37
2038.82
2165.87
2134.35
2141.26
2204.88
2045.12
2030.69
1826.02
1713.96
1727.18
1758.05
1736.2
2006.59
1770.96
)
;
    }
    breakwater_top_surface
    {
        type            fixedFluxPressure;
        gradient        uniform 0;
        value           nonuniform List<scalar> 
36
(
4782.04
4775.52
4790.78
4904.32
4925.97
4875.34
5035.99
5042.83
5044.19
5027.47
5025.81
5033.29
5056.64
5063.74
5065.99
5045.79
5044.06
5053.35
5153.41
5154.53
5154.86
5153.24
5153.37
5155.56
5045.45
5055.57
5058.51
5046.34
5043.82
5060.11
4420.26
4426.24
4429.13
4422.83
4423.16
4427.74
)
;
    }
    breakwater_left_surface
    {
        type            fixedFluxPressure;
        gradient        uniform 0;
        value           nonuniform List<scalar> 
24
(
13215.6
13211.1
13211.3
13216.3
13222.5
13208
6465.51
6447.91
6448.77
6466.15
6486.94
6439.04
1410.34
1406.76
1408.58
1408.4
1411.68
1405.57
1438.71
1435.92
1438.04
1438.37
1441.31
1436.08
)
;
    }
    breakwater_right_surface
    {
        type            fixedFluxPressure;
        gradient        uniform 0;
        value           nonuniform List<scalar> 
24
(
1713.96
1727.18
1758.05
1736.2
2006.59
1770.96
1212.84
1206.73
2263.92
1438.28
882.942
1858.46
3007.61
2968.54
2891.73
2738.24
700.979
2578.06
2469.39
2394.21
2160.71
2158.18
2627.46
2517.58
)
;
    }
    water_front_surface
    {
        type            fixedFluxPressure;
        gradient        uniform 0;
        value           nonuniform List<scalar> 
186
(
26206.3
25772.2
22477.1
19314
16841.7
14922.5
13553.4
12598.8
12264.6
12700.7
13805.2
13215.6
25801.2
25365.7
19507.7
15386
11590.7
8567.04
6577.99
5308.39
5437.03
6801.61
8644.45
6465.51
18899.6
9068.65
1150.02
161.878
1.72312
-13.5932
-33.2601
30.2412
234.389
645.867
1425.83
1410.34
11096.2
12.9058
26.4243
17.5494
20.8487
-4.29998
-49.6005
-38.7633
77.0871
682.521
1626.15
1438.71
3754.77
2693.66
1424.94
573.272
697.812
881.891
876.415
851.799
1198.13
2124.24
2134.35
1713.96
2863.27
610.111
94.6833
21.079
-21.0621
-11.0581
10.2031
16.8142
114.018
774.964
1448.85
1212.84
1648.51
42.6308
30.4767
25.5837
17.5276
9.08129
11.1248
5.98462
-4.19159
-4.89389
385.853
3007.61
499.601
23.8522
20.9255
5.21221
3.20282
1.06493
5.45164
3.97652
0.0454767
-6.04236
76.1357
2469.39
1713.75
20.1564
1.40895
4.02356
-11.7471
-10.8285
17.472
6.13963
-0.2611
7.44026
4.27565
-1.94164
12.2334
12.423
2.62253
4.69321
22.6247
4.24147
-10.4089
31.0868
11.8629
-9.16807
32.5285
16.8381
45.6863
15.926
-0.994593
69.5915
-36.8857
-0.526893
19.7116
-11.7325
-19.4056
1137.69
-5.353
-13.8012
4782.04
4.76354
-8.40197
5035.99
2.97045
-5.27475
5056.64
2.34603
-3.93316
5153.41
0.907871
-3.66154
5045.45
-0.114169
-5.17101
4420.26
-1.15885
-9.56128
1045.2
1479.68
1257.56
20.6435
-11.308
-30.1312
14.8347
0.334774
-4.74285
4.53581
-5.92903
-10.511
7.70219
1.7617
-1.63516
4.46962
0.66023
-1.04577
6.53833
2.49395
0.427297
5.58445
1.64163
0.482977
1.68499
0.649076
0.394893
2.01551
0.0795122
-0.0113902
-1.85689
-0.413898
-2.36169
208.378
8.44996
-7.32131
)
;
    }
    water_back_surface
    {
        type            fixedFluxPressure;
        gradient        uniform 0;
        value           nonuniform List<scalar> 
186
(
26206.1
25772.1
22477.1
19313.9
16841.7
14922.5
13553.6
12598.8
12265.5
12705.2
13802.1
13208
25802.2
25365.6
19507.8
15386.3
11591
8567.6
6579.57
5306.69
5446.1
6841.88
8566.6
6439.04
18899
9068.69
1149.85
161.792
1.67486
-13.73
-33.3482
30.164
234.333
653.596
1413.75
1405.57
11089.4
12.8965
26.4343
17.567
20.8749
-4.36455
-49.7423
-38.8745
77.4082
679.246
1623.76
1436.08
3676.11
2689.33
1591.17
901.855
813.682
927.993
916.19
902.821
1231.65
2165.87
1826.02
1770.96
2666.93
853.532
109.648
28.5461
-12.6618
-16.138
6.55979
15.8038
140.362
575.32
1605.15
1858.46
1624.58
147.053
26.9969
21.9731
16.7327
10.5437
10.7982
5.76065
-4.45202
6.98141
1438.77
2578.06
1139.3
36.0665
15.0061
4.01151
3.23011
0.9066
5.49782
3.11277
-4.49074
-5.75385
0.48651
2517.58
1707.72
20.1518
1.38782
4.0197
-11.7402
-10.8231
17.455
6.14259
-0.256051
7.46275
4.2917
-1.93463
12.3034
12.5149
2.63931
4.73285
22.8059
4.34788
-10.7105
31.2916
11.9466
-9.28792
33.7299
17.7544
47.4513
17.1328
0.150238
69.4881
-36.3576
-0.860091
19.4365
-11.6858
-19.3104
1112.26
-5.31996
-13.7767
4875.34
4.78329
-7.92594
5033.29
2.59807
-5.1139
5053.35
2.37078
-3.81465
5155.56
0.848456
-3.6188
5060.11
-0.149299
-5.15769
4427.74
-1.16842
-9.56463
1641.66
1876.34
1452.15
32.3974
-4.57092
-27.8084
10.4274
2.59761
-1.03291
3.71396
-5.27996
-9.62909
7.24492
1.79861
-1.62064
4.53868
0.620161
-1.03438
6.88058
2.43414
0.448526
5.44461
1.29362
0.454502
1.60636
-0.111085
0.449255
3.13162
-0.770952
0.105018
-4.00239
-1.32284
-2.2367
361.283
7.72844
-7.52451
)
;
    }
    water_left_surface
    {
        type            fixedFluxPressure;
        gradient        uniform 0;
        value           nonuniform List<scalar> 
42
(
26206.3
26206.4
26206.3
26206.2
26206.2
26206.1
25801.2
25804.6
25803.2
25802.7
25803.9
25802.2
18899.6
18898.3
18898.8
18899
18899.1
18899
11096.2
11076.4
11083.8
11086.6
11082.2
11089.4
1713.75
1696.39
1702.64
1705.26
1701.04
1707.72
20.1564
20.1593
20.1629
20.1515
20.1533
20.1518
1.40895
1.36581
1.38062
1.38328
1.37446
1.38782
)
;
    }
    water_right_surface
    {
        type            fixedFluxPressure;
        gradient        uniform 0;
        value           nonuniform List<scalar> 
42
(
3754.77
3834.48
3630.24
3840.33
3994.72
3676.11
2863.27
2685.58
2541.03
2768.68
2709.26
2666.93
1648.51
1060.7
1425.46
1859.82
1654.91
1624.58
499.601
506.341
868.513
529.108
249.055
1139.3
1045.2
1305.93
1245.43
303.166
183.63
1641.66
1479.68
1480.13
1483.85
530.886
309.898
1876.34
1257.56
1344.55
1149.48
386.309
254.449
1452.15
)
;
    }
    water_top_surface
    {
        type            totalPressure;
        rho             rho;
        psi             none;
        gamma           1;
        p0              uniform 0;
        value           nonuniform List<scalar> 
180
(
0
0
0
0
0
0
0
0
0
0
0
0
-4.01887
-4.04215
-4.02966
-4.03253
-4.04037
-4.02785
-6.10664
-6.10246
-6.10465
-6.10525
-6.10789
-6.1021
-2.13989
-2.12343
-2.13101
-2.13523
-2.14263
-2.12536
-0.0651466
-0.0514665
-0.0570688
-0.0608187
-0.0658204
-0.0539274
0
0
0
0
0
0
0
0
0
0
0
0
0
0
0
0
0
0
-1.03871
-1.5346
-1.45406
-1.10973
-1.07839
-1.46655
-26.9241
-26.9332
-26.911
-26.975
-27.096
-26.8111
-9.97816
-9.97864
-9.97071
-9.99061
-10.0121
-9.95115
-1.67655
-1.65427
-1.64471
-1.76991
-1.76353
-1.75727
-2.58262
-2.59253
-2.59225
-2.62478
-2.61917
-2.64254
-2.1154
-2.1169
-2.11355
-2.10404
-2.11561
-2.08619
-2.8833
-2.88651
-2.88287
-2.88614
-2.89494
-2.85819
-4.57551
-4.57891
-4.57442
-4.58233
-4.59386
-4.55188
-5.91358
-5.91907
-5.91721
-5.91802
-5.92816
-5.90289
0
0
0
0
0
0
0
0
0
0
0
0
-0.241074
0
-0.802133
-0.943667
-1.01564
0
-11.8315
-11.4795
-10.9711
-12.3774
-12.2188
-9.95534
-3.3636
-3.36993
-3.32196
-3.15072
-3.20036
-3.22823
-1.8992
-1.89214
-1.90072
-1.88308
-1.88061
-1.87713
-0.687135
-0.688089
-0.701627
-0.719736
-0.731176
-0.713915
-0.681509
-0.692438
-0.712657
-0.745993
-0.774203
-0.755427
-0.689868
-0.70751
-0.720202
-0.738319
-0.761947
-0.744819
-2.0957
-2.19175
-2.2278
-2.29502
-2.32949
-2.29317
-3.76548
-3.87122
-3.83491
-4.01229
-3.98776
-3.8294
-0.916708
-0.946884
-0.935601
-1.18924
-1.65514
-1.10879
)
;
    }
}


// ************************************************************************* //
