/*--------------------------------*- C++ -*----------------------------------*\
| =========                 |                                                 |
| \\      /  F ield         | OpenFOAM: The Open Source CFD Toolbox           |
|  \\    /   O peration     | Version:  v1612+                                |
|   \\  /    A nd           | Web:      www.OpenFOAM.com                      |
|    \\/     M anipulation  |                                                 |
\*---------------------------------------------------------------------------*/
FoamFile
{
    version     2.0;
    format      ascii;
    class       surfaceScalarField;
    location    "6";
    object      phi;
}
// * * * * * * * * * * * * * * * * * * * * * * * * * * * * * * * * * * * * * //

dimensions      [0 3 -1 0 0 0 0];

internalField   nonuniform List<scalar> 
2916
(
-6.21379e-05
-0.900643
0.900705
2.50358e-05
-0.900812
0.900725
2.99962e-05
-0.900732
0.900727
-6.26047e-06
-0.900702
0.900738
3.3066e-05
-0.900744
0.900704
-0.900685
0.900718
-8.40702e-05
-1.26533
0.364766
2.0031e-05
-1.26548
0.364568
2.16636e-05
-1.26539
0.36466
-6.68153e-06
-1.26537
0.364692
3.2069e-05
-1.26541
0.36463
-1.26537
0.364714
-2.81161e-05
-1.41447
0.14917
9.81745e-06
-1.41463
0.149104
9.49666e-06
-1.41452
0.149131
-4.09852e-06
-1.41451
0.149155
1.12624e-06
-1.41455
0.149134
-1.41452
0.149153
-2.11298e-05
-1.43559
0.0211442
8.69841e-06
-1.43578
0.0211266
1.09519e-05
-1.43566
0.0211375
6.34213e-07
-1.43567
0.0211727
-8.02199e-06
-1.43571
0.0211632
-1.43565
0.0211224
4.88728e-06
-1.37137
-0.0642288
8.52324e-06
-1.37159
-0.0641978
1.75084e-05
-1.37146
-0.0642135
9.11678e-06
-1.3715
-0.0641647
-2.82669e-05
-1.37152
-0.0641471
-1.37142
-0.0642533
-6.41999e-06
-1.25772
-0.113639
3.35592e-05
-1.25806
-0.113565
8.61097e-05
-1.2579
-0.113613
1.97627e-05
-1.25791
-0.113525
-0.000105037
-1.25792
-0.113478
-1.25785
-0.11368
-1.03533e-05
-1.12713
-0.130577
5.11535e-05
-1.12767
-0.130457
0.000149201
-1.12747
-0.130529
1.46582e-05
-1.12736
-0.130408
-0.000116768
-1.12749
-0.130296
-1.12731
-0.130654
0.000194757
-0.991633
-0.135694
-4.89417e-06
-0.991893
-0.135574
-3.6274e-05
-0.991826
-0.135611
-9.22086e-05
-0.991785
-0.135521
0.000316583
-0.992535
-0.135366
-0.991238
-0.135757
0.000411197
-0.809259
-0.182786
-9.38176e-06
-0.808538
-0.182935
-0.000272985
-0.808754
-0.182809
-0.000117363
-0.809231
-0.18271
0.000479205
-0.811063
-0.182069
-0.807312
-0.183447
0.000771819
-0.593988
-0.216042
1.91655e-05
-0.590542
-0.217244
-0.000812392
-0.591168
-0.216754
0.000173235
-0.593949
-0.216267
0.00128707
-0.597569
-0.214608
-0.587448
-0.218576
0.000825209
-0.226018
-0.368795
-4.98699e-06
-0.221887
-0.367825
-0.00110613
-0.222525
-0.367542
-1.84968e-05
-0.225918
-0.369119
0.00133087
-0.229431
-0.369487
-0.219255
-0.366863
-0.000658735
-0.22536
0.000257257
-0.222803
0.0010321
-0.2233
0.000191321
-0.225077
-0.00184429
-0.227396
-0.221099
0.000268462
-1.42613
2.32657
3.84826e-05
-1.42643
2.32738
-4.29751e-05
-1.42626
2.32707
-2.77986e-05
-1.42629
2.32701
-0.000107728
-1.42636
2.32715
-1.42621
2.32682
0.000119742
-1.70991
0.648427
6.25332e-06
-1.7101
0.648359
-1.30034e-05
-1.71
0.648412
7.96288e-06
-1.71003
0.648413
-6.88571e-05
-1.71006
0.648406
-1.70996
0.648395
7.16383e-05
-1.63809
0.0772732
-9.49465e-06
-1.63832
0.0773984
3.46868e-06
-1.63821
0.0773316
9.40043e-06
-1.63822
0.0773429
-4.97153e-05
-1.63827
0.0773963
-1.63815
0.0772943
-0.000201487
-1.24679
-0.369952
-1.90232e-05
-1.24708
-0.370294
4.96182e-05
-1.24697
-0.370173
1.88572e-05
-1.24693
-0.370089
0.000126247
-1.24699
-0.370215
-1.24685
-0.370046
-0.000354543
-0.706121
-0.604544
-1.36114e-05
-0.706666
-0.604952
0.000126494
-0.706471
-0.60485
5.42873e-05
-0.706359
-0.604666
0.000233386
-0.706551
-0.60477
-0.706227
-0.604645
-0.00024543
-0.145264
-0.674251
-4.62345e-05
-0.146051
-0.67438
-4.50977e-05
-0.14579
-0.674295
4.07507e-05
-0.145606
-0.674364
0.00047547
-0.146029
-0.674435
-0.145347
-0.674085
0.000313141
0.358565
-0.634719
-0.000182208
0.35771
-0.633724
-0.000576001
0.357955
-0.633881
-6.63828e-05
0.358177
-0.634702
0.000967303
0.357602
-0.63496
0.35864
-0.633674
0.000560266
0.749345
-0.527035
-0.000273417
0.749497
-0.526527
-0.000944129
0.749417
-0.526403
-0.000153357
0.749179
-0.527314
0.00199141
0.748366
-0.528276
0.750106
-0.525233
-0.000657458
0.68856
-0.121344
0.00013942
0.68776
-0.121996
0.000627005
0.688839
-0.122718
0.000650919
0.6876
-0.121156
-0.0011189
0.689786
-0.121719
0.688114
-0.122574
-0.00664914
0.337129
0.142037
0.00140992
0.324428
0.138029
0.00728838
0.327749
0.138457
0.000481804
0.335954
0.142186
-0.0176775
0.34987
0.143468
0.314541
0.137319
-0.00658442
-0.0796436
0.0545621
0.00170234
-0.102115
0.0504318
0.00756404
-0.0979516
0.0522971
0.00190458
-0.0808055
0.0533003
-0.0151499
-0.0633697
0.0608072
-0.11426
0.0467876
0.00191564
-0.306919
-0.000427254
-0.322575
-0.00387492
-0.317804
0.000904956
-0.310662
0.00847587
-0.298336
-0.326883
0.000440753
-1.4934
3.81953
2.64009e-05
-1.49366
3.82145
-4.97228e-05
-1.4935
3.82065
-6.1337e-07
-1.49353
3.8205
-0.000198265
-1.49363
3.82097
-1.49347
3.82009
-0.000232363
-1.03977
0.195029
-3.16183e-06
-1.0407
0.195177
1.62171e-05
-1.04038
0.195268
-4.04626e-05
-1.04024
0.195172
0.000234347
-1.04048
0.194987
-1.03998
0.195145
-0.00152174
0.0863395
-1.04732
1.47171e-05
0.0841778
-1.04902
0.000361147
0.0851231
-1.04851
-1.20158e-06
0.0858805
-1.04841
0.000795904
0.0850629
-1.04894
0.0861544
-1.04805
-0.0023856
1.90161
-2.18284
0.00047225
1.89645
-2.18542
0.00172151
1.89831
-2.18461
0.000451648
1.90092
-2.18386
0.000492367
1.89964
-2.18483
1.89984
-2.18323
-0.0061168
4.12771
-2.82453
0.00109563
4.11505
-2.83077
0.00457189
4.11857
-2.82859
0.000675624
4.12624
-2.82609
-8.00533e-06
4.12422
-2.82867
4.12017
-2.82499
0.0081677
6.56225
-3.11696
-0.00197139
6.55556
-3.10474
-0.00628916
6.55601
-3.10742
-0.00195558
6.56323
-3.11569
0.00849565
6.55975
-3.12042
6.55784
-3.10325
0.0255587
7.49818
-1.59621
-0.00536844
7.50735
-1.55459
-0.0170449
7.50163
-1.56783
-0.00531884
7.50424
-1.58743
0.0164272
7.49946
-1.59641
7.50702
-1.56643
0.0155233
4.86709
2.08853
-0.0037279
4.89549
2.10459
-0.0132922
4.88775
2.09704
-0.0046256
4.87315
2.0951
0.0135283
4.86042
2.0926
4.89927
2.09605
0.0069973
0.411984
4.32676
-0.00158723
0.465664
4.31641
-0.0186846
0.457417
4.32471
0.00146153
0.411253
4.32059
0.0567486
0.36519
4.31822
0.503661
4.32978
-0.0595296
-0.539791
1.15334
0.0142519
-0.592301
1.12221
0.0518163
-0.580226
1.13854
0.00476662
-0.545293
1.14578
-0.122884
-0.519444
1.15575
-0.618344
1.13644
-0.0403267
-0.118127
-0.326775
0.0120604
-0.248349
-0.345907
0.0460438
-0.224464
-0.337448
0.0170401
-0.129329
-0.33366
-0.0898017
-0.0323
-0.319494
-0.314308
-0.34705
0.0525476
-0.477593
-0.0106638
-0.507712
-0.0531219
-0.499809
-0.00899431
-0.484119
0.123217
-0.462847
-0.517974
-0.00159269
-0.263886
4.08501
-0.000366593
-0.260418
4.08064
0.000196603
-0.262049
4.08213
0.000106048
-0.262461
4.08305
0.000513364
-0.261393
4.08196
-0.262814
4.08341
0.000206082
0.10479
-0.173852
-0.000288058
0.107272
-0.172021
-0.000166751
0.105755
-0.172658
-0.00012722
0.105536
-0.172866
6.92194e-05
0.106393
-0.172998
0.106036
-0.173637
-0.00467032
-0.226293
-0.711566
0.000770962
-0.233535
-0.713655
0.00132296
-0.230804
-0.712508
-6.68436e-05
-0.228623
-0.71286
0.00140775
-0.230295
-0.713729
-0.228264
-0.712339
-0.00999688
-0.451846
-1.94729
0.00288326
-0.484182
-1.94766
0.00875184
-0.473717
-1.94757
0.00142198
-0.457174
-1.94798
-0.00344713
-0.460565
-1.94969
-0.469573
-1.94537
-0.0196837
-1.24249
-2.0142
0.00343397
-1.32247
-2.01559
0.014871
-1.29889
-2.01485
0.00305916
-1.25673
-2.01472
-0.0135995
-1.25227
-2.02031
-1.2999
-2.00827
0.00741034
-1.75595
-2.61091
-0.00285781
-1.8481
-2.56885
-0.00930421
-1.81846
-2.5814
-0.00200411
-1.77761
-2.60211
0.00482728
-1.76585
-2.61367
-1.82527
-2.57305
0.0546849
-2.02407
-1.38277
-0.00832115
-2.05976
-1.27992
-0.0365878
-2.04224
-1.31577
-0.00885676
-2.03876
-1.35401
0.034686
-2.03505
-1.37076
-2.04445
-1.31256
0.00392967
-3.10669
3.16723
0.00268412
-3.13092
3.17699
-0.00241531
-3.10789
3.16778
0.00332785
-3.12721
3.17781
0.00520969
-3.13061
3.18628
-3.10028
3.15709
-0.0279823
-3.56973
4.81778
0.00556952
-3.59057
4.74252
0.0128645
-3.56982
4.77935
0.0104735
-3.59239
4.78816
-0.00484492
-3.60448
4.80741
-3.55261
4.77727
-0.00584795
-3.1568
0.746264
-0.00107586
-3.16134
0.688215
0.00431721
-3.15587
0.719194
-0.000337469
-3.16501
0.723056
0.000290494
-3.17388
0.72452
-3.14786
0.731975
-0.000828588
-1.43676
-2.04599
-0.000614865
-1.43593
-2.07153
0.0031548
-1.43536
-2.06173
-0.000663474
-1.43912
-2.05574
-0.00138043
-1.44572
-2.04693
-1.43086
-2.06543
0.00828425
-1.92263
-0.000376444
-1.93498
-0.0018785
-1.93367
-0.000607981
-1.9245
0.0073416
-1.91652
-1.94149
-0.118512
-1.52342
1.64193
-0.119857
-1.88327
1.88461
-0.525696
-1.53383
1.93967
0.0388104
-1.91152
1.34701
1.28913
-2.51737
1.26705
-0.80466
2.09379
0.0356654
-2.68903
1.12994
0.212761
-3.21745
1.15708
0.476432
-2.8805
1.08299
0.455215
-3.18118
1.29088
0.350005
-3.9034
1.49124
-2.11183
1.65717
-0.131124
-3.40494
0.847039
-0.0490931
-4.14552
0.846038
-0.193625
-3.51712
0.781155
-0.174484
-3.99263
0.792305
-0.110365
-4.56816
0.600645
-3.14034
0.918142
-0.162159
-4.10467
0.861891
0.0415199
-4.75724
0.408048
-0.237497
-4.31467
1.07657
-0.0512721
-4.3938
0.214944
0.00921418
-4.68303
0.0543807
-3.57833
0.447213
0.0581585
-4.15382
-0.00901145
0.152103
-4.62496
-0.226224
0.185215
-4.42327
0.0754894
0.162493
-4.28758
-0.0834965
0.0902704
-4.38925
-0.221557
-3.64314
0.155075
0.162998
-3.79038
-0.526435
0.0960116
-4.16555
-0.392422
0.24505
-4.00922
-0.563093
0.286693
-3.9089
-0.420325
-0.00110083
-4.05314
-0.0483229
-3.56594
-0.0783033
0.0464059
-3.48697
-0.349816
-0.0193528
-3.72335
-0.376441
0.20878
-3.55559
-0.681758
0.262367
-3.52848
-0.434003
0.0396038
-3.62438
-0.205994
-3.3962
-0.130135
-0.11225
-3.148
-0.226719
-0.0379086
-3.34658
-0.45112
0.130542
-3.2511
-0.472939
0.256217
-3.17797
-0.476181
0.114546
-3.139
-0.343704
-3.13265
-0.148997
-0.191228
-2.52729
-0.429485
0.00368902
-2.79202
-0.749469
0.251733
-2.83763
-0.661518
0.367102
-2.5615
-0.731846
0.0230185
-2.3608
-0.434122
-2.58898
-0.520651
-0.2387
-0.945516
-1.34308
0.112456
-1.2015
-1.94168
0.683963
-1.45723
-1.9519
0.720263
-1.15226
-1.44554
-0.154364
-0.801506
-0.684665
-1.01182
-1.73153
-0.0937325
0.474141
-1.32592
0.0384383
0.335216
-1.66889
0.861571
0.114442
-2.39481
0.844752
0.235691
-1.37113
-0.0317186
0.511617
-0.436653
0.359406
-1.40294
-0.137851
0.611992
-0.126724
0.324088
0.552707
-0.56499
0.455474
0.332923
0.0655208
0.90157
0.424926
-0.0447215
-2.33029
4.01694
-0.000147802
-2.63419
4.47424
0.0792596
-2.20334
4.0636
0.42708
-2.60543
3.60462
0.880536
-2.97193
3.78553
-1.03757
4.01189
-0.114829
-4.04548
2.95997
0.0279796
-4.50741
2.88749
0.430037
-4.17921
2.6568
0.281064
-4.30666
3.14109
0.421948
-5.01907
3.39749
-2.89588
3.93744
-0.0835749
-3.54242
0.42755
-0.279017
-3.79963
0.3337
0.0355469
-4.18035
0.467735
0.0722678
-3.90785
0.356778
-0.652803
-3.72334
0.0299808
-3.36809
0.737547
0.123857
-2.06866
-0.735725
-0.557687
-1.57942
-1.13062
-0.028217
-3.35171
-0.281544
-0.355065
-2.01216
-1.3539
-0.676853
-1.99496
-1.35221
-2.3627
-1.23502
-0.147408
-0.540326
-1.38994
-0.785708
0.19357
-1.36091
-1.35358
-1.5815
-1.12685
-1.01827
-1.24695
-1.18401
0.245289
-2.13305
-1.34703
-0.843832
-1.11851
-0.247182
0.121691
-0.941272
-0.206039
-0.0737767
-0.16622
-1.83552
0.238655
-0.753768
-0.88805
-1.97432
-0.640428
0.373133
-3.05979
-0.382766
-0.579899
0.030896
0.451652
-1.23195
0.552174
0.337293
-1.30692
0.97106
-0.150284
-0.45381
0.498283
-0.567589
-1.97676
-0.0142573
-0.21625
-3.12773
-0.489395
-2.12031
1.19402
0.285518
-3.18941
1.44523
-0.259473
-2.5974
1.38435
-0.684023
-2.14256
1.64036
-0.503598
-2.7818
0.148429
0.415513
-3.52424
-0.86631
-3.59176
1.73796
-0.177286
-3.38291
-0.0587015
-0.368764
-3.24097
0.0855761
-0.869546
-2.95211
0.64882
-0.439501
-3.19794
-0.745745
0.688209
-3.50691
-1.57916
-3.22319
-0.201012
-0.0467767
-2.08798
-2.59123
-0.197001
-2.09968
-2.93274
-0.557623
-2.12774
-2.41566
-0.310436
-2.21411
-2.67656
0.145641
-2.32552
-2.32213
-2.07474
-2.73433
0.0473474
-0.763632
-2.69762
0.0319238
-0.910657
-2.84249
0.062906
-1.18586
-3.36767
-0.0441022
-0.959217
-2.51901
-0.616101
-0.52599
-1.66418
-0.943885
-3.1499
0.341714
-0.493354
0.575175
-0.820027
0.682185
-1.85786
0.713935
-0.658043
-0.662023
1.75154
-1.18098
-0.445072
-0.228982
4.69099
-0.0483667
-0.92855
5.00608
0.265667
-0.856295
4.60587
0.450325
-1.44871
4.86866
0.499152
-1.60611
5.34282
0.0584434
4.4526
-0.8874
-0.92273
4.54112
-0.237438
-1.94003
3.24901
0.638335
-2.10092
3.02566
0.985719
-2.01104
3.35603
0.695623
-2.14349
4.22497
-1.24636
5.93787
0.559737
-0.920289
-0.134627
0.483114
-0.929885
-0.599824
0.376281
-1.08592
-0.440431
0.0842545
-0.943097
-0.419134
-0.351422
-1.09994
-0.577896
-1.30366
0.443416
0.192113
-0.505441
-1.34269
0.171065
-0.565179
-1.47428
0.596746
-0.532966
-1.26018
0.512499
-0.621707
-1.59104
0.256898
-0.62276
-1.57378
-0.760637
-1.52114
-0.0331265
-0.464342
-1.39791
-0.0486096
-0.524611
-1.386
0.0874483
-0.39046
-1.40542
0.0758043
-0.530779
-1.26329
-0.0363818
-0.643622
-1.21399
-0.634422
-1.28111
-0.319784
-0.489687
-0.596143
-0.115182
-0.556695
-0.338738
-0.273332
-0.353573
-0.632505
-0.395468
-0.474433
-0.574639
-0.349997
-0.472725
-0.599135
-0.613106
-0.340418
0.0697942
-0.533357
0.526049
0.169407
-0.729561
1.04431
0.0955705
-0.419995
0.638539
-0.183449
-0.0588429
-0.15083
-0.70591
0.0553879
-0.495049
-1.17476
1.04977
0.180681
-0.422349
1.15354
-0.054437
-0.469858
1.35976
0.120183
-0.548956
1.5947
0.0464848
0.0214979
0.141786
-0.247925
0.0480502
-0.564563
-1.14949
1.46477
-0.148649
-0.479846
0.147444
-0.453011
-0.521124
0.441204
-0.320747
-0.854631
0.822229
0.00443874
-0.742674
-0.30676
0.447734
-1.04533
-0.929066
-0.875366
-0.0274008
-0.0765427
-1.27489
-1.71964
-0.363632
-1.41248
-1.75428
-0.912984
-1.3794
-1.34153
-0.606568
-1.65809
-2.06756
0.251825
-1.68144
-2.54442
-1.63103
-1.72684
0.197508
-1.07399
-3.09603
0.0954559
-1.12117
-3.03176
-0.719722
-0.916634
-3.01526
-0.40636
-1.09375
-3.39672
0.109734
-0.95825
-2.90346
-1.04335
-3.62785
0.220859
-1.7882
0.238615
-1.95895
-0.302771
-2.23311
-0.305768
-1.74879
0.192066
0.295453
-2.03226
-0.415822
0.256113
4.8507
-0.0233737
-0.364601
4.97823
0.232437
-0.461573
4.81163
0.232518
-0.858884
5.72747
0.294795
-1.20416
6.4847
0.266469
4.48093
-0.000237575
-0.97461
5.77208
0.349308
-1.82226
4.35713
0.831018
-1.94837
4.03075
0.801115
-1.75858
4.28564
0.361517
-1.80469
5.2651
-0.46643
7.03229
0.423117
-1.13008
-0.402273
0.0516696
-1.23734
-0.813294
-0.295063
-1.27051
-0.77156
-0.541988
-1.27519
-0.655598
-0.941689
-1.28482
-0.698069
-0.834223
-0.13048
0.10169
-0.969028
-1.60543
-0.0463766
-0.994857
-1.5687
-0.0568681
-1.00706
-1.51315
-0.0836043
-1.01225
-1.82725
-0.147821
-0.950882
-1.8435
-0.993091
-1.5101
-0.0151894
-1.08589
-1.26586
-0.0108203
-1.09556
-1.28966
-0.092011
-1.05235
-1.27893
-0.107625
-1.01624
-1.24369
-0.0130581
-0.953575
-1.30586
-1.01014
-1.27712
-0.0120672
-0.938407
-0.731561
0.15037
-0.924926
-0.671814
0.0878293
-0.897308
-0.725008
-0.00308732
-0.782332
-0.717631
-0.134497
-0.711319
-0.709984
-0.840478
-0.644576
0.0176856
-0.296262
-0.133782
0.416798
-0.334477
0.0547506
0.589658
-0.327192
-0.104438
0.201953
-0.244465
-0.300992
-0.517686
-0.173786
-0.312944
-0.304371
-0.0040269
0.132117
0.49625
0.228906
0.438696
0.376081
0.342623
0.957875
0.365107
0.383219
0.578199
0.368785
-0.0917892
-0.411109
0.410472
-0.159513
0.462979
0.286311
-0.0440343
0.63929
0.0484379
0.294865
0.456603
0.0217857
0.895391
0.460376
0.126436
0.786994
0.22514
-0.0547182
0.381306
0.0504636
-0.163369
0.864942
-0.0480566
-0.110428
-0.082802
-0.887122
-0.0571892
-0.224201
-1.12672
0.018737
-0.0339032
-0.923177
0.0382249
-0.534324
-1.32758
0.116882
-0.962688
-1.60993
0.153436
-0.898448
-0.0462832
-0.414557
-2.71799
-0.221799
-0.378696
-2.70175
-0.476028
-0.237164
-2.55777
-0.333281
-0.599263
-3.47452
0.397212
-1.1478
-3.44884
-0.540517
-2.53669
-0.0562966
-2.14646
-0.246952
-2.14699
-0.573566
-2.14366
-0.602018
-2.3196
0.350201
-1.80456
-2.22258
-0.000533195
4.96587
-0.88032
-0.000390652
4.96909
-0.888584
2.10582e-05
4.96726
-0.885534
5.51462e-05
4.96697
-0.883962
0.000180291
4.96871
-0.886879
4.96653
-0.882935
-0.00125054
6.13649
-1.16937
-0.00014532
6.13505
-1.16707
0.000696316
6.13487
-1.16846
-0.000109062
6.13549
-1.16771
0.000254578
6.13558
-1.16723
6.13525
-1.16847
0.000366194
-0.469942
-0.000432369
-0.467854
-0.000280281
-0.46902
-0.000214736
-0.468753
-0.000623783
-0.468216
-0.469337
-0.00188381
0.612816
-1.6651
-0.000419153
0.60941
-1.67148
0.000240617
0.609939
-1.66879
-0.000161448
0.610752
-1.66718
0.000710946
0.609775
-1.67052
0.610121
-1.66598
-0.00571662
0.824464
-1.3753
-0.00165292
0.810539
-1.37226
-0.00170274
0.815558
-1.37403
-0.00140161
0.815617
-1.37288
0.00144585
0.811727
-1.37203
0.817151
-1.37405
-0.0068332
0.00518053
-0.00171864
0.00751787
-0.00208962
0.00652328
-0.00171038
0.00671087
0.00197949
0.00727914
0.00618547
-0.00087586
-0.906423
-1.46937
0.000834097
-0.910599
-1.47625
0.00158665
-0.908391
-1.47366
0.000589997
-0.909026
-1.47001
-0.00215716
-0.910671
-1.47083
-0.90836
-1.47211
-0.00203447
-1.63526
-0.644431
-0.000247422
-1.64034
-0.644308
-0.000643401
-1.63771
-0.644312
-0.000256379
-1.63829
-0.644001
0.000134906
-1.64006
-0.643026
-1.63745
-0.644832
-0.000846339
-0.0966093
-0.00011404
-0.0966802
-0.00014312
-0.0965695
-3.85857e-05
-0.0965397
0.000275835
-0.0964957
-0.0966533
-0.0137193
-1.75028
-1.65266
0.00325201
-1.74813
-1.69274
0.0112425
-1.74908
-1.68013
0.00223758
-1.75007
-1.65891
-0.0106561
-1.75162
-1.656
-1.74787
-1.68026
-0.00175297
-1.93091
-0.462048
0.000674942
-1.93006
-0.464805
0.000938589
-1.93058
-0.463081
0.000605505
-1.93074
-0.463
-0.00220909
-1.93148
-0.460346
-1.9301
-0.464813
-0.000538029
-0.139694
0.000202666
-0.140853
0.000344562
-0.140327
0.000235852
-0.140095
-0.000525962
-0.13973
-0.140643
-0.0319594
-1.45325
-2.18165
0.00551564
-1.44736
-2.29845
0.0223128
-1.44982
-2.26195
0.0055249
-1.45194
-2.2049
-0.0282747
-1.45777
-2.18474
-1.4443
-2.27251
-0.0180068
-1.09007
-0.807221
0.00380235
-1.08498
-0.848994
0.0111728
-1.08753
-0.832747
0.00282402
-1.08881
-0.81779
-0.0160581
-1.09212
-0.807118
-1.08511
-0.84006
-0.00201048
-0.107347
0.000522354
-0.112007
0.00101386
-0.110082
0.000541066
-0.109107
-0.00207871
-0.107994
-0.110892
-0.0246259
-1.47468
-3.29325
0.00225523
-1.43189
-3.46228
0.0101767
-1.44668
-3.4046
0.00416361
-1.46403
-3.33697
-0.0133896
-1.478
-3.30285
-1.43552
-3.42342
-0.0690647
-0.295691
-1.91714
0.00996492
-0.278614
-2.0813
0.0408702
-0.286
-2.02433
0.00915249
-0.290651
-1.95945
-0.0483414
-0.298425
-1.9292
-0.279889
-2.04403
-0.0138072
-0.169001
0.00163318
-0.207755
0.00653795
-0.193368
0.00115209
-0.180614
-0.0114454
-0.172419
-0.19963
0.042444
-0.243621
-4.47485
-0.00787822
-0.0909399
-4.60094
-0.0327187
-0.148246
-4.54728
-0.00466162
-0.196732
-4.52231
0.040084
-0.216481
-4.50188
-0.141026
-4.55488
-0.0476477
1.23678
-3.34989
0.00199814
1.32957
-3.55146
0.0118203
1.29527
-3.47766
0.0044543
1.26622
-3.41504
-0.00381898
1.2538
-3.3912
1.30158
-3.49045
-0.0540246
-0.750129
0.00360385
-0.86688
0.0252854
-0.827399
0.00357116
-0.783078
-0.0293753
-0.766836
-0.839829
0.0259103
3.28545
-4.61898
0.000186706
3.28077
-4.67899
-0.00960283
3.27523
-4.64494
-0.00145384
3.30041
-4.65305
0.0053539
3.33334
-4.65575
3.24654
-4.63897
0.0609994
3.40112
-3.52656
-0.0115517
3.42972
-3.62786
-0.0478964
3.41511
-3.5812
-0.010977
3.42476
-3.5763
0.0604372
3.45553
-3.5848
3.38917
-3.57264
0.0260214
-0.896926
-0.0112694
-1.00733
-0.0313834
-0.968021
-0.00946963
-0.93273
0.0524154
-0.930843
-0.970892
-0.0203396
4.38124
-4.16211
0.0035432
4.22701
-4.18737
0.0253095
4.28485
-4.17221
0.00235474
4.33887
-4.18081
-0.0467052
4.39308
-4.19235
4.25604
-4.16444
0.0613664
3.3588
-2.56548
-0.00847601
3.23962
-2.57062
-0.0186486
3.27471
-2.56088
-0.00893277
3.33811
-2.58525
0.0152727
3.39342
-2.60935
3.24055
-2.54188
0.0900562
-0.773351
-0.0176036
-0.806611
-0.0579154
-0.790635
-0.015051
-0.791056
0.0762641
-0.805764
-0.781938
-0.00222791
0.0414319
-3.45504
-0.0020568
-0.048455
-3.45087
0.00644011
-0.0121975
-3.44932
-0.000778355
0.00894541
-3.45948
-0.0202195
0.0205634
-3.46896
-0.00980328
-3.44289
-0.00676284
-0.635396
-1.88189
0.00263803
-0.776408
-1.85207
0.0231431
-0.736415
-1.85717
0.000938643
-0.672404
-1.8817
-0.0377388
-0.654287
-1.89582
-0.742109
-1.84731
0.00510535
-0.54228
-0.00366615
-0.535562
0.0159337
-0.533407
-0.00241498
-0.547089
-0.0211174
-0.554525
-0.528255
0.0157332
-3.11766
-2.3991
-0.0016407
-3.11104
-2.39399
-0.00729684
-3.11032
-2.39507
-0.00249023
-3.12178
-2.39824
0.018805
-3.1355
-2.40168
-3.09673
-2.39278
-0.0122807
-3.72623
-1.26104
0.00538625
-3.72028
-1.2605
0.0160897
-3.71892
-1.25927
0.00373608
-3.72968
-1.26145
-0.0234953
-3.74441
-1.25968
-3.70641
-1.26113
-0.00496284
-0.305548
0.00216704
-0.304549
0.0109416
-0.304281
0.00233276
-0.306499
-0.0192658
-0.306937
-0.304367
0.00854938
-2.88629
-1.444
-0.000781574
-2.87045
-1.44918
-0.0058234
-2.87654
-1.44715
-0.000435879
-2.88134
-1.4468
0.0151105
-2.88818
-1.44557
-2.87047
-1.4487
-0.00443868
-2.63523
-1.50766
0.000496923
-2.62886
-1.50702
0.00292361
-2.63049
-1.50774
0.000621488
-2.63449
-1.50599
-0.00338075
-2.6387
-1.50515
-2.62653
-1.50844
-0.00283989
-0.479905
0.000345029
-0.47859
0.00220382
-0.479532
-3.95912e-05
-0.479302
-0.00407049
-0.479656
-0.480187
-0.00583402
-0.938114
-0.602542
1.54649
-0.00710087
-0.944715
-0.604769
1.55075
-0.00951799
-0.931132
-0.607357
1.54091
-0.00757479
-0.788462
-0.57977
1.36629
0.00329268
-0.750724
-0.566791
1.30665
-0.826018
-0.589761
1.41907
-0.00823316
-0.940963
-0.0219089
0.0329913
-0.0180602
-0.947738
-0.0264625
0.0393114
-0.0216937
-0.93887
-0.0344495
0.0458198
-0.0083913
-0.840626
-0.0668883
0.105748
-0.00531794
-0.810195
-0.0742646
0.130661
-0.863841
-0.069221
0.101725
-0.0130783
-0.419458
0.143587
-0.0449631
-0.418506
0.15048
-0.0817366
-0.410474
0.153869
-0.0498962
-0.402173
0.196046
-0.00570278
-0.387109
0.197451
-0.390489
0.185031
-0.000587681
-0.397706
-0.204248
-0.000844434
-0.400932
-0.20358
3.6402e-05
-0.405572
-0.202665
0.000321662
-0.375055
-0.205001
-0.00117176
-0.360882
-0.204415
-0.387967
-0.202966
0.0123917
-0.574258
0.14225
0.0215262
-0.578141
0.141611
0.0284792
-0.583807
0.136831
0.0137494
-0.56406
0.136847
0.00861515
-0.560703
0.13069
-0.577853
0.129282
-0.00618018
-0.208771
-0.0150919
-0.207719
-0.0264687
-0.203238
-0.0189218
-0.190102
-0.00194131
-0.182319
-0.184298
-0.000801482
-0.212717
0.00927002
-0.000577861
-0.213355
0.00955116
0.000198508
-0.213122
0.00967995
-5.47419e-05
-0.21434
0.00959293
0.00026478
-0.214339
0.00960437
-0.212662
0.00996103
0.00182236
-0.477507
0.405218
0.00323411
-0.47789
0.404735
0.00206829
-0.478104
0.40298
0.00510898
-0.479607
0.399074
0.00491388
-0.481699
0.398247
-0.476625
0.39816
-0.00427613
0.0191509
-0.00853575
0.0199868
-0.011442
0.0222353
-0.00984085
0.0276885
-0.00431965
0.0311283
0.0307451
-6.29415e-05
-0.194678
0.204011
-0.000740408
-0.193083
0.203311
-0.00165049
-0.192302
0.202893
-4.93301e-05
-0.196175
0.204167
0.00157187
-0.196325
0.204308
-0.191353
0.202886
0.00109928
-0.549801
0.759243
0.00238749
-0.54906
0.759425
0.0022765
-0.548352
0.759141
0.0027848
-0.553525
0.755917
0.00493009
-0.555618
0.755397
-0.546708
0.758446
-0.00215001
0.281368
-0.00324492
0.282273
-0.00341327
0.283741
-0.00368843
0.284508
-0.0023152
0.28533
0.287897
-0.0010122
-0.361486
0.566509
-0.00106289
-0.363958
0.56732
-0.000877879
-0.364122
0.566829
-2.27413e-05
-0.364251
0.567563
0.000796579
-0.364215
0.567704
-0.363269
0.566952
0.00101193
-0.750448
1.14719
0.00146033
-0.75158
1.1466
0.000630787
-0.751234
1.14708
0.000962363
-0.753748
1.14508
0.00350616
-0.755596
1.14424
-0.749022
1.14771
-0.000456268
0.549076
-0.000956309
0.549252
-0.000964813
0.550073
-0.00145851
0.549625
-0.00167796
0.549531
0.552269
-0.000301233
-0.877188
-0.000788785
-0.881377
-0.000784089
-0.880329
2.83628e-05
-0.880046
0.0012433
-0.879081
-0.880503
0.000740337
-1.23839
0.000529842
-1.24159
5.5836e-05
-1.24051
0.000164376
-1.24106
0.00156301
-1.2414
-1.23967
0.000463411
-0.000194361
-9.01104e-05
-0.000692516
-0.00114059
-0.189241
4.77082
0.269122
-0.0833606
4.80694
0.0654132
-0.0235096
4.85744
-0.105667
-0.00468142
6.1421
-0.43346
0.176141
6.98563
-0.681749
4.52384
0.13323
-0.201007
5.48183
-0.510006
-0.330764
5.5614
-0.624709
-0.548268
5.66312
-0.588166
-0.204788
6.57734
-0.778718
0.426847
7.25944
-0.905445
5.47033
-0.519643
-0.309757
-2.24496
-0.619821
-2.30206
-0.861266
-2.20708
-0.454458
-2.13794
0.364788
-2.28862
-2.24423
0.772382
6.35895
-1.09013
0.99166
5.66855
-1.46529
0.621773
5.66772
-1.37275
-0.0841474
5.74162
-1.18353
-0.80572
6.64777
-1.34285
6.86595
-0.506153
0.656837
6.09914
-0.907041
0.685608
6.08095
-1.06588
0.0165278
6.35268
-0.604047
-1.38746
6.36495
0.00193904
-2.20128
6.7672
-0.211051
4.60689
-0.461867
0.053123
-0.753099
-0.197388
-0.813244
-0.51557
-0.542033
-1.37875
-0.0703629
-1.64046
-0.249465
-0.939973
0.395071
-0.660818
-1.22665
0.305525
-0.846873
-1.34216
0.180618
-0.742309
-1.2771
-0.321204
-0.0217255
-1.31558
-0.87492
-0.177506
-1.3097
-0.555433
-0.956121
-0.0715003
-0.384564
-1.11179
-0.678966
-0.164345
-1.14095
-0.640003
-0.479747
-0.90557
-0.195318
0.23976
-0.704231
0.0967845
0.0874939
-0.768153
-0.100314
-0.820202
-0.373827
-0.340746
-1.05713
-0.362243
-1.06205
-0.296053
0.0810365
-0.209359
0.923791
-0.207068
-0.293669
0.00807162
-2.10237
-0.737779
-0.101023
-2.08519
-0.716571
-0.0997501
-2.05922
-0.732293
-0.0609465
-2.37644
-0.805191
-0.142584
-2.35689
-0.714667
-1.92754
-0.681262
-0.0657868
-2.53941
-0.608968
-0.217784
-2.4936
-0.580537
-0.21736
-2.43749
-0.52773
-0.0441763
-2.68928
-0.564575
0.0159696
-2.67563
-0.509566
-2.28655
-0.445224
-0.00511629
-0.234958
-0.0288704
-0.229694
-0.0176052
-0.200824
-0.0214353
-0.200131
-0.02946
-0.19736
-0.181998
-0.00443554
-1.26714
-0.732061
0.0117391
-1.28793
-0.734485
0.0216921
-1.29873
-0.722446
-0.0387764
-1.26009
-0.728321
-0.0440648
-1.29698
-0.718259
-1.29027
-0.712182
-0.0178287
-1.35471
-0.503564
-0.02727
-1.36351
-0.495515
-0.0204805
-1.36246
-0.470789
-0.0500891
-1.32442
-0.470631
-0.0600856
-1.34544
-0.451115
-1.34406
-0.451515
-0.0100647
-0.174423
-0.0230965
-0.173674
-0.0225098
-0.167478
-0.0107748
-0.175995
-0.0118249
-0.170615
-0.160644
-0.0292875
-0.848865
-0.58547
-0.00464239
-0.838948
-0.591997
-0.00923547
-0.860762
-0.582099
-0.0443988
-0.855389
-0.555402
-0.0507038
-0.864828
-0.557112
-0.837239
-0.570223
-0.007037
-1.01337
-0.332026
-0.00029444
-1.01028
-0.330925
0.00139067
-1.01464
-0.318592
-0.0064077
-1.00805
-0.310168
-0.0183283
-1.0089
-0.295118
-1.00514
-0.301945
-0.00109003
-0.13062
-0.000560456
-0.130323
0.00074945
-0.127132
-0.00477788
-0.126954
-0.0080236
-0.125533
-0.123998
-0.0290478
-0.363157
-0.327048
0.080811
-0.341056
-0.306049
0.11045
-0.382496
-0.33368
-0.00537448
-0.429273
-0.311297
-0.100713
-0.460553
-0.314165
-0.373523
-0.301439
0.0128104
-0.595468
-0.112525
0.0459351
-0.594748
-0.110359
0.0534592
-0.603818
-0.104794
0.0269504
-0.615519
-0.0974147
-0.0215119
-0.619772
-0.0874374
-0.607586
-0.0893935
-0.00109172
-0.0900842
-0.000780413
-0.0900847
2.45335e-05
-0.0905265
-0.00326109
-0.0899074
-0.00490701
-0.0894361
-0.0897893
-0.0365127
-0.222344
0.160715
0.0608901
-0.214822
0.153996
0.237324
-0.233332
0.106439
0.0585365
-0.340506
0.116209
-0.137481
-0.40004
0.122382
-0.281532
0.128925
0.0336037
-0.597724
0.229251
0.0733759
-0.605226
0.240272
0.103245
-0.609909
0.241914
0.0662141
-0.63881
0.23792
-0.0108842
-0.649455
0.239077
-0.632472
0.250662
0.00213872
-0.0603003
0.00228186
-0.0607632
0.00833985
-0.0630607
0.00135139
-0.0636275
-0.00372843
-0.0637504
-0.0639958
-0.11947
-0.249233
0.577857
-0.1283
-0.253101
0.437715
0.143175
-0.236152
0.197554
-0.0169182
-0.297854
0.51944
-0.256991
-0.35459
0.553679
-0.293603
0.117482
0.0454053
-0.546739
0.481355
0.0631508
-0.55344
0.522869
0.0729717
-0.540277
0.536221
0.0604703
-0.563115
0.515686
0.0167535
-0.574221
0.502428
-0.54341
0.517224
-0.0122588
0.0367483
-0.019355
0.0322989
-0.00993944
0.0317056
-0.0130137
0.0283844
-0.0151774
0.0259437
0.0310541
0.0264173
-0.57243
0.236749
-0.0219982
-0.67965
0.039065
0.197922
-0.704171
-0.241372
-0.0460918
-0.655852
0.0917283
-0.357168
-0.697021
-0.0481459
-0.687612
-0.450521
0.101834
-0.915808
0.722901
0.114852
-0.950315
0.780518
0.0622221
-0.927086
0.811767
0.0629735
-0.965349
0.824433
0.0479612
-0.986062
0.806483
-0.95553
0.833104
-0.00496798
0.224617
-0.014234
0.2143
0.00439138
0.216782
0.00601897
0.208809
-0.00328821
0.204441
0.217923
0.145754
-1.6807
-0.946291
0.225657
-1.75521
-0.987372
0.282516
-1.73634
-1.11965
0.0245314
-1.90223
-1.22258
-0.0576879
-1.77772
-1.63705
-1.67925
-1.36565
0.0409202
-1.39815
0.399435
0.0563567
-1.42198
0.431849
0.0838851
-1.41504
0.462933
-0.0301501
-1.42539
0.461625
-0.0550715
-1.41945
0.473141
-1.38963
0.488417
-0.00796096
0.31892
-0.0232056
0.311996
-0.0329705
0.308359
-0.0177157
0.296126
-0.0171528
0.307149
0.304624
0.0277201
-1.57399
0.03152
-1.58741
-0.0624633
-1.62842
-0.10229
-2.13607
0.307215
-2.54447
-1.86194
0.12297
-1.26453
0.2888
-1.28208
0.448171
-1.27904
0.292893
-1.41342
-0.0635399
-1.58424
-1.33534
0.00529226
0.00546197
0.0034251
-0.00971306
-0.0332548
)
;

boundaryField
{
    seabed_topleft_surface
    {
        type            calculated;
        value           uniform 0;
    }
    seabed_topright_surface
    {
        type            calculated;
        value           uniform 0;
    }
    breakwater_top_surface
    {
        type            calculated;
        value           uniform 0;
    }
    breakwater_left_surface
    {
        type            calculated;
        value           uniform 0;
    }
    breakwater_right_surface
    {
        type            calculated;
        value           uniform 0;
    }
    water_front_surface
    {
        type            calculated;