/*--------------------------------*- C++ -*----------------------------------*\
| =========                 |                                                 |
| \\      /  F ield         | OpenFOAM: The Open Source CFD Toolbox           |
|  \\    /   O peration     | Version:  v1612+                                |
|   \\  /    A nd           | Web:      www.OpenFOAM.com                      |
|    \\/     M anipulation  |                                                 |
\*---------------------------------------------------------------------------*/
FoamFile
{
    version     2.0;
    format      ascii;
    class       volVectorField;
    location    "6";
    object      U;
}
// * * * * * * * * * * * * * * * * * * * * * * * * * * * * * * * * * * * * * //

dimensions      [0 1 -1 0 0 0 0];

internalField   nonuniform List<vector> 
1116
(
(-1.12371 -5.87488e-05 0.501384)
(-1.124 -3.03505e-05 0.501551)
(-1.12388 6.01963e-05 0.501502)
(-1.12382 -6.15642e-06 0.501479)
(-1.12389 3.50411e-06 0.50149)
(-1.12379 4.25987e-05 0.501437)
(-2.46107 -0.000109625 0.312181)
(-2.46146 -3.62082e-05 0.312176)
(-2.46126 6.6823e-05 0.31218)
(-2.46119 -2.41349e-05 0.312196)
(-2.4613 1.58589e-05 0.312191)
(-2.46117 3.6135e-05 0.312178)
(-2.77865 -5.49439e-05 0.205155)
(-2.77894 -3.55118e-06 0.205067)
(-2.77876 2.57608e-05 0.205097)
(-2.77871 -1.01666e-05 0.205133)
(-2.7788 3.89303e-06 0.205095)
(-2.77874 -3.20705e-06 0.205136)
(-2.88002 -4.08311e-05 0.101046)
(-2.88038 4.02556e-06 0.100978)
(-2.88015 1.29738e-05 0.101014)
(-2.88013 4.11356e-06 0.101058)
(-2.88022 -4.34149e-07 0.101003)
(-2.88014 -2.20988e-05 0.10104)
(-2.84264 -2.623e-06 -0.00582347)
(-2.84307 1.35233e-05 -0.00582893)
(-2.84281 -4.60723e-07 -0.0058142)
(-2.84285 3.51498e-05 -0.00574142)
(-2.84291 -1.26746e-05 -0.00578694)
(-2.84277 -5.28007e-05 -0.00581814)
(-2.6628 6.46339e-06 -0.0644247)
(-2.66323 -1.66395e-05 -0.0643541)
(-2.66299 6.84193e-05 -0.0643795)
(-2.66308 0.000121188 -0.064254)
(-2.66312 -8.61754e-05 -0.0642482)
(-2.6629 -0.000125832 -0.0644514)
(-2.40439 5.51878e-05 -0.103251)
(-2.40531 -7.29076e-05 -0.103186)
(-2.40494 0.000157635 -0.103214)
(-2.40478 0.000163454 -0.102979)
(-2.40481 -0.000145157 -0.102748)
(-2.40482 -5.94835e-05 -0.103498)
(-2.17168 0.00039404 -0.207164)
(-2.17294 -3.07088e-05 -0.207223)
(-2.17247 2.99394e-05 -0.207141)
(-2.17211 -0.000134431 -0.20687)
(-2.17242 2.57539e-06 -0.206167)
(-2.17219 0.000546157 -0.2079)
(-1.95219 0.000823813 -0.450559)
(-1.95212 0.000110694 -0.450669)
(-1.95218 -0.000145613 -0.450357)
(-1.95232 -0.000448282 -0.45047)
(-1.95457 0.000124941 -0.449242)
(-1.95045 0.00103809 -0.451741)
(-1.54329 0.00135258 -0.713127)
(-1.53968 0.000553385 -0.711914)
(-1.54063 -0.000567843 -0.711823)
(-1.54316 -0.00108989 -0.713319)
(-1.54855 0.00120579 -0.713336)
(-1.53667 0.00210135 -0.712301)
(-0.985101 0.000703795 -0.793569)
(-0.974749 0.000806742 -0.790597)
(-0.976093 -0.00081959 -0.790676)
(-0.985185 -0.00125188 -0.793866)
(-0.994019 0.00130864 -0.796241)
(-0.965529 0.000776663 -0.788576)
(-0.240533 -0.00146267 -0.216446)
(-0.232455 -0.000185628 -0.214266)
(-0.233953 0.000642469 -0.214823)
(-0.239933 0.00169346 -0.215892)
(-0.246801 -0.00102125 -0.218097)
(-0.229797 -0.0037696 -0.212675)
(-2.46577 0.000291754 3.30453)
(-2.46655 0.000202532 3.30453)
(-2.46613 -0.000134493 3.30455)
(-2.46616 4.18623e-05 3.30462)
(-2.46638 -7.77369e-05 3.30449)
(-2.46598 -0.000158523 3.30457)
(-3.6243 0.000140945 1.19007)
(-3.62467 8.82941e-05 1.18928)
(-3.62444 -8.33941e-05 1.18965)
(-3.62452 5.7267e-05 1.18976)
(-3.62459 -3.67956e-05 1.18951)
(-3.62437 -0.000114069 1.18986)
(-3.40674 0.000101449 0.280496)
(-3.40718 3.56014e-05 0.280356)
(-3.40695 -5.9339e-05 0.280419)
(-3.40701 6.32045e-05 0.280467)
(-3.40709 -3.32854e-05 0.280435)
(-3.40685 -7.68176e-05 0.280452)
(-2.92751 -0.000168226 -0.0522131)
(-2.92794 -0.00014271 -0.0521829)
(-2.92776 8.19705e-05 -0.0521913)
(-2.92775 -1.91005e-06 -0.0521299)
(-2.92782 6.26326e-05 -0.0520979)
(-2.92762 0.000127107 -0.0522719)
(-2.01378 -0.000336957 -0.308402)
(-2.0145 -0.000256205 -0.308236)
(-2.01423 0.000214286 -0.308326)
(-2.01411 -1.69847e-06 -0.308201)
(-2.01431 0.000137273 -0.308073)
(-2.01392 0.000268394 -0.308505)
(-0.918316 -0.00024606 -0.458767)
(-0.919738 -0.000182991 -0.458505)
(-0.919255 8.53857e-05 -0.458679)
(-0.918879 -0.000187845 -0.458456)
(-0.919417 0.000301573 -0.458247)
(-0.918627 0.000524815 -0.458908)
(0.197277 0.000326881 -0.492817)
(0.195557 0.000213444 -0.492352)
(0.196084 -0.000497545 -0.492617)
(0.196545 -0.00073333 -0.492384)
(0.195409 0.000648941 -0.492118)
(0.197274 0.00106961 -0.492876)
(1.06129 0.00067945 -0.409897)
(1.05968 0.000350927 -0.40932)
(1.06013 -0.000784772 -0.40955)
(1.0606 -0.00130911 -0.409474)
(1.05997 0.00117379 -0.409427)
(1.06112 0.00213276 -0.409491)
(1.84003 -0.00067342 -0.345971)
(1.84216 -0.000250241 -0.346336)
(1.84141 0.000423674 -0.346184)
(1.83996 0.000892542 -0.34577)
(1.8373 -0.000208533 -0.344595)
(1.84294 -0.000997001 -0.347156)
(0.723161 -0.00721346 -0.216056)
(0.718625 -0.0035273 -0.221292)
(0.723618 0.00543306 -0.219714)
(0.719424 0.0101074 -0.216581)
(0.730258 -0.0101524 -0.211015)
(0.720125 -0.0178835 -0.225399)
(0.614966 -0.00850531 -0.705105)
(0.564225 -0.00324299 -0.704288)
(0.57372 0.00551871 -0.703507)
(0.613802 0.0117456 -0.705454)
(0.663437 -0.00916227 -0.704927)
(0.519618 -0.0181254 -0.702612)
(-1.3691 0.00317931 -0.765495)
(-1.41756 0.00152685 -0.756389)
(-1.4084 -0.00268416 -0.758152)
(-1.37326 -0.00457572 -0.764599)
(-1.34413 0.00574896 -0.772372)
(-1.42544 0.0127575 -0.750706)
(-3.30371 0.000377776 4.83217)
(-3.3039 0.000268122 4.83503)
(-3.30371 -0.000172966 4.83391)
(-3.30379 6.59867e-05 4.83362)
(-3.30392 -9.00529e-05 4.83425)
(-3.30379 -0.000205394 4.83298)
(-3.25237 -0.000404118 0.91087)
(-3.25322 -0.000211897 0.91135)
(-3.25282 0.000258199 0.911181)
(-3.25284 -0.000215179 0.911089)
(-3.25305 8.40328e-05 0.911305)
(-3.25259 0.000366218 0.910921)
(-0.980605 -0.0016549 -0.113735)
(-0.982699 -0.000986824 -0.113225)
(-0.981925 0.000966969 -0.113501)
(-0.981533 -0.000338449 -0.113515)
(-0.982283 0.000382771 -0.113319)
(-0.980896 0.000965816 -0.113641)
(1.35344 -0.00331839 -1.86031)
(1.3488 -0.0017619 -1.86238)
(1.35098 0.00287094 -1.86168)
(1.35297 0.00061652 -1.86125)
(1.3512 0.000149105 -1.86202)
(1.3531 0.000657813 -1.86081)
(5.56996 -0.00850779 -2.93149)
(5.55624 -0.00425651 -2.93571)
(5.56064 0.00637392 -2.93437)
(5.56835 0.00286709 -2.93275)
(5.56489 -0.000493986 -2.93367)
(5.56388 -0.00116735 -2.93274)
(10.7146 0.0031686 -3.08681)
(10.672 0.0045447 -3.08824)
(10.6836 -0.00512249 -3.08717)
(10.7088 -0.00578782 -3.08814)
(10.7047 0.00430092 -3.08914)
(10.6884 0.00556409 -3.08525)
(13.4227 0.0206156 -2.40297)
(13.4366 0.0156094 -2.39406)
(13.4285 -0.019973 -2.3959)
(13.431 -0.0166783 -2.40264)
(13.4218 0.0100365 -2.40561)
(13.4324 0.0150957 -2.39468)
(14.3289 0.0188305 -0.675445)
(14.362 0.0118561 -0.673498)
(14.3432 -0.017623 -0.672349)
(14.3472 -0.0121333 -0.67662)
(14.3313 0.00740971 -0.678836)
(14.3602 0.0122524 -0.670367)
(6.88497 0.0114171 1.46986)
(6.96982 0.00839578 1.46757)
(6.96204 -0.0139735 1.46342)
(6.88004 -0.0268728 1.47228)
(6.85283 0.0338758 1.47304)
(6.9756 0.0524533 1.45851)
(-3.72333 -0.075568 1.52075)
(-3.55914 -0.0266258 1.4804)
(-3.58834 0.0430683 1.49121)
(-3.71974 0.0813724 1.51884)
(-3.91127 -0.0769459 1.54815)
(-3.38217 -0.14239 1.46549)
(1.63698 -0.0456192 1.02394)
(1.25819 -0.0182176 1.00178)
(1.33113 0.0330663 1.01041)
(1.61105 0.072574 1.01779)
(1.90215 -0.0532645 1.05576)
(0.971938 -0.0867286 0.980754)
(-2.04682 0.0535328 -0.0395083)
(-2.27894 0.0287284 -0.106029)
(-2.23658 -0.0414825 -0.0870659)
(-2.07882 -0.0729027 -0.0539611)
(-1.87556 0.0649146 -0.00188463)
(-2.29226 0.13332 -0.128643)
(-4.64573 -0.00187059 8.78012)
(-4.64566 -0.00109146 8.78354)
(-4.64568 0.000660609 8.78196)
(-4.64574 -0.000312951 8.78181)
(-4.64564 0.000396381 8.78271)
(-4.64586 0.000622608 8.78104)
(3.04384 -0.000473279 -0.028094)
(3.06521 -7.65956e-05 -0.0200907)
(3.05526 0.000359708 -0.0226396)
(3.05271 -0.00073642 -0.0238384)
(3.05923 1.82948e-05 -0.0232022)
(3.05068 0.000571637 -0.0247841)
(-2.12025 -0.00361881 -2.64631)
(-2.13599 -0.00181805 -2.65206)
(-2.13032 0.00214304 -2.65)
(-2.128 -0.000190298 -2.64961)
(-2.13248 0.000526168 -2.65145)
(-2.12358 0.000914608 -2.64839)
(0.428089 -0.0101286 -5.13974)
(0.405755 -0.00543649 -5.14598)
(0.414791 0.00950719 -5.14394)
(0.423993 0.00522764 -5.14242)
(0.418033 -0.00269616 -5.1449)
(0.421332 -0.00343643 -5.14009)
(-2.58818 -0.0217661 -5.7981)
(-2.67639 -0.0105681 -5.81383)
(-2.64976 0.0149708 -5.8081)
(-2.60204 0.0134346 -5.80183)
(-2.60837 -0.00832629 -5.80957)
(-2.6413 -0.0161591 -5.79744)
(-3.72627 0.000359358 -6.87634)
(-3.95439 0.00831381 -6.83183)
(-3.88771 -0.0107979 -6.84261)
(-3.76803 -0.00623534 -6.8703)
(-3.74409 0.00426804 -6.88484)
(-3.89845 0.00136968 -6.83115)
(-5.81685 0.0419879 -3.6696)
(-5.95738 0.0356692 -3.53756)
(-5.90333 -0.0419117 -3.58071)
(-5.86398 -0.0333975 -3.64031)
(-5.84177 0.0223471 -3.66645)
(-5.91845 0.03086 -3.57578)
(-3.25988 -0.00352755 6.23212)
(-3.2419 0.00748991 6.28394)
(-3.23538 -0.00108208 6.25563)
(-3.26575 -0.00207072 6.25547)
(-3.2775 0.00741919 6.24791)
(-3.2325 0.00175833 6.25353)
(-4.52844 -0.0244587 9.73053)
(-4.62011 -0.0119493 9.70251)
(-4.54151 0.0162991 9.73364)
(-4.60125 0.00820477 9.70546)
(-4.6181 0.000960763 9.69048)
(-4.49826 -0.000114301 9.76706)
(-7.29138 -0.00725422 0.864061)
(-7.31245 -0.006386 0.851876)
(-7.29088 0.00526693 0.875012)
(-7.31687 0.00274172 0.847751)
(-7.34089 -0.00292765 0.812034)
(-7.26318 0.00264305 0.927196)
(-4.92616 -0.000719742 -2.51316)
(-4.93423 -0.00272743 -2.56991)
(-4.92516 0.00252991 -2.54317)
(-4.93952 0.00373706 -2.53503)
(-4.95813 -0.00345141 -2.51797)
(-4.90753 -0.00200059 -2.54966)
(-2.37364 0.00667328 -2.33062)
(-2.38781 0.00375995 -2.38767)
(-2.3848 -0.00289812 -2.37412)
(-2.37874 -0.00228537 -2.34306)
(-2.37426 0.00379036 -2.30723)
(-2.39378 0.0038683 -2.40603)
(1.79223 -0.175498 0.791126)
(2.34239 0.0277151 0.794866)
(1.61078 -0.398532 1.09538)
(2.76144 -0.453809 0.204213)
(4.00499 0.589492 -0.232772)
(0.74219 1.53178 1.25274)
(4.694 -0.0387391 -0.976829)
(5.68967 0.12264 -1.46997)
(5.02335 0.306449 -1.30207)
(5.4942 0.593622 -1.30846)
(6.87437 0.285967 -1.64192)
(2.92038 0.378622 -0.168484)
(6.6829 -0.224792 -2.32714)
(7.82183 0.0198552 -2.84731)
(7.12516 -0.172662 -2.75342)
(7.67182 -0.147914 -2.48251)
(8.98265 -0.192378 -2.587)
(5.84343 -0.0480145 -1.86799)
(7.69954 -0.338224 -2.3327)
(9.34359 0.14333 -3.19828)
(7.8664 -0.189681 -2.635)
(8.75708 -0.0772427 -2.80308)
(9.67326 -0.0541818 -2.83345)
(7.11004 0.0875031 -2.54868)
(8.60866 -0.0499339 -2.70072)
(9.82216 0.209286 -3.43178)
(9.21524 0.0436168 -3.31984)
(9.03741 0.303824 -2.95694)
(9.29963 0.0721775 -2.57174)
(7.44432 0.068879 -2.67482)
(8.15666 0.128978 -2.72804)
(9.1725 0.193032 -3.3437)
(8.8549 -0.00622596 -3.65212)
(8.51446 0.494923 -2.87096)
(8.68678 0.112142 -2.17988)
(7.47574 -0.116145 -2.82681)
(7.68089 -0.0147467 -2.57086)
(8.33811 0.0696454 -3.22081)
(8.02807 -0.0898717 -3.71561)
(7.85403 0.45124 -2.7146)
(8.00879 0.13792 -1.73616)
(7.42368 -0.0798857 -2.8913)
(7.28716 -0.281489 -2.30263)
(7.77761 0.0295769 -3.23542)
(7.59976 -0.125539 -3.82143)
(7.30066 0.413562 -2.61332)
(7.16759 0.174731 -1.318)
(7.2962 -0.00524737 -2.91509)
(6.1948 -0.428238 -1.98972)
(6.90644 0.0370681 -3.33866)
(6.97884 -0.0616151 -3.96475)
(6.32935 0.677777 -2.65274)
(5.79027 0.1261 -1.03093)
(6.39888 -0.11577 -2.87174)
(3.89434 -0.428107 -1.94209)
(4.70942 0.0361683 -3.3941)
(5.13119 0.119759 -4.24428)
(4.30168 1.22656 -2.84098)
(3.41862 0.0997184 -0.935687)
(4.2469 -0.321809 -2.76446)
(0.990912 -0.230963 -1.78692)
(1.73109 0.0261904 -2.62903)
(2.70578 0.0988217 -4.03381)
(1.75629 1.38181 -2.50932)
(0.434255 0.369863 -0.679155)
(1.10258 -0.408199 -1.45622)
(-2.35939 -0.0652416 0.508885)
(-2.32337 -0.259763 0.223405)
(-2.03674 0.0876746 -0.175435)
(-2.13746 0.827462 0.530924)
(-2.43846 0.179564 0.249587)
(-2.68127 -0.0197478 1.98247)
(3.12594 -0.188313 5.08713)
(3.83194 0.0414534 5.87013)
(2.5512 -0.00830288 5.75297)
(4.58495 0.12282 4.4699)
(6.24894 0.592177 4.5267)
(0.723481 1.3125 6.11513)
(7.42016 -0.0819416 4.30565)
(8.12597 -0.124339 4.68845)
(7.46236 0.160582 4.43477)
(7.27254 0.728731 4.95152)
(7.99705 0.106145 4.77248)
(4.05606 0.353331 5.4968)
(7.87255 -0.0444468 3.88063)
(8.62818 -0.14896 4.47205)
(8.5169 -0.303452 4.31854)
(8.72868 0.413666 4.04997)
(9.54092 -0.422407 3.7522)
(7.09035 -0.507796 3.77798)
(5.63854 0.254949 4.16098)
(6.04389 -0.209022 3.69872)
(7.09782 -0.399221 5.15501)
(6.24093 0.136162 2.89038)
(4.4595 -0.812619 2.46396)
(5.44737 -0.112683 3.18713)
(2.07418 -0.00504961 2.15569)
(-0.394143 -0.374046 1.94405)
(5.50026 -0.960828 3.02263)
(0.726329 -1.58713 2.09556)
(2.66625 -0.165618 1.05363)
(3.29658 0.479409 2.588)
(-0.536561 -0.728997 -0.0394533)
(-0.940942 0.474156 1.28117)
(0.128089 -1.14014 0.773741)
(3.75074 -1.70251 0.729171)
(5.45552 -0.128207 1.78103)
(-0.624138 0.640392 2.23876)
(-0.259575 0.249093 1.05314)
(0.696471 0.544114 1.54863)
(-1.57659 0.206925 0.758717)
(3.7464 -0.620734 0.832088)
(6.25806 -0.327852 0.797456)
(1.91448 -0.025517 2.2816)
(5.59586 0.145541 1.69923)
(4.95913 0.243604 1.62521)
(3.53602 -0.627838 2.1337)
(4.73692 -0.832684 0.542242)
(6.72477 -0.0350643 -0.257743)
(6.81287 0.878822 2.49052)
(7.18307 -0.193431 -0.310256)
(6.40647 -0.0457988 -0.948226)
(5.60976 -0.838416 0.341022)
(6.62247 -0.770663 -1.0382)
(7.59994 0.078609 -1.11304)
(7.29787 1.03827 0.231835)
(6.13457 -0.174111 -4.15848)
(6.17363 0.111827 -5.15809)
(5.7817 -0.618037 -4.5114)
(6.19755 -0.292591 -3.56427)
(6.43754 -0.268148 -2.32324)
(5.8602 0.465313 -5.00706)
(4.12497 -0.14249 -3.96452)
(4.25509 0.270576 -4.41995)
(4.6755 -0.241134 -5.96869)
(3.95909 0.446316 -3.22957)
(3.94195 -0.653034 -1.40025)
(4.0857 -0.197481 -4.69086)
(-0.901914 0.0961519 1.25395)
(-0.124071 0.586588 0.600391)
(1.81277 0.410626 -2.37085)
(0.258099 1.18397 0.388695)
(-2.52067 -0.366009 2.74463)
(0.796443 -0.395288 -0.665823)
(2.18951 -0.494947 9.2139)
(2.34318 -0.229524 10.0311)
(1.3977 0.123227 8.96524)
(4.29191 0.360772 8.69103)
(6.29406 0.335836 9.35733)
(0.734007 0.843925 8.67778)
(-0.950976 -0.768588 7.87385)
(2.6956 -0.577374 6.36898)
(3.33165 0.136119 5.65092)
(3.16209 1.04846 6.59882)
(2.08159 0.654728 9.49913)
(-0.990828 0.628765 10.3956)
(2.98964 0.430374 -1.1102)
(2.62347 0.597041 -2.22471)
(2.6729 0.2996 -1.48245)
(2.51527 0.352039 -1.71487)
(3.59242 -0.176752 -2.93992)
(4.22417 -0.443552 0.43625)
(1.26446 0.0735687 -5.3274)
(1.38716 0.160727 -6.02065)
(1.57277 0.35246 -5.1292)
(1.41526 0.537985 -5.97201)
(1.23416 0.418831 -5.68506)
(1.42871 0.114659 -5.90988)
(1.82507 -0.0357666 -5.51882)
(2.04335 -0.0858652 -5.34512)
(1.70478 0.0492253 -5.52496)
(2.07665 0.124674 -4.85597)
(2.15987 -0.0301875 -4.43824)
(2.43113 -0.0116516 -4.93033)
(1.17734 -0.306987 -2.41072)
(1.03698 -0.231735 -1.46573)
(0.996356 -0.0697913 -2.66506)
(1.09198 -0.344713 -2.37121)
(1.35053 -0.474498 -2.5769)
(1.10554 -0.111256 -1.67986)
(0.512947 -0.0921859 1.34404)
(0.664796 0.221653 2.6282)
(0.22518 0.0921701 1.52178)
(0.873899 0.125778 -0.807192)
(0.910759 -0.624326 -2.3192)
(0.880638 -0.42529 2.75162)
(0.851252 0.219764 3.18138)
(1.28408 0.157851 3.44818)
(0.582684 -0.241757 3.90274)
(-0.593861 0.483154 0.110549)
(-0.424276 -0.452072 -2.712)
(2.69057 0.16332 3.79409)
(0.480955 0.0327257 0.245038)
(-0.113758 -0.253214 1.8274)
(0.798567 -0.536402 2.89201)
(0.757457 -0.172831 -1.24813)
(1.46853 0.204844 -4.20535)
(2.01115 0.540316 -0.731794)
(3.10328 -0.0529721 -5.28264)
(3.59629 -0.0510393 -5.36504)
(3.71476 -0.67019 -4.36903)
(4.38985 -0.980243 -6.13406)
(4.62263 -0.106029 -6.58107)
(3.58553 0.483813 -5.52019)
(3.61372 0.0338588 -5.91426)
(3.73548 0.382714 -6.12144)
(3.28381 -0.270755 -6.59526)
(3.92428 -0.859985 -6.28627)
(4.48975 -0.224573 -4.67877)
(4.27914 0.582293 -6.88067)
(2.23375 0.0294755 -2.7377)
(2.49515 0.405148 -3.25096)
(2.65504 -0.0166794 -4.28882)
(2.24738 -0.504945 -2.59657)
(-1.06278 -0.146216 4.0811)
(2.26518 0.56944 -3.54949)
(1.1975 -0.580028 9.28625)
(1.2835 -0.118444 9.65744)
(1.22071 0.0668351 9.09399)
(3.90539 0.333578 10.3654)
(5.61061 -0.0291209 11.4131)
(1.54273 0.745754 8.5735)
(-2.18502 -0.300226 10.3275)
(0.419076 0.232839 7.36111)
(0.983496 0.48277 6.77998)
(0.118874 1.12496 7.80336)
(-0.0208879 0.139162 9.45089)
(-2.5535 0.68765 12.9655)
(4.65271 0.363587 0.879801)
(5.1143 0.309495 0.15345)
(5.03167 -0.197852 0.150051)
(5.1111 -0.28665 0.332735)
(5.27039 -0.880512 0.316787)
(3.05775 -0.671128 1.25903)
(0.659297 0.04092 -0.986374)
(0.68793 0.0756838 -0.908014)
(0.852111 -0.103823 -0.818632)
(0.838883 -0.0595265 -1.42725)
(0.712075 -0.101737 -1.55159)
(0.894697 -0.121608 -1.00258)
(2.92508 -0.0200673 -1.05112)
(2.97803 -0.0126694 -1.12053)
(2.8895 -0.0154552 -1.059)
(2.94581 -0.133174 -1.06286)
(2.87099 -0.0480405 -1.23363)
(2.81288 0.0099711 -1.10696)
(1.90061 -0.0777487 -0.459579)
(1.89666 0.0684274 -0.282284)
(1.81241 0.15015 -0.379499)
(1.60307 0.0640102 -0.395461)
(1.45091 -0.0765775 -0.315224)
(1.71676 -0.171836 -0.144906)
(1.48114 -0.114386 0.317125)
(1.34896 0.167513 0.852141)
(1.3981 0.524779 0.503724)
(1.25017 0.605317 0.0203523)
(1.0949 -0.271386 0.0763057)
(1.1603 -0.569967 0.746009)
(-0.522763 0.046797 1.16873)
(-0.348907 0.250404 1.57265)
(-0.445411 0.566883 1.8686)
(-0.350972 1.09818 0.372902)
(-0.475435 -0.0849638 0.376611)
(-0.339056 -0.572031 1.64423)
(-1.64958 -0.0852664 0.549018)
(-1.4359 0.0450222 0.414605)
(-1.41889 0.525767 0.943844)
(-1.11428 0.987278 0.472642)
(-1.07538 0.547164 0.413728)
(-1.59017 0.0679685 0.667321)
(-0.228266 -0.00787512 -1.35422)
(0.3346 -0.154389 -1.76026)
(0.00488018 0.00607059 -0.700792)
(0.782731 0.0504948 -2.29742)
(1.412 0.0574153 -3.12018)
(-2.33411 0.0791151 -0.677226)
(1.62063 0.0251724 -6.0635)
(1.41618 -0.110059 -5.76337)
(0.724889 -0.299835 -5.31194)
(2.54755 -0.620321 -6.66113)
(4.0384 0.0455038 -6.03745)
(2.60821 0.574975 -6.20385)
(3.16393 -0.0227936 -4.2616)
(3.17726 -0.0749197 -4.34181)
(3.18925 -0.404491 -4.38251)
(2.89408 -0.810767 -4.19046)
(2.56793 -0.0588074 -2.79031)
(2.91353 0.529777 -4.1845)
(-5.25285 -0.00123623 8.60234)
(-5.25172 -0.000535165 8.58859)
(-5.25231 0.000391006 8.59343)
(-5.25246 -0.00036283 8.59614)
(-5.25197 0.000225541 8.59287)
(-5.25275 0.000374418 8.59746)
(-4.27384 -0.00163725 8.63151)
(-4.27242 -0.000946021 8.63609)
(-4.2735 0.000845088 8.63283)
(-4.27313 -5.80426e-05 8.63284)
(-4.2728 3.82082e-05 8.63567)
(-4.27378 0.000393964 8.632)
(-3.0236 -0.000332839 12.2672)
(-3.0229 5.54975e-05 12.2634)
(-3.02414 -0.000115416 12.2633)
(-3.02376 -0.000427879 12.264)
(-3.0236 -0.000335954 12.2642)
(-3.02446 -0.000250701 12.2635)
(0.044051 -0.00199875 -0.461706)
(0.0104837 -0.00129616 -0.469138)
(0.0231378 0.000407995 -0.466694)
(0.0299669 -0.000239116 -0.465618)
(0.0170633 0.000421023 -0.467688)
(0.0339262 0.000237589 -0.466502)
(-1.58031 -0.00562513 2.17309)
(-1.57161 -0.00370847 2.16953)
(-1.57673 0.000109564 2.16917)
(-1.57365 -0.00302035 2.17076)
(-1.57187 0.000595406 2.16934)
(-1.57639 0.00183676 2.16954)
(0.65659 -0.00750047 0.762076)
(0.665572 -0.00418222 0.713841)
(0.661465 0.000658346 0.732933)
(0.662264 -0.00416579 0.731788)
(0.664566 0.000940868 0.718438)
(0.660351 0.00257577 0.738857)
(-4.48868 -0.00242574 -0.842239)
(-4.48727 -0.00028244 -0.846338)
(-4.48708 0.0023133 -0.843363)
(-4.48697 0.00123902 -0.845337)
(-4.48779 -0.000792125 -0.84746)
(-4.48511 -0.00211601 -0.844113)
(-2.64353 -0.00217192 -2.73917)
(-2.64169 -0.00093353 -2.74839)
(-2.64271 0.000227686 -2.74372)
(-2.64166 -0.0010104 -2.74457)
(-2.64039 0.00022395 -2.74783)
(-2.64312 0.000283823 -2.74345)
(-0.473314 -0.000647529 -2.8345)
(-0.473103 -0.000436112 -2.84267)
(-0.472928 5.46537e-05 -2.83831)
(-0.472952 -0.000196999 -2.83937)
(-0.472993 0.000156343 -2.84216)
(-0.473159 0.000211712 -2.83779)
(-2.30143 -0.0137836 -2.93969)
(-2.32994 -0.00727611 -2.93459)
(-2.31973 0.0113038 -2.93664)
(-2.30531 0.00971907 -2.93922)
(-2.30728 -0.00633318 -2.94363)
(-2.31598 -0.0113914 -2.93205)
(-0.485364 -0.00143573 -3.54348)
(-0.487161 -0.000527416 -3.54147)
(-0.485926 0.00102298 -3.5426)
(-0.485437 0.00126418 -3.54335)
(-0.482272 -0.000807081 -3.54467)
(-0.487943 -0.00195476 -3.54214)
(-0.0803544 -0.000369079 -3.49387)
(-0.0809732 -0.000222629 -3.49264)
(-0.0805751 0.000361181 -3.49328)
(-0.0804398 0.000427948 -3.49348)
(-0.0802029 -0.00020562 -3.49427)
(-0.0807491 -0.000420513 -3.49265)
(-3.56898 -0.0330048 -2.60782)
(-3.69661 -0.0162148 -2.59355)
(-3.65799 0.022235 -2.59818)
(-3.58942 0.02216 -2.60508)
(-3.57732 -0.0153026 -2.61916)
(-3.66142 -0.029403 -2.58367)
(-1.17845 -0.0155387 -2.29483)
(-1.18849 -0.00872317 -2.288)
(-1.18242 0.0119616 -2.29203)
(-1.18281 0.0106978 -2.29312)
(-1.17552 -0.008118 -2.30041)
(-1.18698 -0.0142764 -2.28627)
(-0.349104 -0.0016321 -2.06717)
(-0.353482 -0.000802374 -2.0592)
(-0.351711 0.00114484 -2.06293)
(-0.350701 0.00125582 -2.06505)
(-0.349545 -0.000844471 -2.0687)
(-0.352757 -0.00177337 -2.06042)
(-5.21247 -0.0289556 -3.27978)
(-5.54214 -0.00932374 -3.16152)
(-5.43855 0.0110528 -3.19986)
(-5.28088 0.0115602 -3.251)
(-5.21506 -0.00587599 -3.28125)
(-5.47532 -0.0156452 -3.1794)
(-2.01163 -0.0638283 -1.25033)
(-2.1575 -0.0364249 -1.21693)
(-2.10356 0.0449965 -1.23147)
(-2.04644 0.0375397 -1.24088)
(-2.01544 -0.0269548 -1.2604)
(-2.12584 -0.0454334 -1.21332)
(-0.193869 -0.0107535 -0.358804)
(-0.208905 -0.00637064 -0.318764)
(-0.202467 0.00684693 -0.335885)
(-0.200108 0.00623701 -0.346913)
(-0.196593 -0.00557397 -0.361068)
(-0.204637 -0.00956782 -0.326748)
(-8.49056 0.0281802 -0.4761)
(-8.85557 0.0265594 -0.253803)
(-8.72061 -0.0315486 -0.334072)
(-8.60252 -0.0272783 -0.404906)
(-8.52485 0.0231621 -0.43655)
(-8.76163 0.0335027 -0.329416)
(-5.08786 -0.0404229 0.177644)
(-5.58113 -0.0208271 0.376283)
(-5.41334 0.0173166 0.304842)
(-5.21617 0.00939282 0.242737)
(-5.12849 -0.00291471 0.219864)
(-5.46876 -0.000116864 0.317193)
(-0.336973 -0.0507063 3.43392)
(-0.460287 -0.0291924 3.54259)
(-0.415692 0.030595 3.49972)
(-0.370088 0.0232435 3.46715)
(-0.345935 -0.0182497 3.4501)
(-0.436223 -0.0301634 3.50844)
(-9.31203 0.0164957 7.32351)
(-9.45021 0.0146972 7.29965)
(-9.3733 -0.0105791 7.29721)
(-9.38767 -0.00378526 7.33802)
(-9.38102 0.0017372 7.3789)
(-9.37158 0.00243392 7.2567)
(-7.82396 0.0632265 5.62379)
(-8.16069 0.0348258 5.62384)
(-8.0234 -0.0496662 5.6091)
(-7.9621 -0.0416662 5.6647)
(-7.94433 0.0290461 5.7528)
(-8.02521 0.0619249 5.53701)
(-2.20942 0.0236839 6.38784)
(-2.53666 0.0138861 6.53866)
(-2.42734 -0.0280027 6.48259)
(-2.30403 -0.0332573 6.44301)
(-2.26311 0.0242601 6.45416)
(-2.45555 0.0515245 6.47471)
(-8.82711 -0.0162707 9.76934)
(-8.92477 -0.0155883 9.52566)
(-8.86702 0.0206318 9.63146)
(-8.88907 0.0270573 9.68907)
(-8.91415 -0.0291027 9.76696)
(-8.83765 -0.0330357 9.5933)
(-7.34686 0.0592116 7.21352)
(-7.42661 0.0245909 6.85685)
(-7.3725 -0.0302867 6.97719)
(-7.41451 -0.0104506 7.12789)
(-7.46858 -0.00231124 7.26423)
(-7.33478 0.0211873 6.89671)
(-2.10332 0.0942143 5.7756)
(-2.24541 0.0440452 5.76944)
(-2.18794 -0.064079 5.75529)
(-2.16187 -0.0551656 5.79138)
(-2.19588 0.0356015 5.83654)
(-2.17113 0.0855992 5.73451)
(-8.74327 0.00582729 1.41079)
(-8.74069 -0.00742656 1.23121)
(-8.73644 0.00399983 1.31272)
(-8.75779 0.00620123 1.34757)
(-8.78291 -0.0144365 1.37937)
(-8.72403 -0.00395042 1.31515)
(-3.85414 0.00959401 -1.08062)
(-3.76846 -0.0120442 -1.3294)
(-3.78963 0.0111224 -1.22607)
(-3.85686 0.0261476 -1.16161)
(-3.90893 -0.0286495 -1.13628)
(-3.74937 -0.0196512 -1.22525)
(-1.19694 0.0169089 -1.44091)
(-1.18308 -0.0105935 -1.75149)
(-1.17646 0.0070562 -1.70486)
(-1.21207 0.0169021 -1.48929)
(-1.24153 -0.0242771 -1.46808)
(-1.15545 -0.00502086 -1.7121)
(-5.215 0.0127333 -5.72449)
(-5.19644 0.00776892 -5.74055)
(-5.19982 -0.00751076 -5.73848)
(-5.21139 -0.00869599 -5.73363)
(-5.22145 0.00865958 -5.73368)
(-5.19236 0.0150675 -5.73473)
(-2.41006 -0.00981499 -5.53752)
(-2.404 -0.00667605 -5.51834)
(-2.39771 0.0126813 -5.51353)
(-2.4127 0.0189459 -5.54624)
(-2.40738 -0.0141344 -5.5811)
(-2.40192 -0.0237702 -5.48152)
(-0.609806 -0.00379337 -7.33769)
(-0.60426 -0.00283174 -7.33891)
(-0.60223 0.00655353 -7.33584)
(-0.611962 0.0116772 -7.34454)
(-0.609583 -0.0101757 -7.36097)
(-0.604568 -0.016269 -7.32218)
(-4.05295 0.00672184 -3.96803)
(-4.06775 0.00458034 -3.95475)
(-4.06186 -0.00494042 -3.9641)
(-4.06018 -0.00694521 -3.96207)
(-4.05682 0.00776806 -3.97071)
(-4.06567 0.012643 -3.96016)
(-3.04195 -0.00429885 -6.20976)
(-3.04575 -0.00230672 -6.18014)
(-3.04451 0.00280929 -6.18903)
(-3.04271 0.00203065 -6.20253)
(-3.04035 -0.00161791 -6.21394)
(-3.04717 -0.00273028 -6.17685)
(-0.701276 -0.00249293 -4.46674)
(-0.701023 -0.00152085 -4.4668)
(-0.701296 0.00185055 -4.46502)
(-0.703102 0.00202074 -4.46948)
(-0.705295 -0.00233207 -4.4743)
(-0.700605 -0.00354495 -4.46068)
(1.99017 -0.00560832 0.552243)
(1.99859 -0.0135839 0.563764)
(2.01525 -0.0108282 0.572637)
(1.90438 -0.0130964 0.637841)
(1.84793 -0.00456374 0.522713)
(1.949 0.00917782 0.601437)
(0.503256 -0.00584379 -5.11676)
(0.541763 -0.0145789 -5.16893)
(0.580493 -0.0433587 -5.10793)
(0.767872 -0.0195986 -4.38891)
(0.803265 -0.00209993 -4.13236)
(0.764363 -0.0149716 -4.5517)
(0.799288 -0.00516136 -1.83113)
(0.803614 -0.036865 -1.81892)
(0.798545 -0.105502 -1.81365)
(0.838076 -0.116416 -1.88141)
(0.817631 -0.0338846 -1.87801)
(0.816104 0.00913977 -1.87467)
(0.615559 -0.000765918 -0.201395)
(0.615574 -0.000562569 -0.205666)
(0.610225 -0.0015981 -0.203447)
(0.609982 0.00134274 -0.198136)
(0.604832 8.12123e-05 -0.167341)
(0.605586 -0.0040257 -0.192968)
(-0.403396 0.0111215 -1.79388)
(-0.410147 0.0240531 -1.81028)
(-0.406447 0.0455876 -1.84133)
(-0.438362 0.028758 -1.68624)
(-0.419403 0.0128811 -1.65189)
(-0.418908 0.0190026 -1.76411)
(0.668101 -0.0049357 -2.27254)
(0.665557 -0.0140068 -2.27688)
(0.646578 -0.0334034 -2.27676)
(0.59948 -0.0403029 -2.291)
(0.577836 -0.011979 -2.28855)
(0.576112 0.00371703 -2.29874)
(0.227996 -0.000595657 0.197728)
(0.226367 -0.00138886 0.197074)
(0.22602 0.000204098 0.196348)
(0.225253 2.26763e-05 0.1974)
(0.225493 -3.72735e-05 0.19703)
(0.223558 0.00122829 0.191249)
(-0.254885 0.00160347 -1.25904)
(-0.25004 0.00335192 -1.26106)
(-0.23871 0.00488058 -1.26092)
(-0.218089 0.00375039 -1.27126)
(-0.214329 0.00824514 -1.27388)
(-0.206823 0.00842742 -1.25793)
(0.194662 -0.003323 -2.05653)
(0.192906 -0.00997867 -2.05724)
(0.187506 -0.0152156 -2.05562)
(0.169062 -0.0169158 -2.051)
(0.157906 -0.0112511 -2.05664)
(0.164277 -0.00312498 -2.0423)
(-0.274242 -0.000195955 0.251802)
(-0.27365 6.76411e-05 0.251165)
(-0.273731 -0.00239914 0.250719)
(-0.273236 -0.00249962 0.252912)
(-0.273649 0.00233734 0.256345)
(-0.27288 0.00245724 0.247229)
(-1.25005 0.000660833 -1.25384)
(-1.25046 0.00233663 -1.24553)
(-1.25017 0.00440831 -1.24119)
(-1.24452 0.00229242 -1.26781)
(-1.24313 0.00626511 -1.27369)
(-1.24949 0.00740918 -1.23577)
(-0.291259 -0.00176364 -2.40087)
(-0.293284 -0.00443738 -2.40218)
(-0.297354 -0.00491353 -2.40067)
(-0.301995 -0.00544779 -2.40205)
(-0.305526 -0.00498302 -2.40573)
(-0.309819 -0.00193446 -2.39043)
(-0.56153 -0.00119651 0.226655)
(-0.561501 -0.00125925 0.225424)
(-0.560647 -0.00172107 0.225242)
(-0.562668 -0.00162666 0.227222)
(-0.562547 0.00149224 0.230309)
(-0.561018 0.00167278 0.222604)
(-1.80736 0.000958823 -2.02682)
(-1.80806 0.00174412 -2.03636)
(-1.80803 0.00232207 -2.03641)
(-1.80394 -0.000286138 -2.0434)
(-1.80192 0.00345219 -2.04803)
(-1.80924 0.00591094 -2.02929)
(-0.89226 -0.000317756 -3.02445)
(-0.893706 -0.00135072 -3.02554)
(-0.895701 -0.0013535 -3.02406)
(-0.89521 -0.00136617 -3.0267)
(-0.895318 -0.00288165 -3.03054)
(-0.901561 -0.00199093 -3.01669)
(-1.81338 -0.000296773 1.03874)
(-1.81652 -0.000489567 1.04192)
(-1.81508 -0.00151169 1.03998)
(-1.81654 -0.00140638 1.04003)
(-1.81704 0.00157563 1.04044)
(-1.81529 0.00180464 1.03915)
(-2.96236 0.00118827 -5.26662)
(-2.95857 0.000911749 -5.28939)
(-2.96098 0.000703256 -5.28229)
(-2.95708 -0.000562137 -5.283)
(-2.9558 0.00109233 -5.27981)
(-2.9621 0.00307517 -5.28171)
(-1.15243 0.000759499 -3.4384)
(-1.15039 7.47061e-05 -3.43999)
(-1.15235 -0.00035081 -3.43947)
(-1.15141 4.40547e-05 -3.43973)
(-1.15151 -0.00186198 -3.44272)
(-1.15493 -0.00172387 -3.43544)
(1.91516 -0.372706 9.11121)
(1.99177 0.0201012 9.26322)
(2.52326 -0.18748 9.08098)
(4.64052 0.134369 11.2159)
(5.44794 -0.232772 12.8289)
(2.81867 0.738884 8.39825)
(3.56683 -0.299787 8.35105)
(3.6539 -0.0697309 8.35865)
(4.50422 -0.565448 8.76701)
(6.66434 -0.364783 11.2293)
(6.91178 -0.0306158 12.7226)
(4.26468 0.767342 8.29541)
(5.97885 -0.270137 14.3223)
(6.07011 -0.300184 14.5721)
(6.79384 -0.858298 14.4699)
(8.5739 -0.664136 14.9561)
(8.57704 -0.135958 15.7878)
(5.7672 0.731276 14.3798)
(-2.45408 0.175876 10.9333)
(-1.8648 1.02624 8.99174)
(-1.70715 0.688471 8.40744)
(-2.17518 0.672347 8.56773)
(-1.87213 -1.03417 10.477)
(-3.04284 0.0947138 13.3809)
(-1.64919 0.317609 12.1125)
(-1.22672 0.829029 11.5786)
(-2.11242 0.403351 12.3233)
(-3.26917 -0.383727 12.2344)
(-3.03613 -2.48668 13.917)
(-2.33756 -0.928545 11.7732)
(1.81625 0.201377 8.73686)
(1.98423 -0.0618105 9.24287)
(0.977985 -0.329798 9.52849)
(-0.890761 -0.517551 9.80108)
(-0.195256 -2.21907 9.50829)
(2.28232 -0.656102 3.41686)
(5.57958 0.229124 -2.07556)
(6.17131 0.437864 -2.74361)
(5.7444 0.058808 -2.65989)
(5.64334 0.222531 -2.50433)
(5.95318 -0.820361 -2.58975)
(4.37923 -0.535103 -1.57549)
(4.93282 -0.107159 -0.814738)
(5.09514 -0.0706921 -0.870722)
(4.17498 -1.04912 -0.489053)
(3.14897 -0.266564 2.36805)
(3.61696 -0.151907 1.76482)
(4.04677 0.442525 -0.782273)
(1.7349 -0.303956 -0.694773)
(1.82558 -0.493365 0.198479)
(1.60811 -1.38034 -1.26707)
(1.27526 -0.390614 -1.37428)
(1.24322 0.476204 -1.42572)
(1.657 1.14209 0.360354)
(0.146775 -0.0213387 -4.13952)
(0.0702496 0.0210635 -4.09943)
(0.179315 -0.164209 -4.01712)
(0.397754 -0.0639824 -4.58029)
(0.0984594 -0.0856759 -4.54238)