/*--------------------------------*- C++ -*----------------------------------*\
| =========                 |                                                 |
| \\      /  F ield         | OpenFOAM: The Open Source CFD Toolbox           |
|  \\    /   O peration     | Version:  v1612+                                |
|   \\  /    A nd           | Web:      www.OpenFOAM.com                      |
|    \\/     M anipulation  |                                                 |
\*---------------------------------------------------------------------------*/
FoamFile
{
    version     2.0;
    format      ascii;
    class       volScalarField;
    location    "0.4";
    object      alpha.water;
}
// * * * * * * * * * * * * * * * * * * * * * * * * * * * * * * * * * * * * * //

dimensions      [0 0 0 0 0 0 0];

internalField   nonuniform List<scalar> 
320
(
1
1
1
1
1.10853e-06
8.56009e-07
8.8343e-07
4.08408e-07
3.09928e-07
9.27053e-07
3.55986e-07
4.84508e-07
7.12639e-07
8.2073e-07
2.14191e-07
6.55255e-07
0.999997
0.999997
1
1
0.999997
1
1
0.999998
1
1
0.999997
1
1
1
1
1
1
1
1
1
1
1
1
1
1
1
1
1
1
1
1
1
1
1
1
1
1
1
1
1
6.67818e-07
4.39548e-07
5.37103e-07
4.40667e-07
6.85219e-07
6.42756e-07
3.33238e-07
8.25926e-07
8.50752e-07
1.14212e-06
1.04164e-06
9.84404e-07
7.15754e-07
5.61729e-07
6.87182e-07
5.04192e-07
4.11419e-07
5.25889e-07
8.65318e-07
6.08334e-07
1
1
1
1
1
1
1
1
1
0.999997
1
1
0.999998
0.999998
1
1
1
1
1
1
1
1
1
1
1
1
1
1
1
1
1
1
1
1
1
1
1
1
1
1
1
1
1
1
1
1
1
1
1
1
1
1
1
1
1
1
1
1
1
1
1
1
1
1
1
1
1
1
1
1
1
1
1
1
1
1
1
1
1
1
1
1
1
1
1
1
1
1
1
1
1
1
1
1
1
1
6.96375e-07
5.35359e-07
4.35554e-07
5.31995e-07
3.79808e-07
5.22804e-07
1.83274e-06
9.23547e-07
2.77938e-07
3.11396e-07
6.36169e-07
1.28804e-06
5.67808e-07
5.21118e-07
6.26435e-07
9.21594e-07
4.92419e-07
6.52693e-07
6.69842e-07
4.83208e-07
5.21381e-07
6.71638e-07
3.08565e-07
3.13079e-07
6.29006e-07
1.69848e-06
1.13081e-06
5.27075e-07
1
1
1
1
1
0.999998
0.999998
0.999998
1
1
1
0.999997
1
1
1
0.999998
1
0.999999
0.999999
1
1
0.999998
1
1
1
0.999998
0.999999
0.999997
1
1
1
1
1
1
1
1
1
1
1
1
1
1
1
1
1
1
1
1
1
1
1
1
1
1
1
1
1
1
1
1
1
1
1
1
1
1
1
1
1
1
1
1
1
1
1
1
1
1
1
1
1
1
1
1
1
1
1
1
1
1
1
1
1
1
1
1
1
1
1
1
1
1
1
1
1
1
1
1
1
1
1
1
5.4067e-07
5.03549e-07
7.51634e-07
3.3116e-07
1
1
0.999998
0.999998
)
;

boundaryField
{
    top_fluid_surface
    {
        type            inletOutlet;
        inletValue      uniform 0;
        value           nonuniform List<scalar> 
64
(
0
0
0
4.08408e-07
3.09928e-07
0
3.55986e-07
0
0
0
2.14191e-07
0
6.67818e-07
4.39548e-07
5.37103e-07
4.40667e-07
6.85219e-07
6.42756e-07
3.33238e-07
0
0
0
0
0
0
0
6.87182e-07
5.04192e-07
4.11419e-07
5.25889e-07
0
6.08334e-07
6.96375e-07
5.35359e-07
4.35554e-07
5.31995e-07
3.79808e-07
0
0
0
2.77938e-07
3.11396e-07
6.36169e-07
0
5.67808e-07
5.21118e-07
6.26435e-07
0
4.92419e-07
0
0
4.83208e-07
5.21381e-07
0
3.08565e-07
3.13079e-07
6.29006e-07
0
0
0
5.4067e-07
5.03549e-07
0
3.3116e-07
)
;
    }
    bottom_fluid_surface
    {
        type            zeroGradient;
    }
    lateral_surface_1
    {
        type            zeroGradient;
    }
    lateral_surface_2
    {
        type            zeroGradient;
    }
    lateral_surface_3
    {
        type            zeroGradient;
    }
    lateral_surface_4
    {
        type            zeroGradient;
    }
}


// ************************************************************************* //
