/*--------------------------------*- C++ -*----------------------------------*\
| =========                 |                                                 |
| \\      /  F ield         | OpenFOAM: The Open Source CFD Toolbox           |
|  \\    /   O peration     | Version:  v1612+                                |
|   \\  /    A nd           | Web:      www.OpenFOAM.com                      |
|    \\/     M anipulation  |                                                 |
\*---------------------------------------------------------------------------*/
FoamFile
{
    version     2.0;
    format      ascii;
    class       volScalarField;
    location    "2.75";
    object      alpha.water;
}
// * * * * * * * * * * * * * * * * * * * * * * * * * * * * * * * * * * * * * //

dimensions      [0 0 0 0 0 0 0];

internalField   nonuniform List<scalar> 
320
(
1
1
1
1
8.36959e-06
7.00935e-06
6.8424e-06
7.46677e-06
6.00497e-06
6.90194e-06
6.51913e-06
7.58575e-06
7.36076e-06
7.17357e-06
6.56723e-06
7.62102e-06
0.999989
0.999991
0.999991
0.999993
0.999996
0.999988
0.999993
0.999993
0.999987
0.999991
0.999995
0.999997
1
1
1
1
1
1
1
1
1
1
1
1
1
1
1
1
1
1
1
1
1
1
1
1
1
1
1
1
6.41111e-06
7.2357e-06
7.30355e-06
7.59588e-06
7.20785e-06
6.397e-06
6.47924e-06
5.38571e-06
6.6616e-06
8.43389e-06
7.23284e-06
5.72934e-06
7.113e-06
7.28521e-06
7.12968e-06
6.13479e-06
7.01674e-06
6.52313e-06
7.75584e-06
6.94232e-06
0.999998
0.999989
0.999991
0.999993
0.999996
0.999998
0.999994
1
0.999997
0.999992
0.999993
0.999997
0.999986
0.999996
0.999993
0.999994
0.999996
0.999997
0.999996
0.999994
1
1
1
1
1
1
1
1
1
1
1
1
1
1
1
1
1
1
1
1
1
1
1
1
1
1
1
1
1
1
1
1
1
1
1
1
1
1
1
1
1
1
1
1
1
1
1
1
1
1
1
1
1
1
1
1
1
1
1
1
1
1
1
1
1
1
1
1
1
1
1
1
1
1
1
1
7.29976e-06
5.16732e-06
7.20998e-06
5.54232e-06
6.75931e-06
6.60817e-06
6.66823e-06
8.13266e-06
6.02171e-06
5.36964e-06
7.9504e-06
9.36807e-06
6.47809e-06
6.35621e-06
7.4558e-06
5.89962e-06
7.5131e-06
6.23868e-06
6.75151e-06
7.89749e-06
9.63326e-06
7.403e-06
5.88253e-06
6.84292e-06
6.94649e-06
6.33154e-06
7.76508e-06
7.14554e-06
0.99999
0.999996
0.999988
0.999997
0.999997
0.999991
0.999989
0.99999
0.999994
0.99999
0.999988
0.999994
0.999999
0.999994
0.999991
0.999993
0.999992
0.999993
0.999989
0.999995
0.999993
0.999995
0.999996
0.999986
0.999992
0.999994
0.999993
0.999992
1
1
1
1
1
1
1
1
1
1
1
1
1
1
1
1
1
1
1
1
1
1
1
1
1
1
1
1
1
1
1
1
1
1
1
1
1
1
1
1
1
1
1
1
1
1
1
1
1
1
1
1
1
1
1
1
1
1
1
1
1
1
1
1
1
1
1
1
1
1
1
1
1
1
1
1
1
1
1
1
1
1
1
1
6.71833e-06
5.68788e-06
4.97575e-06
5.21478e-06
0.999992
0.999996
0.999997
0.999994
)
;

boundaryField
{
    top_fluid_surface
    {
        type            inletOutlet;
        inletValue      uniform 0;
        value           nonuniform List<scalar> 
64
(
0
0
0
0
6.00497e-06
0
6.51913e-06
0
0
0
6.56723e-06
0
6.41111e-06
0
0
0
0
6.397e-06
6.47924e-06
5.38571e-06
0
0
0
5.72934e-06
0
0
0
6.13479e-06
7.01674e-06
6.52313e-06
0
0
0
5.16732e-06
7.20998e-06
5.54232e-06
6.75931e-06
6.60817e-06
0
0
6.02171e-06
5.36964e-06
0
0
0
0
0
5.89962e-06
0
6.23868e-06
6.75151e-06
0
0
0
5.88253e-06
6.84292e-06
6.94649e-06
6.33154e-06
0
0
0
5.68788e-06
4.97575e-06
5.21478e-06
)
;
    }
    bottom_fluid_surface
    {
        type            zeroGradient;
    }
    lateral_surface_1
    {
        type            zeroGradient;
    }
    lateral_surface_2
    {
        type            zeroGradient;
    }
    lateral_surface_3
    {
        type            zeroGradient;
    }
    lateral_surface_4
    {
        type            zeroGradient;
    }
}


// ************************************************************************* //
