/*--------------------------------*- C++ -*----------------------------------*\
| =========                 |                                                 |
| \\      /  F ield         | OpenFOAM: The Open Source CFD Toolbox           |
|  \\    /   O peration     | Version:  v1612+                                |
|   \\  /    A nd           | Web:      www.OpenFOAM.com                      |
|    \\/     M anipulation  |                                                 |
\*---------------------------------------------------------------------------*/
FoamFile
{
    version     2.0;
    format      ascii;
    class       volScalarField;
    location    "2.75";
    object      p_rgh;
}
// * * * * * * * * * * * * * * * * * * * * * * * * * * * * * * * * * * * * * //

dimensions      [1 -1 -2 0 0 0 0];

internalField   nonuniform List<scalar> 
320
(
-9800.21
-9800.21
-9800.21
-9800.21
-0.00740703
-0.00112806
-0.000484245
-0.00248106
0.00379956
7.22351e-05
0.00229796
-0.00189696
-0.00134588
-0.000783995
0.00136295
-0.00340223
-9799.99
-9800.03
-9800.03
-9800.05
-9800.13
-9800.01
-9800.09
-9800.05
-9799.98
-9800.03
-9800.11
-9800.08
-9800.21
-9800.21
-9800.21
-9800.2
-9800.2
-9800.21
-9800.21
-9800.2
-9800.21
-9800.21
-9800.21
-9800.2
-9800.21
-9800.21
-9800.21
-9800.21
-9800.21
-9800.21
-9800.21
-9800.21
-9800.21
-9800.21
-9800.21
-9800.21
-9800.21
-9800.21
-9800.21
-9800.2
0.00269735
-0.002468
-0.00140021
-0.00376524
0.000823313
0.00186581
0.00185739
0.00658689
0.000686186
-0.00842785
-0.00182144
0.00663916
-0.000281996
-0.00060637
-1.20988e-05
0.00407511
0.000284123
0.00306317
-0.00279384
-0.000271655
-9800.15
-9800.01
-9800.02
-9800.07
-9800.07
-9800.14
-9800.11
-9800.18
-9800.09
-9800.02
-9800.05
-9800.14
-9799.98
-9800.07
-9800.05
-9800.11
-9800.11
-9800.13
-9800.08
-9800.06
-9800.2
-9800.21
-9800.21
-9800.21
-9800.2
-9800.2
-9800.21
-9800.2
-9800.2
-9800.2
-9800.2
-9800.2
-9800.21
-9800.19
-9800.2
-9800.21
-9800.21
-9800.2
-9800.2
-9800.2
-9800.2
-9800.21
-9800.2
-9800.21
-9800.2
-9800.21
-9800.21
-9800.2
-9800.2
-9800.2
-9800.2
-9800.2
-9800.21
-9800.2
-9800.2
-9800.21
-9800.21
-9800.21
-9800.2
-9800.2
-9800.21
-9800.21
-9800.21
-9800.21
-9800.21
-9800.21
-9800.21
-9800.21
-9800.21
-9800.21
-9800.21
-9800.21
-9800.21
-9800.21
-9800.21
-9800.2
-9800.2
-9800.21
-9800.21
-9800.21
-9800.21
-9800.21
-9800.21
-9800.21
-9800.2
-9800.2
-9800.21
-9800.2
-9800.21
-9800.2
-9800.2
-9800.21
-9800.21
-9800.21
-9800.2
-9800.2
-0.00192707
0.00821285
-0.00346405
0.00755858
0.00197521
0.00176062
0.00103902
-0.00581821
0.00313108
0.00653586
-0.00609991
-0.0134415
0.000595971
0.000809107
-0.00389378
0.00476572
-0.00190942
0.00427372
0.00259773
-0.00461701
-0.0129894
-0.00235852
0.00542681
0.000895152
0.000839038
0.00298517
-0.0041469
-0.00143925
-9800.01
-9800.15
-9800.07
-9800.14
-9800.13
-9800.07
-9800.02
-9800
-9800.11
-9800.08
-9799.98
-9800.02
-9800.11
-9800.07
-9800.02
-9800.1
-9800.03
-9800.09
-9800.05
-9800.06
-9800.01
-9800.07
-9800.14
-9800.02
-9800.08
-9800.11
-9800.04
-9800.04
-9800.21
-9800.21
-9800.23
-9800.21
-9800.2
-9800.21
-9800.21
-9800.21
-9800.21
-9800.22
-9800.21
-9800.2
-9800.19
-9800.2
-9800.2
-9800.21
-9800.2
-9800.21
-9800.21
-9800.2
-9800.2
-9800.2
-9800.21
-9800.22
-9800.21
-9800.21
-9800.2
-9800.21
-9800.21
-9800.21
-9800.21
-9800.21
-9800.21
-9800.21
-9800.21
-9800.21
-9800.21
-9800.22
-9800.21
-9800.2
-9800.19
-9800.2
-9800.2
-9800.21
-9800.2
-9800.21
-9800.21
-9800.2
-9800.2
-9800.2
-9800.21
-9800.22
-9800.21
-9800.21
-9800.2
-9800.2
-9800.21
-9800.2
-9800.21
-9800.21
-9800.21
-9800.21
-9800.21
-9800.21
-9800.21
-9800.21
-9800.21
-9800.21
-9800.2
-9800.2
-9800.2
-9800.21
-9800.21
-9800.21
-9800.21
-9800.2
-9800.2
-9800.2
-9800.21
-9800.21
-9800.21
-9800.21
-9800.2
-9800.21
0.0016605
0.00536213
0.0103587
0.00797538
-9800.04
-9800.13
-9800.15
-9800.12
)
;

boundaryField
{
    top_fluid_surface
    {
        type            totalPressure;
        rho             rho;
        psi             none;
        gamma           1;
        p0              uniform 0;
        value           nonuniform List<scalar> 
64
(
-1.17085e-08
-4.08454e-09
-1.35602e-09
-2.70236e-10
0
-1.13372e-10
0
-4.68238e-10
-1.3233e-09
-2.02601e-09
0
-3.78565e-10
0
-2.41402e-10
-3.64542e-09
0
-3.17891e-09
0
0
0
-4.22166e-10
-1.81994e-08
-2.49917e-10
0
-6.03741e-10
-2.18873e-10
-2.78522e-11
0
0
0
-4.09819e-10
-1.08626e-10
-2.0559e-09
0
0
0
0
0
-2.30089e-10
-9.30166e-09
0
0
-1.73373e-08
-4.68734e-08
-2.13421e-10
-3.50301e-11
-5.77096e-09
0
-5.01282e-09
0
0
-4.14916e-09
-3.9872e-08
-2.57811e-09
0
0
0
0
-7.77013e-09
-1.86937e-09
-2.78284e-09
0
0
0
)
;
    }
    bottom_fluid_surface
    {
        type            fixedFluxPressure;
        gradient        uniform 0;
        value           nonuniform List<scalar> 
64
(
-9800.21
-9800.21
-9800.21
-9800.21
-9800.21
-9800.21
-9800.21
-9800.21
-9800.21
-9800.21
-9800.21
-9800.21
-9800.21
-9800.21
-9800.21
-9800.2
-9800.2
-9800.21
-9800.21
-9800.21
-9800.21
-9800.21
-9800.21
-9800.21
-9800.2
-9800.2
-9800.21
-9800.2
-9800.21
-9800.2
-9800.2
-9800.21
-9800.21
-9800.21
-9800.2
-9800.2
-9800.21
-9800.2
-9800.21
-9800.21
-9800.21
-9800.21
-9800.21
-9800.21
-9800.21
-9800.21
-9800.21
-9800.21
-9800.2
-9800.2
-9800.2
-9800.21
-9800.21
-9800.21
-9800.21
-9800.2
-9800.2
-9800.2
-9800.21
-9800.21
-9800.21
-9800.21
-9800.2
-9800.21
)
;
    }
    lateral_surface_1
    {
        type            fixedFluxPressure;
        gradient        uniform 0;
        value           nonuniform List<scalar> 
40
(
-0.00192707
0.00821285
-0.00346405
0.00755858
0.00197521
0.00176062
0.00103902
-0.00143925
-9800.01
-9800.15
-9800.07
-9800.14
-9800.13
-9800.07
-9800.02
-9800.04
-9800.21
-9800.21
-9800.23
-9800.21
-9800.2
-9800.21
-9800.21
-9800.21
-9800.21
-9800.21
-9800.21
-9800.21
-9800.21
-9800.21
-9800.21
-9800.2
-9800.21
-9800.2
-9800.21
-9800.21
-9800.21
-9800.21
-9800.21
-9800.21
)
;
    }
    lateral_surface_2
    {
        type            fixedFluxPressure;
        gradient        uniform 0;
        value           nonuniform List<scalar> 
40
(
0.000809107
-0.00389378
0.00476572
-0.00190942
0.00427372
0.00259773
-0.00461701
-0.0129894
-9800.07
-9800.02
-9800.1
-9800.03
-9800.09
-9800.05
-9800.06
-9800.01
-9800.2
-9800.2
-9800.21
-9800.2
-9800.21
-9800.21
-9800.2
-9800.2
-9800.2
-9800.2
-9800.21
-9800.2
-9800.21
-9800.21
-9800.2
-9800.2
-9800.2
-9800.2
-9800.21
-9800.21
-9800.21
-9800.21
-9800.2
-9800.2
)
;
    }
    lateral_surface_3
    {
        type            fixedFluxPressure;
        gradient        uniform 0;
        value           nonuniform List<scalar> 
40
(
0.00103902
-0.00581821
0.00313108
0.00653586
-0.00609991
-0.0134415
0.000595971
0.000809107
-9800.02
-9800
-9800.11
-9800.08
-9799.98
-9800.02
-9800.11
-9800.07
-9800.21
-9800.21
-9800.21
-9800.22
-9800.21
-9800.2
-9800.19
-9800.2
-9800.21
-9800.21
-9800.21
-9800.22
-9800.21
-9800.2
-9800.19
-9800.2
-9800.21
-9800.21
-9800.21
-9800.21
-9800.21
-9800.21
-9800.2
-9800.2
)
;
    }
    lateral_surface_4
    {
        type            fixedFluxPressure;
        gradient        uniform 0;
        value           nonuniform List<scalar> 
40
(
-0.0129894
-0.00235852
0.00542681
0.000895152
0.000839038
0.00298517
-0.0041469
-0.00143925
-9800.01
-9800.07
-9800.14
-9800.02
-9800.08
-9800.11
-9800.04
-9800.04
-9800.2
-9800.2
-9800.21
-9800.22
-9800.21
-9800.21
-9800.2
-9800.21
-9800.2
-9800.2
-9800.21
-9800.22
-9800.21
-9800.21
-9800.2
-9800.2
-9800.2
-9800.2
-9800.21
-9800.21
-9800.21
-9800.21
-9800.2
-9800.21
)
;
    }
}


// ************************************************************************* //
