/*--------------------------------*- C++ -*----------------------------------*\
| =========                 |                                                 |
| \\      /  F ield         | OpenFOAM: The Open Source CFD Toolbox           |
|  \\    /   O peration     | Version:  v1612+                                |
|   \\  /    A nd           | Web:      www.OpenFOAM.com                      |
|    \\/     M anipulation  |                                                 |
\*---------------------------------------------------------------------------*/
FoamFile
{
    version     2.0;
    format      ascii;
    class       volScalarField;
    location    "5.55";
    object      alpha.water;
}
// * * * * * * * * * * * * * * * * * * * * * * * * * * * * * * * * * * * * * //

dimensions      [0 0 0 0 0 0 0];

internalField   nonuniform List<scalar> 
1116
(
0.363202
0.363194
0.363196
0.363197
0.363196
0.363197
0.367372
0.367349
0.367356
0.36736
0.367356
0.367366
0.634525
0.634498
0.634507
0.634509
0.634502
0.63452
0.970508
0.970507
0.970506
0.970506
0.970505
0.970508
0.974875
0.974875
0.974875
0.974875
0.974875
0.974875
0.974875
0.974875
0.974875
0.974875
0.974874
0.974874
0.974806
0.974806
0.974806
0.974806
0.974806
0.974806
0.974151
0.974153
0.974152
0.974152
0.974152
0.974152
0.971318
0.971327
0.971325
0.97132
0.971318
0.971325
0.968038
0.968052
0.968049
0.968039
0.968035
0.968051
0.965958
0.965972
0.965968
0.96596
0.965959
0.965967
0.962837
0.962848
0.962844
0.962839
0.962841
0.962839
0.0274141
0.0273649
0.0273917
0.0273904
0.0273761
0.0273982
0.133855
0.133823
0.13384
0.133832
0.133824
0.133848
0.630554
0.630692
0.63063
0.630605
0.630644
0.630596
0.952163
0.952246
0.952211
0.952199
0.952224
0.952186
0.965718
0.965733
0.965729
0.965725
0.96573
0.965722
0.913659
0.913718
0.913702
0.913685
0.913704
0.913671
0.782111
0.78224
0.782204
0.782164
0.782208
0.782129
0.602044
0.602151
0.602129
0.602057
0.602064
0.602075
0.479129
0.479263
0.479235
0.479102
0.47898
0.479328
0.456513
0.456643
0.456618
0.456449
0.456262
0.45682
0.540136
0.539718
0.539758
0.540133
0.540439
0.539405
0.486928
0.486583
0.486616
0.486939
0.486993
0.486407
0.00212496
0.00214313
0.00213466
0.00213437
0.00213884
0.00213073
0.0824588
0.0826077
0.0825455
0.0825265
0.0825578
0.0825029
0.242662
0.242798
0.242756
0.242725
0.242755
0.242709
0.260993
0.261047
0.261044
0.261018
0.261032
0.261019
0.235185
0.235216
0.235221
0.235195
0.235201
0.235203
0.153973
0.153991
0.153994
0.153971
0.153968
0.153983
0.0602301
0.0602408
0.0602455
0.0602173
0.0602041
0.0602419
8.69372e-07
8.70332e-07
8.70208e-07
8.69221e-07
8.68028e-07
8.72172e-07
2.81011e-06
3.12976e-06
3.06864e-06
2.83576e-06
2.65976e-06
3.23817e-06
3.43717e-05
3.44407e-05
3.44657e-05
3.39226e-05
3.40512e-05
3.43294e-05
0.0233257
0.0229599
0.0229554
0.0233208
0.0234955
0.0228136
0.0178606
0.0178568
0.0178529
0.0178459
0.0178405
0.0178405
0.00176709
0.00178693
0.00177758
0.00177732
0.00178227
0.00177334
0.00564389
0.00566251
0.00565552
0.00565176
0.00565604
0.00564856
7.79924e-07
7.78259e-07
7.78716e-07
7.79358e-07
7.79176e-07
7.79423e-07
7.70777e-07
7.69149e-07
7.69609e-07
7.70195e-07
7.70007e-07
7.70289e-07
7.77643e-07
7.78259e-07
7.77448e-07
7.78896e-07
7.78847e-07
7.78109e-07
7.8741e-07
7.85705e-07
7.86157e-07
7.86857e-07
7.86687e-07
7.86884e-07
8.11702e-07
8.09674e-07
8.10195e-07
8.11181e-07
8.11425e-07
8.10801e-07
8.33408e-07
8.31494e-07
8.3199e-07
8.32935e-07
8.33277e-07
8.32637e-07
8.72393e-07
8.72962e-07
8.72927e-07
8.72183e-07
8.71134e-07
8.7471e-07
2.80366e-06
3.12162e-06
3.06062e-06
2.82897e-06
2.65369e-06
3.22846e-06
0.00184006
0.00228704
0.00220868
0.00187818
0.00162454
0.00244817
0.041892
0.0424457
0.0423257
0.0419045
0.0414881
0.0426519
0.0455712
0.0457488
0.0458201
0.0458201
0.0426148
0.047179
0.027576
0.0249759
0.0334041
0.0389786
0.0395801
0.047179
0.047122
0.0466364
0.0237233
0.0528468
0.0792968
0.0284103
0.0822368
0.0822368
0.0821597
0.0816848
0.0807876
0.0402192
0.081895
0.0819642
0.0813616
0.0807381
0.0630672
0.0782514
0.0752823
0.0782451
0.0766954
0.0769376
0.079181
0.0788951
0.0824423
0.0856739
0.0799983
0.0864793
0.0930569
0.0791828
0.0894554
0.0902094
0.0904896
0.0929915
0.0930099
0.0915791
0.0918503
0.0928708
0.0935921
0.0935765
0.0930322
0.0924528
0.0931928
0.0939343
0.0939807
0.0939755
0.0935919
0.0670798
0.085024
0.0939807
0.0939799
0.0939807
0.0939775
0.0599658
0.00993123
0.0157156
0.0161049
0.0219678
0.0444954
0.0204605
0.0453767
0.0455154
0.0457488
0.0453707
0.0432027
0.047179
0.00128578
0.00107079
0.00197417
8.97489e-05
8.40128e-05
0.00355087
0.00357005
0.00369323
0.00280831
0.00377046
0.0031149
0.00312111
0.000379616
0.000337309
0.000665107
0.00036073
0.000271441
0.00104541
7.52912e-10
1.35771e-09
5.90209e-09
9.55342e-10
4.01999e-09
9.47833e-10
5.92091e-10
1.05491e-08
2.33458e-09
2.14749e-09
1.08847e-07
1.78293e-09
4.70109e-09
2.98936e-07
5.86758e-08
4.29672e-08
0.000392407
2.46962e-08
0.00117241
7.87706e-06
3.21716e-06
5.08057e-05
0.00421708
5.47314e-07
0.0298266
0.0187517
0.0194025
0.0199866
0.00899283
0.00783656
0.0525565
0.0672486
0.079914
0.0714772
0.0273883
0.0671473
0.056608
0.0938201
0.0939807
0.0939771
0.0475338
0.0930384
0.00636891
0.00637476
0.0448763
0.0147795
0.0105191
0.0213558
0.0441147
0.0440627
0.0442945
0.0402664
0.0345444
0.0430786
1.47019e-05
1.43384e-05
1.51805e-05
8.79431e-06
8.04673e-06
1.39073e-05
-5.19007e-09
-7.21148e-09
-1.89146e-08
-1.80026e-09
5.33968e-09
-8.92256e-10
7.51775e-10
1.35102e-09
2.29871e-09
9.54674e-10
2.69064e-09
9.43761e-10
6.32546e-10
5.98041e-10
8.96457e-09
4.71421e-10
4.12778e-10
3.81732e-10
4.09353e-10
3.80997e-10
3.73154e-10
3.44787e-10
2.50915e-10
3.47272e-10
3.53051e-10
8.06405e-11
3.01198e-10
2.66046e-10
-2.13124e-08
2.85221e-10
2.7564e-10
-6.87416e-09
-3.87714e-09
-1.42601e-09
-1.06998e-08
-3.69854e-11
1.73418e-07
5.74051e-07
-9.08594e-09
2.25662e-07
3.59445e-06
-1.87765e-09
2.11404e-05
2.45509e-05
1.69331e-05
1.90422e-05
0.00482057
2.68727e-05
0.0583641
0.0647765
0.0858421
0.043471
0.0314087
0.0931878
0.115171
0.124953
0.124954
0.0466345
0.00721019
0.1179
0.028987
0.0267644
0.0254124
0.0209382
0.0114521
0.0279441
1.64054e-06
1.64441e-06
1.69816e-06
7.07489e-07
2.58671e-07
1.03756e-06
1.6904e-08
2.51734e-08
2.0428e-08
4.78259e-08
5.43139e-08
5.76864e-08
4.16924e-09
1.71064e-08
6.92413e-09
6.9865e-08
5.97649e-08
6.67386e-08
4.10756e-09
8.10727e-09
8.74746e-09
3.44853e-10
3.02901e-10
3.45056e-10
4.2488e-10
3.40113e-10
3.42635e-10
3.08987e-10
2.9623e-10
3.25445e-10
3.48173e-10
3.20579e-10
3.04898e-10
2.98619e-10
2.99406e-10
2.97905e-10
3.08777e-10
9.53823e-11
2.76449e-10
2.55897e-10
2.55547e-10
2.81477e-10
1.93021e-10
2.04169e-10
1.68019e-10
1.57774e-10
-1.12638e-10
9.9564e-11
3.204e-07
6.09997e-07
2.14377e-09
1.18714e-06
3.58059e-06
3.47777e-09
0.00826983
0.00620285
0.000868444
0.0136929
0.0184233
0.00504705
0.123073
0.124614
0.124956
0.123509
0.121378
0.119631
0.00023691
0.000242972
0.000239831
0.00024018
0.00024183
0.000238793
6.92668e-06
6.96389e-06
6.9434e-06
6.94774e-06
6.95822e-06
6.93807e-06
4.16094e-06
4.15275e-06
4.15289e-06
4.15859e-06
4.15752e-06
4.15703e-06
0.00059173
0.000594813
0.000591417
0.000595069
0.000596271
0.000592825
1.24777e-06
1.24375e-06
1.24466e-06
1.24623e-06
1.24547e-06
1.24605e-06
1.42215e-06
1.42252e-06
1.42066e-06
1.42258e-06
1.42306e-06
1.42214e-06
0.000559465
0.000556917
0.000557892
0.000558195
0.000557461
0.00055849
7.63272e-07
7.62469e-07
7.627e-07
7.63205e-07
7.6327e-07
7.63435e-07
1.3626e-06
1.36263e-06
1.36102e-06
1.36275e-06
1.36314e-06
1.36244e-06
7.63272e-07
7.627e-07
7.627e-07
7.63205e-07
7.63375e-07
7.63435e-07
7.6481e-07
7.63262e-07
7.63727e-07
7.64222e-07
7.64032e-07
7.64379e-07
1.86493e-07
1.86888e-07
1.86879e-07
1.86229e-07
1.86361e-07
1.86463e-07
7.57827e-07
7.60584e-07
7.58033e-07
7.60282e-07
7.60372e-07
7.58649e-07
7.42766e-07
7.46437e-07
7.43557e-07
7.45769e-07
7.45881e-07
7.44179e-07
2.12889e-18
2.12591e-18
2.13218e-18
2.12024e-18
2.12026e-18
2.12644e-18
1.49797e-06
1.48046e-06
1.4851e-06
1.49766e-06
1.51785e-06
1.4788e-06
4.88761e-06
4.89096e-06
4.88904e-06
4.88973e-06
4.88868e-06
4.88883e-06
2.72586e-21
2.74184e-21
2.73762e-21
2.72412e-21
2.72584e-21
2.72999e-21
8.77482e-07
8.73743e-07
8.74893e-07
8.76991e-07
8.77827e-07
8.74294e-07
5.03466e-06
5.03454e-06
5.03454e-06
5.03454e-06
5.03434e-06
5.03425e-06
1.23217e-06
1.24582e-06
1.23976e-06
1.24094e-06
1.24969e-06
1.23007e-06
8.63431e-07
8.63274e-07
8.63267e-07
8.63361e-07
8.63023e-07
8.64512e-07
9.61193e-07
9.58506e-07
9.58364e-07
9.68489e-07
9.73025e-07
9.59733e-07
1.00983e-06
1.00983e-06
1.00995e-06
1.01008e-06
1.01016e-06
1.01024e-06
3.21027e-06
3.39495e-06
3.35576e-06
3.22159e-06
3.10746e-06
3.44866e-06
1.04295e-05
1.21472e-05
1.1514e-05
9.95017e-06
8.99658e-06
1.25578e-05
5.88846e-06
6.15775e-06
6.05492e-06
5.87848e-06
5.7348e-06
6.2422e-06
1.80781e-05
1.91851e-05
1.89324e-05
1.81899e-05
1.75166e-05
1.94596e-05
0.000918368
0.000931657
0.00092473
0.000912056
0.000906686
0.000929695
0.000366796
0.00036881
0.000368095
0.000366438
0.000364743
0.000369862
0.000223744
0.000242578
0.00023988
0.000220806
0.000205114
0.000253673
0.00147646
0.00147444
0.00147931
0.0014841
0.00148444
0.00147977
3.26197e-19
3.20385e-19
3.25081e-19
3.20354e-19
3.17687e-19
3.27885e-19
0.0602617
0.0602793
0.0602889
0.0601793
0.060055
0.0603759
6.18334e-22
6.22569e-22
6.05629e-22
6.35275e-22
6.52218e-22
5.97158e-22
9.57374e-07
9.44231e-07
9.46599e-07
9.65495e-07
9.92138e-07
9.17857e-07
0.145191
0.145235
0.145298
0.145415
0.145424
0.145352
-1.78033e-15
-1.39064e-15
5.14337e-30
7.59455e-20
5.10787e-31
-1.31901e-16
-1.80712e-25
2.30017e-31
8.38597e-28
6.04143e-26
1.83414e-16
3.60609e-26
0.145427
0.145486
0.145557
0.145589
0.145588
0.145569
-4.90165e-15
-3.70479e-15
6.78547e-28
8.27531e-11
-3.79642e-16
-5.9019e-16
-3.44162e-25
-1.63172e-25
-6.52477e-25
-2.60987e-25
-2.04905e-25
-2.53715e-25
0.142622
0.14259
0.142543
0.14284
0.142883
0.142503
-1.27268e-14
-1.03552e-14
-1.90697e-14
-2.03482e-15
-1.20575e-13
-3.93829e-15
-4.05526e-25
-3.80946e-25
-4.11056e-25
-3.55074e-25
-6.71403e-25
-2.36774e-25
0.13037
0.130385
0.130326
0.13064
0.130693
0.130204
-1.62617e-15
-1.3299e-15
-2.6603e-15
-9.95109e-16
-1.56185e-14
-4.97765e-16
-5.50477e-25
-6.50496e-25
-7.12047e-25
-6.80817e-25
-7.27245e-25
-5.15319e-25
0.123309
0.123303
0.123273
0.123432
0.123428
0.123208
-2.99096e-16
-2.61282e-16
-1.79624e-15
-5.11187e-15
-2.70291e-15
-8.64852e-17
-3.106e-25
-3.82279e-25
-4.12116e-25
-4.66091e-25
-5.25061e-25
-4.04709e-25
0.11986
0.119792
0.119762
0.119919
0.119913
0.119696
-7.68455e-17
-7.73761e-17
-1.30465e-15
-4.51396e-15
-5.71313e-16
-1.85055e-17
-1.91854e-25
-2.44985e-25
-2.57958e-25
-3.50727e-25
-4.27071e-25
-3.38935e-25
0.00182745
0.00112497
0.000696071
0.000450392
3.60992e-06
0.00476957
3.88326e-05
3.15038e-05
3.53267e-05
5.31337e-05
2.03549e-05
6.74326e-05
0.000111862
0.000106729
0.000127155
0.000104691
8.14162e-05
0.000102982
1.47095e-06
1.80383e-06
1.79055e-06
2.59967e-06
1.92206e-06
5.40166e-07
3.22998e-05
2.38062e-05
2.7087e-05
6.12697e-05
3.39514e-05
7.17605e-05
0.000150493
0.000146284
0.000157799
0.000125224
8.02527e-05
0.000239053
1.27899e-06
1.64157e-06
1.69541e-06
4.38228e-06
4.02507e-06
3.85989e-07
3.05902e-05
2.9443e-05
3.12072e-05
3.90254e-05
3.84781e-05
5.98326e-05
2.79193e-05
2.6782e-05
3.23789e-05
2.49416e-05
3.21086e-05
7.83969e-05
1.75661e-07
2.1973e-07
1.54277e-07
2.93644e-07
5.82878e-07
4.36397e-07
2.25182e-07
4.05497e-07
3.85542e-07
9.33986e-08
1.8556e-06
4.562e-07
-9.60802e-11
-8.20992e-11
-8.71827e-11
-2.19599e-10
9.93775e-08
-3.20586e-10
4.70837e-10
4.70521e-10
5.58273e-10
2.82122e-10
2.57232e-10
1.97552e-10
1.94616e-12
1.8652e-12
5.12245e-12
1.37782e-12
1.95865e-12
6.54408e-12
-6.7063e-13
-1.37051e-12
-6.67882e-12
-4.24732e-12
-6.341e-12
-7.30596e-12
2.4525e-09
2.22438e-09
2.59409e-09
1.75911e-09
6.11401e-10
1.67127e-09
6.97322e-14
1.35732e-14
3.03713e-12
5.6477e-15
9.6769e-15
8.06203e-14
-1.56854e-13
-1.44082e-13
1.05002e-12
-4.45221e-13
-2.84745e-13
-7.76504e-13
1.60632e-09
1.46199e-09
1.49322e-09
9.37061e-10
3.55661e-10
1.27616e-09
1.63528e-14
2.28756e-15
5.25613e-15
3.17475e-15
3.879e-15
1.67585e-14
8.8933e-13
8.96384e-13
7.94068e-13
9.93466e-13
9.84071e-13
5.60125e-13
1.93383e-13
-8.1417e-12
5.27533e-15
6.14777e-13
3.41049e-12
4.41741e-14
2.98572e-13
1.82402e-15
5.28281e-15
3.26032e-15
4.05362e-15
4.3766e-14
6.27507e-14
9.20881e-14
8.02617e-14
9.48986e-14
9.36849e-14
6.761e-14
-1.47387e-12
-1.14355e-09
-1.04907e-09
-5.67106e-10
-5.68229e-10
-6.79387e-11
1.91646e-63
4.32257e-26
1.73718e-25
5.97241e-26
4.51643e-26
-2.44697e-18
1.19888e-115
3.70424e-114
1.2462e-116
2.89064e-115
8.60658e-120
6.56851e-121
-1.58565e-08
-6.04038e-08
-1.15917e-07
-7.47675e-08
-2.78158e-08
-1.31065e-07
2.67466e-12
5.18149e-12
8.40291e-12
3.80772e-12
-4.9468e-14
1.36802e-12
3.06521e-09
3.06539e-09
3.06542e-09
3.06271e-09
3.03437e-09
3.18e-09
-3.08859e-07
-4.57121e-07
-8.82737e-07
7.4014e-05
-3.39581e-09
-3.6211e-07
8.09905e-11
8.24974e-11
3.00789e-11
2.14182e-11
6.85756e-11
2.34546e-10
2.2586e-10
7.18573e-10
1.55919e-09
1.40859e-10
4.23904e-09
3.23032e-09
0.0597451
0.0594023
0.0559101
0.0724808
0.0697083
0.0697987
3.04402e-24
2.11758e-24
1.65787e-16
4.3834e-13
1.5735e-17
1.58819e-24
7.45357e-09
5.33763e-09
4.52193e-09
2.28717e-08
4.38994e-08
4.44764e-09
)
;

boundaryField
{
    seabed_topleft_surface
    {
        type            zeroGradient;
    }
    seabed_topright_surface
    {
        type            zeroGradient;
    }
    breakwater_top_surface
    {
        type            zeroGradient;
    }
    breakwater_left_surface
    {
        type            zeroGradient;
    }
    breakwater_right_surface
    {
        type            zeroGradient;
    }
    water_front_surface
    {
        type            zeroGradient;
    }
    water_back_surface
    {
        type            zeroGradient;
    }
    water_left_surface
    {
        type            zeroGradient;
    }
    water_right_surface
    {
        type            zeroGradient;
    }
    water_top_surface
    {
        type            inletOutlet;
        inletValue      uniform 0;
        value           nonuniform List<scalar> 
180
(
4.16094e-06
4.15275e-06
4.15289e-06
4.15859e-06
4.15752e-06
4.15703e-06
1.42215e-06
1.42252e-06
1.42066e-06
1.42258e-06
1.42306e-06
1.42214e-06
0
0
0
0
0
0
0
0
0
0
0
0
0
0
0
0
0
0
0
0
0
0
0
0
0
0
0
0
0
0
1.00983e-06
1.00983e-06
1.00995e-06
1.01008e-06
1.01016e-06
1.01024e-06
5.88846e-06
6.15775e-06
6.05492e-06
5.87848e-06
5.7348e-06
6.2422e-06
0.000366796
0.00036881
0.000368095
0.000366438
0.000364743
0.000369862
0
0
0
0
0
0
0
0
0
0
0
0
0
0
0
0
0
0
0
0
0
0
0
0
0
0
0
0
0
0
0
0
0
0
0
0
0
0
0
0
0
0
0
0
0
0
0
0
0.000111862
0.000106729
0.000127155
0.000104691
8.14162e-05
0.000102982
0.000150493
0.000146284
0.000157799
0.000125224
8.02527e-05
0.000239053
2.79193e-05
2.6782e-05
3.23789e-05
0
0
7.83969e-05
0
0
0
0
0
0
0
0
0
0
0
0
0
0
0
0
0
0
0
0
0
0
0
0
0
0
0
0
0
0
0
0
0
0
0
0
0
0
0
0
0
0
0
0
0
0
0
0
0
0
0
0
0
0
)
;
    }
}


// ************************************************************************* //
