/*--------------------------------*- C++ -*----------------------------------*\
| =========                 |                                                 |
| \\      /  F ield         | OpenFOAM: The Open Source CFD Toolbox           |
|  \\    /   O peration     | Version:  v1612+                                |
|   \\  /    A nd           | Web:      www.OpenFOAM.com                      |
|    \\/     M anipulation  |                                                 |
\*---------------------------------------------------------------------------*/
FoamFile
{
    version     2.0;
    format      ascii;
    class       volScalarField;
    location    "5.55";
    object      p_rgh;
}
// * * * * * * * * * * * * * * * * * * * * * * * * * * * * * * * * * * * * * //

dimensions      [1 -1 -2 0 0 0 0];

internalField   nonuniform List<scalar> 
1116
(
5864.14
5864.64
5864.45
5864.48
5864.54
5864.32
8567.34
8567.5
8567.43
8567.44
8567.46
8567.42
13839.9
13839.9
13839.8
13839.9
13839.8
13839.9
18690.3
18690.2
18690.2
18690.2
18690.2
18690.3
19594.3
19594.1
19594.2
19594.2
19594.1
19594.3
19408.4
19408.4
19408.3
19408.4
19408.3
19408.4
18549.5
18549.7
18549.6
18549.5
18549.5
18549.4
17288.9
17288.9
17288.7
17287.8
17287.5
17288.5
15970
15969.3
15969.8
15969.1
15969.8
15969.1
15274.5
15273.4
15274.1
15273.6
15274.8
15272.8
15591.5
15592.3
15592
15591.1
15590
15591
15332.1
15333.2
15332
15332.6
15329.5
15332.8
1663.74
1664.45
1664.2
1664.29
1664.32
1664.07
4584.57
4584.45
4584.55
4584.51
4584.38
4584.66
13611.9
13613.9
13613
13612.7
13613.2
13612.5
20195
20196.1
20195.7
20195.5
20195.8
20195.4
20855.5
20855.3
20855.5
20855.4
20855.3
20855.5
19370.9
19371.4
19371.3
19371.1
19371.3
19370.9
16388.2
16390.2
16389.7
16389.5
16390.4
16388.2
12434.2
12434.8
12435.4
12431.8
12429.4
12435.4
9551.22
9552.64
9552.35
9550.19
9548.34
9553.52
8998
8998.98
8998.95
8996.52
8994.38
9001.75
10763
10756.8
10756.2
10764
10766.7
10749.5
9598.78
9599.87
9599.63
9597.76
9590.38
9601.84
637.034
637.972
637.578
637.619
637.807
637.412
2531.54
2535.76
2534.03
2533.62
2534.46
2532.9
7095.34
7099.31
7098.07
7097.21
7098.06
7096.71
7653.83
7655.39
7655.31
7654.56
7654.94
7654.58
6899.88
6900.74
6900.89
6900.16
6900.32
6900.39
4501.31
4501.78
4501.88
4501.24
4501.21
4501.52
1685.7
1686.1
1686.19
1685.61
1685.53
1685.94
-17.7751
-17.8418
-17.8416
-17.815
-17.7136
-17.9476
-10.052
-10.1916
-10.2697
-10.0262
-9.96913
-10.3837
110.165
110.345
110.255
110.176
110.065
110.436
1135.34
1127.45
1126.32
1136
1139.66
1123.52
1360.94
1358.12
1359.06
1360.23
1363.13
1355.43
216.78
217.485
217.171
217.184
217.363
217.058
90.3654
91.0705
90.7976
90.6916
90.8644
90.5725
-76.5111
-76.497
-76.5027
-76.4985
-76.495
-76.503
-35.3915
-35.3881
-35.3889
-35.3865
-35.3859
-35.3889
-21.3793
-21.3861
-21.3816
-21.3758
-21.3697
-21.3833
-12.0095
-12.0263
-12.0134
-11.9948
-11.9706
-12.0271
-18.7034
-18.7319
-18.705
-18.6624
-18.6194
-18.7174
-20.9111
-20.9404
-20.9321
-20.8902
-20.8699
-20.9235
-30.9789
-30.9358
-30.9889
-30.966
-31.0887
-30.9355
40.8378
40.8231
40.7628
40.9135
40.9799
40.738
159.924
175.585
172.904
161.308
152.326
180.961
1183.65
1206.19
1202.73
1182.62
1162.24
1217.67
3044.8
3078.6
3146.02
3233.63
3266.8
3240.84
2040.01
2051.23
2091.34
2168.41
2241.7
2199.33
1796.48
1797.79
1469.21
1712.66
1766.08
1393.18
1016.22
1000.98
1041.79
1005.56
1000.93
871.957
860.96
865.288
859.014
848.461
702.806
833.29
770.394
805.388
791.202
789.983
803.281
799.672
806.676
835.707
793.323
849.483
896.87
789.957
1033.11
975.487
963.218
1021.47
1026.73
946.745
2220.08
2074.72
2003.79
1977.83
1823.21
1813.21
3096.67
3229.96
3232.08
3075.57
2870.37
2927.66
2231.76
2431.41
2510.15
2426.79
2324.09
2169.51
1627.24
1665.01
1732.82
1765.95
1885.17
1708.57
2236.6
2240.51
2209.17
2207.7
2160.26
2203.01
502.579
500.909
487.043
468.282
463.512
488.327
116.208
108.463
127.951
117.129
101.975
151.287
-15.7545
-17.1945
-9.76935
-15.3424
-16.2779
4.97501
-3.21935
-1.92771
-4.26064
-5.65915
-8.16852
-9.57806
6.97602
7.69121
7.25275
7.42509
5.18857
5.98428
8.93848
8.65574
8.56744
10.2046
15.9838
12.5174
51.2229
33.5982
31.5788
29.9892
76.1741
29.2115
618.836
416.646
420.545
407.205
217.613
217.365
1176.06
1413.32
1608.41
1450.91
724.527
1384.24
978.466
1498.45
1699.08
1650.14
762.838
1794.92
856.341
796.942
1271.47
798.283
674.627
975.307
1492.69
1492.95
1477.63
1380.35
1232.31
1408.32
80.0832
77.8204
75.9516
69.5287
66.5486
74.5651
28.5775
26.488
29.4626
28.3173
29.299
32.1388
13.6899
13.9109
14.7349
15.3983
16.0417
16.5314
17.2401
17.7503
17.762
18.015
19.6541
17.5818
17.1602
18.0668
17.8647
18.6213
20.7066
17.5673
17.8358
19.2277
18.9055
19.5652
19.6566
19.1927
20.3559
20.1691
19.0576
18.9998
19.1181
20.8732
18.2341
18.2731
16.2796
15.6797
19.7031
18.9116
48.943
43.088
43.4371
41.2535
156.275
42.2017
1600.68
1790.53
2355.38
1206.95
782.148
2484.37
3520.78
3754.91
3494.79
1548.52
563.53
3282.95
1167.47
1094.23
1038.81
866.072
514.392
1068.02
-36.3833
-38.2486
-37.2932
-41.9157
-44.5523
-41.2918
-34.7689
-36.4063
-35.7674
-41.5617
-44.7662
-38.3899
-34.5701
-35.0108
-34.7222
-35.3629
-35.5166
-34.3365
-6.13008
-5.92003
-6.27774
-6.14436
-6.04718
-6.56478
4.32937
4.56833
4.45551
4.42663
4.877
4.18494
10.6398
10.9121
10.5883
10.2872
9.91598
10.1529
13.7532
14.0664
13.4045
12.054
10.3596
12.1387
8.05353
8.32209
7.1945
7.66844
6.8821
7.59377
11.7179
11.6148
12.3942
12.6807
10.394
10.4932
289.298
220.179
29.3292
472.413
632.64
180.724
4026.72
4128.91
4080.22
4073.53
4271.72
3916.74
5.04844
5.34938
5.2523
5.29083
5.36783
5.25303
-20.5853
-20.6049
-20.5908
-20.5891
-20.5905
-20.5805
-9.42723
-9.44359
-9.43575
-9.43894
-9.44219
-9.43866
-76.2053
-76.1449
-76.3206
-76.17
-76.1147
-76.272
-60.6988
-60.7491
-60.7361
-60.7459
-60.7554
-60.7424
-13.736
-13.7589
-13.7515
-13.753
-13.757
-13.751
-37.1997
-37.3171
-37.2802
-37.2695
-37.3039
-37.2589
-47.4874
-47.4908
-47.4922
-47.4938
-47.496
-47.4956
-7.66655
-7.67515
-7.67277
-7.67378
-7.67536
-7.6731
-30.7002
-30.6988
-30.702
-30.7
-30.7001
-30.7004
-25.6743
-25.6734
-25.6745
-25.674
-25.6744
-25.6742
-4.84032
-4.84335
-4.84234
-4.84399
-4.84488
-4.84398
-13.7833
-13.7771
-13.7805
-13.78
-13.7789
-13.7786
-11.4367
-11.4306
-11.4332
-11.4345
-11.4366
-11.4294
-6.34206
-6.34227
-6.34228
-6.34303
-6.34327
-6.34283
-4.45073
-4.44
-4.4417
-4.44566
-4.44062
-4.44336
1.0308
1.04977
1.04152
1.03454
1.02484
1.05188
-6.46057
-6.4612
-6.46084
-6.46066
-6.46171
-6.45917
-6.52
-6.51564
-6.51779
-6.50865
-6.49899
-6.52554
17.0454
17.0948
17.0737
17.0535
17.0307
17.0896
-8.37497
-8.37437
-8.3746
-8.37321
-8.37533
-8.36954
-8.89122
-8.91286
-8.92711
-8.84792
-8.85183
-8.9391
34.1654
34.2777
34.2332
34.1854
34.1502
34.2511
-10.8926
-10.8654
-10.879
-10.8853
-10.8985
-10.8475
-9.54686
-9.39123
-9.44455
-9.50143
-9.70139
-9.2758
32.7405
32.8718
32.8355
32.7497
32.7325
32.8856
7.9775
8.05462
7.99773
7.99595
8.00405
8.06084
17.6284
17.8379
17.7684
17.6647
17.5841
17.8768
48.096
48.588
48.3436
47.796
47.7376
48.4898
1.01745
1.1139
1.14299
0.99334
0.880194
1.20265
49.2372
49.9826
49.8777
48.9751
48.2559
50.3846
53.244
53.0368
53.4127
53.5585
53.6118
53.4072
-19.9598
-20.0134
-19.9586
-19.9469
-19.932
-19.967
2837.33
2836.56
2837.6
2832.91
2827.63
2841.12
-30.5336
-30.5825
-30.5504
-30.6343
-30.6487
-30.5685
-23.8678
-23.941
-23.9039
-23.8963
-23.856
-23.9291
7098.95
7100.84
7103.94
7110.09
7111.9
7107.55
1.66018
1.71313
1.63175
1.50819
1.45177
1.45225
-6.98698
-6.97767
-6.96891
-6.92272
-6.77969
-6.87742
7123.51
7126.42
7129.63
7131.74
7131.73
7130.64
-1.58887
-1.58901
-1.61118
-1.6364
-1.6244
-1.67054
-5.30171
-5.31055
-5.30883
-5.25782
-5.21835
-5.26571
6989.36
6987.89
6985.63
6999.93
7002.12
6983.59
-0.696564
-0.694654
-0.713692
-0.738278
-0.753203
-0.759382
-4.15499
-4.14818
-4.1436
-4.14277
-4.13204
-4.13744
6388.8
6389.59
6386.68
6401.95
6404.59
6380.76
-2.69132
-2.69747
-2.70268
-2.7159
-2.71991
-2.71217
-4.1053
-4.10281
-4.10139
-4.10392
-4.10104
-4.09896
6034.18
6033.84
6032.4
6040.15
6039.96
6029.18
-6.39613
-6.40779
-6.40843
-6.41944
-6.42281
-6.42463
-6.28871
-6.2888
-6.28573
-6.2907
-6.28901
-6.28272
5829.54
5826.02
5824.62
5832.4
5832.31
5821.22
-10.4601
-10.4744
-10.4702
-10.4921
-10.4925
-10.4834
-10.805
-10.8048
-10.8007
-10.8083
-10.8088
-10.8001
98.5462
66.1823
43.5867
26.9791
1.1725
219.428
-35.438
-35.3909
-34.9714
-28.7669
-32.5264
-23.7866
-37.2065
-35.9349
-36.1363
-33.0254
-34.1342
-35.7135
-125.618
-126.88
-127.128
-127.944
-124.911
-128.472
-168.035
-167.244
-170.73
-163.514
-161.18
-166.561
-81.2595
-78.993
-79.1339
-75.5131
-78.8514
-71.8833
-104.319
-105.233
-105.677
-107.971
-108.307
-107.12
-108.476
-107.218
-109.555
-106.29
-106.017
-108.465
-30.3892
-27.681
-29.5847
-25.7921
-25.8264
-26.7398
-67.2894
-67.2974
-67.1092
-67.5552
-67.998
-67.3433
-62.4491
-61.1698
-61.6411
-58.8468
-59.5385
-61.541
-12.6148
-11.618
-12.4423
-11.9589
-11.5642
-12.0876
-18.6558
-18.4316
-18.7037
-18.3094
-18.436
-18.6993
-20.1012
-19.9185
-20.0028
-19.5445
-19.6377
-19.9549
-9.01212
-8.94722
-8.79381
-9.08922
-8.83356
-8.7649
-3.69146
-3.58501
-3.61517
-3.57
-3.47338
-3.65297
-6.54032
-6.48172
-6.46989
-6.38444
-6.34156
-6.46633
-5.72182
-5.70971
-5.66083
-5.71636
-5.65177
-5.66575
4.13997
4.2209
4.15512
4.08955
4.04688
4.02758
-0.191188
-0.184781
-0.205179
-0.254384
-0.278304
-0.290406
-2.65053
-2.65046
-2.62626
-2.66223
-2.63911
-2.64855
7.04059
7.15018
6.96856
6.63778
6.4748
6.62498
1.37057
1.38442
1.32254
1.20347
1.12646
1.14484
-1.66791
-1.66892
-1.6803
-1.70852
-1.72006
-1.72621
9.08541
9.36218
9.51726
9.28911
9.03143
9.73296
0.849009
0.76575
0.738568
0.707762
0.661112
0.794046
0.245388
0.276371
0.270482
0.252209
0.254161
0.269252
9.55158
8.15975
8.96715
7.84635
7.41836
8.57654
-2.97592
-3.29627
-3.12428
-3.17495
-3.12008
-2.91141
-1.66033
-1.70009
-1.71542
-1.75926
-1.82607
-1.799
-7.64419
-8.21101
-6.71184
-2.93852
-4.43592
-2.63678
-6.65898
-6.88036
-6.55464
-6.29428
-6.17145
-5.98508
-1.87831
-1.82417
-1.78834
-1.97447
-1.69148
-1.63131
2857.86
2843.6
2665.16
3470.08
3365.7
3336.93
-3.74146
-3.51005
-3.78037
-4.23274
-3.70233
-4.35112
-14.603
-14.6076
-14.8622
-14.7385
-13.9472
-14.9238
)
;

boundaryField
{
    seabed_topleft_surface
    {
        type            fixedFluxPressure;
        gradient        uniform 0;
        value           nonuniform List<scalar> 
72
(
5864.14
5864.64
5864.45
5864.48
5864.54
5864.32
8567.34
8567.5
8567.43
8567.44
8567.46
8567.42
13839.9
13839.9
13839.8
13839.9
13839.8
13839.9
18690.3
18690.2
18690.2
18690.2
18690.2
18690.3
19594.3
19594.1
19594.2
19594.2
19594.1
19594.3
19408.4
19408.4
19408.3
19408.4
19408.3
19408.4
18549.5
18549.7
18549.6
18549.5
18549.5
18549.4
17288.9
17288.9
17288.7
17287.8
17287.5
17288.5
15970
15969.3
15969.8
15969.1
15969.8
15969.1
15274.5
15273.4
15274.1
15273.6
15274.8
15272.8
15591.5
15592.3
15592
15591.1
15590
15591
15332.1
15333.2
15332
15332.6
15329.5
15332.8
)
;
    }
    seabed_topright_surface
    {
        type            fixedFluxPressure;
        gradient        uniform 0;
        value           nonuniform List<scalar> 
72
(
3044.8
3078.6
3146.02
3233.63
3266.8
3240.84
2040.01
2051.23
2091.34
2168.41
2241.7
2199.33
1796.48
1797.79
1469.21
1712.66
1766.08
1393.18
1016.22
1000.98
1041.79
1005.56
1000.93
871.957
860.96
865.288
859.014
848.461
702.806
833.29
770.394
805.388
791.202
789.983
803.281
799.672
806.676
835.707
793.323
849.483
896.87
789.957
1033.11
975.487
963.218
1021.47
1026.73
946.745
2220.08
2074.72
2003.79
1977.83
1823.21
1813.21
3096.67
3229.96
3232.08
3075.57
2870.37
2927.66
2231.76
2431.41
2510.15
2426.79
2324.09
2169.51
1627.24
1665.01
1732.82
1765.95
1885.17
1708.57
)
;
    }
    breakwater_top_surface
    {
        type            fixedFluxPressure;
        gradient        uniform 0;
        value           nonuniform List<scalar> 
36
(
7098.95
7100.84
7103.94
7110.09
7111.9
7107.55
7123.51
7126.42
7129.63
7131.74
7131.73
7130.64
6989.36
6987.89
6985.63
6999.93
7002.12
6983.59
6388.8
6389.59
6386.68
6401.95
6404.59
6380.76
6034.18
6033.84
6032.4
6040.15
6039.96
6029.18
5829.54
5826.02
5824.62
5832.4
5832.31
5821.22
)
;
    }
    breakwater_left_surface
    {
        type            fixedFluxPressure;
        gradient        uniform 0;
        value           nonuniform List<scalar> 
24
(
15332.1
15333.2
15332
15332.6
15329.5
15332.8
9598.78
9599.87
9599.63
9597.76
9590.38
9601.84
1360.94
1358.12
1359.06
1360.23
1363.13
1355.43
1183.65
1206.19
1202.73
1182.62
1162.24
1217.67
)
;
    }
    breakwater_right_surface
    {
        type            fixedFluxPressure;
        gradient        uniform 0;
        value           nonuniform List<scalar> 
24
(
1627.24
1665.01
1732.82
1765.95
1885.17
1708.57
856.341
796.942
1271.47
798.283
674.627
975.307
3520.78
3754.91
3494.79
1548.52
563.53
3282.95
4026.72
4128.91
4080.22
4073.53
4271.72
3916.74
)
;
    }
    water_front_surface
    {
        type            fixedFluxPressure;
        gradient        uniform 0;
        value           nonuniform List<scalar> 
186
(
5864.14
8567.34
13839.9
18690.3
19594.3
19408.4
18549.5
17288.9
15970
15274.5
15591.5
15332.1
1663.74
4584.57
13611.9
20195
20855.5
19370.9
16388.2
12434.2
9551.22
8998
10763
9598.78
637.034
2531.54
7095.34
7653.83
6899.88
4501.31
1685.7
-17.7751
-10.052
110.165
1135.34
1360.94
216.78
90.3654
-76.5111
-35.3915
-21.3793
-12.0095
-18.7034
-20.9111
-30.9789
40.8378
159.924
1183.65
3044.8
2040.01
1796.48
1016.22
860.96
770.394
806.676
1033.11
2220.08
3096.67
2231.76
1627.24
2236.6
502.579
116.208
-15.7545
-3.21935
6.97602
8.93848
51.2229
618.836
1176.06
978.466
856.341
1492.69
80.0832
28.5775
13.6899
17.2401
17.1602
17.8358
20.3559
18.2341
48.943
1600.68
3520.78
1167.47
-36.3833
-34.7689
-34.5701
-6.13008
4.32937
10.6398
13.7532
8.05353
11.7179
289.298
4026.72
5.04844
-20.5853
-9.42723
-76.2053
-60.6988
-13.736
-37.1997
-47.4874
-7.66655
-30.7002
-25.6743
-4.84032
-13.7833
-11.4367
-6.34206
-4.45073
1.0308
-6.46057
-6.52
17.0454
-8.37497
-8.89122
34.1654
-10.8926
-9.54686
32.7405
7.9775
17.6284
48.096
1.01745
49.2372
53.244
-19.9598
2837.33
-30.5336
-23.8678
7098.95
1.66018
-6.98698
7123.51
-1.58887
-5.30171
6989.36
-0.696564
-4.15499
6388.8
-2.69132
-4.1053
6034.18
-6.39613
-6.28871
5829.54
-10.4601
-10.805
98.5462
-35.438
-37.2065
-125.618
-168.035
-81.2595
-104.319
-108.476
-30.3892
-67.2894
-62.4491
-12.6148
-18.6558
-20.1012
-9.01212
-3.69146
-6.54032
-5.72182
4.13997
-0.191188
-2.65053
7.04059
1.37057
-1.66791
9.08541
0.849009
0.245388
9.55158
-2.97592
-1.66033
-7.64419
-6.65898
-1.87831
2857.86
-3.74146
-14.603
)
;
    }
    water_back_surface
    {
        type            fixedFluxPressure;
        gradient        uniform 0;
        value           nonuniform List<scalar> 
186
(
5864.32
8567.42
13839.9
18690.3
19594.3
19408.4
18549.4
17288.5
15969.1
15272.8
15591
15332.8
1664.07
4584.66
13612.5
20195.4
20855.5
19370.9
16388.2
12435.4
9553.52
9001.75
10749.5
9601.84
637.412
2532.9
7096.71
7654.58
6900.39
4501.52
1685.94
-17.9476
-10.3837
110.436
1123.52
1355.43
217.058
90.5725
-76.503
-35.3889
-21.3833
-12.0271
-18.7174
-20.9235
-30.9355
40.738
180.961
1217.67
3240.84
2199.33
1393.18
871.957
833.29
799.672
789.957
946.745
1813.21
2927.66
2169.51
1708.57
2203.01
488.327
151.287
4.97501
-9.57806
5.98428
12.5174
29.2115
217.365
1384.24
1794.92
975.307
1408.32
74.5651
32.1388
16.5314
17.5818
17.5673
19.1927
20.8732
18.9116
42.2017
2484.37
3282.95
1068.02
-41.2918
-38.3899
-34.3365
-6.56478
4.18494
10.1529
12.1387
7.59377
10.4932
180.724
3916.74
5.25303
-20.5805
-9.43866
-76.272
-60.7424
-13.751
-37.2589
-47.4956
-7.6731
-30.7004
-25.6742
-4.84398
-13.7786
-11.4294
-6.34283
-4.44336
1.05188
-6.45917
-6.52554
17.0896
-8.36954
-8.9391
34.2511
-10.8475
-9.2758
32.8856
8.06084
17.8768
48.4898
1.20265
50.3846
53.4072
-19.967
2841.12
-30.5685
-23.9291
7107.55
1.45225
-6.87742
7130.64
-1.67054
-5.26571
6983.59
-0.759382
-4.13744
6380.76
-2.71217
-4.09896
6029.18
-6.42463
-6.28272
5821.22
-10.4834
-10.8001
219.428
-23.7866
-35.7135
-128.472
-166.561
-71.8833
-107.12
-108.465
-26.7398
-67.3433
-61.541
-12.0876
-18.6993
-19.9549
-8.7649
-3.65297
-6.46633
-5.66575
4.02758
-0.290406
-2.64855
6.62498
1.14484
-1.72621
9.73296
0.794046
0.269252
8.57654
-2.91141
-1.799
-2.63678
-5.98508
-1.63131
3336.93
-4.35112
-14.9238
)
;
    }
    water_left_surface
    {
        type            fixedFluxPressure;
        gradient        uniform 0;
        value           nonuniform List<scalar> 
42
(
5864.14
5864.64
5864.45
5864.48
5864.54
5864.32
1663.74
1664.45
1664.2
1664.29
1664.32
1664.07
637.034
637.972
637.578
637.619
637.807
637.412
216.78
217.485
217.171
217.184
217.363
217.058
5.04844
5.34938
5.2523
5.29083
5.36783
5.25303
-20.5853
-20.6049
-20.5908
-20.5891
-20.5905
-20.5805
-9.42723
-9.44359
-9.43575
-9.43894
-9.44219
-9.43866
)
;
    }
    water_right_surface
    {
        type            fixedFluxPressure;
        gradient        uniform 0;
        value           nonuniform List<scalar> 
42
(
3044.8
3078.6
3146.02
3233.63
3266.8
3240.84
2236.6
2240.51
2209.17
2207.7
2160.26
2203.01
1492.69
1492.95
1477.63
1380.35
1232.31
1408.32
1167.47
1094.23
1038.81
866.072
514.392
1068.02
98.5462
66.1823
43.5867
26.9791
1.1725
219.428
-35.438
-35.3909
-34.9714
-28.7669
-32.5264
-23.7866
-37.2065
-35.9349
-36.1363
-33.0254
-34.1342
-35.7135
)
;
    }
    water_top_surface
    {
        type            totalPressure;
        rho             rho;
        psi             none;
        gamma           1;
        p0              uniform 0;
        value           nonuniform List<scalar> 
180
(
0
0
0
0
0
0
0
0
0
0
0
0
-0.0894898
-0.0909354
-0.0898322
-0.0909093
-0.0913206
-0.0907007
-6.02418
-6.02472
-6.02433
-6.02646
-6.02628
-6.02683
-7.37255
-7.36957
-7.37133
-7.37197
-7.372
-7.37166
-4.2623
-4.25771
-4.26028
-4.26135
-4.2627
-4.25909
-0.558883
-0.55525
-0.557206
-0.558456
-0.559708
-0.555824
0
0
0
0
0
0
0
0
0
0
0
0
0
0
0
0
0
0
-4.56693
-4.59194
-4.57002
-4.56352
-4.5064
-4.60271
-11.9805
-11.9253
-11.916
-12.0097
-12.0829
-11.8438
-2.87857
-2.89335
-2.88319
-2.85997
-2.87127
-2.88735
-3.61291
-3.63408
-3.62006
-3.56563
-3.55216
-3.6367
-3.02946
-3.03044
-3.02606
-3.02642
-3.04345
-2.99541
-3.65781
-3.65905
-3.64762
-3.67106
-3.69416
-3.60007
-6.19774
-6.20353
-6.18946
-6.2177
-6.24297
-6.15053
-6.59835
-6.60831
-6.597
-6.61497
-6.6281
-6.57738
0
0
0
0
0
0
0
0
0
0
0
0
0
0
0
-1.19855
-0.521631
0
-10.7405
-10.5418
-8.6887
-12.6264
-11.3862
-8.78719
-9.33981
-9.24622
-9.27317
-9.03773
-8.95856
-9.33369
-6.46021
-6.44432
-6.45796
-6.43645
-6.40161
-6.46923
-3.99618
-3.99544
-3.99895
-4.01467
-4.01432
-4.02329
-3.52736
-3.52884
-3.54206
-3.56347
-3.57099
-3.57513
-2.39176
-2.39325
-2.39779
-2.41079
-2.41711
-2.38854
-4.30235
-4.37286
-4.34084
-4.4503
-4.5031
-4.32182
-5.07972
-5.16197
-5.01312
-5.17619
-5.14157
-4.79141
-3.93943
-3.64215
-3.6406
-3.90161
-4.21976
-3.90807
)
;
    }
}


// ************************************************************************* //
