/*--------------------------------*- C++ -*----------------------------------*\
| =========                 |                                                 |
| \\      /  F ield         | OpenFOAM: The Open Source CFD Toolbox           |
|  \\    /   O peration     | Version:  v1612+                                |
|   \\  /    A nd           | Web:      www.OpenFOAM.com                      |
|    \\/     M anipulation  |                                                 |
\*---------------------------------------------------------------------------*/
FoamFile
{
    version     2.0;
    format      ascii;
    class       volScalarField;
    location    "4.75";
    object      alpha.water;
}
// * * * * * * * * * * * * * * * * * * * * * * * * * * * * * * * * * * * * * //

dimensions      [0 0 0 0 0 0 0];

internalField   nonuniform List<scalar> 
1116
(
0.393281
0.39328
0.393281
0.393279
0.39328
0.393285
0.39984
0.399838
0.399839
0.399837
0.399838
0.399844
0.422317
0.422315
0.422315
0.422314
0.422316
0.422321
0.488793
0.488792
0.488792
0.488792
0.488794
0.488798
0.640614
0.640612
0.640614
0.640615
0.640615
0.64062
0.872318
0.872316
0.872317
0.872317
0.872317
0.872321
0.974187
0.974187
0.974187
0.974187
0.974187
0.974187
0.974191
0.97419
0.97419
0.97419
0.97419
0.97419
0.974188
0.974188
0.974188
0.974188
0.974188
0.974188
0.974181
0.974181
0.974181
0.974181
0.974181
0.974181
0.974148
0.974148
0.974148
0.974148
0.974148
0.974148
0.974017
0.974018
0.974018
0.974018
0.974018
0.974018
3.67974e-08
3.67974e-08
3.67973e-08
3.67972e-08
3.67972e-08
3.67972e-08
3.67984e-08
3.67974e-08
3.67976e-08
3.67975e-08
3.67972e-08
3.67985e-08
3.88098e-08
3.8808e-08
3.88087e-08
3.88085e-08
3.88077e-08
3.88102e-08
0.0018051
0.00180515
0.00180496
0.00180516
0.00180519
0.00180486
0.0305292
0.030522
0.0305245
0.0305253
0.0305227
0.0305254
0.224559
0.224575
0.224563
0.224558
0.224564
0.224555
0.740354
0.740374
0.740356
0.740352
0.740357
0.740353
0.974188
0.974188
0.974188
0.974188
0.974188
0.974188
0.974185
0.974185
0.974185
0.974185
0.974185
0.974185
0.974021
0.974029
0.974026
0.974025
0.974027
0.974024
0.968168
0.968194
0.968185
0.968178
0.968182
0.968185
0.970719
0.970701
0.970711
0.970709
0.9707
0.970726
1.22933e-07
1.22848e-07
1.22872e-07
1.22877e-07
1.22851e-07
1.22958e-07
2.87196e-07
2.87157e-07
2.8717e-07
2.87166e-07
2.87147e-07
2.8724e-07
3.42143e-08
3.42127e-08
3.42125e-08
3.42121e-08
3.42117e-08
3.42149e-08
5.24616e-07
5.24155e-07
5.24311e-07
5.24361e-07
5.24205e-07
5.24185e-07
3.16855e-05
3.16529e-05
3.16631e-05
3.16675e-05
3.1658e-05
3.16634e-05
0.00170051
0.00169924
0.00169952
0.00169904
0.00169893
0.00169898
0.225369
0.225427
0.225395
0.225385
0.225409
0.22536
0.57307
0.573297
0.573188
0.573178
0.573252
0.573111
0.656565
0.656891
0.65674
0.656728
0.656831
0.656644
0.559051
0.55946
0.559284
0.559251
0.559363
0.559188
0.428329
0.428563
0.428477
0.428421
0.428446
0.428482
0.455843
0.455606
0.455739
0.455711
0.455581
0.45594
5.39836e-08
5.39056e-08
5.39251e-08
5.39298e-08
5.39024e-08
5.39963e-08
3.95716e-07
3.95719e-07
3.95722e-07
3.95726e-07
3.9573e-07
3.9573e-07
1.93119e-08
1.93328e-08
1.93206e-08
1.92986e-08
1.93192e-08
1.93454e-08
7.56365e-08
7.55745e-08
7.55919e-08
7.55811e-08
7.55807e-08
7.56639e-08
2.86658e-06
2.85722e-06
2.86072e-06
2.8631e-06
2.85976e-06
2.86315e-06
0.00420004
0.00418097
0.00418943
0.00419296
0.0041856
0.00419388
0.06299
0.0629497
0.0629599
0.0629917
0.0629757
0.0629777
0.0956074
0.0956579
0.0956207
0.0956566
0.0956765
0.0956227
0.0743592
0.0744669
0.074407
0.074427
0.0744642
0.0743961
0.00458171
0.00463041
0.00460726
0.00460692
0.00462008
0.00460594
0.000106297
0.000106297
0.000106592
0.000106495
0.000106278
0.000106278
0.000212397
0.000212692
0.000213005
0.000212909
0.000212575
0.000212359
1.39363e-08
1.43272e-08
1.30006e-08
1.40714e-08
1.56397e-08
1.0322e-08
3.57806e-08
3.63104e-08
3.25152e-08
3.43027e-08
3.7891e-08
2.45207e-08
1.29669e-06
1.30625e-06
1.16161e-06
1.20686e-06
1.33517e-06
8.60885e-07
3.16509e-05
3.17944e-05
2.85619e-05
2.94956e-05
3.19562e-05
2.20026e-05
0.00375648
0.00361366
0.00308276
0.00322784
0.00341806
0.00198933
0.0284484
0.0283946
0.0280718
0.0282341
0.0293798
0.0270093
0.0389864
0.0394398
0.0401112
0.0397975
0.040838
0.0416723
0.0403233
0.0409232
0.0415268
0.0411282
0.0419592
0.0434352
0.0417671
0.0423604
0.0431736
0.0428709
0.0437948
0.0450446
0.0397333
0.0399003
0.0409486
0.0378884
0.0373309
0.0427739
0.0128456
0.012779
0.0135748
0.0125168
0.0121371
0.0147375
0.00023292
0.000208694
0.000186219
0.00016704
0.000133783
0.000196997
9.25079e-10
9.59892e-10
8.67865e-10
9.80491e-10
1.10254e-09
6.79972e-10
9.54413e-09
9.82011e-09
8.8589e-09
9.61361e-09
1.07658e-08
6.93954e-09
1.97895e-06
2.11778e-06
1.17449e-06
1.71924e-06
2.58257e-06
3.53676e-07
0.000398288
0.000402423
0.000377929
0.000391712
0.000405498
0.000325819
0.000793707
0.000794195
0.000782655
0.0007779
0.000780671
0.000768699
1.38538e-06
1.2054e-05
1.96368e-05
2.45139e-05
5.06171e-05
7.46679e-05
5.28797e-07
5.61689e-07
5.65644e-07
4.86384e-07
3.26908e-07
5.70342e-07
0.00291416
0.0025534
0.00258747
0.00147584
0.000203892
0.00236838
0.0417752
0.0423358
0.043437
0.0384979
0.0342431
0.045302
0.0633088
0.0647592
0.0663925
0.0659061
0.0682246
0.0699927
0.0615895
0.0621979
0.0668191
0.0486881
0.0308762
0.0705467
0.000208723
0.000186239
0.00016704
0.000133783
0.000109669
0.000133783
2.39188e-11
2.49833e-11
2.23394e-11
2.57067e-11
2.94398e-11
1.70951e-11
6.51678e-10
6.77824e-10
6.08079e-10
6.88089e-10
7.82483e-10
4.69409e-10
2.94501e-06
3.10464e-06
2.71825e-06
3.34486e-06
3.81879e-06
1.95423e-06
7.46381e-05
7.57459e-05
7.41137e-05
7.75667e-05
7.91204e-05
6.9473e-05
2.71746e-05
2.76566e-05
3.53426e-05
3.16055e-05
2.9643e-05
5.26756e-05
9.62252e-08
7.56254e-08
5.57362e-08
5.46738e-08
5.57936e-08
5.59452e-08
7.76801e-09
7.4977e-09
8.01395e-09
7.82709e-09
8.13306e-09
9.12196e-09
-2.84771e-10
-5.31545e-10
-9.15255e-10
-3.40454e-09
-3.71119e-09
1.96806e-10
8.17904e-06
9.19409e-06
9.20487e-06
9.55651e-06
1.3578e-05
1.0867e-05
0.0513924
0.0520195
0.0542752
0.046386
0.0275372
0.0561812
0.105306
0.106385
0.106799
0.107207
0.107363
0.109051
0.0347277
0.0384225
0.0517467
0.0173113
0.000109669
0.0621491
8.96289e-13
9.34314e-13
8.36508e-13
9.55957e-13
1.09029e-12
6.42335e-13
2.36644e-11
2.47194e-11
2.20848e-11
2.54471e-11
2.91516e-11
1.68746e-11
1.91818e-07
2.06244e-07
1.91711e-07
2.53612e-07
2.88146e-07
1.28872e-07
1.47012e-07
1.49473e-07
1.44526e-07
1.52135e-07
1.56765e-07
1.26743e-07
5.48961e-08
5.54181e-08
6.11612e-08
5.79742e-08
5.78191e-08
7.42585e-08
4.26931e-07
4.20059e-07
4.43075e-07
4.29604e-07
4.12748e-07
4.96326e-07
1.05735e-09
8.59207e-10
1.05373e-09
1.27421e-09
2.46346e-09
1.80828e-09
2.52385e-11
2.43392e-11
2.41113e-11
2.49149e-11
2.50247e-11
2.3389e-11
-7.67199e-11
-2.93717e-10
-6.20759e-10
-7.74799e-10
-6.62232e-10
-1.61638e-10
8.35954e-06
9.41835e-06
9.40437e-06
9.81294e-06
1.53454e-05
1.10583e-05
0.105668
0.106896
0.107684
0.108355
0.1019
0.109739
0.201373
0.201554
0.201688
0.201688
0.201585
0.201295
5.18263e-09
5.17465e-09
5.1773e-09
5.17607e-09
5.16928e-09
5.18363e-09
6.07668e-11
5.96744e-11
6.00164e-11
5.996e-11
5.93169e-11
6.09553e-11
-7.5816e-17
-8.33322e-17
-8.56276e-17
-8.36496e-17
-8.31352e-17
-8.52249e-17
1.57476e-07
1.57134e-07
1.57227e-07
1.57215e-07
1.5703e-07
1.57512e-07
3.0541e-16
3.04847e-16
3.04999e-16
3.05346e-16
3.05047e-16
3.05532e-16
5.30074e-18
5.29157e-18
5.2929e-18
5.29354e-18
5.29147e-18
5.30085e-18
1.46304e-10
1.46231e-10
1.46243e-10
1.46364e-10
1.463e-10
1.46318e-10
5.79758e-13
5.78714e-13
5.79012e-13
5.79609e-13
5.79046e-13
5.79796e-13
3.11309e-16
3.10743e-16
3.10896e-16
3.11243e-16
3.10943e-16
3.1143e-16
2.07553e-09
2.07745e-09
2.07652e-09
2.07788e-09
2.07813e-09
2.07694e-09
1.46303e-10
1.4623e-10
1.46243e-10
1.46363e-10
1.46299e-10
1.46318e-10
5.7982e-13
5.78776e-13
5.79074e-13
5.7967e-13
5.79107e-13
5.79857e-13
1.64689e-07
1.64543e-07
1.64606e-07
1.64739e-07
1.64663e-07
1.64694e-07
1.22335e-08
1.22212e-08
1.2225e-08
1.22345e-08
1.22275e-08
1.22312e-08
2.00663e-10
2.00296e-10
2.00411e-10
2.00605e-10
2.00409e-10
2.00609e-10
0.000256673
0.000254277
0.000255327
0.000255994
0.000255013
0.000256027
1.01734e-06
1.01502e-06
1.01586e-06
1.01661e-06
1.01562e-06
1.01651e-06
3.84409e-08
3.835e-08
3.83816e-08
3.84135e-08
3.83725e-08
3.84136e-08
1.85078e-06
1.85074e-06
1.85073e-06
1.85074e-06
1.85073e-06
1.85073e-06
4.201e-06
4.20468e-06
4.20245e-06
4.20333e-06
4.20514e-06
4.20118e-06
3.09869e-06
3.0957e-06
3.09703e-06
3.0985e-06
3.09839e-06
3.09977e-06
1.85082e-06
1.85078e-06
1.85074e-06
1.85073e-06
1.85074e-06
1.85073e-06
7.79701e-06
7.79699e-06
7.79699e-06
7.79699e-06
7.79645e-06
7.79587e-06
5.74426e-06
5.76084e-06
5.75343e-06
5.75367e-06
5.75485e-06
5.74237e-06
1.03331e-06
1.03352e-06
1.03345e-06
1.03333e-06
1.03343e-06
1.03333e-06
5.28878e-06
5.30862e-06
5.29946e-06
5.29645e-06
5.29902e-06
5.2758e-06
5.14694e-07
5.21092e-07
5.18396e-07
5.17929e-07
5.17979e-07
5.11989e-07
4.06213e-09
4.0655e-09
4.06644e-09
4.06526e-09
4.06182e-09
4.05928e-09
2.03107e-09
2.03107e-09
2.03308e-09
2.03219e-09
2.02965e-09
2.02965e-09
2.61404e-11
3.66202e-11
3.2094e-11
3.09719e-11
2.83994e-11
3.63569e-11
1.00976e-07
1.01051e-07
1.0103e-07
1.0103e-07
1.01042e-07
1.01023e-07
4.58511e-09
4.69865e-09
4.65111e-09
4.63908e-09
4.61031e-09
4.68943e-09
5.14096e-06
5.14108e-06
5.14103e-06
5.14101e-06
5.14117e-06
5.14126e-06
0.0177716
0.0177702
0.0177702
0.0177723
0.0177881
0.0177545
-9.79418e-11
-9.78394e-11
-9.80322e-11
-9.76254e-11
-9.73639e-11
-9.88847e-11
2.03181e-06
2.02119e-06
2.02597e-06
2.02107e-06
2.01368e-06
2.04465e-06
0.297684
0.297701
0.297723
0.297712
0.297723
0.297796
3.55076e-20
4.44523e-20
4.63193e-20
1.96958e-18
1.6663e-14
7.04002e-20
-4.17661e-26
-3.38906e-26
-1.56641e-25
2.91515e-27
3.32063e-14
-7.75932e-26
0.298131
0.298143
0.298154
0.298174
0.298194
0.298204
0.000147571
0.000189145
0.000208148
6.16358e-05
-1.96675e-22
0.00030705
-2.08276e-24
-8.89986e-25
-4.11602e-24
-1.53367e-24
-1.08545e-24
-1.58396e-24
0.297411
0.29743
0.29745
0.29743
0.297424
0.297542
-8.14089e-14
-6.56499e-14
-1.22837e-13
-1.09824e-14
-7.74594e-13
-3.34923e-15
-2.42124e-24
-2.29703e-24
-2.40534e-24
-2.11549e-24
-4.1229e-24
-1.36813e-24
0.276893
0.276862
0.277114
0.276314
0.275875
0.277545
-5.83215e-18
-8.58367e-18
-4.06454e-16
-1.48242e-15
-5.53475e-24
-4.20934e-24
-4.90294e-24
-6.09885e-24
-6.67269e-24
-6.5894e-24
-6.23178e-24
-4.91704e-24
0.242287
0.242299
0.242435
0.242184
0.242095
0.242609
-2.38234e-16
-3.37135e-16
-1.55857e-14
-5.96564e-14
-4.10927e-24
-3.27127e-24
-8.39294e-25
-1.25074e-24
-1.14755e-24
-3.05519e-24
-4.59464e-24
-3.60314e-24
0.194866
0.194862
0.194941
0.194829
0.194834
0.194993
-4.39813e-17
-5.76416e-17
-2.37967e-15
-9.10764e-15
-3.1585e-18
-9.91198e-18
-1.05358e-25
-1.65171e-25
-1.442e-25
-4.60243e-25
-7.16667e-25
-5.63472e-25
4.15837e-14
4.32065e-14
3.89654e-14
4.41134e-14
5.06482e-14
2.99421e-14
8.00213e-15
7.93593e-15
7.62176e-15
7.70301e-15
7.94443e-15
6.0623e-15
7.82461e-15
7.61348e-15
7.55413e-15
6.80347e-15
6.05727e-15
6.0528e-15
9.14428e-13
9.54547e-13
8.52845e-13
9.83718e-13
1.12739e-12
6.45298e-13
3.82275e-13
3.81518e-13
3.80481e-13
3.77866e-13
3.75118e-13
3.57363e-13
3.04222e-14
3.09287e-14
2.96679e-14
3.18817e-14
3.37461e-14
2.60908e-14
6.1543e-11
6.39453e-11
6.25624e-11
6.5842e-11
7.43526e-11
6.40755e-11
3.91595e-12
4.08765e-12
3.61656e-12
4.21543e-12
4.80656e-12
2.84298e-12
2.50647e-13
2.60745e-13
2.36492e-13
2.71291e-13
3.05558e-13
1.86729e-13
5.48669e-09
5.58304e-09
5.37512e-09
5.68981e-09
5.88522e-09
4.86991e-09
1.64149e-10
1.6711e-10
1.65181e-10
1.71843e-10
1.77361e-10
1.5685e-10
1.80583e-11
1.90146e-11
1.68495e-11
2.09267e-11
2.39e-11
1.22559e-11
1.58273e-09
1.60072e-09
1.75234e-09
1.67477e-09
1.67667e-09
2.10237e-09
4.38558e-11
4.42647e-11
4.75961e-11
4.59934e-11
4.60193e-11
5.55416e-11
8.78574e-12
8.8278e-12
8.9084e-12
8.93326e-12
8.88993e-12
9.28139e-12
2.5371e-08
2.51054e-08
2.59069e-08
2.56674e-08
2.42487e-08
2.77828e-08
6.79202e-12
6.80069e-12
6.81147e-12
6.87396e-12
6.85481e-12
7.04607e-12
5.31993e-12
5.29944e-12
5.23995e-12
5.31852e-12
5.33629e-12
5.2478e-12
2.12408e-09
2.07518e-09
2.06023e-09
2.15468e-09
2.07429e-09
2.04431e-09
8.74917e-12
8.98778e-12
8.9181e-12
7.52865e-12
7.023e-12
9.2583e-12
5.3077e-12
5.31416e-12
5.22692e-12
5.3529e-12
5.36891e-12
5.23328e-12
-3.72237e-13
-3.74811e-13
-3.91603e-13
-4.71813e-13
-7.29297e-13
-4.51352e-13
1.16158e-11
1.16503e-11
1.13478e-11
1.18503e-11
1.19078e-11
1.11852e-11
3.66848e-12
3.71269e-12
3.62237e-12
3.77386e-12
3.84249e-12
3.6372e-12
-1.72232e-10
-7.96964e-11
-9.64877e-11
-1.02903e-10
-9.58925e-16
-9.72499e-11
1.6665e-12
1.57275e-12
1.60713e-12
1.54583e-12
1.42973e-12
1.27876e-12
8.94306e-22
9.51192e-22
9.37708e-22
1.05486e-16
7.47277e-22
7.43251e-22
-1.70001e-07
-1.8994e-07
-1.8396e-07
-2.1257e-07
-2.37469e-07
-2.22172e-07
1.14726e-10
-4.16548e-12
-6.11872e-12
4.78734e-10
1.70472e-09
1.39973e-10
1.22855e-07
1.1836e-07
1.10653e-07
1.23302e-07
1.2311e-07
1.22945e-07
-7.72321e-09
-5.02908e-08
-1.19282e-07
-3.67652e-08
-3.68793e-08
-5.67265e-08
5.32765e-10
5.6974e-10
6.03807e-10
1.00852e-09
1.48389e-09
3.622e-09
2.05496e-11
1.79782e-09
1.22129e-08
1.87637e-09
7.39305e-08
4.56101e-08
0.174221
0.173676
0.172798
0.178722
0.181227
0.173071
3.05506e-10
3.48135e-10
5.29043e-10
5.67059e-10
1.97494e-09
2.5949e-09
7.76981e-07
6.19434e-07
5.11578e-07
1.89598e-06
4.30419e-06
4.41321e-07
)
;

boundaryField
{
    seabed_topleft_surface
    {
        type            zeroGradient;
    }
    seabed_topright_surface
    {
        type            zeroGradient;
    }
    breakwater_top_surface
    {
        type            zeroGradient;
    }
    breakwater_left_surface
    {
        type            zeroGradient;
    }
    breakwater_right_surface
    {
        type            zeroGradient;
    }
    water_front_surface
    {
        type            zeroGradient;
    }
    water_back_surface
    {
        type            zeroGradient;
    }
    water_left_surface
    {
        type            zeroGradient;
    }
    water_right_surface
    {
        type            zeroGradient;
    }
    water_top_surface
    {
        type            inletOutlet;
        inletValue      uniform 0;
        value           nonuniform List<scalar> 
180
(
0
0
0
0
0
0
0
0
0
0
0
0
3.11309e-16
3.10743e-16
3.10896e-16
3.11243e-16
3.10943e-16
3.1143e-16
5.7982e-13
5.78776e-13
5.79074e-13
5.7967e-13
5.79107e-13
5.79857e-13
2.00663e-10
2.00296e-10
2.00411e-10
2.00605e-10
2.00409e-10
2.00609e-10
3.84409e-08
3.835e-08
3.83816e-08
3.84135e-08
3.83725e-08
3.84136e-08
3.09869e-06
3.0957e-06
3.09703e-06
3.0985e-06
3.09839e-06
3.09977e-06
5.74426e-06
5.76084e-06
5.75343e-06
5.75367e-06
5.75485e-06
5.74237e-06
0
0
0
0
0
0
0
0
0
0
0
0
0
0
0
0
0
0
0
0
0
0
0
0
0
0
0
0
0
0
0
0
0
0
0
0
0
0
0
0
0
0
0
0
0
0
0
0
0
0
0
0
0
0
0
0
0
0
0
0
7.82461e-15
7.61348e-15
7.55413e-15
6.80347e-15
6.05727e-15
6.0528e-15
3.04222e-14
3.09287e-14
2.96679e-14
3.18817e-14
3.37461e-14
2.60908e-14
2.50647e-13
2.60745e-13
2.36492e-13
2.71291e-13
3.05558e-13
1.86729e-13
1.80583e-11
1.90146e-11
1.68495e-11
2.09267e-11
2.39e-11
1.22559e-11
8.78574e-12
8.8278e-12
8.9084e-12
8.93326e-12
8.88993e-12
9.28139e-12
5.31993e-12
5.29944e-12
5.23995e-12
5.31852e-12
5.33629e-12
5.2478e-12
0
0
0
0
0
0
0
0
0
0
0
0
0
0
0
0
0
0
0
0
0
0
0
0
0
0
0
0
0
0
0
0
0
0
0
0
)
;
    }
}


// ************************************************************************* //
