/*--------------------------------*- C++ -*----------------------------------*\
| =========                 |                                                 |
| \\      /  F ield         | OpenFOAM: The Open Source CFD Toolbox           |
|  \\    /   O peration     | Version:  v1612+                                |
|   \\  /    A nd           | Web:      www.OpenFOAM.com                      |
|    \\/     M anipulation  |                                                 |
\*---------------------------------------------------------------------------*/
FoamFile
{
    version     2.0;
    format      ascii;
    class       volScalarField;
    location    "4.75";
    object      p;
}
// * * * * * * * * * * * * * * * * * * * * * * * * * * * * * * * * * * * * * //

dimensions      [1 -1 -2 0 0 0 0];

internalField   nonuniform List<scalar> 
1116
(
1985.51
1985.51
1985.51
1985.5
1985.5
1985.53
2024.02
2024.01
2024.01
2024.01
2024.01
2024.03
2135.53
2135.52
2135.52
2135.51
2135.52
2135.54
2579.51
2579.5
2579.49
2579.49
2579.5
2579.52
4180.07
4180
4180.01
4180.02
4180.02
4180.06
8001.52
8001.44
8001.46
8001.43
8001.4
8001.46
13379.2
13379.1
13379.1
13379.1
13379.1
13379.1
17237.8
17237.9
17237.8
17237.8
17237.8
17237.8
19189
19189.4
19189.3
19189.3
19189.3
19189.1
20750.4
20750.5
20750.5
20750.5
20750.5
20750.4
22694.6
22694
22694.3
22694.3
22694.2
22694.5
22695.3
22695.3
22695.4
22695.4
22695.4
22695.6
26.073
26.0733
26.0732
26.0732
26.0732
26.0729
33.8609
33.861
33.8609
33.8608
33.8606
33.8603
65.7646
65.7643
65.7641
65.7638
65.7639
65.7643
122.161
122.156
122.155
122.155
122.156
122.16
220.638
220.547
220.572
220.579
220.564
220.608
1416.82
1416.58
1416.69
1416.65
1416.58
1416.69
4319.65
4319.39
4319.43
4319.43
4319.34
4319.48
7467.99
7467.63
7467.85
7467.9
7467.73
7467.9
8334.31
8333.55
8334.21
8334.2
8333.8
8334.22
10011.7
10010.9
10011.3
10011.3
10011.1
10011.5
10698.2
10697.1
10697.6
10697.6
10697.2
10698.2
10598.9
10598.8
10598.8
10598.9
10598.9
10599.1
30.8403
30.8401
30.84
30.84
30.84
30.8399
33.1368
33.1368
33.1366
33.1365
33.1363
33.1359
43.7015
43.7016
43.7016
43.7014
43.7014
43.7011
62.1049
62.1015
62.1013
62.1007
62.1002
62.1009
65.4098
65.4098
65.4086
65.4097
65.4131
65.4104
210.284
210.2
210.233
210.239
210.219
210.272
564.734
563.725
564.108
564.1
563.823
564.384
3423.95
3423.7
3423.78
3423.84
3423.73
3423.91
4088.12
4089.27
4088.7
4088.75
4089.18
4088.59
3468.87
3472.96
3471.16
3470.92
3472.16
3469.96
2127.55
2128.87
2128.36
2128.15
2128.35
2128.28
2204.33
2203.22
2203.8
2203.6
2202.9
2204.97
5.3436
5.34381
5.34376
5.3439
5.34403
5.34384
10.816
10.8163
10.8163
10.8164
10.8166
10.8165
21.402
21.4015
21.4017
21.4017
21.4016
21.4018
34.3567
34.3495
34.3518
34.3521
34.3498
34.3525
39.4058
39.4042
39.4042
39.4064
39.4083
39.4083
47.5378
47.3961
47.4411
47.4882
47.4479
47.5047
179.27
179.126
179.16
179.311
179.252
179.234
380.666
380.858
380.703
380.871
380.951
380.732
338.559
338.966
338.725
338.833
338.981
338.715
-94.5694
-94.3988
-94.4965
-94.4425
-94.3981
-94.5779
-38.9657
-38.9603
-38.9696
-38.9639
-38.9568
-38.9898
55.489
55.4263
55.4407
55.395
55.3627
55.5129
62.4257
62.4171
62.3767
62.3408
62.3266
62.1564
67.1807
67.2167
67.1048
67.0544
67.0903
66.6573
73.7195
73.8429
73.631
73.5612
73.6565
73.0015
77.8964
78.1139
77.6892
77.608
77.8227
76.4675
80.1713
80.8577
79.5757
80.4337
82.3179
75.9559
50.2254
51.6057
50.8792
53.9743
54.4073
46.8954
145.038
144.158
143.771
137.56
119.185
146.01
931.672
917.174
901.819
857.319
768.331
873.355
2593.88
2588.73
2596.99
2590.58
2577.4
2595.71
1970.29
1957.1
1988
1890.09
1843.89
2025.62
1056.16
1053.46
1052.18
1042.21
1027.37
1053.48
1047.86
1047.28
1046.04
1042.3
1040.1
1046.67
43.464
43.4699
43.4533
43.4485
43.4713
43.3313
44.1044
44.168
44.1051
44.1479
44.2825
43.8659
37.0741
37.2107
37.188
37.2639
37.4517
37.19
-17.4801
-17.3047
-16.895
-16.5338
-16.1755
-15.499
-141.134
-140.514
-139.637
-138.164
-136.577
-135.225
-157.626
-157.531
-157.713
-157.143
-157.654
-158.127
-86.0601
-87.2836
-88.4876
-90.314
-93.9211
-90.9393
28.1955
27.4169
27.3204
24.8309
21.2822
26.7517
252.862
247.851
250.094
221.58
183.631
248.462
497.755
490.145
495.263
424.424
372.98
510.569
510.949
509.095
525.338
495.12
459.79
540.094
862.83
861.47
858.882
857.317
844.746
851.051
16.0894
16.0958
16.097
16.0996
16.1238
16.0745
11.8609
11.892
11.8916
11.93
12.0225
11.8697
-1.95763
-1.86789
-1.81563
-1.7158
-1.57477
-1.67254
-48.0399
-47.9606
-47.6786
-47.5754
-47.494
-46.8555
-109.017
-108.975
-108.834
-108.698
-108.56
-108.601
-113.634
-113.729
-113.775
-112.944
-111.621
-113.305
-76.8644
-76.9314
-77.0112
-76.3412
-75.18
-77.4277
-44.5468
-44.6501
-44.5996
-44.1627
-43.2406
-44.7124
-24.3752
-25.3044
-25.9918
-28.5035
-33.1806
-28.3677
100.781
101.207
106.53
84.0789
47.2233
105.87
504.805
513.543
522.521
517.54
643.197
543.78
833.878
836.208
823.493
816.049
815.38
804.828
-9.09771
-9.09821
-9.10076
-9.10517
-9.10161
-9.10928
-14.0919
-14.1023
-14.1142
-14.1503
-14.1626
-14.1201
-25.4479
-25.3947
-25.3514
-25.2504
-25.1513
-25.2865
-53.0213
-53.0162
-52.9359
-52.923
-52.884
-52.6579
-88.6793
-88.8148
-88.6933
-88.8262
-88.8077
-88.2901
-103.62
-103.86
-103.817
-103.969
-103.911
-103.733
-74.9313
-75.0092
-75.048
-75.0604
-75.0801
-75.2082
-52.64
-52.6168
-52.5403
-52.3376
-51.9764
-52.4585
-47.6102
-47.6279
-47.64
-47.615
-47.6392
-47.7087
-28.5615
-27.9919
-27.5675
-30.1919
-32.7638
-27.6178
48.1274
57.9646
67.075
19.3954
-10.4832
64.6864
-972.899
-945.247
-888.651
-795.922
-37.5144
-713.484
-10.5044
-10.5045
-10.5044
-10.5043
-10.5041
-10.5038
-36.3613
-36.361
-36.3608
-36.3608
-36.3609
-36.3611
-56.4622
-56.4623
-56.4624
-56.4624
-56.4624
-56.4621
-9.31681
-9.31653
-9.31637
-9.31619
-9.31601
-9.31596
-35.7631
-35.7618
-35.7615
-35.7613
-35.7614
-35.7624
-56.2615
-56.2622
-56.2624
-56.2624
-56.2623
-56.2614
-7.09191
-7.09283
-7.09278
-7.09261
-7.09267
-7.09217
-34.1322
-34.1316
-34.1317
-34.1316
-34.1316
-34.1319
-57.753
-57.753
-57.753
-57.7529
-57.753
-57.753
-9.74473
-9.74727
-9.7473
-9.74658
-9.74676
-9.74576
-36.6544
-36.6504
-36.652
-36.652
-36.6509
-36.6529
-58.0215
-58.0206
-58.021
-58.021
-58.021
-58.0216
3.52254
3.51194
3.51701
3.52168
3.5186
3.52457
-37.0937
-37.0932
-37.0935
-37.0932
-37.0938
-37.0939
-63.4721
-63.4725
-63.473
-63.4729
-63.4736
-63.4734
-94.8546
-94.8501
-94.8533
-94.857
-94.8537
-94.8576
-104.658
-104.651
-104.658
-104.66
-104.657
-104.665
-83.3397
-83.3386
-83.3412
-83.3418
-83.3415
-83.3447
-131.837
-131.832
-131.831
-131.831
-131.83
-131.835
-126.847
-126.859
-126.856
-126.858
-126.86
-126.858
-88.8783
-88.8778
-88.8787
-88.882
-88.8826
-88.8855
-112.908
-112.897
-112.898
-112.897
-112.896
-112.9
-119.535
-119.543
-119.535
-119.536
-119.538
-119.531
-80.776
-80.7722
-80.7729
-80.7774
-80.7779
-80.785
-81.5907
-81.5753
-81.5799
-81.5798
-81.5777
-81.579
-95.9709
-95.9702
-95.9673
-95.9684
-95.9688
-95.9656
-77.509
-77.5076
-77.5075
-77.5086
-77.5084
-77.5106
-69.0027
-68.9997
-69.0026
-69.0045
-69.0075
-69.0021
-74.1608
-74.1617
-74.161
-74.1625
-74.1641
-74.1593
-75.5437
-75.5427
-75.5427
-75.5431
-75.543
-75.5447
-41.1268
-41.141
-41.1376
-41.1461
-41.1522
-41.136
-52.4936
-52.493
-52.4949
-52.4979
-52.4995
-52.4943
-71.5945
-71.5936
-71.5939
-71.5941
-71.5942
-71.5933
29.498
29.4854
29.4946
29.4672
29.4965
29.4802
-48.6385
-48.6404
-48.6402
-48.6405
-48.6434
-48.6372
-73.2777
-73.2783
-73.2787
-73.2809
-73.2855
-73.2733
1394.74
1394.9
1395.1
1395.8
1396.99
1395.41
-50.708
-50.6794
-50.6446
-50.745
-50.7771
-50.4712
-69.6656
-69.6471
-69.6203
-69.588
-69.5456
-69.5424
1418.74
1418.9
1419.08
1418.4
1417.93
1419.56
-53.2254
-53.213
-53.204
-53.247
-53.2942
-53.077
-68.5164
-68.5022
-68.4877
-68.4535
-68.4067
-68.453
1415.68
1415.73
1415.88
1415.64
1415.64
1416.17
-53.1949
-53.2161
-53.2139
-53.2159
-53.2343
-53.2351
-67.2575
-67.2551
-67.2543
-67.2507
-67.2424
-67.2493
1315.38
1315.27
1316.3
1312.87
1311.12
1318
-52.0934
-52.0982
-52.1011
-52.1154
-52.1201
-52.1013
-68.3923
-68.3868
-68.3923
-68.3791
-68.3603
-68.4119
1138.36
1138.47
1139.01
1137.96
1137.77
1139.63
-49.9622
-49.968
-49.9662
-49.9714
-49.9743
-49.9702
-70.1515
-70.1449
-70.1508
-70.1413
-70.1184
-70.1679
879.261
879.27
879.597
879.085
879.158
879.783
-48.5547
-48.5562
-48.5558
-48.5551
-48.5553
-48.5585
-75.2324
-75.2312
-75.2321
-75.2347
-75.2336
-75.2315
-29.0148
-29.015
-29.0158
-29.017
-29.0164
-29.0191
-45.7259
-45.7258
-45.7257
-45.7256
-45.7251
-45.7262
-61.2108
-61.2108
-61.2107
-61.2106
-61.2104
-61.2106
-32.3477
-32.3476
-32.3485
-32.3501
-32.3469
-32.3501
-47.3067
-47.3059
-47.3048
-47.3033
-47.301
-47.3033
-61.5893
-61.5891
-61.5887
-61.5881
-61.5874
-61.5879
-39.0186
-39.0067
-38.9937
-38.9719
-38.947
-38.9686
-50.4526
-50.4483
-50.4424
-50.4342
-50.425
-50.4316
-62.4233
-62.4222
-62.4206
-62.4183
-62.4161
-62.418
-50.6951
-50.6875
-50.6634
-50.647
-50.6168
-50.5598
-55.1819
-55.174
-55.164
-55.1481
-55.1309
-55.1354
-63.6267
-63.6244
-63.6221
-63.6175
-63.613
-63.6179
-64.1722
-64.1843
-64.1206
-64.1129
-64.0501
-63.9016
-60.8489
-60.8399
-60.823
-60.8039
-60.7789
-60.7727
-64.9837
-64.9809
-64.9781
-64.9728
-64.9677
-64.9699
-63.6334
-63.6145
-63.5515
-63.5167
-63.4298
-63.4041
-64.5011
-64.4946
-64.4795
-64.4642
-64.4422
-64.4308
-66.0107
-66.0087
-66.0052
-66.0001
-65.996
-65.9972
-61.2149
-61.2151
-61.1937
-61.1549
-61.0696
-61.1865
-63.1047
-63.1032
-63.097
-63.0892
-63.0791
-63.0824
-65.7536
-65.7521
-65.7493
-65.7458
-65.7418
-65.7453
-55.0432
-55.0358
-55.0145
-54.9667
-54.8998
-55
-61.2806
-61.2769
-61.2678
-61.258
-61.2459
-61.2454
-65.8016
-65.7994
-65.7957
-65.7914
-65.7866
-65.7893
-50.0614
-50.1149
-50.1471
-50.1694
-50.0937
-50.296
-59.7413
-59.7358
-59.7204
-59.7249
-59.7088
-59.6988
-65.7303
-65.7297
-65.7265
-65.7213
-65.7115
-65.7259
-48.3536
-48.3156
-48.2733
-48.174
-47.8702
-48.2778
-59.857
-59.8279
-59.7754
-59.8115
-59.7611
-59.6815
-66.6091
-66.6022
-66.5887
-66.5642
-66.5256
-66.5784
-50.9844
-50.9318
-51.249
-49.1048
-45.1736
-50.7599
-57.9116
-57.8522
-57.7346
-57.5469
-57.1242
-57.3672
-68.3929
-68.375
-68.3337
-68.2285
-68.1263
-68.2436
749.287
747.521
744.175
774.102
790.143
748.543
-54.6592
-54.5905
-54.4897
-54.4374
-54.1856
-54.145
-76.615
-76.5614
-76.4725
-76.3456
-76.1732
-76.217
)
;

boundaryField
{
    seabed_topleft_surface
    {
        type            calculated;
        value           nonuniform List<scalar> 
72
(
3924.17
3924.16
3924.17
3924.15
3924.16
3924.2
3994.92
3994.91
3994.92
3994.9
3994.91
3994.96
4216.95
4216.94
4216.94
4216.93
4216.94
4216.99
4987.8
4987.78
4987.78
4987.77
4987.79
4987.83
7334.85
7334.77
7334.79
7334.8
7334.8
7334.87
12295.6
12295.5
12295.5
12295.5
12295.4
12295.5
18174.1
18174.1
18174
18174
18174
18174
22032.7
22032.8
22032.8
22032.8
22032.8
22032.7
23984
23984.3
23984.2
23984.2
23984.2
23984.1
25545.3
25545.4
25545.4
25545.4
25545.4
25545.3
27489.3
27488.8
27489
27489
27488.9
27489.3
27489.4
27489.4
27489.5
27489.5
27489.5
27489.7
)
;
    }
    seabed_topright_surface
    {
        type            calculated;
        value           nonuniform List<scalar> 
72
(
67.3476
67.339
67.2986
67.2627
67.2485
67.0783
72.1027
72.1387
72.0268
71.9764
72.0123
71.5793
78.6478
78.7712
78.5586
78.4889
78.5849
77.9276
82.9739
83.1921
82.7515
82.6749
82.9017
81.4976
103.564
103.548
99.6553
101.227
104.046
90.6591
195.026
196.142
193.828
197.721
203.788
184.62
341.654
343.003
345.917
338.164
324.905
355.832
1134.86
1123.31
1110.93
1064.47
979.563
1091.85
2804.17
2801.94
2814.2
2806.3
2797.66
2822.12
2170.58
2158.21
2194.26
2081.31
2032.36
2240.86
1124.24
1121.22
1123.85
1108.67
1091.97
1130.86
1053.92
1053.22
1051.88
1048.04
1045.68
1052.56
)
;
    }
    breakwater_top_surface
    {
        type            calculated;
        value           nonuniform List<scalar> 
36
(
2858.33
2858.57
2858.87
2859.52
2860.77
2859.54
2884.52
2884.74
2884.97
2884.38
2884.01
2885.69
2877.93
2878.07
2878.32
2877.98
2877.95
2879.06
2677.09
2676.82
2679.09
2671.74
2667.84
2682.9
2330.5
2330.67
2331.87
2329.59
2328.97
2333.34
1839.03
1839.02
1839.73
1838.67
1838.77
1840.17
)
;
    }
    breakwater_left_surface
    {
        type            calculated;
        value           nonuniform List<scalar> 
24
(
22711.7
22711.7
22711.8
22711.8
22711.8
22712
10614.9
10614.8
10614.8
10614.9
10614.9
10615.1
2211.72
2210.6
2211.19
2210.98
2210.28
2212.36
55.5082
55.4456
55.46
55.4143
55.3819
55.5321
)
;
    }
    breakwater_right_surface
    {
        type            calculated;
        value           nonuniform List<scalar> 
24
(
1047.88
1047.3
1046.06
1042.32
1040.12
1046.69
862.85
861.49
858.901
857.336
844.765
851.07
834.456
836.845
824.346
816.345
815.397
805.85
-969.69
-942.035
-885.437
-792.707
-34.3018
-710.276
)
;
    }
    water_front_surface
    {
        type            calculated;
        value           nonuniform List<scalar> 
186
(
1985.51
2024.02
2135.53
2579.51
4180.07
8001.52
13379.2
17237.8
19189
20750.4
22694.6
22695.3
26.073
33.8609
65.7646
122.161
220.638
1416.82
4319.65
7467.99
8334.31
10011.7
10698.2
10598.9
30.8403
33.1368
43.7015
62.1049
65.4098
210.284
564.734
3423.95
4088.12
3468.87
2127.55
2204.33
5.3436
10.816
21.402
34.3567
39.4058
47.5378
179.27
380.666
338.559
-94.5694
-38.9657
55.489
62.4257
67.1807
73.7195
77.8964
80.1713
50.2254
145.038
931.672
2593.88
1970.29
1056.16
1047.86
43.464
44.1044
37.0741
-17.4801
-141.134
-157.626
-86.0601
28.1955
252.862
497.755
510.949
862.83
16.0894
11.8609
-1.95763
-48.0399
-109.017
-113.634
-76.8644
-44.5468
-24.3752
100.781
504.805
833.878
-9.09771
-14.0919
-25.4479
-53.0213
-88.6793
-103.62
-74.9313
-52.64
-47.6102
-28.5615
48.1274
-972.899
-10.5044
-36.3613
-56.4622
-9.31681
-35.7631
-56.2615
-7.09191
-34.1322
-57.753
-9.74473
-36.6544
-58.0215
3.52254
-37.0937
-63.4721
-94.8546
-104.658
-83.3397
-131.837
-126.847
-88.8783
-112.908
-119.535
-80.776
-81.5907
-95.9709
-77.509
-69.0027
-74.1608
-75.5437
-41.1268
-52.4936
-71.5945
29.498
-48.6385
-73.2777
1394.74
-50.708
-69.6656
1418.74
-53.2254
-68.5164
1415.68
-53.1949
-67.2575
1315.38
-52.0934
-68.3923
1138.36
-49.9622
-70.1515
879.261
-48.5547
-75.2324
-29.0148
-45.7259
-61.2108
-32.3477
-47.3067
-61.5893
-39.0186
-50.4526
-62.4233
-50.6951
-55.1819
-63.6267
-64.1722
-60.8489
-64.9837
-63.6334
-64.5011
-66.0107
-61.2149
-63.1047
-65.7536
-55.0432
-61.2806
-65.8016
-50.0614
-59.7413
-65.7303
-48.3536
-59.857
-66.6091
-50.9844
-57.9116
-68.3929
749.287
-54.6592
-76.615
)
;
    }
    water_back_surface
    {
        type            calculated;
        value           nonuniform List<scalar> 
186
(
1985.53
2024.03
2135.54
2579.52
4180.06
8001.46
13379.1
17237.8
19189.1
20750.4
22694.5
22695.6
26.0729
33.8603
65.7643
122.16
220.608
1416.69
4319.48
7467.9
8334.22
10011.5
10698.2
10599.1
30.8399
33.1359
43.7011
62.1009
65.4104
210.272
564.384
3423.91
4088.59
3469.96
2128.28
2204.97
5.34384
10.8165
21.4018
34.3525
39.4083
47.5047
179.234
380.732
338.715
-94.5779
-38.9898
55.5129
62.1564
66.6573
73.0015
76.4675
75.9559
46.8954
146.01
873.355
2595.71
2025.62
1053.48
1046.67
43.3313
43.8659
37.19
-15.499
-135.225
-158.127
-90.9393
26.7517
248.462
510.569
540.094
851.051
16.0745
11.8697
-1.67254
-46.8555
-108.601
-113.305
-77.4277
-44.7124
-28.3677
105.87
543.78
804.828
-9.10928
-14.1201
-25.2865
-52.6579
-88.2901
-103.733
-75.2082
-52.4585
-47.7087
-27.6178
64.6864
-713.484
-10.5038
-36.3611
-56.4621
-9.31596
-35.7624
-56.2614
-7.09217
-34.1319
-57.753
-9.74576
-36.6529
-58.0216
3.52457
-37.0939
-63.4734
-94.8576
-104.665
-83.3447
-131.835
-126.858
-88.8855
-112.9
-119.531
-80.785
-81.579
-95.9656
-77.5106
-69.0021
-74.1593
-75.5447
-41.136
-52.4943
-71.5933
29.4802
-48.6372
-73.2733
1395.41
-50.4712
-69.5424
1419.56
-53.077
-68.453
1416.17
-53.2351
-67.2493
1318
-52.1013
-68.4119
1139.63
-49.9702
-70.1679
879.783
-48.5585
-75.2315
-29.0191
-45.7262
-61.2106
-32.3501
-47.3033
-61.5879
-38.9686
-50.4316
-62.418
-50.5598
-55.1354
-63.6179
-63.9016
-60.7727
-64.9699
-63.4041
-64.4308
-65.9972
-61.1865
-63.0824
-65.7453
-55
-61.2454
-65.7893
-50.296
-59.6988
-65.7259
-48.2778
-59.6815
-66.5784
-50.7599
-57.3672
-68.2436
748.543
-54.145
-76.217
)
;
    }
    water_left_surface
    {
        type            calculated;
        value           nonuniform List<scalar> 
42
(
1992.15
1992.14
1992.15
1992.14
1992.14
1992.16
26.0895
26.0898
26.0898
26.0898
26.0897
26.0895
30.8565
30.8563
30.8562
30.8562
30.8562
30.8561
5.35947
5.35968
5.35964
5.35977
5.35991
5.35971
-10.5044
-10.5045
-10.5044
-10.5043
-10.5041
-10.5038
-36.3613
-36.361
-36.3608
-36.3608
-36.3609
-36.3611
-56.4622
-56.4623
-56.4624
-56.4624
-56.4624
-56.4621
)
;
    }
    water_right_surface
    {
        type            calculated;
        value           nonuniform List<scalar> 
42
(
62.4425
62.4339
62.3936
62.3576
62.3434
62.1733
43.4805
43.4864
43.4698
43.4651
43.4878
43.3478
16.1056
16.112
16.1132
16.1158
16.14
16.0907
-9.08184
-9.08234
-9.08488
-9.0893
-9.08573
-9.09341
-29.0148
-29.015
-29.0158
-29.017
-29.0164
-29.0191
-45.7259
-45.7258
-45.7257
-45.7256
-45.7251
-45.7262
-61.2108
-61.2108
-61.2107
-61.2106
-61.2104
-61.2106
)
;
    }
    water_top_surface
    {
        type            calculated;
        value           nonuniform List<scalar> 
180
(
-68.6762
-68.6762
-68.6762
-68.6762
-68.6762
-68.6762
-68.67
-68.67
-68.67
-68.67
-68.67
-68.67
-68.67
-68.67
-68.67
-68.67
-68.67
-68.67
-68.67
-68.67
-68.67
-68.67
-68.67
-68.67
-68.67
-68.67
-68.67
-68.67
-68.67
-68.67
-68.6726
-68.6726
-68.6726
-68.6726
-68.6726
-68.6726
-68.8826
-68.8824
-68.8825
-68.8826
-68.8826
-68.8826
-69.0641
-69.0652
-69.0647
-69.0647
-69.0648
-69.0639
-77.1264
-77.1137
-77.1194
-77.12
-77.1176
-77.1257
-80.5556
-80.5476
-80.5495
-80.5504
-80.55
-80.5532
-75.663
-75.6591
-75.6588
-75.6603
-75.6612
-75.6557
-71.2471
-71.2513
-71.2486
-71.2491
-71.2538
-71.2418
-70.9527
-70.9818
-70.9646
-70.9626
-71.0423
-70.9077
-70.5196
-70.5289
-70.5281
-70.4813
-70.4688
-70.5179
-71.1909
-71.1906
-71.187
-71.2146
-71.2882
-71.0776
-73.1817
-73.2013
-73.1539
-73.2687
-73.4009
-73.0225
-73.3991
-73.4203
-73.3837
-73.4561
-73.5595
-73.2876
-71.3731
-71.3829
-71.3725
-71.388
-71.4179
-71.3408
-68.67
-68.67
-68.67
-68.67
-68.67
-68.67
-68.67
-68.67
-68.67
-68.67
-68.67
-68.67
-68.67
-68.67
-68.67
-68.67
-68.67
-68.67
-68.67
-68.67
-68.67
-68.67
-68.67
-68.67
-68.67
-68.67
-68.67
-68.67
-68.67
-68.67
-68.67
-68.67
-68.67
-68.67
-68.67
-68.67
-68.6917
-68.6916
-68.6915
-68.6913
-68.6912
-68.6913
-69.8541
-69.8518
-69.8516
-69.8496
-69.8484
-69.8461
-69.5772
-69.5773
-69.5775
-69.5685
-69.5577
-69.5822
-73.9112
-73.9116
-73.8937
-73.894
-73.8766
-73.8584
-74.7509
-74.7619
-74.7182
-74.6513
-74.6112
-74.6209
-70.9401
-70.9091
-70.9178
-70.8153
-70.5608
-70.8806
)
;
    }
}


// ************************************************************************* //
