/*--------------------------------*- C++ -*----------------------------------*\
| =========                 |                                                 |
| \\      /  F ield         | OpenFOAM: The Open Source CFD Toolbox           |
|  \\    /   O peration     | Version:  v1612+                                |
|   \\  /    A nd           | Web:      www.OpenFOAM.com                      |
|    \\/     M anipulation  |                                                 |
\*---------------------------------------------------------------------------*/
FoamFile
{
    version     2.0;
    format      ascii;
    class       volScalarField;
    location    "6.5";
    object      p_rgh;
}
// * * * * * * * * * * * * * * * * * * * * * * * * * * * * * * * * * * * * * //

dimensions      [1 -1 -2 0 0 0 0];

internalField   nonuniform List<scalar> 
1116
(
20515
20515
20515
20515
20515
20515
20503.6
20503.7
20503.6
20503.6
20503.6
20503.6
18204
18203.7
18203.8
18203.9
18203.9
18203.9
15301.4
15301.1
15301.2
15301.4
15301.3
15301.4
13214.1
13214.3
13214.2
13214.4
13214.4
13214.1
11807.4
11808.1
11807.7
11808
11807.8
11807.7
10974.1
10975.7
10975.1
10974.8
10973.8
10975.5
10622.6
10621.8
10622.1
10623
10624.9
10620.4
10825.4
10824.4
10824.8
10826.2
10828.1
10823.3
11381.3
11387.2
11384.1
11384
11379
11389.9
11919.9
11911.5
11917.2
11915.2
11925.9
11907
11515.5
11501.4
11507.7
11513.2
11529
11498.4
22109.3
22108.3
22108.7
22109
22108.7
22109
20985.5
20986
20985.7
20985.6
20985.8
20985.6
16601.2
16597.9
16599.1
16600.4
16600.1
16599.9
9103.53
9099.44
9100.8
9102.57
9101.48
9102.47
5847.47
5847.95
5848.03
5847.48
5846.79
5848.94
4344.16
4346.55
4346.03
4344.52
4344.04
4346.4
3473.71
3476.86
3476.87
3473.65
3472.59
3476.84
3050.89
3042.99
3043.66
3050.1
3057.84
3039.01
3931.26
3931.19
3929.9
3933.41
3926.67
3938.15
5437.82
5459.47
5449.34
5446.38
5419.61
5473.94
5959.8
5895.36
5918.38
5944.79
6001.8
5861.62
4662.68
4594.74
4611.02
4654.15
4711.09
4581.63
22397.4
22396.5
22396.7
22396.9
22396.7
22396.9
9380.7
9378.8
9380.26
9379.84
9379.45
9381.1
1641.39
1637.8
1639.25
1640.2
1639.17
1640.47
9.58281
10.0111
9.88082
9.77956
9.80021
9.84743
-22.8978
-23.3432
-23.1537
-23.076
-23.0204
-23.0976
-20.2493
-20.7131
-20.49
-20.5937
-20.474
-20.5055
99.8333
99.366
99.4979
99.798
100.486
98.805
236.131
236.176
236.076
236.246
236.468
235.709
397.237
400.009
396.654
399.634
402.922
395.218
990.603
997.117
991.726
994.739
990.31
997.704
1281.09
1281.77
1280.83
1276.78
1263.56
1288.31
1060.44
1062.54
1061.95
1059.44
1059.97
1065.38
24771.2
24782
24778.7
24775.7
24777.9
24776.1
-14.7007
-14.8412
-14.7887
-14.7521
-14.7297
-14.7942
-0.678307
-0.643798
-0.690313
-0.665727
-0.67598
-0.689149
-10.0407
-9.93171
-9.94843
-9.96647
-9.97533
-9.91191
-25.2028
-25.5374
-25.2707
-25.3745
-25.3201
-25.222
-57.1386
-57.4155
-57.1625
-57.2821
-57.1246
-57.3675
8.71657
8.96482
8.99201
8.62021
8.58165
8.59755
149.808
145.706
144.538
149.844
155.373
141.17
566.755
558.526
558.201
565.756
574.176
548.434
587.813
584.574
589.544
584.531
582.799
588.938
544.541
542.854
548.731
538.618
543.517
544.072
865.669
866.335
866.583
864.615
866.001
866.72
3311.37
3556.42
3306.47
3411.51
3410.72
3266.33
2580.6
2670.16
2598.61
2678.08
2584.9
2533.66
1626.09
1834.57
1782.79
1865.85
1903.46
1824.53
1142.29
1060.08
1233.37
1133.35
1245.46
1308.08
817.65
483.315
734.928
566.946
748.739
967.733
613.271
489.326
639.736
555.112
669.273
832.272
670.881
810.227
842.898
836.903
808.092
839.892
788.355
832.067
845.167
835.441
829.682
831.819
813.522
825.609
841.707
859.638
866.34
662.484
972.36
1002.74
981.605
1108.67
1130.2
794.294
1406.8
1493.91
1640.86
1520.4
1501.56
1305.91
1410.5
1410.19
1493.49
1468.74
1628.23
1401.5
2827.39
2802.89
2879.23
2422.62
2429.52
2773.28
786.825
428.186
785.568
559.271
565.924
1225.93
135.656
132.09
103.942
147.85
183.789
162.774
25.5129
40.203
30.7036
39.7529
37.6486
37.5014
-17.7049
7.34497
0.237147
-1.96776
-17.4801
-23.2652
-34.1354
-22.8196
-20.7229
-26.2516
-31.1015
-27.0524
-22.8699
-24.364
-22.682
-23.3786
-16.9221
-12.1141
5.09846
7.40693
3.08026
1.70822
2.25928
4.82733
8.6908
8.69174
8.54207
9.27397
13.9458
17.1519
67.4074
45.202
59.1525
135.074
150.146
112.307
524.74
603.08
596.603
1001.5
955.304
844.484
1724.54
1812.09
1719.89
1829.46
1758.19
1890.9
2273
2554.12
2579.47
1829.47
1557.95
2622.79
44.6582
29.1842
64.1336
28.1664
22.4617
376.319
13.3367
14.4993
12.91
13.9049
15.0141
13.4315
7.5684
10.6763
7.92809
10.3788
9.39112
7.91828
12.03
12.8897
12.6573
11.4819
9.60982
8.10534
-3.62644
-3.03062
-2.91456
-3.87178
-4.85819
-5.48526
0.834012
1.8822
0.18305
-1.78882
-2.086
-0.521775
2.25896
4.59907
1.9128
-1.59769
-2.06917
0.204898
0.629349
0.348061
-1.01313
-3.97947
-1.12498
0.935177
2.98365
1.38083
2.28768
1.36922
3.41862
4.93611
72.6159
18.8026
18.202
24.0547
45.4216
24.9594
1415.06
1292
1029.19
1305.74
427.034
1567.27
2819.31
3057.47
3129.89
3054.53
2087.82
3179.94
-2.9629
-1.69288
-0.839998
-6.6915
-5.84615
62.7414
18.0177
15.898
18.5995
16.1317
14.8537
14.9738
-1.8301
-1.46074
-2.24354
-2.57242
-3.43458
-4.98406
1.28103
1.39839
1.37765
0.832489
0.336204
-0.250283
-9.96099
-11.0937
-10.6684
-8.98273
-7.78803
-7.92607
-2.01569
-2.23818
-1.60408
-2.98875
-2.67731
-1.83202
0.944122
1.02379
-0.143013
-0.73277
0.00347844
0.0807191
0.249344
0.196531
-0.787896
0.0710821
2.59384
3.03959
-3.44856
-3.39929
-4.42128
-1.61451
2.09246
-0.442717
-6.73438
-7.38655
-7.12875
23.9377
273.845
-0.0503279
245.945
-78.4308
-84.5769
-59.2833
956.795
177.784
26712.9
26714.2
26712.2
26711.8
26713
26713.3
7208.56
7182.31
7188.05
7192.75
7188.56
7196.39
45.501
42.9804
44.1204
44.5969
43.8208
44.8843
270.176
271.801
271.414
270.909
271.236
271.07
462.073
461.453
461.78
461.701
461.692
461.89
106.866
103.297
104.591
105.143
104.275
105.48
-21.6584
-21.5267
-21.6155
-21.6084
-21.639
-21.6151
-6.36382
-6.16083
-6.27608
-6.26702
-6.27258
-6.3037
-5.58124
-5.5337
-5.56452
-5.555
-5.55547
-5.57453
-21.3106
-21.3683
-21.3517
-21.2766
-21.2904
-21.2803
-11.6429
-11.3435
-11.5288
-11.4424
-11.4372
-11.5697
-10.5977
-10.0988
-10.3528
-10.3359
-10.322
-10.4558
-28.1114
-28.4594
-28.1612
-28.3062
-28.2701
-28.0799
-7.47508
-7.58031
-7.49791
-7.51038
-7.41156
-7.61407
7.12923
7.09687
7.10965
7.1936
7.33268
6.98719
-41.7976
-42.1042
-41.7513
-41.9982
-41.9058
-41.7452
-13.7847
-16.4581
-16.0298
-14.5309
-12.5689
-17.8928
14.6816
17.0463
15.8468
15.9274
17.1403
14.0929
1.31049
-0.284051
-0.0587606
0.169376
0.00921069
-1.56277
47.1594
41.2951
41.6033
45.3365
48.6076
33.6636
35.3935
31.0285
31.0907
33.7928
35.8244
33.1874
85.9734
82.378
81.8476
86.9303
91.1221
84.7352
59.9307
62.6119
62.5222
60.7209
56.5688
62.9087
-9.75933
-8.86827
-8.50126
-11.3265
-13.5857
-9.38445
62.7295
62.8798
63.9145
61.5608
56.895
68.0452
-10.8763
-10.9117
-10.9545
-10.695
-10.6556
-10.6613
-26.4175
-26.4773
-26.5297
-26.2843
-26.2248
-26.3085
10.1477
10.1013
10.0992
10.2715
10.3672
10.2285
-1.07014
-1.05726
-1.06427
-0.969402
-0.946953
-0.970736
-9.94992
-9.93828
-9.92589
-9.88134
-9.87797
-9.86962
15.2172
15.3146
15.2954
15.2962
15.2861
15.3334
1.61693
1.62272
1.62098
1.64427
1.64598
1.64594
-6.68362
-6.68768
-6.68589
-6.67891
-6.67915
-6.67769
835.656
822.861
825.596
827.127
833.386
818.41
2.902
2.91019
2.91667
2.91972
2.92408
2.92113
-11.4083
-11.3799
-11.3728
-11.365
-11.3701
-11.3419
3409.9
3447.55
3484.84
3484.19
3471.63
3428.83
4.783
5.04425
5.30612
5.34876
5.46487
5.17094
-8.20631
-8.28799
-8.39136
-8.36298
-8.32936
-8.326
3832.18
3827.24
3821.56
3836.41
3841.19
3834.01
2.7697
2.77793
2.76234
2.74637
2.70416
2.73717
-6.32817
-6.36941
-6.4298
-6.40719
-6.38506
-6.37309
3855.52
3854.04
3855.12
3860.17
3861.64
3859.01
3.60598
3.64277
3.68804
3.7212
3.75491
3.73364
-5.60207
-5.61139
-5.61918
-5.61874
-5.60405
-5.61976
3855.57
3855.71
3855.76
3855.3
3856.5
3857.94
3.31797
3.31837
3.31741
3.31381
3.31175
3.31152
-5.63521
-5.6441
-5.65243
-5.65708
-5.66252
-5.65995
3836.25
3836.32
3836.4
3834.4
3835.31
3838.5
3.72143
3.72278
3.72456
3.72688
3.72804
3.72658
-6.90886
-6.91442
-6.91701
-6.92453
-6.92901
-6.92624
3569.25
3564.14
3563.96
3558.6
3558.52
3563.85
5.18396
5.19454
5.20091
5.21246
5.22096
5.21698
-10.2347
-10.2363
-10.2355
-10.2353
-10.2363
-10.2339
3652.9
1563.43
2815.6
3127.56
1831.35
4107.86
3157.44
324.35
486.696
449.888
258.681
3526.51
134.183
112.988
1.18549
1.89066
3.71423
335.151
15.7956
5.53405
16.2129
16.7008
-1.91077
164.549
32.4649
6.16413
10.5125
14.0737
6.29357
166.165
2.53844
-1.59369
0.351032
0.430895
-1.35132
58.4191
15.6606
16.2539
16.998
14.606
15.8271
14.6997
14.6697
15.2758
15.4425
15.8041
16.8045
15.2188
6.55452
5.51013
4.97628
5.31992
5.48879
5.96117
1.9103
1.84588
1.76044
1.79537
2.00652
1.88167
0.0074299
-0.105948
-0.0517904
-0.125542
-0.132829
0.0808876
0.0806492
0.218201
0.11165
-0.267904
-0.607473
-1.03638
7.29497
7.32581
7.30422
7.2345
7.13671
7.1099
2.31808
2.28447
2.2179
2.25212
2.24548
2.30457
2.30793
2.26282
2.22718
2.24924
2.21709
2.23442
0.843552
0.903339
0.746756
0.868955
1.07432
1.42176
-1.01551
-0.996936
-1.02009
-1.05147
-1.04649
-0.959077
1.41864
1.41762
1.38476
1.3232
1.28336
1.2818
3.69571
3.69373
4.06348
4.1312
4.09809
3.9054
0.575123
0.835943
0.755882
0.275197
0.186399
0.436169
2.43782
2.39342
2.43018
2.44721
2.41992
2.41605
5.86119
5.74479
5.45386
5.0905
4.51698
4.62767
0.55562
0.76259
1.04759
0.506403
0.143619
0.132474
2.8901
2.89605
2.87923
2.66483
2.48313
2.42208
8.14103
7.98826
7.64057
6.70838
5.96862
6.12782
-0.690531
-0.62691
-0.71139
-0.664638
-0.584118
-0.551192
3.12189
3.04856
2.99561
2.76559
2.59931
2.51963
10.8151
10.8647
10.1849
10.2025
9.41979
9.75826
-2.26942
-2.25561
-2.34353
-2.15823
-2.21732
-2.09005
3.14581
3.09147
3.04923
2.91593
2.8145
2.81289
6.62191
5.78412
4.18844
3.42499
2.21945
4.35516
-2.35069
-2.42442
-2.69052
-2.5672
-3.52876
-2.68924
0.391219
0.299297
0.351048
0.12419
0.265606
0.0989419
488.113
646.711
797.062
661.412
765.268
522.437
-1.59123
-1.56547
-1.51827
-0.845909
-0.830496
-1.05807
-6.77194
-7.30908
-8.06051
-7.6229
-7.73655
-6.97511
)
;

boundaryField
{
    seabed_topleft_surface
    {
        type            fixedFluxPressure;
        gradient        uniform 0;
        value           nonuniform List<scalar> 
72
(
20515
20515
20515
20515
20515
20515
20503.6
20503.7
20503.6
20503.6
20503.6
20503.6
18204
18203.7
18203.8
18203.9
18203.9
18203.9
15301.4
15301.1
15301.2
15301.4
15301.3
15301.4
13214.1
13214.3
13214.2
13214.4
13214.4
13214.1
11807.4
11808.1
11807.7
11808
11807.8
11807.7
10974.1
10975.7
10975.1
10974.8
10973.8
10975.5
10622.6
10621.8
10622.1
10623
10624.9
10620.4
10825.4
10824.4
10824.8
10826.2
10828.1
10823.3
11381.3
11387.2
11384.1
11384
11379
11389.9
11919.9
11911.5
11917.2
11915.2
11925.9
11907
11515.5
11501.4
11507.7
11513.2
11529
11498.4
)
;
    }
    seabed_topright_surface
    {
        type            fixedFluxPressure;
        gradient        uniform 0;
        value           nonuniform List<scalar> 
72
(
3311.37
3556.42
3306.47
3411.51
3410.72
3266.33
2580.6
2670.16
2598.61
2678.08
2584.9
2533.66
1626.09
1834.57
1782.79
1865.85
1903.46
1824.53
1142.29
1060.08
1233.37
1133.35
1245.46
1308.08
817.65
483.315
734.928
566.946
748.739
967.733
613.271
489.326
639.736
555.112
669.273
832.272
670.881
810.227
842.898
836.903
808.092
839.892
788.355
832.067
845.167
835.441
829.682
831.819
813.522
825.609
841.707
859.638
866.34
662.484
972.36
1002.74
981.605
1108.67
1130.2
794.294
1406.8
1493.91
1640.86
1520.4
1501.56
1305.91
1410.5
1410.19
1493.49
1468.74
1628.23
1401.5
)
;
    }
    breakwater_top_surface
    {
        type            fixedFluxPressure;
        gradient        uniform 0;
        value           nonuniform List<scalar> 
36
(
3409.9
3447.55
3484.84
3484.19
3471.63
3428.83
3832.18
3827.24
3821.56
3836.41
3841.19
3834.01
3855.52
3854.04
3855.12
3860.17
3861.64
3859.01
3855.57
3855.71
3855.76
3855.3
3856.5
3857.94
3836.25
3836.32
3836.4
3834.4
3835.31
3838.5
3569.25
3564.14
3563.96
3558.6
3558.52
3563.85
)
;
    }
    breakwater_left_surface
    {
        type            fixedFluxPressure;
        gradient        uniform 0;
        value           nonuniform List<scalar> 
24
(
11515.5
11501.4
11507.7
11513.2
11529
11498.4
4662.68
4594.74
4611.02
4654.15
4711.09
4581.63
1060.44
1062.54
1061.95
1059.44
1059.97
1065.38
865.669
866.335
866.583
864.615
866.001
866.72
)
;
    }
    breakwater_right_surface
    {
        type            fixedFluxPressure;
        gradient        uniform 0;
        value           nonuniform List<scalar> 
24
(
1410.5
1410.19
1493.49
1468.74
1628.23
1401.5
1724.54
1812.09
1719.89
1829.46
1758.19
1890.9
1415.06
1292
1029.19
1305.74
427.034
1567.27
245.945
-78.4308
-84.5769
-59.2833
956.795
177.784
)
;
    }
    water_front_surface
    {
        type            fixedFluxPressure;
        gradient        uniform 0;
        value           nonuniform List<scalar> 
186
(
20515
20503.6
18204
15301.4
13214.1
11807.4
10974.1
10622.6
10825.4
11381.3
11919.9
11515.5
22109.3
20985.5
16601.2
9103.53
5847.47
4344.16
3473.71
3050.89
3931.26
5437.82
5959.8
4662.68
22397.4
9380.7
1641.39
9.58281
-22.8978
-20.2493
99.8333
236.131
397.237
990.603
1281.09
1060.44
24771.2
-14.7007
-0.678307
-10.0407
-25.2028
-57.1386
8.71657
149.808
566.755
587.813
544.541
865.669
3311.37
2580.6
1626.09
1142.29
817.65
613.271
670.881
788.355
813.522
972.36
1406.8
1410.5
2827.39
786.825
135.656
25.5129
-17.7049
-34.1354
-22.8699
5.09846
8.6908
67.4074
524.74
1724.54
2273
44.6582
13.3367
7.5684
12.03
-3.62644
0.834012
2.25896
0.629349
2.98365
72.6159
1415.06
2819.31
-2.9629
18.0177
-1.8301
1.28103
-9.96099
-2.01569
0.944122
0.249344
-3.44856
-6.73438
245.945
26712.9
7208.56
45.501
270.176
462.073
106.866
-21.6584
-6.36382
-5.58124
-21.3106
-11.6429
-10.5977
-28.1114
-7.47508
7.12923
-41.7976
-13.7847
14.6816
1.31049
47.1594
35.3935
85.9734
59.9307
-9.75933
62.7295
-10.8763
-26.4175
10.1477
-1.07014
-9.94992
15.2172
1.61693
-6.68362
835.656
2.902
-11.4083
3409.9
4.783
-8.20631
3832.18
2.7697
-6.32817
3855.52
3.60598
-5.60207
3855.57
3.31797
-5.63521
3836.25
3.72143
-6.90886
3569.25
5.18396
-10.2347
3652.9
3157.44
134.183
15.7956
32.4649
2.53844
15.6606
14.6697
6.55452
1.9103
0.0074299
0.0806492
7.29497
2.31808
2.30793
0.843552
-1.01551
1.41864
3.69571
0.575123
2.43782
5.86119
0.55562
2.8901
8.14103
-0.690531
3.12189
10.8151
-2.26942
3.14581
6.62191
-2.35069
0.391219
488.113
-1.59123
-6.77194
)
;
    }
    water_back_surface
    {
        type            fixedFluxPressure;
        gradient        uniform 0;
        value           nonuniform List<scalar> 
186
(
20515
20503.6
18203.9
15301.4
13214.1
11807.7
10975.5
10620.4
10823.3
11389.9
11907
11498.4
22109
20985.6
16599.9
9102.47
5848.94
4346.4
3476.84
3039.01
3938.15
5473.94
5861.62
4581.63
22396.9
9381.1
1640.47
9.84743
-23.0976
-20.5055
98.805
235.709
395.218
997.704
1288.31
1065.38
24776.1
-14.7942
-0.689149
-9.91191
-25.222
-57.3675
8.59755
141.17
548.434
588.938
544.072
866.72
3266.33
2533.66
1824.53
1308.08
967.733
832.272
839.892
831.819
662.484
794.294
1305.91
1401.5
2773.28
1225.93
162.774
37.5014
-23.2652
-27.0524
-12.1141
4.82733
17.1519
112.307
844.484
1890.9
2622.79
376.319
13.4315
7.91828
8.10534
-5.48526
-0.521775
0.204898
0.935177
4.93611
24.9594
1567.27
3179.94
62.7414
14.9738
-4.98406
-0.250283
-7.92607
-1.83202
0.0807191
3.03959
-0.442717
-0.0503279
177.784
26713.3
7196.39
44.8843
271.07
461.89
105.48
-21.6151
-6.3037
-5.57453
-21.2803
-11.5697
-10.4558
-28.0799
-7.61407
6.98719
-41.7452
-17.8928
14.0929
-1.56277
33.6636
33.1874
84.7352
62.9087
-9.38445
68.0452
-10.6613
-26.3085
10.2285
-0.970736
-9.86962
15.3334
1.64594
-6.67769
818.41
2.92113
-11.3419
3428.83
5.17094
-8.326
3834.01
2.73717
-6.37309
3859.01
3.73364
-5.61976
3857.94
3.31152
-5.65995
3838.5
3.72658
-6.92624
3563.85
5.21698
-10.2339
4107.86
3526.51
335.151
164.549
166.165
58.4191
14.6997
15.2188
5.96117
1.88167
0.0808876
-1.03638
7.1099
2.30457
2.23442
1.42176
-0.959077
1.2818
3.9054
0.436169
2.41605
4.62767
0.132474
2.42208
6.12782
-0.551192
2.51963
9.75826
-2.09005
2.81289
4.35516
-2.68924
0.0989419
522.437
-1.05807
-6.97511
)
;
    }
    water_left_surface
    {
        type            fixedFluxPressure;
        gradient        uniform 0;
        value           nonuniform List<scalar> 
42
(
20515
20515
20515
20515
20515
20515
22109.3
22108.3
22108.7
22109
22108.7
22109
22397.4
22396.5
22396.7
22396.9
22396.7
22396.9
24771.2
24782
24778.7
24775.7
24777.9
24776.1
26712.9
26714.2
26712.2
26711.8
26713
26713.3
7208.56
7182.31
7188.05
7192.75
7188.56
7196.39
45.501
42.9804
44.1204
44.5969
43.8208
44.8843
)
;
    }
    water_right_surface
    {
        type            fixedFluxPressure;
        gradient        uniform 0;
        value           nonuniform List<scalar> 
42
(
3311.37
3556.42
3306.47
3411.51
3410.72
3266.33
2827.39
2802.89
2879.23
2422.62
2429.52
2773.28
2273
2554.12
2579.47
1829.47
1557.95
2622.79
2819.31
3057.47
3129.89
3054.53
2087.82
3179.94
3652.9
1563.43
2815.6
3127.56
1831.35
4107.86
3157.44
324.35
486.696
449.888
258.681
3526.51
134.183
112.988
1.18549
1.89066
3.71423
335.151
)
;
    }
    water_top_surface
    {
        type            totalPressure;
        rho             rho;
        psi             none;
        gamma           1;
        p0              uniform 0;
        value           nonuniform List<scalar> 
180
(
0
0
0
0
0
0
0
0
0
0
0
0
-0.777432
-0.790568
-0.788254
-0.784267
-0.795676
-0.781843
-1.20692
-0.963514
-1.083
-1.09672
-1.10116
-1.10082
0
0
0
0
0
0
0
0
0
0
0
0
0
0
0
0
0
0
-0.667144
-0.806465
-0.628165
-1.08973
-1.51288
-0.502209
-25.4949
-26.0739
-25.9813
-25.5961
-25.7277
-25.7164
-15.0683
-15.1486
-15.1551
-15.0235
-15.0846
-15.0754
-8.54005
-8.53327
-8.53779
-8.53179
-8.56503
-8.50119
-4.46794
-4.47324
-4.46992
-4.4652
-4.4705
-4.46526
-0.601062
-0.592137
-0.603128
-0.704041
-0.816538
-0.70908
-1.86165
-1.87762
-1.89731
-1.92843
-1.95549
-1.91596
-1.56348
-1.55653
-1.54646
-1.52652
-1.52269
-1.51047
-1.93846
-1.942
-1.94281
-1.94033
-1.94635
-1.93164
-2.59213
-2.59478
-2.59512
-2.59555
-2.60238
-2.58661
-2.37768
-2.36848
-2.36751
-2.37133
-2.37691
-2.36015
0
0
0
0
0
0
0
0
0
0
0
0
-0.626476
-1.36089
-1.31828
-0.744462
-0.97518
-0.0514837
-2.91057
-3.02973
-2.99333
-3.23005
-3.36682
-3.39209
-0.540735
-0.553802
-0.572434
-0.530187
-0.551299
-0.529575
-0.541798
-0.538502
-0.559687
-0.572726
-0.589102
-0.564917
-0.00927555
-0.00551823
-0.0100693
-0.0224136
-0.028638
-0.0170796
-0.0361623
-0.0313466
-0.0318453
-0.0778867
-0.112647
-0.106308
-0.137794
-0.147126
-0.163462
-0.191246
-0.220422
-0.219432
-0.75569
-0.807626
-0.857951
-0.85734
-0.923662
-0.859181
-1.71983
-1.78549
-1.84436
-1.96627
-2.23298
-1.94252
-0.915697
-0.985272
-0.961707
-0.985864
-1.00141
-1.10279
)
;
    }
}


// ************************************************************************* //
