/*--------------------------------*- C++ -*----------------------------------*\
| =========                 |                                                 |
| \\      /  F ield         | OpenFOAM: The Open Source CFD Toolbox           |
|  \\    /   O peration     | Version:  v1612+                                |
|   \\  /    A nd           | Web:      www.OpenFOAM.com                      |
|    \\/     M anipulation  |                                                 |
\*---------------------------------------------------------------------------*/
FoamFile
{
    version     2.0;
    format      ascii;
    class       surfaceScalarField;
    location    "8.25";
    object      alphaPhi;
}
// * * * * * * * * * * * * * * * * * * * * * * * * * * * * * * * * * * * * * //

dimensions      [0 3 -1 0 0 0 0];

internalField   nonuniform List<scalar> 
2916
(
3.32678e-05
0.310781
-0.34092
0.00147065
0.304208
-0.335544
0.00738075
0.299527
-0.33639
0.00322819
0.314556
-0.339516
-0.00649824
0.326902
-0.345532
0.298755
-0.336401
-0.000831309
0.55257
-0.215107
-0.0015741
0.546788
-0.216345
-0.00279778
0.544147
-0.21825
-0.00269035
0.55361
-0.213042
-0.000653706
0.56117
-0.209481
0.541877
-0.218918
0.00229885
0.646518
-0.0767443
-0.000485968
0.64398
-0.0750009
-0.00526881
0.643568
-0.0749548
-0.00242034
0.646591
-0.0765232
0.00561396
0.649297
-0.0771121
0.64233
-0.0751282
0.00154579
0.605305
0.0396688
-2.85285e-05
0.603188
0.0423675
-0.0028157
0.60374
0.042617
-0.000962412
0.60476
0.0399787
0.00371478
0.606132
0.0384899
0.603213
0.0428332
-0.000183069
0.509852
0.0956353
6.08737e-05
0.505115
0.0978286
-0.000455016
0.506638
0.0976176
-0.000365715
0.508285
0.0963867
0.00025906
0.510017
0.0954908
0.505758
0.0977136
-0.000734456
0.399269
0.111317
0.000187012
0.392679
0.111514
0.00118757
0.394319
0.111318
-0.000121266
0.397499
0.112095
-0.00243125
0.39973
0.112597
0.392922
0.110406
0.000545942
0.218543
0.113655
-2.83888e-05
0.214807
0.111778
-5.97052e-05
0.215974
0.112019
-0.00035782
0.217463
0.113336
0.000662261
0.217221
0.114178
0.215614
0.111866
-0.000322826
0.0392607
0.145827
0.000100562
0.041766
0.141679
0.000428225
0.0418394
0.142242
-7.72552e-05
0.0398885
0.145021
-0.000447452
0.035618
0.147828
0.043997
0.140672
-0.000114714
-0.122735
0.113476
0.000764885
-0.122643
0.114723
0.00117346
-0.121846
0.114486
0.00207866
-0.123367
0.113671
0.00204128
-0.126592
0.113578
-0.122066
0.118169
-0.000525909
-0.161275
0.0298621
0.0010974
-0.166287
0.0320775
0.00233303
-0.165274
0.0322199
0.00129249
-0.162972
0.0308548
-0.000913454
-0.162328
0.0290039
-0.168407
0.0345232
0.000833496
-0.0949711
-0.0424533
0.000448292
-0.104954
-0.0377512
0.000654277
-0.104282
-0.037895
0.000287619
-0.0963578
-0.0414339
-0.00175987
-0.0912901
-0.0434142
-0.109102
-0.0376062
0.00810872
-0.057437
-0.00252043
-0.0544811
-0.012156
-0.0546874
-0.00439385
-0.0576731
0.0126514
-0.0590928
-0.0562672
-0.00368516
0.313123
-0.341499
0.0033387
0.303866
-0.344524
0.0070444
0.299666
-0.341161
0.00403766
0.31787
-0.343729
-0.00687576
0.332724
-0.349631
0.298191
-0.340257
-0.0185418
0.535134
-0.127353
-0.00159505
0.532083
-0.148194
0.0291248
0.528685
-0.155896
0.0128863
0.537371
-0.12594
-0.0376971
0.547137
-0.104837
0.52279
-0.157543
-0.00711229
0.811466
-0.0621397
-0.000659819
0.808318
-0.0656327
0.00877963
0.807843
-0.0670652
0.00200005
0.812028
-0.0620411
-0.0125286
0.817248
-0.0585883
0.801601
-0.0685671
0.000841953
1.08348
-0.0341887
0.000574119
1.07929
-0.0326177
-0.00124605
1.08003
-0.0319892
0.000257231
1.08332
-0.0343135
0.00244761
1.0877
-0.0342569
1.07643
-0.0336783
0.0017136
1.22415
-0.0193916
0.00089852
1.22156
-0.0177268
-0.00269941
1.22146
-0.0155175
0.000343683
1.22423
-0.0198956
0.00616787
1.22665
-0.0205298
1.22064
-0.0160789
0.00274536
1.30056
-0.0185448
0.00074869
1.30401
-0.0179588
-0.00112815
1.3003
-0.0160985
0.00040213
1.30335
-0.0183282
0.00288707
1.30497
-0.0176271
1.29987
-0.016999
0.00721916
0.978651
-0.045949
2.38264e-05
0.99848
-0.0395332
-0.00531232
0.989587
-0.0389767
-0.0019899
0.988156
-0.045463
0.005479
0.985139
-0.0486455
0.990248
-0.0359034
0.00477801
0.354418
-0.00496268
-6.4749e-05
0.358127
-0.00616732
-0.0053857
0.355784
-0.00425603
-0.000282812
0.358887
-0.00720491
0.00767261
0.359062
-0.00771963
0.359127
0.000566137
-0.00265084
0.36521
0.0094183
0.000702559
0.35526
0.00902039
0.00207423
0.357445
0.00921825
-0.000625024
0.365301
0.00938231
-0.00344603
0.373344
0.00928747
0.343647
0.00916645
-0.0095316
0.296702
-0.0183266
0.00142189
0.298438
-0.0166253
0.00812936
0.297934
-0.0170743
-0.00289648
0.296941
-0.0188005
-0.0179869
0.298459
-0.0186293
0.295164
-0.0153564
-0.00224459
0.0970949
-0.0167042
-0.000849863
0.0972564
-0.0192058
3.98728e-05
0.0971221
-0.01894
-0.000692448
0.0964763
-0.0166108
-0.00292402
0.096332
-0.0155299
0.0998624
-0.0197561
0.00631325
-0.00825835
-0.00277629
-0.0128709
-0.0112044
-0.0128201
-0.00315171
-0.00765881
0.0108464
-0.00598399
-0.0137576
0.00708509
0.0305278
-0.000270733
-0.00470628
0.0528273
-0.000183533
-0.0235164
0.0618181
-0.000142637
-0.0115459
0.0258952
-0.000301979
0.0186787
0.00479185
-0.00047024
0.0615142
-0.000162561
0.000164283
0.00715652
-0.000423664
0.000768325
0.0123692
-0.000328886
0.00274451
0.0140784
-0.000330487
0.00137405
0.00740631
-0.000307133
0.000251671
0.00394029
-0.000251229
0.016038
-0.000241675
-0.000706887
0.0486478
-5.96663e-08
0.000111396
0.0525884
-4.8464e-06
0.00231989
0.0527461
-3.36406e-05
0.00178284
0.0501548
-3.23837e-06
0.000728416
0.0480856
-4.55314e-08
0.0580476
-2.53443e-05
-0.000391035
0.235763
-3.15905e-09
-0.000290382
0.240756
-1.04048e-07
0.000659647
0.239818
-6.07798e-07
0.000650573
0.237096
-6.77952e-08
0.00136292
0.234072
-4.34284e-09
0.249099
-5.55195e-07
-0.000387881
0.6366
-6.88031e-08
-0.000335881
0.641538
-4.10732e-08
-0.000474269
0.63966
-6.59723e-08
-0.000576408
0.636759
-5.09191e-08
0.000181945
0.633491
-6.63886e-08
0.644765
-6.68133e-08
-0.00292514
0.800734
-4.16658e-06
0.000241623
0.798815
-4.90634e-06
0.0045873
0.798062
-4.57708e-06
1.83227e-05
0.79965
-4.24191e-06
-0.00775224
0.801317
-4.50105e-06
0.796456
-4.89394e-06
0.00376701
0.879827
-9.35642e-07
3.87468e-05
0.886849
-1.56336e-06
-0.00105921
0.884285
-1.31734e-06
-0.00194708
0.883224
-9.39122e-07
-0.00235575
0.887546
-1.25636e-06
0.871765
-1.39682e-06
0.0106731
0.701804
-1.54347e-08
-0.000200108
0.760362
-1.1824e-07
-0.00953869
0.749366
-7.42594e-08
0.00784193
0.704269
-1.01551e-08
0.0235961
0.710059
-8.0864e-08
0.749129
-7.53979e-08
-0.0178113
0.107417
0.0520287
0.00136167
0.136125
0.0422492
0.0178573
0.125359
0.0450887
0.00552074
0.10875
0.0516914
-0.0185958
0.110996
0.0502573
0.143619
0.036838
-0.00944558
0.00748576
-0.0213642
0.000225026
0.00735384
-0.0177429
0.00649335
0.00668292
-0.0181614
-0.001657
0.00718928
-0.0213557
-0.0166333
0.00782649
-0.0195518
0.00830845
-0.0152586
-0.000358236
-0.0133315
-0.00280112
-0.000509488
-0.0121069
-0.00439386
-0.000436786
-0.0119173
-0.00432844
-0.00101762
-0.0141888
-0.00258686
-0.000136175
-0.0151875
-0.00212377
-0.0113197
-0.00475922
-3.95718e-05
-0.0051662
-0.000286753
-0.00292033
-0.000285725
-0.00294902
-0.000690118
-0.00573534
-0.000798668
-0.00677383
-0.00262293
2.04128e-06
-2.67531e-06
-0.000261766
-2.32876e-07
7.28399e-07
-0.000172824
-5.12852e-06
1.66708e-06
-0.000130057
-2.68972e-06
-2.28895e-06
-0.000293098
5.57591e-06
-3.80691e-06
-0.000467235
2.00152e-06
-0.000151097
3.31686e-07
1.26485e-09
-0.000425071
1.11017e-06
7.04089e-07
-0.000326811
2.16866e-06
1.29332e-06
-0.000328167
1.18883e-06
8.74626e-08
-0.000306643
4.62142e-07
8.62362e-10
-0.000254294
1.9516e-06
-0.000238277
-1.56826e-08
1.71116e-09
-1.75447e-09
-2.60107e-08
1.09605e-07
-4.14221e-06
7.93374e-08
6.5124e-07
-3.30177e-05
7.02914e-09
7.06548e-08
-3.13355e-06
-1.55427e-08
1.41943e-09
-2.1695e-08
5.96639e-07
-2.39899e-05
-2.66781e-10
3.49593e-10
-3.09488e-10
-5.57411e-10
7.57293e-09
-8.34324e-11
3.38783e-10
4.37956e-08
-3.68974e-11
7.42824e-12
5.02514e-09
-7.94981e-11
-5.24555e-10
4.70591e-10
-3.54605e-10
4.27843e-08
-1.16566e-10
-2.21567e-10
9.37936e-09
-3.45652e-08
-4.20285e-11
9.83133e-09
-2.68484e-08
2.53369e-10
1.32161e-08
-2.27518e-08
4.94113e-11
1.10556e-08
-4.98251e-08
-3.26616e-10
9.36511e-09
-7.167e-08
1.32652e-08
-3.19815e-08
-1.27588e-08
7.44405e-07
-4.83036e-06
1.08815e-09
8.46999e-07
-5.72669e-06
2.261e-08
7.91514e-07
-5.352e-06
2.53625e-09
7.68751e-07
-4.96539e-06
-3.11554e-08
8.24331e-07
-5.27583e-06
8.09479e-07
-5.70452e-06
8.89042e-09
2.41494e-07
-4.58972e-07
7.66841e-10
3.78909e-07
-1.11379e-06
-2.08027e-09
3.19243e-07
-8.76058e-07
-1.09942e-09
2.46894e-07
-4.56904e-07
6.61718e-09
3.0296e-07
-7.96989e-07
3.43162e-07
-9.64831e-07
5.04331e-09
1.03754e-07
3.76657e-08
5.39969e-10
1.43901e-07
2.78738e-08
-3.6065e-09
1.24974e-07
3.01536e-08
6.72287e-10
1.02009e-07
3.59851e-08
7.54119e-09
1.08561e-07
1.26634e-08
1.37356e-07
3.21264e-08
-0.000230318
0.024712
0.000125382
-2.58121e-07
0.0318738
0.000306708
-0.000139842
0.0310083
0.000217622
0.000781401
0.0251283
0.000278612
0.000697371
0.0215715
0.000165924
0.0317652
0.000261577
-0.000447051
0.000338841
0.000178395
8.21462e-06
0.001144
-0.000138328
0.000286585
0.000826767
-6.07668e-05
5.12896e-05
0.000429603
0.000161187
-0.000524203
0.000271529
0.000243213
0.00184806
-0.000179473
-0.000242559
-0.00250352
9.60381e-05
2.37917e-05
-0.0037715
6.53768e-05
0.000231121
-0.00396046
6.01384e-05
-2.94221e-05
-0.00218382
0.000101867
-0.000417596
-0.00181029
0.000116156
-0.00353902
4.64984e-05
-0.000105567
-0.0119177
0.000112739
-0.0124638
7.47995e-05
-0.0124365
8.51189e-06
-0.0117045
-0.000601914
-0.0112766
-0.0121111
0.00121931
0.0624612
-0.0663433
-0.0121452
0.021186
-0.0102814
0.0232474
0.0225593
-0.0604711
0.0179758
0.0276836
-0.0224234
0.00503337
0.0133553
-0.000424238
0.0527278
-0.0503705
0.0163291
0.114421
-0.0707471
0.0112106
0.0260797
-0.00208415
0.0674855
0.0036369
-0.0394248
0.0538997
0.0346771
0.00459087
-0.00162259
0.048491
0.0185818
0.102562
-0.0534027
0.0565681
0.0916803
-0.0365717
0.0669485
0.000619653
0.00378292
0.0546285
0.0132551
0.00697495
-0.0155708
0.0739318
0.0292182
-0.0428291
0.0582868
0.0158973
0.0953648
-0.0374099
0.0923691
-0.00300861
-0.000521546
0.0471972
-0.0430867
0.0350261
0.0121859
-0.0258617
0.0419731
-0.00155226
0.0077753
0.0565681
-0.0171619
0.00221782
0.0490367
0.00912676
0.0132257
0.00988028
-0.0799827
0.0305492
0.0027762
-0.0713991
0.0336587
0.00857323
-0.0651837
0.0177486
0.0241537
-0.0732488
0.043666
0.000680938
-0.049155
0.0443973
-0.0463417
0.0362069
-0.00170867
-0.0878635
0.0197091
-0.00456192
-0.0861617
0.015933
-0.00935149
-0.088092
0.0108817
-0.0111323
-0.107367
0.0143733
0.000121157
-0.0963024
0.0215297
-0.0658407
0.0164739
0.00229826
-0.0940385
0.00400798
0.00366475
-0.0857739
0.000291283
0.0032788
-0.0692328
0.00320783
-0.0065944
-0.0367821
0.00633731
-0.00476677
-0.0644324
0.00495201
-0.072043
-0.00167901
-0.00293981
-0.0908638
-0.000103727
0.00276991
-0.0883903
-0.000621619
0.00187154
-0.0645822
0.000544789
-0.00110225
-0.0113319
0.00420728
-0.00817434
-0.0412085
0.00537839
-0.0697122
-0.00106303
-0.0184254
-0.0692025
0.00251009
-0.00204526
-0.0955552
-0.00505307
0.000720445
-0.06299
-0.00106166
0.000184758
-0.0117982
0.00410217
-0.0118549
-0.0301122
0.00190804
-0.0682652
-2.89995e-05
-0.0135919
-0.041182
0.00513557
-0.0201864
-0.0788986
-0.00567348
-0.013397
-0.0589749
-0.000762107
-0.00708962
-0.0235508
0.0010006
-0.00385848
-0.0257959
-0.00126591
-0.0583539
-0.000553233
-0.00212008
-0.0213821
-0.00804892
-0.0113455
-0.0299629
-0.00349917
-0.0254251
-0.0342087
-0.000592451
-0.0114901
-0.0252146
-0.00930275
0.0148283
-0.0235458
-0.0176864
-0.0295466
-0.000762466
-0.00209651
-0.00747261
-0.000482094
-0.0119423
-0.00279239
-0.0124588
0.000738711
-0.0213235
0.0139997
-0.0235243
-0.00233036
0.0167593
0.0693341
-0.155261
-0.0152716
0.0661854
-0.0468859
0.0128547
0.0722705
-0.162836
0.0306667
0.0423372
-0.0845807
-0.00084102
0.0418938
-0.0126356
0.0752884
-0.128482
0.00839401
0.129335
-0.141912
0.00536549
0.11436
-0.0494814
0.0383223
0.0944952
-0.0963999
0.0297744
0.0704966
-0.016892
-0.00861017
0.106311
-0.00904896
0.138754
-0.127284
0.0324285
0.160478
-0.102975
0.0444054
0.134701
-0.0444454
0.0150465
0.0469423
0.00230236
-0.059847
0.055025
0.0344924
-0.0331086
0.118498
-0.0245004
0.132923
-0.0662794
0.0470354
0.17238
-0.063048
0.0111456
0.0232208
0.0341395
-0.000590743
0.00261241
0.0742164
-0.0206575
0.0117618
0.0800336
-0.0169036
0.0350794
0.015785
0.058088
-0.0149686
0.0224071
0.0167455
0.00265575
0.00444831
0.00606273
0.0346147
-0.0170162
0.00655661
0.014424
-0.0182951
-0.00052293
0.0183834
-0.00591982
-8.12007e-06
0.0388966
-0.00103396
0.0343206
0.00649587
-0.000227394
0.000249905
0.00236559
0.00286468
-0.00028312
-0.00507771
0.000320378
-0.000272791
-0.00530373
-0.00176476
0.000238319
0.00162159
-0.00386589
0.000131138
0.000903247
-0.00267022
0.000305593
0.000209951
-0.000209021
-0.000151411
0.000580938
3.33613e-06
-0.0011561
7.64122e-05
-1.13866e-05
-0.000615697
-0.00509646
-0.000132499
0.00150618
-0.00686244
-5.05759e-05
0.000138065
-2.98998e-05
0.000150424
2.77258e-05
-1.00942e-05
2.81346e-05
6.14308e-05
-9.64414e-06
-5.08414e-05
0.000137541
-1.38194e-06
-2.55046e-05
-0.00536576
0.00146463
0.00100321
-0.00424149
3.65648e-05
5.25343e-05
-2.84719e-06
0.0090721
-0.0151357
6.99973e-05
0.00128617
5.66873e-05
-2.33045e-06
0.000212092
0.000173891
-2.21721e-05
0.000425304
-0.00145541
2.05997e-05
-6.14546e-06
-0.000394051
4.1954e-05
2.83211e-06
-1.02659e-05
0.00347702
-0.0116775
0.000230714
0.000639459
4.15789e-05
0.000213254
1.43204e-05
8.41941e-06
3.02588e-05
-2.02558e-05
-4.14907e-05
-0.000151322
-9.84819e-05
-0.000465075
-0.000927579
-0.00218658
-0.000273266
-0.0010439
-0.00986656
-0.000475941
-1.7918e-05
-0.00438424
-7.9473e-05
-3.02759e-05
-0.000264687
-0.000276305
2.18475e-05
-0.000344273
-0.00901896
0.000697163
-0.000533349
-0.018207
-0.00230865
-0.000662321
0.0012995
-0.016607
1.53737e-05
-0.0156878
1.61749e-05
-0.0133568
-4.45187e-05
-0.0215207
-0.00209987
-0.0216934
-0.00861672
-0.0151172
0.0233638
-0.0742005
-0.0371582
0.0349279
-0.02347
-0.0284546
0.0249024
-0.175728
0.028891
0.037603
-0.181637
0.0384534
0.0429562
-0.0671728
0.0327083
-0.106695
-0.0465029
0.0408728
-0.000591127
-0.0106886
0.0850357
-0.000600473
0.0103121
0.0730092
-0.0110313
0.0974274
0.0813143
-0.117753
0.0926663
0.121693
-0.0849235
0.0539021
-0.0441945
-0.0388284
0.096746
-0.00114108
0.0118498
0.138202
-0.049929
0.0720858
0.087497
-0.0697514
0.0775448
0.125912
-0.016622
0.0804353
0.162276
-0.0696336
0.0529781
-0.00372969
-0.0116692
0.106214
-0.0169206
0.0263646
0.120024
-0.0634668
0.0117518
0.0304852
0.0403129
-0.00817055
0.0439254
0.0571326
0.0272442
0.0837585
-0.0442906
0.0402147
0.000263955
0.00407908
0.0279887
-0.0148862
0.00120074
0.00181689
0.017041
-0.00134123
0.000982676
0.0147279
-0.0102134
0.00102548
0.0183633
-0.00120165
0.000514777
0.0294648
0.00701649
0.0144381
0.0012438
0.000261764
0.000440218
0.000395786
0.000224891
0.00173793
-9.91428e-05
9.42488e-05
0.00092131
-0.000146857
0.000273897
0.000854804
-0.00019152
0.000187193
0.000344495
5.46039e-05
0.000397139
-4.21278e-05
4.13916e-05
5.77805e-06
-2.18817e-05
4.23387e-05
0.000135292
-2.94657e-06
-4.61959e-06
2.91856e-05
6.63122e-06
1.92699e-05
5.72282e-07
1.07734e-05
2.18637e-05
2.32247e-06
2.53389e-05
5.86614e-06
-7.48851e-06
2.30836e-05
2.92377e-07
-2.15878e-06
2.47602e-05
3.32243e-06
-8.59175e-05
1.36755e-05
1.28012e-06
-1.25438e-05
-1.29235e-05
-2.06543e-06
1.67366e-05
-1.94849e-05
-1.46892e-05
2.48901e-06
7.60245e-06
-5.96277e-07
9.2346e-05
1.96523e-06
4.69029e-07
1.81928e-05
9.6449e-08
-2.19637e-05
1.64323e-05
1.27291e-06
-1.22776e-05
-1.28423e-06
-2.2034e-06
1.35561e-05
-8.50385e-05
-2.0341e-06
-0.000221676
0.000195353
-1.64005e-06
0.000136067
4.05172e-06
7.65921e-06
0.000214429
8.6664e-06
1.43925e-06
5.05047e-05
2.68329e-06
3.43622e-05
-0.000199605
1.58607e-05
0.000282483
2.81037e-07
-0.000119759
0.000105429
-2.35958e-05
-0.000453699
0.000103962
1.35616e-05
-0.000207985
-0.000712649
0.000935825
0.00083589
-0.001321
0.00103503
0.00164157
-0.00332986
-0.00463095
0.000686297
-0.00522438
-0.0102444
6.79726e-05
6.65248e-05
0.0041122
-0.0162983
0.0050311
-0.0149088
0.00413236
-0.013985
-0.000966612
-0.018607
-0.0071612
-0.019205
-0.0129111
-0.000786239
0.00059437
-1.68541e-06
-0.0030175
0.000509799
-1.58747e-08
-0.0351836
0.000611858
-9.26689e-05
-0.00526074
-0.000695311
-4.98702e-08
0.0194933
0.012803
-2.1204e-06
0.00378785
-4.45216e-06
-1.08007e-05
1.24937e-05
-1.13311e-05
-9.10464e-05
4.21875e-06
-1.47196e-05
-0.0107856
0.000275484
-3.53392e-07
0.0116442
0.0202063
-2.30011e-06
0.0355099
0.0264363
-5.43662e-05
0.00486058
-3.43294e-05
-0.000898659
3.57799e-05
-2.49111e-05
-0.00200797
0.00407052
-0.000154979
-0.00139181
0.0352122
-2.72837e-06
0.0657274
0.118525
-3.11007e-05
0.0130687
0.04632
-0.000128795
0.000962291
6.54955e-05
-0.0160909
0.00061086
-0.000275217
-0.0015902
0.0589861
-0.000900653
0.0391767
0.084451
-0.0204782
0.0416017
0.0849502
0.00154942
-0.00107668
0.0241317
-4.05428e-05
0.000754865
-6.55841e-05
-0.0157648
0.00215374
-0.000101927
-0.00298764
0.0859408
-0.00175861
0.00215215
0.00554038
0.0299568
0.00274165
0.00037045
0.0226055
0.00160531
0.0023019
0.00302652
0.00399237
0.000119283
-0.00337607
0.000801379
0.000554672
-0.00162435
0.000417988
0.00591276
-0.000175317
0.000185897
0.00365419
-7.7388e-05
5.17753e-05
0.000984429
1.90237e-06
1.64276e-05
0.000359078
3.97679e-05
0.00094127
-0.000214945
-1.32633e-05
7.62835e-05
-0.000105238
3.10389e-05
0.000311987
-1.17842e-05
1.23728e-06
0.000112149
-2.46478e-06
5.44358e-07
2.45923e-05
4.50928e-07
-4.39543e-08
8.09054e-06
-1.69721e-06
1.63828e-05
-1.74892e-05
1.23331e-06
1.75163e-06
-3.77577e-06
1.14964e-06
1.64801e-05
-3.09151e-06
5.19632e-08
4.55733e-07
-4.95584e-06
-4.64115e-07
1.43851e-07
-2.40076e-05
-1.22544e-05
8.15546e-06
-0.000106928
4.47833e-05
-1.92305e-07
2.31441e-06
6.08694e-07
-8.99333e-07
1.25239e-06
2.70212e-07
7.85459e-07
1.69595e-06
2.71888e-07
-2.38831e-06
-2.00186e-07
5.36338e-07
-8.76363e-05
3.41824e-06
-5.38307e-07
-0.000104088
7.37565e-06
8.0082e-07
4.98009e-06
1.38561e-06
-1.89608e-08
9.56931e-06
8.12362e-07
-2.7078e-06
6.22844e-06
7.43173e-07
6.08546e-07
1.14629e-05
1.09815e-06
5.00401e-06
-0.000113802
-7.27451e-06
3.76453e-05
-3.10526e-05
1.29432e-06
2.52367e-05
-5.04852e-06
2.99179e-05
0.000900068
1.76938e-05
9.65746e-05
0.000963801
1.11385e-05
0.00113263
-0.00450637
-0.000128698
-5.69065e-06
-0.00799661
-0.000728661
0.000116611
-1.55374e-05
0.00208199
-0.0166915
0.00530125
-0.0146222
0.00869853
-0.0149556
0.00283288
-0.015842
-0.0066557
-0.0163073
-0.0167224
2.7244e-05
5.90486e-05
-0.00046167
1.02083e-05
9.10433e-05
-0.000295724
-1.54546e-05
7.28126e-05
-0.000222056
-9.47209e-06
5.84969e-05
-0.000459924
5.90398e-05
-2.28653e-05
-0.000503356
0.000118536
-0.000222036
-7.9359e-06
0.000584562
-0.000293759
1.29486e-05
0.000398133
-0.000243465
3.15311e-05
0.000219162
-0.000204619
2.39894e-05
0.00055221
-0.000218606
-5.45908e-05
0.000510044
-0.000187251
0.000510121
-0.000406082
-8.33264e-05
-4.49455e-16
1.03302e-05
-4.05021e-16
0.000117349
-5.38344e-16
3.70958e-05
-3.70754e-16
-0.000102522
-4.48276e-06
-0.000198509
-2.06632e-05
-0.000351958
-4.80109e-08
8.83015e-06
-0.000252888
-8.3848e-05
4.34733e-05
-0.000197164
-9.33098e-05
9.85759e-06
-0.000210552
-6.04451e-05
-4.36731e-05
-0.000250702
-5.43243e-07
-0.000136598
-0.000140205
-1.39008e-05
-4.02264e-16
-2.50512e-12
-1.33661e-06
-3.61015e-16
-2.86586e-13
2.78632e-05
-6.09011e-16
-5.68914e-14
1.00371e-05
-1.16274e-16
-4.59743e-12
-3.45948e-05
-2.25169e-06
-1.21122e-11
-0.000167156
-1.42765e-05
-6.42719e-19
-8.51076e-16
-1.13995e-18
-7.65539e-16
1.95881e-18
-1.15045e-15
4.40771e-19
-4.85511e-16
-6.73444e-06
-1.95445e-12
-2.75922e-13
-4.95425e-08
-6.76154e-15
-2.22854e-10
-9.95552e-07
-6.25912e-15
-9.68096e-10
-2.50085e-07
-6.225e-15
-6.09395e-10
-1.64206e-09
-1.501e-14
-6.49935e-10
-5.65466e-07
-1.10375e-14
-1.11424e-09
-5.39821e-07
-1.53042e-09
2.67526e-16
-6.19108e-14
-2.43035e-12
3.88843e-18
-3.25724e-14
-2.22342e-13
-4.55312e-16
-3.52108e-14
-6.34997e-15
-8.17199e-17
-7.12908e-14
-4.50386e-12
2.11407e-14
-1.19593e-13
-1.20028e-11
-1.6952e-14
-5.38413e-10
7.29625e-16
-6.3495e-14
1.39327e-16
-3.27525e-14
-2.70114e-16
-3.59481e-14
7.02514e-16
-7.27385e-14
3.80522e-15
-2.07713e-12
-2.8907e-13
-1.05002e-14
-9.31651e-11
1.19242e-10
-2.16358e-13
-1.28233e-11
-2.39306e-10
-3.21033e-12
-2.63834e-12
-8.37364e-11
-2.55293e-12
-1.51587e-10
-1.24346e-11
4.41979e-12
-3.77324e-10
1.40081e-10
-6.20038e-11
-7.55519e-10
3.19421e-12
-5.40101e-11
-4.45456e-11
-5.47494e-15
-2.7912e-11
1.99533e-11
-7.82328e-12
-3.23236e-11
3.75349e-11
-1.46122e-12
-6.57444e-11
-9.66971e-11
2.88805e-11
-1.02606e-10
-3.1701e-10
-2.21901e-11
-5.1534e-10
2.15759e-13
-5.5274e-11
-1.04599e-14
-2.60205e-11
3.26999e-14
-3.25e-11
4.84275e-14
-6.59115e-11
1.99048e-13
-1.02481e-10
-2.22804e-11
-3.77557e-10
-9.49486e-08
2.18179e-07
-2.00581e-11
-6.78725e-08
1.86993e-07
2.81554e-10
-5.95456e-08
1.89923e-07
2.68207e-10
-1.08412e-07
2.01068e-07
-7.89591e-10
-1.64256e-07
2.4843e-07
-5.29512e-08
1.68413e-07
2.39027e-09
-4.47096e-08
-5.14654e-08
-4.23712e-10
-2.73085e-08
-3.6832e-08
-4.1979e-09
-2.61385e-08
-2.90385e-08
-2.00691e-09
-4.80829e-08
-6.11774e-08
7.76659e-09
-5.97997e-08
-1.12375e-07
-1.21099e-08
-3.27991e-08
2.20947e-10
-4.49859e-08
-2.1614e-11
-2.71199e-08
-2.97941e-10
-2.59076e-08
-9.82491e-11
-4.84296e-08
8.06693e-10
-6.08184e-08
-1.13084e-08
-3.22158e-08
-1.55766e-05
2.95569e-06
1.29574e-07
-1.41258e-05
2.74313e-06
3.85496e-07
-1.35502e-05
2.4287e-06
5.5232e-08
-1.63507e-05
3.24788e-06
-6.57229e-07
-1.9814e-05
4.39733e-06
-1.30772e-05
2.12883e-06
2.88462e-07
-6.5031e-06
-9.37359e-06
-1.82432e-08
-4.56846e-06
-9.54043e-06
-1.89001e-07
-4.42978e-06
-9.96808e-06
1.10636e-07
-6.71021e-06
-1.06315e-05
5.7726e-07
-8.58958e-06
-1.46586e-05
-3.5035e-06
-8.81831e-06
1.81821e-08
-4.43518e-06
-4.20336e-09
-2.61996e-06
-2.68154e-08
-2.65263e-06
1.21131e-08
-4.72437e-06
1.15082e-07
-7.16646e-06
-1.82085e-06
3.14763e-07
-5.69319e-06
2.63964e-06
7.52261e-08
-8.53047e-06
6.66809e-06
-2.38967e-08
-8.42503e-06
5.11025e-06
-5.06144e-08
-5.53959e-06
2.849e-06
-8.90701e-08
-3.67504e-06
7.09479e-06
-1.00168e-05
4.58469e-06
3.70393e-06
-3.84423e-06
-6.8282e-06
-2.59366e-07
-6.48398e-06
-8.49541e-08
-1.18685e-06
-6.92266e-06
5.50405e-06
9.52635e-08
-2.98419e-06
6.76948e-06
8.86397e-07
-2.29707e-07
2.33861e-06
-9.22384e-06
-4.50688e-06
2.3659e-07
-7.72579e-06
-1.40693e-07
-7.46013e-06
-3.02499e-07
-6.80096e-06
2.22274e-07
-8.00408e-06
1.12637e-06
-8.46345e-06
-4.82286e-06
1.80815e-08
2.20647e-07
2.3715e-06
-2.22189e-09
4.36609e-07
6.19094e-06
-1.30803e-08
3.30609e-07
4.72622e-06
2.79224e-09
2.3171e-07
2.54207e-06
4.76303e-08
5.3365e-07
6.4198e-06
2.80373e-07
4.27131e-06
1.61553e-06
2.97613e-05
-9.5179e-05
-2.22475e-07
2.8996e-05
-5.43908e-05
-1.12131e-06
2.53035e-05
-6.06911e-05
6.04666e-07
3.13428e-05
-9.34922e-05
1.60448e-06
3.1601e-05
-0.000102442
1.75444e-05
-3.24453e-05
2.75432e-07
-1.45813e-05
-1.31634e-07
-1.2757e-05
-3.61696e-07
-1.23967e-05
1.81855e-08
-1.46069e-05
2.83458e-07
-1.57462e-05
-9.24487e-06
6.12397e-05
0.000153051
-8.46174e-05
-1.98848e-05
9.48237e-05
0.000299083
-0.000106557
0.000101034
0.000208805
8.46027e-05
0.000154193
-6.43885e-05
0.000218242
0.000174331
-0.000129732
7.02807e-05
0.000413632
2.25148e-06
5.80376e-05
-2.34444e-05
-6.87169e-07
5.31646e-05
-2.2648e-05
-1.9653e-06
5.13428e-05
-2.32857e-05
3.34386e-06
5.94256e-05
-2.35978e-05
4.81896e-06
6.91303e-05
-2.57937e-05
4.738e-05
-1.69556e-05
-2.81086e-08
-5.4504e-06
2.68215e-10
-4.99188e-06
7.41048e-08
-4.75046e-06
-1.93187e-08
-5.56636e-06
-4.78207e-07
-6.52705e-06
-4.26105e-06
-1.18084e-05
4.72413e-05
-1.92235e-05
-1.42547e-06
5.62357e-05
-5.08656e-06
1.11125e-05
5.22561e-05
-1.29312e-05
6.77641e-06
4.90029e-05
-1.79548e-05
-1.01423e-05
6.07294e-05
-2.1817e-05
5.44858e-05
7.74564e-05
-1.73022e-06
2.75211e-05
-2.32561e-05
3.72755e-07
2.29863e-05
-1.14703e-05
1.51832e-06
2.18131e-05
-1.32106e-05
-3.74891e-07
2.94505e-05
-2.45298e-05
-3.46151e-06
3.87119e-05
-3.08175e-05
2.17206e-05
-6.25687e-06
-1.53333e-07
2.42992e-07
2.3317e-08
1.49818e-07
8.96149e-08
1.38435e-07
-1.68417e-07
2.68409e-07
-3.80072e-07
3.15985e-07
1.33552e-07
-4.17006e-05
0.000191911
-0.000237757
5.6721e-06
0.000153861
-0.00026515
1.95271e-05
0.00015347
-0.000245925
-2.19632e-05
0.000195911
-0.00023509
-8.40209e-05
0.000229208
-0.000259222
0.000137071
-0.000204489
-3.78121e-06
6.67724e-06
3.80583e-05
8.7974e-08
4.03133e-06
2.88896e-05
2.44971e-07
4.11846e-06
2.82344e-05
-4.72609e-06
7.62846e-06
4.04164e-05
-1.08318e-05
9.4673e-06
4.68783e-05
4.13256e-06
2.66725e-05
-1.94113e-09
7.96312e-07
-4.52326e-09
3.79324e-07
-2.75579e-08
3.84945e-07
-3.48908e-08
9.05843e-07
-7.59653e-09
1.17505e-06
3.47334e-07
0.000106903
-3.7811e-05
-0.0156609
-1.58976e-05
-2.87045e-05
-0.0155825
-0.000238689
-2.80741e-05
-0.0156266
-2.49632e-05
-4.01133e-05
-0.0157133
-2.85622e-05
-4.65176e-05
-0.0158222
-2.6468e-05
-0.0155178
9.31684e-09
-1.9985e-07
4.18342e-07
-1.17544e-08
-1.36599e-07
3.25325e-07
-5.11812e-08
-1.35222e-07
3.17861e-07
-2.42152e-08
-2.02681e-07
4.56914e-07
7.24165e-09
-2.33531e-07
5.38771e-07
-1.10823e-07
3.06587e-07
3.91975e-10
8.76166e-09
-2.68375e-10
3.58156e-09
-1.62481e-09
3.88056e-09
-1.97853e-09
1.08822e-08
1.10757e-09
1.38963e-08
3.78792e-09
0.00112376
-8.41699e-09
-0.0110043
0.0149882
0.000791241
-7.52223e-09
-0.0109186
0.0160192
8.01187e-05
-4.58419e-08
-0.0103766
0.0158219
-0.00045133
-2.36596e-08
-0.0106843
0.0159294
-0.000891818
-9.11351e-10
-0.0109037
0.0160502
-1.00001e-11
-0.0107541
0.0147679
-9.16067e-13
-1.96576e-09
-9.65155e-15
-6.45043e-09
-5.62816e-11
-1.12035e-09
-5.30969e-15
-6.3466e-09
-4.94164e-11
-8.06663e-09
-2.29612e-14
-3.77827e-08
-9.94009e-13
-4.6543e-10
-1.90765e-16
-2.32426e-08
-2.72053e-15
-8.04174e-12
2.05526e-17
-9.043e-10
-1.70994e-13
1.24446e-18
-9.83179e-12
5.43419e-11
1.74823e-12
-2.02185e-09
9.98223e-11
1.58288e-12
-1.16739e-09
1.23677e-09
1.53744e-11
-9.21918e-09
1.89745e-12
-8.15001e-13
7.67744e-10
3.83881e-15
-2.67373e-16
-6.27864e-12
-5.38695e-19
-2.42843e-14
-0.000234025
-1.63788e-12
-0.00549031
-0.000314609
-1.50711e-12
-0.00544769
-9.55923e-05
-1.38689e-11
-0.00543002
-5.44276e-05
-2.62283e-13
-0.00550851
-0.000110157
5.29529e-16
-0.00553754
1.22321e-17
-0.00546286
-1.7314e-15
-1.68333e-12
-5.46795e-15
-2.23312e-14
-1.49419e-12
-4.89324e-16
-2.6185e-16
-1.39161e-11
-3.89457e-16
2.57076e-17
-2.62334e-13
-4.27729e-16
-2.50575e-18
-8.27974e-16
-4.41664e-16
-3.77924e-18
-2.38105e-16
4.95712e-14
1.54024e-28
1.06174e-13
1.63133e-28
1.656e-12
2.0504e-28
7.75483e-15
2.92479e-28
7.00172e-17
6.41356e-28
2.58989e-28
-4.55925e-05
-3.78689e-15
-0.000269472
-1.66393e-05
-7.33684e-14
-0.000291871
5.3937e-05
-6.58932e-14
-0.000296542
2.30065e-05
-8.55758e-14
-0.000265872
-4.33067e-05
-9.75001e-14
-0.000257619
-5.5527e-14
-0.000280301
-4.01103e-17
7.89282e-28
-9.51999e-14
-7.15503e-17
7.73085e-28
-7.38262e-14
-1.19682e-16
8.39234e-28
-6.62345e-14
-1.11066e-16
7.50872e-28
-8.60121e-14
-3.62203e-17
1.30944e-27
-9.80167e-14
4.96637e-28
-5.58014e-14
-6.69824e-29
-1.51392e-28
-1.18537e-28
-1.34724e-28
-1.54035e-28
-1.19899e-28
-1.07461e-28
-5.31419e-29
-8.02971e-29
-1.02855e-29
9.31105e-30
-7.91811e-05
-1.61902e-11
0.00484351
-0.00012375
-1.29436e-11
0.00483593
-0.000136206
-1.23973e-11
0.0048566
-0.000124643
-1.71432e-11
0.0048778
-9.36771e-05
-2.03241e-11
0.00488513
-1.16306e-11
0.00483663
-5.55697e-15
7.65534e-28
-1.62798e-11
-7.76149e-15
8.61398e-28
-1.30152e-11
-1.06506e-14
9.39108e-28
-1.24607e-11
-9.69778e-15
8.93313e-28
-1.72302e-11
-2.504e-15
1.0302e-27
-2.04293e-11
6.75547e-28
-1.16889e-11
-2.84105e-29
-3.59627e-28
-6.76793e-29
-3.96958e-28
-9.69334e-29
-4.15249e-28
-8.20847e-29
-3.66693e-28
-4.99624e-29
-3.96033e-28
-2.55711e-28
-6.82558e-05
-3.53782e-09
0.0110135
-0.000134082
-2.81415e-09
0.0109541
-0.000152074
-2.74392e-09
0.0109922
-0.000130132
-3.95014e-09
0.0110707
-7.68997e-05
-4.75798e-09
0.0111432
-2.71819e-09
0.0109069
-7.07079e-13
-1.99458e-11
-3.53399e-09
-7.48187e-13
-1.29228e-11
-2.81471e-09
-1.30213e-12
-1.31136e-11
-2.7432e-09
-1.61704e-12
-2.42855e-11
-3.94336e-09
-5.5593e-13
-3.13934e-11
-4.74872e-09
-1.33365e-11
-2.71754e-09
5.06446e-14
-1.99964e-11
3.12008e-14
-1.29035e-11
3.98134e-14
-1.31224e-11
1.34374e-13
-2.43803e-11
7.745e-14
-3.13367e-11
-1.32592e-11
-7.59038e-05
-4.19043e-07
7.87401e-06
-3.24596e-07
9.72386e-05
-3.17313e-07
3.82638e-05
-4.57941e-07
-0.000124222
-5.40362e-07
-3.05876e-07
-6.46774e-11
-4.28382e-09
-5.00207e-11
-2.20917e-09
-7.72735e-11
-2.27789e-09
-7.52525e-11
-5.10544e-09
-2.05904e-11
-6.537e-09
-2.12775e-09
6.19333e-12
1.17244e-12
-4.74542e-12
-9.9624e-14
7.277e-12
-6.27184e-11
-1.68236e-06
3.68502e-09
1.66829e-09
-1.51342e-08
9.57353e-10
-4.139e-10
-9.26599e-05
-6.76443e-09
-1.17339e-08
-2.79617e-08
-9.41659e-09
1.61092e-09
-2.09485e-06
-3.87122e-08
-4.54021e-06
3.25349e-08
1.53611e-07
-1.01841e-13
-5.92946e-06
4.82777e-07
-4.44359e-08
-2.93194e-07
-5.2219e-07
-2.72787e-06
-1.49776e-06
-4.21402e-07
-1.03416e-09
-1.25409e-07
-1.66325e-06
-4.22634e-08
-3.48901e-06
-7.38111e-08
-1.13652e-05
5.89332e-15
-1.07735e-13
6.66843e-10
-1.83851e-13
-1.48843e-10
-2.54589e-08
-1.94812e-09
7.65119e-10
-3.83787e-10
-5.96353e-09
-7.41949e-08
1.84946e-06
-6.59952e-05
2.5278e-05
1.03333e-07
-1.30959e-05
1.33796e-07
1.09786e-08
-1.87499e-07
3.31357e-08
-4.9695e-07
-1.80584e-06
4.43689e-09
-3.36111e-07
-5.32236e-05
-1.3993e-06
-3.48703e-05
1.369e-07
1.50468e-05
-3.40769e-11
-4.93381e-05
1.27173e-06
-3.18113e-10
-1.76573e-06
-5.56075e-08
-1.99893e-07
-7.64718e-08
-2.22914e-06
-3.21414e-07
5.54888e-07
-1.53027e-05
-3.63446e-06
-2.26004e-05
-1.42153e-05
-3.32504e-05
7.43567e-14
-3.4259e-11
3.77356e-13
-3.186e-10
-9.69807e-09
-1.73873e-07
-3.75746e-08
-1.51833e-07
-9.12897e-08
-2.95892e-07
-4.03514e-06
6.89765e-05
-5.27424e-05
-7.68947e-07
1.63464e-06
-8.80819e-05
6.42783e-07
-5.51862e-09
-1.31689e-06
3.57611e-07
-2.46388e-06
-2.94715e-05
8.85913e-07
-8.40972e-05
-4.75993e-05