/*--------------------------------*- C++ -*----------------------------------*\
| =========                 |                                                 |
| \\      /  F ield         | OpenFOAM: The Open Source CFD Toolbox           |
|  \\    /   O peration     | Version:  v1612+                                |
|   \\  /    A nd           | Web:      www.OpenFOAM.com                      |
|    \\/     M anipulation  |                                                 |
\*---------------------------------------------------------------------------*/
FoamFile
{
    version     2.0;
    format      ascii;
    class       volScalarField;
    location    "8.25";
    object      p_rgh;
}
// * * * * * * * * * * * * * * * * * * * * * * * * * * * * * * * * * * * * * //

dimensions      [1 -1 -2 0 0 0 0];

internalField   nonuniform List<scalar> 
1116
(
15795.6
15789.7
15792
15790.8
15795.2
15787.9
16190
16188.7
16190.2
16196.3
16213.8
16180.4
17566.8
17562.8
17562.1
17566.8
17573.4
17557.6
18818.8
18818.1
18818.7
18819.6
18821.2
18820.4
19858.4
19858.3
19858.4
19859.7
19861.1
19861.7
19997.6
19996.9
19997.6
19998.6
19999.6
20001.3
18678.3
18671.2
18675.6
18676.6
18673.5
18684.7
16183
16192.3
16194.2
16189.5
16191.2
16210.7
12808.2
12806.1
12809.2
12811.7
12819.5
12818.2
10554.9
10547.8
10547.9
10558.7
10571.3
10537.9
9123.72
9114.75
9111.64
9124.08
9129.66
9099.32
7971.46
7960.31
7961.99
7969.6
7975.58
7966.37
14026.3
14098.1
14084.4
14039.8
14014.6
14067.4
11786.3
11833.5
11804.5
11806.6
11756
11788.8
13709
13719.5
13699.3
13729.4
13739.1
13705.9
17791.6
17806.4
17814.5
17790.9
17776.3
17840.6
20550.7
20548.3
20556.7
20545.1
20542.1
20569
20689.7
20684.1
20689.3
20686.2
20691.4
20689.4
18062.8
18124.3
18109.5
18085.7
18075.5
18106.4
10887.8
11054
11012.6
10957.8
10880.8
11172.8
5695.56
5546.38
5575.39
5695.14
5775.88
5491.73
5043.84
4954.97
4953.46
5041.7
5134.66
4856.1
3896.66
3936.17
3926.24
3884.05
3874.85
3905.38
2352.04
2388.6
2395.44
2350.12
2346.27
2417.97
2701.31
2790.17
2805.96
2692.49
2673.61
2766.69
337.091
405.692
418.588
321.209
216.979
429.048
808.25
798.685
799.597
813.7
799.499
809.184
2649.71
2613.27
2616.61
2655.29
2657.3
2662.28
7049.66
7047.31
7043.46
7056.02
7037.04
7143.04
9215.86
9245.56
9245.39
9203.23
9166.82
9304.27
8934.29
8835.36
8896.34
8884.66
8883.12
8848.45
8822.35
8802.13
8854.22
8763.24
8767.19
8769.16
4907.14
5259.22
5173.71
4908.56
4814.17
5354.53
866.133
1042.24
999.058
865.733
826.567
1112.22
766.063
724.667
726.916
776.276
792.788
716.526
863.55
759.471
763.058
884.674
945.314
748.527
12.7994
13.178
12.3782
12.7055
12.985
12.6356
9.46724
9.13645
8.53854
8.35795
8.52413
8.25132
8.81695
9.54062
9.86185
10.0007
9.83786
10.3653
-4.86178
-4.96167
-5.22648
-5.08989
-5.0969
-4.88399
-31.7344
-31.5742
-31.7659
-32.0648
-32.4579
-31.6508
-84.8085
-84.8791
-84.7001
-85.0534
-85.6179
-84.4851
-121.571
-125.315
-124.256
-122.44
-121.25
-125.608
-19.5806
-19.7288
-19.507
-18.5134
-18.6537
-21.4405
416.496
377.572
386.017
410.547
391.65
346.581
133.873
168.609
161.015
133.537
128.23
181.291
136.364
137.69
137.28
136.57
136.377
137.306
210.457
264.915
263.377
203.792
175.258
280.568
3126.67
3035.38
3119.57
3051.16
3040.85
3096.91
3012.42
2898.29
3032.49
2972.2
2916.31
3016.78
2823.5
2720.68
2719.35
2784.93
2761.5
2768.6
2649.91
2319.11
2087.15
2258.82
2287.4
2334.37
1904.71
1694.25
1663.96
1648.92
1481.4
1499.41
988.324
981.857
979.581
998.19
1064.07
1017.4
632.088
557.695
495.833
518.488
604.54
565.919
568.376
507.067
390.047
229.79
288.256
422.419
554.061
535.674
379.642
213.103
246.731
462.932
362.698
510.575
378.015
257.894
260.134
467.523
372.99
386.257
403.077
449.961
475.109
537.094
400.434
360.16
444.821
555.513
583.731
565.321
2989.08
2934.63
3028.81
2987.9
2964.79
3014.42
2741.89
2682.23
2816.86
2814.86
2729.95
2783.18
2642.3
2592.04
2215.69
2405.04
2527.31
2533.56
2407.5
1720.46
1444.42
1606.59
2183.52
2218.2
1290.62
751.343
771.84
841.531
784.065
816.985
167.173
165.837
139.056
135.108
196.583
180.594
23.0199
13.643
17.6506
43.3298
57.7811
22.6827
34.6075
30.6541
17.0199
72.1473
56.0914
14.507
178.306
50.769
20.8679
61.0098
27.9612
18.9116
218.404
26.7759
24.8641
34.5324
29.7892
64.1156
152.712
48.9295
49.5116
55.8602
64.564
135.401
198.41
103.894
67.39
78.2473
78.1594
157.014
2502.35
2486.91
2966.3
3043.58
2960.58
2961.22
1134.45
2076.23
1913.36
2916.16
2886.28
1989.91
1434.95
2674.39
2896.9
2776.86
2691.63
1166.87
1748.81
2507.81
1822.46
2009.7
2331.8
817.478
1037.76
760.598
185.041
243.131
520.977
485.694
71.5476
35.3944
31.3626
31.1143
28.5
32.4011
26.0885
29.7859
35.1685
37.939
37.4861
36.5632
29.1377
29.7124
30.4708
34.3104
32.4614
30.7635
18.2987
18.6956
12.6221
16.792
19.5435
25.6939
10.1007
10.3369
11.1134
12.302
21.8011
29.1135
16.2227
36.0861
33.9819
82.1553
96.6731
13.1966
43.6518
105.641
114.586
183.947
170.992
62.5882
63.5649
53.6697
785.065
2013.59
1613.17
592.598
1.89086
5.92907
4.71933
435.567
826.771
270.71
1.77332
16.3807
242.14
1567.38
860.237
41.0485
-14.28
807.082
1619.55
1861.15
543.674
-10.4178
9.84281
906.942
670.964
327.015
272.425
94.4494
30.6422
195.329
19.9737
20.0521
22.3991
42.0769
16.7552
17.918
23.3195
22.4118
22.3201
21.9562
17.8181
17.9852
17.6677
18.6568
18.2842
20.4476
10.8034
8.64517
4.78128
9.68851
9.80626
19.9709
2.56512
1.16746
-3.71595
0.186194
1.51268
3.44601
16.564
12.2031
5.07969
36.3044
56.0199
9.53907
257.832
235.619
258.355
243.72
232.363
254.383
23.5064
19.0094
16.6011
24.1493
27.0731
18.926
15.5057
4.95934
1.30681
15.4404
14.8939
7.69723
8.51632
4.09797
1.88641
8.56986
8.5257
7.87449
15.2981
13.2136
12.8017
11.4708
9.58845
12.1716
4.05777
2.06738
2.93483
-1.7071
1.47137
4.18738
-15.1192
-14.8795
-14.313
-14.9414
-15.3896
-11.3743
0.713087
1.18956
1.66468
1.28009
1.26175
2.33503
-10.0616
-10.1529
-10.2852
-9.96161
-9.97817
-10.3239
-13.0146
-13.2351
-13.236
-13.0936
-13.0956
-13.5223
-8.55171
-8.15948
-8.04761
-8.35384
-8.66609
-8.06084
-15.9771
-15.9497
-15.7285
-15.6452
-15.4374
-15.4734
-13.3689
-13.4861
-13.3509
-13.3834
-13.2926
-13.3509
-25.3261
-24.3365
-24.5768
-25.0496
-25.3395
-23.669
-24.59
-24.4588
-24.6137
-24.857
-24.9119
-24.1273
-13.1661
-13.3449
-13.3005
-13.2101
-12.9438
-13.5401
-82.1693
-80.9064
-81.0583
-82.2533
-83.7249
-79.2782
-57.1746
-57.0217
-57.0108
-57.7405
-58.0163
-55.7762
-11.5403
-11.8327
-11.7603
-11.5271
-11.0714
-12.5962
-145.063
-145.602
-145.139
-145.806
-146.925
-144.96
-86.1654
-86.7041
-86.321
-87.6025
-88.3874
-86.703
-13.3086
-13.8865
-13.6987
-13.049
-11.8457
-13.8603
-117.095
-118.364
-117.673
-117.71
-117.808
-118.823
-77.3041
-77.7562
-77.6965
-78.255
-78.5193
-77.7328
-14.9921
-15.3493
-15.2934
-15.0093
-14.9541
-15.1232
-46.843
-46.7599
-46.7892
-46.3453
-46.8301
-47.1718
-39.4336
-40.055
-40.0504
-39.3616
-39.7387
-40.0628
-11.1721
-11.306
-11.4122
-10.9891
-11.1518
-11.3261
27.515
26.5052
25.9154
27.9972
27.064
26.3555
5.22061
4.36659
3.99195
5.6693
5.44001
4.22301
-2.3106
-2.5885
-2.6026
-2.17741
-2.23276
-2.83255
58.9444
58.7532
58.0801
60.5307
60.8022
59.8031
11.0382
11.1151
10.7317
11.7396
12.2762
11.6558
0.855549
1.00828
0.972392
0.928355
0.937016
1.06175
403.746
400.564
398.973
403.018
402.069
395.492
-3.27438
-3.43528
-3.41795
-3.10715
-3.226
-3.27807
-1.06479
-1.05498
-1.04598
-1.00194
-0.992346
-0.974895
1469.04
1449.98
1429.22
1435.56
1432.12
1426.96
6.08242
6.06601
6.34597
6.85935
7.15112
7.22756
-4.7274
-4.77077
-4.63926
-4.71527
-4.83167
-4.8707
1573.44
1560.14
1545.54
1536.48
1537.92
1545.33
4.91357
5.02737
5.21853
5.33731
5.45761
5.51806
-3.39142
-3.35588
-3.28338
-3.3129
-3.37497
-3.40094
1593.35
1592.01
1589.68
1587.95
1586.18
1585.16
5.2875
5.31189
5.37705
5.46825
5.53493
5.57151
-3.89209
-3.89121
-3.89202
-3.91203
-3.93204
-3.91144
1556.52
1557.93
1557.31
1554.87
1551.81
1554.86
4.93109
4.96633
5.01585
5.06404
5.1036
5.12629
-3.48539
-3.48299
-3.48027
-3.48074
-3.48538
-3.51957
1507.73
1510.02
1510.32
1505.3
1500.85
1505.72
5.7545
5.78541
5.81576
5.86341
5.9059
5.92451
-2.54604
-2.55021
-2.54803
-2.53187
-2.52351
-2.52766
1439.33
1435.77
1435.65
1438
1436.59
1428.74
5.06555
5.1234
5.1269
5.11607
5.09467
5.18285
-2.63485
-2.62061
-2.61814
-2.59141
-2.58846
-2.56155
-0.0147116
-4.79742
-7.62348
-9.8727
-12.0442
-11.0026
-2.18916
-2.79849
-2.82855
-6.31963
-6.77321
-5.18237
-4.77676
-5.22832
-5.19069
-5.46056
-5.54898
-4.86995
-9.64861
-10.1537
-11.5645
-15.7683
-22.2856
-24.9349
-3.22935
-5.40919
-6.7011
-9.95195
-10.4371
-8.72079
-6.39611
-6.92837
-7.51022
-6.42314
-5.64977
-4.87503
-15.0161
-21.2774
-19.8871
-27.6356
-35.3106
-31.227
-4.69327
-9.49601
-11.9925
-15.918
-13.52
-9.48296
-4.21504
-5.02119
-5.14363
-4.47909
-2.83715
-1.7161
-34.4768
-45.8371
107.934
339.159
-47.9987
-38.8671
-21.2297
-25.3914
-30.0346
-15.743
-27.6071
-20.6636
-4.97785
-6.32218
-7.45235
-6.56603
-3.58193
-2.26857
-43.3081
126.797
489.351
241.233
-18.6639
-23.6152
-19.208
17.8675
56.6544
79.7416
-21.7463
-15.3175
-3.49501
-4.72529
-4.82481
-4.26759
-2.86235
-1.75685
1.87804
95.4841
96.6449
22.8028
10.1814
12.5306
-2.56781
12.4415
27.0427
6.08525
-0.25896
0.957483
-1.19747
-2.31027
-1.87767
-0.622899
-0.597902
-0.160325
13.9012
14.5131
16.6809
17.8391
16.3746
16.0803
6.07451
5.25628
7.38568
7.23998
6.04178
5.85264
-0.00585224
-0.627231
0.153606
0.271452
0.393583
0.497691
16.0154
15.3607
13.748
12.6983
12.4843
12.5377
7.70781
7.15991
6.35952
6.18834
6.04222
4.57645
1.0322
0.85236
1.11904
1.25295
1.42229
1.42759
10.3832
9.62486
5.67916
5.61516
5.70132
5.7748
4.65183
4.18924
2.90964
2.28806
2.13985
1.55299
0.819228
0.669891
1.2139
1.84122
2.09578
2.50535
5.68133
4.89599
0.351763
-1.33503
1.59549
3.30545
3.63652
3.19692
2.27999
1.35686
1.93463
2.64822
0.524367
0.18423
1.23284
2.45353
2.45663
2.32515
13.2876
13.674
11.8799
5.77087
7.09
9.81368
3.76924
2.5226
3.56105
3.0701
2.42813
2.57522
1.69102
1.82149
2.66775
3.48598
3.3884
3.04704
374.504
336.355
315.903
349.737
325.499
348.099
-1.07618
-0.896478
-0.0752623
-0.0764039
0.911634
1.35344
-2.91886
-2.48439
-1.93706
-2.31839
-2.57958
-2.7072
)
;

boundaryField
{
    seabed_topleft_surface
    {
        type            fixedFluxPressure;
        gradient        uniform 0;
        value           nonuniform List<scalar> 
72
(
15795.6
15789.7
15792
15790.8
15795.2
15787.9
16190
16188.7
16190.2
16196.3
16213.8
16180.4
17566.8
17562.8
17562.1
17566.8
17573.4
17557.6
18818.8
18818.1
18818.7
18819.6
18821.2
18820.4
19858.4
19858.3
19858.4
19859.7
19861.1
19861.7
19997.6
19996.9
19997.6
19998.6
19999.6
20001.3
18678.3
18671.2
18675.6
18676.6
18673.5
18684.7
16183
16192.3
16194.2
16189.5
16191.2
16210.7
12808.2
12806.1
12809.2
12811.7
12819.5
12818.2
10554.9
10547.8
10547.9
10558.7
10571.3
10537.9
9123.72
9114.75
9111.64
9124.08
9129.66
9099.32
7971.46
7960.31
7961.99
7969.6
7975.58
7966.37
)
;
    }
    seabed_topright_surface
    {
        type            fixedFluxPressure;
        gradient        uniform 0;
        value           nonuniform List<scalar> 
72
(
3126.67
3035.38
3119.57
3051.16
3040.85
3096.91
3012.42
2898.29
3032.49
2972.2
2916.31
3016.78
2823.5
2720.68
2719.35
2784.93
2761.5
2768.6
2649.91
2319.11
2087.15
2258.82
2287.4
2334.37
1904.71
1694.25
1663.96
1648.92
1481.4
1499.41
988.324
981.857
979.581
998.19
1064.07
1017.4
632.088
557.695
495.833
518.488
604.54
565.919
568.376
507.067
390.047
229.79
288.256
422.419
554.061
535.674
379.642
213.103
246.731
462.932
362.698
510.575
378.015
257.894
260.134
467.523
372.99
386.257
403.077
449.961
475.109
537.094
400.434
360.16
444.821
555.513
583.731
565.321
)
;
    }
    breakwater_top_surface
    {
        type            fixedFluxPressure;
        gradient        uniform 0;
        value           nonuniform List<scalar> 
36
(
1469.04
1449.98
1429.22
1435.56
1432.12
1426.96
1573.44
1560.14
1545.54
1536.48
1537.92
1545.33
1593.35
1592.01
1589.68
1587.95
1586.18
1585.16
1556.52
1557.93
1557.31
1554.87
1551.81
1554.86
1507.73
1510.02
1510.32
1505.3
1500.85
1505.72
1439.33
1435.77
1435.65
1438
1436.59
1428.74
)
;
    }
    breakwater_left_surface
    {
        type            fixedFluxPressure;
        gradient        uniform 0;
        value           nonuniform List<scalar> 
24
(
7971.46
7960.31
7961.99
7969.6
7975.58
7966.37
2352.04
2388.6
2395.44
2350.12
2346.27
2417.97
863.55
759.471
763.058
884.674
945.314
748.527
210.457
264.915
263.377
203.792
175.258
280.568
)
;
    }
    breakwater_right_surface
    {
        type            fixedFluxPressure;
        gradient        uniform 0;
        value           nonuniform List<scalar> 
24
(
400.434
360.16
444.821
555.513
583.731
565.321
198.41
103.894
67.39
78.2473
78.1594
157.014
43.6518
105.641
114.586
183.947
170.992
62.5882
257.832
235.619
258.355
243.72
232.363
254.383
)
;
    }
    water_front_surface
    {
        type            fixedFluxPressure;
        gradient        uniform 0;
        value           nonuniform List<scalar> 
186
(
15795.6
16190
17566.8
18818.8
19858.4
19997.6
18678.3
16183
12808.2
10554.9
9123.72
7971.46
14026.3
11786.3
13709
17791.6
20550.7
20689.7
18062.8
10887.8
5695.56
5043.84
3896.66
2352.04
2701.31
337.091
808.25
2649.71
7049.66
9215.86
8934.29
8822.35
4907.14
866.133
766.063
863.55
12.7994
9.46724
8.81695
-4.86178
-31.7344
-84.8085
-121.571
-19.5806
416.496
133.873
136.364
210.457
3126.67
3012.42
2823.5
2649.91
1904.71
988.324
632.088
568.376
554.061
362.698
372.99
400.434
2989.08
2741.89
2642.3
2407.5
1290.62
167.173
23.0199
34.6075
178.306
218.404
152.712
198.41
2502.35
1134.45
1434.95
1748.81
1037.76
71.5476
26.0885
29.1377
18.2987
10.1007
16.2227
43.6518
63.5649
1.89086
1.77332
-14.28
9.84281
30.6422
16.7552
17.8181
10.8034
2.56512
16.564
257.832
23.5064
15.5057
8.51632
15.2981
4.05777
-15.1192
0.713087
-10.0616
-13.0146
-8.55171
-15.9771
-13.3689
-25.3261
-24.59
-13.1661
-82.1693
-57.1746
-11.5403
-145.063
-86.1654
-13.3086
-117.095
-77.3041
-14.9921
-46.843
-39.4336
-11.1721
27.515
5.22061
-2.3106
58.9444
11.0382
0.855549
403.746
-3.27438
-1.06479
1469.04
6.08242
-4.7274
1573.44
4.91357
-3.39142
1593.35
5.2875
-3.89209
1556.52
4.93109
-3.48539
1507.73
5.7545
-2.54604
1439.33
5.06555
-2.63485
-0.0147116
-2.18916
-4.77676
-9.64861
-3.22935
-6.39611
-15.0161
-4.69327
-4.21504
-34.4768
-21.2297
-4.97785
-43.3081
-19.208
-3.49501
1.87804
-2.56781
-1.19747
13.9012
6.07451
-0.00585224
16.0154
7.70781
1.0322
10.3832
4.65183
0.819228
5.68133
3.63652
0.524367
13.2876
3.76924
1.69102
374.504
-1.07618
-2.91886
)
;
    }
    water_back_surface
    {
        type            fixedFluxPressure;
        gradient        uniform 0;
        value           nonuniform List<scalar> 
186
(
15787.9
16180.4
17557.6
18820.4
19861.7
20001.3
18684.7
16210.7
12818.2
10537.9
9099.32
7966.37
14067.4
11788.8
13705.9
17840.6
20569
20689.4
18106.4
11172.8
5491.73
4856.1
3905.38
2417.97
2766.69
429.048
809.184
2662.28
7143.04
9304.27
8848.45
8769.16
5354.53
1112.22
716.526
748.527
12.6356
8.25132
10.3653
-4.88399
-31.6508
-84.4851
-125.608
-21.4405
346.581
181.291
137.306
280.568
3096.91
3016.78
2768.6
2334.37
1499.41
1017.4
565.919
422.419
462.932
467.523
537.094
565.321
3014.42
2783.18
2533.56
2218.2
816.985
180.594
22.6827
14.507
18.9116
64.1156
135.401
157.014
2961.22
1989.91
1166.87
817.478
485.694
32.4011
36.5632
30.7635
25.6939
29.1135
13.1966
62.5882
592.598
270.71
41.0485
-10.4178
94.4494
42.0769
21.9562
20.4476
19.9709
3.44601
9.53907
254.383
18.926
7.69723
7.87449
12.1716
4.18738
-11.3743
2.33503
-10.3239
-13.5223
-8.06084
-15.4734
-13.3509
-23.669
-24.1273
-13.5401
-79.2782
-55.7762
-12.5962
-144.96
-86.703
-13.8603
-118.823
-77.7328
-15.1232
-47.1718
-40.0628
-11.3261
26.3555
4.22301
-2.83255
59.8031
11.6558
1.06175
395.492
-3.27807
-0.974895
1426.96
7.22756
-4.8707
1545.33
5.51806
-3.40094
1585.16
5.57151
-3.91144
1554.86
5.12629
-3.51957
1505.72
5.92451
-2.52766
1428.74
5.18285
-2.56155
-11.0026
-5.18237
-4.86995
-24.9349
-8.72079
-4.87503
-31.227
-9.48296
-1.7161
-38.8671
-20.6636
-2.26857
-23.6152
-15.3175
-1.75685
12.5306
0.957483
-0.160325
16.0803
5.85264
0.497691
12.5377
4.57645
1.42759
5.7748
1.55299
2.50535
3.30545
2.64822
2.32515
9.81368
2.57522
3.04704
348.099
1.35344
-2.7072
)
;
    }
    water_left_surface
    {
        type            fixedFluxPressure;
        gradient        uniform 0;
        value           nonuniform List<scalar> 
42
(
15795.6
15789.7
15792
15790.8
15795.2
15787.9
14026.3
14098.1
14084.4
14039.8
14014.6
14067.4
2701.31
2790.17
2805.96
2692.49
2673.61
2766.69
12.7994
13.178
12.3782
12.7055
12.985
12.6356
23.5064
19.0094
16.6011
24.1493
27.0731
18.926
15.5057
4.95934
1.30681
15.4404
14.8939
7.69723
8.51632
4.09797
1.88641
8.56986
8.5257
7.87449
)
;
    }
    water_right_surface
    {
        type            fixedFluxPressure;
        gradient        uniform 0;
        value           nonuniform List<scalar> 
42
(
3126.67
3035.38
3119.57
3051.16
3040.85
3096.91
2989.08
2934.63
3028.81
2987.9
2964.79
3014.42
2502.35
2486.91
2966.3
3043.58
2960.58
2961.22
63.5649
53.6697
785.065
2013.59
1613.17
592.598
-0.0147116
-4.79742
-7.62348
-9.8727
-12.0442
-11.0026
-2.18916
-2.79849
-2.82855
-6.31963
-6.77321
-5.18237
-4.77676
-5.22832
-5.19069
-5.46056
-5.54898
-4.86995
)
;
    }
    water_top_surface
    {
        type            totalPressure;
        rho             rho;
        psi             none;
        gamma           1;
        p0              uniform 0;
        value           nonuniform List<scalar> 
180
(
0
0
0
0
0
0
-16.5964
-16.3198
-15.2607
-16.5872
-17.8578
-12.2181
-17.7394
-18.3507
-18.2896
-17.9391
-17.9405
-17.9369
-15.8852
-16.2381
-16.0714
-16.0187
-15.9547
-15.9282
-14.4472
-15.0147
-14.8799
-14.5478
-14.3049
-14.8711
-9.11465
-10.2036
-10.4437
-9.25891
-8.45556
-11.2465
0
-0.0405031
-0.0814293
0
0
-0.435386
0
0
0
0
0
0
0
0
0
0
0
0
0
0
0
0
0
0
0
0
0
0
0
0
-0.0234046
-0.0228723
-0.0230309
-0.0199045
-0.0205061
-0.0179654
-0.00500979
-0.0281022
-0.0243563
0
0
0
-0.338674
-0.325365
-0.252819
-0.263248
-0.272404
-0.309647
-0.223711
-0.237576
-0.221726
-0.214656
-0.21056
-0.203781
-0.276244
-0.28631
-0.278209
-0.277726
-0.277806
-0.276821
-0.0415557
-0.044396
-0.0405481
-0.0346687
-0.0302041
-0.0319244
0
0
0
0
0
0
-1.54353
-5.13219
0
-1.36122
-6.45865
-2.37928
-7.51959
-8.03737
-9.03538
-8.54967
-8.19431
-5.0112
-4.00623
-7.15718
-5.83812
-6.58703
-5.69619
-2.25821
-1.52031
-2.9923
-2.87926
-1.73588
-0.689725
-0.573903
0
0
0
0
0
0
0
0
0
0
0
0
0
0
0
0
0
0
0
0
0
0
0
0
0
0
0
0
0
0
0
0
0
0
-0.00808735
-0.0359565
-0.013611
-0.0304462
0
-0.0223287
-0.266732
-0.273722
-0.768002
-1.20502
-0.922231
-0.795051
-0.65071
-0.570747
)
;
    }
}


// ************************************************************************* //
