/*--------------------------------*- C++ -*----------------------------------*\
| =========                 |                                                 |
| \\      /  F ield         | OpenFOAM: The Open Source CFD Toolbox           |
|  \\    /   O peration     | Version:  v1612+                                |
|   \\  /    A nd           | Web:      www.OpenFOAM.com                      |
|    \\/     M anipulation  |                                                 |
\*---------------------------------------------------------------------------*/
FoamFile
{
    version     2.0;
    format      ascii;
    class       surfaceScalarField;
    location    "2.5";
    object      phi;
}
// * * * * * * * * * * * * * * * * * * * * * * * * * * * * * * * * * * * * * //

dimensions      [0 3 -1 0 0 0 0];

internalField   nonuniform List<scalar> 
816
(
-3.2043e-06
-1.99111e-07
2.17728e-06
2.61385e-06
1.03928e-06
-2.42717e-06
1.21006e-06
1.23644e-06
1.93256e-07
3.67107e-06
-9.51074e-06
-1.18678e-06
2.65273e-06
2.28566e-06
2.98497e-06
-6.92861e-06
-4.94324e-07
2.31082e-06
3.36703e-06
-5.14961e-06
-0.000114014
0.000284058
-5.68086e-06
-5.51183e-05
9.46105e-05
4.93414e-05
4.51026e-06
8.36815e-05
9.15342e-05
0.000145719
2.59545e-06
-4.92652e-06
0.000130062
4.12382e-05
-7.42434e-06
7.7342e-06
-6.88696e-05
-0.00015019
1.89056e-06
-0.000204198
7.98608e-05
0.000260405
2.40866e-06
-0.000230019
-2.73121e-05
3.72346e-05
1.25039e-06
-0.000137987
7.06195e-05
-1.73659e-05
-1.01257e-05
-0.000156083
-3.06002e-07
2.48076e-05
-2.2434e-06
-1.66351e-05
6.98092e-05
0.000154233
-1.32549e-06
6.26818e-05
1.60438e-05
0.000167546
1.39617e-06
0.000209056
-0.000193256
-1.82756e-05
0.000115603
5.95853e-05
-4.61424e-06
1.07076e-05
-1.17964e-05
-3.55645e-06
1.8223e-06
5.62131e-06
-8.12869e-06
-2.99301e-07
2.44809e-06
2.27584e-06
-1.36188e-06
1.8707e-06
5.5943e-06
-1.94739e-06
2.39876e-06
-3.90588e-06
-2.20424e-06
-3.25117e-06
2.08811e-06
-1.17418e-06
-3.29825e-06
-1.25815e-07
-4.49262e-06
4.1054e-06
-4.68232e-07
1.12733e-06
-9.85167e-07
-6.11365e-07
2.43057e-06
-3.11664e-06
-1.2012e-06
-6.4711e-06
8.79606e-07
1.84147e-06
-1.09581e-05
-2.39745e-07
3.11163e-06
5.49204e-06
-3.01124e-06
-1.31033e-07
-2.20633e-06
8.0448e-06
-4.2408e-06
2.73976e-06
-2.26928e-06
1.30172e-06
1.48099e-07
-1.73597e-07
-1.49346e-06
-1.50925e-06
-5.21213e-06
-1.39792e-06
-2.06135e-06
-4.41127e-06
-1.90144e-06
4.7085e-07
-1.00471e-06
-1.24573e-06
-1.63866e-06
9.25421e-07
1.68991e-06
4.57059e-07
9.48537e-07
1.13219e-06
4.51639e-07
1.10956e-06
-1.54212e-06
-1.53444e-06
-1.56314e-06
2.11131e-06
-1.31107e-07
4.64999e-07
2.53747e-06
-8.02747e-07
1.83594e-06
-2.30008e-06
-4.62137e-06
-5.12545e-08
-1.44155e-06
-2.19017e-06
-1.91882e-06
1.09825e-06
-2.11305e-06
-3.21732e-06
1.50624e-06
2.35339e-07
-2.48964e-06
-5.50031e-08
-2.26055e-06
-3.52432e-08
8.123e-07
1.99026e-06
5.3694e-07
-2.59801e-08
8.77693e-07
-7.50554e-07
1.33126e-06
-1.18504e-06
1.61898e-06
1.86363e-06
6.70285e-07
-3.08143e-07
1.55667e-06
9.34912e-07
-6.43662e-07
-6.7235e-07
-1.55233e-06
-1.50669e-06
-1.51408e-06
-1.86807e-06
-7.70082e-07
-1.92729e-07
-7.50047e-07
-1.5148e-06
-5.82272e-08
6.32804e-07
-3.33782e-07
4.64322e-07
6.52626e-07
6.05558e-07
1.95662e-07
6.30402e-07
-5.61486e-08
-9.07165e-07
-5.42308e-07
1.58292e-06
5.52165e-07
-4.75563e-08
1.71237e-06
1.09189e-06
-3.80798e-07
-9.02892e-07
6.97314e-08
-3.64365e-07
-1.7001e-06
-1.02274e-06
5.27189e-07
-4.39821e-07
-1.61846e-06
4.56255e-07
-1.0627e-06
-2.46907e-06
2.64148e-07
1.66128e-07
-0.000180117
-0.000100081
-1.06635e-05
2.67818e-05
-0.000101266
1.78376e-07
-9.8129e-05
-5.0976e-05
1.34576e-05
0.000124789
-2.66166e-05
2.49678e-06
0.000103296
8.93747e-05
-4.49157e-06
6.38912e-06
-0.000109438
6.05782e-05
-9.07857e-06
5.97668e-05
-0.000149207
-3.93436e-06
-0.000133408
-0.000350103
-6.30552e-06
-0.000358039
-0.000259398
-6.02309e-06
-0.000294664
0.000298402
-9.2906e-06
-0.000117554
-0.000146338
0.000158847
-5.41033e-06
-5.6712e-05
-1.27161e-06
3.25019e-06
-0.000154857
4.78932e-05
3.4641e-06
-4.86523e-05
-3.72043e-05
-9.75605e-06
-6.80055e-05
0.000183261
9.26529e-06
-0.00013132
-0.000102275
0.000139176
8.57787e-06
4.76413e-05
9.7408e-05
-1.94426e-06
-5.78495e-05
-0.000128896
-8.87224e-06
2.97176e-05
-0.000227622
-1.74402e-05
-0.000109822
-3.62474e-06
-8.37081e-05
-0.000158677
-5.82288e-06
-5.3863e-06
6.71985e-06
-5.86006e-06
-2.28872e-06
-1.6638e-07
-7.12734e-06
4.05507e-06
4.804e-06
1.90445e-06
5.20362e-07
4.58402e-06
4.07703e-06
5.0712e-06
6.18567e-06
-7.43884e-06
-7.70832e-06
3.32973e-07
3.22911e-06
-2.38102e-06
2.0635e-07
4.25056e-06
-1.21931e-05
-4.62082e-06
1.21208e-05
-1.23417e-05
-9.24191e-06
7.41522e-06
-2.19611e-06
-1.40138e-07
-1.34394e-05
5.53414e-06
-9.54474e-06
-2.18607e-06
1.1722e-06
-5.29997e-06
-2.71245e-06
4.93303e-06
-3.46892e-06
3.6403e-06
-5.33766e-06
-4.25784e-06
1.65993e-06
-3.6061e-06
-5.2591e-06
1.32005e-06
-5.71618e-07
4.08037e-06
2.00056e-06
5.94216e-06
-9.27715e-07
5.06394e-06
3.41481e-06
3.38553e-07
-8.852e-06
-2.691e-06
7.29866e-06
-6.52181e-06
-1.0798e-05
4.60368e-07
-9.42421e-06
-4.89735e-06
-7.87509e-06
-6.78593e-06
-1.80326e-06
3.52716e-06
3.6917e-06
-1.18043e-06
-2.09865e-06
5.07938e-07
-1.769e-06
-3.75186e-07
2.57844e-06
-1.3915e-06
2.00083e-06
1.60145e-06
-6.35559e-07
-3.11105e-07
2.32977e-06
1.40641e-06
4.76215e-06
-3.37498e-07
1.37674e-06
2.48413e-07
-7.8043e-08
2.88403e-06
1.56795e-06
2.8969e-06
5.67228e-06
3.91329e-06
4.59065e-06
2.52744e-06
1.67926e-06
-7.92581e-08
-6.40712e-06
-3.84456e-06
1.49046e-06
2.40775e-07
1.24215e-06
-1.9366e-06
3.43932e-06
2.26626e-06
-5.08982e-08
1.55709e-06
-2.02298e-06
4.0815e-07
2.41963e-07
-1.92062e-06
-4.14347e-07
-1.69283e-06
-6.2321e-07
1.97662e-06
1.95925e-08
-1.92839e-06
-5.15629e-07
-1.64507e-06
-1.15336e-06
-2.02836e-07
8.65821e-07
7.07177e-07
3.71167e-06
3.16698e-06
4.85145e-07
-2.51271e-07
8.70017e-07
-2.61923e-06
-1.32605e-06
3.07002e-06
-1.28009e-06
2.76182e-06
7.7832e-07
-1.02907e-06
-8.96039e-07
1.48911e-07
-1.56505e-06
-8.15516e-08
1.22415e-06
-1.32281e-06
9.53381e-07
6.66423e-07
-8.38005e-07
-1.98539e-07
8.26005e-07
2.94216e-07
2.3616e-06
-3.49179e-07
5.32051e-07
-5.08413e-07
4.90449e-07
1.04237e-06
6.95434e-07
2.67093e-06
1.4539e-06
2.67093e-06
3.02498e-06
7.39983e-07
1.4116e-06
-5.43649e-07
-1.56755e-06
-1.98953e-06
7.32689e-07
2.36037e-07
6.2317e-07
-1.03234e-06
2.43222e-06
5.32601e-07
1.0713e-07
1.57168e-06
-6.41345e-07
5.88414e-07
7.92861e-07
-7.22799e-07
-3.25743e-07
-1.48395e-06
-4.00443e-07
1.42127e-06
6.12085e-07
-1.45242e-06
-2.10516e-07
-7.16181e-07
-1.21039e-06
4.87416e-08
-2.0558e-08
5.92834e-07
6.90976e-07
1.67023e-06
2.29613e-08
-5.71683e-09
6.01012e-07
-7.29452e-07
-1.38033e-06
2.28345e-06
-1.41849e-06
4.84677e-07
1.52337e-08
1.47291e-06
5.34336e-07
-1.22407e-07
-4.71501e-07
-9.06838e-07
9.92444e-07
1.09538e-06
-4.29408e-07
1.02444e-06
-8.20898e-07
1.01421e-07
-7.49377e-07
-7.17792e-07
-9.81917e-07
1.77534e-07
-3.94184e-07
-5.51714e-07
4.70039e-07
-2.76352e-07
2.89067e-07
-2.92616e-08
7.27205e-07
-5.09631e-07
-4.50346e-07
1.25761e-06
4.75627e-07
1.31537e-06
5.77674e-07
-9.10314e-07
3.53822e-07
1.88875e-07
-7.90117e-07
5.70351e-07
-1.04294e-06
6.90809e-07
-1.16162e-06
3.98512e-07
-1.01884e-06
1.44994e-06
-8.09291e-07
-9.64536e-07
-6.4947e-07
-1.091e-07
-6.10244e-07
4.65519e-07
-2.9365e-07
-1.89428e-08
1.22467e-07
1.1961e-06
-3.15428e-08
6.33973e-09
3.69231e-07
3.90523e-07
1.14475e-06
6.73379e-07
1.15153e-06
2.46736e-07
1.50931e-07
-8.93831e-07
3.47418e-07
7.29757e-07
-3.67192e-07
1.60657e-06
1.48837e-07
1.20441e-06
3.49809e-07
6.96894e-07
1.60441e-07
-9.45285e-07
8.09438e-07
4.38183e-07
-9.421e-07
1.98931e-09
-7.11114e-07
4.04119e-07
-2.64901e-07
9.46669e-07
-2.65189e-07
4.01785e-07
-6.83051e-07
1.14197e-06
2.96905e-05
-0.000114007
1.27336e-05
-0.000194382
3.00304e-06
4.05755e-05
2.08641e-05
4.21172e-05
1.13184e-06
-4.00985e-05
-6.89039e-06
-0.000113106
5.26608e-06
8.74253e-06
1.76893e-06
0.000104541
-4.5962e-06
-0.000123468
1.62436e-06
-0.000338573
1.77514e-05
-0.00019787
4.81174e-06
3.36856e-05
-9.98801e-06
-2.73712e-05
-1.35682e-06
0.000107006
7.97708e-06
0.000288609
7.11087e-06
0.00016186
1.51668e-05
6.03583e-05
4.8801e-06
3.81853e-05
7.69037e-06
-0.00012481
1.33395e-05
-0.000115046
-1.39395e-05
0.000219414
-1.24353e-05
0.00025296
-3.43774e-06
6.04384e-05
8.19674e-06
9.79241e-05
1.89368e-05
-0.000128936
-2.76574e-06
-0.000153001
4.79663e-06
-5.06792e-06
-3.3031e-06
6.67358e-06
3.78414e-06
-3.61328e-06
4.05834e-06
-3.6911e-06
4.24415e-06
6.41202e-06
3.47811e-06
3.38389e-06
6.48675e-06
-5.27771e-06
6.14114e-06
-6.92217e-06
-3.46353e-07
3.28943e-06
-8.6124e-06
1.40734e-06
-1.06089e-05
-6.07518e-06
5.637e-06
-8.91129e-07
1.61885e-06
8.54909e-06
-1.49787e-05
6.06981e-06
-8.441e-06
-4.44244e-06
1.20684e-05
-3.95794e-06
6.52123e-06
1.22521e-06
-8.03212e-06
1.63231e-06
7.30188e-06
-1.66494e-06
4.11614e-06
4.03663e-06
-2.80902e-06
7.85119e-06
-1.07971e-06
3.08727e-06
-5.47834e-06
4.57024e-07
-9.09229e-06
-2.73201e-06
1.59869e-07
-6.8903e-06
7.3463e-06
3.54406e-07
5.2668e-07
3.89814e-07
-8.93919e-06
-2.53353e-06
-1.3346e-06
-3.5747e-06
-9.36691e-06
-5.17067e-07
-1.42896e-06
1.91304e-06
2.24926e-06
-9.00293e-07
2.54286e-06
-1.36412e-06
2.1765e-06
3.29468e-07
3.4047e-06
2.74154e-06
3.09441e-06
3.35267e-06
4.44733e-07
-1.35279e-06
-3.90352e-06
-2.29592e-06
-4.88666e-06
3.15476e-07
3.28087e-06
1.95117e-06
1.56772e-06
-1.95531e-06
-7.14683e-06
-4.06818e-06
-4.63945e-06
-8.68333e-07
5.02726e-06
2.33157e-06
3.32958e-06
-4.707e-07
-3.72079e-06
9.79442e-07
3.92331e-06
3.40751e-06
1.64634e-06
2.76525e-06
-1.75297e-06
1.46618e-06
-2.01403e-07
1.04308e-06
-3.07757e-06
-2.89721e-06
-5.15619e-06
-1.79667e-06
-9.43425e-07
7.81199e-07
3.11477e-06
1.16278e-06
1.01247e-06
-7.69861e-07
-3.8383e-06
-2.6218e-07
-9.68082e-07
-1.4299e-06
-5.12383e-06
-3.2827e-08
-1.18047e-06
1.44196e-06
6.0953e-07
-8.25888e-07
1.16514e-06
-7.02308e-07
4.90028e-07
9.27704e-08
1.28953e-06
1.44471e-06
9.16558e-07
2.00127e-06
1.95671e-07
-7.15108e-07
-1.19549e-06
-1.71982e-06
-1.51783e-06
4.50271e-07
6.1858e-07
2.56422e-06
1.74118e-07
-3.77648e-07
-1.50996e-06
-2.57676e-06
-1.00153e-06
-9.38495e-07
1.42435e-06
1.32548e-06
1.07548e-06
-7.31518e-07
-8.9333e-07
9.47827e-07
1.22586e-06
2.26594e-06
4.48661e-07
1.76029e-06
-6.35229e-07
1.73963e-06
-5.30573e-07
1.33181e-06
-1.24539e-06
-2.2378e-06
-1.59513e-06
-2.13081e-06
-4.46093e-07
-2.8349e-07
4.76323e-07
8.26912e-07
-1.17026e-07
-2.46224e-09
-1.31928e-06
-2.07e-07
-1.54889e-07
-1.48157e-06
-1.55997e-06
-7.17466e-08
-8.85187e-07
8.11544e-07
-5.26981e-07
-6.85572e-07
-9.27387e-09
6.18179e-07
9.51717e-07
-2.38641e-07
-5.56347e-07
8.08213e-08
6.601e-07
-1.65681e-07
-9.00896e-07
-3.46996e-07
7.33093e-07
2.08128e-07
1.07485e-06
1.67655e-06
1.40124e-06
1.03121e-06
6.08127e-07
-9.86323e-07
-9.80405e-07
-4.98112e-07
-2.04206e-07
-5.70251e-07
-3.22562e-07
-7.39824e-07
3.34585e-05
0.000220404
8.39216e-06
0.00011261
7.49828e-06
4.21266e-05
5.39303e-06
5.12512e-06
1.35746e-06
3.37786e-06
5.19495e-09
9.04203e-07
)
;

boundaryField
{
    top_fluid_surface
    {
        type            calculated;
        value           nonuniform List<scalar> 
64
(
-0.0002035
-0.000347174
-0.000224382
0.000173436
0.000313224
-0.000153583
0.000223178
0.00022356
-9.4841e-05
-0.0002086
-3.62173e-05
0.000292929
0.000376294
-4.10125e-05
-0.000104998
-0.000134982
-7.69849e-06
0.000109145
0.000352235
0.000346659
-8.43584e-05
-0.000280275
0.000110166
0.000175667
-0.000165616
0.000142104
1.38613e-06
4.80425e-05
0.000161615
0.000394103
0.000278691
-8.37873e-05
-1.15927e-05
0.000247193
-0.000353896
0.000121203
0.000192887
7.36314e-05
-0.00012251
-0.000199355
0.000282319
6.31294e-05
-0.00050306
-0.000511873
-5.27203e-05
-0.000140857
-0.000339317
5.27576e-05
-6.07633e-05
-3.98735e-05
7.79271e-05
-0.000126247
-0.000379704
-0.000141499
0.000229011
-0.000121478
0.000166059
-9.35806e-05
-0.00030296
-0.000126398
-0.000360605
-6.98153e-05
0.000179939
0.000288342
)
;
    }
    bottom_fluid_surface
    {
        type            calculated;
        value           uniform 0;
    }
    lateral_surface_1
    {
        type            calculated;
        value           uniform 0;
    }
    lateral_surface_2
    {
        type            calculated;
        value           uniform 0;
    }
    lateral_surface_3
    {
        type            calculated;
        value           uniform 0;
    }
    lateral_surface_4
    {
        type            calculated;
        value           uniform 0;
    }
}


// ************************************************************************* //
