/*--------------------------------*- C++ -*----------------------------------*\
| =========                 |                                                 |
| \\      /  F ield         | OpenFOAM: The Open Source CFD Toolbox           |
|  \\    /   O peration     | Version:  v1612+                                |
|   \\  /    A nd           | Web:      www.OpenFOAM.com                      |
|    \\/     M anipulation  |                                                 |
\*---------------------------------------------------------------------------*/
FoamFile
{
    version     2.0;
    format      ascii;
    class       volVectorField;
    location    "1.8";
    object      U;
}
// * * * * * * * * * * * * * * * * * * * * * * * * * * * * * * * * * * * * * //

dimensions      [0 1 -1 0 0 0 0];

internalField   nonuniform List<vector> 
320
(
(-1.14584e-06 -4.78263e-08 -3.25749e-06)
(-4.45332e-08 -6.88998e-07 -3.12177e-06)
(1.1678e-06 5.86344e-07 8.66166e-07)
(2.66159e-07 1.85825e-06 8.89336e-07)
(6.44084e-05 0.000106316 -4.62264e-05)
(-2.14728e-05 2.31059e-05 1.19404e-05)
(-2.94838e-05 -4.82066e-05 -4.03622e-05)
(-0.000112518 -3.59714e-06 -6.28384e-05)
(3.72768e-05 1.24032e-05 -7.90605e-05)
(0.000130062 1.48168e-05 -3.0507e-06)
(1.42703e-05 -5.35044e-05 -7.92043e-05)
(0.000121158 -0.000111793 -2.74367e-05)
(-1.80865e-05 -8.67111e-06 -0.000140174)
(0.000160815 -0.000111495 -0.000111007)
(0.000141337 -3.93083e-05 2.9395e-05)
(8.74589e-05 -2.08631e-05 -4.50839e-05)
(-1.10233e-06 -1.34851e-06 1.57424e-06)
(2.53071e-06 -2.24263e-06 3.62267e-06)
(2.889e-06 4.9635e-06 -3.28748e-06)
(1.81365e-06 4.15139e-06 -1.89833e-06)
(-3.22811e-07 -4.93277e-06 3.58193e-07)
(-3.16211e-06 -3.83182e-07 1.98376e-06)
(8.95916e-07 -3.53333e-06 2.96974e-06)
(1.08932e-05 -5.21093e-06 -2.73933e-06)
(8.39013e-07 -6.71153e-07 2.19683e-06)
(9.16251e-07 -2.75088e-06 -5.0025e-06)
(-2.04868e-06 -1.10732e-06 9.54173e-07)
(-3.44813e-06 -4.90777e-06 -8.80235e-06)
(2.71266e-06 -3.3509e-07 2.98679e-07)
(-1.12669e-06 -6.72539e-07 2.32917e-06)
(-2.40113e-06 1.02861e-06 -3.27306e-06)
(-8.78344e-07 1.34505e-06 -8.58254e-07)
(-6.46225e-07 1.88935e-06 8.20841e-07)
(-1.19028e-06 -6.65355e-07 7.85844e-07)
(1.25851e-06 5.24765e-07 3.78097e-06)
(-7.45456e-08 2.23088e-07 -2.91121e-06)
(-3.44543e-07 1.66161e-06 -1.47674e-06)
(8.00762e-07 7.87172e-07 -5.25752e-06)
(6.13093e-07 8.55881e-07 1.20533e-07)
(9.76011e-07 1.47658e-06 -8.70484e-06)
(-7.2618e-07 1.7908e-07 -3.25378e-07)
(1.08272e-06 7.96212e-08 -6.1989e-07)
(1.23932e-06 1.48585e-06 6.23187e-08)
(6.55781e-07 1.68225e-06 -3.15164e-07)
(1.4326e-06 -9.82801e-07 2.75951e-07)
(-5.10776e-07 -7.5334e-07 4.38095e-07)
(-1.00585e-06 1.14729e-06 -5.94759e-07)
(2.67692e-07 1.34564e-06 -5.96046e-07)
(-5.07347e-07 1.49303e-06 -1.23406e-08)
(-7.87422e-07 -2.23427e-07 1.05188e-07)
(1.0899e-06 7.31227e-08 3.11774e-07)
(5.096e-07 3.04187e-07 -5.28452e-07)
(4.7712e-07 8.96252e-07 4.02328e-07)
(3.86394e-07 4.46478e-07 -1.07813e-06)
(-5.5361e-07 2.729e-07 1.09592e-07)
(1.88467e-07 3.46526e-07 -1.80079e-06)
(8.3405e-05 -3.64018e-05 1.4276e-05)
(0.00014352 -2.69308e-05 -3.24759e-05)
(2.9728e-05 -3.8006e-05 7.99037e-05)
(-3.8975e-05 3.22193e-05 4.2984e-05)
(-3.09247e-05 2.9556e-05 4.67451e-05)
(-2.62423e-05 -5.01056e-05 -3.24487e-05)
(-4.21407e-05 9.60755e-05 -1.79322e-05)
(3.64277e-05 6.44674e-05 6.36934e-05)
(3.53624e-05 -8.10754e-05 9.44552e-05)
(0.00012997 -4.64908e-05 -5.84531e-05)
(9.89609e-06 7.26517e-05 -5.4819e-05)
(3.83695e-05 -2.1812e-05 4.66898e-05)
(8.81876e-05 -3.08094e-05 -5.27768e-05)
(-6.91083e-05 8.14341e-05 -8.15748e-05)
(-0.00013407 -1.88362e-05 7.57242e-05)
(-0.000100867 0.000118682 5.08811e-05)
(2.16994e-05 3.24353e-05 -8.96199e-05)
(8.04284e-05 -1.03072e-05 -1.36817e-05)
(-4.10774e-05 4.83697e-05 -9.66307e-05)
(5.08786e-05 -8.05415e-05 -6.6776e-05)
(1.7752e-06 -8.30694e-06 -7.62317e-06)
(4.14738e-06 -9.89635e-06 -1.79848e-06)
(-2.06215e-06 -9.32828e-06 3.87599e-07)
(-4.43575e-06 -5.82082e-06 -6.04445e-06)
(-3.5467e-06 -3.07132e-06 -6.44961e-06)
(6.88701e-06 4.00615e-06 -6.92166e-06)
(7.8553e-07 4.09294e-06 -5.69617e-06)
(-9.64581e-07 -3.64549e-06 -6.60842e-06)
(-2.62233e-06 -6.58851e-06 -6.678e-06)
(3.05927e-06 2.90345e-06 4.84155e-06)
(-3.37801e-06 8.01897e-06 -5.2711e-06)
(5.70254e-06 -1.32806e-06 -2.1008e-06)
(4.44744e-06 -2.00346e-06 6.391e-07)
(-2.79946e-06 6.94365e-06 -8.12853e-09)
(-6.44954e-07 2.79716e-06 -6.81982e-07)
(-1.00806e-05 -1.49553e-06 -5.16165e-07)
(-7.1888e-06 -4.46631e-06 -2.94613e-06)
(-4.25456e-06 1.44301e-06 -7.14934e-06)
(1.67219e-06 2.47541e-06 -4.37015e-06)
(7.08504e-06 -6.13354e-06 3.36899e-06)
(-1.5688e-06 -2.89434e-06 -7.439e-06)
(1.00341e-06 -1.41631e-06 -2.36413e-06)
(-1.40817e-06 -2.01318e-07 1.39174e-06)
(-1.46086e-06 3.97397e-07 -5.68387e-06)
(1.97562e-06 -2.04128e-06 -5.4273e-06)
(4.81341e-07 -8.99216e-08 -6.01563e-06)
(1.99522e-06 1.06594e-06 -3.95613e-06)
(2.57646e-06 1.54628e-06 -5.11828e-06)
(8.48615e-07 3.0436e-06 -5.18886e-06)
(7.78062e-07 4.89412e-06 3.81405e-06)
(1.87258e-06 1.65066e-06 -4.66329e-06)
(-6.22293e-07 1.02522e-06 -1.25794e-06)
(3.09726e-08 2.12193e-06 -8.15115e-07)
(1.37345e-07 1.2299e-06 -1.46847e-06)
(-6.10858e-08 1.26057e-06 -6.76294e-07)
(2.31169e-07 8.86552e-07 -1.87348e-06)
(-2.27843e-06 1.54396e-06 -2.59853e-06)
(-1.95726e-06 1.27451e-07 -5.90986e-06)
(-2.99405e-06 -2.51695e-06 -4.37832e-06)
(-3.80762e-06 -2.90849e-06 1.78936e-06)
(-1.21677e-06 -1.96977e-06 -1.49411e-06)
(3.73688e-07 -8.66291e-07 -3.75949e-07)
(-1.04737e-06 -4.70945e-07 -3.14844e-07)
(-8.82863e-07 5.08767e-09 -1.13645e-06)
(1.16334e-06 -1.26958e-06 -1.32701e-06)
(7.76716e-07 3.97213e-07 -1.4856e-06)
(1.38563e-06 5.78122e-07 -1.5832e-06)
(1.15622e-06 6.2714e-07 -1.0542e-06)
(1.0543e-07 1.71718e-06 -8.94493e-07)
(2.18887e-07 3.07626e-06 9.88511e-07)
(1.13671e-06 1.38599e-06 -1.05921e-06)
(1.28166e-07 9.64387e-07 -2.10674e-07)
(4.16193e-07 1.69024e-06 -1.06809e-07)
(9.74957e-07 1.16496e-06 1.33209e-08)
(5.23653e-07 1.10477e-06 1.8211e-07)
(5.51028e-08 -2.84377e-07 -5.20866e-08)
(-1.62243e-06 4.55122e-07 -5.82406e-07)
(-1.44991e-06 -1.8846e-08 -1.25411e-06)
(-1.40559e-06 -1.64596e-06 -8.42343e-07)
(-1.97374e-06 -1.65227e-06 3.90595e-07)
(-4.29974e-07 1.47528e-07 -8.85469e-07)
(3.11402e-07 8.41848e-08 -5.2688e-07)
(4.74299e-07 8.03494e-07 4.67585e-08)
(2.45192e-07 7.55008e-07 2.41047e-07)
(5.52486e-07 -3.11229e-07 2.21803e-08)
(-3.44798e-07 -2.46069e-07 2.31722e-07)
(-5.28739e-07 5.63977e-07 -1.92657e-07)
(-3.55643e-08 7.37518e-07 -8.6064e-08)
(-9.44634e-08 1.03512e-06 3.94301e-07)
(-5.13859e-08 1.97602e-07 2.88144e-07)
(5.43023e-07 2.35262e-07 2.96551e-07)
(-3.06668e-08 2.37662e-07 -2.11098e-07)
(1.80133e-07 4.945e-07 -2.19237e-07)
(2.31864e-07 3.55701e-07 -5.50415e-07)
(-2.72523e-07 1.62373e-07 -2.3702e-07)
(5.03814e-08 8.47488e-08 -6.91941e-07)
(-6.90117e-07 -7.94073e-07 -6.16528e-07)
(-9.91559e-08 -2.45934e-07 -2.79422e-07)
(-5.63804e-07 -1.52535e-07 -9.3281e-08)
(-4.57455e-07 2.28363e-07 -7.08506e-07)
(5.30332e-07 -3.41521e-07 -5.18457e-07)
(2.55313e-07 1.75822e-07 -2.69907e-07)
(6.07459e-07 5.1846e-07 -2.98306e-07)
(5.63334e-07 7.39186e-07 -2.73015e-07)
(2.00204e-07 9.32193e-07 -4.80236e-07)
(2.6858e-07 1.63701e-06 4.69846e-07)
(6.02467e-07 8.95591e-07 -1.24469e-07)
(2.05133e-07 8.04312e-07 -2.15814e-08)
(2.15061e-07 8.8805e-07 2.23366e-08)
(4.33572e-07 5.86308e-07 -1.98814e-07)
(1.44832e-07 5.95392e-07 -5.16837e-07)
(-4.02456e-08 3.5953e-08 -5.28273e-07)
(-6.00842e-07 3.50838e-07 -1.58381e-07)
(-6.61272e-07 -3.39543e-08 -6.4565e-07)
(-7.76811e-07 -7.28823e-07 -2.37952e-07)
(-1.07547e-06 -7.70305e-07 1.89232e-07)
(-5.75456e-05 -0.000131595 3.50976e-05)
(3.39852e-05 -5.43397e-05 1.15266e-05)
(6.62392e-05 -8.22411e-05 7.20073e-05)
(-8.04793e-05 2.30171e-05 5.77988e-05)
(-9.71899e-05 2.78542e-05 -4.77978e-05)
(2.30276e-05 8.07099e-05 -7.00167e-05)
(-6.23438e-06 -2.61403e-05 0.000168969)
(-0.0001134 -1.77259e-05 -1.87791e-05)
(-5.31691e-05 -5.91179e-05 -6.31156e-05)
(-0.000122518 5.90756e-05 -8.96916e-05)
(-9.00812e-05 8.98973e-05 -5.99722e-05)
(-9.72021e-05 0.000108481 -0.00018016)
(9.93151e-05 9.49184e-05 0.000121598)
(4.38535e-05 -5.09794e-05 4.53081e-05)
(5.74711e-05 4.45364e-06 3.93115e-05)
(0.000105684 2.17079e-05 4.66065e-05)
(0.000117959 -9.12445e-05 -7.64028e-05)
(1.77898e-05 -5.79953e-05 -6.19548e-05)
(-3.00271e-05 -2.09676e-05 6.27324e-07)
(-4.41308e-05 -9.69915e-05 -2.51999e-05)
(-2.23351e-05 -0.000110585 -3.65968e-05)
(-3.60221e-05 2.46842e-05 0.000110953)
(2.09125e-05 0.000147013 5.0611e-05)
(-7.59659e-06 6.95672e-05 -6.4286e-05)
(5.79834e-05 -0.000102113 -5.75921e-05)
(-9.95691e-05 -5.04354e-05 4.26376e-05)
(-4.06872e-05 -5.24109e-05 -3.53909e-05)
(-7.18704e-05 -0.000162698 8.65049e-05)
(5.03169e-06 -6.093e-06 4.06552e-06)
(3.1448e-07 -5.97879e-06 1.78012e-06)
(-8.12556e-08 -4.63235e-06 5.63543e-06)
(-1.54487e-06 -1.75016e-06 8.63897e-07)
(-3.3676e-06 -5.14955e-06 -2.83833e-06)
(-8.32783e-06 -2.81775e-06 4.04079e-06)
(-8.03549e-06 -3.68352e-07 3.95279e-06)
(-5.58601e-06 9.39451e-06 3.59159e-06)
(4.43014e-06 9.29549e-06 -1.68593e-06)
(-2.96524e-07 -3.70039e-06 5.5824e-06)
(-3.36315e-06 -8.34077e-06 1.13435e-05)
(-4.99172e-06 3.64057e-06 2.44613e-06)
(6.86601e-06 9.9464e-06 -6.12997e-06)
(2.05158e-06 1.19849e-06 4.9944e-07)
(-6.95006e-07 6.01291e-06 1.04785e-05)
(1.06896e-06 4.95263e-06 3.13373e-06)
(1.09181e-05 1.56587e-06 1.22361e-06)
(2.62159e-06 -2.62943e-07 5.08156e-06)
(-3.96164e-06 3.39178e-06 4.10313e-06)
(5.98917e-06 8.99093e-07 1.62223e-06)
(5.46988e-06 -3.24257e-06 -4.61317e-07)
(1.32831e-06 -9.12594e-06 -2.36265e-06)
(-6.45299e-06 -7.21513e-06 -2.52536e-06)
(-4.3911e-06 3.07521e-06 4.23883e-06)
(1.08863e-06 7.75374e-06 7.35547e-06)
(1.91955e-06 6.43177e-06 1.86084e-06)
(5.04494e-06 -4.94787e-06 5.43897e-06)
(3.10574e-06 -8.0324e-06 6.13474e-06)
(-2.59208e-06 -1.47895e-06 5.40434e-06)
(-5.16087e-07 -2.51931e-06 3.33042e-06)
(1.96167e-08 -2.53161e-06 6.56839e-06)
(-2.94044e-06 -1.53551e-06 2.6556e-06)
(-5.61235e-07 -9.99364e-07 -1.52414e-06)
(1.59421e-06 -2.43521e-06 4.09353e-06)
(1.92411e-07 -6.18e-07 7.81315e-07)
(2.00962e-06 -7.15471e-07 4.68209e-07)
(1.51823e-06 1.04826e-06 1.80175e-07)
(3.14783e-06 3.44022e-06 5.81234e-06)
(3.89248e-06 7.42782e-07 1.02928e-05)
(2.3443e-06 -2.46377e-06 8.25425e-07)
(-1.61494e-06 8.06432e-07 -3.97654e-06)
(-1.74337e-06 1.71857e-06 2.50395e-06)
(4.45537e-09 1.84701e-06 1.01465e-05)
(2.67866e-06 2.49217e-06 5.415e-06)
(7.87296e-07 1.04097e-06 1.61109e-06)
(-2.79241e-07 1.08258e-06 2.36859e-06)
(5.16811e-07 1.35115e-06 4.00639e-06)
(1.02604e-06 7.0313e-07 1.5931e-06)
(3.7356e-07 2.64044e-07 -2.26032e-06)
(-6.55175e-08 4.35017e-07 -2.21241e-06)
(-4.52045e-07 -5.55629e-07 -6.3756e-07)
(-1.50783e-06 -1.40127e-06 5.47449e-06)
(-3.39729e-06 1.40247e-07 6.51889e-06)
(-1.49503e-06 -3.73805e-07 2.26437e-08)
(-1.25415e-06 -2.49235e-06 1.46725e-06)
(-1.07893e-06 -1.30373e-06 6.19509e-06)
(-1.04834e-06 -1.08598e-06 1.1903e-06)
(-5.97517e-07 -1.86747e-06 7.80698e-08)
(-6.62304e-08 -1.70523e-06 1.26592e-06)
(-1.38215e-06 -1.42755e-06 3.68786e-07)
(-2.07213e-07 -1.37045e-06 -8.01045e-07)
(5.95069e-07 -2.1032e-06 1.47639e-07)
(-4.66105e-07 -8.02177e-07 4.31789e-07)
(8.34917e-07 1.86732e-07 3.02735e-07)
(9.90206e-07 1.36958e-06 -4.31069e-07)
(1.80728e-06 1.72514e-06 6.39402e-07)
(2.13722e-06 2.12828e-07 1.90391e-06)
(1.39297e-06 -1.16076e-06 6.87845e-07)
(-7.40713e-07 1.10821e-06 -5.49655e-07)
(-5.75077e-07 1.13733e-06 7.10551e-07)
(-1.72354e-07 9.71692e-07 2.2702e-06)
(1.32445e-06 1.52857e-06 7.91633e-07)
(7.85659e-07 7.83949e-07 4.97918e-07)
(3.09028e-07 8.71076e-07 6.01767e-07)
(1.06259e-06 8.91115e-07 9.93559e-07)
(1.13999e-06 7.83443e-07 5.6143e-07)
(5.22498e-07 2.74774e-07 3.05505e-07)
(1.38295e-08 8.00682e-08 1.98807e-07)
(-5.022e-07 -1.24983e-06 1.02457e-07)
(-9.51624e-07 -1.05853e-06 5.1751e-07)
(-2.01585e-06 4.89744e-07 1.19908e-06)
(-4.43035e-07 -1.77307e-07 2.77058e-07)
(-5.47205e-07 -1.61252e-06 1.12907e-06)
(-4.03284e-07 -9.42064e-07 1.86553e-06)
(-8.45649e-07 -6.72723e-07 5.95611e-07)
(-4.7399e-07 -8.24914e-07 3.71775e-07)
(-8.90515e-08 -8.8885e-07 5.51957e-07)
(-8.19096e-07 -8.35018e-07 4.96229e-07)
(-3.39754e-07 -6.33559e-07 1.32074e-08)
(3.38508e-07 -9.5272e-07 6.23669e-07)
(-1.01627e-07 -4.41737e-07 2.49637e-07)
(4.09357e-07 1.45167e-07 -8.69488e-08)
(3.85061e-07 6.41104e-07 2.96693e-07)
(8.7464e-07 1.04554e-06 6.07444e-07)
(9.12141e-07 6.2786e-07 9.38316e-07)
(7.63314e-07 -9.71516e-08 1.50371e-07)
(-1.17204e-07 7.77141e-07 -1.66999e-07)
(-9.65516e-08 5.10815e-07 4.92865e-07)
(8.17537e-08 4.90162e-07 9.24515e-07)
(7.81308e-07 6.97641e-07 7.47048e-07)
(5.50564e-07 3.11321e-07 4.48128e-07)
(1.87337e-07 3.5221e-07 5.37426e-07)
(4.72789e-07 3.39045e-07 3.36888e-07)
(3.41274e-07 3.1299e-07 -4.85417e-08)
(1.0826e-07 1.42601e-07 -4.58843e-07)
(-6.21288e-08 2.04787e-07 -5.82873e-07)
(-2.82344e-07 -2.51173e-07 -3.18482e-07)
(-3.49256e-07 -2.65325e-07 4.14084e-07)
(-8.98508e-07 -1.35962e-08 4.42445e-07)
(-3.28898e-07 -3.29453e-07 -1.40939e-07)
(-4.99139e-07 -8.62911e-07 2.4216e-07)
(-4.21503e-07 -5.95088e-07 6.07497e-07)
(0.000187332 6.32456e-05 0.000131084)
(-0.00012498 2.90435e-05 0.000159311)
(0.000132968 -0.00012684 0.000110603)
(-8.82511e-05 -0.000178279 3.18767e-05)
(6.81317e-06 5.80738e-06 -3.46515e-06)
(4.24988e-06 7.30504e-06 -5.1226e-06)
(7.30987e-06 -1.57876e-06 6.35762e-08)
(8.74779e-07 1.33026e-06 -5.85196e-07)
)
;

boundaryField
{
    top_fluid_surface
    {
        type            pressureInletOutletVelocity;
        value           nonuniform List<vector> 
64
(
(0 0 -4.62264e-05)
(-2.14728e-05 2.31059e-05 1.19404e-05)
(0 0 -4.03622e-05)
(0 0 -6.28384e-05)
(0 0 -7.90605e-05)
(0 0 -3.0507e-06)
(0 0 -7.92043e-05)
(0 0 -2.74367e-05)
(0 0 -0.000140174)
(0 0 -0.000111007)
(0.000141337 -3.93083e-05 2.9395e-05)
(0 0 -4.50839e-05)
(8.3405e-05 -3.64018e-05 1.4276e-05)
(0 0 -3.24759e-05)
(2.9728e-05 -3.8006e-05 7.99037e-05)
(-3.8975e-05 3.22193e-05 4.2984e-05)
(-3.09247e-05 2.9556e-05 4.67451e-05)
(0 0 -3.24487e-05)
(0 0 -1.79322e-05)
(3.64277e-05 6.44674e-05 6.36934e-05)
(3.53624e-05 -8.10754e-05 9.44552e-05)
(0 0 -5.84531e-05)
(0 0 -5.4819e-05)
(3.83695e-05 -2.1812e-05 4.66898e-05)
(0 0 -5.27768e-05)
(0 0 -8.15748e-05)
(-0.00013407 -1.88362e-05 7.57242e-05)
(-0.000100867 0.000118682 5.08811e-05)
(0 0 -8.96199e-05)
(0 0 -1.36817e-05)
(0 0 -9.66307e-05)
(0 0 -6.6776e-05)
(-5.75456e-05 -0.000131595 3.50976e-05)
(3.39852e-05 -5.43397e-05 1.15266e-05)
(6.62392e-05 -8.22411e-05 7.20073e-05)
(-8.04793e-05 2.30171e-05 5.77988e-05)
(0 0 -4.77978e-05)
(0 0 -7.00167e-05)
(-6.23438e-06 -2.61403e-05 0.000168969)
(0 0 -1.87791e-05)
(0 0 -6.31156e-05)
(0 0 -8.96916e-05)
(0 0 -5.99722e-05)
(-9.72021e-05 0.000108481 -0.00018016)
(9.93151e-05 9.49184e-05 0.000121598)
(4.38535e-05 -5.09794e-05 4.53081e-05)
(5.74711e-05 4.45364e-06 3.93115e-05)
(0.000105684 2.17079e-05 4.66065e-05)
(0 0 -7.64028e-05)
(0 0 -6.19548e-05)
(0 0 6.27324e-07)
(0 0 -2.51999e-05)
(0 0 -3.65968e-05)
(-3.60221e-05 2.46842e-05 0.000110953)
(2.09125e-05 0.000147013 5.0611e-05)
(0 0 -6.4286e-05)
(0 0 -5.75921e-05)
(-9.95691e-05 -5.04354e-05 4.26376e-05)
(0 0 -3.53909e-05)
(-7.18704e-05 -0.000162698 8.65049e-05)
(0.000187332 6.32456e-05 0.000131084)
(-0.00012498 2.90435e-05 0.000159311)
(0.000132968 -0.00012684 0.000110603)
(-8.82511e-05 -0.000178279 3.18767e-05)
)
;
    }
    bottom_fluid_surface
    {
        type            noSlip;
    }
    lateral_surface_1
    {
        type            noSlip;
    }
    lateral_surface_2
    {
        type            noSlip;
    }
    lateral_surface_3
    {
        type            noSlip;
    }
    lateral_surface_4
    {
        type            noSlip;
    }
}


// ************************************************************************* //
