/*--------------------------------*- C++ -*----------------------------------*\
| =========                 |                                                 |
| \\      /  F ield         | OpenFOAM: The Open Source CFD Toolbox           |
|  \\    /   O peration     | Version:  v1612+                                |
|   \\  /    A nd           | Web:      www.OpenFOAM.com                      |
|    \\/     M anipulation  |                                                 |
\*---------------------------------------------------------------------------*/
FoamFile
{
    version     2.0;
    format      ascii;
    class       volScalarField;
    location    "2.9";
    object      p;
}
// * * * * * * * * * * * * * * * * * * * * * * * * * * * * * * * * * * * * * //

dimensions      [1 -1 -2 0 0 0 0];

internalField   nonuniform List<scalar> 
320
(
14724.8
14724.8
14724.8
14724.8
4.93999
4.93911
4.94006
4.94118
4.94116
4.94084
4.9418
4.94193
4.94205
4.94298
4.94108
4.94071
4914.85
4914.78
4914.79
4914.86
4914.83
4914.83
4914.86
4914.87
4914.83
4914.86
4914.82
4914.88
14724.8
14724.8
14724.8
14724.8
14724.8
14724.8
14724.8
14724.8
14724.8
14724.8
14724.8
14724.8
24534.8
24534.8
24534.8
24534.8
24534.8
24534.8
24534.8
24534.8
24534.8
24534.8
24534.8
24534.8
24534.8
24534.8
24534.8
24534.8
4.94133
4.94039
4.93959
4.94075
4.94047
4.94032
4.94262
4.94033
4.9388
4.93877
4.93962
4.94133
4.9411
4.94135
4.9405
4.94152
4.94117
4.94104
4.94102
4.94041
4914.84
4914.84
4914.79
4914.84
4914.81
4914.83
4914.87
4914.83
4914.85
4914.86
4914.86
4914.82
4914.82
4914.86
4914.85
4914.81
4914.83
4914.83
4914.88
4914.81
14724.8
14724.8
14724.8
14724.8
14724.8
14724.8
14724.8
14724.8
14724.8
14724.8
14724.8
14724.8
14724.8
14724.8
14724.8
14724.8
14724.8
14724.8
14724.8
14724.8
24534.8
24534.8
24534.8
24534.8
24534.8
24534.8
24534.8
24534.8
24534.8
24534.8
24534.8
24534.8
24534.8
24534.8
24534.8
24534.8
24534.8
24534.8
24534.8
24534.8
34344.8
34344.8
34344.8
34344.8
34344.8
34344.8
34344.8
34344.8
34344.8
34344.8
34344.8
34344.8
34344.8
34344.8
34344.8
34344.8
34344.8
34344.8
34344.8
34344.8
34344.8
34344.8
34344.8
34344.8
34344.8
34344.8
34344.8
34344.8
34344.8
34344.8
34344.8
34344.8
34344.8
34344.8
34344.8
34344.8
4.93954
4.94097
4.94009
4.94078
4.94114
4.94258
4.94213
4.94074
4.94174
4.9433
4.93925
4.93849
4.93859
4.93811
4.9387
4.93952
4.93964
4.94085
4.94198
4.94018
4.93947
4.93977
4.94128
4.94119
4.94063
4.94059
4.93962
4.93908
4914.82
4914.81
4914.77
4914.81
4914.87
4914.85
4914.83
4914.85
4914.82
4914.79
4914.82
4914.86
4914.82
4914.8
4914.84
4914.79
4914.83
4914.8
4914.85
4914.86
4914.87
4914.81
4914.81
4914.82
4914.85
4914.8
4914.84
4914.79
14724.8
14724.8
14724.8
14724.8
14724.8
14724.8
14724.8
14724.8
14724.8
14724.8
14724.8
14724.8
14724.8
14724.8
14724.8
14724.8
14724.8
14724.8
14724.8
14724.8
14724.8
14724.8
14724.8
14724.8
14724.8
14724.8
14724.8
14724.8
24534.8
24534.8
24534.8
24534.8
24534.8
24534.8
24534.8
24534.8
24534.8
24534.8
24534.8
24534.8
24534.8
24534.8
24534.8
24534.8
24534.8
24534.8
24534.8
24534.8
24534.8
24534.8
24534.8
24534.8
24534.8
24534.8
24534.8
24534.8
34344.8
34344.8
34344.8
34344.8
34344.8
34344.8
34344.8
34344.8
34344.8
34344.8
34344.8
34344.8
34344.8
34344.8
34344.8
34344.8
34344.8
34344.8
34344.8
34344.8
34344.8
34344.8
34344.8
34344.8
34344.8
34344.8
34344.8
34344.8
4.93914
4.93984
4.94038
4.94185
4914.75
4914.79
4914.8
4914.81
)
;

boundaryField
{
    top_fluid_surface
    {
        type            calculated;
        value           nonuniform List<scalar> 
64
(
-1.58861e-08
0
0
-1.3009e-09
0
-6.7031e-11
-1.23868e-09
-2.3031e-09
-8.42587e-10
-4.10082e-09
0
-3.1877e-09
-3.90881e-11
-2.8319e-09
0
-4.57731e-10
0
0
-4.58318e-11
0
-1.51255e-09
-1.332e-08
-2.02775e-09
0
-4.92588e-10
-9.59235e-11
-1.27627e-10
0
0
-5.85094e-12
-2.3129e-09
0
-1.09147e-10
0
0
0
-2.2664e-11
-1.08068e-10
-3.41133e-11
-6.64171e-09
0
0
-4.78773e-09
-2.86489e-08
0
0
-2.17559e-09
0
0
0
-2.51084e-09
-2.33303e-09
-3.25989e-08
0
0
0
-3.3283e-09
0
-1.93726e-09
0
0
0
0
0
)
;
    }
    bottom_fluid_surface
    {
        type            calculated;
        value           nonuniform List<scalar> 
64
(
39249.8
39249.8
39249.8
39249.8
39249.8
39249.8
39249.8
39249.8
39249.8
39249.8
39249.8
39249.8
39249.8
39249.8
39249.8
39249.8
39249.8
39249.8
39249.8
39249.8
39249.8
39249.8
39249.8
39249.8
39249.8
39249.8
39249.8
39249.8
39249.8
39249.8
39249.8
39249.8
39249.8
39249.8
39249.8
39249.8
39249.8
39249.8
39249.8
39249.8
39249.8
39249.8
39249.8
39249.8
39249.8
39249.8
39249.8
39249.8
39249.8
39249.8
39249.8
39249.8
39249.8
39249.8
39249.8
39249.8
39249.8
39249.8
39249.8
39249.8
39249.8
39249.8
39249.8
39249.8
)
;
    }
    lateral_surface_1
    {
        type            calculated;
        value           nonuniform List<scalar> 
40
(
4.93954
4.94097
4.94009
4.94078
4.94114
4.94258
4.94213
4.93908
4914.82
4914.81
4914.77
4914.81
4914.87
4914.85
4914.83
4914.79
14724.8
14724.8
14724.8
14724.8
14724.8
14724.8
14724.8
14724.8
24534.8
24534.8
24534.8
24534.8
24534.8
24534.8
24534.8
24534.8
34344.8
34344.8
34344.8
34344.8
34344.8
34344.8
34344.8
34344.8
)
;
    }
    lateral_surface_2
    {
        type            calculated;
        value           nonuniform List<scalar> 
40
(
4.93811
4.9387
4.93952
4.93964
4.94085
4.94198
4.94018
4.93947
4914.8
4914.84
4914.79
4914.83
4914.8
4914.85
4914.86
4914.87
14724.8
14724.8
14724.8
14724.8
14724.8
14724.8
14724.8
14724.8
24534.8
24534.8
24534.8
24534.8
24534.8
24534.8
24534.8
24534.8
34344.8
34344.8
34344.8
34344.8
34344.8
34344.8
34344.8
34344.8
)
;
    }
    lateral_surface_3
    {
        type            calculated;
        value           nonuniform List<scalar> 
40
(
4.94213
4.94074
4.94174
4.9433
4.93925
4.93849
4.93859
4.93811
4914.83
4914.85
4914.82
4914.79
4914.82
4914.86
4914.82
4914.8
14724.8
14724.8
14724.8
14724.8
14724.8
14724.8
14724.8
14724.8
24534.8
24534.8
24534.8
24534.8
24534.8
24534.8
24534.8
24534.8
34344.8
34344.8
34344.8
34344.8
34344.8
34344.8
34344.8
34344.8
)
;
    }
    lateral_surface_4
    {
        type            calculated;
        value           nonuniform List<scalar> 
40
(
4.93947
4.93977
4.94128
4.94119
4.94063
4.94059
4.93962
4.93908
4914.87
4914.81
4914.81
4914.82
4914.85
4914.8
4914.84
4914.79
14724.8
14724.8
14724.8
14724.8
14724.8
14724.8
14724.8
14724.8
24534.8
24534.8
24534.8
24534.8
24534.8
24534.8
24534.8
24534.8
34344.8
34344.8
34344.8
34344.8
34344.8
34344.8
34344.8
34344.8
)
;
    }
}


// ************************************************************************* //
