/*--------------------------------*- C++ -*----------------------------------*\
| =========                 |                                                 |
| \\      /  F ield         | OpenFOAM: The Open Source CFD Toolbox           |
|  \\    /   O peration     | Version:  v1612+                                |
|   \\  /    A nd           | Web:      www.OpenFOAM.com                      |
|    \\/     M anipulation  |                                                 |
\*---------------------------------------------------------------------------*/
FoamFile
{
    version     2.0;
    format      ascii;
    class       surfaceScalarField;
    location    "1.5";
    object      alphaPhi;
}
// * * * * * * * * * * * * * * * * * * * * * * * * * * * * * * * * * * * * * //

dimensions      [0 3 -1 0 0 0 0];

internalField   nonuniform List<scalar> 
2916
(
1.29577e-07
0.410506
-0.410506
3.78887e-07
0.410508
-0.410507
6.20996e-07
0.410508
-0.410507
1.00447e-06
0.410508
-0.410507
9.94611e-07
0.410508
-0.410507
0.410507
-0.410505
8.14209e-07
0.928084
-0.517578
1.50444e-06
0.928087
-0.51758
1.6759e-06
0.928086
-0.517578
1.43794e-06
0.928086
-0.517577
1.16473e-06
0.928085
-0.517577
0.928083
-0.517574
1.27244e-06
1.45685
-0.528761
2.96343e-06
1.45685
-0.528762
1.47354e-06
1.45685
-0.528758
2.7542e-07
1.45685
-0.528758
4.96718e-07
1.45685
-0.528758
1.45684
-0.528754
-2.69636e-06
2.04876
-0.591868
1.00229e-07
2.04876
-0.591872
-2.42456e-06
2.04876
-0.591866
-4.18369e-06
2.04876
-0.591866
-2.85335e-06
2.04875
-0.591869
2.04875
-0.591869
-1.61608e-05
2.65333
-0.604214
-1.03472e-05
2.65333
-0.604234
-9.42809e-06
2.65333
-0.60423
-9.22005e-06
2.65333
-0.604231
-5.52319e-06
2.65333
-0.604235
2.65332
-0.604239
-2.90917e-05
3.25372
-0.630774
-1.78657e-05
3.25372
-0.630818
-1.12213e-05
3.25372
-0.630818
-8.41647e-06
3.25373
-0.630817
-2.82748e-06
3.25373
-0.63082
3.25372
-0.63082
-2.84737e-05
3.469
-0.267571
-2.01257e-05
3.46898
-0.267591
-8.64028e-06
3.46899
-0.267596
-2.7194e-06
3.469
-0.267597
8.07978e-07
3.469
-0.267596
3.46901
-0.267597
-1.84208e-05
3.61464
-0.137682
-1.33226e-05
3.61463
-0.137689
-3.67143e-06
3.61463
-0.13769
-4.62973e-07
3.61465
-0.137689
-1.50891e-06
3.61465
-0.137689
3.61466
-0.13769
-1.67555e-05
3.19308
-0.0481583
-1.25008e-05
3.19317
-0.0481552
-8.10384e-06
3.19319
-0.0481557
-6.79985e-06
3.1932
-0.0481564
-2.61486e-06
3.19319
-0.0481567
3.19314
-0.0481565
-2.31596e-05
0.651951
-0.00614454
-1.03701e-05
0.652171
-0.00614399
-7.96635e-06
0.652177
-0.00614427
-6.24423e-06
0.652179
-0.00614514
7.64253e-06
0.652164
-0.00614335
0.652029
-0.00614301
-3.14089e-06
0.0919188
0.062156
-1.92997e-06
0.0919344
0.0621609
-1.67769e-06
0.091943
0.0621613
-1.10031e-06
0.0919437
0.0621609
9.96226e-07
0.0919339
0.0621609
0.0919184
0.062159
-4.75652e-06
0.0306341
-2.10664e-06
0.030636
7.54883e-07
0.030637
3.4145e-06
0.0306373
5.44332e-06
0.0306361
0.0306351
1.22018e-06
0.455418
-0.865924
1.19537e-06
0.455422
-0.865929
9.04214e-07
0.45542
-0.865927
6.6603e-07
0.455419
-0.865926
4.98801e-07
0.455419
-0.865925
0.455417
-0.865921
3.21908e-06
0.903523
-0.965683
3.53551e-06
0.903534
-0.965688
1.90675e-06
0.903532
-0.965684
3.4604e-07
0.90353
-0.965683
1.1289e-06
0.903529
-0.965683
0.903525
-0.965677
7.4621e-06
1.39812
-1.02333
7.31944e-06
1.39814
-1.02333
2.15844e-06
1.39814
-1.02332
-9.10643e-07
1.39814
-1.02332
6.25389e-07
1.39813
-1.02332
1.39812
-1.02331
-3.13223e-06
1.9341
-1.06747
1.81955e-07
1.93412
-1.06749
-4.72156e-07
1.93412
-1.06748
-2.52576e-07
1.93412
-1.06749
1.46958e-06
1.93412
-1.06749
1.93411
-1.06749
-9.31855e-06
1.70279
-0.35652
-7.26612e-06
1.7028
-0.356538
-1.31554e-06
1.70281
-0.356544
3.05721e-07
1.70281
-0.356544
-1.05933e-06
1.70281
-0.356547
1.70281
-0.356558
2.63088e-07
0.951956
-0.0882197
1.66628e-06
0.951929
-0.088226
5.75618e-06
0.951945
-0.0882296
6.43267e-06
0.951953
-0.0882303
2.72368e-06
0.951953
-0.0882314
0.951962
-0.0882365
1.87007e-06
0.192218
-0.00691188
-9.29202e-08
0.192222
-0.00691263
2.4427e-07
0.192224
-0.006913
1.66499e-07
0.192223
-0.00691312
-1.38998e-06
0.192224
-0.00691326
0.192225
-0.00691366
-7.30805e-07
0.0549147
-0.000374555
-9.18354e-07
0.0549116
-0.00037462
-7.68263e-07
0.054912
-0.00037463
-5.98318e-07
0.0549128
-0.000374629
-5.69172e-07
0.0549135
-0.000374644
0.054913
-0.000374662
2.16881e-07
0.00676188
-4.52196e-06
1.01248e-07
0.00676218
-4.52561e-06
5.66277e-08
0.00676207
-4.52353e-06
3.07173e-08
0.00676214
-4.52191e-06
-1.42264e-07
0.00676273
-4.52434e-06
0.00676202
-4.52401e-06
-2.02242e-08
0.00363838
-4.19349e-05
-3.14613e-09
0.0036371
-4.20618e-05
-3.56644e-08
0.00363728
-4.19965e-05
-6.83118e-08
0.00363736
-4.20111e-05
-2.93547e-08
0.00363678
-4.21867e-05
0.00363721
-4.20642e-05
7.50524e-07
0.0660525
-0.00371999
-7.66191e-07
0.0660572
-0.00372666
-2.23702e-06
0.0660571
-0.00372689
-3.84741e-06
0.0660577
-0.00372689
-4.22221e-06
0.0660595
-0.00372662
0.0660468
-0.00372217
-1.70146e-06
0.016646
-3.23763e-07
0.0166413
-2.92769e-07
0.0166414
4.04695e-07
0.0166413
4.23901e-06
0.0166405
0.0166457
5.72368e-06
0.419986
-1.28591
4.77502e-06
0.419994
-1.28592
3.22978e-06
0.419993
-1.28591
1.74548e-06
0.419992
-1.28591
1.534e-06
0.419992
-1.28591
0.419993
-1.28591
9.0411e-06
0.792145
-1.33757
7.71221e-06
0.792168
-1.33758
3.28313e-06
0.792169
-1.33757
-3.78901e-07
0.792168
-1.33757
1.26955e-06
0.792164
-1.33757
0.792162
-1.33756
3.22756e-06
0.901891
-0.734402
1.35731e-06
0.901931
-0.734423
9.0376e-07
0.901936
-0.734424
-2.76567e-07
0.901935
-0.734425
-1.18599e-06
0.901934
-0.734429
0.901946
-0.73444
3.54346e-06
0.35601
-0.143758
3.2525e-06
0.356035
-0.143766
7.38695e-06
0.356042
-0.143768
7.64959e-06
0.356043
-0.143768
1.81799e-06
0.356045
-0.143769
0.356057
-0.143774
2.06431e-06
0.09536
-0.00552647
2.18763e-06
0.0953671
-0.00552726
2.48542e-06
0.095371
-0.00552751
2.11421e-06
0.0953717
-0.00552762
6.0278e-07
0.0953729
-0.00552777
0.0953785
-0.00552816
1.11532e-07
0.0072787
-0.000136559
2.05511e-07
0.00727955
-0.000136603
2.1806e-07
0.00727993
-0.000136617
1.57721e-07
0.00728003
-0.000136623
3.62828e-08
0.00728019
-0.000136629
0.00728061
-0.000136636
-2.76555e-09
0.000395172
-9.79192e-07
-7.50153e-10
0.000395257
-9.79888e-07
-1.04205e-09
0.000395265
-9.80125e-07
-4.97199e-09
0.000395264
-9.80319e-07
-1.26644e-08
0.000395286
-9.80689e-07
0.000395289
-9.81034e-07
3.41191e-11
2.49189e-05
-3.13169e-07
-1.22632e-09
2.49226e-05
-3.1339e-07
-1.36538e-09
2.49224e-05
-3.13402e-07
-8.72659e-10
2.49224e-05
-3.13337e-07
-8.59449e-10
2.4925e-05
-3.13137e-07
2.49255e-05
-3.1314e-07
5.98632e-11
2.95076e-05
-8.37933e-06
-3.96996e-11
2.95083e-05
-8.37986e-06
-3.76237e-12
2.95092e-05
-8.37869e-06
8.13799e-11
2.95093e-05
-8.37743e-06
-9.21179e-12
2.951e-05
-8.37831e-06
2.95113e-05
-8.37858e-06
-1.45073e-08
0.00408369
0.000110563
-1.22618e-08
0.00408356
0.000110488
-1.58243e-08
0.0040832
0.000110524
-4.18421e-08
0.00408318
0.000110536
-4.19616e-08
0.00408335
0.000110393
0.00408275
0.000110493
5.10032e-07
0.00529764
-0.000360402
-1.5823e-07
0.00529902
-0.000360518
-1.03292e-06
0.00529822
-0.000360518
-1.93986e-06
0.00529832
-0.000360534
-1.6258e-06
0.00529967
-0.000360607
0.00529587
-0.00036054
1.81493e-07
0.00104402
2.88732e-07
0.00104395
9.35204e-08
0.00104394
9.00498e-08
0.00104389
8.6425e-07
0.00104386
0.00104392
7.46162e-06
0.185397
-1.47102
7.57033e-06
0.185404
-1.47103
6.0152e-06
0.185405
-1.47102
3.3789e-06
0.185405
-1.47102
3.4238e-06
0.185403
-1.47102
0.185413
-1.47103
7.25791e-07
0.323427
-0.403424
1.28247e-06
0.323438
-0.40343
2.75518e-06
0.323439
-0.40343
-2.35555e-07
0.32344
-0.40343
-7.70473e-06
0.323439
-0.40343
0.323444
-0.403437
-1.94947e-06
0.149371
-0.00152741
-1.69368e-06
0.14938
-0.00152732
-5.48401e-08
0.149382
-0.00152726
-3.74785e-07
0.149383
-0.00152741
-3.94685e-06
0.149384
-0.00152761
0.149389
-0.00152799
1.1606e-07
0.00563059
-1.77892e-05
1.87001e-07
0.00563141
-1.77909e-05
1.65697e-07
0.00563166
-1.77915e-05
1.16536e-07
0.00563178
-1.77913e-05
6.12281e-08
0.00563193
-1.7791e-05
0.00563234
-1.77903e-05
1.17017e-08
0.000137497
-3.3149e-05
1.84473e-08
0.000137543
-3.31494e-05
1.54415e-08
0.000137556
-3.3149e-05
1.04618e-08
0.000137562
-3.31481e-05
6.64909e-09
0.000137569
-3.31484e-05
0.000137577
-3.3149e-05
2.96506e-12
9.46849e-07
-7.93583e-09
-6.43293e-12
9.47525e-07
-7.94466e-09
4.88981e-11
9.47767e-07
-7.94172e-09
4.44896e-11
9.47969e-07
-7.93663e-09
-5.29652e-11
9.48357e-07
-7.92933e-09
9.48726e-07
-7.91431e-09
-2.8675e-12
-3.90381e-10
-1.95062e-08
-1.97183e-12
-3.91182e-10
-1.95241e-08
2.48813e-13
-3.92369e-10
-1.95214e-08
2.62514e-12
-3.91912e-10
-1.95148e-08
1.2597e-12
-3.85528e-10
-1.95072e-08
-3.83527e-10
-1.94904e-08
-1.04879e-13
-2.00739e-07
-1.66813e-07
-9.76447e-13
-2.00845e-07
-1.66845e-07
-1.67215e-12
-2.0086e-07
-1.66828e-07
-2.8203e-12
-2.00805e-07
-1.6682e-07
-3.94429e-12
-2.0062e-07
-1.66844e-07
-2.0067e-07
-1.66811e-07
3.1415e-10
-4.03576e-06
-7.69932e-07
4.9561e-11
-4.03665e-06
-7.69831e-07
1.48346e-10
-4.03733e-06
-7.69735e-07
2.1528e-10
-4.03704e-06
-7.69662e-07
-3.86417e-10
-4.03354e-06
-7.69801e-07
-4.03454e-06
-7.69961e-07
8.56103e-09
-0.00011141
-9.02545e-06
5.89664e-09
-0.000111359
-9.02669e-06
6.82892e-09
-0.000111369
-9.02705e-06
6.50605e-09
-0.000111365
-9.02746e-06
-3.01188e-09
-0.000111306
-9.02337e-06
-0.000111394
-9.02432e-06
1.19683e-07
-0.000519846
-1.77805e-05
9.9349e-08
-0.000519759
-1.77922e-05
8.55896e-08
-0.000519785
-1.77949e-05
4.47066e-08
-0.000519765
-1.77961e-05
-2.40525e-08
-0.000519687
-1.78021e-05
-0.000519855
-1.77875e-05
4.23225e-08
0.000121754
7.05297e-08
0.000121774
6.18371e-08
0.000121771
3.66323e-08
0.000121762
6.88308e-08
0.000121755
0.000121742
-4.39727e-74
-3.40607e-66
1.68881e-70
-1.43004e-74
-3.4117e-66
1.69168e-70
-3.95822e-75
-3.41154e-66
1.69163e-70
2.06034e-75
-3.41207e-66
1.6919e-70
4.09036e-75
-3.4136e-66
1.69264e-70
-3.40891e-66
1.6903e-70
-1.04913e-69
-6.72076e-62
3.53408e-66
-3.1538e-70
-6.73163e-62
3.53991e-66
-4.88711e-71
-6.73137e-62
3.5398e-66
1.32945e-70
-6.73245e-62
3.54034e-66
2.69815e-70
-6.73565e-62
3.54199e-66
-6.72675e-62
3.53723e-66
-1.37299e-65
-6.3595e-58
3.65806e-62
-3.30896e-66
-6.3695e-58
3.66396e-62
8.74275e-67
-6.36929e-58
3.66386e-62
3.27124e-66
-6.37033e-58
3.66448e-62
4.75793e-66
-6.37354e-58
3.6663e-62
-6.36541e-58
3.66162e-62
-1.06727e-61
-3.80198e-54
2.43875e-58
-1.46774e-62
-3.80784e-54
2.44267e-58
2.29112e-62
-3.80775e-54
2.44266e-58
4.18937e-62
-3.80842e-54
2.44313e-58
5.11227e-62
-3.81047e-54
2.44446e-58
-3.80582e-54
2.44152e-58
-4.67389e-58
-1.60032e-50
1.14957e-54
3.72314e-59
-1.60276e-50
1.15149e-54
2.3619e-58
-1.60275e-50
1.15153e-54
3.17628e-58
-1.60307e-50
1.1518e-54
3.50044e-58
-1.604e-50
1.15248e-54
-1.60215e-50
1.15118e-54
-9.38853e-55
-5.02729e-47
3.99608e-51
7.77963e-55
-5.03503e-47
4.00334e-51
1.28017e-54
-5.03512e-47
4.00376e-51
1.39892e-54
-5.03626e-47
4.00487e-51
1.41733e-54
-5.03942e-47
4.0074e-51
-5.03402e-47
4.00308e-51
1.346e-52
-1.22468e-43
1.04611e-47
3.25283e-51
-1.22661e-43
1.04822e-47
3.3806e-51
-1.22667e-43
1.04839e-47
2.78704e-51
-1.22698e-43
1.04869e-47
2.73407e-51
-1.22781e-43
1.04934e-47
-1.22659e-43
1.04817e-47
5.112e-48
-2.38305e-40
1.90779e-44
6.07905e-48
-2.38691e-40
1.91217e-44
2.07516e-48
-2.38708e-40
1.91257e-44
-1.18328e-48
-2.38775e-40
1.91302e-44
-9.54908e-49
-2.38945e-40
1.914e-44
-2.38724e-40
1.91158e-44
1.0169e-44
-3.84988e-37
1.66702e-41
3.05786e-46
-3.85632e-37
1.67244e-41
-1.37208e-44
-3.85665e-37
1.67294e-41
-2.22819e-44
-3.85777e-37
1.67291e-41
-1.87366e-44
-3.86059e-37
1.67299e-41
-3.85722e-37
1.66977e-41
-4.17603e-42
-4.79143e-34
-7.4659e-35
-3.11871e-41
-4.80052e-34
-7.46999e-35
-5.50681e-41
-4.80099e-34
-7.47041e-35
-6.5215e-41
-4.80209e-34
-7.47529e-35
-5.15405e-41
-4.80512e-34
-7.48569e-35
-4.80036e-34
-7.48631e-35
-5.1653e-38
-3.34116e-31
-3.63591e-31
-8.39682e-38
-3.34742e-31
-3.64311e-31
-1.03187e-37
-3.34745e-31
-3.64368e-31
-1.07118e-37
-3.34773e-31
-3.64479e-31
-8.26634e-38
-3.34916e-31
-3.64751e-31
-3.34498e-31
-3.64458e-31
-4.89665e-35
-6.39413e-28
-4.81099e-35
-6.40623e-28
-3.79215e-35
-6.40619e-28
-2.10057e-35
-6.40654e-28
-3.62255e-36
-6.40888e-28
-6.40026e-28
-1.1642e-70
-1.18558e-62
1.18564e-66
-3.36595e-71
-1.18734e-62
1.18745e-66
-3.41084e-72
-1.18723e-62
1.18735e-66
1.9447e-71
-1.18739e-62
1.1875e-66
3.62297e-71
-1.18792e-62
1.18801e-66
-1.18631e-62
1.18636e-66
-2.56453e-66
-2.30811e-58
2.46087e-62
-5.50718e-67
-2.31145e-58
2.46449e-62
2.06402e-67
-2.31124e-58
2.46428e-62
7.82749e-67
-2.31155e-58
2.46459e-62
1.48068e-66
-2.31266e-58
2.46573e-62
-2.30963e-58
2.4624e-62
-3.25375e-62
-2.14254e-54
2.51984e-58
-4.02769e-63
-2.14553e-54
2.52344e-58
6.67876e-63
-2.14534e-54
2.52322e-58
1.48126e-62
-2.14564e-54
2.52357e-58
2.31291e-62
-2.14673e-54
2.5248e-58
-2.14402e-54
2.52153e-58
-2.43474e-58
-1.24621e-50
1.65074e-54
-2.72815e-60
-1.2479e-50
1.65306e-54
9.28484e-59
-1.2478e-50
1.65294e-54
1.58987e-58
-1.24798e-50
1.6532e-54
2.30364e-58
-1.24866e-50
1.65407e-54
-1.24717e-50
1.65203e-54
-1.02709e-54
-5.05162e-47
7.5583e-51
2.43972e-55
-5.05838e-47
7.56911e-51
7.19252e-55
-5.05801e-47
7.56874e-51
1.06042e-54
-5.05887e-47
7.57012e-51
1.45288e-54
-5.06185e-47
7.57445e-51
-5.05617e-47
7.56559e-51
-2.26567e-51
-1.51203e-43
2.49193e-47
1.60756e-51
-1.51406e-43
2.49569e-47
2.90926e-51
-1.51398e-43
2.49566e-47
3.89948e-51
-1.51428e-43
2.49619e-47
5.26449e-51
-1.51525e-43
2.49769e-47
-1.51368e-43
2.49488e-47
-1.70058e-48
-3.49045e-40
5.89785e-44
4.34653e-48
-3.49521e-40
5.90754e-44
5.37463e-48
-3.49511e-40
5.90769e-44
6.43642e-48
-3.49592e-40
5.90899e-44
9.74568e-48
-3.49833e-40
5.91256e-44
-3.49498e-40
5.90587e-44
2.83495e-45
-6.51591e-37
9.62787e-41
3.01993e-45
-6.52503e-37
9.64571e-41
-3.70491e-45
-6.52499e-37
9.6463e-41
-6.47794e-45
-6.52665e-37
9.64811e-41
-9.557e-46
-6.53137e-37
9.65333e-41
-6.52559e-37
9.64154e-41
-6.77252e-42
-1.03598e-33
8.72789e-38
-2.38569e-41
-1.03748e-33
8.74859e-38
-4.52849e-41
-1.03749e-33
8.74962e-38
-5.63897e-41
-1.03776e-33
8.7501e-38
-4.40368e-41
-1.03852e-33
8.75261e-38
-1.03765e-33
8.73858e-38
-3.64775e-38
-1.25181e-30
-2.17906e-31
-9.27904e-38
-1.25397e-30
-2.17962e-31
-1.47024e-37
-1.25401e-30
-2.17951e-31
-1.74407e-37
-1.25422e-30
-2.18078e-31
-1.41494e-37
-1.25495e-30
-2.1838e-31
-1.25365e-30
-2.18426e-31
-1.55579e-34
-6.5923e-28
-1.03514e-27
-1.82221e-34
-6.60365e-28
-1.03704e-27
-1.96984e-34
-6.60347e-28
-1.0371e-27
-1.99237e-34
-6.60395e-28
-1.03727e-27
-1.55927e-34
-6.60677e-28
-1.03784e-27
-6.5987e-28
-1.03677e-27
-7.77556e-32
-1.13656e-24
-2.74685e-32
-1.13856e-24
3.17747e-32
-1.13852e-24
8.01582e-32
-1.13853e-24
9.23715e-32
-1.13887e-24
-1.13729e-24
-5.05418e-67
-6.79265e-59
9.98159e-63
-8.8258e-68
-6.80303e-59
9.99715e-63
6.84485e-68
-6.80242e-59
9.99633e-63
1.82796e-67
-6.80311e-59
9.99736e-63
2.69955e-67
-6.80589e-59
1.00014e-62
-6.79612e-59
9.98681e-63
-1.15274e-62
-1.38293e-54
2.17883e-58
-9.67317e-64
-1.385e-54
2.18214e-58
2.9467e-63
-1.38487e-54
2.18196e-58
5.97202e-63
-1.38501e-54
2.18218e-58
9.71979e-63
-1.3856e-54
2.1831e-58
-1.38367e-54
2.18e-58
-1.52331e-58
-1.33319e-50
2.34339e-54
-4.87361e-60
-1.33513e-50
2.34686e-54
5.12455e-59
-1.33501e-50
2.34666e-54
9.57512e-59
-1.33514e-50
2.34691e-54
1.44056e-58
-1.33573e-50
2.34794e-54
-1.33391e-50
2.34469e-54
-1.11938e-54
-7.9544e-47
1.60318e-50
9.20942e-56
-7.96573e-47
1.60552e-50
5.67688e-55
-7.96498e-47
1.60539e-50
9.29503e-55
-7.9658e-47
1.60557e-50
1.36694e-54
-7.96949e-47
1.60631e-50
-7.95888e-47
1.60414e-50
-4.2788e-51
-3.24346e-43
7.59465e-47
1.50447e-51
-3.24805e-43
7.60587e-47
3.65261e-51
-3.24775e-43
7.60532e-47
5.53588e-51
-3.24812e-43
7.60625e-47
8.01004e-51
-3.24969e-43
7.60987e-47
-3.24549e-43
7.59983e-47
-7.07242e-48
-9.46978e-40
2.57396e-43
7.3976e-48
-9.48324e-40
2.57787e-43
1.19735e-47
-9.48246e-40
2.57772e-43
1.72974e-47
-9.4836e-40
2.57804e-43
2.58166e-47
-9.48836e-40
2.57929e-43
-9.47644e-40
2.5759e-43
-2.88633e-45
-2.01967e-36
6.31608e-40
1.16923e-44
-2.02259e-36
6.32608e-40
9.94632e-45
-2.02244e-36
6.32575e-40
1.58681e-44
-2.02269e-36
6.32647e-40
3.42584e-44
-2.02372e-36
6.32938e-40
-2.02123e-36
6.32092e-40
-9.96677e-42
-3.13824e-33
1.05339e-36
-1.87747e-41
-3.14287e-33
1.05514e-36
-4.31502e-41
-3.14266e-33
1.05509e-36
-4.75549e-41
-3.14302e-33
1.05517e-36
-1.78844e-41
-3.1446e-33
1.05561e-36
-3.14075e-33
1.05415e-36
-6.1127e-38
-3.55821e-30
1.00035e-33
-8.55441e-38
-3.5636e-30
1.00216e-33
-1.24884e-37
-3.56337e-30
1.00213e-33
-1.39363e-37
-3.56373e-30
1.00216e-33
-9.35416e-38
-3.56544e-30
1.00249e-33
-3.56108e-30
1.00099e-33
-1.9141e-34
-3.03733e-27
-2.91703e-29
-1.43765e-34
-3.04221e-27
-2.9067e-29
-1.11973e-34
-3.04204e-27
-2.90611e-29
-8.01675e-35
-3.04222e-27
-2.9121e-29
-2.86377e-35
-3.04346e-27
-2.92537e-29
-3.03955e-27
-2.94124e-29
-2.55848e-31
-1.08704e-24
-1.17703e-24
-1.40661e-31
-1.08884e-24
-1.17895e-24
-2.13059e-32
-1.08877e-24
-1.17891e-24
5.98009e-32
-1.08877e-24
-1.17898e-24
8.91544e-32
-1.0891e-24
-1.17945e-24
-1.08759e-24
-1.17799e-24
-9.33724e-29
-9.04759e-22
2.1064e-29
-9.06219e-22
1.43854e-28
-9.0615e-22
2.17204e-28
-9.06108e-22
2.03926e-28
-9.06303e-22
-9.04993e-22
-2.50795e-64
-4.31289e-56
8.3324e-60
-2.41096e-65
-4.31978e-56
8.34584e-60
6.39284e-65
-4.3195e-56
8.34535e-60
1.27697e-64
-4.31995e-56
8.34623e-60
1.74242e-64
-4.32168e-56
8.34954e-60
-4.31538e-56
8.33728e-60
-6.06029e-60
-9.45577e-52
1.97851e-55
3.7424e-62
-9.47072e-52
1.98166e-55
2.32033e-60
-9.47013e-52
1.98154e-55
4.16737e-60
-9.4711e-52
1.98175e-55
6.40213e-60
-9.47505e-52
1.98257e-55
-9.4615e-52
1.97971e-55
-8.62108e-56
-9.68291e-48
2.30145e-51
-3.82314e-58
-9.69804e-48
2.30507e-51
3.37275e-56
-9.69742e-48
2.30494e-51
6.12585e-56
-9.69839e-48
2.30518e-51
9.46634e-56
-9.70253e-48
2.30616e-51
-9.68885e-48
2.30289e-51
-6.71028e-52
-6.00379e-44
1.68075e-47
6.70107e-54
-6.01312e-44
1.68338e-47
2.84201e-52
-6.01274e-44
1.68329e-47
5.51473e-52
-6.01335e-44
1.68347e-47
8.77839e-52
-6.01597e-44
1.6842e-47
-6.00762e-44
1.68184e-47
-2.82709e-48
-2.46599e-40
8.29955e-44
2.51338e-50
-2.46983e-40
8.31265e-44
1.42331e-48
-2.46969e-40
8.3122e-44
2.99037e-48
-2.46994e-40
8.31311e-44
4.85406e-48
-2.47104e-40
8.31678e-44
-2.46766e-40
8.30526e-44
-7.70277e-45
-6.98502e-37
2.82175e-40
-1.51668e-45
-6.99602e-37
2.82627e-40
2.63379e-45
-6.99563e-37
2.82613e-40
7.86047e-45
-6.99635e-37
2.82642e-40
1.41534e-44
-6.99946e-37
2.82766e-40
-6.98998e-37
2.82374e-40
-2.26611e-41
-1.40274e-33
6.62708e-37
-1.55686e-41
-1.40496e-33
6.63786e-37
-6.05826e-42
-1.40489e-33
6.63751e-37
6.42552e-42
-1.40501e-33
6.6381e-37
1.80282e-41
-1.40562e-33
6.64088e-37
-1.40372e-33
6.63156e-37
-7.46523e-38
-2.06484e-30
1.05879e-33
-5.93832e-38
-2.06812e-30
1.06054e-33
-3.56662e-38
-2.06799e-30
1.06048e-33
-1.02929e-38
-2.06813e-30
1.06054e-33
9.92491e-39
-2.06897e-30
1.06095e-33
-2.06615e-30
1.05943e-33
-1.50788e-34
-2.30829e-27
1.05088e-30
-8.9401e-35
-2.31192e-27
1.05265e-30
-2.70608e-35
-2.31174e-27
1.05258e-30
2.11386e-35
-2.31183e-27
1.05261e-30
4.91405e-35
-2.31267e-27
1.05296e-30
-2.30951e-27
1.0514e-30
-1.62097e-31
-2.02659e-24
2.74962e-28
-3.39385e-32
-2.0297e-24
2.75483e-28
7.94432e-32
-2.02952e-24
2.75466e-28
1.46976e-31
-2.02953e-24
2.75439e-28
1.50129e-31
-2.03018e-24
2.75459e-28
-2.02739e-24
2.74941e-28
-3.67803e-29
-3.9373e-22
-1.03059e-21
1.11213e-28
-3.94378e-22
-1.03198e-21
2.58064e-28
-3.94357e-22
-1.03185e-21
3.34694e-28
-3.94336e-22
-1.03184e-21
2.83249e-28
-3.94411e-22
-1.03213e-21
-3.93835e-22
-1.03074e-21
-3.27529e-27
-3.197e-19
4.25867e-26
-3.20139e-19
8.8152e-26
-3.20099e-19
1.08875e-25
-3.20065e-19
8.52988e-26
-3.20101e-19
-3.19642e-19
-4.13746e-06
-0.694461
-0.104802
2.93849e-07
-0.694468
-0.104804
1.52463e-06
-0.694467
-0.104803
2.19553e-06
-0.694464
-0.104803
2.24624e-06
-0.694462
-0.104804
-0.694474
-0.104803
4.17188e-06
-0.00603468
-7.62812e-07
4.1741e-06
-0.00603269
-7.62892e-07
3.29109e-06
-0.0060321
-7.62932e-07
5.68508e-06
-0.00603323
-7.62915e-07
7.71538e-06
-0.0060333
-7.62871e-07
-0.00602969
-7.62786e-07
5.81384e-07
2.46043e-12
5.34944e-07
2.69515e-12
5.07213e-07
2.76638e-12
7.2138e-07
2.70481e-12
8.7855e-07
2.68887e-12
2.75292e-12
-2.71326e-07
-6.55334e-08
0.00151431
-1.43373e-07
-6.55419e-08
0.00151421
2.28987e-07
-6.55456e-08
0.00151415
3.35945e-07
-6.55448e-08
0.0015143
-2.37313e-07
-6.55396e-08
0.00151451
-6.55376e-08
0.00151488
-5.35049e-13
2.01788e-12
-8.28347e-07
-1.63418e-13
2.21041e-12
-8.28437e-07
2.19573e-13
2.26883e-12
-8.2848e-07
4.19918e-13
2.21832e-12
-8.28462e-07
7.13707e-13
2.20524e-12
-8.28413e-07
2.25778e-12
-8.28326e-07
-8.82018e-19
6.85232e-12
1.97561e-17
7.50598e-12
2.27451e-17
7.70441e-12
1.75503e-17
7.53292e-12
-6.40701e-18
7.48856e-12
7.66698e-12
-1.20674e-10
-1.32187e-05
-1.23607e-07
5.02753e-10
-1.32192e-05
-1.23608e-07
7.89148e-10
-1.32196e-05
-1.236e-07
1.14377e-09
-1.32199e-05
-1.23591e-07
1.65676e-09
-1.32203e-05
-1.23572e-07
-1.32208e-05
-1.23537e-07
-7.78327e-12
6.87314e-12
-1.40471e-05
1.01381e-11
7.52896e-12
-1.40477e-05
1.92421e-11
7.72796e-12
-1.40481e-05
2.52434e-11
7.55594e-12
-1.40484e-05
3.5271e-11
7.51156e-12
-1.40487e-05
7.69049e-12
-1.40491e-05
-4.45906e-17
1.68819e-11
-2.32404e-17
1.84922e-11
-2.09809e-17
1.89811e-11
-3.68766e-17
1.85586e-11
-2.23551e-17
1.84494e-11
1.88889e-11
6.47686e-11
-1.70181e-05
-1.65317e-07
8.22747e-11
-1.70197e-05
-1.65297e-07
7.56085e-11
-1.70203e-05
-1.65283e-07
6.06262e-11
-1.70202e-05
-1.6527e-07
4.54652e-11
-1.70199e-05
-1.65261e-07
-1.7019e-05
-1.65236e-07
1.04527e-09
1.91958e-11
-3.6071e-05
7.74019e-10
2.10263e-11
-3.60726e-05
4.2321e-10
2.15818e-11
-3.60732e-05
2.21722e-10
2.11014e-11
-3.60739e-05
2.81069e-10
2.09775e-11
-3.60739e-05
2.1477e-11
-3.60735e-05
1.49175e-16
2.33781e-15
6.21972e-17
2.77508e-15
3.16598e-17
3.13483e-15
-7.17167e-17
2.98951e-15
-2.45879e-16
2.84682e-15
-4.9119e-19
6.43832e-12
-3.33172e-05
-2.06853e-10
-4.01202e-12
-3.33176e-05
-2.07075e-10
-9.9536e-12
-3.33172e-05
-2.06989e-10
-1.87677e-11
-3.33163e-05
-2.06849e-10
-2.07133e-11
-3.33166e-05
-2.06652e-10
-3.33171e-05
-2.06242e-10
9.38717e-10
3.60118e-15
-2.13365e-12
2.39977e-10
4.27445e-15
-2.13423e-12
-1.80658e-10
4.82838e-15
-2.13407e-12
-1.4026e-10
4.60444e-15
-2.13429e-12
-6.02845e-11
4.3846e-15
-2.1346e-12
-2.90645e-17
-2.13393e-12
9.5302e-20
-2.95696e-17
1.03036e-19
-2.95823e-17
1.00091e-19
-2.95839e-17
5.91594e-20
-2.95889e-17
-2.6713e-20
-2.95957e-17
-2.95824e-17
-1.68772e-14
-3.33203e-14
-8.1548e-09
-1.30566e-14
-3.33264e-14
-8.16389e-09
-5.48962e-15
-3.3322e-14
-8.16087e-09
9.22115e-16
-3.3323e-14
-8.15563e-09
2.18446e-15
-3.33271e-14
-8.14812e-09
-3.35557e-14
-8.13268e-09
-1.86278e-18
-6.6204e-17
-2.16681e-12
-2.03645e-18
-6.62267e-17
-2.16739e-12
-1.2908e-18
-6.62271e-17
-2.16723e-12
6.6332e-20
-6.6235e-17
-2.16745e-12
1.3303e-18
-6.6248e-17
-2.16776e-12
-6.62201e-17
-2.16738e-12
-6.95565e-22
-9.74819e-17
-8.09013e-22
-9.7526e-17
-8.80812e-22
-9.75375e-17
-5.25594e-22
-9.75489e-17
2.04766e-22
-9.75651e-17
-9.75576e-17
-2.09155e-14
-1.03064e-10
-6.93394e-10
3.44722e-13
-1.03098e-10
-7.06893e-10
5.93811e-13
-1.03087e-10
-7.06017e-10
7.73533e-13
-1.03087e-10
-6.97578e-10
5.84407e-13
-1.03085e-10
-6.98514e-10
-1.03052e-10
-6.79623e-10
-5.22922e-17
-9.61875e-14
-1.05135e-10
-3.10866e-18
-9.62595e-14
-1.0517e-10
5.21075e-17
-9.62402e-14
-1.05159e-10
1.23687e-16
-9.62255e-14
-1.05159e-10
1.6094e-16
-9.62051e-14
-1.05158e-10
-9.61036e-14
-1.05123e-10
-8.60013e-20
-9.62937e-14
-5.49084e-20
-9.63658e-14
-2.01017e-21
-9.63466e-14
5.38645e-20
-9.63319e-14
9.61398e-20
-9.63115e-14
-9.62099e-14
4.70385e-12
-4.60013e-09
1.10333e-08
9.58996e-12
-4.60095e-09
1.09983e-08
1.12256e-11
-4.60049e-09
1.10138e-08
1.08918e-11
-4.60061e-09
1.10437e-08
4.54195e-12
-4.60128e-09
1.10283e-08
-4.60062e-09
1.10862e-08
-1.89846e-16
-1.43549e-11
-4.69124e-09
6.84344e-15
-1.43571e-11
-4.69211e-09
9.39423e-15
-1.43563e-11
-4.69163e-09
1.05643e-14
-1.43585e-11
-4.69175e-09
1.14704e-14
-1.43621e-11
-4.69241e-09
-1.43607e-11
-4.69171e-09
-1.52987e-17
-1.44511e-11
-8.663e-18
-1.44534e-11
-5.65453e-19
-1.44526e-11
7.18467e-18
-1.44547e-11
1.57017e-17
-1.44584e-11
-1.44568e-11
2.93895e-11
-4.40153e-08
-1.42384e-06
2.42126e-11
-4.40008e-08
-1.4238e-06
2.08163e-11
-4.39981e-08
-1.42367e-06
1.58975e-11
-4.40019e-08
-1.42359e-06
-1.24313e-11
-4.40052e-08
-1.42339e-06
-4.40256e-08
-1.42372e-06
8.37763e-14
-1.52528e-10
-3.86661e-08
1.44433e-13
-1.52449e-10
-3.86757e-08
3.38551e-14
-1.5245e-10
-3.86743e-08
-2.75344e-14
-1.52473e-10
-3.8672e-08
6.97577e-14
-1.52465e-10
-3.86664e-08
-1.52586e-10
-3.86663e-08
-8.60158e-16
-1.68178e-10
-5.58774e-16
-1.68105e-10
-5.09152e-16
-1.68106e-10
-2.27309e-16
-1.68131e-10
1.13511e-15
-1.68128e-10
-1.68243e-10
6.58986e-10
-8.9605e-07
-1.48559e-05
4.26297e-10
-8.9624e-07
-1.4851e-05
3.88897e-10
-8.9621e-07
-1.48507e-05
2.9535e-10
-8.96265e-07
-1.48507e-05
-4.91541e-10
-8.96227e-07
-1.48461e-05
-8.96162e-07
-1.48545e-05
1.66083e-12
-1.25104e-08
-5.37641e-07
-3.11474e-12
-1.25069e-08
-5.37445e-07
-8.96594e-12
-1.25069e-08
-5.37428e-07
-1.07468e-11
-1.25095e-08
-5.37485e-07
-1.12755e-11
-1.25103e-08
-5.37396e-07
-1.25163e-08
-5.3772e-07
-1.55829e-13
-1.97834e-08
-2.54927e-13
-1.97813e-08
-3.96124e-13
-1.97817e-08
-4.16821e-13
-1.97853e-08
-1.04393e-13
-1.97878e-08
-1.97931e-08
6.12622e-09
-1.1573e-06
-3.39836e-05
5.64815e-09
-1.15796e-06
-3.39828e-05
4.95559e-09
-1.15798e-06
-3.39854e-05
3.17073e-09
-1.15788e-06
-3.39853e-05
-3.37696e-09
-1.15815e-06
-3.39801e-05
-1.15711e-06
-3.39882e-05
-1.73851e-11
1.06107e-07
-1.95635e-06
-5.41843e-11
1.06117e-07
-1.95682e-06
-1.17238e-10
1.06123e-07
-1.95683e-06
-1.43429e-10
1.06145e-07
-1.95686e-06
-2.35925e-10
1.06165e-07
-1.95695e-06
1.06177e-07
-1.95672e-06
-5.16257e-12
-2.06191e-08
-8.32531e-12
-2.06295e-08
-1.09679e-11
-2.06305e-08
-1.07441e-11
-2.0633e-08
-5.81627e-12
-2.06384e-08
-2.06313e-08
9.20924e-09
1.03561e-05
3.84822e-05
1.30158e-08
1.036e-05
3.84941e-05
1.5511e-08
1.03601e-05
3.84917e-05
1.22981e-08
1.03604e-05
3.84903e-05
1.93682e-09
1.03618e-05
3.84921e-05
1.03599e-05
3.84766e-05
-3.57275e-10
1.04171e-06
4.12008e-06
-3.96002e-10
1.04226e-06
4.12156e-06
-4.77903e-10
1.04227e-06
4.12157e-06
-5.77166e-10
1.04234e-06
4.12166e-06
-5.75889e-10
1.04258e-06
4.12217e-06
1.04211e-06
4.12091e-06
-2.86233e-11
1.73878e-07
-3.73057e-11
1.73979e-07
-4.43113e-11
1.73979e-07
-4.25507e-11
1.73986e-07
-2.22457e-11
1.74022e-07
1.73925e-07
2.09537e-22
1.55685e-17
-8.91312e-17
6.3379e-17
9.90609e-22
1.5583e-17
-8.92128e-17
6.34386e-17
1.55801e-21
1.55792e-17
-8.91925e-17
6.34237e-17
1.61674e-21
1.55756e-17
-8.9173e-17
6.34099e-17
1.16824e-21
1.55744e-17
-8.91659e-17
6.34052e-17
1.55533e-17
-8.90494e-17
6.33201e-17
-2.87878e-21
2.2282e-16
-7.44759e-16
3.23129e-16
-7.43288e-22
2.23058e-16
-7.45394e-16
3.23477e-16
1.78481e-21
2.23056e-16
-7.45414e-16
3.23475e-16
3.53604e-21
2.2306e-16
-7.45421e-16
3.23482e-16
4.15294e-21
2.23107e-16
-7.45515e-16
3.2355e-16
2.22858e-16
-7.44859e-16
3.23188e-16
-5.74219e-23
-3.08852e-16
4.26368e-18
-3.57036e-23
-3.09e-16
4.26901e-18
1.6606e-24
-3.09004e-16
4.26899e-18
3.48771e-23
-3.09008e-16
4.26917e-18
5.46575e-23
-3.09037e-16
4.27041e-18
-3.08884e-16
4.26493e-18
5.08161e-20
1.04444e-15
-5.32767e-15
1.4083e-19
1.04525e-15
-5.32825e-15
2.04182e-19
1.04496e-15
-5.3283e-15
2.07112e-19
1.04468e-15
-5.32789e-15
1.4471e-19
1.04451e-15
-5.32717e-15
1.04318e-15
-5.3268e-15
-3.41269e-19
1.97482e-14
-5.22484e-14
-1.39689e-19
1.97679e-14
-5.2261e-14
9.55585e-20
1.97676e-14
-5.22632e-14
3.08269e-19
1.97679e-14
-5.22631e-14
4.55616e-19
1.97721e-14
-5.22612e-14
1.97514e-14
-5.22493e-14
-6.48408e-21
-1.77186e-15
-5.20833e-21
-1.77389e-15
-2.13551e-21
-1.77389e-15
2.17352e-21
-1.77397e-15
6.25779e-21
-1.77442e-15
-1.77232e-15
1.88324e-17
8.65964e-14
-2.83062e-13
4.07354e-17
8.66524e-14
-2.83166e-13
5.39946e-17
8.66237e-14
-2.83053e-13
5.33308e-17
8.65967e-14
-2.82922e-13
3.65373e-17
8.65797e-14
-2.82775e-13
8.64719e-14
-2.82461e-13
-5.65985e-17
2.27117e-12
-4.14046e-12
-3.65012e-17
2.27329e-12
-4.14392e-12
-1.38397e-17
2.27323e-12
-4.14393e-12
2.01102e-17
2.27327e-12
-4.14405e-12
5.97909e-17
2.27376e-12
-4.14481e-12
2.27149e-12
-4.14125e-12
-1.48064e-18
-2.19795e-13
-1.45027e-18
-2.19885e-13
-1.02196e-18
-2.1988e-13
-1.73043e-19
-2.19871e-13
9.44151e-19
-2.19866e-13
-2.19742e-13
5.99898e-15
3.15708e-12
-1.57161e-11
1.09127e-14
3.15773e-12
-1.57151e-11
1.33569e-14
3.15358e-12
-1.57022e-11
1.3408e-14
3.14951e-12
-1.56886e-11
9.89443e-15
3.14608e-12
-1.56718e-11
3.13854e-12
-1.56471e-11
-1.09213e-14
1.72336e-10
-3.01015e-10
-1.08481e-14
1.72482e-10
-3.01275e-10
-1.03698e-14
1.72475e-10
-3.0127e-10
-5.45449e-15
1.72477e-10
-3.01283e-10
5.83538e-15
1.72514e-10
-3.01353e-10
1.72354e-10
-3.01072e-10
-2.23505e-16
4.47062e-11
-2.55266e-16
4.47602e-11
-2.50756e-16
4.47628e-11
-1.60378e-16
4.47692e-11
5.24687e-17
4.47894e-11
4.47427e-11
1.5396e-12
5.24013e-09
-2.08947e-07
1.80316e-12
5.24411e-09
-2.08997e-07
1.77148e-12
5.24322e-09
-2.08962e-07
1.5137e-12
5.24272e-09
-2.08934e-07
6.69225e-13
5.24314e-09
-2.08909e-07
5.2376e-09
-2.08793e-07
-5.38552e-13
5.85139e-09
-2.68335e-07
-5.90797e-13
5.85809e-09
-2.68528e-07
-6.62773e-13
5.85811e-09
-2.68511e-07
-6.15009e-13
5.8587e-09
-2.68511e-07
-1.63842e-13
5.86126e-09
-2.68563e-07
5.85479e-09
-2.6834e-07
-2.22763e-14
1.83563e-09
-2.57718e-14
1.8366e-09
-2.7289e-14
1.83664e-09
-2.27779e-14
1.83675e-09
-3.51157e-15
1.83713e-09
1.83628e-09
4.6309e-10
3.12078e-06
5.85207e-10
3.12275e-06
6.22246e-10
3.12254e-06
5.4158e-10
3.12253e-06
3.13797e-10
3.12307e-06
3.1209e-06
-1.29519e-11
-1.2913e-07
-1.1272e-11
-1.29211e-07
-1.82608e-11
-1.29203e-07
-1.98021e-11
-1.29201e-07
-7.6173e-12
-1.29224e-07
-1.29123e-07
-1.48002e-12
-1.74194e-12
-1.95626e-12
-1.82817e-12
-6.88095e-13
-2.56036e-61
1.55048e-56
-6.8614e-53
7.33427e-63
1.55299e-56
-6.87236e-53
1.11905e-61
1.55292e-56
-6.872e-53
1.83986e-61
1.55309e-56
-6.87269e-53
2.4483e-61
1.55368e-56
-6.87529e-53
1.55131e-56
-6.86476e-53
-3.01632e-64
4.82988e-59
-1.95588e-55
1.17404e-64
4.83811e-59
-1.9592e-55
2.92646e-64
4.83794e-59
-1.95911e-55
4.21498e-64
4.83852e-59
-1.95933e-55
5.47286e-64
4.84054e-59
-1.96015e-55
4.83266e-59
-1.95692e-55
-4.89549e-70