/*--------------------------------*- C++ -*----------------------------------*\
| =========                 |                                                 |
| \\      /  F ield         | OpenFOAM: The Open Source CFD Toolbox           |
|  \\    /   O peration     | Version:  v1612+                                |
|   \\  /    A nd           | Web:      www.OpenFOAM.com                      |
|    \\/     M anipulation  |                                                 |
\*---------------------------------------------------------------------------*/
FoamFile
{
    version     2.0;
    format      ascii;
    class       volScalarField;
    location    "1.5";
    object      p;
}
// * * * * * * * * * * * * * * * * * * * * * * * * * * * * * * * * * * * * * //

dimensions      [1 -1 -2 0 0 0 0];

internalField   nonuniform List<scalar> 
1116
(
33466.8
33466.8
33466.8
33466.8
33466.8
33466.8
32360.7
32360.7
32360.7
32360.7
32360.7
32360.7
29112
29112
29112
29112
29112
29112
24877.1
24877.1
24877.1
24877.1
24877.1
24877.1
19719
19719
19719
19719.1
19719.1
19719.1
14518.6
14518.6
14518.6
14518.6
14518.6
14518.6
9042.09
9042.07
9042.08
9042.11
9042.13
9042.17
4790.99
4790.96
4790.97
4790.99
4791
4791.02
3985.33
3985.31
3985.32
3985.33
3985.33
3985.35
2368.98
2369.16
2369.17
2369.18
2369.18
2369.07
1800.92
1800.93
1800.93
1800.93
1800.93
1800.93
1896.85
1896.9
1896.92
1896.92
1896.9
1896.87
23780.4
23780.4
23780.4
23780.4
23780.4
23780.4
21876.4
21876.4
21876.5
21876.5
21876.5
21876.5
17809.7
17809.8
17809.8
17809.8
17809.8
17809.8
12377.8
12377.8
12377.8
12377.9
12377.9
12377.9
5830.31
5830.34
5830.38
5830.4
5830.41
5830.49
2643.34
2643.29
2643.31
2643.32
2643.32
2643.35
679.083
679.028
679.046
679.061
679.061
679.083
-39.2016
-39.1965
-39.1931
-39.1909
-39.189
-39.1874
-113.179
-113.176
-113.176
-113.177
-113.177
-113.175
-15.344
-15.3411
-15.3427
-15.3418
-15.3369
-15.3343
51.7438
51.7512
51.7482
51.7536
51.7644
51.7559
810.128
810.167
810.146
810.136
810.168
810.134
14583.4
14583.4
14583.5
14583.5
14583.5
14583.5
11754.6
11754.7
11754.7
11754.7
11754.7
11754.7
6601.53
6601.58
6601.61
6601.64
6601.65
6601.69
2061.99
2062.02
2062.05
2062.06
2062.07
2062.11
121.263
121.273
121.282
121.285
121.291
121.304
-66.8369
-66.8343
-66.8341
-66.8331
-66.8312
-66.8297
-63.994
-63.9934
-63.9934
-63.9917
-63.9896
-63.9878
-63.1761
-63.1762
-63.1752
-63.1741
-63.1736
-63.1738
-98.7355
-98.7351
-98.7347
-98.7349
-98.7355
-98.7368
-128.207
-128.206
-128.206
-128.206
-128.206
-128.208
-191.209
-191.204
-191.203
-191.2
-191.194
-191.201
32.579
32.5826
32.5788
32.5723
32.5817
32.5813
7551.5
7551.5
7551.51
7551.51
7551.51
7551.51
3928.24
3928.3
3928.31
3928.3
3928.28
3928.34
570.636
570.665
570.674
570.68
570.685
570.711
-47.1982
-47.1951
-47.1944
-47.1935
-47.1934
-47.1966
-50.037
-50.0371
-50.0372
-50.0369
-50.0369
-50.0377
-57.1036
-57.1037
-57.1033
-57.1024
-57.1015
-57.1009
-64.1102
-64.1101
-64.1099
-64.1081
-64.1046
-64.1024
-72.3215
-72.3205
-72.3194
-72.3193
-72.3208
-72.3218
-106.814
-106.814
-106.813
-106.814
-106.815
-106.816
-146.281
-146.281
-146.281
-146.283
-146.285
-146.286
-146.193
-146.194
-146.195
-146.197
-146.199
-146.201
-72.9566
-72.9575
-72.9592
-72.9607
-72.96
-72.9626
-4.96155
-4.96154
-4.96154
-4.96154
-4.96155
-4.96155
-4.96366
-4.96366
-4.96366
-4.96366
-4.96366
-4.96367
-4.968
-4.968
-4.968
-4.968
-4.968
-4.968
-4.97473
-4.97473
-4.97473
-4.97473
-4.97473
-4.97473
-4.9841
-4.98409
-4.9841
-4.9841
-4.9841
-4.9841
-4.99636
-4.99636
-4.99636
-4.99636
-4.99636
-4.99636
-5.01161
-5.01161
-5.01161
-5.01161
-5.01161
-5.01161
-5.02978
-5.02978
-5.02979
-5.02979
-5.02978
-5.02978
-5.05091
-5.05092
-5.05092
-5.05092
-5.05092
-5.05092
-5.07421
-5.07422
-5.07422
-5.07422
-5.07421
-5.07421
-5.09894
-5.09895
-5.09895
-5.09894
-5.09894
-5.09893
-5.11726
-5.11726
-5.11726
-5.11726
-5.11725
-5.11725
-14.7692
-14.7692
-14.7692
-14.7692
-14.7692
-14.7692
-14.7713
-14.7713
-14.7713
-14.7713
-14.7713
-14.7713
-14.7755
-14.7755
-14.7755
-14.7755
-14.7756
-14.7756
-14.7822
-14.7822
-14.7822
-14.7822
-14.7822
-14.7822
-14.7917
-14.7917
-14.7917
-14.7917
-14.7917
-14.7917
-14.8044
-14.8044
-14.8044
-14.8044
-14.8044
-14.8044
-14.8213
-14.8213
-14.8213
-14.8213
-14.8213
-14.8213
-14.8436
-14.8436
-14.8436
-14.8436
-14.8436
-14.8436
-14.8715
-14.8715
-14.8715
-14.8715
-14.8715
-14.8715
-14.9035
-14.9035
-14.9035
-14.9035
-14.9035
-14.9035
-14.938
-14.938
-14.938
-14.938
-14.938
-14.938
-14.9687
-14.9687
-14.9687
-14.9687
-14.9687
-14.9687
-24.5749
-24.5749
-24.5749
-24.5749
-24.5749
-24.5749
-24.5769
-24.5769
-24.5769
-24.5769
-24.5769
-24.5769
-24.5809
-24.5809
-24.5809
-24.5809
-24.5809
-24.5809
-24.5871
-24.5871
-24.5871
-24.5871
-24.5871
-24.5871
-24.596
-24.596
-24.596
-24.596
-24.596
-24.596
-24.6079
-24.6079
-24.6079
-24.6079
-24.6079
-24.6079
-24.6229
-24.6229
-24.6229
-24.6229
-24.6229
-24.6229
-24.6406
-24.6406
-24.6406
-24.6406
-24.6406
-24.6406
-24.6623
-24.6623
-24.6623
-24.6623
-24.6623
-24.6623
-24.6902
-24.6902
-24.6902
-24.6902
-24.6902
-24.6902
-24.7281
-24.7281
-24.7281
-24.7281
-24.7281
-24.7281
-24.7699
-24.7699
-24.7699
-24.7699
-24.7699
-24.7699
-34.379
-34.379
-34.379
-34.379
-34.379
-34.379
-34.3807
-34.3807
-34.3807
-34.3807
-34.3807
-34.3807
-34.3842
-34.3842
-34.3842
-34.3842
-34.3842
-34.3842
-34.3897
-34.3897
-34.3897
-34.3897
-34.3897
-34.3897
-34.3977
-34.3977
-34.3977
-34.3977
-34.3977
-34.3977
-34.409
-34.409
-34.409
-34.409
-34.409
-34.409
-34.4258
-34.4258
-34.4258
-34.4258
-34.4258
-34.4258
-34.4514
-34.4514
-34.4514
-34.4514
-34.4514
-34.4514
-34.4894
-34.4894
-34.4894
-34.4894
-34.4894
-34.4894
-34.544
-34.544
-34.544
-34.544
-34.544
-34.544
-34.6193
-34.6193
-34.6193
-34.6193
-34.6193
-34.6193
-34.7555
-34.7555
-34.7555
-34.7555
-34.7555
-34.7555
2703.49
2703.54
2703.53
2703.54
2703.54
2703.58
-60.739
-60.7311
-60.7315
-60.7322
-60.732
-60.7335
-468.35
-468.351
-468.351
-468.351
-468.351
-468.353
52.3022
52.3091
52.3071
52.3088
52.3132
52.3163
-46.0437
-46.0415
-46.0417
-46.0419
-46.0412
-46.0419
-117.164
-117.165
-117.165
-117.165
-117.165
-117.166
-82.3882
-82.387
-82.3868
-82.3863
-82.3854
-82.3852
-85.776
-85.7759
-85.7756
-85.7754
-85.7752
-85.7753
-99.8871
-99.8869
-99.8869
-99.8868
-99.8867
-99.8867
-47.9517
-47.9513
-47.951
-47.951
-47.9512
-47.9517
-65.0414
-65.0413
-65.0412
-65.0412
-65.0413
-65.0416
-74.2229
-74.2228
-74.2227
-74.2227
-74.2227
-74.2229
-61.5869
-61.5871
-61.5874
-61.5877
-61.5882
-61.589
-67.8204
-67.8205
-67.8206
-67.8209
-67.8213
-67.8218
-72.0727
-72.0728
-72.0728
-72.0728
-72.0727
-72.0728
-64.2597
-64.2596
-64.2596
-64.2595
-64.2592
-64.259
-66.697
-66.6969
-66.6969
-66.6969
-66.697
-66.6971
-70.1421
-70.1421
-70.142
-70.1419
-70.1418
-70.1417
-66.4928
-66.4924
-66.4921
-66.4915
-66.4907
-66.4902
-67.7418
-67.7414
-67.7412
-67.741
-67.7408
-67.7408
-69.1379
-69.1378
-69.1377
-69.1377
-69.1377
-69.1377
-72.7668
-72.7661
-72.7655
-72.7652
-72.7652
-72.7652
-69.5201
-69.5197
-69.5194
-69.5192
-69.5192
-69.5193
-68.0779
-68.0778
-68.0777
-68.0777
-68.0778
-68.0779
-87.6298
-87.6292
-87.6286
-87.6285
-87.629
-87.6292
-71.8282
-71.8278
-71.8276
-71.8276
-71.8278
-71.8281
-67.0715
-67.0715
-67.0714
-67.0713
-67.0712
-67.0712
-98.653
-98.6527
-98.6521
-98.6524
-98.6539
-98.6535
-68.9661
-68.9657
-68.9654
-68.9654
-68.9659
-68.9658
-64.6766
-64.6763
-64.6762
-64.6761
-64.676
-64.6762
-82.8968
-82.8984
-82.8991
-82.9007
-82.9036
-82.9015
-54.8165
-54.8158
-54.8155
-54.8156
-54.8166
-54.8157
-59.7826
-59.7824
-59.7823
-59.7824
-59.7826
-59.7827
-40.3165
-40.3189
-40.3199
-40.3212
-40.3223
-40.3211
-33.2538
-33.2532
-33.2533
-33.254
-33.2554
-33.2564
-53.41
-53.4093
-53.4092
-53.4094
-53.4098
-53.4103
-45.4916
-45.4916
-45.4917
-45.4918
-45.4918
-45.4919
-53.9057
-53.9057
-53.9057
-53.9058
-53.9058
-53.9059
-63.4295
-63.4295
-63.4295
-63.4295
-63.4295
-63.4295
-46.512
-46.5121
-46.5122
-46.5123
-46.5125
-46.5126
-53.6082
-53.6081
-53.6082
-53.6083
-53.6083
-53.6084
-63.0858
-63.0858
-63.0858
-63.0858
-63.0858
-63.0859
-48.2828
-48.2829
-48.2831
-48.2834
-48.2837
-48.2839
-52.9548
-52.9547
-52.9548
-52.955
-52.9551
-52.9552
-62.4594
-62.4594
-62.4594
-62.4594
-62.4594
-62.4595
-50.758
-50.7581
-50.7586
-50.7592
-50.7598
-50.7604
-51.9018
-51.9017
-51.9019
-51.9022
-51.9025
-51.9029
-61.3164
-61.3163
-61.3163
-61.3164
-61.3164
-61.3166
-49.2592
-49.2594
-49.2596
-49.2599
-49.2602
-49.2603
-50.7826
-50.7826
-50.783
-50.7835
-50.7842
-50.7851
-59.5004
-59.5002
-59.5002
-59.5003
-59.5005
-59.5009
-72.9802
-72.9812
-72.9829
-72.985
-72.9874
-72.9898
-50.0544
-50.0539
-50.0544
-50.0553
-50.0564
-50.0584
-57.1262
-57.1259
-57.1259
-57.126
-57.1262
-57.1269
-44.1662
-44.1662
-44.1662
-44.1662
-44.1662
-44.1662
-53.9682
-53.9682
-53.9682
-53.9682
-53.9682
-53.9682
-63.7695
-63.7695
-63.7695
-63.7695
-63.7695
-63.7695
-44.1675
-44.1675
-44.1675
-44.1675
-44.1675
-44.1675
-53.969
-53.969
-53.969
-53.969
-53.969
-53.969
-63.7698
-63.7698
-63.7698
-63.7698
-63.7698
-63.7698
-44.1701
-44.1701
-44.1701
-44.1701
-44.1701
-44.1701
-53.9706
-53.9706
-53.9706
-53.9706
-53.9706
-53.9706
-63.7703
-63.7703
-63.7703
-63.7703
-63.7703
-63.7703
-44.1743
-44.1743
-44.1743
-44.1743
-44.1743
-44.1743
-53.9732
-53.9732
-53.9732
-53.9733
-53.9733
-53.9733
-63.7712
-63.7712
-63.7712
-63.7712
-63.7712
-63.7712
-44.1803
-44.1803
-44.1803
-44.1803
-44.1803
-44.1803
-53.977
-53.977
-53.977
-53.977
-53.977
-53.977
-63.7724
-63.7724
-63.7724
-63.7724
-63.7724
-63.7724
-44.1886
-44.1886
-44.1886
-44.1886
-44.1886
-44.1886
-53.9822
-53.9822
-53.9822
-53.9822
-53.9822
-53.9822
-63.7741
-63.7741
-63.7741
-63.7741
-63.7741
-63.7741
-44.1995
-44.1995
-44.1995
-44.1995
-44.1995
-44.1995
-53.9895
-53.9895
-53.9895
-53.9895
-53.9895
-53.9895
-63.7761
-63.7761
-63.7761
-63.7761
-63.7761
-63.7761
-44.2144
-44.2144
-44.2144
-44.2144
-44.2144
-44.2144
-54
-54
-54
-54
-54
-54
-63.7781
-63.7781
-63.7781
-63.7781
-63.7781
-63.7781
-44.2374
-44.2374
-44.2374
-44.2374
-44.2373
-44.2373
-54.0154
-54.0154
-54.0154
-54.0154
-54.0154
-54.0154
-63.7783
-63.7783
-63.7783
-63.7783
-63.7783
-63.7783
-44.2832
-44.2831
-44.2831
-44.2831
-44.2831
-44.2831
-54.0379
-54.0379
-54.0379
-54.0379
-54.0379
-54.0379
-63.7716
-63.7716
-63.7716
-63.7716
-63.7716
-63.7716
-44.3925
-44.3925
-44.3925
-44.3925
-44.3925
-44.3925
-54.0584
-54.0584
-54.0584
-54.0584
-54.0585
-54.0585
-63.7422
-63.7422
-63.7422
-63.7422
-63.7422
-63.7422
-44.7125
-44.7125
-44.7125
-44.7125
-44.7126
-44.7126
-54.0676
-54.0677
-54.0677
-54.0677
-54.0677
-54.0677
-63.6582
-63.6582
-63.6582
-63.6582
-63.6582
-63.6582
)
;

boundaryField
{
    seabed_topleft_surface
    {
        type            calculated;
        value           nonuniform List<scalar> 
72
(
38388.7
38388.7
38388.7
38388.7
38388.7
38388.7
37282.6
37282.6
37282.6
37282.6
37282.6
37282.6
34033.9
34033.9
34033.9
34033.9
34033.9
34033.9
29798.9
29798.9
29798.9
29798.9
29798.9
29798.9
24640.2
24640.2
24640.2
24640.2
24640.2
24640.2
19394.3
19394.3
19394.3
19394.3
19394.3
19394.3
13641.2
13641.1
13641.2
13641.2
13641.2
13641.3
9105.27
9105.17
9105.19
9105.22
9105.23
9105.27
7980.86
7980.8
7980.82
7980.84
7980.83
7980.86
4780.48
4780.83
4780.85
4780.86
4780.84
4780.63
1916.63
1916.7
1916.7
1916.7
1916.7
1916.66
1931.98
1932.03
1932.05
1932.05
1932.03
1932
)
;
    }
    seabed_topright_surface
    {
        type            calculated;
        value           nonuniform List<scalar> 
72
(
-0.0396935
-0.0396889
-0.0396889
-0.039689
-0.0396899
-0.0396907
-0.0418089
-0.0418061
-0.0418071
-0.0418077
-0.0418091
-0.0418109
-0.0461437
-0.0461422
-0.0461438
-0.0461445
-0.0461456
-0.0461471
-0.0528723
-0.0528712
-0.0528734
-0.0528738
-0.0528743
-0.0528752
-0.0622399
-0.0622388
-0.0622413
-0.0622413
-0.0622413
-0.0622418
-0.0745056
-0.0745055
-0.0745068
-0.0745069
-0.0745067
-0.0745069
-0.089751
-0.0897532
-0.0897544
-0.0897543
-0.0897537
-0.0897534
-0.107922
-0.107928
-0.10793
-0.107929
-0.107928
-0.107927
-0.129055
-0.129064
-0.129066
-0.129066
-0.129064
-0.12906
-0.15235
-0.152359
-0.152361
-0.15236
-0.152356
-0.152351
-0.177088
-0.177093
-0.177093
-0.177089
-0.177082
-0.177075
-0.195406
-0.195408
-0.195407
-0.195404
-0.195399
-0.195394
)
;
    }
    breakwater_top_surface
    {
        type            calculated;
        value           nonuniform List<scalar> 
36
(
-40.5866
-40.5866
-40.5867
-40.5868
-40.5868
-40.5869
-41.607
-41.6071
-41.6072
-41.6073
-41.6075
-41.6076
-43.3778
-43.3779
-43.3781
-43.3784
-43.3787
-43.3789
-45.853
-45.8531
-45.8536
-45.8542
-45.8548
-45.8554
-44.354
-44.3542
-44.3545
-44.3548
-44.3551
-44.3552
-68.0593
-68.0603
-68.0619
-68.064
-68.0664
-68.0688
)
;
    }
    breakwater_left_surface
    {
        type            calculated;
        value           nonuniform List<scalar> 
24
(
1896.97
1897.02
1897.04
1897.04
1897.02
1896.99
810.26
810.299
810.278
810.268
810.3
810.266
32.6389
32.6425
32.6387
32.6322
32.6416
32.6412
-72.9403
-72.9411
-72.9428
-72.9443
-72.9436
-72.9463
)
;
    }
    breakwater_right_surface
    {
        type            calculated;
        value           nonuniform List<scalar> 
24
(
-5.10041
-5.10041
-5.10041
-5.1004
-5.1004
-5.10039
-14.9522
-14.9522
-14.9522
-14.9522
-14.9522
-14.9522
-24.7537
-24.7537
-24.7537
-24.7537
-24.7537
-24.7537
-34.7396
-34.7396
-34.7396
-34.7397
-34.7397
-34.7397
)
;
    }
    water_front_surface
    {
        type            calculated;
        value           nonuniform List<scalar> 
186
(
33466.8
32360.7
29112
24877.1
19719
14518.6
9042.09
4790.99
3985.33
2368.98
1800.92
1896.85
23780.4
21876.4
17809.7
12377.8
5830.31
2643.34
679.083
-39.2016
-113.179
-15.344
51.7438
810.128
14583.4
11754.6
6601.53
2061.99
121.263
-66.8369
-63.994
-63.1761
-98.7355
-128.207
-191.209
32.579
7551.5
3928.24
570.636
-47.1982
-50.037
-57.1036
-64.1102
-72.3215
-106.814
-146.281
-146.193
-72.9566
-4.96155
-4.96366
-4.968
-4.97473
-4.9841
-4.99636
-5.01161
-5.02978
-5.05091
-5.07421
-5.09894
-5.11726
-14.7692
-14.7713
-14.7755
-14.7822
-14.7917
-14.8044
-14.8213
-14.8436
-14.8715
-14.9035
-14.938
-14.9687
-24.5749
-24.5769
-24.5809
-24.5871
-24.596
-24.6079
-24.6229
-24.6406
-24.6623
-24.6902
-24.7281
-24.7699
-34.379
-34.3807
-34.3842
-34.3897
-34.3977
-34.409
-34.4258
-34.4514
-34.4894
-34.544
-34.6193
-34.7555
2703.49
-60.739
-468.35
52.3022
-46.0437
-117.164
-82.3882
-85.776
-99.8871
-47.9517
-65.0414
-74.2229
-61.5869
-67.8204
-72.0727
-64.2597
-66.697
-70.1421
-66.4928
-67.7418
-69.1379
-72.7668
-69.5201
-68.0779
-87.6298
-71.8282
-67.0715
-98.653
-68.9661
-64.6766
-82.8968
-54.8165
-59.7826
-40.3165
-33.2538
-53.41
-45.4916
-53.9057
-63.4295
-46.512
-53.6082
-63.0858
-48.2828
-52.9548
-62.4594
-50.758
-51.9018
-61.3164
-49.2592
-50.7826
-59.5004
-72.9802
-50.0544
-57.1262
-44.1662
-53.9682
-63.7695
-44.1675
-53.969
-63.7698
-44.1701
-53.9706
-63.7703
-44.1743
-53.9732
-63.7712
-44.1803
-53.977
-63.7724
-44.1886
-53.9822
-63.7741
-44.1995
-53.9895
-63.7761
-44.2144
-54
-63.7781
-44.2374
-54.0154
-63.7783
-44.2832
-54.0379
-63.7716
-44.3925
-54.0584
-63.7422
-44.7125
-54.0676
-63.6582
)
;
    }
    water_back_surface
    {
        type            calculated;
        value           nonuniform List<scalar> 
186
(
33466.8
32360.7
29112
24877.1
19719.1
14518.6
9042.17
4791.02
3985.35
2369.07
1800.93
1896.87
23780.4
21876.5
17809.8
12377.9
5830.49
2643.35
679.083
-39.1874
-113.175
-15.3343
51.7559
810.134
14583.5
11754.7
6601.69
2062.11
121.304
-66.8297
-63.9878
-63.1738
-98.7368
-128.208
-191.201
32.5813
7551.51
3928.34
570.711
-47.1966
-50.0377
-57.1009
-64.1024
-72.3218
-106.816
-146.286
-146.201
-72.9626
-4.96155
-4.96367
-4.968
-4.97473
-4.9841
-4.99636
-5.01161
-5.02978
-5.05092
-5.07421
-5.09893
-5.11725
-14.7692
-14.7713
-14.7756
-14.7822
-14.7917
-14.8044
-14.8213
-14.8436
-14.8715
-14.9035
-14.938
-14.9687
-24.5749
-24.5769
-24.5809
-24.5871
-24.596
-24.6079
-24.6229
-24.6406
-24.6623
-24.6902
-24.7281
-24.7699
-34.379
-34.3807
-34.3842
-34.3897
-34.3977
-34.409
-34.4258
-34.4514
-34.4894
-34.544
-34.6193
-34.7555
2703.58
-60.7335
-468.353
52.3163
-46.0419
-117.166
-82.3852
-85.7753
-99.8867
-47.9517
-65.0416
-74.2229
-61.589
-67.8218
-72.0728
-64.259
-66.6971
-70.1417
-66.4902
-67.7408
-69.1377
-72.7652
-69.5193
-68.0779
-87.6292
-71.8281
-67.0712
-98.6535
-68.9658
-64.6762
-82.9015
-54.8157
-59.7827
-40.3211
-33.2564
-53.4103
-45.4919
-53.9059
-63.4295
-46.5126
-53.6084
-63.0859
-48.2839
-52.9552
-62.4595
-50.7604
-51.9029
-61.3166
-49.2603
-50.7851
-59.5009
-72.9898
-50.0584
-57.1269
-44.1662
-53.9682
-63.7695
-44.1675
-53.969
-63.7698
-44.1701
-53.9706
-63.7703
-44.1743
-53.9733
-63.7712
-44.1803
-53.977
-63.7724
-44.1886
-53.9822
-63.7741
-44.1995
-53.9895
-63.7761
-44.2144
-54
-63.7781
-44.2373
-54.0154
-63.7783
-44.2831
-54.0379
-63.7716
-44.3925
-54.0585
-63.7422
-44.7126
-54.0677
-63.6582
)
;
    }
    water_left_surface
    {
        type            calculated;
        value           nonuniform List<scalar> 
42
(
33483.7
33483.7
33483.7
33483.7
33483.7
33483.7
23796.9
23796.9
23796.9
23796.9
23796.9
23796.9
14599.6
14599.6
14599.6
14599.6
14599.6
14599.6
7567.37
7567.37
7567.38
7567.38
7567.38
7567.39
2703.49
2703.54
2703.53
2703.54
2703.54
2703.58
-60.739
-60.7311
-60.7315
-60.7322
-60.732
-60.7335
-468.35
-468.351
-468.351
-468.351
-468.351
-468.353
)
;
    }
    water_right_surface
    {
        type            calculated;
        value           nonuniform List<scalar> 
42
(
-4.94469
-4.94469
-4.94469
-4.94469
-4.94469
-4.94469
-14.7527
-14.7527
-14.7527
-14.7527
-14.7527
-14.7527
-24.5587
-24.5587
-24.5587
-24.5587
-24.5587
-24.5587
-34.3631
-34.3631
-34.3631
-34.3631
-34.3631
-34.3631
-44.1662
-44.1662
-44.1662
-44.1662
-44.1662
-44.1662
-53.9682
-53.9682
-53.9682
-53.9682
-53.9682
-53.9682
-63.7695
-63.7695
-63.7695
-63.7695
-63.7695
-63.7695
)
;
    }
    water_top_surface
    {
        type            calculated;
        value           nonuniform List<scalar> 
180
(
-1661.92
-1661.97
-1661.98
-1661.95
-1661.95
-1662.05
-125.183
-125.186
-125.185
-125.184
-125.185
-125.186
-88.3256
-88.3258
-88.3253
-88.3246
-88.3241
-88.3227
-75.2198
-75.2198
-75.2198
-75.2198
-75.2199
-75.2195
-74.4687
-74.469
-74.4689
-74.4688
-74.4687
-74.4682
-72.2383
-72.2383
-72.2381
-72.2379
-72.2377
-72.2374
-71.3599
-71.3599
-71.3599
-71.3599
-71.3599
-71.36
-69.5211
-69.521
-69.5211
-69.5212
-69.5213
-69.5215
-68.6715
-68.6715
-68.6715
-68.6715
-68.6715
-68.6715
-68.67
-68.67
-68.67
-68.67
-68.67
-68.67
-68.6701
-68.6701
-68.6701
-68.6701
-68.6701
-68.6701
-68.6712
-68.6712
-68.6712
-68.6712
-68.6712
-68.6712
-68.67
-68.67
-68.67
-68.67
-68.67
-68.67
-68.67
-68.67
-68.67
-68.67
-68.67
-68.67
-68.67
-68.67
-68.67
-68.67
-68.67
-68.67
-68.67
-68.67
-68.67
-68.67
-68.67
-68.67
-68.67
-68.67
-68.67
-68.67
-68.67
-68.67
-68.6702
-68.6702
-68.6702
-68.6702
-68.6702
-68.6702
-68.67
-68.67
-68.67
-68.67
-68.67
-68.67
-68.67
-68.67
-68.67
-68.67
-68.67
-68.67
-68.67
-68.67
-68.67
-68.67
-68.67
-68.67
-68.67
-68.67
-68.67
-68.67
-68.67
-68.67
-68.67
-68.67
-68.67
-68.67
-68.67
-68.67
-68.67
-68.67
-68.67
-68.67
-68.67
-68.67
-68.67
-68.67
-68.67
-68.67
-68.67
-68.67
-68.67
-68.67
-68.67
-68.67
-68.67
-68.67
-68.67
-68.67
-68.67
-68.67
-68.67
-68.67
-68.67
-68.67
-68.67
-68.67
-68.67
-68.67
-68.67
-68.67
-68.67
-68.67
-68.67
-68.67
-68.67
-68.67
-68.67
-68.67
-68.67
-68.67
)
;
    }
}


// ************************************************************************* //
