/*--------------------------------*- C++ -*----------------------------------*\
| =========                 |                                                 |
| \\      /  F ield         | OpenFOAM: The Open Source CFD Toolbox           |
|  \\    /   O peration     | Version:  v1612+                                |
|   \\  /    A nd           | Web:      www.OpenFOAM.com                      |
|    \\/     M anipulation  |                                                 |
\*---------------------------------------------------------------------------*/
FoamFile
{
    version     2.0;
    format      ascii;
    class       surfaceScalarField;
    location    "1.5";
    object      phi;
}
// * * * * * * * * * * * * * * * * * * * * * * * * * * * * * * * * * * * * * //

dimensions      [0 3 -1 0 0 0 0];

internalField   nonuniform List<scalar> 
2916
(
5.71509e-08
0.413474
-0.413474
3.37137e-07
0.413476
-0.413476
5.9889e-07
0.413475
-0.413476
9.99722e-07
0.413475
-0.413476
1.01486e-06
0.413476
-0.413476
0.413475
-0.413474
7.03001e-07
0.934046
-0.520572
1.45637e-06
0.93405
-0.520575
1.64719e-06
0.934049
-0.520573
1.42745e-06
0.934048
-0.520572
1.2069e-06
0.934047
-0.520572
0.934045
-0.520569
1.11921e-06
1.46159
-0.527542
2.8157e-06
1.46159
-0.527544
1.34456e-06
1.46159
-0.52754
1.91434e-07
1.46159
-0.527539
4.77945e-07
1.46159
-0.52754
1.46158
-0.527535
-2.81125e-06
2.04926
-0.587675
-1.83194e-08
2.04927
-0.58768
-2.53527e-06
2.04927
-0.587674
-4.26086e-06
2.04926
-0.587674
-2.92037e-06
2.04926
-0.587677
2.04925
-0.587677
-1.59594e-05
2.64901
-0.599733
-1.03643e-05
2.64902
-0.599753
-9.61904e-06
2.64901
-0.599749
-9.46479e-06
2.64901
-0.599749
-5.77858e-06
2.64901
-0.599754
2.64901
-0.599757
-2.91206e-05
3.31144
-0.662393
-1.81908e-05
3.31145
-0.662445
-1.1761e-05
3.31145
-0.662442
-9.01282e-06
3.31145
-0.66244
-3.3055e-06
3.31145
-0.662443
3.31144
-0.662441
-3.01589e-05
3.82391
-0.512447
-2.16776e-05
3.82395
-0.512504
-9.7944e-06
3.82395
-0.512508
-3.54801e-06
3.82395
-0.512505
4.6521e-07
3.82395
-0.512505
3.82395
-0.512501
-2.13762e-05
4.3537
-0.529771
-1.58099e-05
4.35375
-0.529811
-4.53859e-06
4.35375
-0.529814
-5.6942e-07
4.35375
-0.529807
-1.41197e-06
4.35376
-0.529809
4.35375
-0.529809
-1.95531e-05
5.16895
-0.815229
-1.52794e-05
5.16901
-0.815265
-9.29061e-06
5.169
-0.81526
-7.44638e-06
5.169
-0.815255
-3.52605e-06
5.16903
-0.81527
5.169
-0.815254
-5.06972e-05
5.54095
-0.371949
-2.22289e-05
5.54111
-0.372128
-1.61512e-05
5.5411
-0.3721
-1.14803e-05
5.5411
-0.372103
1.70368e-05
5.54113
-0.372131
5.54104
-0.372024
-6.75219e-05
3.96182
1.5792
-3.94652e-05
3.96213
1.57895
-3.5803e-05
3.96214
1.57895
-2.33692e-05
3.96215
1.57894
2.11484e-05
3.96211
1.57897
3.96192
1.57914
-0.000522929
3.96235
-0.000239252
3.96184
6.81832e-05
3.96184
0.000360471
3.96186
0.000575631
3.9619
3.9625
1.1309e-06
0.461449
-0.874925
1.1162e-06
0.461453
-0.874929
8.16214e-07
0.461452
-0.874927
5.95003e-07
0.461451
-0.874926
4.92541e-07
0.46145
-0.874926
0.461448
-0.874922
2.94061e-06
0.913715
-0.972841
3.26569e-06
0.913726
-0.972848
1.62492e-06
0.913724
-0.972844
1.16318e-07
0.913722
-0.972842
1.02748e-06
0.913721
-0.972843
0.913717
-0.972836
7.05722e-06
1.41286
-1.02669
6.90011e-06
1.41287
-1.02669
1.79145e-06
1.41287
-1.02668
-1.20648e-06
1.41287
-1.02668
4.43588e-07
1.41286
-1.02669
1.41286
-1.02667
-3.1521e-06
2.05036
-1.22518
1.20316e-07
2.05039
-1.2252
-5.10873e-07
2.05039
-1.22519
-3.61421e-07
2.05038
-1.22519
1.2509e-06
2.05038
-1.22519
2.05036
-1.22518
-1.11401e-05
2.65064
-1.2
-8.8568e-06
2.65069
-1.20005
-1.66977e-06
2.65068
-1.20006
-4.29378e-08
2.65068
-1.20005
-2.21115e-06
2.65068
-1.20005
2.65067
-1.20006
1.16186e-06
3.48294
-1.49469
2.99414e-06
3.48301
-1.49476
1.05493e-05
3.483
-1.49476
1.1822e-05
3.48299
-1.49475
4.57159e-06
3.483
-1.49475
3.48297
-1.49474
1.64675e-05
4.45807
-1.48759
4.4614e-07
4.45805
-1.48753
1.6457e-06
4.45805
-1.48756
1.56429e-06
4.45805
-1.48756
-9.18006e-06
4.45807
-1.48757
4.45803
-1.48757
-4.68068e-05
5.4116
-1.48326
-7.0228e-05
5.41158
-1.48332
-6.03166e-05
5.41152
-1.48329
-4.50624e-05
5.41151
-1.48328
-4.33025e-05
5.41158
-1.48332
5.41149
-1.48332
0.000119093
6.74821
-2.15195
6.07656e-05
6.74844
-2.15207
4.46236e-05
6.74833
-2.15205
4.13583e-05
6.74832
-2.15205
-6.58012e-05
6.74858
-2.15216
6.74826
-2.15209
3.96357e-05
6.41041
-0.0341863
6.76483e-05
6.41066
-0.0343771
-4.785e-05
6.41062
-0.034273
-0.000169739
6.41062
-0.0342894
-0.000107616
6.41094
-0.0345531
6.41049
-0.0343609
4.99144e-05
4.54661
3.44295
-4.76149e-05
4.54703
3.44268
-0.000173333
4.547
3.44269
-0.000303917
4.54703
3.44266
-0.000306435
4.5473
3.44262
4.54644
3.44288
-0.000246305
8.5092
-5.78465e-05
8.50869
-4.01752e-05
8.50881
6.69105e-05
8.50878
0.000606543
8.50865
8.50955
5.58226e-06
0.430311
-1.30524
4.67392e-06
0.430319
-1.30525
3.12847e-06
0.430317
-1.30524
1.62365e-06
0.430317
-1.30524
1.42182e-06
0.430316
-1.30524
0.430317
-1.30524
8.24026e-06
0.83989
-1.38243
7.07644e-06
0.839912
-1.38244
2.92265e-06
0.839912
-1.38243
-7.3738e-07
0.83991
-1.38243
8.05521e-07
0.839907
-1.38244
0.839903
-1.38242
2.51514e-06
1.41472
-1.60152
4.92708e-07
1.41475
-1.60153
2.7395e-08
1.41475
-1.60152
-1.62584e-06
1.41475
-1.60152
-2.89372e-06
1.41475
-1.60152
1.41474
-1.60152
6.44613e-06
2.37399
-2.18446
6.18665e-06
2.37407
-2.18452
1.56989e-05
2.37405
-2.1845
1.57777e-05
2.37405
-2.18449
2.57121e-06
2.37405
-2.18448
2.37403
-2.18447
5.34689e-05
2.96878
-1.79485
5.73066e-05
2.96893
-1.79492
6.56497e-05
2.96893
-1.79494
5.42979e-05
2.96894
-1.79493
1.25702e-05
2.96895
-1.79491
2.96894
-1.79496
5.03626e-05
3.26708
-1.79305
8.34475e-05
3.26722
-1.79309
8.56325e-05
3.26721
-1.79305
5.74206e-05
3.26722
-1.793
6.68665e-06
3.26723
-1.79298
3.26715
-1.79294
-2.74482e-05
3.28374
-1.50422
-1.3124e-05
3.28382
-1.50414
-1.61293e-05
3.28377
-1.50411
-4.67586e-05
3.28377
-1.50408
-9.96032e-05
3.28386
-1.50414
3.28373
-1.50425
5.23437e-07
3.55786
-1.75738
-0.000167854
3.558
-1.75732
-0.000182418
3.55785
-1.75735
-0.000111653
3.55783
-1.7574
-0.000110301
3.55809
-1.75755
3.55796
-1.75765
5.51198e-05
3.046
-1.64015
-3.35041e-05
3.0462
-1.64018
1.15605e-05
3.04594
-1.6402
9.47415e-05
3.0459
-1.64021
6.61755e-06
3.04636
-1.64035
3.04622
-1.64035
-4.974e-05
2.62162
0.390248
-3.56861e-05
2.62168
0.39014
-3.00764e-05
2.62143
0.390234
-8.9281e-05
2.62142
0.390259
-9.7775e-05
2.62189
0.38993
2.62156
0.39021
0.000128101
1.31801
4.74643
-6.4943e-05
1.31824
4.74632
-0.000331695
1.31809
4.7463
-0.000604855
1.31812
4.74623
-0.000465991
1.31842
4.74595
1.31766
4.74632
7.81925e-05
9.82713
9.76779e-05
9.82691
-1.01084e-05
9.82701
-1.42716e-05
9.82691
0.000293402
9.82676
9.8275
6.83653e-06
0.205379
-1.51063
7.19113e-06
0.205386
-1.51063
5.84963e-06
0.205387
-1.51063
3.2532e-06
0.205387
-1.51063
3.16635e-06
0.205385
-1.51063
0.205395
-1.51063
-3.21504e-07
0.867979
-2.04503
5.88942e-07
0.867995
-2.04505
3.69227e-06
0.867995
-2.04505
-3.19611e-07
0.867994
-2.04504
-1.2483e-05
0.867992
-2.04503
0.867988
-2.04503
-1.73235e-05
1.76495
-2.49847
-1.40219e-05
1.76498
-2.49852
-5.82e-07
1.76499
-2.49853
-2.7647e-06
1.765
-2.49852
-2.97456e-05
1.76501
-2.49852
1.76503
-2.49859
1.96954e-05
1.47953
-1.89906
3.76056e-05
1.47966
-1.89921
3.60538e-05
1.4797
-1.89921
2.61494e-05
1.47973
-1.89921
1.32763e-05
1.47976
-1.89921
1.47978
-1.89921
9.69458e-05
1.23803
-1.55344
0.000149349
1.23826
-1.55357
0.000122448
1.23833
-1.55355
7.85799e-05
1.23836
-1.55352
4.92546e-05
1.23839
-1.55351
1.23838
-1.55351
6.22542e-06
0.428435
-0.983458
-4.36879e-06
0.428612
-0.983435
6.30315e-06
0.428646
-0.983363
-1.86255e-06
0.428666
-0.983295
-3.3139e-05
0.42873
-0.983293
0.428739
-0.983335
-0.000133914
0.00562864
-1.08127
-9.50431e-05
0.00561275
-1.08117
-1.86085e-05
0.00558702
-1.08113
5.47172e-05
0.00560874
-1.0811
2.21848e-05
0.00578196
-1.08116
0.00584434
-1.08133
-1.55123e-05
-0.138107
-1.61362
-4.2566e-05
-0.138217
-1.61346
-4.73099e-05
-0.138264
-1.61349
-5.68135e-05
-0.13825
-1.61354
-0.000122862
-0.138075
-1.61362
-0.13812
-1.61381
0.00010926
-0.583653
-1.19471
2.35774e-05
-0.583717
-1.19459
6.30144e-05
-0.583814
-1.19468
9.00973e-05
-0.583775
-1.19471
-0.000103898
-0.583479
-1.19474
-0.583658
-1.19492
0.00032081
-1.10992
0.916194
0.000224409
-1.10974
0.916252
0.000270566
-1.10986
0.916237
0.000264989
-1.10981
0.916302
-9.65501e-05
-1.10942
0.916236
-1.1099
0.916357
0.000440631
-1.56837
5.20444
0.000372715
-1.56788
5.20453
0.00033005
-1.56802
5.2045
0.000176395
-1.56796
5.20453
-7.6561e-05
-1.56758
5.20436
-1.56845
5.20479
0.000131767
8.25863
0.000219388
8.25894
0.000190171
8.25903
0.000118745
8.25902
0.000246473
8.25906
8.2593
-3.53157e-07
-0.00111641
0.00111676
-1.06932e-07
-0.00111648
0.00111686
-1.9106e-08
-0.00111646
0.00111688
2.89475e-08
-0.00111647
0.00111688
4.15117e-08
-0.00111645
0.00111689
-0.00111638
0.00111687
-3.68e-07
-0.002274
0.00115832
-9.41754e-08
-0.00227418
0.0011584
5.73837e-09
-0.00227416
0.00115841
7.06365e-08
-0.00227417
0.00115841
1.19445e-07
-0.00227416
0.00115842
-0.00227404
0.00115839
-4.63615e-07
-0.0035107
0.00123752
-9.50152e-08
-0.00351094
0.00123761
5.00051e-08
-0.00351091
0.00123762
1.33207e-07
-0.0035109
0.00123763
1.8524e-07
-0.00351087
0.00123765
-0.00351067
0.00123765
-5.7831e-07
-0.00485548
0.00134585
-6.95881e-08
-0.00485575
0.00134599
1.3785e-07
-0.00485568
0.00134602
2.43083e-07
-0.00485564
0.00134605
2.9441e-07
-0.0048556
0.00134609
-0.0048553
0.00134612
-5.85776e-07
-0.00632175
0.00146755
4.86359e-08
-0.00632199
0.00146783
3.05681e-07
-0.0063219
0.0014679
4.0952e-07
-0.00632183
0.00146797
4.50141e-07
-0.00632179
0.00146804
-0.00632142
0.0014681
-3.484e-07
-0.00789929
0.00157887
3.25884e-07
-0.0078995
0.00157942
5.14974e-07
-0.00789943
0.00157958
5.54554e-07
-0.0078994
0.00157969
5.59314e-07
-0.00789943
0.00157977
-0.00789907
0.00157979
5.94851e-08
-0.00954355
0.00164538
5.31262e-07
-0.0095438
0.00164624
5.34305e-07
-0.00954383
0.00164648
4.28655e-07
-0.00954391
0.00164658
4.18722e-07
-0.00954411
0.00164656
-0.00954387
0.0016464
4.719e-07
-0.0110296
0.00148669
5.01885e-07
-0.01103
0.00148785
1.60499e-07
-0.0110302
0.0014881
-1.11707e-07
-0.0110305
0.00148808
-9.47911e-08
-0.0110309
0.00148785
-0.0110309
0.00148738
6.07426e-07
-0.0117968
0.000767398
5.88749e-08
-0.0117976
0.000768732
-6.45732e-07
-0.011798
0.000768923
-1.07539e-06
-0.0117985
0.000768695
-9.18342e-07
-0.0117991
0.000768177
-0.0117993
0.000767341
4.0401e-08
-0.01096
-0.00083661
-9.22515e-07
-0.0109611
-0.000835858
-1.72387e-06
-0.0109616
-0.000835922
-2.07629e-06
-0.0109622
-0.000836314
-1.67047e-06
-0.0109629
-0.000836956
-0.0109634
-0.000837818
-1.05356e-06
-0.00769687
-0.00326232
-1.95225e-06
-0.00769754
-0.00326333
-2.45954e-06
-0.00769779
-0.00326389
-2.58798e-06
-0.00769799
-0.00326454
-2.03921e-06
-0.0076984
-0.0032654
-0.00769904
-0.00326647
-1.07276e-06
-0.0076962
-1.13992e-06
-0.0076979
-9.45114e-07
-0.00769829
-5.83533e-07
-0.00769856
-2.07774e-07
-0.00769887
-0.0076991
-2.68372e-07
-0.00112387
0.00224128
-6.18965e-08
-0.00112393
0.0022414
1.54557e-08
-0.00112392
0.00224141
6.68938e-08
-0.00112392
0.00224142
1.04023e-07
-0.00112391
0.00224142
-0.00112384
0.00224131
-2.5894e-07
-0.00229703
0.00233244
-3.56166e-08
-0.0022972
0.00233255
4.6875e-08
-0.00229718
0.00233255
1.09945e-07
-0.00229719
0.00233255
1.85382e-07
-0.00229718
0.00233255
-0.00229705
0.00233243
-3.2207e-07
-0.00356533
0.00250698
-2.49132e-08
-0.00356556
0.00250711
8.6708e-08
-0.00356552
0.00250711
1.72055e-07
-0.00356552
0.00250712
2.59677e-07
-0.00356549
0.00250713
-0.00356527
0.00250703
-3.98575e-07
-0.00496326
0.00274534
-1.33378e-10
-0.0049635
0.00274555
1.61226e-07
-0.00496345
0.00274557
2.7321e-07
-0.00496341
0.0027456
3.93817e-07
-0.00496338
0.00274564
-0.00496306
0.00274555
-4.00231e-07
-0.00650099
0.0030073
9.97346e-08
-0.00650121
0.00300767
2.85452e-07
-0.00650114
0.00300775
4.20186e-07
-0.00650109
0.00300783
5.76837e-07
-0.00650106
0.00300789
-0.00650069
0.00300779
-2.74546e-07
-0.00812151
0.00320166
2.12295e-07
-0.00812169
0.00320235
3.71509e-07
-0.00812164
0.00320252
4.94882e-07
-0.00812163
0.00320263
6.72333e-07
-0.00812168
0.00320267
-0.00812135
0.00320247
-4.79652e-08
-0.00963313
0.00315907
2.49268e-07
-0.00963335
0.00316015
2.88772e-07
-0.00963339
0.0031604
3.38247e-07
-0.00963352
0.00316046
5.18673e-07
-0.00963376
0.00316036
-0.0096336
0.00315991
1.4812e-07
-0.0107901
0.00264503
1.00456e-07
-0.0107904
0.00264645
-1.04084e-07
-0.0107906
0.00264671
-1.91113e-07
-0.0107909
0.00264662
-3.63797e-08
-0.0107914
0.00264626
-0.0107916
0.00264546
1.82174e-08
-0.011453
0.0014309
-3.63361e-07
-0.0114533
0.00143241
-7.65173e-07
-0.0114536
0.00143261
-9.79271e-07
-0.0114542
0.00143234
-7.92002e-07
-0.0114551
0.00143172
-0.0114557
0.00143064
-2.83356e-07
-0.0111527
-0.00113679
-1.04734e-06
-0.0111532
-0.00113538
-1.72006e-06
-0.0111536
-0.00113543
-2.07716e-06
-0.0111542
-0.00113604
-1.74723e-06
-0.0111552
-0.00113717
-0.0111562
-0.00113885
-1.34228e-06
-0.0078775
-0.00653668
-1.71798e-06
-0.00787784
-0.00653849
-1.91301e-06
-0.00787807
-0.00653931
-1.98403e-06
-0.00787848
-0.00654017
-1.63163e-06
-0.0078793
-0.00654144
-0.00788053
-0.00654324
-9.65437e-07
-0.0155732
-4.01629e-07
-0.0155762
2.93281e-07
-0.0155769
8.43058e-07
-0.0155773
9.26296e-07
-0.0155779
-0.0155783
-2.14001e-07
-0.00108573
0.00332755
-2.44487e-08
-0.00108579
0.00332772
4.72367e-08
-0.00108577
0.00332773
9.53381e-08
-0.00108577
0.00332773
1.29746e-07
-0.00108576
0.00332773
-0.00108568
0.00332756
-2.01439e-07
-0.00223399
0.0034815
-1.34067e-09
-0.00223413
0.00348168
7.48345e-08
-0.00223412
0.00348167
1.3387e-07
-0.00223412
0.00348167
2.03987e-07
-0.0022341
0.00348167
-0.00223397
0.00348149
-2.47122e-07
-0.00350982
0.00378378
6.08725e-09
-0.00351002
0.00378399
1.02878e-07
-0.00350999
0.00378399
1.80118e-07
-0.00350998
0.00378399
2.64302e-07
-0.00350996
0.00378401
-0.00350974
0.00378383
-2.89627e-07
-0.00498084
0.00421766
2.76916e-08
-0.00498106
0.00421795
1.54601e-07
-0.00498102
0.00421797
2.52368e-07
-0.00498099
0.004218
3.71237e-07
-0.00498097
0.00421803
-0.00498068
0.00421785
-2.55494e-07
-0.00672303
0.00475111
9.62752e-08
-0.00672323
0.00475158
2.25544e-07
-0.00672319
0.00475165
3.42056e-07
-0.00672318
0.00475172
4.98835e-07
-0.00672319
0.00475176
-0.00672287
0.00475154
-1.17048e-07
-0.00884976
0.00533014
1.58978e-07
-0.00884998
0.00533092
2.43081e-07
-0.00884998
0.00533107
3.48568e-07
-0.00885004
0.00533114
5.26759e-07
-0.00885016
0.00533113
-0.00884989
0.00533075
4.11714e-08
-0.0115865
0.00589725
1.298e-07
-0.0115868
0.0058984
9.75472e-08
-0.0115868
0.00589859
1.45306e-07
-0.011587
0.00589858
3.13667e-07
-0.0115873
0.0058984
-0.0115872
0.00589771
7.06505e-08
-0.0149675
0.00602694
-5.86496e-08
-0.0149679
0.00602845
-2.31813e-07
-0.014968
0.00602864
-2.78661e-07
-0.0149684
0.00602847
-1.28921e-07
-0.0149689
0.00602803
-0.0149688
0.00602697
-1.36806e-07
-0.0182759
0.00473965
-3.58507e-07
-0.0182764
0.00474141
-5.96379e-07
-0.0182765
0.00474161
-7.08147e-07
-0.0182769
0.00474128
-5.3666e-07
-0.0182775
0.00474054
-0.0182774
0.00473914
-8.71296e-07
-0.0191681
-0.000243707
-7.42034e-07
-0.0191686
-0.000242642
-6.3662e-07
-0.0191688
-0.000242653
-5.25539e-07
-0.0191692
-0.000243132
-3.1003e-07
-0.0191699
-0.000244076
-0.01917
-0.000245567
-1.57046e-06
-0.0149391
-0.0107639
-9.2733e-07
-0.0149404
-0.0107663
-2.17193e-07
-0.0149407
-0.0107671
2.49254e-07
-0.014941
-0.0107678
3.87179e-07
-0.0149415
-0.0107688
-0.014942
-0.0107702
-1.37246e-06
-0.0305105
2.51858e-07
-0.0305172
1.98594e-06
-0.0305184
2.99735e-06
-0.0305185
2.76316e-06
-0.0305185
-0.0305173
-1.70113e-07
-0.000992691
0.00432071
-5.47728e-09
-0.000992743
0.00432095
5.93484e-08
-0.000992734
0.00432095
1.02356e-07
-0.00099273
0.00432095
1.32001e-07
-0.000992717
0.00432094
-0.000992645
0.00432072
-1.54736e-07
-0.0020617
0.00455121
1.73448e-08
-0.00206183
0.00455145
8.30301e-08
-0.00206182
0.00455145
1.35921e-07
-0.00206182
0.00455145
1.9795e-07
-0.00206181
0.00455144
-0.00206168
0.00455121
-1.91618e-07
-0.00329149
0.00501442
1.17813e-08
-0.00329167
0.0050147
9.32439e-08
-0.00329166
0.00501469
1.59946e-07
-0.00329165
0.0050147
2.40338e-07
-0.00329164
0.00501471
-0.00329144
0.00501446
-2.26582e-07
-0.00478063
0.00570789
4.13438e-09
-0.00478085
0.00570825
1.01459e-07
-0.00478085
0.00570826
1.96012e-07
-0.00478084
0.00570828
3.1216e-07
-0.00478083
0.0057083
-0.00478057
0.00570802
-2.14451e-07
-0.0066279
0.00659971
-1.58654e-09
-0.00662821
0.0066002
1.08792e-07
-0.00662823
0.00660024
2.3453e-07
-0.00662826
0.00660029
3.86028e-07
-0.00662829
0.00660032
-0.006628
0.00659997
-1.71623e-07
-0.00886615
0.00756972
-3.65935e-08
-0.00886662
0.0075704
6.8187e-08
-0.00886673
0.00757049
2.06473e-07
-0.00886685
0.00757053
3.74744e-07
-0.00886699
0.00757052
-0.00886671
0.00757003
-2.08306e-07
-0.0113601
0.00839222
-1.72856e-07
-0.0113608
0.00839313
-6.84284e-08
-0.0113611
0.00839324
8.15863e-08
-0.0113613
0.00839323
2.17494e-07
-0.0113616
0.00839312
-0.0113613
0.00839242
-4.85953e-07
-0.0138821
0.00854979
-4.48186e-07
-0.0138833
0.00855094
-2.82785e-07
-0.0138836
0.00855107
-9.90902e-08
-0.013884
0.00855098
2.94206e-08
-0.0138843
0.00855073
-0.013884
0.00854982
-9.18218e-07
-0.0161632
0.00702162
-6.03577e-07
-0.0161646
0.0070229
-2.19322e-07
-0.0161649
0.00702306
6.8048e-08
-0.0161653
0.00702291
1.98052e-07
-0.0161656
0.00702252
-0.0161653
0.00702146
-1.15533e-06
-0.0182127
0.00180736
-3.10208e-07
-0.0182148
0.00180817
4.79842e-07
-0.0182152
0.0018082
9.3173e-07
-0.0182153
0.00180795
9.12185e-07
-0.0182156
0.00180738
-0.0182153
0.0018063
-3.4668e-07
-0.0129954
-0.0159799
1.02065e-06
-0.0129986
-0.015982
2.34716e-06
-0.0129993
-0.0159827
3.01466e-06
-0.0129993
-0.0159831
2.49875e-06
-0.0129989
-0.0159837
-0.0129983
-0.0159843
5.29805e-08
-0.0435048
1.68716e-06
-0.0435162
3.24357e-06
-0.0435184
3.90136e-06
-0.0435177
3.01148e-06
-0.0435161
-0.0435127
-5.53337e-06
-0.980197
-0.530424
-1.58014e-07
-0.980205
-0.530433
1.53399e-06
-0.980203
-0.530427
2.74385e-06
-0.980199
-0.530429
2.0646e-06
-0.980198
-0.530429
-0.980209
-0.530419
1.29016e-05
2.40511
-3.38532
1.29616e-05
2.40512
-3.38532
1.03173e-05
2.40511
-3.38531
1.77267e-05
2.40511
-3.38532
2.38702e-05
2.40512
-3.38532
2.4051
-3.38529
2.05806e-05
-4.5421
1.81597e-05
-4.5421
1.6759e-05
-4.54209
2.42866e-05
-4.5421
3.04513e-05
-4.5421
-4.54207
-2.82927e-05
-2.58814
0.0127168
-1.54041e-05
-2.5882
0.0127085
2.37578e-05
-2.58822
0.0127036
3.67636e-05
-2.58819
0.0127126
-1.84206e-05
-2.58813
0.0127294
-2.58822
0.0127518
-3.9605e-05
-3.71591
-2.25751
-1.50653e-05
-3.71596
-2.25759
1.03147e-05
-3.71596
-2.25759
2.64499e-05
-3.71594
-2.25758
5.43536e-05
-3.71593
-2.25755
-3.71594
-2.25751
1.08848e-05
-2.38705
-1.82168e-05
-2.38706
-2.35899e-05
-2.38706
-1.5619e-05
-2.38706
2.1074e-05
-2.38706
-2.38705
-4.85849e-06
-2.24919
-0.236555
1.78045e-05
-2.24928
-0.236554
2.6111e-05
-2.24929
-0.23654
3.89551e-05
-2.2493
-0.236526
5.84128e-05
-2.24932
-0.236491
-2.24935
-0.236425
-1.73879e-05
-2.4325
-2.07418
3.32907e-05
-2.43257
-2.07434
5.66116e-05
-2.43256
-2.07434
7.11409e-05
-2.43256
-2.07434
9.73144e-05
-2.43258
-2.07431
-2.43255
-2.07421
1.19462e-05
-1.33955
3.56259e-06
-1.33959
2.13481e-06
-1.3396
7.0107e-06
-1.3396
4.46296e-06
-1.33959
-1.33959
0.000130309
-1.33629
-0.79946
0.000169928
-1.33642
-0.79939
0.000157418
-1.3364
-0.799334
0.000128525
-1.3364
-0.799298
0.000100013
-1.33642
-0.799251
-1.33641
-0.799124
9.50313e-05
-1.55018
-1.86038
6.75301e-05
-1.55019
-1.86055
3.46747e-05
-1.55017
-1.86054
1.71803e-05
-1.55017
-1.86055
2.42772e-05
-1.55018
-1.86055
-1.55016
-1.86043
-1.14727e-05
-0.91251
-5.79053e-06
-0.912556
-3.55911e-06
-0.912576
4.31316e-06
-0.912588
1.76225e-05
-0.912593
-0.912586
1.89665e-05
-1.0107
-1.34222
-8.21794e-06
-1.01072
-1.34222
-2.39154e-05
-1.0107
-1.34217
-4.33123e-05
-1.01067
-1.34213
-4.4574e-05
-1.01067
-1.3421
-1.01067
-1.342
3.95151e-05
-1.48232
-1.38881
8.27251e-06
-1.48229
-1.38894
-1.0092e-05
-1.48227
-1.38896
-6.46057e-06
-1.48224
-1.38898
-1.02496e-06
-1.48223
-1.389
-1.48222
-1.38889
-3.10993e-05
-0.552768
-3.06591e-05
-0.552812
-3.16542e-05
-0.552829
-2.00877e-05
-0.552845
7.66878e-06
-0.552858
-0.552839
-0.000117972
-0.933476
-1.39208
-8.85491e-05
-0.933406
-1.39227
-3.69622e-05
-0.933353
-1.39223
8.08927e-06
-0.933289
-1.39218
1.9227e-05
-0.93327
-1.39213
-0.933339
-1.39198
-4.81078e-05
-1.32385
-0.998389
-5.29438e-05
-1.32384
-0.998501
-3.39394e-05
-1.32382
-0.998511
1.81244e-06
-1.32379
-0.998515
3.53266e-05
-1.32378
-0.99852
-1.32377
-0.998423
-1.3529e-05
-0.432681
-1.62916e-05
-0.432721
-1.76521e-05
-0.432728
-1.07484e-05
-0.432734
3.13375e-06
-0.432737
-0.432703
-3.58191e-07
-1.23369
-1.23966
7.71463e-05
-1.23362
-1.2399
0.0001243
-1.23359
-1.23981
0.000156837
-1.23356
-1.23975
0.000118881
-1.23358
-1.23968
-1.23368
-1.23951
-2.46957e-05
-1.27226
-0.959797
-1.57926e-06
-1.27223
-0.959923
2.37861e-05
-1.27221
-0.959914
5.6528e-05
-1.27221
-0.959899
7.44021e-05
-1.27223
-0.959896
-1.27226
-0.959771
-2.13403e-05
-0.457269
-1.37772e-05
-0.457319
-9.474e-07
-0.457324
1.2432e-05
-0.457323
2.25566e-05
-0.457323
-0.457276
6.37171e-05
-1.16444
-1.68891
0.000126445
-1.16429
-1.68913
0.000147142
-1.1643
-1.68903
0.00014277
-1.16432
-1.68896
5.73252e-05
-1.16436
-1.68885
-1.16451
-1.68874
-2.7207e-06
-0.776002
-1.34823
5.22512e-05
-0.775887
-1.34838
7.17997e-05
-0.77588
-1.34835
8.11425e-05
-0.775895
-1.34834
9.06025e-05
-0.775919
-1.34835
-0.776012
-1.34818
-3.07311e-05
-0.538592
-1.75461e-05
-0.538653
-1.60265e-06
-0.538661
1.36909e-05
-0.538667
3.11585e-05
-0.538683
-0.538623
0.000141283
-0.722473
-2.16128
0.000113737
-0.722297
-2.1614
9.64428e-05
-0.722351
-2.16134
7.44778e-05
-0.722368
-2.16128
-6.26236e-05
-0.722342
-2.16112
-0.722584
-2.16115
2.07771e-05
-0.193405
-1.87732
3.35401e-05
-0.193256
-1.87744
1.91377e-06
-0.193266
-1.87741
-1.31789e-05
-0.193281
-1.87741
1.55855e-05
-0.193272
-1.87745
-0.19344
-1.87731
-2.45123e-05
-0.723929
-1.77091e-05
-0.723995
-1.80976e-05
-0.724008
-1.07927e-05
-0.72403
3.05275e-05
-0.724073
-0.724
0.000253769
1.0186
-2.26394
0.000164213
1.01879
-2.26385
0.000151079
1.01877
-2.26386
0.000113534
1.01887
-2.26381
-0.000195768
1.01904
-2.26361
1.01885
-2.26384
2.06584e-05
1.06885
-1.92759
-3.63924e-05
1.06904
-1.92763
-0.000101883
1.06905
-1.92762
-0.000120826
1.0691
-1.92763
-0.000139908
1.06926
-1.92765
1.06901
-1.92761
-4.75688e-05
-0.695637
-7.77302e-05
-0.695687
-0.000119766
-0.695701
-0.000125133
-0.69573
-3.30658e-05
-0.695785
-0.695732
0.00038085
3.93264
-0.992533
0.000337242
3.93297
-0.992238
0.000299178
3.93301
-0.992333
0.00018828
3.93321
-0.992377
-0.000240011
3.93347
-0.992298
3.93349
-0.992774
-1.7977e-06
2.71107
-0.706016
-3.62517e-05
2.71136
-0.705984
-9.24896e-05
2.71144
-0.705996
-0.00012331
2.71161
-0.705999
-0.000235769
2.71192
-0.705989
2.71167
-0.706035
-0.000102464
-0.137563
-0.000163249
-0.137576
-0.000215144
-0.137578
-0.000210863
-0.137585
-0.000121317
-0.137596
-0.137585
0.000247146
5.88436
1.38149
0.000342689
5.88496
1.38164
0.000414425
5.88505
1.38157
0.000336398
5.88519
1.38153
6.1103e-05
5.88552
1.38152
5.88536
1.38123
-9.91398e-05
3.71277
1.46568
-0.000103432
3.71322
1.46576
-0.000126079
3.71331
1.46577
-0.000167109
3.71346
1.46578
-0.00018908
3.71375
1.4658
3.71345
1.46568
-0.000145438
0.690516
-0.000186067
0.690584
-0.000219568
0.690603
-0.000212523
0.690622
-0.000116649
0.690653
0.690604
8.4589e-07
0.0399767
-0.21049
0.170513
3.42015e-06
0.0399794
-0.210506
0.170525
5.19637e-06
0.0399789
-0.210505
0.170525
5.30158e-06
0.0399783
-0.210502
0.170524
3.78165e-06
0.0399777
-0.210498
0.170522
0.0399744
-0.210481
0.170511
-1.53496e-06
0.124457
-0.267936
0.183458
-1.20375e-07
0.124463
-0.267953
0.183469
1.48955e-06
0.124463
-0.267955
0.18347
2.51911e-06
0.124463
-0.267954
0.183469
2.69258e-06
0.124462
-0.267952
0.183468
0.124455
-0.267935
0.183458
-1.07916e-06
-0.126918
0.0830094
-5.74773e-07
-0.126925
0.0830139
1.9303e-07
-0.126926
0.0830144
8.4969e-07
-0.126926
0.0830143
1.16949e-06
-0.126926
0.0830141
-0.126919
0.0830099
2.7693e-06
0.0392263
-0.249719
7.42071e-06
0.0392287
-0.249738
1.05345e-05
0.0392276
-0.249735
1.05046e-05
0.0392263
-0.249728
7.21351e-06
0.0392251
-0.249719
0.039221
-0.249695
-3.01468e-06
0.173927
-0.402632
-8.85158e-07
0.173936
-0.402661
1.57566e-06
0.173936
-0.402665
3.54913e-06
0.173935
-0.402664
4.5983e-06
0.173934
-0.402661
0.173924
-0.402633
-2.04316e-06
-0.197173
-1.48075e-06
-0.197186
-3.91761e-07
-0.197189
9.14636e-07
-0.197189
2.03987e-06
-0.197189
-0.197176
7.87553e-06
0.021806
-0.271532
1.71293e-05
0.0218055
-0.271552
2.2617e-05
0.0218028
-0.271543
2.22691e-05
0.0217999
-0.271527
1.51914e-05
0.0217974
-0.271509
0.0217939
-0.271473
-5.99843e-06
0.23825
-0.619069
-3.1005e-06
0.238262
-0.61912
-1.58273e-07
0.238261
-0.619126
3.68744e-06
0.238258
-0.619126
7.74599e-06
0.238255
-0.619123
0.238241
-0.619072
-4.42866e-06
-0.313697
-4.0049e-06
-0.313723
-2.50828e-06
-0.313728
-3.54865e-08
-0.313731
3.07269e-06
-0.313731
-0.313708
1.98435e-05
-0.010325
-0.261226
3.69511e-05
-0.0103288
-0.261241
4.52208e-05
-0.0103358
-0.261214
4.55915e-05
-0.0103429
-0.261184
3.38219e-05
-0.0103498
-0.261148
-0.0103575
-0.261081
-1.1723e-05
0.323922
-0.953305
-1.06833e-05
0.323936
-0.953385
-9.60021e-06
0.323933
-0.953395
-3.55927e-06
0.323928
-0.953402
9.48703e-06
0.323922
-0.953407
0.323898
-0.953318
-1.10888e-05
-0.504653
-1.20414e-05
-0.504702
-1.14353e-05
-0.504713
-6.9035e-06
-0.504722
3.48753e-06
-0.50473
-0.504684
4.54212e-05
0.139584
-0.400855
5.39013e-05
0.139621
-0.40087
5.29989e-05
0.139617
-0.40083
4.46992e-05
0.139618
-0.400793
1.93173e-05
0.139626
-0.400747
0.139587
-0.400648
-2.36727e-05
0.509775
-1.32347
-2.35294e-05
0.50982
-1.32358
-2.56936e-05
0.509817
-1.32359
-2.3147e-05
0.509816
-1.3236
-3.82804e-06
0.509819
-1.32362
0.509761
-1.3235
-3.27049e-05
-0.725529
-3.66286e-05
-0.725607
-3.84673e-05
-0.725626
-3.17694e-05
-0.725644
-4.02391e-06
-0.725669
-0.725603
0.000112788
0.980522
0.00014759
0.980733
0.000158287
0.980731
0.000138296
0.980757
8.38409e-05
0.98083
0.980664
-1.52424e-05
1.12274
-5.28969e-06
1.1229
-1.23791e-05
1.12291
-1.58737e-05
1.12293
-3.64077e-06
1.123
1.12285
-6.57819e-05
-7.57581e-05
-8.44272e-05
-7.8246e-05
-2.84248e-05
-1.11198e-07
0.00504713
-0.000726025
1.21758e-08
0.0050474
-0.000726058
6.17835e-08
0.0050474
-0.000726052
9.43489e-08
0.0050474
-0.00072605
1.19752e-07
0.00504739
-0.000726042
0.00504713
-0.00072599
-4.47585e-08
0.00551725
-0.000469847
2.5802e-08
0.00551754
-0.000469868
5.51266e-08
0.00551754
-0.000469865
7.60305e-08
0.00551753
-0.000469862
9.51556e-08
0.00551752
-0.000469857
0.00551723
-0.000469822
2.2593e-09
-0.000169002
2.02642e-08
-0.00016901
2.82277e-08
-0.000169008
3.70865e-08
-0.000169007
5.03347e-08
-0.000169005
-0.000168992
-1.00938e-07
0.00534456
-0.0015188
2.65052e-08
0.00534484
-0.00151888
7.82118e-08
0.00534484
-0.00151888
1.21477e-07
0.00534484
-0.00151888
1.7509e-07
0.00534483
-0.00151888
0.00534455
-0.00151879
-3.78058e-08
0.00586541
-0.000990318
3.66392e-08
0.00586572
-0.000990369
6.78861e-08
0.00586571
-0.000990365
9.80566e-08
0.0058657
-0.000990363
1.36193e-07
0.00586569
-0.000990358
0.00586538
-0.000990299
5.08151e-09
-0.000358992
2.43866e-08
-0.000359008
3.39759e-08
-0.000359007
4.70584e-08
-0.000359004
6.72732e-08
-0.000359002
-0.000358979
-1.22682e-07
0.00595792
-0.00246163
2.31814e-08
0.00595825
-0.00246176
8.78178e-08
0.00595824
-0.00246175
1.45135e-07
0.00595824
-0.00246175
2.14489e-07
0.00595824
-0.00246174
0.00595793
-0.0024616
-3.97362e-08
0.00659484
-0.00162679
4.53368e-08
0.00659519
-0.00162687
8.4099e-08
0.00659518
-0.00162686
1.23507e-07
0.00659517
-0.00162686
1.71399e-07
0.00659516
-0.00162685
0.0065948
-0.00162676
8.99683e-09
-0.000597771
3.23223e-08
-0.000597797
4.4835e-08
-0.000597794
6.17188e-08
-0.00059779
8.6444e-08
-0.000597787
-0.000597753
-1.23832e-07
0.00692611
-0.00367903
3.3118e-08
0.00692649
-0.00367919
1.09877e-07
0.00692649
-0.00367919
1.86008e-07
0.0069265
-0.00367919
2.78356e-07
0.00692649
-0.00367918
0.00692613
-0.00367898
-1.2595e-08
0.00778042
-0.00248061
7.20792e-08
0.00778083
-0.00248072
1.14526e-07
0.00778081
-0.00248071
1.60487e-07
0.0077808
-0.00248071
2.14827e-07
0.00778078
-0.00248071
0.00778036
-0.00248058
2.61754e-08
-0.00092992
4.86443e-08
-0.000929959
6.17675e-08
-0.000929959
7.95619e-08
-0.000929958
1.03184e-07
-0.000929959
-0.000929919
-7.14689e-08
0.00831248
-0.00539094
6.0384e-08
0.00831294
-0.00539118
1.43032e-07
0.00831294
-0.0053912
2.32656e-07
0.00831295
-0.0053912
3.31792e-07
0.00831294
-0.0053912
0.00831249
-0.00539094
5.65111e-08
0.00955878
-0.00372651
1.08163e-07
0.00955926
-0.00372667
1.40511e-07
0.00955924
-0.00372669
1.77791e-07
0.00955923
-0.00372669
2.16651e-07
0.0095592
-0.00372671
0.00955869
-0.00372655
4.87497e-08
-0.0014348
5.90726e-08
-0.00143487
6.66095e-08
-0.00143488
7.53953e-08
-0.00143489
8.38477e-08
-0.0014349
-0.00143485
-9.46467e-09
0.0102155
-0.00803604
5.79351e-08
0.010216
-0.00803645
1.41129e-07
0.010216
-0.00803648
2.3685e-07
0.010216
-0.0080365
3.04635e-07
0.010216
-0.00803652
0.0102154
-0.00803615
1.06601e-07
0.012169
-0.00567996
9.7367e-08
0.0121696
-0.00568026
1.01253e-07
0.0121696
-0.00568028
1.12649e-07
0.0121696
-0.00568031
1.10599e-07
0.0121696
-0.00568034
0.0121689
-0.0056801
4.67006e-08
-0.00226212
3.28027e-08
-0.00226224
2.78628e-08
-0.00226226
1.96227e-08
-0.00226228
6.31009e-09
-0.00226229
-0.0022622
-8.65759e-08
0.0127953
-0.0124389
-5.48874e-08
0.012796
-0.0124395
5.26534e-08
0.012796
-0.0124396
1.5782e-07
0.012796
-0.0124396
1.85209e-07
0.012796
-0.0124396
0.0127953
-0.012439
3.24317e-08
0.0160294
-0.00891419
-2.7629e-08
0.0160301
-0.00891468
-3.09371e-08
0.0160301
-0.00891471
-3.04627e-08
0.0160301
-0.00891472
-4.82687e-08
0.0160301
-0.00891473
0.0160293
-0.00891427
-1.67513e-08
-0.00370362
-4.02208e-08
-0.00370382
-5.38238e-08
-0.00370383
-6.82023e-08
-0.00370383
-7.26058e-08
-0.00370383
-0.00370362
-4.14853e-07
0.0162023
-0.0200911
-2.7588e-07
0.0162032
-0.0200921
-3.74798e-08
0.0162032
-0.0200921
1.55058e-07
0.0162032
-0.020092
2.05886e-07
0.0162031
-0.0200919
0.0162022
-0.0200908
-2.09107e-07