/*--------------------------------*- C++ -*----------------------------------*\
| =========                 |                                                 |
| \\      /  F ield         | OpenFOAM: The Open Source CFD Toolbox           |
|  \\    /   O peration     | Version:  v1612+                                |
|   \\  /    A nd           | Web:      www.OpenFOAM.com                      |
|    \\/     M anipulation  |                                                 |
\*---------------------------------------------------------------------------*/
FoamFile
{
    version     2.0;
    format      ascii;
    class       surfaceScalarField;
    location    "2.65";
    object      alphaPhi;
}
// * * * * * * * * * * * * * * * * * * * * * * * * * * * * * * * * * * * * * //

dimensions      [0 3 -1 0 0 0 0];

internalField   nonuniform List<scalar> 
2916
(
-6.78442e-06
0.542416
-0.486019
-2.98388e-06
0.542416
-0.486055
-4.42344e-06
0.542415
-0.486053
-7.54164e-06
0.542418
-0.486034
-2.13655e-06
0.542419
-0.486045
0.542411
-0.486021
-5.82747e-06
1.07935
-0.483707
-3.71668e-06
1.07935
-0.483718
-7.13681e-06
1.07935
-0.483713
-6.71078e-06
1.07935
-0.483716
3.86083e-06
1.07935
-0.483724
1.07935
-0.483712
-6.3321e-06
1.46414
-0.334761
-2.82582e-06
1.46414
-0.334775
-5.46465e-06
1.46415
-0.33477
-5.32466e-06
1.46415
-0.33477
4.59368e-06
1.46415
-0.334778
1.46414
-0.334765
-6.61236e-06
1.74266
-0.25346
-2.87723e-06
1.74267
-0.253474
-5.48771e-06
1.74267
-0.253469
-6.12534e-06
1.74267
-0.253469
2.44639e-06
1.74267
-0.253477
1.74266
-0.253463
-7.41153e-06
1.96508
-0.21243
-4.81258e-06
1.96509
-0.212439
-7.35468e-06
1.96509
-0.212424
-7.40297e-06
1.96508
-0.212417
1.34133e-06
1.96508
-0.212423
1.96507
-0.212409
-8.87293e-06
2.15111
-0.178657
-7.2548e-06
2.15112
-0.178663
-9.11498e-06
2.15112
-0.178656
-8.11125e-06
2.15111
-0.178654
6.09179e-07
2.15111
-0.17866
2.15109
-0.178645
-1.13468e-05
2.29622
-0.138004
-8.61277e-06
2.29623
-0.138013
-9.46079e-06
2.29623
-0.13801
-8.16782e-06
2.29623
-0.138011
-1.49825e-08
2.29623
-0.138019
2.2962
-0.138006
-7.58355e-06
2.36874
-0.0725287
-5.88788e-06
2.36876
-0.0725465
-5.51469e-06
2.36876
-0.0725439
-4.23006e-06
2.36876
-0.0725463
-1.07556e-07
2.36876
-0.0725531
2.36872
-0.0725401
-3.3527e-06
2.17004
0.19871
-4.02104e-08
2.17008
0.198682
-8.95374e-08
2.17007
0.19869
-7.85552e-07
2.17007
0.198692
6.72691e-07
2.17008
0.198683
2.17002
0.198702
-1.90404e-06
1.48212
0.687921
3.93729e-06
1.48217
0.687902
4.57697e-06
1.48217
0.687904
3.4245e-06
1.48216
0.687906
1.44897e-06
1.48218
0.687902
1.48212
0.687913
2.28797e-06
0.509326
0.972796
-2.95792e-06
0.509372
0.972809
1.15885e-06
0.509371
0.972795
3.53585e-06
0.509369
0.972795
-4.65717e-07
0.509393
0.972792
0.509326
0.972792
-3.52193e-05
0.486055
-2.74295e-05
0.486057
-1.77416e-05
0.486054
-7.70241e-06
0.486053
1.92986e-05
0.486061
0.486036
5.26751e-06
0.344746
-2.18303e-06
-3.32148e-06
0.34474
-2.18289e-06
-1.07963e-05
0.344745
-2.18277e-06
-3.58463e-06
0.344745
-2.1833e-06
-5.49487e-07
0.344742
-2.18491e-06
0.344747
-2.18727e-06
1.0573e-05
0.468249
-3.86454e-06
-2.61389e-06
0.468254
-3.86437e-06
-7.26365e-06
0.468251
-3.86382e-06
-3.93684e-06
0.46825
-3.86578e-06
-9.12557e-06
0.46825
-3.86819e-06
0.468245
-3.86612e-06
1.03622e-05
0.754225
-6.53938e-07
-1.39041e-06
0.754238
-6.5377e-07
-4.50487e-06
0.754231
-6.53643e-07
-3.39575e-06
0.75423
-6.54157e-07
-1.05498e-05
0.754235
-6.55064e-07
0.75422
-6.54462e-07
1.14196e-05
1.09039
-3.41872e-07
1.42542e-06
1.09042
-3.41825e-07
-1.04374e-06
1.09041
-3.41738e-07
-1.61558e-06
1.09041
-3.41909e-07
-1.0169e-05
1.09042
-3.42159e-07
1.09039
-3.42098e-07
1.26063e-05
1.31884
-4.1626e-07
6.18977e-06
1.31888
-4.16159e-07
5.11581e-06
1.31887
-4.16115e-07
2.22842e-06
1.31887
-4.16136e-07
-7.86628e-06
1.31888
-4.16129e-07
1.31885
-4.15886e-07
1.29329e-05
1.43583
-5.96942e-08
9.61296e-06
1.43588
-5.9678e-08
1.02725e-05
1.43586
-5.9672e-08
6.43299e-06
1.43586
-5.96758e-08
-2.84919e-06
1.43588
-5.96748e-08
1.43584
-5.96384e-08
1.41713e-05
1.46365
-9.76965e-09
1.29729e-05
1.4637
-9.76564e-09
1.50636e-05
1.46369
-9.76454e-09
1.14036e-05
1.46369
-9.76549e-09
3.04689e-06
1.4637
-9.76517e-09
1.46367
-9.75712e-09
1.3593e-05
1.36976
-2.42394e-09
1.43061e-05
1.36981
-2.42307e-09
1.64698e-05
1.36979
-2.42295e-09
1.33801e-05
1.36979
-2.42319e-09
5.01827e-06
1.36979
-2.4232e-09
1.36978
-2.42189e-09
1.12761e-05
1.31576
0.0160173
8.79448e-06
1.31579
0.0160168
1.00685e-05
1.31578
0.0160171
8.5889e-06
1.31578
0.0160179
3.09267e-07
1.31578
0.0160185
1.31578
0.0160195
1.65083e-05
1.47067
0.160493
7.57267e-06
1.47072
0.16048
6.92914e-06
1.47071
0.160484
4.34351e-06
1.4707
0.160484
-8.44933e-06
1.4707
0.16048
1.47068
0.160486
3.44068e-05
1.11468
0.914718
1.23013e-05
1.11483
0.914654
1.11382e-05
1.11479
0.914669
7.83172e-06
1.11479
0.914666
-1.06785e-05
1.11482
0.914643
1.11471
0.914691
-6.1263e-05
1.57677
-1.89437e-05
1.57681
-3.55233e-06
1.5768
6.85089e-06
1.5768
4.05722e-05
1.57682
1.57675
-9.97701e-13
6.11001e-08
-4.00871e-07
-1.80387e-12
6.10952e-08
-4.00842e-07
-2.55282e-12
6.1092e-08
-4.00838e-07
5.31485e-12
6.11087e-08
-4.00937e-07
1.20165e-11
6.11477e-08
-4.01155e-07
6.11738e-08
-4.01276e-07
-3.45278e-12
2.04171e-07
-2.92831e-06
-2.80837e-12
2.04155e-07
-2.92832e-06
2.0136e-12
2.04124e-07
-2.92829e-06
4.11134e-12
2.04222e-07
-2.92855e-06
1.17593e-12
2.0435e-07
-2.92896e-06
2.04244e-07
-2.92854e-06
-9.42688e-13
8.83045e-08
-2.7437e-07
-5.5119e-13
8.82832e-08
-2.74268e-07
4.47955e-13
8.8266e-08
-2.74248e-07
8.16205e-13
8.83102e-08
-2.74482e-07
4.85504e-13
8.83773e-08
-2.75116e-07
8.83149e-08
-2.74846e-07
-3.59646e-14
7.34776e-08
-2.86199e-07
5.8653e-13
7.34627e-08
-2.86177e-07
1.03983e-12
7.34483e-08
-2.86108e-07
1.22785e-12
7.34714e-08
-2.86227e-07
1.21567e-12
7.35019e-08
-2.86414e-07
7.34742e-08
-2.86428e-07
5.00607e-13
7.15745e-08
-4.09869e-07
1.46332e-12
7.15552e-08
-4.09767e-07
1.83158e-12
7.15476e-08
-4.09731e-07
1.83898e-12
7.15519e-08
-4.09729e-07
1.77013e-12
7.15507e-08
-4.09687e-07
7.15061e-08
-4.09429e-07
4.86183e-14
1.18411e-08
-2.35472e-10
2.18307e-13
1.18364e-08
-2.3436e-10
2.74463e-13
1.1835e-08
-2.34186e-10
2.59911e-13
1.18362e-08
-2.34421e-10
3.15203e-13
1.18358e-08
-2.34316e-10
1.18261e-08
-2.32351e-10
1.10259e-15
2.08079e-09
-1.01201e-11
3.03384e-14
2.07994e-09
-1.00557e-11
3.9676e-14
2.07972e-09
-1.00581e-11
3.47608e-14
2.07994e-09
-1.00584e-11
4.42543e-14
2.07986e-09
-1.00496e-11
2.07819e-09
-9.95459e-12
7.37716e-16
-3.46992e-10
6.65365e-12
3.01723e-15
-3.46973e-10
6.64694e-12
3.11925e-15
-3.47064e-10
6.64935e-12
1.62511e-15
-3.47092e-10
6.65304e-12
-4.49339e-16
-3.47186e-10
6.65372e-12
-3.47534e-10
6.64725e-12
2.54376e-08
0.0150484
0.000993688
-7.35465e-09
0.015048
0.000993696
-1.083e-08
0.0150482
0.000993705
-9.19539e-09
0.015049
0.000993753
-8.5414e-08
0.0150496
0.000993823
0.0150505
0.000993803
5.25155e-08
0.161561
0.0135674
-2.53487e-07
0.161548
0.0135671
-1.83523e-07
0.161551
0.0135673
-1.67626e-07
0.161552
0.0135675
-6.17272e-07
0.161549
0.0135675
0.161556
0.0135674
1.30244e-05
0.402554
0.212349
2.94531e-06
0.402563
0.212362
1.88675e-06
0.402559
0.212361
-2.25017e-07
0.402557
0.212361
-8.78733e-06
0.402551
0.212374
0.402546
0.212355
-2.32811e-05
1.77053
1.7436e-06
1.77054
9.4457e-06
1.77053
1.80408e-05
1.77052
7.55239e-06
1.77056
1.77042
-1.37559e-11
4.70965e-08
-1.69669e-06
-5.27166e-12
4.70896e-08
-1.69686e-06
2.86307e-12
4.70901e-08
-1.69719e-06
8.14554e-12
4.70881e-08
-1.69755e-06
1.52431e-11
4.71068e-08
-1.69756e-06
4.71404e-08
-1.69722e-06
-1.04021e-10
-1.47685e-08
-2.76543e-05
-4.45159e-11
-1.47789e-08
-2.76542e-05
1.82128e-11
-1.47833e-08
-2.76547e-05
1.32229e-11
-1.47905e-08
-2.76546e-05
1.47937e-11
-1.48066e-08
-2.76536e-05
-1.47899e-08
-2.76544e-05
-3.01957e-12
-1.25901e-07
-1.35106e-07
4.01696e-13
-1.25897e-07
-1.35089e-07
1.63587e-12
-1.25875e-07
-1.35002e-07
1.9117e-12
-1.25933e-07
-1.35284e-07
3.72715e-12
-1.26076e-07
-1.35599e-07
-1.26127e-07
-1.3532e-07
8.87673e-13
-2.42984e-07
-9.25578e-07
1.06538e-11
-2.42933e-07
-9.24942e-07
1.14188e-11
-2.42904e-07
-9.25251e-07
1.02432e-11
-2.42911e-07
-9.22671e-07
1.34036e-11
-2.42915e-07
-9.194e-07
-2.42784e-07
-9.27762e-07
-1.54941e-11
-4.00105e-09
-1.03516e-06
-2.89114e-12
-3.9824e-09
-1.0352e-06
2.11172e-12
-3.97944e-09
-1.03519e-06
7.06292e-12
-3.98343e-09
-1.03512e-06
2.40753e-11
-3.98175e-09
-1.03505e-06
-3.94918e-09
-1.03503e-06
-1.84561e-14
-3.69105e-12
-4.23363e-09
-1.78137e-14
-3.65723e-12
-4.21392e-09
-1.7187e-14
-3.65434e-12
-4.21078e-09
-1.20944e-14
-3.65846e-12
-4.21501e-09
4.34668e-15
-3.65499e-12
-4.21324e-09
-3.59931e-12
-4.17875e-09
-5.28958e-17
1.53757e-13
-1.39649e-11
-5.94506e-17
1.86201e-13
-1.38991e-11
-6.70155e-17
1.72924e-13
-1.38854e-11
-6.20297e-17
1.80499e-13
-1.38974e-11
-2.4447e-17
1.88384e-13
-1.3893e-11
2.1963e-13
-1.37736e-11
-6.40647e-19
-2.78475e-13
-1.69249e-14
1.24003e-17
-3.4049e-13
-1.68065e-14
2.45644e-17
-3.15188e-13
-1.67891e-14
3.61369e-17
-3.29669e-13
-1.67906e-14
1.04524e-16
-3.44702e-13
-1.67788e-14
-4.04754e-13
-1.66383e-14
9.41661e-10
0.000951829
4.98777e-05
-1.50491e-09
0.000951843
4.98739e-05
-3.44977e-09
0.000951849
4.98768e-05
-7.71277e-09
0.000951898
4.98797e-05
-3.55168e-08
0.000951981
4.98912e-05
0.00095192
4.98663e-05
3.45853e-08
0.0122212
0.00217379
3.29495e-08
0.0122209
0.00217383
4.31096e-08
0.0122211
0.00217383
3.8655e-08
0.0122212
0.00217381
-1.08503e-07
0.0122215
0.00217384
0.0122211
0.00217386
1.3274e-06
0.151662
0.072273
2.85812e-07
0.151679
0.0722708
1.69243e-07
0.151677
0.0722713
5.76089e-07
0.151679
0.0722687
-4.98818e-07
0.151701
0.0722616
0.15166
0.0722819
1.41198e-05
1.68858
1.77025e-06
1.68858
5.67329e-05
1.68853
2.8524e-05
1.68857
-0.000196367
1.68871
1.6885
-7.22044e-67
1.08567e-63
-1.30798e-60
-7.96893e-67
1.08763e-63
-1.31042e-60
-8.31817e-67
1.08733e-63
-1.31023e-60
-7.3531e-67
1.08719e-63
-1.31026e-60
-4.68668e-67
1.08738e-63
-1.31071e-60
1.08498e-63
-1.30807e-60
-1.54692e-62
5.31847e-59
-3.25167e-56
-2.48887e-62
5.32509e-59
-3.25578e-56
-3.19995e-62
5.32268e-59
-3.25487e-56
-3.18572e-62
5.32162e-59
-3.25496e-56
-2.13294e-62
5.32257e-59
-3.25649e-56
5.31167e-59
-3.25105e-56
-2.42283e-58
1.06322e-54
-4.32017e-52
-5.91265e-58
1.06315e-54
-4.31982e-52
-8.46565e-58
1.06216e-54
-4.31697e-52
-8.90773e-58
1.06174e-54
-4.31687e-52
-6.36037e-58
1.06189e-54
-4.31966e-52
1.0599e-54
-4.31444e-52
-5.06649e-54
1.28125e-50
-3.82687e-48
-1.16329e-53
1.27919e-50
-3.82209e-48
-1.58645e-53
1.27739e-50
-3.8189e-48
-1.64056e-53
1.27678e-50
-3.8196e-48
-1.18858e-53
1.27728e-50
-3.82423e-48
1.27574e-50
-3.82396e-48
-8.58067e-50
1.02963e-46
-2.59568e-44
-1.54462e-49
1.02726e-46
-2.59383e-44
-1.88747e-49
1.02588e-46
-2.59312e-44
-1.8426e-49
1.02594e-46
-2.5971e-44
-1.30311e-49
1.02757e-46
-2.60911e-44
1.02684e-46
-2.60077e-44
-2.99007e-45
1.95625e-42
-1.33643e-39
-4.2728e-45
1.96422e-42
-1.34583e-39
-4.53467e-45
1.9672e-42
-1.34963e-39
-4.07572e-45
1.97947e-42
-1.36077e-39
-2.6138e-45
2.01954e-42
-1.39494e-39
1.95686e-42
-1.34079e-39
-6.76667e-41
3.2291e-38
-1.85349e-35
-7.88246e-41
3.28514e-38
-1.89085e-35
-6.89162e-41
3.30922e-38
-1.9064e-35
-5.08609e-41
3.3441e-38
-1.92764e-35
-2.65334e-41
3.43138e-38
-1.97904e-35
3.29187e-38
-1.89436e-35
-1.87832e-37
9.93427e-35
-4.18046e-32
-1.42781e-37
1.02761e-34
-4.33646e-32
-4.74286e-38
1.04018e-34
-4.39035e-32
3.41121e-38
1.05149e-34
-4.43608e-32
6.31934e-38
1.07525e-34
-4.53123e-32
1.02141e-34
-4.29187e-32
-5.84122e-36
3.82185e-32
-1.22341e-29
5.16613e-35
4.01587e-32
-1.28612e-29
1.10459e-34
4.05353e-32
-1.29545e-29
1.39139e-34
4.0547e-32
-1.29217e-29
1.14191e-34
4.07322e-32
-1.29289e-29
3.76682e-32
-1.18795e-29
5.39351e-37
2.43718e-34
5.64857e-36
1.21094e-36
2.49119e-34
5.42843e-36
1.66804e-36
2.50462e-34
5.57612e-36
1.77431e-36
2.51024e-34
5.89067e-36
1.34258e-36
2.52391e-34
6.39029e-36
2.44979e-34
6.8643e-36
5.1304e-34
8.64337e-32
2.74743e-32
7.49285e-34
8.66518e-32
2.78069e-32
8.35993e-34
8.67052e-32
2.80281e-32
7.9948e-34
8.67936e-32
2.82591e-32
5.77472e-34
8.69948e-32
2.85649e-32
8.72168e-32
2.89604e-32
7.47426e-32
4.14075e-29
5.57702e-32
4.16257e-29
2.24137e-32
4.16621e-29
-5.6066e-33
4.16798e-29
-2.08139e-32
4.17251e-29
4.17376e-29
-7.80422e-64
1.35344e-60
-1.24998e-57
-9.18159e-64
1.3556e-60
-1.25236e-57
-9.12017e-64
1.35509e-60
-1.25218e-57
-7.31076e-64
1.35484e-60
-1.25219e-57
-3.76366e-64
1.35506e-60
-1.25261e-57
1.35208e-60
-1.25005e-57
-2.96075e-59
6.68179e-56
-3.10433e-53
-3.84101e-59
6.69032e-56
-3.10933e-53
-3.94546e-59
6.68697e-56
-3.10865e-53
-3.29075e-59
6.68523e-56
-3.10866e-53
-1.81712e-59
6.68611e-56
-3.10987e-53
6.67195e-56
-3.10422e-53
-7.38602e-55
1.30522e-51
-3.98202e-49
-1.00642e-54
1.30594e-51
-3.98586e-49
-1.04388e-54
1.30491e-51
-3.98423e-49
-9.02822e-55
1.30437e-51
-3.98407e-49
-5.57457e-55
1.30447e-51
-3.98597e-49
1.30181e-51
-3.97987e-49
-1.15913e-50
1.48495e-47
-3.29484e-45
-1.57767e-50
1.48449e-47
-3.29649e-45
-1.61572e-50
1.4829e-47
-3.295e-45
-1.39689e-50
1.48217e-47
-3.29525e-45
-8.96673e-51
1.48242e-47
-3.29782e-45
1.47991e-47
-3.2949e-45
-1.24985e-46
1.17508e-43
-3.37487e-41
-1.59467e-46
1.17429e-43
-3.37854e-41
-1.53713e-46
1.17292e-43
-3.37623e-41
-1.2684e-46
1.17319e-43
-3.38537e-41
-7.88806e-47
1.17652e-43
-3.4245e-41
1.16966e-43
-3.3496e-41
-8.27433e-42
6.66171e-39
-4.90943e-36
-9.1922e-42
6.68313e-39
-4.93678e-36
-7.64202e-42
6.68538e-39
-4.94298e-36
-5.42181e-42
6.72642e-39
-4.97798e-36
-2.79188e-42
6.87995e-39
-5.09908e-36
6.59349e-39
-4.87393e-36
-1.03727e-37
1.04274e-34
-5.64803e-32
-6.5752e-38
1.05291e-34
-5.71876e-32
-2.2395e-39
1.05653e-34
-5.74236e-32
4.52737e-38
1.06525e-34
-5.79113e-32
5.31968e-38
1.09148e-34
-5.93242e-32
1.0429e-34
-5.66027e-32
2.2372e-36
3.32377e-31
-1.28399e-28
3.89274e-34
3.37993e-31
-1.30878e-28
7.61022e-34
3.39731e-31
-1.31552e-28
9.29492e-34
3.42439e-31
-1.32512e-28
7.52273e-34
3.49994e-31
-1.35234e-28
3.32567e-31
-1.28177e-28
2.26152e-31
1.67741e-28
-4.41309e-26
5.9934e-31
1.71915e-28
-4.53051e-26
8.66367e-31
1.72302e-28
-4.53482e-26
9.43201e-31
1.72425e-28
-4.52812e-26
7.26339e-31
1.74153e-28
-4.55677e-26
1.62673e-28
-4.23297e-26
2.50474e-33
6.69076e-31
1.06966e-31
3.65043e-33
6.79343e-31
1.08334e-31
3.91895e-33
6.81265e-31
1.09235e-31
3.46582e-33
6.83314e-31
1.10493e-31
2.23864e-33
6.9076e-31
1.12964e-31
6.63728e-31
1.10176e-31
3.63299e-31
1.15166e-28
9.63363e-29
2.94696e-31
1.15603e-28
9.70312e-29
9.78659e-32
1.15919e-28
9.73711e-29
-9.21412e-32
1.16317e-28
9.76856e-29
-1.85619e-31
1.16866e-28
9.81083e-29
1.17371e-28
9.85064e-29
-1.60014e-28
7.5179e-26
-2.94964e-28
7.54995e-26
-3.78823e-28
7.55739e-26
-3.80532e-28
7.5612e-26
-2.89182e-28
7.5695e-26
7.5613e-26
-1.91632e-61
6.29368e-58
-4.15503e-55
-2.65592e-61
6.30442e-58
-4.16309e-55
-2.57079e-61
6.30279e-58
-4.16259e-55
-1.82649e-61
6.30228e-58
-4.16268e-55
-7.01355e-62
6.30411e-58
-4.16408e-55
6.29124e-58
-4.15553e-55
-9.71781e-57
3.11053e-53
-1.01975e-50
-1.20623e-56
3.11535e-53
-1.02159e-50
-1.08637e-56
3.11438e-53
-1.02144e-50
-7.37493e-57
3.11407e-53
-1.02146e-50
-2.78626e-57
3.11498e-53
-1.02184e-50
3.10895e-53
-1.0199e-50
-2.52485e-52
5.89633e-49
-1.24647e-46
-2.91536e-52
5.9033e-49
-1.24835e-46
-2.48858e-52
5.90074e-49
-1.24806e-46
-1.65416e-52
5.89985e-49
-1.24807e-46
-6.70517e-53
5.9016e-49
-1.24859e-46
5.89091e-49
-1.24643e-46
-3.47888e-48
6.3781e-45
-9.5528e-43
-3.70177e-48
6.38281e-45
-9.56572e-43
-2.8891e-48
6.37939e-45
-9.56364e-43
-1.70574e-48
6.3785e-45
-9.56445e-43
-5.7341e-49
6.38108e-45
-9.56994e-43
6.37144e-45
-9.55677e-43
-4.86653e-44
8.07871e-41
-4.64671e-38
-4.22316e-44
8.08282e-41
-4.65366e-38
-2.32811e-44
8.07336e-41
-4.64671e-38
-4.59002e-45
8.09114e-41
-4.6669e-38
5.72538e-45
8.17925e-41
-4.76163e-38
7.99243e-41
-4.55702e-38
-6.22166e-39
1.41779e-35
-8.83889e-33
-1.61169e-39
1.42146e-35
-8.87367e-33
4.21856e-39
1.42119e-35
-8.87396e-33
8.01988e-39
1.42983e-35
-8.92871e-33
7.63829e-39
1.46333e-35
-9.13623e-33
1.39733e-35
-8.71171e-33
4.70994e-35
1.87748e-31
-7.7391e-29
1.86837e-34
1.8881e-31
-7.79447e-29
3.00034e-34
1.89082e-31
-7.80517e-29
3.37766e-34
1.90446e-31
-7.85884e-29
2.62402e-34
1.95004e-31
-8.03933e-29
1.86114e-31
-7.65915e-29
8.35736e-31
4.54623e-28
-1.33648e-25
1.39705e-30
4.58478e-28
-1.34925e-25
1.65705e-30
4.59429e-28
-1.35109e-25
1.58306e-30
4.62699e-28
-1.3593e-25
1.09777e-30
4.73113e-28
-1.38725e-25
4.50425e-28
-1.3171e-25
9.2539e-28
2.56878e-25
-5.17736e-23
1.20738e-27
2.59056e-25
-5.21939e-23
1.17023e-27
2.5904e-25
-5.20844e-23
9.20317e-28
2.60182e-25
-5.21906e-23
5.07805e-28
2.64951e-25
-5.29593e-23
2.50967e-25
-4.99493e-23
2.06082e-26
6.58657e-24
5.05655e-26
2.33375e-26
6.62721e-24
5.50476e-26
1.85788e-26
6.52952e-24
6.27122e-26
1.1033e-26
6.42672e-24
7.19371e-26
3.59574e-27
6.36397e-24
8.38541e-26
5.86679e-24
9.17352e-26
1.48943e-28
2.20663e-25
2.04872e-25
-2.63754e-28
2.21868e-25
2.06606e-25
-7.16487e-28
2.21584e-25
2.06515e-25
-9.60037e-28
2.21208e-25
2.06189e-25
-7.95899e-28
2.21271e-25
2.06334e-25
2.1718e-25
2.02721e-25
-1.31682e-25
5.87043e-23
-2.05442e-25
5.88922e-23
-2.35753e-25
5.8922e-23
-2.05989e-25
5.89075e-23
-1.05965e-25
5.88969e-23
5.8818e-23
-1.58911e-59
1.29894e-55
-4.89549e-53
-2.89573e-59
1.30116e-55
-4.90507e-53
-2.41514e-59
1.30091e-55
-4.90454e-53
-1.21231e-59
1.30093e-55
-4.90468e-53
-9.1556e-61
1.30144e-55
-4.90636e-53
1.29886e-55
-4.89621e-53
-1.3071e-54
6.36892e-51
-1.16998e-48
-1.25267e-54
6.37932e-51
-1.17221e-48
-6.10507e-55
6.3781e-51
-1.17208e-48
6.53552e-56
6.37836e-51
-1.17212e-48
4.05626e-55
6.38103e-51
-1.17253e-48
6.36915e-51
-1.17023e-48
-3.01404e-50
1.15759e-46
-1.33649e-44
-1.90703e-50
1.15928e-46
-1.33886e-44
-6.54411e-53
1.15905e-46
-1.33868e-44
1.57365e-50
1.15912e-46
-1.33871e-44
1.8964e-50
1.15964e-46
-1.3392e-44
1.15762e-46
-1.3367e-44
-2.18444e-46
1.16755e-42
-9.25313e-41
1.02596e-48
1.16905e-42
-9.26901e-41
2.73522e-46
1.16885e-42
-9.26799e-41
4.45308e-46
1.169e-42
-9.26861e-41
4.04232e-46
1.16964e-42
-9.27254e-41
1.16784e-42
-9.25664e-41
6.48599e-42
6.99606e-38
-6.21567e-35
2.98174e-41
7.00251e-38
-6.22413e-35
4.91413e-41
6.99095e-38
-6.21259e-35
5.67317e-41
7.0208e-38
-6.24072e-35
4.53617e-41
7.1623e-38
-6.37717e-35
6.8523e-38
-6.07105e-35
1.00153e-35
1.60496e-32
-8.64988e-30
1.82139e-35
1.60818e-32
-8.6713e-30
2.26356e-35
1.60708e-32
-8.6634e-30
2.2573e-35
1.61645e-32
-8.71165e-30
1.63787e-35
1.65371e-32
-8.90689e-30
1.5767e-32
-8.48427e-30
2.28877e-31
1.90984e-28
-5.85375e-26
3.42656e-31
1.91588e-28
-5.87366e-26
3.7654e-31
1.9156e-28
-5.8702e-26
3.4301e-31
1.92766e-28
-5.90466e-26
2.30919e-31
1.97215e-28
-6.03517e-26
1.88066e-28
-5.74809e-26
7.29488e-28
5.53071e-25
-8.8727e-23
9.83118e-28
5.55354e-25
-8.90624e-23
9.77642e-28
5.55258e-25
-8.89794e-23
8.15329e-28
5.58678e-25
-8.94787e-23
5.00847e-28
5.71082e-25
-9.1356e-23
5.44115e-25
-8.69388e-23
3.76671e-25
4.00467e-22
-3.11744e-20
3.75272e-25
4.02084e-22
-3.12627e-20
2.44675e-25
4.01573e-22
-3.11897e-20
1.08912e-25
4.03597e-22
-3.13318e-20
-6.7554e-27
4.11743e-22
-3.19257e-20
3.91598e-22
-3.03476e-20
-4.85496e-24
8.1033e-20
-3.90908e-18
-6.4722e-23
8.09726e-20
-3.89014e-18
-1.23189e-22
8.05387e-20
-3.86551e-18
-1.39489e-22
8.01938e-20
-3.83543e-18
-1.2291e-22
7.98839e-20
-3.66881e-18
7.79012e-20
-3.77338e-18
-2.95669e-24
9.26798e-22
5.52209e-22
-4.45031e-24
9.2855e-22
5.53556e-22
-5.07156e-24
9.24628e-22
5.51886e-22
-4.33929e-24
9.21899e-22
5.50536e-22
-3.21705e-24
9.47251e-22
5.66623e-22
8.9488e-22
5.35216e-22
-1.30667e-25
1.23857e-22
-1.22361e-25
1.24099e-22
-1.20546e-25
1.24112e-22
-4.66448e-26
1.23944e-22
-1.9953e-25
1.05968e-21
1.23374e-22
-1.76663e-11
-1.54475e-06
3.22117e-08
1.28196e-11
-1.54482e-06
3.2205e-08
1.17678e-11
-1.54522e-06
3.22028e-08
6.28047e-12
-1.54569e-06
3.2204e-08
3.2768e-11
-1.54581e-06
3.22205e-08
-1.54557e-06
3.22151e-08
1.20375e-11
1.73732e-14
1.13508e-07
7.90297e-12
1.90302e-14
1.13479e-07
-6.08728e-13
1.95335e-14
1.13493e-07
-7.7857e-12
1.9099e-14
1.13495e-07
-1.06242e-11
1.89864e-14
1.13458e-07
1.94393e-14
1.13482e-07
-1.80786e-19
-1.68304e-16
-7.9348e-20
-1.84336e-16
2.95374e-22
-1.89212e-16
6.69668e-20
-1.85019e-16
1.85131e-19
-1.83936e-16
-1.88295e-16
-7.27593e-11
-1.50005e-05
-1.01627e-08
-7.42713e-12
-1.50007e-05
-1.02197e-08
1.07231e-11
-1.50012e-05
-1.01853e-08
-8.19563e-13
-1.50007e-05
-1.02095e-08
2.58851e-11
-1.49992e-05
-1.0297e-08
-1.50001e-05
-1.01626e-08
4.57135e-11
1.08648e-13
1.74542e-07
-6.24002e-11
1.19004e-13
1.74589e-07
-1.26023e-10
1.22158e-13
1.74577e-07
-1.3358e-10
1.1944e-13
1.74553e-07
-1.67792e-10
1.18735e-13
1.74522e-07
1.21578e-13
1.74473e-07
-1.10468e-18
-7.58162e-16
-6.54394e-19
-8.30421e-16
-2.40429e-19
-8.52425e-16
2.162e-19
-8.33516e-16
1.08646e-18
-8.2865e-16
-8.4828e-16
1.2548e-12
-1.26911e-07
-2.39536e-07
-1.73253e-13
-1.26896e-07
-2.3952e-07
-1.41309e-12
-1.26816e-07
-2.39533e-07
-2.31421e-12
-1.27075e-07
-2.39525e-07
-2.35844e-12
-1.27375e-07
-2.39501e-07
-1.27113e-07
-2.39623e-07
7.46159e-13
6.38353e-13
-1.90365e-09
2.04955e-13
6.99218e-13
-1.89789e-09
-7.08963e-14
7.17732e-13
-1.90076e-09
-5.4705e-13
7.01765e-13
-1.88713e-09
-1.77382e-12
6.97636e-13
-1.87571e-09
7.14284e-13
-1.90516e-09
-6.18578e-18
-1.97975e-14
-4.14811e-18
-2.16849e-14
-2.14182e-18
-2.22594e-14
7.02442e-19
-2.17645e-14
6.4214e-18
-2.16367e-14
-2.21527e-14
2.69709e-13
-6.17533e-07
-9.0847e-08
-1.94911e-11
-6.17999e-07
-9.08651e-08
-3.162e-11
-6.17693e-07
-9.08628e-08
-3.54962e-11
-6.20393e-07
-9.09995e-08
-2.8319e-11
-6.24267e-07
-9.11503e-08
-6.14858e-07
-9.08431e-08
4.36026e-12
5.86742e-13
2.67828e-09
2.4224e-12
6.42654e-13
2.67665e-09
4.67638e-13
6.59649e-13
2.6781e-09
-1.96247e-12
6.4496e-13
2.67129e-09
-6.3863e-12
6.41163e-13
2.66566e-09
6.56427e-13
2.68075e-09
-6.72085e-18
-5.56279e-15
-4.32242e-18
-6.09234e-15
-2.52526e-18
-6.25334e-15
2.491e-19
-6.11393e-15
6.89857e-18
-6.07766e-15
-6.22287e-15
-1.40534e-11
-6.64479e-07
1.41308e-08
-3.59665e-11
-6.64538e-07
1.41399e-08
-4.28905e-11
-6.64512e-07
1.41164e-08
-4.01366e-11
-6.64571e-07
1.4101e-08
-2.96195e-11
-6.64657e-07
1.40985e-08
-6.64327e-07
1.40708e-08
1.22035e-11
7.80066e-15
-1.31846e-09
4.99231e-12
8.55933e-15
-1.31748e-09
-1.4348e-12
8.80485e-15
-1.31725e-09
-6.72542e-12
8.60349e-15
-1.31617e-09
-1.58414e-11
8.5442e-15
-1.31592e-09
8.5517e-15
-1.31638e-09
-7.64671e-20
-7.27459e-23
-3.77081e-20
-7.52661e-23
-1.37016e-20
-7.37446e-23
2.21279e-20
-7.26061e-23
1.16671e-19
-7.36195e-23
-6.74494e-23
-1.92088e-14
-4.4959e-09
1.43425e-11
-7.44235e-14
-4.47863e-09
1.42745e-11
-1.08789e-13
-4.47584e-09
1.42604e-11
-1.20426e-13
-4.47939e-09
1.42728e-11
-1.74323e-13
-4.47717e-09
1.42682e-11
-4.44639e-09
1.41453e-11
7.50665e-14
-2.22283e-19
6.28992e-20
3.86488e-14
-2.2996e-19
6.26993e-20
1.65683e-14
-2.25279e-19
6.3268e-20
-1.13275e-14
-2.21773e-19
6.35839e-20
-5.56327e-14
-2.24833e-19
6.39738e-20
-2.05988e-19
6.39338e-20
4.84278e-26
-2.22345e-19
-3.14349e-26
-2.30024e-19
-6.27298e-26
-2.25342e-19
-8.215e-26
-2.21835e-19
-1.21975e-25
-2.24896e-19
-2.06045e-19
-5.10354e-16
4.12754e-18
3.87196e-13
-5.25784e-16
4.11543e-18
3.84444e-13
-5.46718e-16
4.15249e-18
3.84115e-13
-2.63922e-16
4.17419e-18
3.84254e-13
1.80301e-17
4.19742e-18
3.83962e-13
4.19838e-18
3.80938e-13
3.55213e-23
-6.71284e-18
1.13068e-16
8.16485e-23
-6.94478e-18
1.12981e-16
6.71558e-23
-6.80315e-18
1.13792e-16
1.57782e-23
-6.69682e-18
1.14244e-16
-8.94548e-23
-6.78848e-18
1.1493e-16
-6.21912e-18
1.14397e-16
2.86293e-23
3.53149e-16
-3.80392e-23
3.51093e-16
-8.16908e-23
3.52452e-16
-1.17264e-22
3.53454e-16
-1.18579e-22
3.52618e-16
3.58061e-16
-2.73288e-19
2.90205e-14
3.50653e-13
-2.16073e-19
2.8867e-14
3.4816e-13
-3.31024e-19
2.89603e-14
3.47818e-13
-2.09918e-19
2.90457e-14
3.47859e-13
-7.23228e-19
2.8959e-14
3.47614e-13
2.94223e-14
3.4468e-13
4.02967e-19
1.86033e-14
2.84104e-13
6.35293e-19
1.85027e-14
2.82835e-13
9.78975e-19
1.85692e-14
2.83618e-13
4.16689e-19
1.86175e-14
2.84299e-13
-1.10077e-18
1.8567e-14
2.83592e-13
1.88457e-14
2.87482e-13
1.1138e-19
1.76378e-13
4.46166e-19
1.75477e-13
6.60219e-19
1.76101e-13
6.37183e-19
1.76528e-13
3.42014e-19
1.76047e-13
1.78541e-13
2.02927e-10
1.18905e-12
5.00121e-05
1.80056e-10
1.18339e-12
5.00084e-05
3.92395e-11
1.18636e-12
5.00115e-05
-2.43012e-10
1.18885e-12
5.00144e-05
-1.32788e-09
1.18458e-12
5.00265e-05
1.20432e-12
4.99999e-05
-2.4747e-16
1.14088e-11
-1.25251e-12
-2.22678e-17
1.13537e-11
-1.24638e-12
1.00027e-16
1.13839e-11
-1.2496e-12
5.57728e-17
1.14047e-11
-1.25228e-12
4.30079e-17
1.13664e-11
-1.249e-12
1.15367e-11
-1.26629e-12
-3.67804e-16
-3.04106e-13
6.58512e-16
-3.03702e-13
1.11179e-15
-3.03867e-13
1.01832e-15
-3.03832e-13
8.07508e-16
-3.03786e-13
-3.04234e-13
8.30961e-09
0.000188001
0.00203071
-1.33379e-08
0.000188023
0.00203075
-1.1108e-08
0.000188017
0.00203073
-6.5942e-09
0.000187993
0.00203074
-6.85838e-08
0.000187965
0.00203087
0.000188044
0.00203066
3.2091e-09
5.79102e-06
0.000182325
-2.06738e-09
5.79196e-06
0.000182354
-4.05675e-09
5.7922e-06
0.000182345
-5.02305e-09
5.79188e-06
0.000182321
-1.62417e-08
5.78918e-06
0.000182307
5.79578e-06
0.000182349
1.93722e-10
5.73546e-06
2.5724e-11
5.73668e-06
-2.15897e-11
5.73681e-06
-7.98687e-11
5.73654e-06
-3.33643e-10
5.73378e-06
5.74045e-06
5.03446e-07
0.00787299
0.0663829
-1.56112e-07
0.00787374
0.0663812
-1.3315e-07
0.00787395
0.0663808
4.92822e-08
0.00787073
0.0663813
-7.95418e-07
0.00786431
0.0663818
0.00788187
0.0663826
1.20994e-07
0.0004969
0.00755484
-4.99072e-08
0.000497108
0.00755571
-4.51757e-08
0.000497074
0.00755576
-1.06392e-07
0.000496874
0.00755279
-5.18373e-07
0.000496229
0.00754735
0.000497931
0.00756232
1.34198e-08
0.000466805
2.18218e-09
0.000467024
2.04731e-10
0.000466986
-4.05867e-09
0.000466789
-9.24028e-09
0.000466142
0.000467828
9.98948e-05
0.352507
1.29327
-2.58949e-08
0.352572
1.29334
-0.000105523
0.352621
1.29342
2.41305e-05
0.352227
1.29325
0.000189314
0.351261
1.29299
0.353626
1.29364
2.18069e-05
0.0189586
0.354867
-1.14554e-05
0.018982
0.355099
-1.61647e-05
0.0189746
0.355057
-3.36549e-06
0.0189587
0.354625
-5.37415e-05
0.0189216
0.353929
0.0190154
0.355728
1.83168e-06
0.0130888
-4.26519e-07
0.0131059
-2.06418e-06
0.0130999
-7.73874e-07
0.0130899
5.71504e-06
0.0130654
0.0131228
1.26295e-19
3.70706e-16
9.67397e-14
-8.59728e-17
-1.02199e-19
3.74855e-16
9.83408e-14
-8.56614e-17
-6.79645e-20
3.63811e-16
9.47133e-14
-8.5902e-17
-1.27112e-18
3.68268e-16
9.61611e-14
-8.58163e-17
-3.13853e-18
4.79936e-15
1.43302e-12
-3.30483e-13
3.26191e-16
8.24003e-14
-8.97806e-17
5.54967e-14
1.49179e-11
5.97762e-09
-5.71767e-09
1.5647e-14
1.37022e-11
5.58977e-09
-5.46709e-09
1.33306e-13
1.30263e-11
5.4246e-09
-5.43604e-09
2.12675e-14
1.3516e-11
5.52126e-09
-5.53293e-09
-6.7754e-13
1.85187e-11
6.82342e-09
-6.79255e-09
1.16448e-11
5.09222e-09
-5.10288e-09
-3.78686e-10
-7.48974e-07
-3.90963e-69
-6.47319e-10
-7.62159e-07
-1.06783e-67
3.86698e-10
-7.52701e-07
-3.43128e-62
-5.2069e-10
-7.8778e-07
-5.12456e-57
-6.80882e-09
-8.40558e-07
-4.37634e-51
-7.09971e-07
-4.91958e-69
-4.78371e-11
5.25236e-07
-5.25193e-07
-5.01581e-11
5.2333e-07
-5.23333e-07
-2.05026e-10
5.27095e-07
-5.26953e-07
-3.10248e-11
5.25076e-07
-5.25262e-07
6.20108e-10
5.10285e-07
-5.1094e-07
5.40446e-07
-5.399e-07
3.47163e-08
0.000172746
-0.000172249
-6.06324e-09
0.000172485
-0.000171915
4.31825e-08
0.000172943
-0.00017246
2.55836e-08
0.000173554
-0.000173005
-3.65495e-07
0.000171969
-0.00017106
0.000173768
-0.000173588
7.34852e-07
-0.00210791
6.05756e-07
-0.00211251
2.01346e-06
-0.00211149
2.50592e-07
-0.0021165
-8.78582e-06
-0.00212987
-0.00210186
7.85531e-09
3.85918e-05
-3.88431e-05
-1.30881e-08
3.86623e-05
-3.88827e-05
-3.99965e-08
3.87187e-05
-3.89372e-05
-1.67331e-08
3.87693e-05
-3.90336e-05
1.56427e-09
3.85464e-05
-3.88005e-05
3.9044e-05
-3.93021e-05
8.96009e-08
0.0176941
-0.0218067
8.75706e-07
0.0177068
-0.0218314
-2.45719e-06
0.0177082
-0.0218242
-1.50514e-06
0.0177506
-0.0218791
2.44169e-05
0.0177693
-0.0219205
0.017699
-0.0217637
1.31433e-05
-0.135055
1.26518e-05
-0.13515
2.94269e-05
-0.135106
6.35918e-06
-0.135334
-8.6272e-05
-0.135653
-0.13478
-3.91076e-08
-0.0078864
-0.0129183
2.76014e-07
-0.00791069
-0.0128761
-9.16368e-07
-0.00793449
-0.0128519
2.39054e-07
-0.00783535
-0.0130158
9.456e-06
-0.00768788
-0.0132191
-0.00814824
-0.0125872
5.04047e-05
0.22995
-0.560999
5.3921e-05
0.230209
-0.561305
5.81845e-05
0.230074
-0.560763
9.09786e-06
0.230398
-0.561053
1.50052e-05
0.23082
-0.563416
0.229584
-0.557244
5.34934e-05
-0.171809
3.09918e-05
-0.172307
5.63867e-05
-0.172013
4.50513e-06
-0.172096
-0.000159707
-0.172517
-0.171087
3.61799e-05
0.233053
-0.60036
5.95646e-05
0.233146
-0.600276
0.000189088
0.233003
-0.600335
-1.55366e-05
0.233187
-0.600451
-0.000338896
0.233999
-0.600985
0.232109
-0.600264
0.000175516
0.176368
-0.858245
9.94638e-05
0.176894
-0.858615
0.000183129
0.176553
-0.858136
6.66004e-06
0.176651
-0.858216
-0.000300015
0.177172
-0.859884
0.175407
-0.855376
1.12616e-05
-0.0439079
-4.14229e-07
-0.04401
-1.83402e-06
-0.0439527
-3.72725e-06
-0.0439028
-2.64335e-05
-0.0439083
-0.0438634
6.13698e-05
0.626924
3.66533e-05
0.627164
0.000196529
0.627059
5.3183e-05
0.626963
-0.0010287
0.626978
0.627047
7.84025e-05
0.0361414
3.6644e-05
0.0362476
8.61376e-05
0.0361857
-7.92665e-06
0.0361231
-0.000150521
0.0361047
0.036095
3.9051e-06
-2.53104e-06
-5.84992e-06
-1.93352e-06
5.96622e-07
8.61138e-58
-9.91074e-55
8.57205e-54
-4.38703e-58
-9.93142e-55
8.58848e-54
-6.5021e-58
-9.93126e-55
8.58787e-54
-4.24173e-58
-9.93164e-55
8.58853e-54
-3.33936e-58
-9.93443e-55
8.59207e-54
-9.91305e-55
8.57468e-54
1.07106e-59
-4.33872e-58
9.3927e-56
-6.86978e-60
-4.34827e-58
9.41205e-56
-1.17832e-59
-4.34814e-58
9.41218e-56
-1.2801e-59
-4.34832e-58
9.41289e-56
-1.46776e-59
-4.34962e-58
9.41597e-56
-4.33987e-58
9.39587e-56
-8.42682e-64
1.19284e-59
-2.65558e-63
1.19546e-59
-2.91091e-63
1.19547e-59
-3.14739e-63
1.19557e-59
-3.88561e-63
1.19598e-59
1.19331e-59
-1.32867e-53
-4.81701e-50
4.07444e-49
-7.00062e-54
-4.82678e-50
4.08241e-49
2.18519e-53
-4.82675e-50
4.08226e-49
4.0388e-53
-4.82694e-50
4.08275e-49
3.20644e-53
-4.82822e-50
4.08449e-49
-4.81842e-50
4.07662e-49
2.05134e-55
-2.43423e-53
9.07401e-51
4.96256e-56
-2.43942e-53
9.09257e-51
1.88384e-55
-2.43936e-53