/*--------------------------------*- C++ -*----------------------------------*\
| =========                 |                                                 |
| \\      /  F ield         | OpenFOAM: The Open Source CFD Toolbox           |
|  \\    /   O peration     | Version:  v1612+                                |
|   \\  /    A nd           | Web:      www.OpenFOAM.com                      |
|    \\/     M anipulation  |                                                 |
\*---------------------------------------------------------------------------*/
FoamFile
{
    version     2.0;
    format      ascii;
    class       volScalarField;
    location    "2";
    object      p;
}
// * * * * * * * * * * * * * * * * * * * * * * * * * * * * * * * * * * * * * //

dimensions      [1 -1 -2 0 0 0 0];

internalField   nonuniform List<scalar> 
1116
(
29386.2
29386.3
29386.3
29386.3
29386.3
29386.3
27894.8
27894.9
27894.9
27894.9
27894.9
27894.9
23612
23612
23612
23612
23612
23612
19466
19466
19466
19466
19466
19466
16144.6
16144.6
16144.6
16144.6
16144.6
16144.6
13475.2
13475.2
13475.2
13475.1
13475.1
13475.1
11029.5
11029.5
11029.5
11029.5
11029.5
11029.4
8748.99
8748.99
8748.97
8748.96
8748.96
8748.92
7745.37
7745.36
7745.34
7745.32
7745.3
7745.26
10290.7
10290.7
10290.6
10290.6
10290.6
10290.5
17140.3
17140.3
17140.2
17140.1
17140
17139.9
28156.9
28157.1
28157
28157
28157
28156.8
18978
18978
18978
18978
18978
18978
16261.4
16261.5
16261.5
16261.5
16261.5
16261.5
11634.5
11634.5
11634.5
11634.5
11634.5
11634.5
7724.93
7724.93
7724.92
7724.92
7724.92
7724.92
4488.17
4488.12
4488.12
4488.12
4488.11
4488.12
3205.02
3204.98
3204.98
3204.97
3204.95
3204.95
2095.18
2095.13
2095.13
2095.13
2095.12
2095.1
1091.44
1091.4
1091.39
1091.39
1091.38
1091.36
335.251
335.242
335.23
335.224
335.226
335.222
465.135
465.116
465.103
465.103
465.117
465.135
2211.98
2211.97
2211.91
2211.85
2211.89
2211.64
13381.2
13381.3
13381.1
13381.1
13380.9
13380.9
9326.28
9326.31
9326.32
9326.31
9326.32
9326.43
3398.88
3398.87
3398.9
3398.9
3398.91
3399.04
1618.46
1618.43
1618.44
1618.45
1618.45
1618.47
695.173
695.151
695.157
695.164
695.162
695.171
-5.20214
-5.20711
-5.20677
-5.20624
-5.2076
-5.20892
-58.2435
-58.2422
-58.2419
-58.2426
-58.2432
-58.2435
-47.315
-47.3118
-47.31
-47.3094
-47.3092
-47.3084
-13.9479
-13.9465
-13.9449
-13.9439
-13.9439
-13.9434
31.773
31.7703
31.7692
31.7684
31.768
31.7671
115.372
115.367
115.36
115.354
115.354
115.353
359.935
359.932
359.911
359.903
359.913
359.932
1862.59
1862.76
1862.58
1862.64
1862.47
1862.55
2298.53
2298.53
2298.57
2298.55
2298.55
2298.7
21.3696
21.3697
21.3695
21.37
21.3687
21.364
-65.2759
-65.275
-65.2759
-65.277
-65.2786
-65.2807
-38.5726
-38.5722
-38.5729
-38.574
-38.575
-38.5761
-21.9748
-21.9744
-21.9744
-21.9748
-21.9753
-21.9759
-21.0538
-21.0532
-21.0532
-21.0535
-21.0539
-21.0544
-28.3152
-28.3149
-28.3146
-28.3146
-28.3149
-28.3152
-23.5687
-23.5687
-23.5683
-23.568
-23.5682
-23.5681
-14.5845
-14.5867
-14.5875
-14.589
-14.5899
-14.5921
40.634
40.6361
40.6384
40.64
40.641
40.638
16.9561
16.9612
16.9638
16.9666
16.9895
16.9593
327.048
327.009
326.991
327.026
327.162
326.817
-5.01852
-5.01852
-5.01851
-5.01851
-5.01851
-5.01851
-5.02319
-5.02319
-5.02318
-5.02318
-5.02318
-5.02318
-5.03271
-5.0327
-5.0327
-5.0327
-5.0327
-5.0327
-5.04734
-5.04734
-5.04734
-5.04734
-5.04735
-5.04735
-5.06753
-5.06753
-5.06753
-5.06753
-5.06753
-5.06753
-5.09385
-5.09386
-5.09385
-5.09384
-5.09383
-5.09382
-5.12733
-5.12732
-5.1273
-5.12727
-5.12725
-5.12723
-5.17
-5.16998
-5.16994
-5.1699
-5.16987
-5.16985
-5.22114
-5.2211
-5.22106
-5.22103
-5.22101
-5.221
-5.28046
-5.28043
-5.28042
-5.28042
-5.28044
-5.28045
-5.33399
-5.33399
-5.33401
-5.33405
-5.33409
-5.33412
-5.39124
-5.39127
-5.3913
-5.39132
-5.39133
-5.39134
-14.8236
-14.8236
-14.8236
-14.8236
-14.8236
-14.8236
-14.8284
-14.8284
-14.8284
-14.8284
-14.8284
-14.8284
-14.8381
-14.8381
-14.8381
-14.8381
-14.8381
-14.8381
-14.8531
-14.8531
-14.8531
-14.8531
-14.8531
-14.8531
-14.8739
-14.8739
-14.8739
-14.8739
-14.8739
-14.8739
-14.9008
-14.9008
-14.9008
-14.9008
-14.9007
-14.9007
-14.9327
-14.9327
-14.9327
-14.9327
-14.9327
-14.9327
-14.9677
-14.9677
-14.9677
-14.9677
-14.9676
-14.9676
-15.006
-15.006
-15.006
-15.006
-15.006
-15.006
-15.05
-15.05
-15.05
-15.0501
-15.0501
-15.0501
-15.1002
-15.1002
-15.1003
-15.1004
-15.1004
-15.1005
-15.1725
-15.1725
-15.1726
-15.1726
-15.1726
-15.1725
-24.6243
-24.6243
-24.6243
-24.6243
-24.6243
-24.6243
-24.629
-24.629
-24.629
-24.629
-24.629
-24.629
-24.6385
-24.6385
-24.6385
-24.6385
-24.6385
-24.6385
-24.6534
-24.6534
-24.6534
-24.6534
-24.6534
-24.6534
-24.6746
-24.6746
-24.6746
-24.6746
-24.6746
-24.6746
-24.7037
-24.7037
-24.7036
-24.7036
-24.7036
-24.7036
-24.7438
-24.7438
-24.7437
-24.7437
-24.7437
-24.7437
-24.8035
-24.8035
-24.8035
-24.8035
-24.8035
-24.8036
-24.8862
-24.8862
-24.8862
-24.8862
-24.8863
-24.8863
-24.9966
-24.9966
-24.9966
-24.9967
-24.9968
-24.9968
-25.1133
-25.1134
-25.1134
-25.1134
-25.1134
-25.1134
-25.2706
-25.2706
-25.2705
-25.2705
-25.2704
-25.2703
-34.4209
-34.4209
-34.4209
-34.4209
-34.4209
-34.4209
-34.4251
-34.4251
-34.4251
-34.4251
-34.4251
-34.4251
-34.4339
-34.4339
-34.4339
-34.4339
-34.4339
-34.4339
-34.4479
-34.4479
-34.4479
-34.4479
-34.4479
-34.4479
-34.4681
-34.4681
-34.4681
-34.4681
-34.4681
-34.4681
-34.4959
-34.4959
-34.4959
-34.4959
-34.4959
-34.4959
-34.5311
-34.5311
-34.5311
-34.5311
-34.5311
-34.5311
-34.5703
-34.5703
-34.5704
-34.5704
-34.5704
-34.5704
-34.6156
-34.6157
-34.6157
-34.6158
-34.6158
-34.6158
-34.6776
-34.6776
-34.6777
-34.6777
-34.6778
-34.6778
-34.7589
-34.7589
-34.7589
-34.7588
-34.7588
-34.7587
-34.9008
-34.9007
-34.9006
-34.9005
-34.9004
-34.9003
-53.9178
-53.9166
-53.9154
-53.9142
-53.912
-53.909
-60.4087
-60.4084
-60.4081
-60.407
-60.4061
-60.4062
-70.6861
-70.686
-70.6859
-70.6857
-70.6854
-70.6854
-56.6706
-56.6699
-56.6696
-56.6698
-56.6697
-56.67
-56.5758
-56.5754
-56.5751
-56.5748
-56.5744
-56.5745
-70.438
-70.438
-70.438
-70.438
-70.438
-70.438
-53.4142
-53.4137
-53.414
-53.4144
-53.415
-53.4156
-59.2417
-59.2415
-59.2415
-59.2415
-59.2416
-59.2417
-68.0189
-68.0189
-68.0189
-68.0189
-68.0189
-68.0189
-51.3453
-51.3451
-51.3455
-51.3461
-51.3467
-51.3476
-58.183
-58.183
-58.1831
-58.1832
-58.1835
-58.1837
-68.367
-68.3671
-68.3671
-68.3671
-68.367
-68.3668
-45.8374
-45.8375
-45.838
-45.8387
-45.8393
-45.8399
-52.3247
-52.3249
-52.325
-52.3251
-52.3252
-52.3253
-66.5831
-66.5831
-66.583
-66.5829
-66.5828
-66.5827
-45.9051
-45.9053
-45.9056
-45.9059
-45.9062
-45.9065
-52.6485
-52.6488
-52.649
-52.6491
-52.6492
-52.6492
-66.1563
-66.1563
-66.1562
-66.1561
-66.1561
-66.156
-39.7711
-39.7712
-39.7714
-39.7716
-39.7719
-39.7722
-50.509
-50.5091
-50.5091
-50.5092
-50.5092
-50.5092
-64.5064
-64.5063
-64.5063
-64.5062
-64.5062
-64.5062
-28.8539
-28.8539
-28.8541
-28.8544
-28.8549
-28.8557
-45.4264
-45.4264
-45.4264
-45.4266
-45.4267
-45.4269
-62.2061
-62.2061
-62.2062
-62.2062
-62.2062
-62.2062
-16.5027
-16.5027
-16.5023
-16.5025
-16.5031
-16.5045
-39.8758
-39.8759
-39.8762
-39.8766
-39.8778
-39.8768
-62.065
-62.0654
-62.0658
-62.0661
-62.0664
-62.0664
11.4285
11.4316
11.4339
11.4355
11.4361
11.4361
-26.7173
-26.7187
-26.7206
-26.7234
-26.7218
-26.7285
-58.303
-58.3025
-58.3027
-58.3022
-58.302
-58.3032
-14.1796
-14.1758
-14.1726
-14.1712
-14.1629
-14.1838
-31.6958
-31.6919
-31.6939
-31.6892
-31.6901
-31.6975
-70.5362
-70.5336
-70.5358
-70.5299
-70.5357
-70.5296
-65.423
-65.4274
-65.4259
-65.4243
-65.4393
-65.3964
-69.7269
-69.7291
-69.734
-69.7287
-69.76
-69.7035
-103.69
-103.69
-103.698
-103.686
-103.708
-103.681
-45.9433
-45.9432
-45.9431
-45.9431
-45.943
-45.9425
-56.9115
-56.9118
-56.9114
-56.9119
-56.911
-56.911
-62.639
-62.6392
-62.6386
-62.6396
-62.6378
-62.6408
-47.4665
-47.4664
-47.4665
-47.4662
-47.467
-47.4642
-59.7443
-59.7454
-59.7447
-59.7452
-59.7445
-59.7417
-61.5877
-61.5879
-61.5863
-61.5888
-61.5822
-61.5943
-46.6028
-46.6027
-46.6028
-46.6024
-46.605
-46.5991
-65.1726
-65.1759
-65.1751
-65.1747
-65.1795
-65.1615
-61.4856
-61.4865
-61.4839
-61.4867
-61.4719
-61.4978
-56.1682
-56.1663
-56.1697
-56.1637
-56.1891
-56.1415
-70.055
-70.0578
-70.0569
-70.0583
-70.0626
-70.0423
-67.8893
-67.8929
-67.8892
-67.8924
-67.8761
-67.903
-35.3205
-35.3206
-35.3232
-35.3236
-35.3481
-35.2856
-70.2771
-70.2781
-70.2846
-70.2714
-70.2795
-70.2719
-71.7546
-71.7561
-71.7575
-71.7506
-71.7375
-71.7682
-87.5289
-87.5349
-87.5567
-87.5297
-87.5968
-87.4979
-72.8137
-72.8124
-72.832
-72.7993
-72.8731
-72.7599
-92.7902
-92.7914
-92.8006
-92.7816
-92.8235
-92.7504
-44.1981
-44.1981
-44.1981
-44.1981
-44.1981
-44.1981
-53.9882
-53.9882
-53.9882
-53.9882
-53.9882
-53.9882
-63.7766
-63.7766
-63.7766
-63.7766
-63.7766
-63.7766
-44.2015
-44.2015
-44.2015
-44.2015
-44.2015
-44.2015
-53.9904
-53.9904
-53.9904
-53.9904
-53.9904
-53.9904
-63.7773
-63.7773
-63.7773
-63.7773
-63.7773
-63.7773
-44.2087
-44.2087
-44.2087
-44.2087
-44.2087
-44.2087
-53.995
-53.995
-53.9951
-53.9951
-53.9951
-53.9951
-63.779
-63.779
-63.779
-63.779
-63.779
-63.779
-44.2203
-44.2203
-44.2203
-44.2203
-44.2203
-44.2203
-54.0026
-54.0026
-54.0026
-54.0026
-54.0026
-54.0026
-63.7816
-63.7816
-63.7816
-63.7816
-63.7816
-63.7816
-44.2376
-44.2376
-44.2376
-44.2376
-44.2376
-44.2376
-54.0141
-54.0141
-54.0141
-54.0141
-54.0141
-54.0141
-63.7853
-63.7853
-63.7853
-63.7853
-63.7853
-63.7853
-44.2633
-44.2633
-44.2633
-44.2633
-44.2633
-44.2633
-54.0313
-54.0313
-54.0313
-54.0313
-54.0313
-54.0313
-63.7901
-63.7901
-63.7901
-63.7901
-63.7901
-63.7901
-44.302
-44.302
-44.302
-44.302
-44.302
-44.302
-54.0568
-54.0568
-54.0568
-54.0568
-54.0568
-54.0568
-63.7954
-63.7954
-63.7954
-63.7954
-63.7954
-63.7954
-44.3659
-44.366
-44.366
-44.366
-44.366
-44.366
-54.0966
-54.0966
-54.0966
-54.0966
-54.0966
-54.0966
-63.7988
-63.7988
-63.7988
-63.7988
-63.7988
-63.7988
-44.4658
-44.4658
-44.4658
-44.4658
-44.4658
-44.4658
-54.1615
-54.1615
-54.1615
-54.1615
-54.1615
-54.1615
-63.7898
-63.7898
-63.7898
-63.7898
-63.7898
-63.7898
-44.635
-44.635
-44.635
-44.635
-44.635
-44.6349
-54.2841
-54.2841
-54.2841
-54.2841
-54.2841
-54.2841
-63.7574
-63.7574
-63.7574
-63.7574
-63.7574
-63.7574
-44.8921
-44.8921
-44.892
-44.892
-44.8919
-44.8919
-54.5848
-54.5848
-54.5847
-54.5847
-54.5847
-54.5847
-63.6074
-63.6074
-63.6074
-63.6074
-63.6074
-63.6075
-45.4165
-45.4164
-45.4163
-45.4163
-45.4162
-45.4162
-55.2597
-55.2598
-55.2597
-55.2598
-55.2595
-55.2596
-63.2806
-63.2806
-63.2805
-63.2807
-63.2805
-63.281
)
;

boundaryField
{
    seabed_topleft_surface
    {
        type            calculated;
        value           nonuniform List<scalar> 
72
(
34307.8
34307.8
34307.8
34307.8
34307.8
34307.8
32816.4
32816.4
32816.4
32816.4
32816.5
32816.4
28533.2
28533.3
28533.3
28533.2
28533.2
28533.2
24386.3
24386.3
24386.3
24386.3
24386.3
24386.3
21062.6
21062.6
21062.6
21062.6
21062.6
21062.6
18388.4
18388.4
18388.4
18388.4
18388.4
18388.4
15884
15884
15884
15883.9
15883.9
15883.9
13409.5
13409.4
13409.4
13409.4
13409.4
13409.4
11995.6
11995.5
11995.5
11995.4
11995.4
11995.4
14550.3
14550.2
14550.2
14550.1
14550.1
14550.1
21393.8
21393.7
21393.6
21393.6
21393.4
21393.3
32113.1
32113.3
32113.2
32113.2
32113.2
32113
)
;
    }
    seabed_topright_surface
    {
        type            calculated;
        value           nonuniform List<scalar> 
72
(
-0.0966658
-0.0966615
-0.0966564
-0.0966544
-0.0966532
-0.0966527
-0.101335
-0.10133
-0.101326
-0.101326
-0.101326
-0.101327
-0.110849
-0.110845
-0.110844
-0.110844
-0.110846
-0.110848
-0.125488
-0.125486
-0.125487
-0.125489
-0.12549
-0.125493
-0.145674
-0.145676
-0.145677
-0.145675
-0.145673
-0.145671
-0.171999
-0.172001
-0.171995
-0.171984
-0.171972
-0.171963
-0.20547
-0.205463
-0.205443
-0.205419
-0.205395
-0.205377
-0.248145
-0.24812
-0.248084
-0.248048
-0.248018
-0.247997
-0.299289
-0.299249
-0.299209
-0.299178
-0.299159
-0.299148
-0.358608
-0.358576
-0.358562
-0.358565
-0.358581
-0.358599
-0.412138
-0.412136
-0.412156
-0.41219
-0.41223
-0.412265
-0.46938
-0.469416
-0.46944
-0.46946
-0.469474
-0.469484
)
;
    }
    breakwater_top_surface
    {
        type            calculated;
        value           nonuniform List<scalar> 
36
(
-41.0383
-41.0382
-41.0381
-41.0381
-41.038
-41.0375
-42.5615
-42.5614
-42.5615
-42.5612
-42.562
-42.5592
-41.6978
-41.6977
-41.6978
-41.6974
-41.7
-41.6941
-51.2629
-51.2609
-51.2644
-51.2583
-51.2837
-51.2362
-30.4149
-30.415
-30.4177
-30.4181
-30.4425
-30.3801
-56.3507
-56.3564
-56.3809
-56.3502
-56.3537
-56.3952
)
;
    }
    breakwater_left_surface
    {
        type            calculated;
        value           nonuniform List<scalar> 
24
(
28170.4
28170.6
28170.5
28170.5
28170.5
28170.3
13391.7
13391.8
13391.7
13391.7
13391.5
13391.4
1869.51
1869.68
1869.49
1869.56
1869.39
1869.47
328.719
328.68
328.662
328.697
328.834
328.486
)
;
    }
    breakwater_right_surface
    {
        type            calculated;
        value           nonuniform List<scalar> 
24
(
-5.37438
-5.37442
-5.37444
-5.37446
-5.37447
-5.37448
-15.156
-15.156
-15.156
-15.1561
-15.156
-15.156
-25.2544
-25.2544
-25.2543
-25.2543
-25.2542
-25.2541
-34.8849
-34.8849
-34.8848
-34.8847
-34.8845
-34.8844
)
;
    }
    water_front_surface
    {
        type            calculated;
        value           nonuniform List<scalar> 
186
(
29386.2
27894.8
23612
19466
16144.6
13475.2
11029.5
8748.99
7745.37
10290.7
17140.3
28156.9
18978
16261.4
11634.5
7724.93
4488.17
3205.02
2095.18
1091.44
335.251
465.135
2211.98
13381.2
9326.28
3398.88
1618.46
695.173
-5.20214
-58.2435
-47.315
-13.9479
31.773
115.372
359.935
1862.59
2298.53
21.3696
-65.2759
-38.5726
-21.9748
-21.0538
-28.3152
-23.5687
-14.5845
40.634
16.9561
327.048
-5.01852
-5.02319
-5.03271
-5.04734
-5.06753
-5.09385
-5.12733
-5.17
-5.22114
-5.28046
-5.33399
-5.39124
-14.8236
-14.8284
-14.8381
-14.8531
-14.8739
-14.9008
-14.9327
-14.9677
-15.006
-15.05
-15.1002
-15.1725
-24.6243
-24.629
-24.6385
-24.6534
-24.6746
-24.7037
-24.7438
-24.8035
-24.8862
-24.9966
-25.1133
-25.2706
-34.4209
-34.4251
-34.4339
-34.4479
-34.4681
-34.4959
-34.5311
-34.5703
-34.6156
-34.6776
-34.7589
-34.9008
-53.9178
-60.4087
-70.6861
-56.6706
-56.5758
-70.438
-53.4142
-59.2417
-68.0189
-51.3453
-58.183
-68.367
-45.8374
-52.3247
-66.5831
-45.9051
-52.6485
-66.1563
-39.7711
-50.509
-64.5064
-28.8539
-45.4264
-62.2061
-16.5027
-39.8758
-62.065
11.4285
-26.7173
-58.303
-14.1796
-31.6958
-70.5362
-65.423
-69.7269
-103.69
-45.9433
-56.9115
-62.639
-47.4665
-59.7443
-61.5877
-46.6028
-65.1726
-61.4856
-56.1682
-70.055
-67.8893
-35.3205
-70.2771
-71.7546
-87.5289
-72.8137
-92.7902
-44.1981
-53.9882
-63.7766
-44.2015
-53.9904
-63.7773
-44.2087
-53.995
-63.779
-44.2203
-54.0026
-63.7816
-44.2376
-54.0141
-63.7853
-44.2633
-54.0313
-63.7901
-44.302
-54.0568
-63.7954
-44.3659
-54.0966
-63.7988
-44.4658
-54.1615
-63.7898
-44.635
-54.2841
-63.7574
-44.8921
-54.5848
-63.6074
-45.4165
-55.2597
-63.2806
)
;
    }
    water_back_surface
    {
        type            calculated;
        value           nonuniform List<scalar> 
186
(
29386.3
27894.9
23612
19466
16144.6
13475.1
11029.4
8748.92
7745.26
10290.5
17139.9
28156.8
18978
16261.5
11634.5
7724.92
4488.12
3204.95
2095.1
1091.36
335.222
465.135
2211.64
13380.9
9326.43
3399.04
1618.47
695.171
-5.20892
-58.2435
-47.3084
-13.9434
31.7671
115.353
359.932
1862.55
2298.7
21.364
-65.2807
-38.5761
-21.9759
-21.0544
-28.3152
-23.5681
-14.5921
40.638
16.9593
326.817
-5.01851
-5.02318
-5.0327
-5.04735
-5.06753
-5.09382
-5.12723
-5.16985
-5.221
-5.28045
-5.33412
-5.39134
-14.8236
-14.8284
-14.8381
-14.8531
-14.8739
-14.9007
-14.9327
-14.9676
-15.006
-15.0501
-15.1005
-15.1725
-24.6243
-24.629
-24.6385
-24.6534
-24.6746
-24.7036
-24.7437
-24.8036
-24.8863
-24.9968
-25.1134
-25.2703
-34.4209
-34.4251
-34.4339
-34.4479
-34.4681
-34.4959
-34.5311
-34.5704
-34.6158
-34.6778
-34.7587
-34.9003
-53.909
-60.4062
-70.6854
-56.67
-56.5745
-70.438
-53.4156
-59.2417
-68.0189
-51.3476
-58.1837
-68.3668
-45.8399
-52.3253
-66.5827
-45.9065
-52.6492
-66.156
-39.7722
-50.5092
-64.5062
-28.8557
-45.4269
-62.2062
-16.5045
-39.8768
-62.0664
11.4361
-26.7285
-58.3032
-14.1838
-31.6975
-70.5296
-65.3964
-69.7035
-103.681
-45.9425
-56.911
-62.6408
-47.4642
-59.7417
-61.5943
-46.5991
-65.1615
-61.4978
-56.1415
-70.0423
-67.903
-35.2856
-70.2719
-71.7682
-87.4979
-72.7599
-92.7504
-44.1981
-53.9882
-63.7766
-44.2015
-53.9904
-63.7773
-44.2087
-53.9951
-63.779
-44.2203
-54.0026
-63.7816
-44.2376
-54.0141
-63.7853
-44.2633
-54.0313
-63.7901
-44.302
-54.0568
-63.7954
-44.366
-54.0966
-63.7988
-44.4658
-54.1615
-63.7898
-44.6349
-54.2841
-63.7574
-44.8919
-54.5847
-63.6075
-45.4162
-55.2596
-63.281
)
;
    }
    water_left_surface
    {
        type            calculated;
        value           nonuniform List<scalar> 
42
(
29403.1
29403.1
29403.1
29403.1
29403.1
29403.1
18994.5
18994.5
18994.5
18994.5
18994.5
18994.6
9342.4
9342.43
9342.44
9342.43
9342.44
9342.54
2306.21
2306.22
2306.25
2306.23
2306.24
2306.38
-53.9178
-53.9166
-53.9154
-53.9142
-53.912
-53.909
-60.4087
-60.4084
-60.4081
-60.407
-60.4061
-60.4062
-70.6861
-70.686
-70.6859
-70.6857
-70.6854
-70.6854
)
;
    }
    water_right_surface
    {
        type            calculated;
        value           nonuniform List<scalar> 
42
(
-5.00167
-5.00166
-5.00166
-5.00165
-5.00165
-5.00165
-14.8071
-14.8071
-14.8071
-14.8071
-14.8071
-14.8071
-24.6082
-24.6082
-24.6081
-24.6081
-24.6081
-24.6082
-34.405
-34.405
-34.405
-34.405
-34.405
-34.405
-44.1981
-44.1981
-44.1981
-44.1981
-44.1981
-44.1981
-53.9882
-53.9882
-53.9882
-53.9882
-53.9882
-53.9882
-63.7766
-63.7766
-63.7766
-63.7766
-63.7766
-63.7766
)
;
    }
    water_top_surface
    {
        type            calculated;
        value           nonuniform List<scalar> 
180
(
-76.7329
-76.7331
-76.7333
-76.7332
-76.7332
-76.7333
-79.7704
-79.7708
-79.7708
-79.7709
-79.7712
-79.7704
-69.5108
-69.5109
-69.5109
-69.5109
-69.5109
-69.5107
-72.5342
-72.5347
-72.5347
-72.5347
-72.5346
-72.534
-71.2173
-71.2175
-71.2174
-71.2173
-71.2172
-71.2167
-71.3763
-71.3762
-71.3759
-71.3758
-71.3757
-71.3755
-71.457
-71.4571
-71.457
-71.4569
-71.4569
-71.4567
-70.6845
-70.6848
-70.6848
-70.6846
-70.6843
-70.6839
-71.0775
-71.0777
-71.0776
-71.0774
-71.0772
-71.0773
-71.2964
-71.2966
-71.2965
-71.2961
-71.2954
-71.2963
-77.9026
-77.9009
-77.901
-77.897
-77.9088
-77.8811
-68.6719
-68.6719
-68.6719
-68.6719
-68.6719
-68.6719
-68.7196
-68.7196
-68.7196
-68.7196
-68.7196
-68.7196
-68.8495
-68.8495
-68.8494
-68.8495
-68.8496
-68.8494
-68.6718
-68.6718
-68.6718
-68.6718
-68.6718
-68.6718
-74.4552
-74.4598
-74.457
-74.4578
-74.4977
-74.4106
-110.106
-110.12
-110.11
-110.117
-110.286
-109.915
-83.2862
-83.2912
-83.2898
-83.2927
-83.3154
-83.2648
-68.6701
-68.6701
-68.6701
-68.6701
-68.6701
-68.6701
-68.6701
-68.6701
-68.6701
-68.6701
-68.6701
-68.6701
-68.6702
-68.6702
-68.6702
-68.6702
-68.6702
-68.6702
-68.6702
-68.6702
-68.6702
-68.6702
-68.6702
-68.6702
-68.6704
-68.6704
-68.6704
-68.6704
-68.6704
-68.6704
-68.6706
-68.6706
-68.6706
-68.6706
-68.6706
-68.6706
-68.671
-68.671
-68.671
-68.671
-68.671
-68.671
-68.6718
-68.6718
-68.6718
-68.6718
-68.6718
-68.6718
-68.6733
-68.6733
-68.6733
-68.6733
-68.6733
-68.6733
-68.6765
-68.6765
-68.6765
-68.6765
-68.6765
-68.6765
-68.682
-68.682
-68.682
-68.682
-68.682
-68.682
-68.6926
-68.6925
-68.6925
-68.6925
-68.6925
-68.6925
)
;
    }
}


// ************************************************************************* //
