/*--------------------------------*- C++ -*----------------------------------*\
| =========                 |                                                 |
| \\      /  F ield         | OpenFOAM: The Open Source CFD Toolbox           |
|  \\    /   O peration     | Version:  v1612+                                |
|   \\  /    A nd           | Web:      www.OpenFOAM.com                      |
|    \\/     M anipulation  |                                                 |
\*---------------------------------------------------------------------------*/
FoamFile
{
    version     2.0;
    format      ascii;
    class       volScalarField;
    location    "2";
    object      p_rgh;
}
// * * * * * * * * * * * * * * * * * * * * * * * * * * * * * * * * * * * * * //

dimensions      [1 -1 -2 0 0 0 0];

internalField   nonuniform List<scalar> 
1116
(
34307.8
34307.8
34307.8
34307.8
34307.8
34307.8
32816.4
32816.4
32816.4
32816.4
32816.5
32816.4
28533.2
28533.3
28533.3
28533.2
28533.2
28533.2
24386.3
24386.3
24386.3
24386.3
24386.3
24386.3
21062.6
21062.6
21062.6
21062.6
21062.6
21062.6
18388.4
18388.4
18388.4
18388.4
18388.4
18388.4
15884
15884
15884
15883.9
15883.9
15883.9
13409.5
13409.4
13409.4
13409.4
13409.4
13409.4
11995.6
11995.5
11995.5
11995.4
11995.4
11995.4
14550.3
14550.2
14550.2
14550.1
14550.1
14550.1
21393.8
21393.7
21393.6
21393.6
21393.4
21393.3
32113.1
32113.3
32113.2
32113.2
32113.2
32113
33708.7
33708.7
33708.7
33708.7
33708.7
33708.7
30959.2
30959.2
30959.2
30959.2
30959.2
30959.3
25972.6
25972.5
25972.5
25972.5
25972.5
25972.5
20951.9
20951.8
20951.8
20951.8
20951.8
20951.9
16376.8
16376.8
16376.8
16376.8
16376.7
16376.8
12794.7
12794.6
12794.6
12794.6
12794.5
12794.5
8450.38
8450.17
8450.17
8450.17
8450.13
8450.03
4371.08
4370.92
4370.9
4370.89
4370.87
4370.79
1237.57
1237.55
1237.53
1237.51
1237.5
1237.48
1550.11
1550.03
1550.04
1550.03
1550.04
1550.01
4203.85
4203.71
4203.63
4203.54
4203.42
4203.35
22765.3
22765.4
22765.3
22765.3
22765
22765.2
33757.2
33757.3
33757.3
33757.3
33757.3
33757.4
16743
16742.9
16743
16743
16743
16743.3
9770.09
9769.92
9769.96
9770.01
9769.99
9770.15
4355.09
4354.93
4354.98
4355.03
4355.03
4355.09
101.832
101.776
101.786
101.8
101.799
101.801
-33.7023
-33.701
-33.7007
-33.7014
-33.702
-33.7023
-22.7738
-22.7706
-22.7688
-22.7682
-22.768
-22.7672
10.5933
10.5946
10.5963
10.5973
10.5973
10.5978
56.3142
56.3115
56.3104
56.3096
56.3092
56.3083
139.921
139.916
139.908
139.903
139.902
139.902
390.664
390.661
390.641
390.633
390.64
390.662
12351.4
12351.5
12351.3
12351.6
12351.8
12350.6
18927.7
18927.7
18927.9
18927.8
18927.8
18928.5
55.9938
55.994
55.9937
55.9942
55.993
55.9884
-30.9056
-30.9047
-30.9056
-30.9067
-30.9084
-30.9104
-4.22064
-4.22023
-4.22091
-4.22203
-4.22305
-4.22415
12.3761
12.3765
12.3765
12.3761
12.3756
12.375
13.2971
13.2976
13.2977
13.2974
13.297
13.2965
6.03564
6.03602
6.03631
6.03627
6.03594
6.03566
10.7821
10.7822
10.7826
10.7829
10.7827
10.7828
19.7664
19.7642
19.7634
19.7619
19.761
19.7588
74.9779
74.98
74.9824
74.9839
74.985
74.982
51.8476
51.8528
51.8555
51.8582
51.8804
51.8515
3943.95
3943.37
3943.42
3943.73
3945.77
3940.24
-0.0966658
-0.0966615
-0.0966564
-0.0966544
-0.0966532
-0.0966527
-0.101335
-0.10133
-0.101326
-0.101326
-0.101326
-0.101327
-0.110849
-0.110845
-0.110844
-0.110844
-0.110846
-0.110848
-0.125488
-0.125486
-0.125487
-0.125489
-0.12549
-0.125493
-0.145674
-0.145676
-0.145677
-0.145675
-0.145673
-0.145671
-0.171999
-0.172001
-0.171995
-0.171984
-0.171972
-0.171963
-0.20547
-0.205463
-0.205443
-0.205419
-0.205395
-0.205377
-0.248145
-0.24812
-0.248084
-0.248048
-0.248018
-0.247997
-0.299289
-0.299249
-0.299209
-0.299178
-0.299159
-0.299148
-0.358608
-0.358576
-0.358562
-0.358565
-0.358581
-0.358599
-0.412138
-0.412136
-0.412156
-0.41219
-0.41223
-0.412265
-0.46938
-0.469416
-0.46944
-0.46946
-0.469474
-0.469484
-0.0921328
-0.0921289
-0.0921239
-0.0921229
-0.0921232
-0.0921242
-0.0968739
-0.09687
-0.0968675
-0.0968675
-0.0968694
-0.0968724
-0.10658
-0.106578
-0.106578
-0.106579
-0.106582
-0.106587
-0.121613
-0.121612
-0.121613
-0.121614
-0.121617
-0.12162
-0.142416
-0.142416
-0.142414
-0.142411
-0.142408
-0.142407
-0.169269
-0.169265
-0.169255
-0.169243
-0.169232
-0.169225
-0.201227
-0.201214
-0.201193
-0.201173
-0.201157
-0.201146
-0.236201
-0.236177
-0.236153
-0.236136
-0.236127
-0.236122
-0.274495
-0.274471
-0.274464
-0.274472
-0.27449
-0.274505
-0.318491
-0.318476
-0.318497
-0.318538
-0.318588
-0.318628
-0.368711
-0.368733
-0.368785
-0.368848
-0.368909
-0.368958
-0.440977
-0.441024
-0.441049
-0.441052
-0.441037
-0.441018
-0.0831566
-0.0831522
-0.0831483
-0.0831483
-0.0831498
-0.0831517
-0.0877731
-0.0877701
-0.087769
-0.0877705
-0.0877738
-0.087778
-0.0972914
-0.0972907
-0.0972918
-0.0972948
-0.0972992
-0.0973044
-0.112232
-0.112233
-0.112235
-0.112238
-0.112241
-0.112245
-0.133439
-0.133441
-0.133441
-0.13344
-0.133439
-0.133439
-0.162464
-0.162463
-0.162457
-0.16245
-0.162445
-0.162441
-0.202579
-0.202571
-0.202561
-0.202554
-0.202549
-0.202546
-0.262361
-0.262348
-0.262342
-0.262346
-0.262355
-0.262363
-0.345009
-0.344996
-0.345009
-0.345039
-0.345079
-0.34511
-0.455414
-0.455411
-0.45545
-0.455504
-0.455562
-0.455612
-0.572128
-0.572169
-0.572207
-0.572232
-0.572243
-0.572248
-0.729363
-0.729386
-0.729347
-0.729278
-0.729194
-0.729119
-0.0700041
-0.0700001
-0.0699982
-0.0699994
-0.070002
-0.0700051
-0.0742372
-0.0742361
-0.0742366
-0.0742393
-0.0742439
-0.0742492
-0.0830346
-0.083035
-0.0830377
-0.0830417
-0.0830469
-0.0830524
-0.0970234
-0.0970268
-0.09703
-0.0970336
-0.0970374
-0.097041
-0.11726
-0.117264
-0.117266
-0.117268
-0.117269
-0.11727
-0.144984
-0.144989
-0.14499
-0.144991
-0.144992
-0.144993
-0.180231
-0.180238
-0.180245
-0.180253
-0.180262
-0.180266
-0.219438
-0.219454
-0.219478
-0.219505
-0.219529
-0.219544
-0.264765
-0.264796
-0.264843
-0.264892
-0.264935
-0.264963
-0.326711
-0.326755
-0.326805
-0.326848
-0.326877
-0.326893
-0.408002
-0.407997
-0.40798
-0.407945
-0.4079
-0.407869
-0.54991
-0.549862
-0.549772
-0.549653
-0.549509
-0.549406
-9.76236
-9.76112
-9.75993
-9.75872
-9.75655
-9.75348
-6.4418
-6.44151
-6.44127
-6.44015
-6.43924
-6.43939
-6.92105
-6.92101
-6.92092
-6.92067
-6.92038
-6.9204
-12.5108
-12.5101
-12.5099
-12.5101
-12.51
-12.5101
12.6462
12.647
12.6479
12.6492
12.6502
12.6505
-6.67299
-6.67303
-6.67303
-6.67303
-6.67304
-6.67296
-9.23151
-9.23103
-9.23128
-9.23166
-9.23228
-9.23294
-4.8643
-4.86441
-4.86424
-4.86495
-4.86554
-4.86405
-4.25385
-4.25386
-4.25387
-4.25388
-4.25389
-4.2539
-7.16231
-7.16211
-7.16247
-7.1631
-7.16374
-7.16461
-4.09284
-4.09282
-4.09289
-4.09302
-4.09324
-4.09354
-4.60199
-4.60209
-4.60209
-4.60207
-4.60199
-4.60184
-1.65481
-1.6549
-1.65538
-1.65605
-1.65665
-1.65733
1.75207
1.75186
1.75176
1.75164
1.7515
1.7514
-2.81807
-2.81807
-2.81802
-2.81794
-2.81784
-2.8177
-1.76007
-1.76032
-1.76058
-1.76086
-1.76118
-1.76151
1.30651
1.30622
1.30602
1.30588
1.30581
1.30584
-2.39134
-2.39129
-2.39121
-2.39113
-2.39107
-2.39101
4.37393
4.37377
4.37362
4.3734
4.37312
4.37281
3.44603
3.44593
3.44588
3.44579
3.44578
3.44577
-0.741398
-0.74134
-0.741285
-0.741233
-0.741198
-0.741222
15.2912
15.2912
15.291
15.2906
15.2901
15.2894
8.52861
8.5286
8.52861
8.52844
8.5283
8.52807
1.55895
1.55888
1.55882
1.55882
1.55885
1.55882
27.6458
27.6459
27.6462
27.646
27.6455
27.6441
14.0792
14.0791
14.0788
14.0784
14.0772
14.0782
1.70003
1.69961
1.69917
1.69895
1.69862
1.69859
55.5739
55.577
55.5793
55.5808
55.5814
55.5814
27.2388
27.2374
27.2355
27.2327
27.2344
27.2276
5.46646
5.46688
5.46671
5.46718
5.4674
5.46619
29.9896
29.9934
29.9966
29.998
30.0062
29.9855
22.2599
22.2638
22.2618
22.2665
22.2656
22.2583
-6.76952
-6.76693
-6.76906
-6.76319
-6.76901
-6.76284
-20.5583
-20.5625
-20.561
-20.5594
-20.5754
-20.5307
-15.742
-15.7442
-15.7491
-15.7438
-15.7752
-15.7184
-39.9232
-39.923
-39.9314
-39.9189
-39.9415
-39.9143
-1.79829
-1.7982
-1.79809
-1.79808
-1.79796
-1.79754
-2.95654
-2.95683
-2.95638
-2.95686
-2.95599
-2.95603
1.126
1.12581
1.12643
1.12536
1.12716
1.12418
-3.32145
-3.32136
-3.32148
-3.3212
-3.32205
-3.31915
-5.78925
-5.7904
-5.78967
-5.79012
-5.78945
-5.78667
2.17729
2.17714
2.17867
2.17618
2.18275
2.17074
-2.45776
-2.45771
-2.4578
-2.45737
-2.46005
-2.45407
-11.2175
-11.2209
-11.2201
-11.2197
-11.2245
-11.2064
2.28105
2.28017
2.28272
2.27993
2.29474
2.26878
-12.0199
-12.018
-12.0214
-12.0153
-12.0407
-11.9933
-16.0986
-16.1014
-16.1005
-16.1019
-16.1062
-16.0859
1.24773
1.24829
1.2495
1.24698
1.30035
1.19262
8.82957
8.82947
8.82681
8.82643
8.80197
8.86433
32.2936
32.2973
32.2823
32.3057
32.4857
32.0837
30.4868
30.498
30.4879
30.5008
30.6712
30.2962
193.074
193.071
193.026
193.086
193.591
192.427
186.398
186.419
186.375
186.44
186.851
185.892
-15.453
-15.4496
-15.46
-15.4383
-15.4592
-15.433
-0.0531155
-0.0531132
-0.053113
-0.0531153
-0.0531188
-0.0531225
-0.0332052
-0.0332044
-0.0332054
-0.0332078
-0.033211
-0.0332146
-0.0115542
-0.0115543
-0.0115549
-0.0115559
-0.0115573
-0.0115591
-0.0565239
-0.0565243
-0.0565262
-0.0565298
-0.0565348
-0.0565404
-0.0354088
-0.03541
-0.0354122
-0.0354154
-0.0354196
-0.0354242
-0.0123343
-0.012335
-0.012336
-0.0123373
-0.0123389
-0.0123409
-0.0636725
-0.0636747
-0.0636782
-0.0636826
-0.0636876
-0.0636925
-0.0400475
-0.0400499
-0.0400528
-0.0400561
-0.0400597
-0.0400632
-0.0139624
-0.0139634
-0.0139644
-0.0139656
-0.0139668
-0.013968
-0.0752675
-0.0752722
-0.0752761
-0.0752797
-0.075283
-0.0752855
-0.0476341
-0.0476379
-0.0476404
-0.0476425
-0.047644
-0.0476446
-0.016562
-0.016563
-0.0165636
-0.0165641
-0.0165643
-0.0165639
-0.0926329
-0.0926386
-0.0926417
-0.0926439
-0.092645
-0.0926447
-0.0591254
-0.059129
-0.0591301
-0.0591303
-0.0591295
-0.0591269
-0.0202659
-0.0202663
-0.0202663
-0.0202659
-0.0202651
-0.0202633
-0.11831
-0.118317
-0.118321
-0.118324
-0.118325
-0.118323
-0.0762902
-0.0762927
-0.0762933
-0.0762927
-0.0762907
-0.0762869
-0.0250986
-0.0250985
-0.0250982
-0.0250976
-0.0250963
-0.0250938
-0.156996
-0.157006
-0.157015
-0.157022
-0.157025
-0.157023
-0.101828
-0.101831
-0.101832
-0.101832
-0.10183
-0.101825
-0.030431
-0.030431
-0.0304308
-0.0304301
-0.0304283
-0.030425
-0.220947
-0.220963
-0.220977
-0.220985
-0.220987
-0.220983
-0.141606
-0.14161
-0.141613
-0.141613
-0.14161
-0.141606
-0.0337704
-0.0337707
-0.0337705
-0.0337694
-0.0337676
-0.0337655
-0.320758
-0.320772
-0.320778
-0.320776
-0.320767
-0.320755
-0.206521
-0.206524
-0.206524
-0.20652
-0.206514
-0.206508
-0.0248384
-0.0248381
-0.0248373
-0.0248366
-0.0248357
-0.0248346
-0.490044
-0.490035
-0.490013
-0.489985
-0.489951
-0.489924
-0.329127
-0.329121
-0.329109
-0.329097
-0.329077
-0.329067
0.00758507
0.00758856
0.00759026
0.0075885
0.0075898
0.00758251
-0.747144
-0.747098
-0.747032
-0.746997
-0.746933
-0.7469
-0.629806
-0.629788
-0.629735
-0.629747
-0.629667
-0.629694
0.157612
0.157618
0.157626
0.157598
0.15762
0.157519
-1.27146
-1.2714
-1.27129
-1.27131
-1.27124
-1.27118
-1.30474
-1.3048
-1.30466
-1.30479
-1.30453
-1.30465
0.484429
0.484393
0.484484
0.484288
0.484536
0.484023
)
;

boundaryField
{
    seabed_topleft_surface
    {
        type            fixedFluxPressure;
        gradient        uniform 0;
        value           nonuniform List<scalar> 
72
(
34307.8
34307.8
34307.8
34307.8
34307.8
34307.8
32816.4
32816.4
32816.4
32816.4
32816.5
32816.4
28533.2
28533.3
28533.3
28533.2
28533.2
28533.2
24386.3
24386.3
24386.3
24386.3
24386.3
24386.3
21062.6
21062.6
21062.6
21062.6
21062.6
21062.6
18388.4
18388.4
18388.4
18388.4
18388.4
18388.4
15884
15884
15884
15883.9
15883.9
15883.9
13409.5
13409.4
13409.4
13409.4
13409.4
13409.4
11995.6
11995.5
11995.5
11995.4
11995.4
11995.4
14550.3
14550.2
14550.2
14550.1
14550.1
14550.1
21393.8
21393.7
21393.6
21393.6
21393.4
21393.3
32113.1
32113.3
32113.2
32113.2
32113.2
32113
)
;
    }
    seabed_topright_surface
    {
        type            fixedFluxPressure;
        gradient        uniform 0;
        value           nonuniform List<scalar> 
72
(
-0.0966658
-0.0966615
-0.0966564
-0.0966544
-0.0966532
-0.0966527
-0.101335
-0.10133
-0.101326
-0.101326
-0.101326
-0.101327
-0.110849
-0.110845
-0.110844
-0.110844
-0.110846
-0.110848
-0.125488
-0.125486
-0.125487
-0.125489
-0.12549
-0.125493
-0.145674
-0.145676
-0.145677
-0.145675
-0.145673
-0.145671
-0.171999
-0.172001
-0.171995
-0.171984
-0.171972
-0.171963
-0.20547
-0.205463
-0.205443
-0.205419
-0.205395
-0.205377
-0.248145
-0.24812
-0.248084
-0.248048
-0.248018
-0.247997
-0.299289
-0.299249
-0.299209
-0.299178
-0.299159
-0.299148
-0.358608
-0.358576
-0.358562
-0.358565
-0.358581
-0.358599
-0.412138
-0.412136
-0.412156
-0.41219
-0.41223
-0.412265
-0.46938
-0.469416
-0.46944
-0.46946
-0.469474
-0.469484
)
;
    }
    breakwater_top_surface
    {
        type            fixedFluxPressure;
        gradient        uniform 0;
        value           nonuniform List<scalar> 
36
(
-1.79829
-1.7982
-1.79809
-1.79808
-1.79796
-1.79754
-3.32145
-3.32136
-3.32148
-3.3212
-3.32205
-3.31915
-2.45776
-2.45771
-2.4578
-2.45737
-2.46005
-2.45407
-12.0199
-12.018
-12.0214
-12.0153
-12.0407
-11.9933
8.82957
8.82947
8.82681
8.82643
8.80197
8.86433
193.074
193.071
193.026
193.086
193.591
192.427
)
;
    }
    breakwater_left_surface
    {
        type            fixedFluxPressure;
        gradient        uniform 0;
        value           nonuniform List<scalar> 
24
(
32113.1
32113.3
32113.2
32113.2
32113.2
32113
22765.3
22765.4
22765.3
22765.3
22765
22765.2
12351.4
12351.5
12351.3
12351.6
12351.8
12350.6
3943.95
3943.37
3943.42
3943.73
3945.77
3940.24
)
;
    }
    breakwater_right_surface
    {
        type            fixedFluxPressure;
        gradient        uniform 0;
        value           nonuniform List<scalar> 
24
(
-0.46938
-0.469416
-0.46944
-0.46946
-0.469474
-0.469484
-0.440977
-0.441024
-0.441049
-0.441052
-0.441037
-0.441018
-0.729363
-0.729386
-0.729347
-0.729278
-0.729194
-0.729119
-0.54991
-0.549862
-0.549772
-0.549653
-0.549509
-0.549406
)
;
    }
    water_front_surface
    {
        type            fixedFluxPressure;
        gradient        uniform 0;
        value           nonuniform List<scalar> 
186
(
34307.8
32816.4
28533.2
24386.3
21062.6
18388.4
15884
13409.5
11995.6
14550.3
21393.8
32113.1
33708.7
30959.2
25972.6
20951.9
16376.8
12794.7
8450.38
4371.08
1237.57
1550.11
4203.85
22765.3
33757.2
16743
9770.09
4355.09
101.832
-33.7023
-22.7738
10.5933
56.3142
139.921
390.664
12351.4
18927.7
55.9938
-30.9056
-4.22064
12.3761
13.2971
6.03564
10.7821
19.7664
74.9779
51.8476
3943.95
-0.0966658
-0.101335
-0.110849
-0.125488
-0.145674
-0.171999
-0.20547
-0.248145
-0.299289
-0.358608
-0.412138
-0.46938
-0.0921328
-0.0968739
-0.10658
-0.121613
-0.142416
-0.169269
-0.201227
-0.236201
-0.274495
-0.318491
-0.368711
-0.440977
-0.0831566
-0.0877731
-0.0972914
-0.112232
-0.133439
-0.162464
-0.202579
-0.262361
-0.345009
-0.455414
-0.572128
-0.729363
-0.0700041
-0.0742372
-0.0830346
-0.0970234
-0.11726
-0.144984
-0.180231
-0.219438
-0.264765
-0.326711
-0.408002
-0.54991
-9.76236
-6.4418
-6.92105
-12.5108
12.6462
-6.67299
-9.23151
-4.8643
-4.25385
-7.16231
-4.09284
-4.60199
-1.65481
1.75207
-2.81807
-1.76007
1.30651
-2.39134
4.37393
3.44603
-0.741398
15.2912
8.52861
1.55895
27.6458
14.0792
1.70003
55.5739
27.2388
5.46646
29.9896
22.2599
-6.76952
-20.5583
-15.742
-39.9232
-1.79829
-2.95654
1.126
-3.32145
-5.78925
2.17729
-2.45776
-11.2175
2.28105
-12.0199
-16.0986
1.24773
8.82957
32.2936
30.4868
193.074
186.398
-15.453
-0.0531155
-0.0332052
-0.0115542
-0.0565239
-0.0354088
-0.0123343
-0.0636725
-0.0400475
-0.0139624
-0.0752675
-0.0476341
-0.016562
-0.0926329
-0.0591254
-0.0202659
-0.11831
-0.0762902
-0.0250986
-0.156996
-0.101828
-0.030431
-0.220947
-0.141606
-0.0337704
-0.320758
-0.206521
-0.0248384
-0.490044
-0.329127
0.00758507
-0.747144
-0.629806
0.157612
-1.27146
-1.30474
0.484429
)
;
    }
    water_back_surface
    {
        type            fixedFluxPressure;
        gradient        uniform 0;
        value           nonuniform List<scalar> 
186
(
34307.8
32816.4
28533.2
24386.3
21062.6
18388.4
15883.9
13409.4
11995.4
14550.1
21393.3
32113
33708.7
30959.3
25972.5
20951.9
16376.8
12794.5
8450.03
4370.79
1237.48
1550.01
4203.35
22765.2
33757.4
16743.3
9770.15
4355.09
101.801
-33.7023
-22.7672
10.5978
56.3083
139.902
390.662
12350.6
18928.5
55.9884
-30.9104
-4.22415
12.375
13.2965
6.03566
10.7828
19.7588
74.982
51.8515
3940.24
-0.0966527
-0.101327
-0.110848
-0.125493
-0.145671
-0.171963
-0.205377
-0.247997
-0.299148
-0.358599
-0.412265
-0.469484
-0.0921242
-0.0968724
-0.106587
-0.12162
-0.142407
-0.169225
-0.201146
-0.236122
-0.274505
-0.318628
-0.368958
-0.441018
-0.0831517
-0.087778
-0.0973044
-0.112245
-0.133439
-0.162441
-0.202546
-0.262363
-0.34511
-0.455612
-0.572248
-0.729119
-0.0700051
-0.0742492
-0.0830524
-0.097041
-0.11727
-0.144993
-0.180266
-0.219544
-0.264963
-0.326893
-0.407869
-0.549406
-9.75348
-6.43939
-6.9204
-12.5101
12.6505
-6.67296
-9.23294
-4.86405
-4.2539
-7.16461
-4.09354
-4.60184
-1.65733
1.7514
-2.8177
-1.76151
1.30584
-2.39101
4.37281
3.44577
-0.741222
15.2894
8.52807
1.55882
27.6441
14.0782
1.69859
55.5814
27.2276
5.46619
29.9855
22.2583
-6.76284
-20.5307
-15.7184
-39.9143
-1.79754
-2.95603
1.12418
-3.31915
-5.78667
2.17074
-2.45407
-11.2064
2.26878
-11.9933
-16.0859
1.19262
8.86433
32.0837
30.2962
192.427
185.892
-15.433
-0.0531225
-0.0332146
-0.0115591
-0.0565404
-0.0354242
-0.0123409
-0.0636925
-0.0400632
-0.013968
-0.0752855
-0.0476446
-0.0165639
-0.0926447
-0.0591269
-0.0202633
-0.118323
-0.0762869
-0.0250938
-0.157023
-0.101825
-0.030425
-0.220983
-0.141606
-0.0337655
-0.320755
-0.206508
-0.0248346
-0.489924
-0.329067
0.00758251
-0.7469
-0.629694
0.157519
-1.27118
-1.30465
0.484023
)
;
    }
    water_left_surface
    {
        type            fixedFluxPressure;
        gradient        uniform 0;
        value           nonuniform List<scalar> 
42
(
34307.8
34307.8
34307.8
34307.8
34307.8
34307.8
33708.7
33708.7
33708.7
33708.7
33708.7
33708.7
33757.2
33757.3
33757.3
33757.3
33757.3
33757.4
18927.7
18927.7
18927.9
18927.8
18927.8
18928.5
-9.76236
-9.76112
-9.75993
-9.75872
-9.75655
-9.75348
-6.4418
-6.44151
-6.44127
-6.44015
-6.43924
-6.43939
-6.92105
-6.92101
-6.92092
-6.92067
-6.92038
-6.9204
)
;
    }
    water_right_surface
    {
        type            fixedFluxPressure;
        gradient        uniform 0;
        value           nonuniform List<scalar> 
42
(
-0.0966658
-0.0966615
-0.0966564
-0.0966544
-0.0966532
-0.0966527
-0.0921328
-0.0921289
-0.0921239
-0.0921229
-0.0921232
-0.0921242
-0.0831566
-0.0831522
-0.0831483
-0.0831483
-0.0831498
-0.0831517
-0.0700041
-0.0700001
-0.0699982
-0.0699994
-0.070002
-0.0700051
-0.0531155
-0.0531132
-0.053113
-0.0531153
-0.0531188
-0.0531225
-0.0332052
-0.0332044
-0.0332054
-0.0332078
-0.033211
-0.0332146
-0.0115542
-0.0115543
-0.0115549
-0.0115559
-0.0115573
-0.0115591
)
;
    }
    water_top_surface
    {
        type            totalPressure;
        rho             rho;
        psi             none;
        gamma           1;
        p0              uniform 0;
        value           nonuniform List<scalar> 
180
(
-8.06294
-8.06308
-8.06328
-8.06316
-8.06322
-8.06333
-11.1004
-11.1008
-11.1008
-11.1009
-11.1012
-11.1004
-0.840827
-0.840914
-0.840897
-0.840885
-0.840851
-0.840662
-3.86423
-3.86472
-3.86473
-3.86468
-3.86458
-3.86404
-2.54725
-2.54754
-2.54743
-2.54729
-2.54717
-2.5467
-2.70625
-2.70621
-2.70595
-2.70576
-2.70569
-2.70546
-2.78703
-2.78712
-2.78699
-2.7869
-2.78686
-2.78671
-2.01452
-2.01484
-2.0148
-2.01463
-2.01432
-2.01391
-2.40749
-2.40767
-2.40762
-2.40739
-2.40723
-2.40734
-2.62636
-2.62665
-2.62645
-2.62609
-2.62543
-2.62628
-9.23257
-9.23094
-9.23103
-9.22698
-9.23878
-9.21111
0
0
0
0
0
0
-0.0496042
-0.049602
-0.049582
-0.0495969
-0.0495965
-0.0495993
-0.179469
-0.179516
-0.179415
-0.179516
-0.179605
-0.17941
0
0
0
0
0
0
0
0
0
0
0
0
0
0
0
0
0
0
0
0
0
0
0
0
-0.000120778
-0.000120771
-0.000120771
-0.000120771
-0.000120771
-0.000120778
-0.000136562
-0.000136553
-0.000136553
-0.000136553
-0.000136554
-0.000136562
-0.000172661
-0.000172649
-0.000172648
-0.000172649
-0.000172651
-0.000172662
-0.000240215
-0.000240193
-0.000240192
-0.000240194
-0.000240199
-0.000240221
-0.000361565
-0.00036153
-0.000361531
-0.000361539
-0.000361555
-0.000361602
-0.000581659
-0.000581615
-0.00058163
-0.00058166
-0.000581706
-0.000581805
-0.000989901
-0.00098989
-0.00098996
-0.000990043
-0.000990147
-0.000990338
-0.00179052
-0.00179067
-0.00179086
-0.00179102
-0.00179116
-0.00179141
-0.00329776
-0.00329828
-0.00329858
-0.00329866
-0.00329854
-0.00329847
-0.00647545
-0.00647626
-0.00647633
-0.00647576
-0.00647462
-0.00647351
-0.0119975
-0.0119973
-0.0119963
-0.0119947
-0.0119919
-0.0119905
-0.0225546
-0.0225493
-0.0225463
-0.0225464
-0.0225404
-0.0225437
)
;
    }
}


// ************************************************************************* //
