/*--------------------------------*- C++ -*----------------------------------*\
| =========                 |                                                 |
| \\      /  F ield         | OpenFOAM: The Open Source CFD Toolbox           |
|  \\    /   O peration     | Version:  v1612+                                |
|   \\  /    A nd           | Web:      www.OpenFOAM.com                      |
|    \\/     M anipulation  |                                                 |
\*---------------------------------------------------------------------------*/
FoamFile
{
    version     2.0;
    format      ascii;
    class       surfaceScalarField;
    location    "2";
    object      phi;
}
// * * * * * * * * * * * * * * * * * * * * * * * * * * * * * * * * * * * * * //

dimensions      [0 3 -1 0 0 0 0];

internalField   nonuniform List<scalar> 
2916
(
-2.12396e-06
0.579025
-0.579023
-3.06664e-08
0.579027
-0.579029
1.03174e-06
0.579027
-0.579028
1.04738e-06
0.579027
-0.579027
1.34378e-06
0.579027
-0.579027
0.579026
-0.579025
-3.83919e-06
1.24038
-0.66135
-3.53196e-07
1.24038
-0.66136
-1.01118e-07
1.24038
-0.661356
-7.37595e-08
1.24038
-0.661355
2.66598e-06
1.24038
-0.661357
1.24038
-0.661349
-2.963e-06
1.71725
-0.47687
-1.08016e-06
1.71726
-0.476877
-3.0619e-06
1.71726
-0.476872
-3.1183e-06
1.71726
-0.476874
1.9869e-06
1.71725
-0.476878
1.71725
-0.476866
-5.94649e-06
2.10739
-0.390134
-5.35393e-06
2.1074
-0.390143
-7.92823e-06
2.1074
-0.390139
-6.7853e-06
2.1074
-0.390143
-3.99559e-07
2.1074
-0.390149
2.10738
-0.390138
-9.28146e-06
2.4192
-0.311797
-8.87507e-06
2.41921
-0.311809
-1.15224e-05
2.41921
-0.311806
-1.00373e-05
2.41921
-0.31181
-4.12662e-06
2.41921
-0.311818
2.41919
-0.311809
-1.18734e-05
2.72577
-0.306561
-1.20589e-05
2.72579
-0.306576
-1.41434e-05
2.72578
-0.306573
-1.27202e-05
2.72578
-0.306577
-5.86741e-06
2.72579
-0.306585
2.72576
-0.306579
-1.07024e-05
3.0711
-0.345315
-1.13979e-05
3.07112
-0.345335
-1.26942e-05
3.07112
-0.345334
-1.0967e-05
3.07112
-0.345337
-2.94955e-06
3.07112
-0.345345
3.0711
-0.345339
-1.15306e-05
3.41961
-0.348507
-9.10886e-06
3.41965
-0.348534
-1.09972e-05
3.41965
-0.348531
-9.48496e-06
3.41965
-0.348535
-4.17926e-07
3.41966
-0.348543
3.41963
-0.348533
-9.0083e-06
3.45912
-0.0394971
-4.53049e-06
3.45917
-0.0395171
-7.09491e-06
3.45916
-0.0395099
-6.90983e-06
3.45916
-0.0395139
1.55569e-06
3.45917
-0.0395251
3.45914
-0.0395075
-2.31143e-06
2.83789
0.621235
-3.48471e-07
2.83795
0.621212
-2.01307e-06
2.83794
0.621228
-2.81004e-06
2.83794
0.621226
-2.7813e-06
2.83796
0.621213
2.83792
0.621219
1.43883e-05
1.69824
1.13964
9.54789e-06
1.69831
1.13965
1.11068e-06
1.69828
1.13966
-9.27789e-06
1.69829
1.13966
-1.60837e-05
1.69831
1.13966
1.69826
1.13964
-8.86113e-05
1.69832
-4.56194e-05
1.69826
-3.87413e-05
1.69828
-1.567e-05
1.69827
4.45019e-05
1.69825
1.69831
-2.43368e-06
0.751159
-1.33018
-8.12815e-07
0.751163
-1.33019
-1.41858e-06
0.751162
-1.33019
-3.64974e-06
0.751161
-1.33019
-4.60553e-06
0.751161
-1.33019
0.751158
-1.33019
-4.75527e-07
1.38281
-1.293
-2.33087e-06
1.38282
-1.29301
-5.15438e-06
1.38282
-1.29301
-6.10594e-06
1.38281
-1.29301
-5.39115e-06
1.38281
-1.29301
1.3828
-1.293
-1.19633e-07
1.81493
-0.90899
-5.5678e-06
1.81495
-0.909
-9.29748e-06
1.81494
-0.908996
-9.92291e-06
1.81494
-0.908999
-8.39014e-06
1.81494
-0.909006
1.81492
-0.908991
-8.84322e-06
2.28843
-0.863625
-1.2587e-05
2.28846
-0.863648
-1.13602e-05
2.28845
-0.863646
-9.09128e-06
2.28844
-0.86365
-8.61899e-06
2.28845
-0.863658
2.28842
-0.863647
-2.51876e-06
2.55724
-0.580607
-1.36801e-05
2.55727
-0.580614
-1.25438e-05
2.55727
-0.580624
-7.05588e-06
2.55726
-0.580635
-1.01956e-05
2.55727
-0.580638
2.55724
-0.580639
6.76928e-06
2.98527
-0.734599
-7.51313e-06
2.98533
-0.734617
-8.97215e-06
2.98532
-0.734623
-4.87909e-06
2.98531
-0.734631
-8.27648e-06
2.98532
-0.734634
2.98529
-0.734634
2.26529e-05
3.60487
-0.964942
-6.72594e-06
3.60499
-0.964969
-1.44352e-05
3.60496
-0.964973
-9.87456e-06
3.60496
-0.964991
-1.0371e-05
3.60498
-0.965001
3.60493
-0.964991
5.34773e-05
4.30891
-1.05259
1.95838e-07
4.3091
-1.05259
-2.71027e-05
4.30904
-1.05258
-2.27541e-05
4.30904
-1.05262
-1.68327e-05
4.30907
-1.05264
4.30899
-1.05261
9.56287e-05
4.73023
-0.460917
4.72681e-05
4.73044
-0.460809
-8.38589e-06
4.73034
-0.46076
-2.07403e-05
4.73034
-0.460798
-1.31214e-05
4.73037
-0.460836
4.73026
-0.460788
4.17941e-05
4.49825
0.853173
2.25913e-05
4.4984
0.853264
-8.27049e-06
4.49834
0.853268
-3.40013e-05
4.49834
0.853254
-5.79611e-05
4.49835
0.853256
4.49831
0.853112
3.06317e-05
2.62455
3.01331
1.49619e-05
2.6247
3.01337
-3.26099e-05
2.62465
3.01339
-8.27926e-05
2.62466
3.01339
2.85023e-05
2.62466
3.01324
2.62465
3.01333
-6.59437e-05
4.32294
-1.60812e-05
4.32291
1.01694e-05
4.3229
4.59854e-05
4.32289
2.23097e-05
4.32294
4.32298
-5.13752e-07
0.659776
-1.98995
5.28498e-07
0.659776
-1.98997
-2.87116e-07
0.659778
-1.98997
-2.19213e-06
0.65978
-1.98996
-4.69081e-06
0.659778
-1.98996
0.659772
-1.98996
1.18266e-05
1.43901
-2.07224
-1.96599e-06
1.43902
-2.07225
-1.05498e-07
1.43902
-2.07225
2.93774e-06
1.43902
-2.07225
-1.02746e-05
1.43902
-2.07224
1.43901
-2.07225
5.48432e-06
2.01072
-1.4807
-3.88014e-06
2.01073
-1.4807
2.02994e-06
2.01073
-1.48071
5.83442e-06
2.01073
-1.48071
-1.16585e-05
2.01074
-1.48071
2.01072
-1.48071
3.31018e-05
2.98751
-1.84045
2.05875e-05
2.98758
-1.84048
2.27287e-05
2.98758
-1.84049
1.92186e-05
2.98757
-1.84049
-1.31613e-05
2.98759
-1.84047
2.98758
-1.84052
0.00011849
3.47638
-1.06959
0.000110907
3.47651
-1.06954
9.81906e-05
3.47652
-1.06956
7.61562e-05
3.47653
-1.06957
2.11157e-05
3.47654
-1.06953
3.47654
-1.06958
0.000127701
4.96015
-2.2185
0.00014295
4.96035
-2.21847
0.000106092
4.96034
-2.2184
6.09777e-05
4.9603
-2.21835
2.71304e-06
4.9603
-2.21833
4.96024
-2.21833
-0.000138248
6.20905
-2.21371
-0.000142889
6.20913
-2.21374
-0.000149601
6.20911
-2.21374
-0.000160064
6.20906
-2.21374
-0.000186884
6.2091
-2.21377
6.20885
-2.21378
-0.000295338
6.03006
-0.8733
-0.000430789
6.03
-0.873323
-0.000383032
6.02985
-0.873362
-0.0003254
6.02979
-0.873414
-0.000323269
6.02992
-0.873467
6.02941
-0.873497
3.15493e-05
4.9202
0.64891
-0.000246305
4.92035
0.649124
-0.000220942
4.91988
0.649184
-0.000176518
4.91982
0.649136
-0.000122057
4.9199
0.64913
4.91963
0.648861
0.000357773
2.82602
2.94699
0.000341217
2.82638
2.94725
0.000218202
2.82593
2.94734
4.3082e-05
2.82595
2.94729
-1.00157e-05
2.8259
2.9473
2.82616
2.94658
0.000199255
1.82417
4.01496
0.000298544
1.82435
4.0153
0.000107862
1.82429
4.01522
-1.92974e-05
1.82423
4.01524
2.22182e-05
1.82469
4.01441
1.82391
4.0156
-4.59079e-05
6.14715
7.51472e-06
6.14721
5.65049e-05
6.14715
-1.67468e-06
6.14718
-0.0002757
6.1479
6.14661
7.19903e-06
0.459352
-2.44931
3.35375e-06
0.459342
-2.44931
9.36081e-06
0.45933
-2.4493
1.00286e-05
0.459346
-2.44931
-1.92097e-06
0.459336
-2.44929
0.459252
-2.44922
-5.7715e-06
1.02822
-2.6411
-3.20067e-06
1.02821
-2.64111
1.53297e-05
1.02819
-2.64113
2.4771e-05
1.02821
-2.64112
2.23017e-05
1.02822
-2.64113
1.02818
-2.64116
-3.82915e-05
1.768
-2.22045
2.82816e-05
1.76793
-2.22049
6.71337e-05
1.76795
-2.22051
8.13678e-05
1.76799
-2.22051
7.83724e-05
1.76802
-2.2205
1.76805
-2.2205
0.000100098
1.46623
-1.53878
0.000192672
1.46622
-1.53887
0.00017792
1.46629
-1.53882
0.000112745
1.46635
-1.53879
6.86474e-05
1.46637
-1.53878
1.46639
-1.53879
0.000199617
0.696613
-0.300173
0.000298187
0.696727
-0.300139
0.000275252
0.696863
-0.30011
0.000185871
0.696945
-0.30008
0.000108044
0.696954
-0.300042
0.696961
-0.300048
-5.99377e-05
-0.357005
-1.16482
-3.5499e-05
-0.356956
-1.16481
-2.2194e-05
-0.35681
-1.16474
1.0689e-05
-0.356747
-1.1647
5.96058e-05
-0.356746
-1.16469
-0.356665
-1.16465
-0.000123942
-1.0656
-1.50498
-0.000118896
-1.06563
-1.50507
-8.28278e-05
-1.06551
-1.50508
-8.15819e-06
-1.06548
-1.50509
5.56031e-05
-1.06547
-1.50512
-1.06529
-1.50511
-9.52887e-05
-0.868468
-1.07034
-5.9339e-05
-0.868497
-1.07049
4.02633e-06
-0.868406
-1.07053
5.1874e-05
-0.868379
-1.07056
-1.06617e-05
-0.868287
-1.07059
-0.868168
-1.07062
9.15384e-05
0.060985
-0.280637
7.79976e-05
0.061186
-0.280552
0.000237039
0.0610903
-0.280473
0.00025717
0.0611672
-0.280427
0.00019615
0.0611687
-0.280261
0.0616254
-0.280732
0.000321464
1.03032
1.97733
0.000391554
1.0306
1.97777
0.00055552
1.03036
1.9779
0.00065087
1.03033
1.97803
0.000597602
1.03018
1.97835
1.03157
1.97723
0.000535349
1.26611
3.77863
0.000670448
1.26642
3.77935
0.000424738
1.26637
3.77946
0.000328954
1.26619
3.77947
0.00207952
1.2666
3.77625
1.26662
3.78264
2.17687e-05
7.41325
2.50808e-05
7.41362
4.22677e-05
7.4135
-0.000188629
7.4136
-0.000315727
7.41462
7.41291
8.76971e-07
0.00168106
-0.00168194
1.6041e-07
0.00168085
-0.001682
-1.49575e-07
0.0016808
-0.00168204
-2.56693e-07
0.00168075
-0.00168209
-2.47315e-07
0.00168071
-0.00168212
0.00168066
-0.00168227
4.03272e-07
0.00342791
-0.00174852
-9.82328e-08
0.00342767
-0.00174856
-3.20855e-07
0.00342768
-0.00174858
-4.40638e-07
0.00342766
-0.00174862
-5.13145e-07
0.00342766
-0.00174866
0.00342775
-0.00174879
1.06224e-07
0.00529944
-0.00187258
-1.62357e-07
0.00529919
-0.0018725
-2.97337e-07
0.00529922
-0.00187248
-3.79405e-07
0.00529923
-0.0018725
-4.23053e-07
0.00529924
-0.00187252
0.00529938
-0.0018726
1.09842e-08
0.00734022
-0.00204133
-4.95736e-08
0.00733997
-0.00204099
-1.58002e-07
0.00734
-0.0020409
-2.53599e-07
0.00733997
-0.00204086
-2.79246e-07
0.00733992
-0.00204086
0.00734005
-0.00204093
1.95238e-07
0.00957574
-0.00223578
1.5028e-07
0.00957541
-0.00223489
-7.83011e-08
0.00957527
-0.00223462
-2.88409e-07
0.00957508
-0.0022345
-2.97786e-07
0.00957481
-0.00223449
0.00957477
-0.00223462
4.98738e-07
0.0120026
-0.00242704
8.26809e-08
0.0120019
-0.00242526
-5.54385e-07
0.0120013
-0.00242473
-9.81707e-07
0.0120007
-0.00242458
-8.57992e-07
0.012
-0.00242469
0.0119995
-0.00242513
3.37448e-07
0.0146417
-0.00263902
-9.71774e-07
0.0146402
-0.00263641
-2.29147e-06
0.0146389
-0.00263577
-2.9449e-06
0.0146377
-0.00263582
-2.36766e-06
0.0146362
-0.00263638
0.0146349
-0.00263758
-7.92731e-07
0.0172841
-0.00264127
-3.39373e-06
0.0172812
-0.0026384
-5.41238e-06
0.017279
-0.00263811
-6.12409e-06
0.0172771
-0.0026388
-4.74118e-06
0.0172749
-0.00264026
0.0172724
-0.00264272
-2.97608e-06
0.0191564
-0.00186933
-6.55987e-06
0.0191516
-0.00186765
-8.74495e-06
0.0191488
-0.00186844
-9.09784e-06
0.0191468
-0.00187022
-6.81305e-06
0.0191445
-0.00187284
0.0191412
-0.0018766
-4.86542e-06
0.0182731
0.000887813
-7.95329e-06
0.0182665
0.000886625
-9.1048e-06
0.0182636
0.000884984
-8.62828e-06
0.0182617
0.000883245
-6.15161e-06
0.0182594
0.000881247
0.0182555
0.000878696
-5.777e-06
0.0139983
0.00427975
-7.56228e-06
0.0139927
0.00427382
-7.54791e-06
0.0139907
0.00427141
-6.5501e-06
0.0139895
0.00426983
-4.37945e-06
0.0139878
0.00426826
0.0139845
0.00426612
-2.76385e-08
0.0139975
-3.68299e-08
0.0139918
2.64875e-08
0.0139899
4.11983e-07
0.0139884
7.87573e-07
0.0139869
0.0139852
5.82037e-07
0.00168774
-0.00337152
-3.151e-08
0.00168755
-0.0033715
-3.04805e-07
0.00168754
-0.0033715
-4.48875e-07
0.00168749
-0.00337152
-5.44362e-07
0.00168747
-0.00337153
0.00168743
-0.00337163
1.87762e-07
0.00345649
-0.00351942
-2.65014e-07
0.00345629
-0.00351936
-4.34423e-07
0.00345629
-0.00351936
-5.74774e-07
0.00345627
-0.00351937
-7.09153e-07
0.00345627
-0.00351938
0.00345636
-0.00351947
-6.27681e-08
0.00538975
-0.00380702
-3.15934e-07
0.00538951
-0.00380684
-4.1754e-07
0.0053895
-0.0038068
-4.98207e-07
0.00538948
-0.00380678
-5.5531e-07
0.00538947
-0.00380678
0.00538961
-0.00380686
-2.12677e-07
0.00756897
-0.00422077
-3.16004e-07
0.00756867
-0.00422029
-3.78968e-07
0.0075686
-0.00422015
-4.094e-07
0.0075685
-0.00422008
-3.70016e-07
0.0075684
-0.00422005
0.00756852
-0.00422017
-3.5457e-07
0.0100469
-0.00471311
-4.83266e-07
0.0100465
-0.00471197
-6.01532e-07
0.0100462
-0.0047116
-6.09473e-07
0.0100459
-0.00471141
-4.0915e-07
0.0100456
-0.00471139
0.0100455
-0.00471164
-7.14145e-07
0.0127468
-0.00512553
-1.19891e-06
0.0127459
-0.00512334
-1.52152e-06
0.0127452
-0.00512263
-1.51436e-06
0.0127444
-0.00512241
-1.00103e-06
0.0127436
-0.00512257
0.0127429
-0.00512332
-1.75477e-06
0.0152529
-0.0051428
-2.89535e-06
0.0152509
-0.00513975
-3.42866e-06
0.0152494
-0.00513899
-3.29273e-06
0.0152479
-0.00513908
-2.23581e-06
0.0152464
-0.00513992
0.0152448
-0.00514178
-3.60562e-06
0.0171037
-0.00448828
-5.30036e-06
0.0170998
-0.00448579
-5.74317e-06
0.0170972
-0.00448578
-5.20618e-06
0.017095
-0.00448678
-3.53618e-06
0.0170926
-0.0044887
0.0170898
-0.00449193
-5.48541e-06
0.0182356
-0.0029963
-6.79733e-06
0.0182285
-0.00299603
-6.36559e-06
0.0182246
-0.00299722
-5.16006e-06
0.0182216
-0.00299912
-3.35176e-06
0.0182186
-0.00300175
0.0182148
-0.00300549
-5.43268e-06
0.018693
0.000434665
-5.36013e-06
0.0186824
0.000431375
-4.07927e-06
0.018678
0.000429045
-2.81365e-06
0.0186755
0.000427014
-1.78129e-06
0.0186731
0.000424776
0.0186699
0.0004217
-2.62902e-06
0.0157627
0.00721141
-9.74077e-07
0.0157526
0.0072009
8.23767e-07
0.015749
0.00719785
1.56132e-06
0.0157472
0.00719684
1.22991e-06
0.0157456
0.00719585
0.0157438
0.00719373
4.86784e-06
0.0297543
4.96073e-06
0.0297439
4.0737e-06
0.0297395
3.10617e-06
0.0297365
1.99268e-06
0.0297337
0.0297314
4.13597e-07
0.00161902
-0.00499206
-1.1668e-07
0.00161883
-0.00499195
-3.44034e-07
0.00161882
-0.00499193
-4.60871e-07
0.00161879
-0.00499193
-5.39211e-07
0.00161878
-0.00499192
0.00161882
-0.00499209
9.88728e-08
0.00333312
-0.00523528
-2.86067e-07
0.00333288
-0.00523514
-4.32633e-07
0.00333288
-0.00523513
-5.45374e-07
0.00333289
-0.00523513
-6.51362e-07
0.00333291
-0.00523512
0.00333311
-0.00523526
-6.59864e-08
0.00523397
-0.00570886
-3.08565e-07
0.0052337
-0.00570863
-4.09581e-07
0.0052337
-0.00570859
-4.74553e-07
0.0052337
-0.00570856
-5.13343e-07
0.00523371
-0.00570855
0.00523398
-0.00570867
-1.91066e-07
0.00740199
-0.00638899
-3.60248e-07
0.00740173
-0.00638849
-4.42061e-07
0.00740167
-0.00638835
-4.57208e-07
0.00740159
-0.00638827
-4.03089e-07
0.00740152
-0.00638824
0.00740172
-0.0063884
-4.19799e-07
0.00994377
-0.00725431
-6.35204e-07
0.0099434
-0.00725319
-7.24012e-07
0.00994318
-0.00725282
-6.61463e-07
0.00994293
-0.00725264
-4.26841e-07
0.00994267
-0.00725263
0.00994274
-0.007253
-9.48358e-07
0.0130624
-0.00824279
-1.39569e-06
0.0130617
-0.00824083
-1.51156e-06
0.0130612
-0.0082402
-1.30986e-06
0.0130606
-0.00824001
-7.61292e-07
0.01306
-0.00824024
0.0130598
-0.00824117
-1.90482e-06
0.0173293
-0.00940748
-2.60433e-06
0.0173278
-0.00940504
-2.61691e-06
0.0173268
-0.00940449
-2.1527e-06
0.0173258
-0.00940472
-1.26492e-06
0.0173248
-0.00940569
0.0173242
-0.00940784
-3.0512e-06
0.0232535
-0.0104094
-3.45352e-06
0.0232498
-0.0104077
-2.8665e-06
0.023248
-0.010408
-1.96467e-06
0.0232469
-0.0104092
-1.04212e-06
0.023246
-0.0104114
0.0232458
-0.0104149
-2.97118e-06
0.0302463
-0.00998668
-1.80839e-06
0.0302399
-0.00998771
-2.37845e-07
0.0302381
-0.00998926
7.874e-07
0.0302378
-0.0099914
8.64055e-07
0.0302382
-0.00999425
0.0302398
-0.00999823
-1.03667e-06
0.0332446
-0.00256315
3.62073e-06
0.0332356
-0.00256873
7.52002e-06
0.0332346
-0.00257111
8.84363e-06
0.0332365
-0.00257263
6.67714e-06
0.03324
-0.00257415
0.0332452
-0.00257616
5.29757e-06
0.0306429
0.00980753
1.04175e-05
0.0306323
0.00979997
1.38212e-05
0.030631
0.00979895
1.42098e-05
0.0306335
0.00980051
1.04326e-05
0.0306383
0.00980241
0.0306459
0.00980419
-1.00377e-06
0.0603985
-2.57933e-06
0.0603789
-3.32639e-06
0.0603723
-3.33593e-06
0.0603709
-2.56452e-06
0.0603719
0.0603753
2.02737e-07
0.00146679
-0.00646004
-1.84297e-07
0.00146667
-0.00645993
-3.29994e-07
0.00146667
-0.0064599
-3.95866e-07
0.00146665
-0.00645989
-4.28613e-07
0.00146665
-0.00645987
0.00146667
-0.00646002
4.00478e-09
0.00304971
-0.00681955
-2.86446e-07
0.00304954
-0.0068194
-3.91475e-07
0.00304954
-0.00681937
-4.65845e-07
0.00304954
-0.00681935
-5.34667e-07
0.00304956
-0.00681933
0.00304969
-0.00681947
-1.16233e-07
0.00488475
-0.00754465
-3.28648e-07
0.0048845
-0.00754442
-3.96169e-07
0.00488446
-0.00754437
-4.26792e-07
0.00488444
-0.00754434
-4.41144e-07
0.00488445
-0.00754431
0.00488465
-0.00754447
-3.30356e-07
0.00715435
-0.00865865
-4.96417e-07
0.00715385
-0.00865816
-4.98872e-07
0.00715371
-0.00865804
-4.37848e-07
0.00715362
-0.00865796
-3.41256e-07
0.00715357
-0.00865791
0.00715387
-0.00865817
-5.91207e-07
0.0100546
-0.010154
-7.99805e-07
0.0100539
-0.0101531
-7.56033e-07
0.0100536
-0.0101529
-5.88132e-07
0.0100534
-0.0101527
-3.68774e-07
0.0100532
-0.0101527
0.0100534
-0.010153
-1.23364e-06
0.0136923
-0.0118791
-1.41807e-06
0.013691
-0.0118779
-1.13015e-06
0.0136905
-0.0118775
-6.68526e-07
0.0136901
-0.0118774
-2.20806e-07
0.0136898
-0.0118775
0.0136899
-0.0118782
-1.62229e-06
0.0177355
-0.013449
-1.54373e-06
0.0177332
-0.0134476
-8.72469e-07
0.0177323
-0.0134473
-1.45056e-07
0.0177318
-0.0134476
2.26169e-07
0.0177315
-0.0134483
0.0177317
-0.0134498
-1.46609e-06
0.0214413
-0.0141141
-2.70984e-07
0.0214373
-0.0141134
1.26845e-06
0.0214364
-0.014114
2.2673e-06
0.0214363
-0.0141151
2.02681e-06
0.0214368
-0.0141166
0.0214378
-0.014119
5.32774e-07
0.024646
-0.0131922
3.92271e-06
0.02464
-0.0131935
6.70534e-06
0.0246398
-0.0131951
7.60898e-06
0.0246415
-0.0131969
5.74653e-06
0.0246441
-0.0131989
0.0246474
-0.0132011
3.79091e-06
0.0285296
-0.00645036
1.03054e-05
0.0285197
-0.0064533
1.50569e-05
0.0285203
-0.00645479
1.59151e-05
0.0285254
-0.00645578
1.14551e-05
0.0285327
-0.00645664
0.0285409
-0.00645707
5.1568e-06
0.0266115
0.0117216
9.96861e-06
0.026603
0.0117144
1.29115e-05
0.0266049
0.0117135
1.27079e-05
0.0266121
0.011716
9.13303e-06
0.026622
0.0117182
0.0266335
0.0117216
-1.48603e-05
0.0870261
-2.14207e-05
0.0869903
-2.23219e-05
0.0869797
-1.98764e-05
0.0869819
-1.17747e-05
0.086987
0.0869981
-2.11615e-05
-2.44555
-0.00374442
-2.31936e-05
-2.44559
-0.00371703
1.17356e-05
-2.44563
-0.00370584
-2.75033e-05
-2.44555
-0.00372501
-0.000111209
-2.44548
-0.00371987
-2.44568
-0.00364908
2.20789e-05
-2.32435
-0.121223
2.64532e-05
-2.3244
-0.121203
-6.49141e-06
-2.32441
-0.121192
4.25337e-05
-2.32437
-0.121224
0.000146676
-2.32437
-0.121222
-2.32442
-0.121108
-2.43997e-05
-0.154884
-2.05223e-05
-0.154899
-1.85407e-05
-0.154899
-2.08987e-05
-0.154895
-1.08214e-05
-0.154898
-0.154908
-8.66491e-05
-2.81483
0.170069
-4.24802e-05
-2.81486
0.169978
8.69467e-06
-2.81485
0.16996
1.38339e-05
-2.81484
0.169989
5.44427e-06
-2.81486
0.170025
-2.81482
0.170017
-5.5855e-05
-2.69419
-0.241816
-1.21085e-05
-2.69424
-0.241866
1.95777e-05
-2.6942
-0.241873
2.32021e-05
-2.69418
-0.241891
2.20227e-05
-2.6942
-0.241882
-2.69412
-0.241787
-3.69953e-06
-0.313044
-2.6701e-05
-0.313045
-3.51157e-05
-0.313051
-2.61624e-05
-0.313052
-2.26674e-05
-0.31305
-0.313055
-4.79221e-05
-0.926574
-1.12376
1.90048e-05
-0.926604
-1.12398
2.76876e-05
-0.926587
-1.12397
4.95893e-05
-0.926583
-1.12395
0.000102745
-0.926602
-1.12392
-0.926591
-1.12379
-1.38111e-05
-0.585261
-0.583116
-1.38385e-05
-0.585269
-0.583203
-1.53366e-05
-0.585241
-0.58322
-1.42637e-05
-0.585234
-0.583245
-5.1232e-06
-0.585244
-0.583253
-0.585205
-0.583182
6.07405e-06
-0.182728
3.11857e-06
-0.182719
5.03453e-06
-0.182729
7.00033e-06
-0.182731
3.24039e-06
-0.182731
-0.182746
4.11932e-05
-1.338
-1.32458
-1.98991e-05
-1.33805
-1.32473
-6.96648e-05
-1.33802
-1.32472
-7.12787e-05
-1.33801
-1.32473
-1.46971e-05
-1.33803
-1.32473
-1.33798
-1.32461
-2.56488e-05
-1.42562
-0.495468
-6.73917e-05
-1.42569
-0.495524
-7.31084e-05
-1.42569
-0.495552
-6.40604e-05
-1.42569
-0.495579
-4.37279e-05
-1.42571
-0.495597
-1.42563
-0.495582
1.2285e-05
-0.0999311
2.59635e-06
-0.0999275
-6.03387e-06
-0.0999349
-1.42507e-05
-0.0999385
-2.07085e-05
-0.099941
-0.0999514
-5.29264e-05
-0.872425
-0.752271
-3.63166e-05
-0.872489
-0.752398
-1.54675e-05
-0.872442
-0.75241
-2.38101e-07
-0.872404
-0.752418
3.33287e-05
-0.872395
-0.752411
-0.872317
-0.752313
-2.71998e-05
-1.15968
-0.208192
-6.77743e-05
-1.15976
-0.208218
-7.64968e-05
-1.15976
-0.208228
-5.62075e-05
-1.15976
-0.208238
-2.66665e-05
-1.15977
-0.208245
-1.1597
-0.208222
-3.28393e-06
-0.0263929
-1.51823e-05
-0.0263931
-2.52163e-05
-0.0263947
-2.91005e-05
-0.0263952
-2.38686e-05
-0.0263948
-0.0263975
-0.000100812
-1.24082
-0.676174
-7.82795e-05
-1.24089
-0.676342
-3.29636e-05
-1.24087
-0.676331
1.00907e-05
-1.24084
-0.676311
4.57461e-05
-1.24084
-0.676291
-1.24076
-0.676148
-1.45936e-05
-1.29196
-0.15704
-3.67138e-05
-1.29202
-0.157065
-4.11189e-05
-1.29202
-0.157071
-3.21646e-05
-1.29202
-0.157072
-1.49959e-05
-1.29203
-0.157076
-1.29196
-0.157033
-6.33205e-06
-0.0522533
-1.73588e-05
-0.0522556
-2.43042e-05
-0.052255
-2.70056e-05
-0.052253
-2.3537e-05
-0.0522497
-0.0522472
6.9541e-06
-1.41555
-0.765611
7.48623e-05
-1.41561
-0.765872
0.000101568
-1.41561
-0.765826
0.000114263
-1.41562
-0.765791
0.000121888
-1.41563
-0.765778
-1.4156
-0.76553
-2.73514e-05
-1.28114
-0.291429
-1.80754e-05
-1.28117
-0.291511
-2.35532e-06
-1.28117
-0.291527
1.48935e-05
-1.28117
-0.291535
4.34054e-05
-1.28118
-0.291555
-1.28115
-0.29144
-1.57247e-05
-0.0559799
-1.47592e-05
-0.0559895
-1.11074e-05
-0.055993
-6.54121e-06
-0.0559965
-2.04111e-06
-0.0559969
-0.0559962
7.68597e-05
-1.13942
-0.69661
0.000104693
-1.13951
-0.696885
9.1821e-05
-1.13949
-0.696846
8.14927e-05
-1.13951
-0.696836
0.000106096
-1.13951
-0.696878
-1.1395
-0.696545
-2.50936e-05
-1.07123
-0.359588
-2.78286e-05
-1.07125
-0.35976
-2.78741e-05
-1.07125
-0.359768
-5.71441e-06
-1.07125
-0.359803
5.63287e-05
-1.07125
-0.359869
-1.07124
-0.359644
-1.1582e-05
-0.04201
-8.99057e-06
-0.0420392
-6.41155e-06
-0.0420476
2.24421e-06
-0.0420644
1.5962e-05
-0.0420782
-0.0420568
0.000149334
-1.1609
0.183511
0.000146447
-1.16092
0.183487
0.00015398
-1.16087
0.183543
0.000159942
-1.16083
0.183561
5.98583e-05
-1.16069
0.18365
-1.16092
0.183705
-8.52162e-05
-1.16022
-0.360184
-8.26546e-05
-1.16021
-0.360471
-0.000144657
-1.16021
-0.360363
-6.78947e-05
-1.1602
-0.360511
-3.01304e-05
-1.16015
-0.360447
-1.16024
-0.360347
-8.46645e-05
-0.00435426
-9.69159e-05
-0.00445805
-0.000126057
-0.00444967
-8.8749e-05
-0.00453282
-6.16834e-05
-0.00448494
-0.00455782
0.000210734
0.0665436
2.09409
0.000375797
0.0667937
2.0943
0.000482803
0.0669314
2.09441
0.000681407
0.0670796
2.09431
0.000869257
0.0673709
2.09444
0.0668708
2.09493
7.46795e-05
-1.01052
0.716803
0.000114291
-1.01041
0.716689
-5.04122e-05
-1.01032
0.717044
0.000102376
-1.01025
0.716664
0.00118181
-1.01002
0.71586
-1.01025
0.717952
-0.000108634
0.239074
-0.000104934
0.238936
-0.000165925
0.239053
-0.000135467
0.238896
-4.16091e-05
0.238997
0.238929
0.00046222
1.9061
3.96616
0.000746655
1.90684
3.96652
0.000608092
1.90738
3.96663
0.000476182
1.90741
3.96651
0.00147464
1.90184
3.96785
1.91372
3.96532
7.06993e-05
-0.741261
3.3641
5.99134e-05
-0.740846
3.36439
0.000288869
-0.740588
3.36478
0.000163536
-0.740275
3.36447
-0.00224114
-0.743695
3.3638
-0.736194
3.36563
6.7105e-05
1.88108
6.80919e-05
1.88119
0.000174085
1.88149
0.000183641
1.88127
-0.00174937
1.88135
1.88168
4.8575e-05
6.62315
4.75621
0.000214674
6.62353
4.75645
8.32678e-05
6.62376
4.7565
9.69993e-05
6.62377
4.75633
-0.000570305
6.62202
4.76111
6.6261
4.75156
0.00024075
4.62221
5.36479
0.000250715
4.62271
5.3652
0.000392233
4.62309
5.3653
0.000370529
4.6233
5.36496
-0.00399375
4.6171
5.37308
4.63042
5.35731
0.000326807
4.1163
0.000179781
4.11697
0.000593211
4.11689
0.00039726
4.11683
-0.00599755
4.12419
4.10966
-1.25906e-05
-0.165861
0.568054
-0.40218
-1.68011e-05
-0.165863
0.568042
-0.402173
-9.32877e-06
-0.165868
0.568024
-0.402161
-1.64671e-05
-0.165859
0.568036
-0.402168
-8.92352e-06
-0.165871
0.568024
-0.402159
-0.165845
0.567994
-0.402157
5.45235e-06
-0.247399
0.285603
-0.20407
-4.61157e-06
-0.247404
0.28562
-0.204067
5.35089e-06
-0.2474
0.285568
-0.204044
-7.94095e-06
-0.247399
0.285628
-0.204073
5.68747e-05
-0.247413
0.2855
-0.204021
-0.247371
0.285687
-0.204103
-8.4137e-06
-0.339926
0.186606
1.20069e-06
-0.339964
0.186626
4.47051e-05
-0.340025
0.186642
2.80109e-05
-0.339896
0.186597
0.000201233
-0.340167
0.186658
-0.339567
0.186491
-5.16722e-07
-0.304725
0.872782
-1.0301e-05
-0.304732
0.872788
-1.66516e-05
-0.304745
0.872777
-2.41747e-05
-0.304721
0.872767
-0.000135795
-0.304776
0.872913
-0.304657
0.872516
3.87743e-05
-0.440393
0.421235
-2.60598e-06
-0.440439
0.421371
-1.58608e-05
-0.440424
0.421263
-2.21361e-05
-0.440422
0.421338
0.00011552
-0.440524
0.421112
-0.440255
0.421403
-4.26876e-05
-0.601658
-5.38296e-06
-0.601778
2.21811e-05
-0.601867
3.79998e-05
-0.601657
0.000805038
-0.602771
-0.600379
-1.31901e-05
-0.403109
1.27591
-1.89978e-05
-0.403116
1.27591
-3.55843e-05
-0.403124
1.27592
-3.38903e-05
-0.4031
1.27587
-0.000130757
-0.403193
1.2762
-0.402973
1.27536
0.000219773
-0.459457
0.477365
3.43068e-05
-0.459174
0.477616
-6.15658e-05
-0.459258
0.477496
5.64627e-06
-0.459342
0.477516
-5.47096e-05
-0.458272
0.476255
-0.460658
0.479036
-1.0849e-05
-1.16335
1.54951e-05
-1.16381
-0.000208039
-1.16361
-3.80843e-05
-1.16364
0.00237094
-1.16839
-1.15809
6.15513e-05
-0.374351
1.6502
8.57239e-05
-0.37437
1.65026
0.000149354
-0.374526
1.65038
5.9171e-05
-0.374285
1.65025
-0.00260395
-0.372285
1.65116
-0.376902
1.64966
0.000452927
1.04991
-0.947346
6.114e-05
1.05087
-0.947229
-0.00040972
1.0503
-0.946861
-0.000116358
1.0505
-0.947566
0.000926651
1.05813
-0.955206
1.04141
-0.938347
0.000246639
-2.92273
-7.82997e-05
-2.92377
-0.000655037
-2.92297
-0.00032541
-2.92372
0.00311971
-2.93568
-2.91002
2.81151e-05
1.61455
0.0356228
0.000135521
1.61457
0.0355886
0.000174416
1.61445
0.0359001
0.000349852
1.61461
0.0354639
-0.0011103
1.6189
0.0337218
1.61026
0.0382862
5.53807e-05
4.817
-4.14985
-9.54298e-05
4.81764
-4.15015
-5.85765e-05
4.8172
-4.14965
-0.000338254
4.81765
-4.15033
-0.00183611
4.82784
-4.16265
4.80682
-4.13674
0.00013171
-4.3577
-0.000289791
-4.35874
-0.000457332
-4.35803
-0.000761195
-4.35867
-0.000826789
-4.37214
-4.34441
4.51129e-05
4.79179
-2.88705e-05
4.79211
0.000277202
4.7921
-7.98804e-05
4.79215
-0.00279826
4.79755
4.78705
-1.61774e-05
6.00675
-6.69015e-05
6.00721
0.000475764
6.00721
-0.000204878
6.00746
-0.00435353
6.01213
6.00327
0.000123445
-0.000105723
0.000323301
-0.000167481
-0.00522876
7.88594e-08
-0.00751818
0.00105729
-1.77363e-07
-0.00751807
0.00105722
-2.70181e-07
-0.00751804
0.00105721
-3.12292e-07
-0.00751802
0.00105721
-3.32479e-07
-0.007518
0.0010572
-0.00751812
0.00105722
3.35309e-08
-0.00819274
0.000674008
-1.12121e-07
-0.00819257
0.000673977
-1.78025e-07
-0.00819254
0.000673978
-2.21454e-07
-0.00819252
0.000673975
-2.56496e-07
-0.00819249
0.000673974
-0.00819265
0.000673981
-1.75453e-08
0.000234551
-5.91291e-08
0.000234543
-7.87742e-08
0.000234544
-9.8937e-08
0.000234544
-1.22581e-07
0.000234544
0.000234547
-4.66784e-08
-0.00796769
0.00220449
-2.39019e-07
-0.00796756
0.00220439
-3.03498e-07
-0.00796753
0.0022044
-3.48517e-07
-0.00796751
0.0022044
-3.89699e-07
-0.00796748
0.0022044
-0.00796759
0.00220449
-3.1385e-09
-0.00870645
0.00141216
-1.28212e-07
-0.00870625
0.00141211
-1.89619e-07
-0.00870622
0.00141211
-2.43241e-07
-0.00870619
0.00141212
-2.98932e-07
-0.00870616
0.00141212
-0.00870632
0.00141217
-2.19043e-08
0.00048862
-5.88331e-08
0.000488604
-7.83112e-08
0.000488606
-1.01024e-07
0.000488608
-1.29874e-07
0.000488609
0.000488629
-1.15855e-07
-0.0088938
0.00355307
-2.62293e-07
-0.00889365
0.00355295
-2.92003e-07
-0.00889363
0.00355294
-2.97661e-07
-0.0088936
0.00355294
-2.9628e-07
-0.00889357
0.00355295
-0.00889368
0.00355308
2.11246e-08
-0.00978058
0.00229846
-1.02155e-07
-0.00978035
0.00229838
-1.71623e-07
-0.00978032
0.00229838
-2.2947e-07
-0.00978029
0.00229839
-2.85619e-07
-0.00978027
0.00229839
-0.00978046
0.00229848
-1.99316e-08
0.000781961
-5.37744e-08
0.000781928
-7.18353e-08
0.000781929
-9.16028e-08
0.000781931
-1.16335e-07
0.000781933
0.000781972
-1.92604e-07
-0.0103664
0.00526064
-3.10622e-07
-0.0103661
0.00526045
-3.00239e-07
-0.010366
0.00526043
-2.55563e-07
-0.010366
0.00526044
-2.1351e-07
-0.010366
0.00526048
-0.0103662
0.00526068
-4.99224e-08
-0.0115314
0.00346319
-1.39489e-07
-0.0115311
0.00346307
-1.60413e-07
-0.0115311
0.00346307
-1.65012e-07
-0.0115311
0.00346308
-1.73717e-07
-0.011531
0.0034631
-0.0115313
0.00346323
-8.14231e-09
0.00112888
-4.01755e-08
0.00112884
-5.88158e-08
0.00112884
-7.70546e-08
0.00112884
-1.00093e-07
0.00112885
0.00112889
-2.79129e-07
-0.0125057
0.00761242
-3.4472e-07
-0.0125052
0.00761222
-2.54595e-07
-0.0125051
0.00761226
-1.35283e-07
-0.0125051
0.00761234
-6.98383e-08
-0.0125051
0.00761243
-0.0125054
0.00761271
-5.36712e-08
-0.0141662
0.00512356
-1.19469e-07
-0.0141659
0.0051234
-1.11654e-07
-0.0141658
0.00512342
-9.12976e-08
-0.0141658
0.00512345
-9.76753e-08
-0.0141658
0.00512348
-0.0141661
0.00512366
-5.21225e-09
0.0015257
-2.3854e-08
0.00152562
-3.00044e-08
0.00152562
-4.02216e-08
0.00152563
-6.51398e-08
0.00152564
0.00152572
-4.34252e-07
-0.0155037
0.0112372
-2.84185e-07
-0.0155032
0.0112369
4.27782e-08
-0.0155031
0.0112371
3.41683e-07
-0.015503
0.0112373
4.16655e-07
-0.0155031
0.0112375
-0.0155035
0.011238
1.98607e-08
-0.0180632
0.00768278
-2.30188e-08
-0.0180627
0.00768251
2.06036e-09
-0.0180627
0.00768256
2.71511e-09
-0.0180627
0.00768262
-8.78661e-08
-0.0180627
0.00768268
-0.0180631
0.00768297
1.82363e-08
0.00190923
1.03821e-08
0.00190911
4.50296e-09
0.00190912
-2.24647e-08
0.00190914
-7.79493e-08
0.00190915
0.00190929
-2.90219e-08
-0.0197828
0.0175707
3.82237e-07
-0.019782
0.0175704
8.87704e-07
-0.019782
0.0175707
1.15405e-06
-0.0197821
0.017571
9.07857e-07
-0.0197824
0.0175713
-0.0197832
0.0175719
2.35365e-08
-0.0238634
0.011763
1.34069e-07
-0.0238627
0.0117626
2.56122e-07
-0.0238627
0.0117627
2.55734e-07
-0.0238627
0.0117628
7.81682e-08
-0.0238628
0.0117629
-0.0238636
0.0117634
2.09391e-08
0.00205525
4.92641e-08
0.0020551
5.86774e-08
0.00205515
2.22991e-08
0.0020552
-5.71016e-08
0.00205526
0.0020555
8.49419e-07
-0.0264005
0.0298559
1.72793e-06
-0.0263996
0.0298554
2.32231e-06
-0.0263998
0.0298558
2.3881e-06
-0.0264002
0.029856
1.67791e-06
-0.0264008
0.0298561
-0.026402
0.029857
1.68167e-08
-0.033096
0.0184582
3.72288e-07
-0.033095
0.0184575
6.51343e-07
-0.0330951
0.0184577
6.94228e-07
-0.0330952
0.0184578