/*--------------------------------*- C++ -*----------------------------------*\
| =========                 |                                                 |
| \\      /  F ield         | OpenFOAM: The Open Source CFD Toolbox           |
|  \\    /   O peration     | Version:  v1612+                                |
|   \\  /    A nd           | Web:      www.OpenFOAM.com                      |
|    \\/     M anipulation  |                                                 |
\*---------------------------------------------------------------------------*/
FoamFile
{
    version     2.0;
    format      ascii;
    class       surfaceScalarField;
    location    "3.75";
    object      alphaPhi;
}
// * * * * * * * * * * * * * * * * * * * * * * * * * * * * * * * * * * * * * //

dimensions      [0 3 -1 0 0 0 0];

internalField   nonuniform List<scalar> 
2916
(
5.31041e-06
0.216897
-0.0298554
4.79775e-06
0.216898
-0.0298557
9.06151e-06
0.216899
-0.0298659
2.91411e-06
0.216899
-0.0298593
-8.60574e-06
0.216898
-0.0298564
0.216897
-0.0298682
1.10678e-05
0.412114
-0.00753082
6.91619e-06
0.412116
-0.00752765
6.7453e-06
0.412116
-0.00752787
2.70774e-06
0.412118
-0.00752856
-8.76417e-06
0.412119
-0.00752757
0.412114
-0.00752998
1.11957e-05
0.597672
-0.000299691
6.86256e-06
0.597683
-0.00029957
4.39539e-06
0.597681
-0.00029958
2.49642e-06
0.597682
-0.000299599
-3.64608e-06
0.597685
-0.000299555
0.597674
-0.000299652
1.11146e-05
0.761963
-1.79232e-05
7.34996e-06
0.761983
-1.78867e-05
3.7335e-06
0.761978
-1.7906e-05
2.44415e-06
0.76198
-1.78876e-05
-1.78246e-06
0.761984
-1.78633e-05
0.761966
-1.79358e-05
1.1928e-05
0.887474
-0.0224817
7.32202e-06
0.887499
-0.0224781
3.51796e-06
0.887493
-0.022478
1.6084e-06
0.887494
-0.0224786
-2.7738e-06
0.887497
-0.022478
0.887476
-0.0224789
1.21068e-05
0.968927
-0.00991866
7.04047e-06
0.968955
-0.00991352
2.75309e-06
0.968949
-0.00991397
-1.41126e-09
0.96895
-0.00991444
-4.80964e-06
0.968953
-0.00991369
0.968929
-0.00991607
1.1004e-05
0.923149
0.0538422
6.96647e-06
0.923175
0.0538532
1.50128e-06
0.92317
0.0538532
-2.71901e-06
0.923168
0.0538532
-7.01501e-06
0.923171
0.0538533
0.923145
0.0538473
6.09381e-06
0.676362
0.246786
5.6182e-06
0.676391
0.246791
-4.50705e-07
0.67639
0.246792
-5.41086e-06
0.676387
0.246793
-8.20624e-06
0.676391
0.246788
0.676353
0.24679
6.82001e-06
0.161487
0.51489
4.87124e-06
0.161508
0.514905
-8.31383e-07
0.161515
0.514902
-6.79143e-06
0.161511
0.514903
-1.4424e-05
0.161519
0.514901
0.161462
0.514898
2.13413e-05
-0.349153
0.51064
8.13552e-06
-0.349132
0.510675
9.32609e-07
-0.349122
0.510665
-6.59271e-06
-0.349126
0.510666
-2.53662e-05
-0.34911
0.51067
-0.349195
0.510652
3.43143e-05
-0.48074
0.131647
5.55617e-06
-0.480716
0.131708
-6.71854e-07
-0.480712
0.13169
-4.80189e-06
-0.480715
0.131687
-2.50179e-05
-0.480699
0.131703
-0.480763
0.131638
-4.65122e-06
-0.48172
-1.58427e-05
-0.481689
-1.18346e-05
-0.4817
-4.03824e-06
-0.481706
9.0112e-06
-0.481696
-0.481738
2.46562e-07
0.00784427
-6.39852e-07
-4.24111e-08
0.00784099
-6.39658e-07
1.85311e-07
0.00784121
-6.39784e-07
1.42164e-08
0.00784192
-6.39851e-07
-8.35873e-07
0.00784089
-6.39803e-07
0.0078434
-6.40055e-07
-7.32378e-09
0.000315819
-2.45196e-06
-5.98651e-09
0.000315692
-2.45188e-06
-5.82934e-09
0.000315702
-2.45194e-06
-3.24245e-09
0.000315722
-2.45194e-06
1.95845e-09
0.000315676
-2.45176e-06
0.000315777
-2.45204e-06
-1.01393e-09
1.6138e-05
-7.37482e-08
-4.70155e-10
1.61306e-05
-7.3887e-08
-7.18282e-10
1.61318e-05
-7.3836e-08
-1.98507e-10
1.61317e-05
-7.38827e-08
1.36115e-09
1.61282e-05
-7.3961e-08
1.61356e-05
-7.37186e-08
-4.04375e-11
1.58651e-06
2.08731e-08
-1.38038e-11
1.58337e-06
2.07524e-08
-1.61296e-11
1.5851e-06
2.08027e-08
5.35876e-12
1.58343e-06
2.07806e-08
6.31064e-11
1.5813e-06
2.0687e-08
1.58775e-06
2.09033e-08
-5.46106e-08
0.0374812
5.09725e-05
5.08379e-09
0.037486
5.0939e-05
1.97623e-07
0.0374842
5.09647e-05
3.38329e-07
0.0374865
5.09361e-05
2.98085e-07
0.0374907
5.09067e-05
0.0374851
5.0992e-05
1.497e-07
0.0986028
9.24479e-05
1.09984e-07
0.0986094
9.24532e-05
-3.91799e-08
0.0986072
9.2483e-05
2.15976e-07
0.0986082
9.24601e-05
6.16051e-07
0.0986124
9.24472e-05
0.0986073
9.25148e-05
7.5594e-07
0.208527
0.00139913
-7.6766e-08
0.208543
0.0013995
-2.92977e-07
0.208539
0.00139926
2.56488e-08
0.20854
0.00139925
-2.35907e-07
0.208545
0.0013994
0.208534
0.00139917
4.76313e-06
0.422378
0.00737045
7.5269e-07
0.422399
0.00737865
-2.76705e-07
0.422391
0.00737423
-7.76926e-07
0.422391
0.00737408
-4.58751e-06
0.422397
0.00737665
0.42238
0.00737264
1.67133e-05
0.624594
0.0570773
6.74494e-06
0.624678
0.0571116
1.84531e-06
0.624646
0.0570929
-2.65203e-06
0.624645
0.0570922
-1.64432e-05
0.624671
0.0570988
0.624607
0.0570848
6.48402e-05
0.441265
0.540059
1.82778e-05
0.441421
0.540112
8.55841e-06
0.441367
0.540091
-1.97037e-06
0.441366
0.540091
-3.72516e-05
0.441417
0.540093
0.44129
0.540078
9.14521e-05
0.158835
0.414084
2.19776e-05
0.159002
0.414294
1.27639e-05
0.158963
0.414201
2.23617e-06
0.158962
0.4142
-4.38406e-05
0.15901
0.414255
0.158866
0.414117
-2.61003e-05
-0.322835
-1.8447e-05
-0.322671
-4.24938e-06
-0.322727
8.52602e-06
-0.322733
2.94038e-05
-0.322684
-0.322819
-2.73679e-12
-4.96158e-09
-6.92448e-07
-1.19415e-12
-4.96248e-09
-6.92264e-07
-5.43348e-13
-4.96304e-09
-6.92394e-07
8.21262e-13
-4.96267e-09
-6.92466e-07
3.21375e-12
-4.96179e-09
-6.92414e-07
-4.96229e-09
-6.92655e-07
-3.92007e-12
-1.9175e-09
-2.52045e-06
-1.30876e-12
-1.91808e-09
-2.52035e-06
-7.75009e-14
-1.91809e-09
-2.52043e-06
2.02061e-12
-1.91784e-09
-2.5204e-06
5.64079e-12
-1.91766e-09
-2.5202e-06
-1.91733e-09
-2.52056e-06
-5.57883e-13
-3.33382e-10
-1.05898e-07
-1.01113e-13
-3.3345e-10
-1.06013e-07
1.47155e-13
-3.33483e-10
-1.05953e-07
3.70294e-13
-3.33239e-10
-1.05943e-07
8.32658e-13
-3.33002e-10
-1.06012e-07
-3.33046e-10
-1.05851e-07
-3.29499e-13
4.10174e-09
-1.60238e-08
-7.46047e-15
4.00277e-09
-1.60089e-08
2.79728e-13
4.09906e-09
-1.60087e-08
4.33372e-13
4.09659e-09
-1.60056e-08
5.5214e-13
3.96754e-09
-1.59997e-08
4.21038e-09
-1.60325e-08
-1.31554e-09
5.12131e-05
-2.56391e-08
-6.01553e-10
5.11772e-05
-2.53448e-08
9.85112e-10
5.12024e-05
-2.57164e-08
1.68648e-09
5.1175e-05
-2.5897e-08
1.187e-09
5.11462e-05
-2.54342e-08
5.1232e-05
-2.54983e-08
-5.97138e-09
0.000143935
-1.89362e-08
-5.86675e-09
0.0001439
-1.9098e-08
-4.1034e-09
0.000143953
-1.94407e-08
-1.91079e-09
0.000143902
-1.89625e-08
2.24107e-10
0.000143861
-1.89742e-08
0.000144015
-1.89165e-08
-6.50624e-08
0.00154668
-2.33653e-06
-3.86931e-08
0.00154694
-2.34016e-06
-3.62828e-08
0.00154677
-2.34142e-06
-2.56945e-08
0.0015467
-2.34201e-06
1.32861e-08
0.00154679
-2.34349e-06
0.00154676
-2.33739e-06
-1.48518e-07
0.0087154
0.000159948
-5.56533e-08
0.00872395
0.000159636
-6.37773e-08
0.0087193
0.000159777
-7.31748e-08
0.00871908
0.000159785
8.73666e-08
0.0087217
0.000159661
0.00871773
0.000159841
-7.81938e-07
0.0628241
0.000694292
3.17612e-07
0.0628656
0.000693412
2.27566e-07
0.0628428
0.000693862
-3.31161e-07
0.0628432
0.000693878
2.57725e-07
0.0628512
0.00069366
0.0628349
0.000693829
6.90465e-05
0.310817
0.00813551
1.18436e-05
0.311012
0.0081162
8.03256e-06
0.310918
0.00812432
6.92166e-06
0.310921
0.00812307
-2.96457e-05
0.310972
0.00811629
0.310868
0.00812679
0.000251782
0.157471
0.490745
3.87563e-05
0.157799
0.491283
1.19772e-05
0.157694
0.491025
4.81294e-06
0.1577
0.490994
-0.000118151
0.157789
0.491136
0.157545
0.490882
-0.000117301
-0.165248
-2.68562e-05
-0.164964
-5.36922e-06
-0.165055
1.4497e-05
-0.165055
9.55259e-05
-0.164977
-0.165179
-1.09376e-12
-3.82689e-07
-7.27779e-08
1.60905e-12
-3.82554e-07
-7.27255e-08
-7.03953e-12
-3.82595e-07
-7.2759e-08
-6.21706e-12
-3.826e-07
-7.27897e-08
7.78955e-12
-3.82559e-07
-7.27861e-08
-3.82744e-07
-7.28291e-08
2.18186e-11
-4.17133e-07
-1.34495e-06
2.59464e-11
-4.17071e-07
-1.34498e-06
7.28368e-12
-4.17082e-07
-1.34504e-06
3.41008e-12
-4.17077e-07
-1.34503e-06
1.50089e-11
-4.17064e-07
-1.34489e-06
-4.17169e-07
-1.34501e-06
1.10445e-12
-8.00445e-08
-3.68539e-07
6.08831e-13
-7.99997e-08
-3.68568e-07
1.05812e-12
-8.00015e-08
-3.68569e-07
1.21565e-13
-7.9976e-08
-3.68567e-07
-1.29891e-12
-7.99729e-08
-3.68572e-07
-8.00853e-08
-3.68574e-07
-3.10722e-13
-1.05432e-08
-4.38874e-09
-8.62095e-13
-1.05378e-08
-4.38574e-09
-1.39702e-13
-1.05444e-08
-4.38773e-09
-3.37604e-13
-1.05334e-08
-4.38724e-09
-1.35385e-12
-1.05253e-08
-4.38536e-09
-1.05344e-08
-4.38972e-09
-4.95459e-13
-7.2526e-09
-3.99328e-08
-7.29416e-13
-7.25338e-09
-3.98798e-08
-3.34927e-13
-7.25178e-09
-3.99105e-08
-2.67206e-13
-7.24373e-09
-3.99043e-08
-4.8049e-13
-7.24295e-09
-3.98575e-08
-7.24476e-09
-3.99254e-08
-9.18367e-13
-2.02758e-08
-2.2594e-08
-8.37757e-13
-2.02952e-08
-2.25929e-08
-4.78474e-13
-2.03081e-08
-2.25853e-08
-2.1368e-13
-2.03142e-08
-2.25852e-08
1.27474e-13
-2.03231e-08
-2.25865e-08
-2.02832e-08
-2.25752e-08
-4.42928e-12
-2.36273e-06
-2.83648e-08
7.47872e-13
-2.36634e-06
-2.83965e-08
4.03478e-12
-2.36761e-06
-2.84044e-08
5.44886e-12
-2.36821e-06
-2.84104e-08
8.24199e-12
-2.36968e-06
-2.84219e-08
-2.36357e-06
-2.83739e-08
1.22198e-08
0.000154526
2.10659e-06
2.73085e-09
0.000154219
2.1036e-06
6.41617e-09
0.000154353
2.10447e-06
7.786e-09
0.000154362
2.10506e-06
2.69222e-09
0.000154239
2.10349e-06
0.000154428
2.1062e-06
3.5891e-07
0.000391309
0.000294192
1.06707e-07
0.000389991
0.000295101
9.24302e-08
0.000390752
0.000294595
9.2789e-08
0.000390697
0.000294713
-6.77846e-08
0.000390222
0.000295068
0.0003909
0.000294429
8.74567e-05
-0.135671
0.00446078
1.03756e-05
-0.135836
0.00445741
-2.49355e-06
-0.135807
0.00445882
2.9609e-06
-0.135778
0.00445969
-4.56916e-05
-0.135837
0.0044561
-0.135708
0.00446072
0.000376386
0.0505002
0.0123142
0.000130751
0.050957
0.0126792
-2.62806e-05
0.0507986
0.0125234
-3.48852e-05
0.0507715
0.0124565
-0.000154287
0.0508141
0.0125797
0.0506907
0.0123922
1.5402e-05
-0.112721
1.21411e-05
-0.111972
2.54669e-05
-0.112233
4.56682e-05
-0.112263
-1.28496e-06
-0.112076
-0.112452
-3.65428e-38
-3.14375e-31
4.43817e-34
-5.04953e-38
-3.13723e-31
4.42651e-34
-5.23773e-38
-3.14169e-31
4.42956e-34
-4.77464e-38
-3.0603e-31
4.32579e-34
-2.98914e-38
-3.14649e-31
4.4454e-34
-3.06886e-31
4.32889e-34
-3.17293e-35
-2.136e-28
3.25401e-31
-4.9881e-35
-2.13286e-28
3.24723e-31
-5.53155e-35
-2.13763e-28
3.25177e-31
-5.3378e-35
-2.07731e-28
3.16744e-31
-3.54154e-35
-2.13587e-28
3.2565e-31
-2.08718e-28
3.17596e-31
-1.69777e-32
-6.85152e-26
1.16158e-28
-2.6925e-32
-6.84613e-26
1.15987e-28
-2.99564e-32
-6.86768e-26
1.16242e-28
-2.9247e-32
-6.66384e-26
1.12956e-28
-2.03125e-32
-6.84419e-26
1.16132e-28
-6.70408e-26
1.13472e-28
-7.45109e-30
-1.3719e-23
2.63578e-26
-9.64421e-30
-1.37184e-23
2.63332e-26
-9.47141e-30
-1.37756e-23
2.64132e-26
-8.4898e-30
-1.33833e-23
2.56261e-26
-5.75631e-30
-1.36906e-23
2.6316e-26
-1.34489e-23
2.57729e-26
-1.8125e-27
-1.91202e-21
4.16407e-24
-1.62261e-27
-1.91343e-21
4.16175e-24
-9.88128e-28
-1.92354e-21
4.17801e-24
-4.2974e-28
-1.8861e-21
4.05823e-24
-1.15078e-28
-1.90656e-21
4.15074e-24
-1.87908e-21
4.07695e-24
-2.09841e-25
-1.93737e-19
4.69431e-22
-7.95488e-27
-1.94022e-19
4.69241e-22
2.31802e-25
-1.95279e-19
4.71519e-22
3.69224e-25
-1.97889e-19
4.62268e-22
3.31345e-25
-1.9313e-19
4.67297e-22
-1.91004e-19
4.60662e-22
1.71244e-24
-1.38602e-17
3.64855e-20
5.03555e-23
-1.38903e-17
3.64699e-20
9.30275e-23
-1.39995e-17
3.66914e-20
1.11072e-22
-1.58914e-17
3.71901e-20
8.4973e-23
-1.38241e-17
3.63198e-20
-1.37161e-17
3.59592e-20
2.7314e-21
-1.75775e-17
1.69548e-18
8.40705e-21
-1.7616e-17
1.69142e-18
1.24094e-20
-1.7753e-17
1.70217e-18
1.47417e-20
-1.97198e-17
1.91118e-18
9.13388e-21
-1.75165e-17
1.6949e-18
-1.73917e-17
1.6718e-18
4.15955e-19
-2.65947e-14
-2.38796e-15
8.36715e-19
-2.66724e-14
-2.40524e-15
1.06135e-18
-2.69979e-14
-2.39437e-15
9.53499e-19
-2.62087e-14
-2.26221e-15
6.3349e-19
-2.66717e-14
-2.29332e-15
-2.6982e-14
-2.21713e-15
8.18362e-17
-6.06385e-12
2.91059e-12
1.33124e-16
-6.08809e-12
2.9259e-12
1.61373e-16
-6.17299e-12
2.97268e-12
1.19004e-16
-5.88264e-12
2.75768e-12
8.28591e-17
-6.09212e-12
2.92708e-12
-6.06466e-12
2.85257e-12
2.07746e-15
-4.29788e-13
-1.33226e-11
1.94462e-15
-4.11985e-13
-1.33879e-11
3.6137e-15
-3.72131e-13
-1.3613e-11
3.64025e-16
-3.65872e-13
-1.30142e-11
5.26146e-16
-3.7047e-13
-1.34398e-11
-4.02852e-13
-1.3369e-11
-7.83224e-16
-1.18613e-12
-1.191e-15
-1.47741e-12
-7.77626e-16
-2.32655e-12
-1.24833e-15
-2.34493e-12
-4.63107e-16
-2.32979e-12
-1.65125e-12
-1.18236e-36
-1.10772e-29
2.88439e-32
-1.53842e-36
-1.10575e-29
2.87771e-32
-1.46163e-36
-1.10692e-29
2.87847e-32
-1.23374e-36
-1.07057e-29
2.79024e-32
-7.14257e-37
-1.10382e-29
2.87476e-32
-1.07541e-29
2.79635e-32
-1.24042e-33
-8.23222e-27
2.27295e-29
-1.59816e-33
-8.2219e-27
2.26881e-29
-1.5133e-33
-8.23777e-27
2.27114e-29
-1.31422e-33
-7.94778e-27
2.19648e-29
-8.47814e-34
-8.20107e-27
2.26461e-29
-8.0034e-27
2.2062e-29
-6.71952e-31
-2.93202e-24
8.74562e-27
-7.82081e-31
-2.92989e-24
8.73416e-27
-6.76575e-31
-2.93838e-24
8.75062e-27
-5.6995e-31
-2.82791e-24
8.44218e-27
-4.08779e-31
-2.92039e-24
8.71074e-27
-2.85507e-24
8.50011e-27
-1.28541e-28
-6.60667e-22
2.14688e-24
-6.82579e-29
-6.60515e-22
2.14497e-24
6.57729e-30
-6.63116e-22
2.15096e-24
3.41754e-29
-6.36693e-22
2.06992e-24
1.08589e-29
-6.58015e-22
2.13742e-24
-6.44459e-22
2.08937e-24
3.30422e-26
-1.03415e-19
3.6799e-22
8.44271e-26
-1.03439e-19
3.67753e-22
1.17739e-25
-1.03962e-19
3.69128e-22
1.1355e-25
-9.96159e-20
3.54375e-22
7.9543e-26
-1.03023e-19
3.66211e-22
-1.01077e-19
3.58646e-22
1.80684e-23
-1.11448e-17
4.45921e-20
3.37692e-23
-1.11526e-17
4.45657e-20
4.17087e-23
-1.12241e-17
4.47782e-20
3.82904e-23
-1.0736e-17
4.29032e-20
2.71287e-23
-1.11115e-17
4.43745e-20
-1.09198e-17
4.35471e-20
4.56907e-21
-1.89577e-17
9.50777e-18
6.95178e-21
-1.89697e-17
9.52958e-18
7.67256e-21
-1.90971e-17
9.62191e-18
6.53129e-21
-1.82555e-17
9.18819e-18
4.41227e-21
-1.88945e-17
9.55772e-18
-1.85762e-17
9.40403e-18
1.00109e-18
-2.20811e-15
5.14382e-16
1.41583e-18
-2.20506e-15
5.16147e-16
1.49962e-18
-2.20854e-15
5.22748e-16
1.18729e-18
-2.15133e-15
4.9943e-16
7.62715e-19
-2.19419e-15
5.20888e-16
-2.16743e-15
5.14168e-16
2.37034e-16
-2.44653e-11
7.8198e-15
3.10784e-16
-2.4508e-11
7.82461e-15
3.25114e-16
-2.47165e-11
8.18664e-15
1.71759e-16
-2.36583e-11
7.54949e-15
1.24171e-16
-2.44879e-11
7.90168e-15
-2.41319e-11
8.53692e-15
4.96574e-14
-1.40049e-09
-2.28273e-09
5.92041e-14
-1.40531e-09
-2.2917e-09
9.19358e-14
-1.42316e-09
-2.31766e-09
1.48247e-14
-1.35856e-09
-2.20834e-09
3.30316e-14
-1.40404e-09
-2.30336e-09
-1.39748e-09
-2.25518e-09
-1.85362e-12
6.40309e-10
-2.53602e-09
-4.15791e-12
6.45367e-10
-2.54911e-09
-1.38963e-12
6.55561e-10
-2.58923e-09
-6.30776e-12
6.23822e-10
-2.4614e-09
-3.3912e-12
6.47564e-10
-2.55697e-09
6.45827e-10
-2.54638e-09
-1.82371e-14
4.42846e-11
-2.96259e-14
4.45251e-11
-1.67344e-14
4.36212e-11
-1.66883e-14
4.27745e-11
-2.14659e-14
4.33626e-11
4.38216e-11
-8.65127e-34
-1.6371e-26
7.63033e-29
-1.0499e-33
-1.63879e-26
7.63398e-29
-8.47417e-34
-1.64539e-26
7.65768e-29
-5.45188e-34
-1.59927e-26
7.46599e-29
-2.58992e-34
-1.653e-26
7.71005e-29
-1.61344e-26
7.51515e-29
-8.44479e-31
-9.89314e-24
5.17901e-26
-7.79506e-31
-9.90897e-24
5.18415e-26
-4.29282e-31
-9.95903e-24
5.20496e-26
-1.23856e-31
-9.64777e-24
5.05899e-26
-3.08102e-32
-9.98126e-24
5.22891e-26
-9.75745e-24
5.10369e-26
-3.4376e-28
-2.6209e-21
1.63599e-23
-7.54668e-29
-2.62674e-21
1.63851e-23
2.61999e-28
-2.6431e-21
1.64675e-23
4.30964e-28
-2.55151e-21
1.59525e-23
3.62104e-28
-2.64247e-21
1.65036e-23
-2.58756e-21
1.61333e-23
3.41892e-26
-3.80578e-19
3.0228e-21
2.0749e-25
-3.8171e-19
3.02917e-21
3.43407e-25
-3.84656e-19
3.04786e-21
3.62525e-25
-3.6992e-19
2.94216e-21
2.74072e-25
-3.83614e-19
3.04697e-21
-3.76302e-19
2.98363e-21
3.79233e-23
-3.14348e-17
3.38188e-19
7.88322e-23
-3.15616e-17
3.39116e-19
1.01455e-22
-3.18783e-17
3.41703e-19
9.46738e-23
-3.05149e-17
3.28602e-19
6.7272e-23
-3.1713e-17
3.40768e-19
-3.11603e-17
3.34291e-19
5.91303e-21
-4.99644e-17
2.19502e-17
9.96153e-21
-5.01681e-17
2.2031e-17
1.14111e-20
-5.06667e-17
2.22498e-17
9.64981e-21
-4.8545e-17
2.12988e-17
6.26227e-21
-5.0404e-17
2.21374e-17
-4.95582e-17
2.17561e-17
5.69746e-19
-6.5051e-15
1.52911e-15
8.6466e-19
-6.52728e-15
1.5359e-15
8.8944e-19
-6.58223e-15
1.55434e-15
6.36977e-19
-6.3592e-15
1.48268e-15
3.13396e-19
-6.54693e-15
1.54354e-15
-6.47226e-15
1.52079e-15
1.03361e-16
-6.10297e-13
5.8106e-13
1.19781e-16
-6.13345e-13
5.81901e-13
9.50069e-17
-6.2306e-13
5.8952e-13
-3.11334e-18
-5.88187e-13
5.637e-13
-7.06563e-17
-6.11146e-13
5.83291e-13
-6.14458e-13
5.82486e-13
1.06315e-14
-1.83217e-11
-1.62215e-12
7.95856e-16
-1.83264e-11
-1.64715e-12
-7.16598e-16
-1.84995e-11
-1.68933e-12
-4.9901e-14
-1.77945e-11
-1.41832e-12
-6.46553e-14
-1.83702e-11
-1.60428e-12
-1.82614e-11
-1.51167e-12
-9.68073e-12
-4.45709e-07
4.7209e-08
-1.45864e-11
-4.48317e-07
4.71681e-08
-1.60327e-12
-4.54611e-07
4.74406e-08
-3.00034e-11
-4.33457e-07
4.64622e-08
-2.63879e-12
-4.51258e-07
4.60938e-08
-4.44955e-07
4.84498e-08
-9.02924e-10
2.38391e-07
-1.79839e-05
-6.89623e-10
2.39083e-07
-1.80256e-05
1.0063e-09
2.40775e-07
-1.82281e-05
-1.63e-09
2.34084e-07
-1.76123e-05
2.22172e-10
2.33874e-07
-1.81882e-05
2.42698e-07
-1.78773e-05
-5.14691e-12
2.3757e-07
-3.01916e-12
2.38249e-07
1.05284e-11
2.39913e-07
-4.40102e-12
2.33294e-07
3.82061e-12
2.33028e-07
2.41868e-07
-9.76009e-35
-7.54422e-27
4.34413e-29
2.16258e-35
-7.56517e-27
4.35366e-29
1.8144e-34
-7.64807e-27
4.39633e-29
2.2606e-34
-7.31548e-27
4.2168e-29
1.39511e-34
-7.64072e-27
4.39843e-29
-7.48079e-27
4.30215e-29
3.19703e-32
-5.28928e-24
3.43155e-26
2.78595e-31
-5.30765e-24
3.44098e-26
5.06153e-31
-5.37372e-24
3.47865e-26
5.40364e-31
-5.12243e-24
3.32738e-26
3.73372e-31
-5.35908e-24
3.47534e-26
-5.25416e-24
3.40262e-26
1.5505e-28
-1.67509e-21
1.26763e-23
4.3491e-28
-1.68237e-21
1.27198e-23
6.48936e-28
-1.70663e-21
1.2878e-23
6.56813e-28
-1.61996e-21
1.22758e-23
4.93156e-28
-1.698e-21
1.28431e-23
-1.66851e-21
1.25918e-23
1.71064e-25
-3.2192e-19
2.8514e-21
3.24517e-25
-3.23652e-19
2.8636e-21
4.03974e-25
-3.29126e-19
2.90486e-21
3.68383e-25
-3.10916e-19
2.75736e-21
2.63402e-25
-3.26442e-19
2.89024e-21
-3.21945e-19
2.84012e-21
6.50512e-23
-4.42478e-17
4.37916e-19
9.56335e-23
-4.45264e-17
4.4023e-19
1.00747e-22
-4.53988e-17
4.47671e-19
7.98568e-23
-4.26965e-17
4.2291e-19
5.03212e-23
-4.48761e-17
4.4405e-19
-4.44462e-17
4.37964e-19
1.0566e-20
-6.66421e-16
6.21302e-16
1.11237e-20
-6.62942e-16
6.17291e-16
8.16594e-21
-6.54569e-16
6.07147e-16
3.36495e-21
-6.7468e-16
6.31938e-16
4.87607e-22
-6.27326e-16
5.81006e-16
-6.941e-16
6.48335e-16
8.70757e-19
-4.15919e-14
3.88986e-14
-3.74815e-19
-4.16648e-14
3.89588e-14
-1.39589e-18
-4.20245e-14
3.92645e-14
-3.20828e-18
-4.14911e-14
3.8876e-14
-2.24171e-18
-4.04909e-14
3.77916e-14
-4.29534e-14
4.02024e-14
-8.6958e-16
-2.26182e-11
2.24657e-11
-2.8929e-15
-2.25482e-11
2.23939e-11
-2.15439e-15
-2.25777e-11
2.24138e-11
-5.05996e-15
-2.24412e-11
2.22984e-11
-2.32589e-15
-2.21475e-11
2.19857e-11
-2.30135e-11
2.28594e-11
-7.62879e-13
-1.81243e-09
1.62465e-09
-1.67806e-12
-1.81968e-09
1.63084e-09
-4.83503e-13
-1.84048e-09
1.64568e-09
-2.72098e-12
-1.77291e-09
1.59312e-09
-1.14704e-12
-1.79254e-09
1.60045e-09
-1.85353e-09
1.66256e-09
-8.84881e-10
5.16071e-09
4.90255e-09
-2.66432e-10
3.56559e-09
4.7065e-09
2.64471e-09
8.38476e-10
4.64476e-09
-2.73181e-09
1.02096e-08
4.87996e-09
-5.57737e-10
7.59806e-10
4.66696e-09
5.83203e-09
3.86187e-09
-6.13013e-08
-0.000486492
-8.89215e-05
3.81837e-08
-0.000488908
-8.95728e-05
3.31277e-07
-0.00049527
-9.06772e-05
-6.71906e-08
-0.000476744
-8.71216e-05
1.20845e-07
-0.00049055
-8.85333e-05
-0.000488389
-9.03439e-05
-2.35659e-07
-0.00232236
5.35416e-07
-0.00232523
5.54318e-07
-0.0023469
3.34432e-06
-0.00230884
2.33706e-06
-0.00235117
-0.00231632
8.44193e-13
-6.41704e-09
-1.94358e-08
2.47485e-13
-6.40872e-09
-1.94245e-08
-1.83534e-13
-6.41229e-09
-1.94247e-08
-5.42562e-13
-6.41233e-09
-1.94256e-08
-1.0471e-12
-6.40651e-09
-1.94256e-08
-6.42001e-09
-1.94389e-08
7.14615e-14
4.15209e-16
-1.64792e-08
2.3996e-14
4.54783e-16
-1.64531e-08
-1.91722e-15
4.66815e-16
-1.64629e-08
-2.40377e-14
4.56436e-16
-1.64614e-08
-7.3037e-14
4.53744e-16
-1.64422e-08
4.64595e-16
-1.64854e-08
-1.24469e-20
9.15466e-18
-5.56343e-21
1.00255e-17
-1.47773e-21
1.02931e-17
3.18465e-21
1.00657e-17
1.32306e-20
1.0007e-17
1.02506e-17
5.26175e-11
-3.05731e-07
-6.48236e-09
1.5885e-11
-3.05612e-07
-6.48366e-09
-8.48526e-12
-3.05684e-07
-6.48222e-09
-3.18889e-11
-3.05666e-07
-6.48356e-09
-6.46521e-11
-3.05518e-07
-6.4873e-09
-3.05757e-07
-6.48441e-09
1.41965e-11
2.10989e-15
-2.80477e-13
4.26391e-12
2.31087e-15
-2.64576e-13
-1.50579e-12
2.37216e-15
-2.67159e-13
-6.97492e-12
2.31939e-15
-2.61311e-13
-1.7284e-11
2.30572e-15
-2.54196e-13
2.36106e-15
-2.75448e-13
-6.20514e-20
1.53645e-16
-2.38362e-20
1.6826e-16
-2.23916e-21
1.72739e-16
2.17836e-20
1.68908e-16
7.57492e-20
1.6792e-16
1.71961e-16
1.23234e-11
-6.85799e-12
3.19728e-09
2.20293e-12
-6.49086e-12
3.1975e-09
-3.65214e-12
-6.54607e-12
3.19507e-09
-1.08919e-11
-6.40417e-12
3.19275e-09
-2.07546e-11
-6.24591e-12
3.19425e-09
-6.7323e-12
3.19587e-09
5.65304e-18
1.31634e-14
-7.15164e-12
1.1753e-18
1.4418e-14
-6.76985e-12
-1.20882e-18
1.47999e-14
-6.82803e-12
-3.29902e-18
1.44706e-14
-6.67995e-12
-7.85051e-18
1.43856e-14
-6.51448e-12
1.47293e-14
-7.02248e-12
-3.95561e-19
2.05652e-16
-1.00165e-19
2.25181e-16
6.20115e-20
2.31158e-16
2.07033e-19
2.26008e-16
5.47011e-19
2.24674e-16
2.30089e-16
3.34302e-15
-5.9291e-11
-1.19472e-09
6.95891e-16
-5.67404e-11
-1.19413e-09
-9.8697e-16
-5.71252e-11
-1.19418e-09
-4.24571e-15
-5.60326e-11
-1.19417e-09
-8.59571e-15
-5.4876e-11
-1.19402e-09
-5.82711e-11
-1.19453e-09
1.71057e-15
8.48621e-15
-1.40306e-10
3.10908e-16
9.29457e-15
-1.30025e-10
-3.23605e-16
9.54043e-15
-1.31649e-10
-8.44732e-16
9.32771e-15
-1.27383e-10
-2.21721e-15
9.27284e-15
-1.22989e-10
9.49409e-15
-1.36662e-10
-2.44189e-19
2.46154e-17
-3.23312e-20
2.71576e-17
7.50408e-20
2.79399e-17
1.53636e-19
2.72684e-17
3.37877e-19
2.70897e-17
2.7625e-17
5.1898e-13
-6.04282e-09
4.48465e-10
4.76753e-13
-5.98196e-09
4.47212e-10
2.85787e-13
-5.99149e-09
4.4755e-10
-2.41138e-13
-5.96474e-09
4.4774e-10
-8.74495e-13
-5.93779e-09
4.47425e-10
-6.01973e-09
4.48516e-10
3.12033e-14
3.84693e-16
-2.13138e-13
9.16045e-15
4.24549e-16
-2.10851e-13
4.62372e-16
4.36756e-16
-2.11535e-13
-7.88494e-15
4.26261e-16
-2.10838e-13
-3.00523e-14
4.23484e-16
-2.09951e-13
4.31728e-16
-2.12385e-13
-1.31133e-20
-7.25321e-16
-2.59114e-21
-7.22585e-16
2.27049e-21
-7.24333e-16
6.19717e-21
-7.24358e-16
1.51781e-20
-7.23528e-16
-7.24703e-16
3.05721e-13
-4.80885e-11
7.80205e-10
3.4883e-14
-4.79375e-11
7.81385e-10
-9.53453e-14
-4.80335e-11
7.80224e-10
-4.3943e-14
-4.8022e-11
7.8052e-10
-3.37131e-13
-4.79666e-11
7.81182e-10
-4.80468e-11
7.79487e-10
2.99609e-17
-7.1648e-14
-4.82829e-11
8.6577e-18
-7.14059e-14
-4.81298e-11
1.07313e-18
-7.15481e-14
-4.82263e-11
-1.4416e-17
-7.15401e-14
-4.82141e-11
-4.14693e-17
-7.14593e-14
-4.81579e-11
-7.15562e-14
-4.82405e-11
1.71849e-19
-7.23838e-14
4.27914e-20
-7.21386e-14
-2.32725e-20
-7.22827e-14
-8.33053e-20
-7.22747e-14
-1.79311e-19
-7.2193e-14
-7.22914e-14
1.55388e-13
-3.07025e-10
-2.78211e-08
1.08909e-13
-3.06834e-10
-2.78529e-08
1.84903e-13
-3.07188e-10
-2.78614e-08
1.65936e-13
-3.07204e-10
-2.78664e-08
-2.36525e-16
-3.07128e-10
-2.78778e-08
-3.06962e-10
-2.78312e-08
4.03367e-15
-3.89068e-12
-3.54499e-10
6.09607e-17
-3.87944e-12
-3.54115e-10
3.46877e-17
-3.88689e-12
-3.54575e-10
-2.40983e-15
-3.88685e-12
-3.54577e-10
-5.77082e-15
-3.88295e-12
-3.54433e-10
-3.88784e-12
-3.54384e-10
2.02036e-17
-3.96307e-12
-2.72772e-17
-3.95153e-12
-3.14685e-17
-3.95916e-12
-3.60211e-17
-3.95911e-12
2.54477e-18
-3.95517e-12
-3.96013e-12
9.74306e-11
-5.13399e-08
2.06724e-06
2.93659e-11
-5.13638e-08
2.06551e-06
4.60744e-11
-5.13536e-08
2.06587e-06
3.32853e-11
-5.13473e-08
2.06646e-06
-1.98741e-11
-5.13485e-08
2.06534e-06
-5.13474e-08
2.06715e-06
-1.57949e-13
-9.06829e-10
-5.23635e-08
-4.06554e-13
-9.04792e-10
-5.23787e-08
-9.95971e-14
-9.06065e-10
-5.23742e-08
-2.52657e-13
-9.06041e-10
-5.2367e-08
1.47824e-13
-9.05218e-10
-5.23665e-08
-9.06367e-10
-5.23683e-08
-1.81885e-14
-9.11749e-10
-2.87146e-14
-9.09697e-10
-1.87619e-14
-9.11006e-10
-1.34064e-14
-9.10981e-10
8.07731e-15
-9.10157e-10
-9.11304e-10
4.59829e-08
4.26736e-05
0.000257614
9.64752e-09
4.26979e-05
0.000258475
1.32528e-08
4.27008e-05
0.000257967
1.31656e-08
4.271e-05
0.000258084
-2.29529e-08
4.27077e-05
0.000258435
4.26764e-05
0.000257849
6.47429e-10
3.07138e-06
3.94905e-05
2.63647e-10
3.06604e-06
3.95228e-05
3.49633e-10
3.06934e-06
3.95208e-05
5.65977e-10
3.06974e-06
3.95295e-05
1.00322e-09
3.06652e-06
3.95322e-05
3.07084e-06
3.94954e-05
-3.69471e-11
2.99676e-06
-1.26199e-11
2.99161e-06
-1.31261e-11
2.99478e-06
-9.25518e-13
2.99515e-06
7.25017e-11
2.99194e-06
2.99633e-06
-3.96481e-07
-0.000179697
0.00473812
-1.91194e-07
-0.000175682
0.00473102
-3.60056e-07
-0.000177376
0.00473395
3.02019e-08
-0.000177822
0.00473487
1.56601e-06
-0.000177466
0.00473014
-0.000177294
0.00473713
-1.58471e-07
0.000222572
-0.000374545
-4.50798e-08
0.000222594
-0.00037078
-2.7678e-08
0.000222591
-0.000372386
8.6212e-09
0.000222515
-0.000372762
2.13977e-07
0.000222091
-0.000372144
0.000223068
-0.000372571
-1.65279e-08
0.000192433
-1.84113e-09
0.000192355
-1.00942e-09
0.000192384
7.06067e-10
0.000192296
2.15448e-08
0.000191815
0.00019294
-3.15764e-06
-0.0175486
-0.317322
7.80908e-08
-0.0174505
-0.316779
-7.37201e-06
-0.017487
-0.316994
-1.17841e-06
-0.0175129
-0.317075
3.40861e-05
-0.0174795
-0.316838
-0.0175092
-0.317184
-1.27005e-05
-0.00129724
-0.0115689
1.04359e-06
-0.00128581
-0.011594
1.70329e-06
-0.00128985
-0.0115812
-6.39249e-07
-0.00129012
-0.0115854
2.06702e-05
-0.00128396
-0.0115905
-0.00129731
-0.0115704
-1.01505e-06
2.63361e-21
2.42713e-07
3.32904e-21
6.49215e-07
3.59331e-21
3.63132e-07
3.68306e-21
1.19024e-06
3.57331e-21
2.53256e-21
0.000252125
-0.313248
0.24245
4.53503e-05
-0.312839
0.242398
2.14895e-06
-0.313014
0.242459
-9.56546e-06
-0.31307
0.242314
-0.000157922
-0.313011
0.242315
-0.313029
0.242399
-4.01555e-05
6.02813e-21
0.0126951
1.42512e-05
7.61301e-21
0.0128184
2.57339e-05
8.22106e-21
0.0127708
1.9124e-06
8.42388e-21
0.0127504
-1.38385e-05
8.16698e-21
0.0127179
5.80116e-21
0.0128033
5.11567e-25
2.22026e-22
-1.08006e-24
2.80217e-22
-1.5314e-24
3.02245e-22
-1.70537e-24
3.09382e-22
-6.96216e-25
2.99205e-22
2.11814e-22
-0.000237408
-0.157612
-0.455071
-0.000271857
-0.000159757
-0.158309
-0.454064
-0.000242124
-0.000371679
-0.159
-0.454659
-0.000199228
2.39759e-05
-0.155875
-0.456919
-0.000260876
0.00178851
-0.155154
-0.45818
-0.000138392
-0.159473
-0.457746
-0.000218868
9.35671e-05
-0.000866702
-0.114305
0.152811
-0.000279607
-0.000757028
-0.113622
0.154514
-0.00138095
-0.000778854
-0.11486
0.155451
-0.000137414
-0.000972337
-0.112734
0.150254
0.001888
-0.00136297
-0.105673
0.149716
-0.000595361
-0.121275
0.155894
4.49653e-05
7.19009e-23
0.0209537
-6.89569e-05
9.12734e-23
0.0213926
-0.000341238
9.86515e-23
0.0217546
-0.000118525
9.98006e-23
0.0202308
0.0003837
9.71435e-23
0.0193344
7.24697e-23
0.0227283
-0.000416311
-0.190528
-0.582296
-0.000159731
-0.19032
-0.581727
-0.000451254
-0.190583
-0.58167
-0.000223119
-0.190969
-0.585167
0.00308698
-0.190628
-0.587319
-0.190598
-0.582827
-9.5677e-06
4.01046e-23
-0.00798003
-1.23774e-05
5.0867e-23
-0.00799154
-1.47704e-05
5.48888e-23
-0.00800606
9.77518e-05
5.62732e-23
-0.00796118
0.000205107
5.52301e-23
-0.00795161
3.8914e-23
-0.00806305
-6.42453e-26
2.05298e-22
-2.68321e-26
2.59906e-22
8.00265e-27
2.80972e-22
-2.23169e-25
2.86049e-22
-4.65496e-25
2.78117e-22
2.0291e-22
2.89418e-05
-0.105815
-0.588303
-2.35039e-05
-0.105859
-0.588316
-0.00047723
-0.105821
-0.58804
-0.000361483
-0.106096
-0.589892
0.000114964
-0.106735
-0.591612
-0.105325
-0.586809
3.28306e-06
1.20203e-22
-0.113799
8.50389e-06
1.51986e-22
-0.113855
2.06167e-05
1.63923e-22
-0.113839
4.74268e-05
1.68755e-22
-0.114084
2.61914e-05
1.63189e-22
-0.114666
1.16937e-22
-0.113362
-2.97758e-25
3.85099e-22
-4.91077e-25
4.87055e-22
-7.69484e-25
5.26581e-22
-2.01973e-24
5.38373e-22
-1.99234e-24
5.20827e-22
3.76183e-22
0.000117683
-0.205045
-0.47876
0.000109747
-0.205132
-0.47881
0.000118271
-0.205081
-0.478754
7.92942e-05
-0.205105
-0.478726
7.5909e-05
-0.20557
-0.478737
-0.20432
-0.478346
-3.74722e-05
2.90387e-22
-0.254026
-7.96795e-06
3.67371e-22
-0.254241
-8.14773e-05
3.965e-22
-0.254261
4.13917e-05
4.06201e-22
-0.25421
0.000537147
3.94768e-22
-0.254516
2.79263e-22
-0.254184
-2.67998e-25
5.67169e-22
-6.42118e-25
7.17384e-22
-6.80762e-25
7.75251e-22
-1.13443e-24
7.92701e-22
-1.51591e-24
7.6625e-22
5.5229e-22
0.000129679
-0.0829343
-0.327161
5.47729e-05
-0.0828623
-0.327081
0.000103211
-0.0829161
-0.327095
-8.11262e-05
-0.0826387
-0.327115
-0.000598824
-0.0820379
-0.327394
-0.0834416
-0.326712
-6.4339e-05
5.02809e-22
-0.190185
-2.11683e-05
6.35843e-22
-0.19039
-0.000129114
6.8629e-22
-0.190386
2.34725e-05
7.02384e-22
-0.190279
0.000576796
6.79318e-22
-0.190507
4.85319e-22
-0.190175
-2.14102e-25
4.51601e-22
-7.544e-25
5.71516e-22
-1.05492e-24
6.17725e-22
-1.68004e-24
6.31792e-22
-2.53429e-24
6.1074e-22
4.39899e-22
8.66731e-05
-0.0160057
6.64303e-05
-0.015871
0.000150777
-0.0159332
9.15272e-06
-0.015873
-0.000570533
-0.0157126
-0.016097
-5.0287e-05
1.05365e-21
1.72822e-05
1.33152e-21
2.49062e-05
1.43778e-21
9.49191e-06
1.47105e-21
3.99421e-05
1.42169e-21
1.01655e-21
2.63721e-26
-4.49672e-25
-4.31914e-25
-1.01858e-24
-2.63137e-24
2.71235e-31
8.17938e-26
-9.91759e-24
4.71126e-31
8.20083e-26
-9.94093e-24
4.9097e-31
8.23813e-26
-9.98785e-24
3.32161e-31
8.05863e-26
-9.77615e-24
7.83608e-32
8.05087e-26
-9.74573e-24
8.30231e-26
-1.00931e-23
3.68441e-33
2.00293e-27
-1.5548e-25
5.07108e-33
2.00851e-27
-1.55894e-25
3.55009e-33
2.01726e-27
-1.5662e-25
7.74527e-34
1.9726e-27
-1.53147e-25
-1.58899e-33
1.97416e-27
-1.53025e-25
2.02837e-27
-1.57826e-25
1.90481e-35
-9.16922e-28
1.49437e-35
-9.19504e-28
3.07728e-36
-9.23564e-28
-5.42731e-36
-9.02954e-28
3.20105e-37
-9.03934e-28
-9.28257e-28
4.44813e-28