/*--------------------------------*- C++ -*----------------------------------*\
| =========                 |                                                 |
| \\      /  F ield         | OpenFOAM: The Open Source CFD Toolbox           |
|  \\    /   O peration     | Version:  v1612+                                |
|   \\  /    A nd           | Web:      www.OpenFOAM.com                      |
|    \\/     M anipulation  |                                                 |
\*---------------------------------------------------------------------------*/
FoamFile
{
    version     2.0;
    format      ascii;
    class       volScalarField;
    location    "3.75";
    object      p;
}
// * * * * * * * * * * * * * * * * * * * * * * * * * * * * * * * * * * * * * //

dimensions      [1 -1 -2 0 0 0 0];

internalField   nonuniform List<scalar> 
1116
(
3176.28
3176.25
3176.27
3176.27
3176.25
3176.3
3073.87
3073.85
3073.85
3073.87
3073.86
3073.86
3215.06
3215.04
3215.05
3215.06
3215.06
3215.05
3549.21
3549.21
3549.22
3549.23
3549.24
3549.21
3955.92
3955.93
3955.93
3955.95
3955.96
3955.93
4434.64
4434.65
4434.65
4434.66
4434.67
4434.67
5259.79
5259.79
5259.79
5259.8
5259.8
5259.81
6967.07
6967.08
6967.08
6967.08
6967.08
6967.09
9794.71
9794.68
9794.68
9794.68
9794.66
9794.7
13901.6
13901.5
13901.5
13901.5
13901.4
13901.5
17037.1
17037
17037
17037
17037
17037
19458.6
19458.5
19458.5
19458.5
19458.5
19458.5
-23.5125
-23.5206
-23.5197
-23.5191
-23.5222
-23.5151
-64.7487
-64.7483
-64.7485
-64.7481
-64.7477
-64.7495
-52.1023
-52.1014
-52.1017
-52.1015
-52.1006
-52.1023
7.95517
7.9553
7.95515
7.95503
7.95574
7.95559
101.154
101.155
101.156
101.156
101.157
101.156
155.099
155.103
155.103
155.105
155.109
155.107
295.556
295.566
295.566
295.568
295.575
295.57
672.129
672.136
672.129
672.129
672.132
672.137
2018.45
2018.4
2018.4
2018.4
2018.39
2018.42
5626.65
5626.46
5626.53
5626.51
5626.46
5626.53
9280.02
9279.81
9279.87
9279.83
9279.82
9279.89
12304.1
12303.9
12303.9
12303.9
12303.9
12303.9
-42.4371
-42.4369
-42.437
-42.4372
-42.4373
-42.4373
-45.8559
-45.8556
-45.8557
-45.8559
-45.856
-45.8564
-40.8933
-40.893
-40.8931
-40.8932
-40.8934
-40.8941
-22.5112
-22.5108
-22.5107
-22.5101
-22.5094
-22.5098
-9.54698
-9.54682
-9.54626
-9.54575
-9.54545
-9.54483
-10.8847
-10.8846
-10.8842
-10.8838
-10.8835
-10.8825
-11.7999
-11.7986
-11.7989
-11.7987
-11.7983
-11.7988
0.21813
0.217013
0.215572
0.215088
0.215673
0.215884
97.8992
97.8947
97.8889
97.8861
97.8895
97.8927
749.786
749.486
749.604
749.589
749.516
749.66
4618.19
4617.29
4617.52
4617.56
4617.59
4617.89
7880.32
7880.26
7880.13
7880.14
7880.25
7880.19
-48.1692
-48.1687
-48.1688
-48.1686
-48.1685
-48.1689
-46.5673
-46.5672
-46.5671
-46.5671
-46.5671
-46.5671
-40.6394
-40.6393
-40.6393
-40.6393
-40.6394
-40.6394
-26.6284
-26.6287
-26.6284
-26.6285
-26.6286
-26.6281
-17.6741
-17.6748
-17.6747
-17.675
-17.6754
-17.6744
-18.5229
-18.5232
-18.5232
-18.5234
-18.5236
-18.5228
-20.5022
-20.5014
-20.5012
-20.5011
-20.5009
-20.5011
-18.9713
-18.9731
-18.972
-18.9724
-18.9723
-18.971
-3.94392
-3.94583
-3.94579
-3.94687
-3.94714
-3.94653
124.368
124.357
124.364
124.347
124.348
124.343
1898.71
1893.18
1895.44
1896.49
1895.53
1897.07
4921.14
4919.73
4919.87
4919.98
4919.97
4920.27
-0.689487
-0.689468
-0.68943
-0.689385
-0.689343
-0.689317
-0.494278
-0.494251
-0.494212
-0.494171
-0.494139
-0.494125
-0.100274
-0.100239
-0.100214
-0.100198
-0.100195
-0.100203
0.498774
0.49882
0.498811
0.498768
0.4987
0.498627
1.30852
1.30855
1.30846
1.30831
1.30811
1.30793
2.3273
2.32726
2.32706
2.32683
2.32659
2.3264
3.53417
3.5341
3.53399
3.5339
3.53385
3.53385
4.87373
4.87377
4.87399
4.87437
4.8748
4.87517
6.2266
6.22666
6.22737
6.22852
6.22986
6.23106
7.46472
7.46465
7.46452
7.46411
7.46404
7.46384
8.96056
8.96089
8.96143
8.96017
8.96028
8.95879
7.66985
7.66983
7.66977
7.66793
7.66815
7.66648
-10.6948
-10.6948
-10.6947
-10.6947
-10.6947
-10.6946
-10.497
-10.497
-10.497
-10.497
-10.4969
-10.4969
-10.0976
-10.0976
-10.0976
-10.0976
-10.0976
-10.0976
-9.49107
-9.49108
-9.49111
-9.49115
-9.49121
-9.49128
-8.67469
-8.67471
-8.67478
-8.67488
-8.675
-8.67512
-7.6532
-7.65322
-7.65327
-7.65332
-7.65334
-7.65333
-6.44387
-6.44381
-6.44369
-6.44353
-6.44332
-6.44314
-5.0797
-5.07961
-5.07956
-5.07954
-5.07948
-5.07946
-3.60737
-3.60743
-3.60781
-3.60874
-3.60936
-3.6103
-2.12516
-2.12561
-2.12604
-2.12964
-2.12938
-2.13172
-0.219093
-0.219467
-0.218003
-0.220532
-0.21862
-0.217534
-5.235
-5.23557
-5.23662
-5.23646
-5.23573
-5.23128
-20.8937
-20.8936
-20.8936
-20.8936
-20.8936
-20.8936
-20.6968
-20.6968
-20.6968
-20.6968
-20.6968
-20.6968
-20.291
-20.291
-20.2911
-20.2911
-20.2911
-20.2911
-19.6506
-19.6506
-19.6506
-19.6506
-19.6506
-19.6506
-18.7347
-18.7347
-18.7347
-18.7347
-18.7347
-18.7347
-17.4923
-17.4923
-17.4922
-17.4922
-17.4921
-17.4919
-15.8904
-15.8904
-15.8903
-15.8902
-15.8901
-15.89
-13.9652
-13.9653
-13.9656
-13.9663
-13.9668
-13.9672
-11.9215
-11.9222
-11.9231
-11.9265
-11.9287
-11.9301
-10.7434
-10.7441
-10.7421
-10.7525
-10.747
-10.7525
-8.10227
-8.10328
-8.09837
-8.10878
-8.10051
-8.10881
-11.6607
-11.6546
-11.6396
-11.6902
-11.6594
-11.6771
-31.2767
-31.2767
-31.2767
-31.2767
-31.2767
-31.2768
-31.0941
-31.0941
-31.0942
-31.0942
-31.0942
-31.0942
-30.7157
-30.7157
-30.7157
-30.7157
-30.7157
-30.7156
-30.1178
-30.1178
-30.1177
-30.1177
-30.1176
-30.1175
-29.2681
-29.2681
-29.268
-29.2679
-29.2679
-29.2678
-28.1242
-28.1242
-28.1241
-28.124
-28.1239
-28.1238
-26.6208
-26.6209
-26.6209
-26.6211
-26.621
-26.6211
-24.6519
-24.6523
-24.6523
-24.6547
-24.6543
-24.6548
-22.3992
-22.4005
-22.3989
-22.4086
-22.4061
-22.4056
-18.0818
-18.0806
-18.0589
-18.1189
-18.081
-18.0791
-8.31357
-8.31034
-8.29412
-8.32834
-8.30717
-8.30988
-44.8727
-44.8326
-44.8775
-44.895
-44.9624
-44.8279
-52.9062
-52.9061
-52.9059
-52.9057
-52.9055
-52.9054
-59.113
-59.113
-59.1128
-59.1127
-59.1126
-59.1126
-66.4105
-66.4106
-66.4105
-66.4105
-66.4105
-66.4105
-51.5124
-51.5123
-51.5122
-51.5121
-51.512
-51.5121
-58.0793
-58.0792
-58.0792
-58.0792
-58.0792
-58.0794
-66.019
-66.0191
-66.0191
-66.0191
-66.0191
-66.0191
-47.9597
-47.9597
-47.9598
-47.9598
-47.9598
-47.96
-55.7346
-55.7346
-55.7347
-55.7347
-55.7348
-55.7349
-65.2129
-65.2129
-65.2129
-65.2129
-65.2129
-65.2128
-41.0022
-41.002
-41.002
-41.002
-41.002
-41.0023
-52.2228
-52.2229
-52.2227
-52.2226
-52.2226
-52.2225
-64.1247
-64.1247
-64.1247
-64.1246
-64.1247
-64.1245
-36.8502
-36.85
-36.85
-36.85
-36.8501
-36.8503
-49.7231
-49.7232
-49.7231
-49.7231
-49.7231
-49.7228
-63.128
-63.128
-63.128
-63.128
-63.128
-63.128
-35.0616
-35.0615
-35.0614
-35.0613
-35.0612
-35.0611
-48.7776
-48.7777
-48.7777
-48.7777
-48.7776
-48.7775
-62.1752
-62.1752
-62.1752
-62.1752
-62.1751
-62.1751
-32.946
-32.9459
-32.9457
-32.9456
-32.9455
-32.9453
-48.7155
-48.7156
-48.7155
-48.7155
-48.7155
-48.7156
-61.6199
-61.6199
-61.6197
-61.6197
-61.6196
-61.6196
-38.4752
-38.4773
-38.4765
-38.4765
-38.4766
-38.4761
-56.5408
-56.5411
-56.5406
-56.5406
-56.5404
-56.5393
-59.1719
-59.1717
-59.1715
-59.1717
-59.1715
-59.171
-22.7883
-22.7908
-22.7877
-22.7873
-22.7884
-22.7884
-36.3993
-36.3972
-36.3942
-36.3938
-36.3933
-36.3965
-62.8519
-62.8513
-62.8501
-62.8502
-62.8497
-62.8501
-34.3577
-34.3337
-34.3426
-34.3441
-34.3323
-34.3536
-44.9631
-44.9534
-44.957
-44.9584
-44.9521
-44.9616
-69.1344
-69.1286
-69.1307
-69.1305
-69.1264
-69.1331
29.1531
29.5058
29.3544
29.2905
29.4693
29.2002
-155.874
-155.888
-155.855
-155.854
-155.824
-155.907
-117.119
-117.133
-117.128
-117.125
-117.126
-117.129
3525.73
3523
3523.89
3523.88
3523.12
3524.94
94.505
95.0099
94.8206
94.8667
95.0227
94.6422
-91.4992
-91.4882
-91.4916
-91.4926
-91.4931
-91.4856
91.1332
92.4004
93.6787
89.4714
90.541
92.66
-739.067
-736.92
-736.788
-738.13
-726.536
-733.338
-251
-251.062
-250.973
-250.541
-249.552
-250.441
2341.13
2344.08
2345.06
2348.21
2365.85
2320.27
-35.2843
-35.2738
-34.725
-36.0083
-36.8127
-34.0401
-149.155
-149.254
-149.188
-149.095
-149.119
-148.685
2267.84
2268.4
2268.85
2271.88
2273.54
2266.76
-52.6087
-52.6694
-52.5637
-53.0748
-54.0681
-51.8111
-113.47
-113.471
-113.445
-113.362
-113.323
-113.331
3377.95
3378.24
3379.05
3379.46
3383.75
3375.49
228.838
229.2
229.328
229.094
230.88
227.268
-88.7275
-88.72
-88.7061
-88.667
-88.6362
-88.638
4019.12
4019.05
4019.42
4019.97
4020.09
4020.33
709.303
710.005
709.992
709.915
711.106
708.597
-79.3421
-79.3371
-79.3318
-79.3179
-79.304
-79.325
4241.47
4241.41
4241.5
4241.92
4241.72
4241.76
692.438
693.198
692.975
693.042
693.384
692.507
-79.0211
-79.0135
-79.0113
-79.0051
-78.994
-79.0044
-41.8059
-41.8059
-41.8059
-41.8059
-41.806
-41.806
-52.4906
-52.4906
-52.4907
-52.4907
-52.4907
-52.4908
-63.2592
-63.2592
-63.2593
-63.2593
-63.2593
-63.2593
-41.6526
-41.6527
-41.6527
-41.6527
-41.6528
-41.6528
-52.3911
-52.3912
-52.3912
-52.3912
-52.3912
-52.3912
-63.2238
-63.2238
-63.2238
-63.2238
-63.2238
-63.2238
-41.3262
-41.3263
-41.3262
-41.3262
-41.3261
-41.326
-52.1796
-52.1796
-52.1796
-52.1795
-52.1795
-52.1794
-63.1486
-63.1486
-63.1486
-63.1486
-63.1485
-63.1485
-40.7756
-40.7755
-40.7755
-40.7754
-40.7753
-40.7753
-51.8289
-51.8288
-51.8288
-51.8287
-51.8287
-51.8288
-63.0255
-63.0255
-63.0255
-63.0255
-63.0255
-63.0255
-39.9002
-39.9002
-39.9002
-39.9002
-39.9003
-39.9003
-51.2904
-51.2904
-51.2904
-51.2904
-51.2905
-51.2905
-62.8441
-62.8441
-62.8441
-62.8441
-62.8442
-62.8441
-38.5074
-38.5075
-38.5076
-38.5077
-38.5078
-38.5078
-50.4902
-50.4903
-50.4903
-50.4903
-50.4903
-50.4903
-62.6131
-62.6131
-62.6131
-62.613
-62.613
-62.6129
-36.2768
-36.277
-36.2774
-36.2778
-36.2779
-36.2774
-49.3914
-49.3916
-49.3916
-49.3916
-49.3916
-49.3915
-62.4038
-62.4037
-62.4035
-62.4034
-62.4033
-62.4035
-32.6441
-32.6444
-32.6459
-32.649
-32.6513
-32.6431
-47.2243
-47.2249
-47.2249
-47.2247
-47.224
-47.2242
-61.9014
-61.9015
-61.8998
-61.8973
-61.8959
-61.9
-26.4939
-26.4935
-26.5007
-26.5071
-26.5313
-26.4861
-44.8393
-44.8408
-44.8499
-44.8639
-44.8706
-44.8608
-61.0535
-61.0516
-61.0574
-61.0875
-61.093
-61.0639
-25.3484
-25.3466
-25.3759
-25.335
-25.3898
-25.3408
-64.1294
-64.1432
-64.1719
-64.118
-64.1423
-64.1887
-76.5897
-76.5813
-76.6056
-76.6923
-76.746
-76.6802
-25.5529
-25.5917
-25.6185
-25.4945
-25.5475
-25.5917
-24.4468
-24.4868
-24.4948
-24.3296
-24.311
-24.5706
-48.4496
-48.4843
-48.4726
-48.3667
-48.3323
-48.4839
-20.1286
-20.1023
-20.0389
-20.3356
-20.3883
-20.1181
-143.524
-143.782
-143.783
-143.428
-142.814
-144.411
-153.88
-153.602
-153.68
-154.249
-154.04
-154.29
)
;

boundaryField
{
    seabed_topleft_surface
    {
        type            calculated;
        value           nonuniform List<scalar> 
72
(
6259.41
6259.38
6259.4
6259.41
6259.39
6259.43
6156.11
6156.07
6156.08
6156.11
6156.1
6156.08
6482.38
6482.35
6482.36
6482.38
6482.38
6482.36
7122.25
7122.25
7122.25
7122.27
7122.28
7122.25
7822.7
7822.7
7822.71
7822.73
7822.74
7822.71
8573.23
8573.23
8573.24
8573.25
8573.26
8573.26
9696.88
9696.85
9696.86
9696.86
9696.85
9696.89
11756.2
11756.2
11756.2
11756.2
11756.2
11756.2
14583.9
14583.9
14583.9
14583.9
14583.9
14583.9
18690.8
18690.7
18690.7
18690.7
18690.6
18690.7
21826.2
21826
21826.1
21826
21826
21826.1
24237.6
24237.5
24237.5
24237.5
24237.5
24237.5
)
;
    }
    seabed_topright_surface
    {
        type            calculated;
        value           nonuniform List<scalar> 
72
(
4.23237
4.23239
4.23243
4.23247
4.23251
4.23254
4.42758
4.4276
4.42764
4.42768
4.42772
4.42773
4.82158
4.82162
4.82164
4.82166
4.82166
4.82165
5.42063
5.42068
5.42067
5.42062
5.42056
5.42048
6.23038
6.23041
6.23032
6.23016
6.22997
6.22979
7.24915
7.24912
7.24892
7.24869
7.24845
7.24825
8.45603
8.45595
8.45584
8.45576
8.45571
8.45571
9.79559
9.79563
9.79585
9.79622
9.79666
9.79702
11.1485
11.1485
11.1492
11.1504
11.1517
11.1529
12.3866
12.3865
12.3864
12.386
12.3859
12.3857
13.8824
13.8827
13.8833
13.882
13.8821
13.8806
12.5917
12.5917
12.5916
12.5898
12.59
12.5883
)
;
    }
    breakwater_top_surface
    {
        type            calculated;
        value           nonuniform List<scalar> 
36
(
869.268
870.32
875.599
862.382
865.796
877.132
4209.53
4211.2
4212.86
4220.64
4241.46
4192.27
4630.63
4630.81
4630.39
4640.84
4648.39
4625.92
6437.31
6437.84
6438.3
6441.42
6449.83
6431.09
7387.35
7387.32
7387.71
7388.28
7388.42
7388.62
7609.74
7609.7
7609.82
7610.25
7610.06
7610.1
)
;
    }
    breakwater_left_surface
    {
        type            calculated;
        value           nonuniform List<scalar> 
24
(
19474.9
19474.9
19474.9
19474.8
19474.8
19474.9
12320.1
12320
12320
12320
12319.9
12320
7896.07
7896.01
7895.88
7895.89
7896
7895.94
4936.58
4935.17
4935.3
4935.42
4935.41
4935.7
)
;
    }
    breakwater_right_surface
    {
        type            calculated;
        value           nonuniform List<scalar> 
24
(
7.68671
7.68669
7.68662
7.68479
7.685
7.68334
-5.21849
-5.21906
-5.22011
-5.21994
-5.21922
-5.21476
-11.6445
-11.6384
-11.6234
-11.674
-11.6432
-11.661
-44.8505
-44.8104
-44.8552
-44.8729
-44.9402
-44.8057
)
;
    }
    water_front_surface
    {
        type            calculated;
        value           nonuniform List<scalar> 
186
(
3176.28
3073.87
3215.06
3549.21
3955.92
4434.64
5259.79
6967.07
9794.71
13901.6
17037.1
19458.6
-23.5125
-64.7487
-52.1023
7.95517
101.154
155.099
295.556
672.129
2018.45
5626.65
9280.02
12304.1
-42.4371
-45.8559
-40.8933
-22.5112
-9.54698
-10.8847
-11.7999
0.21813
97.8992
749.786
4618.19
7880.32
-48.1692
-46.5673
-40.6394
-26.6284
-17.6741
-18.5229
-20.5022
-18.9713
-3.94392
124.368
1898.71
4921.14
-0.689487
-0.494278
-0.100274
0.498774
1.30852
2.3273
3.53417
4.87373
6.2266
7.46472
8.96056
7.66985
-10.6948
-10.497
-10.0976
-9.49107
-8.67469
-7.6532
-6.44387
-5.0797
-3.60737
-2.12516
-0.219093
-5.235
-20.8937
-20.6968
-20.291
-19.6506
-18.7347
-17.4923
-15.8904
-13.9652
-11.9215
-10.7434
-8.10227
-11.6607
-31.2767
-31.0941
-30.7157
-30.1178
-29.2681
-28.1242
-26.6208
-24.6519
-22.3992
-18.0818
-8.31357
-44.8727
-52.9062
-59.113
-66.4105
-51.5124
-58.0793
-66.019
-47.9597
-55.7346
-65.2129
-41.0022
-52.2228
-64.1247
-36.8502
-49.7231
-63.128
-35.0616
-48.7776
-62.1752
-32.946
-48.7155
-61.6199
-38.4752
-56.5408
-59.1719
-22.7883
-36.3993
-62.8519
-34.3577
-44.9631
-69.1344
29.1531
-155.874
-117.119
3525.73
94.505
-91.4992
91.1332
-739.067
-251
2341.13
-35.2843
-149.155
2267.84
-52.6087
-113.47
3377.95
228.838
-88.7275
4019.12
709.303
-79.3421
4241.47
692.438
-79.0211
-41.8059
-52.4906
-63.2592
-41.6526
-52.3911
-63.2238
-41.3262
-52.1796
-63.1486
-40.7756
-51.8289
-63.0255
-39.9002
-51.2904
-62.8441
-38.5074
-50.4902
-62.6131
-36.2768
-49.3914
-62.4038
-32.6441
-47.2243
-61.9014
-26.4939
-44.8393
-61.0535
-25.3484
-64.1294
-76.5897
-25.5529
-24.4468
-48.4496
-20.1286
-143.524
-153.88
)
;
    }
    water_back_surface
    {
        type            calculated;
        value           nonuniform List<scalar> 
186
(
3176.3
3073.86
3215.05
3549.21
3955.93
4434.67
5259.81
6967.09
9794.7
13901.5
17037
19458.5
-23.5151
-64.7495
-52.1023
7.95559
101.156
155.107
295.57
672.137
2018.42
5626.53
9279.89
12303.9
-42.4373
-45.8564
-40.8941
-22.5098
-9.54483
-10.8825
-11.7988
0.215884
97.8927
749.66
4617.89
7880.19
-48.1689
-46.5671
-40.6394
-26.6281
-17.6744
-18.5228
-20.5011
-18.971
-3.94653
124.343
1897.07
4920.27
-0.689317
-0.494125
-0.100203
0.498627
1.30793
2.3264
3.53385
4.87517
6.23106
7.46384
8.95879
7.66648
-10.6946
-10.4969
-10.0976
-9.49128
-8.67512
-7.65333
-6.44314
-5.07946
-3.6103
-2.13172
-0.217534
-5.23128
-20.8936
-20.6968
-20.2911
-19.6506
-18.7347
-17.4919
-15.89
-13.9672
-11.9301
-10.7525
-8.10881
-11.6771
-31.2768
-31.0942
-30.7156
-30.1175
-29.2678
-28.1238
-26.6211
-24.6548
-22.4056
-18.0791
-8.30988
-44.8279
-52.9054
-59.1126
-66.4105
-51.5121
-58.0794
-66.0191
-47.96
-55.7349
-65.2128
-41.0023
-52.2225
-64.1245
-36.8503
-49.7228
-63.128
-35.0611
-48.7775
-62.1751
-32.9453
-48.7156
-61.6196
-38.4761
-56.5393
-59.171
-22.7884
-36.3965
-62.8501
-34.3536
-44.9616
-69.1331
29.2002
-155.907
-117.129
3524.94
94.6422
-91.4856
92.66
-733.338
-250.441
2320.27
-34.0401
-148.685
2266.76
-51.8111
-113.331
3375.49
227.268
-88.638
4020.33
708.597
-79.325
4241.76
692.507
-79.0044
-41.806
-52.4908
-63.2593
-41.6528
-52.3912
-63.2238
-41.326
-52.1794
-63.1485
-40.7753
-51.8288
-63.0255
-39.9003
-51.2905
-62.8441
-38.5078
-50.4903
-62.6129
-36.2774
-49.3915
-62.4035
-32.6431
-47.2242
-61.9
-26.4861
-44.8608
-61.0639
-25.3408
-64.1887
-76.6802
-25.5917
-24.5706
-48.4839
-20.1181
-144.411
-154.29
)
;
    }
    water_left_surface
    {
        type            calculated;
        value           nonuniform List<scalar> 
42
(
3186.83
3186.81
3186.83
3186.83
3186.81
3186.85
-23.3907
-23.3989
-23.398
-23.3973
-23.4004
-23.3932
-42.4209
-42.4208
-42.4208
-42.4211
-42.4212
-42.4211
-48.1533
-48.1529
-48.1529
-48.1527
-48.1526
-48.153
-52.9062
-52.9061
-52.9059
-52.9057
-52.9055
-52.9054
-59.113
-59.113
-59.1128
-59.1127
-59.1126
-59.1126
-66.4105
-66.4106
-66.4105
-66.4105
-66.4105
-66.4105
)
;
    }
    water_right_surface
    {
        type            calculated;
        value           nonuniform List<scalar> 
42
(
-0.672631
-0.672612
-0.672575
-0.672529
-0.672487
-0.672461
-10.6783
-10.6783
-10.6782
-10.6782
-10.6781
-10.6781
-20.8775
-20.8775
-20.8774
-20.8774
-20.8774
-20.8774
-31.2608
-31.2608
-31.2608
-31.2608
-31.2609
-31.2609
-41.8059
-41.8059
-41.8059
-41.8059
-41.806
-41.806
-52.4906
-52.4906
-52.4907
-52.4907
-52.4907
-52.4908
-63.2592
-63.2592
-63.2593
-63.2593
-63.2593
-63.2593
)
;
    }
    water_top_surface
    {
        type            calculated;
        value           nonuniform List<scalar> 
180
(
-70.0347
-70.035
-70.035
-70.035
-70.035
-70.0348
-69.9829
-69.9832
-69.9831
-69.9831
-69.9831
-69.9828
-69.6376
-69.6378
-69.6378
-69.6377
-69.6378
-69.6375
-69.4161
-69.4163
-69.4163
-69.4163
-69.4163
-69.4161
-69.1524
-69.1526
-69.1526
-69.1526
-69.1526
-69.1524
-68.9765
-68.9766
-68.9766
-68.9766
-68.9766
-68.9766
-68.8596
-68.8596
-68.8596
-68.8597
-68.8598
-68.8597
-68.863
-68.863
-68.863
-68.8631
-68.8631
-68.863
-68.67
-68.67
-68.67
-68.67
-68.67
-68.67
-68.6741
-68.6741
-68.6741
-68.6741
-68.6741
-68.6741
-200.275
-200.404
-200.334
-200.324
-200.253
-200.39
-99.8862
-99.9525
-99.9298
-99.9152
-99.9391
-99.9105
-833.947
-835.857
-840.888
-821.737
-794.861
-854.304
-117.672
-117.868
-117.782
-118.152
-118.433
-116.056
-87.932
-87.9636
-87.8931
-88.109
-88.0217
-88.0044
-86.8107
-86.8536
-86.8333
-86.8754
-87.049
-86.6446
-81.5384
-81.5547
-81.5423
-81.5706
-81.6147
-81.5316
-84.5932
-84.5993
-84.5961
-84.5889
-84.5949
-84.6075
-68.67
-68.67
-68.67
-68.67
-68.67
-68.67
-68.67
-68.67
-68.67
-68.67
-68.67
-68.67
-68.67
-68.67
-68.67
-68.67
-68.67
-68.67
-68.67
-68.67
-68.67
-68.67
-68.67
-68.67
-68.67
-68.67
-68.67
-68.67
-68.67
-68.67
-68.67
-68.67
-68.67
-68.67
-68.67
-68.67
-68.67
-68.67
-68.67
-68.67
-68.67
-68.67
-68.67
-68.67
-68.67
-68.67
-68.67
-68.67
-68.6701
-68.6701
-68.6701
-68.6701
-68.6701
-68.6701
-68.6737
-68.6737
-68.6738
-68.6736
-68.6736
-68.6738
-68.6765
-68.6761
-68.675
-68.6776
-68.68
-68.67
-335.997
-343.232
-349.622
-324.65
-316.827
-357.481
)
;
    }
}


// ************************************************************************* //
