/*--------------------------------*- C++ -*----------------------------------*\
| =========                 |                                                 |
| \\      /  F ield         | OpenFOAM: The Open Source CFD Toolbox           |
|  \\    /   O peration     | Version:  v1612+                                |
|   \\  /    A nd           | Web:      www.OpenFOAM.com                      |
|    \\/     M anipulation  |                                                 |
\*---------------------------------------------------------------------------*/
FoamFile
{
    version     2.0;
    format      ascii;
    class       volScalarField;
    location    "4.1";
    object      alpha.water;
}
// * * * * * * * * * * * * * * * * * * * * * * * * * * * * * * * * * * * * * //

dimensions      [0 0 0 0 0 0 0];

internalField   nonuniform List<scalar> 
1116
(
0.511382
0.511386
0.511386
0.511389
0.511391
0.511383
0.516111
0.516114
0.516115
0.516117
0.516119
0.516112
0.551135
0.551137
0.551139
0.551139
0.551141
0.551138
0.615096
0.615098
0.6151
0.6151
0.615101
0.615101
0.698037
0.69804
0.698042
0.698041
0.698043
0.698043
0.799645
0.799645
0.799647
0.799647
0.799647
0.799649
0.915667
0.915662
0.915664
0.915664
0.915661
0.915666
0.972992
0.972992
0.972992
0.972992
0.972992
0.972992
0.972992
0.972992
0.972992
0.972992
0.972992
0.972992
0.972992
0.972992
0.972992
0.972992
0.972992
0.972992
0.972953
0.972953
0.972953
0.972953
0.972953
0.972953
0.971635
0.971635
0.971635
0.971635
0.971635
0.971635
1.38665e-08
1.38669e-08
1.38669e-08
1.38671e-08
1.38673e-08
1.38675e-08
6.28052e-09
6.28091e-09
6.28092e-09
6.28069e-09
6.2808e-09
6.28103e-09
4.74545e-09
4.74547e-09
4.74545e-09
4.74544e-09
4.74545e-09
4.74545e-09
4.55341e-09
4.55339e-09
4.55339e-09
4.55339e-09
4.55338e-09
4.55336e-09
4.65261e-09
4.6526e-09
4.65258e-09
4.65259e-09
4.6526e-09
4.65258e-09
0.000916071
0.000916733
0.000916574
0.000916543
0.000916719
0.000916559
0.0305887
0.0305934
0.030593
0.030594
0.0305955
0.0305934
0.237628
0.2376
0.237614
0.237615
0.237608
0.237624
0.685663
0.685666
0.685662
0.685661
0.685658
0.685668
0.972179
0.972186
0.972182
0.972182
0.972182
0.972182
0.97294
0.97294
0.97294
0.97294
0.97294
0.97294
0.972848
0.972848
0.972848
0.972848
0.972848
0.972848
1.6826e-07
1.68211e-07
1.68233e-07
1.68244e-07
1.68228e-07
1.68295e-07
5.0388e-07
5.0388e-07
5.03892e-07
5.03884e-07
5.03865e-07
5.03905e-07
2.42597e-08
2.42758e-08
2.42749e-08
2.42675e-08
2.4273e-08
2.42778e-08
4.06655e-09
4.06631e-09
4.06634e-09
4.06636e-09
4.06628e-09
4.06635e-09
3.13955e-09
3.13837e-09
3.13865e-09
3.13853e-09
3.13812e-09
3.13915e-09
-7.5101e-10
-7.14744e-10
-7.22845e-10
-7.21925e-10
-7.17212e-10
-7.26982e-10
4.62011e-05
4.62223e-05
4.62176e-05
4.62171e-05
4.62229e-05
4.62165e-05
0.000497648
0.000498246
0.000497958
0.000497905
0.000498004
0.000497809
0.091812
0.0918182
0.0918126
0.0918081
0.0918046
0.0918159
0.49371
0.493766
0.493736
0.493725
0.493735
0.493726
0.878834
0.87883
0.878825
0.878822
0.87881
0.878836
0.972812
0.972812
0.972812
0.972812
0.972812
0.972812
2.59922e-07
2.59773e-07
2.59823e-07
2.59851e-07
2.59818e-07
2.59984e-07
8.86182e-07
8.86182e-07
8.86177e-07
8.86183e-07
8.86194e-07
8.86194e-07
1.87871e-07
1.87825e-07
1.87841e-07
1.87833e-07
1.87822e-07
1.87926e-07
2.60719e-10
2.59425e-10
2.59631e-10
2.5911e-10
2.58547e-10
2.60141e-10
3.4731e-09
3.47335e-09
3.47317e-09
3.47286e-09
3.47262e-09
3.47244e-09
1.49383e-07
1.4946e-07
1.49399e-07
1.49366e-07
1.49359e-07
1.49356e-07
2.39011e-06
2.38955e-06
2.38981e-06
2.38974e-06
2.38957e-06
2.38966e-06
4.00842e-05
4.0154e-05
4.01216e-05
4.01169e-05
4.01264e-05
4.01098e-05
0.000495283
0.000495862
0.000495583
0.000495532
0.000495628
0.000495438
0.255237
0.25553
0.255423
0.255365
0.255452
0.255314
0.705816
0.706417
0.706166
0.70608
0.706263
0.705989
0.859776
0.859922
0.859859
0.859887
0.859924
0.85982
8.16703e-22
8.08297e-22
8.67606e-22
7.43477e-22
7.35172e-22
9.30731e-22
2.61416e-19
2.58624e-19
2.77857e-19
2.37887e-19
2.34707e-19
2.98498e-19
1.81171e-17
1.80278e-17
1.86227e-17
1.73321e-17
1.72215e-17
1.92076e-17
6.70589e-17
6.64599e-17
7.05848e-17
6.22053e-17
6.14485e-17
7.51493e-17
3.82688e-15
3.83663e-15
3.75215e-15
3.86308e-15
3.87278e-15
3.59723e-15
2.04812e-13
2.02857e-13
2.16843e-13
1.89393e-13
1.86364e-13
2.33404e-13
1.63958e-11
1.62053e-11
1.74505e-11
1.48832e-11
1.46122e-11
1.88232e-11
5.72921e-08
5.66981e-08
6.12539e-08
5.17676e-08
5.09263e-08
6.62123e-08
2.62571e-06
2.59574e-06
2.79915e-06
2.38326e-06
2.33197e-06
3.02188e-06
1.39221e-06
1.38838e-06
1.44335e-06
1.29713e-06
1.23294e-06
1.56581e-06
4.16016e-07
4.04663e-07
3.91918e-07
4.15998e-07
4.52378e-07
3.5803e-07
3.63801e-07
3.57689e-07
3.50836e-07
3.48656e-07
3.48656e-07
3.48656e-07
2.47865e-20
2.45632e-20
2.59917e-20
2.30161e-20
2.2726e-20
2.75256e-20
7.44344e-18
7.3729e-18
7.79718e-18
6.91693e-18
6.81619e-18
8.26378e-18
2.24792e-17
2.24304e-17
2.27346e-17
2.21084e-17
2.20439e-17
2.30719e-17
8.36244e-16
8.29985e-16
8.66436e-16
7.89309e-16
7.79867e-16
9.05365e-16
1.05809e-13
1.04762e-13
1.10785e-13
9.83099e-14
9.6741e-14
1.17498e-13
8.71932e-12
8.62132e-12
9.1071e-12
8.12688e-12
8.01866e-12
9.66541e-12
7.62708e-10
7.54956e-10
7.98793e-10
7.08233e-10
6.96144e-10
8.48243e-10
4.84812e-08
4.79949e-08
5.07688e-08
4.50455e-08
4.4272e-08
5.38999e-08
0.000140149
0.000139085
0.000145957
0.000131621
0.000129306
0.000153812
0.00127472
0.00126852
0.00130744
0.00122571
0.00120561
0.00135835
1.39222e-06
1.38859e-06
1.44376e-06
1.29753e-06
1.23324e-06
1.56673e-06
1.47765e-05
1.48246e-05
1.49293e-05
1.46007e-05
1.40628e-05
1.55015e-05
1.2287e-19
1.21763e-19
1.2533e-19
1.18562e-19
1.17814e-19
1.28927e-19
1.71691e-17
1.70815e-17
1.73455e-17
1.68458e-17
1.67822e-17
1.76088e-17
5.57581e-17
5.53547e-17
5.66328e-17
5.42112e-17
5.38694e-17
5.79725e-17
2.60659e-15
2.57981e-15
2.64515e-15
2.52971e-15
2.50996e-15
2.71283e-15
4.13487e-13
4.09324e-13
4.19368e-13
4.01484e-13
3.98432e-13
4.29678e-13
3.29349e-11
3.25779e-11
3.33939e-11
3.19623e-11
3.16955e-11
3.42329e-11
2.713e-09
2.68341e-09
2.74988e-09
2.63409e-09
2.61267e-09
2.81861e-09
1.0892e-07
1.08049e-07
1.12504e-07
1.04132e-07
1.02734e-07
1.1947e-07
6.52576e-06
6.46315e-06
6.61234e-06
6.33697e-06
6.26955e-06
6.77437e-06
0.00607506
0.00604243
0.00613871
0.00595603
0.00589534
0.00627356
0.0154038
0.0153694
0.0155433
0.0151771
0.0149402
0.0159131
6.2111e-06
6.18535e-06
6.15567e-06
6.14271e-06
6.14271e-06
6.14271e-06
1.38408e-20
1.37124e-20
1.40137e-20
1.35059e-20
1.35746e-20
1.42331e-20
2.57282e-18
2.54697e-18
2.60243e-18
2.511e-18
2.5161e-18
2.64872e-18
6.21311e-17
6.15403e-17
6.29007e-17
6.05856e-17
6.067e-17
6.3995e-17
5.76668e-15
5.7453e-15
5.87063e-15
5.5924e-15
5.514e-15
6.0129e-15
5.09277e-13
5.10366e-13
5.19342e-13
4.95033e-13
4.85188e-13
5.30134e-13
1.50231e-12
1.4831e-12
1.51021e-12
1.47346e-12
1.47305e-12
1.53929e-12
-5.02385e-10
-4.91002e-10
-4.79293e-10
-5.14347e-10
-5.24714e-10
-4.4135e-10
4.03577e-08
4.18232e-08
4.70699e-08
3.26777e-08
2.69682e-08
5.55812e-08
4.08377e-07
4.00632e-07
4.02688e-07
4.08479e-07
4.14863e-07
4.04458e-07
2.09127e-05
2.04737e-05
2.02934e-05
2.12502e-05
2.16856e-05
2.01016e-05
0.0346773
0.0345114
0.0346696
0.0345738
0.0343655
0.0351317
0.0862661
0.0860959
0.0868367
0.0853048
0.0838771
0.0887001
1.33065e-08
1.32897e-08
1.32955e-08
1.32934e-08
1.32803e-08
1.33078e-08
2.56852e-09
2.55561e-09
2.55992e-09
2.55866e-09
2.54939e-09
2.57046e-09
-2.37096e-16
-2.59643e-16
-2.66522e-16
-2.60597e-16
-2.59053e-16
-2.65301e-16
8.24518e-07
8.23997e-07
8.24176e-07
8.24149e-07
8.23813e-07
8.24619e-07
9.99097e-25
1.00457e-24
1.03122e-24
9.93169e-25
9.64697e-25
1.0579e-24
-1.42973e-15
-1.56561e-15
-1.60718e-15
-1.57143e-15
-1.56212e-15
-1.59991e-15
2.07718e-07
2.07595e-07
2.07622e-07
2.07616e-07
2.07581e-07
2.07753e-07
1.32162e-21
1.21468e-21
1.23182e-21
1.19061e-21
1.14729e-21
1.28625e-21
-9.50045e-15
-1.04074e-14
-1.06843e-14
-1.04458e-14
-1.03837e-14
-1.0635e-14
1.48485e-11
1.35695e-11
1.37749e-11
1.32828e-11
1.27672e-11
1.44329e-11
1.3801e-11
1.25339e-11
1.27374e-11
1.22499e-11
1.17391e-11
1.33893e-11
-2.0625e-15
-2.78128e-15
-2.99811e-15
-2.81006e-15
-2.76197e-15
-2.95671e-15
1.20206e-08
1.20209e-08
1.20209e-08
1.20201e-08
1.20179e-08
1.20139e-08
2.08425e-13
2.08296e-13
2.08341e-13
2.08324e-13
2.08294e-13
2.08386e-13
1.56904e-17
1.56836e-17
1.56846e-17
1.56828e-17
1.56809e-17
1.56903e-17
8.83432e-09
8.83177e-09
8.83122e-09
8.82876e-09
8.82613e-09
8.82957e-09
3.80959e-11
3.80736e-11
3.80805e-11
3.80778e-11
3.80719e-11
3.80882e-11
2.08418e-13
2.0829e-13
2.08334e-13
2.08318e-13
2.08287e-13
2.0838e-13
7.43276e-08
7.4356e-08
7.43498e-08
7.43491e-08
7.43484e-08
7.4344e-08
1.26197e-09
1.26119e-09
1.26166e-09
1.26164e-09
1.26146e-09
1.26173e-09
3.80987e-11
3.80764e-11
3.80833e-11
3.80806e-11
3.80747e-11
3.8091e-11
2.78408e-06
2.78076e-06
2.78181e-06
2.78131e-06
2.77942e-06
2.78165e-06
6.23272e-08
6.22176e-08
6.21443e-08
6.20311e-08
6.19167e-08
6.19983e-08
1.26229e-09
1.26149e-09
1.26196e-09
1.26195e-09
1.26176e-09
1.26203e-09
5.89652e-05
5.89915e-05
5.8948e-05
5.89036e-05
5.88508e-05
5.88959e-05
2.79403e-06
2.79916e-06
2.797e-06
2.79665e-06
2.7973e-06
2.79614e-06
1.33195e-07
1.33455e-07
1.33357e-07
1.33334e-07
1.33368e-07
1.33315e-07
6.35871e-06
6.28582e-06
6.26236e-06
6.19901e-06
6.09834e-06
6.20099e-06
5.68081e-06
5.64643e-06
5.63131e-06
5.59749e-06
5.54469e-06
5.59699e-06
5.63888e-06
5.54314e-06
5.51339e-06
5.43801e-06
5.31552e-06
5.4381e-06
0.0511971
0.0515849
0.0514221
0.0513825
0.051457
0.0513445
3.50162e-06
3.469e-06
3.45796e-06
3.42822e-06
3.38083e-06
3.43012e-06
0.000265861
0.000265879
0.000265991
0.000266029
0.000266056
0.000266201
0.174731
0.174793
0.174758
0.174841
0.174901
0.174705
-1.78879e-13
-1.99677e-13
-3.12667e-13
-3.00767e-13
-3.2058e-13
-5.26698e-13
-2.54741e-25
-6.60468e-23
-6.33425e-23
-4.99769e-23
-3.45786e-24
-5.41196e-23
0.379756
0.379724
0.379832
0.379957
0.38024
0.379596
4.01148e-06
2.59419e-06
2.15e-06
4.32578e-06
3.62351e-06
1.1504e-06
6.03548e-05
5.59175e-05
5.48404e-05
6.2667e-05
5.97877e-05
4.90105e-05
0.44063
0.44102
0.441047
0.440745
0.441457
0.440277
-1.62804e-16
-3.07875e-16
-7.40354e-16
-9.84123e-16
-1.60988e-15
-8.24758e-18
-1.12785e-23
-4.55149e-24
-2.2638e-23
-8.23422e-24
-4.95057e-24
-8.49792e-24
0.530753
0.530743
0.530794
0.530787
0.530837
0.530744
-3.30079e-12
-5.79827e-12
-6.69013e-12
-4.99008e-12
-7.90009e-12
-6.84775e-12
-1.96589e-24
-1.68595e-24
-9.0618e-24
-6.07123e-25
-2.88759e-24
-3.53313e-24
0.546846
0.546873
0.5469
0.546931
0.546947
0.546908
0.0193547
0.0193775
0.0193486
0.0194654
0.019672
0.0191843
-6.20815e-23
-7.83126e-23
-8.46688e-23
-8.64079e-23
-8.29307e-23
-6.04512e-23
0.546873
0.5469
0.546931
0.546947
0.546947
0.546947
0.0456596
0.0457371
0.0456945
0.0458021
0.0461262
0.0453569
-8.75959e-23
-1.1057e-22
-1.19545e-22
-1.22059e-22
-1.17557e-22
-8.48932e-23
0.535803
0.535919
0.535853
0.536033
0.536335
0.535546
-4.82084e-16
-5.80777e-15
-2.36886e-15
-5.32957e-15
-2.02552e-14
-1.65513e-15
-5.50227e-23
-6.94493e-23
-7.50555e-23
-7.68373e-23
-7.4246e-23
-5.30467e-23
3.85049e-21
3.84004e-21
3.85047e-21
3.82377e-21
3.76728e-21
3.93538e-21
4.3913e-22
4.38629e-22
4.39034e-22
4.36345e-22
4.27751e-22
4.49542e-22
2.35261e-23
2.3513e-23
2.35371e-23
2.33635e-23
2.29025e-23
2.41028e-23
4.81637e-19
4.79643e-19
4.8115e-19
4.78823e-19
4.73028e-19
4.90922e-19
7.06043e-20
7.04966e-20
7.05153e-20
7.02562e-20
6.87261e-20
7.22083e-20
4.96668e-21
4.96294e-21
4.96501e-21
4.93993e-21
4.83066e-21
5.08546e-21
2.01599e-17
2.00154e-17
2.01012e-17
2.0076e-17
1.99667e-17
2.04352e-17
4.19084e-18
4.18407e-18
4.18064e-18
4.17833e-18
4.06721e-18
4.28381e-18
4.48488e-19
4.48252e-19
4.48055e-19
4.47213e-19
4.34846e-19
4.59154e-19
2.78126e-17
2.76651e-17
2.77035e-17
2.77961e-17
2.77249e-17
2.80066e-17
5.04467e-17
5.03219e-17
5.03278e-17
5.03212e-17
4.90724e-17
5.14761e-17
2.47221e-17
2.47567e-17
2.47124e-17
2.47243e-17
2.37763e-17
2.53553e-17
2.27994e-16
2.24876e-16
2.26452e-16
2.27205e-16
2.28783e-16
2.29814e-16
2.16303e-14
2.16985e-14
2.15705e-14
2.16415e-14
2.04684e-14
2.2323e-14
2.72748e-15
2.74656e-15
2.73363e-15
2.72278e-15
2.55343e-15
2.83927e-15
2.54778e-14
2.50243e-14
2.51505e-14
2.55174e-14
2.58277e-14
2.55473e-14
5.28705e-13
5.32616e-13
5.2699e-13
5.29794e-13
5.05061e-13
5.48031e-13
9.9199e-14
9.95006e-14
9.89798e-14
9.90007e-14
9.58116e-14
1.01972e-13
2.59588e-12
2.54492e-12
2.54871e-12
2.61504e-12
2.65386e-12
2.59154e-12
1.58983e-13
1.58387e-13
1.57434e-13
1.59219e-13
1.55059e-13
1.6243e-13
9.99497e-14
1.00233e-13
9.97121e-14
9.97587e-14
9.65836e-14
1.02719e-13
2.16714e-11
2.21817e-11
2.71434e-11
1.74332e-11
1.80771e-11
2.44742e-11
4.12829e-12
4.06239e-12
4.02424e-12
4.17535e-12
4.13505e-12
4.17941e-12
1.58982e-13
1.58385e-13
1.57433e-13
1.59217e-13
1.55058e-13
1.62428e-13
1.57503e-08
1.54117e-08
1.52725e-08
1.57026e-08
1.59335e-08
1.56187e-08
4.30323e-10
4.25366e-10
4.18092e-10
4.34355e-10
4.18226e-10
4.374e-10
1.72956e-08
1.66239e-08
1.67665e-08
1.66726e-08
1.61531e-08
1.5507e-08
1.08371e-06
1.0532e-06
1.01975e-06
1.14319e-06
1.16327e-06
1.06977e-06
2.82318e-05
2.85953e-05
2.87885e-05
2.98739e-05
2.61502e-05
2.48884e-05
6.1929e-06
6.00341e-06
5.89823e-06
6.28283e-06
5.94433e-06
5.7108e-06
0.000164204
0.000174826
0.00017615
0.000166516
0.000166416
0.000186143
0.0011156
0.00120531
0.00121161
0.00100687
0.000863584
0.00141238
5.16521e-20
4.70056e-20
3.55123e-11
5.74542e-20
6.39206e-20
6.62958e-11
0.17638
0.176247
0.177392
0.175125
0.172494
0.179968
3.43402e-06
2.62871e-06
2.25249e-06
3.30039e-06
2.30079e-06
2.30079e-06
3.79226e-06
2.81345e-06
2.18268e-06
2.55222e-05
7.02084e-05
2.52009e-06
)
;

boundaryField
{
    seabed_topleft_surface
    {
        type            zeroGradient;
    }
    seabed_topright_surface
    {
        type            zeroGradient;
    }
    breakwater_top_surface
    {
        type            zeroGradient;
    }
    breakwater_left_surface
    {
        type            zeroGradient;
    }
    breakwater_right_surface
    {
        type            zeroGradient;
    }
    water_front_surface
    {
        type            zeroGradient;
    }
    water_back_surface
    {
        type            zeroGradient;
    }
    water_left_surface
    {
        type            zeroGradient;
    }
    water_right_surface
    {
        type            zeroGradient;
    }
    water_top_surface
    {
        type            inletOutlet;
        inletValue      uniform 0;
        value           nonuniform List<scalar> 
180
(
0
0
0
0
0
0
0
0
0
0
0
0
0
0
0
0
0
0
0
0
0
0
0
0
1.56904e-17
1.56836e-17
1.56846e-17
1.56828e-17
1.56809e-17
1.56903e-17
2.08418e-13
2.0829e-13
2.08334e-13
2.08318e-13
2.08287e-13
2.0838e-13
3.80987e-11
3.80764e-11
3.80833e-11
3.80806e-11
3.80747e-11
3.8091e-11
1.26229e-09
1.26149e-09
1.26196e-09
1.26195e-09
1.26176e-09
1.26203e-09
1.33195e-07
1.33455e-07
1.33357e-07
1.33334e-07
1.33368e-07
1.33315e-07
5.63888e-06
5.54314e-06
5.51339e-06
5.43801e-06
5.31552e-06
5.4381e-06
0.000265861
0.000265879
0.000265991
0.000266029
0.000266056
0.000266201
0
0
0
0
0
0
0
0
0
0
0
0
0
0
0
0
0
0
0
0
0
0
0
0
0
0
0
0
0
0
0
0
0
0
0
0
0
0
0
0
0
0
2.35261e-23
2.3513e-23
2.35371e-23
2.33635e-23
2.29025e-23
2.41028e-23
4.96668e-21
4.96294e-21
4.96501e-21
4.93993e-21
4.83066e-21
5.08546e-21
4.48488e-19
4.48252e-19
4.48055e-19
4.47213e-19
4.34846e-19
4.59154e-19
2.47221e-17
2.47567e-17
2.47124e-17
2.47243e-17
2.37763e-17
2.53553e-17
2.72748e-15
2.74656e-15
2.73363e-15
2.72278e-15
2.55343e-15
2.83927e-15
9.9199e-14
9.95006e-14
9.89798e-14
9.90007e-14
9.58116e-14
1.01972e-13
9.99497e-14
1.00233e-13
9.97121e-14
9.97587e-14
9.65836e-14
1.02719e-13
1.58982e-13
1.58385e-13
1.57433e-13
1.59217e-13
1.55058e-13
1.62428e-13
1.72956e-08
1.66239e-08
1.67665e-08
1.66726e-08
1.61531e-08
1.5507e-08
0
0
0
0
0
0
0
0
0
0
0
0
3.79226e-06
2.81345e-06
2.18268e-06
2.55222e-05
7.02084e-05
2.52009e-06
)
;
    }
}


// ************************************************************************* //
