/*--------------------------------*- C++ -*----------------------------------*\
| =========                 |                                                 |
| \\      /  F ield         | OpenFOAM: The Open Source CFD Toolbox           |
|  \\    /   O peration     | Version:  v1612+                                |
|   \\  /    A nd           | Web:      www.OpenFOAM.com                      |
|    \\/     M anipulation  |                                                 |
\*---------------------------------------------------------------------------*/
FoamFile
{
    version     2.0;
    format      ascii;
    class       volScalarField;
    location    "4.1";
    object      p_rgh;
}
// * * * * * * * * * * * * * * * * * * * * * * * * * * * * * * * * * * * * * //

dimensions      [1 -1 -2 0 0 0 0];

internalField   nonuniform List<scalar> 
1116
(
5050.23
5050.27
5050.27
5050.29
5050.31
5050.23
5122.46
5122.5
5122.5
5122.52
5122.54
5122.47
5467.02
5467.05
5467.06
5467.07
5467.08
5467.04
6039.91
6039.93
6039.94
6039.94
6039.95
6039.94
6802.67
6802.71
6802.72
6802.71
6802.73
6802.73
7908.82
7908.84
7908.85
7908.85
7908.86
7908.87
9785.51
9785.55
9785.54
9785.56
9785.56
9785.59
13066.2
13066.2
13066.1
13066.2
13066.2
13066.4
18124.9
18124.9
18124.9
18124.9
18124.8
18124.8
21608.8
21609
21609.1
21609.1
21609
21608.8
25118.8
25118.7
25118.8
25118.7
25118.6
25118.7
28070.5
28070.5
28070.5
28070.5
28070.5
28070.5
-9.35513
-9.35477
-9.35486
-9.35495
-9.35503
-9.35514
-12.6413
-12.6407
-12.6409
-12.641
-12.641
-12.6415
-27.178
-27.1775
-27.1778
-27.178
-27.1781
-27.1786
-59.4043
-59.4045
-59.4048
-59.4054
-59.4056
-59.4048
-10.1214
-10.122
-10.122
-10.1225
-10.1231
-10.1213
153.308
153.319
153.318
153.317
153.32
153.32
761.841
761.899
761.899
761.915
761.939
761.916
4704.08
4703.86
4704
4704.02
4703.95
4704.13
14454.3
14452.9
14453.2
14453
14452.8
14454
22104.5
22105.8
22106.2
22106.3
22106.3
22104.6
25620.1
25620.5
25620.6
25620.6
25620.6
25620.3
28732.6
28732.6
28732.7
28732.7
28732.7
28732.7
7.4405
7.44042
7.44043
7.44042
7.44045
7.44054
5.19366
5.19385
5.19387
5.1938
5.19377
5.19359
-6.26081
-6.26064
-6.2607
-6.26092
-6.26106
-6.26122
-42.3257
-42.326
-42.3264
-42.3266
-42.3266
-42.3268
-66.5723
-66.5721
-66.5722
-66.5717
-66.5712
-66.5713
-28.4911
-28.4912
-28.4911
-28.4904
-28.4898
-28.4895
25.1291
25.1128
25.1196
25.1195
25.1177
25.1206
115.918
115.958
115.949
115.943
115.948
115.94
2718.29
2717.85
2718.02
2717.91
2717.73
2718.22
14771.1
14772.1
14771.6
14771.4
14771.5
14771.5
28012.2
28011.4
28012.1
28012.1
28011.5
28012.3
31966.8
31966.8
31966.9
31966.9
31966.9
31966.9
-3.53753
-3.53746
-3.53744
-3.53736
-3.53723
-3.53719
-4.8865
-4.88638
-4.88633
-4.88628
-4.88618
-4.88621
-9.44056
-9.44046
-9.44052
-9.44057
-9.44059
-9.44086
-23.0373
-23.0373
-23.0375
-23.0375
-23.0373
-23.038
-21.6187
-21.6179
-21.618
-21.6173
-21.6164
-21.617
3.67344
3.67668
3.6753
3.67543
3.6764
3.67543
32.0786
32.0751
32.0769
32.0768
32.0774
32.0779
71.8428
71.8513
71.8467
71.8488
71.8517
71.8502
104.982
104.968
104.985
104.982
104.988
104.989
9288.37
9297.51
9294.3
9292.26
9295.19
9290.58
28245.6
28267.8
28258.3
28255.2
28262
28251.8
33897.8
33903.4
33901.1
33901.9
33903.2
33899.5
18.236
18.236
18.236
18.236
18.2361
18.2361
19.1663
19.1663
19.1664
19.1664
19.1664
19.1664
21.0967
21.0968
21.0968
21.0967
21.0967
21.0966
24.1783
24.1784
24.1784
24.1784
24.1785
24.1785
28.6787
28.6787
28.679
28.679
28.6796
28.6801
35.0085
35.0079
35.0088
35.0075
35.0089
35.0108
43.6986
43.6953
43.6988
43.6914
43.6959
43.7039
56.3329
56.3163
56.3394
56.2864
56.3006
56.3789
75.7499
75.6862
75.8171
75.5115
75.5209
76.0354
82.6774
82.6212
82.7248
82.5275
82.4417
82.8905
26.3689
26.3702
26.3609
26.3644
26.2765
26.3715
7.93994
7.94049
7.93224
7.92812
7.90675
7.93033
17.2622
17.2622
17.2622
17.2623
17.2623
17.2624
18.151
18.151
18.151
18.151
18.151
18.1511
19.9887
19.9888
19.9887
19.9886
19.9885
19.9885
22.9078
22.9078
22.9077
22.9076
22.9076
22.9077
27.1673
27.1671
27.1674
27.1671
27.1677
27.1683
33.2094
33.2079
33.2098
33.2069
33.2091
33.2121
41.6399
41.6327
41.6434
41.6238
41.6302
41.6533
57.1755
57.1358
57.204
57.0707
57.0755
57.2764
86.4062
86.3107
86.493
86.173
86.076
86.68
81.3107
81.2978
81.7368
80.6624
80.1337
82.7254
-8.7679
-8.71571
-8.77385
-8.74621
-8.80211
-8.72792
-16.3502
-16.3526
-16.3553
-16.3852
-16.4171
-16.2915
15.3438
15.3438
15.3438
15.3439
15.3439
15.344
16.1131
16.1132
16.1132
16.1132
16.1132
16.1132
17.682
17.682
17.6819
17.6818
17.6817
17.6816
20.1073
20.1072
20.1071
20.1069
20.1068
20.1067
23.4815
23.4811
23.4813
23.4808
23.4811
23.4812
27.7989
27.7974
27.7991
27.7974
27.7985
27.7977
32.5082
32.5025
32.509
32.502
32.5039
32.5039
37.9252
37.9124
37.9167
37.9313
37.9235
37.8837
35.0127
35.016
34.9296
35.2385
35.2241
34.7214
136.163
135.365
137.334
133.851
132.53
140.325
255.049
254.315
258.272
249.689
244.05
266.784
-35.5574
-35.5652
-35.5256
-35.672
-35.7882
-35.5367
12.6529
12.653
12.653
12.653
12.6531
12.6531
13.2434
13.2434
13.2434
13.2434
13.2434
13.2434
14.4069
14.4069
14.4068
14.4067
14.4067
14.4066
16.0831
16.083
16.0828
16.0826
16.0824
16.0823
18.0949
18.0945
18.0944
18.0939
18.0937
18.0933
19.9659
19.9648
19.9649
19.9641
19.964
19.9617
20.1826
20.1797
20.1777
20.1775
20.1771
20.1657
14.0684
14.0653
14.0345
14.0783
14.0845
13.9937
-4.40859
-4.38823
-4.49015
-4.28088
-4.22241
-4.53874
-37.1219
-37.1883
-37.3159
-37.1699
-37.2114
-37.4299
1122.81
1116.41
1122.21
1118.15
1110.38
1137.66
2497.33
2492.27
2515.06
2468.23
2424.97
2570.52
-1.40143
-1.40143
-1.40139
-1.40134
-1.40124
-1.4011
-2.14533
-2.14535
-2.14534
-2.14532
-2.14528
-2.14517
-2.72484
-2.72494
-2.72496
-2.72498
-2.725
-2.72488
-2.136
-2.13599
-2.13595
-2.13589
-2.13583
-2.13575
-2.1296
-2.12961
-2.12958
-2.12955
-2.12954
-2.1295
-2.53701
-2.53704
-2.53702
-2.53701
-2.537
-2.53689
-4.45496
-4.45496
-4.45506
-4.4551
-4.45515
-4.4553
-2.07287
-2.07295
-2.07299
-2.07299
-2.07298
-2.07301
-2.01388
-2.01393
-2.0139
-2.01387
-2.01384
-2.01375
-6.64953
-6.6496
-6.64972
-6.6498
-6.64989
-6.65004
-0.705357
-0.705387
-0.705458
-0.705477
-0.705485
-0.705529
-0.854185
-0.854338
-0.854353
-0.854341
-0.854331
-0.854262
1.09381
1.09391
1.09392
1.09408
1.0943
1.09453
3.4754
3.47555
3.47541
3.47533
3.47531
3.47519
0.578811
0.578809
0.578786
0.57877
0.578754
0.578698
17.1455
17.146
17.1456
17.1454
17.1456
17.1461
8.65397
8.65341
8.65347
8.6535
8.65352
8.65396
2.59442
2.5945
2.59463
2.59465
2.59463
2.59461
18.3038
18.3016
18.3026
18.3035
18.3044
18.3062
5.57717
5.57729
5.57731
5.57836
5.57902
5.57991
0.512534
0.512841
0.512904
0.513205
0.513409
0.513685
37.5729
37.5846
37.5788
37.5852
37.5877
37.5822
18.9215
18.9352
18.9293
18.9345
18.937
18.9341
4.2629
4.26825
4.26617
4.26682
4.26777
4.2674
-7.45361
-7.45199
-7.45512
-7.45516
-7.45845
-7.45526
-32.4293
-32.4369
-32.4371
-32.4367
-32.4421
-32.4381
-19.4859
-19.4983
-19.4967
-19.4932
-19.4956
-19.4966
-96.7673
-97.0238
-96.9448
-96.9117
-96.963
-96.8715
-61.1321
-61.1608
-61.1517
-61.1552
-61.1668
-61.1529
-25.2707
-25.2851
-25.2822
-25.2816
-25.283
-25.2888
2477.65
2496.2
2488.43
2486.55
2490.04
2484.75
-42.6855
-42.6932
-42.6904
-42.6884
-42.6941
-42.6994
-7.95774
-7.96462
-7.95311
-7.95015
-7.94313
-7.94848
8509.61
8512.83
8511.03
8515.08
8518.1
8508.35
-28.2379
-28.2044
-28.224
-28.2007
-28.1847
-28.2464
-12.8977
-12.909
-12.9054
-12.9087
-12.9194
-12.8891
18609.8
18608.5
18614.1
18619.7
18633.4
18601.7
0.362551
0.072904
0.126
0.630717
0.758372
-0.411637
-10.1416
-10.5241
-10.578
-9.95779
-10.1133
-11.0131
21605.3
21624.1
21625.5
21611
21645.6
21588.1
2.93165
2.92311
2.96518
2.9562
2.93292
2.83302
-4.14018
-4.11352
-4.11322
-4.20643
-4.25054
-4.12774
26063.2
26062.7
26065.5
26065.1
26067.7
26063.1
18.8629
18.7968
18.8379
18.9095
18.893
18.7425
-4.33451
-4.35566
-4.36521
-4.35801
-4.37452
-4.41041
27054.7
27055.7
27057.5
27058.5
27059.1
27058.8
1134.57
1135.82
1134.3
1140.8
1152.5
1125.04
-2.67361
-2.66919
-2.67147
-2.68103
-2.67459
-2.70352
27085.2
27086.2
27087.8
27087.9
27087.1
27090.1
2593.03
2596.89
2594.93
2600.39
2618.13
2576.65
2.29048
2.28262
2.29732
2.27863
2.27367
2.25989
26255.9
26262
26258.4
26267.5
26282.4
26243.2
14.8026
14.8389
14.8401
14.8476
14.9083
14.7721
-3.43637
-3.43732
-3.42331
-3.4356
-3.44499
-3.43986
9.40147
9.40145
9.40144
9.40145
9.40147
9.40149
5.7771
5.77707
5.77704
5.77702
5.77702
5.77703
1.96569
1.96567
1.96564
1.96562
1.96562
1.96562
9.79499
9.79495
9.79491
9.79488
9.79488
9.79488
5.99355
5.99348
5.99343
5.99341
5.99341
5.99343
2.03127
2.03124
2.03121
2.0312
2.03122
2.03125
10.5383
10.5382
10.5381
10.538
10.538
10.538
6.38954
6.38947
6.38941
6.38934
6.38931
6.38933
2.1468
2.14679
2.14677
2.14676
2.14678
2.14682
11.5082
11.508
11.5079
11.5077
11.5075
11.5074
6.86936
6.86929
6.86912
6.86895
6.86878
6.86872
2.27678
2.27676
2.27669
2.27661
2.27654
2.27652
12.4221
12.4218
12.4214
12.4209
12.4205
12.4202
7.23796
7.23777
7.23722
7.23678
7.23623
7.2361
2.3623
2.36216
2.36188
2.36161
2.36131
2.3612
12.7419
12.7411
12.7395
12.7385
12.7374
12.7358
7.18772
7.18719
7.18526
7.18382
7.18212
7.18199
2.24797
2.2477
2.24699
2.24632
2.24543
2.24531
11.4566
11.4538
11.447
11.4429
11.4387
11.4331
6.58389
6.58097
6.57518
6.56966
6.56616
6.55679
2.40614
2.40518
2.40323
2.40069
2.39865
2.39688
6.39957
6.39439
6.36141
6.34627
6.33036
6.33597
2.71997
2.71072
2.67937
2.6477
2.59621
2.62543
0.445468
0.440952
0.434488
0.429365
0.419173
0.409623
2.95245
2.96818
2.92069
2.86766
2.82938
2.94894
4.16365
4.15583
4.13497
4.10267
4.04396
3.96463
1.1601
1.15685
1.15586
1.1588
1.14339
1.11496
-18.1721
-18.1515
-18.2521
-18.6755
-19.0765
-18.1848
-14.4911
-14.5163
-14.567
-14.6498
-15.0553
-14.9704
-3.63006
-3.67023
-3.67518
-3.59016
-3.58059
-3.79252
43.3148
43.9307
43.7262
42.5281
42.0169
43.7684
68.1027
73.2658
73.5078
62.0604
53.8431
85.3358
-6.85052
-6.87044
-6.76728
-6.45113
-6.32734
-6.59864
8404.35
8400.4
8452.32
8347.1
8227.3
8578.05
-14.0235
-14.2263
-14.2887
-13.9512
-13.8601
-14.6895
-37.2519
-37.5676
-37.7061
-36.2434
-33.8678
-37.9912
)
;

boundaryField
{
    seabed_topleft_surface
    {
        type            fixedFluxPressure;
        gradient        uniform 0;
        value           nonuniform List<scalar> 
72
(
5050.23
5050.27
5050.27
5050.29
5050.31
5050.23
5122.46
5122.5
5122.5
5122.52
5122.54
5122.47
5467.02
5467.05
5467.06
5467.07
5467.08
5467.04
6039.91
6039.93
6039.94
6039.94
6039.95
6039.94
6802.67
6802.71
6802.72
6802.71
6802.73
6802.73
7908.82
7908.84
7908.85
7908.85
7908.86
7908.87
9785.51
9785.55
9785.54
9785.56
9785.56
9785.59
13066.2
13066.2
13066.1
13066.2
13066.2
13066.4
18124.9
18124.9
18124.9
18124.9
18124.8
18124.8
21608.8
21609
21609.1
21609.1
21609
21608.8
25118.8
25118.7
25118.8
25118.7
25118.6
25118.7
28070.5
28070.5
28070.5
28070.5
28070.5
28070.5
)
;
    }
    seabed_topright_surface
    {
        type            fixedFluxPressure;
        gradient        uniform 0;
        value           nonuniform List<scalar> 
72
(
18.236
18.236
18.236
18.236
18.2361
18.2361
19.1663
19.1663
19.1664
19.1664
19.1664
19.1664
21.0967
21.0968
21.0968
21.0967
21.0967
21.0966
24.1783
24.1784
24.1784
24.1784
24.1785
24.1785
28.6787
28.6787
28.679
28.679
28.6796
28.6801
35.0085
35.0079
35.0088
35.0075
35.0089
35.0108
43.6986
43.6953
43.6988
43.6914
43.6959
43.7039
56.3329
56.3163
56.3394
56.2864
56.3006
56.3789
75.7499
75.6862
75.8171
75.5115
75.5209
76.0354
82.6774
82.6212
82.7248
82.5275
82.4417
82.8905
26.3689
26.3702
26.3609
26.3644
26.2765
26.3715
7.93994
7.94049
7.93224
7.92812
7.90675
7.93033
)
;
    }
    breakwater_top_surface
    {
        type            fixedFluxPressure;
        gradient        uniform 0;
        value           nonuniform List<scalar> 
36
(
18609.8
18608.5
18614.1
18619.7
18633.4
18601.7
21605.3
21624.1
21625.5
21611
21645.6
21588.1
26063.2
26062.7
26065.5
26065.1
26067.7
26063.1
27054.7
27055.7
27057.5
27058.5
27059.1
27058.8
27085.2
27086.2
27087.8
27087.9
27087.1
27090.1
26255.9
26262
26258.4
26267.5
26282.4
26243.2
)
;
    }
    breakwater_left_surface
    {
        type            fixedFluxPressure;
        gradient        uniform 0;
        value           nonuniform List<scalar> 
24
(
28070.5
28070.5
28070.5
28070.5
28070.5
28070.5
28732.6
28732.6
28732.7
28732.7
28732.7
28732.7
31966.8
31966.8
31966.9
31966.9
31966.9
31966.9
33897.8
33903.4
33901.1
33901.9
33903.2
33899.5
)
;
    }
    breakwater_right_surface
    {
        type            fixedFluxPressure;
        gradient        uniform 0;
        value           nonuniform List<scalar> 
24
(
7.93994
7.94049
7.93224
7.92812
7.90675
7.93033
-16.3502
-16.3526
-16.3553
-16.3852
-16.4171
-16.2915
-35.5574
-35.5652
-35.5256
-35.672
-35.7882
-35.5367
2497.33
2492.27
2515.06
2468.23
2424.97
2570.52
)
;
    }
    water_front_surface
    {
        type            fixedFluxPressure;
        gradient        uniform 0;
        value           nonuniform List<scalar> 
186
(
5050.23
5122.46
5467.02
6039.91
6802.67
7908.82
9785.51
13066.2
18124.9
21608.8
25118.8
28070.5
-9.35513
-12.6413
-27.178
-59.4043
-10.1214
153.308
761.841
4704.08
14454.3
22104.5
25620.1
28732.6
7.4405
5.19366
-6.26081
-42.3257
-66.5723
-28.4911
25.1291
115.918
2718.29
14771.1
28012.2
31966.8
-3.53753
-4.8865
-9.44056
-23.0373
-21.6187
3.67344
32.0786
71.8428
104.982
9288.37
28245.6
33897.8
18.236
19.1663
21.0967
24.1783
28.6787
35.0085
43.6986
56.3329
75.7499
82.6774
26.3689
7.93994
17.2622
18.151
19.9887
22.9078
27.1673
33.2094
41.6399
57.1755
86.4062
81.3107
-8.7679
-16.3502
15.3438
16.1131
17.682
20.1073
23.4815
27.7989
32.5082
37.9252
35.0127
136.163
255.049
-35.5574
12.6529
13.2434
14.4069
16.0831
18.0949
19.9659
20.1826
14.0684
-4.40859
-37.1219
1122.81
2497.33
-1.40143
-2.14533
-2.72484
-2.136
-2.1296
-2.53701
-4.45496
-2.07287
-2.01388
-6.64953
-0.705357
-0.854185
1.09381
3.4754
0.578811
17.1455
8.65397
2.59442
18.3038
5.57717
0.512534
37.5729
18.9215
4.2629
-7.45361
-32.4293
-19.4859
-96.7673
-61.1321
-25.2707
2477.65
-42.6855
-7.95774
8509.61
-28.2379
-12.8977
18609.8
0.362551
-10.1416
21605.3
2.93165
-4.14018
26063.2
18.8629
-4.33451
27054.7
1134.57
-2.67361
27085.2
2593.03
2.29048
26255.9
14.8026
-3.43637
9.40147
5.7771
1.96569
9.79499
5.99355
2.03127
10.5383
6.38954
2.1468
11.5082
6.86936
2.27678
12.4221
7.23796
2.3623
12.7419
7.18772
2.24797
11.4566
6.58389
2.40614
6.39957
2.71997
0.445468
2.95245
4.16365
1.1601
-18.1721
-14.4911
-3.63006
43.3148
68.1027
-6.85052
8404.35
-14.0235
-37.2519
)
;
    }
    water_back_surface
    {
        type            fixedFluxPressure;
        gradient        uniform 0;
        value           nonuniform List<scalar> 
186
(
5050.23
5122.47
5467.04
6039.94
6802.73
7908.87
9785.59
13066.4
18124.8
21608.8
25118.7
28070.5
-9.35514
-12.6415
-27.1786
-59.4048
-10.1213
153.32
761.916
4704.13
14454
22104.6
25620.3
28732.7
7.44054
5.19359
-6.26122
-42.3268
-66.5713
-28.4895
25.1206
115.94
2718.22
14771.5
28012.3
31966.9
-3.53719
-4.88621
-9.44086
-23.038
-21.617
3.67543
32.0779
71.8502
104.989
9290.58
28251.8
33899.5
18.2361
19.1664
21.0966
24.1785
28.6801
35.0108
43.7039
56.3789
76.0354
82.8905
26.3715
7.93033
17.2624
18.1511
19.9885
22.9077
27.1683
33.2121
41.6533
57.2764
86.68
82.7254
-8.72792
-16.2915
15.344
16.1132
17.6816
20.1067
23.4812
27.7977
32.5039
37.8837
34.7214
140.325
266.784
-35.5367
12.6531
13.2434
14.4066
16.0823
18.0933
19.9617
20.1657
13.9937
-4.53874
-37.4299
1137.66
2570.52
-1.4011
-2.14517
-2.72488
-2.13575
-2.1295
-2.53689
-4.4553
-2.07301
-2.01375
-6.65004
-0.705529
-0.854262
1.09453
3.47519
0.578698
17.1461
8.65396
2.59461
18.3062
5.57991
0.513685
37.5822
18.9341
4.2674
-7.45526
-32.4381
-19.4966
-96.8715
-61.1529
-25.2888
2484.75
-42.6994
-7.94848
8508.35
-28.2464
-12.8891
18601.7
-0.411637
-11.0131
21588.1
2.83302
-4.12774
26063.1
18.7425
-4.41041
27058.8
1125.04
-2.70352
27090.1
2576.65
2.25989
26243.2
14.7721
-3.43986
9.40149
5.77703
1.96562
9.79488
5.99343
2.03125
10.538
6.38933
2.14682
11.5074
6.86872
2.27652
12.4202
7.2361
2.3612
12.7358
7.18199
2.24531
11.4331
6.55679
2.39688
6.33597
2.62543
0.409623
2.94894
3.96463
1.11496
-18.1848
-14.9704
-3.79252
43.7684
85.3358
-6.59864
8578.05
-14.6895
-37.9912
)
;
    }
    water_left_surface
    {
        type            fixedFluxPressure;
        gradient        uniform 0;
        value           nonuniform List<scalar> 
42
(
5050.23
5050.27
5050.27
5050.29
5050.31
5050.23
-9.35513
-9.35477
-9.35486
-9.35495
-9.35503
-9.35514
7.4405
7.44042
7.44043
7.44042
7.44045
7.44054
-3.53753
-3.53746
-3.53744
-3.53736
-3.53723
-3.53719
-1.40143
-1.40143
-1.40139
-1.40134
-1.40124
-1.4011
-2.14533
-2.14535
-2.14534
-2.14532
-2.14528
-2.14517
-2.72484
-2.72494
-2.72496
-2.72498
-2.725
-2.72488
)
;
    }
    water_right_surface
    {
        type            fixedFluxPressure;
        gradient        uniform 0;
        value           nonuniform List<scalar> 
42
(
18.236
18.236
18.236
18.236
18.2361
18.2361
17.2622
17.2622
17.2622
17.2623
17.2623
17.2624
15.3438
15.3438
15.3438
15.3439
15.3439
15.344
12.6529
12.653
12.653
12.653
12.6531
12.6531
9.40147
9.40145
9.40144
9.40145
9.40147
9.40149
5.7771
5.77707
5.77704
5.77702
5.77702
5.77703
1.96569
1.96567
1.96564
1.96562
1.96562
1.96562
)
;
    }
    water_top_surface
    {
        type            totalPressure;
        rho             rho;
        psi             none;
        gamma           1;
        p0              uniform 0;
        value           nonuniform List<scalar> 
180
(
-3.09958
-3.10002
-3.10001
-3.10006
-3.10018
-3.09988
-2.83209
-2.83248
-2.83248
-2.83254
-2.83264
-2.83228
-1.98932
-1.9895
-1.98943
-1.98941
-1.98944
-1.9891
-0.792218
-0.792262
-0.792168
-0.792147
-0.792195
-0.792072
0
0
0
0
0
0
0
0
0
0
0
0
0
0
0
0
0
0
0
0
0
0
0
0
0
0
0
0
0
0
0
0
0
0
0
0
0
0
0
0
0
0
-18.1207
-18.1713
-18.1483
-18.1544
-18.1852
-18.1099
-13.1101
-13.7738
-13.8289
-12.9655
-12.9907
-14.1216
-10.6549
-10.5556
-10.5097
-10.7843
-10.8773
-10.3374
-1.02262
-1.03088
-1.02411
-1.04054
-1.05636
-1.01434
-9.10602
-9.13351
-9.10529
-9.18413
-9.31525
-8.99156
-25.457
-25.5036
-25.4663
-25.5351
-25.6629
-25.3203
-12.0572
-12.1295
-12.0753
-12.1263
-12.2177
-11.9774
0
0
0
0
0
0
0
0
0
0
0
0
0
0
0
0
0
0
0
0
0
0
0
0
0
0
0
0
0
0
0
0
0
0
0
0
0
0
0
0
0
0
0
0
0
0
0
0
0
0
0
0
0
0
-0.260195
-0.25845
-0.260795
-0.263745
-0.269011
-0.256359
-2.40779
-2.42112
-2.43609
-2.43029
-2.49571
-2.37978
0
0
0
0
0
0
)
;
    }
}


// ************************************************************************* //
