/*--------------------------------*- C++ -*----------------------------------*\
| =========                 |                                                 |
| \\      /  F ield         | OpenFOAM: The Open Source CFD Toolbox           |
|  \\    /   O peration     | Version:  v1612+                                |
|   \\  /    A nd           | Web:      www.OpenFOAM.com                      |
|    \\/     M anipulation  |                                                 |
\*---------------------------------------------------------------------------*/
FoamFile
{
    version     2.0;
    format      ascii;
    class       volScalarField;
    location    "6.55";
    object      alpha.water;
}
// * * * * * * * * * * * * * * * * * * * * * * * * * * * * * * * * * * * * * //

dimensions      [0 0 0 0 0 0 0];

internalField   nonuniform List<scalar> 
1116
(
0.6425
0.6425
0.642501
0.642501
0.642502
0.642502
0.923951
0.923998
0.923967
0.923959
0.923973
0.92396
0.974425
0.974425
0.974425
0.974425
0.974425
0.974425
0.974425
0.974425
0.974425
0.974425
0.974425
0.974425
0.969578
0.969598
0.969582
0.969612
0.969631
0.969555
0.935263
0.935262
0.935244
0.935316
0.93535
0.935203
0.908874
0.908873
0.908858
0.908935
0.908978
0.908797
0.8931
0.89312
0.893121
0.893143
0.893184
0.893042
0.886882
0.886921
0.886963
0.886888
0.886894
0.886904
0.885011
0.884976
0.885046
0.884991
0.885068
0.884921
0.882404
0.882057
0.882312
0.882254
0.882646
0.881889
0.880274
0.880101
0.880246
0.880139
0.880452
0.880146
0.755938
0.755852
0.755895
0.755915
0.75589
0.755914
0.923835
0.923882
0.923851
0.923843
0.923857
0.923843
0.818915
0.818782
0.81883
0.818885
0.818872
0.81886
0.456591
0.456292
0.456394
0.45651
0.456447
0.456488
0.291284
0.291388
0.291361
0.291301
0.291247
0.291408
0.21567
0.215813
0.21577
0.215716
0.215678
0.215787
0.167152
0.167225
0.167245
0.167137
0.167122
0.167254
0.147314
0.146726
0.146806
0.147247
0.147743
0.146461
0.182343
0.182113
0.182225
0.182324
0.181872
0.182649
0.237204
0.238414
0.238012
0.237462
0.235825
0.239557
0.256333
0.253048
0.254411
0.255352
0.258295
0.251466
0.210684
0.206465
0.207472
0.210228
0.213509
0.205357
0.757019
0.756978
0.756988
0.756997
0.756985
0.756997
0.326491
0.326452
0.326492
0.32647
0.326457
0.326523
0.0642223
0.0640773
0.0641386
0.0641722
0.0641251
0.0641955
0.000205294
0.000186701
0.000193516
0.000199083
0.000196682
0.000197139
1.08557e-07
9.56321e-08
9.47475e-08
1.07978e-07
1.20557e-07
8.2116e-08
4.00798e-06
3.33162e-06
3.37813e-06
3.94239e-06
4.54671e-06
2.9866e-06
8.34873e-06
7.69477e-06
7.7317e-06
8.29368e-06
8.50918e-06
7.17282e-06
2.87682e-05
1.41252e-05
1.45305e-05
2.81646e-05
4.59287e-05
1.07185e-05
0.00591721
0.0059006
0.00579467
0.00601156
0.00630471
0.00568117
0.0270422
0.0271885
0.0270895
0.0270782
0.0269411
0.0272598
0.0339215
0.0341403
0.0341006
0.033722
0.0331322
0.0345244
0.0273408
0.0273183
0.0273178
0.0273458
0.0273795
0.0273475
0.732721
0.733011
0.732932
0.732832
0.732871
0.732881
1.36778e-08
1.35473e-08
1.33177e-08
1.20669e-08
1.12965e-08
1.12965e-08
1.38031e-08
1.33177e-08
1.23028e-08
1.16228e-08
1.13869e-08
1.12965e-08
1.38758e-08
1.38489e-08
1.33177e-08
1.23028e-08
1.16228e-08
1.13869e-08
1.6625e-08
1.6695e-08
1.62158e-08
1.62705e-08
1.57065e-08
1.3303e-08
1.05574e-07
9.40533e-08
9.31511e-08
1.05756e-07
1.1742e-07
8.06057e-08
3.96229e-06
3.29576e-06
3.34192e-06
3.89902e-06
4.49518e-06
2.9554e-06
0.0029411
0.0025853
0.0025575
0.00292603
0.00332639
0.00228838
0.0127176
0.0127175
0.0127175
0.0127118
0.0126994
0.0126929
0.0109592
0.0108774
0.0110261
0.0108443
0.010748
0.0110533
0.0115212
0.0114787
0.0116071
0.0113485
0.0115126
0.0114679
0.0276848
0.0276483
0.0276553
0.0277123
0.0277448
0.027679
0.0918374
0.0918459
0.0918549
0.0918556
0.0918556
0.0918556
0.0918303
0.0918374
0.0904388
0.0918549
0.0918556
0.0918556
0.063198
0.0917563
0.0655496
0.0918159
0.0918443
0.0822565
0.0794323
0.0493475
0.0700918
0.0644099
0.0869854
0.09209
0.073326
0.0137045
0.048655
0.0259802
0.0628489
0.0919946
0.0537175
0.054765
0.0645936
0.0577129
0.0657582
0.0844785
0.0692961
0.0843602
0.0846995
0.0844404
0.08414
0.0844036
0.0797573
0.0840153
0.0845312
0.0839953
0.0835775
0.0834188
0.0819229
0.0835551
0.0843744
0.0810446
0.0825921
0.0546456
0.0832643
0.0838047
0.0842743
0.0839374
0.0837477
0.0439939
0.0806621
0.0832165
0.0840472
0.0848665
0.085242
0.0632553
0.0418678
0.0419363
0.0531403
0.0542828
0.0853407
0.0432311
0.0914405
0.0801905
0.0918366
0.0597916
0.0688343
0.0918556
0.0416171
0.013529
0.0366376
0.0230286
0.0223431
0.0635346
0.00517584
0.0055032
0.0031104
0.00638003
0.00744021
0.00597498
0.00184239
0.00227699
0.00179607
0.00214383
0.00249675
0.00271205
7.84994e-11
0.00156555
0.0010113
0.0011565
0.000564669
1.28109e-10
4.51233e-09
0.00153078
0.00126967
0.000957031
2.04867e-11
6.50209e-12
1.71392e-08
2.95954e-08
3.4845e-09
2.95954e-08
2.17152e-08
2.43783e-09
2.69462e-09
2.71251e-08
2.95439e-08
2.25646e-08
1.02996e-09
4.22698e-08
9.2968e-08
1.13286e-06
1.2364e-06
5.98644e-07
1.7085e-10
1.23222e-06
7.00578e-05
0.000119769
4.60159e-05
0.00301016
0.0038047
0.00314134
0.0229673
0.0263347
0.0222181
0.0466526
0.0484227
0.0378888
0.0823335
0.0834512
0.0848577
0.085372
0.085372
0.0853647
0.0806643
0.0905583
0.0910433
0.0519786
0.0471098
0.0910318
0.00269322
3.55003e-05
0.00283416
3.89219e-05
1.439e-05
0.0160091
-1.34706e-08
1.98501e-08
-2.20309e-08
1.41229e-08
2.23852e-08
1.37136e-08
4.20442e-11
2.10614e-10
2.53683e-11
6.37242e-10
1.39895e-09
1.27201e-10
5.23185e-11
1.38003e-11
1.22451e-11
1.82906e-11
2.74523e-12
1.03188e-13
6.273e-11
1.48976e-11
1.52327e-11
1.23175e-11
6.50273e-12
1.53524e-12
2.91182e-08
1.23876e-07
1.69078e-09
4.89932e-07
4.19692e-08
5.38381e-12
1.6863e-10
1.76632e-09
2.67052e-09
7.83349e-10
7.56985e-10
5.12679e-10
1.89622e-09
2.52947e-08
2.82897e-08
-3.32219e-10
6.31776e-11
8.57125e-10
6.82838e-08
2.16541e-07
4.7698e-07
5.45142e-07
1.06837e-09
1.76749e-07
0.000908568
2.13784e-06
2.82449e-06
1.69249e-06
2.0388e-05
2.53585e-06
0.0485218
0.0407658
0.0315799
0.044223
0.0197719
0.0552333
0.082704
0.0904289
0.0905892
0.0864769
0.0578961
0.090869
1.94886e-06
1.99954e-08
5.51854e-05
3.42529e-08
5.90189e-08
0.00202662
1.39883e-08
-9.69494e-11
4.62564e-09
1.43568e-08
3.85954e-08
4.65948e-08
-1.89798e-13
1.33182e-11
1.82889e-11
1.01813e-07
2.99401e-07
7.7858e-07
-8.08056e-14
4.82135e-13
9.36311e-12
1.78262e-13
5.34068e-14
5.34081e-14
4.20239e-09
2.34742e-09
1.33437e-10
7.09702e-09
3.88967e-10
1.02733e-12
2.13309e-08
3.157e-08
6.06363e-12
3.36748e-08
4.60465e-09
3.7837e-13
-1.32204e-12
4.15584e-11
7.58497e-11
7.07249e-12
5.57611e-09
8.67425e-12
3.46698e-13
-5.22015e-10
4.8287e-09
5.18309e-11
8.92295e-12
5.75587e-11
2.22371e-09
2.57646e-08
5.5671e-08
1.99334e-07
5.58442e-11
1.06001e-09
6.59804e-08
1.6359e-07
9.57346e-07
0.000684192
0.00729286
8.78752e-05
0.00453948
8.62364e-06
1.45923e-05
0.000344105
0.0283814
0.00333769
0.622127
0.622189
0.62213
0.622113
0.622141
0.622153
0.159064
0.158506
0.158642
0.158751
0.158646
0.158823
0.0046594
0.00460844
0.00463075
0.00463839
0.00462652
0.00464385
0.00858534
0.00862736
0.00861802
0.00860535
0.00861456
0.00860756
0.0115618
0.0115593
0.0115661
0.0115618
0.0115701
0.011562
0.00464646
0.00458917
0.00461152
0.0046192
0.0046073
0.00462467
1.33969e-08
1.38489e-08
1.33177e-08
1.23028e-08
1.16228e-08
1.13869e-08
6.42526e-09
8.48111e-09
7.12512e-09
7.58098e-09
8.72545e-09
5.99712e-09
3.50145e-21
2.02068e-21
2.93677e-21
3.24661e-21
3.86045e-21
2.701e-21
2.31687e-08
1.97681e-08
1.90596e-08
2.28566e-08
2.94745e-08
1.01652e-08
1.50194e-08
1.63366e-08
1.45177e-08
1.69579e-08
1.95172e-08
9.66217e-09
-1.18061e-10
-4.3058e-10
-3.66417e-10
-8.23338e-11
-3.41039e-11
-4.15041e-10
7.43197e-08
6.90597e-08
6.57917e-08
7.55331e-08
8.43227e-08
4.69293e-08
5.83181e-07
5.52424e-07
5.08304e-07
6.10101e-07
7.08269e-07
3.11391e-07
1.21285e-06
1.61476e-06
1.05931e-06
1.80088e-06
3.68333e-06
2.83299e-07
1.22422e-06
1.02401e-06
1.0292e-06
1.18628e-06
1.28988e-06
8.52582e-07
0.000427578
0.000326978
0.000329322
0.000394901
0.000448211
0.000206402
0.000628132
0.000635027
0.000608285
0.000650263
0.000696286
0.000543919
0.000508797
0.000429091
0.000428708
0.000486617
0.000526691
0.000368235
0.00114084
0.00114121
0.00114699
0.00115536
0.00115997
0.00116172
0.00114121
0.00114151
0.00114151
0.00114823
0.0011566
0.00115997
0.00237949
0.00227463
0.00226759
0.00237582
0.00246727
0.00228956
0.000996669
0.00104131
0.00104662
0.000982823
0.000917659
0.00110497
0.000227302
0.000220672
0.000230235
0.000209815
0.000187183
0.000212204
0.00048172
0.000488483
0.000508177
0.000459678
0.000372962
0.000584458
2.42318e-08
2.39141e-08
2.39604e-08
2.39438e-08
2.36164e-08
2.36079e-08
3.61338e-19
4.95376e-15
3.61048e-19
3.71225e-19
3.7499e-19
3.83554e-19
1.89107e-06
1.66669e-06
1.66053e-06
1.8615e-06
1.84055e-06
1.72818e-06
3.31805e-06
2.89195e-06
2.87758e-06
3.26613e-06
3.21113e-06
3.01781e-06
5.1549e-06
5.17053e-06
5.16999e-06
5.15307e-06
5.11628e-06
5.09941e-06
3.10341e-14
2.84496e-14
2.97833e-14
-9.12018e-14
2.99026e-14
3.0172e-14
1.36463e-22
-2.4179e-19
-5.61088e-21
-2.57958e-19
-3.58783e-19
2.7125e-22
3.56219e-22
6.90248e-22
3.44441e-22
3.64317e-22
3.70194e-22
3.55314e-22
0.0174568
0.0172116
0.0172442
0.0172407
0.0173693
0.0170921
-7.44028e-21
-9.32073e-21
-9.39111e-21
-7.54411e-21
-7.84867e-21
-8.02067e-21
3.2344e-10
3.20093e-10
3.20953e-10
3.25425e-10
3.31084e-10
3.13488e-10
0.0687219
0.0693725
0.0698822
0.0699108
0.0694711
0.0689921
4.29746e-27
2.45569e-27
8.48183e-28
1.83369e-27
4.74579e-28
1.97909e-27
6.28358e-12
3.5398e-12
1.08898e-12
2.28836e-12
8.6479e-16
2.77205e-12
0.0761433
0.0760605
0.0759652
0.0763446
0.0764585
0.0762607
-5.43092e-16
-4.5805e-16
-8.46362e-18
-8.50484e-19
-1.73637e-16
-1.07878e-16
-4.02276e-26
-2.96251e-26
-5.61472e-26
-3.28153e-26
-4.42697e-26
-2.60866e-26
0.0765548
0.0765673
0.0766631
0.0767856
0.0768167
0.0767378
-2.55049e-15
-2.06967e-15
-3.4963e-15
-9.89513e-17
-2.21682e-14
-1.13169e-15
-5.03184e-26
-4.75803e-26
-5.12003e-26
-4.54328e-26
-8.32105e-26
-2.99983e-26
0.0765605
0.0765653
0.0765873
0.0766341
0.0766523
0.0766483
-1.79451e-15
-1.45852e-15
-2.59077e-15
-9.37342e-17
-1.6035e-14
-7.8264e-16
-5.12405e-26
-5.97498e-26
-6.53285e-26
-6.20041e-26
-6.8177e-26
-4.70838e-26
0.07629
0.0762889
0.0762924
0.0763005
0.0763121
0.0763434
-1.0301e-15
-8.38347e-16
-1.5376e-15
-1.62727e-16
-9.28688e-15
-4.34458e-16
-3.10636e-26
-3.67566e-26
-4.01339e-26
-3.984e-26
-4.39109e-26
-3.16024e-26
0.0715111
0.0714002
0.0713723
0.0712005
0.0711983
0.0713363
-4.56426e-16
-3.71339e-16
-7.02929e-16
-1.36445e-16
-4.15328e-15
-1.87559e-16
-2.04178e-26
-2.45286e-26
-2.66689e-26
-2.79344e-26
-3.11665e-26
-2.31831e-26
0.082628
0.050016
0.0769092
0.0769686
0.044674
0.0906882
0.0682006
0.00919972
0.0136969
0.0143847
0.00942494
0.0780107
0.00645128
0.00124576
4.85953e-06
1.05781e-05
6.468e-07
0.0102257
0.000308092
0.000142657
0.000586239
0.000515182
7.40286e-05
0.00398074
0.000546617
1.03342e-05
0.000124824
0.000201339
7.13281e-06
0.00331212
0.000199207
1.82037e-06
1.296e-06
1.04208e-05
5.29376e-11
0.0012507
6.28444e-18
2.84676e-07
8.17926e-12
8.35989e-09
1.65818e-08
5.51357e-07
6.27081e-18
3.36958e-06
6.19923e-06
4.67377e-06
1.24785e-06
1.11014e-08
2.96132e-32
2.51343e-06
8.85297e-07
1.28531e-08
1.13072e-18
-1.01918e-13
-2.53385e-14
6.3507e-09
4.95133e-12
3.13157e-08
1.49246e-07
1.18994e-06
1.23772e-25
-3.56259e-15
-4.52886e-13
7.91194e-18
5.17727e-18
1.22104e-07
1.50549e-23
6.39086e-08
3.80781e-08
1.38543e-08
1.05889e-08
-1.22315e-17
1.30494e-14
1.03683e-16
9.82637e-12
-1.3839e-18
3.98074e-18
3.22646e-18
1.03865e-15
8.76963e-18
7.40381e-18
5.46293e-18
2.52679e-18
1.33445e-18
2.60086e-16
5.56196e-24
7.92174e-24
8.51483e-23
3.10605e-22
9.93098e-20
3.48166e-11
1.22597e-10
1.17196e-10
4.09171e-11
2.94968e-11
6.85947e-11
5.25645e-14
1.20221e-15
1.3988e-17
7.67201e-18
7.31561e-18
7.70543e-18
3.09058e-14
2.85183e-14
2.38867e-14
3.2145e-14
2.93526e-14
1.08315e-14
1.73591e-09
2.21754e-12
2.22177e-14
5.11826e-11
3.2694e-11
2.12427e-15
3.28273e-15
1.68649e-14
2.65471e-15
1.77201e-16
1.92239e-15
8.32646e-17
2.21539e-13
2.24521e-13
1.86816e-13
2.51793e-13
2.38636e-13
8.76205e-14
3.22215e-15
4.54993e-13
3.68673e-13
2.2654e-13
2.21249e-12
-2.91584e-12
5.243e-17
7.60645e-15
1.75024e-14
4.16306e-13
9.31361e-15
1.45871e-16
1.3401e-14
2.1911e-14
1.52964e-14
2.20146e-14
2.09454e-14
1.53187e-14
-3.23619e-13
-9.24366e-14
-1.78218e-10
-1.6575e-10
-9.6741e-13
-5.83196e-13
-2.67002e-16
1.54115e-17
2.06696e-10
1.98783e-12
2.25481e-16
-3.66507e-17
4.52893e-293
1.19881e-289
6.35482e-296
2.16051e-278
1.57162e-280
1.3409e-283
2.09021e-13
-5.46128e-08
-4.32435e-08
-4.42797e-09
-2.27807e-10
-4.52414e-10
8.10998e-14
2.06703e-12
4.10157e-12
1.28933e-12
-1.69001e-13
-1.06381e-13
2.37983e-10
2.37854e-10
2.18352e-10
2.15342e-10
1.9551e-10
1.94533e-10
-7.02251e-08
-4.6011e-08
-3.59459e-08
-1.40239e-09
-1.3495e-08
-5.2298e-09
1.3866e-12
2.05783e-12
2.30752e-12
2.2941e-12
8.47664e-13
7.19947e-13
7.24729e-11
8.33925e-11
1.03503e-10
6.09601e-11
1.69743e-10
1.51466e-10
0.0119964
0.0154018
0.0182352
0.0150773
0.0153429
0.0125324
8.09474e-14
4.80272e-14
1.77528e-14
3.68805e-14
1.24307e-14
3.65784e-14
1.43796e-10
1.15736e-10
1.07387e-10
3.02018e-10
4.40879e-10
1.59194e-10
)
;

boundaryField
{
    seabed_topleft_surface
    {
        type            zeroGradient;
    }
    seabed_topright_surface
    {
        type            zeroGradient;
    }
    breakwater_top_surface
    {
        type            zeroGradient;
    }
    breakwater_left_surface
    {
        type            zeroGradient;
    }
    breakwater_right_surface
    {
        type            zeroGradient;
    }
    water_front_surface
    {
        type            zeroGradient;
    }
    water_back_surface
    {
        type            zeroGradient;
    }
    water_left_surface
    {
        type            zeroGradient;
    }
    water_right_surface
    {
        type            zeroGradient;
    }
    water_top_surface
    {
        type            inletOutlet;
        inletValue      uniform 0;
        value           nonuniform List<scalar> 
180
(
0.0046594
0.00460844
0.00463075
0.00463839
0.00462652
0.00464385
0.00464646
0.00458917
0.00461152
0.0046192
0.0046073
0.00462467
0
0
0
0
0
0
0
0
0
0
0
0
1.21285e-06
1.61476e-06
1.05931e-06
1.80088e-06
3.68333e-06
2.83299e-07
0.000628132
0.000635027
0.000608285
0.000650263
0.000696286
0.000543919
0.00114121
0.00114151
0.00114151
0.00114823
0.0011566
0.00115997
0
0
0
0
0
0
0
0
0
0
0
0
0
0
0
0
0
0
0
0
0
0
0
0
0
0
0
0
0
0
0
0
0
0
0
0
0
0
0
0
0
0
0
0
0
0
0
0
0
0
0
0
0
0
0
0
0
0
0
0
0
0
0
0
0
0
0.00645128
0.00124576
4.85953e-06
1.05781e-05
6.468e-07
0.0102257
0.000199207
1.82037e-06
1.296e-06
1.04208e-05
5.29376e-11
0.0012507
0
0
0
0
0
0
0
0
0
0
0
0
0
0
0
0
0
0
0
0
0
0
0
0
0
0
0
0
0
0
0
0
0
0
0
0
0
0
0
0
0
0
0
0
0
0
0
0
0
0
0
0
0
0
0
0
0
0
0
0
)
;
    }
}


// ************************************************************************* //
