/*--------------------------------*- C++ -*----------------------------------*\
| =========                 |                                                 |
| \\      /  F ield         | OpenFOAM: The Open Source CFD Toolbox           |
|  \\    /   O peration     | Version:  v1612+                                |
|   \\  /    A nd           | Web:      www.OpenFOAM.com                      |
|    \\/     M anipulation  |                                                 |
\*---------------------------------------------------------------------------*/
FoamFile
{
    version     2.0;
    format      ascii;
    class       volScalarField;
    location    "6.55";
    object      p_rgh;
}
// * * * * * * * * * * * * * * * * * * * * * * * * * * * * * * * * * * * * * //

dimensions      [1 -1 -2 0 0 0 0];

internalField   nonuniform List<scalar> 
1116
(
20254.3
20254.3
20254.3
20254.3
20254.3
20254.3
20329.8
20330
20329.9
20329.8
20329.9
20329.9
18086.1
18085.8
18086
18086.1
18086.1
18086.1
15192.8
15192.5
15192.6
15192.8
15192.7
15192.7
13112
13112.2
13112
13112.3
13112.4
13111.9
11644.8
11645.5
11645
11645.7
11645.4
11645.1
10827.4
10829
10828.4
10828.4
10827.4
10829.3
10516.9
10516.1
10516.6
10517.2
10519.5
10515.3
10725.5
10724
10724.6
10725.6
10727.8
10722.7
11234.8
11239.3
11237.5
11235.8
11231.5
11242.6
11718.1
11710.2
11716.5
11712.3
11723
11706.9
11401.8
11388.6
11395.3
11398.6
11414.6
11384.8
21776.2
21775.1
21775.6
21776
21775.7
21775.9
20944.1
20944.7
20944.4
20944.2
20944.5
20944.3
16459.9
16455.8
16457.4
16458.9
16458.4
16458.2
8980.04
8975.94
8977.33
8979.05
8977.96
8978.98
5711.43
5712.1
5712.17
5711.44
5710.55
5713.22
4184.98
4186.99
4186.51
4185.61
4185.1
4186.76
3302.2
3304.93
3305.19
3302.12
3301.21
3305.71
2966.39
2957.01
2958.15
2965.12
2973.32
2953.17
3877.44
3875.69
3875.47
3878.53
3871.55
3882.95
5241.09
5262.03
5253.14
5248.22
5221.74
5278.12
5665.62
5610.14
5631.89
5649.16
5698.78
5583.88
4670.71
4599.6
4617.73
4662.3
4718.56
4582.93
22337.4
22336.3
22336.6
22336.8
22336.5
22336.8
9588.3
9586.98
9588.2
9587.61
9587.29
9589.05
1822.01
1817.06
1819.07
1820.39
1819.25
1820.57
8.20367
8.10533
8.18477
8.23822
8.20638
8.28477
-29.4228
-29.72
-29.5692
-29.5423
-29.5049
-29.5168
-9.28466
-9.64266
-9.44285
-9.49844
-9.3454
-9.61948
125.029
124.681
124.729
124.992
125.658
124.024
254.314
253.708
253.566
253.999
254.93
253.106
433.004
434.296
430.709
435.405
441.487
428.478
1026.94
1030.76
1027.28
1028.9
1024.62
1032.71
1210.95
1218.54
1216.53
1206.33
1188.75
1228.57
1058.93
1059.11
1059.43
1058.39
1059.21
1061.03
25105.4
25115
25112.4
25109.1
25110.6
25110.4
-2.07853
-2.21929
-2.16145
-2.12598
-2.10136
-2.15787
3.76299
3.76171
3.73245
3.7692
3.76302
3.76046
-12.393
-12.3577
-12.3288
-12.3445
-12.3509
-12.2681
-33.1496
-33.424
-33.1739
-33.324
-33.2658
-33.1299
-50.058
-50.4181
-50.2032
-50.3024
-50.1416
-50.3403
24.6378
24.8605
24.8166
24.6429
24.768
24.6057
212.844
201.484
200.12
212.237
225.155
191.448
550.038
550.468
550.28
549.014
548.142
549.535
460.595
457.475
462.789
456.128
452.696
463.763
468.709
468.638
472.743
462.871
467.68
468.667
891.195
889.903
890.596
891.799
892.979
890.903
3354.96
3591.31
3302.9
3387.99
3368.16
3238.16
2801.26
2946.56
2675.78
2759.72
2615.26
2559.8
1725.57
1940.84
1827.13
1976.58
1925.05
1864.29
1098.34
894.213
1077.3
1030.31
1206.34
1289.93
773.594
402.144
662.644
489.355
722.401
965.418
567.141
570.503
697.437
637.807
665.308
822.156
671.148
810.053
836.722
833.821
811.767
825.474
779.919
826.787
839.705
827.331
815.427
811.7
805.406
821.222
828.946
818.098
827.311
565.09
925.698
989.323
997.45
1051.2
1048.07
721.379
1351.65
1468.7
1598.12
1486.92
1456.02
1299.9
1345.44
1363.26
1457.31
1434.12
1594.2
1373.45
2953.92
2854.91
2907.77
2414.94
2459.54
2756.78
958.151
503.492
846.647
620.085
596.752
1311.7
137.037
136.514
99.229
154.391
185.711
166.615
25.9204
44.307
29.2633
43.555
41.6352
32.316
-21.1019
6.83651
0.878467
-2.03676
-20.6919
-29.0606
-35.5536
-22.3719
-19.7738
-29.742
-37.546
-31.4996
-21.4359
-19.9466
-19.1303
-20.0727
-15.5819
-11.8043
7.25242
9.54684
5.14289
3.42943
4.48488
7.20871
9.62615
9.12485
7.34111
7.93418
11.4251
15.4553
43.9456
45.2375
48.3882
93.0834
101.728
84.3396
482.602
561.547
501.831
934.333
943.546
753.299
1798.47
1767.62
1695.01
1776.66
1755.13
1849.79
2404.15
2593.45
2604.02
1615.13
1391.88
2615.99
85.1693
20.1027
90.7506
22.2544
18.0742
424.565
7.89702
9.47343
8.88373
10.2775
12.8218
10.7539
4.08264
7.18435
5.11042
7.21514
6.42723
5.41137
10.277
10.9585
10.3851
9.42179
7.64964
6.28661
-2.91771
-3.27845
-3.2045
-4.00421
-4.96798
-6.29948
1.52257
2.86132
1.00187
-1.15667
-1.17731
0.120592
2.47272
4.81746
2.18404
-1.18044
-1.26287
1.86312
1.03126
0.165842
-1.1194
-3.39212
-0.403711
2.6488
-1.67617
-2.89266
-3.90815
0.0631889
3.52955
5.49037
41.5972
17.8932
20.1509
22.1967
17.4553
21.6453
1213.1
983.101
741.294
1085.33
491.003
1368.85
2859.3
3146.02
3137.09
3021.88
2020.9
3171.7
-10.9088
-10.5229
-7.76376
-11.8997
-9.92193
55.8337
14.5494
12.699
15.5846
13.7047
12.8468
12.9321
-4.54202
-4.01382
-4.82732
-4.90323
-5.56751
-7.12403
-1.27365
-1.09933
-0.885008
-0.994639
-1.25188
-1.65302
-11.7742
-12.8753
-12.4366
-11.0483
-9.8831
-10.0375
-3.41917
-3.44578
-2.43433
-3.71749
-3.40259
-2.50303
0.355847
0.437294
-0.561971
-0.989016
-0.0535351
0.259517
-0.0589893
0.0329015
-0.726404
0.0325707
2.79248
2.92402
-2.30727
-2.87715
-3.52876
-0.937378
2.94164
0.376354
-3.90608
-4.16694
-3.03966
22.2343
250.784
-0.444668
90.459
-69.9809
-75.4986
-86.4111
865.768
18.4667
28236.2
28240.1
28237.3
28236.2
28237.6
28238.1
8962.19
8935.39
8941.09
8946.45
8941.72
8949.85
65.0611
62.0331
63.3048
63.7932
63.0809
64.1031
290.385
292.204
291.781
291.224
291.571
291.408
550.064
550.456
550.569
550.328
550.752
550.223
165.812
162.246
163.594
164.138
163.351
164.418
-18.1556
-18.0168
-18.1083
-18.0888
-18.1108
-18.0872
-4.23409
-3.99654
-4.15007
-4.13251
-4.14908
-4.20404
-7.55759
-7.48295
-7.54076
-7.53524
-7.53858
-7.57718
-23.0881
-23.2331
-23.1504
-23.0806
-23.095
-23.0107
-12.6114
-12.3876
-12.5477
-12.4852
-12.4869
-12.617
-10.8597
-10.3566
-10.6392
-10.5961
-10.5512
-10.8186
-34.5265
-35.323
-34.7226
-34.7784
-34.713
-34.3081
-9.76324
-9.55244
-9.75605
-9.94041
-9.92012
-10.0303
6.60788
6.46191
6.48276
6.45333
6.61495
6.15764
-39.496
-40.1748
-39.9548
-39.8278
-39.6596
-40.455
-1.78152
-8.24745
-7.67398
-4.2747
-1.44071
-14.458
22.801
22.6386
21.4909
23.5059
26.4753
18.2512
10.2952
6.76532
6.64448
9.09548
10.6615
3.47082
36.5577
36.4092
36.4685
36.2942
35.7259
36.5011
12.9469
12.4222
12.5729
12.6643
12.5003
14.0788
109.226
104.665
104.188
109.032
111.99
104.186
52.0187
54.3378
53.9076
48.5625
43.3508
54.5897
-26.2216
-26.4505
-25.8747
-26.2958
-26.8114
-25.5473
35.8547
36.1866
36.9529
34.6096
30.5159
40.1398
-5.02338
-5.071
-5.2771
-5.41734
-5.63567
-5.72207
-23.7286
-23.7335
-23.763
-23.4354
-23.2964
-23.5557
15.0212
15.0049
14.9315
14.9917
15.0487
14.8005
2.539
2.54751
2.48244
2.4879
2.44318
2.39726
-7.9613
-7.95871
-7.967
-7.95941
-7.97279
-7.93695
16.9182
17.0025
16.9528
16.9425
16.9077
16.9331
2.88868
2.88606
2.86703
2.87055
2.85302
2.84643
-5.67087
-5.66475
-5.66941
-5.66726
-5.67419
-5.65845
836.876
825.198
826.873
826.583
832.85
819.471
3.44202
3.44028
3.43806
3.43373
3.43562
3.42668
-10.5686
-10.5545
-10.5519
-10.55
-10.5543
-10.5426
3346.99
3379.72
3405.63
3406.24
3385.73
3359.19
5.29527
5.55972
5.77489
5.74442
5.82926
5.53847
-8.15091
-8.20729
-8.2691
-8.25393
-8.15241
-8.20634
3724.75
3721.09
3716.52
3734.71
3740.32
3730.48
2.91208
2.92125
2.89944
2.87929
2.83724
2.85216
-6.27646
-6.31928
-6.38469
-6.35314
-6.3153
-6.29725
3748.34
3748.94
3753.57
3759.39
3760.82
3757.08
3.94865
3.97742
4.00918
4.02435
4.04735
4.02641
-5.52984
-5.5413
-5.55113
-5.55152
-5.53918
-5.5462
3747.81
3748.03
3749.07
3751.25
3752.13
3751.99
3.59885
3.59496
3.58583
3.57413
3.56685
3.56485
-5.55731
-5.56617
-5.57719
-5.58256
-5.58631
-5.58394
3728.8
3728.69
3728.86
3729.18
3729.74
3731.26
4.07134
4.07141
4.06941
4.06615
4.06397
4.06194
-6.75229
-6.75801
-6.76332
-6.77246
-6.77772
-6.77508
3474.01
3468.56
3467.17
3458.92
3458.77
3465.35
5.70574
5.71479
5.71744
5.72559
5.72954
5.72258
-9.8375
-9.8421
-9.8443
-9.84457
-9.84874
-9.85015
3705.27
2272.45
3485.32
3497.52
2023.25
4099.5
3671.74
465.418
759.402
795.464
528.817
4222.78
375.803
61.642
-3.5766
-4.30603
-0.768069
627.158
12.3219
4.24845
23.5004
13.116
-7.68826
166.354
30.84
1.4723
9.83619
11.1489
0.0318037
179.759
5.98499
-3.73764
-2.36787
-2.51987
-4.40158
69.6932
11.9104
11.8734
13.1471
10.9475
11.7536
11.437
12.805
13.3604
14.2532
14.1652
14.8188
12.3427
5.77388
5.34481
5.31299
5.58321
5.8114
5.84546
-0.83019
-0.974971
-1.08359
-1.05166
-0.719848
-0.940533
-1.97554
-2.21571
-2.24413
-2.27998
-2.03045
-1.80756
-0.937742
-0.753768
-0.848444
-1.18571
-1.47897
-1.90161
5.83414
5.84943
5.82129
5.76401
5.68203
5.6623
1.44651
1.43321
1.41965
1.46204
1.47861
1.51961
2.21295
2.18459
2.15564
2.16293
2.13306
2.14062
0.103129
0.101807
-0.109972
0.00826866
0.19667
0.502009
-1.76201
-1.74851
-1.7665
-1.81368
-1.82204
-1.74012
1.19684
1.20607
1.17977
1.12864
1.09645
1.08915
3.755
3.68292
4.10687
4.14869
4.02103
3.75522
0.563425
0.792977
0.697611
0.104812
-0.09909
0.168044
2.16856
2.16989
2.24134
2.38509
2.43706
2.34971
5.90803
5.69707
5.32624
5.07986
4.68317
4.62725
0.634935
0.887658
1.18969
0.471245
0.0173473
-0.0713069
2.79538
2.78139
2.74893
2.7101
2.6136
2.57489
8.55851
8.13352
7.64553
6.89836
6.20516
6.54046
-0.890687
-0.722592
-0.837711
-0.85121
-0.791763
-0.801552
3.50734
3.39904
3.31471
3.11208
2.96497
2.90494
11.4246
11.4543
10.4534
10.5838
9.65057
10.0569
-2.42032
-2.39803
-2.45979
-2.33663
-2.37417
-2.31778
3.66396
3.59135
3.51676
3.38667
3.27269
3.28695
7.50062
6.45124
4.42257
3.43266
1.71506
3.58251
-2.23406
-2.37339
-2.70767
-2.66679
-3.63066
-2.87894
0.958079
0.847125
0.901229
0.599661
0.717879
0.559142
557.058
709.376
836.458
691.495
711.422
579.336
-1.44591
-1.3207
-1.3928
-0.890858
-0.844252
-1.20603
-6.98126
-7.57235
-8.26697
-7.83097
-7.63334
-7.10105
)
;

boundaryField
{
    seabed_topleft_surface
    {
        type            fixedFluxPressure;
        gradient        uniform 0;
        value           nonuniform List<scalar> 
72
(
20254.3
20254.3
20254.3
20254.3
20254.3
20254.3
20329.8
20330
20329.9
20329.8
20329.9
20329.9
18086.1
18085.8
18086
18086.1
18086.1
18086.1
15192.8
15192.5
15192.6
15192.8
15192.7
15192.7
13112
13112.2
13112
13112.3
13112.4
13111.9
11644.8
11645.5
11645
11645.7
11645.4
11645.1
10827.4
10829
10828.4
10828.4
10827.4
10829.3
10516.9
10516.1
10516.6
10517.2
10519.5
10515.3
10725.5
10724
10724.6
10725.6
10727.8
10722.7
11234.8
11239.3
11237.5
11235.8
11231.5
11242.6
11718.1
11710.2
11716.5
11712.3
11723
11706.9
11401.8
11388.6
11395.3
11398.6
11414.6
11384.8
)
;
    }
    seabed_topright_surface
    {
        type            fixedFluxPressure;
        gradient        uniform 0;
        value           nonuniform List<scalar> 
72
(
3354.96
3591.31
3302.9
3387.99
3368.16
3238.16
2801.26
2946.56
2675.78
2759.72
2615.26
2559.8
1725.57
1940.84
1827.13
1976.58
1925.05
1864.29
1098.34
894.213
1077.3
1030.31
1206.34
1289.93
773.594
402.144
662.644
489.355
722.401
965.418
567.141
570.503
697.437
637.807
665.308
822.156
671.148
810.053
836.722
833.821
811.767
825.474
779.919
826.787
839.705
827.331
815.427
811.7
805.406
821.222
828.946
818.098
827.311
565.09
925.698
989.323
997.45
1051.2
1048.07
721.379
1351.65
1468.7
1598.12
1486.92
1456.02
1299.9
1345.44
1363.26
1457.31
1434.12
1594.2
1373.45
)
;
    }
    breakwater_top_surface
    {
        type            fixedFluxPressure;
        gradient        uniform 0;
        value           nonuniform List<scalar> 
36
(
3346.99
3379.72
3405.63
3406.24
3385.73
3359.19
3724.75
3721.09
3716.52
3734.71
3740.32
3730.48
3748.34
3748.94
3753.57
3759.39
3760.82
3757.08
3747.81
3748.03
3749.07
3751.25
3752.13
3751.99
3728.8
3728.69
3728.86
3729.18
3729.74
3731.26
3474.01
3468.56
3467.17
3458.92
3458.77
3465.35
)
;
    }
    breakwater_left_surface
    {
        type            fixedFluxPressure;
        gradient        uniform 0;
        value           nonuniform List<scalar> 
24
(
11401.8
11388.6
11395.3
11398.6
11414.6
11384.8
4670.71
4599.6
4617.73
4662.3
4718.56
4582.93
1058.93
1059.11
1059.43
1058.39
1059.21
1061.03
891.195
889.903
890.596
891.799
892.979
890.903
)
;
    }
    breakwater_right_surface
    {
        type            fixedFluxPressure;
        gradient        uniform 0;
        value           nonuniform List<scalar> 
24
(
1345.44
1363.26
1457.31
1434.12
1594.2
1373.45
1798.47
1767.62
1695.01
1776.66
1755.13
1849.79
1213.1
983.101
741.294
1085.33
491.003
1368.85
90.459
-69.9809
-75.4986
-86.4111
865.768
18.4667
)
;
    }
    water_front_surface
    {
        type            fixedFluxPressure;
        gradient        uniform 0;
        value           nonuniform List<scalar> 
186
(
20254.3
20329.8
18086.1
15192.8
13112
11644.8
10827.4
10516.9
10725.5
11234.8
11718.1
11401.8
21776.2
20944.1
16459.9
8980.04
5711.43
4184.98
3302.2
2966.39
3877.44
5241.09
5665.62
4670.71
22337.4
9588.3
1822.01
8.20367
-29.4228
-9.28466
125.029
254.314
433.004
1026.94
1210.95
1058.93
25105.4
-2.07853
3.76299
-12.393
-33.1496
-50.058
24.6378
212.844
550.038
460.595
468.709
891.195
3354.96
2801.26
1725.57
1098.34
773.594
567.141
671.148
779.919
805.406
925.698
1351.65
1345.44
2953.92
958.151
137.037
25.9204
-21.1019
-35.5536
-21.4359
7.25242
9.62615
43.9456
482.602
1798.47
2404.15
85.1693
7.89702
4.08264
10.277
-2.91771
1.52257
2.47272
1.03126
-1.67617
41.5972
1213.1
2859.3
-10.9088
14.5494
-4.54202
-1.27365
-11.7742
-3.41917
0.355847
-0.0589893
-2.30727
-3.90608
90.459
28236.2
8962.19
65.0611
290.385
550.064
165.812
-18.1556
-4.23409
-7.55759
-23.0881
-12.6114
-10.8597
-34.5265
-9.76324
6.60788
-39.496
-1.78152
22.801
10.2952
36.5577
12.9469
109.226
52.0187
-26.2216
35.8547
-5.02338
-23.7286
15.0212
2.539
-7.9613
16.9182
2.88868
-5.67087
836.876
3.44202
-10.5686
3346.99
5.29527
-8.15091
3724.75
2.91208
-6.27646
3748.34
3.94865
-5.52984
3747.81
3.59885
-5.55731
3728.8
4.07134
-6.75229
3474.01
5.70574
-9.8375
3705.27
3671.74
375.803
12.3219
30.84
5.98499
11.9104
12.805
5.77388
-0.83019
-1.97554
-0.937742
5.83414
1.44651
2.21295
0.103129
-1.76201
1.19684
3.755
0.563425
2.16856
5.90803
0.634935
2.79538
8.55851
-0.890687
3.50734
11.4246
-2.42032
3.66396
7.50062
-2.23406
0.958079
557.058
-1.44591
-6.98126
)
;
    }
    water_back_surface
    {
        type            fixedFluxPressure;
        gradient        uniform 0;
        value           nonuniform List<scalar> 
186
(
20254.3
20329.9
18086.1
15192.7
13111.9
11645.1
10829.3
10515.3
10722.7
11242.6
11706.9
11384.8
21775.9
20944.3
16458.2
8978.98
5713.22
4186.76
3305.71
2953.17
3882.95
5278.12
5583.88
4582.93
22336.8
9589.05
1820.57
8.28477
-29.5168
-9.61948
124.024
253.106
428.478
1032.71
1228.57
1061.03
25110.4
-2.15787
3.76046
-12.2681
-33.1299
-50.3403
24.6057
191.448
549.535
463.763
468.667
890.903
3238.16
2559.8
1864.29
1289.93
965.418
822.156
825.474
811.7
565.09
721.379
1299.9
1373.45
2756.78
1311.7
166.615
32.316
-29.0606
-31.4996
-11.8043
7.20871
15.4553
84.3396
753.299
1849.79
2615.99
424.565
10.7539
5.41137
6.28661
-6.29948
0.120592
1.86312
2.6488
5.49037
21.6453
1368.85
3171.7
55.8337
12.9321
-7.12403
-1.65302
-10.0375
-2.50303
0.259517
2.92402
0.376354
-0.444668
18.4667
28238.1
8949.85
64.1031
291.408
550.223
164.418
-18.0872
-4.20404
-7.57718
-23.0107
-12.617
-10.8186
-34.3081
-10.0303
6.15764
-40.455
-14.458
18.2512
3.47082
36.5011
14.0788
104.186
54.5897
-25.5473
40.1398
-5.72207
-23.5557
14.8005
2.39726
-7.93695
16.9331
2.84643
-5.65845
819.471
3.42668
-10.5426
3359.19
5.53847
-8.20634
3730.48
2.85216
-6.29725
3757.08
4.02641
-5.5462
3751.99
3.56485
-5.58394
3731.26
4.06194
-6.77508
3465.35
5.72258
-9.85015
4099.5
4222.78
627.158
166.354
179.759
69.6932
11.437
12.3427
5.84546
-0.940533
-1.80756
-1.90161
5.6623
1.51961
2.14062
0.502009
-1.74012
1.08915
3.75522
0.168044
2.34971
4.62725
-0.0713069
2.57489
6.54046
-0.801552
2.90494
10.0569
-2.31778
3.28695
3.58251
-2.87894
0.559142
579.336
-1.20603
-7.10105
)
;
    }
    water_left_surface
    {
        type            fixedFluxPressure;
        gradient        uniform 0;
        value           nonuniform List<scalar> 
42
(
20254.3
20254.3
20254.3
20254.3
20254.3
20254.3
21776.2
21775.1
21775.6
21776
21775.7
21775.9
22337.4
22336.3
22336.6
22336.8
22336.5
22336.8
25105.4
25115
25112.4
25109.1
25110.6
25110.4
28236.2
28240.1
28237.3
28236.2
28237.6
28238.1
8962.19
8935.39
8941.09
8946.45
8941.72
8949.85
65.0611
62.0331
63.3048
63.7932
63.0809
64.1031
)
;
    }
    water_right_surface
    {
        type            fixedFluxPressure;
        gradient        uniform 0;
        value           nonuniform List<scalar> 
42
(
3354.96
3591.31
3302.9
3387.99
3368.16
3238.16
2953.92
2854.91
2907.77
2414.94
2459.54
2756.78
2404.15
2593.45
2604.02
1615.13
1391.88
2615.99
2859.3
3146.02
3137.09
3021.88
2020.9
3171.7
3705.27
2272.45
3485.32
3497.52
2023.25
4099.5
3671.74
465.418
759.402
795.464
528.817
4222.78
375.803
61.642
-3.5766
-4.30603
-0.768069
627.158
)
;
    }
    water_top_surface
    {
        type            totalPressure;
        rho             rho;
        psi             none;
        gamma           1;
        p0              uniform 0;
        value           nonuniform List<scalar> 
180
(
0
0
0
0
0
0
0
0
0
0
0
0
-1.51707
-1.50736
-1.51968
-1.51457
-1.52984
-1.51554
-1.24681
-0.851737
-1.04196
-1.06439
-1.0491
-1.09248
0
0
0
0
0
0
0
0
0
0
0
0
0
0
0
0
0
0
-5.7994
-6.27217
-5.81122
-6.82654
-7.76276
-5.42462
-24.1436
-24.5313
-24.5075
-24.1347
-24.1834
-24.3451
-12.8745
-12.9225
-12.9321
-12.8373
-12.8847
-12.8749
-7.52772
-7.52367
-7.5282
-7.5211
-7.55014
-7.49748
-4.05597
-4.0615
-4.05825
-4.0549
-4.05875
-4.05445
-0.553656
-0.543384
-0.55115
-0.641063
-0.749665
-0.647027
-1.84368
-1.86208
-1.88476
-1.91266
-1.9393
-1.89484
-1.52334
-1.51595
-1.50566
-1.48669
-1.48171
-1.47117
-1.87287
-1.87665
-1.87801
-1.87581
-1.88161
-1.868
-2.46621
-2.46926
-2.46993
-2.47008
-2.47657
-2.46252
-2.13948
-2.1308
-2.12985
-2.13301
-2.13775
-2.12292
0
0
0
0
0
0
0
0
0
0
0
0
-0.251597
-0.856403
-0.756614
-0.31832
-0.452752
0
-2.67902
-2.77768
-2.74326
-2.95313
-3.08266
-3.16406
-0.426792
-0.438773
-0.455622
-0.418639
-0.437012
-0.416394
-0.513265
-0.509732
-0.530575
-0.545876
-0.562349
-0.537689
-0.00202533
0
-0.00205923
-0.0107881
-0.0158889
-0.00704371
-0.0167781
-0.0126975
-0.0119557
-0.0494734
-0.0831826
-0.0791114
-0.104226
-0.111612
-0.127995
-0.155787
-0.183436
-0.183668
-0.681393
-0.730822
-0.780486
-0.780754
-0.847351
-0.785408
-1.6647
-1.73475
-1.8031
-1.91907
-2.20537
-1.90393
-1.07067
-1.13648
-1.05296
-1.07506
-1.08234
-1.23976
)
;
    }
}


// ************************************************************************* //
