/*--------------------------------*- C++ -*----------------------------------*\
| =========                 |                                                 |
| \\      /  F ield         | OpenFOAM: The Open Source CFD Toolbox           |
|  \\    /   O peration     | Version:  v1612+                                |
|   \\  /    A nd           | Web:      www.OpenFOAM.com                      |
|    \\/     M anipulation  |                                                 |
\*---------------------------------------------------------------------------*/
FoamFile
{
    version     2.0;
    format      ascii;
    class       volScalarField;
    location    "9.4";
    object      alpha.water;
}
// * * * * * * * * * * * * * * * * * * * * * * * * * * * * * * * * * * * * * //

dimensions      [0 0 0 0 0 0 0];

internalField   nonuniform List<scalar> 
1116
(
0.743931
0.745745
0.746837
0.74144
0.739411
0.746047
0.801207
0.803156
0.805158
0.80253
0.803747
0.805237
0.932185
0.933621
0.934389
0.932415
0.93178
0.934545
0.952285
0.952285
0.952259
0.952232
0.952237
0.952208
0.952377
0.952358
0.952354
0.952387
0.952403
0.952333
0.952551
0.952566
0.952579
0.952606
0.952624
0.952577
0.952641
0.952658
0.952675
0.952696
0.952706
0.952685
0.952658
0.952675
0.952696
0.952706
0.952706
0.952706
0.862424
0.859156
0.860951
0.85993
0.860772
0.861825
0.775941
0.775234
0.77555
0.77585
0.776159
0.775555
0.776065
0.775707
0.77585
0.776138
0.776288
0.776004
0.682804
0.674038
0.679148
0.681956
0.675562
0.678457
0.215892
0.218738
0.219653
0.217146
0.216584
0.220355
0.256263
0.258489
0.258754
0.257333
0.25742
0.258659
0.329346
0.329172
0.329768
0.330134
0.330137
0.328508
0.423167
0.42204
0.421841
0.422909
0.421353
0.420048
0.492591
0.490744
0.490241
0.493137
0.492392
0.490197
0.561794
0.559817
0.559125
0.562307
0.562177
0.560754
0.619908
0.61839
0.61769
0.619144
0.619735
0.618031
0.699093
0.698032
0.697463
0.696798
0.696433
0.696284
0.828538
0.827629
0.827598
0.827033
0.82742
0.82709
0.828491
0.828479
0.828456
0.82842
0.828383
0.828348
0.708078
0.720211
0.717123
0.714327
0.720897
0.711126
0.529287
0.525715
0.524183
0.527741
0.522388
0.526006
3.65849e-05
1.28864e-05
6.43787e-06
2.84696e-05
3.61799e-05
3.29108e-06
2.87079e-08
-4.32277e-13
1.48471e-10
-1.06307e-10
-1.91597e-10
-1.80097e-12
1.67522e-10
4.5503e-13
1.40392e-12
-3.38585e-15
-1.99089e-15
1.12137e-14
1.90457e-12
-1.25289e-18
-1.00218e-18
4.05508e-17
-8.34039e-19
3.47616e-14
3.22628e-14
1.38058e-16
3.00382e-16
1.26942e-17
9.08663e-15
1.8332e-11
2.29066e-09
2.03598e-10
2.69726e-11
1.84822e-09
5.1761e-09
1.14657e-09
1.06101e-09
2.44256e-10
4.08665e-10
1.02045e-09
1.32914e-09
2.25513e-10
2.33739e-10
6.89551e-23
2.38587e-10
3.78191e-10
2.11765e-10
7.14448e-23
4.94282e-05
9.62947e-05
8.54897e-05
6.27744e-05
5.0422e-05
8.08801e-05
0.0390202
0.0392788
0.0391436
0.0385076
0.0377117
0.0397074
0.232721
0.229614
0.234616
0.221867
0.208189
0.244953
0.53043
0.528666
0.527008
0.528867
0.526504
0.526865
7.07092e-05
2.23313e-05
9.2079e-06
5.43773e-05
6.83472e-05
2.98207e-06
-3.98028e-11
3.74158e-13
9.57949e-14
-7.18016e-16
-2.21801e-11
-2.07592e-16
4.16812e-13
-1.81594e-18
-6.60083e-17
-6.36444e-21
-4.41546e-14
-9.8999e-23
-3.64271e-17
-1.27998e-13
-3.67152e-14
-6.52896e-22
-4.91797e-16
-4.39504e-19
1.37967e-16
7.99192e-25
3.19014e-24
6.35141e-18
9.85971e-23
9.02729e-15
3.89438e-09
1.17541e-10
3.02059e-16
3.20616e-09
1.05327e-07
1.00853e-08
9.88075e-08
1.06768e-08
2.11746e-08
5.09495e-08
1.5133e-07
7.18404e-09
-6.33535e-10
-2.1016e-09
-2.03844e-10
3.10208e-10
-9.0704e-10
-6.55465e-09
-2.49167e-07
-1.97508e-06
-1.92042e-06
-1.8292e-06
-1.95512e-06
-2.17555e-06
4.3017e-05
4.69258e-05
4.65215e-05
4.37036e-05
4.20266e-05
4.77049e-05
0.00134558
0.000614884
0.000600627
0.000591543
0.000555798
0.000613817
0.505623
0.489648
0.494936
0.49888
0.487637
0.496366
0.0980063
0.098157
0.0981008
0.0980544
0.0976483
0.0970787
0.0981584
0.098282
0.0982645
0.0980781
0.0977344
0.0948834
0.0982798
0.0983998
0.0984288
0.0984558
0.0984827
0.097567
0.0983789
0.0984249
0.0984186
0.0984403
0.0984664
0.0984419
0.098356
0.0983832
0.0929108
0.0879657
0.0984403
0.0983966
0.0983679
0.098356
0.0618609
0.0900117
0.098395
0.0982185
0.0983357
0.0983496
0.098335
0.0683727
0.0982185
0.0980385
0.0881965
0.0983349
0.0704357
0.0139895
0.0601202
0.0788558
0.0309459
0.0428117
0.0331844
0.00678985
0.0103945
0.0396968
0.00506595
0.0168855
0.0263373
0.00719773
0.00899419
0.035331
0.00925897
0.00349849
0.0192138
0.0230106
0.0178519
0.0321361
0.0107172
0.00468097
0.0159355
0.0231176
0.0235748
0.0237189
0.0332386
0.0471251
0.0509261
0.0257928
0.0194975
0.0183638
0.0326988
0.0487372
0.049307
0.0290364
0.0205687
0.0112898
0.0408013
0.0487836
0.0445326
0.0452451
0.0338738
0.0184925
0.0551204
0.0570248
0.0602295
0.0502621
0.0431647
0.0360974
0.0848269
0.0585877
0.0524919
0.0538074
0.0390222
0.0547044
0.0984354
0.0681869
0.03932
0.0763987
0.0430647
0.06945
0.0983496
0.0949284
0.0578369
0.0836442
0.0801781
0.0917314
0.0751286
0.0982768
0.0705156
0.041672
0.0916301
0.0916944
0.0194418
0.0957778
0.0592206
0.00579833
0.0350459
0.0661007
0.00478596
0.0171686
0.0197223
0.00782462
0.00216689
0.00503252
0.00401684
0.00254502
0.00330941
0.00253205
0.00135306
0.00200445
0.00616366
0.00248856
0.0012976
0.00131384
0.00132947
0.00134183
5.95741e-08
5.95741e-08
0.000236532
8.42106e-09
9.35072e-09
1.62151e-08
6.16607e-08
5.95741e-08
4.29849e-05
6.51464e-09
7.97718e-09
1.66973e-08
0.00332266
1.32842e-07
6.45204e-09
5.29391e-09
6.51464e-09
8.07578e-09
0.00231244
0.000666087
0.00077785
6.51434e-09
7.97718e-09
2.67799e-08
1.50689e-06
0.00596127
0.00295152
1.08001e-08
2.67799e-08
4.46529e-08
0.000399784
0.00936931
0.00679143
1.35235e-08
2.16778e-08
3.03279e-08
5.84172e-05
0.00995811
0.0231025
0.0171523
1.10396e-08
1.36544e-08
0.00449734
0.02381
0.056162
0.0315946
0.0262497
0.0354009
0.0220065
0.0708136
0.0375033
0.00510088
0.0348852
0.061084
0.0301832
0.0456008
0.0145723
0.00355576
0.00656546
0.0340457
0.00856969
0.00253536
0.000865303
0.0028317
0.00306652
0.00238611
0.00093209
0.000876647
0.000876647
0.00457373
0.00749042
0.00225174
4.14838e-07
3.12091e-07
8.22364e-09
6.49295e-06
4.01177e-07
2.74009e-07
2.82071e-06
1.93581e-07
7.33569e-09
2.70532e-07
7.79602e-07
3.95075e-07
1.31651e-07
1.09759e-06
5.29399e-09
4.28365e-09
8.78546e-08
4.58115e-05
2.08676e-08
9.61748e-09
6.45205e-09
5.29401e-09
1.31107e-06
4.419e-05
1.34876e-08
2.0302e-08
9.61894e-09
8.60223e-09
4.40568e-07
5.09695e-06
2.29088e-07
2.2223e-08
1.35159e-08
1.08282e-08
1.1024e-08
1.36555e-08
3.61086e-07
4.03122e-08
1.08277e-08
8.29006e-09
1.00516e-08
1.10407e-08
4.65363e-06
3.61146e-07
0.00290059
0.011571
1.10406e-08
1.22037e-08
0.00057198
0.000669053
0.0168111
0.00894991
0.0136082
0.0123868
0.0088141
0.0130049
0.0075683
0.00313185
0.00500758
0.0210665
0.00915252
0.006798
0.000861591
0.00361681
0.00472772
0.00527145
0.00566491
0.00189254
0.00375925
0.00983066
0.00989499
0.00694653
0.000126482
0.000113282
0.000115453
0.000121212
0.000121469
7.15436e-05
0.000126814
5.65243e-05
3.63712e-05
0.000121892
0.0001219
5.82682e-05
0.000125622
1.69347e-05
1.52222e-07
7.31604e-05
0.000121833
0.000120602
1.57876e-06
1.12125e-11
3.58778e-12
-3.55741e-19
-3.6288e-11
2.24785e-25
4.08419e-14
3.58407e-08
2.40061e-07
3.38917e-13
1.06943e-12
1.28582e-20
-2.54801e-16
3.59166e-08
1.38174e-08
-1.35079e-16
1.72307e-24
1.54539e-27
-4.57163e-12
2.00372e-13
6.94798e-14
1.55359e-14
-7.82882e-13
6.771e-13
-1.64705e-15
-2.58356e-13
-1.16325e-12
5.62591e-17
6.24435e-18
6.07154e-18
6.36374e-18
-2.81134e-14
-1.52905e-14
-1.80644e-17
2.14209e-18
1.22103e-18
-4.83039e-15
1.6169e-13
-9.14711e-16
4.45644e-16
-1.35441e-14
-1.7029e-19
-2.79454e-17
5.34501e-17
-4.12136e-15
9.65505e-17
-1.15596e-16
7.53904e-23
2.32726e-17
1.51448e-17
-2.04684e-16
2.85078e-17
1.71121e-17
3.13861e-19
-3.1393e-18
1.3807e-16
1.71542e-17
6.35491e-18
4.08771e-21
7.61372e-10
-2.24749e-15
2.71361e-20
2.29247e-17
2.48903e-17
-7.43385e-19
1.51178e-11
1.40438e-19
3.12386e-17
2.39793e-17
6.13316e-18
6.33829e-18
5.06345e-25
6.37882e-09
2.77472e-09
8.11611e-10
3.38984e-09
8.30904e-08
1.44042e-08
-4.80417e-17
6.51077e-10
2.19754e-20
4.17878e-21
2.95438e-21
3.67484e-09
1.38206e-26
4.38487e-25
2.12648e-24
7.74071e-25
8.5693e-25
2.99477e-31
1.77557e-07
2.1121e-08
4.95399e-08
1.05163e-07
1.67668e-07
1.34507e-08
1.30922e-07
1.23363e-08
2.89019e-08
5.03027e-08
9.17302e-08
7.29585e-09
3.83834e-18
3.50712e-18
7.40814e-18
4.35527e-18
3.12004e-18
1.50533e-18
1.19291e-08
-1.43776e-10
1.59036e-09
1.02848e-08
2.5893e-09
-1.59776e-09
6.30743e-07
3.88197e-10
3.27704e-07
3.8012e-07
3.79214e-07
5.09528e-18
3.06542e-07
1.61674e-08
3.45845e-07
1.78878e-07
1.77716e-07
1.41394e-09
-3.43487e-08
-3.16049e-08
-8.33648e-09
-6.15092e-10
1.3928e-08
-9.96584e-09
2.2087e-07
3.3601e-09
2.42077e-07
2.26974e-07
2.2451e-07
7.0393e-18
3.7546e-06
5.84348e-07
3.94567e-06
3.97688e-06
2.16942e-06
-8.32973e-16
3.88765e-06
4.03122e-06
3.97295e-06
3.8456e-06
3.65618e-06
4.02213e-06
4.97352e-07
1.80561e-07
4.51852e-07
5.92901e-07
4.49902e-07
1.64733e-07
3.35744e-06
4.88346e-07
3.36333e-06
3.3689e-06
1.72439e-06
1.42339e-17
0.00167133
0.000139116
0.000136611
0.000134376
0.000131912
0.000138924
0.00113356
0.000151624
0.000261609
0.000440199
0.000329839
0.000279863
4.29683e-05
2.82409e-05
6.57357e-05
7.80575e-05
9.56943e-05
5.09138e-05
0.166952
0.171413
0.175229
0.175632
0.174194
0.171735
6.09674e-05
8.55265e-05
6.91236e-05
5.63536e-05
7.00365e-05
0.000118133
5.5621e-05
4.93821e-05
7.57458e-06
4.77673e-05
7.4361e-06
4.74067e-05
0.0193588
0.0193938
0.0189183
0.0181806
0.0174052
0.0174729
0.000152691
1.55014e-06
1.56542e-06
1.9825e-06
2.1144e-06
1.44676e-06
1.08871e-06
3.66846e-06
2.05922e-05
5.3405e-05
3.2107e-05
1.01226e-06
0.0191219
0.0195428
0.0198278
0.0192173
0.0175786
0.0186809
1.08871e-06
1.10347e-06
1.13036e-06
1.63756e-06
1.44676e-06
7.11244e-07
1.08871e-06
1.08871e-06
1.10347e-06
1.70098e-06
1.84265e-06
7.11245e-07
0.0204837
0.0205212
0.0205335
0.0203819
0.020317
0.0205031
0.000322392
0.000356525
0.000339478
0.000270649
0.000233815
0.000270988
1.08871e-06
1.10347e-06
1.13036e-06
1.63755e-06
1.53625e-06
7.11242e-07
0.0165267
0.0163882
0.0165612
0.0162735
0.0163564
0.0167105
0.00580817
0.00541361
0.00537869
0.00630532
0.00639864
0.00496454
1.41076e-05
1.15972e-05
1.0257e-05
2.66353e-05
2.92389e-05
6.61439e-06
0.0325211
0.0301961
0.0293913
0.0329401
0.0336271
0.0288384
0.0182324
0.0174092
0.0169153
0.0191374
0.0194871
0.0163993
0.00019137
0.00016599
0.000160377
0.000245543
0.000244683
0.000152142
0.144898
0.135889
0.137104
0.147993
0.147204
0.133634
0.016052
0.0175633
0.0166317
0.0168765
0.0176979
0.0166098
9.44595e-20
3.27155e-07
4.09098e-18
-1.5173e-14
-9.86229e-17
1.50136e-05
1.07909e-06
8.59167e-07
7.46104e-06
4.13754e-06
1.61917e-07
8.86626e-07
4.33018e-07
2.23556e-07
5.3285e-06
1.95826e-08
1.36819e-07
6.28029e-07
0
0
0
0
0
0
4.53966e-06
8.63529e-07
7.08264e-08
1.53698e-07
1.23865e-06
2.84938e-06
1.28999e-06
8.91188e-08
6.19844e-08
1.63556e-09
2.65416e-07
1.46422e-06
0
-7.23906e-19
2.34203e-10
2.13758e-19
1.30801e-24
3.36038e-29
3.69e-06
1.15965e-06
7.96204e-08
3.9083e-09
1.04049e-06
3.31451e-07
5.81842e-07
9.82581e-13
6.20143e-09
3.85442e-09
1.0251e-07
3.23552e-07
0
2.46037e-14
6.82889e-09
2.77405e-10
1.72167e-21
2.65254e-31
5.95983e-08
2.55451e-08
1.7522e-07
1.03304e-07
5.98993e-07
4.44181e-06
1.16471e-20
1.9321e-15
2.65058e-11
1.38646e-08
1.05412e-17
1.92177e-17
8.47144e-22
8.87518e-19
3.03393e-10
3.16354e-20
1.96626e-22
3.37156e-17
3.793e-11
1.35992e-08
1.14154e-06
1.89239e-07
5.31231e-07
3.51149e-06
-1.22389e-17
2.20974e-07
4.72275e-08
7.34928e-08
1.61407e-07
2.41177e-09
5.92666e-27
3.56528e-25
3.30527e-20
9.24615e-11
3.99328e-08
3.50387e-22
8.46232e-06
1.63843e-05
4.15386e-06
1.09729e-08
2.10991e-07
2.40099e-07
3.68355e-08
2.62765e-06
2.13692e-06
2.22792e-07
3.77475e-07
4.41401e-10
1.67016e-33
5.45786e-30
-1.39198e-13
8.70366e-08
3.45052e-07
1.0918e-19
2.44207e-05
1.80096e-05
1.1514e-08
3.9035e-09
7.4863e-09
1.11873e-08
5.69168e-05
2.94958e-05
4.14718e-12
1.23173e-09
3.90421e-09
5.9825e-08
2.00335e-39
1.13528e-33
-1.51916e-13
1.781e-09
3.09963e-08
1.74681e-07
1.22178e-06
6.04309e-07
0.000438351
0.00155629
0.000873378
1.31539e-08
2.8025e-05
1.02199e-18
8.42529e-13
1.16713e-10
2.83518e-05
1.31539e-08
1.04788e-40
3.02554e-32
2.0149e-23
3.69677e-21
3.14915e-19
1.56058e-06
0.00510879
0.00291564
0.00573914
0.00878655
0.00663166
0.00523806
0.00184842
0.00161015
0.00218651
0.00426422
0.002612
0.000610725
3.38063e-46
2.2471e-40
0.000285454
0.000262078
0.000130486
8.94035e-19
0.00879804
0.00339342
0.00312582
0.00309691
0.00363661
0.0132102
0.00810258
0.000788129
0.000785007
0.00312397
0.00336016
0.00231954
0.000854084
0.000197223
0.000175536
0.00119581
0.0007333
1.68649e-07
0.00586652
0.00423843
0.00043499
0.00155465
0.00285106
0.00495303
0.00600028
0.00107569
0.000103676
0.000320518
0.00087146
0.00215286
0.00145057
0.00011901
7.65081e-05
8.31311e-05
0.000112197
4.63826e-05
0.0103454
0.00742588
0.00607553
0.00808033
0.00986501
0.0065701
0.00317362
0.00374048
0.00391122
0.00346452
0.0029068
0.00166037
4.16339e-05
7.67516e-06
6.82991e-05
4.37602e-05
1.82748e-05
1.94578e-06
)
;

boundaryField
{
    seabed_topleft_surface
    {
        type            zeroGradient;
    }
    seabed_topright_surface
    {
        type            zeroGradient;
    }
    breakwater_top_surface
    {
        type            zeroGradient;
    }
    breakwater_left_surface
    {
        type            zeroGradient;
    }
    breakwater_right_surface
    {
        type            zeroGradient;
    }
    water_front_surface
    {
        type            zeroGradient;
    }
    water_back_surface
    {
        type            zeroGradient;
    }
    water_left_surface
    {
        type            zeroGradient;
    }
    water_right_surface
    {
        type            zeroGradient;
    }
    water_top_surface
    {
        type            inletOutlet;
        inletValue      uniform 0;
        value           nonuniform List<scalar> 
180
(
0.000125622
0
0
0
0.000121833
0.000120602
0
0
0
0
0
0
0
0
0
0
0
0
0
0
0
0
0
0
0
0
0
0
0
0
0
0
0
0
0
0
0
0
0
0
0
0
0
0
0
0
0
0
3.7546e-06
0
0
3.97688e-06
0
0
3.35744e-06
4.88346e-07
3.36333e-06
3.3689e-06
1.72439e-06
1.42339e-17
4.29683e-05
2.82409e-05
6.57357e-05
7.80575e-05
9.56943e-05
5.09138e-05
5.5621e-05
4.93821e-05
7.57458e-06
4.77673e-05
7.4361e-06
4.74067e-05
1.08871e-06
3.66846e-06
2.05922e-05
5.3405e-05
3.2107e-05
1.01226e-06
1.08871e-06
1.08871e-06
1.10347e-06
1.70098e-06
1.84265e-06
7.11245e-07
1.08871e-06
1.10347e-06
1.13036e-06
1.63755e-06
1.53625e-06
7.11242e-07
1.41076e-05
1.15972e-05
1.0257e-05
2.66353e-05
2.92389e-05
6.61439e-06
0.00019137
0.00016599
0.000160377
0.000245543
0.000244683
0.000152142
0
3.27155e-07
0
0
0
0
0
0
0
0
0
0
0
0
0
0
0
0
0
0
0
0
0
0
0
0
0
0
0
0
0
0
0
0
0
0
0
0
0
0
0
0
0
0
0
0
0
0
0
0
0
0
0
0
0
0
0.000285454
0
0
0
0.000854084
0.000197223
0.000175536
0.00119581
0.0007333
1.68649e-07
0.00145057
0.00011901
7.65081e-05
8.31311e-05
0.000112197
4.63826e-05
4.16339e-05
7.67516e-06
6.82991e-05
4.37602e-05
1.82748e-05
1.94578e-06
)
;
    }
}


// ************************************************************************* //
