/*--------------------------------*- C++ -*----------------------------------*\
| =========                 |                                                 |
| \\      /  F ield         | OpenFOAM: The Open Source CFD Toolbox           |
|  \\    /   O peration     | Version:  v1612+                                |
|   \\  /    A nd           | Web:      www.OpenFOAM.com                      |
|    \\/     M anipulation  |                                                 |
\*---------------------------------------------------------------------------*/
FoamFile
{
    version     2.0;
    format      ascii;
    class       surfaceScalarField;
    location    "9.4";
    object      phi;
}
// * * * * * * * * * * * * * * * * * * * * * * * * * * * * * * * * * * * * * //

dimensions      [0 3 -1 0 0 0 0];

internalField   nonuniform List<scalar> 
2916
(
-0.00752804
-0.0812366
0.0887647
0.00360748
-0.103296
0.0921603
0.025724
-0.109245
0.0871282
0.0117228
-0.0673347
0.0813358
-0.0264038
-0.0467618
0.0848885
-0.106861
0.080457
0.00186391
-0.192407
0.109307
0.00214151
-0.207237
0.103664
-0.00149247
-0.211409
0.105798
-0.000100329
-0.189676
0.120949
-0.00840507
-0.177551
0.139094
-0.217527
0.102261
0.000167045
-0.191423
-0.00115186
-0.000871835
-0.198615
-0.00758337
-0.00605905
-0.200269
-0.0059529
-0.0041534
-0.193102
0.0015202
-0.00281727
-0.1886
0.00971323
-0.211464
-0.00888032
-0.00271472
-0.137923
-0.0507848
-0.00222469
-0.143606
-0.055499
-0.00334735
-0.144399
-0.0547476
-0.00446123
-0.139851
-0.0521366
-0.00444052
-0.137387
-0.0512343
-0.156089
-0.0598161
-0.00192484
-0.0581457
-0.0778527
-0.0015827
-0.0641213
-0.0798268
-0.00153664
-0.0647159
-0.0797287
-0.00284623
-0.0588088
-0.0797328
-0.00417917
-0.0553443
-0.0807095
-0.0739167
-0.0863511
-0.000738097
0.0456891
-0.103097
-0.000405171
0.0392747
-0.103729
0.000229763
0.0386573
-0.104008
-0.00075113
0.0456404
-0.103468
-0.00329022
0.0508815
-0.103687
0.0315886
-0.108795
0.00139367
0.137235
-0.0929398
0.000373802
0.133523
-0.0932282
0.000656336
0.132102
-0.0937272
0.000145187
0.138381
-0.0922299
-0.00105135
0.143753
-0.0916747
0.126041
-0.0955036
0.00297841
0.22751
-0.0932537
0.000359327
0.228309
-0.0921674
-0.000989754
0.226664
-0.0932133
-0.000185433
0.22866
-0.0910824
0.00128857
0.229014
-0.086735
0.222664
-0.0953342
-0.000942142
0.262267
-0.0338143
2.86258e-05
0.259874
-0.0325356
0.000116752
0.259989
-0.0334128
-0.00226882
0.262916
-0.0318706
-0.00339313
0.260508
-0.0303696
0.256867
-0.0375969
-0.00807025
0.142899
0.127438
-0.000370626
0.124414
0.127761
0.00285524
0.126253
0.130511
-0.00111292
0.144451
0.122433
-0.0055252
0.148641
0.116279
0.118825
0.132517
-0.0111242
-0.157632
0.311655
-0.000553981
-0.182162
0.296005
0.00250366
-0.177532
0.300727
-0.000274678
-0.154295
0.301524
0.00118581
-0.14661
0.29379
-0.18414
0.304151
0.0214193
-0.179051
-2.84889e-05
-0.160714
-0.00558921
-0.171971
0.0135454
-0.17343
0.017531
-0.150596
-0.166609
0.0124538
-0.0178725
0.0941833
-0.0376444
0.0274913
0.114767
-0.102154
0.0306531
0.120985
-0.0474797
-0.062657
0.0893186
0.0588252
-0.09336
0.0719435
0.018123
0.121159
-0.00462272
0.0365305
0.0595266
0.00980396
0.0654584
0.05127
0.0379214
0.061964
0.0463698
0.0134217
0.0308885
0.0519031
-0.0202811
0.0320772
0.0473594
0.0581951
0.0419081
-0.0142585
0.106133
-0.0564957
0.0102848
0.128067
-0.0947357
0.0546966
0.120002
-0.108403
0.0252023
0.111874
-0.0499712
-0.0273931
0.122362
-0.0279763
0.128913
-0.106992
-0.0118006
0.317801
-0.250652
0.00346797
0.333436
-0.276136
0.0272211
0.329654
-0.288152
0.0132643
0.326113
-0.252418
-0.0125685
0.335686
-0.238726
0.347216
-0.290687
-0.00486222
0.620843
-0.376033
-0.000287188
0.631867
-0.382834
0.00282001
0.632527
-0.385709
0.000616051
0.626116
-0.377532
0.00178876
0.630397
-0.376593
0.65182
-0.389166
-0.00250615
0.914059
-0.393807
-0.000783666
0.92086
-0.394444
-0.00257044
0.923547
-0.393241
-0.00210025
0.915511
-0.393333
0.00370113
0.913962
-0.393052
0.938289
-0.391564
-0.00243058
1.12991
-0.306362
-0.000658999
1.13511
-0.309251
-0.000799462
1.13767
-0.307705
-0.00167848
1.12988
-0.305719
0.00301429
1.12449
-0.306893
1.14742
-0.301622
0.00261519
1.16791
-0.133868
-0.000165049
1.17549
-0.129765
-0.000497029
1.17487
-0.13009
0.00078815
1.16963
-0.132122
0.00381195
1.16629
-0.131564
1.18
-0.124097
0.0038366
1.04623
0.0840274
-0.000228782
1.05804
0.0889812
0.00037112
1.05261
0.08825
0.000590501
1.05383
0.0837169
-0.00150011
1.05786
0.0801492
1.05095
0.0899454
-0.00243041
0.729276
0.446826
0.000232736
0.746164
0.436973
0.00692508
0.733622
0.442809
-0.00077543
0.746926
0.437035
-0.0171407
0.761147
0.429363
0.718072
0.448259
-0.0132555
0.237971
0.816215
-0.00162036
0.233023
0.797511
0.00610551
0.22908
0.797542
-0.00670614
0.26037
0.800891
-0.0306288
0.267844
0.811016
0.211529
0.780065
0.0153002
0.0436201
-0.00432117
0.0919305
-0.0172836
0.0700718
0.0119508
0.0577058
0.0333919
0.0958068
0.0783124
0.0432508
0.97904
-0.928107
0.050753
1.0151
-0.907836
-0.0447143
1.07562
-0.859169
-0.029798
0.983816
-0.909413
0.140804
0.910838
-1.0095
1.08628
-0.82432
-0.00176413
2.60924
-1.56891
0.0144381
2.62139
-1.57122
0.00286899
2.66853
-1.53497
0.005635
2.61269
-1.57973
0.103836
2.56445
-1.70445
2.68523
-1.4532
-0.0431349
4.39154
-1.79566
-0.00176064
4.3733
-1.88803
0.027773
4.40933
-1.87874
0.0269239
4.38764
-1.82408
0.0521077
4.34061
-1.82932
4.47208
-1.84173
-0.0264377
6.30448
-2.13716
-0.00344716
6.26791
-2.19374
0.0224125
6.29037
-2.19506
0.0225912
6.28686
-2.15182
0.0584459
6.23215
-2.16612
6.38197
-2.14213
-0.00675032
8.33833
-2.40313
0.00369746
8.30588
-2.43125
0.0130235
8.32425
-2.42891
0.0257434
8.31317
-2.41655
0.067123
8.25312
-2.43894
8.43752
-2.3776
-0.00108119
10.548
-2.60237
0.0124501
10.4928
-2.59486
0.00718398
10.5191
-2.58281
0.0273623
10.515
-2.61537
0.0579718
10.4489
-2.6194
10.653
-2.54903
-0.0461586
12.8524
-2.56463
0.00789811
12.7874
-2.65798
0.0336922
12.8128
-2.62723
0.0208206
12.808
-2.58583
0.0209706
12.7605
-2.61866
12.9285
-2.55616
-0.10041
11.5382
1.28073
0.00280564
11.4636
1.0909
0.112236
11.4897
1.08357
0.0233397
11.5164
1.24842
-0.0944842
11.572
1.17473
11.5002
1.20965
-0.0223151
6.12191
5.52265
-0.00424422
6.04586
5.48861
0.0450898
6.03808
5.49056
0.00918769
6.0862
5.54979
-0.0873984
6.16596
5.58278
6.00545
5.49734
0.00544169
2.57201
3.99128
-0.00329943
2.51021
3.98137
0.00331011
2.48591
3.98836
-0.00654501
2.53557
3.99752
-0.0203702
2.5911
4.01804
2.43384
3.9995
-0.0878816
0.658912
2.8172
-0.0344284
0.645149
2.60912
-0.000691316
0.634536
2.61518
-0.0271684
0.668058
2.69488
-0.0490267
0.697381
2.72659
0.588271
2.57661
0.0100136
0.692518
-0.00556801
0.752661
-0.0237601
0.7228
0.00214932
0.699854
0.0581895
0.737148
0.724772
0.0732154
-0.387116
-0.614207
0.0673942
-0.440471
-0.461543
-0.0207341
-0.425148
-0.345891
-0.0170865
-0.390997
-0.522062
0.0591126
-0.392339
-0.693355
-0.475035
-0.290171
0.016181
-0.114909
-1.8573
-0.00206835
-0.131485
-1.86196
0.016162
-0.162414
-1.81593
0.0122391
-0.117101
-1.84971
-0.0122967
-0.0994113
-1.97284
-0.212787
-1.72774
0.0269075
-0.110595
-1.82688
0.0269163
-0.123201
-1.89632
-0.0169363
-0.120722
-1.87658
0.0232529
-0.117444
-1.86392
0.0903602
-0.123443
-1.87239
-0.0995709
-1.86459
0.0108848
-0.129486
-2.12915
-0.00965668
-0.143202
-2.15319
-0.0371642
-0.145102
-2.14317
-0.0251021
-0.137624
-2.1437
0.00230286
-0.143548
-2.17342
-0.127409
-2.11199
-0.000788339
0.0176397
-2.54947
-0.0116764
-0.00203461
-2.56153
-0.0355106
0.00580727
-2.55599
-0.0318143
0.00129938
-2.55918
-0.00726998
-0.0241388
-2.5829
0.0154056
-2.52769
-0.00399567
0.451687
-3.03242
-0.00932617
0.429729
-3.02129
-0.0367084
0.458448
-3.00807
-0.0132298
0.407282
-3.04483
0.0015451
0.388926
-3.04724
0.458467
-2.99054
-0.101636
2.51615
-4.52745
-0.0191507
2.3466
-4.65733
0.0354079
2.38033
-4.60367
-0.0169351
2.43647
-4.56268
-0.0194882
2.35777
-4.58494
2.44465
-4.56183
-0.191868
6.25035
-2.2616
-0.0268629
6.02127
-2.74879
0.138671
6.04445
-2.74608
0.0100787
6.20555
-2.39207
-0.0530722
6.14541
-2.54976
6.11741
-2.51619
0.0480956
6.48019
5.24472
0.0212477
6.50948
5.02724
0.057955
6.49966
4.99865
0.01677
6.64062
5.15591
-0.050201
6.67945
5.1157
6.53805
5.0265
0.281868
3.68893
6.50067
0.0752359
3.99526
6.70222
0.0276284
3.98282
6.55281
0.00555706
4.07918
6.58103
0.0263543
4.07055
6.60615
3.99938
6.56452
0.383682
0.821459
5.30099
0.0769001
1.0138
5.89735
0.0121669
0.932379
5.73036
-0.0186157
0.982341
5.8225
0.0171064
1.02135
5.74007
0.894551
5.69854
0.0128147
1.50116
0.00228875
1.77699
-0.00983227
1.6673
0.000542049
1.67182
0.027536
1.73151
1.64686
0.0823399
0.329551
-0.41189
-0.00967577
0.355191
-0.263176
-0.128924
0.344792
-0.225543
-0.348396
0.353317
-0.133846
-0.29252
0.258752
-0.314629
0.246533
-0.539053
0.124698
0.630828
-0.425975
0.0235344
0.619802
-0.163447
0.0275099
0.531222
-0.190406
-0.0402191
0.418449
0.00259747
-0.171417
0.466762
-0.0768124
0.487099
-0.411982
0.12257
0.79192
-0.283662
0.00420365
0.936215
-0.198047
0.166818
0.610443
-0.241836
0.196185
0.355151
0.0339308
-0.139102
0.71704
0.0850095
0.638239
-0.290241
0.325397
0.810522
-0.344
0.241219
1.07042
-0.0500314
0.231445
0.438191
0.182026
0.0370434
0.408615
0.140938
-0.269131
0.968706
0.0545079
0.752695
-0.383586
0.505583
0.829541
-0.524602
0.501376
0.914382
0.160249
0.0387942
0.110948
0.789825
-0.269102
0.442518
0.273993
-0.411731
1.14605
-0.0347148
0.940871
-0.599907
0.487484
0.930757
-0.588699
0.46272
0.723898
0.215248
-0.259079
-0.0679921
0.900739
-0.462978
0.569636
0.0767811
-0.488495
1.42454
-0.252971
1.16364
-0.711268
0.605762
1.06357
-0.738577
0.797345
0.64833
-0.116014
0.679159
-0.096911
0.147104
-0.36282
1.46772
0.143891
-0.613282
2.15999
-0.484988
1.33794
-0.78758
0.34603
1.35869
-0.641147
0.790888
0.719176
-0.515705
0.763316
0.0347467
-0.104085
-1.14373
2.39075
0.984013
-1.24579
2.50064
-0.238587
0.89128
-0.799129
-0.794391
1.85003
0.303047
-0.176291
0.78884
-0.687764
0.351563
-0.0891183
-0.403989
-1.31454
1.97317
2.08368
-1.29124
1.77969
0.69764
0.0794005
-0.479362
-1.13166
1.31815
1.66354
-1.6041
1.29158
-0.0302985
-1.13486
-0.40621
-0.152146
-0.571929
0.23826
1.17198
-0.279487
0.116171
1.37108
-0.334472
0.134386
-0.0759861
0.288431
1.10571
-1.35557
0.971651
1.59952
-1.6864
-0.381863
0.306485
-0.799605
-0.665329
0.0167883
0.175738
-0.664306
-0.194867
-0.233997
0.0752627
0.363222
-0.0747918
-0.276353
1.61123
-0.886878
0.228662
-0.519274
-1.03293
-0.00996071
-1.17362
-0.243958
0.0205043
0.225859
-0.658254
-0.218165
0.175768
-0.200274
-0.757144
0.0667239
0.246712
-0.685329
0.211012
-0.416672
-0.141792
0.242991
-1.10116
0.260352
-0.941196
-0.296339
0.485668
-0.389444
-0.549817
0.413744
-0.147946
-0.96028
0.205815
0.0809665
-0.408038
0.335557
-0.67419
0.410568
0.472474
-1.1249
0.494938
-0.236
-0.420562
0.647376
-0.0248089
-0.455495
0.61068
-0.36005
-0.593702
0.343687
-0.241502
-0.200603
0.392487
-0.416098
0.542087
0.654588
-0.839795
0.673358
0.0734261
-0.426126
0.830463
-0.10096
-0.417157
0.829792
-0.278112
-0.0229215
0.581597
-0.450119
0.189645
0.537851
-0.216992
0.407935
0.707171
-0.216365
0.680622
0.0170845
-0.265191
1.12366
-0.55261
-0.294193
0.952049
0.0669945
-0.0736213
0.6453
0.50555
0.421989
0.901083
-0.58485
0.441642
0.835864
-0.183061
0.725049
-0.202692
-0.390637
1.50671
-0.58111
-0.479509
1.26807
-0.0119011
-0.551968
1.02309
0.595408
0.250168
1.45947
-1.28375
0.516607
1.30673
-0.990278
1.08634
-0.555955
-0.464775
1.78909
-0.556185
-0.602547
1.896
-0.606175
-0.935495
1.43238
0.0707609
-0.328352
1.95475
-0.958524
0.319409
2.07069
-1.8967
1.76792
-1.14974
-0.0237754
1.62464
-0.45292
-0.20911
2.4948
-0.92917
-0.982807
1.87337
0.228626
-0.925227
2.4605
0.420682
-0.370368
2.48579
-1.20855
2.24249
-1.64407
0.608979
1.58398
-0.265269
0.880483
2.47078
-0.935246
-0.0761339
1.82929
0.596705
-1.00066
2.46188
3.00682
-0.544926
2.01065
0.717054
2.29271
-1.07452
1.02418
1.79317
0.430169
1.46629
2.05453
-0.0561596
0.843033
1.19449
1.10591
0.073995
1.68139
2.7215
0.102994
0.861317
2.49141
2.4909
0.0391926
1.04073
1.01058
0.84756
1.29996
0.966619
2.42819
-0.402868
0.214212
2.98959
-0.442362
0.472481
1.26519
0.168065
-0.337757
0.393778
1.50711
1.22712
0.488374
0.447416
1.14905
1.91717
-0.0398728
1.63179
-0.292919
-0.307407
-0.817689
-0.986607
0.445456
0.341352
-0.0124006
-0.987205
0.544827
0.128226
-0.53197
-0.262772
-0.0499878
1.1043
-0.656876
-0.125088
0.102524
-0.295759
-0.110199
-1.35207
0.0381575
-1.27511
-0.138967
0.414483
-0.677358
-0.258165
0.707877
-0.608398
-0.264609
0.0874807
-0.0500565
-0.218145
0.186926
-1.03267
-0.148683
0.314903
-1.61946
0.526653
-0.873179
0.133881
0.836603
-0.580808
0.348602
0.597902
-0.464794
0.334216
0.0725474
-0.21218
0.278922
0.619578
-0.793455
0.214325
0.870288
-1.33058
1.22179
-0.407381
-0.494396
1.17245
0.0575872
-0.286671
0.368536
-0.256472
0.26472
0.175891
-1.10485
0.425744
0.996903
-0.755341
0.355686
1.28922
-0.565236
1.02832
0.566235
-1.45586
1.33624
0.73946
-1.05841
0.657444
-0.619361
0.448064
0.369258
-1.19429
0.9485
1.05125
-1.13964
0.85339
1.50944
-0.308175
0.354125
1.32489
-2.02306
1.42569
1.3525
-1.37543
1.31269
-1.31477
0.606481
0.907245
-1.92449
1.7037
1.0696
-2.39932
1.77458
1.60352
-1.15524
0.464397
1.10836
-2.40558
1.22358
2.05151
-1.87214
1.86762
-1.69454
0.019517
1.89208
-2.80573
1.91317
1.97361
-3.75618
1.75976
1.87811
-2.0179
1.1974
-0.122989
-2.71667
1.63724
1.85008
-1.97782
2.51064
-2.31104
-0.749602
2.44598
-1.55349
0.237841
2.10939
-0.702538
0.660296
2.27248
-2.02537
2.5086
-2.29496
-1.21336
2.2015
0.38384
-1.17197
2.76838
-1.23439
-1.40912
2.1264
1.15345
-0.507077
1.38849
2.82568
0.0273143
1.65082
0.804324
2.72744
-1.26604
0.392189
2.56992
-0.330444
0.56822
2.16237
0.37382
0.153477
0.776746
2.8703
-0.45556
-0.417355
5.13638
-0.214153
-0.187652
4.08847
2.70889
-0.156415
1.38381
1.94236
0.0913081
1.55726
1.27298
3.14412
-0.47135
-0.478012
6.27296
-0.574815
-1.14474
2.09605
-0.227444
-1.33575
1.1945
1.00542
2.70315
1.41698
0.972801
2.38745
2.21968
1.72468
1.81654
0.510597
-0.238068
-0.973655
-0.838104
0.477223
-0.278676
0.0387892
-0.747318
0.0952579
0.0544886
-0.960391
0.732366
-0.13534
0.602535
0.868147
-0.133626
0.100371
0.447988
0.0139563
-0.945869
0.00470619
-0.831827
-0.233449
0.607427
-1.01254
0.228178
0.380274
-1.3958
0.589384
0.440046
-0.986644
0.335164
0.316034
-1.2281
-0.0269477
0.197673
-1.44107
0.252531
-1.14795
-0.432493
1.3767
-0.917586
-0.247546
1.0804
-1.34987
0.0768316
0.939936
-1.03645
0.255732
0.654697
-1.31102
0.0030642
0.603541
-1.48378
0.942001
-1.09379
-0.197683
1.74799
-0.11602
-0.419905
2.06409
-1.01793
-0.358847
1.35382
-1.5798
-0.125992
1.1625
-1.496
-0.17255
1.44711
-1.36225
1.28683
0.0488632
0.0438325
1.54565
0.897969
-0.403532
2.88166
-0.989568
-0.113493
1.88975
-2.02026
-0.0169736
1.62025
-1.6939
0.102924
2.10005
-1.08101
1.35069
1.36395
0.148975
0.97801
1.77116
0.170492
2.77059
-1.22522
0.581736
2.03141
-2.4774
0.603816
1.58986
-2.39101
0.75923
2.17465
-1.38526
1.95685
1.26144
0.465657
0.188961
2.3749
0.6998
2.09015
-1.24824
1.22211
1.86701
-3.16364
1.06193
1.65456
-3.6607
0.963014
2.1885
-1.93282
2.47451
0.322364
-0.0769685
-0.053781
2.16979
-0.606993
2.12519
-1.81605
0.130055
2.46343
-2.88696
1.13081
2.08584
-2.13458
1.13174
1.91134
-1.74914
2.09296
-0.78167
-1.23956
1.16421
0.405407
-2.452
2.72068
-0.617427
-1.41309
2.19623
0.381736
0.184436
1.07972
2.23427
0.841419
1.25689
0.801784
2.35659
-0.688252
-1.19242
2.12886
-0.102668
-1.96813
2.11626
1.75395
-1.31239
0.0532902
4.3575
-0.297681
-1.03189
6.23328
0.35492
-0.308775
5.00154
2.16287
0.392218
0.507038
1.30065
0.412476
1.36842
0.549678
3.84932
1.16923
-1.33465
7.86009
-0.0442716
-1.70512
3.98277
-0.937258
-1.35121
3.12992
0.728513
3.20025
1.82371
0.449736
3.06602
1.52705
2.70232
0.845587
0.920221
-0.161085
-0.685466
-0.583623
0.520271
0.0389016
-0.555974
-0.097134
0.0500989
-0.36646
-0.106278
-0.0239408
-0.186505
-0.0853456
0.033162
-0.454264
-0.1249
0.112911
-0.62704
-0.146063
-0.0188816
-0.158378
-0.434911
-0.0695383
-0.0515237
-0.0816025
-0.752019
0.0322511
0.387154
-0.749692
0.0944309
0.508029
-0.557372
-0.0177675
0.0787288
-0.118344
-0.0793962
0.0833676
-0.023521
-0.426794
-0.115837
-0.0488845
0.0317221
0.389374
0.0683076
0.619679
-0.0283603
0.258814
-0.140572
-0.14182
0.0269371
-2.31257
0.331202
-0.00791699
-2.29095
0.357573
0.000461581
-2.26317
0.353516
-0.00113295
-2.30344
0.330423
-0.0532555
-2.38032
0.31354
-2.23873
0.299349
-0.0336776
-2.42085
0.0904293
-0.0105993
-2.39241
0.110624
0.0773658
-2.37275
0.116043
0.0671407
-2.40881
0.097834
-0.0275397
-2.44418
0.0791398
-2.38826
0.0984721
-0.0654331
0.00829723
-0.010336
0.0182989
0.0852826
0.0192104
0.0971955
0.0120854
0.0222162
-0.00113015
-0.00581817
0.0170628
-2.06915
0.556408
0.0153269
-2.10132
0.564307
0.0266654
-2.09786
0.563456
0.0224038
-2.08679
0.557555
-0.00105031
-2.08579
0.550394
-2.10112
0.534824
0.00787841
-2.16664
0.180043
0.00759703
-2.17479
0.184369
0.0114353
-2.17472
0.18907
0.0162306
-2.17331
0.17955
0.0129979
-2.17363
0.170207
-2.17441
0.184762
0.000916051
0.0494821
0.000609771
0.0549143
0.00197862
0.0560457
0.00341236
0.0502032
0.000642201
0.0431815
0.0411798
0.00527028
-2.38182
0.803804
0.0051915
-2.3915
0.802688
0.01498
-2.39007
0.800572
0.00686886
-2.38226
0.80422
-0.0290009
-2.39421
0.80705
-2.37999
0.773823
0.00199876
-2.52878
0.325004
0.00124608
-2.53095
0.324569
0.00601912
-2.53062
0.324845
0.00971533
-2.52987
0.32346
0.00193428
-2.5377
0.321477
-2.52134
0.328039
-0.00237463
0.0736913
-0.000413076
0.0744467
0.00411788
0.0742399
0.00386351
0.0735458
-0.002775
0.0728366
0.07263
0.00440374
-2.70014
0.950077
0.00414291
-2.70727
0.948692
0.00662977
-2.70716
0.949254
0.00113907
-2.6993
0.949836
-0.0177183
-2.70588
0.94889
-2.70087
0.929286
0.0054375
-2.79083
0.410248
0.00198401
-2.79473
0.415478
0.000128365
-2.79474
0.414281
0.00223659
-2.79298
0.415028
0.0015663
-2.79684
0.413095
-2.78927
0.418004
0.00136351
0.0778575
-0.000549217
0.0817206
-0.000306615
0.079357
-7.1644e-05
0.0796615
-0.00147247
0.079529
0.0830098
0.00377665
-3.16767
1.08156
0.0074513
-3.15575
1.07946
-6.58646e-05
-3.15295
1.10164
-0.000647663
-3.16282
1.0684
-0.00459303
-3.16674
1.07233
-3.14003
1.07417
0.00374276
-3.19862
0.437452
0.00326922
-3.18924
0.449439
0.000554151
-3.19226
0.456305
-0.00131443
-3.19489
0.448969
-0.00718284
-3.19904
0.451252
-3.17667
0.447464
0.00340182
0.0241911
-0.00154396
0.0441904
0.00227022
0.0296408
0.00403164
0.0322738
0.00289769
0.0325288
0.0530157
-0.0128029
-4.13468
0.701581
0.0231008
-4.22202
0.608239
0.00255808
-4.20008
0.718591
-0.018659
-4.17158
0.698518
-0.00934128
-4.17463
0.6527
-4.16901
0.672007
0.0222825
-3.74066
0.0211546
0.00973789
-3.79672
0.0366862
-0.0102092
-3.8065
0.0826636
-0.00992251
-3.78953
0.0666339
0.0196949
-3.77189
0.0188948
-3.76381
0.0619622
0.0445964
-0.255138
-0.016792
-0.121784
-0.00590889
-0.223877
0.0212662
-0.22944
0.0636391
-0.24091
-0.0928684
-0.0990325
-4.19046
2.72948
0.0126974
-4.79658
2.5443
0.015126
-4.69655
2.66663
-0.0691265
-4.39385
2.78456
-0.176625
-4.52866
2.7391
-4.64079
2.61998
-0.221194
-3.75516
-0.19296
0.102668
-4.46147
-0.622284
0.0314735
-4.21829
-0.324393
-0.192746
-3.95776
-0.145242
-0.376562
-4.00876
-0.317186
-4.42761
-0.527781
0.0102709
-0.964152
-0.0449076
-0.691916
-0.00335201
-1.01715
0.00302337
-0.978959
0.0772501
-1.03644
-0.567648
0.0922726
2.95389
4.92803
0.111146
2.2992
5.25347
0.147227
2.40875
5.22045
0.0638126
2.6135
5.41038
-0.161767
2.56681
5.51357
2.18461
5.3001
-0.145724
1.08943
1.81722
0.358307
-0.579785
1.75268
0.158342
0.426768
1.85756
-0.30045
0.835375
2.09167
-0.657644
0.50693
2.09988
-0.756414
1.75561
-0.177297
0.247968
0.182784
0.436883
0.00432992
0.130266
-0.421135
0.257563
-0.508472
0.20039
0.419653
1.01236
7.74067
2.67566
0.451143
7.94677
4.57015
0.282307
7.53916
4.40294
0.236555
7.60893
4.42823
0.02242
7.59352
4.74033
7.46536
4.42168
1.15465
7.27783
1.1254
0.546917
7.19184
3.11534
0.258128
6.97282
2.71268
0.369919
7.12917
2.45963
0.0395843
7.03871
2.98503
6.60334
2.6572
0.579918
0.721727
0.395633
1.8512
0.0722071
1.52799
0.117609
1.29973
-0.17247
1.54411
1.42521
0.979648
7.10602
-0.10902
0.300718
9.37563
1.7708
0.105427
8.97994
1.34864
0.21569
9.02851
1.11195
0.103296
8.9921
1.60069
8.87463
1.34889
0.536632
8.02303
-0.328237
0.129585
10.3123
2.58571
-0.0529842
9.86882
2.00637
0.238247
9.87526
1.32165
0.191852
9.89266
2.13086
9.76042
1.96326
0.109541
0.305855
-0.103042
1.8843
-0.181213
1.40714
0.058721
0.956794
0.131609
1.26016
1.3232
0.32836
-0.896286
1.96007
-0.0199385
1.88972
2.00637
-0.161191
1.2662
1.89099
0.0648406
0.621347
1.9364
0.127744
1.32605
1.94324
1.24453
1.87896
-0.53027
-1.64286
0.948606
-0.894694
3.23028
1.60957
-0.701703
1.77982
1.29976
-0.213906
0.334704
1.1205
0.115365
1.76887
1.35878
2.0092
1.31396
-1.78334
0.175859
-0.693887
0.95503
-0.24079
0.761404
-0.701692
0.490596
-0.201901
0.747057
0.829411
0.0706225
0.111422
-0.461082
0.279037
0.115129
-0.100451
-0.518151
0.574095
0.0641099
-0.424307
-0.561372
1.0367
-0.00715022
-0.555107
-0.605658
1.23203
-0.0375724
-0.517918
-0.629213
1.17755
-0.154896
-0.62528
0.742603
0.559665
0.31511
-0.313122
-0.450232
0.84067
0.224685
-0.579842
-0.0262977
0.619084
-0.00154209
-0.930634
0.729456
0.178492
0.0897645
-1.05383
0.849555
-0.0665136
0.140328
-0.602934
0.189692
0.283344
-0.0356243
-0.469131
0.442668
-0.0623757
-0.36619
0.850801
-0.187272
-0.406247
0.849246
-0.273122
-0.258566
0.448096
0.019172
-0.465942
0.0313716
0.306669
-0.732391
0.345261
-0.621802
0.0286365
-0.164651
-0.325068
0.0448595
-0.193072
-0.341301
0.0410477
-0.19049
-0.36707
0.00471076
-0.186309
-0.383012
-0.0348856
-0.201746
-0.387871
-0.288481
-0.371684
0.167162
0.263721
-0.908654
0.209761
0.225131
-1.04064
0.00327823
0.225818
-1.14046
-0.301309
0.272339
-1.20789
-0.287072
0.272776
-1.09169
0.198414
-0.809591
-0.00159971
-0.405587
-0.0515713
-0.482363
-0.134953
-0.509841
-0.118605
-0.363402
-0.034963
-0.228788
-0.187802
0.0104727
0.247512
-0.583053
0.023561
0.25196
-0.606349
0.012232
0.242713
-0.598455
-0.0038649
0.23868
-0.605595
-0.0101292
0.225556
-0.607162
0.209702
-0.591515
0.0829466
0.62196
-1.36605
0.0874118
0.609453
-1.4026
-0.00706353
0.60095
-1.40422
-0.107351
0.602312
-1.47124
-0.113997
0.61304
-1.47253
0.60904
-1.32293
-0.0158422
-0.53561
-0.0753705
-0.563751
-0.165852
-0.566247
-0.151084
-0.543508
-0.0606637
-0.515046
-0.452066
0.00560605
0.58124
-1.1699
0.0188507
0.530218
-1.14981
0.00720969
0.532474
-1.11929
0.00279107
0.545103
-1.14628
0.00582052
0.526111
-1.1363
0.533192
-1.11889
-0.0002199
0.892422
-1.67701
0.0277532
0.810143
-1.7105
-0.017426
0.814784
-1.64135
-0.0167658
0.824861
-1.75165
0.031977
0.799781
-1.79494
0.83157
-1.58933
-0.0525498
-0.633455
-0.0423602
-0.753605
-0.0607679
-0.728272
-0.0618002
-0.724859
-0.0148589
-0.765436
-0.671607
-0.0208866
0.578133
-1.72714
0.0151758
0.484807
-1.67068
0.0171246
0.487349
-1.60859
0.00378907
0.510231
-1.64317
-0.00361093
0.485208
-1.61411
0.491365
-1.61386
-0.0397702
0.702955
-1.76206
0.013344
0.619743
-1.89855
-0.0132571
0.603565
-1.73096
-0.0154749
0.589069
-1.82827
0.0534189
0.540972
-1.9196
0.639785
-1.68433
-0.152054
-0.610144
-0.0442548
-1.05838
-0.0136703
-0.939171
-0.0705935
-0.840897
-0.0299525
-0.986877
-0.92605
0.0169974
0.215927
-0.034853
0.387543
-0.0404783
0.288028
0.00901677
0.243728
0.0274636
0.310688
0.292557
-0.0898879
-0.507641
-0.0721587
0.0808323
-0.0710005
-0.144332
-0.0412324
-0.493814
0.05071
-0.342079
-0.0270961
-0.163776
-0.125923
-0.0733813
-0.122548
-0.0325247
-0.216204
-0.571169
0.0400577
-0.436831
-0.862167
0.122409
0.175238
-0.116105
0.106576
0.580358
-0.534159
0.229414
0.329758
-0.931776
0.236511
-0.64304
0.140974
0.032217
-0.701985
0.0986007
-0.115009
-0.845296
0.130357
0.0455196
-0.347832
0.0712002
0.0409852
-0.674056
0.144433
-0.0984902
-0.934639
0.14234
-0.845604
0.104075
0.00207437
0.0808584
-0.0863634
0.0701259
0.0643308
0.0668135
0.134504
0.0690814
0.0473574
0.063061
0.0646388
-0.0232663
-1.08124
0.132021
-0.0983803
-1.22021
0.0219309
0.024552
-1.12312
0.120117
0.0664699
-1.20502
0.164417
0.0201348
-1.30756
0.149336
-1.09896
0.112122
0.0932992
-1.06906
-0.00687451
0.0754072
-1.13627
0.0643084
0.00352434
-1.08266
0.102625
-0.0398275
-1.12694
0.1097
-0.102408
-1.19355
0.0909133
-1.12237
0.0250737
0.0165344
0.0711782
-0.0154158
0.0801415
0.0341845
0.0686014
0.0639537
0.0613604
0.0137608
0.056627
0.0500203
-0.177723
-0.957277
0.349437
-0.163768
-1.39748
0.0555844
0.0920496
-1.25148
0.0793303
0.16544
-1.28956
0.0695671
0.116035
-1.38373
0.0986881
-1.18238
0.316752
0.206864
-1.02252
-0.148496
0.0933449
-1.14424
-0.0754069
-0.00042265
-1.09166
0.0365716
-0.0515196
-1.17602
0.0472552
-0.091631
-1.23512
-0.0175864
-1.16614
-0.0827976
0.0326794
0.0772985
-0.0163727
0.108195
0.032091
0.0894514
0.0376239
0.0739534
-0.01751
0.0598169
0.0211263
0.0840586
-0.585003
0.734361
0.247601
-1.49
0.364105
0.12408
-1.55174
0.174792
-0.00474933
-1.49309
0.19549
-0.154044
-1.5753
0.461039
-0.80216
1.01373
0.406817
-0.942739
-0.197579
0.232866
-1.21161
-0.179844
-0.0376596
-1.24292
-0.00172539
-0.157457
-1.32783
0.00178651
-0.28251
-1.38962
-0.0782145
-1.17501
0.00754001
0.0949697
0.0685346
0.0123716
0.109719
-0.000633483
0.0919123
-0.0209864
0.0656816
-0.0835947
0.0252209
-0.0326595
0.747776
-0.0231194
0.907674
0.818877
-1.41628
0.719719
0.318463
-1.79334
0.448288
-0.144695
-1.61779
0.582532
-0.379946
-1.5634
1.17869
0.0547889
1.94294
0.632692
-0.80029
-0.0531007
0.400065
-1.29018
-0.0733218
-0.0846159
-1.40941
0.0990265
-0.381704
-1.45304
0.134131
-0.683168
-1.47252
0.132373
-0.983141
0.362303
0.158114
0.0650253
0.0317202
0.0985829
-0.068606
0.105947
-0.105383
0.0697265
-0.17674
0.00829261
-0.0183895
1.463
0.418974
0.796855
1.45661
-1.3854
0.886296
0.718705
-2.01709
0.725877
-0.17537
-1.77075
0.856351
-0.523738
-1.6368
1.77859
0.06877
2.61187
0.866168
-0.74272
0.242427
0.668091
-1.52392
0.263268
0.0958386
-1.70278
0.356975
-0.337102
-1.65051
0.446826
-0.742722
-1.63707
0.538271
-1.04311
0.731459
0.230652
0.102691
0.0734163
0.102334
-0.0931928
0.127906
-0.137305
0.118649
-0.214959
0.0387693
0.00247106
2.20066
0.575713
0.395382
2.33736
-1.28259
0.783933
1.24494
-2.50629
1.16094
-0.458092
-2.30954
1.20823
-0.808626
-1.58263
1.77893
-0.182404
2.30802
1.14203
-0.825909
0.502018
1.20056
-1.80898
0.731135
0.26413
-2.27799
1.0651
-0.612181
-1.92846
0.942053
-0.861375
-1.68394
0.888771
-1.01259
0.700272
0.319397
0.196544
0.210267
0.186239
-0.217021
0.386635
-0.335554
0.261294
-0.341106
0.124453
-0.0339428
1.98945
0.232421
0.343295
1.50554
-1.84277
1.29458
0.404767
-2.68982
2.06458
0.0146641
-2.67697
2.14073
-0.179304
-1.63931
1.86307
-0.313801
1.66084
1.36386
-1.24529
0.615872
1.42011
-2.51007
1.34218
-0.0893334
-2.17503
2.05975
-0.944389
-2.59972
1.71986
-1.04683
-1.86883
1.22073
-1.04748
0.387119
0.503689
0.308545
0.334639
0.434369
-0.386335
1.12898
-0.768242
0.737464
-0.599541
0.27667
-0.174393
-0.166427
-0.613627
1.52875
-0.903903
-1.10028
2.5149
-0.727623
-0.36853
2.63856
0.461559
1.01422
2.17161
0.71024
0.422604
1.99357
-0.319089
2.00192
0.288172
-1.43279
1.14686
0.190016
-1.70755
2.04761
-0.612694
0.129935
2.364
-0.179974
0.0484017
2.25296
0.0122611
-0.378004
1.8291
-0.675345
0.755635
0.363424
0.790649
0.248177
1.10486
-0.921568
1.63255
-1.15896
1.56726
-0.911141
0.872408
-0.285556
-1.37339
0.345554
2.45392
-2.80389
2.90595
2.7934
-1.81148
4.76919
1.23447
0.015127
6.08466
0.493605
0.915016
5.02086
1.07436
1.02842
2.28073
-1.58035
0.928357
2.14441
-2.43318
3.23247
2.57392
-1.5713
4.73401
1.53731
0.0333757
5.42142
1.31152
1.0508
4.3035
1.52904
1.23402
1.60085
-1.41717
1.52306
-1.70841
1.68847
-0.959415
1.32896
-0.676197
1.22506
-0.558076
0.961531
0.218312
-0.125791
1.41407
1.57813
0.291353
5.09298
1.1326
0.966398
9.20454
-0.785025
0.0311725
6.63145
-1.21986
-0.552999
5.41552
-0.627073
3.81422
1.11375
-0.798306
2.61079
1.74599
-0.828626
6.14005
1.55716
0.111485
9.5278
0.273938
0.097031
7.90079
0.0566407
0.169201
6.42658
0.44581
4.468
1.11627
-1.34333
1.24977
-1.38031
1.52184
-0.606561
1.08636
-0.194406
0.925641
0.0772006
0.817071
0.510672
0.928562
1.37834
1.92199
2.24031
1.44656
1.5727
0.382856
0.914785
-0.255947
0.60566
2.12068
0.667482
2.00661
1.46088
2.97777
1.28428
2.75269
0.764884
2.34038
-0.0769328
2.08298
2.69089
0.523956
1.16479
1.15089
0.693074
0.0197302
)
;

boundaryField
{
    seabed_topleft_surface
    {
        type            calculated;
        value           uniform 0;
    }
    seabed_topright_surface
    {
        type            calculated;
        value           uniform 0;
    }
    breakwater_top_surface
    {
        type            calculated;
        value           uniform 0;
    }
    breakwater_left_surface
    {
        type            calculated;
        value           uniform 0;
    }
    breakwater_right_surface
    {
        type            calculated;
        value           uniform 0;
    }
    water_front_surface
    {
        type            calculated;
        value           uniform 0;
    }
    water_back_surface
    {
        type            calculated;
        value           uniform 0;
    }
    water_left_surface
    {
        type            calculated;
        value           uniform 0;
    }
    water_right_surface
    {
        type            calculated;
        value           uniform 0;
    }
    water_top_surface
    {
        type            calculated;
        value           nonuniform List<scalar> 
180
(
0.473094
-1.16165
-1.25626
-0.759318
0.383091
0.484001
-2.47955
-2.43408
-2.41927
-2.46117
-2.50864
-2.50205
-2.20875
-2.21109
-2.21293
-2.21285
-2.21517
-2.22076
-2.55062
-2.55243
-2.55334
-2.55295
-2.56071
-2.55556
-2.79636
-2.80009
-2.80009
-2.79933
-2.80213
-2.80113
-3.14836
-3.14676
-3.14636
-3.14927
-3.15091
-3.14378
-3.50593
-3.56936
-3.56386
-3.55499
-3.54082
-3.55429
-3.05641
-3.83616
-3.46657
-3.21461
-3.28746
-3.87558
0.0546108
-2.06867
-0.5422
0.0243131
-0.642564
-2.25219
6.22416
5.96181
5.89852
6.04161
5.98507
5.42531
8.32936
10.4918
10.0678
9.97826
10.1037
9.99405
0.270474
3.07011
1.97246
1.26181
1.78218
2.30109
0.301008
0.410072
0.531702
0.937684
0.982774
0.591256
0.608533
0.570195
0.54592
0.638566
0.724591
0.696516
0.767826
0.750371
0.747841