/*--------------------------------*- C++ -*----------------------------------*\
| =========                 |                                                 |
| \\      /  F ield         | OpenFOAM: The Open Source CFD Toolbox           |
|  \\    /   O peration     | Version:  v1612+                                |
|   \\  /    A nd           | Web:      www.OpenFOAM.com                      |
|    \\/     M anipulation  |                                                 |
\*---------------------------------------------------------------------------*/
FoamFile
{
    version     2.0;
    format      ascii;
    class       volScalarField;
    location    "2.05";
    object      p_rgh;
}
// * * * * * * * * * * * * * * * * * * * * * * * * * * * * * * * * * * * * * //

dimensions      [1 -1 -2 0 0 0 0];

internalField   nonuniform List<scalar> 
1116
(
33549.4
33549.4
33549.4
33549.4
33549.4
33549.4
32083.5
32083.5
32083.5
32083.5
32083.4
32083.4
27772
27772
27772
27772
27772
27772
23773.7
23773.7
23773.7
23773.7
23773.7
23773.7
20712.7
20712.7
20712.7
20712.7
20712.7
20712.7
18285.6
18285.6
18285.6
18285.6
18285.6
18285.5
16008.8
16008.8
16008.7
16008.7
16008.7
16008.7
13775.8
13775.8
13775.7
13775.7
13775.7
13775.7
12614.8
12614.7
12614.6
12614.6
12614.6
12614.5
15274.3
15274.2
15274.1
15274.1
15274.1
15274.1
21743.5
21743.5
21743.5
21743.5
21743.5
21743.6
31873.3
31873.4
31873.3
31873.4
31873.5
31873.5
32842.9
32842.9
32842.9
32842.9
32842.9
32842.9
29910.2
29910.2
29910.2
29910.2
29910.2
29910.1
24944.9
24944.9
24944.9
24944.9
24944.9
24944.9
20196
20195.9
20195.9
20195.9
20195.9
20196
16143.3
16143.2
16143.2
16143.2
16143.2
16143.2
12896.9
12896.8
12896.8
12896.7
12896.7
12896.7
8816.17
8815.98
8815.96
8815.94
8815.89
8815.8
4805.46
4805.3
4805.27
4805.25
4805.22
4805.12
1520.33
1520.29
1520.27
1520.24
1520.23
1520.21
1871.67
1871.59
1871.6
1871.57
1871.57
1871.53
5024.38
5024.23
5024.16
5024.11
5024.09
5024.06
24806.9
24806.9
24806.8
24806.8
24806.6
24807
32127.3
32127.3
32127.3
32127.3
32127.3
32127.4
14072.3
14072.2
14072.2
14072.3
14072.4
14072.2
8010.23
8010.07
8010.1
8010.15
8010.15
8010.29
3672.61
3672.46
3672.49
3672.53
3672.53
3672.6
67.5274
67.4687
67.476
67.4879
67.4886
67.4923
-41.3713
-41.3712
-41.3706
-41.3701
-41.3699
-41.3698
-34.5276
-34.5242
-34.5216
-34.5197
-34.5189
-34.5179
-5.31311
-5.31097
-5.30883
-5.30729
-5.30657
-5.30493
40.6157
40.6137
40.6119
40.6095
40.6077
40.608
135.936
135.926
135.915
135.907
135.903
135.899
420.407
420.399
420.355
420.332
420.335
420.363
14555.1
14555.1
14555
14555.2
14555.4
14554.9
12554.5
12554.5
12554.6
12554.6
12554.6
12554.9
-7.08545
-7.08383
-7.07804
-7.07861
-7.07015
-7.0443
-36.2935
-36.2922
-36.2902
-36.2877
-36.2831
-36.2768
-9.87121
-9.87109
-9.87039
-9.86912
-9.86726
-9.86548
6.14414
6.14393
6.14422
6.14486
6.14557
6.14599
7.08657
7.08647
7.08659
7.08683
7.08699
7.08679
-0.756021
-0.755643
-0.754915
-0.75411
-0.753793
-0.75384
0.349929
0.350647
0.351469
0.352413
0.352915
0.354251
9.47901
9.47818
9.48024
9.47953
9.47898
9.47746
65.2147
65.2112
65.2124
65.2125
65.2135
65.2057
41.1697
41.1749
41.1686
41.1632
41.1763
41.179
7069.41
7068.68
7068.77
7069.35
7071.77
7064.85
-0.0609985
-0.0610083
-0.061011
-0.0610119
-0.061011
-0.0610099
-0.0637885
-0.0637915
-0.0637912
-0.0637896
-0.0637868
-0.063783
-0.069461
-0.069457
-0.0694539
-0.0694508
-0.0694474
-0.069444
-0.0782619
-0.0782518
-0.078247
-0.0782431
-0.0782404
-0.0782388
-0.0905673
-0.0905548
-0.0905495
-0.0905467
-0.0905458
-0.0905471
-0.106909
-0.106899
-0.106895
-0.106893
-0.106892
-0.106893
-0.128354
-0.128348
-0.128342
-0.128333
-0.128324
-0.128319
-0.156407
-0.1564
-0.15638
-0.156353
-0.156326
-0.156305
-0.190381
-0.190362
-0.190321
-0.190269
-0.19022
-0.190183
-0.231409
-0.231388
-0.231335
-0.231273
-0.231215
-0.231174
-0.269403
-0.269392
-0.269355
-0.269313
-0.269276
-0.269252
-0.315204
-0.315234
-0.315244
-0.315245
-0.315241
-0.315236
-0.0582307
-0.0582414
-0.058244
-0.0582435
-0.0582407
-0.0582361
-0.0610586
-0.0610621
-0.0610611
-0.0610582
-0.0610533
-0.0610463
-0.0668296
-0.0668256
-0.0668215
-0.0668168
-0.0668117
-0.0668064
-0.0758274
-0.0758159
-0.0758092
-0.0758041
-0.0758009
-0.0758001
-0.0883724
-0.0883557
-0.0883481
-0.0883443
-0.0883442
-0.088349
-0.104512
-0.104493
-0.104484
-0.10448
-0.104481
-0.104487
-0.122903
-0.122882
-0.122868
-0.122856
-0.122849
-0.122848
-0.142119
-0.142092
-0.142064
-0.142038
-0.142017
-0.142004
-0.163534
-0.163495
-0.163455
-0.16342
-0.163396
-0.163381
-0.190015
-0.189971
-0.189938
-0.189922
-0.189931
-0.189945
-0.221918
-0.221929
-0.221953
-0.22199
-0.222034
-0.22207
-0.276545
-0.276628
-0.276683
-0.276718
-0.276732
-0.276724
-0.0526844
-0.0526973
-0.0526996
-0.0526976
-0.0526927
-0.052686
-0.0554389
-0.0554423
-0.0554404
-0.0554354
-0.0554279
-0.0554178
-0.0610855
-0.0610811
-0.0610753
-0.0610686
-0.0610614
-0.061054
-0.0700386
-0.0700253
-0.070017
-0.0700109
-0.0700071
-0.0700061
-0.0829769
-0.0829573
-0.0829489
-0.0829456
-0.082947
-0.0829534
-0.101231
-0.101209
-0.101201
-0.101199
-0.101202
-0.101212
-0.127719
-0.127694
-0.127681
-0.127674
-0.127673
-0.12768
-0.169561
-0.169526
-0.169503
-0.169489
-0.169486
-0.169492
-0.226648
-0.226604
-0.226583
-0.226582
-0.226598
-0.226621
-0.304057
-0.30403
-0.304052
-0.304105
-0.304176
-0.304241
-0.388427
-0.388481
-0.388555
-0.388647
-0.388735
-0.388794
-0.518356
-0.518431
-0.518449
-0.518432
-0.518382
-0.518306
-0.0444899
-0.044501
-0.044502
-0.0444978
-0.0444904
-0.0444809
-0.0470155
-0.0470181
-0.047014
-0.0470064
-0.046996
-0.0469826
-0.0522192
-0.0522136
-0.052206
-0.0521973
-0.0521882
-0.0521787
-0.0605747
-0.06056
-0.0605509
-0.0605444
-0.0605406
-0.0605395
-0.072842
-0.0728214
-0.0728137
-0.0728122
-0.072816
-0.0728247
-0.0897742
-0.0897525
-0.0897476
-0.0897506
-0.08976
-0.0897749
-0.1105
-0.11048
-0.110477
-0.110484
-0.110498
-0.110518
-0.131898
-0.131886
-0.131894
-0.131914
-0.131942
-0.131974
-0.157872
-0.157885
-0.157926
-0.157983
-0.158046
-0.1581
-0.197375
-0.197436
-0.197526
-0.197631
-0.197729
-0.197799
-0.248633
-0.248722
-0.248817
-0.248917
-0.248999
-0.249047
-0.361805
-0.361778
-0.361682
-0.361546
-0.361389
-0.361239
12.8635
12.864
12.8602
12.8579
12.8506
12.8339
2.78596
2.78611
2.78526
2.78397
2.7821
2.77972
-4.24279
-4.24317
-4.24359
-4.24397
-4.24443
-4.24491
-11.4344
-11.4336
-11.433
-11.4328
-11.4329
-11.4329
8.59824
8.59874
8.59893
8.59896
8.59879
8.59859
-6.37891
-6.37905
-6.37922
-6.37948
-6.37986
-6.38013
-12.3205
-12.32
-12.3192
-12.318
-12.3161
-12.3144
-7.03204
-7.03221
-7.0319
-7.03214
-7.03213
-7.03032
-4.56075
-4.56077
-4.5608
-4.56084
-4.5609
-4.56092
-10.9619
-10.9614
-10.9609
-10.9603
-10.9593
-10.9589
-5.46739
-5.46735
-5.46716
-5.46683
-5.46651
-5.46639
-5.29914
-5.29919
-5.29921
-5.29923
-5.29925
-5.2992
-6.26796
-6.26791
-6.26787
-6.26777
-6.26758
-6.26767
-0.61906
-0.619111
-0.618957
-0.61878
-0.618656
-0.618559
-3.69056
-3.69056
-3.69055
-3.69053
-3.69051
-3.6905
-6.06566
-6.0658
-6.0658
-6.06569
-6.06561
-6.06568
-0.981516
-0.981657
-0.981662
-0.981631
-0.981595
-0.981566
-3.16596
-3.16597
-3.16595
-3.16591
-3.16584
-3.16575
0.268247
0.268144
0.268089
0.26821
0.268378
0.268394
1.32173
1.32154
1.32149
1.32156
1.32177
1.32194
-1.12247
-1.12236
-1.1223
-1.12226
-1.12224
-1.12225
10.8517
10.8518
10.8517
10.8516
10.8516
10.8512
6.21904
6.21891
6.21887
6.2189
6.21899
6.21911
1.48894
1.48907
1.48911
1.48908
1.48899
1.48875
23.8882
23.8873
23.8868
23.8856
23.8846
23.8835
13.2841
13.284
13.2837
13.2834
13.2822
13.2835
3.09898
3.0991
3.09909
3.09925
3.0992
3.09898
53.3248
53.3244
53.3244
53.323
53.3216
53.321
32.974
32.9746
32.9754
32.9731
32.9738
32.9714
8.38578
8.38617
8.38617
8.38631
8.3866
8.38525
27.8792
27.8816
27.8868
27.885
27.8954
27.8757
35.8977
35.8983
35.8983
35.898
35.9019
35.8934
-0.905517
-0.903671
-0.905318
-0.9016
-0.902334
-0.906289
-41.8632
-41.8726
-41.8715
-41.8819
-41.8576
-41.8926
4.15993
4.15974
4.15515
4.14395
4.13254
4.15395
-34.0841
-34.0839
-34.09
-34.0819
-34.0956
-34.0827
-1.08825
-1.08814
-1.08804
-1.08774
-1.08794
-1.08746
-2.71082
-2.71115
-2.71083
-2.71083
-2.71063
-2.70885
1.86351
1.86327
1.86425
1.86279
1.86555
1.86098
-2.40174
-2.40114
-2.40181
-2.40004
-2.4021
-2.39913
-5.75188
-5.75312
-5.75287
-5.75211
-5.75635
-5.74305
3.55601
3.55593
3.55781
3.55502
3.56539
3.54608
-0.762667
-0.761626
-0.762833
-0.759835
-0.762387
-0.758732
-11.2334
-11.2369
-11.2378
-11.2331
-11.2523
-11.2092
4.77277
4.77215
4.77494
4.77215
4.78873
4.76113
-9.56214
-9.55808
-9.56508
-9.55525
-9.57163
-9.54886
-13.3181
-13.3188
-13.3208
-13.3155
-13.3407
-13.2955
7.69359
7.69607
7.6932
7.69948
7.78354
7.60516
7.84637
7.84813
7.84491
7.85315
7.83947
7.86758
72.4558
72.4631
72.4322
72.4834
72.7534
72.1046
49.003
49.0167
48.9951
49.0274
49.2919
48.7174
333.56
333.563
333.507
333.584
334.225
332.662
284.543
284.565
284.509
284.612
285.176
283.834
-23.868
-23.8662
-23.8783
-23.8545
-23.8959
-23.8244
-0.0338544
-0.0338619
-0.0338604
-0.033854
-0.0338447
-0.0338334
-0.0212053
-0.0212077
-0.0212043
-0.0211977
-0.021189
-0.0211787
-0.00743606
-0.00743559
-0.00743343
-0.00743039
-0.0074264
-0.00742107
-0.035881
-0.0358817
-0.0358756
-0.0358663
-0.0358544
-0.0358396
-0.0225058
-0.0225037
-0.0224975
-0.0224892
-0.0224789
-0.0224663
-0.00789095
-0.00788914
-0.00788631
-0.00788279
-0.00787837
-0.0078726
-0.0400933
-0.0400871
-0.040079
-0.0400699
-0.0400605
-0.0400505
-0.0252121
-0.0252064
-0.0251998
-0.0251927
-0.0251851
-0.0251771
-0.0088169
-0.00881456
-0.00881189
-0.00880906
-0.00880602
-0.00880267
-0.0470293
-0.0470165
-0.0470089
-0.0470039
-0.0470012
-0.0470009
-0.0297011
-0.0296938
-0.0296889
-0.029686
-0.0296847
-0.0296854
-0.0102668
-0.0102645
-0.0102632
-0.0102623
-0.0102623
-0.0102634
-0.0576727
-0.0576574
-0.0576536
-0.0576554
-0.057662
-0.0576721
-0.0366385
-0.0366321
-0.0366316
-0.0366349
-0.0366414
-0.0366507
-0.0122097
-0.0122089
-0.0122096
-0.0122115
-0.0122147
-0.0122196
-0.0739306
-0.0739176
-0.0739189
-0.0739269
-0.0739404
-0.0739586
-0.0472236
-0.0472193
-0.0472228
-0.0472304
-0.0472421
-0.0472566
-0.0142783
-0.0142785
-0.0142806
-0.0142839
-0.0142888
-0.0142957
-0.0993771
-0.0993691
-0.0993751
-0.0993881
-0.0994072
-0.0994316
-0.0631193
-0.0631166
-0.0631221
-0.0631321
-0.0631471
-0.0631648
-0.0148679
-0.0148682
-0.0148706
-0.0148747
-0.0148813
-0.0148905
-0.143451
-0.143453
-0.143467
-0.143489
-0.143515
-0.143545
-0.088323
-0.0883242
-0.0883339
-0.0883487
-0.0883681
-0.0883909
-0.00977689
-0.00977874
-0.00978322
-0.00978997
-0.00979901
-0.00981075
-0.211588
-0.211609
-0.211638
-0.211669
-0.211699
-0.211726
-0.132076
-0.132088
-0.132105
-0.132126
-0.132146
-0.132167
0.0168015
0.0167958
0.0167881
0.0167777
0.0167681
0.0167548
-0.327853
-0.327894
-0.327924
-0.327947
-0.327951
-0.327947
-0.221765
-0.221791
-0.221804
-0.221823
-0.221818
-0.221823
0.0888563
0.0888469
0.088841
0.0888266
0.0888255
0.0888045
-0.502516
-0.502543
-0.50252
-0.502483
-0.502417
-0.502349
-0.468483
-0.468521
-0.468464
-0.468485
-0.468396
-0.468365
0.332462
0.332446
0.332488
0.332418
0.332506
0.332346
-0.897135
-0.897138
-0.897058
-0.896957
-0.896877
-0.89666
-1.06426
-1.06435
-1.06416
-1.0642
-1.06396
-1.06372
0.860407
0.860339
0.860608
0.860239
0.860775
0.859944
)
;

boundaryField
{
    seabed_topleft_surface
    {
        type            fixedFluxPressure;
        gradient        uniform 0;
        value           nonuniform List<scalar> 
72
(
33549.4
33549.4
33549.4
33549.4
33549.4
33549.4
32083.5
32083.5
32083.5
32083.5
32083.4
32083.4
27772
27772
27772
27772
27772
27772
23773.7
23773.7
23773.7
23773.7
23773.7
23773.7
20712.7
20712.7
20712.7
20712.7
20712.7
20712.7
18285.6
18285.6
18285.6
18285.6
18285.6
18285.5
16008.8
16008.8
16008.7
16008.7
16008.7
16008.7
13775.8
13775.8
13775.7
13775.7
13775.7
13775.7
12614.8
12614.7
12614.6
12614.6
12614.6
12614.5
15274.3
15274.2
15274.1
15274.1
15274.1
15274.1
21743.5
21743.5
21743.5
21743.5
21743.5
21743.6
31873.3
31873.4
31873.3
31873.4
31873.5
31873.5
)
;
    }
    seabed_topright_surface
    {
        type            fixedFluxPressure;
        gradient        uniform 0;
        value           nonuniform List<scalar> 
72
(
-0.0609985
-0.0610083
-0.061011
-0.0610119
-0.061011
-0.0610099
-0.0637885
-0.0637915
-0.0637912
-0.0637896
-0.0637868
-0.063783
-0.069461
-0.069457
-0.0694539
-0.0694508
-0.0694474
-0.069444
-0.0782619
-0.0782518
-0.078247
-0.0782431
-0.0782404
-0.0782388
-0.0905673
-0.0905548
-0.0905495
-0.0905467
-0.0905458
-0.0905471
-0.106909
-0.106899
-0.106895
-0.106893
-0.106892
-0.106893
-0.128354
-0.128348
-0.128342
-0.128333
-0.128324
-0.128319
-0.156407
-0.1564
-0.15638
-0.156353
-0.156326
-0.156305
-0.190381
-0.190362
-0.190321
-0.190269
-0.19022
-0.190183
-0.231409
-0.231388
-0.231335
-0.231273
-0.231215
-0.231174
-0.269403
-0.269392
-0.269355
-0.269313
-0.269276
-0.269252
-0.315204
-0.315234
-0.315244
-0.315245
-0.315241
-0.315236
)
;
    }
    breakwater_top_surface
    {
        type            fixedFluxPressure;
        gradient        uniform 0;
        value           nonuniform List<scalar> 
36
(
-1.08825
-1.08814
-1.08804
-1.08774
-1.08794
-1.08746
-2.40174
-2.40114
-2.40181
-2.40004
-2.4021
-2.39913
-0.762667
-0.761626
-0.762833
-0.759835
-0.762387
-0.758732
-9.56214
-9.55808
-9.56508
-9.55525
-9.57163
-9.54886
7.84637
7.84813
7.84491
7.85315
7.83947
7.86758
333.56
333.563
333.507
333.584
334.225
332.662
)
;
    }
    breakwater_left_surface
    {
        type            fixedFluxPressure;
        gradient        uniform 0;
        value           nonuniform List<scalar> 
24
(
31873.3
31873.4
31873.3
31873.4
31873.5
31873.5
24806.9
24806.9
24806.8
24806.8
24806.6
24807
14555.1
14555.1
14555
14555.2
14555.4
14554.9
7069.41
7068.68
7068.77
7069.35
7071.77
7064.85
)
;
    }
    breakwater_right_surface
    {
        type            fixedFluxPressure;
        gradient        uniform 0;
        value           nonuniform List<scalar> 
24
(
-0.315204
-0.315234
-0.315244
-0.315245
-0.315241
-0.315236
-0.276545
-0.276628
-0.276683
-0.276718
-0.276732
-0.276724
-0.518356
-0.518431
-0.518449
-0.518432
-0.518382
-0.518306
-0.361805
-0.361778
-0.361682
-0.361546
-0.361389
-0.361239
)
;
    }
    water_front_surface
    {
        type            fixedFluxPressure;
        gradient        uniform 0;
        value           nonuniform List<scalar> 
186
(
33549.4
32083.5
27772
23773.7
20712.7
18285.6
16008.8
13775.8
12614.8
15274.3
21743.5
31873.3
32842.9
29910.2
24944.9
20196
16143.3
12896.9
8816.17
4805.46
1520.33
1871.67
5024.38
24806.9
32127.3
14072.3
8010.23
3672.61
67.5274
-41.3713
-34.5276
-5.31311
40.6157
135.936
420.407
14555.1
12554.5
-7.08545
-36.2935
-9.87121
6.14414
7.08657
-0.756021
0.349929
9.47901
65.2147
41.1697
7069.41
-0.0609985
-0.0637885
-0.069461
-0.0782619
-0.0905673
-0.106909
-0.128354
-0.156407
-0.190381
-0.231409
-0.269403
-0.315204
-0.0582307
-0.0610586
-0.0668296
-0.0758274
-0.0883724
-0.104512
-0.122903
-0.142119
-0.163534
-0.190015
-0.221918
-0.276545
-0.0526844
-0.0554389
-0.0610855
-0.0700386
-0.0829769
-0.101231
-0.127719
-0.169561
-0.226648
-0.304057
-0.388427
-0.518356
-0.0444899
-0.0470155
-0.0522192
-0.0605747
-0.072842
-0.0897742
-0.1105
-0.131898
-0.157872
-0.197375
-0.248633
-0.361805
12.8635
2.78596
-4.24279
-11.4344
8.59824
-6.37891
-12.3205
-7.03204
-4.56075
-10.9619
-5.46739
-5.29914
-6.26796
-0.61906
-3.69056
-6.06566
-0.981516
-3.16596
0.268247
1.32173
-1.12247
10.8517
6.21904
1.48894
23.8882
13.2841
3.09898
53.3248
32.974
8.38578
27.8792
35.8977
-0.905517
-41.8632
4.15993
-34.0841
-1.08825
-2.71082
1.86351
-2.40174
-5.75188
3.55601
-0.762667
-11.2334
4.77277
-9.56214
-13.3181
7.69359
7.84637
72.4558
49.003
333.56
284.543
-23.868
-0.0338544
-0.0212053
-0.00743606
-0.035881
-0.0225058
-0.00789095
-0.0400933
-0.0252121
-0.0088169
-0.0470293
-0.0297011
-0.0102668
-0.0576727
-0.0366385
-0.0122097
-0.0739306
-0.0472236
-0.0142783
-0.0993771
-0.0631193
-0.0148679
-0.143451
-0.088323
-0.00977689
-0.211588
-0.132076
0.0168015
-0.327853
-0.221765
0.0888563
-0.502516
-0.468483
0.332462
-0.897135
-1.06426
0.860407
)
;
    }
    water_back_surface
    {
        type            fixedFluxPressure;
        gradient        uniform 0;
        value           nonuniform List<scalar> 
186
(
33549.4
32083.4
27772
23773.7
20712.7
18285.5
16008.7
13775.7
12614.5
15274.1
21743.6
31873.5
32842.9
29910.1
24944.9
20196
16143.2
12896.7
8815.8
4805.12
1520.21
1871.53
5024.06
24807
32127.4
14072.2
8010.29
3672.6
67.4923
-41.3698
-34.5179
-5.30493
40.608
135.899
420.363
14554.9
12554.9
-7.0443
-36.2768
-9.86548
6.14599
7.08679
-0.75384
0.354251
9.47746
65.2057
41.179
7064.85
-0.0610099
-0.063783
-0.069444
-0.0782388
-0.0905471
-0.106893
-0.128319
-0.156305
-0.190183
-0.231174
-0.269252
-0.315236
-0.0582361
-0.0610463
-0.0668064
-0.0758001
-0.088349
-0.104487
-0.122848
-0.142004
-0.163381
-0.189945
-0.22207
-0.276724
-0.052686
-0.0554178
-0.061054
-0.0700061
-0.0829534
-0.101212
-0.12768
-0.169492
-0.226621
-0.304241
-0.388794
-0.518306
-0.0444809
-0.0469826
-0.0521787
-0.0605395
-0.0728247
-0.0897749
-0.110518
-0.131974
-0.1581
-0.197799
-0.249047
-0.361239
12.8339
2.77972
-4.24491
-11.4329
8.59859
-6.38013
-12.3144
-7.03032
-4.56092
-10.9589
-5.46639
-5.2992
-6.26767
-0.618559
-3.6905
-6.06568
-0.981566
-3.16575
0.268394
1.32194
-1.12225
10.8512
6.21911
1.48875
23.8835
13.2835
3.09898
53.321
32.9714
8.38525
27.8757
35.8934
-0.906289
-41.8926
4.15395
-34.0827
-1.08746
-2.70885
1.86098
-2.39913
-5.74305
3.54608
-0.758732
-11.2092
4.76113
-9.54886
-13.2955
7.60516
7.86758
72.1046
48.7174
332.662
283.834
-23.8244
-0.0338334
-0.0211787
-0.00742107
-0.0358396
-0.0224663
-0.0078726
-0.0400505
-0.0251771
-0.00880267
-0.0470009
-0.0296854
-0.0102634
-0.0576721
-0.0366507
-0.0122196
-0.0739586
-0.0472566
-0.0142957
-0.0994316
-0.0631648
-0.0148905
-0.143545
-0.0883909
-0.00981075
-0.211726
-0.132167
0.0167548
-0.327947
-0.221823
0.0888045
-0.502349
-0.468365
0.332346
-0.89666
-1.06372
0.859944
)
;
    }
    water_left_surface
    {
        type            fixedFluxPressure;
        gradient        uniform 0;
        value           nonuniform List<scalar> 
42
(
33549.4
33549.4
33549.4
33549.4
33549.4
33549.4
32842.9
32842.9
32842.9
32842.9
32842.9
32842.9
32127.3
32127.3
32127.3
32127.3
32127.3
32127.4
12554.5
12554.5
12554.6
12554.6
12554.6
12554.9
12.8635
12.864
12.8602
12.8579
12.8506
12.8339
2.78596
2.78611
2.78526
2.78397
2.7821
2.77972
-4.24279
-4.24317
-4.24359
-4.24397
-4.24443
-4.24491
)
;
    }
    water_right_surface
    {
        type            fixedFluxPressure;
        gradient        uniform 0;
        value           nonuniform List<scalar> 
42
(
-0.0609985
-0.0610083
-0.061011
-0.0610119
-0.061011
-0.0610099
-0.0582307
-0.0582414
-0.058244
-0.0582435
-0.0582407
-0.0582361
-0.0526844
-0.0526973
-0.0526996
-0.0526976
-0.0526927
-0.052686
-0.0444899
-0.044501
-0.044502
-0.0444978
-0.0444904
-0.0444809
-0.0338544
-0.0338619
-0.0338604
-0.033854
-0.0338447
-0.0338334
-0.0212053
-0.0212077
-0.0212043
-0.0211977
-0.021189
-0.0211787
-0.00743606
-0.00743559
-0.00743343
-0.00743039
-0.0074264
-0.00742107
)
;
    }
    water_top_surface
    {
        type            totalPressure;
        rho             rho;
        psi             none;
        gamma           1;
        p0              uniform 0;
        value           nonuniform List<scalar> 
180
(
-7.49884
-7.50002
-7.50023
-7.49992
-7.49988
-7.4999
-9.63656
-9.63721
-9.63737
-9.63768
-9.63843
-9.63844
-1.13411
-1.13422
-1.13421
-1.13426
-1.13439
-1.13439
-3.93681
-3.93722
-3.93731
-3.93749
-3.93774
-3.93763
-2.38656
-2.38683
-2.38688
-2.38694
-2.38705
-2.38684
-2.51163
-2.51172
-2.51165
-2.51159
-2.51155
-2.51122
-2.39706
-2.39686
-2.39668
-2.3966
-2.3966
-2.39657
-1.45591
-1.45574
-1.45565
-1.45569
-1.45584
-1.45603
-1.45024
-1.45023
-1.45006
-1.44988
-1.44978
-1.44946
-0.825498
-0.825305
-0.824921
-0.824667
-0.824047
-0.824535
-6.29086
-6.28973
-6.28896
-6.28485
-6.29195
-6.27576
0
0
0
0
0
0
-0.0693367
-0.0693833
-0.0693539
-0.0693755
-0.0693977
-0.0692713
-0.268557
-0.268596
-0.268466
-0.268638
-0.268426
-0.268659
0
0
0
0
0
0
0
0
0
0
0
0
0
0
0
0
0
0
0
0
0
0
0
0
-0.000135145
-0.00013514
-0.000135139
-0.000135139
-0.000135139
-0.000135144
-0.000152828
-0.000152822
-0.000152821
-0.000152821
-0.000152821
-0.000152826
-0.000193244
-0.000193234
-0.000193233
-0.000193233
-0.000193233
-0.000193241
-0.000268839
-0.000268822
-0.000268819
-0.000268819
-0.000268821
-0.000268835
-0.000404485
-0.000404451
-0.000404447
-0.000404449
-0.000404457
-0.000404488
-0.000650005
-0.000649942
-0.00064994
-0.000649953
-0.000649982
-0.000650057
-0.00110325
-0.00110316
-0.00110319
-0.00110325
-0.00110334
-0.00110353
-0.00198568
-0.00198565
-0.00198579
-0.00198597
-0.00198621
-0.00198663
-0.0036287
-0.00362907
-0.00362946
-0.00362981
-0.00363014
-0.00363074
-0.00707745
-0.00707877
-0.0070792
-0.00707911
-0.00707858
-0.00707833
-0.0130587
-0.0130606
-0.013059
-0.0130566
-0.0130517
-0.0130495
-0.0248946
-0.0248912
-0.0248835
-0.0248804
-0.0248645
-0.0248666
)
;
    }
}


// ************************************************************************* //
