/*--------------------------------*- C++ -*----------------------------------*\
| =========                 |                                                 |
| \\      /  F ield         | OpenFOAM: The Open Source CFD Toolbox           |
|  \\    /   O peration     | Version:  v1612+                                |
|   \\  /    A nd           | Web:      www.OpenFOAM.com                      |
|    \\/     M anipulation  |                                                 |
\*---------------------------------------------------------------------------*/
FoamFile
{
    version     2.0;
    format      ascii;
    class       volScalarField;
    location    "6.1";
    object      p;
}
// * * * * * * * * * * * * * * * * * * * * * * * * * * * * * * * * * * * * * //

dimensions      [1 -1 -2 0 0 0 0];

internalField   nonuniform List<scalar> 
1116
(
22113.9
22114.3
22114.1
22114.1
22114.2
22114
19959.7
19959.9
19959.8
19959.8
19959.9
19959.8
16300.1
16300.2
16300.2
16300.2
16300.2
16300.2
13250.3
13250.3
13250.3
13250.3
13250.3
13250.3
10921.1
10921
10921
10921.1
10921.1
10921
9234.92
9234.87
9234.76
9234.97
9234.9
9234.92
8121.42
8121.53
8121.43
8121.39
8121.16
8121.64
7366.35
7366.64
7366.87
7366.36
7366.4
7366.6
7273.55
7273.43
7273.09
7274.08
7273.74
7272.31
7886.99
7889.42
7888.23
7887
7883.85
7890.25
8902.84
8900.68
8901.23
8903.46
8907.31
8898.03
8204.79
8199.63
8200.65
8204.57
8211.49
8196.15
15847.9
15848.7
15848.4
15848.4
15848.7
15848.1
10000.5
10001
10000.9
10000.9
10001
10000.6
5035.7
5035.83
5035.73
5035.74
5035.84
5035.65
3300.9
3301.14
3301.03
3300.97
3301.08
3300.88
2396.6
2396.9
2396.78
2396.66
2396.76
2396.68
1790.27
1789.74
1789.9
1790.15
1790.38
1789.85
1382.9
1383.08
1383.03
1382.61
1382.71
1382.9
1137.26
1137.59
1137.74
1137.01
1137.33
1137.5
1283.52
1284.81
1284.11
1283.5
1281.53
1286.17
1807.11
1811.33
1808.53
1808.83
1800.82
1815.96
2642.81
2642.45
2639.48
2647.38
2646.31
2639.94
1931.74
1936.2
1935.11
1932.83
1929.94
1937.79
5262.81
5262.33
5262.58
5262.62
5262.43
5262.63
1384.08
1383.58
1383.99
1384.07
1383.76
1383.99
99.035
99.0173
99.0135
99.0048
98.9987
99.0361
-47.9635
-47.941
-47.9545
-47.9506
-47.927
-48.0072
-46.9609
-47.0587
-47.0383
-46.9822
-46.9345
-47.0698
-52.7226
-53.0896
-52.9609
-52.8599
-52.7918
-52.9768
-53.6811
-53.9478
-53.9382
-53.9549
-53.8839
-54.0909
68.1245
68.0573
68.0158
68.1511
68.564
67.4591
272.375
272.502
272.382
272.381
272.678
272.028
476.855
478.301
477.58
477.626
475.658
478.948
709.201
709.861
708.268
710.649
707.673
708.942
638.621
636.213
637.951
637.061
639.665
635.781
-103.882
-104.481
-104.18
-104.095
-104.304
-104.057
-116.47
-116.554
-116.502
-116.476
-116.506
-116.472
-41.3026
-41.2707
-41.2793
-41.2847
-41.2788
-41.2817
-38.4201
-38.3535
-38.384
-38.3993
-38.4048
-38.3949
-38.2403
-38.2078
-38.2284
-38.2155
-38.2193
-38.2193
-64.8472
-65.124
-64.9922
-64.9365
-64.8654
-64.9771
-118.486
-118.587
-118.372
-118.443
-118.363
-118.427
-49.1361
-49.0576
-49.0777
-49.1454
-49.1765
-49.1151
89.2692
89.4744
89.3323
89.3241
89.0764
89.4099
126.061
126.478
126.023
126.585
126.819
125.191
186.525
185.469
186.143
186.135
187.274
185.503
-52.0683
-54.8339
-53.3203
-53.3414
-50.8361
-55.2926
3201.71
3351.56
3265.96
3459.25
3647.08
3380.79
2004.57
2067.57
2068.98
2184.15
2413.32
2189.54
987.298
1044.88
1041.55
1162.38
1236.86
1219.73
586.444
649.889
603.429
676.08
660.536
717.875
465.236
467.876
460.24
464.214
483.734
562.219
432.506
410.77
433.768
429.791
454.229
468.192
418.354
330.527
342.625
352.782
440.042
452.896
404.116
371.579
340.856
389.409
460.836
430.26
697.064
638.346
532.336
702.095
783.589
676.344
1453.98
1463.82
1291.99
1376.48
1419.2
1510.82
1515.26
1522.59
1627.63
1480.56
1494.8
1507.25
1438.79
1444.32
1474.44
1469.4
1457.19
1491.45
1483.45
1388.8
1378.38
1412.44
1518.6
1585.71
249.112
253.476
257.18
290.778
284.133
250.686
72.8751
62.6323
73.3282
57.5462
44.7773
62.9887
-27.6399
-34.8633
-30.106
-32.0932
-29.6205
-11.7891
-42.0618
-41.7308
-42.2508
-41.6487
-40.2939
-40.843
-22.4039
-22.89
-23.4811
-23.6237
-25.6081
-26.7713
-8.28204
-8.82238
-8.64922
-10.212
-12.4043
-10.2254
-1.7015
-5.39421
-3.80742
-5.1373
-2.01761
-3.03469
14.8454
14.0465
11.4123
13.798
36.1857
22.3892
155.015
148.377
87.6782
141.992
176.753
130.264
334.327
386.784
340.722
457.128
332.338
531.703
753.943
745.265
707.322
708.746
488.371
765.209
305.396
245.589
249.331
243.378
271.197
361.826
21.8115
25.1251
25.1782
13.4685
0.792016
-3.31394
-1.89267
1.70718
2.10689
1.07323
-0.877916
-2.10865
-9.16286
-8.94582
-8.05716
-8.34795
-7.78945
-8.55271
-15.0269
-14.8238
-15.116
-13.5341
-12.5069
-12.2311
-19.1441
-18.8007
-19.3457
-18.0428
-17.8628
-16.4228
-16.8984
-16.472
-16.2037
-16.416
-19.6661
-16.5198
-22.3978
-20.0043
-20.0359
-22.8784
-25.0938
-22.3173
-31.4775
-30.1959
-29.11
-30.7714
-29.5232
-30.1394
-30.9136
-28.352
-27.1619
-24.6229
-19.2413
-20.7997
49.4948
50.2365
30.1183
66.1425
13.6643
101.011
320.999
285.041
232.347
202.212
194.799
213.907
52.4155
37.9483
37.5735
57.5971
51.9838
65.9805
-19.0437
-16.7475
-15.1071
-17.6368
-22.5926
-23.3887
-11.9067
-12.4514
-12.354
-14.3838
-18.1259
-18.4497
-31.3897
-32.1138
-31.2475
-31.7986
-31.8235
-31.7002
-33.1386
-33.126
-33.3192
-33.311
-33.3094
-33.5722
-34.5282
-34.6267
-34.9154
-34.3726
-34.4411
-34.7178
-29.5322
-29.2338
-29.8151
-30.3425
-29.9494
-29.2575
-31.8353
-31.1687
-31.6655
-32.966
-33.2136
-32.8867
-35.4255
-34.673
-35.6736
-37.1358
-37.7851
-39.0863
-41.0617
-40.9952
-43.1061
-40.6603
-39.0387
-39.2555
-21.9752
-25.3293
-27.9855
-25.6608
-26.7749
-29.6703
-179.569
-173.163
-97.0476
-219.577
-79.4768
-213.057
530.247
528.522
527.69
528.184
528.854
529.137
-27.1005
-27.0374
-27.0964
-27.131
-27.0914
-27.1168
-55.8145
-55.8476
-55.8403
-55.8459
-55.8551
-55.845
-67.0151
-66.9993
-66.9859
-67.0018
-66.9913
-67.0046
-32.5514
-32.4667
-32.5544
-32.5731
-32.5024
-32.5393
-69.4838
-69.5504
-69.5517
-69.5553
-69.564
-69.5377
-39.556
-39.5055
-39.472
-39.4818
-39.5043
-39.499
-44.1712
-44.1837
-44.18
-44.1746
-44.186
-44.1707
-62.2259
-62.199
-62.2016
-62.2003
-62.2008
-62.2079
-49.3907
-49.307
-49.3451
-49.3573
-49.3812
-49.338
-51.6854
-51.6317
-51.6604
-51.6656
-51.686
-51.6507
-64.6741
-64.649
-64.6592
-64.6622
-64.6702
-64.6572
-45.5731
-45.4956
-45.5579
-45.5336
-45.575
-45.5274
-44.9723
-44.7599
-44.8833
-44.9101
-44.9618
-44.8641
-61.0449
-60.9681
-60.9977
-61.0098
-61.0309
-60.9915
-56.0892
-56.3429
-56.2827
-56.2103
-56.1776
-56.2672
-39.2676
-39.216
-39.3965
-39.3208
-39.295
-39.3736
-57.49
-56.9854
-57.121
-57.224
-57.3178
-57.1424
-67.2177
-67.8313
-67.5872
-67.4932
-67.368
-67.6464
-39.2856
-39.4078
-39.3558
-39.3089
-39.2339
-39.4138
-49.8589
-49.7104
-49.7674
-49.7064
-49.6473
-49.8486
-62.8793
-63.3208
-63.2013
-63.0603
-63.1157
-63.1363
-55.0098
-55.8029
-55.3835
-55.3322
-55.2593
-55.4244
-66.6529
-67.0723
-66.7546
-66.7343
-66.6584
-66.9117
-58.1448
-57.9177
-57.9672
-57.9583
-58.5732
-57.1573
-98.1567
-98.4467
-98.3965
-98.3183
-98.3281
-98.2471
-95.8934
-96.0664
-96.0687
-96.1594
-96.1008
-95.8992
-56.1665
-55.7872
-55.9056
-55.97
-56.248
-55.6365
-89.8346
-89.692
-89.7938
-89.7869
-89.8434
-89.6679
-94.9567
-94.8986
-95.044
-95.0891
-95.153
-94.847
-31.1505
-31.2254
-31.1719
-31.1702
-31.0251
-31.3119
-62.9094
-62.8349
-62.8669
-62.8683
-62.8794
-62.8662
-81.0466
-80.9744
-80.998
-81.0479
-81.084
-80.9553
30.061
28.7841
29.3249
29.6798
30.6863
28.4198
-57.4108
-57.3802
-57.3921
-57.4044
-57.4296
-57.3772
-77.5893
-77.5805
-77.5865
-77.5936
-77.6031
-77.5725
371.976
372.191
374.871
382.701
392.155
380.617
-48.4731
-48.4305
-48.4556
-48.7191
-48.7305
-48.8302
-72.16
-72.143
-72.1293
-72.0915
-71.9286
-72.0291
427.474
427.929
427.925
426.116
426.222
426.647
-50.5272
-50.5727
-50.6744
-50.8056
-50.9391
-50.9218
-69.344
-69.3496
-69.3455
-69.2956
-69.261
-69.2886
432.639
433.054
433.265
431.284
431.09
432.151
-51.2581
-51.2547
-51.2716
-51.2539
-51.2756
-51.2923
-68.1929
-68.1939
-68.1826
-68.1367
-68.1083
-68.1188
440.78
440.908
440.913
440.772
440.895
441.073
-52.4526
-52.463
-52.4837
-52.5057
-52.525
-52.5367
-67.9502
-67.9455
-67.9346
-67.9338
-67.9333
-67.9334
429.546
429.667
429.728
429.411
429.487
429.863
-53.1443
-53.146
-53.1545
-53.1692
-53.1792
-53.1793
-69.5475
-69.549
-69.5454
-69.5436
-69.5408
-69.539
343.57
344.066
344.519
343.171
343.042
344.518
-53.6997
-53.6933
-53.6963
-53.7006
-53.7061
-53.7017
-74.0917
-74.1098
-74.106
-74.1014
-74.0958
-74.1064
12.0614
13.7602
-8.29043
-22.6119
-29.5275
-4.59765
-115.679
-110.19
-99.3166
-85.1391
-88.4705
-110.231
-184.543
-177.932
-167.322
-151.974
-147.942
-180.339
-33.442
-39.2708
-40.4356
-40.8857
-43.5225
-33.1776
-57.3732
-60.8668
-63.1435
-64.0928
-66.0217
-54.9936
-83.8521
-82.6302
-82.3651
-82.9467
-85.9849
-85.5208
-29.1441
-30.9088
-33.2181
-35.2253
-35.4875
-33.7812
-48.5294
-50.679
-53.0245
-54.5194
-54.0816
-51.3948
-69.5448
-70.0675
-69.5509
-67.3913
-67.4802
-65.9006
-38.6116
-39.4202
-39.4332
-40.0536
-40.1034
-38.9493
-56.5808
-56.959
-57.077
-57.346
-57.5055
-56.8485
-71.3848
-71.5377
-71.2777
-71.6533
-71.6969
-71.5632
-37.4036
-37.5178
-37.6685
-37.7925
-37.812
-37.7104
-52.2654
-52.3742
-52.4924
-52.4932
-52.5168
-52.418
-64.5895
-64.6257
-64.6334
-64.5673
-64.614
-64.5661
-39.7343
-39.642
-39.7725
-39.8313
-39.8128
-39.5808
-53.308
-53.2967
-53.372
-53.3907
-53.4558
-53.3713
-64.2941
-64.2983
-64.3072
-64.3326
-64.3375
-64.315
-37.722
-37.5247
-37.6359
-37.8891
-37.9873
-37.6686
-51.6594
-51.6184
-51.7001
-51.7743
-51.8121
-51.7126
-62.9698
-62.9669
-62.972
-62.995
-63.0016
-62.9797
-38.2843
-38.1824
-37.8929
-38.4847
-38.9837
-38.7745
-52.4754
-52.44
-52.5046
-52.7218
-52.8644
-52.7818
-63.0029
-63.0173
-62.9849
-63.0434
-63.0647
-63.0519
-41.7378
-41.6213
-41.2031
-41.8464
-41.9456
-41.925
-53.1288
-53.1612
-53.2996
-53.4834
-53.6795
-53.8081
-63.307
-63.3099
-63.2731
-63.3006
-63.3005
-63.2829
-40.1492
-39.9584
-39.3309
-39.1853
-39.1677
-39.0827
-53.4124
-53.5073
-53.7535
-53.7568
-54.0242
-54.0324
-63.6351
-63.6417
-63.5465
-63.5519
-63.5391
-63.4896
-41.0363
-41.1324
-39.0848
-41.9019
-42.7536
-43.594
-52.6458
-52.724
-52.7291
-53.3133
-54.1744
-53.7506
-65.6272
-65.6339
-65.5989
-65.5579
-65.5673
-65.6083
-33.6608
-32.1474
-23.4167
-20.3798
21.6634
-23.4241
-47.2874
-47.2796
-47.2432
-46.8487
-48.1798
-47.5547
-70.3675
-70.5142
-70.7049
-70.9188
-71.6896
-71.0198
)
;

boundaryField
{
    seabed_topleft_surface
    {
        type            calculated;
        value           nonuniform List<scalar> 
72
(
24557.3
24557.7
24557.5
24557.5
24557.6
24557.4
24145
24145.2
24145.1
24145.1
24145.2
24145
21096.7
21096.7
21096.7
21096.7
21096.7
21096.7
18046.8
18046.8
18046.8
18046.8
18046.8
18046.8
15712.2
15712.1
15712.1
15712.2
15712.2
15712.1
13983.5
13983.5
13983.4
13983.6
13983.6
13983.5
12798.6
12798.9
12798.8
12798.7
12798.5
12798.9
11983.8
11984.4
11984.6
11983.9
11984.1
11984.2
11862.6
11862.9
11862.5
11863.2
11863
11861.6
12469.9
12472.6
12471.4
12470
12466.9
12473.3
13478.1
13476.1
13476.6
13478.7
13482.9
13473.1
12756.1
12750.7
12751.6
12756
12763.2
12747.2
)
;
    }
    seabed_topright_surface
    {
        type            calculated;
        value           nonuniform List<scalar> 
72
(
3631.69
3799.2
3722.25
3915.98
4103.81
3768.72
2423.2
2467.19
2494.21
2623.6
2870.05
2646.24
1184.27
1255.51
1196.57
1449.74
1693.56
1500.72
722.574
988.138
702.161
971.041
1107.78
945.22
887.345
885.938
879.098
884.079
922.864
999.67
857.473
819.539
860.756
860.639
908.255
932.146
843.772
650.276
660.951
705.019
889.014
915.476
832.614
755.846
680.395
780.48
912.593
892.138
1131.29
1079.58
979.1
1155.4
1239.02
1136.82
1890.75
1904.15
1738.03
1827.07
1872.58
1946.11
1953.17
1964.13
2073.16
1928.57
1944.02
1703.12
1632.28
1658.07
1700.79
1681.51
1904.78
1686.69
)
;
    }
    breakwater_top_surface
    {
        type            calculated;
        value           nonuniform List<scalar> 
36
(
816.31
816.336
821.54
841.25
855.545
834.46
907.801
908.733
908.779
904.98
904.738
906.334
914.927
915.863
916.211
911.885
911.354
913.748
932.125
932.376
932.417
932.066
932.3
932.752
919.465
919.722
919.829
919.212
919.361
920.146
779.858
781.209
782.077
779.115
778.674
782.168
)
;
    }
    breakwater_left_surface
    {
        type            calculated;
        value           nonuniform List<scalar> 
24
(
8220.38
8215.21
8216.23
8220.16
8227.08
8211.73
1936.09
1940.53
1939.44
1937.18
1934.32
1942.11
639.05
636.641
638.379
637.489
640.094
636.21
-51.5102
-54.2756
-52.7618
-52.7829
-50.2775
-54.7341
)
;
    }
    breakwater_right_surface
    {
        type            calculated;
        value           nonuniform List<scalar> 
24
(
1439.45
1445.05
1475.21
1470.12
1458.72
1492.12
754.592
745.95
708.947
709.827
488.862
766.55
322.568
286.623
233.94
203.793
195.082
215.279
-178.549
-172.197
-96.2508
-218.767
-78.4235
-211.995
)
;
    }
    water_front_surface
    {
        type            calculated;
        value           nonuniform List<scalar> 
186
(
22113.9
19959.7
16300.1
13250.3
10921.1
9234.92
8121.42
7366.35
7273.55
7886.99
8902.84
8204.79
15847.9
10000.5
5035.7
3300.9
2396.6
1790.27
1382.9
1137.26
1283.52
1807.11
2642.81
1931.74
5262.81
1384.08
99.035
-47.9635
-46.9609
-52.7226
-53.6811
68.1245
272.375
476.855
709.201
638.621
-103.882
-116.47
-41.3026
-38.4201
-38.2403
-64.8472
-118.486
-49.1361
89.2692
126.061
186.525
-52.0683
3201.71
2004.57
987.298
586.444
465.236
432.506
418.354
404.116
697.064
1453.98
1515.26
1438.79
1483.45
249.112
72.8751
-27.6399
-42.0618
-22.4039
-8.28204
-1.7015
14.8454
155.015
334.327
753.943
305.396
21.8115
-1.89267
-9.16286
-15.0269
-19.1441
-16.8984
-22.3978
-31.4775
-30.9136
49.4948
320.999
52.4155
-19.0437
-11.9067
-31.3897
-33.1386
-34.5282
-29.5322
-31.8353
-35.4255
-41.0617
-21.9752
-179.569
530.247
-27.1005
-55.8145
-67.0151
-32.5514
-69.4838
-39.556
-44.1712
-62.2259
-49.3907
-51.6854
-64.6741
-45.5731
-44.9723
-61.0449
-56.0892
-39.2676
-57.49
-67.2177
-39.2856
-49.8589
-62.8793
-55.0098
-66.6529
-58.1448
-98.1567
-95.8934
-56.1665
-89.8346
-94.9567
-31.1505
-62.9094
-81.0466
30.061
-57.4108
-77.5893
371.976
-48.4731
-72.16
427.474
-50.5272
-69.344
432.639
-51.2581
-68.1929
440.78
-52.4526
-67.9502
429.546
-53.1443
-69.5475
343.57
-53.6997
-74.0917
12.0614
-115.679
-184.543
-33.442
-57.3732
-83.8521
-29.1441
-48.5294
-69.5448
-38.6116
-56.5808
-71.3848
-37.4036
-52.2654
-64.5895
-39.7343
-53.308
-64.2941
-37.722
-51.6594
-62.9698
-38.2843
-52.4754
-63.0029
-41.7378
-53.1288
-63.307
-40.1492
-53.4124
-63.6351
-41.0363
-52.6458
-65.6272
-33.6608
-47.2874
-70.3675
)
;
    }
    water_back_surface
    {
        type            calculated;
        value           nonuniform List<scalar> 
186
(
22114
19959.8
16300.2
13250.3
10921
9234.92
8121.64
7366.6
7272.31
7890.25
8898.03
8196.15
15848.1
10000.6
5035.65
3300.88
2396.68
1789.85
1382.9
1137.5
1286.17
1815.96
2639.94
1937.79
5262.63
1383.99
99.0361
-48.0072
-47.0698
-52.9768
-54.0909
67.4591
272.028
478.948
708.942
635.781
-104.057
-116.472
-41.2817
-38.3949
-38.2193
-64.9771
-118.427
-49.1151
89.4099
125.191
185.503
-55.2926
3380.79
2189.54
1219.73
717.875
562.219
468.192
452.896
430.26
676.344
1510.82
1507.25
1491.45
1585.71
250.686
62.9887
-11.7891
-40.843
-26.7713
-10.2254
-3.03469
22.3892
130.264
531.703
765.209
361.826
-3.31394
-2.10865
-8.55271
-12.2311
-16.4228
-16.5198
-22.3173
-30.1394
-20.7997
101.011
213.907
65.9805
-23.3887
-18.4497
-31.7002
-33.5722
-34.7178
-29.2575
-32.8867
-39.0863
-39.2555
-29.6703
-213.057
529.137
-27.1168
-55.845
-67.0046
-32.5393
-69.5377
-39.499
-44.1707
-62.2079
-49.338
-51.6507
-64.6572
-45.5274
-44.8641
-60.9915
-56.2672
-39.3736
-57.1424
-67.6464
-39.4138
-49.8486
-63.1363
-55.4244
-66.9117
-57.1573
-98.2471
-95.8992
-55.6365
-89.6679
-94.847
-31.3119
-62.8662
-80.9553
28.4198
-57.3772
-77.5725
380.617
-48.8302
-72.0291
426.647
-50.9218
-69.2886
432.151
-51.2923
-68.1188
441.073
-52.5367
-67.9334
429.863
-53.1793
-69.539
344.518
-53.7017
-74.1064
-4.59765
-110.231
-180.339
-33.1776
-54.9936
-85.5208
-33.7812
-51.3948
-65.9006
-38.9493
-56.8485
-71.5632
-37.7104
-52.418
-64.5661
-39.5808
-53.3713
-64.315
-37.6686
-51.7126
-62.9797
-38.7745
-52.7818
-63.0519
-41.925
-53.8081
-63.2829
-39.0827
-54.0324
-63.4896
-43.594
-53.7506
-65.6083
-23.4241
-47.5547
-71.0198
)
;
    }
    water_left_surface
    {
        type            calculated;
        value           nonuniform List<scalar> 
42
(
22122.2
22122.6
22122.5
22122.5
22122.6
22122.3
15859.3
15860.1
15859.8
15859.8
15860.1
15859.4
5272.59
5272.12
5272.37
5272.4
5272.22
5272.42
-96.8416
-97.4447
-97.1421
-97.0562
-97.2658
-97.018
530.247
528.522
527.69
528.184
528.854
529.137
-27.1005
-27.0374
-27.0964
-27.131
-27.0914
-27.1168
-55.8145
-55.8476
-55.8403
-55.8459
-55.8551
-55.845
)
;
    }
    water_right_surface
    {
        type            calculated;
        value           nonuniform List<scalar> 
42
(
3203.18
3353.09
3267.52
3460.81
3648.64
3382.12
1484.88
1390.22
1379.64
1413.9
1520.01
1587.1
306.703
246.528
250.171
244.603
272.302
363.023
53.0343
38.1502
38.0117
58.1263
52.3386
66.4606
12.0614
13.7602
-8.29043
-22.6119
-29.5275
-4.59765
-115.679
-110.19
-99.3166
-85.1391
-88.4705
-110.231
-184.543
-177.932
-167.322
-151.974
-147.942
-180.339
)
;
    }
    water_top_surface
    {
        type            calculated;
        value           nonuniform List<scalar> 
180
(
-69.3338
-69.3396
-69.3374
-69.3373
-69.3377
-69.3358
-69.3226
-69.3292
-69.3267
-69.3266
-69.3272
-69.325
-70.8981
-70.9113
-70.9044
-70.9054
-70.9108
-70.9025
-72.7696
-72.7608
-72.766
-72.767
-72.7717
-72.7627
-69.3455
-69.3233
-69.3339
-69.3382
-69.3461
-69.3289
-68.67
-68.67
-68.67
-68.67
-68.67
-68.67
-69.4931
-69.7832
-69.6579
-69.5808
-69.5321
-69.6927
-85.1595
-87.2571
-86.5275
-85.631
-85.1373
-86.9479
-85.4613
-86.5742
-86.8159
-85.9488
-85.4613
-86.548
-77.6823
-78.7916
-78.6014
-77.8898
-77.9172
-78.5535
-90.5869
-90.5419
-90.5459
-90.5966
-90.7148
-90.4463
-77.2574
-77.2637
-77.2575
-77.2659
-77.284
-77.2404
-70.046
-70.0201
-70.0244
-70.2022
-70.2304
-70.1738
-70.99
-71.0023
-71.0059
-71.0422
-71.0503
-71.055
-70.611
-70.6113
-70.6066
-70.5903
-70.6007
-70.573
-71.2898
-71.2932
-71.2912
-71.2925
-71.3013
-71.2708
-72.7021
-72.7044
-72.7011
-72.7076
-72.7178
-72.6825
-73.7066
-73.7068
-73.7056
-73.7077
-73.7175
-73.6931
-1338.8
-1399.1
-1208.1
-370.08
-281.775
-1609.37
-68.9786
-68.7798
-68.7704
-68.7518
-68.723
-68.958
-69.7877
-69.238
-70.7544
-70.0582
-70.636
-68.7307
-78.7591
-78.6656
-78.2178
-79.0336
-79.0128
-77.6342
-71.2666
-71.2811
-71.2618
-71.1315
-71.1722
-71.1856
-70.2517
-70.2468
-70.2613
-70.2515
-70.2582
-70.2446
-69.138
-69.1388
-69.1537
-69.1723
-69.185
-69.1659
-69.1749
-69.1839
-69.203
-69.2405
-69.2716
-69.2523
-69.2345
-69.2519
-69.2698
-69.295
-69.3276
-69.3175
-70.3964
-70.4823
-70.5321
-70.5883
-70.6387
-70.6092
-71.7998
-71.8922
-71.8803
-72.0725
-72.1358
-71.9755
-69.348
-69.3746
-69.3715
-69.5239
-69.915
-69.5243
)
;
    }
}


// ************************************************************************* //
