/*--------------------------------*- C++ -*----------------------------------*\
| =========                 |                                                 |
| \\      /  F ield         | OpenFOAM: The Open Source CFD Toolbox           |
|  \\    /   O peration     | Version:  v1612+                                |
|   \\  /    A nd           | Web:      www.OpenFOAM.com                      |
|    \\/     M anipulation  |                                                 |
\*---------------------------------------------------------------------------*/
FoamFile
{
    version     2.0;
    format      ascii;
    class       surfaceScalarField;
    location    "6.1";
    object      phi;
}
// * * * * * * * * * * * * * * * * * * * * * * * * * * * * * * * * * * * * * //

dimensions      [0 3 -1 0 0 0 0];

internalField   nonuniform List<scalar> 
2916
(
-0.000134708
-0.757939
0.758074
2.53851e-05
-0.758108
0.757948
3.94059e-05
-0.758024
0.75801
3.75053e-07
-0.757991
0.75803
7.26157e-05
-0.758037
0.757964
-0.757981
0.758054
-8.94263e-05
-1.09859
0.340745
1.92132e-05
-1.09877
0.340551
2.06809e-05
-1.09867
0.340642
-2.66101e-06
-1.09864
0.340669
3.79874e-05
-1.09869
0.340612
-1.09864
0.340699
-2.95446e-05
-1.26648
0.167912
9.84029e-06
-1.26665
0.167838
7.83722e-06
-1.26654
0.167871
-2.56108e-06
-1.26652
0.167896
5.51782e-06
-1.26657
0.16787
-1.26653
0.167894
-8.94629e-06
-1.31908
0.0526074
7.2113e-06
-1.31925
0.0525864
6.17476e-06
-1.31913
0.0525979
3.08026e-06
-1.31916
0.0526382
-6.41338e-06
-1.31919
0.0526302
-1.31912
0.0525822
1.76634e-05
-1.28196
-0.0371344
1.12504e-05
-1.28214
-0.037099
2.2114e-05
-1.28202
-0.0371206
9.83801e-06
-1.28208
-0.0370613
-4.09625e-05
-1.2821
-0.0370395
-1.282
-0.0371654
-5.16061e-05
-1.19687
-0.0850337
4.64282e-05
-1.19728
-0.0849605
0.000138655
-1.1971
-0.0850202
2.7913e-05
-1.19707
-0.0849024
-0.000148737
-1.19707
-0.084853
-1.19705
-0.0850933
-8.34659e-05
-1.08788
-0.108908
5.39144e-05
-1.08855
-0.108863
0.000203346
-1.08832
-0.108924
1.2119e-05
-1.08815
-0.108732
-0.00013034
-1.08832
-0.108606
-1.08812
-0.109063
0.000137089
-0.963948
-0.12407
-3.52379e-06
-0.96442
-0.123993
2.20591e-05
-0.96432
-0.124026
-9.15686e-05
-0.964141
-0.123893
0.000267938
-0.96488
-0.1238
-0.963709
-0.124141
0.000437171
-0.785538
-0.178847
2.59106e-05
-0.784947
-0.179062
-0.000216929
-0.785141
-0.178937
-6.46727e-05
-0.785529
-0.178764
0.00041753
-0.787193
-0.178169
-0.783709
-0.179583
0.000823719
-0.565776
-0.220586
5.36462e-05
-0.56192
-0.222258
-0.000840791
-0.562651
-0.221595
0.000199156
-0.565675
-0.220894
0.00121051
-0.5694
-0.218804
-0.558681
-0.223817
0.00096754
-0.208358
-0.358386
-7.21884e-05
-0.204001
-0.356879
-0.00145488
-0.204726
-0.356543
-0.00015148
-0.208123
-0.358855
0.00191434
-0.211793
-0.359673
-0.201461
-0.355305
-0.000436
-0.207922
0.000166137
-0.204603
0.000597084
-0.205156
9.15124e-05
-0.207617
-0.00111445
-0.210587
-0.202575
8.26411e-05
-1.21992
1.97792
3.4859e-05
-1.22025
1.97825
-2.09891e-05
-1.22008
1.97814
-1.21611e-05
-1.2201
1.97812
-2.07761e-05
-1.22017
1.97815
-1.22
1.97804
4.53373e-05
-1.48416
0.604938
-9.98793e-07
-1.48437
0.604709
-4.29952e-06
-1.48425
0.604821
1.36095e-05
-1.48428
0.604835
-3.25121e-05
-1.48432
0.604806
-1.4842
0.604866
-1.64837e-05
-1.43187
0.115641
-8.00432e-06
-1.43212
0.115585
2.17082e-05
-1.43201
0.115602
1.50282e-05
-1.43201
0.115638
4.45628e-06
-1.43207
0.115626
-1.43193
0.115622
-0.000312521
-1.04004
-0.338911
-1.43433e-05
-1.04041
-0.339425
0.00010879
-1.04027
-0.339266
4.14946e-05
-1.04021
-0.339094
0.000180084
-1.04031
-0.339265
-1.04012
-0.339041
-0.0004436
-0.51504
-0.561694
-5.84727e-06
-0.515705
-0.562239
0.000164257
-0.515476
-0.562086
6.58166e-05
-0.515331
-0.561847
0.000269432
-0.515573
-0.56198
-0.515187
-0.561832
-1.37034e-05
0.0319809
-0.632041
-9.48272e-05
0.0311096
-0.631694
-0.000264504
0.0313773
-0.631704
1.03124e-05
0.0315907
-0.632099
0.000711489
0.031054
-0.632182
0.0319445
-0.631514
0.000415637
0.516994
-0.594338
-0.000194143
0.516395
-0.593539
-0.000692727
0.516486
-0.593535
-0.00012341
0.516674
-0.594386
0.000933686
0.515932
-0.594541
0.51732
-0.593506
0.00085072
0.836779
-0.444707
-0.000366563
0.837478
-0.44386
-0.00129807
0.837334
-0.443943
-0.000208359
0.836639
-0.444948
0.00247609
0.835758
-0.446311
0.83795
-0.442295
-0.000611754
0.686693
-0.0281501
8.86121e-05
0.68736
-0.0296444
0.000410385
0.68846
-0.0303853
0.000788975
0.685539
-0.0280437
-0.000368284
0.686969
-0.028224
0.68818
-0.0301825
-0.00851944
0.33531
0.139316
0.00185315
0.319542
0.135188
0.00962091
0.323492
0.135605
0.000725644
0.333671
0.139869
-0.0231337
0.349402
0.142623
0.307732
0.133496
-0.00732741
-0.0483654
0.0326168
0.0019022
-0.0750624
0.028495
0.00825582
-0.0701489
0.0307438
0.00216818
-0.049907
0.0308103
-0.0154311
-0.0302009
0.0375288
-0.0889734
0.0259688
0.00224457
-0.258532
-0.000657589
-0.276763
-0.00483072
-0.271132
0.000681575
-0.263036
0.0100278
-0.250134
-0.281521
0.000513261
-1.1416
3.119
3.25559e-05
-1.14201
3.12074
-7.9647e-05
-1.1418
3.12006
-5.35282e-06
-1.14183
3.11987
-0.000191571
-1.14193
3.12026
-1.1417
3.11954
-0.000240344
-0.320938
-0.215481
-2.66965e-05
-0.32147
-0.216046
2.77748e-05
-0.321193
-0.215845
3.77126e-06
-0.321181
-0.215787
0.000195305
-0.321425
-0.215893
-0.320989
-0.215645
-0.00120585
1.57731
-1.7814
8.47967e-05
1.57437
-1.78155
0.000458646
1.57552
-1.78148
7.0046e-05
1.57658
-1.78173
0.000454534
1.57583
-1.78201
1.57647
-1.78138
-0.0061743
3.31303
-2.06846
0.00127228
3.30145
-2.07395
0.00436002
3.3053
-2.07214
0.000628744
3.31115
-2.06994
2.10548e-05
3.30895
-2.07177
3.3073
-2.06985
-0.00668862
5.5343
-2.77628
0.0010271
5.51765
-2.78615
0.00513321
5.52161
-2.78251
0.000945667
5.53274
-2.77926
0.00113411
5.53005
-2.78328
5.52383
-2.77724
0.0217421
7.55228
-2.67177
-0.00392623
7.5505
-2.63886
-0.0137264
7.54793
-2.64821
-0.00350536
7.55695
-2.66653
0.0155259
7.55315
-2.67432
7.55203
-2.64418
0.0304954
7.1523
-0.224848
-0.00470277
7.18505
-0.192898
-0.0173475
7.16992
-0.202885
-0.00547328
7.16566
-0.21497
0.0198798
7.15365
-0.220389
7.18166
-0.203253
0.0289833
3.43557
3.24304
-0.00383587
3.52324
3.25078
-0.0362202
3.50756
3.25079
-0.00874769
3.44897
3.24428
0.0742312
3.3862
3.23816
3.55757
3.25603
0.0061404
-0.387284
3.78856
-0.00043869
-0.297694
3.79786
-0.0325634
-0.306159
3.81546
-0.00137472
-0.386985
3.77672
0.104394
-0.479311
3.73151
-0.236083
3.86786
-0.0773496
-0.6662
0.495582
0.0158526
-0.742534
0.486827
0.0756168
-0.725125
0.494807
0.0136845
-0.675872
0.49069
-0.166638
-0.637834
0.48147
-0.777272
0.508048
-0.0298542
-0.116187
-0.487541
0.0103695
-0.244998
-0.509264
0.0368429
-0.220532
-0.500322
0.0169795
-0.129501
-0.495698
-0.0647187
-0.039268
-0.479338
-0.303357
-0.512664
0.0533102
-0.428028
-0.00963381
-0.458817
-0.0507711
-0.450527
-0.00834842
-0.43496
0.115671
-0.413422
-0.469207
-0.000708156
-0.4284
3.54811
-0.000186851
-0.426716
3.54694
9.94477e-05
-0.427469
3.54724
7.13877e-05
-0.427717
3.54761
0.000218644
-0.427196
3.54731
-0.427828
3.54759
-0.00812772
-0.864156
0.228402
-0.00236099
-0.862061
0.213535
0.000691269
-0.86303
0.216666
0.00101685
-0.86341
0.219583
0.00373598
-0.862864
0.217057
-0.862299
0.222562
-0.00835159
-0.87269
-1.76452
0.00128809
-0.886713
-1.76655
0.00400471
-0.881586
-1.76565
0.000437562
-0.875536
-1.76605
-1.37555e-05
-0.877441
-1.76699
-0.878571
-1.76512
-0.0208649
-0.997108
-1.92318
0.00443541
-1.05916
-1.9268
0.0159184
-1.03965
-1.92555
0.00298386
-1.00811
-1.92443
-0.0102085
-1.00806
-1.92797
-1.03718
-1.92145
-0.0237698
-1.54638
-2.20324
0.00279001
-1.66747
-2.20441
0.0136635
-1.62953
-2.2035
0.00300366
-1.57273
-2.20398
-0.0159252
-1.56062
-2.21179
-1.6355
-2.19485
0.0400154
-1.67766
-2.58051
-0.0075562
-1.7639
-2.49487
-0.0293192
-1.73253
-2.52346
-0.00675601
-1.70342
-2.5584
0.0239384
-1.69211
-2.57352
-1.73895
-2.51679
0.0697892
-2.20922
0.236929
-0.00658817
-2.22367
0.34325
-0.0372715
-2.20601
0.30128
-0.00815523
-2.22256
0.27505
0.0431267
-2.22746
0.263671
-2.19811
0.299028
0.0007709
-3.6437
4.67675
0.00260942
-3.65395
4.67921
-0.00374222
-3.63437
4.68551
0.00528906
-3.66086
4.67355
0.0169216
-3.66964
4.6687
-3.61894
4.69379
-0.0188566
-3.73196
3.89568
0.00327457
-3.75392
3.87571
0.00547653
-3.73346
3.91235
0.00628036
-3.75302
3.86808
0.000337941
-3.76363
3.83144
-3.7164
3.96566
-0.00656571
-2.90445
-0.325369
-0.000132679
-2.91378
-0.359741
0.00262405
-2.90754
-0.333864
-0.000720104
-2.91271
-0.346275
0.00110063
-2.91676
-0.367219
-2.90229
-0.304958
0.00805363
-1.29225
-2.10779
-0.00119278
-1.29604
-2.11776
-0.00455684
-1.29384
-2.11066
-0.00184788
-1.29579
-2.11533
0.010899
-1.29843
-2.11042
-1.29249
-2.11156
0.0136385
-1.73392
-0.000638585
-1.74058
-0.00582322
-1.73919
-0.00122943
-1.73535
0.0164098
-1.72949
-1.74529
-0.183693
-1.18654
1.37024
-0.104976
-1.63423
1.55551
-0.539667
-1.34322
1.77791
-0.13082
-1.67471
1.26586
1.12934
-2.39445
1.13429
-0.659697
1.78904
-0.0678362
-2.30985
1.19114
0.0609708
-3.07544
1.31241
0.00350492
-2.47686
1.19111
-0.0638213
-3.0015
1.39412
0.254508
-3.70445
0.991667
-1.80137
1.39618
-0.193254
-3.26247
1.14588
-0.104493
-4.21431
1.0501
-0.490963
-3.40051
1.31012
-0.342518
-3.92475
0.774807
-0.0776055
-4.37729
0.407936
-2.90215
1.02317
-0.0467548
-4.04442
0.828704
0.179201
-4.65002
0.209756
-0.00211109
-4.40937
1.19017
0.0421928
-4.26211
0.293058
-0.0514998
-4.44768
0.164075
-3.51722
0.563569
0.104099
-3.95575
-0.192768
0.124106
-4.38233
-0.287696
0.197723
-4.22767
-0.255317
0.211704
-4.09882
-0.177278
-0.0257092
-4.17213
-0.0381369
-3.60714
0.0642102
0.131019
-3.67411
-0.41266
0.0183877
-3.95807
-0.311628
0.177882
-3.79368
-0.593478
0.245493
-3.74078
-0.425646
0.0010193
-3.86443
-0.0632216
-3.56969
-0.0364321
0.0345127
-3.43987
-0.268759
-0.032079
-3.66921
-0.222271
0.0759301
-3.51843
-0.383258
0.148296
-3.47032
-0.342828
0.0482627
-3.48732
-0.277081
-3.40294
-0.118484
-0.0748804
-3.11481
-0.250173
0.00433823
-3.32764
-0.420791
0.0529039
-3.27694
-0.290063
0.177209
-3.18047
-0.414155
0.102051
-3.06296
-0.349195
-3.09849
-0.202398
-0.0581673
-2.52353
-0.533113
0.121167
-2.78497
-0.722004
0.173165
-2.87334
-0.45559
0.291086
-2.60877
-0.689625
0.0353193
-2.35789
-0.44931
-2.57771
-0.485465
-0.111478
-1.06435
-1.34771
0.213755
-1.29247
-1.81773
0.488323
-1.62618
-1.52173
0.593893
-1.30093
-1.41341
-0.147122
-0.929361
-0.687511
-1.09329
-1.63154
-0.0998276
0.307574
-1.27209
-0.0195146
0.219957
-1.59274
0.765384
-0.0912632
-2.31981
0.763255
0.100555
-1.39936
-0.0393925
0.360903
-0.487618
0.297775
-1.43046
-0.180688
0.488263
-0.142483
0.181753
0.479744
-0.713489
0.47783
0.10247
0.0355437
0.80319
0.333319
0.0469805
-1.98602
3.30928
0.00869391
-2.17677
3.77057
-0.0986215
-1.92352
3.80874
0.0974204
-2.08876
3.15858
0.830794
-2.9076
3.30851
-0.998098
3.61793
-0.115158
-3.59384
2.91412
-0.101474
-4.1368
3.25875
-0.0663696
-3.87667
3.10917
-0.0581817
-4.06838
3.36555
0.0186947
-4.88249
2.88969
-2.7193
3.13608
-0.0222228
-3.51677
1.09103
-0.336913
-3.5499
0.777903
-0.0815088
-3.95522
1.13326
-0.22025
-3.65344
0.498611
-0.774305
-3.59379
-0.326712
-3.42525
0.954814
-0.00516985
-1.73128
-0.951624
-0.478202
-1.46557
-1.40155
-0.304042
-2.55579
-0.383425
-0.516907
-1.68215
-1.46536
-0.792763
-1.76184
-1.39202
-2.53274
-1.1217
-0.326617
0.130744
-1.72817
-0.840105
0.384478
-1.62426
-1.41516
-0.67722
-1.55883
-0.833441
-1.00052
-1.44063
0.330043
-1.58536
-1.37811
-0.906106
-1.23238
0.0280116
0.354614
-0.664542
-0.141968
0.221268
0.021559
-1.17237
0.473685
-0.713986
-0.402134
-1.52021
-0.676192
0.493201
-1.99437
-0.54954
-0.604773
0.155433
0.469789
-1.17599
0.792055
0.418845
-1.16524
1.21518
0.00472941
-0.347491
0.852032
-0.309072
-1.63397
0.0847264
-0.10047
-2.098
-0.38206
-2.24957
1.42585
0.230803
-3.08271
1.42574
-0.504952
-2.41086
1.56058
-0.900957
-2.23568
1.99412
-0.728311
-2.65547
0.434703
0.593294
-3.18107
-0.587737
-3.57687
1.71819
-0.0834537
-3.189
-0.343375
-0.468478
-3.08545
0.337615
-1.0932
-3.11439
1.04784
-0.717373
-3.15488
-0.566042
0.60818
-3.36273
-1.59319
-3.12191
-0.332246
0.0478259
-2.02948
-2.55505
-0.144022
-2.10584
-2.60549
-0.817031
-2.25288
-1.71023
-0.558881
-2.21983
-2.6066
0.0861998
-2.27641
-2.41891
-2.09484
-2.57241
0.112968
-0.845192
-2.56935
0.151069
-1.01963
-2.71705
-0.0112883
-1.18705
-3.22329
-0.157229
-1.00303
-2.47021
-0.625301
-0.455196
-1.84076
-0.944619
-3.20598
0.307721
-0.664652
0.496846
-1.02701
0.594301
-1.99799
0.609638
-0.9159
-0.681234
1.63887
-1.29253
-0.228437
-0.67378
4.2115
-0.0460885
-1.08535
4.67357
0.212242
-0.872342
4.42275
0.327472
-1.21643
4.25978
0.505836
-1.53092
4.66107
-0.152145
4.27591
-0.34212
-1.42641
4.00887
-0.02546
-1.63466
3.49141
0.787755
-1.76903
3.19264
1.02141
-1.59216
3.50763
0.463498
-1.90748
3.82415
-1.42377
4.8712
0.15074
-0.71851
0.232392
0.269916
-0.548076
-0.427863
0.457968
-0.744408
-0.0794077
0.383271
-0.562971
-0.455884
-0.192114
-0.700914
-0.957893
-1.16492
0.503851
0.057591
-0.254669
-1.47306
0.0357739
-0.315643
-1.61217
0.46734
-0.233168
-1.32623
0.458739
-0.345284
-1.67445
0.346005
-0.357051
-1.62315
-0.45186
-1.48876
-0.0524871
-0.447151
-1.48321
-0.0604566
-0.489648
-1.44228
-0.0537016
-0.293916
-1.50484
-0.0918621
-0.435659
-1.31209
-0.106221
-0.456578
-1.26422
-0.454053
-1.33641
-0.245215
-0.358585
-0.507896
-0.0480808
-0.425812
-0.239411
-0.272268
-0.180546
-0.603168
-0.44734
-0.360509
-0.576271
-0.524445
-0.309662
-0.61935
-0.584329
-0.238735
0.124043
-0.484119
0.793545
0.226568
-0.668129
1.35497
0.254883
-0.31717
0.960338
-0.0594864
0.109741
-0.071156
-0.728869
0.268113
-0.290454
-1.30827
1.42092
-0.0341693
-0.261951
1.23774
-0.233372
-0.49824
1.58989
0.295062
-0.787832
1.93635
0.26689
0.250029
0.322586
-0.0698507
0.480381
-0.463264
-1.12915
1.46922
-0.421279
-0.207115
0.0230682
-0.709661
-0.53458
0.662337
-0.287151
-1.09322
0.930718
0.087392
-0.474333
-0.216223
0.528358
-0.607278
-0.9465
-0.654025
-0.279008
-0.107378
-1.08026
-1.57453
-0.383406
-1.27807
-1.58597
-0.919526
-1.10332
-1.16401
-0.718341
-1.31906
-1.96305
0.265119
-1.41317
-2.59648
-1.33651
-1.6248
0.223055
-1.02013
-2.85253
0.163987
-1.08206
-2.85399
-0.840404
-0.823735
-2.49848
-0.416481
-0.912118
-3.30108
0.165846
-0.809233
-3.02702
-0.920145
-3.4565
0.192322
-1.87711
0.134585
-2.05133
-0.373468
-2.31368
-0.380256
-1.82123
0.158445
0.290932
-2.05423
-0.357129
0.0125348
4.55609
-0.0550528
-0.501928
4.87342
0.217118
-0.470544
4.62112
0.297994
-0.803561
4.98246
0.309818
-1.13283
5.78208
0.263468
4.32226
-0.504683
-0.746555
5.27264
0.0158714
-1.61301
4.08193
0.933479
-1.65567
3.46016
1.36423
-1.49244
3.76575
0.785805
-1.3781
4.64785
-0.326719
6.2472
0.577962
-0.662139
-0.429985
0.24781
-0.830611
-0.880108
0.0585107
-0.823156
-0.722623
-0.233811
-0.903467
-0.752533
-0.773895
-0.956442
-0.839472
-0.545829
-0.0509337
0.112346
-0.73177
-1.51577
-0.080859
-0.771113
-1.47846
-0.0614735
-0.77735
-1.39143
-0.0964365
-0.811641
-1.73131
-0.155014
-0.751042
-1.76997
-0.795008
-1.39459
-0.0109158
-1.06163
-1.14243
0.0196519
-1.07243
-1.17153
-0.0724528
-1.03003
-1.16005
-0.0968651
-0.99199
-1.10733
0.000539653
-0.939585
-1.17308
-0.986368
-1.14451
0.0154692
-0.943772
-0.641218
0.199726
-0.942781
-0.553315
0.128878
-0.91866
-0.643689
0.0119362
-0.806224
-0.645093
-0.146034
-0.764605
-0.636359
-0.847436
-0.5237
0.0155484
-0.211952
0.0461783
0.45425
-0.291838
0.26533
0.670753
-0.284289
0.109465
0.127303
-0.138954
-0.194973
-0.623916
-0.0889273
-0.214912
-0.262686
0.212253
0.0697162
0.629394
0.326683
0.376012
0.482061
0.509695
0.980206
0.436287
0.61158
0.622077
0.554348
-0.0125868
-0.320612
0.574836
-0.184338
0.482476
0.403443
-0.117076
0.805288
-0.0357516
0.34758
0.650893
0.0288531
1.04741
0.516849
0.150327
1.02783
0.494522
-0.136817
0.5925
0.328013
-0.26434
0.971943
-0.175972
-0.0177247
0.171535
-0.923054
0.045557
0.139304
-1.13766
-0.0645521
0.497902
-1.03495
-0.0982797
-0.15792
-1.27688
0.00211991
-0.746025
-1.62284
0.253203
-0.90394
0.00925446
-0.254084
-2.43616
-0.00327013
-0.224304
-2.47785
-0.280173
0.308085
-2.03176
-0.206236
-0.428646
-3.10429
0.396949
-1.05692
-3.31931
-0.434528
-2.37182
-0.0810645
-2.05013
-0.327547
-2.02915
-0.451672
-1.88147
-0.603347
-2.0982
0.394482
-1.76382
-2.09428
0.0013815
3.38112
0.165603
3.40839e-05
3.38407
0.164211
-0.000542617
3.38119
0.166629
-0.000134718
3.38093
0.16628
-0.000398716
3.383
0.164581
3.38146
0.165732
-0.00119008
4.48398
-1.10166
0.000888766
4.48777
-1.10577
0.000636174
4.48589
-1.10445
-0.000720221
4.48543
-1.10314
3.2722e-05
4.48681
-1.10457
4.48472
-1.10323
0.00135886
-0.47994
7.04466e-05
-0.476975
3.82444e-05
-0.478139
-1.27192e-05
-0.477909
-0.000758272
-0.477196
-0.478602
-0.00155221
1.04052
-0.644968
-0.000277549
1.02289
-0.646427
0.000230815
1.02737
-0.644584
7.84524e-05
1.0308
-0.644786
0.00125607
1.02714
-0.646682
1.03295
-0.643395
-0.00186872
0.656192
-0.715461
-1.11939e-05
0.633959
-0.718694
-0.00231315
0.64333
-0.718105
-0.00264673
0.6444
-0.7164
7.46039e-05
0.63664
-0.716784
0.646508
-0.716712
-0.00417889
0.0219293
-0.00156272
0.0251308
-0.00233184
0.0235834
-0.00188806
0.0238004
0.00116833
0.0248658
0.0231771
-0.00469606
-1.0532
-1.35158
0.00160138
-1.05558
-1.36368
0.00419597
-1.0538
-1.35902
0.00113508
-1.05456
-1.35321
-0.00359159
-1.05593
-1.35301
-1.05401
-1.35809
-0.000150271
-1.259
-0.50952
-0.000145496
-1.26374
-0.510543
-0.000722784
-1.26149
-0.509841
-2.92546e-05
-1.26178
-0.509876
-0.000686749
-1.26359
-0.508466
-1.26095
-0.510459
-0.000877692
-0.0904292
4.74414e-05
-0.0905897
-7.36825e-05
-0.090494
-8.61638e-05
-0.0903827
0.000235262
-0.0901471
-0.0906199
-0.0232521
-1.75787
-1.49363
0.00443264
-1.75536
-1.5628
0.0161166
-1.75662
-1.53964
0.00372147
-1.75757
-1.50768
-0.0175883
-1.76072
-1.49894
-1.75387
-1.54326
-0.00552934
-1.62998
-0.631888
0.00152252
-1.6279
-0.645053
0.00280989
-1.62919
-0.638566
0.00115981
-1.62932
-0.636467
-0.0049154
-1.6309
-0.632211
-1.62807
-0.641173
-0.00155886
-0.175267
0.000414237
-0.178603
0.000652578
-0.177143
0.000363015
-0.176473
-0.00107269
-0.175792
-0.177626
-0.0388577
-1.45821
-2.1998
0.00523775
-1.44872
-2.36259
0.0211516
-1.45289
-2.30616
0.00596309
-1.45585
-2.24062
-0.0277676
-1.46481
-2.21219
-1.44423
-2.32164
-0.0429109
-0.712412
-1.33478
0.00690043
-0.702343
-1.44124
0.023299
-0.707417
-1.40044
0.00535721
-0.7093
-1.36507
-0.0282289
-0.715028
-1.34841
-0.703036
-1.4106
-0.00562794
-0.253618
0.00109272
-0.269622
0.00219633
-0.262769
0.000846423
-0.259494
-0.00404038
-0.257322
-0.264113
-0.000551543
-1.36891
-3.41085
-0.00206954
-1.27356
-3.58238
-0.00573986
-1.30999
-3.51596
0.000863903
-1.33957
-3.46606
0.00837536
-1.35643
-3.43679
-1.30002
-3.53002
-0.0688948
0.10782
-2.74262
0.00472018
0.186483
-2.97489
0.0290596
0.153357
-2.88813
0.00680397
0.134463
-2.81685
-0.0258362
0.118005
-2.7902
0.165125
-2.90158
-0.0505105
-0.740782
0.00592387
-0.842474
0.0211738
-0.804383
0.0036668
-0.773274
-0.0255774
-0.763303
-0.81092
0.0588937
1.07856
-4.31137
-0.00436167
1.20663
-4.3825
-0.0278202
1.15188
-4.3431
-0.00373859
1.13176
-4.34685
0.0339369
1.13331
-4.3441
1.141
-4.33805
0.0243112
2.27693
-3.9653
-0.00771693
2.4037
-4.13994
-0.0304255
2.35197
-4.06552
-0.00463127
2.32807
-4.03895
0.0412784
2.33326
-4.03607
2.34252
-4.06183
-0.0412783
-1.36285
-0.00233832
-1.52683
0.00422119
-1.46501
-0.00083459
-1.42133
0.0063453
-1.41705
-1.46664
-0.00238895
4.80398
-4.43623
0.00277032
4.75575
-4.46419
0.0165854
4.77168
-4.44309
0.00330871
4.79803
-4.45805
-0.0290922
4.83104
-4.47404
4.75179
-4.42515
0.0650474
4.33775
-3.56411
-0.00748055
4.29532
-3.60698
-0.0213715
4.30224
-3.58219
-0.00726855
4.34518
-3.60021
0.0133507
4.39688
-3.62252
4.26839
-3.56507
0.078218
-1.28052
-0.0170329
-1.37143
-0.0520359
-1.33585
-0.0128809
-1.32617
0.0663766
-1.34022
-1.32276
-0.0319904
3.53509
-4.04365
0.00124326
3.41957
-4.04128
0.0321148
3.47757
-4.03919
0.00218579
3.48913
-4.04918
-0.0748146
3.50538
-4.07097
3.48535
-4.01965
0.0237898
2.43329
-2.48609
-0.00173136
2.29959
-2.46148
0.0101196
2.34952
-2.46599
-0.00340611
2.39423
-2.49178
-0.0315393
2.42612
-2.51512
2.33848
-2.44975
0.0835648
-0.834874
-0.0101292
-0.83824
-0.0379034
-0.834057
-0.0111045
-0.850787
0.0367385
-0.865694
-0.820308
-0.0149588
-1.17771
-3.17635
0.000529768
-1.25373
-3.16279
0.0145185
-1.21847
-3.16857
5.11047e-06
-1.2086
-3.17234
-0.0319107
-1.22566
-3.18061
-1.19084
-3.16568
-0.0184071
-1.97142
-1.67397
0.00228924
-2.0911
-1.64482
0.0304856
-2.06201
-1.65065
0.000564656
-2.00089
-1.66957
-0.0526105
-2.00851
-1.67909
-2.04914
-1.64406
0.00118562
-0.429295
0.00239727
-0.418964
0.0156738
-0.4195
-8.64064e-05
-0.431371
-0.0297812
-0.436424
-0.415969
0.00821415
-2.84457
-2.44778
-0.000375705
-2.82347
-2.4485
-0.00528057
-2.82684
-2.44748
-0.00109915
-2.84333
-2.44852
0.0195403
-2.86111
-2.45057
-2.81152
-2.44619
-0.0184643
-3.3787
-1.12138
0.00368334
-3.36861
-1.12182
0.0166135
-3.3695
-1.12092
0.00357309
-3.37883
-1.12103
-0.0232021
-3.39391
-1.11952
-3.35629
-1.12249
-0.00682536
-0.216996
0.00169744
-0.215721
0.00934867
-0.21589
0.00155061
-0.2174
-0.0161433
-0.218294
-0.215662
0.0100195
-2.67242
-1.5193
-0.00174686
-2.65263
-1.52468
-0.00811833
-2.65831
-1.52198
-0.000890531
-2.66888
-1.52221
0.0194913
-2.67981
-1.52063
-2.64797
-1.52402
-0.00642979
-2.4669
-1.32047
0.000731885
-2.46307
-1.31854
0.00474886
-2.46367
-1.31958
0.000687237
-2.46735
-1.3185
-0.00827941
-2.47154
-1.31883
-2.45924
-1.3195
-0.00196074
-0.386796
0.000405675
-0.385254
0.00198306
-0.38601
-0.000119449
-0.38645
-0.00435519
-0.387116
-0.38633
-0.00617247
-0.979895
-0.609267
1.59534
-0.0110622
-0.980984
-0.611352
1.59723
-0.0160825
-0.970262
-0.612258
1.58754
-0.0120986
-0.895423
-0.585943
1.47738
0.0030362
-0.816749
-0.566479
1.36809
-0.901115
-0.594958
1.49911
-0.0130505
-0.950081
0.0254936
-0.0422573
-0.0248478
-0.951013
0.0193123
-0.0374857
-0.0257702
-0.944515
0.00873902
-0.0335633
-0.0210233
-0.902626
-0.0155939
0.0180495
-0.00198546
-0.842568
-0.0350576
0.0418389
-0.9074
-0.021187
0.0254876
-0.0131954
-0.431159
0.0911281
-0.0395975
-0.431075
0.0981503
-0.0685715
-0.425612
0.102466
-0.0498929
-0.419483
0.124259
-0.00259891
-0.412861
0.153599
-0.409385
0.119748
-0.000842774
-0.413554
-0.194871
-0.000160079
-0.417736
-0.194299
0.00177903
-0.42112
-0.193077
0.000792155
-0.391243
-0.193713
-0.00160421
-0.371445
-0.192637
-0.404371
-0.192192
0.0156892
-0.558374
0.154625
0.0257585
-0.562723
0.154231
0.0313823
-0.566951
0.148947
0.0209689
-0.547191
0.150768
0.0081421
-0.539352
0.145677
-0.560142
0.142727
-0.00528246
-0.24198
-0.0138666
-0.24112
-0.0248791
-0.237081
-0.0174626
-0.224603
-0.00172964
-0.217589
-0.220044
-0.00123609
-0.201579
0.00794427
-0.000245245
-0.203552
0.00826217
0.00171076
-0.203414
0.00838004
0.000322498
-0.200223
0.00789841
-0.000303041
-0.199927
0.00791562
-0.200722
0.00822781
0.00148053
-0.440919
0.392484
0.00230077
-0.442134
0.391993
0.000360399
-0.442106
0.389581
0.00361366
-0.439753
0.387046
0.00525711
-0.441231
0.38534
-0.437878
0.38514
-0.00417005
-0.00286338
-0.00946044
-0.00204831
-0.0138614
0.000280231
-0.0108898
0.00483586
-0.00390131
0.00793013
0.0073093
-0.000175775
-0.19543
0.20355
-0.000759575
-0.194011
0.202857
-0.00148033
-0.193383
0.202484
-0.000152782
-0.197085
0.203656
0.00135806
-0.19753
0.203935
-0.192708
0.202294
0.00138822
-0.51096
0.706626
0.0027969
-0.510148
0.706722
0.0025826
-0.509556
0.705968
0.00342471
-0.51382
0.702939
0.00491299
-0.515745
0.702067
-0.507515
0.704861
-0.00210091
0.265058
-0.00317007
0.266089
-0.00312495
0.267516
-0.00347336
0.26835
-0.00221157
0.269134
0.271428
-0.00123196
-0.38363
0.588412
-0.00112103
-0.385512
0.588258
-0.000627473
-0.385432
0.587422
-6.73962e-05
-0.38637
0.589466
0.000437616
-0.386399
0.589829
-0.384853
0.587584
0.000988949
-0.711372
1.03338
0.00208403
-0.712703
1.03282
0.00201338
-0.712538
1.03314
0.00184899
-0.714443
1.03118
0.00300836
-0.715863
1.03037
-0.710625
1.03364
-0.000305509
0.51597
-0.00100037
0.5163
-0.0012279
0.517021
-0.00156576
0.516773
-0.00135542
0.516736
0.519096
-0.00107091
-0.929814
-0.00108472
-0.936412
-0.000181035
-0.935466
8.55125e-05
-0.933015
0.000163167
-0.930878
-0.936277
0.000837168
-1.21775
0.000935131
-1.22223
0.000305362
-1.22127
0.000471182
-1.22051
0.00135103
-1.22022
-1.22078
0.00121618
-8.43014e-05
-0.000588212
-0.000826683
-0.000501082
-0.209399
4.38401
0.381479
0.0969673
4.50835
0.0587083
0.461953
4.40808
-0.151941
0.210559
5.74344
-0.509577
-0.153498
6.95969
-0.813548
4.00663
0.162134
-0.15977
4.98505
-0.441266
-0.148825
5.07738
-0.579977
-0.174987
5.10784
-0.673601
-0.0754912
6.39911
-0.755171
0.406198
7.36259
-0.884594
4.81127
-0.398447
-0.278157
-2.34633
-0.514248
-2.41083
-0.751945
-2.30919
-0.388956
-2.15865
0.539513
-2.29805
-2.1548
0.490747
5.84038
-0.677008
0.759112
5.1595
-1.28723
0.972466
4.43338
-1.33852
0.710027
4.71289
-1.19428
0.0293602
5.83118
-1.31621
6.7362
-0.297511
0.958763
5.19935
-0.759001
1.24254
5.25788
-0.96213
0.693124
5.09311
-0.783909
-0.525911
5.52872
-0.35196
-1.40349
6.33973
-0.515574
5.23181
-0.297541
0.257275
-1.11922
0.272795
-1.17509
-0.242275
-0.853679
-1.19458
-0.390719
-1.41304
-0.579004
-0.966533
0.585282
-0.741779
-0.950497
0.566106
-0.994411
-1.15375
0.359892
-0.736821
-1.11811
-0.301463
-0.101358
-1.1841
-0.911934
-0.366474
-1.17874
-0.529212
-0.731166
0.022403
-0.563053
-0.960132
-0.434468
-0.498624
-1.00104
-0.484115
-0.614552
-0.856531
-0.284225
0.113819
-0.767026
-0.169854
-0.183308
-0.813107
-0.273702
-0.722904
-0.403775
-0.416695
-1.00318
-0.443836
-0.975997
-0.354499
-0.016061
-0.315038
0.632506
-0.318758
-0.396231
0.062117
-1.91488
-0.613511
-0.0494865
-1.91372
-0.606888
-0.0397376
-1.8857
-0.633579
-0.0574333
-2.17293
-0.724787
-0.194563
-2.16969
-0.641886
-1.74532
-0.575
-0.0201459
-2.28475
-0.570111
-0.106649
-2.26508
-0.563181
-0.0830746
-2.23354
-0.532266
-0.0341107
-2.4248
-0.564114
-0.0656382
-2.42366
-0.527602
-2.09538
-0.438479
0.00372236
-0.271731
-0.0082006
-0.274223
0.0225878
-0.250943
-0.00832741
-0.243858
-0.0409215
-0.247203
-0.232681
0.0133225
-1.08923
-0.680037
0.0347351
-1.10608
-0.693748
0.0410735
-1.12032
-0.67965
-0.0333916
-1.07256
-0.685091
-0.0560516
-1.11049
-0.681819
-1.10984
-0.665722
-0.00372103
-1.15676
-0.498857
-0.00983906
-1.16687
-0.49627
-0.0171326
-1.17083
-0.474454
-0.0410869
-1.13574
-0.476975
-0.0596288
-1.15713
-0.462417
-1.15528
-0.45267
-0.00366236
-0.192844
-0.0156954
-0.193697
-0.0195629
-0.187266
-0.00445129
-0.19532
-0.00738817
-0.192005
-0.182888
-0.0258959
-0.7315
-0.563857
0.0190983
-0.718668
-0.573387
0.012747
-0.749218
-0.567768
-0.0416964
-0.743867
-0.531872
-0.0716149
-0.75629
-0.53197
-0.719911
-0.541126
0.000205066
-0.905567
-0.324994
0.0128953
-0.902158
-0.325467
0.012292
-0.909601
-0.313465
-0.00026194
-0.905991
-0.302297
-0.0215864
-0.909342
-0.288041
-0.900442
-0.293726
1.06147e-05
-0.137045
0.00116711
-0.137042
0.00326769
-0.134766
-0.00311607
-0.13352
-0.00802338
-0.133155
-0.132116
-0.0271548
-0.237665
-0.252857
0.105911
-0.207613
-0.233509
0.171352
-0.257389
-0.266354
0.0180253
-0.32009
-0.253428
-0.129409
-0.350725
-0.248722
-0.242903
-0.21538
0.0157824
-0.474267
-0.104173
0.0577316
-0.472138
-0.102888
0.0671002
-0.482999
-0.0972222
0.0313313
-0.499291
-0.0873251
-0.0263384
-0.505032
-0.0760642
-0.48699
-0.0759782
-0.00133971
-0.088205
-0.00025602
-0.0880075
0.00160879
-0.0893148
-0.00264959
-0.0881977
-0.00601532
-0.0878062
-0.0882129
-0.0463831
-0.137951
0.25816
0.0821655
-0.113998
0.261635
0.322452
-0.122157
0.227098
0.130246
-0.267506
0.193698
-0.157914
-0.336963
0.192065
-0.198515
0.228666
0.0321016
-0.496834
0.22261
0.083802
-0.503714
0.235129
0.130558
-0.505423
0.239289
0.0833461
-0.542811
0.235193
-0.0091581
-0.558783
0.238261
-0.538437
0.254787
0.000854774
-0.0460263
0.000806416
-0.0468064
0.0098676
-0.0493601
0.00275314
-0.0503966
-0.00411847
-0.0510127
-0.0514791
-0.139256
-0.233054
0.594717
-0.114427
-0.224426
0.490088
0.206903
-0.214321
0.270418
0.0193839
-0.304979
0.549383
-0.237062
-0.378201
0.562373
-0.330769
0.146401
0.0493237
-0.496043
0.436275
0.0864063
-0.50474
0.478364
0.105916
-0.49138
0.496843
0.09512
-0.522194
0.463209
0.0418833
-0.536923
0.450222
-0.508864
0.474767
-0.0128181
0.0421931
-0.0214486
0.0371778
-0.00975041
0.0358511
-0.0137213
0.0316343
-0.0160926
0.0296082
0.0335206
-0.0105738
-0.558629
0.24087
-0.0797423
-0.656448
0.0780459
0.132784
-0.702529
-0.274526
-0.0571699
-0.615836
0.0783002
-0.329619
-0.666685
-0.121326
-0.672985
-0.414169
0.107339
-0.826854
0.597164
0.135278
-0.860401
0.654381
0.0755639
-0.833083
0.687112
0.1007
-0.87126
0.693497
0.0618632
-0.893002
0.715379
-0.859503
0.723147
-0.010333
0.224036
-0.0246612
0.213581
-0.00301325
0.216037
-0.000994927
0.208677
-0.0110106
0.209722
0.217738
0.115253
-1.37381
-0.936726
0.169819
-1.4579
-0.996466
0.469679
-1.40864
-1.19751
0.178608
-1.55844
-1.17648
0.0618111
-1.59781
-1.72602
-1.45408
-1.2701
0.0474876
-1.23004
0.405907
0.0615914
-1.25697
0.439349
0.119857
-1.24812
0.468334
0.0600891
-1.26316
0.457987
-0.0488679
-1.27757
0.50409
-1.25851
0.478718
-0.00797713
0.35908
-0.0262122
0.351198
-0.0352993
0.350608
-0.0139844
0.335525
-0.0057947
0.345914
0.344181
0.000319961
-1.39184
0.00623927
-1.43431
-0.0247399
-1.46045
-0.103393
-1.71865
0.275723
-2.50087
-1.58955
0.0990279
-1.12722
0.228525
-1.16195
0.356914
-1.15407
0.34613
-1.23182
-0.0911491
-1.51766
-1.17649
0.0191685
0.0159478
0.024498
0.0299214
-0.0640217
)
;

boundaryField
{
    seabed_topleft_surface
    {
        type            calculated;
        value           uniform 0;
    }
    seabed_topright_surface
    {
        type            calculated;
        value           uniform 0;
    }
    breakwater_top_surface
    {
        type            calculated;
        value           uniform 0;
    }
    breakwater_left_surface
    {
        type            calculated;
        value           uniform 0;
    }
    breakwater_right_surface
    {
        type            calculated;
        value           uniform 0;
    }
    water_front_surface
    {
        type            calculated;
        value           uniform 0;
    }
    water_back_surface
    {
        type            calculated;