/*--------------------------------*- C++ -*----------------------------------*\
| =========                 |                                                 |
| \\      /  F ield         | OpenFOAM: The Open Source CFD Toolbox           |
|  \\    /   O peration     | Version:  v1612+                                |
|   \\  /    A nd           | Web:      www.OpenFOAM.com                      |
|    \\/     M anipulation  |                                                 |
\*---------------------------------------------------------------------------*/
FoamFile
{
    version     2.0;
    format      ascii;
    class       volScalarField;
    location    "5.8";
    object      p_rgh;
}
// * * * * * * * * * * * * * * * * * * * * * * * * * * * * * * * * * * * * * //

dimensions      [1 -1 -2 0 0 0 0];

internalField   nonuniform List<scalar> 
1116
(
22728.3
22728.2
22728.2
22728.2
22728.3
22728.3
24483.7
24483.6
24483.6
24483.6
24483.6
24483.7
24122.4
24122.2
24122.3
24122.4
24122.3
24122.4
21266.6
21266.5
21266.6
21266.6
21266.6
21266.7
19060.1
19060.1
19060.1
19060.2
19060.2
19060.1
17031.2
17031.5
17031.4
17031.4
17031.4
17031.3
15453
15453.2
15453.1
15453.1
15453.1
15453.1
14300.8
14300.9
14300.9
14300.7
14300.9
14300.8
13424.9
13425.1
13425.6
13424.4
13425.3
13425.4
13321
13323.2
13322.9
13319.7
13319.2
13322.9
14400.8
14401.5
14400.9
14400.1
14398.9
14399.6
14149.7
14147
14145.8
14151.7
14152.2
14144.4
18694.4
18691.3
18692.8
18692.8
18692.4
18693.5
24465.1
24465.9
24465.6
24465.4
24465.8
24465.4
22342
22342.5
22342.4
22342.2
22342.3
22342
19292.7
19294.4
19293.8
19293.5
19294.2
19293.1
16823.8
16825.1
16824.7
16824.4
16824.9
16823.9
13010.2
13012.1
13011.7
13010.6
13011.1
13010.7
9469.31
9470.9
9470.58
9469.33
9469.96
9469.66
7354.98
7355.54
7355.74
7354.44
7355.96
7353.78
6697.71
6703.42
6701.84
6697.46
6691.62
6707.41
7372.66
7388.95
7383.77
7373.66
7355.13
7401.73
9414.73
9391.95
9393.03
9416.26
9427.06
9376.58
7817.59
7799.04
7797.68
7818.29
7833.11
7780.18
11042.1
11035.1
11038.2
11038.6
11036.9
11040
9085.28
9085.4
9085.47
9085.07
9085.28
9085.29
3728.13
3728.43
3728.46
3728.22
3728.48
3728.18
2143.34
2143.87
2143.72
2143.44
2143.67
2143.43
1077.59
1077.9
1077.83
1077.57
1077.6
1077.72
-21.5858
-21.6307
-21.6196
-21.5945
-21.5792
-21.6272
-32.4364
-32.4993
-32.4697
-32.4411
-32.4149
-32.475
-49.7889
-49.7901
-49.756
-49.8089
-49.7768
-49.7424
43.2262
43.6844
43.4998
43.2645
42.9573
43.5559
286.562
288.158
287.532
286.776
285.663
288.482
1314.06
1304.3
1302.36
1315.1
1301.3
1303.22
1476.83
1478.42
1479.56
1476.04
1484.43
1478.38
2921.04
2916.52
2918.28
2918.76
2917.46
2919.68
54.7028
54.7051
54.6983
54.6916
54.6931
54.6966
30.4675
30.433
30.4372
30.4359
30.424
30.4363
11.9999
11.9969
11.9955
11.9941
11.9966
11.9853
-2.82639
-2.81337
-2.81616
-2.81926
-2.80071
-2.83761
0.50144
0.472875
0.477392
0.502966
0.509429
0.477738
-17.2279
-17.3867
-17.3367
-17.2396
-17.1595
-17.3558
-61.7915
-61.9613
-61.8955
-61.7827
-61.6355
-61.9628
-28.3561
-28.8682
-28.7931
-28.3347
-28.1421
-28.9817
99.7485
105.419
103.445
100.758
98.2199
105.448
1299.47
1344.03
1330.75
1308.02
1287.76
1343.76
1903.64
1905.35
1904.58
1904.16
1904.2
1905.1
3606.74
3713.98
3661.22
4002.85
4266.02
3774.74
3252.66
3309.4
3318.2
3140.45
2968.79
2657.15
1978.3
1964.24
1945.3
1838.41
1731.31
1607.64
932.813
981.036
987.619
999.595
1125.3
996.709
433.818
599.622
426.554
697.626
963.153
678.999
742.053
862.256
647.754
862.806
924.043
635.116
875.22
875.737
885.397
914.754
950.565
914.765
864.676
871.406
861.699
930.222
995.139
916.031
1282.06
1361.36
1178.68
1405.55
1436.42
1292.67
2461.18
2579.94
2493.1
2396.49
2309.45
2455.51
2320.77
2335.79
2315.75
2172.53
2129.9
1961.75
1716.03
1714.01
1744.88
1704.94
1928.26
1745.5
2439.88
2519.89
2504.21
2510.41
2481.09
2452.66
819.915
748.457
757.058
626.279
502.123
614.422
147.264
145.603
139.872
140.593
126.729
136.228
7.69326
8.02162
8.18021
11.0632
10.6778
10.286
-9.99005
-11.9409
-9.15722
-8.29042
-7.2909
-6.19623
-0.400891
-0.292715
-2.09181
1.94031
5.0608
3.36349
10.945
10.2336
8.99654
7.71769
54.6933
14.4883
21.0063
19.0661
15.7667
15.2913
89.2173
22.9939
147.208
159.266
87.4092
188.995
227.157
97.2534
779.955
1089.01
1004.63
1085.41
756.422
697.623
1294.17
1609.29
1777.85
1632.15
1006.42
1588.84
946.838
934.443
1608.81
1100.13
840.084
1475.64
1248.48
1393.54
1425.4
867.158
779.105
1438.46
81.7194
81.2294
77.3074
76.6533
74.4252
79.0381
52.971
50.5409
50.1616
51.5173
50.6224
53.7565
44.5065
43.9684
43.1844
42.0607
39.6472
40.5906
34.2933
33.8598
34.633
32.0787
31.2129
32.0668
22.6608
22.7389
23.8198
22.848
23.718
25.1156
19.4149
19.0206
18.8884
18.6191
17.9677
20.0645
17.914
16.3627
17.5536
15.5325
15.17
17.6835
13.6407
12.4782
15.272
13.3603
13.6565
13.4373
19.5435
20.2207
23.254
27.1644
25.2592
24.4287
766.567
873.327
1031.85
643.314
520.919
2021.96
3582.07
3522.53
3392.38
2267.73
724.465
3062.34
1326.18
1368.95
1386.98
810.386
668.834
1535.77
3.20923
2.92015
3.06699
8.11745
8.10121
12.2597
20.2809
19.463
21.0905
23.2629
25.8033
30.3187
8.68623
8.55843
8.79854
9.12006
9.44308
10.9942
12.1489
12.2447
12.43
12.6799
13.0273
13.2099
9.74824
9.96034
9.8698
10.1939
10.3716
10.7723
10.4521
11.1221
10.2071
10.1247
9.75243
11.3494
11.2208
10.8879
10.3635
9.35452
8.53617
10.3212
7.38114
6.54656
7.02111
5.5734
4.63193
4.03668
2.74363
3.28927
3.30489
3.57405
3.20486
1.94627
179.003
108.137
35.0948
532.046
853.643
3.26277
3613.73
3605.06
3482.15
3461.76
3739.02
3647.21
-10.7095
-10.6845
-10.6962
-10.7051
-10.6982
-10.6994
-33.0876
-33.0773
-33.0857
-33.0816
-33.0799
-33.0834
-29.0868
-29.0798
-29.0822
-29.0771
-29.075
-29.0756
-28.5424
-28.5315
-28.5337
-28.5349
-28.532
-28.5303
-68.3422
-68.3104
-68.325
-68.3161
-68.3088
-68.3185
-42.4452
-42.4015
-42.425
-42.4132
-42.4059
-42.4221
-3.39394
-3.38762
-3.39678
-3.39055
-3.39254
-3.3947
-24.2356
-24.2031
-24.2186
-24.2077
-24.2015
-24.2115
-12.3025
-12.2921
-12.2962
-12.2927
-12.2903
-12.2944
-1.09149
-1.07815
-1.08637
-1.08976
-1.0895
-1.09064
-10.938
-10.9239
-10.9313
-10.9307
-10.9322
-10.9271
-9.58551
-9.58528
-9.58514
-9.58646
-9.58747
-9.58608
2.38108
2.43006
2.40883
2.38824
2.38187
2.39889
0.570192
0.596254
0.583218
0.573864
0.561205
0.58939
-5.16606
-5.16187
-5.16376
-5.16525
-5.16822
-5.16133
6.10696
6.18928
6.15044
6.12747
6.10513
6.16022
11.5303
11.6496
11.5968
11.5526
11.5073
11.6203
-3.02848
-3.01555
-3.02215
-3.02428
-3.03331
-3.01484
-0.913357
-0.888766
-0.898943
-0.867865
-0.866584
-0.902519
28.4678
28.6777
28.5758
28.5166
28.4324
28.6118
-2.4249
-2.39269
-2.40704
-2.40904
-2.41838
-2.3949
-16.901
-16.4989
-16.5098
-16.6876
-16.7084
-16.5937
36.6162
36.5621
36.4276
36.5209
36.4259
36.6351
5.74855
5.94756
5.84705
5.81919
5.75156
5.90271
-16.0563
-16.392
-16.2601
-16.0712
-15.8658
-16.3545
34.6342
35.5959
35.2799
34.7829
34.2317
35.7131
14.1476
15.1416
14.7915
14.2604
13.9127
15.0857
-26.5133
-27.3487
-27.0271
-26.7141
-26.2134
-27.0489
-12.7406
-13.8188
-13.3021
-13.0266
-12.5759
-13.579
-0.844164
-1.00182
-0.92425
-0.949822
-0.919742
-0.962349
14.7011
14.3401
14.7201
14.4554
14.6811
14.6699
-30.547
-31.4523
-30.9241
-30.9027
-30.4977
-31.074
-32.1884
-32.2584
-32.2194
-32.2837
-32.3172
-32.2026
1963.14
1962.99
1965.42
1962.01
1962.99
1960.04
-6.78126
-6.63404
-6.70232
-6.7405
-6.81652
-6.66626
-21.772
-21.692
-21.7211
-21.7732
-21.8129
-21.6898
5680.07
5682.21
5682.92
5703.02
5704.32
5700
4.30917
4.26192
4.20304
4.10524
3.98686
4.11155
-6.11552
-6.13008
-6.03402
-5.78692
-5.58863
-5.52465
5751.41
5757.24
5758.52
5754.67
5754.82
5752.01
1.53025
1.49163
1.43466
1.24155
1.24154
1.17417
-4.15264
-4.13845
-4.10547
-3.9984
-3.91204
-3.92348
5764.8
5770.73
5772.69
5766.35
5765.93
5764.58
1.86339
1.85163
1.83551
1.82346
1.80279
1.80592
-3.18078
-3.17255
-3.15305
-3.12652
-3.09684
-3.0824
5754.54
5761.31
5762.38
5761.29
5761.85
5757.45
0.279849
0.272465
0.26417
0.259756
0.257786
0.250647
-3.3425
-3.3383
-3.33112
-3.3302
-3.31993
-3.30967
5335.67
5339.81
5340.73
5342.3
5342.27
5339.8
-0.919747
-0.914192
-0.921271
-0.929918
-0.936607
-0.933183
-5.5913
-5.58872
-5.58486
-5.59227
-5.58782
-5.57585
4905.45
4908.58
4908.79
4908.78
4907.74
4905.74
-1.51886
-1.49745
-1.51056
-1.51882
-1.53824
-1.51209
-10.9992
-10.9922
-10.9913
-11.0072
-11.0076
-10.9851
1650.68
1672.68
1669.98
1032.5
733.829
1908.73
1888.63
1909.74
1935.12
870.513
491.255
2121.65
829.358
816.238
584.157
125.053
28.3903
514.966
-38.2143
-38.5285
-34.7721
-32.4557
-28.7352
-21.1856
-61.5474
-63.4185
-57.0204
-57.4051
-55.218
-51.3013
-55.8983
-55.9678
-52.0826
-49.6862
-48.5492
-48.9872
1.82616
0.162681
4.61924
2.49246
4.2198
9.06516
-16.0202
-16.8287
-13.139
-13.0076
-12.3642
-10.0054
-4.16719
-3.23265
-1.23633
1.18764
1.0737
3.7427
-4.21956
-4.59915
-4.17794
-4.73907
-4.43163
-2.34568
-18.3917
-18.3284
-17.015
-15.5719
-15.3783
-15.3023
-12.6044
-12.3468
-12.131
-12.3085
-11.8015
-10.9948
8.67712
8.72561
8.81615
8.85447
8.93979
9.04493
1.55946
1.60317
1.76145
1.85478
1.97843
2.0623
-2.84078
-2.8219
-2.66547
-2.46184
-2.43439
-2.46896
7.39886
7.49779
7.58072
7.61867
7.73052
7.90971
2.51388
2.55624
2.61379
2.66942
2.72385
2.78435
-1.03649
-1.02288
-1.0071
-0.991632
-0.96452
-0.944971
8.23653
8.38772
8.32913
8.29363
8.35794
8.65708
3.99516
4.00792
3.974
3.93537
3.9031
3.9856
0.384655
0.386707
0.390152
0.386432
0.392672
0.405648
7.86497
7.85935
8.03441
7.60682
7.69669
8.11525
3.31178
3.2731
3.19971
3.07487
2.95998
3.06908
0.621322
0.608615
0.597373
0.565924
0.557448
0.577346
5.69565
5.13445
5.79321
5.47233
5.6691
6.3631
1.40275
1.28807
1.2083
1.12965
1.01345
0.955947
1.35138
1.35258
1.3878
1.38406
1.40047
1.46529
3.21845
3.1963
3.76126
3.41622
3.59658
3.88344
-1.27507
-1.47674
-1.70456
-1.84506
-1.88714
-2.13764
0.567412
0.52717
0.559563
0.49698
0.466108
0.485103
-13.3934
-13.4066
-13.334
-15.4757
-13.7528
-11.7039
-4.49919
-4.58204
-4.67662
-5.36391
-5.11587
-5.29464
-2.04761
-2.06347
-2.02551
-1.97267
-1.91709
-1.82518
573.869
555.487
563.585
1368.13
1605.88
1040.42
6.05126
5.82432
5.42388
3.45356
3.07581
3.37007
-7.44827
-7.46908
-7.44641
-8.27693
-7.71361
-8.17664
)
;

boundaryField
{
    seabed_topleft_surface
    {
        type            fixedFluxPressure;
        gradient        uniform 0;
        value           nonuniform List<scalar> 
72
(
22728.3
22728.2
22728.2
22728.2
22728.3
22728.3
24483.7
24483.6
24483.6
24483.6
24483.6
24483.7
24122.4
24122.2
24122.3
24122.4
24122.3
24122.4
21266.6
21266.5
21266.6
21266.6
21266.6
21266.7
19060.1
19060.1
19060.1
19060.2
19060.2
19060.1
17031.2
17031.5
17031.4
17031.4
17031.4
17031.3
15453
15453.2
15453.1
15453.1
15453.1
15453.1
14300.8
14300.9
14300.9
14300.7
14300.9
14300.8
13424.9
13425.1
13425.6
13424.4
13425.3
13425.4
13321
13323.2
13322.9
13319.7
13319.2
13322.9
14400.8
14401.5
14400.9
14400.1
14398.9
14399.6
14149.7
14147
14145.8
14151.7
14152.2
14144.4
)
;
    }
    seabed_topright_surface
    {
        type            fixedFluxPressure;
        gradient        uniform 0;
        value           nonuniform List<scalar> 
72
(
3606.74
3713.98
3661.22
4002.85
4266.02
3774.74
3252.66
3309.4
3318.2
3140.45
2968.79
2657.15
1978.3
1964.24
1945.3
1838.41
1731.31
1607.64
932.813
981.036
987.619
999.595
1125.3
996.709
433.818
599.622
426.554
697.626
963.153
678.999
742.053
862.256
647.754
862.806
924.043
635.116
875.22
875.737
885.397
914.754
950.565
914.765
864.676
871.406
861.699
930.222
995.139
916.031
1282.06
1361.36
1178.68
1405.55
1436.42
1292.67
2461.18
2579.94
2493.1
2396.49
2309.45
2455.51
2320.77
2335.79
2315.75
2172.53
2129.9
1961.75
1716.03
1714.01
1744.88
1704.94
1928.26
1745.5
)
;
    }
    breakwater_top_surface
    {
        type            fixedFluxPressure;
        gradient        uniform 0;
        value           nonuniform List<scalar> 
36
(
5680.07
5682.21
5682.92
5703.02
5704.32
5700
5751.41
5757.24
5758.52
5754.67
5754.82
5752.01
5764.8
5770.73
5772.69
5766.35
5765.93
5764.58
5754.54
5761.31
5762.38
5761.29
5761.85
5757.45
5335.67
5339.81
5340.73
5342.3
5342.27
5339.8
4905.45
4908.58
4908.79
4908.78
4907.74
4905.74
)
;
    }
    breakwater_left_surface
    {
        type            fixedFluxPressure;
        gradient        uniform 0;
        value           nonuniform List<scalar> 
24
(
14149.7
14147
14145.8
14151.7
14152.2
14144.4
7817.59
7799.04
7797.68
7818.29
7833.11
7780.18
1476.83
1478.42
1479.56
1476.04
1484.43
1478.38
1903.64
1905.35
1904.58
1904.16
1904.2
1905.1
)
;
    }
    breakwater_right_surface
    {
        type            fixedFluxPressure;
        gradient        uniform 0;
        value           nonuniform List<scalar> 
24
(
1716.03
1714.01
1744.88
1704.94
1928.26
1745.5
946.838
934.443
1608.81
1100.13
840.084
1475.64
3582.07
3522.53
3392.38
2267.73
724.465
3062.34
3613.73
3605.06
3482.15
3461.76
3739.02
3647.21
)
;
    }
    water_front_surface
    {
        type            fixedFluxPressure;
        gradient        uniform 0;
        value           nonuniform List<scalar> 
186
(
22728.3
24483.7
24122.4
21266.6
19060.1
17031.2
15453
14300.8
13424.9
13321
14400.8
14149.7
18694.4
24465.1
22342
19292.7
16823.8
13010.2
9469.31
7354.98
6697.71
7372.66
9414.73
7817.59
11042.1
9085.28
3728.13
2143.34
1077.59
-21.5858
-32.4364
-49.7889
43.2262
286.562
1314.06
1476.83
2921.04
54.7028
30.4675
11.9999
-2.82639
0.50144
-17.2279
-61.7915
-28.3561
99.7485
1299.47
1903.64
3606.74
3252.66
1978.3
932.813
433.818
742.053
875.22
864.676
1282.06
2461.18
2320.77
1716.03
2439.88
819.915
147.264
7.69326
-9.99005
-0.400891
10.945
21.0063
147.208
779.955
1294.17
946.838
1248.48
81.7194
52.971
44.5065
34.2933
22.6608
19.4149
17.914
13.6407
19.5435
766.567
3582.07
1326.18
3.20923
20.2809
8.68623
12.1489
9.74824
10.4521
11.2208
7.38114
2.74363
179.003
3613.73
-10.7095
-33.0876
-29.0868
-28.5424
-68.3422
-42.4452
-3.39394
-24.2356
-12.3025
-1.09149
-10.938
-9.58551
2.38108
0.570192
-5.16606
6.10696
11.5303
-3.02848
-0.913357
28.4678
-2.4249
-16.901
36.6162
5.74855
-16.0563
34.6342
14.1476
-26.5133
-12.7406
-0.844164
14.7011
-30.547
-32.1884
1963.14
-6.78126
-21.772
5680.07
4.30917
-6.11552
5751.41
1.53025
-4.15264
5764.8
1.86339
-3.18078
5754.54
0.279849
-3.3425
5335.67
-0.919747
-5.5913
4905.45
-1.51886
-10.9992
1650.68
1888.63
829.358
-38.2143
-61.5474
-55.8983
1.82616
-16.0202
-4.16719
-4.21956
-18.3917
-12.6044
8.67712
1.55946
-2.84078
7.39886
2.51388
-1.03649
8.23653
3.99516
0.384655
7.86497
3.31178
0.621322
5.69565
1.40275
1.35138
3.21845
-1.27507
0.567412
-13.3934
-4.49919
-2.04761
573.869
6.05126
-7.44827
)
;
    }
    water_back_surface
    {
        type            fixedFluxPressure;
        gradient        uniform 0;
        value           nonuniform List<scalar> 
186
(
22728.3
24483.7
24122.4
21266.7
19060.1
17031.3
15453.1
14300.8
13425.4
13322.9
14399.6
14144.4
18693.5
24465.4
22342
19293.1
16823.9
13010.7
9469.66
7353.78
6707.41
7401.73
9376.58
7780.18
11040
9085.29
3728.18
2143.43
1077.72
-21.6272
-32.475
-49.7424
43.5559
288.482
1303.22
1478.38
2919.68
54.6966
30.4363
11.9853
-2.83761
0.477738
-17.3558
-61.9628
-28.9817
105.448
1343.76
1905.1
3774.74
2657.15
1607.64
996.709
678.999
635.116
914.765
916.031
1292.67
2455.51
1961.75
1745.5
2452.66
614.422
136.228
10.286
-6.19623
3.36349
14.4883
22.9939
97.2534
697.623
1588.84
1475.64
1438.46
79.0381
53.7565
40.5906
32.0668
25.1156
20.0645
17.6835
13.4373
24.4287
2021.96
3062.34
1535.77
12.2597
30.3187
10.9942
13.2099
10.7723
11.3494
10.3212
4.03668
1.94627
3.26277
3647.21
-10.6994
-33.0834
-29.0756
-28.5303
-68.3185
-42.4221
-3.3947
-24.2115
-12.2944
-1.09064
-10.9271
-9.58608
2.39889
0.58939
-5.16133
6.16022
11.6203
-3.01484
-0.902519
28.6118
-2.3949
-16.5937
36.6351
5.90271
-16.3545
35.7131
15.0857
-27.0489
-13.579
-0.962349
14.6699
-31.074
-32.2026
1960.04
-6.66626
-21.6898
5700
4.11155
-5.52465
5752.01
1.17417
-3.92348
5764.58
1.80592
-3.0824
5757.45
0.250647
-3.30967
5339.8
-0.933183
-5.57585
4905.74
-1.51209
-10.9851
1908.73
2121.65
514.966
-21.1856
-51.3013
-48.9872
9.06516
-10.0054
3.7427
-2.34568
-15.3023
-10.9948
9.04493
2.0623
-2.46896
7.90971
2.78435
-0.944971
8.65708
3.9856
0.405648
8.11525
3.06908
0.577346
6.3631
0.955947
1.46529
3.88344
-2.13764
0.485103
-11.7039
-5.29464
-1.82518
1040.42
3.37007
-8.17664
)
;
    }
    water_left_surface
    {
        type            fixedFluxPressure;
        gradient        uniform 0;
        value           nonuniform List<scalar> 
42
(
22728.3
22728.2
22728.2
22728.2
22728.3
22728.3
18694.4
18691.3
18692.8
18692.8
18692.4
18693.5
11042.1
11035.1
11038.2
11038.6
11036.9
11040
2921.04
2916.52
2918.28
2918.76
2917.46
2919.68
-10.7095
-10.6845
-10.6962
-10.7051
-10.6982
-10.6994
-33.0876
-33.0773
-33.0857
-33.0816
-33.0799
-33.0834
-29.0868
-29.0798
-29.0822
-29.0771
-29.075
-29.0756
)
;
    }
    water_right_surface
    {
        type            fixedFluxPressure;
        gradient        uniform 0;
        value           nonuniform List<scalar> 
42
(
3606.74
3713.98
3661.22
4002.85
4266.02
3774.74
2439.88
2519.89
2504.21
2510.41
2481.09
2452.66
1248.48
1393.54
1425.4
867.158
779.105
1438.46
1326.18
1368.95
1386.98
810.386
668.834
1535.77
1650.68
1672.68
1669.98
1032.5
733.829
1908.73
1888.63
1909.74
1935.12
870.513
491.255
2121.65
829.358
816.238
584.157
125.053
28.3903
514.966
)
;
    }
    water_top_surface
    {
        type            totalPressure;
        rho             rho;
        psi             none;
        gamma           1;
        p0              uniform 0;
        value           nonuniform List<scalar> 
180
(
0
0
0
0
0
0
0
0
0
0
0
0
-5.44354
-5.48873
-5.46348
-5.47208
-5.48621
-5.46527
-10.7068
-10.7086
-10.707
-10.7085
-10.7094
-10.7075
-6.7199
-6.71439
-6.7169
-6.71833
-6.72077
-6.71339
-2.82005
-2.80598
-2.81217
-2.81744
-2.8247
-2.80616
0
0
0
0
0
0
0
0
0
0
0
0
0
0
0
0
0
0
0
0
0
0
0
0
-24.959
-25.1775
-25.0615
-25.0873
-25.0759
-25.0577
-12.3727
-12.2977
-12.3053
-12.3885
-12.455
-12.2539
-2.21499
-2.2281
-2.23416
-2.26059
-2.25432
-2.2965
-3.15497
-3.16604
-3.16381
-3.16744
-3.15118
-3.21178
-2.53913
-2.54268
-2.54428
-2.54737
-2.5622
-2.53143
-3.36408
-3.36809
-3.36295
-3.37608
-3.38923
-3.3341
-5.61018
-5.61545
-5.60769
-5.62523
-5.6412
-5.58057
-7.1793
-7.18921
-7.18304
-7.19307
-7.20414
-7.16697
0
0
0
0
0
0
0
0
0
0
0
0
0
0
0
-1.23914
-0.914553
0
-12.4174
-11.5652
-10.7446
-14.8684
-14.2613
-9.34351
-5.75953
-5.76683
-5.70983
-5.47823
-5.57099
-5.6986
-2.92268
-2.91099
-2.92039
-2.89476
-2.88319
-2.91444
-1.38645
-1.3877
-1.39559
-1.41285
-1.41948
-1.41422
-1.23942
-1.24757
-1.26619
-1.29397
-1.31453
-1.30058
-1.00413
-1.0166
-1.01945
-1.02547
-1.03339
-1.00356
-2.86167
-2.96509
-2.96127
-3.03267
-3.05288
-2.95688
-4.58104
-4.69591
-4.59385
-4.7206
-4.66696
-4.46768
-2.13236
-2.04585
-1.96438
-2.3871
-2.91499
-2.2352
)
;
    }
}


// ************************************************************************* //
