/*--------------------------------*- C++ -*----------------------------------*\
| =========                 |                                                 |
| \\      /  F ield         | OpenFOAM: The Open Source CFD Toolbox           |
|  \\    /   O peration     | Version:  v1612+                                |
|   \\  /    A nd           | Web:      www.OpenFOAM.com                      |
|    \\/     M anipulation  |                                                 |
\*---------------------------------------------------------------------------*/
FoamFile
{
    version     2.0;
    format      ascii;
    class       volVectorField;
    location    "5.8";
    object      U;
}
// * * * * * * * * * * * * * * * * * * * * * * * * * * * * * * * * * * * * * //

dimensions      [0 1 -1 0 0 0 0];

internalField   nonuniform List<vector> 
1116
(
(-1.16322 0.000113779 0.319659)
(-1.16345 6.52479e-05 0.319953)
(-1.16335 -1.63191e-05 0.319872)
(-1.16333 5.014e-05 0.319825)
(-1.16338 -3.84021e-05 0.319888)
(-1.16328 -5.38342e-05 0.319763)
(-3.02968 -0.000104986 0.292317)
(-3.03001 -3.47895e-05 0.292348)
(-3.02986 7.51333e-05 0.292349)
(-3.02981 -2.02106e-05 0.292348)
(-3.02989 5.40456e-06 0.292361)
(-3.02975 3.11692e-05 0.292313)
(-3.45388 -8.15192e-05 0.0461986)
(-3.45412 -1.68733e-05 0.0461315)
(-3.45397 4.81628e-05 0.0461535)
(-3.45393 -2.09225e-05 0.0461764)
(-3.45401 1.57226e-06 0.0461602)
(-3.45393 9.77756e-06 0.0461747)
(-3.44845 -5.20752e-05 -0.0126905)
(-3.4487 2.4487e-06 -0.0126697)
(-3.44852 2.24497e-05 -0.0126765)
(-3.4485 -9.05228e-06 -0.0126567)
(-3.44857 -3.00208e-06 -0.0126626)
(-3.44854 -1.50889e-05 -0.0126889)
(-3.35584 -3.47098e-05 -0.0636226)
(-3.35629 7.64698e-06 -0.063556)
(-3.35602 1.2222e-05 -0.0635629)
(-3.356 1.53266e-05 -0.0635405)
(-3.3561 -5.11132e-06 -0.0635527)
(-3.356 -3.60442e-05 -0.0636063)
(-3.10803 1.30095e-05 -0.162419)
(-3.10868 1.87149e-05 -0.162364)
(-3.10835 1.0816e-05 -0.162358)
(-3.10832 6.41846e-05 -0.162306)
(-3.10841 -3.00087e-05 -0.162324)
(-3.10825 -7.79146e-05 -0.162411)
(-2.71903 0.000118347 -0.201456)
(-2.71984 3.93982e-05 -0.201293)
(-2.71947 1.68918e-05 -0.201322)
(-2.71942 0.000101381 -0.201252)
(-2.7195 -7.25176e-05 -0.20116)
(-2.71931 -7.94917e-05 -0.201487)
(-2.33925 0.000360857 -0.229976)
(-2.34012 9.32292e-05 -0.229773)
(-2.33975 -5.14135e-05 -0.229794)
(-2.33965 -1.93398e-05 -0.22968)
(-2.33987 -1.4549e-05 -0.229269)
(-2.33948 0.000203586 -0.230289)
(-2.05398 0.000825132 -0.377932)
(-2.05395 0.000248728 -0.377989)
(-2.05385 -0.000327725 -0.377854)
(-2.0542 -0.000569828 -0.377672)
(-2.05523 0.000403056 -0.37666)
(-2.05294 0.00117825 -0.379053)
(-1.65202 0.00112679 -0.634803)
(-1.6475 0.000526695 -0.634492)
(-1.64885 -0.000649856 -0.634329)
(-1.65158 -0.00120145 -0.63476)
(-1.65715 0.00105111 -0.6341)
(-1.64416 0.00209099 -0.635322)
(-1.0687 0.000526174 -0.788577)
(-1.06136 0.000560152 -0.78662)
(-1.06233 -0.000548875 -0.786725)
(-1.0688 -0.00068077 -0.788753)
(-1.07638 0.000755925 -0.789972)
(-1.05471 0.000490857 -0.785792)
(-0.238703 -0.00154935 -0.235093)
(-0.232658 -0.000607444 -0.234538)
(-0.233872 0.00102938 -0.234798)
(-0.238434 0.00232545 -0.234886)
(-0.242324 -0.00178848 -0.235571)
(-0.230238 -0.00438616 -0.234086)
(-3.19123 0.00026565 4.69617)
(-3.1907 0.000302611 4.69742)
(-3.19089 -0.000128881 4.69686)
(-3.19099 5.01318e-05 4.69688)
(-3.19092 -7.41443e-05 4.69713)
(-3.1911 -0.000279447 4.69651)
(-4.72088 8.10171e-05 1.66019)
(-4.72089 7.71181e-05 1.65924)
(-4.72083 -6.14885e-05 1.65966)
(-4.72094 3.61456e-05 1.65981)
(-4.72092 -1.8255e-05 1.65952)
(-4.72089 -0.000104928 1.65989)
(-4.37263 0.000195262 0.333115)
(-4.37275 0.000114066 0.332775)
(-4.37263 -0.000109084 0.332922)
(-4.37275 7.46783e-05 0.332994)
(-4.37273 -5.84335e-05 0.332898)
(-4.37267 -0.00014898 0.333021)
(-3.80751 0.000106564 -0.0826724)
(-3.8078 4.62856e-05 -0.0826456)
(-3.80764 -7.16237e-05 -0.0826477)
(-3.8077 6.47484e-05 -0.0826207)
(-3.80772 -4.39843e-05 -0.0826033)
(-3.80762 -0.000105027 -0.0826906)
(-3.0223 2.71228e-06 -0.292167)
(-3.02275 -3.01415e-05 -0.291947)
(-3.02258 -3.19668e-05 -0.292027)
(-3.02255 5.3276e-06 -0.292001)
(-3.02256 3.56505e-05 -0.291905)
(-3.02247 4.03519e-05 -0.29219)
(-1.86496 -0.000142476 -0.514468)
(-1.86574 -0.00014422 -0.514105)
(-1.86545 5.07291e-05 -0.514262)
(-1.86535 -8.29808e-05 -0.5142)
(-1.86558 0.000177289 -0.514)
(-1.86507 0.000306346 -0.51453)
(-0.637526 -9.62961e-05 -0.632657)
(-0.638685 -0.000121649 -0.632136)
(-0.638256 -5.25554e-05 -0.632366)
(-0.638061 -0.000245686 -0.632298)
(-0.638706 0.000343385 -0.631961)
(-0.637485 0.00055714 -0.632712)
(0.412377 0.000160137 -0.593451)
(0.410985 7.2756e-05 -0.592882)
(0.411473 -0.000347945 -0.593085)
(0.411803 -0.000655718 -0.593062)
(0.411347 0.000752118 -0.592559)
(0.412007 0.00115776 -0.593517)
(1.29582 -0.000772878 -0.479245)
(1.29764 -0.000394689 -0.479375)
(1.29689 0.000443248 -0.479251)
(1.29601 0.000627279 -0.479039)
(1.29277 -0.000561952 -0.477786)
(1.29981 -0.00110316 -0.48034)
(0.783319 -0.00199786 -0.318774)
(0.773633 -0.000902064 -0.318723)
(0.778431 0.00156663 -0.318765)
(0.780706 0.00300072 -0.318438)
(0.792831 -0.0030594 -0.317356)
(0.768948 -0.00559246 -0.319997)
(0.531837 -0.00518458 -0.862815)
(0.507238 -0.00258741 -0.862106)
(0.511866 0.00394631 -0.861837)
(0.532036 0.00690002 -0.862802)
(0.560406 -0.00612659 -0.863534)
(0.483578 -0.0110027 -0.860685)
(-1.41561 0.000607219 -0.870858)
(-1.44221 -6.55284e-05 -0.867375)
(-1.4369 -9.23423e-05 -0.868596)
(-1.41734 0.000447744 -0.870535)
(-1.40482 0.000942981 -0.873969)
(-1.44861 0.00246535 -0.865413)
(-5.12331 -0.00184449 6.06011)
(-5.12197 -0.00085957 6.06209)
(-5.12263 0.000811063 6.06114)
(-5.12274 -0.000316921 6.06109)
(-5.12236 0.000405604 6.06187)
(-5.12304 0.000576447 6.06045)
(-5.58771 -0.000623016 0.612967)
(-5.58796 -0.000449358 0.614454)
(-5.58786 0.00022767 0.613812)
(-5.58789 -9.46427e-05 0.613609)
(-5.58794 0.000161476 0.61417)
(-5.58791 0.000325165 0.613232)
(-4.28156 -0.00117995 -0.955637)
(-4.28156 -0.000763433 -0.953822)
(-4.28153 0.000527545 -0.954601)
(-4.28154 -0.000272169 -0.954846)
(-4.28167 0.000262527 -0.954151)
(-4.28157 0.00063808 -0.955282)
(-2.61784 -0.00112814 -1.58103)
(-2.61872 -0.0007261 -1.57978)
(-2.6183 0.000554048 -1.58036)
(-2.61803 -0.000304464 -1.58049)
(-2.61855 0.000356144 -1.58)
(-2.61782 0.000767966 -1.58085)
(-0.552474 -0.00125674 -2.29798)
(-0.555307 -0.000784119 -2.29704)
(-0.554008 0.000826597 -2.29746)
(-0.553207 -0.00032751 -2.29778)
(-0.554645 0.000549957 -2.29749)
(-0.552583 0.00114042 -2.2977)
(3.6171 -0.00227994 -3.63785)
(3.60716 -0.000935277 -3.63858)
(3.61088 0.00180525 -3.63826)
(3.61594 0.000291426 -3.63858)
(3.61245 0.000756606 -3.63882)
(3.614 0.00101128 -3.63735)
(8.40616 0.00368953 -3.47327)
(8.39013 0.00398992 -3.47234)
(8.39392 -0.00497225 -3.47231)
(8.40633 -0.00396454 -3.47438)
(8.40231 0.00364039 -3.47543)
(8.39821 0.00342357 -3.47051)
(11.5674 0.0100328 -2.65033)
(11.5724 0.00909993 -2.6473)
(11.5731 -0.0117232 -2.64715)
(11.569 -0.0108904 -2.6523)
(11.5729 0.00845672 -2.65457)
(11.5741 0.0104925 -2.64508)
(15.6547 -0.00726454 -0.059195)
(15.6799 -0.00105118 -0.0489371)
(15.6714 0.00489274 -0.0529667)
(15.662 0.00950735 -0.0596015)
(15.646 -0.00300258 -0.0696994)
(15.6763 -0.012227 -0.0450375)
(-0.107771 -0.0594808 2.36717)
(-0.213407 -0.0333047 2.36943)
(-0.142744 0.0472796 2.3699)
(-0.152435 0.0612949 2.36712)
(0.0740288 -0.0634626 2.36003)
(-0.192542 -0.102896 2.36261)
(2.59903 -0.0416181 1.27446)
(2.41033 -0.0251741 1.24912)
(2.43657 0.034152 1.25545)
(2.5973 0.0605428 1.27292)
(2.79868 -0.0445095 1.30204)
(2.18001 -0.0748565 1.22938)
(-2.31963 0.0487673 0.0160796)
(-2.65701 0.0276415 -0.0265595)
(-2.59522 -0.0495554 -0.0174027)
(-2.35556 -0.0912479 0.0117426)
(-2.10442 0.0586544 0.052366)
(-2.7535 0.144008 -0.0450496)
(-5.99452 -0.00423917 12.7099)
(-5.99695 -0.00241019 12.7026)
(-5.99617 0.00153904 12.705)
(-5.99594 -0.000897655 12.7063)
(-5.99625 0.000893675 12.7053)
(-5.99563 0.00156033 12.7072)
(0.218217 -0.000362856 1.57631)
(0.214131 -0.000420022 1.57406)
(0.215567 3.31008e-05 1.57399)
(0.217713 -0.000411414 1.57524)
(0.215794 -0.000482908 1.57464)
(0.217725 -2.44381e-05 1.57535)
(-2.16082 -0.00163574 -1.73944)
(-2.16269 -0.000390233 -1.74713)
(-2.16101 0.000409446 -1.74431)
(-2.16097 -0.00124436 -1.74338)
(-2.16233 0.000262072 -1.74567)
(-2.16059 0.000573711 -1.74225)
(-0.841535 -0.00101884 -3.26859)
(-0.847319 -0.000252766 -3.27289)
(-0.844289 0.00101968 -3.27139)
(-0.842594 -0.000120194 -3.27094)
(-0.845619 0.000563354 -3.27237)
(-0.841083 0.000735955 -3.26987)
(-0.49114 -0.00349838 -5.5532)
(-0.50476 -0.00168934 -5.55408)
(-0.498614 0.00347588 -5.55357)
(-0.493915 0.00122446 -5.55556)
(-0.500261 0.000248376 -5.55677)
(-0.49256 0.000456325 -5.55124)
(-1.21607 -0.00674815 -5.97186)
(-1.25557 -0.00263789 -5.97029)
(-1.24212 0.00470239 -5.96994)
(-1.22179 0.00458471 -5.97324)
(-1.23179 -0.00192307 -5.97578)
(-1.23352 -0.00492305 -5.96577)
(-2.69267 0.00589138 -6.87271)
(-2.78199 0.00987768 -6.84732)
(-2.75756 -0.0119468 -6.85224)
(-2.70635 -0.00541533 -6.8721)
(-2.70311 0.00650692 -6.87721)
(-2.7545 0.00153658 -6.84797)
(-6.3124 0.0125809 -3.60643)
(-6.34876 0.0203698 -3.54413)
(-6.33022 -0.0222458 -3.56454)
(-6.33148 -0.0172597 -3.59683)
(-6.32584 0.0202023 -3.61849)
(-6.32525 0.0151077 -3.55583)
(-3.90408 -0.0112116 7.16085)
(-3.93128 0.00563655 7.11554)
(-3.89176 -0.0012706 7.13222)
(-3.93888 0.00420053 7.15007)
(-3.95162 0.00548997 7.15827)
(-3.8622 -0.0115071 7.11083)
(-7.47049 -0.0254075 7.36493)
(-7.53487 -0.0163747 6.85902)
(-7.48493 0.0195947 7.03866)
(-7.51766 0.0260358 7.2504)
(-7.5027 -0.0205339 7.47453)
(-7.45669 -0.0293534 6.87147)
(-5.38946 -0.010495 -0.581305)
(-5.38404 -0.0111791 -0.619437)
(-5.36835 0.0122715 -0.591077)
(-5.40992 0.015531 -0.600063)
(-5.44631 -0.0164766 -0.594657)
(-5.33725 -0.0146331 -0.595901)
(-2.83931 -0.00272702 -2.03539)
(-2.84329 -0.00307877 -2.07796)
(-2.84194 0.00405358 -2.06395)
(-2.8431 0.00817547 -2.04295)
(-2.84769 -0.00846155 -2.01533)
(-2.83784 -0.0129975 -2.08158)
(1.81494 -0.258134 1.40108)
(1.99189 -0.0580817 1.24668)
(1.0755 -0.534077 1.48339)
(3.59468 -0.782263 0.604843)
(4.96891 0.518781 -0.154816)
(0.643457 1.30697 1.39365)
(6.24501 0.014423 -0.828324)
(6.82374 0.339942 -1.06121)
(5.9368 0.416952 -0.703607)
(7.11284 0.583732 -1.36907)
(8.4897 0.653596 -2.01642)
(3.72361 0.836434 0.0818965)
(8.51534 0.00467848 -2.54062)
(9.10347 0.0937476 -2.87897)
(8.83331 0.242007 -2.85019)
(8.91645 0.590146 -2.64139)
(9.79321 0.105496 -2.69372)
(6.76664 -0.00795611 -1.62679)
(9.07923 -0.0633745 -3.01001)
(9.6779 0.0777955 -3.36952)
(9.35403 -0.036936 -3.43766)
(9.47228 0.0795574 -3.01794)
(10.4572 -0.203897 -2.96229)
(8.34395 -0.126827 -2.70603)
(9.08557 -0.0559408 -2.90488)
(10.04 0.213305 -3.46331)
(9.31142 -0.00444652 -3.4012)
(9.54048 0.144662 -3.06197)
(10.3555 -0.122887 -3.02321)
(7.96137 -0.0436391 -2.84953)
(8.89405 0.079558 -2.93656)
(9.89917 0.296903 -3.52027)
(9.36469 0.046191 -3.55948)
(9.22684 0.442577 -3.02769)
(9.69303 -0.0212999 -2.83985)
(7.50314 -0.108594 -2.82987)
(8.26119 0.178183 -2.85527)
(9.21557 0.219793 -3.3893)
(8.76405 0.0283761 -3.63585)
(8.57394 0.679189 -2.84709)
(8.9424 0.00709637 -2.49935)
(7.31004 -0.231284 -2.85258)
(7.61849 0.00814847 -2.71646)
(8.22707 0.0651011 -3.23697)
(7.87653 -0.00979485 -3.72031)
(7.71521 0.732547 -2.65001)
(7.92809 0.111411 -1.97747)
(7.15921 -0.150687 -2.9066)
(6.31723 -0.316358 -2.52946)
(6.80896 -0.086811 -3.38509)
(6.71748 0.0443199 -3.99854)
(6.2833 0.891345 -2.67031)
(6.25252 0.129267 -1.55401)
(6.42416 -0.136477 -3.12568)
(3.56047 -0.490123 -2.47214)
(4.36502 -0.192328 -3.82601)
(4.66082 0.153238 -4.58878)
(3.78686 1.37732 -2.97165)
(3.43838 -0.0593405 -1.5194)
(4.24456 -0.333711 -3.35284)
(0.0189941 -0.261939 -2.04126)
(1.14498 0.0518829 -2.93741)
(2.13081 0.155669 -4.11948)
(1.08379 1.45809 -2.66802)
(-0.255041 0.163312 -1.18798)
(1.0425 -0.380517 -2.06759)
(-2.93588 -0.0417866 0.27206)
(-2.50472 -0.193401 -0.27637)
(-2.42561 -0.0631847 -0.0826189)
(-2.52013 0.810832 0.322582)
(-3.03532 0.128018 0.0491738)
(-2.95789 0.171976 1.90984)
(1.14591 -0.299093 6.75833)
(1.5675 0.196486 6.36885)
(0.836158 -0.0641488 6.37629)
(4.34325 -0.105418 6.70684)
(6.16754 0.496714 6.31961)
(0.748931 1.05975 6.05828)
(8.64274 0.0511945 4.88381)
(9.36934 0.488288 5.04358)
(7.67036 0.574197 6.06371)
(9.63781 0.60461 4.43625)
(10.9246 0.248724 4.63418)
(4.35358 0.481377 7.4002)
(9.84073 0.00441924 3.5804)
(10.1475 0.0157873 3.8331)
(10.0564 -0.0929712 3.52637)
(10.1942 0.0929088 3.92028)
(11.6574 -0.374464 4.37966)
(8.26098 -0.198909 4.57815)
(5.4438 -0.0015778 2.85629)
(5.98884 -0.0656379 3.31)
(5.20859 -0.387517 3.18828)
(7.05492 -0.27298 3.1398)
(9.07937 -0.396442 2.91378)
(5.36553 -0.116974 2.54318)
(1.89959 0.0246789 1.94492)
(1.62575 -0.14184 2.51918)
(2.16311 -0.482006 3.07565)
(2.63612 -0.520348 2.38554)
(5.20234 -0.390698 1.71869)
(1.53355 0.216725 0.61721)
(0.875437 -0.138579 0.568569)
(0.915755 -0.0787044 1.41355)
(0.743133 -0.786724 2.6268)
(3.70143 -1.11073 1.27735)
(7.49113 -0.428288 2.00975)
(0.93435 0.19249 1.35868)
(1.25653 0.0294711 0.137292)
(2.53058 0.200868 1.36875)
(0.565666 -0.333836 0.486501)
(5.1131 -0.916293 1.0524)
(9.00934 -0.276475 2.12753)
(1.5138 -0.208546 1.37574)
(4.617 0.17687 1.26761)
(5.24295 0.253728 0.98068)
(3.47543 -0.351011 1.03861)
(5.44642 -0.69636 -0.0334148)
(8.85039 0.0148639 1.12271)
(5.94361 0.336711 2.26265)
(6.16425 0.0171941 -0.504234)
(6.25274 0.0395259 -1.90244)
(5.0484 -0.530286 -0.901788)
(6.3677 -0.431801 -2.15892)
(7.9054 0.212372 -0.73946)
(6.94767 0.833514 0.262866)
(6.0808 -0.162121 -4.17549)
(6.29889 -0.00690467 -5.64615)
(5.59359 -0.41561 -5.5991)
(6.0008 0.116583 -3.92122)
(6.60622 -0.0560331 -2.59069)
(5.77005 0.46713 -5.3646)
(4.33787 -0.102897 -4.10454)
(4.42267 0.153974 -4.56049)
(4.39852 -0.161005 -5.59608)
(3.9114 0.704523 -2.88578)
(4.06923 -0.574812 -1.03873)
(4.07386 -0.0964687 -4.69511)
(-2.25254 0.154644 2.41166)
(-1.72858 0.717468 2.02871)
(1.31329 0.611262 -1.38695)
(-0.505339 1.36344 1.38726)
(-2.99501 -0.453402 3.46882)
(0.49648 -0.32501 0.0426376)
(1.34738 -0.281928 9.30915)
(1.73895 0.170876 9.08905)
(1.91797 -0.250385 8.88919)
(4.55982 -0.118558 10.8727)
(5.91095 0.367692 11.5972)
(1.9509 0.879735 8.4074)
(1.41794 0.0982827 8.96246)
(2.71423 0.504473 8.91429)
(1.17187 0.643616 10.9541)
(2.12763 0.598069 8.21077)
(3.1588 -0.174199 8.28528)
(-1.26445 0.121878 12.2521)
(3.59648 0.0784833 -3.61881)
(3.65859 -0.250863 -3.99409)
(4.24388 -0.248419 -3.52844)
(3.62002 -0.111256 -3.24908)
(4.58055 -0.527375 -1.72861)
(4.35949 -0.359338 0.872571)
(3.53128 -0.0906527 -6.07396)
(3.53745 0.00937461 -6.15449)
(3.5124 -0.00753542 -6.24703)
(3.4543 -0.0683292 -5.88034)
(3.27211 0.245927 -5.51671)
(3.1133 0.20127 -6.29706)
(3.57405 -0.187854 -4.74465)
(3.61361 -0.189569 -4.69589)
(3.66425 0.0233079 -4.68434)
(3.57473 -0.09481 -4.50319)
(3.62103 0.26798 -4.18364)
(3.73102 0.41019 -4.60295)
(2.19433 -0.319501 -2.31849)
(2.16956 -0.355528 -1.72607)
(2.11191 -0.0561712 -2.14858)
(2.23818 -0.212854 -2.06109)
(2.68479 -0.0220839 -2.03083)
(2.41696 0.328913 -1.97316)
(1.24044 -0.28246 0.110445)
(1.36943 -0.0893249 1.42694)
(1.06882 0.0100659 0.535004)
(1.50346 -0.201413 -0.783524)
(2.20505 -0.353407 -2.68628)
(1.55806 -0.0407574 0.728142)
(0.221275 0.12331 2.23814)
(1.16642 0.172519 2.7756)
(0.360566 -0.00429784 2.87108)
(0.349612 -0.0300997 -0.465208)
(1.28242 -0.524692 -3.99233)
(1.58655 -0.0792265 2.86702)
(1.65029 0.165813 -0.490815)
(1.03366 0.0422556 -0.847463)
(0.585308 -0.253592 0.606134)
(1.38708 -0.383147 -2.89098)
(2.48189 -0.152461 -4.35638)
(1.83217 0.312135 0.288163)
(3.94277 -0.070188 -4.89721)
(4.18676 0.0863185 -5.79289)
(3.97991 -0.381768 -5.75733)
(5.01665 -0.660284 -5.86461)
(5.58404 0.0163818 -6.48849)
(4.12729 0.474807 -5.66786)
(4.52925 -0.0971997 -6.06801)
(4.59395 0.30647 -6.35831)
(4.36144 -0.21501 -6.88816)
(4.73884 -0.594658 -5.80505)
(5.21541 -0.137582 -4.56456)
(4.64769 0.63939 -6.53402)
(2.18485 -0.00982658 -2.27127)
(2.31953 0.558551 -2.57095)
(2.42735 0.176608 -3.64344)
(2.03272 -0.268473 -1.68259)
(-0.95274 -0.062562 4.32054)
(2.22658 0.633745 -3.09675)
(3.42827 -0.277045 9.91503)
(3.72702 -0.0179827 9.94176)
(4.28653 -0.654873 9.95042)
(6.78211 -0.524321 11.5615)
(7.83074 0.22981 12.5925)
(3.94824 0.840722 9.53553)
(-1.27689 0.101107 12.4132)
(-0.56419 0.205309 12.4271)
(-1.92864 0.342912 14.4735)
(-1.07918 0.326702 11.1908)
(-0.3814 -0.938433 11.413)
(-2.44158 -0.514051 13.7233)
(7.16331 -0.00365994 1.23903)
(7.19121 -0.428167 0.91975)
(6.86179 -0.538957 1.00769)
(6.82854 -0.299179 1.20177)
(7.11639 -1.05368 1.40336)
(5.43108 -0.720202 1.66984)
(2.75713 -0.0766589 -2.23417)
(2.60541 -0.0224793 -2.21502)
(2.68932 -0.227701 -2.16184)
(2.4828 -0.229366 -2.52843)
(2.3491 -0.110045 -2.4918)
(2.44566 -0.0761044 -2.22504)
(3.75917 -0.0384756 -2.29995)
(3.74114 -0.035891 -2.28506)
(3.69353 -0.00244056 -2.23466)
(3.69747 -0.0735409 -2.26344)
(3.60521 0.00667961 -2.34764)
(3.57621 0.0345188 -2.37569)
(2.24915 -0.0522533 -1.22368)
(2.26072 -0.0082025 -1.12231)
(2.19345 0.0926603 -1.09782)
(2.05685 0.0566956 -1.14396)
(1.89989 -0.0141955 -1.096)
(2.11729 -0.0516222 -1.14477)
(1.71193 -0.0842532 -0.565229)
(1.64808 0.0808283 -0.362656)
(1.62322 0.378021 -0.484503)
(1.44711 0.45248 -0.586829)
(1.186 -0.0296751 -0.495101)
(1.52013 -0.294496 -0.389752)
(0.0857211 -0.000811283 0.162819)
(0.0379609 0.20065 0.380254)
(0.0490442 0.581745 0.39054)
(0.228367 0.911425 -0.247487)
(0.093374 -0.0488917 0.0248519)
(0.17462 -0.509126 0.382764)
(-0.844301 -0.0356128 0.52514)
(-0.608951 0.0749874 0.244143)
(-0.688225 0.231245 0.404449)
(-0.397117 0.33434 0.307869)
(-0.435151 0.0666228 0.263991)
(-1.01255 -0.0821171 0.617053)
(0.420535 0.058119 -1.33302)
(1.09021 -0.0778955 -2.08393)
(-0.12966 -0.108231 -0.997322)
(2.00172 -0.00213544 -2.49501)
(2.67831 0.113549 -3.1014)
(-1.11661 -0.0523705 -1.28454)
(3.47494 0.0426651 -6.51843)
(3.48004 -0.067698 -6.57368)
(3.37596 -0.528701 -6.32122)
(3.9635 -0.77704 -6.51129)
(4.75496 0.064027 -5.89119)
(4.12023 0.400604 -6.2682)
(2.83397 -0.039231 -4.1696)
(2.8205 -0.0422195 -4.30069)
(2.82748 -0.35279 -4.37896)
(2.71217 -0.696691 -3.82631)
(2.69715 0.0313167 -2.89183)
(2.76489 0.452437 -4.01813)
(-5.33517 -0.00584212 14.3218)
(-5.34293 -0.00363471 14.304)
(-5.34114 0.00217763 14.3098)
(-5.33935 -0.00110641 14.3134)
(-5.34104 0.000775244 14.3098)
(-5.3389 0.00200274 14.3148)
(-3.51657 -0.00567445 18.2982)
(-3.51602 -0.00309507 18.2614)
(-3.518 0.00198264 18.2751)
(-3.51753 -0.00149882 18.2798)
(-3.51702 0.000835268 18.2712)
(-3.5183 0.00190624 18.2842)
(-0.519473 -0.00283165 16.5899)
(-0.513391 -0.00130669 16.5343)
(-0.517578 0.000367755 16.5587)
(-0.518254 -0.00131273 16.563)
(-0.516175 0.000462546 16.5501)
(-0.519735 0.000773491 16.5717)
(-4.25478 -0.00427349 1.1002)
(-4.25303 -0.00341363 1.09614)
(-4.25719 6.91695e-06 1.09568)
(-4.25172 -0.00226295 1.09805)
(-4.25197 0.000240034 1.09709)
(-4.25497 0.00170027 1.09608)
(-0.120614 -0.00664176 4.06634)
(-0.112726 -0.00412926 4.03636)
(-0.11828 0.000679136 4.04571)
(-0.115614 -0.00353523 4.04666)
(-0.114059 0.000922673 4.03902)
(-0.118791 0.00274502 4.05079)
(2.41391 -0.00480931 4.25382)
(2.40966 -0.00223096 4.19347)
(2.41106 0.00110711 4.22093)
(2.4109 -0.00236292 4.21735)
(2.40944 0.000984927 4.2012)
(2.41107 0.00201027 4.22832)
(-6.92468 -0.00187712 -3.2692)
(-6.92731 -0.000384667 -3.27219)
(-6.92731 0.00066729 -3.27002)
(-6.92503 -0.00122614 -3.27185)
(-6.92589 0.000390963 -3.27255)
(-6.92466 0.000764871 -3.27182)
(-2.69419 -0.00178187 -3.51742)
(-2.69364 -0.000947328 -3.52939)
(-2.69495 0.000207254 -3.52293)
(-2.6931 -0.000968092 -3.52465)
(-2.69317 0.00040006 -3.52851)
(-2.69456 0.000782404 -3.52291)
(0.498969 0.000689618 -3.29908)
(0.495276 0.000317334 -3.31283)
(0.497516 -0.000161398 -3.30518)
(0.496517 0.000398515 -3.30772)
(0.495012 1.59258e-05 -3.31189)
(0.496784 -0.000144113 -3.30543)
(-4.19447 -0.00321143 -4.02153)
(-4.20279 -0.00166449 -4.01665)
(-4.19882 0.00307925 -4.01839)
(-4.19524 0.00186818 -4.02039)
(-4.19746 -0.00119516 -4.02054)
(-4.19583 -0.00174675 -4.0186)
(-0.464217 -0.000352771 -4.76581)
(-0.463195 -0.000198433 -4.76612)
(-0.463529 0.00045273 -4.76579)
(-0.463139 0.000596045 -4.76637)
(-0.462088 -0.000251208 -4.76659)
(-0.464619 -0.000528918 -4.76611)
(0.115514 0.000571751 -4.62629)
(0.115172 0.000278029 -4.62668)
(0.115556 4.37903e-05 -4.62636)
(0.115296 0.000537577 -4.62673)
(0.115211 -7.48452e-06 -4.62694)
(0.115234 -0.000204123 -4.62654)
(-4.57863 -0.011661 -3.56404)
(-4.61409 -0.00621889 -3.55107)
(-4.60158 0.00992501 -3.55549)
(-4.58309 0.00958829 -3.56166)
(-4.58679 -0.00644587 -3.56691)
(-4.59748 -0.0114986 -3.55005)
(-0.358658 -0.00206609 -3.69805)
(-0.360088 -0.00110425 -3.69594)
(-0.359389 0.00193879 -3.69707)
(-0.358501 0.00214641 -3.6978)
(-0.355344 -0.00152301 -3.69911)
(-0.361862 -0.00267649 -3.6963)
(-0.0432519 -6.28854e-05 -3.66366)
(-0.043445 -1.84625e-05 -3.66218)
(-0.0433116 0.000200744 -3.66294)
(-0.0434622 0.000326577 -3.66342)
(-0.0433979 -0.000141915 -3.66421)
(-0.0435356 -0.000312868 -3.66229)
(-5.62958 -0.023774 -3.16661)
(-5.74763 -0.0110515 -3.13032)
(-5.7154 0.0167732 -3.14131)
(-5.6427 0.0211899 -3.16006)
(-5.63412 -0.0141155 -3.17139)
(-5.71737 -0.0281725 -3.13186)
(-0.458566 -0.0128721 -2.04816)
(-0.468483 -0.00732888 -2.04449)
(-0.463527 0.0113659 -2.04685)
(-0.460467 0.0106949 -2.04745)
(-0.45136 -0.0084349 -2.05116)
(-0.470662 -0.0136693 -2.04397)
(0.155417 -0.000403897 -2.37127)
(0.154913 -0.000165097 -2.3654)
(0.155101 0.000329307 -2.3681)
(0.154999 0.000622746 -2.37043)
(0.155381 -0.000509928 -2.37358)
(0.154645 -0.00104245 -2.36586)
(-7.99697 -0.0191338 -2.7006)
(-8.24113 -0.00414086 -2.5942)
(-8.17808 0.00673918 -2.62469)
(-8.03132 0.0171493 -2.67988)
(-7.97479 -0.0077721 -2.69821)
(-8.2091 -0.0236314 -2.61656)
(-2.09045 -0.0429539 -1.41051)
(-2.18555 -0.025136 -1.38882)
(-2.15137 0.0348062 -1.39902)
(-2.10589 0.0323041 -1.40445)
(-2.07655 -0.0243268 -1.42062)
(-2.1777 -0.0387702 -1.38437)
(1.07434 -0.00379746 0.326042)
(1.06705 -0.00208922 0.349382)
(1.07036 0.00227028 0.339263)
(1.07194 0.00289609 0.330581)
(1.07741 -0.00305456 0.319739)
(1.06617 -0.00545463 0.347316)
(-10.6711 0.00144623 1.23397)
(-10.9332 0.00919004 1.373)
(-10.8581 -0.0130232 1.33613)
(-10.7254 -0.00225109 1.26337)
(-10.637 0.00855855 1.23707)
(-10.9077 0.00252685 1.33983)
(-5.04172 -0.0176484 0.112139)
(-5.37309 -0.00959957 0.269675)
(-5.2714 0.009996 0.213738)
(-5.10352 0.010329 0.154408)
(-5.01081 -0.00630893 0.116211)
(-5.34232 -0.00543318 0.242971)
(-0.349216 -0.0352125 3.67832)
(-0.398831 -0.0200858 3.72492)
(-0.382512 0.0252259 3.70513)
(-0.358861 0.0233735 3.6893)
(-0.342248 -0.0196301 3.68282)
(-0.401133 -0.031349 3.70878)
(-10.7275 0.0127947 8.02228)
(-10.897 0.0132196 7.98297)
(-10.8306 -0.0173536 8.00196)
(-10.7865 -0.0122398 8.01264)
(-10.7355 0.0121631 8.02476)
(-10.8542 0.0154509 7.97744)
(-7.63884 0.0346666 4.96674)
(-7.8872 0.017598 4.95937)
(-7.81079 -0.0285149 4.95871)
(-7.70979 -0.0245368 4.9858)
(-7.64929 0.0189057 5.03484)
(-7.8464 0.0418593 4.91789)
(-0.829949 0.0230123 5.88992)
(-1.03759 0.00905412 5.96234)
(-0.970401 -0.0227103 5.93115)
(-0.874815 -0.027514 5.91459)
(-0.829934 0.0203001 5.91882)
(-1.00797 0.0439581 5.93029)
(-10.1498 0.0389788 8.20513)
(-10.3286 0.0207804 7.92325)
(-10.262 -0.0315626 8.02578)
(-10.2188 -0.0319414 8.13716)
(-10.1919 0.0238123 8.24714)
(-10.2725 0.0485755 7.93311)
(-5.73996 0.0586777 3.5689)
(-5.80016 0.0290774 3.39911)
(-5.7775 -0.040786 3.45753)
(-5.77838 -0.0388944 3.53114)
(-5.79767 0.0273364 3.6127)
(-5.75805 0.0594757 3.40214)
(-1.956 0.0372153 3.13834)
(-1.97909 0.0152192 3.08327)
(-1.96765 -0.0250485 3.10099)
(-1.97807 -0.0275629 3.13012)
(-2.00719 0.0172461 3.16497)
(-1.94637 0.0434462 3.07799)
(-7.52787 0.0250553 -5.15533)
(-7.38264 0.0107589 -5.42634)
(-7.4525 -0.0151361 -5.31877)
(-7.50287 -0.0136009 -5.23256)
(-7.60692 0.00862779 -5.11634)
(-7.37896 0.0208459 -5.386)
(-0.540717 0.0317071 -5.00521)
(-0.473742 0.0151615 -5.06688)
(-0.497204 -0.018308 -5.03328)
(-0.532317 -0.0145044 -5.0425)
(-0.574101 0.00855568 -5.04356)
(-0.466166 0.0203418 -5.02585)
(0.0105178 0.00918829 -7.06116)
(0.00436348 0.00425439 -7.09201)
(0.00838991 -0.00204535 -7.07572)
(0.0093257 0.00277658 -7.07949)
(0.0162233 -0.00408675 -7.07802)
(0.0040149 -0.00396672 -7.0756)
(-3.62619 0.00180148 -5.22706)
(-3.6295 0.00166009 -5.27058)
(-3.62734 0.000822878 -5.25784)
(-3.63062 0.00186717 -5.23879)
(-3.63084 -0.000992952 -5.22305)
(-3.62645 -0.00176519 -5.27257)
(-2.79596 -0.00321128 -8.73351)
(-2.80838 -0.00240276 -8.67646)
(-2.80211 0.00514232 -8.70396)
(-2.79973 0.00586296 -8.72132)
(-2.79343 -0.00402881 -8.7582)
(-2.80499 -0.00536548 -8.67689)
(-0.748557 0.00198177 -4.97135)
(-0.75361 0.000935164 -4.95625)
(-0.751722 -0.000687532 -4.95788)
(-0.751115 -0.000858001 -4.97475)
(-0.749688 -4.12883e-05 -4.98824)
(-0.752406 0.00111865 -4.94792)
(1.90686 -0.00513947 0.579489)
(1.91664 -0.0117957 0.604023)
(1.93893 0.00390586 0.601796)
(1.80323 -0.00504868 0.599778)
(1.79237 -0.00512165 0.494266)
(1.84534 0.0169716 0.562628)
(1.24816 -0.00206327 -3.64523)
(1.26729 0.00718415 -3.73634)
(1.27988 0.017761 -3.73219)
(1.40085 0.0267221 -3.29927)
(1.33673 0.00405024 -3.24547)
(1.43578 -0.0130876 -3.2187)
(1.02158 0.00227593 -2.10518)
(1.02077 -0.00775574 -2.11142)
(1.02668 -0.0347221 -2.1143)
(1.06233 -0.056318 -2.12676)
(0.992045 -0.0201839 -2.12381)
(1.07343 0.0113237 -2.14357)
(0.690693 8.95719e-05 -0.205315)
(0.690023 0.000139579 -0.208634)
(0.686748 -0.00278902 -0.205738)
(0.698149 0.000658259 -0.199482)
(0.694814 -0.000296902 -0.173596)
(0.689738 -0.00456236 -0.194645)
(-0.342505 0.00475043 -1.68407)
(-0.345271 0.00578314 -1.69481)
(-0.334943 0.0111722 -1.73107)
(-0.339569 -0.00491135 -1.59729)
(-0.321633 0.00219146 -1.60945)
(-0.315029 0.0193421 -1.65617)
(0.443283 -0.000465391 -2.51202)
(0.444427 -0.00143377 -2.51644)
(0.438836 -0.0132716 -2.51557)
(0.426581 -0.022301 -2.51702)
(0.410152 -0.00347863 -2.51055)
(0.407159 0.00604616 -2.53455)
(0.241907 0.000566078 0.18568)
(0.240799 0.000284775 0.185024)
(0.240353 -0.00163802 0.184378)
(0.239602 -0.00228701 0.185219)
(0.240254 0.000684856 0.185528)
(0.237235 0.00186313 0.179451)
(-0.0470163 0.000544187 -1.46898)
(-0.046517 0.00242718 -1.46104)
(-0.044288 0.00655123 -1.45802)
(-0.0355375 0.00401792 -1.48395)
(-0.0425764 0.00869181 -1.49016)
(-0.0356328 0.0103469 -1.46362)
(0.0983906 -0.00171986 -2.25316)
(0.0994079 -0.00413587 -2.25473)
(0.0989941 -0.00424373 -2.25545)
(0.0882924 -0.00627445 -2.25683)
(0.0811486 -0.00540013 -2.26339)
(0.0880865 -0.00119938 -2.24974)
(-0.257328 0.000148936 0.254256)
(-0.257319 0.000470495 0.253561)
(-0.257377 -0.00249823 0.253136)
(-0.257688 -0.00270917 0.255292)
(-0.25815 0.00241294 0.258816)
(-0.257538 0.00257688 0.249604)
(-1.38087 -4.97337e-05 -1.2853)
(-1.38102 0.000320261 -1.27914)
(-1.38065 0.00212111 -1.27314)
(-1.3757 -0.00134436 -1.29952)
(-1.37447 0.00328788 -1.30738)
(-1.3809 0.00737759 -1.26711)
(-0.37474 -0.000900795 -2.59304)
(-0.375637 -0.00185912 -2.59455)
(-0.377144 -0.00103243 -2.59258)
(-0.377591 -0.00171932 -2.59766)
(-0.378308 -0.00171119 -2.60273)
(-0.383353 -0.000253256 -2.58148)
(-0.462927 0.00038136 0.26733)
(-0.463822 0.000659922 0.266438)
(-0.463237 -0.00212709 0.266264)
(-0.465153 -0.00241499 0.267977)
(-0.465322 0.00217818 0.270792)
(-0.463243 0.00237421 0.263712)
(-1.84859 0.000239749 -1.99466)
(-1.84687 -0.000299712 -1.99163)
(-1.84761 0.000543527 -1.98674)
(-1.8456 -0.00243921 -2.00529)
(-1.84497 0.00126857 -2.01196)
(-1.84846 0.00568524 -1.97949)
(-0.95106 -0.000271562 -3.34823)
(-0.951224 -0.000978638 -3.34973)
(-0.952493 0.000113038 -3.34744)
(-0.950526 0.000336272 -3.35273)
(-0.949193 -0.00165093 -3.35755)
(-0.95618 -0.00136064 -3.3395)
(-1.71096 0.000726775 0.945919)
(-1.71297 0.000877571 0.9495)
(-1.71175 -0.00139094 0.947614)
(-1.71462 -0.0014634 0.947384)
(-1.71671 0.00134628 0.947402)
(-1.71005 0.00141051 0.947013)
(-3.75647 -0.0012768 -4.73167)
(-3.75353 -0.00144742 -4.72696)
(-3.75637 0.00213215 -4.72331)
(-3.75427 0.00131592 -4.73831)
(-3.75302 -0.00111026 -4.74324)
(-3.75849 0.000490241 -4.71848)
(-1.57894 -0.000116628 -3.78703)
(-1.58087 -0.000671976 -3.78967)
(-1.58136 0.000647711 -3.7881)
(-1.57803 0.00123592 -3.79082)
(-1.57486 -0.00180847 -3.79386)
(-1.58482 -0.00203087 -3.7842)
(5.94974 -0.281668 10.9492)
(6.16718 -0.163188 11.2212)
(6.53982 -0.815512 11.4423)
(8.95804 -0.628831 12.4595)
(9.70928 0.0694905 13.4582)
(5.7447 0.813684 11.3952)
(7.76584 -0.25278 12.7356)
(7.90153 -0.174177 13.1649)
(7.85537 -0.676353 13.5087)
(9.87245 -0.278755 13.8108)
(10.2201 -0.267765 14.7262)
(6.55691 0.683501 14.0163)
(8.37363 -0.237893 15.7874)
(8.45971 -0.229559 16.2013)
(8.09304 -0.741555 16.4001)
(9.23388 -0.347934 16.0649)
(8.86956 -0.224498 16.8543)
(6.55699 0.667393 16.9316)
(-2.32923 0.165818 13.7368)
(-1.8633 -0.116621 13.7804)
(-2.4295 0.0563363 15.06)
(-2.39491 0.386462 12.5798)
(-1.66463 -1.56444 12.633)
(-1.4283 -1.1602 11.7311)
(-4.45986 0.367892 15.3402)
(-4.3007 -0.218526 16.3604)
(-3.45244 0.0932069 15.1725)
(-4.08798 0.944542 14.7769)
(-3.10607 -1.47651 14.842)
(-1.70105 -1.05573 9.78761)
(-2.68111 0.220991 10.3273)
(-3.01827 -0.138579 12.3419)
(-2.02614 -0.0899016 9.21754)
(-3.26065 0.664797 10.4688)
(-2.78793 -0.372277 11.0471)
(-1.15351 0.0253415 6.34317)
(7.00111 0.0304459 -2.08355)
(7.27146 0.13358 -2.43006)
(6.6291 -0.101403 -2.62542)
(6.57625 0.315776 -1.96705)
(6.66945 -0.274815 -1.47461)
(6.4053 -0.192697 -1.66312)
(4.55726 -0.279335 -0.33345)
(4.57528 0.452388 0.228366)
(3.95893 -0.537184 -0.931911)
(1.8389 -0.0777353 1.73917)
(2.20835 0.676266 1.70262)
(4.19286 0.925569 -0.993403)
(-0.526769 -0.345161 0.533956)
(-0.691382 0.168964 1.66558)
(-0.333004 -1.02237 0.336395)
(-0.31396 -0.405354 -1.57426)
(-0.595894 0.560196 -1.35235)
(-0.286798 0.997684 1.27)
(0.931102 -0.120942 -5.38641)
(0.779108 -0.0400946 -5.34089)