/*--------------------------------*- C++ -*----------------------------------*\
| =========                 |                                                 |
| \\      /  F ield         | OpenFOAM: The Open Source CFD Toolbox           |
|  \\    /   O peration     | Version:  v1612+                                |
|   \\  /    A nd           | Web:      www.OpenFOAM.com                      |
|    \\/     M anipulation  |                                                 |
\*---------------------------------------------------------------------------*/
FoamFile
{
    version     2.0;
    format      ascii;
    class       volScalarField;
    location    "8.5";
    object      p;
}
// * * * * * * * * * * * * * * * * * * * * * * * * * * * * * * * * * * * * * //

dimensions      [1 -1 -2 0 0 0 0];

internalField   nonuniform List<scalar> 
320
(
14724.8
14724.8
14724.8
14724.8
5.00361
5.0033
5.00056
4.99924
5.00099
5.00039
5.0012
5.00167
5.00196
5.00251
5.00213
5.00362
4914.92
4914.9
4914.9
4914.84
4914.92
4914.91
4914.92
4914.91
4914.89
4914.86
4914.86
4914.92
14724.8
14724.8
14724.8
14724.8
14724.8
14724.8
14724.8
14724.8
14724.8
14724.8
14724.8
14724.8
24534.8
24534.8
24534.8
24534.8
24534.8
24534.8
24534.8
24534.8
24534.8
24534.8
24534.8
24534.8
24534.8
24534.8
24534.8
24534.8
5.0016
5.00064
5.00111
5.00081
4.99995
4.99938
4.99992
5.0003
4.99955
4.99919
5.00008
5.00163
5.00182
5.00193
5.00214
5.00179
5.002
5.00149
5.00257
5.0021
4914.92
4914.9
4914.87
4914.9
4914.86
4914.87
4914.88
4914.88
4914.9
4914.89
4914.88
4914.88
4914.92
4914.88
4914.87
4914.87
4914.86
4914.88
4914.91
4914.9
14724.8
14724.8
14724.8
14724.8
14724.8
14724.8
14724.8
14724.8
14724.8
14724.8
14724.8
14724.8
14724.8
14724.8
14724.8
14724.8
14724.8
14724.8
14724.8
14724.8
24534.8
24534.8
24534.8
24534.8
24534.8
24534.8
24534.8
24534.8
24534.8
24534.8
24534.8
24534.8
24534.8
24534.8
24534.8
24534.8
24534.8
24534.8
24534.8
24534.8
34344.8
34344.8
34344.8
34344.8
34344.8
34344.8
34344.8
34344.8
34344.8
34344.8
34344.8
34344.8
34344.8
34344.8
34344.8
34344.8
34344.8
34344.8
34344.8
34344.8
34344.8
34344.8
34344.8
34344.8
34344.8
34344.8
34344.8
34344.8
34344.8
34344.8
34344.8
34344.8
34344.8
34344.8
34344.8
34344.8
5.0013
5.00016
4.99244
5.00184
4.9986
5.00199
4.99737
4.99786
4.99853
4.99917
5.00028
4.99965
4.99905
4.99935
4.999
5.00019
5.00123
5.00187
5.00221
5.00273
5.00238
5.00172
5.00283
5.00213
5.00199
5.00187
5.00255
5.002
4914.9
4914.86
4914.8
4914.86
4914.86
4914.92
4914.87
4914.86
4914.9
4914.92
4914.9
4914.91
4914.91
4914.92
4914.89
4914.9
4914.89
4914.91
4914.92
4914.89
4914.92
4914.89
4914.9
4914.91
4914.91
4914.92
4914.91
4914.94
14724.8
14724.8
14724.8
14724.8
14724.8
14724.8
14724.8
14724.8
14724.8
14724.8
14724.8
14724.8
14724.8
14724.8
14724.8
14724.8
14724.8
14724.8
14724.8
14724.8
14724.8
14724.8
14724.8
14724.8
14724.8
14724.8
14724.8
14724.8
24534.8
24534.8
24534.8
24534.8
24534.8
24534.8
24534.8
24534.8
24534.8
24534.8
24534.8
24534.8
24534.8
24534.8
24534.8
24534.8
24534.8
24534.8
24534.8
24534.8
24534.8
24534.8
24534.8
24534.8
24534.8
24534.8
24534.8
24534.8
34344.8
34344.8
34344.8
34344.8
34344.8
34344.8
34344.8
34344.8
34344.8
34344.8
34344.8
34344.8
34344.8
34344.8
34344.8
34344.8
34344.8
34344.8
34344.8
34344.8
34344.8
34344.8
34344.8
34344.8
34344.8
34344.8
34344.8
34344.8
5.00265
5.00174
5.00162
5.00185
4914.9
4914.91
4914.85
4914.91
)
;

boundaryField
{
    top_fluid_surface
    {
        type            calculated;
        value           nonuniform List<scalar> 
64
(
-2.12145e-08
-8.56053e-09
-1.08995e-09
0
-2.10019e-08
-6.74606e-09
-1.77069e-08
-1.52578e-08
-2.61159e-09
0
0
-6.03214e-09
-1.84813e-08
-1.88443e-09
0
-3.17333e-09
0
0
0
0
-3.75754e-10
-2.59423e-10
0
0
-1.18008e-08
0
0
0
0
0
-4.30427e-09
0
-8.2286e-10
0
-2.041e-09
0
0
0
-2.51029e-08
0
-2.80527e-10
-2.52088e-08
-1.00266e-08
-3.21033e-09
-3.39184e-08
-1.65409e-13
-3.90714e-09
-1.03737e-08
-1.6724e-09
-1.09636e-09
-4.70072e-10
-4.60227e-09
-2.8048e-08
-1.42933e-09
-9.30612e-09
-8.62219e-09
-4.42246e-09
-7.87201e-09
-6.06124e-09
-1.0477e-07
-9.0247e-09
-1.67179e-08
-1.97545e-11
-2.97343e-08
)
;
    }
    bottom_fluid_surface
    {
        type            calculated;
        value           nonuniform List<scalar> 
64
(
39249.8
39249.8
39249.8
39249.8
39249.8
39249.8
39249.8
39249.8
39249.8
39249.8
39249.8
39249.8
39249.8
39249.8
39249.8
39249.8
39249.8
39249.8
39249.8
39249.8
39249.8
39249.8
39249.8
39249.8
39249.8
39249.8
39249.8
39249.8
39249.8
39249.8
39249.8
39249.8
39249.8
39249.8
39249.8
39249.8
39249.8
39249.8
39249.8
39249.8
39249.8
39249.8
39249.8
39249.8
39249.8
39249.8
39249.8
39249.8
39249.8
39249.8
39249.8
39249.8
39249.8
39249.8
39249.8
39249.8
39249.8
39249.8
39249.8
39249.8
39249.8
39249.8
39249.8
39249.8
)
;
    }
    lateral_surface_1
    {
        type            calculated;
        value           nonuniform List<scalar> 
40
(
5.0013
5.00016
4.99244
5.00184
4.9986
5.00199
4.99737
5.002
4914.9
4914.86
4914.8
4914.86
4914.86
4914.92
4914.87
4914.94
14724.8
14724.8
14724.8
14724.8
14724.8
14724.8
14724.8
14724.8
24534.8
24534.8
24534.8
24534.8
24534.8
24534.8
24534.8
24534.8
34344.8
34344.8
34344.8
34344.8
34344.8
34344.8
34344.8
34344.8
)
;
    }
    lateral_surface_2
    {
        type            calculated;
        value           nonuniform List<scalar> 
40
(
4.99935
4.999
5.00019
5.00123
5.00187
5.00221
5.00273
5.00238
4914.92
4914.89
4914.9
4914.89
4914.91
4914.92
4914.89
4914.92
14724.8
14724.8
14724.8
14724.8
14724.8
14724.8
14724.8
14724.8
24534.8
24534.8
24534.8
24534.8
24534.8
24534.8
24534.8
24534.8
34344.8
34344.8
34344.8
34344.8
34344.8
34344.8
34344.8
34344.8
)
;
    }
    lateral_surface_3
    {
        type            calculated;
        value           nonuniform List<scalar> 
40
(
4.99737
4.99786
4.99853
4.99917
5.00028
4.99965
4.99905
4.99935
4914.87
4914.86
4914.9
4914.92
4914.9
4914.91
4914.91
4914.92
14724.8
14724.8
14724.8
14724.8
14724.8
14724.8
14724.8
14724.8
24534.8
24534.8
24534.8
24534.8
24534.8
24534.8
24534.8
24534.8
34344.8
34344.8
34344.8
34344.8
34344.8
34344.8
34344.8
34344.8
)
;
    }
    lateral_surface_4
    {
        type            calculated;
        value           nonuniform List<scalar> 
40
(
5.00238
5.00172
5.00283
5.00213
5.00199
5.00187
5.00255
5.002
4914.92
4914.89
4914.9
4914.91
4914.91
4914.92
4914.91
4914.94
14724.8
14724.8
14724.8
14724.8
14724.8
14724.8
14724.8
14724.8
24534.8
24534.8
24534.8
24534.8
24534.8
24534.8
24534.8
24534.8
34344.8
34344.8
34344.8
34344.8
34344.8
34344.8
34344.8
34344.8
)
;
    }
}


// ************************************************************************* //
