/*--------------------------------*- C++ -*----------------------------------*\
| =========                 |                                                 |
| \\      /  F ield         | OpenFOAM: The Open Source CFD Toolbox           |
|  \\    /   O peration     | Version:  v1612+                                |
|   \\  /    A nd           | Web:      www.OpenFOAM.com                      |
|    \\/     M anipulation  |                                                 |
\*---------------------------------------------------------------------------*/
FoamFile
{
    version     2.0;
    format      ascii;
    class       volScalarField;
    location    "1.35";
    object      alpha.water;
}
// * * * * * * * * * * * * * * * * * * * * * * * * * * * * * * * * * * * * * //

dimensions      [0 0 0 0 0 0 0];

internalField   nonuniform List<scalar> 
1116
(
1
1
1
1
1
1
1
1
1
1
1
1
1
1
1
1
1
1
0.999995
0.999995
0.999995
0.999995
0.999995
0.999995
0.999925
0.999925
0.999925
0.999925
0.999925
0.999925
0.979564
0.979562
0.979563
0.979563
0.979563
0.979564
0.923465
0.923457
0.923459
0.92346
0.923459
0.923462
0.794122
0.794129
0.79413
0.794131
0.794129
0.794125
0.322646
0.322681
0.322681
0.32268
0.322678
0.322653
0.00224882
0.00225028
0.00225025
0.00225022
0.00225016
0.00224898
0.000176349
0.000176415
0.000176402
0.0001764
0.000176409
0.000176325
9.2873e-05
9.29123e-05
9.29016e-05
9.28997e-05
9.29099e-05
9.28556e-05
1
1
1
1
1
1
1
1
1
1
1
1
0.999995
0.999995
0.999995
0.999995
0.999995
0.999995
0.999892
0.999892
0.999892
0.999892
0.999892
0.999892
0.841281
0.841279
0.841282
0.841282
0.841283
0.841286
0.4421
0.442097
0.442103
0.442104
0.442103
0.442108
0.0307655
0.0307633
0.0307652
0.0307661
0.0307652
0.0307671
5.66879e-06
5.66943e-06
5.66927e-06
5.66906e-06
5.66908e-06
5.66891e-06
0.000119089
0.000119077
0.000119077
0.000119072
0.000119046
0.000119028
0.00743271
0.00743274
0.00743266
0.0074326
0.00743245
0.0074325
0.00228692
0.00228739
0.00228728
0.00228726
0.00228735
0.00228674
1.5884e-05
1.58967e-05
1.58935e-05
1.58932e-05
1.58975e-05
1.58831e-05
1
1
1
1
1
1
0.999994
0.999994
0.999994
0.999994
0.999994
0.999994
0.970857
0.97086
0.97086
0.97086
0.970861
0.970863
0.581375
0.581382
0.581386
0.581387
0.581388
0.581397
0.0725716
0.0725716
0.072575
0.0725756
0.0725767
0.0725816
2.00476e-06
2.00602e-06
2.00615e-06
2.00612e-06
2.00586e-06
2.00583e-06
-8.18927e-08
-8.21565e-08
-8.21523e-08
-8.21587e-08
-8.22372e-08
-8.19915e-08
3.0247e-07
3.02396e-07
3.02326e-07
3.02215e-07
3.01918e-07
3.01796e-07
0.000198948
0.000198915
0.000198918
0.000198909
0.000198852
0.000198824
0.00118173
0.00118174
0.00118168
0.00118167
0.0011817
0.00118161
0.000744232
0.000744442
0.000744373
0.00074438
0.000744501
0.000744232
1.0887e-05
1.08985e-05
1.08954e-05
1.08952e-05
1.08993e-05
1.08868e-05
0.999994
0.999994
0.999994
0.999994
0.999994
0.999994
0.945407
0.94541
0.94541
0.94541
0.94541
0.945412
0.336071
0.336079
0.336081
0.336081
0.336083
0.336092
5.75529e-06
5.75793e-06
5.75788e-06
5.75816e-06
5.75874e-06
5.76081e-06
2.86486e-07
2.86479e-07
2.86467e-07
2.8646e-07
2.86465e-07
2.86473e-07
-1.08918e-09
-1.08988e-09
-1.08999e-09
-1.09001e-09
-1.09008e-09
-1.09e-09
6.66272e-09
6.66454e-09
6.66307e-09
6.66129e-09
6.65845e-09
6.65418e-09
2.75772e-07
2.75564e-07
2.75425e-07
2.75207e-07
2.74606e-07
2.74359e-07
4.86106e-06
4.86123e-06
4.86095e-06
4.86085e-06
4.86073e-06
4.8606e-06
2.02917e-06
2.02908e-06
2.02892e-06
2.02894e-06
2.02914e-06
2.02888e-06
1.22799e-06
1.2292e-06
1.22897e-06
1.22898e-06
1.22943e-06
1.22821e-06
1.46481e-06
1.46676e-06
1.46636e-06
1.46638e-06
1.46714e-06
1.46521e-06
2.9538e-72
2.95805e-72
2.95846e-72
2.95889e-72
2.95985e-72
2.95685e-72
8.24722e-68
8.25845e-68
8.25917e-68
8.26021e-68
8.26269e-68
8.25392e-68
1.1074e-63
1.10886e-63
1.10894e-63
1.10907e-63
1.10941e-63
1.10824e-63
9.42656e-60
9.4386e-60
9.4392e-60
9.44033e-60
9.44329e-60
9.43359e-60
5.67185e-56
5.67888e-56
5.67921e-56
5.67994e-56
5.68182e-56
5.67614e-56
2.56008e-52
2.56318e-52
2.56334e-52
2.5637e-52
2.5646e-52
2.56213e-52
9.03249e-49
9.04331e-49
9.04394e-49
9.04537e-49
9.04875e-49
9.04033e-49
2.57829e-45
2.58138e-45
2.58157e-45
2.58202e-45
2.58303e-45
2.5807e-45
6.19727e-42
6.20468e-42
6.20518e-42
6.20629e-42
6.20882e-42
6.20332e-42
1.34841e-38
1.35001e-38
1.35011e-38
1.35035e-38
1.35092e-38
1.34973e-38
2.66264e-35
2.66587e-35
2.66604e-35
2.66648e-35
2.66756e-35
2.66517e-35
4.07532e-32
4.08042e-32
4.08064e-32
4.08126e-32
4.08281e-32
4.07898e-32
1.51553e-68
1.51763e-68
1.51777e-68
1.51796e-68
1.51843e-68
1.51687e-68
4.19894e-64
4.20447e-64
4.20473e-64
4.20518e-64
4.20639e-64
4.2019e-64
5.56902e-60
5.57614e-60
5.57642e-60
5.57698e-60
5.57861e-60
5.57273e-60
4.65006e-56
4.65581e-56
4.65601e-56
4.65649e-56
4.65791e-56
4.65312e-56
2.72045e-52
2.72372e-52
2.72382e-52
2.72413e-52
2.72501e-52
2.7223e-52
1.18215e-48
1.18353e-48
1.18358e-48
1.18373e-48
1.18414e-48
1.18301e-48
3.98249e-45
3.98709e-45
3.98726e-45
3.98783e-45
3.9893e-45
3.98561e-45
1.08871e-41
1.08996e-41
1.09e-41
1.09017e-41
1.0906e-41
1.08961e-41
2.55571e-38
2.55859e-38
2.5587e-38
2.5591e-38
2.56013e-38
2.55786e-38
5.4471e-35
5.45317e-35
5.45333e-35
5.45417e-35
5.45638e-35
5.45155e-35
1.0081e-31
1.00927e-31
1.00929e-31
1.00943e-31
1.00982e-31
1.00889e-31
1.20992e-28
1.21139e-28
1.21142e-28
1.21157e-28
1.21202e-28
1.21084e-28
1.01673e-64
1.01809e-64
1.01818e-64
1.01833e-64
1.01868e-64
1.01767e-64
2.9518e-60
2.95556e-60
2.95577e-60
2.95615e-60
2.9571e-60
2.9541e-60
4.07371e-56
4.07878e-56
4.07903e-56
4.07954e-56
4.08087e-56
4.07678e-56
3.49664e-52
3.50089e-52
3.50108e-52
3.50153e-52
3.50271e-52
3.49928e-52
2.06426e-48
2.06672e-48
2.06682e-48
2.0671e-48
2.06783e-48
2.06586e-48
8.80752e-45
8.81785e-45
8.81829e-45
8.81955e-45
8.82281e-45
8.81463e-45
2.78943e-41
2.79267e-41
2.79281e-41
2.79322e-41
2.79429e-41
2.79174e-41
6.61838e-38
6.626e-38
6.62627e-38
6.62724e-38
6.6298e-38
6.6238e-38
1.18213e-34
1.18348e-34
1.18351e-34
1.18367e-34
1.18413e-34
1.18305e-34
1.66384e-31
1.66571e-31
1.66573e-31
1.66594e-31
1.66657e-31
1.66503e-31
2.14003e-28
2.14246e-28
2.14244e-28
2.14269e-28
2.1435e-28
2.14147e-28
1.69277e-25
1.6948e-25
1.6948e-25
1.69499e-25
1.69561e-25
1.69392e-25
1.01678e-61
1.01805e-61
1.01812e-61
1.01827e-61
1.01864e-61
1.01766e-61
3.20923e-57
3.21309e-57
3.21327e-57
3.2137e-57
3.2148e-57
3.21163e-57
4.7619e-53
4.76752e-53
4.76775e-53
4.76839e-53
4.77005e-53
4.76542e-53
4.31585e-49
4.32087e-49
4.32105e-49
4.32165e-49
4.32321e-49
4.3191e-49
2.62115e-45
2.62416e-45
2.62427e-45
2.62465e-45
2.62564e-45
2.62319e-45
1.11331e-41
1.11458e-41
1.11463e-41
1.1148e-41
1.11523e-41
1.11421e-41
3.40394e-38
3.40781e-38
3.40794e-38
3.40846e-38
3.40981e-38
3.40671e-38
7.75098e-35
7.75974e-35
7.75995e-35
7.76109e-35
7.76415e-35
7.75707e-35
1.37749e-31
1.37902e-31
1.37903e-31
1.37922e-31
1.37975e-31
1.37847e-31
2.00174e-28
2.00395e-28
2.00393e-28
2.00416e-28
2.00492e-28
2.00303e-28
2.42158e-25
2.42428e-25
2.42421e-25
2.42449e-25
2.42542e-25
2.42307e-25
1.20284e-22
1.20424e-22
1.20421e-22
1.20434e-22
1.2048e-22
1.20357e-22
0.974725
0.974726
0.974726
0.974726
0.974725
0.974727
0.551568
0.551571
0.551571
0.55157
0.551569
0.551575
0.116246
0.116247
0.116248
0.116247
0.116247
0.11625
0.246691
0.246695
0.246695
0.246695
0.246695
0.246699
5.76188e-11
5.78985e-11
5.79796e-11
5.79039e-11
5.78812e-11
5.7936e-11
4.38406e-25
4.30134e-25
4.21862e-25
4.38406e-25
4.30134e-25
4.21862e-25
-1.81004e-07
-1.81178e-07
-1.81179e-07
-1.81195e-07
-1.81226e-07
-1.81336e-07
1.33928e-09
1.34624e-09
1.34827e-09
1.34638e-09
1.34582e-09
1.34721e-09
-4.66797e-16
-4.60696e-16
-5.87117e-16
-8.54661e-16
-1.22394e-15
-4.55928e-17
4.0115e-07
4.0121e-07
4.01204e-07
4.01198e-07
4.01211e-07
4.01229e-07
5.3888e-06
5.38757e-06
5.38789e-06
5.3877e-06
5.38726e-06
5.38578e-06
7.93835e-08
7.98729e-08
8.0015e-08
7.98825e-08
7.98457e-08
7.995e-08
7.51863e-10
7.51246e-10
7.55895e-10
7.54599e-10
7.65897e-10
7.73482e-10
5.03873e-05
5.03875e-05
5.03876e-05
5.03877e-05
5.03878e-05
5.03879e-05
2.30469e-07
2.31488e-07
2.32016e-07
2.31721e-07
2.31629e-07
2.32026e-07
-5.86143e-12
-5.86517e-12
-5.86397e-12
-5.8622e-12
-5.85997e-12
-5.85631e-12
-1.68676e-17
-1.6774e-17
-1.67344e-17
-1.66947e-17
-1.66874e-17
1.84132e-16
9.58829e-23
9.5288e-23
9.49758e-23
9.51595e-23
9.52341e-23
9.49281e-23
1.13065e-08
1.13097e-08
1.13072e-08
1.13038e-08
1.12981e-08
1.12906e-08
7.53241e-15
7.53659e-15
7.53589e-15
7.53564e-15
7.53681e-15
7.53111e-15
6.79369e-18
6.79383e-18
6.79424e-18
6.79458e-18
6.79503e-18
6.79531e-18
8.673e-08
8.67602e-08
8.67472e-08
8.67376e-08
8.67343e-08
8.66949e-08
7.15639e-13
7.15986e-13
7.15914e-13
7.1589e-13
7.15998e-13
7.15501e-13
-1.01077e-17
-1.01509e-17
-1.0149e-17
-1.01612e-17
-1.01883e-17
-1.0135e-17
1.58955e-07
1.58935e-07
1.58932e-07
1.58946e-07
1.58994e-07
1.59017e-07
4.38829e-10
4.38056e-10
4.38046e-10
4.381e-10
4.38201e-10
4.38432e-10
7.06327e-13
7.06662e-13
7.0659e-13
7.06565e-13
7.06666e-13
7.06179e-13
7.63988e-08
7.63989e-08
7.63923e-08
7.63938e-08
7.64067e-08
7.63884e-08
2.19892e-09
2.1991e-09
2.1989e-09
2.19895e-09
2.19938e-09
2.19865e-09
9.58963e-11
9.59308e-11
9.59174e-11
9.5912e-11
9.59224e-11
9.58723e-11
9.11891e-08
9.12817e-08
9.12686e-08
9.12746e-08
9.13139e-08
9.12258e-08
3.9719e-09
3.97382e-09
3.97374e-09
3.9743e-09
3.97597e-09
3.97387e-09
1.72723e-10
1.72912e-10
1.72895e-10
1.72916e-10
1.73005e-10
1.72828e-10
2.69301e-08
2.6951e-08
2.695e-08
2.69542e-08
2.69682e-08
2.69514e-08
1.7261e-10
1.72799e-10
1.72782e-10
1.72803e-10
1.72892e-10
1.72714e-10
6.0309e-12
6.03717e-12
6.03665e-12
6.03721e-12
6.0397e-12
6.03373e-12
6.03664e-18
6.04374e-18
6.04332e-18
6.04395e-18
6.0465e-18
6.03986e-18
7.90391e-19
7.91356e-19
7.91331e-19
7.91446e-19
7.91813e-19
7.90941e-19
1.24807e-20
1.24955e-20
1.24954e-20
1.24973e-20
1.2503e-20
1.24899e-20
5.78344e-17
5.78938e-17
5.78921e-17
5.78996e-17
5.79231e-17
5.78695e-17
3.23568e-17
3.23959e-17
3.23946e-17
3.23993e-17
3.24145e-17
3.2379e-17
1.16817e-18
1.16957e-18
1.16954e-18
1.16971e-18
1.17026e-18
1.169e-18
7.13023e-16
7.13822e-16
7.13758e-16
7.1382e-16
7.14107e-16
7.13341e-16
2.23453e-16
2.23716e-16
2.23701e-16
2.23728e-16
2.23831e-16
2.23586e-16
4.87622e-17
4.88169e-17
4.88153e-17
4.88221e-17
4.88442e-17
4.87947e-17
1.94156e-14
1.94379e-14
1.94357e-14
1.94372e-14
1.94454e-14
1.94238e-14
2.32342e-14
2.32543e-14
2.32536e-14
2.32568e-14
2.32669e-14
2.32465e-14
3.73197e-16
3.73576e-16
3.73585e-16
3.73658e-16
3.73851e-16
3.73525e-16
1.05099e-12
1.05221e-12
1.05207e-12
1.05216e-12
1.05263e-12
1.05144e-12
1.11099e-12
1.11146e-12
1.11144e-12
1.11146e-12
1.11151e-12
1.11111e-12
4.19312e-14
4.19644e-14
4.19638e-14
4.19678e-14
4.19794e-14
4.19518e-14
1.98614e-10
1.98714e-10
1.9874e-10
1.98802e-10
1.98942e-10
1.989e-10
5.4694e-12
5.47579e-12
5.47527e-12
5.47588e-12
5.47854e-12
5.47258e-12
1.92198e-13
1.92432e-13
1.92416e-13
1.92434e-13
1.92512e-13
1.92306e-13
1.90883e-58
1.91114e-58
1.91131e-58
1.91167e-58
1.91245e-58
1.9107e-58
2.58762e-61
2.59079e-61
2.59104e-61
2.59154e-61
2.59264e-61
2.59018e-61
6.63015e-65
6.6383e-65
6.63895e-65
6.64027e-65
6.64307e-65
6.63672e-65
8.25141e-54
8.26106e-54
8.26165e-54
8.26308e-54
8.26633e-54
8.25851e-54
1.59454e-56
1.59645e-56
1.59657e-56
1.59687e-56
1.59752e-56
1.59597e-56
4.69082e-60
4.69647e-60
4.69685e-60
4.69774e-60
4.69967e-60
4.69509e-60
1.66565e-49
1.66757e-49
1.66767e-49
1.66796e-49
1.66861e-49
1.66705e-49
4.72364e-52
4.72923e-52
4.72956e-52
4.73043e-52
4.7324e-52
4.72785e-52
1.69062e-55
1.69264e-55
1.69277e-55
1.69309e-55
1.6938e-55
1.69216e-55
2.02568e-45
2.02798e-45
2.0281e-45
2.02844e-45
2.02925e-45
2.02738e-45
8.547e-48
8.55707e-48
8.55765e-48
8.55925e-48
8.5629e-48
8.55476e-48
3.92102e-51
3.92568e-51
3.92597e-51
3.92673e-51
3.92841e-51
3.92467e-51
1.60883e-41
1.61065e-41
1.61073e-41
1.61101e-41
1.61166e-41
1.6102e-41
1.01058e-43
1.01177e-43
1.01184e-43
1.01203e-43
1.01247e-43
1.01152e-43
6.22866e-47
6.23606e-47
6.23652e-47
6.23775e-47
6.24049e-47
6.23463e-47
8.51455e-38
8.52417e-38
8.52462e-38
8.5261e-38
8.5296e-38
8.52186e-38
7.88558e-40
7.89489e-40
7.89538e-40
7.89691e-40
7.90038e-40
7.89295e-40
6.81603e-43
6.82414e-43
6.82463e-43
6.826e-43
6.82902e-43
6.82263e-43
2.95376e-34
2.95711e-34
2.95724e-34
2.95774e-34
2.95896e-34
2.95625e-34
3.98457e-36
3.98928e-36
3.9895e-36
3.99025e-36
3.99201e-36
3.98821e-36
5.01989e-39
5.02586e-39
5.02618e-39
5.02716e-39
5.02938e-39
5.02461e-39
6.4481e-31
6.45539e-31
6.45558e-31
6.45662e-31
6.45923e-31
6.45321e-31
1.26179e-32
1.26327e-32
1.26332e-32
1.26355e-32
1.2641e-32
1.26287e-32
2.3884e-35
2.39121e-35
2.39133e-35
2.39177e-35
2.39281e-35
2.3905e-35
8.4093e-28
8.41873e-28
8.41882e-28
8.42006e-28
8.42343e-28
8.41539e-28
2.40643e-29
2.40924e-29
2.40929e-29
2.4097e-29
2.41074e-29
2.40836e-29
6.96243e-32
6.97054e-32
6.97077e-32
6.97199e-32
6.97499e-32
6.96819e-32
6.26746e-25
6.27447e-25
6.27441e-25
6.27527e-25
6.27777e-25
6.27164e-25
2.63649e-26
2.63955e-26
2.63958e-26
2.64001e-26
2.64116e-26
2.63852e-26
1.17029e-28
1.17165e-28
1.17167e-28
1.17187e-28
1.17238e-28
1.17123e-28
2.59009e-22
2.593e-22
2.59294e-22
2.59327e-22
2.59431e-22
2.59171e-22
1.57916e-23
1.58101e-23
1.58101e-23
1.58126e-23
1.58196e-23
1.58035e-23
1.07299e-25
1.07424e-25
1.07425e-25
1.07443e-25
1.0749e-25
1.07384e-25
5.55675e-20
5.56312e-20
5.56288e-20
5.56353e-20
5.56582e-20
5.56001e-20
4.87737e-21
4.88318e-21
4.88312e-21
4.88387e-21
4.88608e-21
4.88093e-21
5.11648e-23
5.12246e-23
5.12248e-23
5.12331e-23
5.1256e-23
5.1204e-23
)
;

boundaryField
{
    seabed_topleft_surface
    {
        type            zeroGradient;
    }
    seabed_topright_surface
    {
        type            zeroGradient;
    }
    breakwater_top_surface
    {
        type            zeroGradient;
    }
    breakwater_left_surface
    {
        type            zeroGradient;
    }
    breakwater_right_surface
    {
        type            zeroGradient;
    }
    water_front_surface
    {
        type            zeroGradient;
    }
    water_back_surface
    {
        type            zeroGradient;
    }
    water_left_surface
    {
        type            zeroGradient;
    }
    water_right_surface
    {
        type            zeroGradient;
    }
    water_top_surface
    {
        type            inletOutlet;
        inletValue      uniform 0;
        value           nonuniform List<scalar> 
180
(
0.116246
0.116247
0.116248
0.116247
0.116247
0.11625
0
0
0
0
0
0
0
0
0
0
0
0
0
0
0
0
0
0
0
0
0
0
0
0
0
0
0
0
0
0
0
0
0
0
0
0
0
0
0
0
0
0
7.06327e-13
7.06662e-13
7.0659e-13
7.06565e-13
7.06666e-13
7.06179e-13
9.58963e-11
9.59308e-11
9.59174e-11
9.5912e-11
9.59224e-11
9.58723e-11
1.72723e-10
1.72912e-10
1.72895e-10
1.72916e-10
1.73005e-10
1.72828e-10
6.0309e-12
6.03717e-12
6.03665e-12
6.03721e-12
6.0397e-12
6.03373e-12
1.24807e-20
1.24955e-20
1.24954e-20
1.24973e-20
1.2503e-20
1.24899e-20
1.16817e-18
1.16957e-18
1.16954e-18
1.16971e-18
1.17026e-18
1.169e-18
4.87622e-17
4.88169e-17
4.88153e-17
4.88221e-17
4.88442e-17
4.87947e-17
3.73197e-16
3.73576e-16
3.73585e-16
3.73658e-16
3.73851e-16
3.73525e-16
4.19312e-14
4.19644e-14
4.19638e-14
4.19678e-14
4.19794e-14
4.19518e-14
1.92198e-13
1.92432e-13
1.92416e-13
1.92434e-13
1.92512e-13
1.92306e-13
6.63015e-65
6.6383e-65
6.63895e-65
6.64027e-65
6.64307e-65
6.63672e-65
4.69082e-60
4.69647e-60
4.69685e-60
4.69774e-60
4.69967e-60
4.69509e-60
1.69062e-55
1.69264e-55
1.69277e-55
1.69309e-55
1.6938e-55
1.69216e-55
3.92102e-51
3.92568e-51
3.92597e-51
3.92673e-51
3.92841e-51
3.92467e-51
6.22866e-47
6.23606e-47
6.23652e-47
6.23775e-47
6.24049e-47
6.23463e-47
6.81603e-43
6.82414e-43
6.82463e-43
6.826e-43
6.82902e-43
6.82263e-43
5.01989e-39
5.02586e-39
5.02618e-39
5.02716e-39
5.02938e-39
5.02461e-39
2.3884e-35
2.39121e-35
2.39133e-35
2.39177e-35
2.39281e-35
2.3905e-35
6.96243e-32
6.97054e-32
6.97077e-32
6.97199e-32
6.97499e-32
6.96819e-32
1.17029e-28
1.17165e-28
1.17167e-28
1.17187e-28
1.17238e-28
1.17123e-28
1.07299e-25
1.07424e-25
1.07425e-25
1.07443e-25
1.0749e-25
1.07384e-25
5.11648e-23
5.12246e-23
5.12248e-23
5.12331e-23
5.1256e-23
5.1204e-23
)
;
    }
}


// ************************************************************************* //
