/*--------------------------------*- C++ -*----------------------------------*\
| =========                 |                                                 |
| \\      /  F ield         | OpenFOAM: The Open Source CFD Toolbox           |
|  \\    /   O peration     | Version:  v1612+                                |
|   \\  /    A nd           | Web:      www.OpenFOAM.com                      |
|    \\/     M anipulation  |                                                 |
\*---------------------------------------------------------------------------*/
FoamFile
{
    version     2.0;
    format      ascii;
    class       surfaceScalarField;
    location    "1.35";
    object      alphaPhi;
}
// * * * * * * * * * * * * * * * * * * * * * * * * * * * * * * * * * * * * * //

dimensions      [0 3 -1 0 0 0 0];

internalField   nonuniform List<scalar> 
2916
(
2.76871e-07
0.368994
-0.368994
3.68364e-07
0.368996
-0.368996
5.8911e-07
0.368996
-0.368996
9.86495e-07
0.368996
-0.368996
9.69773e-07
0.368996
-0.368996
0.368995
-0.368994
9.86375e-07
0.844052
-0.475059
1.12308e-06
0.844055
-0.47506
1.36297e-06
0.844054
-0.475059
1.0917e-06
0.844054
-0.475058
4.75356e-07
0.844053
-0.475057
0.844051
-0.475055
2.08423e-06
1.39744
-0.553385
3.69991e-06
1.39744
-0.553385
2.9387e-06
1.39744
-0.553382
1.53642e-06
1.39744
-0.55338
8.06969e-07
1.39744
-0.55338
1.39743
-0.553378
-1.6948e-06
2.07166
-0.674198
2.08172e-06
2.07166
-0.674202
3.80312e-07
2.07166
-0.674196
-1.67392e-06
2.07166
-0.674195
-1.3333e-06
2.07166
-0.674197
2.07165
-0.674199
-1.71264e-05
2.82082
-0.749081
-6.51993e-06
2.82083
-0.749109
-2.58131e-06
2.82083
-0.749104
-1.78866e-06
2.82083
-0.749103
1.26964e-06
2.82083
-0.749106
2.82083
-0.749106
-3.11361e-05
3.42825
-0.648503
-1.32651e-05
3.42826
-0.648562
-2.55465e-06
3.42827
-0.648561
9.47379e-07
3.42827
-0.648558
4.02192e-06
3.42827
-0.648559
3.42828
-0.648555
-3.06444e-05
3.544
-0.202162
-1.52363e-05
3.54402
-0.202184
-1.00994e-07
3.54403
-0.202185
6.14123e-06
3.54404
-0.202183
3.85605e-06
3.54404
-0.202182
3.54404
-0.202182
-3.19105e-06
2.60625
-0.117677
-2.29459e-06
2.60641
-0.117673
-3.15375e-06
2.60641
-0.117675
-5.46105e-06
2.60641
-0.117676
-2.1072e-06
2.60641
-0.117675
2.60631
-0.117681
-9.07761e-06
0.0764376
-0.052275
-3.76151e-06
0.0765026
-0.0522409
-6.19133e-06
0.0765015
-0.052245
-1.09324e-05
0.0764996
-0.0522453
-1.43268e-06
0.0764978
-0.0522351
0.07645
-0.052278
-2.41923e-06
0.00828636
0.0259277
-1.27706e-06
0.00828837
0.0259279
-8.28286e-07
0.00828812
0.0259286
-1.00899e-06
0.00828815
0.0259287
3.39171e-07
0.00828839
0.0259282
0.00828563
0.0259295
5.65425e-08
0.00162712
0.00464742
1.86409e-07
0.00162771
0.00464815
2.94529e-07
0.00162758
0.00464817
4.69788e-07
0.00162755
0.00464815
6.09085e-07
0.00162765
0.00464827
0.00162677
0.00464803
-2.62274e-09
0.000555469
4.55432e-08
0.00055568
7.04606e-08
0.000555658
8.86129e-08
0.000555661
9.4444e-08
0.000555689
0.000555466
9.71666e-07
0.371439
-0.740435
9.13332e-07
0.371442
-0.740437
8.61216e-07
0.371441
-0.740436
6.462e-07
0.37144
-0.740435
4.98465e-08
0.37144
-0.740435
0.371438
-0.740432
3.66875e-06
0.776164
-0.879787
3.82715e-06
0.776172
-0.879789
2.85583e-06
0.77617
-0.879786
1.17891e-06
0.776169
-0.879785
6.22616e-07
0.776169
-0.879784
0.776165
-0.87978
8.33743e-06
1.25793
-1.03512
8.80126e-06
1.25794
-1.03512
4.2034e-06
1.25794
-1.03511
1.0273e-06
1.25794
-1.03511
1.67834e-06
1.25793
-1.03511
1.25793
-1.0351
-2.25331e-06
1.85934
-1.27385
2.57031e-06
1.85936
-1.27387
1.67085e-06
1.85936
-1.27386
2.28934e-06
1.85936
-1.27386
4.42211e-06
1.85935
-1.27387
1.85935
-1.27387
-7.89051e-06
1.69189
-0.593718
6.8466e-07
1.69191
-0.593743
4.39328e-06
1.69192
-0.593749
6.25363e-06
1.69192
-0.59375
5.71826e-06
1.69192
-0.593755
1.69193
-0.593765
-3.58988e-06
0.623687
-0.133956
3.27543e-06
0.623687
-0.133964
6.67756e-06
0.623701
-0.133966
7.12896e-06
0.623706
-0.133967
4.87458e-06
0.623704
-0.133967
0.623712
-0.13397
-2.74577e-07
0.128271
-0.00797922
-2.45859e-07
0.128281
-0.00798034
4.22122e-08
0.128282
-0.00798052
-8.62762e-09
0.128283
-0.00798052
-3.98662e-07
0.128285
-0.00798073
0.128278
-0.00798094
-2.55741e-07
0.0111062
-0.000496609
-3.87339e-07
0.0111194
-0.000496695
-4.12123e-07
0.0111183
-0.000496695
-3.17906e-07
0.0111182
-0.000496698
-2.88408e-07
0.0111213
-0.000496758
0.0111081
-0.000496754
-2.19911e-07
0.00918648
-0.00135371
-2.81035e-07
0.0091819
-0.00135401
-3.53426e-07
0.00918234
-0.001354
-4.21089e-07
0.0091823
-0.00135399
-3.82148e-07
0.00918099
-0.00135404
0.00918559
-0.00135374
-2.96409e-07
0.0249649
0.00191235
-1.54029e-06
0.0249675
0.00191194
-1.91232e-06
0.0249667
0.00191195
-2.19605e-06
0.0249665
0.00191194
-2.69566e-06
0.0249672
0.00191186
0.0249629
0.00191228
-7.03311e-08
-7.67395e-05
0.00867603
-2.74186e-07
-7.66023e-05
0.00867688
-3.58889e-07
-7.66767e-05
0.0086765
-5.38615e-07
-7.66949e-05
0.00867648
-3.78102e-07
-7.66083e-05
0.00867692
-7.68564e-05
0.00867577
-6.88119e-09
0.000237194
2.02093e-08
0.000237331
3.5218e-08
0.000237295
4.52884e-08
0.000237292
6.19108e-08
0.000237341
0.000237168
4.51889e-06
0.285964
-1.0264
4.21475e-06
0.28597
-1.02641
3.56084e-06
0.285969
-1.0264
2.62374e-06
0.285969
-1.0264
1.62727e-06
0.285969
-1.0264
0.285969
-1.0264
1.17667e-05
0.536418
-1.1302
1.07734e-05
0.536436
-1.1302
6.54062e-06
0.536437
-1.1302
3.33428e-06
0.536437
-1.13019
4.10193e-06
0.536435
-1.1302
0.536433
-1.13019
1.19029e-05
0.923358
-1.18067
9.30424e-06
0.923389
-1.18068
5.66092e-06
0.923391
-1.18068
5.24207e-06
0.923389
-1.18068
6.47916e-06
0.923387
-1.18068
0.923392
-1.18068
9.73736e-06
0.479682
-0.254788
9.58341e-06
0.479708
-0.254799
9.78814e-06
0.479715
-0.2548
1.06658e-05
0.479715
-0.254801
6.10487e-06
0.479717
-0.254801
0.47973
-0.254808
3.6836e-06
0.142073
-0.0136842
4.08517e-06
0.142082
-0.0136861
4.6514e-06
0.142085
-0.0136864
4.78496e-06
0.142085
-0.0136864
2.83424e-06
0.142086
-0.0136865
0.142089
-0.0136872
5.43295e-08
0.0084933
-0.000392111
2.5511e-07
0.00849448
-0.000392256
2.92689e-07
0.00849467
-0.000392269
2.75931e-07
0.00849468
-0.000392269
1.72054e-07
0.00849492
-0.000392279
0.00849518
-0.000392289
2.15723e-09
0.00052223
-2.06508e-06
-1.29671e-08
0.000522317
-2.06681e-06
-1.40183e-08
0.000522312
-2.06679e-06
-1.20908e-08
0.000522313
-2.06686e-06
-2.23051e-08
0.000522373
-2.06745e-06
0.000522366
-2.06776e-06
7.21346e-10
3.87805e-05
-1.00788e-05
-1.66194e-09
3.87845e-05
-1.00792e-05
-2.12907e-09
3.87786e-05
-1.0079e-05
-1.37404e-09
3.87748e-05
-1.00786e-05
-1.76199e-09
3.87753e-05
-1.00783e-05
3.87707e-05
-1.00779e-05
1.45251e-09
0.000741295
-2.61892e-05
-2.4114e-08
0.000741428
-2.61934e-05
-4.20208e-08
0.000741285
-2.6201e-05
-5.13157e-08
0.000741244
-2.62066e-05
-6.58877e-08
0.0007414
-2.62136e-05
0.000741091
-2.62148e-05
1.39405e-07
0.000685747
-3.78428e-05
-4.23149e-08
0.00068631
-3.78753e-05
-1.3091e-07
0.000686037
-3.78725e-05
-2.64993e-07
0.000686038
-3.78757e-05
-4.36044e-07
0.000686517
-3.789e-05
0.000685724
-3.78576e-05
1.58607e-07
-1.88818e-05
0.000141799
1.32438e-07
-1.88018e-05
0.000141823
1.02464e-07
-1.88267e-05
0.000141807
3.89484e-08
-1.88306e-05
0.000141805
-2.94934e-08
-1.88012e-05
0.000141812
-1.88816e-05
0.00014178
-6.74764e-10
3.51242e-05
3.10563e-09
3.51656e-05
3.76117e-09
3.51563e-05
3.40484e-09
3.51563e-05
4.72844e-09
3.5172e-05
3.51295e-05
1.33043e-05
0.0524779
-1.07884
1.12131e-05
0.0524882
-1.07884
8.31735e-06
0.0524895
-1.07884
5.3242e-06
0.0524898
-1.07884
4.78166e-06
0.052489
-1.07884
0.0524953
-1.07884
1.20238e-05
0.35198
-0.970431
7.43121e-06
0.352007
-0.970442
2.90063e-06
0.352009
-0.970441
-4.55752e-07
0.352009
-0.970441
1.18782e-06
0.352007
-0.970444
0.352014
-0.970444
1.82348e-06
0.268059
-0.115288
-1.50409e-07
0.268072
-0.11529
7.36561e-07
0.268073
-0.115289
3.64779e-07
0.268073
-0.115289
-3.3732e-06
0.268074
-0.115289
0.26808
-0.115293
4.44542e-07
0.0140098
-0.000619182
5.2953e-07
0.0140119
-0.000619475
6.20473e-07
0.0140121
-0.000619471
7.03867e-07
0.0140121
-0.000619501
5.72117e-07
0.0140123
-0.000619558
0.014013
-0.000619762
4.56438e-08
0.000393938
-6.6847e-05
5.14936e-08
0.000394086
-6.68537e-05
3.55597e-08
0.000394099
-6.6852e-05
2.27212e-08
0.000394099
-6.68508e-05
1.09949e-08
0.000394109
-6.6852e-05
0.000394119
-6.68533e-05
-4.52611e-10
1.83712e-06
-2.05664e-08
-2.37721e-10
1.83887e-06
-2.0574e-08
2.07105e-10
1.83888e-06
-2.05692e-08
4.05e-10
1.83903e-06
-2.05635e-08
4.81594e-11
1.83987e-06
-2.05552e-08
1.84027e-06
-2.05417e-08
1.10154e-13
-2.11655e-07
-1.53076e-08
1.21053e-12
-2.11634e-07
-1.53131e-08
4.88729e-12
-2.1161e-07
-1.531e-08
7.82349e-12
-2.11528e-07
-1.53072e-08
4.06735e-12
-2.11246e-07
-1.53094e-08
-2.11155e-07
-1.53151e-08
3.72839e-11
-3.24352e-06
-2.0842e-07
3.05632e-11
-3.24367e-06
-2.08359e-07
2.62379e-11
-3.24363e-06
-2.08323e-07
1.40497e-11
-3.24334e-06
-2.08271e-07
-3.84126e-11
-3.24214e-06
-2.08147e-07
-3.24197e-06
-2.08107e-07
1.19758e-09
-7.87009e-05
-1.79886e-06
6.04126e-10
-7.86943e-05
-1.79901e-06
4.6716e-10
-7.86929e-05
-1.79862e-06
2.5334e-10
-7.86912e-05
-1.79838e-06
-9.46348e-10
-7.8684e-05
-1.79813e-06
-7.86868e-05
-1.79745e-06
1.63537e-08
-0.000112945
1.50698e-07
1.3912e-08
-0.000112948
1.47707e-07
1.13599e-08
-0.000112944
1.47533e-07
6.1372e-09
-0.000112942
1.47158e-07
-5.60276e-09
-0.000112941
1.46083e-07
-0.000112932
1.4801e-07
9.05321e-09
-1.05444e-06
5.45485e-06
1.28948e-08
-1.0552e-06
5.45803e-06
1.03068e-08
-1.05502e-06
5.45754e-06
6.41658e-09
-1.05501e-06
5.45801e-06
1.23067e-09
-1.0552e-06
5.45994e-06
-1.05442e-06
5.45682e-06
-1.81819e-10
3.25431e-07
-1.99723e-11
3.25577e-07
1.20115e-11
3.25557e-07
-2.10374e-11
3.25597e-07
4.49165e-11
3.25717e-07
3.25691e-07
2.07921e-78
-8.35484e-71
2.99027e-75
5.98084e-79
-8.36705e-71
2.99449e-75
2.03209e-80
-8.36813e-71
2.99479e-75
-2.51972e-79
-8.36937e-71
2.99517e-75
-3.10558e-79
-8.37213e-71
2.99606e-75
-8.36348e-71
2.99275e-75
3.87939e-74
-2.28708e-66
8.66699e-71
5.18272e-75
-2.29025e-66
8.67861e-71
-9.39538e-75
-2.29043e-66
8.6792e-71
-1.81999e-74
-2.29073e-66
8.6801e-71
-2.54903e-74
-2.29143e-66
8.68251e-71
-2.28896e-66
8.6726e-71
3.36938e-70
-3.00799e-62
1.24545e-66
-2.16017e-71
-3.01202e-62
1.24708e-66
-1.7981e-70
-3.01221e-62
1.24716e-66
-2.7832e-70
-3.01258e-62
1.24728e-66
-3.52369e-70
-3.01352e-62
1.24764e-66
-3.01031e-62
1.24626e-66
4.84169e-67
-2.5053e-58
1.15514e-62
-1.21903e-66
-2.50855e-58
1.15664e-62
-1.74976e-66
-2.5087e-58
1.1567e-62
-2.17624e-66
-2.50901e-58
1.15684e-62
-2.52872e-66
-2.50982e-58
1.1572e-62
-2.5072e-58
1.15597e-62
-1.25371e-62
-1.47319e-54
7.58441e-59
-8.81999e-63
-1.47504e-54
7.59417e-59
-7.67367e-63
-1.47513e-54
7.59471e-59
-7.25482e-63
-1.47532e-54
7.59579e-59
-7.76421e-63
-1.47583e-54
7.59843e-59
-1.47434e-54
7.59075e-59
-1.03058e-58
-6.49016e-51
3.66406e-55
-2.90754e-59
-6.49813e-51
3.66886e-55
5.4096e-61
-6.49851e-51
3.66922e-55
1.43713e-59
-6.49948e-51
3.66984e-55
1.85013e-59
-6.50185e-51
3.67125e-55
-6.4955e-51
3.66773e-55
-3.61042e-55
-2.23172e-47
1.32893e-51
9.38697e-57
-2.23443e-47
1.33073e-51
1.5773e-55
-2.23458e-47
1.33089e-51
2.30228e-55
-2.23495e-47
1.33114e-51
2.54274e-55
-2.23581e-47
1.33168e-51
-2.2337e-47
1.33044e-51
-3.17837e-52
-6.19773e-44
3.46988e-48
7.12595e-52
-6.20522e-44
3.47472e-48
1.03601e-51
-6.20567e-44
3.47517e-48
1.1642e-51
-6.20675e-44
3.47582e-48
1.15137e-51
-6.20928e-44
3.4772e-48
-6.20358e-44
3.47394e-48
1.93658e-48
-1.44688e-40
4.52392e-45
3.23808e-48
-1.44862e-40
4.53081e-45
3.53856e-48
-1.44872e-40
4.53151e-45
3.37919e-48
-1.44898e-40
4.53223e-45
2.86706e-48
-1.44959e-40
4.53383e-45
-1.44828e-40
4.52915e-45
9.95378e-45
-2.66988e-37
-3.83052e-38
8.90448e-45
-2.6732e-37
-3.83387e-38
8.00882e-45
-2.67339e-37
-3.83377e-38
6.45272e-45
-2.67385e-37
-3.83449e-38
4.44495e-45
-2.67495e-37
-3.83639e-38
-2.6725e-37
-3.83343e-38
2.30227e-41
-2.90034e-34
-2.93488e-34
1.61085e-41
-2.90407e-34
-2.93833e-34
1.18974e-41
-2.90427e-34
-2.93839e-34
6.6225e-42
-2.90473e-34
-2.93885e-34
4.44276e-43
-2.90587e-34
-2.94009e-34
-2.90309e-34
-2.93745e-34
1.36438e-38
-8.61187e-31
5.98505e-39
-8.62287e-31
1.86017e-39
-8.62318e-31
-2.32832e-39
-8.62438e-31
-8.7837e-39
-8.62763e-31
-8.61911e-31
7.21144e-75
-4.27083e-67
3.07367e-71
9.37777e-76
-4.27685e-67
3.07797e-71
-1.73023e-75
-4.27719e-67
3.07823e-71
-3.38839e-75
-4.27775e-67
3.07861e-71
-4.85158e-75
-4.27908e-67
3.07954e-71
-4.27459e-67
3.07626e-71
1.24851e-70
-1.15859e-62
8.87011e-67
-2.43743e-71
-1.16014e-62
8.88192e-67
-8.83307e-71
-1.1602e-62
8.88245e-67
-1.42457e-70
-1.16032e-62
8.88336e-67
-2.0529e-70
-1.16067e-62
8.88589e-67
-1.15941e-62
8.87611e-67
9.45379e-67
-1.50295e-58
1.26693e-62
-7.4565e-67
-1.50489e-58
1.26857e-62
-1.42032e-66
-1.50496e-58
1.26863e-62
-2.02718e-66
-1.50512e-58
1.26876e-62
-2.69824e-66
-1.50557e-58
1.26913e-62
-1.50396e-58
1.26776e-62
-6.04434e-65
-1.22603e-54
1.16211e-58
-8.26928e-63
-1.22756e-54
1.16358e-58
-1.1871e-62
-1.2276e-54
1.16363e-58
-1.48471e-62
-1.22774e-54
1.16375e-58
-1.82046e-62
-1.22812e-54
1.16412e-58
-1.22684e-54
1.16289e-58
-4.59468e-59
-6.99888e-51
7.48347e-55
-4.1521e-59
-7.00735e-51
7.49282e-55
-4.43305e-59
-7.00756e-51
7.49317e-55
-4.62021e-59
-7.00839e-51
7.4941e-55
-4.77811e-59
-7.01075e-51
7.49662e-55
-7.00367e-51
7.48902e-55
-2.83005e-55
-2.96387e-47
3.49168e-51
-8.2335e-56
-2.96737e-47
3.49603e-51
9.59143e-57
-2.96746e-47
3.49623e-51
6.91216e-56
-2.96785e-47
3.49672e-51
1.42918e-55
-2.96892e-47
3.49798e-51
-2.96603e-47
3.49453e-51
-4.44008e-52
-9.71916e-44
1.1778e-47
6.28293e-52
-9.73043e-44
1.17928e-47
1.06544e-51
-9.73077e-44
1.17935e-47
1.38649e-51
-9.73217e-44
1.17953e-47
1.74695e-51
-9.7359e-44
1.17996e-47
-9.72675e-44
1.17881e-47
2.8826e-48
-2.58391e-40
2.75446e-44
5.05516e-48
-2.58687e-40
2.75793e-44
5.69884e-48
-2.58695e-40
2.75809e-44
6.07724e-48
-2.58735e-40
2.75848e-44
6.27756e-48
-2.5884e-40
2.75949e-44
-2.58603e-40
2.75678e-44
1.96706e-44
-5.89299e-37
3.67602e-41
2.02821e-44
-5.89964e-37
3.68089e-41
1.98532e-44
-5.8998e-37
3.68108e-41
1.75213e-44
-5.90072e-37
3.68151e-41
1.39114e-44
-5.90317e-37
3.68273e-41
-5.89782e-37
3.67891e-41
6.14148e-41
-1.07385e-33
-1.44875e-34
5.09308e-41
-1.07511e-33
-1.44978e-34
4.10378e-41
-1.07513e-33
-1.4497e-34
2.61847e-41
-1.07528e-33
-1.44997e-34
8.53072e-42
-1.07572e-33
-1.45075e-34
-1.07471e-33
-1.44971e-34
9.35801e-38
-9.37871e-31
-1.24418e-30
6.46166e-38
-9.39015e-31
-1.2456e-30
3.8808e-38
-9.39034e-31
-1.24558e-30
1.86897e-39
-9.39161e-31
-1.24573e-30
-3.86557e-38
-9.39523e-31
-1.24622e-30
-9.38606e-31
-1.24505e-30
-1.56763e-35
-2.51724e-27
-3.38159e-35
-2.52038e-27
-3.54884e-35
-2.52039e-27
-4.83689e-35
-2.52068e-27
-7.82125e-35
-2.5216e-27
-2.51902e-27
3.70889e-71
-2.89054e-63
3.05655e-67
9.6917e-73
-2.89446e-63
3.06068e-67
-1.48153e-71
-2.8947e-63
3.06096e-67
-2.51398e-71
-2.89512e-63
3.06141e-67
-3.32293e-71
-2.89611e-63
3.06245e-67
-2.89319e-63
3.05934e-67
6.33438e-67
-8.21205e-59
9.29116e-63
-3.05143e-67
-8.2227e-59
9.30322e-63
-6.96489e-67
-8.22322e-59
9.30389e-63
-1.02985e-66
-8.22428e-59
9.30508e-63
-1.39988e-66
-8.22698e-59
9.3081e-63
-8.21844e-59
9.29838e-63
4.74012e-63
-1.10778e-54
1.39567e-58
-6.27997e-63
-1.10918e-54
1.39744e-58
-1.09542e-62
-1.10924e-54
1.39753e-58
-1.49528e-62
-1.10938e-54
1.39771e-58
-1.89873e-62
-1.10975e-54
1.39817e-58
-1.10862e-54
1.39673e-58
-1.56226e-60
-9.28273e-51
1.33819e-54
-6.18377e-59
-9.29415e-51
1.33986e-54
-8.98649e-59
-9.29458e-51
1.33994e-54
-1.11746e-58
-9.29577e-51
1.34012e-54
-1.30993e-58
-9.29898e-51
1.34058e-54
-9.2897e-51
1.33923e-54
-1.77242e-55
-5.34267e-47
8.91707e-51
-2.76615e-55
-5.34909e-47
8.92808e-51
-3.32021e-55
-5.34932e-47
8.92859e-51
-3.65091e-55
-5.35004e-47
8.92986e-51
-3.67388e-55
-5.35197e-47
8.93309e-51
-5.34676e-47
8.92435e-51
-2.26685e-52
-2.21903e-43
4.26556e-47
1.25163e-52
-2.22165e-43
4.27081e-47
1.92989e-52
-2.22174e-43
4.27106e-47
3.79063e-52
-2.22205e-43
4.27169e-47
7.59593e-52
-2.22289e-43
4.27329e-47
-2.22078e-43
4.26917e-47
6.5061e-48
-6.82921e-40
1.48437e-43
7.48892e-48
-6.8372e-40
1.48618e-43
7.88039e-48
-6.83743e-40
1.48626e-43
8.31269e-48
-6.83842e-40
1.48648e-43
8.95826e-48
-6.84107e-40
1.48703e-43
-6.83466e-40
1.4856e-43
4.51684e-44
-1.57093e-36
3.6404e-40
3.82733e-44
-1.57275e-36
3.64481e-40
3.5235e-44
-1.57279e-36
3.64494e-40
3.13456e-44
-1.57301e-36
3.64542e-40
2.54794e-44
-1.57362e-36
3.64675e-40
-1.57215e-36
3.64321e-40
1.28701e-40
-2.71484e-33
5.27824e-37
9.78118e-41
-2.71795e-33
5.28467e-37
7.92172e-41
-2.71797e-33
5.28475e-37
5.49687e-41
-2.71833e-33
5.28535e-37
2.38082e-41
-2.71938e-33
5.2872e-37
-2.7168e-33
5.28198e-37
1.84837e-37
-3.69096e-30
9.61582e-36
1.28047e-37
-3.69518e-30
9.68968e-36
8.47212e-38
-3.69513e-30
9.69947e-36
2.69981e-38
-3.69556e-30
9.69476e-36
-3.7594e-38
-3.69697e-30
9.67758e-36
-3.69339e-30
9.64219e-36
8.06519e-35
-2.34799e-27
-2.22598e-27
2.5611e-35
-2.35079e-27
-2.22849e-27
-1.24959e-35
-2.35076e-27
-2.22839e-27
-7.28608e-35
-2.35101e-27
-2.22861e-27
-1.39486e-34
-2.35188e-27
-2.22948e-27
-2.3495e-27
-2.22728e-27
-2.53766e-31
-3.45707e-24
-2.09128e-31
-3.46137e-24
-1.17738e-31
-3.46129e-24
-5.81025e-32
-3.46162e-24
-4.7577e-32
-3.46289e-24
-3.45921e-24
2.5188e-68
-2.86027e-60
3.96199e-64
-3.44093e-69
-2.86391e-60
3.96702e-64
-1.59828e-68
-2.86409e-60
3.96731e-64
-2.4223e-68
-2.86452e-60
3.9679e-64
-3.05537e-68
-2.86555e-60
3.96932e-64
-2.86272e-60
3.96539e-64
4.22157e-64
-8.81666e-56
1.31793e-59
-3.93938e-64
-8.82749e-56
1.31955e-59
-7.36773e-64
-8.82793e-56
1.31963e-59
-1.02323e-63
-8.82913e-56
1.31981e-59
-1.34135e-63
-8.83221e-56
1.32027e-59
-8.82329e-56
1.31893e-59
2.84701e-60
-1.27597e-51
2.15717e-55
-7.60667e-60
-1.27751e-51
2.15978e-55
-1.21295e-59
-1.27756e-51
2.15988e-55
-1.59321e-59
-1.27773e-51
2.16018e-55
-1.94814e-59
-1.27819e-51
2.16094e-55
-1.27692e-51
2.15879e-55
-6.25196e-57
-1.12639e-47
2.23011e-51
-7.35938e-56
-1.12772e-47
2.23278e-51
-1.04608e-55
-1.12777e-47
2.23288e-51
-1.27031e-55
-1.12792e-47
2.2332e-51
-1.43274e-55
-1.12834e-47
2.23402e-51
-1.12724e-47
2.23183e-51
-6.43134e-53
-6.65394e-44
1.57239e-47
-2.86282e-52
-6.66173e-44
1.57426e-47
-3.97962e-52
-6.66196e-44
1.57433e-47
-4.52737e-52
-6.66293e-44
1.57457e-47
-4.4998e-52
-6.66546e-44
1.57517e-47
-6.6591e-44
1.57365e-47
1.21105e-48
-2.74559e-40
7.71782e-44
4.56717e-49
-2.74878e-40
7.72696e-44
1.94462e-49
-2.74887e-40
7.72729e-44
1.56331e-49
-2.74928e-40
7.72848e-44
2.90716e-49
-2.75036e-40
7.73147e-44
-2.74777e-40
7.72411e-44
1.5018e-44
-8.14794e-37
2.64396e-40
9.80149e-45
-8.15737e-37
2.64708e-40
8.45993e-45
-8.15757e-37
2.64717e-40
7.4513e-45
-8.15879e-37
2.64756e-40
5.67346e-45
-8.16202e-37
2.64859e-40
-8.15435e-37
2.64606e-40
6.3296e-41
-1.8001e-33
6.2436e-37
3.90738e-41
-1.80217e-33
6.25089e-37
2.93811e-41
-1.80218e-33
6.25099e-37
1.83457e-41
-1.80243e-33
6.25185e-37
3.26971e-42
-1.80315e-33
6.25423e-37
-1.80143e-33
6.2482e-37
1.27476e-37
-3.10047e-30
9.48255e-34
6.74468e-38
-3.104e-30
9.49356e-34
3.5123e-38
-3.10395e-30
9.49353e-34
-2.41065e-39
-3.10433e-30
9.49465e-34
-4.78838e-38
-3.10553e-30
9.49816e-34
-3.10252e-30
9.48885e-34
9.35686e-35
-4.35362e-27
5.09483e-31
2.23601e-35
-4.35855e-27
5.10113e-31
-2.0618e-35
-4.35839e-27
5.10111e-31
-8.08055e-35
-4.35885e-27
5.10165e-31
-1.46545e-34
-4.36051e-27
5.10344e-31
-4.35616e-27
5.09824e-31
-6.99942e-32
-1.70863e-24
-3.35855e-24
-4.45931e-32
-1.71064e-24
-3.3624e-24
-2.88564e-32
-1.71054e-24
-3.36226e-24
-6.81201e-32
-1.71066e-24
-3.36264e-24
-1.4217e-31
-1.71128e-24
-3.36398e-24
-1.7095e-24
-3.36053e-24
-2.02689e-28
-2.38635e-21
-1.45784e-28
-2.38928e-21
-5.14756e-29
-2.38916e-21
1.7394e-29
-2.38938e-21
2.26507e-29
-2.3903e-21
-2.38768e-21
2.67627e-06
-0.640058
-0.224438
5.31956e-06
-0.640062
-0.224437
4.14801e-06
-0.640059
-0.224436
2.68973e-06
-0.640057
-0.224436
5.0217e-06
-0.640057
-0.224439
-0.640065
-0.224432
6.88105e-06
0.260054
-1.10377e-07
6.23932e-06
0.26006
-1.10367e-07
4.80305e-06
0.26006
-1.10375e-07
8.04372e-06
0.260058
-1.1037e-07
1.18817e-05
0.260057
-1.10358e-07
0.260067
-1.10325e-07
2.14105e-06
-6.75045e-09
2.24757e-06
-6.78322e-09
1.96421e-06
-6.79273e-09
2.81547e-06
-6.78386e-09
3.48972e-06
-6.7812e-09
-6.78762e-09
-1.94065e-06
-6.30445e-08
0.115867
-1.09396e-06
-6.30395e-08
0.115869
1.41546e-06
-6.30438e-08
0.115868
-1.65276e-07
-6.30407e-08
0.115868
-7.03839e-06
-6.30333e-08
0.115868
-6.30161e-08
0.115872
-1.89497e-15
-4.3779e-10
-1.72217e-07
1.83464e-14
-4.39915e-10
-1.722e-07
9.67116e-14
-4.40531e-10
-1.72211e-07
9.82659e-14
-4.39953e-10
-1.72204e-07
4.23957e-15
-4.39778e-10
-1.72184e-07
-4.40196e-10
-1.72133e-07
-4.54336e-15
-7.18824e-09
-7.48892e-15
-7.22313e-09
-7.48134e-15
-7.23326e-09
-7.01313e-15
-7.22381e-09
-3.54594e-15
-7.22098e-09
-7.22782e-09
2.99656e-08
-6.60337e-06
0.000578647
5.54281e-09
-6.6022e-06
0.000578932
3.91328e-08
-6.60245e-06
0.000578928
6.06865e-08
-6.60232e-06
0.000578957
7.85649e-08
-6.6017e-06
0.000579013
-6.59952e-06
0.000579217
1.111e-13
-9.95625e-08
-6.68887e-06
3.58012e-12
-9.98965e-08
-6.68774e-06
7.01287e-12
-9.99842e-08
-6.68802e-06
1.03515e-11
-9.98932e-08
-6.68787e-06
1.38271e-11
-9.98642e-08
-6.68723e-06
-9.99104e-08
-6.68504e-06
4.66907e-14
-1.06751e-07
2.33115e-14
-1.0712e-07
1.56093e-15
-1.07217e-07
-9.99971e-15
-1.07117e-07
-5.90549e-15
-1.07085e-07
-1.07138e-07
2.62393e-09
-3.99449e-05
1.20567e-06
2.49868e-09
-3.99531e-05
1.20958e-06
1.98017e-09
-3.99538e-05
1.21002e-06
1.36047e-09
-3.99545e-05
1.21039e-06
7.32855e-10
-3.99555e-05
1.21109e-06
-3.99568e-05
1.21247e-06
4.3654e-10
-1.6101e-06
-8.20013e-05
4.79388e-10
-1.61248e-06
-8.20049e-05
3.24704e-10
-1.61325e-06
-8.20064e-05
1.9291e-10
-1.61258e-06
-8.2007e-05
2.32137e-10
-1.61234e-06
-8.20064e-05
-1.61258e-06
-8.20036e-05
1.84252e-12
-3.8644e-07
2.56445e-12
-3.87914e-07
1.97514e-12
-3.88653e-07
1.71534e-12
-3.88235e-07
2.13443e-12
-3.88101e-07
-3.88636e-07
-3.22606e-11
-6.56446e-05
-6.36663e-10
-3.4546e-11
-6.56474e-05
-6.36758e-10
-4.01345e-11
-6.56453e-05
-6.36594e-10
-7.47374e-11
-6.56436e-05
-6.36411e-10
-1.07382e-10
-6.56441e-05
-6.36124e-10
-6.56442e-05
-6.3573e-10
2.36688e-09
-5.03743e-06
-4.36563e-12
5.23579e-10
-5.03926e-06
-4.36715e-12
-6.48594e-10
-5.03892e-06
-4.36649e-12
-1.18984e-09
-5.03823e-06
-4.36633e-12
-1.56328e-09
-5.03808e-06
-4.36708e-12
-5.03716e-06
-4.36335e-12
-8.68985e-12
-9.93499e-15
-7.69163e-12
-9.94123e-15
-7.57311e-12
-9.94045e-15
-3.95866e-12
-9.94029e-15
5.61757e-12
-9.94198e-15
-9.93392e-15
-5.18161e-14
-1.41048e-14
-2.12047e-08
-5.25882e-14
-1.41007e-14
-2.12125e-08
-2.19356e-14
-1.40944e-14
-2.12075e-08
1.16965e-15
-1.4089e-14
-2.12016e-08
3.52898e-15
-1.40904e-14
-2.11931e-08
-1.41227e-14
-2.11792e-08
-5.53253e-18
-1.21193e-16
-4.37705e-12
-6.0787e-18
-1.21261e-16
-4.37857e-12
-3.81368e-18
-1.21246e-16
-4.37792e-12
-4.44462e-19
-1.21238e-16
-4.37774e-12
2.46866e-18
-1.21254e-16
-4.37849e-12
-1.21158e-16
-4.37594e-12
-2.98641e-21
-1.00562e-14
-3.16891e-21
-1.00625e-14
-3.71271e-21
-1.00617e-14
-2.57448e-21
-1.00615e-14
6.22734e-22
-1.00632e-14
-1.00551e-14
1.53775e-13
-1.73293e-10
-6.46598e-09
1.20512e-12
-1.73344e-10
-6.47212e-09
1.97516e-12
-1.73315e-10
-6.46218e-09
2.39892e-12
-1.73302e-10
-6.4439e-09
1.73425e-12
-1.73321e-10
-6.39857e-09
-1.7324e-10
-6.36704e-09
-4.13207e-17
-2.25153e-13
-1.77393e-10
-6.26887e-18
-2.25264e-13
-1.77446e-10
6.77879e-17
-2.25208e-13
-1.77417e-10
2.03451e-16
-2.25171e-13
-1.77404e-10
2.69512e-16
-2.25166e-13
-1.77423e-10
-2.24974e-13
-1.77339e-10
-5.5334e-20
-2.35191e-13
7.82419e-21
-2.35309e-13
1.04443e-19
-2.35253e-13
2.24239e-19
-2.35215e-13
2.77889e-19
-2.35212e-13
-2.35012e-13
6.69348e-12
-4.40476e-09
-2.13555e-07
1.48937e-11
-4.404e-09
-2.13551e-07
1.80892e-11
-4.40327e-09
-2.13532e-07
1.74997e-11
-4.403e-09
-2.13523e-07
9.92119e-12
-4.4032e-09
-2.13526e-07
-4.40318e-09
-2.13533e-07
3.38057e-15
-1.2992e-12
-4.57647e-09
1.3424e-14
-1.30436e-12
-4.57577e-09
1.86357e-14
-1.30466e-12
-4.57501e-09
2.139e-14
-1.30406e-12
-4.57472e-09
1.89453e-14
-1.30325e-12
-4.57494e-09
-1.29847e-12
-4.57482e-09
-1.94839e-17
-2.90278e-12
-1.15326e-17
-2.91438e-12
2.68611e-18
-2.91502e-12
1.89472e-17
-2.91362e-12
2.72772e-17
-2.91157e-12
-2.90079e-12
4.84956e-11
-9.40433e-08
-3.51065e-06
4.61828e-11
-9.4058e-08
-3.50926e-06
3.47357e-11
-9.40451e-08
-3.50886e-06
2.05626e-11
-9.40408e-08
-3.50859e-06
-3.81529e-13
-9.40511e-08
-3.50821e-06
-9.40241e-08
-3.50866e-06
2.03949e-13
-6.55601e-10
-7.50237e-08
4.30268e-13
-6.55378e-10
-7.50115e-08
3.70436e-13
-6.55294e-10
-7.49979e-08
2.9149e-13
-6.55257e-10
-7.49883e-08
4.10375e-13
-6.55286e-10
-7.49828e-08
-6.55244e-10
-7.49759e-08
-1.9842e-15
-8.13271e-10
-1.18063e-16
-8.1314e-10
1.20315e-15
-8.13037e-10
2.08584e-15
-8.12999e-10
3.56395e-15
-8.13061e-10
-8.12891e-10
2.66296e-10
-5.62151e-09
-3.19596e-06
1.3574e-10
-5.67475e-09
-3.19707e-06
-3.38932e-11
-5.68537e-09
-3.19681e-06
-1.51236e-10
-5.70055e-09
-3.19697e-06
-1.85324e-10
-5.72702e-09
-3.19768e-06
-5.70208e-09
-3.19651e-06
8.05283e-13
2.87222e-09
-7.86153e-08
-3.09387e-12
2.87212e-09
-7.86503e-08
-7.88196e-12
2.87176e-09
-7.86467e-08
-9.5639e-12
2.87173e-09
-7.86561e-08
-2.73271e-12
2.87226e-09
-7.86857e-08
2.87119e-09
-7.86498e-08
-3.65594e-14
-7.61751e-10
-5.19648e-14
-7.6216e-10
-7.05864e-14
-7.62186e-10
-7.20691e-14
-7.62344e-10
2.49681e-15
-7.62719e-10
-7.62328e-10
-1.38482e-10
1.97851e-07
1.94885e-07
-3.98751e-10
1.97943e-07
1.95093e-07
-5.85907e-10
1.97942e-07
1.95094e-07
-6.15507e-10
1.97974e-07
1.95124e-07
-4.17478e-10
1.98068e-07
1.95243e-07
1.97968e-07
1.95035e-07
-1.38524e-11
1.14608e-08
3.93103e-08
-2.61644e-11
1.14694e-08
3.9328e-08
-3.36343e-11
1.1469e-08
3.93271e-08
-3.34076e-11
1.14708e-08
3.93315e-08
-1.60056e-11
1.14768e-08
3.93472e-08
1.14678e-08
3.9324e-08
-1.67283e-13
2.84327e-10
-2.84286e-13
2.84475e-10
-3.67956e-13
2.84466e-10
-3.69804e-13
2.84503e-10
-1.43205e-13
2.84634e-10
2.84421e-10
-2.07791e-11
-3.8432e-08
5.93496e-09
-2.79315e-11
-3.84483e-08
5.93898e-09
-2.95957e-11
-3.84473e-08
5.93904e-09
-2.6405e-11
-3.84513e-08
5.94016e-09
-1.58788e-11
-3.84657e-08
5.94334e-09
-3.84435e-08
5.94049e-09
-8.52149e-13
1.22121e-10
-3.00475e-09
-1.27101e-12
1.22432e-10
-3.00836e-09
-1.52357e-12
1.22405e-10
-3.00796e-09
-1.46833e-12
1.22418e-10
-3.00823e-09
-7.60662e-13
1.22494e-10
-3.00966e-09
1.22268e-10
-3.00643e-09
-7.11399e-15
-5.74097e-12
-1.12469e-14
-5.74494e-12
-1.40863e-14
-5.74489e-12
-1.38035e-14
-5.7457e-12
-6.19012e-15
-5.7481e-12
-5.74428e-12
-6.891e-24
3.47333e-19
-6.67486e-17
1.05371e-18
-1.79889e-24
3.47756e-19
-6.68321e-17
1.05499e-18
3.22742e-24
3.47732e-19
-6.68252e-17
1.05491e-18
6.16099e-24
3.47768e-19
-6.68308e-17
1.05502e-18
6.24881e-24
3.47914e-19
-6.68594e-17
1.05546e-18
3.4752e-19
-6.6779e-17
1.05426e-18
-8.08534e-25
8.99425e-20
-1.11776e-17
1.14794e-19
-3.46274e-25
9.00557e-20
-1.1192e-17
1.14939e-19
2.97813e-25
9.0053e-20
-1.11914e-17
1.14935e-19
6.96296e-25
9.00659e-20
-1.1193e-17
1.14952e-19
7.29468e-25
9.01076e-20
-1.11983e-17
1.15005e-19
9.0005e-20
-1.1185e-17
1.14874e-19
-3.59277e-27
-9.43659e-20
7.09749e-22
-1.24385e-27
-9.44829e-20
7.10619e-22
2.78216e-27
-9.44808e-20
7.10613e-22
5.24165e-27
-9.44948e-20
7.10723e-22
4.80495e-27
-9.45387e-20
7.11047e-22
-9.44334e-20
7.10274e-22
-1.99757e-22
2.17397e-17
-1.04667e-16
6.6375e-23
2.17668e-17
-1.04799e-16
3.82198e-22
2.17645e-17
-1.04788e-16
5.53051e-22
2.17663e-17
-1.04796e-16
4.59235e-22
2.17756e-17
-1.04841e-16
2.17495e-17
-1.04715e-16
-9.02905e-23
8.87606e-18
-2.597e-17
-6.28191e-23
8.88744e-18
-2.60041e-17
-4.64872e-24
8.88699e-18
-2.60027e-17
5.8029e-23
8.88819e-18
-2.60063e-17
7.23408e-23
8.89242e-18
-2.60187e-17
8.88192e-18
-2.59872e-17
-8.50193e-25
-8.58373e-18
-5.59598e-25
-8.59422e-18
1.03114e-26
-8.59389e-18
5.93077e-25
-8.59507e-18
6.37413e-25
-8.59905e-18
-8.58945e-18
-5.9103e-21
1.24937e-15
-1.07349e-14
8.24338e-21
1.25092e-15
-1.07474e-14
2.08759e-20
1.25076e-15
-1.07462e-14
3.43286e-20
1.25085e-15
-1.0747e-14
3.2816e-20
1.25139e-15
-1.07512e-14
1.24987e-15
-1.07389e-14
-8.19054e-21
8.16856e-17
-1.58412e-15
-7.3753e-21
8.17916e-17
-1.58618e-15
-4.92842e-21
8.17896e-17
-1.58608e-15
-5.48456e-22
8.18031e-17
-1.58631e-15
3.51227e-21
8.18455e-17
-1.58713e-15
8.17486e-17
-1.58517e-15
-1.18647e-22
-3.26621e-16
-1.02202e-22
-3.27039e-16
-5.49383e-23
-3.27021e-16
1.83436e-24
-3.27067e-16
3.81877e-23
-3.27229e-16
-3.26842e-16
4.60088e-20
1.18798e-13
-3.47871e-13
-9.65987e-20
1.1894e-13
-3.48327e-13
2.10801e-19
1.18923e-13
-3.48273e-13
2.53985e-18
1.18931e-13
-3.48299e-13
5.02218e-18
1.18984e-13
-3.48466e-13
1.18844e-13
-3.48007e-13
-7.6514e-19
8.18836e-15
-2.01569e-13
-9.78977e-19
8.19768e-15
-2.01721e-13
-1.00581e-18
8.19732e-15
-2.01716e-13
-6.27316e-19
8.19853e-15
-2.0173e-13
4.4918e-20
8.2026e-15
-2.01775e-13
8.19361e-15
-2.01633e-13
-6.22755e-21
-2.09413e-15
-7.75725e-21
-2.09645e-15
-7.81596e-21
-2.09641e-15
-5.12423e-21
-2.0967e-15
-3.63447e-22
-2.09755e-15
-2.09553e-15
1.84806e-16
1.25724e-11
-2.5196e-11
8.04915e-17
1.25873e-11
-2.52298e-11
-2.95074e-19
1.25856e-11
-2.52259e-11
-9.92495e-17
1.25867e-11
-2.52284e-11
-1.17653e-16
1.25925e-11
-2.52426e-11
1.25782e-11
-2.52097e-11
-1.11248e-16
4.39413e-13
3.32483e-12
-1.4532e-16
4.3967e-13
3.34768e-12
-1.49129e-16
4.39672e-13
3.34502e-12
-1.27755e-16
4.39697e-13
3.34722e-12
-4.36146e-17
4.39762e-13
3.35816e-12
4.39541e-13
3.33678e-12
-1.21053e-18
-1.1824e-13
-1.74856e-18
-1.18386e-13
-1.94293e-18
-1.18379e-13
-1.58038e-18
-1.18395e-13
-4.19383e-19
-1.18452e-13
-1.18318e-13
4.81757e-14
3.07616e-09
8.24514e-15
3.07964e-09
-2.42776e-14
3.07929e-09
-4.4769e-14
3.07964e-09
-6.33399e-14
3.0812e-09
3.078e-09
-8.01129e-15
1.22012e-11
-1.22952e-14
1.22129e-11
-1.49002e-14
1.22124e-11
-1.43822e-14
1.22142e-11
-6.80848e-15
1.22205e-11
1.22092e-11
-1.10199e-16
-1.54357e-16
-1.72389e-16
-1.58792e-16
-6.62441e-17
2.56686e-65
8.67784e-61
-5.36531e-57
-1.24387e-65
8.68854e-61
-5.37193e-57
-2.84881e-65
8.68934e-61
-5.37237e-57
-3.93926e-65
8.691e-61
-5.37337e-57
-4.78312e-65
8.69459e-61
-5.37558e-57
8.68635e-61
-5.37049e-57
9.67985e-69
1.28479e-63
-6.68779e-60
-1.78881e-68
1.2864e-63
-6.6962e-60
-2.98351e-68
1.28653e-63
-6.69677e-60
-3.85794e-68
1.28678e-63
-6.69809e-60
-4.61337e-68
1.28733e-63
-6.70094e-60
1.28608e-63
-6.69439e-60