/*--------------------------------*- C++ -*----------------------------------*\
| =========                 |                                                 |
| \\      /  F ield         | OpenFOAM: The Open Source CFD Toolbox           |
|  \\    /   O peration     | Version:  v1612+                                |
|   \\  /    A nd           | Web:      www.OpenFOAM.com                      |
|    \\/     M anipulation  |                                                 |
\*---------------------------------------------------------------------------*/
FoamFile
{
    version     2.0;
    format      ascii;
    class       surfaceScalarField;
    location    "1.35";
    object      phi;
}
// * * * * * * * * * * * * * * * * * * * * * * * * * * * * * * * * * * * * * //

dimensions      [0 3 -1 0 0 0 0];

internalField   nonuniform List<scalar> 
2916
(
3.60472e-07
0.371604
-0.371605
4.78448e-07
0.371606
-0.371606
6.84471e-07
0.371606
-0.371606
1.07342e-06
0.371606
-0.371606
1.05973e-06
0.371606
-0.371606
0.371605
-0.371604
9.24455e-07
0.849321
-0.477718
1.09537e-06
0.849324
-0.477719
1.33058e-06
0.849323
-0.477718
1.01636e-06
0.849323
-0.477717
4.12586e-07
0.849322
-0.477716
0.84932
-0.477714
2.01026e-06
1.40069
-0.551369
3.65854e-06
1.40069
-0.55137
2.77973e-06
1.40069
-0.551367
1.24948e-06
1.40069
-0.551365
5.43289e-07
1.40069
-0.551365
1.40068
-0.551363
-1.73105e-06
2.06941
-0.66872
2.02223e-06
2.06941
-0.668723
1.82224e-07
2.06941
-0.668717
-1.95661e-06
2.06941
-0.668717
-1.4901e-06
2.06941
-0.668719
2.0694
-0.668721
-1.70845e-05
2.81668
-0.747253
-6.7387e-06
2.81668
-0.747282
-3.05221e-06
2.81668
-0.747276
-2.32199e-06
2.81668
-0.747275
8.00817e-07
2.81668
-0.747279
2.81668
-0.747278
-3.20147e-05
3.56774
-0.751025
-1.40067e-05
3.56776
-0.751096
-3.18202e-06
3.56776
-0.75109
4.66759e-07
3.56776
-0.751086
3.83266e-06
3.56777
-0.751087
3.56776
-0.751079
-3.40422e-05
4.18839
-0.620619
-1.72621e-05
4.18844
-0.620696
-5.18036e-07
4.18844
-0.620692
6.46864e-06
4.18844
-0.620684
4.43287e-06
4.18845
-0.620682
4.18845
-0.620677
-6.01725e-06
5.2077
-1.01931
-4.35507e-06
5.20776
-1.01932
-4.09726e-06
5.20774
-1.01931
-5.6427e-06
5.20774
-1.0193
-2.91741e-06
5.20777
-1.01932
5.20774
-1.0193
-3.72552e-05
6.35635
-1.14861
-1.39574e-05
6.35656
-1.14883
-2.09332e-05
6.35655
-1.1488
-3.4182e-05
6.35655
-1.14879
-7.31454e-07
6.35659
-1.14886
6.3564
-1.14865
-0.000179868
5.01895
1.33758
-9.58896e-05
5.01918
1.33729
-5.29438e-05
5.01917
1.33733
-5.28606e-05
5.0192
1.33735
3.58461e-05
5.01917
1.33733
5.0188
1.33764
3.35867e-05
2.76484
2.25408
6.96707e-05
2.76519
2.25395
0.000102564
2.76512
2.25401
0.000175163
2.76512
2.25401
0.000244553
2.76507
2.25403
2.76459
2.25445
-5.12564e-05
2.7649
0.000227158
2.76491
0.000374205
2.76498
0.000496466
2.765
0.000553663
2.76502
2.76514
9.93329e-07
0.37685
-0.748456
9.74108e-07
0.376853
-0.748459
9.45185e-07
0.376852
-0.748458
6.53501e-07
0.376851
-0.748457
-2.81384e-08
0.376851
-0.748457
0.37685
-0.748454
3.6875e-06
0.783539
-0.88441
3.92145e-06
0.783547
-0.884412
2.87355e-06
0.783545
-0.884409
1.0937e-06
0.783544
-0.884408
4.55182e-07
0.783544
-0.884407
0.78354
-0.884404
8.40668e-06
1.26889
-1.03673
8.87959e-06
1.26891
-1.03673
4.12352e-06
1.26891
-1.03672
9.90044e-07
1.2689
-1.03672
1.79996e-06
1.2689
-1.03672
1.26889
-1.03671
-2.34648e-06
1.94318
-1.343
2.36114e-06
1.9432
-1.34302
1.45779e-06
1.94319
-1.34301
2.2435e-06
1.94319
-1.34301
4.67613e-06
1.94319
-1.34301
1.94318
-1.343
-9.29022e-06
2.80386
-1.60792
2.60423e-07
2.8039
-1.60799
4.82727e-06
2.80389
-1.60798
7.26674e-06
2.80389
-1.60798
6.70888e-06
2.80389
-1.60798
2.80388
-1.60797
-8.11038e-06
3.91126
-1.85842
7.11739e-06
3.91132
-1.85853
1.50376e-05
3.91131
-1.85851
1.60228e-05
3.91131
-1.8585
1.08525e-05
3.91132
-1.85851
3.91129
-1.85848
-1.13529e-05
4.3285
-1.03785
-6.57358e-06
4.32868
-1.03806
1.45251e-06
4.32865
-1.03804
2.96713e-07
4.32865
-1.03803
-7.07147e-06
4.32871
-1.03806
4.32869
-1.03808
1.79192e-05
5.34907
-2.0399
-7.54356e-05
5.34943
-2.03998
-9.54752e-05
5.34936
-2.03999
-7.85958e-05
5.34932
-2.03999
-0.000133364
5.34952
-2.04008
5.34931
-2.04005
-0.000273726
5.76251
-1.56177
-0.000299487
5.76274
-1.56211
-0.000350334
5.76271
-1.56209
-0.000400457
5.76269
-1.56211
-0.000305869
5.76292
-1.56234
5.76248
-1.56213
-1.67674e-05
4.92784
2.17227
-0.000185681
4.92822
2.17198
-0.000255535
4.92811
2.172
-0.000309072
4.92809
2.17201
-0.000376322
4.92834
2.17198
4.9275
2.17224
-4.80963e-05
2.62861
4.55336
-0.000153219
2.62911
4.55316
-0.00019131
2.62895
4.55321
-0.000254372
2.62891
4.55325
-0.000174497
2.62904
4.55325
2.62818
4.5536
-5.2133e-05
5.39356
0.000206865
5.39375
0.000339139
5.39379
0.000418473
5.39383
0.000574044
5.3939
5.39389
4.8298e-06
0.294323
-1.04278
4.57697e-06
0.294329
-1.04279
3.85858e-06
0.294329
-1.04279
2.77613e-06
0.294329
-1.04278
1.60148e-06
0.294329
-1.04278
0.294328
-1.04278
1.19982e-05
0.55772
-1.14782
1.10362e-05
0.557738
-1.14782
6.62769e-06
0.55774
-1.14782
3.40048e-06
0.557739
-1.14781
4.21492e-06
0.557737
-1.14782
0.557734
-1.14781
1.25279e-05
1.13023
-1.60925
9.54518e-06
1.13026
-1.60925
5.95901e-06
1.13026
-1.60924
5.81237e-06
1.13026
-1.60924
7.39536e-06
1.13025
-1.60924
1.13025
-1.60922
1.63593e-05
2.0439
-2.25669
1.6648e-05
2.04397
-2.25673
1.72483e-05
2.04396
-2.25671
1.81457e-05
2.04396
-2.25671
1.06832e-05
2.04395
-2.2567
2.04393
-2.25668
4.51559e-05
2.80505
-2.36911
4.90107e-05
2.80518
-2.36921
5.65525e-05
2.80519
-2.36921
5.82278e-05
2.80518
-2.36921
3.36953e-05
2.80518
-2.36919
2.80516
-2.36916
-4.07012e-06
2.72836
-1.78172
4.74423e-05
2.72851
-1.78191
5.91888e-05
2.72849
-1.78183
5.78868e-05
2.72848
-1.7818
3.64921e-05
2.72853
-1.78183
2.72848
-1.78177
1.01986e-06
2.77987
-1.08937
-7.16357e-05
2.78
-1.08947
-7.49591e-05
2.77988
-1.08942
-6.40589e-05
2.77984
-1.08939
-0.000108498
2.78003
-1.08952
2.77997
-1.08968
8.645e-05
2.30545
-1.56557
-0.000157669
2.30579
-1.56552
-0.000207682
2.30552
-1.56558
-0.000131157
2.30544
-1.56566
-0.000163665
2.30581
-1.56583
2.30572
-1.56595
3.22204e-05
1.27845
-0.534804
-9.06338e-05
1.27872
-0.53492
-0.000177963
1.27852
-0.535013
-0.000213341
1.27848
-0.535103
-0.000289258
1.27885
-0.535301
1.27861
-0.535322
0.000101179
0.611225
2.83939
-3.47547e-05
0.611637
2.8392
-0.000105498
0.611457
2.83914
-0.000224657
0.611457
2.83915
-0.000374007
0.61181
2.83917
0.61126
2.83922
0.00022917
-0.0880993
5.25245
0.000149385
-0.0875629
5.25243
9.09953e-05
-0.0877386
5.25246
-2.05019e-05
-0.0877621
5.25258
-0.000141892
-0.0875377
5.25272
-0.0881393
5.25285
-3.25845e-05
5.3055
0.000252431
5.30591
0.000314319
5.306
0.000293338
5.30609
0.000394494
5.30626
5.30615
1.31131e-05
0.0660612
-1.10886
1.10989e-05
0.0660716
-1.10886
8.17567e-06
0.066073
-1.10886
5.215e-06
0.0660733
-1.10885
4.80353e-06
0.0660724
-1.10886
0.0660791
-1.10885
1.2806e-05
0.503009
-1.58478
7.9988e-06
0.503042
-1.58479
3.18469e-06
0.503045
-1.58478
-5.62611e-07
0.503045
-1.58478
1.07029e-06
0.503042
-1.58479
0.503047
-1.58477
3.88605e-06
1.63753
-2.74378
-4.8181e-07
1.63759
-2.7438
3.16665e-06
1.6376
-2.7438
9.75672e-07
1.6376
-2.74379
-1.051e-05
1.6376
-2.74379
1.63761
-2.7438
4.37542e-05
1.72679
-2.346
5.73705e-05
1.72699
-2.34613
6.95007e-05
1.727
-2.34612
7.6023e-05
1.727
-2.34612
5.43757e-05
1.72701
-2.34609
1.72703
-2.34604
0.000144334
1.46501
-2.10747
0.000172741
1.46535
-2.1076
0.000118404
1.46539
-2.10756
6.98288e-05
1.46539
-2.10755
3.4676e-05
1.46541
-2.10755
1.46537
-2.10746
-5.83609e-05
0.3011
-0.617755
-4.98829e-05
0.301255
-0.617819
5.14667e-06
0.301228
-0.617716
3.76386e-05
0.301234
-0.617669
2.28711e-06
0.301332
-0.61771
0.301348
-0.617749
-3.22038e-06
-0.426468
-0.361799
1.09496e-05
-0.426506
-0.361731
8.7287e-05
-0.426565
-0.361703
0.000157047
-0.426546
-0.361683
8.51947e-05
-0.426358
-0.36176
-0.426289
-0.361962
7.78231e-05
-1.21653
-0.775577
7.38593e-05
-1.21661
-0.775411
6.96593e-05
-1.21667
-0.775467
4.2378e-05
-1.21664
-0.775531
-9.30612e-05
-1.21639
-0.775667
-1.21641
-0.775926
0.000182732
-2.23725
0.485734
0.000112613
-2.23724
0.485781
0.000105093
-2.23733
0.485658
7.48816e-05
-2.2373
0.485583
-0.000133865
-2.23701
0.485533
-2.23719
0.485319
0.000273844
-2.19101
2.79288
0.000226249
-2.19085
2.79285
0.000189349
-2.19093
2.79278
0.00010662
-2.19088
2.79281
-9.64695e-05
-2.19061
2.79297
-2.19086
2.7928
0.000201249
-1.1983
4.25955
0.0002593
-1.19816
4.2597
0.000215257
-1.19822
4.2598
0.000143317
-1.19821
4.25998
3.58038e-05
-1.19808
4.2603
-1.19818
4.26021
-9.50582e-05
4.10728
6.57595e-06
4.10765
2.9722e-05
4.10775
1.05849e-05
4.1079
5.52683e-05
4.10813
4.10803
4.67964e-07
-0.00103046
0.00102999
1.59382e-07
-0.00103052
0.00102999
3.78084e-08
-0.00103054
0.00102996
-2.32734e-08
-0.00103055
0.00102995
-5.04849e-08
-0.00103057
0.00102994
-0.00103058
0.00102986
4.0236e-07
-0.0021006
0.00106923
1.04819e-07
-0.00210071
0.00106922
-2.69943e-08
-0.00210071
0.0010692
-1.08772e-07
-0.00210073
0.00106919
-1.78041e-07
-0.00210074
0.00106917
-0.00210069
0.0010691
3.88424e-07
-0.00324575
0.00114424
7.48575e-08
-0.00324593
0.00114423
-6.67484e-08
-0.00324593
0.00114422
-1.53952e-07
-0.00324595
0.0011442
-2.21025e-07
-0.00324596
0.00114418
-0.00324586
0.00114411
2.42208e-07
-0.00449328
0.0012467
-3.58004e-08
-0.00449353
0.0012467
-1.34482e-07
-0.00449355
0.00124668
-2.04129e-07
-0.00449355
0.00124667
-2.5668e-07
-0.00449355
0.00124667
-0.00449338
0.00124661
-3.23942e-08
-0.00585424
0.00136043
-1.25868e-07
-0.00585454
0.00136047
-1.72963e-07
-0.00585452
0.00136047
-2.01028e-07
-0.0058545
0.00136048
-2.27045e-07
-0.00585447
0.00136049
-0.0058542
0.00136046
-3.3633e-07
-0.00731066
0.00145643
-1.81462e-07
-0.00731093
0.00145655
-1.18669e-07
-0.00731087
0.00145659
-9.118e-08
-0.0073108
0.00145662
-7.92796e-08
-0.00731074
0.00145666
-0.00731039
0.00145667
-5.24953e-07
-0.00880866
0.00149866
-1.465e-07
-0.00880885
0.0014989
1.65911e-08
-0.00880877
0.00149897
1.0585e-07
-0.00880869
0.00149902
1.51601e-07
-0.00880862
0.00149908
-0.00880823
0.00149909
-4.08494e-07
-0.0101776
0.00137
1.13217e-07
-0.0101777
0.00137031
2.98376e-07
-0.0101776
0.0013704
3.9036e-07
-0.0101776
0.00137044
4.20623e-07
-0.0101775
0.00137046
-0.0101772
0.00137043
-3.9855e-08
-0.0109186
0.000742094
4.28921e-07
-0.0109188
0.000742401
5.81447e-07
-0.0109188
0.000742484
6.15783e-07
-0.0109188
0.000742486
5.71509e-07
-0.0109188
0.000742455
-0.0109184
0.000742357
4.19578e-07
-0.0102021
-0.000716069
6.64899e-07
-0.0102023
-0.000715831
7.22116e-07
-0.0102023
-0.000715768
6.65393e-07
-0.0102024
-0.000715786
5.40293e-07
-0.0102025
-0.000715848
-0.0102022
-0.000715927
6.4508e-07
-0.00723747
-0.00296475
7.12696e-07
-0.00723767
-0.00296473
6.67807e-07
-0.00723773
-0.00296472
5.14935e-07
-0.0072378
-0.00296478
2.88878e-07
-0.00723788
-0.00296488
-0.00723775
-0.00296493
3.31286e-07
-0.00723779
3.43971e-07
-0.00723818
3.25298e-07
-0.00723826
2.49104e-07
-0.00723834
8.12087e-08
-0.00723841
-0.00723824
3.10932e-07
-0.0010346
0.00206374
6.93771e-08
-0.00103466
0.00206377
-3.5927e-08
-0.00103466
0.00206377
-1.0611e-07
-0.00103468
0.00206376
-1.74101e-07
-0.0010347
0.00206376
-0.0010347
0.00206368
2.69847e-07
-0.00211605
0.00214948
1.4172e-08
-0.00211615
0.00214951
-9.54595e-08
-0.00211616
0.00214951
-1.90218e-07
-0.00211618
0.0021495
-2.97878e-07
-0.0021162
0.00214949
-0.00211614
0.00214942
2.48823e-07
-0.00328767
0.0023146
-4.07996e-08
-0.00328784
0.00231464
-1.56207e-07
-0.00328785
0.00231463
-2.60051e-07
-0.00328786
0.00231462
-3.74344e-07
-0.00328788
0.00231462
-0.00328777
0.00231456
1.26249e-07
-0.00458443
0.00254232
-1.2457e-07
-0.00458465
0.00254237
-2.33162e-07
-0.00458466
0.00254236
-3.21571e-07
-0.00458466
0.00254237
-4.19307e-07
-0.00458465
0.00254239
-0.00458445
0.00254233
-7.83e-08
-0.0060225
0.00279786
-1.84536e-07
-0.00602275
0.00279797
-2.48869e-07
-0.00602271
0.00279799
-2.93728e-07
-0.00602268
0.00279802
-3.34894e-07
-0.00602263
0.00279806
-0.00602233
0.00279801
-2.67435e-07
-0.00756914
0.00300331
-1.92202e-07
-0.00756935
0.00300351
-1.56278e-07
-0.00756927
0.00300356
-1.28737e-07
-0.00756919
0.00300362
-8.18083e-08
-0.0075691
0.00300367
-0.00756872
0.00300361
-2.64748e-07
-0.00907523
0.00300588
-4.60795e-09
-0.0090754
0.00300619
1.06274e-07
-0.00907529
0.00300626
2.00198e-07
-0.00907519
0.00300631
3.14205e-07
-0.0090751
0.00300633
-0.00907469
0.00300621
6.02955e-08
-0.0102741
0.00257033
3.66208e-07
-0.0102743
0.00257068
4.68333e-07
-0.0102741
0.00257074
5.46476e-07
-0.0102741
0.00257073
6.18146e-07
-0.010274
0.00257068
-0.0102737
0.00257048
6.18778e-07
-0.0109917
0.00146059
8.10498e-07
-0.0109918
0.00146094
8.62096e-07
-0.0109918
0.00146097
8.24443e-07
-0.0109918
0.00146091
7.40816e-07
-0.0109919
0.0014608
-0.0109916
0.00146056
1.09418e-06
-0.0108175
-0.000890499
1.07411e-06
-0.0108177
-0.00089006
9.50747e-07
-0.0108177
-0.000890001
7.17022e-07
-0.0108177
-0.00089008
4.36787e-07
-0.0108179
-0.000890256
-0.0108177
-0.000890497
9.96158e-07
-0.00786236
-0.00592097
8.6496e-07
-0.00786236
-0.00592094
6.57991e-07
-0.00786234
-0.0059209
3.13216e-07
-0.00786242
-0.00592095
-5.90706e-08
-0.00786256
-0.00592112
-0.00786249
-0.0059212
9.29424e-08
-0.0151009
2.2564e-08
-0.0151016
4.27391e-08
-0.0151017
-4.43114e-08
-0.0151018
-2.68574e-07
-0.0151018
-0.0151014
2.37555e-07
-0.000996135
0.00305919
4.15961e-08
-0.000996192
0.00305926
-5.02295e-08
-0.00099619
0.00305926
-1.14468e-07
-0.000996204
0.00305926
-1.73142e-07
-0.000996219
0.00305926
-0.000996219
0.00305916
1.96956e-07
-0.00205056
0.00320293
-2.39336e-08
-0.00205066
0.003203
-1.15261e-07
-0.00205066
0.003203
-1.96187e-07
-0.00205068
0.00320299
-2.87658e-07
-0.00205069
0.003203
-0.00205064
0.0032029
1.64966e-07
-0.00322291
0.00348593
-7.93832e-08
-0.00322307
0.00348601
-1.82883e-07
-0.00322308
0.003486
-2.7251e-07
-0.00322309
0.00348601
-3.64756e-07
-0.0032231
0.00348602
-0.00322298
0.00348592
5.48367e-08
-0.0045751
0.00389358
-1.59955e-07
-0.0045753
0.00389369
-2.58813e-07
-0.0045753
0.00389369
-3.3552e-07
-0.0045753
0.00389371
-4.03444e-07
-0.00457528
0.00389374
-0.00457509
0.00389365
-8.93617e-08
-0.00617232
0.00439457
-2.06499e-07
-0.00617253
0.00439475
-2.65e-07
-0.00617249
0.00439478
-3.00785e-07
-0.00617245
0.00439482
-3.1329e-07
-0.00617241
0.00439487
-0.00617213
0.00439477
-1.25985e-07
-0.00809636
0.00492745
-1.28532e-07
-0.00809653
0.00492773
-1.34275e-07
-0.00809646
0.00492778
-1.14804e-07
-0.00809639
0.00492783
-6.2194e-08
-0.00809633
0.00492787
-0.008096
0.00492772
8.53718e-08
-0.010507
0.00541705
1.45206e-07
-0.0105072
0.00541741
1.70089e-07
-0.0105071
0.00541745
2.05848e-07
-0.010507
0.00541746
2.61754e-07
-0.010507
0.00541744
-0.0105066
0.00541718
5.90201e-07
-0.0135321
0.00559579
5.52022e-07
-0.0135324
0.00559617
5.33095e-07
-0.0135323
0.00559615
5.0298e-07
-0.0135323
0.00559608
4.51463e-07
-0.0135324
0.00559597
-0.013532
0.00559561
1.12907e-06
-0.0166074
0.00453522
9.22326e-07
-0.0166077
0.00453562
7.81218e-07
-0.0166077
0.00453557
5.92453e-07
-0.0166077
0.00453544
3.4962e-07
-0.0166078
0.00453526
-0.0166074
0.00453488
1.28203e-06
-0.0175531
5.35614e-05
9.50142e-07
-0.0175532
5.39701e-05
6.89613e-07
-0.0175531
5.40095e-05
3.4321e-07
-0.0175531
5.39338e-05
-3.38935e-08
-0.0175533
5.37577e-05
-0.0175529
5.3543e-05
6.57314e-07
-0.0141007
-0.0093751
3.58671e-07
-0.0141007
-0.00937521
1.49789e-07
-0.0141005
-0.00937506
-1.39841e-07
-0.0141005
-0.009375
-4.53017e-07
-0.0141005
-0.0093751
-0.0141003
-0.009375
-1.13061e-06
-0.0292016
-9.106e-07
-0.0292037
-3.90707e-07
-0.0292038
-6.89136e-08
-0.0292035
-4.10172e-08
-0.0292031
-0.0292018
1.59327e-07
-0.000906735
0.00396539
9.05524e-09
-0.000906785
0.00396549
-6.0414e-08
-0.000906784
0.0039655
-1.10924e-07
-0.000906795
0.0039655
-1.57132e-07
-0.000906807
0.0039655
-0.0009068
0.00396537
1.21206e-07
-0.0018836
0.00417904
-4.82036e-08
-0.00188369
0.00417915
-1.19071e-07
-0.0018837
0.00417915
-1.809e-07
-0.00188371
0.00417915
-2.52003e-07
-0.00188372
0.00417916
-0.00188366
0.00417904
7.87056e-08
-0.00300793
0.00460947
-1.05354e-07
-0.00300807
0.0046096
-1.85332e-07
-0.00300808
0.00460961
-2.53646e-07
-0.00300808
0.00460962
-3.17985e-07
-0.00300809
0.00460963
-0.00300798
0.0046095
-1.8468e-08
-0.00437232
0.0052573
-1.79389e-07
-0.00437249
0.00525747
-2.53985e-07
-0.00437249
0.00525748
-3.06385e-07
-0.00437248
0.0052575
-3.41674e-07
-0.00437246
0.00525754
-0.00437228
0.0052574
-9.91144e-08
-0.00608062
0.00610253
-1.94225e-07
-0.0060808
0.00610276
-2.39735e-07
-0.00608077
0.00610279
-2.57217e-07
-0.00608073
0.00610283
-2.44524e-07
-0.00608069
0.00610287
-0.00608043
0.0061027
-2.34847e-08
-0.0082037
0.00705054
-6.88135e-08
-0.00820389
0.00705085
-8.24383e-08
-0.00820383
0.00705088
-6.83063e-08
-0.00820378
0.00705091
-2.98951e-08
-0.00820375
0.00705094
-0.00820346
0.00705069
3.33224e-07
-0.0106852
0.00789853
2.27996e-07
-0.0106855
0.00789888
2.10291e-07
-0.0106855
0.00789887
2.04863e-07
-0.0106855
0.00789886
1.81423e-07
-0.0106855
0.00789883
-0.0106852
0.00789847
8.2891e-07
-0.0132799
0.00818966
5.42507e-07
-0.0132803
0.00819
4.2633e-07
-0.0132804
0.00818993
2.95741e-07
-0.0132804
0.00818985
1.14726e-07
-0.0132806
0.00818974
-0.0132802
0.0081893
1.09446e-06
-0.0157429
0.00699629
6.11135e-07
-0.0157434
0.00699662
3.52357e-07
-0.0157434
0.00699653
6.12317e-08
-0.0157435
0.00699641
-2.68278e-07
-0.0157436
0.00699626
-0.0157432
0.00699585
7.81475e-07
-0.018266
0.00257423
2.88876e-07
-0.0182663
0.00257456
7.09186e-09
-0.0182661
0.00257456
-3.3036e-07
-0.018266
0.00257449
-6.80532e-07
-0.018266
0.00257438
-0.0182655
0.00257416
1.44816e-07
-0.0144108
-0.0132322
2.34016e-08
-0.0144109
-0.0132324
-8.49995e-09
-0.0144104
-0.0132323
-2.35091e-07
-0.0144099
-0.0132321
-5.79799e-07
-0.0144096
-0.0132321
-0.0144093
-0.0132319
-1.11282e-06
-0.0436124
-8.46752e-07
-0.0436155
-1.92477e-07
-0.0436153
2.43748e-07
-0.0436141
1.60372e-07
-0.0436129
-0.0436108
2.35216e-06
-0.740053
-0.368807
5.24698e-06
-0.740057
-0.368803
4.08434e-06
-0.740054
-0.368801
2.60006e-06
-0.740052
-0.368802
5.02145e-06
-0.740052
-0.368807
-0.740058
-0.368792
1.26269e-05
1.95105
-2.69112
1.14144e-05
1.95105
-2.69111
8.7386e-06
1.95105
-2.6911
1.47368e-05
1.95105
-2.69111
2.17179e-05
1.95106
-2.69112
1.95105
-2.69109
1.7672e-05
-4.42379
1.8671e-05
-4.42379
1.63507e-05
-4.42378
2.32048e-05
-4.42379
2.8503e-05
-4.42379
-4.42376
-7.98463e-06
-2.60566
0.652083
-5.14127e-06
-2.60567
0.652076
5.98083e-06
-2.60567
0.652072
-1.5834e-07
-2.60565
0.652074
-2.91044e-05
-2.60564
0.652072
-2.60567
0.652079
1.56946e-07
-3.78046
-1.51632
7.20539e-06
-3.78046
-1.51633
4.22797e-05
-3.78046
-1.51635
4.61461e-05
-3.78043
-1.51634
9.80638e-06
-3.78041
-1.51631
-3.78042
-1.51633
-3.59832e-05
-2.49197
-5.61121e-05
-2.49199
-6.9855e-05
-2.49199
-7.32422e-05
-2.49198
-3.94859e-05
-2.49196
-2.49192
1.27723e-05
-2.2554
0.163689
6.01973e-06
-2.25551
0.163789
2.08906e-05
-2.25553
0.163791
2.59567e-05
-2.25553
0.163805
2.41775e-05
-2.25555
0.163831
-2.25559
0.163897
-3.50311e-06
-2.56901
-1.20271
2.55859e-05
-2.56908
-1.20279
4.72248e-05
-2.56909
-1.2028
7.62393e-05
-2.5691
-1.2028
0.000112996
-2.56913
-1.20276
-2.56913
-1.20268
1.74714e-05
-1.598
2.25875e-05
-1.59806
1.54683e-05
-1.59806
6.41526e-06
-1.59806
6.43953e-06
-1.59804
-1.59802
0.000251746
-2.23347
0.0509095
0.000230775
-2.23361
0.0512892
0.000176749
-2.23361
0.0513402
0.000122597
-2.23363
0.0513738
7.15281e-05
-2.23365
0.0514398
-2.23362
0.051549
8.73686e-05
-1.61705
-1.81923
9.77052e-05
-1.61708
-1.81933
6.52494e-05
-1.61707
-1.81932
3.7512e-05
-1.61708
-1.81932
4.23494e-05
-1.61711
-1.8193
-1.6171
-1.81916
1.73869e-05
-1.38261
2.01671e-05
-1.38269
1.60345e-05
-1.38271
1.56704e-05
-1.38273
2.25099e-05
-1.38273
-1.3827
-5.69269e-05
-0.870467
-1.18603
-5.54849e-05
-0.870494
-1.18582
-5.81895e-05
-0.870458
-1.18575
-9.55526e-05
-0.870432
-1.18571
-0.000131437
-0.870428
-1.18565
-0.870423
-1.18562
4.15718e-05
-1.00144
-1.6883
3.44109e-06
-1.00138
-1.68841
-1.68748e-05
-1.00136
-1.6884
-2.39755e-05
-1.00134
-1.68842
-2.9543e-05
-1.00132
-1.68841
-1.00133
-1.68829
-2.93837e-05
-0.932249
-2.7418e-05
-0.932318
-2.77524e-05
-0.932337
-1.53949e-05
-0.932357
1.7459e-05
-0.932372
-0.932343
-0.000136224
-0.236022
-1.56763
-0.000135645
-0.23591
-1.56774
-5.7334e-05
-0.235855
-1.56769
2.4615e-06
-0.235791
-1.56764
1.05355e-05
-0.235778
-1.56759
-0.235891
-1.56747
-6.66535e-05
-0.721358
-1.2029
-7.52889e-05
-0.721316
-1.203
-4.72249e-05
-0.721289
-1.203
-4.94791e-06
-0.721253
-1.203
3.04078e-05
-0.721228
-1.203
-0.721239
-1.20291
-1.69116e-05
-0.653167
-1.71229e-05
-0.653215
-1.9814e-05
-0.653224
-1.35082e-05
-0.653234
3.68295e-06
-0.653244
-0.653207
1.08575e-05
-0.546899
-1.38254
9.34385e-05
-0.546839
-1.38271
0.000153212
-0.546809
-1.38265
0.000187571
-0.546771
-1.38259
0.000136007
-0.546785
-1.38251
-0.546927
-1.38237
-1.00624e-05
-0.734375
-1.01541
1.01959e-06
-0.734348
-1.0155
2.13507e-05
-0.734337
-1.01549
5.80939e-05
-0.734331
-1.01547
7.52057e-05
-0.734336
-1.01546
-0.734379
-1.01538
-6.00618e-06
-0.576289
-6.60628e-07
-0.576332
7.32275e-06
-0.576337
1.62225e-05
-0.576338
2.02247e-05
-0.57634
-0.576301
8.47877e-05
-0.269357
-1.88885
0.000176564
-0.269215
-1.889
0.000210556
-0.269218
-1.88893
0.00020313
-0.269242
-1.88887
0.000114173
-0.269298
-1.88879
-0.269464
-1.88872
2.15021e-05
-0.032227
-1.25257
7.07467e-05
-0.0321058
-1.25266
9.40248e-05
-0.0320927
-1.25264
0.000104799
-0.0321065
-1.25262
8.97201e-05
-0.0321329
-1.25262
-0.0322378
-1.25252
-2.22645e-05
-0.51753
-1.14952e-05
-0.517561
3.51017e-06
-0.517567
1.85675e-05
-0.517572
2.76108e-05
-0.51758
-0.517551
0.000178341
0.720699
-2.12399
0.000166802
0.720869
-2.12408
0.000126597
0.720802
-2.12403
7.61694e-05
0.720749
-2.12399
-6.68979e-06
0.720733
-2.12391
0.720478
-2.12388
3.39832e-05
0.6731
-1.205
7.20598e-05
0.673233
-1.20506
6.01496e-05
0.673217
-1.20504
4.52393e-05
0.673187
-1.20505
6.47713e-05
0.673169
-1.20507
0.673031
-1.20501
-1.89052e-05
-0.433046
-1.59128e-06
-0.43307
1.05359e-05
-0.433081
1.85947e-05
-0.433094
3.36205e-05
-0.433113
-0.433095
0.000140237
2.06703
-1.39828
8.2209e-05
2.06712
-1.39828
6.24537e-06
2.06709
-1.39827
-4.95248e-05
2.06712
-1.39824
-8.38395e-05
2.06727
-1.39818
2.06703
-1.3982
9.61558e-06
1.54413
-0.682111
-3.47992e-05
1.54424
-0.682129
-9.31951e-05
1.54424
-0.682133
-0.000114113
1.54424
-0.682151
-3.55906e-05
1.5443
-0.682178
1.54415
-0.682166
-1.98446e-05
-0.210435
-3.03102e-05
-0.210448
-4.1539e-05
-0.210459
-4.2403e-05
-0.210473
-3.50154e-06
-0.210489
-0.210491
-3.03152e-05
2.84682
0.0144858
-0.000116685
2.84698
0.0145278
-0.000189246
2.84706
0.0145366
-0.000206196
2.8472
0.0145475
-0.000153603
2.84749
0.0145758
2.84731
0.0145445
-0.000108145
1.97765
0.187165
-0.000204516
1.97776
0.187175
-0.000264803
1.97781
0.187178
-0.000264132
1.97787
0.187176
-0.000130009
1.97799
0.187182
1.97786
0.187148
-4.98256e-05
0.0695463
-8.45478e-05
0.069549
-0.000107497
0.0695486
-0.000106965
0.0695479
-4.34295e-05
0.0695514
0.0695352
-0.000154631
2.82775
1.29418
-0.000198915
2.82797
1.29424
-0.000214087
2.82805
1.29426
-0.000194322
2.82815
1.29427
-0.000117751
2.82833
1.2943
2.82821
1.29424
-0.000114713
2.01718
0.997837
-0.000169921
2.01731
0.997892
-0.000200956
2.01734
0.997909
-0.000191419
2.01739
0.997926
-9.9379e-05
2.01747
0.997952
2.01736
0.997895
-4.84797e-05
0.352538
-7.63536e-05
0.352564
-9.41934e-05
0.352573
-9.0974e-05
0.352581
-4.13742e-05
0.352592
0.352569
-7.13606e-07
0.0578576
-0.23492
0.177063
-2.24153e-07
0.0578599
-0.23493
0.17707
5.67279e-07
0.05786
-0.234931
0.17707
1.02121e-06
0.05786
-0.23493
0.17707
9.97987e-07
0.0578599
-0.234929
0.177069
0.0578576
-0.23492
0.177062
-8.25882e-07
0.115674
-0.2061
0.148284
-4.52262e-07
0.115679
-0.206109
0.14829
3.53481e-07
0.115679
-0.20611
0.14829
8.48383e-07
0.115679
-0.20611
0.14829
8.25835e-07
0.115678
-0.20611
0.14829
0.115674
-0.206102
0.148284
-2.48059e-07
-0.0831565
0.0583694
-9.03581e-08
-0.08316
0.0583715
2.47622e-07
-0.0831604
0.0583716
4.0622e-07
-0.0831603
0.0583716
2.97197e-07
-0.0831603
0.0583715
-0.0831572
0.0583693
-6.05978e-07
0.0756102
-0.31053
2.39127e-07
0.0756132
-0.310544
1.37466e-06
0.0756131
-0.310546
1.90082e-06
0.0756129
-0.310545
1.43391e-06
0.0756127
-0.310543
0.0756095
-0.310529
-1.78895e-06
0.162582
-0.293071
-1.28713e-06
0.162589
-0.293085
-1.94164e-07
0.162589
-0.293087
9.46462e-07
0.162588
-0.293087
1.11618e-06
0.162588
-0.293087
0.162582
-0.293075
-8.50863e-07
-0.119134
-5.48578e-07
-0.119139
-1.4302e-09
-0.11914
4.70404e-07
-0.11914
4.45837e-07
-0.11914
-0.119136
-3.74353e-07
0.0944634
-0.404993
8.01512e-07
0.0944666
-0.405012
1.93075e-06
0.0944661
-0.405014
2.81083e-06
0.0944654
-0.405012
2.44799e-06
0.0944648
-0.40501
0.0944606
-0.404989
-3.29575e-06
0.226259
-0.424863
-2.89504e-06
0.226268
-0.424887
-1.94754e-06
0.226268
-0.42489
-2.86391e-07
0.226268
-0.424892
1.24021e-06
0.226267
-0.424892
0.226258
-0.424871
-1.8793e-06
-0.171569
-1.58478e-06
-0.171578
-8.24019e-07
-0.17158
-2.30439e-09
-0.171581
5.68994e-07
-0.171581
-0.171573
4.94741e-07
0.110741
-0.515734
4.67574e-07
0.110744
-0.515758
7.77214e-07
0.110743
-0.515758
2.96963e-06
0.110742
-0.515757
5.02719e-06
0.110741
-0.515754
0.110736
-0.515721
-6.85222e-06
0.311665
-0.62578
-8.69929e-06
0.311675
-0.625816
-8.94399e-06
0.311676
-0.625823
-5.57824e-06
0.311675
-0.625829
3.78552e-07
0.311674
-0.625833
0.31166
-0.625796
-3.30551e-06
-0.249439
-4.04326e-06
-0.249455
-3.95637e-06
-0.249458
-2.47206e-06
-0.249461
-1.29378e-08
-0.249463
-0.249449
3.18251e-06
0.184359
-0.700097
1.33184e-06
0.184371
-0.70013
-2.71303e-07
0.184371
-0.70013
-1.76107e-06
0.184372
-0.70013
-2.15315e-06
0.184375
-0.700129
0.184362
-0.700086
-1.98422e-05
0.433648
-0.875049
-2.59704e-05
0.433666
-0.875106
-2.67104e-05
0.433668
-0.875119
-2.29542e-05
0.433669
-0.87513
-7.97487e-06
0.43367
-0.875144
0.433648
-0.87509
-8.65321e-06
-0.347483
-1.23741e-05
-0.347507
-1.36218e-05
-0.347514
-1.09395e-05
-0.34752
-2.68657e-06
-0.347526
-0.347504
1.44884e-05
0.594069
1.26592e-06
0.594124
-8.36544e-06
0.594133
-1.4369e-05
0.594148
-2.07991e-05
0.594174
0.594134
-2.95667e-05
0.716882
-4.54881e-05
0.716924
-5.4519e-05
0.716932
-5.20814e-05
0.716941
-2.51008e-05
0.716955
0.716914
-2.21149e-05
-3.07794e-05
-3.42486e-05
-3.14146e-05
-1.30885e-05
8.84833e-08
0.00462659
-0.000661584
-1.75853e-08
0.00462672
-0.000661618
-6.37463e-08
0.00462672
-0.00066162
-9.9151e-08
0.00462673
-0.000661628
-1.31375e-07
0.00462673
-0.000661639
0.00462659
-0.000661635
2.87151e-08
0.00505313
-0.000426781
-2.88138e-08
0.00505329
-0.000426803
-5.4103e-08
0.00505329
-0.000426805
-7.44862e-08
0.0050533
-0.000426811
-9.4698e-08
0.00505331
-0.000426817
0.00505315
-0.000426813
-6.80855e-09
-0.000152763
-2.4078e-08
-0.00015277
-3.123e-08
-0.000152771
-3.9935e-08
-0.000152773
-5.06332e-08
-0.000152775
-0.000152772
5.29498e-08
0.00489993
-0.001383
-6.0859e-08
0.00490007
-0.00138306
-1.08701e-07
0.00490008
-0.00138307
-1.52686e-07
0.00490009
-0.00138308
-2.01395e-07
0.0049001
-0.00138309
0.00489995
-0.00138305
6.09518e-09
0.0053713
-0.000898456
-5.40233e-08
0.00537147
-0.000898496
-8.06583e-08
0.00537148
-0.000898502
-1.06298e-07
0.00537149
-0.000898507
-1.36236e-07
0.00537151
-0.000898512
0.00537134
-0.000898483
-1.40637e-08
-0.000323866
-3.0483e-08
-0.00032388
-3.88466e-08
-0.000323881
-4.91433e-08
-0.000323883
-6.29293e-08
-0.000323884
-0.000323872
8.82217e-09
0.0054639
-0.00223794
-1.08579e-07
0.00546407
-0.00223803
-1.61737e-07
0.00546408
-0.00223804
-2.04411e-07
0.00546409
-0.00223805
-2.42803e-07
0.00546411
-0.00223805
0.00546395
-0.00223797
-2.17309e-08
0.0060376
-0.00147244
-7.99438e-08
0.0060378
-0.00147249
-1.06766e-07
0.00603781
-0.0014725
-1.2888e-07
0.00603783
-0.0014725
-1.51228e-07
0.00603785
-0.0014725
0.00603767
-0.00147244
-2.33538e-08
-0.000537337
-3.78671e-08
-0.000537356
-4.5277e-08
-0.000537356
-5.36183e-08
-0.000537355
-6.29121e-08
-0.000537353
-0.000537329
-5.92445e-08
0.00635461
-0.00333564
-1.54295e-07
0.00635482
-0.00333576
-1.9621e-07
0.00635484
-0.00333576
-2.22123e-07
0.00635486
-0.00333575
-2.3469e-07
0.00635489
-0.00333573
0.0063547
-0.00333559
-5.52976e-08
0.00711945
-0.00223746
-9.43852e-08
0.0071197
-0.00223753
-1.10888e-07
0.00711971
-0.00223753
-1.21266e-07
0.00711973
-0.00223752
-1.24724e-07
0.00711975
-0.0022375
0.00711953
-0.0022374
-2.75214e-08
-0.000831276
-3.62211e-08
-0.000831299
-3.96362e-08
-0.000831296
-4.17512e-08
-0.00083129
-4.24197e-08
-0.000831284
-0.000831247
-7.46134e-08
0.00763101
-0.0048643
-1.23482e-07
0.00763128
-0.00486443
-1.43743e-07
0.0076313
-0.0048644
-1.43839e-07
0.00763132
-0.00486436
-1.28751e-07
0.00763135
-0.00486433
0.00763111
-0.00486413
-3.00291e-08
0.00873993
-0.00334646
-4.90235e-08
0.00874023
-0.00334654
-5.45739e-08
0.00874025
-0.00334652
-5.28096e-08
0.00874026
-0.0033465
-4.36613e-08
0.00874027
-0.00334648
0.00873998
-0.00334635
-8.17248e-09
-0.00127254
-1.43095e-08
-0.00127257
-1.40474e-08
-0.00127256
-1.18887e-08
-0.00127256
-7.59578e-09
-0.00127256
-0.00127251
7.94228e-08
0.00938418
-0.00719805
2.36264e-08
0.00938451
-0.00719821
1.49652e-08
0.00938452
-0.00719818
1.87813e-08
0.00938453
-0.00719814
2.38876e-08
0.00938453
-0.00719812
0.0093842
-0.00719788
1.06032e-07
0.0111153
-0.00507776
5.62844e-08
0.0111157
-0.00507789
3.82042e-08
0.0111157
-0.00507788
2.73359e-08
0.0111157
-0.00507787
1.27101e-08
0.0111157
-0.00507788
0.0111153
-0.00507774
4.06596e-08
-0.00198488
2.04364e-08
-0.00198494
1.20119e-08
-0.00198495
2.79501e-09
-0.00198495
-1.12602e-08
-0.00198497
-0.00198493
4.08069e-07
0.0117697
-0.0110697
2.28722e-07
0.01177
-0.01107
1.77236e-07
0.01177
-0.0110701
1.21266e-07
0.01177
-0.0110701
4.18936e-08
0.01177
-0.0110701
0.0117695
-0.0110698
3.02593e-07
0.0146281
-0.00793681
1.40054e-07
0.0146285
-0.00793708
5.88536e-08
0.0146285
-0.00793711
-8.73981e-09
0.0146285
-0.00793716
-1.0547e-07
0.0146284
-0.00793721
0.0146279
-0.00793702
7.17117e-08
-0.00320224
9.20906e-09
-0.00320237
-2.1351e-08
-0.00320239
-6.43161e-08
-0.00320242
-1.24849e-07
-0.00320246
-0.0032024
6.44617e-07
0.0150009
-0.0178824
2.59536e-07
0.0150013
-0.017883
7.92764e-08
0.0150012
-0.0178831
-6.67834e-08
0.0150011
-0.0178832
-2.59051e-07
0.0150011
-0.0178833
0.0150005