/*--------------------------------*- C++ -*----------------------------------*\
| =========                 |                                                 |
| \\      /  F ield         | OpenFOAM: The Open Source CFD Toolbox           |
|  \\    /   O peration     | Version:  v1612+                                |
|   \\  /    A nd           | Web:      www.OpenFOAM.com                      |
|    \\/     M anipulation  |                                                 |
\*---------------------------------------------------------------------------*/
FoamFile
{
    version     2.0;
    format      ascii;
    class       volVectorField;
    location    "1.35";
    object      U;
}
// * * * * * * * * * * * * * * * * * * * * * * * * * * * * * * * * * * * * * //

dimensions      [0 1 -1 0 0 0 0];

internalField   nonuniform List<vector> 
1116
(
(0.400631 2.10077e-07 -0.41355)
(0.400632 3.75259e-07 -0.413552)
(0.400632 5.06724e-07 -0.413552)
(0.400632 8.30564e-07 -0.413552)
(0.400632 1.15008e-06 -0.413553)
(0.400632 7.23471e-07 -0.413552)
(1.12359 9.52314e-07 -0.519113)
(1.1236 9.83176e-07 -0.519115)
(1.1236 1.20815e-06 -0.519115)
(1.1236 1.02412e-06 -0.519114)
(1.1236 8.17653e-07 -0.519113)
(1.12359 -6.2842e-08 -0.519111)
(2.22723 9.41081e-07 -0.632381)
(2.22724 3.1728e-06 -0.632382)
(2.22723 3.89374e-06 -0.632379)
(2.22723 1.76819e-06 -0.632377)
(2.22723 8.22729e-07 -0.632376)
(2.22722 -3.34945e-07 -0.632373)
(3.39069 -3.35863e-06 -0.753591)
(3.3907 7.99627e-07 -0.753594)
(3.3907 2.09665e-06 -0.753589)
(3.39069 -1.23446e-06 -0.753586)
(3.39069 -2.88424e-06 -0.753587)
(3.39068 -5.39817e-07 -0.75359)
(4.71208 -1.70915e-05 -0.727174)
(4.71208 -1.27782e-05 -0.727203)
(4.71208 -2.11516e-06 -0.727198)
(4.71208 -3.34676e-06 -0.727195)
(4.71208 -1.48841e-06 -0.727198)
(4.71207 3.05069e-06 -0.7272)
(6.21691 -2.96791e-05 -0.691512)
(6.21692 -2.67866e-05 -0.691567)
(6.21691 -3.96649e-06 -0.691563)
(6.21692 -1.58277e-06 -0.691559)
(6.21692 2.24886e-06 -0.691559)
(6.21692 4.8219e-06 -0.691551)
(7.46646 -2.94478e-05 -1.02232)
(7.46654 -3.17815e-05 -1.02235)
(7.46654 -4.87791e-06 -1.02234)
(7.46655 4.20315e-06 -1.02234)
(7.46656 6.70868e-06 -1.02234)
(7.46655 3.93831e-06 -1.02233)
(8.70033 -3.72161e-06 -1.48855)
(8.70047 -5.05796e-06 -1.48856)
(8.70045 -5.14581e-06 -1.48855)
(8.70046 -3.84985e-06 -1.48854)
(8.70048 -5.39327e-06 -1.48857)
(8.70045 -1.33503e-06 -1.48853)
(10.1638 -2.10053e-05 -1.59288)
(10.164 -2.30542e-05 -1.59291)
(10.1639 -1.80518e-05 -1.59288)
(10.1639 -2.79244e-05 -1.59288)
(10.164 -1.99088e-05 -1.59291)
(10.1639 6.23608e-06 -1.59282)
(12.0984 -0.00012607 0.356117)
(12.0986 -0.000137298 0.355586)
(12.0986 -6.21911e-05 0.355651)
(12.0986 -6.14353e-05 0.355671)
(12.0987 -1.73138e-05 0.355615)
(12.0984 5.40881e-05 0.356104)
(10.3386 -1.0838e-05 2.09583)
(10.3392 7.90821e-05 2.0956)
(10.3392 9.82254e-05 2.09568)
(10.3392 0.000101437 2.09566)
(10.3391 0.000228707 2.09567)
(10.3381 0.000193436 2.09626)
(3.25299 -0.000125878 2.66779)
(3.25374 4.88497e-05 2.66774)
(3.25354 0.000345241 2.66775)
(3.25346 0.000471813 2.66775)
(3.25336 0.00056017 2.66778)
(3.25256 0.000281176 2.66789)
(0.414021 2.08509e-07 -1.06343)
(0.414023 1.05157e-06 -1.06343)
(0.414022 1.25025e-06 -1.06343)
(0.41402 7.60008e-07 -1.06343)
(0.41402 1.3063e-07 -1.06343)
(0.414019 9.01271e-09 -1.06343)
(1.03556 1.19594e-06 -1.40011)
(1.03556 4.50543e-06 -1.40012)
(1.03556 3.98457e-06 -1.40011)
(1.03556 1.24408e-06 -1.40011)
(1.03556 5.52935e-07 -1.40011)
(1.03555 5.66218e-07 -1.4001)
(2.02728 2.83145e-06 -1.57712)
(2.0273 1.18368e-05 -1.57713)
(2.0273 5.68658e-06 -1.57712)
(2.0273 2.06725e-06 -1.57711)
(2.02729 -3.07483e-07 -1.57711)
(2.02728 4.14501e-06 -1.5771)
(2.87998 -4.75069e-06 -1.94754)
(2.88001 7.39303e-07 -1.94755)
(2.88001 2.9518e-06 -1.94754)
(2.88001 -6.83835e-08 -1.94753)
(2.88 3.37746e-06 -1.94754)
(2.87998 7.69824e-06 -1.94754)
(4.24308 -6.77507e-06 -2.4762)
(4.24313 -8.88402e-06 -2.47629)
(4.24312 9.20556e-06 -2.47627)
(4.24312 3.78098e-07 -2.47627)
(4.24311 1.13518e-05 -2.47628)
(4.24309 5.29433e-06 -2.47627)
(6.00186 -3.31859e-06 -2.6644)
(6.00195 -1.10629e-05 -2.66464)
(6.00194 2.4981e-05 -2.66462)
(6.00194 5.0122e-06 -2.6646)
(6.00194 2.25901e-05 -2.66461)
(6.00191 2.68301e-06 -2.66458)
(7.84053 7.97205e-07 -2.03827)
(7.84065 -2.49956e-05 -2.03861)
(7.84063 1.47767e-05 -2.03859)
(7.84063 -1.09449e-05 -2.03856)
(7.84066 8.63731e-06 -2.03856)
(7.8406 -1.48973e-05 -2.03854)
(8.94374 4.40344e-05 -2.82324)
(8.94434 -3.74198e-05 -2.82336)
(8.94422 -9.02905e-05 -2.82335)
(8.94418 -9.15045e-05 -2.82334)
(8.94436 -9.24291e-05 -2.8234)
(8.94433 -0.000118181 -2.82339)
(10.8815 -0.000158199 -2.79304)
(10.8819 -0.000308198 -2.79392)
(10.8818 -0.000326602 -2.79385)
(10.8817 -0.000332284 -2.79383)
(10.8822 -0.0003946 -2.79412)
(10.8817 -0.000294145 -2.79341)
(13.6194 4.81695e-06 2.86096)
(13.6197 -7.49568e-05 2.86062)
(13.6197 -0.000242852 2.86066)
(13.6197 -0.000241821 2.86069)
(13.6202 -0.000393944 2.8607)
(13.6189 -0.000253461 2.86112)
(9.90275 -4.0941e-05 5.73544)
(9.90377 -8.90578e-05 5.73508)
(9.90341 -0.000188733 5.73517)
(9.90335 -0.000150072 5.7352)
(9.90382 -0.000274023 5.73525)
(9.90185 -0.000171059 5.73591)
(3.12518 -0.000114442 7.948)
(3.12623 3.09379e-05 7.94808)
(3.12598 0.000292223 7.94819)
(3.1259 0.000412834 7.94824)
(3.12598 0.000549463 7.94829)
(3.12484 0.000302867 7.9485)
(0.286584 2.14737e-06 -1.77885)
(0.286587 5.25621e-06 -1.77885)
(0.286585 4.74473e-06 -1.77885)
(0.286586 2.58728e-06 -1.77885)
(0.286586 2.14963e-06 -1.77885)
(0.286586 1.12144e-06 -1.77884)
(0.763983 4.91176e-06 -2.08946)
(0.764006 1.55096e-05 -2.08947)
(0.764006 7.01048e-06 -2.08946)
(0.764005 5.1484e-06 -2.08945)
(0.764004 1.4632e-06 -2.08945)
(0.764001 6.19183e-06 -2.08944)
(1.29127 7.64968e-06 -2.42155)
(1.29132 1.23067e-05 -2.42155)
(1.29132 6.9225e-06 -2.42153)
(1.29132 3.59761e-06 -2.42153)
(1.29131 7.96234e-06 -2.42153)
(1.29131 8.54508e-06 -2.4215)
(2.5827 2.40855e-05 -3.48956)
(2.58279 1.07012e-05 -3.4896)
(2.58279 2.19983e-05 -3.48957)
(2.58278 7.86555e-06 -3.48957)
(2.58277 2.45652e-05 -3.48957)
(2.58277 4.3715e-08 -3.48954)
(4.48319 6.32415e-05 -4.19821)
(4.48337 2.71643e-05 -4.19839)
(4.48335 7.06681e-05 -4.19835)
(4.48334 3.11138e-05 -4.19835)
(4.48332 7.39708e-05 -4.19835)
(4.48328 1.10253e-06 -4.1983)
(5.01818 5.20803e-05 -4.37054)
(5.01855 -2.30506e-05 -4.3708)
(5.01857 8.41452e-05 -4.37072)
(5.01857 2.91891e-05 -4.37069)
(5.01858 8.60531e-05 -4.37071)
(5.0185 -7.64047e-06 -4.37063)
(5.86547 6.17882e-05 -2.2029)
(5.86553 -5.81395e-05 -2.20338)
(5.86549 -5.16906e-05 -2.2033)
(5.86546 -9.32434e-05 -2.20325)
(5.8656 -5.54e-05 -2.2034)
(5.8655 -0.000100146 -2.20349)
(4.7299 0.00010693 -4.7898)
(4.73049 -7.56502e-06 -4.78985)
(4.73002 -0.000228877 -4.7899)
(4.72987 -0.000145365 -4.78995)
(4.7304 -0.000148649 -4.79022)
(4.73027 -0.000165514 -4.79013)
(1.72691 3.99155e-05 -3.21401)
(1.72756 1.97725e-07 -3.21434)
(1.72703 -0.000183 -3.21434)
(1.72684 -0.000126218 -3.21443)
(1.72759 -0.000282576 -3.21499)
(1.72737 -0.000251865 -3.21487)
(3.82396 8.41684e-05 5.56857)
(3.8242 6.43694e-05 5.56797)
(3.8239 -0.000120272 5.568)
(3.82389 -6.85366e-05 5.56799)
(3.82466 -0.000362572 5.56789)
(3.82394 -0.000323704 5.56829)
(2.8891 0.000146307 10.0577)
(2.89058 0.00019913 10.0574)
(2.89005 6.08621e-05 10.0574)
(2.89007 0.000122342 10.0575)
(2.89092 -0.00013506 10.0575)
(2.88918 -0.000186387 10.0582)
(1.827 -8.78359e-05 10.8994)
(1.82775 7.67206e-05 10.9002)
(1.82768 0.000311556 10.9003)
(1.82763 0.00027669 10.9004)
(1.8277 0.000386148 10.9007)
(1.82721 0.000251841 10.9005)
(0.00656274 8.51221e-06 -2.45053)
(0.0065734 1.39763e-05 -2.45054)
(0.00657578 8.42779e-06 -2.45054)
(0.00657645 6.17214e-06 -2.45054)
(0.0065765 4.24857e-06 -2.45054)
(0.00658356 3.27933e-06 -2.45053)
(0.138252 5.36985e-06 -2.28824)
(0.138279 1.46843e-05 -2.28825)
(0.138282 2.43361e-06 -2.28825)
(0.138281 2.97814e-06 -2.28825)
(0.138276 -3.9423e-06 -2.28826)
(0.138296 5.1201e-06 -2.28824)
(1.39069 2.19328e-05 -3.78772)
(1.3908 -1.09799e-05 -3.7877)
(1.39081 9.72459e-06 -3.78767)
(1.39081 -4.97251e-06 -3.78767)
(1.39081 6.8697e-06 -3.78767)
(1.39082 -2.35972e-05 -3.78763)
(3.01971 4.04602e-05 -4.71128)
(3.01985 2.61138e-05 -4.7114)
(3.01985 8.29563e-05 -4.71136)
(3.01986 4.95589e-05 -4.71135)
(3.01987 9.24962e-05 -4.71133)
(3.01992 1.38784e-05 -4.71128)
(4.15921 0.00016334 -4.65598)
(4.15988 0.000145394 -4.65614)
(4.15994 0.000147749 -4.65611)
(4.15994 7.17699e-05 -4.65609)
(4.15997 6.8527e-05 -4.65604)
(4.16001 -2.94491e-05 -4.6559)
(1.96645 1.34326e-05 -2.3341)
(1.96705 -9.89534e-05 -2.33452)
(1.96716 -1.138e-07 -2.33432)
(1.96717 4.60144e-06 -2.33423)
(1.96724 3.47968e-05 -2.33431)
(1.9671 -1.354e-05 -2.33419)
(-0.694982 -2.39761e-05 -0.961889)
(-0.694895 8.0231e-06 -0.961731)
(-0.695093 3.24709e-05 -0.961666)
(-0.695063 0.000124606 -0.961655)
(-0.694697 0.000134509 -0.961915)
(-0.694526 2.83888e-05 -0.96239)
(-1.87525 1.49992e-05 -1.39731)
(-1.8755 9.5139e-05 -1.39708)
(-1.87557 6.82621e-05 -1.39721)
(-1.87552 8.7331e-05 -1.39739)
(-1.8751 -2.85555e-05 -1.39775)
(-1.87509 -0.000118961 -1.39824)
(-3.85916 0.00010411 1.19683)
(-3.85927 0.000175976 1.19676)
(-3.85951 7.85344e-05 1.19646)
(-3.85949 0.000139311 1.19628)
(-3.85899 -4.15572e-05 1.19612)
(-3.85921 -0.000149417 1.19586)
(-2.99604 0.000162075 6.23587)
(-2.99597 0.000281451 6.23566)
(-2.99618 0.000180205 6.2355)
(-2.99608 0.000187305 6.23555)
(-2.99543 -3.04602e-05 6.23574)
(-2.99595 -0.000125303 6.23564)
(-1.32442 0.00012345 10.1341)
(-1.32385 0.000248837 10.1343)
(-1.32397 0.000215181 10.1345)
(-1.32383 0.000182009 10.1348)
(-1.32329 6.76203e-05 10.1353)
(-1.32377 -1.13818e-05 10.1353)
(1.0079 -0.000105437 9.15421)
(1.00819 -6.64055e-05 9.155)
(1.0082 5.6573e-05 9.1552)
(1.00823 9.5868e-06 9.15546)
(1.00836 3.18393e-05 9.15587)
(1.00827 3.49528e-05 9.1557)
(0.00101756 4.15883e-07 0.00103001)
(0.00101762 4.12906e-07 0.00102999)
(0.00101765 1.54842e-08 0.00102996)
(0.00101767 -7.26794e-09 0.00102994)
(0.00101769 -5.61198e-08 0.00102992)
(0.00101771 -2.98552e-08 0.00102984)
(0.00309158 3.48647e-07 0.0010692)
(0.00309175 3.08053e-07 0.00106917)
(0.00309178 -5.75132e-08 0.00106915)
(0.00309181 -6.99204e-08 0.00106913)
(0.00309184 -1.96841e-07 0.00106911)
(0.00309181 -1.25624e-07 0.00106903)
(0.00527793 3.02663e-07 0.00114379)
(0.00527822 2.6462e-07 0.00114376)
(0.00527822 -8.04099e-08 0.00114374)
(0.00527826 -1.15372e-07 0.00114371)
(0.00527829 -2.35536e-07 0.00114369)
(0.00527813 -1.4321e-07 0.00114361)
(0.00763862 1.68521e-07 0.00124456)
(0.00763906 1.3385e-07 0.00124454)
(0.00763908 -1.13992e-07 0.00124452)
(0.0076391 -1.71012e-07 0.0012445)
(0.00763911 -2.64813e-07 0.00124449)
(0.00763884 -1.52376e-07 0.00124442)
(0.0102129 -3.39482e-08 0.00135469)
(0.0102135 -1.10519e-07 0.00135471)
(0.0102135 -1.59723e-07 0.00135471)
(0.0102135 -1.71933e-07 0.00135471)
(0.0102134 -2.31996e-07 0.00135473)
(0.010213 -1.21079e-07 0.0013547)
(0.0129955 -2.51173e-07 0.00144557)
(0.0129961 -3.08091e-07 0.00144567)
(0.012996 -1.12202e-07 0.0014457)
(0.0129959 -8.70937e-08 0.00144574)
(0.0129959 -8.10057e-08 0.00144578)
(0.0129952 -2.62171e-08 0.00144579)
(0.0159208 -3.58461e-07 0.00148396)
(0.0159213 -3.72129e-07 0.00148417)
(0.0159212 1.58206e-08 0.00148424)
(0.015921 8.61185e-08 0.0014843)
(0.0159209 1.41998e-07 0.00148437)
(0.0159202 1.08179e-07 0.0014844)
(0.0187912 -2.70441e-07 0.00148309)
(0.0187915 -2.14797e-07 0.0014834)
(0.0187914 2.23234e-07 0.00148351)
(0.0187912 3.61408e-07 0.00148355)
(0.0187911 4.25344e-07 0.00148358)
(0.0187903 2.52513e-07 0.00148356)
(0.0210369 4.17909e-08 0.00146383)
(0.0210372 2.64118e-07 0.00146415)
(0.021037 5.20062e-07 0.00146426)
(0.0210369 6.08789e-07 0.00146427)
(0.0210369 6.15173e-07 0.00146426)
(0.0210362 3.19311e-07 0.00146416)
(0.0212347 3.18216e-07 0.00104013)
(0.0212351 6.71949e-07 0.00104047)
(0.021235 7.04603e-07 0.00104055)
(0.0212351 7.00581e-07 0.00104053)
(0.0212351 5.8545e-07 0.00104046)
(0.0212346 2.46091e-07 0.0010403)
(0.0189978 5.21759e-07 -0.000957595)
(0.0189983 8.03273e-07 -0.000957534)
(0.0189984 6.29051e-07 -0.000957517)
(0.0189985 5.92144e-07 -0.000957584)
(0.0189987 3.53955e-07 -0.000957688)
(0.0189983 7.7467e-08 -0.000957797)
(0.00971222 2.79563e-07 -0.00525533)
(0.00971257 4.01696e-07 -0.00525568)
(0.00971268 2.78256e-07 -0.00525577)
(0.00971281 3.27357e-07 -0.00525589)
(0.00971294 9.962e-08 -0.00525599)
(0.00971273 -2.98607e-09 -0.00525591)
(0.00100048 3.1031e-07 0.00301168)
(0.00100055 2.3534e-07 0.0030117)
(0.00100055 -7.73821e-08 0.00301166)
(0.00100057 -7.23523e-08 0.00301164)
(0.00100059 -1.86551e-07 0.00301162)
(0.00100061 -1.32372e-07 0.00301146)
(0.00304487 2.49905e-07 0.0031327)
(0.00304504 1.78649e-07 0.0031327)
(0.00304505 -1.14986e-07 0.00313268)
(0.00304509 -1.37671e-07 0.00313265)
(0.00304513 -3.12981e-07 0.00313262)
(0.00304509 -2.18407e-07 0.00313247)
(0.00521647 2.08652e-07 0.00336526)
(0.00521674 1.47411e-07 0.00336527)
(0.00521676 -1.3951e-07 0.00336524)
(0.00521679 -2.04969e-07 0.00336521)
(0.00521683 -3.75524e-07 0.00336519)
(0.00521668 -2.48308e-07 0.00336505)
(0.00758948 1.0887e-07 0.00368398)
(0.00758987 2.64969e-08 0.00368401)
(0.00758989 -1.89815e-07 0.00368398)
(0.00758991 -2.6483e-07 0.00368397)
(0.00758992 -4.08516e-07 0.00368397)
(0.00758962 -2.50914e-07 0.00368385)
(0.0102166 -3.88146e-08 0.00403319)
(0.0102171 -1.49849e-07 0.00403331)
(0.010217 -2.22949e-07 0.00403333)
(0.010217 -2.56462e-07 0.00403337)
(0.0102169 -3.25665e-07 0.00403342)
(0.0102164 -1.81566e-07 0.00403335)
(0.0130927 -1.7418e-07 0.00429867)
(0.0130931 -2.53831e-07 0.00429897)
(0.013093 -1.49705e-07 0.00429906)
(0.0130929 -1.33437e-07 0.00429915)
(0.0130927 -8.38043e-08 0.00429925)
(0.013092 -2.24082e-08 0.0042992)
(0.0160752 -1.73241e-07 0.0042462)
(0.0160754 -1.7585e-07 0.00424671)
(0.0160752 5.93884e-08 0.00424686)
(0.016075 1.5843e-07 0.00424696)
(0.0160749 2.96189e-07 0.00424705)
(0.0160741 1.94335e-07 0.00424695)
(0.0188593 7.74574e-08 0.00338325)
(0.0188594 2.39798e-07 0.00338389)
(0.0188592 4.09229e-07 0.00338406)
(0.018859 5.00689e-07 0.00338409)
(0.0188589 6.0947e-07 0.00338407)
(0.0188583 3.4465e-07 0.00338385)
(0.0212116 3.92969e-07 0.000800497)
(0.0212118 7.9074e-07 0.000801147)
(0.0212116 8.18419e-07 0.000801269)
(0.0212115 8.40109e-07 0.000801211)
(0.0212116 7.82773e-07 0.00080106)
(0.0212111 3.46925e-07 0.000800734)
(0.0230071 7.01556e-07 -0.00472138)
(0.0230072 1.2048e-06 -0.00472084)
(0.0230071 9.62332e-07 -0.00472074)
(0.0230072 8.40452e-07 -0.00472084)
(0.0230075 5.1584e-07 -0.00472107)
(0.0230071 1.11438e-07 -0.0047213)
(0.0230845 6.79328e-07 -0.0126489)
(0.0230847 1.01611e-06 -0.012649)
(0.0230847 6.93921e-07 -0.012649)
(0.0230848 5.3913e-07 -0.0126492)
(0.0230852 4.81795e-08 -0.0126495)
(0.0230848 -1.96787e-07 -0.0126495)
(0.0156653 6.72992e-08 -0.026465)
(0.0156656 6.96623e-08 -0.0264663)
(0.0156657 -1.47157e-08 -0.0264665)
(0.0156658 4.17909e-08 -0.0264667)
(0.015666 -2.77712e-07 -0.0264669)
(0.0156657 -2.48344e-07 -0.0264662)
(0.000941409 2.44959e-07 0.00488399)
(0.000941468 1.66587e-07 0.00488409)
(0.000941467 -9.24581e-08 0.00488409)
(0.000941484 -8.30229e-08 0.00488408)
(0.0009415 -1.81842e-07 0.00488408)
(0.000941506 -1.27292e-07 0.00488392)
(0.00287569 1.90073e-07 0.0051011)
(0.00287584 1.26402e-07 0.0051012)
(0.00287584 -1.18433e-07 0.0051012)
(0.00287588 -1.50301e-07 0.00510119)
(0.00287591 -2.98737e-07 0.00510119)
(0.00287586 -2.0246e-07 0.00510103)
(0.00496624 1.54393e-07 0.00552564)
(0.00496648 8.53102e-08 0.00552576)
(0.00496649 -1.58377e-07 0.00552574)
(0.00496652 -2.20944e-07 0.00552574)
(0.00496655 -3.64624e-07 0.00552575)
(0.00496638 -2.32236e-07 0.0055256)
(0.00732408 7.30734e-08 0.00612898)
(0.00732442 -2.23639e-08 0.00612914)
(0.00732443 -2.15266e-07 0.00612914)
(0.00732444 -2.80882e-07 0.00612916)
(0.00732443 -3.95799e-07 0.00612921)
(0.00732413 -2.34086e-07 0.00612907)
(0.0100721 -2.61577e-08 0.00683907)
(0.0100725 -1.38818e-07 0.00683934)
(0.0100724 -2.33141e-07 0.00683938)
(0.0100724 -2.66658e-07 0.00683945)
(0.0100723 -3.13361e-07 0.00683954)
(0.0100718 -1.66714e-07 0.00683941)
(0.0133639 -5.96679e-08 0.00750551)
(0.0133642 -1.25856e-07 0.00750597)
(0.0133641 -1.23198e-07 0.00750607)
(0.013364 -1.13995e-07 0.00750617)
(0.0133639 -7.63146e-08 0.00750627)
(0.0133633 -1.86119e-08 0.00750607)
(0.0174701 8.53798e-08 0.00786782)
(0.0174703 1.43962e-07 0.00786845)
(0.0174702 1.40436e-07 0.00786856)
(0.01747 1.7832e-07 0.00786862)
(0.01747 2.46208e-07 0.00786862)
(0.0174693 1.53721e-07 0.00786826)
(0.0228001 3.76186e-07 0.0075615)
(0.0228004 6.37925e-07 0.00756219)
(0.0228003 5.12701e-07 0.00756223)
(0.0228002 5.05005e-07 0.00756215)
(0.0228003 4.73135e-07 0.007562)
(0.0227997 2.32607e-07 0.00756146)
(0.0293059 6.96842e-07 0.00613789)
(0.0293063 1.12246e-06 0.00613866)
(0.0293062 7.84758e-07 0.00613866)
(0.0293063 6.74862e-07 0.00613848)
(0.0293065 4.06873e-07 0.00613818)
(0.0293059 1.0675e-07 0.00613755)
(0.0339989 7.76213e-07 0.00273361)
(0.0339991 1.21052e-06 0.00273449)
(0.033999 7.40716e-07 0.00273459)
(0.0339991 5.27658e-07 0.00273444)
(0.0339994 6.02191e-08 0.00273411)
(0.0339987 -1.31051e-07 0.00273359)
(0.0365746 4.09649e-07 -0.00594141)
(0.0365747 5.35691e-07 -0.00594114)
(0.0365744 1.81464e-07 -0.00594093)
(0.0365743 6.94015e-08 -0.00594091)
(0.0365745 -4.11567e-07 -0.00594119)
(0.0365738 -3.53481e-07 -0.00594148)
(0.0228054 -8.813e-07 -0.0238293)
(0.0228057 -1.10601e-06 -0.0238306)
(0.0228055 -6.6934e-07 -0.0238306)
(0.0228054 -1.24547e-07 -0.0238306)
(0.0228054 -1.48175e-07 -0.0238306)
(0.0228049 6.43649e-08 -0.0238298)
(0.000833036 1.73362e-07 0.00656792)
(0.000833087 1.07619e-07 0.00656807)
(0.000833086 -8.75616e-08 0.00656809)
(0.000833099 -8.47265e-08 0.00656808)
(0.000833112 -1.6307e-07 0.00656809)
(0.000833111 -1.12337e-07 0.00656787)
(0.00255811 1.28938e-07 0.00690108)
(0.00255824 7.36657e-08 0.00690126)
(0.00255825 -1.11664e-07 0.00690126)
(0.00255828 -1.43275e-07 0.00690126)
(0.0025583 -2.59593e-07 0.00690127)
(0.00255825 -1.71641e-07 0.00690105)
(0.00446718 9.55603e-08 0.00756579)
(0.00446739 2.56776e-08 0.00756599)
(0.00446741 -1.5937e-07 0.00756599)
(0.00446743 -2.09031e-07 0.007566)
(0.00446744 -3.17982e-07 0.00756603)
(0.00446728 -1.97012e-07 0.00756582)
(0.00670921 3.30347e-08 0.00854894)
(0.00670949 -6.62064e-08 0.0085492)
(0.0067095 -2.16365e-07 0.00854922)
(0.00670949 -2.60523e-07 0.00854926)
(0.00670948 -3.4055e-07 0.00854932)
(0.00670919 -1.95203e-07 0.0085491)
(0.00946853 -1.65843e-08 0.00979741)
(0.00946883 -1.27382e-07 0.00979779)
(0.00946879 -2.19559e-07 0.00979784)
(0.00946874 -2.29889e-07 0.00979792)
(0.00946867 -2.55411e-07 0.009798)
(0.00946825 -1.32052e-07 0.00979775)
(0.0129355 3.43441e-08 0.0111529)
(0.0129358 -1.92577e-08 0.0111534)
(0.0129357 -8.61088e-08 0.0111535)
(0.0129356 -6.57419e-08 0.0111536)
(0.0129355 -4.76025e-08 0.0111536)
(0.012935 -1.39689e-08 0.0111533)
(0.0171879 2.41343e-07 0.012197)
(0.0171882 3.26108e-07 0.0121976)
(0.0171881 1.94615e-07 0.0121976)
(0.0171881 2.00842e-07 0.0121976)
(0.0171881 1.721e-07 0.0121976)
(0.0171876 7.26612e-08 0.012197)
(0.022073 5.41034e-07 0.0119738)
(0.0220736 7.44342e-07 0.0119744)
(0.0220736 4.17767e-07 0.0119743)
(0.0220737 3.56644e-07 0.0119742)
(0.0220738 1.6482e-07 0.011974)
(0.0220734 -6.80594e-09 0.0119732)
(0.0275034 6.87431e-07 0.00838788)
(0.0275042 9.03725e-07 0.00838849)
(0.0275043 4.03722e-07 0.00838835)
(0.0275045 2.43297e-07 0.00838809)
(0.0275048 -1.47187e-07 0.00838777)
(0.0275042 -2.5364e-07 0.00838711)
(0.0351294 5.03891e-07 -0.00341825)
(0.0351301 5.43313e-07 -0.00341762)
(0.0351299 7.59879e-08 -0.00341758)
(0.0351298 -1.08684e-07 -0.00341771)
(0.0351301 -5.68851e-07 -0.00341802)
(0.0351292 -4.96999e-07 -0.00341828)
(0.0432757 1.16012e-07 -0.0363635)
(0.0432764 -2.4015e-08 -0.0363643)
(0.0432755 -6.44657e-09 -0.036364)
(0.0432748 -3.59459e-08 -0.0363638)
(0.0432744 -4.6252e-07 -0.0363639)
(0.0432732 -4.86671e-07 -0.036363)
(0.0446116 -7.64519e-07 -0.1026)
(0.044614 -1.18016e-06 -0.102608)
(0.0446135 -4.59025e-07 -0.102608)
(0.0446125 1.03961e-07 -0.102606)
(0.0446117 2.9338e-07 -0.102604)
(0.0446098 3.29385e-08 -0.102599)
(-0.492682 1.8329e-06 -1.15714)
(-0.492667 4.54475e-06 -1.15713)
(-0.492659 3.91279e-06 -1.15713)
(-0.492661 2.6062e-06 -1.15712)
(-0.492669 3.109e-06 -1.15713)
(-0.492656 5.6685e-06 -1.15713)
(-3.01356 1.14611e-05 -1.9328)
(-3.01357 1.30892e-05 -1.93283)
(-3.01356 7.5229e-06 -1.93282)
(-3.01356 8.14917e-06 -1.93281)
(-3.01357 2.02608e-05 -1.93281)
(-3.01356 1.80391e-05 -1.93284)
(-3.86931 1.41102e-05 11.1303)
(-3.8693 1.95687e-05 11.1303)
(-3.86928 1.45015e-05 11.1303)
(-3.86928 1.53696e-05 11.1303)
(-3.86928 2.85457e-05 11.1303)
(-3.86927 2.24619e-05 11.1303)
(-1.31934 2.36112e-05 -3.25319)
(-1.31934 -3.41185e-05 -3.2532)
(-1.31934 2.20674e-05 -3.25319)
(-1.31934 -9.79e-06 -3.25319)
(-1.31935 8.7001e-06 -3.25319)
(-1.3193 -5.71579e-05 -3.25316)
(-7.72576 0.000130922 -5.40144)
(-7.72578 -0.000117171 -5.40147)
(-7.72577 0.000116044 -5.40146)
(-7.72577 -2.15338e-05 -5.40139)
(-7.72576 0.000144702 -5.4013)
(-7.72575 -0.000163092 -5.4014)
(-10.32 -1.38143e-05 -10.2932)
(-10.3201 -4.97592e-05 -10.2932)
(-10.3201 -5.7656e-05 -10.2932)
(-10.3201 -7.29776e-05 -10.2932)
(-10.3201 -5.11819e-05 -10.2933)
(-10.3199 -1.73973e-05 -10.2933)
(1.90854 3.37842e-05 -5.12117)
(1.90851 -2.73226e-05 -5.12129)
(1.90849 4.38716e-05 -5.12132)
(1.9085 2.41048e-06 -5.12131)
(1.90851 5.62075e-05 -5.12131)
(1.90848 -3.30901e-05 -5.12137)
(0.796665 -9.58867e-06 -4.36538)
(0.796627 8.06269e-06 -4.36565)
(0.796572 4.78841e-05 -4.3657)
(0.7966 4.82933e-05 -4.36571)
(0.796689 0.000108668 -4.36575)
(0.796633 8.57185e-05 -4.36587)
(-2.46883 1.60476e-05 -6.18486)
(-2.46887 2.5662e-05 -6.1849)
(-2.46886 1.31278e-05 -6.18489)
(-2.46883 1.28942e-05 -6.1849)
(-2.46876 3.97502e-07 -6.18498)
(-2.46873 5.3461e-06 -6.18492)
(0.564851 0.000143757 -4.35984)
(0.565298 0.000236068 -4.36018)
(0.565311 0.000222987 -4.36016)
(0.565346 0.000126998 -4.36016)
(0.565425 0.000106704 -4.3601)
(0.565713 2.71324e-05 -4.35999)
(-4.72631 7.31255e-05 -3.06126)
(-4.72654 0.000108441 -3.06144)
(-4.72654 6.47695e-05 -3.06147)
(-4.72654 4.62982e-05 -3.06151)
(-4.72648 3.43713e-05 -3.06158)
(-4.72617 3.09798e-05 -3.06161)
(-3.39008 1.37327e-05 -3.33915)
(-3.39024 2.23844e-05 -3.33914)
(-3.39028 1.34453e-05 -3.33908)
(-3.39029 1.3749e-05 -3.33908)
(-3.39026 1.77206e-05 -3.3391)
(-3.39023 1.74328e-05 -3.33905)
(-0.572781 9.57152e-06 -2.66936)
(-0.572008 -8.03385e-05 -2.66973)
(-0.571842 -3.36324e-05 -2.66967)
(-0.571756 -7.9546e-05 -2.66965)
(-0.571615 -0.000111483 -2.66969)
(-0.571563 -0.000110403 -2.66958)
(-3.2417 5.35974e-05 -0.684581)
(-3.24191 2.87747e-05 -0.684361)
(-3.24185 -1.72396e-05 -0.684309)
(-3.24185 -1.86489e-05 -0.684246)
(-3.24184 -3.01708e-05 -0.684198)
(-3.24157 -2.12722e-05 -0.684312)
(-2.55185 -2.39597e-05 -2.70883)
(-2.55202 -2.89115e-05 -2.7088)
(-2.55207 -2.3385e-05 -2.70876)
(-2.55211 -2.72664e-05 -2.70873)
(-2.55214 3.91171e-06 -2.70871)
(-2.55208 2.1185e-05 -2.70865)
(-3.72823 -0.00011493 -0.0294066)
(-3.72829 -0.000148896 -0.029218)
(-3.72821 -8.00307e-05 -0.0290972)
(-3.72812 -2.07305e-05 -0.0290015)
(-3.72804 2.0662e-05 -0.029048)
(-3.72796 7.71228e-06 -0.0293549)
(-2.99306 -6.04416e-05 -0.743854)
(-2.9933 -6.84818e-05 -0.743702)
(-2.99334 -5.4824e-05 -0.743644)
(-2.99336 -2.89994e-05 -0.743542)
(-2.99337 1.74012e-05 -0.743454)
(-2.99315 3.30024e-05 -0.743489)
(-1.35572 -1.13745e-05 -1.86009)
(-1.35583 -1.63713e-05 -1.86008)
(-1.35586 -1.73487e-05 -1.86005)
(-1.3559 -1.84666e-05 -1.86001)
(-1.35594 -3.35229e-06 -1.86)
(-1.35588 7.75741e-06 -1.85999)
(-2.33668 -3.52919e-05 -0.645666)
(-2.337 4.9536e-05 -0.645545)
(-2.33691 0.000142625 -0.64548)
(-2.3368 0.00014402 -0.645397)
(-2.33666 0.000175951 -0.645459)
(-2.3363 8.10936e-05 -0.645827)
(-1.88475 -9.06435e-06 -1.11926)
(-1.88489 -8.1962e-06 -1.11917)
(-1.88487 1.23441e-05 -1.11913)
(-1.88484 2.66252e-05 -1.11909)
(-1.88483 7.50684e-05 -1.11908)
(-1.88468 5.47632e-05 -1.11921)
(-1.31623 -1.76432e-06 -1.51262)
(-1.31632 -5.19579e-06 -1.5126)
(-1.31632 3.75158e-06 -1.51259)
(-1.31631 9.21834e-06 -1.5126)
(-1.31631 1.95909e-05 -1.51262)
(-1.31622 1.26967e-05 -1.51266)
(-3.64145 2.72299e-05 -1.10059)
(-3.6418 0.000142886 -1.10025)
(-3.64164 0.00019966 -1.1003)
(-3.64152 0.00018656 -1.10037)
(-3.64136 0.000156334 -1.10052)
(-3.64113 5.80753e-05 -1.10095)
(-2.44202 1.36333e-06 0.0329409)
(-2.44222 3.88963e-05 0.0331652)
(-2.4422 8.24142e-05 0.0331946)
(-2.44217 8.54543e-05 0.0331698)
(-2.44215 0.000104748 0.0331055)
(-2.44194 6.45841e-05 0.0328924)
(-1.03571 -9.20578e-06 -0.183335)
(-1.03578 -1.99823e-05 -0.183201)
(-1.0358 -4.23395e-06 -0.183189)
(-1.03581 1.0087e-05 -0.183207)
(-1.03581 2.52031e-05 -0.183226)
(-1.03575 1.83947e-05 -0.183328)
(-4.26064 0.000110595 1.10535)
(-4.26093 0.000197765 1.10564)
(-4.26079 0.000139187 1.10542)
(-4.26068 9.26398e-05 1.1053)
(-4.26052 1.87832e-05 1.10527)
(-4.2604 -1.87655e-05 1.1047)
(-2.51444 2.44024e-05 1.13439)
(-2.5146 5.50205e-05 1.1347)
(-2.51455 6.75254e-05 1.13465)
(-2.51452 3.90863e-05 1.13458)
(-2.51453 5.33595e-05 1.13453)
(-2.51435 4.98108e-05 1.13419)
(-1.00441 -1.14934e-05 1.06857)
(-1.00447 -1.21824e-05 1.06873)
(-1.00448 8.26231e-06 1.06871)
(-1.00449 1.16047e-05 1.06868)
(-1.00452 2.7395e-05 1.06866)
(-1.00447 2.46987e-05 1.06852)
(-3.73996 9.25261e-05 4.4025)
(-3.74005 0.000133143 4.4026)
(-3.74001 3.90308e-05 4.4025)
(-3.73994 -2.18278e-05 4.40257)
(-3.7398 -8.3171e-05 4.40298)
(-3.73982 -5.87117e-05 4.40245)
(-2.05182 3.01147e-05 3.00373)
(-2.05187 1.37103e-06 3.00394)
(-2.05186 -6.49347e-05 3.00393)
(-2.05189 -0.000114032 3.00394)
(-2.05197 -7.87151e-05 3.00411)
(-2.05188 -4.91193e-07 3.00372)
(-0.650038 -1.28631e-06 2.42435)
(-0.65007 -2.11002e-05 2.4245)
(-0.650096 -3.50013e-05 2.4245)
(-0.65013 -4.68542e-05 2.4245)
(-0.650178 -2.164e-05 2.42452)
(-0.65016 9.579e-06 2.42436)
(-1.36675 -5.44608e-06 6.53289)
(-1.36667 -5.71335e-05 6.53324)
(-1.36665 -0.000137808 6.53346)
(-1.36661 -0.000198711 6.5338)
(-1.36653 -0.000197587 6.53453)
(-1.36658 -8.69837e-05 6.53417)
(-0.550142 -2.79813e-05 4.14585)
(-0.550152 -0.000134531 4.1461)
(-0.550165 -0.000227626 4.1462)
(-0.5502 -0.000265438 4.14635)
(-0.550234 -0.000204938 4.14671)
(-0.55027 -6.24095e-05 4.1464)
(-0.190917 -1.29741e-05 3.12934)
(-0.190933 -5.83075e-05 3.1295)
(-0.190949 -9.47092e-05 3.12954)
(-0.190969 -0.000109693 3.12959)
(-0.190984 -7.79447e-05 3.12967)
(-0.191003 -1.78664e-05 3.1295)
(1.54866 -8.81034e-05 6.61407)
(1.54878 -0.000175806 6.61465)
(1.5488 -0.000187881 6.61483)
(1.54882 -0.000193474 6.61509)
(1.54887 -0.000166128 6.61552)
(1.54877 -7.25089e-05 6.61529)
(1.36386 -4.33206e-05 4.30513)
(1.36392 -0.000127005 4.30542)
(1.36393 -0.000182752 4.3055)
(1.36395 -0.000192549 4.30564)
(1.364 -0.000154365 4.30587)
(1.36389 -5.69491e-05 4.30564)
(0.516369 -1.67759e-05 3.18792)
(0.516394 -5.5352e-05 3.18806)
(0.516405 -8.49632e-05 3.1881)
(0.516417 -9.18447e-05 3.18814)
(0.516442 -7.08382e-05 3.18819)
(0.51639 -2.2891e-05 3.18803)
(0.405993 -1.17164e-06 0.0916875)
(0.406009 -6.29149e-07 0.0916911)
(0.40601 8.50077e-09 0.0916912)
(0.406008 1.28583e-06 0.0916911)
(0.406007 1.34863e-06 0.0916909)
(0.40599 1.59383e-06 0.0916873)
(0.348762 -9.07756e-07 0.265979)
(0.348777 -1.21475e-06 0.265989)
(0.348778 -9.24714e-08 0.265989)
(0.348777 8.26732e-07 0.265989)
(0.348777 1.46499e-06 0.265989)
(0.348763 1.14808e-06 0.265979)
(0.13916 -2.68459e-07 0.419025)
(0.139166 -4.05097e-07 0.419041)
(0.139166 1.38106e-07 0.419041)
(0.139166 4.36456e-07 0.41904)
(0.139166 6.50759e-07 0.41904)
(0.13916 4.04566e-07 0.419025)
(0.541581 -7.80336e-07 0.117069)
(0.541605 -1.6148e-07 0.117074)
(0.541606 4.78768e-07 0.117073)
(0.541604 2.56598e-06 0.117073)
(0.541601 2.19983e-06 0.117072)
(0.541577 2.11715e-06 0.117067)
(0.48901 -1.19768e-06 0.365765)
(0.489032 -2.56408e-06 0.365779)
(0.489034 -1.38186e-06 0.365779)
(0.489034 5.95284e-07 0.365778)
(0.489033 1.74129e-06 0.365777)
(0.489012 1.4965e-06 0.365763)
(0.198381 -6.00927e-07 0.591936)
(0.19839 -1.31003e-06 0.591958)
(0.198391 -4.67431e-07 0.591959)
(0.198391 3.63954e-07 0.591958)
(0.198391 8.29614e-07 0.591957)
(0.198383 5.35161e-07 0.591935)
(0.725052 3.07432e-07 0.132779)
(0.725085 6.22139e-07 0.132782)
(0.725087 5.27041e-07 0.13278)
(0.725086 3.68618e-06 0.132778)
(0.725082 3.4004e-06 0.132776)
(0.725048 2.81117e-06 0.13277)
(0.703623 -1.25577e-06 0.493565)
(0.703657 -4.79884e-06 0.493583)
(0.703661 -5.37741e-06 0.493582)
(0.703663 -1.95576e-06 0.49358)
(0.703662 1.04968e-06 0.493579)
(0.703629 1.72739e-06 0.493558)
(0.283545 -9.90626e-07 0.830235)
(0.283558 -2.9208e-06 0.830267)
(0.28356 -2.38128e-06 0.830269)
(0.28356 -6.78455e-07 0.830267)
(0.28356 7.17535e-07 0.830265)
(0.283547 6.47039e-07 0.830233)
(0.828088 2.36807e-06 0.114975)
(0.828128 2.10582e-06 0.114976)
(0.828131 -1.99844e-06 0.114971)
(0.82813 3.41338e-06 0.114966)
(0.828126 5.0944e-06 0.114961)
(0.828084 5.28962e-06 0.114954)
(0.994502 -2.18881e-06 0.646922)
(0.99456 -1.13907e-05 0.646942)
(0.994571 -1.73874e-05 0.64694)
(0.994579 -1.22842e-05 0.646938)
(0.994582 -3.38955e-06 0.646935)
(0.994533 2.20936e-06 0.646907)
(0.407002 -9.53642e-07 1.1601)
(0.407024 -5.64803e-06 1.16014)
(0.407029 -7.76217e-06 1.16014)
(0.407033 -5.6633e-06 1.16014)
(0.407035 -1.50548e-06 1.16014)
(0.407014 6.15962e-07 1.16009)
(1.0069 3.69843e-06 0.379639)
(1.00696 7.24734e-06 0.379673)
(1.00695 -2.66385e-06 0.379672)
(1.00694 1.36401e-06 0.379674)
(1.00693 -7.52211e-06 0.379678)
(1.00685 -2.84561e-06 0.379643)
(1.47339 -1.51034e-05 0.901458)
(1.47349 -3.52385e-05 0.901502)
(1.47351 -4.27999e-05 0.901504)
(1.47353 -3.74297e-05 0.901508)
(1.47355 -2.67897e-05 0.901515)
(1.47346 -8.49852e-06 0.901464)
(0.591781 -4.40775e-06 1.58216)
(0.591824 -1.63004e-05 1.58222)
(0.591835 -2.22309e-05 1.58223)
(0.591845 -1.95536e-05 1.58223)
(0.591853 -1.0456e-05 1.58223)
(0.591822 -2.34674e-06 1.58216)
(2.43105 2.30612e-05 2.17415)
(2.43115 2.08905e-05 2.17436)
(2.43116 -1.36777e-05 2.17441)
(2.43119 -1.69373e-05 2.17447)