/*--------------------------------*- C++ -*----------------------------------*\
| =========                 |                                                 |
| \\      /  F ield         | OpenFOAM: The Open Source CFD Toolbox           |
|  \\    /   O peration     | Version:  v1612+                                |
|   \\  /    A nd           | Web:      www.OpenFOAM.com                      |
|    \\/     M anipulation  |                                                 |
\*---------------------------------------------------------------------------*/
FoamFile
{
    version     2.0;
    format      ascii;
    class       volScalarField;
    location    "9.9";
    object      p;
}
// * * * * * * * * * * * * * * * * * * * * * * * * * * * * * * * * * * * * * //

dimensions      [1 -1 -2 0 0 0 0];

internalField   nonuniform List<scalar> 
320
(
14724.8
14724.8
14724.8
14724.8
5.01218
5.01201
5.0138
5.014
5.01385
5.01347
5.01257
5.01205
5.01124
5.0112
5.01116
5.01125
4914.91
4914.91
4914.92
4914.93
4914.92
4914.9
4914.91
4914.91
4914.9
4914.92
4914.88
4914.91
14724.8
14724.8
14724.8
14724.8
14724.8
14724.8
14724.8
14724.8
14724.8
14724.8
14724.8
14724.8
24534.8
24534.8
24534.8
24534.8
24534.8
24534.8
24534.8
24534.8
24534.8
24534.8
24534.8
24534.8
24534.8
24534.8
24534.8
24534.8
5.01154
5.01202
5.01197
5.01349
5.01392
5.01415
5.01435
5.01442
5.01361
5.01434
5.0146
5.01357
5.01337
5.01126
5.01027
5.01018
5.0103
5.01051
5.01109
5.01131
4914.92
4914.91
4914.87
4914.92
4914.9
4914.89
4914.9
4914.89
4914.87
4914.91
4914.88
4914.88
4914.92
4914.88
4914.89
4914.88
4914.88
4914.89
4914.91
4914.9
14724.8
14724.8
14724.8
14724.8
14724.8
14724.8
14724.8
14724.8
14724.8
14724.8
14724.8
14724.8
14724.8
14724.8
14724.8
14724.8
14724.8
14724.8
14724.8
14724.8
24534.8
24534.8
24534.8
24534.8
24534.8
24534.8
24534.8
24534.8
24534.8
24534.8
24534.8
24534.8
24534.8
24534.8
24534.8
24534.8
24534.8
24534.8
24534.8
24534.8
34344.8
34344.8
34344.8
34344.8
34344.8
34344.8
34344.8
34344.8
34344.8
34344.8
34344.8
34344.8
34344.8
34344.8
34344.8
34344.8
34344.8
34344.8
34344.8
34344.8
34344.8
34344.8
34344.8
34344.8
34344.8
34344.8
34344.8
34344.8
34344.8
34344.8
34344.8
34344.8
34344.8
34344.8
34344.8
34344.8
5.01144
5.01148
5.01201
5.01187
5.01344
5.01358
5.0142
5.01399
5.01423
5.01422
5.01428
5.01448
5.0148
5.01422
5.01318
5.0186
5.0146
5.01444
5.01098
5.0103
5.01008
5.01004
5.01004
5.00998
5.01031
5.01083
5.01066
5.01113
4914.92
4914.91
4914.91
4914.88
4914.95
4914.94
4914.94
4914.91
4914.91
4914.92
4914.93
4914.92
4914.93
4914.93
4914.91
4914.88
4914.92
4914.91
4914.9
4914.92
4914.93
4914.92
4914.93
4914.91
4914.91
4914.91
4914.92
4914.93
14724.8
14724.8
14724.8
14724.8
14724.8
14724.8
14724.8
14724.8
14724.8
14724.8
14724.8
14724.8
14724.8
14724.8
14724.8
14724.8
14724.8
14724.8
14724.8
14724.8
14724.8
14724.8
14724.8
14724.8
14724.8
14724.8
14724.8
14724.8
24534.8
24534.8
24534.8
24534.8
24534.8
24534.8
24534.8
24534.8
24534.8
24534.8
24534.8
24534.8
24534.8
24534.8
24534.8
24534.8
24534.8
24534.8
24534.8
24534.8
24534.8
24534.8
24534.8
24534.8
24534.8
24534.8
24534.8
24534.8
34344.8
34344.8
34344.8
34344.8
34344.8
34344.8
34344.8
34344.8
34344.8
34344.8
34344.8
34344.8
34344.8
34344.8
34344.8
34344.8
34344.8
34344.8
34344.8
34344.8
34344.8
34344.8
34344.8
34344.8
34344.8
34344.8
34344.8
34344.8
5.01198
5.01255
5.01227
5.01239
4914.9
4914.91
4914.9
4914.9
)
;

boundaryField
{
    top_fluid_surface
    {
        type            calculated;
        value           nonuniform List<scalar> 
64
(
-2.31211e-09
-2.61291e-09
-1.34052e-08
-2.38042e-08
-1.31291e-09
-9.57228e-10
-3.09594e-09
-1.1644e-09
-5.14615e-09
-8.59894e-10
0
0
-4.51717e-09
-1.82904e-09
0
-9.94981e-09
0
0
0
0
0
-8.77245e-09
0
0
-1.12059e-08
0
0
0
0
0
-4.27275e-10
0
-8.66051e-09
-1.89416e-09
-2.03768e-08
0
-4.26529e-08
-8.87966e-10
-7.13683e-08
-2.5938e-09
-2.14664e-09
-2.41989e-08
-2.85977e-08
-7.20248e-09
-2.54347e-08
-6.1181e-10
-2.11688e-09
-1.6462e-09
-2.66657e-09
-2.40827e-09
-1.57259e-10
-1.77104e-08
-3.26384e-08
-8.95292e-09
-2.70767e-08
-7.75703e-09
-6.32639e-10
-3.49341e-11
-4.22671e-09
-6.67378e-08
-5.81323e-10
-1.52706e-09
-2.63553e-09
-4.90732e-09
)
;
    }
    bottom_fluid_surface
    {
        type            calculated;
        value           nonuniform List<scalar> 
64
(
39249.8
39249.8
39249.8
39249.8
39249.8
39249.8
39249.8
39249.8
39249.8
39249.8
39249.8
39249.8
39249.8
39249.8
39249.8
39249.8
39249.8
39249.8
39249.8
39249.8
39249.8
39249.8
39249.8
39249.8
39249.8
39249.8
39249.8
39249.8
39249.8
39249.8
39249.8
39249.8
39249.8
39249.8
39249.8
39249.8
39249.8
39249.8
39249.8
39249.8
39249.8
39249.8
39249.8
39249.8
39249.8
39249.8
39249.8
39249.8
39249.8
39249.8
39249.8
39249.8
39249.8
39249.8
39249.8
39249.8
39249.8
39249.8
39249.8
39249.8
39249.8
39249.8
39249.8
39249.8
)
;
    }
    lateral_surface_1
    {
        type            calculated;
        value           nonuniform List<scalar> 
40
(
5.01144
5.01148
5.01201
5.01187
5.01344
5.01358
5.0142
5.01113
4914.92
4914.91
4914.91
4914.88
4914.95
4914.94
4914.94
4914.93
14724.8
14724.8
14724.8
14724.8
14724.8
14724.8
14724.8
14724.8
24534.8
24534.8
24534.8
24534.8
24534.8
24534.8
24534.8
24534.8
34344.8
34344.8
34344.8
34344.8
34344.8
34344.8
34344.8
34344.8
)
;
    }
    lateral_surface_2
    {
        type            calculated;
        value           nonuniform List<scalar> 
40
(
5.01422
5.01318
5.0186
5.0146
5.01444
5.01098
5.0103
5.01008
4914.93
4914.91
4914.88
4914.92
4914.91
4914.9
4914.92
4914.93
14724.8
14724.8
14724.8
14724.8
14724.8
14724.8
14724.8
14724.8
24534.8
24534.8
24534.8
24534.8
24534.8
24534.8
24534.8
24534.8
34344.8
34344.8
34344.8
34344.8
34344.8
34344.8
34344.8
34344.8
)
;
    }
    lateral_surface_3
    {
        type            calculated;
        value           nonuniform List<scalar> 
40
(
5.0142
5.01399
5.01423
5.01422
5.01428
5.01448
5.0148
5.01422
4914.94
4914.91
4914.91
4914.92
4914.93
4914.92
4914.93
4914.93
14724.8
14724.8
14724.8
14724.8
14724.8
14724.8
14724.8
14724.8
24534.8
24534.8
24534.8
24534.8
24534.8
24534.8
24534.8
24534.8
34344.8
34344.8
34344.8
34344.8
34344.8
34344.8
34344.8
34344.8
)
;
    }
    lateral_surface_4
    {
        type            calculated;
        value           nonuniform List<scalar> 
40
(
5.01008
5.01004
5.01004
5.00998
5.01031
5.01083
5.01066
5.01113
4914.93
4914.92
4914.93
4914.91
4914.91
4914.91
4914.92
4914.93
14724.8
14724.8
14724.8
14724.8
14724.8
14724.8
14724.8
14724.8
24534.8
24534.8
24534.8
24534.8
24534.8
24534.8
24534.8
24534.8
34344.8
34344.8
34344.8
34344.8
34344.8
34344.8
34344.8
34344.8
)
;
    }
}


// ************************************************************************* //
