/*--------------------------------*- C++ -*----------------------------------*\
| =========                 |                                                 |
| \\      /  F ield         | OpenFOAM: The Open Source CFD Toolbox           |
|  \\    /   O peration     | Version:  v1612+                                |
|   \\  /    A nd           | Web:      www.OpenFOAM.com                      |
|    \\/     M anipulation  |                                                 |
\*---------------------------------------------------------------------------*/
FoamFile
{
    version     2.0;
    format      ascii;
    class       volScalarField;
    location    "9.9";
    object      p_rgh;
}
// * * * * * * * * * * * * * * * * * * * * * * * * * * * * * * * * * * * * * //

dimensions      [1 -1 -2 0 0 0 0];

internalField   nonuniform List<scalar> 
320
(
-9800.21
-9800.2
-9800.2
-9800.2
-0.00101747
-0.000616473
-0.00806416
-0.0122557
-0.0024465
-0.000196542
-0.00128856
-0.00105349
-0.00153162
-0.000369977
0.00720573
0.00110721
-9799.74
-9799.74
-9799.69
-9799.68
-9799.74
-9799.73
-9799.73
-9799.73
-9799.73
-9799.77
-9799.86
-9799.77
-9800.21
-9800.2
-9800.2
-9800.2
-9800.2
-9800.21
-9800.2
-9800.2
-9800.21
-9800.2
-9800.2
-9800.2
-9800.2
-9800.2
-9800.2
-9800.2
-9800.2
-9800.2
-9800.2
-9800.2
-9800.2
-9800.2
-9800.2
-9800.2
-9800.2
-9800.2
-9800.2
-9800.2
-0.00450906
6.19596e-05
0.00271174
-0.00674867
0.0127871
0.0177479
0.0159149
0.0158658
0.00163862
-0.00464718
0.0233691
0.0221309
-0.00324157
0.0149863
0.0162219
0.0161314
0.0148414
0.00782133
-0.000562183
0.00813981
-9799.72
-9799.75
-9799.79
-9799.71
-9799.94
-9799.96
-9799.96
-9799.95
-9799.78
-9799.68
-9799.98
-9799.97
-9799.72
-9799.94
-9799.96
-9799.96
-9799.94
-9799.88
-9799.75
-9799.9
-9800.2
-9800.2
-9800.21
-9800.2
-9800.18
-9800.18
-9800.18
-9800.18
-9800.21
-9800.21
-9800.19
-9800.19
-9800.2
-9800.19
-9800.19
-9800.19
-9800.19
-9800.2
-9800.2
-9800.19
-9800.2
-9800.2
-9800.2
-9800.2
-9800.19
-9800.19
-9800.19
-9800.19
-9800.2
-9800.21
-9800.2
-9800.2
-9800.2
-9800.19
-9800.19
-9800.19
-9800.19
-9800.19
-9800.2
-9800.19
-9800.2
-9800.2
-9800.2
-9800.2
-9800.2
-9800.2
-9800.2
-9800.2
-9800.2
-9800.2
-9800.2
-9800.2
-9800.2
-9800.2
-9800.2
-9800.2
-9800.2
-9800.2
-9800.2
-9800.2
-9800.19
-9800.19
-9800.19
-9800.19
-9800.2
-9800.2
-9800.2
-9800.2
-9800.2
-9800.2
-9800.19
-9800.19
-9800.2
-9800.2
-9800.2
-9800.19
-0.0057395
-0.00343017
-0.00738178
0.00234764
-0.0166284
-0.000682249
-0.0135209
-0.00205967
-0.00420363
-0.00653441
-0.00674978
-0.0057275
-0.0086169
-0.00167584
-0.000822753
-0.00115102
-0.000867317
-0.00223489
0.0012637
-0.0055922
-0.0088125
-0.00549146
-0.0111467
-0.00250654
0.00017918
-0.000549043
-0.00292088
-0.0142332
-9799.72
-9799.73
-9799.69
-9799.81
-9799.66
-9799.8
-9799.66
-9799.71
-9799.7
-9799.69
-9799.72
-9799.71
-9799.68
-9799.74
-9799.73
-9799.74
-9799.74
-9799.71
-9799.74
-9799.73
-9799.73
-9799.73
-9799.69
-9799.74
-9799.75
-9799.76
-9799.75
-9799.66
-9800.2
-9800.21
-9800.21
-9800.21
-9800.2
-9800.18
-9800.2
-9800.2
-9800.2
-9800.2
-9800.19
-9800.2
-9800.2
-9800.2
-9800.21
-9800.21
-9800.2
-9800.2
-9800.2
-9800.2
-9800.19
-9800.19
-9800.2
-9800.2
-9800.2
-9800.2
-9800.2
-9800.2
-9800.2
-9800.21
-9800.2
-9800.2
-9800.2
-9800.19
-9800.2
-9800.2
-9800.2
-9800.2
-9800.2
-9800.2
-9800.2
-9800.2
-9800.21
-9800.21
-9800.2
-9800.2
-9800.2
-9800.2
-9800.2
-9800.19
-9800.2
-9800.2
-9800.2
-9800.2
-9800.2
-9800.2
-9800.2
-9800.22
-9800.21
-9800.2
-9800.2
-9800.19
-9800.2
-9800.2
-9800.2
-9800.2
-9800.2
-9800.2
-9800.2
-9800.2
-9800.2
-9800.2
-9800.2
-9800.2
-9800.2
-9800.2
-9800.2
-9800.19
-9800.2
-9800.2
-9800.2
-9800.2
-9800.2
-9800.19
0.00089736
-0.00238341
-0.00321021
-0.00398166
-9799.74
-9799.72
-9799.7
-9799.69
)
;

boundaryField
{
    top_fluid_surface
    {
        type            totalPressure;
        rho             rho;
        psi             none;
        gamma           1;
        p0              uniform 0;
        value           nonuniform List<scalar> 
64
(
-2.31211e-09
-2.61291e-09
-1.34052e-08
-2.38042e-08
-1.31291e-09
-9.57228e-10
-3.09594e-09
-1.1644e-09
-5.14615e-09
-8.59894e-10
0
0
-4.51717e-09
-1.82904e-09
0
-9.94981e-09
0
0
0
0
0
-8.77245e-09
0
0
-1.12059e-08
0
0
0
0
0
-4.27275e-10
0
-8.66051e-09
-1.89416e-09
-2.03768e-08
0
-4.26529e-08
-8.87966e-10
-7.13683e-08
-2.5938e-09
-2.14664e-09
-2.41989e-08
-2.85977e-08
-7.20248e-09
-2.54347e-08
-6.1181e-10
-2.11688e-09
-1.6462e-09
-2.66657e-09
-2.40827e-09
-1.57259e-10
-1.77104e-08
-3.26384e-08
-8.95292e-09
-2.70767e-08
-7.75703e-09
-6.32639e-10
-3.49341e-11
-4.22671e-09
-6.67378e-08
-5.81323e-10
-1.52706e-09
-2.63553e-09
-4.90732e-09
)
;
    }
    bottom_fluid_surface
    {
        type            fixedFluxPressure;
        gradient        uniform 0;
        value           nonuniform List<scalar> 
64
(
-9800.2
-9800.2
-9800.2
-9800.2
-9800.2
-9800.2
-9800.2
-9800.2
-9800.2
-9800.2
-9800.2
-9800.2
-9800.2
-9800.2
-9800.2
-9800.2
-9800.2
-9800.2
-9800.2
-9800.2
-9800.19
-9800.19
-9800.19
-9800.19
-9800.2
-9800.2
-9800.2
-9800.2
-9800.2
-9800.2
-9800.19
-9800.19
-9800.2
-9800.2
-9800.2
-9800.19
-9800.2
-9800.22
-9800.21
-9800.2
-9800.2
-9800.19
-9800.2
-9800.2
-9800.2
-9800.2
-9800.2
-9800.2
-9800.2
-9800.2
-9800.2
-9800.2
-9800.2
-9800.2
-9800.2
-9800.2
-9800.2
-9800.19
-9800.2
-9800.2
-9800.2
-9800.2
-9800.2
-9800.19
)
;
    }
    lateral_surface_1
    {
        type            fixedFluxPressure;
        gradient        uniform 0;
        value           nonuniform List<scalar> 
40
(
-0.0057395
-0.00343017
-0.00738178
0.00234764
-0.0166284
-0.000682249
-0.0135209
-0.0142332
-9799.72
-9799.73
-9799.69
-9799.81
-9799.66
-9799.8
-9799.66
-9799.66
-9800.2
-9800.21
-9800.21
-9800.21
-9800.2
-9800.18
-9800.2
-9800.2
-9800.2
-9800.21
-9800.2
-9800.2
-9800.2
-9800.19
-9800.2
-9800.2
-9800.2
-9800.22
-9800.21
-9800.2
-9800.2
-9800.19
-9800.2
-9800.19
)
;
    }
    lateral_surface_2
    {
        type            fixedFluxPressure;
        gradient        uniform 0;
        value           nonuniform List<scalar> 
40
(
-0.00167584
-0.000822753
-0.00115102
-0.000867317
-0.00223489
0.0012637
-0.0055922
-0.0088125
-9799.74
-9799.73
-9799.74
-9799.74
-9799.71
-9799.74
-9799.73
-9799.73
-9800.2
-9800.21
-9800.21
-9800.2
-9800.2
-9800.2
-9800.2
-9800.19
-9800.2
-9800.21
-9800.21
-9800.2
-9800.2
-9800.2
-9800.2
-9800.2
-9800.2
-9800.2
-9800.2
-9800.2
-9800.2
-9800.2
-9800.2
-9800.2
)
;
    }
    lateral_surface_3
    {
        type            fixedFluxPressure;
        gradient        uniform 0;
        value           nonuniform List<scalar> 
40
(
-0.0135209
-0.00205967
-0.00420363
-0.00653441
-0.00674978
-0.0057275
-0.0086169
-0.00167584
-9799.66
-9799.71
-9799.7
-9799.69
-9799.72
-9799.71
-9799.68
-9799.74
-9800.2
-9800.2
-9800.2
-9800.2
-9800.19
-9800.2
-9800.2
-9800.2
-9800.2
-9800.2
-9800.2
-9800.2
-9800.2
-9800.2
-9800.2
-9800.2
-9800.2
-9800.2
-9800.2
-9800.2
-9800.2
-9800.2
-9800.2
-9800.2
)
;
    }
    lateral_surface_4
    {
        type            fixedFluxPressure;
        gradient        uniform 0;
        value           nonuniform List<scalar> 
40
(
-0.0088125
-0.00549146
-0.0111467
-0.00250654
0.00017918
-0.000549043
-0.00292088
-0.0142332
-9799.73
-9799.73
-9799.69
-9799.74
-9799.75
-9799.76
-9799.75
-9799.66
-9800.19
-9800.19
-9800.2
-9800.2
-9800.2
-9800.2
-9800.2
-9800.2
-9800.2
-9800.19
-9800.2
-9800.2
-9800.2
-9800.2
-9800.2
-9800.2
-9800.2
-9800.19
-9800.2
-9800.2
-9800.2
-9800.2
-9800.2
-9800.19
)
;
    }
}


// ************************************************************************* //
