/*--------------------------------*- C++ -*----------------------------------*\
| =========                 |                                                 |
| \\      /  F ield         | OpenFOAM: The Open Source CFD Toolbox           |
|  \\    /   O peration     | Version:  v1612+                                |
|   \\  /    A nd           | Web:      www.OpenFOAM.com                      |
|    \\/     M anipulation  |                                                 |
\*---------------------------------------------------------------------------*/
FoamFile
{
    version     2.0;
    format      ascii;
    class       surfaceScalarField;
    location    "2.75";
    object      phi;
}
// * * * * * * * * * * * * * * * * * * * * * * * * * * * * * * * * * * * * * //

dimensions      [0 3 -1 0 0 0 0];

internalField   nonuniform List<scalar> 
2916
(
-6.75986e-06
0.520353
-0.520346
-1.97696e-06
0.520352
-0.520357
-4.02759e-06
0.520352
-0.52035
-7.79021e-06
0.520356
-0.520352
-2.20708e-06
0.520357
-0.520362
0.520347
-0.520349
-5.07857e-06
1.03589
-0.515535
-3.02855e-06
1.0359
-0.515548
-7.72064e-06
1.0359
-0.515542
-6.99682e-06
1.0359
-0.515546
4.49377e-06
1.0359
-0.515557
1.03589
-0.515541
-6.3206e-06
1.39668
-0.360778
-2.38072e-06
1.39669
-0.360795
-5.38754e-06
1.39669
-0.360789
-4.97878e-06
1.39669
-0.36079
5.90749e-06
1.39669
-0.3608
1.39668
-0.360784
-7.44228e-06
1.65942
-0.262736
-2.61233e-06
1.65944
-0.262753
-4.77737e-06
1.65944
-0.262746
-5.10786e-06
1.65944
-0.262747
4.31787e-06
1.65944
-0.262756
1.65943
-0.26274
-8.50341e-06
1.87876
-0.219328
-4.45366e-06
1.87878
-0.219343
-6.38109e-06
1.87878
-0.219337
-6.37879e-06
1.87878
-0.219338
2.89128e-06
1.87877
-0.219346
1.87876
-0.21933
-9.29944e-06
2.06364
-0.18487
-6.59411e-06
2.06366
-0.184883
-8.15788e-06
2.06366
-0.184878
-7.21405e-06
2.06365
-0.184879
2.0919e-06
2.06365
-0.184887
2.06363
-0.184871
-1.1549e-05
2.20198
-0.138334
-8.47737e-06
2.202
-0.138345
-9.34272e-06
2.202
-0.138341
-7.86778e-06
2.20199
-0.138342
1.20681e-06
2.20199
-0.138349
2.20197
-0.138335
-9.20511e-06
2.26608
-0.0640859
-7.06227e-06
2.2661
-0.0640998
-6.96283e-06
2.26609
-0.0640955
-5.37163e-06
2.26609
-0.0640969
-3.61128e-07
2.26609
-0.0641042
2.26606
-0.0640912
-5.61157e-06
2.03721
0.228869
-2.89046e-06
2.03725
0.228841
-3.69227e-06
2.03725
0.228849
-3.98434e-06
2.03724
0.228849
-2.14621e-06
2.03725
0.228839
2.0372
0.228857
-4.1094e-06
1.325
0.712219
2.88478e-06
1.32505
0.712196
1.85245e-06
1.32505
0.712201
-6.28622e-07
1.32504
0.712202
-1.28312e-06
1.32506
0.712195
1.32499
0.712208
3.47838e-06
0.405755
0.919241
5.27041e-07
0.405798
0.919254
2.98686e-06
0.405799
0.919244
3.21349e-06
0.405797
0.919245
-3.53506e-06
0.405819
0.919244
0.405751
0.919236
-3.32084e-05
0.405788
-2.53727e-05
0.40579
-1.52717e-05
0.405788
-4.43022e-06
0.405786
2.41056e-05
0.405791
0.405775
9.85399e-06
0.530784
-1.05114
-4.36824e-06
0.530778
-1.05112
-1.54987e-05
0.530787
-1.05113
-1.23379e-06
0.530783
-1.05115
7.90531e-06
0.530777
-1.05115
0.530798
-1.05114
2.46463e-05
1.16239
-1.14716
-6.30252e-06
1.1624
-1.14714
-1.50024e-05
1.1624
-1.14714
-2.78268e-06
1.1624
-1.14717
-1.48098e-05
1.16241
-1.14717
1.16239
-1.14715
2.48787e-05
1.66405
-0.862466
-3.70992e-06
1.66408
-0.86245
-7.02364e-06
1.66407
-0.862455
-3.27752e-06
1.66407
-0.862465
-2.63386e-05
1.66409
-0.862462
1.66405
-0.862468
2.42484e-05
2.00377
-0.602482
1.14827e-06
2.00382
-0.602469
1.90733e-07
2.0038
-0.602475
3.65307e-07
2.0038
-0.602476
-2.36628e-05
2.00383
-0.60247
2.00377
-0.602489
2.16343e-05
2.29969
-0.515264
6.55275e-06
2.29976
-0.515261
1.05444e-05
2.29972
-0.515268
9.8988e-06
2.29972
-0.515264
-1.40389e-05
2.29976
-0.515252
2.2997
-0.51527
1.98326e-05
2.5647
-0.449905
1.27363e-05
2.56479
-0.449909
1.93104e-05
2.56475
-0.449915
1.66796e-05
2.56476
-0.449909
-2.21616e-06
2.56479
-0.4499
2.56473
-0.449907
2.37861e-05
2.83922
-0.412872
2.06571e-05
2.83934
-0.412888
2.82179e-05
2.8393
-0.412891
2.4379e-05
2.8393
-0.412885
6.63618e-06
2.83934
-0.412878
2.83928
-0.412877
2.83314e-05
3.17802
-0.40292
3.04365e-05
3.17817
-0.402939
3.69573e-05
3.17813
-0.402933
3.07578e-05
3.17813
-0.402921
1.06943e-05
3.17816
-0.40291
3.1781
-0.402906
3.14022e-05
3.12936
0.277502
2.78357e-05
3.12952
0.277496
3.17528e-05
3.12947
0.277499
2.62078e-05
3.12948
0.277512
2.27893e-06
3.1295
0.277523
3.12944
0.277526
3.15479e-05
2.28836
1.55319
2.35247e-05
2.28854
1.55319
1.95014e-05
2.28849
1.55319
9.55564e-06
2.28849
1.5532
-1.88105e-05
2.28852
1.55321
2.28842
1.55321
4.08847e-05
1.0879
2.11966
1.64455e-05
1.08807
2.11975
1.42987e-05
1.08803
2.11971
8.57503e-06
1.08802
2.11972
-2.22349e-05
1.08806
2.11974
1.08794
2.11969
-7.24519e-05
1.49376
-2.28e-05
1.49381
-3.92896e-06
1.4938
1.00342e-05
1.49379
5.55147e-05
1.4938
1.49377
-4.41553e-05
0.938876
-1.98997
-3.49902e-05
0.93887
-1.99
-1.23567e-05
0.93889
-1.99004
7.09163e-05
0.938841
-1.99007
0.000138846
0.938819
-1.99004
0.93897
-1.98997
-7.37008e-05
2.36618
-2.57439
-4.49854e-05
2.36614
-2.57444
1.23534e-05
2.36613
-2.57444
4.34721e-05
2.3661
-2.57446
4.34685e-05
2.3661
-2.57445
2.36619
-2.57433
-6.59382e-05
4.03277
-2.52899
-2.24163e-05
4.0327
-2.52905
2.6516e-05
4.03268
-2.52906
5.41267e-05
4.03268
-2.52907
6.63542e-05
4.03269
-2.52906
4.03277
-2.52898
-4.67368e-05
5.99211
-2.56178
2.77216e-05
5.99203
-2.56188
7.02233e-05
5.99205
-2.56188
9.31341e-05
5.99205
-2.56187
0.000121575
5.99206
-2.56187
5.99215
-2.56175
-2.6498e-05
7.99098
-2.5141
7.09431e-05
7.99091
-2.51423
0.0001188
7.99095
-2.51422
0.000137667
7.99097
-2.5142
0.000177452
7.99096
-2.51419
7.99111
-2.51405
-3.81705e-05
9.95937
-2.41825
6.75081e-05
9.95929
-2.41839
0.000123913
9.95937
-2.41839
0.000141309
9.95941
-2.41837
0.000211421
9.95936
-2.41837
9.95958
-2.41816
1.64126e-06
11.2389
-1.69242
9.0977e-05
11.2389
-1.69254
0.000142071
11.2389
-1.69252
0.000140575
11.239
-1.69247
0.000141379
11.2389
-1.69246
11.2391
-1.6923
7.66753e-05
10.1049
0.731055
8.50053e-05
10.105
0.730942
9.66576e-05
10.105
0.73105
5.12019e-05
10.1049
0.731184
-6.94543e-05
10.1049
0.731268
10.105
0.731146
9.608e-05
5.90135
4.48091
5.7938e-05
5.90157
4.48093
4.88151e-05
5.9015
4.48096
1.34491e-05
5.90148
4.481
-0.000108023
5.90146
4.48108
5.90151
4.48094
-6.11984e-06
2.51442
4.94012
-1.0034e-05
2.51462
4.94014
-7.145e-06
2.51455
4.94014
-1.85739e-05
2.51454
4.94015
-6.09657e-05
2.51458
4.94014
2.51447
4.94018
9.54838e-05
0.757866
3.87612
3.92947e-05
0.758006
3.87641
2.79879e-05
0.757965
3.8763
2.92259e-06
0.757958
3.87632
-7.5471e-05
0.757972
3.87642
0.757906
3.87618
-5.56879e-05
2.25168
-6.90328e-06
2.25177
2.59872e-06
2.25175
1.91801e-05
2.25174
4.54121e-05
2.25175
2.25172
-9.22796e-05
-0.0517348
-1.93814
-2.828e-05
-0.0517797
-1.93828
1.94185e-05
-0.0517868
-1.9383
4.72744e-05
-0.0518066
-1.93829
9.13978e-05
-0.0518037
-1.93827
-0.0517198
-1.93816
-8.10258e-05
-0.460336
-2.16571
-2.60549e-05
-0.46044
-2.16583
2.36276e-05
-0.460467
-2.16581
2.1667e-05
-0.460467
-2.1658
2.57143e-05
-0.460445
-2.16581
-0.460372
-2.16565
-1.46113e-05
-1.08597
-1.90335
3.65092e-05
-1.08605
-1.90349
4.29575e-05
-1.08606
-1.90348
3.31735e-05
-1.08605
-1.90348
5.26448e-05
-1.08602
-1.90351
-1.08597
-1.90333
-3.25727e-06
-1.39495
-2.25279
6.06287e-05
-1.39498
-2.25301
5.94256e-05
-1.39494
-2.253
5.27263e-05
-1.39491
-2.253
9.96217e-05
-1.3949
-2.25305
-1.39484
-2.25278
-0.000104993
-1.68017
-2.22877
-5.63653e-05
-1.68024
-2.22901
-4.71092e-05
-1.68017
-2.229
-1.22042e-05
-1.68016
-2.229
0.000111488
-1.68017
-2.22904
-1.68003
-2.22875
-0.000198814
-1.65291
-2.44531
-0.000157603
-1.65312
-2.44555
-0.000158066
-1.653
-2.44555
-0.000125751
-1.65299
-2.44556
4.35822e-05
-1.65309
-2.44562
-1.65281
-2.44533
-0.000192303
-0.907032
-2.4381
-0.000126419
-0.907413
-2.43832
-0.000107077
-0.907217
-2.43832
-0.000105551
-0.907133
-2.43833
-4.27167e-05
-0.907227
-2.43838
-0.906957
-2.4382
2.50005e-05
1.75586
-1.93186
-4.85867e-05
1.75567
-1.93207
-7.8127e-05
1.75584
-1.93198
-0.000100005
1.75594
-1.93187
-0.000275755
1.75605
-1.93183
1.75581
-1.9319
2.44402e-05
4.02535
2.2114
-7.54793e-05
4.02547
2.21123
-7.78009e-05
4.02544
2.21136
-0.000101064
4.02546
2.21151
-0.000581967
4.02567
2.21193
4.02529
2.21088
0.000166308
2.72904
6.23626
0.000141145
2.72921
6.23643
0.000122783
2.72918
6.23642
7.9937e-05
2.72919
6.23647
-0.000154888
2.72942
6.23662
2.72901
6.2363
8.03263e-05
0.721234
5.88384
5.97292e-05
0.721417
5.88423
2.75948e-05
0.721408
5.88411
2.01152e-05
0.721358
5.88417
4.48918e-05
0.72144
5.88438
0.721318
5.88392
6.70503e-06
2.97291
1.04675e-05
2.97318
7.21924e-05
2.9731
2.25677e-05
2.97314
-0.000174535
2.97338
2.97287
-1.83399e-06
0.00277284
-0.00277101
-2.34365e-06
0.00277254
-0.00277097
-2.56749e-06
0.00277205
-0.00277094
-2.30687e-06
0.0027715
-0.00277091
-1.47131e-06
0.00277089
-0.00277089
0.00277014
-0.00277077
-1.80865e-06
0.00562594
-0.00285063
-3.08684e-06
0.00562468
-0.00284927
-3.97317e-06
0.00562323
-0.00284891
-3.93485e-06
0.00562171
-0.00284891
-2.65453e-06
0.00562009
-0.00284914
0.00561804
-0.00284958
-2.35423e-06
0.00862768
-0.00299872
-5.48258e-06
0.00862381
-0.00299441
-7.77211e-06
0.00862015
-0.00299324
-8.13388e-06
0.00861664
-0.00299323
-5.80168e-06
0.00861302
-0.00299396
0.00860853
-0.00299535
-5.43722e-06
0.0118679
-0.00323402
-1.2095e-05
0.0118585
-0.00322666
-1.64933e-05
0.0118508
-0.00322505
-1.70427e-05
0.011844
-0.00322566
-1.23043e-05
0.0118373
-0.00322787
0.0118289
-0.00323185
-1.45108e-05
0.0154673
-0.0035843
-2.63061e-05
0.0154484
-0.00357721
-3.2434e-05
0.0154351
-0.00357739
-3.17881e-05
0.0154247
-0.00358055
-2.24741e-05
0.015415
-0.00358623
0.015402
-0.00359509
-3.36873e-05
0.0194537
-0.00395223
-4.9117e-05
0.0194235
-0.00395957
-5.26781e-05
0.0194063
-0.00396752
-4.70901e-05
0.0193954
-0.00397614
-3.14594e-05
0.0193861
-0.00398643
0.0193704
-0.00399982
-5.50778e-05
0.0234395
-0.00393069
-6.59278e-05
0.0234018
-0.00396824
-5.90335e-05
0.0233885
-0.00398973
-4.42928e-05
0.0233858
-0.00400563
-2.53003e-05
0.0233854
-0.00401893
0.0233757
-0.00403128
-5.46745e-05
0.026934
-0.00344021
-4.30948e-05
0.0268968
-0.00350812
-1.59469e-05
0.0268974
-0.00353723
7.34402e-06
0.0269129
-0.00355154
1.55938e-05
0.0269321
-0.00355614
0.0269415
-0.00355152
-7.36694e-06
0.0294101
-0.00246948
4.45332e-05
0.0293891
-0.0025458
9.78878e-05
0.0294074
-0.00256482
0.000124558
0.0294445
-0.00255972
0.000102108
0.0294901
-0.00253704
0.0295376
-0.0024952
7.62933e-05
0.0287123
0.000620753
0.000173622
0.0287217
0.000568566
0.000242656
0.0287517
0.000585284
0.000261849
0.0287939
0.000629882
0.000203394
0.0288488
0.000698409
0.0289241
0.000816053
0.000158446
0.0206911
0.00786214
0.000236503
0.0207003
0.00794259
0.000267311
0.0207117
0.00800836
0.000257634
0.0207269
0.00807565
0.000186224
0.0207586
0.0081606
0.0208278
0.00828208
5.53312e-05
0.0206353
4.23092e-05
0.0207128
1.74458e-05
0.0207363
-3.23823e-06
0.0207474
-1.33419e-05
0.0207685
0.0208146
-1.93973e-06
0.00287872
-0.00564706
-2.42688e-06
0.00287777
-0.00564698
-2.46616e-06
0.00287698
-0.00564676
-2.01169e-06
0.00287629
-0.00564656
-1.09531e-06
0.00287569
-0.0056464
0.00287502
-0.00564612
-3.08787e-06
0.00588597
-0.00585364
-4.06023e-06
0.00588325
-0.00585212
-4.19411e-06
0.00588114
-0.00585145
-3.51157e-06
0.00587933
-0.00585119
-1.99468e-06
0.00587775
-0.00585129
0.00587594
-0.00585169
-6.02437e-06
0.00912733
-0.00623285
-8.17085e-06
0.00912088
-0.00622817
-8.47923e-06
0.00911629
-0.00622654
-7.30643e-06
0.00911257
-0.00622616
-4.49601e-06
0.00910928
-0.00622686
0.00910549
-0.00622859
-1.16002e-05
0.0127017
-0.00679559
-1.56552e-05
0.012688
-0.00678823
-1.59965e-05
0.0126792
-0.0067863
-1.37422e-05
0.0126727
-0.00678669
-8.68748e-06
0.012667
-0.00678931
0.0126601
-0.00679448
-2.10103e-05
0.0166629
-0.00752366
-2.66346e-05
0.0166369
-0.00751957
-2.55783e-05
0.0166222
-0.00752058
-2.09385e-05
0.0166125
-0.00752422
-1.29329e-05
0.0166046
-0.00753099
0.0165943
-0.00754184
-3.18462e-05
0.0212343
-0.00849145
-3.53747e-05
0.0211878
-0.00850709
-2.93727e-05
0.0211669
-0.0085183
-2.05608e-05
0.021157
-0.0085294
-1.11234e-05
0.0211512
-0.00854236
0.0211419
-0.00855885
-3.6806e-05
0.0272837
-0.00994376
-2.68468e-05
0.0272122
-0.0100039
-7.36405e-06
0.027191
-0.0100344
7.83478e-06
0.0271903
-0.0100551
1.15703e-05
0.0271986
-0.0100711
0.0272044
-0.0100834
-1.61518e-05
0.0339462
-0.0100876
2.69424e-05
0.0338664
-0.0102074
7.27819e-05
0.0338594
-0.0102533
9.55355e-05
0.0338845
-0.0102703
7.78966e-05
0.033925
-0.0102668
0.0339693
-0.0102399
5.61698e-05
0.0377421
-0.00632303
0.000147202
0.0376838
-0.0064562
0.000214405
0.0377002
-0.00647477
0.000233547
0.0377492
-0.00644552
0.000176182
0.0378192
-0.00637575
0.0379063
-0.00625691
0.000145543
0.0338999
0.00431617
0.00021586
0.0338829
0.00429774
0.000236616
0.0339264
0.00433702
0.000212967
0.0340005
0.00440095
0.000134156
0.0341041
0.00449109
0.0342433
0.00461301
9.86867e-05
0.0234483
0.0182141
9.29375e-05
0.0234925
0.0183381
5.22576e-05
0.0235573
0.0184177
9.23891e-06
0.0236346
0.0184843
-1.91565e-05
0.0237319
0.0185608
0.023852
0.0186545
-0.000102813
0.0441861
-0.000202269
0.0443045
-0.00026979
0.0443609
-0.000275048
0.0443872
-0.00021302
0.0444381
0.0444541
-1.30683e-06
0.00286114
-0.00850636
-1.63134e-06
0.0028605
-0.00850643
-1.55453e-06
0.00286003
-0.00850622
-1.11931e-06
0.00285967
-0.00850603
-4.66386e-07
0.00285947
-0.00850589
0.00285934
-0.00850554
-2.33429e-06
0.00590764
-0.00889705
-2.80915e-06
0.00590583
-0.00889599
-2.54351e-06
0.00590462
-0.00889543
-1.75236e-06
0.00590376
-0.0088952
-6.80664e-07
0.00590331
-0.00889534
0.00590304
-0.00889564
-4.67225e-06
0.00931392
-0.0096336
-5.3966e-06
0.00930965
-0.00963014
-4.65662e-06
0.00930721
-0.00962887
-3.12254e-06
0.0093057
-0.00962867
-1.25418e-06
0.00930504
-0.00962952
0.00930487
-0.00963123
-8.3577e-06
0.0132672
-0.0107396
-8.99691e-06
0.0132579
-0.0107349
-7.1071e-06
0.0132536
-0.0107337
-4.23265e-06
0.0132516
-0.0107346
-1.41892e-06
0.0132513
-0.0107376
0.0132521
-0.0107428
-1.25469e-05
0.0179242
-0.0121675
-1.12453e-05
0.0179059
-0.0121685
-6.44004e-06
0.0179
-0.0121714
-1.57062e-06
0.017899
-0.0121761
1.29561e-06
0.0179015
-0.0121836
0.017906
-0.0121945
-1.15037e-05
0.0229765
-0.0135322
-3.09438e-06
0.0229461
-0.0135561
8.32185e-06
0.0229414
-0.0135715
1.55749e-05
0.0229469
-0.0135849
1.44063e-05
0.0229587
-0.0135989
0.0229746
-0.0136138
1.31478e-05
0.026999
-0.0139801
3.902e-05
0.0269583
-0.0140435
5.92154e-05
0.0269615
-0.0140761
6.46946e-05
0.0269827
-0.0140979
4.82554e-05
0.0270149
-0.0141123
0.0270562
-0.0141179
7.90202e-05
0.0298951
-0.0130639
0.000129709
0.0298555
-0.0131574
0.000152731
0.0298758
-0.0131924
0.000144273
0.0299226
-0.0132036
9.72312e-05
0.0299874
-0.013194
0.0300708
-0.0131583
0.000157808
0.0332449
-0.00983212
0.000213749
0.0332417
-0.00989988
0.00021528
0.0332976
-0.00989949
0.000175942
0.0333839
-0.00986881
0.000101031
0.0334938
-0.00980836
0.0336264
-0.0097116
0.000159513
0.0386947
-0.00129408
0.000189232
0.0387726
-0.0012634
0.0001613
0.0388589
-0.00119661
0.000105071
0.038954
-0.00111301
4.2375e-05
0.0390552
-0.00100755
0.0391572
-0.000874967
2.11383e-05
0.0227438
0.0341436
-4.42344e-05
0.0228408
0.0343356
-0.000119317
0.0229176
0.0344346
-0.000161058
0.0229863
0.0344943
-0.000140457
0.0230426
0.0345536
0.0230805
0.0345914
-0.000195348
0.0671256
-0.000315606
0.0672668
-0.000366271
0.0673304
-0.000330363
0.0673386
-0.000170708
0.0673223
0.0673643
-7.69121e-07
0.00268332
-0.0111886
-8.54188e-07
0.0026827
-0.0111889
-6.51409e-07
0.00268245
-0.0111887
-3.05233e-07
0.00268238
-0.0111886
2.0697e-08
0.0026825
-0.0111885
0.00268262
-0.0111881
-1.54066e-06
0.00561371
-0.0118256
-1.37291e-06
0.0056121
-0.0118253
-7.1298e-07
0.00561155
-0.0118249
1.27144e-08
0.00561154
-0.0118248
4.49373e-07
0.00561194
-0.0118249
0.00561239
-0.0118249
-2.80417e-06
0.00906916
-0.0130858
-1.89403e-06
0.00906585
-0.0130843
-2.38927e-07
0.00906516
-0.0130837
1.20832e-06
0.0090656
-0.0130838
1.64267e-06
0.00906686
-0.0130845
0.00906824
-0.0130853
-2.88714e-06
0.0133893
-0.0150564
-2.76826e-07
0.0133835
-0.0150547
3.21813e-06
0.0133831
-0.0150548
5.49227e-06
0.0133851
-0.015056
5.10624e-06
0.0133884
-0.0150584
0.0133921
-0.0150615
1.90184e-06
0.0190737
-0.0178535
8.79089e-06
0.0190647
-0.0178566
1.47502e-05
0.0190661
-0.0178603
1.70862e-05
0.0190718
-0.0178653
1.33699e-05
0.01908
-0.0178716
0.0190888
-0.0178784
1.8341e-05
0.0273801
-0.0218571
3.34906e-05
0.0273685
-0.021876
4.21876e-05
0.0273742
-0.0218891
4.21653e-05
0.0273875
-0.0219014
2.99269e-05
0.0274056
-0.0219133
0.0274269
-0.0219231
4.89454e-05
0.0404318
-0.0270816
7.58457e-05
0.0404261
-0.0271297
8.58305e-05
0.0404427
-0.0271561
7.94126e-05
0.04047
-0.0271755
5.30062e-05
0.0405061
-0.027188
0.0405513
-0.02719
8.56726e-05
0.0582075
-0.0309266
0.000117515
0.058233
-0.0309978
0.000119771
0.0582723
-0.0310256
0.00010213
0.0583189
-0.0310362
6.27668e-05
0.0583775
-0.0310271
0.0584493
-0.0309937
9.18178e-05
0.0768481
-0.0285657
9.38412e-05
0.0769375
-0.0286071
6.33651e-05
0.0769993
-0.0285965
3.0513e-05
0.0770482
-0.0285654
1.75944e-07
0.0771041
-0.0285044
0.0771582
-0.0284198
2.26504e-06
0.0873254
-0.0117739
-7.06686e-05
0.0874696
-0.011722
-0.000150865
0.0875283
-0.0116448
-0.000179014
0.0875446
-0.0115805
-0.000165676
0.0875609
-0.0114769
0.0875242
-0.0114059
-0.000239974
0.071314
0.0503958
-0.000363562
0.0714261
0.0505043
-0.000425191
0.071445
0.0505812
-0.000352955
0.0713942
0.0505737
-0.00028161
0.0713853
0.0506592
0.0712652
0.0505699
-0.000192882
0.138633
-0.000199002
0.1387
-0.000184162
0.138761
-8.9286e-05
0.138638
-0.000230326
0.138849
0.138399
7.01044e-07
-1.98543
0.0472868
1.95016e-05
-1.98557
0.0472749
8.84426e-06
-1.98556
0.0472741
-5.24372e-06
-1.98555
0.0472701
8.18559e-06
-1.98556
0.0472715
-1.98543
0.0472778
2.69673e-05
-2.03031
0.0448556
1.25404e-05
-2.03042
0.044857
-4.38332e-06
-2.0304
0.0448547
-1.89435e-05
-2.03039
0.0448555
-2.92026e-05
-2.03041
0.0448562
-2.0303
0.0448409
2.19602e-05
0.0224786
6.4609e-06
0.0224768
-2.28294e-06
0.0224769
-8.94831e-06
0.0224775
-2.24138e-05
0.0224778
0.0224766
5.33284e-06
-2.11773
-0.000693006
-1.887e-06
-2.11785
-0.000701718
-7.76144e-06
-2.11782
-0.000705339
-1.05691e-05
-2.11781
-0.000714601
-1.19243e-05
-2.11783
-0.000714166
-2.11768
-0.000704214
1.33464e-05
-2.14343
0.0705448
-3.26734e-06
-2.14354
0.07056
-1.47382e-05
-2.14351
0.0705571
-1.97515e-05
-2.14351
0.0705566
-2.99224e-05
-2.14352
0.0705589
-2.14341
0.0705366
2.09861e-05
0.0275375
7.25762e-06
0.0275367
-1.14105e-06
0.0275373
-9.71907e-06
0.0275384
-2.58904e-05
0.0275394
0.0275381
2.90982e-05
-1.95286
0.0487852
5.04258e-06
-1.95298
0.0488142
-1.43323e-05
-1.95296
0.0487998
-3.11487e-05
-1.95296
0.048787
-4.40245e-05
-1.95299
0.0487834
-1.95282
0.0487457
2.15598e-05
-2.02164
0.139302
1.126e-05
-2.02173
0.139316
5.1471e-06
-2.02171
0.139315
-5.63427e-06
-2.02171
0.139316
-3.24989e-05
-2.02173
0.139321
-2.02162
0.139304
1.86275e-05
0.0658334
7.40221e-06
0.0658335
5.27978e-07
0.0658348
-7.17959e-06
0.0658358
-2.27123e-05
0.0658369
0.0658362
1.66931e-05
-2.35875
0.154722
-1.93121e-05
-2.35893
0.154769
-4.37574e-05
-2.35891
0.154741
-5.90103e-05
-2.35892
0.154721
-6.6379e-05
-2.35897
0.154715
-2.35874
0.154645
4.37756e-05
-2.28918
0.0696911
3.0097e-05
-2.2893
0.0696986
1.50069e-05
-2.28928
0.069702
-7.32623e-06
-2.28929
0.0697069
-5.0892e-05
-2.28931
0.0697096
-2.2892
0.0697075
2.59847e-05
0.0280478
1.1648e-05
0.0280465
5.14703e-06
0.028046
-3.3562e-06
0.0280456
-2.54688e-05
0.0280452
0.0280465
3.41185e-06
-2.26467
0.190614
-3.06189e-05
-2.26486
0.190656
-5.14508e-05
-2.26485
0.190619
-6.01151e-05
-2.26486
0.190597
-6.24335e-05
-2.26492
0.190597
-2.26469
0.190523
4.78045e-05
-2.17703
-0.0179974
2.94524e-05
-2.17715
-0.0179999
1.0169e-05
-2.17714
-0.0179944
-1.15928e-05
-2.17715
-0.0179885
-4.8425e-05
-2.17718
-0.0179932
-2.17706
-0.0179743
2.36888e-05
-0.0109094
9.79726e-06
-0.0109108
4.26267e-06
-0.0109136
-4.08672e-06
-0.0109157
-2.8325e-05
-0.0109176
-0.0109186
2.61971e-05
-2.36133
0.106603
7.2814e-06
-2.3615
0.106629
-7.13904e-06
-2.3615
0.106581
-2.3185e-05
-2.36151
0.106559
-7.52456e-05
-2.36155
0.106583
-2.36136
0.106475
4.38486e-05
-2.26665
-0.112713
2.48207e-05
-2.26677
-0.112716
1.22257e-05
-2.26676
-0.112716
-2.03203e-06
-2.26677
-0.112709
-2.66397e-05
-2.26679
-0.112728
-2.26667
-0.112692
1.52395e-05
-0.058674
-3.0208e-06
-0.0586759
-9.09704e-06
-0.0586785
-1.28559e-05
-0.0586825
-2.76089e-05
-0.058686
-0.0586895
-7.44661e-05
-2.12425
-0.207173
-5.47324e-05
-2.12438
-0.207323
-4.86213e-05
-2.1244
-0.207349
3.78757e-06
-2.12441
-0.207412
8.10931e-05
-2.12444
-0.207443
-2.12429
-0.20736
-4.0977e-06
-2.14407
-0.0928856
-1.90992e-05
-2.14416
-0.0929291
-1.52647e-05
-2.14415
-0.0929648
5.01627e-06
-2.14415
-0.0929805
5.23839e-05
-2.14415
-0.0930628
-2.14406
-0.0928674
1.02985e-05
0.0010129
-6.06796e-06
0.00102573
-1.78798e-05
0.00101765
-2.70317e-05
0.00100794
-3.88169e-05
0.00100714
0.000976933
-5.34912e-05
-2.34714
0.208164
-3.5424e-05
-2.34731
0.207905
-5.67167e-05
-2.34731
0.208003
-3.67787e-05
-2.34729
0.207984
-0.000119145
-2.34733
0.208145
-2.34712
0.207741
-2.69166e-05
-2.11608
-0.323926
-4.72354e-05
-2.11617
-0.324055
-8.01161e-05
-2.11616
-0.324081
-4.28243e-05
-2.11617
-0.324138
2.77165e-05
-2.11622
-0.324252
-2.116
-0.323957
-9.86881e-07
0.085179
-5.04382e-05
0.0851931
-7.53148e-05
0.0851527
-7.3689e-05
0.0851186
-9.7376e-05
0.0851404
0.0850731
8.86863e-05
-0.735553
3.15503
0.000156163
-0.735886
3.15495
0.000118528
-0.735656
3.15506
-2.218e-06
-0.735463
3.15507
-0.000502573
-0.734978
3.15555
-0.736269
3.15438
0.000116836
-2.3318
1.2722
2.1273e-05
-2.33199
1.27215
-4.88654e-05
-2.33183
1.27217
3.58067e-05
-2.33176
1.27208
0.000107464
-2.33164
1.27234
-2.33192
1.2718
5.3648e-06
0.366691
-9.08487e-05
0.366679
-0.000152728
0.366689
-8.014e-05
0.366578
-0.000103226
0.366879
0.366245
0.000160931
5.09449
4.29663
0.000174999
5.09457
4.29679
0.000324669
5.09454
4.29679
0.000422461
5.09465
4.2968
-0.000174677
5.09553
4.29725
5.09368
4.29683
0.000168643
2.19096
4.17556
8.23796e-06
2.19102
4.17586
-0.000118119
2.19107
4.17576
-0.000159313
2.19114
4.17562
-0.00137367
2.19256
4.17652
2.18935
4.17476
0.000324847
2.68706
-8.2389e-05
2.68774
-0.000266068
2.6874
-0.000390089
2.68728
-0.0018535
2.68904
2.68513
0.00027929
6.80562
3.37457
0.000291131
6.80619
3.37482
0.000205075
6.80596
3.37502
0.000269547
6.80612
3.37478
0.000950261
6.80724
3.3737
6.80463
3.37707
0.000407728
6.18379
4.79698
0.000272304
6.18398
4.7982
0.000452798
6.18399
4.79756
9.97674e-05
6.1843
4.7978
-0.00273993
6.18544
4.80116
6.18358
4.79307
0.000281032
4.82879
-7.75778e-05
4.83015
-9.6322e-05
4.82937
-0.000373004
4.82937
-0.00138234
4.83239
4.82575
0.000126597
3.7925
2.55485
3.23023e-05
3.79292
2.55517
-0.000216745
3.79318
2.55519
6.13091e-05
3.79245
2.55519
0.000960846
3.79012
2.55606
3.79647
2.55442
0.000482223
4.80746
3.78154
-0.000185415
4.809
3.7828
-0.00022919
4.80839
3.78239
0.000159219
4.80741
3.78245
-0.00183157
4.80853
3.78474
4.8079
3.77982
3.35517e-05
5.67469
0.000157356
5.67589
4.67041e-06
5.67521
-8.68253e-05
5.67525
0.000877053
5.67876
5.67085
0.000108272
0.17978
0.0708015
-0.250689
-3.37434e-05
0.179969
0.0707417
-0.250569
0.000115386
0.179979
0.0704622
-0.25059
-4.64123e-05
0.18
0.0706048
-0.250442
-0.0022618
0.181601
0.0702532
-0.249639
0.178514
0.070627
-0.251403
0.000941999
0.0817819
1.04197
-0.944919
0.000380424
0.0827002
1.04322
-0.945392
0.00220308
0.0813574
1.0423
-0.945504
0.000211393
0.0846113
1.0424
-0.945015
-0.00848002
0.0921077
1.04662
-0.948438
0.073647
1.03855
-0.942165
-0.000397447
0.0633308
-0.244239
-0.000143568
0.0618221
-0.244373
0.000137698
0.0630835
-0.244486
-0.000141642
0.061025
-0.24438
-9.48164e-05
0.0564148
-0.24637
0.0681425
-0.242756
-0.000376747
0.18043
-0.109251
-0.000309866
0.180035
-0.109362
-0.00111238
0.180953
-0.109693
-8.13946e-05
0.179173
-0.109602
0.00384836
0.175969
-0.109648
0.184178
-0.109703
0.00111957
1.3433
-0.122014
5.97432e-05
1.34461
-0.120291
0.000565903
1.34425
-0.121499
0.000229826
1.34402
-0.122114
-0.00171723
1.34649
-0.121952
1.34215
-0.121134
0.00119338
-1.73251
0.000743783
-1.73482
0.0018472
-1.73325
0.000591922
-1.73525
-0.00530788
-1.74437
-1.72376
-0.000584091
0.0468877
-0.155555
-0.000672391
0.0461343
-0.155402
-0.000897833
0.0462879
-0.155754
-0.000325834
0.0455729
-0.155748
-0.000924097
0.046028
-0.155078
0.0462674
-0.156896
0.000186273
1.72721
-1.80252
0.000320809
1.72811
-1.80241
-0.000133673
1.72756
-1.80232
-0.000389292
1.72758
-1.80386
0.00108132
1.72959
-1.80698
1.72562
-1.7994
0.00101565
-4.16792
0.0006246
-4.16992
0.00113597
-4.16894
0.000134374
-4.16998
-0.00315366
-4.17645
-4.16307
0.000102836
-0.0545925
-0.101068
0.000121644
-0.0547507
-0.100672
-7.68129e-05
-0.0547703
-0.100786
5.14939e-05
-0.0543921
-0.101484
0.000849217
-0.0537871
-0.102089
-0.0555172
-0.10053
0.000626633
1.48811
-3.34585
0.000257848
1.48977
-3.34655
0.000464125
1.48889
-3.34618
5.34328e-06
1.48893
-3.34672
-0.00147372
1.49054
-3.34984
1.48681
-3.34321
0.00117177
-5.33273
0.000243588
-5.33419
0.000581253
-5.33368
2.6549e-05
-5.33398
-0.00315474
-5.33802
-5.32968
0.000160466
1.04342
-1.14465
0.000132207
1.04387
-1.14451
0.000275676
1.04361
-1.14454
5.55801e-05
1.04373
-1.145
-0.000544497
1.0451
-1.14659
1.04223
-1.1433
0.000472027
1.26068
-3.56358
0.000175969
1.26255
-3.56494
0.000394943
1.26154
-3.56433
-6.23904e-05
1.26154
-3.56407
-0.00132129
1.2632
-3.56668
1.25912
-3.56142
0.000495016
-5.61106
-6.67467e-05
-5.61187
-0.000149317
-5.61147
9.3853e-05
-5.61205
-7.40714e-05
-5.61585
-5.60702
6.55423e-05
1.41014
0.000114628
1.41061
0.000338355
1.41042
0.000239355
1.41029
-0.00114526
1.41085
1.40998
0.000245396
1.62785
7.164e-05
1.62864
0.000459845
1.6281
3.02641e-05
1.62911
-0.00182044
1.63077
1.62655
0.000202273
-1.02574e-05
-0.000291455
3.21642e-05
0.00159403
-8.57886e-08
-0.0131665
0.001978
-1.37593e-07
-0.0131671
0.00197801
-7.67914e-08
-0.013167
0.00197807
3.99257e-08
-0.013167
0.00197816
1.02179e-07
-0.013167
0.00197831
-0.0131664
0.00197835
4.434e-08
-0.0144293
0.00126259
-9.92439e-09
-0.01443
0.00126264
-1.32013e-08
-0.01443
0.00126268
3.98177e-09
-0.01443
0.00126273
-1.85197e-09
-0.01443
0.00126279
-0.0144293
0.00126278
-6.49485e-09
0.000386966
-3.14965e-08
0.000386984
-2.98355e-08
0.000386998
-3.13335e-08
0.000387013
-3.8875e-08
0.000387032
0.000387022
-2.75974e-07
-0.014008
0.00416068
-6.22437e-08
-0.0140085
0.00416086
3.0714e-07
-0.0140085
0.00416111
5.72622e-07
-0.0140085
0.00416146
5.62633e-07
-0.0140086
0.00416185
-0.0140081
0.00416201
4.74285e-08
-0.0154285
0.00268277
1.01719e-07
-0.0154292
0.00268293
1.94618e-07
-0.0154292
0.00268306
2.28533e-07
-0.0154293
0.00268322
1.53495e-07
-0.0154293
0.00268338
-0.0154287
0.00268337
1.07289e-08
0.000736068
1.85315e-08
0.000736118
3.68882e-08
0.000736155
3.06849e-08
0.0007362
-2.15023e-09
0.000736242
0.000736234
-1.59673e-07
-0.0157177
0.00679282
7.52861e-07
-0.0157181
0.0067936
1.72872e-06
-0.0157181
0.00679441
2.22072e-06
-0.0157183
0.00679536
1.82179e-06
-0.0157186
0.00679628
-0.0157183
0.0067967
2.96632e-07
-0.0175617
0.00452628
6.18525e-07
-0.0175625
0.00452667
8.69062e-07
-0.0175626
0.004527
8.86105e-07
-0.0175627
0.00452736
5.80843e-07
-0.0175629
0.00452769
-0.0175623
0.00452772
9.40186e-08
0.000925505
1.71508e-07
0.000925595
2.241e-07
0.00092568
2.0245e-07
0.00092578
1.00145e-07
0.000925868
0.00092589
1.62233e-06
-0.01839
0.0101249
4.04326e-06
-0.0183907
0.010127
5.83082e-06
-0.0183912
0.0101288
6.28045e-06
-0.018392
0.0101308
4.6722e-06
-0.0183931
0.0101323
-0.0183933
0.0101329
1.09124e-06
-0.0212056
0.00734065
1.96796e-06
-0.0212067
0.00734146
2.45749e-06
-0.0212071
0.00734211
2.3443e-06
-0.0212076
0.00734278
1.50146e-06
-0.0212082
0.00734334
-0.0212076
0.00734336
2.86216e-07
0.000626209
5.13495e-07
0.000626348
6.3502e-07
0.000626498
5.74109e-07
0.000626675
3.4001e-07
0.000626798
0.000626861
7.74993e-06
-0.0219692
0.0142328
1.24885e-05
-0.0219715
0.0142366
1.46322e-05
-0.0219734
0.0142394
1.38236e-05
-0.0219759
0.0142417
9.30628e-06
-0.0219784
0.0142432
-0.0219798
0.014243
3.10619e-06
-0.0270004
0.0123685
4.94456e-06
-0.0270023
0.0123699
5.65553e-06
-0.0270034
0.0123709
5.08668e-06
-0.0270047
0.0123717
3.10487e-06
-0.0270059
0.0123723
-0.0270056
0.0123719
7.19721e-07
-0.000916686
1.20879e-06
-0.000916593
1.43923e-06
-0.00091653
1.24888e-06
-0.000916368
7.65395e-07
-0.000916409
-0.000916284
1.93659e-05
-0.026501
0.0188568
2.60071e-05
-0.0265087
0.0188617
2.62768e-05
-0.0265141
0.0188632
2.17531e-05
-0.0265195
0.0188633
1.27626e-05
-0.0265243
0.018862
-0.0265267
0.0188587
7.32333e-06
-0.0360522
0.0219118
1.01304e-05
-0.0360558
0.0219135
1.03049e-05
-0.0360582
0.021914
8.48305e-06
-0.0360606
0.0219138
4.4512e-06
-0.0360627
0.0219137
-0.0360624
0.0219117
1.39817e-06
-0.00490091
2.05507e-06
-0.00490106
2.32015e-06
-0.00490154
1.70181e-06
-0.00490142
1.02687e-06
-0.00490217
-0.00490176
3.30956e-05
-0.0322731
0.0240142
3.68463e-05
-0.0322893
0.0240162
3.00752e-05
-0.0322991
0.0240117
1.8816e-05
-0.0323068
0.0240046
7.04447e-06
-0.0323117
0.0239964
-0.0323113
0.0239868
1.18263e-05
-0.049932
0.0395582
1.43686e-05
-0.0499378
0.0395587
1.18866e-05
-0.0499412
0.0395579
8.57356e-06
-0.049944
0.0395536
2.27407e-06
-0.0499459
0.0395537
-0.0499442
0.0395469
1.40609e-06
-0.0131914
1.48943e-06
-0.0131921
1.60542e-06
-0.0131941
5.8537e-07
-0.0131938
4.95473e-07
-0.0131963
-0.0131953
3.18259e-05
-0.0397227
0.0327774
2.15118e-05
-0.0397432
0.032771
1.09963e-06
-0.0397511
0.0327568
-1.69816e-05
-0.0397544
0.0327404
-2.25064e-05
-0.0397512
0.0327258
-0.0397398
0.0327106
9.94359e-06
-0.0709712
0.0707963
9.40177e-06
-0.0709779
0.0707938
1.45123e-06
-0.07098
0.0707948
-1.83695e-06
-0.0709792
0.0707818
-1.04691e-05
-0.0709786
0.0707901
-0.0709721
0.0707686
-7.16759e-07
-0.0268878
-2.88967e-06
-0.0268899
-3.0883e-06
-0.0268956
-4.27598e-06
-0.026894
-3.15983e-06
-0.026899
-0.0268983
-6.44835e-06
-0.048261
0.0524788
-4.02214e-05
-0.0482706
0.0524685
-7.26813e-05
-0.0482632
0.0524561
-8.65917e-05
-0.048252
0.0524413
-7.27189e-05
-0.0482309
0.0524387
-0.0482054
0.0524236
-2.98439e-06
-0.102693
0.125232
-9.06822e-06
-0.102696
0.125226
-2.81898e-05