/*--------------------------------*- C++ -*----------------------------------*\
| =========                 |                                                 |
| \\      /  F ield         | OpenFOAM: The Open Source CFD Toolbox           |
|  \\    /   O peration     | Version:  v1612+                                |
|   \\  /    A nd           | Web:      www.OpenFOAM.com                      |
|    \\/     M anipulation  |                                                 |
\*---------------------------------------------------------------------------*/
FoamFile
{
    version     2.0;
    format      ascii;
    class       surfaceScalarField;
    location    "4.45";
    object      alphaPhi;
}
// * * * * * * * * * * * * * * * * * * * * * * * * * * * * * * * * * * * * * //

dimensions      [0 3 -1 0 0 0 0];

internalField   nonuniform List<scalar> 
816
(
-2.08685e-06
-4.58825e-06
4.38845e-06
-3.07204e-06
-4.27915e-06
9.63784e-06
4.63277e-07
4.94008e-06
5.99167e-07
6.70066e-06
-1.47946e-05
-4.49473e-06
1.80518e-06
3.98706e-06
6.3263e-06
-1.22155e-05
-1.21225e-06
3.91686e-06
5.2259e-06
-1.19609e-05
2.82672e-09
-3.69148e-09
5.87566e-07
-1.76371e-09
1.24601e-09
1.11286e-09
-1.11941e-05
-1.25534e-09
9.59742e-10
8.07379e-10
-1.56596e-05
-1.6451e-09
2.27831e-09
2.47467e-10
-1.41912e-07
-2.36101e-09
1.98966e-09
-1.38784e-10
4.02494e-06
-1.07069e-10
9.60578e-10
3.79151e-09
1.83509e-07
-1.3361e-09
8.18311e-10
2.86345e-09
-8.00426e-07
-9.01393e-10
3.14719e-09
2.19865e-09
-5.89425e-06
-6.16201e-10
-1.58989e-09
3.00388e-10
-6.64713e-06
-5.48881e-10
1.56298e-09
-8.57211e-10
-4.96584e-06
-5.37498e-10
6.48863e-10
-2.60313e-09
-5.32288e-07
2.75091e-10
-2.26649e-09
2.01702e-06
-3.5626e-10
-2.17391e-09
1.15621e-05
1.77512e-06
-2.0178e-05
1.02792e-06
8.1604e-06
1.49454e-05
-2.39413e-05
1.36653e-06
4.87749e-06
-4.46853e-07
-1.13656e-05
-4.44886e-06
1.01713e-05
-6.29527e-06
6.60645e-06
2.62643e-07
-1.47895e-06
-2.20981e-06
1.05907e-05
4.16766e-06
-2.79501e-06
3.30536e-06
-1.46378e-05
2.23746e-06
7.67966e-06
1.25239e-06
-8.04619e-06
-2.54101e-06
1.12447e-05
-6.68632e-07
4.88444e-06
-1.47047e-05
7.81002e-06
4.81236e-06
-2.78895e-05
1.13391e-06
1.05561e-05
1.04983e-05
-1.94845e-05
-1.42136e-06
8.75939e-06
4.6253e-06
8.74792e-06
2.4246e-06
-3.0928e-06
-1.11929e-06
1.009e-05
4.93518e-06
-3.5355e-08
-5.21392e-06
-9.39834e-06
-1.14447e-06
-5.31206e-06
-1.03938e-05
-3.33727e-06
-1.91459e-06
-5.36193e-06
-2.98645e-06
-6.4142e-06
-7.03985e-07
2.91527e-06
3.08688e-06
1.51866e-06
4.15785e-06
3.00219e-06
-4.49249e-07
-7.3657e-06
-1.69677e-06
-3.60542e-06
1.73433e-07
-3.88329e-06
-8.6356e-07
1.13927e-06
1.95293e-06
3.76737e-06
-1.89386e-06
-1.19658e-05
-5.55126e-06
-7.33799e-06
-8.91856e-06
-8.26694e-06
-2.0307e-07
-4.65017e-06
3.72495e-06
-2.31707e-06
-7.87609e-07
-6.98266e-06
-3.22496e-06
-8.50016e-07
-3.39792e-06
3.04319e-06
-1.85636e-06
-1.22348e-06
1.17229e-08
3.09422e-06
7.40045e-07
2.01487e-06
-1.69991e-06
1.3537e-06
1.84422e-06
1.43376e-06
-1.60348e-07
1.88073e-06
1.83341e-06
1.72277e-07
-3.04649e-06
-5.1959e-07
-2.96465e-06
-2.85355e-06
-1.76888e-06
-2.48933e-06
-1.66974e-06
-1.68981e-06
-3.44916e-06
-1.39833e-06
-1.64647e-07
2.16903e-06
-2.98673e-09
9.617e-07
1.8915e-06
9.89173e-07
-8.66645e-07
-8.63417e-07
-2.40511e-06
-2.26161e-06
-7.02803e-07
-9.16332e-07
-1.24577e-06
1.91503e-07
2.30815e-06
1.1247e-07
-6.64631e-07
-3.12232e-06
-4.4175e-06
-3.56431e-06
-4.28573e-06
-3.05187e-07
-2.48165e-06
-2.25038e-06
-1.10777e-06
9.5106e-07
-3.72872e-06
-2.16262e-06
-1.81352e-07
-2.57169e-11
-7.5052e-10
1.84764e-10
1.28228e-10
4.75102e-10
6.97782e-07
-2.78846e-09
-1.15234e-09
-9.88683e-06
-3.1336e-10
-9.10849e-11
-5.31638e-07
-9.54153e-10
1.94217e-09
5.08158e-07
-2.28636e-09
-1.38186e-09
-1.12606e-09
-5.31814e-06
-1.33187e-09
-1.00048e-09
-3.11512e-06
-4.40656e-09
-3.14508e-09
-6.8309e-06
-3.76458e-09
-2.80209e-09
5.4933e-07
-9.76617e-10
1.82516e-09
-3.67211e-06
-1.76135e-09
-3.41686e-09
2.02439e-09
-4.20717e-06
-1.5603e-11
4.1825e-10
3.27912e-11
-2.44574e-09
7.20006e-10
2.48104e-06
-2.6925e-10
9.5383e-11
4.30853e-11
-3.30302e-09
1.28485e-09
-9.73059e-08
-1.42149e-09
-1.45584e-10
-1.25546e-09
4.2541e-12
2.42933e-10
-4.8489e-09
8.43668e-10
-1.85162e-09
-4.58979e-09
3.29754e-07
-9.00997e-10
-9.75495e-10
1.3847e-06
-8.30579e-10
1.22137e-06
-8.44049e-10
-1.29071e-09
-2.46872e-06
-4.91967e-06
2.23049e-05
1.25711e-05
2.54064e-06
-5.98054e-06
1.60315e-06
1.56109e-06
-1.49639e-05
3.99802e-06
-1.68865e-06
-3.73029e-07
-1.56567e-06
1.28111e-05
1.73839e-05
-1.63897e-05
-1.37859e-05
2.28093e-06
1.95553e-05
-4.87338e-06
-4.42276e-06
1.08684e-05
-7.50322e-06
-2.1726e-05
3.3325e-05
-1.82727e-05
-1.67784e-05
5.63945e-06
-6.07647e-06
4.66347e-06
-1.73704e-05
3.00108e-06
-1.21606e-05
-2.48749e-06
7.32551e-06
5.31212e-06
-1.31288e-05
2.24296e-05
-1.02196e-05
1.95979e-06
-1.93105e-05
-2.33004e-06
3.80587e-06
1.34335e-05
-1.10915e-05
1.08496e-05
2.91745e-06
-1.20872e-05
-1.16043e-06
4.40097e-06
6.44061e-06
1.12617e-05
-3.69354e-06
1.76082e-05
-6.55252e-06
-9.50767e-06
1.56705e-05
-8.82361e-06
-5.50829e-06
4.24426e-06
1.33063e-06
1.18721e-05
-5.57538e-06
-1.16753e-05
6.34438e-06
2.59524e-06
9.86624e-06
-3.48246e-06
2.5257e-06
-3.03368e-06
-2.69614e-07
-1.79161e-06
-5.70585e-06
-8.27409e-06
8.17475e-07
-3.84191e-07
-5.57834e-06
-2.49156e-06
7.62729e-06
4.59667e-06
8.47155e-06
-1.33481e-07
8.96418e-06
1.84234e-06
4.09681e-07
4.33442e-06
9.08703e-06
6.95067e-06
1.49352e-05
1.48554e-05
6.21172e-06
2.6716e-06
2.01323e-06
-1.5201e-06
-7.5613e-06
-6.05339e-06
3.97778e-06
-4.02245e-07
3.7181e-06
-1.11157e-06
5.86005e-06
1.01614e-05
5.16117e-06
-7.00038e-07
-8.93403e-06
-5.91136e-08
-9.68927e-07
6.10314e-06
2.05303e-06
-3.10161e-06
1.26719e-06
2.14922e-06
1.63633e-06
-2.84507e-06
3.06549e-06
-4.2191e-06
1.92274e-07
7.91676e-06
6.45623e-06
2.98793e-06
6.9384e-06
3.61813e-06
1.83201e-06
1.68422e-06
4.91718e-07
5.32319e-06
3.33787e-06
7.63452e-06
3.81884e-06
8.13504e-07
3.31712e-06
-1.81423e-06
1.70886e-06
-1.04939e-06
-3.78185e-07
-7.82331e-07
-4.88488e-07
-4.48093e-06
7.63181e-07
-2.85553e-07
-3.31508e-06
-1.69142e-06
2.09192e-06
3.12197e-06
4.88975e-06
-1.93383e-07
2.82912e-06
1.20327e-06
-1.26626e-07
1.48581e-06
4.96242e-06
3.88558e-06
4.09568e-06
8.72639e-06
3.92317e-06
6.15674e-07
1.16052e-06
-1.40763e-06
-1.28107e-06
-3.39123e-06
2.45387e-06
-7.95041e-07
1.42814e-06
-7.01657e-07
2.90414e-06
3.09483e-06
2.45315e-06
-1.19441e-06
-2.13062e-06
-3.93101e-07
-1.11842e-06
1.69373e-06
1.22637e-06
-1.65377e-06
4.66451e-07
9.74668e-07
3.66737e-07
-1.40047e-06
1.3262e-06
-2.90356e-06
6.34511e-07
2.3121e-06
3.27404e-06
1.93887e-06
2.24502e-06
2.2924e-06
8.53682e-07
5.53743e-07
6.61096e-08
1.51487e-06
1.59773e-06
3.89406e-06
-5.35855e-08
-1.34137e-06
1.18203e-06
-1.00484e-06
5.43908e-07
4.14801e-07
1.02584e-06
-1.0173e-06
4.268e-07
7.02774e-07
-2.2276e-09
1.38264e-06
-5.45755e-08
-1.52773e-06
-1.80002e-07
-8.02694e-07
-1.30401e-06
-5.24332e-07
-6.6545e-07
-1.0002e-06
-5.0737e-07
1.02321e-06
-1.44452e-07
6.31741e-07
-3.66172e-07
-4.48504e-07
-1.58867e-06
-1.92066e-07
-3.08271e-08
-1.53435e-07
5.12954e-07
-8.43402e-07
-8.39692e-07
-2.02205e-06
-2.45464e-06
-1.45554e-07
-1.62886e-06
-8.55277e-07
-2.4418e-06
-8.75708e-07
1.83262e-06
2.87672e-07
-1.23346e-06
6.58657e-07
-3.40306e-08
6.60936e-07
-1.78588e-06
9.16576e-07
-1.19328e-06
-5.75843e-07
9.67972e-07
2.6297e-06
1.22518e-07
1.14584e-06
1.14253e-07
2.52787e-06
1.51178e-06
3.33863e-06
1.13422e-06
5.53372e-07
-2.73358e-07
-1.0485e-06
1.17751e-06
1.50401e-08
-4.43043e-07
1.53297e-06
1.54708e-06
-6.18824e-08
-1.18268e-08
-1.96408e-07
1.01586e-06
-8.35746e-07
6.80783e-07
4.45926e-07
-6.75058e-07
-8.22079e-07
3.27474e-08
1.47392e-06
7.37245e-07
7.00867e-07
2.67207e-07
1.63716e-07
6.41776e-07
1.44698e-06
1.89572e-10
1.89701e-10
5.04273e-07
7.62349e-10
-9.63867e-06
2.46359e-09
-5.11616e-06
-2.32912e-10
1.24534e-10
-9.31161e-10
5.21599e-06
-3.3523e-09
2.75527e-06
3.97278e-09
-6.02589e-06
1.50181e-09
-1.26255e-06
-2.90532e-09
4.8314e-07
-3.32487e-10
-1.6749e-05
2.73855e-11
-1.40988e-05
-6.9794e-10
1.08841e-06
-1.0831e-09
4.9774e-06
8.78516e-10
1.85674e-06
2.53625e-09
-4.87502e-08
2.76368e-09
-9.77398e-06
1.46402e-09
1.04675e-06
3.92307e-10
2.25988e-11
-1.1494e-10
3.70389e-06
-1.18028e-09
2.30465e-06
3.9104e-09
3.86834e-06
7.95889e-10
-5.30717e-06
-2.2127e-09
-6.39922e-06
-2.75872e-09
-7.88271e-06
-3.43378e-09
1.26176e-06
-4.06744e-10
-3.34197e-06
9.44115e-10
-1.11716e-06
1.33112e-10
1.42161e-05
-1.26071e-05
-4.905e-06
-3.03689e-06
1.70407e-05
2.06492e-06
-1.04928e-05
-3.55331e-06
2.1636e-05
-8.35299e-06
2.38891e-05
-7.35209e-06
-6.02745e-06
8.58056e-06
-2.43343e-05
1.24521e-05
-1.64526e-05
-2.6442e-06
1.26854e-05
-9.74698e-06
-2.22279e-05
-6.09509e-09
-4.71492e-05
9.20551e-06
-1.14856e-05
4.07023e-06
2.79222e-05
-6.23884e-06
1.79586e-05
3.18412e-06
-1.7256e-05
-4.48424e-06
-1.03472e-07
-8.17869e-06
-5.22903e-06
-5.57494e-06
-3.70732e-06
-1.12489e-06
-4.99781e-06
-7.42748e-06
1.58448e-06
2.37098e-05
-1.49334e-05
9.05815e-06
6.27519e-06
-7.27945e-06
1.83173e-05
-1.82487e-06
-2.38839e-05
3.72853e-07
-6.46297e-06
-6.66286e-06
4.19823e-06
-5.08329e-06
-1.52072e-05
-4.84736e-06
-3.58067e-06
3.94202e-06
-1.92426e-06
2.29258e-06
7.68076e-06
-3.60819e-06
-4.85996e-06
2.06271e-08
9.73847e-06
7.86076e-06
1.04786e-05
9.4228e-06
-2.97244e-06
-3.40375e-06
-1.15089e-05
-3.61305e-06
-7.76778e-06
5.96303e-06
4.96354e-06
2.70889e-06
-9.88018e-06
-8.49628e-06
-2.10853e-05
-1.30336e-05
-4.93167e-06
-3.44768e-06
1.22918e-05
6.70518e-06
7.80732e-06
1.63463e-06
-8.20609e-06
5.68975e-07
-1.47531e-07
2.18615e-06
-1.68929e-06
-1.99636e-07
-1.37989e-06
-3.73866e-07
-2.76358e-06
2.4659e-06
9.11286e-07
-5.51711e-06
-6.94625e-06
-7.44013e-07
3.14164e-06
4.46304e-06
8.90292e-06
-2.72142e-06
-1.02422e-05
-2.03423e-06
-3.53017e-06
1.41562e-06
1.24533e-06
-3.06263e-08
-6.11867e-06
-9.24451e-07
-1.00704e-06
1.20172e-06
-5.08443e-07
1.70641e-06
3.17073e-06
-1.75692e-06
-1.76582e-06
4.82994e-07
3.02652e-06
5.06179e-06
2.59462e-06
5.59514e-06
-3.61826e-07
-2.34361e-06
-3.54366e-06
-2.40691e-06
-2.81302e-06
3.10273e-06
6.62017e-07
1.59548e-06
-3.4043e-06
-5.16554e-06
-5.59e-06
-7.18353e-06
-1.74707e-06
-1.78044e-06
3.50243e-06
3.55413e-06
2.48418e-06
7.63517e-08
-2.24267e-06
-9.36173e-07
1.56145e-07
8.50153e-07
-1.0229e-06
-2.29737e-07
-6.88339e-07
-3.74493e-07
-1.39338e-06
1.41961e-06
1.17821e-07
-3.58539e-06
-1.92628e-06
-6.13112e-07
5.60914e-07
3.51483e-06
1.88697e-06
-2.69337e-07
-3.17155e-06
-1.07222e-06
-4.21503e-07
2.06003e-08
2.31461e-07
-7.79573e-07
-1.41139e-06
-4.8935e-07
-6.17463e-07
7.63878e-07
1.34238e-06
-4.49729e-07
7.95023e-07
2.19494e-06
2.80415e-06
-7.27785e-07
-9.03309e-07
9.09173e-07
3.76235e-08
-2.20718e-06
-3.39634e-06
-9.42195e-07
1.54052e-06
4.77708e-07
1.88649e-07
7.18818e-07
3.10476e-08
-3.33834e-07
4.87344e-07
-1.42832e-06
-4.02008e-07
6.70059e-07
-1.01929e-06
-7.30764e-07
-3.23738e-07
-2.77629e-07
5.42359e-10
5.2779e-09
2.18996e-06
-9.12029e-10
-1.24849e-06
8.31731e-10
-9.64279e-06
5.50805e-07
7.85613e-06
1.51444e-05
-4.98825e-06
6.28264e-06
)
;

boundaryField
{
    top_fluid_surface
    {
        type            calculated;
        value           nonuniform List<scalar> 
64
(
7.90973e-10
2.06607e-09
6.1603e-11
8.70831e-10
0
0
0
2.38525e-09
1.17544e-09
1.20587e-09
2.47463e-09
0
8.9268e-11
0
5.00663e-10
0
1.41162e-09
5.12475e-09
1.04156e-09
4.1783e-09
0
0
5.66558e-10
2.5836e-09
0
2.63233e-09
2.74796e-10
3.30669e-09
3.51449e-09
2.46925e-10
0
1.83449e-10
0
0
0
1.66e-09
0
0
0
1.17121e-10
2.48412e-09
0
0
0
0
0
0
0
0
7.76421e-10
0
0
0
2.1123e-09
2.97727e-09
0
0
0
0
8.7531e-10
0
3.75457e-09
2.40216e-09
3.10197e-09
)
;
    }
    bottom_fluid_surface
    {
        type            calculated;
        value           uniform 0;
    }
    lateral_surface_1
    {
        type            calculated;
        value           uniform 0;
    }
    lateral_surface_2
    {
        type            calculated;
        value           uniform 0;
    }
    lateral_surface_3
    {
        type            calculated;
        value           uniform 0;
    }
    lateral_surface_4
    {
        type            calculated;
        value           uniform 0;
    }
}


// ************************************************************************* //
