/*--------------------------------*- C++ -*----------------------------------*\
| =========                 |                                                 |
| \\      /  F ield         | OpenFOAM: The Open Source CFD Toolbox           |
|  \\    /   O peration     | Version:  v1612+                                |
|   \\  /    A nd           | Web:      www.OpenFOAM.com                      |
|    \\/     M anipulation  |                                                 |
\*---------------------------------------------------------------------------*/
FoamFile
{
    version     2.0;
    format      ascii;
    class       volScalarField;
    location    "4.45";
    object      p_rgh;
}
// * * * * * * * * * * * * * * * * * * * * * * * * * * * * * * * * * * * * * //

dimensions      [1 -1 -2 0 0 0 0];

internalField   nonuniform List<scalar> 
320
(
-9800.22
-9800.21
-9800.22
-9800.21
0.00296242
0.00464104
-0.0010449
0.00196806
-0.000725596
-0.00639341
-0.00276948
0.00590282
0.00335779
0.00342176
0.00651134
-0.00711566
-9799.98
-9800.01
-9800
-9800
-9799.97
-9799.93
-9799.92
-9800.04
-9799.97
-9799.97
-9800.08
-9799.92
-9800.23
-9800.21
-9800.21
-9800.22
-9800.21
-9800.21
-9800.22
-9800.22
-9800.23
-9800.23
-9800.21
-9800.21
-9800.22
-9800.21
-9800.22
-9800.21
-9800.22
-9800.21
-9800.21
-9800.21
-9800.21
-9800.21
-9800.22
-9800.22
-9800.22
-9800.22
-9800.21
-9800.21
0.000864501
-1.09923e-05
0.000304077
-0.00361528
0.00306063
0.0145343
0.00166905
0.00971806
-0.00131598
0.000118508
0.00097652
0.00669614
-0.000359102
0.00782503
0.000608325
0.00945553
0.0101507
-0.000152249
-0.00926037
0.000629969
-9800.01
-9799.97
-9800
-9799.95
-9800.07
-9800.12
-9800.06
-9800.12
-9799.95
-9800.03
-9800.06
-9800.09
-9799.93
-9800.07
-9800.04
-9800.08
-9800.09
-9800
-9799.94
-9800.07
-9800.2
-9800.21
-9800.21
-9800.21
-9800.2
-9800.2
-9800.2
-9800.19
-9800.21
-9800.2
-9800.2
-9800.2
-9800.22
-9800.22
-9800.22
-9800.22
-9800.21
-9800.2
-9800.2
-9800.2
-9800.2
-9800.21
-9800.21
-9800.21
-9800.2
-9800.2
-9800.2
-9800.2
-9800.21
-9800.2
-9800.2
-9800.21
-9800.22
-9800.22
-9800.22
-9800.22
-9800.21
-9800.21
-9800.21
-9800.2
-9800.22
-9800.21
-9800.22
-9800.21
-9800.21
-9800.21
-9800.21
-9800.21
-9800.21
-9800.21
-9800.22
-9800.22
-9800.22
-9800.22
-9800.21
-9800.21
-9800.21
-9800.21
-9800.21
-9800.21
-9800.2
-9800.2
-9800.21
-9800.2
-9800.21
-9800.2
-9800.21
-9800.21
-9800.22
-9800.22
-9800.22
-9800.22
-9800.22
-9800.21
-9800.21
-9800.21
-0.00244585
-0.00239685
-0.00971832
0.00400714
-0.0002686
-0.000598583
-0.0129496
0.0011311
0.00634178
-0.0127723
-0.00764641
2.19986e-06
-0.00315832
-0.00459299
-0.0093083
-0.00183673
-0.000528054
0.00330411
-0.00517053
-0.00127872
-0.0103468
0.0047405
0.00677255
-0.00213183
-0.00101419
-0.00801503
-0.00526881
0.00325995
-9799.94
-9800.08
-9799.94
-9800.07
-9799.98
-9799.98
-9799.88
-9799.97
-9800.06
-9799.86
-9799.91
-9799.95
-9799.99
-9800.03
-9799.95
-9799.95
-9799.9
-9799.98
-9799.94
-9799.99
-9799.91
-9800.03
-9800.05
-9799.93
-9799.99
-9799.97
-9799.92
-9799.98
-9800.21
-9800.19
-9800.2
-9800.2
-9800.2
-9800.2
-9800.21
-9800.22
-9800.2
-9800.21
-9800.2
-9800.2
-9800.19
-9800.19
-9800.2
-9800.21
-9800.22
-9800.23
-9800.22
-9800.23
-9800.23
-9800.22
-9800.22
-9800.22
-9800.2
-9800.2
-9800.21
-9800.22
-9800.21
-9800.2
-9800.21
-9800.2
-9800.2
-9800.2
-9800.21
-9800.21
-9800.21
-9800.21
-9800.21
-9800.2
-9800.2
-9800.19
-9800.2
-9800.22
-9800.22
-9800.22
-9800.22
-9800.22
-9800.22
-9800.22
-9800.22
-9800.22
-9800.21
-9800.2
-9800.21
-9800.22
-9800.21
-9800.21
-9800.21
-9800.21
-9800.21
-9800.2
-9800.21
-9800.21
-9800.2
-9800.21
-9800.2
-9800.2
-9800.2
-9800.2
-9800.2
-9800.21
-9800.21
-9800.22
-9800.22
-9800.22
-9800.22
-9800.22
-9800.22
-9800.22
-9800.21
-9800.21
-9800.21
-9800.21
-0.0111992
0.0101396
0.00498622
0.00843334
-9799.87
-9800.07
-9800.01
-9800.08
)
;

boundaryField
{
    top_fluid_surface
    {
        type            totalPressure;
        rho             rho;
        psi             none;
        gamma           1;
        p0              uniform 0;
        value           nonuniform List<scalar> 
64
(
0
0
-7.98914e-14
0
-1.00582e-09
-1.07221e-08
-1.89907e-09
0
0
0
0
-1.284e-08
0
-8.77288e-11
0
-2.55224e-09
0
0
0
0
-3.04493e-10
-1.60841e-08
0
0
-1.35345e-09
0
0
0
0
0
-1.84496e-08
0
-1.79149e-09
-1.58138e-08
-1.90779e-08
0
-7.44729e-10
-1.1511e-09
-3.61335e-08
0
0
-2.81794e-08
-1.4334e-08
-3.52156e-10
-3.01763e-09
-4.12163e-09
-2.22715e-08
-8.07245e-11
-3.04388e-10
0
-1.03534e-08
-2.42808e-08
-3.47574e-08
0
0
-1.25109e-09
-8.17198e-10
-1.08916e-08
-7.13192e-09
0
-3.1923e-08
0
0
0
)
;
    }
    bottom_fluid_surface
    {
        type            fixedFluxPressure;
        gradient        uniform 0;
        value           nonuniform List<scalar> 
64
(
-9800.22
-9800.21
-9800.22
-9800.21
-9800.21
-9800.21
-9800.21
-9800.21
-9800.21
-9800.21
-9800.22
-9800.22
-9800.22
-9800.22
-9800.21
-9800.21
-9800.21
-9800.21
-9800.21
-9800.21
-9800.2
-9800.2
-9800.21
-9800.2
-9800.21
-9800.2
-9800.21
-9800.21
-9800.22
-9800.22
-9800.22
-9800.22
-9800.22
-9800.21
-9800.21
-9800.21
-9800.21
-9800.21
-9800.21
-9800.21
-9800.21
-9800.2
-9800.21
-9800.21
-9800.2
-9800.21
-9800.2
-9800.2
-9800.2
-9800.2
-9800.2
-9800.21
-9800.21
-9800.22
-9800.22
-9800.22
-9800.22
-9800.22
-9800.22
-9800.22
-9800.21
-9800.21
-9800.21
-9800.21
)
;
    }
    lateral_surface_1
    {
        type            fixedFluxPressure;
        gradient        uniform 0;
        value           nonuniform List<scalar> 
40
(
-0.00244585
-0.00239685
-0.00971832
0.00400714
-0.0002686
-0.000598583
-0.0129496
0.00325995
-9799.94
-9800.08
-9799.94
-9800.07
-9799.98
-9799.98
-9799.88
-9799.98
-9800.21
-9800.19
-9800.2
-9800.2
-9800.2
-9800.2
-9800.21
-9800.22
-9800.21
-9800.2
-9800.21
-9800.2
-9800.2
-9800.2
-9800.21
-9800.22
-9800.21
-9800.21
-9800.21
-9800.21
-9800.21
-9800.2
-9800.21
-9800.21
)
;
    }
    lateral_surface_2
    {
        type            fixedFluxPressure;
        gradient        uniform 0;
        value           nonuniform List<scalar> 
40
(
-0.00459299
-0.0093083
-0.00183673
-0.000528054
0.00330411
-0.00517053
-0.00127872
-0.0103468
-9800.03
-9799.95
-9799.95
-9799.9
-9799.98
-9799.94
-9799.99
-9799.91
-9800.19
-9800.2
-9800.21
-9800.22
-9800.23
-9800.22
-9800.23
-9800.23
-9800.19
-9800.2
-9800.22
-9800.22
-9800.22
-9800.22
-9800.22
-9800.22
-9800.2
-9800.2
-9800.21
-9800.21
-9800.22
-9800.22
-9800.22
-9800.22
)
;
    }
    lateral_surface_3
    {
        type            fixedFluxPressure;
        gradient        uniform 0;
        value           nonuniform List<scalar> 
40
(
-0.0129496
0.0011311
0.00634178
-0.0127723
-0.00764641
2.19986e-06
-0.00315832
-0.00459299
-9799.88
-9799.97
-9800.06
-9799.86
-9799.91
-9799.95
-9799.99
-9800.03
-9800.21
-9800.22
-9800.2
-9800.21
-9800.2
-9800.2
-9800.19
-9800.19
-9800.21
-9800.21
-9800.21
-9800.21
-9800.21
-9800.2
-9800.2
-9800.19
-9800.21
-9800.21
-9800.2
-9800.21
-9800.2
-9800.2
-9800.2
-9800.2
)
;
    }
    lateral_surface_4
    {
        type            fixedFluxPressure;
        gradient        uniform 0;
        value           nonuniform List<scalar> 
40
(
-0.0103468
0.0047405
0.00677255
-0.00213183
-0.00101419
-0.00801503
-0.00526881
0.00325995
-9799.91
-9800.03
-9800.05
-9799.93
-9799.99
-9799.97
-9799.92
-9799.98
-9800.23
-9800.22
-9800.22
-9800.22
-9800.2
-9800.2
-9800.21
-9800.22
-9800.22
-9800.22
-9800.22
-9800.22
-9800.21
-9800.2
-9800.21
-9800.22
-9800.22
-9800.22
-9800.22
-9800.22
-9800.21
-9800.21
-9800.21
-9800.21
)
;
    }
}


// ************************************************************************* //
