/*--------------------------------*- C++ -*----------------------------------*\
| =========                 |                                                 |
| \\      /  F ield         | OpenFOAM: The Open Source CFD Toolbox           |
|  \\    /   O peration     | Version:  v1612+                                |
|   \\  /    A nd           | Web:      www.OpenFOAM.com                      |
|    \\/     M anipulation  |                                                 |
\*---------------------------------------------------------------------------*/
FoamFile
{
    version     2.0;
    format      ascii;
    class       volScalarField;
    location    "8.75";
    object      alpha.water;
}
// * * * * * * * * * * * * * * * * * * * * * * * * * * * * * * * * * * * * * //

dimensions      [0 0 0 0 0 0 0];

internalField   nonuniform List<scalar> 
1116
(
0.74792
0.748558
0.750106
0.746645
0.744918
0.750207
0.794967
0.794936
0.795235
0.794448
0.793681
0.7955
0.938974
0.93929
0.93908
0.939135
0.938961
0.939301
0.973609
0.973614
0.973612
0.973611
0.973611
0.973606
0.973626
0.973627
0.973627
0.973627
0.973628
0.973624
0.973627
0.973627
0.973627
0.973628
0.973628
0.973628
0.966435
0.965846
0.966039
0.96627
0.965828
0.966441
0.865191
0.865078
0.86549
0.864493
0.863612
0.866715
0.794114
0.791096
0.792381
0.792813
0.794273
0.792174
0.77586
0.774804
0.774836
0.776018
0.777885
0.775171
0.724942
0.722529
0.723135
0.725288
0.725433
0.722122
0.674734
0.67446
0.674279
0.674539
0.673385
0.674043
0.308504
0.306664
0.306529
0.308901
0.306673
0.308043
0.322745
0.318683
0.316594
0.320716
0.317216
0.318748
0.437424
0.433351
0.431478
0.437744
0.438468
0.434862
0.650802
0.652763
0.652463
0.651734
0.652482
0.655989
0.838065
0.842753
0.843588
0.838336
0.837113
0.844205
0.896508
0.897289
0.898395
0.896184
0.896495
0.896715
0.900513
0.899386
0.900731
0.900122
0.899906
0.899606
0.899597
0.898973
0.899839
0.899351
0.899025
0.898706
0.737946
0.749075
0.743628
0.743575
0.747998
0.750279
0.341885
0.334586
0.335803
0.346288
0.345956
0.331211
0.276997
0.276631
0.276516
0.276259
0.276097
0.276097
0.457049
0.441104
0.452167
0.453206
0.433604
0.441126
2.999e-07
1.63568e-07
1.8761e-07
7.01495e-08
1.63612e-07
1.06145e-07
9.11525e-09
5.59579e-09
6.49089e-09
2.21959e-09
5.19318e-09
3.90346e-09
1.37249e-11
9.75943e-12
1.88262e-11
2.9493e-12
2.8297e-12
2.63982e-11
0.00151275
0.00127406
0.00141299
0.00140078
0.00170759
0.00164018
0.0159003
0.0158225
0.0158894
0.0158278
0.0161049
0.0162985
0.0438893
0.0441943
0.0445267
0.0440226
0.0435819
0.0455311
0.0661718
0.065858
0.0660265
0.0670186
0.0658379
0.0671159
0.0810841
0.0797402
0.0801594
0.0815296
0.0798562
0.0815587
0.124607
0.119188
0.121734
0.121065
0.119688
0.125271
0.284993
0.272457
0.275673
0.282223
0.280632
0.275533
0.288301
0.288301
0.287821
0.287617
0.287479
0.287618
0.16517
0.192304
0.183497
0.165297
0.179402
0.182714
6.41911e-05
2.9127e-05
2.07889e-05
4.35467e-05
6.59921e-05
1.93854e-05
2.60063e-05
1.61533e-05
1.90156e-05
5.08703e-06
1.04604e-05
1.17268e-05
-2.41089e-18
-6.94753e-17
-1.1282e-16
-1.82702e-17
-1.34492e-17
-1.15201e-15
-1.23649e-17
-1.10123e-13
-2.05799e-12
-4.82918e-13
-3.41282e-13
-2.44516e-12
-6.53885e-18
-3.64203e-15
-2.43928e-15
-1.31599e-17
-5.4125e-17
-5.98083e-16
2.16291e-09
9.48238e-10
4.45278e-12
3.50046e-09
6.78548e-09
1.54305e-08
8.44788e-09
7.8681e-09
7.56612e-09
1.02859e-08
2.2216e-08
3.81675e-08
8.12209e-08
6.37229e-08
6.43142e-08
7.75822e-08
8.31225e-08
6.07985e-08
1.50757e-07
1.32857e-07
1.23559e-07
1.15408e-07
1.05069e-07
9.05958e-08
1.42627e-07
1.06653e-07
1.22e-07
1.18252e-07
1.15408e-07
1.05069e-07
0.0686183
0.0453618
0.0513677
0.0651289
0.066065
0.0487212
0.00998632
0.00997545
0.0100736
0.00956802
0.00959603
0.00929277
0.0956345
0.0956834
0.0956643
0.0956978
0.0934057
0.0957046
0.0956834
0.0957135
0.0957295
0.0957414
0.0957357
0.0957272
0.0957134
0.0957295
0.0957415
0.0957444
0.0957414
0.0957368
0.0956996
0.0957139
0.0536061
0.0757938
0.0957377
0.0957346
0.0956712
0.0806854
0.0455827
0.0571985
0.0699015
0.077718
0.0574486
0.0570675
0.0619826
0.0619826
0.0501265
0.0504099
0.0574878
0.0570193
0.0506679
0.0266217
0.0258161
0.0510483
0.0566689
0.0568521
0.0415386
0.00495573
0.0119472
0.0415955
0.0302712
0.05121
0.0366273
0.00859978
0.0112991
0.0356335
0.0110124
0.0162226
0.0357478
0.0210674
0.0105942
0.0356154
0.0131497
0.00564629
0.022936
0.0328496
0.0256928
0.0355158
0.0150322
0.00595471
0.0200915
0.0339675
0.0348923
0.0354201
0.0955879
0.0908186
0.0692771
0.0838191
0.0949034
0.09569
0.082032
0.0833309
0.0688865
0.0788901
0.0904778
0.0949549
0.0775389
0.0833922
0.0934103
0.092991
0.0920196
0.0925484
0.0957399
0.0893279
0.0478897
0.0954119
0.0957443
0.0957263
0.0956528
0.0950806
0.0394711
0.0740692
0.0954264
0.0955028
0.0951797
0.0869558
0.0393292
0.0224096
0.0532794
0.0789331
0.0528093
0.032244
0.028641
0.0135665
0.0111621
0.0149812
0.00507672
0.00284924
0.00973038
0.00494887
0.00326364
0.00372245
0.00873012
0.00159641
0.00119738
0.00266286
0.00102496
0.000470378
0.00583253
0.00200323
5.10371e-06
0.00021725
5.61947e-05
0.000545375
0.0020081
0.0028024
5.87249e-05
9.37223e-05
6.58114e-05
0.00364143
0.00703875
0.00330684
0.00247799
0.000124095
0.000144445
0.00453904
0.0197375
0.0118987
4.74958e-07
0.00153513
0.0258422
0.0443566
0.00819599
6.01006e-08
8.78515e-09
2.33457e-09
0.00682147
0.0190205
0.00823251
2.10734e-07
1.56436e-08
0.00481174
0.00636512
0.0125672
0.00682167
0.00809582
0.0341225
0.0406696
0.0306257
0.0178481
0.00908298
0.0366688
0.0907359
0.0929597
0.094881
0.0580421
0.0180473
0.0689956
0.0431212
0.0466843
0.0728351
0.0770548
0.0259347
0.0545208
0.00425785
0.00252278
0.00686496
0.0248647
0.0139405
0.00799181
0.000106345
0.00246345
7.40415e-05
0.000128119
9.78111e-05
4.17329e-05
5.08922e-06
6.43928e-06
5.89432e-05
7.16185e-05
1.45514e-05
5.09126e-06
1.96157e-06
1.07308e-06
1.55973e-05
0.000220008
1.84092e-05
0.000336927
0.0005637
0.00155289
0.00305748
0.000540813
0.000656977
0.00147229
0.00321198
0.00614379
0.00604316
0.00157103
2.17318e-08
1.84061e-08
8.78612e-09
2.34243e-09
1.89551e-08
3.54183e-08
1.93841e-08
8.7777e-09
2.34072e-09
2.19304e-09
2.34243e-09
2.42304e-08
2.09375e-07
3.31351e-07
2.98089e-09
2.34243e-09
2.98089e-09
0.000617553
1.13254e-06
5.83945e-08
5.45387e-09
2.98089e-09
5.45387e-09
0.00076376
0.000105748
1.13255e-06
0.00541332
0.0164809
0.0022117
0.00295239
0.000172712
6.62166e-05
0.0340861
0.0437627
0.0336382
0.020188
0.00177978
0.0170612
0.0115447
0.0125494
0.0173344
0.019586
0.00400627
0.0156287
1.35323e-05
6.46993e-06
5.12256e-05
0.00170576
0.00182478
0.000866009
1.96157e-06
1.05947e-06
3.20614e-05
4.30761e-05
1.17814e-05
1.95831e-06
1.30891e-06
3.92949e-07
4.01845e-07
4.32917e-06
1.63923e-05
4.00731e-06
1.12315e-06
5.4719e-07
0.00145254
9.18064e-06
0.00755357
0.00713776
0.00617431
0.00762755
0.00769973
0.00775029
0.000198085
0.000140125
0.000120212
0.000185845
0.000186142
0.000110054
0.000198085
0.000100188
8.25017e-05
0.000185224
0.000186391
9.6126e-05
0.000197621
0.000119113
8.24796e-05
0.000185922
0.000186391
0.000183731
5.64624e-05
1.90731e-05
2.807e-05
1.362e-06
2.84682e-05
2.12775e-05
5.45282e-07
2.18705e-20
3.80154e-07
2.89242e-21
5.64449e-06
-8.76257e-18
-8.1527e-21
1.00546e-33
3.29902e-31
4.31818e-34
7.75537e-25
1.62055e-33
-3.6037e-16
-1.04551e-17
-7.56517e-19
-5.55258e-17
-4.63361e-15
-8.5877e-17
-1.79779e-15
-3.85897e-17
4.22927e-28
-1.1877e-17
-1.20206e-14
-3.17583e-16
-2.74333e-19
1.16261e-20
3.14451e-18
9.35167e-21
1.82714e-22
4.66427e-20
-1.80808e-17
4.28934e-30
5.66342e-29
-5.47115e-19
-2.10195e-16
-1.61811e-18
-8.31857e-17
1.02859e-18
1.24041e-17
6.55574e-18
-3.66585e-16
-4.34637e-18
-1.12152e-17
5.30029e-19
7.17895e-18
9.19142e-21
1.14803e-20
2.36578e-18
-1.81198e-18
6.24807e-26
4.52884e-29
-5.49981e-20
-1.90161e-17
3.40468e-26
-5.77101e-18
2.34469e-27
1.18024e-20
4.76089e-28
-2.20717e-17
2.9642e-23
-1.09777e-19
1.28754e-18
5.53631e-18
1.38398e-21
2.05961e-18
2.95831e-14
1.42391e-18
8.29257e-19
9.70581e-21
2.63128e-18
3.2814e-07
8.89943e-08
8.92469e-08
3.60963e-08
1.76677e-19
1.53685e-07
4.95149e-07
1.20132e-07
-1.48807e-22
5.80035e-28
5.82659e-22
1.58519e-23
6.4476e-21
1.24095e-23
2.97689e-06
2.08921e-06
2.12221e-06
3.22657e-06
4.10323e-06
7.44776e-07
2.90649e-06
1.62703e-06
1.66347e-06
2.42093e-06
3.13409e-06
4.65308e-07
8.0372e-19
4.38887e-20
3.72838e-20
2.21761e-19
9.81351e-19
8.89772e-20
4.11746e-06
4.56759e-06
3.81006e-06
3.79385e-06
3.937e-06
1.69495e-06
5.44671e-06
5.27995e-06
5.09129e-06
4.98643e-06
4.91911e-06
1.65859e-06
7.43718e-07
3.00569e-18
2.97669e-18
1.0391e-07
1.26329e-06
5.18452e-18
1.60823e-07
9.69639e-07
3.36942e-07
1.33671e-07
1.20226e-07
3.54983e-07
3.83988e-07
1.05725e-06
5.84555e-07
9.87386e-07
1.40136e-06
1.00247e-06
8.27901e-06
7.88758e-06
7.71932e-06
5.77062e-06
4.56616e-06
5.10297e-06
4.34529e-05
6.54099e-07
1.32889e-06
2.67478e-05
2.80933e-05
2.71544e-07
2.05386e-05
8.55809e-07
6.05937e-07
3.43739e-06
5.27585e-06
7.22988e-07
6.20225e-05
1.45333e-05
2.53439e-05
5.76428e-05
4.66755e-05
1.28081e-05
7.70865e-05
4.72459e-06
5.49463e-06
5.18423e-05
4.48204e-05
1.79124e-06
4.41202e-05
1.29502e-05
1.30864e-05
2.01498e-05
2.36926e-05
1.50253e-05
3.4222e-05
1.52084e-05
1.28492e-05
2.63345e-05
1.403e-05
1.41364e-05
0.0090973
0.0067504
0.00828733
0.00862368
0.00799517
0.00665677
0.00374759
0.00375508
0.00366928
0.00373834
0.00368062
0.00402665
1.14079e-17
1.09859e-06
1.25895e-17
1.21779e-17
1.36977e-17
3.90135e-06
0.0235786
0.0236615
0.0237914
0.0235131
0.0230676
0.0229764
2.69872e-12
6.84968e-12
1.32812e-09
1.1298e-08
4.47369e-10
3.39493e-11
-2.77152e-18
-5.91506e-15
5.06264e-07
1.21181e-07
1.36395e-11
3.36615e-12
0.0251849
0.0249491
0.0248322
0.0246038
0.0244099
0.0244177
2.69877e-12
2.30753e-12
3.39332e-12
3.79926e-12
1.35438e-12
4.29819e-13
1.0109e-17
-4.12267e-16
2.46359e-09
1.61842e-09
1.35925e-12
1.51101e-15
0.0255865
0.0255637
0.0255021
0.025477
0.0254645
0.0254602
1.62187e-11
7.62821e-14
2.30753e-12
1.34205e-12
1.23585e-14
1.48932e-15
6.46734e-18
1.14638e-17
-1.54983e-16
-4.9193e-18
1.44651e-17
1.07429e-17
0.0254472
0.0253662
0.0253355
0.0253157
0.0252691
0.0252228
1.31249e-17
8.48961e-17
1.20148e-14
5.3167e-15
1.48114e-17
1.43296e-18
4.95247e-22
1.22946e-21
1.13908e-19
5.03706e-20
3.95875e-22
1.92865e-23
0.0236268
0.0238272
0.023585
0.0235342
0.0234742
0.0237341
1.21736e-19
2.89621e-19
3.53802e-17
1.38218e-17
1.17562e-19
2.80851e-10
2.17464e-26
1.02894e-25
1.76449e-20
2.15788e-23
3.20938e-26
1.17494e-09
0.0236372
0.0237398
0.0236264
0.0235278
0.0235471
0.0236532
-2.0198e-15
2.34227e-18
-1.51963e-15
-2.20733e-13
-1.2423e-15
1.0597e-07
-2.20854e-16
-2.9536e-19
-7.38474e-19
-5.20868e-16
-8.13281e-19
1.95309e-07
7.28511e-07
2.17318e-08
7.35503e-06
1.59868e-06
3.16207e-07
6.9552e-07
1.56715e-06
3.07626e-07
1.24386e-05
6.93121e-07
5.32928e-07
2.03069e-06
5.21336e-185
3.2588e-10
1.79953e-09
2.18129e-135
3.88241e-72
4.09875e-73
1.13615e-05
2.6692e-06
5.54782e-09
1.28162e-09
2.31744e-06
5.45017e-06
8.02784e-06
1.55595e-06
1.57448e-08
3.55074e-10
3.07238e-06
7.84036e-06
1.07323e-28
6.3756e-22
9.06305e-09
3.43749e-10
4.36395e-23
1.39598e-14
7.83028e-06
7.75822e-06
7.5128e-07
2.19456e-09
3.50791e-06
3.64439e-06
8.41777e-06
1.86706e-06
1.9662e-08
1.5369e-08
2.94283e-06
6.45078e-06
5.87664e-25
4.0517e-16
7.16782e-08
7.85545e-09
7.30855e-21
1.19552e-23
5.34608e-06
1.72772e-05
1.32857e-06
4.81541e-09
2.67474e-06
9.06701e-13
9.69582e-10
3.16416e-06
1.15627e-06
1.27949e-07
9.80225e-13
4.6704e-13
1.16757e-18
1.63983e-21
2.61924e-12
1.34772e-07
5.43115e-11
-9.00604e-18
0.000181837
1.55177e-05
2.32188e-08
1.63982e-08
3.36285e-08
1.74166e-07
1.47462e-10
6.45974e-05
1.51091e-07
1.50831e-08
1.88042e-07
4.71053e-13
2.84575e-19
-2.69374e-15
-3.34883e-17
1.05567e-07
5.18077e-07
5.10666e-11
0.000491464
0.000310421
0.0072218
0.00921815
0.00224209
2.9432e-06
8.96885e-05
0.000888245
0.000128568
0.000196736
2.01297e-07
8.92635e-08
-1.37619e-12
-7.29574e-14
-2.45267e-15
-1.90654e-14
3.98555e-06
8.80344e-08
0.00180877
0.00591225
0.0114774
0.0115991
0.00758271
0.00453258
0.000337324
0.00244808
0.00610883
0.00279694
0.000920781
2.94304e-06
1.422e-07
1.1735e-06
4.65912e-05
2.5401e-07
2.13358e-06
1.2346e-07
0.0030475
0.00811316
0.00195962
0.00097437
0.00144242
0.0010923
0.000635694
0.00134476
0.00186813
0.000578201
0.000472786
0.000209934
1.38092e-06
3.15513e-06
0.000262347
7.27654e-05
6.17978e-08
3.76726e-08
0.00106285
0.00142739
2.09694e-06
3.81257e-07
3.81795e-07
4.6362e-05
0.000108546
0.00038443
9.5152e-07
9.55545e-08
1.3865e-06
1.45167e-06
1.18373e-05
4.16886e-06
2.75332e-06
9.3501e-08
3.94445e-08
6.90687e-09
2.08205e-05
2.10766e-06
3.81257e-07
1.50041e-07
1.28213e-08
7.92831e-08
2.65258e-05
3.84302e-06
9.55645e-08
2.31096e-08
6.68597e-09
9.75558e-08
1.70735e-05
9.63452e-06
1.34079e-06
1.37991e-07
6.68605e-09
6.68608e-09
4.22176e-06
1.1232e-06
5.47208e-07
2.06044e-07
4.02463e-07
2.6464e-06
8.74783e-05
2.72097e-05
2.06086e-07
1.31008e-07
1.35554e-08
1.68761e-05
3.31697e-05
2.87663e-05
5.97741e-06
1.50787e-07
6.6828e-09
4.59729e-07
0.0073013
0.00681378
0.00556962
0.00570147
0.00669417
0.00763336
1.5117e-09
1.53719e-09
0.000558318
0.000156748
1.62549e-08
3.18893e-09
2.68754e-06
2.7341e-06
3.45085e-07
2.023e-08
4.45035e-09
3.12122e-08
)
;

boundaryField
{
    seabed_topleft_surface
    {
        type            zeroGradient;
    }
    seabed_topright_surface
    {
        type            zeroGradient;
    }
    breakwater_top_surface
    {
        type            zeroGradient;
    }
    breakwater_left_surface
    {
        type            zeroGradient;
    }
    breakwater_right_surface
    {
        type            zeroGradient;
    }
    water_front_surface
    {
        type            zeroGradient;
    }
    water_back_surface
    {
        type            zeroGradient;
    }
    water_left_surface
    {
        type            zeroGradient;
    }
    water_right_surface
    {
        type            zeroGradient;
    }
    water_top_surface
    {
        type            inletOutlet;
        inletValue      uniform 0;
        value           nonuniform List<scalar> 
180
(
0.000197621
0.000119113
8.24796e-05
0.000185922
0.000186391
0.000183731
0
0
0
0
0
0
0
0
0
0
0
0
0
0
0
0
0
0
0
0
0
0
0
0
0
0
0
0
0
0
0
0
0
0
0
0
0
0
0
0
0
0
8.27901e-06
0
7.71932e-06
5.77062e-06
4.56616e-06
0
6.20225e-05
1.45333e-05
2.53439e-05
5.76428e-05
4.66755e-05
1.28081e-05
3.4222e-05
1.52084e-05
1.28492e-05
2.63345e-05
1.403e-05
1.41364e-05
0
0
0
0
0
0
0
0
0
1.21181e-07
1.36395e-11
3.36615e-12
0
0
0
1.61842e-09
1.35925e-12
1.51101e-15
0
0
0
0
0
0
0
0
0
0
0
0
2.17464e-26
1.02894e-25
1.76449e-20
2.15788e-23
3.20938e-26
1.17494e-09
0
0
0
0
0
0
0
0
0
0
0
0
0
0
0
0
0
0
0
0
0
0
0
0
0
0
0
0
0
0
0
0
0
0
0
0
0
0
0
0
0
0
1.422e-07
0
0
2.5401e-07
2.13358e-06
1.2346e-07
1.38092e-06
3.15513e-06
0.000262347
7.27654e-05
6.17978e-08
3.76726e-08
1.18373e-05
4.16886e-06
2.75332e-06
9.3501e-08
3.94445e-08
6.90687e-09
1.70735e-05
9.63452e-06
1.34079e-06
1.37991e-07
6.68605e-09
6.68608e-09
3.31697e-05
2.87663e-05
5.97741e-06
1.50787e-07
6.6828e-09
4.59729e-07
0
0
3.45085e-07
2.023e-08
4.45035e-09
0
)
;
    }
}


// ************************************************************************* //
