/*--------------------------------*- C++ -*----------------------------------*\
| =========                 |                                                 |
| \\      /  F ield         | OpenFOAM: The Open Source CFD Toolbox           |
|  \\    /   O peration     | Version:  v1612+                                |
|   \\  /    A nd           | Web:      www.OpenFOAM.com                      |
|    \\/     M anipulation  |                                                 |
\*---------------------------------------------------------------------------*/
FoamFile
{
    version     2.0;
    format      ascii;
    class       volScalarField;
    location    "8.75";
    object      p;
}
// * * * * * * * * * * * * * * * * * * * * * * * * * * * * * * * * * * * * * //

dimensions      [1 -1 -2 0 0 0 0];

internalField   nonuniform List<scalar> 
1116
(
7544.94
7537.45
7539.46
7542.25
7542.25
7540.23
7983.77
7973.11
7969.58
7977.76
7984.04
7968.38
9185.33
9182.85
9179.26
9178.28
9179.74
9178.2
10886.5
10888.6
10888.3
10888.7
10892.3
10893.3
12325.2
12330.3
12330.9
12327.8
12328
12332.6
13214
13214.9
13216.9
13214.8
13214.8
13217.1
13694.5
13693
13695.2
13696.2
13696.1
13697.8
13942.4
13940.9
13943.1
13945
13945.4
13947.4
13757.7
13766.6
13766.1
13767.9
13775.2
13784.6
12670.8
12684.8
12686
12689.8
12693.7
12704.1
11822.7
11828.4
11830
11832.6
11830.8
11836.1
12299.4
12296.1
12299.1
12298.5
12276.4
12291.6
1505.48
1497.44
1496.12
1508.46
1501.5
1503.1
1568.09
1553.67
1544.54
1556.12
1542.12
1552.54
2119.15
2099.88
2090.93
2121.61
2125.84
2108.31
3169.63
3170.58
3168.11
3172.69
3182.81
3171.93
4256.13
4265.97
4268.92
4257.35
4258.82
4259.57
4879.03
4879.66
4884.94
4880.92
4881.41
4880.93
5219.94
5219.16
5223.19
5225.05
5224.19
5223.87
5396.68
5407.6
5408.52
5405.4
5405.72
5409.78
5656.9
5683.59
5679.15
5663.89
5660.1
5707.01
6390.89
6396.19
6391.59
6401.02
6390.93
6410.45
8062.12
8050.07
8045.68
8058.59
8057.53
8025.45
10276.1
10220.4
10184.2
10226
10221.5
10109.1
-41.8876
-41.827
-41.6175
-41.1547
-40.8597
-41.216
-48.4813
-48.4433
-48.8933
-49.6201
-49.7111
-49.4206
-29.1692
-29.1643
-29.1963
-28.8019
-28.7947
-28.9688
25.7756
25.6078
25.6928
26.2056
26.7531
26.472
104.734
106.542
105.964
105.31
104.435
106.59
229.346
230.002
230.765
230.791
229.29
233.946
361.757
360.471
360.613
365.631
360.227
364.387
466.665
471.841
471.654
471.868
471.478
474.402
616.152
604.921
614.096
608.858
610.752
625.574
1380.16
1362.9
1336.13
1358.97
1355.46
1347.02
2374.69
2471.04
2445.55
2398
2353.53
2491.04
1750.26
2208.63
2044.94
1726.93
1747.78
2260.56
-32.2323
-31.9542
-32.0016
-31.8552
-31.9377
-32.0693
-37.757
-37.7755
-37.8583
-37.9745
-38.0278
-38.4174
-31.3729
-31.3668
-31.5562
-31.4208
-31.5956
-31.6946
-18.0743
-18.112
-18.2376
-18.378
-18.7068
-18.7013
-12.6721
-12.7286
-12.8253
-12.786
-12.8976
-13.1421
-10.128
-10.0804
-10.1288
-10.0966
-10.0929
-10.2433
-5.86248
-5.16281
-5.39763
-5.70394
-5.82475
-5.38247
-16.3475
-14.9106
-15.6973
-15.7606
-15.2614
-16.1821
-29.2044
-28.8779
-31.2045
-30.3219
-30.3513
-32.8038
104.855
97.3269
98.1984
101.19
100.804
93.1763
412.872
298.443
353.415
411.292
411.505
307.864
479.685
516.008
500.724
475.253
467.872
534.504
1614.73
1610.13
1585.07
1572.46
1600.57
1659.26
1555.1
1537.71
1514.18
1520.05
1564.98
1652.43
1493.86
1445.44
1502.22
1551.34
1545.46
1616.41
1509.65
1474.35
1487.39
1565.86
1551.32
1616.54
1529.18
1533.16
1512
1551.56
1592.11
1605.06
1414.6
1385.94
1355.55
1305.92
1299.26
1331.38
1106.72
1016.23
932.049
779.156
804.374
842.515
595.461
554.117
510.206
466.655
479.08
483.7
321.66
328.979
308.077
337.847
283.198
274.785
208.671
197.545
205.925
205.072
171.888
206.36
201.352
193.415
207.805
244.983
256.484
252.2
213.724
204.583
228.611
274.539
284.364
283.822
614.144
603.65
404.594
527.662
589.661
680.606
467.919
451.168
356.192
442.419
568.143
624.206
466.28
430.188
490.291
602.772
619.525
613.98
577.262
499.612
584.874
622.467
607.694
670.508
575.505
509.969
596.812
643.874
694.693
782.078
530.832
403.32
437.115
469.554
523.316
536.09
353.941
258.817
226.196
267.938
315.8
294.787
182.394
139.621
92.7368
141.044
120.269
110.202
89.5352
69.2568
51.7044
65.8996
47.4013
43.2003
49.548
42.9906
37.247
36.2876
32.2842
33.9063
41.372
41.7998
50.2463
54.2964
63.8937
77.8595
45.1466
48.644
56.6782
68.3696
73.5103
68.6003
53.2654
28.7685
1.69792
14.1949
73.3528
170.849
6.46647
4.18417
1.28233
4.20615
15.5778
58.8297
8.45226
2.06512
3.68555
16.1981
29.6233
42.4665
25.0437
11.18
87.3245
145.887
101.48
85.7064
54.5398
106.46
323.455
355.887
331.175
273.454
74.6089
101.11
163.926
188.585
179.673
245.376
86.7972
82.5178
91.5654
122.515
118.648
88.7962
26.2911
35.3215
29.2779
43.6115
45.9411
48.5545
12.7281
18.8841
17.4613
20.4988
21.8874
25.8184
12.879
9.73843
11.3919
14.0098
20.3634
20.2602
20.0762
12.7256
9.00119
9.26006
17.5337
18.789
19.4771
5.86686
-4.8173
-1.81763
1.37044
-0.627107
-35.7736
-34.753
-34.0707
-35.3572
-36.6337
-36.9621
-34.6376
-33.1561
-32.9995
-33.9184
-35.0194
-35.2981
-37.1643
-38.0302
-35.9748
-35.6895
-36.6336
-34.6366
-43.0308
-47.3618
-41.3364
-38.9884
-44.3036
-41.0917
-40.856
-46.2747
-23.7847
3.84608
-48.3129
-44.7257
-44.4105
-45.7065
7.96315
44.3817
9.49781
8.05189
-42.1582
-38.6497
19.1477
44.9676
7.81895
1.68293
-26.4564
-18.8106
1.98835
10.7008
12.0054
17.5949
-6.32802
-6.5728
-5.37675
-3.60176
-0.216954
4.09397
-7.93855
-12.8179
-16.6128
-15.5357
-10.4611
-8.21807
2.73004
-4.28736
-13.0862
-16.8578
-14.3037
-7.66538
-0.694556
-15.0416
-31.1089
-37.27
-53.5728
-28.8323
-45.1798
-45.2633
-45.3774
-44.979
-45.0112
-45.0479
-58.0676
-57.8152
-57.9003
-57.842
-57.8929
-58.2818
-70.9474
-70.6078
-70.368
-71.1997
-71.2288
-71.5942
-44.2176
-44.2759
-44.4582
-44.3956
-44.5585
-44.5939
-57.271
-57.3227
-57.3428
-57.1904
-57.2678
-57.1328
-72.4406
-72.3461
-72.1655
-72.3288
-72.641
-72.1315
-37.1155
-37.1239
-37.0954
-37.1046
-37.233
-36.9367
-52.7381
-52.7014
-52.6768
-52.7157
-52.8044
-52.7806
-66.0288
-66.0819
-66.0456
-66.087
-66.0877
-66.0877
-26.8628
-26.6429
-26.6255
-26.7333
-26.7774
-26.2466
-49.5229
-49.6075
-49.6146
-49.5757
-49.5502
-49.3589
-65.0197
-65.0257
-64.9925
-65.0105
-64.9951
-64.9133
-25.0565
-24.8973
-24.913
-24.946
-25.0267
-24.6933
-47.6363
-47.6438
-47.6323
-47.664
-47.6656
-47.5789
-64.9848
-65.0085
-64.9826
-65.0032
-64.9902
-64.9473
-27.592
-27.3387
-27.3355
-27.3087
-27.3997
-27.0789
-49.7126
-49.5396
-49.4947
-49.5827
-49.5969
-49.2558
-67.1928
-67.2289
-67.1931
-67.2742
-67.2815
-67.2021
-30.5803
-29.6961
-29.9083
-29.7644
-30.0853
-29.4035
-55.4388
-54.7098
-54.6904
-54.8408
-54.9625
-53.9339
-70.6036
-70.9739
-70.959
-70.9356
-70.6515
-70.9959
-48.8131
-45.1231
-44.9313
-44.2782
-43.8206
-43.7281
-79.2963
-74.0231
-74.6953
-75.5734
-75.6594
-70.1279
-75.7728
-76.5484
-76.521
-76.0636
-76.5701
-76.8394
-83.5406
-81.2343
-79.4495
-76.9771
-76.4785
-79.838
-118.418
-113.528
-114.248
-115.013
-114.257
-110.705
-87.5853
-87.4102
-87.4184
-87.5872
-88.0472
-86.6061
-5.97284
-8.94328
-7.26835
-8.08734
-8.03836
-8.94805
-70.4514
-70.3189
-69.864
-69.7352
-69.7863
-68.9387
-86.326
-84.5128
-85.2503
-86.0981
-85.9747
-81.7959
45.6122
45.7055
49.5211
48.7324
46.8275
44.8243
-23.731
-19.168
-19.5419
-22.1601
-22.9353
-16.5399
-77.7559
-76.3547
-76.4751
-75.965
-76.1674
-75.4221
169.653
136.259
152.191
173.164
172.106
127.214
-27.4264
-30.5771
-29.4604
-29.3163
-31.1852
-31.4934
-67.4473
-68.234
-67.7679
-67.3703
-67.5052
-68.1921
62.7252
62.4577
58.8781
54.9613
57.0865
59.7824
-48.0837
-48.375
-50.6231
-49.8519
-48.3651
-47.6622
-66.8227
-66.8159
-66.8475
-66.0035
-65.8715
-65.8309
76.1181
75.0468
74.8739
75.0183
74.9303
75.0977
-47.4658
-47.6578
-47.9323
-47.7131
-47.2282
-46.9432
-66.6652
-66.6114
-66.5187
-66.0533
-66.0931
-66.0772
78.2431
78.1671
77.8767
78.006
78.2433
78.1055
-46.4676
-46.5446
-46.6185
-46.4659
-46.2937
-46.2054
-67.4475
-67.3568
-67.2067
-67.0193
-67.0609
-67.0794
78.3385
77.9905
77.924
77.929
77.7426
77.5673
-45.5657
-45.56
-45.4879
-45.4112
-45.3649
-45.3452
-67.2326
-67.2403
-67.2067
-67.0858
-67.0566
-67.0503
78.2515
78.2589
77.7796
78.1716
77.6496
76.9002
-42.7504
-42.8485
-42.7484
-42.7497
-42.7807
-42.8533
-67.8752
-67.9893
-67.854
-67.744
-67.7738
-67.8813
86.4278
82.9577
86.3197
87.6753
88.1296
83.0492
-44.5965
-44.4409
-43.9916
-44.2622
-44.331
-44.2013
-65.7261
-65.6989
-65.642
-65.5725
-65.5908
-65.726
-43.0893
-43.4274
-39.6898
-41.8617
-44.5279
-46.2187
-54.428
-54.6125
-54.334
-54.2954
-55.1746
-55.3189
-66.211
-66.5416
-66.1963
-66.6763
-67.0449
-66.8811
-43.3549
-42.7692
-40.7964
-42.5532
-45.1448
-47.0943
-55.1106
-55.1579
-55.3123
-55.7493
-56.374
-56.6605
-67.1868
-67.5164
-67.7083
-67.761
-68.1057
-67.8545
-44.6877
-44.7249
-44.0489
-46.0883
-49.0989
-49.152
-54.9204
-55.4149
-56.1847
-56.9907
-58.1587
-58.6361
-67.0762
-67.8134
-67.7691
-68.149
-68.2536
-67.8056
-45.6389
-49.2419
-50.9727
-51.5287
-57.9978
-54.792
-53.7892
-55.2139
-56.7126
-58.4294
-60.2327
-60.549
-67.2984
-68.2705
-68.4446
-68.3596
-67.9767
-67.3601
-50.1177
-55.892
-57.0265
-58.7674
-68.2431
-66.5576
-57.4099
-58.6681
-60.5158
-65.2834
-67.0395
-66.7099
-67.5143
-68.6993
-68.7281
-67.8225
-67.2475
-66.9698
-59.4904
-57.6558
-52.8498
-61.1398
-81.7202
-81.2353
-70.7114
-75.4623
-82.8956
-86.0502
-86.4736
-85.1577
-70.4036
-71.6127
-73.4063
-72.907
-70.9599
-69.7113
-84.0844
-95.7075
-88.2811
-80.0377
-87.9645
-77.6744
-80.8545
-90.4091
-104.614
-97.001
-91.5197
-85.6927
-72.2841
-72.5903
-72.3067
-73.2459
-72.9545
-72.7841
-52.5609
-65.4863
-37.4996
-27.487
-24.5167
-25.0293
-64.9753
-71.9308
-66.51
-61.6686
-60.1214
-58.9527
-70.6091
-72.0222
-75.3508
-73.675
-71.6553
-70.4852
-24.9133
-30.4462
-26.8882
-23.7772
-20.1923
-20.185
-45.9438
-49.5863
-49.4062
-49.2355
-47.3605
-49.0687
-65.8293
-66.1622
-65.3189
-65.6571
-64.9415
-64.8868
-21.672
-27.791
-32.898
-36.4853
-34.9826
-31.6123
-43.1066
-45.7572
-49.2382
-53.3413
-54.2955
-51.0534
-64.8561
-64.8402
-64.6092
-64.6916
-64.2234
-63.6795
-15.7751
-17.9367
-23.0579
-28.404
-31.4665
-24.8915
-48.4441
-48.5535
-49.1512
-50.3119
-49.8593
-48.3016
-65.6182
-65.9897
-65.9261
-64.3706
-62.3842
-61.4759
0.722159
-0.880912
-10.6352
-20.0398
-28.3443
-22.4032
-52.926
-53.2569
-55.1787
-54.2109
-53.0206
-53.4491
-65.4075
-65.1387
-65.8315
-64.1033
-64.1439
-64.5674
)
;

boundaryField
{
    seabed_topleft_surface
    {
        type            calculated;
        value           nonuniform List<scalar> 
72
(
11227.3
11223
11232.6
11218.4
11209.9
11233.9
11897.5
11886.7
11884.6
11888.9
11891.4
11884.7
13807.1
13806.2
13801.6
13800.9
13801.5
13801.6
15678.6
15680.7
15680.4
15680.8
15684.5
15685.4
17117.4
17122.4
17123.1
17120
17120.2
17124.8
18006.2
18007
18009.1
18007
18006.9
18009.3
18451.3
18446.9
18450
18452.2
18450
18454.6
18201.4
18199.3
18203.6
18200.6
18196.7
18213.9
17667.3
17661.3
17667.1
17671
17685.5
17684.5
16490.6
16499.4
16500.7
16510.4
16523.4
16520.5
15392.1
15385.9
15390.5
15403.8
15402.7
15391.7
15622
15617.3
15619.4
15620.1
15592.3
15610.8
)
;
    }
    seabed_topright_surface
    {
        type            calculated;
        value           nonuniform List<scalar> 
72
(
2089.88
2085.52
2060.37
2047.92
2064.76
2134.75
2030.49
2013.25
1989.79
1995.72
2040.62
2128.04
1969.4
1921.06
1977.9
2027.03
2021.13
2092.07
1985.12
1949.89
1755.89
1943.46
2026.98
2092.19
2004.51
1934.81
1741.05
1837.72
1940.73
1992.12
1701.99
1671.45
1665.24
1615.6
1550.65
1584.17
1394.31
1301.51
1186.1
914.975
936.232
1098.44
879.02
838.577
719.37
495.943
542.745
693.144
475.423
585.697
493.093
385.053
343.677
454.915
267.74
282.232
386.616
313.581
228.901
386.4
270.93
226.1
325.502
411.425
387.736
431.75
292.558
238.784
332.322
446.476
460.849
462.903
)
;
    }
    breakwater_top_surface
    {
        type            calculated;
        value           nonuniform List<scalar> 
36
(
183.168
183.306
180.363
175.083
175.025
177.274
204.432
202.205
201.459
200.484
199.446
199.652
208.524
208.337
207.744
207.751
207.927
207.768
207.937
207.192
206.976
206.884
206.468
206.066
198.93
199.919
198.253
198.396
197.58
198.104
207.157
204.19
206.996
207.869
208.418
203.857
)
;
    }
    breakwater_left_surface
    {
        type            calculated;
        value           nonuniform List<scalar> 
24
(
12310.8
12307.5
12310.5
12309.9
12287.8
12303
10283.7
10227.7
10191.7
10233.5
10228.7
10116.4
1752.95
2211.75
2047.92
1729.62
1750.7
2263.53
479.86
516.182
500.9
475.421
468.04
534.667
)
;
    }
    breakwater_right_surface
    {
        type            calculated;
        value           nonuniform List<scalar> 
24
(
213.994
204.7
228.966
275.127
284.968
284.436
45.2793
48.7151
56.7356
68.3882
73.5292
68.6917
19.5039
5.90686
-4.74917
-1.70208
1.48435
-0.585512
-0.558899
-14.9125
-30.9952
-37.1332
-53.4348
-28.6935
)
;
    }
    water_front_surface
    {
        type            calculated;
        value           nonuniform List<scalar> 
186
(
7544.94
7983.77
9185.33
10886.5
12325.2
13214
13694.5
13942.4
13757.7
12670.8
11822.7
12299.4
1505.48
1568.09
2119.15
3169.63
4256.13
4879.03
5219.94
5396.68
5656.9
6390.89
8062.12
10276.1
-41.8876
-48.4813
-29.1692
25.7756
104.734
229.346
361.757
466.665
616.152
1380.16
2374.69
1750.26
-32.2323
-37.757
-31.3729
-18.0743
-12.6721
-10.128
-5.86248
-16.3475
-29.2044
104.855
412.872
479.685
1614.73
1555.1
1493.86
1509.65
1529.18
1414.6
1106.72
595.461
321.66
208.671
201.352
213.724
614.144
467.919
466.28
577.262
575.505
530.832
353.941
182.394
89.5352
49.548
41.372
45.1466
53.2654
6.46647
8.45226
25.0437
54.5398
74.6089
86.7972
26.2911
12.7281
12.879
20.0762
19.4771
-35.7736
-34.6376
-37.1643
-43.0308
-40.856
-44.4105
-42.1582
-26.4564
-6.32802
-7.93855
2.73004
-0.694556
-45.1798
-58.0676
-70.9474
-44.2176
-57.271
-72.4406
-37.1155
-52.7381
-66.0288
-26.8628
-49.5229
-65.0197
-25.0565
-47.6363
-64.9848
-27.592
-49.7126
-67.1928
-30.5803
-55.4388
-70.6036
-48.8131
-79.2963
-75.7728
-83.5406
-118.418
-87.5853
-5.97284
-70.4514
-86.326
45.6122
-23.731
-77.7559
169.653
-27.4264
-67.4473
62.7252
-48.0837
-66.8227
76.1181
-47.4658
-66.6652
78.2431
-46.4676
-67.4475
78.3385
-45.5657
-67.2326
78.2515
-42.7504
-67.8752
86.4278
-44.5965
-65.7261
-43.0893
-54.428
-66.211
-43.3549
-55.1106
-67.1868
-44.6877
-54.9204
-67.0762
-45.6389
-53.7892
-67.2984
-50.1177
-57.4099
-67.5143
-59.4904
-70.7114
-70.4036
-84.0844
-80.8545
-72.2841
-52.5609
-64.9753
-70.6091
-24.9133
-45.9438
-65.8293
-21.672
-43.1066
-64.8561
-15.7751
-48.4441
-65.6182
0.722159
-52.926
-65.4075
)
;
    }
    water_back_surface
    {
        type            calculated;
        value           nonuniform List<scalar> 
186
(
7540.23
7968.38
9178.2
10893.3
12332.6
13217.1
13697.8
13947.4
13784.6
12704.1
11836.1
12291.6
1503.1
1552.54
2108.31
3171.93
4259.57
4880.93
5223.87
5409.78
5707.01
6410.45
8025.45
10109.1
-41.216
-49.4206
-28.9688
26.472
106.59
233.946
364.387
474.402
625.574
1347.02
2491.04
2260.56
-32.0693
-38.4174
-31.6946
-18.7013
-13.1421
-10.2433
-5.38247
-16.1821
-32.8038
93.1763
307.864
534.504
1659.26
1652.43
1616.41
1616.54
1605.06
1331.38
842.515
483.7
274.785
206.36
252.2
283.822
680.606
624.206
613.98
670.508
782.078
536.09
294.787
110.202
43.2003
33.9063
77.8595
68.6003
170.849
58.8297
42.4665
85.7064
273.454
245.376
88.7962
48.5545
25.8184
20.2602
18.789
-0.627107
-36.9621
-35.2981
-34.6366
-41.0917
-44.7257
8.05189
1.68293
17.5949
4.09397
-8.21807
-7.66538
-28.8323
-45.0479
-58.2818
-71.5942
-44.5939
-57.1328
-72.1315
-36.9367
-52.7806
-66.0877
-26.2466
-49.3589
-64.9133
-24.6933
-47.5789
-64.9473
-27.0789
-49.2558
-67.2021
-29.4035
-53.9339
-70.9959
-43.7281
-70.1279
-76.8394
-79.838
-110.705
-86.6061
-8.94805
-68.9387
-81.7959
44.8243
-16.5399
-75.4221
127.214
-31.4934
-68.1921
59.7824
-47.6622
-65.8309
75.0977
-46.9432
-66.0772
78.1055
-46.2054
-67.0794
77.5673
-45.3452
-67.0503
76.9002
-42.8533
-67.8813
83.0492
-44.2013
-65.726
-46.2187
-55.3189
-66.8811
-47.0943
-56.6605
-67.8545
-49.152
-58.6361
-67.8056
-54.792
-60.549
-67.3601
-66.5576
-66.7099
-66.9698
-81.2353
-85.1577
-69.7113
-77.6744
-85.6927
-72.7841
-25.0293
-58.9527
-70.4852
-20.185
-49.0687
-64.8868
-31.6123
-51.0534
-63.6795
-24.8915
-48.3016
-61.4759
-22.4032
-53.4491
-64.5674
)
;
    }
    water_left_surface
    {
        type            calculated;
        value           nonuniform List<scalar> 
42
(
7557.55
7550.07
7552.1
7554.83
7554.81
7552.88
1510.58
1502.52
1501.19
1513.58
1506.58
1508.2
-41.8714
-41.8109
-41.6013
-41.1386
-40.8435
-41.1998
-32.2154
-31.9378
-31.9854
-31.8387
-31.9207
-32.0532
-45.1798
-45.2633
-45.3774
-44.979
-45.0112
-45.0479
-58.0676
-57.8152
-57.9003
-57.842
-57.8929
-58.2818
-70.9474
-70.6078
-70.368
-71.1997
-71.2288
-71.5942
)
;
    }
    water_right_surface
    {
        type            calculated;
        value           nonuniform List<scalar> 
42
(
1616.36
1611.76
1586.7
1574.09
1602.16
1660.88
615.738
605.165
405.753
529.062
591.243
682.201
53.6008
28.9771
1.71411
14.2359
73.7869
171.582
-35.7578
-34.7372
-34.0548
-35.3414
-36.6178
-36.9463
-43.0893
-43.4274
-39.6898
-41.8617
-44.5279
-46.2187
-54.428
-54.6125
-54.334
-54.2954
-55.1746
-55.3189
-66.211
-66.5416
-66.1963
-66.6763
-67.0449
-66.8811
)
;
    }
    water_top_surface
    {
        type            calculated;
        value           nonuniform List<scalar> 
180
(
-82.2271
-76.8413
-74.3282
-81.4245
-81.4566
-81.2742
-78.9787
-78.8333
-78.5463
-78.8505
-79.4571
-78.1784
-73.419
-73.5213
-73.5384
-73.4601
-73.4441
-73.5456
-73.9406
-73.9863
-73.962
-73.9405
-73.9575
-73.8661
-75.2872
-75.423
-75.3892
-75.3408
-75.2854
-75.3783
-78.6351
-78.8828
-78.7712
-78.828
-78.7583
-78.7116
-84.156
-85.2301
-84.8559
-84.7088
-83.8577
-84.6773
-77.9187
-91.291
-89.5375
-82.3135
-79.2969
-93.7019
-69.238
-69.5868
-69.1996
-69.0659
-68.9832
-72.0487
-72.9248
-69.667
-70.4086
-72.6244
-71.872
-69.5487
-71.0177
-69.7133
-69.5515
-70.4766
-69.6325
-69.6398
-71.065
-70.758
-71.5942
-71.2568
-71.8399
-70.2346
-68.67
-68.7366
-68.6991
-68.6783
-68.67
-68.67
-68.6778
-68.6761
-68.6704
-68.6701
-68.67
-68.67
-68.7091
-68.7132
-68.6983
-68.6901
-68.6885
-68.6862
-68.7714
-68.7729
-68.7621
-68.7543
-68.7514
-68.7496
-68.67
-68.67
-68.67
-68.67
-68.67
-68.6701
-68.8678
-68.9239
-68.8624
-68.8795
-68.9572
-68.9059
-70.6363
-71.6083
-69.3282
-71.2017
-72.8258
-71.4417
-72.9898
-73.3527
-73.8307
-74.1282
-74.3126
-73.272
-71.7893
-72.7027
-73.1179
-74.0584
-74.0242
-72.9706
-71.4539
-72.6811
-73.8428
-74.5826
-73.3268
-72.2246
-71.2608
-74.0282
-75.6429
-74.9764
-72.0018
-70.8221
-69.7321
-73.7961
-76.55
-72.2312
-69.5201
-68.7397
-68.6798
-68.7293
-68.8895
-68.6874
-68.8164
-68.6785
-68.7647
-68.8864
-86.6673
-73.6618
-68.6742
-68.6726
-69.4821
-68.956
-68.8589
-68.6764
-68.6727
-68.6705
-69.8413
-69.3309
-68.762
-68.6795
-68.6705
-68.6705
-70.9455
-70.6434
-69.0801
-68.6803
-68.6705
-68.7015
-69.1782
-69.0082
-68.6937
-68.6714
-68.6703
-68.6703
)
;
    }
}


// ************************************************************************* //
