/*--------------------------------*- C++ -*----------------------------------*\
| =========                 |                                                 |
| \\      /  F ield         | OpenFOAM: The Open Source CFD Toolbox           |
|  \\    /   O peration     | Version:  v1612+                                |
|   \\  /    A nd           | Web:      www.OpenFOAM.com                      |
|    \\/     M anipulation  |                                                 |
\*---------------------------------------------------------------------------*/
FoamFile
{
    version     2.0;
    format      ascii;
    class       surfaceScalarField;
    location    "3.2";
    object      alphaPhi;
}
// * * * * * * * * * * * * * * * * * * * * * * * * * * * * * * * * * * * * * //

dimensions      [0 3 -1 0 0 0 0];

internalField   nonuniform List<scalar> 
2916
(
-1.22782e-06
0.345757
-0.17671
4.78439e-06
0.345754
-0.176713
3.72314e-06
0.345756
-0.176708
-8.03395e-08
0.345758
-0.176709
1.47981e-06
0.345757
-0.176712
0.345752
-0.176705
2.44405e-06
0.679862
-0.164879
3.95566e-06
0.679864
-0.164881
3.62498e-06
0.679865
-0.164879
-1.35626e-07
0.679866
-0.164876
-2.85859e-06
0.679865
-0.164877
0.679858
-0.164881
4.00438e-06
0.920746
-0.0929335
3.978e-06
0.92075
-0.0929334
3.55099e-06
0.920751
-0.0929327
9.55562e-07
0.920752
-0.0929308
-2.28648e-06
0.920751
-0.0929305
0.920743
-0.0929331
3.35753e-06
1.11442
-0.0703554
3.8011e-06
1.11443
-0.0703553
3.40654e-06
1.11443
-0.0703547
1.40892e-06
1.11443
-0.0703533
-9.25989e-07
1.11443
-0.0703528
1.11442
-0.0703543
1.77676e-06
1.27778
-0.06402
2.7391e-06
1.27779
-0.0640204
2.19674e-06
1.27779
-0.0640196
4.56e-07
1.27779
-0.0640184
-3.53337e-07
1.27779
-0.0640181
1.27778
-0.0640187
7.60886e-08
1.41636
-0.0625526
1.00131e-06
1.41637
-0.0625539
2.46504e-07
1.41637
-0.0625529
-8.32158e-07
1.41637
-0.0625521
5.63272e-08
1.41637
-0.0625524
1.41635
-0.0625513
-3.09702e-06
1.52483
-0.0561086
-1.02616e-06
1.52485
-0.0561109
-2.08667e-06
1.52484
-0.0561095
-2.66464e-06
1.52484
-0.0561089
1.64146e-06
1.52483
-0.0561104
1.52482
-0.0561071
-7.96866e-06
1.51832
0.0140412
-2.02691e-06
1.51834
0.0140298
-3.77772e-06
1.51833
0.014035
-4.51806e-06
1.51833
0.0140349
3.71556e-06
1.51833
0.0140272
1.5183
0.0140422
-4.58108e-06
1.2168
0.301526
-1.66069e-06
1.21683
0.301505
-4.66194e-06
1.21683
0.30151
-5.74075e-06
1.21683
0.301507
-3.38798e-06
1.21683
0.301494
1.21678
0.301519
-1.49359e-06
0.577581
0.639225
-1.14472e-06
0.577618
0.639217
-5.25493e-06
0.577619
0.63922
-7.47064e-06
0.577615
0.639218
-8.50049e-06
0.577631
0.639208
0.577559
0.639221
1.05682e-05
-0.000681611
0.578257
2.60568e-06
-0.000646399
0.578277
-9.52882e-07
-0.000643523
0.57827
-4.0626e-06
-0.000644464
0.578267
-1.29297e-05
-0.000622749
0.578267
-0.000698412
0.578248
-2.3458e-05
-0.000677649
-2.05882e-05
-0.000666522
-1.34424e-05
-0.000669132
-3.34285e-06
-0.000671733
2.22344e-05
-0.000665073
-0.000696253
-1.31675e-06
0.0992195
-1.42651e-06
-3.87422e-07
0.0992185
-1.42655e-06
9.16312e-07
0.0992196
-1.42678e-06
3.33384e-06
0.099217
-1.427e-06
3.99191e-06
0.0992156
-1.427e-06
0.0992229
-1.42694e-06
-4.19497e-08
0.0829465
-6.69349e-06
-5.7614e-07
0.0829455
-6.69332e-06
2.01362e-06
0.0829452
-6.69357e-06
2.83215e-06
0.0829431
-6.69348e-06
-1.63582e-07
0.0829428
-6.69297e-06
0.0829477
-6.69367e-06
1.43676e-06
0.113715
-1.60586e-07
6.86893e-08
0.113715
-1.60617e-07
1.82505e-06
0.113713
-1.60601e-07
2.00687e-06
0.113711
-1.606e-07
-1.93831e-06
0.113712
-1.60628e-07
0.113714
-1.6059e-07
2.66466e-06
0.186284
-2.3856e-07
4.63568e-07
0.186285
-2.38523e-07
2.19671e-06
0.186281
-2.38534e-07
2.2621e-06
0.18628
-2.38474e-07
-2.74745e-06
0.186282
-2.38434e-07
0.186281
-2.38574e-07
4.38506e-06
0.305589
-2.69064e-07
7.93278e-07
0.305593
-2.69059e-07
2.59468e-06
0.305586
-2.69062e-07
2.95679e-06
0.305586
-2.69045e-07
-3.30851e-06
0.305591
-2.69023e-07
0.305585
-2.69029e-07
6.18907e-06
0.490941
-2.63675e-08
8.39639e-07
0.490948
-2.63695e-08
3.02166e-06
0.490938
-2.63681e-08
4.08485e-06
0.490939
-2.63656e-08
-3.36568e-06
0.490947
-2.63631e-08
0.490939
-2.63574e-08
8.37099e-06
0.76637
-2.65865e-09
8.75289e-07
0.766385
-2.65878e-09
3.79533e-06
0.76637
-2.65863e-09
5.80052e-06
0.766371
-2.65836e-09
-3.14439e-06
0.766385
-2.65811e-09
0.766374
-2.65763e-09
1.00706e-05
1.06404
-1.87308e-08
2.37121e-06
1.06408
-1.87318e-08
5.59534e-06
1.06406
-1.87307e-08
7.5736e-06
1.06406
-1.87346e-08
-1.47351e-06
1.06408
-1.87387e-08
1.06406
-1.87318e-08
1.93344e-05
1.39808
0.0525173
7.1866e-06
1.39816
0.0525063
9.07088e-06
1.39812
0.0525088
9.80535e-06
1.39812
0.0525086
-2.74417e-06
1.39815
0.0525074
1.39811
0.0525134
4.05307e-05
1.32707
0.465312
1.80202e-05
1.32721
0.46528
1.01579e-05
1.32717
0.465285
2.97389e-06
1.32717
0.465283
-1.92851e-05
1.3272
0.465275
1.32711
0.465301
4.30941e-05
0.676966
1.22832
1.43111e-05
0.677137
1.22839
3.90651e-06
0.677096
1.22836
-4.84492e-06
0.677096
1.22835
-2.79598e-05
0.677126
1.22837
0.677013
1.22833
-7.15201e-05
0.667731
-3.03264e-05
0.667802
-1.17446e-05
0.667782
3.4991e-06
0.667781
4.65028e-05
0.667804
0.667736
-4.37678e-12
2.32323e-08
-1.42993e-06
-2.7166e-12
2.32318e-08
-1.42998e-06
-9.82748e-13
2.32335e-08
-1.43021e-06
1.78684e-12
2.32347e-08
-1.43043e-06
4.83785e-12
2.32356e-08
-1.43043e-06
2.32387e-08
-1.43037e-06
-1.03504e-11
1.04986e-07
-6.76567e-06
-5.08236e-12
1.04982e-07
-6.76551e-06
-2.87436e-13
1.04983e-07
-6.76576e-06
5.34718e-12
1.04979e-07
-6.76567e-06
1.19445e-11
1.04975e-07
-6.76516e-06
1.04989e-07
-6.76584e-06
-7.56709e-13
1.36106e-08
-6.12911e-08
-3.23227e-13
1.36107e-08
-6.13275e-08
-1.02497e-14
1.36102e-08
-6.13094e-08
3.2004e-13
1.3609e-08
-6.13118e-08
8.36084e-13
1.36093e-08
-6.13454e-08
1.36103e-08
-6.12923e-08
-5.92529e-13
1.45281e-08
-2.35743e-07
-2.30704e-13
1.45265e-08
-2.35704e-07
3.04362e-14
1.45267e-08
-2.35716e-07
2.87128e-13
1.45242e-08
-2.35655e-07
7.21936e-13
1.45225e-08
-2.35614e-07
1.45278e-08
-2.35757e-07
-5.04536e-13
1.58109e-08
-2.7007e-07
-2.33781e-13
1.58106e-08
-2.70067e-07
-1.16232e-14
1.58106e-08
-2.7007e-07
2.21745e-13
1.58097e-08
-2.70054e-07
5.57212e-13
1.58087e-08
-2.70033e-07
1.5809e-08
-2.70033e-07
-7.79161e-14
2.99276e-09
-1.35081e-08
-4.5463e-14
2.99291e-09
-1.35107e-08
-1.29014e-14
2.99273e-09
-1.35092e-08
2.49031e-14
2.99243e-09
-1.35073e-08
6.95693e-14
2.99216e-09
-1.35056e-08
2.9916e-09
-1.34988e-08
-6.55922e-15
3.63073e-10
-2.89584e-11
-5.93252e-15
3.63083e-10
-2.89557e-11
-3.51045e-15
3.63059e-10
-2.89553e-11
1.68691e-16
3.63022e-10
-2.89515e-11
5.30563e-15
3.62988e-10
-2.89476e-11
3.62931e-10
-2.89509e-11
-9.65121e-16
-1.8272e-08
-2.20761e-11
1.23624e-15
-1.8273e-08
-2.20621e-11
1.76313e-15
-1.82719e-08
-2.2064e-11
1.73129e-15
-1.82759e-08
-2.20714e-11
-9.27254e-16
-1.82801e-08
-2.20751e-11
-1.82732e-08
-2.2078e-11
5.56036e-07
0.0493169
0.00319998
1.73684e-07
0.049307
0.00319983
6.92972e-08
0.0493093
0.00319976
-4.08495e-08
0.0493091
0.00319973
-3.10977e-07
0.0493081
0.00319973
0.0493132
0.00320003
4.28674e-06
0.340725
0.0518253
2.4885e-06
0.340732
0.0518177
1.33436e-06
0.340725
0.0518183
3.06792e-07
0.340725
0.0518187
-2.00645e-06
0.340727
0.0518161
0.340729
0.0518247
0.000124108
0.547158
0.709712
3.42105e-05
0.547436
0.709683
6.87822e-06
0.547344
0.709681
-5.40289e-06
0.547346
0.709675
-4.88134e-05
0.547408
0.709662
0.547235
0.709708
-0.000115488
1.16049
-2.28674e-05
1.16062
-9.55907e-06
1.1606
1.31177e-05
1.16058
9.80866e-05
1.16058
1.16058
-2.29151e-11
-7.75263e-07
-5.23773e-07
-5.73809e-12
-7.75224e-07
-5.23734e-07
1.55992e-12
-7.75281e-07
-5.23887e-07
2.64638e-12
-7.75299e-07
-5.24056e-07
1.30752e-11
-7.75251e-07
-5.24083e-07
-7.7538e-07
-5.24065e-07
-4.36611e-11
-6.20399e-07
-4.22655e-06
1.36488e-11
-6.20318e-07
-4.22656e-06
-7.70262e-12
-6.20354e-07
-4.22673e-06
-6.65113e-12
-6.20358e-07
-4.22668e-06
6.91178e-11
-6.20304e-07
-4.22631e-06
-6.20468e-07
-4.22667e-06
3.75273e-13
-1.24981e-07
-6.88219e-07
1.15617e-12
-1.24929e-07
-6.88328e-07
2.49948e-13
-1.24933e-07
-6.88308e-07
-1.06723e-13
-1.24893e-07
-6.88365e-07
1.22674e-12
-1.24868e-07
-6.88428e-07
-1.24999e-07
-6.88259e-07
-4.46132e-12
-9.42295e-08
-1.56007e-07
-1.52849e-12
-9.4207e-08
-1.55944e-07
-3.25236e-12
-9.42054e-08
-1.55959e-07
-2.65164e-12
-9.41972e-08
-1.55882e-07
5.27726e-12
-9.41919e-08
-1.55851e-07
-9.42212e-08
-1.56069e-07
-1.09907e-11
-3.95794e-08
-1.93484e-07
-5.69948e-12
-3.95712e-08
-1.93481e-07
-6.10496e-12
-3.95708e-08
-1.93478e-07
-4.27395e-12
-3.95666e-08
-1.93461e-07
7.13568e-12
-3.95614e-08
-1.93453e-07
-3.95686e-08
-1.9348e-07
-8.08901e-13
-4.0448e-10
-6.63587e-08
-3.99891e-13
-4.04437e-10
-6.63521e-08
-3.48774e-13
-4.04401e-10
-6.63495e-08
-2.03959e-13
-4.04327e-10
-6.63416e-08
5.13894e-13
-4.04263e-10
-6.63335e-08
-4.04294e-10
-6.63352e-08
-1.40129e-15
-2.01033e-13
-4.35805e-10
-5.73026e-16
-2.01279e-13
-4.35761e-10
-2.92617e-16
-2.01325e-13
-4.35723e-10
1.64599e-16
-2.01459e-13
-4.35644e-10
1.99782e-15
-2.01672e-13
-4.35577e-10
-2.00868e-13
-4.35611e-10
3.23635e-18
2.60562e-11
-5.1403e-11
7.05776e-17
2.60716e-11
-5.14017e-11
1.17393e-16
2.60774e-11
-5.14085e-11
1.11211e-16
2.60912e-11
-5.14288e-11
2.76688e-16
2.61085e-11
-5.14482e-11
2.60597e-11
-5.14058e-11
2.93775e-08
0.00297638
0.000224092
2.93104e-08
0.00297627
0.000224085
2.53794e-08
0.00297621
0.000224085
1.10091e-08
0.00297618
0.00022409
-3.23649e-08
0.00297619
0.000224101
0.00297643
0.000224094
5.18523e-07
0.0484317
0.00624776
2.50909e-07
0.0484252
0.0062473
2.16151e-07
0.0484255
0.00624736
1.35914e-07
0.0484257
0.00624749
7.05451e-10
0.0484232
0.00624751
0.0484317
0.0062477
3.6139e-05
0.157834
0.191308
1.24182e-05
0.157948
0.191323
1.47472e-06
0.157907
0.191316
-1.04358e-06
0.157881
0.191326
-8.57348e-06
0.157863
0.19136
0.157914
0.191287
-5.42836e-05
1.25474
8.39811e-06
1.25483
2.99191e-05
1.25482
2.37554e-05
1.25481
-4.15294e-05
1.25485
1.2548
-8.26521e-59
-9.3111e-52
7.13717e-56
-1.01291e-58
-9.71743e-52
7.45246e-56
-1.06601e-58
-9.90871e-52
7.60344e-56
-9.77095e-59
-1.0098e-51
7.75176e-56
-6.21243e-59
-1.03921e-51
7.98376e-56
-9.90972e-52
7.63058e-56
-1.05129e-54
-1.1328e-47
9.80223e-52
-1.55989e-54
-1.18039e-47
1.02273e-51
-1.81679e-54
-1.20212e-47
1.04252e-51
-1.75828e-54
-1.22403e-47
1.06206e-51
-1.12556e-54
-1.25789e-47
1.09249e-51
-1.19485e-47
1.04104e-51
-5.51662e-51
-6.17251e-44
6.46554e-48
-1.12447e-50
-6.4121e-44
6.74052e-48
-1.47203e-50
-6.51639e-44
6.86452e-48
-1.49312e-50
-6.62691e-44
6.98822e-48
-9.80812e-51
-6.79632e-44
7.17892e-48
-6.41698e-44
6.81519e-48
-3.73778e-47
-1.95235e-40
2.59918e-44
-7.49756e-47
-2.01507e-40
2.70275e-44
-9.69404e-47
-2.0397e-40
2.74721e-44
-9.92996e-47
-2.06993e-40
2.79341e-44
-6.78059e-47
-2.11601e-40
2.8635e-44
-1.97765e-40
2.701e-44
-2.64714e-43
-4.04034e-37
6.81452e-41
-4.19828e-43
-4.11512e-37
7.03384e-41
-4.82587e-43
-4.134e-37
7.11721e-41
-4.64729e-43
-4.18006e-37
7.21805e-41
-3.07761e-43
-4.25147e-37
7.37053e-41
-3.90421e-37
6.87434e-41
-1.10669e-39
-6.29913e-34
1.19487e-37
-1.43643e-39
-6.27439e-34
1.21114e-37
-1.42308e-39
-6.22734e-34
1.21311e-37
-1.22223e-39
-6.26346e-34
1.22353e-37
-7.38456e-40
-6.32921e-34
1.24097e-37
-5.66436e-34
1.13518e-37
-2.34587e-36
-8.83164e-31
1.61231e-34
-2.37558e-36
-8.6071e-31
1.58308e-34
-1.75113e-36
-8.44648e-31
1.55977e-34
-1.03029e-36
-8.45759e-31
1.56109e-34
-3.81315e-37
-8.51213e-31
1.57131e-34
-7.4579e-31
1.40095e-34
-2.94577e-33
-1.14486e-27
1.67171e-31
-1.34483e-33
-1.1058e-27
1.57963e-31
9.37849e-34
-1.08107e-27
1.5319e-31
2.47887e-33
-1.08155e-27
1.52737e-31
2.47659e-33
-1.0898e-27
1.53851e-31
-9.50818e-28
1.35617e-31
-5.49151e-32
-1.2534e-24
1.88051e-28
3.99832e-30
-1.20902e-24
1.75323e-28
7.75798e-30
-1.18295e-24
1.70918e-28
9.65777e-30
-1.18521e-24
1.73011e-28
7.99513e-30
-1.19902e-24
1.78053e-28
-1.05012e-24
1.60181e-28
4.79292e-27
-8.43907e-22
-2.38725e-22
9.54528e-27
-8.07971e-22
-2.37344e-22
1.24844e-26
-7.94946e-22
-2.29241e-22
1.28996e-26
-8.05155e-22
-2.22039e-22
9.48878e-27
-8.29082e-22
-2.14565e-22
-7.4032e-22
-1.78418e-22
5.98298e-24
-4.65999e-19
-2.21152e-19
7.79754e-24
-4.50956e-19
-2.08071e-19
8.00043e-24
-4.46976e-19
-2.01998e-19
6.6788e-24
-4.56461e-19
-2.0054e-19
4.13402e-24
-4.75947e-19
-2.03976e-19
-4.25345e-19
-1.86175e-19
1.28016e-22
-3.7235e-16
-6.65973e-22
-3.61251e-16
-1.46787e-21
-3.58097e-16
-1.92333e-21
-3.65501e-16
-1.28253e-21
-3.84121e-16
-3.44101e-16
-1.06868e-56
-1.3411e-49
1.90244e-53
-1.26579e-56
-1.38633e-49
1.96554e-53
-1.25897e-56
-1.4046e-49
1.99154e-53
-1.06582e-56
-1.42482e-49
2.0206e-53
-5.78454e-57
-1.46469e-49
2.07778e-53
-1.40651e-49
1.99637e-53
-1.73951e-52
-1.82305e-45
2.89436e-49
-2.33421e-52
-1.88458e-45
2.99019e-49
-2.43586e-52
-1.90862e-45
3.02838e-49
-2.10078e-52
-1.93503e-45
3.07085e-49
-1.15997e-52
-1.98778e-45
3.15548e-49
-1.9067e-45
3.02839e-49
-2.06601e-48
-1.10299e-41
2.05317e-45
-2.90052e-48
-1.14047e-41
2.12199e-45
-3.01603e-48
-1.15449e-41
2.14843e-45
-2.62775e-48
-1.16968e-41
2.17744e-45
-1.56628e-48
-1.20048e-41
2.23588e-45
-1.14987e-41
2.14343e-45
-1.71739e-44
-3.81495e-38
8.67339e-42
-2.31377e-44
-3.94649e-38
8.9674e-42
-2.33218e-44
-3.99265e-38
9.075e-42
-2.01928e-44
-4.04151e-38
9.19068e-42
-1.2572e-44
-4.14257e-38
9.42699e-42
-3.95965e-38
9.0204e-42
-8.65975e-41
-7.99483e-35
2.34601e-38
-1.03088e-40
-8.27757e-35
2.4232e-38
-9.31522e-41
-8.3669e-35
2.44878e-38
-7.35362e-41
-8.45724e-35
2.47601e-38
-4.30551e-41
-8.65019e-35
2.53435e-38
-8.23811e-35
2.41706e-38
-2.65472e-37
-9.63077e-32
3.89553e-35
-2.17045e-37
-9.98603e-32
4.00364e-35
-1.18543e-37
-1.00713e-31
4.03068e-35
-4.30291e-38
-1.01467e-31
4.06191e-35
-8.86808e-39
-1.03272e-31
4.14207e-35
-9.74925e-32
3.9297e-35
7.95054e-35
-6.24914e-29
3.67111e-32
3.24423e-34
-6.45459e-29
3.71941e-32
5.50041e-34
-6.41125e-29
3.71326e-32
6.3124e-34
-6.35154e-29
3.71958e-32
4.92256e-34
-6.32502e-29
3.77214e-32
-5.73764e-29
3.55304e-32
4.60443e-31
-7.51825e-26
1.47455e-29
1.00131e-30
-7.50713e-26
1.41789e-29
1.34838e-30
-7.16417e-26
1.3721e-29
1.38269e-30
-6.8532e-26
1.35116e-29
9.96426e-31
-6.5636e-26
1.35781e-29
-5.4592e-26
1.26429e-29
2.04197e-27
-3.03941e-22
9.03424e-27
3.15897e-27
-2.99915e-22
7.72786e-27
3.27223e-27
-2.86795e-22
7.40031e-27
2.7469e-27
-2.76682e-22
7.69725e-27
1.6602e-27
-2.68669e-22
8.44856e-27
-2.26458e-22
8.34201e-27
2.05569e-23
3.56489e-23
-2.29772e-18
2.70399e-23
4.0546e-23
-2.2501e-18
2.80728e-23
4.80854e-23
-2.20774e-18
2.48363e-23
5.86458e-23
-2.20405e-18
1.53738e-23
7.27989e-23
-2.23471e-18
7.74964e-23
-1.9792e-18
3.40672e-21
6.0995e-20
-1.74435e-16
2.79563e-21
6.21769e-20
-1.75917e-16
7.8212e-22
6.4461e-20
-1.76232e-16
-3.1899e-22
6.80925e-20
-1.75584e-16
-5.64775e-22
7.3121e-20
-1.75486e-16
7.0068e-20
-1.78394e-16
-9.22458e-19
-6.73709e-16
-3.05646e-18
-6.54618e-16
-4.81049e-18
-6.49487e-16
-4.80397e-18
-6.61854e-16
-2.3206e-18
-6.91732e-16
-6.2993e-16
-1.87492e-52
-7.20145e-45
1.18745e-48
-2.29108e-52
-7.10205e-45
1.17172e-48
-2.14924e-52
-7.07014e-45
1.16679e-48
-1.47525e-52
-7.20017e-45
1.18836e-48
-4.95095e-53
-7.38373e-45
1.21825e-48
-6.7087e-45
1.10787e-48
-4.51984e-48
-1.38683e-40
2.46053e-44
-5.58088e-48
-1.36634e-40
2.42565e-44
-4.87893e-48
-1.35954e-40
2.41433e-44
-2.92604e-48
-1.38419e-40
2.45842e-44
-5.85253e-49
-1.42001e-40
2.52093e-44
-1.28914e-40
2.29041e-44
-8.34969e-44
-1.24023e-36
2.51863e-40
-9.79408e-44
-1.22073e-36
2.48108e-40
-8.37289e-44
-1.21401e-36
2.46856e-40
-5.58151e-44
-1.23556e-36
2.51314e-40
-2.17631e-44
-1.26807e-36
2.57805e-40
-1.15034e-36
2.34039e-40
-1.02276e-39
-6.49439e-33
1.58338e-36
-1.10944e-39
-6.3862e-33
1.55828e-36
-9.08311e-40
-6.34737e-33
1.5496e-36
-6.29612e-40
-6.45649e-33
1.57697e-36
-3.01306e-40
-6.62972e-33
1.61826e-36
-6.01061e-33
1.46762e-36
-7.41998e-36
-2.11953e-29
6.35413e-33
-6.72249e-36
-2.08215e-29
6.24115e-33
-3.96079e-36
-2.06821e-29
6.19964e-33
-1.33459e-36
-2.10225e-29
6.30326e-33
2.47242e-37
-2.15999e-29
6.46866e-33
-1.95773e-29
5.85972e-33
-1.95669e-32
-4.40452e-26
1.63462e-29
-3.75152e-33
-4.32215e-26
1.59926e-29
1.65961e-32
-4.29061e-26
1.58536e-29
2.92248e-32
-4.3579e-26
1.60928e-29
2.70752e-32
-4.48192e-26
1.6516e-29
-4.06364e-26
1.49544e-29
1.6644e-29
-5.83417e-23
2.75937e-26
9.08303e-29
-5.71937e-23
2.68572e-26
1.56942e-28
-5.67595e-23
2.65704e-26
1.84826e-28
-5.7624e-23
2.69458e-26
1.46376e-28
-5.93695e-23
2.77052e-26
-5.38995e-23
2.51509e-26
1.67484e-25
-4.84604e-20
2.8213e-23
3.01361e-25
-4.74943e-20
2.73836e-23
3.70245e-25
-4.71481e-20
2.71083e-23
3.63813e-25
-4.78742e-20
2.75463e-23
2.55364e-25
-4.94712e-20
2.84882e-23
-4.50134e-20
2.60475e-23
1.98066e-22
-2.44554e-17
2.03078e-20
3.02625e-22
-2.39956e-17
1.98167e-20
3.36561e-22
-2.38448e-17
1.97236e-20
3.06338e-22
-2.422e-17
2.01491e-20
1.95988e-22
-2.51149e-17
2.10125e-20
-2.29327e-17
1.93524e-20
2.9329e-20
-4.33218e-15
2.87939e-17
2.38116e-20
-4.26444e-15
2.87795e-17
7.80434e-21
-4.24879e-15
2.8932e-17
-9.16161e-21
-4.34731e-15
2.93401e-17
-1.23697e-20
-4.56257e-15
3.03249e-17
-4.09405e-15
2.89107e-17
-1.24977e-17
-1.41845e-12
2.04504e-13
-2.58509e-17
-1.39613e-12
1.98348e-13
-3.53171e-17
-1.38982e-12
1.96001e-13
-3.98502e-17
-1.41728e-12
1.95317e-13
-2.31902e-17
-1.49045e-12
1.98503e-13
-1.3446e-12
1.90857e-13
-7.58695e-15
-2.95051e-11
-1.0092e-14
-2.93008e-11
-1.01223e-14
-2.93358e-11
-9.45002e-15
-2.97214e-11
-3.13541e-15
-3.03499e-11
-2.88925e-11
-2.03678e-53
-1.30214e-45
3.03098e-49
-1.6456e-53
-1.31352e-45
3.05609e-49
-5.33567e-54
-1.31306e-45
3.05444e-49
7.19654e-54
-1.31972e-45
3.06944e-49
1.35066e-53
-1.34503e-45
3.12807e-49
-1.27374e-45
2.96346e-49
-5.78039e-49
-2.60975e-41
6.80688e-45
-3.75606e-49
-2.63283e-41
6.86268e-45
8.75633e-50
-2.63246e-41
6.85965e-45
4.99087e-49
-2.64654e-41
6.89467e-45
6.2246e-49
-2.69805e-41
7.02802e-45
-2.5543e-41
6.65715e-45
-1.36075e-44
-2.36782e-37
7.3814e-41
-9.64901e-45
-2.38997e-37
7.44328e-41
-1.2584e-45
-2.39061e-37
7.44173e-41
5.30864e-45
-2.40446e-37
7.48209e-41
6.58639e-45
-2.45207e-37
7.62914e-41
-2.32e-37
7.22439e-41
-9.4686e-41
-1.26312e-33
5.12061e-37
-4.44888e-43
-1.27684e-33
5.16598e-37
1.21732e-40
-1.27843e-33
5.16714e-37
1.89751e-40
-1.28698e-33
5.19768e-37
1.62758e-40
-1.31314e-33
5.30159e-37
-1.24084e-33
5.01674e-37
1.48503e-36
-4.0964e-30
2.53088e-33
3.223e-36
-4.15929e-30
2.55539e-33
4.43755e-36
-4.17584e-30
2.55812e-33
4.68802e-36
-4.21319e-30
2.57566e-33
3.52116e-36
-4.30345e-30
2.62868e-33
-4.05432e-30
2.48424e-33
2.99761e-32
-6.64218e-27
8.79582e-30
4.66521e-32
-6.86245e-27
8.90459e-30
5.30025e-32
-6.95705e-27
8.93597e-30
5.00144e-32
-7.06944e-27
9.01995e-30
3.49009e-32
-7.24119e-27
9.22067e-30
-6.75703e-27
8.6956e-30
2.03487e-28
2.96566e-27
2.16477e-26
2.75801e-28
3.0997e-27
2.22596e-26
2.76982e-28
3.19965e-27
2.25947e-26
2.32434e-28
3.32341e-27
2.30441e-26
1.40271e-28
3.49527e-27
2.37313e-26
3.36413e-27
2.23111e-26
1.35065e-24
9.71782e-23
7.09294e-23
1.41435e-24
9.95465e-23
7.19038e-23
1.03427e-24
1.00568e-22
7.22863e-23
5.38177e-25
1.01995e-22
7.31333e-23
7.85101e-26
1.04241e-22
7.4659e-23
9.64683e-23
6.90922e-23
3.37258e-22
1.46081e-19
8.08632e-20
-4.31437e-23
1.47488e-19
8.04187e-20
-5.63126e-22
1.46532e-19
8.05291e-20
-8.74737e-22
1.45754e-19
8.18754e-20
-7.45269e-22
1.45476e-19
8.56706e-20
1.33086e-19
7.60714e-20
-5.30563e-17
-1.10491e-13
-6.03033e-13
-1.15317e-16
-1.10839e-13
-5.9819e-13
-1.62965e-16
-1.11095e-13
-5.94624e-13
-1.63083e-16
-1.09759e-13
-5.94204e-13
-1.12608e-16
-1.0815e-13
-6.01395e-13
-1.11357e-13
-5.75746e-13
-1.83926e-14
-4.47363e-11
-2.16131e-10
-2.94685e-14
-4.42599e-11
-2.14384e-10
-3.3289e-14
-4.41019e-11
-2.14068e-10
-2.97561e-14
-4.49349e-11
-2.14645e-10
-1.47759e-14
-4.71332e-11
-2.18421e-10
-4.25686e-11
-2.11648e-10
-8.80933e-14
-5.52659e-08
-4.18251e-13
-5.45692e-08
-1.34679e-12
-5.43987e-08
5.07912e-14
-5.54433e-08
8.01629e-12
-5.83066e-08
-5.27527e-08
5.77155e-12
3.56844e-17
1.92481e-08
2.13853e-12
4.00665e-17
1.9263e-08
-2.79646e-12
4.14038e-17
1.92632e-08
-6.01066e-12
4.03236e-17
1.92723e-08
-7.0217e-12
4.0035e-17
1.92869e-08
4.10759e-17
1.92555e-08
-8.18536e-22
1.84414e-15
-3.22034e-19
-2.51071e-22
2.01997e-15
-3.61532e-19
1.16979e-22
2.07341e-15
-3.73582e-19
3.93747e-22
2.0273e-15
-3.63841e-19
9.8475e-22
2.01535e-15
-3.61224e-19
2.06348e-15
-3.70513e-19
-3.38333e-20
-2.93935e-17
-1.29048e-20
-3.21919e-17
-1.05074e-21
-3.30442e-17
1.04412e-20
-3.2309e-17
3.7043e-20
-3.2117e-17
-3.2888e-17
9.46033e-11
-1.39672e-06
7.95607e-07
2.22833e-11
-1.39656e-06
7.95625e-07
-3.53087e-11
-1.39675e-06
7.95649e-07
-6.19022e-11
-1.39669e-06
7.95638e-07
-9.69541e-11
-1.39624e-06
7.95598e-07
-1.39679e-06
7.95622e-07
3.03881e-11
1.02384e-14
2.7797e-08
6.35128e-12
1.12139e-14
2.77779e-08
-7.69933e-12
1.15113e-14
2.77856e-08
-2.01934e-11
1.12552e-14
2.77846e-08
-4.41244e-11
1.11888e-14
2.77681e-08
1.1457e-14
2.77982e-08
-1.86514e-19
-2.33292e-16
-6.83438e-20
-2.55487e-16
7.60518e-21
-2.62265e-16
8.57095e-20
-2.56429e-16
2.48027e-19
-2.54908e-16
-2.61062e-16
1.45337e-11
-1.21321e-07
-7.74024e-08
1.62676e-12
-1.21304e-07
-7.74161e-08
-5.26529e-12
-1.21309e-07
-7.74132e-08
-1.13359e-11
-1.21321e-07
-7.74249e-08
-2.23888e-11
-1.21318e-07
-7.74311e-08
-1.21341e-07
-7.73939e-08
5.81956e-13
6.72622e-14
1.42815e-09
1.33913e-13
7.36735e-14
1.42668e-09
-1.16874e-13
7.56248e-14
1.42718e-09
-3.78286e-13
7.39425e-14
1.42698e-09
-9.10727e-13
7.35075e-14
1.42622e-09
7.5264e-14
1.42885e-09
-1.18021e-18
-2.28971e-15
-3.56339e-19
-2.50773e-15
1.6208e-19
-2.57418e-15
6.22864e-19
-2.51691e-15
1.55526e-18
-2.50205e-15
-2.56215e-15
2.16488e-12
-1.42637e-09
-4.45785e-09
7.62242e-13
-1.42492e-09
-4.49592e-09
-3.04381e-13
-1.42541e-09
-4.48699e-09
-1.74053e-12
-1.42521e-09
-4.51853e-09
-3.95284e-12
-1.42445e-09
-4.5285e-09
-1.42708e-09
-4.41774e-09
1.08525e-15
5.26174e-14
1.7179e-12
4.18532e-16
5.7629e-14
1.71114e-12
3.80283e-17
5.91534e-14
1.71179e-12
-3.96901e-16
5.78344e-14
1.70939e-12
-1.26934e-15
5.74939e-14
1.7064e-12
5.88669e-14
1.71281e-12
-9.33798e-19
-1.18345e-15
-2.59756e-19
-1.29607e-15
9.85153e-20
-1.33033e-15
3.79078e-19
-1.30063e-15
9.8155e-19
-1.29294e-15
-1.32386e-15
3.23797e-12
-6.58783e-08
6.0196e-08
1.29095e-12
-6.58869e-08
6.01746e-08
-3.79737e-13
-6.58787e-08
6.01764e-08
-2.78369e-12
-6.5883e-08
6.01655e-08
-5.82508e-12
-6.58804e-08
6.01533e-08
-6.58392e-08
6.01789e-08
8.34246e-13
2.50949e-15
7.27868e-11
3.9116e-13
2.74993e-15
7.20815e-11
1.28089e-13
2.82448e-15
7.22719e-11
-1.73569e-13
2.76097e-15
7.22535e-11
-7.75422e-13
2.74384e-15
7.20791e-11
2.79022e-15
7.29174e-11
-4.17043e-20
-3.21093e-17
-1.04891e-20
-3.51836e-17
5.80917e-21
-3.61334e-17
1.84629e-20
-3.53172e-17
4.68802e-20
-3.50966e-17
-3.56859e-17
8.31288e-13
-7.33374e-11
4.31658e-10
1.36909e-13
-7.26323e-11
4.31626e-10
-4.26825e-13
-7.28227e-11
4.31518e-10
-6.15151e-13
-7.28045e-11
4.31281e-10
-8.03105e-13
-7.26303e-11
4.31141e-10
-7.34684e-11
4.31218e-10
3.72719e-17
1.80249e-17
-5.50664e-13
1.03262e-17
1.97337e-17
-5.50793e-13
-3.98317e-19
2.02645e-17
-5.50825e-13
-7.26354e-18
1.9811e-17
-5.5108e-13
-2.93119e-17
1.96866e-17
-5.51181e-13
1.9992e-17
-5.50985e-13
-2.11042e-22
-2.11822e-21
-8.29611e-24
-2.34675e-21
1.14432e-22
-2.38156e-21
1.77935e-22
-2.29096e-21
3.13284e-22
-2.28283e-21
-2.26867e-21
7.28934e-17
-2.35439e-11
8.55822e-12
2.92161e-16
-2.35433e-11
8.55602e-12
-1.05737e-15
-2.35472e-11
8.55357e-12
-7.40009e-16
-2.35582e-11
8.54746e-12
4.63853e-15
-2.35628e-11
8.54257e-12
-2.35574e-11
8.54793e-12
5.15184e-17
6.48987e-18
-2.40935e-11
1.79104e-18
6.41567e-18
-2.4093e-11
-2.48254e-17
6.46373e-18
-2.40969e-11
-9.43494e-17
6.50342e-18
-2.41081e-11
-3.40811e-16
6.4763e-18
-2.41126e-11
6.6659e-18
-2.41076e-11
-6.34966e-23
-2.90031e-19
1.61456e-24
-2.86732e-19
4.9231e-23
-2.88869e-19
8.0404e-23
-2.90629e-19
1.46824e-22
-2.89421e-19
-2.97869e-19
2.15836e-15
-3.3046e-09
3.31706e-09
3.88394e-15
-3.30397e-09
3.31642e-09
4.53853e-15
-3.3045e-09
3.31692e-09
1.66427e-15
-3.30583e-09
3.31821e-09
-7.77904e-15
-3.30663e-09
3.31897e-09
-3.30517e-09
3.31759e-09
7.07567e-15
2.40246e-15
-3.3264e-09
-3.99298e-14
2.38883e-15
-3.32572e-09
-7.25882e-14
2.39844e-15
-3.32626e-09
-5.90635e-14
2.40534e-15
-3.32765e-09
-1.48474e-13
2.39908e-15
-3.32835e-09
2.43621e-15
-3.32713e-09
-3.61907e-20
-8.75988e-17
1.23185e-20
-8.71031e-17
3.35759e-20
-8.74245e-17
2.46206e-20
-8.76296e-17
3.03265e-20
-8.73692e-17
-8.87709e-17
1.44085e-09
3.61069e-06
0.000220614
3.16545e-09
3.6099e-06
0.000220608
4.03425e-09
3.61018e-06
0.000220608
2.47781e-09
3.61102e-06
0.000220615
-6.25127e-10
3.61173e-06
0.000220627
3.60994e-06
0.000220618
7.9752e-12
5.4273e-13
3.60737e-06
-6.49165e-12
5.40106e-13
3.6066e-06
-1.10535e-11
5.41575e-13
3.60687e-06
-1.03145e-11
5.42572e-13
3.60771e-06
-4.85345e-12
5.40753e-13
3.6084e-06
5.48823e-13
3.60661e-06
2.18775e-18
-2.76899e-13
2.89526e-17
-2.75496e-13
3.2808e-17
-2.76269e-13
2.59557e-17
-2.76827e-13
2.92555e-17
-2.75924e-13
-2.79944e-13
6.32107e-08
0.000488293
0.00597806
5.04408e-08
0.000488335
0.00597763
4.71937e-08
0.000488308
0.00597771
3.1892e-08
0.000488325
0.00597784
2.45477e-08
0.000488375
0.00597781
0.000488271
0.00597812
2.60747e-09
2.32539e-05
0.000468227
3.30352e-09
2.32586e-05
0.000468265
3.90827e-09
2.32572e-05
0.000468239
2.22083e-09
2.32565e-05
0.000468261
1.08269e-09
2.32561e-05
0.000468312
2.3257e-05
0.000468204
-5.74278e-11
2.25627e-05
-1.19135e-10
2.25673e-05
-1.92197e-10
2.25659e-05
-1.66745e-10
2.25644e-05
-8.07249e-11
2.25637e-05
2.25652e-05
1.56128e-06
0.0181008
0.179048
1.48609e-06
0.018105
0.179061
1.21184e-06
0.0181008
0.179058
1.01308e-06
0.0181041
0.179064
-1.46687e-06
0.0181186
0.179086
0.0180817
0.179047
1.52141e-07
0.000631739
0.0179295
8.88714e-08
0.000632162
0.0179336
9.19766e-08
0.000631979
0.0179296
5.11315e-08
0.000631778
0.0179331
-1.46017e-07
0.000631832
0.0179477
0.00063166
0.0179105
-4.97343e-09
0.000519474
-1.2122e-08
0.000519855
-1.21562e-08
0.000519672
-1.16865e-08
0.000519458
-4.35858e-08
0.00051954
0.000519269
4.3483e-05
0.467495
0.782544
4.06461e-05
0.467551
0.782614
5.22472e-05
0.467513
0.782635
3.15198e-05
0.467498
0.782692
-0.000107657
0.467469
0.782959
0.467514
0.78249
1.54e-05
0.0107996
0.344915
-2.72197e-06
0.0108112
0.344993
-1.51138e-05
0.0108082
0.344959
-5.24535e-06
0.0108028
0.345011
1.20271e-05
0.0108067
0.345193
0.0107958
0.344637
-1.7009e-06
0.00772138
-1.47993e-06
0.00772701
3.06738e-06
0.00772172
-1.18797e-06
0.00772672
-1.29812e-05
0.00773524
0.00770538
5.96391e-07
0.000408866
-0.000428333
1.15008e-05
-2.22216e-07
0.000408379
-0.000426414
1.14692e-05
-1.03573e-06
0.000407832
-0.00042589
1.14694e-05
-6.16661e-07
0.000409327
-0.000428714
1.15218e-05
5.99636e-07
0.000413416
-0.000433623
1.16837e-05
0.000403696
-0.000422095
1.13136e-05
1.09614e-08
-6.42247e-13
0.000417978
-9.12429e-06
-3.19142e-08
-5.89617e-13
0.000417513
-9.09201e-06
-6.48416e-08
-6.44809e-13
0.000416957
-9.09356e-06
1.10979e-08
-4.30463e-13
0.000418413
-9.16224e-06
2.65167e-07
1.28382e-08
0.000422453
-9.31142e-06
-1.21607e-12
0.000412859
-8.90215e-06
-7.40432e-14
9.00254e-10
-1.15719e-09
-3.10534e-14
8.9419e-10
-1.15121e-09
-6.50925e-15
8.9685e-10
-1.15278e-09
1.19865e-13
8.92175e-10
-1.14757e-09
8.63058e-12
1.38069e-08
-1.26002e-09
9.19941e-10
-1.18163e-09
3.47595e-06
-0.00436791
-0.0357572
3.43521e-06
-0.00433764
-0.0356797
-1.55974e-05
-0.00433614
-0.0356447
1.34951e-05
-0.00444975
-0.0356461
0.000105785
-0.00475026
-0.0357903
-0.00398578
-0.0354074
-1.41582e-06
0.0132004
-0.0738363
1.23375e-05
0.0131228
-0.0735204
5.66446e-05
0.0131278
-0.0736405
-1.55869e-06
0.0134502
-0.0745324
-0.000213999
0.0142147
-0.0772162
0.0122615
-0.0696623
5.89028e-05
-0.198245
-9.01036e-06
-0.198464
-3.83717e-05
-0.198452
-0.000113694
-0.198326
-0.000164526
-0.199798
-0.196255
-2.19445e-05
-0.177379
-0.00288961
2.10574e-05
-0.177426
-0.00286995
4.07305e-05
-0.177384
-0.00286244
7.44969e-05
-0.177306
-0.00287171
9.39131e-05
-0.176854
-0.00294465
-0.178273
-0.00275455
-5.10935e-07
0.259267
-0.828977
-0.000254981
0.259499
-0.828834
-0.000491677
0.259516
-0.828562
0.000320312
0.258432
-0.824715
-0.000244452
0.258247
-0.825132
0.259884
-0.830289
0.000282455
-0.00112543
-0.000234524
-0.00121931
-0.00109326
-0.0011725
-0.00045057
-0.000844927
0.00181053
-0.000536479
-0.00135034
-1.31217e-05
-0.0909798
-0.100599
4.60462e-05
-0.0910184
-0.100531
0.000171079
-0.0911577
-0.100537
0.000130339
-0.0913353
-0.100938
-0.000215338
-0.0909282
-0.101571
-0.0914678
-0.10021
0.000177149
-0.000209566
-0.707849
-0.00091361
-0.000260614
-0.708374
-0.00274282
-0.000165758
-0.708457
0.000445213
-0.000380904
-0.709124
0.00258081
-0.000248483
-0.708054
-1.67361e-05
-0.709547
-1.88449e-07
-0.000786916
-1.84077e-07
-0.000787655
2.39037e-07
-0.000788226
7.20866e-07
-0.000783337
-1.85128e-06
-0.00078239
-0.000787613
0.000117276
0.0899809
-0.32958
0.000178523
0.0900035
-0.329489
0.000226681
0.0899751
-0.329483
0.000214207
0.0900204
-0.329862
0.00017393
0.090313
-0.330581
0.0896733
-0.329018
2.05887e-06
-0.0081652
-0.532402
9.84047e-05
-0.00817155
-0.532595
0.000357055
-0.00816914
-0.532592
0.000148339
-0.00816315
-0.532516
-0.000803712
-0.00816209
-0.532669
-0.00815662
-0.532382
-6.51421e-07
-0.00895147
-1.87956e-06
-0.00895797
-3.90049e-06
-0.00895534
-1.02533e-06
-0.00894936
3.25679e-06
-0.00894876
-0.00894098
3.22177e-05
0.335831
0.000131494
0.335912
0.000337083
0.335829
0.000102537
0.335956
-0.000905646
0.336298
0.335431
3.89446e-05
0.00229784
-9.09006e-06
0.00230076
-0.000114679
0.00229977
-2.17648e-05
0.00230378
0.000277698
0.00230986
0.00229251
-1.51789e-06
-4.8566e-06
-1.18225e-05
-5.03596e-06
1.45706e-05
6.38757e-47
3.94914e-42
-1.60433e-38
4.93398e-47
3.92992e-42
-1.59677e-38
5.69688e-47
3.92728e-42
-1.59575e-38
6.64989e-47
3.95322e-42
-1.60617e-38
4.78564e-47
4.03269e-42
-1.63825e-38
3.8248e-42
-1.55478e-38
5.35517e-51
1.9469e-45
-3.71059e-42
-1.2563e-50
1.93747e-45
-3.69359e-42
-1.73542e-50
1.93586e-45
-3.69037e-42
-1.9322e-50
1.9487e-45
-3.71438e-42
-1.90573e-50
1.98868e-45
-3.79042e-42
1.88411e-45
-3.59301e-42
-1.84955e-47
-1.26525e-38
-2.98711e-47
-1.26703e-38
-3.17999e-47
-1.26445e-38
-3.3248e-47
-1.27122e-38
-3.2941e-47
-1.2975e-38
-1.23704e-38
8.3591e-44
1.24184e-37
-4.55349e-34
2.58471e-42
1.23602e-37
-4.5328e-34
5.59561e-42
1.23533e-37