/*--------------------------------*- C++ -*----------------------------------*\
| =========                 |                                                 |
| \\      /  F ield         | OpenFOAM: The Open Source CFD Toolbox           |
|  \\    /   O peration     | Version:  v1612+                                |
|   \\  /    A nd           | Web:      www.OpenFOAM.com                      |
|    \\/     M anipulation  |                                                 |
\*---------------------------------------------------------------------------*/
FoamFile
{
    version     2.0;
    format      ascii;
    class       surfaceScalarField;
    location    "3.2";
    object      phi;
}
// * * * * * * * * * * * * * * * * * * * * * * * * * * * * * * * * * * * * * //

dimensions      [0 3 -1 0 0 0 0];

internalField   nonuniform List<scalar> 
2916
(
-1.36005e-06
0.422829
-0.422828
6.07911e-06
0.422828
-0.422836
4.83153e-06
0.42283
-0.422828
1.23377e-07
0.422833
-0.422828
1.86788e-06
0.422833
-0.422835
0.422825
-0.422823
3.21893e-06
0.820476
-0.39765
5.07363e-06
0.820483
-0.397656
4.88015e-06
0.820482
-0.397653
1.3455e-08
0.820486
-0.397648
-3.80616e-06
0.820488
-0.39765
0.820474
-0.397654
5.13118e-06
1.06408
-0.243611
4.97506e-06
1.06409
-0.243612
4.60984e-06
1.06409
-0.24361
1.30897e-06
1.0641
-0.243606
-3.12408e-06
1.0641
-0.243606
1.06408
-0.243611
4.27785e-06
1.23585
-0.171778
4.58923e-06
1.23587
-0.171778
4.1848e-06
1.23587
-0.171777
1.75816e-06
1.23587
-0.171774
-1.4e-06
1.23587
-0.171773
1.23586
-0.171776
2.40205e-06
1.37333
-0.137475
3.26892e-06
1.37335
-0.137476
2.65085e-06
1.37335
-0.137475
6.26093e-07
1.37335
-0.137472
-6.60579e-07
1.37335
-0.137472
1.37333
-0.137472
4.60144e-07
1.48819
-0.114863
1.34776e-06
1.48821
-0.114866
4.75254e-07
1.48821
-0.114864
-8.13029e-07
1.48821
-0.114863
-1.33332e-07
1.48821
-0.114863
1.48819
-0.114861
-2.81133e-06
1.57406
-0.0858715
-8.1107e-07
1.57409
-0.0858758
-2.00936e-06
1.57409
-0.0858735
-2.75343e-06
1.57408
-0.0858725
1.46533e-06
1.57408
-0.0858749
1.57406
-0.0858693
-7.46196e-06
1.55109
0.0229845
-1.85046e-06
1.55111
0.0229707
-3.67577e-06
1.55111
0.0229773
-4.54114e-06
1.55111
0.0229773
3.15477e-06
1.55111
0.0229676
1.55108
0.0229863
-4.41572e-06
1.23133
0.319758
-1.51715e-06
1.23137
0.319743
-4.64058e-06
1.23136
0.319749
-5.95392e-06
1.23136
0.319748
-3.69486e-06
1.23137
0.319735
1.23132
0.319757
-1.34246e-06
0.577174
0.654161
-1.24494e-06
0.577211
0.654155
-5.52471e-06
0.577212
0.654157
-7.93315e-06
0.577208
0.654155
-9.14963e-06
0.577224
0.654145
0.577149
0.654158
1.14773e-05
-0.0101109
0.587273
2.46178e-06
-0.0100733
0.587293
-1.6488e-06
-0.0100706
0.587287
-4.83081e-06
-0.010072
0.587283
-1.46923e-05
-0.0100488
0.587283
-0.0101293
0.587264
-2.49771e-05
-0.0100859
-2.19031e-05
-0.0100765
-1.47709e-05
-0.010078
-4.56711e-06
-0.0100824
2.30353e-05
-0.0100765
-0.0101062
-8.16828e-06
0.62597
-1.04879
-2.33472e-06
0.625965
-1.04881
6.01286e-06
0.625974
-1.04881
2.0217e-05
0.625964
-1.04881
2.33859e-05
0.625958
-1.0488
0.625995
-1.04879
-1.14833e-06
1.14683
-0.918508
-6.31836e-06
1.14684
-0.918522
2.35142e-05
1.14683
-0.918542
3.24107e-05
1.14682
-0.918515
-1.58541e-06
1.14683
-0.918487
1.14685
-0.918512
1.99724e-05
1.48827
-0.58507
1.15882e-06
1.4883
-0.585055
2.67338e-05
1.48828
-0.58508
2.90536e-05
1.48827
-0.585057
-2.72842e-05
1.48829
-0.585016
1.48828
-0.585063
3.1424e-05
1.73043
-0.413968
5.72065e-06
1.73049
-0.41394
2.65266e-05
1.73045
-0.413969
2.70907e-05
1.73045
-0.413948
-3.23822e-05
1.73048
-0.413901
1.73043
-0.41396
3.86531e-05
1.95896
-0.366043
7.23668e-06
1.95904
-0.365999
2.30222e-05
1.95899
-0.366034
2.60291e-05
1.95899
-0.36602
-2.90221e-05
1.95903
-0.365967
1.95896
-0.366031
4.01e-05
2.20987
-0.365818
5.77414e-06
2.20997
-0.365764
1.93333e-05
2.20992
-0.365804
2.58618e-05
2.20992
-0.365797
-2.17873e-05
2.20996
-0.365744
2.20988
-0.365805
3.84453e-05
2.47617
-0.352204
4.08486e-06
2.47628
-0.352154
1.67725e-05
2.47623
-0.352195
2.54931e-05
2.47623
-0.352193
-1.49839e-05
2.47627
-0.352146
2.47619
-0.352195
3.73142e-05
2.55758
-0.0584708
8.35272e-06
2.55774
-0.0584585
1.9644e-05
2.55768
-0.0584842
2.65724e-05
2.55768
-0.0584827
-6.90714e-06
2.55773
-0.0584533
2.55764
-0.0584647
5.05419e-05
2.21342
0.663873
1.80077e-05
2.2136
0.663914
2.26065e-05
2.21354
0.663887
2.4252e-05
2.21354
0.663889
-8.44453e-06
2.21358
0.66391
2.21348
0.663903
5.63489e-05
1.4804
1.38713
2.50614e-05
1.48058
1.38721
1.39343e-05
1.48052
1.38718
3.78118e-06
1.48053
1.38718
-2.7168e-05
1.48057
1.38719
1.48045
1.38716
4.45776e-05
0.68338
1.38424
1.48458e-05
0.683557
1.38435
3.93222e-06
0.683515
1.38431
-5.28038e-06
0.683515
1.3843
-2.87668e-05
0.683557
1.38432
0.683426
1.38426
-7.33101e-05
0.673367
-3.1258e-05
0.673439
-1.20983e-05
0.673417
3.78359e-06
0.673416
4.79866e-05
0.673437
0.673368
-0.000106473
0.553109
-1.60179
-6.4384e-05
0.553086
-1.60194
-2.16605e-05
0.553086
-1.60194
4.54522e-05
0.553062
-1.60194
0.000119111
0.553057
-1.60193
0.553126
-1.6018
-0.000113248
1.10815
-1.47344
-5.30273e-05
1.10809
-1.47358
-3.07219e-07
1.10807
-1.47358
6.06957e-05
1.10805
-1.47356
0.000131366
1.10806
-1.47356
1.10817
-1.47342
-0.000101831
1.78876
-1.26558
-4.1027e-05
1.78868
-1.26571
1.52534e-06
1.78867
-1.26571
4.55298e-05
1.78865
-1.2657
0.00011355
1.78866
-1.26568
1.78877
-1.26555
-0.000112949
2.77576
-1.40086
-4.32557e-05
2.77568
-1.401
6.30314e-06
2.77566
-1.40101
5.49733e-05
2.77565
-1.401
0.000139032
2.77566
-1.40099
2.77578
-1.40083
-0.000127203
4.04456
-1.63471
-6.06291e-05
4.04445
-1.63484
-4.60958e-06
4.04443
-1.63486
5.48117e-05
4.04442
-1.63485
0.000141844
4.04443
-1.63482
4.04457
-1.63467
-0.0001502
5.63811
-1.95922
-9.22895e-05
5.63795
-1.95932
-2.84885e-05
5.63792
-1.95936
4.49862e-05
5.63789
-1.95935
0.000131449
5.6379
-1.9593
5.63807
-1.95918
-0.000137189
7.15965
-1.87361
-0.00012438
7.15948
-1.87369
-7.25512e-05
7.15944
-1.87377
3.95803e-06
7.15942
-1.87379
0.000107467
7.15941
-1.87376
7.15962
-1.87363
1.90724e-05
6.37573
0.725427
-4.75479e-05
6.37581
0.725281
-6.35966e-05
6.37573
0.725245
-5.21609e-05
6.3757
0.725224
4.09353e-05
6.37571
0.725151
6.37574
0.725455
0.000177037
3.30636
3.73308
6.29582e-05
3.30663
3.7332
2.74793e-05
3.30651
3.73313
-9.57454e-06
3.30651
3.73312
-9.35497e-05
3.30658
3.73313
3.30646
3.73309
0.000111481
1.3244
3.36897
6.09716e-05
1.32464
3.36926
3.41747e-05
1.32454
3.36918
7.7597e-06
1.32454
3.36917
-5.49145e-05
1.32459
3.36924
1.3245
3.36907
0.000181882
0.539144
2.16932
5.00209e-05
0.539431
2.16968
1.00522e-05
0.539336
2.16955
-7.58126e-06
0.539339
2.16952
-7.0612e-05
0.539404
2.16957
0.539223
2.16947
-0.000120816
1.21263
-2.42296e-05
1.21277
-1.01027e-05
1.21274
1.34154e-05
1.21273
0.000101388
1.21275
1.21269
-3.90707e-05
-0.336432
-1.26532
-9.16551e-06
-0.336434
-1.26553
3.08186e-06
-0.336444
-1.26551
4.35909e-06
-0.336443
-1.2655
2.19154e-05
-0.336431
-1.26552
-0.336459
-1.26532
-1.29332e-05
-0.570658
-1.2392
5.81557e-06
-0.570623
-1.23941
-1.49988e-06
-0.57064
-1.23938
-1.66071e-06
-0.570635
-1.23937
2.11925e-05
-0.570608
-1.2394
-0.570688
-1.23917
9.52124e-06
-0.705145
-1.1311
2.9237e-05
-0.705032
-1.13132
7.4491e-06
-0.705045
-1.13128
-1.81687e-06
-0.705038
-1.13128
2.9088e-05
-0.704998
-1.13132
-0.705144
-1.13106
-4.0249e-05
-0.698238
-1.40772
-1.34427e-05
-0.698091
-1.40797
-3.03152e-05
-0.698105
-1.40794
-2.5394e-05
-0.6981
-1.40794
4.84481e-05
-0.698061
-1.40799
-0.698211
-1.40771
-9.90371e-05
-0.72951
-1.60334
-5.39539e-05
-0.729393
-1.60358
-5.78071e-05
-0.729407
-1.60355
-3.94444e-05
-0.729406
-1.60356
6.38208e-05
-0.729373
-1.60361
-0.729477
-1.60334
-0.000130516
-0.709824
-1.97878
-6.81199e-05
-0.709789
-1.97899
-6.173e-05
-0.709801
-1.97897
-3.52855e-05
-0.709806
-1.97897
8.20547e-05
-0.709791
-1.979
-0.709791
-1.97879
-0.000161582
-0.11494
-2.46833
-6.16624e-05
-0.115105
-2.46848
-3.04877e-05
-0.115108
-2.4685
2.18249e-05
-0.115104
-2.46855
0.000232893
-0.115173
-2.46859
-0.114821
-2.46837
1.58103e-06
2.03616
-1.42567
4.24746e-05
2.03605
-1.42591
6.77694e-05
2.03601
-1.42589
6.14499e-05
2.03602
-1.42589
0.0001495
2.03597
-1.42608
2.03634
-1.42555
0.000121608
2.62504
3.14408
0.000120066
2.62522
3.14402
0.00011482
2.62511
3.14403
5.77403e-05
2.62508
3.14411
-0.000121264
2.62512
3.14416
2.62521
3.14408
0.000218827
1.28793
4.70586
0.000113802
1.28829
4.7063
9.12316e-05
1.28814
4.70617
5.39947e-05
1.2881
4.7062
6.98917e-06
1.28808
4.70633
1.28819
4.70609
0.000246384
0.340364
3.11664
8.38113e-05
0.340616
3.11752
9.75395e-06
0.340535
3.11723
-6.60891e-06
0.340489
3.11715
-5.8457e-05
0.340482
3.11721
0.340514
3.11709
-5.87635e-05
1.55306
8.2825e-06
1.55332
3.02161e-05
1.55325
2.48822e-05
1.55323
-3.84473e-05
1.5533
1.55317
-3.45553e-06
-0.0027788
0.00278226
-3.42964e-06
-0.00277942
0.00278216
-3.33356e-06
-0.00278014
0.00278225
-2.90646e-06
-0.00278087
0.00278235
-1.91177e-06
-0.00278171
0.00278241
-0.00278298
0.00278259
-2.71735e-06
-0.00569791
0.00292393
-3.89675e-06
-0.0056997
0.0029241
-4.54647e-06
-0.00570146
0.00292403
-4.30591e-06
-0.0057031
0.0029238
-2.78897e-06
-0.00570485
0.00292333
-0.00570757
0.00292265
-2.41356e-06
-0.00894042
0.00324606
-5.22172e-06
-0.0089449
0.0032486
-6.83219e-06
-0.00894883
0.00324946
-6.75328e-06
-0.00895224
0.00324961
-4.62299e-06
-0.00895567
0.00324934
-0.0089608
0.00324892
-5.69975e-06
-0.0126846
0.00374995
-1.04237e-05
-0.0126949
0.00375495
-1.28871e-05
-0.012703
0.00375705
-1.25993e-05
-0.0127098
0.00375784
-8.93014e-06
-0.0127162
0.00375754
-0.0127255
0.00375609
-1.70084e-05
-0.0170722
0.00440457
-2.48512e-05
-0.0170932
0.00440749
-2.73226e-05
-0.0171078
0.0044085
-2.51589e-05
-0.017119
0.00440809
-1.74876e-05
-0.017129
0.0044057
-0.0171434
0.00440036
-4.35464e-05
-0.0220637
0.00503573
-5.42825e-05
-0.0220987
0.00501782
-5.20322e-05
-0.0221169
0.00500791
-4.30889e-05
-0.0221267
0.00499926
-2.79825e-05
-0.0221333
0.00498923
-0.0221475
0.00497565
-7.57907e-05
-0.0276442
0.00565718
-7.51383e-05
-0.0276878
0.00558902
-5.29514e-05
-0.0276947
0.00555557
-2.86671e-05
-0.0276841
0.00553287
-1.0302e-05
-0.0276672
0.0055152
-0.0276589
0.00550097
-8.50071e-05
-0.0328063
0.0052474
-3.53918e-05
-0.032844
0.00510597
3.56607e-05
-0.0328188
0.00505221
8.27362e-05
-0.0327635
0.00503177
8.02703e-05
-0.0326997
0.00503479
-0.0326434
0.00506482
1.61454e-06
-0.0380229
0.00521452
0.000116613
-0.0380062
0.00504617
0.000227913
-0.0379627
0.00503186
0.000282175
-0.0379025
0.00508454
0.000230326
-0.0378314
0.00518338
-0.0377471
0.00533437
0.000129787
-0.0350762
-0.00307726
0.00027459
-0.0350432
-0.00310856
0.000373276
-0.0350121
-0.00304931
0.000392375
-0.034969
-0.00295228
0.000287363
-0.0348993
-0.0028277
-0.0347876
-0.00267151
0.000143299
-0.0272745
-0.00794527
0.000234965
-0.02721
-0.00792513
0.000268682
-0.0271646
-0.00788088
0.000281303
-0.0271191
-0.00786246
0.000210951
-0.0270612
-0.00776805
-0.0269625
-0.00761328
-8.77143e-06
-0.0272652
-5.88284e-05
-0.0271591
-0.00010018
-0.0271224
-0.000112994
-0.0271062
-7.94228e-05
-0.027095
-0.0270416
-2.81047e-06
-0.00255737
0.00534451
-2.83097e-06
-0.00255874
0.00534418
-2.64149e-06
-0.00255984
0.00534449
-2.0676e-06
-0.00256081
0.00534482
-9.57413e-07
-0.00256175
0.00534504
-0.00256301
0.00534556
-2.532e-06
-0.00513471
0.00550641
-3.6178e-06
-0.00513828
0.00550658
-3.84549e-06
-0.00514099
0.00550682
-3.23867e-06
-0.00514325
0.00550685
-1.7405e-06
-0.0051453
0.00550649
-0.00514801
0.00550597
-4.96862e-06
-0.00764702
0.005764
-7.45442e-06
-0.00765425
0.00576663
-7.82126e-06
-0.00765925
0.00576784
-6.69006e-06
-0.00766311
0.00576828
-4.14388e-06
-0.00766648
0.0057681
-0.00767106
0.00576767
-1.10148e-05
-0.00986888
0.00598259
-1.44862e-05
-0.00988329
0.00598728
-1.42116e-05
-0.00989166
0.00598932
-1.17612e-05
-0.00989733
0.00598989
-7.38777e-06
-0.00990206
0.00598901
-0.00990928
0.00598673
-1.9882e-05
-0.0114608
0.00601689
-2.22349e-05
-0.0114884
0.00601622
-1.90228e-05
-0.0115001
0.00601475
-1.40404e-05
-0.0115056
0.00601197
-8.26863e-06
-0.0115091
0.00600693
-0.0115166
0.00599887
-3.1836e-05
-0.011898
0.0055061
-2.36211e-05
-0.0119574
0.00548002
-1.03354e-05
-0.0119696
0.00546479
-1.32455e-06
-0.0119675
0.00545197
1.20162e-06
-0.0119614
0.00543846
-0.0119631
0.00542324
1.36321e-05
-0.0107011
0.00444742
4.20716e-05
-0.0107697
0.0043732
6.66431e-05
-0.010775
0.00433616
7.37784e-05
-0.0107548
0.00431268
5.55361e-05
-0.0107252
0.00429739
-0.0106976
0.0042915
7.83929e-05
-0.007961
0.00242849
0.000161344
-0.00802808
0.00228064
0.000216288
-0.00800404
0.00222579
0.000221939
-0.00793919
0.00221055
0.000158921
-0.00785393
0.0022267
-0.00775451
0.00228099
0.000210476
-0.00360258
0.000644724
0.000326773
-0.00362216
0.000523094
0.000351901
-0.00352288
0.000525213
0.000305009
-0.00339664
0.000589223
0.000188058
-0.00325887
0.000704689
-0.00310202
0.000870703
0.000265223
0.00069115
-0.00763665
0.000352059
0.000802258
-0.00761944
0.000366705
0.000933871
-0.00752023
0.000318759
0.00108389
-0.00738416
0.000191754
0.00125167
-0.007211
0.0014271
-0.0070084
0.000165852
0.00226595
-0.00968583
0.000137038
0.00237348
-0.00946681
6.25355e-05
0.00247783
-0.00934964
-2.43667e-05
0.00257969
-0.00927146
-6.06965e-05
0.00270092
-0.00918041
0.00283197
-0.00907832
-5.27926e-05
-0.0249463
-0.000205761
-0.0246323
-0.000331952
-0.0245183
-0.000330433
-0.0245279
-0.000172499
-0.0245499
-0.0243824
-8.6508e-07
-0.00238824
0.00773525
-8.63158e-07
-0.002389
0.00773483
-6.93051e-07
-0.00238948
0.00773501
-2.94887e-07
-0.00238983
0.00773517
1.65872e-07
-0.00238999
0.00773523
-0.00239007
0.00773569
-6.90035e-07
-0.00500242
0.00812265
-1.30904e-06
-0.00500445
0.00812258
-1.2281e-06
-0.0050057
0.00812273
-7.12283e-07
-0.00500651
0.00812266
-8.13383e-08
-0.00500681
0.00812229
-0.00500697
0.00812199
-2.47397e-06
-0.00826548
0.00902911
-3.52233e-06
-0.00826987
0.0090313
-3.17154e-06
-0.00827214
0.00903252
-2.19722e-06
-0.00827334
0.009033
-1.05582e-06
-0.00827356
0.0090328
-0.00827366
0.00903255
-6.71276e-06
-0.0127449
0.0104677
-7.23432e-06
-0.0127544
0.0104713
-5.66043e-06
-0.0127582
0.0104732
-3.58701e-06
-0.0127598
0.0104737
-1.67004e-06
-0.0127597
0.0104726
-0.0127593
0.0104701
-1.36134e-05
-0.0190864
0.0123722
-1.14821e-05
-0.0191071
0.0123673
-5.76435e-06
-0.0191131
0.0123641
-8.64505e-07
-0.019113
0.01236
1.41321e-06
-0.0191089
0.0123533
-0.0191031
0.0123436
-1.51274e-05
-0.0282058
0.0146413
-7.70807e-07
-0.0282412
0.0146005
1.66016e-05
-0.0282429
0.0145774
2.62771e-05
-0.0282296
0.0145588
2.27848e-05
-0.0282076
0.0145405
-0.0281797
0.0145234
1.09434e-05
-0.04141
0.0176409
5.67615e-05
-0.041442
0.0175287
9.71129e-05
-0.0414209
0.0174742
0.000111591
-0.0413723
0.0174416
8.56329e-05
-0.0413079
0.017425
-0.0412319
0.0174304
0.00011041
-0.059116
0.0200241
0.000203391
-0.0591069
0.0198532
0.000251305
-0.0590403
0.0197983
0.000242895
-0.0589461
0.0197941
0.000165088
-0.0588388
0.0198362
-0.058721
0.0199357
0.000227717
-0.0826172
0.0239178
0.000354707
-0.0825275
0.0238169
0.000396033
-0.0824083
0.0238528
0.000353178
-0.0822706
0.0239577
0.000217275
-0.0821259
0.0241279
-0.0819967
0.0243642
0.000152494
-0.101405
0.0109989
0.00013584
-0.101235
0.0111043
5.92065e-05
-0.101096
0.0112445
-2.71936e-05
-0.100969
0.0114001
-5.26661e-05
-0.100875
0.0115654
-0.10081
0.0117522
-0.000105818
-0.0954601
-0.0155248
-0.00023372
-0.0952969
-0.0152766
-0.000325292
-0.0951883
-0.0151659
-0.000365286
-0.0951081
-0.0150932
-0.000241476
-0.0950861
-0.0150937
-0.0951057
-0.0150239
-0.000511816
-0.119894
-0.000678793
-0.119763
-0.000669218
-0.119717
-0.000602018
-0.119704
-0.000256484
-0.119982
-0.119746
-4.23591e-08
-0.00192737
0.0096636
1.42584e-07
-0.00192821
0.00966294
4.4949e-07
-0.00192845
0.00966301
7.30824e-07
-0.00192847
0.009663
7.56055e-07
-0.00192823
0.0096629
-0.00192797
0.0096635
3.90961e-08
-0.00379109
0.00998636
-9.33983e-08
-0.00379309
0.0099859
3.22315e-07
-0.00379368
0.00998593
7.1606e-07
-0.0037936
0.0099858
7.08596e-07
-0.00379293
0.00998544
-0.00379223
0.00998568
-1.43198e-06
-0.0053682
0.0106062
-1.4867e-06
-0.00537115
0.0106067
-5.79589e-07
-0.00537137
0.0106072
2.33671e-07
-0.00537038
0.0106072
3.9425e-07
-0.00536854
0.0106068
-0.00536696
0.0106069
-2.04877e-06
-0.0063134
0.0114135
-9.91786e-08
-0.00631724
0.0114139
2.53739e-06
-0.00631575
0.0114138
4.02537e-06
-0.00631197
0.011413
3.37539e-06
-0.00630727
0.0114112
-0.00630347
0.0114096
7.10917e-06
-0.00620803
0.0122594
1.54663e-05
-0.00621169
0.0122534
2.09867e-05
-0.00620604
0.0122487
2.16461e-05
-0.00619652
0.0122436
1.55055e-05
-0.00618585
0.0122375
-0.00617592
0.0122318
4.07698e-05
-0.00419285
0.0125857
6.24924e-05
-0.00419154
0.0125592
7.00075e-05
-0.00417821
0.0125423
6.45055e-05
-0.00415967
0.0125278
4.33968e-05
-0.00413838
0.0125151
-0.00411422
0.0125067
0.0001058
0.00127209
0.0120706
0.000138741
0.00128965
0.0120156
0.000136207
0.00131199
0.0119878
0.00011128
0.00133871
0.01197
6.5357e-05
0.0013724
0.0119625
0.00141296
0.0119696
0.000152403
0.0121911
0.00895339
0.00016241
0.0122504
0.00888359
0.000118402
0.0122873
0.00886844
6.19825e-05
0.0123207
0.00886989
1.3011e-05
0.0123655
0.00889247
0.0124157
0.00894568
7.62665e-05
0.0326266
0.00340677
8.23784e-07
0.0327637
0.00337962
-0.000107677
0.032836
0.00341306
-0.000175253
0.0328769
0.00346859
-0.000165369
0.0329299
0.00355333
0.0329501
0.00366422
-9.11221e-05
0.0661755
-0.0224585
-0.000237529
0.0663316
-0.0223177
-0.000365565
0.0663509
-0.022143
-0.000365371
0.0662695
-0.0219945
-0.000255319
0.0662249
-0.0218404
0.0661013
-0.0216558
-0.000279105
0.090363
-0.0394333
-0.000452174
0.0905062
-0.0392799
-0.000510391
0.0905014
-0.039259
-0.000453223
0.0903151
-0.0391966
-0.000227682
0.0901109
-0.0392073
0.090273
-0.0394257
1.88055e-05
-0.0295504
-1.3843e-06
-0.0292395
-0.000103224
-0.0291155
6.1263e-05
-0.0295551
0.00103034
-0.0308422
-0.028444
2.38475e-05
-1.34311
0.0777617
7.42231e-06
-1.34328
0.0777709
-1.36303e-05
-1.34326
0.0777709
-2.7202e-05
-1.34325
0.0777722
-3.15039e-05
-1.34328
0.0777739
-1.34311
0.0777584
3.02034e-05
-1.35463
0.0114893
6.28875e-06
-1.35475
0.0114892
-6.59069e-06
-1.35473
0.0114887
-1.57417e-05
-1.35473
0.0114895
-3.37712e-05
-1.35475
0.0114899
-1.35462
0.0114858
2.48113e-05
0.0215066
8.19259e-06
0.0215059
-1.98957e-08
0.0215064
-7.45724e-06
0.0215064
-2.34271e-05
0.021506
0.0215068
2.7048e-05
-1.39495
0.233483
6.69179e-06
-1.39512
0.233508
-1.01274e-05
-1.39509
0.233507
-1.85392e-05
-1.39509
0.233504
-2.92994e-05
-1.39512
0.233506
-1.39492
0.23348
2.99858e-05
-1.41289
0.0294083
6.40126e-06
-1.41302
0.0294079
-7.5777e-06
-1.413
0.029408
-2.00164e-05
-1.413
0.0294093
-4.2568e-05
-1.41302
0.0294107
-1.41288
0.0294074
2.64084e-05
0.0321009
9.56076e-06
0.0320992
-5.33061e-08
0.0320993
-9.80688e-06
0.0320991
-2.88737e-05
0.0320984
0.0321001
2.26315e-05
-1.32223
0.424597
4.53603e-06
-1.32241
0.424621
-5.85953e-06
-1.32238
0.424616
-1.5751e-05
-1.32238
0.424612
-3.26682e-05
-1.32241
0.424615
-1.3222
0.424584
3.3375e-05
-1.36939
0.0765353
9.8694e-06
-1.36951
0.0765262
-3.74773e-06
-1.36949
0.0765284
-1.85272e-05
-1.36949
0.0765303
-4.73639e-05
-1.36951
0.0765318
-1.36939
0.0765417
2.40157e-05
0.0463451
7.50498e-06
0.0463442
-1.84606e-06
0.0463435
-1.08011e-05
0.0463429
-2.91663e-05
0.0463422
0.0463435
2.90453e-05
-1.52876
0.545602
1.05689e-05
-1.52895
0.54562
-3.5097e-06
-1.52892
0.545613
-2.12852e-05
-1.52892
0.545609
-4.75742e-05
-1.52896
0.545607
-1.52876
0.545579
3.89365e-05
-1.50317
0.0509103
1.39618e-05
-1.50329
0.0508945
1.10888e-06
-1.50328
0.0508998
-1.37661e-05
-1.50328
0.0509028
-4.50937e-05
-1.5033
0.0509022
-1.50318
0.050925
2.38512e-05
0.0336578
4.84818e-06
0.0336583
-3.3777e-06
0.0336573
-1.02167e-05
0.0336565
-2.67604e-05
0.0336564
0.0336557
2.69976e-05
-1.59519
0.537424
8.83656e-06
-1.59538
0.537439
-4.649e-06
-1.59536
0.537429
-2.19192e-05
-1.59536
0.537426
-4.51541e-05
-1.5954
0.537421
-1.59521
0.537396
3.62053e-05
-1.54474
0.000425319
1.42382e-05
-1.54486
0.000396483
4.13676e-06
-1.54485
0.000406328
-7.55801e-06
-1.54485
0.000409346
-3.6467e-05
-1.54487
0.000404385
-1.54475
0.000438756
2.50685e-05
0.0198183
4.51653e-06
0.0198201
-3.52565e-06
0.0198185
-9.51268e-06
0.0198168
-2.51954e-05
0.0198159
0.0198116
2.17038e-05
-1.71609
0.274718
1.85765e-06
-1.71626
0.27473
-1.28819e-05
-1.71624
0.274715
-1.74539e-05
-1.71624
0.274695
-2.2917e-05
-1.71626
0.274689
-1.71611
0.2747
2.87139e-05
-1.65444
-0.0612619
5.84179e-06
-1.65456
-0.0612834
-2.47906e-06
-1.65455
-0.0612751
-8.35399e-06
-1.65455
-0.0612735
-2.93634e-05
-1.65456
-0.0612732
-1.65443
-0.0612638
2.4813e-05
0.000468292
3.26743e-06
0.000470296
-8.58316e-06
0.0004677
-1.57884e-05
0.000463985
-2.80823e-05
0.000463903
0.000460141
-4.43708e-06
-1.82266
-0.370951
2.02736e-07
-1.82278
-0.370963
-5.26393e-06
-1.82278
-0.370988
-4.16349e-06
-1.8228
-0.371049
2.96138e-05
-1.82284
-0.371093
-1.82266
-0.370977
8.23548e-06
-1.64792
-0.236009
9.86872e-07
-1.64803
-0.236033
-5.56448e-06
-1.64802
-0.236039
-1.69569e-05
-1.64801
-0.236058
-4.75612e-05
-1.64803
-0.236053
-1.64788
-0.236093
1.96119e-05
0.0754506
6.98821e-07
0.0754598
-1.38356e-05
0.0754559
-2.3122e-05
0.0754523
-3.52278e-05
0.0754548
0.0754428
4.34393e-05
-2.29205
0.49538
8.31445e-05
-2.29227
0.495352
9.91635e-05
-2.29225
0.495357
3.81214e-05
-2.29223
0.495357
-0.000161428
-2.29237
0.495394
-2.29206
0.495379
6.37069e-06
-1.70861
-0.819443
-2.78911e-05
-1.70873
-0.819535
-5.46266e-05
-1.70872
-0.819539
-4.44604e-05
-1.70874
-0.819566
-0.00010131
-1.70881
-0.819551
-1.70863
-0.819633
2.86526e-05
0.0601841
-9.58242e-06
0.0601909
-2.64822e-05
0.0601693
-1.7384e-05
0.0601374
-1.84053e-05
0.0601173
0.060143
0.000113382
0.610676
3.02867
0.000255502
0.61043
3.02881
0.000317199
0.610548
3.02878
0.000193268
0.610751
3.02884
-3.98776e-05
0.610831
3.02896
0.610623
3.0288
6.08685e-05
-1.30059
1.09176
-3.74903e-05
-1.30075
1.09174
-7.08599e-05
-1.30069
1.09173
-6.52939e-05
-1.3006
1.09178
-3.581e-05
-1.30062
1.09187
-1.30054
1.0915
-3.59639e-06
0.606213
-7.47411e-05
0.606153
-8.32423e-05
0.606168
-6.24025e-05
0.606227
-7.10527e-05
0.606281
0.606054
0.000323754
4.77427
2.95994
0.000270018
4.77491
2.96025
0.000262011
4.77481
2.96016
0.000187036
4.77492
2.96019
0.000142954
4.7751
2.96024
4.77482
2.96022
0.000175707
3.2192
2.64665
0.000212605
3.21966
2.64696
0.000259968
3.21971
2.64677
0.000146337
3.21994
2.64688
4.01505e-05
3.21982
2.64726
3.22011
2.64626
-6.48285e-05
2.34561
-0.000146327
2.34565
-0.000234893
2.34551
-0.000219182
2.34536
-0.000145954
2.34557
2.34477
0.000205387
4.45873
1.61764
0.000188799
4.4597
1.61808
0.000144791
4.45941
1.61802
0.000118783
4.45926
1.61811
-0.000179524
4.45915
1.61861
4.45961
1.61752
0.000311924
5.48915
1.61593
0.000232692
5.49011
1.61663
0.000239083
5.49
1.61619
0.00013377
5.49007
1.61617
-0.000238154
5.49015
1.61663
5.49031
1.61532
-7.72856e-05
3.03199
-0.000261913
3.03214
-0.000335624
3.03169
-0.000238922
3.03086
-0.000818473
3.03119
3.03007
6.82927e-05
1.99844
1.17219
6.42251e-05
1.99905
1.17236
8.14659e-05
1.99886
1.1724
4.85933e-05
1.99891
1.17246
-0.000170511
1.99928
1.17284
1.99838
1.17213
0.0001669
1.79163
1.82257
-8.83487e-06
1.79291
1.82294
-0.000110207
1.79232
1.82282
-3.86003e-05
1.79195
1.82306
3.2517e-05
1.79212
1.82371
1.7915
1.82224
-0.0003372
2.75254
-0.000229859
2.752
0.00113534
2.75052
-0.000373767
2.75274
-0.00409119
2.75446
2.74719
0.000932276
0.553236
-2.1491
1.59493
-0.000350235
0.554907
-2.1489
1.59528
-0.00171056
0.554701
-2.14919
1.59585
-0.00107662
0.553528
-2.14882
1.59466
0.000561512
0.550762
-2.14755
1.59515
0.558507
-2.15666
1.59871
0.0003578
0.0140086
1.75133
-1.21246
-0.00276891
0.015526
1.75301
-1.21051
-0.00400884
0.0138792
1.75398
-1.21192
0.00207964
0.0192302
1.74351
-1.2153
0.0154561
0.0317378
1.72753
-1.22188
-0.00033989
1.77491
-1.20061
-0.00194172
0.468504
-0.636732
-0.000113539
0.464858
-0.636178
0.000747672
0.464727
-0.634973
0.00309415
0.464421
-0.638099
0.0168844
0.445834
-0.637833
0.490304
-0.637055
0.000307132
-0.754864
-1.39454
0.000322805
-0.755054
-1.39387
-0.00146615
-0.753761
-1.39364
0.00111394
-0.756447
-1.39496
0.00925966
-0.763937
-1.39176
-0.744428
-1.40297
0.000183265
1.73073
-0.734448
0.00108145
1.73007
-0.733012
0.00572139
1.72894
-0.73337
-0.00169848
1.73685
-0.742369
-0.0225427
1.746
-0.761562
1.71882
-0.710887
0.00185138
-2.89986
-0.000515052
-2.90215
-0.00225277
-2.8997
-0.00295499
-2.90465
-0.00333193
-2.93076
-2.869
-0.0003027
-0.75966
-0.634579
0.000263098
-0.760542
-0.633893
0.000614077
-0.76025
-0.63374
0.0009175
-0.758616
-0.636646
0.000738035
-0.752924
-0.638657
-0.768905
-0.63333
-2.8829e-05
1.09537
-2.58945
-0.000958934
1.09604
-2.58866
-0.00175922
1.09533
-2.58815
0.000873186
1.09294
-2.59655
-0.00108371
1.09318
-2.60571
1.09776
-2.57864
0.0022555
-4.70999
-0.00206947
-4.70611
-0.00837646
-4.70072
-0.00295101
-4.71446
0.0124479
-4.75009
-4.66857
-6.65218e-05
-0.28358
-0.350933
0.000470391
-0.283625
-0.350805
0.00155843
-0.283929
-0.350899
0.00106029
-0.284534
-0.351614
-0.00167867
-0.283713
-0.352205
-0.283997
-0.351011
0.000449659
-0.506141
-2.36734
-0.00250928
-0.501462
-2.36787
-0.00749021
-0.499527
-2.36758
0.000876687
-0.526199
-2.36326
0.00747392
-0.533919
-2.3621
-0.485621
-2.36954
-0.00271277
-3.21172
-0.00225804
-3.21211
0.0049594
-3.21529
0.00807211
-3.19174
-0.0280664
-3.19736
-3.21737
0.000213675
0.225181
-0.576328
0.000335299
0.225277
-0.576203
0.00042461
0.225229
-0.576218
0.00036272
0.225224
-0.576776
0.000274883
0.225661
-0.577778
0.224791
-0.575527
-1.21898e-07
-0.312766
-1.82939
0.000347451
-0.313241
-1.8297
0.00128573
-0.313578
-1.82971
0.000466109
-0.307676
-1.82954
-0.00284596
-0.302684
-1.83044
-0.318811
-1.82879
-0.00227964
-2.68477
-0.00609348
-2.68366
-0.0133792
-2.68301
-0.000263341
-2.68363
0.00895378
-2.68537
-2.68072
5.45191e-05
0.595808
0.000211494
0.596003
0.000535511
0.595854
0.000158461
0.596059
-0.00143769
0.596662
0.595166
0.00021904
0.588764
-4.75633e-05
0.58951
-0.000647882
0.589569
-0.000102282
0.589035
0.00155499
0.588275
0.590171
-0.000367644
-0.000919201
-0.00229239
-0.000507621
0.00275728
7.58981e-07
0.0112081
-0.00154516
6.62901e-07
0.0112071
-0.00154499
6.10957e-07
0.011207
-0.00154495
5.09862e-07
0.0112069
-0.00154494
2.72441e-07
0.0112068
-0.00154491
0.0112077
-0.0015451
4.44498e-07
0.0120193
-0.000812007
2.51871e-07
0.0120181
-0.000811991
1.39518e-07
0.0120181
-0.000812073
5.99708e-09
0.012018
-0.000812175
-1.74463e-07
0.012018
-0.000812281
0.0120191
-0.000812479
1.07191e-07
-0.000608534
3.7066e-08
-0.000608547
-7.10347e-09
-0.000608574
-7.93493e-08
-0.0006086
-2.02325e-07
-0.000608621
-0.000608666
6.41789e-07
0.0118684
-0.00342881
4.32705e-07
0.0118673
-0.00342857
4.87784e-07
0.0118672
-0.00342846
4.51261e-07
0.0118671
-0.0034283
1.39661e-07
0.011867
-0.00342811
0.0118679
-0.00342824
3.61615e-07
0.0125045
-0.00144989
1.39046e-07
0.0125033
-0.00144976
7.03856e-08
0.0125033
-0.00144976
-7.21754e-08
0.0125032
-0.00144972
-3.72454e-07
0.0125032
-0.00144965
0.0125043
-0.00144978
-1.34469e-08
-0.00157017
-4.10281e-08
-0.00157016
-5.98454e-08
-0.00157017
-1.23223e-07
-0.00157015
-2.44164e-07
-0.00157011
-0.00157007
1.84715e-07
0.0133416
-0.00616636
3.85856e-07
0.0133408
-0.00616537
8.58946e-07
0.0133409
-0.0061646
1.02211e-06
0.0133409
-0.0061637
6.31743e-07
0.0133407
-0.00616288
0.0133418
-0.0061627
5.38088e-09
0.0135652
-0.00167518
5.39796e-08
0.0135639
-0.00167445
1.76565e-07
0.0135638
-0.00167393
1.54809e-07
0.0135637
-0.00167336
-8.52347e-08
0.0135637
-0.00167283
0.013565
-0.00167283
-1.41823e-07
-0.00330962
-4.83148e-08
-0.00330953
-9.27774e-10
-0.00330944
-2.16642e-09
-0.0033093
1.25954e-09
-0.00330916
-0.00330906
1.47647e-06
0.015775
-0.0105308
3.13099e-06
0.015774
-0.0105281
4.20146e-06
0.0157739
-0.0105264
4.23913e-06
0.0157736
-0.0105248
2.91918e-06
0.015773
-0.0105235
0.0157735
-0.0105235
1.14401e-06
0.0152095
-0.00111174
1.97039e-06
0.0152078
-0.00110933
2.34571e-06
0.0152074
-0.00110777
2.19054e-06
0.0152068
-0.00110631
1.30279e-06
0.0152064
-0.00110516
0.0152076
-0.00110549
-6.58862e-08
-0.00645554
1.77692e-07
-0.00645551
3.55236e-07
-0.00645549
4.32425e-07
-0.00645541
4.6808e-07
-0.00645539
-0.0064553
6.8814e-06
0.0193639
-0.0176424
1.02732e-05
0.0193596
-0.0176376
1.12036e-05
0.0193571
-0.0176357
9.92675e-06
0.0193543
-0.0176343
6.3617e-06
0.0193513
-0.0176338
0.0193501
-0.017635
4.23138e-06
0.0175833
0.000664687
6.13944e-06
0.0175806
0.000667859
6.55275e-06
0.0175795
0.000669469
5.75775e-06
0.0175782
0.000670542
3.42885e-06
0.0175771
0.000671279
0.0175782
0.000669951
2.45438e-07
-0.0119237
5.32251e-07
-0.011924
9.0028e-07
-0.0119244
9.15247e-07
-0.0119244
8.57959e-07
-0.0119246
-0.0119237
1.48609e-05
0.0247886
-0.0298597
1.87447e-05
0.0247746
-0.0298564
1.7769e-05
0.0247663
-0.0298584
1.42061e-05
0.0247587
-0.029861
8.71966e-06
0.0247523
-0.0298641
0.0247502
-0.0298685
1.2531e-05
0.02113
0.00431088
1.56252e-05
0.0211254
0.00431398
1.44038e-05
0.0211232
0.00431398
1.13778e-05
0.0211211
0.00431171
5.83397e-06
0.0211194
0.00431072
0.0211208
0.00430584
-2.60426e-07
-0.0208715
-3.0977e-07
-0.0208723
4.63271e-07
-0.0208736
8.61672e-07
-0.0208732
2.07289e-06
-0.0208741
-0.02087
2.31968e-05
0.032439
-0.0502506
2.62054e-05
0.0324099
-0.0502524
2.15621e-05
0.0323952
-0.0502597
1.41974e-05
0.0323852
-0.050267
7.50041e-06
0.0323805
-0.0502734
0.0323867
-0.0502785
1.96068e-05
0.0254524
0.0112784
2.0375e-05
0.0254459
0.0112779
1.33361e-05
0.0254439
0.0112735
7.09293e-06
0.0254429
0.011262
1.99599e-07
0.0254421
0.0112573
0.025446
0.0112462
2.01986e-06
-0.0372453
3.76927e-06
-0.0372454
9.44904e-06
-0.0372494
8.65676e-06
-0.0372392
1.51922e-05
-0.037247
-0.0372185
1.22183e-05
0.0517163
-0.0930246
-4.76671e-06
0.0516812
-0.0930317
-2.21724e-05
0.0516726
-0.0930454
-3.17445e-05
0.0516719
-0.0930589
-2.29045e-05
0.0516855
-0.0930762
0.0517172
-0.0930745
8.16756e-06
0.0358513
0.0271358
-4.55112e-06
0.0358446
0.0271276
-2.32949e-05
0.0358457
0.0271197
-2.96349e-05
0.0358503
0.0270901
-2.36012e-05
0.0358541
0.0270814
0.0358673
0.0270723
-2.30135e-05
-0.0491903
-3.77339e-05
-0.0492038
-3.88372e-05
-0.0492247
-2.30077e-05
-0.049236
3.19616e-05
-0.0492861
-0.0491514
-3.08539e-05
0.0602086
-0.149795
-6.83316e-05
0.0602069
-0.149821
-8.60153e-05