/*--------------------------------*- C++ -*----------------------------------*\
| =========                 |                                                 |
| \\      /  F ield         | OpenFOAM: The Open Source CFD Toolbox           |
|  \\    /   O peration     | Version:  v1612+                                |
|   \\  /    A nd           | Web:      www.OpenFOAM.com                      |
|    \\/     M anipulation  |                                                 |
\*---------------------------------------------------------------------------*/
FoamFile
{
    version     2.0;
    format      ascii;
    class       surfaceScalarField;
    location    "7.5";
    object      alphaPhi;
}
// * * * * * * * * * * * * * * * * * * * * * * * * * * * * * * * * * * * * * //

dimensions      [0 3 -1 0 0 0 0];

internalField   nonuniform List<scalar> 
2916
(
-4.85656e-05
0.185673
-0.202457
1.55386e-05
0.185545
-0.202442
-4.52487e-05
0.185617
-0.202404
-1.23105e-05
0.185636
-0.20253
0.000157614
0.185599
-0.202632
0.185664
-0.202368
-7.86399e-05
0.484951
-0.226247
5.33134e-05
0.484651
-0.226598
-4.86361e-05
0.48484
-0.226298
5.7706e-05
0.484852
-0.226476
0.000359347
0.484792
-0.22675
0.484861
-0.225909
-0.00017756
0.417709
0.0676937
8.79338e-06
0.417284
0.0674542
9.28964e-05
0.417569
0.0674611
0.000125105
0.417491
0.067603
2.81198e-05
0.417473
0.0676902
0.417573
0.0675894
-0.000568179
0.117023
0.301528
4.17938e-05
0.115242
0.301706
0.00036487
0.115976
0.301544
0.000161176
0.116331
0.301637
-0.000338286
0.11652
0.301727
0.116062
0.301447
-0.000983302
-0.197354
0.315635
4.86561e-05
-0.201928
0.316412
0.000891322
-0.200662
0.316069
0.00022018
-0.198802
0.316079
-0.00127688
-0.197705
0.315995
-0.200978
0.316038
-0.00211517
-0.409014
0.17866
-6.23261e-05
-0.415579
0.176884
0.00162941
-0.414276
0.1771
0.000327992
-0.410652
0.178243
-0.00266973
-0.408525
0.17899
-0.415518
0.176843
0.000195735
-0.497479
0.0897142
-0.00024769
-0.501381
0.0882014
-0.000610776
-0.500619
0.0884543
-6.51551e-05
-0.49797
0.0887907
0.00176357
-0.496496
0.0884345
-0.501569
0.0890951
0.00302251
-0.466715
-0.00175854
-4.98651e-05
-0.466061
-0.000683278
-0.00271193
-0.46616
-0.000554879
0.00050345
-0.466624
-0.00206188
0.00764131
-0.468232
-0.00274482
-0.465056
0.00186169
0.000985903
-0.37373
-0.0503475
-3.30546e-05
-0.371432
-0.0496506
-0.000933358
-0.371682
-0.0497638
0.000365122
-0.373482
-0.0503824
0.00213705
-0.376772
-0.0501837
-0.369387
-0.0491005
-0.00155889
-0.280317
-0.054558
0.000172683
-0.282777
-0.0530773
0.00215667
-0.282519
-0.0535817
-0.000121587
-0.279638
-0.0543838
-0.00565953
-0.280238
-0.0545509
-0.283858
-0.0535311
-0.00508783
-0.192076
-0.0460804
0.00104082
-0.196449
-0.0519073
0.00678594
-0.196574
-0.0513913
0.00176238
-0.191884
-0.0462852
-0.0111597
-0.189886
-0.0412009
-0.199046
-0.0542413
0.00229789
-0.143812
-0.000375192
-0.144359
-0.00213382
-0.145493
0.000207786
-0.143608
0.00589652
-0.144584
-0.144932
0.000789867
0.390878
-0.666609
-0.000120519
0.390833
-0.666983
-0.000369633
0.390781
-0.666469
-0.00021609
0.390883
-0.666973
-0.000200275
0.391039
-0.66775
0.390763
-0.665814
-9.06555e-05
0.732963
-0.494805
-0.00013821
0.732471
-0.494849
0.000154496
0.732504
-0.494937
0.000401328
0.732809
-0.495211
0.000541475
0.73301
-0.495424
0.732375
-0.493505
-0.000472877
0.744024
-0.00678601
-3.44352e-05
0.743551
-0.00810837
-0.000218326
0.743691
-0.00747242
0.00017152
0.743789
-0.00773075
0.00152632
0.743747
-0.00844631
0.743714
-0.00610917
-0.000726847
0.570424
0.206314
-5.59198e-05
0.570685
0.20521
0.000114648
0.570877
0.205363
3.60762e-05
0.570266
0.205967
0.000242174
0.569704
0.206216
0.571299
0.20523
0.00116836
0.349592
0.0651797
-8.0184e-05
0.348295
0.0670785
-4.51898e-05
0.346792
0.0673784
0.000418664
0.35037
0.0650437
0.00113161
0.350742
0.0644709
0.347609
0.0677909
0.00176157
0.196698
0.000675377
-0.000559833
0.202619
0.000533211
-0.00161606
0.200376
0.000575832
-0.000746528
0.198906
0.000613537
0.00133763
0.197041
0.000680945
0.201944
0.000482838
0.00109319
0.142731
-0.00737594
-0.000430589
0.148571
-0.00868757
-0.00189447
0.147255
-0.00856273
-0.000206122
0.14443
-0.00835089
0.00243796
0.142028
-0.00752041
0.149346
-0.00914652
0.000237003
0.130917
-0.00307788
-0.00022689
0.135398
-0.00366018
-0.001046
0.134793
-0.0035841
-0.000306523
0.131213
-0.0031522
0.00163791
0.127488
-0.00294088
0.13729
-0.0037952
-0.000809769
0.0992715
-0.0101478
-0.000133698
0.100534
-0.010367
-0.000418946
0.101195
-0.010461
-0.000398003
0.0990141
-0.00994217
-0.000980224
0.0958308
-0.00990632
0.103753
-0.0101875
-0.00269666
0.0396169
-0.0109623
0.000226587
0.0357584
-0.0106713
0.00172611
0.0369976
-0.0109094
7.63495e-06
0.0395718
-0.0106675
-0.00532732
0.0405242
-0.0107869
0.036676
-0.0105584
-0.00407938
0.0224796
-0.00119354
0.00131176
0.0133682
-0.0016751
0.00556648
0.0148735
-0.000759986
0.00255957
0.0224017
-0.000957044
-0.00724329
0.0283196
-0.00188397
0.0112774
-0.00155936
-7.55423e-05
-0.0159945
0.00212289
-0.0274107
0.00457606
-0.0261906
0.00355698
-0.0151713
-7.60903e-05
-0.00687063
-0.0276219
0.00170012
0.476819
-1.21581
-0.000418043
0.477829
-1.21615
0.000198936
0.476146
-1.21535
-0.000116136
0.477739
-1.21625
-0.00309242
0.480264
-1.21765
0.474495
-1.21422
-0.00521955
0.686968
-0.439663
-0.000652485
0.687482
-0.441994
0.00575202
0.686153
-0.444297
0.00251432
0.687755
-0.440228
-0.00822834
0.689822
-0.435214
0.683989
-0.444646
-0.00350028
0.588982
-0.0342232
-0.000721738
0.589513
-0.0356963
0.00399531
0.588227
-0.036116
0.00131832
0.589896
-0.0345992
-0.00589098
0.591415
-0.0331138
0.58666
-0.0365564
0.000402273
0.39749
-0.00092002
-9.84948e-05
0.395511
-0.00101466
-0.000565587
0.395629
-0.00109401
-9.33051e-05
0.397182
-0.00103176
-0.000151646
0.400482
-0.000966965
0.391302
1.12694e-05
-0.00547158
0.196414
-0.00101953
-0.000364885
0.187121
-0.00039437
0.00611883
0.186155
-0.000486917
0.00100878
0.195675
-0.000989544
-0.0102667
0.204202
-0.0013787
0.179013
-0.000366395
0.000416225
0.0524518
-0.00218857
-0.000747692
0.0627911
-0.00255064
-0.000280309
0.0609296
-0.00248245
0.000315701
0.0540497
-0.00235618
0.00125674
0.0526508
-0.00178516
0.0602461
-0.000957566
0.000740869
0.00900026
-0.00483729
-3.61325e-05
0.0163421
-0.00632173
-0.000441922
0.015343
-0.00601415
0.000909015
0.00934722
-0.00477158
0.00265461
0.00695802
-0.00496083
0.0183437
-0.00560499
-0.00156948
-0.0107257
-0.000124406
-0.000190863
-0.00828003
-0.000207634
0.000932506
-0.0083369
-0.000205651
-0.000268619
-0.011571
-9.44851e-05
-0.001063
-0.0145205
-6.22299e-05
-0.0031517
-0.000396596
-0.000690879
-0.0224576
0.000464059
-1.45509e-05
-0.022051
0.00049659
0.000227768
-0.0217225
0.000481907
-0.000730919
-0.0231909
0.000478637
-0.00287384
-0.0245203
0.000478326
-0.0203784
0.000522282
-0.00013489
-0.0263629
-0.000435797
1.81559e-05
-0.0261566
-0.000453481
2.98855e-05
-0.026233
-0.000475811
3.84708e-05
-0.0265022
-0.000452564
-0.000659087
-0.0266685
-0.00044639
-0.0253887
-0.000527213
0.000212404
-0.0172271
-0.017877
0.000137174
-0.0192376
-0.0172305
-4.56656e-05
-0.0186309
-0.0175615
0.000223559
-0.0174272
-0.0183086
0.000281596
-0.0158396
-0.0188453
-0.0186033
-0.0171173
0.0011599
-0.0370673
-0.000114038
-0.0383498
-0.00115875
-0.0382312
-0.000364964
-0.0371858
0.0012997
-0.0351274
-0.0380163
-0.00287742
0.206733
-0.5225
0.000791326
0.207421
-0.507393
0.0010003
0.207488
-0.513316
0.00165332
0.20713
-0.517635
0.00233883
0.206428
-0.514823
0.207474
-0.518986
-0.000385749
0.0356244
-0.00477626
-8.41832e-05
0.0370924
-0.00387842
-0.000504418
0.0375092
-0.00489861
-0.000697073
0.0359746
-0.00407401
0.000334976
0.0342408
-0.00263056
0.0372144
-0.0059183
0.000196928
0.000917621
-3.42632e-06
-3.93288e-05
0.0012593
0.000121385
-0.000238157
0.00126272
7.66822e-05
-0.000174707
0.000989271
-5.68953e-06
0.000223446
0.000577516
-0.000164648
0.000521569
4.61271e-05
5.58312e-05
-0.000106487
-0.000181562
-1.22217e-06
2.86308e-05
4.78027e-06
-5.68647e-05
3.33709e-05
-8.52531e-06
-1.17397e-05
-8.34334e-05
-0.000201309
9.80433e-05
-0.000181234
-0.000380071
8.52557e-05
-1.67006e-05
-1.77946e-05
-0.000885489
-0.000394363
4.04061e-06
-0.000385184
-0.000217552
3.15301e-05
-0.000383724
-0.000268746
3.16048e-05
-0.000769856
-0.00039678
1.58386e-05
-0.00124279
-0.000367829
-9.33689e-05
-0.000238381
-9.02773e-05
-0.0027247
-0.000356805
-1.09315e-05
-0.00276728
-0.000394061
9.50425e-05
-0.00274494
-0.00037339
3.51018e-05
-0.00281709
-0.000317246
-0.000103355
-0.00260362
-0.000283598
-0.00205212
-0.000283171
-8.27233e-05
-0.000589187
-0.000524644
-3.09268e-05
-0.000454207
-0.000341426
4.64111e-05
-0.000447489
0.000274797
-4.21842e-05
-0.000611851
0.000445353
-0.00032916
-0.000709879
0.000441294
-0.000289584
0.000353415
-4.92057e-05
-0.000717596
2.25574e-05
-7.40187e-06
-0.00075668
2.13125e-05
3.78624e-05
-0.000753554
2.45732e-05
5.3364e-06
-0.000735741
2.90496e-05
-7.3325e-05
-0.000755772
3.10626e-05
-0.000807881
2.00626e-05
4.27046e-06
-0.000265088
3.08072e-06
-2.85828e-06
-0.000262833
4.00366e-06
-7.38124e-06
-0.000276284
4.73323e-06
-6.10366e-07
-0.000272448
4.03161e-06
-5.12376e-06
-0.000280906
3.84285e-06
-0.00030407
5.86926e-06
2.82553e-06
-0.000702072
-7.21821e-07
-4.57263e-06
-0.000707603
-6.67149e-07
-8.74768e-06
-0.000746348
-7.52346e-07
-3.33887e-06
-0.000728614
-7.6414e-07
3.97757e-06
-0.000732556
-8.08784e-07
-0.000825683
-9.31945e-07
8.28141e-05
-0.0104207
-0.00148106
-2.26593e-05
-0.00962074
-0.0013888
-0.000103075
-0.00989137
-0.00145194
-5.39492e-05
-0.0109572
-0.00154044
9.47903e-05
-0.0119153
-0.00165024
-0.00983456
-0.00149564
0.000685377
-0.0229166
-0.00010618
-0.0222351
-0.000627819
-0.022444
-0.000370104
-0.0232426
0.000867943
-0.023958
-0.0223079
-0.0285445
0.0159737
0.0120007
-0.0286807
-0.0316063
0.0317668
-0.013008
-0.0337331
0.0180376
-0.00807863
-0.0232638
0.0183386
0.0304615
-0.067825
0.0285383
0.0120305
0.0169808
-0.00348255
-0.0269733
0.0454828
-0.0207174
-0.0867743
0.071735
0.0144347
-0.113999
0.0447978
-0.00118233
-0.0860486
0.0777581
-0.0239349
-0.113489
0.067538
-0.0377842
0.0271294
-0.0103226
-0.0910825
0.0574289
-0.00550585
-0.177279
0.0401581
-0.00217777
-0.21601
0.035808
-0.00763744
-0.144737
0.0632179
-0.0435445
-0.14484
0.0669714
-0.122284
0.0407979
-0.000961653
-0.117794
0.0228542
0.0182676
-0.193978
0.0129041
0.0198914
-0.187077
0.0117939
0.0101965
-0.110584
0.0164009
-0.00522304
-0.171772
0.0271539
-0.122615
0.0237663
0.0136964
-0.111244
-3.4568e-05
0.0131222
-0.160429
-0.00118435
0.0077583
-0.087644
0.00481748
0.000416368
-0.020322
0.00857956
0.00157831
-0.131474
0.00868042
-0.0817767
0.0120033
0.0162539
-0.121842
-3.12826e-05
0.00864046
-0.135002
-0.00175641
0.0041772
-0.0732895
0.00527586
-0.00464099
-0.017629
0.00376265
-0.00218908
-0.0947482
0.00373438
-0.156295
0.00474322
0.01208
-0.128638
-2.26046e-06
0.0124924
-0.124843
-0.000331576
0.00746447
-0.170429
0.00102436
-0.000332767
-0.0994402
0.00492096
-0.0109795
-0.0755583
0.0026731
-0.135318
-0.00273865
-0.00240624
-0.126339
-1.96773e-07
0.00114019
-0.128281
-2.62505e-05
0.00150393
-0.150257
-0.00097166
0.00363829
-0.121525
-6.64488e-05
-0.00264334
-0.0829627
-5.48359e-05
-0.108853
-2.25349e-05
-0.00956296
-0.0954349
-1.68795e-08
-0.0198273
-0.112335
-2.27535e-06
-0.0190213
-0.131435
-4.85545e-05
-0.000984862
-0.0896079
-1.2567e-06
0.00445889
-0.0632804
-3.58808e-05
-0.0827914
-3.42743e-06
-0.00483649
-0.0546015
-6.01657e-05
-0.0338721
-0.0849103
0.0019561
-0.0343681
-0.104457
-0.00211546
-0.0139977
-0.0600301
-0.000791183
0.0107483
-0.0442868
-0.00134897
-0.0662834
-0.000168021
-0.00176011
-0.0363619
-0.00584936
-0.0429409
-0.0495431
0.00244609
-0.0584058
-0.0607448
-0.00165565
-0.0153245
-0.0413069
-0.0258508
0.0290072
-0.0331053
-0.0282409
-0.037437
-0.00202003
-0.00290352
-0.0143312
-0.0209031
-0.0124875
-0.0284512
-0.0383333
-0.0118826
-0.0422341
0.0168595
-0.0455927
-0.0210273
-0.0275067
0.0382437
0.000296862
-0.011259
-0.0652499
0.0561625
-0.0176357
-0.001007
0.025446
-0.00604227
-0.0570807
0.0631747
0.0326913
-0.0786555
0.06758
0.0496746
-0.0011397
0.0578849
-0.0127848
0.0381818
0.00818212
-0.0498954
0.0744498
-0.0104092
-0.0399752
0.0873834
-0.0436239
-0.0661962
0.0811318
-0.067097
-0.0899894
0.0545488
0.0105631
-0.000771178
0.0116267
-0.0176922
0.0188202
-0.00118456
-0.0133829
0.000383801
-0.00957551
-0.0122766
-0.000230958
-0.0204672
-0.019144
-0.00368158
-0.0339004
-0.0310195
0.00436729
-0.0226055
0.00656612
-0.000895365
-1.18491e-05
4.02795e-05
-0.00356872
-3.02834e-05
-8.72097e-05
-0.00415038
-0.00140996
1.67754e-05
-0.00694295
-0.00645001
-5.00221e-05
-0.00642082
-0.0128676
-0.00104677
-0.0185582
-0.00149527
-4.05562e-05
2.30567e-06
-7.82107e-06
-0.00130895
6.46612e-05
-1.46612e-05
-0.00275773
-0.00127759
-6.42265e-05
-0.00258661
-0.00471763
-5.52365e-05
-0.00350938
-0.00674998
-0.000329293
-0.0143662
0.00014247
-3.03462e-05
2.17373e-06
-6.71191e-07
-0.001841
0.000121422
-2.84417e-06
-0.00212665
-0.000573472
-2.89165e-05
-0.000863416
-0.00470616
0.000216635
-0.000529631
-0.00260685
-1.90002e-05
-0.00131722
-0.000103692
-2.90815e-07
2.38303e-07
-4.52238e-08
-0.000239066
2.8676e-05
-1.12336e-07
-0.00149204
0.00102314
-2.11885e-06
-0.00151332
6.65295e-05
-3.93222e-05
-8.0338e-05
5.41987e-05
-4.32417e-07
2.22082e-05
-2.50041e-06
3.60385e-09
5.11978e-08
-2.12782e-08
7.58557e-08
2.67963e-06
-3.2303e-07
-2.86769e-08
5.20759e-05
-5.57367e-07
-5.96797e-08
3.39009e-08
-9.21045e-08
-2.84452e-08
-4.40627e-07
-3.66288e-07
-1.00919e-07
-4.24179e-07
6.16278e-09
2.13338e-08
-5.34094e-11
1.03294e-07
2.56764e-07
4.32797e-08
9.93055e-07
2.14357e-06
4.99156e-07
1.62536e-08
1.88964e-08
-3.5544e-07
3.59141e-07
-3.64365e-05
-3.97762e-07
-2.87619e-06
-4.87715e-07
1.40138e-06
-6.34258e-05
1.85881e-06
0.00203651
-0.00228302
3.16315e-05
6.22548e-05
-0.000154713
1.62129e-05
1.91521e-05
-0.000667053
-8.11298e-05
4.2814e-05
-0.00116676
-0.00024338
-8.54996e-05
-4.28546e-05
-0.0011977
-0.00763748
7.53337e-05
-0.000635675
-0.00302171
-0.00116998
-8.9385e-06
-0.00250392
-6.58861e-05
0.000395085
-0.0163051
-0.0106179
0.000384777
-0.020254
-0.00914908
-0.00276466
-1.71664e-05
0.000184936
-0.0133548
0.000330885
-0.020553
0.00200249
-0.0462384
-0.000661153
-0.0273141
-0.00279289
-0.023735
-0.00671082
-0.0128812
0.0823953
-0.0696462
0.0185038
0.0282512
-0.00451122
0.00317443
0.0681406
-0.0279989
0.00228721
-0.00218797
0.0652245
0.00662621
0.00378842
0.0592196
0.0770953
-0.071561
0.0700685
0.0737917
-0.0234232
0.0110917
0.00443366
0.0633411
0.0209157
0.0193788
0.0435403
-0.011814
0.00607912
0.0327209
-0.0713146
0.0129267
0.0229647
0.0908923
-0.085868
0.0146397
8.88583e-05
0.00833619
0.000630892
6.10812e-05
0.00615664
3.36984e-05
7.70629e-05
0.00500097
0.000581524
-1.56891e-05
0.00161974
-0.0285704
0.000488232
0.00382221
0.00360506
-0.0211137
6.75205e-05
1.47444e-06
3.23203e-05
-3.16695e-05
1.51123e-05
4.92639e-05
-5.61757e-05
6.66274e-05
4.23141e-05
-0.000189108
5.53791e-05
4.4609e-06
-0.00112853
0.000334332
3.98128e-06
-1.85991e-05
5.04305e-05
-7.67259e-07
6.171e-07
-6.88948e-06
-7.3039e-07
2.51816e-06
-2.40803e-06
-7.08925e-07
2.47972e-06
-2.08667e-06
-2.95598e-06
1.58428e-06
-8.81202e-07
-1.62749e-05
1.89708e-05
-1.67958e-06
0.000106405
-1.08238e-07
-2.13763e-08
3.64085e-08
-8.62409e-08
-3.7968e-07
6.81353e-08
-5.98742e-08
-2.76544e-05
8.75715e-07
-1.39846e-07
-5.6628e-08
4.05998e-05
-2.07754e-07
-2.75439e-07
4.39844e-07
-1.20801e-07
2.42544e-06
-1.79158e-07
-1.13814e-08
7.02878e-10
-6.59077e-09
-6.06403e-08
2.03157e-08
-3.62606e-08
-1.33035e-06
4.69761e-08
-3.66975e-08
-2.51135e-08
8.42301e-08
-1.09958e-07
-2.17565e-08
-4.22418e-09
-6.02061e-08
-9.08277e-08
-1.14191e-08
-3.53425e-08
3.58177e-08
-1.37829e-09
-5.32532e-08
1.54278e-07
-1.81153e-07
-6.11137e-08
3.71027e-08
-5.01081e-07
-1.31915e-07
4.32569e-08
-1.01784e-07
-1.22354e-07
-3.63655e-07
-7.89117e-08
-5.96751e-07
-1.45897e-07
-1.35179e-10
1.64387e-08
1.21279e-08
1.13843e-09
2.31261e-07
-4.20549e-08
5.45345e-09
2.72797e-07
2.57655e-07
7.24188e-07
-1.77233e-06
7.5855e-07
9.74384e-07
-3.62151e-06
1.90659e-06
-7.09038e-05
1.27883e-07
5.90239e-08
1.70168e-06
1.08258e-07
2.04944e-05
3.69099e-06
7.73675e-06
5.31571e-06
3.11757e-05
5.07111e-07
0.000260561
-0.00122595
0.000105743
0.000607128
-0.00267275
-0.000119357
4.4618e-05
5.57867e-05
-3.4928e-05
7.72809e-05
3.51584e-05
-5.26789e-05
-0.00338937
0.000477752
0.000405744
-0.00463166
0.0010469
0.00119396
-0.00310917
-0.0155015
0.000495301
-0.00231494
-0.0148428
0.000212087
0.000138318
0.00612971
-0.0376899
0.015146
-0.0379226
0.00279496
-0.0355317
-0.00100851
-0.0304636
-0.00469415
-0.0286391
-0.016532
0.00459518
0.0679989
-0.142383
0.0154556
0.0600631
-0.0758183
0.0128851
0.0641705
-0.0906569
-0.000453586
0.0268418
0.00494721
-0.0130642
0.0226026
0.00799228
0.0607799
-0.145361
0.0184308
0.064583
-0.0820586
0.00574962
0.0130179
0.0299748
0.011841
0.0134876
0.00321394
0.00378153
0.00461416
0.0108313
-0.012906
0.000777162
0.00768304
0.0171104
-0.000405539
0.00825431
8.49557e-05
-0.00143382
0.000139541
4.46747e-05
0.00722661
-0.000124169
4.01625e-05
0.00553956
0.000224356
1.92665e-05
0.00258126
0.000387747
9.15154e-07
0.00028777
-4.84204e-05
-0.000259299
2.99772e-05
7.93181e-06
8.78457e-05
-1.78078e-05
1.5134e-06
0.000128096
-1.62029e-05
2.14442e-06
7.30969e-05
-5.42198e-06
1.09351e-06
1.02442e-05
-1.78983e-06
1.18796e-06
-3.07682e-07
3.59049e-07
-1.16315e-07
1.11744e-06
9.9276e-08
-2.19927e-08
1.34179e-07
4.82451e-08
-1.11157e-07
-5.50527e-08
1.44314e-07
-1.03376e-09
-5.40622e-08
2.07005e-07
-1.43639e-08
-5.13791e-07
-3.24574e-08
-9.36137e-11
-2.78218e-07
1.28489e-10
1.94139e-08
-6.21837e-09
2.30391e-10
-2.39921e-09
6.68047e-11
8.80539e-09
-1.28049e-09
8.34738e-10
1.92216e-09
-2.20939e-09
2.54946e-10
-8.02843e-11
-1.29289e-09
1.66414e-10
-6.71462e-11
2.43175e-09
-4.6856e-09
-7.84868e-09
-1.45602e-08
8.68546e-10
-7.09848e-09
-2.7216e-07
1.35964e-08
-2.07093e-09
-4.12585e-08
1.11145e-09
-1.51424e-08
-9.61911e-08
-4.04352e-11
-1.0475e-09
1.37848e-08
-4.08172e-10
-1.00127e-08
4.22202e-11
-6.50191e-08
-4.31048e-09
1.28692e-08
-1.93125e-07
-6.71856e-07
2.32441e-07
-8.1068e-08
-1.55275e-06
6.11538e-08
-2.19947e-08
-2.61365e-07
6.3741e-09
-3.44093e-08
-5.06451e-08
-1.2208e-09
-1.88374e-07
-7.87925e-09
4.70703e-09
-6.73929e-09
6.69011e-09
-3.91882e-07
-2.66943e-07
7.09692e-07
-2.37014e-06
-5.04506e-06
3.05073e-06
1.15679e-10
-1.8877e-06
1.08718e-07
4.64748e-07
1.2882e-06
9.89138e-08
-2.58158e-05
6.57169e-08
8.12444e-09
4.92951e-08
4.09382e-08
-8.01911e-07
6.02544e-06
2.26912e-06
-4.22839e-05
2.68363e-05
1.16704e-05
6.60328e-05
6.38516e-06
-9.80535e-06
6.63008e-05
-0.000112834
-1.0373e-05
1.88301e-05
-6.48322e-06
1.54601e-06
7.58435e-07
-1.3193e-05
1.29869e-05
0.000460579
-1.15769e-05
0.000187435
0.000896432
3.33817e-06
0.00130089
-0.0136017
-0.00260576
-3.1425e-05
-0.0199694
-0.00228617
0.000205848
-7.80957e-05
0.00285765
-0.0324001
0.00709509
-0.0343916
0.014253
-0.0374581
0.00197007
-0.0279324
-0.0161617
-0.0269896
-0.0319726
-0.000668128
-0.00133655
0.0038044
0.000349294
-0.000811533
0.00328187
-0.000285933
-0.000793096
0.00425742
0.000398504
-0.00116881
0.00329216
0.00261209
-0.00143395
0.0018554
-0.000810924
0.00523354
-1.92787e-05
2.37765e-06
-0.00137255
1.05871e-05
-3.17746e-05
-0.000847636
-8.66573e-06
-3.16916e-05
-0.000780141
-9.60085e-07
1.45194e-07
-0.00124532
6.12632e-05
1.48476e-05
-0.0015363
-3.19025e-05
-0.000750188
-1.19292e-05
-0.00069961
1.48426e-05
-0.000738893
-2.04408e-05
-0.00066659
5.56504e-06
-0.000744118
0.000118728
-0.000864665
-0.000569523
1.94417e-05
-0.00103136
-0.00025357
-4.06239e-06
-0.000705961
-0.000119448
-2.38527e-05
-0.000779055
-0.000117879
-1.75655e-05
-0.000881494
-0.000238226
1.60847e-05
-0.000793378
-0.000383085
-0.000867201
-0.000118248
2.8197e-05
0.000863565
-0.00061701
-9.28064e-06
0.000543149
-0.000386796
-1.23649e-05
0.000490944
-0.000389364
-3.55715e-05
0.000807548
-0.000708211
4.55044e-05
0.00105698
-0.00107855
0.000473022
-0.000346525
3.49118e-06
-0.00237663
1.93864e-06
-0.00100179
5.99893e-05
-0.000993667
3.75755e-05
-0.00251816
-7.39543e-05
-0.0025279
-0.000908392
1.94056e-05
-4.61043e-05
-0.000482247
-1.69847e-06
2.17103e-05
-0.000273476
-2.39006e-05
1.9812e-05
-0.000290758
-1.627e-05
-8.9275e-06
-0.000541504
4.59327e-05
4.29115e-05
-0.000969616
-3.3468e-05
-0.000309489
2.08094e-05
0.000482268
-0.00237458
-4.48007e-06
0.000846277
-0.0014419
-1.94055e-05
0.000778001
-0.00138846
-1.86259e-05
0.00054304
-0.00406275
4.93249e-05
0.000835289
-0.00433979
0.000879049
-0.00201643
-8.77706e-05
-0.00267494
-3.37841e-05
-0.00258886
8.19194e-05
-0.00243308
4.10886e-06
-0.00236821
-0.000177651
-0.00196426
-0.00225731
2.73004e-05
0.00137828
-0.0040787
1.58868e-06
0.000490682
-0.000989495
7.04963e-07
0.000507595
-0.00156852
8.75362e-05
0.000752828
-0.0043168
0.000110258
0.000974002
-0.00466601
0.000717527
-0.00171414
1.70801e-05
0.000898045
-0.00429879
-1.78082e-05
0.00131636
-0.00315092
-6.61407e-05
0.00131427
-0.00292677
-9.78696e-06
0.000792097
-0.00327645
0.000139904
0.000237696
-0.00287126
0.00187154
-0.00309206
-6.19229e-05
-0.000948105
-4.28292e-05
-0.00111027
-2.84255e-05
-0.00110953
-7.20671e-05
-5.63439e-13
-5.70213e-05
-3.99559e-13
-0.00142412
-2.55e-05
0.000502091
-0.00358541
1.61022e-06
0.000956418
-0.00300439
8.30514e-05
0.000743015
-0.00326153
8.54049e-05
0.000484944
-0.00339092
6.7898e-05
0.000151183
-0.00333018
0.000757842
-0.00266393
8.5458e-06
-0.000610869
-6.53175e-07
-6.94461e-05
-0.000498276
-2.78302e-07
-9.42462e-05
-0.000311134
-0.00025094
-3.8119e-05
-4.97978e-13
-2.20461e-07
-1.27285e-05
-5.93377e-13
-3.97833e-06
-7.7269e-05
-0.000236132
1.73329e-06
-4.81917e-11
-1.24515e-05
-3.19964e-11
-1.06038e-14
-2.87844e-11
-6.92296e-16
-1.07095e-12
1.00596e-14
-1.00369e-12
-1.91991e-11
-1.16285e-05
-5.53368e-08
-0.00102471
-1.32435e-05
-2.15843e-08
-0.00051439
-1.73336e-05
-3.11017e-05
-0.000561783
-4.83434e-05
-2.59226e-08
-0.000479234
7.41536e-07
-5.83624e-07
-0.000478198
1.28384e-05
-0.000446929
1.1446e-10
-1.39116e-12
-7.08629e-07
-2.84751e-07
-9.49792e-13
-1.50248e-08
-4.96648e-10
-2.02555e-12
-2.67033e-07
-9.93751e-09
-4.43114e-11
-2.36902e-07
-4.12502e-06
-4.70059e-11
-4.46832e-07
-6.06703e-12
-3.81578e-06
7.59065e-14
-4.96588e-11
-2.04935e-14
-3.28519e-11
-1.4812e-13
-3.06823e-11
-4.30534e-14
-4.54874e-11
1.41125e-13
-4.81938e-11
-2.51291e-11
-6.10713e-07
2.83776e-07
-2.48852e-05
1.85845e-07
-3.82444e-08
-2.35079e-05
5.57163e-07
-5.80562e-08
-2.70181e-05
-1.01725e-06
-2.00576e-07
-3.21382e-05
-3.6421e-06
5.25212e-08
-3.56418e-05
3.49045e-06
-2.30538e-05
1.65879e-08
-3.08388e-09
-4.4144e-07
-6.59337e-11
-1.09332e-09
-1.73862e-07
-2.26295e-08
-8.58569e-10
-3.01838e-07
-3.0911e-08
-2.73935e-09
-4.2917e-07
2.48603e-08
-2.98013e-09
-4.52825e-07
-1.37402e-09
-3.00605e-07
1.88805e-12
-3.13436e-09
-2.66797e-13
-1.12407e-09
-2.84864e-12
-8.86652e-10
-9.6798e-13
-2.78172e-09
2.60128e-12
-3.01681e-09
-1.39662e-09
-5.91674e-07
4.47839e-07
-3.52272e-06
-9.14145e-08
1.44236e-07
-4.02813e-06
7.98334e-07
2.53456e-07
-4.71517e-06
4.79677e-07
4.30485e-07
-4.56073e-06
-1.11405e-06
4.62491e-07
-4.75474e-06
2.54576e-07
-5.37254e-06
1.94462e-08
-3.6115e-09
-3.48865e-08
3.06203e-09
-4.63985e-09
-2.69667e-08
-2.11817e-08
-6.24734e-09
-3.5348e-08
-2.41597e-09
-3.01305e-09
-3.70976e-08
2.07038e-08
-3.06147e-09
-3.56149e-08
-5.89617e-09
-3.47434e-08
4.07149e-11
-7.52322e-09
-6.18156e-12
-6.19345e-09
-5.29866e-11
-7.43124e-09
-2.82638e-12
-7.05917e-09
7.27332e-11
-7.04565e-09
-7.63171e-09
-2.2047e-07
3.47074e-08
-3.72119e-07
-7.3312e-08
5.35508e-08
-4.3348e-07
1.898e-07
5.3123e-08
-4.78892e-07
-5.52941e-08
3.5561e-08
-4.33541e-07
-6.89254e-07
2.7195e-08
-4.11787e-07
7.76209e-08
-5.45313e-07
-3.46069e-09
-2.218e-08
3.67253e-08
-1.75987e-09
-2.7788e-08
5.42632e-08
1.04031e-09
-2.86604e-08
5.67754e-08
-2.0691e-09
-2.32413e-08
3.81097e-08
-9.74633e-09
-2.18459e-08
3.47366e-08
-4.0058e-08
8.36352e-08
-8.1373e-11
-2.32589e-09
-5.34662e-10
-3.34786e-09
-9.41096e-10
-3.1784e-09
-4.76045e-10
-2.37191e-09
4.52076e-10
-1.99504e-09
-3.42657e-09
-1.01619e-09
-2.57574e-08
-1.06209e-06
2.8537e-09
-3.62386e-08
-1.04334e-06
8.51909e-09
-4.04677e-08
-1.13838e-06
-5.51661e-09
-2.72124e-08
-1.15731e-06
-4.42984e-08
-3.27785e-08
-1.14582e-06
-6.41405e-08
-1.40229e-06
-1.11204e-10
-3.23016e-09
1.50481e-08
1.24912e-10
-1.48822e-10
1.74606e-08
2.46917e-10
-1.05597e-09
1.72852e-08
4.98218e-11
-2.60341e-09
1.51551e-08
-3.53557e-10
-1.04215e-08
1.38142e-08
-1.28924e-09
2.00188e-08
-6.44427e-10
8.65694e-08
-6.28505e-10
8.79436e-08
-4.25441e-10
8.73171e-08
-3.58846e-10
8.805e-08
-2.15859e-09
8.33661e-08
8.72675e-08
-7.13326e-07
-5.70661e-08
-0.00148137
2.56737e-06
-6.02979e-08
-0.00139307
4.46925e-06
-5.97169e-08
-0.00145493
2.4609e-06
-5.77493e-08
-0.00153954
-2.0709e-06
-5.49456e-08
-0.0016468
-6.41512e-08
-0.00149905
-5.25522e-12
-4.2557e-08
5.34174e-10
1.18671e-11
-4.34269e-08
5.63131e-10
1.9553e-11
-4.30074e-08
5.59322e-10
1.16498e-11
-4.31341e-08
5.40318e-10
-1.06995e-11
-4.16423e-08
5.2024e-10
-4.47529e-08
6.0035e-10
4.96952e-11
4.87669e-10
-7.75158e-11
5.01632e-10
-1.29524e-10
4.96914e-10
-9.08107e-11
4.94678e-10
-1.93387e-11
4.74655e-10
5.19842e-10
9.77532e-06
-1.019e-09
-0.0236424
-1.68415e-05
-1.06001e-09
-0.0236531
-1.68004e-05
-1.0521e-09
-0.0236295
-4.42598e-06
-1.03258e-09
-0.0236348
4.66367e-05
-9.9396e-10
-0.0236265
-1.11481e-09
-0.0235442
-1.54942e-14
-4.86539e-10
1.55174e-12
1.45334e-13
-4.98754e-10
1.55191e-12
2.23047e-13
-4.94542e-10
1.52615e-12
1.38576e-13
-4.93937e-10
1.59926e-12
-2.8924e-14
-4.75327e-10
1.58841e-12
-5.16229e-10
1.57153e-12
-5.13682e-13
1.64375e-12
6.60314e-13
1.70358e-12
1.36032e-12
1.67263e-12
4.30982e-13
1.67104e-12
-1.82203e-12
1.58178e-12
1.79087e-12
-0.000175786
-1.00334e-12
-0.0154744
0.0229333
0.000295778
-5.15809e-13
-0.0152782
0.0219479
0.000974825
-1.5114e-13
-0.0151402
0.021836
0.000298758
-6.2085e-13
-0.0151657
0.0230842
-0.000343691
-1.81608e-12
-0.0150526
0.0236569
-7.59403e-13
-0.0156074
0.0227243
-3.48545e-16
-1.00788e-12
1.1355e-16
4.77411e-15
-1.03861e-16
-5.18314e-13
8.43551e-17
2.17511e-15
-3.15783e-16
-1.51497e-13
7.84894e-17
4.89846e-16
-1.14639e-15
-6.21548e-13
2.09011e-17
1.50775e-15
-1.86174e-16
-1.81887e-12
3.58946e-16
1.47537e-15
-7.60797e-13
3.28907e-17
1.17551e-15
2.18314e-14
1.85079e-27
-5.2153e-14
2.30266e-14
1.61521e-27
-3.72838e-14
1.74195e-14
2.19686e-27
-5.7775e-16
5.14093e-14
1.74816e-27
-5.31399e-17
3.38035e-14
2.80549e-27
-1.95329e-18
1.38282e-27
-2.12691e-17
-0.000439704
1.31604e-16
-0.00861824
-0.000858052
1.07618e-16
-0.0083223
-0.000949728
1.18259e-16
-0.00804899
-0.000524311
3.60482e-17
-0.00810387
0.000203848
7.47248e-16
-0.00811429
5.55898e-17
-0.00818064
1.8773e-18
3.80415e-27
2.35835e-16
5.78702e-18
3.32165e-27
1.8419e-16
2.66848e-18
4.7001e-27
2.71495e-16
6.14178e-17
3.61731e-27
5.3569e-17
1.22353e-18
5.83097e-27
1.72206e-15
2.45115e-27
1.06575e-16
-1.40263e-28
1.55704e-27
-1.76757e-28
1.52308e-27
-2.40681e-28
1.74516e-27
-8.98235e-29
1.72233e-27
-4.07839e-29
3.29944e-27
1.18787e-27
-0.000263888
1.69049e-16
-0.000423145
-0.000251955
1.46332e-16
-0.000382015
-3.14482e-05
2.3213e-16
-0.000287796
2.05522e-05
4.48875e-17
-0.000148335
-3.33711e-05
1.49036e-15
-4.92951e-05
9.49174e-17
-0.000218767
1.592e-17
3.15878e-27
6.64124e-17
2.87713e-17
3.03401e-27
5.38406e-17
4.15719e-18
3.26883e-27
8.97871e-17
9.63091e-17
2.89211e-27
9.78612e-18
3.43064e-18
5.21096e-27
4.89291e-16
1.90866e-27
2.63602e-17
-9.27085e-29
-3.35964e-28
-1.55667e-28
-2.77111e-28
-1.93584e-28
-2.41547e-28
-1.43662e-28
-1.69461e-28
-1.04125e-28
-2.75139e-28
-9.82045e-29
-6.55481e-05
1.33495e-16
0.00786889
-0.000168957
1.08742e-16
0.00790547
-0.000272817
1.8511e-16
0.00793732
-0.000204975
2.15527e-17
0.00795938
-1.82248e-05
1.18158e-15
0.00798228
6.36926e-17
0.00795377
1.57708e-18
3.1243e-27
-3.23549e-17
6.4497e-18
3.62818e-27
-2.8271e-17
1.15297e-18
3.94971e-27
-5e-17
5.63483e-17
3.76348e-27
-5.78927e-18
5.93614e-19
4.13811e-27
-3.22228e-16
2.84429e-27
-1.89351e-17
-4.27749e-29
-2.11307e-27
-8.49642e-29
-2.43494e-27
-1.00634e-28
-2.64024e-27
-6.03272e-29
-2.49236e-27
-2.17777e-29
-2.72859e-27
-1.88177e-27
-5.3845e-05
1.72788e-16
0.0161525
-0.000160947
1.40763e-16
0.0162015
-0.000272425
2.4891e-16
0.0161746
-0.000203986
2.00034e-17
0.0160683
-2.05832e-05
1.55559e-15
0.0160177
8.1292e-17
0.016132
6.41214e-19
3.32604e-27
-2.9853e-17
6.61334e-19
3.89359e-27
-2.44789e-17
2.1093e-20
4.24541e-27
-4.40822e-17
1.16326e-18
4.14107e-27
-3.4255e-18
1.03698e-19
4.57227e-27
-2.66772e-16
3.19676e-27
-1.45609e-17
-1.53075e-29
-1.94269e-27
-4.09417e-29
-2.25152e-27
-6.40524e-29
-2.45394e-27
-4.3868e-29
-2.35832e-27
-3.59695e-30
-2.58892e-27
-1.80748e-27
2.23544e-05
-3.19119e-12
-4.28968e-05
-3.25561e-12
-6.80351e-05
-3.19789e-12
-6.13918e-05
-3.27093e-12
-1.70649e-05
-3.17123e-12
-3.3654e-12
1.47773e-16
-1.63963e-12
-1.53144e-16
-1.70342e-12
-3.98746e-16
-1.67153e-12
-1.37489e-16
-1.67194e-12
5.70883e-16
-1.5838e-12
-1.79332e-12
4.11475e-15
4.26999e-15
5.36661e-15
4.46959e-15
2.44742e-15
-0.0242831
-0.120185
0.00195761
0.00772981
-0.0273692
0.0199269
-0.00941116
-0.0909414
0.0170381
-0.00191345
-0.0297677
0.0153069
0.017128
-0.00548753
0.00853222
-0.0905795
-9.99447e-05
-0.00325755
0.00845114
-0.000650015
0.00494071
-0.000206705
0.00043869
0.0124893
0.0220841
-0.000194322
-0.022233
0.0460472
-0.00623369
-0.000548718
-0.000276681
0.0003442
-0.00716065
-0.000125112
-0.000167912
-7.91384e-07
0.000350346
-0.000724962
-0.000943894
-6.15463e-06
-0.000920075
-2.54434e-05
-0.000970805
-0.000225951
-1.3537e-05
0.00543184
-0.000326784
0.000324749
-0.000370633
0.00228084
-0.000193783
0.00294376
-5.21026e-05
-0.00416019
0.00131918
0.00638699
-0.00215595
0.000496373
0.00301432
-0.000217796
-1.86394e-06
-1.21866e-05
-0.000927182
-2.23933e-08
-4.9572e-05
-2.718e-05
0.000304733
0.000754725
-4.47842e-05
-1.25312e-07
-0.000228818
0.000193757
2.47709e-05
-9.64506e-05
-2.7796e-06
7.24552e-05
0.00112932
-2.10387e-07
-0.000130072
8.20829e-09
-8.21985e-07
-2.4573e-07
-6.57439e-05
-2.68471e-07
-6.2572e-06
1.34576e-08
-9.54528e-07
-3.55431e-07
-6.10517e-05
-1.41028e-05
-0.000969226
-0.000116199
-4.9678e-05
-0.000369649
0.000772144