/*--------------------------------*- C++ -*----------------------------------*\
| =========                 |                                                 |
| \\      /  F ield         | OpenFOAM: The Open Source CFD Toolbox           |
|  \\    /   O peration     | Version:  v1612+                                |
|   \\  /    A nd           | Web:      www.OpenFOAM.com                      |
|    \\/     M anipulation  |                                                 |
\*---------------------------------------------------------------------------*/
FoamFile
{
    version     2.0;
    format      ascii;
    class       surfaceScalarField;
    location    "6.15";
    object      alphaPhi;
}
// * * * * * * * * * * * * * * * * * * * * * * * * * * * * * * * * * * * * * //

dimensions      [0 3 -1 0 0 0 0];

internalField   nonuniform List<scalar> 
816
(
-2.87022e-06
-9.56005e-06
2.97318e-06
-7.09854e-06
-1.26688e-05
2.92278e-05
3.00247e-06
5.43896e-06
-2.057e-06
9.31552e-06
-1.85828e-05
-7.64814e-06
-4.44968e-08
4.52699e-06
5.80282e-06
-1.22127e-05
-1.86168e-06
7.57585e-06
1.10731e-05
-2.14545e-05
9.02066e-09
-6.21325e-09
1.23288e-06
-3.35764e-09
3.30855e-09
6.42509e-09
-1.67981e-06
-1.2949e-09
8.26236e-10
-5.81862e-10
1.68327e-06
-2.48808e-09
4.78268e-09
-8.59414e-10
-4.68577e-06
1.9838e-09
-1.91278e-09
-2.62275e-09
-4.86878e-06
3.49943e-09
-2.50285e-09
-1.41719e-11
1.25759e-06
2.34112e-10
-5.89533e-10
-1.30296e-09
3.84823e-06
-2.32348e-09
5.3584e-09
-3.22639e-10
2.50274e-06
-1.45033e-09
1.07203e-09
4.3133e-09
1.5879e-06
1.30374e-09
2.2621e-09
2.10098e-09
-5.21299e-06
-1.95328e-09
4.92014e-09
-5.39483e-09
1.68406e-11
-1.41454e-09
-3.28793e-10
-2.18411e-06
-3.75301e-09
-1.42301e-09
1.20669e-05
3.63511e-06
-2.2009e-05
-3.9164e-07
1.18299e-05
1.78404e-05
-2.47628e-05
3.94662e-06
1.28909e-05
4.82182e-06
-2.15562e-07
-1.2909e-06
2.17364e-05
-2.54496e-06
9.11093e-06
-7.85135e-06
-2.19713e-06
-1.25871e-06
-5.2766e-06
4.57382e-07
-4.31798e-06
2.56885e-06
-2.44903e-05
5.52596e-06
1.21345e-05
6.01199e-06
-1.84857e-05
-9.86756e-08
1.8053e-05
8.41082e-06
1.21244e-05
-1.27748e-05
6.64936e-06
9.69175e-06
-3.23965e-05
7.85616e-06
2.85535e-05
1.76727e-05
-3.13155e-05
3.41838e-06
8.6096e-06
-7.64746e-07
2.49787e-05
4.70378e-06
-1.12842e-05
-1.49774e-05
5.68803e-06
5.89463e-06
-6.05877e-06
-1.99467e-07
-1.17147e-05
-1.05113e-06
-1.13649e-05
-1.06155e-05
-3.40609e-06
2.06279e-06
1.10665e-07
-1.77389e-06
-1.19985e-05
2.57375e-06
3.53401e-06
3.00509e-06
-1.95054e-06
-2.89277e-06
2.34257e-07
-2.13454e-06
-1.16801e-05
-2.71331e-06
-9.93978e-06
-2.90198e-06
-8.4273e-06
-1.80135e-06
-3.61076e-06
6.35885e-06
6.39991e-06
-1.56584e-06
-1.57159e-05
-7.51568e-06
-1.1197e-05
-1.08048e-05
-1.39535e-05
-3.63422e-06
-9.84805e-07
1.08291e-05
-2.77891e-06
-7.56623e-06
-5.26689e-06
-3.33832e-06
-2.30821e-06
-5.90134e-06
2.53274e-06
-3.23173e-06
-3.76579e-06
1.33518e-06
3.94772e-06
-1.45029e-06
3.17383e-06
-4.39289e-06
2.01356e-07
2.996e-06
1.06868e-06
-6.98404e-07
4.58291e-06
4.10466e-06
-4.07443e-06
-3.56434e-07
-8.17454e-07
-3.92703e-06
-7.19855e-06
-1.75478e-06
-1.77474e-06
1.27224e-06
-1.2318e-06
-7.07461e-06
-1.42262e-08
2.34804e-06
1.51812e-06
-5.09445e-07
-4.41761e-07
3.19439e-07
-1.15107e-06
-1.82928e-06
-1.51384e-06
-5.3651e-06
-3.46153e-06
-2.09827e-06
-6.43267e-07
-2.9557e-06
-1.16685e-06
4.61439e-06
1.0044e-06
-7.29642e-07
-5.01708e-06
-6.48962e-06
-4.66935e-06
-5.88694e-06
-1.69258e-06
-4.12009e-06
-1.71683e-07
-1.4095e-06
3.28365e-06
-2.93608e-06
-2.62094e-06
-2.54395e-06
1.97549e-09
-6.84474e-10
1.62308e-06
-1.59257e-09
7.58347e-09
-1.51507e-06
-2.10199e-10
3.82971e-09
-1.45156e-06
-1.63697e-10
3.80655e-09
3.7134e-06
-1.47916e-09
1.78454e-09
2.34896e-06
-3.54437e-09
-3.1318e-09
-8.87591e-10
1.18995e-10
-2.68257e-09
-3.53293e-09
5.01503e-07
-4.51004e-09
-9.8464e-09
-2.02154e-06
-3.33029e-09
-6.51944e-09
-4.43349e-06
-1.53978e-09
2.45834e-09
5.30311e-06
-3.9966e-09
-3.6506e-09
-1.16757e-10
5.96583e-08
-3.11666e-09
-3.28489e-09
4.03375e-11
-8.79891e-09
-2.52823e-09
1.29446e-07
-2.58494e-09
-3.71852e-09
1.33506e-10
-2.46176e-09
3.63861e-09
2.96387e-07
-5.90011e-09
-5.42964e-09
1.39835e-09
-3.74433e-06
-2.6129e-10
-2.53658e-09
2.77307e-12
-4.00389e-09
-2.94396e-09
-4.87018e-06
-2.23052e-09
-3.47858e-09
-5.65451e-06
-1.2896e-09
-7.14687e-07
-4.32503e-09
-2.14532e-09
-1.32075e-05
1.72115e-06
1.65449e-05
6.49389e-06
4.09592e-07
-1.53341e-05
-2.23732e-06
2.27414e-06
-1.35564e-05
1.39303e-05
-6.92943e-07
3.52192e-06
1.18185e-05
1.48048e-05
3.67604e-05
-1.81446e-05
-2.48378e-05
2.13798e-06
4.54561e-05
-2.63417e-06
-7.43205e-06
3.19419e-05
-2.74836e-05
-3.07602e-05
5.40239e-05
-3.42961e-05
-2.28126e-05
-4.00626e-06
-4.63813e-06
1.32458e-05
-1.35715e-05
5.90655e-07
-1.42045e-05
-2.3903e-06
3.09787e-05
-2.60622e-06
-1.83196e-05
4.01272e-05
-2.09059e-05
3.3355e-06
-3.65056e-05
-5.04737e-06
4.75726e-06
3.04469e-05
-1.61609e-05
2.32907e-05
1.88512e-05
-2.73664e-05
-8.82721e-06
1.94799e-06
2.46715e-05
1.39235e-05
-1.37805e-05
3.4779e-05
-1.81666e-05
-9.11946e-06
7.08756e-06
-1.2846e-05
-2.95984e-06
-2.01469e-06
-6.30589e-06
2.73163e-05
-1.30915e-05
-2.01626e-05
6.397e-06
2.05197e-06
7.59511e-06
-4.75809e-06
-1.75358e-06
-7.91936e-06
-3.04797e-07
-4.73382e-06
-5.21085e-06
-8.76608e-06
-1.84158e-06
1.77079e-06
-2.89125e-06
-6.28067e-06
1.72313e-05
1.23986e-05
1.1584e-05
1.86948e-06
2.05675e-05
4.76685e-06
5.81797e-06
1.45731e-05
1.64289e-05
1.55703e-05
2.46498e-05
1.98377e-05
8.91456e-06
-2.1688e-06
2.06473e-06
-7.20638e-06
-6.21156e-06
2.52291e-06
6.2376e-06
1.13995e-06
1.3759e-05
-1.11309e-06
1.12441e-05
1.82033e-05
1.00091e-05
-3.44682e-06
-1.60041e-05
5.66502e-07
-2.04166e-06
1.38426e-05
7.67077e-06
-7.98661e-06
8.51164e-06
1.15304e-05
4.76302e-06
-1.1289e-07
1.11648e-05
-5.58315e-06
8.03375e-06
1.53986e-05
7.58313e-06
5.39653e-06
4.09557e-06
2.82781e-06
2.13651e-06
-8.03939e-07
-1.31243e-06
1.18578e-05
7.29427e-06
1.23505e-05
3.64163e-06
1.11485e-06
2.64651e-06
-2.74238e-06
-1.54176e-06
-2.53056e-06
-1.00533e-06
-3.50165e-06
2.68186e-07
-5.25632e-06
-1.0365e-06
8.90195e-08
-1.99655e-06
-3.1977e-06
5.24845e-06
6.91444e-06
7.23597e-06
7.79882e-07
7.47026e-06
2.06776e-06
3.50046e-06
4.70652e-06
8.67397e-06
9.39194e-06
7.8661e-06
1.12048e-05
5.53408e-06
-8.20683e-07
9.67585e-07
-4.54749e-06
-5.5435e-07
1.15457e-06
3.24217e-06
4.30872e-07
4.01991e-06
-6.22002e-07
6.22819e-06
5.97155e-06
5.79564e-06
-2.13045e-06
-3.82284e-06
7.99366e-07
-1.02717e-06
4.16819e-06
3.55513e-06
-4.46571e-06
2.52146e-06
6.30764e-06
3.12072e-06
-2.00516e-07
4.12546e-06
-3.70894e-06
4.28882e-06
4.6001e-06
4.59957e-06
3.27182e-06
1.89648e-06
1.782e-06
1.44135e-06
-3.1181e-07
-1.28876e-06
2.79647e-06
4.64286e-06
6.97733e-06
-7.1582e-07
-2.69337e-06
1.35305e-06
-1.70316e-06
1.5797e-06
5.63468e-07
3.27181e-07
-3.06184e-06
-2.77082e-07
1.72047e-06
-6.59973e-07
3.28929e-06
-3.34274e-06
7.10827e-07
7.87871e-08
-3.2382e-06
-1.29144e-06
7.98125e-07
-4.08396e-07
-3.63436e-06
2.37517e-07
3.92617e-07
-7.37597e-07
-8.34019e-07
-9.28306e-07
-5.04823e-07
-2.77759e-06
-7.555e-07
1.72035e-07
-1.12097e-06
1.10138e-06
-1.07369e-06
-1.49387e-06
-3.22594e-06
-3.06908e-06
-3.95167e-07
-4.33086e-07
-1.04663e-06
-1.93297e-06
-3.29022e-07
1.01567e-06
1.04711e-06
-1.34242e-06
-1.44413e-06
2.92105e-08
-7.2977e-07
-1.7222e-06
-4.39328e-07
-5.87349e-07
-1.17725e-06
2.48344e-06
3.51164e-06
1.14622e-06
1.52724e-06
2.15805e-06
4.10276e-06
4.78945e-06
4.40809e-06
2.28609e-06
1.18627e-06
-1.25381e-06
8.02883e-07
2.1772e-06
3.93485e-07
-3.97843e-07
3.23887e-06
3.30249e-06
-2.77881e-08
5.61911e-07
4.98223e-08
2.60962e-06
-2.03437e-06
3.00196e-06
1.60406e-06
5.13425e-09
-1.15127e-06
1.99251e-06
2.20099e-06
2.24312e-06
5.87374e-07
1.28789e-06
3.11635e-07
2.18347e-06
2.95612e-06
3.96725e-09
-1.855e-09
1.51071e-07
6.72117e-09
2.33655e-06
7.1538e-09
2.1018e-06
2.95741e-09
1.80665e-11
2.33741e-09
-4.47762e-06
-2.99406e-09
-4.46727e-06
2.75341e-09
5.85605e-06
1.79482e-09
2.20895e-06
-1.46497e-09
-6.29386e-06
-2.3127e-09
-4.00094e-06
-4.22829e-09
-2.35806e-06
-3.9894e-09
1.08167e-06
-4.12607e-10
-4.01484e-06
-3.53015e-10
6.74378e-07
-1.35389e-09
1.19012e-06
-1.55795e-09
2.29411e-06
-3.56595e-11
9.26454e-07
-6.02673e-10
1.9139e-07
-4.88142e-09
1.05867e-07
-4.96457e-09
2.69698e-06
6.1077e-09
8.81189e-07
3.53497e-09
9.46309e-07
2.51945e-09
-7.06334e-06
-3.12528e-10
-6.75904e-07
-1.93263e-09
4.89387e-06
-4.44156e-09
-0.000113253
-3.13541e-09
-6.31717e-07
-9.63885e-06
4.81309e-06
-6.29287e-06
-1.1278e-05
6.06476e-07
1.94726e-05
1.60836e-05
-9.8427e-06
7.67871e-07
3.06814e-05
-2.15828e-05
2.04243e-05
-3.3708e-05
-1.58384e-05
2.19071e-05
-3.40773e-05
2.16017e-05
-1.57365e-05
-1.37581e-05
1.92617e-05
-9.30523e-06
-4.0181e-05
1.09725e-05
-5.997e-05
1.97625e-05
-8.8552e-06
5.75636e-06
4.39781e-06
-1.24521e-05
2.01098e-05
-2.85639e-06
-1.91558e-05
-3.3644e-06
4.68804e-06
-5.18452e-06
-1.71589e-05
-1.79949e-06
-7.01104e-06
-6.0253e-06
-1.22955e-05
-7.84273e-06
-1.52685e-05
3.06033e-05
-3.54157e-05
1.69222e-05
8.75384e-06
-1.39746e-05
2.8081e-05
-5.58061e-06
-2.54792e-05
-2.74585e-06
1.57002e-06
-4.32711e-06
1.19923e-05
1.92827e-06
-2.72664e-05
-2.73287e-05
-7.68111e-06
1.01415e-05
-6.43249e-06
-1.7728e-06
8.82564e-06
-7.70894e-06
-4.19776e-06
2.47969e-07
1.40011e-05
8.23243e-06
9.52265e-06
1.07534e-05
-5.95723e-06
-7.54932e-06
-1.57498e-05
-3.34191e-06
-8.32816e-06
1.19274e-05
8.76206e-06
4.64526e-06
-1.64758e-05
-9.1342e-06
-2.63713e-05
-1.07982e-05
-5.13583e-06
-5.74805e-06
1.84457e-06
5.218e-06
9.14725e-06
1.01065e-06
-8.722e-06
2.27327e-06
2.30769e-06
3.62233e-06
-8.48541e-06
1.15502e-06
-3.98179e-06
1.61085e-06
-5.09198e-06
4.26616e-06
-6.38447e-06
-1.46321e-05
-1.65054e-05
-4.45951e-06
3.36873e-06
4.97115e-06
1.30524e-05
-1.12155e-06
-1.18235e-05
2.33056e-06
9.55909e-07
7.81298e-06
5.20857e-06
5.21513e-06
-1.23207e-05
-1.19684e-05
-4.58058e-06
5.00226e-06
-2.20866e-06
-1.66855e-06
3.18478e-06
-4.83397e-06
-2.02104e-06
-3.79333e-07
4.29871e-06
5.10716e-06
2.05121e-06
6.63975e-06
-5.63472e-07
-4.57102e-06
-4.54271e-06
-2.70683e-06
-2.9422e-06
6.11931e-06
2.0225e-06
3.86165e-06
-5.52902e-06
-4.39916e-06
-6.90724e-06
-5.90846e-06
-2.66454e-06
-3.62808e-06
7.07245e-07
3.35355e-06
2.15518e-06
6.19586e-07
-2.75434e-06
1.4622e-06
8.37618e-07
1.56758e-06
-2.78477e-06
2.20214e-08
-1.63289e-06
1.17598e-06
-2.67674e-06
3.03567e-06
-1.93546e-06
-8.31794e-06
-5.16461e-06
-2.70196e-06
8.80033e-07
3.36549e-06
3.27402e-06
-5.20494e-07
-3.36033e-06
1.16703e-06
1.02865e-06
4.63743e-06
4.48655e-07
2.7423e-06
-3.44379e-06
-4.21876e-06
-2.80434e-06
2.78622e-06
-9.48536e-07
-2.93378e-06
-3.54752e-07
1.11778e-06
3.06445e-06
-1.47077e-06
-8.95304e-07
2.66197e-06
1.24188e-06
-1.25736e-06
-2.73302e-06
-1.21293e-06
9.44051e-07
3.74901e-07
8.12083e-07
1.33088e-06
2.64657e-07
2.10034e-07
1.30286e-06
-3.8627e-06
-1.39003e-06
7.13637e-07
-4.58691e-07
1.1477e-06
1.90945e-06
1.42791e-06
2.4626e-09
2.36604e-09
-1.01461e-06
-1.40301e-09
-3.80898e-06
5.43455e-09
-3.25318e-06
1.14518e-10
8.21906e-06
1.86142e-05
-9.1185e-06
1.01248e-05
)
;

boundaryField
{
    top_fluid_surface
    {
        type            calculated;
        value           nonuniform List<scalar> 
64
(
0
1.93648e-09
3.94248e-09
5.72008e-10
1.14999e-09
0
0
0
0
0
6.39577e-09
0
0
0
1.30216e-09
0
6.35074e-09
8.28662e-09
7.33116e-09
8.71362e-09
0
0
3.59841e-09
6.00784e-09
4.88835e-10
4.17795e-09
2.25199e-09
4.58782e-09
4.64461e-09
1.35304e-09
6.05604e-10
1.64468e-09
0
0
0
3.31034e-09
0
1.53655e-09
0
0
9.35829e-10
0
0
0
0
0
0
0
0
0
1.15961e-09
0
0
0
1.26291e-09
0
0
2.5115e-10
0
0
0
2.93319e-09
2.12816e-09
4.71205e-09
)
;
    }
    bottom_fluid_surface
    {
        type            calculated;
        value           uniform 0;
    }
    lateral_surface_1
    {
        type            calculated;
        value           uniform 0;
    }
    lateral_surface_2
    {
        type            calculated;
        value           uniform 0;
    }
    lateral_surface_3
    {
        type            calculated;
        value           uniform 0;
    }
    lateral_surface_4
    {
        type            calculated;
        value           uniform 0;
    }
}


// ************************************************************************* //
