/*--------------------------------*- C++ -*----------------------------------*\
| =========                 |                                                 |
| \\      /  F ield         | OpenFOAM: The Open Source CFD Toolbox           |
|  \\    /   O peration     | Version:  v1612+                                |
|   \\  /    A nd           | Web:      www.OpenFOAM.com                      |
|    \\/     M anipulation  |                                                 |
\*---------------------------------------------------------------------------*/
FoamFile
{
    version     2.0;
    format      ascii;
    class       surfaceScalarField;
    location    "3.4";
    object      phi;
}
// * * * * * * * * * * * * * * * * * * * * * * * * * * * * * * * * * * * * * //

dimensions      [0 3 -1 0 0 0 0];

internalField   nonuniform List<scalar> 
2916
(
2.16761e-06
0.389619
-0.389621
8.204e-06
0.389619
-0.389625
8.38444e-06
0.38962
-0.38962
3.74243e-06
0.389623
-0.389618
1.29245e-06
0.389623
-0.389621
0.389616
-0.389614
7.6329e-06
0.75269
-0.363079
8.42552e-06
0.752698
-0.36308
1.18491e-05
0.752698
-0.363081
3.93918e-06
0.752699
-0.363069
-9.21754e-06
0.752701
-0.363065
0.75269
-0.363083
1.09846e-05
0.968113
-0.215434
8.28242e-06
0.968128
-0.215428
1.01133e-05
0.968126
-0.21543
3.7065e-06
0.968127
-0.215421
-9.61622e-06
0.96813
-0.215416
0.968114
-0.215434
1.16188e-05
1.11874
-0.150634
7.84715e-06
1.11876
-0.150625
8.08666e-06
1.11875
-0.150628
3.62294e-06
1.11875
-0.150622
-7.24464e-06
1.11876
-0.150616
1.11874
-0.150631
1.03502e-05
1.23302
-0.114295
6.86412e-06
1.23305
-0.114285
5.7945e-06
1.23304
-0.114287
2.40929e-06
1.23304
-0.114284
-5.48631e-06
1.23304
-0.114279
1.23302
-0.11429
8.46256e-06
1.30928
-0.0762631
5.8867e-06
1.3093
-0.0762546
3.60336e-06
1.3093
-0.0762553
2.70565e-07
1.3093
-0.0762535
-4.36893e-06
1.3093
-0.0762509
1.30928
-0.076258
5.26947e-06
1.33717
-0.0278996
4.19079e-06
1.3372
-0.0278943
1.07257e-06
1.3372
-0.0278932
-1.90631e-06
1.33719
-0.027892
-3.08102e-06
1.33719
-0.0278922
1.33717
-0.0278946
3.06888e-06
1.2215
0.115664
3.62246e-06
1.22153
0.115668
-5.72394e-07
1.22153
0.115671
-4.26081e-06
1.22152
0.115673
-3.67603e-06
1.22153
0.115667
1.22149
0.115671
3.36641e-06
0.836122
0.385377
4.12337e-06
0.836151
0.385378
-1.40054e-06
0.836151
0.385382
-6.43816e-06
0.836147
0.385383
-8.90165e-06
0.836155
0.385373
0.836101
0.385383
4.85579e-06
0.237523
0.598594
3.1965e-06
0.237554
0.598598
-2.76096e-06
0.237558
0.598599
-7.46412e-06
0.237553
0.598599
-1.35619e-05
0.237569
0.598592
0.23749
0.598598
1.55639e-05
-0.204636
0.442144
2.95035e-06
-0.204605
0.442172
-2.18396e-06
-0.204602
0.442165
-5.86869e-06
-0.204605
0.442161
-1.78656e-05
-0.204583
0.442165
-0.204662
0.442134
-2.20298e-05
-0.204614
-2.24797e-05
-0.204605
-1.60071e-05
-0.204609
-5.69276e-06
-0.204615
2.15368e-05
-0.204611
-0.204641
-1.08039e-05
0.664824
-1.05443
-4.16745e-06
0.664817
-1.05445
1.81316e-05
0.664826
-1.05447
2.61817e-05
0.664814
-1.05444
1.05864e-05
0.664806
-1.05441
0.664846
-1.05445
-1.03749e-05
1.1855
-0.883744
-5.14788e-06
1.18549
-0.883761
3.09974e-05
1.18549
-0.883785
3.84089e-05
1.18548
-0.883742
4.09941e-06
1.18548
-0.883705
1.18552
-0.883757
7.87314e-06
1.51543
-0.54537
4.88058e-06
1.51544
-0.545375
3.01773e-05
1.51543
-0.545389
3.26589e-05
1.51542
-0.54536
-6.82058e-06
1.51543
-0.545329
1.51544
-0.54536
2.40533e-05
1.72366
-0.358891
1.12416e-05
1.72371
-0.358878
2.95816e-05
1.72368
-0.358894
2.84897e-05
1.72367
-0.358872
-1.62008e-05
1.7237
-0.358837
1.72367
-0.358873
3.76234e-05
1.89002
-0.280697
1.3223e-05
1.89011
-0.280658
2.53663e-05
1.89006
-0.28068
2.49833e-05
1.89005
-0.280667
-2.14453e-05
1.89009
-0.280625
1.89003
-0.280671
4.76696e-05
2.05558
-0.24187
1.2918e-05
2.05569
-0.241806
1.96947e-05
2.05563
-0.241835
2.11593e-05
2.05563
-0.24183
-2.43223e-05
2.05567
-0.241784
2.05559
-0.241841
5.2496e-05
2.2402
-0.212574
1.04256e-05
2.24034
-0.212496
1.38681e-05
2.24027
-0.212536
1.59449e-05
2.24027
-0.212536
-2.57598e-05
2.24031
-0.212493
2.24022
-0.212553
5.76591e-05
2.16837
0.187439
1.19499e-05
2.16854
0.18751
1.26798e-05
2.16847
0.187474
1.25384e-05
2.16847
0.187473
-2.76029e-05
2.16852
0.187504
2.16841
0.187453
7.95675e-05
1.70551
0.848159
2.2169e-05
1.70569
0.848285
1.71551e-05
1.70561
0.848239
1.08682e-05
1.70562
0.84824
-3.95504e-05
1.70567
0.848275
1.70556
0.848198
5.5471e-05
1.12858
1.17547
2.72504e-05
1.12877
1.17555
1.37947e-05
1.1287
1.17553
4.51831e-07
1.1287
1.17553
-3.25143e-05
1.12875
1.17554
1.12862
1.1755
4.49551e-05
0.520048
1.05063
1.60403e-05
0.520225
1.05074
6.3841e-06
0.52018
1.05069
-4.35695e-06
0.52018
1.05069
-2.68388e-05
0.520227
1.05071
0.520087
1.05064
-6.5173e-05
0.315499
-2.77231e-05
0.315582
-1.01941e-05
0.315554
4.02804e-06
0.315551
4.47022e-05
0.315575
0.315491
-0.000122595
0.318718
-1.37303
-6.60478e-05
0.318688
-1.37319
-2.46113e-05
0.318682
-1.3732
4.17103e-05
0.318673
-1.37318
0.000127783
0.318678
-1.37318
0.318719
-1.37304
-0.000118443
0.656226
-1.22113
-5.06802e-05
0.656166
-1.22131
-3.91929e-07
0.656151
-1.2213
6.27715e-05
0.656147
-1.22127
0.000147628
0.656167
-1.22127
0.65623
-1.22112
-9.57718e-05
1.14213
-1.03118
-3.13094e-05
1.14207
-1.03135
1.46499e-05
1.14205
-1.03134
6.21767e-05
1.14206
-1.03132
0.000128814
1.14209
-1.03131
1.14215
-1.03115
-0.000103144
1.8775
-1.09416
-3.71498e-05
1.87745
-1.09432
9.49089e-06
1.87743
-1.09431
5.92736e-05
1.87743
-1.09429
0.000134449
1.87746
-1.09429
1.87753
-1.09412
-0.000113731
2.81867
-1.22175
-5.76322e-05
2.81861
-1.22187
-1.1583e-05
2.81858
-1.22188
4.17967e-05
2.81857
-1.22187
0.000115909
2.81861
-1.22185
2.81868
-1.22171
-0.000137338
3.98356
-1.40661
-0.000125974
3.98349
-1.40669
-6.73662e-05
3.9834
-1.40672
6.98694e-06
3.98339
-1.40671
6.94328e-05
3.98345
-1.40668
3.9835
-1.40659
-0.000202828
4.97624
-1.20506
-0.000139861
4.97607
-1.20514
-0.000108815
4.97605
-1.20523
-5.16066e-05
4.97604
-1.20526
0.000101705
4.97602
-1.20523
4.9762
-1.20515
-4.3121e-05
4.40777
0.755955
-1.02051e-05
4.40773
0.755818
-2.23994e-05
4.40774
0.755804
-4.00595e-05
4.40773
0.755793
5.77028e-05
4.40769
0.755739
4.40776
0.755941
0.000120621
2.34885
2.90695
4.58068e-06
2.349
2.90713
3.47682e-06
2.34891
2.90706
3.27982e-06
2.34892
2.90706
-8.98612e-05
2.34895
2.9071
2.34885
2.90702
0.000116224
1.05838
2.46583
5.34792e-05
1.05863
2.46598
4.35655e-05
1.05852
2.46593
1.51868e-05
1.05853
2.46594
-7.54878e-05
1.05859
2.46599
1.05845
2.46583
0.000195507
0.420934
1.68788
5.18961e-05
0.42125
1.68827
1.68784e-05
0.421142
1.68811
-2.26051e-06
0.421149
1.68809
-8.24527e-05
0.421231
1.68816
0.421011
1.688
-0.000121687
0.736554
-2.36632e-05
0.736734
-7.78268e-06
0.73668
1.1973e-05
0.73668
9.48316e-05
0.736724
0.736596
-2.14594e-05
-0.335796
-1.03721
-7.20575e-06
-0.335771
-1.03743
-1.037e-05
-0.335785
-1.0374
-1.17432e-05
-0.335782
-1.03739
7.1423e-06
-0.335768
-1.03742
-0.335826
-1.0372
2.52679e-06
-0.535276
-1.02166
8.73241e-06
-0.535193
-1.02189
-9.18409e-06
-0.535213
-1.02186
-7.0562e-06
-0.535208
-1.02185
2.02264e-05
-0.535177
-1.02189
-0.535302
-1.02162
9.48165e-07
-0.632872
-0.933588
9.34564e-06
-0.632721
-0.933828
-1.04432e-05
-0.632743
-0.933789
-8.54365e-06
-0.632738
-0.933787
2.81641e-05
-0.632697
-0.933829
-0.632874
-0.933551
-5.80882e-05
-0.635279
-1.09169
-3.97532e-05
-0.635115
-1.09194
-4.9101e-05
-0.635143
-1.0919
-3.28612e-05
-0.635144
-1.0919
4.02102e-05
-0.635107
-1.09195
-0.635279
-1.09167
-0.000114371
-0.664339
-1.19258
-8.0503e-05
-0.664209
-1.19281
-7.47939e-05
-0.664251
-1.19277
-4.85842e-05
-0.664259
-1.19278
4.99787e-05
-0.664231
-1.19282
-0.664363
-1.19257
-0.000141435
-0.635218
-1.43559
-8.309e-05
-0.635168
-1.43579
-6.67048e-05
-0.635215
-1.43577
-3.42675e-05
-0.635238
-1.43577
8.70294e-05
-0.635243
-1.43579
-0.635268
-1.4356
-0.000203585
0.0866676
-1.92674
-5.7019e-05
0.0864384
-1.92689
-1.36501e-05
0.0864268
-1.92691
5.35792e-05
0.0863968
-1.92696
0.000304247
0.0862667
-1.92699
0.0866841
-1.92679
-7.2629e-05
1.86254
-1.01986
6.43404e-05
1.86229
-1.02018
9.36661e-05
1.8623
-1.02011
8.43522e-05
1.86228
-1.02008
0.000203479
1.86212
-1.02024
1.86261
-1.01979
0.000236018
1.82553
2.94372
0.000157035
1.82576
2.94374
0.000135794
1.82564
2.94374
5.37715e-05
1.82562
2.9438
-0.000128415
1.82563
2.94379
1.82573
2.94378
0.000270153
0.390681
3.90041
0.00010879
0.391432
3.90047
9.17351e-05
0.391122
3.90046
4.50174e-05
0.391106
3.9005
-0.000168647
0.391286
3.90054
0.391016
3.90037
0.000304258
0.225885
1.85237
9.57938e-05
0.226212
1.8537
1.60228e-05
0.226095
1.85322
-3.70863e-06
0.226066
1.85316
-0.000125281
0.226079
1.85348
0.226049
1.85284
-9.00114e-05
0.96253
7.05021e-06
0.962849
2.45255e-05
0.962758
3.03189e-05
0.96274
1.51523e-05
0.962818
0.96266
-2.95335e-06
-0.00717573
0.00717868
-4.58466e-06
-0.00717703
0.00717871
-5.08926e-06
-0.0071781
0.00717874
-4.57511e-06
-0.00717906
0.00717882
-2.99715e-06
-0.00718008
0.00717885
-0.00718139
0.00717881
-4.30987e-06
-0.0146629
0.00749114
-6.37274e-06
-0.0146659
0.00749233
-7.30177e-06
-0.0146683
0.00749252
-6.84378e-06
-0.0146704
0.00749236
-4.68948e-06
-0.0146727
0.00749181
-0.0146756
0.00749071
-5.94514e-06
-0.022842
0.00818575
-9.1202e-06
-0.0228485
0.00818876
-1.0794e-05
-0.0228534
0.00818923
-1.03468e-05
-0.0228573
0.00818864
-7.19157e-06
-0.0228613
0.00818724
-0.0228669
0.00818498
-9.77285e-06
-0.0321149
0.00928433
-1.47818e-05
-0.0321271
0.00928529
-1.66439e-05
-0.0321347
0.00928423
-1.54711e-05
-0.03214
0.00928197
-1.07884e-05
-0.0321447
0.00927867
-0.0321524
0.00927406
-1.80544e-05
-0.0428981
0.0108021
-2.2573e-05
-0.0429167
0.0107924
-2.11814e-05
-0.0429248
0.0107868
-1.68374e-05
-0.0429281
0.0107817
-1.04938e-05
-0.0429295
0.0107766
-0.0429353
0.0107713
-3.14415e-05
-0.0553787
0.0125109
-2.76167e-05
-0.0553997
0.0124755
-1.52744e-05
-0.0554008
0.0124608
-3.9443e-06
-0.0553942
0.0124525
1.59794e-06
-0.0553846
0.0124481
-0.055381
0.0124468
-3.68336e-05
-0.0692777
0.0139339
-9.01671e-06
-0.0692886
0.0138583
2.71851e-05
-0.0692704
0.0138318
5.00125e-05
-0.069242
0.0138239
4.56427e-05
-0.069209
0.0138279
-0.0691796
0.0138433
-1.39983e-05
-0.081906
0.0126411
5.9768e-05
-0.0818947
0.0125311
0.00013618
-0.0818493
0.0125017
0.000168634
-0.0817867
0.0125111
0.000132556
-0.0817204
0.0125462
-0.0816531
0.0126052
6.03545e-05
-0.0893257
0.00735886
0.000185056
-0.0892553
0.00723599
0.000284016
-0.0892041
0.00725559
0.00031056
-0.0891504
0.00733607
0.000227898
-0.0890935
0.00745563
-0.0890391
0.00761409
0.000158587
-0.0830403
-0.00644395
0.000239142
-0.0829593
-0.00637495
0.000317359
-0.0829057
-0.0063761
0.000307353
-0.0828607
-0.00627917
0.00013755
-0.0828022
-0.00612013
-0.0826903
-0.00621058
0.000126726
-0.0530088
-0.030158
0.000165098
-0.0529373
-0.0300586
0.000170114
-0.0528978
-0.030012
0.000153287
-0.0528633
-0.029978
0.000102399
-0.0528133
-0.0299363
-0.0527311
-0.0298566
-5.36486e-05
-0.0529551
-0.00011603
-0.0528747
-0.000151294
-0.0528627
-0.000158223
-0.0528553
-0.000117113
-0.052853
-0.0528474
-3.1778e-06
-0.00692382
0.0141056
-4.58208e-06
-0.00692594
0.0141056
-4.7118e-06
-0.00692733
0.014106
-3.96853e-06
-0.00692836
0.0141064
-2.47104e-06
-0.00692927
0.0141067
-0.00693036
0.014107
-5.28996e-06
-0.013909
0.0144819
-6.29606e-06
-0.0139137
0.014483
-6.05751e-06
-0.0139166
0.0144834
-4.95153e-06
-0.0139187
0.0144834
-2.98327e-06
-0.0139206
0.0144828
-0.0139231
0.0144815
-7.45883e-06
-0.0207876
0.015074
-8.33987e-06
-0.0207966
0.0150765
-7.63298e-06
-0.0208015
0.0150767
-6.06929e-06
-0.0208047
0.0150758
-3.6815e-06
-0.0208076
0.0150739
-0.0208122
0.0150709
-7.77955e-06
-0.0269852
0.0154921
-8.05727e-06
-0.0270008
0.0154913
-6.60948e-06
-0.0270071
0.0154892
-4.90357e-06
-0.0270104
0.0154859
-3.2417e-06
-0.0270128
0.0154816
-0.0270181
0.015476
-3.83085e-06
-0.0313951
0.0152155
-8.65905e-07
-0.0314163
0.0152017
3.2567e-06
-0.0314208
0.0151935
5.10547e-06
-0.0314197
0.0151868
3.69431e-06
-0.031417
0.0151805
-0.0314181
0.0151748
4.01333e-06
-0.0325831
0.0136919
1.77441e-05
-0.0326117
0.0136525
2.88085e-05
-0.032609
0.0136348
3.0794e-05
-0.032596
0.0136252
2.17445e-05
-0.0325808
0.0136204
-0.0325705
0.0136208
5.46744e-05
-0.0298036
0.0110973
8.48611e-05
-0.0298103
0.011024
9.83496e-05
-0.02979
0.010998
9.15124e-05
-0.0297565
0.0109905
6.03735e-05
-0.0297187
0.0109961
-0.0296833
0.011016
0.000132317
-0.024384
0.00708828
0.00016724
-0.0243722
0.00705762
0.000196433
-0.0243191
0.0070014
0.000181296
-0.0242469
0.0070156
0.000108357
-0.0241626
0.00706235
-0.0240679
0.00709838
0.000185448
-0.0198724
0.00266158
0.000259316
-0.0197927
0.00258306
0.000266698
-0.0196832
0.00261279
0.000224324
-0.0195644
0.00269542
0.000140446
-0.0194384
0.00281631
-0.0192801
0.00296695
0.000221876
-0.0220209
-0.00451694
0.000349627
-0.0218282
-0.00446687
0.000356267
-0.021697
-0.00436829
0.000319234
-0.0215664
-0.0042385
0.000285446
-0.0214358
-0.00408872
-0.0212402
-0.00396484
4.25613e-05
-0.00385356
-0.0483665
-5.22127e-05
-0.00372211
-0.0480684
-0.000157064
-0.00363572
-0.0479678
-0.000179281
-0.00356577
-0.0479534
-3.36817e-05
-0.00350975
-0.0480066
-0.00342548
-0.0477049
-0.000175697
-0.0566315
-0.000327372
-0.0564441
-0.000405261
-0.0564199
-0.000396719
-0.0564296
-6.24918e-05
-0.0566989
-0.0563348
-1.6499e-06
-0.00672982
0.0208367
-2.51391e-06
-0.00673125
0.0208368
-2.43141e-06
-0.00673185
0.020837
-1.83186e-06
-0.00673209
0.0208373
-1.04919e-06
-0.00673202
0.0208375
-0.0067318
0.0208376
-3.4019e-06
-0.014039
0.0217943
-3.00702e-06
-0.014042
0.0217949
-2.03605e-06
-0.0140431
0.0217951
-9.01467e-07
-0.0140434
0.0217949
-4.79428e-08
-0.0140431
0.0217942
-0.0140425
0.0217929
-4.16846e-06
-0.0228353
0.0238766
-2.21417e-06
-0.0228414
0.0238778
-7.30256e-08
-0.0228432
0.0238777
1.59678e-06
-0.0228435
0.0238766
2.035e-06
-0.0228426
0.0238746
-0.0228409
0.0238719
-2.39015e-06
-0.0345085
0.0271698
1.12408e-06
-0.0345197
0.0271674
4.66639e-06
-0.0345218
0.0271646
6.37673e-06
-0.0345207
0.0271612
5.30332e-06
-0.034517
0.0271568
-0.0345116
0.027152
1.01605e-06
-0.0511915
0.0318967
7.84711e-06
-0.0512087
0.031881
1.39574e-05
-0.0512086
0.0318714
1.60848e-05
-0.0512016
0.0318638
1.2434e-05
-0.0511903
0.0318569
-0.0511754
0.0318514
9.69379e-06
-0.075479
0.0379668
2.5679e-05
-0.0754969
0.0379213
3.76464e-05
-0.0754869
0.037899
4.02011e-05
-0.0754656
0.0378861
2.96732e-05
-0.0754381
0.0378791
-0.0754051
0.0378799
2.58962e-05
-0.109039
0.0446289
6.15036e-05
-0.109047
0.0445372
8.5752e-05
-0.109016
0.0445014
8.95329e-05
-0.10897
0.0444902
6.47731e-05
-0.108916
0.0444978
-0.108853
0.0445281
5.69486e-05
-0.149034
0.0470263
0.000135655
-0.148982
0.046914
0.000152699
-0.148922
0.0468889
0.000140097
-0.148854
0.0469111
0.000102787
-0.14879
0.0469722
-0.148729
0.0470759
0.000128449
-0.179952
0.0334514
0.000182132
-0.179845
0.0333926
0.000189678
-0.179759
0.033442
0.000155468
-0.179676
0.033552
9.12964e-05
-0.179611
0.0337013
-0.179574
0.0339028
-1.37291e-06
-0.200489
0.016023
-7.39162e-05
-0.200352
0.016114
-0.000150422
-0.200263
0.0162124
-0.000198225
-0.200191
0.0163262
-0.000167988
-0.200154
0.0164234
-0.200235
0.0165264
-0.00028088
-0.094351
-0.154223
-0.00042235
-0.0942507
-0.154028
-0.000464933
-0.0941691
-0.154021
-0.000433207
-0.0941007
-0.154076
-0.00027997
-0.0940359
-0.154277
-0.0941223
-0.154098
-0.000437355
-0.150545
-0.000417824
-0.150713
-0.000235319
-0.150771
-0.000179251
-0.150588
-0.000434704
-0.150482
-0.150892
-7.65532e-07
-0.0058453
0.026682
-1.09616e-06
-0.00584658
0.0266818
-7.40727e-07
-0.00584671
0.026682
-2.98624e-07
-0.00584642
0.0266821
-1.01063e-07
-0.00584581
0.026682
-0.00584514
0.0266822
-1.68522e-06
-0.0117947
0.0277448
-2.77389e-07
-0.011797
0.0277449
1.14063e-06
-0.011797
0.0277448
2.00365e-06
-0.011796
0.0277444
1.76709e-06
-0.0117943
0.0277437
-0.0117926
0.027743
-2.98507e-07
-0.0176472
0.0297314
3.29867e-06
-0.0176505
0.0297314
6.00734e-06
-0.0176496
0.0297306
6.96035e-06
-0.0176472
0.0297292
5.45428e-06
-0.0176438
0.0297274
-0.0176402
0.0297257
5.91501e-06
-0.0226974
0.0322163
1.1993e-05
-0.0227014
0.0322135
1.53939e-05
-0.0226984
0.0322104
1.51979e-05
-0.0226929
0.0322071
1.06645e-05
-0.022686
0.0322035
-0.0226782
0.0322005
1.94837e-05
-0.0251735
0.0343526
2.79152e-05
-0.0251736
0.0343419
2.99317e-05
-0.0251661
0.0343348
2.63371e-05
-0.0251558
0.034329
1.69654e-05
-0.025144
0.034324
-0.025131
0.0343209
4.19403e-05
-0.022023
0.0347719
5.07293e-05
-0.0220107
0.0347467
4.63018e-05
-0.021998
0.0347339
3.5337e-05
-0.0219852
0.0347262
1.93282e-05
-0.0219714
0.0347222
-0.0219568
0.0347234
7.10292e-05
-0.0102136
0.0327472
6.93933e-05
-0.0101794
0.0327065
4.70426e-05
-0.0101666
0.0326918
2.26258e-05
-0.0101595
0.032688
3.51115e-06
-0.0101505
0.0326934
-0.0101378
0.0327109
7.20128e-05
0.0132533
0.0234867
2.26959e-05
0.0133366
0.023446
-4.68086e-05
0.0133438
0.0234467
-8.72954e-05
0.013328
0.0234626
-7.69059e-05
0.0133171
0.0234931
0.013319
0.0235415
-5.68333e-05
0.044746
0.00201506
-0.000201286
0.0448667
0.00200548
-0.000320186
0.0448589
0.00204434
-0.000345217
0.0447944
0.00211033
-0.000216272
0.0447029
0.00218652
0.0447717
0.00223291
-0.000151415
0.064978
-0.00405711
-0.000358137
0.0651847
-0.0039975
-0.000468136
0.0651318
-0.00395117
-0.00048126
0.0649424
-0.00380879
-0.000219431
0.0644794
-0.00361462
0.0650384
-0.00395942
-6.74318e-05
0.0857574
-0.174935
-0.000575792
0.0861757
-0.174509
-0.0011374
0.0862812
-0.17461
-0.000880025
0.0854637
-0.174859
0.00128739
0.0835693
-0.175535
0.0870794
-0.174851
0.000239302
-0.0650293
1.40001e-05
-0.0643107
-0.00136847
-0.0631065
-4.01777e-05
-0.0664507
0.00339611
-0.0703493
-0.0604168
2.64796e-05
-1.09586
0.0586218
6.63723e-06
-1.09604
0.0586313
-1.14593e-05
-1.09601
0.0586313
-2.30301e-05
-1.09601
0.0586318
-3.1946e-05
-1.09604
0.0586324
-1.09586
0.0586188
3.52098e-05
-1.09044
-0.0054542
1.09722e-05
-1.09056
-0.00545554
-2.10957e-06
-1.09054
-0.00545638
-1.28399e-05
-1.09054
-0.00545694
-3.67104e-05
-1.09056
-0.00545757
-1.09044
-0.00545971
2.6599e-05
0.0144455
1.15058e-05
0.014445
3.44988e-06
0.0144447
-5.61033e-06
0.0144441
-2.45131e-05
0.0144432
0.0144432
3.1124e-05
-1.13785
0.174791
8.53139e-06
-1.13804
0.174809
-8.11192e-06
-1.13801
0.174808
-1.96437e-05
-1.13801
0.174806
-3.59393e-05
-1.13804
0.174805
-1.13783
0.174788
3.70488e-05
-1.12968
-0.0136607
9.96604e-06
-1.12981
-0.0136652
-6.8244e-06
-1.12979
-0.0136657
-2.25787e-05
-1.12979
-0.0136654
-5.08125e-05
-1.12981
-0.0136654
-1.12967
-0.0136646
2.68921e-05
0.0213181
1.01709e-05
0.0213171
8.13488e-07
0.0213165
-9.46874e-06
0.0213159
-3.01587e-05
0.021315
0.0213165
2.11157e-05
-1.06658
0.307758
2.1573e-06
-1.06677
0.307766
-8.51949e-06
-1.06674
0.307766
-1.95879e-05
-1.06673
0.307763
-3.69715e-05
-1.06677
0.307763
-1.06655
0.30775
3.83593e-05
-1.07302
-0.00725205
6.86633e-06
-1.07314
-0.00725805
-1.15534e-05
-1.07312
-0.00725693
-2.80439e-05
-1.07312
-0.00725554
-5.89397e-05
-1.07314
-0.0072546
-1.07302
-0.00724712
2.42368e-05
0.0284374
6.18246e-06
0.0284377
-3.78417e-06
0.0284373
-1.22974e-05
0.0284372
-2.90996e-05
0.028437
0.028438
1.79075e-05
-1.17134
0.387383
1.02097e-06
-1.17153
0.387377
-8.17396e-06
-1.17149
0.387376
-2.30883e-05
-1.17149
0.387374
-4.50586e-05
-1.17153
0.387369
-1.17133
0.387366
3.59733e-05
-1.14057
-0.0380495
9.50699e-06
-1.14069
-0.0380659
-5.0593e-06
-1.14067
-0.0380605
-1.80259e-05
-1.14067
-0.0380579
-4.47115e-05
-1.1407
-0.0380594
-1.14058
-0.0380365
2.48687e-05
0.0152627
5.93941e-06
0.0152641
-3.30288e-06
0.0152636
-1.0121e-05
0.0152634
-2.4137e-05
0.0152635
0.0152617
1.66826e-05
-1.17796
0.372749
5.09335e-06
-1.17815
0.372739
-1.98079e-06
-1.17812
0.372739
-1.64388e-05
-1.17812
0.372739
-3.4889e-05
-1.17816
0.372733
-1.17797
0.372737
4.48023e-05
-1.13973
-0.0763213
1.90836e-05
-1.13985
-0.0763404
5.49857e-06
-1.13983
-0.0763357
-8.10514e-06
-1.13984
-0.0763348
-3.88457e-05
-1.13986
-0.0763368
-1.13974
-0.0763171
2.5163e-05
-0.000395783
7.34748e-06
-0.000393063
-1.65659e-06
-0.000394393
-9.12118e-06
-0.000395567
-2.43986e-05
-0.000395433
-0.000399841
2.54485e-05
-1.22045
0.157584
8.79898e-06
-1.22061
0.157581
-6.36193e-06
-1.22059
0.157578
-1.18247e-05
-1.22059
0.157561
-1.60471e-05
-1.22061
0.157551
-1.22045
0.157572
3.33531e-05
-1.18784
-0.108957
1.44322e-05
-1.18796
-0.108975
2.1109e-06
-1.18795
-0.108967
-8.6008e-06
-1.18795
-0.108964
-3.13524e-05
-1.18796
-0.108957
-1.18784
-0.108969
2.15685e-05
-0.0218634
5.80091e-06
-0.0218577
-3.95841e-06
-0.0218603
-1.03599e-05
-0.0218624
-2.33462e-05
-0.0218615
-0.0218647
1.66578e-05
-1.33033
-0.438841
1.57644e-05
-1.33046
-0.438864
7.7339e-06
-1.33045
-0.438882
2.3299e-06
-1.33047
-0.438933
5.54696e-06
-1.33049
-0.438951
-1.33033
-0.438886
1.58313e-05
-1.13247
-0.306838
1.65843e-06
-1.13258
-0.306843
-3.55379e-06
-1.13256
-0.306844
-1.93066e-05
-1.13256
-0.306848
-6.06999e-05
-1.13259
-0.306818
-1.13246
-0.306896
2.36233e-05
0.041906
6.5897e-06
0.0419231
-3.14123e-06
0.0419145
-8.13768e-06
0.0419082
-2.32078e-05
0.0419085
0.0419058
6.19986e-05
-1.86983
0.411072
6.95084e-05
-1.87009
0.411037
8.0869e-05
-1.87003
0.411025
3.19172e-05
-1.86998
0.411009
-8.31761e-05
-1.87007
0.410995
-1.86985
0.411081
3.53461e-05
-1.30138
-0.875327
-2.60458e-05
-1.30152
-0.875357
-4.15641e-05
-1.30151
-0.875345
-3.38129e-05
-1.30152
-0.875319
-8.83724e-05
-1.30158
-0.875256
-1.30143
-0.875394
5.10956e-05
-0.0796898
7.13275e-06
-0.0796549
-7.89507e-06
-0.0796777
-7.10659e-07
-0.0796954
-2.29397e-05
-0.0796828
-0.0797022
0.00015964
1.12123
2.2334
0.000209242
1.12097
2.23374
0.000294025
1.1211
2.23358
0.000214779
1.12127
2.23361
8.37874e-05
1.12123
2.23368
1.12129
2.23365
0.000107015
-0.469766
0.715565
-2.63033e-05
-0.469994
0.715742
-3.0266e-05
-0.469905
0.715658
4.43425e-05
-0.469816
0.715695
0.000110027
-0.469873
0.715779
-0.469758
0.715762
6.32286e-06
0.476322
-0.000120852
0.476344
-0.00014991
0.476316
-6.48361e-05
0.476308
1.9995e-05
0.476328
0.47634
0.000459141
3.92278
2.21056
0.00020811
3.92321
2.21125
0.000216583
3.92306
2.21097
0.000182851
3.9231
2.21104
-6.79132e-05
3.92319
2.21127
3.92326
2.2107
0.000783953
3.78267
0.854891
0.000366591
3.78313
0.856241
0.000172267
3.78306
0.855849
0.000104192
3.78324
0.855629
0.000377075
3.78318
0.855515
3.78347
0.85593
0.000671769
1.27713
0.000273309
1.27837
0.000195569
1.2779
-4.66047e-06
1.278
-0.000905739
1.27899
1.27641
0.000456598
3.02817
1.0343
0.000234937
3.03023
1.03494
0.000142271
3.0295
1.03478
0.000119701
3.02943
1.03478
-0.000695493
3.03031
1.03526
3.02849
1.03435
0.000655429
4.57255
-0.690153
0.000448001
4.57621
-0.689528
0.000283527
4.57508
-0.689577
0.000165841
4.57532
-0.690139
-0.000291868
4.57751
-0.691237
4.57237
-0.688242
-0.000147411
0.911777
0.00014579
0.913843
5.91051e-05
0.913167
0.000159469
0.913157
0.000998433
0.91479
0.910614
7.16039e-05
1.14786
0.8489
7.23063e-05
1.1487
0.849086
4.29882e-05
1.14843
0.849134
3.32663e-05
1.1484
0.849131
-9.18843e-05
1.14871
0.849499
1.14809
0.848829
0.000376664
-0.728775
1.18611
0.000167048
-0.727022
1.1864
0.000377102
-0.727713
1.18636
9.94884e-05
-0.727849
1.18639
-0.00121115
-0.727737
1.18652
-0.727782
1.18642
-2.01449e-05
1.84939
-0.000200091
1.84982
-0.000435427
1.84962
-0.000114279
1.84889
-0.000168624
1.84941
1.84914
0.000277301
0.226777
-2.7627
2.53565
-0.000341501
0.225978
-2.76325
2.53789
-0.00253161
0.227929
-2.76271
2.53698
-0.00113988
0.223776
-2.76217
2.537
0.00730758
0.218057
-2.76262
2.53611
0.230341
-2.76731
2.54428
0.00697495
2.02979
-0.0543191
-1.75566
-0.00124769
2.04513
-0.0551746
-1.75575
-0.0109774
2.04713
-0.0570122
-1.75245
-0.00617343
2.03199
-0.0586774
-1.75434
-0.0298565
2.08485
-0.0844096
-1.7587
1.98407
-0.0310662
-1.75252
0.0145288
-1.10219
-0.361312
0.0029329
-1.11535
-0.350432
-0.00423636
-1.11608
-0.354102
-0.00203229
-1.109
-0.351675
-0.0781831
-1.16924
-0.304647
-1.05313
-0.393836
-3.30314e-05
-1.12143
-1.64123
-0.00043663
-1.12231
-1.64054
-0.000921996
-1.1222
-1.64003
0.000664996
-1.12097
-1.64279
0.00334639
-1.1206
-1.6447
-1.12255
-1.64141
0.000560424
1.23818
-2.4145
-0.00141072
1.23958
-2.4151
-0.00525987
1.23938
-2.41474
0.000139889
1.23572
-2.42076
0.00798408
1.22535
-2.4382
1.25011
-2.39575
0.00365805
-3.49652
-0.00114726
-3.50285
-0.00696677
-3.50232
-0.000138939
-3.50201
-0.00507982
-3.53112
-3.46945
-0.000154673
-0.580488
-1.06059
8.80841e-05
-0.580626
-1.06015
0.000810343
-0.580692
-1.06006
0.00105783
-0.580951
-1.06208
-0.000606646
-0.579847
-1.06319
-0.581694
-1.06032
0.000216571
-0.0583648
-2.93684
-0.00155343
-0.056849
-2.93711
-0.00581059
-0.0545478
-2.93663
-0.00178611
-0.0701694
-2.93557
0.0206793
-0.107774
-2.93274
-0.0161222
-2.94064
0.000781611
-3.9161
-0.00179105
-3.91915
-0.00588711
-3.91889
-0.00115616
-3.91335
0.0115242
-3.9094
-3.9228
0.000216702
-0.479082
-0.581723
0.000659936
-0.478972
-0.581623
0.00132289
-0.479049
-0.581672
0.000798009
-0.47943
-0.582127
-0.000441034
-0.47953
-0.582419
-0.479018
-0.581747
-2.3869e-05
-1.58614
-1.82976
-0.000358741
-1.58569
-1.83005
-0.00033355
-1.58564
-1.83006
0.000398223
-1.58686
-1.82887
-0.000112717
-1.58299
-1.82877
-1.58958
-1.83019
0.000870033
-2.58621
-0.000231911
-2.58622
-0.00114213
-2.58612
2.82268e-05
-2.58507
0.00168364
-2.58509
-2.58615
0.000256728
-0.0445451
-0.537435
0.00039851
-0.0444335
-0.537331
0.000672224
-0.0446096
-0.537336
0.000329497
-0.0439139
-0.53787
-0.00114807
-0.0421044
-0.538837
-0.0463606
-0.536535
-3.11542e-06
-0.367878
-1.50642
0.000389965
-0.36839
-1.50649
0.000574848
-0.368339
-1.50651
6.16258e-05
-0.365523
-1.50675
-0.000576476
-0.362077
-1.50816
-0.371942
-1.50518
0.000216003
-2.28013
-6.32307e-05
-2.27938
-0.00090794
-2.27892
-0.0001292
-2.28038
0.00367065
-2.28329
-2.27615
8.4755e-05
0.311381
0.000207081
0.311632
0.000512022
0.311493
0.000134109
0.311639
-0.00136178
0.312157
0.310933
0.000169868
-0.0091047
-2.05725e-05
-0.00826855
-0.000549256
-0.00813415
-4.63316e-05
-0.00922588
0.00165777
-0.0111888
-0.00617036
-0.000174987
4.49253e-05
0.000326346
-1.23107e-05
-0.00035196
1.67586e-07
0.0313197
-0.00463913
-1.55529e-07
0.0313193
-0.00463919
-1.60795e-07
0.0313193
-0.00463892
-1.91354e-07
0.0313192
-0.00463854
-3.30445e-07
0.0313191
-0.00463811
0.0313195
-0.00463782
-6.82956e-08
0.0340978
-0.00277943
-3.50501e-07
0.0340973
-0.00277947
-4.58077e-07
0.0340973
-0.00277934
-5.3494e-07
0.0340973
-0.00277915
-5.73379e-07
0.0340974
-0.00277894
0.0340979
-0.00277878
-1.85842e-07
-0.00151514
-2.8721e-07
-0.00151513
-3.43586e-07
-0.00151505
-3.70307e-07
-0.00151495
-3.48083e-07
-0.00151483
-0.00151468
-1.93804e-07
0.0331638
-0.0100587
8.76167e-07
0.0331634
-0.0100582
1.56863e-06
0.0331633
-0.0100574
1.72926e-06
0.0331631
-0.0100566
1.26877e-06
0.0331628
-0.0100559
0.0331629
-0.0100555
-2.18393e-07
0.0359222
-0.00553832
3.80425e-07
0.0359218
-0.00553788
6.51545e-07
0.0359217
-0.00553745
6.8784e-07
0.0359216
-0.00553699
5.39021e-07
0.0359214
-0.00553658
0.0359218
-0.00553638
-1.51258e-07
-0.00368236
3.11466e-08
-0.00368225
1.15705e-07
-0.00368208
1.90793e-07
-0.00368191
2.84551e-07
-0.00368176
-0.00368163
1.3575e-06
0.0371121
-0.0174388
3.85472e-06
0.0371118
-0.0174377
5.09297e-06
0.0371114
-0.0174369
5.0525e-06
0.0371108
-0.0174363
3.68716e-06
0.0371101
-0.0174359
0.03711
-0.0174359
9.13494e-07
0.0397324
-0.00815766
2.2026e-06
0.0397318
-0.0081568
2.68312e-06
0.0397314
-0.0081563
2.5703e-06
0.0397309
-0.0081559
1.88974e-06
0.0397305
-0.00815568
0.0397307
-0.00815594
5.28256e-07
-0.00741749
8.51876e-07
-0.0074175
9.98941e-07
-0.00741746
9.89826e-07
-0.00741739
7.85681e-07
-0.00741742
-0.00741737
5.03104e-06
0.0436609
-0.0288865
7.44552e-06
0.0436596
-0.0288854
8.08714e-06
0.0436583
-0.0288853
7.02134e-06
0.0436569
-0.0288855
4.46052e-06
0.0436553
-0.028886
0.0436546
-0.0288865
3.30519e-06
0.0457056
-0.0102042
4.40451e-06
0.0457044
-0.0102028
4.36961e-06
0.0457037
-0.0102024
3.48309e-06
0.0457029
-0.0102023
1.75584e-06
0.0457023
-0.0102024
0.0457025
-0.0102032
8.7683e-07
-0.0142968
1.04916e-06
-0.0142971
1.09347e-06
-0.0142973
7.56787e-07
-0.0142971
2.63701e-07
-0.0142972
-0.0142965
7.91429e-06
0.0537322
-0.0482751
8.64666e-06
0.0537273
-0.0482742
7.62048e-06
0.0537239
-0.0482753
5.59141e-06
0.0537208
-0.0482765
3.34041e-06
0.053718
-0.0482784
0.0537168
-0.0482798
4.38498e-06
0.0539278
-0.0104054
4.61291e-06
0.0539261
-0.0104038
3.60041e-06
0.0539254
-0.0104045
2.21072e-06
0.0539249
-0.010406
6.31391e-07
0.0539245
-0.0104079
0.0539253
-0.0104107
6.78215e-07
-0.0275712
1.0524e-06
-0.0275713
1.67254e-06
-0.0275715
8.57634e-07
-0.0275692
1.11547e-06
-0.0275702
-0.0275672
8.04097e-06
0.0695253
-0.0830392
5.52455e-06
0.0695132
-0.0830405
1.80041e-06
0.0695068
-0.0830453
-9.36956e-07
0.0695023
-0.0830501
-1.06002e-06
0.0694995
-0.0830562
0.0695005
-0.0830594
6.43698e-06
0.0656058
-0.00649397
5.03794e-06
0.0656035
-0.00649305
1.2988e-06
0.0656029
-0.00649672
-1.74515e-06
0.0656032
-0.00650355
-3.40683e-06
0.0656032
-0.00651007
0.0656052
-0.006519
-1.51126e-07
-0.051341
3.30376e-09
-0.0513409
2.52854e-06
-0.0513443
6.10136e-07
-0.0513363
4.88754e-06
-0.0513451
-0.051332
5.51228e-06
0.0915652
-0.141864
-3.42392e-06
0.0915447
-0.141871
-1.23488e-05
0.0915377
-0.141883
-1.93512e-05
0.0915372
-0.141894
-1.39752e-05
0.0915394
-0.14191
0.0915504
-0.141913
1.27531e-06
0.0799565
0.00511294
-1.21791e-05
0.0799539
0.00511179
-2.55939e-05
0.0799544
0.0050995
-3.36495e-05
0.0799567
0.00508353
-2.85789e-05
0.0799581
0.00506434
0.0799616
0.00504155
8.64272e-06
-0.0987374
8.04131e-06
-0.0987275
1.78134e-05
-0.0987446
9.25031e-07
-0.0987075
6.38357e-06
-0.0987453
-0.0987201
-2.0192e-05
0.136379
-0.254737
-5.19924e-05
0.136361
-0.254756
-6.63673e-05
0.136363
-0.254786
-8.05684e-05
0.136388
-0.254806
-3.81814e-05
0.136402
-0.254861
0.136451
-0.254858
-1.88817e-05
0.11001
0.0315003
-5.25127e-05
0.110012
0.0314949
-8.43365e-05
0.110014
0.0314791
-8.61692e-05
0.110024
0.0314474
-8.47043e-05
0.110027
0.0314388
0.11003
0.0313774
5.71048e-06
-0.157272
2.99471e-07
-0.157241
4.45953e-05
-0.157331
-6.13263e-06
-0.157174
9.18839e-05
-0.15741
-0.15717
-7.74381e-05
0.149864
-0.402509
-0.00015554
0.149882
-0.402555
-0.0001763
0.149896
-0.402617
-0.000227097
0.149962
-0.402608
-0.000144201
0.149988
-0.402744
0.149966
-0.402736
-9.34106e-05
0.138251
0.0432065
-0.000279461
0.138274