/*--------------------------------*- C++ -*----------------------------------*\
| =========                 |                                                 |
| \\      /  F ield         | OpenFOAM: The Open Source CFD Toolbox           |
|  \\    /   O peration     | Version:  v1612+                                |
|   \\  /    A nd           | Web:      www.OpenFOAM.com                      |
|    \\/     M anipulation  |                                                 |
\*---------------------------------------------------------------------------*/
FoamFile
{
    version     2.0;
    format      ascii;
    class       surfaceScalarField;
    location    "3.1";
    object      alphaPhi;
}
// * * * * * * * * * * * * * * * * * * * * * * * * * * * * * * * * * * * * * //

dimensions      [0 3 -1 0 0 0 0];

internalField   nonuniform List<scalar> 
2916
(
-2.53109e-06
0.373936
-0.210535
3.48438e-06
0.373933
-0.210539
1.9092e-06
0.373935
-0.210534
-1.94637e-06
0.373937
-0.210533
9.68172e-07
0.373936
-0.210537
0.37393
-0.210531
9.24439e-07
0.734928
-0.196651
2.50098e-06
0.734929
-0.196654
4.51697e-07
0.734931
-0.196651
-1.55713e-06
0.734932
-0.196649
-5.07245e-07
0.734931
-0.196651
0.734924
-0.196652
1.40388e-06
0.994046
-0.114311
2.46126e-06
0.99405
-0.114313
8.92863e-07
0.994051
-0.114311
-2.68714e-07
0.994052
-0.11431
5.23268e-07
0.994051
-0.114311
0.994043
-0.114311
5.75281e-08
1.20207
-0.0877614
2.15067e-06
1.20207
-0.0877638
1.29153e-06
1.20208
-0.0877622
5.53476e-08
1.20208
-0.087761
1.19809e-06
1.20207
-0.0877616
1.20207
-0.0877607
-1.74531e-06
1.38114
-0.0836155
7.00617e-07
1.38115
-0.0836187
1.27295e-07
1.38115
-0.0836169
-8.45566e-07
1.38115
-0.0836158
1.27106e-06
1.38114
-0.0836165
1.38113
-0.0836147
-3.67349e-06
1.54019
-0.0882679
-1.41886e-06
1.5402
-0.0882725
-1.86369e-06
1.5402
-0.0882708
-2.20181e-06
1.5402
-0.0882701
1.74265e-06
1.54019
-0.0882717
1.54018
-0.0882674
-6.88796e-06
1.66481
-0.0801211
-3.39585e-06
1.66483
-0.0801271
-4.04819e-06
1.66482
-0.0801248
-3.64066e-06
1.66482
-0.0801245
3.41751e-06
1.66481
-0.0801276
1.6648
-0.0801202
-8.42094e-06
1.67885
-0.00583408
-3.81975e-06
1.67886
-0.00584459
-4.79525e-06
1.67886
-0.00584079
-4.13724e-06
1.67885
-0.00584149
2.78746e-06
1.67885
-0.00584757
1.67883
-0.00583444
-5.6591e-06
1.40008
0.278773
-3.56925e-06
1.40012
0.278748
-5.79735e-06
1.40011
0.278752
-5.70529e-06
1.40011
0.278749
-3.01066e-06
1.40012
0.278735
1.40007
0.278761
-2.61293e-06
0.734594
0.665494
-1.9241e-06
0.734635
0.665483
-5.29745e-06
0.734635
0.665485
-6.82849e-06
0.734632
0.665483
-7.31014e-06
0.734649
0.665473
0.734578
0.665486
9.41562e-06
0.0845132
0.650074
3.35649e-06
0.0845513
0.650092
9.1283e-07
0.0845537
0.650087
-1.98438e-06
0.0845532
0.650084
-1.12736e-05
0.0845749
0.650086
0.0845019
0.650067
-2.48812e-05
0.0817931
-1.99848e-05
0.0818012
-1.20128e-05
0.0818006
-1.80642e-06
0.0817979
2.36641e-05
0.0818044
0.0817807
-7.53153e-07
0.126975
-1.56062e-06
-4.97388e-07
0.126975
-1.56073e-06
-6.3575e-08
0.126976
-1.56098e-06
3.48412e-06
0.126973
-1.56124e-06
5.7679e-06
0.126971
-1.56125e-06
0.12698
-1.5611e-06
9.56134e-07
0.111398
-8.44094e-06
-9.20095e-07
0.111397
-8.44067e-06
1.49647e-06
0.111397
-8.44094e-06
3.03477e-06
0.111394
-8.44091e-06
-5.25753e-07
0.111393
-8.44034e-06
0.111399
-8.44113e-06
2.33779e-06
0.160386
-2.00774e-07
-4.78903e-08
0.160387
-2.00773e-07
1.75646e-06
0.160384
-2.0077e-07
2.27485e-06
0.160382
-2.00763e-07
-2.72738e-06
0.160382
-2.00765e-07
0.160385
-2.00782e-07
3.65128e-06
0.264203
-3.34142e-07
4.21812e-07
0.264206
-3.34071e-07
2.30705e-06
0.264201
-3.34091e-07
2.58892e-06
0.264199
-3.33993e-07
-3.67769e-06
0.264201
-3.3393e-07
0.264199
-3.34183e-07
5.39305e-06
0.435583
-3.64151e-07
7.04785e-07
0.435588
-3.64149e-07
2.92717e-06
0.435581
-3.64153e-07
3.58879e-06
0.43558
-3.64134e-07
-4.13017e-06
0.435585
-3.64111e-07
0.435578
-3.64099e-07
6.46737e-06
0.686601
-3.1227e-08
5.04652e-07
0.686613
-3.12294e-08
3.74475e-06
0.686603
-3.12282e-08
5.52487e-06
0.686604
-3.12259e-08
-3.22287e-06
0.686613
-3.12238e-08
0.686602
-3.12174e-08
7.94717e-06
0.972568
-3.64144e-09
1.00993e-06
0.972596
-3.64162e-09
5.45991e-06
0.972579
-3.64148e-09
8.3631e-06
0.972581
-3.6412e-09
-9.99045e-07
0.972597
-3.64093e-09
0.972577
-3.64033e-09
9.18901e-06
1.21209
-1.77626e-08
3.68136e-06
1.21214
-1.77577e-08
8.02294e-06
1.21212
-1.77607e-08
1.01671e-05
1.21212
-1.77688e-08
1.9519e-06
1.21214
-1.77775e-08
1.21211
-1.77589e-08
1.6526e-05
1.49159
0.0370541
7.53773e-06
1.49166
0.0370453
1.03969e-05
1.49163
0.0370473
1.1248e-05
1.49163
0.0370477
1.1017e-06
1.49165
0.0370469
1.49162
0.0370515
3.48398e-05
1.50259
0.396738
1.34108e-05
1.50271
0.396705
8.93541e-06
1.50268
0.396711
4.40261e-06
1.50268
0.396712
-1.65014e-05
1.50271
0.396705
1.50263
0.396729
4.30996e-05
0.749483
1.28336
1.30952e-05
0.749653
1.28338
3.85561e-06
0.749612
1.28337
-3.86883e-06
0.749612
1.28337
-3.05218e-05
0.749652
1.28337
0.749526
1.28337
-7.24267e-05
0.828402
-2.84429e-05
0.828463
-9.05354e-06
0.828446
6.04189e-06
0.828448
4.84938e-05
0.828467
0.828408
-4.5592e-12
3.18044e-08
-1.57045e-06
-2.82941e-12
3.18044e-08
-1.57056e-06
-8.71437e-13
3.1807e-08
-1.57081e-06
2.30219e-12
3.18087e-08
-1.57107e-06
5.56531e-12
3.18098e-08
-1.57109e-06
3.18137e-08
-1.57094e-06
-1.31625e-11
1.67424e-07
-8.56166e-06
-6.48956e-12
1.67416e-07
-8.5614e-06
9.33751e-14
1.67418e-07
-8.56168e-06
7.00995e-12
1.67413e-07
-8.56164e-06
1.45299e-11
1.67406e-07
-8.56106e-06
1.67429e-07
-8.56184e-06
-1.01579e-12
2.19664e-08
-4.41481e-08
-4.88234e-13
2.19649e-08
-4.41567e-08
-8.52225e-14
2.19648e-08
-4.41511e-08
3.05384e-13
2.19625e-08
-4.41499e-08
9.63119e-13
2.19617e-08
-4.41594e-08
2.19663e-08
-4.41493e-08
-8.40932e-13
2.41374e-08
-3.31217e-07
-3.4244e-13
2.41339e-08
-3.31145e-07
1.54918e-14
2.41346e-08
-3.31165e-07
3.40765e-13
2.41299e-08
-3.31066e-07
9.4826e-13
2.41268e-08
-3.31001e-07
2.41379e-08
-3.31259e-07
-7.52619e-13
2.62268e-08
-3.65833e-07
-3.54273e-13
2.62264e-08
-3.65835e-07
-5.81749e-14
2.62266e-08
-3.65839e-07
2.50911e-13
2.62252e-08
-3.65823e-07
7.61775e-13
2.62237e-08
-3.65802e-07
2.62238e-08
-3.65777e-07
-9.23694e-14
4.16855e-09
-9.10599e-09
-4.84288e-14
4.16875e-09
-9.10913e-09
-1.00377e-14
4.16859e-09
-9.10761e-09
3.29421e-14
4.16828e-09
-9.10643e-09
8.76006e-14
4.16799e-09
-9.10545e-09
4.16727e-09
-9.09808e-09
-6.83543e-15
5.71252e-10
-4.41312e-11
-6.77689e-15
5.7127e-10
-4.41315e-11
-2.86393e-15
5.71247e-10
-4.41284e-11
2.11521e-15
5.71204e-10
-4.41197e-11
7.44729e-15
5.71163e-10
-4.4112e-11
5.71079e-10
-4.41239e-11
-6.62793e-16
-1.70334e-08
-4.77557e-12
1.31919e-17
-1.70285e-08
-4.76406e-12
1.26181e-16
-1.70315e-08
-4.7701e-12
1.06598e-16
-1.70396e-08
-4.78069e-12
-1.79822e-16
-1.70484e-08
-4.78985e-12
-1.70298e-08
-4.77452e-12
4.5837e-07
0.0341183
0.0029357
1.33478e-07
0.0341103
0.00293557
4.70921e-08
0.0341122
0.00293552
6.26982e-09
0.0341125
0.00293553
-1.8715e-07
0.0341119
0.00293556
0.0341159
0.00293579
1.15848e-06
0.303544
0.0403095
7.40562e-07
0.303543
0.0403001
3.42961e-07
0.303541
0.0403018
7.14843e-08
0.303542
0.0403023
-7.18347e-07
0.303542
0.0402999
0.303548
0.0403075
0.000103854
0.592185
0.589257
2.93189e-05
0.592426
0.589192
8.38568e-06
0.592346
0.589203
-3.83612e-06
0.592346
0.589208
-5.16369e-05
0.592394
0.589201
0.592251
0.589238
-0.00010749
1.34365
-1.9495e-05
1.34373
-7.38273e-06
1.34372
1.5458e-05
1.34371
9.93355e-05
1.34372
1.34371
-2.90123e-11
-8.73335e-07
-7.18593e-07
-5.21899e-12
-8.73338e-07
-7.18621e-07
7.11045e-12
-8.73389e-07
-7.188e-07
1.07124e-11
-8.7341e-07
-7.19e-07
2.16159e-11
-8.73362e-07
-7.19033e-07
-8.73443e-07
-7.18941e-07
-1.07815e-10
-7.21199e-07
-5.73529e-06
-1.03322e-11
-7.21136e-07
-5.7353e-06
8.89965e-12
-7.2118e-07
-5.73551e-06
7.50393e-12
-7.21186e-07
-5.73544e-06
8.33881e-11
-7.21118e-07
-5.73498e-06
-7.21278e-07
-5.73543e-06
2.1117e-13
-1.56033e-07
-6.78145e-07
7.98202e-13
-1.55955e-07
-6.78241e-07
4.19177e-13
-1.55966e-07
-6.78215e-07
8.83753e-14
-1.55899e-07
-6.7829e-07
6.42973e-13
-1.55855e-07
-6.78379e-07
-1.56073e-07
-6.78202e-07
-4.40028e-12
-1.24045e-07
-2.23929e-07
-4.64416e-13
-1.24012e-07
-2.23952e-07
-2.37538e-12
-1.24012e-07
-2.23948e-07
-2.1031e-12
-1.23997e-07
-2.23923e-07
6.65134e-12
-1.23985e-07
-2.23892e-07
-1.24038e-07
-2.23885e-07
-1.23501e-11
-4.99396e-08
-2.90642e-07
-5.51667e-12
-4.99316e-08
-2.90638e-07
-6.42847e-12
-4.99304e-08
-2.90637e-07
-4.3743e-12
-4.99256e-08
-2.90613e-07
9.64005e-12
-4.99206e-08
-2.90598e-07
-4.99271e-08
-2.90631e-07
-3.79037e-13
-4.23781e-10
-7.63553e-08
-1.48668e-13
-4.2382e-10
-7.63526e-08
-1.11025e-13
-4.23733e-10
-7.63482e-08
-3.63385e-14
-4.23624e-10
-7.63407e-08
2.82298e-13
-4.23538e-10
-7.63333e-08
-4.23539e-10
-7.63261e-08
-9.83325e-16
-4.95893e-14
-4.66716e-10
-3.34706e-16
-4.95342e-14
-4.66723e-10
-2.63977e-17
-4.96633e-14
-4.66652e-10
2.05577e-16
-4.9917e-14
-4.66566e-10
1.45628e-15
-5.01603e-14
-4.66505e-10
-4.9507e-14
-4.66456e-10
2.88285e-17
1.90042e-11
-2.61258e-11
4.18711e-17
1.90039e-11
-2.61121e-11
6.19531e-17
1.90108e-11
-2.61257e-11
3.02341e-17
1.90226e-11
-2.61503e-11
3.40993e-17
1.9036e-11
-2.61742e-11
1.89968e-11
-2.61192e-11
2.84275e-08
0.0027423
0.000193817
2.31578e-08
0.00274221
0.000193804
1.52324e-08
0.00274217
0.000193807
-3.398e-09
0.00274218
0.000193815
-5.50355e-08
0.00274223
0.00019383
0.00274237
0.000193807
3.76227e-07
0.0378945
0.00502945
1.45677e-07
0.0378863
0.00502876
8.01362e-08
0.0378877
0.00502888
3.64469e-08
0.037888
0.00502897
-5.11849e-08
0.0378857
0.00502896
0.0378932
0.00502908
1.57616e-05
0.159876
0.174032
6.17722e-06
0.15992
0.174028
5.0824e-07
0.159905
0.174026
-5.52999e-07
0.15989
0.174033
-3.7365e-06
0.159885
0.174053
0.159907
0.174004
-2.813e-05
1.3814
1.42828e-05
1.38147
3.91903e-05
1.38144
2.09749e-05
1.38147
-9.30105e-05
1.38157
1.38136
-6.23333e-66
2.17232e-63
-1.59307e-60
-9.9603e-66
2.17389e-63
-1.59743e-60
-1.07936e-65
2.17153e-63
-1.59738e-60
-9.73749e-66
2.1701e-63
-1.5974e-60
-6.6589e-66
2.16924e-63
-1.59802e-60
2.16123e-63
-1.59456e-60
-2.21221e-61
1.09413e-58
-3.97413e-56
-2.78532e-61
1.09471e-58
-3.98651e-56
-2.82352e-61
1.09369e-58
-3.98748e-56
-2.49257e-61
1.09322e-58
-3.98898e-56
-1.73758e-61
1.0932e-58
-3.99274e-56
1.08993e-58
-3.98757e-56
-2.27375e-57
2.14521e-54
-4.89193e-52
-2.70736e-57
2.14217e-54
-4.89116e-52
-2.90569e-57
2.13811e-54
-4.88319e-52
-2.59821e-57
2.13589e-54
-4.87896e-52
-1.69916e-57
2.13518e-54
-4.87794e-52
2.12867e-54
-4.86397e-52
-3.69106e-53
4.41714e-50
-2.63878e-47
-6.92343e-53
4.3924e-50
-2.61601e-47
-9.24476e-53
4.36826e-50
-2.59309e-47
-9.52891e-53
4.36425e-50
-2.59087e-47
-6.75093e-53
4.39786e-50
-2.62922e-47
4.29131e-50
-2.51658e-47
-1.49749e-46
4.82216e-44
-1.88044e-41
-2.62171e-46
4.78481e-44
-1.85396e-41
-3.19834e-46
4.75324e-44
-1.83656e-41
-3.20823e-46
4.76667e-44
-1.8412e-41
-2.21436e-46
4.86783e-44
-1.88573e-41
4.64203e-44
-1.81359e-41
-1.78307e-41
1.80344e-39
-3.18694e-37
-2.56182e-41
1.80128e-39
-3.25449e-37
-2.72023e-41
1.79817e-39
-3.30546e-37
-2.49996e-41
1.81233e-39
-3.39323e-37
-1.64373e-41
1.85974e-39
-3.56676e-37
1.77964e-39
-3.53848e-37
-1.67855e-37
8.53291e-36
-1.37901e-33
-1.95573e-37
8.70441e-36
-1.60599e-33
-1.64449e-37
8.80358e-36
-1.73725e-33
-1.24398e-37
8.95586e-36
-1.81109e-33
-7.00539e-38
9.24746e-36
-1.91772e-33
8.86868e-36
-1.8992e-33
-1.61003e-34
7.35618e-33
-9.65968e-31
-1.23883e-34
7.75368e-33
-1.34664e-30
-3.91704e-35
7.95835e-33
-1.51109e-30
3.15321e-35
8.15845e-33
-1.60631e-30
5.5888e-35
8.4249e-33
-1.67498e-30
8.01794e-33
-1.57466e-30
-1.71823e-33
4.29551e-31
1.34236e-31
1.11141e-32
4.6973e-31
1.28831e-31
2.44399e-32
4.83734e-31
1.26893e-31
3.06219e-32
4.89221e-31
1.27484e-31
2.49103e-32
4.93027e-31
1.31465e-31
4.50567e-31
1.27555e-31
1.40349e-33
5.402e-32
-3.85823e-28
3.1724e-33
5.54081e-32
-3.90158e-28
3.83625e-33
4.89452e-32
-3.35818e-28
3.38219e-33
4.12588e-32
-2.73475e-28
1.59678e-33
2.66786e-32
-1.57238e-28
2.19511e-32
-1.24975e-28
8.98291e-34
-4.65806e-30
2.69019e-32
1.28608e-33
-4.6337e-30
2.74759e-32
1.40652e-33
-4.60234e-30
2.78513e-32
1.31681e-33
-4.55611e-30
2.82258e-32
9.15212e-34
-4.47238e-30
2.8724e-32
-4.30023e-30
2.93476e-32
8.81643e-32
-4.25324e-27
1.77428e-32
-4.09646e-27
-6.38261e-32
-4.05851e-27
-1.04681e-31
-4.05227e-27
-8.28445e-32
-4.03368e-27
-3.93633e-27
-4.73913e-63
2.08933e-60
-1.02947e-57
-6.79084e-63
2.09052e-60
-1.03187e-57
-7.01127e-63
2.08849e-60
-1.03168e-57
-6.06248e-63
2.08722e-60
-1.03157e-57
-4.08538e-63
2.08668e-60
-1.0318e-57
2.08003e-60
-1.02932e-57
-1.29594e-58
1.06703e-55
-2.58599e-53
-1.60505e-58
1.06753e-55
-2.59179e-53
-1.61633e-58
1.06638e-55
-2.59144e-53
-1.35072e-58
1.06562e-55
-2.5915e-53
-8.34592e-59
1.06532e-55
-2.59268e-53
1.06216e-55
-2.58753e-53
-2.12725e-54
2.13527e-51
-3.2786e-49
-2.85428e-54
2.13385e-51
-3.27968e-49
-3.04784e-54
2.13013e-51
-3.27589e-49
-2.64515e-54
2.12755e-51
-3.27365e-49
-1.58532e-54
2.12634e-51
-3.27331e-49
2.12002e-51
-3.26432e-49
-3.1951e-49
1.92384e-46
-1.51748e-43
-4.83189e-49
1.91539e-46
-1.51132e-43
-5.34136e-49
1.90385e-46
-1.50211e-43
-4.90642e-49
1.90544e-46
-1.50438e-43
-3.09933e-49
1.93541e-46
-1.532e-43
1.85288e-46
-1.45971e-43
-1.01591e-42
3.06789e-40
-1.27136e-37
-1.40864e-42
3.05728e-40
-1.27007e-37
-1.45646e-42
3.04388e-40
-1.26609e-37
-1.29792e-42
3.05644e-40
-1.27254e-37
-8.198e-43
3.1222e-40
-1.3015e-37
2.97745e-40
-1.24451e-37
-6.16012e-38
1.20171e-35
-2.76532e-33
-7.28309e-38
1.20378e-35
-2.79345e-33
-6.61785e-38
1.2033e-35
-2.80317e-33
-5.31166e-38
1.21265e-35
-2.83224e-33
-3.15253e-38
1.24294e-35
-2.91055e-33
1.1888e-35
-2.79644e-33
-3.30996e-34
6.44486e-32
-9.83564e-30
-2.85797e-34
6.52961e-32
-1.01402e-29
-1.63422e-34
6.56944e-32
-1.02693e-29
-4.34313e-35
6.65226e-32
-1.04252e-29
1.8836e-35
6.83737e-32
-1.07258e-29
6.54501e-32
-1.0285e-29
-1.03578e-31
6.86705e-29
-7.71115e-27
1.53798e-31
7.0589e-29
-8.09802e-27
4.37081e-31
7.13341e-29
-8.23055e-27
5.79049e-31
7.22559e-29
-8.32935e-27
4.80733e-31
7.39466e-29
-8.48151e-27
7.02117e-29
-7.98753e-27
3.9815e-29
6.14192e-27
-4.42839e-26
8.61304e-29
6.40777e-27
-6.54234e-26
1.18193e-28
6.45841e-27
-6.7239e-26
1.21408e-28
6.42356e-27
-5.8444e-26
8.48685e-29
6.42808e-27
-4.29192e-26
5.8926e-27
-1.94853e-26
4.80152e-29
4.29055e-27
-6.51648e-24
7.06193e-29
4.19788e-27
-6.36052e-24
6.76955e-29
3.6874e-27
-5.60936e-24
5.14939e-29
3.14119e-27
-4.81821e-24
2.0048e-29
1.93343e-27
-2.97832e-24
1.69628e-27
-2.69844e-24
4.52534e-31
9.85187e-29
5.79946e-29
2.93031e-31
9.90825e-29
5.89753e-29
-8.55139e-32
9.94787e-29
5.9393e-29
-4.03791e-31
9.99773e-29
5.96933e-29
-4.91216e-31
1.00384e-28
5.98968e-29
1.01127e-28
6.03109e-29
-3.7714e-28
2.58258e-26
-6.87034e-28
2.61077e-26
-8.65173e-28
2.6208e-26
-8.45797e-28
2.62392e-26
-6.02747e-28
2.63108e-26
2.62878e-26
-1.025e-60
6.81548e-58
-2.19216e-55
-1.20651e-60
6.82416e-58
-2.19712e-55
-1.1015e-60
6.82177e-58
-2.19679e-55
-7.98274e-61
6.82135e-58
-2.19672e-55
-4.0799e-61
6.8242e-58
-2.19736e-55
6.81035e-58
-2.19222e-55
-2.42188e-56
3.41636e-53
-5.39343e-51
-2.33103e-56
3.42084e-53
-5.40504e-51
-1.93937e-56
3.41928e-53
-5.40422e-51
-1.1706e-56
3.41864e-53
-5.40426e-51
-2.85612e-57
3.4197e-53
-5.40631e-51
3.41282e-53
-5.39481e-51
-4.29089e-52
6.34028e-49
-7.56159e-47
-4.99557e-52
6.34551e-49
-7.56907e-47
-4.97191e-52
6.34051e-49
-7.56055e-47
-4.07035e-52
6.33783e-49
-7.56293e-47
-2.29064e-52
6.33898e-49
-7.58756e-47
6.32537e-49
-7.51233e-47
-4.78569e-46
3.27463e-43
-2.57694e-40
-6.22371e-46
3.26761e-43
-2.5721e-40
-6.28002e-46
3.25225e-43
-2.55967e-40
-5.36427e-46
3.26087e-43
-2.56615e-40
-3.21627e-46
3.32343e-43
-2.61566e-40
3.16769e-43
-2.4911e-40
-6.93806e-40
2.10331e-37
-9.26796e-35
-7.24441e-40
2.10046e-37
-9.28202e-35
-5.60672e-40
2.09598e-37
-9.26649e-35
-3.45241e-40
2.10911e-37
-9.32396e-35
-1.32615e-40
2.15801e-37
-9.53993e-35
2.06036e-37
-9.11904e-35
-6.59277e-36
2.3042e-33
-8.38159e-31
3.24878e-36
2.29815e-33
-8.4993e-31
1.46248e-35
2.30236e-33
-8.55205e-31
2.11608e-35
2.33113e-33
-8.66075e-31
1.87812e-35
2.40103e-33
-8.91224e-31
2.30703e-33
-8.56106e-31
1.10272e-31
-8.79837e-29
-1.36777e-27
2.13573e-31
-1.38596e-28
-1.42603e-27
2.75334e-31
-1.16987e-28
-1.45505e-27
2.79134e-31
-6.5354e-29
-1.48604e-27
2.03064e-31
7.16683e-34
-1.5338e-27
1.15126e-31
-1.46842e-27
2.48835e-28
-6.39389e-25
-6.65802e-25
3.91086e-28
-6.50994e-25
-7.15947e-25
4.40223e-28
-6.45533e-25
-7.32187e-25
3.99923e-28
-6.28002e-25
-7.43749e-25
2.57459e-28
-6.17127e-25
-7.55033e-25
-5.58768e-25
-7.02182e-25
3.51227e-26
-3.0986e-23
5.31515e-25
5.30419e-26
-2.97944e-23
5.22772e-25
5.63918e-26
-2.68552e-23
5.23448e-25
4.81877e-26
-2.39795e-23
5.25405e-25
2.73147e-26
-1.57778e-23
5.42807e-25
-1.59821e-23
5.26698e-25
7.05429e-25
-5.72487e-25
9.82484e-24
7.1778e-25
-5.5694e-25
9.72917e-24
4.35727e-25
-5.22256e-25
9.27915e-24
1.13364e-25
-4.88093e-25
8.88954e-24
-1.39316e-26
-3.95369e-25
6.34757e-24
-3.86552e-25
6.94926e-24
1.97285e-27
-3.49042e-23
1.68149e-24
-2.42974e-27
-3.48254e-23
1.66603e-24
-6.78999e-27
-3.47097e-23
1.58741e-24
-7.16822e-27
-3.46085e-23
1.50628e-24
-5.83252e-27
-3.45441e-23
1.23852e-24
-3.44376e-23
1.22454e-24
-2.70983e-25
-2.89658e-23
-4.27836e-25
-2.8719e-23
-4.67262e-25
-2.85347e-23
-4.15972e-25
-2.86186e-23
-1.67778e-25
-2.88037e-23
-2.78118e-23
-1.09472e-58
9.51653e-56
-1.58557e-53
-8.78618e-59
9.52933e-56
-1.58901e-53
-5.3409e-59
9.5281e-56
-1.5888e-53
-1.29257e-59
9.53005e-56
-1.58882e-53
1.71829e-59
9.53669e-56
-1.58935e-53
9.52007e-56
-1.58571e-53
-2.13776e-54
4.79713e-51
-4.23399e-49
-1.24256e-54
4.80389e-51
-4.24211e-49
-2.26812e-55
4.80282e-51
-4.24053e-49
8.16447e-55
4.80324e-51
-4.2425e-49
1.48292e-54
4.80592e-51
-4.25218e-49
4.79718e-51
-4.225e-49
-4.7997e-50
1.09325e-46
-1.53549e-43
-4.6842e-50
1.09454e-46
-1.53707e-43
-3.56019e-50
1.09375e-46
-1.53298e-43
-2.1221e-50
1.09455e-46
-1.53969e-43
-7.78778e-51
1.09858e-46
-1.56991e-43
1.08828e-46
-1.49713e-43
-3.33143e-43
5.988e-40
-3.58777e-37
-3.71259e-43
5.98404e-40
-3.58716e-37
-2.87157e-43
5.96162e-40
-3.57389e-37
-1.85725e-43
5.9822e-40
-3.58596e-37
-8.37657e-44
6.10117e-40
-3.65659e-37
5.81149e-40
-3.48226e-37
-1.03535e-37
3.83958e-34
-9.0452e-32
1.38562e-39
3.84467e-34
-9.06379e-32
1.47635e-37
3.83871e-34
-9.0499e-32
2.33159e-37
3.86224e-34
-9.10332e-32
2.10606e-37
3.94796e-34
-9.30256e-32
3.76532e-34
-8.87296e-32
4.14859e-33
6.53967e-30
-7.03106e-28
1.00427e-32
6.55756e-30
-7.06496e-28
1.43241e-32
6.55469e-30
-7.06645e-28
1.55144e-32
6.60219e-30
-7.11911e-28
1.18304e-32
6.75559e-30
-7.28312e-28
6.44991e-30
-6.95229e-28
3.4765e-29
2.05385e-26
-1.20954e-24
6.41658e-29
2.06407e-26
-1.21945e-24
8.03396e-29
2.06555e-26
-1.22163e-24
8.044e-29
2.08246e-26
-1.23223e-24
5.77357e-29
2.13175e-26
-1.26022e-24
2.03628e-26
-1.20068e-24
4.15906e-26
1.83965e-23
-1.95552e-21
6.38977e-26
1.85182e-23
-1.96587e-21
7.15698e-26
1.85367e-23
-1.96887e-21
6.69084e-26
1.86894e-23
-1.99266e-21
4.44727e-26
1.90892e-23
-2.03015e-21
1.81924e-23
-1.89831e-21
1.26333e-23
6.58762e-21
-3.54684e-18
1.33118e-23
6.59011e-21
-3.55711e-18
9.17765e-24
6.60289e-21
-3.53811e-18
4.7483e-24
6.59874e-21
-3.55543e-18
-2.63561e-25
6.70658e-21
-3.57861e-18
6.2478e-21
-3.27409e-18
-1.79841e-20
1.77173e-17
-2.44993e-16
-4.88249e-20
1.75603e-17
-2.46737e-16
-7.72148e-20
1.73465e-17
-2.51314e-16
-8.33998e-20
1.73815e-17
-2.49557e-16
-6.31492e-20
1.74969e-17
-2.53291e-16
1.61256e-17
-2.57383e-16
-5.20935e-23
1.16451e-20
7.87085e-18
-7.23746e-23
1.14061e-20
7.69665e-18
-7.86083e-23
1.11513e-20
7.52345e-18
-6.76699e-23
1.13656e-20
7.67643e-18
-3.96457e-23
1.14715e-20
7.75179e-18
9.97142e-21
6.749e-18
-2.30363e-25
1.16221e-20
-2.54707e-25
1.13834e-20
-1.86303e-25
1.11289e-20
-4.73999e-26
1.13429e-20
-2.1029e-25
1.14489e-20
9.95033e-21
8.11258e-12
-8.04134e-08
3.06475e-08
4.15825e-12
-8.03886e-08
3.06662e-08
-2.90314e-12
-8.04174e-08
3.06682e-08
-8.00778e-12
-8.0455e-08
3.06817e-08
-9.09341e-12
-8.04729e-08
3.07011e-08
-8.04821e-08
3.06598e-08
2.98219e-13
2.65859e-15
3.716e-09
8.32146e-14
2.9121e-15
3.7119e-09
-4.33838e-14
2.98913e-15
3.71367e-09
-1.42495e-13
2.92266e-15
3.71332e-09
-3.15256e-13
2.90544e-15
3.7092e-09
2.9748e-15
3.71589e-09
-4.00083e-20
-4.30927e-17
-1.02215e-20
-4.71959e-17
6.39274e-21
-4.84463e-17
2.02159e-20
-4.73692e-17
5.20097e-20
-4.70888e-17
-4.82197e-17
1.01462e-10
-2.02364e-06
1.03168e-06
2.02554e-11
-2.02346e-06
1.03172e-06
-4.56454e-11
-2.0237e-06
1.03175e-06
-7.33074e-11
-2.02363e-06
1.03173e-06
-1.10635e-10
-2.02307e-06
1.03169e-06
-2.02373e-06
1.0317e-06
3.52618e-11
1.49948e-14
6.02347e-08
7.48786e-12
1.64236e-14
6.02063e-08
-9.17695e-12
1.68591e-14
6.02212e-08
-2.4197e-11
1.6484e-14
6.02199e-08
-5.29457e-11
1.63868e-14
6.01902e-08
1.67795e-14
6.02415e-08
-2.26969e-19
-3.44389e-16
-6.8493e-20
-3.7716e-16
3.62837e-20
-3.87174e-16
1.34973e-19
-3.78567e-16
3.24761e-19
-3.76332e-16
-3.8541e-16
1.3358e-11
-1.52606e-07
-7.671e-08
3.11872e-12
-1.52585e-07
-7.67326e-08
-2.81679e-12
-1.52591e-07
-7.67265e-08
-8.60701e-12
-1.52609e-07
-7.67499e-08
-1.93967e-11
-1.52611e-07
-7.67636e-08
-1.52638e-07
-7.66969e-08
1.13857e-12
9.83957e-14
4.1301e-09
4.36897e-13
1.07775e-13
4.12781e-09
3.04364e-14
1.10629e-13
4.12851e-09
-4.75626e-13
1.08168e-13
4.12833e-09
-1.53181e-12
1.07532e-13
4.12751e-09
1.10101e-13
4.13175e-09
-1.53589e-18
-3.50332e-15
-5.26857e-19
-3.83692e-15
1.41211e-19
-3.93861e-15
7.41397e-19
-3.85099e-15
1.93162e-18
-3.82828e-15
-3.92014e-15
4.20784e-12
-4.12588e-09
5.11003e-09
2.09482e-12
-4.12375e-09
5.06813e-09
8.48668e-14
-4.12445e-09
5.07827e-09
-2.58318e-12
-4.12438e-09
5.03889e-09
-6.57023e-12
-4.12365e-09
5.02512e-09
-4.12776e-09
5.15419e-09
3.50063e-15
7.89672e-14
4.14468e-12
1.99663e-15
8.64889e-14
3.97798e-12
9.32854e-16
8.87766e-14
3.97566e-12
-5.27358e-16
8.67971e-14
3.8672e-12
-3.34678e-15
8.62863e-14
3.77611e-12
8.83465e-14
3.89404e-12
-1.23373e-18
-1.78276e-15
-3.80978e-19
-1.95239e-15
5.1619e-20
-2.00397e-15
4.37597e-19
-1.95922e-15
1.34925e-18
-1.94764e-15
-1.99423e-15
5.69992e-12
-1.12462e-07
8.42572e-08
2.98146e-12
-1.12473e-07
8.42391e-08
2.54439e-13
-1.12463e-07
8.42394e-08
-3.50473e-12
-1.12467e-07
8.42282e-08
-8.18263e-12
-1.12459e-07
8.42161e-08
-1.12402e-07
8.42371e-08
1.63043e-12
3.29706e-15
9.5297e-10
8.5118e-13
3.61329e-15
9.50925e-10
3.47969e-13
3.71165e-15
9.5131e-10
-2.76352e-13
3.6281e-15
9.50919e-10
-1.44274e-12
3.60541e-15
9.50054e-10
3.66227e-15
9.52349e-10
-4.6174e-20
-3.67375e-17
-1.10952e-20
-4.02588e-17
4.40468e-21
-4.13501e-17
1.76458e-20
-4.04155e-17
5.51907e-20
-4.01619e-17
-4.07909e-17
1.08247e-12
-9.53377e-10
4.78367e-10
4.40572e-13
-9.51333e-10
4.78389e-10
-3.89378e-15
-9.51717e-10
4.78304e-10
-2.44738e-13
-9.51326e-10
4.78204e-10
-7.31762e-13
-9.50461e-10
4.78135e-10
-9.52756e-10
4.78105e-10
5.00285e-16
1.38688e-17
-4.07573e-13
1.50802e-16
1.51691e-17
-4.07092e-13
3.71034e-17
1.55749e-17
-4.07257e-13
-3.76832e-17
1.52294e-17
-4.07386e-13
-3.51223e-16
1.51334e-17
-4.0741e-13
1.53561e-17
-4.07395e-13
-1.52711e-22
4.50402e-20
-1.63567e-23
4.45164e-20
5.53241e-23
4.48574e-20
9.631e-23
4.51497e-20
2.16796e-22
4.49564e-20
4.63091e-20
-7.28775e-16
-1.35326e-11
1.21643e-11
1.48888e-15
-1.35268e-11
1.21668e-11
8.40258e-17
-1.35334e-11
1.21625e-11
4.19761e-16
-1.35457e-11
1.21567e-11
7.89052e-15
-1.35553e-11
1.21519e-11
-1.3535e-11
1.21555e-11
3.90633e-17
1.02067e-17
-1.39442e-11
3.19158e-17
1.009e-17
-1.39379e-11
1.55793e-17
1.01656e-17
-1.39446e-11
-3.26903e-18
1.0228e-17
-1.39571e-11
-1.01368e-16
1.01853e-17
-1.39666e-11
1.04834e-17
-1.39465e-11
-8.47273e-23
-2.94804e-19
4.97246e-24
-2.91453e-19
7.05828e-23
-2.93631e-19
1.18578e-22
-2.95413e-19
2.06017e-22
-2.94202e-19
-3.02752e-19
7.63829e-17
-1.45266e-09
1.49468e-09
1.39683e-15
-1.45177e-09
1.49372e-09
1.44651e-15
-1.4525e-09
1.49449e-09
-9.56351e-17
-1.45382e-09
1.49588e-09
-4.51377e-15
-1.45495e-09
1.49706e-09
-1.45243e-09
1.49445e-09
-1.04753e-16
3.6507e-15
-1.46463e-09
-1.64862e-14
3.63e-15
-1.46371e-09
-3.44779e-14
3.64459e-15
-1.46445e-09
-2.76344e-14
3.65508e-15
-1.4658e-09
-6.0258e-14
3.64558e-15
-1.4669e-09
3.70187e-15
-1.46446e-09
-4.30165e-20
-1.40109e-16
5.11046e-21
-1.39295e-16
3.09864e-20
-1.39836e-16
2.46137e-20
-1.40181e-16
5.68515e-20
-1.3981e-16
-1.42026e-16
9.79678e-10
2.02237e-06
0.000192135
2.35942e-09
2.02128e-06
0.000192123
2.65604e-09
2.02189e-06
0.000192125
1.0027e-09
2.02307e-06
0.000192134
-2.06716e-09
2.02417e-06
0.00019215
2.02151e-06
0.000192125
4.85704e-13
9.48963e-13
2.02092e-06
-5.07825e-12
9.44344e-13
2.01983e-06
-7.02832e-12
9.46921e-13
2.02044e-06
-5.16705e-12
9.4868e-13
2.02162e-06
1.85471e-12
9.45515e-13
2.02272e-06
9.59609e-13
2.02005e-06
1.41575e-17
-3.80208e-13
4.2647e-17
-3.7824e-13
5.66685e-17
-3.79332e-13
3.89667e-17
-3.80175e-13
9.57125e-18
-3.79023e-13
-3.84393e-13
2.42105e-08
0.00044052
0.00477617
1.2717e-08
0.000440512
0.00477551
5.84132e-09
0.000440504
0.00477564
-2.02409e-09
0.000440522
0.00477573
8.54951e-09
0.000440563
0.00477567
0.000440462
0.00477588
2.58586e-10
2.06288e-05
0.000421744
9.47932e-10
2.06317e-05
0.000421738
3.9288e-10
2.06325e-05
0.000421731
-3.88872e-10
2.06243e-05
0.000421723
1.56377e-09
2.06148e-05
0.000421738
2.0632e-05
0.000421683
-4.91465e-11
2.07756e-05
-7.1633e-11
2.07781e-05
-1.10834e-10
2.07791e-05
-1.03347e-10
2.07721e-05
-5.67523e-11
2.07647e-05
2.07773e-05
9.85098e-07
0.0171864
0.161471
5.02408e-07
0.017187
0.161467
9.38236e-08
0.0171852
0.161467
7.25905e-09
0.0171859
0.161473
-1.62655e-06
0.0171946
0.161484
0.0171672
0.161461
8.64499e-08
0.000764274
0.0168546
-1.19041e-07
0.00076491
0.0168549
-3.71823e-07
0.000764858
0.0168532
-2.88768e-07
0.000762661
0.0168558
1.50853e-07
0.000760754
0.016866
0.000763982
0.0168358
-7.3975e-09
0.000689274
-3.20631e-09
0.000689418
2.28422e-08
0.000689243
5.59752e-09
0.000690158
-1.10801e-07
0.000691307
0.000688814
4.23138e-05
0.466842
0.870498
3.8447e-05
0.466908
0.870556
3.98304e-05
0.466883
0.870556
3.92172e-05
0.466813
0.870634
-1.75219e-05
0.466699
0.870955
0.466943
0.870324
1.89884e-05
0.0163173
0.343128
5.79627e-07
0.0163252
0.343161
-3.9439e-05
0.0163225
0.343148
-1.88233e-05
0.0163126
0.343252
8.87907e-05
0.0163112
0.343341
0.0163047
0.343019
-8.3475e-07
0.0126629
-4.675e-06
0.0126676
-1.03602e-05
0.0126661
-6.96146e-06
0.0126601
-3.30978e-06
0.0126686
0.0126433
3.80095e-08
3.84718e-05
-4.49015e-05
4.5858e-07
2.85287e-08
3.82957e-05
-4.46456e-05
4.56437e-07
1.13519e-07
3.81873e-05
-4.46202e-05
4.54952e-07
1.6828e-07
3.87284e-05
-4.52038e-05
4.59463e-07
-6.79165e-08
4.00414e-05
-4.64069e-05
4.75953e-07
3.64331e-05
-4.25823e-05
4.32963e-07
2.00489e-09
-3.83537e-50
1.30134e-05
-3.16583e-07
-7.37394e-11
-3.90104e-50
1.2751e-05
-3.10827e-07
8.50002e-09
-3.96834e-50
1.25876e-05
-3.08486e-07
-1.67924e-09
-3.40765e-50
1.28882e-05
-3.15743e-07
-7.0812e-08
-1.60922e-51
1.37396e-05
-3.34285e-07
-1.19561e-49
1.18063e-05
-2.87723e-07
-1.60666e-52
4.25092e-48
-4.28912e-48
-7.32682e-53
4.34392e-48
-4.38302e-48
-4.41828e-52
4.3858e-48
-4.42512e-48
2.46115e-52
3.82435e-48
-3.85911e-48
1.61211e-52
1.88348e-49
-1.89873e-49
1.26031e-47
-1.27225e-47
2.2269e-06
9.7613e-06
-0.0124541
-5.37881e-07
9.71942e-06
-0.0123633
-8.0509e-06
9.57647e-06
-0.0123351
4.23635e-06
1.0134e-05
-0.0124972
6.5757e-05
1.25902e-05
-0.0129031
6.24865e-06
-0.0117502
8.48431e-10
4.20827e-06
2.17143e-05
-9.36835e-10
3.61735e-06
1.77006e-05
-2.02008e-09
3.087e-06
1.36736e-05
-9.73798e-11
3.31493e-06
1.57949e-05
4.27726e-09
3.61661e-06
1.81136e-05
2.72258e-06
1.07431e-05
2.19759e-05
-0.141636
-1.06851e-05
-0.14156
1.70616e-05
-0.141181
-0.00010564
-0.142721
-0.000352991
-0.146538
-0.137392
-8.03254e-06
-0.134909
0.000773891
1.11524e-05
-0.134848
0.000784545
8.81079e-06
-0.134771
0.000787073
2.02712e-05
-0.135142
0.000777196
0.000120054
-0.13552
0.000711986
-0.134769
0.000896657
1.79252e-05
0.265972
-0.733082
-4.20598e-06
0.265722
-0.733106
3.32194e-06
0.265564
-0.733197
-3.75185e-05
0.266416
-0.734267
-3.70458e-05
0.268301
-0.735295
0.263974
-0.73376
0.000200486
-0.498083
-9.96524e-05
-0.499454
-3.29441e-05
-0.499468
-0.000349774
-0.496236
-0.00252021
-0.49277
-0.500342
-2.92126e-05
-0.0378832
-0.0593908
-4.39275e-06
-0.0378415
-0.0593669
4.76814e-05
-0.0378785
-0.0593563
-1.23383e-05
-0.0383741
-0.0595252
-0.000143505
-0.0387947
-0.0598263
-0.0377661
-0.059256
0.000172253
0.238051
-0.897845
-0.000105179
0.23917
-0.898379
-0.000667179
0.239565
-0.898502
-0.000545231
0.236074
-0.896891
0.0012145
0.230455
-0.894016
0.243692
-0.901715
4.32377e-05
-0.0135833
-3.63012e-05
-0.0136075
-0.000171835
-0.0135947
-6.22403e-05
-0.0136081
0.000154939
-0.0136508
-0.0135637
8.69325e-05
0.139199
-0.344601
3.78253e-05
0.139207
-0.344515
-3.05564e-05
0.139178
-0.344489
9.96245e-05
0.139295
-0.344792
0.000652337
0.139705
-0.345531
0.138774
-0.34398
3.85266e-05
-0.00202054
-0.603083
6.27967e-05
-0.00200922
-0.603253
0.000211174
-0.00201583
-0.603265
0.000243876
-0.00200278
-0.603129
-0.000358323
-0.0019766
-0.602563
-0.00201039
-0.60382
1.58325e-07
-0.015604
-5.54378e-07
-0.015616
-1.25063e-06
-0.0156099
-1.20261e-06
-0.015611
-1.86607e-06
-0.0156268
-0.0155759
1.44818e-05
0.397699
9.21441e-05
0.397781
0.000246985
0.397734
0.000120487
0.397787
-0.000560226
0.397914
0.39756
2.48149e-05
0.00310876
1.4008e-05
0.00312282
4.2254e-06
0.00311978
1.71969e-05
0.00309111
6.30494e-05
0.00305938
0.0031173
-6.78558e-08
-2.2291e-06
-4.12812e-06
-4.8762e-06
-8.41362e-06
-2.92742e-57
-3.34403e-55
3.58161e-54
-1.58233e-57
-3.35166e-55
3.58931e-54
-5.8554e-58
-3.35154e-55
3.58965e-54
5.22451e-58
-3.35162e-55
3.59029e-54
1.45489e-57
-3.35253e-55
3.59205e-54
-3.34455e-55
3.58455e-54
-2.47707e-59
-1.50461e-58
4.20508e-56
-6.53458e-60
-1.50821e-58
4.21507e-56
5.39935e-60
-1.50815e-58
4.21585e-56
1.89633e-59
-1.50821e-58
4.21662e-56
3.13956e-59
-1.50867e-58
4.21836e-56
-1.50498e-58
4.209e-56
-1.33555e-63
1.39478e-60
7.70758e-64
1.40013e-60
3.07312e-63
1.40126e-60
6.13696e-63
1.40217e-60
9.21852e-63
1.40323e-60
1.3985e-60
-3.71608e-53
-5.92959e-46
1.86769e-49
3.9511e-54
-5.93041e-46
1.87138e-49
3.88242e-53
-5.91495e-46
1.87087e-49
6.83269e-53
-5.94285e-46
1.87185e-49
8.39939e-53
-6.06499e-46
1.87615e-49
-5.78919e-46
1.86415e-49
9.33946e-51
-7.08157e-42
1.59932e-46