/*--------------------------------*- C++ -*----------------------------------*\
| =========                 |                                                 |
| \\      /  F ield         | OpenFOAM: The Open Source CFD Toolbox           |
|  \\    /   O peration     | Version:  v1612+                                |
|   \\  /    A nd           | Web:      www.OpenFOAM.com                      |
|    \\/     M anipulation  |                                                 |
\*---------------------------------------------------------------------------*/
FoamFile
{
    version     2.0;
    format      ascii;
    class       volScalarField;
    location    "3.1";
    object      alpha.water;
}
// * * * * * * * * * * * * * * * * * * * * * * * * * * * * * * * * * * * * * //

dimensions      [0 0 0 0 0 0 0];

internalField   nonuniform List<scalar> 
1116
(
0.843145
0.84314
0.843141
0.84314
0.843136
0.843142
0.844471
0.844466
0.844468
0.844466
0.844463
0.844468
0.86026
0.860254
0.860256
0.860254
0.860251
0.860256
0.888201
0.888194
0.888196
0.888195
0.888192
0.888198
0.916406
0.916399
0.916401
0.9164
0.916398
0.916403
0.937783
0.937777
0.937777
0.937777
0.937775
0.937779
0.95148
0.951474
0.951473
0.951472
0.951471
0.951474
0.969663
0.969659
0.969658
0.969657
0.969656
0.969659
0.973114
0.973114
0.973114
0.973114
0.973114
0.973114
0.973116
0.973116
0.973116
0.973116
0.973116
0.973116
0.973116
0.973116
0.973116
0.973116
0.973116
0.973116
0.969908
0.969909
0.969909
0.969909
0.969911
0.969905
0.225963
0.225963
0.225962
0.22596
0.22596
0.225961
0.119397
0.119396
0.119396
0.119394
0.119392
0.119397
0.0964965
0.0964948
0.0964948
0.0964934
0.096492
0.0964953
0.115423
0.11542
0.11542
0.115419
0.115418
0.115421
0.154918
0.154914
0.154914
0.154914
0.154912
0.154915
0.212676
0.212671
0.212672
0.212672
0.212671
0.212675
0.291521
0.291515
0.291516
0.291516
0.291515
0.29152
0.330226
0.330222
0.330222
0.330223
0.330223
0.330225
0.40792
0.40791
0.407911
0.407912
0.407911
0.407917
0.672579
0.672551
0.672558
0.672559
0.672553
0.67257
0.968468
0.968459
0.968461
0.968461
0.968458
0.968466
0.969883
0.969884
0.969884
0.969884
0.969886
0.969881
2.82269e-08
2.82267e-08
2.82273e-08
2.82286e-08
2.82307e-08
2.82325e-08
8.52289e-09
8.52232e-09
8.52245e-09
8.52133e-09
8.52067e-09
8.52291e-09
6.25016e-09
6.24978e-09
6.24992e-09
6.2491e-09
6.2485e-09
6.2499e-09
3.00055e-09
3.00061e-09
3.00061e-09
3.00045e-09
3.00029e-09
3.00014e-09
3.45443e-10
3.45469e-10
3.45455e-10
3.4543e-10
3.45406e-10
3.45337e-10
3.41208e-11
3.41225e-11
3.41211e-11
3.41185e-11
3.41161e-11
3.41102e-11
-1.07181e-19
-1.07083e-19
-1.07101e-19
-1.07166e-19
-1.07246e-19
-1.07104e-19
-2.1951e-11
-2.1933e-11
-2.19425e-11
-2.19592e-11
-2.19745e-11
-2.19445e-11
-8.37287e-08
-8.33683e-08
-8.32584e-08
-8.31136e-08
-8.31333e-08
-8.36115e-08
0.0127806
0.0127699
0.0127734
0.0127737
0.0127721
0.0127766
0.623357
0.6233
0.623315
0.623318
0.623309
0.623337
0.951197
0.951194
0.9512
0.951193
0.951184
0.951214
5.79327e-07
5.79328e-07
5.79419e-07
5.79516e-07
5.79524e-07
5.79507e-07
3.66836e-06
3.66812e-06
3.6682e-06
3.6682e-06
3.66806e-06
3.66849e-06
1.6643e-08
1.66504e-08
1.66427e-08
1.6643e-08
1.6657e-08
1.66445e-08
1.30112e-07
1.30076e-07
1.30082e-07
1.30046e-07
1.30022e-07
1.30124e-07
1.39102e-07
1.39094e-07
1.39094e-07
1.39089e-07
1.39083e-07
1.39086e-07
3.07724e-09
3.07856e-09
3.07784e-09
3.07741e-09
3.07713e-09
3.07395e-09
5.18099e-13
5.17805e-13
5.18091e-13
5.18661e-13
5.19194e-13
5.17954e-13
2.55545e-13
2.5519e-13
2.55412e-13
2.55939e-13
2.56375e-13
2.55497e-13
-2.46864e-06
-2.46881e-06
-2.46875e-06
-2.4688e-06
-2.46897e-06
-2.46876e-06
7.79895e-05
7.79773e-05
7.79819e-05
7.79823e-05
7.79808e-05
7.7988e-05
0.0779316
0.077889
0.0778982
0.077903
0.0778944
0.0779193
0.942965
0.942938
0.942944
0.942955
0.942969
0.94294
3.45784e-60
3.46466e-60
3.4642e-60
3.46422e-60
3.46539e-60
3.45817e-60
8.69312e-56
8.70428e-56
8.70157e-56
8.70173e-56
8.70599e-56
8.6914e-56
1.14905e-51
1.14851e-51
1.14751e-51
1.14738e-51
1.14812e-51
1.14672e-51
1.83524e-47
1.82919e-47
1.82322e-47
1.82536e-47
1.84317e-47
1.8038e-47
1.73327e-41
1.72897e-41
1.72476e-41
1.73581e-41
1.77845e-41
1.7035e-41
5.90573e-37
5.95717e-37
5.9834e-37
6.05434e-37
6.23343e-37
5.99856e-37
2.50492e-33
2.58883e-33
2.63067e-33
2.67928e-33
2.7667e-33
2.66196e-33
1.96208e-30
2.09363e-30
2.14663e-30
2.18602e-30
2.23884e-30
2.11863e-30
1.49948e-28
1.65026e-28
1.68195e-28
1.66916e-28
1.64526e-28
1.46885e-28
1.19214e-29
1.21838e-29
1.06641e-29
8.86861e-30
5.63374e-30
4.52478e-30
4.04839e-30
4.05619e-30
4.05616e-30
4.05701e-30
4.05972e-30
4.05585e-30
1.99467e-27
1.99625e-27
1.99571e-27
1.99571e-27
1.99599e-27
1.99155e-27
2.54308e-57
2.54804e-57
2.54767e-57
2.54765e-57
2.54846e-57
2.54311e-57
6.32356e-53
6.33376e-53
6.33223e-53
6.33212e-53
6.33454e-53
6.32277e-53
8.06887e-49
8.07514e-49
8.07095e-49
8.0701e-49
8.07374e-49
8.06103e-49
4.91406e-44
4.90432e-44
4.88419e-44
4.8964e-44
4.9808e-44
4.77708e-44
5.13684e-38
5.1395e-38
5.13043e-38
5.16171e-38
5.28144e-38
5.04683e-38
1.31503e-33
1.32456e-33
1.32743e-33
1.33956e-33
1.3741e-33
1.31584e-33
4.76725e-30
4.85984e-30
4.8966e-30
4.9555e-30
5.08624e-30
4.86336e-30
3.62355e-27
3.74202e-27
3.78006e-27
3.81846e-27
3.89351e-27
3.68265e-27
3.06735e-25
3.21127e-25
3.23135e-25
3.19998e-25
3.18302e-25
2.89681e-25
2.16322e-25
2.11674e-25
1.8523e-25
1.56841e-25
9.5776e-26
8.3255e-26
5.92797e-27
5.93524e-27
5.92014e-27
5.90536e-27
5.87621e-27
5.86504e-27
1.78725e-24
1.79079e-24
1.79063e-24
1.79041e-24
1.79061e-24
1.78787e-24
7.11617e-55
7.13014e-55
7.12928e-55
7.1294e-55
7.13178e-55
7.11697e-55
1.73259e-50
1.73574e-50
1.73547e-50
1.7355e-50
1.73612e-50
1.73277e-50
2.09963e-46
2.10269e-46
2.10211e-46
2.10208e-46
2.10297e-46
2.09906e-46
8.4404e-41
8.43307e-41
8.39986e-41
8.42629e-41
8.59009e-41
8.1906e-41
5.28854e-35
5.29747e-35
5.28986e-35
5.32201e-35
5.44177e-35
5.1935e-35
8.22144e-31
8.26758e-31
8.27544e-31
8.34121e-31
8.54141e-31
8.15994e-31
2.13664e-27
2.16293e-27
2.1705e-27
2.18999e-27
2.24124e-27
2.13839e-27
1.35979e-24
1.38297e-24
1.38839e-24
1.39876e-24
1.42521e-24
1.35094e-24
1.4484e-22
1.46382e-22
1.46643e-22
1.45654e-22
1.47143e-22
1.37521e-22
3.58969e-21
3.47008e-21
3.17686e-21
2.90044e-21
1.96466e-21
2.03617e-21
4.27826e-23
4.20815e-23
3.99543e-23
3.78471e-23
3.10532e-23
3.06925e-23
8.12707e-22
8.13991e-22
8.13785e-22
8.13608e-22
8.13493e-22
8.12231e-22
9.12091e-53
9.13875e-53
9.13778e-53
9.13806e-53
9.14118e-53
9.12234e-53
2.15291e-48
2.15702e-48
2.15678e-48
2.15686e-48
2.15762e-48
2.15335e-48
2.90151e-44
2.90628e-44
2.90462e-44
2.90672e-44
2.91702e-44
2.88951e-44
9.7205e-38
9.71882e-38
9.68338e-38
9.71573e-38
9.90682e-38
9.4359e-38
3.72425e-32
3.73127e-32
3.72552e-32
3.74714e-32
3.82862e-32
3.65041e-32
3.84112e-28
3.85374e-28
3.85128e-28
3.87662e-28
3.963e-28
3.77967e-28
7.65098e-25
7.689e-25
7.68931e-25
7.7432e-25
7.91367e-25
7.54409e-25
4.42869e-22
4.45289e-22
4.45168e-22
4.4818e-22
4.56921e-22
4.34551e-22
1.19312e-19
1.1911e-19
1.1921e-19
1.19063e-19
1.20911e-19
1.1258e-19
1.58423e-17
1.58233e-17
1.57806e-17
1.57951e-17
1.57755e-17
1.56952e-17
8.80727e-22
8.62296e-22
8.42077e-22
8.45666e-22
8.3076e-22
7.80557e-22
8.12708e-22
8.13992e-22
8.13785e-22
8.13608e-22
8.13493e-22
8.12231e-22
3.49423e-07
3.49352e-07
3.4947e-07
3.496e-07
3.4962e-07
3.49634e-07
9.1508e-09
9.14187e-09
9.14322e-09
9.1445e-09
9.14589e-09
9.15611e-09
-1.75705e-15
-1.92444e-15
-1.97536e-15
-1.93144e-15
-1.92003e-15
-1.96603e-15
4.13079e-06
4.1308e-06
4.13082e-06
4.13084e-06
4.13087e-06
4.13087e-06
1.30461e-06
1.30382e-06
1.3042e-06
1.30411e-06
1.30331e-06
1.3048e-06
-9.46985e-15
-1.03714e-14
-1.06466e-14
-1.04097e-14
-1.03482e-14
-1.05971e-14
5.71029e-07
5.71014e-07
5.71005e-07
5.7107e-07
5.7113e-07
5.71092e-07
3.53325e-08
3.5317e-08
3.5322e-08
3.53247e-08
3.53175e-08
3.53411e-08
-6.3847e-14
-6.99279e-14
-7.17807e-14
-7.0184e-14
-6.97702e-14
-7.14428e-14
1.24771e-07
1.24629e-07
1.2466e-07
1.24542e-07
1.24503e-07
1.24912e-07
6.17911e-19
6.18482e-19
6.18392e-19
6.19253e-19
6.19488e-19
6.17417e-19
-4.60453e-14
-5.04275e-14
-5.1762e-14
-5.06078e-14
-5.03092e-14
-5.15138e-14
1.6593e-07
1.6593e-07
1.65928e-07
1.65926e-07
1.65923e-07
1.65921e-07
3.59823e-08
3.59296e-08
3.59336e-08
3.59123e-08
3.58843e-08
3.59353e-08
-1.87115e-15
-2.05046e-15
-2.1063e-15
-2.05888e-15
-2.04598e-15
-2.07838e-15
3.64557e-08
3.64503e-08
3.64482e-08
3.64442e-08
3.64397e-08
3.64402e-08
1.40552e-18
1.40243e-18
1.4032e-18
1.40278e-18
1.40165e-18
1.4055e-18
-7.33987e-18
-8.02749e-18
-8.24229e-18
-8.05945e-18
-8.00856e-18
-8.127e-18
1.96365e-12
1.96252e-12
1.96361e-12
1.96564e-12
1.9672e-12
1.96405e-12
-1.16686e-15
-1.16598e-15
-1.16655e-15
-1.16727e-15
-1.1679e-15
-1.16781e-15
-5.42553e-18
-5.36322e-18
-5.40343e-18
-5.43663e-18
-5.4139e-18
-5.57279e-18
-9.42228e-12
-9.4161e-12
-9.42098e-12
-9.42964e-12
-9.43667e-12
-9.42143e-12
-2.26325e-13
-2.26083e-13
-2.26288e-13
-2.26464e-13
-2.26584e-13
-2.26255e-13
-1.95376e-15
-1.94257e-15
-1.95039e-15
-1.95599e-15
-1.95083e-15
-1.98118e-15
-1.91693e-07
-1.91679e-07
-1.91675e-07
-1.91693e-07
-1.91758e-07
-1.91591e-07
-1.93263e-12
-1.89971e-12
-1.99076e-12
-2.14321e-12
-2.24835e-12
-1.86946e-12
-5.97656e-13
-5.94698e-13
-5.96347e-13
-5.97484e-13
-5.95482e-13
-6.04374e-13
6.65795e-06
6.65821e-06
6.65793e-06
6.65812e-06
6.65862e-06
6.65833e-06
-1.65086e-07
-1.65246e-07
-1.65233e-07
-1.64538e-07
-1.6379e-07
-1.65296e-07
-1.00011e-08
-9.99884e-09
-1.00064e-08
-1.00373e-08
-1.00713e-08
-1.00092e-08
8.64189e-05
8.64022e-05
8.64064e-05
8.64238e-05
8.64422e-05
8.64084e-05
6.80792e-06
6.80734e-06
6.8074e-06
6.80741e-06
6.80718e-06
6.8078e-06
1.76313e-08
1.75879e-08
1.77904e-08
1.70202e-08
1.6064e-08
1.82613e-08
0.606971
0.60695
0.606955
0.606923
0.606849
0.607032
0.0630026
0.0629873
0.0629888
0.0630219
0.0631005
0.0629086
2.32372e-05
2.32347e-05
2.32289e-05
2.32499e-05
2.3276e-05
2.32296e-05
4.64333e-07
4.62135e-07
4.61229e-07
4.67356e-07
4.81704e-07
4.40562e-07
1.91534e-06
1.90875e-06
1.90739e-06
1.96663e-06
2.15553e-06
1.76804e-06
6.06501e-63
6.19871e-63
6.24732e-63
5.51806e-63
2.68155e-64
1.8669e-62
0.0012404
0.00122563
0.00122168
0.00124838
0.00131962
0.00112173
1.14158e-06
1.08711e-06
1.09874e-06
1.07329e-06
1.05946e-06
1.05946e-06
0.0180307
0.0180701
0.0180404
0.0180663
0.0186568
0.0170047
0.0395673
0.0394863
0.039455
0.0396805
0.0400954
0.0389212
0.18263
0.18225
0.182237
0.182851
0.184407
0.180279
0.146568
0.146381
0.146186
0.147135
0.148455
0.145569
0.0634846
0.0634643
0.0634538
0.0636646
0.0637252
0.0636192
0.368972
0.369066
0.369137
0.369298
0.369445
0.369445
0.0484742
0.0487937
0.0489395
0.0477758
0.0459345
0.0503652
0.535211
0.535137
0.535087
0.535519
0.536454
0.534331
0.332924
0.333137
0.33318
0.332552
0.330925
0.334996
3.33067e-18
3.29597e-18
3.29597e-18
3.36536e-18
-9.11182e-19
-1.27597e-17
0.603456
0.603444
0.603441
0.603423
0.603417
0.603513
0.132034
0.132
0.131984
0.132082
0.132284
0.131699
0.000195286
0.000195369
0.000195284
0.000195445
0.000195897
0.000194673
4.60136e-51
4.61026e-51
4.60982e-51
4.60998e-51
4.61156e-51
4.60214e-51
7.91761e-53
7.93382e-53
7.93371e-53
7.93402e-53
7.93624e-53
7.91942e-53
3.16503e-56
3.17186e-56
3.17178e-56
3.17191e-56
3.17286e-56
3.16587e-56
1.1479e-46
1.14992e-46
1.14954e-46
1.15009e-46
1.1527e-46
1.14556e-46
1.30726e-43
1.30718e-43
1.3038e-43
1.30996e-43
1.33688e-43
1.27639e-43
1.35474e-39
1.35435e-39
1.35084e-39
1.35722e-39
1.38509e-39
1.32271e-39
3.70644e-41
3.71096e-41
3.70193e-41
3.71875e-41
3.79211e-41
3.61728e-41
2.35893e-37
2.36173e-37
2.35609e-37
2.36745e-37
2.41576e-37
2.30186e-37
1.2955e-33
1.29691e-33
1.29392e-33
1.30028e-33
1.32692e-33
1.26469e-33
7.11998e-35
7.12186e-35
7.09789e-35
7.1235e-35
7.26417e-35
6.91803e-35
6.25862e-32
6.26435e-32
6.24746e-32
6.27521e-32
6.40213e-32
6.09931e-32
8.60956e-29
8.6211e-29
8.60276e-29
8.64733e-29
8.82625e-29
8.41284e-29
1.36319e-29
1.36565e-29
1.36333e-29
1.37099e-29
1.40022e-29
1.33459e-29
3.89486e-27
3.90139e-27
3.89436e-27
3.91593e-27
3.99853e-27
3.81124e-27
8.38581e-25
8.39911e-25
8.38348e-25
8.42995e-25
8.60646e-25
8.20514e-25
7.8925e-26
7.90981e-26
7.89873e-26
7.94564e-26
8.11613e-26
7.73685e-26
1.23452e-23
1.23674e-23
1.23463e-23
1.24169e-23
1.26786e-23
1.20868e-23
1.09888e-21
1.10071e-21
1.09872e-21
1.10498e-21
1.12803e-21
1.07565e-21
1.03812e-22
1.04045e-22
1.03913e-22
1.04582e-22
1.06804e-22
1.01741e-22
8.76451e-21
8.78021e-21
8.76446e-21
8.81512e-21
8.99875e-21
8.58064e-21
3.32263e-19
3.32815e-19
3.32185e-19
3.34108e-19
3.40993e-19
3.25265e-19
1.20028e-19
1.19863e-19
1.19757e-19
1.2109e-19
1.23476e-19
1.15814e-19
1.70685e-18
1.70976e-18
1.70633e-18
1.71624e-18
1.74489e-18
1.67056e-18
2.3136e-17
2.31731e-17
2.31257e-17
2.32609e-17
2.37282e-17
2.26514e-17
1.45386e-17
1.45237e-17
1.45336e-17
1.45305e-17
1.46619e-17
1.44884e-17
6.67557e-17
6.10749e-17
6.67128e-17
6.09107e-17
6.83259e-17
6.52278e-17
1.64777e-17
1.64408e-17
1.64779e-17
1.64339e-17
1.61428e-17
1.64771e-17
8.49544e-16
8.29211e-16
7.99734e-16
7.98216e-16
4.86145e-16
8.12477e-16
1.27789e-14
1.28226e-14
1.28016e-14
1.28648e-14
2.80959e-16
1.22936e-14
1.47166e-17
1.22772e-17
1.47166e-17
1.22043e-17
1.43766e-17
1.46168e-17
-6.57648e-16
-6.34079e-16
-6.67898e-16
-6.3663e-16
-3.3559e-16
-6.23695e-16
4.5448e-18
4.55593e-18
4.51503e-18
2.63011e-18
5.40705e-19
2.00886e-18
4.54292e-18
4.5912e-18
4.51317e-18
4.71401e-18
5.39128e-19
3.47073e-18
-5.54189e-19
-3.58454e-15
-4.51088e-15
-4.44795e-15
-7.65108e-15
-7.02032e-19
4.83871e-09
4.86984e-09
4.91156e-09
5.02585e-09
5.26977e-09
4.65226e-09
1.1671e-53
1.19667e-53
1.20784e-53
1.04224e-53
4.96094e-55
3.70815e-53
)
;

boundaryField
{
    seabed_topleft_surface
    {
        type            zeroGradient;
    }
    seabed_topright_surface
    {
        type            zeroGradient;
    }
    breakwater_top_surface
    {
        type            zeroGradient;
    }
    breakwater_left_surface
    {
        type            zeroGradient;
    }
    breakwater_right_surface
    {
        type            zeroGradient;
    }
    water_front_surface
    {
        type            zeroGradient;
    }
    water_back_surface
    {
        type            zeroGradient;
    }
    water_left_surface
    {
        type            zeroGradient;
    }
    water_right_surface
    {
        type            zeroGradient;
    }
    water_top_surface
    {
        type            inletOutlet;
        inletValue      uniform 0;
        value           nonuniform List<scalar> 
180
(
0
0
0
0
0
0
0
0
0
0
0
0
0
0
0
0
0
0
0
0
0
0
0
0
0
0
0
0
0
0
0
0
0
0
0
0
0
0
0
0
0
0
0
0
0
0
0
0
0
0
0
0
0
0
-1.00011e-08
-9.99884e-09
-1.00064e-08
-1.00373e-08
-1.00713e-08
-1.00092e-08
1.76313e-08
1.75879e-08
1.77904e-08
1.70202e-08
1.6064e-08
1.82613e-08
2.32372e-05
2.32347e-05
2.32289e-05
2.32499e-05
2.3276e-05
2.32296e-05
0
0
0
0
0
0
0.0180307
0.0180701
0.0180404
0.0180663
0.0186568
0.0170047
0.146568
0.146381
0.146186
0.147135
0.148455
0.145569
0.0484742
0.0487937
0.0489395
0.0477758
0.0459345
0.0503652
0
0
0
0
0
0
0.000195286
0.000195369
0.000195284
0.000195445
0.000195897
0.000194673
0
0
0
0
0
0
0
0
0
0
0
0
0
0
0
0
0
0
0
0
0
0
0
0
0
0
0
0
0
0
0
0
0
0
0
0
0
0
0
0
0
0
0
0
0
0
0
0
0
0
0
0
0
0
0
0
0
0
0
0
0
0
0
0
0
0
0
0
0
0
0
0
)
;
    }
}


// ************************************************************************* //
