/*--------------------------------*- C++ -*----------------------------------*\
| =========                 |                                                 |
| \\      /  F ield         | OpenFOAM: The Open Source CFD Toolbox           |
|  \\    /   O peration     | Version:  v1612+                                |
|   \\  /    A nd           | Web:      www.OpenFOAM.com                      |
|    \\/     M anipulation  |                                                 |
\*---------------------------------------------------------------------------*/
FoamFile
{
    version     2.0;
    format      ascii;
    class       volScalarField;
    location    "3.1";
    object      p;
}
// * * * * * * * * * * * * * * * * * * * * * * * * * * * * * * * * * * * * * //

dimensions      [1 -1 -2 0 0 0 0];

internalField   nonuniform List<scalar> 
1116
(
6743.35
6743.35
6743.34
6743.33
6743.33
6743.32
6321.18
6321.17
6321.17
6321.15
6321.14
6321.16
5847.03
5847.02
5847.01
5847
5846.98
5847.01
5917.28
5917.27
5917.26
5917.25
5917.24
5917.26
6407.55
6407.54
6407.53
6407.52
6407.52
6407.53
7191.45
7191.44
7191.44
7191.43
7191.43
7191.43
8306.22
8306.22
8306.21
8306.21
8306.21
8306.21
9944.82
9944.82
9944.8
9944.8
9944.8
9944.8
12382.6
12382.6
12382.6
12382.6
12382.6
12382.6
15840.1
15840
15840
15840
15840
15840
19969.5
19969.4
19969.4
19969.5
19969.5
19969.5
22283.1
22283.1
22283.1
22283.1
22283.1
22283.1
1096.58
1096.58
1096.58
1096.57
1096.57
1096.57
590.727
590.725
590.724
590.712
590.708
590.728
482.457
482.452
482.452
482.445
482.44
482.452
581.292
581.285
581.285
581.281
581.275
581.284
779.533
779.522
779.523
779.52
779.513
779.523
1069.64
1069.62
1069.62
1069.62
1069.62
1069.63
1452.7
1452.68
1452.69
1452.69
1452.68
1452.7
1634.06
1634.03
1634.04
1634.04
1634.04
1634.05
2268.83
2268.73
2268.73
2268.73
2268.73
2268.78
5545.14
5544.95
5544.96
5544.98
5544.97
5545.1
12346.9
12346.8
12346.8
12346.8
12346.8
12346.8
16086.7
16086.8
16086.8
16086.8
16086.9
16086.8
-19.5905
-19.59
-19.59
-19.5899
-19.5897
-19.5901
-16.515
-16.5147
-16.5147
-16.5145
-16.5143
-16.5145
-15.5797
-15.5794
-15.5793
-15.5792
-15.579
-15.5793
-14.5353
-14.5348
-14.5346
-14.5345
-14.5344
-14.5347
-16.1835
-16.1831
-16.1829
-16.1829
-16.1829
-16.1832
-20.0779
-20.0775
-20.0772
-20.0771
-20.0772
-20.0775
-25.1724
-25.1727
-25.1725
-25.1723
-25.1721
-25.1719
33.8599
33.857
33.8568
33.8559
33.8559
33.8565
196.215
196.206
196.204
196.202
196.2
196.205
550.449
550.424
550.413
550.412
550.407
550.415
3384.81
3384.46
3384.54
3384.56
3384.56
3384.63
9596.35
9596.68
9596.59
9596.62
9596.67
9596.57
-27.6406
-27.6405
-27.6403
-27.6401
-27.64
-27.64
-26.073
-26.0729
-26.0728
-26.0727
-26.0725
-26.0726
-25.3731
-25.3729
-25.3728
-25.3727
-25.3726
-25.3727
-23.8349
-23.8347
-23.8346
-23.8345
-23.8344
-23.8348
-23.4241
-23.4236
-23.4235
-23.4234
-23.4234
-23.4241
-26.2195
-26.2189
-26.2187
-26.2187
-26.2187
-26.2194
-32.4291
-32.4284
-32.4282
-32.4283
-32.4279
-32.4289
-36.6404
-36.6405
-36.6403
-36.6405
-36.6405
-36.6412
-30.9443
-30.9449
-30.9457
-30.9466
-30.949
-30.9494
2.19693
2.19091
2.18941
2.18916
2.18722
2.18098
286.314
286.285
286.282
286.279
286.279
286.288
2692.77
2692.83
2692.69
2692.79
2692.76
2692.68
-3.42324
-3.42323
-3.42323
-3.42322
-3.42322
-3.42322
-3.34863
-3.34863
-3.34862
-3.34861
-3.3486
-3.34859
-3.19632
-3.19631
-3.19629
-3.19625
-3.19621
-3.19618
-2.9599
-2.95985
-2.95977
-2.95968
-2.95959
-2.95953
-2.62972
-2.62958
-2.62939
-2.62921
-2.62906
-2.62899
-2.21169
-2.21149
-2.21121
-2.2109
-2.21062
-2.21042
-1.70996
-1.70971
-1.70937
-1.70888
-1.70847
-1.70822
-1.10964
-1.10949
-1.10939
-1.10938
-1.1095
-1.10966
-0.445056
-0.445258
-0.445521
-0.445852
-0.446227
-0.446489
0.401349
0.400799
0.399632
0.398057
0.396424
0.395198
0.968858
0.967914
0.966801
0.965577
0.964261
0.963105
1.59549
1.59605
1.59723
1.59865
1.60028
1.6017
-13.3062
-13.3062
-13.3062
-13.3062
-13.3062
-13.3062
-13.2323
-13.2323
-13.2323
-13.2323
-13.2323
-13.2322
-13.0821
-13.0821
-13.0821
-13.0821
-13.082
-13.082
-12.8536
-12.8536
-12.8535
-12.8535
-12.8535
-12.8534
-12.5511
-12.5511
-12.5511
-12.5511
-12.551
-12.551
-12.1659
-12.1659
-12.1659
-12.1659
-12.166
-12.166
-11.6903
-11.69
-11.6899
-11.69
-11.6902
-11.6904
-11.1038
-11.1036
-11.1035
-11.1034
-11.1034
-11.1036
-10.4157
-10.416
-10.4161
-10.416
-10.4158
-10.4156
-9.74137
-9.74152
-9.74168
-9.74184
-9.74191
-9.74181
-9.13147
-9.12966
-9.12734
-9.12494
-9.12271
-9.12107
-8.5843
-8.58396
-8.58235
-8.58056
-8.57916
-8.5785
-23.2584
-23.2584
-23.2584
-23.2584
-23.2584
-23.2584
-23.1874
-23.1874
-23.1874
-23.1874
-23.1874
-23.1874
-23.0408
-23.0408
-23.0408
-23.0408
-23.0408
-23.0408
-22.8074
-22.8074
-22.8074
-22.8074
-22.8075
-22.8075
-22.4628
-22.4628
-22.4629
-22.463
-22.4632
-22.4633
-21.979
-21.9792
-21.9796
-21.98
-21.9805
-21.9808
-21.3735
-21.3733
-21.3732
-21.3732
-21.3734
-21.3736
-20.5271
-20.5267
-20.526
-20.5254
-20.5248
-20.5245
-19.6978
-19.6966
-19.697
-19.6992
-19.7024
-19.7055
-18.2323
-18.2318
-18.2311
-18.2304
-18.2297
-18.2288
-16.6171
-16.6186
-16.6201
-16.6213
-16.6224
-16.6233
-14.7935
-14.7924
-14.7914
-14.7898
-14.788
-14.7872
-33.2749
-33.2749
-33.2749
-33.2749
-33.2749
-33.2749
-33.2115
-33.2115
-33.2115
-33.2115
-33.2115
-33.2115
-33.0812
-33.0812
-33.0812
-33.0812
-33.0812
-33.0812
-32.8784
-32.8785
-32.8785
-32.8785
-32.8785
-32.8785
-32.6031
-32.6031
-32.6032
-32.6032
-32.6032
-32.6032
-32.2539
-32.2538
-32.2537
-32.2536
-32.2535
-32.2534
-31.8148
-31.8152
-31.8155
-31.8156
-31.8156
-31.8155
-31.141
-31.1416
-31.1417
-31.1412
-31.1402
-31.1393
-30.28
-30.2805
-30.2793
-30.2764
-30.2728
-30.2697
-29.4699
-29.469
-29.4674
-29.4655
-29.4639
-29.4628
-28.5253
-28.5247
-28.5231
-28.5207
-28.5184
-28.5169
-27.875
-27.8746
-27.8718
-27.8658
-27.8594
-27.8509
-41.4001
-41.4
-41.3999
-41.3998
-41.3997
-41.3997
-53.357
-53.3569
-53.3569
-53.3569
-53.3569
-53.3569
-66.3935
-66.3936
-66.3936
-66.3936
-66.3937
-66.3936
-40.7695
-40.7694
-40.7693
-40.7692
-40.7692
-40.7692
-53.1863
-53.1863
-53.1862
-53.1862
-53.1862
-53.1862
-66.6206
-66.6208
-66.6208
-66.6208
-66.6208
-66.6207
-40.8458
-40.8457
-40.8456
-40.8455
-40.8455
-40.8456
-52.797
-52.797
-52.797
-52.797
-52.7971
-52.797
-66.8325
-66.8326
-66.8326
-66.8326
-66.8326
-66.8325
-41.0072
-41.0071
-41.0071
-41.0071
-41.007
-41.0071
-52.8524
-52.8524
-52.8525
-52.8525
-52.8525
-52.8525
-67.4299
-67.43
-67.43
-67.4299
-67.4299
-67.4298
-41.51
-41.5099
-41.5099
-41.5099
-41.5098
-41.5099
-53.1623
-53.1623
-53.1624
-53.1623
-53.1623
-53.1622
-67.8287
-67.8288
-67.8288
-67.8288
-67.8288
-67.8287
-42.0022
-42.0019
-42.0018
-42.0017
-42.0018
-42.0022
-53.9139
-53.9139
-53.9139
-53.9139
-53.9139
-53.9138
-68.1359
-68.1361
-68.1361
-68.1361
-68.1361
-68.136
-42.1363
-42.136
-42.1359
-42.1361
-42.1363
-42.1369
-54.6087
-54.6085
-54.6085
-54.6086
-54.6088
-54.609
-68.3058
-68.306
-68.306
-68.306
-68.3059
-68.3057
-44.8505
-44.8507
-44.8512
-44.8517
-44.8525
-44.8518
-55.5643
-55.5641
-55.5645
-55.565
-55.5656
-55.5651
-68.3193
-68.3195
-68.3196
-68.3196
-68.3196
-68.3195
-39.8386
-39.8388
-39.8396
-39.8404
-39.8412
-39.8423
-50.1134
-50.1139
-50.1145
-50.1154
-50.116
-50.1156
-71.8039
-71.8043
-71.8045
-71.8049
-71.8052
-71.8047
-55.8001
-55.8024
-55.8038
-55.8056
-55.806
-55.8126
-50.1475
-50.1499
-50.1509
-50.1514
-50.151
-50.1568
-63.5777
-63.5782
-63.5792
-63.5792
-63.5789
-63.5823
-60.9803
-60.9821
-60.9897
-61.002
-61.0189
-60.9978
-41.8433
-41.851
-41.8542
-41.8497
-41.8452
-41.8743
-78.6192
-78.6179
-78.6234
-78.6363
-78.6584
-78.6366
2.91416
2.8422
2.82893
2.65172
2.15489
3.40129
19.1862
19.1383
19.1354
19.2022
19.3937
19.0634
-112.948
-112.942
-112.948
-112.99
-113.021
-112.913
-15.5482
-15.5431
-15.521
-15.5124
-15.4083
-14.9905
-48.1259
-48.1478
-48.1371
-48.1102
-48.217
-48.2954
-29.1886
-29.1958
-29.1755
-29.1372
-28.9934
-29.2446
10.2164
10.2385
10.2466
10.0785
10.4579
11.8171
-58.2004
-58.2197
-58.2135
-58.1497
-58.1709
-59.1083
-94.9433
-94.9328
-95.0385
-94.6973
-94.8063
-94.9873
41.5639
41.5081
41.4618
41.3818
42.234
42.0477
-21.7296
-21.851
-21.8722
-21.5395
-19.3166
-25.8466
-954.151
-954.568
-954.584
-956.404
-964.413
-950.948
-56.4115
-56.345
-56.7527
-57.3148
-56.7569
-57.9742
-598.308
-602.267
-602.496
-582.667
-548.732
-629.944
-203.114
-203.429
-203.433
-202.016
-200.535
-202.928
19.874
19.5436
19.2126
16.0064
17.3591
14.8828
1204.65
1205.32
1205.58
1202.33
1194.76
1213.58
-127.102
-127.114
-127.055
-126.874
-126.777
-126.712
-1364.77
-1364.96
-1365.29
-1366.47
-1370.21
-1361.42
347.853
347.456
347.495
348.632
349.832
346.75
-128.14
-128.169
-128.114
-127.964
-127.889
-127.932
-43.3305
-43.3305
-43.3305
-43.3305
-43.3305
-43.3305
-53.4459
-53.4459
-53.4459
-53.4459
-53.4459
-53.4459
-63.5882
-63.5882
-63.5882
-63.5882
-63.5882
-63.5882
-43.2798
-43.2798
-43.2798
-43.2798
-43.2798
-43.2798
-53.4144
-53.4144
-53.4144
-53.4144
-53.4144
-53.4144
-63.5764
-63.5764
-63.5764
-63.5764
-63.5764
-63.5764
-43.172
-43.172
-43.172
-43.1721
-43.1721
-43.1721
-53.3496
-53.3496
-53.3496
-53.3496
-53.3496
-53.3496
-63.5512
-63.5512
-63.5512
-63.5512
-63.5512
-63.5512
-42.9905
-42.9905
-42.9905
-42.9906
-42.9906
-42.9906
-53.249
-53.249
-53.249
-53.249
-53.249
-53.249
-63.5073
-63.5073
-63.5073
-63.5073
-63.5073
-63.5073
-42.7002
-42.7003
-42.7003
-42.7003
-42.7004
-42.7004
-53.1067
-53.1067
-53.1067
-53.1067
-53.1067
-53.1067
-63.4374
-63.4374
-63.4374
-63.4374
-63.4374
-63.4374
-42.239
-42.2391
-42.2392
-42.2392
-42.2392
-42.2392
-52.9074
-52.9073
-52.9073
-52.9072
-52.9071
-52.9071
-63.3317
-63.3317
-63.3317
-63.3317
-63.3317
-63.3317
-41.6799
-41.6803
-41.6806
-41.6808
-41.6809
-41.6808
-52.6437
-52.6436
-52.6434
-52.6432
-52.6431
-52.643
-63.1671
-63.167
-63.167
-63.167
-63.1669
-63.1669
-40.4912
-40.4917
-40.4921
-40.4921
-40.4918
-40.4915
-52.216
-52.2157
-52.2155
-52.2152
-52.215
-52.2149
-63.0119
-63.0118
-63.0115
-63.0112
-63.0109
-63.0108
-39.0223
-39.0222
-39.0217
-39.0208
-39.0197
-39.019
-51.3354
-51.3352
-51.3347
-51.3341
-51.3331
-51.3321
-62.0333
-62.0334
-62.0334
-62.0345
-62.0339
-62.0336
-36.6978
-36.6974
-36.6966
-36.6954
-36.6943
-36.6938
-49.6079
-49.6075
-49.6069
-49.6062
-49.6043
-49.6013
-63.5379
-63.5362
-63.5351
-63.5344
-63.5318
-63.5232
-31.2891
-31.2866
-31.2833
-31.2791
-31.274
-31.2745
-47.5919
-47.592
-47.5894
-47.5866
-47.5837
-47.5692
-55.189
-55.1976
-55.1971
-55.2047
-55.1995
-55.1186
-23.899
-23.8944
-23.8847
-23.8668
-23.8403
-23.8376
-41.8136
-41.8109
-41.8112
-41.812
-41.8239
-41.8801
-71.0536
-71.0429
-71.0501
-71.0273
-71.043
-71.1429
)
;

boundaryField
{
    seabed_topleft_surface
    {
        type            calculated;
        value           nonuniform List<scalar> 
72
(
10894
10893.9
10893.9
10893.9
10893.9
10893.9
10478.3
10478.3
10478.3
10478.3
10478.2
10478.3
10081.8
10081.8
10081.8
10081.7
10081.7
10081.8
10289.4
10289.4
10289.4
10289.4
10289.3
10289.4
10918.4
10918.3
10918.3
10918.3
10918.3
10918.3
11807.4
11807.4
11807.3
11807.3
11807.3
11807.4
12989.5
12989.5
12989.5
12989.5
12989.4
12989.5
14717.5
14717.5
14717.5
14717.5
14717.5
14717.5
17172.3
17172.3
17172.3
17172.3
17172.3
17172.3
20629.7
20629.7
20629.7
20629.7
20629.7
20629.7
24759.1
24759.1
24759.1
24759.1
24759.1
24759.2
27057
27057
27057
27057
27057
27057
)
;
    }
    seabed_topright_surface
    {
        type            calculated;
        value           nonuniform List<scalar> 
72
(
1.49862
1.49862
1.49863
1.49863
1.49864
1.49864
1.57322
1.57322
1.57323
1.57324
1.57326
1.57327
1.72553
1.72554
1.72557
1.72561
1.72565
1.72567
1.96196
1.962
1.96208
1.96218
1.96226
1.96232
2.29214
2.29228
2.29247
2.29265
2.29279
2.29287
2.71017
2.71037
2.71065
2.71096
2.71124
2.71143
3.2119
3.21215
3.21249
3.21297
3.21338
3.21363
3.81221
3.81237
3.81247
3.81248
3.81236
3.81219
4.4768
4.4766
4.47633
4.476
4.47563
4.47537
5.3232
5.32265
5.32149
5.31991
5.31828
5.31705
5.89071
5.88977
5.88866
5.88743
5.88612
5.88496
6.51734
6.51791
6.51909
6.52051
6.52213
6.52356
)
;
    }
    breakwater_top_surface
    {
        type            calculated;
        value           nonuniform List<scalar> 
36
(
-10.6409
-10.6358
-10.6137
-10.6051
-10.5009
-10.0834
21.1995
21.1492
21.1379
21.1007
21.8292
22.2187
240.352
239.9
239.7
240.725
243.61
237.67
259.574
259.541
259.082
259.553
260.407
258.671
2647.37
2646.67
2646.1
2645
2650.94
2638.06
1597.12
1596.87
1596.53
1595.27
1591.5
1600.76
)
;
    }
    breakwater_left_surface
    {
        type            calculated;
        value           nonuniform List<scalar> 
24
(
22299.4
22299.4
22299.4
22299.5
22299.5
22299.5
16102.7
16102.8
16102.8
16102.8
16102.9
16102.8
9611.75
9612.08
9611.99
9612.02
9612.07
9611.97
2707.74
2707.79
2707.66
2707.76
2707.73
2707.65
)
;
    }
    breakwater_right_surface
    {
        type            calculated;
        value           nonuniform List<scalar> 
24
(
1.61234
1.61291
1.61409
1.61551
1.61713
1.61856
-8.56778
-8.56744
-8.56584
-8.56405
-8.56265
-8.56199
-14.7773
-14.7762
-14.7752
-14.7736
-14.7718
-14.771
-27.8591
-27.8587
-27.8559
-27.8499
-27.8435
-27.835
)
;
    }
    water_front_surface
    {
        type            calculated;
        value           nonuniform List<scalar> 
186
(
6743.35
6321.18
5847.03
5917.28
6407.55
7191.45
8306.22
9944.82
12382.6
15840.1
19969.5
22283.1
1096.58
590.727
482.457
581.292
779.533
1069.64
1452.7
1634.06
2268.83
5545.14
12346.9
16086.7
-19.5905
-16.515
-15.5797
-14.5353
-16.1835
-20.0779
-25.1724
33.8599
196.215
550.449
3384.81
9596.35
-27.6406
-26.073
-25.3731
-23.8349
-23.4241
-26.2195
-32.4291
-36.6404
-30.9443
2.19693
286.314
2692.77
-3.42324
-3.34863
-3.19632
-2.9599
-2.62972
-2.21169
-1.70996
-1.10964
-0.445056
0.401349
0.968858
1.59549
-13.3062
-13.2323
-13.0821
-12.8536
-12.5511
-12.1659
-11.6903
-11.1038
-10.4157
-9.74137
-9.13147
-8.5843
-23.2584
-23.1874
-23.0408
-22.8074
-22.4628
-21.979
-21.3735
-20.5271
-19.6978
-18.2323
-16.6171
-14.7935
-33.2749
-33.2115
-33.0812
-32.8784
-32.6031
-32.2539
-31.8148
-31.141
-30.28
-29.4699
-28.5253
-27.875
-41.4001
-53.357
-66.3935
-40.7695
-53.1863
-66.6206
-40.8458
-52.797
-66.8325
-41.0072
-52.8524
-67.4299
-41.51
-53.1623
-67.8287
-42.0022
-53.9139
-68.1359
-42.1363
-54.6087
-68.3058
-44.8505
-55.5643
-68.3193
-39.8386
-50.1134
-71.8039
-55.8001
-50.1475
-63.5777
-60.9803
-41.8433
-78.6192
2.91416
19.1862
-112.948
-15.5482
-48.1259
-29.1886
10.2164
-58.2004
-94.9433
41.5639
-21.7296
-954.151
-56.4115
-598.308
-203.114
19.874
1204.65
-127.102
-1364.77
347.853
-128.14
-43.3305
-53.4459
-63.5882
-43.2798
-53.4144
-63.5764
-43.172
-53.3496
-63.5512
-42.9905
-53.249
-63.5073
-42.7002
-53.1067
-63.4374
-42.239
-52.9074
-63.3317
-41.6799
-52.6437
-63.1671
-40.4912
-52.216
-63.0119
-39.0223
-51.3354
-62.0333
-36.6978
-49.6079
-63.5379
-31.2891
-47.5919
-55.189
-23.899
-41.8136
-71.0536
)
;
    }
    water_back_surface
    {
        type            calculated;
        value           nonuniform List<scalar> 
186
(
6743.32
6321.16
5847.01
5917.26
6407.53
7191.43
8306.21
9944.8
12382.6
15840
19969.5
22283.1
1096.57
590.728
482.452
581.284
779.523
1069.63
1452.7
1634.05
2268.78
5545.1
12346.8
16086.8
-19.5901
-16.5145
-15.5793
-14.5347
-16.1832
-20.0775
-25.1719
33.8565
196.205
550.415
3384.63
9596.57
-27.64
-26.0726
-25.3727
-23.8348
-23.4241
-26.2194
-32.4289
-36.6412
-30.9494
2.18098
286.288
2692.68
-3.42322
-3.34859
-3.19618
-2.95953
-2.62899
-2.21042
-1.70822
-1.10966
-0.446489
0.395198
0.963105
1.6017
-13.3062
-13.2322
-13.082
-12.8534
-12.551
-12.166
-11.6904
-11.1036
-10.4156
-9.74181
-9.12107
-8.5785
-23.2584
-23.1874
-23.0408
-22.8075
-22.4633
-21.9808
-21.3736
-20.5245
-19.7055
-18.2288
-16.6233
-14.7872
-33.2749
-33.2115
-33.0812
-32.8785
-32.6032
-32.2534
-31.8155
-31.1393
-30.2697
-29.4628
-28.5169
-27.8509
-41.3997
-53.3569
-66.3936
-40.7692
-53.1862
-66.6207
-40.8456
-52.797
-66.8325
-41.0071
-52.8525
-67.4298
-41.5099
-53.1622
-67.8287
-42.0022
-53.9138
-68.136
-42.1369
-54.609
-68.3057
-44.8518
-55.5651
-68.3195
-39.8423
-50.1156
-71.8047
-55.8126
-50.1568
-63.5823
-60.9978
-41.8743
-78.6366
3.40129
19.0634
-112.913
-14.9905
-48.2954
-29.2446
11.8171
-59.1083
-94.9873
42.0477
-25.8466
-950.948
-57.9742
-629.944
-202.928
14.8828
1213.58
-126.712
-1361.42
346.75
-127.932
-43.3305
-53.4459
-63.5882
-43.2798
-53.4144
-63.5764
-43.1721
-53.3496
-63.5512
-42.9906
-53.249
-63.5073
-42.7004
-53.1067
-63.4374
-42.2392
-52.9071
-63.3317
-41.6808
-52.643
-63.1669
-40.4915
-52.2149
-63.0108
-39.019
-51.3321
-62.0336
-36.6938
-49.6013
-63.5232
-31.2745
-47.5692
-55.1186
-23.8376
-41.8801
-71.1429
)
;
    }
    water_left_surface
    {
        type            calculated;
        value           nonuniform List<scalar> 
42
(
6757.56
6757.57
6757.56
6757.55
6757.54
6757.54
1100.32
1100.33
1100.32
1100.31
1100.31
1100.31
-19.5743
-19.5738
-19.5738
-19.5737
-19.5735
-19.5739
-27.6247
-27.6246
-27.6244
-27.6242
-27.6241
-27.6241
-41.4001
-41.4
-41.3999
-41.3998
-41.3997
-41.3997
-53.357
-53.3569
-53.3569
-53.3569
-53.3569
-53.3569
-66.3935
-66.3936
-66.3936
-66.3936
-66.3937
-66.3936
)
;
    }
    water_right_surface
    {
        type            calculated;
        value           nonuniform List<scalar> 
42
(
-3.40638
-3.40638
-3.40637
-3.40637
-3.40636
-3.40636
-13.2897
-13.2897
-13.2897
-13.2897
-13.2897
-13.2897
-23.2422
-23.2422
-23.2422
-23.2422
-23.2422
-23.2422
-33.259
-33.259
-33.259
-33.259
-33.259
-33.259
-43.3305
-43.3305
-43.3305
-43.3305
-43.3305
-43.3305
-53.4459
-53.4459
-53.4459
-53.4459
-53.4459
-53.4459
-63.5882
-63.5882
-63.5882
-63.5882
-63.5882
-63.5882
)
;
    }
    water_top_surface
    {
        type            calculated;
        value           nonuniform List<scalar> 
180
(
-72.6116
-72.6121
-72.6121
-72.6122
-72.6123
-72.6119
-72.9076
-72.9082
-72.9082
-72.9082
-72.9083
-72.9078
-72.6985
-72.699
-72.699
-72.699
-72.699
-72.6985
-73.442
-73.4424
-73.4423
-73.4422
-73.4423
-73.4419
-73.6954
-73.6958
-73.6957
-73.6957
-73.6959
-73.6955
-74.4319
-74.4326
-74.4327
-74.4327
-74.4327
-74.4321
-74.9939
-74.9948
-74.9948
-74.9946
-74.9944
-74.9933
-74.6453
-74.6457
-74.6456
-74.6454
-74.6456
-74.6446
-75.7637
-75.7638
-75.7639
-75.7639
-75.7643
-75.7629
-68.6693
-68.6693
-68.6693
-68.6693
-68.6693
-68.6693
-68.6712
-68.6712
-68.6712
-68.6712
-68.6711
-68.6713
-70.2641
-70.2639
-70.2635
-70.265
-70.2668
-70.2636
-69.7318
-69.726
-69.7341
-69.7102
-69.6541
-69.8046
-1305.6
-1308.3
-1306.27
-1308.04
-1348.55
-1235.22
-10123.5
-10110.6
-10097.2
-10162.3
-10252.9
-10054.9
-3394.06
-3415.98
-3425.99
-3346.15
-3219.84
-3523.79
-72.6632
-72.6667
-72.6734
-72.6185
-72.5397
-72.705
-82.0669
-82.0726
-82.0667
-82.0778
-82.1088
-82.0248
-68.67
-68.67
-68.67
-68.67
-68.67
-68.67
-68.67
-68.67
-68.67
-68.67
-68.67
-68.67
-68.67
-68.67
-68.67
-68.67
-68.67
-68.67
-68.67
-68.67
-68.67
-68.67
-68.67
-68.67
-68.6701
-68.6701
-68.6701
-68.6701
-68.6701
-68.6701
-68.6701
-68.6701
-68.6701
-68.6701
-68.6701
-68.6701
-68.6703
-68.6703
-68.6703
-68.6703
-68.6703
-68.6703
-68.6709
-68.6709
-68.6709
-68.6709
-68.6709
-68.6708
-68.6714
-68.6714
-68.6714
-68.6714
-68.6714
-68.6714
-68.6973
-68.6973
-68.6973
-68.6973
-68.6973
-68.6972
-68.6891
-68.6892
-68.6891
-68.6893
-68.6896
-68.689
-70.5283
-70.5288
-70.5283
-70.5244
-70.5408
-70.5045
)
;
    }
}


// ************************************************************************* //
