/*--------------------------------*- C++ -*----------------------------------*\
| =========                 |                                                 |
| \\      /  F ield         | OpenFOAM: The Open Source CFD Toolbox           |
|  \\    /   O peration     | Version:  v1612+                                |
|   \\  /    A nd           | Web:      www.OpenFOAM.com                      |
|    \\/     M anipulation  |                                                 |
\*---------------------------------------------------------------------------*/
FoamFile
{
    version     2.0;
    format      ascii;
    class       surfaceScalarField;
    location    "3.1";
    object      phi;
}
// * * * * * * * * * * * * * * * * * * * * * * * * * * * * * * * * * * * * * //

dimensions      [0 3 -1 0 0 0 0];

internalField   nonuniform List<scalar> 
2916
(
-2.86528e-06
0.440185
-0.440182
4.333e-06
0.440184
-0.440191
2.51102e-06
0.440185
-0.440183
-2.0932e-06
0.440189
-0.440184
1.24348e-06
0.440189
-0.440193
0.44018
-0.440179
1.27156e-06
0.8557
-0.415517
3.16286e-06
0.855707
-0.415524
9.36253e-07
0.855707
-0.415519
-1.64255e-06
0.85571
-0.415518
-8.96713e-07
0.855712
-0.415523
0.855698
-0.41552
1.94719e-06
1.1188
-0.263106
3.05555e-06
1.11882
-0.263112
1.34165e-06
1.11882
-0.263108
-2.01238e-07
1.11882
-0.263107
3.71824e-07
1.11882
-0.263109
1.11881
-0.263106
3.78375e-07
1.30608
-0.187279
2.60558e-06
1.3061
-0.187285
1.69607e-06
1.3061
-0.187281
2.18256e-07
1.3061
-0.18728
1.13503e-06
1.3061
-0.187282
1.30608
-0.187278
-1.50667e-06
1.46152
-0.155439
1.00536e-06
1.46154
-0.155446
3.89143e-07
1.46154
-0.155442
-7.34756e-07
1.46154
-0.155441
1.20509e-06
1.46154
-0.155443
1.46152
-0.155438
-3.52965e-06
1.60128
-0.139755
-1.26076e-06
1.6013
-0.139763
-1.75685e-06
1.6013
-0.13976
-2.20631e-06
1.6013
-0.139759
1.6792e-06
1.6013
-0.139762
1.60128
-0.139754
-6.9147e-06
1.70957
-0.108282
-3.33754e-06
1.70959
-0.108291
-4.05315e-06
1.70959
-0.108288
-3.71721e-06
1.70959
-0.108288
3.48443e-06
1.70958
-0.108292
1.70956
-0.108281
-8.44211e-06
1.71489
-0.00530648
-3.74228e-06
1.71491
-0.00531978
-4.81447e-06
1.71491
-0.0053149
-4.24086e-06
1.7149
-0.00531573
2.78032e-06
1.7149
-0.00532345
1.71487
-0.0053067
-5.46303e-06
1.42033
0.294562
-3.37136e-06
1.42036
0.294542
-5.80964e-06
1.42036
0.294549
-5.84403e-06
1.42036
0.294546
-3.14361e-06
1.42037
0.294533
1.42031
0.294557
-2.47288e-06
0.738628
0.681703
-1.98233e-06
0.73867
0.681692
-5.60657e-06
0.73867
0.681695
-7.23875e-06
0.738666
0.681692
-7.73689e-06
0.738684
0.681682
0.73861
0.681695
9.72653e-06
0.0778449
0.660773
3.20756e-06
0.0778838
0.660793
5.90277e-07
0.0778863
0.660786
-2.34239e-06
0.0778857
0.660784
-1.18174e-05
0.077908
0.660785
0.0778328
0.660766
-2.5664e-05
0.0778706
-2.08518e-05
0.0778789
-1.26898e-05
0.0778781
-2.1366e-06
0.0778751
2.42909e-05
0.0778816
0.0778571
-3.83856e-06
0.604095
-1.04427
-2.17192e-06
0.604091
-1.04428
1.27715e-07
0.6041
-1.04429
1.57593e-05
0.60409
-1.04429
2.53323e-05
0.604085
-1.04429
0.60412
-1.04427
7.14052e-06
1.13373
-0.945163
-7.51395e-06
1.13375
-0.945164
1.35292e-05
1.13374
-0.945181
2.58996e-05
1.13373
-0.945174
-4.15582e-06
1.13374
-0.945149
1.13375
-0.945158
2.36715e-05
1.50289
-0.63229
-3.20068e-07
1.50293
-0.632271
1.88117e-05
1.50291
-0.632292
2.38695e-05
1.5029
-0.632282
-2.80331e-05
1.50293
-0.632244
1.5029
-0.63228
3.14221e-05
1.77129
-0.455708
3.7791e-06
1.77135
-0.45568
2.04552e-05
1.77131
-0.455707
2.27449e-05
1.77131
-0.455692
-3.17869e-05
1.77135
-0.45565
1.77129
-0.455701
3.50051e-05
2.03538
-0.419564
4.74059e-06
2.03546
-0.419526
1.91511e-05
2.03542
-0.419559
2.33031e-05
2.03542
-0.419548
-2.68485e-05
2.03546
-0.4195
2.03538
-0.419559
3.1124e-05
2.32123
-0.425637
2.56671e-06
2.32133
-0.425602
1.76166e-05
2.32128
-0.425639
2.58247e-05
2.32128
-0.425632
-1.58589e-05
2.32132
-0.425585
2.32125
-0.425633
2.80096e-05
2.59375
-0.380823
3.32038e-06
2.59387
-0.380803
1.84378e-05
2.59381
-0.380834
2.84329e-05
2.59381
-0.380831
-4.51004e-06
2.59386
-0.380794
2.59378
-0.380817
2.84823e-05
2.72065
-0.132241
1.0765e-05
2.72081
-0.132246
2.37291e-05
2.72075
-0.132264
3.04675e-05
2.72075
-0.132261
5.11131e-06
2.7208
-0.132237
2.72071
-0.132232
4.23942e-05
2.45435
0.560825
1.86782e-05
2.45453
0.560849
2.51955e-05
2.45446
0.560826
2.74291e-05
2.45447
0.560829
2.24138e-06
2.45451
0.560846
2.45442
0.560855
5.39731e-05
1.64668
1.48932
2.08764e-05
1.64685
1.4894
1.31241e-05
1.6468
1.48937
5.882e-06
1.6468
1.48937
-2.56161e-05
1.64684
1.48938
1.64674
1.48935
4.51549e-05
0.764262
1.54314
1.37948e-05
0.764439
1.54324
3.96273e-06
0.764396
1.5432
-4.1679e-06
0.764396
1.5432
-3.16352e-05
0.764437
1.54322
0.764307
1.54316
-7.44457e-05
0.842207
-2.95793e-05
0.842273
-9.69078e-06
0.842254
5.95162e-06
0.842255
4.97048e-05
0.842275
0.842214
-9.88983e-05
0.67164
-1.71581
-6.14405e-05
0.671623
-1.71594
-1.93364e-05
0.671627
-1.71595
4.88186e-05
0.671598
-1.71595
0.000119344
0.671589
-1.71594
0.671673
-1.71582
-0.000109699
1.36378
-1.63719
-5.38335e-05
1.36371
-1.63731
7.63347e-07
1.3637
-1.63731
5.84535e-05
1.36367
-1.6373
0.000121947
1.36367
-1.6373
1.3638
-1.63716
-0.00010255
2.1715
-1.43991
-4.87108e-05
2.17142
-1.44003
-7.84663e-06
2.1714
-1.44003
3.22823e-05
2.17137
-1.44002
9.88621e-05
2.17138
-1.44001
2.17151
-1.43989
-0.000117664
3.32799
-1.61208
-4.76499e-05
3.32789
-1.61222
2.82988e-06
3.32788
-1.61223
4.90582e-05
3.32786
-1.61223
0.000134296
3.32786
-1.61222
3.328
-1.61206
-0.000137482
4.7939
-1.88533
-6.42626e-05
4.79376
-1.88547
-8.82449e-06
4.79376
-1.88549
4.87141e-05
4.79374
-1.88549
0.000142561
4.79373
-1.88547
4.7939
-1.88532
-0.000148034
6.59257
-2.22417
-7.93128e-05
6.59239
-2.2243
-1.78871e-05
6.59239
-2.22434
5.13409e-05
6.59238
-2.22433
0.000138953
6.59237
-2.2243
6.59258
-2.22417
-0.000107262
8.25747
-2.04562
-0.000104968
8.25733
-2.04574
-4.81666e-05
8.25732
-2.04581
2.61637e-05
8.25731
-2.04584
0.000108825
8.2573
-2.04581
8.25752
-2.04565
8.23324e-05
7.44396
0.681191
-7.62781e-06
7.44409
0.681078
-2.24837e-05
7.44402
0.681048
-1.60387e-05
7.444
0.681039
3.2599e-05
7.44402
0.680993
7.44403
0.681289
0.000220727
3.90987
4.0947
7.99501e-05
3.9102
4.09488
3.46845e-05
3.91008
4.09481
8.61398e-06
3.91007
4.09479
-8.18137e-05
3.91013
4.09482
3.91
4.09481
7.28319e-05
1.47144
3.92767
4.39624e-05
1.47165
3.92798
2.23869e-05
1.47158
3.92789
3.93079e-06
1.47158
3.92787
-4.30397e-05
1.47161
3.92795
1.47154
3.92776
0.000171016
0.601118
2.4133
4.79489e-05
0.601383
2.41363
1.32443e-05
0.601296
2.41352
-6.43884e-06
0.601296
2.4135
-8.37598e-05
0.60135
2.41356
0.60119
2.41343
-0.000114093
1.44344
-2.08721e-05
1.44356
-8.02618e-06
1.44354
1.59511e-05
1.44353
0.000104271
1.44354
1.44351
-4.85962e-05
-0.323716
-1.39205
-9.07389e-06
-0.323731
-1.39225
1.11674e-05
-0.323738
-1.39223
1.68092e-05
-0.323737
-1.39222
3.53544e-05
-0.323727
-1.39223
-0.323736
-1.39205
-2.77386e-05
-0.587541
-1.37333
-1.87377e-06
-0.587534
-1.37353
2.15805e-06
-0.58755
-1.3735
1.9065e-06
-0.587547
-1.37349
2.26799e-05
-0.587523
-1.37352
-0.587574
-1.3733
9.50212e-06
-0.778231
-1.24923
3.44537e-05
-0.778145
-1.24944
1.7323e-05
-0.778152
-1.24941
3.26642e-06
-0.778146
-1.24941
2.79504e-05
-0.778111
-1.24945
-0.77823
-1.2492
-3.43341e-05
-0.795946
-1.59433
-4.75341e-06
-0.795821
-1.59457
-1.96735e-05
-0.795824
-1.59455
-1.74878e-05
-0.79582
-1.59455
4.99568e-05
-0.795787
-1.59461
-0.795915
-1.59433
-9.03299e-05
-0.853817
-1.82737
-4.21909e-05
-0.853719
-1.82762
-4.79947e-05
-0.853714
-1.82759
-3.271e-05
-0.853715
-1.8276
6.82011e-05
-0.853693
-1.82766
-0.853773
-1.82739
-0.000108963
-0.834313
-2.24356
-4.47191e-05
-0.834298
-2.24379
-3.43756e-05
-0.834289
-2.24377
-1.34909e-05
-0.834286
-2.24378
7.93536e-05
-0.834269
-2.24382
-0.834265
-2.2436
-0.000116665
-0.196368
-2.68344
-3.97821e-05
-0.196509
-2.6836
-5.52738e-06
-0.196494
-2.68364
2.36332e-05
-0.196451
-2.6837
0.000172819
-0.196477
-2.68375
-0.196233
-2.6835
2.61728e-05
2.10206
-1.61726
4.61804e-05
2.102
-1.61745
7.2612e-05
2.10197
-1.61744
4.14956e-05
2.10205
-1.61743
5.19772e-05
2.1021
-1.61759
2.10221
-1.6171
0.000109937
3.11012
3.08652
0.000100991
3.1104
3.08648
8.39753e-05
3.11029
3.08651
9.54832e-06
3.11029
3.08663
-0.000211861
3.11037
3.08678
3.1103
3.0865
0.000228009
1.73508
5.30249
0.000112724
1.73541
5.30309
8.22228e-05
1.73528
5.30293
5.33652e-05
1.73524
5.30295
-7.13095e-06
1.73524
5.30313
1.7353
5.30275
0.000191577
0.4068
3.74139
7.4176e-05
0.406996
3.74216
8.36324e-06
0.406937
3.74193
-5.87032e-06
0.406892
3.74186
-4.96811e-05
0.406894
3.74195
0.406906
3.74178
-3.23776e-05
1.85027
1.45326e-05
1.85051
4.0148e-05
1.85045
2.22773e-05
1.85044
-9.20703e-05
1.85055
1.85032
-1.90261e-06
0.000255099
-0.000253197
-2.97108e-06
0.000254299
-0.000253661
-3.21719e-06
0.00025368
-0.000253725
-2.89959e-06
0.000253217
-0.00025373
-1.9779e-06
0.000252709
-0.000253766
0.000251662
-0.000253715
-2.55847e-06
0.000496044
-0.000238901
-3.35819e-06
0.000494978
-0.000239675
-3.49873e-06
0.000494061
-0.000239938
-3.13016e-06
0.000493334
-0.000240166
-2.17434e-06
0.000492536
-0.000240514
0.000490749
-0.00024089
-2.11844e-06
0.000680875
-0.000182608
-2.90793e-06
0.000678722
-0.00018166
-3.30887e-06
0.000676419
-0.000180901
-3.05299e-06
0.00067432
-0.000180424
-2.04e-06
0.000672151
-0.000180069
0.000668428
-0.000179436
-2.86346e-06
0.000743163
-5.86205e-05
-5.4117e-06
0.000736651
-5.4594e-05
-6.98208e-06
0.000730457
-5.20985e-05
-6.96712e-06
0.000724801
-5.04408e-05
-4.97865e-06
0.000719435
-4.94458e-05
0.000712017
-4.89042e-05
-1.15381e-05
0.000663749
9.14295e-05
-1.89887e-05
0.000648044
9.50161e-05
-2.21342e-05
0.000635611
9.6859e-05
-2.09542e-05
0.000624859
9.76903e-05
-1.45789e-05
0.000614852
9.73403e-05
0.00060156
9.55114e-05
-3.40406e-05
0.000494286
0.000202861
-4.84693e-05
0.000463357
0.000197011
-5.11433e-05
0.000444175
0.000192516
-4.58018e-05
0.000431083
0.000187424
-3.13838e-05
0.000420063
0.000179938
0.000402514
0.000167945
-6.96706e-05
0.000325683
0.000237039
-8.12703e-05
0.000281965
0.000191748
-7.11679e-05
0.000267537
0.000166035
-5.32895e-05
0.000266242
0.000147122
-3.13602e-05
0.000268929
0.000129728
0.000260658
0.000111114
-7.95255e-05
0.000319914
8.4595e-05
-5.98445e-05
0.000278157
-1.54317e-05
-1.8035e-05
0.00028548
-5.89323e-05
1.66358e-05
0.000313515
-8.0892e-05
2.80151e-05
0.000347792
-8.93102e-05
0.000372488
-8.35396e-05
-5.78964e-06
-0.000849589
0.00117558
7.24615e-05
-0.000855757
0.00105684
0.000151939
-0.000824452
0.00103136
0.000190966
-0.00077251
0.00104762
0.000156142
-0.000710689
0.00109378
-0.000644337
0.00117294
0.000128794
0.000756691
-0.00173434
0.000283772
0.000783335
-0.00179351
0.000391395
0.000832975
-0.00176512
0.000414282
0.000902754
-0.00169894
0.0003079
0.000995218
-0.00160046
0.00112476
-0.00146202
0.000240206
-0.00501114
0.00552794
0.000339517
-0.00498918
0.00567321
0.000371368
-0.00497135
0.0057727
0.00035113
-0.00494507
0.005868
0.000248691
-0.00489378
0.0059914
-0.00478683
0.00616011
3.27025e-05
-0.00504422
-1.24588e-05
-0.0049458
-6.0718e-05
-0.00492454
-8.51406e-05
-0.00492168
-7.00644e-05
-0.00491018
-0.00485778
-1.96799e-06
0.000451909
-0.000703562
-2.76734e-06
0.000450725
-0.000704067
-2.84768e-06
0.000450002
-0.000703951
-2.45212e-06
0.000449459
-0.000703761
-1.63375e-06
0.00044894
-0.000703596
0.000448013
-0.00070311
-2.20579e-06
0.000935858
-0.000720864
-2.77493e-06
0.000933745
-0.000721377
-2.80959e-06
0.000932196
-0.000721356
-2.35554e-06
0.000930895
-0.000721345
-1.45396e-06
0.000929679
-0.000721485
0.000927719
-0.00072144
-3.04105e-06
0.00150169
-0.000744438
-4.10485e-06
0.00149746
-0.000742444
-4.35285e-06
0.00149396
-0.000740995
-3.77129e-06
0.00149087
-0.000739939
-2.29432e-06
0.00148803
-0.000739164
0.00148416
-0.000737952
-7.218e-06
0.00240227
-0.000950873
-1.06978e-05
0.00239216
-0.000945032
-1.16628e-05
0.00238434
-0.000941208
-1.04767e-05
0.00237764
-0.000938428
-6.90081e-06
0.00237161
-0.000936785
0.00236417
-0.000935975
-1.97924e-05
0.00405449
-0.00154134
-2.75809e-05
0.00402914
-0.00153546
-2.84766e-05
0.00401274
-0.00153178
-2.50267e-05
0.00400084
-0.00152979
-1.68224e-05
0.00399117
-0.00153079
0.00397924
-0.00153611
-4.73962e-05
0.00679283
-0.00248972
-5.51889e-05
0.00674034
-0.00250809
-4.86891e-05
0.00671581
-0.00251795
-3.70752e-05
0.00670367
-0.00252713
-2.21981e-05
0.00669711
-0.00254036
0.00668695
-0.00256124
-7.25594e-05
0.010689
-0.00358785
-6.14031e-05
0.0106063
-0.00368558
-3.10059e-05
0.0105877
-0.00373584
-4.24836e-06
0.0105957
-0.00377082
8.27382e-06
0.0106153
-0.00379999
0.0106318
-0.00382516
-3.12344e-05
0.0157068
-0.00490175
3.794e-05
0.0156264
-0.00510369
0.000113774
0.0156385
-0.00518473
0.000152071
0.0156931
-0.00521597
0.000126138
0.0157646
-0.0052124
0.0158407
-0.00516691
0.000135131
0.0171126
-0.000364254
0.000270825
0.0170536
-0.000505295
0.000362864
0.0170932
-0.000515294
0.000374051
0.0171865
-0.000457508
0.000264244
0.0173132
-0.000345955
0.0174633
-0.000186111
0.000224741
0.0177939
-0.00263982
0.000336985
0.0177966
-0.00264927
0.000368736
0.0178661
-0.00257031
0.000329603
0.0179768
-0.00245076
0.000207111
0.0181246
-0.00229053
0.018301
-0.00209334
3.94513e-05
0.0155547
0.00772731
2.55639e-06
0.0156472
0.00785728
-6.28762e-05
0.0157612
0.00794118
-0.000114429
0.0158877
0.00800734
-0.000116579
0.0160383
0.00807851
0.016191
0.00815244
-0.000217001
0.0107274
-0.000416468
0.0109003
-0.000519712
0.0109397
-0.000501234
0.0109473
-0.000350574
0.0109763
0.0109827
-1.47188e-06
0.000601601
-0.00130407
-1.71667e-06
0.000600918
-0.00130479
-1.56266e-06
0.00060067
-0.00130468
-1.12234e-06
0.000600567
-0.00130451
-5.56528e-07
0.000600627
-0.00130438
0.00060066
-0.00130371
-1.45995e-06
0.00123551
-0.00135321
-1.46204e-06
0.0012344
-0.00135373
-1.23066e-06
0.00123374
-0.0013536
-7.55802e-07
0.00123329
-0.00135352
-2.07135e-07
0.00123317
-0.0013536
0.001233
-0.00135327
-2.2641e-06
0.0018432
-0.00134871
-2.63914e-06
0.00184102
-0.0013469
-2.54851e-06
0.00183941
-0.00134545
-2.02743e-06
0.00183823
-0.00134444
-1.13004e-06
0.00183759
-0.00134382
0.00183683
-0.00134274
-5.93684e-06
0.00213248
-0.00123319
-7.38875e-06
0.00212711
-0.00122894
-7.10544e-06
0.00212435
-0.00122612
-5.72224e-06
0.0021229
-0.00122437
-3.49073e-06
0.0021225
-0.00122384
0.00212158
-0.00122412
-1.22487e-05
0.00151544
-0.00091231
-1.17307e-05
0.00150338
-0.000912629
-7.78915e-06
0.00150174
-0.000913305
-3.39858e-06
0.00150408
-0.00091522
-3.19473e-07
0.0015085
-0.000919428
0.00151177
-0.000926164
-2.22719e-06
-0.000304475
-0.000668388
1.18289e-05
-0.000331289
-0.00068746
2.67638e-05
-0.000330911
-0.000699786
3.45109e-05
-0.000319054
-0.000710966
2.88296e-05
-0.000302241
-0.00072321
-0.000284287
-0.000736258
4.75509e-05
-0.00358103
-0.000358908
9.64234e-05
-0.00361957
-0.000445447
0.00012765
-0.00360715
-0.000490173
0.000130602
-0.00357123
-0.000521215
9.39956e-05
-0.00352259
-0.000543143
-0.0034646
-0.000551646
0.000172667
-0.0089629
0.000308079
0.000268786
-0.00899133
0.000172323
0.000303196
-0.00894801
0.000121551
0.000273903
-0.00886321
0.000104557
0.000173903
-0.00875468
0.000118637
-0.00863352
0.000174979
0.000217641
-0.0153438
0.00579923
0.000370417
-0.0152884
0.00563812
0.000428912
-0.0151687
0.00564579
0.000397608
-0.015013
0.00572241
0.00025057
-0.0148248
0.0058699
-0.0146695
0.00610047
0.00018535
-0.0215413
0.00337179
0.000190949
-0.0213832
0.00343822
0.000122675
-0.0212179
0.00354602
3.23385e-05
-0.0210483
0.00367399
-1.17465e-05
-0.0208933
0.00382179
-0.020766
0.00399127
7.58923e-05
-0.0495699
0.0356791
-3.02771e-05
-0.0494173
0.0359961
-0.000154132
-0.0493016
0.0361478
-0.000207493
-0.049206
0.0362173
-0.000173027
-0.0491546
0.0363052
-0.049106
0.0363192
-0.000356438
-0.0384876
-0.00054509
-0.0383293
-0.000607865
-0.0382996
-0.000548057
-0.0383195
-0.000225144
-0.0385017
-0.0383484
-1.18476e-06
0.000723199
-0.00202628
-9.33807e-07
0.000722546
-0.00202708
-5.51831e-07
0.00072251
-0.00202695
-1.07826e-07
0.000722681
-0.00202687
2.1463e-07
0.000723047
-0.00202684
0.00072338
-0.00202598
-1.00206e-06
0.00156694
-0.00219538
-5.9659e-07
0.00156575
-0.00219594
-9.91628e-08
0.00156547
-0.00219577
4.04598e-07
0.0015656
-0.0021957
7.05033e-07
0.00156608
-0.00219577
0.00156648
-0.00219506
-1.71263e-06
0.00273538
-0.00251422
-1.59808e-06
0.00273345
-0.00251341
-1.10942e-06
0.0027329
-0.00251248
-5.50499e-07
0.00273301
-0.00251185
-1.18897e-07
0.00273366
-0.00251151
0.00273398
-0.00251049
-3.32544e-06
0.00475066
-0.00324436
-3.43822e-06
0.00474726
-0.00324235
-2.36392e-06
0.00474659
-0.00324081
-1.21532e-06
0.0047473
-0.00323986
-3.65144e-07
0.00474874
-0.00323984
0.00474931
-0.0032399
-2.52411e-06
0.00851186
-0.00467104
5.54924e-07
0.00850509
-0.00467333
4.62103e-06
0.00850441
-0.00467479
6.85176e-06
0.0085074
-0.00467702
5.93397e-06
0.00851177
-0.00468105
0.00851517
-0.00468609
8.62095e-06
0.0147617
-0.00692667
2.3641e-05
0.0147551
-0.00695149
3.45572e-05
0.0147613
-0.00696651
3.73474e-05
0.0147747
-0.00698039
2.78666e-05
0.0147925
-0.00699448
0.0148126
-0.00700661
5.51631e-05
0.0235026
-0.00915435
9.00701e-05
0.0235055
-0.00923029
0.000106642
0.0235249
-0.00927026
0.000103026
0.0235556
-0.00929904
7.1232e-05
0.0235971
-0.00931704
0.0236496
-0.00931829
0.000106394
0.0374852
-0.0137808
0.000146288
0.0375366
-0.0138997
0.000149263
0.0375856
-0.0139435
0.000128327
0.037638
-0.0139583
7.73183e-05
0.0377044
-0.0139385
0.037781
-0.0138786
0.000115867
0.0517551
-0.00858723
8.49229e-05
0.0518664
-0.00866229
1.63115e-05
0.0519248
-0.00862596
-3.82278e-05
0.0519609
-0.00854637
-6.78089e-05
0.0520114
-0.00840735
0.0520426
-0.00822798
-8.88448e-05
0.0666524
-0.0114377
-0.000226372
0.066807
-0.0113659
-0.000345137
0.0668526
-0.0112636
-0.000363496
0.0668263
-0.0111737
-0.00029101
0.0668214
-0.0110604
0.066713
-0.0109711
-0.000372969
0.0793906
0.0233133
-0.000547141
0.0795136
0.0234634
-0.000598522
0.0795065
0.0235453
-0.000515634
0.0793958
0.0235647
-0.000345102
0.0793384
0.0236173
0.0791354
0.023552
-0.000233176
0.0411357
-0.000311243
0.0412621
-0.000307958
0.0412035
-0.000196264
0.0409648
-0.000391392
0.041032
0.0403962
2.34063e-05
-1.47828
0.0862111
1.16322e-05
-1.47845
0.086219
-8.52799e-06
-1.47843
0.0862191
-2.29457e-05
-1.47843
0.0862202
-2.62322e-05
-1.47845
0.0862219
-1.47829
0.0862062
3.05644e-05
-1.49802
0.0197025
8.35657e-06
-1.49814
0.019703
-4.62899e-06
-1.49812
0.0197024
-1.47224e-05
-1.49812
0.0197031
-3.25232e-05
-1.49814
0.0197033
-1.49802
0.0196972
2.31541e-05
0.0242921
5.82996e-06
0.0242911
-2.75112e-06
0.0242917
-1.00797e-05
0.0242918
-2.61975e-05
0.0242915
0.0242928
2.49854e-05
-1.53625
0.249106
5.2815e-06
-1.53642
0.249132
-1.08234e-05
-1.5364
0.249131
-1.77043e-05
-1.53639
0.249127
-2.6957e-05
-1.53642
0.249129
-1.53622
0.249101
2.72446e-05
-1.5672
0.050621
5.70131e-06
-1.56732
0.0506234
-7.26585e-06
-1.5673
0.0506233
-1.89721e-05
-1.5673
0.0506247
-4.11099e-05
-1.56732
0.0506268
-1.56719
0.0506203
2.43624e-05
0.0360444
7.07466e-06
0.0360428
-2.98317e-06
0.0360436
-1.26269e-05
0.036044
-3.04488e-05
0.0360441
0.0360465
2.34579e-05
-1.45754
0.457392
5.34343e-06
-1.45771
0.457423
-5.13185e-06
-1.45769
0.457417
-1.52879e-05
-1.45769
0.457413
-3.41396e-05
-1.45772
0.457417
-1.45751
0.457378
3.145e-05
-1.52502
0.118067
1.16941e-05
-1.52513
0.118061
1.90791e-07
-1.52511
0.118064
-1.39099e-05
-1.52511
0.118067
-4.28512e-05
-1.52513
0.118069
-1.52501
0.118076
2.42542e-05
0.0541294
7.72999e-06
0.0541285
-1.82553e-06
0.0541287
-1.05093e-05
0.0541285
-2.70533e-05
0.0541284
0.0541296
3.26853e-05
-1.72402
0.587049
1.5825e-05
-1.72421
0.58708
3.77442e-07
-1.72418
0.58707
-2.03685e-05
-1.72419
0.587066
-5.13491e-05
-1.72423
0.587067
-1.72402
0.587025
4.27939e-05
-1.69516
0.0891647
2.3655e-05
-1.69528
0.0891513
1.04995e-05
-1.69526
0.0891572
-7.20159e-06
-1.69526
0.0891611
-4.14802e-05
-1.69529
0.0891616
-1.69518
0.0891833
2.66954e-05
0.0384104
7.43514e-06
0.0384098
-1.1978e-06
0.0384082
-8.84329e-06
0.038407
-2.61902e-05
0.0384066
0.0384058
3.34768e-05
-1.80695
0.566596
1.69885e-05
-1.80715
0.566627
1.00565e-06
-1.80712
0.566614
-2.09765e-05
-1.80713
0.56661
-4.86207e-05
-1.80717
0.566608
-1.80698
0.566565
4.42586e-05
-1.74248
0.0246566
2.25581e-05
-1.74261
0.0246353
9.20321e-06
-1.74259
0.0246432
-7.33112e-06
-1.7426
0.0246466
-3.93134e-05
-1.74262
0.0246419
-1.74251
0.0246715
2.48647e-05
0.0199716
5.40022e-06
0.019972
-2.35166e-06
0.0199698
-8.8741e-06
0.019968
-2.66024e-05
0.0199678
0.0199644
2.89256e-05
-1.95449
0.2775
1.16922e-05
-1.95466
0.277521
-9.22187e-07
-1.95464
0.277496
-7.53392e-06
-1.95464
0.277474
-1.97916e-05
-1.95467
0.277471
-1.95452
0.277464
2.8818e-05
-1.86879
-0.0610715
8.64246e-06
-1.86891
-0.0610907
2.14852e-06
-1.8689
-0.0610831
-1.94362e-06
-1.8689
-0.0610809
-2.02876e-05
-1.86892
-0.061085
-1.86879
-0.0610704
2.14149e-05
-0.0068535
2.24632e-06
-0.00685217
-7.03919e-06
-0.00685349
-1.25029e-05
-0.00685651
-2.70605e-05
-0.00685573
-0.00686159
-1.92611e-06
-2.04072
-0.365218
1.03228e-05
-2.04085
-0.365241
1.75554e-06
-2.04086
-0.365274
3.20706e-06
-2.04089
-0.365342
4.57756e-05
-2.04092
-0.365395
-2.04074
-0.365256
1.00473e-05
-1.8616
-0.240203
8.00101e-06
-1.86171
-0.240232
3.22795e-06
-1.8617
-0.240243
-3.54342e-06
-1.86169
-0.240268
-3.05613e-05
-1.8617
-0.240282
-1.86155
-0.240286
1.64394e-05
0.0575029
-2.90909e-07
0.0575098
-1.24491e-05
0.0575089
-2.14104e-05
0.0575054
-3.67099e-05
0.0575101
0.0574955
1.02913e-05
-2.42946
0.446973
7.25967e-05
-2.42965
0.446894
7.8235e-05
-2.42965
0.446922
4.05286e-06
-2.42964
0.446936
-0.0002115
-2.42977
0.447008
-2.42943
0.446868
2.17613e-06
-1.85611
-0.813562
-2.46821e-05
-1.85621
-0.813639
-5.4269e-05
-1.85621
-0.813656
-4.33809e-05
-1.85622
-0.8137
-0.000102587
-1.85629
-0.813705
-1.85608
-0.813747
2.41955e-05
0.0728154
1.57354e-07
0.0728114
-1.2224e-05
0.0728026
-9.79338e-06
0.0727781
-2.64342e-05
0.0727772
0.0727985
9.76273e-05
0.300765
3.23264
0.000222006
0.300544
3.23271
0.000249021
0.300684
3.23272
9.99119e-05
0.30091
3.23281
-0.000169326
0.301076
3.23298
0.300667
3.23253
1.5699e-05
-1.56636
1.05354
-7.12635e-05
-1.56649
1.05349
-9.8108e-05
-1.56643
1.05348
-7.36847e-05
-1.56634
1.05353
2.49581e-05
-1.56636
1.05363
-1.56632
1.05327
-1.65673e-05
0.578988
-6.23288e-05
0.578888
-8.10222e-05
0.578953
-5.65887e-05
0.578991
-2.48827e-05
0.579034
0.578865
0.000179003
5.21285
3.32209
0.000127332
5.21347
3.32238
0.000100778
5.2134
3.32228
3.9818e-05
5.21351
3.32231
6.59398e-05
5.21366
3.32242
5.21326
3.32209
5.7492e-05
3.13462
3.13172
0.000118673
3.13494
3.13195
7.62278e-05
3.13511
3.13182
8.02413e-06
3.13536
3.13174
0.000149128
3.13519
3.13196
3.13547
3.13121
-6.37341e-05
2.65155
-9.81955e-05
2.65161
-0.000186052
2.65165
-0.000157195
2.65152
-1.82069e-05
2.65161
2.65126
0.00019624
5.1347
1.92858
0.000145741
5.13563
1.92896
9.81248e-05
5.13537
1.92889
5.90872e-05
5.13515
1.92907
-0.000249739
5.13501
1.92967
5.13549
1.92813
0.000198369
5.74306
2.52317
-0.000131386
5.74392
2.524
-0.000546357
5.74389
2.52371
-0.000473977
5.74438
2.52244
0.000146011
5.74518
2.52117
5.74366
2.52318
-8.39563e-05
3.82415
0.0001098
3.824
0.00076337
3.8236
0.000113671
3.82479
-0.00277574
3.82679
3.82187
7.01803e-05
2.39245
1.38634
6.33544e-05
2.39299
1.38649
6.90201e-05
2.39283
1.3865
6.16635e-05
2.39292
1.3866
-5.44115e-05
2.39327
1.38706
2.39229
1.38611
0.000250197
2.66625
2.24912
-3.71497e-05
2.66783
2.24945
-0.00051755
2.66765
2.24938
-0.00016776
2.66515
2.24985
0.00104127
2.66253
2.2507
2.66775
2.24876
-0.000319751
4.0773
-0.000967075
4.0768
-0.0016398
4.0762
-0.00106105
4.07849
-0.00219562
4.0835
4.0726
0.00039167
0.860846
-1.5038
0.642562
0.000145411
0.862163
-1.50509
0.643172
0.000793517
0.861442
-1.50527
0.643181
0.000268421
0.861306
-1.50369
0.642914
-0.00418698
0.864735
-1.50455
0.644271
0.860669
-1.50791
0.643051
0.000703326
-0.285317
2.30343
-1.15797
-3.04744e-05
-0.283788
2.30426
-1.15757
0.00216068
-0.286257
2.3036
-1.15809
-0.000439116
-0.280732
2.30124
-1.1566
-0.0145742
-0.267015
2.30376
-1.15787
-0.302978
2.30443
-1.15535
-0.00132171
0.91422
-0.871587
-0.000856941
0.912985
-0.87188
-0.00440336
0.91686
-0.872412
0.0021669
0.902047
-0.867837
0.0305959
0.887572
-0.875462
0.930045
-0.859364
0.000904282
-0.251028
-1.25368
-0.000262584
-0.250838
-1.25308
-0.00327146
-0.249506
-1.25275
0.00224572
-0.253749
-1.25546
0.0217917
-0.272125
-1.25197
-0.223476
-1.26264
0.000826258
1.8533
0.198276
-0.00085561
1.85376
0.201339
-0.00231258
1.85456
0.200985
0.000674162
1.85011
0.194389
0.0145151
1.83838
0.179407
1.87447
0.220997
0.00116105
-2.18193
-0.000553473
-2.18463
0.000779275
-2.18163
-0.00493833
-2.1888
-0.0182039
-2.22955
-2.12378
-0.000203868
-0.902876
-0.350596
0.000273662
-0.903943
-0.349616
0.000213556
-0.903399
-0.349295
0.000521159
-0.903335
-0.352435
0.00289216
-0.89961
-0.35473
-0.911696
-0.348049
0.000128692
1.32691
-2.03163
-9.85185e-05
1.32829
-2.03067
-0.000311592
1.32828
-2.03048
-0.000163647
1.32593
-2.03502
0.00035385
1.32249
-2.04321
1.33355
-2.02389
0.00136158
-4.17564
-0.00069029
-4.17638
-0.000243393
-4.17533
-0.00222124
-4.17846
-0.0149428
-4.20109
-4.14487
-0.000426676
-0.116906
-0.233263
-3.07218e-05
-0.116762
-0.23325
0.000826957
-0.116871
-0.233282
-9.17587e-05
-0.11807
-0.233447
-0.00197599
-0.119361
-0.233485
-0.116103
-0.233922
0.000531886
0.581049
-2.73012
-0.000337864
0.583916
-2.73048
-0.00226614
0.585077
-2.7305
-0.00153003
0.57515
-2.72897
0.00467538
0.559673
-2.72845
0.59525
-2.73057
0.00076378
-4.75551
-0.000771403
-4.75773
-0.00358876
-4.75715
-0.00135902
-4.75059
0.00394885
-4.75185
-4.74263
0.000166006
0.407963
-0.641392
9.0795e-05
0.408088
-0.641263
-3.32183e-05
0.408072
-0.64123
0.000202659
0.408033
-0.641716
0.00116973
0.40837
-0.642822
0.407742
-0.640494
9.23004e-05
-0.12555
-2.1967
0.000211604
-0.125587
-2.19692
0.000753592
-0.12608
-2.19689
0.000739784
-0.123595
-2.19733
-0.0014162
-0.119499
-2.19842
-0.128314
-2.19593
0.000124417
-4.13093
-0.00186778
-4.13105
-0.00390595
-4.13028
-0.0035976
-4.13074
-0.00487903
-4.13542
-4.12342
2.6955e-05
0.744917
0.000159491
0.745099
0.000428048
0.744999
0.000196445
0.745111
-0.00100235
0.745433
0.744611
0.000203912
0.797129
0.00010633
0.797719
-7.56242e-05
0.797666
7.85043e-06
0.797542
0.000659776
0.797057
0.798097
5.24973e-06
-0.00107217
-0.00215224
-0.00187649
-0.00173584
-5.84789e-07
-0.00256934
0.000543774
-2.88145e-07
-0.00257033
0.000543951
-7.94909e-08
-0.00257024
0.000544103
1.48558e-07
-0.00257018
0.000544209
3.29655e-07
-0.00257015
0.000544324
-0.00256904
0.000544285
-2.77913e-07
-0.00295397
0.000385381
-5.5009e-08
-0.00295507
0.00038556
9.38945e-08
-0.00295503
0.000385655
2.52589e-07
-0.00295502
0.000385727
3.90142e-07
-0.00295503
0.000385794
-0.00295387
0.000385737
-1.26099e-08
-1.52211e-05
5.70741e-08
-1.51529e-05
1.25255e-07
-1.51264e-05
2.11612e-07
-1.51066e-05
2.91715e-07
-1.50921e-05
-1.51521e-05
-2.8438e-07
-0.00277853
0.00112812
6.24301e-08
-0.00277945
0.0011285
3.83802e-07
-0.00277938
0.00112862
6.40019e-07
-0.00277935
0.00112872
7.48891e-07
-0.00277936
0.0011288
-0.0027783
0.00112849
8.2255e-08
-0.00331724
0.000924969
2.83532e-07
-0.00331844
0.00092528
4.40185e-07
-0.00331846
0.000925356
5.63435e-07
-0.0033185
0.000925429
5.96921e-07
-0.00331856
0.000925477
-0.00331739
0.000925214
1.67539e-07
-0.00018162
2.1863e-07
-0.000181566
2.77097e-07
-0.000181556
3.19368e-07
-0.000181549
3.12715e-07
-0.000181553
-0.000181635
-2.33697e-07
-0.00305653
0.00167161
1.20631e-07
-0.00305734
0.00167256
5.48653e-07
-0.00305719
0.00167307
7.6241e-07
-0.00305711
0.00167367
6.62051e-07
-0.00305712
0.00167422
-0.00305599
0.00167412
4.57518e-07
-0.00410122
0.00196964
5.90542e-07
-0.00410262
0.00197013
6.54415e-07
-0.00410269
0.00197033
5.88919e-07
-0.00410277
0.00197058
3.46798e-07
-0.00410288
0.0019708
-0.00410157
0.0019706
2.61014e-07
-0.000739456
2.72083e-07
-0.000739381
2.65082e-07
-0.000739324
1.69213e-07
-0.000739244
4.57432e-10
-0.000739183
-0.000739191
7.31405e-07
-0.00331188
0.0017386
1.7415e-06
-0.00331265
0.00174142
2.52922e-06
-0.00331257
0.00174352
2.69514e-06
-0.00331268
0.00174576
1.92519e-06
-0.00331303
0.00174766
-0.00331227
0.00174812
6.48194e-07
-0.00555215
0.00420884
1.0875e-06
-0.00555393
0.00421003
1.33029e-06
-0.00555413
0.00421079
1.24997e-06
-0.0055544
0.0042116
7.35289e-07
-0.0055547
0.00421232
-0.00555326
0.00421219
1.254e-07
-0.0021254
2.2146e-07
-0.00212525
2.70409e-07
-0.00212508
2.00393e-07
-0.00212487
6.52132e-08
-0.00212473
-0.00212462
6.72679e-06
-0.00357511
0.000635792
1.04668e-05
-0.00357785
0.000642373
1.19182e-05
-0.00357931
0.000646843
1.11695e-05
-0.00358111
0.000650805
7.57362e-06
-0.00358323
0.00065343
-0.00358397
0.000653191
2.51476e-06
-0.0079995
0.00863039
4.3201e-06
-0.00800234
0.00863272
5.07863e-06
-0.00800326
0.00863393
4.78912e-06
-0.00800436
0.00863494
3.11508e-06
-0.00800542
0.00863577
-0.00800408
0.00863484
5.91127e-07
-0.0050017
1.12582e-06
-0.00500158
1.42313e-06
-0.00500148
1.29517e-06
-0.00500124
8.80961e-07
-0.00500125
-0.00500104
2.53577e-05
-0.0036691
-0.0026466
3.3146e-05
-0.00367883
-0.00263713
3.26099e-05
-0.003685
-0.00263362
2.6566e-05
-0.0036911
-0.00263263
1.55258e-05
-0.00369655
-0.00263446
-0.0036989
-0.00263999
7.95912e-06
-0.0118101
0.0167639
1.13405e-05
-0.0118155
0.0167665
1.15376e-05
-0.0118181
0.0167668
9.76804e-06
-0.0118209
0.0167656
5.19433e-06
-0.0118232
0.0167655
-0.0118216
0.0167619
1.59117e-06
-0.00986396
2.22265e-06
-0.00986441
2.49916e-06
-0.00986516
1.8549e-06
-0.00986526
1.08655e-06
-0.00986607
-0.00986499
5.77148e-05
-0.00398131
-0.00787671
6.61988e-05
-0.00400257
-0.00787345
5.56275e-05
-0.00401519
-0.00787892
3.63978e-05
-0.00402541
-0.00788853
1.5139e-05
-0.0040318
-0.00790004
-0.0040304
-0.00791276
1.22951e-05
-0.017795
0.0305654
1.49759e-05
-0.0178041
0.030565
1.16277e-05
-0.0178083
0.0305624
8.25984e-06
-0.0178116
0.030554
1.93701e-06
-0.0178141
0.0305533
-0.0178098
0.0305438
9.53417e-07
-0.017497
4.90013e-07
-0.0174995
1.13122e-06
-0.0175037
4.5037e-07
-0.0175039
4.48907e-06
-0.0175103
-0.0174982
6.1491e-05
-0.00143278
-0.0202866
3.77698e-05
-0.00145164
-0.020299
-4.43757e-06
-0.00145872
-0.0203227
-4.14362e-05
-0.00146238
-0.0203482
-4.87684e-05
-0.00145929
-0.0203718
-0.00144911