/*--------------------------------*- C++ -*----------------------------------*\
| =========                 |                                                 |
| \\      /  F ield         | OpenFOAM: The Open Source CFD Toolbox           |
|  \\    /   O peration     | Version:  v1612+                                |
|   \\  /    A nd           | Web:      www.OpenFOAM.com                      |
|    \\/     M anipulation  |                                                 |
\*---------------------------------------------------------------------------*/
FoamFile
{
    version     2.0;
    format      ascii;
    class       volVectorField;
    location    "3.1";
    object      U;
}
// * * * * * * * * * * * * * * * * * * * * * * * * * * * * * * * * * * * * * //

dimensions      [0 1 -1 0 0 0 0];

internalField   nonuniform List<vector> 
1116
(
(0.382631 -1.06829e-05 -0.401039)
(0.382622 6.09606e-06 -0.401056)
(0.382626 1.55907e-06 -0.401042)
(0.382633 2.86928e-06 -0.401039)
(0.382631 -6.38327e-06 -0.401055)
(0.382618 8.51192e-06 -0.401038)
(1.31209 -4.75969e-06 -0.337847)
(1.31209 7.36252e-06 -0.337873)
(1.3121 -6.98687e-07 -0.337857)
(1.3121 2.15884e-06 -0.337855)
(1.31211 -6.14921e-06 -0.337876)
(1.31208 5.10457e-06 -0.337856)
(2.00837 -2.91915e-06 -0.140007)
(2.00839 6.36128e-06 -0.140036)
(2.00839 1.61901e-07 -0.140023)
(2.0084 2.29573e-06 -0.140022)
(2.0084 -3.23696e-06 -0.14004)
(2.00837 4.8605e-06 -0.140018)
(2.46614 -3.74808e-06 -0.0115877)
(2.46617 4.25459e-06 -0.0116148)
(2.46617 1.40923e-06 -0.0116031)
(2.46617 1.79022e-06 -0.0116023)
(2.46617 -1.74158e-06 -0.0116157)
(2.46614 5.14499e-06 -0.0115941)
(2.7972 -5.08433e-06 0.030999)
(2.79724 1.75617e-06 0.0309775)
(2.79724 4.94587e-07 0.0309872)
(2.79724 1.74046e-07 0.0309879)
(2.79724 -1.99387e-06 0.0309778)
(2.79721 5.10333e-06 0.0309975)
(3.06736 -6.30692e-06 0.0281554)
(3.0674 -5.16523e-07 0.0281395)
(3.0674 -2.20949e-06 0.0281469)
(3.0674 -1.66555e-06 0.0281469)
(3.0674 -2.44698e-06 0.028138)
(3.06736 5.83084e-06 0.0281573)
(3.30317 -9.3197e-06 0.0473684)
(3.30322 -3.13785e-06 0.0473603)
(3.30321 -4.38699e-06 0.0473654)
(3.30321 -4.11581e-06 0.0473649)
(3.30321 -2.3207e-06 0.0473567)
(3.30316 8.4503e-06 0.0473753)
(3.52359 -1.15424e-05 0.200665)
(3.52362 -3.75531e-06 0.200657)
(3.52362 -4.97137e-06 0.200661)
(3.52361 -4.54274e-06 0.200659)
(3.5236 -3.57772e-06 0.200649)
(3.52357 8.34739e-06 0.200673)
(3.43874 -1.0041e-05 0.604644)
(3.43879 -1.59559e-06 0.604635)
(3.43879 -5.83487e-06 0.604637)
(3.43879 -4.68849e-06 0.604636)
(3.43879 -8.27841e-06 0.604625)
(3.43872 3.49732e-06 0.604651)
(2.61506 -8.69701e-06 1.12356)
(2.61515 1.69032e-06 1.12358)
(2.61514 -4.57064e-06 1.12357)
(2.61513 -5.2678e-06 1.12357)
(2.61516 -1.13661e-05 1.12357)
(2.61503 -9.82142e-07 1.12358)
(0.936708 3.8295e-06 0.878537)
(0.936804 1.10279e-05 0.878587)
(0.93681 -2.54389e-06 0.878574)
(0.936803 4.35345e-06 0.878571)
(0.936845 -1.03798e-05 0.87858)
(0.93667 -8.88983e-06 0.878533)
(-0.490421 -2.18161e-05 -0.389739)
(-0.490342 -2.77924e-05 -0.389748)
(-0.490339 -1.16755e-05 -0.389741)
(-0.490338 -1.58574e-05 -0.389749)
(-0.490283 1.28393e-05 -0.389747)
(-0.490438 3.05119e-05 -0.38977)
(0.326822 1.74522e-05 -1.45568)
(0.326801 -2.2864e-05 -1.4557)
(0.326829 1.75231e-05 -1.45569)
(0.326806 -1.78087e-05 -1.4557)
(0.326785 5.01835e-05 -1.45572)
(0.326873 -7.73742e-07 -1.45567)
(1.82005 5.10554e-05 -1.54556)
(1.82005 -3.94918e-05 -1.54557)
(1.82006 2.87755e-05 -1.54556)
(1.82004 -7.8778e-06 -1.54556)
(1.82004 5.10083e-05 -1.54557)
(1.8201 -5.36663e-05 -1.54556)
(2.70902 6.51059e-05 -1.07394)
(2.70906 -2.47736e-05 -1.07394)
(2.70903 2.51516e-05 -1.07394)
(2.70902 7.58173e-06 -1.07394)
(2.70906 3.14547e-05 -1.07393)
(2.70904 -7.47245e-05 -1.07393)
(3.24859 6.37208e-05 -0.835258)
(3.24868 -9.35582e-06 -0.835264)
(3.24862 1.90402e-05 -0.835259)
(3.24862 1.85097e-05 -0.835252)
(3.24868 1.89703e-05 -0.835251)
(3.24859 -7.08548e-05 -0.835251)
(3.72814 5.95458e-05 -0.727425)
(3.72828 1.96869e-07 -0.72744)
(3.72819 1.18266e-05 -0.727433)
(3.72819 2.42225e-05 -0.727426)
(3.72827 1.48364e-05 -0.727427)
(3.72813 -5.93892e-05 -0.727422)
(4.28759 5.11069e-05 -0.657875)
(4.28776 8.29767e-07 -0.657901)
(4.28767 6.46675e-06 -0.657894)
(4.28767 2.64246e-05 -0.657889)
(4.28775 1.82853e-05 -0.657894)
(4.2876 -4.40384e-05 -0.657877)
(4.88433 4.35676e-05 -0.553708)
(4.88452 2.55489e-06 -0.553743)
(4.88442 6.80642e-06 -0.553732)
(4.88443 2.73625e-05 -0.553731)
(4.88451 2.30636e-05 -0.553741)
(4.88437 -2.93149e-05 -0.553712)
(5.26677 3.92593e-05 -0.264116)
(5.26705 9.39438e-06 -0.264162)
(5.26693 1.52356e-05 -0.264146)
(5.26694 2.94558e-05 -0.264148)
(5.26703 2.82761e-05 -0.264168)
(5.26686 -1.68051e-05 -0.264126)
(5.35466 4.24679e-05 0.306602)
(5.35499 2.40365e-05 0.306536)
(5.35487 2.03349e-05 0.306557)
(5.35488 2.75587e-05 0.306549)
(5.35495 2.06916e-05 0.306515)
(5.35479 -1.32193e-05 0.306575)
(4.69693 4.42281e-05 1.31826)
(4.69726 3.8223e-05 1.31819)
(4.69715 1.26221e-05 1.31821)
(4.69716 1.52873e-05 1.3182)
(4.69723 -9.20122e-06 1.31817)
(4.69705 -2.78279e-05 1.31822)
(3.00293 3.88642e-05 1.91078)
(3.00331 3.51526e-05 1.91082)
(3.00321 -2.22843e-06 1.9108)
(3.00321 1.0842e-05 1.9108)
(3.0033 -2.12489e-05 1.91079)
(3.00304 -3.27454e-05 1.91076)
(0.758535 -6.17877e-05 0.78132)
(0.758909 -6.34132e-05 0.781366)
(0.758826 -3.10858e-06 0.781357)
(0.75882 -1.66496e-05 0.781353)
(0.758914 3.27672e-05 0.781381)
(0.758612 4.87945e-05 0.781293)
(0.542718 9.04922e-06 -2.80135)
(0.542721 -0.00015864 -2.8014)
(0.542741 2.06926e-05 -2.80143)
(0.542687 -5.62054e-05 -2.80145)
(0.542666 0.000171289 -2.80141)
(0.542802 1.0127e-05 -2.80135)
(1.95557 -1.86407e-05 -2.40424)
(1.95547 -0.000161648 -2.40426)
(1.95546 4.07333e-05 -2.40433)
(1.9554 -3.78031e-05 -2.4043)
(1.95539 0.000170542 -2.40421)
(1.95563 2.41224e-05 -2.4042)
(3.44938 -2.55796e-05 -1.67739)
(3.44922 -0.000136546 -1.67735)
(3.44919 2.83038e-05 -1.67743)
(3.44913 -4.57266e-05 -1.6774)
(3.44914 0.00012372 -1.67727)
(3.44939 2.9567e-05 -1.67735)
(5.47495 -5.53922e-05 -1.28857)
(5.47477 -0.000135522 -1.28849)
(5.47473 3.44587e-05 -1.2886)
(5.4747 -3.10637e-05 -1.28855)
(5.47472 0.000142964 -1.28839)
(5.47497 7.2286e-05 -1.28855)
(7.90943 -7.98927e-05 -1.32108)
(7.90922 -0.000150317 -1.32095)
(7.90919 1.8458e-05 -1.32109)
(7.90916 -3.84095e-05 -1.32105)
(7.90916 0.000144028 -1.32086)
(7.90944 9.55657e-05 -1.32105)
(11.2195 -9.85416e-05 -1.49578)
(11.2192 -0.000162277 -1.49565)
(11.2192 7.79513e-06 -1.49581)
(11.2192 -3.98016e-05 -1.49578)
(11.2192 0.000141611 -1.49558)
(11.2195 0.000101055 -1.49576)
(13.2672 -8.59775e-05 -1.39099)
(13.2668 -0.000153388 -1.39092)
(13.2667 -1.94157e-05 -1.39107)
(13.2667 -6.99443e-05 -1.39106)
(13.2667 0.000122095 -1.39089)
(13.2672 9.80463e-05 -1.39098)
(18.5393 7.14664e-05 0.182634)
(18.5392 -1.20363e-06 0.182655)
(18.5391 1.62848e-05 0.182591)
(18.5391 -8.02288e-05 0.182595)
(18.5391 5.17199e-05 0.182678)
(18.5394 3.05553e-05 0.182658)
(10.8794 0.000158295 2.31125)
(10.8798 0.000136069 2.31155)
(10.8796 6.11696e-05 2.31143)
(10.8796 3.50951e-06 2.31144)
(10.8797 -1.78731e-05 2.31152)
(10.8795 -5.97151e-05 2.31143)
(5.44458 6.16466e-05 3.19747)
(5.4451 4.89484e-05 3.19757)
(5.44491 3.6828e-05 3.19753)
(5.4449 1.62946e-05 3.19753)
(5.44498 -1.69919e-05 3.19756)
(5.44486 -4.77097e-05 3.19751)
(3.45367 0.000146087 3.62997)
(3.45442 0.000122958 3.63027)
(3.45415 -6.62393e-06 3.63014)
(3.45415 3.24894e-05 3.63015)
(3.45431 -4.92018e-05 3.63023)
(3.4539 -9.30625e-05 3.63005)
(0.681003 -0.000100571 2.37944)
(0.681546 -7.80418e-05 2.37968)
(0.681384 2.4161e-05 2.37961)
(0.681379 -3.60994e-05 2.37961)
(0.681486 7.41098e-05 2.37966)
(0.681131 0.000101885 2.37952)
(-0.306979 -6.23345e-05 -3.12428)
(-0.306981 -1.93047e-05 -3.12466)
(-0.306984 1.47334e-06 -3.12466)
(-0.306988 2.33847e-05 -3.12464)
(-0.306984 7.13645e-06 -3.12463)
(-0.307005 4.95917e-05 -3.1243)
(-1.00818 -5.16359e-05 -3.05276)
(-1.00825 9.77496e-06 -3.05314)
(-1.00828 -1.60335e-05 -3.05309)
(-1.00828 2.17777e-05 -3.05307)
(-1.00824 -1.53147e-05 -3.05312)
(-1.00824 4.58406e-05 -3.0527)
(-1.69914 -1.71522e-05 -3.03889)
(-1.69907 4.22908e-05 -3.03932)
(-1.69909 1.23206e-05 -3.03926)
(-1.69908 1.71032e-05 -3.03926)
(-1.69902 -6.12009e-06 -3.03933)
(-1.69918 4.34154e-05 -3.03886)
(-1.72841 -4.45001e-05 -3.94404)
(-1.72819 -3.36531e-06 -3.94456)
(-1.72819 -9.17375e-06 -3.94451)
(-1.72818 -2.63059e-05 -3.94452)
(-1.72811 5.66469e-06 -3.94463)
(-1.72836 6.03184e-05 -3.94401)
(-2.09456 -8.03025e-05 -4.75532)
(-2.09436 -5.5102e-05 -4.75585)
(-2.09436 -3.82429e-05 -4.75581)
(-2.09437 -5.47708e-05 -4.75583)
(-2.09433 1.2639e-05 -4.75593)
(-2.09449 7.5352e-05 -4.75532)
(-2.43785 -9.06837e-05 -5.69974)
(-2.43777 -7.20755e-05 -5.70025)
(-2.43775 -2.63517e-05 -5.70023)
(-2.43775 -4.21689e-05 -5.70026)
(-2.43773 2.78323e-05 -5.70033)
(-2.43775 7.70047e-05 -5.69978)
(-2.55955 -9.9173e-05 -5.31573)
(-2.55967 -8.27163e-05 -5.31613)
(-2.55965 9.22106e-06 -5.31623)
(-2.55965 -2.65128e-05 -5.31633)
(-2.55962 9.7384e-05 -5.31639)
(-2.55948 0.000149269 -5.31583)
(0.938255 -8.73468e-06 1.1532)
(0.93761 4.02502e-05 1.15288)
(0.937643 7.149e-05 1.15286)
(0.937834 3.78649e-05 1.15284)
(0.937662 6.12543e-05 1.15261)
(0.938826 7.64085e-06 1.15347)
(8.97608 0.000115076 10.3693)
(8.97654 9.06851e-05 10.3695)
(8.97634 9.53497e-05 10.3694)
(8.97636 9.16388e-05 10.3693)
(8.97659 -0.000103327 10.3694)
(8.97631 -0.000222032 10.3695)
(7.12594 0.000178681 10.0088)
(7.12674 0.000157211 10.0102)
(7.12644 8.36458e-05 10.0098)
(7.12641 9.48672e-05 10.0097)
(7.12647 2.2799e-05 10.01)
(7.1265 -8.8563e-05 10.0093)
(3.39019 0.000181937 5.41233)
(3.39102 0.000154219 5.41315)
(3.39074 -5.0065e-06 5.41286)
(3.39058 1.85771e-05 5.41279)
(3.39064 -2.89364e-05 5.4129)
(3.39066 -6.94564e-05 5.41267)
(0.519091 -4.39219e-05 2.75172)
(0.51946 -5.88598e-06 2.75191)
(0.51937 2.21311e-05 2.75188)
(0.519314 6.91043e-05 2.75187)
(0.519315 -3.44445e-05 2.75187)
(0.519209 -0.000126442 2.75185)
(-0.000244498 -9.71845e-07 -0.000236522)
(-0.000243728 -2.5403e-06 -0.000237032)
(-0.000243131 -3.15917e-06 -0.000237142)
(-0.000242697 -3.12467e-06 -0.000237187)
(-0.000242214 -2.62369e-06 -0.000237263)
(-0.000241198 -1.08996e-06 -0.000237252)
(-0.000723346 -1.2883e-06 -0.000210207)
(-0.000721632 -3.1511e-06 -0.000210892)
(-0.000720233 -3.56413e-06 -0.000211205)
(-0.000719165 -3.43522e-06 -0.000211538)
(-0.00071797 -2.98327e-06 -0.000212021)
(-0.000715281 -1.3631e-06 -0.000212573)
(-0.00113849 -9.33878e-07 -0.000123834)
(-0.00113579 -2.65572e-06 -0.000122062)
(-0.00113296 -3.40091e-06 -0.000121148)
(-0.00113043 -3.34584e-06 -0.000120794)
(-0.00112771 -2.87974e-06 -0.000120639)
(-0.00112256 -1.33113e-06 -0.000120227)
(-0.00138606 -8.97913e-07 8.8598e-05)
(-0.00137869 -4.0881e-06 9.45925e-05)
(-0.00137092 -6.85322e-06 9.76887e-05)
(-0.00136361 -7.33316e-06 9.9331e-05)
(-0.00135636 -7.00261e-06 0.000100114)
(-0.00134566 -3.45631e-06 0.000100379)
(-0.00141776 -5.60248e-06 0.000763544)
(-0.0013974 -1.58804e-05 0.000772666)
(-0.00137946 -2.17842e-05 0.00077659)
(-0.00136313 -2.23759e-05 0.00077769)
(-0.00134751 -2.05202e-05 0.000776394)
(-0.00132663 -9.78122e-06 0.000772478)
(-0.00138906 -2.00918e-05 0.00257118)
(-0.00134236 -4.50489e-05 0.00256611)
(-0.00130959 -5.11354e-05 0.00255855)
(-0.001284 -4.94755e-05 0.00254903)
(-0.00126089 -4.20959e-05 0.00253657)
(-0.00122758 -1.89316e-05 0.00251949)
(-0.00167718 -4.45361e-05 0.00642766)
(-0.00159381 -8.55038e-05 0.0063694)
(-0.00155329 -7.69917e-05 0.00632979)
(-0.00153263 -6.27253e-05 0.00629598)
(-0.00151851 -4.41249e-05 0.00626461)
(-0.00148628 -1.75354e-05 0.00623293)
(-0.00278243 -5.80289e-05 0.0133448)
(-0.00267308 -8.59298e-05 0.0132041)
(-0.00265319 -3.69606e-05 0.0131341)
(-0.0026713 8.02221e-07 0.0130915)
(-0.00270229 2.90142e-05 0.013068)
(-0.00271495 1.9088e-05 0.0130623)
(-0.00361749 -2.60609e-05 0.0242389)
(-0.00352505 1.67601e-05 0.024065)
(-0.00356568 0.000119877 0.0240166)
(-0.00366876 0.000175496 0.0240258)
(-0.00379681 0.000194403 0.0240737)
(-0.00392418 9.60623e-05 0.0241618)
(-0.00979312 5.10224e-05 0.0375118)
(-0.00979114 0.000199336 0.0374039)
(-0.00989004 0.000347084 0.0374163)
(-0.0100475 0.00040956 0.0374838)
(-0.0102418 0.000397051 0.0375956)
(-0.0104757 0.000186556 0.0377554)
(-0.00369898 0.000135994 0.0420304)
(-0.00377219 0.000307638 0.0420986)
(-0.00384367 0.000359608 0.0421464)
(-0.00394013 0.000365143 0.0422042)
(-0.00409079 0.000325544 0.0422959)
(-0.00434684 0.000148901 0.0424376)
(-0.00582856 3.84022e-05 0.0606329)
(-0.00586916 2.65607e-05 0.0607234)
(-0.00587851 -4.31362e-05 0.0607247)
(-0.00588783 -7.66427e-05 0.0607057)
(-0.00593449 -8.25617e-05 0.060713)
(-0.0060565 -3.71449e-05 0.0607531)
(-0.000426989 -1.13255e-06 -0.000918188)
(-0.000425878 -2.51307e-06 -0.000919164)
(-0.000425217 -2.81108e-06 -0.000919146)
(-0.000424729 -2.65925e-06 -0.000918993)
(-0.000424259 -2.15802e-06 -0.000918896)
(-0.000423401 -8.21704e-07 -0.000918401)
(-0.00131813 -1.4117e-06 -0.000908167)
(-0.00131511 -2.83274e-06 -0.000909304)
(-0.00131304 -2.81729e-06 -0.000909562)
(-0.00131136 -2.64808e-06 -0.000909846)
(-0.00130976 -2.05465e-06 -0.000910433)
(-0.00130705 -8.05599e-07 -0.000910908)
(-0.00232536 -2.04645e-06 -0.000842101)
(-0.00231994 -4.07986e-06 -0.000838322)
(-0.00231546 -4.28322e-06 -0.000835933)
(-0.00231146 -4.1927e-06 -0.000834476)
(-0.0023077 -3.35484e-06 -0.000833528)
(-0.00230231 -1.41596e-06 -0.000831952)
(-0.00373092 -4.73635e-06 -0.000857519)
(-0.003719 -1.00638e-05 -0.000845795)
(-0.00370893 -1.12627e-05 -0.000838831)
(-0.00369986 -1.11915e-05 -0.000834214)
(-0.00369143 -9.36775e-06 -0.000831617)
(-0.00368068 -4.11705e-06 -0.000830423)
(-0.00614315 -1.28799e-05 -0.00134792)
(-0.00611205 -2.64655e-05 -0.00133294)
(-0.00608928 -2.78424e-05 -0.00132445)
(-0.00607083 -2.65928e-05 -0.00131983)
(-0.00605444 -2.17093e-05 -0.00132041)
(-0.00603394 -9.38416e-06 -0.00132791)
(-0.0102017 -3.03125e-05 -0.00334422)
(-0.0101252 -5.7284e-05 -0.0033594)
(-0.010082 -5.09971e-05 -0.0033682)
(-0.0100538 -4.20832e-05 -0.00337839)
(-0.010032 -2.97842e-05 -0.00339558)
(-0.0100023 -1.17558e-05 -0.00342586)
(-0.0162479 -5.04157e-05 -0.00803521)
(-0.0160979 -7.92203e-05 -0.00814836)
(-0.0160439 -4.36392e-05 -0.00820787)
(-0.0160295 -1.56275e-05 -0.00825166)
(-0.0160316 5.97385e-06 -0.00829305)
(-0.0160257 6.70805e-06 -0.00833831)
(-0.0237679 -3.94499e-05 -0.0171231)
(-0.0235604 -1.46472e-05 -0.017367)
(-0.0235357 8.1639e-05 -0.0174668)
(-0.0235896 0.000134367 -0.0175116)
(-0.0236767 0.000153048 -0.0175244)
(-0.0237687 7.54141e-05 -0.0175008)
(-0.0309376 5.15786e-05 -0.0243236)
(-0.0307343 0.000189349 -0.0246176)
(-0.0307728 0.000318982 -0.0246674)
(-0.0309287 0.000369015 -0.0246009)
(-0.0311475 0.00034471 -0.0244507)
(-0.0314062 0.000156855 -0.0242175)
(-0.0254932 0.000125432 -0.0547129)
(-0.0253979 0.000293778 -0.0548388)
(-0.0255197 0.000352314 -0.0547422)
(-0.0257607 0.000348833 -0.0545502)
(-0.0260889 0.000279368 -0.0542761)
(-0.0264928 0.000114186 -0.0538975)
(-0.0298254 4.82931e-05 -0.040804)
(-0.0300227 4.94097e-05 -0.0404658)
(-0.0302919 -2.92327e-05 -0.0402219)
(-0.0306147 -8.50726e-05 -0.0399986)
(-0.0310165 -0.000127 -0.0397363)
(-0.0314746 -7.26354e-05 -0.0394104)
(0.00210224 -0.000100197 -0.102807)
(0.00190589 -0.000310074 -0.102529)
(0.00173533 -0.000469136 -0.102446)
(0.00156785 -0.000506223 -0.102416)
(0.00136607 -0.000454339 -0.102386)
(0.00113532 -0.000209547 -0.10223)
(-0.000557549 -8.13499e-07 -0.00193169)
(-0.000556913 -1.67644e-06 -0.00193288)
(-0.00055671 -1.64959e-06 -0.00193264)
(-0.000556636 -1.33164e-06 -0.00193229)
(-0.000556715 -8.64163e-07 -0.00193199)
(-0.000556769 -2.17377e-07 -0.00193084)
(-0.00170919 -1.03548e-06 -0.00198604)
(-0.00170762 -1.74933e-06 -0.00198702)
(-0.00170683 -1.32386e-06 -0.00198684)
(-0.00170636 -1.03319e-06 -0.00198672)
(-0.00170633 -4.44505e-07 -0.00198691)
(-0.00170619 -2.37878e-08 -0.00198654)
(-0.00287751 -1.75029e-06 -0.00196856)
(-0.00287498 -2.95343e-06 -0.00196471)
(-0.00287304 -2.49766e-06 -0.0019618)
(-0.00287159 -2.30861e-06 -0.00195972)
(-0.00287087 -1.50967e-06 -0.00195835)
(-0.00286996 -4.95638e-07 -0.00195623)
(-0.00373723 -4.33731e-06 -0.00188186)
(-0.00373152 -7.81925e-06 -0.00187164)
(-0.00372773 -6.99971e-06 -0.00186483)
(-0.00372519 -6.30902e-06 -0.00186017)
(-0.00372389 -4.38538e-06 -0.00185801)
(-0.0037218 -1.58462e-06 -0.00185783)
(-0.00346301 -9.21112e-06 -0.00147244)
(-0.00344811 -1.45468e-05 -0.0014677)
(-0.00344357 -9.18407e-06 -0.00146464)
(-0.00344299 -5.42438e-06 -0.00146428)
(-0.00344464 -1.10661e-06 -0.00146948)
(-0.00344368 5.00884e-07 -0.00148239)
(-0.00123952 -6.87467e-06 -9.44514e-06)
(-0.00119811 5.68327e-07 -5.72981e-05)
(-0.00119156 2.02756e-05 -8.5079e-05)
(-0.00119867 2.99385e-05 -0.000109057)
(-0.00121111 3.37223e-05 -0.000137896)
(-0.00122122 1.66864e-05 -0.000175529)
(0.00388835 1.8343e-05 0.00394539)
(0.00397541 6.68926e-05 0.00377719)
(0.00397497 0.000110495 0.00369247)
(0.00393905 0.000125984 0.00363688)
(0.00388765 0.000116068 0.00359573)
(0.0038273 5.21816e-05 0.00357079)
(0.00677048 8.6766e-05 0.0122106)
(0.00690435 0.000218705 0.0119245)
(0.00687399 0.000279502 0.0118151)
(0.00676042 0.000281381 0.0117811)
(0.00659576 0.000227866 0.011807)
(0.00639386 9.42845e-05 0.0119092)
(0.0285756 0.000129571 0.0330179)
(0.0286461 0.000309727 0.0327916)
(0.0285379 0.000388576 0.0327895)
(0.0283361 0.000401083 0.0328927)
(0.0280687 0.000315932 0.0330952)
(0.0277307 0.000123486 0.0334053)
(0.00577467 0.000120387 0.0667339)
(0.00555011 0.000214721 0.0668222)
(0.00524328 0.000157582 0.0670252)
(0.00489239 7.80821e-05 0.0672843)
(0.00450861 8.88307e-07 0.0676177)
(0.00412981 -1.33951e-05 0.0679942)
(0.0522109 6.97154e-05 0.107456)
(0.0517144 4.79088e-05 0.10792)
(0.0513195 -9.9704e-05 0.108161)
(0.0509744 -0.000179106 0.108307)
(0.0507084 -0.000215202 0.108454)
(0.0504926 -0.00011318 0.108571)
(0.0370067 -0.00018081 0.198872)
(0.0367017 -0.000449069 0.199275)
(0.0365083 -0.000563228 0.199477)
(0.0363904 -0.000600211 0.19951)
(0.0363239 -0.000384265 0.199657)
(0.0363258 -7.89051e-05 0.199516)
(-0.000654218 -6.83828e-07 -0.00318372)
(-0.000653598 -1.14633e-06 -0.00318516)
(-0.00065358 -7.4881e-07 -0.00318493)
(-0.000653742 -3.21487e-07 -0.00318469)
(-0.000654093 8.72009e-08 -0.00318454)
(-0.000654417 2.09786e-07 -0.00318308)
(-0.00207146 -8.5937e-07 -0.00338987)
(-0.00206977 -1.08101e-06 -0.00339087)
(-0.00206947 -2.68163e-07 -0.00339056)
(-0.00206971 1.20366e-07 -0.00339041)
(-0.00207045 6.38799e-07 -0.00339056)
(-0.00207111 4.63432e-07 -0.00338959)
(-0.00388803 -1.58383e-06 -0.00367455)
(-0.00388533 -2.16598e-06 -0.003672)
(-0.00388455 -1.10075e-06 -0.00366971)
(-0.00388461 -8.26838e-07 -0.00366816)
(-0.00388549 -2.12121e-07 -0.00366727)
(-0.00388605 8.07727e-08 -0.00366539)
(-0.00675823 -2.98091e-06 -0.00423132)
(-0.00675373 -4.16584e-06 -0.00422515)
(-0.00675249 -2.36222e-06 -0.00422096)
(-0.00675283 -1.83669e-06 -0.00421847)
(-0.0067542 -5.07798e-07 -0.00421821)
(-0.00675431 1.20142e-07 -0.0042191)
(-0.012035 -3.10725e-06 -0.005428)
(-0.0120248 -2.17255e-06 -0.00543168)
(-0.0120224 3.04071e-06 -0.00543497)
(-0.0120243 5.45506e-06 -0.00544042)
(-0.0120275 7.67456e-06 -0.00545028)
(-0.0120279 4.26028e-06 -0.00546419)
(-0.0212362 3.49891e-06 -0.00791735)
(-0.0212145 1.52745e-05 -0.0079757)
(-0.0212138 2.87485e-05 -0.00801395)
(-0.0212237 3.51361e-05 -0.00804856)
(-0.0212381 3.47353e-05 -0.00808413)
(-0.0212525 1.64385e-05 -0.00811729)
(-0.0352936 2.90038e-05 -0.0120637)
(-0.0352606 7.21097e-05 -0.0122278)
(-0.0352704 9.46612e-05 -0.0123165)
(-0.0353028 0.000101004 -0.01238)
(-0.0353524 8.87082e-05 -0.0124218)
(-0.0354188 3.90197e-05 -0.0124296)
(-0.0557375 6.06866e-05 -0.0235849)
(-0.0557417 0.000130109 -0.023826)
(-0.0557897 0.00014149 -0.0239212)
(-0.0558654 0.000133779 -0.0239564)
(-0.0559766 0.000103587 -0.0239288)
(-0.0561245 4.14515e-05 -0.0238162)
(-0.0860459 7.54656e-05 -0.0288597)
(-0.0861837 0.000115621 -0.02898)
(-0.0863008 4.86407e-05 -0.0289499)
(-0.0864178 -6.07076e-06 -0.0288596)
(-0.0865774 -5.78493e-05 -0.0287005)
(-0.0867622 -4.36694e-05 -0.0284581)
(-0.0968227 -2.05234e-05 -0.0884737)
(-0.0971512 -0.000129319 -0.0883113)
(-0.097326 -0.000278492 -0.0881008)
(-0.0974227 -0.000336211 -0.0878646)
(-0.0975259 -0.000338741 -0.087629)
(-0.0975604 -0.000173131 -0.087356)
(-0.167949 -0.000196529 -0.0752)
(-0.168362 -0.000456703 -0.0748129)
(-0.168442 -0.000560035 -0.0746272)
(-0.168271 -0.000531546 -0.0745595)
(-0.168229 -0.000436497 -0.0744514)
(-0.167766 -0.000205613 -0.0744969)
(0.010719 -0.000175008 -0.463919)
(0.0105194 -0.000272173 -0.46375)
(0.010567 -0.00035173 -0.463843)
(0.0107644 -0.000155612 -0.463956)
(0.0110823 -0.000247604 -0.464826)
(0.0111437 -0.000353751 -0.463934)
(0.155347 1.8217e-05 -2.41885)
(0.15535 2.63693e-05 -2.41922)
(0.155347 -7.47635e-06 -2.41917)
(0.155355 -7.36586e-06 -2.41915)
(0.155361 -3.32775e-05 -2.41921)
(0.155325 -1.80854e-05 -2.41886)
(0.06123 2.90817e-05 -2.81325)
(0.0612256 2.34972e-05 -2.8135)
(0.0612244 -5.82523e-06 -2.81346)
(0.061226 -3.01463e-06 -2.81346)
(0.0612258 -2.69687e-05 -2.81351)
(0.0612204 -2.94112e-05 -2.81324)
(0.0301213 1.84061e-05 -2.80767)
(0.0301209 1.65873e-05 -2.80782)
(0.0301218 -3.24828e-06 -2.80781)
(0.0301213 -1.819e-06 -2.80781)
(0.0301202 -2.05851e-05 -2.80783)
(0.0301213 -2.00135e-05 -2.80767)
(0.233101 3.28577e-05 -2.41348)
(0.233131 1.86088e-05 -2.41384)
(0.233136 -9.51192e-06 -2.41377)
(0.233132 -1.11479e-05 -2.41377)
(0.233133 -2.08901e-05 -2.41383)
(0.233102 -3.30271e-05 -2.41341)
(0.0206667 2.51638e-05 -2.98959)
(0.0206728 2.11398e-05 -2.98985)
(0.0206717 -8.4178e-06 -2.98982)
(0.0206733 -4.55351e-06 -2.98981)
(0.020675 -3.48725e-05 -2.98985)
(0.0206567 -3.46328e-05 -2.98955)
(0.0590555 1.87509e-05 -2.91108)
(0.0590517 1.81633e-05 -2.91123)
(0.0590532 -2.29372e-06 -2.91121)
(0.0590537 -3.03828e-06 -2.9112)
(0.0590537 -2.4597e-05 -2.91122)
(0.059058 -2.25068e-05 -2.91106)
(0.720332 3.45118e-05 -1.99431)
(0.720407 1.65746e-05 -1.99468)
(0.7204 -8.5387e-06 -1.99462)
(0.720391 -5.95256e-07 -1.99462)
(0.720398 -2.52447e-05 -1.9947)
(0.72032 -4.57152e-05 -1.99424)
(0.20642 2.6027e-05 -3.03528)
(0.206424 2.77869e-05 -3.03553)
(0.206425 -3.02906e-06 -3.0355)
(0.206429 3.78288e-06 -3.03549)
(0.206436 -3.40569e-05 -3.03553)
(0.206428 -3.72546e-05 -3.03525)
(0.0977263 1.87077e-05 -2.83816)
(0.0977233 1.80089e-05 -2.8383)
(0.0977251 -6.19099e-07 -2.83828)
(0.0977261 -2.46791e-06 -2.83828)
(0.0977265 -2.08756e-05 -2.8383)
(0.0977318 -2.01074e-05 -2.83815)
(1.1217 4.06819e-05 -2.48981)
(1.12177 2.93773e-05 -2.49023)
(1.12175 -5.90715e-06 -2.49017)
(1.12175 7.38669e-06 -2.49019)
(1.12175 -4.01537e-05 -2.4903)
(1.12167 -6.71701e-05 -2.48982)
(0.242397 3.57159e-05 -3.4395)
(0.242375 4.20192e-05 -3.43979)
(0.242384 5.60652e-06 -3.43974)
(0.242389 1.5664e-05 -3.43974)
(0.242392 -3.15472e-05 -3.43979)
(0.242421 -4.13198e-05 -3.43952)
(0.100162 2.12031e-05 -3.08878)
(0.100161 1.89936e-05 -3.08893)
(0.100161 -1.38132e-06 -3.08891)
(0.100159 -7.2811e-07 -3.08891)
(0.100159 -1.91772e-05 -3.08894)
(0.100159 -2.03455e-05 -3.08881)
(1.18042 3.88008e-05 -2.64625)
(1.18048 3.05757e-05 -2.64668)
(1.18045 -4.99579e-06 -2.64663)
(1.18043 7.8032e-06 -2.64665)
(1.18043 -3.86788e-05 -2.64677)
(1.18034 -6.58938e-05 -2.64632)
(0.124129 3.3445e-05 -3.55769)
(0.124095 4.00634e-05 -3.55798)
(0.124106 5.12708e-06 -3.55793)
(0.124113 1.40364e-05 -3.55793)
(0.124108 -2.98629e-05 -3.55799)
(0.124161 -3.90855e-05 -3.55772)
(0.058658 2.07584e-05 -3.1694)
(0.0586576 1.68337e-05 -3.16955)
(0.0586533 -3.6095e-06 -3.16954)
(0.0586501 -5.6675e-07 -3.16955)
(0.0586489 -1.93523e-05 -3.16958)
(0.0586453 -2.18087e-05 -3.16944)
(1.06045 3.26871e-05 -3.17722)
(1.0605 2.41015e-05 -3.17758)
(1.06048 -5.95633e-06 -3.17754)
(1.06048 4.46005e-06 -3.17755)
(1.06049 -1.40808e-05 -3.17762)
(1.06042 -3.73238e-05 -3.17731)
(-0.0395014 2.30383e-05 -3.71036)
(-0.0395504 2.22909e-05 -3.71062)
(-0.0395315 -3.35613e-06 -3.71058)
(-0.0395243 8.13296e-06 -3.71057)
(-0.0395338 -1.31879e-05 -3.7106)
(-0.0394723 -1.76453e-05 -3.71036)
(0.0184265 1.9121e-05 -3.39313)
(0.0184293 1.33304e-05 -3.39329)
(0.0184246 -7.61045e-06 -3.39329)
(0.0184196 -4.90775e-06 -3.39329)
(0.0184184 -2.1556e-05 -3.39331)
(0.018405 -2.15071e-05 -3.39314)
(0.123143 -1.67266e-06 -4.38376)
(0.123174 5.00628e-06 -4.38403)
(0.123118 1.30911e-05 -4.38408)
(0.123026 -1.16345e-05 -4.38417)
(0.123028 2.10692e-05 -4.38427)
(0.123033 3.61821e-05 -4.38383)
(-0.216228 1.13759e-05 -3.36785)
(-0.216254 1.14919e-05 -3.36804)
(-0.216235 -1.2523e-07 -3.36802)
(-0.216228 9.56531e-06 -3.36801)
(-0.216231 -2.00952e-05 -3.36803)
(-0.216247 -3.03357e-05 -3.3678)
(-0.0484237 1.32212e-05 -3.55418)
(-0.0484205 1.03202e-05 -3.55433)
(-0.0484221 -1.00691e-05 -3.55432)
(-0.04843 -1.25713e-05 -3.55431)
(-0.0484244 -3.10183e-05 -3.55433)
(-0.0484315 -2.63545e-05 -3.55413)
(-1.81157 -2.30343e-05 -5.76509)
(-1.8117 4.37851e-05 -5.76542)
(-1.81179 6.79274e-05 -5.76541)
(-1.812 0.000102892 -5.76536)
(-1.81225 -0.00011312 -5.76567)
(-1.81162 -0.000195068 -5.76483)
(-0.886471 2.27351e-05 -3.42503)
(-0.886556 -1.1097e-05 -3.42535)
(-0.886634 -4.92561e-05 -3.42533)
(-0.886754 -3.43919e-05 -3.42534)
(-0.886825 -7.7839e-05 -3.42549)
(-0.886804 -5.95368e-05 -3.4251)
(0.328795 1.52035e-05 -3.4545)
(0.328821 1.86404e-05 -3.45458)
(0.328819 -1.59828e-05 -3.45458)
(0.328812 -3.43658e-06 -3.45459)
(0.328826 -1.50238e-05 -3.45468)
(0.328763 -2.87866e-05 -3.45443)
(4.0248 5.26873e-06 3.99902)
(4.02459 0.000158777 3.99864)
(4.02481 0.00022996 3.99889)
(4.02508 0.000261006 3.99942)
(4.02565 -5.52853e-05 3.99999)
(4.0244 -0.000301354 3.99875)
(-2.08643 4.90797e-05 -2.68935)
(-2.08668 -2.86378e-05 -2.68985)
(-2.08667 -8.55348e-05 -2.68951)
(-2.08677 -0.000119428 -2.68913)
(-2.0867 -2.04703e-05 -2.68903)
(-2.08693 9.32497e-05 -2.68941)
(-0.165571 -9.04996e-06 -3.76382)
(-0.165609 -3.38143e-05 -3.76384)
(-0.165631 -6.91846e-05 -3.7639)
(-0.165703 -7.98763e-05 -3.76393)
(-0.165724 -3.04533e-05 -3.76406)
(-0.165572 1.45605e-06 -3.76362)
(8.19938 0.000104263 11.9245)
(8.19978 0.00015901 11.9259)
(8.19967 0.000110359 11.9256)
(8.1999 5.58473e-05 11.9257)
(8.20027 7.6862e-05 11.9262)
(8.19896 -5.56906e-05 11.925)
(6.26771 -1.63395e-05 8.83645)
(6.26779 8.40825e-05 8.83745)
(6.2677 0.00015183 8.83754)
(6.26775 -4.88703e-06 8.83788)
(6.26797 8.29871e-05 8.83794)
(6.26692 4.20472e-05 8.83767)
(3.00914 -5.96475e-05 1.97603)
(3.00871 -2.71999e-05 1.97628)
(3.00904 -0.000197991 1.97673)
(3.0094 -0.000169462 1.9773)
(3.00979 -1.64976e-05 1.97669)
(3.00856 -0.000111973 1.97777)
(5.04079 0.000180997 8.34987)
(5.04171 0.000191555 8.35148)
(5.04143 7.76611e-05 8.351)
(5.04162 0.000103302 8.35083)
(5.04258 -8.8583e-05 8.35091)
(5.04021 -0.000215494 8.35081)
(5.83541 0.000172582 11.0045)
(5.83711 5.67198e-05 11.0066)
(5.83646 -0.000366504 11.0062)
(5.83356 -0.000395075 11.0059)
(5.83088 -8.17923e-05 11.0056)
(5.83527 -6.89924e-05 11.0068)
(7.44719 -2.87515e-05 8.67984)
(7.44781 1.94995e-05 8.68123)
(7.44728 0.0002103 8.68122)
(7.44536 0.00100629 8.68225)
(7.44434 -0.00124867 8.68464)
(7.44467 -0.00220605 8.67943)
(2.85588 5.40187e-05 4.47849)
(2.85631 6.46541e-05 4.47921)
(2.85631 7.15343e-05 4.47901)
(2.85645 5.91301e-05 4.47892)
(2.85681 -6.80907e-06 4.47925)
(2.85593 -3.87293e-05 4.47866)
(4.67708 0.00020388 5.5312)
(4.67786 0.000162572 5.53264)
(4.67766 -0.000234612 5.53224)
(4.67827 -0.000615193 5.53249)
(4.67947 0.000476337 5.53306)
(4.67652 0.000829498 5.53121)
(7.71101 -6.07219e-05 4.14334)
(7.71016 -0.000474665 4.14762)
(7.70929 -0.00132667 4.14773)
(7.71626 -0.00132056 4.13885)
(7.72648 -0.0014601 4.13122)
(7.70484 -0.00112684 4.14671)
(2.45414 0.000308686 3.09555)
(2.45562 0.000642725 3.09952)
(2.45551 0.0003205 3.10064)
(2.45565 0.000235546 3.09155)
(2.46853 -0.00287137 3.08177)
(2.44215 -0.00268223 3.11749)
(-3.0327 0.000963754 0.871977)
(-3.02968 0.000184604 0.874961)
(-3.03249 -0.000120597 0.870106)
(-3.02668 0.00949124 0.878464)
(-3.02037 -0.01232 0.901741)
(-3.04248 -0.020653 0.846743)
(-5.42928 -0.00153252 -1.45359)
(-5.43086 -0.00358924 -1.44977)
(-5.4346 0.00116222 -1.45538)
(-5.41311 -0.0155223 -1.43893)
(-5.45871 0.0271466 -1.39946)
(-5.36343 0.0461985 -1.50279)
(3.19091 0.000785782 -2.18212)
(3.19492 0.00141001 -2.17141)
(3.19532 -0.00131774 -2.16425)
(3.19117 -0.0144687 -2.19586)
(3.16498 0.0194533 -2.2622)
(3.24416 0.033902 -2.06899)
(-5.04572 0.00146387 -0.186386)
(-5.05893 0.000253167 -0.194827)
(-5.05676 -0.00335112 -0.187727)
(-5.03302 -0.00152879 -0.200514)
(-4.98363 0.0113069 -0.317672)
(-5.13052 0.0122375 0.0308023)
(2.88171 0.00168823 14.3247)
(2.88807 0.0021504 14.339)
(2.87893 -0.00440238 14.335)
(2.90556 0.00769081 14.3195)
(3.02018 -0.0223859 14.3848)
(2.72418 -0.0347891 14.2125)
(1.44338 -0.000672738 -4.93526)
(1.43789 -7.17836e-05 -4.94061)
(1.43665 0.000769543 -4.9385)
(1.44921 -0.000436862 -4.93764)
(1.4653 0.0027713 -4.92559)
(1.42266 0.00371457 -4.96582)
(3.65199 1.06149e-05 0.337775)
(3.64947 0.000339012 0.337331)
(3.64897 -0.000655601 0.338604)
(3.65939 -0.00035759 0.336797)
(3.67804 0.000406618 0.34631)
(3.63273 -0.000126615 0.317313)
(7.19108 0.00177689 9.42857)
(7.19497 0.00190793 9.43728)
(7.1925 -0.00379898 9.43568)
(7.19814 0.00345751 9.42349)
(7.24196 -0.0134095 9.39121)
(7.13718 -0.021226 9.49046)
(0.188604 -0.000703481 -2.49089)
(0.189652 -0.000251109 -2.49044)
(0.189794 7.99743e-05 -2.49031)
(0.189759 0.00253195 -2.49721)
(0.18404 -0.00235933 -2.50736)
(0.198522 -0.00530347 -2.48442)
(5.17112 0.000420361 2.03402)
(5.17095 0.00070774 2.03374)
(5.17085 -0.00231957 2.03307)
(5.17271 -0.00372177 2.03712)
(5.17942 0.00293101 2.04574)
(5.16593 0.00397097 2.02721)
(9.0733 0.00111027 2.85351)
(9.07218 0.000816793 2.87362)
(9.06968 -0.00348594 2.88233)
(9.07784 -0.00645847 2.80841)
(9.11156 0.00349775 2.68967)
(9.02578 0.00651518 2.96218)
(0.567397 0.000140038 0.37405)
(0.56658 0.000297279 0.373154)
(0.566472 7.7856e-05 0.373191)
(0.568201 -0.000314728 0.375626)
(0.572777 0.0012148 0.382261)
(0.562557 0.00147628 0.366885)
(4.99462 0.000105362 2.58735)