/*--------------------------------*- C++ -*----------------------------------*\
| =========                 |                                                 |
| \\      /  F ield         | OpenFOAM: The Open Source CFD Toolbox           |
|  \\    /   O peration     | Version:  v1612+                                |
|   \\  /    A nd           | Web:      www.OpenFOAM.com                      |
|    \\/     M anipulation  |                                                 |
\*---------------------------------------------------------------------------*/
FoamFile
{
    version     2.0;
    format      ascii;
    class       volScalarField;
    location    "7.4";
    object      alpha.water;
}
// * * * * * * * * * * * * * * * * * * * * * * * * * * * * * * * * * * * * * //

dimensions      [0 0 0 0 0 0 0];

internalField   nonuniform List<scalar> 
1116
(
0.691892
0.691892
0.691892
0.691892
0.691893
0.691893
0.921101
0.921235
0.921154
0.92114
0.921186
0.921134
0.974271
0.974271
0.974271
0.974271
0.974271
0.974271
0.974271
0.974271
0.974271
0.974271
0.974271
0.974271
0.974271
0.974271
0.974271
0.974271
0.974271
0.974271
0.916352
0.91619
0.916216
0.916379
0.91627
0.916276
0.847164
0.84837
0.848369
0.847147
0.846027
0.849129
0.804193
0.805183
0.805319
0.803971
0.803236
0.805732
0.785432
0.785116
0.785492
0.785129
0.785466
0.784846
0.781689
0.780224
0.780722
0.78141
0.782552
0.779647
0.780824
0.779912
0.779947
0.780987
0.781706
0.780585
0.780032
0.779026
0.779071
0.780137
0.780962
0.779702
0.757192
0.757084
0.757129
0.757189
0.757171
0.757177
0.921309
0.921356
0.921336
0.921304
0.921307
0.921301
0.86361
0.863579
0.863611
0.863569
0.863519
0.863638
0.783542
0.783344
0.783401
0.783476
0.783538
0.783354
0.559653
0.558721
0.558838
0.559383
0.559633
0.558994
0.306696
0.310358
0.310062
0.307364
0.305995
0.310357
0.145997
0.147638
0.147647
0.146631
0.147075
0.147525
0.0999765
0.100308
0.100261
0.0996835
0.09947
0.0996546
0.118868
0.119122
0.119258
0.118481
0.118018
0.118756
0.118944
0.117212
0.11781
0.118554
0.119188
0.116472
0.112021
0.113833
0.113689
0.111928
0.110074
0.114994
0.198499
0.199644
0.20072
0.198248
0.198659
0.20158
0.759611
0.759611
0.75959
0.759567
0.759565
0.759562
0.577469
0.578032
0.577708
0.577837
0.577981
0.57738
0.348827
0.349028
0.348581
0.349173
0.349703
0.348028
0.172678
0.173449
0.173396
0.172852
0.172391
0.173752
0.0749561
0.0699732
0.0698886
0.0743745
0.0771135
0.0681995
0.0203262
0.0231027
0.0228256
0.0206596
0.0205882
0.0217677
0.00243499
0.00334976
0.00329457
0.00247126
0.00230186
0.00304523
0.0108667
0.00845051
0.00857475
0.0110923
0.0127232
0.00615223
0.0165299
0.0160458
0.0158593
0.0169294
0.0173139
0.0156004
0.0187424
0.0188358
0.0185591
0.0189751
0.0186304
0.0188841
0.025127
0.0244878
0.0244602
0.0249883
0.025007
0.023817
0.0340058
0.0351195
0.0346165
0.0337575
0.0317962
0.0343901
0.740611
0.738626
0.739365
0.740038
0.739786
0.740033
0.0876719
0.0885604
0.0883416
0.0881822
0.087874
0.0878359
2.92411e-05
2.61979e-05
2.61975e-05
2.90975e-05
3.47065e-05
2.51332e-05
6.87253e-05
4.21737e-05
4.38388e-05
6.95946e-05
7.55521e-05
4.15104e-05
9.25601e-05
7.589e-05
7.70035e-05
9.30831e-05
0.000155869
6.69644e-05
0.000668664
9.30831e-05
9.30831e-05
0.000557224
0.00114006
7.60412e-05
0.00186557
0.00204624
0.00205373
0.0019212
0.00173449
0.00189455
4.88644e-06
0.000338242
0.000335561
4.81441e-06
5.41083e-06
0.000856542
4.1531e-06
4.35075e-06
4.42876e-06
4.27026e-06
4.22034e-06
5.07076e-06
1.40883e-06
1.46162e-06
1.51239e-06
1.4497e-06
1.43607e-06
1.63051e-06
0.0034386
0.0032783
0.00340914
0.00351143
0.00368155
0.00347053
0.0198142
0.018388
0.0188489
0.0200799
0.0212185
0.0186224
0.0921823
0.0921852
0.0921869
0.0921858
0.0921833
0.092184
0.0921796
0.0921814
0.09219
0.0921842
0.0921813
0.0921122
0.089016
0.061759
0.0708042
0.0821544
0.0921711
0.0921359
0.038235
0.0695462
0.0702385
0.0683567
0.0745463
0.0920928
0.0617975
0.0658614
0.0621099
0.0394623
0.0542863
0.0400428
0.0636406
0.0558024
0.0322656
0.00400307
0.0465895
0.0108384
0.0639133
0.060879
0.0324633
0.0151397
0.039033
0.0603059
0.0645659
0.0647896
0.0633528
0.0594407
0.0410755
0.0602533
0.0649958
0.0658643
0.0718331
0.0643992
0.0511281
0.0601977
0.0525908
0.0544204
0.0721038
0.0580791
0.0523327
0.0601803
0.0414787
0.0476395
0.0721484
0.066563
0.0614986
0.0596705
0.0442802
0.0483819
0.069676
0.069248
0.0686103
0.059614
0.0921795
0.082335
0.0921852
0.0921824
0.0921914
0.0921818
0.0921676
0.0555592
0.0764863
0.0734282
0.0649832
0.0921789
0.0174183
0.0108864
0.00768058
0.00849939
0.0172567
0.0278374
0.00334492
0.00215391
0.00243061
0.00249375
0.00461224
0.00492571
0.000141758
2.75506e-07
2.28839e-05
0.000705591
0.00266529
0.00436367
2.61318e-08
8.26686e-09
0.000347474
0.00146755
0.00223258
0.00491057
3.12648e-09
2.59676e-09
0.000717701
0.00197734
0.00137141
0.00171739
5.22056e-09
1.67279e-08
0.000422308
8.17461e-09
6.6504e-09
8.90412e-09
5.18258e-09
6.07701e-09
5.74335e-08
7.33708e-09
8.90347e-09
1.57748e-08
5.63663e-09
0.000554753
7.54123e-07
2.2765e-07
2.11084e-07
1.20932e-07
0.000521169
0.00228195
0.000526705
6.53272e-06
1.30566e-05
2.04413e-06
0.0144348
0.00175741
0.00108368
0.0200194
0.0271965
0.0104736
0.0921757
0.0921727
0.0921789
0.0921762
0.0905537
0.0921791
0.0921719
0.0257077
0.0509197
0.0384788
0.0332903
0.0921753
0.0132664
8.67577e-05
7.64588e-06
2.37909e-06
0.0029197
0.0269838
1.12852e-06
2.72346e-07
1.84906e-07
9.19461e-08
1.38916e-06
8.58778e-06
2.59267e-08
8.13188e-09
5.55116e-09
2.80662e-09
3.62772e-08
6.1058e-07
1.78029e-09
1.68431e-09
1.25666e-09
4.71147e-10
2.80971e-09
8.7366e-06
2.59694e-09
2.21833e-09
1.98373e-09
1.51687e-09
1.33735e-09
4.01381e-10
2.01237e-08
1.62206e-07
2.21804e-09
7.2475e-09
4.13014e-09
1.72137e-08
5.08986e-09
5.17679e-09
4.45917e-09
7.75288e-09
2.43565e-08
3.34716e-07
5.18189e-09
8.37441e-09
1.7811e-07
9.28584e-06
0.000204547
2.50761e-05
3.11217e-08
1.07836e-05
0.000788029
0.00209789
0.00167492
7.35555e-05
2.2389e-05
0.00720483
0.0122349
0.00345266
0.000710449
0.000430597
0.0921719
0.0921697
0.0921727
0.0422113
0.0615291
0.0921749
0.0787557
0.0346633
0.0395767
0.0154224
0.0182114
0.0528043
0.0106334
1.75751e-05
1.43114e-05
6.54904e-06
2.4536e-06
0.00136019
3.1141e-06
3.49016e-07
2.8236e-07
6.04447e-08
1.12502e-08
-1.53105e-08
1.44372e-08
3.13878e-09
3.36649e-09
4.67691e-10
1.32607e-11
5.17378e-10
2.089e-11
5.87669e-10
2.97423e-11
1.99797e-12
2.34584e-08
9.40254e-08
8.91412e-09
3.29871e-09
1.13799e-09
1.15381e-08
4.80809e-08
6.18741e-11
1.78552e-08
4.00855e-07
2.29435e-07
7.30904e-09
5.39915e-10
3.7375e-10
5.0589e-09
7.29871e-07
4.76002e-06
9.05097e-08
2.24612e-08
1.62355e-06
1.15559e-08
1.53561e-08
7.1738e-06
2.31552e-06
1.0838e-06
9.87221e-06
1.52872e-08
3.1077e-06
3.62213e-06
0.0045277
0.00359174
4.72236e-06
0.0142205
0.0152348
0.0153411
0.0153697
0.0132656
0.0138106
0.164282
0.157897
0.160324
0.162204
0.161283
0.16257
0.000257658
0.000249493
0.000257658
0.000256
0.000251018
0.000264067
0.000280836
0.000249493
0.000269984
0.000253812
0.000251023
0.000285523
0.00721013
0.00645166
0.00702656
0.00682285
0.00629949
0.00746683
0.00140855
0.000930874
0.000985226
0.00123005
0.001305
0.00105556
0.000257575
0.000249493
0.000257575
0.000256
0.000251018
0.0002597
2.61738e-05
2.62022e-05
2.61738e-05
2.56819e-05
2.51332e-05
2.51332e-05
0.000162461
2.62022e-05
2.62022e-05
8.5399e-05
9.17689e-05
2.51332e-05
0.000557531
0.000357375
0.000302014
0.00050239
0.000589857
0.00029918
7.9832e-05
2.62022e-05
2.62022e-05
7.41737e-05
0.000234742
2.52696e-05
0.000529845
0.000419818
0.000326328
0.000627311
0.000635003
0.000416437
0.000665968
0.000665968
0.000663892
0.000657599
0.000653209
0.000649528
0.00113675
0.000480953
0.000573638
0.00115417
0.0014749
0.00058526
0.00113333
0.00107203
0.00111647
0.00114745
0.00116115
0.00114021
0.000456271
0.000505083
0.000479376
0.000332298
0.00025324
0.000513612
0.00139601
0.00132943
0.00135432
0.00147147
0.00145681
0.00106586
0.000124653
4.57232e-05
0.000144811
2.18546e-05
7.0078e-14
0.000149944
1.99048e-25
1.84468e-25
1.75542e-25
3.47771e-25
5.49881e-25
1.74168e-25
0.000364852
0.000307855
0.000300422
0.000234501
0.000131092
0.000287273
4.1833e-12
4.21949e-12
4.17069e-12
4.27161e-12
4.33693e-12
4.05402e-12
2.68126e-18
2.34969e-18
2.55282e-18
1.58125e-18
-3.7125e-19
1.94231e-18
6.21904e-08
6.86283e-08
6.37694e-08
5.78571e-08
6.97321e-08
1.00453e-07
3.31973e-10
3.40635e-10
3.39022e-10
3.41641e-10
3.43625e-10
3.38268e-10
-3.44115e-14
-5.79747e-14
-8.8675e-15
-2.74178e-13
-9.40049e-14
8.45564e-18
1.07716e-07
1.14801e-07
1.174e-07
1.12234e-07
1.09744e-07
1.35213e-07
1.89994e-08
2.11287e-08
2.14803e-08
1.9426e-08
1.8097e-08
2.43648e-08
8.3164e-08
8.44393e-08
8.40658e-08
8.60862e-08
8.67685e-08
8.36869e-08
1.08199e-08
1.21192e-08
1.2299e-08
1.10579e-08
1.02715e-08
1.38757e-08
6.12516e-10
6.42461e-10
6.36908e-10
6.03045e-10
6.41393e-10
5.79877e-10
2.8366e-07
2.83678e-07
2.83694e-07
2.83727e-07
2.83762e-07
2.83762e-07
-4.45349e-09
-4.53374e-09
-4.84143e-09
-4.39687e-09
-3.89991e-09
-5.20927e-09
6.8086e-12
6.97518e-12
7.02044e-12
6.94212e-12
6.83572e-12
7.40032e-12
2.55278e-08
2.57787e-08
2.56315e-08
2.5785e-08
2.50776e-08
2.65927e-08
0.00548266
0.00545325
0.00550718
0.00555756
0.00566538
0.00550316
1.46324e-14
1.47019e-14
1.44035e-14
1.53684e-14
1.52603e-14
1.4887e-14
-1.49374e-17
-2.20161e-17
-2.96158e-17
-1.69454e-17
4.77496e-18
1.37644e-18
0.0455342
0.0452577
0.0451228
0.0448093
0.0449467
0.0454035
1.28641e-27
7.00761e-28
2.04473e-28
8.10819e-28
2.24971e-27
9.4108e-28
1.44641e-12
7.57071e-13
2.17187e-13
8.68541e-13
2.44275e-12
1.05999e-12
0.0468944
0.0473583
0.0478695
0.0478378
0.047573
0.0477593
-3.2973e-16
-2.55697e-16
-2.36739e-16
-5.89976e-17
-1.37867e-15
-1.2143e-16
-8.98158e-27
-7.53716e-27
-1.05478e-26
-7.82199e-27
-1.25197e-26
-5.64833e-27
0.0496555
0.04968
0.0497272
0.0497715
0.0497745
0.0497648
-1.09219e-15
-9.20467e-16
-1.45754e-15
-2.62931e-16
-9.68546e-15
-6.1209e-16
-1.24321e-26
-1.18297e-26
-1.28102e-26
-1.14814e-26
-2.08316e-26
-7.6147e-27
0.0493969
0.0493228
0.0492917
0.049363
0.0494818
0.0494712
-7.65183e-16
-6.24095e-16
-1.07177e-15
-1.06446e-16
-6.769e-15
-3.66141e-16
-1.10107e-26
-1.27744e-26
-1.39677e-26
-1.32748e-26
-1.45804e-26
-1.01068e-26
0.049125
0.0490485
0.0490164
0.0490766
0.0491884
0.0491862
-4.31804e-16
-3.50702e-16
-6.21643e-16
-4.83778e-17
-3.80828e-15
-1.996e-16
-7.8777e-27
-9.20579e-27
-1.00625e-26
-9.7509e-27
-1.07115e-26
-7.55219e-27
0.0446622
0.04462
0.0446098
0.0445888
0.044608
0.0446228
1.13697e-27
1.14707e-27
1.12485e-27
1.1915e-27
1.17938e-27
1.16524e-27
1.09233e-17
1.08695e-17
1.08855e-17
1.10051e-17
1.10298e-17
1.0995e-17
0.0921645
0.0921605
0.0921697
0.0726592
0.0582378
0.0921617
0.0667894
0.0191281
0.0757837
0.0742554
0.00718392
0.0444172
0.0114678
3.1059e-300
0.0136178
0.0167655
1.31302e-18
0.00615961
0.0267311
0.0309822
0.0216455
0.0105645
0.0105859
0.00638738
1.35968e-08
0.0199987
8.48103e-08
0.00094531
0.00616757
2.04155e-08
-9.20234e-15
0.00237995
-1.88163e-15
2.34454e-08
0.000633101
1.11554e-20
0.000199631
5.63071e-06
3.21114e-06
5.10674e-07
1.21673e-08
1.32447e-10
7.29322e-08
4.51927e-08
6.46169e-06
1.15091e-10
4.10212e-05
7.53439e-06
3.64134e-14
-2.20232e-14
2.58483e-08
-2.65313e-16
4.68437e-07
1.17868e-06
6.43757e-08
4.08725e-08
4.43741e-09
-2.40466e-09
-3.12416e-10
-1.06878e-12
-2.81449e-11
-2.31299e-11
1.73617e-09
-9.66874e-13
-7.50664e-12
-2.73929e-18
-5.42039e-16
-8.60534e-17
6.39583e-10
-1.27005e-15
4.05687e-25
7.84574e-22
2.06629e-11
-3.77249e-10
-5.84572e-11
-7.17262e-12
-9.2729e-14
3.15014e-11
-2.85171e-12
2.91449e-12
1.69586e-12
8.8086e-14
-7.00745e-15
4.89167e-11
8.15619e-15
4.03537e-14
1.76208e-13
-1.25521e-15
2.12491e-15
7.52216e-12
1.56317e-11
3.81498e-10
-7.5072e-12
-3.79679e-13
4.65433e-15
7.21807e-10
1.14691e-11
1.37668e-12
1.88725e-13
2.03512e-14
1.72518e-14
1.76344e-14
3.58828e-13
3.0046e-13
7.25217e-14
4.85328e-14
5.06332e-14
1.44476e-14
3.18635e-09
8.0677e-10
3.02085e-11
3.74698e-11
7.43644e-11
2.53056e-12
4.40606e-10
6.11936e-10
2.31552e-12
2.40537e-13
7.82132e-13
1.71963e-12
4.74625e-12
6.20964e-11
2.54809e-11
6.68524e-12
3.83663e-13
8.87652e-14
2.01918e-09
6.17474e-09
2.70358e-09
2.69903e-10
5.90214e-11
2.69292e-11
1.782e-09
1.05281e-08
7.54711e-09
4.93817e-09
9.03113e-11
2.09122e-12
1.36465e-10
3.2123e-09
3.89652e-09
9.69836e-10
1.17067e-11
1.25198e-10
5.22844e-09
1.55134e-07
1.55979e-07
3.82691e-08
4.52279e-10
4.13082e-08
4.51156e-08
4.27462e-07
2.97223e-07
7.95257e-08
2.92432e-09
9.03056e-08
4.70764e-09
3.63519e-08
2.26042e-08
6.53262e-09
1.83639e-10
4.13025e-09
1.4023e-08
1.14385e-06
9.37818e-07
2.93274e-07
3.16666e-08
7.95485e-07
6.60703e-06
5.6311e-06
2.10909e-06
7.49894e-07
2.49361e-08
1.16671e-06
2.04475e-08
1.40077e-08
-1.9761e-15
-1.7148e-14
-5.73356e-16
-1.40116e-14
2.94336e-08
4.35709e-07
1.43041e-08
2.65614e-09
7.95608e-10
6.21485e-09
9.66632e-06
7.51874e-07
2.54491e-08
4.14332e-14
-3.97097e-13
-5.63426e-13
-1.87527e-15
-3.3371e-15
-1.34637e-15
-1.11756e-16
-2.59639e-18
-4.01723e-15
0.0172585
0.0149635
0.0122726
0.0115952
0.012792
0.0151216
1.3094e-14
6.56727e-15
1.91885e-15
5.97541e-16
1.16227e-17
2.58856e-16
-3.96613e-16
-1.55904e-16
1.06231e-20
1.56075e-20
6.25087e-22
7.99929e-21
)
;

boundaryField
{
    seabed_topleft_surface
    {
        type            zeroGradient;
    }
    seabed_topright_surface
    {
        type            zeroGradient;
    }
    breakwater_top_surface
    {
        type            zeroGradient;
    }
    breakwater_left_surface
    {
        type            zeroGradient;
    }
    breakwater_right_surface
    {
        type            zeroGradient;
    }
    water_front_surface
    {
        type            zeroGradient;
    }
    water_back_surface
    {
        type            zeroGradient;
    }
    water_left_surface
    {
        type            zeroGradient;
    }
    water_right_surface
    {
        type            zeroGradient;
    }
    water_top_surface
    {
        type            inletOutlet;
        inletValue      uniform 0;
        value           nonuniform List<scalar> 
180
(
0.000280836
0.000249493
0.000269984
0.000253812
0.000251023
0.000285523
0.000257575
0.000249493
0.000257575
0.000256
0.000251018
0.0002597
0.000557531
0.000357375
0.000302014
0.00050239
0.000589857
0.00029918
0.000665968
0.000665968
0.000663892
0.000657599
0.000653209
0.000649528
0
0
0
0
0
0
0
0
0
0
0
0
0
0
0
0
0
0
0
0
0
0
0
0
8.3164e-08
8.44393e-08
8.40658e-08
8.60862e-08
8.67685e-08
8.36869e-08
0
0
0
0
0
0
0
0
0
0
0
0
0
0
0
0
0
0
0
0
0
0
0
0
0
0
0
0
0
0
0
0
0
0
0
0
0
0
0
0
0
0
0
0
0
0
0
0
0
0
0
0
0
0
0.0114678
0
0.0136178
0.0167655
0
0.00615961
0
0.00237995
0
2.34454e-08
0.000633101
0
3.64134e-14
0
0
0
4.68437e-07
1.17868e-06
0
0
0
0
0
0
8.15619e-15
4.03537e-14
1.76208e-13
-1.25521e-15
2.12491e-15
7.52216e-12
3.58828e-13
3.0046e-13
7.25217e-14
4.85328e-14
0
0
4.74625e-12
6.20964e-11
2.54809e-11
6.68524e-12
3.83663e-13
8.87652e-14
1.36465e-10
3.2123e-09
3.89652e-09
9.69836e-10
1.17067e-11
1.25198e-10
4.70764e-09
3.63519e-08
2.26042e-08
6.53262e-09
1.83639e-10
4.13025e-09
0
0
0
0
0
0
0
0
0
0
0
0
0
0
0
0
0
0
)
;
    }
}


// ************************************************************************* //
