/*--------------------------------*- C++ -*----------------------------------*\
| =========                 |                                                 |
| \\      /  F ield         | OpenFOAM: The Open Source CFD Toolbox           |
|  \\    /   O peration     | Version:  v1612+                                |
|   \\  /    A nd           | Web:      www.OpenFOAM.com                      |
|    \\/     M anipulation  |                                                 |
\*---------------------------------------------------------------------------*/
FoamFile
{
    version     2.0;
    format      ascii;
    class       surfaceScalarField;
    location    "5.85";
    object      alphaPhi;
}
// * * * * * * * * * * * * * * * * * * * * * * * * * * * * * * * * * * * * * //

dimensions      [0 3 -1 0 0 0 0];

internalField   nonuniform List<scalar> 
2916
(
2.60765e-05
-0.333939
0.340416
8.66019e-06
-0.333973
0.340431
7.14134e-06
-0.333948
0.340423
-1.02474e-06
-0.333943
0.340428
-1.21824e-05
-0.333952
0.340432
-0.333945
0.340415
-5.18566e-05
-1.51959
0.303469
1.47028e-05
-1.51973
0.303344
1.66059e-05
-1.51965
0.303401
-6.5033e-06
-1.51963
0.303421
1.22721e-05
-1.51967
0.303385
-1.51962
0.303426
-3.46013e-05
-1.6139
0.0943935
1.03437e-05
-1.61403
0.0943098
1.00385e-05
-1.61394
0.0943436
-6.28051e-06
-1.61393
0.0943655
1.8396e-06
-1.61397
0.0943431
-1.61394
0.0943698
-1.83812e-05
-1.60277
-0.0110585
7.88097e-06
-1.60296
-0.0110488
6.17328e-06
-1.60284
-0.0110506
-3.1131e-06
-1.60283
-0.0110401
-1.00166e-05
-1.60287
-0.0110387
-1.60284
-0.0110625
-1.13667e-05
-1.51036
-0.0923836
8.02086e-06
-1.51064
-0.0923207
1.65286e-05
-1.51049
-0.0923413
6.70559e-06
-1.51048
-0.0923217
-2.06893e-05
-1.51053
-0.0923034
-1.51046
-0.0923855
1.2049e-05
-1.34697
-0.161016
1.98107e-05
-1.34733
-0.160931
4.12398e-05
-1.34716
-0.160969
1.57316e-05
-1.34715
-0.160918
-5.71995e-05
-1.34719
-0.160872
-1.34708
-0.161036
5.5532e-05
-1.16306
-0.156086
3.83785e-05
-1.16351
-0.155962
6.58471e-05
-1.16332
-0.156017
1.60761e-05
-1.16329
-0.155957
-8.78784e-05
-1.16338
-0.155873
-1.16319
-0.156111
0.000214695
-0.989072
-0.134588
1.12032e-05
-0.989304
-0.134462
-2.96215e-05
-0.989221
-0.134506
-3.55004e-05
-0.989235
-0.134448
0.000145174
-0.989682
-0.1343
-0.988824
-0.134643
0.000566389
-0.805945
-0.145932
-7.77849e-05
-0.804861
-0.146101
-0.000397836
-0.805201
-0.145995
-0.000163337
-0.805869
-0.145855
0.00090108
-0.807762
-0.145268
-0.803638
-0.146551
0.000801266
-0.598458
-0.171371
-7.46546e-05
-0.595631
-0.171497
-0.000802015
-0.596206
-0.171406
-4.27511e-05
-0.598374
-0.171355
0.00153536
-0.601711
-0.170776
-0.593053
-0.172153
0.000517883
-0.230956
-0.332038
2.23314e-05
-0.227775
-0.331381
-0.000675156
-0.228253
-0.33129
4.69095e-05
-0.230953
-0.332171
0.000602851
-0.233665
-0.33279
-0.225597
-0.330776
-0.000862243
-0.192734
0.000304602
-0.191309
0.00132174
-0.191608
0.000267245
-0.192579
-0.00246929
-0.193867
-0.190305
0.000151636
-1.08073
0.613505
1.12395e-05
-1.08091
0.61318
-1.20148e-05
-1.0808
0.613312
-3.43042e-06
-1.08081
0.613342
-8.09858e-05
-1.08089
0.613298
-1.08079
0.613385
0.000109291
-1.96917
0.455129
1.97707e-06
-1.96937
0.455277
-9.54395e-06
-1.96927
0.455215
1.01902e-05
-1.96929
0.455201
-7.57704e-05
-1.96933
0.455263
-1.9692
0.455138
0.000141005
-1.82517
-0.0339094
-2.05739e-06
-1.82547
-0.0337892
-1.06641e-05
-1.82532
-0.0338435
6.62767e-06
-1.82533
-0.033853
-9.70808e-05
-1.82541
-0.0338061
-1.82524
-0.0338883
3.6155e-05
-1.38604
-0.123907
-1.5161e-05
-1.38637
-0.123855
1.30682e-06
-1.38624
-0.123882
6.58538e-06
-1.38622
-0.123878
-4.29938e-05
-1.38629
-0.123857
-1.38612
-0.123906
-4.92376e-05
-0.780331
-0.167426
-2.51857e-05
-0.780702
-0.167418
-7.2135e-06
-0.780573
-0.167427
1.39264e-05
-0.780494
-0.167419
8.25197e-05
-0.78059
-0.167412
-0.780409
-0.167427
-0.000121586
-0.253525
-0.0249024
-2.46988e-05
-0.253882
-0.0248661
-2.80833e-06
-0.253754
-0.0248818
2.56724e-05
-0.253674
-0.0248919
0.000176891
-0.253814
-0.0248737
-0.253581
-0.0248958
-4.27132e-05
0.025144
-0.0017361
-4.0982e-05
0.0248906
-0.00173171
-8.03885e-05
0.0249822
-0.00173324
1.30205e-05
0.0250307
-0.00173539
0.000253508
0.0249113
-0.00173281
0.0251195
-0.00173512
7.55804e-05
0.187383
-0.000183042
-6.54093e-05
0.187543
-0.000182986
-0.000185219
0.187482
-0.000183028
1.33582e-06
0.187322
-0.000183295
0.000452881
0.186828
-0.000182729
0.187987
-0.000183178
-0.000265269
0.230018
-0.000272297
2.65211e-05
0.229424
-0.000291556
0.000239227
0.229743
-0.000283659
6.5084e-05
0.229785
-0.000277536
-0.00047349
0.230549
-0.000269648
0.229311
-0.000287919
-0.000731427
0.159621
-0.000307733
0.000135178
0.155408
-0.000314914
0.00103652
0.156551
-0.00030785
1.99525e-05
0.159283
-0.000314283
-0.00238905
0.164185
-0.000298046
0.15201
-0.000317535
-0.00206071
-0.0305648
0.00238095
0.000500941
-0.0347467
0.002123
0.00242095
-0.0339234
0.0021888
0.000387395
-0.0307112
0.00236085
-0.00473428
-0.0273247
0.00265394
-0.0371146
0.00194514
0.000246646
-0.0222416
-2.75391e-05
-0.024531
-0.000308465
-0.0240564
0.00045294
-0.0226925
0.0010776
-0.0216938
-0.0254823
-0.000137388
-0.739701
0.535113
-1.97069e-05
-0.739481
0.53401
3.75095e-05
-0.739574
0.534482
2.678e-05
-0.739584
0.534569
3.19499e-05
-0.739555
0.534335
-0.739637
0.534757
-0.000153467
-0.373645
0.0112685
-3.84716e-05
-0.373639
0.011317
2.67043e-05
-0.373648
0.011299
6.61078e-06
-0.37364
0.0112846
6.94341e-05
-0.373669
0.0113049
-0.373635
0.011285
-0.000107819
-0.113127
-1.54772e-05
-1.07457e-05
-0.113178
-1.55977e-05
1.46665e-05
-0.113157
-1.55345e-05
-2.13266e-06
-0.113139
-1.55015e-05
5.29889e-05
-0.11317
-1.55166e-05
-0.113126
-1.54357e-05
-5.6437e-05
-0.0127279
-1.22321e-06
-1.88541e-06
-0.0127811
-1.21118e-06
1.11432e-05
-0.0127589
-1.22619e-06
1.43748e-06
-0.0127371
-1.20731e-06
3.56768e-05
-0.0127583
-1.18881e-06
-0.0127363
-1.18549e-06
-2.70898e-05
0.0268303
-2.32492e-06
2.3604e-06
0.0267887
-2.3065e-06
1.19805e-05
0.0268064
-2.32637e-06
3.65645e-06
0.0268189
-2.31412e-06
1.73424e-05
0.0267992
-2.31894e-06
0.0268212
-2.26882e-06
-5.45333e-07
0.00193363
-4.40084e-06
8.34733e-08
0.00192713
-4.38768e-06
4.35232e-07
0.00192938
-4.38311e-06
1.27254e-07
0.00193248
-4.41511e-06
9.13914e-07
0.00192995
-4.47248e-06
0.00193141
-4.35808e-06
3.05813e-07
0.000212893
-1.65871e-05
-6.17914e-08
0.000212371
-1.76379e-05
-2.59791e-07
0.000212541
-1.71942e-05
-4.67225e-08
0.000212869
-1.6932e-05
2.78835e-07
0.000212493
-1.65804e-05
0.00021284
-1.73251e-05
7.18419e-08
4.51476e-05
-1.82132e-05
-1.46278e-08
4.53008e-05
-1.9056e-05
-5.69495e-08
4.52336e-05
-1.86447e-05
-9.29717e-09
4.52189e-05
-1.85786e-05
3.67333e-08
4.516e-05
-1.8296e-05
4.52871e-05
-1.88179e-05
-1.29852e-07
2.17283e-05
-0.000252404
5.31439e-08
2.19677e-05
-0.00027152
1.10994e-07
2.18493e-05
-0.000263888
1.35711e-07
2.16992e-05
-0.00025768
-1.85422e-07
2.18344e-05
-0.000249692
2.21427e-05
-0.000268055
-4.43357e-05
-0.000413576
-0.00447484
9.89798e-06
-0.00190402
-0.00463174
2.53053e-05
-0.00143169
-0.0046021
1.00203e-06
-0.000750614
-0.00451371
-8.9797e-05
0.000259694
-0.00448016
-0.00284576
-0.00452102
-0.000689105
-0.000705326
-0.000581786
0.000184288
-0.00256394
-0.000488667
0.000878453
-0.0022725
-0.00055549
0.00019677
-0.000831364
-0.000545448
-0.00136439
0.00224333
-0.000655487
-0.00372628
-0.000491481
0.000927185
-0.0344564
-0.000374313
-0.0363036
-0.0013795
-0.0357793
-0.000577513
-0.0347618
0.00282532
-0.0332892
-0.0368192
-0.000268724
-0.0106198
-9.85629e-05
-6.81453e-05
-0.0106559
-0.000133996
3.077e-05
-0.0106426
-0.000153614
6.37025e-06
-0.010631
-0.00018181
9.21289e-05
-0.0106454
-0.000159583
-0.0106303
-0.000155196
-3.36627e-06
-1.5219e-07
0.000654934
6.86651e-07
-1.55295e-07
0.000660006
1.03395e-06
-1.53868e-07
0.000658961
-1.64443e-06
-1.53066e-07
0.000659183
8.69771e-07
-1.5439e-07
0.000659892
-1.52336e-07
0.000658453
9.24838e-11
-7.7714e-08
-1.46914e-05
-8.14778e-11
-7.82074e-08
-1.48281e-05
-2.7695e-10
-7.81388e-08
-1.47473e-05
-4.72925e-11
-7.79209e-08
-1.47419e-05
-3.61623e-11
-7.81515e-08
-1.47682e-05
-7.75455e-08
-1.46878e-05
-2.58028e-10
-1.73784e-08
-4.47988e-07
1.32436e-10
-1.90042e-08
-4.47121e-07
2.6172e-10
-1.83636e-08
-4.4862e-07
5.93911e-11
-1.76816e-08
-4.49198e-07
2.23962e-10
-1.83335e-08
-4.49564e-07
-1.76006e-08
-4.47778e-07
-1.59655e-09
-1.11389e-07
-1.36846e-06
4.30249e-10
-1.186e-07
-1.36204e-06
1.4158e-09
-1.16471e-07
-1.36605e-06
2.11655e-10
-1.1259e-07
-1.38261e-06
-2.0616e-10
-1.14091e-07
-1.39761e-06
-1.14671e-07
-1.34878e-06
-1.99808e-09
-6.52258e-07
-3.02204e-06
3.96417e-10
-7.23441e-07
-2.95459e-06
1.87881e-09
-6.97249e-07
-2.96552e-06
4.20374e-10
-6.70069e-07
-3.03457e-06
-1.48343e-09
-6.58361e-07
-3.08789e-06
-7.01284e-07
-2.93685e-06
1.36153e-08
-1.30756e-05
-3.37766e-06
-2.60109e-09
-1.39406e-05
-3.61909e-06
-1.24031e-08
-1.35665e-05
-3.52183e-06
-1.3892e-09
-1.33682e-05
-3.45024e-06
1.11888e-08
-1.30824e-05
-3.36189e-06
-1.36773e-05
-3.5674e-06
3.29106e-07
-3.18964e-05
-6.06456e-07
-3.80923e-08
-3.34004e-05
-2.70768e-07
-2.92013e-07
-3.2543e-05
-3.86848e-07
-2.8496e-08
-3.2587e-05
-5.38603e-07
3.42858e-07
-3.20128e-05
-6.14374e-07
-3.2815e-05
-3.7656e-07
-1.53022e-06
-0.000649647
0.000364007
9.29434e-07
-0.000693037
0.000382975
1.75581e-06
-0.000674396
0.000374097
1.33079e-06
-0.000663649
0.000370902
-1.41855e-06
-0.000645963
0.000364144
-0.000680716
0.000375709
-7.86024e-05
-0.039184
0.00695743
4.87448e-06
-0.0411048
0.00752793
6.02645e-05
-0.0403944
0.00735457
1.42909e-05
-0.0397018
0.00708714
-5.98656e-05
-0.0389686
0.00687356
-0.0406545
0.0073929
-0.000755427
-0.0734954
-0.0205175
7.6526e-05
-0.0721757
-0.0212204
0.000629062
-0.0724741
-0.0209616
3.08631e-05
-0.0733107
-0.0207195
-0.000973751
-0.0745194
-0.0204282
-0.0714567
-0.0210751
-0.000150192
-0.0833965
4.57201e-05
-0.0843369
0.000253018
-0.0842086
1.81248e-05
-0.0836048
-0.000488786
-0.0830688
-0.0845319
-0.0298957
-0.157212
0.0467846
-0.0116865
-0.169092
0.0517252
-0.0590795
-0.129527
0.0886802
-0.0114958
-0.193621
0.146284
0.0993038
-0.238077
0.127524
-0.0502906
0.0950151
0.00883088
-0.259
0.0936811
0.027965
-0.281668
0.0941044
0.0476526
-0.25536
0.106507
0.0568129
-0.28563
0.0830956
0.0483532
-0.288168
0.0587561
-0.131616
0.0591277
0.00311702
-0.295887
0.0343872
0.00764453
-0.30904
0.0267953
0.0280636
-0.306845
0.0317315
0.0147453
-0.298425
0.0303208
-0.000882583
-0.318225
0.0303554
-0.233151
0.0338754
-0.00120308
-0.162101
0.00753239
0.00160779
-0.207434
0.00833867
-0.00139089
-0.164435
0.0080806
-0.0068781
-0.249524
0.0102927
-0.00714471
-0.407381
0.00624177
-0.207998
0.00714022
0.00184495
-0.176818
0.000977179
0.0102725
-0.281985
-0.000198236
0.00145231
-0.13053
0.00381799
0.00112612
-0.28603
-8.91621e-05
-5.89265e-05
-0.402827
-0.000848959
-0.158146
-3.43344e-05
0.0129719
-0.243118
-3.93604e-06
0.0198266
-0.298488
-6.49939e-06
0.0183285
-0.228113
-2.82144e-05
0.020701
-0.299873
-0.00035352
-0.00137742
-0.371688
-0.00527219
-0.277122
-8.37815e-06
0.015004
-0.261174
-0.000408245
0.00957905
-0.293763
-0.000501029
0.0321577
-0.259948
-9.77565e-05
0.0313875
-0.284234
-0.00299409
-0.00614206
-0.327318
-0.00423818
-0.280158
-0.000668075
-0.00154964
-0.252776
-0.00816762
0.000983833
-0.253803
-0.0091261
0.0276663
-0.238694
-0.00431583
0.0374051
-0.252893
-0.0123492
0.00387898
-0.280358
-0.0104587
-0.269835
-0.00306859
-0.0260999
-0.205256
-0.0208487
0.000397483
-0.226629
-0.0496949
0.0315733
-0.225372
-0.0348978
0.0483268
-0.211749
-0.0549346
0.00355808
-0.207778
-0.0244435
-0.248648
-0.0146671
-0.0361717
-0.0720361
-0.094308
0.00065467
-0.105958
-0.154402
0.07242
-0.13029
-0.164148
0.0704567
-0.0949143
-0.112345
-0.0216146
-0.0553946
-0.0569568
-0.0903433
-0.177839
-0.010384
0.0632128
-0.12177
0.00799459
0.0434577
-0.164689
0.0819859
0.0275097
-0.228735
0.0663654
0.0381845
-0.114831
-0.0109417
0.0701935
-0.0448031
0.0239767
-0.107233
-0.00307646
0.0459578
-0.00570435
0.0306928
0.0248116
-0.00939479
0.0299214
0.0295723
0.0105855
0.0389625
0.0210023
-0.00741772
-0.123116
0.0304808
0.00843478
-0.116609
0.0606436
0.00516035
-0.107139
0.120275
0.0168325
-0.16855
0.112225
0.0291225
-0.140055
0.10348
-0.0575426
0.133379
0.00543383
-0.0535941
0.00404208
0.0105669
-0.0461982
0.0113779
0.0178087
-0.0490513
0.0127556
0.00587687
-0.0456746
0.00566123
0.00447154
-0.0410338
0.00576091
-0.041591
0.00340474
-8.77709e-05
-0.00604499
8.49424e-10
-0.000247788
-0.00709403
-3.43071e-09
6.73442e-05
-0.00612131
-1.26333e-07
1.15281e-05
-0.00831268
7.96341e-05
-0.00111744
-0.00758073
0.000321058
-0.00617912
0.00054851
-2.37914e-05
-0.000104176
-1.30864e-07
-0.000287573
3.64489e-05
-1.7359e-07
-0.000176858
-0.00112993
-1.26518e-07
-0.000176983
7.0559e-05
-9.06562e-07
-0.000227487
6.93445e-05
-1.03552e-06
3.423e-05
-8.51016e-08
-4.58425e-08
1.38378e-06
-2.68928e-09
-0.000161767
-6.2143e-08
-3.25397e-09
-3.34833e-07
1.83122e-05
-3.51029e-10
-8.58365e-06
-1.03538e-05
-3.05145e-10
-1.7552e-10
-0.000788198
-9.35156e-11
-9.78334e-08
-2.95202e-09
-1.50547e-08
-2.52417e-06
-1.85256e-08
-4.96858e-08
-6.50461e-06
-1.28803e-08
-9.49569e-06
-4.51377e-07
-4.01358e-09
-0.000246093
-0.000127263
-1.05782e-08
-6.19082e-09
-0.00631214
-4.46756e-09
-8.45065e-06
-1.54464e-08
1.64273e-06
-0.000411834
-4.02407e-07
3.32342e-07
-0.00050325
-2.3462e-06
-2.98275e-05
-6.78946e-05
-1.27375e-07
-0.00218429
-0.000966717
2.21102e-09
-4.7078e-06
-0.0100688
-2.52544e-07
-0.000678955
-2.37256e-06
8.74934e-05
-0.00867217
2.64135e-07
-2.30415e-06
-0.00952805
-9.03954e-07
-0.000245438
-0.00413617
-9.56196e-07
-0.00175442
-0.0118038
-2.92834e-06
0.00074445
-0.0140855
-1.33326e-05
-0.0030908
-5.68997e-06
-0.000182874
-0.022183
-0.000257209
-0.000328134
-0.0321364
-0.000408301
-0.00316103
-0.0361408
-1.5524e-05
-0.00131845
-0.0466311
-0.000625088
0.00755166
-0.0521707
-0.000952361
-0.0195801
-5.82197e-06
-0.00590583
-0.105707
-0.0189463
-0.00733139
-0.122873
-0.0246325
-0.0127537
-0.0980552
-0.0250191
0.000238972
-0.110831
-0.023836
0.00689297
-0.0887779
-0.0333606
-0.141516
-0.0410632
0.00132211
-0.0210353
-0.222425
-0.000907137
-0.0301001
-0.250797
0.0124945
-0.0647646
-0.27225
0.00478576
-0.0407485
-0.149859
-0.0369959
-0.0125366
-0.0718282
-0.0505564
-0.206902
0.00896498
-0.0149221
0.0251008
-0.0463772
0.0399219
-0.171506
0.0059267
-0.0116442
-0.0138428
0.0375905
-0.102108
-0.00128503
-0.0013192
0.0998652
0.00429877
-0.00742509
0.13334
0.00299183
-0.00844361
0.148529
0.00543016
-0.00458965
0.0322807
0.0270795
-0.0050288
0.0281686
0.00523559
0.170884
0.000349426
1.12003e-08
0.00237406
0.000823187
-7.00445e-09
0.00347587
0.00119659
-3.64835e-07
0.00393853
0.000326232
-8.3142e-05
0.00199618
4.05398e-05
-0.000354715
0.00141007
-0.00048875
0.00147477
-3.16524e-10
-3.79933e-09
-2.09399e-09
-1.45423e-09
-5.21814e-09
-4.09617e-09
-5.31787e-07
-4.10707e-09
-4.7338e-09
-3.74615e-06
-2.44816e-08
-2.21086e-08
-3.73612e-05
-3.42322e-08
-6.48879e-08
-4.10751e-09
2.61249e-05
-3.75281e-12
-8.13258e-11
-1.34578e-07
2.33307e-10
-9.7226e-11
-1.78647e-07
1.83803e-10
-1.85032e-11
-1.31161e-07
4.39113e-09
-1.19915e-11
-9.35371e-07
3.76965e-09
-9.08712e-12
-1.06911e-06
-5.33555e-10
-8.09518e-08
-1.11379e-11
-2.51303e-09
-3.34039e-11
-1.42014e-12
-3.18289e-09
-1.60588e-11
7.67209e-13
-3.46076e-10
-2.48619e-11
9.16104e-13
-2.18132e-10
-5.60059e-12
1.80577e-12
-5.80287e-11
-7.86234e-12
1.39881e-09
-1.44373e-11
-5.60147e-10
-2.58991e-08
-5.59041e-10
-1.07985e-10
-1.59715e-08
-3.76899e-10
-2.29987e-11
-3.81461e-09
-4.36904e-10
-1.90728e-11
-1.05354e-08
-1.09449e-10
-8.88685e-11
-4.4111e-09
-3.99239e-11
3.68518e-08
-5.16134e-10
-1.75986e-08
-8.75365e-07
2.07757e-10
-2.45e-10
-2.36587e-06
-2.09749e-08
-1.47439e-09
-1.27749e-07
-1.37863e-09
-1.00678e-09
-7.98989e-09
-8.69671e-10
-1.43723e-07
-1.13282e-07
-1.07324e-09
-2.44756e-06
-4.26195e-08
1.21439e-06
-2.06911e-06
6.73505e-08
1.75727e-07
-2.21631e-06
8.46218e-08
8.41084e-08
-9.81932e-07
1.64612e-08
-5.02557e-08
-2.8021e-06
-1.8303e-09
-5.1744e-06
-8.29183e-06
-3.4753e-08
-1.39897e-05
1.76775e-07
1.90001e-06
-0.000262028
7.85446e-07
-3.47492e-06
-0.000405189
-7.38384e-09
-2.98967e-06
-1.82071e-05
1.25327e-06
-5.10403e-06
-0.000621654
-4.03728e-06
3.06278e-06
-0.000955497
-1.31091e-05
-1.6919e-05
3.64552e-07
1.17953e-05
-0.0186905
-0.000508714
-0.000121633
-0.0243338
-0.000546263
-0.000489975
-0.0242849
-0.000339327
-0.000247374
-0.0232818
-0.00140951
0.000125674
-0.0324016
-0.0022776
-0.0407004
-0.000220775
0.00287077
-0.149335
-0.0551378
0.000999123
-0.146774
-0.0474399
-0.0103161
-0.123757
-0.0403637
-0.00263081
-0.0728426
-0.0887026
0.00734924
-0.0169158
-0.0962058
-0.12349
-0.0729308
0.0308853
-0.16334
0.0469688
-0.177432
-0.0083606
-0.207966
-0.00237265
-0.155513
0.00328537
0.00393698
-0.189523
-0.00401999
-0.00155668
0.16995
-0.00926207
-0.00287273
0.176758
-0.0155738
-0.00300678
0.185603
-7.58706e-05
-0.00163363
0.08661
0.0229441
-0.00132342
0.0678763
0.000172339
0.206678
3.60632e-05
-3.21494e-07
0.000781641
4.98232e-05
-4.30119e-07
0.0005898
4.03092e-05
-1.41867e-07
0.000941398
-6.31755e-06
-1.36939e-06
0.000410528
-0.000185802
-2.17296e-06
0.000268241
-2.61181e-05
0.00148994
-6.80406e-10
-2.46097e-07
-7.65882e-08
-3.73799e-09
-3.20012e-07
-1.11802e-07
-8.5661e-09
-1.84986e-07
-1.20283e-07
-4.03503e-08
-1.49754e-06
-2.1272e-08
-6.95e-07
-1.58002e-06
-1.27804e-08
-4.20937e-07
-2.0553e-08
-3.14782e-09
-8.51055e-10
-4.12029e-07
-2.80452e-09
-3.1994e-10
-5.64718e-07
-6.08005e-08
-6.56878e-10
-2.87453e-07
-9.6908e-08
-1.28459e-10
-3.56402e-06
-2.07243e-08
-1.20847e-10
-7.48207e-06
-1.93305e-10
-4.64003e-07
-4.8152e-13
-7.91679e-10
-1.8409e-11
-4.30892e-13
-8.1955e-11
-3.61129e-11
-2.36844e-13
-5.61222e-10
-2.46214e-11
-3.89297e-13
-8.42683e-11
-1.12766e-11
5.99601e-15
-2.04514e-11
-1.48018e-11
-1.64917e-10
-2.2375e-11
-1.95446e-12
-1.57536e-09
-7.05899e-10
2.50204e-12
1.95025e-10
-5.40235e-10
2.93259e-11
-1.00757e-09
-6.2456e-10
2.46309e-13
-4.00406e-11
-4.27764e-10
-1.35232e-11
-9.31102e-12
-7.19775e-11
9.61658e-11
-4.12868e-10
-3.45754e-11
-2.17501e-08
-1.06092e-09
3.90132e-10
-3.85508e-08
-4.95641e-10
1.16969e-09
-3.51273e-09
-4.64716e-10
1.06945e-11
-2.14213e-11
-1.47984e-10
-1.02272e-09
-1.69489e-11
-5.07208e-11
-4.75573e-08
-7.40195e-10
1.14291e-08
3.49961e-08
-2.25229e-12
3.05159e-08
2.53461e-08
3.85811e-11
2.60282e-08
1.79718e-08
1.26102e-11
3.94104e-10
2.38386e-08
-5.24944e-12
-9.82187e-08
6.385e-08
-2.19358e-12
4.19638e-08
-2.6726e-10
7.74042e-10
8.19185e-07
5.08218e-10
6.13005e-11
1.88189e-08
-7.83791e-13
6.83512e-08
1.20263e-06
2.98502e-11
4.4603e-07
-4.39085e-06
-3.01544e-11
5.27611e-08
-1.26513e-05
-3.55941e-10
8.47974e-07
1.2486e-10
-2.10226e-06
-0.000501239
-4.64144e-06
-1.67162e-06
-0.000538821
-7.85385e-06
-1.44164e-05
-0.000319517
-5.81673e-06
1.32077e-05
-0.0014091
-2.75472e-05
1.90907e-05
-0.0022362
-5.00955e-05
-0.000194616
-6.16643e-06
-5.3676e-05
-0.0429631
-0.00284354
-0.000390612
-0.0411263
-0.00197393
-0.00416142
-0.0359777
-0.00117535
-0.0088533
-0.0518412
-0.00903668
0.00673515
-0.0927479
-0.014688
-0.0636512
-0.00270531
-0.00561608
-0.111978
-0.0198732
-0.111046
-0.0502244
-0.111721
-0.0469851
-0.145838
0.0346661
-0.0976025
-0.139493
-4.10228e-05
0.000844829
-0.000849205
-5.8633e-06
0.00085465
-0.000849975
1.04929e-05
0.000854139
-0.000851773
-7.44346e-07
0.000853746
-0.000852105
9.47242e-06
0.000854273
-0.000851195
0.000852023
-0.000851132
-3.56392e-06
0.00105288
-0.000104559
-5.09168e-07
0.00104812
-0.000104976
2.90115e-07
0.00105031
-0.000104949
-2.63045e-07
0.00105117
-0.000104875
9.28475e-07
0.00104978
-0.000104888
0.00105148
-0.000104816
-4.20267e-07
1.84872e-05
-7.11577e-08
1.85598e-05
-4.77414e-08
1.8466e-05
-5.15204e-08
1.84623e-05
1.2113e-07
1.84866e-05
1.84132e-05
-1.06401e-07
8.39941e-06
-0.000123702
-5.10105e-08
8.7342e-06
-0.000122931
-3.90592e-08
8.53222e-06
-0.000122708
-3.08286e-08
8.50713e-06
-0.000122758
1.99385e-08
8.58312e-06
-0.000122678
8.43676e-06
-0.000122634
-6.03289e-08
2.39271e-05
-9.90467e-07
-1.36669e-08
2.39647e-05
-1.00751e-06
-1.8574e-08
2.38626e-05
-9.96823e-07
-1.46527e-08
2.38365e-05
-9.93718e-07
1.86218e-08
2.38471e-05
-9.97321e-07
2.38097e-05
-9.89723e-07
-1.46309e-07
4.78316e-07
-1.22004e-08
4.73605e-07
-3.11711e-08
4.75731e-07
-2.82259e-08
4.75582e-07
5.63087e-08
4.74158e-07
4.75957e-07
-1.64464e-08
-7.48584e-07
-1.95054e-06
5.02067e-09
-7.41725e-07
-1.95314e-06
-4.11822e-09
-7.48798e-07
-1.95602e-06
-4.09047e-09
-7.50669e-07
-1.95949e-06
5.0341e-09
-7.48849e-07
-1.96522e-06
-7.50162e-07
-1.94688e-06
-6.74133e-10
-1.0275e-06
-2.84286e-07
-4.41823e-11
-1.03135e-06
-2.84995e-07
-1.97912e-10
-1.02915e-06
-2.8502e-07
-1.35242e-10
-1.02893e-06
-2.8475e-07
2.33416e-10
-1.0296e-06
-2.84908e-07
-1.02699e-06
-2.8466e-07
-2.18662e-11
2.82437e-08
3.20791e-11
2.79549e-08
-1.71532e-11
2.81573e-08
1.19515e-11
2.80824e-08
2.91566e-11
2.79564e-08
2.8071e-08
-1.11712e-09
-5.23068e-07
-1.08126e-06
3.4656e-10
-5.21921e-07
-1.08668e-06
9.52436e-10
-5.23609e-07
-1.08679e-06
1.33285e-10
-5.24238e-07
-1.08926e-06
-6.4238e-10
-5.24453e-07
-1.09553e-06
-5.23062e-07
-1.07953e-06
-1.77289e-10
-2.82435e-08
1.41814e-08
8.54942e-11
-2.79551e-08
1.44441e-08
1.09198e-10
-2.81572e-08
1.44341e-08
7.25935e-11
-2.80825e-08
1.42606e-08
-1.83516e-10
-2.79567e-08
1.43022e-08
-2.80709e-08
1.44286e-08
2.32275e-13
-1.32848e-44
9.75861e-14
-1.30536e-44
2.13488e-13
-1.34952e-44
1.97595e-13
-1.26788e-44
-1.15347e-13
-1.29579e-44
-1.2979e-44
-4.60187e-09
-3.65016e-07
-1.8643e-06
1.06853e-09
-3.57951e-07
-1.78057e-06
4.30406e-09
-3.60617e-07
-1.84788e-06
7.86768e-10
-3.65558e-07
-1.865e-06
-4.29758e-09
-3.65244e-07
-1.89391e-06
-3.59242e-07
-1.79299e-06
-3.51379e-10
-1.202e-41
-3.64014e-07
1.12471e-10
-1.17289e-41
-2.90784e-07
2.61778e-10
-1.21652e-41
-3.13727e-07
9.45021e-11
-1.14991e-41
-3.49157e-07
-4.37039e-10
-1.17451e-41
-3.74088e-07
-1.16719e-41
-2.92768e-07
-6.6443e-47
2.3949e-45
4.19242e-47
2.24407e-45
7.29487e-47
2.37015e-45
4.43673e-47
2.24448e-45
-1.31229e-46
2.32794e-45
2.22032e-45
-2.86639e-08
-2.76648e-06
-1.3203e-06
5.52068e-09
-2.74671e-06
-1.37828e-06
2.49137e-08
-2.78849e-06
-1.41422e-06
6.56206e-09
-2.75215e-06
-1.35032e-06
-3.1787e-08
-2.80306e-06
-1.3044e-06
-2.7478e-06
-1.39165e-06
-6.00708e-08
-2.34536e-45
5.64573e-07
1.41879e-08
-2.19008e-45
7.73505e-07
4.48063e-08
-2.31693e-45
6.95556e-07
9.79762e-09
-2.19747e-45
6.01252e-07
-6.04624e-08
-2.27944e-45
5.54026e-07
-2.17073e-45
7.69331e-07
-5.26546e-50
1.06115e-46
1.68414e-50
1.11785e-46
3.24356e-50
1.1201e-46
1.75342e-50
1.01438e-46
-9.16079e-50
1.02763e-46
1.06852e-46
-6.22183e-09
-2.10098e-06
-4.72185e-06
1.0741e-09
-2.55455e-06
-4.78132e-06
3.57312e-09
-2.38193e-06
-4.78989e-06
3.33796e-09
-2.18101e-06
-4.76688e-06
-4.54836e-09
-2.00116e-06
-4.74663e-06
-2.55229e-06
-4.72714e-06
-1.91091e-07
9.06635e-09
-1.18902e-06
3.21546e-08
5.03717e-08
-2.00671e-06
1.19841e-07
3.13006e-08
-1.73664e-06
2.44728e-08
1.7501e-08
-1.36935e-06
-1.62061e-07
1.79622e-09
-1.17598e-06
4.88698e-08
-1.99352e-06
-3.17091e-09
5.18521e-08
5.4216e-10
8.28966e-08
1.7729e-09
3.2426e-08
2.72706e-10
2.34647e-08
-3.49318e-09
5.873e-08
7.5064e-08
8.11218e-08
4.6172e-06
-1.47626e-05
-1.2249e-08
7.09198e-06
-1.77476e-05
-9.56361e-08
6.03598e-06
-1.64171e-05
3.9318e-10
5.05395e-06
-1.53825e-05
1.311e-07
4.35102e-06
-1.44882e-05
6.82761e-06
-1.7331e-05
-7.32887e-07
9.34434e-05
-0.000580142
-1.489e-07
0.000125674
-0.000730169
8.42984e-08
0.000112449
-0.000650964
1.48214e-07
9.91692e-05
-0.000611191
1.97768e-07
8.74392e-05
-0.00054966
0.000124507
-0.000709987
-4.87181e-07
-4.57547e-06
5.06751e-08
-1.30484e-05
2.3396e-07
-9.76591e-06
3.46645e-08
-5.72685e-06
-3.65634e-07
-3.18799e-06
-1.24027e-05
1.13578e-06
0.000665637
-0.000857887
-2.61996e-07
0.000650498
-0.00107679
-8.99326e-07
0.000707459
-0.000997607
-2.44301e-07
0.000678978
-0.000903242
1.23709e-06
0.000653218
-0.000830451
0.000713593
-0.0010496
2.49804e-05
0.00163543
-0.00135923
-5.59273e-06
0.00174627
-0.00150123
-1.99433e-05
0.00170889
-0.00146813
-4.22623e-06
0.00165814
-0.00138935
2.85624e-05
0.00162104
-0.00134469
0.00173383
-0.00151489
1.2469e-05
-0.000361004
-4.47658e-06
-0.000391854
-1.22065e-05
-0.000382569
-2.74959e-06
-0.000367878
1.87936e-05
-0.00036401
-0.000384243
1.74691e-05
-1.19591e-05
0.000687444
-4.9191e-06
-1.21865e-05
0.000501751
-8.84606e-06
-9.28764e-06
0.00055893
-3.05093e-06
-1.18766e-05
0.000648044
1.35678e-05
-1.12902e-05
0.000733729
-1.00582e-05
0.000497924
3.03644e-05
0.000621315
-3.68945e-09
-5.48463e-06
0.000572697
-3.21584e-09
-1.85781e-05
0.000591182
-3.30347e-09
-6.07386e-06
0.000612192
-3.20901e-09
2.80486e-05
0.00063761
-3.22087e-09
0.000575281
-3.67255e-09
2.49229e-05
-8.24482e-10
-5.03636e-06
-1.65803e-08
-1.69684e-05
-1.5292e-08
-4.75768e-06
-1.67712e-08
2.36074e-05
-1.70749e-08
-7.93707e-10
2.1441e-05
-4.03739e-09
-0.0198515
-2.60356e-06
-3.42542e-10
-0.0206946
-1.11405e-05
-1.09611e-09
-0.0203941
-2.05642e-06
-3.36739e-10
-0.0200805
9.737e-06
-4.15588e-10
-0.0197063
-3.67923e-09
-0.0205674
4.88665e-12
-4.85165e-09
-2.5535e-09
-1.95623e-13
-7.31e-10
-2.49572e-09
-9.79673e-13
-1.65296e-09
-2.50771e-09
-4.7685e-13
-7.37901e-10
-2.57023e-09
1.15108e-12
-7.51976e-10
-2.648e-09
-4.68573e-09
-2.4238e-09
7.73936e-12
-1.74441e-08
2.80112e-13
-1.73038e-08
2.04894e-12
-1.7298e-08
2.2616e-13
-1.75073e-08
-1.46478e-11
-1.7812e-08
-1.70044e-08
2.34152e-05
-2.03896e-07
-0.0489705
5.21641e-05
-1.99714e-07
-0.0489215
6.62909e-05
-2.00981e-07
-0.0488696
2.17917e-05
-2.04808e-07
-0.0489584
-3.12996e-05
-2.10734e-07
-0.0489413
-1.94734e-07
-0.0487957
-1.15728e-11
-2.06438e-07
6.67852e-16
4.42538e-12
-2.02225e-07
5.53134e-16
8.52683e-12
-2.03493e-07
1.65831e-15
3.86908e-12
-2.07374e-07
2.51193e-15
-1.23141e-11
-2.13366e-07
6.25781e-15
-1.9717e-07
2.19444e-16
-9.56047e-11
5.64366e-26
4.82041e-11
7.0142e-26
6.40877e-11
7.51146e-26
3.2413e-11
9.04741e-26
-1.86588e-10
1.05339e-25
8.24102e-26
-0.000594146
9.05692e-16
-0.0515976
0.0819716
-0.000279583
7.06465e-16
-0.0515343
0.081175
-0.000240336
1.86201e-18
-0.0513301
0.081023
-0.000305778
1.18538e-19
-0.0520745
0.0798007
0.000437132
2.50431e-17
-0.0523631
0.0793889
7.47594e-17
-0.0514217
0.0795642
-4.40022e-18
9.07141e-26
4.14656e-16
-3.02509e-16
-7.43751e-18
-3.87083e-26
3.15979e-16
-2.33497e-16
-4.00159e-20
-7.00066e-23
4.05505e-19
-6.41505e-19
-3.21983e-21
-4.99643e-20
4.35663e-19
-6.98681e-20
5.94138e-19
-5.05869e-17
9.92508e-17
-1.4491e-17
6.16832e-27
6.82338e-17
-4.44115e-17
-1.22799e-28
6.05431e-26
-3.1354e-26
-1.64535e-24
3.28094e-26
1.57365e-24
-2.91847e-21
1.06283e-25
2.84662e-21
-2.27872e-18
4.5734e-26
2.22584e-18
4.95355e-29
4.06404e-26
1.92151e-17
4.11063e-26
-2.63843e-27
-2.06158e-06
1.03405e-15
-0.0253596
-9.41678e-05
7.72587e-16
-0.0253071
-0.000102698
9.70895e-19
-0.0252235
1.03581e-05
8.17809e-19
-0.0256559
-0.000140123
1.90578e-16
-0.025591
1.233e-16
-0.0253707
-1.57742e-17
9.84265e-26
-2.4606e-16
-1.75283e-17
5.34655e-26
-1.82406e-16
-2.60907e-20
1.76733e-25
-2.16602e-19
-5.04785e-21
7.52666e-26
-1.92654e-19
-6.13858e-18
7.08191e-26
-4.37954e-17
7.12024e-26
-2.59635e-17
1.60322e-28
2.99721e-26
1.93379e-27
2.81524e-26
2.13893e-27
2.99922e-26
1.45265e-27
2.45748e-26
6.0897e-30
4.40105e-26
1.57993e-26
7.67407e-06
1.7176e-15
0.000589485
-6.38419e-05
1.39062e-15
0.000614903
-0.000106153
2.52658e-15
0.000627707
-6.39944e-05
3.76129e-18
0.000648046
0.000103792
1.61729e-14
0.0006428
6.11512e-16
0.000700128
-1.11466e-17
1.08513e-25
-2.87751e-15
-2.18237e-17
1.01839e-25
-2.34021e-15
-4.35115e-17
1.09903e-25
-4.25059e-15
-8.61378e-20
9.605e-26
-6.17015e-18
-3.84202e-16
1.81519e-25
-2.65168e-14
6.36486e-26
-1.01921e-15
4.54069e-28
-1.12937e-26
8.02114e-28
-1.06391e-26
8.59331e-28
-1.16515e-26
1.79996e-27
-1.06689e-26
3.29987e-28
-2.07835e-26
-7.34557e-27
9.32773e-06
4.9289e-16
0.0209281
-7.36876e-05
4.00127e-16
0.0213712
-0.000209295
7.47022e-16
0.0214757
-9.54781e-06
7.87917e-17
0.0211665
0.000214996
4.70423e-15
0.0212518
1.68075e-16
0.021465
-9.95886e-19
1.4732e-25
-2.18757e-15
-2.85585e-18
1.72385e-25
-1.78384e-15
-3.53219e-18
1.88326e-25
-3.34615e-15
-4.5833e-19
1.80755e-25
-3.45209e-16
-1.05091e-16
1.98142e-25
-2.05552e-14
1.35237e-25
-7.59239e-16
3.2963e-28
-7.78142e-26
4.49447e-28
-9.12334e-26
3.38259e-28
-1.00093e-25
5.63577e-28
-9.51168e-26
2.72806e-28
-1.03825e-25
-7.27152e-26
8.32668e-06
3.39567e-16
0.0308151
-5.81943e-05
2.78575e-16
0.0309003
-0.000171544
6.23599e-16
0.0309188
-1.10885e-05
4.54161e-16
0.0309716
0.000189124
3.23089e-15
0.031043
1.14589e-16
0.0308543
-5.9366e-20
1.11201e-25
-1.3015e-15
-3.42402e-19
1.3443e-25
-1.06698e-15
4.25098e-19
1.45711e-25
-2.39415e-15
4.57141e-19
1.55406e-25
-1.72741e-15
-2.09493e-17
1.72872e-25
-1.22591e-14
1.2854e-25
-4.41436e-16
8.43199e-29
-8.52324e-26
8.31232e-29
-1.03107e-25
-3.94619e-29
-1.12011e-25
1.3424e-28
-1.18642e-25
2.34092e-28
-1.31427e-25
-9.9406e-26
3.00177e-05
3.13062e-16
-2.02396e-05
2.59096e-16
-0.000100283
7.75952e-16
-5.03051e-07
1.17994e-15
0.000108341
2.94245e-15
1.0257e-16
2.85228e-19
1.02763e-25
-1.10341e-19
1.27756e-25
-5.96863e-19
1.36597e-25
-2.93331e-19
1.65073e-25
-3.83585e-19
1.92513e-25
1.49504e-25
5.0694e-29
-6.40566e-32
-1.06166e-28
2.30852e-29
2.30941e-28
-0.00835278
0.195568
-0.000681927
-0.0156427
0.204182
-0.000457233
-0.0157664
0.208085
-0.000671609
-0.00298261
0.114601
-0.000368208
0.0119072
0.0838874
-0.00027807
0.230845
-0.00127957
-0.00877852
0.218229
-0.000103711
-0.0179771
0.229825
-4.35128e-05
-0.0152373
0.224956
-0.000100217
-0.00334471
0.0964259
-4.66598e-05
0.00600684
0.0640997
-3.67665e-05
0.244889
-0.000203839
-0.00617534
-1.9695e-05
-0.0196408
-1.73429e-05
-0.0146474
-1.97702e-05
-0.00211085
-8.30051e-06
0.00486978
-7.90714e-06
-2.40382e-05
1.46318e-06
0.000105882
-7.58031e-06
6.83766e-07
7.76177e-05
-6.08307e-06
8.35025e-07
0.000136854
-1.0146e-05
-4.2123e-06
5.08074e-05
-3.36517e-06
-4.81939e-05
3.8934e-05
-4.85709e-06
0.000173204
-1.08796e-05
3.21811e-07
2.11292e-05
-1.58373e-05
-7.17911e-07
1.83354e-05
-1.69956e-05
1.12621e-06
2.30518e-05
-1.50403e-05
-1.12368e-06
1.08492e-05
-3.20463e-06
-7.9962e-06
1.0428e-05
-1.60202e-07
1.94139e-05
-5.67177e-05
7.03495e-08
-4.01304e-06
-5.90307e-07
-5.80185e-06