/*--------------------------------*- C++ -*----------------------------------*\
| =========                 |                                                 |
| \\      /  F ield         | OpenFOAM: The Open Source CFD Toolbox           |
|  \\    /   O peration     | Version:  v1612+                                |
|   \\  /    A nd           | Web:      www.OpenFOAM.com                      |
|    \\/     M anipulation  |                                                 |
\*---------------------------------------------------------------------------*/
FoamFile
{
    version     2.0;
    format      ascii;
    class       volScalarField;
    location    "5.85";
    object      p;
}
// * * * * * * * * * * * * * * * * * * * * * * * * * * * * * * * * * * * * * //

dimensions      [1 -1 -2 0 0 0 0];

internalField   nonuniform List<scalar> 
1116
(
22679.2
22679.2
22679.2
22679.2
22679.3
22679.2
22376.2
22376.2
22376.2
22376.2
22376.2
22376.2
19325.5
19325.4
19325.5
19325.5
19325.5
19325.5
16268.7
16268.7
16268.7
16268.7
16268.7
16268.7
13865.8
13865.9
13865.9
13865.9
13865.9
13865.8
11747.9
11748
11747.9
11747.9
11747.9
11747.9
10202.2
10202.2
10202.1
10202.2
10202.2
10202.3
9077.86
9077.84
9077.99
9077.74
9078.11
9077.8
8348.01
8348.49
8348.98
8347.45
8348.7
8349.17
8388.88
8391.13
8390.75
8387.41
8386.76
8390.57
9550.45
9550.31
9550.04
9550.23
9548.82
9547.6
9261.04
9257.67
9256.81
9262.65
9264.09
9254.35
16773.3
16772.5
16772.9
16772.9
16772.8
16773.1
12973.9
12973.6
12973.8
12973.8
12973.8
12973.8
7769.8
7769.88
7769.89
7769.83
7769.89
7769.79
5444.58
5444.9
5444.84
5444.67
5444.82
5444.63
4542.03
4542.51
4542.4
4542.24
4542.44
4541.98
3023.7
3023.98
3023.92
3023.76
3023.9
3023.66
2175.56
2175.56
2175.56
2175.58
2175.81
2175.37
1649.07
1649.15
1649.29
1648.87
1649.38
1648.73
1573.25
1573.37
1573.26
1572.91
1572.04
1574.32
1789.7
1787.55
1787.98
1788.66
1787.18
1788.91
2690.11
2692.26
2691.21
2692.89
2686.41
2691.71
2432.3
2433.22
2431.27
2431.08
2426.67
2427.68
6465.56
6463.38
6464.36
6464.43
6463.85
6464.98
1687.45
1687.77
1687.64
1687.53
1687.7
1687.55
476.197
476.276
476.253
476.23
476.275
476.218
240.29
240.386
240.349
240.293
240.332
240.292
67.3595
67.3657
67.3637
67.3414
67.3543
67.3456
-43.3548
-43.46
-43.431
-43.3722
-43.3396
-43.4431
-72.6414
-72.7593
-72.7091
-72.6709
-72.6307
-72.7227
-74.6783
-74.5895
-74.5775
-74.7558
-74.8128
-74.617
76.4727
76.5977
76.451
76.4582
76.0653
76.0471
343.254
344.828
344.191
343.757
343.318
346.36
694.769
696.791
696.784
697.911
699.197
699.835
947.007
944.114
945.129
944.716
946.649
939.107
462.218
461.883
462.139
462.181
462.067
462.257
0.37909
0.363878
0.377395
0.388658
0.389643
0.402103
27.1197
27.0949
27.1055
27.1064
27.0971
27.1064
1.91319
1.92372
1.92047
1.9131
1.91597
1.90422
-10.6306
-10.6121
-10.6183
-10.6268
-10.6193
-10.6296
-27.7095
-27.7276
-27.7246
-27.6961
-27.6824
-27.7317
-64.1378
-64.3031
-64.2336
-64.1631
-64.0761
-64.2645
-114.702
-114.528
-114.519
-114.712
-114.675
-114.583
-56.5608
-56.5801
-56.6277
-56.5839
-56.613
-56.6928
79.5543
78.3892
78.6624
79.7285
79.9134
77.1522
256.536
258.89
258.065
257.835
256.945
257.895
220.807
219.932
219.837
220.505
220.393
218.413
3283.84
3418.17
3450.17
3666.2
3875.82
3528.22
2646.45
2681.27
2674.32
2579.22
2426.08
2269.25
1394.91
1360.92
1412.4
1355.75
1323.06
1308.24
558.41
616.449
614.223
657.685
701.114
637.822
264.191
347.501
303.01
391.281
489.271
365.657
396.641
437.781
367.382
436.924
459.404
364.454
439.06
437.097
445.953
447.13
485.733
466.875
415.757
412.206
404.294
456.727
511.444
454.569
779.231
822.681
729.089
896.664
939.172
838.621
1940.83
2031.45
1957.06
1861.72
1794.71
1940.44
1860.43
1870.11
1862.12
1705
1658.17
1680.12
1565.98
1554.97
1581.7
1526.9
1559.78
1578.07
1690.48
1792.36
1802.41
1711.38
1672.19
1690.04
293.835
314.878
331.918
283.837
279.586
273.691
68.8466
69.533
69.3213
66.7813
53.0615
55.5227
-10.4205
-14.0726
-7.23797
-16.892
-21.4839
-19.5685
-28.8197
-31.0192
-28.5146
-26.8505
-25.6778
-26.1445
-20.4663
-18.4182
-24.3245
-17.7821
-15.0719
-16.898
-4.80898
-5.70027
-6.72895
-8.76673
-4.20554
-2.28693
4.20331
1.76513
-0.16628
-0.863338
0.944267
5.85697
43.2198
48.9829
47.9669
48.5108
47.6264
29.6455
211.447
252.175
206.192
252.714
227.51
179.581
250.313
328.433
448.928
456.573
263.032
514.062
736.21
720.422
687.577
718.801
585.46
775.662
363.898
419.068
408.158
334.594
328.567
349.914
35.5362
38.4889
37.3326
34.5103
31.6246
30.9793
26.8183
23.5575
20.6428
20.9501
17.5367
20.0903
17.1738
15.9095
14.7863
12.5649
9.85304
10.5501
5.38286
4.65394
5.0521
3.58993
2.75876
4.56407
-6.89823
-6.61597
-5.92673
-5.84524
-4.90461
-2.17361
-8.76663
-9.04836
-9.26034
-9.26232
-9.82515
-7.31734
-10.572
-11.7862
-11.193
-12.2424
-13.1057
-10.7709
-17.2798
-18.7708
-17.6955
-17.0822
-16.713
-17.3354
-14.8459
-13.3195
-11.112
-4.63582
-5.32165
-8.10581
87.6388
111.218
132.422
118.456
28.3323
187.95
548.248
507.891
408.929
394.714
372.854
372.77
93.802
108.649
97.3824
77.5715
79.7944
58.0975
-22.1918
-23.7757
-26.9887
-22.8536
-26.9633
-22.0074
-8.97207
-11.4326
-11.9348
-10.4241
-9.53131
-5.7734
-25.6709
-26.1217
-26.2658
-26.417
-26.5476
-25.3839
-24.6852
-24.6369
-24.503
-24.1708
-23.81
-23.64
-27.6257
-27.5025
-27.6936
-27.1709
-27.0119
-26.6409
-26.4089
-25.8865
-26.6645
-26.8367
-27.0779
-25.5211
-26.6302
-26.5339
-27.0146
-28.0366
-28.6132
-27.2558
-30.4475
-30.2112
-30.3913
-32.4739
-33.5379
-34.1205
-35.5657
-34.8176
-34.8879
-34.7751
-35.0178
-36.5284
-26.9812
-29.4384
-30.8723
-27.5051
-21.5191
-31.9219
-172.804
-166.678
-186.055
-173.076
47.9848
-103.448
-33.7255
-33.7051
-33.7052
-33.7225
-33.7238
-33.7259
-64.8828
-64.9089
-64.9153
-64.9197
-64.9206
-64.9134
-86.9292
-86.9412
-86.9394
-86.934
-86.9328
-86.9267
-48.4549
-48.4652
-48.4578
-48.4545
-48.4571
-48.4449
-92.405
-92.3987
-92.4033
-92.3969
-92.3946
-92.3936
-99.6691
-99.6478
-99.6602
-99.6522
-99.6495
-99.6569
-26.9209
-26.9169
-26.9198
-26.9117
-26.9127
-26.9121
-61.5921
-61.5665
-61.5788
-61.5697
-61.5656
-61.5715
-69.6718
-69.6603
-69.6658
-69.6615
-69.6588
-69.6615
-27.1081
-27.0911
-27.0991
-27.103
-27.1044
-27.103
-52.3717
-52.3579
-52.3649
-52.3641
-52.3676
-52.3599
-70.3086
-70.3082
-70.3084
-70.3102
-70.3121
-70.3093
-28.4217
-28.3593
-28.386
-28.4069
-28.4195
-28.3851
-44.7577
-44.7193
-44.7371
-44.7486
-44.7662
-44.7264
-65.3132
-65.3019
-65.3065
-65.3109
-65.3158
-65.3025
-34.2289
-34.1448
-34.184
-34.1942
-34.2223
-34.1617
-37.3371
-37.1592
-37.234
-37.2936
-37.356
-37.1988
-64.6352
-64.6087
-64.621
-64.6266
-64.6428
-64.6098
-48.2664
-48.3631
-48.3485
-48.2249
-48.1855
-48.3653
-23.467
-23.183
-23.3007
-23.367
-23.4643
-23.2579
-65.6444
-65.454
-65.5208
-65.5893
-65.6496
-65.4811
-57.9341
-58.4822
-58.3377
-57.974
-57.7738
-58.3816
-21.4561
-21.4191
-21.4001
-21.3668
-21.347
-21.4117
-52.5026
-52.3768
-52.4412
-52.4149
-52.4411
-52.4319
-68.3982
-68.6983
-68.5665
-68.4937
-68.3029
-68.5577
-52.2112
-52.8257
-52.5377
-52.3449
-52.0584
-52.7011
-68.9082
-69.2196
-69.0629
-68.966
-68.8149
-69.1554
-85.0476
-85.4913
-85.2686
-85.2798
-85.2167
-85.1444
-112.329
-112.607
-112.433
-112.542
-112.381
-112.444
-107.567
-107.775
-107.674
-107.687
-107.626
-107.703
-32.1671
-32.0967
-32.0397
-32.1415
-32.1833
-32.0794
-88.2556
-88.2032
-88.1983
-88.3085
-88.332
-88.2099
-94.7313
-94.744
-94.746
-94.8083
-94.8782
-94.7063
118.772
118.03
118.402
118.813
119.436
117.41
-64.1433
-64.149
-64.1668
-64.1199
-64.1318
-64.1736
-83.1555
-83.0885
-83.1226
-83.1406
-83.186
-83.1021
472.841
472.373
473.704
486.642
486.586
482.888
-49.46
-49.486
-49.5383
-49.6753
-49.9334
-49.9011
-70.7213
-70.697
-70.5022
-70.0569
-69.852
-69.7918
508.433
509.086
509.205
509.303
509.532
508.917
-52.2873
-52.3342
-52.4139
-52.6266
-52.7056
-52.7618
-68.4072
-68.3731
-68.3015
-68.1453
-68.0425
-68.041
513.685
514.334
514.583
513.617
513.6
513.812
-52.4204
-52.4323
-52.4498
-52.4671
-52.5052
-52.5084
-67.3477
-67.3314
-67.2967
-67.2487
-67.2082
-67.1892
516.639
516.856
516.868
516.823
516.714
516.706
-54.3341
-54.3415
-54.3535
-54.3663
-54.3767
-54.3921
-67.5028
-67.4955
-67.4829
-67.4721
-67.4573
-67.4463
473.48
474.384
474.563
474.361
474.469
474.394
-55.9408
-55.946
-55.954
-55.9557
-55.9659
-55.9736
-69.6805
-69.678
-69.6733
-69.6754
-69.6704
-69.6585
392.749
393.136
393.217
393.156
393.159
392.898
-57.6811
-57.6906
-57.6964
-57.6816
-57.6889
-57.7066
-74.8581
-74.8547
-74.8549
-74.8616
-74.864
-74.8492
62.9857
69.9568
54.289
48.7076
46.7145
43.5193
-80.2487
-73.0503
-65.2299
-41.4986
-36.315
-33.5068
-195.072
-193.873
-174.313
-145.405
-134.625
-154.711
-69.2723
-69.4526
-70.1845
-66.6762
-63.9256
-55.0612
-102.891
-104.006
-101.17
-101.292
-98.9943
-92.5712
-114.428
-114.692
-112.027
-109.562
-108.772
-108.282
-33.4809
-35.5554
-33.8338
-35.8741
-33.4966
-28.1922
-68.2621
-69.3264
-65.1312
-64.0675
-62.7036
-60.659
-70.4516
-69.9513
-68.0709
-65.3189
-65.6776
-67.1711
-44.7512
-45.2959
-45.4553
-46.3414
-46.3718
-44.4288
-69.0601
-69.2015
-68.1773
-67.286
-67.4323
-67.2813
-78.54
-78.4354
-78.2112
-77.8234
-77.5946
-77.7623
-35.3549
-35.3682
-35.3173
-35.3412
-35.2404
-35.0628
-52.3089
-52.2591
-52.0677
-51.9235
-51.7614
-51.6252
-66.4264
-66.3576
-66.1906
-66.0041
-65.9089
-65.7982
-37.8535
-37.7957
-37.7503
-37.7289
-37.604
-37.3877
-52.181
-52.1528
-52.1147
-52.0681
-52.0216
-51.9461
-65.058
-65.0463
-65.0292
-65.008
-64.9783
-64.9537
-36.8981
-36.8081
-36.9247
-37.0376
-36.9778
-36.6641
-50.6446
-50.6462
-50.7197
-50.7828
-50.8329
-50.7292
-63.5117
-63.5107
-63.5062
-63.5097
-63.5023
-63.4852
-37.1142
-37.4496
-37.4135
-37.9125
-37.7848
-37.2359
-51.3989
-51.4856
-51.6059
-51.7432
-51.8517
-51.7361
-63.2924
-63.3082
-63.3158
-63.3497
-63.3527
-63.3304
-40.7909
-40.976
-40.4928
-40.7788
-40.6778
-40.415
-53.2582
-53.3532
-53.4613
-53.5645
-53.6747
-53.7618
-62.7827
-62.784
-62.7419
-62.7459
-62.7247
-62.6675
-42.3871
-42.4858
-41.6653
-42.0033
-41.6445
-41.4581
-55.1677
-55.3595
-55.5912
-55.7316
-55.7223
-56.003
-63.4483
-63.4802
-63.3998
-63.4371
-63.4349
-63.3934
-56.3835
-56.3632
-56.3469
-58.4217
-56.6719
-54.9226
-57.784
-57.8625
-57.9996
-58.6415
-58.3712
-58.4021
-66.1196
-66.1305
-66.0743
-65.972
-65.9061
-65.8077
-19.2596
-19.3492
-17.0833
32.9178
68.5365
14.145
-46.3687
-46.6971
-47.2364
-49.0218
-49.716
-49.0767
-71.138
-71.186
-71.0978
-71.6504
-71.3018
-71.268
)
;

boundaryField
{
    seabed_topleft_surface
    {
        type            calculated;
        value           nonuniform List<scalar> 
72
(
24328.8
24328.7
24328.7
24328.8
24328.8
24328.8
25863
25863
25863
25863
25863
25863
24122.1
24122
24122.1
24122.1
24122.1
24122.1
21065.3
21065.3
21065.3
21065.3
21065.3
21065.3
18662.3
18662.4
18662.4
18662.4
18662.4
18662.3
16542.5
16542.7
16542.6
16542.5
16542.6
16542.5
14974.5
14974.6
14974.5
14974.6
14974.6
14974.6
13802.3
13802.4
13802.5
13802.2
13802.6
13802.3
13041.7
13042.5
13042.9
13041.2
13042.4
13043.2
13075.1
13077.6
13077.2
13073.7
13073
13077.1
14228.7
14228.8
14228.5
14228.6
14227.1
14226.1
13920.5
13916.9
13916
13922.2
13923.9
13913.4
)
;
    }
    seabed_topright_surface
    {
        type            calculated;
        value           nonuniform List<scalar> 
72
(
3629.98
3700.91
3692.15
4056.73
4266.35
3806.28
3035.99
3071.18
3064.61
2969.75
2816.55
2592.65
1784.06
1750.15
1802.3
1745.6
1674.01
1612.51
809.842
878.796
891.611
949.669
1141.02
972.904
431.534
632.485
421.766
722.103
953.532
636.492
790.086
875.234
732.574
872.01
924.703
696.252
879.262
879.262
900.337
908.221
951.2
931.652
858.331
834.536
833.349
895.026
976.411
918.391
1227.22
1269.88
1173.33
1356.73
1403
1301.26
2394.39
2486.12
2413.18
2320.64
2256.42
2400.72
2315.1
2325.04
2317.67
2161.74
2116.2
1935.05
1739.14
1746.04
1772.61
1715.94
1953.07
1755.38
)
;
    }
    breakwater_top_surface
    {
        type            calculated;
        value           nonuniform List<scalar> 
36
(
1026.56
1026.22
1027.67
1042.8
1042.63
1038.74
1068.67
1069.96
1070.23
1069.6
1069.72
1069.22
1075.1
1076.41
1076.89
1074.94
1074.83
1075.23
1082.27
1082.68
1082.74
1082.56
1082.3
1082.35
1004.71
1006.62
1007.05
1006.52
1006.74
1006.72
878.392
879.219
879.385
879.188
879.13
878.796
)
;
    }
    breakwater_left_surface
    {
        type            calculated;
        value           nonuniform List<scalar> 
24
(
9277
9273.63
9272.76
9278.61
9280.05
9270.31
2437.99
2438.89
2436.93
2436.77
2432.38
2433.33
947.38
944.487
945.501
945.089
947.022
939.48
221.563
220.688
220.593
221.261
221.149
219.169
)
;
    }
    breakwater_right_surface
    {
        type            calculated;
        value           nonuniform List<scalar> 
24
(
1566.57
1555.62
1582.35
1527.55
1561.13
1578.67
736.527
720.741
688.742
719.318
585.778
776.579
550.161
509.804
410.841
396.04
373.097
374.487
-171.196
-165.087
-184.521
-171.49
49.5918
-101.821
)
;
    }
    water_front_surface
    {
        type            calculated;
        value           nonuniform List<scalar> 
186
(
22679.2
22376.2
19325.5
16268.7
13865.8
11747.9
10202.2
9077.86
8348.01
8388.88
9550.45
9261.04
16773.3
12973.9
7769.8
5444.58
4542.03
3023.7
2175.56
1649.07
1573.25
1789.7
2690.11
2432.3
6465.56
1687.45
476.197
240.29
67.3595
-43.3548
-72.6414
-74.6783
76.4727
343.254
694.769
947.007
462.218
0.37909
27.1197
1.91319
-10.6306
-27.7095
-64.1378
-114.702
-56.5608
79.5543
256.536
220.807
3283.84
2646.45
1394.91
558.41
264.191
396.641
439.06
415.757
779.231
1940.83
1860.43
1565.98
1690.48
293.835
68.8466
-10.4205
-28.8197
-20.4663
-4.80898
4.20331
43.2198
211.447
250.313
736.21
363.898
35.5362
26.8183
17.1738
5.38286
-6.89823
-8.76663
-10.572
-17.2798
-14.8459
87.6388
548.248
93.802
-22.1918
-8.97207
-25.6709
-24.6852
-27.6257
-26.4089
-26.6302
-30.4475
-35.5657
-26.9812
-172.804
-33.7255
-64.8828
-86.9292
-48.4549
-92.405
-99.6691
-26.9209
-61.5921
-69.6718
-27.1081
-52.3717
-70.3086
-28.4217
-44.7577
-65.3132
-34.2289
-37.3371
-64.6352
-48.2664
-23.467
-65.6444
-57.9341
-21.4561
-52.5026
-68.3982
-52.2112
-68.9082
-85.0476
-112.329
-107.567
-32.1671
-88.2556
-94.7313
118.772
-64.1433
-83.1555
472.841
-49.46
-70.7213
508.433
-52.2873
-68.4072
513.685
-52.4204
-67.3477
516.639
-54.3341
-67.5028
473.48
-55.9408
-69.6805
392.749
-57.6811
-74.8581
62.9857
-80.2487
-195.072
-69.2723
-102.891
-114.428
-33.4809
-68.2621
-70.4516
-44.7512
-69.0601
-78.54
-35.3549
-52.3089
-66.4264
-37.8535
-52.181
-65.058
-36.8981
-50.6446
-63.5117
-37.1142
-51.3989
-63.2924
-40.7909
-53.2582
-62.7827
-42.3871
-55.1677
-63.4483
-56.3835
-57.784
-66.1196
-19.2596
-46.3687
-71.138
)
;
    }
    water_back_surface
    {
        type            calculated;
        value           nonuniform List<scalar> 
186
(
22679.2
22376.2
19325.5
16268.7
13865.8
11747.9
10202.3
9077.8
8349.17
8390.57
9547.6
9254.35
16773.1
12973.8
7769.79
5444.63
4541.98
3023.66
2175.37
1648.73
1574.32
1788.91
2691.71
2427.68
6464.98
1687.55
476.218
240.292
67.3456
-43.4431
-72.7227
-74.617
76.0471
346.36
699.835
939.107
462.257
0.402103
27.1064
1.90422
-10.6296
-27.7317
-64.2645
-114.583
-56.6928
77.1522
257.895
218.413
3528.22
2269.25
1308.24
637.822
365.657
364.454
466.875
454.569
838.621
1940.44
1680.12
1578.07
1690.04
273.691
55.5227
-19.5685
-26.1445
-16.898
-2.28693
5.85697
29.6455
179.581
514.062
775.662
349.914
30.9793
20.0903
10.5501
4.56407
-2.17361
-7.31734
-10.7709
-17.3354
-8.10581
187.95
372.77
58.0975
-22.0074
-5.7734
-25.3839
-23.64
-26.6409
-25.5211
-27.2558
-34.1205
-36.5284
-31.9219
-103.448
-33.7259
-64.9134
-86.9267
-48.4449
-92.3936
-99.6569
-26.9121
-61.5715
-69.6615
-27.103
-52.3599
-70.3093
-28.3851
-44.7264
-65.3025
-34.1617
-37.1988
-64.6098
-48.3653
-23.2579
-65.4811
-58.3816
-21.4117
-52.4319
-68.5577
-52.7011
-69.1554
-85.1444
-112.444
-107.703
-32.0794
-88.2099
-94.7063
117.41
-64.1736
-83.1021
482.888
-49.9011
-69.7918
508.917
-52.7618
-68.041
513.812
-52.5084
-67.1892
516.706
-54.3921
-67.4463
474.394
-55.9736
-69.6585
392.898
-57.7066
-74.8492
43.5193
-33.5068
-154.711
-55.0612
-92.5712
-108.282
-28.1922
-60.659
-67.1711
-44.4288
-67.2813
-77.7623
-35.0628
-51.6252
-65.7982
-37.3877
-51.9461
-64.9537
-36.6641
-50.7292
-63.4852
-37.2359
-51.7361
-63.3304
-40.415
-53.7618
-62.6675
-41.4581
-56.003
-63.3934
-54.9226
-58.4021
-65.8077
14.145
-49.0767
-71.268
)
;
    }
    water_left_surface
    {
        type            calculated;
        value           nonuniform List<scalar> 
42
(
22684.9
22684.9
22684.9
22684.9
22684.9
22684.9
16778.2
16777.4
16777.8
16777.7
16777.7
16778
6470.16
6467.98
6468.96
6469.02
6468.45
6469.58
464.142
463.802
464.059
464.103
463.987
464.18
-33.7255
-33.7051
-33.7052
-33.7225
-33.7238
-33.7259
-64.8828
-64.9089
-64.9153
-64.9197
-64.9206
-64.9134
-86.9292
-86.9412
-86.9394
-86.934
-86.9328
-86.9267
)
;
    }
    water_right_surface
    {
        type            calculated;
        value           nonuniform List<scalar> 
42
(
3285.03
3419.14
3451
3667.54
3877.15
3529.18
1691.28
1793.06
1803.16
1712.56
1673.32
1690.89
364.235
419.509
408.728
334.91
328.843
350.595
94.2871
109.182
97.9419
77.7832
79.9616
58.7559
62.9857
69.9568
54.289
48.7076
46.7145
43.5193
-80.2487
-73.0503
-65.2299
-41.4986
-36.315
-33.5068
-195.072
-193.873
-174.313
-145.405
-134.625
-154.711
)
;
    }
    water_top_surface
    {
        type            calculated;
        value           nonuniform List<scalar> 
180
(
-69.9147
-69.916
-69.9152
-69.915
-69.915
-69.9142
-70.1827
-70.1792
-70.1797
-70.1798
-70.1791
-70.1799
-74.5863
-74.6304
-74.6066
-74.6137
-74.6272
-74.606
-78.4102
-78.4112
-78.411
-78.4126
-78.4138
-78.4113
-74.1478
-74.1412
-74.145
-74.1474
-74.1513
-74.1422
-70.6781
-70.6593
-70.6678
-70.6748
-70.6841
-70.6614
-68.6882
-68.6884
-68.6883
-68.6884
-68.6886
-68.6878
-69.1508
-69.3324
-69.2621
-69.1791
-69.1067
-69.3352
-91.1768
-92.8802
-92.2746
-91.4324
-90.8155
-92.7523
-110.769
-110.767
-110.765
-110.763
-110.764
-110.767
-97.2112
-97.4183
-97.3073
-97.3477
-97.3668
-97.2847
-80.3418
-80.2939
-80.2963
-80.3568
-80.407
-80.2614
-70.7333
-70.7403
-70.7424
-70.7859
-70.7783
-70.8178
-71.6696
-71.68
-71.6777
-71.6907
-71.6744
-71.7282
-71.0831
-71.0866
-71.0876
-71.0884
-71.1022
-71.0726
-71.906
-71.9098
-71.9054
-71.9161
-71.9277
-71.8786
-74.0064
-74.0106
-74.0042
-74.0195
-74.0346
-73.9791
-75.5669
-75.5763
-75.5719
-75.579
-75.591
-75.5579
-1468.37
-1513.55
-1284.38
-457.801
-291.683
-1270.13
-68.7911
-68.7822
-68.7733
-68.7709
-68.7695
-68.7709
-70.5545
-70.8267
-70.8267
-69.6333
-69.3467
-73.5635
-81.3882
-80.545
-79.9113
-83.2864
-82.7775
-78.3727
-73.6957
-73.7014
-73.637
-73.4068
-73.487
-73.5799
-71.2327
-71.2207
-71.2258
-71.1998
-71.1878
-71.2072
-69.8164
-69.8173
-69.826
-69.8428
-69.8506
-69.8419
-69.7096
-69.7192
-69.7385
-69.7676
-69.7902
-69.7742
-69.56
-69.5745
-69.5794
-69.5878
-69.5989
-69.5725
-71.323
-71.4279
-71.4346
-71.5051
-71.5227
-71.4518
-73.1076
-73.2216
-73.1404
-73.2831
-73.2294
-73.0588
-70.4174
-70.3757
-70.313
-70.71
-71.2329
-70.5608
)
;
    }
}


// ************************************************************************* //
