/*--------------------------------*- C++ -*----------------------------------*\
| =========                 |                                                 |
| \\      /  F ield         | OpenFOAM: The Open Source CFD Toolbox           |
|  \\    /   O peration     | Version:  v1612+                                |
|   \\  /    A nd           | Web:      www.OpenFOAM.com                      |
|    \\/     M anipulation  |                                                 |
\*---------------------------------------------------------------------------*/
FoamFile
{
    version     2.0;
    format      ascii;
    class       volVectorField;
    location    "5.85";
    object      U;
}
// * * * * * * * * * * * * * * * * * * * * * * * * * * * * * * * * * * * * * //

dimensions      [0 1 -1 0 0 0 0];

internalField   nonuniform List<vector> 
1116
(
(-1.16481 8.89727e-05 0.412599)
(-1.16507 5.12295e-05 0.412949)
(-1.16496 -3.18195e-06 0.412836)
(-1.16493 3.56969e-05 0.412791)
(-1.16498 -3.98402e-05 0.412857)
(-1.16488 -3.87996e-05 0.41272)
(-2.93373 -0.00010388 0.292158)
(-2.93408 -3.41369e-05 0.29218)
(-2.93391 7.1164e-05 0.292179)
(-2.93386 -2.23278e-05 0.292184)
(-2.93395 5.24006e-06 0.292192)
(-2.93381 3.00275e-05 0.292152)
(-3.30988 -7.0604e-05 0.0740969)
(-3.31013 -1.13022e-05 0.0740283)
(-3.30998 3.88909e-05 0.0740497)
(-3.30994 -1.78356e-05 0.0740756)
(-3.31002 1.52794e-06 0.0740563)
(-3.30994 3.94329e-06 0.0740738)
(-3.30924 -4.70578e-05 0.0151969)
(-3.30952 3.36786e-06 0.0152045)
(-3.30933 1.64069e-05 0.0152051)
(-3.30931 -5.51436e-06 0.0152301)
(-3.30939 -8.03912e-07 0.0152142)
(-3.30934 -1.73635e-05 0.0151973)
(-3.22153 -2.92017e-05 -0.0609632)
(-3.222 7.54788e-06 -0.0609219)
(-3.22173 8.99766e-06 -0.0609192)
(-3.2217 2.32597e-05 -0.0608861)
(-3.2218 -5.17032e-06 -0.0609106)
(-3.22169 -4.15544e-05 -0.0609483)
(-2.9779 1.91013e-05 -0.140221)
(-2.97853 1.55791e-05 -0.140165)
(-2.97822 1.42398e-05 -0.140164)
(-2.9782 7.32438e-05 -0.140097)
(-2.97828 -3.79785e-05 -0.140114)
(-2.97811 -8.50303e-05 -0.140215)
(-2.62429 0.000109429 -0.170381)
(-2.62508 1.81849e-05 -0.170223)
(-2.62472 4.36538e-05 -0.170257)
(-2.62468 0.00011504 -0.170157)
(-2.62476 -9.06337e-05 -0.170039)
(-2.62457 -7.96111e-05 -0.170442)
(-2.2833 0.00037537 -0.213304)
(-2.28426 6.81173e-05 -0.213171)
(-2.28388 -3.70806e-05 -0.213171)
(-2.28371 -5.01273e-05 -0.213001)
(-2.28396 -2.26485e-06 -0.212513)
(-2.28364 0.000292175 -0.213732)
(-2.03035 0.000887271 -0.390741)
(-2.0302 0.000241267 -0.390894)
(-2.03016 -0.000352169 -0.390692)
(-2.03053 -0.00068745 -0.390521)
(-2.03189 0.000423034 -0.389369)
(-2.02896 0.00135374 -0.391995)
(-1.62184 0.00126969 -0.658013)
(-1.61702 0.000596643 -0.657552)
(-1.6185 -0.000701511 -0.657395)
(-1.62136 -0.00126767 -0.658037)
(-1.62798 0.00118926 -0.657427)
(-1.61349 0.00229177 -0.658298)
(-1.04966 0.000552008 -0.791216)
(-1.04188 0.000609192 -0.789017)
(-1.0428 -0.000581076 -0.789133)
(-1.04984 -0.000731592 -0.791432)
(-1.05758 0.000813261 -0.79296)
(-1.03448 0.000452622 -0.787964)
(-0.242775 -0.00157112 -0.230143)
(-0.235782 -0.000502995 -0.229205)
(-0.237128 0.000977713 -0.229528)
(-0.242396 0.00236825 -0.229839)
(-0.247253 -0.00160837 -0.230876)
(-0.233083 -0.00448275 -0.228402)
(-3.02131 0.000415201 4.33896)
(-3.02132 0.00032695 4.33994)
(-3.02124 -0.000195429 4.33952)
(-3.02133 7.96929e-05 4.33955)
(-3.02138 -0.000118601 4.3397)
(-3.02132 -0.000296894 4.33922)
(-4.4645 0.000116029 1.5203)
(-4.46463 8.76963e-05 1.51939)
(-4.46451 -7.58458e-05 1.51979)
(-4.46461 4.67497e-05 1.51993)
(-4.46463 -3.084e-05 1.51966)
(-4.46453 -0.000117158 1.52002)
(-4.11976 0.000176197 0.299928)
(-4.11997 9.55639e-05 0.299679)
(-4.11982 -0.000100634 0.299788)
(-4.11992 7.53679e-05 0.299847)
(-4.11993 -5.64197e-05 0.299781)
(-4.11982 -0.000138845 0.299859)
(-3.59464 6.16998e-05 -0.0827698)
(-3.59498 1.17158e-05 -0.0827106)
(-3.59481 -5.09723e-05 -0.0827259)
(-3.59485 5.17838e-05 -0.0826962)
(-3.59489 -2.64012e-05 -0.0826673)
(-3.59476 -6.51359e-05 -0.08279)
(-2.75129 -5.12783e-05 -0.312566)
(-2.75178 -7.23345e-05 -0.312335)
(-2.7516 -3.91972e-06 -0.312425)
(-2.75156 -2.07706e-05 -0.312382)
(-2.7516 7.93876e-05 -0.312271)
(-2.75144 0.0001223 -0.312604)
(-1.59602 -0.000184503 -0.521166)
(-1.59693 -0.000170861 -0.52082)
(-1.59659 7.8338e-05 -0.520982)
(-1.59644 -9.40451e-05 -0.52089)
(-1.59676 0.000208627 -0.520681)
(-1.59613 0.000360658 -0.521244)
(-0.413731 -5.5889e-05 -0.603676)
(-0.415082 -7.88802e-05 -0.603169)
(-0.41461 -0.000109476 -0.603405)
(-0.414303 -0.000322248 -0.603302)
(-0.415061 0.000410991 -0.602979)
(-0.413735 0.000653743 -0.60372)
(0.58285 0.00026756 -0.547508)
(0.58135 0.000146309 -0.546926)
(0.581886 -0.000442664 -0.547136)
(0.582226 -0.000803165 -0.547105)
(0.581805 0.000865815 -0.546666)
(0.582459 0.00137792 -0.547476)
(1.47083 -0.000911023 -0.44181)
(1.47302 -0.000447447 -0.442085)
(1.47207 0.000595511 -0.441898)
(1.47104 0.000951625 -0.441618)
(1.46741 -0.000730281 -0.440218)
(1.47516 -0.00151072 -0.443041)
(0.782884 -0.00259813 -0.278613)
(0.772364 -0.00123668 -0.27943)
(0.777967 0.00205321 -0.27918)
(0.779665 0.0039264 -0.278425)
(0.794626 -0.00401127 -0.276695)
(0.768157 -0.00723714 -0.28129)
(0.556545 -0.00596093 -0.820257)
(0.526613 -0.00288154 -0.819512)
(0.532261 0.0044008 -0.81916)
(0.556531 0.00804333 -0.820337)
(0.589986 -0.00694449 -0.820865)
(0.498165 -0.0127075 -0.818211)
(-1.41823 0.00138344 -0.845839)
(-1.45092 0.00054836 -0.841081)
(-1.44448 -0.000869542 -0.842535)
(-1.42055 -0.000775372 -0.845409)
(-1.40347 0.00257894 -0.849809)
(-1.45826 0.00527783 -0.838303)
(-4.56573 -0.000819117 5.84712)
(-4.56475 -0.000328452 5.85021)
(-4.56521 0.000345172 5.84884)
(-4.56531 -0.000104487 5.84865)
(-4.56507 0.000149633 5.84957)
(-4.56554 0.000131793 5.84786)
(-4.99492 -0.000595326 0.693298)
(-4.99537 -0.000434016 0.694629)
(-4.99517 0.000233948 0.694058)
(-4.99519 -9.81719e-05 0.69389)
(-4.99531 0.000140227 0.694375)
(-4.99514 0.00032262 0.693525)
(-3.57699 -0.00126281 -0.742172)
(-3.57722 -0.000808456 -0.740547)
(-3.5771 0.000576055 -0.741275)
(-3.57704 -0.000314788 -0.74145)
(-3.57728 0.000292392 -0.74084)
(-3.57698 0.00071106 -0.741867)
(-1.97319 -0.00126634 -1.55729)
(-1.97468 -0.00079301 -1.55652)
(-1.97398 0.000710542 -1.55691)
(-1.97353 -0.000298657 -1.55698)
(-1.97433 0.000406101 -1.55668)
(-1.97315 0.000876359 -1.55722)
(0.26481 -0.00195588 -2.58355)
(0.259842 -0.001145 -2.58313)
(0.262011 0.00151196 -2.58333)
(0.26377 -1.73087e-05 -2.5837)
(0.261568 0.000518208 -2.58371)
(0.264217 0.00111278 -2.58316)
(4.62712 -0.00279081 -3.56083)
(4.61396 -0.000868253 -3.56201)
(4.61836 0.00179358 -3.56153)
(4.62524 0.000330872 -3.5617)
(4.62205 0.000837077 -3.56207)
(4.62127 0.000691196 -3.56038)
(10.7274 0.00700944 -3.33939)
(10.7117 0.00680265 -3.3374)
(10.7149 -0.00835388 -3.33737)
(10.7273 -0.00719381 -3.34076)
(10.7234 0.00610281 -3.34264)
(10.719 0.00689111 -3.33525)
(12.6165 0.0108629 -2.12733)
(12.632 0.00917564 -2.12282)
(12.6286 -0.0108182 -2.12332)
(12.6218 -0.0090751 -2.1294)
(12.6224 0.00603673 -2.13318)
(12.6388 0.00826037 -2.1217)
(14.402 -0.0124864 0.455629)
(14.4181 -0.0036803 0.459963)
(14.4146 0.0117556 0.456595)
(14.4023 0.0249271 0.456991)
(14.4026 0.00162955 0.448235)
(14.3855 -0.0187127 0.459623)
(-1.75304 -0.0851742 2.64341)
(-1.77251 -0.0452 2.56038)
(-1.73622 0.0607223 2.5935)
(-1.80535 0.0747896 2.63206)
(-1.57239 -0.100314 2.67648)
(-1.661 -0.147368 2.5206)
(2.35957 -0.0373033 1.22825)
(2.13882 -0.0195746 1.20069)
(2.16715 0.0278221 1.20828)
(2.35679 0.0530957 1.22519)
(2.55599 -0.039651 1.26319)
(1.88747 -0.0651697 1.17921)
(-2.34766 0.0457675 -0.0252428)
(-2.66238 0.0233795 -0.0726699)
(-2.60509 -0.0466063 -0.0611219)
(-2.38479 -0.0877957 -0.0328117)
(-2.10712 0.0581858 0.0114397)
(-2.73603 0.14201 -0.093164)
(-5.64876 -0.00312632 11.7146)
(-5.64997 -0.00171826 11.7124)
(-5.64965 0.00111508 11.7127)
(-5.64955 -0.000662224 11.7136)
(-5.6496 0.000655259 11.7135)
(-5.64943 0.0010761 11.7136)
(3.05345 -0.0002713 1.29855)
(3.03742 -0.000292556 1.29504)
(3.04413 0.000108588 1.29592)
(3.04831 -0.000241973 1.29729)
(3.04199 -0.000227541 1.296)
(3.04928 7.88976e-05 1.29745)
(-1.46022 -0.000713452 -1.37587)
(-1.46338 0.000243965 -1.38347)
(-1.46121 6.18009e-05 -1.3807)
(-1.46125 -0.000958353 -1.37972)
(-1.46293 0.000214065 -1.38213)
(-1.46037 0.00016979 -1.37853)
(-0.174844 -0.00172689 -3.0787)
(-0.182311 -0.000666857 -3.08322)
(-0.178604 0.00176907 -3.08156)
(-0.17641 0.000374961 -3.08121)
(-0.180155 0.000479134 -3.08296)
(-0.174567 0.000579976 -3.07977)
(-0.671144 -0.0072069 -5.79193)
(-0.692948 -0.00379398 -5.79458)
(-0.684274 0.00639211 -5.79337)
(-0.675199 0.00361805 -5.7941)
(-0.682562 -0.0011854 -5.79625)
(-0.677078 -0.00195203 -5.78981)
(-1.78641 -0.0100403 -6.47282)
(-1.85734 -0.00335092 -6.47047)
(-1.8363 0.0054483 -6.47001)
(-1.79591 0.00674741 -6.47397)
(-1.80321 -0.00316827 -6.47849)
(-1.82864 -0.00881411 -6.46388)
(-3.9127 0.0124757 -7.10285)
(-4.04001 0.0163476 -7.05409)
(-4.00377 -0.0199477 -7.06506)
(-3.93625 -0.0136075 -7.09931)
(-3.92252 0.0126953 -7.11052)
(-4.00684 0.0103624 -7.05926)
(-6.57739 0.0161114 -1.52866)
(-6.60693 0.0232403 -1.47208)
(-6.58404 -0.0242674 -1.49686)
(-6.60209 -0.0219571 -1.51439)
(-6.60161 0.0219928 -1.53417)
(-6.57667 0.0202479 -1.49797)
(-3.20675 -0.0169566 8.42707)
(-3.26299 -0.000501101 8.31157)
(-3.20987 0.00828015 8.35132)
(-3.25764 0.014049 8.39785)
(-3.25699 0.000384594 8.43628)
(-3.1826 -0.0167698 8.31293)
(-8.00453 -0.0226342 4.49206)
(-7.98223 -0.0159649 4.21161)
(-7.96534 0.0167946 4.32362)
(-8.03046 0.0236517 4.41212)
(-8.06483 -0.0118746 4.5246)
(-7.91325 -0.0198382 4.26885)
(-5.39696 -0.0146924 -1.17128)
(-5.3869 -0.0132014 -1.22513)
(-5.37745 0.0144418 -1.19318)
(-5.41234 0.0183063 -1.19285)
(-5.45211 -0.017863 -1.17889)
(-5.34384 -0.0196407 -1.19915)
(-2.70576 -0.00234608 -2.21737)
(-2.70883 -0.00210134 -2.26852)
(-2.70823 0.00358897 -2.25263)
(-2.70846 0.00756281 -2.22653)
(-2.71135 -0.00627219 -2.19373)
(-2.70584 -0.011781 -2.27487)
(2.17005 -0.298854 1.3255)
(2.41717 -0.124595 1.18022)
(1.50609 -0.587128 1.34433)
(3.50167 -0.6972 0.374059)
(4.79291 0.577991 -0.28603)
(0.764006 1.45386 1.37343)
(5.96611 0.00413983 -0.935585)
(6.60494 0.2446 -1.21724)
(5.75796 0.438593 -0.93622)
(6.64761 0.772735 -1.34418)
(8.01636 0.664591 -1.88359)
(3.47104 0.789163 0.118757)
(8.02847 -0.0185084 -2.5383)
(8.69868 0.0655783 -2.90806)
(8.4168 0.158245 -2.91456)
(8.51647 0.444371 -2.62641)
(9.43496 -0.00236146 -2.60126)
(6.56054 -0.0512866 -1.71094)
(8.68123 -0.129147 -2.90241)
(9.47686 0.0918182 -3.32729)
(8.97092 -0.080463 -3.35231)
(9.20928 -0.0347852 -2.95138)
(10.2736 -0.176086 -2.9518)
(7.98101 -0.0431444 -2.7043)
(8.93028 -0.100339 -2.83431)
(10.0209 0.23879 -3.46799)
(9.21763 -0.0303568 -3.33126)
(9.40896 0.120212 -3.0365)
(10.0822 -0.0620433 -2.95347)
(7.70992 0.0482923 -2.8032)
(8.73393 0.0930467 -2.88942)
(9.80153 0.298026 -3.49005)
(9.33217 0.04814 -3.5774)
(9.0722 0.46659 -2.98324)
(9.43188 0.0379116 -2.69622)
(7.46774 -0.0829672 -2.80657)
(8.07886 0.146414 -2.78941)
(9.00738 0.17181 -3.33061)
(8.59829 0.00271554 -3.64932)
(8.38644 0.644493 -2.79814)
(8.69876 0.0558427 -2.30501)
(7.32301 -0.201267 -2.84814)
(7.51814 -0.0870513 -2.622)
(8.05472 0.0315868 -3.20933)
(7.7424 -0.0374776 -3.74971)
(7.57018 0.645174 -2.63065)
(7.70259 0.164811 -1.77838)
(7.21316 -0.0949998 -2.93691)
(6.2881 -0.403257 -2.38747)
(6.83133 -0.0712245 -3.38398)
(6.76705 0.0170504 -4.00882)
(6.27127 0.806236 -2.66952)
(6.10443 0.156695 -1.40481)
(6.44775 -0.114324 -3.10485)
(3.65701 -0.501301 -2.30165)
(4.47538 -0.145738 -3.72939)
(4.79351 0.151714 -4.51192)
(3.91694 1.36637 -2.94366)
(3.41156 0.00119466 -1.35627)
(4.23508 -0.3277 -3.19538)
(0.315829 -0.252913 -1.96291)
(1.31425 0.0595253 -2.84458)
(2.24459 0.155232 -4.0634)
(1.26596 1.44073 -2.61874)
(-0.0727574 0.221559 -1.04129)
(1.0746 -0.383419 -1.92596)
(-2.75337 -0.0435571 0.302438)
(-2.44033 -0.191102 -0.154811)
(-2.35748 -0.0160492 -0.0729147)
(-2.39293 0.79876 0.360377)
(-2.87586 0.135592 0.103343)
(-2.88537 0.115291 1.92405)
(1.78176 -0.344823 7.02515)
(2.29006 0.130522 6.61869)
(1.20636 0.0849181 6.39719)
(4.83253 -0.00168478 5.97764)
(6.59668 0.537753 5.73663)
(0.560933 1.17692 6.27178)
(8.59356 0.0359207 4.47082)
(9.34707 0.361446 4.68602)
(7.98774 0.594912 5.06622)
(9.40085 0.855238 4.36023)
(10.6915 0.272223 4.88897)
(4.21686 0.470952 7.26067)
(9.01412 -0.0190064 3.60048)
(9.2761 -0.0512204 4.15627)
(9.28285 -0.146126 3.65757)
(9.72519 0.240669 4.11962)
(11.2678 -0.239454 4.24397)
(8.03123 -0.24298 4.21391)
(5.34831 0.00702696 3.06413)
(6.0118 -0.113797 3.48906)
(5.66362 -0.325838 3.5001)
(7.086 -0.094683 3.12535)
(8.18274 -0.308617 2.68045)
(5.01169 -0.0657884 2.63984)
(1.45067 0.0654206 2.34682)
(0.859465 -0.187459 2.69796)
(3.51099 -0.597305 3.55486)
(2.10816 -0.762103 2.37503)
(4.58502 -0.400068 1.368)
(0.994645 0.256043 1.42638)
(0.467194 -0.18267 0.271332)
(0.394215 0.0944941 1.21028)
(0.505496 -0.898993 2.20497)
(3.77809 -1.40332 1.05205)
(7.17403 -0.409983 1.96143)
(0.487703 0.229273 1.91174)
(0.655117 0.0901907 0.288398)
(1.99212 0.326339 1.30552)
(-0.106002 -0.215993 0.331974)
(4.93185 -0.935445 0.925903)
(8.52852 -0.26934 1.82041)
(1.3656 -0.225906 1.59131)
(4.79487 0.183458 1.5831)
(5.04908 0.276798 1.0823)
(3.52568 -0.360394 1.21136)
(5.17905 -0.712864 -0.0128715)
(8.36034 0.0201951 0.656104)
(6.25429 0.425409 2.44808)
(6.5346 -0.050873 -0.120908)
(6.14529 -0.0161994 -1.59861)
(5.4166 -0.604092 -0.705643)
(6.32149 -0.43963 -1.91797)
(7.79632 0.214832 -0.89631)
(7.14161 0.918282 0.403263)
(6.14128 -0.194121 -4.12477)
(6.27866 0.00600416 -5.55178)
(5.62319 -0.439691 -5.48967)
(6.05682 0.0497593 -3.81478)
(6.5807 -0.0761817 -2.45633)
(5.80594 0.476954 -5.23811)
(4.31879 -0.127555 -4.09523)
(4.37605 0.154061 -4.55369)
(4.43648 -0.153134 -5.67618)
(3.93314 0.665683 -2.95473)
(4.04428 -0.58804 -1.11283)
(4.06591 -0.113282 -4.65402)
(-1.95122 0.135472 2.11033)
(-1.27927 0.656493 1.62794)
(1.36595 0.551818 -1.55457)
(-0.368362 1.34293 1.18135)
(-2.83999 -0.430308 3.27724)
(0.578651 -0.328311 -0.154695)
(0.823934 -0.375589 9.89163)
(1.34603 0.184359 9.41005)
(1.22638 0.0585319 9.03575)
(4.15072 0.233801 11.0266)
(5.80164 0.436354 11.5432)
(1.4465 0.923374 8.47345)
(0.545761 0.0440936 7.94469)
(3.04287 0.389606 7.36269)
(2.4039 0.694067 8.05314)
(1.73608 0.828111 7.81716)
(3.024 -0.028806 8.24655)
(-1.78064 0.411503 12.4149)
(3.14664 0.198687 -3.39311)
(3.16035 -0.0209325 -3.77429)
(3.67625 -0.210089 -3.50989)
(3.17599 -0.0749782 -3.07588)
(4.30183 -0.43501 -1.95288)
(4.09398 -0.411669 0.363411)
(2.97611 -0.0654281 -5.93599)
(3.00891 0.0774137 -6.03665)
(3.05212 0.113657 -5.97655)
(2.88441 0.109936 -5.85207)
(2.67412 0.320673 -5.6469)
(2.62854 0.174389 -6.36065)
(3.05054 -0.161845 -4.85513)
(3.09432 -0.189898 -4.79543)
(3.12972 0.0757629 -4.78304)
(3.09891 0.0155775 -4.55)
(3.18017 0.185478 -4.2064)
(3.39073 0.301371 -4.60134)
(1.81146 -0.321037 -2.28194)
(1.7595 -0.360407 -1.61772)
(1.68377 -0.0669778 -2.20132)
(1.85202 -0.220662 -2.08344)
(2.26586 -0.212396 -2.13442)
(2.0234 0.158087 -1.83827)
(1.05544 -0.235969 0.381467)
(1.1668 -0.0118703 1.74132)
(0.836056 0.0202238 0.734796)
(1.28843 -0.149995 -0.815022)
(1.80082 -0.44025 -2.82356)
(1.27304 -0.170712 1.22535)
(0.383667 0.207841 2.48434)
(1.20794 0.201034 2.89353)
(0.452105 -0.0382233 3.07268)
(0.152451 0.0828109 -0.419137)
(0.863441 -0.556039 -3.79511)
(1.86818 -0.0694969 3.25854)
(1.47183 0.200772 -0.108095)
(0.768665 -0.00458532 -0.248224)
(0.521779 -0.327721 1.51302)
(1.30796 -0.313565 -2.39335)
(2.32866 -0.085254 -4.24457)
(1.97699 0.363672 0.327086)
(3.78335 -0.0619255 -5.0218)
(4.03864 0.0989538 -5.72709)
(3.89835 -0.427194 -5.76415)
(4.96595 -0.769592 -5.89341)
(5.45438 -0.009907 -6.45521)
(4.07796 0.465249 -5.64955)
(4.33781 -0.0624868 -6.04238)
(4.40916 0.329141 -6.36906)
(4.19491 -0.219756 -6.91537)
(4.61233 -0.646603 -5.94164)
(5.07259 -0.163939 -4.58061)
(4.60472 0.614678 -6.61766)
(2.16683 0.00488093 -2.3666)
(2.344 0.516523 -2.73304)
(2.46316 0.139585 -3.78909)
(2.08324 -0.30871 -1.91251)
(-0.94755 -0.0918124 4.18451)
(2.24037 0.607553 -3.20775)
(2.26314 -0.307018 9.79946)
(2.5649 0.0596709 9.6977)
(3.09726 -0.404528 9.63502)
(5.56252 -0.233751 11.6554)
(6.69871 0.33327 12.6954)
(3.14417 0.860579 9.09283)
(-1.68888 0.134874 10.878)
(-0.356619 0.372505 10.4751)
(-1.20107 0.424491 11.8063)
(-1.26689 0.358163 10.2312)
(-0.472644 -0.731923 10.7779)
(-3.53712 -0.214918 14.0011)
(6.71224 0.0569423 1.15634)
(6.73847 -0.315648 0.737791)
(6.52633 -0.599229 0.770059)
(6.40714 -0.50953 1.0825)
(6.66874 -1.18355 1.20046)
(4.7255 -0.786874 1.53121)
(2.18202 -0.0654342 -1.77787)
(2.07415 -0.0049783 -1.7378)
(2.16555 -0.21093 -1.68987)
(1.96339 -0.21342 -2.11602)
(1.80491 -0.12275 -2.14842)
(1.90179 -0.100286 -1.79927)
(3.5295 -0.0347301 -1.82336)
(3.52371 -0.0413655 -1.82915)
(3.46725 -0.0140613 -1.77117)
(3.48028 -0.0932718 -1.82481)
(3.38664 -0.0248553 -1.93353)
(3.35275 0.0164182 -1.91875)
(2.10365 -0.0596043 -0.921)
(2.12109 -0.00036714 -0.813486)
(2.0412 0.0980346 -0.796211)
(1.8857 0.0538932 -0.847251)
(1.71606 -0.0451301 -0.791291)
(1.95811 -0.0917754 -0.762892)
(1.64082 -0.106641 -0.294566)
(1.55075 0.0866901 -0.0427614)
(1.54222 0.421002 -0.210709)
(1.36754 0.498951 -0.374559)
(1.12094 -0.0858144 -0.284996)
(1.41819 -0.376535 -0.0894566)
(-0.071234 0.0170069 0.477927)
(-0.0865569 0.226188 0.718361)
(-0.0908864 0.593274 0.798965)
(0.0982906 0.964004 -0.0474781)
(-0.0286762 -0.06701 0.202133)
(-0.00276427 -0.555614 0.746128)
(-1.03397 -0.020564 0.656547)
(-0.786547 0.0765277 0.356526)
(-0.852299 0.30091 0.587473)
(-0.529283 0.474287 0.446171)
(-0.552203 0.141569 0.403321)
(-1.15546 -0.0664703 0.74478)
(0.203462 0.0441624 -1.34135)
(0.802845 -0.102107 -1.99588)
(-0.201546 -0.102127 -0.883659)
(1.72738 -0.0125099 -2.47098)
(2.38339 0.0955061 -3.03799)
(-1.47182 -0.0304714 -1.09852)
(3.07526 0.0420482 -6.55156)
(3.01762 -0.0829711 -6.47653)
(2.85298 -0.524314 -6.17178)
(3.66092 -0.754831 -6.63064)
(4.55526 0.0569772 -5.96644)
(3.81874 0.438353 -6.38144)
(2.87738 -0.0358097 -4.22408)
(2.87144 -0.0499502 -4.34942)
(2.87696 -0.377888 -4.42044)
(2.74115 -0.725848 -3.93944)
(2.67214 0.00504638 -2.89236)
(2.76624 0.448126 -4.12165)
(-5.32001 -0.00476629 11.2233)
(-5.32698 -0.00286816 11.2247)
(-5.32532 0.00210508 11.2221)
(-5.32283 -0.000575829 11.2224)
(-5.32479 0.000605257 11.2248)
(-5.32305 0.00157318 11.2225)
(-4.26539 -0.00567629 15.2455)
(-4.26905 -0.00318875 15.2331)
(-4.26923 0.00232657 15.2357)
(-4.26771 -0.00129891 15.2386)
(-4.2685 0.000527729 15.2363)
(-4.26809 0.00184766 15.2391)
(-1.7795 -0.00429872 16.22)
(-1.7741 -0.00221196 16.1776)
(-1.77799 0.00115773 16.1948)
(-1.77843 -0.00152911 16.1993)
(-1.77675 0.00056943 16.1895)
(-1.78003 0.00133562 16.205)
(-4.44039 -0.00283512 1.42111)
(-4.44124 -0.0021594 1.41783)
(-4.44408 -0.000226874 1.41739)
(-4.43876 -0.00197487 1.41932)
(-4.43963 7.2052e-05 1.41869)
(-4.4409 0.00115629 1.41755)
(-1.28076 -0.00657574 3.37418)
(-1.26827 -0.00414536 3.35385)
(-1.27566 0.000420752 3.35916)
(-1.27268 -0.00373327 3.36075)
(-1.2699 0.000762778 3.3555)
(-1.27658 0.00258413 3.36263)
(1.67395 -0.00659883 3.20516)
(1.67406 -0.00318136 3.14784)
(1.67362 0.0013777 3.17228)
(1.67385 -0.00325503 3.1696)
(1.67359 0.00123595 3.15429)
(1.67333 0.00259107 3.17919)
(-6.62075 -0.00203123 -2.44488)
(-6.62223 -0.000400815 -2.44875)
(-6.62213 0.000911712 -2.4462)
(-6.62053 -0.00111833 -2.44807)
(-6.6212 0.000216508 -2.44914)
(-6.61964 0.000530761 -2.44759)
(-2.92489 -0.00242925 -3.38501)
(-2.92333 -0.00127719 -3.39605)
(-2.92485 0.000296136 -3.39014)
(-2.92321 -0.00127149 -3.39158)
(-2.92288 0.000410225 -3.39518)
(-2.92464 0.000869062 -3.39009)
(-0.00949287 -1.7208e-05 -3.43813)
(-0.0118561 -3.69418e-05 -3.45082)
(-0.0103815 -5.08858e-05 -3.44389)
(-0.0110013 2.7659e-07 -3.44595)
(-0.0121086 5.84892e-05 -3.44987)
(-0.0109067 5.37368e-05 -3.44377)
(-3.64546 -0.00499014 -3.4205)
(-3.65608 -0.00265581 -3.41539)
(-3.65127 0.0046641 -3.41725)
(-3.64633 0.00332715 -3.41948)
(-3.64884 -0.00209607 -3.42056)
(-3.64791 -0.00334428 -3.41652)
(-0.56488 -0.000537948 -4.33002)
(-0.56398 -0.000264253 -4.33001)
(-0.564225 0.00052043 -4.32993)
(-0.563692 0.00066393 -4.33045)
(-0.562261 -0.000352509 -4.33078)
(-0.565392 -0.000742293 -4.33008)
(0.00826469 0.000451181 -4.4127)
(0.00803118 0.000220652 -4.41278)
(0.00830052 7.91966e-05 -4.41264)
(0.00820649 0.000506878 -4.41294)
(0.00820242 -2.09695e-05 -4.41318)
(0.00811628 -0.00021647 -4.41265)
(-4.15015 -0.0164368 -3.19822)
(-4.20057 -0.00865633 -3.18483)
(-4.18433 0.0133522 -3.18936)
(-4.15629 0.0132747 -3.19573)
(-4.15869 -0.00902269 -3.20265)
(-4.1803 -0.0162824 -3.18237)
(-0.520499 -0.00299596 -3.31216)
(-0.523291 -0.0015998 -3.30922)
(-0.521878 0.00266537 -3.31081)
(-0.520859 0.00286562 -3.31179)
(-0.516735 -0.00211137 -3.31391)
(-0.524869 -0.00372815 -3.30956)
(-0.13144 -0.000276974 -3.30919)
(-0.131967 -0.000144823 -3.30708)
(-0.13169 0.000332975 -3.30812)
(-0.131758 0.000455741 -3.3088)
(-0.131594 -0.0002902 -3.30993)
(-0.131995 -0.000546203 -3.30721)
(-5.3561 -0.0277487 -3.23299)
(-5.51971 -0.0122017 -3.18676)
(-5.47508 0.0179881 -3.20061)
(-5.37733 0.0227635 -3.22397)
(-5.35688 -0.0148004 -3.23827)
(-5.4832 -0.0304963 -3.18897)
(-0.776879 -0.0212597 -1.77438)
(-0.794549 -0.0123928 -1.77068)
(-0.786272 0.0179165 -1.77348)
(-0.781076 0.0165174 -1.77346)
(-0.769544 -0.0129689 -1.77958)
(-0.795053 -0.0210669 -1.76822)
(0.138084 -0.000998351 -2.00313)
(0.135403 -0.000479535 -1.99368)
(0.136324 0.000712068 -1.99787)
(0.137184 0.00111582 -2.00138)
(0.137943 -0.000927739 -2.006)
(0.135457 -0.00184585 -1.99468)
(-8.10196 -0.0140034 -2.63176)
(-8.39007 0.000542072 -2.48776)
(-8.30986 0.000100077 -2.52926)
(-8.15119 0.00798694 -2.60238)
(-8.07734 0.000330289 -2.63241)
(-8.35147 -0.0110446 -2.51483)
(-2.66357 -0.0531473 -1.22034)
(-2.83825 -0.0314585 -1.16775)
(-2.77941 0.0402633 -1.18931)
(-2.69548 0.037932 -1.20623)
(-2.64911 -0.0275773 -1.23123)
(-2.81801 -0.043968 -1.16711)
(0.807764 -0.0101209 0.918868)
(0.795314 -0.00617405 0.953995)
(0.800833 0.0071151 0.939467)
(0.803115 0.0071713 0.926685)
(0.81029 -0.00728747 0.912364)
(0.795478 -0.0114429 0.949592)
(-10.4142 0.0173234 2.49024)
(-10.6528 0.0202861 2.61727)
(-10.5721 -0.0251058 2.58059)
(-10.48 -0.0207565 2.5213)
(-10.4085 0.0218771 2.49574)
(-10.6096 0.0261675 2.57951)
(-6.00332 -0.00422813 1.12179)
(-6.40698 -0.00311502 1.32946)
(-6.28032 -0.00396359 1.25568)
(-6.09146 -0.000719786 1.18063)
(-5.98619 0.00351829 1.14147)
(-6.35496 0.0113718 1.2815)
(-0.718924 -0.0398508 4.38561)
(-0.830013 -0.0231109 4.45767)
(-0.793903 0.0258052 4.42982)
(-0.741518 0.0231491 4.40545)
(-0.712931 -0.0184164 4.39922)
(-0.821938 -0.0287496 4.43204)
(-9.99215 0.022598 9.77741)
(-10.1457 0.0175188 9.60145)
(-10.0694 -0.0218733 9.66064)
(-10.0647 -0.0206181 9.74316)
(-10.0466 0.0148719 9.81399)
(-10.0684 0.0266608 9.59104)
(-7.72843 0.0580516 5.84016)
(-7.94216 0.0315762 5.75691)
(-7.86788 -0.0459476 5.78153)
(-7.80894 -0.0424619 5.84437)
(-7.7785 0.0320966 5.92129)
(-7.8793 0.064431 5.71882)
(-1.37683 0.0403388 6.14277)
(-1.60512 0.0181699 6.21521)
(-1.53094 -0.0349769 6.18336)
(-1.43485 -0.0377487 6.17214)
(-1.39469 0.0282211 6.18638)
(-1.56112 0.0591074 6.17543)
(-10.1371 0.031502 7.19769)
(-10.1812 0.0134047 6.70889)
(-10.1555 -0.0204915 6.88135)
(-10.1824 -0.0160533 7.08291)
(-10.2391 0.00965199 7.27882)
(-10.1121 0.0292814 6.73908)
(-5.22687 0.0690384 3.05849)
(-5.23433 0.0343647 2.79987)
(-5.22384 -0.0455436 2.88755)
(-5.2593 -0.0433487 2.99694)
(-5.30806 0.0277758 3.10582)
(-5.18308 0.0647701 2.81404)
(-1.69957 0.0450991 2.25448)
(-1.71535 0.0196965 2.17559)
(-1.70491 -0.0287637 2.20166)
(-1.72104 -0.029323 2.23677)
(-1.75317 0.0186845 2.275)
(-1.68116 0.0463316 2.17801)
(-5.96105 0.0172766 -6.37411)
(-5.81258 0.00746901 -6.5775)
(-5.87143 -0.00861202 -6.50517)
(-5.92853 -0.00555909 -6.43255)
(-6.00688 0.00413182 -6.35908)
(-5.81958 0.00939805 -6.54806)
(-0.993191 0.0252757 -5.35254)
(-0.969413 0.0113785 -5.38179)
(-0.970847 -0.0109651 -5.35969)
(-0.995413 -0.00553213 -5.38258)
(-1.00785 0.000996762 -5.40305)
(-0.957587 0.00886787 -5.34065)
(-0.317794 0.00501546 -7.55633)
(-0.327976 0.00254669 -7.58372)
(-0.323125 0.00161413 -7.56902)
(-0.320059 0.00703989 -7.57428)
(-0.311914 -0.00657649 -7.57672)
(-0.328729 -0.009506 -7.56585)
(-3.70932 0.000632364 -5.06007)
(-3.71231 0.000862528 -5.08618)
(-3.71041 0.00110718 -5.08218)
(-3.71357 0.00170017 -5.06667)
(-3.71403 -0.00013555 -5.05977)
(-3.70989 -0.000757253 -5.09126)
(-3.15308 -0.00428521 -7.52082)
(-3.16727 -0.00254054 -7.44391)
(-3.16042 0.0042224 -7.47756)
(-3.15782 0.00469926 -7.49768)
(-3.15059 -0.00275738 -7.53947)
(-3.16388 -0.00480092 -7.44831)
(-0.840486 -0.00152452 -4.83263)
(-0.845062 -0.00102785 -4.82271)
(-0.843754 0.00177839 -4.82313)
(-0.843246 0.00212061 -4.83556)
(-0.842642 -0.00202315 -4.84583)
(-0.844419 -0.00293276 -4.81563)
(1.93166 -0.00527081 0.584733)
(1.94123 -0.0122603 0.605975)
(1.96199 0.00171171 0.607364)
(1.82406 -0.00545364 0.61946)
(1.80435 -0.00542002 0.507995)
(1.87162 0.0146023 0.587799)
(1.05689 0.000390588 -4.05923)
(1.08004 0.00952083 -4.15999)
(1.10146 0.0155274 -4.13433)
(1.25702 0.0295823 -3.4821)
(1.20687 0.00805576 -3.44312)
(1.28659 -0.0143823 -3.46461)
(0.945449 0.00152486 -2.03108)
(0.944666 -0.014204 -2.03449)
(0.948154 -0.0538604 -2.03551)
(0.996181 -0.073846 -2.05675)
(0.929897 -0.0293735 -2.05308)
(0.997317 0.00630159 -2.07223)
(0.666485 -6.1898e-05 -0.204006)
(0.666009 4.63691e-05 -0.207674)
(0.662284 -0.00296009 -0.204891)
(0.671168 0.000440186 -0.198446)
(0.668116 5.32155e-06 -0.171385)
(0.663254 -0.00434853 -0.193467)
(-0.378133 0.00644737 -1.71114)
(-0.379729 0.0106841 -1.72274)
(-0.368969 0.0219799 -1.75899)
(-0.375163 0.00465932 -1.61336)
(-0.352665 0.00712954 -1.61965)
(-0.34923 0.0222292 -1.68106)
(0.482709 -0.00174662 -2.4489)
(0.483784 -0.00510111 -2.45311)
(0.474643 -0.020013 -2.45215)
(0.453047 -0.0289121 -2.45747)
(0.434486 -0.00704239 -2.45082)
(0.428716 0.00478528 -2.4727)
(0.235948 0.000302666 0.189215)
(0.234786 -7.38981e-05 0.188576)
(0.234375 -0.00137311 0.187896)
(0.233332 -0.00195145 0.188746)
(0.233929 0.000670703 0.188871)
(0.231224 0.0018833 0.182883)
(-0.0948965 0.00103329 -1.4154)
(-0.0931478 0.00337377 -1.40901)
(-0.0884208 0.00753657 -1.40756)
(-0.0747714 0.00525945 -1.43125)
(-0.0797416 0.00910286 -1.43745)
(-0.0703029 0.00997939 -1.41224)
(0.112494 -0.00211809 -2.19648)
(0.112675 -0.00557545 -2.19802)
(0.110725 -0.0069088 -2.19848)
(0.0969471 -0.00896411 -2.19885)
(0.0881954 -0.00729791 -2.20514)
(0.0946264 -0.00202396 -2.19172)
(-0.267019 4.7917e-06 0.253734)
(-0.266775 0.000311898 0.253033)
(-0.266819 -0.0024842 0.252597)
(-0.266946 -0.00266179 0.254764)
(-0.267318 0.00247898 0.258265)
(-0.266858 0.00262641 0.249078)
(-1.34446 0.000154528 -1.27747)
(-1.34438 0.00101053 -1.27118)
(-1.34388 0.00308469 -1.26591)
(-1.33824 -0.000145237 -1.29258)
(-1.33694 0.00424768 -1.29999)
(-1.34306 0.00752916 -1.2603)
(-0.36526 -0.00107005 -2.54381)
(-0.36636 -0.00240563 -2.54529)
(-0.368516 -0.00177551 -2.54357)
(-0.370195 -0.00243179 -2.54777)
(-0.371741 -0.00266971 -2.55234)
(-0.376694 -0.00085847 -2.53304)
(-0.489412 2.37278e-05 0.257953)
(-0.490125 0.000242813 0.257017)
(-0.489541 -0.00219275 0.256848)
(-0.491379 -0.002453 0.258591)
(-0.491502 0.00227015 0.261472)
(-0.489615 0.00250307 0.25427)
(-1.83001 0.000264093 -1.97565)
(-1.82857 7.73985e-05 -1.97447)
(-1.82912 0.00110909 -1.97068)
(-1.82619 -0.00169162 -1.98864)
(-1.82529 0.00164933 -1.99605)
(-1.82976 0.00545775 -1.96287)
(-0.950606 -0.000383571 -3.26708)
(-0.95076 -0.0011614 -3.26841)
(-0.952304 1.79855e-05 -3.26643)
(-0.950832 0.00022911 -3.2711)
(-0.950026 -0.00210081 -3.27572)
(-0.956557 -0.00171749 -3.25874)
(-1.72642 0.000482433 0.981677)
(-1.72844 0.000629878 0.985536)
(-1.72735 -0.00144569 0.983489)
(-1.73004 -0.00150499 0.983133)
(-1.73202 0.00154132 0.983073)
(-1.726 0.00159789 0.982904)
(-3.52992 -0.000840369 -4.81445)
(-3.52632 -0.00095046 -4.81332)
(-3.52946 0.00159137 -4.80886)
(-3.52609 0.00075976 -4.82228)
(-3.52525 -0.000396509 -4.82573)
(-3.53106 0.00111648 -4.80473)
(-1.49522 -0.000314361 -3.71469)
(-1.49474 -0.000790136 -3.71717)
(-1.49625 0.000831962 -3.71596)
(-1.49382 0.00143348 -3.71782)
(-1.49244 -0.00210583 -3.72099)
(-1.499 -0.0024109 -3.71203)
(4.59766 -0.288415 10.1572)
(4.81027 -0.108633 10.2965)
(5.42509 -0.730951 10.4563)
(7.82995 -0.565039 11.9489)
(8.52538 0.175666 12.9982)
(4.95059 0.831449 10.1597)
(6.79266 -0.271694 11.2962)
(6.91555 -0.201463 11.6187)
(7.21985 -0.75756 11.9637)
(9.36737 -0.470891 12.8516)
(9.72471 -0.136424 13.8224)
(6.17393 0.723368 12.2329)
(8.0815 -0.249462 15.5781)
(8.13721 -0.295622 15.9503)
(8.07786 -0.827794 15.8501)
(9.66483 -0.539952 15.4475)
(9.63493 -0.187266 15.9422)
(6.64706 0.702038 16.2131)
(-2.60329 0.133392 12.3838)
(-1.94822 0.0902584 12.082)
(-2.81342 0.0707238 13.7576)
(-2.66313 0.0013411 11.4857)
(-2.0364 -1.65714 12.0846)
(-2.76345 -1.02202 12.1897)
(-3.68902 0.306986 14.8427)
(-3.41576 -0.191668 15.1831)
(-3.51581 -0.0692827 15.4463)
(-4.25656 0.400033 14.3481)
(-3.45075 -2.04584 14.4682)
(-2.05679 -1.21315 9.91755)
(-1.42321 0.294804 10.1001)
(-1.6734 -0.288226 11.8398)
(-1.17682 -0.281881 9.37395)
(-2.76113 0.563207 10.1332)
(-2.3231 -0.957113 10.5336)
(0.0118762 -0.277538 4.73862)
(6.92389 0.0756822 -2.15057)
(7.18661 0.0813671 -2.57306)
(6.59201 -0.207741 -2.68015)
(6.51129 0.224873 -2.10483)
(6.63937 -0.536591 -1.75104)
(6.06026 -0.323559 -1.64401)
(4.9535 -0.247516 -0.477149)
(5.10971 0.232616 -0.0997937)
(4.27031 -0.805788 -0.910755)
(2.38393 -0.167225 1.95753)
(2.85536 0.472195 1.76796)
(4.44377 0.849667 -1.02678)
(0.157335 -0.343982 0.415221)
(0.0739625 -0.0218512 1.61864)
(0.345156 -1.24449 0.0933558)
(0.15434 -0.438516 -1.38777)
(-0.0592249 0.515033 -1.163)
(0.385543 1.04032 1.1419)
(0.724113 -0.107232 -4.97089)
(0.594692 -0.0483838 -4.91615)
(0.65059 -0.309985 -4.80282)