/*--------------------------------*- C++ -*----------------------------------*\
| =========                 |                                                 |
| \\      /  F ield         | OpenFOAM: The Open Source CFD Toolbox           |
|  \\    /   O peration     | Version:  v1612+                                |
|   \\  /    A nd           | Web:      www.OpenFOAM.com                      |
|    \\/     M anipulation  |                                                 |
\*---------------------------------------------------------------------------*/
FoamFile
{
    version     2.0;
    format      ascii;
    class       volScalarField;
    location    "0.65";
    object      p_rgh;
}
// * * * * * * * * * * * * * * * * * * * * * * * * * * * * * * * * * * * * * //

dimensions      [1 -1 -2 0 0 0 0];

internalField   nonuniform List<scalar> 
1116
(
19247
19247
19247
19247
19247
19247
18404.9
18404.9
18404.9
18404.9
18404.9
18404.9
17404.1
17404.1
17404.1
17404.1
17404.1
17404.1
11175.8
11175.8
11175.8
11175.8
11175.8
11175.8
793.342
793.342
793.342
793.342
793.34
793.342
16.5944
16.5938
16.5934
16.5931
16.593
16.5936
21.0722
21.0724
21.0727
21.0728
21.0728
21.0727
11.5621
11.5621
11.5621
11.5623
11.5625
11.5627
6.81057
6.81064
6.81076
6.81092
6.81108
6.81122
4.11384
4.11401
4.11417
4.11421
4.11415
4.11407
2.70792
2.70778
2.70753
2.70723
2.70689
2.70662
2.13927
2.13943
2.13949
2.13947
2.1394
2.13935
20082.1
20082.1
20082.1
20082.1
20082.1
20082.1
19801.7
19801.7
19801.7
19801.7
19801.7
19801.7
19706
19706
19706
19706
19706
19706
15795.6
15795.6
15795.6
15795.6
15795.6
15795.6
656.06
656.055
656.052
656.049
656.045
656.048
12.4571
12.4558
12.4547
12.4537
12.4527
12.4525
17.4788
17.48
17.4816
17.4827
17.4831
17.4827
6.80972
6.8098
6.80995
6.81022
6.81045
6.81057
3.86654
3.86657
3.86649
3.86642
3.86643
3.8665
2.39945
2.39924
2.399
2.3988
2.39866
2.3986
1.66879
1.66834
1.66791
1.6676
1.66739
1.66729
1.19188
1.19176
1.19167
1.19161
1.19157
1.19154
21148.2
21148.2
21148.2
21148.2
21148.2
21148.2
21888.7
21888.7
21888.7
21888.7
21888.7
21888.7
23172.1
23172.1
23172.1
23172.1
23172.1
23172.1
23728.9
23728.9
23728.9
23728.8
23728.8
23728.8
-69.5768
-69.5772
-69.5776
-69.578
-69.5776
-69.577
-8.77416
-8.77395
-8.77391
-8.77403
-8.7743
-8.77475
-2.64119
-2.64074
-2.64042
-2.64006
-2.63985
-2.63988
-0.465534
-0.465316
-0.46532
-0.465374
-0.465518
-0.465728
0.127912
0.127708
0.127529
0.12735
0.127199
0.127105
0.409919
0.409462
0.409102
0.408903
0.408864
0.408909
0.331129
0.331189
0.331257
0.331351
0.331465
0.331565
0.329198
0.329309
0.329428
0.329548
0.329646
0.329713
21599.8
21599.8
21599.8
21599.8
21599.8
21599.8
23327.3
23327.3
23327.3
23327.3
23327.3
23327.3
26761.5
26761.5
26761.5
26761.5
26761.5
26761.5
32154.3
32154.3
32154.3
32154.3
32154.3
32154.3
-47.2071
-47.2059
-47.2057
-47.2056
-47.2057
-47.2064
-20.4435
-20.4432
-20.4432
-20.4431
-20.443
-20.443
-9.77567
-9.77559
-9.77562
-9.77558
-9.7755
-9.77543
-4.88198
-4.88198
-4.88195
-4.88202
-4.88219
-4.88239
-2.38219
-2.38234
-2.38248
-2.38268
-2.38292
-2.38311
-1.21409
-1.21399
-1.21386
-1.21375
-1.21365
-1.21358
-0.552258
-0.552147
-0.551954
-0.551704
-0.551446
-0.551237
-0.318319
-0.318156
-0.317951
-0.317727
-0.317523
-0.317378
-0.00321052
-0.00320465
-0.00320199
-0.00320175
-0.00320245
-0.00320322
-0.00339786
-0.00339396
-0.00339247
-0.00339336
-0.00339539
-0.00339802
-0.00380116
-0.00379869
-0.00379788
-0.00379951
-0.00380214
-0.00380509
-0.00442236
-0.00442235
-0.00442251
-0.00442488
-0.00442789
-0.00443087
-0.00526539
-0.00526902
-0.00527075
-0.00527369
-0.00527668
-0.00527914
-0.00632627
-0.00633424
-0.0063375
-0.00634041
-0.00634249
-0.00634348
-0.00758929
-0.00760097
-0.0076048
-0.00760649
-0.00760632
-0.00760461
-0.00903286
-0.00904616
-0.00904888
-0.00904788
-0.00904414
-0.00903877
-0.0106543
-0.0106665
-0.0106664
-0.0106621
-0.0106543
-0.0106453
-0.0124995
-0.0125087
-0.0125052
-0.0124976
-0.0124869
-0.0124756
-0.014181
-0.0141874
-0.0141817
-0.0141727
-0.0141611
-0.0141499
-0.016318
-0.016319
-0.0163124
-0.0163034
-0.0162931
-0.0162834
-0.00305537
-0.00305158
-0.00305027
-0.00305115
-0.00305311
-0.00305569
-0.00324956
-0.00324732
-0.00324692
-0.00324873
-0.00325184
-0.003256
-0.00366412
-0.00366299
-0.00366321
-0.00366565
-0.00366929
-0.00367367
-0.00430687
-0.00430756
-0.00430875
-0.00431166
-0.00431545
-0.00431952
-0.00518631
-0.00518959
-0.00519186
-0.00519486
-0.00519808
-0.00520082
-0.00630132
-0.00630733
-0.00631006
-0.0063122
-0.00631355
-0.00631345
-0.00763409
-0.00764163
-0.00764338
-0.00764314
-0.00764101
-0.00763654
-0.00914097
-0.00914778
-0.00914665
-0.00914265
-0.00913598
-0.00912659
-0.0107448
-0.0107488
-0.010744
-0.0107361
-0.0107254
-0.0107124
-0.0123561
-0.0123576
-0.01235
-0.0123398
-0.0123274
-0.0123136
-0.0145016
-0.014502
-0.0144939
-0.0144839
-0.0144724
-0.0144603
-0.0175685
-0.0175669
-0.0175597
-0.0175513
-0.017542
-0.0175315
-0.0027663
-0.00276359
-0.0027629
-0.00276426
-0.00276654
-0.00276922
-0.00295791
-0.00295646
-0.00295666
-0.0029588
-0.00296208
-0.00296613
-0.00336673
-0.00336619
-0.00336707
-0.00336973
-0.00337343
-0.00337765
-0.00400658
-0.00400756
-0.00400921
-0.00401217
-0.00401588
-0.00401969
-0.00489605
-0.00489897
-0.00490117
-0.00490387
-0.00490671
-0.00490902
-0.00605151
-0.00605591
-0.00605771
-0.00605895
-0.00605951
-0.00605885
-0.00749525
-0.0074994
-0.00749911
-0.00749736
-0.00749418
-0.00748934
-0.00930258
-0.00930434
-0.00930022
-0.00929469
-0.00928744
-0.00927869
-0.0117849
-0.0117835
-0.0117763
-0.011768
-0.0117584
-0.011748
-0.0154636
-0.0154615
-0.015454
-0.015446
-0.0154374
-0.0154288
-0.0189433
-0.0189448
-0.0189399
-0.0189348
-0.0189293
-0.0189236
-0.0234798
-0.0234834
-0.0234813
-0.0234789
-0.0234758
-0.0234709
-0.00233973
-0.00233793
-0.00233779
-0.00233925
-0.00234144
-0.00234393
-0.00251785
-0.00251703
-0.00251771
-0.00251979
-0.00252279
-0.00252637
-0.00289878
-0.00289874
-0.00289995
-0.00290245
-0.00290577
-0.00290943
-0.00350277
-0.0035039
-0.00350561
-0.00350825
-0.00351143
-0.0035146
-0.00436007
-0.00436243
-0.00436422
-0.0043663
-0.00436844
-0.00437011
-0.00550472
-0.00550741
-0.00550816
-0.00550849
-0.00550833
-0.00550726
-0.0069514
-0.00695253
-0.00695062
-0.00694804
-0.00694464
-0.00694031
-0.00862523
-0.00862324
-0.00861778
-0.0086124
-0.00860647
-0.00860019
-0.0101575
-0.0101535
-0.0101468
-0.0101408
-0.0101351
-0.0101299
-0.0110025
-0.011002
-0.0109976
-0.0109949
-0.0109928
-0.010991
-0.0121035
-0.012112
-0.0121124
-0.012114
-0.0121152
-0.0121151
-0.0145087
-0.0145219
-0.0145249
-0.014528
-0.014529
-0.0145252
20471.9
20471.9
20471.9
20471.9
20471.9
20471.9
15531.8
15531.8
15531.8
15531.8
15531.8
15531.8
9611.61
9611.61
9611.61
9611.6
9611.6
9611.6
23777.6
23777.6
23777.6
23777.6
23777.6
23777.6
18364.8
18364.8
18364.8
18364.8
18364.8
18364.8
14267.3
14267.2
14267.2
14267.3
14267.3
14267.2
30469.1
30469.1
30469.1
30469.1
30469.1
30469.1
22278.2
22278.2
22278.2
22278.2
22278.2
22278.2
23639.6
23639.6
23639.6
23639.7
23639.7
23639.7
38709.2
38709.2
38709.2
38709.2
38709.2
38709.2
32480.1
32480.1
32480.1
32480.1
32480.1
32480.1
25354.7
25354.7
25354.7
25354.7
25354.7
25354.7
-36.1063
-36.1056
-36.1057
-36.1057
-36.1056
-36.1065
-29.0458
-29.0447
-29.045
-29.045
-29.0446
-29.0457
-60.4835
-60.4827
-60.4828
-60.4827
-60.4822
-60.4827
-26.264
-26.2639
-26.2639
-26.2639
-26.2639
-26.264
-35.0964
-35.0962
-35.0962
-35.0962
-35.0962
-35.0963
-45.0042
-45.0041
-45.0042
-45.0042
-45.0042
-45.0042
-12.3319
-12.3319
-12.3318
-12.3318
-12.3317
-12.3318
-11.2
-11.2
-11.1999
-11.1999
-11.1999
-11.2
-10.0414
-10.0414
-10.0414
-10.0414
-10.0414
-10.0414
-7.08363
-7.08365
-7.0836
-7.08359
-7.0836
-7.0836
-7.47668
-7.47665
-7.47665
-7.47668
-7.47671
-7.47673
-6.5251
-6.52509
-6.5251
-6.52511
-6.52512
-6.52511
-3.59008
-3.59003
-3.59004
-3.59012
-3.59021
-3.59026
-3.63674
-3.63673
-3.63677
-3.63682
-3.63686
-3.63688
-2.61623
-2.61624
-2.61625
-2.61626
-2.61626
-2.61625
-1.83553
-1.83551
-1.83554
-1.83558
-1.83561
-1.83563
-1.86825
-1.86828
-1.86832
-1.86835
-1.86837
-1.86835
-1.22123
-1.22125
-1.22126
-1.22126
-1.22125
-1.22123
-0.889429
-0.889422
-0.889379
-0.889301
-0.889201
-0.889118
-0.928463
-0.928486
-0.928474
-0.928441
-0.92839
-0.928338
-0.552902
-0.552903
-0.552893
-0.552876
-0.552853
-0.552827
-0.484675
-0.484616
-0.484512
-0.484385
-0.484258
-0.484163
-0.494258
-0.494232
-0.494177
-0.494112
-0.494049
-0.494002
-0.267384
-0.267366
-0.267342
-0.267317
-0.267295
-0.267279
-0.0731081
-0.0731355
-0.0731298
-0.0731256
-0.0731198
-0.0731118
-0.0504516
-0.0504683
-0.0504617
-0.0504573
-0.0504497
-0.0504352
-0.022154
-0.022158
-0.0221542
-0.0221515
-0.0221465
-0.0221367
-0.0987145
-0.0987044
-0.0986824
-0.0986652
-0.0986483
-0.0986259
-0.0706691
-0.0706537
-0.0706346
-0.0706207
-0.0706056
-0.070581
-0.0313556
-0.0313474
-0.0313397
-0.0313345
-0.0313277
-0.0313156
-0.13407
-0.134027
-0.133988
-0.133956
-0.133929
-0.133907
-0.0979273
-0.0978887
-0.0978589
-0.0978354
-0.0978176
-0.0978034
-0.0446688
-0.0446533
-0.0446432
-0.044636
-0.0446309
-0.0446273
-0.181321
-0.181266
-0.181221
-0.181175
-0.181144
-0.181136
-0.136277
-0.136234
-0.1362
-0.136169
-0.136153
-0.136162
-0.0648553
-0.0648399
-0.0648293
-0.0648205
-0.064819
-0.0648283
-0.244584
-0.244539
-0.244483
-0.244424
-0.244386
-0.244385
-0.192682
-0.19265
-0.192609
-0.19257
-0.192553
-0.192573
-0.096781
-0.0967698
-0.0967564
-0.0967449
-0.0967442
-0.0967596
-0.300032
-0.299978
-0.299899
-0.299817
-0.299754
-0.299735
-0.276463
-0.276424
-0.276369
-0.276317
-0.276287
-0.276295
-0.14905
-0.149036
-0.149017
-0.149001
-0.148995
-0.149006
-0.00178317
-0.00178221
-0.00178249
-0.00178383
-0.0017857
-0.00178779
-0.00112194
-0.0011217
-0.00112216
-0.00112316
-0.0011245
-0.001126
-0.000399093
-0.00039916
-0.000399423
-0.000399816
-0.000400359
-0.000401046
-0.00192864
-0.00192839
-0.00192926
-0.00193106
-0.00193352
-0.00193641
-0.00121765
-0.00121782
-0.0012186
-0.00121987
-0.00122157
-0.00122356
-0.000434926
-0.000435093
-0.000435442
-0.000435922
-0.000436576
-0.000437402
-0.00224163
-0.00224197
-0.0022432
-0.00224527
-0.00224792
-0.00225079
-0.00142434
-0.00142485
-0.00142581
-0.00142721
-0.00142897
-0.00143089
-0.000512647
-0.000512891
-0.000513287
-0.000513799
-0.000514456
-0.000515219
-0.00274763
-0.00274873
-0.0027502
-0.00275224
-0.00275463
-0.00275697
-0.00176299
-0.00176384
-0.00176484
-0.00176613
-0.00176761
-0.00176906
-0.000642194
-0.000642493
-0.000642863
-0.000643302
-0.000643819
-0.000644337
-0.00349117
-0.00349285
-0.00349407
-0.00349542
-0.00349678
-0.00349775
-0.00227104
-0.00227197
-0.00227263
-0.00227332
-0.00227399
-0.0022744
-0.000841356
-0.000841583
-0.000841767
-0.000841948
-0.000842115
-0.00084216
-0.00454967
-0.00455092
-0.0045509
-0.00455063
-0.00455005
-0.00454886
-0.00301409
-0.00301439
-0.00301405
-0.00301358
-0.00301295
-0.00301196
-0.00114134
-0.00114124
-0.00114102
-0.00114076
-0.00114043
-0.00113993
-0.00608748
-0.0060868
-0.00608438
-0.00608194
-0.00607919
-0.00607604
-0.00411426
-0.00411308
-0.00411122
-0.00410952
-0.00410782
-0.00410605
-0.00159876
-0.00159815
-0.00159745
-0.00159679
-0.00159618
-0.00159559
-0.00848701
-0.00848369
-0.00847929
-0.0084755
-0.00847205
-0.00846895
-0.00579146
-0.00578901
-0.00578629
-0.00578453
-0.00578337
-0.00578278
-0.00231586
-0.00231503
-0.00231428
-0.00231377
-0.00231365
-0.00231397
-0.0125598
-0.0125566
-0.0125526
-0.0125504
-0.0125492
-0.012549
-0.00838344
-0.00838242
-0.0083815
-0.00838185
-0.00838337
-0.00838577
-0.00346951
-0.00346955
-0.00346971
-0.00347024
-0.00347138
-0.0034731
-0.0197419
-0.0197454
-0.0197456
-0.0197476
-0.0197504
-0.0197533
-0.0123038
-0.012309
-0.0123121
-0.0123158
-0.0123199
-0.0123236
-0.00534169
-0.00534379
-0.00534537
-0.00534702
-0.00534875
-0.00535007
-0.0322113
-0.032227
-0.0322321
-0.0322376
-0.0322417
-0.0322422
-0.0190294
-0.0190426
-0.0190479
-0.0190521
-0.0190541
-0.0190513
-0.00856131
-0.00856497
-0.00856652
-0.00856742
-0.00856685
-0.00856311
-0.0489669
-0.0489802
-0.0489836
-0.0489855
-0.0489818
-0.0489652
-0.0284035
-0.0284083
-0.0284094
-0.0284078
-0.0283993
-0.0283764
-0.0135268
-0.0135256
-0.0135244
-0.0135218
-0.0135154
-0.0135009
)
;

boundaryField
{
    seabed_topleft_surface
    {
        type            fixedFluxPressure;
        gradient        uniform 0;
        value           nonuniform List<scalar> 
72
(
19247
19247
19247
19247
19247
19247
18404.9
18404.9
18404.9
18404.9
18404.9
18404.9
17404.1
17404.1
17404.1
17404.1
17404.1
17404.1
11175.8
11175.8
11175.8
11175.8
11175.8
11175.8
793.342
793.342
793.342
793.342
793.34
793.342
16.5944
16.5938
16.5934
16.5931
16.593
16.5936
21.0722
21.0724
21.0727
21.0728
21.0728
21.0727
11.5621
11.5621
11.5621
11.5623
11.5625
11.5627
6.81057
6.81064
6.81076
6.81092
6.81108
6.81122
4.11384
4.11401
4.11417
4.11421
4.11415
4.11407
2.70792
2.70778
2.70753
2.70723
2.70689
2.70662
2.13927
2.13943
2.13949
2.13947
2.1394
2.13935
)
;
    }
    seabed_topright_surface
    {
        type            fixedFluxPressure;
        gradient        uniform 0;
        value           nonuniform List<scalar> 
72
(
-0.00321052
-0.00320465
-0.00320199
-0.00320175
-0.00320245
-0.00320322
-0.00339786
-0.00339396
-0.00339247
-0.00339336
-0.00339539
-0.00339802
-0.00380116
-0.00379869
-0.00379788
-0.00379951
-0.00380214
-0.00380509
-0.00442236
-0.00442235
-0.00442251
-0.00442488
-0.00442789
-0.00443087
-0.00526539
-0.00526902
-0.00527075
-0.00527369
-0.00527668
-0.00527914
-0.00632627
-0.00633424
-0.0063375
-0.00634041
-0.00634249
-0.00634348
-0.00758929
-0.00760097
-0.0076048
-0.00760649
-0.00760632
-0.00760461
-0.00903286
-0.00904616
-0.00904888
-0.00904788
-0.00904414
-0.00903877
-0.0106543
-0.0106665
-0.0106664
-0.0106621
-0.0106543
-0.0106453
-0.0124995
-0.0125087
-0.0125052
-0.0124976
-0.0124869
-0.0124756
-0.014181
-0.0141874
-0.0141817
-0.0141727
-0.0141611
-0.0141499
-0.016318
-0.016319
-0.0163124
-0.0163034
-0.0162931
-0.0162834
)
;
    }
    breakwater_top_surface
    {
        type            fixedFluxPressure;
        gradient        uniform 0;
        value           nonuniform List<scalar> 
36
(
-0.0731081
-0.0731355
-0.0731298
-0.0731256
-0.0731198
-0.0731118
-0.0987145
-0.0987044
-0.0986824
-0.0986652
-0.0986483
-0.0986259
-0.13407
-0.134027
-0.133988
-0.133956
-0.133929
-0.133907
-0.181321
-0.181266
-0.181221
-0.181175
-0.181144
-0.181136
-0.244584
-0.244539
-0.244483
-0.244424
-0.244386
-0.244385
-0.300032
-0.299978
-0.299899
-0.299817
-0.299754
-0.299735
)
;
    }
    breakwater_left_surface
    {
        type            fixedFluxPressure;
        gradient        uniform 0;
        value           nonuniform List<scalar> 
24
(
2.13927
2.13943
2.13949
2.13947
2.1394
2.13935
1.19188
1.19176
1.19167
1.19161
1.19157
1.19154
0.329198
0.329309
0.329428
0.329548
0.329646
0.329713
-0.318319
-0.318156
-0.317951
-0.317727
-0.317523
-0.317378
)
;
    }
    breakwater_right_surface
    {
        type            fixedFluxPressure;
        gradient        uniform 0;
        value           nonuniform List<scalar> 
24
(
-0.016318
-0.016319
-0.0163124
-0.0163034
-0.0162931
-0.0162834
-0.0175685
-0.0175669
-0.0175597
-0.0175513
-0.017542
-0.0175315
-0.0234798
-0.0234834
-0.0234813
-0.0234789
-0.0234758
-0.0234709
-0.0145087
-0.0145219
-0.0145249
-0.014528
-0.014529
-0.0145252
)
;
    }
    water_front_surface
    {
        type            fixedFluxPressure;
        gradient        uniform 0;
        value           nonuniform List<scalar> 
186
(
19247
18404.9
17404.1
11175.8
793.342
16.5944
21.0722
11.5621
6.81057
4.11384
2.70792
2.13927
20082.1
19801.7
19706
15795.6
656.06
12.4571
17.4788
6.80972
3.86654
2.39945
1.66879
1.19188
21148.2
21888.7
23172.1
23728.9
-69.5768
-8.77416
-2.64119
-0.465534
0.127912
0.409919
0.331129
0.329198
21599.8
23327.3
26761.5
32154.3
-47.2071
-20.4435
-9.77567
-4.88198
-2.38219
-1.21409
-0.552258
-0.318319
-0.00321052
-0.00339786
-0.00380116
-0.00442236
-0.00526539
-0.00632627
-0.00758929
-0.00903286
-0.0106543
-0.0124995
-0.014181
-0.016318
-0.00305537
-0.00324956
-0.00366412
-0.00430687
-0.00518631
-0.00630132
-0.00763409
-0.00914097
-0.0107448
-0.0123561
-0.0145016
-0.0175685
-0.0027663
-0.00295791
-0.00336673
-0.00400658
-0.00489605
-0.00605151
-0.00749525
-0.00930258
-0.0117849
-0.0154636
-0.0189433
-0.0234798
-0.00233973
-0.00251785
-0.00289878
-0.00350277
-0.00436007
-0.00550472
-0.0069514
-0.00862523
-0.0101575
-0.0110025
-0.0121035
-0.0145087
20471.9
15531.8
9611.61
23777.6
18364.8
14267.3
30469.1
22278.2
23639.6
38709.2
32480.1
25354.7
-36.1063
-29.0458
-60.4835
-26.264
-35.0964
-45.0042
-12.3319
-11.2
-10.0414
-7.08363
-7.47668
-6.5251
-3.59008
-3.63674
-2.61623
-1.83553
-1.86825
-1.22123
-0.889429
-0.928463
-0.552902
-0.484675
-0.494258
-0.267384
-0.0731081
-0.0504516
-0.022154
-0.0987145
-0.0706691
-0.0313556
-0.13407
-0.0979273
-0.0446688
-0.181321
-0.136277
-0.0648553
-0.244584
-0.192682
-0.096781
-0.300032
-0.276463
-0.14905
-0.00178317
-0.00112194
-0.000399093
-0.00192864
-0.00121765
-0.000434926
-0.00224163
-0.00142434
-0.000512647
-0.00274763
-0.00176299
-0.000642194
-0.00349117
-0.00227104
-0.000841356
-0.00454967
-0.00301409
-0.00114134
-0.00608748
-0.00411426
-0.00159876
-0.00848701
-0.00579146
-0.00231586
-0.0125598
-0.00838344
-0.00346951
-0.0197419
-0.0123038
-0.00534169
-0.0322113
-0.0190294
-0.00856131
-0.0489669
-0.0284035
-0.0135268
)
;
    }
    water_back_surface
    {
        type            fixedFluxPressure;
        gradient        uniform 0;
        value           nonuniform List<scalar> 
186
(
19247
18404.9
17404.1
11175.8
793.342
16.5936
21.0727
11.5627
6.81122
4.11407
2.70662
2.13935
20082.1
19801.7
19706
15795.6
656.048
12.4525
17.4827
6.81057
3.8665
2.3986
1.66729
1.19154
21148.2
21888.7
23172.1
23728.8
-69.577
-8.77475
-2.63988
-0.465728
0.127105
0.408909
0.331565
0.329713
21599.8
23327.3
26761.5
32154.3
-47.2064
-20.443
-9.77543
-4.88239
-2.38311
-1.21358
-0.551237
-0.317378
-0.00320322
-0.00339802
-0.00380509
-0.00443087
-0.00527914
-0.00634348
-0.00760461
-0.00903877
-0.0106453
-0.0124756
-0.0141499
-0.0162834
-0.00305569
-0.003256
-0.00367367
-0.00431952
-0.00520082
-0.00631345
-0.00763654
-0.00912659
-0.0107124
-0.0123136
-0.0144603
-0.0175315
-0.00276922
-0.00296613
-0.00337765
-0.00401969
-0.00490902
-0.00605885
-0.00748934
-0.00927869
-0.011748
-0.0154288
-0.0189236
-0.0234709
-0.00234393
-0.00252637
-0.00290943
-0.0035146
-0.00437011
-0.00550726
-0.00694031
-0.00860019
-0.0101299
-0.010991
-0.0121151
-0.0145252
20471.9
15531.8
9611.6
23777.6
18364.8
14267.2
30469.1
22278.2
23639.7
38709.2
32480.1
25354.7
-36.1065
-29.0457
-60.4827
-26.264
-35.0963
-45.0042
-12.3318
-11.2
-10.0414
-7.0836
-7.47673
-6.52511
-3.59026
-3.63688
-2.61625
-1.83563
-1.86835
-1.22123
-0.889118
-0.928338
-0.552827
-0.484163
-0.494002
-0.267279
-0.0731118
-0.0504352
-0.0221367
-0.0986259
-0.070581
-0.0313156
-0.133907
-0.0978034
-0.0446273
-0.181136
-0.136162
-0.0648283
-0.244385
-0.192573
-0.0967596
-0.299735
-0.276295
-0.149006
-0.00178779
-0.001126
-0.000401046
-0.00193641
-0.00122356
-0.000437402
-0.00225079
-0.00143089
-0.000515219
-0.00275697
-0.00176906
-0.000644337
-0.00349775
-0.0022744
-0.00084216
-0.00454886
-0.00301196
-0.00113993
-0.00607604
-0.00410605
-0.00159559
-0.00846895
-0.00578278
-0.00231397
-0.012549
-0.00838577
-0.0034731
-0.0197533
-0.0123236
-0.00535007
-0.0322422
-0.0190513
-0.00856311
-0.0489652
-0.0283764
-0.0135009
)
;
    }
    water_left_surface
    {
        type            fixedFluxPressure;
        gradient        uniform 0;
        value           nonuniform List<scalar> 
42
(
19247
19247
19247
19247
19247
19247
20082.1
20082.1
20082.1
20082.1
20082.1
20082.1
21148.2
21148.2
21148.2
21148.2
21148.2
21148.2
21599.8
21599.8
21599.8
21599.8
21599.8
21599.8
20471.9
20471.9
20471.9
20471.9
20471.9
20471.9
15531.8
15531.8
15531.8
15531.8
15531.8
15531.8
9611.61
9611.61
9611.61
9611.6
9611.6
9611.6
)
;
    }
    water_right_surface
    {
        type            fixedFluxPressure;
        gradient        uniform 0;
        value           nonuniform List<scalar> 
42
(
-0.00321052
-0.00320465
-0.00320199
-0.00320175
-0.00320245
-0.00320322
-0.00305537
-0.00305158
-0.00305027
-0.00305115
-0.00305311
-0.00305569
-0.0027663
-0.00276359
-0.0027629
-0.00276426
-0.00276654
-0.00276922
-0.00233973
-0.00233793
-0.00233779
-0.00233925
-0.00234144
-0.00234393
-0.00178317
-0.00178221
-0.00178249
-0.00178383
-0.0017857
-0.00178779
-0.00112194
-0.0011217
-0.00112216
-0.00112316
-0.0011245
-0.001126
-0.000399093
-0.00039916
-0.000399423
-0.000399816
-0.000400359
-0.000401046
)
;
    }
    water_top_surface
    {
        type            totalPressure;
        rho             rho;
        psi             none;
        gamma           1;
        p0              uniform 0;
        value           nonuniform List<scalar> 
180
(
0
0
0
0
0
0
0
0
0
0
0
0
0
0
0
0
0
0
0
0
0
0
0
0
-19.1369
-19.1369
-19.1367
-19.1365
-19.1361
-19.1344
-9.34195
-9.34234
-9.34235
-9.34239
-9.34262
-9.34232
-1.53415
-1.53419
-1.53419
-1.53417
-1.53417
-1.53411
-0.615235
-0.615269
-0.615259
-0.61524
-0.615218
-0.615174
-0.195395
-0.195386
-0.195365
-0.195342
-0.195317
-0.195285
-0.0752654
-0.0752604
-0.0752524
-0.0752437
-0.0752344
-0.0752228
-0.0323835
-0.0323831
-0.0323816
-0.0323796
-0.0323773
-0.0323737
-0.0148235
-0.0148237
-0.0148232
-0.0148224
-0.0148213
-0.0148196
-0.000242398
-0.000242412
-0.000242411
-0.000242409
-0.000242407
-0.000242399
-0.000484281
-0.000484317
-0.000484314
-0.000484308
-0.000484298
-0.000484273
-0.000949286
-0.00094936
-0.00094935
-0.000949322
-0.000949285
-0.000949212
-0.00183705
-0.00183718
-0.00183713
-0.00183704
-0.00183692
-0.00183673
-0.0035168
-0.00351693
-0.00351678
-0.00351654
-0.00351623
-0.00351577
-0.00664159
-0.00664149
-0.00664111
-0.00664061
-0.00663994
-0.00663877
-1.32771e-07
-1.32777e-07
-1.32773e-07
-1.32768e-07
-1.32762e-07
-1.32749e-07
-1.50316e-07
-1.50321e-07
-1.50316e-07
-1.50309e-07
-1.50302e-07
-1.50284e-07
-1.90743e-07
-1.90749e-07
-1.90743e-07
-1.90735e-07
-1.90726e-07
-1.90706e-07
-2.67288e-07
-2.67297e-07
-2.67289e-07
-2.67279e-07
-2.67269e-07
-2.67243e-07
-4.08002e-07
-4.08015e-07
-4.08004e-07
-4.07992e-07
-4.07978e-07
-4.07945e-07
-6.73231e-07
-6.73252e-07
-6.73236e-07
-6.7322e-07
-6.732e-07
-6.73152e-07
-1.2012e-06
-1.20124e-06
-1.20121e-06
-1.20119e-06
-1.20116e-06
-1.20109e-06
-2.33416e-06
-2.33423e-06
-2.33417e-06
-2.33414e-06
-2.33411e-06
-2.33398e-06
-4.98597e-06
-4.98607e-06
-4.98599e-06
-4.98595e-06
-4.98592e-06
-4.98571e-06
-1.1761e-05
-1.17612e-05
-1.1761e-05
-1.1761e-05
-1.1761e-05
-1.17607e-05
-3.08278e-05
-3.08285e-05
-3.08284e-05
-3.08286e-05
-3.08288e-05
-3.08284e-05
-8.72114e-05
-8.72132e-05
-8.72132e-05
-8.72133e-05
-8.72139e-05
-8.7212e-05
)
;
    }
}


// ************************************************************************* //
