/*--------------------------------*- C++ -*----------------------------------*\
| =========                 |                                                 |
| \\      /  F ield         | OpenFOAM: The Open Source CFD Toolbox           |
|  \\    /   O peration     | Version:  v1612+                                |
|   \\  /    A nd           | Web:      www.OpenFOAM.com                      |
|    \\/     M anipulation  |                                                 |
\*---------------------------------------------------------------------------*/
FoamFile
{
    version     2.0;
    format      ascii;
    class       volVectorField;
    location    "0.65";
    object      U;
}
// * * * * * * * * * * * * * * * * * * * * * * * * * * * * * * * * * * * * * //

dimensions      [0 1 -1 0 0 0 0];

internalField   nonuniform List<vector> 
1116
(
(0.0665049 2.44759e-08 -0.0747459)
(0.0665051 -5.73888e-08 -0.074746)
(0.0665052 -1.62467e-07 -0.0747461)
(0.0665053 -1.67547e-07 -0.0747462)
(0.0665053 -1.25878e-07 -0.0747462)
(0.0665052 -4.47294e-08 -0.0747462)
(0.175543 1.5315e-07 -0.128867)
(0.175544 4.732e-07 -0.128868)
(0.175544 8.82851e-07 -0.128868)
(0.175544 1.07427e-06 -0.128867)
(0.175544 9.59147e-07 -0.128867)
(0.175543 3.80127e-07 -0.128866)
(0.65641 3.61096e-07 -0.235524)
(0.656411 1.00956e-06 -0.235524)
(0.656411 1.44433e-06 -0.235523)
(0.65641 1.56541e-06 -0.235523)
(0.65641 1.33828e-06 -0.235522)
(0.656409 5.4774e-07 -0.235522)
(0.681292 1.50033e-07 -0.577805)
(0.681292 4.32829e-07 -0.577804)
(0.681292 4.01099e-07 -0.577804)
(0.681291 3.97702e-07 -0.577804)
(0.681291 3.23039e-07 -0.577804)
(0.68129 1.91989e-07 -0.577803)
(2.04582 -2.71172e-06 -0.64516)
(2.04582 -2.40052e-06 -0.645159)
(2.04582 -9.09152e-07 -0.645156)
(2.04582 -1.70755e-06 -0.645156)
(2.04582 -4.19205e-06 -0.645157)
(2.04582 -2.72632e-06 -0.645159)
(3.827 -3.97743e-05 0.620658)
(3.82701 -3.68124e-05 0.620632)
(3.82698 -4.2171e-05 0.620674)
(3.82699 -7.33381e-05 0.620685)
(3.82702 -9.88676e-05 0.620672)
(3.82696 -4.80616e-05 0.620578)
(0.777608 -1.62063e-06 0.627336)
(0.777594 -4.72922e-05 0.627401)
(0.777477 -8.20599e-05 0.627322)
(0.777449 -5.11521e-05 0.627275)
(0.777457 -2.93256e-05 0.62728)
(0.777446 -8.08338e-06 0.627286)
(0.574173 -3.48486e-05 0.263815)
(0.574071 -4.93759e-05 0.263812)
(0.574057 -2.35962e-05 0.263738)
(0.574081 -7.05852e-06 0.26369)
(0.574097 1.3881e-05 0.263681)
(0.574067 1.25313e-05 0.263704)
(0.216737 -2.92889e-05 0.125731)
(0.216604 6.50017e-06 0.125553)
(0.21669 6.97989e-05 0.125571)
(0.216809 6.29086e-05 0.1256)
(0.21689 4.7033e-05 0.125598)
(0.216904 1.87282e-05 0.125582)
(0.0703152 8.89442e-05 0.0561058)
(0.0703729 0.000193573 0.0561428)
(0.0704752 0.000202382 0.0562429)
(0.0705737 0.00017097 0.0563257)
(0.0706494 0.000113894 0.0563702)
(0.0706965 4.08775e-05 0.0563889)
(0.0105193 6.42508e-05 0.0222437)
(0.010617 0.000125339 0.0223668)
(0.0106576 0.000114252 0.0224416)
(0.0106772 9.10159e-05 0.0224935)
(0.0106949 5.69723e-05 0.0225283)
(0.0107187 1.91618e-05 0.0225502)
(-0.00185267 3.74235e-07 0.00478216)
(-0.00181653 2.3771e-06 0.00482782)
(-0.0018159 5.17532e-06 0.00483713)
(-0.00182279 4.55487e-06 0.00483828)
(-0.00182648 -3.10643e-07 0.00483897)
(-0.001822 -1.64543e-06 0.00484158)
(0.0154132 -1.96061e-08 -0.162697)
(0.0154134 -3.1003e-07 -0.162697)
(0.0154132 -6.55398e-07 -0.162697)
(0.0154129 -6.90337e-07 -0.162697)
(0.0154125 -5.02197e-07 -0.162697)
(0.0154123 -1.73222e-07 -0.162697)
(0.0333265 2.06405e-07 -0.292902)
(0.033327 5.21564e-07 -0.292902)
(0.0333265 7.91451e-07 -0.292902)
(0.0333256 9.61568e-07 -0.292901)
(0.0333246 8.63658e-07 -0.292899)
(0.0333239 3.68606e-07 -0.292898)
(0.237947 2.52127e-07 -0.533588)
(0.237947 8.85481e-07 -0.533588)
(0.237946 1.36635e-06 -0.533587)
(0.237945 1.46229e-06 -0.533586)
(0.237944 1.11269e-06 -0.533584)
(0.237943 4.13247e-07 -0.533583)
(0.162812 -1.65607e-07 -1.26316)
(0.162812 2.34128e-07 -1.26316)
(0.162811 5.67843e-07 -1.26316)
(0.162811 3.89757e-07 -1.26316)
(0.16281 1.31488e-07 -1.26316)
(0.162809 4.03585e-08 -1.26316)
(0.74702 -6.27979e-06 -1.59914)
(0.74702 -7.94557e-06 -1.59915)
(0.74702 -2.71309e-06 -1.59914)
(0.747019 -2.65032e-06 -1.59914)
(0.747017 -3.96274e-06 -1.59915)
(0.747016 -1.87329e-06 -1.59916)
(1.25327 -1.12693e-05 2.13311)
(1.25313 -2.5575e-05 2.13303)
(1.25309 -3.03248e-05 2.13311)
(1.25304 -2.83175e-05 2.13312)
(1.25299 -3.86125e-05 2.13307)
(1.25301 -1.9857e-05 2.13286)
(0.192695 1.06141e-05 1.20483)
(0.192636 3.83306e-05 1.20502)
(0.192519 7.00808e-05 1.20487)
(0.19247 8.08919e-05 1.20481)
(0.192437 3.86125e-05 1.20484)
(0.192498 -3.59889e-07 1.20486)
(0.0991507 -2.85124e-05 0.514315)
(0.0989724 3.09896e-05 0.514189)
(0.0989746 0.000116744 0.514066)
(0.0990338 0.000107897 0.513996)
(0.0990478 6.66314e-05 0.513992)
(0.099052 1.59412e-05 0.514032)
(-0.00876693 9.11123e-05 0.240781)
(-0.00894376 0.000167836 0.240547)
(-0.00883356 0.000143244 0.240592)
(-0.00869095 0.000121257 0.240637)
(-0.00861467 9.14265e-05 0.240634)
(-0.00859175 3.66087e-05 0.240623)
(-0.0422706 7.46031e-05 0.0988009)
(-0.0421809 9.38038e-05 0.0989521)
(-0.0420285 2.55189e-05 0.0991368)
(-0.0418972 4.30578e-06 0.0992684)
(-0.0418057 -1.50586e-06 0.0993364)
(-0.0417498 4.86326e-07 0.099366)
(-0.0415906 -2.96377e-05 0.0275352)
(-0.0413999 -8.37075e-05 0.0277443)
(-0.0412904 -0.00011438 0.027858)
(-0.0412148 -0.000112765 0.0279329)
(-0.0411566 -8.5949e-05 0.0279781)
(-0.041114 -3.35008e-05 0.0280009)
(-0.021147 -4.65976e-05 -0.0122927)
(-0.0210594 -9.6757e-05 -0.0122236)
(-0.0210245 -9.97235e-05 -0.0122046)
(-0.0210027 -8.96396e-05 -0.0121954)
(-0.0209856 -6.47134e-05 -0.0121892)
(-0.0209728 -2.45231e-05 -0.0121843)
(-0.0586197 -2.08094e-07 -0.127102)
(-0.05862 -6.34959e-07 -0.127103)
(-0.0586204 -8.70436e-07 -0.127103)
(-0.0586209 -8.06223e-07 -0.127102)
(-0.0586213 -4.99693e-07 -0.127102)
(-0.0586213 -1.5312e-07 -0.127101)
(-0.170119 1.19174e-07 -0.27961)
(-0.17012 2.17502e-07 -0.27961)
(-0.170121 2.4389e-07 -0.279609)
(-0.170122 3.19198e-07 -0.279608)
(-0.170123 2.58352e-07 -0.279605)
(-0.170123 8.78381e-08 -0.279604)
(-0.271672 1.13757e-07 -0.592903)
(-0.271673 5.30514e-07 -0.592902)
(-0.271674 6.94475e-07 -0.5929)
(-0.271675 4.56618e-07 -0.592899)
(-0.271676 -9.07895e-08 -0.592897)
(-0.271675 -2.37477e-07 -0.592895)
(-0.257166 -2.04304e-07 -1.41486)
(-0.257167 -8.84901e-08 -1.41486)
(-0.257167 -5.61089e-08 -1.41486)
(-0.257167 -5.59896e-07 -1.41486)
(-0.257168 -2.50805e-07 -1.41485)
(-0.257167 6.41207e-08 -1.41485)
(-0.677799 2.00771e-05 -1.00145)
(-0.677784 9.59634e-06 -1.00139)
(-0.677781 7.935e-06 -1.00135)
(-0.677782 -6.40645e-06 -1.00131)
(-0.677783 4.37828e-06 -1.00129)
(-0.677797 6.0181e-06 -1.00142)
(-2.15797 1.60287e-05 1.70509)
(-2.15802 3.09675e-05 1.70505)
(-2.15799 6.19199e-05 1.70507)
(-2.15804 0.000103418 1.70509)
(-2.15809 0.000101947 1.70508)
(-2.15794 4.7766e-05 1.70491)
(-0.523641 -1.64563e-05 0.833289)
(-0.523681 4.61728e-05 0.833431)
(-0.523647 0.00014155 0.833345)
(-0.523597 0.000151077 0.833351)
(-0.523554 0.000102662 0.833438)
(-0.52338 2.92323e-05 0.833384)
(-0.366121 4.29998e-05 0.402827)
(-0.366247 0.000108458 0.402617)
(-0.366149 0.000119907 0.402552)
(-0.366028 9.00275e-05 0.402522)
(-0.365932 2.80433e-05 0.402535)
(-0.365778 -7.55653e-06 0.402534)
(-0.216902 8.80016e-05 0.173497)
(-0.216882 0.000122031 0.173498)
(-0.21673 5.34008e-05 0.173567)
(-0.216595 2.85141e-05 0.173595)
(-0.216502 3.97476e-06 0.173601)
(-0.216401 -5.24458e-06 0.173612)
(-0.144354 -2.76124e-05 0.0502636)
(-0.144179 -0.000102639 0.0504943)
(-0.14404 -0.000159041 0.0506315)
(-0.143939 -0.00015485 0.0507052)
(-0.143873 -0.000115766 0.0507356)
(-0.14382 -4.49451e-05 0.0507411)
(-0.0917287 -7.54963e-05 -0.0181558)
(-0.091593 -0.000175106 -0.0180316)
(-0.0915278 -0.000202346 -0.0179812)
(-0.0914819 -0.000187589 -0.0179539)
(-0.0914558 -0.000137622 -0.0179482)
(-0.0914505 -5.27792e-05 -0.0179619)
(-0.0440604 -3.96446e-05 -0.0610964)
(-0.0440209 -7.98238e-05 -0.0610728)
(-0.0440073 -7.88116e-05 -0.061062)
(-0.0439972 -6.78383e-05 -0.0610521)
(-0.043993 -4.45234e-05 -0.0610475)
(-0.0440003 -1.51785e-05 -0.0610509)
(-0.131729 -2.37948e-07 0.0494616)
(-0.13173 -6.56845e-07 0.0494616)
(-0.13173 -7.43684e-07 0.0494618)
(-0.131731 -5.10626e-07 0.0494623)
(-0.131731 -7.39184e-08 0.0494628)
(-0.13173 7.3338e-08 0.0494631)
(-0.409008 -1.45573e-07 -0.121967)
(-0.409009 -4.94718e-07 -0.121967)
(-0.40901 -8.68462e-07 -0.121966)
(-0.40901 -1.0275e-06 -0.121964)
(-0.40901 -9.15219e-07 -0.121962)
(-0.409008 -3.90082e-07 -0.12196)
(-0.830492 -5.47608e-07 -0.512652)
(-0.830493 -6.63387e-07 -0.512651)
(-0.830493 -9.79139e-07 -0.51265)
(-0.830493 -1.54982e-06 -0.512648)
(-0.830492 -1.62302e-06 -0.512648)
(-0.830491 -5.96102e-07 -0.512647)
(-0.677842 5.80385e-08 -1.45776)
(-0.677843 1.09575e-07 -1.45776)
(-0.677843 5.73102e-07 -1.45776)
(-0.677842 2.61438e-07 -1.45776)
(-0.677841 -3.92716e-07 -1.45776)
(-0.677841 -6.88753e-07 -1.45776)
(-1.07011 2.2709e-05 0.957482)
(-1.0701 -5.40766e-06 0.957535)
(-1.07009 2.95229e-05 0.957534)
(-1.07008 5.65909e-05 0.957556)
(-1.07007 6.77154e-05 0.957579)
(-1.0701 3.65275e-06 0.957532)
(-1.10628 2.01381e-05 0.869112)
(-1.10633 2.55722e-05 0.869127)
(-1.10627 4.08069e-05 0.86908)
(-1.10621 8.76499e-05 0.869112)
(-1.10614 9.19048e-05 0.869154)
(-1.10624 4.04744e-05 0.869072)
(-0.789166 -6.98491e-06 0.340298)
(-0.789191 1.70468e-05 0.340303)
(-0.78917 4.39241e-05 0.340259)
(-0.789089 4.26846e-05 0.340284)
(-0.788939 6.33431e-05 0.340362)
(-0.7889 4.10766e-05 0.340325)
(-0.497171 6.12347e-05 0.177535)
(-0.497203 0.000113708 0.177418)
(-0.497118 9.23416e-05 0.177409)
(-0.497029 5.81553e-05 0.177403)
(-0.496905 3.02443e-05 0.177403)
(-0.496793 1.19665e-05 0.177366)
(-0.323941 1.45598e-05 0.0370371)
(-0.323836 -9.83635e-06 0.0371458)
(-0.32372 -5.11662e-05 0.0372122)
(-0.323636 -5.64412e-05 0.0372378)
(-0.323555 -5.40136e-05 0.0372505)
(-0.323463 -2.43408e-05 0.0372532)
(-0.206311 -6.61425e-05 -0.039148)
(-0.206174 -0.000151543 -0.0389812)
(-0.206095 -0.000169856 -0.0389058)
(-0.206046 -0.000153279 -0.0388668)
(-0.206012 -0.000111992 -0.0388542)
(-0.20598 -4.32009e-05 -0.0388633)
(-0.125484 -5.01182e-05 -0.0863627)
(-0.125437 -0.000108143 -0.08632)
(-0.12543 -0.000115184 -0.0863075)
(-0.125433 -0.000102461 -0.0863029)
(-0.125445 -7.14623e-05 -0.0863116)
(-0.125468 -2.62171e-05 -0.0863365)
(-0.0647592 -7.62776e-06 -0.126932)
(-0.0647658 -1.03638e-05 -0.126947)
(-0.0647817 -3.55227e-06 -0.126958)
(-0.0647975 1.42449e-06 -0.126967)
(-0.0648156 7.27003e-06 -0.126979)
(-0.0648387 5.06585e-06 -0.126996)
(-5.445e-05 8.78378e-08 -5.51618e-05)
(-5.44509e-05 7.87945e-08 -5.51741e-05)
(-5.44468e-05 2.87109e-09 -5.51788e-05)
(-5.44447e-05 1.83829e-09 -5.51812e-05)
(-5.44417e-05 -1.4822e-08 -5.51834e-05)
(-5.44306e-05 -4.75313e-09 -5.51909e-05)
(-0.000165323 9.01953e-08 -5.73064e-05)
(-0.000165336 7.3925e-08 -5.7319e-05)
(-0.00016533 -7.81644e-09 -5.73233e-05)
(-0.000165326 -7.03371e-09 -5.73268e-05)
(-0.00016532 -3.97656e-08 -5.73296e-05)
(-0.000165303 -2.45738e-08 -5.73378e-05)
(-0.000282148 1.153e-07 -6.14148e-05)
(-0.000282173 9.74151e-08 -6.14303e-05)
(-0.000282168 -1.05601e-08 -6.14351e-05)
(-0.000282163 -1.21244e-08 -6.14407e-05)
(-0.000282156 -5.12937e-08 -6.14453e-05)
(-0.000282138 -3.21585e-08 -6.14564e-05)
(-0.000408388 1.44011e-07 -6.70237e-05)
(-0.000408412 1.23167e-07 -6.70457e-05)
(-0.000408405 -1.61639e-08 -6.70515e-05)
(-0.000408398 -2.09384e-08 -6.70607e-05)
(-0.000408387 -6.90509e-08 -6.70677e-05)
(-0.000408363 -4.37702e-08 -6.70832e-05)
(-0.000546117 1.70933e-07 -7.31678e-05)
(-0.000546137 1.49934e-07 -7.31976e-05)
(-0.000546133 -1.98337e-08 -7.32043e-05)
(-0.000546124 -3.15651e-08 -7.32161e-05)
(-0.000546112 -8.89329e-08 -7.32241e-05)
(-0.000546084 -5.65636e-08 -7.32419e-05)
(-0.000694806 1.93349e-07 -7.79613e-05)
(-0.000694826 1.7775e-07 -7.79935e-05)
(-0.000694824 -1.96855e-08 -7.80007e-05)
(-0.000694815 -4.16363e-08 -7.80104e-05)
(-0.000694805 -1.06603e-07 -7.80174e-05)
(-0.000694776 -6.94248e-08 -7.80343e-05)
(-0.000849174 2.16774e-07 -7.8001e-05)
(-0.000849204 2.03877e-07 -7.80278e-05)
(-0.0008492 -2.1996e-08 -7.80331e-05)
(-0.000849194 -5.29304e-08 -7.80383e-05)
(-0.000849181 -1.27303e-07 -7.80447e-05)
(-0.000849149 -8.38231e-08 -7.80614e-05)
(-0.000996267 2.43621e-07 -6.795e-05)
(-0.00099631 2.22926e-07 -6.79669e-05)
(-0.000996297 -3.6306e-08 -6.79714e-05)
(-0.00099629 -7.399e-08 -6.79766e-05)
(-0.000996269 -1.59043e-07 -6.7986e-05)
(-0.000996228 -1.00942e-07 -6.8009e-05)
(-0.0011116 2.70425e-07 -4.03695e-05)
(-0.00111165 2.2738e-07 -4.03815e-05)
(-0.00111162 -6.90177e-08 -4.03889e-05)
(-0.00111161 -1.06235e-07 -4.04022e-05)
(-0.00111158 -2.03054e-07 -4.042e-05)
(-0.00111152 -1.22898e-07 -4.04556e-05)
(-0.00113738 2.9158e-07 1.52623e-05)
(-0.00113742 2.20301e-07 1.52401e-05)
(-0.00113738 -1.09605e-07 1.522e-05)
(-0.00113735 -1.397e-07 1.51855e-05)
(-0.0011373 -2.45099e-07 1.51492e-05)
(-0.00113723 -1.4358e-07 1.50882e-05)
(-0.00102757 2.94315e-07 0.000140147)
(-0.00102751 1.98724e-07 0.0001401)
(-0.00102748 -1.46632e-07 0.00014007)
(-0.00102744 -1.66423e-07 0.00014003)
(-0.00102739 -2.78848e-07 0.000139988)
(-0.0010273 -1.62556e-07 0.000139913)
(-0.000536527 1.83062e-07 0.000385155)
(-0.000536457 1.1389e-07 0.000385122)
(-0.000536452 -1.23646e-07 0.000385106)
(-0.000536427 -1.56164e-07 0.000385082)
(-0.000536404 -2.61935e-07 0.000385054)
(-0.000536347 -1.61007e-07 0.000384974)
(-5.34846e-05 6.47439e-08 -0.000161303)
(-5.34849e-05 4.68112e-08 -0.000161322)
(-5.34815e-05 -1.07318e-08 -0.000161328)
(-5.34788e-05 -6.70813e-09 -0.000161332)
(-5.3476e-05 -3.44525e-08 -0.000161334)
(-5.34656e-05 -2.02839e-08 -0.00016134)
(-0.000162689 6.6789e-08 -0.000167933)
(-0.000162697 4.32216e-08 -0.000167954)
(-0.00016269 -2.06322e-08 -0.000167958)
(-0.000162685 -1.57968e-08 -0.000167964)
(-0.000162678 -5.77452e-08 -0.000167967)
(-0.000162658 -3.90198e-08 -0.000167975)
(-0.000278646 8.49095e-08 -0.000180748)
(-0.00027866 5.89894e-08 -0.000180773)
(-0.000278653 -2.70411e-08 -0.000180777)
(-0.000278644 -2.57696e-08 -0.000180787)
(-0.000278633 -7.64249e-08 -0.000180793)
(-0.00027861 -5.17805e-08 -0.000180803)
(-0.000405538 1.04527e-07 -0.000198514)
(-0.000405548 7.65989e-08 -0.000198551)
(-0.00040554 -3.62156e-08 -0.000198557)
(-0.000405527 -4.19649e-08 -0.000198572)
(-0.000405511 -1.04427e-07 -0.000198581)
(-0.00040548 -7.0748e-08 -0.000198595)
(-0.00054656 1.22146e-07 -0.000218457)
(-0.000546566 9.41285e-08 -0.000218503)
(-0.000546557 -4.58711e-08 -0.000218512)
(-0.000546541 -6.28512e-08 -0.000218528)
(-0.000546524 -1.37317e-07 -0.000218537)
(-0.00054649 -9.23084e-08 -0.00021855)
(-0.000702841 1.38316e-07 -0.000234923)
(-0.000702853 1.07935e-07 -0.000234969)
(-0.000702842 -5.83212e-08 -0.000234975)
(-0.000702829 -8.63357e-08 -0.000234985)
(-0.000702812 -1.72434e-07 -0.000234989)
(-0.000702778 -1.14008e-07 -0.000234996)
(-0.00087099 1.5587e-07 -0.000237006)
(-0.000871021 1.15489e-07 -0.000237035)
(-0.000871009 -7.91286e-08 -0.000237034)
(-0.000871 -1.14909e-07 -0.000237035)
(-0.00087098 -2.1254e-07 -0.000237036)
(-0.000870942 -1.36312e-07 -0.000237043)
(-0.00103918 1.76293e-07 -0.000204595)
(-0.00103923 1.14285e-07 -0.000204602)
(-0.00103922 -1.15207e-07 -0.000204599)
(-0.00103921 -1.51888e-07 -0.000204601)
(-0.00103918 -2.60778e-07 -0.000204609)
(-0.00103912 -1.61962e-07 -0.00020463)
(-0.00118289 1.96204e-07 -0.000100788)
(-0.00118295 1.07121e-07 -0.000100789)
(-0.00118293 -1.59526e-07 -0.000100793)
(-0.00118289 -1.9321e-07 -0.000100813)
(-0.00118284 -3.14581e-07 -0.000100839)
(-0.00118275 -1.91604e-07 -0.000100885)
(-0.0012813 2.10364e-07 0.000146525)
(-0.00128134 9.64586e-08 0.000146509)
(-0.00128129 -2.07396e-07 0.000146483)
(-0.00128123 -2.41098e-07 0.000146439)
(-0.00128116 -3.75571e-07 0.000146392)
(-0.00128104 -2.27616e-07 0.000146313)
(-0.00126657 2.29685e-07 0.000526578)
(-0.0012665 1.15965e-07 0.000526515)
(-0.00126645 -2.00237e-07 0.000526469)
(-0.00126637 -2.28082e-07 0.000526411)
(-0.00126629 -3.82035e-07 0.000526349)
(-0.00126614 -2.39583e-07 0.000526244)
(-0.000828952 1.59187e-07 0.00126726)
(-0.000828884 8.83195e-08 0.00126725)
(-0.000828859 -1.43193e-07 0.00126723)
(-0.000828813 -1.966e-07 0.0012672)
(-0.000828763 -3.91998e-07 0.00126715)
(-0.000828665 -2.69907e-07 0.00126704)
(-5.02371e-05 5.25844e-08 -0.000261407)
(-5.02372e-05 3.27694e-08 -0.000261423)
(-5.02358e-05 -1.46593e-08 -0.000261422)
(-5.02328e-05 -8.50622e-09 -0.000261425)
(-5.02306e-05 -3.37539e-08 -0.000261424)
(-5.0222e-05 -1.98567e-08 -0.000261421)
(-0.000153381 5.33877e-08 -0.000273276)
(-0.000153387 3.13824e-08 -0.000273294)
(-0.000153384 -2.24473e-08 -0.000273291)
(-0.000153378 -1.84308e-08 -0.000273296)
(-0.000153373 -5.49216e-08 -0.000273296)
(-0.000153357 -3.69421e-08 -0.000273293)
(-0.000264767 6.71596e-08 -0.000296569)
(-0.000264779 4.46865e-08 -0.000296591)
(-0.000264775 -2.83259e-08 -0.000296589)
(-0.000264767 -2.97091e-08 -0.000296596)
(-0.000264759 -7.30359e-08 -0.000296597)
(-0.000264742 -4.91888e-08 -0.000296593)
(-0.000390337 8.20889e-08 -0.000329882)
(-0.000390346 5.76975e-08 -0.000329911)
(-0.00039034 -3.88462e-08 -0.000329912)
(-0.000390329 -4.73916e-08 -0.00032992)
(-0.000390319 -1.00632e-07 -0.000329923)
(-0.000390298 -6.77031e-08 -0.000329917)
(-0.000536356 9.64295e-08 -0.000369611)
(-0.000536366 6.78565e-08 -0.000369646)
(-0.000536357 -5.39462e-08 -0.000369647)
(-0.000536346 -7.13567e-08 -0.000369653)
(-0.000536335 -1.35062e-07 -0.000369651)
(-0.000536314 -8.90825e-08 -0.000369638)
(-0.000709458 1.10376e-07 -0.000407723)
(-0.000709479 7.28365e-08 -0.00040775)
(-0.000709469 -7.53989e-08 -0.000407745)
(-0.000709461 -1.0197e-07 -0.000407742)
(-0.000709449 -1.75593e-07 -0.000407732)
(-0.000709428 -1.11476e-07 -0.000407708)
(-0.000916716 1.28196e-07 -0.000428716)
(-0.000916758 7.37229e-08 -0.000428721)
(-0.000916746 -1.06816e-07 -0.000428705)
(-0.000916738 -1.38173e-07 -0.000428694)
(-0.000916721 -2.20995e-07 -0.00042868)
(-0.000916689 -1.35143e-07 -0.000428659)
(-0.00116752 1.50854e-07 -0.000406869)
(-0.00116758 7.18518e-08 -0.000406855)
(-0.00116756 -1.47028e-07 -0.000406838)
(-0.00116754 -1.7583e-07 -0.000406833)
(-0.00116751 -2.69695e-07 -0.000406831)
(-0.00116745 -1.61899e-07 -0.000406828)
(-0.00147764 1.77712e-07 -0.000308657)
(-0.0014777 8.00105e-08 -0.000308651)
(-0.00147767 -1.77462e-07 -0.000308652)
(-0.00147763 -2.03536e-07 -0.000308668)
(-0.00147758 -3.11928e-07 -0.000308688)
(-0.00147749 -1.88199e-07 -0.000308712)
(-0.00172856 2.1962e-07 -9.42136e-05)
(-0.00172859 1.22048e-07 -9.42341e-05)
(-0.00172854 -1.68212e-07 -9.42653e-05)
(-0.00172847 -1.89844e-07 -9.43018e-05)
(-0.0017284 -3.20198e-07 -9.43378e-05)
(-0.00172828 -2.01383e-07 -9.43824e-05)
(-0.00188391 2.74609e-07 0.000381047)
(-0.00188385 1.99345e-07 0.000380993)
(-0.00188377 -1.3223e-07 0.00038094)
(-0.00188367 -1.71446e-07 0.000380885)
(-0.00188357 -3.32934e-07 0.000380833)
(-0.00188344 -2.19434e-07 0.000380777)
(-0.00128282 2.56864e-07 0.00158454)
(-0.00128277 2.25532e-07 0.00158458)
(-0.00128274 -8.59885e-08 0.00158456)
(-0.00128268 -1.84581e-07 0.00158452)
(-0.00128262 -3.97575e-07 0.00158448)
(-0.00128254 -2.76672e-07 0.00158441)
(-4.43077e-05 3.92266e-08 -0.000350963)
(-4.43071e-05 2.25528e-08 -0.000350981)
(-4.4307e-05 -1.4114e-08 -0.000350977)
(-4.43042e-05 -9.2164e-09 -0.00035098)
(-4.43026e-05 -3.00108e-08 -0.000350978)
(-4.42957e-05 -1.80365e-08 -0.000350972)
(-0.000135997 3.89558e-08 -0.000369034)
(-0.000136 2.27157e-08 -0.000369053)
(-0.000135999 -1.93963e-08 -0.000369049)
(-0.000135993 -1.84802e-08 -0.000369052)
(-0.00013599 -4.76012e-08 -0.000369051)
(-0.000135977 -3.22921e-08 -0.000369044)
(-0.000237404 4.90232e-08 -0.00040519)
(-0.000237411 3.18726e-08 -0.000405214)
(-0.000237407 -2.54305e-08 -0.000405211)
(-0.000237401 -2.84983e-08 -0.000405215)
(-0.000237396 -6.30807e-08 -0.000405213)
(-0.000237383 -4.28835e-08 -0.000405204)
(-0.00035654 5.96923e-08 -0.000458958)
(-0.000356545 3.90064e-08 -0.000458989)
(-0.000356539 -3.72405e-08 -0.000458988)
(-0.000356531 -4.56338e-08 -0.000458992)
(-0.000356524 -8.8291e-08 -0.000458989)
(-0.000356509 -5.92436e-08 -0.000458976)
(-0.000503791 6.83855e-08 -0.00052798)
(-0.000503797 4.10014e-08 -0.000528014)
(-0.000503789 -5.62022e-08 -0.000528011)
(-0.000503782 -7.16029e-08 -0.000528011)
(-0.000503774 -1.2149e-07 -0.000528004)
(-0.000503759 -7.87494e-08 -0.000527982)
(-0.000692407 7.8028e-08 -0.0006048)
(-0.000692422 3.73317e-08 -0.000604827)
(-0.000692411 -8.30537e-08 -0.000604816)
(-0.000692406 -1.04759e-07 -0.000604807)
(-0.000692398 -1.61183e-07 -0.000604792)
(-0.000692382 -9.8825e-08 -0.000604762)
(-0.00093602 9.28916e-08 -0.000669454)
(-0.00093605 3.37848e-08 -0.000669468)
(-0.000936034 -1.1528e-07 -0.000669447)
(-0.000936027 -1.36751e-07 -0.000669431)
(-0.000936014 -2.00739e-07 -0.000669413)
(-0.000935984 -1.20139e-07 -0.000669386)
(-0.0012383 1.19109e-07 -0.000672099)
(-0.00123833 3.92791e-08 -0.000672108)
(-0.00123831 -1.4469e-07 -0.000672087)
(-0.00123829 -1.59277e-07 -0.000672079)
(-0.00123826 -2.38278e-07 -0.000672071)
(-0.0012382 -1.43576e-07 -0.000672061)
(-0.00157461 1.58787e-07 -0.000496325)
(-0.00157463 7.05953e-08 -0.000496353)
(-0.00157459 -1.54421e-07 -0.000496354)
(-0.00157454 -1.67934e-07 -0.000496365)
(-0.0015745 -2.69564e-07 -0.000496377)
(-0.00157441 -1.67091e-07 -0.000496388)
(-0.00199852 2.21643e-07 0.000111663)
(-0.00199852 1.41801e-07 0.000111598)
(-0.00199845 -1.3923e-07 0.000111568)
(-0.00199838 -1.62769e-07 0.000111528)
(-0.00199832 -2.93608e-07 0.000111498)
(-0.00199823 -1.88862e-07 0.000111469)
(-0.00258255 3.07106e-07 0.00180296)
(-0.00258253 2.48612e-07 0.00180294)
(-0.00258246 -1.19963e-07 0.0018029)
(-0.00258238 -1.75182e-07 0.00180286)
(-0.00258229 -3.37206e-07 0.00180282)
(-0.00258218 -2.18858e-07 0.00180277)
(-0.00247839 3.4691e-07 0.00567115)
(-0.00247848 3.24924e-07 0.00567159)
(-0.00247846 -9.09412e-08 0.00567161)
(-0.00247839 -2.2041e-07 0.0056715)
(-0.0024783 -4.57526e-07 0.00567134)
(-0.00247818 -3.02176e-07 0.0056711)
(-0.22341 -1.09348e-07 0.402073)
(-0.22341 -3.52524e-07 0.402073)
(-0.22341 -4.69389e-07 0.402073)
(-0.22341 -4.68413e-07 0.402074)
(-0.22341 -3.80991e-07 0.402074)
(-0.22341 -1.90086e-07 0.402074)
(-0.235249 -1.09933e-08 0.797096)
(-0.23525 -1.45372e-07 0.797096)
(-0.23525 -2.04443e-07 0.797096)
(-0.23525 -2.25765e-07 0.797096)
(-0.23525 -2.07975e-07 0.797096)
(-0.23525 -1.61924e-07 0.797096)
(-0.2928 1.84984e-08 1.65858)
(-0.2928 -1.29157e-08 1.65858)
(-0.2928 -1.10517e-07 1.65858)
(-0.2928 -1.69775e-07 1.65858)
(-0.2928 -1.32872e-07 1.65858)
(-0.2928 -7.7235e-08 1.65858)
(-0.697495 -1.9956e-07 0.297675)
(-0.697496 -5.22885e-07 0.297676)
(-0.697496 -8.19804e-07 0.297676)
(-0.697496 -8.72184e-07 0.297677)
(-0.697496 -6.16201e-07 0.297678)
(-0.697496 -1.49754e-07 0.297678)
(-0.722921 -1.19479e-07 0.709598)
(-0.722921 -2.21244e-07 0.709599)
(-0.722921 -4.34537e-07 0.709599)
(-0.722921 -4.80211e-07 0.7096)
(-0.722921 -4.09925e-07 0.7096)
(-0.72292 -1.1187e-07 0.709599)
(-1.03255 -4.74184e-07 2.26136)
(-1.03255 -2.08135e-07 2.26136)
(-1.03255 -1.63353e-07 2.26136)
(-1.03255 -1.76696e-07 2.26136)
(-1.03255 -2.92819e-07 2.26136)
(-1.03255 3.93001e-08 2.26136)
(-1.49391 -4.42899e-07 0.00193326)
(-1.49392 -2.43045e-07 0.00193248)
(-1.49392 -7.47656e-07 0.00193356)
(-1.49392 -3.63795e-07 0.001934)
(-1.49391 -5.17289e-07 0.00193388)
(-1.49391 3.13572e-07 0.00193322)
(-2.249 -4.68518e-07 0.201157)
(-2.249 6.21592e-07 0.201157)
(-2.249 -5.18798e-07 0.201157)
(-2.249 3.99992e-07 0.201157)
(-2.249 -5.77291e-07 0.201157)
(-2.249 6.60033e-07 0.201156)
(-3.19309 -1.10565e-06 4.32852)
(-3.19309 9.22725e-07 4.32853)
(-3.19309 -3.42867e-07 4.32853)
(-3.19309 7.75147e-07 4.32853)
(-3.19309 -4.37913e-07 4.32853)
(-3.19308 1.37771e-06 4.32852)
(-1.20505 3.83413e-07 -1.55506)
(-1.20505 -8.60502e-07 -1.55506)
(-1.20505 -5.9444e-07 -1.55506)
(-1.20505 -1.01337e-06 -1.55506)
(-1.20505 -4.85317e-07 -1.55506)
(-1.20505 -1.05878e-06 -1.55505)
(-2.73413 1.86188e-06 -1.39411)
(-2.73413 -1.87754e-06 -1.39411)
(-2.73413 -1.97976e-07 -1.39411)
(-2.73413 -1.2958e-06 -1.39411)
(-2.73413 6.03794e-07 -1.39411)
(-2.73413 -2.459e-06 -1.39411)
(-4.70552 3.9957e-06 6.79107)
(-4.70552 -2.90667e-06 6.79107)
(-4.70552 2.83649e-07 6.79107)
(-4.70552 -1.74946e-06 6.79107)
(-4.70552 1.68007e-06 6.79107)
(-4.70552 -4.44835e-06 6.79107)
(-1.94158 2.62811e-05 0.797255)
(-1.94157 -3.56324e-05 0.7973)
(-1.94158 -9.18969e-06 0.79729)
(-1.94157 -2.56915e-05 0.797301)
(-1.94157 1.31603e-05 0.797322)
(-1.94158 -3.89584e-05 0.797345)
(-9.17353 4.38083e-05 0.931279)
(-9.17354 -3.92705e-05 0.93128)
(-9.17355 7.68577e-06 0.931288)
(-9.17355 -2.57634e-05 0.931299)
(-9.17354 2.12223e-05 0.931307)
(-9.17353 -5.57701e-05 0.931326)
(-12.8082 4.36052e-05 -6.18458)
(-12.8082 -3.78358e-05 -6.18458)
(-12.8082 5.55638e-06 -6.18459)
(-12.8082 -2.25232e-05 -6.18459)
(-12.8082 2.12302e-05 -6.18458)
(-12.8082 -5.11674e-05 -6.18458)
(-1.01843 -8.99278e-08 0.827185)
(-1.01842 1.00358e-05 0.827214)
(-1.01842 8.91489e-06 0.827176)
(-1.01842 -4.08215e-06 0.827182)
(-1.01841 8.88761e-06 0.827209)
(-1.01843 1.13033e-05 0.827198)
(-1.07008 -8.29954e-06 0.562654)
(-1.07006 -4.8446e-06 0.562654)
(-1.07007 8.44178e-07 0.562647)
(-1.07007 -4.57449e-06 0.56265)
(-1.07007 2.00599e-06 0.562654)
(-1.07008 6.05687e-06 0.562652)
(-1.32591 -2.41793e-06 -4.32083)
(-1.32589 -3.1534e-06 -4.32086)
(-1.3259 5.41088e-07 -4.32086)
(-1.3259 -2.98306e-08 -4.32086)
(-1.32589 1.30454e-06 -4.32086)
(-1.3259 4.21793e-07 -4.32083)
(-1.08871 -1.25856e-06 0.0152369)
(-1.08872 9.77294e-09 0.0152114)
(-1.08872 -4.00946e-06 0.0152024)
(-1.08872 -1.72372e-05 0.0152099)
(-1.08871 -6.9934e-06 0.0152303)
(-1.08871 5.71866e-06 0.0152309)
(-1.64275 -2.90187e-06 -0.380682)
(-1.64276 -2.76132e-06 -0.380688)
(-1.64277 -3.1665e-06 -0.380687)
(-1.64277 -5.55489e-06 -0.380684)
(-1.64276 -2.6265e-06 -0.380677)
(-1.64275 2.37275e-06 -0.380674)
(-1.92984 -2.74466e-06 -1.74966)
(-1.92986 -1.80419e-06 -1.74968)
(-1.92986 -1.70946e-07 -1.74968)
(-1.92986 -1.09046e-06 -1.74968)
(-1.92986 7.66658e-07 -1.74967)
(-1.92984 1.77345e-06 -1.74966)
(-0.596695 9.34358e-06 -0.056112)
(-0.59671 1.02811e-05 -0.0561405)
(-0.596718 3.14498e-06 -0.0561344)
(-0.596722 2.51142e-06 -0.0561337)
(-0.59672 4.76378e-06 -0.0561384)
(-0.596719 4.24936e-06 -0.0561567)
(-0.607194 1.41087e-06 -0.324751)
(-0.607202 2.65993e-06 -0.32476)
(-0.607204 2.77775e-06 -0.32476)
(-0.607205 2.70179e-06 -0.32476)
(-0.607206 2.70675e-06 -0.32476)
(-0.607202 1.42467e-06 -0.324757)
(-0.526819 1.296e-06 -1.10723)
(-0.526822 1.37936e-06 -1.10724)
(-0.526823 1.21067e-06 -1.10724)
(-0.526823 4.1802e-07 -1.10724)
(-0.526823 3.1697e-08 -1.10724)
(-0.52682 -7.37135e-07 -1.10724)
(-0.383656 -2.05843e-05 -0.123224)
(-0.383675 -3.7879e-05 -0.123168)
(-0.383685 -3.03328e-05 -0.123136)
(-0.383694 -2.13718e-05 -0.12312)
(-0.383699 -1.15277e-05 -0.123112)
(-0.383698 -3.1947e-06 -0.123112)
(-0.384884 -5.1338e-06 -0.299997)
(-0.384891 -9.54631e-06 -0.29999)
(-0.384894 -8.29002e-06 -0.299982)
(-0.384897 -6.57608e-06 -0.299975)
(-0.384899 -4.50866e-06 -0.299971)
(-0.384897 -1.63151e-06 -0.299966)
(-0.308126 2.01058e-08 -0.623136)
(-0.308129 -7.18982e-07 -0.62314)
(-0.30813 -1.44524e-06 -0.623138)
(-0.308131 -1.69216e-06 -0.623136)
(-0.308131 -1.69266e-06 -0.623135)
(-0.308129 -9.28839e-07 -0.623128)
(-0.235471 -2.40627e-05 -0.139251)
(-0.235468 -4.37382e-05 -0.139192)
(-0.235462 -3.54059e-05 -0.139161)
(-0.235458 -2.53019e-05 -0.139141)
(-0.235455 -1.12914e-05 -0.139131)
(-0.235449 -1.72979e-06 -0.139134)
(-0.214191 -4.70904e-06 -0.240146)
(-0.214192 -9.89697e-06 -0.240137)
(-0.214191 -9.82119e-06 -0.240127)
(-0.21419 -7.90502e-06 -0.24012)
(-0.214189 -4.81972e-06 -0.240116)
(-0.214185 -1.5319e-06 -0.240112)
(-0.1342 -6.15471e-07 -0.386288)
(-0.134201 -1.65599e-06 -0.38629)
(-0.134201 -2.00885e-06 -0.386287)
(-0.134201 -1.97916e-06 -0.386284)
(-0.1342 -1.68739e-06 -0.386282)
(-0.134199 -8.26757e-07 -0.386277)
(-0.155442 -7.00686e-06 -0.143553)
(-0.155432 -1.16776e-05 -0.143546)
(-0.155422 -8.0681e-06 -0.143542)
(-0.155413 -3.86776e-06 -0.14354)
(-0.155407 2.72743e-06 -0.143543)
(-0.155403 3.26292e-06 -0.143553)
(-0.131574 -1.71184e-06 -0.189149)
(-0.131573 -3.15767e-06 -0.189147)
(-0.131569 -2.53791e-06 -0.189145)
(-0.131566 -1.47684e-06 -0.189144)
(-0.131564 3.23899e-09 -0.189143)
(-0.131561 3.84932e-07 -0.189143)
(-0.0690906 -2.90981e-07 -0.253098)
(-0.0690909 -5.82292e-07 -0.253099)
(-0.0690903 -5.35413e-07 -0.253099)
(-0.0690897 -4.55343e-07 -0.253098)
(-0.0690891 -3.34222e-07 -0.253098)
(-0.069088 -1.70344e-07 -0.253095)
(-0.147921 1.35537e-06 -0.149692)
(-0.14792 3.50961e-06 -0.149707)
(-0.147918 5.13216e-06 -0.149719)
(-0.147917 6.5469e-06 -0.14973)
(-0.147917 7.42052e-06 -0.149742)
(-0.147917 3.83841e-06 -0.149754)
(-0.0995113 1.1717e-06 -0.146354)
(-0.0995117 2.76026e-06 -0.146356)
(-0.099511 3.57785e-06 -0.146357)
(-0.0995105 3.97568e-06 -0.146358)
(-0.0995103 3.81225e-06 -0.14636)
(-0.0995094 1.74195e-06 -0.14636)
(-0.0416104 1.55344e-07 -0.171062)
(-0.0416106 3.75894e-07 -0.171065)
(-0.0416104 5.35473e-07 -0.171066)
(-0.0416102 6.12466e-07 -0.171067)
(-0.04161 5.73879e-07 -0.171068)
(-0.0416095 2.43508e-07 -0.171067)
(-0.0236698 1.35965e-06 -0.00575862)
(-0.0236704 1.44226e-06 -0.00575893)
(-0.0236704 1.50568e-07 -0.00575898)
(-0.0236704 -6.71488e-08 -0.00575902)
(-0.0236703 -3.71851e-07 -0.00575906)
(-0.0236699 -2.73584e-07 -0.00575906)
(-0.0170885 8.5717e-07 -0.0152638)
(-0.017089 8.60518e-07 -0.0152645)
(-0.0170889 -3.40352e-08 -0.0152646)
(-0.0170889 -2.26991e-07 -0.0152646)
(-0.0170889 -5.85094e-07 -0.0152646)
(-0.0170884 -3.96666e-07 -0.0152645)
(-0.00646092 2.61198e-07 -0.0218595)
(-0.00646109 2.32404e-07 -0.0218603)
(-0.00646106 -8.42191e-08 -0.0218603)
(-0.00646105 -1.91223e-07 -0.0218603)
(-0.006461 -3.99149e-07 -0.0218601)
(-0.00646081 -2.62247e-07 -0.0218595)
(-0.0325464 9.80058e-07 -0.00832553)
(-0.0325461 9.385e-07 -0.00832581)
(-0.0325459 -5.45081e-08 -0.00832585)
(-0.0325457 -2.37109e-07 -0.00832589)
(-0.0325457 -8.50353e-07 -0.00832594)