/*--------------------------------*- C++ -*----------------------------------*\
| =========                 |                                                 |
| \\      /  F ield         | OpenFOAM: The Open Source CFD Toolbox           |
|  \\    /   O peration     | Version:  v1612+                                |
|   \\  /    A nd           | Web:      www.OpenFOAM.com                      |
|    \\/     M anipulation  |                                                 |
\*---------------------------------------------------------------------------*/
FoamFile
{
    version     2.0;
    format      ascii;
    class       volScalarField;
    location    "0.2";
    object      p;
}
// * * * * * * * * * * * * * * * * * * * * * * * * * * * * * * * * * * * * * //

dimensions      [0 2 -2 0 0 0 0];

internalField   nonuniform List<scalar> 
320
(
-1.71932e-07
0.00376239
-3.2822e-07
0.00376237
-0.000982701
0.00474273
0.0110085
0.0110085
0.0110085
0.0110085
0.00474272
-0.000982709
-0.00724718
-0.00724723
-0.00724723
-0.00724718
-0.000357458
0.0041179
0.00856481
0.00856477
0.00856476
0.00856479
0.00411789
-0.000357472
-0.00480396
-0.00480391
-0.0048039
-0.00480395
-3.33774e-07
0.00376236
0.00746502
0.00746503
0.00746502
0.007465
0.00376235
-3.74487e-07
-0.00370257
-0.00370256
-0.00370253
-0.00370255
0.000308576
0.00345408
0.000308547
0.00345406
0.000308543
0.00345407
0.00646826
0.00646826
0.00646825
0.00646825
0.00345405
0.000308526
-0.00270534
-0.00270532
-0.00270531
-0.00270533
-0.00724711
-0.000982699
0.00474271
0.0110084
0.0165008
0.0165007
0.0165006
0.0165006
0.0165007
0.0165008
0.0110084
0.0047427
-0.000982701
-0.00724711
-0.0127377
-0.0127376
-0.0127374
-0.0127374
-0.0127376
-0.0127377
-0.00480401
-0.000357495
0.0041179
0.00856485
0.012453
0.0124528
0.0124526
0.0124526
0.0124528
0.0124529
0.00856483
0.00411789
-0.000357501
-0.00480401
-0.0086919
-0.00869172
-0.00869156
-0.00869156
-0.00869172
-0.0086919
-0.00370256
-3.75131e-07
0.00376235
0.007465
0.0107534
0.0107534
0.0107534
0.0107534
0.0107534
0.0107534
0.00746498
0.00376233
-3.88688e-07
-0.00370257
-0.00699021
-0.0069902
-0.00699019
-0.00699019
-0.00699021
-0.00699022
-0.00270535
0.000308523
0.00345406
0.00646827
0.0089873
0.00898727
0.00898725
0.00898724
0.00898726
0.00898728
0.00646825
0.00345404
0.000308513
-0.00270535
-0.00522381
-0.00522378
-0.00522375
-0.00522375
-0.00522378
-0.00522382
0.000462261
0.00330063
0.000462254
0.00330063
0.000462251
0.00330063
0.00599217
0.00599217
0.00599216
0.00599216
0.00330062
0.000462244
-0.00222902
-0.00222901
-0.00222901
-0.00222902
-0.00222902
0.000462243
0.00330063
0.00599217
0.00819779
0.00819778
0.00819777
0.00819777
0.00819777
0.00819777
0.00599215
0.00330061
0.000462235
-0.00222903
-0.00443418
-0.00443417
-0.00443416
-0.00443416
-0.00443417
-0.00443418
-0.0127392
-0.00724627
-0.000982662
0.00474267
0.0110076
0.0165023
0.0333195
0.0333221
0.0333223
0.0333226
0.0333226
0.0333223
0.0333221
0.0333195
0.0165023
0.0110075
0.00474266
-0.000982664
-0.00724628
-0.0127392
-0.0295526
-0.0295552
-0.0295555
-0.0295557
-0.0295557
-0.0295555
-0.0295552
-0.0295526
-0.00869326
-0.00480425
-0.000357607
0.00411801
0.00856509
0.0124543
0.0173247
0.0173233
0.0173232
0.017323
0.017323
0.0173231
0.0173233
0.0173247
0.0124543
0.00856506
0.004118
-0.000357616
-0.00480425
-0.00869326
-0.0135599
-0.0135585
-0.0135584
-0.0135583
-0.0135583
-0.0135584
-0.0135585
-0.0135599
-0.0069903
-0.00370242
-3.77241e-07
0.00376233
0.00746485
0.0107535
0.0143839
0.014385
0.0143852
0.0143853
0.0143853
0.0143852
0.014385
0.0143839
0.0107535
0.00746483
0.00376232
-3.85758e-07
-0.00370242
-0.00699029
-0.0106195
-0.0106206
-0.0106208
-0.0106209
-0.0106209
-0.0106208
-0.0106206
-0.0106195
-0.005224
-0.00270538
0.000308503
0.00345407
0.00646829
0.00898749
0.0109237
0.0109236
0.0109236
0.0109236
0.0109236
0.0109236
0.0109236
0.0109236
0.00898746
0.00646827
0.00345406
0.000308493
-0.00270538
-0.005224
-0.00715926
-0.0071592
-0.00715919
-0.00715919
-0.00715919
-0.0071592
-0.00715921
-0.00715926
-0.00443421
-0.00222903
0.000462235
0.00330063
0.00599218
0.00819781
0.00971583
0.00971602
0.00971604
0.00971606
0.00971606
0.00971603
0.009716
0.0097158
0.00819779
0.00599215
0.00330062
0.000462225
-0.00222903
-0.0044342
-0.0059517
-0.00595188
-0.00595191
-0.00595193
-0.00595193
-0.00595191
-0.00595189
-0.0059517
-0.000982705
0.00474274
-0.000982712
0.00474274
-0.000357418
0.0041179
-0.000357444
0.00411789
)
;

boundaryField
{
    top_fluid_surface
    {
        type            zeroGradient;
    }
    bottom_fluid_surface
    {
        type            zeroGradient;
    }
    lateral_surface_1
    {
        type            zeroGradient;
    }
    lateral_surface_2
    {
        type            zeroGradient;
    }
    lateral_surface_3
    {
        type            zeroGradient;
    }
    lateral_surface_4
    {
        type            zeroGradient;
    }
}


// ************************************************************************* //
