/*--------------------------------*- C++ -*----------------------------------*\
| =========                 |                                                 |
| \\      /  F ield         | OpenFOAM: The Open Source CFD Toolbox           |
|  \\    /   O peration     | Version:  v1612+                                |
|   \\  /    A nd           | Web:      www.OpenFOAM.com                      |
|    \\/     M anipulation  |                                                 |
\*---------------------------------------------------------------------------*/
FoamFile
{
    version     2.0;
    format      ascii;
    class       surfaceScalarField;
    location    "0.2";
    object      phi;
}
// * * * * * * * * * * * * * * * * * * * * * * * * * * * * * * * * * * * * * //

dimensions      [0 3 -1 0 0 0 0];

internalField   nonuniform List<scalar> 
816
(
-0.000753814
8.27185e-10
1.08206e-09
0.000735418
-6.01557e-05
7.85556e-05
1.72828e-10
-1.61657e-10
-0.000735448
6.01214e-05
-7.84877e-05
-0.000753815
5.6626e-10
0.000735417
-6.01564e-05
7.85548e-05
-0.000735448
-2.05694e-10
6.01213e-05
-7.84879e-05
0.0028548
-0.00277277
-8.20256e-05
-2.71417e-09
9.91754e-10
0.00277282
8.19765e-05
2.72222e-09
-1.01301e-09
-4.08012e-09
0.000304018
1.85811e-08
0.00246879
2.16386e-11
0.000304023
0.00246879
-0.00277282
4.10747e-09
0.000304023
0.00246879
-0.00277282
-0.00277282
0.000304018
0.00246879
1.85894e-08
-0.0028548
8.19765e-05
2.69847e-09
-1.04419e-09
-0.00277277
-8.20256e-05
-2.74096e-09
9.78292e-10
4.05982e-09
-0.000304035
-1.85808e-08
-0.00246872
-2.4268e-11
-0.00030404
-0.00246873
0.00277277
-4.06685e-09
-0.00030404
-0.00246873
0.00277277
-0.000304035
-1.85735e-08
-0.00246872
-0.000908514
0.000905041
-7.85553e-05
3.14125e-09
-1.23243e-09
-0.000905023
7.84884e-05
-3.06931e-09
1.07105e-09
3.922e-09
0.000260609
-9.8289e-09
-0.000861609
3.79857e-11
0.000260608
-0.000861601
0.00090502
-3.89492e-09
0.000260608
-0.000861601
0.00090502
0.000905023
0.000260609
-0.000861609
-9.79867e-09
0.000908514
7.84884e-05
-3.06218e-09
1.07351e-09
0.000905041
-7.85552e-05
3.09087e-09
-1.19828e-09
-3.95422e-09
-0.000260658
9.82117e-09
0.000861658
-5.10489e-11
-0.000260657
0.000861651
-0.000905038
3.95368e-09
-0.000260657
0.000861651
-0.000905038
-0.000260658
9.80921e-09
0.000861658
-0.000753816
0.000735417
-6.01566e-05
8.98196e-10
-0.000735448
6.01215e-05
-5.64366e-10
5.14946e-10
0.000191299
-8.17449e-11
-0.000666139
4.59965e-11
0.000191299
-0.000666138
-5.00327e-10
0.000191299
-0.000666138
0.000735448
0.000191299
-0.000666139
-6.11787e-11
0.000753816
6.01214e-05
-5.99748e-10
0.000735417
-6.01567e-05
7.40232e-10
-6.44715e-10
-0.000191325
1.49778e-10
0.000666084
-1.66556e-10
-0.000191324
0.000666084
6.95733e-10
-0.000191324
0.000666084
-0.000191325
2.15231e-10
0.000666084
-0.000628888
1.72195e-10
3.8527e-10
0.000600145
-3.14131e-05
6.23014e-11
-1.73336e-10
-0.000600164
3.13983e-05
-0.000628888
3.38207e-10
0.000600144
-3.14132e-05
-0.000600164
-1.79706e-10
3.13982e-05
-0.000628888
0.000600145
6.85378e-10
-3.14134e-05
-0.000600165
-5.54162e-10
3.13984e-05
5.47749e-10
-1.29611e-09
-0.000506595
9.773e-05
2.91742e-11
-0.000506595
9.77296e-05
-5.19995e-10
-0.000506595
9.77295e-05
0.000600165
-0.000506595
-1.26457e-09
9.773e-05
0.000628888
-5.51265e-10
3.13983e-05
0.000600145
6.35982e-10
-3.14134e-05
-6.08476e-10
1.34773e-09
0.000506559
-9.774e-05
-5.37754e-11
0.000506559
-9.77395e-05
6.14457e-10
0.000506559
-9.77394e-05
1.34143e-09
0.000506559
-9.77399e-05
0.00277278
-0.00246872
-0.000304028
-4.68467e-08
0.0028548
-8.20237e-05
-5.16948e-09
0.00277282
8.19746e-05
5.05224e-09
0.00246878
0.000304011
4.67762e-08
3.91547e-08
0.000575174
-9.45457e-08
0.00189367
9.4415e-09
0.000575175
0.00189365
2.31994e-11
0.000575175
0.00189363
-9.39794e-09
0.000575175
0.00189363
-3.91315e-08
0.000575175
0.00189365
-0.00246878
0.000575174
0.00189367
-9.45181e-08
-0.00277282
0.000304011
4.68014e-08
-0.0028548
8.19746e-05
5.05931e-09
-0.00277278
-8.20236e-05
-5.17789e-09
-0.00246872
-0.000304028
-4.68233e-08
-3.9174e-08
-0.00057516
9.45764e-08
-0.00189361
-9.45397e-09
-0.00057516
-0.00189359
-1.0743e-11
-0.00057516
-0.00189358
9.432e-09
-0.00057516
-0.00189358
3.91681e-08
-0.00057516
-0.00189359
-0.00057516
9.45664e-08
-0.00189361
-0.000905045
0.000861667
-0.000260659
1.8614e-08
-0.000908516
-7.85559e-05
6.38667e-09
-0.000905027
7.84891e-05
-6.46854e-09
-0.000861617
0.00026061
-1.87141e-08
4.09711e-08
0.000474187
-9.00481e-08
-0.000760581
1.28973e-08
0.000474178
-0.000760583
3.25016e-11
0.00047417
-0.000760584
-1.28478e-08
0.00047417
-0.000760584
-4.09298e-08
0.000474178
-0.000760583
0.000861617
0.000474187
-0.000760581
-9.00497e-08
0.000905027
0.00026061
-1.86953e-08
0.000908516
7.84891e-05
-6.46633e-09
0.000905045
-7.85559e-05
6.3822e-09
0.000861667
-0.000260659
1.8617e-08
-4.09324e-08
-0.000474211
8.98901e-08
0.000760669
-1.29063e-08
-0.000474201
0.000760671
-3.01855e-11
-0.000474194
0.000760672
1.28779e-08
-0.000474194
0.000760672
4.09261e-08
-0.000474201
0.000760671
-0.000474211
8.98887e-08
0.000760669
-0.000735416
0.000666084
-0.000191325
-1.71886e-09
-0.000753815
-6.01567e-05
9.25026e-10
-0.000735448
6.01215e-05
-8.27064e-10
-0.000666138
0.000191299
1.73793e-09
4.4915e-09
0.000341646
-9.12096e-09
-0.000533593
1.53914e-09
0.000341644
-0.000533603
3.05429e-11
0.000341642
-0.000533609
-1.50069e-09
0.000341642
-0.000533609
-4.46371e-09
0.000341644
-0.000533603
0.000666138
0.000341646
-0.000533593
-9.11132e-09
0.000735448
0.000191299
1.74704e-09
0.000753815
6.01215e-05
-8.44465e-10
0.000735416
-6.01568e-05
8.64054e-10
0.000666084
-0.000191325
-1.71439e-09
-4.53515e-09
-0.000341657
9.15505e-09
0.000533525
-1.58419e-09
-0.000341655
0.000533535
-3.70229e-11
-0.000341653
0.000533541
1.57298e-09
-0.000341653
0.000533541
4.52779e-09
-0.000341655
0.000533535
-0.000341657
9.17137e-09
0.000533525
-0.000600144
0.000506559
-9.77404e-05
2.33443e-09
-0.000628888
-3.14136e-05
1.16595e-09
-0.000600164
3.13985e-05
-1.12299e-09
-0.000506595
9.77305e-05
-2.3038e-09
3.63524e-09
0.000168441
-8.48547e-09
-0.000333385
1.09278e-09
0.00016844
-0.000333388
1.66878e-11
0.000168439
-0.00033339
-1.05064e-09
0.000168439
-0.00033339
-3.59285e-09
0.00016844
-0.000333388
0.000506595
0.000168441
-0.000333385
-8.48387e-09
0.000600164
9.77304e-05
-2.29402e-09
0.000628888
3.13985e-05
-1.12527e-09
0.000600144
-3.14136e-05
1.15548e-09
0.000506559
-9.77404e-05
2.32799e-09
-3.66878e-09
-0.000168441
8.51818e-09
0.000333339
-1.12412e-09
-0.00016844
0.000333342
-2.32748e-11
-0.000168438
0.000333344
1.11376e-09
-0.000168438
0.000333344
3.65468e-09
-0.00016844
0.000333342
-0.000168441
8.50912e-09
0.000333339
-0.000563585
3.80902e-11
1.55178e-10
0.000532172
2.05886e-11
-7.70248e-11
-0.000532187
-0.000563585
1.47954e-10
0.000532172
-0.000532187
-7.74648e-11
-0.000563585
0.000532172
2.91844e-10
-0.000532187
-2.38586e-10
1.36228e-10
-2.94095e-10
-0.000434457
1.01294e-11
-0.000434457
-1.22508e-10
-0.000434457
0.000532187
-0.000434456
-2.57149e-10
0.000563585
-2.26546e-10
0.000532172
2.85883e-10
-1.66861e-10
3.25547e-10
0.000434431
-1.84052e-11
0.000434432
1.74721e-10
0.000434432
3.21363e-10
0.000434431
-0.000532171
0.00043443
4.53802e-10
-0.000563585
4.89594e-10
-0.000532186
-4.68332e-10
-0.000434455
-4.49795e-10
-6.79216e-11
-2.09882e-10
-0.000266014
-1.06214e-10
-0.000266017
1.27461e-11
-0.000266019
1.42535e-10
-0.000266019
9.77082e-11
-0.000266017
0.000434455
-0.000266014
-2.02131e-10
0.000532186
-4.32499e-10
0.000563585
-4.65739e-10
0.000532171
4.88642e-10
0.00043443
4.67028e-10
4.31324e-11
2.40449e-10
0.000265989
9.0464e-11
0.000265992
-1.21788e-11
0.000265994
-9.46757e-11
0.000265994
-5.16632e-11
0.000265992
2.49196e-10
0.000265989
0.00246378
-0.00188961
-0.000574068
0.00276715
-0.000303417
0.002849
-8.18634e-05
0.0027672
8.18145e-05
0.00246384
0.0003034
0.00188966
0.000574083
-1.88915e-07
0.00188985
-8.37658e-08
0.00189356
-2.39864e-08
0.00189359
3.31181e-11
0.0018936
2.40494e-08
0.0018936
8.37991e-08
0.00189359
1.88907e-07
0.00189356
-0.00188966
0.00188985
-0.00246384
0.000574083
-0.0027672
0.0003034
-0.002849
8.18145e-05
-0.00276715
-8.18634e-05
-0.00246378
-0.000303417
-0.00188961
-0.000574068
1.88645e-07
-0.0018898
8.36387e-08
-0.00189351
2.39461e-08
-0.00189354
-1.71687e-11
-0.00189355
-2.39781e-08
-0.00189355
-8.36352e-08
-0.00189354
-1.88626e-07
-0.00189351
-0.0018898
-0.000859927
0.000759202
-0.000473253
-0.000903207
-0.000260119
-0.000906666
-7.83976e-05
-0.000903189
7.8331e-05
-0.000859878
0.00026007
-0.000759115
0.000473229
9.34113e-08
0.00113065
3.86418e-08
0.00113303
9.12225e-09
0.00113303
3.77518e-11
0.00113303
-9.05669e-09
0.00113303
-3.86344e-08
0.00113303
-9.34381e-08
0.00113303
0.000759115
0.00113065
0.000859878
0.000473229
0.000903189
0.00026007
0.000906666
7.8331e-05
0.000903207
-7.83976e-05
0.000859927
-0.000260119
0.000759202
-0.000473253
-9.3533e-08
-0.00113051
-3.87122e-08
-0.0011329
-9.14701e-09
-0.00113289
-2.18933e-11
-0.00113289
9.1096e-09
-0.00113289
3.87103e-08
-0.00113289
9.35646e-08
-0.0011329
-0.00113051
-0.000664728
0.000532454
-0.000340969
-0.000733917
-0.000190932
-0.000752279
-6.00345e-05
-0.000733948
5.99993e-05
-0.000664782
0.000190906
-0.000532521
0.000340959
-6.2185e-08
0.000598186
-2.71749e-08
0.000599407
-8.00367e-09
0.000599411
1.77867e-11
0.000599413
8.04353e-09
0.000599413
2.71853e-08
0.000599411
6.2198e-08
0.000599407
0.000532521
0.000598186
0.000664782
0.000340959
0.000733948
0.000190906
0.000752279
5.99993e-05
0.000733917
-6.00345e-05
0.000664728
-0.000190932
0.000532454
-0.000340969
6.21128e-08
-0.000598115
2.71244e-08
-0.000599335
7.97285e-09
-0.000599339
-1.21037e-11
-0.000599341
-7.97073e-09
-0.000599341
-2.71215e-08
-0.000599339
-6.21123e-08
-0.000599335
-0.000598115
-0.00050554
0.000332678
-0.000168099
-0.000598929
-9.75407e-05
-0.000627613
-3.13497e-05
-0.000598949
3.13346e-05
-0.000505576
9.75307e-05
-0.000332724
0.000168099
-5.6635e-09
0.000265468
-4.05342e-09
0.00026602
-1.87293e-09
0.000266021
1.94635e-11
0.000266021
1.91378e-09
0.000266021
4.08618e-09
0.000266021
5.67261e-09
0.00026602
0.000332724
0.000265468
0.000505576
0.000168099
0.000598949
9.75307e-05
0.000627613
3.13346e-05
0.000598929
-3.13497e-05
0.00050554
-9.75407e-05
0.000332678
-0.000168099
5.5867e-09
-0.000265443
4.00925e-09
-0.000265995
1.85374e-09
-0.000265996
-7.17985e-12
-0.000265996
-1.85523e-09
-0.000265996
-4.02853e-09
-0.000265996
-5.58184e-09
-0.000265995
-0.000265443
-0.000433555
0.000265456
-0.000531095
-0.000562444
-0.00053111
-0.00043358
-0.000265481
-1.29778e-08
-6.50738e-09
-2.48975e-09
1.46357e-11
2.52456e-09
6.54122e-09
1.29881e-08
0.000265481
0.00043358
0.00053111
0.000562444
0.000531095
0.000433555
0.000265456
1.29363e-08
6.48452e-09
2.48009e-09
-1.93514e-12
-2.47231e-09
-6.49686e-09
-1.29485e-08
0.0028548
5.76585e-11
-8.2027e-05
4.0291e-11
8.19777e-05
0.0028548
-8.20269e-05
8.19778e-05
-0.000908511
1.64464e-10
5.42736e-11
-0.000908511
)
;

boundaryField
{
    top_fluid_surface
    {
        type            calculated;
        value           uniform 0;
    }
    bottom_fluid_surface
    {
        type            calculated;
        value           uniform 0;
    }
    lateral_surface_1
    {
        type            calculated;
        value           uniform 0;
    }
    lateral_surface_2
    {
        type            calculated;
        value           uniform 0;
    }
    lateral_surface_3
    {
        type            calculated;
        value           uniform 0;
    }
    lateral_surface_4
    {
        type            calculated;
        value           uniform 0;
    }
}


// ************************************************************************* //
