/*--------------------------------*- C++ -*----------------------------------*\
| =========                 |                                                 |
| \\      /  F ield         | OpenFOAM: The Open Source CFD Toolbox           |
|  \\    /   O peration     | Version:  v1612+                                |
|   \\  /    A nd           | Web:      www.OpenFOAM.com                      |
|    \\/     M anipulation  |                                                 |
\*---------------------------------------------------------------------------*/
FoamFile
{
    version     2.0;
    format      ascii;
    class       volVectorField;
    location    "0.2";
    object      U;
}
// * * * * * * * * * * * * * * * * * * * * * * * * * * * * * * * * * * * * * //

dimensions      [0 1 -1 0 0 0 0];

internalField   nonuniform List<vector> 
320
(
(-0.000747046 -1.84305e-10 6.99506e-05)
(-0.000747061 1.90147e-10 -6.98954e-05)
(-0.000747046 7.68619e-10 6.99506e-05)
(-0.000747061 -6.23743e-12 -6.98954e-05)
(0.00281893 1.2677e-09 5.35215e-05)
(0.00281892 -1.30509e-09 -5.34596e-05)
(0.00276006 -5.30421e-09 -0.000205963)
(0.00276007 -2.11988e-09 -0.000205967)
(0.00276007 2.15674e-09 -0.000205967)
(0.00276006 5.31729e-09 -0.000205963)
(0.00281892 1.30011e-09 -5.34595e-05)
(0.00281893 -1.28504e-09 5.35215e-05)
(0.00275994 -5.29096e-09 0.000206013)
(0.00275994 -2.10331e-09 0.000206017)
(0.00275994 2.13898e-09 0.000206017)
(0.00275994 5.28082e-09 0.000206013)
(-0.00090761 -1.59918e-09 9.27829e-05)
(-0.000907603 1.44593e-09 -9.27442e-05)
(-0.000877952 5.1097e-09 -0.000331349)
(-0.000877946 2.10459e-09 -0.000331352)
(-0.000877946 -2.04871e-09 -0.000331352)
(-0.000877952 -5.08257e-09 -0.000331349)
(-0.000907603 -1.44271e-09 -9.27442e-05)
(-0.00090761 1.51775e-09 9.27828e-05)
(-0.000877994 5.13178e-09 0.000331354)
(-0.000877988 2.12984e-09 0.000331357)
(-0.000877988 -2.07102e-09 0.000331357)
(-0.000877995 -5.12815e-09 0.000331354)
(-0.000747046 -9.64351e-10 6.9951e-05)
(-0.000747062 2.27406e-10 -6.98959e-05)
(-0.000702474 6.36969e-10 -0.000222658)
(-0.000702473 3.63942e-10 -0.000222656)
(-0.000702473 -3.05685e-10 -0.000222656)
(-0.000702474 -6.18098e-10 -0.000222658)
(-0.000747062 -3.30496e-10 -6.98959e-05)
(-0.000747046 5.51873e-10 6.9951e-05)
(-0.00070243 7.25195e-10 0.000222707)
(-0.00070243 5.1898e-10 0.000222705)
(-0.00070243 -3.503e-10 0.000222705)
(-0.00070243 -8.24374e-10 0.000222707)
(-0.000619082 -1.26665e-10 4.64336e-05)
(-0.000619092 1.33442e-10 -4.64101e-05)
(-0.000619082 3.01871e-10 4.6434e-05)
(-0.000619092 -6.18331e-11 -4.641e-05)
(-0.000619082 -4.69622e-10 4.64342e-05)
(-0.000619092 2.55468e-10 -4.64101e-05)
(-0.000558554 7.12199e-10 -0.000146232)
(-0.000558553 3.1635e-10 -0.000146231)
(-0.000558553 -2.67992e-10 -0.000146231)
(-0.000558554 -6.82386e-10 -0.000146232)
(-0.000619092 -2.61464e-10 -4.64101e-05)
(-0.000619082 3.73731e-10 4.64342e-05)
(-0.000558526 7.68731e-10 0.000146248)
(-0.000558526 3.63661e-10 0.000146248)
(-0.000558526 -3.05931e-10 0.000146248)
(-0.000558526 -7.74426e-10 0.000146248)
(0.00275992 3.95689e-08 0.000206006)
(0.00281893 4.82895e-09 5.35198e-05)
(0.00281892 -4.7547e-09 -5.34578e-05)
(0.00276005 -3.95254e-08 -0.000205956)
(0.00183188 8.11535e-08 -0.000401662)
(0.00183187 1.20977e-08 -0.000401665)
(0.00183186 5.04105e-09 -0.000401667)
(0.00183186 -4.99444e-09 -0.000401667)
(0.00183187 -1.2067e-08 -0.000401665)
(0.00183188 -8.11301e-08 -0.000401662)
(0.00276005 3.95414e-08 -0.000205956)
(0.00281892 4.74157e-09 -5.34579e-05)
(0.00281893 -4.85163e-09 5.35198e-05)
(0.00275992 -3.95581e-08 0.000206006)
(0.0018319 8.11783e-08 0.000401767)
(0.00183189 1.21137e-08 0.00040177)
(0.00183188 5.04008e-09 0.000401772)
(0.00183188 -5.02008e-09 0.000401772)
(0.00183189 -1.20997e-08 0.00040177)
(0.0018319 -8.11748e-08 0.000401767)
(-0.000878002 -1.72146e-08 0.00033135)
(-0.000907612 -5.7125e-09 9.27817e-05)
(-0.000907606 5.74869e-09 -9.27431e-05)
(-0.000877959 1.72927e-08 -0.000331345)
(-0.000904577 7.93812e-08 -0.000620639)
(-0.000904575 1.66475e-08 -0.000620634)
(-0.000904572 6.87229e-09 -0.00062063)
(-0.000904572 -6.81598e-09 -0.00062063)
(-0.000904575 -1.65979e-08 -0.000620634)
(-0.000904577 -7.93609e-08 -0.000620639)
(-0.000877959 -1.72668e-08 -0.000331345)
(-0.000907606 -5.74122e-09 -9.27431e-05)
(-0.000907612 5.69602e-09 9.27817e-05)
(-0.000878002 1.72245e-08 0.00033135)
(-0.000904563 7.92604e-08 0.000620562)
(-0.00090456 1.66517e-08 0.000620557)
(-0.000904557 6.87718e-09 0.000620553)
(-0.000904557 -6.83145e-09 0.000620553)
(-0.00090456 -1.66347e-08 0.000620557)
(-0.000904563 -7.92573e-08 0.000620562)
(-0.00070243 8.94127e-10 0.00022271)
(-0.000747046 -1.09256e-09 6.99516e-05)
(-0.000747061 9.14691e-10 -6.98965e-05)
(-0.000702474 -9.46224e-10 -0.00022266)
(-0.000653177 8.37697e-09 -0.000393427)
(-0.000653185 1.87751e-09 -0.000393419)
(-0.00065319 8.93428e-10 -0.000393413)
(-0.00065319 -8.38101e-10 -0.000393413)
(-0.000653185 -1.84694e-09 -0.000393419)
(-0.000653177 -8.35562e-09 -0.000393427)
(-0.000702474 9.62084e-10 -0.00022266)
(-0.000747061 -9.30557e-10 -6.98965e-05)
(-0.000747046 9.90586e-10 6.99516e-05)
(-0.00070243 -8.99351e-10 0.00022271)
(-0.00065311 8.41579e-09 0.000393474)
(-0.000653118 1.92667e-09 0.000393466)
(-0.000653123 9.20039e-10 0.000393459)
(-0.000653123 -8.73101e-10 0.000393459)
(-0.000653118 -1.91378e-09 0.000393466)
(-0.00065311 -8.4232e-09 0.000393474)
(-0.000558526 -2.21687e-09 0.000146248)
(-0.000619082 -1.09268e-09 4.64343e-05)
(-0.000619092 1.02374e-09 -4.64101e-05)
(-0.000558554 2.18285e-09 -0.000146232)
(-0.000440028 7.24195e-09 -0.000258556)
(-0.00044003 1.45993e-09 -0.000258555)
(-0.000440032 5.75994e-10 -0.000258554)
(-0.000440032 -5.35617e-10 -0.000258554)
(-0.00044003 -1.40941e-09 -0.000258555)
(-0.000440028 -7.2199e-09 -0.000258556)
(-0.000558554 -2.16069e-09 -0.000146232)
(-0.000619092 -1.02063e-09 -4.64101e-05)
(-0.000619082 1.07574e-09 4.64343e-05)
(-0.000558526 2.22134e-09 0.000146248)
(-0.000439983 7.27824e-09 0.000258557)
(-0.000439985 1.49148e-09 0.000258557)
(-0.000439986 5.96829e-10 0.000258556)
(-0.000439986 -5.63948e-10 0.000258556)
(-0.000439985 -1.47806e-09 0.000258557)
(-0.000439983 -7.26385e-09 0.000258557)
(-0.000553257 -6.10534e-11 1.57753e-05)
(-0.000553264 5.66901e-11 -1.57678e-05)
(-0.000553257 1.02607e-10 1.57754e-05)
(-0.000553264 -2.90704e-11 -1.57678e-05)
(-0.000553257 -1.86379e-10 1.57755e-05)
(-0.000553264 1.13399e-10 -1.57679e-05)
(-0.00048933 1.75344e-10 -4.8919e-05)
(-0.00048933 8.30847e-11 -4.89188e-05)
(-0.00048933 -6.30781e-11 -4.89188e-05)
(-0.00048933 -1.49249e-10 -4.8919e-05)
(-0.000553264 -1.09929e-10 -1.57679e-05)
(-0.000553257 1.76666e-10 1.57755e-05)
(-0.00048931 2.04177e-10 4.89241e-05)
(-0.00048931 1.05737e-10 4.89239e-05)
(-0.00048931 -8.40729e-11 4.89239e-05)
(-0.00048931 -2.12117e-10 4.89241e-05)
(-0.000489309 -4.61242e-10 4.89244e-05)
(-0.000553256 -4.68186e-10 1.57755e-05)
(-0.000553264 4.30206e-10 -1.5768e-05)
(-0.000489329 4.49385e-10 -4.89192e-05)
(-0.000361967 9.94232e-11 -8.39924e-05)
(-0.00036197 -1.3349e-10 -8.39915e-05)
(-0.000361971 -5.75381e-11 -8.39909e-05)
(-0.000361971 9.25437e-11 -8.39909e-05)
(-0.00036197 1.71299e-10 -8.39915e-05)
(-0.000361967 -7.8743e-11 -8.39924e-05)
(-0.000489329 -4.19264e-10 -4.89192e-05)
(-0.000553264 -4.21294e-10 -1.5768e-05)
(-0.000553256 4.60796e-10 1.57756e-05)
(-0.000489309 4.74479e-10 4.89244e-05)
(-0.00036194 1.25731e-10 8.39925e-05)
(-0.000361943 -1.18057e-10 8.39917e-05)
(-0.000361944 -4.96041e-11 8.3991e-05)
(-0.000361944 6.79929e-11 8.3991e-05)
(-0.000361943 1.21497e-10 8.39917e-05)
(-0.00036194 -1.2323e-10 8.39925e-05)
(0.00182818 -7.4098e-08 0.000400957)
(0.00275426 3.64031e-08 0.000205569)
(0.00281319 4.08406e-09 5.34098e-05)
(0.00281318 -3.99252e-09 -5.33481e-05)
(0.00275438 -3.63545e-08 -0.00020552)
(0.00182817 7.40881e-08 -0.000400852)
(0.00243996 -1.4841e-07 -0.00145155)
(0.00244487 -1.66038e-07 -0.00145459)
(0.00244485 -3.05492e-08 -0.00145462)
(0.00244483 -1.29116e-08 -0.00145464)
(0.00244483 1.29745e-08 -0.00145464)
(0.00244485 3.06044e-08 -0.00145462)
(0.00244487 1.66045e-07 -0.00145459)
(0.00243996 1.48399e-07 -0.00145155)
(0.00182817 -7.40682e-08 -0.000400852)
(0.00275438 3.63709e-08 -0.00020552)
(0.00281318 4.00257e-09 -5.33481e-05)
(0.00281319 -4.08114e-09 5.34098e-05)
(0.00275426 -3.63878e-08 0.000205569)
(0.00182818 7.41075e-08 0.000400957)
(0.0024398 -1.4822e-07 0.00145166)
(0.00244471 -1.65806e-07 0.0014547)
(0.00244468 -3.04867e-08 0.00145473)
(0.00244467 -1.29e-08 0.00145475)
(0.00244467 1.29327e-08 0.00145475)
(0.00244468 3.05049e-08 0.00145473)
(0.00244471 1.65786e-07 0.0014547)
(0.0024398 1.48207e-07 0.00145166)
(-0.000902748 -6.94719e-08 0.000619327)
(-0.000876232 -1.41933e-08 0.000330662)
(-0.000905762 -4.80184e-09 9.25933e-05)
(-0.000905755 4.85987e-09 -9.25549e-05)
(-0.00087619 1.42624e-08 -0.000330657)
(-0.000902763 6.95873e-08 -0.000619404)
(-0.000476848 7.36868e-08 -0.00183099)
(-0.000477812 8.02896e-08 -0.00183476)
(-0.000477816 1.15328e-08 -0.00183478)
(-0.000477818 4.94803e-09 -0.00183478)
(-0.000477818 -4.87282e-09 -0.00183478)
(-0.000477816 -1.14934e-08 -0.00183478)
(-0.000477812 -8.03052e-08 -0.00183476)
(-0.000476848 -7.37035e-08 -0.00183099)
(-0.000902763 -6.95951e-08 -0.000619404)
(-0.00087619 -1.42557e-08 -0.000330657)
(-0.000905755 -4.86548e-09 -9.25549e-05)
(-0.000905762 4.79605e-09 9.25934e-05)
(-0.000876232 1.41901e-08 0.000330662)
(-0.000902748 6.94701e-08 0.000619327)
(-0.000477107 7.3774e-08 0.00183081)
(-0.000478073 8.04016e-08 0.00183458)
(-0.000478076 1.15725e-08 0.0018346)
(-0.000478078 4.95071e-09 0.00183461)
(-0.000478078 -4.91143e-09 0.00183461)
(-0.000478076 -1.15476e-08 0.0018346)
(-0.000478073 -8.04235e-08 0.00183458)
(-0.000477107 -7.37947e-08 0.00183081)
(-0.000651765 -7.40428e-09 0.000392689)
(-0.000700996 1.23329e-09 0.000222254)
(-0.000745514 -7.72759e-10 6.98098e-05)
(-0.000745529 7.34563e-10 -6.97547e-05)
(-0.00070104 -1.24503e-09 -0.000222205)
(-0.000651832 7.36839e-09 -0.000392642)
(-0.000319378 -4.74152e-08 -0.00068855)
(-0.000320048 -5.39087e-08 -0.000689932)
(-0.000320056 -1.06212e-08 -0.000689926)
(-0.000320061 -4.1199e-09 -0.00068992)
(-0.000320061 4.16074e-09 -0.00068992)
(-0.000320056 1.06483e-08 -0.000689926)
(-0.000320048 5.39189e-08 -0.000689932)
(-0.000319378 4.74237e-08 -0.00068855)
(-0.000651832 -7.36788e-09 -0.000392642)
(-0.00070104 1.25154e-09 -0.000222205)
(-0.000745529 -7.44449e-10 -6.97547e-05)
(-0.000745514 7.57491e-10 6.98098e-05)
(-0.000700996 -1.23459e-09 0.000222254)
(-0.000651765 7.38954e-09 0.000392689)
(-0.000319332 -4.73686e-08 0.000688427)
(-0.000320001 -5.38391e-08 0.000689809)
(-0.000320009 -1.05838e-08 0.000689803)
(-0.000320014 -4.10249e-09 0.000689797)
(-0.000320014 4.11812e-09 0.000689797)
(-0.000320009 1.05815e-08 0.000689803)
(-0.000320001 5.38397e-08 0.000689809)
(-0.000319332 4.73626e-08 0.000688427)
(-0.000439088 -6.36859e-09 0.000258028)
(-0.000557388 -1.7882e-09 0.000145945)
(-0.000617817 -8.82525e-10 4.63387e-05)
(-0.000617827 8.58558e-10 -4.63145e-05)
(-0.000557416 1.76665e-09 -0.000145928)
(-0.000439134 6.34476e-09 -0.000258027)
(-0.000183772 -4.85237e-09 -0.000434939)
(-0.000184147 -6.16694e-09 -0.000435845)
(-0.00018415 -2.33391e-09 -0.00043585)
(-0.000184152 -1.01004e-09 -0.000435853)
(-0.000184152 1.05075e-09 -0.000435853)
(-0.00018415 2.37252e-09 -0.00043585)
(-0.000184147 6.18611e-09 -0.000435845)
(-0.000183772 4.85531e-09 -0.00043494)
(-0.000439134 -6.35649e-09 -0.000258027)
(-0.000557416 -1.76485e-09 -0.000145928)
(-0.000617827 -8.60508e-10 -4.63145e-05)
(-0.000617817 8.78518e-10 4.63387e-05)
(-0.000557388 1.78102e-09 0.000145945)
(-0.000439088 6.36588e-09 0.000258028)
(-0.000183743 -4.80185e-09 0.000434911)
(-0.000184118 -6.09868e-09 0.000435816)
(-0.000184121 -2.30703e-09 0.000435822)
(-0.000184122 -1.00367e-09 0.000435824)
(-0.000184122 1.01451e-09 0.000435824)
(-0.000184121 2.31801e-09 0.000435822)
(-0.000184118 6.10637e-09 0.000435816)
(-0.000183743 4.7941e-09 0.000434911)
(-0.000361202 -1.91146e-10 8.38231e-05)
(-0.000488311 -3.51638e-10 4.88242e-05)
(-0.000552127 -3.64259e-10 1.57433e-05)
(-0.000552134 3.56866e-10 -1.57357e-05)
(-0.000488331 3.49634e-10 -4.8819e-05)
(-0.000361228 1.65785e-10 -8.38229e-05)
(-0.000141319 -9.80093e-09 -0.000125738)
(-0.000141609 -1.17932e-08 -0.000125991)
(-0.000141611 -3.29013e-09 -0.000125991)
(-0.000141612 -1.29253e-09 -0.00012599)
(-0.000141612 1.32237e-09 -0.00012599)
(-0.000141611 3.32609e-09 -0.000125991)
(-0.000141609 1.18135e-08 -0.000125991)
(-0.000141319 9.80537e-09 -0.000125738)
(-0.000361228 -1.6666e-10 -8.38229e-05)
(-0.000488331 -3.38616e-10 -4.8819e-05)
(-0.000552134 -3.54244e-10 -1.57357e-05)
(-0.000552127 3.6923e-10 1.57433e-05)
(-0.000488311 3.61026e-10 4.88242e-05)
(-0.000361202 1.82464e-10 8.38231e-05)
(-0.000141305 -9.77103e-09 0.000125724)
(-0.000141595 -1.17552e-08 0.000125977)
(-0.000141597 -3.27741e-09 0.000125976)
(-0.000141598 -1.28787e-09 0.000125976)
(-0.000141598 1.28986e-09 0.000125976)
(-0.000141597 3.27903e-09 0.000125976)
(-0.000141595 1.17709e-08 0.000125977)
(-0.000141305 9.77528e-09 0.000125724)
(0.00281893 5.60926e-10 5.35227e-05)
(0.00281892 -5.18255e-10 -5.34606e-05)
(0.00281893 -4.81938e-10 5.35226e-05)
(0.00281892 5.81498e-10 -5.34607e-05)
(-0.000907607 -5.63146e-10 9.2784e-05)
(-0.000907601 5.97031e-10 -9.27448e-05)
(-0.000907607 7.36255e-10 9.27836e-05)
(-0.000907601 -5.30331e-10 -9.27449e-05)
)
;

boundaryField
{
    top_fluid_surface
    {
        type            fixedValue;
        value           uniform (1 0 0);
    }
    bottom_fluid_surface
    {
        type            noSlip;
    }
    lateral_surface_1
    {
        type            noSlip;
    }
    lateral_surface_2
    {
        type            noSlip;
    }
    lateral_surface_3
    {
        type            noSlip;
    }
    lateral_surface_4
    {
        type            noSlip;
    }
}


// ************************************************************************* //
