/*--------------------------------*- C++ -*----------------------------------*\
| =========                 |                                                 |
| \\      /  F ield         | OpenFOAM: The Open Source CFD Toolbox           |
|  \\    /   O peration     | Version:  v1612+                                |
|   \\  /    A nd           | Web:      www.OpenFOAM.com                      |
|    \\/     M anipulation  |                                                 |
\*---------------------------------------------------------------------------*/
FoamFile
{
    version     2.0;
    format      ascii;
    class       surfaceScalarField;
    location    "6.8";
    object      alphaPhi;
}
// * * * * * * * * * * * * * * * * * * * * * * * * * * * * * * * * * * * * * //

dimensions      [0 3 -1 0 0 0 0];

internalField   nonuniform List<scalar> 
2916
(
-7.96552e-05
-0.158805
0.114623
1.5076e-05
-0.15896
0.114603
1.74796e-05
-0.158876
0.114611
-4.51355e-06
-0.158844
0.114604
3.41799e-05
-0.158898
0.114597
-0.158847
0.114618
-8.34825e-06
-0.266008
0.091404
1.04523e-05
-0.266171
0.0913588
-1.441e-05
-0.266053
0.0913836
-1.50202e-05
-0.266059
0.0914001
6.34854e-06
-0.266111
0.0913678
-0.26605
0.0913956
0.000138569
-0.411953
0.145812
-1.10319e-05
-0.412124
0.146107
-7.68579e-05
-0.411983
0.146001
-1.75535e-05
-0.412045
0.145931
-2.4584e-05
-0.412076
0.145977
-0.411969
0.1459
0.000106767
-0.681334
0.269279
4.82176e-06
-0.681722
0.269706
-3.18536e-05
-0.681481
0.269539
-5.43289e-06
-0.681556
0.26949
-4.23567e-05
-0.681637
0.269603
-0.68132
0.269314
-0.000419029
-0.824856
0.141836
5.70279e-05
-0.826141
0.140998
0.000319069
-0.82596
0.140386
6.10894e-05
-0.824731
0.143351
-0.00031181
-0.82482
0.143486
-0.826428
0.138711
-0.000905105
-0.839877
0.0403418
6.71895e-05
-0.842391
0.0401709
0.000730448
-0.841565
0.0401215
0.000154086
-0.840861
0.0404458
-0.0010126
-0.840372
0.0404282
-0.841681
0.0401372
-0.000265081
-0.772437
-0.0214593
-3.36881e-05
-0.775934
-0.0211395
0.000413792
-0.775194
-0.0212597
-2.0589e-05
-0.773507
-0.0212596
-0.000362675
-0.772511
-0.0216195
-0.775559
-0.0210555
0.00169442
-0.670643
-0.0502168
-0.000208041
-0.671162
-0.0497581
-0.00134578
-0.671345
-0.049769
-0.000269131
-0.670931
-0.0502216
0.00274929
-0.671287
-0.0505449
-0.670502
-0.0495374
0.00169168
-0.52185
-0.0882562
-0.000195924
-0.518957
-0.0879326
-0.00166916
-0.519855
-0.0878713
-0.000378426
-0.521318
-0.0884296
0.00259257
-0.523428
-0.0882479
-0.517675
-0.0881339
-0.00192224
-0.312944
-0.136893
0.000296911
-0.311479
-0.139136
0.0016727
-0.3126
-0.138315
-0.000114817
-0.311798
-0.137463
-0.00511686
-0.31309
-0.135257
-0.312027
-0.140417
0.000932717
-0.109678
-0.135027
-0.000103042
-0.111105
-0.129798
-0.00104808
-0.111141
-0.131178
0.000109057
-0.109511
-0.134131
0.00298432
-0.108736
-0.138039
-0.112985
-0.126739
0.00485017
-0.0449431
-0.000931317
-0.0355613
-0.00565058
-0.0367788
-0.00128046
-0.0442707
0.0113579
-0.0518517
-0.0319498
-0.000179017
-0.269732
0.368253
5.3555e-06
-0.269916
0.368027
3.0344e-05
-0.269815
0.368108
-6.46362e-07
-0.269822
0.368158
7.17492e-05
-0.26987
0.368084
-0.26978
0.368177
-1.26332e-05
-0.332625
0.138073
-1.11459e-05
-0.33288
0.138056
3.74331e-06
-0.33275
0.138055
-6.40237e-06
-0.33276
0.138102
-2.37467e-05
-0.332842
0.138102
-0.332703
0.138051
0.00027332
-0.144742
-0.00696313
-3.32069e-05
-0.144955
-0.00651023
-0.000129843
-0.144857
-0.00667105
1.41669e-05
-0.144892
-0.00681494
3.86957e-05
-0.14501
-0.00669765
-0.144747
-0.00678937
-2.74362e-05
-0.0177882
0.00767488
-2.89153e-05
-0.0182965
0.00775331
-4.36217e-05
-0.0180783
0.00772165
-3.813e-07
-0.0180364
0.00770115
8.99643e-05
-0.0182192
0.00771802
-0.0178579
0.00769628
0.000171152
0.0486862
-0.0116439
-8.32105e-05
0.0484064
-0.0114883
-0.000139185
0.0485722
-0.011601
-6.93835e-06
0.0485075
-0.0115814
-5.25333e-06
0.0483917
-0.0114979
0.0487451
-0.0116814
0.000424045
0.103976
-0.00454952
-3.48298e-05
0.103828
-0.00468964
-0.000337701
0.103856
-0.00463037
-6.75511e-05
0.103934
-0.00457275
0.0004713
0.103968
-0.00451864
0.103776
-0.00482659
-0.000592439
0.141478
-0.00523262
-5.95496e-06
0.143247
-0.00353997
0.000571762
0.142921
-0.00376366
0.000293714
0.141946
-0.00481659
-0.000987537
0.140741
-0.00641125
0.143687
-0.00289109
0.000197506
0.122429
-0.00361961
-6.62798e-05
0.124839
-0.00375233
-0.000584687
0.124448
-0.00382208
3.07251e-05
0.122733
-0.00355725
0.00138942
0.120789
-0.00338005
0.12585
-0.00402712
-0.000683763
0.091523
-0.00705342
-5.18982e-05
0.0930254
-0.00720623
-0.000313234
0.0933937
-0.0072373
-0.000110183
0.0910591
-0.00699061
0.000858013
0.0886933
-0.00657051
0.0951621
-0.00755194
-0.0028023
0.0874212
-0.0214075
0.000213305
0.0833395
-0.0227809
0.00290444
0.0846529
-0.0228635
1.67307e-05
0.0864794
-0.0212046
-0.00664701
0.0883312
-0.0202941
0.0815026
-0.0235924
-0.00159744
0.0942414
-0.0316597
0.000467011
0.0785811
-0.0286444
0.00355873
0.0813732
-0.0299121
0.000845913
0.0925883
-0.0305666
-0.0045148
0.104026
-0.0329377
0.0717181
-0.027814
0.00494287
-0.00733589
-0.000519645
-0.00732228
-0.00474281
-0.00739115
-0.000719925
-0.00733216
0.00993282
-0.00743623
-0.00725197
4.39202e-05
0.0648587
0.287899
-1.6104e-06
0.0647811
0.287828
-8.82792e-06
0.0647863
0.287868
-1.34287e-05
0.0648043
0.287894
-2.6005e-05
0.0647963
0.287831
0.0648023
0.287895
0.000163904
0.135082
-0.087099
-3.87283e-06
0.135416
-0.0871782
-0.000109915
0.135326
-0.0871396
-3.5108e-05
0.135165
-0.0871308
6.3271e-05
0.135165
-0.0871415
0.135322
-0.0871469
0.000107635
0.0595338
-9.84048e-08
8.40578e-06
0.059783
-7.48105e-08
-3.1335e-05
0.0596657
-7.55356e-08
-1.33413e-06
0.0596281
-1.05592e-07
1.99109e-05
0.0596608
-1.29231e-07
0.0596462
-4.53202e-08
9.75448e-05
0.0168056
-1.40016e-06
-2.80539e-05
0.0166216
-8.51739e-07
-1.45085e-05
0.0167495
-8.78159e-07
-9.9449e-06
0.0167346
-1.14691e-06
-4.02604e-05
0.0166446
-1.36231e-06
0.0168082
-5.13903e-07
6.26221e-05
0.00511169
-2.13258e-05
-3.80217e-06
0.00520746
-1.48174e-05
-1.01845e-05
0.00516767
-2.02791e-05
-3.40339e-06
0.00515671
-1.92373e-05
1.66349e-05
0.00512658
-1.02484e-05
0.00516182
-2.18603e-05
3.27668e-05
0.00019421
3.17378e-05
2.62974e-08
0.000237534
3.18173e-05
-1.89005e-05
0.000220064
3.3132e-05
-8.45919e-06
0.000210393
2.93429e-05
4.77179e-05
0.00018191
2.0567e-05
0.000231075
2.02916e-05
2.46928e-05
-0.00376213
-0.0018512
4.33702e-06
-0.00234758
-0.00139344
-1.69356e-05
-0.00261372
-0.00137203
2.02998e-06
-0.00346645
-0.00173154
6.64637e-05
-0.00466893
-0.00209345
-0.00187678
-0.00107895
-0.000498111
-0.0118614
-0.0013178
7.24889e-05
-0.0106858
-0.00161163
0.000319291
-0.0107454
-0.00163876
0.000235838
-0.0119791
-0.00133019
-0.000406676
-0.0140908
-0.00100664
-0.00935725
-0.00189376
-0.00050973
-0.0213834
-0.0028752
4.84064e-05
-0.0213949
-0.00273967
0.000389069
-0.0213152
-0.00277507
2.00608e-05
-0.0214524
-0.00294833
-0.000795868
-0.0219674
-0.00344518
-0.0212069
-0.00234601
-0.000124442
-0.0196824
-0.00714245
1.73659e-05
-0.0220777
-0.00739854
0.000411788
-0.0214333
-0.00754437
5.76132e-05
-0.0200521
-0.00696836
-0.00117665
-0.0188883
-0.00653936
-0.0231857
-0.00801988
-0.000321852
-0.00671699
-0.0321253
0.000155897
-0.00803708
-0.0323618
0.000582551
-0.00777641
-0.0324285
0.000277095
-0.00689824
-0.0318813
-0.000921178
-0.00622527
-0.0321316
-0.00790878
-0.0324232
0.000519528
-0.00674001
-4.09124e-06
-0.00787141
-0.000394553
-0.00743098
-0.000114139
-0.00687334
0.000507944
-0.0058937
-0.00787969
6.02908e-05
0.125978
0.145974
-3.90396e-06
0.125794
0.146192
1.73563e-05
0.12584
0.146108
1.12871e-05
0.125884
0.146112
-5.31245e-05
0.125853
0.146131
0.125887
0.146058
5.25892e-06
-1.61095e-08
-0.000886055
-3.50135e-06
-1.51421e-08
-0.000967077
-1.04909e-06
-1.50883e-08
-0.000934459
-3.49248e-06
-1.52565e-08
-0.000923086
6.23415e-06
-1.57544e-08
-0.000924505
-1.33961e-08
-0.000934873
-1.08643e-09
9.78394e-09
-1.89978e-07
2.04929e-10
5.84057e-09
-1.55615e-07
7.02744e-10
7.24738e-09
-1.51571e-07
1.10548e-10
8.37383e-09
-1.79277e-07
-5.82123e-10
8.23979e-09
-2.02842e-07
6.74579e-09
-1.16354e-07
-1.94919e-10
1.09931e-08
-1.47614e-06
-1.04378e-09
-4.31194e-08
-8.68698e-07
-1.19599e-10
1.95834e-09
-9.32275e-07
-7.08825e-10
5.77832e-09
-1.19685e-06
-1.85286e-09
6.28353e-09
-1.40986e-06
1.65805e-09
-5.60945e-07
4.37723e-07
-1.05586e-05
-1.12834e-05
1.23531e-08
-6.65619e-06
-7.89831e-06
-1.03191e-07
-1.25165e-05
-7.74506e-06
-3.8596e-08
-9.72554e-06
-9.64436e-06
2.41562e-07
3.38517e-07
-1.08984e-05
-1.75701e-05
-4.1241e-06
1.57129e-05
-0.000482856
0.000476065
9.3775e-07
-0.000295997
0.000325364
-6.17016e-06
-0.000297346
0.000315227
2.8286e-07
-0.000415343
0.00041618
2.48742e-05
-0.000493593
0.000474466
-0.000167224
0.000190238
-2.99501e-05
-0.0200618
0.00562893
6.00974e-06
-0.0194341
0.00491645
1.4447e-05
-0.0197203
0.00509399
2.78644e-05
-0.0208296
0.00551538
7.95154e-05
-0.0218205
0.00604081
-0.0109264
0.00424445
-0.000438324
-0.0179594
0.00224642
-2.87237e-05
-0.0182677
0.00288542
0.000348234
-0.0183827
0.00291678
6.27005e-05
-0.018153
0.00245998
-0.000731783
-0.0175346
0.00180554
-0.0182869
0.00198794
-1.87896e-05
-0.000308166
-3.30156e-05
-2.56595e-05
-0.000247461
-3.21164e-05
3.3697e-05
-0.000287485
-3.21432e-05
-1.53869e-05
-0.000314948
-3.26745e-05
-0.000149705
-0.000260713
-3.32032e-05
-0.000418587
-3.20449e-05
6.56099e-06
-0.000529197
-0.000166001
-2.6544e-06
-0.000519851
-0.000149545
-1.02142e-05
-0.000550683
-0.000159063
-3.86533e-06
-0.00057821
-0.000162313
1.56093e-05
-0.000609267
-0.000160635
-0.000708633
-0.000176012
-7.87214e-05
-0.0306244
-0.00600032
-1.69339e-05
-0.0306966
-0.0059368
3.0804e-05
-0.0304686
-0.00593565
-7.89584e-06
-0.0305557
-0.00597211
-0.000102075
-0.0307
-0.00610765
-0.0302399
-0.00588999
0.000273957
-0.0306471
-0.000122553
-0.0312072
-0.00023233
-0.0307985
-9.4099e-05
-0.0305477
0.00037864
-0.0300493
-0.0308703
-0.0495976
-0.022085
0.0717184
0.000721309
-0.114782
0.064838
-0.0255597
-0.0476412
0.0740597
-0.00603585
-0.0937093
0.0741143
0.0644002
-0.141141
0.0706438
-0.00879722
0.0731635
-0.00259648
-0.113375
0.093576
-0.0109672
-0.173236
0.0667953
0.0120028
-0.140968
0.070555
-0.00136121
-0.157548
0.0771823
-0.00640114
-0.220838
0.0846654
-0.0966562
0.0814241
0.0184726
-0.231786
0.0434053
-0.0202335
-0.0687201
0.0389936
-0.0102053
-0.14317
0.0362853
-0.0445486
-0.101827
0.0423444
-0.0645912
-0.243322
0.0424958
-0.209269
0.0480166
0.00783102
-0.187629
0.0166566
-0.0143719
-0.111034
0.0119967
0.000681848
-0.232854
0.0129735
-0.00729868
-0.0875399
0.0155119
-0.0376592
-0.202339
0.0189477
-0.258858
0.0119342
-0.00594133
-0.117916
0.00878552
-0.00870889
-0.208702
-0.000431418
-0.000223562
-0.237151
-0.00049619
0.00540595
-0.213693
0.0062756
-0.00811883
-0.199857
0.00816708
-0.256299
-4.24284e-06
-0.0132801
-0.198072
0.00277848
-0.00074667
-0.215231
-3.41222e-05
-0.000353858
-0.233762
-1.86867e-05
0.0123366
-0.223095
-5.48589e-05
0.0040405
-0.195705
-5.28475e-06
-0.260053
-1.21286e-07
-0.000273893
-0.189809
-0.000457819
0.00511971
-0.19981
-8.56447e-09
-0.000523944
-0.214058
-3.82127e-08
0.0113794
-0.176619
-1.0492e-06
0.00864645
-0.182077
-1.81165e-05
-0.207658
-0.000573776
0.00386455
-0.185637
-1.87846e-05
0.000591097
-0.184951
-1.02876e-05
-0.00074299
-0.175829
-2.45334e-06
0.00674913
-0.125476
-5.78018e-05
0.010872
-0.14864
-0.00154419
-0.0931846
0.00562427
-0.00912856
-0.168302
-0.000105063
-0.0151158
-0.169843
-0.00067764
-0.00402845
-0.142575
-0.000191807
0.0106829
-0.126019
-0.000537927
0.0151554
-0.137495
-0.00100166
-0.0822993
0.00855031
-0.0226116
-0.137403
-0.000187298
-0.0173771
-0.156066
-0.00982438
-0.0039854
-0.121563
-0.00626507
0.0247877
-0.12482
-0.0197761
0.0264095
-0.109549
-0.0222343
-0.134225
0.00136244
-0.0231148
-0.0258381
-0.0866469
-0.0123386
-0.0559915
-0.0843278
0.0048374
-0.0705055
-0.055266
0.0284592
-0.0501159
-0.0915161
0.00701754
-0.0143012
-0.0681485
-0.02988
-0.0912838
-0.0130585
-0.0152875
-0.0106685
-0.0692686
0.0113354
-0.118857
0.00344487
-0.0875019
0.00939996
-0.0150148
-0.0355828
-0.0503932
-0.0176948
0.13949
-0.00319305
-0.124784
0.147196
-0.026137
-0.0541677
0.151481
-0.013812
-0.102579
0.164376
0.0529282
-0.14283
0.146709
-0.0072501
0.133327
0.0140201
-0.0482703
0.0777746
3.06877e-05
-0.05735
0.00404278
0.00729899
-0.0491263
0.0416567
-0.00658524
-0.0640167
0.00746916
-0.0310928
-0.064136
0.00962499
-0.056042
0.0716504
0.00163148
-0.0148022
0.00372117
-0.000365821
-0.0197714
0.00127404
-0.00103863
-0.0145356
0.00303589
-0.00107697
-0.0241713
0.000426133
-0.00168984
-0.0230411
0.000624825
-0.014133
0.00395256
0.00107297
-0.00439721
-2.46471e-05
0.00111353
-0.00585968
6.60894e-05
1.29054e-05
-0.00319237
-9.86694e-06
0.00165335
-0.00868387
1.46759e-05
0.00253367
-0.00785386
-6.59465e-05
1.00139e-06
-4.58774e-05
0.00144871
-0.00186413
-4.47827e-07
0.000308419
3.40815e-05
-4.16286e-05
0.000144793
1.86874e-05
-3.70704e-07
0.000232993
5.48408e-05
-1.51322e-05
2.96946e-06
5.28319e-06
-1.43142e-06
1.31247e-07
-1.31533e-07
-6.0883e-09
0.000476967
-1.59379e-08
-2.00285e-10
1.1437e-09
-4.93173e-08
-2.39276e-10
2.47745e-10
-1.05126e-09
-3.9379e-10
7.41933e-10
-2.02457e-08
-2.78317e-09
9.49447e-10
-2.14066e-09
5.37281e-09
-4.14833e-10
-8.1489e-10
1.92028e-05
-3.83132e-08
-1.47064e-09
4.78257e-10
-3.3284e-09
-4.14871e-08
6.27803e-10
-1.2617e-10
-8.48478e-07
3.34004e-08
-2.76563e-07
-1.92594e-05
5.35726e-07
-2.21984e-07
-0.000587533
-4.59187e-06
-3.8769e-08
4.51465e-07
1.22042e-08
-2.00854e-08
-1.02329e-05
-4.55018e-08
-1.7805e-06
-6.97477e-07
-1.1525e-09
-6.05957e-05
1.0212e-06
-9.00989e-08
-0.00160949
6.25519e-06
-3.82297e-06
-0.00608976
-1.72671e-05
8.99841e-05
-0.000301319
-2.83783e-07
3.41375e-07
-0.000589559
-7.28945e-06
-1.10981e-05
-0.000178612
-2.43477e-06
-1.23718e-05
-0.000535408
5.68142e-08
2.3565e-06
-0.00100912
-1.68531e-06
-0.00362314
4.05487e-05
0.000651485
-0.00531435
5.80377e-06
-0.000100646
-0.00966
3.22267e-06
-0.00103867
-0.00551209
5.75334e-06
-0.000638367
-0.0207041
-7.35527e-06
0.000744265
-0.0243706
-0.000261281
0.0030294
9.18319e-06
0.00993234
-0.068581
-0.00805382
0.00103097
-0.0483404
-4.75679e-05
-0.0109266
-0.0410098
-4.95205e-05
-0.0160862
-0.053441
-0.00395196
0.00949032
-0.045627
-0.0343815
-0.0575393
-0.00102978
0.0231586
-0.0472647
0.0306869
-0.0653749
-0.0075142
-0.0104315
-0.0285177
-0.0641412
-0.0247416
-0.0586434
-0.103605
-0.0154916
0.00623124
0.13612
-0.0425894
0.010082
0.164245
-0.0165389
-0.012069
0.149131
-0.00536854
0.00246075
0.0892289
0.00754573
-0.0118238
0.0880203
0.00911104
0.131695
0.00572238
-0.00371863
0.0189717
0.000187902
-0.00107325
0.00909288
0.00558319
-0.00302597
0.00713543
-0.000384456
-0.000279589
0.0014118
-0.0227799
-0.000560752
0.00127231
-0.00379895
0.00820024
-0.000113421
1.64648e-05
9.75753e-05
3.79676e-05
-5.61329e-06
4.78056e-05
-4.38538e-05
-6.37702e-07
9.23934e-05
8.87847e-05
6.92556e-06
2.27559e-06
9.17671e-05
6.14037e-05
-3.98554e-07
4.3579e-05
0.000199313
-8.43238e-06
4.51953e-07
-2.38734e-07
1.06391e-05
4.17922e-05
-4.46319e-07
9.58419e-09
2.35255e-07
-1.09448e-07
6.48448e-06
1.52244e-05
-1.13143e-07
6.57689e-07
1.34951e-06
-6.2663e-08
1.1788e-07
-1.80474e-06
2.33963e-09
4.77861e-09
-3.53162e-09
1.38379e-07
3.39504e-08
-6.96939e-09
2.74723e-09
2.04234e-09
-2.13842e-09
8.81558e-08
1.04961e-08
-3.76385e-09
4.58561e-09
2.90794e-09
-1.26352e-09
6.2502e-09
-1.64718e-08
1.50721e-11
2.97187e-10
-1.32141e-08
-6.57403e-11
-9.25476e-09
-1.3468e-08
1.00614e-11
2.667e-10
-8.7807e-10
-9.046e-11
-3.10156e-09
-1.24594e-08
-1.17621e-11
7.23519e-10
-1.86488e-09
4.49066e-09
-1.10216e-09
-3.5829e-08
3.74887e-10
-5.01803e-09
3.86776e-09
1.49322e-08
6.6724e-08
4.10733e-10
-1.62567e-10
1.24233e-09
4.88894e-09
5.82035e-08
-3.46505e-09
-2.38676e-07
-7.4745e-08
-6.62776e-09
-9.07743e-06
1.61257e-07
-9.61239e-09
1.49975e-08
3.68808e-09
-3.78272e-10
-7.98103e-08
2.82766e-08
7.21987e-10
-1.02024e-08
6.03841e-09
-7.37742e-08
3.88568e-09
3.41924e-09
-1.04706e-05
4.24342e-07
-7.75821e-09
-3.98198e-05
3.35683e-07
1.0079e-06
-1.41381e-06
1.41826e-07
-1.41826e-08
-6.34152e-06
1.87745e-08
-2.72037e-08
-2.50404e-06
1.32117e-09
-4.44439e-08
5.3844e-08
2.02944e-08
-4.87427e-06
1.60917e-06
-2.82472e-09
-4.03751e-06
7.39087e-08
5.03214e-06
-2.93315e-07
-6.58085e-07
-2.21842e-06
6.43839e-06
-5.59888e-08
-3.04582e-07
2.68598e-06
-1.16332e-06
-7.00246e-06
2.23075e-07
-5.35594e-07
3.2322e-07
-0.000203908
-6.30007e-05
8.46433e-06
-3.09981e-06
-7.21615e-07
-0.00787096
-0.000179104
-1.32119e-06
1.09056e-05
-4.39893e-05
-3.64886e-05
2.15072e-06
-7.32885e-06
-5.40191e-05
-0.00294731
-0.000986489
0.000361976
-0.0195876
-0.0154199
3.92199e-05
-0.000685171
-0.0024823
-0.0226728
0.00284019
-0.0130842
0.000336082
-0.00791277
0.00113571
-0.0130236
0.00256271
-0.0689629
-0.0111391
-0.0086537
0.0130559
0.118387
-0.0295456
0.0175115
0.167669
-0.0315908
0.0103879
0.140836
-0.0109809
0.00668954
0.138143
0.00414079
-0.000945008
0.0907261
0.0147252
0.12098
-0.00044212
-9.32299e-05
0.0104347
3.88365e-05
-4.7212e-05
0.0107512
0.000401173
-9.14464e-05
0.00806752
7.03972e-05
-2.54143e-06
0.00402792
-0.00166314
-5.18145e-07
0.000702595
-0.000195332
0.00569233
-1.00449e-07
2.4383e-07
4.14025e-06
6.97282e-08
4.4977e-07
-8.23202e-08
9.11761e-07
1.11314e-07
-3.20106e-11
5.38383e-07
9.63827e-08
-4.83206e-09
1.11472e-08
5.91986e-10
-3.87071e-07
-3.97145e-07
4.33888e-06
3.00424e-09
2.26787e-09
-1.17733e-10
3.78687e-09
4.12779e-09
-5.75049e-10
3.81359e-09
1.91125e-09
-2.66243e-10
8.1959e-10
6.7763e-10
-1.45255e-08
3.35416e-09
2.70072e-10
-6.4899e-08
3.19839e-08
-8.49418e-07
3.64125e-11
-1.3037e-09
-1.11609e-11
1.88367e-11
-2.80346e-09
-2.24548e-11
6.15303e-12
-1.90118e-10
-2.19041e-11
-1.27726e-12
-3.07833e-09
-4.44831e-13
-1.85374e-10
-8.09118e-10
-1.0153e-13
-2.09641e-09
-1.15769e-11
9.26756e-10
-1.51811e-08
-1.07862e-09
5.35724e-10
-3.28735e-08
-6.6981e-10
-1.33987e-09
-7.46947e-11
-8.28236e-11
-1.10118e-09
-1.3184e-08
-4.7711e-11
-3.70338e-10
-6.1195e-09
-4.54066e-11
-1.20205e-08
-3.99153e-11
-1.6875e-08
-6.52521e-10
4.6394e-09
-1.24682e-09
-4.42798e-09
1.18942e-08
-8.27671e-10
-1.71404e-10
7.70564e-11
4.48069e-09
-5.52993e-10
3.97946e-11
-1.67844e-08
-1.68316e-09
-8.13293e-11
-3.20824e-07
-4.7583e-11
-3.1646e-10
-7.63759e-10
4.95734e-10
4.49601e-11
-1.01047e-08
1.56916e-09
2.36557e-10
-3.89061e-09
7.71999e-10
7.34721e-10
-1.8452e-11
8.70722e-10
1.74052e-09
3.86495e-10
-2.44141e-10
-4.32056e-09
4.73829e-10
-5.56716e-10
1.33461e-07
4.89116e-09
1.40668e-09
-1.36955e-08
5.63312e-09
4.56587e-09
-2.78286e-08
1.67744e-09
3.72118e-10
6.037e-08
-3.62531e-08
1.90647e-11
6.10176e-11
-2.48007e-09
1.56791e-07
-8.76984e-08
7.82845e-08
5.25902e-06
-5.99348e-06
6.72179e-08
1.5834e-05
-1.58783e-05
-7.80826e-08
8.39991e-06
-1.51037e-05
-9.33176e-06
2.97436e-05
-2.0968e-05
1.38759e-05
-8.02876e-05
-6.16498e-06
2.51414e-05
-1.40792e-05
-1.59673e-05
3.86791e-05
-0.000198892
-4.89908e-06
0.000172273
-0.000240583
6.62999e-05
0.000468971
-0.000247001
0.000474761
-0.000932975
-0.000315474
0.000624215
-0.00825523
-0.0013581
0.000220766
-0.000267034
-3.27271e-06
-0.0255382
0.000942037
-0.0274848
0.00755928
-0.0298839
0.00599871
-0.0278993
-0.00296749
-0.0344875
-0.0262667
-0.000585562
0.0358895
0.0579022
-0.000124492
0.0353745
0.0579392
9.2655e-05
0.03547
0.0579229
2.19734e-05
0.0356434
0.0579185
0.000108787
0.0355418
0.0579429
0.0356658
0.0579065
-0.000593237
-0.00114676
0.0175618
0.000184465
-0.00197902
0.0176139
0.000148132
-0.00153169
0.0175543
1.56217e-05
-0.00144914
0.0175786
5.11548e-05
-0.00154497
0.0175523
-0.00147108
0.0175625
-6.45461e-05
-0.00444036
1.46721e-05
-0.00449877
1.289e-05
-0.00446729
1.01782e-05
-0.00447078
2.2278e-05
-0.00448343
-0.00444832
-0.0001206
0.0150134
-2.26023e-06
2.71917e-05
0.0149786
-1.68688e-06
5.44477e-05
0.0150087
-1.58973e-06
7.04361e-06
0.0150046
-2.14101e-06
-5.12043e-05
0.0150258
-2.65735e-06
0.0149926
-1.00185e-06
-0.000183214
0.0229542
-1.66159e-05
2.30805e-05
0.0228254
-1.37238e-05
3.8403e-05
0.022897
-1.22267e-05
3.79187e-06
0.0229043
-1.74444e-05
2.51174e-05
0.0229102
-2.17298e-05
0.022903
-1.00928e-05
-0.00025458
-6.83387e-05
3.32772e-05
-0.000101232
2.55777e-05
-7.88408e-05
1.02177e-05
-9.0991e-05
0.000122679
-0.000102453
-5.49643e-05
-1.12406e-09
-7.39064e-07
-1.78584e-06
-2.39449e-11
-5.76644e-07
-1.33436e-06
1.94864e-13
-5.35276e-07
-1.26514e-06
-1.56988e-10
-7.4869e-07
-1.62516e-06
2.89105e-11
-9.14493e-07
-1.99702e-06
-4.44679e-07
-7.24289e-07
-9.11515e-09
-1.36037e-06
-1.61193e-05
-9.10431e-11
-1.6347e-06
-1.28073e-05
-2.68217e-09
-1.44253e-06
-1.14236e-05
-8.50317e-10
-1.64022e-06
-1.66626e-05
1.08071e-08
-1.74965e-06
-2.09958e-05
-1.06941e-06
-9.52993e-06
-1.12147e-07
-6.95869e-05
4.95829e-10
-0.000102979
-3.35448e-09
-8.02794e-05
5.55506e-09
-9.26401e-05
9.67715e-08
-0.000104294
-5.59373e-05
1.07132e-07
-9.27186e-07
-2.54239e-06
-8.12239e-09
-3.57539e-08
-2.16385e-06
-2.87436e-08
-2.97401e-07
-1.97362e-06
-2.00552e-08
-4.37004e-07
-2.4605e-06
3.98889e-09
-3.92346e-07
-3.0641e-06
-3.50944e-07
-1.00614e-06
3.81611e-07
4.23439e-06
-2.2745e-05
3.44128e-09
6.1447e-06
-1.91339e-05
-9.94004e-08
4.25291e-06
-1.63264e-05
-1.10513e-07
6.11193e-06
-2.4236e-05
-1.02986e-07
8.26222e-06
-3.12362e-05
4.11482e-06
-1.43311e-05
6.22364e-07
1.85453e-05
-2.10296e-07
-7.80622e-05
-1.39555e-07
-6.30366e-05
-2.72546e-07
-5.3095e-05
-4.92305e-07
-3.20999e-05
-6.78732e-05
4.38894e-06
9.86276e-05
-0.000119219
1.54228e-07
7.25555e-05
-8.25071e-05
-8.73375e-07
7.12276e-05
-8.18959e-05
-5.25664e-08
9.23638e-05
-0.000107018
2.47646e-06
0.000113568
-0.000130667
4.89012e-05
-5.30674e-05
6.78481e-06
0.000755369
-0.00134995
1.40618e-07
0.000744361
-0.000763457
-7.01053e-07
0.00069198
-0.000642397
1.35456e-08
0.000861596
-0.00145286
4.16259e-07
0.000998901
-0.00205204
0.000593101
-0.000560055
5.69696e-05
-0.00167745
8.89739e-07
-0.0020789
8.72573e-06
-0.00211253
-6.97357e-06
-0.00206007
-7.10641e-05
-0.0021604
-0.0021786
8.09584e-06
0.00468056
-0.00316336
-1.48172e-06
0.00351969
-0.00463642
-5.0744e-06
0.00343304
-0.00427454
1.19798e-06
0.00424291
-0.0042535
1.65329e-05
0.00457242
-0.00375049
0.00222768
-0.00373115
-3.89079e-05
0.00555636
-0.00533549
-9.352e-06
0.00512763
-0.00427006
2.07004e-05
0.0050461
-0.00391784
1.06798e-05
0.00533472
-0.00508468
-1.80175e-05
0.00574094
-0.00575566
0.0053961
-0.00378629
3.47665e-06
-0.00277546
4.17468e-06
-0.0027514
8.68204e-05
-0.00265113
4.35486e-05
-0.00261444
-0.00012738
-0.00250155
-0.00302034
-0.000178033
0.000335044
-0.007313
-2.40181e-05
0.00183311
-0.00636959
9.5649e-05
0.00144719
-0.00668272
-1.24189e-05
0.00126695
-0.00707667
-0.000299145
0.000452054
-0.00774044
0.00171425
-0.00659491
-9.95734e-05
0.000365527
-5.40319e-09
-3.46875e-05
0.000406098
-5.35929e-09
-1.82222e-07
0.000394856
-5.32172e-09
-2.60645e-05
0.000242259
-5.50355e-09
-5.99258e-05
0.000125567
-5.80192e-09
0.000474641
-5.30291e-09
2.46903e-07
-5.26393e-08
-3.22509e-06
-5.28668e-08
-4.36982e-06
-5.29091e-08
2.20103e-06
-5.63712e-08
3.91199e-06
-5.90737e-08
-5.34932e-08
-6.84679e-05
-2.55667e-09
-6.44607e-06
-1.39315e-05
-2.60726e-09
-5.93023e-06
3.98635e-05
-2.6306e-09
-5.85872e-06
-1.13879e-05
-2.88661e-09
-6.17677e-06
-0.000150015
-3.20115e-09
-6.16503e-06
-2.6821e-09
-6.08425e-06
-6.94138e-12
-2.53117e-09
-4.74914e-09
-4.69433e-12
-2.57202e-09
-4.7519e-09
-5.21916e-12
-2.56378e-09
-4.74314e-09
-4.84688e-12
-2.73184e-09
-5.01382e-09
-1.87955e-11
-2.92509e-09
-5.26412e-09
-2.53082e-09
-4.67308e-09
1.2055e-11
-5.51825e-08
-4.72673e-12
-5.54221e-08
-2.67156e-11
-5.54509e-08
-6.32819e-12
-5.91234e-08
1.62525e-11
-6.20213e-08
-5.60078e-08
-7.7062e-09
-2.26161e-07
-3.92244e-05
-1.4137e-09
-2.29017e-07
-3.78204e-05
-1.50597e-09
-2.27804e-07
-3.77715e-05
-2.43395e-09
-2.42438e-07
-3.86044e-05
-1.13191e-08
-2.57009e-07
-3.90983e-05
-2.24735e-07
-3.7912e-05
3.58435e-12
-2.09026e-07
-2.08424e-08
-1.06619e-11
-2.12027e-07
-2.10609e-08
-6.75119e-11
-2.11326e-07
-2.05195e-08
-1.33006e-11
-2.25447e-07
-2.1383e-08
3.68972e-11
-2.39884e-07
-2.17373e-08
-2.10117e-07
-1.84544e-08
4.78268e-10
-2.79817e-07
-1.76012e-10
-2.80852e-07
-1.12372e-09
-2.81091e-07
-1.75895e-10
-2.81896e-07
1.47299e-09
-2.8202e-07
-2.8011e-07
-1.88891e-07
-2.07297e-06
-0.000202997
-3.61673e-08
-2.04041e-06
-0.000185487
-1.60155e-07
-2.0342e-06
-0.000194729
-3.09546e-08
-2.1147e-06
-0.000198955
4.23285e-07
-2.13022e-06
-0.000198077
-1.96756e-06
-0.000211528
-2.17066e-10
-2.2424e-06
2.23948e-18
-2.05929e-11
-2.23536e-06
2.00527e-18
8.47448e-11
-2.26505e-06
1.71687e-18
2.67381e-12
-2.29103e-06
2.15618e-18
-2.31944e-10
-2.29545e-06
2.29373e-18
-2.21462e-06
1.71382e-18
1.36492e-09
-1.09867e-11
-7.01331e-10
-1.08858e-11
-2.00387e-09
-1.09223e-11
-8.58566e-11
-1.10802e-11
-3.26283e-09
-1.12456e-11
-1.07253e-11
3.35153e-06
1.05551e-15
-0.00620667
9.90421e-07
9.57281e-16
-0.00611992
-1.15735e-06
8.33363e-16
-0.00612823
4.09597e-07
1.04441e-15
-0.00617263
1.46454e-06
1.11782e-15
-0.00630678
8.21253e-16
-0.00610005
1.24695e-19
-7.2617e-21
-4.02636e-18
5.17369e-21
-7.14577e-21
-3.47989e-18
-7.72726e-20
-7.11367e-21
-2.92057e-18
-7.06213e-21
-1.46087e-20
-3.98061e-18
2.44111e-19
-7.45097e-21
-4.38005e-18
-6.98946e-21
-2.91444e-18
-7.1756e-24
-1.09867e-11
-4.79847e-24
-1.08858e-11
-8.04483e-24
-1.09223e-11
-1.99529e-24
-1.10802e-11
-9.33383e-24
-1.12456e-11
-1.07253e-11
0.000218389
-2.38084e-10
-0.0354955
8.20661e-05
-2.34445e-10
-0.035262
-2.05402e-05
-2.35011e-10
-0.0350154
-4.76517e-05
-2.38677e-10
-0.0349978
0.000144521
-2.43396e-10
-0.0349986
-2.29531e-10
-0.0348751
-1.73349e-14
-2.38067e-10
1.64097e-16
-8.85645e-15
-2.34454e-10
1.33295e-16
-5.72203e-16
-2.35019e-10
2.46721e-16
-4.75209e-17
-2.38678e-10
3.33123e-17
-6.66695e-15
-2.43391e-10
1.46555e-15
-2.29537e-10
7.1313e-17
-6.24778e-13
2.01758e-27
-3.57049e-13
2.36881e-27
-3.15679e-14
2.55882e-27
1.563e-14
2.60716e-27
-3.5804e-13
2.90079e-27
2.11155e-27
-0.00109849
-8.91904e-12
-0.0242973
0.0344637
-0.0012585
-4.68778e-12
-0.0242379
0.0344525
-0.000478761
-1.44158e-12
-0.0241129
0.0339198
0.000515533
-4.79834e-12
-0.0238037
0.0332276
0.000658455
-4.38503e-12
-0.0229137
0.0328193
-5.54866e-12
-0.0240019
0.0343089
-4.33215e-15
-8.69294e-12
5.14334e-17
-2.21817e-13
-1.28788e-15
-4.55256e-12
3.89555e-17
-1.38297e-13
-3.0726e-15
-1.31372e-12
3.85422e-18
-1.26084e-13
-2.07003e-15
-4.58312e-12
1.62973e-19
-2.16228e-13
2.28725e-15
-4.10523e-12
1.30371e-17
-2.84165e-13
-5.47858e-12
9.81357e-18
-6.77992e-14
9.23715e-14
8.61971e-27
-5.79561e-12
1.9852e-14
7.17198e-27
-2.04208e-12
-3.72894e-14
1.28047e-26
-5.29816e-13
-7.05015e-14
7.80229e-27
-4.09287e-12
3.34942e-14
1.07739e-26
-8.75871e-12
5.60026e-27
-3.7849e-12
0.000192958
1.81788e-16
-0.0111035
0.000231534
1.46501e-16
-0.0109087
-9.83281e-06
1.33228e-17
-0.0108795
-4.04134e-05
6.36928e-19
-0.0111321
4.84668e-06
5.4956e-17
-0.0112201
3.75638e-17
-0.0110788
-3.94909e-18
1.42408e-26
1.17493e-16
-6.63243e-18
1.10061e-26
7.09044e-17
-4.97659e-19
1.8309e-26
9.02236e-17
-1.1818e-20
1.17076e-26
4.87533e-18
2.47152e-19
1.66772e-26
1.03336e-16
9.00956e-27
4.11178e-17
-1.72455e-28
7.59116e-27
-3.408e-29
7.2785e-27
2.49365e-28
7.91855e-27
4.65841e-28
6.9838e-27
5.04297e-29
1.23822e-26
4.50369e-27
-0.00016741
3.50722e-16
0.000521408
-0.000112534
2.90938e-16
0.000508654
8.48101e-05
4.77793e-16
0.000467883
4.49831e-05
3.54693e-17
0.000518636
-4.22976e-05
2.92854e-15
0.000503988
1.71708e-16
0.000464509
2.88979e-17
1.10776e-26
-2.34735e-16
6.52059e-17
1.04892e-26
-1.95857e-16
4.54972e-18
1.11966e-26
-3.22894e-16
2.2409e-16
9.80876e-27
-2.55727e-17
-1.71609e-16
1.77706e-26
-2.16583e-15
6.50898e-27
-1.1704e-16
-5.33563e-29
-3.73418e-29
1.61414e-29
6.20683e-30
1.10838e-28
5.17898e-29
2.22262e-28
-4.22888e-29
-3.58463e-29
-2.25773e-28
-6.25773e-29
-9.0594e-05
2.55315e-16
0.0121346
-0.000132607
2.09615e-16
0.0120733
-0.000135619
3.71987e-16
0.012043
-5.51825e-05
1.5388e-17
0.0120296
2.98136e-05
2.34081e-15
0.0120179
1.19521e-16
0.0120671
1.60355e-18
1.18569e-26
-4.45311e-16
4.07615e-18
1.38672e-26
-3.63758e-16
2.97921e-19
1.52139e-26
-6.37873e-16
2.10746e-17
1.4492e-26
-2.61304e-17
-3.79137e-17
1.59866e-26
-3.96357e-15
1.09174e-26
-2.06453e-16
-5.37035e-29
-8.17115e-27
-7.38694e-29
-9.51147e-27
-1.60701e-29
-1.03925e-26
4.29737e-29
-9.89985e-27
3.79616e-29
-1.09282e-26
-7.54872e-27
-9.05062e-05
3.28131e-16
0.0237973
-0.000136405
2.69115e-16
0.0236767
-0.000133206
4.88732e-16
0.0236344
-6.30488e-05
4.05846e-17
0.0235691
1.20167e-05
3.01026e-15
0.0235581
1.47617e-16
0.0236662
-5.57846e-19
1.06281e-26
-3.74403e-16
-1.02407e-18
1.25774e-26
-3.04529e-16
-1.53659e-18
1.37713e-26
-5.50206e-16
-1.05284e-19
1.36099e-26
-4.5029e-17
-1.27646e-17
1.50327e-26
-3.33044e-15
1.06125e-26
-1.66001e-16
-3.08692e-29
-8.91237e-27
-5.11316e-29
-1.0475e-26
-6.05293e-29
-1.14179e-26
-1.28049e-29
-1.11851e-26
2.72822e-29
-1.23156e-26
-8.80143e-27
7.29964e-05
3.30055e-16
0.000118201
2.68849e-16
0.00016553
4.97321e-16
7.51339e-06
6.75121e-17
-0.000174381
2.97744e-15
1.44049e-16
-1.0104e-20
1.31136e-26
1.81781e-19
1.5661e-26
1.00511e-19
1.7059e-26
-3.07075e-21
1.74695e-26
-8.13832e-18
1.94195e-26
1.42452e-26
-8.69253e-30
-1.6561e-29
-2.42325e-29
-2.03009e-29
8.08731e-30
-0.0135697
0.118864
0.0131374
-0.0160237
0.159279
0.0108881
-0.0187335
0.130944
0.0126461
-0.00143407
0.113758
0.00713403
0.0094786
0.0656898
0.00215778
0.115783
0.013081
-0.0522284
0.173851
-0.00296728
-0.0329667
0.0191573
0.00910765
-0.00212019
0.0139397
0.00938201
0.0271738
0.0127028
0.00536212
0.0537786
0.0234396
0.00222756
0.169386
-0.003732
-0.0155426
-0.00299997
-0.0016332
-0.000506299
-0.000420039
-0.000751107
0.00093363
-0.00072683
0.0230135
-0.00036056
-0.00940793
-0.000733395
0.0102907
4.93255e-06
-0.000185198
0.0107424
-4.79983e-06
0.000764786
0.0122005
-2.95845e-08
0.000497528
0.00773655
-2.51795e-07
-0.000196732
0.00184454
3.78998e-06
0.0102942
-4.33045e-06
-0.000669836
0.00314966
-4.31384e-06
-0.000260335
0.0100343
2.14882e-06
0.00122439
0.0125363
-6.56053e-07
0.00113156
0.00845194
-1.17717e-06
0.000391083
0.00265259
5.3118e-06
0.00656666
-1.48234e-06
4.88735e-05
-5.31323e-07
0.00141987
-1.55097e-06
0.000621389
-4.82014e-08
0.00018105
-2.01532e-06
0.000270591
-4.36415e-06