/*--------------------------------*- C++ -*----------------------------------*\
| =========                 |                                                 |
| \\      /  F ield         | OpenFOAM: The Open Source CFD Toolbox           |
|  \\    /   O peration     | Version:  v1612+                                |
|   \\  /    A nd           | Web:      www.OpenFOAM.com                      |
|    \\/     M anipulation  |                                                 |
\*---------------------------------------------------------------------------*/
FoamFile
{
    version     2.0;
    format      ascii;
    class       volScalarField;
    location    "6.8";
    object      p_rgh;
}
// * * * * * * * * * * * * * * * * * * * * * * * * * * * * * * * * * * * * * //

dimensions      [1 -1 -2 0 0 0 0];

internalField   nonuniform List<scalar> 
1116
(
19853.5
19853.5
19853.5
19853.5
19853.5
19853.5
20024.1
20024.6
20024.4
20024.2
20024.3
20024.3
18088
18088
18088.1
18088
18088
18088
15384.3
15384.1
15384.1
15384.2
15384.3
15383.9
13233.9
13234.4
13234
13234.4
13234.2
13233.9
11390.2
11391.8
11390.6
11391.7
11390.4
11390.9
10353.3
10351.1
10351
10353.1
10355.1
10349.6
10045.6
10044
10045.2
10044.6
10048.2
10043.5
10144.1
10139.1
10141.9
10142.9
10146
10139
10342.5
10345.2
10345.2
10342.9
10338.1
10351.8
10741.6
10741.6
10746.8
10736.1
10738.1
10743.8
10839.8
10831.2
10838.1
10835.5
10846.5
10828.6
21352.1
21350.9
21351.5
21351.9
21351.6
21351.8
21060.6
21063.1
21062
21061.3
21061.8
21061.6
16276.7
16276.5
16276.8
16276.6
16276.6
16277
9693.05
9690.96
9691.18
9692.74
9692.67
9690.93
5876.08
5878.31
5877.14
5877.46
5877.13
5877.39
3796.1
3799.04
3798.15
3797.05
3794.46
3798.19
2611.94
2602.19
2603.02
2608.76
2616.09
2600.33
2613.01
2601.92
2604.31
2610.97
2620.76
2601.19
3403.09
3392.57
3398.21
3400.43
3393.24
3404.55
3930.95
3945.8
3942.37
3932.56
3906.52
3972.67
4399.55
4412.94
4420.87
4388.41
4379.3
4422.64
4862.31
4802.25
4826.26
4855.45
4905.04
4792.56
22907.4
22905.8
22906.2
22906.5
22906.2
22906.5
10137.4
10143
10143
10138
10137.6
10143
2802.86
2808.32
2807.23
2803.86
2803.55
2807.85
371.155
370.375
370.187
370.612
370.804
370.055
-6.06861
-7.01521
-6.73854
-6.55075
-6.24138
-6.8954
79.1538
76.1585
76.6521
78.0406
80.4232
74.1193
197.526
196.648
196.596
196.949
196.64
192.95
289.312
287.592
285.76
290.85
297.281
278.519
530.476
521.155
519.805
532.269
547.951
509.891
716.952
725.44
722.057
716.64
702.191
739.841
899.246
939.29
926.951
900.831
863.653
956.539
953.979
973.413
965.754
948.565
928.692
964.223
27524.4
27519.2
27520.8
27522.4
27521.4
27522.1
119.585
119.432
119.634
119.511
119.549
119.711
-3.07706
-3.2388
-3.26395
-3.28421
-3.34801
-3.26768
-27.6156
-27.4559
-27.5379
-27.8599
-27.9342
-27.6528
-32.4194
-32.7608
-32.5254
-32.6071
-32.365
-32.9791
6.81342
6.40678
6.45977
6.22354
6.39887
5.39337
142.608
121.586
120.357
138.03
154.659
103.729
297.084
298.292
298.003
298.368
297.583
301.314
239.454
244.601
247.058
243.654
233.613
261.519
54.3623
52.5508
53.2616
54.3881
54.3452
54.9501
394.193
391.078
390.366
394.825
402.09
386.592
945.583
948.26
945.775
941.108
938.146
934.736
2799.04
2886.1
2801.81
2883.37
2883.75
2797.15
2436.14
2275.06
2414.86
2317.2
2309.29
2247.16
1705.73
1374.19
1549.61
1519.22
1690.51
1756.14
989.642
616.515
837.92
691.829
1007.82
1228.93
628.903
753.608
835.694
794.726
721.067
907.143
664.936
795.207
803.081
810.765
786.32
792.14
755.597
752.412
768.248
741.853
738.838
741.844
771.022
752.971
732.82
588.782
646.913
523.797
775.382
765.594
697.316
676.258
704.336
465.162
846.585
835.692
757.387
872.726
901.281
721.965
1161.4
1184.3
1174.18
1254.01
1242.9
1249.98
1062.92
1094.82
1299.77
1282.94
1398.98
1255.92
2656.94
2494.44
2653.03
2721.44
2624.87
2595.51
1487.1
653.012
1195.71
832.331
752.2
1643.48
139.374
157.776
102.568
163.449
184.299
207.864
49.634
35.6488
34.3324
60.8653
55.6201
14.6218
2.34326
-17.9561
-22.0964
-9.93231
-7.49935
-31.7688
-14.3066
-28.5024
-26.9421
-29.6847
-28.4628
-22.3212
-19.1624
-14.6518
-16.1432
-13.0408
-6.29723
0.443303
1.45753
2.13899
3.01448
1.18646
1.45048
31.394
17.1317
11.0708
11.6242
8.08029
1.15206
34.5398
32.3763
23.7385
27.1487
26.3327
20.6536
22.4611
437.381
255.151
146.653
500.344
717.454
354.756
1189.57
1127.24
787.144
1457.96
1568.21
1577.59
2673.12
2632.76
2547.44
1255.92
1563.82
2687.53
808.68
120.666
388.735
85.0864
140.149
935.729
10.6288
19.1128
11.6699
14.7268
12.4117
11.7267
0.512235
0.63658
0.758284
1.46416
0.414594
2.0875
5.17297
3.08092
5.39028
4.8269
6.34662
7.33469
-0.544686
-2.05279
-0.0125869
-1.37039
0.371096
-1.55368
-3.99019
-1.80078
-3.32108
-5.10096
-0.0813702
0.691267
-1.31423
0.699168
2.36749
-3.1238
-1.66169
0.261866
6.00901
6.10887
6.60243
1.23089
-0.113708
-0.110838
-5.11635
-5.42301
-3.56338
-5.46965
-3.17786
-5.89739
11.1828
11.134
8.74446
10.8155
16.6427
12.9367
592.703
187.471
-13.7161
153.392
715.425
280.916
3145.37
3295.29
3299.33
2016.43
1539.56
3290.75
167.156
92.7417
69.2256
28.0456
-4.81897
155.47
18.6241
20.1896
19.9907
19.9135
19.4092
17.2265
-1.35122
-0.0635669
-2.4982
-2.21175
-3.41427
-4.02603
-1.11379
-1.30823
-1.46313
-1.31807
-1.24831
-1.38807
-8.17852
-8.56954
-8.74392
-8.14014
-7.74501
-8.84992
-5.88305
-5.41484
-4.89286
-5.01308
-2.96242
-2.32963
-1.70497
-1.22286
-1.01753
-2.26322
0.313584
0.340954
4.32264
4.58918
4.68778
3.0513
3.56074
3.05922
1.75627
1.14212
0.181134
0.608274
2.03787
-0.0121188
5.04906
9.51537
10.1883
17.1769
112.069
13.6835
-36.3235
61.4491
160.502
69.0368
348.21
-22.0425
32423.1
32431.6
32427.4
32424.5
32426
32428.6
14084.7
14017.1
14039.1
14052.8
14037.1
14058
172.572
169.898
171.272
171.545
171.594
171.287
783.506
783.243
783.696
783.813
784.266
783.043
699.786
699.936
700.136
700.49
701.198
699.191
213.566
212.742
213.142
213.645
214.01
212.374
-5.88518
-6.13616
-6.05251
-6.06099
-6.11687
-5.94009
13.0465
12.9415
12.9673
13.041
13.0443
13.0522
-1.16748
-0.798221
-0.951436
-0.880748
-0.818708
-1.1256
-41.8105
-42.0857
-41.8382
-42.1133
-42.2197
-41.6671
-23.8688
-23.6555
-23.7553
-23.7248
-23.5987
-23.7501
-9.02876
-9.04527
-9.07099
-8.82944
-8.77137
-9.20614
-40.1087
-40.1617
-39.9537
-40.3447
-40.2163
-40.0123
-24.1919
-25.8933
-25.6766
-24.7242
-23.8084
-25.4608
13.8329
14.351
13.9295
15.4068
16.2852
11.8545
3.42738
-2.88144
-2.81438
0.337599
2.6468
-9.14852
40.2532
25.8829
23.5616
36.9487
41.7689
17.8672
20.703
16.8074
16.4293
18.3809
21.3918
20.2217
97.59
91.0837
92.8786
99.5569
108.17
91.8785
80.9443
77.7757
78.1618
76.1327
75.2902
77.5227
-10.9189
-8.63547
-8.92861
-12.2043
-14.5572
-7.14134
78.5325
78.7945
78.9549
78.0394
73.4251
85.1946
2.06919
2.13349
2.10439
2.33293
2.39909
2.60386
-19.5784
-19.6875
-19.7006
-19.422
-19.2759
-19.6
18.8764
18.7877
18.7989
18.9296
19.0533
19.0156
8.82762
8.84469
8.83818
8.89075
8.92589
8.92233
-3.92023
-3.94566
-3.94603
-3.90986
-3.88089
-3.93804
21.9464
21.9741
21.9813
22.0055
22.0855
21.9229
8.07489
8.10182
8.09335
8.10432
8.09237
8.11517
-1.20547
-1.20501
-1.20639
-1.19163
-1.20509
-1.18792
8.83489
8.88759
8.94241
8.92944
8.90309
8.97815
0.382837
0.389727
0.391538
0.383476
0.371458
0.404332
-2.63165
-2.62411
-2.62241
-2.61673
-2.62109
-2.61069
793.424
771.83
772.129
777.249
789.158
769.579
2.95938
2.96317
2.96062
2.9655
2.96645
2.96021
-9.06121
-9.01799
-9.00723
-9.00889
-9.03025
-9.00059
3016.43
3019.97
3019.07
3016.19
2985.77
3015.37
6.18433
6.38494
6.47812
6.31892
6.24948
6.27402
-8.29846
-8.25129
-8.20586
-8.25273
-8.12932
-8.31684
3222.09
3208.36
3210.96
3257.48
3276.86
3242.48
2.81899
2.8706
2.8878
2.91223
2.90296
2.94858
-6.55519
-6.57599
-6.59555
-6.59452
-6.53896
-6.54298
3281.83
3287.32
3294.14
3298.71
3299.47
3295.86
4.1211
4.15533
4.186
4.18622
4.24567
4.19601
-5.71395
-5.71756
-5.71843
-5.72268
-5.71527
-5.72611
3275.7
3279.8
3285.46
3289.34
3289.35
3288.21
3.61168
3.60557
3.59373
3.58526
3.58771
3.59474
-5.68263
-5.69178
-5.70461
-5.70678
-5.70476
-5.70074
3255.09
3258.68
3263.92
3266.91
3266.58
3266.57
4.12401
4.13069
4.13888
4.14746
4.15446
4.15226
-6.7002
-6.7082
-6.71842
-6.72934
-6.73272
-6.72724
3012.04
3004.19
3001.16
2999.38
2999.02
2999.61
6.11264
6.11755
6.12242
6.13679
6.14833
6.13712
-9.12371
-9.1221
-9.12546
-9.13041
-9.13827
-9.13336
4182.77
4179.06
4160.97
4185.24
2549.45
4192.16
4806.8
3092.12
3589.08
3296.73
1661.86
4876.68
1765.97
-6.86335
43.0171
26.9777
-25.6233
2290.22
162.454
105.385
118.283
57.5888
-3.62681
247.213
35.4678
113.34
152.815
93.4795
13.6015
196.305
-25.1975
17.4989
50.8243
25.1831
-10.9928
19.0707
10.3426
8.85959
9.33624
9.16271
7.10821
8.01801
7.35082
7.81763
6.39862
6.12736
7.1102
6.0865
1.46161
2.87487
2.18607
1.96443
3.34707
1.52975
-1.98128
-2.37453
-2.54294
-2.73652
-2.79879
-2.59659
-5.80049
-5.96338
-6.24318
-6.11246
-5.14869
-5.57581
-5.2639
-5.7119
-6.29535
-6.35301
-5.77256
-5.92932
4.61952
4.51624
4.58381
4.69282
4.73189
4.88852
-0.121751
-0.08934
-0.147041
-0.223909
-0.202115
-0.17196
1.54696
1.59715
1.5617
1.54394
1.57108
1.52564
1.58211
1.55651
1.41488
1.43104
1.70051
2.0856
-1.91722
-1.87935
-1.94878
-2.10707
-2.18738
-2.1261
0.959894
0.972544
0.936105
0.86285
0.846629
0.845911
4.77437
4.58308
4.5202
4.33208
4.21797
4.19864
0.647912
1.05474
1.20861
0.602596
0.268494
0.325575
2.21508
2.26331
2.29346
2.22764
2.20748
2.16576
4.30196
4.02545
3.58769
3.74388
3.97091
4.26095
0.0767453
0.345945
0.286562
0.0476993
-0.293608
-0.438784
2.6038
2.7312
2.93716
2.77432
2.72919
2.6997
9.10656
8.50751
7.37387
7.19675
5.96631
6.74331
-1.19004
-1.46189
-1.82815
-1.3686
-1.0693
-1.14565
3.43383
3.48287
3.52924
3.50833
3.48857
3.4892
6.83144
6.4949
5.58619
6.03625
5.47127
5.76616
-3.00215
-3.23162
-3.24744
-3.19162
-3.01473
-3.22378
3.82884
3.85622
3.7315
3.63317
3.47394
3.49975
1.96276
0.518268
-1.09573
-1.25737
-2.35483
-0.79699
-4.32366
-4.42563
-4.52002
-4.29613
-4.13029
-3.96161
1.96081
1.91728
1.80751
1.53683
1.36819
1.30659
845.507
932.705
984.516
790.535
453.016
785.066
-3.95826
-3.57259
-3.13739
-2.57696
-1.36165
-2.37679
-9.2122
-9.46294
-9.39523
-8.864
-7.73011
-8.63328
)
;

boundaryField
{
    seabed_topleft_surface
    {
        type            fixedFluxPressure;
        gradient        uniform 0;
        value           nonuniform List<scalar> 
72
(
19853.5
19853.5
19853.5
19853.5
19853.5
19853.5
20024.1
20024.6
20024.4
20024.2
20024.3
20024.3
18088
18088
18088.1
18088
18088
18088
15384.3
15384.1
15384.1
15384.2
15384.3
15383.9
13233.9
13234.4
13234
13234.4
13234.2
13233.9
11390.2
11391.8
11390.6
11391.7
11390.4
11390.9
10353.3
10351.1
10351
10353.1
10355.1
10349.6
10045.6
10044
10045.2
10044.6
10048.2
10043.5
10144.1
10139.1
10141.9
10142.9
10146
10139
10342.5
10345.2
10345.2
10342.9
10338.1
10351.8
10741.6
10741.6
10746.8
10736.1
10738.1
10743.8
10839.8
10831.2
10838.1
10835.5
10846.5
10828.6
)
;
    }
    seabed_topright_surface
    {
        type            fixedFluxPressure;
        gradient        uniform 0;
        value           nonuniform List<scalar> 
72
(
2799.04
2886.1
2801.81
2883.37
2883.75
2797.15
2436.14
2275.06
2414.86
2317.2
2309.29
2247.16
1705.73
1374.19
1549.61
1519.22
1690.51
1756.14
989.642
616.515
837.92
691.829
1007.82
1228.93
628.903
753.608
835.694
794.726
721.067
907.143
664.936
795.207
803.081
810.765
786.32
792.14
755.597
752.412
768.248
741.853
738.838
741.844
771.022
752.971
732.82
588.782
646.913
523.797
775.382
765.594
697.316
676.258
704.336
465.162
846.585
835.692
757.387
872.726
901.281
721.965
1161.4
1184.3
1174.18
1254.01
1242.9
1249.98
1062.92
1094.82
1299.77
1282.94
1398.98
1255.92
)
;
    }
    breakwater_top_surface
    {
        type            fixedFluxPressure;
        gradient        uniform 0;
        value           nonuniform List<scalar> 
36
(
3016.43
3019.97
3019.07
3016.19
2985.77
3015.37
3222.09
3208.36
3210.96
3257.48
3276.86
3242.48
3281.83
3287.32
3294.14
3298.71
3299.47
3295.86
3275.7
3279.8
3285.46
3289.34
3289.35
3288.21
3255.09
3258.68
3263.92
3266.91
3266.58
3266.57
3012.04
3004.19
3001.16
2999.38
2999.02
2999.61
)
;
    }
    breakwater_left_surface
    {
        type            fixedFluxPressure;
        gradient        uniform 0;
        value           nonuniform List<scalar> 
24
(
10839.8
10831.2
10838.1
10835.5
10846.5
10828.6
4862.31
4802.25
4826.26
4855.45
4905.04
4792.56
953.979
973.413
965.754
948.565
928.692
964.223
945.583
948.26
945.775
941.108
938.146
934.736
)
;
    }
    breakwater_right_surface
    {
        type            fixedFluxPressure;
        gradient        uniform 0;
        value           nonuniform List<scalar> 
24
(
1062.92
1094.82
1299.77
1282.94
1398.98
1255.92
1189.57
1127.24
787.144
1457.96
1568.21
1577.59
592.703
187.471
-13.7161
153.392
715.425
280.916
-36.3235
61.4491
160.502
69.0368
348.21
-22.0425
)
;
    }
    water_front_surface
    {
        type            fixedFluxPressure;
        gradient        uniform 0;
        value           nonuniform List<scalar> 
186
(
19853.5
20024.1
18088
15384.3
13233.9
11390.2
10353.3
10045.6
10144.1
10342.5
10741.6
10839.8
21352.1
21060.6
16276.7
9693.05
5876.08
3796.1
2611.94
2613.01
3403.09
3930.95
4399.55
4862.31
22907.4
10137.4
2802.86
371.155
-6.06861
79.1538
197.526
289.312
530.476
716.952
899.246
953.979
27524.4
119.585
-3.07706
-27.6156
-32.4194
6.81342
142.608
297.084
239.454
54.3623
394.193
945.583
2799.04
2436.14
1705.73
989.642
628.903
664.936
755.597
771.022
775.382
846.585
1161.4
1062.92
2656.94
1487.1
139.374
49.634
2.34326
-14.3066
-19.1624
1.45753
17.1317
32.3763
437.381
1189.57
2673.12
808.68
10.6288
0.512235
5.17297
-0.544686
-3.99019
-1.31423
6.00901
-5.11635
11.1828
592.703
3145.37
167.156
18.6241
-1.35122
-1.11379
-8.17852
-5.88305
-1.70497
4.32264
1.75627
5.04906
-36.3235
32423.1
14084.7
172.572
783.506
699.786
213.566
-5.88518
13.0465
-1.16748
-41.8105
-23.8688
-9.02876
-40.1087
-24.1919
13.8329
3.42738
40.2532
20.703
97.59
80.9443
-10.9189
78.5325
2.06919
-19.5784
18.8764
8.82762
-3.92023
21.9464
8.07489
-1.20547
8.83489
0.382837
-2.63165
793.424
2.95938
-9.06121
3016.43
6.18433
-8.29846
3222.09
2.81899
-6.55519
3281.83
4.1211
-5.71395
3275.7
3.61168
-5.68263
3255.09
4.12401
-6.7002
3012.04
6.11264
-9.12371
4182.77
4806.8
1765.97
162.454
35.4678
-25.1975
10.3426
7.35082
1.46161
-1.98128
-5.80049
-5.2639
4.61952
-0.121751
1.54696
1.58211
-1.91722
0.959894
4.77437
0.647912
2.21508
4.30196
0.0767453
2.6038
9.10656
-1.19004
3.43383
6.83144
-3.00215
3.82884
1.96276
-4.32366
1.96081
845.507
-3.95826
-9.2122
)
;
    }
    water_back_surface
    {
        type            fixedFluxPressure;
        gradient        uniform 0;
        value           nonuniform List<scalar> 
186
(
19853.5
20024.3
18088
15383.9
13233.9
11390.9
10349.6
10043.5
10139
10351.8
10743.8
10828.6
21351.8
21061.6
16277
9690.93
5877.39
3798.19
2600.33
2601.19
3404.55
3972.67
4422.64
4792.56
22906.5
10143
2807.85
370.055
-6.8954
74.1193
192.95
278.519
509.891
739.841
956.539
964.223
27522.1
119.711
-3.26768
-27.6528
-32.9791
5.39337
103.729
301.314
261.519
54.9501
386.592
934.736
2797.15
2247.16
1756.14
1228.93
907.143
792.14
741.844
523.797
465.162
721.965
1249.98
1255.92
2595.51
1643.48
207.864
14.6218
-31.7688
-22.3212
0.443303
31.394
34.5398
22.4611
354.756
1577.59
2687.53
935.729
11.7267
2.0875
7.33469
-1.55368
0.691267
0.261866
-0.110838
-5.89739
12.9367
280.916
3290.75
155.47
17.2265
-4.02603
-1.38807
-8.84992
-2.32963
0.340954
3.05922
-0.0121188
13.6835
-22.0425
32428.6
14058
171.287
783.043
699.191
212.374
-5.94009
13.0522
-1.1256
-41.6671
-23.7501
-9.20614
-40.0123
-25.4608
11.8545
-9.14852
17.8672
20.2217
91.8785
77.5227
-7.14134
85.1946
2.60386
-19.6
19.0156
8.92233
-3.93804
21.9229
8.11517
-1.18792
8.97815
0.404332
-2.61069
769.579
2.96021
-9.00059
3015.37
6.27402
-8.31684
3242.48
2.94858
-6.54298
3295.86
4.19601
-5.72611
3288.21
3.59474
-5.70074
3266.57
4.15226
-6.72724
2999.61
6.13712
-9.13336
4192.16
4876.68
2290.22
247.213
196.305
19.0707
8.01801
6.0865
1.52975
-2.59659
-5.57581
-5.92932
4.88852
-0.17196
1.52564
2.0856
-2.1261
0.845911
4.19864
0.325575
2.16576
4.26095
-0.438784
2.6997
6.74331
-1.14565
3.4892
5.76616
-3.22378
3.49975
-0.79699
-3.96161
1.30659
785.066
-2.37679
-8.63328
)
;
    }
    water_left_surface
    {
        type            fixedFluxPressure;
        gradient        uniform 0;
        value           nonuniform List<scalar> 
42
(
19853.5
19853.5
19853.5
19853.5
19853.5
19853.5
21352.1
21350.9
21351.5
21351.9
21351.6
21351.8
22907.4
22905.8
22906.2
22906.5
22906.2
22906.5
27524.4
27519.2
27520.8
27522.4
27521.4
27522.1
32423.1
32431.6
32427.4
32424.5
32426
32428.6
14084.7
14017.1
14039.1
14052.8
14037.1
14058
172.572
169.898
171.272
171.545
171.594
171.287
)
;
    }
    water_right_surface
    {
        type            fixedFluxPressure;
        gradient        uniform 0;
        value           nonuniform List<scalar> 
42
(
2799.04
2886.1
2801.81
2883.37
2883.75
2797.15
2656.94
2494.44
2653.03
2721.44
2624.87
2595.51
2673.12
2632.76
2547.44
1255.92
1563.82
2687.53
3145.37
3295.29
3299.33
2016.43
1539.56
3290.75
4182.77
4179.06
4160.97
4185.24
2549.45
4192.16
4806.8
3092.12
3589.08
3296.73
1661.86
4876.68
1765.97
-6.86335
43.0171
26.9777
-25.6233
2290.22
)
;
    }
    water_top_surface
    {
        type            totalPressure;
        rho             rho;
        psi             none;
        gamma           1;
        p0              uniform 0;
        value           nonuniform List<scalar> 
180
(
0
0
0
0
0
0
0
0
0
0
0
0
-2.37618
-1.25519
-1.85462
-1.76145
-1.46734
-2.27527
0
0
0
0
0
0
0
0
0
0
0
0
0
0
0
0
0
0
-2.6128
-2.10986
-1.96723
-2.99125
-4.32437
-1.1023
-22.529
-22.8269
-22.7776
-22.6791
-22.8053
-22.6319
-9.99016
-10.0349
-10.0413
-9.9483
-9.92715
-10.0255
-5.26783
-5.26721
-5.27422
-5.25388
-5.28039
-5.24879
-4.72863
-4.72921
-4.73279
-4.72558
-4.74397
-4.71576
-2.76324
-2.77498
-2.77488
-2.77236
-2.7734
-2.77319
-0.387656
-0.36698
-0.354965
-0.408356
-0.486667
-0.412328
-1.80075
-1.83457
-1.86147
-1.86836
-1.88173
-1.82274
-1.35439
-1.34265
-1.32631
-1.3092
-1.29832
-1.29968
-1.64927
-1.65515
-1.65771
-1.65605
-1.65947
-1.64938
-2.05611
-2.06111
-2.06173
-2.05985
-2.06445
-2.05612
-1.34212
-1.33589
-1.33477
-1.335
-1.3359
-1.329
0
0
0
0
0
0
0
0
0
0
0
0
0
0
0
0
0
0
-2.89487
-2.9871
-3.11057
-3.28501
-3.24193
-3.55398
-0.139177
-0.141718
-0.153641
-0.141324
-0.151365
-0.142666
-0.458683
-0.450309
-0.47404
-0.513241
-0.538605
-0.51242
0
0
0
0
0
0
0
0
0
0
-0.0039616
-0.00535033
-0.00651191
-0.0113537
-0.0226163
-0.0357174
-0.0480344
-0.0499689
-0.374763
-0.418249
-0.453938
-0.463992
-0.524228
-0.485302
-1.36662
-1.45662
-1.55518
-1.65129
-1.92517
-1.6519
-1.90337
-1.76578
-1.32262
-1.41377
-1.57282
-1.78554
)
;
    }
}


// ************************************************************************* //
