/*--------------------------------*- C++ -*----------------------------------*\
| =========                 |                                                 |
| \\      /  F ield         | OpenFOAM: The Open Source CFD Toolbox           |
|  \\    /   O peration     | Version:  v1612+                                |
|   \\  /    A nd           | Web:      www.OpenFOAM.com                      |
|    \\/     M anipulation  |                                                 |
\*---------------------------------------------------------------------------*/
FoamFile
{
    version     2.0;
    format      ascii;
    class       volVectorField;
    location    "6.8";
    object      U;
}
// * * * * * * * * * * * * * * * * * * * * * * * * * * * * * * * * * * * * * //

dimensions      [0 1 -1 0 0 0 0];

internalField   nonuniform List<vector> 
1116
(
(-0.211811 -0.000169459 0.00788108)
(-0.212213 -6.12013e-05 0.00797999)
(-0.212019 0.000102782 0.00792939)
(-0.211919 -4.69325e-05 0.00789792)
(-0.212054 3.06682e-05 0.00791955)
(-0.211916 7.4012e-05 0.00790468)
(-0.485329 -2.85308e-05 0.198214)
(-0.485757 1.70796e-05 0.198087)
(-0.485498 8.17653e-07 0.198151)
(-0.48543 -3.54172e-05 0.19819)
(-0.485587 6.58601e-06 0.198117)
(-0.485445 8.3913e-06 0.198197)
(-0.608058 0.000149931 0.324273)
(-0.60832 0.00010925 0.324592)
(-0.608077 -0.000126202 0.324492)
(-0.608174 -3.62022e-05 0.324397)
(-0.608244 -2.83506e-06 0.324384)
(-0.60811 -4.01312e-05 0.324436)
(-1.09867 9.96391e-05 0.346754)
(-1.09913 7.93138e-05 0.346943)
(-1.09878 -6.62769e-05 0.346874)
(-1.09894 1.81922e-05 0.346903)
(-1.09899 -1.98078e-05 0.346903)
(-1.0987 -9.10694e-05 0.346795)
(-1.61282 -0.000478723 0.162254)
(-1.61397 -0.000310408 0.162166)
(-1.61341 0.000382996 0.162083)
(-1.61335 0.000362747 0.162483)
(-1.61357 -0.000254 0.162538)
(-1.61304 -0.000427749 0.161963)
(-1.85375 -0.00095361 -0.0102455)
(-1.85714 -0.000765072 -0.0107278)
(-1.85592 0.000831221 -0.0107038)
(-1.85501 0.000970213 -0.00997234)
(-1.85519 -0.00075905 -0.00975166)
(-1.85541 -0.00117598 -0.0109823)
(-1.89877 -1.76614e-05 -0.217174)
(-1.9076 -0.0005526 -0.218401)
(-1.90527 0.000479305 -0.218002)
(-1.9016 0.000451312 -0.217193)
(-1.89888 -0.000460687 -0.216145)
(-1.90655 -0.000438373 -0.219142)
(-1.7676 0.00272044 -0.468629)
(-1.77546 0.000879404 -0.469889)
(-1.77398 -0.00120396 -0.469015)
(-1.76966 -0.00236187 -0.469213)
(-1.76668 0.00196814 -0.467231)
(-1.77581 0.0036173 -0.471145)
(-1.55808 0.00221815 -0.711634)
(-1.55384 0.00100965 -0.712421)
(-1.55516 -0.00128562 -0.711328)
(-1.55779 -0.00260903 -0.712824)
(-1.56147 0.00206709 -0.710511)
(-1.55108 0.00278348 -0.713501)
(-1.19991 -0.00279048 -0.785746)
(-1.18763 -0.00119064 -0.783921)
(-1.19117 0.00170824 -0.783261)
(-1.19747 0.00262474 -0.786784)
(-1.20683 -0.00318155 -0.787585)
(-1.18171 -0.00701791 -0.781928)
(-0.540569 0.000725882 -0.645646)
(-0.545163 0.00102459 -0.639762)
(-0.545587 -0.00102442 -0.640156)
(-0.538949 -0.00213333 -0.645667)
(-0.535781 0.0025435 -0.650846)
(-0.552116 0.00403949 -0.633595)
(-0.18437 0.00587855 -0.15997)
(-0.180603 0.00382859 -0.144534)
(-0.181311 -0.00526458 -0.146871)
(-0.184346 -0.00981793 -0.158323)
(-0.188763 0.00802246 -0.171465)
(-0.179542 0.0149648 -0.138951)
(-0.462253 -0.00027378 0.64096)
(-0.462691 -0.000126798 0.64068)
(-0.462467 0.000133883 0.640827)
(-0.462448 -5.95075e-05 0.640844)
(-0.462572 5.84398e-05 0.640742)
(-0.462371 0.000112545 0.640903)
(-0.84022 2.0853e-05 0.258752)
(-0.840579 -2.62435e-05 0.258643)
(-0.840352 -1.93164e-05 0.258705)
(-0.840426 2.75431e-05 0.258762)
(-0.840512 -2.73306e-05 0.258679)
(-0.840307 -1.92563e-05 0.258712)
(-0.615929 0.000389196 0.271688)
(-0.617005 0.000200366 0.272222)
(-0.616565 -0.000255211 0.272014)
(-0.616442 -6.10839e-05 0.271948)
(-0.616776 7.80244e-05 0.272089)
(-0.616313 5.02525e-05 0.27173)
(-0.209719 -0.000101431 0.646094)
(-0.210056 -3.99256e-05 0.647536)
(-0.209885 -2.90909e-05 0.647017)
(-0.210126 -0.000137965 0.646693)
(-0.210448 0.000154467 0.647119)
(-0.209526 0.000184005 0.646367)
(0.207363 0.000599904 0.461425)
(0.203681 0.000253825 0.4607)
(0.205452 -0.000642828 0.460832)
(0.205558 -0.000179041 0.461554)
(0.204225 4.26043e-05 0.461762)
(0.207254 -6.1364e-05 0.460588)
(0.857821 0.0022501 0.198941)
(0.853715 0.00145171 0.198432)
(0.855774 -0.00161801 0.19821)
(0.855184 -0.00177353 0.199123)
(0.855885 0.00145446 0.198805)
(0.856377 0.00260895 0.198519)
(1.88065 -0.00303291 -0.00391212)
(1.90012 -0.00321451 0.000731068)
(1.89559 0.00281077 -0.000903079)
(1.88713 0.00590232 -0.00193133)
(1.87316 -0.00369274 -0.00660846)
(1.90066 -0.00622797 0.0026103)
(1.93387 -4.52212e-05 -0.00975448)
(1.98154 0.00146709 -0.00590454)
(1.96932 -0.00207526 -0.00630853)
(1.94445 -0.00501205 -0.00934624)
(1.91486 0.00548671 -0.0135884)
(1.99116 0.0103628 -0.00246644)
(1.42744 -0.00818512 0.0840495)
(1.46106 -0.000621429 0.0876051)
(1.4565 4.16517e-05 0.0875534)
(1.42849 -0.0037876 0.0838982)
(1.40043 0.00293452 0.0802129)
(1.47619 0.0056811 0.0900645)
(0.424257 -0.0222594 -0.0875722)
(0.418041 -0.00684557 -0.10344)
(0.428932 0.00941865 -0.0987243)
(0.414598 0.0229696 -0.0901656)
(0.406505 -0.023597 -0.0771932)
(0.433325 -0.0416183 -0.111289)
(1.03087 -0.0154133 -0.274281)
(0.956033 -0.00189277 -0.261226)
(0.968973 0.00756046 -0.265765)
(1.02296 0.0249766 -0.271133)
(1.07497 -0.0163117 -0.281496)
(0.900083 -0.0288742 -0.25321)
(0.194878 0.0227707 -0.371647)
(0.0483797 0.0152323 -0.344049)
(0.0695773 -0.0182922 -0.346856)
(0.183591 -0.026168 -0.370969)
(0.288684 0.0220569 -0.394057)
(0.00592764 0.0546043 -0.33168)
(-0.601772 4.9266e-05 0.943209)
(-0.602374 2.75443e-05 0.942272)
(-0.602037 -1.59804e-05 0.94261)
(-0.602106 -2.61731e-06 0.942836)
(-0.60226 -3.53855e-05 0.942557)
(-0.601885 -1.89848e-05 0.942907)
(0.920066 0.000700041 0.307962)
(0.920345 0.000405414 0.307908)
(0.920081 -0.000466461 0.307908)
(0.920223 -0.000258573 0.308042)
(0.92033 0.000162673 0.308101)
(0.919988 0.000239944 0.307881)
(3.49737 0.000949201 -0.320055)
(3.5017 0.000779957 -0.31668)
(3.49971 -0.000515693 -0.317829)
(3.49903 -0.000244789 -0.31904)
(3.49924 0.000224912 -0.318152)
(3.4991 0.000271748 -0.318578)
(7.03677 0.00485396 -0.301966)
(7.03343 0.00250811 -0.301861)
(7.03424 -0.00289741 -0.301856)
(7.03753 9.17934e-05 -0.302363)
(7.04121 -0.00159162 -0.302016)
(7.03108 -0.00233255 -0.30233)
(9.04009 0.0432775 -0.496816)
(9.04464 0.0234798 -0.494327)
(9.03641 -0.0188624 -0.497647)
(9.03538 0.00137565 -0.496444)
(9.02857 -0.00044787 -0.492868)
(9.04503 0.00543934 -0.500232)
(8.15732 0.191474 -0.628996)
(8.36972 0.138107 -0.631247)
(8.27057 -0.114625 -0.627068)
(8.27218 -0.164213 -0.630899)
(8.25263 0.147526 -0.627452)
(8.30209 0.264073 -0.626871)
(-1.92077 0.0643873 -0.122898)
(0.100735 0.116466 -0.180887)
(-0.315628 -0.0475405 -0.164613)
(-1.34234 -0.0929877 -0.141749)
(-2.74048 0.161155 -0.0987682)
(0.529263 0.315754 -0.199935)
(-4.5095 -0.163371 0.672274)
(-4.31107 -0.0749473 0.701991)
(-4.35763 0.0965626 0.712848)
(-4.49814 0.140375 0.662801)
(-4.68039 -0.0582702 0.61985)
(-4.14542 -0.146233 0.744192)
(-3.18704 -0.0543323 0.649646)
(-3.24921 -0.0130914 0.654869)
(-3.22466 0.0174215 0.656976)
(-3.21247 0.0477897 0.641411)
(-3.31976 -0.0460954 0.600355)
(-3.13175 -0.0814524 0.685934)
(-2.79389 -0.00975533 -0.665586)
(-2.88758 -0.0029254 -0.685465)
(-2.86842 0.00485951 -0.696521)
(-2.80959 0.0353514 -0.655095)
(-2.82553 -0.034665 -0.651001)
(-2.85693 -0.0506297 -0.6923)
(-1.60002 -0.00736738 -0.698638)
(-1.62679 -0.00919389 -0.60029)
(-1.62762 0.0155829 -0.635977)
(-1.61218 0.034985 -0.670634)
(-1.64835 -0.0233465 -0.756878)
(-1.61598 -0.0252475 -0.575095)
(0.296538 0.0363031 1.27223)
(0.118676 0.00589771 1.22624)
(0.151806 -0.00712503 1.24206)
(0.26729 -0.0154342 1.27108)
(0.392887 0.00209477 1.32008)
(0.118243 0.0445838 1.20622)
(-1.72096 8.0315e-05 0.289123)
(-1.72172 3.53402e-05 0.289738)
(-1.72131 1.36647e-05 0.289591)
(-1.72143 5.20738e-05 0.289519)
(-1.72162 -6.5258e-05 0.289492)
(-1.72114 -5.47725e-05 0.28944)
(1.37727 -0.000112047 -2.02129)
(1.37973 7.04663e-05 -2.02455)
(1.37933 -3.11933e-05 -2.02306)
(1.37882 -0.000416262 -2.02303)
(1.37903 0.000275426 -2.02343)
(1.37959 0.000422266 -2.02317)
(-2.20909 -0.0651853 -6.73434)
(-2.20144 -0.0144577 -6.6933)
(-2.20978 0.0345529 -6.71253)
(-2.20455 0.0147229 -6.72637)
(-2.21236 -0.0101322 -6.735)
(-2.2036 -0.0273579 -6.70735)
(2.87395 0.00780685 -3.60096)
(2.37741 -0.0114687 -3.46496)
(2.59517 -0.0236563 -3.52017)
(2.74198 0.0190664 -3.54016)
(2.74412 -0.0480611 -3.54482)
(2.6061 -0.036763 -3.5263)
(-2.5555 0.205292 0.25649)
(-2.86048 0.120557 0.317616)
(-2.78541 -0.0947049 0.262576)
(-2.69889 -0.0406086 0.28347)
(-2.67569 0.033208 0.367352)
(-2.7924 0.108478 0.18924)
(-1.59253 0.151843 6.90529)
(-0.980049 0.11968 7.11592)
(-1.08972 -0.0744533 7.08331)
(-1.39007 -0.103502 6.99928)
(-1.69339 0.130642 6.92698)
(-0.880521 0.249999 7.13603)
(-7.3709 -0.0307969 5.08063)
(-6.85849 -0.00728549 5.63422)
(-6.92669 0.00895482 5.6606)
(-7.27705 0.0229183 5.15806)
(-7.64064 0.00139478 4.7591)
(-6.49832 0.0499504 6.2516)
(-7.05107 -0.0476403 1.25213)
(-7.09196 -0.0483127 1.50901)
(-7.08749 0.0347626 1.52858)
(-7.08684 0.0640377 1.29686)
(-7.16261 -0.0631143 1.07052)
(-6.97727 -0.101475 1.7749)
(-5.5462 0.0083852 -1.4258)
(-5.57914 -0.0117394 -1.40142)
(-5.58009 0.00223818 -1.41047)
(-5.56889 0.00810413 -1.4242)
(-5.56893 -0.0188574 -1.49225)
(-5.58061 -0.0164823 -1.33156)
(-4.64185 0.017367 -1.66359)
(-4.63283 -0.000287502 -1.70181)
(-4.62789 -0.00813702 -1.74292)
(-4.64882 -0.0260459 -1.6253)
(-4.64782 0.0151389 -1.54747)
(-4.61079 0.0346075 -1.81917)
(-4.27041 -2.6871e-05 -3.14477)
(-4.29928 -0.00880058 -3.19031)
(-4.28902 0.00343776 -3.18651)
(-4.28806 0.0029533 -3.14543)
(-4.29613 -0.00680586 -3.13936)
(-4.28105 -0.00388616 -3.19433)
(-2.54279 0.0126803 -1.9277)
(-2.61403 0.00248891 -1.96002)
(-2.58673 -0.00826539 -1.94705)
(-2.56713 -0.0092282 -1.94045)
(-2.52195 0.00497977 -1.91652)
(-2.60842 0.0158775 -1.95064)
(-0.203571 -0.88279 0.370497)
(1.42569 0.00610775 -0.190746)
(-0.155859 -0.0292787 0.34486)
(1.3486 -0.391328 -0.0524591)
(2.39791 0.268009 -0.191268)
(0.100326 0.960375 0.485868)
(1.19864 -0.0595804 0.0175195)
(3.83373 -0.0205005 -1.27606)
(2.30189 -0.125487 -0.79222)
(2.93132 0.277415 -0.662193)
(4.03875 -0.315083 -0.476344)
(0.362266 0.119984 0.1842)
(4.18176 0.448075 -1.12337)
(4.82223 0.0778041 -1.69902)
(4.91985 -0.495324 -2.39844)
(4.5396 -0.184543 -1.28529)
(5.65806 -0.943411 -1.10739)
(3.77491 -0.42253 -1.39677)
(5.9772 0.0769142 -1.56177)
(6.11816 0.0930053 -1.54897)
(6.52805 -0.341026 -2.98109)
(5.53268 -0.124122 -1.09854)
(6.65956 -0.668888 -1.13777)
(5.83662 -0.336411 -2.29844)
(6.66915 -0.444103 -1.47463)
(7.79434 -0.0315288 -2.73986)
(7.52222 -0.218545 -3.40401)
(7.23614 0.229002 -2.07863)
(6.78429 -0.0930932 -0.758603)
(6.52271 -0.146987 -2.31276)
(6.67431 -0.516426 -1.64305)
(7.48508 0.140024 -2.97588)
(7.29335 -0.166054 -3.49798)
(7.12841 0.163245 -2.49994)
(6.53879 0.112716 -0.758002)
(6.31129 0.0170018 -2.13467)
(6.07249 -0.29625 -1.75398)
(6.71916 0.302843 -2.78568)
(6.79464 -0.152327 -3.43936)
(6.44584 0.138868 -2.44612)
(5.94704 0.136293 -0.677022)
(5.87035 0.131892 -1.93935)
(5.30501 -0.143474 -1.73689)
(6.16632 0.234407 -2.58848)
(6.36274 -0.205965 -3.37148)
(5.93342 0.180082 -2.30824)
(5.43708 0.203924 -0.646688)
(5.64587 0.329688 -1.7603)
(4.94761 -0.190011 -1.61198)
(5.69332 -0.0404529 -2.44601)
(5.95198 -0.330831 -3.38544)
(5.52972 0.213819 -2.25731)
(4.94398 0.361456 -0.714431)
(5.84135 0.459974 -1.82732)
(4.42952 -0.31322 -1.16942)
(5.00784 -0.197468 -2.25732)
(5.30667 -0.35221 -3.3604)
(4.68156 0.270183 -2.2172)
(4.01201 0.434373 -0.836632)
(5.69449 0.286028 -2.28906)
(2.76866 -0.315126 -0.489525)
(3.37428 -0.159418 -1.89821)
(3.94461 -0.23026 -3.11644)
(2.9931 0.342102 -1.97165)
(2.04155 0.239585 -0.716727)
(3.44613 -0.0381068 -1.9122)
(-0.937636 -0.34628 1.24208)
(0.187975 -0.347333 -0.288834)
(1.84469 -0.104286 -2.16595)
(0.444688 0.18184 -0.816892)
(-1.0431 0.280556 0.17988)
(-1.08175 -0.0428428 1.27464)
(-0.923167 -1.04746 2.41829)
(1.65399 0.0821113 2.76759)
(-0.550151 -0.206107 2.56512)
(2.381 -0.271054 3.08314)
(3.90128 -0.0988744 3.01126)
(-0.0693749 1.20831 2.32678)
(1.80352 0.0717104 3.43887)
(5.92556 0.310532 4.16088)
(3.27941 -0.220078 3.80107)
(4.96167 0.375304 3.6502)
(5.63075 -0.865596 3.46592)
(0.379689 -0.289562 2.76137)
(5.02726 0.369663 3.15569)
(7.18983 0.286467 4.81985)
(6.19242 -0.49926 4.24414)
(6.79303 0.0171256 3.88946)
(7.40389 -0.296402 2.78466)
(4.81903 -0.115898 2.67233)
(4.79773 0.0290396 2.51779)
(6.43216 0.724886 6.07496)
(5.34341 -0.189957 4.51384)
(6.53519 0.267943 4.52575)
(6.50047 0.313862 2.14499)
(2.89113 0.622006 2.40876)
(3.41946 0.416635 2.18278)
(3.95304 0.852271 2.26267)
(2.21868 -0.123104 2.89801)
(4.99284 0.362243 2.11211)
(3.9501 -0.218109 1.18319)
(-3.07615 0.209618 1.30886)
(1.86047 -0.229416 1.60338)
(-1.80766 -0.157878 -0.184272)
(-1.03824 -0.697046 1.90562)
(-1.71255 -0.328564 -0.111538)
(-3.71283 -1.29299 -0.219371)
(-5.34264 -0.35397 1.33385)
(-3.78384 -0.940813 -0.126328)
(-3.62489 -1.16406 0.679326)
(-2.40971 -1.98127 2.28687)
(-3.89761 -2.39821 -0.145836)
(-4.80443 -2.19805 -0.506627)
(-3.43006 -0.669662 1.46297)
(-5.57842 -0.698105 0.195074)
(-0.2942 0.295355 1.54316)
(-1.21801 -1.14775 2.17711)
(-3.93244 -2.28077 0.489244)
(-1.32073 -2.08616 -0.380246)
(5.36507 -0.0532853 2.32198)
(0.436741 0.487521 1.39476)
(2.94242 1.2526 1.65422)
(1.30309 -1.07649 1.76443)
(0.332312 -0.917671 -0.094225)
(1.08677 -0.460105 -1.17997)
(7.49434 0.832711 2.88012)
(5.52987 0.105274 0.646814)
(3.68397 0.647701 -0.172208)
(2.77763 -1.57687 1.09106)
(3.4286 -1.20392 -2.16995)
(3.95122 0.102237 -3.04163)
(7.30483 1.5397 2.23968)
(3.48577 0.236054 -4.03895)
(2.85852 0.840588 -4.11886)
(2.74448 -0.709619 -2.54746)
(3.50747 -0.819418 -4.00638)
(3.33024 -0.204827 -3.79822)
(3.56299 0.646725 -5.02452)
(2.22404 0.17724 -1.95726)
(3.28004 0.600331 -3.05951)
(4.04614 0.212909 -3.85339)
(2.32529 -0.428711 -2.33554)
(0.586663 -0.533766 -0.69779)
(2.7492 -0.0358593 -2.91564)
(-0.712435 -0.424755 3.27819)
(0.906343 0.00143112 3.70827)
(-0.141472 -0.487373 3.56153)
(2.31573 0.04313 4.83532)
(3.67835 -0.514576 4.97523)
(-0.0967215 0.794251 2.94128)
(0.104939 -0.0771521 5.46817)
(-1.30965 0.40562 8.13508)
(1.0105 -0.140632 6.45585)
(-2.33976 0.726011 7.33928)
(-0.957593 -1.0952 6.28391)
(-0.379811 -0.404395 3.11915)
(2.3705 -0.661104 4.08624)
(2.71439 0.0570526 3.1285)
(3.5752 0.0254452 4.85938)
(2.40542 -0.214754 2.37629)
(1.67688 0.892636 1.28331)
(2.38798 0.382438 2.59583)
(-3.13664 -0.480403 -3.44181)
(-2.421 0.166996 -1.88066)
(-3.03209 0.239178 -4.26907)
(-2.78418 -0.0739168 -3.13083)
(-3.03936 0.738787 -4.14692)
(-3.35119 0.396917 -5.47279)
(-0.545939 0.175564 -5.55917)
(-1.66508 0.185015 -6.55884)
(-1.37695 0.284791 -7.01577)
(-1.25259 0.272529 -7.01468)
(-0.884991 0.371773 -7.24926)
(0.0351219 0.152551 -7.12161)
(-0.312407 0.113314 -5.64827)
(-0.618985 -0.0910306 -5.95001)
(-0.759237 -0.0320442 -6.07449)
(-0.397617 0.0856818 -6.3475)
(0.478437 -0.188152 -5.50686)
(-0.438329 0.0769694 -4.04928)
(-0.580258 -0.661511 -2.38022)
(-0.162544 -0.036222 -0.0275056)
(-0.898702 -0.292747 1.42478)
(-0.316805 0.829982 -2.12352)
(1.16779 -0.774678 -1.69145)
(-0.0800142 -0.240708 2.22409)
(-0.695231 -0.922282 2.48829)
(2.69851 0.227448 4.02392)
(2.11064 -0.301127 4.49163)
(-0.938865 0.261551 2.68295)
(-0.564484 -0.942504 1.08853)
(2.36707 -0.231857 3.38805)
(-0.69833 0.146576 3.19082)
(3.29574 0.798222 4.01431)
(2.58989 -0.810772 3.25706)
(-0.89537 0.12079 1.77797)
(-1.67799 -0.567275 0.420401)
(1.80508 0.185235 1.43257)
(0.940419 0.671219 2.1397)
(1.71667 0.0999451 3.05728)
(1.20455 -1.80267 2.03066)
(-0.698867 -1.46502 -0.240354)
(-0.160095 -0.422972 -1.84612)
(1.39915 0.497267 -1.1255)
(-0.307438 -0.147849 -6.49754)
(-6.83971 -0.373372 -1.22773)
(-6.66904 -0.983242 1.88128)
(-0.360458 -0.101124 -5.17911)
(3.87882 0.0917821 -6.99747)
(-3.25541 0.799867 -5.08845)
(4.89146 -0.00611099 -4.87099)
(5.4213 -0.180676 -5.02156)
(4.33019 0.799498 -3.55422)
(4.62439 0.280221 -4.01377)
(2.71621 -0.0697027 -3.46981)
(4.62025 0.211201 -4.58497)
(0.684482 -0.194745 2.77359)
(1.4382 -0.017427 3.4582)
(1.06452 -0.528553 3.14024)
(3.09227 -0.106901 3.96181)
(3.98256 -0.4103 4.61829)
(0.581839 0.611623 2.53567)
(-1.65059 -0.3579 5.40638)
(-2.05707 0.205856 8.20068)
(-1.44266 -0.199982 6.41665)
(-3.5042 0.658327 8.01333)
(-3.64136 -0.536428 6.2441)
(-1.11006 0.0968837 1.43483)
(1.20496 -0.158451 2.36385)
(1.90122 0.00847103 -1.27485)
(1.97606 0.0411652 0.736109)
(2.53241 0.930901 -1.18728)
(3.05643 0.736682 -1.64812)
(2.22516 0.317806 2.2124)
(-2.42701 0.0302343 -1.22355)
(-2.8219 0.240888 -1.61275)
(-2.73492 0.41125 -1.41742)
(-2.64348 0.360658 -1.57283)
(-2.67043 0.34898 -2.08464)
(-2.75779 0.160923 -0.97695)
(0.560662 0.0522847 -0.101138)
(0.487013 0.196344 0.0472344)
(0.631698 0.15323 0.0571497)
(0.969344 -0.0404856 0.0709354)
(1.32115 -0.0611246 -0.0493654)
(1.19785 -0.00877478 0.184792)
(1.06596 0.0255202 -0.713532)
(1.03117 0.217377 0.172757)
(0.744384 -0.107619 -0.0922905)
(1.12223 -0.171858 -0.86773)
(1.66958 -0.539654 -0.485683)
(1.57926 -0.194826 0.690576)
(2.20381 -0.517097 1.31975)
(1.84511 -0.244485 2.65904)
(1.15725 0.068437 3.02658)
(1.59357 0.990666 1.19434)
(2.44614 -0.511452 0.0788734)
(2.46147 -0.217217 2.24693)
(1.19265 -0.639512 2.56418)
(2.75837 0.061859 4.29045)
(3.01921 0.0289093 4.57038)
(0.787488 0.835381 2.7141)
(0.210591 0.108946 -1.12079)
(1.4133 -0.0319755 1.27731)
(-1.65433 -0.290352 1.1729)
(0.764195 0.25543 1.94069)
(1.11551 -0.0487171 0.699255)
(-1.01085 0.427908 -0.148039)
(-0.603686 0.0992226 -1.59336)
(-0.903344 0.103444 -1.06768)
(-0.986502 0.0364391 -2.12282)
(1.0352 0.322166 -2.92594)
(2.38988 -0.106291 -3.36244)
(-0.133751 -0.422319 -2.72294)
(0.0818064 0.129876 -3.17208)
(0.00268869 0.447908 -2.2972)
(-5.57771 -0.305789 -1.86768)
(-4.97806 -0.454838 -2.14776)
(-5.02034 0.0941012 -2.09772)
(-2.08742 0.68733 -2.77958)
(3.58089 0.163874 -5.48791)
(-3.99982 0.248472 -2.59507)
(5.26096 -0.0276821 -2.82623)
(5.10207 -0.0634758 -2.40696)
(5.02018 0.433178 -2.55361)
(5.02124 1.03238 -2.88042)
(4.31542 0.135673 -4.20473)
(4.57627 -0.547589 -2.47502)
(-2.86499 -0.000729578 0.493286)
(-2.86476 -0.000625109 0.494231)
(-2.86467 0.000236894 0.493833)
(-2.8649 5.72001e-06 0.493828)
(-2.86481 5.37952e-05 0.494047)
(-2.8649 0.000202461 0.493592)
(-3.42435 -0.00258656 -0.221982)
(-3.42235 -0.000820311 -0.227797)
(-3.42288 0.00169714 -0.226549)
(-3.42359 -0.000196795 -0.224796)
(-3.42308 0.00018507 -0.226023)
(-3.42379 0.000359701 -0.22447)
(-3.4545 -0.0133407 0.642944)
(-3.4586 -0.00471709 0.617455)
(-3.45613 0.00726572 0.632728)
(-3.45698 -0.00108719 0.634325)
(-3.45704 0.00383808 0.632124)
(-3.45497 0.00355654 0.632979)
(2.94187 -0.00660856 1.06549)
(2.9416 -0.00267761 1.05863)
(2.9416 0.00422563 1.06188)
(2.9419 0.00163954 1.06247)
(2.94197 -0.00127114 1.06263)
(2.94157 -0.00283237 1.06178)
(3.54306 -0.0134988 2.1275)
(3.54267 -0.00597995 2.12741)
(3.54236 0.00698138 2.12941)
(3.54317 -0.000362643 2.12738)
(3.54283 0.001277 2.12997)
(3.54274 0.000979609 2.12951)
(0.608637 -0.0445193 7.76957)
(0.564839 -0.020076 7.74954)
(0.58877 0.0209438 7.75698)
(0.588984 -0.00733473 7.76154)
(0.583131 0.0148712 7.75888)
(0.597467 0.0184002 7.76128)
(-4.63849 -0.0342528 -4.26512)
(-4.69217 -0.00422677 -4.0992)
(-4.67185 0.00707617 -4.19104)
(-4.65332 -0.00928917 -4.19627)
(-4.65332 0.000928855 -4.16723)
(-4.67648 0.00138299 -4.22798)
(-7.8406 -0.042369 -2.67181)
(-7.93017 -0.00846285 -2.36778)
(-7.88394 0.00768252 -2.54142)
(-7.87464 -0.0220736 -2.52098)
(-7.88947 0.0149162 -2.45402)
(-7.88062 0.0270145 -2.62454)
(-9.24634 -0.0581461 -2.1787)
(-9.6649 -0.0262919 -1.58297)
(-9.42669 0.0176659 -1.92447)
(-9.43803 -0.0206999 -1.87543)
(-9.53993 0.0305998 -1.71152)
(-9.32687 0.0444598 -2.13159)
(-1.82468 0.105871 -1.24539)
(-2.27382 0.0522435 -0.797525)
(-2.02153 -0.0562646 -1.04025)
(-2.05838 -0.0131011 -1.01625)
(-2.17082 -0.017081 -0.910842)
(-1.91507 0.026125 -1.17521)
(-4.40719 0.0974468 0.75728)
(-5.04031 0.0528802 1.35149)
(-4.65674 -0.0496129 1.05227)
(-4.77449 -0.00311971 1.06635)
(-4.9896 -0.0343315 1.15484)
(-4.42678 -0.00290837 0.896888)
(-3.07364 0.0481253 2.45646)
(-4.07066 0.0232195 3.66044)
(-3.53582 -0.0323676 3.02751)
(-3.6036 0.0135496 3.12244)
(-3.92207 -0.0432534 3.48253)
(-3.14182 -0.0337217 2.49441)
(-6.9925 0.159724 4.51214)
(-7.03336 0.0892003 4.80313)
(-6.91955 -0.0647985 4.65565)
(-7.08969 -0.031015 4.6837)
(-7.24839 0.0320492 4.74106)
(-6.79468 0.121222 4.55775)
(-10.0708 0.118008 6.42521)
(-10.0959 0.0616836 6.88771)
(-9.97884 -0.0407175 6.72023)
(-10.1753 0.00585747 6.64064)
(-10.3598 -0.00885085 6.60638)
(-9.82813 0.0329052 6.69975)
(-8.35256 0.119964 8.83363)
(-8.8578 0.0551564 9.37197)
(-8.58674 -0.0360194 9.1729)
(-8.66179 0.0645814 9.10883)
(-8.92367 -0.0985927 9.2066)
(-8.23815 -0.118565 8.97524)
(-7.93304 0.0201432 8.47059)
(-7.6234 0.0125227 8.94214)
(-7.65905 -0.0191845 8.91872)
(-7.87058 -0.0120994 8.62055)
(-8.08067 0.0140672 8.38321)
(-7.4098 0.0671883 9.16537)
(-10.2406 -0.0362402 8.35439)
(-10.101 -0.0302432 8.77708)
(-10.1163 0.00897502 8.79223)
(-10.2232 0.021722 8.42138)
(-10.3941 -0.0151763 8.17044)
(-9.93592 -0.013282 8.99576)
(-8.75349 0.00143665 6.56351)
(-8.77498 -0.00453115 6.67363)
(-8.76605 0.0214839 6.76385)
(-8.75604 0.0797974 6.46489)
(-8.87545 -0.0439162 6.25016)
(-8.65897 -0.09121 7.15674)
(-9.00389 -0.0698935 5.44458)
(-8.96393 -0.0568408 5.98467)
(-8.95344 0.0216756 5.98517)
(-9.02223 0.0499769 5.56983)
(-9.17929 -0.0779567 5.1927)
(-8.74571 -0.104129 6.36968)
(-8.29006 -0.0661794 3.53841)
(-8.35168 -0.0482862 3.79483)
(-8.36114 -0.00956402 3.84011)
(-8.25525 0.00490034 3.47563)
(-8.29823 -0.0350123 3.18003)
(-8.26256 -0.0711482 4.15975)
(-5.46366 -0.00579466 -2.28531)
(-5.55284 0.00437702 -2.05362)
(-5.58975 -0.0148502 -1.98298)
(-5.38902 -0.0119743 -2.44532)
(-5.22421 0.0176719 -2.94024)
(-5.73215 -0.00042363 -1.48428)
(-6.38838 -0.038145 0.239092)
(-6.47165 -0.0332599 0.430238)
(-6.46061 0.0119163 0.407614)
(-6.37634 0.0344579 0.271712)
(-6.34453 -0.0625269 0.025512)
(-6.46528 -0.0949518 0.682298)
(-3.40324 -0.0205383 -4.0431)
(-3.38064 -0.0147674 -4.12381)
(-3.40699 -0.0279758 -4.095)
(-3.33835 -0.00716362 -4.08137)
(-3.26908 -0.0385262 -4.24387)
(-3.4567 -0.0633721 -3.91533)
(-1.25458 0.0100402 -6.71208)
(-1.23627 0.00927202 -6.75626)
(-1.24831 -0.0216964 -6.74896)
(-1.23578 -0.0190088 -6.73436)
(-1.20082 0.0115097 -6.75308)
(-1.28986 0.00946773 -6.72735)
(-2.99214 -0.0151351 -1.73768)
(-2.90708 -0.000772618 -1.80754)
(-2.914 -0.00446047 -1.85274)
(-2.94839 -0.00386986 -1.74551)
(-2.94492 -0.00533247 -1.77293)
(-2.89824 -0.0140854 -1.82956)
(-1.86171 -0.00209128 -3.54669)
(-1.81686 0.00537808 -3.62709)
(-1.81224 -0.0136101 -3.62643)
(-1.85027 -0.020101 -3.5447)
(-1.86885 0.0115135 -3.54444)
(-1.78701 0.0108954 -3.61238)
(-1.18519 0.00471469 -4.46963)
(-1.18909 0.00467649 -4.4796)
(-1.18583 -0.00945203 -4.48103)
(-1.18765 -0.0127767 -4.46025)
(-1.19272 0.0105615 -4.45552)
(-1.18135 0.0137433 -4.47754)
(-3.60904 -0.0134767 -0.871984)
(-3.61716 -0.00294931 -0.811327)
(-3.60402 -0.00251345 -0.848129)
(-3.62112 -0.0138836 -0.839724)
(-3.61069 0.0135685 -0.878513)
(-3.61462 0.0175179 -0.822563)
(-0.887494 -0.0129861 -1.84735)
(-0.892055 -0.00762406 -1.8591)
(-0.893376 0.00404242 -1.85977)
(-0.884516 0.00765045 -1.83973)
(-0.88061 -0.00806953 -1.85924)
(-0.888662 -0.0174635 -1.83995)
(-0.52716 0.0014914 -3.24559)
(-0.528241 0.000989798 -3.24541)
(-0.52874 -0.00266432 -3.2476)
(-0.524171 0.000180488 -3.24135)
(-0.520076 -0.000926207 -3.24953)
(-0.531151 -0.00321562 -3.2398)
(-4.58706 0.00533313 -3.07587)
(-4.57224 0.00538746 -3.02436)
(-4.5745 -0.00181579 -3.03847)
(-4.58959 -0.0022185 -3.07314)
(-4.59209 0.00177868 -3.13475)
(-4.58583 0.0038674 -2.993)
(0.546038 -0.00537098 -1.72393)
(0.541212 -0.00238953 -1.71271)
(0.538781 0.00184316 -1.71215)
(0.548956 0.00501281 -1.71207)
(0.553516 -0.00511628 -1.72553)
(0.535804 -0.0115763 -1.69617)
(0.396352 -0.000899079 -3.07506)
(0.395007 -0.00117137 -3.07528)
(0.394199 -0.000970986 -3.07647)
(0.394209 -0.000120032 -3.07415)
(0.392774 -0.000978919 -3.08013)
(0.395889 -0.00153309 -3.07096)
(-3.98084 0.00956339 -2.53043)
(-3.98582 0.0100211 -2.5424)
(-3.99254 0.00174508 -2.5421)
(-4.01271 -0.00485937 -2.54099)
(-4.02664 0.00217043 -2.53263)
(-3.99399 0.00868049 -2.54018)
(0.159043 -0.00594422 -5.32265)
(0.157482 -0.00534808 -5.26171)
(0.154676 -0.00136574 -5.25299)
(0.161725 0.00104318 -5.26607)
(0.164064 -0.00102918 -5.29206)
(0.154888 -0.00407983 -5.24947)
(0.466457 -0.00464663 -2.35081)
(0.468814 -0.00642427 -2.3558)
(0.469712 -0.00200923 -2.35577)
(0.469752 0.00167634 -2.3547)
(0.469056 -0.00185079 -2.35515)
(0.472753 -0.00377732 -2.35505)
(2.21688 -0.0149962 0.110458)
(2.20016 -0.0329844 0.131102)
(2.18411 -0.0251932 0.161398)
(2.19749 0.00179984 0.256829)
(2.14997 0.0203757 0.426473)
(2.2193 0.0140406 0.243973)
(0.7645 -0.0493614 -4.86275)
(0.765781 -0.0733188 -4.83601)
(0.847074 -0.0441789 -4.80308)
(0.797646 -0.0673059 -4.85669)
(0.788312 0.00713516 -4.6967)
(0.770301 0.0640874 -4.95245)
(0.476357 0.0145197 -0.880533)
(0.585034 0.0253321 -0.856724)
(0.68224 0.00230512 -0.842584)
(0.60484 -0.0382612 -0.903731)
(0.544885 -0.00418623 -0.986586)
(0.496715 0.0223797 -0.908119)
(0.535876 0.00190773 -0.168435)
(0.525954 0.00613873 -0.173103)
(0.507524 0.00180988 -0.172687)
(0.507052 -0.00257027 -0.187027)
(0.509937 0.000380988 -0.171258)
(0.526365 -0.000598404 -0.187186)
(0.0263423 0.00758488 -2.15768)
(-0.0265535 0.0268436 -2.11054)
(-0.0703872 0.0295005 -2.05596)
(-0.0904767 0.0195567 -2.09268)
(-0.147175 8.35839e-05 -2.05713)
(-0.0472546 -0.00768862 -2.12886)
(0.745957 0.00659165 -1.89778)
(0.743283 0.0116395 -1.91551)
(0.736522 -0.00741113 -1.9295)
(0.737515 -0.0268534 -1.93306)
(0.718498 -0.0129335 -1.93996)
(0.741275 0.00139979 -1.90931)
(0.197505 -0.00191437 0.207891)
(0.199362 -0.00548213 0.206598)
(0.203685 0.00048572 0.205233)
(0.197381 0.00348058 0.207935)
(0.19692 -0.00164815 0.20542)
(0.199106 -0.000592469 0.199875)
(0.119794 -0.0161096 -0.980634)
(0.121453 -0.0343755 -0.989658)
(0.133695 -0.0362698 -0.98005)
(0.129326 -0.0353411 -0.949183)
(0.130836 0.00234197 -0.938286)
(0.139629 0.0214042 -0.968352)
(0.213819 0.00243619 -1.64586)
(0.219724 0.0020525 -1.6387)
(0.224477 -0.00311008 -1.62869)
(0.21674 -0.00828488 -1.61815)
(0.207269 -0.00200466 -1.61141)
(0.208469 0.00335468 -1.61226)
(-0.225704 -0.00138673 0.227885)
(-0.225622 -0.00263799 0.227239)
(-0.226918 -0.00317101 0.226432)
(-0.225689 -0.00275485 0.228101)
(-0.225473 1.60874e-05 0.230686)
(-0.224098 0.00114107 0.222497)
(-0.488692 -0.00167256 -1.01508)
(-0.496758 -0.00249921 -1.02256)
(-0.504807 -0.00416663 -1.03216)
(-0.512007 -0.0072423 -1.04182)
(-0.518766 0.00240913 -1.04734)
(-0.512646 0.00678649 -1.02363)
(-0.220265 0.00162244 -1.81622)
(-0.219513 0.00351139 -1.81945)
(-0.220548 0.00209286 -1.82085)
(-0.224112 -0.000722745 -1.81994)
(-0.227981 -0.00218045 -1.82181)
(-0.22509 -0.00135174 -1.81626)
(-0.57927 -0.0016555 0.0403737)
(-0.582859 -0.00269888 0.0391579)
(-0.585964 -0.00321977 0.0390075)
(-0.592473 -0.00291113 0.0410413)
(-0.59393 -0.000238744 0.0444997)
(-0.586973 0.000777316 0.0359635)
(-0.709623 0.000480429 -1.88867)
(-0.712433 0.00171341 -1.90447)
(-0.712993 0.00253894 -1.91494)
(-0.712013 0.00127463 -1.94094)
(-0.712842 0.00207301 -1.94999)
(-0.716834 0.00228247 -1.91773)
(-0.846738 0.00144526 -2.02791)
(-0.845904 0.00295553 -2.03037)
(-0.844787 0.00370458 -2.03068)
(-0.844128 0.00284282 -2.02975)
(-0.844587 -0.001375 -2.03201)
(-0.846768 -0.0020891 -2.0279)
(-1.90809 0.000826077 0.732511)
(-1.91759 0.00215243 0.730906)
(-1.92254 0.00401325 0.730952)
(-1.93482 0.00382469 0.737105)
(-1.93783 -0.0034854 0.742845)
(-1.92507 -0.00437957 0.725536)
(-1.31375 0.000157328 -5.07628)
(-1.31102 -1.3782e-05 -5.08228)
(-1.31042 -0.00132074 -5.08433)
(-1.30575 -0.00222007 -5.0873)
(-1.30479 0.00244452 -5.09675)
(-1.3105 0.00356306 -5.09103)
(-0.730233 0.000783895 -1.63842)
(-0.726793 0.00125993 -1.63461)
(-0.724533 0.00157413 -1.63392)
(-0.722282 0.00250183 -1.63406)
(-0.72241 0.000164002 -1.63461)
(-0.722585 -0.00130498 -1.63036)
(1.87098 -0.229049 2.52288)
(2.13616 -0.0150323 3.62492)
(1.58856 -0.35077 3.11386)
(3.37688 0.0488656 3.3594)
(4.88338 -0.123721 4.07393)
(1.08714 0.488514 2.50812)
(2.22309 -0.521328 2.41274)
(2.07003 -0.617734 3.17635)
(1.53379 -0.375627 2.78259)
(3.00726 0.358118 2.84695)
(5.00412 0.759203 3.75761)
(1.71792 0.667773 2.14511)
(2.3073 -0.627998 8.11554)
(2.14453 -1.25749 0.993665)
(1.9729 -0.0367548 1.3753)
(2.86843 -0.416545 1.33207)
(5.00511 1.43946 1.04366)
(2.18161 0.924829 8.56215)
(-2.14774 -0.471885 5.91039)
(-2.26957 0.0524883 8.13025)
(-1.81551 -0.203138 6.94641)
(-3.41819 0.783606 7.6271)
(-4.71424 -0.228975 7.04318)
(-1.46135 0.287544 3.09951)
(-1.63646 -0.440809 7.12162)
(-2.58442 -0.128928 7.81331)
(-2.05228 -0.104436 7.14176)
(-3.17821 0.827362 7.30603)
(-5.0179 0.387187 7.36064)
(-1.22488 0.394046 3.67376)
(1.42391 0.222686 5.23575)
(-0.546252 0.688913 7.24221)
(-0.416541 0.452065 7.57394)
(-0.906762 0.627663 7.14489)
(-2.26861 0.613307 5.23156)
(0.576671 0.50344 5.91289)
(1.31091 0.402488 0.96918)
(2.04593 0.412558 -0.521842)
(2.34129 0.32763 -0.957462)
(2.98555 0.133252 -0.691785)
(1.82935 -0.320582 1.07095)
(2.06791 -0.156676 1.05138)
(1.37836 0.0650447 1.61897)
(1.32328 0.106251 0.525581)
(2.16787 -0.123106 1.10557)
(2.58714 -0.411571 1.9986)
(1.10309 -0.148747 2.16529)
(2.17833 0.34476 1.2676)
(1.58582 -0.0364297 0.680931)
(1.43253 -0.3275 0.250525)
(2.20337 -0.431657 0.344797)
(2.57282 -0.483529 0.860048)
(2.21769 0.0231042 1.01726)
(3.03785 0.297026 0.572313)
(-1.09949 0.103328 -2.7139)
(-0.932379 0.180742 -2.81994)
(-0.86716 0.201049 -2.83937)
(-0.75048 0.10499 -2.98248)
(-0.958764 -0.047413 -3.19302)
(-1.23837 -0.0632086 -2.98186)
(-1.0412 0.0518895 -1.92805)