/*--------------------------------*- C++ -*----------------------------------*\
| =========                 |                                                 |
| \\      /  F ield         | OpenFOAM: The Open Source CFD Toolbox           |
|  \\    /   O peration     | Version:  v1612+                                |
|   \\  /    A nd           | Web:      www.OpenFOAM.com                      |
|    \\/     M anipulation  |                                                 |
\*---------------------------------------------------------------------------*/
FoamFile
{
    version     2.0;
    format      ascii;
    class       volScalarField;
    location    "9.95";
    object      p;
}
// * * * * * * * * * * * * * * * * * * * * * * * * * * * * * * * * * * * * * //

dimensions      [1 -1 -2 0 0 0 0];

internalField   nonuniform List<scalar> 
320
(
14724.8
14724.8
14724.8
14724.8
5.01392
5.01186
5.01378
5.01422
5.01437
5.01368
5.01297
5.01267
5.01176
5.01175
5.01245
5.02362
4914.91
4914.91
4914.92
4914.94
4914.92
4914.9
4914.91
4914.91
4914.91
4914.92
4914.88
4914.99
14724.8
14724.8
14724.8
14724.8
14724.8
14724.8
14724.8
14724.8
14724.8
14724.8
14724.8
14724.8
24534.8
24534.8
24534.8
24534.8
24534.8
24534.8
24534.8
24534.8
24534.8
24534.8
24534.8
24534.8
24534.8
24534.8
24534.8
24534.8
5.0112
5.01157
5.01246
5.01359
5.01393
5.01413
5.01447
5.01467
5.01416
5.01475
5.01322
5.0145
5.0138
5.01197
5.01024
5.0107
5.01096
5.01036
5.01127
5.01211
4914.91
4914.91
4914.87
4914.92
4914.9
4914.89
4914.9
4914.9
4914.87
4914.91
4914.88
4914.88
4914.92
4914.88
4914.88
4914.88
4914.88
4914.88
4914.91
4914.9
14724.8
14724.8
14724.8
14724.8
14724.8
14724.8
14724.8
14724.8
14724.8
14724.8
14724.8
14724.8
14724.8
14724.8
14724.8
14724.8
14724.8
14724.8
14724.8
14724.8
24534.8
24534.8
24534.8
24534.8
24534.8
24534.8
24534.8
24534.8
24534.8
24534.8
24534.8
24534.8
24534.8
24534.8
24534.8
24534.8
24534.8
24534.8
24534.8
24534.8
34344.8
34344.8
34344.8
34344.8
34344.8
34344.8
34344.8
34344.8
34344.8
34344.8
34344.8
34344.8
34344.8
34344.8
34344.8
34344.8
34344.8
34344.8
34344.8
34344.8
34344.8
34344.8
34344.8
34344.8
34344.8
34344.8
34344.8
34344.8
34344.8
34344.8
34344.8
34344.8
34344.8
34344.8
34344.8
34344.8
5.0121
5.012
5.01232
5.01233
5.01346
5.01335
5.01415
5.01379
5.0141
5.01431
5.01424
5.01458
5.01544
5.01453
5.01265
5.00811
5.01599
5.01548
5.01812
5.00928
5.01038
5.0107
5.01062
5.01048
5.01064
5.01111
5.01157
5.01199
4914.92
4914.91
4914.91
4914.88
4914.94
4914.94
4914.94
4914.91
4914.91
4914.92
4914.93
4914.93
4914.93
4914.92
4914.91
4914.87
4914.93
4914.92
4914.93
4914.91
4914.93
4914.92
4914.93
4914.91
4914.9
4914.88
4914.91
4914.93
14724.8
14724.8
14724.8
14724.8
14724.8
14724.8
14724.8
14724.8
14724.8
14724.8
14724.8
14724.8
14724.8
14724.8
14724.8
14724.8
14724.8
14724.8
14724.8
14724.8
14724.8
14724.8
14724.8
14724.8
14724.8
14724.8
14724.8
14724.8
24534.8
24534.8
24534.8
24534.8
24534.8
24534.8
24534.8
24534.8
24534.8
24534.8
24534.8
24534.8
24534.8
24534.8
24534.8
24534.8
24534.8
24534.8
24534.8
24534.8
24534.8
24534.8
24534.8
24534.8
24534.8
24534.8
24534.8
24534.8
34344.8
34344.7
34344.8
34344.8
34344.8
34344.8
34344.8
34344.8
34344.8
34344.8
34344.8
34344.8
34344.8
34344.8
34344.8
34344.8
34344.8
34344.8
34344.8
34344.8
34344.8
34344.8
34344.8
34344.8
34344.8
34344.8
34344.8
34344.9
5.01153
5.01338
5.01296
5.01315
4914.86
4914.91
4914.9
4914.9
)
;

boundaryField
{
    top_fluid_surface
    {
        type            calculated;
        value           nonuniform List<scalar> 
64
(
-1.638e-09
-1.81832e-09
-1.38085e-08
-2.61385e-08
-2.69075e-09
-3.47889e-10
-2.02129e-09
-1.07528e-09
-4.92903e-09
-7.06056e-10
0
-1.24112e-08
-4.46392e-09
-9.98156e-10
0
-1.06282e-08
0
0
0
0
0
-9.36292e-09
0
0
-1.17493e-08
0
0
0
0
0
-2.57908e-10
0
-7.54372e-09
-1.85632e-09
-1.74146e-08
0
-4.22591e-08
-9.74915e-10
-7.54127e-08
-2.21593e-09
-1.67747e-09
-2.34327e-08
-2.68342e-08
-9.78727e-09
-2.89761e-08
-2.47494e-10
-1.11957e-09
-7.70767e-09
-5.80774e-09
-4.04294e-09
-9.41241e-10
-1.64641e-08
-3.05556e-08
-7.83917e-09
-2.43552e-08
-5.22791e-09
0
-5.17027e-12
-2.83241e-09
-6.46502e-08
-5.96383e-10
-1.23681e-09
-1.49987e-09
-4.26869e-09
)
;
    }
    bottom_fluid_surface
    {
        type            calculated;
        value           nonuniform List<scalar> 
64
(
39249.8
39249.8
39249.8
39249.8
39249.8
39249.8
39249.8
39249.8
39249.8
39249.8
39249.8
39249.8
39249.8
39249.8
39249.8
39249.8
39249.8
39249.8
39249.8
39249.8
39249.8
39249.8
39249.8
39249.8
39249.8
39249.8
39249.8
39249.8
39249.8
39249.8
39249.8
39249.8
39249.8
39249.8
39249.8
39249.8
39249.8
39249.7
39249.8
39249.8
39249.8
39249.8
39249.8
39249.8
39249.8
39249.8
39249.8
39249.8
39249.8
39249.8
39249.8
39249.8
39249.8
39249.8
39249.8
39249.8
39249.8
39249.8
39249.8
39249.8
39249.8
39249.8
39249.8
39249.9
)
;
    }
    lateral_surface_1
    {
        type            calculated;
        value           nonuniform List<scalar> 
40
(
5.0121
5.012
5.01232
5.01233
5.01346
5.01335
5.01415
5.01199
4914.92
4914.91
4914.91
4914.88
4914.94
4914.94
4914.94
4914.93
14724.8
14724.8
14724.8
14724.8
14724.8
14724.8
14724.8
14724.8
24534.8
24534.8
24534.8
24534.8
24534.8
24534.8
24534.8
24534.8
34344.8
34344.7
34344.8
34344.8
34344.8
34344.8
34344.8
34344.9
)
;
    }
    lateral_surface_2
    {
        type            calculated;
        value           nonuniform List<scalar> 
40
(
5.01453
5.01265
5.00811
5.01599
5.01548
5.01812
5.00928
5.01038
4914.92
4914.91
4914.87
4914.93
4914.92
4914.93
4914.91
4914.93
14724.8
14724.8
14724.8
14724.8
14724.8
14724.8
14724.8
14724.8
24534.8
24534.8
24534.8
24534.8
24534.8
24534.8
24534.8
24534.8
34344.8
34344.8
34344.8
34344.8
34344.8
34344.8
34344.8
34344.8
)
;
    }
    lateral_surface_3
    {
        type            calculated;
        value           nonuniform List<scalar> 
40
(
5.01415
5.01379
5.0141
5.01431
5.01424
5.01458
5.01544
5.01453
4914.94
4914.91
4914.91
4914.92
4914.93
4914.93
4914.93
4914.92
14724.8
14724.8
14724.8
14724.8
14724.8
14724.8
14724.8
14724.8
24534.8
24534.8
24534.8
24534.8
24534.8
24534.8
24534.8
24534.8
34344.8
34344.8
34344.8
34344.8
34344.8
34344.8
34344.8
34344.8
)
;
    }
    lateral_surface_4
    {
        type            calculated;
        value           nonuniform List<scalar> 
40
(
5.01038
5.0107
5.01062
5.01048
5.01064
5.01111
5.01157
5.01199
4914.93
4914.92
4914.93
4914.91
4914.9
4914.88
4914.91
4914.93
14724.8
14724.8
14724.8
14724.8
14724.8
14724.8
14724.8
14724.8
24534.8
24534.8
24534.8
24534.8
24534.8
24534.8
24534.8
24534.8
34344.8
34344.8
34344.8
34344.8
34344.8
34344.8
34344.8
34344.9
)
;
    }
}


// ************************************************************************* //
