/*--------------------------------*- C++ -*----------------------------------*\
| =========                 |                                                 |
| \\      /  F ield         | OpenFOAM: The Open Source CFD Toolbox           |
|  \\    /   O peration     | Version:  v1612+                                |
|   \\  /    A nd           | Web:      www.OpenFOAM.com                      |
|    \\/     M anipulation  |                                                 |
\*---------------------------------------------------------------------------*/
FoamFile
{
    version     2.0;
    format      ascii;
    class       volScalarField;
    location    "4.3";
    object      alpha.water;
}
// * * * * * * * * * * * * * * * * * * * * * * * * * * * * * * * * * * * * * //

dimensions      [0 0 0 0 0 0 0];

internalField   nonuniform List<scalar> 
1116
(
0.464423
0.464427
0.464429
0.464429
0.46443
0.464426
0.469941
0.469945
0.469946
0.469946
0.469947
0.469945
0.500672
0.500674
0.500676
0.500675
0.500676
0.500676
0.560022
0.560023
0.560025
0.560024
0.560025
0.560027
0.653772
0.653776
0.653777
0.653777
0.653778
0.65378
0.786189
0.786189
0.786192
0.786191
0.786192
0.786194
0.944814
0.944809
0.94481
0.94481
0.944808
0.944813
0.973289
0.973289
0.973289
0.973289
0.973289
0.973289
0.973294
0.973294
0.973294
0.973294
0.973294
0.973294
0.97329
0.97329
0.97329
0.97329
0.97329
0.97329
0.97328
0.973281
0.97328
0.97328
0.97328
0.97328
0.97327
0.97327
0.97327
0.97327
0.97327
0.97327
1.46716e-08
1.46714e-08
1.46715e-08
1.4672e-08
1.46719e-08
1.46726e-08
7.26075e-09
7.26062e-09
7.26072e-09
7.26062e-09
7.26056e-09
7.26133e-09
5.46881e-09
5.46879e-09
5.4688e-09
5.46879e-09
5.46879e-09
5.46888e-09
5.30799e-09
5.30798e-09
5.30798e-09
5.30798e-09
5.30798e-09
5.308e-09
5.30801e-09
5.308e-09
5.308e-09
5.308e-09
5.308e-09
5.30801e-09
0.0054524
0.0054527
0.00545267
0.00545276
0.00545277
0.00545282
0.071477
0.071471
0.071473
0.0714743
0.0714723
0.0714769
0.465553
0.465528
0.465534
0.465536
0.465532
0.465545
0.878218
0.87824
0.878226
0.878226
0.878228
0.878227
0.973303
0.973303
0.973303
0.973303
0.973303
0.973303
0.97329
0.97329
0.97329
0.97329
0.97329
0.97329
0.973451
0.973451
0.973451
0.973451
0.973451
0.973451
1.76952e-07
1.76867e-07
1.76896e-07
1.76908e-07
1.76884e-07
1.76986e-07
5.24857e-07
5.24803e-07
5.24826e-07
5.24821e-07
5.2478e-07
5.2489e-07
5.4126e-08
5.41216e-08
5.41243e-08
5.41202e-08
5.41201e-08
5.41483e-08
5.03174e-09
5.03176e-09
5.03176e-09
5.03176e-09
5.03177e-09
5.03176e-09
3.29261e-09
3.29095e-09
3.29069e-09
3.29069e-09
3.29046e-09
3.29085e-09
-2.08701e-08
-2.08624e-08
-2.08635e-08
-2.08629e-08
-2.08619e-08
-2.0861e-08
0.000205804
0.000205848
0.000205853
0.000205832
0.000205832
0.000205819
0.0203855
0.020384
0.0203842
0.0203826
0.0203818
0.0203842
0.309981
0.3101
0.310045
0.310026
0.310051
0.310013
0.648175
0.648286
0.64823
0.648219
0.648247
0.648199
0.899139
0.899104
0.899113
0.899112
0.899094
0.899131
0.972598
0.972602
0.9726
0.972602
0.972604
0.972599
1.69987e-07
1.6985e-07
1.69891e-07
1.69905e-07
1.69864e-07
1.70026e-07
7.16514e-07
7.1652e-07
7.16526e-07
7.16537e-07
7.16546e-07
7.16546e-07
1.69639e-07
1.69565e-07
1.69585e-07
1.69577e-07
1.69554e-07
1.69685e-07
1.76932e-09
1.77018e-09
1.77e-09
1.77003e-09
1.77026e-09
1.76933e-09
5.03045e-09
5.03172e-09
5.03176e-09
5.03172e-09
5.03194e-09
5.03154e-09
4.92628e-07
4.92808e-07
4.9276e-07
4.92799e-07
4.92865e-07
4.92723e-07
1.47698e-05
1.4767e-05
1.47693e-05
1.47701e-05
1.47699e-05
1.47691e-05
0.00020889
0.000208936
0.000208937
0.000208922
0.000208923
0.000208905
0.0706474
0.0708182
0.0707601
0.0707244
0.0707567
0.0707073
0.356213
0.356782
0.356562
0.356489
0.356635
0.356402
0.490651
0.491189
0.490963
0.490946
0.491108
0.490818
0.528537
0.528664
0.528606
0.528695
0.528758
0.528565
6.62665e-16
6.52207e-16
6.60454e-16
6.55916e-16
6.59532e-16
6.66174e-16
1.52529e-15
1.51743e-15
1.5476e-15
1.47568e-15
1.4584e-15
1.5784e-15
2.18547e-13
2.15188e-13
2.26654e-13
2.05234e-13
2.00958e-13
2.39274e-13
1.72262e-11
1.6931e-11
1.78606e-11
1.61601e-11
1.58515e-11
1.88211e-11
1.199e-09
1.17953e-09
1.24307e-09
1.12568e-09
1.10307e-09
1.31168e-09
5.54704e-08
5.45768e-08
5.75044e-08
5.20812e-08
5.10205e-08
6.06807e-08
1.71291e-06
1.68646e-06
1.77471e-06
1.6102e-06
1.57585e-06
1.87246e-06
0.000840562
0.0008303
0.00086271
0.000802056
0.000783688
0.000903884
0.00274997
0.00272959
0.00283194
0.00263097
0.00254493
0.00298346
0.000611379
0.000631885
0.000691681
0.000528287
0.000456096
0.000828307
9.83436e-05
0.000102927
0.000115594
8.29336e-05
6.60069e-05
0.000136154
1.72427e-05
1.69431e-05
1.57942e-05
1.61164e-05
1.62561e-05
1.45702e-05
8.15986e-17
8.08597e-17
8.17313e-17
8.08651e-17
8.1148e-17
8.25295e-17
3.67306e-15
3.65981e-15
3.73861e-15
3.57905e-15
3.53707e-15
3.83173e-15
1.44537e-13
1.42122e-13
1.4407e-13
1.43196e-13
1.44029e-13
1.45348e-13
1.0199e-11
1.00154e-11
1.01275e-11
1.01421e-11
1.02409e-11
1.01802e-11
7.29938e-10
7.16755e-10
7.24299e-10
7.26399e-10
7.33617e-10
7.27475e-10
3.44984e-08
3.38786e-08
3.42073e-08
3.43582e-08
3.47029e-08
3.43418e-08
1.11626e-06
1.09669e-06
1.10564e-06
1.11317e-06
1.12385e-06
1.10968e-06
4.11294e-05
3.77754e-05
3.53489e-05
4.68243e-05
5.55199e-05
2.89816e-05
0.00980998
0.00970682
0.00979275
0.0097367
0.00969144
0.00991909
0.0195128
0.0195196
0.0199044
0.0189552
0.0183105
0.0207039
0.000526537
0.000546546
0.000611007
0.000421192
0.00029844
0.000772748
1.12071e-05
1.11445e-05
1.10925e-05
1.10532e-05
1.08979e-05
1.07691e-05
3.3691e-17
3.33538e-17
3.3678e-17
3.34394e-17
3.37346e-17
3.39129e-17
1.64275e-15
1.62201e-15
1.60992e-15
1.67027e-15
1.68295e-15
1.58246e-15
1.5932e-13
1.57491e-13
1.55201e-13
1.6331e-13
1.65754e-13
1.50933e-13
6.38793e-13
6.30065e-13
6.34329e-13
6.39121e-13
6.44948e-13
6.38051e-13
4.29651e-11
4.23947e-11
4.27251e-11
4.29485e-11
4.33374e-11
4.31142e-11
6.46921e-09
7.79869e-09
8.42142e-09
5.67707e-09
4.1091e-09
1.22355e-08
1.0066e-06
1.08903e-06
1.18095e-06
8.52292e-07
6.56573e-07
1.38597e-06
1.29642e-06
1.25807e-06
1.20314e-06
1.39775e-06
1.48748e-06
1.12623e-06
0.000530375
0.000481578
0.000421533
0.000642295
0.0007834
0.000304724
0.0285158
0.0282585
0.0282815
0.0286275
0.0285853
0.0283729
0.0434366
0.043504
0.0441684
0.042526
0.0411507
0.0455877
1.11445e-05
1.10925e-05
1.10532e-05
1.08979e-05
1.07691e-05
1.07691e-05
4.35035e-18
4.29971e-18
4.34366e-18
4.32782e-18
4.41024e-18
4.37917e-18
1.14786e-17
1.14628e-17
1.14919e-17
1.14733e-17
1.15399e-17
1.15532e-17
9.7712e-17
9.70619e-17
9.75312e-17
9.79436e-17
9.85518e-17
9.86631e-17
9.26644e-15
9.19358e-15
9.25749e-15
9.28457e-15
9.35909e-15
9.41727e-15
7.4365e-13
7.38092e-13
7.44163e-13
7.4426e-13
7.5064e-13
7.59717e-13
4.75048e-11
4.716e-11
4.7544e-11
4.75424e-11
4.79898e-11
4.85604e-11
1.65488e-08
1.88544e-08
2.03919e-08
1.46931e-08
1.18913e-08
2.62982e-08
4.34479e-08
4.47871e-08
4.19007e-08
4.39185e-08
3.92701e-08
4.77125e-08
8.55651e-07
9.01959e-07
8.84641e-07
8.56274e-07
8.07598e-07
9.04212e-07
3.81822e-05
3.81883e-05
3.81268e-05
3.86249e-05
3.83753e-05
3.81772e-05
0.0625132
0.0624305
0.0626691
0.0624412
0.0618387
0.0633867
0.169904
0.169687
0.171717
0.167433
0.163335
0.175538
7.36517e-10
7.31552e-10
7.33167e-10
7.32854e-10
7.29668e-10
7.37424e-10
7.28595e-10
7.23662e-10
7.25267e-10
7.24955e-10
7.21789e-10
7.29495e-10
-1.52712e-16
-1.6723e-16
-1.71663e-16
-1.67846e-16
-1.66851e-16
-1.70881e-16
4.71266e-07
4.70826e-07
4.70964e-07
4.70938e-07
4.70671e-07
4.7133e-07
9.08033e-24
9.08534e-24
9.08131e-24
9.08183e-24
9.08678e-24
9.07396e-24
-9.94654e-16
-1.09011e-15
-1.11931e-15
-1.0942e-15
-1.08765e-15
-1.11422e-15
7.41962e-08
7.41305e-08
7.41414e-08
7.41412e-08
7.41281e-08
7.42013e-08
2.13354e-20
2.13498e-20
2.1348e-20
2.13461e-20
2.13432e-20
2.13304e-20
-3.88209e-15
-4.47428e-15
-4.65439e-15
-4.49914e-15
-4.45911e-15
-4.62183e-15
4.52852e-11
4.52909e-11
4.52887e-11
4.52848e-11
4.5284e-11
4.5283e-11
1.15901e-13
1.15854e-13
1.1586e-13
1.15852e-13
1.15839e-13
1.15877e-13
1.06936e-17
1.06649e-17
1.0715e-17
1.07016e-17
1.06721e-17
1.06357e-17
1.67822e-09
1.67869e-09
1.6786e-09
1.67861e-09
1.67874e-09
1.67837e-09
2.1482e-11
2.14734e-11
2.14748e-11
2.14734e-11
2.14713e-11
2.1478e-11
1.02928e-13
1.02882e-13
1.02889e-13
1.02882e-13
1.02869e-13
1.02905e-13
9.97205e-08
9.97024e-08
9.97256e-08
9.9713e-08
9.9711e-08
9.97126e-08
1.99861e-09
1.99824e-09
1.99833e-09
1.99819e-09
1.99802e-09
1.99822e-09
2.14819e-11
2.14749e-11
2.14758e-11
2.14744e-11
2.14722e-11
2.14779e-11
1.5461e-06
1.54604e-06
1.546e-06
1.54603e-06
1.54599e-06
1.54567e-06
7.26986e-08
7.2698e-08
7.26989e-08
7.26932e-08
7.26909e-08
7.26914e-08
2.01101e-09
2.01065e-09
2.01073e-09
2.0106e-09
2.01043e-09
2.01063e-09
1.23526e-05
1.23677e-05
1.23562e-05
1.23651e-05
1.23696e-05
1.23574e-05
2.16582e-06
2.16587e-06
2.1661e-06
2.16544e-06
2.16538e-06
2.16569e-06
7.91387e-08
7.91487e-08
7.91524e-08
7.91369e-08
7.91331e-08
7.91413e-08
3.5643e-06
3.56336e-06
3.56894e-06
3.56445e-06
3.5557e-06
3.56731e-06
3.15334e-06
3.15679e-06
3.15869e-06
3.15817e-06
3.15782e-06
3.15576e-06
2.34083e-06
2.341e-06
2.34341e-06
2.34371e-06
2.34288e-06
2.34352e-06
2.87803e-06
2.86926e-06
2.88052e-06
2.8723e-06
2.85167e-06
2.88109e-06
2.66164e-06
2.65072e-06
2.66262e-06
2.65533e-06
2.63147e-06
2.66409e-06
2.5794e-06
2.5663e-06
2.58018e-06
2.57187e-06
2.54285e-06
2.58222e-06
4.77567e-06
4.77274e-06
4.7811e-06
4.77168e-06
4.75896e-06
4.77895e-06
3.06729e-06
3.05828e-06
3.07066e-06
3.0598e-06
3.03731e-06
3.0723e-06
0.000109174
0.000109158
0.000109139
0.000109123
0.000109143
0.000109188
0.0186923
0.0186832
0.0186842
0.0187314
0.0187903
0.0186425
1.92304e-06
1.88946e-06
1.90128e-06
1.89291e-06
1.85713e-06
1.94701e-06
2.93773e-06
2.87354e-06
2.89688e-06
2.87837e-06
2.80465e-06
2.98864e-06
0.426403
0.426166
0.426336
0.426159
0.426127
0.426764
7.13024e-07
5.6715e-07
5.76094e-07
7.31447e-07
8.36271e-07
8.05117e-07
1.25596e-05
1.14903e-05
1.12963e-05
1.12413e-05
5.9411e-06
9.80273e-06
0.442154
0.442169
0.44219
0.442186
0.442183
0.442219
-1.61053e-17
-5.31756e-16
-6.7168e-16
-4.75616e-16
-9.18355e-16
4.33777e-20
-5.21763e-24
-2.20144e-24
-1.03098e-23
-3.81737e-24
-2.68113e-24
-3.9173e-24
0.442944
0.442957
0.442972
0.442989
0.442995
0.442976
0.00176121
0.00176905
0.00175622
0.00181082
0.00189059
0.0016935
-4.71554e-24
-4.34918e-24
-4.17887e-24
-3.76352e-24
-8.88179e-24
-2.1963e-24
0.442957
0.442972
0.442989
0.442995
0.442995
0.442995
0.0114048
0.0114493
0.0113652
0.011576
0.0118798
0.0110867
-2.8177e-23
-3.54926e-23
-3.8462e-23
-3.90336e-23
-3.71849e-23
-2.76593e-23
0.442944
0.442957
0.442972
0.442989
0.442995
0.442976
0.011617
0.0116902
0.0115959
0.0118061
0.0122177
0.011205
-2.34519e-23
-2.95446e-23
-3.20057e-23
-3.25736e-23
-3.11906e-23
-2.2895e-23
0.38335
0.383382
0.383348
0.383537
0.383888
0.383029
-3.66892e-17
-3.63361e-17
-4.60113e-17
-7.03081e-17
-4.20962e-17
-3.48157e-17
-1.20085e-23
-1.62415e-23
-1.5272e-23
-1.87514e-23
-2.96933e-23
-3.34731e-21
3.45078e-19
3.41242e-19
3.44568e-19
3.42266e-19
3.48994e-19
3.47631e-19
3.09171e-20
3.06317e-20
3.08207e-20
3.06528e-20
3.0926e-20
3.11716e-20
2.49481e-21
2.47636e-21
2.4861e-21
2.47389e-21
2.47163e-21
2.52169e-21
1.08811e-17
1.07985e-17
1.08748e-17
1.08128e-17
1.09854e-17
1.10061e-17
1.35505e-18
1.3456e-18
1.34578e-18
1.34638e-18
1.35407e-18
1.36227e-18
1.5906e-19
1.5821e-19
1.57758e-19
1.58137e-19
1.57011e-19
1.60254e-19
1.65415e-17
1.64983e-17
1.6592e-17
1.64334e-17
1.65348e-17
1.67948e-17
2.24741e-17
2.2394e-17
2.23554e-17
2.23063e-17
2.19159e-17
2.28476e-17
4.33038e-18
4.32022e-18
4.27742e-18
4.31377e-18
4.19226e-18
4.373e-18
1.34936e-16
1.35004e-16
1.36467e-16
1.33941e-16
1.33173e-16
1.4086e-16
2.99835e-17
2.99286e-17
2.98879e-17
2.98047e-17
2.9374e-17
3.04167e-17
9.93917e-17
9.96521e-17
9.87737e-17
9.90158e-17
9.39193e-17
1.02437e-16
1.07344e-14
1.07651e-14
1.09293e-14
1.06105e-14
1.05153e-14
1.14236e-14
2.24067e-16
2.25154e-16
2.28158e-16
2.21267e-16
2.18215e-16
2.38585e-16
4.86324e-15
4.94814e-15
4.8824e-15
4.86142e-15
4.44939e-15
5.15073e-15
8.77819e-13
8.78855e-13
8.92814e-13
8.67389e-13
8.62384e-13
9.30246e-13
3.10684e-14
3.15298e-14
3.22335e-14
2.99338e-14
2.87946e-14
3.38309e-14
8.86527e-14
8.97618e-14
8.89191e-14
8.8452e-14
8.374e-14
9.2771e-14
4.71834e-11
4.92163e-11
5.23649e-11
4.21525e-11
3.56457e-11
5.62557e-11
1.44973e-12
1.41531e-12
1.43615e-12
1.43868e-12
1.45761e-12
1.48081e-12
1.35558e-13
1.36272e-13
1.35986e-13
1.35241e-13
1.30931e-13
1.41008e-13
8.10192e-10
7.87146e-10
7.46101e-10
8.72358e-10
9.31096e-10
6.88642e-10
1.4888e-11
1.45456e-11
1.40153e-11
1.59026e-11
1.68134e-11
1.32775e-11
1.92397e-12
1.91259e-12
1.96994e-12
1.90855e-12
1.92666e-12
2.02361e-12
9.6357e-09
1.02052e-08
1.00993e-08
9.59869e-09
9.07505e-09
1.01806e-08
1.66072e-10
1.7408e-10
1.71235e-10
1.67077e-10
1.60884e-10
1.70377e-10
1.50736e-11
1.4738e-11
1.42074e-11
1.60931e-11
1.70033e-11
1.34794e-11
8.55541e-07
1.06007e-06
1.06101e-06
8.56097e-07
8.0748e-07
1.07093e-06
6.18382e-06
7.91081e-06
7.91108e-06
6.35355e-06
5.05227e-06
5.68973e-06
2.02536e-06
1.66194e-06
1.58256e-06
2.05303e-06
1.92701e-06
1.79451e-06
8.84923e-07
1.01269e-06
1.10505e-06
4.92274e-07
1.77189e-10
5.85038e-06
4.61669e-07
5.72265e-07
6.46079e-07
2.76756e-07
7.32015e-08
3.13776e-06
6.94656e-18
6.64533e-18
1.64086e-09
1.01992e-17
6.89859e-08
8.80215e-09
0.199707
0.200206
0.200487
0.198907
0.197918
0.201235
5.75274e-07
5.83e-07
5.74837e-07
5.84371e-07
1.48675e-07
8.15568e-07
4.92963e-06
4.04952e-06
3.51692e-06
1.54479e-05
3.92815e-05
3.50602e-06
)
;

boundaryField
{
    seabed_topleft_surface
    {
        type            zeroGradient;
    }
    seabed_topright_surface
    {
        type            zeroGradient;
    }
    breakwater_top_surface
    {
        type            zeroGradient;
    }
    breakwater_left_surface
    {
        type            zeroGradient;
    }
    breakwater_right_surface
    {
        type            zeroGradient;
    }
    water_front_surface
    {
        type            zeroGradient;
    }
    water_back_surface
    {
        type            zeroGradient;
    }
    water_left_surface
    {
        type            zeroGradient;
    }
    water_right_surface
    {
        type            zeroGradient;
    }
    water_top_surface
    {
        type            inletOutlet;
        inletValue      uniform 0;
        value           nonuniform List<scalar> 
180
(
0
0
0
0
0
0
0
0
0
0
0
0
0
0
0
0
0
0
0
0
0
0
0
0
1.02928e-13
1.02882e-13
1.02889e-13
1.02882e-13
1.02869e-13
1.02905e-13
2.14819e-11
2.14749e-11
2.14758e-11
2.14744e-11
2.14722e-11
2.14779e-11
2.01101e-09
2.01065e-09
2.01073e-09
2.0106e-09
2.01043e-09
2.01063e-09
7.91387e-08
7.91487e-08
7.91524e-08
7.91369e-08
7.91331e-08
7.91413e-08
2.34083e-06
2.341e-06
2.34341e-06
2.34371e-06
2.34288e-06
2.34352e-06
2.5794e-06
2.5663e-06
2.58018e-06
2.57187e-06
2.54285e-06
2.58222e-06
0
0
0
0
0
0
0
0
0
0
0
0
0
0
0
0
0
0
0
0
0
0
0
0
0
0
0
0
0
0
0
0
0
0
0
0
0
0
0
0
0
0
0
0
0
0
0
0
2.49481e-21
2.47636e-21
2.4861e-21
2.47389e-21
2.47163e-21
2.52169e-21
1.5906e-19
1.5821e-19
1.57758e-19
1.58137e-19
1.57011e-19
1.60254e-19
4.33038e-18
4.32022e-18
4.27742e-18
4.31377e-18
4.19226e-18
4.373e-18
9.93917e-17
9.96521e-17
9.87737e-17
9.90158e-17
9.39193e-17
1.02437e-16
4.86324e-15
4.94814e-15
4.8824e-15
4.86142e-15
4.44939e-15
5.15073e-15
8.86527e-14
8.97618e-14
8.89191e-14
8.8452e-14
8.374e-14
9.2771e-14
1.35558e-13
1.36272e-13
1.35986e-13
1.35241e-13
1.30931e-13
1.41008e-13
1.92397e-12
1.91259e-12
1.96994e-12
1.90855e-12
1.92666e-12
2.02361e-12
1.50736e-11
1.4738e-11
1.42074e-11
1.60931e-11
1.70033e-11
1.34794e-11
0
0
0
0
0
0
0
0
0
0
0
0
0
0
0
0
0
0
)
;
    }
}


// ************************************************************************* //
