/*--------------------------------*- C++ -*----------------------------------*\
| =========                 |                                                 |
| \\      /  F ield         | OpenFOAM: The Open Source CFD Toolbox           |
|  \\    /   O peration     | Version:  v1612+                                |
|   \\  /    A nd           | Web:      www.OpenFOAM.com                      |
|    \\/     M anipulation  |                                                 |
\*---------------------------------------------------------------------------*/
FoamFile
{
    version     2.0;
    format      ascii;
    class       volScalarField;
    location    "4.3";
    object      p_rgh;
}
// * * * * * * * * * * * * * * * * * * * * * * * * * * * * * * * * * * * * * //

dimensions      [1 -1 -2 0 0 0 0];

internalField   nonuniform List<scalar> 
1116
(
4579.33
4579.38
4579.39
4579.39
4579.41
4579.36
4650.84
4650.88
4650.89
4650.89
4650.9
4650.87
4967.32
4967.35
4967.37
4967.36
4967.37
4967.37
5521.7
5521.72
5521.74
5521.73
5521.74
5521.75
6380.16
6380.19
6380.2
6380.2
6380.21
6380.23
8044.19
8044.18
8044.19
8044.2
8044.21
8044.23
11053.9
11053.9
11053.9
11053.9
11053.9
11053.9
16220.6
16220.5
16220.5
16220.5
16220.5
16220.6
20260
20260.1
20260
20260.1
20260.1
20260
23719.1
23719.1
23719.1
23719.1
23719.1
23719.1
27367.1
27366.9
27366.9
27366.9
27366.9
27367
30046.7
30046.7
30046.7
30046.7
30046.7
30046.8
-9.98338
-9.98303
-9.98301
-9.98285
-9.9827
-9.98289
-8.13206
-8.13162
-8.1316
-8.13139
-8.13113
-8.1313
-5.60424
-5.60348
-5.60336
-5.60327
-5.60311
-5.60345
-12.5457
-12.5448
-12.5442
-12.5445
-12.5447
-12.5444
51.0685
51.0692
51.0698
51.0692
51.0689
51.0703
306.667
306.668
306.666
306.666
306.666
306.671
1488.11
1488.04
1488.05
1488.06
1488.04
1488.12
9598.08
9597.46
9597.62
9597.64
9597.55
9597.85
19200.2
19200.6
19200.4
19200.4
19200.4
19200.4
23008.3
23008.5
23008.6
23008.5
23008.4
23008.2
26579.8
26579.5
26579.6
26579.6
26579.6
26579.6
29570.4
29570.3
29570.4
29570.4
29570.4
29570.5
4.75091
4.75115
4.75123
4.75135
4.75147
4.7515
2.87736
2.8779
2.8781
2.87825
2.87836
2.87809
1.85923
1.85955
1.85967
1.85973
1.8598
1.85966
-28.4419
-28.4419
-28.4418
-28.4421
-28.4425
-28.4423
-51.3996
-51.3993
-51.3991
-51.3996
-51.4007
-51.4
-29.1859
-29.1917
-29.1885
-29.1885
-29.1908
-29.1888
51.7833
51.7779
51.7819
51.7797
51.7779
51.7804
718.284
718.224
718.231
718.188
718.165
718.253
9194.72
9197.4
9196.16
9195.67
9196.18
9195.39
20221.9
20223.1
20222.8
20222.6
20222.5
20222
28891.7
28889.1
28890.1
28890.4
28889.7
28890.8
31467.7
31468
31467.8
31467.9
31468
31468
-4.02838
-4.02791
-4.02778
-4.02762
-4.02747
-4.02781
-5.81702
-5.8156
-5.81519
-5.81504
-5.8151
-5.81623
-3.25119
-3.2518
-3.25191
-3.25181
-3.25145
-3.25085
-19.7173
-19.7173
-19.7172
-19.7174
-19.7177
-19.7177
-30.6158
-30.6157
-30.6155
-30.6156
-30.6158
-30.6156
-19.5964
-19.6003
-19.5967
-19.5964
-19.5976
-19.5969
46.076
46.0808
46.0801
46.0776
46.0767
46.0716
63.8921
63.9111
63.905
63.9022
63.9013
63.8947
2646.41
2652.75
2650.59
2649.28
2650.47
2648.66
13913.1
13935.4
13926.8
13923.9
13929.6
13920.5
19435.9
19456.7
19448
19447.5
19453.8
19442.4
20126.3
20132.1
20129.3
20132.8
20135.5
20127.3
25.7318
25.7318
25.7318
25.7319
25.7319
25.7319
27.1597
27.1596
27.1597
27.1597
27.1598
27.1598
30.2032
30.203
30.2034
30.2032
30.2035
30.2031
35.4672
35.4656
35.4686
35.4671
35.469
35.4662
44.1247
44.1157
44.1326
44.1136
44.1263
44.1288
54.8222
54.8068
54.8412
54.7991
54.8403
54.8119
72.79
72.7146
72.7709
72.9807
73.0468
72.4329
149.72
149.207
149.529
150.105
150.049
149.116
265.857
265.897
268.2
260.752
256.862
275.592
24.829
25.0403
25.4721
22.6866
20.5059
28.1383
-91.3623
-91.4743
-91.437
-90.1855
-90.4103
-92.0969
-94.4082
-94.3875
-94.4364
-93.8847
-93.5978
-94.6821
24.0374
24.0374
24.0374
24.0375
24.0375
24.0375
25.2644
25.2644
25.2645
25.2645
25.2646
25.2645
27.7939
27.7938
27.7941
27.7939
27.7941
27.7937
31.8057
31.8049
31.8071
31.8053
31.8069
31.8045
37.4201
37.4157
37.4231
37.4207
37.4318
37.4104
41.2607
41.2603
41.2497
41.3
41.3388
41.1793
31.1656
31.2477
31.107
31.3789
31.4429
30.8639
4.21621
4.22698
4.04092
4.52444
4.63796
3.68565
127.816
126.102
126.942
126.868
125.871
129.039
134.516
134.325
139.367
125.76
113.926
148.84
-169.46
-169.258
-168.474
-170.3
-170.992
-167.289
-126.375
-126.324
-126.271
-126.351
-126.141
-125.746
20.6749
20.6749
20.6749
20.675
20.675
20.675
21.4281
21.4282
21.4282
21.4282
21.4282
21.4282
22.7918
22.7917
22.7919
22.7917
22.7918
22.7914
24.3013
24.3011
24.3015
24.3011
24.302
24.2994
24.7838
24.7837
24.7839
24.7843
24.7898
24.7755
20.5629
20.5719
20.5546
20.5754
20.5919
20.5248
0.170542
0.246812
0.163346
0.178648
0.177867
0.14873
-43.1592
-43.0565
-43.1189
-43.2742
-43.3213
-43.0331
-54.022
-55.3127
-56.7371
-51.5101
-48.319
-59.3556
647.984
642.12
644.656
646.818
642.31
651.307
773.358
775.109
791.434
750.945
718.957
826.849
-123.094
-123.079
-123.037
-123.207
-123.135
-122.553
16.3591
16.3591
16.3591
16.3591
16.3591
16.3591
16.6541
16.6541
16.6541
16.6541
16.6541
16.654
16.9935
16.9935
16.9935
16.9934
16.9933
16.993
16.7599
16.7598
16.7596
16.7592
16.7595
16.7583
14.6417
14.6416
14.6404
14.6394
14.641
14.6374
7.7752
7.77899
7.76999
7.76927
7.77191
7.76401
-5.81771
-5.79043
-5.82062
-5.84405
-5.8646
-5.81723
-34.9764
-34.9164
-34.9173
-35.1405
-35.3263
-34.685
-44.4886
-44.4742
-44.4725
-44.7066
-44.8457
-44.3627
-31.0231
-31.0315
-31.0166
-31.423
-31.4384
-30.7443
2045.1
2040.79
2049.36
2042.66
2021.86
2074.23
4903.64
4897.34
4958.02
4829.95
4707.38
5072.53
-0.911821
-0.911759
-0.911698
-0.911633
-0.911583
-0.911526
-1.77317
-1.7732
-1.77319
-1.77318
-1.77319
-1.77314
-2.19747
-2.19753
-2.19755
-2.19761
-2.19769
-2.19764
-1.09003
-1.08974
-1.08952
-1.08942
-1.08942
-1.08953
-1.31313
-1.313
-1.31289
-1.31285
-1.31287
-1.3129
-1.8256
-1.82555
-1.82552
-1.82556
-1.82564
-1.82561
-0.227016
-0.226676
-0.226637
-0.226584
-0.226563
-0.226745
-0.118037
-0.11788
-0.117789
-0.117795
-0.117903
-0.118023
-0.950284
-0.950369
-0.950376
-0.950412
-0.950484
-0.950458
-5.92769
-5.92727
-5.92739
-5.92732
-5.92727
-5.92743
0.548299
0.548442
0.548317
0.54828
0.548209
0.548157
0.600526
0.600255
0.600196
0.600216
0.60027
0.600371
-10.1569
-10.156
-10.1563
-10.156
-10.1557
-10.156
3.22148
3.22191
3.22127
3.22129
3.22153
3.22152
2.3161
2.31597
2.3159
2.31592
2.31597
2.31598
3.56107
3.56247
3.56328
3.56295
3.56225
3.56003
9.84799
9.8492
9.84839
9.84813
9.848
9.84706
4.83157
4.83176
4.83149
4.83144
4.83154
4.83171
21.6958
21.7018
21.7009
21.6997
21.6985
21.693
9.86013
9.86276
9.86242
9.86184
9.86036
9.85737
2.00071
2.00032
2.00018
2.00011
1.99964
1.99971
-8.19736
-8.19379
-8.19931
-8.19788
-8.19832
-8.2008
-18.1304
-18.129
-18.1322
-18.1299
-18.1314
-18.1355
-9.68772
-9.68902
-9.68991
-9.68821
-9.68958
-9.69257
-71.6464
-71.6659
-71.6651
-71.6585
-71.6635
-71.6514
-64.1758
-64.2023
-64.1965
-64.1926
-64.1971
-64.1961
-23.2951
-23.3048
-23.3016
-23.3018
-23.3031
-23.3043
-52.7842
-52.7748
-52.7773
-52.7848
-52.794
-52.7602
-55.3188
-55.3221
-55.3162
-55.3172
-55.3168
-55.3079
-15.5718
-15.5797
-15.5746
-15.5778
-15.576
-15.5811
-14.1831
-14.1357
-14.1443
-14.1577
-14.1532
-14.1381
-37.0533
-37.0463
-37.046
-37.0508
-37.0499
-37.0461
-1.41301
-1.40886
-1.40901
-1.41583
-1.41281
-1.41133
885.092
884.698
884.743
887.001
889.801
882.723
-16.723
-16.721
-16.7211
-16.739
-16.7666
-16.6932
-9.51081
-9.51865
-9.51565
-9.51958
-9.52945
-9.50216
20876.9
20865.1
20873.4
20865.1
20864.2
20893.3
5.40226
5.3264
5.35675
5.45871
5.60751
5.21273
-3.31844
-3.3574
-3.34656
-3.43458
-3.86432
-3.39969
21675.3
21676
21677.1
21676.8
21676.8
21678.5
6.82087
6.83528
6.83955
6.78728
6.78604
6.82287
-2.0139
-2.01629
-2.01892
-2.01803
-2.04052
-2.0226
21756.9
21757.6
21758.3
21759.6
21761
21757.7
106.949
107.35
106.678
109.608
113.937
103.297
-4.55607
-4.54858
-4.54551
-4.53866
-4.5339
-4.54363
21884.2
21884.9
21885.9
21886.5
21886.6
21886
657.147
659.638
655.053
666.79
683.833
639.473
-4.02119
-4.00438
-4.01218
-3.99208
-3.95072
-4.05292
21959.9
21959.9
21961.7
21960.1
21956.3
21965.8
671.879
675.933
670.806
682.389
705.318
649.052
-2.73653
-2.71595
-2.72458
-2.68611
-2.61488
-2.80124
18697.3
18698.7
18697.3
18705.9
18721.7
18682.9
-7.16666
-7.18281
-7.16072
-7.23842
-7.29194
-7.05848
-7.17816
-7.17086
-7.17174
-7.16062
-7.13221
-7.19684
11.6796
11.6796
11.6796
11.6796
11.6796
11.6797
6.94817
6.94817
6.94818
6.9482
6.94823
6.94825
2.28549
2.2855
2.28551
2.28553
2.28555
2.28554
11.6989
11.6989
11.6989
11.6989
11.6989
11.6989
6.88688
6.8869
6.88688
6.88688
6.88689
6.88691
2.24733
2.24733
2.24732
2.24733
2.24734
2.24733
11.5244
11.5244
11.5244
11.5243
11.5242
11.5241
6.64426
6.64424
6.64416
6.6441
6.64406
6.64401
2.13407
2.13404
2.13401
2.134
2.134
2.13398
10.7115
10.7114
10.7111
10.7108
10.7107
10.7104
5.98556
5.9855
5.98533
5.98517
5.98501
5.98489
1.8684
1.86838
1.86833
1.86829
1.86823
1.86819
8.53061
8.53043
8.52963
8.52864
8.52837
8.52825
4.7079
4.70773
4.70737
4.7069
4.70658
4.7063
1.50715
1.50709
1.50696
1.50682
1.50671
1.50648
3.49034
3.49042
3.48775
3.48651
3.48497
3.48531
1.52588
1.52567
1.52491
1.52521
1.52439
1.52397
0.251782
0.25176
0.251591
0.251715
0.251533
0.251303
-3.44343
-3.44057
-3.448
-3.45462
-3.46488
-3.45401
-2.06896
-2.06923
-2.07052
-2.07065
-2.0718
-2.07557
-0.767441
-0.767477
-0.767329
-0.767095
-0.766421
-0.768684
-15.0412
-15.03
-15.0494
-15.0577
-15.1121
-15.0084
-8.40705
-8.40544
-8.41139
-8.40488
-8.41099
-8.40508
-3.03521
-3.03465
-3.03477
-3.03357
-3.03203
-3.03357
-19.4595
-19.4473
-19.4784
-19.5679
-19.5964
-19.4781
-13.4778
-13.4865
-13.4922
-13.4878
-13.4775
-13.4896
-4.29364
-4.29429
-4.28928
-4.28113
-4.26212
-4.2891
-20.0014
-20.0013
-20.0844
-20.1966
-20.1706
-20.1545
-17.2174
-17.1452
-17.1828
-17.2475
-17.1715
-17.5165
-4.03752
-4.05894
-4.06481
-4.04
-4.01048
-4.07926
-21.6507
-21.5516
-21.7845
-21.25
-20.7301
-22.1236
-10.774
-10.7591
-10.8016
-10.5751
-10.5261
-10.6213
-4.7186
-4.73121
-4.72165
-4.63952
-4.5976
-4.64882
9674.85
9700.2
9714.01
9635.78
9586.94
9750.44
-3.61949
-3.59938
-3.56292
-3.4296
-3.59257
-3.53397
-18.1393
-18.2283
-18.2605
-17.4284
-16.0343
-18.1434
)
;

boundaryField
{
    seabed_topleft_surface
    {
        type            fixedFluxPressure;
        gradient        uniform 0;
        value           nonuniform List<scalar> 
72
(
4579.33
4579.38
4579.39
4579.39
4579.41
4579.36
4650.84
4650.88
4650.89
4650.89
4650.9
4650.87
4967.32
4967.35
4967.37
4967.36
4967.37
4967.37
5521.7
5521.72
5521.74
5521.73
5521.74
5521.75
6380.16
6380.19
6380.2
6380.2
6380.21
6380.23
8044.19
8044.18
8044.19
8044.2
8044.21
8044.23
11053.9
11053.9
11053.9
11053.9
11053.9
11053.9
16220.6
16220.5
16220.5
16220.5
16220.5
16220.6
20260
20260.1
20260
20260.1
20260.1
20260
23719.1
23719.1
23719.1
23719.1
23719.1
23719.1
27367.1
27366.9
27366.9
27366.9
27366.9
27367
30046.7
30046.7
30046.7
30046.7
30046.7
30046.8
)
;
    }
    seabed_topright_surface
    {
        type            fixedFluxPressure;
        gradient        uniform 0;
        value           nonuniform List<scalar> 
72
(
25.7318
25.7318
25.7318
25.7319
25.7319
25.7319
27.1597
27.1596
27.1597
27.1597
27.1598
27.1598
30.2032
30.203
30.2034
30.2032
30.2035
30.2031
35.4672
35.4656
35.4686
35.4671
35.469
35.4662
44.1247
44.1157
44.1326
44.1136
44.1263
44.1288
54.8222
54.8068
54.8412
54.7991
54.8403
54.8119
72.79
72.7146
72.7709
72.9807
73.0468
72.4329
149.72
149.207
149.529
150.105
150.049
149.116
265.857
265.897
268.2
260.752
256.862
275.592
24.829
25.0403
25.4721
22.6866
20.5059
28.1383
-91.3623
-91.4743
-91.437
-90.1855
-90.4103
-92.0969
-94.4082
-94.3875
-94.4364
-93.8847
-93.5978
-94.6821
)
;
    }
    breakwater_top_surface
    {
        type            fixedFluxPressure;
        gradient        uniform 0;
        value           nonuniform List<scalar> 
36
(
20876.9
20865.1
20873.4
20865.1
20864.2
20893.3
21675.3
21676
21677.1
21676.8
21676.8
21678.5
21756.9
21757.6
21758.3
21759.6
21761
21757.7
21884.2
21884.9
21885.9
21886.5
21886.6
21886
21959.9
21959.9
21961.7
21960.1
21956.3
21965.8
18697.3
18698.7
18697.3
18705.9
18721.7
18682.9
)
;
    }
    breakwater_left_surface
    {
        type            fixedFluxPressure;
        gradient        uniform 0;
        value           nonuniform List<scalar> 
24
(
30046.7
30046.7
30046.7
30046.7
30046.7
30046.8
29570.4
29570.3
29570.4
29570.4
29570.4
29570.5
31467.7
31468
31467.8
31467.9
31468
31468
20126.3
20132.1
20129.3
20132.8
20135.5
20127.3
)
;
    }
    breakwater_right_surface
    {
        type            fixedFluxPressure;
        gradient        uniform 0;
        value           nonuniform List<scalar> 
24
(
-94.4082
-94.3875
-94.4364
-93.8847
-93.5978
-94.6821
-126.375
-126.324
-126.271
-126.351
-126.141
-125.746
-123.094
-123.079
-123.037
-123.207
-123.135
-122.553
4903.64
4897.34
4958.02
4829.95
4707.38
5072.53
)
;
    }
    water_front_surface
    {
        type            fixedFluxPressure;
        gradient        uniform 0;
        value           nonuniform List<scalar> 
186
(
4579.33
4650.84
4967.32
5521.7
6380.16
8044.19
11053.9
16220.6
20260
23719.1
27367.1
30046.7
-9.98338
-8.13206
-5.60424
-12.5457
51.0685
306.667
1488.11
9598.08
19200.2
23008.3
26579.8
29570.4
4.75091
2.87736
1.85923
-28.4419
-51.3996
-29.1859
51.7833
718.284
9194.72
20221.9
28891.7
31467.7
-4.02838
-5.81702
-3.25119
-19.7173
-30.6158
-19.5964
46.076
63.8921
2646.41
13913.1
19435.9
20126.3
25.7318
27.1597
30.2032
35.4672
44.1247
54.8222
72.79
149.72
265.857
24.829
-91.3623
-94.4082
24.0374
25.2644
27.7939
31.8057
37.4201
41.2607
31.1656
4.21621
127.816
134.516
-169.46
-126.375
20.6749
21.4281
22.7918
24.3013
24.7838
20.5629
0.170542
-43.1592
-54.022
647.984
773.358
-123.094
16.3591
16.6541
16.9935
16.7599
14.6417
7.7752
-5.81771
-34.9764
-44.4886
-31.0231
2045.1
4903.64
-0.911821
-1.77317
-2.19747
-1.09003
-1.31313
-1.8256
-0.227016
-0.118037
-0.950284
-5.92769
0.548299
0.600526
-10.1569
3.22148
2.3161
3.56107
9.84799
4.83157
21.6958
9.86013
2.00071
-8.19736
-18.1304
-9.68772
-71.6464
-64.1758
-23.2951
-52.7842
-55.3188
-15.5718
-14.1831
-37.0533
-1.41301
885.092
-16.723
-9.51081
20876.9
5.40226
-3.31844
21675.3
6.82087
-2.0139
21756.9
106.949
-4.55607
21884.2
657.147
-4.02119
21959.9
671.879
-2.73653
18697.3
-7.16666
-7.17816
11.6796
6.94817
2.28549
11.6989
6.88688
2.24733
11.5244
6.64426
2.13407
10.7115
5.98556
1.8684
8.53061
4.7079
1.50715
3.49034
1.52588
0.251782
-3.44343
-2.06896
-0.767441
-15.0412
-8.40705
-3.03521
-19.4595
-13.4778
-4.29364
-20.0014
-17.2174
-4.03752
-21.6507
-10.774
-4.7186
9674.85
-3.61949
-18.1393
)
;
    }
    water_back_surface
    {
        type            fixedFluxPressure;
        gradient        uniform 0;
        value           nonuniform List<scalar> 
186
(
4579.36
4650.87
4967.37
5521.75
6380.23
8044.23
11053.9
16220.6
20260
23719.1
27367
30046.8
-9.98289
-8.1313
-5.60345
-12.5444
51.0703
306.671
1488.12
9597.85
19200.4
23008.2
26579.6
29570.5
4.7515
2.87809
1.85966
-28.4423
-51.4
-29.1888
51.7804
718.253
9195.39
20222
28890.8
31468
-4.02781
-5.81623
-3.25085
-19.7177
-30.6156
-19.5969
46.0716
63.8947
2648.66
13920.5
19442.4
20127.3
25.7319
27.1598
30.2031
35.4662
44.1288
54.8119
72.4329
149.116
275.592
28.1383
-92.0969
-94.6821
24.0375
25.2645
27.7937
31.8045
37.4104
41.1793
30.8639
3.68565
129.039
148.84
-167.289
-125.746
20.675
21.4282
22.7914
24.2994
24.7755
20.5248
0.14873
-43.0331
-59.3556
651.307
826.849
-122.553
16.3591
16.654
16.993
16.7583
14.6374
7.76401
-5.81723
-34.685
-44.3627
-30.7443
2074.23
5072.53
-0.911526
-1.77314
-2.19764
-1.08953
-1.3129
-1.82561
-0.226745
-0.118023
-0.950458
-5.92743
0.548157
0.600371
-10.156
3.22152
2.31598
3.56003
9.84706
4.83171
21.693
9.85737
1.99971
-8.2008
-18.1355
-9.69257
-71.6514
-64.1961
-23.3043
-52.7602
-55.3079
-15.5811
-14.1381
-37.0461
-1.41133
882.723
-16.6932
-9.50216
20893.3
5.21273
-3.39969
21678.5
6.82287
-2.0226
21757.7
103.297
-4.54363
21886
639.473
-4.05292
21965.8
649.052
-2.80124
18682.9
-7.05848
-7.19684
11.6797
6.94825
2.28554
11.6989
6.88691
2.24733
11.5241
6.64401
2.13398
10.7104
5.98489
1.86819
8.52825
4.7063
1.50648
3.48531
1.52397
0.251303
-3.45401
-2.07557
-0.768684
-15.0084
-8.40508
-3.03357
-19.4781
-13.4896
-4.2891
-20.1545
-17.5165
-4.07926
-22.1236
-10.6213
-4.64882
9750.44
-3.53397
-18.1434
)
;
    }
    water_left_surface
    {
        type            fixedFluxPressure;
        gradient        uniform 0;
        value           nonuniform List<scalar> 
42
(
4579.33
4579.38
4579.39
4579.39
4579.41
4579.36
-9.98338
-9.98303
-9.98301
-9.98285
-9.9827
-9.98289
4.75091
4.75115
4.75123
4.75135
4.75147
4.7515
-4.02838
-4.02791
-4.02778
-4.02762
-4.02747
-4.02781
-0.911821
-0.911759
-0.911698
-0.911633
-0.911583
-0.911526
-1.77317
-1.7732
-1.77319
-1.77318
-1.77319
-1.77314
-2.19747
-2.19753
-2.19755
-2.19761
-2.19769
-2.19764
)
;
    }
    water_right_surface
    {
        type            fixedFluxPressure;
        gradient        uniform 0;
        value           nonuniform List<scalar> 
42
(
25.7318
25.7318
25.7318
25.7319
25.7319
25.7319
24.0374
24.0374
24.0374
24.0375
24.0375
24.0375
20.6749
20.6749
20.6749
20.675
20.675
20.675
16.3591
16.3591
16.3591
16.3591
16.3591
16.3591
11.6796
11.6796
11.6796
11.6796
11.6796
11.6797
6.94817
6.94817
6.94818
6.9482
6.94823
6.94825
2.28549
2.2855
2.28551
2.28553
2.28555
2.28554
)
;
    }
    water_top_surface
    {
        type            totalPressure;
        rho             rho;
        psi             none;
        gamma           1;
        p0              uniform 0;
        value           nonuniform List<scalar> 
180
(
-2.88065
-2.881
-2.881
-2.88107
-2.88124
-2.88101
-2.60043
-2.60088
-2.60092
-2.60101
-2.60117
-2.60096
-1.81824
-1.81871
-1.81877
-1.81881
-1.81885
-1.81852
-0.609409
-0.609676
-0.609672
-0.609618
-0.609527
-0.6092
0
0
0
0
0
0
0
0
0
0
0
0
0
0
0
0
0
0
0
0
0
0
0
0
0
0
0
0
0
0
0
0
0
0
0
0
-0.907541
-0.911044
-0.909235
-0.911006
-0.917996
-0.899236
-13.8911
-13.9327
-13.9133
-13.9219
-13.9576
-13.8703
-7.28605
-7.49834
-7.49569
-7.30731
-7.38888
-7.57527
-3.45947
-3.43163
-3.41616
-3.50317
-3.55847
-3.34677
-0.179158
-0.185993
-0.181368
-0.192365
-0.207158
-0.174973
-8.74816
-8.79033
-8.69592
-8.91147
-9.18247
-8.45346
-22.2021
-22.3109
-22.1728
-22.4099
-22.8221
-21.7585
-9.98422
-10.021
-9.98739
-10.034
-10.0988
-9.90373
0
0
0
0
0
0
0
0
0
0
0
0
0
0
0
0
0
0
0
0
0
0
0
0
0
0
0
0
0
0
0
0
0
0
0
0
0
0
0
0
0
0
0
0
0
0
0
0
0
0
0
0
0
0
-4.56417
-4.58433
-4.58216
-4.54892
-4.53022
-4.60551
-5.09488
-5.14752
-5.16389
-5.06425
-5.12618
-5.15829
-0.301472
-0.266959
-0.307037
-0.190772
-0.0152529
-0.368772
)
;
    }
}


// ************************************************************************* //
