/*--------------------------------*- C++ -*----------------------------------*\
| =========                 |                                                 |
| \\      /  F ield         | OpenFOAM: The Open Source CFD Toolbox           |
|  \\    /   O peration     | Version:  v1612+                                |
|   \\  /    A nd           | Web:      www.OpenFOAM.com                      |
|    \\/     M anipulation  |                                                 |
\*---------------------------------------------------------------------------*/
FoamFile
{
    version     2.0;
    format      ascii;
    class       surfaceScalarField;
    location    "4.3";
    object      phi;
}
// * * * * * * * * * * * * * * * * * * * * * * * * * * * * * * * * * * * * * //

dimensions      [0 3 -1 0 0 0 0];

internalField   nonuniform List<scalar> 
2916
(
1.16868e-06
0.215677
-0.215678
-3.57191e-07
0.215679
-0.215678
-4.13635e-06
0.215678
-0.215674
1.93147e-06
0.215679
-0.215685
1.41075e-05
0.215679
-0.215691
0.215676
-0.215662
3.57276e-06
0.398464
-0.182791
5.02043e-07
0.398474
-0.182792
-2.40735e-06
0.39847
-0.182789
4.56543e-06
0.398472
-0.1828
1.4062e-05
0.398474
-0.182805
0.398465
-0.182774
4.74146e-06
0.543083
-0.144624
3.56918e-07
0.543102
-0.144624
-6.27152e-07
0.543096
-0.144625
4.751e-06
0.543098
-0.144631
8.63774e-06
0.543101
-0.144631
0.543086
-0.144612
5.26399e-06
0.659125
-0.116047
7.48818e-07
0.659153
-0.116046
1.04865e-06
0.659144
-0.116048
2.94194e-06
0.659146
-0.116049
1.53002e-06
0.65915
-0.116048
0.659129
-0.116041
4.0237e-06
0.676655
-0.0175346
5.2713e-07
0.67669
-0.0175328
8.10711e-07
0.676679
-0.0175352
-5.23142e-08
0.67668
-0.0175331
-4.30202e-06
0.676685
-0.017531
0.676658
-0.0175339
3.77342e-06
0.491679
0.184973
1.16824e-06
0.491715
0.184977
-1.89531e-07
0.491705
0.184975
-2.38015e-06
0.491705
0.184977
-5.93653e-06
0.491712
0.184977
0.491678
0.184974
-5.40363e-06
0.0255634
0.466121
9.81007e-08
0.0255963
0.466113
-3.15314e-06
0.0255921
0.466116
-6.33955e-06
0.0255924
0.466116
-6.89198e-06
0.0255992
0.466114
0.0255624
0.466109
8.95645e-06
-0.574541
0.600095
2.42113e-06
-0.574523
0.600126
-5.84321e-06
-0.574509
0.600109
-1.20251e-05
-0.574509
0.600108
-2.36701e-05
-0.574503
0.600114
-0.57456
0.600099
9.90179e-06
-1.12586
0.551311
1.03776e-05
-1.12587
0.551345
4.36099e-06
-1.12584
0.551332
-5.23546e-06
-1.12584
0.551337
-2.43111e-05
-1.12583
0.551351
-1.1259
0.551312
5.12592e-05
-1.27482
0.148908
2.34291e-05
-1.27483
0.148992
1.33725e-05
-1.2748
0.148973
-2.33594e-06
-1.2748
0.148978
-4.24993e-05
-1.2748
0.149003
-1.27484
0.148903
7.75505e-05
-0.794889
-0.480009
1.88013e-05
-0.794866
-0.479907
5.97761e-06
-0.794861
-0.479925
-1.12575e-05
-0.794863
-0.479919
-5.87531e-05
-0.794851
-0.479899
-0.794893
-0.480008
5.54943e-06
-0.794894
-1.4958e-05
-0.794845
-1.5974e-05
-0.79486
-1.03993e-05
-0.794868
-4.91812e-06
-0.794856
-0.794897
-6.45652e-05
1.62186
-1.83747
-1.46265e-05
1.62187
-1.8376
2.28204e-05
1.62187
-1.83758
5.91977e-05
1.62187
-1.8376
8.79226e-05
1.6219
-1.83762
1.62187
-1.83745
-4.78704e-05
3.44548
-2.00637
1.29824e-05
3.44551
-2.00649
5.19963e-05
3.44552
-2.00648
9.4191e-05
3.44552
-2.00649
0.000135406
3.44555
-2.0065
3.44555
-2.00632
-5.99176e-05
5.68227
-2.38135
1.19263e-05
5.68228
-2.38146
5.21774e-05
5.68229
-2.38144
9.88087e-05
5.68229
-2.38145
0.000163017
5.68231
-2.38146
5.68237
-2.38127
-5.39591e-05
7.62362
-2.05735
4.16414e-06
7.62365
-2.05748
3.85121e-05
7.62367
-2.05745
7.86369e-05
7.62365
-2.05744
9.63325e-05
7.62368
-2.05744
7.62368
-2.05725
5.34049e-06
6.16539
1.44069
1.66572e-06
6.16544
1.44068
1.1481e-05
6.16544
1.44067
-2.77863e-05
6.16542
1.44074
-0.000120875
6.16547
1.44077
6.16533
1.44069
3.50187e-05
2.84531
3.50502
1.95118e-05
2.84541
3.50502
1.61479e-05
2.84537
3.50505
-1.83942e-05
2.84536
3.50507
-8.2887e-05
2.84541
3.5051
2.84524
3.50499
-2.41223e-05
0.630512
2.68094
-1.07336e-05
0.630681
2.68083
-1.77207e-05
0.630625
2.68087
-4.46272e-05
0.630626
2.68088
-7.36079e-05
0.630678
2.68088
0.630525
2.68075
8.93324e-05
-0.159177
1.38969
-2.37219e-05
-0.159114
1.39003
-2.89566e-05
-0.159121
1.38986
-2.63583e-05
-0.159117
1.38985
-8.83004e-05
-0.159091
1.38995
-0.159185
1.38972
9.26316e-05
-0.543598
0.935639
1.16995e-05
-0.543597
0.935909
5.68827e-06
-0.543571
0.935789
-1.5171e-06
-0.543565
0.935792
-5.48419e-05
-0.543553
0.935866
-0.543616
0.935689
0.000101253
-0.626769
0.231978
2.06499e-05
-0.626779
0.232254
2.3545e-05
-0.626739
0.232138
1.33823e-05
-0.626738
0.232162
-2.84996e-05
-0.626736
0.232228
-0.626783
0.232041
0.000210435
-0.432859
-0.67413
3.09931e-05
-0.432736
-0.673771
-4.54791e-06
-0.432739
-0.673889
-1.57741e-06
-0.432758
-0.673901
-6.58208e-05
-0.432742
-0.673829
-0.43282
-0.674037
-5.72067e-05
-1.2277
-3.0536e-05
-1.22761
-7.3427e-06
-1.22762
9.14722e-06
-1.22764
4.63206e-05
-1.22764
-1.22767
-3.84281e-05
-0.424173
-1.41326
-7.44161e-06
-0.424097
-1.41353
2.71123e-05
-0.424125
-1.41349
2.9925e-05
-0.424106
-1.41349
2.6436e-05
-0.424068
-1.41355
-0.424168
-1.41325
-2.51714e-05
-0.71602
-1.7145
-5.70337e-06
-0.715873
-1.71474
2.80576e-06
-0.71591
-1.7147
7.55626e-06
-0.715902
-1.7147
3.40895e-05
-0.715858
-1.71474
-0.715978
-1.71447
-0.000105285
-0.610213
-2.48705
-6.2935e-05
-0.610159
-2.48722
-4.74592e-05
-0.610176
-2.48719
-2.18466e-05
-0.610186
-2.48719
5.79753e-05
-0.610176
-2.48722
-0.610188
-2.487
-0.000193992
0.847572
-3.51494
-0.000149038
0.847481
-3.51517
-0.000115984
0.847489
-3.51515
-6.50319e-05
0.847479
-3.51516
4.7316e-05
0.847461
-3.51519
0.847555
-3.51495
-0.00018249
2.59851
-0.310061
-0.000215587
2.59855
-0.310356
-0.000200604
2.59851
-0.310363
-0.000158236
2.59848
-0.310305
-0.000133015
2.59851
-0.310306
2.59845
-0.310338
0.000222626
2.261
3.8423
-0.000236157
2.26206
3.84198
-0.000229522
2.26149
3.84206
-0.000173816
2.26142
3.84208
-0.000332997
2.26172
3.84206
2.26123
3.84188
0.000493916
0.45243
4.48902
-0.000215452
0.454402
4.4892
-0.00017806
0.453386
4.48895
-0.000130576
0.453316
4.48893
-0.00033011
0.453827
4.48897
0.453027
4.48862
0.000560693
-1.21265
3.05422
2.06087e-05
-1.2115
3.05648
-6.39707e-05
-1.21207
3.0554
-3.12551e-05
-1.21211
3.05524
-0.00030095
-1.21182
3.05586
-1.21227
3.05471
0.000482457
-0.642367
0.364869
2.35895e-05
-0.64161
0.366473
-3.90825e-05
-0.641946
0.365726
-1.41245e-06
-0.641988
0.365635
-0.000259308
-0.6418
0.366105
-0.64213
0.365294
0.000692689
-0.335721
-0.075361
1.06593e-05
-0.334991
-0.0736827
-5.37696e-05
-0.335284
-0.074459
3.59966e-05
-0.335368
-0.0745486
-0.000321587
-0.335206
-0.0740089
-0.335456
-0.0749544
0.000484497
-0.16054
-0.849796
1.10828e-05
-0.160085
-0.848203
-5.97121e-05
-0.160221
-0.848881
2.77117e-05
-0.160322
-0.849035
-0.000144041
-0.160308
-0.848555
-0.160283
-0.849354
-0.000317801
-1.38792
-1.91616e-05
-1.38799
7.35033e-05
-1.38794
4.67376e-05
-1.38794
8.11862e-05
-1.38798
-1.38787
2.26713e-05
0.0778316
-1.49111
2.05277e-05
0.0778857
-1.49142
5.32715e-06
0.0778853
-1.49136
-6.89057e-06
0.0778815
-1.49136
-1.3565e-05
0.0778881
-1.49143
0.0778413
-1.49111
2.18787e-05
-0.00895194
-1.62773
8.57711e-06
-0.00883948
-1.628
-9.63776e-06
-0.00884795
-1.62795
-2.42163e-05
-0.00885292
-1.62795
-2.67033e-05
-0.00884364
-1.62801
-0.00894607
-1.62771
-4.46677e-05
-0.618941
-1.87702
-3.20037e-05
-0.618886
-1.87718
-3.31321e-05
-0.618884
-1.87716
-2.66878e-05
-0.618896
-1.87716
3.84279e-06
-0.618904
-1.87719
-0.61895
-1.87699
-0.000144265
-1.71348
-2.42026
-9.45063e-05
-1.71365
-2.42045
-9.57645e-05
-1.71359
-2.42044
-7.71159e-05
-1.71363
-2.42045
9.74393e-06
-1.7137
-2.42048
-1.71359
-2.4203
-0.000288085
-0.990278
-1.03297
-0.000258189
-0.990611
-1.03342
-0.000273376
-0.990556
-1.03338
-0.000170844
-0.990625
-1.03341
3.48583e-05
-0.990737
-1.03348
-0.990554
-1.03334
2.51318e-05
-0.195066
3.04707
-0.000572153
-0.19419
3.04616
-0.000512794
-0.194875
3.04633
-0.000303672
-0.195025
3.04627
-0.000207559
-0.194869
3.0461
-0.195057
3.04617
0.000312093
-1.44937
5.74301
-0.00014059
-1.44821
5.74366
-9.53413e-05
-1.4491
5.74312
1.58917e-05
-1.4491
5.74289
-7.15164e-05
-1.44872
5.7429
-1.44923
5.74272
-0.000449439
-3.25302
4.85832
-3.36929e-06
-3.25444
4.86227
0.000107209
-3.25432
4.86052
6.61167e-05
-3.25395
4.86013
8.46413e-05
-3.25393
4.86105
-3.25391
4.85948
2.78497e-05
-2.48619
-0.40199
8.65773e-05
-2.48488
-0.403149
0.000179126
-2.48541
-0.40328
3.22814e-05
-2.48579
-0.402374
-3.46688e-05
-2.48529
-0.402466
-2.48589
-0.402759
-0.000604148
-1.06206
-1.49889
0.000112827
-1.0597
-1.49958
0.000283791
-1.06074
-1.4993
6.13467e-05
-1.06103
-1.49909
0.000324054
-1.06023
-1.49933
-1.06149
-1.49903
-0.00179388
-0.460117
-1.44994
-1.62499e-05
-0.458426
-1.45125
0.00030923
-0.459184
-1.45076
4.225e-05
-0.459222
-1.45057
0.000881937
-0.458614
-1.45101
-0.459782
-1.45018
-0.00106624
-1.84697
-6.7025e-05
-1.84742
-2.57117e-05
-1.84716
3.76338e-05
-1.84722
0.000704071
-1.84726
-1.84695
-7.24904e-06
-0.22626
0.226267
-1.12974e-05
-0.226269
0.226273
-1.24091e-05
-0.226272
0.226274
-1.0879e-05
-0.226275
0.226274
-5.68673e-06
-0.226279
0.226275
-0.226274
0.22627
-1.03072e-05
-0.474914
0.248665
-2.09493e-05
-0.474933
0.248674
-2.03763e-05
-0.474947
0.248675
-2.2886e-05
-0.474948
0.248676
-1.27901e-05
-0.474965
0.248677
-0.474956
0.24867
-1.64394e-05
-0.775156
0.300258
-5.74633e-05
-0.775159
0.300267
-3.88338e-05
-0.775224
0.300257
-6.00309e-05
-0.775199
0.300272
-1.84571e-05
-0.775281
0.300274
-0.775211
0.300236
3.81396e-06
-1.17605
0.40089
-0.000185124
-1.17583
0.400857
-7.92078e-05
-1.1762
0.400866
-0.000193421
-1.17592
0.400834
4.26161e-05
-1.17636
0.400846
-1.17604
0.400871
0.000167069
-1.7915
0.615281
-0.000564039
-1.79007
0.614974
0.000214555
-1.79275
0.615774
-0.000846644
-1.78902
0.614166
-0.000152694
-1.79118
0.614125
-1.79289
0.616697
0.000698084
-2.89895
1.10675
-0.00166588
-2.89382
1.10611
0.00353133
-2.90613
1.10818
-0.00297263
-2.88659
1.10407
-0.00455366
-2.89402
1.10442
-2.90737
1.10993
0.00440987
-4.56632
1.66296
-0.00364899
-4.55239
1.66664
0.0129182
-4.57814
1.65545
-0.0109841
-4.53868
1.67599
-0.0249395
-4.55896
1.6789
-4.57516
1.64285
0.00784656
-4.5182
-0.0559695
0.00114126
-4.51329
-0.0323985
0.0391413
-4.54348
-0.0726629
-0.0223363
-4.46075
-0.0164506
-0.103137
-4.45776
-0.0203994
-4.57745
-0.100848
-0.00428456
-0.820992
-3.69292
0.00274222
-0.838509
-3.68181
0.100798
-0.918966
-3.72257
-0.00280446
-0.705034
-3.65211
-0.234137
-0.595992
-3.63044
-1.05494
-3.75664
-0.00515598
2.71226
-3.5281
0.0187377
2.6875
-3.5499
0.11538
2.60495
-3.62056
0.0144674
2.80983
-3.41395
-0.232568
2.94473
-3.29369
2.45155
-3.73907
0.0129007
2.65381
0.0455566
0.0277978
2.64805
0.0245491
0.0307415
2.63787
-0.0358682
0.034848
2.65944
0.146281
-0.0183371
2.67803
0.319892
2.59425
-0.161031
0.00387321
2.64993
0.00473697
2.64719
-0.00450707
2.64712
0.00668348
2.64825
0.0381326
2.64658
2.63238
-7.92539e-06
-0.227714
0.453989
-1.09713e-05
-0.227726
0.454002
-1.05642e-05
-0.227729
0.454003
-8.38499e-06
-0.22773
0.454004
-3.4306e-06
-0.227733
0.454005
-0.227726
0.453993
-1.0512e-05
-0.476572
0.497534
-1.90924e-05
-0.476592
0.497549
-1.46269e-05
-0.476608
0.49755
-1.58328e-05
-0.476603
0.497552
-6.76342e-06
-0.476617
0.497553
-0.476602
0.497538
-1.0266e-05
-0.773138
0.596834
-4.30934e-05
-0.77314
0.596847
-2.05679e-05
-0.773212
0.596839
-3.52901e-05
-0.773166
0.596848
-8.03415e-07
-0.773226
0.596847
-0.773174
0.596806
8.7778e-07
-1.15815
0.7859
-0.000142212
-1.15801
0.785869
-5.19192e-05
-1.15834
0.785899
-0.000105382
-1.15812
0.785836
0.000159894
-1.1585
0.785851
-1.15801
0.785868
9.55456e-05
-1.70672
1.16376
-0.000530435
-1.7058
1.16339
-3.73366e-05
-1.70716
1.16411
-0.000651207
-1.70635
1.16301
0.000249527
-1.70852
1.16324
-1.70554
1.16448
0.000579865
-2.51595
1.9154
-0.000914105
-2.51272
1.91453
-0.00105195
-2.51445
1.91561
-0.00187238
-2.51633
1.91487
0.00204097
-2.52434
1.91633
-2.50866
1.91509
0.0018948
-3.48095
2.62607
-0.00204559
-3.47313
2.63098
-0.0201636
-3.46428
2.62339
0.000312088
-3.49592
2.63511
0.0377289
-3.51715
2.63429
-3.4439
2.61582
0.00587357
-4.40651
0.863708
-0.00332286
-4.3892
0.892871
-0.0612433
-4.36486
0.885846
0.00540157
-4.44144
0.862423
0.115544
-4.47504
0.827345
-4.32926
0.900051
0.00328445
-3.95578
-4.14693
0.0001244
-3.94409
-4.12376
-0.0326304
-3.94163
-4.11305
0.00628315
-3.9632
-4.16928
0.0717181
-3.9667
-4.20421
-3.93182
-4.08236
-0.0029711
-2.25555
-5.22536
0.000670758
-2.26405
-5.23359
-0.00689624
-2.3126
-5.24201
0.00968343
-2.18622
-5.20751
0.0261527
-2.09217
-5.18469
-2.38647
-5.25826
-0.00104408
0.160834
-2.36978
-0.0119675
0.154064
-2.38264
-0.0656394
0.128251
-2.42305
-0.013329
0.205826
-2.29808
0.138496
0.272218
-2.19633
0.0904012
-2.4994
-0.000479027
2.81124
-0.0117264
2.8125
-0.0353108
2.79895
-0.0108463
2.82961
0.0461921
2.86175
2.76897
-5.13058e-06
-0.18941
0.643404
-6.3931e-06
-0.189421
0.643424
-4.94019e-06
-0.189423
0.643425
-2.805e-06
-0.189423
0.643426
5.14712e-08
-0.189423
0.643427
-0.189415
0.643408
-7.71067e-06
-0.38894
0.697071
-1.16329e-05
-0.38896
0.697092
-5.86643e-06
-0.388971
0.697093
-4.817e-06
-0.388966
0.697094
9.8454e-07
-0.388971
0.697094
-0.38895
0.697072
-7.72257e-06
-0.606979
0.81488
-2.48986e-05
-0.606996
0.814899
-8.13863e-06
-0.607047
0.814897
-6.64613e-06
-0.607018
0.814897
2.33073e-05
-0.607051
0.814895
-0.60698
0.814859
-1.22261e-05
-0.840553
1.01949
-7.72871e-05
-0.840551
1.01949
-3.34308e-05
-0.840691
1.0195
-1.0334e-05
-0.840691
1.01949
0.000186716
-0.840894
1.0195
-0.840355
1.01943
-6.92519e-05
-1.03974
1.36301
-0.000300145
-1.03979
1.36286
-0.000104845
-1.03994
1.36316
-0.000202499
-1.04045
1.36286
0.000543816
-1.0415
1.36311
-1.03843
1.3631
-6.13597e-05
-1.06746
1.94318
-0.000626768
-1.06728
1.94259
-0.00238976
-1.06576
1.9432
-0.000678148
-1.07074
1.94345
0.00457506
-1.07549
1.94505
-1.06102
1.94225
0.000916936
-0.882158
2.43986
-0.00186807
-0.875048
2.44154
-0.0183766
-0.863986
2.43812
0.00125643
-0.900996
2.44574
0.0330991
-0.921749
2.44871
-0.845065
2.43296
0.00345735
-1.67001
1.6481
-0.00380493
-1.63843
1.66352
-0.0424312
-1.60054
1.66102
0.00536347
-1.73589
1.64952
0.0772336
-1.80053
1.63426
-1.53373
1.66594
-0.00232845
-3.37836
-2.43625
0.00166888
-3.35576
-2.41043
0.00701366
-3.33131
-2.38762
-0.000459664
-3.42089
-2.4768
-0.0167951
-3.46382
-2.52458
-3.29046
-2.34242
-0.00396279
-3.76846
-4.83131
-0.0038343
-3.76024
-4.82924
-0.00354082
-3.75247
-4.82115
-0.0009805
-3.78699
-4.84397
0.00968248
-3.80183
-4.85734
-3.73362
-4.80543
-0.00231748
-2.38818
-3.74774
-0.00483697
-2.38959
-3.75077
-0.0260198
-2.39573
-3.75861
-0.00546707
-2.37203
-3.73358
0.0509785
-2.34037
-3.71423
-2.41042
-3.77162
-0.00348386
0.426551
-0.0132447
0.432672
-0.0138305
0.403812
-0.0112092
0.45496
-0.00539125
0.515569
0.353158
-1.93518e-06
-0.144811
0.788217
-2.00014e-06
-0.144819
0.788241
-4.98987e-07
-0.144819
0.788242
1.06558e-06
-0.144818
0.788242
2.07318e-06
-0.144817
0.788242
-0.144809
0.788217
-3.47335e-06
-0.28614
0.838403
-3.45021e-06
-0.286156
0.838429
7.73187e-07
-0.28616
0.838429
2.56097e-06
-0.286156
0.838429
5.67238e-06
-0.286156
0.838428
-0.286132
0.8384
-1.90331e-06
-0.413651
0.942392
-4.71865e-06
-0.413671
0.942418
4.75814e-06
-0.41369
0.942418
8.26066e-06
-0.413678
0.942415
2.69449e-05
-0.413695
0.942415
-0.413621
0.942377
-6.61154e-07
-0.498306
1.10414
-1.96028e-05
-0.498328
1.10416
-9.09235e-06
-0.498372
1.10417
1.23742e-05
-0.498378
1.10416
0.000118743
-0.49848
1.10418
-0.498179
1.10411
-4.23303e-05
-0.458913
1.32366
-0.000106297
-0.45906
1.32365
-0.00011708
-0.458938
1.32373
-5.91734e-05
-0.459284
1.32371
0.000398334
-0.459669
1.32384
-0.458333
1.32365
-0.000270823
-0.111083
1.59563
-0.000213673
-0.112034
1.5955
-0.000847262
-0.110902
1.5958
-0.000252072
-0.112228
1.5958
0.00162748
-0.113038
1.59654
-0.109891
1.59543
-0.000648983
0.563757
1.76567
-0.000192499
0.562978
1.76607
-0.00389722
0.565276
1.76565
0.000459356
0.562195
1.76696
0.00604831
0.561199
1.76888
0.564864
1.76426
-0.00187671
0.748941
1.4648
-0.000276047
0.75544
1.46945
-0.00271224
0.761273
1.46746
0.00521087
0.737381
1.46641
0.00396111
0.73301
1.46369
0.767029
1.46774
-0.00761752
-1.16183
-0.517864
0.00564342
-1.16245
-0.505794
0.0347632
-1.15685
-0.498616
0.0017187
-1.17366
-0.532711
-0.0638986
-1.17825
-0.547713
-1.14958
-0.489712
-0.00366891
-3.25323
-2.73624
-0.00157529
-3.25604
-2.73774
0.00704369
-3.25305
-2.73357
-0.00374141
-3.26376
-2.74309
-0.0126107
-3.27527
-2.75145
-3.23213
-2.73548
-0.00185712
-3.03907
-3.96005
-0.00481256
-3.04109
-3.96277
-0.0191455
-3.03667
-3.96066
-0.00769087
-3.04646
-3.96234
0.0311382
-3.05949
-3.96884
-3.01479
-3.95783
-0.00490203
-2.60761
-0.00371587
-2.6096
-0.0262752
-2.6103
-0.0128253
-2.60495
0.0406679
-2.59741
-2.62096
4.72705e-05
-1.43734
-0.0538214
1.7869e-05
-1.43753
-0.0538562
4.27104e-06
-1.43749
-0.0538513
-1.11906e-05
-1.43749
-0.0538516
-4.76174e-05
-1.43753
-0.0538572
-1.43733
-0.0538193
4.14014e-05
-1.32023
-0.117146
1.44982e-05
-1.32036
-0.117147
1.27362e-06
-1.32034
-0.117147
-1.2709e-05
-1.32034
-0.117147
-4.14119e-05
-1.32036
-0.117145
-1.32023
-0.117145
2.74879e-05
-0.0230582
9.51028e-06
-0.0230577
6.22077e-07
-0.0230584
-8.39123e-06
-0.0230588
-2.75157e-05
-0.0230586
-0.0230602
2.67815e-05
-1.47279
-0.208788
7.66881e-06
-1.47297
-0.208863
-3.63708e-06
-1.47294
-0.208848
-1.47728e-05
-1.47294
-0.208848
-3.51726e-05
-1.47298
-0.208861
-1.47279
-0.20878
3.58632e-05
-1.267
-0.322979
9.96902e-06
-1.26712
-0.322977
-3.82229e-06
-1.2671
-0.322976
-1.75513e-05
-1.2671
-0.322974
-4.30093e-05
-1.26713
-0.322973
-1.26701
-0.32297
2.29572e-05
-0.0582864
6.73659e-06
-0.0582826
-8.42984e-07
-0.0582833
-8.45311e-06
-0.0582835
-2.77551e-05
-0.0582827
-0.0582863
-1.17643e-06
-1.4451
-0.640707
4.41436e-07
-1.44525
-0.640802
-5.27286e-06
-1.44523
-0.640773
-1.51272e-05
-1.44523
-0.640768
-1.96773e-05
-1.44526
-0.640783
-1.4451
-0.640702
2.4644e-05
-1.10914
-0.658956
1.59063e-06
-1.10925
-0.658951
-1.10163e-05
-1.10924
-0.658948
-2.05496e-05
-1.10924
-0.658947
-3.90927e-05
-1.10927
-0.658947
-1.10916
-0.658941
1.99028e-05
-0.138267
4.50573e-06
-0.138254
-2.93623e-06
-0.138255
-9.72917e-06
-0.138255
-2.6896e-05
-0.138253
-0.138264
-4.7852e-05
-1.30353
-1.75739
9.88865e-06
-1.30366
-1.75766
1.03124e-06
-1.30365
-1.75756
-1.9524e-05
-1.30364
-1.75756
-1.46855e-05
-1.30366
-1.75761
-1.30352
-1.7575
5.17747e-06
-0.757108
-1.20538
-8.38802e-07
-0.757202
-1.2054
-1.04613e-05
-0.757198
-1.20539
-1.63841e-05
-0.757198
-1.20538
-2.63778e-05
-0.757213
-1.20538
-0.757108
-1.20537
1.71605e-05
-0.30578
2.72698e-06
-0.305756
-5.96469e-06
-0.30576
-1.26778e-05
-0.305758
-2.48515e-05
-0.305754
-0.305774
-0.000105012
-0.37204
-2.41822
2.75639e-05
-0.372334
-2.41888
1.68054e-05
-0.372294
-2.41864
1.45633e-05
-0.372297
-2.41867
8.43572e-05
-0.372343
-2.41881
-0.372196
-2.41856
6.40935e-06
0.141716
-1.71914
5.23156e-05
0.141599
-1.71938
4.24672e-05
0.141604
-1.71928
3.25368e-05
0.141607
-1.71927
2.02712e-05
0.14159
-1.7193
0.141708
-1.71926
2.87064e-05
-0.511477
9.52741e-06
-0.511465
-2.17335e-06
-0.511473
-1.15021e-05
-0.511469
-3.0553e-05
-0.511463
-0.511488
0.000199841
1.89932
-1.27067
1.17016e-05
1.89854
-1.27107
-3.5276e-05
1.8987
-1.27096
-2.58088e-06
1.89862
-1.27105
2.5279e-05
1.89844
-1.27119
1.89868
-1.27104
0.000171992
1.4247
-1.24469
0.000170903
1.42442
-1.24526
0.000145269
1.42449
-1.24505
0.000117945
1.42447
-1.24509
4.15692e-05
1.42441
-1.24519
1.42453
-1.24507
4.74248e-05
-0.392132
2.85191e-05
-0.392269
2.22578e-05
-0.392231
2.31414e-05
-0.392253
-9.81875e-06
-0.39226
-0.392263
0.00043531
4.69755
-0.225642
0.000179101
4.69766
-0.224806
0.000149346
4.69747
-0.225284
0.000102927
4.69728
-0.22539
-6.45244e-05
4.6972
-0.225315
4.69739
-0.225767
0.000423711
2.82382
0.628608
0.000269744
2.82364
0.628912
0.00019272
2.82379
0.628708
6.68632e-05
2.82374
0.628563
-0.000184549
2.82367
0.628588
2.82389
0.628241
0.000176069
0.737167
2.61957e-05
0.737382
-8.98693e-07
0.737261
2.20585e-05
0.737117
-6.12133e-05
0.737182
0.737096
-0.000658298
5.6425
-1.00917
1.32948e-06
5.64573
-1.00892
3.43666e-05
5.64441
-1.00921
-5.63394e-05
5.64401
-1.00918
0.000121848
5.64456
-1.00901
5.64402
-1.01019
-0.00130752
4.75411
1.51831
0.000145476
4.75626
1.51693
0.0001518
4.75559
1.51752
-0.000171495
4.75541
1.51749
0.000102217
4.75571
1.51716
4.7558
1.51656
-0.000958792
1.99538
-5.94168e-06
1.99449
2.2597e-05
1.99488
-0.000280735
1.99487
-0.000108416
1.99459
1.99458
-1.16516e-05
1.75525
-3.1664
-3.75112e-05
1.75499
-3.16704
9.67651e-05
1.75484
-3.16746
-0.00029533
1.75522
-3.16638
-0.00147475
1.75502
-3.16531
1.75481
-3.16923
0.00105565
2.98373
0.288778
-0.000121417
2.98626
0.28684
-0.000264263
2.98516
0.287347
-0.000146811
2.98507
0.287515
-0.000702444
2.98535
0.287393
2.98464
0.28602
0.000756009
1.99491
7.17267e-05
1.9933
-3.19194e-05
1.99385
-4.35667e-05
1.99407
-0.000363583
1.99366
1.99324
-0.00215247
-1.23954
-3.42359
0.00012047
-1.24539
-3.42351
0.00123798
-1.24349
-3.42439
0.000445371
-1.24244
-3.42224
-0.000900093
-1.24337
-3.41992
-1.24216
-3.427
0.00265334
-0.114366
-0.839052
-0.000376473
-0.117487
-0.83803
-0.000261513
-0.117067
-0.839188
-8.21295e-05
-0.116301
-0.838802
-0.00158896
-0.11655
-0.837922
-0.116828
-0.840897
0.00116873
1.75024
-0.000595529
1.74761
-0.00105246
1.74836
-0.000300639
1.74831
0.00221559
1.74596
1.75057
-0.00124561
-2.44464
-2.42764
3.03632e-05
-2.44909
-2.42694
-0.000416448
-2.447
-2.4277
7.88833e-05
-2.44694
-2.42636
0.00194472
-2.44847
-2.42433
-2.44525
-2.42999
0.000801471
-1.71588
-1.56862
0.000773317
-1.71987
-1.56723
0.00100207
-1.71807
-1.56835
0.000682413
-1.71814
-1.56728
0.00079597
-1.72087
-1.56563
-1.71478
-1.57056
0.00122978
0.730863
-5.59136e-06
0.728039
-0.000532476
0.729162
0.000328105
0.728427
0.00229322
0.725089
0.732736
-0.00090152
-3.25898
-1.01473
-0.00016971
-3.26083
-1.01426
-0.000816729
-3.25952
-1.01469
-0.000171249
-3.2606
-1.01363
0.00241408
-3.26232
-1.01185
-3.25797
-1.01656
-0.000687234
-3.76665
-1.06027
0.000418099
-3.77024
-1.05892
0.00154359
-3.76839
-1.06061
0.000421258
-3.76961
-1.05716
-0.00245868
-3.77292
-1.05216
-3.76455
-1.06644
0.000983414
-0.219052
0.00020878
-0.219651
0.00038533
-0.219508
7.88205e-05
-0.2201
-0.00155794
-0.221875
-0.217501
-0.00080283
-0.871023
-1.78625
2.65807
-0.000564247
-0.878217
-1.78569
2.66367
-0.000769989
-0.876508
-1.78498
2.6617
1.95884e-06
-0.871474
-1.78649
2.6572
0.00302575
-0.872196
-1.78656
2.65573
-0.876845
-1.78332
2.66319
0.00192933
-0.974044
-1.77727
1.87836
0.000768016
-0.992152
-1.77077
1.88587
-0.00411912
-0.990259
-1.77245
1.89109
0.00412443
-0.974863
-1.78067
1.87581
0.034637
-0.979508
-1.78067
1.85747
-0.993064
-1.78119
1.93205
-0.00329797
-0.267798
0.574343
0.00233054
-0.260464
0.557509
0.0135553
-0.260667
0.553729
0.00206751
-0.274561
0.590484
-0.0199209
-0.281026
0.610257
-0.259411
0.547133
-0.000329429
-0.511635
-1.27428
-0.000383946
-0.511384
-1.27426
-0.000926035
-0.510151
-1.27429
3.55115e-05
-0.513799
-1.27366
0.00230619
-0.516489
-1.27234
-0.505584
-1.27543
-0.00228937
-0.677592
-1.60902
0.00149643
-0.674071
-1.61187
0.00454668
-0.671681
-1.61397
0.00258018
-0.683709
-1.60879
0.00496647
-0.691044
-1.6085
-0.662588
-1.61922
-0.00196437
-0.0573798
0.00317982
-0.0570644
0.00948991
-0.057951
0.00269633
-0.060107
-0.00971294
-0.0614342
-0.0597035
-0.000154105
-0.364093
-0.910034
-0.000176063
-0.364309
-0.909924
-0.000252156
-0.364135
-0.910078
-1.17899e-06
-0.364463
-0.909446
0.00083266
-0.364557
-0.908619
-0.363936
-0.910658
-0.000715013
-0.328558
-1.64384
-0.00179774
-0.330845
-1.64425
-0.00652801
-0.329364
-1.64401
-9.58164e-05
-0.333534
-1.64615
0.0159615
-0.339301
-1.64981
-0.326262
-1.64093
0.000345853
-0.159634
0.00091519
-0.158244
0.000288086
-0.158859
0.00120701
-0.161266
0.00270883
-0.161813
-0.158496
-4.90747e-06
-0.366802
-0.543228
-0.000103693
-0.36668
-0.543145
0.000194148
-0.367163
-0.543213
-5.23798e-05
-0.366373
-0.542827
-0.000741037
-0.365622
-0.542309
-0.367872
-0.543527
-0.00194807
-1.19187
-0.816827
-0.00117557
-1.19381
-0.817893
-0.00645093
-1.18912
-0.816781
-0.000672228
-1.2
-0.818304
0.0186634
-1.21347
-0.821305
-1.17659
-0.813555
-0.00128209
0.0153584
-5.80048e-05
0.0152538
-0.00106872
0.01489
-0.000355431
0.0153214
0.00530869
0.0154239
0.0147035
5.72165e-05
-0.439131
-0.104154
-2.01037e-05
-0.438705
-0.104363
0.000711561
-0.439804
-0.104141
4.32649e-05
-0.437664
-0.104494
-0.00257983
-0.43431
-0.105375
-0.442905
-0.103201
-0.00203026
-1.85854
0.60461
-0.00097288
-1.86122
0.603562
-0.00495779
-1.8579
0.605297
-0.000404871
-1.8634
0.602877
0.0170499
-1.87236
0.599294
-1.84841
0.609001
-0.000977898
0.311092
-0.000383876
0.311407
-0.00263564
0.311329
-0.000459625
0.311806
0.00901013
0.312931
0.309887
-0.000281934
-1.1186
-9.00428e-05
-1.11881
-0.00020886
-1.11872
2.93715e-05
-1.11836
0.00043379
-1.11763
-1.11932
-0.0012315
-1.57303
-0.000942759
-1.57446
-0.00150584
-1.57346
0.000510521
-1.57466
0.00484868
-1.57484
-1.57192
-0.000560153
-0.000245081
-0.00119472
-0.000233183
0.00438982
-1.96554e-07
0.875297
-0.0870806
-4.54425e-07
0.875325
-0.0870857
3.44621e-07
0.875325
-0.0870857
9.08815e-07
0.875325
-0.0870851
8.45078e-07
0.875325
-0.0870845
0.875296
-0.0870788
-9.94389e-08
0.926923
-0.0516271
-5.23498e-07
0.926955
-0.0516305
-4.43893e-07
0.926955
-0.0516301
-3.49264e-07
0.926955
-0.0516299
-4.5459e-07
0.926954
-0.0516295
0.926923
-0.0516258
-4.68322e-07
-0.0184208
-7.66595e-07
-0.018422
-1.00028e-06
-0.0184218
-1.01593e-06
-0.0184216
-7.04706e-07
-0.0184213
-0.0184197
-1.07288e-06
0.915959
-0.164637
2.86612e-08
0.915989
-0.164647
1.69485e-06
0.915989
-0.164647
2.15396e-06
0.915989
-0.164646
2.53169e-06
0.915988
-0.164645
0.915957
-0.164631
-5.35923e-07
0.960424
-0.0960927
4.93924e-07
0.960458
-0.0960995
5.70554e-07
0.960458
-0.0960983
4.70986e-07
0.960458
-0.096098
4.60332e-07
0.960457
-0.0960969
0.960424
-0.0960896
-1.3925e-08
-0.0344443
-8.04865e-08
-0.034447
-4.36662e-07
-0.0344463
-4.95898e-07
-0.0344459
-1.22099e-07
-0.0344452
-0.0344422
9.26453e-07
0.995382
-0.217627
3.24007e-06
0.995414
-0.217643
6.46956e-06
0.995414
-0.217645
6.99569e-06
0.995413
-0.217642
1.11808e-05
0.995413
-0.217645
0.995376
-0.217616
1.63909e-06
1.02228
-0.122995
4.54002e-06
1.02232
-0.123007
4.08664e-06
1.02232
-0.123002
4.45392e-06
1.02232
-0.123004
3.24303e-06
1.02232
-0.122999
1.02228
-0.12299
1.4613e-06
-0.0446127
2.3594e-06
-0.0446176
1.57435e-06
-0.0446152
1.67753e-06
-0.0446151
8.20275e-07
-0.0446121
-0.0446084
4.79192e-06
1.10514
-0.218626
7.12053e-06
1.10517
-0.218652
7.61232e-06
1.10517
-0.218647
1.27732e-05
1.10517
-0.21865
3.75915e-05
1.10517
-0.218664
1.10513
-0.218594
5.84264e-06
1.10003
-0.117888
1.29509e-05
1.10007
-0.11791
8.9675e-06
1.10007
-0.11789
1.24784e-05
1.10007
-0.117902
9.86131e-06
1.10006
-0.117883
1.10002
-0.117873
3.6386e-06
-0.0437553
7.92067e-06
-0.043764
5.9481e-06
-0.0437543
7.39764e-06
-0.043756
2.41579e-06
-0.0437437
-0.0437417
-6.39744e-06
1.22277
-0.117726
-1.71214e-06
1.2228
-0.117806
-2.58894e-05
1.22282
-0.117705
2.13327e-06
1.22283
-0.117791
0.000113418
1.22286
-0.11779
1.22278
-0.117606
1.16033e-05
1.16647
-0.0615972
2.56387e-05
1.16652
-0.0616395
1.24184e-05
1.16651
-0.0615663
2.23602e-05
1.16652
-0.0616015
4.28567e-05
1.16651
-0.0615539
1.16646
-0.0615095
8.64881e-06
-0.031482
1.78538e-05
-0.0314942
1.55811e-05
-0.0314698
1.67437e-05
-0.0314644
1.91839e-05
-0.0314485
-0.0314194
-8.89265e-05
1.32088
0.157109
1.95443e-05
1.32092
0.156669
-9.69974e-05
1.32098
0.157227
-6.01006e-06
1.32098
0.156937
0.000132856
1.32117
0.157444
1.32088
0.157082
1.38323e-06
1.18759
0.0716935
8.80829e-05
1.18767
0.0715189
6.09059e-06
1.18763
0.0718702
6.9255e-05
1.18769
0.0716314
3.83337e-05
1.18765
0.0720023
1.1876
0.0718078
2.01151e-05
0.0268543
6.37965e-05
0.0268215
4.40068e-05
0.0269232
6.54193e-05
0.0269072
1.24395e-05
0.0270268
0.0270057
-0.000376724
1.31921
0.603944
0.000737458
1.3194
0.602224
0.000911338
1.31945
0.603248
0.000363313
1.31928
0.60516
-0.00155344
1.32004
0.608206
1.31908
0.600703
3.91185e-05
1.15224
0.238621
0.000708339
1.15246
0.23779
0.000878102
1.15235
0.238808
0.000387463
1.15217
0.239234
-0.000600583
1.15235
0.240676
1.15201
0.238277
7.10888e-05
0.0423802
0.000306661
0.0422246
0.000385529
0.0425227
0.000234035
0.0426523
0.000222658
0.0428323
0.0428997
-0.000203583
1.25055
0.818391
0.00154917
1.25171
0.818217
-9.40542e-05
1.25055
0.821802
0.00248801
1.25119
0.817792
-0.00301043
1.25244
0.82496
1.24923
0.816201
0.000512358
0.856627
0.632034
0.00160196
0.85734
0.631067
0.00151639
0.856619
0.632825
0.00118333
0.85675
0.634011
-0.0059316
0.857377
0.64285
0.856103
0.625474
0.000263163
0.279325
0.000751118
0.279033
0.00113909
0.279423
0.000555529
0.280571
-0.00169365
0.283409
0.277975
-0.00514574
0.544281
-0.238609
0.00681091
0.547277
-0.246809
0.0238572
0.547851
-0.241711
0.00749746
0.541173
-0.239734
-0.0298565
0.542453
-0.22785
0.544306
-0.247673
0.000544309
0.792073
0.383699
0.00591589
0.792169
0.380801
0.00974924
0.789849
0.386993
0.00496605
0.79169
0.388277
-0.0103178
0.793397
0.407191
0.784911
0.374553
0.000237828
0.236723
0.00225568
0.234699
0.00470478
0.23452
0.00153956
0.240553
-0.00330675
0.245147
0.231627
-0.00701104
-1.22778
-1.74006
0.0057621
-1.2353
-1.76202
0.0282504
-1.23752
-1.76024
0.00364688
-1.222
-1.73621
-0.0326163
-1.21106
-1.73197
-1.26213
-1.75363
-0.000735834
-1.42096
0.577616
-0.000588221
-1.42944
0.574794
0.00721831
-1.43191
0.573578
0.00252928
-1.40987
0.58084
-0.00713046
-1.39203
0.597829
-1.45654
0.561834
0.00434304
0.41334
-0.000767579
0.41572
-0.0104101
0.417127
0.00396481
0.415488
0.036898
0.416167
0.420571
-0.00164305
-1.63879
-4.05967
0.00366894
-1.64479
-4.08532
0.011906
-1.64619
-4.08295
-0.00414547
-1.6336
-4.0489
-0.013967
-1.64607
-4.04493
-1.65081
-4.07462
-0.0183668
-1.42899
0.386184
0.00171311
-1.43776
0.347691
0.0322023
-1.43919
0.336092
-0.0124357
-1.42189
0.413771
-0.0945683
-1.44194
0.475841
-1.43591
0.252366
0.00162767
0.695201
-0.00661106
0.707443
-0.0201782
0.715242
-0.0033318
0.684075
0.0182098
0.670063
0.725149
0.00267793
-4.01189
-0.000426492
-4.02814
0.000379161
-4.03236
0.00339831
-3.99968
0.00396513
-3.98718
-4.02843
0.0375532
-1.7849
0.0321345
-1.78916