/*--------------------------------*- C++ -*----------------------------------*\
| =========                 |                                                 |
| \\      /  F ield         | OpenFOAM: The Open Source CFD Toolbox           |
|  \\    /   O peration     | Version:  v1612+                                |
|   \\  /    A nd           | Web:      www.OpenFOAM.com                      |
|    \\/     M anipulation  |                                                 |
\*---------------------------------------------------------------------------*/
FoamFile
{
    version     2.0;
    format      ascii;
    class       volVectorField;
    location    "4.3";
    object      U;
}
// * * * * * * * * * * * * * * * * * * * * * * * * * * * * * * * * * * * * * //

dimensions      [0 1 -1 0 0 0 0];

internalField   nonuniform List<vector> 
1116
(
(0.201523 3.38686e-07 -0.218581)
(0.201522 3.76183e-06 -0.21859)
(0.201523 -4.79464e-06 -0.218578)
(0.201524 -4.79157e-06 -0.218576)
(0.201522 1.0442e-05 -0.218588)
(0.201523 1.16704e-05 -0.218574)
(0.623594 5.14491e-06 -0.346936)
(0.623604 4.50278e-06 -0.346953)
(0.623599 -4.07761e-06 -0.346934)
(0.623602 -1.9107e-06 -0.34693)
(0.623603 1.34124e-05 -0.346948)
(0.623594 9.50459e-06 -0.346935)
(0.947779 8.12902e-06 -0.319262)
(0.947806 3.47004e-06 -0.319283)
(0.947796 -2.74953e-06 -0.319265)
(0.947801 8.30786e-07 -0.319259)
(0.947804 1.05882e-05 -0.319278)
(0.947781 3.84728e-06 -0.319268)
(1.1983 9.06258e-06 -0.232239)
(1.19835 3.26541e-06 -0.232264)
(1.19833 -1.39769e-06 -0.232247)
(1.19834 2.57891e-06 -0.232243)
(1.19834 4.50801e-06 -0.232261)
(1.19831 -2.04446e-06 -0.23225)
(1.36641 7.6647e-06 -0.147327)
(1.36648 2.09014e-06 -0.147353)
(1.36646 -1.24069e-06 -0.147339)
(1.36646 2.1275e-06 -0.147337)
(1.36647 -2.0238e-06 -0.147353)
(1.36642 -6.09626e-06 -0.147339)
(1.24737 5.53701e-06 -0.0528443)
(1.24743 3.10252e-06 -0.0528643)
(1.24741 -1.34506e-06 -0.0528536)
(1.24741 9.59673e-07 -0.0528523)
(1.24742 -5.05338e-06 -0.0528645)
(1.24736 -6.00412e-06 -0.05285)
(0.629456 -7.52665e-06 0.152561)
(0.629537 -3.07e-07 0.152557)
(0.629518 -4.23532e-07 0.152562)
(0.629519 -4.25797e-06 0.152564)
(0.629534 -8.85284e-06 0.152558)
(0.629459 -3.89536e-06 0.152567)
(-0.360297 8.65624e-07 0.533556)
(-0.360221 1.158e-05 0.533581)
(-0.360223 -5.20233e-06 0.533566)
(-0.360222 -5.15017e-06 0.533566)
(-0.360206 -2.36292e-05 0.533566)
(-0.360303 -1.44769e-05 0.533571)
(-1.69118 7.9557e-06 0.595702)
(-1.69116 1.76543e-05 0.595756)
(-1.69111 -2.1675e-06 0.595738)
(-1.69111 1.21719e-05 0.595743)
(-1.6911 -2.29515e-05 0.595761)
(-1.69124 -2.31431e-05 0.595708)
(-2.80278 5.88287e-05 -0.135582)
(-2.8028 4.80081e-05 -0.135522)
(-2.80272 -5.46821e-06 -0.13552)
(-2.80272 3.09697e-05 -0.135516)
(-2.80272 -3.56072e-05 -0.13549)
(-2.80286 -4.54703e-05 -0.13563)
(-2.48802 8.30742e-05 -1.08852)
(-2.48807 5.45335e-05 -1.08848)
(-2.48801 -1.23248e-05 -1.08848)
(-2.48802 2.30854e-05 -1.08848)
(-2.48802 -5.01828e-05 -1.08847)
(-2.48806 -5.05715e-05 -1.08857)
(-1.05692 1.55099e-05 -1.19168)
(-1.05675 -6.57334e-06 -1.19165)
(-1.05679 -2.07279e-05 -1.19167)
(-1.05679 -1.22025e-05 -1.19167)
(-1.05673 -1.11335e-05 -1.19166)
(-1.0569 4.30706e-06 -1.1917)
(1.68935 -4.6222e-05 -1.09375)
(1.68937 -4.75676e-05 -1.09375)
(1.68936 9.5695e-06 -1.09374)
(1.68937 3.66748e-05 -1.0938)
(1.68939 8.36945e-05 -1.09381)
(1.68934 5.60284e-05 -1.09368)
(4.98234 -3.66994e-05 -0.835291)
(4.98238 -2.74893e-05 -0.835293)
(4.98238 4.04431e-05 -0.835294)
(4.98239 5.65621e-05 -0.835356)
(4.98244 0.000139313 -0.83536)
(4.98242 8.2128e-05 -0.835201)
(9.27602 -4.62313e-05 -0.6815)
(9.27611 -3.36609e-05 -0.681493)
(9.27612 4.63073e-05 -0.681511)
(9.27611 4.56164e-05 -0.681552)
(9.27617 0.000159581 -0.681533)
(9.27619 0.000108027 -0.681419)
(11.6997 -4.73463e-05 -0.456542)
(11.6997 -3.46104e-05 -0.456534)
(11.6997 4.57848e-05 -0.456552)
(11.6997 1.13161e-05 -0.456561)
(11.6997 0.000119769 -0.456533)
(11.7 9.22082e-05 -0.456477)
(18.1292 2.58749e-05 0.839373)
(18.1293 -9.22574e-06 0.839407)
(18.1293 2.39639e-05 0.83939)
(18.1293 -1.39354e-05 0.839392)
(18.1294 -6.85193e-05 0.839417)
(18.1291 -9.16804e-05 0.839404)
(7.89187 3.36967e-05 0.945506)
(7.8919 2.26699e-05 0.945533)
(7.8919 1.9078e-05 0.945517)
(7.89186 9.25501e-06 0.945514)
(7.89193 -5.63302e-05 0.945519)
(7.89168 -7.16886e-05 0.945507)
(2.94246 -1.02803e-05 1.28658)
(2.94297 -2.02995e-05 1.28656)
(2.94279 -1.22271e-05 1.28656)
(2.94278 -2.50625e-05 1.28656)
(2.94294 -6.84678e-05 1.28656)
(2.94249 -5.45797e-05 1.28655)
(0.587771 9.40627e-05 1.54541)
(0.587948 3.45456e-05 1.54546)
(0.587902 -6.01636e-05 1.54543)
(0.587903 -4.70093e-06 1.54543)
(0.587966 -5.9599e-05 1.54544)
(0.587755 -8.10885e-05 1.54539)
(-0.648833 0.000108954 1.44458)
(-0.648732 5.99601e-05 1.44463)
(-0.648727 -3.28871e-05 1.44462)
(-0.648711 4.07591e-05 1.44463)
(-0.648666 -4.12937e-05 1.44466)
(-0.648845 -6.94516e-05 1.44456)
(-1.26554 0.000119979 0.591752)
(-1.26562 6.71296e-05 0.59201)
(-1.26553 -1.91544e-05 0.591937)
(-1.26552 5.54385e-05 0.591944)
(-1.26551 -2.3695e-05 0.592016)
(-1.2656 -4.00712e-05 0.591783)
(-1.24412 0.000249138 -1.00189)
(-1.24396 0.000143108 -1.00148)
(-1.24392 -6.85709e-05 -1.00157)
(-1.24393 5.80059e-05 -1.00155)
(-1.24388 -5.96952e-05 -1.00147)
(-1.24409 -7.97483e-05 -1.00183)
(-1.08232 -6.09367e-05 -2.12274)
(-1.08187 -5.85847e-05 -2.12258)
(-1.08194 6.35006e-06 -2.12262)
(-1.08201 -2.27607e-05 -2.12265)
(-1.08198 3.74576e-05 -2.12261)
(-1.08217 6.34684e-05 -2.12273)
(-0.497136 -2.86639e-05 -4.44387)
(-0.497069 -2.52548e-05 -4.4443)
(-0.497118 8.68642e-06 -4.44425)
(-0.49708 3.75976e-05 -4.44425)
(-0.497024 1.32653e-05 -4.4443)
(-0.497171 2.87154e-05 -4.44386)
(-1.37752 -1.92612e-05 -5.27641)
(-1.37729 -1.00437e-05 -5.27682)
(-1.37735 -5.83658e-06 -5.27677)
(-1.37732 9.79521e-06 -5.27675)
(-1.37723 9.16579e-06 -5.27679)
(-1.37746 3.52806e-05 -5.27635)
(-1.41932 -8.56582e-05 -6.84757)
(-1.41904 -8.63743e-05 -6.84794)
(-1.41911 -4.25056e-05 -6.84789)
(-1.41912 -5.56457e-05 -6.84787)
(-1.41905 1.36841e-05 -6.8479)
(-1.41922 7.33364e-05 -6.84742)
(-2.50475 -0.000176494 -7.09761)
(-2.50485 -0.000190517 -7.09806)
(-2.50485 -8.04883e-05 -7.09799)
(-2.50489 -0.000155923 -7.09795)
(-2.50492 8.04562e-06 -7.09797)
(-2.50474 0.000101514 -7.09747)
(4.78903 -0.000131098 2.11987)
(4.78883 -0.000248555 2.1198)
(4.78883 -0.000129284 2.11978)
(4.78885 -0.000248113 2.11997)
(4.78883 -0.000125571 2.12005)
(4.789 -5.37649e-05 2.11982)
(7.31132 0.000212739 9.51164)
(7.31146 6.60404e-06 9.51164)
(7.31137 -0.000249105 9.51174)
(7.3113 -0.000205768 9.51183)
(7.31147 -0.000249611 9.51196)
(7.31108 -0.000235363 9.51152)
(4.69426 0.000486134 8.14332)
(4.69831 0.000143966 8.14276)
(4.69617 -0.000346532 8.14289)
(4.69597 -8.8729e-05 8.14299)
(4.69704 -0.000239527 8.14299)
(4.69528 -0.000251087 8.14247)
(-1.76581 0.000554379 3.92267)
(-1.76289 0.000287152 3.92415)
(-1.76437 -0.000230291 3.92339)
(-1.76442 8.43323e-05 3.92337)
(-1.76369 -0.000173041 3.92373)
(-1.76484 -0.000267755 3.92289)
(-1.00447 0.000548377 1.99275)
(-1.003 0.000282872 1.99363)
(-1.00367 -0.000213027 1.9932)
(-1.00372 0.000136098 1.99322)
(-1.00335 -0.000149749 1.99344)
(-1.00402 -0.000264703 1.99295)
(-0.866957 0.00067239 0.45164)
(-0.865486 0.000358215 0.452225)
(-0.866142 -0.000278777 0.451935)
(-0.866206 0.000177181 0.45206)
(-0.865838 -0.000152514 0.452184)
(-0.8665 -0.000321455 0.451783)
(-0.569873 0.000472787 -1.3814)
(-0.568285 0.000254813 -1.38078)
(-0.568862 -0.000201695 -1.381)
(-0.569084 0.000100991 -1.38103)
(-0.568767 -7.19972e-05 -1.38092)
(-0.569257 -0.000170446 -1.38122)
(-1.00962 -0.000374137 -2.46114)
(-1.00912 -0.000205167 -2.4611)
(-1.00917 0.000157585 -2.46106)
(-1.00941 -8.78084e-06 -2.46113)
(-1.00966 8.97169e-05 -2.46118)
(-1.00908 7.80032e-05 -2.46106)
(0.0989361 3.49319e-05 -1.76997)
(0.0989837 2.72981e-05 -1.77064)
(0.0989868 -5.27068e-07 -1.77052)
(0.0989798 8.60281e-06 -1.77053)
(0.098983 -1.32486e-05 -1.77067)
(0.0989461 -2.79657e-05 -1.76996)
(0.0518578 4.19313e-05 -2.09041)
(0.05198 2.2612e-05 -2.09096)
(0.0519835 -1.53559e-05 -2.09086)
(0.0519768 -3.12301e-06 -2.09086)
(0.0519878 -3.21598e-05 -2.09098)
(0.051884 -4.75478e-05 -2.09038)
(-0.205737 -2.83308e-05 -3.30125)
(-0.205467 -4.11497e-05 -3.30152)
(-0.205505 -2.966e-05 -3.30148)
(-0.205517 -3.60677e-05 -3.30148)
(-0.205491 -3.18843e-06 -3.30154)
(-0.205735 6.65636e-06 -3.3012)
(-3.29281 -0.00013877 -5.38286)
(-3.29287 -0.000128023 -5.38326)
(-3.29282 -5.13175e-05 -5.38325)
(-3.29287 -0.000123001 -5.3833)
(-3.29294 -2.05103e-05 -5.38337)
(-3.29287 3.43475e-05 -5.38297)
(-4.75706 -0.000243182 -2.4159)
(-4.75772 -0.000308953 -2.41658)
(-4.75757 -0.000173744 -2.41658)
(-4.75765 -0.000307235 -2.41661)
(-4.75787 -2.18268e-05 -2.41669)
(-4.75743 0.000105765 -2.41654)
(0.8228 0.000194447 8.07762)
(0.821716 -0.000253383 8.07623)
(0.821924 -0.000557402 8.0765)
(0.821801 -0.000405113 8.07647)
(0.82153 -0.000211137 8.07629)
(0.821837 -0.000108548 8.07602)
(1.29032 0.000703996 10.2924)
(1.2938 7.84229e-05 10.2939)
(1.29162 -0.000407594 10.2928)
(1.29132 0.00016216 10.2925)
(1.29206 -8.26649e-05 10.2927)
(1.29106 -0.000168495 10.2919)
(-5.96834 -0.000129291 7.0307)
(-5.96801 -0.000276936 7.0382)
(-5.96956 6.95759e-05 7.0347)
(-5.96881 0.000164106 7.0341)
(-5.96805 2.24049e-05 7.03624)
(-5.96925 5.03995e-05 7.03258)
(-5.95524 0.000272609 -0.419722)
(-5.95277 -9.79148e-06 -0.413679)
(-5.95377 4.29828e-05 -0.416457)
(-5.95456 0.000236817 -0.41688)
(-5.95354 -0.000105937 -0.41509)
(-5.9547 -3.19676e-05 -0.418055)
(-3.03629 -0.000406779 -0.688123)
(-3.03199 -0.000330184 -0.682913)
(-3.03389 0.000375922 -0.685282)
(-3.03458 9.1726e-05 -0.685728)
(-3.03305 0.000114071 -0.684005)
(-3.03525 0.000294896 -0.686838)
(-1.46944 -0.00177467 -1.57519)
(-1.46236 -0.00101883 -1.56961)
(-1.46549 0.000902036 -1.57202)
(-1.46606 -0.000306837 -1.57259)
(-1.46379 0.00046165 -1.57086)
(-1.46766 0.00088739 -1.57362)
(-1.45916 -0.00113848 -2.52424)
(-1.45807 -0.000551351 -2.52435)
(-1.45858 0.00034204 -2.52427)
(-1.45828 -0.00036914 -2.5242)
(-1.45768 0.000495019 -2.52425)
(-1.4592 0.000590888 -2.52412)
(0.222295 -4.22106e-06 0.225787)
(0.222305 -9.80373e-06 0.225793)
(0.222308 -1.20224e-05 0.225793)
(0.22231 -1.18054e-05 0.225794)
(0.222314 -8.70271e-06 0.225795)
(0.222309 -3.03399e-06 0.225789)
(0.687114 -7.76644e-06 0.248172)
(0.687143 -1.61435e-05 0.248181)
(0.687158 -2.07686e-05 0.248182)
(0.687166 -2.19017e-05 0.248183)
(0.687183 -1.90928e-05 0.248184)
(0.687165 -5.9032e-06 0.248177)
(1.22367 -9.48943e-06 0.300968)
(1.22369 -3.68499e-05 0.300976)
(1.22378 -4.94449e-05 0.300965)
(1.22374 -5.05669e-05 0.300983)
(1.22382 -4.20556e-05 0.300987)
(1.2238 -8.8066e-06 0.300939)
(1.89597 3.56205e-05 0.407127)
(1.89586 -8.87644e-05 0.407091)
(1.89623 -0.000113208 0.40709)
(1.89582 -0.000148531 0.407071)
(1.89623 -7.84503e-05 0.407084)
(1.89624 9.00051e-05 0.407087)
(2.75565 0.000372564 0.634953)
(2.75482 -0.000378625 0.63458)
(2.7561 4.46346e-05 0.635881)
(2.75521 -0.00027433 0.633261)
(2.7568 -0.000651392 0.632924)
(2.75498 0.000357566 0.637397)
(4.41079 0.00289074 1.18438)
(4.40456 -0.00236717 1.18333)
(4.41466 0.000890681 1.18744)
(4.40426 0.0030963 1.17927)
(4.41052 -0.00630861 1.17885)
(4.41237 -0.00366596 1.19126)
(7.79442 0.0137093 1.70035)
(7.77519 -0.00864103 1.70702)
(7.82126 0.00231216 1.67422)
(7.7422 0.023833 1.73737)
(7.76129 -0.0364511 1.75524)
(7.84133 -0.0336561 1.63731)
(9.55148 0.0212238 -1.04729)
(9.52842 -0.014467 -1.01136)
(9.6105 0.0152792 -1.15969)
(9.42876 0.0612737 -0.879826)
(9.45408 -0.104251 -0.809954)
(9.66497 -0.0997646 -1.30661)
(7.33737 0.00134764 -6.46024)
(7.31559 -0.0150005 -6.44216)
(7.418 0.0446537 -6.58776)
(7.20471 0.0893288 -6.29118)
(7.1548 -0.139839 -6.19845)
(7.50635 -0.136226 -6.73212)
(-0.340338 -0.00348386 -5.55636)
(-0.231289 -0.00493141 -5.6146)
(0.0951102 0.0622593 -5.82526)
(-0.838013 0.123314 -5.21578)
(-1.37763 -0.142711 -4.90006)
(0.704814 -0.144516 -6.17065)
(-8.59932 0.00877464 1.06847)
(-8.57521 0.0100065 1.03603)
(-8.50691 0.0224712 0.952255)
(-8.65679 0.0835092 1.19232)
(-8.77924 -0.0190729 1.29287)
(-8.32297 -0.069259 0.759072)
(-4.99332 0.00370482 3.68038)
(-4.98991 0.00409791 3.67815)
(-4.99431 -0.00349437 3.67369)
(-4.95211 0.00259726 3.68063)
(-4.92975 0.0229992 3.68047)
(-4.98037 0.016667 3.643)
(0.218582 -3.64735e-06 0.661834)
(0.218594 -1.02992e-05 0.661853)
(0.218597 -1.06291e-05 0.661854)
(0.218599 -9.66666e-06 0.661856)
(0.218602 -5.46508e-06 0.661859)
(0.218595 -2.43154e-06 0.661841)
(0.673187 -6.88444e-06 0.726586)
(0.67322 -1.57611e-05 0.726609)
(0.673236 -1.65273e-05 0.726611)
(0.673238 -1.51092e-05 0.726615)
(0.673251 -1.17957e-05 0.726617)
(0.673229 -3.78782e-06 0.726594)
(1.18802 -3.31242e-06 0.874002)
(1.18805 -2.67875e-05 0.874023)
(1.18813 -3.07423e-05 0.874002)
(1.18808 -2.79775e-05 0.874034)
(1.18815 -1.7916e-05 0.874038)
(1.18809 3.80789e-06 0.873942)
(1.81456 3.93755e-05 1.15737)
(1.81446 -7.53135e-05 1.15729)
(1.81477 -7.63493e-05 1.15734)
(1.8146 -0.000109905 1.15722)
(1.81492 2.3269e-05 1.15725)
(1.81451 0.000170254 1.15733)
(2.55922 0.000459588 1.76149)
(2.55882 -0.000444631 1.7607)
(2.55948 -0.000166236 1.76247)
(2.55965 -0.000129714 1.75931)
(2.56099 -0.00042486 1.75951)
(2.55768 0.000392834 1.76396)
(3.61392 0.00246097 3.06742)
(3.61174 -0.00139633 3.06617)
(3.61476 -0.00131256 3.06888)
(3.61427 -4.75523e-05 3.06452)
(3.62128 -0.000993968 3.06626)
(3.60787 0.00159919 3.06978)
(5.58973 0.00487655 4.06605)
(5.57626 0.00192967 4.07803)
(5.5801 -0.0116885 4.06117)
(5.59293 -0.0162709 4.08361)
(5.62032 0.0208314 4.07827)
(5.56413 0.0303447 4.04771)
(7.95172 0.00100526 0.00224727)
(7.91583 0.0153595 0.0586078)
(7.87247 -0.0300472 0.0526045)
(8.01294 -0.0620108 -0.0159336)
(8.08581 0.0761702 -0.100717)
(7.80648 0.101464 0.0950295)
(10.4938 -0.0024834 -9.56309)
(10.4559 0.0100197 -9.54991)
(10.4211 -0.010996 -9.55019)
(10.5557 -0.0381857 -9.56648)
(10.6179 0.0506685 -9.57224)
(10.3479 0.0665369 -9.54027)
(9.6851 -0.00434748 -9.5486)
(9.67806 -0.000984715 -9.57392)
(9.69469 0.00146253 -9.60511)
(9.66828 -0.0113134 -9.48693)
(9.63137 0.0238671 -9.39915)
(9.71723 0.0337926 -9.67149)
(2.60258 -0.00289007 -1.67795)
(2.65066 0.00145791 -1.72145)
(2.84178 -0.0352475 -1.85945)
(2.28544 -0.0778296 -1.43829)
(1.85679 0.0800257 -1.10782)
(3.14626 0.105265 -2.12781)
(-4.62872 -0.0015007 5.12643)
(-4.62671 0.00104678 5.12014)
(-4.63379 -0.0245524 5.1236)
(-4.61692 -0.0459 5.12258)
(-4.61395 0.0300607 5.12475)
(-4.64 0.0486021 5.10934)
(0.176688 -1.92958e-06 1.04696)
(0.176698 -6.33504e-06 1.04699)
(0.176701 -5.54728e-06 1.04699)
(0.176701 -4.1922e-06 1.04699)
(0.176702 -4.32688e-07 1.047)
(0.176694 -6.14938e-08 1.04697)
(0.53605 -4.78033e-06 1.14136)
(0.53608 -1.04817e-05 1.1414)
(0.536091 -8.30955e-06 1.1414)
(0.53609 -5.36775e-06 1.1414)
(0.536095 -1.40343e-06 1.1414)
(0.536065 1.52621e-06 1.14137)
(0.912142 -1.97643e-06 1.35299)
(0.912183 -1.8382e-05 1.35302)
(0.912233 -1.51051e-05 1.35301)
(0.912212 -9.35464e-06 1.35302)
(0.912245 7.76438e-06 1.35301)
(0.912153 1.90004e-05 1.35294)
(1.30287 1.68465e-05 1.7408)
(1.30288 -5.16404e-05 1.74078)
(1.30307 -5.15514e-05 1.74081)
(1.303 -5.19477e-05 1.74075)
(1.30318 7.93507e-05 1.74077)
(1.30277 0.000149237 1.74071)
(1.62569 0.000155485 2.46267)
(1.6258 -0.000316997 2.46214)
(1.62591 -0.000170403 2.46303)
(1.62647 -0.000125323 2.46195)
(1.62726 4.61879e-05 2.46257)
(1.62449 0.000453793 2.46315)
(1.59609 0.000847462 3.84634)
(1.59717 -0.000628908 3.84441)
(1.59622 -0.00145447 3.84611)
(1.59886 -0.00210542 3.84632)
(1.60215 0.00185278 3.8501)
(1.59161 0.00391244 3.84414)
(1.18497 0.00093153 5.38786)
(1.18183 0.00300541 5.39277)
(1.17861 -0.00938681 5.38394)
(1.19314 -0.0197249 5.40149)
(1.20805 0.0224101 5.40397)
(1.16651 0.0310495 5.37193)
(1.63578 -0.00146212 3.30765)
(1.60017 0.0119492 3.35412)
(1.5623 -0.0216832 3.3515)
(1.6993 -0.0518848 3.30082)
(1.77085 0.0596362 3.24311)
(1.4997 0.0786666 3.37859)
(5.78106 -0.00408399 -6.87973)
(5.68781 -0.00222674 -6.81212)
(5.58589 0.00764377 -6.75947)
(5.95605 0.00477628 -6.97295)
(6.13901 -0.010344 -7.09645)
(5.40529 -0.0107919 -6.63988)
(10.5032 -0.00393431 -9.94109)
(10.4787 -0.00462153 -9.9487)
(10.4493 0.00199812 -9.94963)
(10.564 -0.0138708 -9.93183)
(10.6196 0.00743335 -9.92014)
(10.3842 0.0251603 -9.94482)
(8.57763 -0.00309254 -6.07176)
(8.57586 -0.000823536 -6.08584)
(8.58141 -0.00930895 -6.12131)
(8.5714 -0.0384348 -6.01251)
(8.54966 0.0309472 -5.92857)
(8.58342 0.0540779 -6.1807)
(-0.639344 -0.00237401 5.54367)
(-0.633642 -0.0041214 5.55809)
(-0.584842 -0.0162235 5.48098)
(-0.72489 -0.0198598 5.62514)
(-0.869624 -0.00261425 5.79029)
(-0.476876 0.00258168 5.34299)
(0.129954 -2.51695e-07 1.33911)
(0.129962 -2.33789e-06 1.33915)
(0.129963 -1.12862e-06 1.33915)
(0.129962 6.55207e-08 1.33916)
(0.129962 2.04156e-06 1.33916)
(0.129954 6.64782e-07 1.33912)
(0.383504 -1.89175e-06 1.43841)
(0.383527 -3.8967e-06 1.43846)
(0.383531 -1.2115e-06 1.43846)
(0.383528 1.64714e-06 1.43846)
(0.383527 4.3082e-06 1.43846)
(0.383498 3.41388e-06 1.43841)
(0.610918 8.06772e-07 1.65032)
(0.610955 -5.4155e-06 1.65036)
(0.610971 2.20509e-07 1.65036)
(0.610959 5.04094e-06 1.65036)
(0.610968 1.73522e-05 1.65036)
(0.610887 1.84703e-05 1.65029)
(0.766961 1.18953e-05 2.00283)
(0.767003 -1.42365e-05 2.00286)
(0.767059 -1.28081e-05 2.00287)
(0.767034 -1.8944e-05 2.00286)
(0.767116 6.24837e-05 2.00288)
(0.766846 9.43892e-05 2.00275)
(0.753534 3.67332e-05 2.54372)
(0.753638 -0.000100471 2.54363)
(0.753649 -0.000108403 2.54389)
(0.753784 -0.000170938 2.54375)
(0.754123 0.000157973 2.54406)
(0.75304 0.000355718 2.54368)
(0.353566 6.68772e-05 3.34303)
(0.354499 -0.000299043 3.34246)
(0.353533 -0.000420777 3.34331)
(0.354509 -0.000943551 3.34349)
(0.355132 0.000741664 3.34551)
(0.352245 0.00160667 3.34216)
(-1.03622 -0.000656177 4.10963)
(-1.03384 0.000399706 4.11021)
(-1.03632 -0.00137536 4.10831)
(-1.03479 -0.00511275 4.11519)
(-1.03439 0.00535142 4.12056)
(-1.03621 0.00797431 4.10266)
(-1.89222 -0.00394518 3.79105)
(-1.89481 0.00220772 3.8044)
(-1.89942 -0.0010679 3.79759)
(-1.88913 -0.00872392 3.80032)
(-1.8836 0.00976409 3.79181)
(-1.90121 0.0117038 3.79382)
(-1.67873 -0.00880306 -1.69078)
(-1.70917 -0.00386551 -1.65476)
(-1.73278 0.0186233 -1.63265)
(-1.62701 0.0343565 -1.73973)
(-1.5986 -0.0360778 -1.79377)
(-1.75525 -0.0513372 -1.5938)
(7.2176 -0.00414485 -7.2462)
(7.23088 -0.00321638 -7.23767)
(7.22432 0.00296759 -7.21845)
(7.23879 0.00468576 -7.28155)
(7.25399 -0.0134916 -7.3238)
(7.194 -0.0012828 -7.18971)
(9.49952 -0.0027715 -7.33484)
(9.51029 -0.00196505 -7.3339)
(9.49899 -0.00731648 -7.33023)
(9.51821 -0.0261342 -7.33841)
(9.54915 0.0141715 -7.34689)
(9.45162 0.0362866 -7.3269)
(6.03684 -0.00460752 -3.95807)
(6.03255 -0.00220371 -3.95698)
(6.02661 -0.00848787 -3.95821)
(6.04483 -0.032633 -3.95359)
(6.06447 0.0184012 -3.9466)
(5.98671 0.0354951 -3.96891)
(-0.026501 5.11334e-05 -3.14014)
(-0.0265348 4.2653e-05 -3.14057)
(-0.0265309 -6.82611e-06 -3.14049)
(-0.0265315 1.41002e-05 -3.14049)
(-0.0265369 -3.9089e-05 -3.14057)
(-0.0265026 -5.32718e-05 -3.14014)
(-0.101198 3.90122e-05 -2.42654)
(-0.101199 3.43092e-05 -2.42681)
(-0.101199 -4.80115e-06 -2.42677)
(-0.101199 7.17217e-06 -2.42677)
(-0.101198 -3.45809e-05 -2.42682)
(-0.1012 -4.23728e-05 -2.42653)
(-0.0223819 2.1653e-05 -2.39926)
(-0.0223815 2.11741e-05 -2.39941)
(-0.0223822 -1.897e-08 -2.39938)
(-0.0223825 1.04457e-06 -2.39938)
(-0.0223821 -2.01623e-05 -2.39941)
(-0.0223837 -2.16111e-05 -2.39926)
(-0.197142 3.21498e-05 -3.28023)
(-0.197246 2.45253e-05 -3.28064)
(-0.19723 -1.24867e-05 -3.28056)
(-0.19723 6.54843e-06 -3.28056)
(-0.197248 -3.43604e-05 -3.28064)
(-0.197139 -4.39095e-05 -3.2802)
(-0.374715 3.4465e-05 -2.39908)
(-0.374714 2.97182e-05 -2.39934)
(-0.374715 -9.63282e-06 -2.39929)
(-0.374714 3.81597e-06 -2.39929)
(-0.374711 -4.00354e-05 -2.39934)
(-0.374714 -4.51617e-05 -2.39908)
(-0.0745391 1.92396e-05 -2.27897)
(-0.0745362 1.72595e-05 -2.27912)
(-0.0745375 -1.75354e-06 -2.2791)
(-0.0745381 2.24821e-07 -2.2791)
(-0.0745371 -1.99492e-05 -2.27913)
(-0.0745408 -2.19202e-05 -2.27899)
(-0.503732 1.45001e-06 -3.14589)
(-0.503916 3.24443e-06 -3.14623)
(-0.503879 -5.50466e-06 -3.14617)
(-0.503881 -1.43523e-06 -3.14617)
(-0.503917 -2.0168e-05 -3.14624)
(-0.503722 -2.71342e-05 -3.14586)
(-0.925787 2.5146e-05 -2.27284)
(-0.925786 1.8083e-05 -2.27307)
(-0.925781 -1.58526e-05 -2.27304)
(-0.925779 -2.1057e-06 -2.27304)
(-0.925777 -3.87279e-05 -2.27309)
(-0.925766 -3.99752e-05 -2.27285)
(-0.169835 1.74222e-05 -1.90432)
(-0.169823 1.40086e-05 -1.90447)
(-0.169824 -3.24838e-06 -1.90446)
(-0.169825 -1.82896e-06 -1.90447)
(-0.169823 -2.00743e-05 -1.9045)
(-0.169834 -2.18032e-05 -1.90437)
(-2.31498 -4.9031e-05 -3.07488)
(-2.3152 -1.56938e-05 -3.07516)
(-2.31512 2.12598e-05 -3.07514)
(-2.31509 -1.47923e-05 -3.07512)
(-2.31512 -1.51856e-05 -3.07515)
(-2.31497 -2.07767e-05 -3.07489)
(-1.83684 7.90755e-06 -1.89802)
(-1.83682 7.18962e-06 -1.89823)
(-1.83681 -1.21776e-05 -1.89821)
(-1.8368 -3.6343e-06 -1.89821)
(-1.8368 -2.62504e-05 -1.89824)
(-1.83678 -2.65215e-05 -1.89799)
(-0.357551 1.65716e-05 -1.10046)
(-0.357515 1.15318e-05 -1.1006)
(-0.357517 -4.98497e-06 -1.1006)
(-0.357517 -5.10361e-06 -1.1006)
(-0.357511 -2.06633e-05 -1.10062)
(-0.357545 -2.10742e-05 -1.10048)
(-5.09981 -8.98181e-05 -1.09001)
(-5.10059 -4.6131e-05 -1.09091)
(-5.10029 6.30721e-05 -1.09078)
(-5.10028 -1.73932e-05 -1.09084)
(-5.10044 5.84705e-05 -1.09101)
(-5.10017 7.09482e-05 -1.09065)
(-2.95539 4.61809e-06 -0.249837)
(-2.95546 2.16284e-05 -0.250105)
(-2.95543 3.90928e-05 -0.250083)
(-2.9554 4.9284e-05 -0.250067)
(-2.95539 2.40207e-05 -0.250108)
(-2.95539 7.28435e-06 -0.249874)
(-0.897134 2.82166e-05 0.622908)
(-0.897082 2.1657e-05 0.622803)
(-0.897092 -3.33391e-06 0.622804)
(-0.897082 -1.61901e-07 0.6228)
(-0.89707 -2.41196e-05 0.622787)
(-0.89711 -2.76517e-05 0.622918)
(-4.00111 0.000317749 4.07485)
(-4.00296 0.000105138 4.0729)
(-4.0023 -9.21831e-05 4.07321)
(-4.00242 1.95076e-05 4.07298)
(-4.00285 -6.78805e-06 4.0725)
(-4.00214 -9.48396e-07 4.07303)
(-3.50357 0.000235531 2.58425)
(-3.50444 0.000174287 2.58334)
(-3.50409 6.74637e-05 2.58361)
(-3.50412 0.000192425 2.58355)
(-3.50423 6.33242e-05 2.58336)
(-3.50407 -5.61671e-06 2.58371)
(-0.955675 6.65387e-05 2.38728)
(-0.955661 4.09109e-05 2.38717)
(-0.955688 -1.87316e-06 2.3872)
(-0.955686 4.14752e-05 2.3872)
(-0.955664 9.50558e-07 2.38717)
(-0.955732 -1.25815e-05 2.38727)
(-0.285459 0.00075351 10.2141)
(-0.285177 0.000311303 10.2148)
(-0.285356 -9.57675e-05 10.214)
(-0.285625 0.000335046 10.2135)
(-0.285729 -5.76142e-05 10.2133)
(-0.285863 -0.000177624 10.2135)
(-1.15879 0.000526473 7.1705)
(-1.16042 0.000383118 7.17008)
(-1.15968 7.49161e-05 7.17027)
(-1.15989 0.000263177 7.17002)
(-1.16019 -0.000131326 7.16982)
(-1.15977 -0.000228614 7.17037)
(-0.610347 0.00018412 3.14639)
(-0.611001 0.000106725 3.14602)
(-0.610745 -5.27981e-05 3.14637)
(-0.61088 5.34653e-05 3.14641)
(-0.610934 -2.328e-05 3.14634)
(-0.610775 -5.58416e-05 3.14661)
(-0.708811 -0.000520468 10.3926)
(-0.70567 -0.000357243 10.3994)
(-0.707479 0.000235251 10.3965)
(-0.707582 -0.000102878 10.3957)
(-0.707118 1.44372e-05 10.3969)
(-0.70886 0.000121747 10.3949)
(3.66405 -0.00140096 11.1262)
(3.66742 -0.000606128 11.1312)
(3.66554 0.000721289 11.1293)
(3.66521 -0.000287732 11.1286)
(3.66569 -2.97903e-05 11.1293)
(3.66376 0.000114873 11.1293)
(3.56915 -0.00117132 6.50486)
(3.57096 -0.000490524 6.50737)
(3.57003 0.000459594 6.50691)
(3.56968 -0.000366286 6.50693)
(3.56998 -0.000203825 6.50727)
(3.56934 -7.99517e-05 6.50742)
(-4.58212 -0.000255561 -0.780051)
(-4.58442 -0.000183716 -0.788484)
(-4.58388 0.000243458 -0.786113)
(-4.58352 9.83575e-05 -0.783654)
(-4.58323 -0.0010341 -0.785552)
(-4.58677 -0.00102558 -0.783453)
(1.24327 0.000619296 6.2247)
(1.23419 0.000431368 6.22525)
(1.23838 -0.000335586 6.22468)
(1.2386 -1.38865e-05 6.22509)
(1.23682 -0.000451093 6.22491)
(1.23643 -0.000616923 6.22402)
(3.76352 0.000443291 5.53371)
(3.75795 0.000476903 5.54237)
(3.76047 -0.000197822 5.53895)
(3.76072 9.37828e-05 5.53822)
(3.75925 -0.00020091 5.53953)
(3.75999 -0.000540785 5.53774)
(-7.40823 -0.00191967 -4.96657)
(-7.40827 -0.00131402 -4.97641)
(-7.41031 0.0014131 -4.9724)
(-7.40674 0.000644942 -4.97105)
(-7.40341 -0.000367646 -4.97385)
(-7.41434 -0.000351358 -4.96922)
(0.384962 0.00303581 -0.371789)
(0.385386 0.00104806 -0.385011)
(0.383592 -0.00145274 -0.381398)
(0.384115 0.000791663 -0.378374)
(0.385391 -0.000994934 -0.379144)
(0.379654 -0.00132535 -0.379307)
(4.77824 0.00114128 0.197026)
(4.77739 0.000409861 0.198659)
(4.77718 -0.00105372 0.196598)
(4.7779 -0.00136018 0.196324)
(4.77811 0.00111994 0.196165)
(4.77504 0.00212598 0.195227)
(-6.30187 -0.00104994 -4.85581)
(-6.30077 -0.000501024 -4.86503)
(-6.30249 0.000308044 -4.86109)
(-6.29856 -0.00124616 -4.86044)
(-6.29339 0.00145432 -4.86327)
(-6.30804 0.00236722 -4.85773)
(-3.32037 0.00122207 -3.73114)
(-3.31674 0.00070177 -3.74121)
(-3.3195 0.000534699 -3.73669)
(-3.31846 0.000937233 -3.73583)
(-3.31613 0.000618017 -3.73951)
(-3.3226 0.000619206 -3.73292)
(2.55776 0.0016289 -1.34506)
(2.5484 0.000631089 -1.34757)
(2.55162 -0.000617735 -1.34626)
(2.55033 -0.000704114 -1.34765)
(2.54033 0.00153845 -1.35297)
(2.56255 0.00259607 -1.33931)
(-3.81758 -0.00112564 -3.96654)
(-3.81629 -0.000460609 -3.96862)
(-3.81764 3.03486e-05 -3.96744)
(-3.81416 -0.00139401 -3.96782)
(-3.80911 0.00137537 -3.96822)
(-3.82298 0.0020942 -3.9664)
(-3.12695 -0.000537342 -8.23438)
(-3.12481 -0.000427923 -8.23836)
(-3.12697 0.00144067 -8.23556)
(-3.12253 0.00111244 -8.23836)
(-3.1186 -0.00126939 -8.24291)
(-3.13356 -0.00101531 -8.23126)
(0.0806131 0.0008882 -5.26867)
(0.0786026 0.00062505 -5.27646)
(0.0797027 -7.2366e-05 -5.27284)
(0.078088 0.000712108 -5.27458)
(0.0745765 -0.00076578 -5.28147)
(0.0835074 -0.00128735 -5.26504)
(4.39379 -0.00110816 -1.76445)
(4.38982 -0.00166963 -1.7647)
(4.38717 0.000296038 -1.7636)
(4.39682 -0.00290886 -1.76483)
(4.40108 0.00293111 -1.76265)
(4.37662 0.00568125 -1.76195)
(4.32679 0.00238326 -2.73842)
(4.27307 0.000338644 -2.78119)
(4.27544 0.00181732 -2.77104)
(4.35937 -0.0128278 -2.74061)
(4.39093 0.0325224 -2.74895)
(4.26422 0.0449222 -2.76714)
(1.2573 -0.00398807 -3.81763)
(1.22357 -0.0046871 -3.87283)
(1.22455 0.0140823 -3.87214)
(1.27855 0.0216215 -3.82318)
(1.30129 -0.0195727 -3.84445)
(1.21362 -0.0253874 -3.89262)
(2.91589 -0.00041194 -1.24506)
(2.91662 -0.000517629 -1.24586)
(2.91641 -0.000507409 -1.24554)
(2.9143 -0.00252758 -1.24465)
(2.91139 0.0026152 -1.24263)
(2.91914 0.00443027 -1.24607)
(3.2258 -0.00383092 -1.65032)
(3.24306 -0.00229401 -1.64505)
(3.25017 0.00785859 -1.63831)
(3.21311 0.00300214 -1.66616)
(3.19627 0.00576762 -1.6858)
(3.28073 0.00974804 -1.61311)
(-0.0541561 -0.003283 -2.63047)
(-0.048428 -0.00218937 -2.61981)
(-0.0465494 0.0119928 -2.61389)
(-0.0488255 0.0158635 -2.64697)
(-0.0443506 -0.00981635 -2.66777)
(-0.0384129 -0.0153448 -2.58716)
(2.17285 -8.01068e-05 -0.715267)
(2.17255 -0.00036824 -0.716121)
(2.17279 -0.000196219 -0.716163)
(2.17176 -0.000588418 -0.71419)
(2.1697 0.000672511 -0.711722)
(2.17429 0.00133196 -0.71731)
(3.53313 -0.00180225 -1.64929)
(3.5318 -0.000915016 -1.6507)
(3.53264 -0.0035893 -1.64991)
(3.53949 -0.0162495 -1.65429)
(3.54843 0.0162422 -1.66114)
(3.52633 0.0287574 -1.64536)
(0.401961 -4.79902e-05 -0.598336)
(0.394403 0.00145455 -0.609579)
(0.396575 0.00086108 -0.601947)
(0.409906 8.20496e-05 -0.619954)
(0.412123 0.00400539 -0.64337)
(0.396471 0.00325479 -0.591196)
(1.42457 0.000114421 -0.105278)
(1.42437 -0.000136336 -0.106366)
(1.42471 -0.000130483 -0.106477)
(1.42345 0.000696283 -0.104411)
(1.422 -0.000846559 -0.10164)
(1.42554 -0.00129171 -0.108769)
(2.47759 -0.00318377 -2.31136)
(2.47959 -0.00194258 -2.30868)
(2.47785 -0.00269559 -2.3126)
(2.47996 -0.016171 -2.30701)
(2.484 0.0160804 -2.30046)
(2.47426 0.0291699 -2.31887)
(0.193007 -0.0017645 -4.18198)
(0.193841 -0.00104605 -4.19197)
(0.194964 0.000398238 -4.16942)
(0.192913 -0.00338618 -4.22084)
(0.192235 0.00380343 -4.28463)
(0.195999 0.0069279 -4.11105)
(0.660449 8.87802e-05 0.372735)
(0.660518 -1.40387e-05 0.371711)
(0.660273 6.87711e-05 0.371726)
(0.660566 0.00191638 0.37308)
(0.661394 -0.00214672 0.37535)
(0.659463 -0.00378402 0.36993)
(0.608387 -0.00329228 -3.20331)
(0.610521 -0.00205984 -3.1973)
(0.607952 -0.00166301 -3.20622)
(0.61196 -0.0140994 -3.18871)
(0.61912 0.0148808 -3.1574)
(0.600023 0.0269175 -3.23586)
(-0.296086 -0.00134877 -6.66174)
(-0.296561 -0.000634671 -6.67793)
(-0.296256 -0.00133953 -6.6573)
(-0.29623 -0.0061328 -6.69293)
(-0.296332 0.00722271 -6.75436)
(-0.296073 0.011366 -6.59523)
(-0.292395 -0.000628587 0.273022)
(-0.291784 -0.00017037 0.272031)
(-0.292235 -0.000127741 0.272478)
(-0.291585 -0.000456564 0.272601)
(-0.289755 0.000589945 0.271535)
(-0.294323 0.000432273 0.273613)
(-2.30599 -0.00249781 -5.92302)
(-2.30352 -0.00214104 -5.92259)
(-2.30767 0.000907029 -5.92376)
(-2.30068 -0.0072166 -5.91998)
(-2.29002 0.00671741 -5.9094)
(-2.31868 0.0147115 -5.93228)
(-0.741897 -0.000783754 -4.46611)
(-0.742428 -0.000482388 -4.47437)
(-0.742512 -0.000577802 -4.46699)
(-0.743721 -0.00328137 -4.47756)
(-0.747066 0.00355909 -4.4922)
(-0.73844 0.00595729 -4.44882)
(0.0868886 4.66765e-07 1.5421)
(0.0868939 -6.86026e-07 1.54215)
(0.0868939 -1.62722e-07 1.54215)
(0.0868935 4.57187e-07 1.54215)
(0.086893 1.13197e-06 1.54215)
(0.0868879 -6.78077e-08 1.5421)
(0.0516885 3.96483e-07 1.66673)
(0.0516919 -5.44867e-07 1.66678)
(0.0516916 -5.49241e-07 1.66678)
(0.0516914 -3.51154e-07 1.66678)
(0.0516911 -1.96268e-07 1.66678)
(0.0516878 -7.87942e-07 1.66673)
(0.0183715 3.5845e-08 1.7457)
(0.0183727 -6.63109e-07 1.74576)
(0.0183725 -8.99272e-07 1.74576)
(0.0183724 -8.85606e-07 1.74576)
(0.0183723 -7.85242e-07 1.74576)
(0.0183708 -7.29539e-07 1.7457)
(0.251641 -5.03794e-07 1.62652)
(0.251657 -7.02525e-07 1.62657)
(0.251657 6.73008e-07 1.62657)
(0.251655 1.90588e-06 1.62657)
(0.251654 2.23436e-06 1.62657)
(0.251635 1.28832e-06 1.62652)
(0.148328 -2.93607e-07 1.73587)