/*--------------------------------*- C++ -*----------------------------------*\
| =========                 |                                                 |
| \\      /  F ield         | OpenFOAM: The Open Source CFD Toolbox           |
|  \\    /   O peration     | Version:  v1612+                                |
|   \\  /    A nd           | Web:      www.OpenFOAM.com                      |
|    \\/     M anipulation  |                                                 |
\*---------------------------------------------------------------------------*/
FoamFile
{
    version     2.0;
    format      ascii;
    class       surfaceScalarField;
    location    "1.15";
    object      alphaPhi;
}
// * * * * * * * * * * * * * * * * * * * * * * * * * * * * * * * * * * * * * //

dimensions      [0 3 -1 0 0 0 0];

internalField   nonuniform List<scalar> 
816
(
-4.13444e-07
6.63827e-07
-4.84006e-08
2.82919e-07
2.11596e-07
-6.97601e-07
-2.97709e-07
5.70332e-07
3.18258e-07
4.79748e-07
-1.48408e-06
-1.722e-07
9.98085e-07
-6.78369e-07
-2.10136e-06
2.61915e-06
-2.66173e-07
-1.92172e-08
-2.74711e-07
1.0472e-07
1.49075e-10
3.93961e-10
-5.63859e-06
1.03409e-10
-1.30244e-10
7.14124e-10
-4.48544e-06
1.78119e-10
4.24629e-11
-1.60179e-11
-1.07644e-05
1.34204e-12
3.35746e-10
8.75224e-11
2.00281e-06
2.23222e-10
-5.45984e-10
1.23558e-10
1.16667e-06
1.12634e-10
-2.37484e-10
-5.29681e-10
-6.34787e-06
6.95611e-11
8.54541e-11
-1.61194e-10
3.37665e-06
1.3519e-10
-2.10426e-11
-5.65636e-11
1.00544e-06
1.80204e-10
-3.11286e-10
9.3409e-11
-1.23237e-05
-1.52823e-10
-1.78006e-10
-1.59234e-11
-8.11657e-06
2.50771e-11
-7.34012e-11
2.39125e-10
5.51935e-07
2.52926e-11
-1.08942e-10
-1.99168e-06
2.43424e-11
9.52149e-12
6.14506e-07
3.43104e-08
-5.29635e-06
-5.44567e-06
2.35496e-06
2.43359e-06
-4.70536e-06
-3.23988e-06
-7.11422e-07
-6.35769e-06
-3.14578e-06
1.01154e-07
-2.69541e-06
-1.46958e-06
3.5485e-06
-4.57274e-07
1.92006e-06
3.27814e-06
-7.70566e-07
2.74879e-07
3.44383e-07
-4.8722e-06
-2.79297e-06
2.73042e-06
2.28023e-07
1.88976e-06
4.22356e-06
3.67621e-07
2.2407e-06
4.01113e-06
-8.06962e-07
1.22349e-06
2.13718e-06
1.67292e-06
-6.36751e-06
-4.62995e-06
-2.94934e-06
-1.76229e-06
-1.89569e-06
-5.83132e-06
-8.10046e-08
1.83193e-06
-1.76087e-06
-2.78662e-06
3.31249e-06
3.86793e-07
-9.91765e-07
-5.64854e-07
4.61922e-08
-6.63733e-07
-3.13852e-06
-1.5854e-06
-3.64748e-07
-2.83833e-06
-8.54122e-07
-7.11701e-07
-1.52711e-06
-3.07867e-07
-9.61234e-07
8.92308e-07
1.79573e-06
4.7855e-07
8.31013e-07
-3.60885e-07
-5.43069e-07
-9.90773e-07
-9.70207e-07
5.36362e-07
-5.329e-07
9.38762e-07
1.91773e-06
4.34837e-07
7.88478e-07
-9.61929e-07
1.32395e-06
-5.97052e-07
-2.57086e-06
-1.98548e-07
-2.20621e-06
-5.33056e-07
-1.03479e-06
-1.58051e-06
-3.15281e-08
-1.50185e-06
-4.69158e-07
-2.01724e-08
-4.83592e-07
2.07888e-07
-3.37877e-07
4.56757e-07
-1.32978e-07
-2.67335e-08
2.56449e-07
-3.95831e-07
4.37921e-07
-1.01141e-07
2.22611e-07
-2.70516e-07
2.92997e-07
-9.46768e-07
-7.06984e-07
-3.60883e-07
-3.87054e-07
-1.18568e-07
1.32031e-07
-9.21323e-07
-1.60416e-06
-8.67422e-07
-4.77818e-07
-1.03262e-06
-7.51547e-07
-6.10151e-07
-2.37916e-07
-7.56516e-07
-3.87842e-07
3.53129e-07
2.07288e-07
5.32058e-07
3.2651e-07
-5.04394e-07
-1.77189e-07
-4.30911e-07
5.06166e-07
-3.55202e-07
-3.47691e-07
6.64062e-07
-7.36998e-08
5.3411e-07
-2.91693e-10
3.45338e-07
-3.31756e-07
6.03415e-08
-1.51002e-07
-1.66563e-06
-7.97585e-07
1.78043e-08
-1.64189e-06
-2.78946e-07
-1.30696e-07
-1.02775e-06
-3.48273e-07
-6.98318e-07
-2.1041e-07
-1.63742e-07
3.69609e-11
-1.43597e-10
-2.02166e-06
2.91728e-11
1.12622e-10
7.59764e-12
-5.16222e-11
5.23252e-10
2.27445e-06
3.24432e-10
3.73748e-10
-9.30149e-06
9.22076e-11
1.38369e-10
-8.87057e-06
-1.70526e-10
1.2907e-11
-4.62154e-11
-5.15264e-06
4.58877e-11
-6.52438e-11
-8.75477e-07
-7.17235e-11
-1.94765e-10
-5.56109e-06
6.08272e-12
-1.02463e-10
-8.37047e-06
-2.81976e-10
5.08474e-11
1.69878e-06
7.09714e-11
-1.32927e-10
-1.22542e-10
-8.19101e-06
-9.6618e-11
-4.13669e-10
-8.8675e-06
-1.20013e-11
-3.39701e-10
-9.63513e-06
6.81893e-11
-6.09603e-10
1.48263e-11
-2.26742e-10
3.59567e-10
2.26247e-06
2.06016e-11
-2.84582e-10
2.2401e-10
-8.90115e-06
-2.0735e-10
2.07552e-11
1.14566e-11
-1.97664e-10
-4.96727e-12
7.32676e-07
-4.05515e-10
-2.61682e-10
-3.0882e-06
-2.95883e-10
3.33497e-06
-1.29449e-10
-3.86368e-10
-9.03654e-08
-2.10387e-06
7.80399e-07
-2.74985e-06
1.41257e-06
2.82454e-06
-4.48783e-06
6.28236e-06
2.57072e-06
-1.79021e-06
1.46015e-06
-7.07741e-08
-4.13303e-06
1.2114e-06
-1.73879e-06
-6.63093e-06
-2.96307e-06
-1.6649e-06
-7.21797e-07
-5.89529e-06
6.576e-08
6.60667e-07
-4.39485e-06
-1.20658e-06
6.01268e-07
-4.84215e-06
-7.62154e-06
-1.22156e-06
-1.09721e-06
3.47915e-06
-2.60369e-06
4.0329e-08
-4.79385e-06
1.35771e-06
-3.6378e-08
-4.90729e-06
-1.96309e-06
-2.02877e-06
-5.43388e-06
-4.78711e-06
-7.15989e-06
-3.30577e-07
-1.93542e-06
1.71568e-07
-2.12679e-07
4.27658e-06
4.38994e-06
-3.4334e-06
2.12594e-06
-1.22587e-06
-2.78144e-06
-7.43493e-06
-5.06768e-08
1.88149e-06
-5.8088e-06
4.33057e-08
3.26564e-06
-3.86867e-06
-4.54912e-06
-9.74254e-08
9.62895e-07
2.07725e-06
-2.07177e-06
2.0275e-06
-5.52284e-07
8.58e-07
2.41456e-07
-2.48936e-07
1.81174e-07
1.77823e-06
-1.2734e-06
1.21102e-06
1.06376e-06
-3.73844e-07
1.4946e-06
-7.27124e-08
-5.76192e-07
-4.24675e-07
-1.03497e-06
2.88463e-07
9.26664e-07
-6.86232e-07
-5.42921e-07
-8.57191e-07
3.71119e-08
3.89643e-07
3.62653e-08
3.79981e-07
1.09242e-07
-3.8409e-07
-2.15524e-07
-7.02995e-07
6.31051e-07
5.42123e-07
-1.74092e-06
-8.73169e-07
-7.4054e-07
7.6334e-07
-2.6352e-07
-5.09232e-07
8.30848e-07
-9.53103e-07
-6.93495e-07
-2.01886e-06
-3.43819e-06
4.68225e-07
-2.28746e-06
2.85476e-07
-2.46171e-08
1.26493e-06
1.96049e-06
-8.2711e-07
-2.86557e-07
-6.80259e-08
-9.57004e-07
-2.67744e-06
2.70542e-08
1.46742e-06
-1.25083e-06
9.02806e-07
1.82784e-06
9.9987e-08
-3.2252e-07
-1.07128e-07
1.44582e-06
1.40884e-06
-6.03364e-07
1.82574e-06
-1.69161e-07
1.8977e-07
1.14441e-08
-4.83773e-07
4.07664e-07
6.26698e-07
-1.0318e-06
8.30255e-07
3.02831e-07
-6.98422e-07
1.08449e-06
4.32567e-08
-6.05863e-07
-3.78617e-07
-3.19602e-07
5.29085e-08
7.0296e-07
-5.96169e-07
-1.92952e-07
-8.79371e-07
-9.45519e-09
8.90031e-08
-6.80567e-08
2.88639e-07
3.49955e-09
-6.81454e-07
-3.40738e-07
-1.66408e-07
6.23572e-07
3.72941e-07
-4.29445e-07
-8.16695e-07
-1.19352e-06
3.43313e-07
-1.24735e-07
-4.26441e-07
5.01502e-07
-3.27995e-07
-8.30084e-07
-1.35706e-06
-1.18065e-06
-2.71538e-08
-1.24196e-06
-1.43415e-07
1.8932e-07
7.00679e-07
6.14961e-07
-6.26216e-07
4.87273e-08
-1.2834e-07
-9.14752e-08
-1.67489e-06
1.09963e-07
4.22391e-07
-8.22248e-07
6.42317e-07
5.79523e-07
-3.05134e-07
-4.40047e-07
-8.81308e-08
8.58795e-07
4.22087e-07
-3.76732e-07
1.10124e-06
-1.32431e-08
3.25545e-07
-3.33414e-08
-2.19145e-08
-1.17572e-07
1.9412e-07
1.33306e-07
-5.64858e-08
1.82649e-07
-5.05228e-07
-1.44414e-07
-1.38829e-07
6.87447e-08
-2.97939e-07
-6.75675e-07
-1.11444e-07
-3.78845e-07
-2.72938e-07
-3.59316e-08
-1.8846e-07
1.72924e-07
2.25763e-07
9.16182e-08
-2.27678e-07
-2.42156e-07
1.63933e-07
-1.60815e-07
1.74919e-07
1.27621e-09
-1.37959e-07
1.80938e-07
-6.14809e-11
-3.38351e-08
-8.85215e-07
3.25731e-08
-8.01361e-07
6.20206e-08
-4.02154e-07
-2.57501e-07
-1.51186e-07
-8.52799e-08
5.22413e-08
-2.17909e-07
2.79517e-07
-4.23588e-07
4.46016e-07
-2.45668e-07
6.34666e-07
-1.80491e-07
-2.07391e-07
1.03576e-07
4.20319e-07
-3.28796e-07
-2.54631e-07
-6.49405e-08
6.0044e-08
8.87989e-09
-2.83339e-07
-1.62612e-07
1.95212e-07
2.60511e-07
-3.58334e-07
-4.69866e-07
2.15729e-07
-2.01398e-07
2.21037e-07
-3.08606e-07
-7.45172e-07
-1.27531e-08
-8.93603e-07
-1.03468e-08
3.13878e-07
-2.86785e-07
-2.88361e-07
1.04975e-07
-7.44965e-07
1.29692e-07
-3.9885e-07
3.64537e-07
-5.98875e-08
-2.00624e-07
3.24266e-07
-1.95296e-07
4.63491e-07
3.14132e-10
-3.86495e-10
1.46684e-06
2.5511e-11
3.47546e-12
2.8027e-10
3.29947e-06
1.90071e-10
1.957e-10
5.40261e-11
1.56735e-11
-1.62529e-11
2.73094e-06
1.60356e-10
-1.26227e-05
4.67381e-11
-1.08328e-06
-1.55318e-10
1.63407e-11
-5.66923e-11
3.78232e-06
-7.93558e-11
1.53983e-06
3.22636e-10
-5.37036e-06
4.88206e-11
-2.19256e-06
-1.7893e-10
3.12384e-11
-1.14622e-10
2.07102e-06
-1.18456e-10
2.01394e-06
-2.44918e-10
2.46431e-06
-4.48788e-10
-1.03597e-05
-1.4131e-10
-4.5463e-06
-1.46036e-10
2.80452e-06
-1.14812e-10
1.26715e-06
4.31732e-10
-4.17353e-06
1.67455e-10
5.00584e-06
-1.42075e-12
3.75859e-06
1.42891e-10
1.75001e-06
-3.03572e-10
-9.03389e-06
-1.55559e-10
-8.80203e-06
1.5024e-06
1.77382e-06
-7.81381e-07
3.13363e-06
-1.08103e-06
1.13977e-06
2.3851e-06
4.96941e-06
1.23493e-06
1.86714e-06
1.75883e-06
3.30603e-06
6.5744e-06
1.29805e-07
-4.91524e-06
-8.02455e-06
-4.38797e-06
-2.51624e-06
-4.41956e-06
3.54721e-06
1.77716e-06
4.17793e-06
2.96951e-06
3.71831e-07
-1.51464e-07
-4.79489e-06
-5.35454e-06
1.60218e-06
2.78232e-07
4.44851e-06
2.8268e-07
1.70396e-06
2.50834e-06
1.48029e-06
4.75977e-06
3.99039e-06
-1.33613e-06
-6.89956e-06
-3.79843e-06
-3.44891e-06
-1.30468e-06
5.38439e-06
8.43846e-07
3.03166e-06
-2.10038e-06
-1.07656e-06
-6.06776e-07
7.23341e-06
3.64464e-06
5.28434e-06
6.24118e-06
1.13649e-06
-7.7363e-07
-6.78684e-06
-6.35902e-06
-6.01322e-06
-1.17355e-06
-5.08207e-07
1.31819e-06
1.70879e-06
-5.60941e-07
9.47796e-07
5.67549e-07
2.56953e-06
8.06687e-07
1.25207e-06
1.76676e-06
1.76946e-06
2.25672e-06
-6.09851e-08
-1.97431e-06
-3.79392e-06
-1.79001e-06
-1.78165e-06
-1.11217e-06
2.01851e-06
1.12875e-06
1.97982e-06
3.98639e-07
7.26246e-07
-9.59346e-07
-2.79532e-06
-1.29786e-06
1.08021e-06
8.49013e-07
2.31028e-06
2.80255e-07
1.56777e-06
8.16415e-07
4.5145e-07
1.88347e-06
2.24679e-06
-1.43025e-06
-3.10006e-06
-2.77492e-06
-2.11304e-06
-1.04594e-06
2.84468e-06
1.2622e-07
1.86506e-06
-3.82694e-07
-8.38708e-07
7.8137e-07
3.40196e-06
2.16466e-06
2.66047e-06
2.444e-06
9.67243e-07
4.5446e-07
-3.35305e-06
-1.07926e-06
-2.64679e-06
-9.36709e-07
-3.84164e-07
1.13617e-06
5.70568e-07
-2.15366e-07
2.86462e-07
4.7671e-07
8.40724e-07
7.01266e-07
3.24978e-07
1.3603e-06
4.99907e-07
1.52376e-06
-1.86679e-07
-1.12703e-06
-1.12774e-06
-1.54042e-06
-6.64412e-07
-8.72467e-07
4.78409e-07
5.89409e-07
4.59296e-07
3.97964e-07
2.50313e-07
-1.03022e-06
-7.20626e-07
-1.10484e-06
3.6664e-07
5.35152e-07
6.72533e-07
4.53169e-07
4.97134e-07
4.26299e-07
8.02562e-08
1.30679e-06
5.61689e-07
-7.79076e-07
-1.01917e-06
-2.11853e-06
-5.64084e-07
-7.84537e-07
9.03877e-07
4.09282e-07
6.84348e-07
-4.66464e-07
1.09267e-07
2.11442e-07
1.06292e-06
1.32863e-06
7.26442e-07
1.78534e-06
2.16548e-07
3.12275e-07
-1.04153e-06
-4.69754e-07
-7.70686e-07
-2.7559e-07
-1.17485e-07
4.85468e-07
-6.10172e-08
3.53337e-07
4.31614e-07
7.49946e-07
6.63651e-07
-4.60623e-07
-7.01785e-07
-4.73016e-07
5.3699e-08
3.20059e-08
-4.74858e-07
-4.3646e-07
2.45048e-07
2.95405e-07
1.88664e-07
4.55445e-07
-5.63749e-07
-1.12745e-06
-5.01508e-07
1.87098e-07
2.22867e-08
3.47484e-07
6.73252e-07
8.30148e-07
1.07368e-07
-2.0769e-07
6.28383e-10
4.11399e-10
-5.95186e-06
1.27545e-10
-1.38606e-06
3.23909e-10
-4.71737e-06
-1.63462e-07
-7.82411e-07
-1.0363e-06
-2.76174e-06
-2.96346e-06
)
;

boundaryField
{
    top_fluid_surface
    {
        type            calculated;
        value           nonuniform List<scalar> 
64
(
0
0
1.77264e-10
6.81502e-11
1.20887e-10
2.91958e-10
0
0
2.36972e-10
1.66447e-10
0
3.19363e-10
1.12556e-10
1.32771e-11
0
0
3.14125e-10
3.39463e-10
2.99889e-10
2.22057e-10
2.02652e-10
0
2.99921e-10
3.15241e-10
1.24183e-10
5.73459e-11
0
1.16528e-10
2.52507e-10
2.51812e-10
3.42164e-10
0
0
2.07122e-10
0
1.83698e-10
1.77345e-10
0
0
0
2.08525e-10
0
0
0
1.75276e-10
1.24e-10
0
0
7.56829e-11
1.63404e-10
0
0
0
0
0
0
0
7.13912e-11
0
0
0
0
0
3.43207e-11
)
;
    }
    bottom_fluid_surface
    {
        type            calculated;
        value           uniform 0;
    }
    lateral_surface_1
    {
        type            calculated;
        value           uniform 0;
    }
    lateral_surface_2
    {
        type            calculated;
        value           uniform 0;
    }
    lateral_surface_3
    {
        type            calculated;
        value           uniform 0;
    }
    lateral_surface_4
    {
        type            calculated;
        value           uniform 0;
    }
}


// ************************************************************************* //
