/*--------------------------------*- C++ -*----------------------------------*\
| =========                 |                                                 |
| \\      /  F ield         | OpenFOAM: The Open Source CFD Toolbox           |
|  \\    /   O peration     | Version:  v1612+                                |
|   \\  /    A nd           | Web:      www.OpenFOAM.com                      |
|    \\/     M anipulation  |                                                 |
\*---------------------------------------------------------------------------*/
FoamFile
{
    version     2.0;
    format      ascii;
    class       volVectorField;
    location    "0.45";
    object      U;
}
// * * * * * * * * * * * * * * * * * * * * * * * * * * * * * * * * * * * * * //

dimensions      [0 1 -1 0 0 0 0];

internalField   nonuniform List<vector> 
320
(
(3.47111e-07 -3.31757e-07 6.8979e-07)
(1.869e-07 1.73754e-08 7.99626e-07)
(-1.68201e-07 -9.45405e-07 -2.60927e-06)
(4.72934e-07 -3.25152e-07 -1.08207e-06)
(2.2933e-05 -7.75569e-06 -4.70915e-05)
(3.22266e-05 7.26723e-06 -2.34289e-05)
(6.25995e-06 -1.10921e-06 -1.3481e-05)
(-6.61331e-06 -9.13994e-06 2.80112e-05)
(-2.92399e-05 -0.000116788 3.84579e-05)
(-5.7387e-05 -6.17801e-05 -7.40705e-05)
(-7.31108e-05 -6.15274e-05 3.60303e-05)
(1.27656e-05 -9.75356e-06 5.77687e-06)
(-3.21988e-05 2.5996e-05 -3.36059e-06)
(-4.11735e-05 -2.9053e-05 -5.81437e-05)
(5.73095e-06 -2.56199e-05 3.72609e-05)
(-6.77557e-06 2.46408e-05 1.15894e-05)
(-3.33656e-06 -8.88822e-07 -1.82331e-06)
(3.67412e-06 -7.04351e-07 -1.67607e-06)
(4.75211e-06 -3.30412e-07 -4.74489e-07)
(5.72487e-07 -2.34855e-06 7.00086e-07)
(2.71044e-06 -1.42662e-06 -5.93938e-07)
(-3.71039e-07 2.09398e-06 1.46823e-07)
(3.72568e-06 1.80871e-06 5.21454e-07)
(1.61407e-06 5.1593e-07 -1.50488e-06)
(-5.16083e-06 -2.85349e-06 -8.2564e-07)
(-5.75827e-06 1.54281e-06 -3.68977e-08)
(-8.0142e-07 1.32135e-08 -7.73027e-07)
(-4.24133e-06 -4.18371e-06 -2.42486e-07)
(-3.22579e-07 -3.39202e-07 -2.34413e-06)
(4.62006e-07 -2.50738e-07 -2.00044e-06)
(6.18193e-07 -1.40411e-07 -5.44555e-07)
(1.24779e-07 -3.20828e-07 1.12436e-06)
(3.60063e-07 -6.85506e-07 -8.67416e-07)
(-1.01229e-07 -2.46903e-07 6.97588e-08)
(4.46796e-07 -1.86692e-07 8.41394e-07)
(3.98502e-07 -2.11007e-07 -1.95694e-06)
(-8.59203e-07 -5.64736e-07 -9.29109e-07)
(-1.01863e-06 -3.76546e-07 -2.96642e-08)
(-2.37141e-07 -1.37001e-07 -8.90784e-07)
(-4.67267e-07 -4.34743e-07 -2.28781e-07)
(4.05153e-07 -3.00596e-07 2.02343e-07)
(1.57045e-07 -1.34646e-07 2.44497e-07)
(-2.79342e-07 -7.12185e-07 -4.59226e-07)
(2.00635e-07 -2.80627e-07 -1.15678e-07)
(-2.69753e-07 -3.08774e-07 -3.74452e-07)
(3.77866e-07 -2.41449e-07 -3.06433e-07)
(4.6552e-07 -1.62336e-07 -8.10475e-08)
(1.28337e-07 -4.77827e-07 3.21985e-07)
(4.40939e-07 -4.12193e-07 -1.1726e-07)
(5.51489e-08 3.25426e-08 -7.81358e-08)
(4.57037e-07 1.1199e-08 1.54127e-07)
(1.88607e-07 -1.50099e-07 -3.09233e-07)
(-6.62964e-07 -4.6085e-07 -1.75979e-07)
(-7.48643e-07 -6.40813e-08 -4.91968e-08)
(-1.90828e-07 -1.25057e-07 5.45844e-08)
(-4.01384e-07 -5.32518e-07 -6.44529e-08)
(3.15846e-05 -3.50961e-05 2.66407e-06)
(2.67694e-05 -7.49369e-05 2.57391e-05)
(-1.72932e-06 -2.82062e-05 1.93161e-05)
(-2.52782e-05 -4.53767e-05 2.8724e-05)
(-6.65684e-05 1.0851e-05 8.23923e-06)
(2.96101e-05 2.59209e-05 1.25285e-05)
(-1.45217e-05 -2.61647e-05 4.00084e-05)
(-2.18697e-06 -7.65123e-05 -6.67695e-06)
(-2.63759e-06 -6.47539e-05 -1.43166e-05)
(4.44025e-05 1.91765e-06 -4.98305e-05)
(-3.24547e-05 1.29469e-06 -3.20078e-05)
(-3.40628e-05 -2.10784e-05 -3.14179e-05)
(-2.96445e-05 -2.83315e-05 -1.42904e-05)
(-4.39681e-05 -1.33549e-05 1.35467e-05)
(-2.19642e-05 -2.73202e-06 -6.09509e-06)
(-3.75974e-05 -6.96551e-06 1.91908e-05)
(-6.095e-05 -8.26944e-07 4.14631e-05)
(3.04367e-05 3.9537e-05 1.47479e-05)
(8.12119e-05 1.80882e-05 -1.44819e-05)
(4.5729e-05 -3.5833e-05 8.50552e-06)
(-5.62598e-08 -1.81241e-06 8.8192e-07)
(1.23247e-07 -5.74407e-06 8.12545e-07)
(6.72994e-08 -5.01482e-06 8.63394e-07)
(-4.38134e-07 -1.94573e-06 8.73025e-07)
(-4.20641e-06 3.33518e-06 6.63282e-07)
(1.43834e-06 3.06276e-07 7.96993e-07)
(-5.02865e-07 -9.83343e-07 7.7471e-07)
(3.71847e-06 -1.38925e-06 1.3017e-07)
(-3.54888e-06 -3.80981e-06 1.17022e-07)
(1.53838e-06 5.22247e-07 -9.75635e-07)
(-2.9081e-06 -2.91481e-06 -2.59145e-07)
(3.1515e-06 -1.06552e-07 -2.07386e-07)
(2.37076e-06 -3.9057e-08 -1.42676e-06)
(-4.77394e-06 -1.97457e-06 -1.07476e-06)
(-1.33898e-07 -1.94258e-07 7.88486e-07)
(-2.52311e-06 -4.68425e-07 9.69908e-07)
(-1.40088e-06 -1.67139e-07 9.09449e-07)
(-3.85804e-06 1.26902e-06 8.83735e-07)
(2.79056e-06 -1.43647e-07 -1.01329e-08)
(3.6391e-06 -1.30222e-06 1.04407e-06)
(1.01056e-07 -5.33002e-07 1.16247e-06)
(1.63108e-07 -1.03718e-06 1.20161e-06)
(-1.18943e-08 -8.51278e-07 1.18946e-06)
(-2.25647e-07 -5.74475e-07 1.27569e-06)
(-7.13845e-07 2.75386e-07 9.13898e-07)
(3.15478e-07 9.96863e-08 1.03231e-06)
(-1.66536e-07 -2.40754e-07 1.22225e-06)
(4.74013e-07 -5.51162e-07 1.54256e-07)
(-1.37639e-07 -4.98221e-07 1.12482e-07)
(6.21505e-07 7.42587e-08 -1.80487e-06)
(4.85348e-08 -4.73291e-07 -4.10247e-07)
(4.37043e-07 -2.12707e-07 -3.52415e-07)
(2.09846e-07 -3.6869e-07 -2.12495e-06)
(-9.47546e-07 -3.66739e-07 -1.55668e-06)
(-2.54817e-07 -1.49691e-07 9.81785e-07)
(-6.90667e-07 -2.82093e-07 1.303e-06)
(-3.94205e-07 -3.23348e-07 1.29217e-06)
(-2.87003e-07 2.1961e-07 1.23394e-06)
(3.46459e-07 -1.00671e-09 1.93224e-08)
(6.24078e-07 -4.30558e-07 1.3724e-06)
(6.94891e-08 -3.57856e-07 2.00404e-07)
(1.14084e-07 -7.4176e-07 3.11267e-07)
(1.06075e-08 -6.36619e-07 2.96268e-07)
(-1.39798e-07 -3.53474e-07 3.01546e-07)
(-4.53289e-07 2.11725e-07 1.38407e-07)
(1.59901e-07 2.66853e-08 1.28485e-07)
(-8.22191e-08 -1.59227e-07 2.81006e-07)
(5.00052e-07 -3.53815e-07 1.69577e-08)
(-1.65809e-07 -4.46016e-07 -1.56667e-08)
(3.34753e-07 -7.07851e-08 -2.51749e-07)
(-1.6276e-08 -3.93883e-07 -2.66313e-07)
(3.83277e-07 -1.60829e-07 -2.03766e-07)
(1.92707e-07 -1.97334e-07 -5.02941e-07)
(-6.79806e-07 -2.83467e-07 -3.57749e-07)
(-2.20791e-07 -1.30038e-07 9.65944e-08)
(-4.37828e-07 -2.18936e-07 2.2426e-07)
(-2.37838e-07 -2.40048e-07 2.05322e-07)
(-3.95013e-07 4.66626e-08 3.42082e-07)
(2.29887e-07 -4.84573e-08 -6.0298e-08)
(3.98697e-07 -2.15325e-07 2.5959e-07)
(1.55722e-07 -2.45064e-07 6.70784e-08)
(9.52401e-08 -1.65294e-07 9.17536e-08)
(-8.92165e-08 -4.23025e-07 -2.815e-07)
(1.09257e-07 -2.71933e-07 -1.7432e-07)
(-6.13671e-08 -2.16576e-07 -2.27775e-07)
(1.49187e-07 -1.7198e-07 -2.09079e-07)
(1.71137e-07 -1.41157e-07 -9.84081e-09)
(6.21289e-08 -2.84995e-07 1.39395e-07)
(1.8305e-07 -3.28328e-07 -2.06518e-07)
(5.39077e-08 -1.42218e-07 3.25112e-08)
(1.89937e-07 -1.48735e-07 5.89714e-08)
(6.3832e-08 -2.02534e-07 -2.21141e-07)
(-3.1323e-07 -2.78713e-07 -6.08858e-08)
(-3.32011e-07 -1.80043e-07 9.68864e-09)
(-9.21406e-08 -1.37445e-07 -1.59786e-07)
(-1.06934e-07 -2.37613e-07 -1.22113e-08)
(7.6992e-08 -2.03558e-07 1.06157e-07)
(9.00893e-08 -3.56133e-07 1.47192e-07)
(1.98214e-08 -2.99234e-07 1.44279e-07)
(-7.28183e-08 -2.07452e-07 1.5057e-07)
(-2.06565e-07 3.13437e-08 7.54069e-08)
(5.96794e-08 -3.70331e-08 7.9798e-08)
(-4.43189e-08 -1.53381e-07 1.40361e-07)
(1.98175e-07 -2.80154e-07 5.91472e-08)
(6.89329e-10 -2.5182e-07 5.17277e-08)
(2.05838e-07 -8.70383e-08 -1.47385e-07)
(7.99652e-08 -2.22367e-07 -5.5063e-08)
(1.69572e-07 -1.47665e-07 -4.0454e-08)
(4.07612e-08 -1.84982e-07 -2.51002e-07)
(-3.43448e-07 -1.81027e-07 -1.84599e-07)
(-1.58593e-07 -1.23954e-07 8.40843e-08)
(-2.36597e-07 -1.91097e-07 1.23905e-07)
(-1.30123e-07 -2.01936e-07 1.21067e-07)
(-1.23648e-07 -1.99867e-08 1.57622e-07)
(1.17281e-07 -4.74434e-08 3.77878e-08)
(1.84135e-07 -1.39136e-07 1.38666e-07)
(3.65304e-05 7.80974e-06 1.9243e-06)
(3.23167e-05 -3.7381e-06 2.14996e-05)
(1.60619e-05 7.08263e-06 2.98239e-05)
(2.69957e-06 6.96778e-06 2.30066e-05)
(-3.28016e-05 2.65352e-06 3.76112e-05)
(-0.000114387 1.44694e-05 8.96498e-06)
(-7.44885e-05 5.04533e-05 -0.000102225)
(-3.84998e-05 9.85596e-05 -3.84909e-05)
(1.3221e-05 5.09631e-05 4.82777e-05)
(-1.35628e-05 -4.09531e-05 4.45655e-05)
(-1.56379e-06 -0.000104791 -2.99273e-05)
(-4.187e-05 -1.51933e-05 -6.40672e-05)
(4.79772e-05 3.83365e-05 1.99105e-05)
(-5.49465e-06 -7.59703e-06 2.19442e-05)
(3.4397e-05 4.58735e-05 1.13884e-05)
(-3.44305e-05 2.44485e-06 -2.5365e-05)
(-4.34682e-05 4.7873e-05 1.84801e-05)
(5.04248e-06 1.1798e-05 -1.04677e-05)
(-5.77763e-05 1.31634e-05 -1.23918e-05)
(-2.79913e-05 2.56096e-05 1.38111e-05)
(3.97207e-06 1.91882e-05 1.4154e-05)
(-2.46437e-06 -2.29676e-05 -1.64327e-05)
(-1.62763e-05 -1.29808e-05 3.44174e-05)
(-8.46591e-06 3.89573e-05 4.69495e-05)
(2.35018e-05 0.000116557 8.91396e-06)
(6.84433e-05 3.98846e-05 -0.000101253)
(4.53146e-05 -7.97487e-05 -4.82573e-05)
(2.45547e-05 -1.29724e-05 3.78937e-06)
(5.75985e-06 2.52573e-07 8.13096e-07)
(2.00526e-07 -1.3909e-07 8.68507e-07)
(-1.34165e-07 -4.21402e-09 7.98364e-07)
(-1.24251e-07 1.18324e-07 7.7551e-07)
(-3.59789e-06 1.87336e-07 7.41538e-07)
(-3.20633e-06 3.27811e-06 -1.01434e-06)
(4.22605e-07 -8.12822e-07 -7.71726e-07)
(-3.66835e-06 2.69897e-06 -1.13446e-06)
(-2.13673e-07 3.37314e-06 5.37447e-07)
(-6.01408e-07 -6.84255e-08 3.94158e-07)
(7.01244e-07 -4.47255e-06 7.45207e-07)
(-3.68478e-06 -8.61469e-08 -1.03747e-06)
(4.42494e-06 4.49129e-06 7.59957e-07)
(2.84297e-07 3.46957e-08 6.95606e-07)
(3.85723e-06 4.17534e-06 7.36145e-07)
(2.57757e-07 -2.28418e-06 -1.06522e-06)
(8.49921e-07 1.00945e-06 6.68794e-07)
(3.48207e-06 1.74282e-08 -1.66336e-06)
(-5.00566e-06 -1.01838e-07 -1.43732e-06)
(-4.30669e-06 2.4915e-07 9.35391e-07)
(1.59302e-08 4.07095e-06 9.04402e-07)
(3.83775e-06 -1.9099e-07 -1.37039e-06)
(1.921e-08 -4.12048e-06 8.56816e-07)
(1.8567e-07 2.07902e-07 7.19042e-07)
(3.9425e-07 4.20466e-06 7.45462e-07)
(3.12138e-06 3.31345e-06 -8.80928e-07)
(3.85135e-06 1.15686e-06 -1.1918e-06)
(5.58047e-06 1.98169e-06 -1.45599e-06)
(7.44129e-07 6.7761e-08 1.04807e-06)
(1.39351e-07 -7.92952e-08 1.22408e-06)
(-4.30003e-09 2.9466e-08 1.18117e-06)
(-6.93947e-10 8.81132e-08 1.09653e-06)
(-5.08471e-07 1.82656e-08 1.16449e-06)
(-7.21414e-07 3.70936e-07 -1.18419e-06)
(-1.12251e-07 2.58387e-08 -1.20845e-06)
(-4.57347e-07 4.62419e-07 -1.62618e-06)
(7.47846e-08 4.06898e-07 9.82306e-07)
(-1.50137e-07 -1.62293e-07 8.20477e-07)
(1.53245e-07 -6.56615e-07 9.00408e-07)
(-2.55588e-07 -9.94066e-08 -1.95463e-06)
(5.52058e-07 4.46934e-07 1.04341e-06)
(1.17085e-07 2.23356e-08 1.07746e-06)
(7.82585e-07 4.57309e-07 9.38176e-07)
(1.85738e-07 -1.38742e-07 -1.61044e-06)
(3.42198e-07 3.20107e-07 8.58409e-07)
(5.52535e-07 -4.38991e-08 -2.2583e-06)
(-1.0782e-06 -2.25848e-08 -1.8448e-06)
(-8.54797e-07 8.6757e-08 1.27948e-06)
(-4.6018e-08 5.77396e-07 1.19348e-06)
(4.44621e-07 -2.02609e-07 -1.74997e-06)
(-9.89376e-08 -7.04124e-07 1.30757e-06)
(2.259e-08 2.7118e-08 1.20461e-06)
(2.51528e-07 6.03663e-07 1.02703e-06)
(4.0664e-07 4.76337e-07 -1.78881e-06)
(7.28872e-07 -1.3533e-07 -1.57956e-06)
(7.01863e-07 4.07531e-08 -2.16049e-06)
(6.65329e-07 5.53536e-08 2.09351e-07)
(1.25051e-07 -6.30316e-08 2.10602e-07)
(9.00894e-09 -2.0801e-10 2.67675e-07)
(-1.04195e-08 4.20433e-08 2.1421e-07)
(-3.82824e-07 2.08188e-08 2.77505e-07)
(-4.1882e-07 2.85069e-07 -1.3253e-07)
(2.10003e-08 -1.36511e-08 -2.40653e-07)
(-2.77719e-07 2.25246e-07 -2.1705e-07)
(3.45222e-08 2.08734e-07 1.64934e-07)
(-9.56707e-08 -1.37677e-07 1.5931e-07)
(5.6072e-08 -4.95783e-07 1.33299e-07)
(-2.37639e-07 -1.32756e-07 -2.34945e-07)
(3.69332e-07 2.66254e-07 1.47049e-07)
(9.94003e-08 1.07405e-08 1.79226e-07)
(4.94328e-07 2.80672e-07 1.21098e-07)
(1.45193e-07 -1.48835e-07 -3.4766e-07)
(2.60487e-07 1.19203e-07 7.74789e-08)
(3.11244e-07 -2.60456e-08 -5.2301e-07)
(-7.3026e-07 6.65339e-10 -3.72243e-07)
(-5.75865e-07 2.44081e-08 1.84478e-07)
(-4.45826e-08 3.55739e-07 1.7784e-07)
(2.86748e-07 -1.4543e-07 -2.71877e-07)
(-5.99749e-08 -4.77897e-07 2.74912e-07)
(2.77873e-08 -2.12658e-08 1.85831e-07)
(1.58808e-07 3.42668e-07 1.70084e-07)
(3.23793e-07 2.61191e-07 -3.32398e-07)
(4.68457e-07 7.75856e-08 -2.64679e-07)
(6.16703e-07 2.036e-07 -2.38877e-07)
(2.89947e-07 2.17929e-08 1.03024e-07)
(1.10063e-07 -4.16096e-08 1.15311e-07)
(3.43091e-08 -1.1278e-08 1.37349e-07)
(5.06536e-10 1.41704e-08 1.12719e-07)
(-1.59441e-07 8.0368e-09 1.30307e-07)
(-2.12079e-07 1.00793e-07 -1.10397e-07)
(-1.25738e-08 1.35503e-08 -8.0842e-08)
(-9.98167e-08 6.43059e-08 -1.02448e-07)
(2.03886e-08 2.10887e-08 8.37657e-08)
(-4.16947e-08 -1.46499e-07 7.9515e-08)
(2.72709e-08 -2.8332e-07 8.28905e-08)
(-4.48601e-08 -1.34556e-07 -1.44322e-07)
(1.44535e-07 3.36283e-08 7.4231e-08)
(7.58066e-08 1.6966e-09 9.07495e-08)
(2.56685e-07 7.04247e-08 5.77854e-08)
(1.14534e-07 -4.9151e-08 -1.46596e-07)
(1.52551e-07 3.58554e-08 4.23361e-08)
(9.71935e-08 -3.21303e-08 -2.48148e-07)
(-3.74258e-07 -2.0577e-08 -1.69819e-07)
(-3.01564e-07 -1.32094e-09 1.09932e-07)
(-4.9008e-08 1.22393e-07 1.03665e-07)
(7.47064e-08 -1.1606e-07 -1.26727e-07)
(-4.11138e-08 -2.50242e-07 1.38169e-07)
(1.5561e-08 -6.70944e-08 1.01184e-07)
(9.37277e-08 1.09958e-07 8.48099e-08)
(1.45506e-07 7.01696e-08 -1.45353e-07)
(2.11341e-07 -3.08919e-08 -1.19631e-07)
(2.5375e-07 6.42024e-08 -2.55203e-07)
(9.3785e-06 5.10716e-06 1.1936e-05)
(4.93954e-06 9.30741e-06 1.66609e-05)
(5.78727e-05 -3.87093e-05 -1.20122e-05)
(1.79988e-05 -2.56908e-05 3.20312e-05)
(3.60262e-06 -2.47916e-07 4.50512e-07)
(6.2569e-07 1.05834e-06 4.80944e-07)
(-2.29145e-06 -4.52661e-06 -1.83182e-06)
(1.57347e-06 -4.45751e-07 -9.88357e-07)
)
;

boundaryField
{
    top_fluid_surface
    {
        type            pressureInletOutletVelocity;
        value           nonuniform List<vector> 
64
(
(0 0 -4.70915e-05)
(0 0 -2.34289e-05)
(0 0 -1.3481e-05)
(-6.61331e-06 -9.13994e-06 2.80112e-05)
(-2.92399e-05 -0.000116788 3.84579e-05)
(0 0 -7.40705e-05)
(-7.31108e-05 -6.15274e-05 3.60303e-05)
(1.27656e-05 -9.75356e-06 5.77687e-06)
(0 0 -3.36059e-06)
(0 0 -5.81437e-05)
(5.73095e-06 -2.56199e-05 3.72609e-05)
(-6.77557e-06 2.46408e-05 1.15894e-05)
(0 0 2.66407e-06)
(2.67694e-05 -7.49369e-05 2.57391e-05)
(-1.72932e-06 -2.82062e-05 1.93161e-05)
(-2.52782e-05 -4.53767e-05 2.8724e-05)
(-6.65684e-05 1.0851e-05 8.23923e-06)
(2.96101e-05 2.59209e-05 1.25285e-05)
(-1.45217e-05 -2.61647e-05 4.00084e-05)
(0 0 -6.67695e-06)
(0 0 -1.43166e-05)
(0 0 -4.98305e-05)
(0 0 -3.20078e-05)
(0 0 -3.14179e-05)
(0 0 -1.42904e-05)
(-4.39681e-05 -1.33549e-05 1.35467e-05)
(0 0 -6.09509e-06)
(-3.75974e-05 -6.96551e-06 1.91908e-05)
(-6.095e-05 -8.26944e-07 4.14631e-05)
(3.04367e-05 3.9537e-05 1.47479e-05)
(0 0 -1.44819e-05)
(4.5729e-05 -3.5833e-05 8.50552e-06)
(0 0 1.9243e-06)
(3.23167e-05 -3.7381e-06 2.14996e-05)
(1.60619e-05 7.08263e-06 2.98239e-05)
(2.69957e-06 6.96778e-06 2.30066e-05)
(-3.28016e-05 2.65352e-06 3.76112e-05)
(-0.000114387 1.44694e-05 8.96498e-06)
(0 0 -0.000102225)
(0 0 -3.84909e-05)
(1.3221e-05 5.09631e-05 4.82777e-05)
(-1.35628e-05 -4.09531e-05 4.45655e-05)
(0 0 -2.99273e-05)
(0 0 -6.40672e-05)
(4.79772e-05 3.83365e-05 1.99105e-05)
(-5.49465e-06 -7.59703e-06 2.19442e-05)
(3.4397e-05 4.58735e-05 1.13884e-05)
(0 0 -2.5365e-05)
(-4.34682e-05 4.7873e-05 1.84801e-05)
(0 0 -1.04677e-05)
(0 0 -1.23918e-05)
(-2.79913e-05 2.56096e-05 1.38111e-05)
(3.97207e-06 1.91882e-05 1.4154e-05)
(0 0 -1.64327e-05)
(-1.62763e-05 -1.29808e-05 3.44174e-05)
(-8.46591e-06 3.89573e-05 4.69495e-05)
(2.35018e-05 0.000116557 8.91396e-06)
(0 0 -0.000101253)
(0 0 -4.82573e-05)
(2.45547e-05 -1.29724e-05 3.78937e-06)
(9.3785e-06 5.10716e-06 1.1936e-05)
(4.93954e-06 9.30741e-06 1.66609e-05)
(0 0 -1.20122e-05)
(1.79988e-05 -2.56908e-05 3.20312e-05)
)
;
    }
    bottom_fluid_surface
    {
        type            noSlip;
    }
    lateral_surface_1
    {
        type            noSlip;
    }
    lateral_surface_2
    {
        type            noSlip;
    }
    lateral_surface_3
    {
        type            noSlip;
    }
    lateral_surface_4
    {
        type            noSlip;
    }
}


// ************************************************************************* //
