/*--------------------------------*- C++ -*----------------------------------*\
| =========                 |                                                 |
| \\      /  F ield         | OpenFOAM: The Open Source CFD Toolbox           |
|  \\    /   O peration     | Version:  v1612+                                |
|   \\  /    A nd           | Web:      www.OpenFOAM.com                      |
|    \\/     M anipulation  |                                                 |
\*---------------------------------------------------------------------------*/
FoamFile
{
    version     2.0;
    format      ascii;
    class       volScalarField;
    location    "4.25";
    object      alpha.water;
}
// * * * * * * * * * * * * * * * * * * * * * * * * * * * * * * * * * * * * * //

dimensions      [0 0 0 0 0 0 0];

internalField   nonuniform List<scalar> 
1116
(
0.475038
0.475043
0.475044
0.475045
0.475047
0.475041
0.480421
0.480425
0.480426
0.480427
0.480428
0.480424
0.512353
0.512355
0.512357
0.512357
0.512358
0.512357
0.573178
0.57318
0.573182
0.573181
0.573182
0.573184
0.663241
0.663245
0.663246
0.663246
0.663247
0.663249
0.787919
0.78792
0.787922
0.787922
0.787922
0.787925
0.936144
0.936139
0.936141
0.93614
0.936138
0.936143
0.973217
0.973217
0.973217
0.973217
0.973217
0.973217
0.973224
0.973224
0.973224
0.973224
0.973224
0.973224
0.973229
0.973229
0.973229
0.973229
0.973229
0.973229
0.973217
0.973217
0.973217
0.973217
0.973217
0.973217
0.973204
0.973204
0.973204
0.973204
0.973204
0.973204
1.48275e-08
1.48274e-08
1.48275e-08
1.4828e-08
1.4828e-08
1.48286e-08
7.03719e-09
7.03719e-09
7.03728e-09
7.03717e-09
7.03715e-09
7.03781e-09
5.23801e-09
5.23802e-09
5.23804e-09
5.23804e-09
5.23804e-09
5.23811e-09
5.07004e-09
5.07004e-09
5.07005e-09
5.07006e-09
5.07006e-09
5.07007e-09
5.06422e-09
5.06421e-09
5.06422e-09
5.06423e-09
5.06423e-09
5.06425e-09
0.00391514
0.00391538
0.00391535
0.0039154
0.00391544
0.00391549
0.0526261
0.0526256
0.0526256
0.0526267
0.0526262
0.0526282
0.397506
0.397471
0.397484
0.397486
0.397479
0.397497
0.83728
0.837301
0.837287
0.837286
0.837287
0.837289
0.973244
0.973244
0.973244
0.973244
0.973244
0.973244
0.973229
0.973229
0.973229
0.973229
0.973229
0.973229
0.973371
0.973371
0.973371
0.973371
0.973371
0.973371
1.82557e-07
1.8247e-07
1.825e-07
1.82513e-07
1.82489e-07
1.82594e-07
5.32407e-07
5.32362e-07
5.32382e-07
5.32376e-07
5.32338e-07
5.32437e-07
4.90857e-08
4.90851e-08
4.9087e-08
4.90826e-08
4.90838e-08
4.9107e-08
4.69385e-09
4.69381e-09
4.69385e-09
4.69386e-09
4.69382e-09
4.69384e-09
2.53465e-09
2.53466e-09
2.53466e-09
2.53466e-09
2.53466e-09
2.53468e-09
-1.10024e-08
-1.09932e-08
-1.09948e-08
-1.09951e-08
-1.09936e-08
-1.09949e-08
0.000131072
0.000131041
0.000131062
0.00013106
0.000131053
0.00013105
0.0065694
0.00656755
0.00656834
0.0065677
0.00656705
0.00656882
0.245622
0.24571
0.245669
0.245652
0.245668
0.245648
0.617663
0.617785
0.617724
0.617711
0.617741
0.617691
0.894469
0.894422
0.894436
0.894434
0.894412
0.894458
0.973116
0.973116
0.973116
0.973116
0.973116
0.973116
1.93891e-07
1.93748e-07
1.93791e-07
1.93811e-07
1.93776e-07
1.93937e-07
7.58794e-07
7.588e-07
7.58806e-07
7.58817e-07
7.58827e-07
7.58827e-07
1.75577e-07
1.75509e-07
1.75528e-07
1.75519e-07
1.75497e-07
1.75626e-07
9.88452e-10
9.88489e-10
9.88476e-10
9.88487e-10
9.88515e-10
9.8834e-10
4.58631e-09
4.5875e-09
4.5876e-09
4.58769e-09
4.58796e-09
4.58704e-09
4.61735e-07
4.61913e-07
4.6187e-07
4.61899e-07
4.6197e-07
4.61819e-07
1.05573e-05
1.05569e-05
1.05575e-05
1.05581e-05
1.05584e-05
1.05571e-05
0.00014095
0.000140918
0.000140939
0.000140938
0.000140931
0.000140927
0.0395039
0.0396084
0.0395737
0.0395498
0.03957
0.0395391
0.35275
0.35333
0.353108
0.35302
0.35317
0.352939
0.567912
0.568575
0.568301
0.568252
0.568443
0.568118
0.630896
0.631052
0.63098
0.631062
0.631124
0.630935
8.14023e-17
8.11012e-17
7.89614e-17
7.63618e-17
7.62134e-17
7.89019e-17
1.99417e-16
1.97118e-16
2.06767e-16
1.86319e-16
1.82224e-16
2.18827e-16
1.12865e-14
1.11253e-14
1.18509e-14
1.0441e-14
1.01106e-14
1.27408e-14
1.35535e-12
1.33705e-12
1.41881e-12
1.2588e-12
1.22075e-12
1.518e-12
8.98358e-11
8.84213e-11
9.42374e-11
8.28538e-11
8.0112e-11
1.01343e-10
5.11388e-09
5.0371e-09
5.37621e-09
4.72973e-09
4.57145e-09
5.79453e-09
1.93922e-07
1.92486e-07
2.07049e-07
1.75908e-07
1.66281e-07
2.26521e-07
0.000199839
0.000197391
0.000208763
0.000186393
0.000180018
0.000223308
0.000995267
0.000986792
0.00103111
0.000943194
0.000909822
0.0010931
8.93228e-05
9.23029e-05
0.000103042
7.72884e-05
6.73477e-05
0.000126192
4.96163e-05
5.05652e-05
5.51045e-05
4.43577e-05
3.88156e-05
6.54632e-05
9.67834e-06
9.6315e-06
9.2833e-06
9.07944e-06
9.07148e-06
9.29766e-06
3.55353e-17
3.52691e-17
3.56472e-17
3.51852e-17
3.56455e-17
3.59897e-17
5.08619e-16
5.03113e-16
5.20505e-16
4.90054e-16
4.81097e-16
5.4074e-16
2.16482e-14
2.13653e-14
2.19893e-14
2.09629e-14
2.06816e-14
2.26572e-14
2.25185e-12
2.23625e-12
2.29264e-12
2.16474e-12
2.08818e-12
2.37455e-12
1.63448e-10
1.61158e-10
1.65643e-10
1.60486e-10
1.58406e-10
1.70318e-10
7.42251e-09
7.65705e-09
8.24331e-09
6.45063e-09
5.48449e-09
9.18342e-09
3.94292e-07
3.89211e-07
3.99454e-07
3.82417e-07
3.7724e-07
4.1056e-07
1.08469e-05
1.07266e-05
1.10044e-05
1.0526e-05
1.03482e-05
1.13334e-05
0.00546046
0.00541578
0.00551602
0.00534321
0.00526688
0.00565972
0.012948
0.0129247
0.0131494
0.0126431
0.0123256
0.0136079
0.000238644
0.00024935
0.00028342
0.000185401
0.000128955
0.000368112
7.97593e-06
7.95462e-06
7.94323e-06
7.95292e-06
7.90333e-06
7.85996e-06
1.58488e-17
1.56687e-17
1.59109e-17
1.56303e-17
1.61094e-17
1.61249e-17
2.7048e-16
2.67846e-16
2.73959e-16
2.63691e-16
2.51752e-16
2.8052e-16
3.97791e-14
3.93444e-14
4.00356e-14
3.90472e-14
3.87365e-14
4.06961e-14
1.18992e-13
1.15788e-13
1.18041e-13
1.38002e-13
1.37703e-13
1.19391e-13
-1.76001e-11
-1.32991e-11
-9.04193e-12
-2.60653e-11
-3.52788e-11
-3.93749e-13
7.48142e-10
7.34635e-10
7.42106e-10
7.33782e-10
7.39015e-10
7.47396e-10
5.26059e-08
5.90219e-08
7.34004e-08
3.42972e-08
3.50437e-08
9.68016e-08
1.17782e-06
1.15519e-06
1.16709e-06
1.17759e-06
1.21531e-06
1.17237e-06
0.000396031
0.000369365
0.000345974
0.000443103
0.000512693
0.000289691
0.0231507
0.0229773
0.0230963
0.0230714
0.0229128
0.0233484
0.0366821
0.0366799
0.0371631
0.0360321
0.0350472
0.0382605
7.95462e-06
7.94323e-06
7.94323e-06
7.90159e-06
7.85996e-06
7.85996e-06
1.45889e-18
1.43815e-18
1.457e-18
1.44593e-18
1.48873e-18
1.46817e-18
2.06461e-17
2.04502e-17
2.03937e-17
2.0845e-17
2.61172e-17
2.01359e-17
4.37779e-17
4.32718e-17
4.34034e-17
4.39154e-17
4.44486e-17
4.33428e-17
2.66586e-15
2.60259e-15
2.61026e-15
2.69503e-15
2.76859e-15
2.58142e-15
2.5544e-13
2.49024e-13
2.49423e-13
2.58897e-13
2.66805e-13
2.45963e-13
1.87058e-11
1.82287e-11
1.82501e-11
1.89707e-11
1.95703e-11
1.79793e-11
1.03292e-09
1.00567e-09
1.00557e-09
1.04932e-09
1.19529e-09
1.00241e-09
1.1155e-06
1.07884e-06
1.01993e-06
1.22025e-06
1.32604e-06
9.0747e-07
1.05652e-06
1.09307e-06
1.08313e-06
1.0558e-06
9.43549e-07
1.16775e-06
3.53037e-05
3.48529e-05
3.46819e-05
3.60223e-05
3.58029e-05
3.50472e-05
0.0577775
0.0576253
0.0578317
0.0577122
0.0571917
0.0585169
0.147215
0.147022
0.14867
0.145204
0.141911
0.151966
1.18534e-09
1.17792e-09
1.18078e-09
1.17661e-09
1.16462e-09
1.18305e-09
9.26212e-10
9.20208e-10
9.22172e-10
9.21759e-10
9.17823e-10
9.27283e-10
-1.7024e-16
-1.86425e-16
-1.91366e-16
-1.87111e-16
-1.86002e-16
-1.90493e-16
5.43152e-07
5.42694e-07
5.4284e-07
5.42814e-07
5.42533e-07
5.43223e-07
2.74342e-24
2.74115e-24
2.7398e-24
2.74063e-24
2.74191e-24
2.73803e-24
-1.09353e-15
-1.19772e-15
-1.22961e-15
-1.20219e-15
-1.19504e-15
-1.22405e-15
1.02194e-07
1.02112e-07
1.02127e-07
1.02125e-07
1.02107e-07
1.02204e-07
5.68779e-21
5.68845e-21
5.68884e-21
5.68866e-21
5.68761e-21
5.68456e-21
-6.24587e-15
-6.90443e-15
-7.10527e-15
-6.93221e-15
-6.88733e-15
-7.06941e-15
1.69807e-11
1.69744e-11
1.69765e-11
1.69757e-11
1.69739e-11
1.69751e-11
3.28391e-14
3.28113e-14
3.28175e-14
3.28156e-14
3.28095e-14
3.28255e-14
-1.61835e-16
-1.61734e-16
-1.61767e-16
-1.61759e-16
-1.61743e-16
-1.61881e-16
8.68639e-10
8.6818e-10
8.68287e-10
8.68238e-10
8.68118e-10
8.68277e-10
6.15122e-12
6.14553e-12
6.14688e-12
6.14659e-12
6.14541e-12
6.14809e-12
2.89108e-14
2.88861e-14
2.88913e-14
2.88898e-14
2.88844e-14
2.88989e-14
5.45732e-08
5.45639e-08
5.45657e-08
5.45678e-08
5.45677e-08
5.45617e-08
7.74712e-10
7.74301e-10
7.74415e-10
7.74381e-10
7.74274e-10
7.74403e-10
6.78214e-12
6.77716e-12
6.77828e-12
6.77796e-12
6.77679e-12
6.7795e-12
8.33077e-07
8.32097e-07
8.32561e-07
8.32506e-07
8.3229e-07
8.32614e-07
2.7514e-08
2.74956e-08
2.75054e-08
2.75034e-08
2.74989e-08
2.75045e-08
7.82303e-10
7.81897e-10
7.82009e-10
7.81977e-10
7.81871e-10
7.81996e-10
2.03505e-05
2.03392e-05
2.0345e-05
2.03437e-05
2.03411e-05
2.03423e-05
7.56143e-07
7.55754e-07
7.55944e-07
7.55891e-07
7.55792e-07
7.55885e-07
2.75191e-08
2.75008e-08
2.75105e-08
2.75085e-08
2.7504e-08
2.75095e-08
2.22904e-05
2.2416e-05
2.23583e-05
2.23487e-05
2.23708e-05
2.23267e-05
2.80291e-06
2.79746e-06
2.79774e-06
2.7978e-06
2.7966e-06
2.80206e-06
1.58635e-06
1.58954e-06
1.58886e-06
1.58838e-06
1.58894e-06
1.58843e-06
4.32801e-06
4.31305e-06
4.31454e-06
4.31514e-06
4.31273e-06
4.31896e-06
4.0181e-06
4.01893e-06
4.01756e-06
4.01767e-06
4.01681e-06
4.01991e-06
3.93544e-06
3.92962e-06
3.9443e-06
3.93819e-06
3.92878e-06
3.94302e-06
6.27606e-06
6.26384e-06
6.25433e-06
6.25154e-06
6.25548e-06
6.24915e-06
4.50591e-06
4.48815e-06
4.48955e-06
4.48811e-06
4.48489e-06
4.49187e-06
0.000138581
0.000138551
0.000138517
0.000138504
0.000138522
0.000138545
0.0460382
0.0460554
0.046042
0.0460999
0.0461631
0.0459932
1.23326e-06
1.20751e-06
1.2206e-06
1.21059e-06
1.18784e-06
1.25227e-06
1.5178e-06
1.46362e-06
1.48721e-06
1.46996e-06
1.42307e-06
1.55589e-06
0.412912
0.412717
0.412837
0.412759
0.412857
0.412921
2.64054e-06
2.63294e-06
2.57069e-06
2.58984e-06
2.49713e-06
2.48458e-06
1.78809e-05
1.64084e-05
1.60837e-05
1.67686e-05
9.87316e-06
1.40831e-05
0.458505
0.458607
0.458709
0.458385
0.458394
0.459014
1.97803e-19
-7.4238e-18
-1.60505e-17
-1.60729e-17
-3.93879e-18
2.34204e-19
-6.01987e-24
-2.50843e-24
-1.19585e-23
-4.39455e-24
-3.00409e-24
-4.53064e-24
0.467706
0.467726
0.467743
0.46776
0.467767
0.467747
0.0006075
0.000615004
0.000612389
0.000650175
0.000700133
0.000577629
-4.15418e-24
-3.54987e-24
-3.27365e-24
-2.80153e-24
-8.31595e-24
-1.49054e-24
0.467726
0.467743
0.46776
0.467767
0.467767
0.467767
0.0127792
0.012815
0.0127422
0.0129404
0.0132166
0.0124903
-3.4345e-23
-4.32809e-23
-4.68631e-23
-4.76542e-23
-4.55101e-23
-3.36187e-23
0.467706
0.467726
0.467743
0.46776
0.467767
0.467747
0.0187909
0.0188583
0.0187895
0.0189534
0.019314
0.0184443
-3.23371e-23
-4.0764e-23
-4.41281e-23
-4.49648e-23
-4.31461e-23
-3.14862e-23
0.419191
0.419243
0.419201
0.419398
0.419761
0.418864
1.14501e-18
1.12427e-18
-2.66807e-17
-1.11805e-16
1.14501e-18
1.14501e-18
-1.42123e-23
-1.93628e-23
-1.79412e-23
-2.24502e-23
-3.68258e-23
-4.36005e-21
1.15242e-19
1.1406e-19
1.1505e-19
1.14063e-19
1.14942e-19
1.16274e-19
1.02683e-20
1.01943e-20
1.02342e-20
1.01735e-20
1.0117e-20
1.03876e-20
7.65162e-22
7.61208e-22
7.63052e-22
7.58833e-22
7.49824e-22
7.77005e-22
5.38436e-18
5.33545e-18
5.35204e-18
5.35202e-18
5.48328e-18
5.38809e-18
6.82404e-19
6.7823e-19
6.7587e-19
6.78146e-19
6.73866e-19
6.85439e-19
7.18175e-20
7.15228e-20
7.12777e-20
7.14072e-20
7.02396e-20
7.26318e-20
1.07232e-17
1.07119e-17
1.07462e-17
1.06515e-17
1.07078e-17
1.08362e-17
1.32922e-17
1.32362e-17
1.30306e-17
1.32623e-17
1.30051e-17
1.32288e-17
2.77102e-18
2.76537e-18
2.73409e-18
2.76377e-18
2.68167e-18
2.79586e-18
4.09682e-17
4.04921e-17
4.06892e-17
4.0998e-17
4.14254e-17
4.07415e-17
2.13596e-17
2.14159e-17
2.11708e-17
2.12841e-17
2.05992e-17
2.15368e-17
7.67973e-17
7.68449e-17
7.57497e-17
7.67142e-17
7.26397e-17
7.82185e-17
2.82358e-15
2.75808e-15
2.76825e-15
2.85121e-15
2.92507e-15
2.74401e-15
2.66686e-15
3.32464e-15
2.95551e-15
2.62143e-15
7.014e-16
4.03294e-15
5.20098e-15
5.2796e-15
5.21368e-15
5.20444e-15
4.78979e-15
5.47442e-15
2.62745e-13
2.56188e-13
2.56776e-13
2.65956e-13
2.73927e-13
2.53547e-13
8.68175e-15
9.18081e-15
8.82744e-15
8.71273e-15
6.9998e-15
9.81575e-15
9.14395e-14
9.25821e-14
9.16066e-14
9.13319e-14
8.64397e-14
9.55289e-14
2.38967e-11
2.29763e-11
2.23517e-11
2.49673e-11
2.58887e-11
2.08273e-11
5.74714e-13
5.6122e-13
5.5836e-13
5.79307e-13
6.04443e-13
5.48167e-13
1.06252e-13
1.06957e-13
1.05988e-13
1.06368e-13
1.02029e-13
1.09714e-13
5.01058e-09
4.57821e-09
3.59224e-09
6.82107e-09
8.41079e-09
2.70483e-09
2.78912e-11
2.71205e-11
2.62108e-11
2.95533e-11
3.10898e-11
2.45741e-11
7.20986e-13
7.05363e-13
7.02764e-13
7.32908e-13
7.52177e-13
6.9386e-13
1.89193e-08
2.0651e-08
2.04393e-08
1.8597e-08
1.66326e-08
2.15954e-08
4.20629e-10
1.44294e-09
1.4333e-09
4.02028e-10
3.66612e-10
1.08187e-09
2.8146e-11
1.2365e-09
2.06752e-09
2.98147e-11
3.15986e-11
4.22694e-10
1.05805e-06
1.09535e-06
1.08561e-06
1.05727e-06
9.44756e-07
1.16953e-06
1.2792e-05
1.55593e-05
1.59473e-05
1.28637e-05
1.10144e-05
1.3496e-05
3.39071e-06
3.10729e-06
3.0112e-06
3.4429e-06
3.26375e-06
3.02568e-06
0.000100271
0.000102451
0.000104258
9.38787e-05
5.17534e-05
0.000143912
0.000146222
0.000150535
0.00015443
0.000133409
5.0421e-05
0.000232098
1.19228e-19
1.08172e-19
1.0352e-19
1.33564e-19
2.73046e-19
7.52292e-20
0.194897
0.195346
0.19589
0.193919
0.192496
0.196933
5.06931e-06
4.51e-06
4.13592e-06
4.68391e-06
4.67482e-06
4.28976e-06
5.60451e-06
4.61359e-06
4.0432e-06
1.84292e-05
4.72173e-05
4.19923e-06
)
;

boundaryField
{
    seabed_topleft_surface
    {
        type            zeroGradient;
    }
    seabed_topright_surface
    {
        type            zeroGradient;
    }
    breakwater_top_surface
    {
        type            zeroGradient;
    }
    breakwater_left_surface
    {
        type            zeroGradient;
    }
    breakwater_right_surface
    {
        type            zeroGradient;
    }
    water_front_surface
    {
        type            zeroGradient;
    }
    water_back_surface
    {
        type            zeroGradient;
    }
    water_left_surface
    {
        type            zeroGradient;
    }
    water_right_surface
    {
        type            zeroGradient;
    }
    water_top_surface
    {
        type            inletOutlet;
        inletValue      uniform 0;
        value           nonuniform List<scalar> 
180
(
0
0
0
0
0
0
0
0
0
0
0
0
0
0
0
0
0
0
0
0
0
0
0
0
2.89108e-14
2.88861e-14
2.88913e-14
2.88898e-14
2.88844e-14
2.88989e-14
6.78214e-12
6.77716e-12
6.77828e-12
6.77796e-12
6.77679e-12
6.7795e-12
7.82303e-10
7.81897e-10
7.82009e-10
7.81977e-10
7.81871e-10
7.81996e-10
2.75191e-08
2.75008e-08
2.75105e-08
2.75085e-08
2.7504e-08
2.75095e-08
1.58635e-06
1.58954e-06
1.58886e-06
1.58838e-06
1.58894e-06
1.58843e-06
3.93544e-06
3.92962e-06
3.9443e-06
3.93819e-06
3.92878e-06
3.94302e-06
0
0
0
0
0
0
0
0
0
0
0
0
0
0
0
0
0
0
0
0
0
0
0
0
0
0
0
0
0
0
0
0
0
0
0
0
0
0
0
0
0
0
0
0
0
0
0
0
7.65162e-22
7.61208e-22
7.63052e-22
7.58833e-22
7.49824e-22
7.77005e-22
7.18175e-20
7.15228e-20
7.12777e-20
7.14072e-20
7.02396e-20
7.26318e-20
2.77102e-18
2.76537e-18
2.73409e-18
2.76377e-18
2.68167e-18
2.79586e-18
7.67973e-17
7.68449e-17
7.57497e-17
7.67142e-17
7.26397e-17
7.82185e-17
5.20098e-15
5.2796e-15
5.21368e-15
5.20444e-15
4.78979e-15
5.47442e-15
9.14395e-14
9.25821e-14
9.16066e-14
9.13319e-14
8.64397e-14
9.55289e-14
1.06252e-13
1.06957e-13
1.05988e-13
1.06368e-13
1.02029e-13
1.09714e-13
7.20986e-13
7.05363e-13
7.02764e-13
7.32908e-13
7.52177e-13
6.9386e-13
2.8146e-11
1.2365e-09
2.06752e-09
2.98147e-11
3.15986e-11
4.22694e-10
0
0
0
0
0
0
0
0
0
0
0
0
0
0
0
0
4.72173e-05
0
)
;
    }
}


// ************************************************************************* //
