/*--------------------------------*- C++ -*----------------------------------*\
| =========                 |                                                 |
| \\      /  F ield         | OpenFOAM: The Open Source CFD Toolbox           |
|  \\    /   O peration     | Version:  v1612+                                |
|   \\  /    A nd           | Web:      www.OpenFOAM.com                      |
|    \\/     M anipulation  |                                                 |
\*---------------------------------------------------------------------------*/
FoamFile
{
    version     2.0;
    format      ascii;
    class       surfaceScalarField;
    location    "0.15";
    object      phi;
}
// * * * * * * * * * * * * * * * * * * * * * * * * * * * * * * * * * * * * * //

dimensions      [0 3 -1 0 0 0 0];

internalField   nonuniform List<scalar> 
816
(
5.13128e-08
5.2589e-09
2.65935e-08
-1.99381e-08
-9.06809e-08
2.81643e-08
-6.98492e-08
1.36352e-07
1.39382e-07
-3.72523e-08
-3.90102e-08
-8.95816e-08
3.4137e-08
1.54168e-07
-1.87048e-08
-2.51816e-08
2.44565e-08
3.93797e-08
3.21627e-08
-6.99816e-08
5.01203e-06
-7.59707e-06
1.94036e-06
2.14969e-06
-1.31667e-05
-4.3299e-06
5.26131e-06
-5.47565e-07
-2.01968e-05
-1.74491e-05
-2.58393e-06
9.38817e-06
9.02253e-06
-3.11655e-05
-2.04624e-06
9.33833e-06
-7.86439e-06
3.17712e-05
2.31661e-06
3.41903e-05
2.11154e-05
1.67995e-06
-4.82413e-06
5.58386e-06
1.51203e-05
4.25462e-06
2.27963e-06
1.01211e-06
-1.42705e-05
-7.05513e-06
-1.75929e-06
6.27953e-06
-9.07582e-06
-1.45584e-05
-6.7379e-06
1.64201e-05
1.18366e-05
-2.9448e-05
-6.13345e-06
8.29632e-06
-1.42496e-06
3.1284e-05
4.39599e-06
2.88614e-05
2.69777e-05
-4.45441e-06
1.41255e-05
9.27757e-07
4.00719e-07
2.37204e-06
1.23551e-06
1.73127e-06
3.16484e-07
1.4721e-06
5.85445e-07
1.16395e-06
-3.5253e-07
-6.88988e-07
-6.04617e-07
3.83071e-08
3.65291e-07
-1.13659e-06
-3.68963e-07
1.73922e-07
-4.53731e-07
1.64274e-06
9.13607e-07
1.95232e-06
2.413e-07
-1.60064e-06
-7.73229e-07
3.51847e-07
4.19392e-07
2.42027e-07
7.80345e-07
1.40603e-06
-5.5626e-08
1.16639e-06
2.74545e-07
7.36583e-07
-1.85567e-08
-6.56879e-07
-5.40218e-07
-5.20736e-08
3.61031e-07
-9.53903e-07
-3.64767e-07
1.55363e-07
-6.56167e-07
1.80941e-06
9.82893e-07
1.71472e-06
4.32579e-07
-9.0208e-07
4.87237e-07
5.62059e-07
6.97902e-08
4.37e-07
4.17139e-07
4.22544e-07
3.01464e-07
2.4428e-07
3.4069e-07
-1.77884e-07
-3.21079e-07
1.22251e-07
1.00251e-07
-1.90852e-07
-2.1399e-07
9.89052e-08
2.5971e-07
2.34072e-07
3.75824e-07
-3.07461e-07
-3.88942e-07
1.1483e-07
1.01116e-07
5.77455e-08
2.64507e-07
3.16367e-07
2.41708e-07
9.06261e-08
1.9529e-07
-1.26867e-07
-2.91988e-07
5.23585e-08
1.28902e-07
-8.32262e-08
-1.78244e-07
1.20724e-07
3.59507e-07
2.83051e-07
3.49073e-07
-4.1992e-07
2.02104e-07
1.84885e-07
9.90184e-09
-4.79423e-08
4.38894e-08
2.32013e-08
-4.09349e-08
-6.63513e-08
9.82245e-08
1.09147e-07
-3.18538e-08
-3.06452e-08
4.17118e-08
1.36167e-07
-2.73039e-09
7.41831e-08
3.63031e-08
2.12105e-08
1.08946e-08
2.33603e-07
2.57406e-07
7.26692e-08
1.84596e-07
2.4669e-07
4.28919e-08
-1.3876e-07
1.12729e-07
6.45037e-08
-1.15251e-07
-1.00671e-07
7.66739e-08
-8.51006e-08
1.22446e-07
1.95404e-07
8.41123e-09
-1.81569e-07
7.46451e-08
6.26165e-08
-1.13796e-07
3.34657e-08
1.93675e-07
5.75116e-08
1.66851e-07
1.33592e-07
1.62025e-08
-7.34629e-08
4.76026e-08
8.31952e-08
-9.68107e-08
-8.30997e-09
8.98628e-08
-6.59694e-08
2.03906e-07
1.96467e-07
3.07696e-08
1.29567e-07
1.13105e-07
-1.26496e-07
8.57462e-06
-1.03323e-05
-1.35784e-06
-4.87015e-07
2.43558e-06
-1.48737e-06
2.87159e-06
3.96101e-06
-1.52841e-06
4.71579e-06
3.68053e-06
-9.70557e-07
3.05836e-06
-3.5222e-06
-9.19956e-08
1.35402e-06
2.53431e-06
-5.88602e-06
-1.02211e-06
7.57796e-06
-6.29714e-06
-2.43352e-06
9.26469e-06
4.3667e-06
-4.72255e-06
1.81034e-05
2.83399e-06
-3.89884e-06
3.08795e-06
-4.40933e-06
-2.43249e-06
4.1965e-07
1.59811e-07
-2.14982e-06
-4.00601e-06
6.24081e-06
8.7819e-06
-9.52498e-06
1.10264e-05
3.64194e-06
-2.90943e-06
2.58485e-06
-2.07475e-06
5.08919e-06
-3.00321e-06
1.63951e-07
2.27833e-06
2.53802e-06
-7.53377e-06
-9.04509e-06
-9.42286e-07
6.84961e-06
-5.67751e-06
-2.39099e-06
9.03014e-06
-8.08175e-07
-3.74966e-06
1.18076e-05
-6.46599e-06
-1.87414e-06
-5.27942e-06
-2.14271e-06
-1.38034e-05
-1.81427e-05
-2.55309e-08
-9.20102e-08
-5.34972e-07
-1.3009e-07
5.35265e-08
-5.61017e-07
6.77474e-07
-1.74119e-07
-6.17207e-07
4.61384e-07
-3.67873e-07
-5.49482e-07
-3.25282e-07
-2.96376e-08
-1.65028e-07
-1.32791e-07
-2.92577e-07
1.5701e-07
-3.09688e-07
-2.99707e-07
3.48346e-07
-2.6686e-07
-1.97344e-10
-9.21917e-08
-6.81031e-07
4.83514e-07
-3.06632e-07
-5.58542e-07
-4.68043e-07
2.79862e-07
-2.26962e-07
2.85544e-09
-1.34147e-07
1.32425e-08
-6.07101e-07
-2.60318e-07
-1.91023e-07
-6.7358e-07
5.13304e-07
-6.17645e-08
-4.13323e-07
3.53453e-07
-2.18412e-07
-6.18858e-07
-9.08668e-07
1.18389e-07
-2.98554e-07
-4.18604e-07
-3.8376e-07
1.46074e-07
-4.03415e-07
-2.90568e-07
4.72923e-07
-3.05197e-07
-2.3668e-07
2.29572e-07
-6.59005e-07
3.89356e-07
-9.30228e-09
-7.22261e-07
-5.10064e-07
-6.04832e-07
-3.79514e-08
-3.96172e-07
-4.83653e-08
1.68682e-09
-3.01548e-07
4.12539e-08
1.65113e-08
-3.06938e-07
1.79599e-07
-1.11491e-08
-3.45653e-07
1.43691e-07
-6.23229e-08
-3.29213e-07
1.12274e-08
-7.04684e-08
-1.1842e-07
1.84562e-08
-4.19417e-08
-2.66259e-08
-1.9884e-07
-1.25527e-08
1.29455e-08
-1.87353e-07
3.10367e-08
-2.36891e-09
-3.40156e-07
1.21495e-07
-8.15437e-09
-3.13355e-07
-2.26132e-08
-4.67627e-09
-1.86576e-07
9.1594e-09
-1.75449e-08
-2.34955e-08
-3.63104e-07
1.93703e-09
-1.9398e-08
-3.70666e-07
1.11907e-07
1.69123e-08
-2.53857e-07
7.71594e-08
-1.0414e-08
-3.16806e-07
-1.38886e-07
2.00694e-08
-1.36658e-07
-8.15086e-08
-7.45398e-08
3.80528e-08
-2.17177e-07
-1.55452e-08
1.09895e-07
-2.05925e-07
-7.56267e-09
1.0589e-07
-3.36415e-07
8.2232e-08
7.64105e-08
-3.97603e-07
-6.14373e-08
-3.48802e-07
-3.86502e-09
-1.1987e-07
-3.55303e-08
8.09317e-09
-1.24538e-07
3.78672e-08
1.78384e-08
-1.17019e-07
1.17451e-07
1.17316e-08
-1.2533e-07
1.02005e-07
-1.18306e-08
-1.38918e-07
3.52262e-08
-8.01547e-08
-8.76143e-08
5.23659e-08
6.51949e-09
-5.07953e-08
-9.30834e-08
3.05448e-08
-1.85882e-08
-8.74714e-08
4.44355e-08
-1.32998e-08
-1.12118e-07
8.0731e-08
1.15217e-09
-1.13819e-07
1.79731e-09
-2.12481e-08
-9.60477e-08
3.26732e-08
-5.28204e-09
-2.16505e-08
-1.3146e-07
1.17253e-08
-9.10379e-09
-1.07857e-07
6.58253e-08
3.39004e-08
-8.5566e-08
5.91552e-08
2.74605e-08
-1.14369e-07
-3.06824e-08
-8.61704e-09
-7.95381e-08
-2.69647e-09
2.66692e-09
1.80913e-08
-9.81754e-08
2.34529e-08
6.97336e-08
-9.0512e-08
7.47017e-09
8.88643e-08
-1.14556e-07
4.8418e-08
5.55941e-08
-1.46676e-07
-1.54339e-08
-1.3386e-07
7.84538e-09
-6.51578e-08
-6.234e-09
-4.705e-08
5.45649e-08
2.66992e-08
-5.52901e-08
7.83332e-08
5.45875e-08
-2.01463e-08
1.82279e-08
7.00421e-08
5.95675e-08
1.30401e-08
-2.77313e-09
9.20967e-08
1.4225e-07
8.15948e-08
1.48152e-07
-9.64046e-08
9.53235e-08
3.67226e-08
-5.15079e-08
5.43938e-08
2.86296e-08
8.46556e-08
-7.25077e-08
4.77514e-08
3.50352e-08
2.27833e-08
9.40838e-08
8.53381e-08
7.42946e-08
-3.29638e-08
3.6779e-08
5.59891e-08
2.22862e-08
7.07507e-08
1.02964e-07
9.68002e-08
9.31339e-08
6.83129e-08
-2.18333e-08
1.26065e-08
4.00153e-08
1.15648e-08
9.00357e-08
1.5935e-08
8.09816e-08
1.11658e-08
5.57264e-08
-8.10892e-08
5.03692e-08
1.70168e-08
-4.97584e-08
3.98618e-08
-2.92637e-08
4.45911e-08
-1.61151e-08
6.24276e-08
1.2299e-08
3.45816e-08
-2.56482e-08
2.97776e-08
1.7225e-08
-9.58806e-09
3.87395e-08
7.63047e-09
5.54427e-08
3.1567e-08
4.53811e-08
3.6839e-08
1.54132e-08
-2.15396e-08
1.313e-08
2.1085e-08
9.26903e-09
3.84383e-08
3.90528e-08
3.28769e-08
6.40979e-08
4.20915e-08
4.85354e-08
1.59107e-08
2.44165e-08
-9.19391e-09
3.21025e-05
-7.11334e-05
-2.69599e-06
1.33565e-05
-9.29873e-07
4.76254e-06
-1.18357e-06
2.03312e-06
-7.79884e-07
3.39989e-06
9.88352e-08
7.91282e-06
-5.16561e-06
-6.68287e-06
-1.25637e-06
-2.58759e-06
-3.93733e-06
-6.09036e-06
-5.50598e-06
-1.06277e-05
-2.63861e-06
1.80378e-06
-2.84273e-06
3.44945e-07
-3.17565e-07
3.20241e-06
-2.25526e-06
-6.03379e-07
-2.36098e-06
1.23265e-08
-2.41879e-06
3.47918e-06
-4.08966e-06
1.84919e-06
-2.98693e-06
-2.03085e-06
4.05052e-06
5.95515e-06
5.61774e-06
-2.23325e-05
6.6817e-06
1.16807e-05
-4.26237e-06
1.50327e-05
-6.11658e-06
-9.63926e-06
-5.06821e-06
-1.48939e-05
-1.14169e-06
-1.45965e-05
-5.58267e-07
-3.20553e-05
-1.73835e-06
-6.80526e-05
-1.53732e-06
4.59306e-06
4.93457e-07
-2.14952e-06
-6.28926e-07
-1.07573e-07
-5.07826e-07
-1.94704e-07
-5.09916e-07
-1.99159e-07
-4.11662e-07
-2.10941e-07
-2.23675e-07
4.72958e-07
-9.69144e-08
-4.26492e-07
-4.44782e-07
-1.06609e-07
-1.1091e-07
2.41851e-07
-1.5401e-07
-1.13694e-08
-2.64966e-07
-1.19638e-07
-4.99221e-07
1.95966e-10
-1.34675e-07
-4.23972e-08
-3.84036e-07
7.39474e-08
-2.05984e-07
1.2145e-07
-2.70826e-07
5.62826e-08
-3.31851e-07
-2.14577e-07
-4.55645e-07
-5.54735e-07
-3.84132e-07
1.49441e-07
2.08256e-07
4.5519e-07
9.27706e-09
-2.06899e-07
-2.45874e-07
-3.41714e-08
-4.19254e-08
-1.37095e-08
-2.09272e-07
2.47474e-07
-1.18562e-08
1.4459e-07
-3.66126e-07
-4.57008e-07
-3.05154e-07
-1.77568e-06
-2.78908e-07
8.79288e-07
9.39583e-08
-3.80353e-07
-3.21045e-07
-2.59667e-08
-2.89321e-07
-3.66302e-08
-2.84322e-07
-2.21253e-08
-2.51882e-07
-3.98582e-08
-1.67981e-07
8.33422e-08
-1.70096e-07
-1.12007e-07
-2.37179e-07
-7.0668e-08
-1.6374e-07
-5.45326e-09
-1.81642e-07
-6.76513e-09
-1.73306e-07
-2.29073e-08
-2.92733e-07
1.15088e-08
-1.21797e-07
-6.83158e-12
-2.74101e-07
-3.10509e-09
-1.69688e-07
2.65309e-09
-1.92198e-07
-3.14361e-08
-2.20744e-07
-4.66794e-08
-2.45698e-07
-7.66746e-08
-2.09406e-07
3.34694e-08
2.80054e-09
6.70825e-08
-8.9191e-08
-1.68946e-08
-1.47057e-07
1.25447e-08
-1.18136e-07
2.9796e-10
-1.78374e-07
6.6474e-08
-3.67432e-08
5.45362e-08
-2.18091e-07
-6.02251e-08
-2.03337e-07
-2.66789e-07
-1.47737e-07
2.73397e-07
3.75588e-08
-1.76332e-07
-1.21102e-07
-1.07295e-08
-1.20694e-07
-8.39374e-09
-1.1803e-07
3.98125e-10
-1.11117e-07
5.9403e-10
-9.34461e-08
4.32494e-08
-9.04001e-08
-7.17603e-08
-1.08867e-07
-6.98589e-08
-9.01388e-08
-5.51739e-08
-8.71667e-08
-2.34963e-08
-7.54345e-08
-2.65049e-08
-1.15343e-07
2.19939e-08
-7.00489e-08
7.61727e-09
-1.07449e-07
-2.33861e-08
-8.40233e-08
-2.34086e-09
-8.23761e-08
-1.67741e-08
-9.16786e-08
-9.1622e-09
-8.23475e-08
-1.44799e-09
-7.51512e-08
5.64754e-08
-2.93919e-08
5.30627e-08
-5.75651e-08
-2.88226e-08
-7.53989e-08
-1.74467e-08
-7.03816e-08
-2.73804e-08
-7.93193e-08
5.88129e-08
-4.1189e-08
4.67325e-08
-7.97149e-08
-1.71914e-08
-8.16153e-08
-1.03574e-07
-6.02837e-08
4.6949e-08
9.5634e-09
-5.37106e-08
7.41502e-10
4.26683e-09
9.38791e-09
7.87045e-09
2.85258e-08
-5.94243e-08
-6.4281e-08
-5.3275e-08
-2.75527e-08
-2.03577e-08
8.30209e-09
1.91875e-08
-2.50112e-08
-7.23305e-09
-1.3722e-08
5.0425e-09
1.73021e-08
3.83806e-08
3.73577e-08
-2.86923e-08
-1.65984e-08
-7.19723e-09
3.35243e-08
4.21177e-08
1.79213e-08
-1.5246e-08
1.21624e-05
5.12553e-06
-5.1128e-06
-5.72845e-06
-2.39409e-06
-2.25977e-05
2.31914e-06
3.62043e-06
4.36768e-07
3.25586e-07
-1.5925e-07
-5.83297e-07
)
;

boundaryField
{
    top_fluid_surface
    {
        type            calculated;
        value           nonuniform List<scalar> 
64
(
8.61303e-06
1.97917e-05
1.56231e-05
1.43951e-05
-0.000117888
2.19925e-05
1.55007e-05
4.11087e-05
3.04357e-05
2.18057e-05
-0.000110561
1.95349e-05
1.83511e-05
1.18421e-05
1.36864e-05
7.94161e-06
3.31701e-06
5.41817e-06
4.43866e-06
1.62778e-05
1.47177e-05
1.23039e-05
1.96238e-05
2.95218e-05
4.80258e-05
4.69085e-05
2.56709e-05
1.26965e-05
8.55563e-06
1.732e-05
1.76903e-05
1.88595e-05
2.93379e-05
2.06783e-05
1.30756e-05
8.43698e-06
1.52615e-06
-3.84605e-06
-1.24735e-05
-1.85083e-06
-1.0593e-05
-7.29672e-06
9.61199e-06
7.59522e-06
7.39169e-06
5.879e-06
6.33004e-06
8.61223e-06
2.41237e-05
4.82571e-05
3.52316e-05
3.00149e-05
-2.81604e-05
-6.01639e-05
-4.88335e-06
-4.90562e-06
1.28382e-05
1.81735e-05
1.63484e-05
-0.000142208
1.00623e-05
2.09277e-05
4.42683e-05
3.39302e-05
)
;
    }
    bottom_fluid_surface
    {
        type            calculated;
        value           uniform 0;
    }
    lateral_surface_1
    {
        type            calculated;
        value           uniform 0;
    }
    lateral_surface_2
    {
        type            calculated;
        value           uniform 0;
    }
    lateral_surface_3
    {
        type            calculated;
        value           uniform 0;
    }
    lateral_surface_4
    {
        type            calculated;
        value           uniform 0;
    }
}


// ************************************************************************* //
