/*--------------------------------*- C++ -*----------------------------------*\
| =========                 |                                                 |
| \\      /  F ield         | OpenFOAM: The Open Source CFD Toolbox           |
|  \\    /   O peration     | Version:  v1612+                                |
|   \\  /    A nd           | Web:      www.OpenFOAM.com                      |
|    \\/     M anipulation  |                                                 |
\*---------------------------------------------------------------------------*/
FoamFile
{
    version     2.0;
    format      ascii;
    class       volVectorField;
    location    "0.15";
    object      U;
}
// * * * * * * * * * * * * * * * * * * * * * * * * * * * * * * * * * * * * * //

dimensions      [0 1 -1 0 0 0 0];

internalField   nonuniform List<vector> 
320
(
(7.96221e-08 1.01698e-07 5.28622e-08)
(7.31231e-08 -1.5292e-08 -2.31333e-08)
(-1.42082e-07 -7.97785e-08 -7.43792e-08)
(-3.88021e-08 -1.18641e-07 -1.52861e-07)
(7.01441e-06 -9.3366e-06 -6.85572e-06)
(-3.31159e-07 -1.06148e-05 -1.54545e-05)
(2.05057e-06 -9.03396e-06 1.09548e-05)
(8.83732e-06 -3.84108e-05 9.15517e-06)
(7.58999e-06 8.78534e-07 -6.10648e-05)
(3.96953e-06 3.83907e-05 1.65294e-05)
(-3.87816e-06 1.00273e-05 -2.7219e-07)
(1.3067e-06 6.89178e-06 -8.36343e-06)
(-1.68537e-06 1.04932e-05 2.27952e-05)
(-4.07617e-06 3.47262e-05 1.80266e-05)
(-1.82603e-06 -2.54959e-06 -5.9442e-05)
(1.56953e-06 -3.5751e-05 1.46644e-05)
(-1.52893e-06 -6.21383e-07 -9.469e-07)
(1.73509e-06 -7.76461e-07 -5.55454e-07)
(1.00673e-06 -3.24136e-07 4.11787e-07)
(3.91412e-07 -1.54677e-06 2.1271e-07)
(9.52374e-07 3.80997e-07 -5.35419e-07)
(1.36812e-06 1.55621e-06 5.3875e-07)
(1.11351e-06 9.56739e-07 -6.57248e-07)
(-1.32346e-06 5.41047e-07 -3.04009e-07)
(-8.03946e-07 2.86295e-07 3.63927e-07)
(-5.10988e-07 1.49392e-06 2.13784e-07)
(-6.68422e-07 -5.97806e-07 -6.02345e-07)
(-1.91888e-06 -1.61092e-06 6.41052e-07)
(-2.76411e-07 -2.0854e-07 -1.01413e-06)
(3.13664e-07 -2.53362e-07 -5.68505e-07)
(2.29444e-07 -1.68498e-07 5.32977e-07)
(1.46101e-07 -2.50767e-07 3.24894e-07)
(2.51279e-07 4.52599e-08 -6.99069e-07)
(2.87011e-07 2.61618e-07 6.74707e-07)
(1.98162e-07 2.39685e-07 -6.79211e-07)
(-2.4953e-07 1.5177e-07 -2.95113e-07)
(-2.02226e-07 1.15848e-07 4.72396e-07)
(-1.68271e-07 2.10512e-07 2.99204e-07)
(-1.74739e-07 -1.49622e-07 -7.71328e-07)
(-4.07329e-07 -3.4798e-07 7.75573e-07)
(-2.21379e-09 -3.2395e-09 8.53767e-08)
(5.09586e-08 -5.23406e-08 6.80183e-08)
(-9.57073e-08 -3.79258e-08 6.51105e-08)
(1.38548e-08 -5.73357e-08 2.95314e-08)
(-1.52762e-07 -1.60058e-07 -7.74768e-08)
(1.52708e-07 -1.84423e-07 -1.61847e-08)
(1.34564e-07 -1.40201e-07 1.74032e-07)
(1.10928e-07 -1.42093e-07 1.44974e-07)
(1.60953e-07 1.6238e-08 6.94076e-10)
(1.65553e-07 1.32213e-07 1.8748e-07)
(1.05122e-07 1.44654e-07 -2.86768e-08)
(-1.42487e-07 9.97493e-08 3.28094e-08)
(-1.3734e-07 7.71158e-08 1.5622e-07)
(-1.29066e-07 8.29373e-08 1.16395e-07)
(-1.28639e-07 -1.09395e-07 -2.99693e-08)
(-2.18758e-07 -1.90178e-07 1.93022e-07)
(6.8259e-06 -7.60541e-07 1.03874e-05)
(5.70812e-06 -2.89175e-06 7.96858e-06)
(3.00461e-06 -2.25562e-06 8.8794e-06)
(3.82828e-06 -5.96639e-06 5.07152e-06)
(3.03884e-06 -1.99413e-06 1.74631e-06)
(8.77776e-06 -5.61048e-06 3.66629e-06)
(8.63434e-06 -9.2498e-06 5.20172e-06)
(3.76672e-05 3.28417e-07 1.26599e-05)
(4.28934e-06 6.74363e-06 1.20115e-05)
(2.09035e-06 -6.80742e-07 8.54832e-06)
(4.31106e-06 3.5648e-06 1.36309e-05)
(-2.84831e-06 4.07142e-06 2.46784e-05)
(-5.6882e-06 3.19071e-06 -3.73851e-06)
(-2.02704e-06 5.91657e-06 -9.65886e-06)
(5.55988e-06 2.24205e-07 1.02361e-05)
(-9.80346e-06 4.84701e-06 8.37413e-06)
(-8.7296e-06 7.92582e-06 7.51516e-06)
(-3.16043e-05 1.2456e-06 1.22186e-05)
(2.04836e-06 -6.86031e-07 1.13794e-05)
(1.62279e-05 1.23874e-05 1.13924e-05)
(-1.06289e-07 2.41502e-07 3.31481e-07)
(6.35639e-08 -1.73486e-06 3.69578e-07)
(3.27781e-08 -1.18408e-06 4.21725e-07)
(-4.21855e-07 2.65741e-07 3.60544e-07)
(-3.5444e-07 4.36127e-08 5.28695e-08)
(-3.25362e-07 3.68042e-08 1.68761e-07)
(-2.12468e-08 2.8784e-07 1.38126e-07)
(1.4594e-06 2.49153e-07 4.51738e-07)
(-5.41537e-07 -3.76028e-07 3.67341e-07)
(-1.7862e-07 -2.50075e-07 1.0251e-07)
(-3.80393e-07 -3.43871e-07 4.07789e-07)
(2.72183e-07 1.23195e-06 4.74766e-07)
(8.15225e-08 7.42709e-07 2.67322e-07)
(6.29699e-08 -6.11018e-07 4.09641e-07)
(3.70288e-07 -2.9335e-07 1.4954e-07)
(2.25826e-07 -3.29083e-08 2.26273e-07)
(2.45492e-07 -2.6696e-07 1.62022e-07)
(-1.38861e-06 -4.76594e-07 4.31227e-07)
(4.76343e-07 -5.92497e-08 4.93346e-07)
(3.02933e-07 7.40625e-08 3.90582e-07)
(-6.61062e-08 -8.18346e-08 4.81704e-07)
(-1.49959e-08 -3.98837e-07 4.96967e-07)
(3.30809e-08 -3.2131e-07 5.55537e-07)
(-5.22912e-08 -5.38458e-08 4.97918e-07)
(-6.25313e-08 -5.81065e-08 1.45682e-07)
(-1.24234e-08 -5.49702e-08 2.7252e-07)
(4.6732e-08 6.54244e-09 2.45291e-07)
(2.64758e-07 2.22697e-08 5.86365e-07)
(-2.19399e-08 -2.05103e-08 4.92544e-07)
(-9.48389e-09 -1.33892e-08 2.20229e-07)
(-8.91662e-09 2.06059e-08 5.46231e-07)
(7.10457e-08 2.63901e-07 6.02104e-07)
(-1.8245e-08 1.75489e-07 3.49332e-07)
(-6.11002e-09 -6.57088e-08 5.15449e-07)
(5.57e-08 -5.6108e-08 2.37927e-07)
(-1.40155e-08 -1.03906e-08 3.36324e-07)
(-3.2672e-08 -5.22912e-08 2.6982e-07)
(-2.54752e-07 -1.3736e-07 5.73906e-07)
(9.06514e-09 -9.99071e-08 6.47075e-07)
(7.74818e-08 -1.3783e-08 5.50565e-07)
(-4.66627e-08 -6.65398e-08 1.96586e-07)
(-7.96832e-09 -2.26272e-07 1.83508e-07)
(3.11017e-08 -2.10893e-07 1.94813e-07)
(-1.17782e-08 -6.86899e-08 2.04136e-07)
(-9.31345e-09 -7.38468e-08 1.30905e-07)
(2.03751e-08 -6.17166e-08 1.43557e-07)
(6.00583e-08 -2.59526e-08 1.43422e-07)
(1.44127e-07 -2.71087e-09 1.83032e-07)
(1.26884e-08 -1.13995e-08 1.79905e-07)
(1.41528e-08 -4.88178e-09 1.5644e-07)
(4.89871e-09 3.1611e-08 2.01584e-07)
(4.63181e-08 1.52693e-07 1.85577e-07)
(-2.81689e-08 1.18815e-07 1.5197e-07)
(-2.60727e-08 -3.82865e-09 1.80795e-07)
(-7.56894e-09 4.03301e-09 1.24613e-07)
(-3.80187e-08 -3.24451e-09 1.54309e-07)
(-4.67562e-08 -2.92246e-08 1.48198e-07)
(-1.32585e-07 -9.29312e-08 1.86377e-07)
(-1.97084e-08 -7.80818e-08 2.20007e-07)
(3.81643e-08 -1.93809e-08 2.1384e-07)
(-1.95084e-08 -4.04355e-08 7.14944e-09)
(2.31143e-08 -5.89879e-08 3.90256e-09)
(-5.17643e-08 -2.22343e-08 5.07979e-09)
(1.903e-08 -3.25895e-08 -1.13306e-08)
(-6.11285e-08 -1.08025e-07 -3.26116e-08)
(5.58259e-08 -1.19016e-07 -1.91288e-08)
(6.43692e-08 -1.03323e-07 6.04322e-08)
(6.23231e-08 -7.72315e-08 3.88977e-08)
(8.36358e-08 -1.0574e-08 -5.23948e-09)
(7.36969e-08 4.73946e-08 5.83334e-08)
(3.47746e-08 6.80927e-08 -2.79731e-08)
(-6.58081e-08 5.45458e-08 -7.1137e-09)
(-7.70231e-08 4.45741e-08 4.99806e-08)
(-7.82872e-08 1.37101e-08 3.08221e-08)
(-7.31354e-08 -6.83521e-08 -1.36691e-08)
(-9.55923e-08 -1.05339e-07 6.87299e-08)
(-2.66314e-08 -6.3915e-08 6.18135e-08)
(-5.83118e-09 -1.25918e-07 5.64976e-08)
(1.84125e-08 -1.2696e-07 6.40986e-08)
(8.79589e-09 -7.69642e-08 7.2494e-08)
(1.03684e-08 -6.89373e-08 4.22319e-08)
(3.04192e-08 -6.54887e-08 4.8274e-08)
(5.17374e-08 -3.97212e-08 4.65823e-08)
(7.35274e-08 -2.12157e-08 5.78406e-08)
(3.54534e-08 -1.40944e-09 6.11631e-08)
(2.28595e-08 1.60415e-08 4.37689e-08)
(1.41337e-08 4.07197e-08 7.27366e-08)
(1.18788e-08 8.01525e-08 5.68985e-08)
(-2.82457e-08 6.67802e-08 4.36574e-08)
(-3.17553e-08 2.57321e-08 5.95449e-08)
(-2.59849e-08 1.92037e-08 3.7191e-08)
(-4.40082e-08 8.01387e-09 5.14057e-08)
(-5.24845e-08 -1.83465e-08 5.10675e-08)
(-6.91318e-08 -5.77407e-08 6.05714e-08)
(-3.31292e-08 -6.15209e-08 8.13595e-08)
(3.91846e-09 -3.36578e-08 7.11463e-08)
(6.07696e-05 9.559e-06 1.71875e-05)
(1.68491e-05 1.11858e-06 1.11367e-05)
(8.51149e-06 -4.64158e-07 7.57825e-06)
(2.74227e-06 -1.68468e-06 4.88813e-06)
(1.78926e-06 -2.01863e-07 8.20379e-07)
(6.15401e-06 3.54493e-07 3.32484e-06)
(4.7139e-06 -3.31712e-06 -5.09518e-06)
(1.0423e-06 -3.34275e-06 2.94262e-06)
(3.36523e-06 -3.4383e-06 1.14634e-06)
(3.21445e-06 -9.52105e-06 -1.05391e-06)
(3.09398e-06 -3.46596e-06 7.52496e-06)
(-5.79949e-07 2.81353e-06 4.12941e-06)
(-8.36062e-07 5.63558e-07 5.84581e-06)
(6.64329e-07 3.92313e-07 5.27301e-06)
(1.28815e-06 -1.10815e-06 5.54077e-06)
(-7.82633e-07 1.19442e-06 8.33273e-06)
(-3.50569e-06 3.98358e-06 2.96871e-06)
(-5.41039e-07 1.85143e-06 -6.1409e-06)
(1.28197e-06 -1.16737e-06 8.36847e-06)
(9.08999e-06 -1.45696e-06 8.23311e-06)
(9.36822e-06 -4.69792e-06 1.751e-05)
(6.12725e-06 -1.29738e-05 2.28495e-06)
(-3.82976e-06 -3.79625e-06 3.30676e-06)
(-2.51599e-06 1.2926e-05 -1.24752e-06)
(1.17023e-06 8.22684e-06 6.90426e-06)
(4.46544e-06 1.20811e-05 1.07568e-05)
(1.39367e-05 5.79576e-05 9.66568e-06)
(4.99893e-05 4.56148e-05 -7.55238e-05)
(1.50464e-06 -9.04319e-09 3.976e-07)
(-1.09959e-07 -9.8608e-09 3.05151e-07)
(-1.0335e-07 -5.37273e-09 3.2268e-07)
(-2.65507e-07 1.57053e-07 2.54236e-07)
(-2.20956e-07 2.92912e-07 1.0656e-07)
(2.0834e-07 -4.38464e-08 7.83555e-08)
(2.56017e-07 -2.69868e-07 2.75963e-07)
(2.99956e-08 -2.67961e-07 7.57896e-08)
(-5.55571e-08 9.05692e-09 1.06603e-07)
(2.24835e-09 2.37988e-07 1.32407e-07)
(-1.05409e-07 -1.39293e-07 3.02725e-07)
(-3.86197e-07 -8.18098e-08 2.5443e-08)
(1.88809e-07 9.74255e-08 2.41635e-07)
(-3.8697e-08 -1.90895e-07 9.25757e-08)
(-1.0024e-07 3.66111e-08 1.31209e-07)
(-1.13899e-07 -2.69275e-07 1.75315e-07)
(2.69257e-08 -2.29882e-07 2.73512e-07)
(5.19503e-07 -2.40174e-08 2.33478e-07)
(2.32115e-07 -6.67862e-07 -1.63336e-07)
(-4.6201e-07 -1.93164e-07 -6.02763e-09)
(-2.53905e-07 1.64435e-07 1.92611e-07)
(1.03695e-07 7.68192e-08 4.3447e-08)
(1.16265e-07 1.61499e-07 1.32149e-07)
(2.98102e-07 -1.20515e-07 -8.02943e-08)
(2.6271e-07 -3.66956e-07 2.01547e-07)
(4.07741e-07 8.06286e-08 1.65704e-07)
(4.02589e-07 1.2698e-06 1.38356e-07)
(1.60348e-06 1.19185e-06 -4.89251e-07)
(2.79356e-07 6.61483e-09 5.54224e-07)
(-2.22747e-08 -2.764e-08 4.57632e-07)
(-3.69361e-08 -3.72168e-08 4.55871e-07)
(-3.13282e-08 -5.69991e-09 3.69631e-07)
(-3.37592e-08 2.71923e-08 2.03392e-07)
(3.11929e-08 -2.4232e-08 1.54755e-07)
(5.35248e-08 -6.6532e-08 3.78798e-07)
(1.12249e-08 -9.74621e-08 1.51485e-07)
(1.41693e-08 -5.92346e-08 1.87592e-07)
(6.96056e-09 2.6414e-08 2.30248e-07)
(3.4041e-08 -2.34121e-08 4.41335e-07)
(-3.87212e-08 -1.26237e-08 1.24299e-07)
(4.19277e-08 3.17515e-08 3.55048e-07)
(6.41955e-09 -3.37554e-08 1.91651e-07)
(-1.07942e-08 1.75276e-09 2.45976e-07)
(9.72125e-09 -3.24451e-08 2.99269e-07)
(4.32778e-08 -1.68851e-08 3.78295e-07)
(8.00791e-08 -4.67725e-09 3.08375e-07)
(2.93709e-08 -1.15209e-07 -1.27231e-07)
(-7.66674e-08 -4.01582e-08 3.8122e-08)
(-4.2302e-08 1.7158e-08 2.63014e-07)
(1.50143e-08 -3.05699e-09 1.18004e-07)
(1.0749e-08 2.74762e-08 2.12475e-07)
(5.28812e-08 -3.02245e-08 -2.09644e-09)
(3.28158e-08 -1.07885e-07 3.20532e-07)
(8.23564e-08 -1.57467e-08 2.75692e-07)
(1.16976e-07 1.88456e-07 2.36057e-07)
(2.84596e-07 1.74234e-07 -7.0709e-07)
(1.23828e-07 -5.58991e-09 1.93046e-07)
(-1.18673e-08 -2.69846e-08 1.9411e-07)
(-8.40859e-09 -4.03854e-08 1.83462e-07)
(-4.87378e-09 -2.65445e-08 1.67485e-07)
(-2.48186e-09 -4.4101e-09 1.47859e-07)
(2.66121e-08 -3.58409e-08 1.27681e-07)
(2.85392e-08 -4.03358e-08 1.58922e-07)
(2.40444e-08 -7.49271e-08 1.26328e-07)
(2.7459e-08 -7.08296e-08 1.27333e-07)
(1.49315e-08 -1.83412e-08 1.26638e-07)
(3.50705e-08 -3.11321e-08 1.83513e-07)
(-1.34896e-08 2.23831e-09 1.23888e-07)
(4.87085e-08 2.94271e-08 1.67139e-07)
(2.08193e-08 -2.18404e-08 1.34511e-07)
(1.05045e-08 6.04884e-09 1.42446e-07)
(7.97807e-09 -1.81921e-08 1.61847e-07)
(1.79179e-08 2.96942e-09 1.50858e-07)
(1.40351e-08 1.0208e-08 1.32194e-07)
(-2.2558e-08 -3.92347e-08 6.14644e-08)
(-6.39782e-08 6.69325e-09 7.42061e-08)
(-2.70101e-08 1.71745e-08 9.57556e-08)
(-1.65288e-08 2.21307e-08 9.52211e-08)
(-8.91229e-09 3.79284e-08 1.24544e-07)
(2.46442e-08 -1.16297e-08 8.62493e-08)
(8.68287e-09 -8.23475e-08 1.39944e-07)
(3.52281e-08 -1.94281e-08 1.37769e-07)
(6.73367e-08 7.6997e-08 1.15134e-07)
(1.31606e-07 5.86795e-08 -4.795e-08)
(3.65743e-08 -1.233e-08 6.35672e-08)
(-3.33199e-09 -2.22732e-08 6.30024e-08)
(1.916e-09 -3.56295e-08 6.10112e-08)
(6.87182e-09 -3.00206e-08 5.9124e-08)
(6.34681e-09 -2.4089e-08 5.00014e-08)
(1.72406e-08 -2.75716e-08 5.02826e-08)
(1.93725e-08 -3.09614e-08 5.80556e-08)
(1.59828e-08 -6.37858e-08 5.0187e-08)
(2.45241e-08 -6.19541e-08 4.78483e-08)
(1.95176e-08 -3.41235e-08 3.9748e-08)
(3.0122e-08 -2.68582e-08 6.10882e-08)
(1.38754e-08 -3.27341e-09 3.22385e-08)
(2.82582e-08 2.111e-08 6.32349e-08)
(1.8944e-08 2.51913e-09 4.08946e-08)
(1.58437e-08 1.18334e-08 3.68645e-08)
(9.5859e-09 9.53492e-09 4.70797e-08)
(8.71402e-09 1.63811e-08 4.30162e-08)
(-1.13878e-08 1.26996e-08 4.00436e-08)
(-2.94467e-08 -4.76875e-10 1.82868e-08)
(-4.10563e-08 1.03909e-08 3.3514e-08)
(-1.90254e-08 1.45945e-08 4.06309e-08)
(-1.48217e-08 2.27801e-08 3.91572e-08)
(-1.54489e-08 1.80743e-08 4.2765e-08)
(-4.76105e-09 -1.14137e-08 1.91061e-08)
(-8.51587e-09 -4.8997e-08 4.06746e-08)
(3.9828e-09 -3.22886e-08 4.84162e-08)
(2.07165e-08 5.78848e-09 2.38075e-08)
(4.34291e-08 1.03826e-08 -2.31635e-08)
(3.08383e-05 -4.40016e-06 1.07207e-05)
(3.30934e-06 -1.47952e-05 1.42693e-05)
(-5.22442e-06 8.0603e-06 -1.43549e-05)
(-3.43249e-05 5.19313e-06 -5.75344e-06)
(8.98021e-07 9.31295e-07 -8.15778e-09)
(3.30025e-07 3.42201e-07 -8.84079e-08)
(-5.88921e-07 -4.02485e-07 -1.06069e-07)
(-7.42973e-07 -7.2756e-07 -1.53624e-07)
)
;

boundaryField
{
    top_fluid_surface
    {
        type            pressureInletOutletVelocity;
        value           nonuniform List<vector> 
64
(
(7.01441e-06 -9.3366e-06 -6.85572e-06)
(-3.31159e-07 -1.06148e-05 -1.54545e-05)
(2.05057e-06 -9.03396e-06 1.09548e-05)
(8.83732e-06 -3.84108e-05 9.15517e-06)
(0 0 -6.10648e-05)
(3.96953e-06 3.83907e-05 1.65294e-05)
(-3.87816e-06 1.00273e-05 -2.7219e-07)
(1.3067e-06 6.89178e-06 -8.36343e-06)
(-1.68537e-06 1.04932e-05 2.27952e-05)
(-4.07617e-06 3.47262e-05 1.80266e-05)
(0 0 -5.9442e-05)
(1.56953e-06 -3.5751e-05 1.46644e-05)
(6.8259e-06 -7.60541e-07 1.03874e-05)
(5.70812e-06 -2.89175e-06 7.96858e-06)
(3.00461e-06 -2.25562e-06 8.8794e-06)
(3.82828e-06 -5.96639e-06 5.07152e-06)
(3.03884e-06 -1.99413e-06 1.74631e-06)
(8.77776e-06 -5.61048e-06 3.66629e-06)
(8.63434e-06 -9.2498e-06 5.20172e-06)
(3.76672e-05 3.28417e-07 1.26599e-05)
(4.28934e-06 6.74363e-06 1.20115e-05)
(2.09035e-06 -6.80742e-07 8.54832e-06)
(4.31106e-06 3.5648e-06 1.36309e-05)
(-2.84831e-06 4.07142e-06 2.46784e-05)
(-5.6882e-06 3.19071e-06 -3.73851e-06)
(-2.02704e-06 5.91657e-06 -9.65886e-06)
(5.55988e-06 2.24205e-07 1.02361e-05)
(-9.80346e-06 4.84701e-06 8.37413e-06)
(-8.7296e-06 7.92582e-06 7.51516e-06)
(-3.16043e-05 1.2456e-06 1.22186e-05)
(2.04836e-06 -6.86031e-07 1.13794e-05)
(1.62279e-05 1.23874e-05 1.13924e-05)
(6.07696e-05 9.559e-06 1.71875e-05)
(1.68491e-05 1.11858e-06 1.11367e-05)
(8.51149e-06 -4.64158e-07 7.57825e-06)
(2.74227e-06 -1.68468e-06 4.88813e-06)
(1.78926e-06 -2.01863e-07 8.20379e-07)
(0 0 3.32484e-06)
(0 0 -5.09518e-06)
(0 0 2.94262e-06)
(0 0 1.14634e-06)
(0 0 -1.05391e-06)
(3.09398e-06 -3.46596e-06 7.52496e-06)
(-5.79949e-07 2.81353e-06 4.12941e-06)
(-8.36062e-07 5.63558e-07 5.84581e-06)
(6.64329e-07 3.92313e-07 5.27301e-06)
(1.28815e-06 -1.10815e-06 5.54077e-06)
(-7.82633e-07 1.19442e-06 8.33273e-06)
(-3.50569e-06 3.98358e-06 2.96871e-06)
(-5.41039e-07 1.85143e-06 -6.1409e-06)
(1.28197e-06 -1.16737e-06 8.36847e-06)
(9.08999e-06 -1.45696e-06 8.23311e-06)
(0 0 1.751e-05)
(0 0 2.28495e-06)
(0 0 3.30676e-06)
(0 0 -1.24752e-06)
(1.17023e-06 8.22684e-06 6.90426e-06)
(4.46544e-06 1.20811e-05 1.07568e-05)
(1.39367e-05 5.79576e-05 9.66568e-06)
(0 0 -7.55238e-05)
(3.08383e-05 -4.40016e-06 1.07207e-05)
(3.30934e-06 -1.47952e-05 1.42693e-05)
(-5.22442e-06 8.0603e-06 -1.43549e-05)
(-3.43249e-05 5.19313e-06 -5.75344e-06)
)
;
    }
    bottom_fluid_surface
    {
        type            noSlip;
    }
    lateral_surface_1
    {
        type            noSlip;
    }
    lateral_surface_2
    {
        type            noSlip;
    }
    lateral_surface_3
    {
        type            noSlip;
    }
    lateral_surface_4
    {
        type            noSlip;
    }
}


// ************************************************************************* //
