/*--------------------------------*- C++ -*----------------------------------*\
| =========                 |                                                 |
| \\      /  F ield         | OpenFOAM: The Open Source CFD Toolbox           |
|  \\    /   O peration     | Version:  v1612+                                |
|   \\  /    A nd           | Web:      www.OpenFOAM.com                      |
|    \\/     M anipulation  |                                                 |
\*---------------------------------------------------------------------------*/
FoamFile
{
    version     2.0;
    format      ascii;
    class       volScalarField;
    location    "1.25";
    object      alpha.water;
}
// * * * * * * * * * * * * * * * * * * * * * * * * * * * * * * * * * * * * * //

dimensions      [0 0 0 0 0 0 0];

internalField   nonuniform List<scalar> 
1116
(
1
1
1
1
1
1
1
1
1
1
1
1
1
1
1
1
1
1
0.999999
0.999998
0.999998
0.999998
0.999998
0.999998
0.99994
0.99994
0.99994
0.99994
0.99994
0.99994
0.970473
0.970471
0.970472
0.970472
0.970472
0.970473
0.862337
0.862341
0.862342
0.862342
0.862341
0.862338
0.430273
0.430301
0.4303
0.430299
0.430298
0.430276
0.0104549
0.0104589
0.0104588
0.0104586
0.0104586
0.010455
0.000176558
0.00017659
0.000176586
0.000176586
0.000176586
0.000176548
8.45418e-06
8.45765e-06
8.45701e-06
8.45689e-06
8.45717e-06
8.45382e-06
2.84198e-06
2.84354e-06
2.84321e-06
2.84318e-06
2.84357e-06
2.8421e-06
1
1
1
1
1
1
1
1
1
1
1
1
0.999999
0.999999
0.999999
0.999999
0.999999
0.999999
0.99994
0.99994
0.99994
0.99994
0.99994
0.99994
0.825
0.825001
0.825004
0.825004
0.825005
0.825007
0.299722
0.299728
0.299731
0.299732
0.29973
0.299732
0.000156055
0.000156089
0.000156088
0.000156087
0.000156094
0.000156094
8.54079e-06
8.54352e-06
8.54263e-06
8.54229e-06
8.54282e-06
8.5425e-06
0.00537642
0.0053766
0.00537653
0.00537645
0.00537626
0.00537626
0.002617
0.0026174
0.00261729
0.00261727
0.00261738
0.00261681
6.4045e-06
6.40971e-06
6.4092e-06
6.40971e-06
6.412e-06
6.40499e-06
1.97144e-07
1.97266e-07
1.97246e-07
1.97251e-07
1.97289e-07
1.97186e-07
1
1
1
1
1
1
0.999999
0.999999
0.999999
0.999999
0.999999
0.999999
0.998885
0.998885
0.998885
0.998885
0.998885
0.998886
0.707554
0.707559
0.707562
0.707563
0.707565
0.707571
0.123255
0.123256
0.12326
0.12326
0.123261
0.123265
-2.66918e-05
-2.6694e-05
-2.66901e-05
-2.6689e-05
-2.66931e-05
-2.6688e-05
7.51181e-08
7.53876e-08
7.51537e-08
7.51235e-08
7.51997e-08
7.51685e-08
1.59494e-06
1.59509e-06
1.59491e-06
1.59476e-06
1.59456e-06
1.59441e-06
0.000463026
0.000463043
0.000463018
0.000463001
0.000462984
0.000462937
0.00045759
0.000457651
0.000457611
0.000457606
0.000457654
0.000457539
7.20059e-06
7.20432e-06
7.20327e-06
7.2036e-06
7.20601e-06
7.20141e-06
8.60606e-08
8.60817e-08
8.60736e-08
8.60759e-08
8.60812e-08
8.60479e-08
0.999999
0.999999
0.999999
0.999999
0.999999
0.999999
0.996448
0.996449
0.996449
0.996449
0.996449
0.996449
0.546501
0.546507
0.546507
0.546508
0.546509
0.546518
0.0117417
0.0117433
0.0117439
0.0117442
0.0117449
0.0117481
1.31638e-06
1.31696e-06
1.31696e-06
1.31699e-06
1.3171e-06
1.31735e-06
-6.36379e-10
-6.38534e-10
-6.37692e-10
-6.37658e-10
-6.3931e-10
-6.38375e-10
-3.38506e-08
-3.38755e-08
-3.38621e-08
-3.38615e-08
-3.3879e-08
-3.38804e-08
2.27866e-06
2.27874e-06
2.27848e-06
2.27821e-06
2.27776e-06
2.27753e-06
4.23682e-07
4.23698e-07
4.23646e-07
4.23612e-07
4.23594e-07
4.23495e-07
7.23368e-07
7.23687e-07
7.23625e-07
7.23688e-07
7.23942e-07
7.23576e-07
8.12653e-07
8.13048e-07
8.12947e-07
8.13034e-07
8.13413e-07
8.12967e-07
2.89922e-09
2.90035e-09
2.90016e-09
2.90037e-09
2.90083e-09
2.8996e-09
4.54415e-76
4.54821e-76
4.54814e-76
4.54837e-76
4.54902e-76
4.54476e-76
1.65666e-71
1.65821e-71
1.65827e-71
1.65838e-71
1.65869e-71
1.65725e-71
2.9077e-67
2.91044e-67
2.91061e-67
2.91084e-67
2.91143e-67
2.90897e-67
3.23649e-63
3.23959e-63
3.23982e-63
3.24011e-63
3.24082e-63
3.23815e-63
2.5467e-59
2.54919e-59
2.54939e-59
2.54964e-59
2.55021e-59
2.54815e-59
1.50346e-55
1.50495e-55
1.50508e-55
1.50522e-55
1.50557e-55
1.50436e-55
6.94206e-52
6.94901e-52
6.9496e-52
6.95027e-52
6.95188e-52
6.94638e-52
2.60005e-48
2.60266e-48
2.60287e-48
2.60313e-48
2.60375e-48
2.6017e-48
8.21672e-45
8.22496e-45
8.22563e-45
8.22649e-45
8.22854e-45
8.22219e-45
2.35109e-41
2.35343e-41
2.35363e-41
2.3539e-41
2.35454e-41
2.35276e-41
6.11927e-38
6.1254e-38
6.12606e-38
6.12695e-38
6.12887e-38
6.12451e-38
1.24804e-34
1.24935e-34
1.24953e-34
1.24976e-34
1.25021e-34
1.24938e-34
3.20009e-72
3.20299e-72
3.20297e-72
3.20305e-72
3.20347e-72
3.20049e-72
1.16053e-67
1.16162e-67
1.16165e-67
1.16171e-67
1.1619e-67
1.16089e-67
2.01673e-63
2.01864e-63
2.01873e-63
2.01885e-63
2.01923e-63
2.01753e-63
2.2071e-59
2.20922e-59
2.20935e-59
2.20951e-59
2.20995e-59
2.20812e-59
1.6921e-55
1.69375e-55
1.69387e-55
1.694e-55
1.69435e-55
1.69296e-55
9.62737e-52
9.63691e-52
9.63759e-52
9.63832e-52
9.64037e-52
9.63257e-52
4.23719e-48
4.24142e-48
4.24172e-48
4.24204e-48
4.24297e-48
4.23958e-48
1.50566e-44
1.50716e-44
1.50726e-44
1.50739e-44
1.50774e-44
1.50655e-44
4.57151e-41
4.57608e-41
4.57642e-41
4.57684e-41
4.578e-41
4.5745e-41
1.25782e-37
1.25908e-37
1.25919e-37
1.25933e-37
1.25969e-37
1.25877e-37
3.04026e-34
3.04334e-34
3.04369e-34
3.04414e-34
3.04516e-34
3.04308e-34
4.89112e-31
4.89634e-31
4.89704e-31
4.89795e-31
4.89978e-31
4.89655e-31
2.49456e-68
2.49671e-68
2.49679e-68
2.49695e-68
2.49745e-68
2.4954e-68
9.48461e-64
9.49302e-64
9.49361e-64
9.49441e-64
9.49664e-64
9.48936e-64
1.71553e-59
1.71707e-59
1.7172e-59
1.71737e-59
1.7178e-59
1.71651e-59
1.93047e-55
1.93223e-55
1.93239e-55
1.9326e-55
1.9331e-55
1.93167e-55
1.49436e-51
1.49574e-51
1.49588e-51
1.49604e-51
1.49643e-51
1.49533e-51
8.3648e-48
8.37266e-48
8.37339e-48
8.37428e-48
8.37651e-48
8.37041e-48
3.48272e-44
3.48602e-44
3.48632e-44
3.4867e-44
3.48766e-44
3.48514e-44
1.09311e-40
1.09416e-40
1.09425e-40
1.09438e-40
1.0947e-40
1.09392e-40
2.59421e-37
2.59672e-37
2.59698e-37
2.59732e-37
2.59813e-37
2.59633e-37
4.84941e-34
4.85421e-34
4.85474e-34
4.85545e-34
4.85708e-34
4.85378e-34
8.29633e-31
8.30471e-31
8.30566e-31
8.30703e-31
8.31002e-31
8.30447e-31
8.94143e-28
8.95095e-28
8.95209e-28
8.95371e-28
8.95711e-28
8.95112e-28
3.5732e-65
3.57609e-65
3.57619e-65
3.57645e-65
3.57724e-65
3.57442e-65
1.48128e-60
1.48252e-60
1.48259e-60
1.48273e-60
1.48311e-60
1.48201e-60
2.89052e-56
2.89296e-56
2.89314e-56
2.89344e-56
2.89422e-56
2.89213e-56
3.44834e-52
3.4513e-52
3.45153e-52
3.45191e-52
3.45287e-52
3.45041e-52
2.75822e-48
2.76061e-48
2.7608e-48
2.76111e-48
2.76189e-48
2.75993e-48
1.54219e-44
1.54353e-44
1.54364e-44
1.54382e-44
1.54427e-44
1.54318e-44
6.18863e-41
6.19409e-41
6.19453e-41
6.1953e-41
6.19719e-41
6.19288e-41
1.8364e-37
1.83805e-37
1.83819e-37
1.83844e-37
1.83904e-37
1.83779e-37
4.22653e-34
4.23041e-34
4.23079e-34
4.23143e-34
4.2329e-34
4.23006e-34
7.9377e-31
7.94518e-31
7.94596e-31
7.94726e-31
7.95017e-31
7.9449e-31
1.23876e-27
1.23995e-27
1.24007e-27
1.24029e-27
1.24076e-27
1.23994e-27
8.42298e-25
8.43147e-25
8.43231e-25
8.43382e-25
8.43713e-25
8.43147e-25
0.998088
0.998088
0.998088
0.998088
0.998088
0.998088
0.730046
0.73005
0.73005
0.730049
0.730048
0.730054
0.237706
0.237708
0.237708
0.237708
0.237707
0.237712
0.533439
0.533444
0.533444
0.533443
0.533443
0.53345
1.10149e-10
1.10149e-10
1.10179e-10
1.10186e-10
1.10165e-10
1.10165e-10
4.63221e-25
4.63221e-25
4.96308e-25
4.96308e-25
4.63221e-25
4.63221e-25
-2.80362e-07
-2.80545e-07
-2.80534e-07
-2.80541e-07
-2.80559e-07
-2.80607e-07
1.10149e-10
1.10179e-10
1.10208e-10
1.10205e-10
1.10185e-10
1.10165e-10
-8.2279e-12
-8.23836e-12
-8.24089e-12
-8.23898e-12
-8.23798e-12
-8.23621e-12
1.15684e-06
1.1568e-06
1.15682e-06
1.15681e-06
1.1568e-06
1.1567e-06
1.98948e-07
1.98809e-07
1.98864e-07
1.98862e-07
1.98862e-07
1.98838e-07
2.18778e-07
2.19379e-07
2.19498e-07
2.19336e-07
2.19281e-07
2.19292e-07
-6.90707e-09
-6.9266e-09
-6.91506e-09
-6.91219e-09
-6.89398e-09
-6.87445e-09
8.21478e-05
8.21481e-05
8.21485e-05
8.21488e-05
8.2149e-05
8.21491e-05
1.60196e-06
1.6038e-06
1.60431e-06
1.60374e-06
1.60358e-06
1.60383e-06
9.03155e-13
9.03472e-13
9.03334e-13
9.03259e-13
9.03231e-13
9.04404e-13
1.97773e-15
1.97878e-15
1.97861e-15
1.97838e-15
1.97812e-15
3.95337e-15
1.39104e-22
1.38835e-22
1.38725e-22
1.38778e-22
1.3876e-22
1.38606e-22
4.26229e-09
4.26332e-09
4.26266e-09
4.26187e-09
4.26152e-09
4.2608e-09
1.36115e-13
1.36182e-13
1.36169e-13
1.36152e-13
1.36132e-13
1.36037e-13
4.09475e-16
4.11825e-16
4.12956e-16
4.13751e-16
4.1398e-16
4.11944e-16
1.01008e-07
1.01022e-07
1.01008e-07
1.00994e-07
1.00982e-07
1.00953e-07
1.16681e-11
1.16729e-11
1.16716e-11
1.167e-11
1.16681e-11
1.16607e-11
1.33416e-13
1.3348e-13
1.33468e-13
1.3345e-13
1.3343e-13
1.33342e-13
1.15269e-08
1.15285e-08
1.15269e-08
1.15257e-08
1.15251e-08
1.1521e-08
2.53731e-10
2.53793e-10
2.53757e-10
2.53727e-10
2.5371e-10
2.53596e-10
2.3237e-11
2.32465e-11
2.32442e-11
2.32414e-11
2.32381e-11
2.32241e-11
3.15517e-08
3.15575e-08
3.15548e-08
3.15553e-08
3.15628e-08
3.15505e-08
8.85736e-10
8.85948e-10
8.8587e-10
8.85884e-10
8.86097e-10
8.8571e-10
4.10643e-11
4.10885e-11
4.10886e-11
4.10975e-11
4.11206e-11
4.10971e-11
9.90537e-10
9.88841e-10
9.88952e-10
9.89027e-10
9.89575e-10
9.90466e-10
2.84945e-11
2.85154e-11
2.85149e-11
2.85194e-11
2.85322e-11
2.85148e-11
1.19061e-12
1.1916e-12
1.19159e-12
1.19179e-12
1.19234e-12
1.19153e-12
2.01886e-11
2.02041e-11
2.02035e-11
2.02061e-11
2.0214e-11
2.02016e-11
1.06549e-12
1.06716e-12
1.06715e-12
1.06736e-12
1.0677e-12
1.06666e-12
8.03541e-14
8.04016e-14
8.04049e-14
8.04216e-14
8.04593e-14
8.04184e-14
7.52578e-20
7.5327e-20
7.53303e-20
7.5343e-20
7.53738e-20
7.53222e-20
3.94252e-21
3.94624e-21
3.94649e-21
3.94726e-21
3.94899e-21
3.94626e-21
4.73505e-23
4.73951e-23
4.73989e-23
4.74084e-23
4.74293e-23
4.73973e-23
4.7003e-18
4.70454e-18
4.70464e-18
4.70538e-18
4.70729e-18
4.70403e-18
3.30374e-19
3.30684e-19
3.30699e-19
3.30761e-19
3.30907e-19
3.30675e-19
5.50879e-21
5.51399e-21
5.51434e-21
5.51543e-21
5.51789e-21
5.51411e-21
5.30145e-17
5.30606e-17
5.30625e-17
5.30714e-17
5.30933e-17
5.30598e-17
1.92798e-17
1.92976e-17
1.92981e-17
1.93016e-17
1.93101e-17
1.92964e-17
4.3727e-19
4.37678e-19
4.37698e-19
4.37782e-19
4.37981e-19
4.37675e-19
5.67627e-16
5.68088e-16
5.68093e-16
5.68175e-16
5.6839e-16
5.68024e-16
1.19779e-16
1.19883e-16
1.19886e-16
1.19906e-16
1.19958e-16
1.1988e-16
2.38426e-17
2.38644e-17
2.3865e-17
2.38694e-17
2.38803e-17
2.38635e-17
4.75163e-14
4.75495e-14
4.75497e-14
4.75557e-14
4.75715e-14
4.7545e-14
1.23717e-14
1.23833e-14
1.23832e-14
1.23848e-14
1.23895e-14
1.23809e-14
1.15619e-16
1.15725e-16
1.15728e-16
1.15752e-16
1.1581e-16
1.15737e-16
4.44894e-13
4.45246e-13
4.45236e-13
4.45294e-13
4.45467e-13
4.45181e-13
3.68037e-13
3.68363e-13
3.68358e-13
3.68403e-13
3.68531e-13
3.683e-13
5.08802e-15
5.09355e-15
5.09367e-15
5.09426e-15
5.09576e-15
5.09253e-15
7.73526e-62
7.74157e-62
7.7422e-62
7.74335e-62
7.74577e-62
7.74022e-62
7.0346e-65
7.04034e-65
7.0409e-65
7.04196e-65
7.04415e-65
7.03902e-65
1.37025e-68
1.37138e-68
1.37148e-68
1.37167e-68
1.37208e-68
1.37107e-68
4.3868e-57
4.39048e-57
4.39092e-57
4.39165e-57
4.39315e-57
4.3902e-57
5.51882e-60
5.52347e-60
5.52402e-60
5.52493e-60
5.5268e-60
5.52301e-60
1.23611e-63
1.23715e-63
1.23726e-63
1.23746e-63
1.23786e-63
1.237e-63
1.16291e-52
1.16389e-52
1.16402e-52
1.16422e-52
1.16463e-52
1.16386e-52
2.08292e-55
2.0847e-55
2.08491e-55
2.08527e-55
2.08599e-55
2.08458e-55
5.67774e-59
5.68257e-59
5.68314e-59
5.68407e-59
5.68597e-59
5.68204e-59
1.85925e-48
1.86084e-48
1.86104e-48
1.86136e-48
1.86202e-48
1.86079e-48
4.80586e-51
4.80999e-51
4.81048e-51
4.81131e-51
4.81299e-51
4.80974e-51
1.67688e-54
1.67831e-54
1.67847e-54
1.67875e-54
1.67932e-54
1.67816e-54
1.94445e-44
1.94612e-44
1.94632e-44
1.94666e-44
1.94736e-44
1.94608e-44
7.25423e-47
7.26047e-47
7.26118e-47
7.26244e-47
7.26505e-47
7.26019e-47
3.3884e-50
3.39129e-50
3.39161e-50
3.39218e-50
3.39335e-50
3.39104e-50
1.35908e-40
1.36025e-40
1.36039e-40
1.36063e-40
1.36114e-40
1.36026e-40
7.23655e-43
7.24279e-43
7.24352e-43
7.24484e-43
7.24755e-43
7.24282e-43
4.71068e-46
4.7147e-46
4.71515e-46
4.71598e-46
4.71768e-46
4.71455e-46
6.25888e-37
6.26433e-37
6.26499e-37
6.26617e-37
6.2686e-37
6.26464e-37
4.68035e-39
4.68445e-39
4.68496e-39
4.68587e-39
4.68772e-39
4.68473e-39
4.40303e-42
4.40684e-42
4.40731e-42
4.40814e-42
4.40983e-42
4.40699e-42
1.82475e-33
1.82637e-33
1.82657e-33
1.82693e-33
1.82767e-33
1.82652e-33
1.89728e-35
1.89898e-35
1.8992e-35
1.89959e-35
1.90038e-35
1.89917e-35
2.65878e-38
2.66113e-38
2.66143e-38
2.66197e-38
2.66304e-38
2.66135e-38
3.19233e-30
3.19522e-30
3.19556e-30
3.1962e-30
3.19751e-30
3.19549e-30
4.63228e-32
4.63652e-32
4.63704e-32
4.638e-32
4.63996e-32
4.63698e-32
9.85997e-35
9.86884e-35
9.86998e-35
9.87202e-35
9.87607e-35
9.86975e-35
3.19616e-27
3.1991e-27
3.1994e-27
3.20002e-27
3.20134e-27
3.19927e-27
6.5023e-29
6.50831e-29
6.50898e-29
6.51031e-29
6.51308e-29
6.50881e-29
2.12073e-31
2.12265e-31
2.12288e-31
2.12332e-31
2.1242e-31
2.12283e-31
1.77768e-24
1.77933e-24
1.77947e-24
1.7798e-24
1.78054e-24
1.77936e-24
4.98768e-26
4.99234e-26
4.9928e-26
4.9938e-26
4.99595e-26
4.99263e-26
2.5023e-28
2.50461e-28
2.50486e-28
2.50537e-28
2.50643e-28
2.50479e-28
5.15095e-22
5.15574e-22
5.15607e-22
5.15699e-22
5.15911e-22
5.15565e-22
1.96589e-23
1.96775e-23
1.96791e-23
1.9683e-23
1.96916e-23
1.96783e-23
1.54347e-25
1.54491e-25
1.54505e-25
1.54536e-25
1.54603e-25
1.54501e-25
)
;

boundaryField
{
    seabed_topleft_surface
    {
        type            zeroGradient;
    }
    seabed_topright_surface
    {
        type            zeroGradient;
    }
    breakwater_top_surface
    {
        type            zeroGradient;
    }
    breakwater_left_surface
    {
        type            zeroGradient;
    }
    breakwater_right_surface
    {
        type            zeroGradient;
    }
    water_front_surface
    {
        type            zeroGradient;
    }
    water_back_surface
    {
        type            zeroGradient;
    }
    water_left_surface
    {
        type            zeroGradient;
    }
    water_right_surface
    {
        type            zeroGradient;
    }
    water_top_surface
    {
        type            inletOutlet;
        inletValue      uniform 0;
        value           nonuniform List<scalar> 
180
(
0.237706
0.237708
0.237708
0.237708
0.237707
0.237712
0
0
0
0
0
0
0
0
0
0
0
0
0
0
0
0
0
0
0
0
0
0
0
0
0
0
0
0
0
0
0
0
0
0
0
0
1.33416e-13
1.3348e-13
1.33468e-13
1.3345e-13
1.3343e-13
1.33342e-13
2.3237e-11
2.32465e-11
2.32442e-11
2.32414e-11
2.32381e-11
2.32241e-11
4.10643e-11
4.10885e-11
4.10886e-11
4.10975e-11
4.11206e-11
4.10971e-11
1.19061e-12
1.1916e-12
1.19159e-12
1.19179e-12
1.19234e-12
1.19153e-12
8.03541e-14
8.04016e-14
8.04049e-14
8.04216e-14
8.04593e-14
8.04184e-14
4.73505e-23
4.73951e-23
4.73989e-23
4.74084e-23
4.74293e-23
4.73973e-23
5.50879e-21
5.51399e-21
5.51434e-21
5.51543e-21
5.51789e-21
5.51411e-21
4.3727e-19
4.37678e-19
4.37698e-19
4.37782e-19
4.37981e-19
4.37675e-19
2.38426e-17
2.38644e-17
2.3865e-17
2.38694e-17
2.38803e-17
2.38635e-17
1.15619e-16
1.15725e-16
1.15728e-16
1.15752e-16
1.1581e-16
1.15737e-16
5.08802e-15
5.09355e-15
5.09367e-15
5.09426e-15
5.09576e-15
5.09253e-15
1.37025e-68
1.37138e-68
1.37148e-68
1.37167e-68
1.37208e-68
1.37107e-68
1.23611e-63
1.23715e-63
1.23726e-63
1.23746e-63
1.23786e-63
1.237e-63
5.67774e-59
5.68257e-59
5.68314e-59
5.68407e-59
5.68597e-59
5.68204e-59
1.67688e-54
1.67831e-54
1.67847e-54
1.67875e-54
1.67932e-54
1.67816e-54
3.3884e-50
3.39129e-50
3.39161e-50
3.39218e-50
3.39335e-50
3.39104e-50
4.71068e-46
4.7147e-46
4.71515e-46
4.71598e-46
4.71768e-46
4.71455e-46
4.40303e-42
4.40684e-42
4.40731e-42
4.40814e-42
4.40983e-42
4.40699e-42
2.65878e-38
2.66113e-38
2.66143e-38
2.66197e-38
2.66304e-38
2.66135e-38
9.85997e-35
9.86884e-35
9.86998e-35
9.87202e-35
9.87607e-35
9.86975e-35
2.12073e-31
2.12265e-31
2.12288e-31
2.12332e-31
2.1242e-31
2.12283e-31
2.5023e-28
2.50461e-28
2.50486e-28
2.50537e-28
2.50643e-28
2.50479e-28
1.54347e-25
1.54491e-25
1.54505e-25
1.54536e-25
1.54603e-25
1.54501e-25
)
;
    }
}


// ************************************************************************* //
