/*--------------------------------*- C++ -*----------------------------------*\
| =========                 |                                                 |
| \\      /  F ield         | OpenFOAM: The Open Source CFD Toolbox           |
|  \\    /   O peration     | Version:  v1612+                                |
|   \\  /    A nd           | Web:      www.OpenFOAM.com                      |
|    \\/     M anipulation  |                                                 |
\*---------------------------------------------------------------------------*/
FoamFile
{
    version     2.0;
    format      ascii;
    class       volScalarField;
    location    "1.25";
    object      p_rgh;
}
// * * * * * * * * * * * * * * * * * * * * * * * * * * * * * * * * * * * * * //

dimensions      [1 -1 -2 0 0 0 0];

internalField   nonuniform List<scalar> 
1116
(
41161.5
41161.5
41161.4
41161.4
41161.4
41161.4
40213.3
40213.3
40213.3
40213.3
40213.3
40213.3
37597.4
37597.4
37597.4
37597.4
37597.4
37597.4
33705.2
33705.2
33705.2
33705.3
33705.3
33705.3
27425.4
27425.5
27425.5
27425.5
27425.5
27425.5
18265.8
18265.9
18265.9
18265.9
18265.9
18265.9
9210.65
9210.8
9210.79
9210.78
9210.77
9210.74
4066.91
4067.24
4067.25
4067.22
4067.21
4066.97
383.218
383.249
383.254
383.253
383.255
383.232
124.801
124.801
124.801
124.801
124.801
124.8
118.96
118.96
118.957
118.955
118.954
118.954
115.302
115.304
115.303
115.302
115.301
115.3
41499.7
41499.7
41499.7
41499.7
41499.7
41499.6
39855.4
39855.4
39855.4
39855.4
39855.3
39855.4
36592.8
36592.8
36592.8
36592.8
36592.8
36592.7
31180.2
31180.2
31180.2
31180.3
31180.3
31180.3
20147.7
20147.8
20147.8
20147.9
20147.9
20148
5966.9
5967.02
5967.07
5967.09
5967.06
5967.11
63.4484
63.4443
63.445
63.4449
63.4476
63.4514
-149.352
-149.338
-149.337
-149.338
-149.334
-149.326
-136.83
-136.812
-136.811
-136.812
-136.811
-136.804
71.7033
71.7082
71.7045
71.7009
71.7014
71.6924
94.9447
94.9457
94.9443
94.9416
94.9399
94.9382
88.4752
88.4766
88.4763
88.4762
88.4764
88.4757
42231.5
42231.5
42231.5
42231.5
42231.5
42231.5
39522.5
39522.5
39522.5
39522.5
39522.5
39522.5
34959.6
34959.6
34959.6
34959.6
34959.6
34959.6
21552.8
21553
21553.1
21553.1
21553.2
21553.4
3616.56
3616.63
3616.73
3616.76
3616.79
3616.91
-34.4575
-34.4595
-34.4586
-34.4572
-34.453
-34.4468
-33.83
-33.8317
-33.8296
-33.828
-33.8271
-33.8253
-100.661
-100.658
-100.657
-100.656
-100.656
-100.655
-112.624
-112.621
-112.619
-112.618
-112.616
-112.616
-1.42065
-1.41979
-1.42224
-1.42392
-1.42434
-1.42843
47.9592
47.9576
47.9568
47.9564
47.9562
47.9562
45.6943
45.6941
45.693
45.6926
45.6932
45.6927
43201.1
43201.1
43201.1
43201.1
43201.1
43201.1
40633
40632.9
40632.9
40632.9
40632.9
40632.9
20503.4
20503.6
20503.7
20503.7
20503.8
20504.1
439.525
439.585
439.612
439.623
439.649
439.764
-41.8325
-41.8302
-41.8288
-41.8281
-41.8284
-41.8284
-34.6259
-34.6247
-34.6227
-34.6218
-34.6216
-34.6206
-25.5654
-25.5663
-25.5652
-25.5644
-25.5642
-25.5637
-65.1493
-65.1473
-65.1453
-65.1439
-65.1432
-65.1421
-57.0464
-57.047
-57.046
-57.0453
-57.0452
-57.0444
-11.5041
-11.5057
-11.5065
-11.507
-11.5078
-11.5084
19.668
19.6674
19.6669
19.6667
19.6667
19.6662
22.4597
22.4607
22.4613
22.4613
22.4612
22.4611
0.0606993
0.0606861
0.0606769
0.060676
0.060675
0.0606747
0.0636805
0.0636615
0.0636528
0.0636511
0.0636515
0.0636543
0.0698177
0.0697878
0.0697766
0.069775
0.069778
0.0697842
0.0793918
0.0793524
0.0793385
0.0793393
0.0793473
0.0793596
0.092789
0.0927463
0.0927336
0.0927369
0.0927509
0.0927697
0.110436
0.110393
0.110382
0.110388
0.110407
0.11043
0.1327
0.132657
0.132644
0.132652
0.132674
0.1327
0.159912
0.159866
0.15985
0.15986
0.159884
0.159912
0.19181
0.191759
0.19174
0.191753
0.19178
0.191813
0.2266
0.226541
0.226529
0.226546
0.226579
0.226618
0.258599
0.25854
0.258535
0.258559
0.258599
0.258646
0.286226
0.286197
0.286205
0.286236
0.286281
0.286334
0.0578294
0.0578208
0.0578154
0.0578149
0.0578152
0.057817
0.0608317
0.0608184
0.0608126
0.060812
0.0608148
0.0608205
0.0670262
0.0670054
0.0669979
0.0669996
0.0670068
0.0670191
0.0767477
0.0767214
0.0767144
0.0767207
0.0767349
0.0767566
0.0904515
0.0904243
0.0904212
0.0904322
0.0904541
0.0904847
0.108626
0.1086
0.108599
0.108614
0.108643
0.108679
0.131563
0.131535
0.131533
0.131551
0.131584
0.131624
0.15896
0.158926
0.158923
0.158942
0.158977
0.159021
0.190061
0.19002
0.190017
0.190038
0.190077
0.190128
0.224666
0.224615
0.224617
0.224644
0.22469
0.224752
0.261512
0.261468
0.261481
0.261517
0.261573
0.261646
0.297477
0.297468
0.297493
0.297537
0.297601
0.297686
0.0521809
0.0521746
0.0521709
0.0521705
0.052171
0.0521727
0.0550874
0.0550774
0.0550726
0.0550729
0.0550761
0.0550816
0.0611154
0.0610999
0.0610947
0.0610983
0.0611063
0.0611184
0.0706822
0.0706633
0.0706605
0.070669
0.0706842
0.0707052
0.0844232
0.0844042
0.0844051
0.084419
0.0844418
0.0844709
0.10322
0.103201
0.103202
0.103221
0.10325
0.103285
0.128344
0.128319
0.128322
0.128343
0.128376
0.128416
0.162096
0.162063
0.162066
0.16209
0.162128
0.162175
0.207281
0.207239
0.207247
0.207275
0.20732
0.207378
0.264924
0.264884
0.264897
0.264932
0.264984
0.265052
0.325702
0.325676
0.325698
0.325742
0.325803
0.325877
0.390707
0.390712
0.390743
0.39079
0.390852
0.390927
0.0439102
0.0439059
0.0439032
0.0439028
0.0439033
0.0439047
0.0465607
0.0465538
0.0465502
0.0465509
0.0465538
0.0465585
0.052098
0.0520875
0.0520847
0.0520887
0.052096
0.0521064
0.0610037
0.0609918
0.0609916
0.0610003
0.0610141
0.0610319
0.0740519
0.0740401
0.0740427
0.0740564
0.0740767
0.0741013
0.0923099
0.0922955
0.0922995
0.0923173
0.0923431
0.0923732
0.116913
0.116891
0.116897
0.116918
0.116948
0.116985
0.148453
0.148423
0.148431
0.148456
0.148493
0.14854
0.187252
0.18722
0.187234
0.187266
0.187312
0.187371
0.234699
0.234677
0.2347
0.234741
0.234795
0.234862
0.299554
0.299548
0.299576
0.29962
0.299677
0.299742
0.360981
0.360983
0.361004
0.361039
0.361086
0.361139
53541.9
53541.9
53541.9
53541.9
53541.9
53541.9
39421.7
39421.9
39421.9
39421.8
39421.8
39422.1
14734.5
14734.6
14734.6
14734.6
14734.6
14734.9
26210.9
26211.2
26211.2
26211.1
26211.1
26211.5
27.4911
27.4927
27.4947
27.497
27.4994
27.4988
-56.3728
-56.3722
-56.3728
-56.3731
-56.3728
-56.373
2.93892
2.93654
2.93834
2.94065
2.94263
2.94511
-7.79223
-7.79108
-7.78994
-7.78886
-7.7879
-7.78734
-36.0827
-36.0822
-36.0824
-36.0827
-36.0828
-36.0832
-37.4704
-37.4709
-37.4701
-37.4698
-37.4712
-37.4737
-17.4358
-17.4338
-17.433
-17.4331
-17.4335
-17.4344
-13.7973
-13.7974
-13.7977
-13.7981
-13.7984
-13.7988
-39.5208
-39.5198
-39.5189
-39.5191
-39.5199
-39.5204
-20.7031
-20.7028
-20.7025
-20.7028
-20.7034
-20.7038
-6.0961
-6.09624
-6.09631
-6.09635
-6.09633
-6.09644
-31.7753
-31.7752
-31.7744
-31.7739
-31.7737
-31.7732
-18.1447
-18.1448
-18.1446
-18.1447
-18.145
-18.1452
-4.39037
-4.39024
-4.39017
-4.39007
-4.39001
-4.39007
-27.5462
-27.5462
-27.5459
-27.5459
-27.5453
-27.5433
-14.9973
-14.9963
-14.9956
-14.995
-14.9953
-14.9971
-4.43141
-4.43122
-4.43104
-4.43094
-4.431
-4.43116
-29.437
-29.4363
-29.4357
-29.4353
-29.4351
-29.4344
-14.4378
-14.4371
-14.4367
-14.4367
-14.4368
-14.4371
-4.29294
-4.29277
-4.29267
-4.29266
-4.29269
-4.29276
-22.2925
-22.292
-22.2915
-22.2913
-22.2914
-22.2912
-8.66366
-8.66289
-8.66249
-8.66245
-8.66254
-8.66274
-2.33843
-2.3382
-2.33815
-2.3382
-2.33831
-2.33847
-1.5508
-1.54979
-1.54892
-1.5485
-1.54836
-1.54853
0.770285
0.771134
0.77159
0.771659
0.771609
0.771253
0.191062
0.191208
0.191199
0.191067
0.190874
0.190598
10.7018
10.7033
10.7042
10.7046
10.7047
10.7045
5.77199
5.7725
5.77272
5.77262
5.77236
5.77187
1.79603
1.79601
1.79587
1.79564
1.79536
1.79502
11.0501
11.051
11.0515
11.0515
11.0511
11.0505
7.45099
7.45096
7.45076
7.45042
7.44993
7.44935
2.96017
2.96005
2.95986
2.95965
2.9594
2.95912
1.17063
1.17059
1.17056
1.17054
1.17053
1.17053
0.968823
0.968796
0.968763
0.968745
0.968739
0.968742
0.422678
0.422668
0.422651
0.422636
0.422628
0.42263
1.56731
1.56725
1.56719
1.56716
1.56714
1.56716
1.36732
1.36728
1.36723
1.3672
1.3672
1.36722
0.604564
0.604552
0.604529
0.604511
0.604505
0.604518
2.04337
2.04329
2.04322
2.04317
2.04315
2.04318
1.9227
1.92265
1.92261
1.92258
1.92258
1.92262
0.863655
0.863644
0.863621
0.863602
0.863606
0.863627
2.70536
2.70527
2.70515
2.70503
2.70495
2.70493
2.74712
2.74708
2.74703
2.74697
2.74695
2.74697
1.2243
1.22429
1.22427
1.22425
1.22426
1.22428
2.91089
2.9107
2.91048
2.91021
2.90994
2.90975
3.81266
3.81258
3.81246
3.81232
3.81218
3.81205
1.70739
1.70739
1.70736
1.70732
1.70729
1.70727
0.296379
0.296076
0.29573
0.295218
0.294598
0.294111
4.83977
4.83958
4.83931
4.83901
4.83865
4.83829
2.31953
2.31948
2.31939
2.3193
2.31918
2.31904
0.0333089
0.0333064
0.0333041
0.0333039
0.0333044
0.0333055
0.0208349
0.0208335
0.0208324
0.0208324
0.0208328
0.0208336
0.00723572
0.00723554
0.00723553
0.00723567
0.00723604
0.00723659
0.0354408
0.0354366
0.0354343
0.0354352
0.0354376
0.0354411
0.022216
0.0222141
0.0222134
0.0222141
0.0222157
0.0222181
0.00773444
0.00773426
0.00773442
0.00773485
0.00773566
0.00773685
0.0399384
0.0399327
0.0399318
0.0399354
0.0399414
0.0399493
0.0251502
0.0251484
0.0251489
0.0251514
0.0251555
0.0251607
0.0088013
0.00880141
0.00880203
0.0088031
0.00880473
0.00880697
0.0473098
0.0473043
0.0473057
0.0473131
0.047324
0.0473375
0.0300198
0.0300186
0.0300207
0.0300257
0.0300329
0.0300416
0.0105937
0.0105941
0.0105953
0.010597
0.0105996
0.010603
0.0584553
0.0584492
0.0584527
0.0584641
0.05848
0.0584987
0.037515
0.0375134
0.037517
0.0375245
0.0375349
0.0375469
0.0134012
0.0134015
0.013403
0.0134055
0.0134091
0.0134138
0.0749273
0.0749185
0.074924
0.0749383
0.0749586
0.0749825
0.0488382
0.0488342
0.0488392
0.0488491
0.0488628
0.0488793
0.0177449
0.0177448
0.0177471
0.0177507
0.0177561
0.0177634
0.0996668
0.0996511
0.0996585
0.0996762
0.0997016
0.0997333
0.0661049
0.0660978
0.066105
0.0661183
0.0661369
0.0661608
0.0245799
0.0245801
0.0245843
0.0245906
0.0245995
0.0246117
0.138213
0.138193
0.138204
0.138227
0.13826
0.138303
0.0929814
0.0929735
0.0929851
0.093004
0.0930295
0.093063
0.0356797
0.0356822
0.0356898
0.0357
0.0357129
0.0357313
0.200747
0.20073
0.200748
0.200779
0.200821
0.200874
0.136222
0.136221
0.136238
0.136263
0.136294
0.136333
0.0544463
0.0544524
0.0544627
0.0544753
0.05449
0.054508
0.303706
0.303705
0.303731
0.303767
0.303812
0.303865
0.20823
0.208238
0.208257
0.208283
0.208312
0.208346
0.0872114
0.0872182
0.0872266
0.0872361
0.0872463
0.0872576
0.477719
0.477732
0.477755
0.477786
0.477823
0.47786
0.33989
0.339901
0.339915
0.339932
0.339954
0.33997
0.147894
0.147896
0.147897
0.147898
0.147902
0.147904
0.740949
0.740967
0.740977
0.740991
0.741012
0.741041
0.571742
0.571742
0.571739
0.571739
0.571748
0.571767
0.254923
0.254919
0.254911
0.254904
0.254903
0.254913
)
;

boundaryField
{
    seabed_topleft_surface
    {
        type            fixedFluxPressure;
        gradient        uniform 0;
        value           nonuniform List<scalar> 
72
(
41161.5
41161.5
41161.4
41161.4
41161.4
41161.4
40213.3
40213.3
40213.3
40213.3
40213.3
40213.3
37597.4
37597.4
37597.4
37597.4
37597.4
37597.4
33705.2
33705.2
33705.2
33705.3
33705.3
33705.3
27425.4
27425.5
27425.5
27425.5
27425.5
27425.5
18265.8
18265.9
18265.9
18265.9
18265.9
18265.9
9210.65
9210.8
9210.79
9210.78
9210.77
9210.74
4066.91
4067.24
4067.25
4067.22
4067.21
4066.97
383.218
383.249
383.254
383.253
383.255
383.232
124.801
124.801
124.801
124.801
124.801
124.8
118.96
118.96
118.957
118.955
118.954
118.954
115.302
115.304
115.303
115.302
115.301
115.3
)
;
    }
    seabed_topright_surface
    {
        type            fixedFluxPressure;
        gradient        uniform 0;
        value           nonuniform List<scalar> 
72
(
0.0606993
0.0606861
0.0606769
0.060676
0.060675
0.0606747
0.0636805
0.0636615
0.0636528
0.0636511
0.0636515
0.0636543
0.0698177
0.0697878
0.0697766
0.069775
0.069778
0.0697842
0.0793918
0.0793524
0.0793385
0.0793393
0.0793473
0.0793596
0.092789
0.0927463
0.0927336
0.0927369
0.0927509
0.0927697
0.110436
0.110393
0.110382
0.110388
0.110407
0.11043
0.1327
0.132657
0.132644
0.132652
0.132674
0.1327
0.159912
0.159866
0.15985
0.15986
0.159884
0.159912
0.19181
0.191759
0.19174
0.191753
0.19178
0.191813
0.2266
0.226541
0.226529
0.226546
0.226579
0.226618
0.258599
0.25854
0.258535
0.258559
0.258599
0.258646
0.286226
0.286197
0.286205
0.286236
0.286281
0.286334
)
;
    }
    breakwater_top_surface
    {
        type            fixedFluxPressure;
        gradient        uniform 0;
        value           nonuniform List<scalar> 
36
(
1.17063
1.17059
1.17056
1.17054
1.17053
1.17053
1.56731
1.56725
1.56719
1.56716
1.56714
1.56716
2.04337
2.04329
2.04322
2.04317
2.04315
2.04318
2.70536
2.70527
2.70515
2.70503
2.70495
2.70493
2.91089
2.9107
2.91048
2.91021
2.90994
2.90975
0.296379
0.296076
0.29573
0.295218
0.294598
0.294111
)
;
    }
    breakwater_left_surface
    {
        type            fixedFluxPressure;
        gradient        uniform 0;
        value           nonuniform List<scalar> 
24
(
115.302
115.304
115.303
115.302
115.301
115.3
88.4752
88.4766
88.4763
88.4762
88.4764
88.4757
45.6943
45.6941
45.693
45.6926
45.6932
45.6927
22.4597
22.4607
22.4613
22.4613
22.4612
22.4611
)
;
    }
    breakwater_right_surface
    {
        type            fixedFluxPressure;
        gradient        uniform 0;
        value           nonuniform List<scalar> 
24
(
0.286226
0.286197
0.286205
0.286236
0.286281
0.286334
0.297477
0.297468
0.297493
0.297537
0.297601
0.297686
0.390707
0.390712
0.390743
0.39079
0.390852
0.390927
0.360981
0.360983
0.361004
0.361039
0.361086
0.361139
)
;
    }
    water_front_surface
    {
        type            fixedFluxPressure;
        gradient        uniform 0;
        value           nonuniform List<scalar> 
186
(
41161.5
40213.3
37597.4
33705.2
27425.4
18265.8
9210.65
4066.91
383.218
124.801
118.96
115.302
41499.7
39855.4
36592.8
31180.2
20147.7
5966.9
63.4484
-149.352
-136.83
71.7033
94.9447
88.4752
42231.5
39522.5
34959.6
21552.8
3616.56
-34.4575
-33.83
-100.661
-112.624
-1.42065
47.9592
45.6943
43201.1
40633
20503.4
439.525
-41.8325
-34.6259
-25.5654
-65.1493
-57.0464
-11.5041
19.668
22.4597
0.0606993
0.0636805
0.0698177
0.0793918
0.092789
0.110436
0.1327
0.159912
0.19181
0.2266
0.258599
0.286226
0.0578294
0.0608317
0.0670262
0.0767477
0.0904515
0.108626
0.131563
0.15896
0.190061
0.224666
0.261512
0.297477
0.0521809
0.0550874
0.0611154
0.0706822
0.0844232
0.10322
0.128344
0.162096
0.207281
0.264924
0.325702
0.390707
0.0439102
0.0465607
0.052098
0.0610037
0.0740519
0.0923099
0.116913
0.148453
0.187252
0.234699
0.299554
0.360981
53541.9
39421.7
14734.5
26210.9
27.4911
-56.3728
2.93892
-7.79223
-36.0827
-37.4704
-17.4358
-13.7973
-39.5208
-20.7031
-6.0961
-31.7753
-18.1447
-4.39037
-27.5462
-14.9973
-4.43141
-29.437
-14.4378
-4.29294
-22.2925
-8.66366
-2.33843
-1.5508
0.770285
0.191062
10.7018
5.77199
1.79603
11.0501
7.45099
2.96017
1.17063
0.968823
0.422678
1.56731
1.36732
0.604564
2.04337
1.9227
0.863655
2.70536
2.74712
1.2243
2.91089
3.81266
1.70739
0.296379
4.83977
2.31953
0.0333089
0.0208349
0.00723572
0.0354408
0.022216
0.00773444
0.0399384
0.0251502
0.0088013
0.0473098
0.0300198
0.0105937
0.0584553
0.037515
0.0134012
0.0749273
0.0488382
0.0177449
0.0996668
0.0661049
0.0245799
0.138213
0.0929814
0.0356797
0.200747
0.136222
0.0544463
0.303706
0.20823
0.0872114
0.477719
0.33989
0.147894
0.740949
0.571742
0.254923
)
;
    }
    water_back_surface
    {
        type            fixedFluxPressure;
        gradient        uniform 0;
        value           nonuniform List<scalar> 
186
(
41161.4
40213.3
37597.4
33705.3
27425.5
18265.9
9210.74
4066.97
383.232
124.8
118.954
115.3
41499.6
39855.4
36592.7
31180.3
20148
5967.11
63.4514
-149.326
-136.804
71.6924
94.9382
88.4757
42231.5
39522.5
34959.6
21553.4
3616.91
-34.4468
-33.8253
-100.655
-112.616
-1.42843
47.9562
45.6927
43201.1
40632.9
20504.1
439.764
-41.8284
-34.6206
-25.5637
-65.1421
-57.0444
-11.5084
19.6662
22.4611
0.0606747
0.0636543
0.0697842
0.0793596
0.0927697
0.11043
0.1327
0.159912
0.191813
0.226618
0.258646
0.286334
0.057817
0.0608205
0.0670191
0.0767566
0.0904847
0.108679
0.131624
0.159021
0.190128
0.224752
0.261646
0.297686
0.0521727
0.0550816
0.0611184
0.0707052
0.0844709
0.103285
0.128416
0.162175
0.207378
0.265052
0.325877
0.390927
0.0439047
0.0465585
0.0521064
0.0610319
0.0741013
0.0923732
0.116985
0.14854
0.187371
0.234862
0.299742
0.361139
53541.9
39422.1
14734.9
26211.5
27.4988
-56.373
2.94511
-7.78734
-36.0832
-37.4737
-17.4344
-13.7988
-39.5204
-20.7038
-6.09644
-31.7732
-18.1452
-4.39007
-27.5433
-14.9971
-4.43116
-29.4344
-14.4371
-4.29276
-22.2912
-8.66274
-2.33847
-1.54853
0.771253
0.190598
10.7045
5.77187
1.79502
11.0505
7.44935
2.95912
1.17053
0.968742
0.42263
1.56716
1.36722
0.604518
2.04318
1.92262
0.863627
2.70493
2.74697
1.22428
2.90975
3.81205
1.70727
0.294111
4.83829
2.31904
0.0333055
0.0208336
0.00723659
0.0354411
0.0222181
0.00773685
0.0399493
0.0251607
0.00880697
0.0473375
0.0300416
0.010603
0.0584987
0.0375469
0.0134138
0.0749825
0.0488793
0.0177634
0.0997333
0.0661608
0.0246117
0.138303
0.093063
0.0357313
0.200874
0.136333
0.054508
0.303865
0.208346
0.0872576
0.47786
0.33997
0.147904
0.741041
0.571767
0.254913
)
;
    }
    water_left_surface
    {
        type            fixedFluxPressure;
        gradient        uniform 0;
        value           nonuniform List<scalar> 
42
(
41161.5
41161.5
41161.4
41161.4
41161.4
41161.4
41499.7
41499.7
41499.7
41499.7
41499.7
41499.6
42231.5
42231.5
42231.5
42231.5
42231.5
42231.5
43201.1
43201.1
43201.1
43201.1
43201.1
43201.1
53541.9
53541.9
53541.9
53541.9
53541.9
53541.9
39421.7
39421.9
39421.9
39421.8
39421.8
39422.1
14734.5
14734.6
14734.6
14734.6
14734.6
14734.9
)
;
    }
    water_right_surface
    {
        type            fixedFluxPressure;
        gradient        uniform 0;
        value           nonuniform List<scalar> 
42
(
0.0606993
0.0606861
0.0606769
0.060676
0.060675
0.0606747
0.0578294
0.0578208
0.0578154
0.0578149
0.0578152
0.057817
0.0521809
0.0521746
0.0521709
0.0521705
0.052171
0.0521727
0.0439102
0.0439059
0.0439032
0.0439028
0.0439033
0.0439047
0.0333089
0.0333064
0.0333041
0.0333039
0.0333044
0.0333055
0.0208349
0.0208335
0.0208324
0.0208324
0.0208328
0.0208336
0.00723572
0.00723554
0.00723553
0.00723567
0.00723604
0.00723659
)
;
    }
    water_top_surface
    {
        type            totalPressure;
        rho             rho;
        psi             none;
        gamma           1;
        p0              uniform 0;
        value           nonuniform List<scalar> 
180
(
0
0
0
0
0
0
-54.9623
-54.9621
-54.9658
-54.967
-54.9659
-54.9638
-24.1022
-24.1012
-24.1037
-24.1052
-24.1057
-24.105
-5.73546
-5.73647
-5.737
-5.73752
-5.73768
-5.73715
-2.2153
-2.21593
-2.21567
-2.21538
-2.21504
-2.2145
-0.629445
-0.629495
-0.629441
-0.629369
-0.629278
-0.629178
-0.375115
-0.375001
-0.374936
-0.374898
-0.37486
-0.374848
0
0
0
0
0
0
0
0
0
0
0
0
0
0
0
0
0
0
0
0
0
0
0
0
0
0
0
0
0
0
0
0
0
0
0
0
0
0
0
0
0
0
0
0
0
0
0
0
0
0
0
0
0
0
0
0
0
0
0
0
0
0
0
0
0
0
0
0
0
0
0
0
0
0
0
0
0
0
0
0
0
0
0
0
0
0
0
0
0
0
0
0
0
0
0
0
0
0
0
0
0
0
0
0
0
0
0
0
0
0
0
0
0
0
0
0
0
0
0
0
0
0
0
0
0
0
0
0
0
0
0
0
0
0
0
0
0
0
)
;
    }
}


// ************************************************************************* //
