/*--------------------------------*- C++ -*----------------------------------*\
| =========                 |                                                 |
| \\      /  F ield         | OpenFOAM: The Open Source CFD Toolbox           |
|  \\    /   O peration     | Version:  v1612+                                |
|   \\  /    A nd           | Web:      www.OpenFOAM.com                      |
|    \\/     M anipulation  |                                                 |
\*---------------------------------------------------------------------------*/
FoamFile
{
    version     2.0;
    format      ascii;
    class       surfaceScalarField;
    location    "1.25";
    object      phi;
}
// * * * * * * * * * * * * * * * * * * * * * * * * * * * * * * * * * * * * * //

dimensions      [0 3 -1 0 0 0 0];

internalField   nonuniform List<scalar> 
2916
(
1.89499e-07
0.346799
-0.346799
2.3437e-07
0.3468
-0.3468
4.71084e-07
0.3468
-0.3468
1.01248e-06
0.3468
-0.3468
1.24715e-06
0.3468
-0.3468
0.3468
-0.346798
7.46508e-07
0.799294
-0.452496
1.026e-06
0.799297
-0.452497
1.57542e-06
0.799296
-0.452496
1.50112e-06
0.799295
-0.452495
9.48638e-07
0.799295
-0.452494
0.799293
-0.452492
2.79795e-06
1.37345
-0.574161
4.90383e-06
1.37346
-0.574161
4.9968e-06
1.37345
-0.574158
3.61994e-06
1.37345
-0.574156
1.75133e-06
1.37345
-0.574155
1.37345
-0.574153
-8.6175e-07
2.10222
-0.728762
4.18973e-06
2.10222
-0.728766
4.00324e-06
2.10221
-0.72876
2.28742e-06
2.10221
-0.728758
1.30585e-06
2.10221
-0.728759
2.10221
-0.72876
-1.46165e-05
2.9261
-0.823872
-1.50101e-06
2.92611
-0.823903
4.26436e-06
2.9261
-0.823897
5.7524e-06
2.92611
-0.823895
7.42532e-06
2.92611
-0.823897
2.92611
-0.823892
-2.50826e-05
3.72777
-0.801642
-7.72256e-06
3.7278
-0.801711
2.58865e-06
3.7278
-0.801704
5.65412e-06
3.7278
-0.801699
6.22852e-06
3.72781
-0.801701
3.7278
-0.801691
-1.78412e-05
4.68449
-0.956706
-7.2268e-06
4.68455
-0.956758
2.77882e-07
4.68454
-0.956745
3.03213e-06
4.68454
-0.95674
2.84089e-06
4.68456
-0.956751
4.68454
-0.956734
8.6874e-06
6.26339
-1.57891
6.56354e-06
6.26342
-1.57887
-1.20523e-05
6.2634
-1.57885
-2.96899e-05
6.26341
-1.57885
-1.04863e-05
6.26344
-1.57891
6.26341
-1.57888
-8.29361e-05
5.60708
0.656402
-3.75295e-05
5.60718
0.65619
-2.38978e-05
5.60717
0.656223
-3.66945e-05
5.60719
0.656232
1.46731e-05
5.6072
0.656195
5.60698
0.656444
3.62384e-05
3.75891
1.84813
2.33161e-05
3.75916
1.84803
3.45871e-05
3.75909
1.84806
5.91738e-05
3.7591
1.84807
0.000121265
3.75906
1.84807
3.75876
1.84834
0.000150056
1.78085
1.97791
0.000240549
1.78116
1.97792
0.00032325
1.7811
1.97791
0.000402309
1.78106
1.97796
0.000358446
1.78102
1.97809
1.78081
1.9783
5.47305e-05
1.78079
0.00025778
1.78094
0.000351217
1.781
0.000381161
1.78103
0.000317772
1.78108
1.78113
4.63396e-07
0.323793
-0.670593
3.35638e-07
0.323794
-0.670594
3.86155e-07
0.323793
-0.670594
3.69238e-07
0.323793
-0.670593
5.29694e-08
0.323793
-0.670593
0.323793
-0.670591
3.19919e-06
0.71797
-0.846676
2.86307e-06
0.717976
-0.846678
2.25358e-06
0.717974
-0.846676
7.14317e-07
0.717974
-0.846674
-5.90317e-07
0.717974
-0.846674
0.717972
-0.846672
7.93589e-06
1.18747
-1.04367
8.00016e-06
1.18748
-1.04367
4.64015e-06
1.18748
-1.04366
1.89069e-06
1.18748
-1.04366
2.06819e-06
1.18748
-1.04366
1.18747
-1.04365
1.82497e-06
1.9134
-1.4547
6.35876e-06
1.91342
-1.45471
4.15316e-06
1.91342
-1.4547
2.93547e-06
1.91342
-1.4547
4.68252e-06
1.91342
-1.4547
1.91341
-1.4547
-7.76433e-06
2.95907
-1.86953
6.31914e-06
2.95911
-1.86961
1.03659e-05
2.95911
-1.86959
1.06596e-05
2.95911
-1.86959
9.87574e-06
2.95911
-1.86959
2.9591
-1.86957
-1.22203e-05
4.15035
-1.99291
8.87212e-06
4.15047
-1.99309
1.59751e-05
4.15046
-1.99306
1.4707e-05
4.15046
-1.99305
1.28241e-05
4.15047
-1.99306
4.15048
-1.99305
5.00097e-05
4.44608
-1.25248
1.40619e-05
4.44643
-1.25269
-8.52006e-07
4.44638
-1.25265
-7.16883e-06
4.44637
-1.25264
-1.01096e-05
4.44642
-1.2527
4.44642
-1.25269
-0.000161329
5.28721
-2.41988
-0.000202653
5.28759
-2.41999
-0.000170027
5.28753
-2.42003
-0.000121018
5.28751
-2.42004
-0.000128289
5.28766
-2.42013
5.28743
-2.42002
-0.000114548
4.96861
0.975118
-0.000230927
4.96889
0.975
-0.000275729
4.96881
0.974984
-0.000296608
4.96882
0.974951
-0.000373904
4.96902
0.974903
4.96842
0.975075
-6.14823e-05
3.18925
3.62755
-0.000188537
3.18967
3.62739
-0.000186709
3.18951
3.62736
-0.000154303
3.1895
3.62735
-0.000107058
3.18967
3.62738
3.18908
3.62758
0.000218209
1.32377
3.84317
0.000375182
1.32416
3.84326
0.000375376
1.32409
3.84333
0.00030554
1.32407
3.84345
0.000264996
1.32414
3.84367
1.32387
3.84378
-6.26874e-05
3.10463
0.000183998
3.10486
0.000296255
3.10498
0.000300517
3.1051
0.000285913
3.10524
3.10529
3.49358e-06
0.21347
-0.884067
3.88935e-06
0.213474
-0.884069
3.97009e-06
0.213473
-0.884067
3.28474e-06
0.213474
-0.884066
1.4029e-06
0.213474
-0.884066
0.213473
-0.884063
9.63847e-06
0.410078
-1.04329
9.30289e-06
0.41009
-1.04329
6.42698e-06
0.410091
-1.04329
3.94854e-06
0.410092
-1.04329
3.27746e-06
0.410092
-1.04329
0.410088
-1.04328
1.01053e-05
0.921668
-1.55527
8.71927e-06
0.921692
-1.55527
4.40434e-06
0.921692
-1.55526
3.16548e-06
0.921691
-1.55526
4.92587e-06
0.921688
-1.55526
0.921678
-1.55524
1.38702e-05
1.8741
-2.40715
1.66165e-05
1.87415
-2.40718
1.84295e-05
1.87415
-2.40716
2.09643e-05
1.87415
-2.40716
1.90666e-05
1.87414
-2.40716
1.87412
-2.40712
4.62815e-05
2.89589
-2.89137
5.47676e-05
2.89604
-2.8915
4.90737e-05
2.89604
-2.89148
4.29789e-05
2.89604
-2.89147
2.36237e-05
2.89605
-2.89148
2.89602
-2.89145
9.0936e-05
2.49481
-1.59193
8.11788e-05
2.49521
-1.59226
8.41118e-05
2.49513
-1.59216
9.39803e-05
2.49511
-1.59213
7.5102e-05
2.49519
-1.59217
2.49517
-1.59213
2.43068e-05
2.3539
-1.11159
-0.000133123
2.35436
-1.11168
-0.000103482
2.35413
-1.11168
-5.54005e-05
2.35409
-1.11167
-9.64014e-05
2.3543
-1.11177
2.35429
-1.11189
-5.58678e-05
1.00818
-1.07411
-0.000155381
1.00857
-1.0741
-0.000218675
1.00831
-1.07417
-0.000212804
1.00825
-1.07421
-0.00024542
1.00853
-1.07433
1.00841
-1.07439
-0.000101015
0.200548
1.78285
-0.000141612
0.200863
1.78275
-0.000169515
0.200665
1.78267
-0.0002385
0.20066
1.78261
-0.000378249
0.201006
1.78257
0.200609
1.7825
5.09634e-05
-0.0994429
3.92749
9.3505e-05
-0.099211
3.92741
6.30282e-05
-0.099318
3.92738
-2.84946e-05
-0.0993009
3.92741
-0.000107308
-0.0990796
3.92754
-0.0994119
3.92749
0.000170296
0.0392934
3.70427
0.000265351
0.0395521
3.7044
0.000248073
0.0395142
3.70452
0.00018898
0.0395095
3.7047
0.000146887
0.0396238
3.705
0.0394914
3.70502
-0.000209006
3.14413
-0.00016622
3.14437
-0.000134225
3.14446
-0.000109821
3.14459
-9.83616e-07
3.14475
3.14478
1.3744e-05
-0.0653893
-0.818691
1.09732e-05
-0.0653791
-0.818687
8.30208e-06
-0.0653776
-0.818687
5.78186e-06
-0.0653771
-0.818686
4.41257e-06
-0.065377
-0.818687
-0.0653737
-0.818685
1.00177e-05
0.228028
-1.33672
6.21953e-06
0.228052
-1.33672
2.5383e-06
0.228054
-1.33672
3.23876e-07
0.228054
-1.33672
3.30354e-06
0.228052
-1.33672
0.228058
-1.33671
9.16801e-06
1.39701
-2.72426
3.94923e-06
1.39705
-2.72426
3.44355e-06
1.39704
-2.72424
2.65303e-06
1.39704
-2.72424
-3.26858e-06
1.39703
-2.72423
1.39704
-2.72422
5.85888e-05
2.25718
-3.26737
5.17424e-05
2.25728
-3.2674
3.58535e-05
2.25726
-3.26737
2.01717e-05
2.25726
-3.26737
-5.95571e-06
2.25726
-3.26736
2.25723
-3.26732
8.45837e-05
1.70009
-2.33437
0.000116008
1.70037
-2.33462
0.000125865
1.70034
-2.33456
0.000134769
1.70034
-2.33456
8.42421e-05
1.70039
-2.33457
1.70034
-2.33447
3.01421e-05
0.218154
-0.110014
-1.27778e-06
0.218303
-0.11016
1.6905e-05
0.218226
-0.110059
2.19739e-05
0.218234
-0.110023
-1.42186e-05
0.218354
-0.110097
0.218374
-0.110179
-2.47493e-05
-0.846678
-0.0467372
2.42044e-05
-0.846747
-0.0466816
8.70394e-05
-0.84682
-0.0466962
0.00011429
-0.846789
-0.0466715
3.68793e-05
-0.846609
-0.046728
-0.846542
-0.0469419
0.000108227
-2.07438
0.153489
0.000154891
-2.07449
0.153591
0.000127563
-2.07451
0.153552
6.54295e-05
-2.07446
0.153525
-7.52595e-05
-2.07425
0.153449
-2.07427
0.153254
0.000165094
-2.17418
1.88248
0.000116805
-2.17424
1.88254
6.43924e-05
-2.17424
1.88246
-1.38761e-05
-2.17418
1.88241
-0.00011631
-2.17397
1.8824
-2.17405
1.88216
0.000163998
-1.20113
2.95428
0.000129781
-1.20109
2.9543
5.10205e-05
-1.20106
2.95428
-2.91278e-05
-1.20101
2.95431
-6.16933e-05
-1.20089
2.95449
-1.20093
2.95432
-5.99021e-05
-0.369232
2.87243
-0.000171268
-0.369141
2.87258
-0.000262926
-0.369118
2.87267
-0.00028143
-0.369102
2.87281
-0.000172687
-0.369075
2.87308
-0.369088
2.87301
-0.000177234
2.77508
-0.000214604
2.77527
-0.000222712
2.77535
-0.000195912
2.77546
-0.000112865
2.7756
2.77558
1.65109e-08
-0.000873334
0.000873317
5.9411e-08
-0.000873316
0.000873353
6.14355e-08
-0.000873294
0.000873364
7.01789e-08
-0.000873301
0.000873353
5.74791e-08
-0.000873297
0.00087336
-0.000873263
0.000873358
1.49498e-07
-0.00178027
0.000906894
1.01719e-07
-0.00178029
0.000906916
8.34288e-08
-0.00178028
0.000906914
6.67224e-08
-0.00178029
0.000906905
4.77087e-08
-0.0017803
0.000906906
-0.00178027
0.000906892
3.2359e-07
-0.00275167
0.000971047
1.39614e-07
-0.00275173
0.000971056
7.16762e-08
-0.00275174
0.000971036
2.8762e-08
-0.00275176
0.000971026
-3.74969e-09
-0.00275179
0.00097102
-0.00275174
0.000970997
3.99603e-07
-0.00381091
0.00105859
1.08016e-07
-0.00381102
0.00105859
5.33272e-10
-0.00381106
0.00105857
-6.53727e-08
-0.00381108
0.00105856
-1.11529e-07
-0.00381111
0.00105855
-0.00381103
0.00105852
2.98915e-07
-0.0049669
0.00115522
1.52346e-08
-0.00496707
0.00115522
-1.06913e-07
-0.0049671
0.00115521
-1.73773e-07
-0.00496711
0.0011552
-2.13304e-07
-0.00496712
0.0011552
-0.00496698
0.00115517
1.21492e-07
-0.00620166
0.00123411
-9.01296e-08
-0.00620184
0.00123415
-1.7317e-07
-0.00620184
0.00123416
-2.18718e-07
-0.00620181
0.00123416
-2.32897e-07
-0.00620179
0.00123417
-0.00620159
0.00123415
-3.07081e-08
-0.00745766
0.00125566
-1.23124e-07
-0.00745783
0.00125575
-1.73505e-07
-0.00745777
0.00125579
-1.7204e-07
-0.00745773
0.00125579
-1.50142e-07
-0.00745768
0.0012558
-0.00745743
0.00125576
2.90426e-08
-0.00860798
0.00115021
4.78683e-09
-0.00860815
0.00115029
2.70951e-08
-0.00860807
0.00115032
5.78086e-08
-0.00860801
0.00115031
6.98754e-08
-0.00860795
0.0011503
-0.00860768
0.00115026
4.42189e-07
-0.00924231
0.000634009
3.47987e-07
-0.00924252
0.000634051
3.6157e-07
-0.00924246
0.00063406
3.58123e-07
-0.00924242
0.000634045
2.81249e-07
-0.0092424
0.00063403
-0.00924214
0.000633986
1.02084e-06
-0.00864791
-0.000595433
7.17569e-07
-0.00864815
-0.000595408
6.27624e-07
-0.00864818
-0.000595408
5.05093e-07
-0.00864821
-0.000595433
2.91478e-07
-0.00864825
-0.000595473
-0.00864803
-0.000595527
1.35864e-06
-0.00615996
-0.00248978
8.41287e-07
-0.00616023
-0.00248983
6.16141e-07
-0.00616032
-0.00248986
3.74433e-07
-0.0061604
-0.00248991
4.14967e-08
-0.00616048
-0.00248998
-0.00616036
-0.00248998
8.01011e-07
-0.00616178
3.534e-07
-0.00616207
9.34626e-08
-0.00616221
-1.62442e-07
-0.00616235
-4.44526e-07
-0.00616249
-0.00616246
-2.27357e-08
-0.000876313
0.00174973
3.58131e-08
-0.000876306
0.00174978
6.24808e-08
-0.000876295
0.00174978
6.69203e-08
-0.000876299
0.00174978
5.94432e-08
-0.000876301
0.00174978
-0.000876277
0.00174973
1.00771e-07
-0.00179236
0.00182289
7.06255e-08
-0.00179239
0.00182293
6.4767e-08
-0.00179239
0.00182292
4.65179e-08
-0.00179241
0.00182291
2.53966e-08
-0.00179243
0.00182292
-0.00179241
0.00182286
2.23467e-07
-0.00278585
0.00196401
7.65326e-08
-0.00278592
0.00196404
1.56432e-08
-0.00278595
0.00196403
-3.69628e-08
-0.00278597
0.00196402
-9.49533e-08
-0.00278601
0.00196403
-0.00278597
0.00196398
2.43434e-07
-0.00388755
0.00215935
4.54731e-09
-0.00388767
0.00215938
-9.53431e-08
-0.0038877
0.00215937
-1.7448e-07
-0.00388773
0.00215937
-2.61399e-07
-0.00388775
0.00215938
-0.00388767
0.00215934
1.44114e-07
-0.00511362
0.00238024
-1.05425e-07
-0.00511378
0.00238029
-2.11474e-07
-0.0051138
0.0023803
-2.8945e-07
-0.0051138
0.00238032
-3.65003e-07
-0.00511379
0.00238035
-0.00511364
0.00238032
4.39985e-09
-0.00644345
0.00256317
-1.85644e-07
-0.00644363
0.00256327
-2.59566e-07
-0.0064436
0.0025633
-3.03073e-07
-0.00644356
0.00256334
-3.20773e-07
-0.00644352
0.00256337
-0.00644328
0.00256332
-1.77124e-08
-0.00776707
0.00257896
-1.39029e-07
-0.00776727
0.00257908
-1.28895e-07
-0.00776722
0.00257912
-1.10551e-07
-0.00776714
0.00257914
-8.0446e-08
-0.00776706
0.00257914
-0.00776677
0.00257905
3.65339e-07
-0.00883861
0.0022214
2.28925e-07
-0.00883881
0.00222151
2.02583e-07
-0.00883874
0.00222151
1.96806e-07
-0.00883868
0.00222148
1.6996e-07
-0.00883863
0.00222144
-0.00883837
0.00222132
9.94941e-07
-0.00948081
0.00127509
7.61552e-07
-0.00948105
0.00127517
6.90437e-07
-0.00948102
0.00127514
5.65634e-07
-0.009481
0.00127508
3.33965e-07
-0.00948098
0.001275
-0.00948071
0.00127488
1.42476e-06
-0.00936645
-0.000712095
1.05815e-06
-0.00936679
-0.000712094
8.94619e-07
-0.00936684
-0.000712073
6.08427e-07
-0.00936688
-0.000712104
1.32098e-07
-0.00936692
-0.000712134
-0.00936666
-0.000712118
1.37367e-06
-0.00688376
-0.00497573
7.64834e-07
-0.00688407
-0.0049759
4.54681e-07
-0.00688414
-0.00497594
2.25344e-08
-0.00688418
-0.00497599
-5.70811e-07
-0.00688423
-0.00497603
-0.00688407
-0.0049759
3.11056e-07
-0.0130483
-2.64689e-07
-0.013049
-5.93168e-07
-0.0130492
-9.46318e-07
-0.0130494
-1.39554e-06
-0.0130494
-0.0130491
-2.52302e-08
-0.000843069
0.00259292
4.03372e-08
-0.000843067
0.002593
6.99233e-08
-0.000843063
0.002593
8.14745e-08
-0.000843066
0.002593
7.9239e-08
-0.000843069
0.002593
-0.000843045
0.00259292
7.87082e-08
-0.00173544
0.00271527
6.98436e-08
-0.00173547
0.00271534
6.50047e-08
-0.00173548
0.00271533
5.51849e-08
-0.0017355
0.00271532
4.24357e-08
-0.00173552
0.00271532
-0.0017355
0.00271524
1.62684e-07
-0.00272811
0.0029563
4.72894e-08
-0.00272818
0.00295636
-3.12778e-09
-0.00272821
0.00295635
-4.32925e-08
-0.00272824
0.00295635
-8.47933e-08
-0.00272827
0.00295636
-0.00272823
0.00295628
1.46582e-07
-0.00387335
0.00330386
-4.75743e-08
-0.00387346
0.00330394
-1.27442e-07
-0.00387349
0.00330393
-1.90469e-07
-0.00387351
0.00330395
-2.46496e-07
-0.00387353
0.00330397
-0.00387344
0.00330391
6.24924e-08
-0.00522428
0.00373037
-1.46403e-07
-0.00522443
0.00373048
-2.37705e-07
-0.00522443
0.0037305
-2.95295e-07
-0.00522442
0.00373053
-3.33247e-07
-0.00522441
0.00373057
-0.00522426
0.00373051
3.52885e-08
-0.00684141
0.00417966
-1.66867e-07
-0.00684156
0.0041798
-2.34991e-07
-0.00684152
0.00417984
-2.60115e-07
-0.00684148
0.00417987
-2.57937e-07
-0.00684145
0.00417991
-0.00684123
0.00417981
2.79662e-07
-0.00883045
0.0045674
5.58774e-08
-0.00883061
0.00456756
-4.85337e-09
-0.00883055
0.00456756
-2.51062e-08
-0.0088305
0.00456756
-3.63221e-08
-0.00883046
0.00456754
-0.0088302
0.00456737
8.44139e-07
-0.0113431
0.00473289
5.0696e-07
-0.0113433
0.00473299
3.96403e-07
-0.0113432
0.00473294
2.96677e-07
-0.0113432
0.00473286
1.43896e-07
-0.0113432
0.00473277
-0.0113429
0.00473256
1.42454e-06
-0.0139599
0.00388969
8.97735e-07
-0.0139603
0.00388972
6.89228e-07
-0.0139603
0.00388964
4.22024e-07
-0.0139603
0.00388953
1.5057e-08
-0.0139603
0.00388943
-0.01396
0.00388926
1.56822e-06
-0.0147773
0.000101814
7.75605e-07
-0.0147777
0.000101801
4.05649e-07
-0.0147777
0.000101778
-3.6897e-08
-0.0147777
0.00010175
-5.93033e-07
-0.0147777
0.000101717
-0.0147773
0.00010172
6.08627e-07
-0.0120179
-0.00773851
-2.83128e-07
-0.0120184
-0.00773888
-6.63065e-07
-0.0120185
-0.00773893
-1.03868e-06
-0.0120184
-0.00773892
-1.40793e-06
-0.0120183
-0.00773889
-0.0120179
-0.00773862
-1.34302e-06
-0.0250678
-1.72772e-06
-0.02507
-1.66221e-06
-0.0250703
-1.59788e-06
-0.0250702
-1.60311e-06
-0.0250698
-0.0250687
-2.88291e-08
-0.000766493
0.00335957
4.03715e-08
-0.000766498
0.00335968
7.05056e-08
-0.000766497
0.00335967
8.41563e-08
-0.0007665
0.00335967
8.25636e-08
-0.000766502
0.00335967
-0.00076648
0.00335957
4.96584e-08
-0.00159221
0.00354106
6.03538e-08
-0.00159225
0.00354115
6.11513e-08
-0.00159226
0.00354115
5.66278e-08
-0.00159227
0.00354114
5.14635e-08
-0.00159229
0.00354114
-0.00159227
0.00354104
9.09222e-08
-0.00254308
0.00390693
1.59427e-08
-0.00254315
0.00390704
-1.52853e-08
-0.00254317
0.00390703
-4.00463e-08
-0.00254319
0.00390703
-6.3852e-08
-0.00254322
0.00390704
-0.00254317
0.00390694
4.71633e-08
-0.00369833
0.00445865
-7.87223e-08
-0.00369843
0.00445876
-1.32679e-07
-0.00369845
0.00445877
-1.70337e-07
-0.00369846
0.00445878
-1.95343e-07
-0.00369847
0.00445881
-0.00369838
0.00445871
-4.89532e-09
-0.00515067
0.0051822
-1.50558e-07
-0.0051508
0.00518235
-2.06221e-07
-0.00515079
0.00518237
-2.34046e-07
-0.00515077
0.0051824
-2.40283e-07
-0.00515075
0.00518244
-0.00515059
0.00518233
9.65369e-08
-0.00697529
0.00600374
-7.79424e-08
-0.00697543
0.00600392
-1.26931e-07
-0.00697538
0.00600394
-1.43602e-07
-0.00697534
0.00600397
-1.43251e-07
-0.00697531
0.00600399
-0.0069751
0.00600383
5.20756e-07
-0.00915512
0.00674629
2.556e-07
-0.00915529
0.00674647
1.60219e-07
-0.00915523
0.00674645
9.16968e-08
-0.00915521
0.00674642
2.17807e-09
-0.0091552
0.00674639
-0.00915497
0.00674616
1.1296e-06
-0.0114508
0.00702663
6.21671e-07
-0.0114511
0.00702674
4.03618e-07
-0.0114511
0.00702666
1.81415e-07
-0.0114512
0.00702656
-1.20116e-07
-0.0114512
0.00702647
-0.0114509
0.00702619
1.49692e-06
-0.0136166
0.00605202
6.53031e-07
-0.013617
0.00605208
2.69276e-07
-0.013617
0.00605196
-1.38908e-07
-0.0136171
0.00605185
-6.49926e-07
-0.0136171
0.00605177
-0.0136167
0.00605153
8.4869e-07
-0.015898
0.00237934
-1.19056e-07
-0.0158985
0.00237936
-5.42703e-07
-0.0158985
0.00237934
-9.67498e-07
-0.0158985
0.00237935
-1.40073e-06
-0.0158984
0.00237938
-0.0158978
0.00237935
-4.94958e-07
-0.0128654
-0.0107739
-1.19331e-06
-0.012866
-0.0107744
-1.44176e-06
-0.012866
-0.0107743
-1.57709e-06
-0.0128658
-0.0107741
-1.65246e-06
-0.0128656
-0.0107739
-0.012865
-0.0107734
-1.96308e-06
-0.0379336
-2.16571e-06
-0.037937
-1.93244e-06
-0.0379374
-1.64428e-06
-0.0379369
-1.39461e-06
-0.037936
-0.0379343
6.35489e-06
-0.455612
-0.363085
7.55761e-06
-0.455611
-0.363077
5.67209e-06
-0.455609
-0.363076
3.72e-06
-0.455608
-0.363076
5.68753e-06
-0.455609
-0.36308
-0.455612
-0.363067
1.33032e-05
1.8872
-2.34282
1.1298e-05
1.8872
-2.34281
9.16583e-06
1.8872
-2.34281
1.41996e-05
1.8872
-2.34282
2.21714e-05
1.88721
-2.34282
1.8872
-2.34279
1.7887e-05
-4.28406
1.98698e-05
-4.28406
1.72904e-05
-4.28405
2.33218e-05
-4.28406
2.94404e-05
-4.28406
-4.28403
-1.51838e-06
-2.5501
0.850298
-1.85676e-06
-2.5501
0.850303
-4.77798e-09
-2.5501
0.850302
-5.51326e-06
-2.55009
0.850302
-2.01415e-05
-2.55009
0.850301
-2.55011
0.850307
1.56243e-05
-4.1064
-0.786537
1.85788e-05
-4.10639
-0.78653
4.24578e-05
-4.10639
-0.786538
2.08267e-05
-4.10636
-0.786533
-3.54528e-05
-4.10633
-0.786526
-4.10638
-0.786558
-2.41649e-05
-2.53706
-2.9698e-05
-2.53708
-3.72421e-05
-2.53708
-3.75084e-05
-2.53708
-1.76841e-05
-2.53706
-2.53702
1.78408e-05
-2.58069
0.706717
5.19736e-06
-2.58077
0.70683
1.72887e-05
-2.58078
0.706826
2.20417e-05
-2.58077
0.706832
2.63297e-06
-2.58076
0.706852
-2.58084
0.706925
1.50805e-05
-3.06615
-0.301099
1.63641e-05
-3.0662
-0.301104
4.40152e-05
-3.06621
-0.301129
8.07636e-05
-3.06621
-0.301125
0.000127135
-3.06624
-0.30109
-3.06625
-0.301013
-9.22873e-06
-1.72828
-5.21831e-06
-1.72833
-1.39901e-05
-1.72833
-2.6673e-05
-1.72832
-8.90747e-06
-1.72829
-1.72827
0.000150708
-3.18229
0.621481
0.000128741
-3.18239
0.621849
0.000103144
-3.18239
0.621879
7.96453e-05
-3.18241
0.621903
6.02332e-05
-3.18243
0.621951
-3.18235
0.622018
6.05421e-05
-1.87125
-1.6122
9.29207e-05
-1.87132
-1.61221
6.50123e-05
-1.87131
-1.61219
3.1527e-05
-1.87133
-1.61218
2.99012e-05
-1.87136
-1.61216
-1.87133
-1.612
2.98135e-05
-1.73629
1.96734e-05
-1.73638
8.43875e-06
-1.73639
2.14952e-06
-1.7364
4.66561e-06
-1.73639
-1.73636
7.39667e-05
-0.748264
-0.964696
4.09658e-05
-0.748339
-0.964397
6.38169e-06
-0.748302
-0.964346
-4.78925e-05
-0.748295
-0.964307
-0.000108909
-0.748303
-0.96425
-0.748296
-0.964266
3.58538e-05
-0.605632
-1.75486
-1.42175e-06
-0.60558
-1.75493
-1.87166e-05
-0.605563
-1.75491
-3.13177e-05
-0.605551
-1.75491
-4.42288e-05
-0.605548
-1.7549
-0.605569
-1.75478
-1.2466e-05
-1.2328
-1.45468e-05
-1.23288
-1.56288e-05
-1.23289
-5.43145e-06
-1.23291
2.23691e-05
-1.23292
-1.23289
-0.000115895
0.35699
-1.43159
-0.000126755
0.35708
-1.43163
-3.24996e-05
0.357106
-1.43161
5.41786e-05
0.357149
-1.43156
6.0547e-05
0.357166
-1.43152
0.357071
-1.43146
-5.83518e-05
-0.153358
-1.24446
-6.42893e-05
-0.1533
-1.24454
-4.14071e-05
-0.153282
-1.24455
-1.25432e-05
-0.153248
-1.24455
1.44349e-05
-0.153218
-1.24455
-0.153236
-1.24446
-1.61116e-05
-0.797238
-1.43046e-05
-0.797284
-1.88611e-05
-0.797296
-1.61729e-05
-0.79731
9.75661e-07
-0.797323
-0.79729
2.65985e-05
-0.0716978
-1.40666
0.000113459
-0.0716227
-1.40678
0.000169054
-0.0716087
-1.40675
0.000184336
-0.0715441
-1.40671
0.000118657
-0.071532
-1.40666
-0.0717407
-1.40654
-2.05251e-05
-0.302141
-1.014
-1.05392e-05
-0.302119
-1.01405
-5.5747e-06
-0.30211
-1.01405
3.59363e-05
-0.3021
-1.01404
8.35975e-05
-0.3021
-1.01403
-0.302141
-1.01397
1.22285e-06
-0.639118
5.71054e-06
-0.639155
9.60445e-06
-0.63916
1.54065e-05
-0.639162
1.6088e-05
-0.639166
-0.639137
9.76909e-05
0.534399
-1.78767
0.000164412
0.534514
-1.78777
0.00017149
0.534525
-1.78773
0.000144441
0.534518
-1.78768
7.46753e-05
0.534478
-1.78762
0.53432
-1.78754
-1.68176e-06
0.52498
-1.00457
3.24272e-05
0.525059
-1.00463
5.62166e-05
0.525074
-1.00462
7.86874e-05
0.525071
-1.00461
8.11617e-05
0.525057
-1.00461
0.524984
-1.00456
-7.17472e-06
-0.453414
-7.63775e-06
-0.453434
-1.09749e-06
-0.45344
1.00923e-05
-0.453444
1.41971e-05
-0.453449
-0.453432
0.000128009
1.42972
-1.33503
0.000120956
1.42987
-1.33509
7.31889e-05
1.42983
-1.33505
3.03362e-05
1.42979
-1.33502
2.03715e-05
1.42977
-1.33498
1.42958
-1.33493
1.4992e-05
1.08314
-0.658003
4.21325e-05
1.08324
-0.658027
4.464e-05
1.08324
-0.658027
4.38498e-05
1.08321
-0.658032
5.61481e-05
1.08319
-0.658047
1.0831
-0.658023
-2.52394e-05
-0.281584
-1.0519e-05
-0.281592
4.11268e-06
-0.281596
1.53091e-05
-0.281603
2.2233e-05
-0.281612
-0.281608
3.63449e-05
2.03473
-0.415522
-4.36321e-05
2.03481
-0.415515
-0.000134827
2.03482
-0.415498
-0.000179372
2.03483
-0.415488
-0.000104655
2.03491
-0.415469
2.03476
-0.415475
-2.49564e-05
1.54659
-0.169838
-5.32225e-05
1.54666
-0.169843
-7.89396e-05
1.54666
-0.169847
-8.33081e-05
1.54666
-0.169859
-2.23473e-05
1.54667
-0.169868
1.5466
-0.169877
-2.19049e-05
-0.0823376
-2.34252e-05
-0.0823403
-1.89492e-05
-0.0823431
-1.25695e-05
-0.0823479
4.07711e-06
-0.0823527
-0.0823551
-0.000145525
2.09112
0.365932
-0.00026113
2.09122
0.365961
-0.000331619
2.09127
0.365968
-0.000327171
2.09135
0.365971
-0.000189215
2.09149
0.365983
2.09141
0.36594
-8.09857e-05
1.61758
0.303784
-0.000139806
1.61764
0.303794
-0.000169236
1.61765
0.303798
-0.000161932
1.61768
0.3038
-7.56405e-05
1.61773
0.303808
1.61767
0.303783
-1.71535e-05
0.080542
-3.16313e-05
0.0805464
-3.94992e-05
0.080548
-3.72181e-05
0.0805498
-1.28367e-05
0.0805526
0.0805458
-0.000130771
2.00958
1.13157
-0.000180967
2.00967
1.13161
-0.000196105
2.00971
1.13163
-0.000176859
2.00977
1.13164
-0.000103678
2.00986
1.13165
2.00981
1.13161
-5.87087e-05
1.53045
0.782963
-9.6168e-05
1.53051
0.782994
-0.000113397
1.53052
0.783006
-0.000105663
1.53055
0.783019
-5.36342e-05
1.53058
0.783034
1.53053
0.783003
-1.4475e-05
0.244492
-2.72217e-05
0.244504
-3.5383e-05
0.244508
-3.38287e-05
0.244512
-1.45462e-05
0.244517
0.244507
-9.15003e-07
0.0537175
-0.207765
0.154049
-5.60663e-08
0.0537192
-0.207772
0.154054
5.26501e-07
0.0537193
-0.207773
0.154054
9.07609e-07
0.0537194
-0.207773
0.154054
1.04339e-06
0.0537194
-0.207772
0.154053
0.0537179
-0.207765
0.154049
-5.01806e-07
0.0989079
-0.167032
0.121843
1.54833e-07
0.098911
-0.167038
0.121847
7.44717e-07
0.098911
-0.167038
0.121847
1.11907e-06
0.098911
-0.167038
0.121847
1.05092e-06
0.0989108
-0.167038
0.121847
0.0989078
-0.167032
0.121843
3.18726e-08
-0.0638739
0.0459574
3.72452e-07
-0.0638761
0.0459589
6.21826e-07
-0.0638763
0.0459588
6.57333e-07
-0.0638762
0.0459587
4.39412e-07
-0.0638761
0.0459586
-0.0638742
0.0459572
-5.82057e-07
0.0735786
-0.281342
1.22753e-07
0.0735809
-0.281352
7.77063e-07
0.0735809
-0.281353
1.19236e-06
0.0735809
-0.281353
1.16489e-06
0.0735808
-0.281353
0.0735786
-0.281343
-5.81741e-07
0.139704
-0.233156
-1.00841e-07
0.139709
-0.233165
5.73678e-07
0.139709
-0.233166
1.17333e-06
0.139708
-0.233166
8.84063e-07
0.139708
-0.233166
0.139704
-0.233158
-1.48085e-07
-0.0886641
2.35095e-07
-0.0886676
6.23439e-07
-0.088668
7.40814e-07
-0.0886681
2.86642e-07
-0.088668
-0.0886652
-6.36975e-07
0.0989743
-0.380315
-3.274e-07
0.0989771
-0.380329
1.17817e-07
0.098977
-0.38033
7.72953e-07
0.0989768
-0.380331
9.17859e-07
0.0989766
-0.380331
0.0989733
-0.380318
-1.32883e-06
0.195262
-0.329441
-1.10575e-06
0.195268
-0.329455
-4.77728e-07
0.195268
-0.329457
3.04928e-07
0.195268
-0.329459
4.34437e-07
0.195267
-0.329459
0.195261
-0.329448
-7.37361e-07
-0.122689
-2.73877e-07
-0.122694
1.35632e-07
-0.122695
3.14356e-07
-0.122696
5.03826e-08
-0.122696
-0.122692
-1.67946e-06
0.128149
-0.508461
-2.0329e-06
0.128152
-0.50848
-2.08545e-06
0.128151
-0.508482
-6.53585e-07
0.128151
-0.508484
7.68436e-07
0.12815
-0.508485
0.128146
-0.508465
-3.88383e-06
0.270689
-0.471977
-4.46847e-06
0.270697
-0.471998
-4.10549e-06
0.270697
-0.472003
-2.64089e-06
0.270698
-0.472007
-5.5353e-07
0.270697
-0.47201
0.270689
-0.471992
-1.47323e-06
-0.169423
-1.41973e-06
-0.169431
-1.33185e-06
-0.169432
-1.09835e-06
-0.169434
-5.27461e-07
-0.169435
-0.169428
6.8971e-07
0.179261
-0.687723
-1.24598e-06
0.179268
-0.687747
-2.14469e-06
0.179268
-0.68775
-1.57689e-06
0.179268
-0.687754
-5.85457e-07
0.179268
-0.687756
0.179261
-0.687727
-7.46592e-06
0.370893
-0.663601
-1.01148e-05
0.370905
-0.663632
-1.07347e-05
0.370907
-0.66364
-8.89193e-06
0.370908
-0.663649
-3.09709e-06
0.370909
-0.663657
0.370897
-0.66363
-3.62678e-06
-0.229662
-4.54704e-06
-0.229674
-4.85898e-06
-0.229677
-4.0356e-06
-0.22968
-1.44416e-06
-0.229683
-0.229673
-4.55647e-06
0.443848
-1.19379e-05
0.443871
-1.244e-05
0.443876
-1.08168e-05
0.443885
-8.64432e-06
0.443895
0.443877
-1.26146e-05
0.563221
-2.14104e-05
0.563244
-2.57243e-05
0.563248
-2.34433e-05
0.563254
-1.0441e-05
0.56326
0.56324
-5.96081e-06
-9.19382e-06
-1.11026e-05
-1.03457e-05
-4.29664e-06
-1.7364e-08
0.00391825
-0.000558526
4.18778e-08
0.00391838
-0.000558531
6.5251e-08
0.00391837
-0.000558531
7.49861e-08
0.00391836
-0.000558535
7.59404e-08
0.00391836
-0.000558538
0.00391824
-0.000558523
4.63843e-09
0.00427829
-0.000359926
3.97667e-08
0.00427843
-0.000359929
5.21209e-08
0.00427842
-0.000359931
5.80199e-08
0.00427841
-0.000359934
5.95122e-08
0.00427841
-0.000359937
0.00427828
-0.000359927
1.1633e-08
-0.000128646
2.36545e-08
-0.000128649
2.75418e-08
-0.00012865
2.97724e-08
-0.000128652
3.1718e-08
-0.000128653
-0.00012865
3.39878e-08
0.00414973
-0.0011671
4.54261e-08
0.00414986
-0.00116713
5.06464e-08
0.00414985
-0.00116714
5.05423e-08
0.00414985
-0.00116715
5.15937e-08
0.00414984
-0.00116717
0.00414972
-0.00116716
1.93709e-08
0.00454723
-0.00075733
3.54765e-08
0.00454736
-0.00075735
3.99177e-08
0.00454736
-0.000757359
4.09047e-08
0.00454735
-0.000757368
4.38511e-08
0.00454735
-0.000757378
0.00454721
-0.000757369
1.18547e-08
-0.000272568
1.84345e-08
-0.000272577
2.0498e-08
-0.00027258
2.20702e-08
-0.000272584
2.33813e-08
-0.000272587
-0.000272584
2.8823e-08
0.0046273
-0.00188757
-2.46265e-09
0.00462744
-0.00188762
-1.52305e-08
0.00462743
-0.00188764
-2.59256e-08
0.00462744
-0.00188766
-3.35101e-08
0.00462744
-0.00188767
0.00462732
-0.00188764
3.75337e-09
0.00511027
-0.0012403
2.22988e-09
0.00511041
-0.00124034
-1.03945e-09
0.00511042
-0.00124035
-3.42404e-09
0.00511042
-0.00124036
-4.7237e-09
0.00511042
-0.00124037
0.00511027
-0.00124034
4.07668e-09
-0.000451795
4.94271e-09
-0.00045181
5.38809e-09
-0.000451813
5.80076e-09
-0.000451815
6.30106e-09
-0.000451817
-0.000451806
-1.51654e-08
0.00538161
-0.00281075
-7.04587e-08
0.00538176
-0.00281083
-9.52663e-08
0.00538176
-0.00281084
-1.0828e-07
0.00538178
-0.00281084
-1.12094e-07
0.00538179
-0.00281084
0.00538166
-0.00281076
-2.05656e-08
0.00602418
-0.00188295
-3.5072e-08
0.00602436
-0.001883
-4.04916e-08
0.00602437
-0.001883
-4.17971e-08
0.00602438
-0.001883
-3.76286e-08
0.00602439
-0.001883
0.00602422
-0.00188294
-5.1052e-09
-0.000697965
-4.40975e-09
-0.000697983
-3.95133e-09
-0.000697981
-1.6184e-09
-0.000697979
1.68925e-09
-0.000697975
-0.000697952
-1.50244e-08
0.0064624
-0.00409123
-9.17628e-08
0.00646259
-0.00409131
-1.10937e-07
0.0064626
-0.00409129
-1.15774e-07
0.00646262
-0.00409126
-1.09243e-07
0.00646265
-0.00409124
0.00646249
-0.00409111
-3.32063e-10
0.00739264
-0.00281329
-2.12939e-08
0.00739286
-0.00281334
-2.78943e-08
0.00739287
-0.00281333
-2.69933e-08
0.00739288
-0.00281331
-1.94657e-08
0.00739289
-0.0028133
0.00739268
-0.00281321
6.34011e-09
-0.00106642
6.73141e-09
-0.00106644
8.69418e-09
-0.00106643
1.2183e-08
-0.00106642
1.59014e-08
-0.00106642
-0.00106639
1.59415e-07
0.00794585
-0.00603378
4.64352e-08
0.00794608
-0.00603387
4.11445e-09
0.00794608
-0.00603382
-1.70595e-08
0.00794609
-0.00603379
-3.74784e-08
0.0079461
-0.00603378
0.00794589
-0.00603361
1.26289e-07
0.00939822
-0.00426595
6.37213e-08
0.00939847
-0.00426602
3.96314e-08
0.00939847
-0.00426599
1.92928e-08
0.00939847
-0.00426599
-6.58588e-09
0.00939847
-0.004266
0.00939821
-0.0042659
5.54882e-08
-0.00165915
4.13511e-08
-0.00165918
3.56281e-08
-0.00165918
2.68274e-08
-0.00165918
6.21439e-09
-0.00165919
-0.00165917
5.40136e-07
0.00996191
-0.00925047
2.56877e-07
0.00996215
-0.00925065
1.42188e-07
0.00996212
-0.00925063
4.09926e-08
0.0099621
-0.00925066
-8.9511e-08
0.00996207
-0.00925071
0.00996178
-0.00925054
3.65017e-07
0.0123649
-0.00666981
1.51238e-07
0.0123652
-0.00666997
5.73438e-08
0.0123651
-0.00666999
-3.6644e-08
0.0123651
-0.00667004
-1.6339e-07
0.0123651
-0.00667011
0.0123648
-0.00667002
1.12051e-07
-0.00266764
4.8357e-08
-0.00266772
1.78844e-08
-0.00266774
-3.30038e-08
-0.00266777
-1.18812e-07
-0.00266781
-0.0026678
8.9338e-07
0.0127171
-0.0149432
2.82382e-07
0.0127173