/*--------------------------------*- C++ -*----------------------------------*\
| =========                 |                                                 |
| \\      /  F ield         | OpenFOAM: The Open Source CFD Toolbox           |
|  \\    /   O peration     | Version:  v1612+                                |
|   \\  /    A nd           | Web:      www.OpenFOAM.com                      |
|    \\/     M anipulation  |                                                 |
\*---------------------------------------------------------------------------*/
FoamFile
{
    version     2.0;
    format      ascii;
    class       volVectorField;
    location    "1.25";
    object      U;
}
// * * * * * * * * * * * * * * * * * * * * * * * * * * * * * * * * * * * * * //

dimensions      [0 1 -1 0 0 0 0];

internalField   nonuniform List<vector> 
1116
(
(0.375396 1.95058e-07 -0.390029)
(0.375397 2.42942e-07 -0.39003)
(0.375397 2.94788e-07 -0.39003)
(0.375397 7.23649e-07 -0.390031)
(0.375397 1.11012e-06 -0.390031)
(0.375396 6.75049e-07 -0.39003)
(1.03468 6.76968e-07 -0.493121)
(1.03469 8.17903e-07 -0.493123)
(1.03469 1.44017e-06 -0.493123)
(1.03469 1.79925e-06 -0.493122)
(1.03469 1.29273e-06 -0.493121)
(1.03468 -3.90305e-08 -0.493119)
(2.15234 1.35409e-06 -0.650916)
(2.15234 4.12724e-06 -0.650917)
(2.15234 5.98172e-06 -0.650914)
(2.15234 4.60091e-06 -0.650911)
(2.15234 2.69561e-06 -0.650909)
(2.15233 -1.19521e-07 -0.650907)
(3.38365 -2.84961e-06 -0.832806)
(3.38365 1.79934e-06 -0.832811)
(3.38365 5.40834e-06 -0.832806)
(3.38365 3.68956e-06 -0.832802)
(3.38365 1.18039e-06 -0.832801)
(3.38364 7.15153e-07 -0.832803)
(4.81211 -1.48125e-05 -0.801332)
(4.81211 -8.88086e-06 -0.801362)
(4.8121 4.678e-06 -0.801357)
(4.8121 5.39375e-06 -0.801354)
(4.8121 6.9443e-06 -0.801354)
(4.8121 6.73723e-06 -0.80135)
(6.34976 -2.10937e-05 -0.909356)
(6.34978 -1.93612e-05 -0.909379)
(6.34978 2.35943e-07 -0.909372)
(6.34979 5.83333e-06 -0.909369)
(6.34979 6.14228e-06 -0.909373)
(6.34979 4.75511e-06 -0.909357)
(7.81934 -1.21599e-05 -1.42152)
(7.81945 -1.48765e-05 -1.42151)
(7.81945 -3.54575e-06 -1.42149)
(7.81945 3.85783e-06 -1.42149)
(7.81947 2.76015e-06 -1.42151)
(7.81945 2.13003e-06 -1.42149)
(9.40006 1.55226e-05 -1.69273)
(9.40021 1.56074e-05 -1.69273)
(9.40018 -1.0057e-05 -1.6927)
(9.40018 -1.77672e-05 -1.6927)
(9.40024 -2.58926e-05 -1.69274)
(9.40015 -6.88301e-06 -1.69267)
(11.8368 -5.11222e-05 -0.661489)
(11.8367 -5.14356e-05 -0.661749)
(11.8367 -3.00739e-05 -0.661708)
(11.8367 -3.31452e-05 -0.66169)
(11.8368 -2.11961e-05 -0.66173)
(11.8367 2.60541e-05 -0.661449)
(12.1536 1.13229e-05 1.34896)
(12.1538 3.6158e-05 1.3488)
(12.1538 2.47839e-05 1.34884)
(12.1538 4.25999e-05 1.34885)
(12.1538 9.83649e-05 1.34885)
(12.1533 0.000115302 1.34929)
(5.67265 8.42682e-05 1.89811)
(5.67343 0.000187536 1.89805)
(5.67324 0.000247426 1.89805)
(5.67318 0.000384279 1.89807)
(5.6731 0.000434728 1.89818)
(5.67245 0.000234884 1.89834)
(1.88488 2.18981e-05 1.78341)
(1.88534 0.00015228 1.78354)
(1.88532 0.000294568 1.7836)
(1.88527 0.00037766 1.78365)
(1.88522 0.000375856 1.78372)
(1.88506 0.000168586 1.78377)
(0.359161 2.20503e-07 -0.991454)
(0.359162 4.77297e-07 -0.991457)
(0.359161 3.89702e-07 -0.991457)
(0.35916 3.96053e-07 -0.991457)
(0.35916 3.99088e-08 -0.991457)
(0.35916 -5.98253e-09 -0.991452)
(0.879106 1.42218e-06 -1.31464)
(0.879109 3.42835e-06 -1.31464)
(0.879106 2.977e-06 -1.31464)
(0.879104 1.0433e-06 -1.31464)
(0.879105 -1.43581e-07 -1.31463)
(0.879103 -3.7005e-07 -1.31463)
(1.9375 2.95515e-06 -1.63938)
(1.93752 1.09302e-05 -1.63938)
(1.93751 6.03749e-06 -1.63937)
(1.93751 2.9671e-06 -1.63937)
(1.93752 3.86225e-07 -1.63936)
(1.93751 3.17743e-06 -1.63936)
(2.68689 -1.89615e-06 -2.09008)
(2.68693 6.81571e-06 -2.09009)
(2.68693 5.29652e-06 -2.09007)
(2.68692 2.80529e-06 -2.09007)
(2.68692 2.70707e-06 -2.09007)
(2.68691 7.82051e-06 -2.09007)
(4.194 -8.11507e-06 -2.71908)
(4.19404 -3.75407e-06 -2.71918)
(4.19404 1.44146e-05 -2.71916)
(4.19404 6.22396e-06 -2.71915)
(4.19404 1.38504e-05 -2.71916)
(4.19402 8.26036e-06 -2.71914)
(6.28978 -6.59147e-06 -2.75156)
(6.2899 -1.03152e-05 -2.75182)
(6.2899 2.35058e-05 -2.7518)
(6.2899 8.23005e-06 -2.75178)
(6.2899 2.09433e-05 -2.75179)
(6.28987 3.73494e-06 -2.75176)
(8.30811 5.47277e-05 -2.62216)
(8.30844 2.61028e-05 -2.62247)
(8.3084 1.02127e-05 -2.62242)
(8.30841 -1.70838e-05 -2.62239)
(8.30844 5.8974e-06 -2.62242)
(8.30843 -1.79802e-05 -2.62239)
(8.65796 1.8688e-05 -4.31598)
(8.65903 -0.000195337 -4.31604)
(8.65888 -0.000255287 -4.31602)
(8.65883 -0.000124209 -4.31603)
(8.65897 -8.72462e-05 -4.31619)
(8.65902 -9.87371e-05 -4.31608)
(13.2251 -2.05769e-05 1.79291)
(13.2253 -0.000168185 1.79264)
(13.2253 -0.000299465 1.79268)
(13.2253 -0.000228445 1.79269)
(13.2257 -0.000381459 1.79261)
(13.2249 -0.000249198 1.79301)
(10.1855 -1.78868e-05 4.83552)
(10.1861 -0.000131172 4.83523)
(10.1859 -0.000237841 4.83527)
(10.1858 -0.000110483 4.83527)
(10.1863 -0.000158063 4.83526)
(10.1848 -8.11252e-05 4.83568)
(4.28233 0.000142387 5.88935)
(4.28342 0.000330952 5.88945)
(4.28314 0.000340042 5.88947)
(4.28317 0.000355655 5.88961)
(4.28354 0.00029601 5.88992)
(4.28277 0.00012958 5.89028)
(2.45 -9.45224e-05 4.86776)
(2.45052 2.94353e-05 4.86814)
(2.45055 0.000269152 4.86831)
(2.45053 0.000301847 4.86844)
(2.45054 0.000331454 4.86862)
(2.45042 0.000169537 4.86871)
(0.212989 1.66368e-06 -1.49025)
(0.212991 3.92488e-06 -1.49025)
(0.21299 4.25692e-06 -1.49025)
(0.212989 2.94646e-06 -1.49025)
(0.21299 2.62783e-06 -1.49025)
(0.21299 1.38984e-06 -1.49024)
(0.520882 4.4249e-06 -1.97972)
(0.520895 1.19707e-05 -1.97972)
(0.520893 7.15303e-06 -1.97972)
(0.520893 3.98449e-06 -1.97971)
(0.520894 2.97766e-06 -1.97971)
(0.520891 4.4705e-06 -1.97971)
(0.989202 5.10985e-06 -2.34466)
(0.989241 1.34554e-05 -2.34466)
(0.989249 3.90744e-06 -2.34465)
(0.989251 3.21214e-06 -2.34464)
(0.989252 2.88875e-06 -2.34465)
(0.989246 8.50447e-06 -2.34462)
(2.11074 1.79898e-05 -3.65483)
(2.11079 9.49123e-06 -3.65487)
(2.11078 2.34167e-05 -3.65485)
(2.11078 8.8251e-06 -3.65485)
(2.11077 3.22646e-05 -3.65485)
(2.11074 9.03778e-06 -3.65482)
(4.11249 6.20253e-05 -4.82499)
(4.11264 3.44374e-05 -4.82518)
(4.11263 7.02694e-05 -4.82512)
(4.11263 1.80115e-05 -4.82512)
(4.11262 5.98509e-05 -4.82512)
(4.11258 -6.02717e-06 -4.82506)
(5.14837 0.000102305 -4.68748)
(5.14878 5.35647e-05 -4.68795)
(5.14876 0.00010697 -4.68784)
(5.14875 4.58481e-05 -4.68782)
(5.14881 0.000137269 -4.68786)
(5.14873 3.12033e-05 -4.68783)
(5.52152 6.51145e-05 -2.60147)
(5.52251 -6.62893e-05 -2.60188)
(5.52226 -0.000104928 -2.60181)
(5.52217 -8.73494e-05 -2.60179)
(5.52239 -4.56754e-05 -2.60195)
(5.52242 -8.2358e-05 -2.60195)
(1.55545 1.91823e-05 -4.75021)
(1.55637 -7.43061e-05 -4.7504)
(1.55572 -0.000231574 -4.7505)
(1.55562 -0.000170127 -4.75053)
(1.55622 -0.00023748 -4.75075)
(1.55621 -0.000196445 -4.75057)
(1.82374 -5.64734e-05 3.35841)
(1.82423 -0.000109533 3.35808)
(1.8238 -0.000180023 3.35802)
(1.82369 -0.000121326 3.35792)
(1.82426 -0.000338267 3.35779)
(1.82384 -0.000288754 3.35803)
(1.69811 1.41109e-05 8.07229)
(1.69873 7.82028e-05 8.07203)
(1.69833 6.17599e-05 8.07195)
(1.69839 5.84241e-05 8.07195)
(1.69918 -0.000108451 8.07207)
(1.6981 -0.000120122 8.07234)
(1.32868 6.6291e-05 7.62228)
(1.32912 0.000224453 7.62251)
(1.3291 0.000264239 7.62271)
(1.3292 0.000200042 7.62301)
(1.32958 0.000184357 7.62354)
(1.32938 9.49126e-05 7.62368)
(1.74008 -0.000144026 6.1902)
(1.74037 -0.00021931 6.19071)
(1.74039 -0.000136857 6.19094)
(1.74038 -0.000118893 6.19117)
(1.74044 -3.53148e-05 6.19146)
(1.7404 1.40788e-05 6.19156)
(-0.14462 8.70736e-06 -2.22523)
(-0.144616 1.4068e-05 -2.22524)
(-0.144615 8.39922e-06 -2.22523)
(-0.144614 5.81678e-06 -2.22523)
(-0.144614 4.95252e-06 -2.22523)
(-0.14461 3.44803e-06 -2.22523)
(-0.182696 3.8713e-06 -2.1187)
(-0.182663 1.14558e-05 -2.1187)
(-0.182659 2.20316e-06 -2.1187)
(-0.182658 1.84534e-06 -2.1187)
(-0.182659 -1.05926e-06 -2.1187)
(-0.182651 6.19185e-06 -2.11869)
(0.735728 2.1986e-05 -3.60312)
(0.735787 -2.47241e-06 -3.60313)
(0.735792 1.01076e-05 -3.6031)
(0.735792 -5.17389e-06 -3.6031)
(0.735786 1.00304e-05 -3.6031)
(0.73581 -1.48402e-05 -3.60305)
(3.556 8.2885e-05 -5.70954)
(3.55611 3.19935e-05 -5.70959)
(3.55608 6.60601e-05 -5.70955)
(3.55607 -2.54434e-06 -5.70955)
(3.55607 3.70362e-05 -5.70954)
(3.55612 -4.25597e-05 -5.70943)
(4.30357 0.000111667 -5.85776)
(4.30383 5.90372e-05 -5.85812)
(4.30382 0.000158524 -5.85806)
(4.30381 7.53081e-05 -5.85806)
(4.3038 0.000164311 -5.85807)
(4.30367 9.26248e-06 -5.85796)
(2.5677 7.25963e-05 -1.37456)
(2.56839 -8.06557e-06 -1.37523)
(2.56831 2.26215e-05 -1.37499)
(2.56831 -1.80099e-06 -1.37493)
(2.5685 2.06384e-05 -1.37507)
(2.56837 -3.06903e-05 -1.37498)
(-1.40294 -8.20714e-05 -0.385761)
(-1.40296 -1.40371e-06 -0.385651)
(-1.40326 8.88412e-05 -0.385716)
(-1.40322 9.37427e-05 -0.385723)
(-1.40284 8.34757e-05 -0.385911)
(-1.40265 5.72584e-06 -0.386328)
(-3.21697 3.74955e-05 0.391543)
(-3.21718 0.000165133 0.391748)
(-3.21723 0.000150485 0.391567)
(-3.21713 0.000101278 0.391457)
(-3.21673 -1.40444e-05 0.391251)
(-3.21672 -8.44265e-05 0.390832)
(-3.62654 6.50822e-05 4.05141)
(-3.62674 0.000168537 4.05137)
(-3.62685 0.000100289 4.05114)
(-3.62678 3.57923e-05 4.05102)
(-3.62637 -7.51099e-05 4.05101)
(-3.62659 -9.53278e-05 4.05061)
(-2.03504 7.88378e-05 7.0834)
(-2.03502 0.000164955 7.08336)
(-2.03499 9.78662e-05 7.0833)
(-2.03483 2.83687e-06 7.08338)
(-2.03438 -5.71204e-05 7.08379)
(-2.03458 -4.21008e-05 7.08347)
(0.0626771 -1.27471e-05 6.40932)
(0.0629436 -0.000102298 6.40963)
(0.0630718 -0.000215535 6.40988)
(0.0632026 -0.000262995 6.41021)
(0.0634378 -0.000228229 6.41082)
(0.0633977 -9.34634e-05 6.41075)
(0.978978 -9.44906e-05 5.6491)
(0.979204 -0.000198347 5.64956)
(0.979252 -0.000211528 5.64976)
(0.979295 -0.000200417 5.64999)
(0.979354 -0.000146686 5.6503)
(0.979293 -5.5211e-05 5.65031)
(0.000862636 -7.20718e-08 0.000873363)
(0.000862624 -3.74059e-08 0.000873383)
(0.000862609 1.10552e-07 0.000873381)
(0.000862617 9.49639e-08 0.000873368)
(0.000862617 5.82766e-08 0.000873369)
(0.000862591 3.95733e-08 0.000873352)
(0.00262082 4.75579e-10 0.000906906)
(0.00262082 7.58986e-08 0.000906911)
(0.00262079 1.30109e-07 0.000906902)
(0.00262081 8.40784e-08 0.000906889)
(0.00262082 7.22214e-08 0.000906884)
(0.00262076 5.52453e-08 0.000906857)
(0.00447492 8.04759e-08 0.00097079)
(0.004475 1.85518e-07 0.00097078)
(0.004475 1.46277e-07 0.000970757)
(0.00447503 5.6914e-08 0.00097074)
(0.00447506 3.1784e-08 0.000970729)
(0.00447498 2.92762e-08 0.000970691)
(0.00647848 1.16074e-07 0.00105712)
(0.00647865 2.00748e-07 0.0010571)
(0.00647871 8.90583e-08 0.00105708)
(0.00647875 -2.23736e-08 0.00105706)
(0.0064788 -6.94515e-08 0.00105704)
(0.00647868 -2.85573e-08 0.001057)
(0.00866447 1.08696e-07 0.00115073)
(0.00866475 1.11341e-07 0.00115072)
(0.00866482 -3.90039e-08 0.00115071)
(0.00866485 -1.18793e-07 0.0011507)
(0.00866488 -1.78733e-07 0.00115069)
(0.00866467 -8.65371e-08 0.00115066)
(0.0110256 2.8426e-08 0.00122409)
(0.011026 -2.88755e-08 0.00122411)
(0.011026 -1.32446e-07 0.00122412)
(0.011026 -1.72598e-07 0.00122412)
(0.011026 -2.15398e-07 0.00122413)
(0.0110257 -1.02449e-07 0.00122411)
(0.0134942 -3.14081e-08 0.00123663)
(0.0134946 -1.38966e-07 0.00123668)
(0.0134945 -1.57813e-07 0.00123671)
(0.0134945 -1.31084e-07 0.00123672)
(0.0134944 -1.60134e-07 0.00123674)
(0.013494 -6.43115e-08 0.00123672)
(0.0159104 -3.57116e-09 0.00116587)
(0.0159108 -4.33329e-08 0.00116593)
(0.0159107 3.65793e-09 0.00116596)
(0.0159106 7.18974e-08 0.00116595)
(0.0159105 5.86342e-08 0.00116594)
(0.0159099 4.30662e-08 0.00116589)
(0.017811 1.74916e-07 0.00102669)
(0.0178114 3.27607e-07 0.00102673)
(0.0178113 3.66285e-07 0.00102674)
(0.0178112 3.99261e-07 0.00102671)
(0.0178111 3.30633e-07 0.00102669)
(0.0178106 1.52759e-07 0.00102662)
(0.018034 3.90604e-07 0.000532162)
(0.0180344 7.17332e-07 0.000532204)
(0.0180344 6.52599e-07 0.000532238)
(0.0180344 6.01284e-07 0.000532233)
(0.0180344 4.33603e-07 0.000532238)
(0.0180339 1.6086e-07 0.000532216)
(0.0161697 6.12681e-07 -0.00125929)
(0.0161703 9.47393e-07 -0.00125933)
(0.0161704 6.78328e-07 -0.00125931)
(0.0161705 5.30129e-07 -0.00125934)
(0.0161706 2.46236e-07 -0.00125935)
(0.0161702 3.2035e-08 -0.00125931)
(0.00833718 3.81795e-07 -0.00502986)
(0.00833757 5.24668e-07 -0.00503011)
(0.0083377 1.83368e-07 -0.00503023)
(0.00833784 -1.89154e-08 -0.00503037)
(0.00833796 -2.82685e-07 -0.00503051)
(0.00833776 -1.83089e-07 -0.00503047)
(0.000847707 -7.24432e-08 0.00255335)
(0.000847704 -4.30048e-08 0.00255342)
(0.000847693 8.58439e-08 0.00255342)
(0.0008477 7.41026e-08 0.00255341)
(0.000847703 8.11941e-08 0.00255342)
(0.000847685 5.2785e-08 0.00255335)
(0.00257988 -1.30771e-08 0.00265679)
(0.0025799 4.89109e-08 0.00265683)
(0.00257989 1.02749e-07 0.00265682)
(0.00257991 6.22508e-08 0.0026568)
(0.00257994 7.38239e-08 0.0026568)
(0.00257991 5.27752e-08 0.00265672)
(0.00442067 4.2844e-08 0.00285579)
(0.00442077 1.06493e-07 0.00285581)
(0.0044208 8.10829e-08 0.00285577)
(0.00442084 4.98915e-10 0.00285575)
(0.0044209 -2.48676e-08 0.00285574)
(0.00442085 -7.57028e-09 0.00285566)
(0.00643484 6.47774e-08 0.00312934)
(0.00643503 8.40232e-08 0.00312935)
(0.00643509 -1.69669e-08 0.00312932)
(0.00643514 -1.22772e-07 0.0031293)
(0.0064352 -1.80973e-07 0.0031293)
(0.00643509 -9.42438e-08 0.00312922)
(0.00867009 4.30573e-08 0.00343126)
(0.00867036 -1.42104e-08 0.00343131)
(0.00867041 -1.52652e-07 0.0034313)
(0.00867044 -2.38851e-07 0.00343131)
(0.00867045 -2.97262e-07 0.00343133)
(0.00867022 -1.54025e-07 0.00343127)
(0.0111314 -1.50891e-08 0.00366749)
(0.0111317 -1.25824e-07 0.00366761)
(0.0111317 -2.28676e-07 0.00366765)
(0.0111317 -2.61502e-07 0.00366769)
(0.0111316 -2.82634e-07 0.00366773)
(0.0111312 -1.40183e-07 0.00366767)
(0.0137181 -3.70832e-08 0.00364767)
(0.0137184 -1.1116e-07 0.00364785)
(0.0137183 -1.26562e-07 0.00364791)
(0.0137182 -1.01015e-07 0.00364793)
(0.0137181 -7.32754e-08 0.00364796)
(0.0137176 -2.78328e-08 0.00364785)
(0.0161666 1.23449e-07 0.00298469)
(0.0161669 2.0385e-07 0.00298484)
(0.0161668 2.01121e-07 0.00298486)
(0.0161667 2.23946e-07 0.00298482)
(0.0161666 2.05282e-07 0.00298476)
(0.0161661 9.53723e-08 0.00298459)
(0.0182256 3.91484e-07 0.000918013)
(0.0182261 7.36947e-07 0.000918079)
(0.018226 6.81124e-07 0.000918058)
(0.0182259 6.42038e-07 0.000917961)
(0.0182259 4.93029e-07 0.00091786)
(0.0182254 1.7599e-07 0.000917711)
(0.0197784 6.78196e-07 -0.00361709)
(0.019779 1.19073e-06 -0.00361713)
(0.019779 9.41184e-07 -0.00361712)
(0.0197791 7.63928e-07 -0.00361719)
(0.0197791 4.25272e-07 -0.00361727)
(0.0197786 7.41624e-08 -0.00361726)
(0.0198417 6.82185e-07 -0.0101997)
(0.0198425 1.03711e-06 -0.0102)
(0.0198426 5.94905e-07 -0.0102001)
(0.0198427 2.63746e-07 -0.0102002)
(0.0198427 -2.29115e-07 -0.0102003)
(0.0198422 -2.9669e-07 -0.0102001)
(0.0133553 1.65794e-07 -0.0219458)
(0.0133559 3.28886e-08 -0.0219467)
(0.013356 -4.51855e-07 -0.0219471)
(0.0133561 -7.35231e-07 -0.0219474)
(0.0133562 -1.13636e-06 -0.0219476)
(0.0133558 -6.55705e-07 -0.0219471)
(0.000797121 -6.76495e-08 0.00413951)
(0.000797121 -2.69316e-08 0.00413963)
(0.000797117 9.47867e-08 0.00413964)
(0.000797122 8.37217e-08 0.00413963)
(0.000797126 9.8512e-08 0.00413964)
(0.000797107 5.9101e-08 0.00413952)
(0.00243484 -2.02246e-08 0.00432469)
(0.00243488 3.71836e-08 0.00432479)
(0.00243488 9.70475e-08 0.00432478)
(0.0024349 6.77802e-08 0.00432477)
(0.00243493 8.41401e-08 0.00432477)
(0.00243489 5.65217e-08 0.00432464)
(0.00420517 1.55053e-08 0.00468705)
(0.00420528 5.72054e-08 0.00468714)
(0.00420531 4.95493e-08 0.00468712)
(0.00420535 -1.22199e-08 0.00468711)
(0.00420541 -2.59899e-08 0.00468712)
(0.00420535 -5.40122e-09 0.00468701)
(0.0062024 2.79662e-08 0.00520297)
(0.00620257 2.03314e-08 0.00520307)
(0.00620262 -6.34761e-08 0.00520306)
(0.00620267 -1.4799e-07 0.00520307)
(0.00620272 -1.80896e-07 0.00520311)
(0.0062026 -8.82952e-08 0.00520301)
(0.0085285 1.18209e-08 0.00581253)
(0.00852873 -6.43533e-08 0.00581268)
(0.00852876 -1.83484e-07 0.00581271)
(0.00852877 -2.51693e-07 0.00581276)
(0.00852877 -2.81832e-07 0.00581282)
(0.00852853 -1.37206e-07 0.00581274)
(0.0113044 -4.87165e-10 0.00638798)
(0.0113047 -8.46254e-08 0.00638821)
(0.0113046 -1.86478e-07 0.00638827)
(0.0113046 -2.26062e-07 0.00638834)
(0.0113045 -2.31187e-07 0.00638841)
(0.0113041 -1.07369e-07 0.00638828)
(0.0147218 9.02281e-08 0.00670014)
(0.0147221 1.00768e-07 0.0067004)
(0.014722 1.6736e-08 0.00670043)
(0.0147219 -1.0082e-10 0.00670045)
(0.0147218 -1.08609e-08 0.00670043)
(0.0147214 -3.02678e-09 0.00670019)
(0.0191322 3.41044e-07 0.00641119)
(0.0191325 5.64074e-07 0.00641135)
(0.0191324 4.13194e-07 0.0064113)
(0.0191324 3.48616e-07 0.00641119)
(0.0191324 2.43194e-07 0.00641108)
(0.0191319 9.20666e-08 0.00641078)
(0.0245742 6.46782e-07 0.00512979)
(0.0245748 1.08494e-06 0.00512987)
(0.0245747 7.56307e-07 0.0051298)
(0.0245748 5.46196e-07 0.00512966)
(0.0245748 2.62795e-07 0.00512951)
(0.0245742 4.42389e-08 0.00512928)
(0.0285943 7.10093e-07 0.00211701)
(0.0285951 1.12531e-06 0.00211705)
(0.0285951 5.85087e-07 0.00211704)
(0.0285952 1.87312e-07 0.00211697)
(0.0285952 -2.77947e-07 0.0021169)
(0.0285944 -2.74767e-07 0.00211684)
(0.0308429 2.7398e-07 -0.00523276)
(0.0308441 1.44564e-07 -0.00523309)
(0.0308441 -4.69845e-07 -0.00523315)
(0.030844 -7.86675e-07 -0.00523316)
(0.0308438 -1.18474e-06 -0.00523316)
(0.0308428 -6.89273e-07 -0.00523296)
(0.0196721 -8.0911e-07 -0.0214156)
(0.0196731 -1.48656e-06 -0.021417)
(0.0196731 -1.64833e-06 -0.0214172)
(0.019673 -1.5291e-06 -0.0214173)
(0.0196728 -1.54332e-06 -0.0214173)
(0.0196721 -6.14675e-07 -0.0214165)
(0.000704625 -5.99626e-08 0.00556401)
(0.00070463 -2.13824e-08 0.00556418)
(0.000704629 8.78991e-08 0.00556417)
(0.000704634 8.20495e-08 0.00556417)
(0.000704636 9.74798e-08 0.00556417)
(0.000704619 5.65071e-08 0.005564)
(0.00216368 -2.69526e-08 0.00584734)
(0.00216372 1.9473e-08 0.0058475)
(0.00216373 8.04426e-08 0.00584748)
(0.00216375 6.47684e-08 0.00584747)
(0.00216377 8.2911e-08 0.00584747)
(0.00216374 5.29114e-08 0.0058473)
(0.00377869 -1.01063e-08 0.00641306)
(0.0037788 1.42948e-08 0.00641321)
(0.00377883 2.30729e-08 0.0064132)
(0.00377887 -1.95732e-08 0.0064132)
(0.00377891 -2.05863e-08 0.00641321)
(0.00377885 -1.334e-09 0.00641304)
(0.00567673 -5.83665e-09 0.00725124)
(0.0056769 -3.31027e-08 0.00725142)
(0.00567693 -8.65472e-08 0.00725142)
(0.00567696 -1.3925e-07 0.00725144)
(0.005677 -1.49066e-07 0.00725148)
(0.00567687 -6.76996e-08 0.00725133)
(0.00801781 -1.74818e-08 0.00831916)
(0.00801802 -8.61319e-08 0.00831939)
(0.00801801 -1.60772e-07 0.00831943)
(0.008018 -2.02404e-07 0.00831949)
(0.00801799 -2.05148e-07 0.00831957)
(0.00801775 -9.31338e-08 0.00831941)
(0.0109807 1.87972e-08 0.00948688)
(0.0109809 -1.8762e-08 0.00948718)
(0.0109808 -8.71401e-08 0.00948724)
(0.0109807 -1.13774e-07 0.0094873)
(0.0109807 -1.17185e-07 0.00948735)
(0.0109804 -5.20956e-08 0.00948713)
(0.0146763 1.97009e-07 0.0104105)
(0.0146765 2.89777e-07 0.0104108)
(0.0146764 1.80502e-07 0.0104107)
(0.0146764 1.35072e-07 0.0104107)
(0.0146763 6.86337e-08 0.0104107)
(0.014676 1.68741e-08 0.0104103)
(0.01898 4.96185e-07 0.0102697)
(0.0189805 7.70434e-07 0.0102699)
(0.0189804 4.72586e-07 0.0102697)
(0.0189805 2.88661e-07 0.0102695)
(0.0189805 7.78413e-08 0.0102694)
(0.0189801 -3.10426e-08 0.0102689)
(0.0237487 6.61569e-07 0.00731405)
(0.0237494 9.9329e-07 0.00731408)
(0.0237494 4.59449e-07 0.00731388)
(0.0237495 6.29678e-08 0.00731369)
(0.0237497 -3.3493e-07 0.00731353)
(0.0237491 -3.05135e-07 0.00731324)
(0.0302865 4.30384e-07 -0.00261552)
(0.0302874 3.9918e-07 -0.00261562)
(0.0302874 -2.81099e-07 -0.00261566)
(0.0302874 -6.9554e-07 -0.00261564)
(0.0302873 -1.10637e-06 -0.00261563)
(0.0302864 -7.12664e-07 -0.0026155)
(0.0379103 -1.53468e-07 -0.0303728)
(0.0379119 -8.41135e-07 -0.0303739)
(0.0379118 -1.26645e-06 -0.0303739)
(0.0379114 -1.35838e-06 -0.0303737)
(0.0379109 -1.51309e-06 -0.0303734)
(0.0379093 -8.80528e-07 -0.0303723)
(0.0383706 -1.21332e-06 -0.0883317)
(0.0383734 -2.23772e-06 -0.0883392)
(0.0383736 -1.87919e-06 -0.0883401)
(0.0383731 -1.62496e-06 -0.0883394)
(0.0383724 -1.33957e-06 -0.088338)
(0.0383706 -6.67981e-07 -0.0883342)
(-0.394491 4.05238e-06 -0.259143)
(-0.394473 9.67583e-06 -0.259121)
(-0.394468 4.80149e-06 -0.259123)
(-0.394469 4.32574e-06 -0.259122)
(-0.394475 3.53276e-06 -0.259124)
(-0.394466 6.82705e-06 -0.25912)
(-2.97646 1.11721e-05 -1.784)
(-2.97646 1.36695e-05 -1.78401)
(-2.97645 7.52486e-06 -1.784)
(-2.97646 8.3701e-06 -1.784)
(-2.97647 1.96679e-05 -1.784)
(-2.97646 1.81878e-05 -1.78402)
(-3.73227 1.22233e-05 10.7595)
(-3.73223 2.1214e-05 10.7596)
(-3.73221 1.53906e-05 10.7596)
(-3.73221 1.61254e-05 10.7596)
(-3.73221 2.82551e-05 10.7596)
(-3.7322 2.42686e-05 10.7596)
(-1.34726 1.12425e-05 -2.42008)
(-1.34724 -1.24207e-05 -2.42008)
(-1.34725 7.63271e-06 -2.42007)
(-1.34725 -7.50835e-06 -2.42007)
(-1.34726 -4.73377e-06 -2.42008)
(-1.34721 -2.71967e-05 -2.42005)
(-6.49724 0.000122999 -6.62927)
(-6.49724 -7.56854e-05 -6.62926)
(-6.49725 0.00010329 -6.62925)
(-6.49726 -8.58968e-06 -6.6292)
(-6.49728 7.53564e-05 -6.62914)
(-6.49722 -0.000188274 -6.62924)
(-10.0689 2.35146e-05 -10.4822)
(-10.069 -4.69375e-05 -10.4822)
(-10.069 -2.68745e-05 -10.4822)
(-10.069 -4.95726e-05 -10.4821)
(-10.069 -5.38784e-06 -10.4822)
(-10.0689 -2.98815e-05 -10.4822)
(2.41833 3.14632e-05 -5.07938)
(2.41833 -9.79935e-06 -5.07942)
(2.41832 2.55377e-05 -5.07939)
(2.41833 7.55342e-06 -5.07938)
(2.41833 3.17469e-05 -5.07937)
(2.41831 -2.16394e-05 -5.07944)
(2.97404 3.72747e-05 -5.64694)
(2.97407 -1.60616e-06 -5.64712)
(2.97403 3.45684e-05 -5.64713)
(2.97404 4.48997e-05 -5.64713)
(2.97409 0.00013087 -5.64709)
(2.97395 6.7726e-05 -5.64723)
(-2.76049 -4.81601e-07 -6.94073)
(-2.76053 -2.76049e-08 -6.94078)
(-2.76052 -1.76845e-05 -6.9408)
(-2.7605 -1.43029e-05 -6.94081)
(-2.76044 -2.60955e-05 -6.94093)
(-2.76042 3.49604e-07 -6.9409)
(2.60449 0.000111518 -6.46357)
(2.60502 0.000123476 -6.46361)
(2.60501 0.000140074 -6.46353)
(2.60503 6.21933e-05 -6.46354)
(2.6051 7.83081e-05 -6.46351)
(2.60544 -7.09782e-06 -6.46342)
(-3.93152 6.59367e-05 -4.41271)
(-3.93154 0.000104997 -4.41305)
(-3.93159 6.47897e-05 -4.41309)
(-3.93158 4.12525e-05 -4.41314)
(-3.93151 2.54983e-05 -4.41323)
(-3.93114 1.1201e-05 -4.41317)
(-3.78439 2.57403e-05 -3.38419)
(-3.78456 3.12827e-05 -3.38418)
(-3.78456 4.60928e-06 -3.38412)
(-3.78455 8.14616e-06 -3.38413)
(-3.7845 -1.78543e-06 -3.38418)
(-3.78443 4.12047e-06 -3.38413)
(0.393636 0.000111709 -2.8826)
(0.394645 4.57205e-05 -2.88307)
(0.394796 5.04173e-05 -2.88297)
(0.394883 -4.59395e-05 -2.88298)
(0.395025 -6.37611e-05 -2.88302)
(0.394984 -0.000103871 -2.88286)
(-3.19401 5.29509e-05 0.176793)
(-3.19407 1.78586e-05 0.176941)
(-3.19396 -1.26309e-05 0.176962)
(-3.19394 -2.93321e-05 0.176989)
(-3.19389 -4.03736e-05 0.176996)
(-3.19361 -3.2369e-05 0.176853)
(-3.50353 -1.37933e-05 -2.10034)
(-3.50372 -1.32169e-05 -2.1003)
(-3.50377 -1.23671e-05 -2.10026)
(-3.5038 -1.65903e-05 -2.10024)
(-3.50381 9.20636e-06 -2.10023)
(-3.50373 2.18443e-05 -2.10017)
(-3.83334 -0.000116724 0.922413)
(-3.83329 -0.000140574 0.922588)
(-3.83325 -5.07126e-05 0.922661)
(-3.83317 -2.72091e-06 0.922719)
(-3.8331 7.77711e-05 0.92266)
(-3.83312 5.99201e-05 0.922325)
(-3.16793 -6.74439e-05 0.630222)
(-3.16813 -5.99701e-05 0.63041)
(-3.16816 -3.92339e-05 0.630447)
(-3.16818 -3.54348e-05 0.630533)
(-3.16817 2.30703e-06 0.630618)
(-3.16797 2.87072e-05 0.630552)
(-1.67981 -1.07452e-05 -1.11716)
(-1.67992 -1.3461e-05 -1.11713)
(-1.67995 -1.7249e-05 -1.1171)
(-1.68 -1.88275e-05 -1.11706)
(-1.68005 -6.63064e-06 -1.11703)
(-1.68 6.41132e-06 -1.11703)
(-2.20756 -2.99813e-05 0.0803093)
(-2.20778 7.1128e-05 0.080413)
(-2.20772 0.000165913 0.0804233)
(-2.20765 0.000143033 0.080516)
(-2.20755 0.000177129 0.0805085)
(-2.20728 8.80546e-05 0.0801709)
(-1.87347 -9.8422e-06 -0.257576)
(-1.87358 -1.45953e-05 -0.257516)
(-1.87357 -6.43825e-06 -0.257489)
(-1.87354 2.96754e-06 -0.257441)
(-1.87353 6.77992e-05 -0.257417)
(-1.87342 5.84899e-05 -0.257536)
(-1.59645 2.90197e-06 -0.861591)
(-1.59654 2.25804e-06 -0.861575)
(-1.59654 7.69652e-06 -0.861568)
(-1.59653 8.94692e-06 -0.861575)
(-1.59653 1.76837e-05 -0.861585)
(-1.59645 1.16381e-05 -0.861626)
(-3.69657 3.15578e-05 0.469102)
(-3.69684 0.000148216 0.469341)
(-3.69676 0.000177702 0.469336)
(-3.69667 0.000127365 0.469311)
(-3.69654 0.000117383 0.469202)
(-3.69637 5.47173e-05 0.468809)
(-2.26503 -5.34939e-06 1.10165)
(-2.26516 1.15959e-05 1.10182)
(-2.26515 4.18925e-05 1.10186)
(-2.26513 5.56263e-05 1.10186)
(-2.26512 9.03203e-05 1.10182)
(-2.26499 6.13079e-05 1.10165)
(-0.96183 9.73838e-07 0.618728)
(-0.961875 -9.53798e-06 0.618827)
(-0.961891 -6.5435e-06 0.618838)
(-0.961901 4.20152e-06 0.618827)
(-0.961909 1.55453e-05 0.618815)
(-0.961871 1.20081e-05 0.618738)
(-3.2048 7.57373e-05 2.86263)
(-3.20497 0.000145036 2.86293)
(-3.20489 9.93963e-05 2.86283)
(-3.20479 2.64705e-05 2.86274)
(-3.20467 2.3486e-05 2.86271)
(-3.20452 2.69679e-05 2.86226)
(-1.62717 1.5194e-05 2.14194)
(-1.62725 2.91165e-05 2.14217)
(-1.62723 4.02574e-05 2.14215)
(-1.62722 3.29722e-05 2.14209)
(-1.62723 5.45137e-05 2.14204)
(-1.62715 4.76771e-05 2.14179)
(-0.772777 -1.4048e-05 1.67443)
(-0.772814 -2.08788e-05 1.67452)
(-0.772822 -2.67195e-06 1.67451)
(-0.772834 8.87375e-06 1.67448)
(-0.77285 2.14228e-05 1.67446)
(-0.772827 1.74662e-05 1.67436)
(-1.69262 6.29394e-05 4.43234)
(-1.69264 2.34742e-05 4.43248)
(-1.69258 -0.000100967 4.43248)
(-1.69254 -0.000162098 4.43251)
(-1.69248 -0.000148732 4.43278)
(-1.69243 -4.91087e-05 4.43241)
(-0.815976 7.82493e-06 3.15679)
(-0.815999 -3.15116e-05 3.15693)
(-0.816011 -7.15334e-05 3.15692)
(-0.816041 -8.55899e-05 3.15692)
(-0.816079 -5.22971e-05 3.15696)
(-0.816073 2.17133e-06 3.15678)
(-0.326361 -1.12456e-05 2.4884)
(-0.326373 -2.323e-05 2.48847)
(-0.326385 -1.97131e-05 2.48847)
(-0.326401 -1.75959e-05 2.48846)
(-0.32642 -3.48315e-06 2.48847)
(-0.326423 5.93647e-06 2.48838)
(0.0146041 -4.02257e-05 4.55187)
(0.0146567 -0.000182802 4.55209)
(0.0146727 -0.000297824 4.55222)
(0.0146727 -0.000317369 4.55243)
(0.0146985 -0.000262419 4.55283)
(0.0146191 -0.000102729 4.55265)
(0.0986252 -3.21399e-05 3.36775)
(0.0986221 -0.000102632 3.36787)
(0.0986148 -0.000149559 3.36792)
(0.0985967 -0.000163073 3.368)
(0.0985927 -0.000120001 3.36814)
(0.0985465 -3.70465e-05 3.368)
(-0.0214484 -7.87914e-06 2.6875)
(-0.0214489 -2.31254e-05 2.68758)
(-0.0214503 -3.41829e-05 2.6876)
(-0.0214534 -3.98533e-05 2.68763)
(-0.0214547 -2.55412e-05 2.68767)
(-0.0214627 -4.63871e-06 2.68759)
(1.57805 -6.75406e-05 4.58953)
(1.57811 -0.000150262 4.58977)
(1.57812 -0.000178806 4.58987)
(1.57813 -0.000177984 4.59002)
(1.57814 -0.000144177 4.59025)
(1.57805 -6.14755e-05 4.59017)
(1.20522 -3.29299e-05 3.18557)
(1.20526 -7.47309e-05 3.18569)
(1.20528 -9.86086e-05 3.18574)
(1.2053 -0.000106436 3.18581)
(1.20533 -8.30874e-05 3.18591)
(1.20527 -3.04452e-05 3.1858)
(0.384005 -7.33616e-06 2.51585)
(0.384025 -1.98267e-05 2.51594)
(0.384033 -3.02054e-05 2.51596)
(0.384043 -3.44857e-05 2.51599)
(0.384056 -2.55778e-05 2.51601)
(0.384036 -7.40927e-06 2.51594)
(0.357538 -1.28824e-06 0.0850336)
(0.35755 -7.92414e-07 0.0850363)
(0.35755 2.70271e-07 0.0850365)
(0.35755 1.25661e-06 0.0850365)
(0.357549 1.31013e-06 0.0850365)
(0.357537 1.29298e-06 0.085034)
(0.285254 -6.81371e-07 0.234475)
(0.285263 -4.91475e-07 0.234483)
(0.285264 7.60673e-07 0.234483)
(0.285263 1.41677e-06 0.234483)
(0.285263 1.71651e-06 0.234483)
(0.285253 1.02594e-06 0.234475)
(0.108475 -5.7173e-08 0.348986)
(0.108478 1.88382e-07 0.348996)
(0.108478 7.68367e-07 0.348996)
(0.108478 9.02534e-07 0.348996)
(0.108478 9.22872e-07 0.348995)
(0.108474 4.7965e-07 0.348984)
(0.484068 -1.18587e-06 0.115887)
(0.484084 -4.71012e-07 0.115891)
(0.484085 4.60883e-07 0.11589)
(0.484085 1.69792e-06 0.11589)
(0.484084 1.88398e-06 0.11589)
(0.484068 1.86807e-06 0.115886)
(0.3934 -6.76694e-07 0.329015)
(0.393414 -8.77978e-07 0.329025)
(0.393415 3.12595e-07 0.329025)
(0.393415 1.31048e-06 0.329025)
(0.393415 1.93409e-06 0.329024)
(0.393402 1.30066e-06 0.329014)
(0.150424 -1.02419e-07 0.491268)
(0.15043 -9.14534e-08 0.491283)
(0.15043 6.4157e-07 0.491283)
(0.15043 9.60171e-07 0.491282)
(0.15043 9.20038e-07 0.491281)
(0.150425 4.63938e-07 0.491266)
(0.661148 -1.23021e-06 0.153749)
(0.661172 -8.77175e-07 0.153753)
(0.661175 -7.16852e-07 0.153752)
(0.661176 7.35699e-07 0.153752)
(0.661176 1.45358e-06 0.153751)
(0.661153 2.04032e-06 0.153746)
(0.553491 -1.12989e-06 0.457328)
(0.553513 -2.3251e-06 0.457342)
(0.553516 -1.62526e-06 0.457342)
(0.553518 -3.09859e-07 0.457341)
(0.553518 1.01763e-06 0.457341)
(0.553499 1.14841e-06 0.457326)
(0.207831 -5.15824e-07 0.684553)
(0.207839 -1.04954e-06 0.684575)
(0.207841 -1.57536e-07 0.684575)
(0.207841 3.7414e-07 0.684574)
(0.207841 4.24812e-07 0.684573)
(0.207835 2.04714e-07 0.684551)
(0.818526 -2.50042e-06 0.17905)
(0.818555 -2.84548e-06 0.179054)
(0.818559 -4.1114e-06 0.179052)
(0.818561 -2.16688e-06 0.17905)
(0.818561 1.27168e-07 0.179048)
(0.818532 2.63271e-06 0.179041)
(0.769039 -3.39287e-06 0.627338)
(0.769072 -7.12051e-06 0.627356)
(0.769078 -7.26562e-06 0.627356)
(0.769083 -5.43288e-06 0.627357)
(0.769086 -1.95723e-06 0.627356)
(0.769059 6.08365e-07 0.627335)
(0.285463 -1.01118e-06 0.947704)
(0.285475 -2.60075e-06 0.947735)
(0.285477 -2.4734e-06 0.947736)
(0.28548 -2.03769e-06 0.947736)
(0.285481 -1.13934e-06 0.947735)
(0.28547 -3.2846e-07 0.947705)
(1.08672 -8.28875e-07 0.332816)
(1.08676 1.0557e-06 0.332835)
(1.08676 -4.12888e-06 0.332837)
(1.08676 -2.00606e-06 0.332838)
(1.08676 -3.44792e-06 0.33284)
(1.08671 8.82955e-07 0.332823)
(1.10836 -6.71856e-06 0.845101)
(1.10842 -1.40756e-05 0.84513)
(1.10843 -1.65628e-05 0.845132)
(1.10844 -1.51466e-05 0.845134)
(1.10845 -9.85799e-06 0.845136)
(1.10841 -2.32236e-06 0.845106)
(0.39492 -2.76413e-06 1.28698)
(0.394939 -6.87712e-06 1.28702)
(0.394944 -7.55877e-06 1.28702)
(0.394949 -6.9785e-06 1.28703)
(0.394952 -4.18375e-06 1.28703)
(0.394938 -1.3843e-06 1.28699)