/*--------------------------------*- C++ -*----------------------------------*\
| =========                 |                                                 |
| \\      /  F ield         | OpenFOAM: The Open Source CFD Toolbox           |
|  \\    /   O peration     | Version:  v1612+                                |
|   \\  /    A nd           | Web:      www.OpenFOAM.com                      |
|    \\/     M anipulation  |                                                 |
\*---------------------------------------------------------------------------*/
FoamFile
{
    version     2.0;
    format      ascii;
    class       volScalarField;
    location    "3.45";
    object      p;
}
// * * * * * * * * * * * * * * * * * * * * * * * * * * * * * * * * * * * * * //

dimensions      [1 -1 -2 0 0 0 0];

internalField   nonuniform List<scalar> 
1116
(
4391.74
4391.73
4391.73
4391.72
4391.71
4391.73
4216.64
4216.62
4216.63
4216.62
4216.61
4216.63
4126.73
4126.71
4126.71
4126.71
4126.7
4126.72
4336.46
4336.44
4336.44
4336.44
4336.44
4336.45
4724.39
4724.38
4724.38
4724.38
4724.37
4724.39
5245.6
5245.59
5245.59
5245.59
5245.59
5245.6
6059.26
6059.25
6059.24
6059.25
6059.25
6059.26
7462.41
7462.39
7462.38
7462.38
7462.38
7462.41
10146.7
10146.7
10146.7
10146.7
10146.7
10146.7
14068.3
14068.2
14068.2
14068.2
14068.2
14068.3
17754.1
17754.1
17754.1
17754.1
17754.1
17754.1
19788.1
19788
19788
19788
19788
19788
309.647
309.643
309.644
309.638
309.635
309.653
148.76
148.756
148.756
148.756
148.757
148.762
117.955
117.954
117.952
117.954
117.956
117.954
163.812
163.812
163.81
163.812
163.814
163.811
257.006
257.006
257.004
257.006
257.009
257.006
389.464
389.462
389.461
389.464
389.467
389.465
559.088
559.084
559.082
559.085
559.09
559.09
836.887
836.872
836.874
836.875
836.881
836.893
2003.74
2003.67
2003.68
2003.68
2003.68
2003.74
5772.68
5772.75
5772.74
5772.73
5772.75
5772.74
10360.7
10360.6
10360.7
10360.6
10360.6
10360.6
12942.1
12942.1
12942.1
12942.1
12942.1
12942.1
-18.3521
-18.3516
-18.3514
-18.3511
-18.351
-18.3513
-17.5509
-17.5506
-17.5505
-17.5504
-17.5503
-17.5505
-16.7851
-16.785
-16.785
-16.7851
-16.7852
-16.7854
-14.7553
-14.7552
-14.7552
-14.7552
-14.7553
-14.7553
-12.6704
-12.6704
-12.6704
-12.6704
-12.6704
-12.6703
-10.0553
-10.0553
-10.0553
-10.0553
-10.0554
-10.0552
-0.535864
-0.536418
-0.536639
-0.536869
-0.537083
-0.536965
23.3664
23.3653
23.3643
23.3637
23.3637
23.3639
110.147
110.145
110.146
110.146
110.147
110.151
464.605
464.711
464.68
464.675
464.707
464.678
4335.61
4335.46
4335.56
4335.54
4335.53
4335.61
7977.82
7978.07
7977.99
7978.02
7978.05
7977.97
-28.4255
-28.4253
-28.4251
-28.4248
-28.4247
-28.4247
-27.6535
-27.6533
-27.6533
-27.6533
-27.6533
-27.6535
-26.7699
-26.7698
-26.7699
-26.7699
-26.77
-26.7701
-24.4924
-24.4923
-24.4923
-24.4922
-24.4922
-24.4923
-21.7875
-21.7873
-21.7873
-21.7872
-21.7871
-21.7872
-20.1197
-20.1195
-20.1195
-20.1197
-20.1197
-20.1197
-18.3259
-18.3257
-18.3258
-18.326
-18.3261
-18.3266
-16.9001
-16.9016
-16.9022
-16.9027
-16.903
-16.9027
-15.5188
-15.5419
-15.5376
-15.5381
-15.5435
-15.5315
35.2874
35.3055
35.3061
35.3062
35.3078
35.3015
572.26
573.259
572.863
572.834
573.087
572.684
2996.47
2996.57
2996.47
2996.51
2996.46
2996.54
-1.58268
-1.58267
-1.58268
-1.58269
-1.5827
-1.58271
-1.42039
-1.4204
-1.4204
-1.42038
-1.42036
-1.42035
-1.08864
-1.08863
-1.08857
-1.08848
-1.08838
-1.08832
-0.572773
-0.572712
-0.572612
-0.572496
-0.572391
-0.572325
0.146844
0.146902
0.146934
0.14694
0.146924
0.146899
1.09098
1.09095
1.09084
1.09068
1.09052
1.09041
2.27415
2.27405
2.27389
2.27374
2.27364
2.27358
3.6957
3.69571
3.69573
3.69592
3.69617
3.69627
5.32693
5.32726
5.32757
5.32841
5.3293
5.32897
7.05744
7.06106
7.05881
7.06048
7.06402
7.05356
8.78892
8.78916
8.78901
8.7889
8.78863
8.78757
10.0788
10.0785
10.0778
10.077
10.0762
10.0759
-11.5512
-11.5512
-11.5512
-11.5512
-11.5512
-11.5512
-11.3872
-11.3872
-11.3871
-11.3871
-11.3871
-11.3871
-11.0539
-11.0538
-11.0538
-11.0537
-11.0537
-11.0537
-10.5425
-10.5425
-10.5425
-10.5425
-10.5426
-10.5426
-9.84307
-9.84312
-9.84321
-9.8433
-9.84338
-9.84344
-8.94277
-8.94286
-8.94294
-8.94296
-8.94294
-8.9429
-7.82593
-7.82588
-7.82572
-7.82543
-7.8251
-7.82486
-6.48221
-6.48174
-6.48135
-6.48056
-6.47971
-6.47925
-4.90499
-4.90539
-4.904
-4.90156
-4.89862
-4.89559
-3.14081
-3.14389
-3.14155
-3.14279
-3.14616
-3.13637
-0.866621
-0.867372
-0.867854
-0.868477
-0.868901
-0.869571
1.17038
1.16955
1.16752
1.16465
1.16265
1.16244
-21.6748
-21.6748
-21.6748
-21.6748
-21.6748
-21.6748
-21.5147
-21.5147
-21.5147
-21.5147
-21.5147
-21.5148
-21.185
-21.185
-21.185
-21.185
-21.1851
-21.1851
-20.6631
-20.6632
-20.6632
-20.6633
-20.6634
-20.6635
-19.9091
-19.9092
-19.9093
-19.9094
-19.9095
-19.9095
-18.8651
-18.8651
-18.8651
-18.865
-18.8648
-18.8647
-17.4683
-17.4683
-17.4681
-17.4678
-17.4674
-17.4672
-15.6558
-15.656
-15.6559
-15.656
-15.6563
-15.6564
-13.3776
-13.3774
-13.3787
-13.3812
-13.3844
-13.3868
-10.8174
-10.8189
-10.8205
-10.8227
-10.8247
-10.8241
-7.70523
-7.70759
-7.71025
-7.71161
-7.71328
-7.71775
-5.18342
-5.1869
-5.19457
-5.20591
-5.21563
-5.21355
-31.9438
-31.9439
-31.9439
-31.9439
-31.9439
-31.9439
-31.8001
-31.8001
-31.8002
-31.8002
-31.8002
-31.8002
-31.5057
-31.5057
-31.5058
-31.5058
-31.5059
-31.506
-31.0491
-31.0492
-31.0493
-31.0494
-31.0495
-31.0496
-30.4165
-30.4166
-30.4166
-30.4166
-30.4166
-30.4166
-29.5881
-29.5881
-29.5879
-29.5878
-29.5876
-29.5874
-28.5283
-28.5281
-28.5279
-28.5276
-28.5275
-28.5275
-27.1828
-27.1827
-27.1825
-27.1825
-27.1826
-27.1829
-25.3619
-25.3623
-25.362
-25.3609
-25.3601
-25.361
-23.4242
-23.4256
-23.4268
-23.4267
-23.4272
-23.4315
-19.7016
-19.713
-19.7191
-19.7037
-19.6885
-19.7443
-11.0943
-11.0995
-11.1214
-11.1718
-11.2071
-11.1664
-40.3783
-40.3781
-40.378
-40.378
-40.378
-40.378
-52.067
-52.0669
-52.0669
-52.0669
-52.0669
-52.067
-64.5417
-64.5418
-64.5418
-64.5418
-64.5418
-64.5417
-39.9662
-39.9661
-39.9661
-39.9661
-39.9661
-39.9663
-51.8562
-51.8562
-51.8562
-51.8563
-51.8563
-51.8564
-64.5221
-64.5222
-64.5221
-64.5221
-64.5221
-64.5221
-39.4772
-39.4772
-39.4772
-39.4773
-39.4773
-39.4774
-51.2525
-51.2525
-51.2526
-51.2526
-51.2526
-51.2526
-64.4219
-64.4219
-64.4219
-64.4218
-64.4219
-64.4218
-38.42
-38.4199
-38.42
-38.4199
-38.4199
-38.42
-50.3916
-50.3916
-50.3916
-50.3916
-50.3915
-50.3915
-64.3115
-64.3116
-64.3116
-64.3116
-64.3117
-64.3117
-36.9582
-36.9581
-36.958
-36.958
-36.958
-36.9581
-49.2378
-49.2378
-49.2377
-49.2377
-49.2378
-49.2378
-63.9429
-63.943
-63.9431
-63.9432
-63.9432
-63.9431
-34.8849
-34.8848
-34.8848
-34.8848
-34.8848
-34.8849
-47.9242
-47.9243
-47.9243
-47.9244
-47.9244
-47.9245
-63.2521
-63.2521
-63.2522
-63.2522
-63.2521
-63.252
-30.4044
-30.4045
-30.4047
-30.4048
-30.4049
-30.4051
-45.837
-45.8372
-45.8374
-45.8375
-45.8375
-45.8376
-62.2748
-62.2748
-62.2747
-62.2746
-62.2746
-62.2746
-33.1953
-33.1958
-33.1963
-33.1966
-33.1969
-33.1974
-45.9577
-45.9579
-45.9581
-45.9582
-45.9583
-45.9586
-59.9628
-59.963
-59.9627
-59.9625
-59.9624
-59.9623
-24.0708
-24.0762
-24.0755
-24.0762
-24.0774
-24.0749
-33.3165
-33.3178
-33.3176
-33.3177
-33.3174
-33.3184
-61.65
-61.6498
-61.6491
-61.6484
-61.648
-61.6488
-35.0999
-35.1061
-35.1017
-35.1007
-35.1018
-35.1019
-23.2856
-23.2852
-23.2843
-23.2834
-23.2768
-23.2949
-44.25
-44.2478
-44.246
-44.244
-44.2423
-44.2477
-102.229
-102.138
-102.153
-102.147
-102.134
-102.184
-7.98168
-7.97696
-7.97686
-7.95468
-7.95342
-7.97804
-75.6174
-75.5998
-75.595
-75.5879
-75.5736
-75.6061
185.785
185.896
185.798
185.812
185.604
185.955
483.905
483.925
483.881
483.778
483.498
484.252
-65.4019
-65.3938
-65.3773
-65.3554
-65.3315
-65.358
6.80153
6.85128
6.7872
6.24626
6.32767
5.54161
-132.304
-132.306
-132.102
-131.532
-131.585
-129.21
-205.389
-205.485
-205.539
-204.762
-206.809
-202.447
58.093
58.1183
58.1527
57.146
57.2084
57.7712
-241.985
-241.543
-241.532
-238.062
-241.317
-227.844
-406.687
-408.411
-409.328
-413.763
-437.514
-403.004
360.902
361.177
361.876
355.729
358.85
365.216
1306.91
1311.31
1313.72
1314.93
1377.49
1282.94
-72.8516
-72.8296
-72.6218
-73.6001
-74.3175
-74.2125
477.24
476.498
475.728
474.463
472.171
474.909
967.043
967.793
967.362
966
962.516
968.366
-60.4332
-60.3274
-60.1335
-59.8138
-58.5921
-60.9043
1126.05
1125.6
1125.07
1124.84
1121.23
1123.56
1042.03
1042.39
1042.1
1043.62
1046.36
1038.58
-56.3313
-56.2873
-56.2189
-56.146
-55.8755
-56.2991
614.451
614.14
613.684
613.81
612.288
612.846
1229.89
1230.25
1230.02
1230.15
1231.42
1228.17
-59.1412
-59.1201
-59.0888
-59.0506
-58.9905
-59.0809
-42.3209
-42.3209
-42.3209
-42.3209
-42.321
-42.321
-52.8156
-52.8156
-52.8156
-52.8156
-52.8157
-52.8157
-63.3713
-63.3713
-63.3713
-63.3713
-63.3713
-63.3713
-42.2054
-42.2054
-42.2054
-42.2054
-42.2055
-42.2055
-52.7426
-52.7426
-52.7426
-52.7426
-52.7426
-52.7426
-63.3434
-63.3434
-63.3434
-63.3434
-63.3434
-63.3434
-41.9634
-41.9634
-41.9635
-41.9635
-41.9636
-41.9636
-52.5917
-52.5918
-52.5918
-52.5918
-52.5918
-52.5918
-63.282
-63.2821
-63.2821
-63.2821
-63.2821
-63.2821
-41.5672
-41.5672
-41.5672
-41.5673
-41.5673
-41.5673
-52.3555
-52.3555
-52.3555
-52.3555
-52.3555
-52.3555
-63.1737
-63.1737
-63.1737
-63.1737
-63.1737
-63.1737
-40.9578
-40.9579
-40.9579
-40.9579
-40.9579
-40.9579
-52.0272
-52.0272
-52.0273
-52.0273
-52.0273
-52.0273
-62.9865
-62.9865
-62.9865
-62.9865
-62.9865
-62.9865
-40.0254
-40.0254
-40.0255
-40.0255
-40.0256
-40.0256
-51.5901
-51.5901
-51.5902
-51.5903
-51.5904
-51.5905
-62.6934
-62.6935
-62.6935
-62.6935
-62.6935
-62.6936
-38.598
-38.5981
-38.5983
-38.5986
-38.5989
-38.5991
-51.0072
-51.0074
-51.0077
-51.008
-51.0086
-51.0092
-62.1955
-62.1956
-62.1956
-62.1958
-62.196
-62.196
-36.4573
-36.4577
-36.4585
-36.4594
-36.4602
-36.4605
-50.5724
-50.5728
-50.5738
-50.5748
-50.5758
-50.576
-61.6826
-61.6831
-61.6831
-61.6838
-61.6845
-61.6842
-32.8206
-32.8217
-32.8246
-32.8286
-32.8322
-32.8336
-48.2292
-48.2306
-48.2327
-48.2338
-48.2365
-48.2335
-60.611
-60.6116
-60.6126
-60.6142
-60.6171
-60.6184
-27.8983
-27.8996
-27.9043
-27.9111
-27.9152
-27.9198
-48.5146
-48.5162
-48.5231
-48.5305
-48.535
-48.5438
-59.8488
-59.8464
-59.8506
-59.8577
-59.8601
-59.8782
-18.3529
-18.3603
-18.3783
-18.4
-18.4177
-18.4097
-47.2385
-47.2452
-47.2845
-47.2796
-47.3392
-47.2716
-74.5974
-74.629
-74.7032
-74.6232
-74.8359
-74.5326
-11.3049
-11.3332
-11.3756
-11.5206
-11.5527
-11.604
-35.7367
-35.7907
-35.8003
-36.065
-35.9632
-36.3195
-22.943
-23.0187
-23.0319
-23.224
-23.3996
-23.1292
)
;

boundaryField
{
    seabed_topleft_surface
    {
        type            calculated;
        value           nonuniform List<scalar> 
72
(
7966.59
7966.55
7966.56
7966.56
7966.53
7966.56
7796.75
7796.71
7796.72
7796.71
7796.69
7796.73
7854.68
7854.64
7854.65
7854.65
7854.63
7854.65
8285.57
8285.52
8285.53
8285.53
8285.52
8285.54
8893.15
8893.1
8893.12
8893.12
8893.1
8893.13
9603.72
9603.67
9603.68
9603.69
9603.68
9603.71
10572.9
10572.8
10572.8
10572.8
10572.8
10572.9
12227
12227
12227
12227
12227
12227
14936
14936
14936
14936
14936
14936
18857.6
18857.5
18857.5
18857.5
18857.5
18857.6
22543.4
22543.4
22543.4
22543.4
22543.3
22543.4
24564.7
24564.6
24564.6
24564.6
24564.6
24564.6
)
;
    }
    seabed_topright_surface
    {
        type            calculated;
        value           nonuniform List<scalar> 
72
(
3.33917
3.33918
3.33918
3.33917
3.33916
3.33915
3.50147
3.50146
3.50146
3.50148
3.5015
3.50151
3.83321
3.83323
3.83329
3.83338
3.83347
3.83354
4.34908
4.34914
4.34924
4.34936
4.34946
4.34953
5.0687
5.06876
5.06879
5.0688
5.06878
5.06876
6.01284
6.01281
6.01269
6.01253
6.01237
6.01226
7.196
7.19591
7.19574
7.1956
7.1955
7.19544
8.61756
8.61756
8.61759
8.61778
8.61802
8.61813
10.2488
10.2491
10.2494
10.2503
10.2512
10.2508
11.9793
11.9829
11.9807
11.9823
11.9859
11.9754
13.7108
13.711
13.7109
13.7108
13.7105
13.7094
15.0006
15.0003
14.9997
14.9988
14.998
14.9977
)
;
    }
    breakwater_top_surface
    {
        type            calculated;
        value           nonuniform List<scalar> 
36
(
12.5612
12.6117
12.5477
12.0045
12.0961
11.2958
474.823
474.729
474.833
472.729
477.529
469.887
1306.9
1306.72
1307.19
1303.25
1308.29
1312.05
2111.93
2110.37
2109.7
2114.46
2117.55
2107.66
4484.24
4483.59
4482.96
4484.31
4483.65
4479.67
4030.37
4030
4029.51
4029.56
4027.96
4029.01
)
;
    }
    breakwater_left_surface
    {
        type            calculated;
        value           nonuniform List<scalar> 
24
(
19804.4
19804.4
19804.4
19804.4
19804.4
19804.4
12958.2
12958.2
12958.2
12958.2
12958.2
12958.1
7993.57
7993.82
7993.74
7993.77
7993.8
7993.72
3011.91
3012
3011.9
3011.95
3011.89
3011.97
)
;
    }
    breakwater_right_surface
    {
        type            calculated;
        value           nonuniform List<scalar> 
24
(
10.0956
10.0953
10.0947
10.0938
10.093
10.0927
1.1869
1.18607
1.18404
1.18117
1.17916
1.17896
-5.16723
-5.17071
-5.17838
-5.18972
-5.19944
-5.19736
-11.0784
-11.0836
-11.1055
-11.156
-11.1912
-11.1505
)
;
    }
    water_front_surface
    {
        type            calculated;
        value           nonuniform List<scalar> 
186
(
4391.74
4216.64
4126.73
4336.46
4724.39
5245.6
6059.26
7462.41
10146.7
14068.3
17754.1
19788.1
309.647
148.76
117.955
163.812
257.006
389.464
559.088
836.887
2003.74
5772.68
10360.7
12942.1
-18.3521
-17.5509
-16.7851
-14.7553
-12.6704
-10.0553
-0.535864
23.3664
110.147
464.605
4335.61
7977.82
-28.4255
-27.6535
-26.7699
-24.4924
-21.7875
-20.1197
-18.3259
-16.9001
-15.5188
35.2874
572.26
2996.47
-1.58268
-1.42039
-1.08864
-0.572773
0.146844
1.09098
2.27415
3.6957
5.32693
7.05744
8.78892
10.0788
-11.5512
-11.3872
-11.0539
-10.5425
-9.84307
-8.94277
-7.82593
-6.48221
-4.90499
-3.14081
-0.866621
1.17038
-21.6748
-21.5147
-21.185
-20.6631
-19.9091
-18.8651
-17.4683
-15.6558
-13.3776
-10.8174
-7.70523
-5.18342
-31.9438
-31.8001
-31.5057
-31.0491
-30.4165
-29.5881
-28.5283
-27.1828
-25.3619
-23.4242
-19.7016
-11.0943
-40.3783
-52.067
-64.5417
-39.9662
-51.8562
-64.5221
-39.4772
-51.2525
-64.4219
-38.42
-50.3916
-64.3115
-36.9582
-49.2378
-63.9429
-34.8849
-47.9242
-63.2521
-30.4044
-45.837
-62.2748
-33.1953
-45.9577
-59.9628
-24.0708
-33.3165
-61.65
-35.0999
-23.2856
-44.25
-102.229
-7.98168
-75.6174
185.785
483.905
-65.4019
6.80153
-132.304
-205.389
58.093
-241.985
-406.687
360.902
1306.91
-72.8516
477.24
967.043
-60.4332
1126.05
1042.03
-56.3313
614.451
1229.89
-59.1412
-42.3209
-52.8156
-63.3713
-42.2054
-52.7426
-63.3434
-41.9634
-52.5917
-63.282
-41.5672
-52.3555
-63.1737
-40.9578
-52.0272
-62.9865
-40.0254
-51.5901
-62.6934
-38.598
-51.0072
-62.1955
-36.4573
-50.5724
-61.6826
-32.8206
-48.2292
-60.611
-27.8983
-48.5146
-59.8488
-18.3529
-47.2385
-74.5974
-11.3049
-35.7367
-22.943
)
;
    }
    water_back_surface
    {
        type            calculated;
        value           nonuniform List<scalar> 
186
(
4391.73
4216.63
4126.72
4336.45
4724.39
5245.6
6059.26
7462.41
10146.7
14068.3
17754.1
19788
309.653
148.762
117.954
163.811
257.006
389.465
559.09
836.893
2003.74
5772.74
10360.6
12942.1
-18.3513
-17.5505
-16.7854
-14.7553
-12.6703
-10.0552
-0.536965
23.3639
110.151
464.678
4335.61
7977.97
-28.4247
-27.6535
-26.7701
-24.4923
-21.7872
-20.1197
-18.3266
-16.9027
-15.5315
35.3015
572.684
2996.54
-1.58271
-1.42035
-1.08832
-0.572325
0.146899
1.09041
2.27358
3.69627
5.32897
7.05356
8.78757
10.0759
-11.5512
-11.3871
-11.0537
-10.5426
-9.84344
-8.9429
-7.82486
-6.47925
-4.89559
-3.13637
-0.869571
1.16244
-21.6748
-21.5148
-21.1851
-20.6635
-19.9095
-18.8647
-17.4672
-15.6564
-13.3868
-10.8241
-7.71775
-5.21355
-31.9439
-31.8002
-31.506
-31.0496
-30.4166
-29.5874
-28.5275
-27.1829
-25.361
-23.4315
-19.7443
-11.1664
-40.378
-52.067
-64.5417
-39.9663
-51.8564
-64.5221
-39.4774
-51.2526
-64.4218
-38.42
-50.3915
-64.3117
-36.9581
-49.2378
-63.9431
-34.8849
-47.9245
-63.252
-30.4051
-45.8376
-62.2746
-33.1974
-45.9586
-59.9623
-24.0749
-33.3184
-61.6488
-35.1019
-23.2949
-44.2477
-102.184
-7.97804
-75.6061
185.955
484.252
-65.358
5.54161
-129.21
-202.447
57.7712
-227.844
-403.004
365.216
1282.94
-74.2125
474.909
968.366
-60.9043
1123.56
1038.58
-56.2991
612.846
1228.17
-59.0809
-42.321
-52.8157
-63.3713
-42.2055
-52.7426
-63.3434
-41.9636
-52.5918
-63.2821
-41.5673
-52.3555
-63.1737
-40.9579
-52.0273
-62.9865
-40.0256
-51.5905
-62.6936
-38.5991
-51.0092
-62.196
-36.4605
-50.576
-61.6842
-32.8336
-48.2335
-60.6184
-27.9198
-48.5438
-59.8782
-18.4097
-47.2716
-74.5326
-11.604
-36.3195
-23.1292
)
;
    }
    water_left_surface
    {
        type            calculated;
        value           nonuniform List<scalar> 
42
(
4403.98
4403.97
4403.97
4403.97
4403.96
4403.97
310.741
310.737
310.738
310.732
310.729
310.747
-18.3359
-18.3354
-18.3352
-18.3349
-18.3348
-18.3351
-28.4097
-28.4094
-28.4092
-28.409
-28.4088
-28.4089
-40.3783
-40.3781
-40.378
-40.378
-40.378
-40.378
-52.067
-52.0669
-52.0669
-52.0669
-52.0669
-52.067
-64.5417
-64.5418
-64.5418
-64.5418
-64.5418
-64.5417
)
;
    }
    water_right_surface
    {
        type            calculated;
        value           nonuniform List<scalar> 
42
(
-1.56583
-1.56582
-1.56582
-1.56583
-1.56584
-1.56585
-11.5347
-11.5347
-11.5347
-11.5347
-11.5347
-11.5347
-21.6586
-21.6586
-21.6586
-21.6586
-21.6586
-21.6586
-31.928
-31.928
-31.928
-31.928
-31.928
-31.928
-42.3209
-42.3209
-42.3209
-42.3209
-42.321
-42.321
-52.8156
-52.8156
-52.8156
-52.8156
-52.8157
-52.8157
-63.3713
-63.3713
-63.3713
-63.3713
-63.3713
-63.3713
)
;
    }
    water_top_surface
    {
        type            calculated;
        value           nonuniform List<scalar> 
180
(
-70.5077
-70.5081
-70.5081
-70.5081
-70.5081
-70.5078
-70.6052
-70.6055
-70.6054
-70.6054
-70.6054
-70.605
-70.3813
-70.3815
-70.3814
-70.3813
-70.3814
-70.3811
-70.4841
-70.4845
-70.4845
-70.4845
-70.4846
-70.4845
-70.409
-70.4095
-70.4096
-70.4097
-70.4098
-70.4094
-70.4721
-70.4724
-70.4724
-70.4724
-70.4724
-70.472
-70.4658
-70.4659
-70.4658
-70.4657
-70.4658
-70.4655
-70.3816
-70.3816
-70.3815
-70.3816
-70.3818
-70.3813
-69.5422
-69.5424
-69.5424
-69.5426
-69.5427
-69.5424
-68.67
-68.67
-68.67
-68.67
-68.67
-68.67
-97.6913
-97.5999
-97.6238
-97.6129
-97.5164
-97.76
-80.5807
-80.5728
-80.5758
-80.5741
-80.5825
-80.563
-515.807
-521.063
-521.933
-516.393
-536.889
-496.285
-3665.22
-3677.58
-3685.52
-3640.51
-3609.4
-3704.04
-80.2674
-80.2934
-80.1688
-80.735
-84.0149
-78.6534
-96.1504
-96.1478
-96.1017
-95.9229
-95.1625
-96.4507
-70.4074
-70.4073
-70.3969
-70.3746
-70.3347
-70.4018
-70.9942
-70.9861
-70.9802
-70.9913
-71.0162
-70.9437
-68.67
-68.67
-68.67
-68.67
-68.67
-68.67
-68.67
-68.67
-68.67
-68.67
-68.67
-68.67
-68.67
-68.67
-68.67
-68.67
-68.67
-68.67
-68.67
-68.67
-68.67
-68.67
-68.67
-68.67
-68.67
-68.67
-68.67
-68.67
-68.67
-68.67
-68.67
-68.67
-68.67
-68.67
-68.67
-68.67
-68.67
-68.67
-68.67
-68.67
-68.67
-68.67
-68.67
-68.67
-68.67
-68.67
-68.67
-68.67
-68.67
-68.67
-68.67
-68.67
-68.67
-68.67
-68.67
-68.67
-68.67
-68.67
-68.67
-68.67
-68.67
-68.67
-68.67
-68.67
-68.67
-68.67
-69.4386
-69.4311
-69.4298
-69.4446
-69.4121
-69.4707
)
;
    }
}


// ************************************************************************* //
