/*--------------------------------*- C++ -*----------------------------------*\
| =========                 |                                                 |
| \\      /  F ield         | OpenFOAM: The Open Source CFD Toolbox           |
|  \\    /   O peration     | Version:  v1612+                                |
|   \\  /    A nd           | Web:      www.OpenFOAM.com                      |
|    \\/     M anipulation  |                                                 |
\*---------------------------------------------------------------------------*/
FoamFile
{
    version     2.0;
    format      ascii;
    class       volScalarField;
    location    "8.85";
    object      alpha.water;
}
// * * * * * * * * * * * * * * * * * * * * * * * * * * * * * * * * * * * * * //

dimensions      [0 0 0 0 0 0 0];

internalField   nonuniform List<scalar> 
1116
(
0.745513
0.746247
0.747819
0.744172
0.742274
0.747939
0.790568
0.790798
0.79127
0.790036
0.789049
0.791614
0.933867
0.934477
0.934419
0.934013
0.933567
0.934688
0.972599
0.972604
0.972602
0.972602
0.972602
0.972594
0.972638
0.972639
0.972638
0.972639
0.97264
0.972635
0.972639
0.972639
0.972639
0.97264
0.97264
0.97264
0.972638
0.972639
0.972638
0.972639
0.97264
0.972635
0.886745
0.886506
0.886956
0.886102
0.884613
0.888469
0.790829
0.787763
0.789129
0.789452
0.790661
0.788997
0.78133
0.780468
0.780599
0.781133
0.783
0.781111
0.731931
0.730046
0.730619
0.732245
0.732469
0.729635
0.677131
0.676172
0.675851
0.677095
0.676503
0.675595
0.271286
0.268201
0.267421
0.272428
0.272165
0.26914
0.293175
0.292665
0.291661
0.290982
0.286538
0.293601
0.406465
0.406617
0.406281
0.4063
0.404157
0.409216
0.607712
0.610886
0.611437
0.608508
0.608545
0.615868
0.796406
0.801518
0.801958
0.796931
0.795838
0.803698
0.86466
0.866308
0.867024
0.86447
0.864739
0.864994
0.870456
0.868913
0.87038
0.869887
0.869803
0.868501
0.874452
0.873769
0.87431
0.874037
0.873979
0.874375
0.819441
0.826478
0.82322
0.82301
0.825511
0.826671
0.444241
0.446718
0.444298
0.451025
0.454078
0.442493
0.286353
0.284337
0.28476
0.285768
0.285439
0.285939
0.518325
0.494261
0.506903
0.515068
0.49463
0.497436
3.72523e-07
1.68279e-07
2.11106e-07
4.74156e-08
1.78274e-07
1.29101e-07
1.60305e-08
7.91679e-09
1.0031e-08
2.09171e-09
7.55168e-09
6.42502e-09
1.79885e-14
1.22548e-14
1.56847e-14
2.60413e-15
7.3618e-15
9.60585e-15
-1.1175e-13
-1.7117e-15
-1.6277e-13
-3.39116e-15
1.05148e-12
2.99815e-12
4.17128e-05
1.70668e-05
-2.18715e-09
2.70319e-05
0.000243038
0.000320615
0.0157377
0.0159472
0.016013
0.0157475
0.0156651
0.0164947
0.0320363
0.0319703
0.0320507
0.0324456
0.0319002
0.0326316
0.0497681
0.0478492
0.0483919
0.0501703
0.0486127
0.0486854
0.0752951
0.0722128
0.0734722
0.0741693
0.0723197
0.0750982
0.193618
0.17728
0.182234
0.188248
0.183608
0.18653
0.286776
0.279699
0.281892
0.285229
0.282316
0.284395
0.371112
0.365313
0.367821
0.37298
0.374056
0.354572
7.88154e-05
3.60298e-05
2.61508e-05
5.05954e-05
7.68874e-05
2.55669e-05
2.11666e-05
1.01352e-05
1.36336e-05
1.6018e-06
7.83498e-06
8.67642e-06
2.31729e-24
2.96505e-24
2.8848e-24
3.81701e-24
2.65544e-24
2.85486e-24
-9.7559e-16
-7.84712e-14
-6.41034e-14
-1.22017e-14
-1.11265e-14
-6.43289e-15
6.04334e-18
-1.18646e-12
-7.66337e-11
-5.00006e-11
-4.97152e-11
-2.24246e-11
-1.22585e-17
-4.71294e-17
7.45454e-13
7.18306e-10
8.4961e-08
2.23405e-09
5.61909e-08
5.53975e-08
5.61917e-08
5.61158e-08
9.83231e-08
5.13956e-08
1.22283e-07
1.11567e-07
1.11576e-07
1.25843e-07
1.20227e-07
9.83206e-08
1.8241e-07
1.61187e-07
1.75627e-07
1.1222e-08
1.75716e-07
1.1386e-07
5.7726e-05
2.52639e-05
2.78143e-05
3.47551e-05
3.89057e-05
2.17605e-05
0.0880277
0.0573831
0.0665882
0.0828364
0.0802713
0.0634857
0.0515525
0.0617818
0.0568194
0.0522377
0.061179
0.0553379
0.0958045
0.095885
0.0958113
0.0957869
0.093614
0.0957316
0.0959259
0.0959498
0.0958948
0.0958538
0.0958223
0.0957975
0.0960099
0.0959907
0.09595
0.0958954
0.0958538
0.0958309
0.0960339
0.0960099
0.0642922
0.0829678
0.0958314
0.0958046
0.0960099
0.0913841
0.0434718
0.0561489
0.0873386
0.0957615
0.0644399
0.059979
0.0612078
0.0612082
0.048519
0.0504555
0.0649626
0.0616049
0.0536429
0.0326001
0.0234783
0.0504544
0.0561147
0.0608795
0.0436854
0.00747317
0.012289
0.0426314
0.0238015
0.0448021
0.0357734
0.00857485
0.00997731
0.0353518
0.00988548
0.0110089
0.0353381
0.01951
0.00977019
0.034744
0.0121681
0.00462695
0.0208307
0.0312181
0.024916
0.0347229
0.0138143
0.00519154
0.0190212
0.0323034
0.0337768
0.0345755
0.0957469
0.0828693
0.055734
0.0713092
0.0943877
0.0957044
0.0812387
0.0734096
0.0572483
0.0686127
0.0850929
0.0901058
0.0709468
0.0772337
0.0873852
0.082981
0.0812811
0.0880735
0.09604
0.0789088
0.052087
0.0935379
0.093567
0.0931365
0.0960129
0.0944798
0.0435977
0.0905857
0.0947966
0.0956894
0.0956448
0.0947538
0.0438719
0.0317526
0.0810187
0.095184
0.0781524
0.0679598
0.0340313
0.0163374
0.0156386
0.0338848
0.011061
0.00677113
0.0163106
0.0073644
0.00576185
0.0056065
0.00896982
0.00256783
0.00308947
0.00436
0.00169744
0.00198515
0.00513291
0.00374624
3.99796e-05
0.000282157
7.96245e-05
8.73253e-05
0.00206055
0.00313227
0.000137963
0.000137313
8.73253e-05
0.00240967
0.00671628
0.00299989
0.00217656
0.00016417
0.000161391
0.00293499
0.0121212
0.00277688
8.81089e-08
2.89956e-08
0.0115998
0.0232799
0.00523103
4.71925e-08
4.94198e-09
3.58169e-09
4.12722e-08
0.00573384
0.00761056
5.72086e-07
7.43635e-09
4.01408e-09
7.43643e-09
0.00589746
0.00690431
0.00421342
0.0182981
0.0189327
0.00570065
0.00746143
0.00488928
0.0249957
0.0739555
0.079747
0.0597884
0.0353575
0.0128982
0.0556555
0.0675066
0.0666897
0.0911407
0.0943308
0.0174549
0.0650032
0.0147618
0.00634518
0.0240233
0.0555774
0.0218712
0.0323494
0.000596791
0.00333352
0.000116864
0.000955415
0.00463077
0.00036063
1.20476e-05
7.832e-05
5.53051e-05
7.84078e-05
4.34412e-05
1.19541e-05
4.18842e-06
2.82292e-06
2.0235e-05
0.000164482
4.88756e-05
0.000180646
0.000446337
0.00168617
0.00300934
0.000655987
0.000704761
0.00170864
0.00245014
0.0059619
0.00619017
0.0021872
1.16458e-08
8.97485e-09
4.88242e-09
3.58008e-09
1.57549e-08
2.79296e-08
1.73905e-08
8.67699e-09
3.85303e-09
3.58269e-09
3.58273e-09
2.40464e-08
8.12579e-08
1.10553e-06
4.01326e-09
3.58096e-09
4.04369e-09
0.000394783
6.17609e-07
6.61589e-08
6.65709e-09
4.01415e-09
6.65709e-09
8.32785e-05
7.28368e-07
7.63077e-08
1.09085e-08
6.65709e-09
1.09085e-08
0.000897288
2.63935e-05
7.28341e-07
0.0258726
0.0420818
0.0179425
0.0118195
8.48202e-05
0.00730355
0.0230437
0.0207509
0.0254689
0.0322096
0.00411377
0.0181369
0.000105067
9.67861e-05
0.00296498
0.00930041
0.00435688
0.00590396
4.18816e-06
2.82296e-06
6.38217e-06
1.46273e-05
0.000406065
4.09007e-06
2.72719e-06
1.8267e-06
5.45196e-07
4.80518e-06
3.43936e-05
7.54495e-06
1.53843e-06
6.66465e-07
0.00143909
2.18981e-05
0.00727642
0.00712976
0.00580655
0.00759019
0.00759379
0.00759178
0.000176892
0.000137602
0.000122704
0.000166423
0.000167031
0.00010441
0.000176242
9.00398e-05
7.85664e-05
0.000164909
0.000167139
7.79839e-05
0.000176037
0.000105335
6.81568e-05
0.00016707
0.000167534
0.000161909
3.75546e-05
2.6047e-06
7.03668e-06
5.5109e-20
1.77274e-05
5.57591e-06
-5.43674e-17
-1.42293e-18
1.3021e-31
-3.46173e-19
-5.18896e-17
-2.25766e-17
-1.58848e-20
2.08928e-33
4.38569e-31
6.90649e-34
6.91647e-24
4.65867e-33
-5.86689e-16
-2.0231e-17
-1.8342e-18
-9.54306e-17
-5.63061e-15
-1.37782e-16
-1.33724e-15
-3.97902e-17
6.2286e-19
-8.67449e-18
-8.8346e-15
-3.24821e-16
-3.76234e-19
1.67386e-20
2.39546e-18
1.05304e-20
5.38509e-22
8.90443e-20
-2.84168e-17
1.05495e-22
1.31898e-21
-1.55153e-18
-2.25093e-16
-1.97385e-18
-6.55814e-17
6.63146e-19
1.12322e-17
4.84229e-18
-2.77319e-16
-2.73372e-18
-8.33267e-18
3.99708e-19
4.96286e-18
7.46239e-21
2.84474e-20
7.48958e-18
-4.01975e-18
5.11938e-31
9.79362e-31
-2.09892e-19
-2.98131e-17
3.64401e-27
-6.16167e-18
7.6858e-20
3.22888e-21
4.42276e-28
-1.87414e-17
4.79101e-23
-1.01233e-19
9.31622e-19
4.0139e-18
1.66618e-20
3.4071e-17
2.1381e-14
-5.09381e-18
2.54372e-25
2.58465e-21
6.68488e-19
1.45959e-07
1.17263e-17
-6.00525e-17
1.30958e-23
6.69814e-20
4.14309e-08
2.3019e-07
6.34756e-08
-1.28873e-21
6.72155e-22
6.24945e-21
6.30934e-30
3.18764e-28
1.47552e-24
1.65783e-06
1.08359e-06
9.77629e-07
1.94346e-06
2.81775e-06
3.81304e-07
1.4982e-06
5.25404e-07
5.57339e-07
9.73454e-07
1.53432e-06
1.85417e-07
2.658e-19
1.3434e-21
9.43974e-23
7.02609e-20
2.19963e-19
8.42044e-21
2.9083e-06
2.9915e-06
2.99159e-06
2.75443e-06
2.75113e-06
9.17874e-07
3.29506e-06
2.76573e-06
2.66838e-06
2.85896e-06
2.86046e-06
6.41468e-07
1.12798e-08
3.02788e-18
4.50638e-18
5.35762e-18
1.99144e-07
5.2503e-18
3.51761e-07
4.58508e-07
4.39029e-07
2.25967e-07
2.02848e-07
1.72611e-07
9.92707e-07
2.37496e-06
9.97586e-07
1.04712e-06
1.30839e-06
1.77995e-06
1.52945e-05
6.45144e-06
8.45141e-06
9.53298e-06
8.8774e-06
3.71162e-06
3.13997e-05
4.77049e-07
4.89156e-07
6.67128e-07
2.2976e-07
2.03086e-07
2.31359e-05
1.51073e-06
7.87026e-07
1.08243e-06
8.2065e-07
9.99193e-07
5.05931e-05
1.31644e-05
1.87927e-05
3.83875e-05
2.88448e-05
1.45933e-05
7.56392e-05
2.53748e-05
2.78913e-05
3.50012e-05
3.88774e-05
2.17808e-05
4.42723e-05
8.05938e-06
9.2098e-06
1.3779e-05
1.28857e-05
8.18331e-06
1.42285e-05
1.46281e-05
1.04216e-05
1.27635e-05
7.40377e-06
1.66919e-05
0.00182435
0.0014753
0.00166336
0.00171718
0.00148776
0.0018549
0.00271455
0.00248468
0.00251698
0.00270838
0.00255299
0.00279679
5.34998e-06
1.5313e-05
3.51706e-06
5.41263e-06
2.79124e-06
3.4238e-05
0.0224998
0.0226008
0.022818
0.0226418
0.0220013
0.0217821
8.23798e-12
5.43347e-12
1.98123e-10
1.38732e-08
1.63151e-09
8.89399e-11
-5.48598e-17
-7.5684e-15
2.05631e-06
1.11898e-06
1.51398e-08
2.67733e-11
0.024006
0.0237977
0.0236076
0.0233577
0.0231463
0.0232037
5.47648e-12
6.30066e-12
1.09529e-11
2.09535e-11
6.56296e-12
8.43844e-12
-3.05472e-17
-9.94999e-15
1.42602e-08
2.0955e-08
2.91861e-10
5.81864e-14
0.0243864
0.024366
0.0243015
0.0242724
0.0242612
0.0242634
1.56001e-10
4.68047e-13
1.1674e-11
5.81501e-12
7.47975e-13
5.82225e-14
7.10983e-18
-5.97091e-15
-3.77879e-15
-2.06244e-15
1.35249e-17
1.23881e-17
0.0243624
0.0242779
0.024255
0.0242371
0.0241889
0.0241412
9.67913e-17
4.34261e-16
6.37405e-14
1.14167e-13
8.31042e-16
6.40164e-17
2.68846e-20
3.62736e-20
-4.05466e-18
-1.49661e-17
4.66309e-20
3.86327e-20
0.023455
0.0235453
0.0233146
0.0233824
0.0233338
0.0234395
5.87069e-10
4.20116e-10
6.83791e-10
1.28991e-09
7.72215e-10
5.38438e-10
1.05634e-16
4.499e-16
6.37485e-14
1.03408e-13
8.50615e-16
6.10632e-13
0.023279
0.0232303
0.0231992
0.0232262
0.0231386
0.0232584
8.85131e-09
2.15019e-08
1.06764e-08
1.54578e-05
8.37702e-09
5.50415e-09
-1.69232e-13
-1.39025e-13
-5.59211e-13
-7.89583e-13
-7.48165e-13
-1.27238e-14
9.10841e-07
1.16458e-08
8.07487e-06
2.18218e-06
2.24157e-07
8.1777e-07
1.34578e-06
3.15717e-07
1.06437e-05
5.50094e-07
4.33143e-07
1.74381e-06
5.1131e-272
2.39655e-19
1.63484e-09
1.23311e-20
1.22056e-23
2.72813e-163
1.04355e-05
2.54005e-06
3.81603e-08
1.87242e-09
1.82106e-06
5.28899e-06
5.38636e-06
1.02751e-06
9.32946e-09
1.71864e-10
2.33785e-06
5.73611e-06
1.95602e-70
3.97819e-24
5.40574e-09
1.59103e-10
9.11888e-23
1.08219e-14
4.50179e-06
5.55315e-06
7.47851e-07
1.01093e-08
2.67096e-06
3.17434e-07
5.77647e-06
1.03997e-06
1.17815e-08
9.38857e-09
1.95712e-06
4.12817e-06
1.83777e-26
3.72421e-23
4.999e-08
5.00614e-09
3.94696e-21
3.95641e-24
3.89176e-10
1.04634e-05
2.23315e-06
6.63111e-09
1.89358e-06
-2.74069e-10
1.98283e-11
1.05e-06
6.56983e-07
1.00142e-07
-2.66131e-17
-2.3442e-13
1.22629e-19
5.58343e-22
1.40826e-14
8.88568e-08
6.35047e-18
-5.915e-17
0.000100067
2.52743e-05
4.35263e-08
1.09085e-08
1.77284e-07
2.76119e-08
9.5231e-12
2.81716e-05
2.63657e-06
6.24547e-08
1.76943e-07
-9.93842e-15
-1.66519e-15
2.57256e-21
1.23843e-18
9.05032e-08
4.20146e-07
-7.32379e-14
0.000342094
5.69906e-05
6.86259e-07
1.74745e-08
6.78271e-08
1.76995e-07
4.68444e-05
0.000461415
2.1998e-10
1.20674e-08
2.21156e-08
4.52274e-08
-5.94521e-14
1.27926e-20
-4.93598e-13
1.57495e-07
3.61665e-06
3.96595e-08
0.00127702
0.0026413
0.0141745
0.0149047
0.00807202
0.00439195
0.000312689
0.00207418
0.00473462
0.00257989
0.000738527
1.77008e-07
-1.33473e-13
-2.53747e-17
-7.49153e-13
-1.40367e-15
3.04875e-07
5.57557e-08
0.0041611
0.0101334
0.00274288
0.00317331
0.00417983
0.00440175
0.00107322
0.00243931
0.00396049
0.00181421
0.00154978
0.000208213
1.56124e-07
2.10174e-07
0.000797773
0.000143733
2.33886e-06
4.37942e-07
0.00331344
0.00464986
4.02797e-06
1.51816e-06
3.99306e-06
0.000200606
0.000582049
0.00126097
6.05439e-05
3.78947e-05
3.74019e-05
2.0996e-05
1.13795e-05
1.04272e-05
3.8647e-05
4.18807e-06
3.41785e-06
3.68358e-08
0.000205377
4.02768e-06
1.54504e-06
4.87125e-07
3.30734e-08
5.4597e-07
6.09632e-05
6.14092e-05
3.92878e-07
3.3087e-08
1.70427e-08
9.27016e-07
1.84525e-05
1.72491e-05
1.07807e-06
5.87893e-08
1.70427e-08
3.44994e-08
1.34373e-05
1.53854e-06
6.33132e-07
1.92617e-07
5.44006e-07
2.36562e-06
6.62091e-05
1.21297e-05
1.92719e-07
1.06014e-07
3.25361e-08
2.81777e-05
4.63477e-05
3.04856e-05
3.38125e-06
6.51194e-08
1.69667e-08
1.65386e-06
0.00698897
0.00650043
0.00566876
0.00544994
0.00677635
0.00739569
3.94153e-09
0.000103638
0.000841015
0.00047541
1.41689e-07
6.45905e-09
2.96368e-06
2.90014e-06
1.22616e-06
9.46051e-08
2.43149e-08
1.69326e-07
)
;

boundaryField
{
    seabed_topleft_surface
    {
        type            zeroGradient;
    }
    seabed_topright_surface
    {
        type            zeroGradient;
    }
    breakwater_top_surface
    {
        type            zeroGradient;
    }
    breakwater_left_surface
    {
        type            zeroGradient;
    }
    breakwater_right_surface
    {
        type            zeroGradient;
    }
    water_front_surface
    {
        type            zeroGradient;
    }
    water_back_surface
    {
        type            zeroGradient;
    }
    water_left_surface
    {
        type            zeroGradient;
    }
    water_right_surface
    {
        type            zeroGradient;
    }
    water_top_surface
    {
        type            inletOutlet;
        inletValue      uniform 0;
        value           nonuniform List<scalar> 
180
(
0.000176037
0.000105335
6.81568e-05
0.00016707
0.000167534
0.000161909
0
0
0
0
0
0
0
0
0
0
0
0
0
0
0
0
0
0
0
0
0
0
0
0
0
0
0
0
0
0
0
0
0
0
0
0
0
0
0
0
0
0
1.52945e-05
0
8.45141e-06
9.53298e-06
8.8774e-06
0
5.05931e-05
1.31644e-05
1.87927e-05
3.83875e-05
2.88448e-05
1.45933e-05
1.42285e-05
1.46281e-05
1.04216e-05
1.27635e-05
7.40377e-06
1.66919e-05
0
0
0
0
0
0
0
0
0
1.11898e-06
1.51398e-08
2.67733e-11
0
0
1.42602e-08
2.0955e-08
2.91861e-10
5.81864e-14
0
0
0
0
0
0
0
0
0
0
0
0
1.05634e-16
4.499e-16
6.37485e-14
1.03408e-13
8.50615e-16
6.10632e-13
0
0
0
0
0
0
0
0
0
0
0
0
0
0
0
0
0
0
0
0
0
0
0
0
0
0
0
0
0
0
0
0
0
0
0
0
0
0
0
0
0
0
0
0
0
0
3.04875e-07
5.57557e-08
1.56124e-07
2.10174e-07
0.000797773
0.000143733
2.33886e-06
4.37942e-07
1.13795e-05
1.04272e-05
3.8647e-05
4.18807e-06
3.41785e-06
3.68358e-08
1.84525e-05
1.72491e-05
1.07807e-06
5.87893e-08
1.70427e-08
3.44994e-08
4.63477e-05
3.04856e-05
3.38125e-06
6.51194e-08
1.69667e-08
1.65386e-06
0
0
1.22616e-06
9.46051e-08
2.43149e-08
1.69326e-07
)
;
    }
}


// ************************************************************************* //
