/*--------------------------------*- C++ -*----------------------------------*\
| =========                 |                                                 |
| \\      /  F ield         | OpenFOAM: The Open Source CFD Toolbox           |
|  \\    /   O peration     | Version:  v1612+                                |
|   \\  /    A nd           | Web:      www.OpenFOAM.com                      |
|    \\/     M anipulation  |                                                 |
\*---------------------------------------------------------------------------*/
FoamFile
{
    version     2.0;
    format      ascii;
    class       volScalarField;
    location    "4.4";
    object      p_rgh;
}
// * * * * * * * * * * * * * * * * * * * * * * * * * * * * * * * * * * * * * //

dimensions      [1 -1 -2 0 0 0 0];

internalField   nonuniform List<scalar> 
320
(
-9800.21
-9800.21
-9800.22
-9800.21
0.00279235
0.00691377
0.00131931
0.00142254
-0.00221355
-0.00674039
-0.00313024
0.00575304
0.00358068
0.00330296
0.00647558
-0.00685859
-9799.98
-9800.01
-9800
-9800
-9799.97
-9799.93
-9799.92
-9800.04
-9799.97
-9799.97
-9800.08
-9799.92
-9800.22
-9800.21
-9800.21
-9800.22
-9800.2
-9800.21
-9800.22
-9800.22
-9800.23
-9800.23
-9800.2
-9800.21
-9800.21
-9800.21
-9800.22
-9800.21
-9800.21
-9800.21
-9800.21
-9800.21
-9800.21
-9800.21
-9800.22
-9800.22
-9800.22
-9800.22
-9800.2
-9800.2
-0.000194068
0.000580097
0.00248673
-0.00363716
0.0026912
0.0148319
0.00181307
0.0104206
-0.00187461
0.000521647
0.00142847
0.00587591
0.00172444
0.00625078
0.000220421
0.00891943
0.00941815
0.00205458
-0.00879584
0.000199627
-9800.01
-9799.97
-9800
-9799.95
-9800.07
-9800.13
-9800.06
-9800.12
-9799.95
-9800
-9800.06
-9800.09
-9799.95
-9800.07
-9800.04
-9800.08
-9800.09
-9800.01
-9799.94
-9800.08
-9800.19
-9800.2
-9800.21
-9800.21
-9800.2
-9800.2
-9800.2
-9800.19
-9800.2
-9800.19
-9800.2
-9800.2
-9800.22
-9800.21
-9800.21
-9800.21
-9800.21
-9800.19
-9800.2
-9800.19
-9800.19
-9800.2
-9800.21
-9800.2
-9800.2
-9800.2
-9800.2
-9800.2
-9800.2
-9800.2
-9800.2
-9800.21
-9800.21
-9800.21
-9800.21
-9800.21
-9800.21
-9800.2
-9800.2
-9800.19
-9800.21
-9800.21
-9800.21
-9800.21
-9800.21
-9800.21
-9800.21
-9800.21
-9800.21
-9800.21
-9800.21
-9800.21
-9800.22
-9800.21
-9800.21
-9800.2
-9800.2
-9800.2
-9800.2
-9800.2
-9800.2
-9800.2
-9800.2
-9800.2
-9800.2
-9800.2
-9800.2
-9800.21
-9800.21
-9800.21
-9800.21
-9800.21
-9800.21
-9800.2
-9800.2
-9800.2
-0.00240514
-0.000206316
-0.00764624
0.00394876
-0.00171093
-0.00154382
-0.0117687
0.000337193
0.00492453
-0.0101561
-0.00531352
-0.000518145
-0.00401263
-0.00467462
-0.008903
-0.000399473
-0.0026014
0.00127941
-0.00606751
0.000523241
-0.0111347
0.00525077
0.00734113
-0.000931904
-0.0016684
-0.00742866
-0.00459736
0.00218011
-9799.94
-9800.08
-9799.94
-9800.08
-9799.98
-9799.98
-9799.88
-9799.93
-9800.06
-9799.86
-9799.92
-9799.95
-9799.99
-9800.03
-9799.95
-9799.98
-9799.9
-9799.98
-9799.95
-9799.98
-9799.91
-9800.03
-9800.05
-9799.93
-9799.99
-9799.98
-9799.92
-9799.98
-9800.21
-9800.18
-9800.19
-9800.2
-9800.2
-9800.2
-9800.2
-9800.21
-9800.2
-9800.21
-9800.2
-9800.2
-9800.19
-9800.18
-9800.19
-9800.21
-9800.22
-9800.23
-9800.22
-9800.21
-9800.22
-9800.22
-9800.21
-9800.21
-9800.19
-9800.2
-9800.2
-9800.22
-9800.2
-9800.19
-9800.2
-9800.2
-9800.2
-9800.2
-9800.21
-9800.21
-9800.2
-9800.21
-9800.21
-9800.2
-9800.19
-9800.19
-9800.2
-9800.22
-9800.22
-9800.22
-9800.21
-9800.21
-9800.21
-9800.22
-9800.21
-9800.22
-9800.2
-9800.2
-9800.2
-9800.21
-9800.2
-9800.2
-9800.2
-9800.2
-9800.2
-9800.2
-9800.2
-9800.21
-9800.2
-9800.21
-9800.2
-9800.2
-9800.2
-9800.19
-9800.2
-9800.21
-9800.21
-9800.21
-9800.21
-9800.21
-9800.21
-9800.21
-9800.21
-9800.21
-9800.2
-9800.2
-9800.2
-9800.2
-0.0103807
0.0101822
0.00632841
0.00786998
-9799.87
-9800.07
-9800.01
-9800.08
)
;

boundaryField
{
    top_fluid_surface
    {
        type            totalPressure;
        rho             rho;
        psi             none;
        gamma           1;
        p0              uniform 0;
        value           nonuniform List<scalar> 
64
(
0
0
0
0
-2.12075e-09
-1.10682e-08
-2.22376e-09
0
0
0
0
-1.15146e-08
-1.69518e-10
0
0
-2.44404e-09
0
0
0
0
-6.81332e-10
0
0
0
0
0
0
0
0
0
-1.50126e-08
0
-1.52783e-09
0
-1.08477e-08
0
-1.51251e-09
-1.92253e-09
-2.88651e-08
-2.47802e-10
0
-1.6802e-08
-7.29756e-09
-7.49985e-10
-4.18687e-09
-3.66854e-09
-2.14107e-08
0
-2.20167e-09
0
-1.09117e-08
-7.78356e-11
-3.79995e-08
0
0
-5.46022e-10
-1.09744e-09
-8.7676e-09
-5.14703e-09
0
-2.61637e-08
0
0
0
)
;
    }
    bottom_fluid_surface
    {
        type            fixedFluxPressure;
        gradient        uniform 0;
        value           nonuniform List<scalar> 
64
(
-9800.21
-9800.21
-9800.21
-9800.21
-9800.21
-9800.21
-9800.21
-9800.21
-9800.21
-9800.21
-9800.21
-9800.21
-9800.22
-9800.21
-9800.21
-9800.2
-9800.2
-9800.2
-9800.2
-9800.2
-9800.2
-9800.2
-9800.2
-9800.2
-9800.2
-9800.2
-9800.2
-9800.21
-9800.21
-9800.21
-9800.21
-9800.21
-9800.21
-9800.2
-9800.2
-9800.2
-9800.2
-9800.2
-9800.2
-9800.2
-9800.2
-9800.2
-9800.2
-9800.21
-9800.2
-9800.21
-9800.2
-9800.2
-9800.2
-9800.19
-9800.2
-9800.21
-9800.21
-9800.21
-9800.21
-9800.21
-9800.21
-9800.21
-9800.21
-9800.21
-9800.2
-9800.2
-9800.2
-9800.2
)
;
    }
    lateral_surface_1
    {
        type            fixedFluxPressure;
        gradient        uniform 0;
        value           nonuniform List<scalar> 
40
(
-0.00240514
-0.000206316
-0.00764624
0.00394876
-0.00171093
-0.00154382
-0.0117687
0.00218011
-9799.94
-9800.08
-9799.94
-9800.08
-9799.98
-9799.98
-9799.88
-9799.98
-9800.21
-9800.18
-9800.19
-9800.2
-9800.2
-9800.2
-9800.2
-9800.22
-9800.2
-9800.19
-9800.2
-9800.2
-9800.2
-9800.2
-9800.21
-9800.21
-9800.2
-9800.2
-9800.2
-9800.2
-9800.2
-9800.2
-9800.2
-9800.2
)
;
    }
    lateral_surface_2
    {
        type            fixedFluxPressure;
        gradient        uniform 0;
        value           nonuniform List<scalar> 
40
(
-0.00467462
-0.008903
-0.000399473
-0.0026014
0.00127941
-0.00606751
0.000523241
-0.0111347
-9800.03
-9799.95
-9799.98
-9799.9
-9799.98
-9799.95
-9799.98
-9799.91
-9800.18
-9800.19
-9800.21
-9800.22
-9800.23
-9800.22
-9800.21
-9800.22
-9800.19
-9800.2
-9800.22
-9800.22
-9800.22
-9800.21
-9800.21
-9800.21
-9800.19
-9800.2
-9800.21
-9800.21
-9800.21
-9800.21
-9800.21
-9800.21
)
;
    }
    lateral_surface_3
    {
        type            fixedFluxPressure;
        gradient        uniform 0;
        value           nonuniform List<scalar> 
40
(
-0.0117687
0.000337193
0.00492453
-0.0101561
-0.00531352
-0.000518145
-0.00401263
-0.00467462
-9799.88
-9799.93
-9800.06
-9799.86
-9799.92
-9799.95
-9799.99
-9800.03
-9800.2
-9800.21
-9800.2
-9800.21
-9800.2
-9800.2
-9800.19
-9800.18
-9800.21
-9800.21
-9800.2
-9800.21
-9800.21
-9800.2
-9800.19
-9800.19
-9800.2
-9800.21
-9800.2
-9800.21
-9800.2
-9800.2
-9800.2
-9800.19
)
;
    }
    lateral_surface_4
    {
        type            fixedFluxPressure;
        gradient        uniform 0;
        value           nonuniform List<scalar> 
40
(
-0.0111347
0.00525077
0.00734113
-0.000931904
-0.0016684
-0.00742866
-0.00459736
0.00218011
-9799.91
-9800.03
-9800.05
-9799.93
-9799.99
-9799.98
-9799.92
-9799.98
-9800.22
-9800.22
-9800.21
-9800.21
-9800.19
-9800.2
-9800.2
-9800.22
-9800.21
-9800.22
-9800.21
-9800.22
-9800.2
-9800.2
-9800.2
-9800.21
-9800.21
-9800.21
-9800.21
-9800.21
-9800.2
-9800.2
-9800.2
-9800.2
)
;
    }
}


// ************************************************************************* //
