/*--------------------------------*- C++ -*----------------------------------*\
| =========                 |                                                 |
| \\      /  F ield         | OpenFOAM: The Open Source CFD Toolbox           |
|  \\    /   O peration     | Version:  v1612+                                |
|   \\  /    A nd           | Web:      www.OpenFOAM.com                      |
|    \\/     M anipulation  |                                                 |
\*---------------------------------------------------------------------------*/
FoamFile
{
    version     2.0;
    format      ascii;
    class       surfaceScalarField;
    location    "5.6";
    object      phi;
}
// * * * * * * * * * * * * * * * * * * * * * * * * * * * * * * * * * * * * * //

dimensions      [0 3 -1 0 0 0 0];

internalField   nonuniform List<scalar> 
2916
(
-0.000137062
-0.81954
0.819677
-8.348e-07
-0.819553
0.819417
1.00669e-05
-0.819549
0.819538
4.98456e-06
-0.819536
0.819541
5.3337e-05
-0.819543
0.819495
-0.819537
0.81959
-9.50468e-05
-1.5376
0.718152
1.11392e-05
-1.53767
0.718015
1.69221e-05
-1.53764
0.718082
-1.17794e-06
-1.53762
0.718104
3.1626e-05
-1.53764
0.718068
-1.5376
0.718098
-0.000101858
-1.8264
0.288909
1.61459e-05
-1.82648
0.288686
2.07001e-05
-1.82643
0.288784
-6.99763e-06
-1.82641
0.28882
3.15961e-05
-1.82644
0.288756
-1.82642
0.288845
-5.30961e-05
-1.84802
0.0216706
1.08887e-05
-1.84813
0.021592
1.03708e-05
-1.84805
0.0216264
-7.85985e-06
-1.84804
0.0216449
4.96274e-06
-1.84807
0.0216219
-1.84806
0.0216529
-4.25607e-05
-1.80697
-0.0410058
7.92141e-06
-1.80719
-0.0409973
7.23476e-06
-1.80706
-0.0409921
-4.9626e-06
-1.80705
-0.0409824
8.69904e-07
-1.8071
-0.04098
-1.80705
-0.0410098
-8.08497e-06
-1.68257
-0.124396
9.32222e-06
-1.68292
-0.12429
7.08151e-06
-1.68274
-0.124315
2.25269e-06
-1.68272
-0.124321
-1.66315e-05
-1.68279
-0.124289
-1.68268
-0.124392
7.60641e-05
-1.45194
-0.230705
2.03172e-05
-1.45236
-0.230497
3.85192e-06
-1.45217
-0.230557
4.68846e-06
-1.45214
-0.230585
-5.38685e-05
-1.45222
-0.230512
-1.45205
-0.230685
0.000225049
-1.19079
-0.261378
1.64809e-05
-1.191
-0.261149
-5.26915e-05
-1.19088
-0.261216
-1.0277e-05
-1.19095
-0.261227
-4.56245e-06
-1.19118
-0.261045
-1.19063
-0.26142
0.000582719
-0.950128
-0.241242
-4.02601e-05
-0.949362
-0.241019
-0.000330056
-0.949532
-0.241061
-9.44291e-05
-0.950105
-0.241083
0.000559477
-0.951042
-0.240794
-0.948684
-0.241388
0.000761165
-0.699038
-0.251851
-0.000108983
-0.69701
-0.251482
-0.000644173
-0.697432
-0.251565
-0.000152334
-0.698925
-0.251672
0.0012219
-0.700938
-0.251478
-0.695619
-0.251843
0.000195092
-0.27354
-0.425693
-1.47297e-05
-0.271643
-0.425157
-0.000260647
-0.272
-0.425186
-3.69448e-06
-0.273493
-0.425689
0.000201902
-0.275004
-0.42614
-0.270547
-0.424871
-0.000835243
-0.272705
0.000204482
-0.272682
0.00099116
-0.272787
0.000153678
-0.272655
-0.00225576
-0.272595
-0.272802
-0.00436124
-2.57915
3.40319
-0.000219928
-2.5785
3.39377
0.000117053
-2.57876
3.39796
-5.84392e-05
-2.57885
3.39857
0.00174867
-2.57869
3.39637
-2.57898
3.40032
-0.000402208
-2.75838
0.897789
-2.55704e-05
-2.75816
0.8973
-2.63628e-05
-2.75822
0.897547
1.0848e-05
-2.7583
0.897514
0.000161111
-2.75822
0.897455
-2.75833
0.8976
0.000151276
-2.47115
0.0015271
1.03338e-05
-2.47106
0.0017244
-3.49342e-05
-2.47106
0.00166706
2.76036e-06
-2.47112
0.00160838
-8.69808e-05
-2.47107
0.00169538
-2.47113
0.00156772
0.000196018
-2.10668
-0.342994
6.33652e-06
-2.10672
-0.34255
-2.74653e-05
-2.10668
-0.342719
5.62314e-06
-2.10672
-0.342792
-0.000128717
-2.1067
-0.34262
-2.10672
-0.342892
0.00015014
-1.70599
-0.441844
-1.01289e-05
-1.70617
-0.441389
-2.02291e-05
-1.7061
-0.441566
1.12923e-05
-1.7061
-0.441636
-0.000104819
-1.70609
-0.441474
-1.70608
-0.441748
4.16087e-05
-1.19646
-0.633969
-3.36137e-05
-1.19679
-0.633594
-2.43693e-05
-1.19668
-0.633738
1.38508e-05
-1.19664
-0.633818
5.9515e-06
-1.19668
-0.633691
-1.19656
-0.633911
-0.000105071
-0.522927
-0.904136
-6.07871e-05
-0.52332
-0.904014
-7.63958e-05
-0.523194
-0.90403
3.34712e-06
-0.52312
-0.904185
0.000277047
-0.523285
-0.904179
-0.522917
-0.904051
-0.000196469
0.0737987
-0.857907
-0.000102765
0.0736938
-0.858256
-8.31479e-05
0.0737537
-0.858183
2.89544e-05
0.0736462
-0.858105
0.000328469
0.0732155
-0.857844
0.0745979
-0.858606
-0.00017702
0.346934
-0.514199
-6.29428e-05
0.345494
-0.512933
-9.69525e-05
0.345903
-0.513176
7.81729e-05
0.346817
-0.514429
0.000338881
0.348175
-0.516014
0.344794
-0.511246
-0.000505994
0.291757
-0.196168
0.000105712
0.288141
-0.19474
0.000735801
0.289016
-0.195307
0.000175771
0.291703
-0.195996
-0.00114543
0.295872
-0.197853
0.285079
-0.193272
-0.00314278
-0.12831
-0.00248291
0.000571372
-0.132432
-0.00829855
0.0036207
-0.131639
-0.00758082
0.000224134
-0.128194
-0.0023957
-0.00623717
-0.125322
0.00151571
-0.134846
-0.0111834
-0.000529325
-0.400486
0.000219254
-0.405863
0.00151413
-0.405721
0.00059635
-0.399932
-0.0029435
-0.394377
-0.410591
-0.0108624
-3.62851
7.04255
1.19854e-05
-3.62992
7.01281
-0.000127721
-3.62913
7.02722
-0.000512589
-3.62929
7.02824
0.00453361
-3.62949
7.02081
-3.62902
7.03388
-0.00131759
-3.79995
1.07055
-9.72183e-05
-3.80003
1.0662
-4.02806e-05
-3.79996
1.06833
-5.90185e-05
-3.80005
1.06829
0.000649578
-3.80001
1.06727
-3.80003
1.06926
-0.000997636
-2.84154
-0.955886
-6.77755e-05
-2.84136
-0.957877
0.000117516
-2.84143
-0.957045
1.34289e-06
-2.84151
-0.956818
0.000489613
-2.84145
-0.957354
-2.84154
-0.956438
-0.000894118
-1.89045
-1.29319
-9.34724e-05
-1.89041
-1.2943
0.000118718
-1.89044
-1.29392
5.63486e-06
-1.89045
-1.29374
0.000454252
-1.89048
-1.29404
-1.89045
-1.29352
-0.000830772
-0.832538
-1.49892
-0.000123209
-0.832963
-1.49955
4.93916e-05
-0.832777
-1.4994
-1.08351e-06
-0.832712
-1.49933
0.000514013
-0.832981
-1.49949
-0.83254
-1.49914
-0.000635304
0.56439
-2.03026
-0.000183798
0.56367
-2.03068
-0.000166923
0.564051
-2.03058
-3.30407e-05
0.564155
-2.03082
0.000819509
0.563377
-2.0309
0.564759
-2.03039
-5.90051e-05
2.48111
-2.8208
-0.000392343
2.48026
-2.82027
-0.000780492
2.48064
-2.82023
-0.000129227
2.48091
-2.82159
0.00137771
2.48003
-2.82233
2.4813
-2.81921
0.00328149
4.53957
-2.91965
-0.00115456
4.54574
-2.9193
-0.00369684
4.54429
-2.91929
-0.00121248
4.54071
-2.92039
0.00621773
4.53434
-2.91959
4.54907
-2.92016
0.00497413
4.95046
-0.930061
-0.000130354
4.93717
-0.899269
-0.00804005
4.94411
-0.905092
-0.00103898
4.94717
-0.927891
0.00939792
4.96342
-0.955542
4.9288
-0.881587
-0.0178968
1.68539
3.08681
0.00412071
1.63736
3.08304
0.0159327
1.65282
3.08417
0.00389549
1.67796
3.08525
-0.0494488
1.73602
3.08289
1.59971
3.08637
-0.0280895
0.345712
1.36528
0.00472027
0.266792
1.32946
0.0290877
0.281515
1.33935
0.00112057
0.343295
1.36024
-0.0509446
0.412148
1.37745
0.212474
1.32511
0.0327573
-0.0875311
-0.00716346
-0.0991507
-0.0349293
-0.0964391
-0.00320893
-0.088357
0.0934104
-0.0788487
-0.104707
-0.00592708
-2.29422
9.3427
-0.000871564
-2.30263
9.31039
-0.00118024
-2.29904
9.32657
-0.000770961
-2.2988
9.32664
0.00245207
-2.30069
9.31828
-2.29715
9.33348
-0.000814773
-2.47991
1.25706
-0.000233236
-2.48123
1.24421
-0.00102638
-2.48037
1.25045
-0.000846879
-2.47983
1.24914
0.000218289
-2.48043
1.24595
-2.47995
1.25227
-0.000851324
-1.19226
-2.24268
-0.00045722
-1.19339
-2.24611
-0.000933952
-1.19256
-2.24438
-0.000762535
-1.19218
-2.24464
-1.92604e-05
-1.19292
-2.24561
-1.19248
-2.24392
-0.000315661
0.155123
-2.64026
3.68154e-05
0.152634
-2.64068
-0.000307512
0.154209
-2.64035
-0.000167319
0.154511
-2.64057
0.000376976
0.153147
-2.64065
0.154915
-2.64055
0.000635673
1.26688
-2.61132
-6.29869e-05
1.26395
-2.61015
-0.000427135
1.26578
-2.61061
-3.92222e-05
1.26591
-2.6111
0.00132828
1.26355
-2.61126
1.26746
-2.61036
0.00219336
1.55684
-2.32241
-0.000365436
1.55433
-2.31851
-0.00163461
1.55618
-2.31971
-0.000484943
1.55582
-2.32189
0.00443187
1.55138
-2.32365
1.5591
-2.3176
0.00396396
0.965616
-2.23353
-0.00138869
0.962545
-2.22313
-0.00326284
0.96384
-2.22601
-0.00109639
0.964991
-2.23293
0.00413944
0.96124
-2.23743
0.965737
-2.22171
0.00464609
-0.55761
-1.40107
-0.00126715
-0.565594
-1.38525
-0.00267185
-0.563778
-1.39027
6.34269e-06
-0.558643
-1.39943
-0.00160292
-0.557078
-1.39966
-0.564646
-1.39138
-0.0197431
-2.22547
0.757554
0.00642732
-2.27285
0.781824
0.0250493
-2.26288
0.775387
0.00828522
-2.231
0.76123
-0.0586233
-2.19955
0.753845
-2.28416
0.7793
0.00303256
-2.57366
3.43196
0.00156433
-2.58379
3.39544
-0.00551601
-2.57538
3.40374
0.00139533
-2.5818
3.42913
0.00864354
-2.5845
3.46058
-2.56863
3.37948
0.0131958
-1.7193
0.497727
-0.00224168
-1.72633
0.48743
-0.0148802
-1.71945
0.496065
-0.00415751
-1.72692
0.494634
0.0251818
-1.73563
0.499248
-1.71078
0.49244
0.00264729
-1.80948
-0.000490266
-1.82234
0.000633666
-1.81701
-0.000578596
-1.81407
-0.00621369
-1.80885
-1.82171
-0.373216
-1.36742
1.74064
-0.673017
-1.41501
1.71481
-0.9154
-1.47176
1.71414
-0.420342
-2.1731
1.67804
0.496498
-2.73151
1.81467
-1.38434
1.88083
-0.149568
-4.0626
2.84475
-0.394477
-4.13666
2.96656
-0.752419
-3.78883
2.67502
-0.534727
-4.52862
2.13783
0.135015
-5.1409
1.73965
-3.35667
2.10735
0.0875872
-5.32169
1.1715
0.316248
-5.46759
1.10227
0.136865
-5.25632
1.64687
0.122717
-5.43172
0.91725
0.380402
-5.80798
0.409392
-4.5174
1.54113
0.0290456
-5.42255
0.0718196
0.0486491
-5.55351
0.0663092
0.201995
-5.45583
0.0461589
0.159115
-5.45467
0.0658312
-0.126422
-5.71149
0.189051
-4.95537
0.311556
0.0299482
-4.90406
-0.548444
0.0473723
-5.06319
-0.507739
0.179186
-4.91022
-0.677415
0.148586
-4.9797
-0.444376
-0.208176
-5.39798
0.0432544
-4.49184
-0.671709
0.0833617
-4.46847
-0.518953
0.11986
-4.71102
-0.388671
0.242806
-4.46695
-0.566219
0.117021
-4.5639
-0.290018
-0.234697
-4.96491
-0.0813559
-3.84902
-0.877523
0.192248
-3.98692
-0.673796
0.19662
-4.2587
-0.456691
0.344578
-4.0027
-0.612214
0.206471
-4.08712
-0.33867
-0.255055
-4.3987
-0.104678
-3.38643
-0.717641
0.267387
-3.55977
-0.694532
0.197939
-3.75672
-0.432534
0.485683
-3.54333
-0.747107
0.345796
-3.57111
-0.376118
-0.274637
-3.78603
0.00776178
-3.11468
-0.546387
0.0917828
-2.2643
-1.38726
0.0956602
-2.51996
-1.24063
0.594261
-2.48036
-1.56158
0.519785
-2.37081
-1.12583
-0.338715
-2.59535
-0.332183
-2.44382
-1.00957
-0.359427
-0.0640345
-1.84084
-0.0806205
-0.487444
-2.31132
0.763584
-0.799762
-2.5248
0.567328
-0.434712
-1.73984
-0.494689
-0.32287
-1.21046
-0.775351
-2.16316
-0.206422
1.58028
-1.43789
0.0482633
1.11751
-1.85964
0.865545
0.747646
-2.36469
0.691883
1.05753
-1.31858
-0.328392
1.28417
-0.586769
0.633716
-1.73746
-0.350506
1.93078
-0.509869
1.27688
0.351894
-0.114116
0.417172
0.992257
0.330277
1.37107
0.963993
-0.336707
-2.05934
4.13668
-0.611796
-2.21891
4.20881
-1.00845
-2.15247
4.26326
-0.471382
-3.07307
4.21405
0.442081
-3.66891
4.57011
-1.95225
4.27517
0.0214698
-5.32774
6.09168
0.0671545
-5.50505
6.20702
-0.238707
-5.05036
5.87877
-0.246838
-5.97223
5.04512
-0.107981
-6.56925
4.50113
-4.79283
4.83995
0.120985
-5.19553
0.918301
0.109068
-5.2122
0.821339
0.287105
-4.96175
1.38023
-0.111789
-5.24692
0.590831
-0.644936
-5.85215
0.225441
-5.32914
1.43249
-0.0240175
-3.46985
-1.62984
-0.19278
-3.37057
-1.60656
-0.197768
-3.33243
-1.57818
-0.259573
-3.63961
-1.47967
-0.328462
-4.45722
-1.13699
-3.90443
-1.44161
-0.104273
-2.11191
-1.80211
-0.132479
-2.16226
-1.68784
-0.291788
-1.99155
-1.85898
-0.106256
-2.63913
-1.63039
0.336712
-3.93263
-0.924297
-2.14843
-2.091
-0.108059
-1.63787
-0.884928
-0.173253
-1.9181
-0.567643
-0.417006
-1.42204
-0.89198
-0.243452
-2.56317
-0.539527
0.0801453
-4.36658
0.028998
-1.53969
-1.40611
-0.0729173
-2.0551
-0.183649
-0.241275
-2.5553
0.348871
-0.578431
-1.75299
0.0558995
-0.435568
-3.15904
0.114338
-0.110337
-5.03372
0.237226
-1.98081
-0.386856
0.0456991
-2.93709
0.141754
-0.181329
-3.46396
0.703157
-0.44712
-2.68814
0.453834
-0.187836
-3.78552
-0.0089232
-0.0960016
-4.91102
-0.20677
-2.9797
0.356503
0.123866
-2.74536
-1.70285
-0.221214
-3.01333
-1.34618
-0.431794
-2.51306
-1.52608
-0.21118
-3.05403
-2.07794
0.154008
-4.09733
-1.51106
-2.82076
-1.01451
0.0302226
-1.9151
-2.70132
-0.130446
-2.06204
-3.10195
-0.122759
-1.82665
-3.2189
-0.0272882
-1.99746
-2.89188
0.0113208
-2.37648
-2.96993
-1.84786
-3.12474
0.307391
-0.677016
-2.98337
0.135335
-0.711252
-3.03837
0.455641
-1.1437
-3.36795
0.348511
-0.899929
-2.30898
-0.452367
-0.57781
-1.58456
-0.95699
-3.08069
0.924457
0.329312
1.29321
0.196869
1.2417
-1.20631
1.00634
0.327691
-0.660674
2.46028
-0.65367
-0.293106
-1.86979
6.29957
-0.576155
-2.01005
6.50191
-0.963049
-2.07581
6.72597
-0.517781
-2.63284
6.40162
0.379272
-3.1045
6.77756
-1.93818
6.59261
0.211041
-3.54402
7.55488
0.286818
-3.67438
7.79557
0.627303
-3.71632
7.1788
0.11476
-3.93938
6.86421
-0.909166
-4.1308
6.55136
-3.70607
5.69868
0.0235887
-3.69068
1.04137
0.0123198
-3.74687
0.905097
0.153006
-3.73837
1.26159
0.0252774
-3.72253
0.501703
-0.203714
-3.77322
0.0968431
-3.69513
1.21783
-0.0952269
-3.0006
-2.22469
-0.178791
-2.98515
-2.28472
-0.227138
-2.98428
-2.28393
-0.182091
-3.02217
-2.22508
0.0368549
-3.11241
-2.01675
-2.94625
-2.15363
-0.123212
-2.36305
-2.31645
-0.0915332
-2.39586
-2.30882
-0.25068
-2.36757
-2.31654
-0.236296
-2.41017
-2.25678
0.39851
-2.53945
-2.13207
-2.29603
-2.34271
-0.231001
-1.57404
-1.44294
-0.131681
-1.6896
-1.37323
-0.341823
-1.63554
-1.41386
-0.210505
-1.71669
-1.36433
0.565264
-2.06557
-1.22065
-1.6593
-1.47758
-0.326113
-0.757959
-0.673614
-0.127616
-1.07101
-0.468208
-0.30034
-0.845471
-0.561445
-0.182702
-1.02465
-0.695342
0.312478
-1.56799
-0.755529
-1.0461
-0.687568
-0.120709
-0.36255
-0.132945
-0.0326325
-0.631152
0.175222
-0.287912
-0.259835
0.123479
-0.282876
-0.497664
-0.54094
0.0112828
-1.1422
-0.926718
-0.63609
-0.0422272
-0.0398295
-1.18529
-0.840278
-0.0646086
-1.13472
-0.817829
-0.402497
-0.706797
-0.741226
-0.576572
-1.16355
-1.23798
0.177268
-1.78314
-1.62395
-1.00637
-0.466959
0.0112823
-1.77132
-2.12657
-0.249187
-1.83885
-2.13735
-0.493264
-1.64592
-2.0357
-0.272723
-1.89088
-2.38509
0.248837
-2.08797
-3.18666
-1.72361
-2.15866
0.041836
-1.41191
-3.38462
-0.106856
-1.39647
-3.33206
-0.461268
-1.13487
-3.52459
-0.273524
-1.39754
-2.99007
0.193357
-1.45639
-2.68302
-1.22444
-3.3865
0.304714
-1.38731
0.571721
-1.46661
0.00948244
-1.77893
-0.0931263
-0.967238
0.285366
0.625394
-1.59275
-0.240902
-2.14397
8.68445
-0.480038
-2.22776
8.96881
-0.774205
-2.28654
9.30667
-0.3424
-2.69702
8.66683
0.438083
-3.15497
9.15205
-2.31636
9.34706
0.273257
-3.20793
8.34557
0.357499
-3.25997
8.74353
1.05492
-3.45639
7.65123
0.408201
-3.32741
8.14131
-0.933882
-3.45327
8.19174
-3.78779
6.23622
0.149488
-3.07125
0.755198
0.199486
-3.06066
0.655784
0.763315
-3.07755
0.31891
0.553116
-3.13056
0.515049
-0.153669
-3.26804
0.618389
-3.20398
0.480359
-0.00816375
-2.43089
-2.85689
-0.0690094
-2.36844
-2.91609
-0.0958223
-2.44711
-2.88756
1.60559e-05
-2.39679
-3.05469
0.057165
-2.42342
-2.91852
-2.47296
-2.82749
-0.0326674
-1.68552
-3.02916
-0.000833783
-1.66984
-3.03925
-0.0595551
-1.68235
-3.02257
-0.0219962
-1.66455
-3.02657
0.1033
-1.65356
-3.02722
-1.67854
-3.03383
-0.0279478
-1.14095
-1.95956
0.0239248
-1.14706
-1.94788
0.0144365
-1.1341
-1.95263
0.0113978
-1.08091
-1.94493
0.0834362
-1.02038
-1.92586
-1.10279
-1.9699
-0.0195967
-0.639438
-1.15553
0.136398
-0.645281
-1.12598
0.215561
-0.624929
-1.14978
0.160941
-0.547802
-1.17383
-0.00806157
-0.433852
-1.17306
-0.612111
-1.18631
0.00497144
-0.00364921
-0.773705
0.292956
-0.0288485
-0.729194
0.564654
0.0133851
-0.786531
0.372633
-0.00989983
-0.886818
-0.173399
0.0635088
-0.878044
0.0305815
-0.858317
-0.0245506
-0.122864
-0.696512
0.207042
-0.380387
-0.697884
0.11008
0.0874865
-0.718365
0.0442402
-0.447359
-0.734677
-0.0584171
-0.680274
-0.777514
0.138783
-0.633577
-0.0874705
-0.850139
-1.31182
-0.0431329
-1.11293
-1.44914
0.113127
-0.857223
-1.24725
0.208687
-1.21366
-1.71435
-0.0828499
-1.5885
-1.9869
-0.78375
-1.31898
-0.066828
-1.05855
-3.10938
-0.282724
-1.13187
-3.09722
-0.74151
-1.07716
-2.84587
-0.366729
-1.23871
-3.33979
0.271517
-1.65005
-3.25971
-1.20425
-2.69449
-0.0708408
-2.37502
-0.196888
-2.47243
-0.554608
-2.49837
-0.44972
-2.31083
0.495884
-1.97026
-2.30111
-0.00134204
9.31208
0.0319583
-0.00140149
9.29017
0.0202728
-0.00231202
9.30176
0.0257228
-0.00112775
9.30114
0.024311
0.000229268
9.29561
0.0213167
9.30644
0.0272714
0.000171659
7.732
1.57991
-0.0011403
7.72265
1.56883
-0.00152916
7.72819
1.57395
-0.00101923
7.72697
1.57366
-0.000895821
7.72479
1.57069
7.72989
1.57566
0.000260279
1.48862
-0.00054817
1.48325
-0.000559526
1.48584
-0.000535846
1.4857
-0.000748967
1.48418
1.48648
0.00040237
2.57031
-1.2817
1.07291e-05
2.5523
-1.28742
-0.000185885
2.5616
-1.28524
-0.000515782
2.55898
-1.2852
-0.00052873
2.55425
-1.28697
2.56336
-1.28434
0.00583636
3.39695
0.747436
0.000494138
3.38431
0.742163
0.000444863
3.39128
0.74433
0.000277734
3.3886
0.744215
-0.00253364
3.38508
0.742671
3.39157
0.744908
0.00361201
1.2817
0.000467892
1.2784
0.000477806
1.28
0.000440265
1.27976
-0.00136315
1.27876
1.28013
0.000638166
-1.26279
-2.26223
0.000388794
-1.26651
-2.26676
0.000188903
-1.26423
-2.26519
-5.44442e-06
-1.26569
-2.26395
-0.000509311
-1.26675
-2.26533
-1.26483
-2.26394
0.00168621
-0.913655
0.396611
0.000589088
-0.918292
0.395035
0.00028526
-0.915129
0.395528
0.000171098
-0.917143
0.395779
-0.000684829
-0.918506
0.395288
-0.916179
0.395573
0.00216915
0.844537
0.000431902
0.843591
0.000756801
0.84419
0.000648314
0.843847
-0.00065541
0.843545
0.843907
5.48764e-05
-2.37392
-2.52861
0.000616158
-2.37316
-2.53484
0.000457734
-2.37325
-2.53212
0.000220562
-2.37396
-2.53032
-0.000283424
-2.37368
-2.5318
-2.37414
-2.53063
0.000442029
-2.42567
0.447919
0.000303215
-2.42585
0.447867
0.000231363
-2.42554
0.44789
0.000243537
-2.42608
0.447889
-0.00015681
-2.42606
0.448076
-2.42608
0.447347
0.000561567
0.409298
0.000146639
0.409423
0.000418053
0.40943
0.000334247
0.409209
-4.5757e-05
0.409237
0.409172
-0.000996522
-2.18877
-2.95017
0.000748938
-2.18618
-2.96057
0.00136983
-2.18728
-2.95607
0.000109663
-2.18798
-2.95218
-0.00137475
-2.1878
-2.95377
-2.18748
-2.95489
-0.000581217
-2.22668
0.486413
0.000338799
-2.22589
0.486661
0.000605435
-2.22627
0.486619
0.000249883
-2.22645
0.486715
-0.000843848
-2.22642
0.487787
-2.22626
0.485291
5.25978e-05
0.277
7.47902e-05
0.277624
0.000176971
0.277345
0.000133048
0.277156
5.05715e-05
0.277285
0.27718
-0.00357208
-1.68998
-3.57903
0.00137765
-1.68433
-3.59969
0.00484147
-1.68637
-3.59288
0.000383421
-1.68883
-3.58078
-0.00561537
-1.69015
-3.58128
-1.68493
-3.59317
-0.00274909
-1.27526
0.0744484
0.000942911
-1.27371
0.0723447
0.00226746
-1.2745
0.0734293
0.000492521
-1.27484
0.0745079
-0.00389572
-1.2751
0.0771263
-1.27416
0.0706221
0.000144782
0.588017
9.74888e-06
0.589726
-2.5059e-05
0.588951
1.63342e-05
0.588535
-0.00019699
0.589002
0.588445
-0.00983435
-1.37788
-4.42486
0.00240254
-1.36674
-4.46832
0.0122265
-1.37034
-4.45837
0.00192807
-1.37604
-4.42737
-0.0166555
-1.37958
-4.42054
-1.36774
-4.46379
-0.0098696
-0.43407
-0.85949
0.00312063
-0.433271
-0.874119
0.00875038
-0.433826
-0.868722
0.00186912
-0.433722
-0.860931
-0.0126868
-0.433947
-0.853951
-0.433769
-0.876031
0.000375386
0.750306
-5.22038e-05
0.751552
-0.000281031
0.751075
1.89728e-06
0.751
-0.000714327
0.753287
0.748522
-0.0149847
-0.856698
-4.95424
0.00330933
-0.831405
-5.04045
0.0195306
-0.840709
-5.02415
0.00472309
-0.852197
-4.9598
-0.0303562
-0.860089
-4.92502
-0.835131
-5.0504
-0.0221284
0.194788
-1.88884
0.00557731
0.204324
-1.93755
0.0188745
0.200117
-1.92284
0.0040206
0.196098
-1.89437
-0.0231826
0.189192
-1.87602
0.206484
-1.94083
-0.00417872
0.223704
0.00106924
0.21863
0.00296348
0.220275
0.000382047
0.223256
-0.0081374
0.226782
0.216314
-0.0186017
1.26247
-5.44056
0.00401971
1.28351
-5.56477
0.0203739
1.27253
-5.53764
0.00936573
1.26879
-5.45635
-0.0483716
1.27605
-5.38949
1.26553
-5.585
-0.00670228
1.92981
-2.54948
-0.00196219
1.95592
-2.6147
-0.00177077
1.94472
-2.59522
-0.000159084
1.93535
-2.56254
0.011563
1.9304
-2.54209
1.94965
-2.61339
-0.0089997
-0.17403
0.00172407
-0.18295
0.00444387
-0.180212
0.000843033
-0.176744
-0.00387942
-0.17524
-0.181938
0.008034
2.84528
-4.86191
0.000659923
2.8234
-4.98536
-0.0096836
2.82694
-4.9505
0.000881833
2.85131
-4.88909
0.0138757
2.88692
-4.82883
2.80085
-4.99248
0.0206987
2.65137
-2.37627
-0.00887733
2.64187
-2.40359
-0.0263596
2.64349
-2.3943
-0.00803562
2.66158
-2.39113
0.0495012
2.68284
-2.39555
2.62629
-2.38933
0.00689215
-0.11415
-0.00617066
-0.117604
-0.0160538
-0.114811
-0.00466568
-0.117738
0.0294036
-0.122459
-0.111659
0.0335148
-0.249159
-4.14855
-0.00352741
-0.26582
-4.19507
-0.0238129
-0.25501
-4.17914
-0.00527811
-0.249281
-4.16372
0.0467477
-0.234279
-4.14733
-0.26466
-4.18864
0.013403
-1.59279
-1.04604
-0.00352971
-1.61158
-1.0409
-0.0105418
-1.60142
-1.04087
-0.00327131
-1.59391
-1.05378
0.0125251
-1.57776
-1.06787
-1.61273
-1.02873
0.00749411
0.493119
-0.00435219
0.495883
-0.00740659
0.495354
-0.00175474
0.493279
0.0100756
0.491428
0.497522
0.00649339
-4.70213
-1.26239
0.00040211
-4.74753
-1.26378
-0.00156478
-4.73141
-1.26278
-0.000947992
-4.71396
-1.26444
0.000285102
-4.69244
-1.26497
-4.74821
-1.26185
0.0116904
-3.8636
-1.89626
0.000566265
-3.87955
-1.89776
-0.0027606
-3.8717
-1.89726
-0.000195217
-3.87209
-1.89821
0.004229
-3.86885
-1.89589
-3.87389
-1.89882
0.00762749
-0.576161
-0.00172322
-0.578491
-0.00486955
-0.578097
-0.00167383
-0.576471
0.00867867
-0.574336
-0.580019
-0.00410927
-0.512171
-0.627957
1.14424
-0.00214933
-0.511375
-0.629364
1.13878
-0.0033886
-0.511395
-0.632506
1.14514
-0.00484831
-0.490122
-0.617507
1.10909
0.00676543
-0.487058
-0.619763
1.09521
-0.496825
-0.621956
1.12555
-0.00839856
-0.744779
-0.334594
0.5756
-0.00205792
-0.747096
-0.337886
0.567265
0.00350392
-0.744267
-0.33651
0.56382
0.00430106
-0.728099
-0.332442
0.569622
-0.00170237
-0.718955
-0.320044
0.557944
-0.728562
-0.338446
0.56848
-0.00527404
-0.387647
0.465035
-0.0155016
-0.391734
0.473642
-0.0287843
-0.388033
0.474556
-0.0279558
-0.381423
0.467112
0.00170081
-0.363175
0.429466
-0.372792
0.464504
-6.45129e-05
-0.33448
-0.293412
-0.000417538
-0.336557
-0.292454
0.000240798
-0.341418
-0.291747
0.00029428
-0.322865
-0.294696
-0.00206961
-0.323025
-0.294373
-0.33162
-0.292406
-0.000708253
-0.650168
-0.0181993
-0.00643547
-0.653104
-0.015612
-0.0116011
-0.655838
-0.0169248
-0.014062
-0.641637
-0.011209
-0.00192014
-0.644795
-0.0104163
-0.653897
-0.0180889
-0.000746832
-0.129828
-0.00570582
-0.130421
-0.0134251
-0.128194
-0.0109969
-0.123359
-0.00106044
-0.117735
-0.11795
0.00072747
-0.268388
-0.0257516
-0.000119146
-0.266151
-0.0254568
-0.00138878
-0.265145
-0.025332
-0.000951853
-0.269916
-0.0252168
6.4335e-05
-0.270133
-0.0252561
-0.267601
-0.0247399
-0.00193037
-0.630849
0.346191
-0.00121448
-0.62932
0.346842
-0.00197833
-0.628936
0.34763
0.0015611
-0.632002
0.347338
0.00737346
-0.634528
0.348167
-0.629091
0.350775
-0.00248826
0.0645026
-0.00374618
0.0642661
-0.00421
0.0655795
-0.00461528
0.0673162
-0.0013051
0.0687632
0.0702093
0.000595373
-0.157918
0.131571
-8.28052e-05
-0.156432
0.131654
-0.00122548
-0.15566
0.131471
-0.000358907
-0.158381
0.132297
0.000576359
-0.158655
0.132464
-0.155643
0.131479
-0.001301
-0.650954
0.840528
-0.00165247
-0.650064
0.840825
-0.00222653
-0.648885
0.84143
-0.00170493
-0.65262
0.841057
0.00235673
-0.655429
0.840879
-0.645641
0.843131
-0.00119979
0.320801
-0.00184024
0.321073
-0.00217723
0.322006
-0.00147342
0.321504
0.000805704
0.321024
0.324986
0.000655882
-0.337177
0.468092
-9.85813e-05
-0.336443
0.468852
-0.00134544
-0.335566
0.468284
-0.000325528
-0.33805
0.469328
0.000990849
-0.338528
0.469675
-0.335289
0.467759
-0.000292024
-0.937231
1.44088
-0.00107703
-0.937103
1.44227
-0.00187201
-0.935625
1.44228
-0.00131155
-0.939376
1.44182
0.00329443
-0.942241
1.43999
-0.932777
1.44391
-0.000475066
0.560007
-0.000864007
0.560868
-0.000566924
0.56139
-0.000576476
0.559828
-0.000183902
0.558137
0.563918
0.000816729
-0.795111
0.000143657
-0.79426
-0.000540053
-0.793813
-0.000405146
-0.795251
-0.000111562
-0.795587
-0.7942
-0.00019811
-1.2503
-0.000293007
-1.24966
-0.000176627
-1.24891
-0.000361742
-1.25146
0.00147058
-1.25332
-1.24763
-0.000248251
-0.000360714
0.00024988
-0.000112517
-0.000873714
-0.145886
10.7252
-1.89485
-0.324223
11.0576
-1.91043
-0.379955
11.3659
-2.00348
-0.10743
10.5667
-2.17243
0.185818
11.0945
-2.2357
11.4338
-1.90096
-0.0655401
11.6135
-0.822774
-0.195404
11.9943
-0.806856
-0.408319
12.4009
-0.822102
-0.172552
11.1041
-0.77311
-0.0101809
11.678
-0.745869
11.9871
-0.563448
-0.0963464
0.629973
-0.192268
0.513004
-0.541394
0.674123
-0.389127
0.738087
0.0108732
0.567402
1.05978
0.300288
8.60885
-2.45842
0.45495
9.01603
-2.33759
1.07243
7.74405
-2.71378
0.464178
8.67312
-2.09599
-0.344656
8.87815
-2.11328
7.04593
-3.05532
0.210669
7.58168
-0.00626746
0.366116
7.84802
0.2057
0.249245
7.22429
-0.185477
0.232038
7.19749
0.719725
0.467867
7.12036
0.776098
7.26418
-0.31383
-0.0101328
1.40486
-0.152672
1.47385
-0.706463
1.38349
-0.106269
1.49769
0.578167
1.58889
1.4819
0.124884
0.435795
-2.2639
0.129967
0.4746
-2.16149
0.149733
-0.15954
-2.2551
0.243312
0.312247
-1.98677
0.278072
0.483957
-2.01361
0.0779865
-2.37488
0.0944945
0.268239
0.0667933
0.0976198
0.395191
0.281981
-0.601586
0.295842
0.0583457
0.0814068
-0.426513
0.775491
0.788385
-0.222589
0.775664
0.596409
-0.0438692
-0.0438159
1.56828
-0.139913
1.66323
-0.751618
1.63476
0.00319756
1.48646
0.702403
1.65301
1.63222
-0.0309582
-3.74498
-1.34486
-0.0926391
-3.7677
-1.2482
-0.150945
-3.72926
-1.35509
0.0498442
-4.0174
-1.22484
0.154166
-3.86213
-1.17431
-3.67162
-1.37658
-0.0796019
-3.66795
0.0693652
-0.0935624
-3.61425
0.142493
-0.406512
-3.46103
0.103062
0.00994378
-3.83589
0.177517
0.376405
-3.69967
0.246738
-3.41791
0.0788212
-0.0278449
0.646681
0.00810674
0.683609
-0.0860896
0.726852
-0.0438844
0.582179
0.077867
0.674134
0.709184
-0.0402431
-3.28
-1.05377
-0.0152222
-3.29235
-1.02012
-0.0710483
-3.28074
-1.0411
-0.0132733
-3.28886
-1.02033
0.0755017
-3.29748
-0.992833
-3.28456
-1.05034
-0.0249108
-2.89921
-0.28651
-0.0163999
-2.89955
-0.258819
-0.0330088
-2.89584
-0.265222
-0.0168761
-2.86971
-0.257761
0.0300276
-2.8741
-0.22355
-2.89996
-0.275751
-0.0116825
0.134492
0.0021959
0.136244
0.043086
0.154707
-0.0259684
0.118923
-0.0360551
0.140893
0.143875
-0.0226984
-2.17743
-0.813201
-0.00744564
-2.17621
-0.807039
-0.0150882
-2.18109
-0.805006
-0.0128851
-2.17234
-0.795119
0.0327114
-2.17814
-0.786153
-2.18644
-0.801089
-0.0126547
-2.06487
-0.386413
-0.00378382
-2.06138
-0.382516
-0.00436601
-2.06657
-0.379158
-0.00349385
-2.05436
-0.376612
0.0164678
-2.05577
-0.36588
-2.06717
-0.378555
-0.00377932
-0.0519881
-0.00396472
-0.0527795
0.00690525
-0.0480575
-0.00353979
-0.0547428
-0.00264149
-0.0500967
-0.0494683
-0.00834731
-1.34984
-0.61054
0.01622
-1.34518
-0.612412
0.0193375
-1.35071
-0.607187
0.0127869
-1.3649
-0.597503
0.0191247
-1.36819
-0.597353
-1.37021
-0.598066
0.00176818
-1.46607
-0.271957
0.0105902
-1.46551
-0.271
0.0164749
-1.46714
-0.268614
0.0106733
-1.47036
-0.265339
0.0070928
-1.47031
-0.260181
-1.47356
-0.268104
-0.000543845
-0.0831331
-0.000653034
-0.0837689
0.00170605
-0.0822732
-0.000794641
-0.0836578
0.000699629
-0.0827776
-0.0817306
-0.0211389
-1.01403
-0.349078
0.0449823
-0.999465
-0.408262
0.078254
-1.01708
-0.409907
0.0446199
-1.04933
-0.401354
0.0162798
-1.06133
-0.385729
-1.05103
-0.389075
0.00802767
-1.32558
0.0315647
0.0251079
-1.32552
0.0379741
0.0343919
-1.33012
0.0351411
0.0212072
-1.3386
0.037116
0.00189525
-1.34096
0.0387674
-1.34178
0.0245497
0.000446799
-0.0783538
0.0020484
-0.0794913
0.00383355
-0.0794103
0.00202155
-0.0803689
0.00151292
-0.0807853
-0.0790982
-0.138334
-0.609074
-0.298179
-0.0379127
-0.583694
-0.62287
0.102831
-0.596911
-0.672102
0.0928407
-0.608095
-0.517942
-0.00362624
-0.630795
-0.435978
-0.583876
-0.442401
0.0126718
-0.996816
0.406634
0.0134286
-0.987118
0.44064
0.0206665
-0.988679
0.41967
-0.00165712
-0.9933
0.444645
-0.0441281
-0.999314
0.449757
-0.991491
0.388035
-0.00799213
0.0264287
-0.00301131
0.0228152
-0.00158223
0.0259351
0.000419311
0.0231623
0.00679142
0.0141521
0.02848
0.0780587
-0.765747
-0.92231
0.0892966
-0.860037
-1.22321
0.410325
-0.801351
-1.43903
0.176918
-0.906021
-1.09287
-0.278045
-0.975852
-0.992066
-0.798068
-1.24136
0.0607898
-1.33349
0.913587
0.021486
-1.34815
0.968056
0.0388026
-1.3414
0.942403
-0.0136388
-1.36462
0.955686
-0.0809942
-1.37894
0.920204
-1.35311
0.862082
0.00144984
0.218374
-0.000106253
0.21849
-0.000151674
0.220907
0.00578343
0.208035
0.00932885
0.195903
0.217604
0.0920521
-1.76444
-2.3593
0.00270954
-1.79216
-2.43893
0.0767135
-1.7311
-2.6278
-0.0543189
-1.8524
-2.44923
-0.306328
-1.66652
-2.33325
-1.55985
-2.68232
0.000549738
-1.54787
0.696463
-0.0368646
-1.5193
0.732603
-0.0539248
-1.51229
0.74065
-0.119446
-1.57248
0.741291
-0.0553628
-1.49394
0.683544
-1.47463
0.721493
-0.0186835
0.385156
0.00516484
0.387022
0.00970952
0.390481
-0.0210376
0.375005
0.00453426
0.378321
0.394608
0.051077
-3.64116
0.0222808
-3.74379
-0.104806
-3.85394
-0.0171132
-3.73867
-0.0225229
-3.20289
-3.88041
0.0116649
-2.38076
-0.0414747
-2.39078
-0.143522
-2.44743
-0.168923
-2.40236
0.0925485
-2.22288
-2.49789
0.0254486
-0.00674585
-0.0995958
-0.107323
0.0967473
)
;

boundaryField
{
    seabed_topleft_surface
    {
        type            calculated;
        value           uniform 0;
    }
    seabed_topright_surface
    {
        type            calculated;
        value           uniform 0;
    }
    breakwater_top_surface
    {
        type            calculated;
        value           uniform 0;
    }
    breakwater_left_surface
    {
        type            calculated;
        value           uniform 0;
    }
    breakwater_right_surface
    {
        type            calculated;
        value           uniform 0;
    }
    water_front_surface
    {
        type            calculated;
        value           uniform 0;
    }
    water_back_surface
    {
        type            calculated;
        value           uniform 0;
    }
    water_left_surface
    {