/*--------------------------------*- C++ -*----------------------------------*\
| =========                 |                                                 |
| \\      /  F ield         | OpenFOAM: The Open Source CFD Toolbox           |
|  \\    /   O peration     | Version:  v1612+                                |
|   \\  /    A nd           | Web:      www.OpenFOAM.com                      |
|    \\/     M anipulation  |                                                 |
\*---------------------------------------------------------------------------*/
FoamFile
{
    version     2.0;
    format      ascii;
    class       volVectorField;
    location    "5.6";
    object      U;
}
// * * * * * * * * * * * * * * * * * * * * * * * * * * * * * * * * * * * * * //

dimensions      [0 1 -1 0 0 0 0];

internalField   nonuniform List<vector> 
1116
(
(-0.722753 -0.000116321 0.00883053)
(-0.722771 -6.75029e-05 0.00879553)
(-0.722766 4.51422e-05 0.00882949)
(-0.722751 -1.63846e-05 0.00881316)
(-0.722759 2.97772e-05 0.00879753)
(-0.722753 4.6046e-05 0.00881565)
(-2.40547 -9.127e-05 0.17173)
(-2.40557 -4.66547e-05 0.171749)
(-2.40553 5.38429e-05 0.171756)
(-2.4055 -1.18023e-05 0.171743)
(-2.40552 1.26397e-05 0.171745)
(-2.40547 3.35983e-05 0.17172)
(-3.46461 -0.000121218 0.120488)
(-3.46478 -5.25411e-05 0.120427)
(-3.46468 7.45637e-05 0.120454)
(-3.46465 -2.58554e-05 0.120467)
(-3.46471 1.24573e-05 0.120454)
(-3.46462 4.32208e-05 0.12046)
(-3.6739 -9.50474e-05 -0.0135839)
(-3.67405 -2.53307e-05 -0.0135922)
(-3.67393 5.36692e-05 -0.0135888)
(-3.67391 -2.63595e-05 -0.0135768)
(-3.67396 1.21185e-06 -0.0135763)
(-3.67394 1.70761e-05 -0.013583)
(-3.6876 -8.64303e-05 -0.00658577)
(-3.68789 -1.60892e-05 -0.00646238)
(-3.68768 3.83056e-05 -0.00650117)
(-3.68766 -1.96649e-05 -0.00649598)
(-3.68774 3.05677e-06 -0.00646765)
(-3.68772 3.52518e-06 -0.00656026)
(-3.58533 -2.66502e-05 -0.116858)
(-3.58587 8.25857e-06 -0.116739)
(-3.58557 8.80224e-06 -0.116748)
(-3.58554 7.6021e-06 -0.116746)
(-3.58566 -4.61424e-06 -0.116739)
(-3.58552 -2.47934e-05 -0.116849)
(-3.2494 0.000109349 -0.301705)
(-3.25018 6.75999e-05 -0.30156)
(-3.24981 -3.98298e-05 -0.301561)
(-3.24974 4.9582e-05 -0.301571)
(-3.2499 -3.82594e-05 -0.301551)
(-3.24963 -7.62893e-05 -0.301694)
(-2.72398 0.000322717 -0.366678)
(-2.72476 0.000162194 -0.366367)
(-2.7244 -0.000126072 -0.366417)
(-2.72435 -3.30993e-07 -0.366434)
(-2.72454 -1.92529e-05 -0.366231)
(-2.72412 2.05458e-05 -0.366719)
(-2.22582 0.000696529 -0.404434)
(-2.22588 0.000332119 -0.404044)
(-2.22573 -0.00036992 -0.404098)
(-2.22603 -0.000404717 -0.404111)
(-2.22658 0.000287461 -0.403585)
(-2.22521 0.000678583 -0.404777)
(-1.79417 0.000881011 -0.575596)
(-1.79113 0.000437849 -0.575006)
(-1.79188 -0.000574246 -0.575105)
(-1.79384 -0.000889196 -0.575302)
(-1.79669 0.000708188 -0.574891)
(-1.78943 0.00140578 -0.575807)
(-1.16183 0.000229026 -0.771023)
(-1.15623 0.000202155 -0.770003)
(-1.15727 -0.000244412 -0.770129)
(-1.16162 -0.000260756 -0.771018)
(-1.16696 0.000262931 -0.771422)
(-1.15252 0.000135475 -0.770032)
(-0.216442 -0.000940548 -0.268509)
(-0.214258 -0.000519353 -0.268622)
(-0.214773 0.000789157 -0.268747)
(-0.216369 0.00151971 -0.268438)
(-0.217216 -0.00136067 -0.268286)
(-0.213664 -0.00260194 -0.268938)
(-3.52201 -0.00418176 2.93508)
(-3.5195 -0.00223278 2.93445)
(-3.52052 0.00151854 2.93459)
(-3.52072 -0.00111422 2.93471)
(-3.52011 0.00101161 2.9346)
(-3.52126 0.00170592 2.93486)
(-5.37135 -0.000399587 2.31752)
(-5.37076 -0.000190382 2.31685)
(-5.37094 9.56954e-05 2.31713)
(-5.37109 -0.000115652 2.31725)
(-5.37092 0.000128299 2.31707)
(-5.37118 0.000134772 2.31728)
(-5.05709 0.000170972 0.906298)
(-5.05681 0.000116872 0.905516)
(-5.05686 -0.000104044 0.905858)
(-5.05699 4.32883e-05 0.905983)
(-5.05687 -3.56931e-05 0.905752)
(-5.05702 -0.000123329 0.906087)
(-4.50485 0.000212479 0.138302)
(-4.50485 0.000135948 0.13795)
(-4.50477 -0.000117479 0.138105)
(-4.50488 6.86845e-05 0.138176)
(-4.50482 -6.30584e-05 0.13807)
(-4.50487 -0.000160069 0.138219)
(-3.83665 0.00015425 -0.12461)
(-3.83687 8.89811e-05 -0.124705)
(-3.83674 -9.79351e-05 -0.124647)
(-3.83679 5.87393e-05 -0.124618)
(-3.83677 -4.71176e-05 -0.124639)
(-3.83678 -0.000122749 -0.124651)
(-3.04285 4.48478e-05 -0.330535)
(-3.04333 7.79422e-06 -0.330272)
(-3.04316 -5.499e-05 -0.330348)
(-3.04312 7.75544e-06 -0.330369)
(-3.04309 1.39388e-05 -0.330253)
(-3.04308 -1.29957e-06 -0.330539)
(-1.87915 -0.000103908 -0.573128)
(-1.87989 -0.000107105 -0.572511)
(-1.87966 -1.35347e-05 -0.572722)
(-1.87949 -0.000130389 -0.572786)
(-1.87957 0.000157355 -0.572488)
(-1.87935 0.000272279 -0.573128)
(-0.470906 -0.000161666 -0.740593)
(-0.471451 -0.000179415 -0.739953)
(-0.471237 -2.18112e-06 -0.740167)
(-0.471239 -0.000180853 -0.740232)
(-0.471787 0.000244463 -0.739722)
(-0.470544 0.000419348 -0.740718)
(0.532482 -0.000217697 -0.674367)
(0.532996 -0.000119504 -0.673756)
(0.532884 6.33052e-06 -0.673924)
(0.532496 -0.000217469 -0.674019)
(0.531504 0.000310367 -0.673425)
(0.533969 0.000393473 -0.674533)
(0.617469 -0.000754189 -0.543247)
(0.611041 -0.0002895 -0.542228)
(0.612962 0.000525689 -0.542514)
(0.616827 0.00083779 -0.542797)
(0.623857 -0.000637208 -0.542537)
(0.607031 -0.00140182 -0.542819)
(0.345378 -0.00355904 -1.04006)
(0.336931 -0.00230211 -1.03903)
(0.338446 0.00311549 -1.03909)
(0.346201 0.00485105 -1.03992)
(0.356426 -0.00451858 -1.04135)
(0.327951 -0.00737785 -1.03792)
(-1.39822 -2.35208e-05 -0.961987)
(-1.40623 -0.000485242 -0.96126)
(-1.40445 0.000751621 -0.961628)
(-1.39872 0.00183379 -0.961954)
(-1.39776 -0.00149141 -0.962458)
(-1.40668 -0.00195373 -0.961053)
(-7.57504 -0.00828809 9.29745)
(-7.57863 -0.00487892 9.26154)
(-7.57686 0.00243566 9.27854)
(-7.57734 -0.00219863 9.28008)
(-7.5777 0.00216353 9.27171)
(-7.57649 0.00347365 9.2867)
(-7.88706 -0.00123507 0.799868)
(-7.88804 -0.000697423 0.799726)
(-7.88749 0.000379419 0.799957)
(-7.88766 -0.000407366 0.799608)
(-7.88773 0.000357016 0.799813)
(-7.88748 0.000637753 0.799731)
(-6.50734 -0.00104116 -0.875898)
(-6.50735 -0.000618032 -0.874019)
(-6.50726 0.000446182 -0.874681)
(-6.50747 -0.000252313 -0.875136)
(-6.50737 0.000267263 -0.87442)
(-6.50745 0.000560098 -0.875458)
(-4.78245 -0.000973382 -1.3857)
(-4.7818 -0.000613124 -1.38363)
(-4.78208 0.000424176 -1.38443)
(-4.78222 -0.000238826 -1.38479)
(-4.78207 0.000257864 -1.38402)
(-4.78234 0.000560094 -1.38521)
(-2.9463 -0.000914257 -1.52732)
(-2.94648 -0.000589752 -1.5254)
(-2.94643 0.00036878 -1.52615)
(-2.94639 -0.000306686 -1.52648)
(-2.94656 0.000312225 -1.52581)
(-2.94632 0.000642558 -1.52688)
(-0.753354 -0.000706069 -2.09352)
(-0.754528 -0.000478302 -2.09214)
(-0.753972 0.000173415 -2.09266)
(-0.753821 -0.000552633 -2.09303)
(-0.754609 0.000524594 -2.09261)
(-0.753279 0.000972309 -2.09321)
(2.24406 -2.59505e-05 -3.25265)
(2.24264 -0.000130908 -3.25236)
(2.24355 -0.000495864 -3.25226)
(2.24355 -0.0011502 -3.25324)
(2.24118 0.000957728 -3.25362)
(2.24569 0.00162646 -3.25195)
(5.86733 0.00243132 -3.79676)
(5.86453 0.00178196 -3.79872)
(5.86564 -0.00329459 -3.79809)
(5.86664 -0.00323919 -3.79811)
(5.86536 0.00312571 -3.79724)
(5.86585 0.00385114 -3.79931)
(10.9155 0.00207775 -2.04713)
(10.9426 0.00450045 -2.03996)
(10.935 -0.00578001 -2.04123)
(10.9214 -0.00482561 -2.04806)
(10.8975 0.00569574 -2.05716)
(10.9548 0.0031137 -2.03098)
(6.02334 -0.0163956 0.608898)
(5.94611 -0.0067014 0.61828)
(5.98932 0.0104689 0.615536)
(5.9944 0.0228426 0.60955)
(6.0826 -0.0224502 0.599054)
(5.91025 -0.0445314 0.626154)
(3.92355 -0.026989 1.21453)
(3.77091 -0.0192823 1.19412)
(3.79693 0.0249685 1.19697)
(3.92138 0.037429 1.21464)
(4.10605 -0.0367121 1.23027)
(3.62581 -0.0514597 1.18263)
(-2.29936 0.0293342 0.260572)
(-2.4846 0.0181679 0.239005)
(-2.44518 -0.0265632 0.241033)
(-2.3113 -0.0462289 0.262126)
(-2.19124 0.0479444 0.283573)
(-2.56225 0.0876016 0.222267)
(-4.96676 -0.00542551 15.0762)
(-4.98876 -0.0033419 15.0117)
(-4.9792 0.000628671 15.0424)
(-4.97909 -0.00226916 15.0443)
(-4.98385 0.00133647 15.028)
(-4.97461 0.0022719 15.0571)
(-5.63232 -0.000151662 2.50375)
(-5.64445 -0.00040755 2.49041)
(-5.6392 -0.00075853 2.49697)
(-5.63857 -0.000740333 2.49677)
(-5.64149 -0.000178742 2.4935)
(-5.6363 0.000118687 2.49983)
(-3.0967 -0.000173854 -3.57585)
(-3.09562 -0.000636645 -3.58521)
(-3.09537 -0.00075103 -3.58115)
(-3.09399 -0.000613659 -3.57998)
(-3.09479 -0.000338579 -3.58273)
(-3.09544 -3.85014e-05 -3.5782)
(-1.68804 -0.000273034 -4.06824)
(-1.69137 -5.72629e-05 -4.07417)
(-1.68914 -7.92216e-06 -4.07187)
(-1.68864 -0.000373424 -4.071)
(-1.69037 0.000188612 -4.07276)
(-1.68871 0.000237155 -4.06988)
(1.29551 0.000363377 -4.56641)
(1.29006 0.00031388 -4.57031)
(1.29319 -0.000277001 -4.56896)
(1.29378 -0.000514315 -4.56847)
(1.29086 0.000699543 -4.56961)
(1.29538 0.000828508 -4.5675)
(2.50244 0.00155285 -5.35637)
(2.4958 0.00113481 -5.35892)
(2.50006 -0.00135571 -5.35784)
(2.49998 -0.0020431 -5.3583)
(2.49384 0.00209976 -5.35924)
(2.50419 0.00298613 -5.35632)
(1.83521 0.00264561 -6.58829)
(1.83139 0.0019591 -6.58735)
(1.83505 -0.00332433 -6.58672)
(1.83309 -0.00269463 -6.59079)
(1.82157 0.00203568 -6.59349)
(1.84352 0.00216342 -6.58268)
(0.291588 0.00202442 -5.64596)
(0.2795 0.00290316 -5.64274)
(0.282441 -0.00428338 -5.64333)
(0.290031 0.0013401 -5.64757)
(0.289761 -0.000271822 -5.64621)
(0.279934 -0.00539878 -5.64434)
(-4.28134 -0.0213992 -0.738629)
(-4.28784 -0.0094092 -0.641686)
(-4.28637 0.0166355 -0.660277)
(-4.283 0.0410418 -0.731726)
(-4.29095 -0.0316328 -0.817591)
(-4.27555 -0.0625643 -0.590733)
(-1.81182 0.00157037 7.83179)
(-1.97799 0.00578981 7.7939)
(-1.94264 -0.00522848 7.8032)
(-1.83314 -0.00113848 7.82504)
(-1.71842 0.00444064 7.83977)
(-2.02221 0.00688833 7.789)
(-4.58406 0.0241448 2.29991)
(-4.54977 0.00622752 2.25103)
(-4.53426 -0.0117019 2.27185)
(-4.60303 -0.0193875 2.28865)
(-4.67014 0.0106345 2.29931)
(-4.47545 0.0417219 2.26086)
(-3.57531 0.00775579 -1.18692)
(-3.58775 0.000283449 -1.20025)
(-3.57753 -0.00112507 -1.19405)
(-3.58792 0.00176969 -1.19141)
(-3.60143 -0.00550328 -1.18514)
(-3.56944 -8.68895e-05 -1.20033)
(1.16648 -0.264474 0.872766)
(1.37334 -0.447084 0.738812)
(1.53939 -0.894617 0.735336)
(2.46578 -0.78533 0.503128)
(3.17446 0.102248 0.455915)
(1.25653 0.648776 1.02285)
(5.22283 -0.0146306 -0.466666)
(5.21169 -0.233645 -0.443602)
(5.18437 -0.678278 -0.731444)
(7.12325 -0.700041 -1.33264)
(8.67461 -0.0736054 -1.9682)
(5.01526 0.199895 -0.800282)
(10.4201 -0.0251585 -2.24226)
(10.724 0.247907 -2.42645)
(9.85351 0.238104 -2.11367)
(10.8298 0.0642206 -2.60758)
(11.8925 0.175219 -3.23543)
(8.52259 0.417484 -1.76561)
(11.3632 0.0192496 -3.19398)
(11.6431 0.030333 -3.4175)
(11.4619 0.0560333 -3.38026)
(11.4095 0.333615 -3.21317)
(11.8631 -0.0563508 -3.32641)
(10.014 -0.144781 -2.62506)
(10.5183 0.00566124 -3.19542)
(10.7761 0.062602 -3.43752)
(10.5933 0.0311338 -3.5062)
(10.6393 0.348961 -3.1677)
(11.3252 -0.122589 -3.11824)
(9.86739 -0.210688 -3.02107)
(9.70824 0.0522311 -3.14236)
(10.1366 0.143944 -3.49792)
(9.70506 0.0586014 -3.52473)
(9.88106 0.435523 -3.13341)
(10.7845 -0.178727 -3.07073)
(8.56825 -0.308672 -3.00614)
(9.07767 0.159983 -3.1106)
(9.69101 0.253823 -3.56675)
(9.15265 0.0879893 -3.61693)
(9.256 0.630798 -3.09542)
(9.92893 -0.201483 -2.98103)
(7.71576 -0.357424 -3.04416)
(8.22238 0.226049 -3.09289)
(8.84406 0.260418 -3.51744)
(8.36655 0.123631 -3.71703)
(8.3562 0.909911 -2.94634)
(8.80785 -0.216905 -2.75647)
(7.12097 -0.402602 -3.04071)
(6.44188 0.0841113 -3.22641)
(6.85877 0.0481596 -3.55715)
(6.68036 0.149549 -4.06302)
(6.4869 1.13828 -2.8292)
(6.89583 -0.226069 -2.34359)
(6.04799 -0.384365 -3.15015)
(3.21418 -0.298673 -3.38041)
(3.86929 -0.288814 -4.21444)
(4.10413 0.13913 -4.83958)
(3.38155 1.27748 -3.17584)
(3.58015 -0.346145 -2.28006)
(4.03414 -0.402048 -3.6645)
(-1.61312 -0.290819 -2.50487)
(0.0932017 -0.0292697 -3.50312)
(1.53089 0.148802 -4.45382)
(-0.0118904 1.43751 -2.90627)
(-1.09593 -0.169374 -1.94798)
(1.01035 -0.390761 -2.68617)
(-4.28924 -0.288221 0.845336)
(-3.20437 -0.515865 -0.593054)
(-3.07458 -0.291351 0.0512947)
(-3.45352 0.858099 0.419209)
(-3.77167 0.0779704 -0.253804)
(-3.28205 0.440714 1.78588)
(3.94837 -0.299568 5.32011)
(4.30345 -0.307182 5.35743)
(4.27496 -0.995471 5.30561)
(5.98507 -0.856016 5.35901)
(7.15506 -0.0109031 5.81529)
(3.38637 0.766872 5.54999)
(6.272 0.0294747 8.56977)
(6.60994 0.123724 8.8231)
(6.1603 -0.138812 8.37978)
(8.69481 -0.201784 6.64318)
(10.1578 -0.181478 5.752)
(6.11985 -0.16599 6.83793)
(12.6374 0.0188814 4.75294)
(13.0015 0.131192 4.70953)
(11.9391 0.177329 5.88585)
(12.675 0.232969 4.46475)
(13.5813 -0.56 3.73185)
(11.0791 -0.269998 5.53824)
(7.61808 0.0140561 2.46866)
(7.19076 -0.0851884 2.67809)
(7.26472 -0.194257 2.67806)
(7.65976 -0.249715 2.5675)
(8.9545 -0.40416 3.11572)
(9.62775 -0.00529129 2.74237)
(4.6068 -0.13061 0.110594)
(4.5937 -0.0547955 0.5192)
(4.40432 -0.13057 -0.101367)
(5.27397 -0.441702 0.576129)
(7.02292 0.141019 2.7489)
(4.68978 0.595482 -0.62202)
(3.398 -0.0941382 0.523586)
(3.48979 -0.0872924 1.43252)
(3.11832 -0.272499 0.589293)
(4.56252 -0.418414 1.52897)
(7.63923 -0.187969 2.66413)
(3.5636 0.431302 -1.14188)
(3.83289 -0.0501221 0.414544)
(4.61301 -0.0661121 1.83355)
(3.10954 -0.472655 0.915296)
(6.06424 -0.556692 1.73058)
(9.73297 -0.349679 2.68686)
(3.33231 0.201967 -0.0405573)
(5.18502 0.0411382 -0.20807)
(6.32897 0.0299914 1.30501)
(4.69581 -0.378111 0.257926)
(7.3314 -0.336851 0.826837)
(10.4421 -0.202303 2.70174)
(5.53576 0.177023 0.530847)
(6.07225 0.127271 -3.16448)
(6.42435 0.0446729 -2.3363)
(5.55538 -0.394562 -3.10796)
(6.88507 -0.459122 -2.48563)
(8.81421 -0.0629835 0.386479)
(6.1466 0.449192 -2.0615)
(5.88103 0.0300374 -4.92402)
(6.42979 0.0499828 -5.9293)
(5.6168 -0.287791 -6.08275)
(5.95458 0.0718579 -4.55611)
(6.93965 -0.17181 -3.52703)
(5.75651 0.231406 -5.90993)
(4.30725 0.0827522 -4.0031)
(4.5937 0.399933 -4.60442)
(4.45805 -0.0221552 -5.59071)
(4.00534 0.855809 -2.85239)
(4.39342 -0.456085 -0.959084)
(4.10477 -0.0940216 -4.85705)
(-2.62976 0.326869 4.12034)
(-2.45117 1.31222 3.55455)
(1.25535 0.914693 -0.83838)
(-0.838799 1.72796 2.28002)
(-3.57033 -0.328163 4.32175)
(0.260567 -0.471387 0.8685)
(7.08316 -0.298661 9.90912)
(7.48723 -0.217842 10.1915)
(7.03052 -0.957617 10.5178)
(9.37022 -0.794626 10.2795)
(10.8615 -0.139671 11.0689)
(5.81169 0.781456 10.2942)
(2.32286 0.151271 14.9922)
(2.54449 0.23802 15.4118)
(3.09163 0.395267 14.3486)
(3.52429 0.60105 13.6806)
(4.13237 -0.510614 12.8342)
(3.63576 -0.779662 11.5236)
(8.62622 0.0211507 0.778112)
(8.86895 -0.0107684 0.403442)
(8.7217 0.0665502 1.93603)
(8.75085 0.143632 -0.618716)
(8.88006 -0.142321 -1.80329)
(8.41829 -0.122877 1.9993)
(6.24457 -0.0605787 -6.01604)
(6.19345 -0.132738 -6.15421)
(6.28203 -0.174507 -6.21328)
(6.38227 -0.2833 -5.74267)
(6.56325 -0.0350283 -5.19189)
(6.31092 0.107466 -5.79006)
(6.07128 -0.104742 -5.11072)
(6.10577 -0.0955694 -5.09484)
(6.04646 -0.102575 -5.17651)
(6.08197 -0.428553 -4.98583)
(6.13475 0.12359 -4.66163)
(5.90614 0.44484 -5.34466)
(4.31318 -0.193322 -2.94466)
(4.39141 -0.169677 -2.75853)
(4.35267 -0.133604 -2.91487)
(4.42004 -0.526718 -2.78269)
(4.77246 0.223779 -2.37737)
(4.28769 0.655865 -3.11843)
(2.50011 -0.289578 -0.875833)
(2.70461 -0.215962 -0.200606)
(2.56649 -0.0876674 -0.544646)
(2.86886 -0.42001 -1.12463)
(3.96443 0.0695685 -1.53295)
(2.80859 0.493128 -1.01362)
(0.124991 -0.179745 1.00747)
(1.0123 -0.021099 2.00448)
(0.35464 -0.0599979 1.88919)
(1.20988 -0.445408 -0.520883)
(3.20342 -0.188787 -3.1194)
(1.15587 0.275268 1.09947)
(2.03155 -0.116494 -2.6881)
(1.90545 0.0400262 -2.12409)
(0.93797 -0.175049 -2.03692)
(1.92956 -0.731611 -4.4003)
(3.19117 -0.13438 -5.16383)
(1.66604 0.373642 -0.929672)
(4.42158 -0.0332064 -5.71614)
(4.52392 -0.0121427 -5.808)
(3.97802 -0.38615 -6.00023)
(4.84395 -0.570002 -6.15762)
(5.72616 0.034179 -7.27029)
(4.13596 0.462771 -5.92094)
(4.88653 -0.0918729 -6.57027)
(4.86827 0.188504 -6.23465)
(4.48537 -0.333666 -6.59792)
(4.91469 -0.616098 -5.39603)
(5.52624 -0.113824 -4.37224)
(4.70248 0.678624 -6.32919)
(2.29408 -0.0310482 -1.93493)
(2.29872 0.703078 -2.07586)
(2.27348 0.207736 -3.10138)
(1.73741 -0.172747 -0.491694)
(-0.954761 -0.0711572 5.72455)
(2.17796 0.726985 -2.73196)
(8.99102 -0.271955 14.5136)
(9.34805 -0.141021 14.9936)
(8.45168 -0.808392 15.6186)
(10.8697 -0.555023 14.5207)
(12.388 -0.0901375 15.0249)
(7.03532 0.844327 15.5779)
(1.00348 0.227271 16.1269)
(1.03194 0.181885 16.7125)
(2.12636 0.641547 15.1079)
(1.57583 1.13652 15.1786)
(2.01195 -0.472714 14.8756)
(3.56015 -1.01826 11.9903)
(8.59685 0.00111525 2.24263)
(8.72421 0.162 2.043)
(8.49776 0.405337 2.07432)
(8.60583 0.703526 1.73533)
(8.8087 0.0980364 1.7453)
(8.69925 -0.205057 2.22361)
(4.64813 -0.0512394 -3.9469)
(4.46261 0.0212027 -4.0758)
(4.73527 -0.110467 -4.00886)
(4.60089 -0.101638 -4.27339)
(4.73079 0.088585 -4.02444)
(4.8573 0.0725858 -3.90308)
(4.83438 -0.0402959 -4.828)
(4.78846 -0.00365636 -4.82142)
(4.81691 -0.00472064 -4.771)
(4.83284 -0.0892718 -4.76497)
(4.81115 0.0626911 -4.70984)
(4.84261 0.0930095 -4.77116)
(3.18733 -0.0246041 -3.25313)
(3.17625 -0.0110457 -3.19299)
(3.16885 0.0414433 -3.18811)
(3.0912 -0.0146204 -3.14053)
(3.03287 0.0459186 -3.02456)
(3.11644 0.0710615 -3.20648)
(2.16439 -0.0372001 -2.12392)
(2.17117 0.0183221 -1.99819)
(2.13594 0.200501 -2.03831)
(1.96926 0.206384 -1.99644)
(1.77794 0.0425429 -1.87409)
(2.05011 -0.0391151 -2.03821)
(0.686555 -0.0632739 -1.37992)
(0.675388 0.0761345 -1.25467)
(0.661392 0.463948 -1.36219)
(0.665873 0.53911 -1.36872)
(0.471193 0.00133682 -1.09762)
(0.791653 -0.196446 -1.23545)
(-0.26583 -0.112752 -0.610321)
(-0.142834 0.0889104 -0.677756)
(-0.307654 0.20454 -0.639746)
(-0.224788 0.0697565 -0.719161)
(-0.33146 -0.0306029 -0.749086)
(-0.569995 -0.0310717 -0.394382)
(0.982194 -0.0582353 -2.04584)
(1.78578 -0.132476 -2.38773)
(0.178331 0.0620999 -1.91527)
(2.3267 0.218912 -3.23538)
(3.5715 0.0731099 -4.42013)
(0.196178 -0.196212 -2.26039)
(4.21621 -0.0154736 -6.08838)
(4.54673 -0.0812653 -6.25461)
(4.59007 -0.5247 -6.24487)
(4.74359 -0.773941 -6.02191)
(5.44335 0.0537374 -5.6747)
(4.74721 0.481402 -5.84537)
(2.80308 -0.045371 -3.72467)
(2.79839 -0.0488078 -3.83335)
(2.83927 -0.387623 -3.91488)
(2.77542 -0.724226 -3.40954)
(2.89979 0.101628 -2.79301)
(2.82043 0.587857 -3.55298)
(-1.0531 -0.00188255 19.1271)
(-1.08244 -0.00101932 19.0687)
(-1.07001 -0.00120387 19.0985)
(-1.06958 -0.00250469 19.0982)
(-1.07639 -3.64051e-05 19.0829)
(-1.06404 0.000515014 19.1111)
(1.7895 -0.000276111 17.5391)
(1.76263 8.03337e-05 17.5089)
(1.7748 -0.00134722 17.526)
(1.77468 -0.00179935 17.5237)
(1.76807 -0.000606239 17.5163)
(1.77944 -0.000420312 17.5319)
(2.30044 -2.77879e-05 11.531)
(2.28752 0.000113162 11.5258)
(2.2937 -0.000574733 11.5296)
(2.29337 -0.000707924 11.5276)
(2.29009 -0.000532905 11.5269)
(2.29552 -0.00049647 11.5302)
(0.392343 0.00186579 2.78545)
(0.378679 0.000352769 2.74759)
(0.385738 -0.000968299 2.76535)
(0.381434 0.000556627 2.76144)
(0.377288 -0.000929994 2.75202)
(0.386028 -0.000852484 2.77038)
(2.99715 0.00485191 6.98391)
(2.9817 0.0029267 6.95336)
(2.98891 -0.00115042 6.97027)
(2.9877 0.00154562 6.96498)
(2.98309 -0.00140907 6.95649)
(2.99055 -0.0020915 6.97224)
(3.22931 0.00304304 6.52503)
(3.22025 0.00198958 6.51044)
(3.22451 -0.000534625 6.51928)
(3.2243 0.00116432 6.51459)
(3.22147 -0.000681543 6.51041)
(3.22539 -0.00128513 6.51826)
(-3.90518 0.00101228 -3.61857)
(-3.91347 0.000534671 -3.62265)
(-3.91134 -7.45322e-05 -3.6206)
(-3.90922 0.00050486 -3.62231)
(-3.91184 -0.000471835 -3.62332)
(-3.90921 -0.000537802 -3.62134)
(1.0164 0.00218452 -1.63389)
(1.00971 0.00120356 -1.64403)
(1.01177 -0.000389979 -1.63727)
(1.01269 0.000935186 -1.64116)
(1.01064 -0.000521061 -1.64418)
(1.01267 -0.000830529 -1.63887)
(2.37827 0.00203137 -0.9806)
(2.37457 0.00119394 -0.986177)
(2.37666 -5.84401e-05 -0.982337)
(2.37586 0.00123968 -0.985065)
(2.37471 -0.000258416 -0.98663)
(2.37616 -0.000700042 -0.98413)
(-4.98685 1.50661e-05 -5.03068)
(-4.99665 0.00023753 -5.0273)
(-4.99256 0.000532231 -5.02837)
(-4.98974 0.000541511 -5.02962)
(-4.99255 -0.000184578 -5.02854)
(-4.98969 -0.000409524 -5.03044)
(0.757483 0.0006643 -4.25063)
(0.756598 0.00035406 -4.25101)
(0.756934 4.91794e-05 -4.25023)
(0.757049 0.000465321 -4.25164)
(0.756892 -7.33311e-05 -4.2516)
(0.756259 -0.000170457 -4.25156)
(0.996716 0.000515986 -3.76454)
(0.996523 0.000280458 -3.76499)
(0.996818 0.000127228 -3.76461)
(0.996282 0.000510072 -3.76516)
(0.996253 4.99048e-05 -3.76518)
(0.996196 -8.93929e-05 -3.76522)
(-5.34346 -0.000985225 -4.45899)
(-5.35845 -0.000333144 -4.45123)
(-5.3516 0.00134174 -4.45436)
(-5.34732 0.00124229 -4.45652)
(-5.35047 -0.000962811 -4.45625)
(-5.34861 -0.0016282 -4.45457)
(0.869597 -0.000420103 -3.96412)
(0.870182 -0.000233794 -3.96233)
(0.87 0.000601144 -3.96319)
(0.869904 0.000614132 -3.96364)
(0.870864 -0.0004038 -3.96327)
(0.868482 -0.000605757 -3.96358)
(0.508652 3.83649e-05 -3.88355)
(0.50934 3.9057e-05 -3.88289)
(0.50906 0.000130234 -3.88325)
(0.508752 0.000146016 -3.88338)
(0.50891 7.93591e-05 -3.88344)
(0.5087 6.49218e-05 -3.8831)
(-6.40067 -0.00383795 -3.35142)
(-6.42684 -0.0015986 -3.33412)
(-6.41563 0.00362144 -3.34006)
(-6.40506 0.00461158 -3.34826)
(-6.40828 -0.00361602 -3.354)
(-6.41393 -0.00702116 -3.33398)
(0.879347 -0.0022726 -2.50039)
(0.879402 -0.00120395 -2.497)
(0.879532 0.00218829 -2.49871)
(0.880159 0.00225423 -2.49924)
(0.883427 -0.00196452 -2.49886)
(0.875896 -0.00311215 -2.49882)
(0.688251 0.000136135 -2.86468)
(0.690046 9.53213e-05 -2.86315)
(0.689226 -7.10278e-05 -2.86395)
(0.688765 4.46276e-05 -2.86436)
(0.689132 -6.73691e-05 -2.86504)
(0.688908 -0.000147686 -2.86306)
(-8.08506 -0.0118664 -2.40562)
(-8.14094 -0.00510837 -2.3658)
(-8.12483 0.00847394 -2.37821)
(-8.08857 0.0148216 -2.40047)
(-8.08687 -0.0106348 -2.4145)
(-8.1277 -0.0224103 -2.36673)
(-0.4873 -0.00861566 -1.53702)
(-0.496384 -0.00462029 -1.53849)
(-0.491884 0.00810266 -1.53854)
(-0.487863 0.0083613 -1.53601)
(-0.479944 -0.00666811 -1.53456)
(-0.500265 -0.0110685 -1.54074)
(1.6395 0.000464516 -0.903898)
(1.64335 0.000251625 -0.899707)
(1.64161 -0.000413732 -0.901804)
(1.64086 7.42229e-05 -0.903366)
(1.64286 -0.00026251 -0.905389)
(1.63937 -0.0005533 -0.899618)
(-9.8551 -0.0206447 -0.12504)
(-9.97995 -0.00939711 -0.0687306)
(-9.95548 0.0133417 -0.0876839)
(-9.86004 0.0299472 -0.115285)
(-9.82949 -0.0213947 -0.117047)
(-9.97987 -0.0424604 -0.0925626)
(-2.44881 -0.0194617 -1.73265)
(-2.49328 -0.010808 -1.71023)
(-2.47842 0.0168025 -1.72004)
(-2.45354 0.0169246 -1.72919)
(-2.43613 -0.0124372 -1.75099)
(-2.49766 -0.0206224 -1.69885)
(0.794948 -0.00319946 1.67063)
(0.796657 -0.00171174 1.68238)
(0.796259 0.00252182 1.67695)
(0.796158 0.00352044 1.67218)
(0.802017 -0.00395016 1.66837)
(0.789919 -0.00648858 1.67955)
(-10.7211 -0.0169717 3.97051)
(-10.9306 -0.00874723 3.97009)
(-10.8917 0.0125242 3.96342)
(-10.7378 0.0323814 3.97976)
(-10.6399 -0.0253522 4.03373)
(-10.9618 -0.039795 3.91255)
(-4.67899 -0.00504275 1.72527)
(-4.82866 -0.00408129 1.8046)
(-4.78423 8.612e-05 1.76924)
(-4.69583 -0.00486085 1.74034)
(-4.64071 0.00529541 1.72146)
(-4.83673 0.0137589 1.78646)
(0.698366 -0.00854756 4.27198)
(0.670307 -0.0041146 4.2899)
(0.680049 0.00582117 4.28243)
(0.695386 0.00364111 4.27638)
(0.707144 -0.00210694 4.27372)
(0.663946 -0.00418611 4.28538)
(-10.272 0.0133536 6.22979)
(-10.5585 0.0085394 6.15287)
(-10.4897 -0.00890976 6.17088)
(-10.3174 -0.0109962 6.22686)
(-10.1418 0.0093173 6.31472)
(-10.6114 0.0280931 6.10962)
(-6.55134 0.0197692 4.59339)
(-6.67234 0.0090365 4.56743)
(-6.63557 -0.0199171 4.56943)
(-6.58639 -0.0322 4.61648)
(-6.55171 0.0233129 4.67436)
(-6.65918 0.0506972 4.52222)
(-1.90056 0.00876841 4.78)
(-1.92231 0.00217897 4.78773)
(-1.91158 -0.0112004 4.78556)
(-1.91236 -0.0225555 4.79278)
(-1.92124 0.0163716 4.80214)
(-1.90817 0.0340575 4.77976)
(-11.0711 0.0332132 0.368413)
(-11.2708 0.0171577 0.347613)
(-11.2034 -0.0200439 0.368922)
(-11.132 -0.0281101 0.36329)
(-11.0649 0.0227298 0.389201)
(-11.2483 0.0504206 0.355248)
(-3.19064 0.0158606 -1.59673)
(-3.17409 0.00560561 -1.65792)
(-3.17519 -0.00899208 -1.63028)
(-3.21927 -0.0155452 -1.59195)
(-3.27826 0.00726971 -1.54623)
(-3.12783 0.0238629 -1.66566)
(1.66684 0.00695843 -3.96609)
(1.67823 0.0025763 -3.97638)
(1.67549 -0.00734654 -3.96765)
(1.66837 -0.00882181 -3.97223)
(1.66342 0.00600228 -3.95923)
(1.68144 0.0116974 -3.97397)
(-3.46497 0.00601715 -4.32717)
(-3.46635 0.00361499 -4.36779)
(-3.46507 -0.00233163 -4.35375)
(-3.46808 -0.000991036 -4.33871)
(-3.46775 -0.000396779 -4.31859)
(-3.46432 0.000715528 -4.36941)
(-1.49807 0.0119387 -11.1736)
(-1.49497 0.00590772 -11.2686)
(-1.49404 -0.00335305 -11.2331)
(-1.50068 -0.00413892 -11.2008)
(-1.49818 0.00255657 -11.1593)
(-1.4929 0.00958757 -11.2661)
(-0.0933705 0.00655715 -5.0743)
(-0.0945563 0.00363679 -5.0618)
(-0.0938646 -0.00497087 -5.06074)
(-0.0941763 -0.00591991 -5.08124)
(-0.0949414 0.00437528 -5.0971)
(-0.0926101 0.00819205 -5.04613)
(1.85748 -0.00410968 0.466206)
(1.86442 -0.00867986 0.488204)
(1.88507 0.00188644 0.472229)
(1.79307 -0.0111774 0.4662)
(1.80348 -0.00218713 0.386327)
(1.82268 0.0206541 0.407909)
(1.77918 -0.0121252 -2.95268)
(1.79979 -0.00828607 -2.96556)
(1.7873 0.00180635 -2.94992)
(1.78204 0.00699208 -2.83941)
(1.71154 0.00187811 -2.75814)
(1.7766 -0.00407592 -2.82266)
(1.29251 -0.00170404 -2.37565)
(1.3119 -0.0142903 -2.38144)
(1.30888 -0.0338021 -2.37788)
(1.28734 -0.054428 -2.37013)
(1.22056 -0.0158544 -2.37334)
(1.27935 0.0171603 -2.38308)
(0.83201 0.00016692 -0.216903)
(0.830625 -0.000267275 -0.21821)
(0.828477 -0.00124342 -0.215395)
(0.83909 0.00225368 -0.210493)
(0.836373 -0.00153768 -0.188987)
(0.833194 -0.00499188 -0.207897)
(-0.110721 0.00286401 -1.59373)
(-0.117432 -0.00429896 -1.60438)
(-0.110267 -0.0149776 -1.6304)
(-0.121558 -0.023291 -1.54417)
(-0.113399 -0.0131414 -1.5674)
(-0.0882786 0.00521136 -1.59569)
(0.403418 0.00104051 -2.69251)
(0.401498 -0.00352415 -2.69934)
(0.39478 -0.0156323 -2.69474)
(0.387311 -0.0211088 -2.67768)
(0.36971 -0.00749429 -2.67222)
(0.367964 0.00196983 -2.70116)
(0.303427 0.00115915 0.16758)
(0.301916 0.000976191 0.166838)
(0.301346 -0.00150213 0.166344)
(0.301605 -0.00195803 0.167281)
(0.302151 -0.00044899 0.168346)
(0.299249 0.000400418 0.16187)
(0.110615 -0.00180094 -1.65659)
(0.110868 -0.00280305 -1.64493)
(0.106651 -0.00164769 -1.64132)
(0.105441 -0.00447278 -1.6644)
(0.0965157 0.00865088 -1.66927)
(0.0880938 0.0138039 -1.65236)
(0.0847028 -0.00193151 -2.44231)
(0.0869612 -0.00498219 -2.44254)
(0.0839852 -0.00593616 -2.44111)
(0.0758222 -0.00765877 -2.44119)
(0.0697215 -0.00461167 -2.44779)
(0.0713117 -0.000128041 -2.43007)
(-0.181766 0.000914839 0.255167)
(-0.181647 0.00111763 0.254419)
(-0.181605 -0.00154453 0.254015)
(-0.182523 -0.00135186 0.256243)
(-0.182919 0.0006041 0.259823)
(-0.18213 0.000469702 0.25045)
(-1.42802 -0.00167732 -1.28049)
(-1.4293 -0.00275526 -1.27197)
(-1.43011 -0.00151497 -1.26785)
(-1.42896 -0.00603489 -1.28402)
(-1.42825 0.000469229 -1.28983)
(-1.43222 0.00755246 -1.2659)
(-0.381713 -0.00107248 -2.70778)
(-0.38259 -0.00226457 -2.70839)
(-0.384905 -0.00300217 -2.70455)
(-0.384988 -0.00415187 -2.71233)
(-0.385341 0.00013923 -2.71995)
(-0.392454 0.00227256 -2.68809)
(-0.371122 0.000829852 0.299497)
(-0.371587 0.00111532 0.298673)
(-0.370993 -0.00154145 0.298479)
(-0.37278 -0.00186593 0.300091)
(-0.372774 0.00106536 0.302618)
(-0.370829 0.0012731 0.296083)
(-1.79501 -0.000154732 -2.22046)
(-1.79496 -0.00116592 -2.2162)
(-1.79597 -0.00125216 -2.21126)
(-1.79602 -0.00528678 -2.22599)
(-1.79526 0.00172338 -2.23293)
(-1.79736 0.00802531 -2.20691)
(-0.89479 -0.000478859 -3.52521)
(-0.894988 -0.00110107 -3.52695)
(-0.896704 -0.00102064 -3.52327)
(-0.894702 -0.00117465 -3.53061)
(-0.89288 -0.000445711 -3.53702)
(-0.901433 9.36884e-05 -3.51279)
(-1.64709 0.00105267 0.772436)
(-1.64982 0.00101381 0.773344)
(-1.6479 -0.000707281 0.772637)
(-1.65082 -0.000542661 0.772789)
(-1.65247 -0.000338191 0.773333)
(-1.64569 -0.000337753 0.771788)
(-4.46944 -0.000208442 -4.73511)
(-4.47583 -0.000869497 -4.7294)
(-4.47467 0.000719655 -4.72701)
(-4.47306 -0.00179713 -4.73638)
(-4.46682 0.000883251 -4.74149)
(-4.48014 0.00480305 -4.72642)
(-1.48258 -0.000215455 -3.75424)
(-1.48767 -0.00066475 -3.75729)
(-1.48735 -5.32763e-05 -3.75438)
(-1.48259 0.000500391 -3.75911)
(-1.4765 -0.000888033 -3.7623)
(-1.49334 -0.00122877 -3.74943)
(8.95307 -0.22049 17.3902)
(9.21817 -0.0343016 17.9255)
(8.20126 -0.564743 18.5773)
(10.1796 -0.164881 17.1814)
(10.497 -0.196033 18.1301)
(6.58649 0.775844 19.457)
(6.47202 -0.162837 21.4148)
(6.70229 0.0560798 22.0483)
(5.72787 -0.486402 22.6035)
(7.09504 -0.0915844 21.229)
(7.30851 -0.441741 22.5083)
(4.24735 0.535896 22.5387)
(2.18029 -0.190659 20.6941)
(2.62355 0.0690233 21.607)
(1.82291 -0.532379 22.5349)
(2.36769 -0.30268 19.0904)
(2.98318 -0.450145 20.0198)
(0.650579 0.453215 20.4375)
(0.608055 0.223917 14.7605)
(0.399314 0.243856 15.6178)
(1.79818 0.709558 13.0996)
(0.476882 1.07978 14.6893)
(0.548088 -0.104555 15.2265)
(2.8856 -0.534234 10.8939)
(-1.63588 0.120037 15.6329)
(-1.9447 0.310704 16.3254)
(-0.918417 0.251275 14.0493)
(-2.52818 0.243059 16.1632)
(-2.91426 0.328587 16.3513)
(-0.672681 0.246148 13.8017)
(-3.49705 -0.214651 13.0184)
(-3.57262 0.242001 13.3882)
(-3.33751 -0.646602 13.4591)
(-4.066 -0.447686 11.1706)
(-4.10048 0.270925 10.4415)
(-3.56154 0.601982 14.0568)
(7.23976 -0.144101 -0.172548)
(7.03488 0.2971 -0.304859)
(7.03088 0.0504032 -1.39031)
(6.25341 0.108393 -0.445443)
(6.40674 0.371585 -0.0800465)
(7.32337 0.302609 -1.04141)
(1.00297 -0.279786 1.31818)
(0.341788 0.532 1.63034)
(1.00468 -0.451534 0.559907)
(-1.74195 -0.40761 1.31714)
(-1.56878 0.563131 1.51925)
(1.2842 0.639958 1.06636)
(-3.83184 -0.365737 0.27282)
(-4.04359 0.333658 0.538132)
(-3.85392 -0.703014 1.19246)
(-3.63131 -0.426216 -2.20506)
(-4.02947 0.440688 -1.86066)
(-3.99974 0.608545 2.07413)
(1.7611 -0.138657 -7.17249)
(1.51333 0.064971 -7.25647)
(1.86377 -0.193874 -7.20298)