/*--------------------------------*- C++ -*----------------------------------*\
| =========                 |                                                 |
| \\      /  F ield         | OpenFOAM: The Open Source CFD Toolbox           |
|  \\    /   O peration     | Version:  v1612+                                |
|   \\  /    A nd           | Web:      www.OpenFOAM.com                      |
|    \\/     M anipulation  |                                                 |
\*---------------------------------------------------------------------------*/
FoamFile
{
    version     2.0;
    format      ascii;
    class       surfaceScalarField;
    location    "4.5";
    object      alphaPhi;
}
// * * * * * * * * * * * * * * * * * * * * * * * * * * * * * * * * * * * * * //

dimensions      [0 3 -1 0 0 0 0];

internalField   nonuniform List<scalar> 
816
(
-2.07825e-06
-4.69206e-06
4.44582e-06
-3.34401e-06
-4.45359e-06
1.01222e-05
5.31513e-07
4.92643e-06
4.07253e-07
6.72214e-06
-1.46766e-05
-4.91498e-06
1.90082e-06
4.16347e-06
5.84156e-06
-1.1693e-05
-1.54491e-06
3.94745e-06
5.34629e-06
-1.21435e-05
2.4286e-09
-3.5853e-09
7.06949e-12
-2.41102e-09
1.34381e-09
9.60903e-10
-1.26792e-05
-1.35698e-09
1.43247e-09
1.22612e-09
-1.23289e-05
-1.36999e-09
2.51491e-09
6.63309e-10
-3.00418e-06
-2.78735e-09
2.15163e-09
1.41034e-10
4.19007e-06
-5.15638e-10
1.08724e-09
3.80795e-09
5.48489e-07
-1.40257e-09
1.0206e-09
2.85047e-09
-4.55925e-08
-7.60779e-10
2.98301e-09
2.25882e-09
-5.5433e-06
-1.12358e-10
-1.97066e-09
1.36964e-10
-1.03198e-05
-2.60694e-10
1.78092e-09
-9.12837e-10
-9.25156e-06
-4.95996e-10
6.17955e-10
-2.78303e-09
7.5638e-12
1.62761e-10
-2.27695e-09
2.37513e-06
-1.13927e-09
-2.13988e-09
1.0987e-05
4.04613e-07
-2.21022e-05
7.36239e-07
7.96115e-06
1.33266e-05
-2.45353e-05
9.30267e-07
4.97434e-06
4.36275e-07
-1.02344e-05
-4.2128e-06
1.15736e-05
-7.10496e-06
5.7131e-06
-8.35392e-07
-1.60877e-06
-2.73199e-06
1.06764e-05
3.66343e-06
-2.11431e-06
4.02017e-06
-1.43744e-05
2.36621e-06
8.53354e-06
2.62404e-06
-8.29255e-06
-2.43981e-06
1.19302e-05
-1.34489e-07
4.84282e-06
-1.52362e-05
7.44298e-06
4.98104e-06
-2.9272e-05
7.91901e-08
1.04849e-05
8.61075e-06
-2.11631e-05
-2.38626e-06
7.94615e-06
3.44597e-06
9.24099e-06
1.65278e-06
-2.96782e-06
-1.15446e-06
1.05117e-05
3.75477e-06
-4.38353e-07
-5.65055e-06
-9.97138e-06
-1.60706e-06
-5.82696e-06
-1.08104e-05
-3.42287e-06
-1.55991e-06
-5.23815e-06
-2.77924e-06
-6.48389e-06
-8.3392e-07
2.59084e-06
2.80053e-06
1.29246e-06
4.36784e-06
2.63244e-06
-2.13758e-07
-7.29449e-06
-1.89401e-06
-3.68041e-06
3.94014e-07
-4.04544e-06
-9.08309e-07
1.22756e-06
1.88138e-06
4.0214e-06
-1.98445e-06
-1.26974e-05
-5.82448e-06
-7.54236e-06
-9.39648e-06
-9.03103e-06
-5.65847e-07
-4.923e-06
3.95231e-06
-2.54085e-06
-7.30332e-07
-7.37656e-06
-3.63746e-06
-8.89925e-07
-3.25073e-06
2.9828e-06
-2.00415e-06
-1.30094e-06
3.46857e-08
3.12991e-06
6.45784e-07
2.00783e-06
-2.00762e-06
1.33516e-06
1.94728e-06
1.29899e-06
-3.98687e-07
1.90315e-06
1.85322e-06
1.48345e-07
-3.2872e-06
-7.4734e-07
-3.1243e-06
-3.07043e-06
-1.89403e-06
-2.57758e-06
-1.5399e-06
-1.80828e-06
-3.6099e-06
-1.35091e-06
-2.69018e-07
2.05164e-06
-9.67134e-08
8.96202e-07
1.74216e-06
1.05266e-06
-6.47637e-07
-1.09119e-06
-2.39765e-06
-2.26323e-06
-5.0819e-07
-9.59871e-07
-1.32581e-06
2.6243e-07
2.37386e-06
5.54941e-08
-7.51856e-07
-3.32343e-06
-4.56388e-06
-3.80274e-06
-4.65624e-06
-4.76815e-07
-2.71831e-06
-2.49337e-06
-1.25736e-06
1.01882e-06
-3.94024e-06
-2.37614e-06
-2.07897e-07
-4.70947e-10
-3.61511e-10
4.94201e-06
-2.27887e-10
5.76819e-10
-1.66456e-06
-2.61151e-09
-9.19943e-10
-1.07953e-05
-1.18196e-10
-6.9257e-11
1.27941e-07
-6.28541e-10
1.67676e-09
1.08178e-06
-2.14077e-09
-1.50028e-09
-1.20459e-09
-7.52883e-06
-1.20564e-09
-8.64043e-10
-2.67833e-06
-5.31691e-09
-2.66759e-09
-5.59506e-06
-4.48582e-09
-2.73674e-09
1.09692e-06
-9.76247e-10
2.1175e-09
-3.58515e-06
-1.61992e-09
-3.00911e-09
2.14043e-09
-2.44252e-06
6.54824e-11
3.92343e-10
3.93935e-11
-2.30854e-09
7.28134e-10
2.297e-06
-6.00627e-11
9.80906e-12
2.6099e-11
-3.02975e-09
1.22833e-09
-1.41557e-07
-1.79502e-09
-1.20522e-10
-1.41559e-09
-7.97875e-07
2.17192e-10
-5.84104e-09
4.02899e-12
-2.0132e-09
-4.01728e-09
3.63564e-07
-7.4181e-10
-8.59885e-10
2.17269e-06
-7.88345e-10
6.73417e-11
-7.887e-10
-1.22411e-09
-1.91503e-06
-5.21187e-06
2.22482e-05
1.01196e-05
2.35232e-06
-6.42466e-06
7.63528e-08
1.15871e-06
-1.54606e-05
3.65062e-06
-1.33054e-06
-1.92662e-07
-1.35667e-06
1.32738e-05
1.80575e-05
-1.7112e-05
-1.18112e-05
2.12078e-06
2.01355e-05
-4.76652e-06
-4.7163e-06
1.15859e-05
-8.7745e-06
-2.17461e-05
3.4249e-05
-1.90024e-05
-1.77106e-05
5.40537e-06
-5.59026e-06
5.53217e-06
-1.69806e-05
2.59646e-06
-1.27383e-05
-2.02935e-06
8.00897e-06
5.02148e-06
-1.31293e-05
2.30065e-05
-9.9448e-06
2.46184e-06
-1.99815e-05
-1.60335e-06
3.88177e-06
1.36063e-05
-1.25993e-05
1.17658e-05
3.33544e-06
-1.2606e-05
-8.005e-07
4.11342e-06
6.4875e-06
1.08101e-05
-5.36038e-06
1.78087e-05
-8.06275e-06
-1.02861e-05
1.60766e-05
-9.67627e-06
-5.10136e-06
4.94885e-06
6.67833e-07
1.26839e-05
-5.57983e-06
-1.19748e-05
6.58739e-06
2.51452e-06
1.02106e-05
-4.45098e-06
2.48265e-06
-3.0968e-06
-8.50016e-07
-1.87636e-06
-6.07124e-06
-8.45694e-06
8.80537e-07
-1.98741e-07
-5.52985e-06
-2.67752e-06
7.93167e-06
4.65837e-06
9.0406e-06
-2.09212e-07
9.22187e-06
1.96059e-06
4.32906e-07
4.66207e-06
9.0767e-06
7.19017e-06
1.53476e-05
1.47731e-05
6.07911e-06
2.64139e-06
1.98201e-06
-1.2564e-06
-7.43209e-06
-6.09417e-06
3.9045e-06
1.03691e-07
4.00695e-06
-1.02698e-06
6.31032e-06
1.04668e-05
5.41911e-06
-6.20662e-07
-9.21156e-06
1.78778e-07
-1.01889e-06
6.19223e-06
1.98475e-06
-3.19958e-06
1.40099e-06
2.3416e-06
1.7696e-06
-2.97716e-06
3.12573e-06
-4.42821e-06
1.5887e-09
8.05571e-06
6.19967e-06
2.86378e-06
7.16926e-06
3.47885e-06
1.8297e-06
2.1128e-06
2.20451e-07
5.81183e-06
3.40972e-06
7.77347e-06
4.03633e-06
7.81983e-07
3.47885e-06
-2.06033e-06
1.79633e-06
-1.04698e-06
-5.68201e-07
-9.09647e-07
-5.43495e-07
-4.71548e-06
7.57661e-07
-2.42804e-07
-3.42567e-06
-1.68957e-06
2.19105e-06
3.0683e-06
5.11941e-06
-2.14505e-07
2.94027e-06
1.1869e-06
-1.60886e-07
1.60346e-06
5.04638e-06
3.92247e-06
4.2467e-06
8.75815e-06
3.82293e-06
6.194e-07
1.03802e-06
-1.20593e-06
-1.19673e-06
-3.56918e-06
2.37529e-06
-4.81161e-07
1.54523e-06
-6.58766e-07
3.22591e-06
3.20729e-06
2.5832e-06
-1.10427e-06
-2.24314e-06
-2.75299e-07
-1.09339e-06
1.70779e-06
1.13222e-06
-1.71595e-06
4.99959e-07
1.01542e-06
4.91936e-07
-1.53619e-06
1.35615e-06
-2.98769e-06
4.178e-07
2.3534e-06
3.24532e-06
1.73982e-06
2.36042e-06
2.19961e-06
8.37059e-07
6.81505e-07
-5.49945e-08
1.66309e-06
1.7145e-06
4.0377e-06
-1.0499e-07
-1.24534e-06
1.10823e-06
-1.06969e-06
5.90842e-07
3.77524e-07
9.20373e-07
-1.21432e-06
4.49672e-07
8.00151e-07
-1.9094e-07
1.40355e-06
-1.19332e-07
-1.57944e-06
-3.32045e-07
-9.23056e-07
-1.40984e-06
-4.4484e-07
-7.12012e-07
-1.12389e-06
-5.53512e-07
9.191e-07
-1.8078e-07
4.8195e-07
-1.66275e-07
-6.36019e-07
-1.64481e-06
-3.52181e-08
-6.29759e-08
-1.04401e-07
5.58706e-07
-9.2762e-07
-9.0125e-07
-2.08913e-06
-2.66925e-06
-2.02071e-07
-1.78661e-06
-9.56412e-07
-2.62897e-06
-9.55741e-07
1.93122e-06
2.82917e-07
-1.37243e-06
6.76212e-07
-1.36682e-07
6.22703e-07
-1.90459e-06
9.00761e-07
-1.24019e-06
-5.80293e-07
9.48942e-07
2.71465e-06
8.97835e-08
1.13099e-06
8.75822e-08
2.51459e-06
1.51671e-06
3.295e-06
1.0573e-06
4.42163e-07
-1.00809e-07
-1.16598e-06
1.13277e-06
2.32604e-07
-4.41729e-07
1.7804e-06
1.58648e-06
5.02775e-08
3.87335e-08
-1.59785e-07
1.00944e-06
-8.9739e-07
7.30519e-07
5.02005e-07
-7.76935e-07
-8.71185e-07
-1.16964e-07
1.47064e-06
6.17645e-07
6.48889e-07
2.20717e-07
1.10573e-07
6.5726e-07
1.5023e-06
-4.30975e-10
4.96076e-10
1.37364e-06
9.54505e-10
2.94554e-07
2.6959e-09
-3.73635e-06
-5.81799e-12
1.24113e-10
-1.11335e-09
3.83402e-06
-3.7782e-09
3.18966e-06
4.07262e-09
-3.69443e-06
1.34594e-09
-4.84787e-06
-3.68808e-09
3.56082e-07
1.6434e-11
-1.45991e-05
1.12514e-09
-1.32665e-05
-7.06417e-11
-3.81523e-06
-8.8313e-10
5.00722e-06
8.62898e-10
2.26048e-06
2.49764e-09
1.33342e-06
2.99448e-09
-9.75325e-06
1.47443e-09
-1.78553e-06
4.23121e-10
-9.59764e-07
-2.45782e-10
4.25992e-06
-7.11773e-10
3.52447e-06
3.26276e-09
3.67453e-06
4.90808e-10
-6.784e-06
-2.48393e-09
-7.61742e-06
-2.69241e-09
-5.61753e-06
-3.41525e-09
2.01241e-06
-2.91674e-10
1.32406e-08
1.04148e-09
-1.62854e-06
6.53781e-11
1.15734e-05
-1.04955e-05
-5.08475e-06
-2.03886e-06
1.98991e-05
3.23591e-06
-9.46915e-06
-3.2621e-06
2.18984e-05
-9.17784e-06
2.38693e-05
-7.99616e-06
-5.73413e-06
1.09313e-05
-2.40548e-05
1.1251e-05
-1.82634e-05
-4.19478e-06
1.2749e-05
-9.98403e-06
-2.22286e-05
5.85547e-07
-4.66647e-05
8.19837e-06
-1.21188e-05
2.79037e-06
2.84609e-05
-5.08936e-06
1.97584e-05
4.49335e-06
-1.67487e-05
-2.76328e-06
-2.38333e-07
-8.00661e-06
-6.35513e-06
-6.59205e-06
-5.00352e-06
-1.69459e-06
-4.72077e-06
-7.0678e-06
1.72013e-06
2.47761e-05
-1.52564e-05
9.25898e-06
5.95555e-06
-9.00749e-06
1.82721e-05
-3.05722e-06
-2.37338e-05
5.38681e-08
-5.62296e-06
-5.19496e-06
5.72076e-06
-2.72152e-06
-1.52964e-05
-6.70294e-06
-4.34374e-06
4.59222e-06
-1.92493e-06
2.53518e-06
8.58301e-06
-3.26065e-06
-4.52561e-06
2.04061e-07
9.97849e-06
7.816e-06
1.07266e-05
9.4337e-06
-2.6956e-06
-3.10904e-06
-1.15111e-05
-3.96525e-06
-8.36694e-06
5.66725e-06
5.06821e-06
2.55617e-06
-1.00472e-05
-8.31817e-06
-2.10177e-05
-1.33971e-05
-5.05879e-06
-3.8096e-06
1.27891e-05
7.18314e-06
8.76837e-06
2.23831e-06
-7.88688e-06
1.18363e-06
-2.05042e-07
2.4874e-06
-2.245e-06
-3.32447e-07
-2.0096e-06
-5.5009e-07
-2.52039e-06
2.61227e-06
9.07808e-07
-5.73749e-06
-6.90939e-06
-9.11851e-07
2.87838e-06
4.10614e-06
8.82324e-06
-3.04943e-06
-1.03915e-05
-2.20038e-06
-3.0106e-06
1.76335e-06
1.9692e-06
4.3025e-07
-6.1985e-06
-1.70519e-06
-1.29285e-06
1.55447e-06
-4.95455e-07
1.75213e-06
3.47678e-06
-1.70714e-06
-1.63211e-06
4.61481e-07
3.11083e-06
5.10853e-06
2.65234e-06
5.75163e-06
-2.83853e-07
-2.21519e-06
-3.55087e-06
-2.50287e-06
-2.96393e-06
3.06103e-06
6.83644e-07
1.4755e-06
-3.41846e-06
-5.2531e-06
-5.51078e-06
-7.52743e-06
-1.73906e-06
-1.99304e-06
3.6924e-06
3.98423e-06
2.79263e-06
5.75894e-07
-2.10939e-06
-4.33058e-07
1.44893e-07
1.02847e-06
-1.12844e-06
-3.61659e-07
-9.05122e-07
-3.95792e-07
-1.38411e-06
1.42113e-06
1.0013e-07
-3.52843e-06
-1.95527e-06
-6.52121e-07
4.84818e-07
3.29299e-06
1.87229e-06
-6.6742e-07
-3.20658e-06
-1.25096e-06
-2.4784e-07
2.1522e-07
4.37077e-07
-5.31604e-07
-1.41121e-06
-6.91777e-07
-7.47418e-07
9.02608e-07
1.34734e-06
-4.2388e-07
7.83438e-07
2.19526e-06
2.85497e-06
-7.02225e-07
-9.61482e-07
8.46656e-07
-6.10093e-08
-2.27206e-06
-3.5684e-06
-1.03895e-06
1.75951e-06
7.7557e-07
4.7306e-07
9.28215e-07
6.28862e-08
-3.1614e-07
5.06232e-07
-1.45041e-06
-4.70991e-07
5.17958e-07
-1.23084e-06
-8.4309e-07
-3.03753e-07
-2.10143e-07
3.34458e-10
5.07565e-09
2.23411e-06
-6.77419e-10
-2.68494e-06
8.88622e-10
-9.96062e-06
5.81562e-07
8.6467e-06
1.54881e-05
-5.57543e-06
5.56097e-06
)
;

boundaryField
{
    top_fluid_surface
    {
        type            calculated;
        value           nonuniform List<scalar> 
64
(
1.28764e-09
1.55099e-09
0
1.11081e-09
0
0
0
2.24979e-09
9.26133e-10
1.24676e-09
2.70896e-09
0
0
0
1.58294e-10
0
1.6525e-09
5.11999e-09
9.47735e-10
4.00831e-09
0
0
5.73142e-10
2.66701e-09
0
2.7369e-09
4.87723e-10
3.72119e-09
3.94144e-09
0
0
5.41452e-10
0
0
0
1.86876e-09
2.62543e-10
0
0
3.01378e-10
2.5641e-09
0
0
0
0
0
0
0
0
9.14542e-10
0
0
0
2.12885e-09
2.9237e-09
0
0
0
0
1.16902e-09
0
3.92561e-09
1.92209e-09
3.33253e-09
)
;
    }
    bottom_fluid_surface
    {
        type            calculated;
        value           uniform 0;
    }
    lateral_surface_1
    {
        type            calculated;
        value           uniform 0;
    }
    lateral_surface_2
    {
        type            calculated;
        value           uniform 0;
    }
    lateral_surface_3
    {
        type            calculated;
        value           uniform 0;
    }
    lateral_surface_4
    {
        type            calculated;
        value           uniform 0;
    }
}


// ************************************************************************* //
