/*--------------------------------*- C++ -*----------------------------------*\
| =========                 |                                                 |
| \\      /  F ield         | OpenFOAM: The Open Source CFD Toolbox           |
|  \\    /   O peration     | Version:  v1612+                                |
|   \\  /    A nd           | Web:      www.OpenFOAM.com                      |
|    \\/     M anipulation  |                                                 |
\*---------------------------------------------------------------------------*/
FoamFile
{
    version     2.0;
    format      ascii;
    class       volScalarField;
    location    "5.3";
    object      alpha.water;
}
// * * * * * * * * * * * * * * * * * * * * * * * * * * * * * * * * * * * * * //

dimensions      [0 0 0 0 0 0 0];

internalField   nonuniform List<scalar> 
1116
(
0.352016
0.352012
0.352011
0.352012
0.352013
0.352013
0.378224
0.378219
0.378218
0.378219
0.37822
0.378222
0.431741
0.431733
0.431735
0.431736
0.431736
0.431742
0.675174
0.675158
0.675164
0.675165
0.675161
0.675174
0.967232
0.96723
0.96723
0.96723
0.96723
0.967232
0.974749
0.974749
0.974749
0.974749
0.974749
0.974749
0.974748
0.974748
0.974748
0.974748
0.974748
0.974748
0.974732
0.974732
0.974732
0.974732
0.974732
0.974732
0.974461
0.974462
0.974462
0.974462
0.974462
0.974461
0.973003
0.973006
0.973005
0.973004
0.973005
0.973003
0.971048
0.971054
0.971052
0.971051
0.971052
0.971049
0.968641
0.968647
0.968644
0.968643
0.968644
0.968641
0.000379352
0.000379529
0.000379568
0.000379557
0.00037949
0.000379153
0.0139624
0.0139625
0.0139631
0.0139629
0.0139622
0.0139612
0.0805979
0.0806235
0.0806151
0.0806059
0.0806112
0.0806042
0.443066
0.443196
0.443137
0.443113
0.443151
0.443099
0.903988
0.904092
0.904044
0.904029
0.904062
0.904014
0.97475
0.97475
0.97475
0.97475
0.97475
0.97475
0.96326
0.963286
0.963278
0.963273
0.963281
0.963266
0.872677
0.872805
0.872762
0.872741
0.872782
0.872704
0.71345
0.713578
0.713534
0.713504
0.713544
0.713467
0.619302
0.619289
0.61929
0.619262
0.619247
0.619283
0.64917
0.649119
0.649128
0.649114
0.649104
0.649125
0.667664
0.667522
0.667565
0.667579
0.6675
0.667611
3.67725e-05
3.69443e-05
3.68218e-05
3.68911e-05
3.69377e-05
3.68222e-05
8.40494e-05
8.44959e-05
8.4243e-05
8.43095e-05
8.44192e-05
8.4178e-05
0.00469552
0.00473651
0.00471692
0.00471446
0.00472553
0.00470488
0.185688
0.186018
0.185868
0.185847
0.185938
0.185765
0.386143
0.386311
0.386251
0.386227
0.386273
0.386193
0.434159
0.434247
0.434227
0.434205
0.434225
0.434195
0.332914
0.332979
0.332967
0.332946
0.332958
0.332937
0.152378
0.152417
0.152409
0.152393
0.152394
0.152386
0.0516324
0.0515775
0.0516006
0.0515973
0.0515722
0.0516093
4.69637e-07
4.80648e-07
4.68639e-07
4.68639e-07
4.69798e-07
9.05025e-07
0.0382719
0.0382191
0.038237
0.0382098
0.0382004
0.0382746
0.0171534
0.0171027
0.017116
0.0171365
0.0170878
0.0171302
3.61028e-06
3.62639e-06
3.61231e-06
3.62303e-06
3.6276e-06
3.61409e-06
0.000864461
0.000867224
0.000864881
0.000866536
0.000867343
0.000865125
0.00567277
0.00567188
0.00566996
0.00567547
0.00567575
0.00567309
0.00115788
0.00113911
0.00115074
0.00114909
0.00114437
0.00115497
1.05892e-06
1.05894e-06
1.05803e-06
1.05753e-06
1.05749e-06
1.0573e-06
9.50233e-07
9.50313e-07
9.49437e-07
9.48575e-07
9.48241e-07
9.49158e-07
8.70877e-07
8.70696e-07
8.69693e-07
8.68744e-07
8.6841e-07
8.69478e-07
6.91491e-07
7.03606e-07
6.9053e-07
6.89887e-07
6.90392e-07
8.6841e-07
5.10248e-07
5.22572e-07
5.09807e-07
5.09678e-07
5.0969e-07
6.89239e-07
4.2663e-07
4.39661e-07
4.26729e-07
4.26241e-07
4.25611e-07
5.0781e-07
3.44625e-07
3.57679e-07
3.44878e-07
3.43727e-07
3.43358e-07
7.75948e-07
0.015044
0.0150796
0.0150747
0.0150272
0.0149955
0.015112
0.0271143
0.0320787
0.0159213
0.0332702
0.0512262
0.0159237
0.0504551
0.0508816
0.0508816
0.0510539
0.0512262
0.0475043
0.0446605
0.0426373
0.0492206
0.0473934
0.0403256
0.0489619
0.0168193
0.0132872
0.0211968
0.0264046
0.0272843
0.040761
0.0504557
0.049605
0.0383987
0.0584318
0.0683122
0.0410096
0.0827191
0.0827511
0.0782119
0.0820932
0.0805069
0.0707757
0.0858398
0.086838
0.0881414
0.0834874
0.0780851
0.0829777
0.0887733
0.0897008
0.0921366
0.0871615
0.0774918
0.0859546
0.0954878
0.0966386
0.0974626
0.0963673
0.0908514
0.0891421
0.0966386
0.0974626
0.098068
0.0974626
0.0922056
0.0571747
0.0574349
0.0570839
0.0412682
0.0589333
0.0831677
0.0465482
0.00314082
0.00314142
0.00469148
0.00512423
0.0153637
0.00827873
0.0200331
0.0222973
0.0153329
0.0235861
0.0357708
0.0124404
0.00730172
0.00590321
0.00804902
0.00613414
0.00227502
0.00938126
0.000445681
0.000432685
0.000473201
0.000567832
0.000686874
0.000921421
9.55629e-06
1.85458e-05
2.69823e-07
4.4939e-05
0.000143894
2.28897e-07
6.86217e-08
8.01158e-08
9.56126e-08
6.1125e-08
6.18618e-08
8.53136e-08
3.98765e-08
3.91309e-08
3.94231e-08
4.3324e-08
4.67747e-08
5.28073e-08
3.40359e-08
2.66801e-08
2.45368e-08
7.04799e-08
2.64491e-07
3.43164e-08
0.00314216
0.00201356
1.14427e-06
0.00547414
0.00400509
0.00280507
0.0423248
0.0389267
0.0396992
0.0329617
0.00989448
0.0428096
0.082325
0.0781841
0.0979225
0.0599212
0.0162301
0.0968477
0.04211
0.0735319
0.111047
0.0790227
0.0210014
0.103779
0.00314082
0.00314082
0.0223547
0.00462981
0.00418596
0.00440899
0.00539427
0.00454063
0.0064437
0.00669564
0.00223374
0.007464
3.86032e-07
3.37246e-07
2.66363e-07
1.8128e-07
1.43935e-07
1.9037e-07
2.22575e-07
2.23413e-07
1.81302e-07
1.16687e-07
1.00301e-07
1.43941e-07
2.86205e-07
1.94035e-07
5.10146e-07
6.1121e-08
6.1861e-08
4.67286e-07
6.52969e-08
9.41211e-08
1.20837e-07
4.33162e-08
4.74005e-08
7.9668e-08
3.47606e-08
3.41558e-08
3.38741e-08
3.60352e-08
2.66399e-08
4.64232e-08
7.82987e-11
8.06211e-11
7.52463e-11
2.98229e-11
-1.85951e-10
6.53758e-11
-1.02219e-09
-6.51571e-10
-9.74953e-09
-7.50088e-09
-1.74039e-08
-8.33895e-10
1.05799e-06
8.17702e-07
9.08573e-08
1.06553e-06
4.2451e-06
9.66321e-07
0.00780016
0.00559662
0.00695171
0.010444
0.0101668
0.0100946
0.12092
0.122687
0.131846
0.111025
0.0722186
0.118082
0.0951745
0.116299
0.131889
0.0344902
0.00288934
0.119054
3.3948e-05
2.63594e-05
3.58186e-05
2.4728e-05
1.94473e-05
0.00128239
4.1779e-06
3.65002e-06
4.71879e-06
3.4572e-06
5.82344e-06
5.37045e-06
7.95574e-06
7.01518e-06
8.97271e-06
6.73884e-06
4.24379e-06
7.35471e-06
2.9929e-06
2.73729e-06
2.98006e-06
2.64868e-06
1.51658e-06
3.05642e-06
6.9794e-07
7.01112e-07
7.3712e-07
5.60244e-07
3.94948e-07
7.76327e-07
3.29443e-08
3.24596e-08
3.2638e-08
3.59447e-08
3.62033e-08
4.42994e-08
5.8317e-12
5.45363e-12
5.40069e-12
9.706e-13
1.72621e-12
4.30512e-12
7.7239e-12
7.03776e-12
6.13488e-12
5.33998e-12
4.67054e-12
5.01646e-12
4.34033e-12
1.53515e-12
-7.06139e-13
-8.80555e-13
-8.10452e-10
3.27893e-12
1.06172e-06
8.22254e-07
5.24327e-07
1.06522e-06
4.25235e-06
9.6188e-07
0.0244055
0.0151513
0.023112
0.0168872
0.0226003
0.0335121
0.130897
0.131465
0.131889
0.131607
0.130541
0.130044
1.5196e-06
1.51769e-06
1.51461e-06
1.52136e-06
1.52093e-06
1.51744e-06
1.171e-07
1.172e-07
1.17189e-07
1.17243e-07
1.17346e-07
1.173e-07
1.17495e-07
1.17495e-07
1.17539e-07
1.17583e-07
1.17637e-07
1.17693e-07
0.00024653
0.000247284
0.000246426
0.000247222
0.000247482
0.000246742
3.15512e-07
3.17008e-07
3.15964e-07
3.1659e-07
3.17051e-07
3.16068e-07
1.17495e-07
1.17594e-07
1.17583e-07
1.17637e-07
1.1774e-07
1.17695e-07
0.00131657
0.00131504
0.00131473
0.00131662
0.00131634
0.0013163
1.31629e-06
1.31849e-06
1.3163e-06
1.31805e-06
1.31894e-06
1.317e-06
1.02734e-06
1.02798e-06
1.02648e-06
1.02848e-06
1.0288e-06
1.02797e-06
0.000316732
0.000317186
0.000317031
0.000316566
0.000316706
0.00031688
1.20419e-06
1.20487e-06
1.20397e-06
1.20488e-06
1.20515e-06
1.20495e-06
1.18195e-06
1.18264e-06
1.18175e-06
1.18262e-06
1.18289e-06
1.18271e-06
1.11817e-06
1.11822e-06
1.11736e-06
1.1169e-06
1.11685e-06
1.11664e-06
3.30154e-06
3.30835e-06
3.30156e-06
3.31034e-06
3.31435e-06
3.30158e-06
5.15039e-07
5.15401e-07
5.15475e-07
5.14623e-07
5.14445e-07
5.16063e-07
1.89152e-06
1.89205e-06
1.89096e-06
1.89564e-06
1.89934e-06
1.88504e-06
7.0897e-06
7.09003e-06
7.08991e-06
7.08971e-06
7.08975e-06
7.08938e-06
1.2517e-06
1.2563e-06
1.25427e-06
1.25408e-06
1.25522e-06
1.25458e-06
2.26506e-06
2.26882e-06
2.2662e-06
2.27552e-06
2.28413e-06
2.24159e-06
7.09003e-06
7.08991e-06
7.09001e-06
7.08991e-06
7.08971e-06
7.08975e-06
2.70899e-06
2.73205e-06
2.72134e-06
2.72122e-06
2.72974e-06
2.71107e-06
8.70863e-07
8.7069e-07
8.69677e-07
8.68743e-07
8.68744e-07
8.6944e-07
1.22664e-06
1.24032e-06
1.23408e-06
1.23577e-06
1.24256e-06
1.21759e-06
9.16203e-07
9.22661e-07
9.1897e-07
9.20205e-07
9.24496e-07
9.17532e-07
5.29774e-07
5.30773e-07
5.30612e-07
5.28647e-07
5.2712e-07
5.31886e-07
5.7546e-09
5.81368e-09
5.77336e-09
5.80066e-09
5.85255e-09
5.71874e-09
1.02043e-09
1.04284e-09
1.02522e-09
1.05261e-09
1.11339e-09
9.85577e-10
5.09915e-07
5.21769e-07
5.09101e-07
5.09166e-07
5.09158e-07
9.4202e-07
0.000253299
0.000253947
0.000253901
0.000252467
0.000250636
0.000255961
1.75615e-05
1.76318e-05
1.76138e-05
1.74875e-05
1.72838e-05
1.78427e-05
0.00015959
0.000160268
0.000160228
0.000159008
0.000157729
0.000161954
0.00123842
0.00123929
0.00123939
0.00123664
0.00123374
0.0012423
2.53151e-05
2.53202e-05
2.53014e-05
2.53587e-05
2.53881e-05
2.52517e-05
0.0655627
0.0655454
0.0655961
0.0653894
0.0652409
0.0657683
1.98206e-21
1.99053e-21
1.999e-21
2.02441e-21
2.01594e-21
1.96512e-21
2.17029e-06
2.17121e-06
2.16994e-06
2.17114e-06
2.17008e-06
2.17017e-06
0.185508
0.185534
0.185591
0.185659
0.185691
0.185634
-1.43301e-15
-1.13332e-15
1.5651e-29
1.08042e-18
5.29384e-23
-3.07922e-17
-2.41299e-25
1.9952e-31
1.17364e-27
1.55909e-25
2.49933e-15
-1.87921e-25
0.185749
0.185792
0.18584
0.185863
0.185866
0.185853
-6.2232e-15
-4.90222e-15
6.2604e-28
2.33265e-24
3.08416e-07
-4.08258e-16
-6.48536e-25
-2.83412e-25
-1.27014e-24
-4.85762e-25
-3.47639e-25
-4.84862e-25
0.177558
0.177419
0.177388
0.177589
0.177607
0.177544
-2.02543e-14
-1.64402e-14
-3.04112e-14
-3.20113e-15
-1.92286e-13
-5.19941e-15
-7.39094e-25
-6.94093e-25
-7.49016e-25
-6.44353e-25
-1.22574e-24
-4.29435e-25
0.148895
0.148786
0.148706
0.149012
0.149055
0.148679
-2.08353e-17
-2.28755e-17
-3.94122e-16
-1.301e-15
-1.96106e-16
-6.27905e-18
-1.07798e-24
-1.29024e-24
-1.41261e-24
-1.36096e-24
-1.40804e-24
-1.02893e-24
0.147445
0.147333
0.147271
0.147498
0.147498
0.147284
-5.95403e-17
-9.28743e-17
-3.95236e-15
-1.47479e-14
-2.71822e-18
-9.23532e-20
-5.674e-25
-7.14981e-25
-7.61244e-25
-9.49475e-25
-1.10723e-24
-8.71162e-25
0.142179
0.142078
0.142066
0.142071
0.141996
0.142176
-3.04206e-17
-4.58544e-17
-1.97087e-15
-7.38945e-15
-3.84143e-19
-9.71096e-19
-3.04337e-25
-4.00699e-25
-4.12391e-25
-6.47145e-25
-8.30956e-25
-6.64209e-25
3.13388e-05
2.98527e-05
3.53289e-05
2.94763e-05
2.57313e-05
3.75345e-05
4.28378e-06
4.70847e-06
5.51318e-06
4.95274e-06
4.61045e-06
5.09052e-06
9.72365e-07
9.1417e-07
1.02012e-06
9.64233e-07
8.38122e-07
1.31326e-06
3.96812e-05
3.73824e-05
3.82407e-05
4.1499e-05
3.62598e-05
5.03747e-05
1.31631e-05
1.32338e-05
1.37709e-05
1.44065e-05
1.24023e-05
1.78702e-05
8.43863e-08
8.19809e-08
9.07314e-08
8.74677e-08
8.38464e-08
1.27845e-07
4.45597e-06
3.93019e-06
4.49435e-06
4.9762e-06
5.04221e-06
3.87524e-06
1.60778e-06
1.60828e-06
1.59073e-06
2.04646e-06
2.14123e-06
1.99882e-06
1.49778e-08
1.91618e-08
1.32765e-08
2.10912e-08
2.097e-08
3.73575e-08
7.6478e-09
7.01651e-09
7.97991e-09
7.92108e-09
7.0941e-08
9.07469e-09
2.84379e-09
2.66589e-09
2.9914e-09
2.82903e-09
2.7352e-09
3.89595e-09
5.8992e-11
5.65302e-11
6.49315e-11
5.89463e-11
5.72416e-11
1.03336e-10
2.88472e-09
2.76432e-09
2.99205e-09
3.16133e-09
2.73615e-09
3.85155e-09
5.57808e-11
5.35968e-11
5.79862e-11
6.01425e-11
5.85978e-11
7.48983e-11
-6.24665e-15
-5.92761e-15
-6.66525e-15
-4.1906e-15
-5.49453e-15
-8.1877e-15
9.20003e-09
8.52559e-09
9.62475e-09
7.85518e-09
4.84709e-09
7.20025e-09
5.60944e-13
5.53815e-13
6.21242e-13
5.58832e-13
8.01707e-13
8.06972e-13
7.25723e-18
7.70616e-18
6.96579e-18
8.08391e-18
1.26426e-13
7.59605e-18
4.38732e-09
4.57248e-09
4.24793e-09
3.39877e-09
1.51195e-09
3.83526e-09
1.59095e-12
1.57353e-12
1.64297e-12
1.57853e-12
1.8319e-12
1.99157e-12
2.41581e-12
2.42317e-12
2.37144e-12
2.46783e-12
2.51473e-12
2.35921e-12
4.51104e-13
2.74268e-13
1.23698e-11
8.31632e-13
2.06381e-12
3.90737e-11
2.73559e-12
2.76631e-12
2.70826e-12
3.06003e-12
3.10421e-12
2.766e-12
3.7138e-13
3.78185e-13
3.64177e-13
3.83588e-13
3.94516e-13
3.6794e-13
-1.29789e-11
-5.30819e-11
-8.38628e-12
-3.80643e-10
-1.87834e-09
-3.59005e-12
7.43258e-17
1.18512e-16
6.64241e-17
2.16571e-16
5.61202e-16
4.05952e-16
6.818e-22
1.2458e-21
5.51324e-22
6.48541e-22
3.3818e-22
3.85478e-22
-1.69896e-08
-1.76627e-08
-9.24238e-09
-3.20202e-08
-5.97834e-08
-1.15877e-08
1.29105e-11
2.8936e-11
-8.95411e-13
-2.10945e-12
-3.45128e-12
-7.60526e-13
8.69186e-09
8.69227e-09
8.20921e-09
9.1585e-09
9.47755e-09
8.97633e-09
-4.12016e-10
9.69237e-06
-1.38349e-08
0.000614993
0.000569341
-1.27935e-08
6.67097e-11
9.45974e-11
5.8371e-11
2.20949e-11
1.94893e-11
2.54614e-10
9.26211e-11
1.25262e-09
3.40711e-09
3.31437e-10
1.12074e-08
7.7116e-09
0.0972228
0.0985951
0.0954312
0.109315
0.1075
0.101457
9.79382e-24
7.08067e-24
6.26678e-16
1.36364e-12
1.44766e-10
4.89689e-24
3.84814e-08
2.88519e-08
2.41131e-08
1.04163e-07
2.20368e-07
1.95748e-08
)
;

boundaryField
{
    seabed_topleft_surface
    {
        type            zeroGradient;
    }
    seabed_topright_surface
    {
        type            zeroGradient;
    }
    breakwater_top_surface
    {
        type            zeroGradient;
    }
    breakwater_left_surface
    {
        type            zeroGradient;
    }
    breakwater_right_surface
    {
        type            zeroGradient;
    }
    water_front_surface
    {
        type            zeroGradient;
    }
    water_back_surface
    {
        type            zeroGradient;
    }
    water_left_surface
    {
        type            zeroGradient;
    }
    water_right_surface
    {
        type            zeroGradient;
    }
    water_top_surface
    {
        type            inletOutlet;
        inletValue      uniform 0;
        value           nonuniform List<scalar> 
180
(
1.17495e-07
1.17495e-07
1.17539e-07
1.17583e-07
1.17637e-07
1.17693e-07
1.17495e-07
1.17594e-07
1.17583e-07
1.17637e-07
1.1774e-07
1.17695e-07
1.02734e-06
1.02798e-06
1.02648e-06
1.02848e-06
1.0288e-06
1.02797e-06
0
0
0
0
0
0
0
0
0
0
0
0
0
0
0
0
0
0
0
0
0
0
0
0
0
0
0
0
0
0
0
0
0
0
0
0
1.75615e-05
1.76318e-05
1.76138e-05
1.74875e-05
1.72838e-05
1.78427e-05
2.53151e-05
2.53202e-05
2.53014e-05
2.53587e-05
2.53881e-05
2.52517e-05
0
0
0
0
0
0
0
0
0
0
0
0
0
0
0
0
0
0
0
0
0
0
0
0
0
0
0
0
0
0
0
0
0
0
0
0
0
0
0
0
0
0
9.72365e-07
9.1417e-07
1.02012e-06
9.64233e-07
8.38122e-07
1.31326e-06
8.43863e-08
8.19809e-08
9.07314e-08
8.74677e-08
8.38464e-08
1.27845e-07
1.49778e-08
1.91618e-08
1.32765e-08
2.10912e-08
2.097e-08
3.73575e-08
5.8992e-11
5.65302e-11
6.49315e-11
5.89463e-11
5.72416e-11
1.03336e-10
0
0
0
0
0
0
0
0
0
0
0
0
0
0
0
0
0
0
0
0
0
0
0
0
0
0
0
0
0
0
0
0
0
0
0
0
0
0
0
0
0
0
0
0
0
0
0
0
)
;
    }
}


// ************************************************************************* //
