/*--------------------------------*- C++ -*----------------------------------*\
| =========                 |                                                 |
| \\      /  F ield         | OpenFOAM: The Open Source CFD Toolbox           |
|  \\    /   O peration     | Version:  v1612+                                |
|   \\  /    A nd           | Web:      www.OpenFOAM.com                      |
|    \\/     M anipulation  |                                                 |
\*---------------------------------------------------------------------------*/
FoamFile
{
    version     2.0;
    format      ascii;
    class       volScalarField;
    location    "5.3";
    object      p_rgh;
}
// * * * * * * * * * * * * * * * * * * * * * * * * * * * * * * * * * * * * * //

dimensions      [1 -1 -2 0 0 0 0];

internalField   nonuniform List<scalar> 
1116
(
3623.59
3623.59
3623.57
3623.59
3623.59
3623.57
4351.82
4351.85
4351.82
4351.83
4351.84
4351.8
6866.78
6867.08
6866.96
6866.92
6866.99
6866.88
12297.9
12298.1
12298
12298
12298.1
12298
18095.5
18095.7
18095.6
18095.6
18095.7
18095.6
20398.7
20398.8
20398.7
20398.8
20398.8
20398.8
20601.3
20601.4
20601.3
20601.4
20601.3
20601.3
19976.9
19977.2
19977
19977
19977.1
19976.9
19230.6
19230.6
19230.6
19230.5
19230.5
19230.4
18359.4
18359
18359.3
18359.1
18359.1
18359.2
17915.7
17915
17915.3
17915.2
17915.1
17915.5
17428.2
17428.1
17428.1
17428.2
17427.9
17428.2
135.12
135.128
135.13
135.128
135.126
135.118
389.638
389.689
389.678
389.68
389.678
389.635
2204.42
2205.81
2205.24
2205.04
2205.36
2204.8
9514.78
9517.6
9516.37
9516.01
9516.78
9515.48
18626.7
18628.5
18627.7
18627.5
18628
18627.2
21346.4
21346.3
21346.4
21346.4
21346.3
21346.4
20964
20964
20964
20964
20964
20964
18699
18700.4
18699.9
18699.8
18700.3
18699.2
15410.8
15412.8
15412.1
15411.6
15412.2
15410.9
12500.2
12499.3
12499.5
12499.3
12499.6
12498.4
13051
13049.9
13050.1
13050
13049.5
13050.7
13404.5
13402.1
13402.8
13403
13401.8
13403.5
140.833
140.851
140.839
140.848
140.851
140.844
110.109
110.116
110.11
110.12
110.125
110.123
295.527
296.366
295.938
295.926
296.177
295.741
5429.43
5439.86
5435.05
5434.51
5437.33
5431.88
11376.4
11381.3
11379.5
11378.8
11380.2
11377.8
12776
12778.5
12777.9
12777.3
12777.9
12777
9769.95
9771.8
9771.48
9770.89
9771.23
9770.57
4448.3
4449.35
4449.16
4448.68
4448.72
4448.48
1482.31
1480.94
1481.5
1481.4
1480.73
1481.69
80.0673
79.9693
79.9134
80.0003
79.9371
79.7701
1299.91
1300.7
1300.55
1298.11
1295.99
1303.77
873.832
872.175
872.714
873.226
872.129
872.813
77.3473
77.3654
77.3552
77.3597
77.3625
77.355
58.6581
58.7593
58.6756
58.7375
58.7668
58.6865
61.1192
60.9214
60.9533
61.1197
61.0885
61.1018
-61.2039
-61.8423
-61.4395
-61.4925
-61.6579
-61.3042
-30.8368
-30.7953
-30.8142
-30.8122
-30.8068
-30.8325
-18.0684
-18.0746
-18.073
-18.0693
-18.0657
-18.0774
-7.63418
-7.65449
-7.64778
-7.6423
-7.63831
-7.6626
-5.0442
-5.04107
-5.03998
-5.04581
-5.04396
-5.04997
1.46574
1.52716
1.50314
1.46719
1.43798
1.54956
24.4117
24.6488
24.562
24.3723
24.0817
24.8201
86.0636
86.1338
86.1325
85.9849
85.9703
86.3067
391.696
389.712
390.626
391.563
393.89
388.464
4554.06
4881.15
4562.02
5176.7
5629.51
4824.86
2900.29
2938.33
3067.69
3019.41
2850.68
2653.51
918.614
896.859
975.989
1026.14
1006.86
1069.44
225.116
208.612
255.567
329.036
374.634
425.127
483.882
479.874
391.924
559.592
634.915
420.127
770.198
770.927
733.319
766.742
747.754
670.994
776.056
786.969
791.802
773.797
711.557
763.004
1188.76
1163.09
1045.49
1240.79
1084.95
1096.64
2870.03
2827.24
2696.5
2662.85
2281.71
2517.5
3083.49
3136.27
3146.02
2972.92
2650.77
2747.83
1764.88
1808.35
1729.54
1804.01
1875.55
1744.81
1474.76
1475.19
1507.13
1496.28
1541.56
1440.75
1649.05
1711.5
1656.44
1863.15
1975.83
1686.87
193.985
175.949
217.699
209.176
166.738
266.602
-95.226
-94.9827
-94.3687
-85.675
-79.657
-80.4485
-117.35
-117.71
-118.615
-117.967
-118.196
-119.504
-91.9242
-92.207
-91.3287
-92.4867
-94.0896
-89.6531
-63.3645
-63.0986
-62.8837
-62.8488
-62.3636
-62.4417
-32.9298
-33.941
-35.3054
-31.9938
-32.289
-32.346
80.3822
60.6869
30.9511
109.898
77.615
69.3173
854.401
786.271
784.374
687.752
303.93
848.355
1698.2
1634.26
1943.68
1364.94
625.932
1998.88
1171.02
1616.47
2142.07
1542.82
441.464
2029.49
1112.66
1101.03
1300.36
899.671
780.647
936.454
218.558
203.609
234.603
258.813
192.688
289.25
-205.496
-205.211
-206.063
-203.053
-204.425
-201.36
-173.804
-173.517
-174.049
-173.501
-173.57
-170.863
-119.999
-119.465
-119.695
-121.328
-122.656
-121.61
-75.4241
-75.1327
-74.3154
-75.4419
-75.8699
-74.4716
-43.2023
-42.9702
-42.5692
-42.3115
-41.7373
-41.9754
-18.5428
-18.3686
-17.8303
-18.8892
-17.0945
-18.4532
-3.63699
-3.48574
-2.56791
-4.76851
-2.6433
-3.85736
-2.05613
-2.04319
-2.06855
2.06135
6.96681
0.56618
248.87
191.144
230.952
309.197
281.18
309.235
3434.69
3419.9
3629.87
2961.69
1911.93
3210.67
3251.9
3761.84
3820.27
1367.92
601.867
3466.9
-62.3812
-62.4268
-68.0395
-68.5808
-78.0897
-25.9451
-289.866
-290.258
-292.238
-292.543
-297.504
-294.441
-220.785
-220.029
-224.972
-220.909
-224.866
-227.202
-145.461
-144.828
-145.914
-145.279
-146.379
-147.638
-79.8588
-79.5702
-79.7087
-79.3878
-79.3947
-79.8831
-39.1813
-39.0474
-39.0504
-38.7437
-38.3664
-38.8768
-16.7455
-16.7193
-16.6893
-16.9992
-16.4422
-16.9382
-8.29337
-8.06312
-8.17455
-9.37084
-9.21246
-9.21947
-6.25198
-6.05329
-6.09591
-6.60808
-6.02113
-5.68952
0.720307
0.56316
0.196075
-3.72546
-7.58126
-2.22176
859.461
534.336
816.953
575.959
764.481
1177.35
4135.2
4160.18
4147.86
4297.99
4654.02
4210.83
20.302
20.3005
20.2983
20.2987
20.2974
20.2969
0.128003
0.128568
0.127037
0.125517
0.124148
0.122818
-2.40455
-2.405
-2.40589
-2.40668
-2.40758
-2.40875
-18.3727
-18.3422
-18.3763
-18.3535
-18.3431
-18.3751
-25.2602
-25.2641
-25.2622
-25.2692
-25.2708
-25.2705
-5.13761
-5.14005
-5.13931
-5.14107
-5.14195
-5.14195
-40.1987
-40.2754
-40.2827
-40.2058
-40.2182
-40.2176
-47.213
-47.2249
-47.2206
-47.2214
-47.2227
-47.2203
-7.08256
-7.08714
-7.08542
-7.0861
-7.08661
-7.08555
-55.0152
-55.007
-55.0079
-55.0295
-55.0266
-55.0123
-42.8616
-42.8673
-42.8651
-42.8649
-42.8662
-42.8635
-5.18317
-5.18478
-5.18404
-5.18513
-5.18536
-5.18521
-21.8709
-21.8652
-21.8671
-21.8693
-21.8699
-21.874
-23.4815
-23.4809
-23.4812
-23.4812
-23.4816
-23.4822
-2.95703
-2.9571
-2.95705
-2.95761
-2.95755
-2.95784
-9.17969
-9.17516
-9.18022
-9.17967
-9.17966
-9.18552
-6.85794
-6.84873
-6.8535
-6.85503
-6.85529
-6.85455
-1.94522
-1.94457
-1.94478
-1.94466
-1.94441
-1.9442
1.34669
1.34338
1.34116
1.34451
1.33952
1.34213
8.24027
8.24795
8.24307
8.24145
8.23843
8.2468
-0.428292
-0.426839
-0.427663
-0.427485
-0.426768
-0.427523
5.72746
5.72209
5.72407
5.72662
5.71881
5.72671
22.7183
22.7281
22.722
22.7192
22.7091
22.7307
-2.75121
-2.75168
-2.75166
-2.75158
-2.75305
-2.74705
-8.63902
-8.64638
-8.64227
-8.63461
-8.64562
-8.63986
38.8296
38.85
38.8386
38.8256
38.7949
38.8709
-4.97672
-4.97343
-4.97445
-4.97725
-4.98454
-4.96558
-12.3579
-12.2292
-12.2688
-12.3443
-12.4305
-12.116
49.2011
49.2489
49.2445
49.1615
49.0696
49.358
0.574138
0.584576
0.580559
0.576243
0.55831
0.59594
43.1087
42.9235
42.9957
43.0984
43.2336
42.8456
57.1911
57.2129
57.2396
57.1308
57.058
57.2606
-1.86312
-1.86618
-1.86538
-1.85611
-1.84706
-1.88374
3129.85
3127.84
3130.54
3121.65
3115.66
3137.84
-29.7481
-29.7914
-29.7723
-29.7364
-29.6863
-29.8009
-20.9015
-20.9222
-20.9138
-20.8859
-20.8607
-20.9371
9072.01
9072.76
9076.34
9080.5
9083.35
9079.52
0.880689
0.821307
0.832619
0.898328
0.811963
0.695317
-8.16659
-8.17582
-8.04683
-7.92669
-7.75278
-7.81623
9096.49
9098.58
9100.97
9102.31
9102.53
9102.03
-1.24802
-1.27358
-1.23517
-1.21821
-1.19505
-1.22355
-6.58071
-6.57844
-6.53058
-6.4865
-6.42578
-6.39722
8697.68
8690.96
8689.49
8699.29
8700.17
8697
-1.31398
-1.30947
-1.29565
-1.29709
-1.3136
-1.32556
-5.80976
-5.80043
-5.78129
-5.76318
-5.73909
-5.74477
7295.06
7289.76
7285.86
7300.79
7302.88
7284.57
-1.97023
-1.97884
-1.98136
-1.98907
-1.99303
-1.95585
-5.91776
-5.91156
-5.90399
-5.89378
-5.87867
-5.886
7215.49
7210.1
7207.05
7218.13
7218.14
7207.66
-6.33142
-6.33641
-6.33432
-6.3352
-6.33455
-6.32658
-8.44589
-8.44138
-8.43668
-8.43325
-8.42603
-8.42378
6933.13
6928.16
6927.57
6927.93
6924.36
6932.79
-5.42257
-5.42538
-5.41969
-5.41438
-5.40594
-5.40981
-12.4274
-12.4268
-12.4236
-12.4174
-12.4105
-12.4222
-22.1959
-21.98
-24.473
-26.7081
-27.0933
-22.9561
17.3084
17.2529
18.4728
14.6451
16.7824
16.4319
10.1688
9.7791
10.7706
9.27055
9.98401
9.62312
-166.099
-168.061
-171.262
-168.813
-169.752
-168.226
-36.4209
-38.024
-37.2851
-38.5104
-36.5075
-35.1661
7.32391
6.78177
7.91239
6.50202
7.52535
7.82186
-149.62
-148.427
-151.446
-148.768
-150.147
-155.061
-55.2496
-55.4866
-55.9213
-55.643
-54.8378
-56.1931
2.2887
1.97893
2.57855
1.79653
2.39466
2.62631
-100.396
-99.9356
-100.818
-100.291
-100.375
-102.305
-44.8838
-44.8437
-45.0262
-44.9598
-44.5616
-45.416
-0.176038
-0.295384
-0.0888533
-0.426671
-0.213274
-0.115944
-56.0224
-55.8796
-55.9953
-55.8886
-55.7796
-56.2109
-27.5977
-27.5815
-27.5824
-27.6299
-27.4547
-27.6303
-3.15381
-3.17887
-3.13093
-3.20924
-3.14301
-3.15716
-29.4592
-29.4087
-29.3879
-29.3454
-29.2578
-29.365
-16.8493
-16.8416
-16.8308
-16.8458
-16.7803
-16.8178
-5.02109
-5.02221
-5.016
-5.02222
-5.00233
-5.02162
-14.5235
-14.495
-14.4971
-14.5585
-14.477
-14.6022
-10.2827
-10.2802
-10.2886
-10.3021
-10.2956
-10.3173
-4.54217
-4.54195
-4.54008
-4.54297
-4.53719
-4.54633
-9.7772
-9.71942
-9.79915
-10.0142
-9.99824
-10.1444
-7.91519
-7.91791
-7.9646
-8.02259
-8.03723
-8.06146
-4.39636
-4.39822
-4.40349
-4.41194
-4.41277
-4.41531
-1.22974
-0.980229
-1.09872
-0.887128
-0.844006
-1.00283
-4.82938
-4.82232
-4.88266
-4.94185
-5.00451
-4.87037
-2.05959
-2.04896
-2.04277
-2.03587
-2.01603
-2.06906
-0.226688
0.633651
-0.423677
-0.777887
-1.44437
-1.68868
-5.44022
-5.48385
-5.63705
-6.02277
-6.24001
-5.91711
-3.82464
-3.82549
-3.84214
-3.86209
-3.84486
-3.85666
1.4328
4.58144
1.85131
29.1289
27.1402
1.32347
-5.74195
-5.78741
-5.78909
-6.36258
-6.25255
-5.57999
-2.87429
-2.7873
-2.86476
-2.7474
-2.66899
-3.02878
4685.98
4736.05
4595.18
5280.36
5205.43
4896.31
-5.16555
-5.79807
-5.20824
-4.836
-4.58653
-5.09856
-15.5995
-16.0704
-15.3549
-15.3064
-14.588
-14.5798
)
;

boundaryField
{
    seabed_topleft_surface
    {
        type            fixedFluxPressure;
        gradient        uniform 0;
        value           nonuniform List<scalar> 
72
(
3623.59
3623.59
3623.57
3623.59
3623.59
3623.57
4351.82
4351.85
4351.82
4351.83
4351.84
4351.8
6866.78
6867.08
6866.96
6866.92
6866.99
6866.88
12297.9
12298.1
12298
12298
12298.1
12298
18095.5
18095.7
18095.6
18095.6
18095.7
18095.6
20398.7
20398.8
20398.7
20398.8
20398.8
20398.8
20601.3
20601.4
20601.3
20601.4
20601.3
20601.3
19976.9
19977.2
19977
19977
19977.1
19976.9
19230.6
19230.6
19230.6
19230.5
19230.5
19230.4
18359.4
18359
18359.3
18359.1
18359.1
18359.2
17915.7
17915
17915.3
17915.2
17915.1
17915.5
17428.2
17428.1
17428.1
17428.2
17427.9
17428.2
)
;
    }
    seabed_topright_surface
    {
        type            fixedFluxPressure;
        gradient        uniform 0;
        value           nonuniform List<scalar> 
72
(
4554.06
4881.15
4562.02
5176.7
5629.51
4824.86
2900.29
2938.33
3067.69
3019.41
2850.68
2653.51
918.614
896.859
975.989
1026.14
1006.86
1069.44
225.116
208.612
255.567
329.036
374.634
425.127
483.882
479.874
391.924
559.592
634.915
420.127
770.198
770.927
733.319
766.742
747.754
670.994
776.056
786.969
791.802
773.797
711.557
763.004
1188.76
1163.09
1045.49
1240.79
1084.95
1096.64
2870.03
2827.24
2696.5
2662.85
2281.71
2517.5
3083.49
3136.27
3146.02
2972.92
2650.77
2747.83
1764.88
1808.35
1729.54
1804.01
1875.55
1744.81
1474.76
1475.19
1507.13
1496.28
1541.56
1440.75
)
;
    }
    breakwater_top_surface
    {
        type            fixedFluxPressure;
        gradient        uniform 0;
        value           nonuniform List<scalar> 
36
(
9072.01
9072.76
9076.34
9080.5
9083.35
9079.52
9096.49
9098.58
9100.97
9102.31
9102.53
9102.03
8697.68
8690.96
8689.49
8699.29
8700.17
8697
7295.06
7289.76
7285.86
7300.79
7302.88
7284.57
7215.49
7210.1
7207.05
7218.13
7218.14
7207.66
6933.13
6928.16
6927.57
6927.93
6924.36
6932.79
)
;
    }
    breakwater_left_surface
    {
        type            fixedFluxPressure;
        gradient        uniform 0;
        value           nonuniform List<scalar> 
24
(
17428.2
17428.1
17428.1
17428.2
17427.9
17428.2
13404.5
13402.1
13402.8
13403
13401.8
13403.5
873.832
872.175
872.714
873.226
872.129
872.813
391.696
389.712
390.626
391.563
393.89
388.464
)
;
    }
    breakwater_right_surface
    {
        type            fixedFluxPressure;
        gradient        uniform 0;
        value           nonuniform List<scalar> 
24
(
1474.76
1475.19
1507.13
1496.28
1541.56
1440.75
1112.66
1101.03
1300.36
899.671
780.647
936.454
3251.9
3761.84
3820.27
1367.92
601.867
3466.9
4135.2
4160.18
4147.86
4297.99
4654.02
4210.83
)
;
    }
    water_front_surface
    {
        type            fixedFluxPressure;
        gradient        uniform 0;
        value           nonuniform List<scalar> 
186
(
3623.59
4351.82
6866.78
12297.9
18095.5
20398.7
20601.3
19976.9
19230.6
18359.4
17915.7
17428.2
135.12
389.638
2204.42
9514.78
18626.7
21346.4
20964
18699
15410.8
12500.2
13051
13404.5
140.833
110.109
295.527
5429.43
11376.4
12776
9769.95
4448.3
1482.31
80.0673
1299.91
873.832
77.3473
58.6581
61.1192
-61.2039
-30.8368
-18.0684
-7.63418
-5.0442
1.46574
24.4117
86.0636
391.696
4554.06
2900.29
918.614
225.116
483.882
770.198
776.056
1188.76
2870.03
3083.49
1764.88
1474.76
1649.05
193.985
-95.226
-117.35
-91.9242
-63.3645
-32.9298
80.3822
854.401
1698.2
1171.02
1112.66
218.558
-205.496
-173.804
-119.999
-75.4241
-43.2023
-18.5428
-3.63699
-2.05613
248.87
3434.69
3251.9
-62.3812
-289.866
-220.785
-145.461
-79.8588
-39.1813
-16.7455
-8.29337
-6.25198
0.720307
859.461
4135.2
20.302
0.128003
-2.40455
-18.3727
-25.2602
-5.13761
-40.1987
-47.213
-7.08256
-55.0152
-42.8616
-5.18317
-21.8709
-23.4815
-2.95703
-9.17969
-6.85794
-1.94522
1.34669
8.24027
-0.428292
5.72746
22.7183
-2.75121
-8.63902
38.8296
-4.97672
-12.3579
49.2011
0.574138
43.1087
57.1911
-1.86312
3129.85
-29.7481
-20.9015
9072.01
0.880689
-8.16659
9096.49
-1.24802
-6.58071
8697.68
-1.31398
-5.80976
7295.06
-1.97023
-5.91776
7215.49
-6.33142
-8.44589
6933.13
-5.42257
-12.4274
-22.1959
17.3084
10.1688
-166.099
-36.4209
7.32391
-149.62
-55.2496
2.2887
-100.396
-44.8838
-0.176038
-56.0224
-27.5977
-3.15381
-29.4592
-16.8493
-5.02109
-14.5235
-10.2827
-4.54217
-9.7772
-7.91519
-4.39636
-1.22974
-4.82938
-2.05959
-0.226688
-5.44022
-3.82464
1.4328
-5.74195
-2.87429
4685.98
-5.16555
-15.5995
)
;
    }
    water_back_surface
    {
        type            fixedFluxPressure;
        gradient        uniform 0;
        value           nonuniform List<scalar> 
186
(
3623.57
4351.8
6866.88
12298
18095.6
20398.8
20601.3
19976.9
19230.4
18359.2
17915.5
17428.2
135.118
389.635
2204.8
9515.48
18627.2
21346.4
20964
18699.2
15410.9
12498.4
13050.7
13403.5
140.844
110.123
295.741
5431.88
11377.8
12777
9770.57
4448.48
1481.69
79.7701
1303.77
872.813
77.355
58.6865
61.1018
-61.3042
-30.8325
-18.0774
-7.6626
-5.04997
1.54956
24.8201
86.3067
388.464
4824.86
2653.51
1069.44
425.127
420.127
670.994
763.004
1096.64
2517.5
2747.83
1744.81
1440.75
1686.87
266.602
-80.4485
-119.504
-89.6531
-62.4417
-32.346
69.3173
848.355
1998.88
2029.49
936.454
289.25
-201.36
-170.863
-121.61
-74.4716
-41.9754
-18.4532
-3.85736
0.56618
309.235
3210.67
3466.9
-25.9451
-294.441
-227.202
-147.638
-79.8831
-38.8768
-16.9382
-9.21947
-5.68952
-2.22176
1177.35
4210.83
20.2969
0.122818
-2.40875
-18.3751
-25.2705
-5.14195
-40.2176
-47.2203
-7.08555
-55.0123
-42.8635
-5.18521
-21.874
-23.4822
-2.95784
-9.18552
-6.85455
-1.9442
1.34213
8.2468
-0.427523
5.72671
22.7307
-2.74705
-8.63986
38.8709
-4.96558
-12.116
49.358
0.59594
42.8456
57.2606
-1.88374
3137.84
-29.8009
-20.9371
9079.52
0.695317
-7.81623
9102.03
-1.22355
-6.39722
8697
-1.32556
-5.74477
7284.57
-1.95585
-5.886
7207.66
-6.32658
-8.42378
6932.79
-5.40981
-12.4222
-22.9561
16.4319
9.62312
-168.226
-35.1661
7.82186
-155.061
-56.1931
2.62631
-102.305
-45.416
-0.115944
-56.2109
-27.6303
-3.15716
-29.365
-16.8178
-5.02162
-14.6022
-10.3173
-4.54633
-10.1444
-8.06146
-4.41531
-1.00283
-4.87037
-2.06906
-1.68868
-5.91711
-3.85666
1.32347
-5.57999
-3.02878
4896.31
-5.09856
-14.5798
)
;
    }
    water_left_surface
    {
        type            fixedFluxPressure;
        gradient        uniform 0;
        value           nonuniform List<scalar> 
42
(
3623.59
3623.59
3623.57
3623.59
3623.59
3623.57
135.12
135.128
135.13
135.128
135.126
135.118
140.833
140.851
140.839
140.848
140.851
140.844
77.3473
77.3654
77.3552
77.3597
77.3625
77.355
20.302
20.3005
20.2983
20.2987
20.2974
20.2969
0.128003
0.128568
0.127037
0.125517
0.124148
0.122818
-2.40455
-2.405
-2.40589
-2.40668
-2.40758
-2.40875
)
;
    }
    water_right_surface
    {
        type            fixedFluxPressure;
        gradient        uniform 0;
        value           nonuniform List<scalar> 
42
(
4554.06
4881.15
4562.02
5176.7
5629.51
4824.86
1649.05
1711.5
1656.44
1863.15
1975.83
1686.87
218.558
203.609
234.603
258.813
192.688
289.25
-62.3812
-62.4268
-68.0395
-68.5808
-78.0897
-25.9451
-22.1959
-21.98
-24.473
-26.7081
-27.0933
-22.9561
17.3084
17.2529
18.4728
14.6451
16.7824
16.4319
10.1688
9.7791
10.7706
9.27055
9.98401
9.62312
)
;
    }
    water_top_surface
    {
        type            totalPressure;
        rho             rho;
        psi             none;
        gamma           1;
        p0              uniform 0;
        value           nonuniform List<scalar> 
180
(
0
0
0
0
0
0
0
0
0
0
0
0
0
0
0
0
0
0
-0.785649
-0.784022
-0.784772
-0.785335
-0.784933
-0.785797
-4.30297
-4.29701
-4.30005
-4.30103
-4.29971
-4.3012
-3.6906
-3.68044
-3.6848
-3.68619
-3.68358
-3.68593
-1.34859
-1.33952
-1.34357
-1.3452
-1.34243
-1.34582
-0.5563
-0.551392
-0.553936
-0.555083
-0.553989
-0.555691
-0.0106471
-0.0109383
-0.0107216
-0.0105768
-0.0103604
-0.0109694
0
0
0
0
0
0
0
0
0
0
0
0
-6.07156
-6.07102
-6.06282
-6.07414
-6.08169
-6.05004
-2.33131
-2.3449
-2.32125
-2.27489
-2.29367
-2.27788
-2.80131
-2.82162
-2.81206
-2.73633
-2.72008
-2.86377
-2.54372
-2.54395
-2.53745
-2.53909
-2.56004
-2.49149
-2.97957
-2.9805
-2.96485
-2.99862
-3.03308
-2.9054
-4.91431
-4.91983
-4.901
-4.93968
-4.97754
-4.8541
-2.93179
-2.93617
-2.9261
-2.9415
-2.95955
-2.90563
0
0
0
0
0
0
0
0
0
0
0
0
0
0
0
0
0
0
0
0
0
0
0
0
-1.05875
-1.06247
-1.06357
-1.07199
-1.05336
-1.08357
-2.26256
-2.26357
-2.26366
-2.26831
-2.26162
-2.27488
-2.32337
-2.32272
-2.32264
-2.32365
-2.32194
-2.32771
-3.03288
-3.03084
-3.03045
-3.02953
-3.02546
-3.02816
-2.21121
-2.20804
-2.20639
-2.20141
-2.19692
-2.20365
-3.88165
-3.88401
-3.89137
-3.96663
-4.01779
-3.90348
-4.32249
-4.30833
-4.23182
-4.36249
-4.38957
-4.11852
-3.17134
-3.18914
-3.17702
-3.03258
-3.11619
-3.14789
)
;
    }
}


// ************************************************************************* //
