/*--------------------------------*- C++ -*----------------------------------*\
| =========                 |                                                 |
| \\      /  F ield         | OpenFOAM: The Open Source CFD Toolbox           |
|  \\    /   O peration     | Version:  v1612+                                |
|   \\  /    A nd           | Web:      www.OpenFOAM.com                      |
|    \\/     M anipulation  |                                                 |
\*---------------------------------------------------------------------------*/
FoamFile
{
    version     2.0;
    format      ascii;
    class       volVectorField;
    location    "5.3";
    object      U;
}
// * * * * * * * * * * * * * * * * * * * * * * * * * * * * * * * * * * * * * //

dimensions      [0 1 -1 0 0 0 0];

internalField   nonuniform List<vector> 
1116
(
(0.0151363 4.75452e-07 -0.142579)
(0.0151326 3.25957e-06 -0.142578)
(0.0151353 -1.27689e-06 -0.142571)
(0.0151361 -9.70148e-06 -0.142569)
(0.0151357 -1.98727e-05 -0.142579)
(0.0151396 -1.05638e-05 -0.142571)
(-0.246588 -3.93218e-06 -0.247859)
(-0.246602 -9.72828e-07 -0.247857)
(-0.246598 2.09899e-06 -0.247845)
(-0.246592 -7.23389e-06 -0.247842)
(-0.246594 -6.22278e-06 -0.24786)
(-0.246583 -2.30847e-07 -0.247855)
(-1.23566 -1.45524e-05 -0.0679126)
(-1.23568 -8.90331e-06 -0.067951)
(-1.23567 1.38036e-05 -0.0679242)
(-1.23566 -3.97979e-06 -0.067919)
(-1.23567 2.06301e-06 -0.0679441)
(-1.23564 9.32812e-06 -0.0679314)
(-2.43164 -4.67461e-05 0.136065)
(-2.43166 -2.21255e-05 0.135988)
(-2.43163 3.51839e-05 0.136025)
(-2.43163 -8.47024e-06 0.136032)
(-2.43163 3.4003e-06 0.136003)
(-2.43162 1.88621e-05 0.13604)
(-3.06149 -8.64675e-05 0.184357)
(-3.06152 -3.0393e-05 0.184348)
(-3.06145 5.24476e-05 0.18435)
(-3.06145 -1.85367e-05 0.184355)
(-3.06146 8.09468e-06 0.184352)
(-3.06149 2.80629e-05 0.184359)
(-3.53319 -0.000124463 0.225712)
(-3.53339 -4.20095e-05 0.225843)
(-3.53321 5.97026e-05 0.225801)
(-3.5332 -3.27424e-05 0.225801)
(-3.53326 2.02874e-05 0.225839)
(-3.53328 4.42523e-05 0.22574)
(-3.77235 -5.26467e-05 -0.0228698)
(-3.77278 -8.93732e-06 -0.0227202)
(-3.7725 2.16615e-05 -0.0227323)
(-3.77248 -1.57642e-05 -0.0227344)
(-3.77259 1.42181e-05 -0.0227068)
(-3.7725 2.15044e-05 -0.0228676)
(-3.53992 0.000199955 -0.428834)
(-3.54057 0.000120069 -0.428629)
(-3.54023 -8.48657e-05 -0.428634)
(-3.54022 4.83266e-05 -0.428668)
(-3.54039 -4.9004e-05 -0.42863)
(-3.54006 -9.49506e-05 -0.428831)
(-2.9008 0.000436475 -0.622019)
(-2.9013 0.00025074 -0.621594)
(-2.90101 -0.000197247 -0.621679)
(-2.90107 8.8399e-05 -0.621767)
(-2.90123 -0.000126833 -0.621646)
(-2.90081 -0.000223098 -0.621971)
(-2.14834 0.000417032 -0.670633)
(-2.14809 0.000242135 -0.669933)
(-2.1481 -0.000237725 -0.67014)
(-2.14829 6.91787e-06 -0.670275)
(-2.14831 -0.000115101 -0.670073)
(-2.14805 -0.00018175 -0.670535)
(-1.385 0.000102554 -0.766832)
(-1.38406 7.90675e-05 -0.766325)
(-1.38439 -0.000122585 -0.766527)
(-1.38475 -5.10139e-05 -0.76659)
(-1.38478 -9.93511e-05 -0.766433)
(-1.38436 -0.000146117 -0.766885)
(-0.256757 -0.00019612 -0.343816)
(-0.256531 -0.000116359 -0.343881)
(-0.256587 7.44866e-05 -0.343903)
(-0.256735 2.08733e-05 -0.343855)
(-0.256496 -0.000116846 -0.343718)
(-0.256779 -0.000144969 -0.344065)
(0.215163 0.000480251 0.120717)
(0.215764 0.000239919 0.120588)
(0.215526 -0.000288845 0.120714)
(0.215294 6.89874e-05 0.120645)
(0.215474 -8.57213e-05 0.12059)
(0.21535 -0.000215675 0.120562)
(-1.62414 0.000314601 1.05491)
(-1.62404 0.000194456 1.0549)
(-1.62403 -0.000180319 1.05493)
(-1.62417 -9.60262e-06 1.05491)
(-1.62415 -5.23062e-05 1.05489)
(-1.62414 -0.000114175 1.05488)
(-3.62034 8.50904e-05 2.02917)
(-3.62043 6.16531e-05 2.02924)
(-3.62039 -9.33947e-05 2.02923)
(-3.6204 -5.32632e-05 2.02923)
(-3.62036 5.93861e-05 2.02921)
(-3.62044 3.64077e-05 2.02918)
(-4.125 0.000233773 1.50715)
(-4.12464 0.000147803 1.50676)
(-4.12477 -0.000117423 1.50695)
(-4.12484 5.07146e-05 1.50701)
(-4.1247 -3.48254e-05 1.50687)
(-4.12495 -0.000116959 1.50707)
(-3.9153 0.000194838 0.710957)
(-3.91531 0.000129472 0.710491)
(-3.91525 -9.80718e-05 0.710711)
(-3.91529 5.80861e-05 0.710778)
(-3.91526 -5.1784e-05 0.710615)
(-3.91533 -0.000132926 0.710868)
(-3.62103 0.000177941 0.254184)
(-3.62135 0.000114873 0.253686)
(-3.62115 -0.000101351 0.253934)
(-3.62115 5.23701e-05 0.253982)
(-3.6212 -4.11375e-05 0.253815)
(-3.62116 -0.000117062 0.254066)
(-3.1614 0.000180186 -0.150272)
(-3.16191 9.58195e-05 -0.150302)
(-3.16167 -0.000108284 -0.150227)
(-3.16166 4.24612e-05 -0.150252)
(-3.16169 -2.15699e-05 -0.150246)
(-3.1616 -7.66444e-05 -0.150307)
(-2.35238 8.85712e-05 -0.520974)
(-2.35285 2.46422e-05 -0.520158)
(-2.35266 -7.11881e-05 -0.520411)
(-2.35265 -9.68866e-06 -0.520554)
(-2.35263 1.31366e-05 -0.52024)
(-2.3525 1.54422e-05 -0.520842)
(-1.20795 -0.000240353 -0.818425)
(-1.20756 -0.000181633 -0.817185)
(-1.20776 6.48751e-05 -0.817605)
(-1.2078 -0.000118547 -0.817814)
(-1.20767 0.000100736 -0.817347)
(-1.20767 0.00020901 -0.818262)
(-0.386978 -0.000435849 -0.985038)
(-0.385496 -0.000264823 -0.983969)
(-0.386112 0.000163414 -0.984375)
(-0.386057 -0.000228252 -0.984524)
(-0.385638 0.000217362 -0.984117)
(-0.386652 0.000402351 -0.98496)
(-0.296152 -0.000637419 -1.38319)
(-0.294236 -0.000320241 -1.38256)
(-0.295057 0.000424787 -1.38283)
(-0.295 -0.00010065 -1.38295)
(-0.295388 4.72517e-05 -1.38293)
(-0.295113 0.000200303 -1.38304)
(-1.26227 0.000117063 -1.10215)
(-1.26404 0.000158811 -1.10222)
(-1.26351 -7.98592e-05 -1.10228)
(-1.26272 0.000110211 -1.10226)
(-1.26423 -1.80496e-05 -1.10211)
(-1.26276 -0.000273845 -1.10249)
(-2.27382 -0.0025798 1.92238)
(-2.28413 -0.00137723 1.92692)
(-2.27899 0.000441894 1.92471)
(-2.27968 -0.00112127 1.92458)
(-2.28208 0.00061076 1.92573)
(-2.27699 0.000995506 1.92376)
(-9.60298 0.000864944 6.18729)
(-9.61826 0.000746407 6.19042)
(-9.61056 -0.00104932 6.1898)
(-9.61135 -0.000719753 6.18837)
(-9.6147 -0.00028512 6.18908)
(-9.60812 -0.000412594 6.18866)
(-10.0127 0.0016261 3.28766)
(-10.0176 0.0010177 3.28458)
(-10.0153 -0.00110361 3.28703)
(-10.0156 -0.000204044 3.28594)
(-10.016 -0.000273429 3.2849)
(-10.0147 -0.000505713 3.28743)
(-7.00511 4.73898e-05 0.250629)
(-7.00644 6.66398e-05 0.252767)
(-7.00567 -0.000121444 0.252055)
(-7.00602 -0.000150961 0.251445)
(-7.00619 8.82059e-05 0.252227)
(-7.00561 0.000120847 0.251174)
(-5.32687 -0.000550431 -0.380015)
(-5.32592 -0.000287007 -0.377811)
(-5.32627 0.000209695 -0.378648)
(-5.32659 -0.000236704 -0.37905)
(-5.32622 0.000207498 -0.37828)
(-5.32671 0.000399082 -0.379461)
(-3.76107 -0.000786863 -0.621561)
(-3.76006 -0.000448456 -0.6197)
(-3.76051 0.000306917 -0.620414)
(-3.76069 -0.000320972 -0.62072)
(-3.76034 0.000259395 -0.620085)
(-3.76088 0.000545195 -0.621101)
(-2.05238 -0.00094567 -1.25014)
(-2.0519 -0.000575769 -1.24841)
(-2.05211 0.000331809 -1.24904)
(-2.05226 -0.00042715 -1.24939)
(-2.05219 0.000312938 -1.24884)
(-2.05222 0.000678922 -1.24974)
(0.269579 -0.00117021 -2.20971)
(0.2698 -0.000764225 -2.20893)
(0.269724 0.000372926 -2.20915)
(0.269633 -0.00058187 -2.20952)
(0.269369 0.000387477 -2.20933)
(0.269789 0.000883492 -2.20958)
(3.33624 -0.00135655 -2.89448)
(3.33631 -0.000975881 -2.89747)
(3.33638 0.000416113 -2.89629)
(3.33658 -0.000799323 -2.89635)
(3.33633 0.000335193 -2.89726)
(3.33622 0.0010788 -2.89528)
(6.0586 -0.00364203 -1.77556)
(6.04957 -0.00205057 -1.78063)
(6.05284 0.00353511 -1.77891)
(6.05827 0.00465621 -1.7788)
(6.06175 -0.00448512 -1.78214)
(6.04541 -0.00737691 -1.77531)
(5.43633 -0.00200755 0.467663)
(5.42027 -0.00145171 0.468976)
(5.42486 0.00365055 0.468681)
(5.43992 0.00461155 0.468244)
(5.45501 -0.0048484 0.468281)
(5.406 -0.00646106 0.468852)
(-4.39797 0.00376464 -0.707516)
(-4.41558 0.00203145 -0.705138)
(-4.40995 -0.00369752 -0.706134)
(-4.39965 -0.00377689 -0.706659)
(-4.40828 0.00565603 -0.708214)
(-4.40829 0.00743906 -0.705092)
(-1.8687 -0.00283071 7.38609)
(-1.87671 -0.00156159 7.38841)
(-1.8727 0.000487929 7.38779)
(-1.8734 -0.00123813 7.38691)
(-1.87536 0.000649502 7.38742)
(-1.87156 0.00110929 7.38676)
(-5.73402 0.00057265 6.29815)
(-5.74611 0.000442956 6.30048)
(-5.73938 -0.00089211 6.30257)
(-5.74125 -0.000606256 6.29648)
(-5.74445 -0.000375291 6.29727)
(-5.73813 -0.000445439 6.29889)
(-6.48452 0.00216074 1.14978)
(-6.48892 0.00120368 1.15315)
(-6.48664 -0.00134078 1.1534)
(-6.48781 -3.71895e-06 1.14897)
(-6.48903 -0.000896788 1.15024)
(-6.48669 -0.00121892 1.15032)
(-3.82075 0.000929498 -4.34465)
(-3.81233 0.000468163 -4.35251)
(-3.81752 -0.000654252 -4.3474)
(-3.81748 -0.000236221 -4.34921)
(-3.81584 -0.00034181 -4.35127)
(-3.82095 -0.000303215 -4.34605)
(-1.41641 -0.000990283 -4.30917)
(-1.41652 -0.000499451 -4.31584)
(-1.41547 0.00022001 -4.31246)
(-1.41719 -0.000797446 -4.31257)
(-1.4183 0.000740512 -4.31499)
(-1.41707 0.00116307 -4.31047)
(2.40988 -0.000104879 -3.99672)
(2.40749 -6.97716e-05 -4.00214)
(2.40977 -0.000115228 -3.99954)
(2.40838 -0.000493697 -3.99949)
(2.40561 0.00045186 -4.00161)
(2.41023 0.000645899 -3.99782)
(5.74137 0.0016668 -4.84972)
(5.74044 0.000922364 -4.85444)
(5.7421 -0.00123722 -4.85219)
(5.74051 -0.000610295 -4.85247)
(5.73725 0.000257877 -4.85452)
(5.74316 0.000216486 -4.85065)
(6.30239 0.00232562 -5.66307)
(6.30447 0.00112544 -5.6679)
(6.30479 -0.00136891 -5.66564)
(6.30338 -0.00017413 -5.66636)
(6.30022 -0.0001168 -5.66879)
(6.3052 -0.000261732 -5.66351)
(5.05803 -9.66225e-05 -5.72251)
(5.05196 -0.000578611 -5.72799)
(5.05477 0.00087787 -5.72632)
(5.0586 0.00129677 -5.72697)
(5.06044 -0.00272028 -5.73066)
(5.05069 -0.00280802 -5.72137)
(0.888754 -0.0119088 0.775462)
(0.872743 -0.00726869 0.790043)
(0.878589 0.016273 0.78362)
(0.885298 0.02633 0.778303)
(0.884499 -0.0275701 0.766604)
(0.87179 -0.0422942 0.801138)
(1.84908 0.00390753 6.29767)
(1.65116 0.00170197 6.24733)
(1.69694 -0.00173029 6.25867)
(1.85206 -0.00290166 6.30094)
(2.05283 0.00223972 6.3623)
(1.50793 0.00747834 6.20003)
(-5.95882 0.010082 -0.959249)
(-5.95569 0.00553935 -0.961057)
(-5.95486 -0.0120678 -0.959667)
(-5.96264 -0.0187973 -0.960793)
(-5.96903 0.0199399 -0.962345)
(-5.94725 0.0311305 -0.958596)
(7.86252 -0.562599 1.48416)
(8.96498 0.23953 0.677657)
(6.19004 -0.563336 2.43594)
(8.46266 -1.35675 0.203114)
(10.9362 0.372965 -1.60779)
(5.77282 2.68663 1.95708)
(11.2296 0.0716153 -2.40332)
(11.8837 -0.0549577 -2.78017)
(11.3832 0.052771 -2.38817)
(11.5528 0.608214 -2.67001)
(12.4569 0.0863229 -3.51056)
(9.37385 -0.0726335 -1.40237)
(12.7588 0.0643877 -3.44999)
(13.1881 -0.0513189 -3.66191)
(13.1211 -0.107717 -3.71978)
(13.0872 0.133669 -3.67631)
(13.9989 -0.342425 -4.10086)
(12.1477 -0.389363 -3.36197)
(13.3469 0.0400167 -3.34636)
(13.6088 -0.00788199 -3.47774)
(13.3802 -0.0811549 -3.61489)
(13.524 0.0587467 -3.58934)
(14.4696 -0.223013 -4.04101)
(12.3697 -0.229213 -3.52051)
(13.2208 0.0301987 -3.30383)
(13.4445 0.040535 -3.46404)
(13.1096 -0.038864 -3.48327)
(13.2151 0.0466487 -3.49014)
(14.0983 -0.122863 -3.94181)
(11.8407 -0.0883267 -3.23866)
(12.2624 0.0146892 -3.34516)
(12.3526 0.0246074 -3.48704)
(12.1685 0.031042 -3.54149)
(12.2509 0.0806711 -3.41756)
(12.8639 -0.123709 -3.6939)
(11.2245 -0.0566016 -3.19405)
(10.9277 0.0115301 -3.33642)
(10.964 0.0481192 -3.46676)
(10.7556 -0.00107614 -3.53594)
(11.0075 0.102948 -3.28037)
(11.5116 -0.154577 -3.35581)
(10.0663 -0.126393 -3.18567)
(9.34979 0.0205348 -3.48721)
(9.43497 0.12196 -3.64724)
(9.17826 -0.0164295 -3.70233)
(9.42895 0.242374 -3.32861)
(9.95828 -0.132131 -3.10992)
(8.41623 -0.241683 -3.37122)
(6.81794 -0.00930306 -4.07726)
(6.95654 0.0207019 -4.27944)
(6.80825 0.135173 -4.36482)
(6.89813 0.665106 -3.84396)
(7.46661 -0.339014 -3.22595)
(5.99367 -0.466695 -3.86089)
(3.40277 -0.059811 -4.64141)
(3.64573 -0.0729203 -4.96228)
(3.67361 0.138173 -5.18287)
(3.44113 0.822262 -4.20603)
(3.7163 -0.667968 -3.63428)
(3.08508 -0.549466 -4.01116)
(-3.17333 -0.0608077 -3.35677)
(-2.88612 0.0877317 -3.77019)
(-2.0692 0.243448 -4.20593)
(-3.07229 1.28315 -3.08932)
(-2.94934 -0.518436 -3.3396)
(0.129407 -0.549488 -3.21678)
(-5.0953 -0.0540309 1.74645)
(-5.46072 -0.760264 1.59599)
(-5.5441 0.18655 2.19555)
(-5.52194 1.00464 2.75923)
(-4.85194 0.121811 -0.449505)
(-3.84389 0.495148 2.05674)
(11.0485 -0.295307 12.7874)
(12.3084 0.0897092 12.2479)
(9.38228 -0.673372 14.2837)
(12.5112 -0.0351575 10.6284)
(15.8093 -0.0139817 8.91403)
(7.79958 1.56315 13.9876)
(15.1641 0.167183 5.52084)
(15.6126 -0.163213 5.52721)
(15.0207 -0.0565615 6.14082)
(15.3321 0.541816 5.53394)
(16.8923 -0.390907 6.23674)
(11.7769 -0.627808 7.29315)
(14.9381 0.00819275 4.53534)
(15.2129 0.028778 4.74397)
(14.7245 -0.182035 4.52177)
(15.3112 -0.0361485 4.81074)
(16.8568 -0.206686 5.46244)
(14.8884 -0.205053 3.61156)
(11.0126 0.0100724 3.29688)
(11.2478 0.0934824 3.60486)
(10.6828 0.0350437 2.91126)
(11.4043 0.340246 3.54335)
(13.3652 -0.0293588 3.97284)
(10.119 -0.0841277 1.77586)
(9.4192 0.0120378 0.848787)
(9.43453 -0.0189699 0.931185)
(9.41848 -0.0753015 1.2463)
(9.7225 0.235766 1.14406)
(10.1202 -0.160853 1.25573)
(9.12263 -0.263017 0.538878)
(6.90891 0.00214668 -0.348589)
(6.81308 -0.0738128 -0.430131)
(6.88265 -0.204252 -0.229608)
(7.43042 -0.234292 0.282151)
(8.07273 -0.203958 0.2195)
(6.7643 0.0156081 -0.152727)
(6.20885 0.0275859 0.389529)
(6.06835 -0.0831651 0.589558)
(6.13785 -0.206011 0.578819)
(6.84236 -0.396865 0.630967)
(8.11182 -0.273098 1.13451)
(5.83805 0.167225 -0.40416)
(6.76724 0.00284302 -0.512169)
(6.59342 -0.176763 -0.219743)
(6.54906 -0.143444 0.277447)
(7.32168 -0.32797 -0.723733)
(9.13687 -0.356927 0.477162)
(6.40842 0.136476 -1.41316)
(6.9073 -0.0131002 -4.63253)
(6.85742 -0.180481 -4.64026)
(6.7016 -0.186942 -4.66898)
(7.34885 -0.422279 -4.3254)
(9.26313 -0.425906 -2.37953)
(6.75099 0.169694 -5.4017)
(6.11468 -0.0203142 -6.01577)
(6.31807 -0.0712989 -6.38504)
(5.93079 -0.100752 -6.55235)
(6.54154 -0.183383 -5.49797)
(8.13872 -0.429346 -4.32666)
(6.2289 0.233818 -6.49742)
(3.66998 0.0355369 -3.04394)
(4.21318 0.512462 -4.14276)
(4.17978 0.290341 -4.89534)
(3.96512 0.97767 -2.65478)
(4.57762 -0.249992 -0.0144914)
(4.30275 0.0570628 -4.58784)
(-1.13363 0.176791 4.05529)
(-1.29515 1.80744 3.73844)
(1.19089 0.76571 -0.814311)
(-0.810518 3.06179 3.77808)
(-3.97771 0.324964 6.18228)
(0.097727 -0.771908 1.41724)
(7.44442 -0.289275 24.6015)
(8.13883 0.243096 24.7551)
(6.97553 -0.457593 25.6431)
(8.85802 0.217159 22.269)
(12.3766 -0.0514149 21.473)
(5.98214 1.07477 24.4192)
(6.31638 0.02741 8.00684)
(6.32018 -0.260108 7.78682)
(7.03354 -0.224975 8.54819)
(7.11006 0.0430532 7.81264)
(7.59566 -0.338439 8.26822)
(4.81385 -0.492906 9.852)
(10.7364 -0.0843276 -3.78521)
(10.6101 0.03981 -3.93245)
(10.7161 0.00657533 -3.90311)
(10.5044 -0.0542758 -3.92002)
(10.9802 -0.0317591 -4.24847)
(11.3994 -0.0403569 -2.99115)
(8.77926 -0.0688082 -6.39813)
(8.76368 0.062769 -6.48228)
(8.8326 0.0632927 -6.43164)
(8.96398 -0.0732244 -6.62297)
(9.1985 0.357868 -6.8179)
(8.88814 0.419055 -6.36514)
(7.46132 -0.0277572 -6.48857)
(7.43295 -0.00543391 -6.57194)
(7.47119 0.00362508 -6.56166)
(7.59508 -0.0674392 -6.60385)
(7.77174 0.185698 -6.69281)
(7.57894 0.249841 -6.48156)
(5.88753 -0.0216278 -5.01856)
(5.87308 -0.0396719 -5.09532)
(5.85678 -0.0942685 -5.17542)
(5.96927 -0.145891 -4.97314)
(6.0594 0.121618 -4.85934)
(5.81295 0.213048 -5.1761)
(3.77986 -0.0448762 -2.41184)
(3.80473 -0.0854681 -2.42782)
(3.81005 -0.0493468 -2.53267)
(3.91907 -0.208115 -2.33797)
(4.46222 0.102219 -2.06048)
(3.58609 0.364665 -2.71639)
(1.13867 -0.0503931 -0.961042)
(1.12808 -0.141652 -0.697249)
(1.09652 -0.0277795 -0.491726)
(1.73154 -0.297724 -1.42713)
(3.49713 0.0282275 -1.23864)
(1.06719 0.48442 -1.49263)
(2.73144 -0.0211614 -4.43464)
(2.57998 -0.0839723 -4.25849)
(2.24689 -0.305103 -4.65675)
(3.18378 -0.588483 -4.44053)
(4.92373 0.0509556 -4.06131)
(2.57427 0.371789 -4.65143)
(5.01513 -0.0109457 -6.78608)
(4.85566 -0.100289 -6.63431)
(4.5796 -0.262966 -6.87584)
(5.35871 -0.541049 -6.78394)
(6.9312 -0.0459703 -7.77635)
(4.83777 0.315679 -6.71577)
(4.73147 -0.0225807 -6.02072)
(4.77583 0.0540318 -6.23844)
(4.57073 -0.302912 -6.50034)
(5.09073 -0.758012 -5.31798)
(5.99222 0.00340644 -4.25728)
(4.85651 0.662766 -6.22838)
(2.01682 -0.052604 -1.40485)
(2.24963 0.588376 -1.7567)
(2.15693 -0.0340611 -2.63794)
(1.60515 -0.451084 0.717325)
(-0.116556 -0.02152 9.16691)
(2.22476 0.756422 -2.40405)
(2.22976 -0.300017 27.8255)
(2.6145 0.375434 28.2011)
(2.0628 -0.20238 29.4724)
(3.06216 0.455506 25.8317)
(3.42284 0.103678 28.3454)
(2.01537 0.839142 27.7249)
(-2.91788 -0.0245664 13.864)
(-2.94875 -0.126705 12.6865)
(-2.03419 -0.242176 13.5742)
(-2.69678 0.0742189 11.853)
(-2.05598 -0.324442 12.4789)
(-2.76496 -0.120206 15.2618)
(2.68389 -0.0151112 1.02402)
(2.58609 0.0951241 0.755616)
(3.30833 -0.0460176 0.553544)
(2.40143 0.0518477 0.607602)
(2.23847 -0.0568995 0.801787)
(3.71374 -0.169017 0.912099)
(2.98596 -0.0250288 -3.59919)
(2.91758 0.0912978 -3.72364)
(3.20254 0.0113723 -3.74218)
(2.9329 -0.00514632 -3.83989)
(2.81991 0.194368 -3.79136)
(3.39561 0.125049 -3.72613)
(2.16181 0.00910367 -5.29987)
(2.1326 0.0407611 -5.34576)
(2.21982 0.0201367 -5.32628)
(2.21003 0.0151034 -5.36651)
(2.2077 0.0662795 -5.32903)
(2.36098 0.0443256 -5.38497)
(1.68568 0.00970658 -4.87227)
(1.68214 0.0181057 -4.89205)
(1.69326 0.00111631 -4.8549)
(1.73144 -0.0110379 -4.83534)
(1.73523 0.0356756 -4.80901)
(1.72948 0.0367878 -4.86682)
(0.943086 -0.00845571 -3.65925)
(0.963878 0.00115702 -3.64145)
(0.955297 0.0187361 -3.61023)
(0.969608 -0.00892504 -3.63439)
(0.999362 0.0509789 -3.56418)
(0.953065 0.057476 -3.66713)
(0.237109 -0.0305584 -2.57596)
(0.258826 -0.00494853 -2.55477)
(0.274202 0.00664526 -2.51398)
(0.212838 -0.0968062 -2.52222)
(0.0666828 0.0718148 -2.30961)
(0.316981 0.144081 -2.53693)
(-0.819442 -0.0428853 -0.843625)
(-0.792805 0.0229602 -0.912274)
(-1.24054 0.0165474 -0.802344)
(-0.720415 -0.0779215 -0.954241)
(-0.36415 0.0349736 -0.844694)
(-1.17876 0.0750709 -0.954533)
(2.44146 -0.0237809 -4.35735)
(2.3534 -0.0131818 -4.10031)
(2.4492 0.0460553 -4.4422)
(2.48152 0.0170316 -4.66399)
(3.532 -0.0478398 -4.62987)
(2.6873 -0.0194067 -4.75711)
(4.26542 -0.0233075 -5.96916)
(4.39227 -0.117182 -5.77981)
(4.2543 -0.352295 -6.01785)
(4.94403 -0.773808 -5.6674)
(5.87776 -0.0208432 -5.36159)
(4.37816 0.395826 -5.78442)
(2.87614 -0.0281886 -3.49737)
(2.88428 -0.0811781 -3.50738)
(2.93367 -0.505058 -3.67181)
(2.91654 -0.963891 -3.09689)
(3.27736 0.0739837 -2.70285)
(2.97312 0.796715 -3.34534)
(-0.201633 -0.00185565 10.0792)
(-0.20478 -0.000961108 10.0811)
(-0.20336 0.000426588 10.0803)
(-0.203296 -0.000806257 10.0802)
(-0.204075 0.000339907 10.0806)
(-0.202878 0.000654792 10.0799)
(0.753827 -0.000814375 8.99326)
(0.753268 -0.00039161 8.99449)
(0.753435 0.000278723 8.99386)
(0.753646 -0.000269606 8.99402)
(0.753493 0.000129685 8.99423)
(0.753527 0.000235148 8.99388)
(0.569276 -0.000136005 6.53843)
(0.569331 -6.83148e-05 6.53883)
(0.569283 4.66292e-05 6.53867)
(0.569352 -3.79926e-05 6.53873)
(0.569361 -1.95534e-05 6.53879)
(0.569288 -8.15403e-06 6.53865)
(-0.420282 -4.65144e-05 8.98298)
(-0.429953 -0.000139389 8.98454)
(-0.424393 2.65088e-05 8.98671)
(-0.425864 0.000169386 8.9816)
(-0.428736 -0.000202315 8.98202)
(-0.423682 -0.000197478 8.98342)
(2.61718 -0.000459349 9.05161)
(2.6137 -0.000329312 9.05291)
(2.61553 0.000468736 9.05325)
(2.61542 0.000309486 9.05146)
(2.6143 -6.17888e-05 9.05174)
(2.61576 -1.76215e-05 9.05185)
(1.88006 -0.000234549 6.16749)
(1.87987 -0.000133681 6.16787)
(1.8799 0.000213277 6.16781)
(1.88006 9.71773e-05 6.16759)
(1.87994 -2.59422e-05 6.16762)
(1.87991 -1.05836e-05 6.16748)
(-1.21316 0.000499977 2.64264)
(-1.21551 9.28587e-05 2.64456)
(-1.21393 7.75222e-05 2.64578)
(-1.21505 0.000412 2.64131)
(-1.21625 -0.000581602 2.64214)
(-1.21478 -0.000465968 2.64279)
(3.25617 -7.77427e-05 3.69203)
(3.254 -0.000153066 3.69493)
(3.25527 0.000497026 3.69524)
(3.25499 0.000456663 3.69162)
(3.25406 -0.000193443 3.69266)
(3.2548 -5.49943e-05 3.69215)
(2.71013 -0.000248568 2.57138)
(2.70995 -0.000179425 2.57238)
(2.71011 0.000352369 2.5722)
(2.71001 0.000232104 2.57133)
(2.70988 3.95254e-05 2.57169)
(2.70975 9.68474e-05 2.57117)
(-1.40635 0.00109492 -2.9529)
(-1.41031 0.000493813 -2.95204)
(-1.40819 -0.000113365 -2.95211)
(-1.40803 0.000614711 -2.95351)
(-1.40984 -0.000542979 -2.95318)
(-1.40892 -0.000670463 -2.95268)
(3.18461 0.000402393 -0.845712)
(3.18285 0.000216162 -0.842565)
(3.18385 0.000133417 -0.843271)
(3.18368 0.000345829 -0.845404)
(3.18303 -0.000236579 -0.844176)
(3.18304 -0.000256576 -0.845684)
(2.56079 -7.53562e-05 -1.2542)
(2.56121 -3.30933e-05 -1.25294)
(2.56106 0.000293056 -1.2535)
(2.56086 0.000254854 -1.25386)
(2.56098 0.000148846 -1.25345)
(2.56052 0.000145046 -1.25409)
(-5.59095 0.00135259 -5.14427)
(-5.59534 0.000576882 -5.14411)
(-5.5932 -7.36346e-05 -5.14354)
(-5.59228 0.00135153 -5.14501)
(-5.59369 -0.000160358 -5.14534)
(-5.59285 -0.000856143 -5.14463)
(2.82885 0.000817288 -2.18602)
(2.82837 0.000401817 -2.18134)
(2.82868 -7.73374e-05 -2.18331)
(2.82868 0.000551305 -2.18458)
(2.82859 -0.000256062 -2.18297)
(2.82754 -0.000484723 -2.18522)
(2.13596 4.14194e-05 -2.93409)
(2.13789 5.24053e-05 -2.93204)
(2.13703 0.000139466 -2.93303)
(2.13665 0.000135499 -2.93331)
(2.1371 0.000140242 -2.93285)
(2.1364 0.000120705 -2.9334)
(-7.94226 0.000676195 -5.53604)
(-7.95259 0.00035694 -5.5318)
(-7.94808 -8.32792e-06 -5.5335)
(-7.94483 0.00128448 -5.53531)
(-7.94747 -0.000726165 -5.5354)
(-7.94509 -0.00173011 -5.53493)
(2.34655 0.00073092 -2.16378)
(2.34765 0.000315574 -2.15702)
(2.34751 1.16513e-05 -2.15991)
(2.34726 0.000759669 -2.16152)
(2.34783 -0.000256578 -2.15919)
(2.34477 -0.000629769 -2.16271)
(2.24017 4.20097e-05 -2.71692)
(2.2443 4.69877e-06 -2.71331)
(2.24256 3.71647e-05 -2.71499)
(2.24163 8.39544e-05 -2.71555)
(2.24288 -9.6198e-06 -2.71464)
(2.24121 -4.43242e-05 -2.71553)
(-9.00544 0.000470311 -4.38686)
(-9.02168 0.000384168 -4.37527)
(-9.01442 0.000141373 -4.37999)
(-9.00941 0.00161402 -4.38393)
(-9.01201 -0.00185531 -4.38491)
(-9.01191 -0.0032314 -4.38006)
(0.728639 -0.000327626 -2.7284)
(0.728256 -0.000240122 -2.72271)
(0.729111 0.000546132 -2.72514)
(0.728888 0.000859423 -2.7263)
(0.729544 -0.000338559 -2.72399)
(0.725995 -0.000823228 -2.72919)
(2.24819 -0.000198746 -1.64182)
(2.25509 -0.000169962 -1.63644)
(2.25217 0.000155655 -1.63896)
(2.25055 4.70677e-05 -1.63999)
(2.25304 8.43535e-05 -1.63832)
(2.24858 0.000133582 -1.64035)
(-9.94339 0.00101967 -1.87241)
(-9.95993 0.0006398 -1.85784)
(-9.95296 0.000419995 -1.86386)
(-9.94547 0.00226725 -1.86929)
(-9.94341 -0.00246968 -1.87314)
(-9.9561 -0.00390226 -1.85961)
(-1.26474 -0.00148958 -3.42122)
(-1.26488 -0.000654206 -3.41978)
(-1.2643 0.00150174 -3.42071)
(-1.26448 0.00183205 -3.42058)
(-1.26276 -0.0016653 -3.42076)
(-1.26773 -0.00287543 -3.42145)
(1.27986 -0.000310924 -1.05325)
(1.28441 -0.000170377 -1.04856)
(1.28232 0.000291559 -1.05091)
(1.28145 4.71766e-05 -1.05198)
(1.28318 7.14003e-05 -1.05093)
(1.27894 0.000161215 -1.05257)
(-11.0474 0.000734381 1.21631)
(-11.0632 0.000287281 1.22999)
(-11.0583 0.00103661 1.22377)
(-11.0459 0.00292105 1.21929)
(-11.0375 -0.00310438 1.21392)
(-11.0687 -0.00451071 1.22987)
(-1.98648 -0.00257375 -2.77345)
(-1.98979 -0.000785803 -2.77155)
(-1.98843 0.00327802 -2.77219)
(-1.986 0.00502259 -2.77582)
(-1.98269 -0.00505006 -2.78479)
(-1.99279 -0.00856452 -2.7621)
(0.964161 -0.000363798 0.148855)
(0.965222 -0.000149721 0.151034)
(0.964728 0.000516824 0.149656)
(0.964715 0.000704133 0.14868)
(0.965766 -0.000654188 0.147132)
(0.96315 -0.00106347 0.151193)
(-11.2787 -0.00178976 3.66866)
(-11.2923 -0.00164748 3.67755)
(-11.2913 0.00262792 3.67184)
(-11.2718 0.00400613 3.67406)
(-11.2551 -0.0047261 3.67479)
(-11.3086 -0.00611786 3.67106)
(-2.50532 -0.000179564 1.24641)
(-2.51733 -0.000146645 1.25562)
(-2.5144 -0.000294236 1.25252)
(-2.49818 -0.000927954 1.24218)
(-2.47466 0.00139101 1.22572)
(-2.53997 0.00205376 1.27063)
(0.150743 -0.000710944 2.37915)
(0.150347 -5.54473e-05 2.38022)
(0.150275 0.00110886 2.37959)
(0.150677 0.00238973 2.37879)
(0.15151 -0.00215966 2.37751)
(0.149117 -0.00409413 2.38078)
(-8.7557 0.00689595 3.65894)
(-8.80295 0.00383875 3.65678)
(-8.79188 -0.00626674 3.65383)
(-8.74822 -0.00867356 3.66914)
(-8.69224 0.00968867 3.68774)
(-8.84398 0.0155142 3.63235)
(-5.32205 0.00199736 2.68433)
(-5.32255 0.000291214 2.68116)
(-5.32267 -0.00407917 2.67918)
(-5.31764 -0.0068366 2.69252)
(-5.31154 0.00720168 2.70485)
(-5.3281 0.0116664 2.66406)
(1.77051 7.17609e-05 0.661082)
(1.77212 -4.18862e-05 0.660579)
(1.77184 -0.000902982 0.660328)
(1.76865 -0.00154638 0.665014)
(1.76585 0.00185939 0.670904)
(1.77541 0.00263342 0.653091)
(-3.86078 0.000386293 -1.82077)
(-3.85941 -0.000520052 -1.82515)
(-3.85857 0.000504884 -1.8232)
(-3.86232 0.00135967 -1.82368)
(-3.86381 -0.00231847 -1.82505)
(-3.85709 -0.00220868 -1.82203)
(1.84222 0.00217941 -9.68308)
(1.84263 0.00110921 -9.70971)
(1.84163 -0.00467716 -9.70881)
(1.84389 -0.00748512 -9.66835)
(1.84611 0.00722693 -9.63265)
(1.83791 0.0110967 -9.74653)
(0.632437 0.000865459 -3.48187)
(0.631904 0.000565088 -3.48168)
(0.631911 -0.00210976 -3.47942)
(0.632255 -0.00313616 -3.48279)
(0.632716 0.00339329 -3.48507)
(0.631337 0.00466903 -3.47608)
(2.03184 -0.00151834 0.227544)
(2.03487 -0.00329726 0.22217)
(2.03496 -0.00181388 0.209863)
(1.99736 -0.014671 0.209212)
(1.99446 -0.000183999 0.147144)
(2.01438 0.0166764 0.171546)
(1.81978 -0.00332048 -2.60852)
(1.83841 -0.0129789 -2.62032)
(1.80111 -0.0175707 -2.58793)
(1.80176 -0.00977425 -2.51999)
(1.76429 -0.0227498 -2.39945)
(1.73805 -0.01487 -2.50312)
(1.15694 -0.00459031 -2.15929)
(1.16379 -0.0197762 -2.16557)
(1.1374 -0.0328449 -2.15463)
(1.15041 -0.048237 -2.133)
(1.10453 -0.0252874 -2.14179)
(1.07703 0.00464425 -2.1344)
(1.16804 -0.000153584 -0.26788)
(1.16755 -0.000637434 -0.268121)
(1.16701 0.000271283 -0.267051)
(1.17015 0.00212323 -0.261543)
(1.16864 -0.00159481 -0.246353)
(1.16951 -0.00297352 -0.265264)
(0.349072 -0.00256031 -1.31884)
(0.353885 -0.00917561 -1.32707)
(0.352682 -0.013264 -1.33195)
(0.326289 -0.0180111 -1.29816)
(0.321996 -0.0232157 -1.30764)
(0.375393 -0.00658953 -1.32766)
(0.221903 -0.00310482 -2.36666)
(0.218929 -0.00825456 -2.37522)
(0.208594 -0.0107224 -2.37119)
(0.206567 -0.0150005 -2.33905)
(0.191528 -0.0162072 -2.33209)
(0.173642 -0.00748023 -2.3929)
(0.571002 0.000481403 0.123907)
(0.569603 -8.35598e-05 0.123063)
(0.569789 0.000529181 0.122732)
(0.568752 0.000974417 0.124127)
(0.568473 -0.00275383 0.126232)
(0.569276 -0.00247586 0.119065)
(0.509954 -0.00139135 -1.80514)
(0.50488 -0.00389635 -1.80257)
(0.501094 -0.00607899 -1.80333)
(0.504344 -0.0116748 -1.80365)
(0.497637 0.00818908 -1.80375)
(0.475473 0.0183935 -1.81216)
(-0.118955 -0.00178585 -2.25483)
(-0.119656 -0.0047111 -2.2549)
(-0.123292 -0.00605426 -2.25202)
(-0.124848 -0.0084527 -2.25276)
(-0.128348 -0.00493912 -2.26204)
(-0.139774 6.84492e-05 -2.23155)
(0.0202127 0.000624122 0.252398)
(0.020214 0.000113021 0.251465)
(0.0204056 0.00108975 0.251096)
(0.019466 0.00258439 0.253449)
(0.0193777 -0.00372008 0.256928)
(0.0204149 -0.0044728 0.247645)
(-0.67974 -0.00310756 -1.28955)
(-0.678862 -0.00440571 -1.28742)
(-0.680152 -0.00330104 -1.28832)
(-0.682914 -0.0103623 -1.28008)
(-0.6855 -0.00158879 -1.27988)
(-0.67752 0.00927285 -1.29402)
(-0.559455 -0.00120675 -2.43991)
(-0.560026 -0.00211744 -2.44023)
(-0.562826 -0.00446578 -2.43382)
(-0.561478 -0.0075467 -2.44768)
(-0.560925 0.003554 -2.46175)
(-0.572783 0.00732179 -2.40938)
(-0.343372 0.000311017 0.336876)
(-0.343022 0.000117205 0.335874)
(-0.342637 1.5724e-05 0.335751)
(-0.343488 0.000134925 0.337262)
(-0.343194 -0.00149024 0.339444)
(-0.342571 -0.00127511 0.333665)
(-0.562107 -0.00137561 -2.44005)
(-0.562456 -0.00181725 -2.43823)
(-0.564136 -0.00189619 -2.43647)
(-0.563577 -0.00786607 -2.43997)
(-0.564473 0.00564601 -2.44581)
(-0.567638 0.0139729 -2.43582)
(-1.09736 -0.000846343 -3.13322)
(-1.09724 -0.00105093 -3.1349)
(-1.09978 -0.00192318 -3.12894)
(-1.09682 -0.00365372 -3.14135)
(-1.09352 0.00211708 -3.15347)
(-1.10584 0.00370732 -3.11419)
(-1.64934 1.34263e-05 0.604685)
(-1.64906 -0.000566039 0.603635)
(-1.64782 0.00102222 0.603822)
(-1.65131 0.00199731 0.60432)
(-1.65343 -0.00331567 0.60501)
(-1.6455 -0.00361111 0.60324)
(-3.49328 -0.000734648 -5.02157)
(-3.49381 -0.000841198 -5.02219)
(-3.49528 -0.00156816 -5.02437)
(-3.4907 -0.00522067 -5.01746)
(-3.48571 0.00394076 -5.01638)
(-3.50053 0.00838543 -5.02965)
(-1.54045 -0.000232329 -2.41891)
(-1.54048 -0.000256652 -2.42079)
(-1.54232 -0.00103935 -2.41675)
(-1.53915 -0.00195672 -2.42324)
(-1.53499 0.00171448 -2.43082)
(-1.54766 0.0022879 -2.40872)
(-2.35562 -0.225691 22.3188)
(-2.03588 0.196085 22.301)
(-2.52304 -0.0112964 24.4919)
(-1.89356 0.344822 20.3343)
(-2.5132 -0.197365 21.7766)
(-2.62355 0.554298 22.8142)
(-4.09982 -0.047082 13.7203)
(-3.89156 -0.062666 13.584)
(-4.31928 0.10538 15.2788)
(-3.80895 0.348328 12.6244)
(-3.93622 -0.291053 12.6355)
(-4.38518 0.145917 14.2292)
(-1.98253 0.0434532 8.05139)
(-1.95261 -0.0758699 8.00874)
(-2.09136 0.0787076 8.45646)
(-1.91234 0.220852 7.81631)
(-1.81275 -0.103213 7.74351)
(-1.99899 -0.0759502 8.06999)
(-7.89946 0.051417 15.1439)
(-7.77678 0.0565931 14.0929)
(-7.42725 -0.167018 15.8695)
(-7.65333 0.136759 12.8496)
(-7.96747 -0.54702 13.8845)
(-7.74796 -0.00857287 16.4398)
(-8.96104 0.146001 12.1186)
(-8.80664 -0.01332 11.5576)
(-8.98922 -0.00772031 13.0655)
(-8.62359 0.289051 10.726)
(-8.98526 -0.566317 11.0886)
(-9.09976 -0.190822 12.8558)
(-5.04925 0.0946102 9.09988)
(-4.98395 -0.0412876 8.96204)
(-5.20011 0.0532513 9.44311)
(-4.86442 0.203166 8.72693)
(-4.90512 -0.212861 8.81695)
(-5.12166 -0.150229 9.21287)
(-5.87419 0.0663251 2.36912)
(-5.81261 0.0938304 1.78789)
(-5.39935 -0.111356 2.19014)
(-5.8185 -0.0348014 1.31291)
(-6.25906 -0.137642 1.75285)
(-5.67838 -0.0447668 2.70083)
(-8.86641 0.127088 3.78796)
(-8.77995 0.039348 3.50962)
(-8.84383 -0.0152318 3.98149)
(-8.62169 0.0884914 3.16641)
(-8.93808 -0.285219 3.3706)
(-8.99423 -0.158495 3.99734)
(-5.12184 0.0582605 4.42209)
(-5.08407 -0.00914882 4.37249)