/*--------------------------------*- C++ -*----------------------------------*\
| =========                 |                                                 |
| \\      /  F ield         | OpenFOAM: The Open Source CFD Toolbox           |
|  \\    /   O peration     | Version:  v1612+                                |
|   \\  /    A nd           | Web:      www.OpenFOAM.com                      |
|    \\/     M anipulation  |                                                 |
\*---------------------------------------------------------------------------*/
FoamFile
{
    version     2.0;
    format      ascii;
    class       surfaceScalarField;
    location    "7.4";
    object      phi;
}
// * * * * * * * * * * * * * * * * * * * * * * * * * * * * * * * * * * * * * //

dimensions      [0 3 -1 0 0 0 0];

internalField   nonuniform List<scalar> 
816
(
-1.37411e-06
-1.15722e-05
6.66846e-06
-1.08088e-05
-1.42502e-05
3.13381e-05
4.94519e-06
6.17503e-06
-3.44868e-06
1.01017e-05
-1.91293e-05
-6.83503e-06
1.83679e-06
3.97684e-06
9.31533e-06
-1.98528e-05
-2.57304e-06
9.36917e-06
1.09977e-05
-1.96743e-05
0.000271003
-0.000107207
2.41609e-06
-0.000117234
0.000277052
0.00019651
1.73511e-05
6.88793e-05
4.20529e-05
0.000182746
1.77667e-05
-0.00016239
0.000353491
0.000107848
7.56245e-07
0.000183869
-0.000197811
0.000291695
1.48441e-05
0.00032739
-0.000107642
-0.000111456
1.16132e-06
0.000117924
0.000303526
-1.37904e-05
9.08825e-06
0.000191876
-2.71481e-05
0.00027906
7.03441e-06
0.000163256
-0.000101106
1.79503e-05
1.03752e-05
0.000227286
0.000270491
-7.06575e-05
-5.43368e-06
7.35131e-05
-3.77961e-05
-0.000318754
-2.89747e-06
7.0956e-05
-0.000233946
-4.82079e-07
-0.000127473
-2.96203e-05
1.81392e-05
1.78654e-07
-2.80103e-05
2.92909e-06
8.85845e-06
3.05269e-05
-2.0876e-05
1.7702e-05
5.83574e-06
-2.16916e-06
3.46104e-06
5.20192e-06
3.3395e-05
-8.05995e-06
1.83656e-05
1.3518e-07
-1.33146e-05
8.58822e-06
-3.56373e-06
9.99836e-06
-1.01595e-05
-3.4192e-06
-2.57825e-05
1.4767e-05
2.41638e-05
4.36462e-06
-2.36035e-05
9.69117e-06
1.45629e-05
1.51937e-05
3.43282e-06
-1.01501e-05
2.76862e-06
1.21415e-05
-3.73047e-05
1.66132e-05
3.37045e-05
2.34463e-05
-3.00671e-05
9.25434e-06
3.72869e-06
-5.77144e-06
4.33407e-05
4.21831e-06
-2.15323e-05
-1.94194e-05
4.2466e-06
4.6398e-06
-9.99414e-06
6.5965e-07
-1.37611e-05
1.75623e-06
-1.32829e-05
-8.37348e-06
-3.01426e-06
-6.63056e-07
2.32435e-06
2.00791e-06
-1.34904e-05
2.86815e-06
7.82514e-06
3.56509e-06
-1.70473e-06
-1.84281e-06
3.05241e-07
-3.07655e-06
-1.31523e-05
-1.38655e-06
-9.881e-06
-4.77957e-06
-1.13818e-05
-1.15757e-06
-8.51598e-06
2.23129e-06
6.785e-06
-3.51429e-06
-1.77244e-05
-8.26364e-06
-1.63039e-05
-1.18685e-05
-1.33581e-05
-4.37376e-06
4.28955e-06
1.90477e-05
-2.66778e-06
-9.77766e-06
-1.20645e-06
-3.48575e-06
-1.1102e-06
-6.84707e-06
4.11329e-06
-6.02541e-06
-4.38187e-06
2.41695e-06
4.26155e-06
-1.8571e-06
4.16992e-06
-3.38765e-06
1.31323e-06
2.03651e-06
2.51938e-06
-4.4322e-07
5.48842e-06
4.98994e-06
-5.23804e-06
-6.70972e-07
6.54359e-07
-4.40307e-06
-7.0886e-06
-1.5164e-06
-7.49845e-07
-6.83034e-07
1.667e-06
-6.52996e-06
7.81447e-07
2.52873e-06
2.44974e-06
3.21775e-07
-3.93681e-07
1.04672e-06
-4.21604e-07
-2.6886e-06
-9.19361e-07
-5.92785e-06
-4.0221e-06
-3.66126e-06
-8.35899e-07
-4.0797e-06
-4.59122e-06
4.56727e-06
-9.37619e-08
-1.6389e-06
-5.6799e-06
-1.02475e-05
-4.74879e-06
-6.37786e-06
-3.08159e-06
-3.49145e-06
2.61034e-06
-1.93946e-06
5.98341e-06
-1.10136e-06
-3.30009e-06
-3.49895e-06
-0.000114553
0.000188328
0.00018385
-3.55563e-05
0.000199527
3.14408e-06
-3.90537e-06
9.83222e-05
-2.91426e-07
3.72434e-06
0.000173819
-4.8968e-06
-0.000110539
0.000235973
-7.29115e-06
-0.000342891
-0.000160455
0.000121583
3.16446e-07
-0.000176081
-5.96215e-05
3.42132e-06
-0.000263851
-0.000298234
3.61626e-06
-0.000193588
-3.94151e-05
1.1457e-05
-0.000102229
0.000135003
1.17597e-07
-0.000246615
-0.000166543
-5.61252e-05
-9.69383e-08
-0.000167217
-0.000229621
-1.01996e-06
-0.000262551
1.71436e-05
1.22573e-06
-2.7188e-05
-2.46662e-05
1.15167e-05
-8.79638e-05
4.7321e-05
1.44973e-07
-0.000313722
-0.000265496
-0.000134842
-2.63332e-06
-7.23386e-05
-0.000392492
1.03627e-05
-0.00026204
-0.000261903
-8.22832e-06
-9.95568e-05
-4.64519e-05
-0.000173053
-0.000210993
9.32602e-06
-0.000146709
-0.000151617
-1.26097e-05
-1.02829e-06
1.16432e-05
5.0953e-06
1.22685e-05
-2.34143e-05
3.45544e-06
1.19482e-05
-8.8752e-06
2.17842e-05
5.75808e-06
-7.07222e-06
8.22891e-06
1.26601e-05
4.38934e-05
-2.94393e-05
-3.12374e-05
-4.00267e-06
5.7937e-05
-1.08182e-05
-1.56735e-05
5.16721e-05
-3.53706e-05
-3.71215e-05
7.49919e-05
-4.13223e-05
-2.21139e-05
-9.53375e-06
-1.92361e-06
2.07399e-05
-1.80288e-05
-1.25874e-05
-1.72209e-05
-6.81711e-06
5.26333e-05
-2.40468e-06
-3.04547e-05
5.83607e-05
-2.58366e-05
6.43432e-06
-4.04904e-05
-4.45139e-06
5.68107e-06
4.32811e-05
-1.48467e-05
2.32921e-05
3.63731e-05
-3.68843e-05
-1.65689e-05
-5.44464e-07
4.8048e-05
8.96735e-06
-2.14884e-05
5.52511e-05
-1.8708e-05
-1.27123e-05
7.75745e-06
-1.68449e-05
-6.58612e-06
-2.85511e-06
-1.04556e-05
4.68235e-05
-2.05108e-05
-3.07177e-05
9.76261e-06
-2.26038e-06
5.90599e-06
-2.98758e-06
-2.35211e-06
-1.14433e-05
1.88737e-06
-3.97563e-06
-3.16757e-06
-7.10769e-06
-1.44236e-06
-3.98242e-06
-3.6075e-06
-1.17551e-05
2.04321e-05
1.73804e-05
1.6396e-05
-4.90957e-07
2.59047e-05
7.26032e-06
8.72523e-06
2.26474e-05
2.33771e-05
2.42602e-05
3.34084e-05
2.63549e-05
1.44322e-05
-4.83787e-06
3.73364e-06
-1.56385e-05
-7.57607e-06
9.86674e-06
9.71661e-06
-9.81104e-07
2.33864e-05
4.69365e-06
1.27e-05
2.60383e-05
1.74805e-05
-4.83055e-06
-1.81568e-05
1.98115e-06
-1.53354e-06
1.98087e-05
1.19334e-05
-1.34828e-05
1.6585e-05
2.03944e-05
1.13436e-05
2.81659e-07
2.12371e-05
-3.25759e-06
1.25936e-05
2.50171e-05
1.35554e-05
8.1508e-06
4.0336e-06
5.47255e-06
1.53235e-06
-7.30214e-07
1.05287e-06
2.1346e-05
1.04731e-05
1.4296e-05
6.33872e-06
-1.84787e-06
2.37585e-06
-2.06316e-06
-7.52918e-07
-3.93369e-06
2.57815e-07
-1.99332e-06
1.1706e-06
-4.60433e-06
-2.77972e-07
-1.74851e-06
-2.2809e-06
-6.37401e-06
6.24901e-06
1.05706e-05
9.70945e-06
-6.26509e-07
9.4464e-06
4.16519e-06
4.69488e-06
7.31775e-06
1.24496e-05
1.33633e-05
1.08739e-05
1.48918e-05
7.77476e-06
-1.74439e-06
1.52933e-06
-9.26306e-06
-8.09983e-07
5.20381e-06
5.06415e-06
-7.6084e-07
6.56436e-06
2.39103e-06
6.63976e-06
8.6594e-06
9.13631e-06
-3.9372e-06
-3.99328e-06
9.77889e-07
-1.75059e-06
6.29071e-06
5.65755e-06
-7.29312e-06
4.90878e-06
1.11662e-05
6.06016e-06
2.19868e-07
7.06773e-06
-3.58296e-06
6.97324e-06
8.07464e-06
7.10665e-06
4.19194e-06
2.28811e-06
2.61825e-06
6.32146e-07
-1.92584e-08
-4.66088e-07
5.66121e-06
6.00344e-06
8.50639e-06
2.57776e-07
-3.57617e-06
2.51138e-06
-3.56529e-06
2.19714e-06
1.0035e-06
1.23916e-06
-2.64017e-06
2.35711e-07
1.35544e-06
-2.86298e-08
4.58219e-06
-3.89248e-06
6.59141e-07
1.35796e-06
-2.87417e-06
-7.44161e-07
-3.44658e-07
1.47442e-06
-3.22506e-06
6.33983e-08
1.15716e-06
-4.54537e-07
6.84982e-08
-2.04274e-06
2.63378e-07
-2.69705e-06
-2.08403e-06
5.39353e-07
-3.42988e-06
1.49149e-06
-1.85248e-06
-1.33601e-06
-4.98764e-06
-3.0468e-06
-9.40601e-07
1.14385e-06
-1.77317e-06
-9.40228e-07
-7.64485e-07
2.78883e-06
-6.59489e-07
-6.87955e-07
-7.60997e-07
9.87734e-07
7.08314e-07
-1.0441e-06
4.12689e-07
4.53957e-09
-2.97829e-06
4.26871e-06
5.36365e-06
3.50331e-07
2.891e-06
2.75513e-06
6.07657e-06
7.25144e-06
6.44854e-06
3.84038e-06
1.92549e-06
-3.71039e-06
3.05219e-06
3.68176e-06
-9.68225e-07
1.11544e-06
2.90171e-06
5.32511e-06
-9.79862e-07
1.38202e-06
-7.26613e-08
4.05831e-06
-3.52809e-06
5.38669e-06
2.98892e-06
-2.78811e-07
-1.16065e-06
3.33255e-06
3.49816e-06
3.04119e-06
7.99444e-07
1.34628e-06
9.10592e-07
3.07767e-06
3.28914e-06
7.62045e-05
-0.000253633
2.23111e-06
6.23648e-05
4.9934e-06
0.000208512
-7.25849e-06
-3.36015e-05
-8.1651e-06
-1.55691e-05
-1.01417e-06
-0.000246513
-1.3243e-06
0.000316939
-7.26456e-06
0.000190124
-4.14749e-06
9.44182e-05
8.83917e-06
0.000128531
-5.22184e-06
2.57929e-05
1.30772e-06
0.000203329
1.11686e-05
1.93614e-05
-2.85936e-07
-1.20133e-05
-1.45368e-07
-0.0001324
5.61449e-07
-9.06262e-05
-7.5342e-06
1.77302e-05
-3.01622e-06
8.66884e-05
9.72601e-06
-6.23143e-05
-5.54763e-06
-0.000154173
2.9327e-06
0.000159929
4.62299e-07
-1.47502e-05
-3.52559e-06
-0.000115117
-0.000174645
-0.000173241
0.000161905
-0.000316212
2.37962e-05
-0.000125816
6.24416e-06
-0.000188103
2.8282e-06
-5.49153e-06
1.74524e-05
-2.28845e-05
-8.99604e-06
1.46091e-05
1.36654e-05
2.72787e-05
-2.06101e-05
6.41126e-07
3.56986e-05
-1.96964e-05
2.85055e-05
-3.0082e-05
-2.07623e-05
2.06102e-05
-6.45544e-05
1.08238e-05
-2.43022e-05
-1.84885e-05
2.70081e-05
-9.77391e-06
-5.21352e-05
1.2935e-05
-6.90673e-05
2.14185e-05
-1.21984e-05
1.05632e-05
-1.2379e-05
-1.4628e-05
1.84686e-05
-6.05402e-06
-2.64725e-05
-1.18251e-05
-9.56424e-06
-9.69582e-06
-3.2893e-05
-3.63904e-07
-4.24531e-06
-8.22976e-06
-1.46345e-05
-1.15832e-05
-3.03194e-05
3.59274e-05
-4.66511e-05
1.50145e-05
4.33071e-07
-9.60482e-06
2.91963e-05
-6.38569e-06
-3.16406e-05
-1.2081e-05
1.70589e-07
-1.3547e-05
5.56445e-06
-1.1683e-05
-2.89257e-05
-3.43371e-05
-6.04026e-06
1.21466e-05
-4.63924e-06
-1.6137e-06
6.26918e-06
-1.11684e-05
-9.15784e-06
5.67788e-07
1.68514e-05
1.38067e-05
1.16809e-05
2.02607e-05
-9.83837e-06
-1.5062e-05
-2.92386e-05
-1.04395e-05
-1.25513e-05
1.27862e-05
1.1056e-05
5.96674e-06
-2.19436e-05
-6.62123e-06
-3.01362e-05
-8.4098e-06
-6.67237e-06
-5.67584e-06
-5.25167e-06
4.91509e-06
7.87406e-06
8.86606e-07
-1.27263e-05
2.13187e-07
-4.20448e-06
-3.78541e-07
-1.48257e-05
-1.25654e-07
-2.5175e-06
3.55117e-06
-6.38071e-06
6.74333e-06
-1.31027e-05
-1.87072e-05
-2.11943e-05
-6.74368e-06
-1.76602e-07
3.7282e-06
1.54555e-05
-2.95087e-07
-1.40855e-05
4.46129e-06
8.48251e-07
8.72265e-06
2.37071e-06
7.94734e-06
-1.38185e-05
-1.42349e-05
-2.6312e-06
5.67522e-06
-1.65222e-06
-5.28516e-07
2.13131e-06
-5.56305e-06
-3.84778e-06
1.60362e-06
5.08433e-06
9.05498e-06
1.93632e-06
1.12617e-05
-1.48765e-06
-8.59701e-06
-9.37358e-06
-6.44192e-06
-5.00552e-06
6.14872e-06
2.61157e-06
3.73623e-06
-7.10196e-06
-3.57025e-06
-7.9815e-06
-5.19518e-06
-3.51814e-06
-3.5652e-06
-1.68007e-06
3.31057e-06
9.95193e-07
2.75548e-07
-4.63196e-06
-4.3127e-07
-1.11302e-06
-1.07299e-06
-5.05238e-06
-8.41145e-07
-1.76575e-06
1.70745e-06
-3.2567e-06
3.711e-06
-3.9283e-06
-1.04655e-05
-7.01125e-06
-4.57975e-06
8.71952e-09
3.41379e-06
3.87446e-06
3.1396e-07
-3.7862e-06
2.46628e-06
1.30495e-06
5.14929e-06
-7.77921e-07
3.35402e-06
-3.49278e-06
-5.19115e-06
-1.62444e-06
3.06847e-06
-1.63172e-07
-3.01637e-06
1.03009e-06
2.96762e-06
5.72216e-06
-3.65646e-06
-3.29774e-06
2.21296e-06
1.19478e-06
-3.42127e-07
-1.93782e-06
-5.67635e-07
4.25204e-07
-5.38111e-07
-5.36208e-07
-2.63111e-07
-6.41997e-07
1.69285e-07
1.64421e-06
-5.36068e-06
-2.3424e-06
3.46898e-07
5.97673e-08
2.16638e-06
2.30501e-06
2.12004e-06
-4.63283e-06
0.000225178
2.63222e-07
1.51751e-05
1.69668e-05
7.63849e-05
1.35638e-05
1.02053e-05
3.01517e-06
1.70481e-05
-9.94306e-06
1.61293e-05
)
;

boundaryField
{
    top_fluid_surface
    {
        type            calculated;
        value           nonuniform List<scalar> 
64
(
-0.000326002
-7.85659e-05
-0.000157564
5.03676e-05
-0.000419539
-2.06414e-05
-0.000276277
-0.000363758
-0.000255105
6.10701e-05
0.000415384
-0.000277736
-9.88851e-05
-0.00048721
0.000170992
-0.000136791
0.000469216
0.000609271
0.000628038
0.000757992
-4.66511e-05
0.000190523
0.000666608
0.000630399
-5.79784e-05
0.000334481
0.0005041
0.000521428
0.000554908
7.33816e-05
-9.09457e-06
0.000309316
2.33454e-05
-4.1364e-05
-0.000121577
0.000275566
-0.000127996
-0.000103538
-0.000540517
-2.7812e-05
-9.13349e-05
-0.000276778
-0.00010382
-0.000292421
-9.39654e-05
4.47623e-05
-4.75676e-05
-0.000178505
-0.00036204
-0.000116439
7.78901e-05
-0.000232368
-0.000318203
-9.34363e-05
9.9873e-06
-5.85826e-05
-0.000100541
-0.000361169
-0.000109508
-0.0003915
-0.000178919
-0.000208735
-1.20835e-05
-5.0824e-05
)
;
    }
    bottom_fluid_surface
    {
        type            calculated;
        value           uniform 0;
    }
    lateral_surface_1
    {
        type            calculated;
        value           uniform 0;
    }
    lateral_surface_2
    {
        type            calculated;
        value           uniform 0;
    }
    lateral_surface_3
    {
        type            calculated;
        value           uniform 0;
    }
    lateral_surface_4
    {
        type            calculated;
        value           uniform 0;
    }
}


// ************************************************************************* //
