/*--------------------------------*- C++ -*----------------------------------*\
| =========                 |                                                 |
| \\      /  F ield         | OpenFOAM: The Open Source CFD Toolbox           |
|  \\    /   O peration     | Version:  v1612+                                |
|   \\  /    A nd           | Web:      www.OpenFOAM.com                      |
|    \\/     M anipulation  |                                                 |
\*---------------------------------------------------------------------------*/
FoamFile
{
    version     2.0;
    format      ascii;
    class       surfaceScalarField;
    location    "8.35";
    object      alphaPhi;
}
// * * * * * * * * * * * * * * * * * * * * * * * * * * * * * * * * * * * * * //

dimensions      [0 3 -1 0 0 0 0];

internalField   nonuniform List<scalar> 
2916
(
-0.00183583
0.281384
-0.309987
0.00240252
0.271876
-0.307575
0.0113489
0.26598
-0.307304
0.00497816
0.286257
-0.309547
-0.00900345
0.300355
-0.315075
0.265672
-0.306988
-0.00176726
0.494861
-0.183433
-0.00240267
0.486995
-0.186566
-0.00378618
0.48326
-0.188236
-0.00391529
0.496193
-0.181088
-0.00052293
0.5058
-0.179408
0.480136
-0.187613
0.00239364
0.588234
-0.0695016
-0.000718315
0.584863
-0.0686399
-0.00651161
0.584011
-0.0685376
-0.00311965
0.588324
-0.0694353
0.00651731
0.591952
-0.0698005
0.582013
-0.069034
0.00181156
0.561478
0.0249464
-9.71708e-05
0.559328
0.0274456
-0.00346121
0.55976
0.0276171
-0.00126473
0.561002
0.0251274
0.00422211
0.562584
0.0238829
0.559019
0.0272178
-5.84951e-05
0.499144
0.0623928
-2.88516e-05
0.494638
0.0646614
-0.000896206
0.496108
0.0645199
-0.000570403
0.49765
0.0630266
0.000356353
0.499409
0.0622486
0.49536
0.0640158
-0.000653157
0.4341
0.0656984
0.00014282
0.427767
0.0660751
0.000954298
0.429423
0.0658748
-0.000263125
0.432395
0.0664729
-0.00238333
0.434664
0.0668658
0.42817
0.0648069
0.000694592
0.287314
0.0703373
5.57527e-05
0.282915
0.068728
4.29368e-05
0.284366
0.068844
-0.000278602
0.285783
0.0702635
0.00053436
0.285345
0.0714071
0.284236
0.0684956
-0.000184528
0.152004
0.11784
3.38028e-05
0.153561
0.113959
0.000353108
0.153806
0.114496
0.000127147
0.15255
0.116805
6.88283e-05
0.148869
0.119871
0.15559
0.113456
-0.000936416
-0.0257058
0.128681
0.00115193
-0.0257631
0.126058
0.00218309
-0.0250308
0.126323
0.00264728
-0.0264105
0.127904
0.000290331
-0.0296692
0.137702
-0.0250167
0.129087
2.32058e-05
-0.0926977
0.0466316
0.0011557
-0.0988729
0.050176
0.00149401
-0.0978266
0.0504797
0.0019669
-0.094352
0.0469884
0.00100527
-0.0932609
0.0450313
-0.10137
0.0539059
0.00124236
-0.0490774
-0.0319721
0.000727823
-0.0595833
-0.0264302
0.000557238
-0.0589846
-0.0263671
0.00101611
-0.0504837
-0.031213
-0.000122698
-0.0452728
-0.0334934
-0.0643562
-0.0245503
0.00934504
-0.0359078
-0.00266842
-0.0312951
-0.0136348
-0.0315461
-0.00449198
-0.0362857
0.014215
-0.0379357
-0.0333922
-0.00310452
0.268683
-0.222084
-0.000747524
0.267327
-0.226556
-0.00503294
0.266288
-0.224176
-0.00255224
0.269543
-0.223518
0.00247241
0.274227
-0.225547
0.264119
-0.222171
-0.0200689
0.44606
-0.0173168
-5.97087e-05
0.446011
-0.0276583
0.0358882
0.443509
-0.0319176
0.0127498
0.44897
-0.0137399
-0.0315669
0.460708
-0.00727714
0.438533
-0.030066
-0.00830724
0.699837
-0.0464528
-0.00024798
0.699976
-0.0491531
0.0125314
0.699538
-0.0500388
0.00382505
0.7014
-0.0457973
-0.0113625
0.707462
-0.0428366
0.69268
-0.0495248
-0.000127874
0.97243
-0.0332624
0.000250714
0.970376
-0.031351
-0.00011075
0.971423
-0.031093
7.25045e-05
0.972463
-0.0330731
0.000466036
0.975812
-0.0327504
0.966837
-0.0327944
0.00203096
1.15734
-0.0482692
0.000715515
1.15483
-0.0459304
-0.00322853
1.155
-0.0443813
-0.000220033
1.15764
-0.0485471
0.00508845
1.1607
-0.048938
1.15296
-0.0466271
0.00254412
1.2973
-0.0701013
0.000781992
1.3002
-0.0702223
-0.0015989
1.29803
-0.0682208
0.000267099
1.2994
-0.0702222
0.00362446
1.30058
-0.0694518
1.29851
-0.0701087
0.0058647
1.20784
-0.0910996
0.000253406
1.22675
-0.0872599
-0.00374756
1.21873
-0.086952
-0.00115709
1.21659
-0.0902999
0.00431869
1.21535
-0.0916073
1.21975
-0.0860821
0.00560698
0.556255
-0.067467
-0.000104589
0.548012
-0.0642939
-0.00589654
0.542348
-0.0635429
-0.000104963
0.558071
-0.0694508
0.00806346
0.645148
-0.0706593
0.551507
-0.0562778
-0.000783116
0.432911
0.0108732
0.000471183
0.407211
0.0072013
0.000120231
0.411582
0.00820783
-0.000311723
0.432518
0.0104892
-0.000505075
0.441742
0.0110454
0.381985
0.00762578
-0.0115884
0.409562
-0.00493859
0.00173489
0.400018
-0.00361151
0.00953401
0.401059
-0.00419455
-0.00324
0.410372
-0.00499445
-0.0173867
0.420449
-0.00426083
0.390131
-0.00342854
-0.00295089
0.17735
-0.016325
-0.000845181
0.187194
-0.0181542
0.000734561
0.185131
-0.0180142
-0.000856457
0.176623
-0.0163693
-0.00324544
0.17425
-0.0156289
0.189855
-0.0191039
0.00869598
-0.018494
-0.00395072
-0.0266993
-0.0164013
-0.0266323
-0.00418198
-0.0173543
0.014986
-0.0144218
-0.027996
0.0037541
0.0174211
-0.00024408
-0.00264827
0.0278365
-0.000133784
-0.0119965
0.0321585
-0.000109869
-0.00511169
0.0136996
-0.000266681
0.00848318
0.00726199
-0.000404931
0.0302922
-0.000115716
5.2562e-06
0.000130715
-6.3254e-05
4.83495e-05
0.00025285
-0.000129217
0.000168238
0.000318728
-0.000191735
5.47966e-05
0.000119356
-5.43243e-05
4.72937e-07
6.55572e-05
-2.82487e-05
0.000362403
-0.000131759
-0.000201165
0.0174094
-3.52781e-08
1.75366e-05
0.0190443
-1.04824e-08
0.000748972
0.0191557
-4.75513e-06
0.000687934
0.0180064
-1.104e-08
0.00121644
0.0164954
-2.81122e-08
0.0223391
-5.01388e-07
-0.000490606
0.124875
-6.06333e-12
-0.000322767
0.128905
-2.85763e-10
0.000727052
0.12893
-7.27331e-08
0.000835094
0.125875
-2.51536e-10
0.00125643
0.122912
-7.25335e-10
0.137021
-1.32475e-08
-0.000672849
0.439431
-1.63366e-09
-0.000600696
0.444813
-7.3576e-10
-0.000218852
0.443324
-5.01515e-09
-0.000507764
0.440654
-2.38095e-09
-0.000247786
0.436944
-5.04912e-09
0.452497
-7.93836e-10
-0.00379128
0.681238
-9.18532e-06
4.09089e-06
0.673993
-8.69427e-06
0.00433562
0.676385
-8.16839e-06
-0.000373935
0.67766
-9.7674e-06
-0.00764805
0.680071
-1.14257e-05
0.671476
-7.74367e-06
9.25666e-05
0.823098
-4.55286e-06
0.000151175
0.81255
-6.38639e-06
0.00291487
0.815769
-5.55001e-06
-0.00133408
0.821605
-4.70591e-06
-0.00801909
0.827486
-5.4947e-06
0.799347
-5.10425e-06
0.0122746
0.876635
-9.03169e-08
-0.000209743
0.913596
-4.15691e-07
-0.00795918
0.90475
-2.35893e-07
0.00338688
0.879944
-8.03139e-08
0.0157656
0.887807
-2.46964e-07
0.901532
-1.26422e-07
-0.0048903
0.474608
-0.00970278
0.00095039
0.549611
-0.0263818
0.00819383
0.523276
-0.0235733
0.00944047
0.482058
-0.0112434
-0.000288594
0.500909
-0.0135415
0.539189
-0.0237735
-0.0183915
0.0259659
-0.0106787
0.00146436
0.0270136
0.00160355
0.0161066
0.0246162
-0.00121605
-0.000488731
0.0266858
-0.0111665
-0.0267922
0.0305528
-0.0128485
0.0256144
0.00521755
-0.00140722
-0.0100542
-0.0066688
-0.000638525
-0.00783601
-0.0128824
0.00110784
-0.00800655
-0.0114432
-0.000110303
-0.0109908
-0.00676249
-0.00117388
-0.0121171
-0.00559277
-0.00680889
-0.0150092
-0.000576216
-0.00123032
-1.08323e-05
-0.00130025
0.000332459
-0.00132236
-0.000784813
-0.00109234
-0.00171789
-0.000874088
-0.00119438
1.70506e-06
-6.02752e-06
-0.000242932
-6.10222e-08
-8.23995e-07
-0.00013935
-3.7582e-06
1.11285e-08
-0.000100106
-1.65082e-06
-4.25146e-06
-0.000260255
3.98946e-06
-6.03295e-06
-0.000397878
1.21549e-07
-0.000107749
5.37782e-07
3.49443e-08
-0.000140577
6.93067e-07
6.28646e-10
-0.000139847
6.33116e-07
2.0689e-07
-0.000190557
1.03992e-06
3.34738e-09
-9.0714e-05
3.62894e-07
1.0422e-08
-5.33036e-05
5.16079e-07
-0.000131869
-4.01452e-11
8.65711e-12
-3.10424e-10
-5.66731e-09
2.40687e-10
-4.5066e-09
4.14271e-09
7.72964e-08
-4.63449e-06
5.94633e-12
2.08893e-10
-3.74109e-09
-6.30155e-10
4.79605e-10
-1.75208e-08
1.41121e-08
-4.65562e-11
-5.26418e-13
8.85799e-13
-2.67504e-12
-6.2878e-11
1.77603e-11
-1.01697e-13
-2.63309e-13
4.50182e-09
-5.77701e-13
-4.22776e-13
3.06839e-11
-5.81341e-11
-6.85358e-13
6.44686e-11
-2.98698e-10
8.70088e-10
-8.26676e-12
-1.45536e-12
1.85361e-10
-1.82304e-09
-1.9304e-12
9.74784e-11
-3.48315e-10
2.88568e-12
5.63991e-10
-7.68418e-12
-2.50256e-13
3.00679e-10
-2.44225e-09
-1.10991e-12
6.45543e-10
-5.6079e-09
1.14684e-10
-1.97374e-11
-2.40485e-08
1.29648e-06
-1.04572e-05
2.00313e-10
1.18314e-06
-9.9004e-06
2.44349e-08
1.10122e-06
-9.29088e-06
2.98969e-09
1.36392e-06
-1.11092e-05
-3.32712e-08
1.71957e-06
-1.31077e-05
9.87434e-07
-8.76333e-06
-5.22902e-09
1.23625e-06
-4.72958e-06
1.92203e-09
1.60682e-06
-7.06758e-06
2.10034e-08
1.42468e-06
-6.14709e-06
5.13506e-10
1.29964e-06
-4.87832e-06
-3.38885e-08
1.49941e-06
-5.50788e-06
1.33674e-06
-5.74261e-06
3.16874e-08
5.54885e-07
7.44998e-08
-1.18288e-09
6.94414e-07
4.51488e-08
-1.88466e-08
6.46964e-07
5.99479e-08
5.11872e-09
6.08042e-07
7.41495e-08
4.15857e-08
6.41058e-07
5.96992e-08
6.79374e-07
5.98463e-08
0.00147544
0.030338
0.000310845
-5.15116e-05
0.0245222
0.000345845
-0.00116033
0.0258124
0.000350688
0.000497403
0.0293249
0.000422399
0.00282149
0.0270438
0.000228106
0.0227906
0.000222607
-0.000921424
0.00234202
-9.64502e-06
6.86477e-05
0.00979471
0.000155072
0.00103039
0.00720895
-2.02912e-05
0.000659045
0.00291684
-2.63457e-05
-3.08615e-06
0.00222032
2.27036e-05
0.0135358
0.000248852
-0.000579087
-0.00460022
0.000136101
5.6384e-05
-0.00438694
7.00479e-05
0.000550511
-0.00544153
8.97774e-05
-1.15563e-05
-0.0042242
0.000193986
-0.000902977
-0.00362068
0.000336229
-0.00284728
-2.8799e-05
-0.000917133
-0.00825449
0.000205498
-0.00861085
0.000263334
-0.00875172
-0.000661451
-0.00791307
-0.00232619
-0.00743813
-0.00795557
0.00580022
0.0620253
-0.0688761
-0.0148774
0.0318309
-0.0121537
0.0224895
0.0331946
-0.0715417
0.0192134
0.0317351
-0.0285063
0.00158848
0.0168021
0.000817981
0.0520285
-0.0515582
0.0179319
0.114799
-0.0717055
0.00247438
0.0473174
-0.000993669
0.0614702
0.0200727
-0.0468415
0.0582444
0.037437
-0.00349154
-0.000649435
0.056592
0.0180315
0.107537
-0.0572587
0.0567373
0.104359
-0.0472549
0.0687821
0.034927
-0.000595591
0.0552005
0.014786
0.00284316
-0.0043164
0.0737224
0.0221976
-0.0380039
0.0776558
0.0115404
0.113714
-0.0452982
0.0959173
0.024122
-0.0165626
0.0450017
-0.0184588
0.0302809
0.0197959
-0.0121475
0.0473816
-0.00149166
0.0137729
0.0577207
-0.0156948
0.00821508
0.0339796
0.0321595
0.00120496
0.0132429
-0.0536947
0.0233276
0.0121984
-0.0532362
0.0406192
0.00777661
-0.0537769
0.01921
0.014992
-0.0563039
0.0398058
0.000816431
-0.0291804
0.0521316
-0.0205502
0.0436415
0.00428709
-0.0744506
0.0217125
0.000924609
-0.0724385
0.0152415
-0.0088263
-0.0710438
0.0136471
-0.0216955
-0.0793466
0.0170593
-0.0041291
-0.0881168
0.0210999
-0.0519598
0.0189016
0.00543251
-0.0882652
0.00858481
0.00404233
-0.0849181
0.00608829
0.00354931
-0.062458
0.00748706
-0.00514094
-0.0130184
0.0106967
-0.00377731
-0.0446863
0.00802769
-0.0664175
0.00367508
0.000195309
-0.08813
-0.000127725
0.00353425
-0.0925505
-0.00246663
0.00727187
-0.0638334
0.0020637
-0.00267699
-0.0104242
0.00550359
-0.00790376
-0.0368094
0.00589708
-0.0653461
-0.00188594
-0.0155682
-0.0590396
0.00140464
0.002087
-0.0925352
-0.00349955
0.00114328
-0.0614317
-0.00120783
-7.59375e-05
-0.0125091
0.00430783
-0.010753
-0.0290093
0.00196781
-0.0622877
-5.91148e-05
-0.00964798
-0.0370503
0.0038276
-0.0148589
-0.066746
-0.00718004
-0.0150693
-0.0546835
-0.000367467
-0.0072498
-0.0257384
0.000501154
-0.00596997
-0.0229424
-0.00118852
-0.0536853
-0.000809932
-0.000748748
-0.0190147
-0.0093915
-0.00697087
-0.0231534
-0.00146661
-0.0223181
-0.0311891
-0.000998062
-0.0136052
-0.0296476
-0.00731487
0.011264
-0.0233522
-0.0157928
-0.0274799
-0.00117902
-0.00133641
-0.00713665
-0.000469418
-0.00918957
-0.00557126
-0.00995338
-0.00158778
-0.0208885
0.010893
-0.0221737
-0.00282454
0.00425676
0.0615751
-0.135721
-0.0294892
0.0660203
-0.0454785
0.00117557
0.0658594
-0.169074
0.0283521
0.0484236
-0.104896
0.00283926
0.0409605
-0.0156641
0.0658062
-0.115575
-0.0168976
0.116577
-0.100881
-0.0160247
0.112
-0.0488596
0.0188282
0.0800583
-0.0968521
0.0362553
0.0694713
-0.0430003
0.0120751
0.109045
-0.0269939
0.138417
-0.118966
0.00815127
0.15906
-0.0987803
0.0279001
0.143155
-0.0524259
0.0183144
0.0388183
-0.0330681
-0.0338317
0.120469
0.0225092
-0.0163909
0.136054
-0.0337691
0.144304
-0.0689318
0.0353111
0.178243
-0.0719307
0.0134808
0.0696411
0.00687
0.0078458
0.00763996
0.0784603
-0.0519879
0.023279
0.0897317
-0.0227115
0.142148
-0.00275675
0.146442
-0.0256352
0.0285788
0.0726582
-0.0336989
0.0022941
0.00992723
0.0435347
-0.0164392
0.0168411
0.0335107
-0.020888
0.00609101
0.0437876
-0.00781928
-0.00206997
0.0559888
-0.00187283
0.0530953
0.0150769
-0.00221543
0.00260437
0.00458673
0.00462377
0.00891046
-0.00847222
0.00111943
-0.000710334
-0.0074713
-0.00502434
0.000686957
0.00379589
-0.00781213
-0.000268212
0.00121828
0.000255152
0.00131753
0.000387111
-9.64532e-05
-0.000751394
0.00265507
6.35472e-05
-0.00417001
0.00028578
-0.000245999
-0.000948488
-0.00786331
-2.42099e-05
0.00264532
-0.00957906
-0.000191214
0.00100709
-7.12804e-06
0.000439377
-0.00199649
-4.70941e-05
0.000138216
0.000252003
8.64637e-08
9.47432e-05
0.00032628
-2.30955e-05
0.000206352
-0.00705736
0.00265616
0.00103303
-0.00356976
-5.25066e-05
0.000118355
-1.48126e-05
0.00973755
-0.0143323
-3.07996e-05
0.00127695
-2.63741e-06
-3.79725e-05
0.000191201
0.000214651
-2.39904e-05
0.000495405
-0.00122801
1.39686e-05
-1.23361e-05
-0.000329916
-6.74192e-06
1.24765e-05
-2.10454e-05
0.00370515
-0.0087166
-0.000527906
0.000179727
-0.000212133
8.40892e-05
1.14055e-05
2.25408e-06
1.26176e-05
-3.86304e-05
-3.11669e-05
-8.90311e-05
-0.0006049
-0.000385902
-0.000448927
-0.00201324
-0.000334831
-0.000874426
-0.00802247
-0.000433897
-2.53586e-05
-0.00451229
-7.44663e-06
-1.86494e-05
-0.000759604
-0.00021766
1.21084e-05
-0.000350005
-0.00702696
0.000609958
-0.000503793
-0.0162396
-0.00214315
-0.000730458
0.00144239
-0.01317
4.81979e-05
-0.0136021
5.57742e-05
-0.0141557
-2.82576e-05
-0.0216503
-0.00217436
-0.0205185
-0.00788766
-0.0266304
0.014098
-7.53924e-05
-0.0466926
0.0242599
-0.00314479
-0.0490805
0.00912222
-0.0848358
0.0155711
0.0207467
-0.167794
0.048724
0.0341377
-0.0838941
0.0234713
-0.0509095
-0.0445217
0.0205566
-6.62512e-06
-0.0149008
0.0467643
-1.91687e-05
-0.0129538
0.045567
-2.1627e-05
0.0766365
0.0720564
-0.0012461
0.0971234
0.110834
-0.0985105
0.0496784
-0.025272
-0.0303884
0.0550583
-1.34972e-05
-0.00869779
0.12575
-0.000112041
0.044522
0.12675
-0.00486711
0.0805929
0.113021
-0.060744
0.0796088
0.160509
-0.0834187
0.0746422
-0.00554072
-0.0303416
0.105119
-0.0058401
0.0170307
0.0923738
-0.0679715
0.0479363
0.0817134
0.0215938
0.0324211
0.0875572
0.021183
0.0721035
0.162779
-0.0463267
0.0699974
0.00104855
0.00199524
0.0893894
-0.0148635
0.014238
0.083836
-0.00186974
-0.000740329
0.00317717
0.0350331
-0.012494
0.00277009
0.0439687
0.00503661
0.00404136
0.029903
0.0308713
0.0178478
0.00364133
0.000350239
-0.000757051
0.00226996
0.000735399
0.0101313
-0.000387242
0.000945265
0.00336164
-0.000658074
0.000514481
0.00256732
-0.000350031
0.000227305
0.0029883
0.000164444
0.00337223
-6.20819e-05
8.4762e-05
9.86595e-05
-0.000171437
0.000126747
0.000539874
-0.00010041
9.83318e-05
0.000239427
-3.70299e-06
9.15377e-05
1.35354e-05
3.51595e-05
2.92531e-05
8.30413e-05
9.02131e-05
5.06043e-05
-2.24114e-05
5.47532e-05
5.52074e-06
-1.64822e-05
6.19144e-05
3.11536e-05
-0.000487129
9.27873e-05
1.13383e-05
-9.9949e-06
-2.29491e-05
1.1576e-05
1.23271e-05
-1.10225e-05
-7.96779e-06
4.32718e-05
1.12441e-05
-1.46052e-06
2.31551e-05
4.93681e-07
9.77625e-07
1.58871e-05
1.43491e-07
-1.0673e-05
2.59281e-05
2.74409e-06
-1.31983e-05
4.53567e-07
-2.78131e-06
2.93582e-08
-1.4462e-05
5.12228e-07
-0.000124374
0.000187362
-3.41844e-07
7.84447e-05
1.61129e-06
2.48773e-06
9.44415e-05
2.51934e-06
1.33916e-06
3.71402e-05
2.23388e-06
1.31966e-05
-0.000133452
3.23828e-05
0.000164236
4.66399e-05
-6.65364e-05
0.000106287
-4.30723e-05
-0.000424554
6.00101e-05
1.05589e-05
-0.000107437
-0.000811116
0.0008318
0.000798746
-0.00133391
0.000860515
0.00181733
-0.00300814
-0.00323451
0.000795704
-0.00504323
-0.00943061
5.43188e-05
5.24983e-05
0.00377002
-0.0134347
0.00628745
-0.0131424
0.00499921
-0.0137676
-0.00033948
-0.0181472
-0.00615559
-0.0184274
-0.0115149
-7.58056e-05
6.41787e-07
-4.06339e-07
-0.00323561
1.49888e-05
-2.67269e-09
-0.0104797
7.72304e-09
-6.90089e-05
-0.00504059
0.000722643
-4.00464e-07
0.0225155
0.00468094
-3.17027e-06
0.00197627
-3.44726e-06
-2.68654e-07
3.12529e-07
-5.48765e-06
-1.81209e-07
2.76473e-07
-3.85731e-06
-2.19739e-05
3.73935e-07
-3.52108e-07
-0.000590141
4.52462e-05
-6.93062e-07
0.00355997
0.00262391
-3.87878e-05
0.00445944
-4.51324e-05
-1.60094e-06
4.20858e-07
-1.06011e-05
-9.20587e-05
3.7638e-06
-2.45405e-05
-0.00542098
0.000471107
-9.61147e-06
0.013708
0.0588598
-1.092e-05
0.0159117
0.0251864
-0.000105403
0.00683544
6.99869e-05
-0.00593438
0.000180243
-8.37155e-05
-0.00212261
0.0339453
-0.00042126
0.0275617
0.0757721
-4.37735e-06
0.0686754
0.118362
-0.0473579
-0.00179893
0.03994
-8.77921e-05
0.00180265
4.09541e-05
-0.0141172
0.000670865
-0.000223093
-0.0053213
0.0761437
-0.0197117
0.012914
0.098983
0.0266595
0.0113379
0.00336305
0.0293948
0.00225582
0.0281154
0.00223098
0.008962
0.000330452
-0.00701905
0.00274143
0.000261562
-0.00754823
0.00628671
0.00469948
-0.000533599
0.000445861
0.0165754
-1.94901e-06
0.000241858
0.00489302
1.27029e-05
2.56186e-05
0.00661129
0.000144395
0.00144178
-0.000802033
-7.14576e-05
0.000580003
-0.000324341
0.000134001
0.00135281
-6.4977e-05
-7.96553e-07
0.000367231
-1.62845e-05
6.54104e-06
0.00013531
3.64275e-06
-3.24372e-05
0.000148282
-3.90241e-06
0.000103659
-8.29403e-05
2.35876e-06
1.28148e-05
-2.36892e-05
6.44462e-06
9.05542e-05
-2.33881e-05
-6.69664e-07
8.57913e-06
-9.35109e-06
2.04097e-07
-4.00533e-09
-1.37555e-05
-7.10411e-06
9.73519e-06
-8.87174e-05
5.62591e-05
-1.79229e-06
1.80865e-06
6.87682e-07
-9.84044e-07
3.3084e-06
2.3411e-06
-3.07854e-07
1.32614e-06
1.11262e-07
-4.0787e-06
1.29711e-08
7.37741e-07
-8.99117e-05
5.82421e-06
-1.75966e-07
-7.58361e-05
1.71298e-05
2.021e-07
2.41054e-06
6.17281e-07
-2.64747e-08
5.19372e-06
5.46308e-07
-8.51169e-07
3.44516e-06
6.32698e-07
-1.61532e-06
3.16123e-05
1.16701e-06
2.70508e-06
-5.91907e-05
-5.22349e-06
2.59013e-05
-1.92417e-05
9.03024e-07
1.82483e-05
-5.45728e-06
2.65032e-05
0.000795013
1.61934e-05
7.27767e-05
0.000783136
3.42231e-05
0.00113114
-0.00323557
-1.13015e-05
-4.41344e-06
-0.00804389
-0.00063124
8.72976e-05
-1.03126e-05
0.00234957
-0.0156679
0.00548945
-0.0137435
0.00829732
-0.0142627
0.00339411
-0.0151202
-0.00590279
-0.015815
-0.0156547
1.95161e-05
6.69428e-05
-0.000401494
9.40136e-06
0.000100525
-0.000225659
-1.08767e-05
8.58728e-05
-0.000183079
-6.34889e-06
7.51892e-05
-0.000315377
3.05996e-05
-3.65989e-06
-0.00030767
0.000142003
-0.000187049
-9.74464e-06
0.000415299
-0.00011491
8.11298e-06
0.000280847
-0.000152811
3.49954e-05
0.000173509
-0.000123878
1.2521e-05
0.000418754
-9.04716e-05
-5.34682e-05
0.000382291
-8.87064e-05
0.000469624
-0.000307958
-6.25709e-05
-2.30385e-17
1.9827e-06
-1.05786e-17
8.95863e-05
-7.36634e-18
3.82452e-05
-2.33094e-17
-5.8051e-05
-5.86755e-17
-8.7167e-18
-1.00628e-05
-0.00025387
-9.17307e-09
3.28991e-06
-0.000197362
-1.30728e-07
1.89283e-05
-0.000160869
-3.39237e-05
6.04866e-07
-0.000100142
-1.08812e-07
-2.49436e-05
-0.000160549
-4.82481e-07
-0.000129481
-1.57117e-09
-6.83726e-06
-1.26921e-17
1.02954e-08
-4.96369e-06
-7.37783e-18
-3.64211e-10
1.3809e-05
-9.9331e-18
-4.85951e-09
2.89897e-06
-3.31375e-18
1.18769e-07
-1.46665e-05
-1.83655e-17
5.41093e-07
-4.01954e-18
-3.58121e-08
-1.53659e-20
-3.57152e-17
-2.06993e-20
-1.79511e-17
2.08699e-20
-1.7341e-17
1.52369e-20
-2.66176e-17
-3.22343e-20
-7.69936e-17
-1.27685e-17
-5.46303e-12
-9.51008e-09
2.9025e-12
-1.35223e-07
-1.78629e-11
-2.78468e-15
-4.98632e-10
-2.43059e-10
-3.31723e-12
-1.50714e-09
-1.11561e-07
-8.02652e-11
8.22993e-12
-5.00981e-07
-5.29773e-10
-1.60968e-09
-8.94699e-13
3.83515e-10
-3.85303e-14
4.68943e-10
1.37825e-13
-3.49991e-15
1.37809e-12
-5.10528e-09
-1.58745e-14
1.21223e-12
7.67754e-10
-4.9737e-14
1.2892e-09
3.73723e-08
-1.24743e-13
3.46533e-09
-2.8846e-15
-4.94355e-11
1.94388e-17
-3.7927e-14
4.04965e-18
-3.38347e-15
-1.40928e-18
-1.58862e-14
2.27964e-17
-4.9801e-14
1.236e-16
-1.24934e-13
-2.74387e-15
1.15693e-14
-5.10071e-11
5.1508e-11
-3.07365e-15
-2.31219e-13
1.71086e-14
-1.83161e-12
-1.92144e-12
4.98322e-14
-4.11104e-12
-3.60996e-10
1.61393e-10
6.39798e-12
-1.39719e-09
3.84109e-10
-6.30528e-12
1.41351e-12
6.70491e-13
-6.78526e-12
4.22287e-10
-3.73054e-15
-1.25845e-12
2.00218e-12
-3.94236e-12
-1.23183e-12
3.42492e-12
-4.13826e-12
-6.62361e-12
9.32974e-10
6.30412e-11
-1.35333e-11
2.02478e-09
-9.92075e-13
9.91113e-12
4.50312e-15
-6.26868e-12
-9.6547e-16
-1.66854e-12
2.75127e-15
-1.72946e-12
1.02702e-15
-7.15181e-12
-7.65658e-16
-1.40497e-11
-9.97361e-13
-3.29225e-12
-3.20431e-08
3.02479e-08
-1.78694e-14
-5.96364e-09
5.61226e-09
-5.82033e-12
-1.2157e-10
1.20291e-10
-2.85773e-11
-4.20149e-08
4.00772e-08
-2.78359e-13
-9.63767e-08
9.11469e-08
-2.25441e-10
2.04695e-10
4.83542e-10
-4.49869e-09
-2.8081e-08
-2.60626e-13
-2.27933e-09
-3.19954e-09
-8.78907e-10
-8.42601e-10
1.60246e-09
-5.30885e-10
-4.88283e-09
-3.22143e-08
3.04448e-09
-8.72601e-09
-8.88739e-08
-3.83002e-10
3.20992e-09
1.40431e-11
-4.52004e-09
-8.92503e-13
-2.26663e-09
-1.31549e-11
-8.32286e-10
-1.07727e-12
-4.90752e-09
9.47423e-11
-8.8448e-09
-2.89437e-10
-2.03856e-07
-1.51363e-05
5.00321e-06
9.26568e-08
-1.39285e-05
4.92336e-06
5.31399e-07
-1.27252e-05
4.47503e-06
5.12192e-08
-1.59191e-05
5.10455e-06
-1.05643e-06
-2.09778e-05
6.56963e-06
-1.10097e-05
3.68701e-06
1.66343e-07
-1.95978e-06
-5.17807e-06
1.03849e-08
-1.43962e-06
-6.56401e-06
-7.71726e-08
-1.09764e-06
-6.15568e-06
1.819e-07
-2.04516e-06
-5.63891e-06
2.7579e-07
-3.38175e-06
-1.0732e-05
-7.54553e-07
-4.12965e-06
3.79196e-09
-1.96824e-06
-3.9463e-10
-1.4378e-06
-5.02153e-09
-1.09405e-06
1.72524e-09
-2.05695e-06
2.85041e-08
-3.41772e-06
-7.26359e-07
3.32111e-07
-2.0337e-05
1.3284e-05
2.54424e-07
-2.55526e-05
1.65276e-05
4.84263e-07
-2.43584e-05
1.44401e-05
-1.26003e-08
-2.09582e-05
1.45125e-05
-1.1395e-06
-2.77119e-05
1.75559e-05
-2.24762e-05
1.16785e-05
3.22498e-06
-2.63187e-05
-3.97664e-06
3.16121e-07
-2.30502e-05
-6.16854e-06
-1.82425e-07
-2.20935e-05
-7.46995e-06
5.37377e-07
-2.6564e-05
-1.88358e-06
5.61284e-07
-1.88827e-05
-1.35104e-05
-1.51298e-05
-5.38755e-06
2.88933e-07
-1.26133e-05
-4.31642e-08
-9.99244e-06
-1.79354e-07
-9.37684e-06
1.3294e-07
-1.31768e-05
9.24031e-07
-1.6873e-05
-6.06763e-06
8.8339e-08
6.90225e-07
1.20921e-05
4.76279e-09
8.06768e-07
1.5357e-05
-3.1557e-08
6.20482e-07
1.33997e-05
9.42184e-09
7.65785e-07
1.32631e-05
8.51043e-08
9.82297e-07
1.60301e-05
3.42876e-07
1.09663e-05
2.25659e-06
2.96504e-05
-3.76637e-05
5.47384e-08
1.69867e-05
-8.8395e-06
-5.38721e-07
1.65225e-05
-1.25291e-05
8.0798e-07
3.06517e-05
-3.19982e-05
9.37342e-07
3.34116e-05
-3.22267e-05
6.02381e-06
-3.75895e-06
8.07378e-07
-1.90728e-05
-1.09703e-07
-9.87419e-06
-3.35812e-07
-9.07077e-06
2.74156e-07
-1.66608e-05
2.07622e-07
-1.68077e-05
-5.88544e-06
6.11001e-05
4.05749e-05
0.000220007
-6.59592e-06
9.8159e-06
0.000418279
-5.90504e-05
1.20759e-06
0.000414527
4.22679e-05
4.21427e-05
0.000291068
0.000137243
-2.24348e-05
0.000170669
-1.61822e-05
0.000386258
2.93125e-06
5.72558e-05
-7.52453e-05
-7.6075e-07
3.79817e-05
-3.68206e-05
-2.303e-06
3.50384e-05
-5.02885e-05
2.65542e-06
6.10008e-05
-6.75337e-05
4.56231e-06
2.03645e-05
-6.5252e-05
1.73058e-05
-2.34085e-05
4.59037e-07
-2.82926e-05
-1.55149e-07
-1.99002e-05
-3.34343e-07
-2.02152e-05
2.60001e-07
-2.89712e-05
1.10514e-07
-2.78333e-05
-1.27922e-05
-0.000103689
0.00015635
-3.3677e-05
1.23413e-05
0.000139258
0.000211394
9.98336e-05
0.000142064
2.96077e-05
5.3758e-05
0.000157499
-2.52825e-05
-2.75079e-05
0.000138005
-3.02521e-05
0.000105903
0.000414385
-4.92786e-06
0.000114989
-9.36794e-05
2.23278e-07
9.58008e-05
-4.69494e-05
4.22499e-06
9.40728e-05
-5.73657e-05
1.29862e-06
0.000120888
-9.44305e-05
-3.62729e-06
0.000128041
-0.000115275
8.09857e-05
-2.59292e-05
-1.90582e-07
-3.40873e-06
1.78696e-08
-2.21859e-06
1.16863e-07
-2.36773e-06
-2.55198e-07
-3.66928e-06
-8.64963e-07
-4.45962e-06
-1.63592e-06
-9.71022e-05
0.000456778
-0.000619019
4.14842e-06
0.00036308
-0.000461284
4.18656e-05
0.000365877
-0.000573584
-4.85696e-05
0.000474593
-0.000592814
-0.000124194
0.000557178
-0.000534138
0.000310007
-0.000273282
-2.01262e-05
2.90451e-05
5.75295e-05
-1.3163e-08
2.09354e-05
4.29542e-05
3.14711e-06
2.09504e-05
4.04596e-05
-2.03873e-05
3.24761e-05
6.4244e-05
-4.19373e-05
4.0859e-05
6.37553e-05
1.99159e-05
3.5362e-05
-2.62697e-07
1.65238e-06
-1.3027e-08
1.10787e-06
-2.48651e-08
1.05279e-06
-4.4695e-07
1.90534e-06
-5.24714e-07
2.4103e-06
9.73113e-07
5.98572e-05
-5.70155e-05
-0.0152
6.09747e-05
-4.26361e-05
-0.0150107
-0.000520479
-4.02805e-05
-0.0150855
-0.000413705
-6.35171e-05
-0.0152601
-0.000453588
-2.37671e-06
-0.0153728
-1.83969e-06
-0.0148645
2.27983e-08
-8.37244e-08
5.66463e-07
-1.32213e-08
-8.09295e-08
4.3216e-07
-1.31295e-07
-1.05404e-07
4.04665e-07
-7.19598e-08
-9.97032e-09
6.61601e-07
-2.25623e-08
-1.66368e-08
7.20908e-07
-1.69984e-08
4.23012e-07
1.44696e-09
2.25235e-08
-2.67345e-09
1.37372e-08
-1.43958e-08
1.32775e-08
-1.74707e-08
2.97457e-08
-3.53176e-09
5.64268e-08
1.86703e-08
0.00116726
-1.27183e-08
-0.0104452
0.0141431
0.000731157
-1.55527e-08
-0.010356
0.0152989
-0.000122091
-6.80894e-08
-0.00975127
0.0149682
-0.000570358
-2.82515e-08
-0.0101084
0.0150629
-0.000794735
-4.00647e-09
-0.0103911
0.0151728
-6.79161e-11
-0.010257
0.0140379
-5.46517e-12
-5.19217e-09
-2.84628e-14
-7.52088e-09
-1.18712e-10
-4.09105e-09
-1.82461e-14
-1.13488e-08
-7.05889e-11
-1.78343e-08
-2.07073e-14
-5.03045e-08
-5.56647e-12
-1.32913e-09
1.00598e-11
-2.70002e-08
-4.86352e-14
-3.2575e-11
5.66132e-12
-3.98605e-09
-5.54422e-13
1.62761e-14
-6.74341e-11
2.7733e-11
7.03157e-12
-5.22694e-09
2.38077e-10
7.50403e-12
-4.30887e-09
1.82416e-09
4.85033e-11
-1.94685e-08
2.84022e-11
-5.68678e-12
-2.55356e-09
-9.88534e-15
1.01607e-14
-8.2564e-12
1.6894e-16
7.93312e-14
-0.000169891
-6.8148e-12
-0.00518575
-0.00023899
-7.20194e-12
-0.00517788
-2.08871e-05
-4.15334e-11
-0.00517647
-1.55489e-05
-1.14427e-11
-0.00523333
-9.58535e-05
-5.5003e-12
-0.00523647
-1.62687e-14
-0.00517901
-9.04871e-15
-6.85474e-12
-9.43574e-15
-7.2721e-14
-7.1541e-12
-3.37247e-16
-1.75399e-14
-4.16067e-11
-2.35372e-16
-4.97312e-15
-1.59107e-12
-2.70923e-16
5.93866e-16
-4.098e-14
-2.40887e-16
-2.04062e-17
-1.30928e-16
1.34257e-13
1.40845e-28
4.25961e-13
1.41094e-28
6.08081e-12
1.53503e-28
1.46483e-14
2.41368e-28
2.05988e-16
5.55228e-28
2.27282e-28
-2.30204e-05
-7.63422e-15
-0.000201035
4.29399e-06
-5.87908e-14
-0.000240138
5.86659e-05
-4.85506e-14
-0.00025351
2.72769e-05
-7.06137e-14
-0.000226909
-2.87096e-05
-7.39042e-14
-0.000214244
-4.31123e-14
-0.000238901
-3.55138e-17
7.20374e-28
-7.6974e-14
-6.07119e-17
7.06694e-28
-5.91028e-14
-1.13818e-16
7.66788e-28
-4.87328e-14
-9.77218e-17
6.82645e-28
-7.09008e-14
-3.11495e-17
1.17967e-27
-7.42116e-14
4.50991e-28
-4.32744e-14
-5.58184e-29
-6.45337e-29
-9.91151e-29
-5.7528e-29
-1.38019e-28
-4.71868e-29
-9.16157e-29
1.74469e-30
-6.46677e-29
7.15343e-29
6.33078e-29
-7.36813e-05
-1.5388e-11
0.00455865
-0.000101917
-1.23284e-11
0.00454212
-0.000104201
-1.11283e-11
0.00455287
-0.000100202
-1.75359e-11
0.00457291
-9.01872e-05
-1.9373e-11
0.00457499
-1.13964e-11
0.00453159
-6.24454e-15
7.09011e-28
-1.54587e-11
-8.07724e-15
7.97471e-28
-1.23857e-11
-1.26285e-14
8.68565e-28
-1.11725e-11
-1.09294e-14
8.24245e-28
-1.76085e-11
-3.04981e-15
9.4655e-28
-1.94551e-11
6.23847e-28
-1.14427e-11
-2.23415e-29
-2.02679e-28
-5.25001e-29
-2.2367e-28
-7.79386e-29
-2.27188e-28
-7.75774e-29
-1.82203e-28
-5.08976e-29
-1.79159e-28
-1.12597e-28
-7.42201e-05
-4.31182e-09
0.0105478
-0.00011654
-3.40496e-09
0.0104653
-0.000121341
-3.16249e-09
0.0105107
-0.000108239
-5.23732e-09
0.0106126
-8.4576e-05
-5.89291e-09
0.0107197
-3.44554e-09
0.0104209
-1.0128e-12
-4.72607e-11
-4.27869e-09
-1.05633e-12
-3.04462e-11
-3.38659e-09
-2.36834e-12
-3.00322e-11
-3.14196e-09
-2.54727e-12
-6.07324e-11
-5.19372e-09
-7.12179e-13
-7.4905e-11
-5.83887e-09
-3.34254e-11
-3.42402e-09
2.98503e-13
-4.75591e-11
2.03215e-13
-3.03516e-11
1.66662e-13
-2.99962e-11
4.88692e-13
-6.1055e-11
3.47818e-13
-7.47649e-11
-3.30783e-11
-8.47909e-05
-5.72888e-07
1.29374e-05
-4.34732e-07
0.000110063
-4.07619e-07
2.67226e-05
-6.69505e-07
-0.000109701
-7.31386e-07
-4.25719e-07
-6.45442e-11
-1.06341e-08
-7.5716e-11
-5.93573e-09
-2.12863e-10
-5.93111e-09
-1.30081e-10
-1.32078e-08
2.80582e-11
-1.64774e-08
-6.10307e-09
1.85726e-11
-7.27912e-12
-7.73838e-11
-6.14658e-11
3.47095e-12
1.93415e-08
-1.53595e-06
4.98738e-07
5.67818e-09
-2.21964e-08
2.1059e-09
2.97406e-07
-6.93284e-05
-3.30298e-09
-1.3134e-08
-1.91095e-07
-5.57651e-09
-1.04565e-08
-3.3131e-06
-4.22536e-08
-3.69957e-06
3.94681e-08
5.37928e-07
-1.57942e-14
-5.54008e-06
7.40035e-07
-3.06272e-08
-2.24757e-07
6.00239e-07
-1.78623e-08
-9.95575e-07
-4.34413e-07
-1.4735e-10
-1.31072e-08
-2.06401e-06
-2.86645e-11
-2.31684e-06
-3.47339e-09
-5.50378e-06
4.38438e-17
-1.5838e-14
-2.54614e-12
-8.62248e-15
-2.0404e-11
-1.71527e-08
-8.37551e-14
-1.6767e-10
-1.58641e-11
-1.28841e-11
-3.48926e-09
4.11032e-06
-5.3603e-05
2.91413e-05
3.2089e-07
-1.06959e-05
1.16513e-06
3.24577e-08
-1.67577e-07
2.13872e-08
-1.0585e-07
-7.22405e-07
-2.03418e-08
-2.99935e-07
-3.78844e-05
-9.06449e-07
-4.59348e-05
4.36954e-07
9.42613e-06
-8.96379e-12
-2.76237e-05
1.09565e-06
-7.8941e-11
-1.0895e-06
-1.74436e-08
-1.67702e-07
-4.44899e-08
2.65689e-07
-1.24057e-07
-1.0495e-06
-9.23018e-06
-9.71515e-09
-1.26742e-05
-1.11157e-06
-2.36963e-05
1.64915e-14
-8.99612e-12
2.41801e-14
-7.89573e-11
-1.10149e-08
-7.57341e-08
-4.52281e-11
-2.2195e-09
-3.867e-09
-5.90627e-09
-1.11893e-06
4.12065e-05
-4.3164e-05
6.65413e-05
9.13777e-06
-3.47129e-05
4.58769e-06
2.04581e-07
-1.07893e-06
2.68923e-07
-8.7996e-07
-1.01833e-05
1.72593e-07
-6.809e-05
-3.75358e-05
-1.17271e-06
-2.86768e-06