/*--------------------------------*- C++ -*----------------------------------*\
| =========                 |                                                 |
| \\      /  F ield         | OpenFOAM: The Open Source CFD Toolbox           |
|  \\    /   O peration     | Version:  v1612+                                |
|   \\  /    A nd           | Web:      www.OpenFOAM.com                      |
|    \\/     M anipulation  |                                                 |
\*---------------------------------------------------------------------------*/
FoamFile
{
    version     2.0;
    format      ascii;
    class       volScalarField;
    location    "8.35";
    object      alpha.water;
}
// * * * * * * * * * * * * * * * * * * * * * * * * * * * * * * * * * * * * * //

dimensions      [0 0 0 0 0 0 0];

internalField   nonuniform List<scalar> 
1116
(
0.739905
0.739356
0.740132
0.739212
0.738809
0.740374
0.817867
0.817713
0.817766
0.817725
0.817868
0.817687
0.964672
0.964676
0.964497
0.964772
0.964967
0.964443
0.974092
0.974092
0.974092
0.974092
0.974092
0.974092
0.974093
0.974093
0.974093
0.974093
0.974093
0.974093
0.974093
0.974093
0.974093
0.974093
0.974093
0.974093
0.912582
0.911594
0.912021
0.912061
0.911184
0.913022
0.82907
0.828177
0.828975
0.827923
0.828126
0.829365
0.784925
0.783691
0.784214
0.784638
0.786042
0.78438
0.750124
0.748601
0.748659
0.750546
0.751849
0.748102
0.717539
0.715529
0.715289
0.718198
0.719259
0.714682
0.667608
0.669043
0.668891
0.667236
0.666163
0.669682
0.573162
0.577233
0.578681
0.572472
0.569212
0.577314
0.518801
0.511564
0.506513
0.520105
0.526806
0.506573
0.619826
0.617394
0.614805
0.621044
0.624295
0.615353
0.818397
0.819823
0.820148
0.818372
0.817493
0.821299
0.953611
0.953901
0.95479
0.953171
0.952584
0.95528
0.962905
0.962494
0.963025
0.962605
0.962903
0.962798
0.918566
0.921131
0.920554
0.919312
0.91895
0.919763
0.61255
0.62411
0.621313
0.617771
0.61569
0.630335
0.247222
0.242339
0.242578
0.247125
0.247147
0.239276
0.248162
0.232771
0.235218
0.247849
0.254054
0.222491
0.217989
0.219688
0.219401
0.217104
0.216832
0.216064
0.0984362
0.108654
0.108463
0.0968378
0.0933332
0.111055
0.034774
0.0365846
0.0374507
0.0338672
0.0321045
0.0363879
5.35529e-06
2.35857e-06
1.26197e-06
3.07111e-06
2.52433e-06
8.47993e-07
0.0112362
0.00978238
0.00945062
0.01116
0.0113998
0.00947617
0.0559659
0.0543417
0.0545062
0.0559529
0.0561783
0.0553887
0.163242
0.163071
0.163563
0.163351
0.162557
0.167236
0.265497
0.266678
0.266426
0.265954
0.2644
0.2695
0.271266
0.269123
0.270818
0.269934
0.269274
0.270552
0.301181
0.29612
0.299535
0.297717
0.297187
0.29792
0.26085
0.270343
0.268705
0.259594
0.259598
0.27261
0.074197
0.0833871
0.0795594
0.0744224
0.0773797
0.0839161
0.0213846
0.019199
0.0188463
0.0220468
0.0231752
0.0189802
0.0194244
0.0138215
0.0140211
0.020442
0.0232661
0.0130511
3.22087e-06
2.16606e-06
1.26197e-06
2.53886e-06
2.17259e-06
8.47993e-07
6.19946e-06
8.5976e-07
7.71685e-08
2.66227e-06
2.22896e-06
1.31508e-08
2.60663e-13
2.68027e-12
7.5463e-11
9.058e-12
1.39582e-11
1.59476e-11
1.50265e-13
3.98676e-14
7.3287e-14
4.70531e-12
5.70217e-12
2.34635e-12
2.60663e-13
2.68027e-12
1.184e-12
5.65964e-12
1.24011e-11
4.18874e-12
1.52914e-11
1.07587e-11
4.78963e-11
2.92324e-11
6.1945e-11
1.24011e-11
3.64594e-08
3.93469e-08
3.87896e-08
3.8485e-08
3.97966e-08
3.9092e-08
7.28789e-08
7.28452e-08
7.48687e-08
7.71902e-08
7.69402e-08
7.74607e-08
0.00702014
0.00247088
0.00348569
0.00631325
0.00615305
0.00188698
0.00214998
0.00348099
0.00350899
0.00193225
0.00102149
0.00388843
0.000210956
0.000196471
0.00019879
0.00021067
0.000226196
0.000176004
0.00495551
0.00633876
0.00636019
0.00462975
0.00384701
0.0065376
0.0945997
0.0946143
0.0946247
0.0925677
0.0925646
0.0945626
0.0946143
0.0946247
0.0946559
0.0946249
0.0946039
0.0945826
0.0946007
0.0946149
0.0844001
0.0946118
0.0945863
0.0945704
0.094582
0.0678439
0.0275195
0.0602013
0.0754801
0.0907203
0.0756994
0.047444
0.0596204
0.0600985
0.0292843
0.0303223
0.0498096
0.0557164
0.0580086
0.0595023
0.0584748
0.0520201
0.0550555
0.0514176
0.0338199
0.0237145
0.0384135
0.0518589
0.0550555
0.0496496
0.0334791
0.00346796
0.0120743
0.0407507
0.0524794
0.0523516
0.0360423
0.00532424
0.0140534
0.0434991
0.0198231
0.0522142
0.0344774
0.0180673
0.0158721
0.0437484
0.0198586
0.0213794
0.0344133
0.035009
0.029685
0.0437484
0.0217044
0.0120583
0.0277303
0.0430385
0.0437008
0.0437484
0.0945904
0.0946003
0.0946522
0.0945678
0.0945582
0.0945535
0.0941497
0.0946397
0.0946709
0.0946333
0.0945843
0.0945905
0.0945826
0.0946016
0.0789843
0.0945795
0.0945878
0.0946121
0.0945651
0.0746994
0.0265521
0.0513362
0.0946248
0.0947967
0.0830027
0.0310081
0.0257536
0.0315766
0.0281788
0.0384568
0.0159925
0.0114625
0.012561
0.00896507
0.0106125
0.0120719
0.00132403
0.00156944
0.00190057
0.00302828
0.003028
0.000805051
0.00027268
3.29868e-05
0.000293607
0.00354964
0.00276905
1.98773e-05
0.00922244
0.00164008
5.18559e-06
0.00220327
0.000642869
2.05782e-05
0.0114981
6.69356e-05
6.10421e-07
0.000445454
0.000131965
0.0019374
0.00559905
0.000185439
5.18574e-06
1.55715e-05
6.45335e-05
0.00549714
0.00956038
0.00309938
0.000501345
8.55654e-05
0.000224428
0.00681218
0.0579406
0.0744258
0.0820239
0.0939054
0.094544
0.0876613
0.0206489
0.0483187
0.0367184
0.0672676
0.0938764
0.0571184
0.0247352
0.059317
0.0759158
0.0945576
0.0946189
0.0350525
0.0463533
0.0725451
0.0717692
0.0877391
0.0945225
0.0343855
0.046826
0.0600371
0.0138686
0.0201527
0.0424725
0.0292811
0.0131591
0.00859311
0.000125308
0.000103458
8.70967e-05
0.00290856
2.88704e-05
3.28647e-05
4.00422e-05
5.47877e-05
2.65113e-05
1.98773e-05
9.19702e-06
4.03648e-06
5.89048e-05
0.000482366
1.24015e-05
1.733e-05
6.45347e-07
1.44356e-06
6.7513e-06
2.617e-06
3.73472e-05
0.000255509
2.86144e-05
2.89993e-07
2.22708e-07
5.77337e-07
0.000125827
0.000469016
7.54622e-07
0.000741343
0.000521924
0.00233292
0.00313361
5.05634e-06
0.0010935
0.00446768
0.00522678
0.00722845
0.00688661
0.00213383
2.20794e-08
5.23315e-09
0.0012157
0.0145004
0.0211776
0.00475555
1.59823e-07
1.42977e-07
3.23875e-08
1.89776e-08
0.00182609
0.00383729
2.8072e-07
2.75971e-07
1.31398e-07
0.00950216
0.00984882
0.0037703
3.06006e-07
0.00577839
0.0283931
0.0610845
0.0186226
0.000286275
7.06072e-05
0.028015
0.029502
0.029013
0.01784
0.0053669
0.00191632
0.0173726
0.00434778
4.52928e-05
0.00243401
0.0018153
0.000474339
0.000149698
6.53932e-06
1.17946e-05
1.24015e-05
2.18437e-05
6.45053e-07
1.41794e-06
5.44798e-07
6.58211e-07
1.09161e-05
6.33316e-05
2.97984e-07
2.82742e-07
2.92387e-07
1.39034e-07
4.63042e-05
0.000213109
2.8999e-07
2.07188e-07
1.90962e-07
1.86234e-07
7.39199e-07
4.08812e-05
5.55845e-07
2.90107e-07
2.22298e-07
0.000907818
0.00147074
1.66611e-06
0.00751524
0.00695886
0.00801988
0.00808855
0.00808855
0.00747078
0.000235806
0.00012198
8.74119e-05
0.000233292
0.000278824
0.000114954
0.000315947
0.000140223
8.78147e-05
0.000305516
0.000305517
0.000179687
0.000315316
0.000227688
0.000178486
0.00030395
0.000304666
0.00030304
0.000161429
0.000139268
0.000138679
8.67785e-05
6.57731e-05
0.000126925
0.000107564
7.56848e-05
0.000105364
3.53716e-05
9.01579e-05
0.000114736
1.87385e-30
1.24169e-30
1.08357e-30
2.07809e-30
4.61742e-30
6.01984e-31
5.38233e-13
2.01364e-14
1.03237e-06
8.83523e-12
1.47754e-11
1.17322e-12
-1.23808e-12
-1.25477e-15
2.57208e-17
-2.7437e-12
-6.57792e-12
4.7735e-17
-1.63477e-18
9.33126e-18
6.61121e-20
-4.49923e-19
-1.06402e-18
4.66124e-18
3.98715e-14
3.98676e-14
3.98676e-14
5.07235e-12
5.08607e-11
2.1768e-12
3.25725e-14
1.99437e-14
3.84184e-14
3.11886e-13
1.03448e-12
7.97281e-14
-1.8028e-14
4.2106e-15
6.34279e-15
-1.41086e-14
-2.59377e-14
2.21694e-18
5.57825e-13
3.98676e-14
7.3287e-14
1.184e-12
4.14621e-12
2.34635e-12
8.80954e-12
3.84158e-14
3.24487e-13
1.63268e-11
3.05594e-11
1.98127e-12
-1.12982e-13
-1.35518e-14
-1.57766e-14
-7.40654e-14
-2.5403e-13
-7.76086e-15
2.4073e-06
2.11643e-06
1.95677e-06
2.56563e-06
3.19481e-06
1.78533e-06
3.54933e-06
3.09071e-06
2.78694e-06
3.74579e-06
5.30053e-06
2.40045e-06
-8.57903e-12
-4.04077e-12
-1.54872e-13
-1.04253e-11
-2.72798e-11
-8.64051e-15
2.5506e-06
3.33446e-06
2.91835e-06
2.52506e-06
3.18893e-06
2.73199e-06
1.50553e-05
1.48147e-05
1.52719e-05
1.55399e-05
1.53291e-05
9.3718e-06
2.31994e-06
1.68166e-06
1.138e-06
2.31208e-06
3.49674e-06
7.82041e-07
7.27693e-08
7.538e-08
7.70576e-08
7.70882e-08
7.79131e-08
7.78144e-08
1.4852e-05
8.82449e-06
9.21709e-06
1.52472e-05
1.43802e-05
4.96076e-06
9.51015e-06
7.77461e-06
7.25618e-06
9.35038e-06
9.14809e-06
4.89554e-06
1.37486e-07
1.63452e-07
1.51686e-07
1.49213e-07
1.64514e-07
1.36099e-07
9.51824e-06
7.312e-06
7.28628e-06
9.09952e-06
8.41921e-06
4.42254e-06
1.00268e-05
8.3496e-06
7.92832e-06
1.03265e-05
6.87917e-06
5.20265e-06
3.80821e-05
3.52483e-05
3.66605e-05
3.7062e-05
3.71692e-05
3.19094e-05
1.05773e-05
8.80729e-06
8.82106e-06
1.10011e-05
1.23724e-05
7.63239e-06
6.22128e-06
4.7373e-06
4.6638e-06
6.77959e-06
8.14442e-06
4.46578e-06
8.41367e-05
6.50165e-05
6.552e-05
8.47841e-05
8.7283e-05
5.55116e-05
7.41474e-05
5.33807e-05
5.41255e-05
7.68301e-05
9.08253e-05
4.4425e-05
2.01267e-06
1.14348e-06
1.20356e-06
2.35165e-06
2.9249e-06
1.21393e-06
0.00915462
0.00906835
0.00910179
0.00916096
0.00929498
0.00897353
8.41371e-09
6.40083e-09
5.99801e-09
9.83133e-09
1.12973e-06
6.17106e-07
2.66509e-07
1.28846e-07
1.27799e-07
3.2214e-07
4.18513e-07
1.24047e-07
0.0288143
0.0285307
0.0280931
0.028187
0.0281134
0.0279917
8.6522e-14
7.93714e-14
4.57966e-13
1.63305e-13
8.11778e-14
2.8335e-16
-1.96967e-15
-6.09137e-15
-2.36379e-14
2.8026e-10
1.05924e-13
3.58593e-14
0.0307025
0.0304051
0.0301737
0.029964
0.029959
0.0300862
2.39543e-14
8.77502e-16
7.24536e-16
1.05386e-15
2.54741e-16
2.86093e-17
-9.09088e-17
-1.97131e-16
-2.58566e-14
2.56719e-14
1.5358e-17
5.10723e-17
0.0310925
0.0310656
0.0310141
0.0309753
0.030938
0.0309164
4.78879e-14
3.46594e-28
2.78689e-28
4.10586e-28
4.29898e-28
2.56222e-28
-4.27266e-27
-4.02744e-27
-4.38655e-27
-3.98704e-27
-6.96384e-27
-2.75495e-27
0.0303661
0.0303786
0.0303508
0.0302988
0.0302334
0.0302835
8.75971e-26
6.94056e-26
6.22001e-26
9.79692e-26
1.08083e-25
6.2911e-26
-3.46415e-27
-3.84411e-27
-4.21596e-27
-4.00243e-27
-4.59179e-27
-3.0414e-27
0.0289934
0.0290553
0.0290422
0.0289065
0.0287808
0.0289402
2.29609e-13
1.83946e-13
1.66033e-13
2.6163e-13
2.89034e-13
1.70019e-13
-1.53419e-17
-3.29704e-18
-4.8702e-18
-1.67996e-17
1.0382e-17
1.07223e-17
0.0282335
0.028119
0.0281138
0.0282088
0.028202
0.0279859
6.37153e-11
5.03416e-11
4.67353e-11
7.73449e-11
8.70051e-11
5.08941e-11
3.1019e-09
1.28972e-09
1.36139e-09
4.22783e-09
6.09447e-09
1.68603e-09
2.08872e-08
5.23315e-09
5.23315e-09
1.02797e-08
1.53263e-08
3.27311e-08
1.26204e-06
5.23315e-09
3.25756e-05
3.30701e-08
7.25205e-07
3.00272e-06
4.15641e-24
1.69265e-08
6.71901e-11
1.30293e-17
4.34904e-21
9.68081e-20
8.72986e-06
1.42534e-06
1.39343e-08
1.53263e-08
1.89808e-08
4.78758e-08
3.48431e-05
3.86918e-06
3.89076e-08
1.89791e-08
7.90075e-06
2.45261e-05
5.48616e-24
1.85772e-21
6.30239e-08
2.20399e-08
4.30381e-20
8.41138e-19
5.39291e-05
6.82833e-06
3.2391e-08
1.8981e-08
8.44601e-08
3.30647e-07
4.40085e-05
1.32893e-05
5.63882e-08
1.57006e-06
1.1665e-05
2.74153e-05
6.01697e-22
7.19008e-14
3.4277e-07
1.16899e-07
3.53166e-18
2.25638e-06
0.000135176
2.09434e-07
1.27209e-07
0.00112299
9.20952e-07
3.57011e-07
3.15349e-06
5.17845e-05
1.36411e-07
3.17068e-07
2.41595e-06
1.31273e-09
6.88032e-19
5.58903e-19
1.75696e-07
6.97985e-07
2.1517e-07
-2.53924e-11
0.000333222
0.00196317
0.0124959
0.010748
0.00092746
4.45584e-06
5.37456e-05
0.000693509
0.00172393
0.00183995
7.64989e-07
8.56106e-08
2.31043e-07
-4.31328e-17
-1.12237e-14
4.20947e-07
7.01189e-07
1.24762e-09
0.000801899
0.00502165
0.00644954
0.00258627
0.000687553
0.000344572
9.08236e-05
0.000670478
0.00199485
0.000877483
1.00043e-05
4.76657e-07
1.74984e-07
2.25703e-07
6.67426e-07
4.66053e-06
1.37744e-07
1.43846e-07
0.000175436
0.000891652
8.04292e-06
7.25968e-07
2.16234e-05
2.89901e-05
1.0234e-05
0.000135395
1.0309e-05
1.38353e-06
1.29305e-06
4.7315e-06
5.31962e-08
7.49819e-08
8.64436e-07
1.0916e-07
7.22248e-09
1.21107e-08
6.84081e-07
4.66737e-07
1.41051e-07
9.07987e-08
6.13478e-06
2.15734e-05
7.76906e-08
1.58164e-07
6.16184e-08
6.54136e-08
2.58797e-07
6.08645e-09
5.31978e-08
5.31787e-08
5.31658e-08
5.18768e-08
1.57845e-09
3.6746e-09
2.50271e-07
2.01569e-07
5.09059e-07
8.25004e-08
4.99207e-08
1.76153e-06
1.21805e-07
2.00814e-07
8.71582e-07
6.52533e-07
3.31135e-08
2.26619e-10
5.05313e-07
8.92082e-07
7.89929e-07
2.01017e-07
1.14279e-09
3.53436e-09
2.06794e-07
1.90909e-07
1.85585e-07
1.62738e-07
7.62706e-09
1.81355e-10
2.44083e-05
1.08545e-05
3.16701e-06
5.33078e-07
2.23049e-10
6.19474e-11
5.57564e-06
7.00157e-06
3.56728e-06
1.54346e-07
4.41492e-11
8.38014e-11
4.86436e-07
2.05495e-07
1.90289e-07
1.84206e-07
2.81735e-07
-6.56045e-09
8.01372e-05
4.26805e-05
1.7639e-05
2.69505e-06
2.77092e-08
2.4581e-11
4.40168e-06
5.15089e-06
9.0869e-06
2.45086e-07
-7.67992e-13
-1.3141e-15
0.00784676
0.00699648
0.00598475
0.00717072
0.00710337
0.00761138
1.66863e-10
2.12246e-10
9.27265e-10
4.05521e-10
5.83186e-11
7.03029e-13
4.16386e-07
2.6207e-07
1.07418e-06
6.16835e-08
5.51996e-18
4.38959e-18
)
;

boundaryField
{
    seabed_topleft_surface
    {
        type            zeroGradient;
    }
    seabed_topright_surface
    {
        type            zeroGradient;
    }
    breakwater_top_surface
    {
        type            zeroGradient;
    }
    breakwater_left_surface
    {
        type            zeroGradient;
    }
    breakwater_right_surface
    {
        type            zeroGradient;
    }
    water_front_surface
    {
        type            zeroGradient;
    }
    water_back_surface
    {
        type            zeroGradient;
    }
    water_left_surface
    {
        type            zeroGradient;
    }
    water_right_surface
    {
        type            zeroGradient;
    }
    water_top_surface
    {
        type            inletOutlet;
        inletValue      uniform 0;
        value           nonuniform List<scalar> 
180
(
0.000315316
0.000227688
0.000178486
0.00030395
0.000304666
0.00030304
0
0
0
0
0
0
0
0
0
0
0
0
0
0
0
0
0
0
0
0
0
0
0
0
0
0
0
0
0
0
0
0
0
0
0
0
9.51015e-06
7.77461e-06
7.25618e-06
9.35038e-06
9.14809e-06
4.89554e-06
1.00268e-05
8.3496e-06
7.92832e-06
1.03265e-05
6.87917e-06
5.20265e-06
6.22128e-06
4.7373e-06
4.6638e-06
6.77959e-06
8.14442e-06
4.46578e-06
2.01267e-06
1.14348e-06
1.20356e-06
2.35165e-06
2.9249e-06
1.21393e-06
0
0
0
0
0
0
0
0
0
2.8026e-10
1.05924e-13
3.58593e-14
0
0
0
0
0
0
0
0
0
0
0
0
0
0
0
0
0
0
0
0
0
0
0
0
3.1019e-09
1.28972e-09
1.36139e-09
4.22783e-09
6.09447e-09
1.68603e-09
0
0
6.71901e-11
0
0
0
0
0
0
0
0
0
0
0
0
0
0
0
0
0
0
0
0
0
2.31043e-07
0
0
4.20947e-07
7.01189e-07
1.24762e-09
1.74984e-07
2.25703e-07
6.67426e-07
4.66053e-06
1.37744e-07
1.43846e-07
5.31962e-08
7.49819e-08
8.64436e-07
1.0916e-07
7.22248e-09
1.21107e-08
5.31978e-08
5.31787e-08
5.31658e-08
5.18768e-08
1.57845e-09
3.6746e-09
5.05313e-07
8.92082e-07
7.89929e-07
2.01017e-07
1.14279e-09
3.53436e-09
5.57564e-06
7.00157e-06
3.56728e-06
1.54346e-07
4.41492e-11
0
4.40168e-06
5.15089e-06
9.0869e-06
2.45086e-07
0
0
0
0
0
0
0
0
)
;
    }
}


// ************************************************************************* //
