/*--------------------------------*- C++ -*----------------------------------*\
| =========                 |                                                 |
| \\      /  F ield         | OpenFOAM: The Open Source CFD Toolbox           |
|  \\    /   O peration     | Version:  v1612+                                |
|   \\  /    A nd           | Web:      www.OpenFOAM.com                      |
|    \\/     M anipulation  |                                                 |
\*---------------------------------------------------------------------------*/
FoamFile
{
    version     2.0;
    format      ascii;
    class       volScalarField;
    location    "8.35";
    object      p;
}
// * * * * * * * * * * * * * * * * * * * * * * * * * * * * * * * * * * * * * //

dimensions      [1 -1 -2 0 0 0 0];

internalField   nonuniform List<scalar> 
1116
(
10920.5
10919.8
10918.9
10916.6
10920.5
10910.9
11051.2
11032.3
11031.3
11057.5
11102.9
11014.8
11890.6
11883.6
11881.9
11887.7
11897.4
11872.7
13262.1
13261.3
13261.3
13262.2
13263.5
13261.4
14461.7
14462.3
14462.8
14464.2
14465.3
14467.6
14971.6
14971
14972.3
14974.3
14975.8
14977.4
14552
14548.8
14551.5
14556.4
14559.2
14558.5
13081.1
13074.2
13076.9
13094.3
13103.4
13092.4
10267.8
10264
10265.2
10275.9
10281.2
10272.5
7864.04
7853.07
7854.54
7862.5
7860.24
7834.37
6162.4
6158.65
6156.15
6155.89
6152.6
6131.89
4999.87
4992.76
4993.45
4994.88
4998.42
4991.13
3485.86
3520.79
3509.48
3506.24
3502.34
3509.09
2630.78
2628.16
2610.37
2621.74
2622.71
2602.76
3236.39
3215.66
3200.6
3238.14
3250.15
3185.55
4572.22
4566.92
4566.37
4573.34
4574.89
4568.36
5882.32
5881.35
5882.56
5883.48
5883.32
5891.54
6455.93
6455.68
6456.22
6457.14
6458.61
6461.55
5974.38
5973.74
5976
5976.48
5981.08
5978.36
4818.86
4812.91
4815.63
4827.64
4835.25
4824.45
3562.4
3562.44
3559.08
3567.57
3561.82
3563.89
2627.69
2633.85
2625.22
2633.87
2626.19
2603.43
1561.6
1522.45
1527.03
1564.61
1573.1
1495.42
1367.04
1335.87
1340.96
1381.75
1403.78
1343.13
140.399
152.437
155.341
144.465
132.78
155.008
13.2719
20.1786
18.2549
6.33676
-0.877107
14.7563
68.102
62.9772
59.7254
65.7355
69.3735
54.511
279.627
276.296
274.747
280.603
280.954
277.052
807.648
810.314
811.214
809.855
806.813
822.403
1314.19
1326.65
1326.05
1316.62
1311.14
1334.77
1225.19
1219.29
1226.95
1219.03
1216.79
1227.26
1311.02
1291.25
1306.25
1294.6
1292.79
1301.23
1216.81
1174.06
1181.34
1210.88
1180.53
1195.17
761.849
792.335
773.645
765.989
751.287
797.203
369.366
362.424
365.652
368.68
360.689
351.639
400.983
408.488
405.295
402.599
405.664
416.643
-25.8565
-25.5109
-25.8524
-25.1962
-25.0198
-25.167
-25.0372
-25.0324
-25.5587
-26.1553
-26.3984
-26.4354
-21.6871
-21.3463
-21.3609
-21.5074
-21.712
-21.6084
-31.1146
-31.2954
-31.7102
-31.6148
-31.6726
-32.0455
-49.2769
-49.2999
-49.4649
-49.5849
-49.7579
-49.7097
-84.545
-83.967
-84.0856
-84.2507
-84.5814
-83.728
-149.518
-150.845
-150.561
-149.157
-149.627
-150.701
-101.517
-108.122
-106.422
-101.673
-101.515
-112.536
45.7591
34.7194
37.8028
43.7702
42.4176
27.8114
114.377
122.614
121.837
113.319
108.357
116.785
138.897
143.434
142.651
140.06
137.007
143.378
120.454
145.139
136.696
126.602
130.159
165.027
2526.07
2457.74
2537.9
2479.95
2474.79
2521.74
2385.63
2282.8
2443.97
2381.4
2351.48
2454.53
2241.6
2151.96
2241.51
2288.78
2255.43
2285.33
2149.79
2058.68
2000.39
2064.73
2063.4
2055.55
1763.03
1669.41
1567.43
1565.56
1593.06
1603.52
945.571
886.119
856.878
837.612
918.422
927.803
437.932
397.98
397.956
360.319
399.114
363.268
301.238
260.042
240.526
232.384
228.276
215.204
271.638
260.742
204.282
190.847
175.174
224.988
233.806
238.953
195.83
167.149
161.297
227.354
248.741
226.462
221.133
258.934
293.879
290.276
259.865
260.834
271.981
314.265
328.368
315.329
1429.16
1446.01
1531.14
1476.33
1476.19
1493.99
1110.45
1172.75
1213.58
1260.09
1304.36
1313.12
1076.93
1022.25
1213.07
1174.59
1150.87
1175.47
1039.17
1021.53
1118.35
1100.82
1080.92
1061.38
636.667
601.181
555.632
576.325
713.124
686.356
176.602
151.743
132.921
131.884
156.666
141.229
27.3054
15.2366
15.8837
42.728
44.6973
28.2619
15.6579
10.8564
-1.52792
15.3364
6.21978
2.27405
44.5007
18.9379
5.84963
12.2959
3.05906
6.32255
28.1433
7.63304
13.1744
13.199
14.9918
26.2773
30.6644
34.1604
34.4147
39.5467
49.1813
45.8272
33.9934
44.1012
51.0772
61.529
59.9435
48.393
280.823
374.392
485.535
597.169
551.535
503.812
110.719
222.597
182.356
346.986
569.266
416.763
156.105
261.14
366.534
533.657
476.18
429.55
270.548
384.998
436.779
387.536
240.315
207.162
187.484
189.038
152.445
126.683
100.369
106.147
18.1763
28.8545
33.1792
30.7351
29.1095
28.5897
2.24798
3.77295
10.7344
16.9908
15.958
15.5059
1.87397
2.0004
3.49095
9.25193
10.2658
9.30763
-3.40707
-3.05262
-9.79669
-6.50366
-3.1536
-2.4042
-8.86899
-6.9612
-8.38983
-8.73478
-4.89652
-4.60647
-1.84156
-1.83064
-3.24497
-4.10689
-5.29408
-7.64562
-19.2081
-36.3366
-34.5514
-18.161
-24.05
-22.2552
-29.015
-31.8765
-22.3806
25.5864
38.3145
3.54208
-34.4295
-35.5972
-32.7906
-27.0222
-31.3721
-43.6345
-31.4124
-33.8183
-24.3297
-4.66439
-48.9634
-43.9845
-37.1332
-28.0865
53.0733
118.275
-54.24
-49.816
-65.1661
-51.0455
-3.94372
-22.5543
-48.0483
-43.3586
-62.8951
-62.7007
-13.5968
-5.61979
-11.8231
-9.65375
-22.2942
-18.4605
-10.8345
-7.92946
-8.09228
-7.9748
-14.654
-13.9421
-12.7317
-11.2746
-12.7459
-12.4576
-20.0464
-21.7819
-25.7543
-21.308
-21.6407
-18.0751
-28.5411
-29.8103
-34.6449
-30.9488
-28.9051
-29.7396
-14.8821
-19.7223
-27.2051
-33.7246
-27.2192
-23.6496
-34.1353
-48.2868
-59.1445
-70.5872
-81.9159
-46.6955
-34.9111
-34.7682
-35.266
-34.4092
-34.4439
-34.382
-58.0119
-57.4171
-57.3785
-57.4343
-57.6873
-57.0164
-75.6638
-75.4002
-75.1007
-75.3795
-75.5232
-76.6953
-35.5208
-35.6681
-36.1523
-36.1712
-36.2192
-36.1673
-57.1345
-57.0395
-57.0122
-57.0263
-57.071
-56.8162
-77.2032
-77.0356
-76.4921
-76.9251
-77.3409
-76.3016
-38.8968
-38.7377
-38.841
-38.5927
-38.4799
-38.0294
-58.7448
-58.8888
-59.0419
-58.7405
-58.7017
-58.8912
-73.3846
-73.5331
-73.5535
-73.508
-73.5712
-73.7834
-45.0522
-44.5439
-44.5661
-44.9934
-45.2215
-44.5657
-63.8156
-63.8268
-63.8036
-63.8546
-63.8173
-63.7634
-74.6049
-74.6964
-74.605
-74.6496
-74.6083
-74.6006
-60.6467
-60.1764
-60.2283
-60.4953
-60.7588
-59.8776
-73.8077
-73.8779
-73.9757
-73.9343
-73.9067
-73.8694
-76.2806
-76.4261
-76.3683
-76.3438
-76.0895
-76.5846
-98.4634
-97.1611
-97.3573
-98.0021
-99.1402
-96.1438
-97.5437
-96.9304
-96.9179
-97.7385
-98.5015
-96.1141
-77.345
-77.6901
-77.6672
-77.4383
-76.7824
-78.438
-183.177
-182.011
-182.071
-182.993
-184.569
-180.528
-149.463
-149.429
-149.256
-150.776
-151.802
-147.744
-80.6474
-81.464
-81.3603
-81.1334
-80.9113
-82.3302
-206.245
-207.442
-206.834
-207.022
-206.984
-207.309
-162.116
-162.9
-162.264
-163.726
-163.883
-160.955
-83.3652
-84.1338
-83.8687
-84.0054
-84.3233
-83.9227
-133.792
-133.404
-133.211
-133.965
-134.057
-133.383
-128.241
-128.831
-128.56
-128.733
-128.935
-127.984
-83.644
-84.5455
-84.3214
-84.0929
-84.2141
-84.4084
-42.479
-40.6648
-41.1047
-42.6807
-44.6423
-42.3047
-72.6756
-73.0376
-73.1353
-72.3983
-73.0571
-73.4983
-73.8617
-74.6078
-74.5513
-73.8998
-74.1249
-74.756
26.7561
28.2649
27.4493
28.9615
28.9937
29.2969
-44.8764
-43.9306
-44.6635
-44.1058
-43.9788
-43.6287
-68.2772
-67.9166
-68.1062
-68.1065
-68.073
-67.8074
-2.1737
5.31572
0.0437169
2.44796
6.44309
17.5044
-64.7888
-64.7588
-64.9646
-64.9324
-64.8925
-64.6609
-67.8518
-67.9293
-67.9859
-67.289
-66.9925
-66.6034
81.9893
80.3805
80.0904
81.2016
80.9967
79.7929
-48.3868
-48.4701
-48.2239
-47.7918
-47.5848
-47.3963
-68.196
-68.2539
-67.992
-68.0052
-68.054
-68.1211
99.5862
98.5641
98.1843
97.4362
97.2387
97.5505
-49.7302
-49.6356
-49.4491
-49.2327
-48.9532
-49.0101
-66.9204
-66.8694
-66.7338
-66.6949
-66.7634
-66.7336
103.786
103.589
103.368
103.346
103.306
103.128
-49.7128
-49.6784
-49.5866
-49.4627
-49.3738
-49.3284
-67.4287
-67.4187
-67.3981
-67.3978
-67.3978
-67.3923
101.918
101.929
101.783
101.556
101.31
101.446
-50.6082
-50.5671
-50.5151
-50.4601
-50.4069
-50.3793
-66.9958
-66.98
-66.9499
-66.9203
-66.9178
-66.9138
96.8171
97.0444
96.9079
96.5735
96.3229
96.7667
-50.3508
-50.3042
-50.2686
-50.1972
-50.1314
-50.1179
-66.3813
-66.3687
-66.3309
-66.2381
-66.1633
-66.1211
82.1272
82.8279
82.4758
82.1069
82.2398
82.9142
-51.2914
-51.1259
-51.1453
-51.2227
-51.2088
-51.0618
-67.0274
-66.9836
-66.9382
-66.7353
-66.5837
-66.4117
-45.4492
-47.9211
-47.654
-49.2184
-53.5109
-54.0411
-55.2608
-55.7171
-57.0329
-57.9859
-59.1494
-57.0162
-68.114
-68.631
-68.3268
-68.5086
-68.8233
-68.4075
-51.0931
-51.6714
-51.5201
-53.4616
-62.6562
-64.2165
-58.6461
-58.6178
-59.3425
-60.8407
-62.9921
-63.4147
-69.975
-70.5364
-71.1648
-70.4268
-70.1533
-69.4169
-53.4925
-56.4002
-55.3545
-60.1841
-74.0801
-74.0061
-57.9402
-58.6605
-59.7961
-63.8986
-65.5672
-64.4492
-67.7232
-68.6216
-68.7002
-68.2243
-67.4873
-66.7633
-71.6474
-73.0697
-72.0258
-81.0769
-96.733
-86.2966
-68.9705
-73.1329
-77.3058
-82.4165
-80.6499
-74.9194
-68.1718
-69.1104
-70.2702
-69.9745
-67.3185
-66.2069
-99.3357
-106.865
-104.565
-108.01
-98.9369
-87.182
-77.8689
-87.6543
-91.5732
-91.9224
-84.8071
-79.6692
-68.2849
-69.6704
-70.0974
-68.93
-67.8015
-66.5443
-81.7945
-98.5383
-70.9792
-45.0337
-50.4019
-47.7676
-69.0392
-75.399
-71.3271
-65.3895
-64.2921
-61.462
-67.1515
-68.6686
-68.4145
-67.6726
-66.6156
-65.605
-35.6114
-37.826
-32.8485
-29.4347
-30.1472
-30.372
-50.9525
-52.9443
-49.4185
-48.1773
-49.544
-49.771
-64.7211
-66.2095
-64.4882
-64.0025
-63.954
-63.8554
-27.2738
-28.2897
-28.7244
-29.1363
-29.8591
-30.5557
-45.9783
-46.5214
-47.2423
-47.2288
-47.9183
-49.3626
-63.0791
-63.3102
-63.033
-62.6833
-62.5376
-62.6987
-30.8188
-31.885
-36.1507
-36.4483
-36.2407
-36.2564
-47.7466
-48.7893
-50.3616
-51.0958
-51.4442
-51.906
-63.0648
-63.2309
-62.8919
-62.1186
-61.7338
-61.474
-35.1891
-36.399
-41.2436
-43.3619
-41.5409
-39.5421
-50.467
-50.5825
-51.738
-52.3317
-51.7575
-50.925
-64.0389
-64.3527
-63.4917
-61.9692
-61.6969
-61.8638
-29.5729
-29.8218
-32.4311
-38.2581
-37.3622
-33.8315
-54.2087
-53.9251
-52.4766
-51.169
-50.61
-50.5264
-62.7686
-62.8925
-62.3994
-60.5551
-60.6216
-60.8952
-13.5919
-12.3442
-10.4593
-20.3837
-30.7766
-31.8791
-55.4997
-55.4083
-54.1704
-54.0219
-53.6171
-53.1291
-66.6946
-66.1929
-65.3636
-65.7417
-65.9872
-66.0757
)
;

boundaryField
{
    seabed_topleft_surface
    {
        type            calculated;
        value           nonuniform List<scalar> 
72
(
14563.5
14560.1
14563
14556.2
14558.1
14556.2
15077.5
15057.8
15057.1
15083.2
15129.3
15040.2
16638.8
16631.7
16629.2
16636.4
16647
16619.7
18056.6
18055.8
18055.8
18056.6
18058
18055.8
19256.2
19256.7
19257.3
19258.6
19259.8
19262
19766
19765.5
19766.7
19768.8
19770.2
19771.9
19044.1
19035.9
19040.8
19045.9
19044.4
19052.7
17162.5
17151.2
17157.8
17170
17180.1
17175.2
14132.2
14122.2
14126.1
14138.8
14151
14134.2
11557.3
11538.8
11540.6
11557.8
11561.9
11517.7
9695.41
9681.78
9678.1
9692.15
9694.07
9650.86
8287.37
8287.32
8287.27
8280.56
8278.82
8288.83
)
;
    }
    seabed_topright_surface
    {
        type            calculated;
        value           nonuniform List<scalar> 
72
(
2996.14
2927.88
3008.08
2940.02
2934.85
2991.62
2855.77
2752.98
2914.31
2851.58
2821.56
2924.51
2711.67
2622.1
2661.42
2758.9
2725.43
2755.25
2619.77
2397.19
2140.62
2365.66
2439.46
2506.54
2140.16
1907.61
1865.5
1865.98
1741.97
1757.54
1195.4
1164.99
1147.02
1135.1
1210.86
1188.5
713.558
655.719
569.168
481.844
592.913
623.176
576.864
509.087
410.063
254.358
292.567
420.494
534.597
523.073
386.421
221.947
249.195
443.792
336.197
500.609
370.275
260.906
244.261
447.384
351.306
336.505
395.262
435.993
444.76
510.306
371.506
325.045
413.251
530.804
548.163
535.359
)
;
    }
    breakwater_top_surface
    {
        type            calculated;
        value           nonuniform List<scalar> 
36
(
228.087
225.089
222.654
224.226
223.66
221.86
254.937
252.457
250.943
249.168
248.946
249.881
261.048
260.718
260.245
260.033
259.81
259.527
255.62
255.692
255.41
254.928
254.361
254.743
243.792
244.323
244.122
243.123
242.256
243.481
225.379
225.519
225.141
225.238
225.337
224.953
)
;
    }
    breakwater_left_surface
    {
        type            calculated;
        value           nonuniform List<scalar> 
24
(
5011.12
5004.04
5004.73
5006.13
5009.65
5002.42
1368.68
1337.68
1342.76
1383.37
1405.34
1344.97
401.313
408.728
405.538
402.945
406.056
416.87
120.548
145.255
136.813
126.692
130.236
165.146
)
;
    }
    breakwater_right_surface
    {
        type            calculated;
        value           nonuniform List<scalar> 
24
(
260.247
261.054
272.465
315.006
329.12
316.083
34.1676
44.1688
51.102
61.547
59.9637
48.5219
-19.1742
-36.2481
-34.4507
-18.0279
-23.9225
-22.2045
-34.0003
-48.1606
-59.0015
-70.4431
-81.7717
-46.5611
)
;
    }
    water_front_surface
    {
        type            calculated;
        value           nonuniform List<scalar> 
186
(
10920.5
11051.2
11890.6
13262.1
14461.7
14971.6
14552
13081.1
10267.8
7864.04
6162.4
4999.87
3485.86
2630.78
3236.39
4572.22
5882.32
6455.93
5974.38
4818.86
3562.4
2627.69
1561.6
1367.04
140.399
13.2719
68.102
279.627
807.648
1314.19
1225.19
1311.02
1216.81
761.849
369.366
400.983
-25.8565
-25.0372
-21.6871
-31.1146
-49.2769
-84.545
-149.518
-101.517
45.7591
114.377
138.897
120.454
2526.07
2385.63
2241.6
2149.79
1763.03
945.571
437.932
301.238
271.638
233.806
248.741
259.865
1429.16
1110.45
1076.93
1039.17
636.667
176.602
27.3054
15.6579
44.5007
28.1433
30.6644
33.9934
280.823
110.719
156.105
270.548
187.484
18.1763
2.24798
1.87397
-3.40707
-8.86899
-1.84156
-19.2081
-29.015
-34.4295
-31.4124
-37.1332
-65.1661
-62.8951
-22.2942
-14.654
-20.0464
-28.5411
-14.8821
-34.1353
-34.9111
-58.0119
-75.6638
-35.5208
-57.1345
-77.2032
-38.8968
-58.7448
-73.3846
-45.0522
-63.8156
-74.6049
-60.6467
-73.8077
-76.2806
-98.4634
-97.5437
-77.345
-183.177
-149.463
-80.6474
-206.245
-162.116
-83.3652
-133.792
-128.241
-83.644
-42.479
-72.6756
-73.8617
26.7561
-44.8764
-68.2772
-2.1737
-64.7888
-67.8518
81.9893
-48.3868
-68.196
99.5862
-49.7302
-66.9204
103.786
-49.7128
-67.4287
101.918
-50.6082
-66.9958
96.8171
-50.3508
-66.3813
82.1272
-51.2914
-67.0274
-45.4492
-55.2608
-68.114
-51.0931
-58.6461
-69.975
-53.4925
-57.9402
-67.7232
-71.6474
-68.9705
-68.1718
-99.3357
-77.8689
-68.2849
-81.7945
-69.0392
-67.1515
-35.6114
-50.9525
-64.7211
-27.2738
-45.9783
-63.0791
-30.8188
-47.7466
-63.0648
-35.1891
-50.467
-64.0389
-29.5729
-54.2087
-62.7686
-13.5919
-55.4997
-66.6946
)
;
    }
    water_back_surface
    {
        type            calculated;
        value           nonuniform List<scalar> 
186
(
10910.9
11014.8
11872.7
13261.4
14467.6
14977.4
14558.5
13092.4
10272.5
7834.37
6131.89
4991.13
3509.09
2602.76
3185.55
4568.36
5891.54
6461.55
5978.36
4824.45
3563.89
2603.43
1495.42
1343.13
155.008
14.7563
54.511
277.052
822.403
1334.77
1227.26
1301.23
1195.17
797.203
351.639
416.643
-25.167
-26.4354
-21.6084
-32.0455
-49.7097
-83.728
-150.701
-112.536
27.8114
116.785
143.378
165.027
2521.74
2454.53
2285.33
2055.55
1603.52
927.803
363.268
215.204
224.988
227.354
290.276
315.329
1493.99
1313.12
1175.47
1061.38
686.356
141.229
28.2619
2.27405
6.32255
26.2773
45.8272
48.393
503.812
416.763
429.55
207.162
106.147
28.5897
15.5059
9.30763
-2.4042
-4.60647
-7.64562
-22.2552
3.54208
-43.6345
-43.9845
-49.816
-43.3586
-9.65375
-7.9748
-12.4576
-18.0751
-29.7396
-23.6496
-46.6955
-34.382
-57.0164
-76.6953
-36.1673
-56.8162
-76.3016
-38.0294
-58.8912
-73.7834
-44.5657
-63.7634
-74.6006
-59.8776
-73.8694
-76.5846
-96.1438
-96.1141
-78.438
-180.528
-147.744
-82.3302
-207.309
-160.955
-83.9227
-133.383
-127.984
-84.4084
-42.3047
-73.4983
-74.756
29.2969
-43.6287
-67.8074
17.5044
-64.6609
-66.6034
79.7929
-47.3963
-68.1211
97.5505
-49.0101
-66.7336
103.128
-49.3284
-67.3923
101.446
-50.3793
-66.9138
96.7667
-50.1179
-66.1211
82.9142
-51.0618
-66.4117
-54.0411
-57.0162
-68.4075
-64.2165
-63.4147
-69.4169
-74.0061
-64.4492
-66.7633
-86.2966
-74.9194
-66.2069
-87.182
-79.6692
-66.5443
-47.7676
-61.462
-65.605
-30.372
-49.771
-63.8554
-30.5557
-49.3626
-62.6987
-36.2564
-51.906
-61.474
-39.5421
-50.925
-61.8638
-33.8315
-50.5264
-60.8952
-31.8791
-53.1291
-66.0757
)
;
    }
    water_left_surface
    {
        type            calculated;
        value           nonuniform List<scalar> 
42
(
10933
10932.3
10931.4
10929.1
10933
10923.4
3495.33
3530.33
3519.04
3515.7
3511.75
3518.63
140.977
153.045
155.963
145.029
133.315
155.613
-25.8406
-25.495
-25.8365
-25.1803
-25.0039
-25.1511
-34.9111
-34.7682
-35.266
-34.4092
-34.4439
-34.382
-58.0119
-57.4171
-57.3785
-57.4343
-57.6873
-57.0164
-75.6638
-75.4002
-75.1007
-75.3795
-75.5232
-76.6953
)
;
    }
    water_right_surface
    {
        type            calculated;
        value           nonuniform List<scalar> 
42
(
2527.68
2459.35
2539.51
2481.52
2476.37
2523.35
1430.74
1447.59
1532.72
1477.9
1477.76
1495.57
281.776
375.612
486.878
598.704
553.08
505.246
-28.9991
-31.8606
-22.3454
25.8322
38.6662
3.63337
-45.4492
-47.9211
-47.654
-49.2184
-53.5109
-54.0411
-55.2608
-55.7171
-57.0329
-57.9859
-59.1494
-57.0162
-68.114
-68.631
-68.3268
-68.5086
-68.8233
-68.4075
)
;
    }
    water_top_surface
    {
        type            calculated;
        value           nonuniform List<scalar> 
180
(
-90.3011
-84.2897
-80.9144
-89.5214
-89.5705
-89.459
-84.9018
-84.8511
-84.0673
-84.7182
-85.8632
-82.1097
-83.046
-83.5117
-83.4898
-83.1836
-83.1629
-83.339
-83.0014
-83.2408
-83.1381
-83.0864
-83.0304
-83.0209
-83.777
-84.3061
-84.2047
-83.9082
-83.6953
-84.2016
-82.7038
-83.7475
-83.9485
-82.9778
-82.1146
-84.7991
-73.1156
-73.7768
-74.0656
-73.1473
-71.931
-76.1073
-69.3224
-69.2033
-69.1678
-69.3114
-69.2976
-69.0058
-69.3579
-69.2428
-69.2139
-69.3784
-69.1419
-69.0269
-69.0968
-68.995
-68.9899
-69.1351
-69.2287
-68.9764
-68.8081
-68.7484
-68.7526
-68.8313
-68.8707
-68.7533
-68.6972
-68.6972
-68.7009
-68.6855
-68.684
-68.6819
-68.6721
-68.6996
-68.7035
-68.67
-68.67
-68.67
-68.9114
-68.8935
-68.8285
-68.8332
-68.8401
-68.8697
-68.8564
-68.8688
-68.8517
-68.8428
-68.8371
-68.8304
-68.9134
-68.9219
-68.9119
-68.9092
-68.908
-68.9066
-68.6806
-68.6818
-68.6793
-68.6759
-68.6736
-68.6741
-68.6702
-68.6701
-68.6701
-68.6703
-68.6704
-68.6701
-70.5015
-73.3521
-68.67
-70.8508
-74.8992
-71.3719
-75.4523
-75.909
-76.7859
-76.9205
-76.8637
-74.0445
-72.6624
-75.1111
-74.471
-75.6926
-74.8241
-71.6709
-71.2007
-73.3972
-73.7714
-72.8449
-70.7238
-70.0246
-68.6858
-68.7331
-68.7206
-68.6989
-68.7181
-68.6701
-68.682
-68.6855
-68.7158
-68.9897
-68.6794
-68.6799
-68.6736
-68.6751
-68.7293
-68.6775
-68.6705
-68.6708
-68.6736
-68.6736
-68.6736
-68.6736
-68.6701
-68.6703
-68.7047
-68.7312
-68.7242
-68.6838
-68.6701
-68.6702
-69.0525
-69.1503
-68.9147
-68.6806
-68.67
-68.67
-68.972
-69.0234
-69.2934
-68.6868
-68.7221
-68.7253
-69.4053
-69.8284
-69.3297
-69.3046
-69.2391
-69.1508
)
;
    }
}


// ************************************************************************* //
