/*--------------------------------*- C++ -*----------------------------------*\
| =========                 |                                                 |
| \\      /  F ield         | OpenFOAM: The Open Source CFD Toolbox           |
|  \\    /   O peration     | Version:  v1612+                                |
|   \\  /    A nd           | Web:      www.OpenFOAM.com                      |
|    \\/     M anipulation  |                                                 |
\*---------------------------------------------------------------------------*/
FoamFile
{
    version     2.0;
    format      ascii;
    class       volScalarField;
    location    "3.75";
    object      p_rgh;
}
// * * * * * * * * * * * * * * * * * * * * * * * * * * * * * * * * * * * * * //

dimensions      [1 -1 -2 0 0 0 0];

internalField   nonuniform List<scalar> 
1116
(
6259.41
6259.38
6259.4
6259.41
6259.39
6259.43
6156.11
6156.07
6156.08
6156.11
6156.1
6156.08
6482.38
6482.35
6482.36
6482.38
6482.38
6482.36
7122.25
7122.25
7122.25
7122.27
7122.28
7122.25
7822.7
7822.7
7822.71
7822.73
7822.74
7822.71
8573.23
8573.23
8573.24
8573.25
8573.26
8573.26
9696.88
9696.85
9696.86
9696.86
9696.85
9696.89
11756.2
11756.2
11756.2
11756.2
11756.2
11756.2
14583.9
14583.9
14583.9
14583.9
14583.9
14583.9
18690.8
18690.7
18690.7
18690.7
18690.6
18690.7
21826.2
21826
21826.1
21826
21826
21826.1
24237.6
24237.5
24237.5
24237.5
24237.5
24237.5
85.1509
85.0952
85.0975
85.1102
85.0927
85.1351
-50.0169
-50.0164
-50.0166
-50.0162
-50.0159
-50.0177
-37.3707
-37.3698
-37.3701
-37.3699
-37.369
-37.3707
22.6868
22.6869
22.6867
22.6866
22.6873
22.6872
231.141
231.161
231.155
231.167
231.185
231.158
547.967
547.99
547.987
548.001
548.023
547.999
1117.95
1117.99
1118
1118.01
1118.03
1118
2511.87
2511.84
2511.86
2511.87
2511.85
2511.9
7670.42
7669.94
7670.16
7670.16
7670
7670.33
18451.2
18450.7
18450.9
18450.9
18450.7
18451.1
23613.8
23613.6
23613.7
23613.6
23613.6
23613.7
26637.3
26637.2
26637.2
26637.2
26637.2
26637.2
-17.8956
-17.8954
-17.8955
-17.8957
-17.8958
-17.8958
-21.3145
-21.3143
-21.3144
-21.3145
-21.3147
-21.315
-16.352
-16.3516
-16.3518
-16.3519
-16.352
-16.3527
2.03009
2.03049
2.03062
2.03123
2.03188
2.03147
14.9941
14.9943
14.9948
14.9953
14.9956
14.9963
13.6559
13.656
13.6564
13.6568
13.6572
13.6581
12.7396
12.7409
12.7406
12.7408
12.7412
12.7407
25.3018
25.3006
25.2992
25.2987
25.2993
25.2995
130.461
130.428
130.437
130.435
130.428
130.445
6660.17
6658.67
6659.27
6659.22
6658.72
6659.73
25504.1
25502.5
25503
25502.9
25502.6
25503.7
31758
31757.9
31757.8
31757.8
31757.9
31757.8
-13.8068
-13.8064
-13.8064
-13.8063
-13.8061
-13.8065
-12.1677
-12.1676
-12.1675
-12.1675
-12.1675
-12.1675
-6.28499
-6.28493
-6.28488
-6.28492
-6.28499
-6.28502
7.72329
7.72297
7.72323
7.72319
7.72311
7.72352
16.677
16.6764
16.6764
16.6762
16.6758
16.6768
15.8283
15.828
15.8279
15.8278
15.8276
15.8284
13.8488
13.8496
13.8497
13.8499
13.8501
13.8499
15.3777
15.3759
15.377
15.3766
15.3767
15.378
31.1113
31.1066
31.1081
31.1071
31.1058
31.1078
1570.61
1568.75
1569.56
1569.59
1568.95
1569.89
22894.7
22898.5
22896.7
22896
22899.4
22894.3
38323.4
38322
38322.2
38322.3
38322.3
38322.6
4.23237
4.23239
4.23243
4.23247
4.23251
4.23254
4.42758
4.4276
4.42764
4.42768
4.42772
4.42773
4.82158
4.82162
4.82164
4.82166
4.82166
4.82165
5.42063
5.42068
5.42067
5.42062
5.42056
5.42048
6.23038
6.23041
6.23032
6.23016
6.22997
6.22979
7.24915
7.24912
7.24892
7.24869
7.24845
7.24825
8.45603
8.45595
8.45584
8.45576
8.45571
8.45571
9.79559
9.79563
9.79585
9.79622
9.79666
9.79702
11.1485
11.1485
11.1492
11.1504
11.1517
11.1529
12.3866
12.3865
12.3864
12.386
12.3859
12.3857
13.8824
13.8827
13.8833
13.882
13.8821
13.8806
12.5917
12.5917
12.5916
12.5898
12.59
12.5883
4.0367
4.03673
4.03678
4.03682
4.03686
4.03687
4.23449
4.2345
4.23453
4.23456
4.23458
4.23458
4.63395
4.63395
4.63395
4.63395
4.63395
4.63393
5.24044
5.24043
5.2404
5.24036
5.24031
5.24024
6.05682
6.0568
6.05673
6.05663
6.05651
6.05639
7.07832
7.07829
7.07825
7.0782
7.07817
7.07819
8.28765
8.28771
8.28782
8.28799
8.2882
8.28838
9.65181
9.6519
9.65195
9.65197
9.65204
9.65206
11.1241
11.1241
11.1237
11.1228
11.1222
11.1212
12.6064
12.6059
12.6055
12.6019
12.6021
12.5998
14.5124
14.512
14.5135
14.511
14.5129
14.514
9.49651
9.49594
9.49489
9.49506
9.49578
9.50024
3.64751
3.64754
3.64758
3.6476
3.64761
3.6476
3.84439
3.84439
3.8444
3.8444
3.8444
3.84437
4.25018
4.25014
4.25013
4.25013
4.25013
4.25012
4.89058
4.89055
4.89055
4.89056
4.89056
4.89055
5.80648
5.80647
5.80647
5.80647
5.80647
5.80648
7.04891
7.04891
7.04895
7.04902
7.04913
7.04928
8.65074
8.6508
8.65088
8.65095
8.65105
8.65115
10.576
10.5759
10.5756
10.5749
10.5743
10.574
12.6197
12.619
12.6181
12.6147
12.6125
12.6111
13.7987
13.7979
13.7999
13.7895
13.795
13.7895
16.4798
16.479
16.4845
16.4723
16.4819
16.4733
12.8805
12.8866
12.9016
12.851
12.8818
12.864
3.07415
3.07418
3.07418
3.07417
3.07414
3.0741
3.25676
3.25673
3.25671
3.25669
3.25666
3.25662
3.6352
3.63515
3.63515
3.63517
3.63521
3.63525
4.23308
4.23309
4.23314
4.23322
4.2333
4.23337
5.08275
5.08279
5.08286
5.08294
5.08302
5.08309
6.22667
6.22669
6.22675
6.22683
6.22695
6.22708
7.73007
7.73001
7.73002
7.72978
7.72986
7.72974
9.69896
9.69856
9.69854
9.69617
9.69652
9.69606
11.9516
11.9504
11.952
11.9423
11.9448
11.9453
16.2691
16.2703
16.292
16.2321
16.27
16.2719
28.3194
28.3335
28.3762
28.2542
28.3359
28.3308
3.15781
3.21747
3.27228
2.98931
3.12755
3.21481
-8.75991
-8.75979
-8.7596
-8.75938
-8.75921
-8.7591
-5.15794
-5.15786
-5.15772
-5.15758
-5.15749
-5.15747
-2.64554
-2.64556
-2.64552
-2.64547
-2.64546
-2.64547
-7.30425
-7.30413
-7.30402
-7.30394
-7.3039
-7.30392
-4.10678
-4.10675
-4.10669
-4.10669
-4.10677
-4.10687
-2.25404
-2.25407
-2.25405
-2.25405
-2.25409
-2.25407
-3.79134
-3.79136
-3.79139
-3.79142
-3.79147
-3.79159
-1.77959
-1.77964
-1.77966
-1.7797
-1.77978
-1.77986
-1.44791
-1.44792
-1.44789
-1.4479
-1.44792
-1.44777
3.14282
3.14299
3.14302
3.14305
3.143
3.14274
1.73216
1.73215
1.73227
1.73236
1.73237
1.7325
-0.359677
-0.359709
-0.35967
-0.359649
-0.359654
-0.359532
7.2964
7.29662
7.29665
7.2966
7.29652
7.29636
4.23188
4.23188
4.23195
4.23197
4.23197
4.2322
0.637021
0.636972
0.636982
0.636986
0.637006
0.636997
9.08431
9.08439
9.08454
9.08463
9.08468
9.0848
5.17737
5.17732
5.1773
5.17728
5.17738
5.17748
1.58982
1.5898
1.5898
1.58981
1.58988
1.58987
11.199
11.1991
11.1993
11.1994
11.1995
11.1997
5.23953
5.23937
5.23948
5.23951
5.2395
5.23943
2.14511
2.1451
2.14526
2.1453
2.1454
2.14538
5.66986
5.66781
5.66861
5.66863
5.6685
5.66898
-2.5858
-2.58614
-2.5856
-2.58566
-2.5854
-2.58434
4.59307
4.59334
4.59351
4.59332
4.59347
4.59399
21.3566
21.3542
21.3573
21.3577
21.3567
21.3566
17.5563
17.5584
17.5614
17.5618
17.5623
17.5591
0.913128
0.91377
0.914903
0.914786
0.915341
0.914956
10.7046
10.7252
10.7182
10.7166
10.7272
10.7077
9.06381
9.07319
9.06978
9.0684
9.07461
9.06525
-5.3656
-5.35979
-5.36194
-5.36171
-5.35765
-5.3643
1926.1
1922.81
1923.71
1924.13
1922.69
1925.45
346.074
346.147
346.027
346.114
345.704
346.258
68.8502
68.9561
68.8965
68.8902
68.8227
68.9471
32172.5
32177.8
32174.6
32173.6
32171
32176.6
1787.65
1797.65
1793.75
1793.92
1796.7
1789.99
-27.7342
-27.7232
-27.7266
-27.7276
-27.7281
-27.7206
7094.35
7093.68
7130.96
7045.66
7067.84
7152.91
3449.14
3467.13
3483
3401.59
3332.73
3539.94
523.379
525.091
529.851
512.501
488.533
542.841
19156.7
19148.2
19155.2
19200.1
19246.3
19168.3
435.073
426.108
434.3
430.245
386.271
476.985
-85.3901
-85.4888
-85.4232
-85.3305
-85.3541
-84.9205
23533
23530.1
23522.8
23592.6
23647.2
23499.2
1.34631
1.28563
1.39127
0.880168
-0.113124
2.14394
-49.7048
-49.7055
-49.6798
-49.5969
-49.5576
-49.5655
30912.2
30914.7
30912.3
30937.2
30978.5
30875.9
3892.05
3897.67
3898.77
3895.25
3920.72
3866.6
-24.9625
-24.955
-24.9411
-24.902
-24.8712
-24.873
34333.2
34333.4
34334
34334.8
34335.1
34335
9412.94
9421.84
9421.41
9420.22
9434.76
9404.19
-15.5771
-15.5721
-15.5668
-15.5529
-15.539
-15.56
34555.9
34556
34556.4
34556.9
34556.7
34556.8
9326.7
9335.43
9332.76
9333.33
9336.68
9327.28
-15.2561
-15.2485
-15.2463
-15.2401
-15.229
-15.2394
2.33913
2.33912
2.3391
2.33906
2.33901
2.33896
1.46441
1.46438
1.46435
1.46431
1.46426
1.46423
0.505765
0.505752
0.505735
0.505715
0.505699
0.505695
2.49237
2.49232
2.49229
2.49226
2.49224
2.49223
1.56389
1.56385
1.56382
1.56381
1.56381
1.56383
0.541227
0.541216
0.541211
0.541209
0.541219
0.541243
2.81878
2.81875
2.81877
2.81882
2.81889
2.81897
1.77539
1.77539
1.77543
1.77548
1.77554
1.7756
0.616371
0.616385
0.616407
0.616433
0.616462
0.616472
3.36942
3.36946
3.36953
3.36961
3.36968
3.36972
2.12613
2.12618
2.12623
2.12627
2.12628
2.12624
0.739454
0.739474
0.739496
0.739504
0.73949
0.739457
4.24477
4.24479
4.24478
4.24476
4.24473
4.24469
2.66464
2.66465
2.66464
2.66461
2.66454
2.66446
0.920889
0.920883
0.920889
0.920873
0.920845
0.920864
5.63764
5.63753
5.63739
5.63726
5.63722
5.63724
3.46477
3.4647
3.46468
3.46468
3.46469
3.46474
1.15189
1.15189
1.15194
1.15197
1.15201
1.15208
7.8682
7.86798
7.8676
7.86723
7.86711
7.86764
4.56357
4.56343
4.56337
4.56336
4.56336
4.56353
1.36124
1.36126
1.36145
1.36158
1.36168
1.36151
11.5009
11.5006
11.4991
11.496
11.4937
11.5019
6.73066
6.73012
6.73011
6.73027
6.73096
6.73081
1.86359
1.86355
1.86521
1.86771
1.86908
1.86505
17.6513
17.6516
17.6444
17.6381
17.6138
17.659
9.11935
9.11779
9.10863
9.09466
9.08797
9.09788
2.7116
2.71355
2.70773
2.67763
2.67217
2.70123
18.8155
18.8174
18.7885
18.8283
18.7743
18.8232
-9.98767
-10.0014
-10.0294
-9.97834
-10.0038
-10.0443
-12.8213
-12.8128
-12.8371
-12.924
-12.9777
-12.9117
19.176
19.1793
19.1905
19.1832
19.1575
19.2364
29.6958
29.65
29.6465
29.8148
29.8272
29.5698
15.3154
15.2807
15.2924
15.3983
15.4327
15.2811
37.4372
37.5454
37.7586
37.0327
37.2095
37.5678
489.137
495.572
501.58
476.816
481.423
496.585
158.117
165.114
170.968
147.212
140.156
177.657
)
;

boundaryField
{
    seabed_topleft_surface
    {
        type            fixedFluxPressure;
        gradient        uniform 0;
        value           nonuniform List<scalar> 
72
(
6259.41
6259.38
6259.4
6259.41
6259.39
6259.43
6156.11
6156.07
6156.08
6156.11
6156.1
6156.08
6482.38
6482.35
6482.36
6482.38
6482.38
6482.36
7122.25
7122.25
7122.25
7122.27
7122.28
7122.25
7822.7
7822.7
7822.71
7822.73
7822.74
7822.71
8573.23
8573.23
8573.24
8573.25
8573.26
8573.26
9696.88
9696.85
9696.86
9696.86
9696.85
9696.89
11756.2
11756.2
11756.2
11756.2
11756.2
11756.2
14583.9
14583.9
14583.9
14583.9
14583.9
14583.9
18690.8
18690.7
18690.7
18690.7
18690.6
18690.7
21826.2
21826
21826.1
21826
21826
21826.1
24237.6
24237.5
24237.5
24237.5
24237.5
24237.5
)
;
    }
    seabed_topright_surface
    {
        type            fixedFluxPressure;
        gradient        uniform 0;
        value           nonuniform List<scalar> 
72
(
4.23237
4.23239
4.23243
4.23247
4.23251
4.23254
4.42758
4.4276
4.42764
4.42768
4.42772
4.42773
4.82158
4.82162
4.82164
4.82166
4.82166
4.82165
5.42063
5.42068
5.42067
5.42062
5.42056
5.42048
6.23038
6.23041
6.23032
6.23016
6.22997
6.22979
7.24915
7.24912
7.24892
7.24869
7.24845
7.24825
8.45603
8.45595
8.45584
8.45576
8.45571
8.45571
9.79559
9.79563
9.79585
9.79622
9.79666
9.79702
11.1485
11.1485
11.1492
11.1504
11.1517
11.1529
12.3866
12.3865
12.3864
12.386
12.3859
12.3857
13.8824
13.8827
13.8833
13.882
13.8821
13.8806
12.5917
12.5917
12.5916
12.5898
12.59
12.5883
)
;
    }
    breakwater_top_surface
    {
        type            fixedFluxPressure;
        gradient        uniform 0;
        value           nonuniform List<scalar> 
36
(
7094.35
7093.68
7130.96
7045.66
7067.84
7152.91
19156.7
19148.2
19155.2
19200.1
19246.3
19168.3
23533
23530.1
23522.8
23592.6
23647.2
23499.2
30912.2
30914.7
30912.3
30937.2
30978.5
30875.9
34333.2
34333.4
34334
34334.8
34335.1
34335
34555.9
34556
34556.4
34556.9
34556.7
34556.8
)
;
    }
    breakwater_left_surface
    {
        type            fixedFluxPressure;
        gradient        uniform 0;
        value           nonuniform List<scalar> 
24
(
24237.6
24237.5
24237.5
24237.5
24237.5
24237.5
26637.3
26637.2
26637.2
26637.2
26637.2
26637.2
31758
31757.9
31757.8
31757.8
31757.9
31757.8
38323.4
38322
38322.2
38322.3
38322.3
38322.6
)
;
    }
    breakwater_right_surface
    {
        type            fixedFluxPressure;
        gradient        uniform 0;
        value           nonuniform List<scalar> 
24
(
12.5917
12.5917
12.5916
12.5898
12.59
12.5883
9.49651
9.49594
9.49489
9.49506
9.49578
9.50024
12.8805
12.8866
12.9016
12.851
12.8818
12.864
3.15781
3.21747
3.27228
2.98931
3.12755
3.21481
)
;
    }
    water_front_surface
    {
        type            fixedFluxPressure;
        gradient        uniform 0;
        value           nonuniform List<scalar> 
186
(
6259.41
6156.11
6482.38
7122.25
7822.7
8573.23
9696.88
11756.2
14583.9
18690.8
21826.2
24237.6
85.1509
-50.0169
-37.3707
22.6868
231.141
547.967
1117.95
2511.87
7670.42
18451.2
23613.8
26637.3
-17.8956
-21.3145
-16.352
2.03009
14.9941
13.6559
12.7396
25.3018
130.461
6660.17
25504.1
31758
-13.8068
-12.1677
-6.28499
7.72329
16.677
15.8283
13.8488
15.3777
31.1113
1570.61
22894.7
38323.4
4.23237
4.42758
4.82158
5.42063
6.23038
7.24915
8.45603
9.79559
11.1485
12.3866
13.8824
12.5917
4.0367
4.23449
4.63395
5.24044
6.05682
7.07832
8.28765
9.65181
11.1241
12.6064
14.5124
9.49651
3.64751
3.84439
4.25018
4.89058
5.80648
7.04891
8.65074
10.576
12.6197
13.7987
16.4798
12.8805
3.07415
3.25676
3.6352
4.23308
5.08275
6.22667
7.73007
9.69896
11.9516
16.2691
28.3194
3.15781
-8.75991
-5.15794
-2.64554
-7.30425
-4.10678
-2.25404
-3.79134
-1.77959
-1.44791
3.14282
1.73216
-0.359677
7.2964
4.23188
0.637021
9.08431
5.17737
1.58982
11.199
5.23953
2.14511
5.66986
-2.5858
4.59307
21.3566
17.5563
0.913128
10.7046
9.06381
-5.3656
1926.1
346.074
68.8502
32172.5
1787.65
-27.7342
7094.35
3449.14
523.379
19156.7
435.073
-85.3901
23533
1.34631
-49.7048
30912.2
3892.05
-24.9625
34333.2
9412.94
-15.5771
34555.9
9326.7
-15.2561
2.33913
1.46441
0.505765
2.49237
1.56389
0.541227
2.81878
1.77539
0.616371
3.36942
2.12613
0.739454
4.24477
2.66464
0.920889
5.63764
3.46477
1.15189
7.8682
4.56357
1.36124
11.5009
6.73066
1.86359
17.6513
9.11935
2.7116
18.8155
-9.98767
-12.8213
19.176
29.6958
15.3154
37.4372
489.137
158.117
)
;
    }
    water_back_surface
    {
        type            fixedFluxPressure;
        gradient        uniform 0;
        value           nonuniform List<scalar> 
186
(
6259.43
6156.08
6482.36
7122.25
7822.71
8573.26
9696.89
11756.2
14583.9
18690.7
21826.1
24237.5
85.1351
-50.0177
-37.3707
22.6872
231.158
547.999
1118
2511.9
7670.33
18451.1
23613.7
26637.2
-17.8958
-21.315
-16.3527
2.03147
14.9963
13.6581
12.7407
25.2995
130.445
6659.73
25503.7
31757.8
-13.8065
-12.1675
-6.28502
7.72352
16.6768
15.8284
13.8499
15.378
31.1078
1569.89
22894.3
38322.6
4.23254
4.42773
4.82165
5.42048
6.22979
7.24825
8.45571
9.79702
11.1529
12.3857
13.8806
12.5883
4.03687
4.23458
4.63393
5.24024
6.05639
7.07819
8.28838
9.65206
11.1212
12.5998
14.514
9.50024
3.6476
3.84437
4.25012
4.89055
5.80648
7.04928
8.65115
10.574
12.6111
13.7895
16.4733
12.864
3.0741
3.25662
3.63525
4.23337
5.08309
6.22708
7.72974
9.69606
11.9453
16.2719
28.3308
3.21481
-8.7591
-5.15747
-2.64547
-7.30392
-4.10687
-2.25407
-3.79159
-1.77986
-1.44777
3.14274
1.7325
-0.359532
7.29636
4.2322
0.636997
9.0848
5.17748
1.58987
11.1997
5.23943
2.14538
5.66898
-2.58434
4.59399
21.3566
17.5591
0.914956
10.7077
9.06525
-5.3643
1925.45
346.258
68.9471
32176.6
1789.99
-27.7206
7152.91
3539.94
542.841
19168.3
476.985
-84.9205
23499.2
2.14394
-49.5655
30875.9
3866.6
-24.873
34335
9404.19
-15.56
34556.8
9327.28
-15.2394
2.33896
1.46423
0.505695
2.49223
1.56383
0.541243
2.81897
1.7756
0.616472
3.36972
2.12624
0.739457
4.24469
2.66446
0.920864
5.63724
3.46474
1.15208
7.86764
4.56353
1.36151
11.5019
6.73081
1.86505
17.659
9.09788
2.70123
18.8232
-10.0443
-12.9117
19.2364
29.5698
15.2811
37.5678
496.585
177.657
)
;
    }
    water_left_surface
    {
        type            fixedFluxPressure;
        gradient        uniform 0;
        value           nonuniform List<scalar> 
42
(
6259.41
6259.38
6259.4
6259.41
6259.39
6259.43
85.1509
85.0952
85.0975
85.1102
85.0927
85.1351
-17.8956
-17.8954
-17.8955
-17.8957
-17.8958
-17.8958
-13.8068
-13.8064
-13.8064
-13.8063
-13.8061
-13.8065
-8.75991
-8.75979
-8.7596
-8.75938
-8.75921
-8.7591
-5.15794
-5.15786
-5.15772
-5.15758
-5.15749
-5.15747
-2.64554
-2.64556
-2.64552
-2.64547
-2.64546
-2.64547
)
;
    }
    water_right_surface
    {
        type            fixedFluxPressure;
        gradient        uniform 0;
        value           nonuniform List<scalar> 
42
(
4.23237
4.23239
4.23243
4.23247
4.23251
4.23254
4.0367
4.03673
4.03678
4.03682
4.03686
4.03687
3.64751
3.64754
3.64758
3.6476
3.64761
3.6476
3.07415
3.07418
3.07418
3.07417
3.07414
3.0741
2.33913
2.33912
2.3391
2.33906
2.33901
2.33896
1.46441
1.46438
1.46435
1.46431
1.46426
1.46423
0.505765
0.505752
0.505735
0.505715
0.505699
0.505695
)
;
    }
    water_top_surface
    {
        type            totalPressure;
        rho             rho;
        psi             none;
        gamma           1;
        p0              uniform 0;
        value           nonuniform List<scalar> 
180
(
-1.36472
-1.365
-1.36499
-1.36501
-1.36504
-1.36476
-1.31291
-1.31316
-1.31312
-1.31312
-1.31313
-1.31283
-0.967589
-0.967788
-0.967751
-0.967737
-0.967756
-0.967528
-0.746054
-0.746275
-0.746272
-0.746279
-0.7463
-0.746098
-0.482428
-0.482623
-0.482633
-0.482634
-0.482627
-0.482419
-0.306523
-0.306614
-0.306606
-0.306617
-0.306646
-0.30655
-0.189563
-0.189627
-0.189632
-0.189686
-0.189768
-0.189722
-0.193013
-0.193032
-0.193014
-0.193077
-0.193071
-0.19298
0
0
0
0
0
0
0
0
0
0
0
0
0
0
0
0
0
0
-31.2162
-31.2825
-31.2598
-31.2452
-31.2691
-31.2405
0
0
0
0
0
0
-49.0021
-49.1978
-49.1117
-49.4825
-49.7631
-47.3863
-19.262
-19.2936
-19.2231
-19.439
-19.3517
-19.3344
-18.1407
-18.1836
-18.1633
-18.2054
-18.379
-17.9746
-12.8684
-12.8847
-12.8723
-12.9006
-12.9447
-12.8616
-15.9232
-15.9293
-15.9261
-15.9189
-15.9249
-15.9375
0
0
0
0
0
0
0
0
0
0
0
0
0
0
0
0
0
0
0
0
0
0
0
0
0
0
0
0
0
0
0
0
0
0
0
0
0
0
0
0
0
0
0
0
0
0
0
0
0
0
0
0
0
0
0
0
0
0
0
0
-0.0065209
-0.00607167
-0.00500685
-0.00755856
-0.00996228
0
0
0
0
0
0
0
)
;
    }
}


// ************************************************************************* //
