/*--------------------------------*- C++ -*----------------------------------*\
| =========                 |                                                 |
| \\      /  F ield         | OpenFOAM: The Open Source CFD Toolbox           |
|  \\    /   O peration     | Version:  v1612+                                |
|   \\  /    A nd           | Web:      www.OpenFOAM.com                      |
|    \\/     M anipulation  |                                                 |
\*---------------------------------------------------------------------------*/
FoamFile
{
    version     2.0;
    format      ascii;
    class       surfaceScalarField;
    location    "3.75";
    object      phi;
}
// * * * * * * * * * * * * * * * * * * * * * * * * * * * * * * * * * * * * * //

dimensions      [0 3 -1 0 0 0 0];

internalField   nonuniform List<scalar> 
2916
(
8.89906e-06
0.338138
-0.338147
7.45014e-06
0.33814
-0.338139
1.44613e-05
0.338142
-0.338149
4.62865e-06
0.33814
-0.33813
-1.44849e-05
0.33814
-0.338121
0.338139
-0.338154
1.7923e-05
0.620452
-0.282332
1.11032e-05
0.620459
-0.282311
1.0566e-05
0.620458
-0.282315
4.30521e-06
0.620457
-0.282311
-1.37821e-05
0.620458
-0.2823
0.620454
-0.282328
1.70797e-05
0.810026
-0.189591
1.02495e-05
0.810043
-0.189577
6.55899e-06
0.810038
-0.189577
3.83619e-06
0.810039
-0.189579
-5.48226e-06
0.810043
-0.189575
0.810028
-0.18958
1.52839e-05
0.948364
-0.138354
1.00908e-05
0.94839
-0.138342
4.95614e-06
0.948382
-0.138339
3.32122e-06
0.948383
-0.138343
-2.21917e-06
0.948388
-0.13834
0.948366
-0.13834
1.48906e-05
1.03852
-0.09017
9.3185e-06
1.03855
-0.0901553
4.18253e-06
1.03854
-0.0901548
1.88168e-06
1.03854
-0.0901572
-3.07951e-06
1.03855
-0.0901544
1.03852
-0.0901581
1.43017e-05
1.07071
-0.0322048
8.3073e-06
1.07074
-0.032187
3.11303e-06
1.07074
-0.0321885
-6.5526e-08
1.07074
-0.0321901
-5.55513e-06
1.07074
-0.0321874
1.07071
-0.0321955
1.21893e-05
0.983421
0.0872766
7.71502e-06
0.983454
0.0872947
1.57543e-06
0.983447
0.0872945
-3.09389e-06
0.983446
0.0872944
-7.80827e-06
0.98345
0.0872949
0.983419
0.0872849
6.05354e-06
0.679893
0.303522
5.77148e-06
0.679922
0.303532
-4.96402e-07
0.679921
0.303533
-5.58974e-06
0.679918
0.303533
-8.4643e-06
0.679923
0.30353
0.679883
0.303527
7.32524e-06
0.146023
0.533863
4.93446e-06
0.146045
0.533879
-7.46643e-07
0.146051
0.533875
-6.84592e-06
0.146047
0.533877
-1.49016e-05
0.146056
0.533875
0.145997
0.533871
2.2855e-05
-0.377095
0.523096
8.60256e-06
-0.377073
0.523132
1.25523e-06
-0.377063
0.523122
-6.60193e-06
-0.377067
0.523123
-2.65168e-05
-0.377051
0.523127
-0.377138
0.523108
3.61115e-05
-0.503413
0.126281
5.98884e-06
-0.503388
0.126345
-5.2669e-07
-0.503383
0.126326
-4.81457e-06
-0.503386
0.126323
-2.60285e-05
-0.50337
0.12634
-0.503436
0.126272
-3.93605e-06
-0.503409
-1.57205e-05
-0.503376
-1.17973e-05
-0.503387
-3.95619e-06
-0.503394
8.96587e-06
-0.503383
-0.503427
4.69436e-05
1.16397
-1.50216
-2.71754e-06
1.16403
-1.50212
2.56337e-05
1.16401
-1.50219
2.45943e-06
1.164
-1.50211
-0.00012897
1.16402
-1.50201
1.16395
-1.50223
-4.70214e-05
2.31831
-1.43663
-3.45764e-05
2.31837
-1.43666
-3.18987e-05
2.31838
-1.43668
-1.60492e-05
2.31831
-1.43664
1.42425e-05
2.31829
-1.4366
2.31827
-1.43664
-0.00017633
2.978
-0.849101
-8.05404e-05
2.97786
-0.849161
-0.000119026
2.97796
-0.849126
-3.12759e-05
2.97778
-0.849141
0.000233259
2.97759
-0.849146
2.97794
-0.849018
-0.000111342
2.74907
0.0906858
-4.18585e-05
2.74889
0.0905553
-4.40546e-05
2.74899
0.0906321
1.75162e-05
2.74883
0.0905497
0.000171863
2.74864
0.0904579
2.74903
0.090743
-1.24119e-05
2.36009
0.298826
1.37741e-06
2.36008
0.298649
2.2315e-05
2.36007
0.29875
3.99182e-05
2.36002
0.298631
4.2373e-05
2.35999
0.298487
2.36007
0.298839
4.878e-06
2.20407
0.123814
2.14125e-06
2.20412
0.123766
-1.29188e-06
2.20407
0.12381
8.85119e-06
2.20405
0.123766
2.29542e-05
2.20407
0.123718
2.20405
0.123853
1.13709e-05
1.9862
0.305133
-1.78539e-06
1.98632
0.305111
-6.07298e-06
1.98625
0.305118
-8.08815e-08
1.98624
0.305098
-3.37555e-06
1.98629
0.305083
1.98619
0.305134
3.50318e-05
1.44055
0.849131
6.35998e-06
1.4407
0.849186
-2.38811e-06
1.44063
0.849161
-6.55062e-06
1.44063
0.849153
-3.51517e-05
1.44068
0.849167
1.44056
0.849122
4.5331e-05
0.853696
1.12068
1.70175e-05
0.853857
1.12075
4.67042e-06
0.853793
1.12073
-6.94208e-06
0.853791
1.12073
-4.42026e-05
0.853843
1.12075
0.853721
1.12067
7.61747e-05
0.446764
0.929952
2.10829e-05
0.446929
0.930116
9.85795e-06
0.446872
0.930054
-2.28866e-06
0.446872
0.930054
-4.36424e-05
0.446925
0.930087
0.44679
0.929996
9.53931e-05
0.15035
0.422599
2.3349e-05
0.150521
0.422824
1.31874e-05
0.150482
0.422726
2.11104e-06
0.15048
0.422725
-4.53002e-05
0.150529
0.422783
0.150381
0.422635
-2.53484e-05
-0.353033
-1.81516e-05
-0.352862
-3.90789e-06
-0.35292
8.83367e-06
-0.352926
2.99683e-05
-0.352875
-0.353015
-0.000129663
-0.143961
-1.35807
-5.49783e-05
-0.143977
-1.35821
-2.09572e-05
-0.143993
-1.35823
4.22656e-05
-0.143983
-1.35819
0.000153129
-0.143962
-1.35816
-0.143977
-1.3581
-0.000109162
-0.339078
-1.2414
-3.35627e-05
-0.339108
-1.24161
2.19056e-06
-0.339125
-1.24158
6.06984e-05
-0.339105
-1.24157
0.000161262
-0.339066
-1.2416
-0.339066
-1.24139
-8.93941e-05
-0.159338
-1.02875
-1.25669e-05
-0.159375
-1.02897
2.58134e-05
-0.15937
-1.02892
6.08959e-05
-0.159351
-1.02893
0.0001373
-0.159314
-1.02898
-0.159262
-1.02869
-7.22577e-05
0.532684
-0.601264
-4.91258e-06
0.532651
-0.601541
4.02591e-05
0.53266
-0.601446
6.90138e-05
0.532673
-0.601506
0.000114043
0.532706
-0.601609
0.532771
-0.601175
-5.47203e-05
1.39635
-0.564789
-2.94522e-05
1.39632
-0.565048
2.20561e-05
1.39631
-0.564949
4.91774e-05
1.3963
-0.565022
4.55333e-05
1.39633
-0.565135
1.39638
-0.564724
-0.000152394
2.29128
-0.770961
-0.00015204
2.29121
-0.771123
-0.000108487
2.29115
-0.771078
-5.35358e-05
2.29113
-0.771117
-1.33299e-07
2.29116
-0.771162
2.29117
-0.770942
-0.000253897
3.09721
-0.500543
-0.000144834
3.09694
-0.500727
-0.000133371
3.09697
-0.500717
-9.4319e-05
3.09695
-0.500769
5.36551e-05
3.09691
-0.50082
3.09703
-0.50067
-7.15168e-05
2.63529
1.31112
-2.2612e-05
2.63511
1.31096
-2.56e-05
2.63514
1.311
-3.19468e-05
2.63512
1.31099
4.95389e-05
2.63507
1.31092
2.6352
1.311
-7.77676e-05
0.744242
3.0118
5.06312e-05
0.744938
3.01079
3.0545e-05
0.744571
3.01132
-5.67122e-05
0.744581
3.01136
1.85835e-05
0.744741
3.01101
0.744417
3.01147
0.000287492
0.485135
1.18877
5.08509e-05
0.485505
1.18979
3.30522e-05
0.485335
1.18931
2.7265e-05
0.485343
1.1893
-0.000123042
0.485439
1.18954
0.485234
1.18905
0.000311875
0.153466
0.753956
4.26143e-05
0.153799
0.754799
1.03275e-05
0.153692
0.754401
7.04247e-06
0.153699
0.754373
-0.000144285
0.153791
0.754583
0.153542
0.754183
-0.00011601
-0.199451
-2.62078e-05
-0.199152
-5.68372e-06
-0.199248
1.43781e-05
-0.199248
9.71877e-05
-0.199167
-0.199376
-4.02113e-06
-0.378389
-0.979675
3.72527e-06
-0.378313
-0.979909
-2.18677e-05
-0.378332
-0.979871
-1.90046e-05
-0.378323
-0.979867
2.47893e-05
-0.378298
-0.979908
-0.378414
-0.979665
1.58841e-05
-0.654414
-0.965392
1.77407e-05
-0.654268
-0.965656
4.61529e-06
-0.654292
-0.965614
1.19879e-06
-0.654282
-0.965614
6.91826e-06
-0.65424
-0.96566
-0.654426
-0.965366
9.68655e-06
-0.890126
-0.793047
4.73362e-06
-0.889933
-0.7933
9.21774e-06
-0.88996
-0.793258
-2.26268e-07
-0.889949
-0.793258
-1.46223e-05
-0.8899
-0.793304
-0.890118
-0.793008
-1.4496e-05
-0.827207
-0.66417
-3.93006e-05
-0.827036
-0.664416
-9.94417e-06
-0.827066
-0.664372
-1.87216e-05
-0.82707
-0.664377
-6.17391e-05
-0.827039
-0.664428
-0.827211
-0.664145
-4.94155e-05
-0.75867
-0.633279
-8.30788e-05
-0.758556
-0.633498
-3.48074e-05
-0.758601
-0.633465
-2.88978e-05
-0.758628
-0.633471
-6.57988e-05
-0.758622
-0.633515
-0.758727
-0.633275
-9.91811e-05
-0.729011
-0.800522
-9.06968e-05
-0.728975
-0.800716
-4.71412e-05
-0.729027
-0.8007
-1.49259e-05
-0.72907
-0.800711
1.83754e-05
-0.729083
-0.800737
-0.729105
-0.800548
-0.000102298
-0.0553794
-1.17407
1.52019e-05
-0.0554902
-1.17432
8.51071e-05
-0.0555199
-1.17429
0.000115223
-0.0555387
-1.17433
0.000178463
-0.0555839
-1.17438
-0.055417
-1.17418
0.00032256
0.650948
0.604467
6.94418e-05
0.651761
0.603962
0.000167216
0.651218
0.604164
0.000198602
0.65123
0.604194
5.92989e-05
0.651445
0.604031
0.651274
0.60437
0.000678126
-0.294278
3.95635
0.000203319
-0.292367
3.95539
0.000188768
-0.293393
3.95594
0.000175954
-0.293392
3.95599
-0.000120687
-0.292725
3.95547
-0.293632
3.95625
0.00187823
-0.668077
1.56069
0.000225945
-0.66741
1.56648
-5.37865e-05
-0.667851
1.56404
6.16421e-05
-0.66798
1.56377
-0.000970879
-0.667709
1.56555
-0.667977
1.56243
0.000948778
0.0426491
0.0422811
3.91373e-05
0.0430809
0.0452175
-0.000123656
0.0429293
0.043784
9.69272e-05
0.0429091
0.0432627
-0.000446027
0.0429453
0.0444719
0.0428326
0.0429275
4.38441e-05
-0.156846
1.37894e-05
-0.156041
2.30867e-05
-0.156328
4.63634e-05
-0.156362
-8.24165e-06
-0.156167
-0.156552
-2.82908e-06
-0.0306555
0.0306584
-4.12091e-06
-0.0306573
0.030659
-4.50833e-06
-0.0306582
0.0306591
-4.02722e-06
-0.030659
0.0306592
-2.56611e-06
-0.0306598
0.0306594
-0.0306601
0.0306587
-3.49191e-06
-0.0623694
0.0317177
-5.44841e-06
-0.0623738
0.0317191
-6.16725e-06
-0.0623759
0.0317193
-5.67731e-06
-0.0623777
0.0317193
-3.70671e-06
-0.0623797
0.031719
-0.0623805
0.0317175
-5.38602e-06
-0.0962428
0.0338789
-7.99891e-06
-0.0962514
0.0338809
-8.99637e-06
-0.0962554
0.033881
-8.36222e-06
-0.0962582
0.0338805
-5.72445e-06
-0.096261
0.0338794
-0.0962624
0.0338767
-1.07924e-05
-0.133172
0.0369405
-1.27566e-05
-0.133186
0.0369383
-1.2386e-05
-0.13319
0.036936
-1.02798e-05
-0.133192
0.0369332
-6.61258e-06
-0.133193
0.0369299
-0.133193
0.0369251
-1.71816e-05
-0.173414
0.0402596
-1.33015e-05
-0.17343
0.0402437
-6.50456e-06
-0.173429
0.0402352
-3.80009e-07
-0.173424
0.0402289
2.28984e-06
-0.173417
0.040224
-0.173409
0.0402201
-1.72657e-05
-0.215684
0.0422891
2.39371e-06
-0.215693
0.0422471
2.45235e-05
-0.215679
0.0422303
3.73037e-05
-0.215658
0.0422236
3.25047e-05
-0.215635
0.0422242
-0.215609
0.0422321
3.52796e-06
-0.255811
0.0401254
5.61842e-05
-0.255799
0.0400544
0.000100868
-0.25576
0.040037
0.00011757
-0.255718
0.0400431
9.11428e-05
-0.255675
0.0400658
-0.255622
0.0401047
4.80387e-05
-0.283295
0.0274365
0.000145811
-0.283254
0.0273556
0.000212381
-0.283191
0.0273637
0.000221064
-0.283137
0.0274095
0.000156241
-0.283087
0.027477
-0.283024
0.0275572
0.000117374
-0.277548
-0.00586565
0.000224664
-0.277472
-0.00588898
0.000277717
-0.277395
-0.00584723
0.000256242
-0.277334
-0.00577774
0.00015879
-0.27728
-0.00570639
-0.27721
-0.0056525
0.00014759
-0.225314
-0.0523812
0.000240363
-0.225225
-0.052344
0.000293818
-0.225171
-0.0522822
0.000223933
-0.225127
-0.0521413
0.000153985
-0.225093
-0.0521204
-0.225024
-0.0520323
6.64808e-05
-0.0635805
-0.161798
6.44575e-05
-0.0635259
-0.161691
0.000138001
-0.0634854
-0.161754
2.9639e-05
-0.0634703
-0.161545
4.62368e-05
-0.0634225
-0.161689
-0.0633538
-0.161625
-0.00013672
-0.0634455
-0.000205979
-0.0634583
-0.000111058
-0.0635803
-0.000216749
-0.0633653
-6.63211e-05
-0.063576
-0.0634234
-3.12424e-06
-0.0308177
0.0614795
-4.05103e-06
-0.03082
0.0614811
-4.04251e-06
-0.030821
0.0614814
-3.28512e-06
-0.0308219
0.0614819
-1.80407e-06
-0.0308227
0.0614823
-0.0308229
0.0614811
-3.62922e-06
-0.0622961
0.0632005
-4.8435e-06
-0.0623016
0.0632026
-4.82972e-06
-0.0623039
0.0632028
-3.97318e-06
-0.0623055
0.063203
-2.28843e-06
-0.0623071
0.0632027
-0.0623077
0.0632001
-4.64759e-06
-0.0945281
0.0661159
-5.65343e-06
-0.0945383
0.0661183
-5.20506e-06
-0.0945416
0.066118
-4.19633e-06
-0.0945433
0.0661171
-2.72908e-06
-0.0945446
0.0661155
-0.094545
0.0661114
-3.60139e-06
-0.126678
0.0690943
-1.54348e-06
-0.126692
0.0690911
8.76285e-07
-0.126694
0.0690872
2.0459e-06
-0.126693
0.0690831
1.72925e-06
-0.126691
0.0690786
-0.126689
0.0690721
6.61177e-06
-0.156761
0.0703381
1.70386e-05
-0.156774
0.0703187
2.36034e-05
-0.156769
0.070307
2.39594e-05
-0.15676
0.0702988
1.6859e-05
-0.156751
0.0702929
-0.156741
0.0702887
2.68641e-05
-0.181709
0.0672131
5.02936e-05
-0.181713
0.0671668
6.13785e-05
-0.181694
0.0671467
5.81944e-05
-0.181671
0.0671392
3.89115e-05
-0.181648
0.0671413
-0.181623
0.0671536
7.04428e-05
-0.198686
0.0570338
0.000106817
-0.198655
0.0569604
0.000116109
-0.198607
0.0569406
0.000101865
-0.198562
0.056948
6.53457e-05
-0.198521
0.0569752
-0.198474
0.0570219
0.000107395
-0.209208
0.0378505
0.00015338
-0.209128
0.0377814
0.000161834
-0.209043
0.0377895
0.000133294
-0.208959
0.0378338
8.33726e-05
-0.208897
0.0379028
-0.208815
0.0379804
0.000146522
-0.222994
0.00777353
0.000198808
-0.222837
0.00776715
0.000215438
-0.222716
0.00780665
0.000125815
-0.222563
0.0079141
9.68063e-05
-0.222543
0.00796627
-0.222414
0.00804223
0.000189247
-0.150295
-0.125268
0.000234431
-0.15005
-0.125172
0.000376185
-0.149893
-0.125242
8.8274e-05
-0.149893
-0.12452
0.000155885
-0.149723
-0.125008
-0.149595
-0.124698
-0.000110583
0.098463
-0.410449
-0.000247381
0.0986955
-0.410304
-7.91601e-05
0.0988918
-0.410711
-0.000393656
0.0985793
-0.409705
-0.000225461
0.0988973
-0.410478
0.0990005
-0.410446
-0.000457118
0.0354778
-0.00071595
0.0354937
-0.000443747
0.0350358
-0.000445752
0.035214
-0.000639067
0.0355167
0.0349371
-1.81368e-06
-0.0302743
0.0917561
-1.874e-06
-0.0302758
0.0917585
-1.53809e-06
-0.0302762
0.0917589
-8.3027e-07
-0.0302764
0.0917593
-3.41897e-08
-0.0302764
0.0917596
-0.0302757
0.0917575
-1.41989e-06
-0.0627861
0.0957148
-1.48921e-06
-0.0627905
0.0957173
-8.99089e-07
-0.0627914
0.0957174
-5.4712e-08
-0.0627916
0.0957173
6.27705e-07
-0.0627913
0.0957168
-0.0627893
0.0957134
-1.22512e-06
-0.100388
0.103719
-2.18041e-07
-0.100397
0.103721
1.51968e-06
-0.100397
0.10372
2.62005e-06
-0.100396
0.103718
2.3102e-06
-0.100394
0.103716
-0.100388
0.103712
1.89977e-06
-0.146879
0.115583
7.7061e-06
-0.146891
0.115579
1.23344e-05
-0.146889
0.115574
1.35363e-05
-0.146883
0.115569
1.00464e-05
-0.146876
0.115564
-0.146863
0.115557
1.43031e-05
-0.206698
0.130144
2.92796e-05
-0.206712
0.130127
3.72177e-05
-0.206702
0.130115
3.59065e-05
-0.206687
0.130106
2.41625e-05
-0.20667
0.130101
-0.206646
0.130096
3.72991e-05
-0.283123
0.143603
6.20979e-05
-0.283132
0.143564
6.97551e-05
-0.283105
0.143544
6.02301e-05
-0.283075
0.143537
3.57646e-05
-0.283044
0.14354
-0.283007
0.143551
5.29502e-05
-0.37339
0.147249
8.00413e-05
-0.373384
0.147186
8.16707e-05
-0.373334
0.147168
6.0147e-05
-0.373285
0.14718
2.82176e-05
-0.373242
0.147206
-0.373207
0.14725
6.24623e-05
-0.459733
0.124131
7.63834e-05
-0.459689
0.124072
6.9525e-05
-0.459623
0.124086
1.33316e-05
-0.459561
0.124167
-3.29851e-05
-0.459525
0.124232
-0.459537
0.124276
4.41639e-05
-0.437448
-0.0145576
3.61531e-05
-0.437378
-0.0145372
5.02759e-05
-0.437382
-0.0144485
-9.9873e-05
-0.437338
-0.0141583
-0.000159722
-0.437498
-0.0140012
-0.437262
-0.0143917
-0.000242325
-0.241297
-0.321179
-0.000335581
-0.241321
-0.321139
6.1405e-05
-0.241593
-0.321432
-0.000767235
-0.241043
-0.31999
-4.15204e-05
-0.24259
-0.32064
-0.240592
-0.321409
-0.000573626
0.115428
-0.766599
-0.000393498
0.115136
-0.766942
0.000748787
0.11446
-0.767908
-0.00100845
0.116386
-0.765378
0.000147301
0.112776
-0.767003
0.117108
-0.767997
-0.00126112
0.152166
-0.000587632
0.149957
0.00275146
0.146156
-0.000796157
0.155146
0.000708098
0.146792
0.152753
-7.57462e-07
-0.0274479
0.119206
-3.50153e-08
-0.0274491
0.119209
6.8169e-07
-0.0274491
0.119209
1.218e-06
-0.0274489
0.119209
1.34501e-06
-0.0274486
0.119209
-0.0274476
0.119206
8.25324e-07
-0.0564504
0.124717
1.43127e-06
-0.0564536
0.12472
2.19134e-06
-0.0564535
0.12472
2.55292e-06
-0.0564528
0.12472
2.05476e-06
-0.0564516
0.124719
-0.056449
0.124715
2.75028e-06
-0.0878257
0.13509
4.50759e-06
-0.0878306
0.135092
6.05335e-06
-0.0878291
0.13509
6.15336e-06
-0.0878261
0.135089
4.03384e-06
-0.0878223
0.135087
-0.087816
0.135082
8.56899e-06
-0.121409
0.149155
1.50848e-05
-0.121414
0.149154
1.82687e-05
-0.121409
0.14915
1.73246e-05
-0.121402
0.149145
1.143e-05
-0.121394
0.149142
-0.121382
0.149135
2.26134e-05
-0.155799
0.164511
3.29296e-05
-0.155798
0.164503
3.3926e-05
-0.155788
0.164495
2.79795e-05
-0.155777
0.16449
1.6212e-05
-0.155766
0.164486
-0.15575
0.164482
3.53233e-05
-0.187978
0.175749
3.60224e-05
-0.187964
0.175732
2.50604e-05
-0.187954
0.175723
9.0719e-06
-0.187945
0.175722
2.42573e-07
-0.187942
0.175725
-0.187929
0.17573
2.2027e-05
-0.213064
0.172314
-8.26503e-06
-0.213033
0.172286
-3.11977e-05
-0.213049
0.172286
-7.60079e-05
-0.213024
0.172303
-5.08366e-05
-0.21308
0.172319
-0.213068
0.172337
-4.30639e-05
-0.232622
0.143732
-0.000160977
-0.232569
0.143724
-0.000108507
-0.232791
0.143774
-0.000291522
-0.232431
0.143755
-0.000133673
-0.23292
0.143912
-0.232706
0.14378
-0.000210037
-0.362467
0.115498
-0.000437707
-0.362467
0.115587
-4.30967e-05
-0.363405
0.11577
-0.000779967
-0.361265
0.115409
-0.000353369
-0.36341
0.11606
-0.362696
0.115245
-0.0011704
-0.694255
0.0117786
-0.000236065
-0.696007
0.0114654
0.00359088
-0.700015
0.0113504
-0.00336718
-0.68628
0.0119811
-0.000896888
-0.698306
0.011784
-0.695551
0.0105468
-0.00109407
-1.14633
-0.313438
0.000380937
-1.14859
-0.315836
0.00489674
-1.15375
-0.318687
-0.000800646
-1.13612
-0.309845
0.00176201
-1.15126
-0.316611
-1.14793
-0.313855
-0.00119491
-0.992966
0.00114986
-1.00098
0.00306418
-1.00951
0.0066534
-0.984562
0.00286966
-1.00069
-0.992313
2.76298e-05
-0.96035
-0.019354
5.36578e-06
-0.960541
-0.0193484
-1.00714e-05
-0.96051
-0.0193476
-2.21005e-05
-0.960507
-0.0193477
-3.871e-05
-0.960541
-0.0193484
-0.960345
-0.0193538
3.88919e-05
-0.90007
-0.06032
1.10579e-05
-0.900192
-0.060322
-3.63744e-06
-0.900172
-0.0603222
-1.58989e-05
-0.900171
-0.0603222
-4.16623e-05
-0.90019
-0.0603221
-0.900065
-0.0603216
2.572e-05
-0.00522072
9.78314e-06
-0.00522072
1.67011e-06
-0.00522111
-6.75776e-06
-0.00522143
-2.34574e-05
-0.00522156
-0.00522241
3.4908e-05
-0.956812
-0.0279705
8.90007e-06
-0.957011
-0.0279689
-7.71896e-06
-0.956978
-0.0279671
-2.40523e-05
-0.956976
-0.0279689
-4.62662e-05
-0.957012
-0.0279717
-0.956793
-0.0279714
4.204e-05
-0.884182
-0.132994
1.22743e-05
-0.884304
-0.133
-4.66775e-06
-0.884283
-0.133
-2.10035e-05
-0.884282
-0.132999
-4.98988e-05
-0.884305
-0.133
-0.884175
-0.132996
2.50311e-05
-0.0117921
8.78364e-06
-0.0117918
8.80846e-07
-0.0117928
-7.5478e-06
-0.0117934
-2.6788e-05
-0.0117939
-0.0117947
2.42481e-05
-0.818029
-0.00301334
4.25029e-06
-0.818228
-0.00302365
-6.75492e-06
-0.818194
-0.00302234
-2.0331e-05
-0.818192
-0.00302361
-3.81396e-05
-0.818232
-0.00302625
-0.818006
-0.00301708
4.42105e-05
-0.764127
-0.186942
9.95858e-06
-0.764245
-0.186952
-9.13609e-06
-0.764227
-0.18695
-2.66985e-05
-0.764227
-0.186949
-5.96599e-05
-0.764251
-0.18695
-0.764126
-0.186938
2.222e-05
-0.0208591
5.03181e-06
-0.0208573
-3.03995e-06
-0.0208585
-1.03803e-05
-0.020859
-3.01097e-05
-0.0208592
-0.0208604
1.34587e-05
-0.718616
0.0514177
2.3984e-06
-0.718815
0.0513827
-5.43192e-06
-0.718779
0.0513886
-1.91332e-05
-0.718779
0.0513887
-3.50867e-05
-0.718821
0.0513804
-0.718611
0.0514087
4.17581e-05
-0.685673
-0.219929
5.88797e-06
-0.68579
-0.219944
-1.00501e-05
-0.685774
-0.21994
-2.31379e-05
-0.685775
-0.219938
-5.71398e-05
-0.685797
-0.21994
-0.68568
-0.21992
1.97556e-05
-0.0414256
1.68939e-06
-0.0414218
-5.93531e-06
-0.0414226
-1.13179e-05
-0.0414226
-2.64991e-05
-0.0414222
-0.0414252
1.2156e-05
-0.582873
0.000997728
1.20901e-05
-0.583076
0.000958625
8.65133e-06
-0.583043
0.000969549
-4.53244e-06
-0.583046
0.000975955
-2.19028e-05
-0.583087
0.000967012
-0.582888
0.00100172
4.66165e-05
-0.576723
-0.226128
1.38971e-05
-0.576842
-0.226147
2.1754e-07
-0.576827
-0.226144
-1.38916e-05
-0.576828
-0.226143
-5.05332e-05
-0.576847
-0.226146
-0.576729
-0.226127
2.03463e-05
-0.082329
3.40612e-06
-0.0823232
-3.17882e-06
-0.0823253
-8.81959e-06
-0.0823257
-1.98349e-05
-0.0823259
-0.082331
1.51718e-05
-0.514779
-0.284762
-3.23687e-07
-0.514946
-0.284797
-4.4368e-06
-0.514923
-0.2848
-8.9252e-07
-0.51492
-0.284814
-1.78555e-05
-0.514946
-0.284803
-0.514777
-0.284783
3.39465e-05
-0.498442
-0.2425
1.09555e-05
-0.498549
-0.242521
7.86932e-07
-0.498536
-0.242523
-1.76748e-05
-0.498536
-0.242512
-4.70416e-05
-0.498552
-0.242511
-0.498433
-0.242521
1.88308e-05
-0.1567
5.18367e-06
-0.156694
-2.37826e-06
-0.156701
-1.01183e-05
-0.156701
-1.82331e-05
-0.156704
-0.156703
2.90249e-05
-0.649129
-0.809736
2.26834e-05
-0.649302
-0.809814
3.98496e-05
-0.649276
-0.809835
3.39567e-05
-0.649285
-0.809856
7.46859e-08
-0.64932
-0.809834
-0.649172
-0.80979
3.03718e-05
-0.392844
-0.498812
-4.61141e-07
-0.392956
-0.498832
-2.08299e-06
-0.392943
-0.498852
-1.78679e-05
-0.39295
-0.498828
-4.19277e-05
-0.392976
-0.498828
-0.392873
-0.498863
9.70388e-06
-0.219578
-1.5411e-05
-0.219579
-1.69726e-05
-0.219608
-1.77693e-05
-0.2196
3.16645e-07
-0.219628
-0.219594
0.000305401
-0.374023
0.168448
8.53582e-05
-0.374405
0.168776
0.000125256
-0.37425
0.168538
9.39352e-05
-0.374203
0.168571
-6.25135e-05
-0.374271
0.168624
-0.374119
0.168636
3.13047e-07
-0.440564
-0.43227
-2.77104e-05
-0.440667
-0.432544
-6.58757e-06
-0.44062
-0.432506
-2.15191e-05
-0.440634
-0.432382
5.26275e-07
-0.440592
-0.432531
-0.440625
-0.432355
-3.97501e-05
-0.367549
-5.59012e-05
-0.367632
-3.4134e-05
-0.367663
-2.66857e-05
-0.367615
1.10156e-05
-0.36765
-0.367641
0.00130415
3.80847
0.315029
0.000256628
3.808
0.31722
0.000369641
3.80834
0.31602
0.000398736
3.80842
0.316103
-0.000583365
3.80805
0.317031
3.80868
0.315622
0.000301488
2.64961
0.726285
0.000106752
2.64977
0.725878
0.000158993
2.64989
0.725899
0.00025812
2.65009
0.725845
0.000434384
2.65031
0.725029
2.64969
0.727066
-0.000346577
1.00746
-0.000116026
1.00664
-0.000114405
1.00692
1.29607e-06
1.00688
0.000697906
1.00598
1.00788
-0.000197086
3.22901
-1.35309
1.81827e-05
3.23443
-1.35095
-0.000109315
3.23221
-1.35201
-5.75113e-05
3.23201
-1.35219
0.00071155
3.23321
-1.3514
3.23125
-1.35249
-0.00106287
4.32908
-0.372725
-0.000188883
4.33235
-0.372922
-0.000135467
4.33116
-0.373113
-1.46424e-05
4.33109
-0.373356
0.00135993
4.33166
-0.374796
4.33092
-0.371241
-0.00135917
0.91872
-0.000146165
0.916694
-6.93688e-05
0.91744
5.89121e-05
0.917141
0.00171723
0.914647
0.920403
-0.000217975
-0.587087
-0.723503
0.000125521
-0.584249
-0.721823
-0.000137766
-0.585407
-0.722561
-0.000124274
-0.586115
-0.722825
0.000872928
-0.585469
-0.722454
-0.585788
-0.722898
-0.00143278
0.907259
-1.86564
4.7967e-05
0.906474
-1.86513
0.000175321
0.906883
-1.86553
-1.03086e-05
0.906619
-1.8659
0.00237522
0.904805
-1.86746
0.909082
-1.86374
-0.000442053
-1.35959
9.58314e-05
-1.36098
0.000298114
-1.36036
0.000182632
-1.36044
0.000612738
-1.3617
-1.35854
0.000421531
-1.25355
0.372783
7.82015e-05
-1.25032
0.372796
1.11008e-05
-1.25167
0.372848
-1.57817e-05
-1.25186
0.372703
-0.000279715
-1.25127
0.372912
-1.25227
0.372544
-0.0013863
-3.23461
0.116805
0.000422684
-3.23508
0.117833
0.000802907
-3.23499
0.117413
8.018e-05
-3.2342
0.117159
-0.00033072
-3.23482
0.116501
-3.23449
0.118149
-0.000304572
-0.268627
0.00041809
-0.268281
0.000548859
-0.268069
0.000584977
-0.268111
0.000214867
-0.268219
-0.266359
-0.00158969
-0.995684
-3.60738
4.60466
-0.00107337
-0.997809
-3.60724
4.60453
-0.00230994
-0.997087
-3.60538
4.60371
0.000167711
-0.995759
-3.61209
4.60537
0.0112679
-0.998254
-3.61434
4.60149
-0.993126
-3.59643
4.60083
0.000755296
0.633668
-4.08714
2.45703
-0.00362193
0.628415
-4.09241
2.47057
-0.016764
0.628785
-4.08776
2.47503
-0.00323409
0.6327
-4.08879
2.4468
0.025906
0.622415
-4.10996
2.46015
0.642025
-4.08098
2.47173
0.00378731
-3.75104
1.8189
-0.00574272
-3.76291
1.8495
-0.0280954
-3.76284
1.8655
-0.0106964
-3.73836
1.7885
0.0330705
-3.73925
1.77095
-3.8019
1.91204
-0.00117426
-1.23342
-2.37279
-0.000433311
-1.23551
-2.37247
-0.00137797
-1.23298
-2.37145
-0.000528967
-1.23863
-2.37431
0.00937045
-1.25187
-2.37236
-1.21436
-2.3727
-0.000699593
-2.20952
-3.11033
-0.000477369
-2.21545
-3.11269
0.00033016
-2.2111
-3.11045
0.00978807
-2.22596
-3.11091
0.0195666
-2.24878
-3.12284
-2.15588
-3.11989
0.00374273
-2.49147
0.000886254
-2.49547
-0.000120751
-2.49599
0.00865604
-2.48629
0.0119772
-2.49211
-2.52819
6.14303e-05
-1.02199
-1.35086
-6.04203e-05
-1.02131
-1.35104
-0.000980995
-1.0197
-1.35084
-0.000737813
-1.02437
-1.35018
0.000337927
-1.02445
-1.34899
-1.02163
-1.35074
0.000732734
-1.47538
-2.65768
0.00141167
-1.47629
-2.65838
0.00384847
-1.47328
-2.65931
0.0100897
-1.48328
-2.65824
0.00473722
-1.48154
-2.66039
-1.4767
-2.66008
0.00321309
-1.74969
0.00407587
-1.7509
0.00555939
-1.75256
0.0153002
-1.75124
0.0164044
-1.75256
-1.76419
0.000173714
-0.60781
-0.743222
0.000151582
-0.607788
-0.743233
0.000153547
-0.607646
-0.743195
0.000128855
-0.607366
-0.742788
0.000233943
-0.606854
-0.742238
-0.607491
-0.743013
-0.000566479
-1.35146
-1.91346
-0.00013919
-1.35301
-1.91359
-0.00121379
-1.35211
-1.91377
0.000574124
-1.35392
-1.91348
0.00783618
-1.36166
-1.91284
-1.34315
-1.91659
0.00100939
-1.10476
0.00191965
-1.10539
0.0016957
-1.10604
0.00306348
-1.1059
0.00458024
-1.10653
-1.11324
0.000183111
-0.262354
-0.48105
7.32676e-05
-0.262227
-0.480897
0.000142558
-0.262336
-0.480928
-0.000123462
-0.261585
-0.480937
-0.000869349
-0.260189
-0.481303
-0.263473
-0.48041
-0.000424656
-1.01883
-1.15656
-0.000132985
-1.01929
-1.15682
-0.000777803
-1.01873
-1.15673
0.000147788
-1.01966
-1.15633
0.00353951
-1.02102
-1.15541
-1.01834
-1.15817
0.000338362
-0.436038
0.00102655
-0.436585
0.0013088
-0.437013
0.0021668
-0.436586
0.00361254
-0.436449
-0.440451
0.000124347
-0.108391
9.53221e-05
-0.108072
0.000216791
-0.108202
1.2137e-05
-0.108029
-0.000819864
-0.107558
-0.108685
-0.000350488
-1.1478
0.000104912
-1.14752
0.000162199
-1.14757
6.13305e-05
-1.1471
0.000253351
-1.14666
-1.14846
-7.05733e-05
0.000305253
0.00024225
0.000665029
0.00197754
5.41761e-07
0.140425
-0.0212186
1.30281e-06
0.140428
-0.0212188
1.64668e-06
0.140428
-0.0212186
1.69679e-06
0.140428
-0.0212185
1.39181e-06
0.140428
-0.0212184
0.140425
-0.021218
7.47114e-07
0.153967
-0.013542
1.12028e-06
0.153971
-0.0135422
1.21277e-06
0.153971
-0.0135422
1.08766e-06
0.15397
-0.0135423
6.66847e-07
0.15397
-0.0135424
0.153967
-0.0135423
4.04643e-07
-0.00563834
4.63076e-07
-0.00563852
4.68989e-07
-0.0056386
3.60983e-07
-0.00563868
9.06727e-08
-0.00563876
-0.00563867
1.98442e-06
0.148779
-0.0452819
2.12356e-06
0.148783
-0.0452829
2.15225e-06
0.148782
-0.0452827
1.84628e-06
0.148782
-0.0452826
9.94739e-07
0.148781
-0.0452825
0.148778
-0.0452814
1.26229e-06
0.163389
-0.0281534
1.0123e-06
0.163393
-0.0281541
8.64949e-07
0.163392
-0.0281542
5.14354e-07
0.163392
-0.0281542
-1.38117e-07
0.163392
-0.0281543
0.163388
-0.0281537
2.24942e-07
-0.012587
1.21838e-07
-0.0125875
8.46462e-08
-0.0125877
-5.23802e-08
-0.0125877
-2.40028e-07
-0.0125878
-0.0125873
2.37035e-06
0.166375
-0.0765726
2.63236e-06
0.166379
-0.0765745
2.70722e-06
0.166378
-0.0765741
2.16486e-06
0.166377
-0.0765737
8.95423e-07
0.166377
-0.0765734
0.166372
-0.0765711
6.34886e-07
0.183108
-0.0448899
5.06663e-07
0.183113
-0.0448906
4.9937e-07
0.183112
-0.0448904
2.7554e-07
0.183112
-0.0448902
-1.46701e-07
0.183112
-0.04489
0.183108
-0.0448889
-2.57812e-07
-0.0225673
-2.54007e-07
-0.022568
-9.26926e-08
-0.0225682
-5.9836e-08
-0.022568
1.44818e-07
-0.0225681
-0.0225672
3.12103e-06
0.19521
-0.122633
5.08257e-06
0.195212
-0.122636
5.43461e-06
0.19521
-0.122636
4.39181e-06
0.195208
-0.122636
2.77628e-06
0.195207
-0.122636
0.195201
-0.122634
1.12466e-06
0.215328
-0.0650109
1.80137e-06
0.215333
-0.0650115
1.84132e-06
0.215332
-0.0650116
1.57208e-06
0.215332
-0.0650124
1.20446e-06
0.215331
-0.0650134
0.215326
-0.0650136
-3.57459e-07
-0.0377002
-3.10742e-07
-0.0377014
6.9633e-08
-0.0377023
1.77671e-07
-0.0377021
5.25491e-07
-0.0377031
-0.0377017
5.87326e-06
0.238446
-0.196574
8.1381e-06
0.238446
-0.196579
6.63602e-06
0.238442
-0.196579
2.20771e-06
0.238438
-0.196579
4.32554e-07
0.238436
-0.196584
0.23843
-0.196583
2.17368e-06
0.264179
-0.0907451
1.059e-06
0.264185
-0.0907471
-1.25618e-06
0.264184
-0.0907501
-2.80253e-06
0.264183
-0.0907552
-2.57215e-06
0.264183
-0.0907611
0.264177
-0.0907645
-6.02592e-07
-0.0605303
-1.81337e-06
-0.0605328
-1.63264e-06
-0.0605364
-2.01681e-06
-0.0605364
-1.40633e-06
-0.0605405
-0.0605376
8.38909e-06
0.302836
-0.323667
5.91183e-06
0.302832
-0.323675
-3.65731e-06
0.302825
-0.323673
-1.66384e-05
0.302823
-0.323667
-1.62451e-05
0.302823
-0.323683
0.302823
-0.323694
-1.65917e-06
0.338642
-0.126549
-1.08611e-05
0.338648
-0.126556
-1.92621e-05
0.338648
-0.126565
-2.50861e-05
0.338648
-0.126574
-2.02387e-05
0.33865
-0.126592
0.338644
-0.126603
-4.97913e-06
-0.0896191
-1.01467e-05
-0.0896261
-1.01243e-05
-0.0896385
-1.09463e-05
-0.0896392
-4.65396e-06
-0.0896536
-0.0896475
9.8186e-06
0.39568
-0.547042
7.84491e-06
0.395671
-0.547058
-2.35598e-05
0.395663
-0.547018
-6.30615e-05
0.395669
-0.546993
-4.64351e-05
0.395675
-0.547055
0.395691
-0.547093
-3.4925e-05
0.449012
-0.179847
-7.33373e-05
0.44902
-0.179868
-9.69167e-05
0.449021
-0.179901
-0.000111092
0.449022
-0.179911
-9.97462e-05
0.449032
-0.179958
0.449037
-0.180045
-2.88362e-05
-0.124386
-5.47534e-05
-0.124409
-5.71202e-05
-0.124463
-6.19205e-05
-0.124473
-2.18871e-05
-0.124547
-0.124523
-3.013e-05
0.532351
-0.935632
0.000181375
0.532376
-0.935921
0.000379815
0.532371
-0.935812
-0.000245256
0.532244
-0.934854
-0.00126564
0.53233
-0.934453
0.532439
-0.937015
-4.46678e-05
0.635103
-0.282555
-0.000110027
0.635116
-0.282544
-0.000105376
0.635082
-0.282618
-0.000201209
0.635023
-0.282597
-4.59155e-05
0.635059
-0.282843
0.634989
-0.282645
-0.000100621
-0.150914
-0.000291758
-0.150881
-0.000309576
-0.151216
-0.0003083
-0.151342
6.40103e-05
-0.151933
-0.15131
-1.75147e-05
0.929974
-1.75009
0.000866654
0.930155
-1.75137
0.00217238
0.930257
-1.7516
-0.000633907
0.929466
-1.74611
-0.00884343
0.929812
-1.73999
0.930293
-1.76091
-0.000162567
0.856256
-0.208674
0.00020754
0.856304
-0.209063
0.000903875
0.856241
-0.2093
-0.000401395
0.85619
-0.208016
-0.00241738
0.856377
-0.207391
0.856008
-0.210779
-0.000271285
-0.0487314
8.15418e-06
-0.0493779
0.000732393
-0.050172
-0.000217306
-0.0482504
-0.000784569
-0.0493573
-0.0503781
0.000841381
1.54371
-3.28287
0.000845524