/*--------------------------------*- C++ -*----------------------------------*\
| =========                 |                                                 |
| \\      /  F ield         | OpenFOAM: The Open Source CFD Toolbox           |
|  \\    /   O peration     | Version:  v1612+                                |
|   \\  /    A nd           | Web:      www.OpenFOAM.com                      |
|    \\/     M anipulation  |                                                 |
\*---------------------------------------------------------------------------*/
FoamFile
{
    version     2.0;
    format      ascii;
    class       volVectorField;
    location    "3.75";
    object      U;
}
// * * * * * * * * * * * * * * * * * * * * * * * * * * * * * * * * * * * * * //

dimensions      [0 1 -1 0 0 0 0];

internalField   nonuniform List<vector> 
1116
(
(0.302243 4.3843e-06 -0.294301)
(0.302243 9.11898e-06 -0.294306)
(0.302248 9.94032e-06 -0.294293)
(0.302246 1.55798e-05 -0.294292)
(0.302244 -9.4711e-06 -0.294304)
(0.302244 -1.30313e-05 -0.294292)
(0.979803 1.51204e-05 -0.380182)
(0.97981 1.53863e-05 -0.380195)
(0.979812 9.15618e-06 -0.380178)
(0.979809 1.43123e-05 -0.380172)
(0.979808 -7.35657e-06 -0.38019)
(0.979806 -1.81112e-05 -0.380182)
(1.45472 1.56594e-05 -0.280755)
(1.45475 1.49147e-05 -0.280774)
(1.45474 5.77907e-06 -0.280759)
(1.45474 9.13326e-06 -0.280754)
(1.45475 -1.25806e-06 -0.280772)
(1.45473 -1.12904e-05 -0.280763)
(1.78642 1.45277e-05 -0.147249)
(1.78646 1.46845e-05 -0.14727)
(1.78645 4.21685e-06 -0.147258)
(1.78645 7.23175e-06 -0.147256)
(1.78646 7.88929e-07 -0.147272)
(1.78643 -7.04092e-06 -0.147259)
(2.00077 1.37184e-05 -0.0349907)
(2.00082 1.50872e-05 -0.0350094)
(2.00081 2.7266e-06 -0.0349994)
(2.00081 6.75468e-06 -0.0349986)
(2.00082 -1.69536e-06 -0.0350115)
(2.00077 -6.83506e-06 -0.0349976)
(2.13017 1.21644e-05 0.0490968)
(2.13024 1.50424e-05 0.0490821)
(2.13022 1.6228e-06 0.0490906)
(2.13022 5.24446e-06 0.0490907)
(2.13023 -5.16487e-06 0.04908)
(2.13018 -6.99828e-06 0.0490946)
(2.10995 8.88564e-06 0.129175)
(2.11002 1.4251e-05 0.129165)
(2.11001 1.30623e-06 0.129173)
(2.11001 2.26558e-06 0.129173)
(2.11001 -8.76667e-06 0.129164)
(2.10995 -5.85609e-06 0.129177)
(1.83155 1.77024e-06 0.295667)
(1.83161 1.05435e-05 0.295662)
(1.8316 4.01673e-07 0.295667)
(1.8316 -1.06153e-06 0.295667)
(1.83161 -1.14714e-05 0.295659)
(1.83154 -3.33051e-06 0.295675)
(1.07199 -8.16082e-07 0.690302)
(1.07205 1.23414e-05 0.690307)
(1.07205 -6.40702e-07 0.690304)
(1.07204 -2.42619e-07 0.690305)
(1.07205 -1.68399e-05 0.690302)
(1.07197 -7.32097e-06 0.690316)
(-0.114061 1.2472e-05 0.785964)
(-0.114008 2.43526e-05 0.786018)
(-0.11399 -3.00699e-06 0.786003)
(-0.114001 5.95035e-06 0.786004)
(-0.113971 -2.32521e-05 0.78602)
(-0.11414 -2.02337e-05 0.78598)
(-1.25275 3.13467e-05 -0.127274)
(-1.25269 2.69002e-05 -0.127193)
(-1.25267 -1.0173e-05 -0.127202)
(-1.25268 8.3075e-06 -0.127212)
(-1.25264 -2.12853e-05 -0.127173)
(-1.25285 -2.07845e-05 -0.127329)
(-0.983992 -5.92416e-07 -1.11342)
(-0.983926 -1.15561e-05 -1.11346)
(-0.983931 -1.2812e-05 -1.11345)
(-0.983931 -1.31291e-05 -1.11346)
(-0.983898 2.84152e-06 -1.11347)
(-0.983989 1.96248e-05 -1.11347)
(0.702511 6.32376e-05 -1.31617)
(0.702517 -9.51342e-06 -1.31619)
(0.702514 1.56636e-05 -1.31626)
(0.702513 4.01158e-05 -1.31615)
(0.70252 -5.2513e-05 -1.31611)
(0.702501 -0.000133491 -1.31625)
(3.39873 1.71423e-05 -1.39598)
(3.39901 -9.33691e-05 -1.39586)
(3.39894 2.32473e-06 -1.39591)
(3.3989 -4.55746e-05 -1.39587)
(3.39901 4.05769e-05 -1.39579)
(3.39868 -4.57856e-05 -1.39597)
(6.22619 -7.1938e-05 -0.810514)
(6.2261 -0.00019269 -0.810428)
(6.22623 -1.23571e-05 -0.810436)
(6.22597 -0.000197661 -0.81044)
(6.22573 0.00018153 -0.810388)
(6.22611 0.00013449 -0.810431)
(5.92969 -3.74008e-05 -0.13194)
(5.92913 -0.000147313 -0.131945)
(5.92945 4.69954e-05 -0.131911)
(5.92894 -0.00012852 -0.131977)
(5.92833 0.000178509 -0.132013)
(5.9295 9.38056e-05 -0.131894)
(4.79972 3.30484e-05 -0.245045)
(4.79962 -6.0343e-05 -0.245006)
(4.79965 6.48981e-05 -0.244999)
(4.79953 -2.89553e-05 -0.245033)
(4.79943 0.000100926 -0.245042)
(4.7997 -1.05766e-05 -0.245012)
(4.47328 4.74781e-05 -0.207252)
(4.47335 -3.31546e-05 -0.207162)
(4.47327 3.34779e-05 -0.207177)
(4.47323 -3.51891e-05 -0.207185)
(4.47324 5.85417e-05 -0.207163)
(4.47325 -2.60701e-05 -0.207213)
(4.2053 4.91358e-05 0.119154)
(4.2055 -1.83096e-05 0.119224)
(4.20536 1.20961e-05 0.119216)
(4.20534 -2.37495e-05 0.119216)
(4.20541 2.61667e-05 0.119228)
(4.20527 -3.71248e-05 0.11918)
(3.60073 5.6109e-05 0.677861)
(3.60101 9.4217e-06 0.677901)
(3.60087 1.31967e-06 0.677899)
(3.60086 -5.52718e-06 0.677901)
(3.60096 -8.2832e-06 0.677899)
(3.60073 -5.18228e-05 0.677873)
(2.51014 5.40189e-05 1.1769)
(2.51045 3.0536e-05 1.17695)
(2.51032 3.15607e-06 1.17694)
(2.51032 7.41923e-06 1.17695)
(2.51042 -2.52564e-05 1.17694)
(2.51018 -5.3074e-05 1.17692)
(1.67578 6.84214e-05 1.28705)
(1.67615 5.49062e-05 1.28715)
(1.67601 -1.88195e-06 1.28712)
(1.676 1.87483e-05 1.28712)
(1.67612 -2.60663e-05 1.28713)
(1.67584 -4.66383e-05 1.28708)
(0.616142 8.63959e-05 0.600359)
(0.616505 6.93923e-05 0.600561)
(0.616397 -1.09652e-05 0.60048)
(0.616396 3.05085e-05 0.600476)
(0.616508 -2.78045e-05 0.600517)
(0.616203 -4.79577e-05 0.600375)
(-0.0715871 -2.96674e-05 -0.88362)
(-0.071155 -2.91862e-05 -0.883475)
(-0.0712518 8.07645e-07 -0.88352)
(-0.0712576 -1.00328e-05 -0.883536)
(-0.0711427 2.48867e-05 -0.883489)
(-0.0715085 3.83669e-05 -0.883647)
(-0.178953 -0.000109626 -3.68269)
(-0.178961 -0.000105346 -3.68257)
(-0.178984 -1.13739e-05 -3.68275)
(-0.178972 -3.83271e-05 -3.68255)
(-0.178944 0.000128043 -3.68229)
(-0.178995 0.000145667 -3.68287)
(-0.686585 -9.39874e-05 -2.75078)
(-0.68665 -8.52584e-05 -2.75099)
(-0.686696 9.84653e-06 -2.75098)
(-0.686657 -5.63021e-06 -2.75092)
(-0.686586 0.000136247 -2.75089)
(-0.686619 0.000136449 -2.75078)
(-0.855154 -6.85347e-05 -1.87108)
(-0.855218 -7.01821e-05 -1.87139)
(-0.855228 3.56171e-05 -1.87127)
(-0.855184 1.83337e-05 -1.87134)
(-0.855104 0.000118185 -1.87145)
(-0.855051 9.99521e-05 -1.87092)
(0.264546 -5.84016e-05 0.202492)
(0.264431 -6.61965e-05 0.202037)
(0.264481 4.94331e-05 0.202277)
(0.264493 2.45168e-05 0.202064)
(0.264526 0.000113985 0.201787)
(0.264744 8.72843e-05 0.202676)
(2.07611 -5.12037e-05 0.882703)
(2.07598 -7.11154e-05 0.882183)
(2.076 2.96104e-05 0.882458)
(2.07597 2.85711e-06 0.882175)
(2.07599 6.49503e-05 0.881799)
(2.07622 4.90478e-05 0.882749)
(3.5058 -0.000105042 0.464249)
(3.50569 -0.000182108 0.464026)
(3.50567 -9.2751e-05 0.464167)
(3.50563 -0.000111556 0.464053)
(3.50569 -1.08043e-05 0.463901)
(3.50581 2.52223e-05 0.46433)
(5.7204 -0.000166116 0.739131)
(5.72016 -0.000240179 0.738995)
(5.72001 -9.36891e-05 0.739023)
(5.71996 -0.000151404 0.738953)
(5.71998 6.21002e-06 0.738888)
(5.72007 6.55178e-05 0.739094)
(6.48602 -5.34543e-05 2.05195)
(6.48503 -7.87181e-05 2.052)
(6.48535 1.6412e-05 2.05196)
(6.4853 -7.10453e-05 2.05193)
(6.48505 3.20841e-05 2.05194)
(6.48558 4.51406e-05 2.05186)
(3.28787 -9.80581e-05 2.68383)
(3.28955 -4.35774e-05 2.68372)
(3.28864 0.000112645 2.68379)
(3.28864 -6.89188e-05 2.68378)
(3.28904 -4.59385e-07 2.68379)
(3.28825 3.75164e-05 2.68369)
(1.86341 0.000254693 2.0937)
(1.86437 0.000169528 2.09419)
(1.86389 -2.77574e-05 2.094)
(1.86391 7.72366e-05 2.094)
(1.86415 -4.98697e-05 2.09412)
(1.86369 -0.00012533 2.09384)
(1.10212 0.000316065 1.11329)
(1.103 0.00019738 1.11389)
(1.10265 -8.60754e-05 1.11363)
(1.10266 9.68551e-05 1.11362)
(1.10291 -8.40756e-05 1.11378)
(1.10233 -0.000165759 1.11342)
(-0.274629 -0.0001103 -0.393619)
(-0.273826 -8.39274e-05 -0.393105)
(-0.274058 2.23788e-05 -0.393278)
(-0.274045 -3.29618e-05 -0.393286)
(-0.273826 6.92685e-05 -0.393139)
(-0.274469 9.25906e-05 -0.393504)
(-0.414877 -1.68416e-05 -1.95607)
(-0.41481 1.76946e-05 -1.95654)
(-0.414834 -1.77741e-05 -1.95646)
(-0.414819 -1.56652e-05 -1.95648)
(-0.414793 -5.86437e-06 -1.95656)
(-0.414913 3.22555e-05 -1.95604)
(-1.17292 3.64698e-06 -2.01386)
(-1.17271 3.23563e-05 -2.0144)
(-1.17275 -2.26117e-06 -2.01432)
(-1.17273 1.02167e-05 -2.01433)
(-1.17266 -7.01774e-06 -2.01442)
(-1.17296 1.53694e-05 -2.0138)
(-1.69034 3.1223e-06 -1.81708)
(-1.68999 1.50922e-05 -1.81758)
(-1.69004 -2.86361e-06 -1.81751)
(-1.69002 1.66174e-05 -1.8175)
(-1.68992 -1.80532e-05 -1.81757)
(-1.69034 -6.85128e-06 -1.817)
(-1.80488 -1.70809e-05 -1.80636)
(-1.80455 -2.36561e-05 -1.80683)
(-1.8046 -2.61501e-05 -1.80675)
(-1.80459 2.86603e-06 -1.80675)
(-1.80451 -4.94978e-05 -1.80682)
(-1.80486 -3.44108e-05 -1.80627)
(-1.74547 -5.34171e-05 -2.12736)
(-1.74522 -7.22929e-05 -2.12773)
(-1.74529 -5.00554e-05 -2.12768)
(-1.74532 -2.89313e-05 -2.12768)
(-1.74529 -5.32989e-05 -2.12773)
(-1.74553 -2.25869e-05 -2.12728)
(-1.98159 -9.3061e-05 -2.65439)
(-1.98145 -0.000109313 -2.65475)
(-1.98155 -4.012e-05 -2.65474)
(-1.98162 -5.14688e-05 -2.65478)
(-1.98163 1.88494e-06 -2.65481)
(-1.98172 5.27239e-05 -2.65447)
(-1.65544 -9.49708e-05 -2.12016)
(-1.65536 -6.73053e-05 -2.12066)
(-1.6555 8.36901e-05 -2.12064)
(-1.6556 5.77563e-05 -2.12074)
(-1.6556 0.000161199 -2.12085)
(-1.65558 0.000176976 -2.12052)
(1.51783 0.000267852 3.53498)
(1.51701 0.000156582 3.53436)
(1.51705 4.7288e-05 3.53453)
(1.51703 0.000188345 3.53452)
(1.51675 0.000113375 3.53429)
(1.51767 4.85801e-05 3.53466)
(3.04054 0.000660777 8.14798)
(3.04516 0.000456809 8.14525)
(3.04275 -3.74776e-05 8.1467)
(3.04307 0.000319611 8.14684)
(3.04422 2.69949e-05 8.14574)
(3.04243 -0.000212997 8.14714)
(-2.20643 0.00190987 2.92642)
(-2.20408 0.00121446 2.9303)
(-2.20552 -0.000712412 2.92846)
(-2.20594 0.000583043 2.9284)
(-2.20486 -0.000483948 2.92932)
(-2.20609 -0.00112241 2.92753)
(1.22753 0.00116124 1.98933)
(1.22953 0.000676353 1.99208)
(1.22865 -0.000544933 1.99081)
(1.22857 0.000327317 1.99071)
(1.22907 -0.000219988 1.99139)
(1.22817 -0.000633378 1.99011)
(-0.632247 1.08172e-06 -0.340982)
(-0.63157 4.30358e-05 -0.340372)
(-0.631741 4.47009e-06 -0.340547)
(-0.631787 3.73531e-05 -0.34053)
(-0.631908 3.59793e-05 -0.340347)
(-0.63191 -4.45974e-05 -0.340873)
(0.0302747 -1.85995e-06 0.030695)
(0.0302764 -3.85283e-06 0.0306955)
(0.0302774 -4.28804e-06 0.0306955)
(0.0302782 -4.34926e-06 0.0306955)
(0.030279 -3.52638e-06 0.0306956)
(0.0302794 -1.45303e-06 0.0306948)
(0.09182 -2.19033e-06 0.031811)
(0.0918258 -4.76166e-06 0.0318123)
(0.0918286 -5.88244e-06 0.0318123)
(0.091831 -6.03176e-06 0.0318122)
(0.0918337 -5.1398e-06 0.0318117)
(0.0918348 -2.03184e-06 0.0318098)
(0.156447 -3.07082e-06 0.0344404)
(0.15646 -7.0113e-06 0.0344431)
(0.156465 -8.75848e-06 0.0344433)
(0.15647 -8.85203e-06 0.0344426)
(0.156474 -7.71526e-06 0.0344413)
(0.156476 -3.23511e-06 0.0344383)
(0.226007 -6.37035e-06 0.0399545)
(0.226028 -1.28305e-05 0.0399531)
(0.226036 -1.31521e-05 0.039951)
(0.226041 -1.14878e-05 0.0399479)
(0.226046 -9.37652e-06 0.0399442)
(0.226047 -4.00074e-06 0.0399382)
(0.301316 -1.19024e-05 0.0511476)
(0.301346 -1.82125e-05 0.0511303)
(0.301352 -1.03968e-05 0.0511214)
(0.30135 -3.1971e-06 0.0511141)
(0.301347 1.31187e-06 0.0511083)
(0.301341 1.27269e-06 0.0511021)
(0.380656 -1.71059e-05 0.0721983)
(0.380688 -1.24611e-05 0.0721489)
(0.380677 1.58307e-05 0.0721287)
(0.380656 3.21172e-05 0.0721194)
(0.38063 3.89675e-05 0.072118)
(0.3806 1.94001e-05 0.0721223)
(0.457518 -1.4084e-05 0.107416)
(0.457532 2.14382e-05 0.107337)
(0.457487 8.48807e-05 0.107315)
(0.457428 0.000111865 0.107318)
(0.457362 0.000115325 0.107339)
(0.457285 5.50559e-05 0.107374)
(0.517331 1.54251e-06 0.156983)
(0.517293 8.78681e-05 0.156901)
(0.517196 0.000192361 0.156901)
(0.517095 0.000222522 0.156943)
(0.516993 0.000209058 0.157008)
(0.516867 9.61664e-05 0.157084)
(0.536657 4.15951e-05 0.203757)
(0.536545 0.000169769 0.203731)
(0.536387 0.000268363 0.203791)
(0.536245 0.000275689 0.203914)
(0.536115 0.000236797 0.204038)
(0.535961 0.000106368 0.204149)
(0.487354 7.48167e-05 0.193573)
(0.487157 0.000203687 0.193693)
(0.486998 0.000280761 0.19382)
(0.486839 0.000268468 0.194065)
(0.486749 0.000206838 0.19417)
(0.486574 9.64598e-05 0.194365)
(0.268061 5.2055e-05 0.0720576)
(0.267831 6.56033e-05 0.0723093)
(0.267722 0.000111959 0.072315)
(0.267633 7.58861e-05 0.072456)
(0.267553 1.22803e-05 0.072378)
(0.26735 4.12791e-05 0.0725041)
(-0.0027589 -6.78413e-05 0.192755)
(-0.00287317 -0.000188663 0.192881)
(-0.00290041 -0.000157371 0.192742)
(-0.00290196 -0.000154283 0.192751)
(-0.00297664 -0.000165952 0.19267)
(-0.00303228 -4.07259e-05 0.19258)
(0.0298577 -1.93051e-06 0.0897021)
(0.0298598 -3.99031e-06 0.0897044)
(0.0298608 -3.90199e-06 0.0897048)
(0.0298616 -3.69243e-06 0.0897054)
(0.0298624 -2.49921e-06 0.0897059)
(0.0298626 -9.65617e-07 0.0897038)
(0.0901765 -2.26811e-06 0.0923919)
(0.0901838 -4.62383e-06 0.0923954)
(0.090187 -4.7558e-06 0.0923958)
(0.0901893 -4.43496e-06 0.0923959)
(0.0901916 -3.22603e-06 0.0923953)
(0.0901925 -1.20539e-06 0.092391)
(0.151791 -3.09571e-06 0.0967882)
(0.151805 -5.84401e-06 0.0967932)
(0.151811 -5.39098e-06 0.0967934)
(0.151814 -4.73458e-06 0.096792)
(0.151817 -3.65697e-06 0.0967894)
(0.151818 -1.63632e-06 0.0967826)
(0.2141 -3.21149e-06 0.100076)
(0.214123 -3.6432e-06 0.10007)
(0.214128 -1.03799e-07 0.100064)
(0.21413 1.74037e-06 0.100057)
(0.21413 2.08665e-06 0.100049)
(0.214129 5.00895e-07 0.100037)
(0.27499 1.00141e-06 0.0966578)
(0.275022 1.06754e-05 0.0966185)
(0.275023 2.09558e-05 0.0965966)
(0.275017 2.38637e-05 0.0965804)
(0.27501 2.15453e-05 0.096568)
(0.275001 8.63083e-06 0.0965587)
(0.330938 9.92314e-06 0.0763176)
(0.330961 3.74238e-05 0.0762148)
(0.330945 5.76749e-05 0.0761733)
(0.330919 6.01122e-05 0.076157)
(0.330891 5.14617e-05 0.0761591)
(0.33086 2.09748e-05 0.0761816)
(0.37833 3.60302e-05 0.0248206)
(0.378328 9.18775e-05 0.0246439)
(0.378272 0.000113493 0.0246012)
(0.378209 0.000109386 0.0246166)
(0.378144 8.93763e-05 0.0246738)
(0.378067 3.68678e-05 0.0247739)
(0.420247 5.90719e-05 -0.0773825)
(0.420179 0.00014066 -0.0775828)
(0.420054 0.000162707 -0.0775598)
(0.419926 0.000148802 -0.0774492)
(0.419818 0.000119578 -0.0772883)
(0.419686 5.09762e-05 -0.0770957)
(0.472929 9.19754e-05 -0.241515)
(0.47271 0.000193092 -0.241631)
(0.472461 0.000214787 -0.241455)
(0.472157 0.000165575 -0.241181)
(0.472013 0.000113185 -0.240888)
(0.471769 6.03146e-05 -0.240659)
(0.532257 0.000124793 -0.430993)
(0.531868 0.000215165 -0.430967)
(0.53156 0.000346801 -0.430843)
(0.531156 0.00018355 -0.430467)
(0.531025 6.6326e-05 -0.43047)
(0.530684 0.000137254 -0.430244)
(0.172232 -2.73851e-05 -0.754595)
(0.171697 -0.00024696 -0.754402)
(0.171466 -7.33971e-05 -0.754726)
(0.171703 -0.000196701 -0.75399)
(0.17133 -0.000391604 -0.754564)
(0.171052 -5.65787e-05 -0.754191)
(-0.128105 -0.000236776 -0.552436)
(-0.128307 -0.000704603 -0.552648)
(-0.128486 -0.000558578 -0.553191)
(-0.128209 -0.000307796 -0.55193)
(-0.128447 -0.000671611 -0.553015)
(-0.1288 -0.000470514 -0.552092)
(0.0285877 -1.0709e-06 0.146111)
(0.0285892 -2.04197e-06 0.146115)
(0.0285895 -1.58506e-06 0.146116)
(0.0285897 -1.20778e-06 0.146117)
(0.0285898 -2.97673e-07 0.146118)
(0.0285891 2.42945e-08 0.146114)
(0.0876992 -1.08795e-06 0.151616)
(0.0877047 -1.72682e-06 0.15162)
(0.087706 -1.13192e-06 0.151621)
(0.0877065 -5.19907e-07 0.151621)
(0.0877064 3.47681e-07 0.15162)
(0.087704 4.24536e-07 0.151615)
(0.15341 -1.52565e-06 0.162072)
(0.153421 -1.30758e-06 0.162076)
(0.153423 8.27252e-07 0.162075)
(0.153423 2.03454e-06 0.162073)
(0.153421 2.76141e-06 0.16207)
(0.153414 1.45339e-06 0.162061)
(0.231965 -7.98728e-07 0.176497)
(0.231985 3.76986e-06 0.17649)
(0.231985 1.02265e-05 0.176482)
(0.23198 1.26515e-05 0.176473)
(0.231972 1.23814e-05 0.176464)
(0.231956 5.65872e-06 0.176451)
(0.331728 4.65721e-06 0.194115)
(0.331757 2.04379e-05 0.194077)
(0.331749 3.3384e-05 0.194053)
(0.331733 3.58469e-05 0.194036)
(0.331712 3.1118e-05 0.194025)
(0.33168 1.34116e-05 0.194017)
(0.460498 1.59933e-05 0.21443)
(0.460534 4.90686e-05 0.214343)
(0.460509 6.65908e-05 0.214302)
(0.460472 6.39294e-05 0.214286)
(0.46043 5.02996e-05 0.214291)
(0.460371 2.08309e-05 0.214316)
(0.621251 2.4959e-05 0.237809)
(0.621279 6.81703e-05 0.237674)
(0.621216 8.34157e-05 0.237631)
(0.621141 7.16341e-05 0.237646)
(0.621067 4.72306e-05 0.237699)
(0.620989 1.72157e-05 0.237795)
(0.793137 3.59842e-05 0.269053)
(0.793112 7.80777e-05 0.268946)
(0.792979 7.62259e-05 0.268956)
(0.792832 4.71267e-05 0.269047)
(0.792713 -2.1805e-05 0.269186)
(0.792645 -3.27988e-05 0.269343)
(0.893233 3.77391e-05 0.297924)
(0.893118 3.56962e-05 0.297993)
(0.893005 5.5458e-05 0.298064)
(0.892795 4.24547e-06 0.298431)
(0.892802 -0.000167297 0.298472)
(0.892725 -0.000111503 0.298661)
(0.835983 -7.46046e-05 -0.0158908)
(0.835722 -0.000477903 -0.0156042)
(0.836005 0.000153285 -0.0163363)
(0.83554 -0.000316696 -0.0132552)
(0.836443 -0.000554362 -0.0156497)
(0.835519 0.000312845 -0.0148249)
(0.172407 -9.35537e-05 -1.02328)
(0.172734 -0.00125273 -1.02289)
(0.174057 0.000905756 -1.02449)
(0.170409 -9.16186e-05 -1.02052)
(0.176806 -0.0010439 -1.02347)
(0.169975 0.00107913 -1.02401)
(-0.467233 -0.000592092 0.842711)
(-0.466739 -0.00196075 0.842881)
(-0.465291 0.00181143 0.84206)
(-0.468559 0.000864604 0.840995)
(-0.462854 -0.000949044 0.843907)
(-0.469463 0.00135137 0.83978)
(0.0253119 -5.71619e-07 0.197099)
(0.0253129 -5.49176e-07 0.197104)
(0.025313 4.37623e-07 0.197105)
(0.0253128 8.39308e-07 0.197106)
(0.0253125 1.35463e-06 0.197106)
(0.0253117 6.85543e-07 0.197101)
(0.0772887 1.48255e-07 0.205971)
(0.0772928 9.6633e-07 0.205976)
(0.0772929 1.82958e-06 0.205976)
(0.0772922 2.22948e-06 0.205975)
(0.077291 2.41401e-06 0.205974)
(0.0772879 1.1707e-06 0.205967)
(0.132556 8.21714e-07 0.223192)
(0.132564 3.20608e-06 0.223196)
(0.132562 5.26016e-06 0.223193)
(0.132559 5.84707e-06 0.22319)
(0.132555 5.37023e-06 0.223186)
(0.132547 2.28269e-06 0.223176)
(0.191411 3.83911e-06 0.24622)
(0.191421 1.13806e-05 0.246215)
(0.191416 1.63277e-05 0.246205)
(0.191407 1.70639e-05 0.246196)
(0.191397 1.47148e-05 0.246187)
(0.19138 6.12327e-06 0.246174)
(0.252625 1.22656e-05 0.269162)
(0.252633 2.82876e-05 0.269138)
(0.252621 3.25611e-05 0.269117)
(0.252606 2.96526e-05 0.269103)
(0.252588 2.25351e-05 0.269094)
(0.252562 8.74776e-06 0.269087)
(0.313925 2.27251e-05 0.276925)
(0.313921 3.97724e-05 0.276873)
(0.313904 3.02599e-05 0.276844)
(0.313882 1.67724e-05 0.276838)
(0.313865 3.34215e-06 0.276844)
(0.313833 -1.46324e-06 0.276861)
(0.372382 2.36691e-05 0.238621)
(0.372355 1.32714e-05 0.238538)
(0.372351 -2.21662e-05 0.238526)
(0.372319 -5.21389e-05 0.238554)
(0.372344 -6.76849e-05 0.238599)
(0.372317 -2.93184e-05 0.238654)
(0.423075 -8.00098e-07 0.0966267)
(0.423015 -9.28621e-05 0.0965399)
(0.423143 -0.000124481 0.0966004)
(0.422967 -0.000188036 0.0967746)
(0.423256 -0.000225936 0.0968984)
(0.423173 -7.30069e-05 0.0968062)
(0.638319 -5.45488e-05 -0.398829)
(0.638219 -0.000442747 -0.398829)
(0.639308 -2.70425e-05 -0.398508)
(0.637029 -0.000314865 -0.397834)
(0.639349 -0.000703788 -0.397118)
(0.638696 -3.52056e-05 -0.399)
(1.25833 -0.000157818 -1.29561)
(1.25826 -0.00261993 -1.29559)
(1.26003 0.00318848 -1.29467)
(1.25563 0.000322277 -1.29522)
(1.25967 -0.00381932 -1.29277)
(1.25897 0.00151022 -1.2974)
(1.30483 0.000581754 -1.31399)
(1.31176 -0.00309913 -1.31544)
(1.32422 0.00462499 -1.31652)
(1.2783 0.00191979 -1.31288)
(1.31683 -0.00229134 -1.31493)
(1.31034 0.00465296 -1.31757)
(4.90259 0.000155569 -0.597273)
(4.90685 -0.00131976 -0.603275)
(4.91983 0.00238975 -0.612773)
(4.88198 0.00386348 -0.587529)
(4.91681 0.00389722 -0.612893)
(4.90333 0.00538346 -0.591394)
(0.0122406 3.57598e-05 -1.71864)
(0.0122485 2.14514e-05 -1.71906)
(0.0122486 -1.19198e-05 -1.71899)
(0.0122504 -6.11886e-06 -1.71897)
(0.0122512 -3.36843e-05 -1.71905)
(0.0122396 -4.063e-05 -1.71864)
(-0.0440724 3.63844e-05 -1.76976)
(-0.0440753 3.16797e-05 -1.77005)
(-0.0440749 -8.4694e-06 -1.77)
(-0.0440757 2.45285e-06 -1.77)
(-0.0440765 -3.44123e-05 -1.77005)
(-0.0440745 -3.83847e-05 -1.76976)
(-0.00537018 2.04123e-05 -1.65184)
(-0.0053699 2.04568e-05 -1.65199)
(-0.00537007 7.65856e-07 -1.65197)
(-0.00537042 2.78008e-06 -1.65196)
(-0.00537048 -1.7467e-05 -1.65198)
(-0.00537161 -2.02465e-05 -1.65183)
(-0.0953426 4.43042e-05 -1.7126)
(-0.0953279 2.56551e-05 -1.71305)
(-0.0953246 -1.02386e-05 -1.71297)
(-0.0953273 -3.97294e-06 -1.71297)
(-0.0953319 -3.83308e-05 -1.71305)
(-0.0953432 -5.30039e-05 -1.71256)
(-0.201327 3.74483e-05 -1.7447)
(-0.201332 3.53002e-05 -1.74498)
(-0.201334 -9.63312e-06 -1.74493)
(-0.201334 1.83817e-06 -1.74493)
(-0.201335 -4.39342e-05 -1.74499)
(-0.201337 -4.48111e-05 -1.74468)
(-0.015623 2.05796e-05 -1.6202)
(-0.015623 1.94894e-05 -1.62035)
(-0.0156241 -2.15554e-07 -1.62033)
(-0.0156249 2.20937e-06 -1.62032)
(-0.0156254 -1.9433e-05 -1.62035)
(-0.0156267 -2.27893e-05 -1.62019)
(-0.0221474 3.23063e-05 -1.31831)
(-0.0221568 1.65551e-05 -1.31876)
(-0.0221543 -9.96315e-06 -1.31868)
(-0.0221595 -2.0959e-06 -1.31868)
(-0.0221665 -3.16431e-05 -1.31877)
(-0.0221562 -4.74131e-05 -1.31824)
(-0.311434 3.90431e-05 -1.56936)
(-0.311453 3.51927e-05 -1.56964)
(-0.311452 -1.38574e-05 -1.56959)
(-0.311451 -1.9807e-06 -1.56958)
(-0.311452 -5.23076e-05 -1.56964)
(-0.311434 -5.08335e-05 -1.56934)
(-0.0285261 1.9866e-05 -1.39097)
(-0.0285249 1.56861e-05 -1.39112)
(-0.0285272 -3.96396e-06 -1.3911)
(-0.0285285 -1.18562e-06 -1.3911)
(-0.0285299 -2.23715e-05 -1.39113)
(-0.0285309 -2.44931e-05 -1.39098)
(0.0523095 2.233e-05 -0.975429)
(0.0522528 1.06225e-05 -0.975886)
(0.0522618 -9.1282e-06 -0.9758)
(0.0522613 -4.7725e-07 -0.975807)
(0.0522508 -2.99949e-05 -0.975911)
(0.0522977 -4.56249e-05 -0.975408)
(-0.396886 3.83869e-05 -1.45855)
(-0.396911 3.07671e-05 -1.45882)
(-0.396905 -1.67384e-05 -1.45877)
(-0.3969 -1.54492e-06 -1.45877)
(-0.396902 -4.75331e-05 -1.45882)
(-0.396865 -4.63357e-05 -1.45855)
(-0.0518106 1.90217e-05 -1.22155)
(-0.0518045 1.21303e-05 -1.2217)
(-0.0518067 -7.22363e-06 -1.22169)
(-0.051807 -3.48262e-06 -1.2217)
(-0.0518067 -2.07461e-05 -1.22172)
(-0.0518109 -2.17713e-05 -1.22158)
(0.126546 1.89799e-05 -0.615901)
(0.126466 1.32262e-05 -0.616358)
(0.126478 3.65886e-06 -0.616282)
(0.126477 9.96014e-06 -0.616293)
(0.126458 -1.54188e-05 -0.616397)
(0.126522 -3.38338e-05 -0.615936)
(-0.464821 4.17443e-05 -1.29218)
(-0.464856 3.79772e-05 -1.29246)
(-0.464846 -8.4282e-06 -1.29242)
(-0.464841 8.36979e-06 -1.29242)
(-0.464847 -3.89775e-05 -1.29247)
(-0.464801 -4.28532e-05 -1.2922)
(-0.120354 1.94705e-05 -0.982648)
(-0.120344 1.31993e-05 -0.982806)
(-0.120345 -5.06979e-06 -0.982795)
(-0.120345 -1.29009e-06 -0.982798)
(-0.120344 -1.57703e-05 -0.982818)
(-0.120353 -1.78576e-05 -0.982659)
(-0.147835 2.26351e-05 -0.642685)
(-0.147872 1.09514e-05 -0.643046)
(-0.147851 -1.1113e-05 -0.642986)
(-0.14783 3.77421e-06 -0.642984)
(-0.147836 -6.99408e-06 -0.643039)
(-0.147797 -2.79102e-05 -0.642681)
(-0.45839 3.42431e-05 -1.11617)
(-0.458421 2.96551e-05 -1.11642)
(-0.458417 -5.52028e-06 -1.11639)
(-0.458414 5.83066e-06 -1.11639)
(-0.458419 -3.9662e-05 -1.11644)
(-0.458392 -4.03091e-05 -1.11617)
(-0.192371 1.71875e-05 -0.783934)
(-0.192359 1.36729e-05 -0.784073)
(-0.192368 -2.21794e-06 -0.784053)
(-0.192371 -2.94919e-06 -0.784054)
(-0.192375 -1.57806e-05 -0.784072)
(-0.192381 -1.46055e-05 -0.783914)
(-0.805771 1.76094e-05 -1.98052)
(-0.805845 2.94208e-05 -1.98093)
(-0.805887 2.09105e-05 -1.98085)
(-0.805961 4.42791e-05 -1.98089)
(-0.805913 1.15435e-05 -1.98098)
(-0.805884 -9.92253e-06 -1.9806)
(-0.352598 3.00468e-05 -0.667263)
(-0.352648 1.34612e-05 -0.667513)
(-0.35267 -1.07293e-05 -0.667492)
(-0.352629 6.42344e-06 -0.667491)
(-0.352621 -3.82567e-05 -0.667531)
(-0.352701 -3.73717e-05 -0.667344)
(-0.512212 1.62916e-05 -0.616907)
(-0.512201 -9.80187e-07 -0.617042)
(-0.512219 -2.08768e-05 -0.617017)
(-0.512214 -1.7677e-05 -0.617038)
(-0.512221 -7.16325e-06 -0.617081)
(-0.512224 5.89499e-06 -0.616915)
(-3.05071 0.000229377 -1.17411)
(-3.05101 0.000192443 -1.17532)
(-3.05107 3.81751e-05 -1.17481)
(-3.05108 0.00014921 -1.17467)
(-3.05101 -4.37512e-06 -1.17504)
(-3.05084 -7.76847e-05 -1.17421)
(-2.19136 1.188e-05 -0.488913)
(-2.19141 -2.82724e-05 -0.489151)
(-2.19149 4.75388e-06 -0.48903)
(-2.19143 -2.74398e-05 -0.489006)
(-2.19144 -2.32769e-05 -0.488897)
(-2.19146 4.25015e-05 -0.489091)
(-0.190215 -1.43244e-05 -0.622059)
(-0.19023 -4.65746e-05 -0.622151)
(-0.190326 -4.11968e-05 -0.622126)
(-0.190307 -4.23079e-05 -0.622198)
(-0.190403 -2.63733e-06 -0.622168)
(-0.19026 3.85832e-05 -0.622089)
(4.10735 0.00125511 8.22882)
(4.10913 0.000836952 8.22729)
(4.10808 -0.000190877 8.22825)
(4.10828 0.000784238 8.22828)
(4.10841 -0.000154372 8.22721)
(4.10838 -0.000787999 8.22912)
(1.13621 0.000277379 6.54149)
(1.13533 0.000207381 6.54149)
(1.1356 7.32004e-05 6.54179)
(1.13598 0.000156756 6.54212)
(1.13544 0.000326662 6.542)
(1.13601 0.00027255 6.54201)
(-1.47143 -0.000330982 2.42453)
(-1.47185 -0.000258738 2.42512)
(-1.47182 9.19645e-05 2.42518)
(-1.47163 -0.000363853 2.42552)
(-1.47172 0.000381659 2.42644)
(-1.47178 0.000748255 2.42437)
(-3.60672 0.000201563 3.90367)
(-3.60286 -6.80659e-05 3.91882)
(-3.60505 -0.000249397 3.91253)
(-3.60478 8.26914e-06 3.91186)
(-3.60268 0.000291385 3.91673)
(-3.60602 0.000271913 3.90812)
(2.62038 -0.000788764 6.89232)
(2.61951 -0.000711396 6.90143)
(2.61905 0.000177888 6.8979)
(2.6184 -0.000478103 6.89736)
(2.6151 0.000667499 6.89843)
(2.62426 0.00118931 6.89758)
(6.21023 -0.00111617 8.2722)
(6.20736 -0.000890978 8.27567)
(6.20843 0.000466622 8.27474)
(6.20804 -0.000634842 8.27497)
(6.2044 0.000875619 8.27613)
(6.21247 0.00169236 8.27391)
(-2.43672 -0.000164734 -1.70321)
(-2.43183 -5.97235e-05 -1.69463)
(-2.43403 0.000153573 -1.69857)
(-2.4348 -0.000447876 -1.70047)
(-2.4337 0.000366886 -1.6969)
(-2.43503 0.000853852 -1.70147)
(-5.03149 -0.00191091 -1.01967)
(-5.03131 -0.00103156 -1.0176)
(-5.03211 0.00118344 -1.01805)
(-5.03283 -0.00100713 -1.01895)
(-5.03666 0.00113519 -1.02022)
(-5.02762 0.00236767 -1.01623)
(-3.43263 -0.000712162 5.50059)
(-3.43717 -0.000370397 5.496)
(-3.43554 0.000659809 5.49775)
(-3.43621 -0.00014531 5.49744)
(-3.44165 0.00042666 5.49098)
(-3.42888 0.000783266 5.50528)
(0.57394 0.000258348 -0.112053)
(0.574921 0.000263837 -0.110146)
(0.574618 -2.5262e-05 -0.110864)
(0.574406 4.41411e-05 -0.110992)
(0.574745 -0.000123774 -0.110573)
(0.574253 -0.000225305 -0.111224)
(-1.63849 -0.0012453 -4.33181)
(-1.63414 -0.000605081 -4.32023)
(-1.63589 0.000971538 -4.32497)
(-1.63671 0.000643037 -4.32552)
(-1.63771 -0.000324005 -4.32346)
(-1.63455 -0.000691516 -4.32738)
(-1.30555 -0.000241606 -7.90208)
(-1.30604 -3.49372e-05 -7.91022)
(-1.30545 0.000518935 -7.90736)
(-1.30522 0.000482985 -7.90554)
(-1.30447 0.00040553 -7.90857)
(-1.30527 0.000220955 -7.9049)
(7.42268 -0.00157976 -4.59591)
(7.42285 -0.00322352 -4.6008)
(7.41923 0.000967752 -4.60152)
(7.4336 -0.00993937 -4.5895)
(7.44338 0.0107892 -4.58526)
(7.39824 0.0249341 -4.60726)
(7.29974 4.70462e-05 -1.55368)
(7.31064 0.00213793 -1.56083)
(7.30489 -0.0140089 -1.55176)
(7.30626 -0.0338732 -1.56847)
(7.32689 0.0285345 -1.59236)
(7.28993 0.0491162 -1.51347)
(6.32365 0.00376729 6.97335)
(6.36004 0.00729004 6.94219)
(6.36163 -0.0257984 6.93426)
(6.30487 -0.0561518 6.98238)
(6.29935 0.0297988 6.9297)
(6.40588 0.0585747 6.98566)
(5.72877 -0.00117823 -3.22131)
(5.72845 -0.00237481 -3.2208)
(5.72727 0.00115763 -3.21954)
(5.73141 -0.0063228 -3.22175)
(5.73191 0.00669743 -3.21086)
(5.71872 0.0154034 -3.23574)
(8.13562 -0.000861656 -4.22925)
(8.14456 -0.00176087 -4.24566)
(8.13491 0.00204069 -4.23021)
(8.13392 -0.00281973 -4.26123)
(8.18401 0.0284678 -4.36711)
(8.15337 0.0369626 -4.08337)
(6.96222 0.00411765 -9.90105)
(6.97439 0.00367068 -9.92027)
(6.97408 0.000559957 -9.91155)
(6.93712 0.00012814 -9.94891)
(6.95591 0.0209828 -9.97718)
(7.094 0.0233807 -9.73646)
(3.65231 4.13662e-05 -2.05391)
(3.65216 0.000182885 -2.05419)
(3.65085 -0.000453339 -2.05406)
(3.65174 -0.00191503 -2.0534)
(3.64704 6.37067e-05 -2.04744)
(3.65593 0.000470664 -2.05634)
(5.44193 0.000418634 -3.76114)
(5.44362 0.00123433 -3.75924)
(5.44422 0.00498412 -3.75169)
(5.44504 0.00607174 -3.77417)
(5.45004 0.0147 -3.7756)
(5.44862 0.012349 -3.75732)
(4.07728 0.00308446 -6.2064)
(4.07948 0.00527422 -6.21107)
(4.08344 0.00664966 -6.19967)
(4.07348 0.0124707 -6.23448)
(4.06606 0.0297073 -6.22057)
(4.09653 0.0214381 -6.21778)
(1.8357 0.00010056 -1.29938)
(1.83624 0.000361885 -1.30027)
(1.8362 7.06117e-05 -1.30017)
(1.83421 0.000215488 -1.298)
(1.83222 0.000471486 -1.29571)
(1.83487 -0.000138965 -1.30133)
(4.28505 -0.0008408 -2.12939)
(4.28535 -0.000591232 -2.12826)
(4.28598 0.000156672 -2.12786)
(4.28596 -0.00463146 -2.12793)
(4.28642 0.0076164 -2.12663)
(4.29114 0.011817 -2.12715)
(2.96012 0.000847986 -6.02041)
(2.96229 0.00193311 -6.02745)
(2.96407 0.003091 -6.02422)
(2.96591 0.00287732 -6.03145)
(2.97132 0.00750965 -6.06059)
(2.99145 0.00585923 -5.99397)
(1.02206 0.000189749 -0.196469)
(1.02164 0.000282217 -0.197499)
(1.02162 -2.81554e-05 -0.197348)
(1.02191 0.000529768 -0.195393)
(1.02263 -0.000942487 -0.191025)
(1.02102 -0.00149213 -0.200211)
(3.01747 -0.000638314 -1.16568)
(3.01773 -0.000356234 -1.16384)
(3.01781 -0.000157548 -1.16465)
(3.01687 -0.0025581 -1.16248)
(3.01577 0.00335427 -1.15892)
(3.02104 0.00550768 -1.16852)
(1.68452 0.00017978 -5.07274)
(1.68544 0.000872796 -5.0758)
(1.68655 0.00181745 -5.07344)
(1.68466 0.00255252 -5.07913)
(1.68361 0.00509891 -5.08791)
(1.69407 0.00389105 -5.07167)
(0.936738 6.55279e-05 0.648944)
(0.936414 0.000251461 0.647708)
(0.936674 4.59572e-05 0.648388)
(0.936357 0.0007116 0.648504)
(0.936854 -0.000696708 0.647873)
(0.93574 -0.00157175 0.649042)
(1.55078 -0.000539349 -1.18855)
(1.55156 -0.000221628 -1.18551)
(1.55122 0.000382052 -1.18691)
(1.5508 6.87543e-05 -1.18613)
(1.5489 0.000241207 -1.18293)
(1.55321 0.000220844 -1.19023)
(0.0348797 -0.000212876 -5.64321)
(0.0360845 0.000114743 -5.64431)
(0.0365364 0.000543721 -5.64382)
(0.0363025 0.000211121 -5.64262)
(0.0355885 0.00242126 -5.64377)
(0.0416098 0.00247463 -5.64614)
(0.0209563 2.16638e-07 0.24029)
(0.0209565 7.94322e-07 0.240296)
(0.0209564 1.40976e-06 0.240297)