/*--------------------------------*- C++ -*----------------------------------*\
| =========                 |                                                 |
| \\      /  F ield         | OpenFOAM: The Open Source CFD Toolbox           |
|  \\    /   O peration     | Version:  v1612+                                |
|   \\  /    A nd           | Web:      www.OpenFOAM.com                      |
|    \\/     M anipulation  |                                                 |
\*---------------------------------------------------------------------------*/
FoamFile
{
    version     2.0;
    format      ascii;
    class       volScalarField;
    location    "1.3";
    object      alpha.water;
}
// * * * * * * * * * * * * * * * * * * * * * * * * * * * * * * * * * * * * * //

dimensions      [0 0 0 0 0 0 0];

internalField   nonuniform List<scalar> 
1116
(
1
1
1
1
1
1
1
1
1
1
1
1
1
1
1
1
1
1
0.999997
0.999997
0.999997
0.999997
0.999997
0.999997
0.999932
0.999932
0.999932
0.999932
0.999932
0.999932
0.97545
0.975448
0.975449
0.975449
0.975449
0.97545
0.908509
0.908506
0.908507
0.908508
0.908507
0.908509
0.654187
0.654207
0.654208
0.654207
0.654205
0.654191
0.107941
0.107961
0.10796
0.10796
0.107959
0.107943
0.000596363
0.000596497
0.000596479
0.000596473
0.000596468
0.000596341
4.18262e-05
4.18475e-05
4.18429e-05
4.18417e-05
4.18441e-05
4.18233e-05
1.8157e-05
1.81687e-05
1.81658e-05
1.81655e-05
1.81688e-05
1.81558e-05
1
1
1
1
1
1
1
1
1
1
1
1
0.999998
0.999998
0.999998
0.999998
0.999998
0.999998
0.999932
0.999932
0.999932
0.999932
0.999932
0.999932
0.837765
0.837765
0.837768
0.837768
0.837769
0.837772
0.380687
0.380689
0.380693
0.380695
0.380693
0.380697
0.00690629
0.00690588
0.0069067
0.00690701
0.00690648
0.0069074
7.50688e-06
7.50892e-06
7.5082e-06
7.50787e-06
7.50816e-06
7.5082e-06
0.00408573
0.00408535
0.00408541
0.00408537
0.00408505
0.00408572
0.00547593
0.00547642
0.00547627
0.00547622
0.00547628
0.00547571
0.000625134
0.00062536
0.000625307
0.000625302
0.000625371
0.000625074
2.04457e-06
2.04634e-06
2.046e-06
2.04602e-06
2.04664e-06
2.04487e-06
1
1
1
1
1
1
0.999998
0.999998
0.999998
0.999998
0.999998
0.999998
0.989955
0.989956
0.989957
0.989957
0.989957
0.989958
0.640366
0.640372
0.640376
0.640376
0.640378
0.640387
0.0973961
0.0973966
0.0974
0.0974008
0.097402
0.0974065
1.66518e-06
1.66572e-06
1.66589e-06
1.6659e-06
1.6656e-06
1.66541e-06
4.14674e-08
4.14993e-08
4.14677e-08
4.14651e-08
4.14797e-08
4.14668e-08
8.63456e-07
8.634e-07
8.63277e-07
8.63131e-07
8.62823e-07
8.62677e-07
0.000371105
0.000371113
0.0003711
0.000371091
0.000371067
0.000371004
0.000930701
0.000930748
0.000930689
0.000930679
0.000930735
0.00093062
0.000121266
0.00012133
0.000121312
0.000121315
0.000121353
0.00012127
1.13989e-06
1.14112e-06
1.14087e-06
1.14088e-06
1.14138e-06
1.14016e-06
0.999998
0.999998
0.999998
0.999998
0.999998
0.999998
0.980106
0.980107
0.980107
0.980107
0.980107
0.980108
0.434892
0.434899
0.434901
0.434901
0.434903
0.434913
2.13429e-05
2.13487e-05
2.13479e-05
2.13481e-05
2.13485e-05
2.13512e-05
5.87401e-07
5.87582e-07
5.87564e-07
5.87563e-07
5.87593e-07
5.87638e-07
-1.59951e-09
-1.60081e-09
-1.60059e-09
-1.60057e-09
-1.60133e-09
-1.60093e-09
4.65295e-09
4.6533e-09
4.65262e-09
4.65147e-09
4.64985e-09
4.64729e-09
1.15492e-06
1.15473e-06
1.15453e-06
1.15427e-06
1.15369e-06
1.15344e-06
2.66457e-07
2.66775e-07
2.66809e-07
2.66873e-07
2.67076e-07
2.67068e-07
1.95127e-06
1.95134e-06
1.95118e-06
1.95119e-06
1.95146e-06
1.95111e-06
1.02103e-07
1.02193e-07
1.02182e-07
1.02187e-07
1.0222e-07
1.02138e-07
5.23961e-08
5.24855e-08
5.24744e-08
5.24806e-08
5.25183e-08
5.24402e-08
4.38711e-74
4.39181e-74
4.39198e-74
4.39235e-74
4.39332e-74
4.38892e-74
1.38958e-69
1.39114e-69
1.39124e-69
1.39139e-69
1.39174e-69
1.39044e-69
2.11859e-65
2.12098e-65
2.12118e-65
2.12142e-65
2.12201e-65
2.12006e-65
2.04846e-61
2.0508e-61
2.051e-61
2.05126e-61
2.05185e-61
2.04999e-61
1.40048e-57
1.4021e-57
1.40223e-57
1.40241e-57
1.40283e-57
1.40157e-57
7.18605e-54
7.19433e-54
7.19499e-54
7.19592e-54
7.19806e-54
7.19168e-54
2.88484e-50
2.88813e-50
2.88837e-50
2.88874e-50
2.88961e-50
2.88707e-50
9.38875e-47
9.39927e-47
9.4e-47
9.40119e-47
9.40407e-47
9.39594e-47
2.57696e-43
2.57979e-43
2.57999e-43
2.58032e-43
2.58115e-43
2.57896e-43
6.40531e-40
6.41222e-40
6.41272e-40
6.41361e-40
6.41579e-40
6.41046e-40
1.44689e-36
1.44847e-36
1.4486e-36
1.44884e-36
1.44938e-36
1.44822e-36
2.54618e-33
2.54911e-33
2.54939e-33
2.54986e-33
2.55085e-33
2.54885e-33
2.61961e-70
2.62247e-70
2.6226e-70
2.62279e-70
2.62336e-70
2.62078e-70
8.24538e-66
8.25468e-66
8.2553e-66
8.25606e-66
8.25814e-66
8.25049e-66
1.24341e-61
1.24483e-61
1.24493e-61
1.24506e-61
1.2454e-61
1.24426e-61
1.18097e-57
1.18233e-57
1.18243e-57
1.18256e-57
1.18289e-57
1.18183e-57
7.86081e-54
7.86988e-54
7.87054e-54
7.87146e-54
7.8737e-54
7.86667e-54
3.88634e-50
3.89079e-50
3.89109e-50
3.89154e-50
3.89267e-50
3.88921e-50
1.4887e-46
1.49038e-46
1.49048e-46
1.49065e-46
1.49109e-46
1.48979e-46
4.61852e-43
4.62362e-43
4.6239e-43
4.62444e-43
4.62588e-43
4.62193e-43
1.22807e-39
1.2294e-39
1.22947e-39
1.22963e-39
1.23003e-39
1.22901e-39
2.96159e-36
2.96477e-36
2.96495e-36
2.96537e-36
2.96642e-36
2.96404e-36
6.23258e-33
6.23945e-33
6.23998e-33
6.24102e-33
6.24343e-33
6.23857e-33
8.59702e-30
8.60687e-30
8.60769e-30
8.6092e-30
8.61256e-30
8.60582e-30
1.88389e-66
1.88589e-66
1.88604e-66
1.88624e-66
1.88675e-66
1.88506e-66
6.21405e-62
6.22085e-62
6.22145e-62
6.22224e-62
6.22413e-62
6.21882e-62
9.75168e-58
9.76246e-58
9.76346e-58
9.7648e-58
9.76791e-58
9.75969e-58
9.52342e-54
9.53406e-54
9.53504e-54
9.53639e-54
9.53948e-54
9.5315e-54
6.40086e-50
6.40803e-50
6.40865e-50
6.40956e-50
6.41164e-50
6.40629e-50
3.11227e-46
3.11573e-46
3.11601e-46
3.11644e-46
3.11746e-46
3.11486e-46
1.12531e-42
1.12654e-42
1.12664e-42
1.12679e-42
1.12717e-42
1.12624e-42
3.05942e-39
3.06277e-39
3.06301e-39
3.06345e-39
3.06452e-39
3.06204e-39
6.27271e-36
6.27957e-36
6.28008e-36
6.28105e-36
6.28336e-36
6.27837e-36
1.0114e-32
1.01251e-32
1.01259e-32
1.01276e-32
1.01314e-32
1.01235e-32
1.48625e-29
1.48788e-29
1.48799e-29
1.48824e-29
1.48883e-29
1.48767e-29
1.35346e-26
1.35497e-26
1.35507e-26
1.35529e-26
1.35581e-26
1.35473e-26
2.23915e-63
2.2414e-63
2.24154e-63
2.2418e-63
2.24247e-63
2.24052e-63
8.05094e-59
8.05928e-59
8.05991e-59
8.06101e-59
8.06362e-59
8.05692e-59
1.36245e-54
1.36387e-54
1.36399e-54
1.36418e-54
1.36464e-54
1.36352e-54
1.40954e-50
1.41103e-50
1.41114e-50
1.41135e-50
1.41183e-50
1.41067e-50
9.77803e-47
9.78832e-47
9.78905e-47
9.79047e-47
9.79383e-47
9.78581e-47
4.74345e-43
4.74841e-43
4.74873e-43
4.74941e-43
4.75107e-43
4.7472e-43
1.65365e-39
1.65536e-39
1.65547e-39
1.65571e-39
1.65631e-39
1.65498e-39
4.27447e-36
4.27891e-36
4.27918e-36
4.27985e-36
4.28146e-36
4.27808e-36
8.58338e-33
8.59234e-33
8.59292e-33
8.59434e-33
8.5977e-33
8.59099e-33
1.40436e-29
1.40583e-29
1.40593e-29
1.40616e-29
1.40672e-29
1.40563e-29
1.90403e-26
1.90601e-26
1.90611e-26
1.90643e-26
1.90719e-26
1.9057e-26
1.08446e-23
1.08559e-23
1.08564e-23
1.08581e-23
1.08623e-23
1.08536e-23
0.990571
0.990572
0.990572
0.990572
0.990572
0.990572
0.637084
0.637087
0.637087
0.637086
0.637085
0.637091
0.169581
0.169583
0.169583
0.169583
0.169582
0.169587
0.377936
0.377941
0.37794
0.37794
0.37794
0.377945
1.21216e-10
1.21563e-10
1.21647e-10
1.21552e-10
1.2152e-10
1.21552e-10
5.45939e-25
5.45939e-25
5.62483e-25
5.45939e-25
5.45939e-25
5.62483e-25
-1.28076e-06
-1.28133e-06
-1.28132e-06
-1.28133e-06
-1.28136e-06
-1.28161e-06
3.75651e-10
3.75757e-10
3.7582e-10
3.7575e-10
3.75677e-10
3.75533e-10
-1.53019e-14
-1.56095e-14
-1.56327e-14
-1.54975e-14
-1.59189e-14
-1.46979e-14
6.53395e-07
6.53611e-07
6.53602e-07
6.53607e-07
6.53639e-07
6.53696e-07
2.26995e-06
2.26883e-06
2.26895e-06
2.2688e-06
2.26844e-06
2.26699e-06
1.86412e-07
1.87002e-07
1.87146e-07
1.86985e-07
1.86936e-07
1.87005e-07
-1.12839e-10
-1.14721e-10
-1.04949e-10
-1.05322e-10
-9.28142e-11
-8.18101e-11
6.47566e-05
6.47568e-05
6.4757e-05
6.47571e-05
6.47573e-05
6.47573e-05
8.16145e-07
8.17514e-07
8.1806e-07
8.17653e-07
8.17536e-07
8.17886e-07
-1.64588e-12
-1.64683e-12
-1.64663e-12
-1.64615e-12
-1.64568e-12
-1.64515e-12
3.44166e-16
3.44465e-16
3.44438e-16
3.44388e-16
3.44312e-16
6.8782e-16
6.65116e-23
6.63675e-23
6.62825e-23
6.63301e-23
6.63257e-23
6.61781e-23
1.06362e-08
1.06389e-08
1.06371e-08
1.06351e-08
1.0633e-08
1.06289e-08
2.57876e-14
2.58083e-14
2.58059e-14
2.58017e-14
2.57956e-14
2.57668e-14
1.11998e-17
1.12018e-17
1.12024e-17
1.12032e-17
1.12037e-17
1.12018e-17
9.7628e-08
9.76482e-08
9.76323e-08
9.76173e-08
9.76015e-08
9.75615e-08
2.33502e-12
2.33675e-12
2.33651e-12
2.33613e-12
2.33556e-12
2.33307e-12
2.56029e-14
2.56234e-14
2.5621e-14
2.56169e-14
2.56109e-14
2.55824e-14
1.01155e-08
1.01231e-08
1.0125e-08
1.01296e-08
1.01435e-08
1.01462e-08
9.7366e-11
9.73928e-11
9.73816e-11
9.73751e-11
9.7372e-11
9.73165e-11
-2.98026e-12
-2.97592e-12
-2.9757e-12
-2.97653e-12
-2.97841e-12
-2.98072e-12
7.46994e-08
7.47057e-08
7.46996e-08
7.46997e-08
7.47126e-08
7.4692e-08
1.56986e-09
1.5704e-09
1.57032e-09
1.57042e-09
1.57102e-09
1.57052e-09
1.6005e-10
1.60095e-10
1.6007e-10
1.60053e-10
1.60046e-10
1.59959e-10
5.62829e-09
5.63466e-09
5.63445e-09
5.63542e-09
5.6387e-09
5.63386e-09
3.61371e-10
3.61683e-10
3.61665e-10
3.61717e-10
3.61891e-10
3.61606e-10
1.50248e-11
1.50365e-11
1.50362e-11
1.50385e-11
1.50455e-11
1.50345e-11
1.15029e-09
1.15126e-09
1.15122e-09
1.15153e-09
1.15241e-09
1.15155e-09
1.17175e-11
1.17279e-11
1.17274e-11
1.17294e-11
1.17353e-11
1.17257e-11
5.05324e-13
5.05749e-13
5.05745e-13
5.05824e-13
5.06045e-13
5.05666e-13
7.17834e-19
7.18525e-19
7.18524e-19
7.18626e-19
7.18902e-19
7.18309e-19
5.58763e-20
5.59325e-20
5.59337e-20
5.59433e-20
5.59673e-20
5.59209e-20
8.22561e-22
8.23399e-22
8.23428e-22
8.23577e-22
8.23935e-22
8.23262e-22
4.18214e-17
4.18621e-17
4.18613e-17
4.18669e-17
4.18832e-17
4.1847e-17
3.86186e-18
3.86572e-18
3.86575e-18
3.8664e-18
3.86807e-18
3.8648e-18
8.14205e-20
8.15024e-20
8.15043e-20
8.15188e-20
8.15545e-20
8.14874e-20
7.5027e-17
7.50882e-17
7.50883e-17
7.50979e-17
7.51241e-17
7.50732e-17
4.78881e-17
4.79335e-17
4.79337e-17
4.79415e-17
4.7962e-17
4.79245e-17
5.39736e-18
5.40275e-18
5.40281e-18
5.40376e-18
5.40618e-18
5.40164e-18
5.46265e-15
5.46681e-15
5.46674e-15
5.46734e-15
5.46903e-15
5.46525e-15
1.42464e-15
1.42599e-15
1.42597e-15
1.42618e-15
1.42677e-15
1.42557e-15
6.25902e-17
6.2648e-17
6.26495e-17
6.26618e-17
6.26919e-17
6.2646e-17
1.26177e-13
1.26272e-13
1.26269e-13
1.26281e-13
1.26318e-13
1.26233e-13
1.54381e-13
1.5452e-13
1.54518e-13
1.54534e-13
1.54578e-13
1.54466e-13
3.08536e-15
3.0886e-15
3.08855e-15
3.08906e-15
3.09046e-15
3.08778e-15
5.1004e-12
5.1053e-12
5.10504e-12
5.10568e-12
5.10786e-12
5.10344e-12
3.56017e-12
3.55947e-12
3.55964e-12
3.55951e-12
3.55866e-12
3.55956e-12
5.16733e-14
5.17199e-14
5.17208e-14
5.17207e-14
5.1715e-14
5.16923e-14
4.473e-60
4.47745e-60
4.47789e-60
4.47869e-60
4.48038e-60
4.47676e-60
4.93249e-63
4.93749e-63
4.938e-63
4.93891e-63
4.9408e-63
4.93672e-63
1.11038e-66
1.11152e-66
1.11163e-66
1.11184e-66
1.11225e-66
1.11132e-66
2.20082e-55
2.20307e-55
2.20331e-55
2.20374e-55
2.20461e-55
2.2029e-55
3.39989e-58
3.40344e-58
3.40382e-58
3.40449e-58
3.40586e-58
3.40314e-58
8.78777e-62
8.79699e-62
8.79795e-62
8.79966e-62
8.8031e-62
8.79596e-62
5.06364e-51
5.06887e-51
5.06942e-51
5.07041e-51
5.07244e-51
5.06851e-51
1.12852e-53
1.12971e-53
1.12983e-53
1.13006e-53
1.13052e-53
1.12961e-53
3.54573e-57
3.54947e-57
3.54986e-57
3.55055e-57
3.55195e-57
3.54906e-57
7.02882e-47
7.03609e-47
7.0368e-47
7.03815e-47
7.04096e-47
7.03548e-47
2.29234e-49
2.29476e-49
2.29499e-49
2.29544e-49
2.29637e-49
2.29452e-49
9.21355e-53
9.22324e-53
9.22417e-53
9.22593e-53
9.22959e-53
9.22205e-53
6.38221e-43
6.38875e-43
6.38933e-43
6.39052e-43
6.39306e-43
6.38808e-43
3.04958e-45
3.05277e-45
3.05305e-45
3.05364e-45
3.05489e-45
3.05243e-45
1.64122e-48
1.64293e-48
1.64308e-48
1.64339e-48
1.64405e-48
1.64272e-48
3.86944e-39
3.87337e-39
3.87369e-39
3.87439e-39
3.87595e-39
3.87295e-39
2.68396e-41
2.68675e-41
2.68698e-41
2.68751e-41
2.68863e-41
2.68649e-41
2.01601e-44
2.01812e-44
2.0183e-44
2.01869e-44
2.01953e-44
2.01792e-44
1.5414e-35
1.54296e-35
1.54308e-35
1.54337e-35
1.544e-35
1.54282e-35
1.53307e-37
1.53467e-37
1.5348e-37
1.53511e-37
1.53577e-37
1.53457e-37
1.66892e-40
1.67067e-40
1.67083e-40
1.67117e-40
1.67189e-40
1.67057e-40
3.86909e-32
3.87303e-32
3.87331e-32
3.87403e-32
3.87564e-32
3.87268e-32
5.49367e-34
5.49946e-34
5.49992e-34
5.50104e-34
5.50347e-34
5.49912e-34
8.94211e-37
8.95159e-37
8.95242e-37
8.95428e-37
8.95822e-37
8.95117e-37
5.79278e-29
5.79868e-29
5.79905e-29
5.8001e-29
5.80249e-29
5.79801e-29
1.18496e-30
1.18622e-30
1.1863e-30
1.18654e-30
1.18706e-30
1.18611e-30
2.94304e-33
2.94617e-33
2.94641e-33
2.94701e-33
2.94831e-33
2.94595e-33
4.93111e-26
4.93609e-26
4.93632e-26
4.93717e-26
4.93916e-26
4.93529e-26
1.46321e-27
1.46475e-27
1.46483e-27
1.46511e-27
1.46575e-27
1.46456e-27
5.60102e-30
5.60692e-30
5.60731e-30
5.6084e-30
5.61085e-30
5.60631e-30
2.31673e-23
2.31903e-23
2.31911e-23
2.31948e-23
2.3204e-23
2.31856e-23
9.78336e-25
9.79347e-25
9.79392e-25
9.79571e-25
9.79994e-25
9.79195e-25
5.80973e-27
5.81579e-27
5.81612e-27
5.81722e-27
5.81976e-27
5.81504e-27
5.66908e-21
5.6746e-21
5.67468e-21
5.67553e-21
5.67774e-21
5.67319e-21
3.30536e-22
3.30872e-22
3.30884e-22
3.30942e-22
3.31085e-22
3.30815e-22
3.10595e-24
3.10916e-24
3.1093e-24
3.10988e-24
3.11123e-24
3.10871e-24
)
;

boundaryField
{
    seabed_topleft_surface
    {
        type            zeroGradient;
    }
    seabed_topright_surface
    {
        type            zeroGradient;
    }
    breakwater_top_surface
    {
        type            zeroGradient;
    }
    breakwater_left_surface
    {
        type            zeroGradient;
    }
    breakwater_right_surface
    {
        type            zeroGradient;
    }
    water_front_surface
    {
        type            zeroGradient;
    }
    water_back_surface
    {
        type            zeroGradient;
    }
    water_left_surface
    {
        type            zeroGradient;
    }
    water_right_surface
    {
        type            zeroGradient;
    }
    water_top_surface
    {
        type            inletOutlet;
        inletValue      uniform 0;
        value           nonuniform List<scalar> 
180
(
0.169581
0.169583
0.169583
0.169583
0.169582
0.169587
0
0
0
0
0
0
0
0
0
0
0
0
0
0
0
0
0
0
0
0
0
0
0
0
0
0
0
0
0
0
0
0
0
0
0
0
2.56029e-14
2.56234e-14
2.5621e-14
2.56169e-14
2.56109e-14
2.55824e-14
-2.98026e-12
-2.97592e-12
-2.9757e-12
-2.97653e-12
-2.97841e-12
-2.98072e-12
1.6005e-10
1.60095e-10
1.6007e-10
1.60053e-10
1.60046e-10
1.59959e-10
1.50248e-11
1.50365e-11
1.50362e-11
1.50385e-11
1.50455e-11
1.50345e-11
5.05324e-13
5.05749e-13
5.05745e-13
5.05824e-13
5.06045e-13
5.05666e-13
8.22561e-22
8.23399e-22
8.23428e-22
8.23577e-22
8.23935e-22
8.23262e-22
8.14205e-20
8.15024e-20
8.15043e-20
8.15188e-20
8.15545e-20
8.14874e-20
5.39736e-18
5.40275e-18
5.40281e-18
5.40376e-18
5.40618e-18
5.40164e-18
6.25902e-17
6.2648e-17
6.26495e-17
6.26618e-17
6.26919e-17
6.2646e-17
3.08536e-15
3.0886e-15
3.08855e-15
3.08906e-15
3.09046e-15
3.08778e-15
5.16733e-14
5.17199e-14
5.17208e-14
5.17207e-14
5.1715e-14
5.16923e-14
1.11038e-66
1.11152e-66
1.11163e-66
1.11184e-66
1.11225e-66
1.11132e-66
8.78777e-62
8.79699e-62
8.79795e-62
8.79966e-62
8.8031e-62
8.79596e-62
3.54573e-57
3.54947e-57
3.54986e-57
3.55055e-57
3.55195e-57
3.54906e-57
9.21355e-53
9.22324e-53
9.22417e-53
9.22593e-53
9.22959e-53
9.22205e-53
1.64122e-48
1.64293e-48
1.64308e-48
1.64339e-48
1.64405e-48
1.64272e-48
2.01601e-44
2.01812e-44
2.0183e-44
2.01869e-44
2.01953e-44
2.01792e-44
1.66892e-40
1.67067e-40
1.67083e-40
1.67117e-40
1.67189e-40
1.67057e-40
8.94211e-37
8.95159e-37
8.95242e-37
8.95428e-37
8.95822e-37
8.95117e-37
2.94304e-33
2.94617e-33
2.94641e-33
2.94701e-33
2.94831e-33
2.94595e-33
5.60102e-30
5.60692e-30
5.60731e-30
5.6084e-30
5.61085e-30
5.60631e-30
5.80973e-27
5.81579e-27
5.81612e-27
5.81722e-27
5.81976e-27
5.81504e-27
3.10595e-24
3.10916e-24
3.1093e-24
3.10988e-24
3.11123e-24
3.10871e-24
)
;
    }
}


// ************************************************************************* //
