/*--------------------------------*- C++ -*----------------------------------*\
| =========                 |                                                 |
| \\      /  F ield         | OpenFOAM: The Open Source CFD Toolbox           |
|  \\    /   O peration     | Version:  v1612+                                |
|   \\  /    A nd           | Web:      www.OpenFOAM.com                      |
|    \\/     M anipulation  |                                                 |
\*---------------------------------------------------------------------------*/
FoamFile
{
    version     2.0;
    format      ascii;
    class       volScalarField;
    location    "6.4";
    object      alpha.water;
}
// * * * * * * * * * * * * * * * * * * * * * * * * * * * * * * * * * * * * * //

dimensions      [0 0 0 0 0 0 0];

internalField   nonuniform List<scalar> 
320
(
1
1
1
1
1.52128e-05
1.45985e-05
1.34159e-05
1.58056e-05
1.6039e-05
1.62277e-05
1.57187e-05
1.61427e-05
1.6632e-05
1.60148e-05
1.34798e-05
1.7079e-05
0.999983
0.999987
0.999985
0.999985
0.999984
0.999981
0.999979
0.999978
0.999981
0.999984
0.999992
0.999982
1
1
1
1
1
1
1
1
1
1
1
1
1
1
1
1
1
1
1
1
1
1
1
1
1
1
1
1
1.54629e-05
1.7115e-05
1.44902e-05
1.50861e-05
1.15267e-05
1.09672e-05
1.19253e-05
1.21093e-05
1.60048e-05
1.45489e-05
1.33373e-05
1.25883e-05
1.61785e-05
1.34781e-05
1.39309e-05
1.478e-05
1.38979e-05
1.51756e-05
1.64647e-05
1.53397e-05
0.999983
0.999981
0.999988
0.99998
0.99999
0.999991
0.999991
0.999993
0.999983
0.999985
0.999993
0.999993
0.999982
0.999989
0.999992
0.999994
0.999992
0.999986
0.999986
0.999991
1
1
1
1
1
1
1
1
1
1
1
1
1
1
1
1
1
1
1
1
1
1
1
1
1
1
1
1
1
1
1
1
1
1
1
1
1
1
1
1
1
1
1
1
1
1
1
1
1
1
1
1
1
1
1
1
1
1
1
1
1
1
1
1
1
1
1
1
1
1
1
1
1
1
1
1
1.6751e-05
1.57337e-05
1.65889e-05
1.39937e-05
1.5481e-05
1.50395e-05
1.49029e-05
1.45273e-05
1.51793e-05
1.72797e-05
1.59039e-05
1.5192e-05
1.81297e-05
1.57416e-05
1.53028e-05
1.49014e-05
1.6988e-05
1.52681e-05
1.58272e-05
1.61586e-05
1.72929e-05
1.56922e-05
1.61358e-05
1.51697e-05
1.49203e-05
1.63404e-05
1.69047e-05
2.02673e-05
0.999983
0.999982
0.999981
0.99999
0.999986
0.999985
0.999975
0.999981
0.999987
0.999979
0.999981
0.999984
0.999981
0.999985
0.999984
0.999985
0.999981
0.999983
0.999984
0.999978
0.99998
0.999986
0.999992
0.999986
0.999984
0.999979
0.999981
0.999979
1
1
1
1
1
1
1
1
1
1
1
1
1
1
1
1
1
1
1
1
1
1
1
1
1
1
1
1
1
1
1
1
1
1
1
1
1
1
1
1
1
1
1
1
1
1
1
1
1
1
1
1
1
1
1
1
1
1
1
1
1
1
1
1
1
1
1
1
1
1
1
1
1
1
1
1
1
1
1
1
1
1
1
1
1.62217e-05
1.55529e-05
1.60504e-05
1.40342e-05
0.99998
0.999986
0.999985
0.999985
)
;

boundaryField
{
    top_fluid_surface
    {
        type            inletOutlet;
        inletValue      uniform 0;
        value           nonuniform List<scalar> 
64
(
0
1.45985e-05
1.34159e-05
0
0
0
0
0
0
0
1.34798e-05
0
0
0
1.44902e-05
1.50861e-05
1.15267e-05
1.09672e-05
1.19253e-05
1.21093e-05
0
1.45489e-05
1.33373e-05
1.25883e-05
0
1.34781e-05
1.39309e-05
1.478e-05
1.38979e-05
0
0
1.53397e-05
0
0
1.65889e-05
1.39937e-05
0
0
0
1.45273e-05
0
0
0
0
0
0
0
0
0
0
0
0
0
0
0
0
1.49203e-05
0
0
0
0
1.55529e-05
0
1.40342e-05
)
;
    }
    bottom_fluid_surface
    {
        type            zeroGradient;
    }
    lateral_surface_1
    {
        type            zeroGradient;
    }
    lateral_surface_2
    {
        type            zeroGradient;
    }
    lateral_surface_3
    {
        type            zeroGradient;
    }
    lateral_surface_4
    {
        type            zeroGradient;
    }
}


// ************************************************************************* //
