/*--------------------------------*- C++ -*----------------------------------*\
| =========                 |                                                 |
| \\      /  F ield         | OpenFOAM: The Open Source CFD Toolbox           |
|  \\    /   O peration     | Version:  v1612+                                |
|   \\  /    A nd           | Web:      www.OpenFOAM.com                      |
|    \\/     M anipulation  |                                                 |
\*---------------------------------------------------------------------------*/
FoamFile
{
    version     2.0;
    format      ascii;
    class       surfaceScalarField;
    location    "6.4";
    object      alphaPhi;
}
// * * * * * * * * * * * * * * * * * * * * * * * * * * * * * * * * * * * * * //

dimensions      [0 3 -1 0 0 0 0];

internalField   nonuniform List<scalar> 
816
(
-2.32124e-06
-9.7425e-06
2.4997e-06
-8.83426e-06
-1.4215e-05
3.26131e-05
3.48949e-06
5.51451e-06
-2.43831e-06
8.01603e-06
-1.69128e-05
-6.24942e-06
5.98699e-07
2.97277e-06
5.14845e-06
-1.22251e-05
-2.36708e-06
7.28391e-06
8.92659e-06
-1.6589e-05
9.50535e-09
-9.42328e-09
3.55356e-06
-2.15604e-09
1.25845e-09
7.86103e-09
-3.74552e-06
1.44259e-10
-7.93472e-10
-2.93989e-09
-9.60178e-06
-9.56182e-10
5.56904e-09
-2.10906e-09
-2.03734e-06
3.66463e-09
-3.6494e-09
-1.0991e-09
-6.74897e-06
4.61352e-09
-3.52721e-09
-5.97267e-10
-3.10015e-06
1.55443e-09
1.17255e-09
-2.36171e-09
-7.56757e-06
-1.23073e-09
4.29026e-09
-8.41905e-10
-1.26315e-05
-2.26564e-10
1.25295e-10
1.92883e-09
3.48411e-06
2.74805e-09
-2.99326e-10
1.35962e-09
2.13654e-07
-1.95224e-09
4.88283e-09
-3.75092e-09
4.69219e-11
-3.20375e-09
7.90377e-10
1.31519e-06
-1.99472e-09
-5.23675e-09
1.91836e-05
4.85052e-07
-2.10355e-05
-1.85981e-06
1.58794e-05
2.48378e-05
-2.6188e-05
1.89977e-06
1.32715e-05
3.62106e-07
-4.57597e-06
-2.67533e-06
1.97032e-05
-4.74543e-06
1.19666e-05
-5.80622e-06
-2.28754e-06
-1.76375e-06
-6.49008e-06
-5.28923e-07
-2.3435e-06
6.51239e-06
-2.61604e-05
3.52763e-06
1.03211e-05
5.9561e-06
-2.3803e-05
-4.14873e-06
2.17708e-05
4.27085e-06
4.9431e-06
-1.89131e-05
2.55901e-06
9.06299e-06
-3.13119e-05
1.47369e-05
2.46549e-05
2.20286e-05
-2.9247e-05
2.91032e-06
1.27262e-05
-4.89401e-06
2.67545e-05
2.75107e-06
-1.17972e-05
-1.34058e-05
3.91948e-06
6.5523e-06
-5.43269e-06
-1.2145e-06
-1.07915e-05
-1.10649e-06
-1.05539e-05
-1.13939e-05
-4.15235e-06
7.97436e-07
-2.0982e-06
-1.54838e-06
-1.22861e-05
2.35964e-06
4.05644e-06
3.91518e-06
-2.58234e-06
-3.83439e-06
-8.25866e-08
-1.29988e-06
-1.24644e-05
-3.53711e-06
-1.14485e-05
-3.84211e-06
-1.05144e-05
-3.4624e-06
-6.57209e-06
2.58984e-06
5.70343e-06
-2.42618e-06
-1.48695e-05
-6.2095e-06
-1.43809e-05
-1.0243e-05
-1.33838e-05
-5.05945e-06
-5.19498e-07
1.19078e-05
-3.71499e-06
-6.96323e-06
-4.53467e-06
-3.69149e-06
-1.45633e-06
-5.83752e-06
2.04102e-06
-4.58357e-06
-4.38881e-06
1.38802e-06
3.90755e-06
-1.49276e-06
2.7702e-06
-3.68325e-06
3.86828e-07
1.78904e-06
8.394e-07
-8.56276e-07
4.03826e-06
3.44971e-06
-3.23846e-06
-9.92743e-07
-8.88838e-07
-3.62796e-06
-6.3385e-06
-2.35392e-06
-2.04374e-06
5.61823e-07
-1.12458e-06
-7.33378e-06
-5.40289e-07
2.0573e-06
1.68868e-06
-6.29022e-07
-1.39221e-06
1.75407e-07
-1.43362e-06
-1.36423e-06
-1.93086e-06
-6.82072e-06
-3.74775e-06
-2.25486e-06
-1.82106e-06
-3.77222e-06
-3.18861e-06
3.84505e-06
6.69653e-08
-8.63689e-07
-4.66976e-06
-8.1589e-06
-4.36633e-06
-5.73137e-06
-2.89949e-06
-3.85409e-06
-7.95836e-08
-2.03975e-06
3.66132e-06
-2.83827e-06
-2.87302e-06
-2.33377e-06
3.81911e-09
-4.05007e-09
3.75179e-06
-1.07503e-09
8.81656e-09
1.03508e-06
3.68353e-10
5.92488e-09
1.05581e-06
-3.35419e-11
6.06282e-09
-7.1431e-06
-1.65737e-09
7.99274e-10
-1.68731e-06
-4.32167e-09
-1.62551e-09
-2.53996e-09
-5.25801e-06
-3.0349e-09
-4.87194e-09
-5.604e-06
-4.93068e-09
-9.75048e-09
-4.6153e-06
-3.64404e-09
-4.78166e-09
6.4272e-07
-4.06158e-10
2.46974e-09
1.68367e-06
-6.38503e-09
-3.24063e-09
-6.28582e-10
1.52741e-06
-1.15331e-09
-5.43847e-09
-2.06658e-06
-6.41836e-09
-1.77281e-09
-3.51353e-06
-6.9366e-10
-2.97879e-09
-2.8319e-06
-2.3918e-09
1.24154e-09
7.01051e-07
-4.11413e-09
-4.75019e-09
2.91433e-12
3.99174e-07
-1.39928e-09
-4.71385e-09
1.50436e-10
-3.03789e-09
-3.3125e-09
-4.33923e-06
-1.05441e-09
-2.9786e-09
-1.81086e-06
-3.25379e-09
-2.09304e-06
-3.96139e-09
-4.99121e-09
-1.31342e-05
3.51915e-06
1.73432e-05
7.54811e-06
7.91737e-06
-1.38837e-05
1.83631e-06
9.84087e-06
-1.33251e-05
1.24348e-05
-1.22976e-06
-3.275e-06
9.00415e-07
1.56157e-05
3.46354e-05
-2.69201e-05
-2.78246e-05
8.61234e-07
4.40324e-05
-1.33912e-05
-1.19247e-05
3.15259e-05
-3.15206e-05
-3.79082e-05
5.63418e-05
-3.74123e-05
-2.43249e-05
-3.52154e-06
-4.56201e-06
1.64424e-05
-1.25738e-05
-4.12015e-06
-1.52675e-05
1.32226e-06
3.62808e-05
-5.77441e-06
-1.91948e-05
4.27686e-05
-2.7602e-05
4.33097e-06
-3.9709e-05
-7.47177e-06
-5.57934e-07
2.92089e-05
-1.19145e-05
2.11248e-05
2.22765e-05
-2.6929e-05
-1.48593e-05
4.95696e-06
3.13992e-05
9.41255e-06
-1.33629e-05
3.8646e-05
-2.01971e-05
-1.29268e-05
5.46806e-06
-1.13007e-05
-4.87338e-06
-3.25188e-07
-3.06524e-06
3.22367e-05
-1.67125e-05
-1.91199e-05
7.69796e-06
1.00856e-06
8.35789e-06
-4.271e-06
-4.22066e-07
-7.34045e-06
4.70421e-07
-3.14604e-06
-5.1406e-06
-9.57708e-06
-1.15384e-06
-1.30573e-06
-5.50983e-06
-7.35541e-06
1.67285e-05
1.15159e-05
1.25942e-05
8.94406e-07
2.05212e-05
2.9835e-06
4.95052e-06
1.45721e-05
1.68107e-05
1.5138e-05
2.56176e-05
2.0443e-05
8.63676e-06
-2.33536e-06
1.77465e-06
-7.89078e-06
-5.00068e-06
3.001e-06
5.95668e-06
2.20855e-06
1.62337e-05
-1.49203e-06
1.21398e-05
1.94809e-05
9.89707e-06
-4.00722e-06
-1.79959e-05
1.3671e-07
-4.196e-06
1.39294e-05
9.26176e-06
-1.0326e-05
1.02874e-05
1.43835e-05
3.71509e-06
8.69765e-07
1.38812e-05
-8.05639e-06
9.62466e-06
1.73907e-05
7.43333e-06
5.27976e-06
2.81261e-06
3.2738e-06
1.73608e-06
-3.28504e-07
-1.55135e-07
1.4037e-05
7.68152e-06
1.32658e-05
4.64725e-06
5.70795e-07
2.97741e-06
-2.66504e-06
-4.16298e-07
-2.39745e-06
-7.31738e-07
-2.45771e-06
2.60496e-07
-5.70449e-06
-8.94615e-07
-6.64442e-07
-3.32932e-06
-3.80322e-06
4.95334e-06
7.13697e-06
7.55651e-06
2.8361e-07
7.33276e-06
1.77208e-06
2.93957e-06
4.6154e-06
8.97207e-06
8.91275e-06
8.15768e-06
1.16449e-05
4.85518e-06
-8.46046e-07
6.30181e-07
-4.76768e-06
-4.05286e-08
1.6592e-06
3.01246e-06
1.06656e-06
4.80504e-06
-1.21941e-06
6.82082e-06
6.40941e-06
5.48993e-06
-2.99075e-06
-4.62344e-06
2.7153e-07
-2.45706e-06
4.2313e-06
4.47529e-06
-5.06575e-06
3.08695e-06
7.48868e-06
2.31248e-06
4.61187e-07
5.02146e-06
-4.8322e-06
5.46499e-06
5.25787e-06
4.1803e-06
3.12264e-06
1.55288e-06
1.54464e-06
1.15355e-06
-1.39272e-07
-1.08833e-06
3.49802e-06
4.68645e-06
7.58611e-06
8.47119e-10
-2.81926e-06
1.17331e-06
-2.73856e-06
1.57261e-06
5.626e-07
6.38358e-07
-2.60711e-06
-3.55979e-07
9.87054e-07
-5.85264e-07
2.99124e-06
-2.74875e-06
2.10496e-07
8.71438e-08
-2.70821e-06
-1.5267e-06
4.20178e-07
-2.02108e-07
-3.47199e-06
-1.74311e-07
5.86632e-07
-1.36152e-06
-8.42932e-07
-8.0714e-07
-7.2151e-07
-3.58749e-06
-1.13738e-06
-4.67055e-07
-2.31774e-06
8.82846e-07
-1.1686e-06
-1.27731e-06
-4.23937e-06
-2.91587e-06
-1.12695e-06
-3.62903e-07
-1.62511e-06
-1.88191e-06
-5.98272e-07
1.83042e-06
5.56633e-07
-1.28288e-06
-6.41091e-07
1.81468e-07
-4.81336e-08
-1.85626e-06
1.89042e-10
-9.18692e-07
-1.54208e-06
2.65836e-06
3.84795e-06
7.69049e-07
1.54888e-06
1.66812e-06
4.28975e-06
4.31713e-06
4.65752e-06
1.75056e-06
9.94312e-07
-1.28076e-06
1.01912e-06
1.97325e-06
6.52889e-07
-7.15668e-07
3.44693e-06
3.13947e-06
-6.54176e-07
3.48769e-07
-7.68204e-07
3.06173e-06
-2.3477e-06
3.59363e-06
1.07082e-06
3.24687e-07
-1.88115e-06
2.65464e-06
1.81332e-06
2.25713e-06
3.39079e-07
1.20583e-06
3.29152e-07
2.21444e-06
3.05679e-06
8.15851e-09
-9.67894e-09
2.14497e-06
8.61864e-09
-1.30044e-06
8.94962e-09
1.08792e-06
4.39843e-09
7.00468e-11
4.00348e-09
2.24934e-06
-1.56578e-10
1.65745e-06
8.10206e-10
1.14861e-06
-1.39878e-09
3.30374e-07
-4.94322e-09
3.76407e-06
-2.7263e-09
-7.85633e-06
-3.70697e-09
-5.58311e-06
-4.49321e-09
2.4005e-07
-5.50069e-10
5.45629e-07
1.21508e-09
1.78287e-07
-6.39728e-10
1.27202e-06
-1.99133e-09
3.61237e-06
-1.21461e-09
3.71335e-06
-1.59617e-09
6.00638e-07
-3.15011e-09
-1.39927e-05
-4.37924e-09
2.12657e-09
4.14894e-09
2.595e-06
9.52995e-10
2.14019e-06
1.59124e-09
2.88128e-06
-1.53857e-09
1.04979e-06
-5.23377e-09
1.08689e-10
-5.50961e-09
2.70167e-06
-7.21538e-09
-5.26921e-06
-1.4942e-05
7.40205e-06
-7.40082e-06
-9.53118e-06
5.15361e-06
1.86103e-05
1.60229e-05
-1.27596e-05
-1.54361e-06
3.3877e-05
-1.94484e-05
2.74744e-05
-2.64916e-05
-1.39703e-05
2.02121e-05
-4.29642e-05
1.41107e-05
-1.89433e-05
-1.01941e-05
2.64611e-05
-8.92047e-06
-4.29834e-05
8.59324e-06
-6.25177e-05
1.44596e-05
-8.34296e-06
7.67122e-06
5.18333e-06
-1.20077e-05
2.1639e-05
-4.35728e-06
-1.86216e-05
-3.75218e-06
7.29079e-06
-1.57709e-07
-1.64557e-05
2.64163e-06
-7.02003e-06
-9.12616e-06
-1.72893e-05
-1.5103e-05
-2.14256e-05
3.10585e-05
-3.62026e-05
1.30045e-05
1.15702e-05
-6.66542e-06
3.93869e-05
-1.04731e-06
-2.3876e-05
-4.26303e-06
-3.04208e-07
-5.42743e-06
8.79062e-06
-5.78517e-07
-2.92842e-05
-2.78035e-05
-6.58173e-06
9.847e-06
-5.11682e-06
-1.23317e-06
8.9873e-06
-8.45192e-06
-5.08286e-06
5.51367e-07
1.53047e-05
1.07632e-05
1.17598e-05
1.46971e-05
-6.37936e-06
-9.52059e-06
-1.874e-05
-6.26367e-06
-9.58952e-06
1.2375e-05
1.08073e-05
4.36372e-06
-1.81674e-05
-1.00095e-05
-2.77079e-05
-1.21373e-05
-4.4401e-06
-6.14061e-06
2.19857e-06
5.66361e-06
9.84038e-06
1.23071e-06
-8.22228e-06
3.20132e-06
3.82712e-06
4.50307e-06
-7.86199e-06
1.63686e-06
-4.02816e-06
1.39057e-06
-7.78767e-06
2.82012e-06
-8.47521e-06
-1.68128e-05
-1.6573e-05
-6.97936e-06
5.44771e-06
7.22297e-06
1.71232e-05
1.3801e-06
-1.06464e-05
3.58169e-06
7.49708e-07
7.72087e-06
4.49223e-06
4.82489e-06
-1.31161e-05
-1.31208e-05
-4.20455e-06
5.57256e-06
-1.78693e-06
-1.085e-06
3.25879e-06
-4.60136e-06
-2.29763e-06
3.30303e-07
4.66962e-06
6.32376e-06
2.44425e-06
7.83525e-06
-7.47551e-07
-5.27478e-06
-5.61979e-06
-3.77922e-06
-3.50818e-06
6.3333e-06
2.45945e-06
3.20068e-06
-6.07285e-06
-5.49813e-06
-7.3683e-06
-6.89814e-06
-2.40779e-06
-3.93627e-06
8.96682e-07
3.39716e-06
2.5188e-06
6.5717e-07
-2.45487e-06
2.00826e-06
1.25e-06
2.20054e-06
-2.57404e-06
2.07433e-07
-1.79739e-06
4.47653e-07
-3.56519e-06
2.033e-06
-2.5718e-06
-9.46832e-06
-5.06782e-06
-3.32736e-06
1.62144e-06
4.24358e-06
4.71311e-06
5.40366e-07
-2.7643e-06
1.80765e-06
1.03059e-06
5.05073e-06
1.71901e-07
3.1451e-06
-3.61625e-06
-4.39277e-06
-2.41262e-06
2.84753e-06
-4.06582e-07
-2.5178e-06
2.99513e-07
1.83251e-06
3.74982e-06
-1.86489e-06
-1.52271e-06
2.47721e-06
6.86275e-07
-2.02329e-06
-3.42806e-06
-1.51542e-06
1.00323e-06
5.24887e-07
1.05081e-06
1.60832e-06
1.48929e-07
-3.58367e-07
6.65853e-07
-4.39639e-06
-1.69405e-06
1.1446e-06
2.02615e-07
1.58496e-06
2.09963e-06
1.54595e-06
2.91422e-09
1.71845e-09
-8.86716e-06
-1.99902e-09
-9.12206e-06
7.56949e-09
-6.13547e-06
-1.29883e-05
7.99126e-06
1.96516e-05
-7.24297e-06
1.73652e-05
)
;

boundaryField
{
    top_fluid_surface
    {
        type            calculated;
        value           nonuniform List<scalar> 
64
(
0
1.92012e-09
5.40887e-09
0
0
0
0
0
0
0
6.11435e-09
0
0
0
1.87404e-09
6.48323e-10
8.42731e-09
9.87569e-09
8.63788e-09
8.83218e-09
0
6.81244e-10
5.00137e-09
7.22655e-09
0
5.42363e-09
3.52343e-09
2.29622e-09
4.9561e-09
0
0
8.40055e-10
0
0
6.3464e-11
3.71423e-09
0
0
0
5.02234e-10
0
0
0
0
0
0
0
0
0
0
0
0
0
0
0
0
5.04139e-10
0
0
0
0
7.55577e-10
0
5.10498e-09
)
;
    }
    bottom_fluid_surface
    {
        type            calculated;
        value           uniform 0;
    }
    lateral_surface_1
    {
        type            calculated;
        value           uniform 0;
    }
    lateral_surface_2
    {
        type            calculated;
        value           uniform 0;
    }
    lateral_surface_3
    {
        type            calculated;
        value           uniform 0;
    }
    lateral_surface_4
    {
        type            calculated;
        value           uniform 0;
    }
}


// ************************************************************************* //
