/*--------------------------------*- C++ -*----------------------------------*\
| =========                 |                                                 |
| \\      /  F ield         | OpenFOAM: The Open Source CFD Toolbox           |
|  \\    /   O peration     | Version:  v1612+                                |
|   \\  /    A nd           | Web:      www.OpenFOAM.com                      |
|    \\/     M anipulation  |                                                 |
\*---------------------------------------------------------------------------*/
FoamFile
{
    version     2.0;
    format      ascii;
    class       surfaceScalarField;
    location    "1.2";
    object      alphaPhi;
}
// * * * * * * * * * * * * * * * * * * * * * * * * * * * * * * * * * * * * * //

dimensions      [0 3 -1 0 0 0 0];

internalField   nonuniform List<scalar> 
816
(
-3.30655e-07
9.3713e-07
1.41297e-07
6.72981e-07
8.99078e-07
-2.31945e-06
-9.7397e-09
4.46696e-07
8.8467e-07
1.10018e-06
-2.74663e-06
2.36206e-08
1.49913e-06
-5.91181e-07
-1.67019e-06
1.68043e-06
-1.09631e-07
2.19065e-07
-2.8498e-07
2.0449e-07
1.70669e-10
4.26901e-10
-2.91451e-06
2.73413e-10
-2.09777e-10
7.17531e-10
-1.90741e-06
2.95585e-10
9.57327e-11
8.57495e-11
-1.10273e-05
1.86565e-12
4.21504e-10
1.21433e-10
1.56547e-06
2.63447e-10
-5.97692e-10
9.60281e-11
8.51049e-12
1.10904e-10
-3.14038e-10
-4.44382e-10
-9.16359e-06
5.38674e-11
9.78195e-11
-2.21788e-10
4.07517e-06
9.59971e-11
-2.12682e-11
-1.68558e-10
8.87289e-12
1.47876e-10
-4.41721e-10
1.07874e-10
-1.41886e-05
-9.79524e-11
-1.25668e-10
4.7265e-11
-7.54829e-06
1.37811e-11
-2.1573e-11
2.40698e-10
9.96902e-07
3.53267e-11
-1.39032e-10
-3.72631e-06
5.26911e-11
-3.00465e-11
5.20522e-07
1.82127e-06
-4.44105e-06
-3.37256e-06
1.51448e-06
3.90288e-06
-3.7853e-06
-2.13146e-06
2.57826e-08
-5.1162e-06
-3.14835e-06
-8.9453e-07
-1.66989e-06
-1.43249e-06
2.66686e-06
-2.44208e-07
-1.02203e-07
3.62013e-06
-1.15008e-06
1.55182e-07
-2.80009e-07
-6.14309e-06
-3.88713e-06
2.271e-06
-5.01703e-07
2.11728e-06
4.65719e-06
1.43501e-06
1.83068e-06
4.87576e-06
-6.08505e-07
2.49788e-06
2.89673e-07
8.40164e-07
-7.27796e-06
-4.53219e-06
-3.2281e-06
-2.48445e-06
-1.70569e-06
-4.7311e-06
-1.0471e-06
2.46604e-06
-1.18715e-06
-1.80796e-06
1.84395e-06
3.89114e-07
-1.58239e-07
2.1816e-07
7.62851e-08
-4.0107e-07
-2.82435e-06
-1.14422e-06
-1.46497e-07
-2.4975e-06
-6.13078e-07
-3.37448e-07
-1.66502e-06
-5.80186e-07
-7.07532e-07
1.06937e-06
1.66285e-06
4.89154e-07
9.55123e-07
-5.43523e-07
-5.99248e-07
-1.14944e-06
-1.52729e-06
3.67847e-07
-6.28591e-07
9.12427e-07
2.14824e-06
6.66718e-07
8.2141e-07
-6.62395e-07
1.64484e-06
-8.46354e-07
-3.0966e-06
-2.00741e-07
-2.30644e-06
-7.18673e-07
-1.04239e-06
-1.35921e-06
1.30138e-08
-1.08831e-06
-1.47078e-07
-7.79649e-08
-3.2794e-07
4.1117e-07
-2.87256e-07
6.73914e-07
-8.63137e-08
1.27417e-07
4.77076e-07
-2.27326e-07
3.99706e-07
2.31715e-07
4.16522e-07
-1.09592e-07
5.64406e-07
-8.61773e-07
-5.73384e-07
-2.96702e-07
-1.58793e-07
-1.54165e-07
1.3991e-07
-7.59983e-07
-1.51533e-06
-7.68201e-07
-3.54319e-07
-9.84382e-07
-6.12975e-07
-4.82572e-07
-4.10713e-07
-7.02385e-07
-4.16403e-07
5.70516e-07
3.45865e-07
5.04872e-07
5.18358e-07
-5.35783e-07
-2.57318e-07
-6.60234e-07
4.93798e-07
-3.56466e-07
-4.84807e-07
6.37357e-07
9.93353e-08
5.9917e-07
1.3104e-07
6.8402e-07
-2.68536e-07
-1.32413e-07
-1.10288e-07
-1.80483e-06
-9.07669e-07
-1.86459e-07
-1.57829e-06
-2.61762e-07
-9.62231e-08
-8.14244e-07
-2.27346e-07
-6.49789e-07
-1.03299e-07
-1.71705e-07
9.62507e-11
-2.38266e-10
-2.82123e-06
1.02533e-10
1.18521e-10
2.2556e-14
4.5222e-11
3.80542e-10
2.5546e-06
3.06734e-10
3.31165e-10
-4.13582e-06
1.76834e-10
2.15139e-10
-6.22445e-06
-9.78317e-11
-3.41625e-10
-1.56079e-11
-7.56547e-06
1.23374e-10
-1.10689e-10
-2.14386e-06
-5.68443e-11
-2.66519e-10
-1.82751e-06
1.09041e-11
-1.04331e-10
-9.66784e-06
-2.54528e-10
-2.15936e-12
1.10657e-06
9.54448e-11
-1.66595e-10
-1.80907e-10
-8.35065e-06
-5.78354e-11
-5.18447e-10
-9.05599e-06
2.52988e-11
-3.0144e-10
-8.74227e-06
9.77564e-11
-5.59354e-10
7.46271e-12
-2.24837e-10
2.33605e-10
4.01783e-06
6.7554e-11
-3.95624e-10
2.73583e-10
-1.02489e-05
-1.2616e-10
1.75199e-11
-1.09497e-06
-2.49473e-10
-3.35235e-11
-1.60042e-07
-4.12011e-10
-2.31214e-10
-4.02642e-06
-5.07161e-10
8.95465e-07
-9.34713e-11
-7.31614e-10
-1.83728e-07
-1.93627e-06
1.00881e-06
-2.3276e-06
5.43705e-07
1.77201e-06
-5.44559e-06
5.50289e-06
3.29438e-06
-5.87957e-07
3.09892e-06
1.36931e-06
-2.71545e-06
1.80394e-06
-1.67494e-06
-6.92152e-06
-2.905e-06
-1.70406e-06
-8.55382e-07
-5.47783e-06
-2.14656e-07
6.64e-07
-4.95192e-06
-1.64982e-06
9.43857e-07
-4.09171e-06
-7.87114e-06
-9.97264e-07
-2.76693e-06
4.17101e-06
-2.18925e-06
3.32318e-07
-5.32377e-06
1.88443e-06
-1.44496e-07
-6.24403e-06
-2.15116e-06
-2.37542e-06
-4.30723e-06
-4.58687e-06
-7.57368e-06
5.47575e-07
-3.97005e-06
-6.76898e-07
-2.00645e-06
5.37539e-06
5.26767e-06
-2.87502e-06
1.092e-06
-1.41152e-07
-2.99571e-06
-8.58435e-06
-2.71044e-08
1.24899e-06
-6.93489e-06
-2.3526e-07
2.88699e-06
-4.09397e-06
-5.04312e-06
-8.21951e-07
2.63151e-07
1.44585e-06
-2.97301e-06
6.31157e-07
-5.19796e-07
1.04703e-06
2.73253e-07
-1.18458e-07
-1.13453e-07
1.56729e-06
-1.32734e-06
1.09324e-06
1.53269e-06
-5.27251e-08
1.79099e-06
4.36252e-07
-3.36868e-07
-3.07951e-07
-1.02486e-06
3.39401e-07
1.11596e-06
-6.26313e-07
-6.67253e-07
-5.86519e-07
4.53596e-08
3.54851e-07
1.21795e-07
3.60282e-07
2.3891e-07
-2.11814e-07
-2.57628e-08
-6.33641e-07
3.78858e-07
6.77391e-07
-1.45732e-06
-8.23503e-07
-6.21887e-07
8.71311e-07
-3.51424e-07
-6.18653e-07
7.54609e-07
-1.2174e-06
-3.66618e-07
-2.14599e-06
-3.74398e-06
7.19456e-07
-2.6683e-06
-1.53209e-07
-1.91794e-07
1.30096e-06
2.33272e-06
-6.52768e-07
-3.81092e-07
-2.73919e-08
-1.13045e-06
-2.82699e-06
5.43558e-09
1.15265e-06
-1.28782e-06
8.88972e-07
1.69652e-06
1.66695e-07
-3.55389e-07
-4.40606e-07
1.28069e-06
1.23662e-06
-7.07619e-07
1.59972e-06
-2.81379e-07
2.78611e-07
2.40197e-08
-3.80576e-07
2.65972e-07
6.00684e-07
-1.07649e-06
9.05442e-07
4.59215e-07
-5.39954e-07
1.28204e-06
1.91726e-07
-5.3155e-07
-2.52955e-07
-2.83607e-07
3.43692e-09
7.78424e-07
-5.4053e-07
-2.35211e-07
-8.45416e-07
6.84571e-08
8.42259e-08
-5.08109e-10
2.9623e-07
1.63994e-08
-5.53938e-07
-2.85539e-07
-1.24305e-07
5.52023e-07
4.78204e-07
-3.46383e-07
-8.00401e-07
-1.08282e-06
4.16139e-07
-1.43638e-07
-5.14977e-07
4.22073e-07
-4.09813e-07
-7.18395e-07
-1.51895e-06
-1.27279e-06
1.57612e-07
-1.62038e-06
-2.37377e-07
8.76175e-08
7.75662e-07
7.1489e-07
-5.7052e-07
-1.91611e-07
-1.04898e-07
-1.21482e-07
-1.91626e-06
7.6987e-08
3.32716e-07
-9.30497e-07
6.57606e-07
5.42742e-07
-2.36121e-07
-5.06221e-07
-1.67588e-07
7.93382e-07
3.77795e-07
-4.64109e-07
1.1082e-06
2.80089e-08
4.83264e-07
-5.57752e-08
2.56482e-08
1.08442e-08
1.25373e-07
3.12462e-07
4.76867e-08
3.52072e-07
-4.82073e-07
-1.04348e-07
1.1115e-08
7.87531e-08
-2.4776e-07
-6.46519e-07
-4.31091e-08
-3.59977e-07
-1.7085e-07
-1.44044e-07
-1.38713e-07
3.44476e-07
3.08544e-07
1.99996e-07
-2.16439e-07
-3.45792e-07
1.67646e-07
-1.0847e-07
1.31247e-07
1.267e-07
-1.37036e-07
3.52907e-07
-1.01583e-07
1.71401e-08
-9.53972e-07
-6.52457e-08
-7.73659e-07
5.18796e-08
-3.09351e-07
-2.45399e-07
-1.10661e-07
-1.47448e-07
9.8771e-08
-1.61884e-07
2.35625e-07
-4.13455e-07
5.01999e-07
-1.59433e-07
7.15471e-07
-1.55263e-07
-1.2855e-07
9.30141e-08
4.77125e-07
-2.68021e-07
-2.24036e-07
2.68393e-09
1.27638e-07
4.63075e-08
-2.43426e-07
-1.06468e-07
1.87008e-07
2.86586e-07
-3.52066e-07
-3.96872e-07
2.07561e-07
-1.88468e-07
1.5104e-07
-2.30381e-07
-8.51e-07
8.28163e-08
-1.04551e-06
-1.14805e-08
3.18224e-07
-2.51017e-07
-3.82686e-07
7.49407e-08
-8.162e-07
8.13007e-08
-4.3779e-07
3.47832e-07
-2.50954e-08
-2.33515e-07
3.11765e-07
-2.16091e-07
4.71769e-07
3.58549e-10
-4.48973e-10
1.7376e-06
6.7159e-11
-9.84136e-07
2.33324e-10
3.75761e-06
1.55274e-10
-5.13611e-07
-8.03737e-12
9.06199e-12
-2.99582e-10
2.36728e-06
1.62002e-10
-6.04618e-06
7.78524e-10
5.24284e-07
-6.64084e-11
1.24675e-11
-2.05094e-10
4.79581e-06
-7.95739e-11
1.35808e-06
3.3154e-10
-2.16592e-06
7.27677e-11
-2.25042e-06
-2.25277e-10
1.12519e-11
-6.0808e-11
2.18413e-06
-1.15595e-10
2.96157e-06
-4.33755e-10
1.56251e-11
-4.32618e-10
-1.1124e-05
-2.28327e-10
6.01859e-07
-6.13581e-11
2.54919e-06
-2.25743e-10
7.25313e-07
3.86746e-10
-1.96074e-06
7.46575e-11
4.24488e-06
-8.12729e-11
3.99446e-06
-4.37489e-11
1.80221e-06
-3.21397e-10
-1.04414e-05
-4.26654e-11
-8.27299e-06
1.71523e-06
2.49896e-06
-1.68032e-06
3.09417e-06
-1.19411e-06
6.14833e-07
2.9207e-06
5.14133e-06
1.24685e-06
1.27268e-06
1.27991e-06
2.62808e-06
5.12567e-06
8.99254e-08
-3.63108e-06
-7.37609e-06
-3.93794e-06
-2.76597e-06
-4.74081e-06
2.91991e-06
1.5933e-06
4.16035e-06
2.51078e-06
-4.39731e-07
6.23501e-07
-3.78583e-06
-4.13533e-06
1.78552e-06
-1.4631e-06
3.52138e-06
3.4221e-07
1.81768e-06
4.03001e-06
2.27467e-06
4.32103e-06
2.82191e-06
-2.8147e-06
-7.77287e-06
-3.52897e-06
-2.63671e-06
-1.73107e-06
4.85293e-06
2.04514e-08
2.99515e-06
-1.43929e-06
-1.63798e-07
-4.35372e-07
7.87796e-06
4.09052e-06
5.33649e-06
6.56591e-06
8.12783e-07
-1.72436e-06
-6.85343e-06
-6.10681e-06
-5.59548e-06
-8.33194e-07
-4.78627e-07
1.18805e-06
1.68557e-06
-5.23677e-07
5.63351e-07
5.95097e-07
2.70191e-06
8.42429e-07
9.7812e-07
1.59251e-06
1.54795e-06
1.96335e-06
3.12134e-08
-1.65175e-06
-3.75225e-06
-1.60045e-06
-1.65685e-06
-1.01147e-06
1.74136e-06
1.20363e-06
2.06144e-06
2.68634e-07
2.873e-07
-7.77465e-07
-2.36373e-06
-8.84501e-07
1.0642e-06
5.68722e-07
2.06479e-06
2.99089e-07
1.45586e-06
1.15145e-06
7.99279e-07
1.66894e-06
1.93656e-06
-1.74795e-06
-3.63274e-06
-2.66009e-06
-1.91127e-06
-1.20588e-06
2.77102e-06
2.02328e-09
1.79068e-06
-4.22711e-07
-1.00253e-07
8.73855e-07
3.76633e-06
2.22999e-06
2.69928e-06
2.37608e-06
8.34914e-07
2.8654e-07
-3.46709e-06
-9.61378e-07
-2.74086e-06
-5.9763e-07
-3.11196e-07
9.81151e-07
5.63482e-07
-2.77968e-07
1.67575e-07
5.01233e-07
8.5672e-07
7.20786e-07
2.29359e-07
1.3359e-06
4.34516e-07
1.56553e-06
-1.91647e-07
-1.13311e-06
-1.1049e-06
-1.38404e-06
-6.07186e-07
-8.46281e-07
3.6333e-07
7.45462e-07
4.5725e-07
3.33486e-07
1.37498e-07
-8.9127e-07
-5.93094e-07
-1.00493e-06
3.6385e-07
4.71272e-07
5.86672e-07
3.8433e-07
4.43938e-07
5.3137e-07
1.26141e-07
1.3053e-06
4.42845e-07
-9.85318e-07
-1.18418e-06
-2.27213e-06
-5.35077e-07
-9.14083e-07
8.8356e-07
1.94702e-07
7.00562e-07
-3.57134e-07
2.76523e-07
3.51044e-07
1.15323e-06
1.41018e-06
7.17034e-07
1.81658e-06
1.80782e-07
2.14711e-07
-1.05819e-06
-6.2251e-07
-7.83497e-07
-2.29596e-07
-9.4464e-08
4.5154e-07
-7.6324e-08
3.71383e-07
4.45261e-07
7.39315e-07
6.65102e-07
-4.44704e-07
-5.69758e-07
-4.24367e-07
1.62331e-07
5.03088e-08
-3.63415e-07
-3.63724e-07
2.20497e-07
2.56365e-07
1.89309e-07
4.05114e-07
-6.89193e-07
-1.22908e-06
-5.76833e-07
1.32383e-07
3.55059e-08
3.7658e-07
6.60624e-07
8.1649e-07
7.83364e-08
-2.25895e-07
7.58979e-10
4.29711e-10
-1.30351e-06
1.57433e-10
3.67414e-12
4.68505e-10
-1.48022e-06
4.76296e-07
-4.72166e-08
-7.06659e-07
-1.82152e-06
-1.89199e-06
)
;

boundaryField
{
    top_fluid_surface
    {
        type            calculated;
        value           nonuniform List<scalar> 
64
(
0
0
1.07147e-11
1.58367e-10
1.73476e-10
3.10109e-10
0
6.98295e-11
1.24632e-10
8.48474e-11
0
3.57038e-10
1.16962e-10
9.69258e-11
0
0
3.61857e-10
3.65179e-10
3.31524e-10
2.27686e-10
1.22941e-10
0
3.18532e-10
3.00555e-10
6.48445e-11
1.24964e-10
0
0
3.22722e-10
3.15177e-10
3.88709e-10
3.2764e-11
0
2.65294e-10
0
2.45985e-10
2.64222e-10
3.95183e-11
0
0
2.63184e-10
3.47083e-12
0
0
2.05842e-10
1.95479e-10
0
0
1.81123e-10
8.30122e-11
0
0
0
0
0
0
0
0
0
0
0
0
0
1.04611e-10
)
;
    }
    bottom_fluid_surface
    {
        type            calculated;
        value           uniform 0;
    }
    lateral_surface_1
    {
        type            calculated;
        value           uniform 0;
    }
    lateral_surface_2
    {
        type            calculated;
        value           uniform 0;
    }
    lateral_surface_3
    {
        type            calculated;
        value           uniform 0;
    }
    lateral_surface_4
    {
        type            calculated;
        value           uniform 0;
    }
}


// ************************************************************************* //
