/*--------------------------------*- C++ -*----------------------------------*\
| =========                 |                                                 |
| \\      /  F ield         | OpenFOAM: The Open Source CFD Toolbox           |
|  \\    /   O peration     | Version:  v1612+                                |
|   \\  /    A nd           | Web:      www.OpenFOAM.com                      |
|    \\/     M anipulation  |                                                 |
\*---------------------------------------------------------------------------*/
FoamFile
{
    version     2.0;
    format      ascii;
    class       volVectorField;
    location    "7.7";
    object      U;
}
// * * * * * * * * * * * * * * * * * * * * * * * * * * * * * * * * * * * * * //

dimensions      [0 1 -1 0 0 0 0];

internalField   nonuniform List<vector> 
320
(
(5.15149e-06 -1.21989e-05 2.14833e-05)
(-5.60296e-06 -8.78174e-06 -6.82287e-06)
(-1.82915e-05 -7.58209e-06 -1.12305e-05)
(3.26121e-06 2.07904e-05 -7.40975e-06)
(0.000248852 0.000254599 -0.00010235)
(1.5188e-06 1.11855e-05 -7.50744e-05)
(0.000276269 0.000242896 -3.01075e-05)
(0.000139767 0.000290186 1.46736e-05)
(0.000268393 0.000113755 -6.73477e-05)
(-0.000109477 0.000380712 -5.28764e-05)
(-0.000126263 0.000309926 -3.35871e-05)
(-0.000120711 0.000121685 -5.4142e-05)
(-0.000485081 0.000465414 2.36606e-05)
(-0.000354246 -0.000131422 -0.000138674)
(-0.000399361 0.000303573 0.000268135)
(-0.000145146 0.000278043 -0.000137004)
(2.07668e-05 -6.5486e-07 3.73592e-05)
(2.13124e-05 -2.46123e-06 2.8494e-05)
(4.30679e-05 4.3245e-06 1.11204e-07)
(1.33925e-05 -3.42627e-06 -1.65003e-05)
(2.88794e-05 -1.30344e-05 8.30618e-06)
(1.39597e-05 2.95412e-05 3.45962e-05)
(-8.93526e-06 1.25641e-05 3.65064e-05)
(-2.80788e-07 -2.04526e-05 2.56277e-06)
(-3.70446e-05 2.85675e-05 5.12531e-05)
(-2.43732e-05 -4.55431e-05 3.4519e-05)
(-3.48386e-05 4.98641e-06 -6.07055e-05)
(-1.50778e-05 1.44438e-05 2.26173e-05)
(-9.26004e-06 1.15095e-06 2.05421e-05)
(-1.06768e-05 7.92915e-07 2.4593e-05)
(-2.31623e-05 9.07164e-07 2.78152e-07)
(-6.50572e-06 1.74058e-06 -1.53763e-05)
(-1.40483e-05 6e-06 4.04116e-06)
(-6.08375e-06 -1.24251e-05 2.03233e-05)
(7.97959e-06 -6.57995e-06 1.89239e-05)
(4.84019e-07 9.83589e-06 -4.80042e-06)
(1.79306e-05 -1.58235e-05 3.14203e-05)
(1.27598e-05 2.54567e-05 2.35953e-05)
(1.75089e-05 2.40713e-07 -3.44453e-05)
(7.03913e-06 -7.21022e-06 1.20968e-05)
(2.07737e-06 -7.64398e-06 8.00458e-06)
(-3.82483e-06 -5.73228e-06 -5.13908e-06)
(-1.06843e-05 -4.66287e-06 -1.76219e-06)
(2.43604e-06 1.20491e-05 -7.49234e-06)
(-4.94931e-06 3.83054e-07 6.7903e-06)
(-6.37249e-06 -5.98659e-07 -2.49957e-07)
(-1.21027e-05 -6.33801e-07 -5.2659e-07)
(-3.08832e-06 1.16429e-06 2.48645e-06)
(-6.60179e-06 5.13842e-06 1.00789e-06)
(-2.75716e-06 -6.67928e-06 7.01319e-06)
(5.97646e-06 -3.07872e-06 7.06255e-06)
(2.67527e-07 6.70394e-06 2.18461e-06)
(9.34911e-06 -9.85834e-06 7.58106e-06)
(6.84862e-06 1.3858e-05 4.15534e-06)
(9.53388e-06 2.54998e-09 -9.97059e-06)
(4.64545e-06 -3.77022e-06 3.5485e-06)
(-0.000644745 0.000142596 -4.70072e-05)
(0.000108474 0.000328229 -0.000212125)
(-2.66549e-05 0.000181343 4.20349e-05)
(-5.77375e-06 0.000312191 -0.000151382)
(0.000199389 0.000582309 0.000173734)
(0.000249002 0.000156008 0.000351091)
(1.12661e-05 0.000269496 0.000404794)
(8.83732e-05 -0.000347709 0.00046704)
(-6.67107e-05 -0.00034849 -3.85538e-05)
(-0.000345048 7.64397e-05 2.21025e-05)
(-0.00039151 0.000109987 0.000389419)
(0.000125727 8.4742e-05 0.000406356)
(7.00181e-05 0.000191792 -0.000108321)
(-0.000416449 0.000137452 0.000352652)
(0.000371762 -4.49478e-05 0.000357114)
(0.000175745 0.000181897 0.00035728)
(0.000125017 0.000290498 0.000387425)
(0.000178736 0.000635565 4.58136e-05)
(9.97027e-05 7.73945e-06 -0.000167365)
(4.8139e-05 6.55533e-05 0.00026129)
(-3.66415e-05 -1.95993e-05 -1.5193e-05)
(1.07335e-05 -1.15499e-06 3.46005e-05)
(1.09994e-05 -2.53747e-05 3.52529e-06)
(1.36138e-05 6.94597e-07 7.61105e-06)
(-3.85324e-06 4.13776e-05 -6.70745e-05)
(1.56853e-05 -2.6856e-06 -9.05629e-05)
(-1.8333e-05 2.02305e-06 -7.16195e-05)
(-9.85946e-06 -3.91e-05 -0.000109913)
(3.85464e-06 -4.08707e-05 7.7929e-06)
(-2.04136e-05 -5.24787e-06 1.66753e-05)
(-2.456e-05 1.77653e-05 -7.19676e-05)
(4.15655e-05 1.58526e-06 -8.51878e-05)
(1.59873e-05 -5.09457e-06 4.92879e-05)
(-3.3235e-05 4.53619e-06 -5.42691e-05)
(2.32771e-05 -4.15245e-05 -4.89546e-05)
(-2.94762e-05 -1.15921e-05 -6.52393e-05)
(7.42821e-06 1.41e-05 -7.1949e-05)
(2.08433e-05 3.56223e-05 -1.22101e-05)
(4.48194e-06 -2.45853e-06 4.93521e-06)
(2.51568e-05 5.08654e-06 -5.69413e-05)
(1.78528e-05 8.01446e-06 -9.21536e-06)
(-2.85167e-06 -1.54266e-06 1.60218e-05)
(-5.3583e-06 1.2601e-05 7.38016e-06)
(-8.24007e-06 1.64206e-06 1.52698e-06)
(3.00655e-06 -2.14341e-05 -3.51609e-05)
(-7.85845e-06 2.53346e-06 -3.86472e-05)
(9.3381e-06 3.31991e-07 -3.818e-05)
(1.0083e-05 2.12177e-05 -5.15886e-05)
(-1.72654e-06 2.60757e-05 4.85111e-06)
(1.49382e-05 6.2332e-06 1.64636e-05)
(1.8608e-05 -7.77484e-06 -4.33478e-05)
(-1.90015e-05 3.07627e-07 -4.45857e-05)
(-9.04484e-06 2.80082e-06 3.25642e-05)
(1.61915e-05 -3.09351e-07 -3.23991e-05)
(-1.33864e-05 2.27345e-05 -3.12629e-05)
(1.39033e-05 6.40378e-06 -3.8219e-05)
(-3.16423e-06 -8.0084e-06 -4.15993e-05)
(-1.32134e-05 -1.79212e-05 -7.3762e-06)
(-2.9304e-06 1.49543e-06 3.62443e-07)
(-1.73213e-05 -6.7034e-06 -4.05856e-05)
(1.07451e-05 5.37418e-06 -4.51012e-06)
(-1.09408e-06 -3.74329e-09 6.4697e-06)
(-2.80782e-06 7.49205e-06 -4.78242e-06)
(-4.83736e-06 1.2907e-06 2.49699e-06)
(2.16028e-06 -1.17994e-05 -1.24607e-05)
(-3.75248e-06 1.15057e-06 -1.8172e-05)
(5.41135e-06 -2.31131e-07 -1.18274e-05)
(6.72447e-06 1.23806e-05 -1.90214e-05)
(-1.48381e-06 1.44962e-05 1.72709e-06)
(8.68214e-06 3.24759e-06 -9.07177e-07)
(1.09739e-05 -4.50137e-06 -1.0246e-05)
(-1.09482e-05 1.57324e-07 -1.4859e-05)
(-3.90405e-06 2.22257e-06 5.36635e-06)
(1.00733e-05 -9.31104e-07 -8.78785e-06)
(-7.65011e-06 1.233e-05 -7.12358e-06)
(9.47727e-06 3.47999e-06 -1.00065e-05)
(-1.3442e-06 -4.4787e-06 -1.10864e-05)
(-6.64937e-06 -9.84758e-06 -3.23979e-06)
(2.72862e-07 1.5946e-06 1.19626e-06)
(-9.51917e-06 -3.40326e-06 -6.59206e-06)
(-1.12929e-07 -4.09115e-06 1.94931e-06)
(7.10613e-08 -1.87822e-06 -1.05005e-06)
(-6.85974e-06 -1.91278e-06 -1.36078e-06)
(2.50734e-07 7.8967e-06 -7.69808e-07)
(-5.44058e-06 -8.04952e-08 2.41382e-06)
(-3.83014e-06 1.60788e-06 3.1972e-06)
(-5.34466e-06 1.02942e-06 -4.14764e-07)
(-8.96439e-08 -1.03251e-08 -1.85318e-06)
(-2.76588e-06 9.15069e-07 6.91357e-07)
(-9.06401e-07 -2.16653e-06 1.95986e-06)
(2.89894e-06 4.21418e-07 2.75518e-06)
(4.45801e-07 2.1688e-06 -8.54515e-07)
(5.66559e-06 -3.33324e-06 3.1084e-06)
(3.20315e-06 7.3379e-06 3.21472e-06)
(6.11118e-06 -4.59059e-07 -3.01559e-06)
(2.08197e-06 -7.95827e-07 2.59822e-06)
(5.20195e-06 2.61538e-06 -6.61996e-07)
(-2.51662e-06 -1.20604e-06 1.17207e-06)
(-1.03884e-06 2.36546e-06 9.1074e-07)
(-4.13996e-07 -1.26995e-06 -3.40786e-07)
(-6.62138e-07 -5.6052e-06 -3.43662e-06)
(-3.11343e-06 1.93223e-06 -3.64008e-06)
(3.38413e-07 7.00567e-07 -4.2212e-06)
(9.92269e-07 7.07991e-06 -4.85088e-06)
(-4.72165e-07 7.61144e-06 7.53068e-07)
(2.93318e-06 1.3308e-06 1.81898e-06)
(4.42423e-06 -2.92487e-06 -4.31659e-06)
(-4.08467e-06 1.29631e-07 -4.58661e-06)
(-3.10506e-06 6.73975e-07 2.81354e-06)
(3.62134e-06 8.86469e-07 -3.69005e-06)
(-4.28099e-06 5.79159e-06 -3.54894e-06)
(3.40625e-06 1.75069e-06 -4.60016e-06)
(-2.03378e-06 -1.46726e-06 -5.00602e-06)
(-3.2775e-06 -5.21239e-06 -1.53439e-06)
(-2.45038e-06 -9.89743e-07 -7.06768e-07)
(-6.01059e-06 -2.23304e-06 -4.52624e-06)
(0.000158243 0.000216885 2.97565e-05)
(-0.000407899 0.000155373 -8.67359e-05)
(0.000211696 -1.98177e-05 -0.000201088)
(1.92279e-05 5.0889e-05 3.40123e-05)
(-0.000120914 -6.49035e-05 -1.5952e-05)
(-0.000106039 0.000166785 -4.94485e-05)
(-0.000684063 0.000238652 -0.000493535)
(-0.000617393 0.000665187 -6.74862e-05)
(-0.000603446 5.6558e-05 6.88912e-05)
(-0.000715024 0.000131791 -0.000222594)
(-0.000739764 3.61558e-05 -0.000174552)
(-0.000335467 -5.10807e-05 -0.000152567)
(-0.000442262 0.000228081 -0.000211756)
(-0.000183559 -0.000183815 -6.00649e-05)
(5.3403e-05 -0.000443263 -0.000287103)
(-0.000117629 -0.000580099 -0.000251865)
(-0.000208366 -0.000714105 -0.000193408)
(-0.000174407 -0.000249064 -2.7705e-05)
(-0.000250626 -0.000471988 -2.46551e-05)
(0.000122229 -0.000413018 -5.29595e-05)
(5.19701e-05 -0.000224595 -9.77702e-05)
(0.000239973 0.00018983 -3.86514e-05)
(0.000285281 0.00021825 -0.000205625)
(0.000277529 -0.00012662 -0.000129474)
(-0.000130771 0.000278861 5.52342e-05)
(-8.02036e-05 0.00014332 -3.22347e-05)
(6.55887e-06 0.000203653 5.02205e-06)
(5.73829e-05 0.000267301 -0.000192064)
(3.42718e-05 2.46479e-05 1.64881e-05)
(-8.84154e-06 2.59674e-06 -1.43885e-05)
(2.65419e-05 -3.14728e-06 2.73898e-05)
(1.94683e-05 -1.32171e-05 -5.49182e-05)
(-2.36761e-05 -1.1613e-05 -3.52282e-05)
(-2.40545e-05 2.40716e-05 1.82107e-05)
(-3.83032e-05 8.58888e-06 8.02154e-05)
(-5.37871e-05 4.04191e-05 2.96022e-05)
(-3.92621e-05 -1.01577e-05 -3.34216e-05)
(-6.1257e-05 -2.89597e-05 6.96084e-05)
(-7.02259e-05 9.14971e-06 8.32794e-05)
(-1.30282e-05 1.89875e-05 1.70656e-05)
(-1.0381e-05 2.29595e-05 1.77755e-05)
(1.51775e-05 9.1398e-08 -2.44801e-05)
(9.04773e-06 -2.54619e-05 3.26735e-05)
(7.12483e-06 -2.93713e-05 1.34718e-05)
(1.39196e-05 -5.7142e-05 4.29426e-05)
(-3.22936e-06 -1.73342e-06 9.38074e-06)
(-6.21616e-07 -3.79243e-05 1.98639e-05)
(1.59619e-05 -3.43416e-05 4.24502e-05)
(1.26873e-05 -3.06112e-05 6.39775e-05)
(1.64179e-05 -4.09063e-05 1.01272e-06)
(1.33078e-05 1.2719e-05 -3.05634e-05)
(4.0726e-05 4.76884e-06 3.67195e-05)
(3.98187e-06 2.04529e-06 4.05926e-06)
(7.15518e-06 1.87561e-05 2.76546e-07)
(2.51916e-05 1.01905e-05 4.04565e-05)
(1.22645e-05 1.17191e-05 5.52345e-05)
(-2.11875e-05 -1.58428e-05 9.19809e-06)
(1.881e-06 -3.64967e-06 -8.49477e-06)
(-1.38462e-05 1.27251e-07 1.08559e-05)
(-1.38642e-05 7.3464e-06 -2.86472e-05)
(1.08657e-05 8.63229e-06 -2.8886e-05)
(1.67732e-05 -1.17623e-05 1.6232e-05)
(2.19569e-05 -5.12938e-06 4.70145e-05)
(2.85897e-05 -2.2981e-05 1.81621e-05)
(2.04102e-05 7.23889e-06 -2.079e-05)
(3.32973e-05 1.96878e-05 3.44765e-05)
(3.97602e-05 -5.06859e-06 5.6369e-05)
(7.01791e-06 -7.58343e-06 5.10436e-06)
(6.10285e-06 -9.96667e-06 1.4224e-05)
(-9.17701e-06 -2.04861e-06 -1.85089e-05)
(-3.91983e-06 1.32296e-05 1.99083e-05)
(-1.62454e-07 1.68074e-05 9.05006e-06)
(-2.59398e-06 3.19993e-05 2.36593e-05)
(1.10307e-06 4.02551e-07 1.69213e-06)
(-2.00425e-06 2.18516e-05 8.33018e-06)
(-6.85737e-06 1.85984e-05 2.29882e-05)
(-6.57847e-06 1.5326e-05 3.20539e-05)
(-9.8514e-06 2.04558e-05 1.48643e-06)
(-8.85799e-06 -5.598e-06 -1.93578e-05)
(-2.18552e-05 -1.663e-06 2.1853e-05)
(-2.51515e-06 4.74089e-07 5.22526e-06)
(-3.46131e-06 -1.13179e-05 -6.81083e-06)
(-1.53285e-05 -1.02435e-05 2.56298e-05)
(-7.0038e-06 -7.51862e-06 2.61221e-05)
(-1.04904e-05 -9.06091e-06 5.06192e-06)
(1.24622e-06 -1.67686e-06 -2.8638e-06)
(-7.06749e-06 4.37779e-07 6.27536e-06)
(-7.66741e-06 4.29668e-06 -1.0793e-05)
(7.18824e-06 5.29725e-06 -3.40139e-06)
(1.05723e-05 -7.7289e-06 -2.38148e-06)
(1.13174e-05 -3.11534e-06 1.11244e-05)
(1.5931e-05 -1.30337e-05 6.29318e-06)
(1.00828e-05 2.61702e-06 -5.42634e-06)
(1.73973e-05 1.16396e-05 1.12619e-05)
(2.19525e-05 -1.75628e-06 9.84349e-06)
(3.26147e-06 -4.72084e-06 5.58862e-06)
(2.73612e-06 -5.60738e-06 2.3248e-06)
(-5.59345e-06 -1.74744e-06 -1.29872e-06)
(-2.59031e-06 6.58202e-06 6.03767e-06)
(3.32884e-07 9.52496e-06 2.05806e-06)
(-7.47123e-07 1.72222e-05 7.13495e-06)
(1.35608e-06 -6.75311e-07 3.99065e-06)
(-7.57871e-07 1.19622e-05 6.1244e-06)
(-3.87457e-06 1.01554e-05 6.64654e-06)
(-3.68339e-06 8.18672e-06 1.13266e-05)
(-5.65215e-06 1.24201e-05 6.74784e-07)
(-3.5931e-06 -3.55314e-06 -2.95309e-06)
(-1.26844e-05 -2.26756e-06 5.15672e-06)
(-1.38199e-06 1.61951e-06 -9.61851e-07)
(-1.21778e-06 -6.63979e-06 3.49898e-06)
(-9.61638e-06 -5.38955e-06 6.37965e-06)
(-3.20428e-06 -2.64884e-06 1.14367e-05)
(-7.2378e-06 -4.21863e-06 2.62296e-07)
(1.05497e-06 -1.46743e-06 -6.85728e-07)
(-5.19068e-06 -7.16987e-08 7.76941e-07)
(-3.76625e-06 1.20663e-06 -2.12571e-06)
(2.626e-06 2.65575e-06 -2.94592e-06)
(2.0571e-06 -1.8334e-06 2.49847e-06)
(8.28542e-06 -6.35503e-08 5.40737e-06)
(1.00553e-05 -6.44042e-06 2.46915e-06)
(7.45022e-06 2.02994e-06 -1.15808e-06)
(1.0153e-05 4.09524e-06 2.97637e-06)
(1.08448e-05 1.04543e-07 6.22174e-06)
(3.17767e-06 -2.25557e-07 7.60102e-07)
(3.00794e-06 -2.96416e-06 1.60159e-06)
(-1.11729e-06 1.67747e-06 -1.70386e-06)
(-5.11496e-07 5.80271e-06 2.46573e-06)
(2.94687e-07 5.12216e-06 3.03993e-07)
(-6.99875e-07 9.93216e-06 2.67888e-06)
(-3.11031e-07 1.73741e-06 4.19413e-07)
(5.47997e-07 7.13817e-06 1.19075e-06)
(-1.54588e-06 4.81069e-06 1.83146e-06)
(-2.01607e-06 4.40301e-06 3.46325e-06)
(-2.42374e-06 5.83853e-06 -2.17136e-07)
(-1.96911e-06 -1.08614e-06 -2.91365e-06)
(-5.2605e-06 6.54277e-07 2.28131e-06)
(1.52419e-07 -8.75622e-07 -2.10534e-07)
(-9.23773e-07 -3.52894e-06 -4.56942e-07)
(-2.38683e-06 -2.17213e-06 2.72572e-06)
(-8.62896e-07 -2.69471e-06 2.77557e-06)
(-0.00015844 0.000426277 -4.64681e-05)
(-3.93046e-05 0.000277071 -3.27824e-05)
(0.000224416 0.000201386 4.97078e-05)
(-0.000135083 -9.65888e-05 -1.26329e-05)
(-6.17157e-06 2.63216e-05 4.54175e-05)
(1.59814e-05 1.62165e-05 -1.89742e-05)
(3.20032e-05 1.18835e-05 -1.71465e-05)
(-8.43461e-06 -3.96562e-05 -2.26389e-05)
)
;

boundaryField
{
    top_fluid_surface
    {
        type            pressureInletOutletVelocity;
        value           nonuniform List<vector> 
64
(
(0 0 -0.00010235)
(0 0 -7.50744e-05)
(0 0 -3.01075e-05)
(0.000139767 0.000290186 1.46736e-05)
(0 0 -6.73477e-05)
(0 0 -5.28764e-05)
(0 0 -3.35871e-05)
(0 0 -5.4142e-05)
(-0.000485081 0.000465414 2.36606e-05)
(0 0 -0.000138674)
(-0.000399361 0.000303573 0.000268135)
(0 0 -0.000137004)
(0 0 -4.70072e-05)
(0 0 -0.000212125)
(-2.66549e-05 0.000181343 4.20349e-05)
(0 0 -0.000151382)
(0.000199389 0.000582309 0.000173734)
(0.000249002 0.000156008 0.000351091)
(1.12661e-05 0.000269496 0.000404794)
(8.83732e-05 -0.000347709 0.00046704)
(0 0 -3.85538e-05)
(-0.000345048 7.64397e-05 2.21025e-05)
(-0.00039151 0.000109987 0.000389419)
(0.000125727 8.4742e-05 0.000406356)
(0 0 -0.000108321)
(-0.000416449 0.000137452 0.000352652)
(0.000371762 -4.49478e-05 0.000357114)
(0.000175745 0.000181897 0.00035728)
(0.000125017 0.000290498 0.000387425)
(0.000178736 0.000635565 4.58136e-05)
(0 0 -0.000167365)
(4.8139e-05 6.55533e-05 0.00026129)
(0.000158243 0.000216885 2.97565e-05)
(0 0 -8.67359e-05)
(0 0 -0.000201088)
(1.92279e-05 5.0889e-05 3.40123e-05)
(0 0 -1.5952e-05)
(0 0 -4.94485e-05)
(0 0 -0.000493535)
(0 0 -6.74862e-05)
(-0.000603446 5.6558e-05 6.88912e-05)
(0 0 -0.000222594)
(0 0 -0.000174552)
(0 0 -0.000152567)
(0 0 -0.000211756)
(0 0 -6.00649e-05)
(0 0 -0.000287103)
(0 0 -0.000251865)
(0 0 -0.000193408)
(0 0 -2.7705e-05)
(0 0 -2.46551e-05)
(0 0 -5.29595e-05)
(0 0 -9.77702e-05)
(0 0 -3.86514e-05)
(0 0 -0.000205625)
(0 0 -0.000129474)
(-0.000130771 0.000278861 5.52342e-05)
(0 0 -3.22347e-05)
(6.55887e-06 0.000203653 5.02205e-06)
(0 0 -0.000192064)
(0 0 -4.64681e-05)
(0 0 -3.27824e-05)
(0.000224416 0.000201386 4.97078e-05)
(0 0 -1.26329e-05)
)
;
    }
    bottom_fluid_surface
    {
        type            noSlip;
    }
    lateral_surface_1
    {
        type            noSlip;
    }
    lateral_surface_2
    {
        type            noSlip;
    }
    lateral_surface_3
    {
        type            noSlip;
    }
    lateral_surface_4
    {
        type            noSlip;
    }
}


// ************************************************************************* //
