/*--------------------------------*- C++ -*----------------------------------*\
| =========                 |                                                 |
| \\      /  F ield         | OpenFOAM: The Open Source CFD Toolbox           |
|  \\    /   O peration     | Version:  v1612+                                |
|   \\  /    A nd           | Web:      www.OpenFOAM.com                      |
|    \\/     M anipulation  |                                                 |
\*---------------------------------------------------------------------------*/
FoamFile
{
    version     2.0;
    format      ascii;
    class       volScalarField;
    location    "4";
    object      alpha.water;
}
// * * * * * * * * * * * * * * * * * * * * * * * * * * * * * * * * * * * * * //

dimensions      [0 0 0 0 0 0 0];

internalField   nonuniform List<scalar> 
320
(
1
1
1
1
1.15112e-05
9.39106e-06
8.86474e-06
1.03042e-05
9.75068e-06
1.04498e-05
1.06281e-05
9.48585e-06
1.07307e-05
1.10016e-05
8.9211e-06
1.12267e-05
0.999989
0.999989
0.999987
0.999991
0.99999
0.999985
0.999984
0.999991
0.999987
0.999987
0.999995
0.999985
1
1
1
1
1
1
1
1
1
1
1
1
1
1
1
1
1
1
1
1
1
1
1
1
1
1
1
1
9.76606e-06
1.09585e-05
1.02406e-05
1.00196e-05
9.56122e-06
7.29891e-06
8.80273e-06
6.75223e-06
1.15719e-05
1.04401e-05
9.7949e-06
8.49937e-06
1.09983e-05
9.17395e-06
9.15121e-06
8.83487e-06
8.95325e-06
9.63441e-06
1.10928e-05
9.67163e-06
0.999993
0.999989
0.999989
0.999988
0.999994
0.999997
0.999993
0.999996
0.999988
0.999991
0.999994
0.999996
0.999988
0.999994
0.99999
0.999994
0.999995
0.99999
0.999988
0.999995
1
1
1
1
1
1
1
1
1
1
1
1
1
1
1
1
1
1
1
1
1
1
1
1
1
1
1
1
1
1
1
1
1
1
1
1
1
1
1
1
1
1
1
1
1
1
1
1
1
1
1
1
1
1
1
1
1
1
1
1
1
1
1
1
1
1
1
1
1
1
1
1
1
1
1
1
9.94559e-06
7.51305e-06
1.00006e-05
9.90324e-06
1.1351e-05
1.0286e-05
1.03451e-05
1.03013e-05
9.51031e-06
1.02558e-05
9.87833e-06
1.16659e-05
1.05809e-05
9.33956e-06
1.14844e-05
1.03081e-05
1.02593e-05
1.07619e-05
1.08466e-05
1.06143e-05
1.2647e-05
9.68895e-06
8.76018e-06
1.00195e-05
9.31215e-06
8.75085e-06
9.73412e-06
1.2297e-05
0.999989
0.999995
0.999987
0.999997
0.999993
0.999991
0.999984
0.999988
0.999993
0.999979
0.999984
0.999989
0.999994
0.999994
0.999988
0.999987
0.999988
0.999987
0.999987
0.99999
0.999986
0.999991
0.999992
0.999985
0.999991
0.99999
0.999989
0.999992
1
1
1
1
1
1
1
1
1
1
1
1
1
1
1
1
1
1
1
1
1
1
1
1
1
1
1
1
1
1
1
1
1
1
1
1
1
1
1
1
1
1
1
1
1
1
1
1
1
1
1
1
1
1
1
1
1
1
1
1
1
1
1
1
1
1
1
1
1
1
1
1
1
1
1
1
1
1
1
1
1
1
1
1
1.07316e-05
8.86416e-06
9.70717e-06
8.89611e-06
0.999987
0.999994
0.999989
0.999994
)
;

boundaryField
{
    top_fluid_surface
    {
        type            inletOutlet;
        inletValue      uniform 0;
        value           nonuniform List<scalar> 
64
(
0
0
8.86474e-06
0
9.75068e-06
0
0
9.48585e-06
0
0
8.9211e-06
0
9.76606e-06
0
0
1.00196e-05
9.56122e-06
7.29891e-06
8.80273e-06
6.75223e-06
0
0
9.7949e-06
8.49937e-06
0
9.17395e-06
9.15121e-06
8.83487e-06
8.95325e-06
9.63441e-06
0
9.67163e-06
0
7.51305e-06
0
9.90324e-06
0
0
0
0
9.51031e-06
0
0
0
1.05809e-05
9.33956e-06
0
0
0
0
0
0
0
0
8.76018e-06
0
9.31215e-06
8.75085e-06
0
0
0
8.86416e-06
0
8.89611e-06
)
;
    }
    bottom_fluid_surface
    {
        type            zeroGradient;
    }
    lateral_surface_1
    {
        type            zeroGradient;
    }
    lateral_surface_2
    {
        type            zeroGradient;
    }
    lateral_surface_3
    {
        type            zeroGradient;
    }
    lateral_surface_4
    {
        type            zeroGradient;
    }
}


// ************************************************************************* //
