/*--------------------------------*- C++ -*----------------------------------*\
| =========                 |                                                 |
| \\      /  F ield         | OpenFOAM: The Open Source CFD Toolbox           |
|  \\    /   O peration     | Version:  v1612+                                |
|   \\  /    A nd           | Web:      www.OpenFOAM.com                      |
|    \\/     M anipulation  |                                                 |
\*---------------------------------------------------------------------------*/
FoamFile
{
    version     2.0;
    format      ascii;
    class       surfaceScalarField;
    location    "4";
    object      alphaPhi;
}
// * * * * * * * * * * * * * * * * * * * * * * * * * * * * * * * * * * * * * //

dimensions      [0 3 -1 0 0 0 0];

internalField   nonuniform List<scalar> 
816
(
-2.07498e-06
-6.7448e-06
5.85144e-06
-1.34416e-07
-2.65128e-06
5.75435e-06
9.51146e-07
3.68217e-06
1.97317e-06
7.33559e-06
-1.60266e-05
-4.13833e-07
2.90468e-06
3.37055e-06
1.10602e-05
-2.36785e-05
1.66355e-06
3.77269e-06
4.48676e-06
-9.41578e-06
4.13428e-09
-1.21807e-09
1.16051e-06
3.30055e-11
9.9481e-10
3.21942e-09
6.28904e-06
2.0301e-10
-5.97476e-11
-2.39326e-10
2.43468e-06
-7.88946e-10
2.56947e-09
-2.40374e-10
1.05383e-07
1.1723e-09
-6.20965e-10
-1.16792e-09
-1.23407e-05
2.45145e-09
-2.30634e-09
-4.16017e-11
-4.28055e-06
1.01352e-10
-3.75804e-10
-4.0506e-10
-2.2352e-07
-7.32874e-10
2.81493e-09
8.90412e-12
5.3471e-11
-1.57624e-09
4.93551e-10
1.72184e-09
4.15472e-06
-2.10075e-10
1.45524e-09
3.18389e-09
2.71106e-06
-3.97416e-10
2.12378e-09
1.09883e-09
6.46521e-12
4.82887e-10
-5.72178e-10
-1.15392e-05
2.55227e-09
-2.33614e-11
-1.66862e-06
1.49096e-05
-1.70589e-05
2.83434e-06
3.80979e-06
1.41708e-05
-1.13465e-05
8.0225e-06
9.37038e-06
3.78736e-06
-2.03031e-06
5.69702e-06
1.46196e-05
3.2823e-06
6.12301e-06
-1.16063e-06
-2.76469e-06
-5.70828e-06
4.77578e-06
-2.52507e-06
-9.93224e-06
-3.93133e-06
-1.39605e-05
4.26014e-06
1.44044e-06
-5.62476e-06
-3.57847e-06
-2.5796e-06
7.45134e-06
-4.41095e-06
7.74966e-06
-7.10431e-06
4.24489e-06
6.13312e-06
-1.60664e-05
8.18554e-06
1.30801e-05
1.81918e-05
-9.97129e-06
1.23405e-06
6.18156e-06
1.33043e-05
5.06048e-06
6.58255e-06
-4.85281e-06
-9.44634e-07
1.271e-05
4.59041e-06
-1.306e-06
-2.42594e-06
-8.85236e-06
1.36542e-06
-3.52633e-06
-5.03571e-06
-4.35508e-07
-1.92314e-06
-8.03212e-08
-2.18158e-07
-3.33104e-06
9.54523e-07
1.96933e-06
3.23397e-06
2.0376e-06
2.33649e-06
3.00752e-06
-2.98002e-06
-6.12088e-06
4.18726e-07
-3.24181e-06
-1.86376e-06
-1.08021e-06
1.52854e-07
5.84927e-07
3.72533e-06
4.44967e-06
-9.33653e-07
-7.51898e-06
-1.82422e-06
-5.20413e-06
-4.20895e-06
-4.54825e-06
1.18656e-06
-1.7071e-06
2.29218e-06
1.14641e-07
-5.64987e-07
-3.13319e-06
-1.3932e-06
-9.74136e-07
-4.62192e-06
4.06759e-06
-6.85501e-07
-4.43585e-07
-1.78056e-07
2.77343e-06
1.20537e-06
2.53566e-06
-9.63811e-08
1.68216e-06
1.75655e-06
3.061e-06
9.81225e-07
1.51056e-06
1.71238e-06
-1.05919e-06
-1.88139e-06
8.2403e-07
-2.6853e-06
-2.53473e-06
1.81614e-08
-8.26029e-07
-1.22207e-06
3.92612e-07
-1.80827e-06
-1.46604e-09
5.41708e-07
1.32314e-06
7.47311e-08
1.29769e-06
1.90768e-06
6.50177e-07
-2.25111e-06
9.96291e-07
-1.69243e-06
-1.87593e-06
-1.32211e-06
-3.21019e-07
-1.79104e-07
1.8106e-07
2.88315e-06
1.01228e-06
-1.11959e-07
-1.75163e-06
-3.58435e-06
-1.89458e-06
-2.07658e-06
1.97572e-07
-1.02841e-06
-7.12708e-07
-3.72106e-07
5.92344e-07
-1.89961e-06
-1.34997e-06
7.84446e-08
-7.09947e-10
-6.08498e-10
-1.44164e-05
2.44043e-09
9.74038e-10
-1.54932e-06
3.34119e-10
1.15205e-09
2.58834e-06
7.65835e-10
1.16376e-09
6.85172e-08
-1.19574e-09
1.64083e-09
6.28178e-07
-1.78641e-09
-2.92046e-10
-4.85294e-10
1.41452e-11
-3.80605e-10
-1.1769e-09
-6.45399e-06
-5.93801e-10
-5.70778e-09
-3.67907e-06
-1.14283e-09
-2.07124e-09
6.97722e-07
-3.86431e-10
-7.64863e-10
-5.35826e-06
6.56423e-10
-1.61118e-09
-1.06385e-09
-7.77014e-07
-5.63283e-10
-3.41287e-09
-2.7362e-06
-2.02555e-09
-1.01305e-09
6.60457e-07
-1.03728e-09
-7.48887e-10
1.13551e-06
-1.73416e-09
1.70842e-09
7.587e-07
-2.41042e-09
-1.46814e-09
6.86656e-10
6.7708e-07
6.64118e-10
-4.53991e-10
5.27264e-07
-9.53404e-10
-1.29376e-09
-1.10727e-05
1.59824e-10
-3.56123e-10
-1.21745e-05
7.71284e-10
-4.268e-06
-7.06341e-10
-1.02833e-09
-1.05845e-05
-1.00079e-05
1.12532e-05
3.42188e-06
-3.91181e-06
-7.61077e-06
-3.4194e-07
4.83684e-06
-6.00536e-06
1.51959e-05
-5.23354e-07
-4.08317e-07
1.25187e-05
4.19165e-06
1.22887e-05
-4.80343e-06
-1.48704e-05
2.11795e-06
1.69472e-05
1.59463e-06
-1.09478e-06
7.03504e-06
-1.4835e-05
-1.44903e-05
2.85293e-05
-2.37339e-05
-1.05068e-05
6.20747e-06
-3.92749e-06
-2.24189e-06
-2.04443e-05
1.4708e-05
-5.72754e-06
-4.36459e-06
3.46979e-06
-2.92967e-06
-1.46475e-05
1.63016e-05
-1.26676e-05
-1.22224e-06
-1.64895e-05
-8.13952e-07
5.01822e-07
1.11329e-05
2.26798e-07
6.03451e-06
3.49512e-06
-4.32867e-06
-5.39107e-06
7.70174e-06
5.25079e-06
7.32324e-06
7.05161e-06
1.36093e-05
-1.03438e-05
-3.00838e-06
1.05986e-05
-6.60121e-06
-7.96984e-06
-7.63706e-07
-4.02414e-06
2.74133e-06
-1.0138e-05
-1.76087e-05
2.5623e-06
1.8342e-06
5.50107e-06
-1.78215e-06
5.50558e-08
-4.13327e-06
3.814e-07
-4.74269e-07
-2.26727e-06
-3.66022e-06
1.52182e-06
-4.77157e-07
-2.15442e-06
-3.91401e-06
5.2575e-06
6.28298e-06
6.1564e-06
-5.12669e-07
7.78659e-06
2.36162e-06
6.80497e-07
3.31467e-06
5.75128e-06
7.11371e-06
1.31714e-05
1.19371e-05
8.51607e-06
2.04276e-06
3.18201e-06
-4.29612e-06
-1.00596e-05
-3.12884e-06
5.56207e-06
-3.15432e-06
1.68833e-06
-2.61046e-06
2.43826e-06
7.59948e-06
3.26607e-06
-1.63983e-06
-7.97978e-06
2.23552e-08
-1.58558e-06
5.29496e-06
3.95932e-06
-2.85593e-06
2.53283e-06
2.58169e-06
-3.63114e-07
-1.08375e-06
2.81746e-06
-4.53923e-06
2.87493e-06
6.20915e-06
4.62913e-06
4.0605e-06
5.4525e-06
4.07646e-06
2.21848e-06
-1.09759e-06
7.69661e-07
8.71069e-07
1.66139e-06
4.23831e-06
1.95884e-06
1.09348e-06
1.67121e-06
-1.13842e-06
3.5911e-07
-1.4673e-06
-2.53888e-07
-2.89228e-07
3.17374e-07
-1.92519e-06
8.91293e-07
-3.95819e-07
-9.09523e-07
-2.79833e-06
1.2542e-06
3.95089e-06
3.65948e-06
-7.22927e-07
2.44027e-06
1.41637e-06
2.71019e-07
1.27746e-06
2.36842e-06
4.67222e-06
3.59293e-06
7.09518e-06
5.1433e-06
4.01701e-07
2.17392e-06
-3.3267e-06
-2.60105e-06
-1.91595e-06
2.92663e-06
-2.27246e-06
7.73308e-07
-1.82881e-06
1.27077e-06
2.4209e-06
1.32801e-06
-1.70847e-06
-1.64507e-06
-4.64615e-07
-1.50332e-06
1.62708e-06
1.69597e-06
-1.50837e-06
8.49979e-07
1.99688e-06
-3.0923e-07
-3.12977e-07
1.49196e-06
-3.45079e-06
2.16789e-06
1.99338e-06
1.93796e-06
3.5005e-06
1.48297e-06
2.2583e-06
1.72903e-06
-2.80115e-07
-4.04175e-07
6.24381e-08
1.01043e-06
2.61552e-06
-9.8914e-08
-2.14793e-06
2.0681e-06
-2.75313e-07
2.77969e-07
7.55645e-07
1.39784e-06
5.42568e-08
3.93595e-07
4.59233e-07
9.37171e-07
1.1168e-06
-4.82024e-07
-1.04672e-06
9.03301e-07
-4.9357e-07
-5.55026e-08
-6.79271e-07
4.27857e-07
-2.54606e-07
-2.15232e-07
1.00934e-06
2.91783e-07
1.08678e-06
-1.5787e-06
9.01284e-07
-9.0335e-07
-8.99371e-07
2.67439e-07
-3.06182e-07
8.10782e-07
-2.62921e-07
-2.67837e-07
-1.67582e-06
-8.81867e-07
5.35557e-08
-3.66654e-07
-2.07425e-07
-9.20359e-07
-4.30909e-07
8.61275e-07
5.00862e-07
-6.25846e-07
5.79123e-08
2.28835e-07
7.84827e-07
-4.76354e-07
9.15504e-07
-1.26097e-07
-1.33542e-06
1.51925e-06
1.94013e-06
-2.54537e-07
1.07143e-06
3.21813e-07
1.71506e-06
2.14186e-06
2.86677e-06
2.1357e-06
1.31358e-06
-1.86096e-06
-1.83621e-07
1.57835e-06
-1.38944e-06
-5.89834e-07
1.99921e-07
1.10719e-06
-6.95383e-07
5.99734e-08
-5.64199e-07
1.22039e-06
-7.29962e-07
1.01049e-06
2.7731e-09
1.52281e-07
-1.0586e-06
1.31647e-06
8.86987e-07
1.7428e-06
8.40401e-07
9.70694e-07
5.57857e-08
5.57383e-07
9.68213e-07
2.62566e-09
-3.74707e-09
1.98258e-06
1.80094e-11
-3.57317e-06
7.00481e-10
6.5423e-07
7.31952e-10
-7.80965e-06
1.22942e-09
-7.94825e-06
5.38527e-10
-1.37389e-05
6.70854e-10
1.81806e-06
8.55851e-10
1.08334e-06
-1.07438e-09
-4.65615e-06
-1.20238e-09
2.28104e-06
-2.33967e-09
2.02678e-06
6.88782e-10
1.5552e-07
7.94771e-10
-1.47026e-05
-2.13652e-09
-1.43106e-05
-1.25157e-09
-8.31035e-06
-1.07453e-09
4.40015e-06
-1.82029e-09
4.70568e-06
-1.07399e-09
1.21545e-06
-9.40702e-10
-7.79446e-06
-2.41321e-09
-9.52553e-07
4.3128e-09
-5.70284e-06
2.15653e-09
4.23213e-06
1.10848e-09
9.38405e-11
1.34853e-09
1.81911e-06
4.08708e-10
-7.42234e-06
-1.25146e-09
-3.76529e-06
-2.47218e-09
3.33019e-06
2.41573e-06
1.01592e-05
-1.09921e-05
-3.01887e-06
-2.16198e-06
1.13548e-05
9.333e-06
-8.6295e-06
4.35549e-06
1.38802e-05
-1.05757e-05
1.20379e-05
-1.77067e-05
-1.33249e-05
6.38951e-06
-1.75024e-05
8.30493e-06
-1.29306e-05
-7.06584e-06
9.06285e-06
-7.45442e-06
-7.73587e-06
1.18878e-05
-3.56507e-05
2.29903e-05
-1.1749e-05
3.54616e-06
1.44217e-05
-1.3732e-05
5.34502e-06
-9.08059e-06
-2.37819e-05
-6.85908e-06
9.53408e-06
-2.81985e-06
2.96963e-06
2.67269e-06
-1.59141e-08
1.32119e-06
-9.77427e-06
-2.44836e-06
-1.49357e-06
5.28429e-06
-1.84348e-05
3.18918e-06
1.24306e-05
-3.01537e-06
2.29978e-05
7.55157e-06
-1.34918e-05
3.82227e-06
-1.18133e-05
-7.23941e-06
1.49001e-06
-2.46203e-06
-1.00754e-05
-3.72587e-06
-1.86415e-06
1.98857e-06
-1.48133e-06
1.74206e-06
5.96468e-06
-2.8732e-06
-3.63906e-06
1.47547e-06
5.85578e-06
6.515e-06
4.81541e-06
5.71173e-06
-6.2855e-06
-3.80077e-06
-8.01389e-06
-3.78343e-06
-6.86215e-06
3.82619e-06
3.79759e-06
4.03248e-06
-2.20211e-06
-4.23932e-06
-1.54386e-05
-6.25644e-06
-6.55001e-06
-1.0404e-06
6.07422e-06
2.23155e-06
2.07196e-06
-4.67053e-06
-1.13285e-05
-2.5375e-06
4.78137e-06
1.92886e-06
1.77122e-06
1.50752e-06
4.23393e-07
-6.32801e-08
-4.24579e-06
2.07567e-06
-1.05982e-06
-8.04841e-06
-8.31129e-06
-1.58565e-06
5.60247e-06
5.82272e-06
1.10508e-05
1.96923e-06
-5.01252e-06
-5.81113e-07
-5.18564e-06
5.38503e-07
1.13464e-06
-4.91736e-07
-4.80783e-06
-2.23999e-06
-1.39242e-06
1.45255e-06
-5.35384e-07
1.27207e-06
2.14163e-06
-1.10223e-06
-1.52832e-06
1.00757e-06
1.78621e-06
3.88469e-06
9.582e-07
3.07406e-06
-1.57357e-06
-2.36024e-06
-2.62211e-06
-3.27843e-06
-2.3334e-06
1.32043e-06
6.18622e-07
2.8144e-06
-1.32366e-06
-1.47532e-06
-4.04533e-06
-3.57614e-06
-2.27817e-06
-7.7436e-07
1.35072e-06
1.01462e-06
2.83438e-07
-3.79182e-06
-3.58513e-06
-2.15864e-06
1.32438e-06
7.9571e-07
1.54563e-07
7.84645e-07
-4.56833e-08
-3.75884e-08
-1.7208e-06
1.13411e-06
-2.39568e-07
-4.87012e-06
-2.29821e-06
-1.05789e-06
1.48867e-06
3.67296e-06
2.87833e-06
2.00487e-06
-1.4091e-06
3.72578e-07
-1.30736e-06
1.11696e-06
-2.05565e-08
3.08475e-07
-1.38407e-06
-4.80563e-07
-4.99604e-07
5.10757e-07
1.00569e-06
-3.06555e-07
9.75086e-07
1.77667e-06
1.70954e-06
-9.27155e-07
-1.34472e-06
3.48713e-07
7.45351e-07
-4.27166e-07
-1.39277e-06
-2.27607e-07
5.07469e-08
-1.94521e-06
-1.20611e-06
5.432e-08
5.91619e-08
-4.40401e-07
3.30111e-07
-1.96412e-06
-4.6306e-07
1.35882e-06
8.32992e-07
3.64757e-07
3.95661e-07
-2.89267e-08
1.35196e-09
9.69019e-10
1.57706e-06
-1.43213e-09
3.16306e-11
3.43314e-09
5.9783e-06
-1.98175e-06
6.63947e-06
3.25848e-06
5.21126e-07
1.40166e-05
)
;

boundaryField
{
    top_fluid_surface
    {
        type            calculated;
        value           nonuniform List<scalar> 
64
(
0
0
1.40852e-09
0
1.08268e-09
0
0
3.84705e-10
0
0
1.44357e-09
0
1.24459e-09
0
0
1.21364e-10
1.40177e-09
3.94356e-09
2.62664e-09
4.61456e-09
0
0
6.95147e-10
2.49458e-09
0
9.56502e-10
9.54862e-10
1.45762e-09
1.53445e-09
1.13087e-09
0
7.78349e-10
0
3.84198e-09
0
7.16782e-10
0
0
0
0
1.43389e-09
0
0
0
6.91806e-10
2.57511e-09
0
0
0
0
0
0
0
0
1.34226e-09
0
1.09703e-09
2.15361e-09
0
0
0
1.74483e-09
0
1.88602e-09
)
;
    }
    bottom_fluid_surface
    {
        type            calculated;
        value           uniform 0;
    }
    lateral_surface_1
    {
        type            calculated;
        value           uniform 0;
    }
    lateral_surface_2
    {
        type            calculated;
        value           uniform 0;
    }
    lateral_surface_3
    {
        type            calculated;
        value           uniform 0;
    }
    lateral_surface_4
    {
        type            calculated;
        value           uniform 0;
    }
}


// ************************************************************************* //
