/*--------------------------------*- C++ -*----------------------------------*\
| =========                 |                                                 |
| \\      /  F ield         | OpenFOAM: The Open Source CFD Toolbox           |
|  \\    /   O peration     | Version:  v1612+                                |
|   \\  /    A nd           | Web:      www.OpenFOAM.com                      |
|    \\/     M anipulation  |                                                 |
\*---------------------------------------------------------------------------*/
FoamFile
{
    version     2.0;
    format      ascii;
    class       volScalarField;
    location    "4";
    object      p;
}
// * * * * * * * * * * * * * * * * * * * * * * * * * * * * * * * * * * * * * //

dimensions      [1 -1 -2 0 0 0 0];

internalField   nonuniform List<scalar> 
320
(
14724.8
14724.8
14724.8
14724.8
4.95367
4.95385
4.95426
4.9543
4.95413
4.9547
4.95409
4.95277
4.95181
4.95247
4.9529
4.95419
4914.87
4914.85
4914.8
4914.87
4914.82
4914.84
4914.84
4914.82
4914.86
4914.86
4914.83
4914.85
14724.8
14724.8
14724.8
14724.8
14724.8
14724.8
14724.8
14724.8
14724.8
14724.8
14724.8
14724.8
24534.8
24534.8
24534.8
24534.8
24534.8
24534.8
24534.8
24534.8
24534.8
24534.8
24534.8
24534.8
24534.8
24534.8
24534.8
24534.8
4.95428
4.9542
4.95434
4.95506
4.95534
4.95438
4.95496
4.95409
4.9552
4.95573
4.95438
4.95351
4.95218
4.95241
4.95294
4.95277
4.9531
4.95407
4.95425
4.95347
4914.83
4914.87
4914.86
4914.85
4914.84
4914.82
4914.82
4914.81
4914.87
4914.87
4914.84
4914.83
4914.86
4914.83
4914.82
4914.83
4914.84
4914.82
4914.86
4914.84
14724.8
14724.8
14724.8
14724.8
14724.8
14724.8
14724.8
14724.8
14724.8
14724.8
14724.8
14724.8
14724.8
14724.8
14724.8
14724.8
14724.8
14724.8
14724.8
14724.8
24534.8
24534.8
24534.8
24534.8
24534.8
24534.8
24534.8
24534.8
24534.8
24534.8
24534.8
24534.8
24534.8
24534.8
24534.8
24534.8
24534.8
24534.8
24534.8
24534.8
34344.8
34344.8
34344.8
34344.8
34344.8
34344.8
34344.8
34344.8
34344.8
34344.8
34344.8
34344.8
34344.8
34344.8
34344.8
34344.8
34344.8
34344.8
34344.8
34344.8
34344.8
34344.8
34344.8
34344.8
34344.8
34344.8
34344.8
34344.8
34344.8
34344.8
34344.8
34344.8
34344.8
34344.8
34344.8
34344.8
4.95407
4.95451
4.95391
4.95458
4.95581
4.95969
4.95479
4.95531
4.95537
4.95588
4.9553
4.95565
4.95603
4.95749
4.95564
4.95544
4.95454
4.95315
4.95361
4.95433
4.95391
4.95338
4.95308
4.95296
4.95361
4.95332
4.95365
4.95336
4914.86
4914.81
4914.85
4914.86
4914.89
4914.9
4914.83
4914.86
4914.83
4914.81
4914.83
4914.88
4914.84
4914.83
4914.87
4914.85
4914.86
4914.86
4914.86
4914.87
4914.88
4914.86
4914.82
4914.84
4914.82
4914.8
4914.86
4914.9
14724.8
14724.8
14724.8
14724.8
14724.8
14724.8
14724.8
14724.8
14724.8
14724.8
14724.8
14724.8
14724.8
14724.8
14724.8
14724.8
14724.8
14724.8
14724.8
14724.8
14724.8
14724.8
14724.8
14724.8
14724.8
14724.8
14724.8
14724.8
24534.8
24534.8
24534.8
24534.8
24534.8
24534.8
24534.8
24534.8
24534.8
24534.8
24534.8
24534.8
24534.8
24534.8
24534.8
24534.8
24534.8
24534.8
24534.8
24534.8
24534.8
24534.8
24534.8
24534.8
24534.8
24534.8
24534.8
24534.8
34344.8
34344.8
34344.8
34344.8
34344.8
34344.8
34344.8
34344.8
34344.8
34344.8
34344.8
34344.8
34344.8
34344.8
34344.8
34344.8
34344.8
34344.8
34344.8
34344.8
34344.8
34344.8
34344.8
34344.8
34344.8
34344.8
34344.8
34344.8
4.95317
4.95329
4.95277
4.95367
4914.86
4914.83
4914.86
4914.83
)
;

boundaryField
{
    top_fluid_surface
    {
        type            calculated;
        value           nonuniform List<scalar> 
64
(
-1.72847e-08
0
0
-1.91548e-10
0
-5.8905e-10
-1.9606e-09
0
-1.53108e-08
-1.37386e-08
0
-3.97041e-09
0
-4.4218e-09
-1.11174e-09
0
0
0
0
0
-8.09462e-09
-1.95326e-10
0
0
-1.29189e-08
0
0
0
0
0
-2.62702e-09
0
-1.18618e-10
0
-2.06595e-10
0
-1.73104e-09
0
-1.40191e-09
-6.65433e-10
0
-2.77586e-10
-4.10417e-10
-1.1026e-08
0
0
-6.83742e-09
-5.95775e-10
-1.60298e-09
-5.39019e-09
-3.43839e-09
-1.45374e-09
-3.54917e-08
-9.72301e-11
0
-1.66854e-09
0
0
-5.00621e-10
-3.49712e-08
-6.01858e-09
0
-1.12184e-10
0
)
;
    }
    bottom_fluid_surface
    {
        type            calculated;
        value           nonuniform List<scalar> 
64
(
39249.8
39249.8
39249.8
39249.8
39249.8
39249.8
39249.8
39249.8
39249.8
39249.8
39249.8
39249.8
39249.8
39249.8
39249.8
39249.8
39249.8
39249.8
39249.8
39249.8
39249.8
39249.8
39249.8
39249.8
39249.8
39249.8
39249.8
39249.8
39249.8
39249.8
39249.8
39249.8
39249.8
39249.8
39249.8
39249.8
39249.8
39249.8
39249.8
39249.8
39249.8
39249.8
39249.8
39249.8
39249.8
39249.8
39249.8
39249.8
39249.8
39249.8
39249.8
39249.8
39249.8
39249.8
39249.8
39249.8
39249.8
39249.8
39249.8
39249.8
39249.8
39249.8
39249.8
39249.8
)
;
    }
    lateral_surface_1
    {
        type            calculated;
        value           nonuniform List<scalar> 
40
(
4.95407
4.95451
4.95391
4.95458
4.95581
4.95969
4.95479
4.95336
4914.86
4914.81
4914.85
4914.86
4914.89
4914.9
4914.83
4914.9
14724.8
14724.8
14724.8
14724.8
14724.8
14724.8
14724.8
14724.8
24534.8
24534.8
24534.8
24534.8
24534.8
24534.8
24534.8
24534.8
34344.8
34344.8
34344.8
34344.8
34344.8
34344.8
34344.8
34344.8
)
;
    }
    lateral_surface_2
    {
        type            calculated;
        value           nonuniform List<scalar> 
40
(
4.95749
4.95564
4.95544
4.95454
4.95315
4.95361
4.95433
4.95391
4914.83
4914.87
4914.85
4914.86
4914.86
4914.86
4914.87
4914.88
14724.8
14724.8
14724.8
14724.8
14724.8
14724.8
14724.8
14724.8
24534.8
24534.8
24534.8
24534.8
24534.8
24534.8
24534.8
24534.8
34344.8
34344.8
34344.8
34344.8
34344.8
34344.8
34344.8
34344.8
)
;
    }
    lateral_surface_3
    {
        type            calculated;
        value           nonuniform List<scalar> 
40
(
4.95479
4.95531
4.95537
4.95588
4.9553
4.95565
4.95603
4.95749
4914.83
4914.86
4914.83
4914.81
4914.83
4914.88
4914.84
4914.83
14724.8
14724.8
14724.8
14724.8
14724.8
14724.8
14724.8
14724.8
24534.8
24534.8
24534.8
24534.8
24534.8
24534.8
24534.8
24534.8
34344.8
34344.8
34344.8
34344.8
34344.8
34344.8
34344.8
34344.8
)
;
    }
    lateral_surface_4
    {
        type            calculated;
        value           nonuniform List<scalar> 
40
(
4.95391
4.95338
4.95308
4.95296
4.95361
4.95332
4.95365
4.95336
4914.88
4914.86
4914.82
4914.84
4914.82
4914.8
4914.86
4914.9
14724.8
14724.8
14724.8
14724.8
14724.8
14724.8
14724.8
14724.8
24534.8
24534.8
24534.8
24534.8
24534.8
24534.8
24534.8
24534.8
34344.8
34344.8
34344.8
34344.8
34344.8
34344.8
34344.8
34344.8
)
;
    }
}


// ************************************************************************* //
