/*--------------------------------*- C++ -*----------------------------------*\
| =========                 |                                                 |
| \\      /  F ield         | OpenFOAM: The Open Source CFD Toolbox           |
|  \\    /   O peration     | Version:  v1612+                                |
|   \\  /    A nd           | Web:      www.OpenFOAM.com                      |
|    \\/     M anipulation  |                                                 |
\*---------------------------------------------------------------------------*/
FoamFile
{
    version     2.0;
    format      ascii;
    class       volScalarField;
    location    "4";
    object      p_rgh;
}
// * * * * * * * * * * * * * * * * * * * * * * * * * * * * * * * * * * * * * //

dimensions      [1 -1 -2 0 0 0 0];

internalField   nonuniform List<scalar> 
320
(
-9800.21
-9800.21
-9800.21
-9800.2
-0.00774051
0.00283703
0.00582586
-0.00119443
0.00134976
-0.00150231
-0.00299221
0.00128564
-0.00576844
-0.00643989
0.00418264
-0.0058181
-9799.96
-9799.98
-9800.01
-9800
-9800.03
-9799.94
-9799.93
-9800.05
-9799.95
-9799.94
-9800.09
-9799.93
-9800.2
-9800.21
-9800.21
-9800.2
-9800.21
-9800.21
-9800.21
-9800.21
-9800.21
-9800.21
-9800.2
-9800.21
-9800.21
-9800.21
-9800.2
-9800.21
-9800.2
-9800.2
-9800.22
-9800.21
-9800.21
-9800.21
-9800.21
-9800.21
-9800.21
-9800.21
-9800.2
-9800.21
0.00142577
-0.00450188
-0.000836443
0.000966912
0.00349319
0.0136103
0.00682545
0.0160079
-0.00650244
-0.000428613
0.00138297
0.00686557
-0.00671297
0.00245913
0.00309978
0.00447991
0.00422438
0.00185582
-0.00510475
0.00107496
-9800.06
-9799.97
-9799.97
-9799.97
-9800.08
-9800.13
-9800.07
-9800.14
-9799.95
-9800
-9800.07
-9800.11
-9799.96
-9800.08
-9800.04
-9800.08
-9800.1
-9800.03
-9799.96
-9800.09
-9800.2
-9800.2
-9800.2
-9800.2
-9800.19
-9800.2
-9800.21
-9800.21
-9800.2
-9800.19
-9800.2
-9800.2
-9800.2
-9800.2
-9800.21
-9800.21
-9800.2
-9800.21
-9800.21
-9800.2
-9800.2
-9800.2
-9800.2
-9800.21
-9800.2
-9800.21
-9800.21
-9800.21
-9800.21
-9800.2
-9800.2
-9800.2
-9800.2
-9800.2
-9800.21
-9800.21
-9800.2
-9800.21
-9800.21
-9800.2
-9800.21
-9800.21
-9800.21
-9800.21
-9800.21
-9800.21
-9800.21
-9800.21
-9800.21
-9800.21
-9800.21
-9800.21
-9800.21
-9800.21
-9800.2
-9800.21
-9800.2
-9800.2
-9800.2
-9800.21
-9800.2
-9800.21
-9800.21
-9800.21
-9800.21
-9800.2
-9800.21
-9800.21
-9800.21
-9800.21
-9800.21
-9800.21
-9800.21
-9800.21
-9800.21
-9800.2
0.000340226
0.0126927
-9.46939e-05
0.00104978
-0.00480614
0.00428786
-0.000905411
-0.00016572
0.00376711
0.0006222
0.00189701
-0.00651051
-0.000814496
0.00672686
-0.0056324
-6.93834e-05
-0.000730426
-0.00458832
-0.00454422
-0.00267827
-0.0130605
0.000906641
0.00515876
-0.00114087
0.00297886
0.0054416
0.000956026
-0.0118922
-9799.98
-9800.11
-9799.96
-9800.1
-9800.01
-9799.97
-9799.93
-9799.97
-9800.07
-9799.88
-9799.93
-9799.96
-9800.06
-9800.08
-9799.96
-9799.96
-9799.96
-9799.96
-9799.96
-9799.98
-9799.92
-9800
-9800.06
-9799.94
-9800.04
-9800.04
-9799.99
-9799.98
-9800.2
-9800.2
-9800.21
-9800.19
-9800.18
-9800.18
-9800.21
-9800.2
-9800.21
-9800.23
-9800.22
-9800.2
-9800.19
-9800.19
-9800.2
-9800.21
-9800.21
-9800.21
-9800.2
-9800.21
-9800.2
-9800.21
-9800.22
-9800.22
-9800.21
-9800.21
-9800.2
-9800.2
-9800.2
-9800.2
-9800.2
-9800.2
-9800.2
-9800.2
-9800.21
-9800.21
-9800.21
-9800.22
-9800.21
-9800.21
-9800.2
-9800.2
-9800.2
-9800.21
-9800.21
-9800.2
-9800.21
-9800.2
-9800.2
-9800.2
-9800.21
-9800.21
-9800.21
-9800.21
-9800.2
-9800.19
-9800.2
-9800.2
-9800.2
-9800.2
-9800.2
-9800.2
-9800.21
-9800.21
-9800.21
-9800.21
-9800.21
-9800.21
-9800.2
-9800.2
-9800.2
-9800.21
-9800.21
-9800.21
-9800.21
-9800.21
-9800.21
-9800.21
-9800.21
-9800.21
-9800.21
-9800.21
-9800.2
-9800.2
-0.00441131
0.00485135
0.000204671
0.00508257
-9799.95
-9800.08
-9799.98
-9800.08
)
;

boundaryField
{
    top_fluid_surface
    {
        type            totalPressure;
        rho             rho;
        psi             none;
        gamma           1;
        p0              uniform 0;
        value           nonuniform List<scalar> 
64
(
-1.72847e-08
0
0
-1.91548e-10
0
-5.8905e-10
-1.9606e-09
0
-1.53108e-08
-1.37386e-08
0
-3.97041e-09
0
-4.4218e-09
-1.11174e-09
0
0
0
0
0
-8.09462e-09
-1.95326e-10
0
0
-1.29189e-08
0
0
0
0
0
-2.62702e-09
0
-1.18618e-10
0
-2.06595e-10
0
-1.73104e-09
0
-1.40191e-09
-6.65433e-10
0
-2.77586e-10
-4.10417e-10
-1.1026e-08
0
0
-6.83742e-09
-5.95775e-10
-1.60298e-09
-5.39019e-09
-3.43839e-09
-1.45374e-09
-3.54917e-08
-9.72301e-11
0
-1.66854e-09
0
0
-5.00621e-10
-3.49712e-08
-6.01858e-09
0
-1.12184e-10
0
)
;
    }
    bottom_fluid_surface
    {
        type            fixedFluxPressure;
        gradient        uniform 0;
        value           nonuniform List<scalar> 
64
(
-9800.21
-9800.21
-9800.21
-9800.21
-9800.21
-9800.21
-9800.21
-9800.21
-9800.21
-9800.21
-9800.21
-9800.21
-9800.21
-9800.21
-9800.2
-9800.21
-9800.2
-9800.2
-9800.2
-9800.21
-9800.2
-9800.21
-9800.21
-9800.21
-9800.21
-9800.2
-9800.21
-9800.21
-9800.21
-9800.21
-9800.21
-9800.21
-9800.21
-9800.21
-9800.21
-9800.2
-9800.2
-9800.2
-9800.2
-9800.2
-9800.2
-9800.2
-9800.21
-9800.21
-9800.21
-9800.21
-9800.21
-9800.21
-9800.2
-9800.2
-9800.2
-9800.21
-9800.21
-9800.21
-9800.21
-9800.21
-9800.21
-9800.21
-9800.21
-9800.21
-9800.21
-9800.21
-9800.2
-9800.2
)
;
    }
    lateral_surface_1
    {
        type            fixedFluxPressure;
        gradient        uniform 0;
        value           nonuniform List<scalar> 
40
(
0.000340226
0.0126927
-9.46939e-05
0.00104978
-0.00480614
0.00428786
-0.000905411
-0.0118922
-9799.98
-9800.11
-9799.96
-9800.1
-9800.01
-9799.97
-9799.93
-9799.98
-9800.2
-9800.2
-9800.21
-9800.19
-9800.18
-9800.18
-9800.21
-9800.2
-9800.2
-9800.2
-9800.2
-9800.2
-9800.2
-9800.2
-9800.21
-9800.19
-9800.2
-9800.2
-9800.2
-9800.2
-9800.2
-9800.2
-9800.21
-9800.2
)
;
    }
    lateral_surface_2
    {
        type            fixedFluxPressure;
        gradient        uniform 0;
        value           nonuniform List<scalar> 
40
(
0.00672686
-0.0056324
-6.93834e-05
-0.000730426
-0.00458832
-0.00454422
-0.00267827
-0.0130605
-9800.08
-9799.96
-9799.96
-9799.96
-9799.96
-9799.96
-9799.98
-9799.92
-9800.19
-9800.2
-9800.21
-9800.21
-9800.21
-9800.2
-9800.21
-9800.2
-9800.2
-9800.2
-9800.21
-9800.21
-9800.2
-9800.21
-9800.2
-9800.2
-9800.2
-9800.2
-9800.21
-9800.21
-9800.21
-9800.21
-9800.21
-9800.21
)
;
    }
    lateral_surface_3
    {
        type            fixedFluxPressure;
        gradient        uniform 0;
        value           nonuniform List<scalar> 
40
(
-0.000905411
-0.00016572
0.00376711
0.0006222
0.00189701
-0.00651051
-0.000814496
0.00672686
-9799.93
-9799.97
-9800.07
-9799.88
-9799.93
-9799.96
-9800.06
-9800.08
-9800.21
-9800.2
-9800.21
-9800.23
-9800.22
-9800.2
-9800.19
-9800.19
-9800.21
-9800.21
-9800.21
-9800.22
-9800.21
-9800.21
-9800.2
-9800.2
-9800.21
-9800.21
-9800.21
-9800.21
-9800.21
-9800.21
-9800.2
-9800.2
)
;
    }
    lateral_surface_4
    {
        type            fixedFluxPressure;
        gradient        uniform 0;
        value           nonuniform List<scalar> 
40
(
-0.0130605
0.000906641
0.00515876
-0.00114087
0.00297886
0.0054416
0.000956026
-0.0118922
-9799.92
-9800
-9800.06
-9799.94
-9800.04
-9800.04
-9799.99
-9799.98
-9800.2
-9800.21
-9800.22
-9800.22
-9800.21
-9800.21
-9800.2
-9800.2
-9800.2
-9800.2
-9800.21
-9800.21
-9800.21
-9800.21
-9800.2
-9800.19
-9800.21
-9800.21
-9800.21
-9800.21
-9800.21
-9800.21
-9800.2
-9800.2
)
;
    }
}


// ************************************************************************* //
