/*--------------------------------*- C++ -*----------------------------------*\
| =========                 |                                                 |
| \\      /  F ield         | OpenFOAM: The Open Source CFD Toolbox           |
|  \\    /   O peration     | Version:  v1612+                                |
|   \\  /    A nd           | Web:      www.OpenFOAM.com                      |
|    \\/     M anipulation  |                                                 |
\*---------------------------------------------------------------------------*/
FoamFile
{
    version     2.0;
    format      ascii;
    class       surfaceScalarField;
    location    "4";
    object      phi;
}
// * * * * * * * * * * * * * * * * * * * * * * * * * * * * * * * * * * * * * //

dimensions      [0 3 -1 0 0 0 0];

internalField   nonuniform List<scalar> 
816
(
-2.0753e-06
-6.72577e-06
5.82411e-06
-1.505e-07
-2.65305e-06
5.7938e-06
9.52889e-07
3.68904e-06
1.96118e-06
7.35264e-06
-1.60106e-05
-4.44414e-07
2.90878e-06
3.37925e-06
1.10685e-05
-2.36858e-05
1.69226e-06
3.80791e-06
4.52115e-06
-9.4343e-06
0.000354055
-0.00011272
3.25504e-06
-1.83744e-06
9.12399e-05
0.000355076
1.84264e-05
1.61627e-05
-8.67233e-07
-1.82882e-05
-1.52349e-06
-8.93345e-05
0.000288282
-2.37012e-05
-2.68289e-07
0.000106637
-6.48423e-05
-0.000117364
-8.67443e-06
0.000247739
-0.000259439
5.48749e-06
-7.37051e-06
7.45795e-06
-3.48993e-05
-2.96548e-05
-4.83491e-06
-8.10662e-05
0.00026741
7.9602e-06
7.01043e-06
-0.000137152
5.31622e-05
0.000151724
2.01969e-05
-2.89342e-05
0.000127376
0.000281323
1.23744e-05
-4.62156e-05
0.000191715
0.000116048
-1.62854e-07
4.77835e-05
-5.13987e-05
-1.00667e-05
0.000226006
-1.42595e-07
-1.49099e-06
1.49484e-05
-1.69881e-05
2.86914e-06
3.91179e-06
1.45241e-05
-1.13838e-05
7.93752e-06
9.51021e-06
3.71458e-06
-2.33033e-06
5.537e-06
1.44551e-05
3.30174e-06
6.25442e-06
-1.04396e-06
-2.75978e-06
-5.67947e-06
4.69484e-06
-2.45735e-06
-1.00356e-05
-3.83554e-06
-1.40857e-05
4.11442e-06
1.33738e-06
-5.45204e-06
-3.73257e-06
-2.62874e-06
7.48576e-06
-4.47616e-06
7.60983e-06
-7.30654e-06
4.02864e-06
6.11262e-06
-1.61394e-05
8.30012e-06
1.31569e-05
1.82911e-05
-1.0026e-05
1.34124e-06
6.1847e-06
1.32287e-05
5.13949e-06
6.70559e-06
-4.93865e-06
-1.03235e-06
1.28608e-05
4.68925e-06
-1.2635e-06
-2.40901e-06
-8.82218e-06
1.33494e-06
-3.53265e-06
-5.01491e-06
-4.9129e-07
-1.92584e-06
-1.98753e-07
-3.06554e-07
-3.35127e-06
9.62944e-07
2.06639e-06
3.2819e-06
2.03644e-06
2.27888e-06
3.029e-06
-2.95721e-06
-6.17956e-06
3.75878e-07
-3.29152e-06
-1.86823e-06
-1.14422e-06
1.64255e-07
5.79503e-07
3.72278e-06
4.40796e-06
-9.50404e-07
-7.52035e-06
-1.87389e-06
-5.22372e-06
-4.23772e-06
-4.55391e-06
1.19801e-06
-1.73342e-06
2.32676e-06
1.32582e-07
-5.9856e-07
-3.17552e-06
-1.39385e-06
-9.49172e-07
-4.62519e-06
4.07659e-06
-6.70276e-07
-4.29591e-07
-1.60842e-07
2.77172e-06
1.23159e-06
2.54695e-06
-7.56135e-08
1.70575e-06
1.76832e-06
3.08048e-06
1.0287e-06
1.52909e-06
1.72835e-06
-1.03961e-06
-1.85913e-06
8.07527e-07
-2.66285e-06
-2.48028e-06
-2.65646e-08
-8.25212e-07
-1.28445e-06
2.87926e-07
-1.8507e-06
-2.9347e-08
5.54169e-07
1.36772e-06
9.18605e-08
1.27072e-06
1.90704e-06
6.35249e-07
-2.26237e-06
9.66797e-07
-1.74218e-06
-1.89005e-06
-1.3344e-06
-3.49338e-07
-1.92546e-07
1.62962e-07
2.85765e-06
1.01159e-06
-1.13386e-07
-1.76751e-06
-3.57235e-06
-1.88893e-06
-2.0735e-06
2.12608e-07
-1.01841e-06
-7.14142e-07
-3.46409e-07
6.0711e-07
-1.91385e-06
-1.35081e-06
6.61676e-08
-6.52681e-05
-5.58794e-05
-9.30934e-06
0.000242435
8.44821e-05
-2.51477e-06
3.07501e-05
0.000110374
3.04647e-06
7.42002e-05
0.000115897
-0.000178675
-0.00010845
0.000178074
1.39478e-07
-0.000211328
-2.79825e-05
-5.21706e-05
-1.91195e-06
-4.76878e-05
-0.000174901
-7.59855e-06
-6.69208e-05
-0.000496441
-2.91219e-06
-0.000127431
-0.000206736
1.88874e-06
-3.8207e-05
-6.10727e-05
-7.10423e-06
6.01135e-05
-0.000136018
-0.000119003
7.849e-07
-6.4977e-05
-0.000293158
-2.95489e-06
-0.000206632
-0.000114259
1.21038e-05
-0.000104039
-8.62316e-05
7.12415e-06
-0.000165993
0.000194371
-2.10258e-06
-0.000235796
-0.000155419
7.48119e-05
-5.00364e-07
7.16251e-05
-5.87973e-05
8.31212e-07
-9.70303e-05
-0.000113762
-1.07163e-05
1.71235e-05
-3.32587e-05
-2.85216e-06
7.24219e-05
3.15201e-06
-7.69195e-05
-0.000109551
-1.07024e-05
-9.97394e-06
1.1288e-05
3.62651e-06
-3.92326e-06
-7.51801e-06
-2.39773e-07
4.90427e-06
-6.0183e-06
1.51626e-05
-4.96969e-07
-4.62671e-07
1.20878e-05
4.3354e-06
1.23298e-05
-5.42416e-06
-1.49605e-05
2.16426e-06
1.69796e-05
1.46142e-06
-1.17595e-06
7.04179e-06
-1.46776e-05
-1.47886e-05
2.85601e-05
-2.3832e-05
-1.06713e-05
6.2551e-06
-4.05758e-06
-2.14525e-06
-2.02591e-05
1.47984e-05
-5.69523e-06
-4.35819e-06
3.51233e-06
-3.01172e-06
-1.46997e-05
1.6398e-05
-1.27666e-05
-1.13313e-06
-1.64871e-05
-8.70363e-07
5.45005e-07
1.11544e-05
2.07817e-07
6.01708e-06
3.35352e-06
-4.60128e-06
-5.60345e-06
7.69731e-06
5.30499e-06
7.44618e-06
7.0125e-06
1.37222e-05
-1.02719e-05
-3.15371e-06
1.05069e-05
-6.5373e-06
-7.83649e-06
-7.04075e-07
-3.66707e-06
2.86197e-06
-1.02016e-05
-1.76866e-05
2.57781e-06
1.85769e-06
5.49687e-06
-1.79869e-06
6.61424e-08
-4.09651e-06
4.16744e-07
-4.88352e-07
-2.25653e-06
-3.76022e-06
1.50631e-06
-4.55272e-07
-2.32451e-06
-3.84298e-06
5.33496e-06
6.13203e-06
6.18499e-06
-4.76085e-07
7.84018e-06
2.35914e-06
6.79801e-07
3.31135e-06
5.87788e-06
7.08923e-06
1.31946e-05
1.2023e-05
8.44325e-06
2.08452e-06
3.16878e-06
-4.2267e-06
-9.99069e-06
-3.12353e-06
5.5618e-06
-3.15351e-06
1.72818e-06
-2.58645e-06
2.47409e-06
7.65151e-06
3.30004e-06
-1.63152e-06
-7.97326e-06
1.74687e-08
-1.55957e-06
5.33502e-06
3.904e-06
-2.86657e-06
2.48556e-06
2.54037e-06
-3.69163e-07
-1.0984e-06
2.82985e-06
-4.47395e-06
2.861e-06
6.25987e-06
4.70867e-06
4.04455e-06
5.39809e-06
4.11601e-06
2.19367e-06
-1.10302e-06
7.9014e-07
9.10833e-07
1.66005e-06
4.28109e-06
1.95822e-06
1.07318e-06
1.68672e-06
-1.14898e-06
3.60835e-07
-1.44557e-06
-2.50311e-07
-2.8172e-07
3.35236e-07
-1.97413e-06
8.9532e-07
-3.82769e-07
-9.89619e-07
-2.74716e-06
1.28997e-06
3.91056e-06
3.67553e-06
-6.98796e-07
2.4608e-06
1.40839e-06
2.63683e-07
1.27579e-06
2.42765e-06
4.64833e-06
3.59428e-06
7.12435e-06
5.11119e-06
4.16274e-07
2.16625e-06
-3.30668e-06
-2.56056e-06
-1.89946e-06
2.92678e-06
-2.27766e-06
7.8974e-07
-1.82542e-06
1.27102e-06
2.44251e-06
1.3305e-06
-1.71428e-06
-1.63089e-06
-4.68348e-07
-1.49154e-06
1.65172e-06
1.69138e-06
-1.50468e-06
8.45859e-07
1.96314e-06
-3.19122e-07
-3.08222e-07
1.49581e-06
-3.42341e-06
2.19375e-06
2.00847e-06
1.97767e-06
3.45856e-06
1.46434e-06
2.28241e-06
1.69999e-06
-2.78325e-07
-3.48266e-07
8.20904e-08
9.91091e-07
2.61862e-06
-8.21902e-08
-2.14082e-06
2.06333e-06
-2.76362e-07
2.87135e-07
7.44357e-07
1.41583e-06
5.81691e-08
4.00844e-07
4.64674e-07
9.50965e-07
1.12648e-06
-4.65599e-07
-1.03835e-06
8.84121e-07
-4.71013e-07
-8.41484e-08
-6.90922e-07
3.69975e-07
-2.55848e-07
-2.21998e-07
1.02432e-06
2.75714e-07
1.08727e-06
-1.57345e-06
8.89902e-07
-9.30652e-07
-8.96509e-07
2.57134e-07
-3.14035e-07
7.89564e-07
-2.73665e-07
-2.8028e-07
-1.67543e-06
-8.96911e-07
5.74482e-08
-3.7995e-07
-2.02498e-07
-9.39835e-07
-4.33745e-07
8.66781e-07
4.90013e-07
-6.2676e-07
6.21922e-08
2.30905e-07
7.91013e-07
-5.06083e-07
9.26792e-07
-1.79029e-07
-1.29032e-06
1.46153e-06
1.96153e-06
-2.44173e-07
1.06412e-06
3.15938e-07
1.73208e-06
2.12824e-06
2.87533e-06
2.11019e-06
1.30443e-06
-1.84463e-06
-1.77263e-07
1.56772e-06
-1.38392e-06
-5.96614e-07
2.02003e-07
1.10298e-06
-6.90779e-07
4.34392e-08
-5.57937e-07
1.21135e-06
-7.20266e-07
9.93087e-07
-7.63226e-11
1.47625e-07
-1.05184e-06
1.31521e-06
9.03759e-07
1.71869e-06
8.47146e-07
9.51855e-07
6.51303e-08
5.54296e-07
9.72006e-07
0.00026017
-0.000296486
-7.53265e-07
5.36604e-06
-6.63638e-06
6.55531e-05
-1.71419e-06
6.4369e-05
-3.82748e-06
6.983e-05
-5.11205e-06
8.19815e-05
-0.000154079
5.95789e-05
6.64068e-06
7.98725e-05
3.06305e-06
-0.000103785
-1.13563e-05
-0.000123639
2.05184e-06
-0.000198627
-6.79991e-07
5.57686e-05
-3.33998e-06
5.79533e-05
-4.66424e-06
-0.000164635
-1.33579e-05
-0.000120734
-1.35656e-06
-9.90738e-05
8.1849e-06
-0.000152199
2.75458e-06
-0.000101937
1.03568e-05
-9.6791e-05
-5.9633e-06
-0.000183862
-6.51003e-06
0.000338721
-7.72938e-06
0.000227963
4.17203e-06
0.000126375
1.55095e-06
0.000131607
-3.33126e-07
4.664e-05
-9.26863e-06
-0.000133933
2.10176e-06
-0.000195778
8.2727e-06
6.17586e-06
1.04251e-05
-1.13752e-05
-3.00212e-06
-2.25509e-06
1.13283e-05
9.12139e-06
-8.73765e-06
4.14344e-06
1.41054e-05
-1.08437e-05
1.23838e-05
-1.69791e-05
-1.2902e-05
6.28434e-06
-1.77863e-05
8.45677e-06
-1.29296e-05
-6.95391e-06
9.15313e-06
-7.59247e-06
-8.08656e-06
1.17043e-05
-3.58725e-05
2.30561e-05
-1.16128e-05
3.70824e-06
1.45377e-05
-1.39436e-05
5.37597e-06
-9.04509e-06
-2.36797e-05
-6.85465e-06
9.50132e-06
-2.79928e-06
2.97896e-06
2.58767e-06
-4.08099e-08
1.26313e-06
-9.75887e-06
-2.55901e-06
-1.39503e-06
5.49489e-06
-1.8319e-05
3.42281e-06
1.25365e-05
-2.91441e-06
2.29387e-05
7.61729e-06
-1.36719e-05
3.83528e-06
-1.18818e-05
-7.61959e-06
1.36261e-06
-2.89154e-06
-1.00738e-05
-3.52454e-06
-1.87115e-06
1.99095e-06
-1.46987e-06
1.73269e-06
5.96327e-06
-2.95706e-06
-3.6616e-06
1.38315e-06
5.93631e-06
6.5214e-06
4.95816e-06
5.94398e-06
-6.1622e-06
-3.82924e-06
-8.06092e-06
-3.73893e-06
-6.82445e-06
3.93438e-06
3.81104e-06
3.99811e-06
-2.38082e-06
-4.36108e-06
-1.55393e-05
-6.37054e-06
-6.49131e-06
-1.05483e-06
6.128e-06
2.26419e-06
2.10658e-06
-4.55957e-06
-1.12992e-05
-2.52432e-06
4.76909e-06
1.92851e-06
1.7742e-06
1.42358e-06
3.98522e-07
-2.8056e-08
-4.2412e-06
2.01447e-06
-1.01965e-06
-7.96554e-06
-8.28489e-06
-1.52108e-06
5.6542e-06
5.85381e-06
1.10092e-05
1.90396e-06
-5.09542e-06
-6.19101e-07
-5.23305e-06
5.09507e-07
1.0348e-06
-5.27227e-07
-4.80778e-06
-2.09853e-06
-1.35909e-06
1.38988e-06
-5.22107e-07
1.26314e-06
2.14685e-06
-1.13627e-06
-1.51937e-06
9.90418e-07
1.83538e-06
3.92188e-06
1.0147e-06
3.14919e-06
-1.54888e-06
-2.35784e-06
-2.63898e-06
-3.23853e-06
-2.30476e-06
1.3851e-06
6.33803e-07
2.78833e-06
-1.37839e-06
-1.54206e-06
-4.08324e-06
-3.61797e-06
-2.25756e-06
-7.83495e-07
1.38482e-06
1.01471e-06
3.10555e-07
-3.75758e-06
-3.55903e-06
-2.16197e-06
1.32069e-06
7.90728e-07
1.4836e-07
7.65444e-07
-4.59265e-08
-4.26957e-08
-1.70305e-06
1.12531e-06
-2.11797e-07
-4.84902e-06
-2.27175e-06
-1.02365e-06
1.50033e-06
3.68842e-06
2.85517e-06
1.99412e-06
-1.44336e-06
3.57592e-07
-1.32987e-06
1.03329e-06
-4.23993e-08
2.23768e-07
-1.36963e-06
-4.47788e-07
-4.85931e-07
4.96898e-07
1.0042e-06
-3.26936e-07
9.5854e-07
1.78112e-06
1.75675e-06
-8.91754e-07
-1.3251e-06
3.6647e-07
7.31642e-07
-4.59096e-07
-1.41852e-06
-2.41944e-07
5.52253e-08
-1.91806e-06
-1.20513e-06
5.60015e-08
6.12683e-08
-4.31688e-07
3.23716e-07
-1.95405e-06
-4.44895e-07
1.35404e-06
8.14473e-07
3.4533e-07
3.65826e-07
-5.42252e-08
0.000119996
9.84222e-05
7.79334e-06
-0.00016561
3.29443e-06
0.000360535
6.87701e-06
-3.9014e-06
6.6276e-06
3.27443e-06
5.32718e-07
1.42419e-05
)
;

boundaryField
{
    top_fluid_surface
    {
        type            calculated;
        value           nonuniform List<scalar> 
64
(
-0.000341986
1.87518e-06
0.000183938
-4.54217e-05
0.000102907
-6.82624e-05
-0.000130776
4.37064e-05
-0.000285545
-0.000292036
0.000165544
-0.000198871
0.000119889
-0.000183526
-8.06115e-05
2.4834e-05
0.000147554
0.000549933
0.000298979
0.000683229
-0.000257893
-3.18906e-05
6.59372e-05
0.000295413
-0.000275529
0.000101664
0.00011235
0.000171226
0.000174342
0.000118174
-0.000151546
6.72064e-05
-2.33441e-05
0.000520204
-3.17097e-05
7.36156e-05
-0.000143275
8.84433e-05
-7.33816e-05
-5.00847e-05
0.00016237
-3.07963e-05
-1.86153e-05
-0.00028664
4.68703e-05
0.000290025
-0.000210422
-5.94367e-05
-0.000108211
-0.000185465
-0.000165957
-0.000117962
-0.000524861
-2.21721e-05
0.000180762
-9.72907e-05
0.000122052
0.000236155
-2.78592e-05
-0.000508946
-0.000194982
0.000200651
-3.15905e-05
0.000215778
)
;
    }
    bottom_fluid_surface
    {
        type            calculated;
        value           uniform 0;
    }
    lateral_surface_1
    {
        type            calculated;
        value           uniform 0;
    }
    lateral_surface_2
    {
        type            calculated;
        value           uniform 0;
    }
    lateral_surface_3
    {
        type            calculated;
        value           uniform 0;
    }
    lateral_surface_4
    {
        type            calculated;
        value           uniform 0;
    }
}


// ************************************************************************* //
