/*--------------------------------*- C++ -*----------------------------------*\
| =========                 |                                                 |
| \\      /  F ield         | OpenFOAM: The Open Source CFD Toolbox           |
|  \\    /   O peration     | Version:  v1612+                                |
|   \\  /    A nd           | Web:      www.OpenFOAM.com                      |
|    \\/     M anipulation  |                                                 |
\*---------------------------------------------------------------------------*/
FoamFile
{
    version     2.0;
    format      ascii;
    class       volVectorField;
    location    "4";
    object      U;
}
// * * * * * * * * * * * * * * * * * * * * * * * * * * * * * * * * * * * * * //

dimensions      [0 1 -1 0 0 0 0];

internalField   nonuniform List<vector> 
320
(
(-3.77002e-06 -9.93799e-06 3.99327e-06)
(2.05758e-07 -4.00641e-06 -1.16859e-05)
(-5.01109e-06 -2.40733e-06 -1.99748e-05)
(4.3114e-06 6.27974e-06 -6.60369e-06)
(0.000271837 2.02089e-05 -0.000185929)
(0.000378698 -3.99808e-06 -2.07885e-05)
(0.000370226 -4.86003e-05 9.22362e-05)
(7.3204e-05 2.87394e-05 -1.95728e-05)
(0.000336547 -8.79814e-05 6.44037e-05)
(2.68082e-05 -0.000139574 -3.43235e-05)
(-4.12633e-05 -0.000144643 -6.26195e-05)
(0.000107315 -0.000157531 1.84234e-05)
(-0.000115582 9.61395e-06 -0.00017499)
(-8.23388e-06 -0.00034691 -0.000165762)
(-0.000178521 -0.000156441 8.54359e-05)
(-4.83498e-05 -0.000127601 -8.91113e-05)
(-1.02433e-05 -1.69423e-06 2.31784e-05)
(6.65789e-06 3.49804e-06 1.53728e-05)
(1.91293e-05 -5.56547e-07 2.79884e-06)
(3.53875e-06 1.09989e-05 -5.88331e-06)
(1.00413e-05 -6.91902e-06 -8.40111e-06)
(7.96962e-06 -1.98904e-06 1.52178e-05)
(-1.61845e-06 -1.12884e-06 4.20466e-06)
(1.33316e-05 -8.5049e-06 -7.09865e-06)
(-6.56079e-06 6.56238e-06 2.39713e-05)
(-5.77036e-06 -1.92007e-05 1.46604e-05)
(-1.45725e-05 -1.4147e-05 -5.02599e-06)
(-1.63237e-05 -1.48645e-05 -5.0513e-07)
(1.10515e-06 -2.7798e-06 1.38254e-05)
(-3.60922e-06 -3.38627e-06 8.96007e-06)
(-4.44005e-06 -1.0538e-06 4.27462e-07)
(3.53326e-06 -2.017e-06 -4.86083e-06)
(-1.48539e-06 3.55543e-06 -2.73902e-06)
(-5.05007e-08 5.09059e-08 1.06139e-05)
(6.16868e-06 1.56209e-07 2.24746e-06)
(-2.90713e-06 7.56252e-06 -7.17972e-06)
(1.97139e-06 -3.52326e-06 1.08202e-05)
(-1.12707e-06 5.41663e-06 7.19617e-06)
(3.88801e-06 2.10841e-06 -4.29238e-06)
(4.31994e-06 2.068e-06 2.19313e-06)
(-1.88515e-06 -6.64898e-06 7.48406e-07)
(3.57103e-07 -3.07652e-06 -3.78424e-06)
(-2.65924e-06 -1.70864e-06 -3.79775e-06)
(2.44313e-06 2.85729e-06 -2.74455e-06)
(1.13614e-06 -2.21685e-06 3.18082e-06)
(-2.98318e-06 -2.5059e-06 2.84642e-07)
(-2.79006e-06 -1.07269e-06 2.75255e-07)
(1.8136e-06 -1.22267e-06 1.13001e-07)
(-7.70402e-07 2.06261e-06 -8.87589e-07)
(7.67394e-07 3.73318e-07 2.83408e-06)
(4.12834e-06 -3.25631e-07 4.34749e-07)
(-1.85566e-06 4.6595e-06 -9.47238e-07)
(1.61769e-06 -2.5655e-06 2.92583e-06)
(-3.50191e-07 2.82777e-06 1.13899e-06)
(2.86177e-06 7.18867e-07 -9.28582e-07)
(2.96034e-06 1.10241e-06 -6.90817e-07)
(-0.000134416 -0.000310103 7.94767e-05)
(-1.76833e-05 -2.2173e-05 -9.40404e-05)
(0.000158597 -3.2896e-05 -4.71537e-05)
(9.89909e-05 0.000198927 0.000190808)
(0.000149063 0.000355165 8.12504e-05)
(0.000219382 -2.95353e-05 0.000288442)
(0.000122219 -3.36097e-05 0.000163148)
(0.000101934 -0.000394849 0.000364439)
(-7.41467e-06 -0.000478993 -0.000127237)
(0.000118819 2.11911e-05 -1.97649e-05)
(1.73715e-06 6.42388e-05 3.42359e-05)
(0.000261503 -4.2613e-05 0.000160498)
(0.000274151 -0.000115601 -0.000160741)
(-2.68438e-05 -6.72382e-05 4.91202e-05)
(0.000182717 -0.000274656 6.00415e-05)
(-0.000177452 -0.000138174 8.88118e-05)
(7.31656e-05 -2.02712e-05 9.3454e-05)
(4.45504e-05 0.000124274 7.78334e-05)
(4.60868e-05 6.56017e-05 -7.24847e-05)
(0.000269546 2.90756e-05 3.19135e-05)
(-6.22624e-06 -9.09591e-06 -1.76868e-05)
(-1.20528e-05 -3.36229e-06 9.48003e-06)
(2.94616e-06 -1.87832e-05 7.56278e-06)
(6.41005e-06 -1.33234e-05 4.21993e-07)
(-7.82345e-06 7.21622e-06 -1.52238e-05)
(1.13251e-05 6.25845e-07 -2.30096e-05)
(-6.86222e-06 4.4199e-06 -1.20015e-05)
(-1.56286e-05 -7.74765e-06 -3.96242e-05)
(1.80017e-06 -1.73802e-05 -7.33059e-06)
(1.18813e-05 -6.61345e-06 2.17512e-05)
(-6.2102e-06 3.82055e-06 -4.11542e-06)
(1.58464e-05 -5.36999e-06 -1.96545e-05)
(9.72059e-06 -3.58915e-06 2.16602e-05)
(-6.5262e-06 8.11498e-06 -1.08412e-05)
(5.96024e-06 -5.93698e-06 -3.4078e-06)
(-1.65284e-05 -7.74979e-06 -5.39441e-06)
(3.82633e-06 -9.22754e-06 -1.42839e-05)
(2.29076e-06 -2.22665e-06 -1.59138e-05)
(5.05992e-06 6.65123e-06 -9.30158e-07)
(2.39006e-05 1.05216e-05 -2.98444e-06)
(3.0477e-06 3.35418e-06 -6.95947e-06)
(1.68394e-06 2.78517e-07 6.5161e-06)
(-1.51996e-06 4.40526e-06 5.45343e-06)
(2.97402e-07 1.54362e-06 5.20206e-07)
(3.35592e-06 -7.20919e-06 -8.50156e-06)
(-1.1281e-06 -1.4986e-07 -1.20325e-05)
(3.49434e-06 -1.05115e-06 -3.80626e-06)
(8.46428e-06 2.69673e-06 -2.10555e-05)
(1.03076e-06 1.07603e-05 -3.70159e-06)
(-4.33252e-07 7.33466e-06 1.80988e-05)
(9.11865e-06 -5.65652e-06 -2.44656e-06)
(-3.20056e-06 4.40249e-07 -1.27491e-05)
(-1.33032e-06 1.97614e-06 1.34411e-05)
(4.1544e-06 3.78075e-07 -9.78184e-06)
(-4.51384e-07 3.63985e-06 -4.25434e-06)
(8.00639e-06 2.28104e-06 -4.60461e-06)
(-1.88329e-06 -4.9047e-07 -1.11302e-05)
(-4.01376e-06 -4.49049e-06 -7.64794e-06)
(-1.77946e-06 -3.6203e-06 2.3398e-06)
(-6.75111e-06 -1.44036e-06 -1.96858e-06)
(1.92609e-06 2.17249e-06 -2.85102e-06)
(1.72317e-06 7.76334e-07 1.86538e-06)
(-7.87084e-07 2.54243e-06 -1.28191e-06)
(2.94084e-09 3.48521e-07 5.35967e-07)
(2.15602e-06 -4.42944e-06 -2.2301e-06)
(-2.0315e-07 -6.95253e-07 -3.9624e-06)
(1.14848e-06 -1.05683e-06 -1.9745e-06)
(5.26727e-06 1.81108e-06 -5.03195e-06)
(1.1166e-06 6.73555e-06 -6.51931e-07)
(4.83531e-08 4.23976e-06 2.81139e-06)
(6.29075e-06 -3.43521e-06 -1.17584e-06)
(-1.84308e-06 -8.30569e-08 -3.23492e-06)
(-4.19324e-07 1.05748e-06 2.05039e-06)
(3.44646e-06 -4.80024e-07 -1.895e-06)
(-2.83405e-08 2.46218e-06 -7.09525e-07)
(5.57751e-06 8.62847e-07 -1.65034e-06)
(-2.58852e-07 -4.64543e-07 -2.50516e-06)
(-1.89183e-06 -3.33848e-06 -1.81925e-06)
(-2.22484e-07 -3.15257e-06 1.29863e-07)
(-4.20096e-06 -8.03671e-07 -1.66475e-07)
(-1.02827e-06 -3.06027e-06 2.29048e-07)
(9.66105e-07 -9.87669e-07 -1.04504e-06)
(-1.05846e-06 -7.61265e-07 -1.7556e-06)
(1.18237e-06 1.65999e-06 -6.16875e-07)
(2.36609e-07 -1.4871e-06 1.88137e-06)
(-9.6909e-07 -6.19174e-07 1.46125e-06)
(-2.68942e-07 -5.1145e-07 -2.7511e-07)
(1.50949e-06 -9.08809e-07 -3.31553e-07)
(4.74796e-07 5.14817e-07 -6.20539e-07)
(9.18529e-07 -8.06327e-08 1.01862e-06)
(2.24219e-06 2.8161e-07 -6.24652e-08)
(-6.16643e-07 1.37041e-06 -7.61657e-07)
(1.30737e-06 -6.86235e-07 1.24246e-06)
(2.58643e-07 1.24837e-06 9.6474e-07)
(1.39435e-06 3.07405e-07 -1.50577e-07)
(1.65045e-06 6.24131e-07 4.9014e-07)
(1.2462e-06 9.98911e-07 -9.05384e-07)
(2.15038e-07 -1.16529e-07 7.94102e-07)
(-9.55151e-09 7.92381e-07 6.83866e-07)
(1.27881e-06 -2.08971e-07 1.44853e-07)
(8.87862e-07 -1.93216e-06 -5.64467e-07)
(-4.08927e-08 -3.88489e-07 -1.09558e-06)
(7.65247e-07 -2.43929e-07 -8.78503e-07)
(2.02093e-06 1.06902e-06 -2.05195e-06)
(8.3329e-07 2.75681e-06 -3.03553e-07)
(6.16197e-07 1.90495e-06 1.81894e-06)
(2.95e-06 -1.51955e-06 -3.95616e-07)
(-2.68674e-07 4.2547e-07 -1.43967e-06)
(-9.06145e-08 4.36482e-07 1.32487e-06)
(1.35721e-06 2.7247e-07 -1.04923e-06)
(-1.03245e-07 1.33626e-06 -7.23038e-07)
(2.11581e-06 2.71844e-07 -1.10202e-06)
(-4.30216e-07 -6.74283e-07 -1.23872e-06)
(-8.35546e-07 -1.66847e-06 -1.32664e-06)
(-6.70184e-07 -1.63526e-06 2.87749e-07)
(-2.06671e-06 -5.46386e-07 1.64655e-08)
(0.000551431 0.000117367 -1.54025e-05)
(2.90818e-06 -0.000121735 0.000275751)
(-3.55853e-06 -1.9793e-05 -2.03271e-05)
(0.000158414 -0.000135467 4.95442e-05)
(-1.69897e-05 -1.91312e-05 -5.88395e-05)
(0.000212392 -1.95995e-05 0.000187515)
(-0.000141226 -8.24497e-05 -5.29511e-05)
(-0.000204941 0.000204619 -3.6481e-05)
(-0.00029132 -7.49449e-05 9.8782e-05)
(-0.00024963 -8.71643e-05 -2.35621e-05)
(-0.000345558 -0.000215936 -2.86502e-05)
(-7.47778e-05 -0.000121878 -0.000148499)
(1.1781e-05 0.000238033 3.99484e-05)
(0.000141407 -0.000131428 0.000162972)
(0.000166199 -0.000260572 -0.00011694)
(9.12972e-05 -0.000178379 -3.45188e-05)
(0.000139058 -0.000349786 -5.66212e-05)
(0.000131647 -5.70163e-05 -0.000103829)
(4.30037e-05 -0.000207631 -8.29263e-05)
(0.000160273 -0.000126442 -5.39211e-05)
(0.000175673 -0.000184706 -0.000266427)
(0.000117008 -0.000404122 -1.39449e-05)
(4.58444e-05 -0.000100164 0.000101422)
(0.000154404 -0.000125454 -5.77674e-05)
(-6.02186e-05 -0.000183178 6.45687e-05)
(-0.000152591 9.58518e-05 0.000117365)
(-2.9249e-05 0.000196728 -3.16424e-05)
(1.50987e-05 0.000161747 -0.000264466)
(2.05054e-05 7.96399e-06 5.04916e-06)
(-2.43933e-06 1.92192e-06 -1.78227e-05)
(-5.56519e-07 4.1773e-06 1.24164e-05)
(1.66185e-05 -9.57466e-06 -1.79384e-05)
(-6.87092e-06 -9.49544e-06 -1.5586e-05)
(-1.68696e-05 3.70609e-06 1.22594e-05)
(-1.56291e-05 -4.48645e-07 1.94109e-05)
(-1.97833e-05 1.48705e-05 1.67276e-05)
(-7.97526e-06 4.03934e-07 -1.24925e-05)
(-2.00062e-05 -1.5955e-05 9.98339e-06)
(-2.83476e-05 1.7414e-06 4.10814e-05)
(-1.0516e-05 2.55198e-05 1.68102e-05)
(1.45515e-05 1.54033e-05 -2.16281e-05)
(1.15009e-05 -7.33647e-06 -9.11078e-06)
(1.33813e-05 -4.28559e-06 2.61003e-05)
(6.72484e-06 -8.83692e-06 -9.42838e-06)
(5.79086e-06 -1.72214e-05 -5.63383e-07)
(-1.5318e-07 1.21844e-06 1.43626e-06)
(-4.21322e-06 -7.3468e-06 1.1805e-05)
(1.15558e-06 -1.09498e-06 2.73868e-06)
(4.26886e-06 -2.54257e-06 2.32621e-05)
(2.82176e-06 -9.57022e-06 -1.1225e-05)
(6.37144e-07 4.42808e-06 -2.51294e-05)
(1.5e-05 -3.8245e-07 1.89745e-05)
(9.48261e-06 -1.29134e-05 1.15753e-05)
(4.31222e-06 6.74795e-06 -2.51619e-06)
(9.57839e-06 6.34964e-06 1.42779e-05)
(1.40382e-07 -1.47459e-06 7.18238e-06)
(-5.74262e-06 -1.33077e-06 1.75288e-06)
(2.60122e-06 7.34787e-07 -7.37714e-06)
(5.31706e-08 -8.84618e-07 5.00157e-06)
(-4.87476e-06 2.36574e-06 -8.58859e-06)
(7.17458e-06 2.47013e-06 -8.23684e-06)
(6.60496e-06 -4.51156e-06 1.21483e-05)
(4.07663e-06 -7.79036e-07 1.35747e-05)
(7.80917e-06 -6.18876e-06 1.01758e-05)
(5.09747e-06 -9.15193e-07 -6.46224e-06)
(7.04367e-06 7.57535e-06 3.28745e-06)
(1.37235e-05 1.09198e-06 2.73109e-05)
(5.43989e-06 -8.8471e-06 9.26615e-06)
(-5.88361e-06 -4.59675e-06 -9.03307e-06)
(-6.49059e-06 2.26208e-06 -3.03812e-06)
(2.09144e-06 2.86907e-06 1.94674e-05)
(6.84392e-06 -2.62592e-07 -8.62142e-06)
(-1.46384e-06 5.14372e-06 -4.47239e-06)
(-2.84511e-06 -1.99876e-06 -1.29188e-06)
(3.07686e-07 6.65841e-06 6.29943e-06)
(-1.53927e-07 1.84806e-06 9.91421e-07)
(-3.58066e-06 6.36107e-06 1.37918e-05)
(9.32191e-07 8.53873e-06 -1.11812e-05)
(1.31759e-06 -4.95469e-06 -2.00241e-05)
(-6.30364e-06 -6.60309e-06 7.74097e-06)
(-4.7946e-06 2.21199e-06 9.81323e-06)
(3.99306e-07 -6.70382e-07 -1.41406e-06)
(-1.84444e-06 -6.10047e-07 7.33606e-06)
(1.22956e-06 1.74322e-06 2.37969e-06)
(-3.71591e-06 -8.58711e-07 7.41419e-07)
(1.38033e-06 2.35637e-07 -3.52963e-06)
(7.66183e-07 -3.12948e-07 2.35905e-06)
(-2.55539e-06 1.19262e-06 -3.54478e-06)
(4.18182e-06 1.45536e-06 -1.4785e-06)
(4.08633e-06 -2.98622e-06 1.27044e-06)
(2.07971e-06 -4.75e-07 3.58333e-06)
(4.59093e-06 -3.94095e-06 3.04373e-06)
(2.56819e-06 -2.08023e-06 -9.04387e-07)
(3.20597e-06 4.24763e-06 2.56835e-06)
(7.87258e-06 2.03067e-06 5.38695e-06)
(3.42557e-06 -4.84547e-06 2.93728e-06)
(-3.70844e-06 -2.75806e-06 -2.18877e-06)
(-3.57219e-06 1.2563e-06 -4.72844e-07)
(1.79374e-06 1.12011e-06 4.55838e-06)
(5.09023e-06 -4.89099e-07 -1.44114e-06)
(-3.64338e-07 2.32061e-06 3.93342e-07)
(-1.45869e-06 -1.96782e-06 3.95347e-07)
(2.12983e-07 3.35998e-06 2.92039e-06)
(-1.7968e-07 1.26564e-06 5.07659e-07)
(-1.7627e-06 3.5113e-06 3.35205e-06)
(4.82964e-07 5.27717e-06 -1.50291e-06)
(1.05227e-06 -2.79605e-06 -3.03418e-06)
(-3.17589e-06 -4.64152e-06 2.4499e-06)
(-3.12468e-06 7.5522e-07 1.76077e-06)
(9.17785e-07 -1.20678e-06 1.28464e-07)
(-1.17893e-06 -1.32098e-06 1.57604e-06)
(4.00475e-07 7.20691e-07 3.65321e-07)
(-1.97908e-06 -4.02524e-07 4.42501e-07)
(1.22059e-06 3.30857e-07 -9.29768e-07)
(4.43142e-07 -3.76916e-07 7.77164e-07)
(-8.76646e-07 1.02753e-07 -3.86725e-07)
(2.45559e-06 4.90183e-07 -8.3399e-07)
(1.47914e-06 -1.07404e-06 1.36403e-06)
(1.67214e-06 -1.01104e-07 1.7156e-06)
(2.64507e-06 -1.72901e-06 1.40554e-06)
(1.87529e-06 -6.34064e-07 -4.96592e-07)
(2.3995e-06 1.153e-06 -1.26432e-07)
(3.27222e-06 5.82851e-07 2.51969e-06)
(1.91332e-06 -1.48535e-06 1.21548e-06)
(-9.69953e-07 -1.2255e-06 -9.43125e-07)
(-1.21712e-06 6.83556e-07 -2.93071e-07)
(1.12734e-06 9.30731e-07 1.95232e-06)
(2.39801e-06 1.7241e-07 -9.63247e-07)
(2.86155e-07 1.48271e-06 -5.98204e-07)
(-4.6364e-07 -3.82414e-07 -2.5752e-07)
(4.07588e-07 1.85574e-06 4.51159e-07)
(2.83069e-07 5.67204e-07 -4.64763e-08)
(-8.20762e-07 1.46943e-06 9.17339e-07)
(8.14598e-08 2.10521e-06 -1.10988e-06)
(-5.18113e-08 -1.01321e-06 -2.21535e-06)
(-1.20359e-06 -1.70299e-06 6.7497e-07)
(-1.08052e-06 6.74341e-08 6.40825e-07)
(5.32314e-07 -6.07037e-07 -1.27752e-07)
(-5.23046e-08 -3.09997e-07 1.13704e-06)
(7.687e-07 4.18476e-07 8.89884e-07)
(0.000105791 0.000163418 -0.000109714)
(8.97361e-05 -7.65413e-07 0.000106683)
(0.000427742 4.28355e-05 -1.49789e-05)
(0.000243502 -0.000348169 0.000118239)
(6.30928e-06 8.32764e-06 8.80217e-06)
(4.08439e-06 1.35095e-05 -1.926e-05)
(1.74147e-05 -1.21599e-06 -2.46632e-05)
(9.33e-06 -1.2177e-05 -1.28536e-05)
)
;

boundaryField
{
    top_fluid_surface
    {
        type            pressureInletOutletVelocity;
        value           nonuniform List<vector> 
64
(
(0 0 -0.000185929)
(0.000378698 -3.99808e-06 -2.07885e-05)
(0.000370226 -4.86003e-05 9.22362e-05)
(0 0 -1.95728e-05)
(0.000336547 -8.79814e-05 6.44037e-05)
(0 0 -3.43235e-05)
(0 0 -6.26195e-05)
(0.000107315 -0.000157531 1.84234e-05)
(0 0 -0.00017499)
(0 0 -0.000165762)
(-0.000178521 -0.000156441 8.54359e-05)
(0 0 -8.91113e-05)
(-0.000134416 -0.000310103 7.94767e-05)
(0 0 -9.40404e-05)
(0 0 -4.71537e-05)
(9.89909e-05 0.000198927 0.000190808)
(0.000149063 0.000355165 8.12504e-05)
(0.000219382 -2.95353e-05 0.000288442)
(0.000122219 -3.36097e-05 0.000163148)
(0.000101934 -0.000394849 0.000364439)
(0 0 -0.000127237)
(0 0 -1.97649e-05)
(1.73715e-06 6.42388e-05 3.42359e-05)
(0.000261503 -4.2613e-05 0.000160498)
(0 0 -0.000160741)
(-2.68438e-05 -6.72382e-05 4.91202e-05)
(0.000182717 -0.000274656 6.00415e-05)
(-0.000177452 -0.000138174 8.88118e-05)
(7.31656e-05 -2.02712e-05 9.3454e-05)
(4.45504e-05 0.000124274 7.78334e-05)
(0 0 -7.24847e-05)
(0.000269546 2.90756e-05 3.19135e-05)
(0 0 -1.54025e-05)
(2.90818e-06 -0.000121735 0.000275751)
(0 0 -2.03271e-05)
(0.000158414 -0.000135467 4.95442e-05)
(0 0 -5.88395e-05)
(0.000212392 -1.95995e-05 0.000187515)
(0 0 -5.29511e-05)
(0 0 -3.6481e-05)
(-0.00029132 -7.49449e-05 9.8782e-05)
(0 0 -2.35621e-05)
(0 0 -2.86502e-05)
(0 0 -0.000148499)
(1.1781e-05 0.000238033 3.99484e-05)
(0.000141407 -0.000131428 0.000162972)
(0 0 -0.00011694)
(0 0 -3.45188e-05)
(0 0 -5.66212e-05)
(0 0 -0.000103829)
(0 0 -8.29263e-05)
(0 0 -5.39211e-05)
(0 0 -0.000266427)
(0 0 -1.39449e-05)
(4.58444e-05 -0.000100164 0.000101422)
(0 0 -5.77674e-05)
(-6.02186e-05 -0.000183178 6.45687e-05)
(-0.000152591 9.58518e-05 0.000117365)
(0 0 -3.16424e-05)
(0 0 -0.000264466)
(0 0 -0.000109714)
(8.97361e-05 -7.65413e-07 0.000106683)
(0 0 -1.49789e-05)
(0.000243502 -0.000348169 0.000118239)
)
;
    }
    bottom_fluid_surface
    {
        type            noSlip;
    }
    lateral_surface_1
    {
        type            noSlip;
    }
    lateral_surface_2
    {
        type            noSlip;
    }
    lateral_surface_3
    {
        type            noSlip;
    }
    lateral_surface_4
    {
        type            noSlip;
    }
}


// ************************************************************************* //
