/*--------------------------------*- C++ -*----------------------------------*\
| =========                 |                                                 |
| \\      /  F ield         | OpenFOAM: The Open Source CFD Toolbox           |
|  \\    /   O peration     | Version:  v1612+                                |
|   \\  /    A nd           | Web:      www.OpenFOAM.com                      |
|    \\/     M anipulation  |                                                 |
\*---------------------------------------------------------------------------*/
FoamFile
{
    version     2.0;
    format      ascii;
    class       volScalarField;
    location    "4.45";
    object      p;
}
// * * * * * * * * * * * * * * * * * * * * * * * * * * * * * * * * * * * * * //

dimensions      [1 -1 -2 0 0 0 0];

internalField   nonuniform List<scalar> 
1116
(
2159.54
2159.56
2159.57
2159.56
2159.57
2159.56
2200.84
2200.86
2200.87
2200.86
2200.86
2200.87
2345.08
2345.09
2345.1
2345.09
2345.1
2345.11
2594.25
2594.25
2594.26
2594.26
2594.26
2594.27
3143.38
3143.39
3143.39
3143.39
3143.4
3143.41
4606.57
4606.6
4606.6
4606.62
4606.64
4606.65
8236.34
8236.23
8236.29
8236.32
8236.3
8236.41
13150.3
13150.4
13150.4
13150.5
13150.5
13150.4
17062.8
17063
17062.9
17062.9
17062.9
17062.8
20127
20127.2
20127.2
20127.2
20127.2
20127
23848.4
23848.3
23848.3
23848.3
23848.3
23848.4
25840.4
25840.4
25840.5
25840.5
25840.5
25840.6
-13.8249
-13.8249
-13.825
-13.8247
-13.8243
-13.8243
-8.40475
-8.40504
-8.40518
-8.40477
-8.40415
-8.40385
3.85464
3.85457
3.8547
3.85524
3.85617
3.85688
46.6959
46.6959
46.6962
46.6969
46.698
46.6993
95.7767
95.7765
95.7765
95.7778
95.7797
95.7826
179.758
179.77
179.765
179.766
179.776
179.783
910.769
910.469
910.613
910.633
910.54
910.758
4153.78
4154.22
4154.2
4154.29
4154.37
4153.94
7521.24
7521.3
7521.41
7521.41
7521.37
7521.26
9519.79
9519.07
9519.63
9519.56
9519.29
9519.68
13095.9
13095
13095.4
13095.4
13095.3
13095.6
15155.9
15155.7
15155.8
15155.8
15155.7
15155.9
-9.75638
-9.75637
-9.75619
-9.75575
-9.75519
-9.75471
-10.158
-10.1578
-10.1576
-10.1572
-10.1565
-10.1561
-7.89781
-7.89741
-7.89701
-7.89655
-7.89593
-7.89563
-18.439
-18.4389
-18.4383
-18.4377
-18.4376
-18.4375
-46.7843
-46.7894
-46.7881
-46.788
-46.7886
-46.7859
-16.7693
-16.7791
-16.775
-16.7746
-16.7766
-16.7727
47.0955
47.0749
47.0856
47.0906
47.0895
47.1034
324.898
324.89
324.899
324.922
324.94
324.979
3095.9
3095.4
3095.67
3095.69
3095.55
3095.82
5203.43
5202.19
5202.56
5202.67
5202.46
5203.17
6673.4
6671.46
6672.25
6672.41
6672.15
6672.75
5352.14
5352.36
5352.37
5352.09
5352.42
5352.33
-29.4277
-29.4273
-29.427
-29.4265
-29.4259
-29.4257
-30.3916
-30.3912
-30.391
-30.3907
-30.3901
-30.39
-27.7427
-27.7422
-27.742
-27.7418
-27.7416
-27.7417
-37.7259
-37.7263
-37.7262
-37.7261
-37.7265
-37.7265
-61.9065
-61.9108
-61.9106
-61.9111
-61.9124
-61.9109
-46.7286
-46.7348
-46.7303
-46.7285
-46.7312
-46.7282
-10.5791
-10.5696
-10.571
-10.5667
-10.5609
-10.563
5.65186
5.69178
5.68277
5.69521
5.68612
5.73075
759.474
760.689
760.211
760.14
760.377
759.911
1256.78
1258.67
1257.87
1257.81
1258.3
1257.46
1177.66
1178.69
1178.28
1178.25
1178.58
1178.17
-110.131
-109.758
-109.848
-110.375
-110.265
-109.714
28.3366
28.3369
28.3375
28.3381
28.3385
28.3381
30.1117
30.1123
30.1137
30.1147
30.1159
30.1135
33.8795
33.8806
33.887
33.8897
33.8999
33.8835
42.4343
42.4244
42.4485
42.4781
42.5415
42.4048
53.6506
53.6347
53.6261
53.7113
53.8152
53.3931
45.6031
45.6939
45.5891
45.4483
45.5072
45.2958
48.358
48.2621
48.1334
47.4983
47.8494
47.6885
229.171
227.553
226.305
227.411
229.28
224.645
1415.84
1409.57
1412.03
1423.5
1423.37
1410.26
525.624
522.664
521.575
509.172
492.461
529.336
40.8717
40.5037
40.5421
41.2621
41.0446
40.2441
12.9183
13.2639
13.4589
13.6769
14.1368
14.2529
15.982
15.9823
15.9828
15.9831
15.9833
15.9828
17.3892
17.3897
17.3909
17.3914
17.3922
17.3898
19.9735
19.9748
19.9789
19.9793
19.9853
19.9711
24.3522
24.3561
24.3666
24.3902
24.4259
24.3196
27.3606
27.3913
27.3588
27.4561
27.4736
27.145
-6.35737
-6.13132
-6.35413
-6.19639
-6.47183
-6.79211
-100.616
-100.168
-100.387
-99.8492
-99.9072
-100.379
-122.874
-122.935
-122.711
-123.205
-123.037
-121.108
37.0361
35.4119
35.253
36.5976
37.3702
36.7356
-112.371
-111.783
-113.547
-121.367
-127.273
-109.449
-222.98
-222.174
-221.238
-221.442
-220.957
-218.377
-58.0163
-57.4529
-55.7014
-56.6367
-55.7174
-49.0445
0.870261
0.87035
0.870462
0.870442
0.870394
0.86997
1.29686
1.29704
1.2974
1.29745
1.2977
1.29626
1.57278
1.57342
1.57472
1.57463
1.57647
1.56998
0.33978
0.342716
0.344024
0.349655
0.35799
0.323431
-6.40967
-6.38665
-6.40645
-6.384
-6.40352
-6.47118
-34.9333
-34.8637
-34.9038
-35.012
-35.221
-34.898
-97.2449
-97.224
-97.1609
-97.1357
-97.1931
-96.8103
-121.847
-122.223
-121.947
-120.907
-120.435
-121.265
-79.9974
-80.2398
-80.1904
-79.9128
-79.6909
-80.1597
-42.6116
-42.8473
-42.6484
-43.744
-44.9343
-42.6536
-247.665
-247.441
-256.932
-247.332
-247.804
-278.339
-54.3969
-54.824
-56.1355
-55.5368
-57.0691
-63.0117
-15.2007
-15.2007
-15.2009
-15.2011
-15.2013
-15.2015
-15.5066
-15.5066
-15.5066
-15.5068
-15.5069
-15.5072
-16.6812
-16.6809
-16.6806
-16.6805
-16.6804
-16.6816
-20.0327
-20.0315
-20.0309
-20.0302
-20.0304
-20.0346
-28.0556
-28.051
-28.0563
-28.058
-28.0672
-28.0747
-46.7843
-46.764
-46.7751
-46.8116
-46.8798
-46.7627
-74.3951
-74.3729
-74.3531
-74.4148
-74.4846
-74.2668
-89.1288
-88.9046
-88.8451
-89.4382
-89.5817
-88.6851
-73.1573
-73.1657
-73.1992
-73.1602
-73.154
-73.3026
-59.1589
-59.1347
-59.0677
-59.4081
-59.4671
-58.6467
-127.136
-127.325
-124.046
-130.129
-132.414
-117.407
-1094.56
-1093.35
-1132.06
-1087.95
-1098.62
-1283.91
-38.8711
-38.8709
-38.8707
-38.8704
-38.8702
-38.87
-51.8578
-51.8577
-51.8577
-51.8577
-51.8578
-51.858
-63.9926
-63.9927
-63.9929
-63.993
-63.9931
-63.9931
-39.5221
-39.5221
-39.5221
-39.5219
-39.5217
-39.5217
-51.6942
-51.6944
-51.6944
-51.6943
-51.6943
-51.6943
-63.7575
-63.7575
-63.7575
-63.7576
-63.7577
-63.7575
-38.628
-38.6279
-38.628
-38.6279
-38.6277
-38.6278
-50.8828
-50.8828
-50.883
-50.8829
-50.8829
-50.8827
-63.1852
-63.1851
-63.1851
-63.1852
-63.1853
-63.1853
-47.2205
-47.2205
-47.2207
-47.2208
-47.221
-47.2211
-52.8674
-52.8669
-52.8672
-52.8673
-52.8674
-52.8674
-62.4957
-62.4955
-62.4956
-62.4956
-62.4957
-62.4958
-66.3857
-66.3856
-66.3858
-66.3862
-66.3864
-66.3859
-55.454
-55.4514
-55.4518
-55.4519
-55.4517
-55.4517
-61.5936
-61.5932
-61.5935
-61.5935
-61.5934
-61.5933
-52.7793
-52.7821
-52.7798
-52.7778
-52.7769
-52.7743
-54.1686
-54.1684
-54.1671
-54.1667
-54.1661
-54.1647
-61.9915
-61.9913
-61.9916
-61.9917
-61.9915
-61.991
-54.5656
-54.5585
-54.5613
-54.5601
-54.5576
-54.562
-71.6183
-71.6179
-71.6185
-71.6152
-71.6149
-71.6202
-72.6144
-72.6148
-72.6151
-72.6142
-72.6135
-72.6162
-119.254
-119.253
-119.253
-119.25
-119.249
-119.246
-119.284
-119.292
-119.292
-119.289
-119.289
-119.293
-84.2681
-84.2748
-84.2735
-84.2732
-84.2735
-84.2756
-117.393
-117.397
-117.395
-117.393
-117.391
-117.387
-129.59
-129.602
-129.596
-129.596
-129.598
-129.592
-77.7239
-77.7261
-77.7255
-77.7273
-77.7262
-77.7306
-90.6821
-90.6731
-90.6751
-90.6722
-90.6667
-90.6682
-93.5247
-93.5241
-93.5232
-93.5254
-93.5232
-93.5218
-75.6532
-75.6542
-75.6531
-75.6549
-75.6523
-75.6578
-77.5585
-77.543
-77.5509
-77.5468
-77.5278
-77.5593
-75.9949
-75.9923
-75.9924
-75.9915
-75.9893
-75.9875
-74.7579
-74.7548
-74.756
-74.7561
-74.7562
-74.7586
-62.2708
-62.2644
-62.2874
-62.2721
-62.19
-62.3543
-50.1173
-50.1185
-50.1204
-50.1171
-50.1164
-50.1147
-73.5624
-73.5613
-73.5629
-73.5599
-73.5591
-73.5636
1807.61
1807.51
1807.56
1807.51
1807.73
1807.18
-45.665
-45.6891
-45.6704
-45.6821
-45.6779
-45.7836
-68.8967
-68.884
-68.892
-68.9308
-68.9785
-68.9026
1846.15
1846.26
1846.28
1846.24
1846.45
1846.22
-47.0699
-47.0543
-47.0362
-47.1287
-47.1502
-47.0671
-68.4755
-68.4769
-68.4807
-68.4738
-68.4787
-68.4833
1902.25
1902.48
1902.26
1903.7
1905.77
1900.17
-48.4569
-48.3991
-48.3876
-48.3011
-48.1218
-48.6168
-68.8791
-68.8708
-68.8733
-68.8799
-68.8772
-68.8885
1984.75
1985.27
1984.16
1986.98
1990.3
1980.85
-44.7692
-44.752
-44.741
-44.7329
-44.6427
-44.7821
-68.3958
-68.3794
-68.3815
-68.3207
-68.2628
-68.4506
1761.16
1761.56
1761.1
1762.54
1764.95
1758.85
-46.0644
-46.0755
-46.0756
-46.1334
-46.1371
-46.007
-68.3794
-68.3788
-68.3768
-68.3685
-68.366
-68.3719
1289.84
1289.77
1289.68
1290.56
1292.18
1288.26
-50.3481
-50.3531
-50.3533
-50.3648
-50.3669
-50.3311
-74.9084
-74.9076
-74.9064
-74.9123
-74.9172
-74.9039
-31.046
-31.046
-31.0462
-31.0464
-31.0466
-31.0467
-46.3989
-46.399
-46.3992
-46.3994
-46.3996
-46.3997
-61.3459
-61.346
-61.3462
-61.3462
-61.3463
-61.3463
-31.5805
-31.5805
-31.5804
-31.5804
-31.5804
-31.5804
-46.8094
-46.8094
-46.8095
-46.8095
-46.8094
-46.8094
-61.4988
-61.4988
-61.4988
-61.4988
-61.4988
-61.4988
-33.01
-33.0096
-33.0085
-33.0073
-33.0063
-33.0059
-47.7738
-47.7736
-47.7731
-47.7726
-47.7722
-47.7721
-61.8309
-61.8307
-61.8306
-61.8306
-61.8305
-61.8305
-36.1805
-36.1793
-36.1736
-36.1669
-36.1615
-36.1597
-49.6795
-49.6789
-49.6778
-49.6765
-49.6755
-49.675
-62.4839
-62.4838
-62.4836
-62.4835
-62.4833
-62.4832
-41.2453
-41.2454
-41.251
-41.2577
-41.2656
-41.2699
-52.5804
-52.5804
-52.5813
-52.5827
-52.5843
-52.5854
-63.3511
-63.351
-63.3513
-63.3517
-63.3519
-63.3522
-50.994
-50.9902
-50.9932
-50.9964
-51.0086
-51.0016
-57.3666
-57.3658
-57.3672
-57.3688
-57.3716
-57.3715
-64.8006
-64.8005
-64.801
-64.8017
-64.8024
-64.8025
-62.8399
-62.831
-62.8297
-62.8412
-62.8619
-62.8275
-63.0553
-63.0535
-63.0551
-63.0574
-63.0605
-63.0573
-66.245
-66.2449
-66.2451
-66.2455
-66.2448
-66.2462
-69.1993
-69.1793
-69.1859
-69.196
-69.206
-69.1692
-67.9345
-67.9313
-67.9318
-67.9326
-67.935
-67.9209
-67.6103
-67.6097
-67.6099
-67.611
-67.6101
-67.61
-65.8308
-65.8322
-65.856
-65.7632
-65.6529
-65.9017
-68.4294
-68.4374
-68.4373
-68.4192
-68.3999
-68.4447
-67.357
-67.3571
-67.3516
-67.3534
-67.3405
-67.3543
-63.4673
-63.4429
-63.4883
-63.4641
-63.2632
-63.4866
-68.583
-68.5907
-68.5922
-68.6096
-68.5826
-68.5962
-67.8743
-67.8734
-67.8677
-67.8744
-67.8346
-67.8924
-67.3352
-67.2619
-67.4797
-67.1279
-66.2208
-67.8129
-62.4775
-62.4868
-62.4858
-62.486
-62.4884
-62.5364
-69.4974
-69.5091
-69.5129
-69.475
-69.4596
-69.5541
984.23
985.534
985.125
981.911
978.071
986.517
-51.0274
-51.0009
-51.0175
-50.9447
-51.0128
-51.1413
-78.9991
-79.0299
-79.0531
-79.1538
-79.372
-79.0845
)
;

boundaryField
{
    seabed_topleft_surface
    {
        type            calculated;
        value           nonuniform List<scalar> 
72
(
4309.76
4309.8
4309.81
4309.8
4309.81
4309.8
4380.4
4380.43
4380.45
4380.43
4380.44
4380.45
4657.25
4657.26
4657.28
4657.27
4657.28
4657.3
5176.09
5176.1
5176.11
5176.1
5176.12
5176.14
6260.9
6260.92
6260.93
6260.93
6260.95
6260.97
8507.28
8507.31
8507.32
8507.34
8507.36
8507.39
13028
13027.9
13028
13028
13028
13028.1
17942
17942.2
17942.1
17942.2
17942.2
17942.2
21854.5
21854.7
21854.6
21854.6
21854.6
21854.5
24918.7
24918.9
24918.9
24918.9
24918.9
24918.7
28640
28639.9
28639.9
28639.9
28639.9
28640
30632
30631.9
30632
30632
30632
30632.1
)
;
    }
    seabed_topright_surface
    {
        type            calculated;
        value           nonuniform List<scalar> 
72
(
33.2584
33.2587
33.2594
33.26
33.2604
33.26
35.0336
35.0342
35.0356
35.0366
35.0377
35.0353
38.8014
38.8024
38.8089
38.8116
38.8218
38.8054
47.3562
47.3463
47.3704
47.4
47.4634
47.3267
58.5736
58.5578
58.5492
58.6343
58.7381
58.3163
50.5574
50.6476
50.5437
50.4011
50.46
50.2513
55.6047
55.392
55.461
54.2174
54.3252
55.4936
294.368
292.343
292.465
290.701
291.265
292.33
1514.04
1507.18
1509.88
1522.62
1522.81
1508.58
605.544
602.478
602.559
586.561
567.261
612.685
52.5474
52.2486
52.4168
52.3732
51.3819
52.5743
17.9383
18.28
18.4804
18.6794
19.1389
19.2787
)
;
    }
    breakwater_top_surface
    {
        type            calculated;
        value           nonuniform List<scalar> 
36
(
3681.53
3681.37
3681.51
3681.27
3681.36
3681.36
3728.59
3728.72
3728.75
3728.64
3728.82
3728.78
3785.61
3785.84
3785.62
3787.06
3789.15
3783.55
3868.12
3868.63
3867.51
3870.32
3873.65
3864.23
3555.64
3556.29
3555.55
3558.22
3562.34
3551.6
2679.77
2679.55
2679.47
2681.1
2684.09
2676.88
)
;
    }
    breakwater_left_surface
    {
        type            calculated;
        value           nonuniform List<scalar> 
24
(
25856.9
25856.8
25856.9
25856.9
25856.9
25857
15171.9
15171.8
15171.8
15171.9
15171.8
15172
5366.85
5367.07
5367.07
5366.8
5367.13
5367.03
-106.407
-106.034
-106.124
-106.651
-106.54
-105.989
)
;
    }
    breakwater_right_surface
    {
        type            calculated;
        value           nonuniform List<scalar> 
24
(
12.9354
13.281
13.4761
13.694
14.154
14.2701
-57.9994
-57.4361
-55.6846
-56.62
-55.7006
-49.0277
-54.3804
-54.8076
-56.1191
-55.5204
-57.0527
-62.9948
-1091.02
-1089.81
-1128.52
-1084.42
-1095.08
-1280.36
)
;
    }
    water_front_surface
    {
        type            calculated;
        value           nonuniform List<scalar> 
186
(
2159.54
2200.84
2345.08
2594.25
3143.38
4606.57
8236.34
13150.3
17062.8
20127
23848.4
25840.4
-13.8249
-8.40475
3.85464
46.6959
95.7767
179.758
910.769
4153.78
7521.24
9519.79
13095.9
15155.9
-9.75638
-10.158
-7.89781
-18.439
-46.7843
-16.7693
47.0955
324.898
3095.9
5203.43
6673.4
5352.14
-29.4277
-30.3916
-27.7427
-37.7259
-61.9065
-46.7286
-10.5791
5.65186
759.474
1256.78
1177.66
-110.131
28.3366
30.1117
33.8795
42.4343
53.6506
45.6031
48.358
229.171
1415.84
525.624
40.8717
12.9183
15.982
17.3892
19.9735
24.3522
27.3606
-6.35737
-100.616
-122.874
37.0361
-112.371
-222.98
-58.0163
0.870261
1.29686
1.57278
0.33978
-6.40967
-34.9333
-97.2449
-121.847
-79.9974
-42.6116
-247.665
-54.3969
-15.2007
-15.5066
-16.6812
-20.0327
-28.0556
-46.7843
-74.3951
-89.1288
-73.1573
-59.1589
-127.136
-1094.56
-38.8711
-51.8578
-63.9926
-39.5221
-51.6942
-63.7575
-38.628
-50.8828
-63.1852
-47.2205
-52.8674
-62.4957
-66.3857
-55.454
-61.5936
-52.7793
-54.1686
-61.9915
-54.5656
-71.6183
-72.6144
-119.254
-119.284
-84.2681
-117.393
-129.59
-77.7239
-90.6821
-93.5247
-75.6532
-77.5585
-75.9949
-74.7579
-62.2708
-50.1173
-73.5624
1807.61
-45.665
-68.8967
1846.15
-47.0699
-68.4755
1902.25
-48.4569
-68.8791
1984.75
-44.7692
-68.3958
1761.16
-46.0644
-68.3794
1289.84
-50.3481
-74.9084
-31.046
-46.3989
-61.3459
-31.5805
-46.8094
-61.4988
-33.01
-47.7738
-61.8309
-36.1805
-49.6795
-62.4839
-41.2453
-52.5804
-63.3511
-50.994
-57.3666
-64.8006
-62.8399
-63.0553
-66.245
-69.1993
-67.9345
-67.6103
-65.8308
-68.4294
-67.357
-63.4673
-68.583
-67.8743
-67.3352
-62.4775
-69.4974
984.23
-51.0274
-78.9991
)
;
    }
    water_back_surface
    {
        type            calculated;
        value           nonuniform List<scalar> 
186
(
2159.56
2200.87
2345.11
2594.27
3143.41
4606.65
8236.41
13150.4
17062.8
20127
23848.4
25840.6
-13.8243
-8.40385
3.85688
46.6993
95.7826
179.783
910.758
4153.94
7521.26
9519.68
13095.6
15155.9
-9.75471
-10.1561
-7.89563
-18.4375
-46.7859
-16.7727
47.1034
324.979
3095.82
5203.17
6672.75
5352.33
-29.4257
-30.39
-27.7417
-37.7265
-61.9109
-46.7282
-10.563
5.73075
759.911
1257.46
1178.17
-109.714
28.3381
30.1135
33.8835
42.4048
53.3931
45.2958
47.6885
224.645
1410.26
529.336
40.2441
14.2529
15.9828
17.3898
19.9711
24.3196
27.145
-6.79211
-100.379
-121.108
36.7356
-109.449
-218.377
-49.0445
0.86997
1.29626
1.56998
0.323431
-6.47118
-34.898
-96.8103
-121.265
-80.1597
-42.6536
-278.339
-63.0117
-15.2015
-15.5072
-16.6816
-20.0346
-28.0747
-46.7627
-74.2668
-88.6851
-73.3026
-58.6467
-117.407
-1283.91
-38.87
-51.858
-63.9931
-39.5217
-51.6943
-63.7575
-38.6278
-50.8827
-63.1853
-47.2211
-52.8674
-62.4958
-66.3859
-55.4517
-61.5933
-52.7743
-54.1647
-61.991
-54.562
-71.6202
-72.6162
-119.246
-119.293
-84.2756
-117.387
-129.592
-77.7306
-90.6682
-93.5218
-75.6578
-77.5593
-75.9875
-74.7586
-62.3543
-50.1147
-73.5636
1807.18
-45.7836
-68.9026
1846.22
-47.0671
-68.4833
1900.17
-48.6168
-68.8885
1980.85
-44.7821
-68.4506
1758.85
-46.007
-68.3719
1288.26
-50.3311
-74.9039
-31.0467
-46.3997
-61.3463
-31.5804
-46.8094
-61.4988
-33.0059
-47.7721
-61.8305
-36.1597
-49.675
-62.4832
-41.2699
-52.5854
-63.3522
-51.0016
-57.3715
-64.8025
-62.8275
-63.0573
-66.2462
-69.1692
-67.9209
-67.61
-65.9017
-68.4447
-67.3543
-63.4866
-68.5962
-67.8924
-67.8129
-62.5364
-69.5541
986.517
-51.1413
-79.0845
)
;
    }
    water_left_surface
    {
        type            calculated;
        value           nonuniform List<scalar> 
42
(
2166.9
2166.92
2166.93
2166.93
2166.93
2166.92
-13.8084
-13.8084
-13.8085
-13.8082
-13.8078
-13.8078
-9.74019
-9.74018
-9.74
-9.73955
-9.739
-9.73852
-29.4118
-29.4114
-29.4111
-29.4107
-29.41
-29.4098
-38.8711
-38.8709
-38.8707
-38.8704
-38.8702
-38.87
-51.8578
-51.8577
-51.8577
-51.8577
-51.8578
-51.858
-63.9926
-63.9927
-63.9929
-63.993
-63.9931
-63.9931
)
;
    }
    water_right_surface
    {
        type            calculated;
        value           nonuniform List<scalar> 
42
(
28.3534
28.3537
28.3544
28.355
28.3554
28.355
15.9985
15.9988
15.9993
15.9996
15.9998
15.9993
0.886449
0.886538
0.88665
0.886631
0.886582
0.886158
-15.1849
-15.1849
-15.185
-15.1852
-15.1854
-15.1856
-31.046
-31.046
-31.0462
-31.0464
-31.0466
-31.0467
-46.3989
-46.399
-46.3992
-46.3994
-46.3996
-46.3997
-61.3459
-61.346
-61.3462
-61.3462
-61.3463
-61.3463
)
;
    }
    water_top_surface
    {
        type            calculated;
        value           nonuniform List<scalar> 
180
(
-70.6602
-70.6606
-70.6608
-70.661
-70.6611
-70.6608
-70.3937
-70.3938
-70.3938
-70.3939
-70.394
-70.3937
-69.6989
-69.6989
-69.6989
-69.6989
-69.6991
-69.699
-68.8603
-68.8603
-68.8603
-68.8603
-68.8603
-68.8602
-68.67
-68.67
-68.67
-68.67
-68.67
-68.67
-68.67
-68.67
-68.67
-68.67
-68.67
-68.67
-68.6713
-68.6713
-68.6713
-68.6713
-68.6713
-68.6713
-68.8024
-68.8026
-68.8026
-68.8026
-68.8026
-68.8025
-68.9078
-68.9082
-68.9081
-68.908
-68.9077
-68.9079
-71.3198
-71.3138
-71.3179
-71.3195
-71.3197
-71.3238
-73.8366
-73.8381
-73.8378
-73.8422
-73.8519
-73.8274
-75.1966
-75.2156
-75.2071
-75.2113
-75.2329
-75.1842
-72.9705
-73.0733
-73.063
-73.0016
-73.1077
-73.0675
-70.5984
-70.5826
-70.5701
-70.6256
-70.6618
-70.5242
-69.7865
-69.8
-69.7831
-69.8505
-69.9354
-69.7242
-78.2075
-78.276
-78.1293
-78.4869
-78.9029
-77.7419
-79.8724
-79.9406
-79.8327
-80.0395
-80.3667
-79.5316
-75.3841
-75.4104
-75.3848
-75.4318
-75.5
-75.3059
-68.67
-68.67
-68.67
-68.67
-68.67
-68.67
-68.67
-68.67
-68.67
-68.67
-68.67
-68.67
-68.67
-68.67
-68.67
-68.67
-68.67
-68.67
-68.67
-68.67
-68.67
-68.67
-68.67
-68.67
-68.67
-68.67
-68.67
-68.67
-68.67
-68.67
-68.67
-68.67
-68.67
-68.67
-68.67
-68.67
-68.67
-68.67
-68.67
-68.67
-68.67
-68.67
-68.67
-68.67
-68.67
-68.67
-68.67
-68.67
-68.67
-68.67
-68.67
-68.67
-68.67
-68.67
-74.7591
-74.779
-74.77
-74.7434
-74.7142
-74.7797
-75.4875
-75.545
-75.5508
-75.4612
-75.524
-75.5391
-69.9898
-69.9478
-70.0075
-69.8406
-69.4505
-70.0827
)
;
    }
}


// ************************************************************************* //
