/*--------------------------------*- C++ -*----------------------------------*\
| =========                 |                                                 |
| \\      /  F ield         | OpenFOAM: The Open Source CFD Toolbox           |
|  \\    /   O peration     | Version:  v1612+                                |
|   \\  /    A nd           | Web:      www.OpenFOAM.com                      |
|    \\/     M anipulation  |                                                 |
\*---------------------------------------------------------------------------*/
FoamFile
{
    version     2.0;
    format      ascii;
    class       volScalarField;
    location    "0.7";
    object      alpha.water;
}
// * * * * * * * * * * * * * * * * * * * * * * * * * * * * * * * * * * * * * //

dimensions      [0 0 0 0 0 0 0];

internalField   nonuniform List<scalar> 
320
(
1
1
1
1
7.22876e-07
7.46753e-07
1.27392e-06
1.39598e-06
1.31082e-06
1.36984e-06
1.49996e-06
9.30294e-07
2.34286e-06
9.77637e-07
9.93354e-07
1.3194e-06
0.999995
0.999996
0.999998
1
0.999998
0.999999
1
0.999997
0.999996
0.999999
0.999997
1
1
1
1
1
1
1
1
1
1
1
1
1
1
1
1
1
1
1
1
1
1
1
1
1
1
1
1
1
1.15669e-06
1.44856e-06
1.38194e-06
1.34584e-06
9.06479e-07
1.24241e-06
1.50772e-06
1.03e-06
8.17262e-07
9.8732e-07
1.05464e-06
1.80478e-06
1.3519e-06
1.40736e-06
1.41173e-06
2.05051e-06
1.57876e-06
1.78813e-06
1.92765e-06
2.79257e-06
1
1
1
1
0.999999
1
1
1
0.999999
0.999996
0.999999
0.999998
0.999996
0.999998
1
0.999998
1
1
0.999999
0.999998
1
1
1
1
1
1
1
1
1
1
1
1
1
1
1
1
1
1
1
1
1
1
1
1
1
1
1
1
1
1
1
1
1
1
1
1
1
1
1
1
1
1
1
1
1
1
1
1
1
1
1
1
1
1
1
1
1
1
1
1
1
1
1
1
1
1
1
1
1
1
1
1
1
1
1
1
2.48504e-06
1.43337e-06
1.52862e-06
1.47508e-06
1.64124e-06
1.1709e-06
1.13642e-06
9.25888e-07
1.82516e-06
1.61835e-06
1.39354e-06
8.1483e-07
1.55762e-06
1.86323e-06
2.91777e-06
1.0653e-06
1.53027e-06
1.33888e-06
1.27348e-06
1.97661e-06
2.32307e-06
9.01013e-07
1.78356e-06
1.92909e-06
2.82509e-06
1.07e-06
2.19548e-06
1.50468e-06
0.999998
1
1
1
1
0.999998
0.999996
0.999997
1
1
0.999999
0.999996
1
1
0.999998
0.999997
1
0.999996
0.999996
1
0.999999
0.999997
1
1
0.999998
0.999996
0.999996
0.999996
1
1
1
1
1
1
1
1
1
1
1
1
1
1
1
1
1
1
1
1
1
1
1
1
1
1
1
1
1
1
1
1
1
1
1
1
1
1
1
1
1
1
1
1
1
1
1
1
1
1
1
1
1
1
1
1
1
1
1
1
1
1
1
1
1
1
1
1
1
1
1
1
1
1
1
1
1
1
1
1
1
1
1
1
8.84506e-07
9.58628e-07
5.54408e-07
9.02209e-07
1
1
0.999997
0.999998
)
;

boundaryField
{
    top_fluid_surface
    {
        type            inletOutlet;
        inletValue      uniform 0;
        value           nonuniform List<scalar> 
64
(
7.22876e-07
7.46753e-07
0
1.39598e-06
1.31082e-06
0
1.49996e-06
9.30294e-07
0
9.77637e-07
9.93354e-07
0
1.15669e-06
1.44856e-06
0
0
9.06479e-07
0
0
1.03e-06
8.17262e-07
9.8732e-07
1.05464e-06
0
0
1.40736e-06
1.41173e-06
0
0
1.78813e-06
0
0
2.48504e-06
0
0
0
0
1.1709e-06
0
9.25888e-07
0
1.61835e-06
0
8.1483e-07
0
0
0
1.0653e-06
1.53027e-06
0
0
0
0
9.01013e-07
1.78356e-06
0
2.82509e-06
1.07e-06
0
1.50468e-06
8.84506e-07
9.58628e-07
5.54408e-07
9.02209e-07
)
;
    }
    bottom_fluid_surface
    {
        type            zeroGradient;
    }
    lateral_surface_1
    {
        type            zeroGradient;
    }
    lateral_surface_2
    {
        type            zeroGradient;
    }
    lateral_surface_3
    {
        type            zeroGradient;
    }
    lateral_surface_4
    {
        type            zeroGradient;
    }
}


// ************************************************************************* //
