/*--------------------------------*- C++ -*----------------------------------*\
| =========                 |                                                 |
| \\      /  F ield         | OpenFOAM: The Open Source CFD Toolbox           |
|  \\    /   O peration     | Version:  v1612+                                |
|   \\  /    A nd           | Web:      www.OpenFOAM.com                      |
|    \\/     M anipulation  |                                                 |
\*---------------------------------------------------------------------------*/
FoamFile
{
    version     2.0;
    format      ascii;
    class       volScalarField;
    location    "9.85";
    object      alpha.water;
}
// * * * * * * * * * * * * * * * * * * * * * * * * * * * * * * * * * * * * * //

dimensions      [0 0 0 0 0 0 0];

internalField   nonuniform List<scalar> 
1116
(
0.779121
0.780611
0.780764
0.775926
0.77556
0.778652
0.861521
0.865034
0.868015
0.863622
0.865759
0.867848
0.937875
0.93789
0.937906
0.937921
0.937921
0.937921
0.936742
0.937128
0.937372
0.936943
0.936973
0.93715
0.936284
0.936668
0.936905
0.936451
0.936468
0.936613
0.936189
0.936322
0.93655
0.936239
0.936171
0.93624
0.936337
0.936383
0.936456
0.936383
0.936332
0.936249
0.936264
0.936337
0.936383
0.936332
0.936249
0.936165
0.892102
0.887383
0.889832
0.8898
0.890313
0.89002
0.790126
0.790547
0.790454
0.78923
0.789181
0.791073
0.789296
0.78857
0.788563
0.789628
0.789441
0.788574
0.654931
0.638657
0.64448
0.653746
0.646911
0.644013
0.308953
0.308095
0.307069
0.308576
0.308877
0.306369
0.314926
0.312937
0.313232
0.315129
0.317064
0.312851
0.296806
0.293377
0.293736
0.297522
0.300452
0.293787
0.308772
0.306148
0.305513
0.307474
0.307893
0.304063
0.325051
0.323645
0.322638
0.323478
0.322936
0.320542
0.354554
0.354561
0.353932
0.353603
0.352951
0.352056
0.408021
0.408309
0.408412
0.408366
0.408513
0.407762
0.529554
0.529815
0.530268
0.53084
0.531723
0.531058
0.789118
0.789765
0.789116
0.788839
0.789102
0.788928
0.821296
0.821411
0.821589
0.821729
0.82175
0.82156
0.821411
0.821578
0.821729
0.821749
0.821729
0.821749
0.532404
0.530953
0.530998
0.534767
0.531812
0.528853
2.04874e-07
5.80732e-08
-1.0428e-08
8.04688e-09
-1.1153e-08
-2.2658e-08
6.3125e-10
6.8018e-10
4.58612e-10
1.73523e-06
9.21227e-06
1.45266e-10
3.61302e-12
5.02048e-12
2.86254e-12
9.12807e-12
2.83929e-12
8.81376e-13
4.6592e-13
3.94282e-13
3.92356e-13
4.13057e-13
1.30105e-12
2.07424e-13
1.2309e-11
3.49642e-13
6.03355e-13
1.57971e-12
9.39535e-11
7.34671e-13
8.51782e-10
2.38934e-11
4.20174e-11
1.0545e-10
1.41835e-09
5.13929e-11
7.57327e-10
3.51706e-10
3.6788e-10
4.10461e-10
6.2531e-10
3.42245e-10
2.78445e-10
3.05053e-10
2.68904e-10
2.68575e-10
2.62488e-10
2.05869e-10
-9.13019e-07
-4.50214e-07
-5.6776e-07
-3.79868e-07
-3.48305e-07
-4.72674e-07
0.0811533
0.0842625
0.0836135
0.0828243
0.0803776
0.0868407
0.546391
0.540348
0.541115
0.536544
0.536241
0.540552
0.534238
0.534389
0.534599
0.534781
0.534624
0.532849
-7.58008e-08
-3.33992e-08
-1.05419e-08
1.98371e-08
-6.94726e-08
-5.4525e-09
9.53807e-14
-1.22246e-12
3.88273e-13
4.21447e-12
2.62486e-12
-5.9511e-14
4.59972e-13
3.85373e-13
3.89055e-13
4.13202e-13
8.9001e-13
2.05807e-13
2.12248e-13
3.42522e-13
3.63347e-13
2.94608e-13
1.06711e-13
1.9112e-13
7.45191e-15
1.23877e-14
6.56369e-15
1.99583e-14
-2.97264e-15
6.6648e-15
1.22073e-09
3.48728e-13
1.13318e-13
6.46807e-14
1.25077e-08
7.34358e-13
4.22637e-08
3.5101e-09
7.08469e-09
1.72723e-08
3.22128e-08
4.12159e-09
7.02118e-10
6.36883e-10
6.27032e-10
5.36422e-10
5.16069e-10
4.34746e-10
-5.23036e-07
-8.43915e-07
-2.04129e-07
-1.0779e-06
-1.1833e-06
-2.20998e-07
4.07371e-05
4.35323e-05
4.41366e-05
4.32253e-05
4.09843e-05
4.68293e-05
0.038159
0.0172635
0.0219152
0.0154328
0.0141171
0.0189634
0.483172
0.483376
0.479296
0.476267
0.474515
0.478169
0.0958876
0.0977608
0.0982085
0.096118
0.091659
0.0886567
0.095715
0.0981697
0.098588
0.0990844
0.0951824
0.0887278
0.0976497
0.0986486
0.0993947
0.100127
0.100022
0.0932559
0.0996698
0.0998752
0.100161
0.100157
0.0983391
0.0983758
0.100091
0.100191
0.100171
0.10016
0.0972771
0.0985945
0.100147
0.100214
0.100177
0.100158
0.0988585
0.0989254
0.100086
0.100174
0.100158
0.100148
0.10013
0.0993593
0.0999548
0.1001
0.100148
0.100134
0.100086
0.0996296
0.099764
0.0999544
0.069583
0.0599686
0.0998502
0.0992123
0.0781763
0.0997418
0.0256478
0.0159661
0.0766917
0.0950572
0.0091538
0.0234615
0.0190376
0.0185026
0.0234255
0.0350461
0.00625277
0.00626494
0.017253
0.0204544
0.0187463
0.0203714
0.0145232
0.0165053
0.0181489
0.0133975
0.00579738
0.00186796
0.0177392
0.0171338
0.0150035
0.0149141
0.0105982
0.00838861
0.0201223
0.0203539
0.0201897
0.0207437
0.0176202
0.0180884
0.0270878
0.0268523
0.029881
0.0323744
0.0298758
0.0278185
0.0318785
0.0402469
0.0539799
0.0487685
0.0348493
0.0300124
0.0337408
0.0522984
0.061637
0.0461196
0.0298101
0.0253513
0.0433179
0.0502659
0.0460288
0.0362198
0.0215677
0.0209608
0.0871425
0.0489382
0.0388403
0.0345362
0.0139125
0.019662
0.0677466
0.0703907
0.0757748
0.0362324
0.0298858
0.0317723
0.0152862
0.092924
0.0857505
0.0158876
0.0657226
0.0654724
0.00625707
0.0681113
0.0488873
0.011954
0.0286549
0.051682
0.00621428
0.00698765
0.00732102
0.00770691
0.00443087
0.00566504
3.0614e-07
1.82755e-08
1.01009e-08
1.59765e-08
3.75633e-07
5.32704e-07
9.42541e-08
7.81095e-09
7.80197e-09
5.50304e-09
1.66613e-08
6.77124e-07
0.00109755
3.34029e-09
5.50303e-09
4.19441e-09
5.50305e-09
7.89423e-08
0.00148694
1.08993e-09
3.6913e-09
5.50303e-09
5.86097e-09
-5.53407e-08
0.000302404
2.16386e-09
4.90498e-09
5.86302e-09
6.43037e-09
-3.10257e-08
8.70594e-08
2.43395e-08
0.000404685
4.26089e-09
8.16238e-09
-1.48232e-08
5.39758e-08
4.64334e-08
0.000986944
1.83107e-09
3.1751e-09
7.92412e-09
1.1674e-07
9.26108e-08
6.81639e-09
1.29637e-09
2.64174e-09
3.88748e-09
0.0048082
6.68722e-07
0.0021723
0.00906308
3.98706e-09
8.74791e-07
0.0345713
0.0198132
0.0391361
0.00557165
0.0188786
0.00380453
0.0171743
0.0663999
0.0343294
0.00308365
0.0103484
0.030282
0.0048168
0.0145001
0.00778606
0.0025638
0.00269494
0.00945037
5.85831e-07
6.29939e-07
4.97364e-07
4.46726e-06
6.71835e-07
5.1927e-07
2.01728e-06
5.37435e-07
9.87978e-08
2.41398e-07
4.86402e-07
5.0351e-07
2.44438e-09
1.08989e-09
6.85983e-09
1.96933e-09
2.16169e-06
4.43766e-06
1.08952e-09
9.74428e-10
3.06039e-08
2.16138e-08
1.96767e-06
6.32782e-07
1.68621e-09
2.14618e-09
7.11921e-08
3.17404e-08
1.57618e-06
1.5359e-06
1.58485e-08
2.79503e-09
4.25739e-09
1.83107e-09
5.71128e-07
4.58483e-07
4.02336e-08
4.18902e-08
1.8307e-09
1.29635e-09
1.44863e-08
1.50467e-08
5.39754e-08
3.41749e-07
1.29691e-09
1.11473e-09
1.29635e-09
5.04597e-09
0.000844916
3.35469e-06
6.81639e-09
0.00824075
0.000660551
2.95523e-07
0.00336319
0.000217755
0.0120117
0.00261258
0.0137724
0.00198515
0.0157245
0.0329713
0.0119437
0.0025638
0.00621593
0.0186657
0.0048168
0.0117138
0.00441792
0.0025638
0.00740372
0.00653393
0.000101417
9.34043e-05
0.000101167
0.000103241
0.000103026
5.41774e-05
0.000101624
2.63174e-05
9.14309e-06
8.5832e-05
0.00011407
7.08058e-05
8.63249e-05
2.23522e-318
0
3.18787e-150
8.73782e-05
9.916e-05
-2.31842e-10
-2.22896e-10
-1.40936e-10
6.82694e-08
6.3195e-11
-5.53917e-11
1.80354e-06
2.25956e-06
1.23742e-06
3.63882e-06
1.06333e-06
4.03317e-07
6.42601e-30
3.90522e-136
1.01833e-142
1.34591e-33
2.09484e-37
5.41291e-14
-9.60464e-14
-6.17566e-13
3.55944e-13
1.9115e-12
3.16508e-13
1.21546e-13
-3.14412e-12
-3.72927e-12
-2.47248e-12
-9.36864e-12
-1.78454e-12
-9.67367e-13
-8.22655e-19
1.84388e-12
-4.55585e-21
7.43709e-25
1.84654e-27
2.90502e-31
2.09658e-15
1.1043e-14
4.23068e-15
9.97852e-15
2.21179e-16
4.43048e-15
-1.90257e-16
-5.56504e-15
-2.42358e-15
1.60889e-17
-8.60917e-15
1.54845e-17
5.62605e-18
2.31874e-14
8.31211e-15
1.36094e-18
1.52429e-18
5.67879e-20
1.1649e-15
2.42898e-15
1.35005e-15
2.88945e-15
3.12443e-16
3.31803e-15
-3.72223e-17
6.16766e-17
2.66815e-17
-1.05417e-16
-1.80605e-18
6.76218e-14
2.8072e-19
9.42438e-17
9.8827e-17
1.01584e-18
1.06772e-18
8.92446e-22
6.30386e-15
1.33715e-10
1.34019e-15
2.39401e-15
2.98257e-15
1.3156e-09
7.40056e-18
9.97547e-12
-2.15743e-15
-2.41467e-17
6.97291e-18
1.31941e-18
6.40375e-19
8.08787e-22
1.38606e-19
8.62037e-21
1.67316e-20
1.08911e-24
2.7041e-08
2.86089e-09
3.97817e-09
3.75923e-09
2.18512e-08
2.54259e-09
4.46081e-09
1.40673e-10
4.25962e-09
1.82781e-09
1.0703e-10
3.95428e-11
4.33549e-120
5.89622e-77
6.60474e-118
4.54116e-113
3.15654e-91
3.57364e-45
3.22233e-09
6.32205e-10
4.6793e-09
1.32262e-09
7.28572e-10
4.13394e-10
1.88813e-07
2.1949e-10
1.53804e-07
1.39228e-07
7.27466e-08
3.26437e-11
1.09991e-08
4.26856e-09
3.79e-08
1.04405e-09
9.96165e-20
1.01344e-10
-7.17279e-08
-2.10139e-08
-2.18091e-08
1.7734e-09
-6.07495e-09
-4.42916e-08
-2.02282e-10
3.95752e-10
5.42317e-08
7.16885e-08
4.25194e-18
-7.86117e-12
-7.30841e-16
-1.85221e-12
2.11046e-07
3.27172e-07
-7.56394e-15
2.54295e-13
3.25164e-06
3.10962e-06
3.2751e-06
3.20383e-06
2.99223e-06
3.33255e-06
1.42929e-07
5.35502e-08
1.69345e-07
2.04331e-07
7.38833e-08
5.6606e-08
1.50342e-18
4.07522e-10
2.45881e-07
2.84144e-07
1.38076e-17
2.32476e-13
0.00142405
0.00018021
0.000582414
0.000171223
0.000170537
0.00042319
0.00254431
0.00038189
0.000602959
0.000369852
0.000354055
0.000563709
0.00123093
0.00021146
4.66686e-05
5.53646e-05
4.60872e-05
6.314e-05
0.0811233
0.195105
0.164724
0.152223
0.177272
0.16756
4.61908e-06
9.22002e-06
1.68275e-05
4.26762e-06
1.64705e-05
1.02261e-06
0.000117321
3.75595e-05
2.61362e-05
2.71621e-06
3.87566e-06
3.65114e-05
0.0182168
0.0174399
0.0176911
0.0180168
0.0168141
0.0173543
0.0094512
0.00463997
0.00225196
0.00202763
0.00141527
0.00561245
0.000978056
0.000930687
0.000923535
0.000916383
0.000916383
0.000916383
0.00956082
0.00919885
0.0114413
0.0105336
0.00846915
0.00745784
0.00913057
0.00899276
0.00991676
0.0120338
0.0111094
0.00726122
0.00229099
0.00161522
0.00163755
0.00291144
0.00258607
0.00139314
0.0187241
0.057388
0.0256586
0.0156681
0.0384607
0.0340555
0.0319231
0.0339025
0.0301088
0.0281305
0.0294251
0.0285972
0.00561812
0.00328629
0.00422867
0.00524386
0.00391929
0.00368801
0.137961
0.21859
0.15748
0.130633
0.188388
0.181656
0.0111057
0.0225972
0.0118921
0.00897569
0.00813542
0.0127894
2.85784e-05
7.35979e-23
1.84362e-22
4.1187e-22
7.92744e-22
4.34561e-22
0.216611
0.21859
0.21818
0.213074
0.20917
0.206419
4.33085e-10
0.0152632
2.60302e-08
6.65452e-08
9.66302e-08
7.65804e-08
1.96313e-21
1.86347e-21
-3.60763e-16
-7.67959e-14
-8.21882e-13
-1.02259e-13
0.143894
0.21859
0.215683
0.208387
0.207474
0.205584
9.06457e-09
0.0210831
8.13322e-07
1.70036e-06
0.000393619
1.73211e-07
7.77118e-20
-1.26344e-11
2.63255e-07
1.39963e-06
4.09599e-07
1.96313e-06
6.71803e-07
2.00929e-06
5.2708e-06
4.31144e-06
2.41606e-07
6.94258e-07
1.26783e-07
2.73297e-07
4.52859e-06
6.74042e-19
4.31819e-08
2.38757e-07
0
0
0
0
0
0
2.06693e-06
4.94829e-07
3.4462e-07
4.0368e-07
6.52133e-07
1.63958e-06
5.29144e-08
1.68055e-08
1.44749e-07
2.20304e-19
8.87037e-09
2.87528e-07
4.80758e-271
3.86742e-265
3.16464e-259
4.50408e-186
1.90746e-192
3.80324e-198
1.55027e-06
1.45238e-07
2.46134e-09
1.22217e-09
2.51646e-07
6.34066e-08
5.23556e-16
6.30127e-12
1.23602e-09
1.21807e-09
2.25192e-15
6.22777e-08
1.65725e-20
1.2068e-11
2.15418e-09
1.64468e-11
4.31223e-20
3.48605e-200
1.33315e-07
9.3819e-10
4.7689e-08
4.13656e-08
4.47964e-08
5.51745e-07
2.34942e-18
2.50954e-13
7.75969e-12
6.63439e-15
1.9715e-18
1.46074e-18
1.6618e-22
4.79176e-13
1.97325e-10
1.93764e-18
6.27951e-22
8.57423e-23
1.07838e-09
9.74428e-10
1.80034e-07
6.67143e-08
5.43962e-07
4.97383e-06
6.52917e-13
2.40658e-09
7.31006e-14
1.22223e-08
9.46402e-09
2.95382e-08
4.96428e-18
1.29787e-20
2.69521e-19
1.40309e-21
3.16573e-19
1.6118e-22
8.09264e-09
2.49686e-06
1.54913e-06
9.10814e-08
6.87404e-07
3.88532e-06
1.34715e-06
1.78155e-06
3.50188e-07
1.61462e-07
2.35527e-07
6.58516e-07
1.66292e-09
3.29337e-20
-1.38737e-21
2.26681e-19
5.98601e-09
1.27224e-20
1.80886e-06
1.61901e-05
4.18184e-06
1.15546e-09
1.50516e-07
1.12762e-07
2.43587e-05
2.40633e-05
5.02846e-06
8.52178e-11
4.58264e-08
1.19492e-07
2.73739e-06
2.58379e-08
-2.04135e-13
9.37867e-11
1.5125e-08
8.52074e-08
7.94753e-05
1.10242e-05
1.0924e-09
7.00112e-10
1.48456e-09
2.34216e-09
2.56307e-05
4.66006e-06
7.95053e-12
2.34118e-10
8.26268e-10
1.48456e-09
1.76087e-09
3.61647e-10
-2.33241e-15
6.84125e-18
1.1395e-07
6.42935e-07
0.00176716
0.000172842
0.000440157
0.0019011
0.000279867
1.1043e-08
2.59754e-09
1.13783e-05
1.92764e-12
4.15999e-07
1.01857e-09
9.40017e-05
-4.13103e-17
3.00918e-21
-3.1486e-21
-4.16726e-19
-1.36925e-15
2.13516e-06
0.00222627
0.000465015
0.00227843
0.00390934
0.00676316
0.00370962
0.000119889
8.84909e-06
0.00218328
0.00386736
0.00214561
0.000424156
1.52826e-20
5.29086e-18
0.000615961
0.00287363
1.50003e-08
7.56097e-18
0.00366302
0.0117784
0.007016
0.00259948
0.0123975
0.0183023
0.00165765
2.93405e-05
0.00366027
0.00348575
0.0123661
0.0066068
0.000995693
2.43535e-06
0.000935832
0.00306069
0.00353158
7.81476e-18
0.0181372
0.0112272
0.00440504
0.00432743
0.0178701
0.0180824
0.0180048
0.0154253
0.00450896
0.00286756
0.011079
0.0170192
0.00324549
0.00522058
0.00346488
0.000930958
0.000916383
0.00166773
)
;

boundaryField
{
    seabed_topleft_surface
    {
        type            zeroGradient;
    }
    seabed_topright_surface
    {
        type            zeroGradient;
    }
    breakwater_top_surface
    {
        type            zeroGradient;
    }
    breakwater_left_surface
    {
        type            zeroGradient;
    }
    breakwater_right_surface
    {
        type            zeroGradient;
    }
    water_front_surface
    {
        type            zeroGradient;
    }
    water_back_surface
    {
        type            zeroGradient;
    }
    water_left_surface
    {
        type            zeroGradient;
    }
    water_right_surface
    {
        type            zeroGradient;
    }
    water_top_surface
    {
        type            inletOutlet;
        inletValue      uniform 0;
        value           nonuniform List<scalar> 
180
(
8.63249e-05
0
0
0
8.73782e-05
9.916e-05
0
0
0
0
0
0
0
0
0
0
0
0
0
0
0
0
0
0
0
0
0
0
0
0
0
0
0
0
0
0
0
0
0
0
0
0
0
0
0
0
0
0
0
0
0
0
0
0
1.50342e-18
4.07522e-10
2.45881e-07
2.84144e-07
1.38076e-17
2.32476e-13
0.00123093
0.00021146
4.66686e-05
5.53646e-05
4.60872e-05
6.314e-05
0
3.75595e-05
2.61362e-05
2.71621e-06
3.87566e-06
3.65114e-05
0.000978056
0.000930687
0.000923535
0.000916383
0.000916383
0.000916383
0.00229099
0.00161522
0.00163755
0.00291144
0.00258607
0.00139314
0.00561812
0.00328629
0.00422867
0.00524386
0.00391929
0.00368801
0
0
0
0
0
0
0
0
0
0
0
0
0
0
0
1.39963e-06
4.09599e-07
1.96313e-06
0
0
0
0
0
0
0
0
0
0
0
0
0
0
0
0
0
0
0
0
0
0
0
0
0
0
0
0
0
0
0
0
0
0
0
0
0
0
0
0
0
0
1.76087e-09
0
0
0
0
0
0
0
0
0
0
0
0
0
0.000615961
0.00287363
1.50003e-08
0
0.000995693
2.43535e-06
0.000935832
0.00306069
0.00353158
0
0.00324549
0.00522058
0.00346488
0.000930958
0.000916383
0.00166773
)
;
    }
}


// ************************************************************************* //
