/*--------------------------------*- C++ -*----------------------------------*\
| =========                 |                                                 |
| \\      /  F ield         | OpenFOAM: The Open Source CFD Toolbox           |
|  \\    /   O peration     | Version:  v1612+                                |
|   \\  /    A nd           | Web:      www.OpenFOAM.com                      |
|    \\/     M anipulation  |                                                 |
\*---------------------------------------------------------------------------*/
FoamFile
{
    version     2.0;
    format      ascii;
    class       volScalarField;
    location    "9.85";
    object      p_rgh;
}
// * * * * * * * * * * * * * * * * * * * * * * * * * * * * * * * * * * * * * //

dimensions      [1 -1 -2 0 0 0 0];

internalField   nonuniform List<scalar> 
1116
(
10976.6
10984.8
10982.6
10952.9
10946.4
10966.3
11565.8
11580.8
11599.1
11584.2
11605
11602.1
12179.9
12175.7
12178.1
12185.3
12192.5
12181.6
12363.6
12364.8
12365.2
12363.8
12365.3
12362.8
12597.2
12597.5
12595.4
12593.7
12593.2
12588.1
12951.6
12951.7
12950.6
12948
12946
12944.3
13642.9
13644.5
13644.2
13642.5
13640
13642
14719.5
14723.1
14723.1
14724.2
14725.2
14721
16114.3
16091.6
16103.7
16101.6
16105.4
16104.1
17090.6
17094.7
17093.6
17083.2
17077.1
17098.1
18367.6
18364.9
18360.5
18363.2
18362.6
18358.4
17565.7
17466.5
17493.2
17544.4
17489.1
17483.5
6070.56
6054.05
6034.28
6063.13
6069.07
6020.94
6186.39
6149.89
6154.23
6191.24
6231.2
6146.59
5838.19
5774.4
5780.69
5852.72
5909.76
5782.57
6070.84
6019.53
6006.91
6045.77
6055.03
5978.1
6398.56
6370.7
6351.08
6367.85
6358.06
6309.79
6992.43
6991.72
6979.6
6973.76
6960.92
6942.67
8041.04
8046.45
8048.59
8048.53
8050.9
8035.66
10409.6
10413.8
10422.7
10435.1
10452.3
10437.8
15705.3
15717.3
15706.6
15698.9
15694.8
15712.8
17768.4
17757
17764.7
17757.8
17739.3
17782.3
19109.8
19117
19122.9
19121.4
19114.2
19128.1
15951.7
15928.7
15920.8
15972.6
15923.4
15893.7
-2.89981
-2.69807
-2.74051
-2.8964
-2.93362
-2.78513
-4.77262
-4.56546
-4.60469
-4.82349
-4.72105
-4.72169
-5.96164
-5.90016
-5.79219
-5.7712
-5.82565
-5.84059
-4.99861
-5.10592
-4.99972
-4.73924
-4.62864
-4.91899
-3.34183
-3.48033
-3.44009
-3.27371
-3.2349
-3.34457
-2.53078
-2.66831
-2.68225
-2.57052
-2.6741
-2.70393
1.6874
1.7068
1.6215
1.59195
1.40595
1.68709
108.2
108.614
108.397
108.143
108.305
108.983
355.573
352.309
352.483
351.674
350.63
353.848
2703.55
2763.45
2755.58
2726.22
2662.06
2833.61
16142.1
15930.2
15941.2
15860.4
15855.2
15898.5
17375
17408.2
17395.2
17385.8
17392.7
17320.1
7.39306
7.36325
7.36163
7.40316
7.5139
7.41028
7.39799
7.38477
7.39066
7.40314
7.51144
7.46186
7.58057
7.69239
7.64319
7.57489
7.5374
7.62981
6.06069
6.17176
6.15889
6.09992
6.07527
6.20398
5.01642
5.10558
5.10874
5.08507
5.09583
5.20242
1.31853
1.32058
1.33647
1.35694
1.37143
1.51306
-9.10452
-8.72528
-8.89469
-8.97487
-8.70494
-8.83228
1.18524
1.29501
1.16882
1.17484
1.3037
1.28718
6.75481
5.4867
4.91611
4.96598
4.5851
5.72465
52.0775
37.9558
37.1265
32.9156
31.2148
34.4142
1613.7
778.303
953.499
701.593
651.347
835.12
17863.3
17666.9
17428.5
17322.6
17250.6
17310.9
1131.54
1145.04
1138.42
1077.84
1001.99
937.122
1157.84
1161.86
1142.29
1114.81
1066.84
1017.51
1200.54
1199.97
1183.48
1182.46
1177.52
1141.87
1266.2
1249.79
1245.58
1259.25
1241.77
1250.87
1321.2
1294.06
1335.46
1322.37
1270.28
1288.25
1363.53
1355.26
1398.56
1367.14
1283.37
1286.06
1405
1363.86
1402.42
1397.62
1307.08
1289.99
1516.76
1394.87
1435.05
1417.95
1319.29
1325.76
1603.55
1524.92
1445.87
1341.08
1493.88
1498.99
1497.38
1658.08
1328.35
1202.86
1525.53
1692.71
1057.71
1200.95
1227.25
1157.81
1221.1
1308.3
1008.45
1032.52
1060.63
1066.55
1054.57
1090.73
288.24
320.692
347.341
247.869
123.676
65.7084
346.646
339.041
295.89
285.226
211.458
177.013
407.17
407.668
400.724
407.471
349.447
355.834
542.427
529.508
580.623
629.594
585.907
545.384
639.97
781.505
1041.14
942.608
687.652
595.942
676.838
1003.44
1165.1
893.789
587.908
513.835
860.826
971.102
897.762
713.527
437.462
435.77
1690.98
961.216
785.258
686.999
312.121
419.753
1375.89
1398.64
1547.13
712.124
595.795
662.088
725.529
1780.02
1638.64
560.065
1141.9
1278.54
717.828
1555.68
1284.1
708.872
947.782
1353.14
798.438
854.81
797.846
750.5
697.19
748.746
0.912907
0.702024
1.12069
0.299695
1.06815
2.95988
0.516266
0.679429
1.54191
0.78295
0.13965
1.24362
29.5433
0.994007
1.38648
1.24101
0.0338197
0.441381
37.6368
-0.373572
0.101709
-0.351118
-1.31758
-1.24892
7.75982
0.21145
0.560945
-0.264416
-0.341403
-0.158449
2.95725
2.75155
14.86
4.02136
4.12095
4.82111
7.95475
6.8962
34.3634
9.83281
10.0195
10.9781
22.1232
15.0653
16.9902
14.2821
13.959
17.0522
166.081
30.1402
88.9812
246.386
26.3974
30.3475
1015.35
549.965
910.499
198.104
480.488
145.052
795.63
1876.45
935.148
280.405
425.022
882.722
588.807
847.491
626.177
473.854
502.859
670.917
1.72058
1.02176
0.707897
1.57274
3.0925
4.15059
1.52218
0.764307
0.73672
1.16252
2.1794
3.06173
1.48101
1.07456
0.899857
0.964525
0.983959
1.81685
-0.0735287
0.000334842
-0.170577
-0.599985
-1.04421
-0.652345
-1.60154
-1.8309
-2.03678
-1.91939
-2.5047
-1.97844
-2.23691
-4.68833
-2.28937
-1.18317
-2.00385
-0.196889
0.668894
-4.6707
-0.306896
2.39341
1.60117
4.69095
4.62051
0.963713
4.72092
4.82519
4.61205
9.54543
41.4123
10.7567
6.61329
296.073
43.092
22.3861
142.339
21.219
417.631
103.68
493.629
97.7559
639.031
1158.78
381.897
157.543
288.805
693.254
471.301
664.233
374.931
322.223
528.237
490.613
1.28971
0.696405
0.985786
1.13859
1.31087
-0.933185
7.42778
3.67564
2.55212
6.66035
7.97539
5.75898
0.582402
-4.46625
-4.11815
-4.6456
0.099248
1.30673
-2.66688
-2.99795
-3.08235
-2.82955
-2.56669
-2.63187
-0.539975
-0.680277
-0.900505
-0.612711
-0.666648
-0.758005
-5.01742
-4.84198
-4.84543
-4.9505
-5.264
-5.32341
-1.36486
-1.33886
-1.347
-1.33171
-1.33716
-1.3361
-0.558476
-0.542248
-0.548222
-0.558409
-0.574814
-0.577728
-4.68656
-4.67184
-4.67138
-4.69564
-4.73203
-4.72881
-1.56197
-1.56266
-1.56905
-1.5406
-1.5414
-1.51807
-1.42348
-1.42372
-1.43479
-1.43639
-1.44374
-1.44031
-5.10224
-5.09676
-5.10264
-5.11681
-5.14262
-5.1479
-1.43824
-1.43206
-1.43127
-1.43369
-1.42713
-1.418
-1.77389
-1.77012
-1.76556
-1.77181
-1.76778
-1.76491
-5.30535
-5.31526
-5.31406
-5.32064
-5.3263
-5.32684
-1.91515
-1.9486
-1.9447
-1.93417
-1.91431
-1.97386
-2.46345
-2.44901
-2.44497
-2.45205
-2.46402
-2.46557
-5.47363
-5.50077
-5.49965
-5.52143
-5.53995
-5.55225
-0.848664
-0.760459
-0.843993
-0.884572
-0.803605
-0.873505
-2.40561
-2.13263
-2.23557
-2.33801
-2.32211
-2.26053
-5.64337
-5.75138
-5.71552
-5.72873
-5.73178
-5.74516
-2.18964
-1.64847
-2.02687
-1.78288
-1.64291
-1.03998
-3.54773
-2.41234
-2.39662
-2.51818
-2.42726
-1.78254
-3.02069
-3.8623
-3.48391
-3.73066
-4.04766
-4.37379
2.98394
4.09011
2.85674
2.4214
3.04685
5.0628
19.1658
16.8519
16.42
16.0786
15.1564
14.7561
-6.52213
-7.96264
-7.54609
-7.50188
-7.75374
-8.01894
38.6329
33.1975
34.2494
27.7579
26.372
31.6012
21.7794
20.8968
22.5939
19.4169
19.3696
20.9277
-4.06423
-4.50976
-3.88987
-5.17227
-4.93253
-4.69493
137.618
69.1338
83.1635
61.8114
58.6006
64.2115
117.614
7.59702
21.2122
8.667
5.89736
15.5926
41.6625
-13.4952
-20.6754
-18.2917
-19.0596
-20.0705
3906.57
9198.09
7783.7
7157.83
8337.18
7917.44
-66.2533
-81.3091
-72.8769
-63.8398
-62.6864
-62.8173
-34.0396
-43.8026
-44.1902
-41.1434
-41.9381
-44.6767
1089.38
1037.72
1030.9
1039.22
978.982
1033.41
558.218
278.491
140.34
129.689
97.5362
333.537
20.2697
11.5846
8.50181
8.83435
8.98986
9.92262
780.861
756.174
843.345
796.722
696.467
655.724
531.477
503.124
544.386
661.086
613.262
418.422
77.9437
28.8349
32.9604
111.761
93.934
24.5145
1301.24
3053.78
1611.66
1141.32
2151.77
1943.33
1696.42
1767.11
1573.48
1466.08
1505.02
1463.76
263.898
115.051
178.493
242.722
160.113
149.81
6750.75
10527.6
7688.49
6421.45
9183.78
8815.48
653.352
1288.28
678.297
492.948
434.531
682.764
-40.2617
-41.6991
-40.839
-40.2852
-38.4575
-37.5824
10483.2
10448.9
10570.5
10412.6
10242.9
10109.4
27.9402
860.863
-5.89896
-11.52
-12.643
-16.6346
-25.8509
-19.2639
-19.8285
-21.1931
-18.8681
-19.6427
6928.24
10211.9
10449.9
10181.6
10153.9
10050.2
-9.54545
1127.02
-23.7604
-13.9664
1.2106
-18.9518
-13.3818
-7.44878
-16.2064
-19.3975
-21.8355
-20.6594
0.616058
0.516895
0.711615
0.709774
0.477944
0.81711
0.323212
0.384719
0.728853
0.414123
0.459108
0.574755
-0.28573
-0.284948
-0.170425
-0.247845
-0.284173
-0.263519
0.476585
0.277048
0.0788614
0.234105
0.579108
1.06975
-0.0637434
-0.11342
-0.173192
-0.0350172
0.0817109
0.266651
-0.701042
-0.749475
-0.674005
-0.68916
-0.703162
-0.628431
-0.10367
0.140549
0.218716
0.274308
0.387664
0.670772
-0.238004
-0.235082
-0.213329
-0.182703
-0.117244
-0.0232625
-0.886869
-0.921365
-0.846329
-0.859709
-0.846527
-0.784539
-2.04271
-1.00136
-0.667985
-0.610735
-0.749963
-0.85906
-0.889455
-0.713921
-0.64187
-0.635845
-0.681519
-0.758118
-1.08942
-1.16538
-1.09772
-1.09067
-1.07934
-0.970534
-3.31298
-2.17168
-1.07821
-0.824134
-1.3132
-1.11341
-1.00415
-0.722724
-0.39083
-0.345084
-0.476363
-0.556454
-0.771226
-0.96688
-0.952868
-0.902719
-0.780728
-0.511755
-2.97748
-3.33412
-0.589845
0.355946
-0.586852
0.827627
0.178246
0.551915
0.862169
1.1225
0.971706
1.31773
0.320363
0.0189744
-0.307473
-0.202128
0.0989927
0.548616
1.68741
0.89894
2.23095
3.92076
2.03486
4.7715
4.88836
5.24281
3.91909
3.67126
3.27258
4.19645
1.10508
0.85061
0.183509
0.191422
0.354458
0.63915
7.56283
3.35068
5.4081
6.91839
6.9772
8.83698
5.66093
5.7178
6.41802
7.28553
8.10512
8.37702
1.76514
2.10723
1.09751
0.94944
1.15944
1.24235
86.0046
15.4629
27.3319
93.3643
21.3554
11.5619
-1.24604
2.20841
5.06891
7.04715
3.99435
10.1698
-4.78852
-4.58866
-3.82618
-1.31252
-2.05322
-1.03411
124.991
42.4011
117.114
184.767
309.603
181.579
17.1026
11.3364
126.244
213.995
129.801
36.2676
-10.7757
-9.65076
25.435
165.865
-2.97836
-8.03654
208.309
548.518
301.318
149.953
573.864
861.206
84.0512
-8.03888
172.713
172.55
642.961
377.531
32.3266
-24.9604
21.0423
147.604
191.864
-25.1388
988.81
624.516
304.023
340.47
946.75
989.049
975.747
810.196
228.303
169.297
614.17
965.627
143.49
254.381
148.283
9.00058
7.76653
54.514
)
;

boundaryField
{
    seabed_topleft_surface
    {
        type            fixedFluxPressure;
        gradient        uniform 0;
        value           nonuniform List<scalar> 
72
(
10976.6
10984.8
10982.6
10952.9
10946.4
10966.3
11565.8
11580.8
11599.1
11584.2
11605
11602.1
12179.9
12175.7
12178.1
12185.3
12192.5
12181.6
12363.6
12364.8
12365.2
12363.8
12365.3
12362.8
12597.2
12597.5
12595.4
12593.7
12593.2
12588.1
12951.6
12951.7
12950.6
12948
12946
12944.3
13642.9
13644.5
13644.2
13642.5
13640
13642
14719.5
14723.1
14723.1
14724.2
14725.2
14721
16114.3
16091.6
16103.7
16101.6
16105.4
16104.1
17090.6
17094.7
17093.6
17083.2
17077.1
17098.1
18367.6
18364.9
18360.5
18363.2
18362.6
18358.4
17565.7
17466.5
17493.2
17544.4
17489.1
17483.5
)
;
    }
    seabed_topright_surface
    {
        type            fixedFluxPressure;
        gradient        uniform 0;
        value           nonuniform List<scalar> 
72
(
1131.54
1145.04
1138.42
1077.84
1001.99
937.122
1157.84
1161.86
1142.29
1114.81
1066.84
1017.51
1200.54
1199.97
1183.48
1182.46
1177.52
1141.87
1266.2
1249.79
1245.58
1259.25
1241.77
1250.87
1321.2
1294.06
1335.46
1322.37
1270.28
1288.25
1363.53
1355.26
1398.56
1367.14
1283.37
1286.06
1405
1363.86
1402.42
1397.62
1307.08
1289.99
1516.76
1394.87
1435.05
1417.95
1319.29
1325.76
1603.55
1524.92
1445.87
1341.08
1493.88
1498.99
1497.38
1658.08
1328.35
1202.86
1525.53
1692.71
1057.71
1200.95
1227.25
1157.81
1221.1
1308.3
1008.45
1032.52
1060.63
1066.55
1054.57
1090.73
)
;
    }
    breakwater_top_surface
    {
        type            fixedFluxPressure;
        gradient        uniform 0;
        value           nonuniform List<scalar> 
36
(
1089.38
1037.72
1030.9
1039.22
978.982
1033.41
780.861
756.174
843.345
796.722
696.467
655.724
1301.24
3053.78
1611.66
1141.32
2151.77
1943.33
6750.75
10527.6
7688.49
6421.45
9183.78
8815.48
10483.2
10448.9
10570.5
10412.6
10242.9
10109.4
6928.24
10211.9
10449.9
10181.6
10153.9
10050.2
)
;
    }
    breakwater_left_surface
    {
        type            fixedFluxPressure;
        gradient        uniform 0;
        value           nonuniform List<scalar> 
24
(
17565.7
17466.5
17493.2
17544.4
17489.1
17483.5
15951.7
15928.7
15920.8
15972.6
15923.4
15893.7
17375
17408.2
17395.2
17385.8
17392.7
17320.1
17863.3
17666.9
17428.5
17322.6
17250.6
17310.9
)
;
    }
    breakwater_right_surface
    {
        type            fixedFluxPressure;
        gradient        uniform 0;
        value           nonuniform List<scalar> 
24
(
1008.45
1032.52
1060.63
1066.55
1054.57
1090.73
798.438
854.81
797.846
750.5
697.19
748.746
588.807
847.491
626.177
473.854
502.859
670.917
471.301
664.233
374.931
322.223
528.237
490.613
)
;
    }
    water_front_surface
    {
        type            fixedFluxPressure;
        gradient        uniform 0;
        value           nonuniform List<scalar> 
186
(
10976.6
11565.8
12179.9
12363.6
12597.2
12951.6
13642.9
14719.5
16114.3
17090.6
18367.6
17565.7
6070.56
6186.39
5838.19
6070.84
6398.56
6992.43
8041.04
10409.6
15705.3
17768.4
19109.8
15951.7
-2.89981
-4.77262
-5.96164
-4.99861
-3.34183
-2.53078
1.6874
108.2
355.573
2703.55
16142.1
17375
7.39306
7.39799
7.58057
6.06069
5.01642
1.31853
-9.10452
1.18524
6.75481
52.0775
1613.7
17863.3
1131.54
1157.84
1200.54
1266.2
1321.2
1363.53
1405
1516.76
1603.55
1497.38
1057.71
1008.45
288.24
346.646
407.17
542.427
639.97
676.838
860.826
1690.98
1375.89
725.529
717.828
798.438
0.912907
0.516266
29.5433
37.6368
7.75982
2.95725
7.95475
22.1232
166.081
1015.35
795.63
588.807
1.72058
1.52218
1.48101
-0.0735287
-1.60154
-2.23691
0.668894
4.62051
41.4123
142.339
639.031
471.301
1.28971
7.42778
0.582402
-2.66688
-0.539975
-5.01742
-1.36486
-0.558476
-4.68656
-1.56197
-1.42348
-5.10224
-1.43824
-1.77389
-5.30535
-1.91515
-2.46345
-5.47363
-0.848664
-2.40561
-5.64337
-2.18964
-3.54773
-3.02069
2.98394
19.1658
-6.52213
38.6329
21.7794
-4.06423
137.618
117.614
41.6625
3906.57
-66.2533
-34.0396
1089.38
558.218
20.2697
780.861
531.477
77.9437
1301.24
1696.42
263.898
6750.75
653.352
-40.2617
10483.2
27.9402
-25.8509
6928.24
-9.54545
-13.3818
0.616058
0.323212
-0.28573
0.476585
-0.0637434
-0.701042
-0.10367
-0.238004
-0.886869
-2.04271
-0.889455
-1.08942
-3.31298
-1.00415
-0.771226
-2.97748
0.178246
0.320363
1.68741
4.88836
1.10508
7.56283
5.66093
1.76514
86.0046
-1.24604
-4.78852
124.991
17.1026
-10.7757
208.309
84.0512
32.3266
988.81
975.747
143.49
)
;
    }
    water_back_surface
    {
        type            fixedFluxPressure;
        gradient        uniform 0;
        value           nonuniform List<scalar> 
186
(
10966.3
11602.1
12181.6
12362.8
12588.1
12944.3
13642
14721
16104.1
17098.1
18358.4
17483.5
6020.94
6146.59
5782.57
5978.1
6309.79
6942.67
8035.66
10437.8
15712.8
17782.3
19128.1
15893.7
-2.78513
-4.72169
-5.84059
-4.91899
-3.34457
-2.70393
1.68709
108.983
353.848
2833.61
15898.5
17320.1
7.41028
7.46186
7.62981
6.20398
5.20242
1.51306
-8.83228
1.28718
5.72465
34.4142
835.12
17310.9
937.122
1017.51
1141.87
1250.87
1288.25
1286.06
1289.99
1325.76
1498.99
1692.71
1308.3
1090.73
65.7084
177.013
355.834
545.384
595.942
513.835
435.77
419.753
662.088
1278.54
1353.14
748.746
2.95988
1.24362
0.441381
-1.24892
-0.158449
4.82111
10.9781
17.0522
30.3475
145.052
882.722
670.917
4.15059
3.06173
1.81685
-0.652345
-1.97844
-0.196889
4.69095
9.54543
22.3861
97.7559
693.254
490.613
-0.933185
5.75898
1.30673
-2.63187
-0.758005
-5.32341
-1.3361
-0.577728
-4.72881
-1.51807
-1.44031
-5.1479
-1.418
-1.76491
-5.32684
-1.97386
-2.46557
-5.55225
-0.873505
-2.26053
-5.74516
-1.03998
-1.78254
-4.37379
5.0628
14.7561
-8.01894
31.6012
20.9277
-4.69493
64.2115
15.5926
-20.0705
7917.44
-62.8173
-44.6767
1033.41
333.537
9.92262
655.724
418.422
24.5145
1943.33
1463.76
149.81
8815.48
682.764
-37.5824
10109.4
-16.6346
-19.6427
10050.2
-18.9518
-20.6594
0.81711
0.574755
-0.263519
1.06975
0.266651
-0.628431
0.670772
-0.0232625
-0.784539
-0.85906
-0.758118
-0.970534
-1.11341
-0.556454
-0.511755
0.827627
1.31773
0.548616
4.7715
4.19645
0.63915
8.83698
8.37702
1.24235
11.5619
10.1698
-1.03411
181.579
36.2676
-8.03654
861.206
377.531
-25.1388
989.049
965.627
54.514
)
;
    }
    water_left_surface
    {
        type            fixedFluxPressure;
        gradient        uniform 0;
        value           nonuniform List<scalar> 
42
(
10976.6
10984.8
10982.6
10952.9
10946.4
10966.3
6070.56
6054.05
6034.28
6063.13
6069.07
6020.94
-2.89981
-2.69807
-2.74051
-2.8964
-2.93362
-2.78513
7.39306
7.36325
7.36163
7.40316
7.5139
7.41028
1.28971
0.696405
0.985786
1.13859
1.31087
-0.933185
7.42778
3.67564
2.55212
6.66035
7.97539
5.75898
0.582402
-4.46625
-4.11815
-4.6456
0.099248
1.30673
)
;
    }
    water_right_surface
    {
        type            fixedFluxPressure;
        gradient        uniform 0;
        value           nonuniform List<scalar> 
42
(
1131.54
1145.04
1138.42
1077.84
1001.99
937.122
288.24
320.692
347.341
247.869
123.676
65.7084
0.912907
0.702024
1.12069
0.299695
1.06815
2.95988
1.72058
1.02176
0.707897
1.57274
3.0925
4.15059
0.616058
0.516895
0.711615
0.709774
0.477944
0.81711
0.323212
0.384719
0.728853
0.414123
0.459108
0.574755
-0.28573
-0.284948
-0.170425
-0.247845
-0.284173
-0.263519
)
;
    }
    water_top_surface
    {
        type            totalPressure;
        rho             rho;
        psi             none;
        gamma           1;
        p0              uniform 0;
        value           nonuniform List<scalar> 
180
(
0
-2.23071
-1.90417
-2.0101
0
0
-4.94708
-4.71973
-4.76153
-4.81019
-5.14093
-5.24285
-4.16186
-4.15606
-4.16434
-4.17018
-4.19904
-4.21282
-5.1309
-5.13068
-5.13937
-5.14724
-5.17583
-5.18956
-5.67089
-5.6882
-5.68498
-5.68803
-5.69502
-5.70615
-6.45592
-6.47994
-6.46797
-6.4808
-6.488
-6.49335
-6.76536
-6.9844
-6.89354
-6.95337
-6.92924
-6.9396
-7.16182
-7.86796
-7.40823
-7.2572
-7.40761
-7.72475
-4.22191
-10.4739
-5.31691
-4.23923
-6.32141
-8.22436
0
0
0
0
0
0
0
0
0
0
0
0
-0.313039
0
0
0
0
0
0
0
0
0
0
0
0
0
0
0
0
0
0
0
0
0
0
0
-4.186
-19.4676
-10.4308
-11.81
-16.2755
-13.257
-12.902
-27.782
-12.3938
-12.1083
-4.58202
-8.43891
-8.5434
-10.3795
-0.0263023
0
0
0
-0.607387
-0.59398
-0.306928
-0.591308
-0.688877
-0.634526
-1.18267
-1.2382
-1.28375
-1.28509
-1.19889
-1.10117
-1.21746
-1.2999
-1.38724
-1.38697
-1.30689
-1.23532
-1.26662
-1.40979
-1.53621
-1.61156
-1.60741
-1.43343
-0.889613
-1.15192
-1.34216
-1.49626
-1.4838
-1.01991
-0.404371
-0.82937
-1.08575
-1.35079
-1.2725
-0.592422
-0.00481697
-0.366369
-0.773664
-0.934508
-0.878963
-0.213711
0
-0.486247
-0.854376
-1.12157
-0.836487
-0.129299
-3.99449
-6.28887
-4.12115
-6.06104
-4.20965
-0.642698
-3.45297
-1.27439
0
0
0
-0.521457
0
0
0
0
0
-0.543069
0
0
0
0
0
0
)
;
    }
}


// ************************************************************************* //
