/*--------------------------------*- C++ -*----------------------------------*\
| =========                 |                                                 |
| \\      /  F ield         | OpenFOAM: The Open Source CFD Toolbox           |
|  \\    /   O peration     | Version:  v1612+                                |
|   \\  /    A nd           | Web:      www.OpenFOAM.com                      |
|    \\/     M anipulation  |                                                 |
\*---------------------------------------------------------------------------*/
FoamFile
{
    version     2.0;
    format      ascii;
    class       surfaceScalarField;
    location    "9.85";
    object      phi;
}
// * * * * * * * * * * * * * * * * * * * * * * * * * * * * * * * * * * * * * //

dimensions      [0 3 -1 0 0 0 0];

internalField   nonuniform List<scalar> 
2916
(
-0.0101585
-0.209761
0.21992
0.00519534
-0.231818
0.216464
0.0319663
-0.238562
0.211791
0.013154
-0.198514
0.217327
-0.0318484
-0.178769
0.223772
-0.238498
0.20665
0.00167544
-0.356391
0.144955
-0.00231487
-0.369169
0.141342
-0.00949309
-0.371641
0.140258
-0.0048574
-0.353388
0.150238
-0.00220753
-0.341664
0.160245
-0.378793
0.138087
0.00263001
-0.34746
-0.0115619
-0.00271037
-0.354683
-0.00914577
-0.0113791
-0.354539
-0.00843418
-0.00559968
-0.348037
-0.0111312
0.0033285
-0.343012
-0.00758081
-0.36606
-0.00940389
0.00117744
-0.30205
-0.0465871
-0.000800288
-0.308045
-0.0446605
-0.00490399
-0.308099
-0.0423363
-0.0029956
-0.304224
-0.0457214
0.00137073
-0.301666
-0.0457123
-0.321513
-0.0431769
0.000928168
-0.258162
-0.0448161
5.47575e-05
-0.263668
-0.0435032
-0.00192591
-0.264294
-0.0418237
-0.000978669
-0.259871
-0.0452998
-1.39509e-05
-0.256869
-0.0457613
-0.277082
-0.0444446
0.000993228
-0.21604
-0.0431155
0.000417121
-0.220928
-0.0421637
-0.000328556
-0.222008
-0.0415409
0.000137091
-0.216273
-0.0440637
-0.00097511
-0.211287
-0.0444697
-0.232947
-0.0451102
0.00182287
-0.202934
-0.0149287
0.000659208
-0.205189
-0.0145758
0.000655831
-0.207441
-0.0145632
8.45271e-05
-0.200004
-0.0156974
-0.0023429
-0.192718
-0.0161415
-0.217069
-0.0182211
0.002367
-0.18592
-0.0193812
0.000582096
-0.184213
-0.0191906
-0.00131454
-0.186052
-0.019492
-0.000884599
-0.181836
-0.0185984
0.00133111
-0.178155
-0.0167785
-0.19205
-0.0236878
-0.000411622
-0.0885752
-0.0969329
0.000678135
-0.0927684
-0.0925347
0.00086816
-0.0919416
-0.0943008
-0.00230366
-0.0865369
-0.0921269
-0.00316562
-0.0873948
-0.0898987
-0.0961377
-0.0990775
-0.00655008
-0.137959
0.0559338
0.00224635
-0.159821
0.0582561
0.00709072
-0.155972
0.0591858
0.000540108
-0.13466
0.054674
-0.00953967
-0.129186
0.0518708
-0.163608
0.0579307
-0.0037586
-0.18696
0.0527593
0.00512359
-0.211918
0.0432147
0.00706306
-0.206142
0.0482309
0.00267831
-0.184017
0.0537414
0.00161835
-0.177496
0.0493698
-0.212096
0.0501058
0.0332562
-0.220216
0.0058769
-0.184539
-6.45217e-05
-0.200201
0.0209741
-0.205056
0.0137168
-0.170239
-0.198379
-0.00855177
-0.139768
0.368239
-0.0281197
-0.0997068
0.335739
-0.052336
-0.102724
0.338731
-0.0282232
-0.175505
0.368719
0.0231799
-0.19738
0.369749
-0.109641
0.339471
0.00121659
-0.076032
0.0800022
0.00331997
-0.0438835
0.083415
0.00668628
-0.0480104
0.0821779
0.00581386
-0.0803081
0.0559134
0.0122167
-0.0837069
0.040169
-0.0476189
0.0882815
0.0174411
0.0551187
-0.160154
0.00649875
0.0796215
-0.121709
0.00336195
0.0709034
-0.124211
0.0155569
0.0622992
-0.165933
0.0354329
0.0699864
-0.18115
0.0842693
-0.105859
0.0151557
0.280311
-0.286935
0.011236
0.293543
-0.254662
0.00829484
0.286513
-0.255004
0.0185559
0.292186
-0.285869
0.0311712
0.304454
-0.292795
0.309324
-0.237061
0.00898216
0.545673
-0.31916
0.00673572
0.553101
-0.300815
0.00142561
0.550044
-0.300045
0.0117032
0.555251
-0.318642
0.0265587
0.562554
-0.318717
0.578122
-0.286684
0.00361905
0.768564
-0.269626
0.00114057
0.773779
-0.260363
-0.00549132
0.774363
-0.259228
0.00368664
0.77405
-0.272041
0.0174502
0.775822
-0.271501
0.802734
-0.252272
0.00164184
0.900802
-0.148808
-0.00154511
0.904502
-0.142112
-0.00947774
0.907502
-0.139769
-0.00333047
0.90105
-0.148845
0.01144
0.894708
-0.149798
0.932628
-0.136675
0.00208676
0.891507
-0.0121732
-0.000735892
0.89323
-0.0050959
-0.00725689
0.896598
-0.0020676
-0.00421449
0.887396
-0.007986
0.00845952
0.87845
-0.0131949
0.9148
0.00259983
0.00401653
0.706467
0.0840908
0.00251457
0.714843
0.0873546
0.00255511
0.713398
0.0888587
0.000634251
0.71048
0.0867094
-0.00315019
0.710947
0.0813894
0.717421
0.0951504
0.00353166
0.302745
0.456125
0.00265805
0.321039
0.452933
0.0118484
0.311855
0.451539
0.00169123
0.325504
0.449807
-0.0246166
0.33885
0.450275
0.30054
0.450195
-0.00226518
-0.0496035
0.407373
0.00844274
-0.0575414
0.411087
0.015638
-0.0623638
0.415255
-0.0033153
-0.0237929
0.421992
-0.0318722
-0.0129211
0.429698
-0.0832975
0.402072
0.0211651
-0.290984
0.00460943
-0.225524
-0.00590543
-0.25205
0.0152139
-0.249968
0.0217287
-0.189675
-0.259947
0.0031374
0.924431
-0.559329
-0.0045212
0.956827
-0.613428
-0.0513594
0.976908
-0.591338
-0.0435908
0.916896
-0.555945
0.0381365
0.907053
-0.619031
0.974549
-0.596942
0.00687295
2.33204
-1.33448
0.0205093
2.36284
-1.33623
-0.0107175
2.37898
-1.28867
-0.0255166
2.35498
-1.36737
0.0178558
2.36908
-1.46523
2.35999
-1.2793
-0.0130656
3.81365
-1.6287
0.016991
3.82139
-1.61032
0.0304995
3.83868
-1.59742
0.0115309
3.8545
-1.64649
0.0122403
3.86587
-1.67865
3.83379
-1.56742
-0.0174442
5.36046
-1.8163
-0.00660524
5.3482
-1.79231
0.00539073
5.35856
-1.78689
0.00244399
5.38413
-1.81255
0.0219918
5.38863
-1.8351
5.3639
-1.74518
-0.0151313
7.01864
-1.96221
-0.0175652
7.0012
-1.95139
-0.0146741
7.00533
-1.9497
-0.00755159
7.02213
-1.96377
0.0134858
7.02183
-1.97295
7.01229
-1.92158
-0.00521924
8.80282
-2.04858
-0.0135381
8.78153
-2.03237
-0.0211
8.78539
-2.03173
-0.00497087
8.78906
-2.0551
0.010329
8.78998
-2.05495
8.78938
-2.01903
-0.00845924
10.2386
-1.57611
-0.00422964
10.2076
-1.57237
-0.00602704
10.2189
-1.57148
0.00793016
10.2201
-1.59383
0.0120179
10.2218
-1.58574
10.2195
-1.55481
-0.0311236
8.60928
1.64825
0.0153674
8.62125
1.53472
0.0252552
8.61993
1.58702
-0.00545584
8.63366
1.60917
-0.0179761
8.69355
1.52762
8.57884
1.62531
0.0467868
3.64916
4.99742
0.0130564
3.7672
4.97514
0.0259459
3.73059
4.96531
0.00796268
3.76331
4.97504
-0.0526668
3.82378
5.01179
3.69953
4.9218
0.0584885
1.0482
2.99859
0.0184899
1.08956
3.17057
0.0206508
1.07986
3.10011
0.00321075
1.07702
3.15354
-0.0325878
1.09749
3.21236
1.0515
3.06563
0.0273697
0.200313
1.22789
0.0183187
0.133716
1.37599
0.00814966
0.132108
1.37317
-0.0164043
0.157497
1.36607
-0.0406561
0.163169
1.38827
0.0925606
1.32036
-0.0148003
-0.0758706
-0.00596626
-0.100643
-0.0143783
-0.11153
-0.0051906
-0.101659
0.0459403
-0.0776362
-0.121447
0.106918
-0.350531
-0.315715
0.0621106
-0.405163
-0.163457
-0.0855029
-0.395473
-0.0482506
-0.0441386
-0.373921
-0.223387
0.108346
-0.376935
-0.394579
-0.432907
-0.055689
0.046532
-0.258051
-1.47349
0.0130619
-0.257375
-1.45055
-0.00222293
-0.281909
-1.38694
-0.0131682
-0.269375
-1.46097
-0.0284655
-0.275107
-1.55176
-0.318657
-1.42202
-0.0116988
-0.460669
-1.41438
0.0197768
-0.456468
-1.4427
0.0419653
-0.465075
-1.43645
0.0295214
-0.475077
-1.42834
-0.0087199
-0.486153
-1.42936
-0.467126
-1.42767
-0.0130066
-0.672463
-1.5915
0.000133625
-0.659675
-1.60224
0.0138379
-0.665865
-1.5998
-0.00280866
-0.679412
-1.59157
-0.0390905
-0.682546
-1.60243
-0.668247
-1.58315
0.000287509
-0.827299
-1.80766
0.00317744
-0.797758
-1.81619
0.00155512
-0.800588
-1.81335
-0.0056393
-0.826738
-1.80925
-0.0246463
-0.821009
-1.81548
-0.810043
-1.80444
0.000488094
-0.683017
-2.19335
0.00789864
-0.651294
-2.18624
0.0108447
-0.649196
-2.18607
0.00168118
-0.6807
-2.19197
-0.0124802
-0.668388
-2.19342
-0.667241
-2.17431
-0.057421
0.667297
-2.869
0.0251292
0.560802
-2.86701
0.0522937
0.620543
-2.86838
0.0163429
0.645587
-2.88416
0.0694299
0.552236
-2.85945
0.686179
-2.8388
-0.132982
3.68409
-1.23556
0.0145675
3.47984
-1.53188
0.0428503
3.56747
-1.38819
-0.0507785
3.64731
-1.29893
-0.0212039
3.53943
-1.48915
3.63655
-1.34626
0.0528976
4.00828
4.62034
0.0684657
4.22877
4.21064
0.032554
4.23406
4.33463
-0.0117694
4.2945
4.37217
-0.0802084
4.2963
4.32336
4.30867
4.16947
0.385815
1.88379
4.73726
0.123215
2.6897
4.97224
0.125541
2.55097
4.78088
0.0479847
2.68648
4.83912
-0.0690848
2.71852
4.90721
2.65885
4.64637
0.486158
0.551755
2.07377
0.155554
0.82235
3.57394
0.142494
0.75846
3.17874
0.0267026
0.808345
3.35999
-0.0853223
0.825944
3.39287
0.768942
3.12495
0.197635
0.27825
0.0973863
0.821957
0.029387
0.714929
0.00921408
0.72686
0.00588958
0.751633
0.653385
-0.0490776
0.182749
-0.133672
0.10928
0.214678
-0.373036
0.328305
0.223505
-0.442531
0.244008
0.228171
-0.143874
0.137219
0.127772
-0.0209836
0.0798858
0.0573332
-0.00874069
0.371609
-0.180119
0.158222
0.395028
-0.347312
0.364335
0.360929
-0.343536
0.327064
0.281265
-0.0158221
0.198887
0.228184
0.027765
0.203285
0.0754884
0.0658422
0.488844
-0.183078
0.108027
0.606887
-0.254044
0.274242
0.447798
-0.253084
0.401586
0.221902
-0.0679817
0.187896
0.364094
0.0777802
0.313261
0.0779197
0.194068
0.504964
-0.210188
0.16959
0.825709
-0.194344
0.276609
0.441539
-0.100761
0.313648
0.222373
-0.0375096
0.0493778
0.625211
0.00315282
0.408044
-0.0454054
0.288946
0.520642
-0.304623
0.329385
0.937536
-0.152267
0.364066
0.27714
0.129718
0.0981261
0.310968
0.177345
-0.12542
0.86094
-0.012183
0.486772
-0.204148
0.393987
0.616415
-0.489761
0.445873
0.983718
-0.0980679
0.0948958
0.105036
0.523082
-0.178388
0.337094
0.247158
-0.231378
0.965522
-0.0515913
0.560554
-0.305159
0.503419
0.84217
-0.729173
0.613257
1.00525
-0.131374
0.415462
0.128438
0.174393
-0.00877168
0.702025
0.0593022
-0.212358
1.19015
-0.021041
0.689214
-0.341018
0.591194
1.22533
-0.974353
0.625373
1.18574
-0.214661
0.376624
0.442986
-0.0658002
-0.217616
1.40027
-0.104008
-0.344053
1.5361
-0.21951
0.864709
-0.519548
0.283264
1.57805
-0.635982
0.523233
1.56052
-0.614753
0.009351
1.01223
-0.0553573
-1.04415
1.89139
0.562377
-0.639434
1.95495
-0.823568
1.14227
-0.916992
-0.487455
1.82899
0.236508
0.181708
1.88774
-0.996382
-0.258649
1.21218
0.240397
-1.94391
1.35858
2.21808
-1.13589
1.71308
-0.566139
1.08502
-1.07864
-1.64728
1.53912
1.93715
-1.09659
1.84739
-0.510334
-0.539864
0.769214
-0.113751
-1.33402
0.492174
1.66056
-0.843611
0.90191
0.320757
0.834227
-0.592822
-0.417273
1.95639
-0.0606313
1.49074
-0.0564873
0.765068
-0.241184
0.67687
-0.32082
0.981546
0.513408
-0.492961
0.0021577
0.357132
-0.0863267
0.050307
-0.829977
0.639466
0.0430034
-1.21133
1.13222
-0.0231103
-0.613519
0.777845
-0.0827982
0.416192
-0.115952
0.951131
-0.754131
0.182425
0.393745
-0.326145
0.297
-1.02199
0.298472
0.108783
-1.03393
0.997063
0.0338259
-0.771349
1.12271
0.0349783
-0.215659
0.0227206
1.05953
-0.439725
0.363774
0.0752991
-0.309575
0.375531
-0.462725
-0.138098
0.111646
-0.427424
0.513302
0.104658
-0.790214
1.066
0.22269
-0.662629
0.257567
0.909072
-0.438454
0.605536
-0.0134963
-0.441587
0.48745
-0.303129
-0.0462542
0.285486
-0.669934
0.578974
0.291326
-0.849406
1.08798
0.498578
-0.781742
0.551765
0.748377
-0.670293
0.83545
0.135756
-0.400673
0.709057
-0.643494
0.474425
0.52664
-0.986534
0.981843
0.585408
-0.624155
0.953696
0.770508
-0.255967
0.766541
0.534772
-0.484065
1.08228
-0.25253
0.0535704
0.840056
-0.766702
0.48061
0.58402
0.038662
0.940948
0.806501
-0.434273
0.81149
0.953693
-0.105319
0.86443
0.408442
-0.137835
1.31371
-0.82276
0.191579
0.937284
-0.558017
0.264546
0.797858
-0.112411
0.916778
1.16629
-0.952714
0.844606
1.12931
-0.12449
1.00134
0.366675
-0.110154
1.47505
-1.02554
-0.241268
1.28643
-0.432694
-0.0175915
1.30614
-0.797762
1.06798
1.85834
-1.88163
0.918173
1.47912
-0.419507
1.27543
0.124537
-0.386073
1.28744
-0.0622985
-0.42018
1.99826
-1.29247
-0.0047947
1.84924
-1.01384
0.281858
2.14697
-0.012905
0.3911
2.08616
-1.53985
1.72851
-0.97897
0.253739
1.19634
0.0738727
0.155342
2.35645
-1.25617
0.146006
1.82688
0.2721
-0.135954
1.39232
3.25468
-0.209109
1.9774
-0.384225
1.93896
-1.49821
0.402225
1.1361
1.59516
0.983629
2.02274
-0.758025
0.933058
1.2824
0.481291
-0.496145
0.205424
4.27666
-0.691126
0.975677
1.51746
1.65611
-1.00109
0.255443
2.83705
2.19001
1.57891
1.908
2.32949
-0.365318
3.15561
-1.23747
2.82938
0.93205
0.362084
-0.0205639
0.0156116
0.26727
0.154946
-0.890106
-0.538509
0.0425829
-0.448128
-1.08688
-0.0342496
-0.030894
-0.76474
0.0330555
0.0609965
0.0314609
0.154931
0.0565891
0.282619
0.0339745
-0.132687
0.66303
-1.3408
-0.519273
0.561516
-1.16628
-0.703744
0.481324
-1.10245
-0.41953
0.461809
-0.928624
0.340832
0.330627
0.190364
0.847821
-0.680265
0.106585
1.28459
-1.00051
-0.083825
1.08195
-0.75745
-0.177082
1.05691
-1.27255
-0.0231101
1.04064
-1.39543
0.963946
0.262847
0.136765
1.38101
-0.683449
0.219841
1.59037
-0.691981
0.234954
1.45345
-1.05655
0.249722
1.52753
-1.33479
0.273696
1.58205
-1.34713
1.47615
0.509872
-0.41973
1.80925
0.127247
-0.285714
1.72654
-0.913686
0.298054
1.47708
-1.59394
0.586145
1.79771
-1.18243
0.649536
1.95736
-0.694675
1.70394
0.956517
-1.26309
2.44195
0.377853
-0.948876
1.83345
-1.18782
0.304681
1.27425
-1.01206
0.8601
1.79092
-0.982899
0.915966
2.05986
-0.263684
1.82611
1.20223
-1.35146
2.57303
0.397621
-1.27154
2.15399
-0.95848
-0.0023219
1.16551
-1.27289
0.878171
1.43085
-1.47314
1.11187
1.99805
-0.296376
2.0595
1.24515
-0.225904
0.786865
0.986526
-0.482738
2.21398
-0.23585
0.183504
1.47225
-1.77075
0.692805
1.62757
-2.58766
0.797163
1.96444
-0.490258
1.9014
1.0798
-0.382366
0.225723
0.881209
-0.18776
2.00035
-1.27345
0.230713
2.23239
-2.19245
0.498736
1.85904
-0.512392
0.125382
2.15939
-1.36144
1.39039
-0.342577
-0.260967
0.811202
-0.250639
-0.585413
2.02961
-0.960987
-0.805091
1.7527
0.971469
0.102832
0.410256
3.79554
0.463954
0.681632
0.73241
1.21949
-0.86335
1.15674
0.650224
0.5994
0.73348
1.89199
-0.197152
-0.113079
1.01926
2.0613
-0.385619
-1.2674
6.22685
0.237263
-0.819941
2.39616
1.08566
-0.630001
0.615007
2.87227
2.51761
1.5683
2.38882
3.47753
-0.712905
4.98994
-0.752911
2.04944
1.2648
0.447466
0.0623721
-0.494225
0.187606
0.0809799
-0.711224
-0.492981
-0.159798
0.39226
-0.71326
-0.0561588
0.245546
-0.366965
0.211394
-0.496692
0.147412
-0.359445
0.514857
0.322011
-0.74052
0.282943
0.119551
-1.14745
-0.273066
0.189833
-0.959897
-0.751272
0.277302
-0.957704
-0.772067
0.339283
-1.03572
0.273665
-0.567693
-0.127839
0.757266
-0.98768
-0.161419
0.349654
-1.19703
-0.0904567
0.366916
-1.00549
-0.262438
0.275404
-1.09867
-0.574973
0.43639
-1.18
0.727166
-0.765627
-0.430495
1.37376
-0.869451
-0.324819
0.771484
-1.21949
-0.121522
0.378652
-1.27158
-0.14049
0.278622
-1.31904
-0.386937
0.668125
-1.33242
1.28251
-0.432411
-0.324168
1.83477
-0.00959579
-0.488067
1.20027
-1.17858
-0.397943
0.302845
-1.60826
-0.187252
0.350895
-1.46539
-0.130728
0.971365
-1.05444
1.43205
0.676257
-0.295629
1.64644
0.86181
-1.04131
1.67974
-0.921615
-0.56677
0.56534
-1.7491
-0.150471
0.490613
-1.53892
0.066528
1.26802
-0.777335
1.344
1.35681
0.133453
0.368683
1.54193
-0.765165
1.62224
-0.0023614
-0.582894
0.659033
-1.54886
-0.184715
0.317699
-1.6984
0.152782
1.34912
-0.714977
1.26254
1.47939
0.411011
-1.11348
2.05768
0.325036
0.650586
0.821782
-0.301886
0.935554
-1.42035
-0.995484
0.568352
-2.14471
-0.684317
0.982694
-0.434999
0.572131
1.08589
0.100932
-0.735482
0.402275
-0.0532174
0.872068
-1.34078
-0.713253
1.33287
-1.92973
-0.101115
0.745532
-1.30171
0.453173
0.614154
-1.54719
0.442216
0.240511
-0.738519
0.156844
-0.404446
-1.88706
1.537
-0.477378
-1.71847
0.638814
1.49694
-0.22973
-1.32608
4.37841
0.877379
-1.45172
1.69118
0.506898
-0.0506525
0.52452
0.154921
0.0768052
-0.587344
1.38402
1.06769
-1.96484
0.235436
3.84217
-0.976759
-2.38594
6.29864
0.47355
-2.03962
1.53374
0.318574
0.0318736
1.58087
1.44632
2.4976
2.03559
2.04923
4.16134
0.111121
4.54211
-0.344147
0.465096
1.23923
0.0515418
-0.262912
-0.104344
0.0776962
-0.0726007
-0.117009
0.022923
0.138183
-0.13166
0.105983
-0.188792
-0.117655
0.172814
-0.320585
-0.140825
0.311033
-0.193908
-0.534285
0.173535
0.097839
-0.104275
-0.751255
0.248645
0.404217
-0.63281
0.2625
0.733267
-0.718533
0.200691
0.339686
0.0088737
0.0641223
0.608153
0.0425651
-0.481992
-0.0842431
-0.0922381
0.031577
0.310961
0.0483867
0.691427
0.0166929
0.327959
-0.116782
-0.110827
0.0473975
-1.80147
0.176235
0.0313719
-1.74983
0.19829
0.0246734
-1.70777
0.195866
0.0260007
-1.76292
0.18296
0.00039465
-1.82861
0.161625
-1.78785
0.172314
-0.0654073
-1.69979
0.0615675
0.00177774
-1.65732
0.0889526
0.119287
-1.65354
0.0907514
0.152158
-1.67124
0.0761378
0.0678812
-1.72242
0.0422035
-1.72652
0.04912
-0.0549294
-0.0138944
-0.00835393
0.0027045
0.0613316
0.00695206
0.103155
-0.00516567
0.044109
-0.0312574
-0.0274095
0.0031635
-1.54868
0.307367
0.00309855
-1.56091
0.316563
0.0114978
-1.56296
0.313978
0.0138394
-1.55629
0.30856
-0.00327979
-1.54957
0.298953
-1.55887
0.300225
-0.00260547
-1.54267
0.0581581
0.00445643
-1.54384
0.0648119
0.0133224
-1.54511
0.0640312
0.0187413
-1.54422
0.0586462
0.010735
-1.54432
0.0449521
-1.54679
0.0477785
-0.00364256
0.0229097
0.000743678
0.0291713
0.00960319
0.0291626
0.0121643
0.0254595
0.00247743
0.0170004
0.0136423
0.00244714
-1.74029
0.453709
0.00474919
-1.74254
0.454551
0.00911618
-1.74414
0.453947
0.0112496
-1.7408
0.455653
-0.00369419
-1.74373
0.455197
-1.73808
0.451464
0.000146766
-1.74334
0.0610591
0.0048342
-1.74347
0.0610524
0.00868245
-1.74422
0.060261
0.0118012
-1.74528
0.0600066
0.00519625
-1.74988
0.0577108
-1.74621
0.0611067
-0.00145653
0.0251916
0.00181322
0.0265282
0.00628211
0.0260127
0.00780245
0.0255956
0.00217661
0.0245349
0.0236988
0.00470011
-1.86777
0.509118
0.00390212
-1.87412
0.513273
0.00829792
-1.87226
0.508457
0.00659603
-1.87
0.518101
0.000856578
-1.87088
0.516334
-1.86917
0.517055
0.00359213
-1.83074
0.0204387
0.00108843
-1.83512
0.0245603
0.00179612
-1.83333
0.0206284
0.00276179
-1.83439
0.0234385
0.00346064
-1.83577
0.0218941
-1.83443
0.029823
0.00181868
0.0237089
0.000766185
0.0263295
0.00182276
0.0250063
0.00144783
0.0254804
-0.000394016
0.0256643
0.0256841
-0.000864784
-2.08016
0.396792
0.00110834
-2.08019
0.405249
0.00667255
-2.08141
0.398236
0.0041074
-2.07825
0.406937
0.000236502
-2.08076
0.407541
-2.07463
0.417605
-0.00184962
-1.98837
-0.0695014
-0.000248731
-1.98811
-0.0691156
0.00570059
-1.98717
-0.0795661
0.00830362
-1.98892
-0.0684902
0.00196597
-1.98967
-0.0628568
-1.98588
-0.0569513
0.00478529
-0.0205835
0.00167327
-0.00605179
0.00415469
-0.0137515
0.00550786
-0.01189
0.00368847
-0.008125
-0.00159468
0.0308551
-2.15265
-0.350408
0.0149423
-2.18777
-0.25808
0.0143975
-2.18017
-0.289425
0.0295168
-2.18249
-0.309849
0.0572334
-2.17089
-0.308733
-2.14889
-0.21507
0.00510965
-1.94871
-0.278558
0.00261237
-1.9825
-0.271886
0.0252502
-1.97325
-0.309125
0.0280099
-1.98115
-0.272597
0.0228896
-1.97311
-0.255514
-1.9702
-0.212757
0.0224868
0.00292691
-0.00152669
0.0625499
-0.00410366
0.0293796
0.00141443
0.023501
0.00310679
0.0357918
0.051728
-0.200349
-2.45721
1.07159
-0.00296838
-2.8647
0.877371
0.00780269
-2.64127
0.952884
-0.108071
-2.51709
1.02418
-0.201144
-2.68749
0.982684
-2.69541
0.932933
-0.14426
-2.03555
-0.555957
-0.0182811
-2.26902
-0.993548
0.0459413
-2.10417
-0.910441
0.0061386
-2.02785
-0.722031
-0.0566088
-2.09204
-0.788219
-2.16566
-0.799111
0.13748
-0.142169
-0.00324087
0.0665055
0.00939032
-0.0194909
0.0969254
-0.0430789
0.106129
0.00649304
0.110786
-0.307574
2.52682
3.47268
0.0735678
1.00089
3.70599
0.0355126
1.60867
3.71691
-0.267218
1.76935
3.92973
-0.390405
1.43959
3.98964
1.00595
3.70604
0.1962
-0.0208729
1.79554
0.214772
-1.51523
1.504
0.0439712
-0.688892
1.55792
-0.114704
-0.486078
1.69207
-0.149583
-0.93113
1.61738
-1.38728
1.44454
0.120952
1.36525
-0.197371
1.39552
-0.15157
1.08204
-0.0193495
0.990709
0.0377305
1.00724
1.01187
0.461018
6.27652
1.47241
0.182084
5.88791
3.06926
0.417851
5.73652
2.5255
-0.00257512
5.58492
3.60436
-0.463322
5.56114
3.79646
5.17581
2.71328
0.43909
5.72062
1.91235
0.204782
4.43034
3.19588
0.385371
4.2175
2.89635
-0.0444424
4.02116
3.68564
-0.430039
3.70218
3.86194
3.13535
3.05496
0.64442
2.18648
0.416215
3.61828
0.328563
3.19533
-0.0346034
3.34617
-0.240913
3.37915
3.03457
0.96475
3.59595
-1.01452
0.679709
6.82848
0.0997612
0.412113
6.3138
-0.341964
0.165922
6.60891
0.60163
0.0456673
6.59008
0.719508
6.17066
-0.286767
0.793308
4.88292
-0.167928
0.787223
7.79166
2.23879
0.536182
7.50331
1.95789
0.244207
7.36509
3.22144
-0.0493555
7.18742
3.55816
6.94244
2.23383
0.219223
0.411707
0.406026
3.54063
0.408594
3.62178
0.200231
4.08175
-0.0317874
4.33449
3.72103
0.117458
-1.47976
0.626033
0.201726
-0.703003
1.54045
0.163072
-0.875415
1.28703
0.0471145
0.307162
1.13729
-0.0481556
0.233241
1.33317
-0.952553
1.27101
-0.100029
-1.98771
0.440047
-1.37158
1.24422
1.5631
-1.13147
0.819642
0.0227298
0.0705319
2.28423
0.042366
-0.118832
2.35026
1.63051
0.929266
0.233181
-0.924187
-0.0893304
-0.738186
1.14983
-0.91452
1.54798
0.0937084
2.10407
0.403982
3.03715
2.0676
0.178493
0.453753
-0.940779
0.308533
0.327782
0.621221
-0.971576
0.201066
0.291012
0.584793
-1.03084
0.48282
0.103273
0.540425
-1.16494
0.812257
-0.192408
0.702823
-1.43267
1.02553
0.527055
-1.07557
0.356105
0.533241
1.15149
-1.04579
-0.185182
0.638252
1.38724
-1.35593
0.484905
0.36125
1.34861
-1.36011
0.873287
-0.0500231
1.46256
-1.50038
0.989521
-0.448364
1.60389
-1.5878
1.08508
1.37237
-1.18591
-0.107764
0.586259
-0.435766
-0.456944
0.518774
-0.773804
0.652603
0.138626
-0.799487
1.0406
-0.161313
-0.803977
0.791927
-0.31033
-0.651026
0.523804
-0.129097
-0.424432
0.137946
0.903969
-1.98269
0.15442
0.867974
-1.85602
0.149295
0.877145
-1.90286
0.17203
0.816881
-2.00456
0.0303171
0.862895
-2.15385
0.977863
-2.02311
0.234771
1.71003
-2.08662
0.213754
1.56301
-2.02995
0.152206
1.55694
-1.97835
0.0479566
1.47311
-2.05236
-0.10415
1.42121
-1.99401
1.55641
-1.86861
0.149857
-1.47038
0.055669
-1.29216
-0.00291711
-1.23715
-0.199113
-1.50069
-0.336095
-1.37772
-0.952305
-0.0135052
0.57551
-2.5447
0.142637
0.261146
-2.27331
0.16878
0.505889
-2.4349
0.0733348
0.575205
-2.48432
0.0251312
0.306457
-2.41211
0.446088
-2.44407
-0.0471299
1.03075
-2.49473
0.124884
0.63876
-2.57958
0.172469
0.826951
-2.347
0.0579135
0.903775
-2.26638
0.00626255
0.682781
-2.31869
0.772745
-2.18901
-0.127976
-2.54454
0.0258478
-2.46668
0.0982686
-2.30693
-0.12916
-2.3948
-0.182978
-2.43723
-2.12124
-0.0123341
-0.215604
-2.31676
-0.0830071
-0.223449
-1.97919
-0.068035
-0.223926
-2.22594
-0.00614484
-0.274673
-2.27154
0.0362501
-0.402203
-2.0523
-0.25815
-2.14967
-0.335106
-0.583216
-1.79202
0.361643
-1.16331
-2.33647
0.275891
-0.873689
-1.61148
-0.122149
-1.04341
-1.0996
0.029494
-1.33228
-1.54025
-1.13497
-1.28269
-0.355638
-1.65839
-0.165112
-1.6776
-0.105684
-1.60238
-0.260467
-1.57506
-0.123122
-1.95121
-1.6388
0.0862873
-1.02412
-1.37893
-0.272243
0.0299436
-1.6506
-0.163364
-0.595881
-1.73894
0.0475739
-0.908159
-1.57432
0.0384999
-0.443835
-1.59939
-0.440923
-1.67025
-0.499331
-1.23208
-1.08473
0.894273
-1.44285
-2.25728
0.318498
-1.18183
-0.449759
-0.279773
-1.61146
0.201974
0.192471
-1.10047
-1.35586
-1.27625
-0.254897
-0.493204
-0.591335
-0.094479
-1.08109
-0.017188
-1.16097
-0.169161
-1.35487
-0.000483091
-2.16077
-1.50954
0.0976702
-0.850563
-0.269217
0.256737
-0.110195
-0.610928
0.0698645
-0.617091
0.0172646
-0.21362
-0.381969
-0.311999
-1.18325
0.204695
-0.954137
-0.266214
-0.567045
-0.0806667
-0.558295
0.0631711
-0.0828077
-0.340514
-0.466044
0.00525898
-0.0590949
0.0336945
0.0843552
-0.152544
-0.45818
0.1165
-0.414239
-0.583874
0.134346
-0.136865
0.0521998
0.0626861
0.183912
-0.262034
0.186805
0.0994876
-0.638125
0.225858
-0.408892
0.148935
-0.0373178
-0.554166
0.133304
-0.173784
-0.589197
0.141789
0.00399257
-0.236507
0.110931
0.0576212
-0.466174
0.150511
-0.0731884
-0.637676
0.13036
-0.593891
0.111811
-0.0225669
0.0654866
-0.0819276
0.0608267
0.0316616
0.0754388
0.0928664
0.0617989
0.0375834
0.0534162
0.0543039
0.08068
-0.842729
0.138029
-0.0544434
-0.971468
0.0934861
-0.169579
-0.900001
0.117926
-0.179357
-0.920281
0.159161
-0.189699
-0.971335
0.171817
-0.732331
0.123874
0.06686
-0.842391
0.0661062
0.0182704
-0.893096
0.112008
-0.0397548
-0.849024
0.11798
-0.0637612
-0.859641
0.113879
-0.124373
-0.882392
0.10203
-0.81993
0.0750379
-0.000457425
0.0559759
-0.0340123
0.0530114
0.00904086
0.0496306
0.0346521
0.0437604
0.00333295
0.0407892
0.0416064
-0.159451
-0.847362
0.157163
-0.166815
-1.07455
-0.0216277
-0.0906955
-0.964682
0.000994715
-0.063724
-0.983227
0.0167506
-0.0905466
-1.0278
0.0464362
-0.859149
0.126849
0.121429
-0.848413
-0.0542715
0.0326937
-0.888151
0.0143425
-0.0276689
-0.859234
0.0728943
-0.0723767
-0.894838
0.070199
-0.113805
-0.90733
0.0229934
-0.858178
-0.0397376
-0.00491072
0.0579224
-0.0345927
0.0679918
0.00456979
0.05257
0.0137693
0.0411541
-0.0149128
0.0376219
0.0197947
-0.297058
-0.841696
0.426467
-0.150916
-1.31317
-0.0740902
-0.0912405
-1.18751
-0.142748
-0.0586439
-1.17529
-0.1596
-0.101976
-1.26568
0.023032
-0.875769
0.468232
0.20477
-0.875925
-0.224813
0.0689389
-0.967321
-0.195674
-0.0447076
-0.950154
-0.0508177
-0.0933642
-0.996287
-0.0601488
-0.158927
-1.0413
-0.135829
-0.932078
-0.142357
0.0275626
0.0164055
-0.0178551
0.0557821
-0.00633246
0.039496
-0.0125497
0.0222622
-0.0493991
0.00291152
-0.0461676
-0.107601
-0.360626
0.885098
-0.0616859
-1.34913
0.0505451
-0.177991
-1.36143
-0.273272
-0.225187
-1.30692
-0.270878
-0.260714
-1.20644
0.210561
-0.0260573
0.909831
0.344842
-0.671107
-0.259174
0.134528
-0.959262
-0.375224
-0.127585
-0.963123
-0.187012
-0.331717
-0.990498
-0.172439
-0.482783
-1.01263
-0.178575
-0.64652
-0.00467867
0.107974
-0.0412088
0.01165
0.0148457
-0.0551391
0.0302209
-0.0964793
0.00865625
-0.151076
-0.0247009
-0.0727615
0.527869
0.479563
0.739477
0.230477
-0.88165
0.307973
-0.117182
-1.49973
-0.174979
-0.36878
-1.39579
-0.162402
-0.395624
-1.06289
0.522961
0.698965
1.17205
0.574114
-0.189195
-0.164531
0.470867
-0.83343
-0.320198
0.000759658
-0.994738
-0.221899
-0.445103
-0.967873
-0.154498
-0.718781
-0.907815
-0.0599742
-0.272637
0.248141
0.275555
-0.0231641
0.149496
0.00187014
-0.0676826
0.0498751
-0.174117
0.0350552
-0.2437
-0.00361066
-0.0035
1.02111
1.46809
-0.207788
0.948731
0.409439
-0.0314486
0.379101
-1.14935
-0.00485674
-0.209582
-1.19867
-0.0734494
-0.425708
-0.836747
0.860856
0.945453
1.28028
0.779753
0.617578
-0.0937777
1.0153
-0.292048
0.145745
0.317939
-0.867549
0.193657
-0.362462
-0.763249
0.0904785
-0.820401
-0.656963
0.218179
0.00485324
0.368339
0.367781
0.281616
0.300736
0.241993
-0.0283626
0.189189
-0.167435
0.154596
-0.235712
0.127051
0.124706
0.748292
1.9269
-0.825298
1.16384
0.810664
-0.435881
0.277919
-1.03738
0.498101
-1.05175
-1.40732
0.518823
-1.02359
-0.466798
0.864496
0.695516
0.647066
0.671405
0.91887
0.242844
1.13018
-0.159763
0.657401
0.286825
-0.876296
0.875924
-0.73444
-0.825672
0.530092
-0.855482
-0.459148
0.331572
0.150098
0.0582751
0.426551
0.692857
0.503687
0.534371
0.031116
0.497116
-0.221692
0.398579
-0.186779
0.341245
0.375366
0.322237
-0.500117
-0.245141
-0.34905
-1.47712
0.37174
-0.83219
-1.86388
0.915382
0.0467549
-1.99409
0.33226
0.197862
-1.12095
0.287153
0.80928
0.276158
0.0548578
-1.03902
0.72689
-0.251681
-1.73638
1.2232
-0.7193
-1.41571
0.89538
-0.361871
-1.66553
-0.155897
-0.613826
-1.02432
0.486894
0.306723
-0.0529927
0.286731
0.910743
-0.0371464
1.04944
-0.597431
1.21718
-0.613307
0.631936
-0.744459
1.02397
0.569456
-0.722237
-0.408357
0.481007
-2.24257
0.101869
1.31283
-2.02194
2.14895
0.0427473
-0.0997682
4.32608
-1.53758
0.975732
2.16309
-1.26025
0.431572
0.769665
-0.910139
-0.594181
1.82286
-1.66041
0.0497421
2.0256
-1.3988
2.71957
0.0631464
-0.0785655
4.5446
-1.69464
0.836383
1.81555
-0.0805178
0.201058
1.0139
-0.335321
2.163
-0.375832
2.09823
-0.670277
1.19352
-1.21337
-0.510163
-0.213366
1.16514
1.19942
0.0860567
0.169789
0.301966
-1.30161
2.7133
1.05488
-2.13926
5.09751
-0.374937
-0.632789
5.0875
-1.83291
0.373872
1.23799
-1.97117
0.644555
0.530855
-1.11147
1.59113
1.51298
-1.11099
3.823
0.915426
-0.758502
5.51699
-0.708824
0.0420664
4.46697
-1.87468
-0.00949902
2.58792
-1.37888
0.571628
1.07733
-1.7884
2.32708
-0.434898
1.68189
0.184803
-0.181228
-0.365156
-1.46884
-1.10643
-0.279416
1.38737
1.20754
0.849282
1.78215
2.71692
1.33609
4.71529
0.941345
3.91619
-0.273598
0.7344
1.85259
0.306895
1.87019
1.00302
3.42113
1.21698
4.66578
1.16566
3.08236
-0.162917
1.76917
2.65924
-0.0816456
0.435834
0.0571796
-0.0666367
-0.301313
)
;

boundaryField
{
    seabed_topleft_surface
    {
        type            calculated;
        value           uniform 0;
    }
    seabed_topright_surface
    {
        type            calculated;
        value           uniform 0;
    }
    breakwater_top_surface
    {
        type            calculated;
        value           uniform 0;
    }
    breakwater_left_surface
    {
        type            calculated;
        value           uniform 0;
    }
    breakwater_right_surface
    {
        type            calculated;
        value           uniform 0;
    }
    water_front_surface
    {
        type            calculated;
        value           uniform 0;
    }
    water_back_surface
    {
        type            calculated;
        value           uniform 0;
    }
    water_left_surface
    {
        type            calculated;
        value           uniform 0;
    }
    water_right_surface
    {
        type            calculated;
        value           uniform 0;
    }
    water_top_surface
    {
        type            calculated;
        value           nonuniform List<scalar> 
180
(
0.73977
-1.17259
-1.0844
-1.11569
0.489123
1.04694
-1.71521
-1.67503
-1.68179
-1.69121
-1.7489
-1.76583
-1.57583
-1.57469
-1.57618
-1.5774
-1.58289
-1.58536
-1.74417
-1.74409
-1.74553
-1.74693
-1.75179
-1.75409
-1.83108
-1.83387
-1.83338
-1.8339
-1.83505
-1.83681
-1.94886
-1.95262
-1.95089
-1.95291
-1.95406
-1.95492
-1.9947
-2.02709
-2.01381
-2.02206
-2.01872
-2.02041
-2.02794
-2.13225
-2.06794
-2.0488
-2.07194
-2.11859
-1.64925
-2.52593
-1.83623
-1.65209
-1.98896
-2.25064
4.25497
2.43578
2.19186
2.02886
1.53658
0.87174
6.43847
7.6825
7.0743