/*--------------------------------*- C++ -*----------------------------------*\
| =========                 |                                                 |
| \\      /  F ield         | OpenFOAM: The Open Source CFD Toolbox           |
|  \\    /   O peration     | Version:  v1612+                                |
|   \\  /    A nd           | Web:      www.OpenFOAM.com                      |
|    \\/     M anipulation  |                                                 |
\*---------------------------------------------------------------------------*/
FoamFile
{
    version     2.0;
    format      ascii;
    class       volScalarField;
    location    "4";
    object      alpha.water;
}
// * * * * * * * * * * * * * * * * * * * * * * * * * * * * * * * * * * * * * //

dimensions      [0 0 0 0 0 0 0];

internalField   nonuniform List<scalar> 
1116
(
0.540051
0.540053
0.540052
0.540056
0.540058
0.54005
0.543661
0.543663
0.543663
0.543666
0.543667
0.54366
0.580085
0.580086
0.580088
0.580089
0.58009
0.580087
0.644924
0.644925
0.644927
0.644927
0.644928
0.644927
0.724306
0.724308
0.72431
0.72431
0.724311
0.724311
0.81032
0.810321
0.810322
0.810322
0.810322
0.810323
0.906976
0.906971
0.906973
0.906973
0.90697
0.906975
0.972998
0.972998
0.972998
0.972998
0.972998
0.972998
0.972999
0.972999
0.972999
0.972999
0.972999
0.972999
0.972999
0.972999
0.972999
0.972999
0.972999
0.972999
0.972962
0.972962
0.972962
0.972962
0.972962
0.972962
0.97145
0.97145
0.97145
0.97145
0.97145
0.97145
1.21333e-08
1.21329e-08
1.2133e-08
1.21326e-08
1.21324e-08
1.21334e-08
7.04902e-09
7.04858e-09
7.04877e-09
7.04839e-09
7.04806e-09
7.04934e-09
6.09613e-09
6.09404e-09
6.09312e-09
6.09238e-09
6.09261e-09
6.09622e-09
5.94919e-09
5.94726e-09
5.94637e-09
5.94569e-09
5.94596e-09
5.94929e-09
5.93373e-09
5.93387e-09
5.93402e-09
5.93405e-09
5.93398e-09
5.93387e-09
0.0011086
0.00110973
0.00110965
0.00110975
0.00111022
0.00110959
0.0332927
0.0332964
0.033297
0.0332979
0.0332993
0.0332971
0.177837
0.177831
0.177836
0.177836
0.177833
0.177841
0.581148
0.58113
0.581138
0.581138
0.58113
0.581147
0.949812
0.949812
0.949811
0.949812
0.949809
0.949814
0.972945
0.972945
0.972945
0.972945
0.972945
0.972945
0.972931
0.972931
0.972931
0.972931
0.972931
0.972931
1.19386e-07
1.19363e-07
1.19376e-07
1.19384e-07
1.19371e-07
1.19414e-07
3.81541e-07
3.81538e-07
3.81549e-07
3.81546e-07
3.81535e-07
3.81577e-07
8.83292e-09
8.81863e-09
8.82368e-09
8.81133e-09
8.80253e-09
8.83879e-09
5.67298e-09
5.67097e-09
5.67004e-09
5.66939e-09
5.66965e-09
5.67283e-09
5.86712e-09
5.86737e-09
5.86758e-09
5.86763e-09
5.86756e-09
5.86725e-09
5.7827e-09
5.79871e-09
5.79757e-09
5.79893e-09
5.79956e-09
5.79137e-09
2.31528e-05
2.31456e-05
2.31468e-05
2.3145e-05
2.3142e-05
2.31469e-05
0.000177481
0.000177179
0.000177336
0.000177359
0.000177297
0.000177363
0.0340496
0.0340187
0.034033
0.0340325
0.0340238
0.034041
0.413222
0.413229
0.413223
0.413217
0.413213
0.413227
0.87756
0.877569
0.87756
0.877556
0.877548
0.877566
0.972925
0.972925
0.972925
0.972925
0.972925
0.972925
2.87301e-07
2.87157e-07
2.87209e-07
2.87242e-07
2.87213e-07
2.87373e-07
9.82825e-07
9.82826e-07
9.82826e-07
9.82826e-07
9.82826e-07
9.82826e-07
1.68017e-07
1.68027e-07
1.68032e-07
1.68026e-07
1.68039e-07
1.68083e-07
2.15517e-10
2.13891e-10
2.14079e-10
2.13234e-10
2.12529e-10
2.14593e-10
1.97117e-08
1.9766e-08
1.97727e-08
1.97826e-08
1.98076e-08
1.98245e-08
2.43614e-08
2.43452e-08
2.43536e-08
2.43511e-08
2.43469e-08
2.43598e-08
4.41536e-07
4.41019e-07
4.41293e-07
4.41262e-07
4.41118e-07
4.41315e-07
1.531e-05
1.5297e-05
1.53094e-05
1.53089e-05
1.53049e-05
1.53096e-05
0.000175786
0.000175483
0.00017564
0.000175663
0.000175601
0.000175667
0.160931
0.160999
0.160985
0.16096
0.160993
0.160932
0.708169
0.708606
0.708419
0.708344
0.708504
0.708273
0.935679
0.935765
0.935729
0.935735
0.935751
0.935708
4.30617e-26
4.30069e-26
4.49684e-26
4.02315e-26
4.05745e-26
4.62955e-26
1.91742e-23
1.91311e-23
1.9916e-23
1.7769e-23
1.79666e-23
2.05959e-23
4.23303e-21
4.21953e-21
4.34728e-21
3.89751e-21
3.94707e-21
4.51312e-21
6.08431e-19
6.0597e-19
6.11904e-19
5.57496e-19
5.64873e-19
6.37336e-19
2.60579e-17
2.59546e-17
2.16577e-17
2.38807e-17
2.42287e-17
2.24058e-17
8.87537e-17
8.84171e-17
9.25003e-17
8.2378e-17
8.3092e-17
9.59752e-17
2.63557e-15
2.62502e-15
2.7607e-15
2.4628e-15
2.48637e-15
2.87378e-15
4.06059e-13
4.05061e-13
5.14997e-13
2.81259e-13
3.36079e-13
5.54243e-13
5.49269e-10
5.46755e-10
5.99933e-10
4.84117e-10
5.01727e-10
6.30556e-10
2.0234e-09
2.01295e-09
2.16338e-09
1.8342e-09
1.86234e-09
2.27339e-09
1.32439e-08
1.3101e-08
1.32846e-08
1.25599e-08
1.24866e-08
1.36259e-08
2.28716e-08
2.24705e-08
2.19784e-08
2.18875e-08
2.18875e-08
2.18875e-08
2.94385e-24
2.94311e-24
3.10062e-24
2.7569e-24
2.82161e-24
3.19979e-24
1.33607e-21
1.33472e-21
1.41175e-21
1.26147e-21
1.28673e-21
1.46121e-21
2.97788e-19
2.97275e-19
3.15178e-19
2.85745e-19
2.90534e-19
3.27173e-19
1.69205e-17
1.69062e-17
1.74353e-17
1.80263e-17
1.8232e-17
1.77693e-17
6.11911e-17
6.10995e-17
6.39134e-17
5.71555e-17
5.77688e-17
6.58742e-17
3.18714e-15
3.17671e-15
3.38254e-15
2.9139e-15
2.94819e-15
3.53538e-15
2.60138e-13
2.58728e-13
2.7687e-13
2.36897e-13
2.39658e-13
2.90806e-13
2.23799e-11
2.22587e-11
2.38238e-11
2.03821e-11
2.06204e-11
2.50303e-11
3.69686e-07
3.69355e-07
3.97542e-07
3.34068e-07
3.39189e-07
4.17528e-07
2.49797e-05
2.49429e-05
2.6451e-05
2.30766e-05
2.31577e-05
2.76774e-05
7.63079e-07
7.60745e-07
7.86926e-07
7.28081e-07
7.14248e-07
8.22949e-07
3.91509e-06
3.90948e-06
4.02226e-06
3.77034e-06
3.72816e-06
4.16209e-06
2.90511e-22
2.90078e-22
3.01888e-22
2.72686e-22
2.76478e-22
3.10563e-22
1.23434e-19
1.23103e-19
1.28542e-19
1.15865e-19
1.17033e-19
1.32698e-19
2.00544e-17
1.99918e-17
2.0778e-17
1.90046e-17
1.91209e-17
2.13919e-17
3.77788e-17
3.77229e-17
3.86064e-17
3.70379e-17
3.71849e-17
3.92839e-17
2.14623e-15
2.13663e-15
2.23344e-15
2.02291e-15
2.03154e-15
2.31286e-15
3.41067e-13
3.39576e-13
3.55039e-13
3.21123e-13
3.22636e-13
3.67531e-13
3.19991e-11
3.18354e-11
3.3336e-11
3.00814e-11
3.01854e-11
3.45991e-11
2.91417e-09
2.89921e-09
3.03731e-09
2.7381e-09
2.74799e-09
3.15375e-09
1.94426e-07
1.93485e-07
2.02613e-07
1.82765e-07
1.83382e-07
2.10298e-07
0.000580411
0.000578792
0.000597898
0.000555684
0.000554957
0.000615503
0.00391685
0.00390906
0.00398176
0.00382159
0.0037883
0.00407881
4.51336e-07
4.47049e-07
4.42316e-07
4.41871e-07
4.41871e-07
4.41871e-07
3.18e-22
3.16433e-22
3.2356e-22
3.09135e-22
3.13765e-22
3.26175e-22
1.08123e-19
1.07441e-19
1.09642e-19
1.05514e-19
1.06903e-19
1.10495e-19
1.57894e-17
1.56624e-17
1.59447e-17
1.54806e-17
1.56663e-17
1.6049e-17
3.71751e-17
3.70724e-17
3.79292e-17
3.60724e-17
3.6225e-17
3.85667e-17
1.04878e-15
1.03867e-15
1.05462e-15
1.03312e-15
1.04514e-15
1.05954e-15
1.89106e-13
1.87154e-13
1.88633e-13
1.88246e-13
1.90502e-13
1.88297e-13
1.93207e-11
1.91084e-11
1.93864e-11
1.90783e-11
1.9333e-11
1.94305e-11
2.33136e-09
2.30645e-09
2.34102e-09
2.29916e-09
2.33241e-09
2.34551e-09
1.84819e-07
1.82841e-07
1.85321e-07
1.83022e-07
1.84346e-07
1.86772e-07
1.28636e-05
1.27452e-05
1.28642e-05
1.27429e-05
1.28319e-05
1.29209e-05
0.0165712
0.0165126
0.0166583
0.0164006
0.0163133
0.0169044
0.0475653
0.0474778
0.0478756
0.0470344
0.0464566
0.0488365
2.34799e-08
2.34593e-08
2.34669e-08
2.34679e-08
2.3457e-08
2.34855e-08
4.66671e-09
4.6528e-09
4.65745e-09
4.65589e-09
4.64547e-09
4.66862e-09
-2.96461e-16
-3.24658e-16
-3.33258e-16
-3.25849e-16
-3.23919e-16
-3.31726e-16
9.82824e-07
9.82825e-07
9.82826e-07
9.82826e-07
9.82826e-07
9.82825e-07
9.72392e-08
9.66995e-08
9.68861e-08
9.68592e-08
9.65048e-08
9.73469e-08
-1.69597e-15
-1.85719e-15
-1.9065e-15
-1.86409e-15
-1.85305e-15
-1.89786e-15
3.02102e-07
3.01952e-07
3.01986e-07
3.0198e-07
3.01939e-07
3.02155e-07
1.64221e-21
1.50598e-21
1.52797e-21
1.47551e-21
1.42005e-21
1.59729e-21
-1.16356e-14
-1.27422e-14
-1.30801e-14
-1.27891e-14
-1.27134e-14
-1.30198e-14
2.23227e-11
2.11228e-11
2.1298e-11
2.05367e-11
1.99204e-11
2.14018e-11
2.27737e-11
2.08779e-11
2.11828e-11
2.04507e-11
1.96839e-11
2.21545e-11
-8.65665e-15
-9.49394e-15
-9.74925e-15
-9.52849e-15
-9.47122e-15
-9.70255e-15
2.49947e-08
2.49883e-08
2.49807e-08
2.49697e-08
2.49699e-08
2.49756e-08
9.68553e-15
9.67543e-15
9.67951e-15
9.67774e-15
9.67564e-15
9.68498e-15
1.1926e-17
1.18622e-17
1.18728e-17
1.18728e-17
1.18589e-17
1.19173e-17
1.68936e-10
1.68658e-10
1.68847e-10
1.68848e-10
1.688e-10
1.68937e-10
2.29834e-12
2.29607e-12
2.29699e-12
2.29659e-12
2.29607e-12
2.29818e-12
9.68073e-15
9.67074e-15
9.6748e-15
9.67303e-15
9.67095e-15
9.68019e-15
1.04378e-08
1.04255e-08
1.04353e-08
1.04348e-08
1.04313e-08
1.04361e-08
1.08809e-10
1.08715e-10
1.08796e-10
1.08772e-10
1.08759e-10
1.0879e-10
2.29887e-12
2.2966e-12
2.29752e-12
2.29712e-12
2.29661e-12
2.29872e-12
4.54345e-07
4.5384e-07
4.54103e-07
4.5407e-07
4.53927e-07
4.54121e-07
1.08043e-08
1.07928e-08
1.08023e-08
1.08018e-08
1.07985e-08
1.08029e-08
1.0881e-10
1.08716e-10
1.08796e-10
1.08773e-10
1.08759e-10
1.08791e-10
1.34187e-05
1.29841e-05
1.31922e-05
1.32475e-05
1.31626e-05
1.32647e-05
6.05448e-07
6.36707e-07
6.22898e-07
6.1882e-07
6.24628e-07
6.17451e-07
1.44476e-08
1.44216e-08
1.44409e-08
1.44401e-08
1.44349e-08
1.44423e-08
0.000906936
0.00100771
0.000960612
0.000946958
0.000966454
0.000942778
5.54308e-06
5.41475e-06
5.49562e-06
5.52142e-06
5.46502e-06
5.52771e-06
6.68784e-06
6.72022e-06
6.75769e-06
6.74734e-06
6.70818e-06
6.74916e-06
0.106489
0.106779
0.106654
0.106629
0.106671
0.106602
2.23369e-05
2.25539e-05
2.24286e-05
2.24223e-05
2.24761e-05
2.23763e-05
0.000440152
0.000440218
0.000440222
0.000440235
0.000440258
0.000440316
0.302766
0.30298
0.302887
0.302943
0.303014
0.302807
-4.89236e-12
-4.45848e-12
-4.77141e-12
-4.81617e-12
-4.74584e-12
-4.63274e-12
-1.33299e-23
-4.57222e-22
-2.49373e-22
-1.76554e-22
-2.12846e-23
-1.4095e-22
0.362805
0.362562
0.362811
0.363009
0.362803
0.36352
1.74665e-05
1.74333e-05
1.74665e-05
1.74333e-05
1.69135e-05
1.69135e-05
0.000178847
0.000163853
0.000160903
0.000189426
0.000188575
0.000146499
0.420541
0.420913
0.420811
0.42115
0.422291
0.419553
4.34044e-19
4.25367e-19
-2.24049e-17
-2.95649e-17
4.58677e-19
4.42705e-19
-1.81641e-23
-8.02333e-24
-2.99691e-23
-1.57751e-23
-7.02351e-24
-1.17082e-23
0.54171
0.541815
0.54184
0.541856
0.542261
0.541216
-5.39013e-16
-7.33656e-12
-4.91921e-12
-7.2154e-12
-2.5023e-11
6.24502e-18
-2.12216e-23
6.52402e-24
-8.02987e-23
-1.42254e-24
-7.95288e-24
-2.36785e-23
0.591879
0.591903
0.591926
0.591952
0.591965
0.591933
0.0293804
0.0294227
0.0294315
0.0294629
0.0296726
0.0292863
-9.16455e-23
-1.1568e-22
-1.25018e-22
-1.27713e-22
-1.22846e-22
-8.90792e-23
0.591903
0.591926
0.591952
0.591965
0.591965
0.591965
0.0726064
0.0727002
0.0726724
0.0727507
0.0730523
0.07234
-1.49583e-22
-1.88917e-22
-2.04168e-22
-2.08572e-22
-2.01099e-22
-1.4476e-22
0.591879
0.591903
0.591926
0.591952
0.591965
0.591933
0.0267596
0.0268687
0.0267926
0.0268809
0.0270442
0.0266102
-1.92153e-22
-2.42682e-22
-2.62164e-22
-2.6838e-22
-2.5946e-22
-1.85264e-22
7.91115e-22
7.90839e-22
7.91679e-22
7.84954e-22
7.69702e-22
8.11458e-22
6.02196e-23
6.02281e-23
6.03366e-23
5.96792e-23
5.8611e-23
6.17764e-23
1.99629e-24
1.99724e-24
2.00212e-24
1.97662e-24
1.94445e-24
2.04787e-24
1.65095e-19
1.64928e-19
1.64932e-19
1.6414e-19
1.60778e-19
1.69123e-19
1.62793e-20
1.62751e-20
1.62909e-20
1.61568e-20
1.58368e-20
1.66902e-20
6.97227e-22
6.97364e-22
6.98692e-22
6.9134e-22
6.79266e-22
7.15018e-22
1.10514e-17
1.10272e-17
1.10143e-17
1.10211e-17
1.08e-17
1.12855e-17
1.61986e-18
1.61856e-18
1.61818e-18
1.61111e-18
1.57193e-18
1.65893e-18
1.00819e-19
1.00807e-19
1.00938e-19
1.00273e-19
9.83008e-20
1.03325e-19
4.54277e-17
4.52339e-17
4.56275e-17
4.49665e-17
4.5149e-17
4.58516e-17
3.69404e-17
3.68954e-17
3.68538e-17
3.68252e-17
3.61004e-17
3.77162e-17
7.44677e-18
7.44373e-18
7.44944e-18
7.46243e-18
7.26566e-18
7.62392e-18
1.48895e-15
1.48363e-15
1.49293e-15
1.47996e-15
1.50201e-15
1.48688e-15
1.14041e-14
1.13874e-14
1.13484e-14
1.13922e-14
1.05868e-14
1.17076e-14
4.93199e-16
4.9335e-16
4.94144e-16
4.97034e-16
4.71212e-16
5.08349e-16
1.93439e-14
1.92948e-14
1.88303e-14
2.00014e-14
1.95851e-14
1.90327e-14
8.2324e-13
8.22896e-13
8.18595e-13
8.24891e-13
8.03448e-13
8.40836e-13
5.04698e-14
5.04978e-14
5.04542e-14
5.0201e-14
4.9114e-14
5.16746e-14
2.05998e-12
2.04768e-12
2.05474e-12
2.05142e-12
2.04734e-12
2.09446e-12
1.51515e-13
1.49954e-13
1.47747e-13
1.53103e-13
1.46727e-13
1.50669e-13
5.10834e-14
5.11029e-14
5.10494e-14
5.08255e-14
4.97163e-14
5.22808e-14
4.8038e-11
4.80622e-11
4.36076e-11
5.62604e-11
4.22609e-11
5.71467e-11
7.59899e-12
7.50932e-12
7.36925e-12
7.73451e-12
7.40647e-12
7.53605e-12
1.51514e-13
1.49954e-13
1.47746e-13
1.53103e-13
1.46726e-13
1.50674e-13
2.103e-08
2.08674e-08
2.06675e-08
2.09419e-08
2.0497e-08
2.11677e-08
1.01533e-09
9.99793e-10
9.79168e-10
1.03296e-09
9.80496e-10
9.97376e-10
2.38812e-08
2.30564e-08
2.31922e-08
2.36753e-08
2.37344e-08
2.18565e-08
1.2008e-06
1.19047e-06
1.18047e-06
1.2221e-06
1.20805e-06
1.19893e-06
3.7437e-05
3.35237e-05
3.18854e-05
4.01769e-05
3.85503e-05
2.57896e-05
5.4415e-06
5.35833e-06
5.2985e-06
5.49268e-06
5.28226e-06
5.28644e-06
6.52427e-05
6.47268e-05
6.42057e-05
6.65458e-05
6.63241e-05
6.46034e-05
0.00172335
0.0018502
0.00190698
0.00161326
0.0014613
0.00212193
9.07257e-20
8.4533e-20
8.24502e-20
9.43764e-20
9.7341e-20
7.51318e-20
0.138325
0.137839
0.138637
0.137439
0.135707
0.141224
0.00732636
0.00742318
0.00758377
0.00697985
0.00656891
0.00770476
0.000327135
0.000341859
0.000327755
0.000350069
0.000374511
0.000305325
)
;

boundaryField
{
    seabed_topleft_surface
    {
        type            zeroGradient;
    }
    seabed_topright_surface
    {
        type            zeroGradient;
    }
    breakwater_top_surface
    {
        type            zeroGradient;
    }
    breakwater_left_surface
    {
        type            zeroGradient;
    }
    breakwater_right_surface
    {
        type            zeroGradient;
    }
    water_front_surface
    {
        type            zeroGradient;
    }
    water_back_surface
    {
        type            zeroGradient;
    }
    water_left_surface
    {
        type            zeroGradient;
    }
    water_right_surface
    {
        type            zeroGradient;
    }
    water_top_surface
    {
        type            inletOutlet;
        inletValue      uniform 0;
        value           nonuniform List<scalar> 
180
(
0
0
0
0
0
0
0
0
0
0
0
0
0
0
0
0
0
0
0
0
0
0
0
0
0
0
0
0
0
0
9.68073e-15
9.67074e-15
9.6748e-15
9.67303e-15
9.67095e-15
9.68019e-15
2.29887e-12
2.2966e-12
2.29752e-12
2.29712e-12
2.29661e-12
2.29872e-12
1.0881e-10
1.08716e-10
1.08796e-10
1.08773e-10
1.08759e-10
1.08791e-10
1.44476e-08
1.44216e-08
1.44409e-08
1.44401e-08
1.44349e-08
1.44423e-08
6.68784e-06
6.72022e-06
6.75769e-06
6.74734e-06
6.70818e-06
6.74916e-06
0.000440152
0.000440218
0.000440222
0.000440235
0.000440258
0.000440316
0
0
0
0
0
0
0
0
0
0
0
0
0
0
0
0
0
0
0
0
0
0
0
0
0
0
0
0
0
0
0
0
0
0
0
0
0
0
0
0
0
0
1.99629e-24
1.99724e-24
2.00212e-24
1.97662e-24
1.94445e-24
2.04787e-24
6.97227e-22
6.97364e-22
6.98692e-22
6.9134e-22
6.79266e-22
7.15018e-22
1.00819e-19
1.00807e-19
1.00938e-19
1.00273e-19
9.83008e-20
1.03325e-19
7.44677e-18
7.44373e-18
7.44944e-18
7.46243e-18
7.26566e-18
7.62392e-18
4.93199e-16
4.9335e-16
4.94144e-16
4.97034e-16
4.71212e-16
5.08349e-16
5.04698e-14
5.04978e-14
5.04542e-14
5.0201e-14
4.9114e-14
5.16746e-14
5.10834e-14
5.11029e-14
5.10494e-14
5.08255e-14
4.97163e-14
5.22808e-14
1.51514e-13
1.49954e-13
1.47746e-13
1.53103e-13
1.46726e-13
1.50674e-13
2.38812e-08
2.30564e-08
2.31922e-08
2.36753e-08
2.37344e-08
2.18565e-08
0
0
0
0
0
0
0
0
0
0
0
0
0.000327135
0.000341859
0.000327755
0.000350069
0.000374511
0.000305325
)
;
    }
}


// ************************************************************************* //
