/*--------------------------------*- C++ -*----------------------------------*\
| =========                 |                                                 |
| \\      /  F ield         | OpenFOAM: The Open Source CFD Toolbox           |
|  \\    /   O peration     | Version:  v1612+                                |
|   \\  /    A nd           | Web:      www.OpenFOAM.com                      |
|    \\/     M anipulation  |                                                 |
\*---------------------------------------------------------------------------*/
FoamFile
{
    version     2.0;
    format      ascii;
    class       volScalarField;
    location    "4";
    object      p;
}
// * * * * * * * * * * * * * * * * * * * * * * * * * * * * * * * * * * * * * //

dimensions      [1 -1 -2 0 0 0 0];

internalField   nonuniform List<scalar> 
1116
(
2656.35
2656.37
2656.36
2656.38
2656.39
2656.35
2698.26
2698.27
2698.27
2698.29
2698.29
2698.26
2862.13
2862.14
2862.14
2862.15
2862.15
2862.13
3112.73
3112.74
3112.74
3112.75
3112.75
3112.74
3487.93
3487.94
3487.95
3487.94
3487.95
3487.95
4013.78
4013.79
4013.8
4013.8
4013.81
4013.81
5183
5183.04
5183.05
5183.06
5183.08
5183.07
7863.14
7863.16
7863.16
7863.17
7863.17
7863.19
11713.9
11713.8
11713.8
11713.8
11713.8
11713.8
15451.5
15451.3
15451.3
15451.3
15451.3
15451.4
18882.4
18881.9
18881.9
18881.9
18881.9
18882.2
21808.1
21807.9
21807.8
21807.8
21807.8
21808
-45.3367
-45.3362
-45.3362
-45.3368
-45.3376
-45.3382
-53.9359
-53.9348
-53.935
-53.9357
-53.9365
-53.9376
-79.3294
-79.3293
-79.33
-79.3304
-79.3309
-79.332
-109.687
-109.688
-109.688
-109.689
-109.688
-109.688
-51.9098
-51.9091
-51.9091
-51.9091
-51.9083
-51.9071
125.123
125.123
125.123
125.123
125.123
125.126
357.024
356.994
357.003
357.004
356.994
357.013
947.55
947.497
947.523
947.53
947.513
947.565
3271.37
3270.97
3271.14
3271.13
3271.08
3271.22
6893.5
6892.78
6892.98
6892.95
6892.92
6893.2
10116
10113
10113.3
10113.1
10113.2
10115
13584.3
13584
13583.9
13583.9
13584
13584.1
-32.9259
-32.9259
-32.9261
-32.9267
-32.9274
-32.9279
-36.8573
-36.8573
-36.8577
-36.8583
-36.8589
-36.8595
-51.7843
-51.7844
-51.7848
-51.7851
-51.7854
-51.7858
-83.1204
-83.1202
-83.1207
-83.1207
-83.1203
-83.121
-79.8014
-79.8003
-79.8003
-79.7998
-79.7992
-79.8006
-15.207
-15.2069
-15.2068
-15.2064
-15.206
-15.2061
19.2214
19.2162
19.2167
19.2165
19.216
19.2187
46.2792
46.2511
46.261
46.2616
46.2608
46.2712
211.526
211.089
211.301
211.314
211.264
211.376
2105.96
2104.29
2105.12
2105.21
2104.86
2105.43
6120.36
6122.01
6122.09
6122.2
6122.03
6120.77
7893.88
7894.13
7894.17
7894.2
7894.19
7893.97
-48.8558
-48.8559
-48.8562
-48.8567
-48.8571
-48.8575
-50.8119
-50.812
-50.8123
-50.8127
-50.813
-50.8133
-55.6856
-55.6856
-55.6857
-55.6858
-55.6859
-55.6861
-60.9022
-60.9018
-60.9018
-60.9017
-60.9013
-60.9017
-43.8054
-43.8046
-43.8044
-43.804
-43.8033
-43.8039
-14.027
-14.0266
-14.0266
-14.026
-14.0255
-14.0257
-0.238366
-0.241499
-0.240467
-0.240411
-0.240511
-0.239496
27.2494
27.2471
27.2473
27.248
27.2474
27.2481
27.214
27.1421
27.1764
27.1834
27.1808
27.1928
259.206
258.008
258.587
258.713
258.573
258.735
3886.23
3885.93
3886.07
3886.04
3886.2
3885.84
4677.39
4677.65
4677.51
4677.49
4677.59
4677.3
3.87639
3.87638
3.87638
3.87637
3.87637
3.87636
4.32025
4.32026
4.32025
4.32024
4.32023
4.32022
5.23848
5.2385
5.23852
5.23853
5.23854
5.23854
6.6957
6.69576
6.69581
6.69585
6.69589
6.6959
8.79882
8.79888
8.79891
8.79891
8.79888
8.79882
11.7068
11.7067
11.7067
11.7066
11.7066
11.7066
15.6357
15.6356
15.6358
15.6359
15.6368
15.6378
20.8539
20.8533
20.8547
20.8533
20.8573
20.8619
27.4543
27.4493
27.4592
27.4407
27.4518
27.4784
33.1886
33.1725
33.2111
33.1295
33.1508
33.2676
27.2477
27.2345
27.2591
27.2122
27.2045
27.2893
6.83467
6.83336
6.83414
6.83264
6.82904
6.83839
-6.39291
-6.3929
-6.39291
-6.39291
-6.39292
-6.39293
-5.96418
-5.96418
-5.96419
-5.9642
-5.96421
-5.96422
-5.07917
-5.07916
-5.07916
-5.07916
-5.07917
-5.07917
-3.67913
-3.6791
-3.67907
-3.67902
-3.67899
-3.67898
-1.65743
-1.65738
-1.65728
-1.65717
-1.65707
-1.65703
1.17354
1.17359
1.17383
1.174
1.1745
1.17495
5.12655
5.12639
5.12736
5.12665
5.12882
5.131
10.9062
10.9033
10.9102
10.8991
10.9064
10.9205
20.8622
20.844
20.893
20.7913
20.8138
20.9535
34.6619
34.6101
34.7277
34.4948
34.4961
34.8817
12.1563
12.1556
12.1445
12.1809
12.0787
12.1585
-26.0559
-26.0559
-26.0824
-26.02
-26.0678
-26.0711
-17.1084
-17.1084
-17.1084
-17.1084
-17.1084
-17.1084
-16.7268
-16.7268
-16.7268
-16.7268
-16.7268
-16.7268
-15.9429
-15.9429
-15.9429
-15.9429
-15.9429
-15.9429
-14.7089
-14.7089
-14.7089
-14.7088
-14.7088
-14.7087
-12.9368
-12.9367
-12.9366
-12.9364
-12.9362
-12.936
-10.447
-10.447
-10.4464
-10.4465
-10.4455
-10.4446
-6.92577
-6.92718
-6.92365
-6.92711
-6.9237
-6.91976
-1.20025
-1.21127
-1.18858
-1.22277
-1.2102
-1.17169
12.4127
12.3585
12.4514
12.3097
12.3296
12.5295
14.7767
14.7339
14.7246
14.8293
14.7834
14.7604
-54.8356
-54.7159
-55.2668
-54.1444
-54.3539
-55.6265
-67.7223
-67.6913
-67.6989
-67.7854
-67.8228
-67.5818
-28.201
-28.201
-28.201
-28.201
-28.201
-28.201
-27.8993
-27.8993
-27.8993
-27.8993
-27.8993
-27.8993
-27.2963
-27.2962
-27.2962
-27.2962
-27.2962
-27.2962
-26.3988
-26.3988
-26.3987
-26.3987
-26.3986
-26.3986
-25.2347
-25.2346
-25.2344
-25.2342
-25.234
-25.2339
-23.8691
-23.8691
-23.8684
-23.8681
-23.8675
-23.8674
-22.6218
-22.6226
-22.6202
-22.6197
-22.6177
-22.6205
-22.6195
-22.6253
-22.6197
-22.6108
-22.6006
-22.6298
-26.4873
-26.4964
-26.5231
-26.408
-26.3897
-26.5755
-52.056
-52.0058
-52.152
-51.783
-51.7949
-52.2545
-108.429
-108.897
-109.138
-107.861
-107.512
-109.568
-340.487
-340.285
-341.379
-339.054
-337.451
-344.498
-54.2252
-54.2254
-54.2256
-54.2259
-54.2261
-54.2263
-61.1757
-61.1758
-61.1759
-61.176
-61.1761
-61.1761
-68.1839
-68.1839
-68.1839
-68.1838
-68.1837
-68.1836
-55.1751
-55.1752
-55.1754
-55.1756
-55.1758
-55.176
-61.1467
-61.1468
-61.1468
-61.1469
-61.1469
-61.1469
-67.9377
-67.9377
-67.9377
-67.9376
-67.9376
-67.9375
-56.9666
-56.9665
-56.9666
-56.9666
-56.9667
-56.9667
-60.5575
-60.5574
-60.5573
-60.5573
-60.5573
-60.5573
-67.3012
-67.3012
-67.3012
-67.3012
-67.3012
-67.3012
-56.2988
-56.2987
-56.2986
-56.2986
-56.2986
-56.2985
-57.7171
-57.717
-57.7168
-57.7168
-57.7169
-57.717
-66.2105
-66.2105
-66.2105
-66.2106
-66.2106
-66.2106
-46.371
-46.3714
-46.3714
-46.3714
-46.3715
-46.371
-51.0185
-51.0185
-51.0184
-51.0184
-51.0183
-51.0183
-64.8542
-64.8543
-64.8543
-64.8544
-64.8544
-64.8544
-28.4698
-28.4706
-28.4707
-28.4709
-28.4711
-28.4706
-45.7259
-45.7257
-45.7257
-45.7255
-45.7253
-45.7252
-62.4906
-62.4907
-62.4908
-62.4908
-62.4907
-62.4906
-25.4762
-25.4756
-25.4756
-25.4755
-25.4755
-25.4759
-42.8112
-42.8086
-42.8087
-42.8083
-42.8078
-42.8086
-62.7161
-62.7157
-62.7155
-62.7154
-62.7151
-62.7155
-3.24401
-3.24493
-3.24342
-3.24243
-3.2433
-3.24155
-31.3029
-31.3023
-31.3008
-31.3006
-31.3009
-31.3015
-60.6606
-60.6615
-60.6608
-60.6607
-60.6609
-60.6614
-52.2639
-52.1751
-52.2076
-52.2171
-52.2095
-52.2232
-80.3972
-80.3623
-80.38
-80.379
-80.3778
-80.3869
-78.1571
-78.1499
-78.1549
-78.1522
-78.1521
-78.1565
-105.758
-105.751
-105.73
-105.722
-105.745
-105.679
-118.861
-118.876
-118.875
-118.873
-118.876
-118.874
-85.1588
-85.1599
-85.1598
-85.1587
-85.1557
-85.1655
425.216
426.312
425.853
425.756
425.875
425.682
-106.439
-106.451
-106.448
-106.453
-106.453
-106.445
-93.7553
-93.7629
-93.7606
-93.7599
-93.756
-93.7704
1352.02
1352.86
1352.55
1352.58
1352.36
1352.79
-70.0041
-70.0205
-70.0168
-70.0351
-70.047
-69.9828
-70.951
-70.9553
-70.9569
-70.9532
-70.9513
-70.9592
1754.77
1754.72
1755.96
1755.37
1754.41
1759.46
-48.6589
-48.7224
-48.7242
-48.6974
-48.521
-48.9619
-69.3519
-69.4659
-69.4589
-69.4141
-69.3892
-69.4931
2057.46
2058.75
2058.47
2060.15
2064.99
2052.95
-41.7402
-41.7745
-41.7737
-41.7671
-41.7479
-41.9217
-65.4614
-65.3539
-65.3287
-65.5573
-65.5503
-65.2542
2725.82
2726.1
2726.71
2726.01
2727.46
2724.62
-15.5636
-15.6065
-15.591
-15.5864
-15.5886
-15.631
-64.9714
-64.9738
-64.9782
-64.9774
-64.9781
-64.9815
3208.84
3208.91
3209.44
3208.9
3209.31
3209.38
94.834
94.9811
95.0931
95.0277
95.7749
94.5952
-65.3918
-65.3805
-65.3807
-65.3881
-65.3731
-65.395
3417.11
3416.97
3417.24
3416.98
3416.01
3418.17
276.536
276.902
276.837
277.109
278.334
275.505
-64.08
-64.0688
-64.0704
-64.0676
-64.0472
-64.0947
3370.4
3369.47
3370.17
3369.47
3366.98
3373.01
72.7925
73.0876
72.8998
73.1379
73.5741
72.3944
-66.2582
-66.2452
-66.2501
-66.2447
-66.2306
-66.2695
-39.5606
-39.5606
-39.5606
-39.5606
-39.5606
-39.5606
-51.1349
-51.1349
-51.1349
-51.1349
-51.1349
-51.1349
-62.8078
-62.8078
-62.8078
-62.8078
-62.8078
-62.8078
-39.3533
-39.3533
-39.3533
-39.3533
-39.3533
-39.3534
-51.0206
-51.0206
-51.0206
-51.0206
-51.0206
-51.0207
-62.7743
-62.7743
-62.7743
-62.7743
-62.7743
-62.7743
-38.9551
-38.9551
-38.9551
-38.9551
-38.9551
-38.9551
-50.8105
-50.8105
-50.8105
-50.8105
-50.8105
-50.8105
-62.7177
-62.7177
-62.7177
-62.7177
-62.7177
-62.7177
-38.4148
-38.4147
-38.4147
-38.4147
-38.4146
-38.4146
-50.5581
-50.558
-50.558
-50.558
-50.558
-50.558
-62.665
-62.665
-62.665
-62.665
-62.665
-62.665
-37.8629
-37.8628
-37.8627
-37.8625
-37.8624
-37.8624
-50.3874
-50.3872
-50.3872
-50.3871
-50.3871
-50.387
-62.6697
-62.6696
-62.6696
-62.6696
-62.6696
-62.6696
-37.6532
-37.6529
-37.6526
-37.6519
-37.6518
-37.6518
-50.5272
-50.5269
-50.5269
-50.5265
-50.5266
-50.5261
-62.8331
-62.833
-62.833
-62.833
-62.833
-62.8328
-38.7149
-38.7138
-38.7143
-38.7108
-38.7116
-38.7116
-51.3867
-51.3862
-51.3863
-51.3848
-51.3854
-51.3859
-62.8056
-62.8056
-62.8058
-62.806
-62.8063
-62.8062
-43.3011
-43.2967
-43.3004
-43.289
-43.2926
-43.2894
-54.7194
-54.7142
-54.7172
-54.7204
-54.732
-54.699
-64.722
-64.7222
-64.7224
-64.722
-64.7232
-64.7226
-54.4392
-54.4299
-54.4321
-54.4062
-54.3939
-54.4137
-56.8055
-56.8233
-56.8296
-56.7906
-56.7883
-56.8379
-62.8249
-62.8249
-62.8298
-62.8412
-62.8471
-62.8269
-87.0712
-86.9884
-86.9765
-86.991
-86.9532
-86.786
-74.6332
-74.5346
-74.3906
-74.4648
-74.4174
-74.0079
-69.5351
-69.5725
-69.5558
-69.4772
-69.442
-69.6182
-106.735
-106.845
-106.882
-106.475
-106.414
-107.144
-65.911
-65.6166
-65.6583
-67.001
-68.1671
-65.496
-61.8539
-61.8398
-61.8681
-61.9822
-62.0888
-61.8627
-85.8512
-86.9813
-87.7513
-83.6687
-81.6139
-88.8041
-85.5194
-86.7011
-86.6963
-85.8143
-85.5165
-87.8286
-72.105
-72.4272
-72.4232
-72.3528
-72.4097
-72.3843
)
;

boundaryField
{
    seabed_topleft_surface
    {
        type            calculated;
        value           nonuniform List<scalar> 
72
(
5316.67
5316.69
5316.69
5316.72
5316.74
5316.66
5376.32
5376.35
5376.35
5376.38
5376.39
5376.32
5719.29
5719.3
5719.31
5719.33
5719.34
5719.3
6288.7
6288.72
6288.73
6288.73
6288.74
6288.73
7054.21
7054.24
7054.25
7054.25
7054.26
7054.26
8003
8003.01
8003.03
8003.03
8003.03
8003.04
9647.47
9647.48
9647.5
9647.51
9647.51
9647.53
12652.2
12652.2
12652.2
12652.3
12652.3
12652.3
16503
16502.9
16502.9
16502.9
16502.9
16502.9
20240.6
20240.4
20240.4
20240.4
20240.4
20240.5
23671.3
23670.8
23670.8
23670.8
23670.8
23671.1
26589.5
26589.3
26589.3
26589.3
26589.3
26589.5
)
;
    }
    seabed_topright_surface
    {
        type            calculated;
        value           nonuniform List<scalar> 
72
(
8.79824
8.79824
8.79824
8.79823
8.79822
8.79821
9.24211
9.24211
9.24211
9.2421
9.24209
9.24208
10.1603
10.1604
10.1604
10.1604
10.1604
10.1604
11.6176
11.6176
11.6177
11.6177
11.6177
11.6178
13.7207
13.7207
13.7208
13.7208
13.7207
13.7207
16.6286
16.6286
16.6286
16.6285
16.6285
16.6285
20.5575
20.5575
20.5577
20.5578
20.5587
20.5596
25.7757
25.7751
25.7765
25.7752
25.7792
25.7837
32.3762
32.3712
32.3811
32.3625
32.3736
32.4003
38.1105
38.0944
38.133
38.0514
38.0727
38.1894
32.1697
32.1564
32.181
32.1342
32.1264
32.2113
11.7566
11.7553
11.7561
11.7546
11.751
11.7603
)
;
    }
    breakwater_top_surface
    {
        type            calculated;
        value           nonuniform List<scalar> 
36
(
3537.45
3536.22
3538.68
3539.05
3537.09
3545.65
4123.05
4126.17
4125.39
4128.72
4139.16
4113.7
5385.16
5385.95
5386.69
5386.06
5389.5
5381.53
6114.01
6114.2
6114.84
6114.42
6114.9
6114.81
6322.4
6322.37
6322.76
6322.57
6321.6
6323.76
6275.56
6274.76
6275.57
6274.99
6272.57
6278.45
)
;
    }
    breakwater_left_surface
    {
        type            calculated;
        value           nonuniform List<scalar> 
24
(
21824.4
21824.2
21824.2
21824.2
21824.2
21824.4
13600.3
13600.1
13600
13600
13600
13600.2
7909.63
7909.88
7909.92
7909.96
7909.94
7909.72
4692.24
4692.5
4692.37
4692.35
4692.44
4692.16
)
;
    }
    breakwater_right_surface
    {
        type            calculated;
        value           nonuniform List<scalar> 
24
(
6.85152
6.85021
6.851
6.84949
6.8459
6.85524
-26.0393
-26.0393
-26.0658
-26.0034
-26.0512
-26.0545
-67.7061
-67.6751
-67.6827
-67.7692
-67.8066
-67.5656
-339.716
-339.516
-340.604
-338.292
-336.698
-343.708
)
;
    }
    water_front_surface
    {
        type            calculated;
        value           nonuniform List<scalar> 
186
(
2656.35
2698.26
2862.13
3112.73
3487.93
4013.78
5183
7863.14
11713.9
15451.5
18882.4
21808.1
-45.3367
-53.9359
-79.3294
-109.687
-51.9098
125.123
357.024
947.55
3271.37
6893.5
10116
13584.3
-32.9259
-36.8573
-51.7843
-83.1204
-79.8014
-15.207
19.2214
46.2792
211.526
2105.96
6120.36
7893.88
-48.8558
-50.8119
-55.6856
-60.9022
-43.8054
-14.027
-0.238366
27.2494
27.214
259.206
3886.23
4677.39
3.87639
4.32025
5.23848
6.6957
8.79882
11.7068
15.6357
20.8539
27.4543
33.1886
27.2477
6.83467
-6.39291
-5.96418
-5.07917
-3.67913
-1.65743
1.17354
5.12655
10.9062
20.8622
34.6619
12.1563
-26.0559
-17.1084
-16.7268
-15.9429
-14.7089
-12.9368
-10.447
-6.92577
-1.20025
12.4127
14.7767
-54.8356
-67.7223
-28.201
-27.8993
-27.2963
-26.3988
-25.2347
-23.8691
-22.6218
-22.6195
-26.4873
-52.056
-108.429
-340.487
-54.2252
-61.1757
-68.1839
-55.1751
-61.1467
-67.9377
-56.9666
-60.5575
-67.3012
-56.2988
-57.7171
-66.2105
-46.371
-51.0185
-64.8542
-28.4698
-45.7259
-62.4906
-25.4762
-42.8112
-62.7161
-3.24401
-31.3029
-60.6606
-52.2639
-80.3972
-78.1571
-105.758
-118.861
-85.1588
425.216
-106.439
-93.7553
1352.02
-70.0041
-70.951
1754.77
-48.6589
-69.3519
2057.46
-41.7402
-65.4614
2725.82
-15.5636
-64.9714
3208.84
94.834
-65.3918
3417.11
276.536
-64.08
3370.4
72.7925
-66.2582
-39.5606
-51.1349
-62.8078
-39.3533
-51.0206
-62.7743
-38.9551
-50.8105
-62.7177
-38.4148
-50.5581
-62.665
-37.8629
-50.3874
-62.6697
-37.6532
-50.5272
-62.8331
-38.7149
-51.3867
-62.8056
-43.3011
-54.7194
-64.722
-54.4392
-56.8055
-62.8249
-87.0712
-74.6332
-69.5351
-106.735
-65.911
-61.8539
-85.8512
-85.5194
-72.105
)
;
    }
    water_back_surface
    {
        type            calculated;
        value           nonuniform List<scalar> 
186
(
2656.35
2698.26
2862.13
3112.74
3487.95
4013.81
5183.07
7863.19
11713.8
15451.4
18882.2
21808
-45.3382
-53.9376
-79.332
-109.688
-51.9071
125.126
357.013
947.565
3271.22
6893.2
10115
13584.1
-32.9279
-36.8595
-51.7858
-83.121
-79.8006
-15.2061
19.2187
46.2712
211.376
2105.43
6120.77
7893.97
-48.8575
-50.8133
-55.6861
-60.9017
-43.8039
-14.0257
-0.239496
27.2481
27.1928
258.735
3885.84
4677.3
3.87636
4.32022
5.23854
6.6959
8.79882
11.7066
15.6378
20.8619
27.4784
33.2676
27.2893
6.83839
-6.39293
-5.96422
-5.07917
-3.67898
-1.65703
1.17495
5.131
10.9205
20.9535
34.8817
12.1585
-26.0711
-17.1084
-16.7268
-15.9429
-14.7087
-12.936
-10.4446
-6.91976
-1.17169
12.5295
14.7604
-55.6265
-67.5818
-28.201
-27.8993
-27.2962
-26.3986
-25.2339
-23.8674
-22.6205
-22.6298
-26.5755
-52.2545
-109.568
-344.498
-54.2263
-61.1761
-68.1836
-55.176
-61.1469
-67.9375
-56.9667
-60.5573
-67.3012
-56.2985
-57.717
-66.2106
-46.371
-51.0183
-64.8544
-28.4706
-45.7252
-62.4906
-25.4759
-42.8086
-62.7155
-3.24155
-31.3015
-60.6614
-52.2232
-80.3869
-78.1565
-105.679
-118.874
-85.1655
425.682
-106.445
-93.7704
1352.79
-69.9828
-70.9592
1759.46
-48.9619
-69.4931
2052.95
-41.9217
-65.2542
2724.62
-15.631
-64.9815
3209.38
94.5952
-65.395
3418.17
275.505
-64.0947
3373.01
72.3944
-66.2695
-39.5606
-51.1349
-62.8078
-39.3534
-51.0207
-62.7743
-38.9551
-50.8105
-62.7177
-38.4146
-50.558
-62.665
-37.8624
-50.387
-62.6696
-37.6518
-50.5261
-62.8328
-38.7116
-51.3859
-62.8062
-43.2894
-54.699
-64.7226
-54.4137
-56.8379
-62.8269
-86.786
-74.0079
-69.6182
-107.144
-65.496
-61.8627
-88.8041
-87.8286
-72.3843
)
;
    }
    water_left_surface
    {
        type            calculated;
        value           nonuniform List<scalar> 
42
(
2665.46
2665.48
2665.47
2665.49
2665.5
2665.46
-45.3202
-45.3197
-45.3197
-45.3203
-45.3211
-45.3217
-32.9097
-32.9097
-32.9099
-32.9105
-32.9112
-32.9117
-48.8399
-48.84
-48.8404
-48.8408
-48.8413
-48.8416
-54.2252
-54.2254
-54.2256
-54.2259
-54.2261
-54.2263
-61.1757
-61.1758
-61.1759
-61.176
-61.1761
-61.1761
-68.1839
-68.1839
-68.1839
-68.1838
-68.1837
-68.1836
)
;
    }
    water_right_surface
    {
        type            calculated;
        value           nonuniform List<scalar> 
42
(
3.89324
3.89324
3.89324
3.89323
3.89322
3.89321
-6.37639
-6.37639
-6.37639
-6.3764
-6.37641
-6.37641
-17.0922
-17.0922
-17.0922
-17.0922
-17.0922
-17.0922
-28.1851
-28.1851
-28.1851
-28.1851
-28.1851
-28.1852
-39.5606
-39.5606
-39.5606
-39.5606
-39.5606
-39.5606
-51.1349
-51.1349
-51.1349
-51.1349
-51.1349
-51.1349
-62.8078
-62.8078
-62.8078
-62.8078
-62.8078
-62.8078
)
;
    }
    water_top_surface
    {
        type            calculated;
        value           nonuniform List<scalar> 
180
(
-71.6288
-71.6291
-71.6289
-71.6288
-71.6287
-71.6282
-71.3334
-71.3336
-71.3335
-71.3334
-71.3333
-71.333
-70.4392
-70.4395
-70.4395
-70.4395
-70.4396
-70.4394
-69.385
-69.3853
-69.3854
-69.3854
-69.3855
-69.3852
-68.6782
-68.6783
-68.6783
-68.6783
-68.6782
-68.6782
-68.67
-68.67
-68.67
-68.67
-68.67
-68.67
-68.67
-68.67
-68.67
-68.67
-68.67
-68.67
-68.67
-68.67
-68.67
-68.67
-68.67
-68.67
-68.671
-68.671
-68.671
-68.671
-68.671
-68.671
-69.1288
-69.131
-69.1336
-69.1329
-69.1302
-69.133
-98.865
-98.8696
-98.8698
-98.8707
-98.8723
-98.8763
-89.2701
-89.3257
-89.3021
-89.2995
-89.325
-89.2703
-82.0402
-83.3484
-83.5085
-81.5547
-81.5048
-84.046
-91.0078
-90.8112
-90.7171
-91.2001
-91.2513
-90.3897
-72.2075
-72.2112
-72.1941
-72.2332
-72.2551
-72.1565
-79.2466
-79.2741
-79.258
-79.2922
-79.4041
-79.1493
-83.3643
-83.3992
-83.371
-83.4054
-83.4778
-83.296
-88.5414
-88.6133
-88.5681
-88.5901
-88.6345
-88.5164
-68.67
-68.67
-68.67
-68.67
-68.67
-68.67
-68.67
-68.67
-68.67
-68.67
-68.67
-68.67
-68.67
-68.67
-68.67
-68.67
-68.67
-68.67
-68.67
-68.67
-68.67
-68.67
-68.67
-68.67
-68.67
-68.67
-68.67
-68.67
-68.67
-68.67
-68.67
-68.67
-68.67
-68.67
-68.67
-68.67
-68.67
-68.67
-68.67
-68.67
-68.67
-68.67
-68.67
-68.67
-68.67
-68.67
-68.67
-68.67
-68.6716
-68.6716
-68.6716
-68.6716
-68.6716
-68.6715
-68.6795
-68.6784
-68.6784
-68.6795
-68.6808
-68.6756
-70.4529
-70.4588
-70.4623
-70.4887
-70.5386
-70.4291
-91.1119
-92.122
-91.1545
-92.6852
-94.362
-89.6157
)
;
    }
}


// ************************************************************************* //
