/*--------------------------------*- C++ -*----------------------------------*\
| =========                 |                                                 |
| \\      /  F ield         | OpenFOAM: The Open Source CFD Toolbox           |
|  \\    /   O peration     | Version:  v1612+                                |
|   \\  /    A nd           | Web:      www.OpenFOAM.com                      |
|    \\/     M anipulation  |                                                 |
\*---------------------------------------------------------------------------*/
FoamFile
{
    version     2.0;
    format      ascii;
    class       surfaceScalarField;
    location    "4";
    object      phi;
}
// * * * * * * * * * * * * * * * * * * * * * * * * * * * * * * * * * * * * * //

dimensions      [0 3 -1 0 0 0 0];

internalField   nonuniform List<scalar> 
2916
(
1.74311e-05
0.27892
-0.278938
1.26769e-05
0.27892
-0.278915
2.65246e-06
0.27892
-0.27891
1.82632e-08
0.27892
-0.278918
-5.4178e-06
0.27892
-0.278914
0.27892
-0.278925
1.74044e-05
0.513237
-0.234334
1.23755e-05
0.513245
-0.234319
3.93826e-06
0.513241
-0.234313
2.668e-06
0.513242
-0.234321
-2.57135e-06
0.513244
-0.234319
0.513237
-0.23432
1.54886e-05
0.683892
-0.170671
8.9757e-06
0.683911
-0.17066
2.95438e-06
0.683904
-0.170657
3.53164e-06
0.683906
-0.170664
-7.11995e-07
0.683909
-0.170661
0.683894
-0.170658
1.3047e-05
0.817419
-0.133539
6.1946e-06
0.817447
-0.133529
2.64339e-06
0.817438
-0.13353
3.07275e-06
0.817439
-0.133534
-8.2972e-07
0.817444
-0.133531
0.817423
-0.133529
1.17503e-05
0.904567
-0.0871604
4.8126e-06
0.904601
-0.0871468
2.40843e-06
0.90459
-0.0871498
2.21411e-06
0.904591
-0.0871517
-2.00403e-06
0.904597
-0.0871482
0.90457
-0.0871489
8.61154e-06
0.873454
0.0311043
4.25977e-06
0.87349
0.0311149
8.22632e-07
0.873479
0.031114
-1.87274e-07
0.87348
0.0311123
-3.1613e-06
0.873486
0.0311136
0.873454
0.0311126
4.53012e-06
0.648546
0.224904
2.81361e-06
0.648582
0.22491
-1.89642e-06
0.648575
0.224909
-4.51382e-06
0.648574
0.224908
-5.17808e-06
0.648581
0.224906
0.648543
0.224906
1.08902e-06
0.203154
0.445391
1.54966e-06
0.203185
0.445397
-3.7308e-06
0.203186
0.445394
-7.06042e-06
0.203184
0.445394
-1.06017e-05
0.203191
0.445393
0.203142
0.44539
1.38774e-05
-0.401815
0.604954
2.79639e-06
-0.401798
0.604994
-3.15226e-06
-0.401782
0.604974
-8.748e-06
-0.401785
0.604975
-2.51409e-05
-0.401776
0.604983
-0.401849
0.604966
4.23382e-05
-0.826118
0.424261
1.131e-05
-0.826106
0.424339
4.75221e-06
-0.826087
0.424312
-3.74915e-06
-0.826089
0.424312
-3.44085e-05
-0.826076
0.424331
-0.826154
0.424271
7.03341e-05
-0.68693
-0.139258
1.13957e-05
-0.686909
-0.139138
1.80597e-06
-0.686904
-0.139174
-5.92753e-06
-0.686906
-0.139175
-4.45362e-05
-0.686891
-0.139146
-0.686942
-0.139257
1.07299e-05
-0.686941
-1.2662e-05
-0.686886
-1.1684e-05
-0.686905
-8.25333e-06
-0.686909
-6.42304e-06
-0.686893
-0.686948
9.30387e-05
2.00853
-2.28756
9.70184e-05
2.00865
-2.28757
2.18356e-05
2.00873
-2.28756
5.07369e-05
2.00864
-2.28759
4.88046e-05
2.00865
-2.28756
2.00867
-2.28754
-1.11537e-05
4.31914
-2.54493
4.09803e-05
4.31929
-2.54501
5.36181e-05
4.31938
-2.54498
7.78998e-05
4.31929
-2.54499
0.000101407
4.3193
-2.54499
4.31933
-2.54488
-7.4786e-05
6.73403
-2.58549
-1.18139e-05
6.73416
-2.58559
1.91991e-05
6.73425
-2.58556
6.39432e-05
6.73416
-2.58558
0.000130235
6.73417
-2.58559
6.73423
-2.58543
-0.00013931
8.22634
-1.62571
-0.000102483
8.22638
-1.62579
-0.000103635
8.22648
-1.62576
-4.71325e-05
8.22634
-1.62578
0.00010499
8.22627
-1.62579
8.22642
-1.62562
-0.000434866
7.13402
1.00559
-0.000352804
7.13355
1.00559
-0.000332427
7.13368
1.00563
-0.000266602
7.13352
1.0056
4.61341e-05
7.13322
1.00558
7.13363
1.00569
-0.000219463
4.21294
2.9524
-0.000222661
4.2125
2.95217
-0.000172814
4.21254
2.95221
-0.000122848
4.21242
2.95215
-1.17276e-05
4.21219
2.95203
4.21251
2.95222
3.59867e-05
1.88163
2.55618
-2.01907e-05
1.88164
2.55582
-7.2932e-06
1.88159
2.55584
4.78757e-06
1.88155
2.55577
-3.82287e-05
1.88153
2.55561
1.88153
2.55585
3.49259e-05
0.777063
1.54992
-1.26664e-05
0.777205
1.54988
-9.99767e-06
0.77715
1.54984
-5.08978e-06
0.777147
1.54979
-4.20931e-05
0.777191
1.54977
0.777077
1.5498
9.31056e-05
0.231715
1.15021
-1.66299e-06
0.231823
1.15047
-8.19864e-06
0.231792
1.15034
-9.49504e-06
0.231794
1.15033
-6.93762e-05
0.231834
1.1504
0.231723
1.15025
0.000134926
-0.0545677
0.710408
1.83965e-05
-0.0544478
0.710727
8.24344e-06
-0.0544701
0.710584
6.06544e-07
-0.0544664
0.71058
-6.76379e-05
-0.0544264
0.710659
-0.0545514
0.710478
0.0001766
-0.166155
-0.0278473
2.77212e-05
-0.165983
-0.027454
2.80001e-05
-0.166021
-0.0276229
6.10245e-06
-0.166022
-0.0275977
-7.90335e-05
-0.165962
-0.027526
-0.166125
-0.0277618
-3.93837e-05
-0.853057
-2.26476e-05
-0.852886
-8.26642e-06
-0.85294
3.21564e-06
-0.852942
3.68744e-05
-0.852888
-0.853037
-0.000117783
-0.485981
-1.80146
-6.14426e-05
-0.48598
-1.80165
1.23901e-05
-0.486018
-1.80162
4.08511e-05
-0.485983
-1.80163
7.76968e-05
-0.485946
-1.80165
-0.486015
-1.80145
-8.16838e-05
-0.93176
-2.09907
-2.05891e-05
-0.931752
-2.0993
1.16724e-05
-0.931772
-2.09926
4.55499e-05
-0.93175
-2.09926
0.000115783
-0.931717
-2.0993
-0.931734
-2.09905
-0.000101844
-1.11937
-2.39778
-3.21564e-05
-1.11942
-2.39799
-1.49923e-05
-1.11939
-2.39796
3.02851e-05
-1.11942
-2.39796
0.000145284
-1.11943
-2.398
-1.11928
-2.39774
-0.000209333
-0.467863
-2.277
-0.000103877
-0.4681
-2.27722
-0.000120339
-0.467968
-2.27717
-3.58325e-05
-0.468107
-2.27717
0.00021428
-0.468263
-2.27721
-0.467759
-2.27693
-0.000251048
0.582256
-0.0442763
-0.000186494
0.581901
-0.0444711
-0.000200962
0.582067
-0.0443954
-0.000145884
0.581881
-0.0444412
6.95871e-05
0.581633
-0.0445273
0.582213
-0.0442147
-7.64773e-05
1.69132
1.84341
-9.98624e-05
1.69104
1.84306
-9.12852e-05
1.69115
1.84313
-6.18216e-05
1.69099
1.84302
-4.35416e-05
1.69079
1.84286
1.69118
1.84322
0.00028147
2.41651
1.83071
4.64046e-05
2.41687
1.83024
5.55774e-05
2.4167
1.83028
2.62522e-05
2.41663
1.83015
-0.000174948
2.41663
1.82998
2.41658
1.83028
0.000771115
1.43439
2.53127
-3.30925e-05
1.43658
2.53097
-4.72164e-06
1.4355
2.53101
-8.87841e-06
1.43551
2.53092
-0.000320083
1.43583
2.53088
1.43517
2.5309
0.000804123
0.0516717
2.53213
-9.77495e-05
0.0523832
2.53556
-6.69554e-05
0.0520481
2.53376
2.62143e-05
0.0520514
2.5337
-0.000206914
0.0522
2.53427
0.0518992
2.53331
0.000668384
0.0674028
0.694009
1.72056e-05
0.0677706
0.695991
-2.94313e-05
0.0676058
0.695073
3.68741e-05
0.0676073
0.694958
-0.000283969
0.0677079
0.695472
0.0675039
0.694589
0.000417927
-0.0536829
0.0928203
5.02682e-05
-0.0533755
0.0940599
-1.59666e-05
-0.0534672
0.0935162
1.282e-05
-0.0534652
0.0934459
-0.000174198
-0.0533982
0.093767
-0.0536052
0.0931731
-0.000123981
-0.906615
-2.88096e-05
-0.906356
-7.29149e-06
-0.906429
2.2962e-05
-0.906438
0.000117707
-0.906381
-0.906525
1.43526e-05
-0.262276
-1.5392
8.75931e-06
-0.262175
-1.53947
2.74248e-06
-0.262188
-1.53942
-1.27515e-05
-0.262188
-1.53943
-2.14845e-05
-0.262166
-1.53948
-0.262283
-1.53919
3.42249e-05
-0.745506
-1.61587
1.23972e-05
-0.745318
-1.61613
2.90624e-07
-0.745348
-1.61609
-1.43456e-05
-0.745345
-1.61609
-3.32432e-05
-0.745306
-1.61614
-0.745512
-1.61585
-6.71403e-06
-1.55827
-1.58501
-1.90612e-05
-1.55807
-1.58524
-1.37628e-05
-1.55811
-1.5852
-1.41972e-05
-1.55811
-1.5852
-1.2467e-05
-1.55807
-1.58524
-1.55828
-1.58499
-7.78889e-05
-2.50299
-1.33221
-6.73658e-05
-2.50286
-1.33244
-5.70991e-05
-2.5029
-1.33239
-3.35901e-05
-2.50292
-1.33239
1.62764e-05
-2.5029
-1.33243
-2.50301
-1.33218
-0.000152148
-2.21277
-0.334337
-0.000104622
-2.21279
-0.334586
-7.12207e-05
-2.2128
-0.334529
-1.72616e-05
-2.21286
-0.334554
6.89264e-05
-2.2129
-0.334621
-2.21284
-0.33432
-8.32053e-05
-1.04423
0.674961
-4.24809e-05
-1.04431
0.674538
3.60048e-06
-1.04433
0.674614
3.54778e-05
-1.0444
0.674538
6.53919e-05
-1.04447
0.674409
-1.04436
0.674802
0.000306044
0.070477
0.715695
9.83403e-05
0.071209
0.714924
0.000137362
0.0707521
0.715159
0.000135898
0.0706763
0.715073
3.45038e-05
0.0707156
0.714891
0.0707168
0.715238
0.000934056
-0.701707
3.30252
0.000228778
-0.699225
3.30211
4.47599e-05
-0.70044
3.30239
0.000100259
-0.700797
3.30234
-0.000207403
-0.700274
3.30218
-0.70083
3.30224
0.00413243
-2.85551
4.68179
-0.000635217
-2.84973
4.69083
-0.00071892
-2.85259
4.68599
-5.08457e-05
-2.85346
4.68569
-0.000792924
-2.85222
4.68696
-2.85358
4.68526
0.00179373
-0.892123
-1.27117
3.25265e-05
-0.890438
-1.26154
-0.000194383
-0.891189
-1.2661
7.43706e-05
-0.891418
-1.26735
-0.000619161
-0.89088
-1.26518
-0.891647
-1.26796
0.000673572
-0.0744172
-0.725559
2.32616e-05
-0.0735723
-0.722155
-0.000109872
-0.0739244
-0.723615
3.34645e-05
-0.0740134
-0.724102
-0.000139005
-0.0738227
-0.723118
-0.0741363
-0.724476
-0.000250027
-0.980782
1.54171e-05
-0.980194
8.27112e-05
-0.980421
4.42732e-05
-0.980413
0.000116679
-0.980276
-0.980544
-2.3045e-06
-0.0680695
0.0680718
-4.06597e-06
-0.0680733
0.0680734
-4.43718e-06
-0.0680743
0.0680735
-3.96418e-06
-0.068075
0.0680735
-2.60438e-06
-0.0680757
0.0680736
-0.0680745
0.0680713
-4.32954e-06
-0.139104
0.0710375
-5.42573e-06
-0.139112
0.0710381
-5.11801e-06
-0.139113
0.0710378
-4.22436e-06
-0.139114
0.0710377
-2.74528e-06
-0.139115
0.0710376
-0.139112
0.0710348
-6.29117e-06
-0.216241
0.0771424
-6.01188e-06
-0.216253
0.0771413
-4.50428e-06
-0.216255
0.0771405
-2.83248e-06
-0.216256
0.0771402
-1.36604e-06
-0.216256
0.0771399
-0.216251
0.0771374
-9.44958e-06
-0.302535
0.0863043
-6.24415e-06
-0.302552
0.0862963
-1.89742e-06
-0.302552
0.0862923
1.47735e-06
-0.302549
0.0862898
2.36227e-06
-0.302546
0.0862883
-0.302534
0.0862856
-9.97872e-06
-0.400173
0.0976478
1.6185e-06
-0.400189
0.0976259
1.39638e-05
-0.400181
0.0976162
2.06491e-05
-0.400169
0.0976122
1.80296e-05
-0.400156
0.0976121
-0.400131
0.0976148
1.61541e-06
-0.508618
0.108443
3.20836e-05
-0.508623
0.108404
5.66682e-05
-0.508596
0.108392
6.0829e-05
-0.508566
0.108394
4.67624e-05
-0.508544
0.108404
-0.508504
0.10842
3.23545e-05
-0.620748
0.112097
8.37481e-05
-0.620724
0.112051
0.000126784
-0.620685
0.112049
8.98715e-05
-0.620603
0.112076
5.04031e-05
-0.620606
0.112104
-0.620597
0.112143
8.99922e-05
-0.707639
0.0868027
9.20374e-05
-0.707527
0.0868038
0.000233453
-0.707599
0.0867731
-2.72459e-05
-0.707277
0.0869356
-0.000131032
-0.707441
0.0869376
-0.707681
0.086954
0.000224034
-0.654352
-0.0535087
3.21183e-06
-0.654099
-0.0532041
0.0008853
-0.654375
-0.0541059
-0.0007421
-0.653636
-0.0520156
-0.00164653
-0.653977
-0.0525631
-0.654745
-0.0545846
0.000297119
-0.16924
-0.485409
-0.000322802
-0.169255
-0.484222
0.00406098
-0.16843
-0.490326
-0.00228883
-0.170153
-0.47713
-0.00779066
-0.169639
-0.478832
-0.167621
-0.494914
0.00021788
0.433877
-0.603335
-2.03592e-06
0.433564
-0.602605
0.00474051
0.434774
-0.607954
-0.00169047
0.432369
-0.596097
-0.0106612
0.432786
-0.593459
0.436003
-0.61429
0.000204467
0.433675
8.56038e-05
0.433689
0.000663559
0.434201
-0.000370599
0.433405
-0.002247
0.434663
0.433757
-2.65905e-06
-0.0689592
0.137032
-3.90022e-06
-0.0689633
0.137036
-3.94878e-06
-0.0689642
0.137036
-3.40638e-06
-0.0689647
0.137037
-2.30172e-06
-0.0689653
0.137037
-0.0689638
0.137033
-3.03571e-06
-0.140451
0.142531
-3.40813e-06
-0.140459
0.142534
-3.00216e-06
-0.140461
0.142534
-2.30114e-06
-0.140461
0.142534
-1.43019e-06
-0.140462
0.142533
-0.140459
0.142528
-1.94986e-06
-0.216418
0.153112
-8.04117e-07
-0.216431
0.153112
4.62551e-07
-0.216432
0.153111
1.08024e-06
-0.216431
0.15311
7.16231e-07
-0.216431
0.153109
-0.216425
0.153104
3.6779e-06
-0.2982
0.168083
8.88242e-06
-0.298215
0.168075
1.18563e-05
-0.298212
0.168069
1.16194e-05
-0.298207
0.168065
7.6524e-06
-0.298203
0.168063
-0.29819
0.168058
1.83926e-05
-0.386758
0.186186
3.18384e-05
-0.386766
0.186162
3.67352e-05
-0.38675
0.186149
3.24803e-05
-0.386736
0.186144
2.16389e-05
-0.386725
0.186145
-0.386702
0.186148
4.11508e-05
-0.48344
0.205084
5.91355e-05
-0.483425
0.205044
7.02321e-05
-0.483396
0.205027
3.98787e-05
-0.483348
0.205038
1.72939e-05
-0.483349
0.205052
-0.483335
0.205071
8.41016e-05
-0.594961
0.223537
5.8235e-05
-0.594851
0.223506
0.000113863
-0.594907
0.223506
-3.34844e-05
-0.594615
0.223492
-7.65544e-05
-0.594748
0.223545
-0.594929
0.22366
0.000158596
-0.738809
0.230495
-4.67653e-05
-0.738412
0.230574
0.000423854
-0.739199
0.230597
-0.000550859
-0.737181
0.230476
-0.000936037
-0.73785
0.230424
-0.739935
0.231024
0.000167931
-0.807366
0.0148812
-0.000518458
-0.80648
0.0155519
0.0052223
-0.81106
0.012015
-0.00272862
-0.800525
0.0192804
-0.00957152
-0.801359
0.0177905
-0.815081
0.0109887
-0.00033105
0.115381
-1.40782
-0.000496216
0.115371
-1.40591
0.0190977
0.108774
-1.42976
-0.00543283
0.124253
-1.37738
-0.0357585
0.126751
-1.37662
0.103054
-1.44881
-0.000407279
1.31255
-1.80009
0.00154666
1.31257
-1.80175
0.0101571
1.30781
-1.81559
-0.000905291
1.31922
-1.78
-0.0265189
1.32127
-1.76237
1.30242
-1.84018
0.000919031
1.74529
0.00123688
1.74593
0.000866693
1.74238
0.000625449
1.75286
-0.00959868
1.76616
1.72657
-1.8484e-06
-0.0659856
0.203019
-1.92103e-06
-0.0659888
0.203025
-1.55578e-06
-0.065989
0.203025
-1.0041e-06
-0.0659889
0.203026
-4.614e-07
-0.0659886
0.203026
-0.0659861
0.20302
-1.35571e-06
-0.136695
0.213242
-4.39111e-07
-0.136702
0.213247
5.59215e-07
-0.136702
0.213246
1.23493e-06
-0.136701
0.213246
1.35163e-06
-0.1367
0.213246
-0.136695
0.213239
9.48521e-07
-0.217959
0.234376
3.81005e-06
-0.217971
0.234379
5.87992e-06
-0.21797
0.234377
6.2298e-06
-0.217968
0.234375
4.50721e-06
-0.217965
0.234374
-0.217954
0.234366
7.84166e-06
-0.317479
0.267595
1.50399e-05
-0.317496
0.267592
1.83069e-05
-0.317491
0.267585
1.67563e-05
-0.317484
0.267581
1.10111e-05
-0.317477
0.267578
-0.317458
0.267571
2.14797e-05
-0.445161
0.313846
3.37767e-05
-0.445182
0.313832
3.84576e-05
-0.445169
0.313819
2.65034e-05
-0.445147
0.313817
1.35863e-05
-0.44514
0.313819
-0.44512
0.313824
4.17403e-05
-0.614438
0.374318
2.99552e-05
-0.614422
0.374297
6.05451e-05
-0.614449
0.374277
-1.34535e-05
-0.614326
0.374291
-4.03179e-05
-0.614374
0.374313
-0.614441
0.374352
7.90038e-05
-0.849353
0.458372
-6.91132e-05
-0.849103
0.458336
4.02003e-05
-0.849465
0.458415
-0.000290376
-0.848765
0.458263
-0.000356735
-0.849174
0.458412
-0.849748
0.45861
0.000140006
-1.21996
0.600964
-0.000413536
-1.21884
0.600871
0.00185626
-1.22282
0.60168
-0.00167727
-1.21465
0.599894
-0.00407504
-1.21676
0.600411
-1.22534
0.602542
0.000140064
-1.92991
0.724691
-0.000966678
-1.92647
0.724281
0.0132192
-1.9479
0.722908
-0.00579559
-1.90212
0.72576
-0.024007
-1.90596
0.725202
-1.96204
0.723677
0.000431758
-2.59159
-0.746575
0.000559777
-2.58644
-0.746062
0.00590322
-2.6127
-0.77029
-0.00058158
-2.55743
-0.715583
-0.0087763
-2.55853
-0.715855
-2.631
-0.788624
0.000609091
-0.967513
-3.42478
0.00282496
-0.965355
-3.42506
-0.0120202
-0.973312
-3.44014
0.00916988
-0.956346
-3.40227
0.0302155
-0.958095
-3.38385
-0.976943
-3.46401
0.000727661
0.777055
0.00260751
0.778693
0.00565814
0.766009
0.00396826
0.798203
-0.017088
0.829122
0.732542
-1.09769e-06
-0.0587201
0.26174
-2.42369e-07
-0.0587226
0.261748
5.00391e-07
-0.0587223
0.261748
9.34585e-07
-0.0587218
0.261748
9.75068e-07
-0.0587212
0.261748
-0.0587185
0.26174
7.81259e-07
-0.120723
0.275245
2.35135e-06
-0.120728
0.275253
3.18267e-06
-0.120728
0.275252
3.35264e-06
-0.120726
0.275252
2.68867e-06
-0.120725
0.275251
-0.120719
0.275242
4.59e-06
-0.188439
0.302088
7.3253e-06
-0.188446
0.302094
8.19327e-06
-0.188444
0.302092
7.23123e-06
-0.188441
0.30209
4.48423e-06
-0.188438
0.302089
-0.188428
0.302078
1.24971e-05
-0.263817
0.342961
1.65954e-05
-0.263825
0.342964
1.67861e-05
-0.263821
0.342959
1.22003e-05
-0.263814
0.342956
6.53181e-06
-0.26381
0.342955
-0.263795
0.342945
2.12129e-05
-0.349797
0.399802
1.57909e-05
-0.349792
0.399801
1.6948e-05
-0.349801
0.399796
-4.35228e-07
-0.349778
0.399797
-3.77328e-06
-0.349791
0.399803
-0.349774
0.399801
1.66109e-05
-0.454402
0.478905
-4.0779e-05
-0.454329
0.47889
-3.42868e-05
-0.454443
0.478912
-8.78734e-05
-0.454349
0.478917
-4.94771e-05
-0.454466
0.478951
-0.454436
0.478965
-6.28483e-06
-0.612053
0.61603
-0.000281215
-0.611691
0.615977
-0.000195457
-0.612296
0.616183
-0.000354931
-0.611848
0.615922
-8.40322e-05
-0.612573
0.61625
-0.611993
0.616085
-5.61925e-06
-0.919811
0.908729
-0.000747009
-0.918508
0.908432
-0.000237506
-0.920585
0.909461
-0.00136926
-0.918566
0.907745
-0.000134251
-0.922616
0.909221
-0.91819
0.908606
0.000770186
-1.56864
1.37275
-0.000814615
-1.5638
1.37116
-0.00406779
-1.56575
1.37133
-0.00188496
-1.56862
1.37363
0.00762066
-1.58197
1.37506
-1.55607
1.36918
0.00204021
-2.93273
0.615476
-0.000696173
-2.92019
0.613057
-0.02818
-2.91349
0.604932
0.0069766
-2.94827
0.628906
0.0505257
-2.96812
0.626738
-2.89202
0.597844
-0.000743003
-3.49009
-2.86668
-0.000645793
-3.48454
-2.86081
-0.010807
-3.47785
-2.86561
0.00346435
-3.50411
-2.8607
0.0365605
-3.51649
-2.86858
-3.46015
-2.85932
-0.00455187
-2.70848
0.00104593
-2.71144
0.00120718
-2.71201
0.000333203
-2.70503
0.0126088
-2.69964
-2.715
4.10558e-05
-1.46767
-0.0715742
1.54487e-05
-1.46786
-0.0715847
5.77244e-07
-1.46783
-0.0715824
-1.60297e-05
-1.46783
-0.0715842
-4.6792e-05
-1.46786
-0.0715886
-1.46767
-0.0715757
4.09467e-05
-1.34476
-0.122952
1.33645e-05
-1.34488
-0.122954
-1.96031e-06
-1.34486
-0.122954
-1.657e-05
-1.34486
-0.122954
-4.53848e-05
-1.34488
-0.122954
-1.34476
-0.122953
2.65489e-05
-0.0273683
8.4949e-06
-0.0273673
-4.80479e-07
-0.0273677
-9.68493e-06
-0.0273678
-2.8328e-05
-0.0273673
-0.0273681
3.31696e-05
-1.47179
-0.21569
9.36407e-06
-1.47198
-0.215714
-6.35813e-06
-1.47195
-0.21571
-2.2923e-05
-1.47195
-0.215713
-4.57465e-05
-1.47199
-0.215722
-1.47178
-0.215695
4.004e-05
-1.28696
-0.307827
1.23775e-05
-1.28708
-0.307832
-3.74751e-06
-1.28705
-0.307831
-1.98414e-05
-1.28705
-0.30783
-4.97578e-05
-1.28708
-0.30783
-1.28695
-0.307825
2.51954e-05
-0.0645654
7.92944e-06
-0.0645632
-3.15953e-07
-0.0645642
-8.5777e-06
-0.0645643
-2.64058e-05
-0.0645637
-0.064566
1.72319e-05
-1.32576
-0.47496
1.77566e-06
-1.32594
-0.474992
-1.13254e-05
-1.32591
-0.474988
-2.29778e-05
-1.32591
-0.474989
-3.23369e-05
-1.32595
-0.474999
-1.32574
-0.474969
3.90116e-05
-1.06539
-0.568238
1.06968e-05
-1.0655
-0.568246
-5.70866e-06
-1.06548
-0.568245
-2.15781e-05
-1.06548
-0.568244
-5.02521e-05
-1.06551
-0.568246
-1.06539
-0.568234
2.19225e-05
-0.110025
5.86206e-06
-0.11002
-1.95192e-06
-0.110022
-8.94831e-06
-0.110023
-2.56221e-05
-0.110022
-0.110027
1.37763e-05
-0.937788
-0.869399
-2.42558e-07
-0.937984
-0.869429
-7.73253e-06
-0.937948
-0.869422
-2.00947e-05
-0.937948
-0.869416
-3.799e-05
-0.937988
-0.869418
-0.937783
-0.869401
4.35395e-05
-0.704792
-0.801278
1.01303e-05
-0.704902
-0.801296
-4.78333e-06
-0.704886
-0.801294
-1.87689e-05
-0.704887
-0.801294
-4.87121e-05
-0.704908
-0.801297
-0.704798
-0.801274
1.39786e-05
-0.161641
-8.5434e-08
-0.161634
-5.40327e-06
-0.161636
-9.57371e-06
-0.161635
-2.2577e-05
-0.161633
-0.16164
2.95221e-05
-0.00404039
-1.19972
1.7007e-05
-0.00424418
-1.19976
2.20209e-05
-0.00421174
-1.19975
1.07377e-06
-0.00421458
-1.19973
-5.52915e-05
-0.00425622
-1.19973
-0.00405518
-1.19972
4.66841e-05
-0.162422
-0.642944
7.9915e-06
-0.162526
-0.642976
-3.75225e-06
-0.162511
-0.642981
-1.83435e-05
-0.162512
-0.642979
-5.36125e-05
-0.162531
-0.642987
-0.162422
-0.642959
8.55853e-06
-0.238057
-1.14447e-06
-0.238046
-2.49212e-06
-0.238051
-5.29711e-06
-0.238049
-1.39573e-05
-0.238051
-0.238059
2.08353e-05
0.528852
-1.05363
3.61634e-05
0.528672
-1.05391
5.43826e-05
0.528687
-1.05384
2.58697e-05
0.528681
-1.05385
-5.5e-05
0.528648
-1.05389
0.528798
-1.05378
-2.87029e-05
0.403344
-0.517408
-3.47677e-05
0.403237
-0.517535
-2.04036e-05
0.40325
-0.517556
-2.23027e-05
0.40325
-0.517545
-2.59461e-05
0.403229
-0.517565
0.40336
-0.51754
2.02647e-05
-0.209597
4.3352e-06
-0.209597
-9.25717e-07
-0.209617
-1.06095e-05
-0.20961
-2.37995e-05
-0.209619
-0.20961
4.22172e-05
0.544373
-0.882353
4.51742e-05
0.543969
-0.882958
8.37718e-05
0.544141
-0.882858
7.47434e-05
0.544129
-0.882895
3.86417e-05
0.54407
-0.88303
0.544188
-0.882694
-0.000104324
0.721495
-0.694428
-8.00882e-05
0.721396
-0.694987
-5.82101e-05
0.721439
-0.694876
-3.21657e-05
0.721429
-0.694872
6.72636e-06
0.721424
-0.694959
0.721478
-0.694825
-3.96847e-05
-0.057894
-5.0962e-05
-0.0579819
-3.19554e-05
-0.0580101
-3.27761e-05
-0.0579812
2.76697e-05
-0.0580363
-0.0579568
0.000831408
2.79088
-0.371546
0.000112424
2.79016
-0.370287
9.12032e-05
2.79074
-0.371194
0.000178403
2.79068
-0.371327
-0.000264892
2.79055
-0.370966
2.79078
-0.371493
0.000624285
1.5122
0.583629
1.0593e-05
1.5118
0.583987
4.15948e-05
1.51219
0.583644
8.53704e-05
1.51207
0.583698
-0.000193538
1.5121
0.583776
1.51218
0.58357
0.000204887
0.859528
8.39441e-06
0.859709
3.39262e-05
0.859636
1.19588e-05
0.859728
-8.54121e-05
0.859745
0.859616
-0.00303637
5.936
-1.62272
0.000375584
5.94652
-1.62939
0.000166808
5.94167
-1.62667
-0.00027951
5.94076
-1.62595
0.000588104
5.94237
-1.62725
5.94019
-1.62584
-0.0031534
5.08736
1.43543
-5.45852e-05
5.09118
1.43622
0.000237541
5.08985
1.43517
-0.000279443
5.08963
1.43534
9.42841e-05
5.09009
1.43568
5.08968
1.43417
-0.00119482
2.25399
-8.03136e-05
2.25395
6.85645e-05
2.25372
-0.000100629
2.25385
0.000147646
2.2536
2.25392
-0.00179472
0.146802
-3.0389
-0.000345149
0.145926
-3.03831
-2.59809e-05
0.145655
-3.03874
-4.83255e-05
0.146003
-3.03928
0.000699898
0.1462
-3.03937
0.145635
-3.03873
-0.000874688
2.12772
-0.54462
-0.000253667
2.12875
-0.547221
-0.000290374
2.12764
-0.54677
-9.47797e-05
2.12772
-0.546571
0.00137102
2.12811
-0.547696
2.12723
-0.546048
-0.00178055
1.79245
-6.6134e-05
1.78846
-0.000187025
1.78982
0.00028647
1.78951
0.00380156
1.78616
1.79375
-0.00164228
-2.58113
-1.18168
0.000305423
-2.58296
-1.17945
0.000325291
-2.58189
-1.18049
7.10295e-05
-2.58236
-1.18077
0.00108548
-2.58315
-1.18035
-2.58126
-1.18086
0.000992879
-1.29601
-1.83073
0.000996226
-1.29883
-1.83136
0.00138642
-1.29759
-1.83146
0.000829521
-1.29769
-1.83068
0.00117961
-1.30029
-1.83091
-1.29467
-1.83146
0.000558247
-0.630498
0.000451241
-0.633816
0.000368798
-0.632497
0.000418296
-0.632968
0.00145906
-0.636058
-0.628869
-0.0010975
-2.18077
0.0194032
4.55063e-05
-2.18057
0.0197847
0.00033155
-2.18084
0.0196404
6.11006e-05
-2.18051
0.0195917
-0.000192378
-2.18021
0.0198388
-2.18087
0.0192775
-0.000568476
-3.1417
-0.869226
-3.11169e-05
-3.1441
-0.868364
0.000273431
-3.14345
-0.869149
0.000226311
-3.14247
-0.868668
-0.000202262
-3.14173
-0.868968
-3.14368
-0.86886
0.000646059
-0.377763
0.000134335
-0.377873
-0.00020797
-0.377932
-0.000152517
-0.378093
-0.000165506
-0.378398
-0.377534
-0.00124837
-1.09921
-2.64484
3.74529
-0.00108623
-1.10402
-2.64552
3.74938
-0.00117216
-1.10264
-2.64352
3.74625
-0.000888493
-1.10198
-2.64593
3.74763
0.002482
-1.10728
-2.64675
3.75065
-1.09679
-2.63686
3.73614
-0.00978795
-1.46302
-3.37861
3.75221
-0.0024104
-1.52109
-3.36625
3.77594
0.00703465
-1.5264
-3.3647
3.77902
-0.00684239
-1.44386
-3.37821
3.73397
-0.000248357
-1.44689
-3.36926
3.70228
-1.54328
-3.37261
3.81884
-0.0085506
-1.19474
1.45956
-0.00172404
-1.16533
1.4361
0.0061787
-1.16112
1.43487
-0.00754318
-1.20168
1.46069
-0.0113989
-1.20029
1.44336
-1.15433
1.43866
-0.00025873
-0.874152
-1.77043
-0.000588791
-0.874382
-1.77081
-0.00241921
-0.871201
-1.77049
-0.000390741
-0.878859
-1.7691
0.00499841
-0.884471
-1.76767
-0.86131
-1.77056
-0.00243907
-1.82982
-2.4205
-0.000860239
-1.82438
-2.41783
0.00194584
-1.81984
-2.41887
0.00120983
-1.83791
-2.41843
0.00439579
-1.84194
-2.41498
-1.80502
-2.4245
-0.00987918
-0.824208
0.000152013
-0.819087
0.0145649
-0.819288
-0.00169033
-0.82342
-0.0201756
-0.821412
-0.81957
-0.000210074
-0.586401
-1.18382
-0.000235404
-0.586945
-1.18384
-0.000585955
-0.586213
-1.18393
4.69185e-05
-0.587022
-1.18271
0.00205668
-0.588301
-1.18138
-0.58362
-1.18488
-0.00149604
-0.800122
-2.20529
-0.00101021
-0.800552
-2.20471
-0.00179846
-0.799362
-2.20493
-4.40653e-05
-0.801755
-2.20545
0.00577063
-0.803731
-2.20537
-0.796108
-2.20625
-0.00177785
-0.683282
-0.000601588
-0.681101
-0.000125085
-0.681451
-0.000357289
-0.68251
0.000104256
-0.680505
-0.682561
-1.93698e-05
-0.48013
-0.703669
-1.83638e-05
-0.480262
-0.703579
5.054e-05
-0.480453
-0.703545
9.63257e-05
-0.47944
-0.703318
0.000301972
-0.478861
-0.70272
-0.480753
-0.703824
-0.00135143
-1.18224
-1.50183
-0.000727532
-1.18372
-1.50187
-0.00143966
-1.18312
-1.50155
-0.000105691
-1.18436
-1.50186
0.00658506
-1.19012
-1.5008
-1.17758
-1.50284
-0.00107003
-0.34851
-0.000376678
-0.347759
-0.000309654
-0.347899
-0.000588082
-0.347771
0.00121181
-0.346333
-0.349396
0.00013751
-0.278582
-0.425225
2.64497e-05
-0.278279
-0.425189
0.000255934
-0.278583
-0.425192
-8.34443e-05
-0.277852
-0.425127
-0.0012371
-0.276295
-0.425271
-0.280067
-0.424995
-0.00112052
-1.35648
-0.422807
-0.000300338
-1.35749
-0.42348
-0.000997986
-1.35666
-0.422774
0.000102532
-1.35762
-0.423198
0.00490819
-1.35962
-0.422278
-1.35444
-0.423559
-0.000811533
0.0242692
-0.000220628
0.0245057
-0.000444944
0.0244554
6.07299e-05
0.0247304
0.00304807
0.0254457
0.0240664
1.47691e-05
-0.405837
3.66548e-05
-0.405426
0.000304181
-0.405819
7.02328e-05
-0.405301
-0.00117424
-0.404188
-0.406892
-0.00132503
-1.69654
-0.000104964
-1.69849
-0.000508607
-1.69734
2.34378e-05
-1.6977
0.00266241
-1.69807
-1.69665
-0.000784594
-0.000170802
-0.000492974
-0.000251572
0.00167687
-8.28768e-08
0.305262
-0.0435217
8.2088e-07
0.305272
-0.0435229
1.23677e-06
0.305272
-0.0435227
1.3284e-06
0.305272
-0.0435225
1.13957e-06
0.305272
-0.0435223
0.305262
-0.0435207
3.55835e-07
0.333118
-0.0278552
9.63761e-07
0.333129
-0.0278561
1.06689e-06
0.333129
-0.0278561
9.62629e-07
0.333129
-0.0278561
7.52478e-07
0.333129
-0.0278561
0.333118
-0.0278552
5.10572e-07
-0.0106276
6.13389e-07
-0.010628
5.44268e-07
-0.0106281
4.09643e-07
-0.0106282
2.26212e-07
-0.0106282
-0.0106279
1.29256e-06
0.322772
-0.0910484
2.31983e-06
0.322782
-0.0910517
2.55839e-06
0.322782
-0.0910515
2.35762e-06
0.322781
-0.0910514
1.81695e-06
0.322781
-0.0910514
0.32277
-0.0910482
1.01738e-06
0.352396
-0.0574787
1.38415e-06
0.352407
-0.0574808
1.33933e-06
0.352407
-0.0574808
1.08443e-06
0.352406
-0.0574808
6.54101e-07
0.352406
-0.057481
0.352395
-0.0574791
4.12588e-07
-0.0223919
4.05959e-07
-0.022393
3.31992e-07
-0.0223931
2.03528e-07
-0.0223932
1.56013e-08
-0.0223933
-0.0223923
2.74017e-06
0.359186
-0.148149
3.68174e-06
0.359196
-0.148155
3.44774e-06
0.359195
-0.148155
2.29897e-06
0.359194
-0.148155
1.00982e-06
0.359193
-0.148156
0.359182
-0.148151
1.03322e-06
0.392187
-0.0904815
1.42725e-06
0.3922
-0.0904849
1.18364e-06
0.392199
-0.0904848
6.11661e-07
0.392199
-0.0904851
-3.45044e-08
0.392199
-0.0904856
0.392186
-0.0904829
-3.32316e-08
-0.0363172
1.40763e-07
-0.036319
1.01418e-07
-0.0363192
-4.90844e-08
-0.0363191
3.42079e-09
-0.0363195
-0.0363178
3.72051e-06
0.417413
-0.222606
4.19948e-06
0.417424
-0.222616
2.57151e-06
0.417421
-0.222617
-5.47547e-07
0.41742
-0.222617
-2.8123e-06
0.417419
-0.222618
0.417405
-0.222614
1.14166e-06
0.455265
-0.128335
1.99148e-06
0.455279
-0.128341
3.28764e-07
0.455278
-0.12834
-1.21234e-06
0.455278
-0.128342
-2.78892e-06
0.455278
-0.128343
0.455264
-0.128343
-2.28856e-07
-0.0524666
-1.44923e-09
-0.0524695
-1.89359e-07
-0.0524701
-8.34577e-07
-0.0524697
-5.95999e-07
-0.0524711
-0.0524698
2.11614e-06
0.501819
-0.324626
-2.12538e-06
0.501828
-0.32464
-1.56466e-05
0.501826
-0.324633
-1.11003e-05
0.501828
-0.324652
1.86703e-06
0.501829
-0.324657
0.501814
-0.324624
-4.15219e-07
0.545996
-0.172512
7.14108e-07
0.546014
-0.172528
-7.69422e-06
0.546012
-0.172517
-8.95181e-06
0.546013
-0.172526
-1.89763e-05
0.546013
-0.172516
0.545999
-0.172548
-1.58646e-06
-0.0683761
-1.84327e-06
-0.0683817
-3.13661e-06
-0.0683834
-6.08298e-06
-0.0683805
-7.16499e-06
-0.0683852
-0.0683897
-1.67023e-05
0.615224
-0.460929
-1.79396e-05
0.615233
-0.460982
-8.10918e-05
0.615241
-0.460898
-4.52435e-05
0.615266
-0.461036
3.74573e-05
0.615282
-0.461069
0.615255
-0.460876
-6.98603e-06
0.670565
-0.227845
4.48055e-06
0.67059
-0.227896
-3.0797e-05
0.670579
-0.22782
-1.96268e-05
0.670591
-0.227861
-3.95377e-05
0.670582
-0.227796
0.670571
-0.227903
-6.96246e-06
-0.0745289
-3.9323e-06
-0.0745471
-3.26886e-06
-0.0745528
-1.82404e-05
-0.0745234
-3.83134e-05
-0.0745311
-0.0745941
-7.01263e-05
0.765371
-0.6102
0.0001545
0.765438
-0.610667
0.000191032
0.765494
-0.610245
-0.000161493
0.765423
-0.610183
-0.00128899
0.765548
-0.609239
0.765564
-0.611644
-5.84587e-05
0.804788
-0.267203
0.000118958
0.804857
-0.267492
0.000128634
0.804842
-0.267177
-7.20882e-05
0.804864
-0.267099
-0.000550551
0.80487
-0.266638
0.804895
-0.267784
1.90267e-05
-0.0878254
8.40506e-05
-0.0878692
0.000137142
-0.087843
3.80271e-05
-0.0876146
-0.000115926
-0.0875274
-0.0878909
0.000164671
1.05931
-0.760941
0.000600776
1.05945
-0.762118
0.000738737
1.05953
-0.760447
-0.000183846
1.05931
-0.760824
-0.00583487
1.05981
-0.754179
1.05896
-0.767832
-0.000297007
1.04926
-0.256863
0.000940297
1.04969
-0.258971
0.0018027
1.04948
-0.257993
-0.0002529
1.04904
-0.254776
-0.00666804
1.04878
-0.249187
1.05027
-0.265762
-0.000196558
0.0820009
-0.000104344
0.0818099
-3.32832e-05
0.0817755
-0.000294861
0.08201
-0.000759154
0.0822095
0.0811613
0.000821903
1.25234
-0.641346
-0.00105595
1.25198
-0.641057
-0.00537703
1.25132
-0.636119
0.000477264
1.25378
-0.646829
0.00352802
1.25423
-0.636401
1.25118
-0.646308
0.00100634
1.28787
-0.293399
0.00110183
1.28789
-0.294983
0.000757005
1.28693
-0.293256
0.000849569
1.28888
-0.289965
-0.00382186
1.28859
-0.27888
1.2862
-0.304594
-9.26338e-05
0.0615779
0.00164742
0.0593068
0.00429968
0.0582158
0.000750321
0.0665661
-0.00556049
0.0696513
0.0547531
-0.00128094
0.913166
-0.937754
-0.00468694
0.908251
-0.932845
-0.0189495
0.905679
-0.922602
0.00222564
0.919392
-0.958489
0.0270876
0.927809
-0.962334
0.894391
-0.915767
-0.0226394
0.65382
-0.0114148
-0.00109174
0.659264
-0.0675437
0.0387686
0.659752
-0.0871913
-0.00973104
0.651961
0.0259639
-0.0910004
0.653442
0.0767565
0.669453
-0.170656
0.000949624
0.779141
-0.00462767
0.785001
-0.0129035
0.787556
-0.00406027
0.774416
0.0132358
0.77549
0.787526