/*--------------------------------*- C++ -*----------------------------------*\
| =========                 |                                                 |
| \\      /  F ield         | OpenFOAM: The Open Source CFD Toolbox           |
|  \\    /   O peration     | Version:  v1612+                                |
|   \\  /    A nd           | Web:      www.OpenFOAM.com                      |
|    \\/     M anipulation  |                                                 |
\*---------------------------------------------------------------------------*/
FoamFile
{
    version     2.0;
    format      ascii;
    class       volScalarField;
    location    "4.95";
    object      p;
}
// * * * * * * * * * * * * * * * * * * * * * * * * * * * * * * * * * * * * * //

dimensions      [1 -1 -2 0 0 0 0];

internalField   nonuniform List<scalar> 
320
(
14724.8
14724.8
14724.8
14724.8
4.96503
4.9643
4.9645
4.96535
4.96539
4.96671
4.96577
4.96681
4.96618
4.96559
4.96477
4.96419
4914.89
4914.88
4914.88
4914.89
4914.86
4914.87
4914.86
4914.85
4914.88
4914.89
4914.83
4914.85
14724.8
14724.8
14724.8
14724.8
14724.8
14724.8
14724.8
14724.8
14724.8
14724.8
14724.8
14724.8
24534.8
24534.8
24534.8
24534.8
24534.8
24534.8
24534.8
24534.8
24534.8
24534.8
24534.8
24534.8
24534.8
24534.8
24534.8
24534.8
4.96363
4.96302
4.96388
4.96509
4.96465
4.96487
4.96494
4.96448
4.96451
4.96428
4.96553
4.96516
4.96756
4.96638
4.96571
4.96717
4.96596
4.96395
4.96347
4.96425
4914.81
4914.87
4914.87
4914.83
4914.83
4914.85
4914.86
4914.85
4914.86
4914.83
4914.85
4914.82
4914.85
4914.82
4914.83
4914.85
4914.85
4914.85
4914.81
4914.84
14724.8
14724.8
14724.8
14724.8
14724.8
14724.8
14724.8
14724.8
14724.8
14724.8
14724.8
14724.8
14724.8
14724.8
14724.8
14724.8
14724.8
14724.8
14724.8
14724.8
24534.8
24534.8
24534.8
24534.8
24534.8
24534.8
24534.8
24534.8
24534.8
24534.8
24534.8
24534.8
24534.8
24534.8
24534.8
24534.8
24534.8
24534.8
24534.8
24534.8
34344.8
34344.8
34344.8
34344.8
34344.8
34344.8
34344.8
34344.8
34344.8
34344.8
34344.8
34344.8
34344.8
34344.8
34344.8
34344.8
34344.8
34344.8
34344.8
34344.8
34344.8
34344.8
34344.8
34344.8
34344.8
34344.8
34344.8
34344.8
34344.8
34344.8
34344.8
34344.8
34344.8
34344.8
34344.8
34344.8
4.96727
4.96805
4.96138
4.96439
4.96559
4.96507
4.96412
4.96501
4.96596
4.96496
4.96476
4.96514
4.96044
4.96642
4.96429
4.96556
4.96582
4.96872
4.96612
4.96584
4.96555
4.96226
4.96636
4.96535
4.96436
4.9635
4.96248
4.96432
4914.89
4914.89
4914.86
4914.84
4914.83
4914.83
4914.86
4914.88
4914.87
4914.9
4914.89
4914.88
4914.79
4914.82
4914.85
4914.87
4914.86
4914.88
4914.8
4914.79
4914.83
4914.86
4914.86
4914.86
4914.83
4914.82
4914.85
4914.89
14724.8
14724.8
14724.8
14724.8
14724.8
14724.8
14724.8
14724.8
14724.8
14724.8
14724.8
14724.8
14724.8
14724.8
14724.8
14724.8
14724.8
14724.8
14724.8
14724.8
14724.8
14724.8
14724.8
14724.8
14724.8
14724.8
14724.8
14724.8
24534.8
24534.8
24534.8
24534.8
24534.8
24534.8
24534.8
24534.8
24534.8
24534.8
24534.8
24534.8
24534.8
24534.8
24534.8
24534.8
24534.8
24534.8
24534.8
24534.8
24534.8
24534.8
24534.8
24534.8
24534.8
24534.8
24534.8
24534.8
34344.8
34344.8
34344.8
34344.8
34344.8
34344.8
34344.8
34344.8
34344.8
34344.8
34344.8
34344.8
34344.8
34344.8
34344.8
34344.8
34344.8
34344.8
34344.8
34344.8
34344.8
34344.8
34344.8
34344.8
34344.8
34344.8
34344.8
34344.8
4.96576
4.96609
4.96567
4.96584
4914.86
4914.86
4914.88
4914.84
)
;

boundaryField
{
    top_fluid_surface
    {
        type            calculated;
        value           nonuniform List<scalar> 
64
(
-1.72597e-08
-5.13003e-09
-2.13026e-09
-2.84979e-09
-2.79419e-09
-6.76402e-09
-6.00119e-09
0
-7.17784e-09
-1.57831e-08
0
-2.33871e-10
0
-5.2705e-09
-6.49057e-10
0
0
0
0
0
-1.9242e-09
0
0
0
-1.24156e-09
0
0
0
0
-2.80935e-10
0
0
0
0
-9.82019e-09
0
0
0
-2.00083e-08
-1.14918e-08
-1.33903e-08
-8.65873e-08
-4.43661e-08
-4.01862e-09
-8.39361e-08
0
0
-1.74781e-09
-7.96091e-09
-4.09587e-09
0
0
-2.15264e-09
-3.38709e-08
0
-1.11571e-09
0
0
-7.29235e-10
-2.03574e-08
-1.68345e-08
0
-7.85095e-11
0
)
;
    }
    bottom_fluid_surface
    {
        type            calculated;
        value           nonuniform List<scalar> 
64
(
39249.8
39249.8
39249.8
39249.8
39249.8
39249.8
39249.8
39249.8
39249.8
39249.8
39249.8
39249.8
39249.8
39249.8
39249.8
39249.8
39249.8
39249.8
39249.8
39249.8
39249.8
39249.8
39249.8
39249.8
39249.8
39249.8
39249.8
39249.8
39249.8
39249.8
39249.8
39249.8
39249.8
39249.8
39249.8
39249.8
39249.8
39249.8
39249.8
39249.8
39249.8
39249.8
39249.8
39249.8
39249.8
39249.8
39249.8
39249.8
39249.8
39249.8
39249.8
39249.8
39249.8
39249.8
39249.8
39249.8
39249.8
39249.8
39249.8
39249.8
39249.8
39249.8
39249.8
39249.8
)
;
    }
    lateral_surface_1
    {
        type            calculated;
        value           nonuniform List<scalar> 
40
(
4.96727
4.96805
4.96138
4.96439
4.96559
4.96507
4.96412
4.96432
4914.89
4914.89
4914.86
4914.84
4914.83
4914.83
4914.86
4914.89
14724.8
14724.8
14724.8
14724.8
14724.8
14724.8
14724.8
14724.8
24534.8
24534.8
24534.8
24534.8
24534.8
24534.8
24534.8
24534.8
34344.8
34344.8
34344.8
34344.8
34344.8
34344.8
34344.8
34344.8
)
;
    }
    lateral_surface_2
    {
        type            calculated;
        value           nonuniform List<scalar> 
40
(
4.96642
4.96429
4.96556
4.96582
4.96872
4.96612
4.96584
4.96555
4914.82
4914.85
4914.87
4914.86
4914.88
4914.8
4914.79
4914.83
14724.8
14724.8
14724.8
14724.8
14724.8
14724.8
14724.8
14724.8
24534.8
24534.8
24534.8
24534.8
24534.8
24534.8
24534.8
24534.8
34344.8
34344.8
34344.8
34344.8
34344.8
34344.8
34344.8
34344.8
)
;
    }
    lateral_surface_3
    {
        type            calculated;
        value           nonuniform List<scalar> 
40
(
4.96412
4.96501
4.96596
4.96496
4.96476
4.96514
4.96044
4.96642
4914.86
4914.88
4914.87
4914.9
4914.89
4914.88
4914.79
4914.82
14724.8
14724.8
14724.8
14724.8
14724.8
14724.8
14724.8
14724.8
24534.8
24534.8
24534.8
24534.8
24534.8
24534.8
24534.8
24534.8
34344.8
34344.8
34344.8
34344.8
34344.8
34344.8
34344.8
34344.8
)
;
    }
    lateral_surface_4
    {
        type            calculated;
        value           nonuniform List<scalar> 
40
(
4.96555
4.96226
4.96636
4.96535
4.96436
4.9635
4.96248
4.96432
4914.83
4914.86
4914.86
4914.86
4914.83
4914.82
4914.85
4914.89
14724.8
14724.8
14724.8
14724.8
14724.8
14724.8
14724.8
14724.8
24534.8
24534.8
24534.8
24534.8
24534.8
24534.8
24534.8
24534.8
34344.8
34344.8
34344.8
34344.8
34344.8
34344.8
34344.8
34344.8
)
;
    }
}


// ************************************************************************* //
