/*--------------------------------*- C++ -*----------------------------------*\
| =========                 |                                                 |
| \\      /  F ield         | OpenFOAM: The Open Source CFD Toolbox           |
|  \\    /   O peration     | Version:  v1612+                                |
|   \\  /    A nd           | Web:      www.OpenFOAM.com                      |
|    \\/     M anipulation  |                                                 |
\*---------------------------------------------------------------------------*/
FoamFile
{
    version     2.0;
    format      ascii;
    class       surfaceScalarField;
    location    "4.95";
    object      phi;
}
// * * * * * * * * * * * * * * * * * * * * * * * * * * * * * * * * * * * * * //

dimensions      [0 3 -1 0 0 0 0];

internalField   nonuniform List<scalar> 
816
(
-3.95421e-06
-6.56318e-06
2.61245e-06
-3.93306e-06
-8.21716e-06
2.00576e-05
3.14482e-06
3.45044e-06
-1.01484e-06
7.56644e-06
-1.71125e-05
-5.72348e-06
4.08534e-06
4.7356e-06
6.36723e-06
-1.60192e-05
-2.81512e-06
6.73622e-06
6.0055e-06
-1.25138e-05
8.89073e-05
0.000130028
-2.27094e-06
5.61868e-05
8.63295e-05
9.18292e-05
8.31508e-06
8.48972e-05
6.14585e-05
-8.52956e-05
1.25731e-05
9.43789e-05
0.000159583
0.000116021
-2.39811e-07
-0.000282058
0.000239184
0.000177356
2.08875e-06
-6.80062e-05
0.000138331
0.000259808
-8.50103e-06
-7.62972e-05
0.000274472
0.000197921
2.38681e-06
0.000113705
0.000119314
0.000288504
-4.65679e-06
7.13176e-05
-0.00020574
-4.00104e-05
-2.09179e-06
0.000327933
0.000207481
0.000163671
-3.32692e-06
0.000121372
1.3901e-05
-4.35174e-05
-2.07692e-06
0.000204705
-0.00036442
-3.3357e-06
-1.41751e-05
0.000135449
5.83033e-06
1.98852e-06
-2.20029e-05
-4.28566e-06
1.35558e-05
1.39989e-05
-1.81824e-05
1.27275e-06
1.66182e-05
3.25277e-06
-3.04832e-06
6.06094e-06
1.99596e-05
-6.97713e-07
9.21984e-06
-6.78729e-06
2.06418e-06
-3.56108e-06
3.9632e-06
-4.77696e-06
-2.67202e-07
6.40515e-06
-1.89144e-05
8.89563e-07
6.40619e-06
4.51e-06
-1.32368e-05
-2.08216e-06
1.51326e-05
-2.05578e-07
6.90226e-06
-8.0967e-06
2.74797e-07
3.73122e-06
-2.81952e-05
9.13279e-06
1.58202e-05
1.41171e-05
-2.13138e-05
1.37917e-07
8.55411e-06
8.70984e-07
1.06657e-05
-6.30646e-07
-8.50794e-07
-6.06567e-06
4.64137e-06
-1.60931e-07
-3.75037e-06
-2.64775e-06
-1.13344e-05
-1.67878e-06
-7.21238e-06
-8.88158e-06
-2.37693e-06
-1.19772e-06
-1.43498e-06
9.54509e-08
-7.70594e-06
1.78911e-06
3.19941e-06
2.03015e-06
1.67019e-06
2.34265e-06
-1.08208e-06
1.02783e-07
-8.80797e-06
-3.82432e-06
-4.71381e-06
-3.88489e-07
-6.27542e-06
2.82896e-07
-4.58471e-08
2.4583e-06
8.16879e-06
-3.63428e-06
-1.3642e-05
-2.7555e-06
-8.20021e-06
-9.34111e-06
-1.04792e-05
-3.8293e-07
-4.9421e-06
4.9098e-06
-2.59205e-06
-2.55374e-06
-7.98945e-06
-3.11904e-06
-1.69174e-06
-3.32727e-06
1.57096e-06
-2.54859e-06
-2.22801e-06
1.36569e-06
2.3335e-06
-3.4446e-07
2.52054e-06
-3.47536e-06
2.57303e-06
2.51057e-06
1.42897e-06
-1.75552e-06
3.48846e-06
2.16348e-06
-1.45737e-06
-2.92177e-06
-1.83397e-06
-3.56201e-06
-4.4549e-06
-1.93072e-06
-1.60531e-06
-6.48658e-07
-5.60376e-07
-4.42103e-06
-2.53239e-07
8.15498e-07
1.31746e-06
7.26872e-08
9.83991e-07
-3.99051e-08
4.4773e-07
2.25085e-07
-2.45904e-06
-2.87737e-06
-2.71436e-06
-1.18917e-07
-2.36277e-07
-2.21842e-06
-1.02095e-08
4.80802e-06
1.08427e-07
-1.94582e-06
-2.40397e-06
-5.0898e-06
-4.21833e-06
-6.05738e-06
-8.05384e-07
-3.10118e-06
-3.3795e-06
-1.67989e-06
1.35462e-06
-5.24829e-06
-2.90791e-06
-7.10876e-07
-0.000240774
0.000103899
6.71731e-06
-3.54136e-05
-5.63669e-05
6.39999e-06
1.9837e-05
-7.76965e-05
1.12004e-05
0.000128666
-8.74958e-05
-7.50825e-06
6.98434e-05
-5.95961e-05
-3.201e-06
-5.51087e-05
-0.000366632
-0.000162217
-7.68519e-07
-0.00019681
-4.20995e-05
-2.66423e-06
-0.000448907
-0.000117997
1.69863e-06
-0.000373601
4.44864e-05
3.67135e-06
-0.000136903
0.00016524
-6.28549e-06
-0.000162048
-1.77059e-05
0.000195094
6.43555e-06
6.79826e-06
-1.40444e-05
-3.81498e-06
-0.000218656
0.000166907
-5.59567e-08
-4.91376e-05
-3.08798e-05
-7.64964e-06
1.06615e-06
-2.61293e-05
-3.57043e-06
-7.44498e-05
-0.000163635
-0.000105515
-1.07513e-05
6.80147e-05
-0.000195059
-7.71943e-06
-4.47525e-05
-9.25129e-05
2.24834e-05
7.26036e-05
-7.05186e-05
4.00361e-06
2.05745e-05
6.66199e-06
-0.000193727
-2.53044e-05
-9.50665e-06
-4.5151e-06
1.72581e-05
1.28052e-06
2.58711e-06
-4.48534e-06
-4.88966e-06
1.02521e-05
-1.01177e-05
1.46472e-05
7.87301e-07
-3.05848e-06
8.91584e-06
7.96256e-06
1.91064e-05
-1.20491e-05
-1.78457e-05
-7.95204e-07
2.74219e-05
1.35525e-07
-6.34418e-06
1.75829e-05
-2.08702e-05
-2.32966e-05
4.32856e-05
-3.03731e-05
-1.88737e-05
4.30601e-06
-4.97982e-06
8.19293e-06
-1.70451e-05
3.48788e-06
-1.61786e-05
5.6284e-06
1.51471e-05
3.43297e-07
-8.34068e-06
2.44729e-05
-1.33081e-05
1.61769e-06
-3.22323e-05
-3.10771e-06
3.83108e-08
1.36289e-05
-7.936e-06
1.25968e-05
5.3213e-06
-1.16259e-05
-5.54474e-06
4.23466e-07
1.03866e-05
8.79716e-06
-1.40405e-05
2.12667e-05
-1.42e-05
-8.83137e-06
1.82185e-05
-5.88126e-06
-2.97075e-06
2.83609e-06
-4.32184e-06
1.80514e-05
-3.85267e-06
-1.39938e-05
5.08421e-06
2.12164e-06
9.70869e-06
-7.65249e-06
1.67391e-06
-2.35508e-06
-4.9764e-07
-5.1637e-07
-4.30988e-06
-5.98887e-06
6.88964e-07
-1.587e-06
-2.59902e-06
-6.32246e-06
9.19586e-06
8.44352e-06
8.48064e-06
-1.14195e-06
1.23579e-05
2.17934e-06
1.57263e-06
7.75707e-06
9.13929e-06
1.09991e-05
1.95435e-05
1.322e-05
8.25604e-06
2.01046e-06
1.21154e-06
-1.49505e-06
-7.16503e-06
-4.57157e-06
4.47285e-06
2.91433e-06
7.10408e-06
-9.69687e-07
9.48258e-06
1.15113e-05
6.67947e-06
-9.03971e-07
-1.4673e-05
9.83966e-07
-2.08456e-06
6.1415e-06
5.89168e-06
-6.89525e-06
2.35201e-06
6.50208e-06
1.27706e-06
-3.90204e-06
4.52571e-06
-5.27053e-06
9.52997e-07
9.46492e-06
6.57266e-06
3.42141e-06
8.70132e-06
4.48693e-06
1.56051e-06
2.12024e-06
-6.00529e-07
8.34453e-06
4.24467e-06
9.0468e-06
3.88709e-06
1.06852e-06
3.57031e-06
-4.17876e-06
1.62056e-06
-7.9474e-07
-1.14741e-06
-3.66978e-07
1.91919e-07
-4.44326e-06
5.99253e-07
-7.37668e-07
-2.36968e-06
-3.16856e-06
2.53373e-06
4.8592e-06
5.57334e-06
-5.79505e-07
4.24149e-06
1.10506e-06
5.41975e-07
2.80927e-06
5.13762e-06
5.83316e-06
6.02872e-06
8.18098e-06
4.41802e-06
4.15974e-07
5.65937e-07
-6.76916e-07
-8.03522e-07
-3.41154e-06
2.24273e-06
1.75599e-06
2.31624e-06
-5.29253e-07
5.7348e-06
3.57393e-06
3.72017e-06
-8.28598e-07
-4.05248e-06
7.23701e-07
-1.25267e-06
1.47551e-06
2.67631e-06
-3.63046e-06
5.51779e-07
3.31735e-06
9.1695e-07
-2.62617e-06
1.89161e-06
-3.47671e-06
-1.97795e-07
2.78324e-06
3.42098e-06
1.30704e-06
2.87981e-06
2.64223e-06
7.70693e-07
5.19008e-07
-7.87101e-07
2.19733e-06
2.63246e-06
5.27255e-06
-7.02354e-07
-9.22382e-07
5.03253e-07
-1.10848e-06
1.64216e-06
-1.9267e-07
3.77719e-07
-2.42973e-06
1.48354e-06
1.45455e-06
-1.31842e-06
2.66922e-06
-1.4981e-06
-8.88575e-07
-6.66534e-07
-1.82682e-06
-1.45231e-06
-1.24935e-07
-3.70299e-08
-1.91316e-06
4.72989e-08
2.68838e-07
2.19358e-07
-1.04828e-06
4.88125e-07
-1.53625e-06
-1.47242e-06
4.36758e-07
4.59442e-07
1.1841e-08
2.00045e-06
-2.07331e-06
9.24528e-08
-2.25431e-06
-3.7036e-06
-5.63622e-08
-2.48505e-06
-9.68909e-07
-3.43096e-06
-6.48476e-07
1.7533e-06
6.40004e-07
-2.26229e-06
4.97723e-07
-1.89767e-07
9.22271e-07
-1.68595e-06
6.72598e-07
-5.18349e-07
-1.45975e-06
1.83312e-06
2.83704e-06
-8.56319e-08
9.57125e-07
5.93322e-07
2.38904e-06
2.90006e-06
2.66009e-06
1.63682e-06
1.3402e-07
7.39419e-07
-1.3453e-06
1.45211e-06
1.68776e-06
-1.4994e-07
3.43374e-06
2.26511e-06
5.42812e-07
7.97967e-07
-2.92103e-08
2.10984e-06
-2.38205e-06
2.10773e-06
7.65356e-07
-1.74332e-06
-1.03466e-06
-6.82199e-07
1.66167e-06
3.35171e-07
9.12237e-07
8.98507e-08
1.22352e-07
8.63199e-07
2.06064e-06
3.69904e-05
-9.29603e-05
-0.000131175
4.40683e-05
-8.09173e-05
7.03285e-05
2.97501e-05
-4.72989e-05
-8.77117e-07
-0.000114995
-9.8136e-06
-0.000303483
-7.48981e-06
2.36467e-05
9.13607e-06
-6.39848e-05
-4.21242e-07
-0.000218823
0.000167787
0.000109322
5.65904e-06
0.000259165
8.77229e-06
0.000339274
-1.94441e-06
6.4641e-05
0.000308102
3.31142e-05
9.70428e-06
5.61847e-06
6.03556e-06
0.000105943
5.50252e-06
0.000126933
-6.1951e-07
0.000338207
-1.32319e-05
7.81631e-05
-1.32965e-06
-5.74391e-05
3.00959e-06
6.17752e-05
5.87684e-07
-9.80977e-05
0.000127107
-9.94541e-06
7.46977e-06
3.00063e-05
-3.37472e-06
-7.70995e-05
-3.63984e-06
-0.00016701
1.18321e-05
-0.000222336
6.96771e-06
-4.6976e-06
1.33441e-07
-3.38584e-06
-8.03537e-06
7.3415e-07
3.13394e-05
1.83162e-05
-6.02171e-06
5.74078e-06
2.00384e-05
-1.44212e-05
1.48825e-05
-2.27563e-05
-1.37523e-05
1.29888e-05
-2.68373e-05
1.22066e-05
-1.79464e-05
-1.60319e-05
1.55989e-05
-1.0385e-05
-2.0134e-05
1.04701e-05
-4.0205e-05
1.56934e-05
-1.15329e-05
1.20483e-06
2.28598e-05
-8.9285e-06
2.16135e-05
4.63144e-06
-1.53524e-05
6.64818e-06
3.46972e-06
-2.40582e-06
-1.22887e-05
-1.61952e-06
-8.5802e-06
-5.09915e-06
-1.42815e-05
-7.91822e-06
-5.56621e-06
1.77627e-05
-2.71802e-05
8.04708e-06
1.00099e-05
-1.15985e-05
2.35338e-05
-3.37097e-06
-2.34427e-05
-3.57702e-06
-7.46114e-06
-2.92739e-06
1.06673e-05
4.21935e-06
-1.83018e-05
-1.30056e-05
-6.30088e-06
6.09578e-06
-3.57833e-06
2.62397e-06
1.47609e-05
-1.657e-06
-2.24471e-06
2.38472e-06
9.97889e-06
7.56875e-06
7.0874e-06
8.16168e-06
-5.90293e-06
-6.05664e-06
-1.26055e-05
-6.12661e-06
-9.39884e-06
4.77179e-06
6.87386e-06
2.83527e-06
-9.03889e-06
-5.9526e-06
-1.81645e-05
-1.03246e-05
-5.90278e-06
-3.83558e-06
1.18483e-05
7.10701e-06
1.07018e-05
3.01359e-06
-6.69183e-06
4.14766e-06
1.3616e-06
4.35322e-06
-5.81017e-06
1.9454e-06
-5.21291e-06
1.15546e-07
-6.5877e-06
3.57409e-06
-2.44683e-06
-1.20991e-05
-1.15187e-05
-4.08154e-06
3.26721e-06
3.89713e-06
1.02817e-05
-2.48216e-06
-1.04859e-05
-2.32297e-06
-3.13456e-06
2.44549e-06
5.32252e-06
8.26372e-07
-7.69398e-06
-6.23749e-06
-3.77916e-06
3.62272e-06
-9.30635e-07
1.53762e-06
5.22175e-06
-5.99005e-07
-1.23371e-06
1.75612e-06
3.18391e-06
5.19353e-06
1.28308e-06
5.39205e-06
-1.23684e-06
-3.27356e-06
-3.92911e-06
-3.76087e-06
-3.34561e-06
2.73182e-06
1.47357e-06
1.67069e-06
-2.8497e-06
-4.16443e-06
-4.13574e-06
-7.51577e-06
-1.9178e-06
-2.59822e-06
3.56399e-06
5.00114e-06
3.11998e-06
2.31442e-06
-1.78712e-06
2.69207e-06
4.30266e-07
2.6461e-06
-2.0788e-06
3.11804e-07
-2.18747e-06
-4.94705e-07
-3.10707e-06
1.62062e-06
-1.21967e-06
-6.04354e-06
-3.77818e-06
-2.32419e-06
4.75426e-07
2.08648e-06
2.37571e-06
-1.88791e-06
-3.11328e-06
-2.13068e-06
-2.671e-07
1.50854e-06
9.15977e-07
8.92121e-07
-1.83592e-06
-1.7381e-06
-1.79953e-06
1.70956e-06
1.17206e-06
-2.45655e-07
1.25438e-06
2.01224e-06
2.5954e-06
-1.33124e-06
-1.8372e-06
5.88099e-07
1.10822e-07
-1.35411e-06
-3.14016e-06
-9.23336e-07
2.21343e-06
1.86307e-06
2.12688e-06
2.30168e-06
8.90598e-07
-1.27912e-07
7.49836e-07
-3.01367e-06
-1.78887e-06
-4.47968e-07
-1.89591e-06
-1.24411e-06
-1.82088e-07
4.15889e-08
-0.000167585
0.000272293
-8.01563e-06
-1.13166e-05
-8.36449e-06
9.65314e-05
3.94353e-06
-2.24358e-06
7.48003e-06
1.24906e-05
-2.16935e-06
1.09992e-05
)
;

boundaryField
{
    top_fluid_surface
    {
        type            calculated;
        value           nonuniform List<scalar> 
64
(
-0.000347633
-0.000163707
-0.000100111
-0.000159485
-0.000151714
-0.000227843
-0.000200317
6.89967e-05
-0.000209148
-0.000335963
0.000367204
-4.38278e-05
0.000133636
-0.000184204
-3.37032e-05
5.79678e-05
0.000394866
0.000456235
5.94742e-05
0.000375968
-0.000120979
0.000116041
0.000242426
0.000556513
-6.09572e-05
0.000558105
0.000267026
0.000278933
0.000288186
-1.74597e-05
7.35835e-05
0.000242843
7.96999e-05
0.000123203
-0.000208444
0.000264354
0.000165506
0.000151152
-0.00034784
-0.000281224
-1.11692e-05
-0.000789709
-0.000524462
-0.000165733
-0.000232085
0.000181953
1.82429e-05
-0.000109874
-0.000239462
-0.000197788
0.000243212
8.17644e-05
-9.81935e-05
-0.000277147
3.10587e-05
-7.21437e-05
0.00018183
0.000118587
-4.01241e-05
-0.000396951
-0.00035987
0.000170974
-3.55871e-05
0.000369765
)
;
    }
    bottom_fluid_surface
    {
        type            calculated;
        value           uniform 0;
    }
    lateral_surface_1
    {
        type            calculated;
        value           uniform 0;
    }
    lateral_surface_2
    {
        type            calculated;
        value           uniform 0;
    }
    lateral_surface_3
    {
        type            calculated;
        value           uniform 0;
    }
    lateral_surface_4
    {
        type            calculated;
        value           uniform 0;
    }
}


// ************************************************************************* //
