/*--------------------------------*- C++ -*----------------------------------*\
| =========                 |                                                 |
| \\      /  F ield         | OpenFOAM: The Open Source CFD Toolbox           |
|  \\    /   O peration     | Version:  v1612+                                |
|   \\  /    A nd           | Web:      www.OpenFOAM.com                      |
|    \\/     M anipulation  |                                                 |
\*---------------------------------------------------------------------------*/
FoamFile
{
    version     2.0;
    format      ascii;
    class       volVectorField;
    location    "4.95";
    object      U;
}
// * * * * * * * * * * * * * * * * * * * * * * * * * * * * * * * * * * * * * //

dimensions      [0 1 -1 0 0 0 0];

internalField   nonuniform List<vector> 
320
(
(-3.36844e-06 -8.50045e-06 1.4399e-05)
(-3.12728e-06 -4.93877e-06 -1.02264e-05)
(-1.12413e-05 -2.89647e-06 -1.10832e-05)
(6.8663e-07 1.18675e-05 -7.02415e-06)
(8.08987e-05 -8.40401e-05 -0.000185794)
(5.10122e-05 -4.24426e-05 -0.000101292)
(0.000157854 -0.000172927 -6.52727e-05)
(-0.000345614 3.72965e-05 -7.54955e-05)
(-9.99645e-05 0.000165092 -7.47555e-05)
(-0.000155419 0.00024936 -0.00011631)
(-0.000279929 5.2596e-05 -0.000109555)
(-0.00017262 0.000106743 4.35086e-05)
(-0.00032693 0.000374271 -0.000119815)
(-0.000276578 -0.000283214 -0.000177669)
(-0.000466386 -1.85013e-05 0.000193171)
(-0.000296017 9.36459e-05 -2.16273e-05)
(2.44101e-06 5.35688e-06 2.82703e-05)
(7.96094e-06 1.30453e-05 2.21056e-05)
(2.18338e-05 9.46289e-08 5.18489e-06)
(-6.20508e-06 5.96282e-06 -8.23927e-06)
(5.29638e-06 -8.18393e-06 -6.29668e-06)
(1.25544e-06 2.38646e-06 2.17691e-05)
(-1.50531e-05 -3.89131e-06 1.40697e-05)
(7.44127e-06 -1.12952e-05 -8.73855e-06)
(-7.43814e-06 1.29975e-05 3.45733e-05)
(-5.01366e-06 -2.07434e-05 2.58614e-05)
(-9.97392e-06 -3.28455e-06 -1.49168e-05)
(-5.68897e-06 5.11398e-07 6.13633e-06)
(-7.72782e-07 2.05759e-06 1.79564e-05)
(-6.1692e-06 -2.52599e-06 1.69885e-05)
(-9.89033e-06 -1.04957e-06 2.08913e-06)
(4.82809e-07 -1.64447e-06 -7.66383e-06)
(-7.41572e-06 4.95883e-06 -2.96863e-06)
(-4.96366e-06 -2.11656e-06 1.43848e-05)
(4.7274e-06 1.52361e-07 1.0684e-05)
(-4.15901e-06 1.04293e-05 -4.853e-06)
(4.32461e-06 -5.4867e-06 2.22694e-05)
(2.0934e-06 1.26576e-05 1.79182e-05)
(9.86753e-06 5.52739e-06 -7.70067e-06)
(6.36509e-06 5.04473e-06 4.88525e-06)
(-1.38193e-06 -4.9033e-06 3.3974e-06)
(-1.36489e-06 -3.45555e-06 -4.36399e-06)
(-6.45137e-06 -9.88223e-07 -2.15149e-06)
(6.31856e-08 6.51467e-06 -3.89335e-06)
(8.44679e-07 1.2362e-06 4.67946e-06)
(-3.47172e-06 -1.51135e-06 6.66892e-07)
(-6.06161e-06 -2.51499e-07 1.59313e-07)
(4.41339e-07 -1.36843e-06 3.21913e-07)
(-4.21896e-06 3.04352e-06 -8.53835e-07)
(-3.06182e-06 -1.34795e-06 4.03247e-06)
(2.66682e-06 -3.70746e-07 2.96475e-06)
(-2.52684e-06 6.01025e-06 1.26185e-07)
(2.59247e-06 -3.74586e-06 5.79213e-06)
(1.62239e-06 7.65943e-06 3.68907e-06)
(5.72614e-06 3.84049e-06 -1.97281e-06)
(4.84874e-06 3.54627e-06 7.17337e-07)
(-0.000378062 -4.06296e-05 7.16392e-05)
(-7.60332e-05 -4.82376e-06 -0.000102669)
(-3.26949e-05 -0.000120854 -3.60294e-05)
(-9.3145e-05 -2.59244e-05 3.5208e-05)
(-0.000122892 0.000197952 0.000213032)
(0.000134629 -0.000295667 0.00024802)
(-0.000270157 -4.51626e-05 4.25845e-05)
(-7.29884e-05 -5.54914e-05 0.0002139)
(-6.62794e-05 -0.000145132 -6.20355e-05)
(-8.34461e-05 0.00021626 5.48699e-05)
(-0.000298641 0.000213085 0.000122391)
(5.39994e-06 0.000120479 0.00029821)
(-8.7359e-06 1.79861e-05 -4.9831e-05)
(-0.0002384 0.000220584 0.000296364)
(0.000265572 -4.63907e-05 0.000140219)
(-0.00015405 6.844e-05 0.000157305)
(8.95171e-06 0.000185631 0.000165169)
(5.65931e-05 0.000206067 -2.37038e-05)
(4.12785e-05 4.43302e-06 3.43064e-05)
(0.000130622 0.000131538 0.000123794)
(-1.19318e-05 -7.01854e-06 -2.28371e-05)
(-3.49084e-06 4.93441e-06 8.22284e-06)
(8.73473e-06 -1.50905e-05 1.21518e-05)
(8.63031e-06 -9.96036e-06 2.71335e-06)
(-6.72816e-06 1.73093e-05 -2.4695e-05)
(1.42415e-05 -1.79092e-06 -3.82492e-05)
(-1.02972e-05 5.7001e-07 -2.04877e-05)
(-1.66156e-05 -1.48863e-05 -5.52645e-05)
(2.27639e-07 -2.76861e-05 -4.26602e-06)
(-1.21485e-07 -1.47374e-05 1.89828e-05)
(-1.8498e-05 8.83119e-06 -1.5262e-05)
(9.4966e-06 -1.9734e-06 -3.21173e-05)
(5.94398e-06 -6.46739e-06 3.31032e-05)
(-8.00379e-06 2.76021e-06 -1.91515e-05)
(7.84541e-06 -1.63121e-05 -6.20301e-06)
(-2.04806e-05 -8.30598e-06 -1.42254e-05)
(5.193e-06 7.80826e-06 -2.67654e-05)
(1.04767e-05 1.74367e-05 -2.06121e-05)
(6.49884e-06 3.39942e-06 -2.82244e-06)
(1.87444e-05 1.20243e-06 -1.80976e-05)
(6.02432e-06 1.10894e-05 -1.42437e-05)
(4.20198e-06 2.21557e-06 2.15802e-06)
(-2.01119e-08 7.83756e-06 9.66588e-06)
(-1.56897e-06 1.01948e-06 2.19569e-06)
(3.52122e-06 -1.08283e-05 -1.46893e-05)
(-3.86173e-06 -4.73205e-07 -1.73348e-05)
(4.30725e-06 -2.46331e-06 -1.2094e-05)
(6.00341e-06 6.4226e-06 -2.99497e-05)
(-2.13953e-06 1.33778e-05 -3.73497e-06)
(-3.18032e-06 4.2075e-06 1.36982e-05)
(5.80968e-06 -6.22145e-06 -1.26181e-05)
(-1.18591e-05 6.82566e-07 -1.8577e-05)
(-5.60026e-06 4.43146e-06 2.6349e-05)
(7.04778e-06 5.12867e-07 -1.04338e-05)
(-2.36475e-06 7.77989e-06 -4.53565e-06)
(1.12183e-05 5.47499e-06 -6.45048e-06)
(-1.53348e-06 2.64605e-06 -1.60371e-05)
(-3.79998e-06 -4.22951e-06 -1.4599e-05)
(1.24263e-07 -1.7862e-06 -4.15558e-06)
(-1.11265e-05 -2.13573e-06 -1.57354e-05)
(3.9046e-06 6.55188e-06 -4.80409e-06)
(3.6757e-06 2.67057e-06 1.73118e-06)
(1.22799e-07 5.64272e-06 -1.43514e-06)
(-1.22188e-06 1.81326e-06 1.53586e-06)
(2.87312e-06 -5.89372e-06 -3.88331e-06)
(-2.18416e-06 1.51859e-07 -7.15655e-06)
(2.64689e-06 -1.61281e-06 -4.51979e-06)
(4.29279e-06 3.01153e-06 -9.44287e-06)
(-1.56595e-06 7.42287e-06 -4.646e-07)
(-2.39993e-06 2.19792e-06 6.23864e-07)
(3.57467e-06 -3.7135e-06 -2.97073e-06)
(-7.29511e-06 1.42547e-07 -4.83352e-06)
(-3.07613e-06 2.78576e-06 5.45352e-06)
(4.34108e-06 -5.8835e-07 -1.55008e-06)
(-1.54141e-06 4.0181e-06 -3.56852e-07)
(6.99487e-06 3.29157e-06 -2.60531e-06)
(-2.6132e-07 2.14547e-06 -3.5762e-06)
(-1.96621e-06 -1.67703e-06 -3.54136e-06)
(8.2183e-07 -5.85389e-07 3.73265e-08)
(-6.40023e-06 -1.3332e-06 -2.35977e-06)
(-1.14733e-06 -1.83446e-06 9.6237e-07)
(9.10573e-08 -4.44457e-07 -1.0223e-06)
(-3.63136e-06 2.96237e-07 -9.73166e-07)
(-8.35341e-07 4.0623e-06 -7.65716e-07)
(-6.25696e-07 6.21938e-07 2.17906e-06)
(-1.96925e-06 7.37954e-07 2.24721e-06)
(-2.1685e-06 3.13433e-07 4.99267e-07)
(3.94135e-07 -7.00556e-07 -4.34786e-07)
(-2.20568e-06 8.62331e-07 -2.04407e-07)
(-1.69856e-06 -5.68965e-07 1.4964e-06)
(6.57149e-07 6.86061e-07 1.1708e-06)
(-1.6039e-06 2.4243e-06 -3.72095e-07)
(1.59678e-06 -4.99939e-07 2.18593e-06)
(7.09527e-07 4.51886e-06 2.06095e-06)
(2.97359e-06 2.56121e-06 -7.21316e-07)
(2.17115e-06 2.80819e-06 6.98676e-07)
(2.19684e-06 3.73347e-06 -1.81653e-06)
(9.22904e-07 8.39485e-07 1.33321e-07)
(3.99556e-07 2.40036e-06 1.02994e-06)
(9.30062e-07 -1.39425e-07 1.54288e-08)
(8.28521e-07 -2.73533e-06 -1.08544e-06)
(-1.211e-06 2.02026e-07 -1.68787e-06)
(3.50185e-07 -4.81628e-07 -1.1348e-06)
(4.89739e-07 1.9696e-06 -2.9943e-06)
(-1.13436e-06 3.07912e-06 -3.06887e-07)
(-1.55865e-06 6.38804e-07 1.20078e-06)
(1.87392e-07 -1.97385e-06 -1.28173e-06)
(-3.82861e-06 4.59334e-07 -2.08045e-06)
(-2.44535e-06 1.31794e-06 2.36299e-06)
(1.15935e-06 7.2511e-07 -1.3688e-06)
(-1.07357e-06 2.62687e-06 -7.46718e-07)
(2.64232e-06 1.97447e-06 -1.40381e-06)
(-6.3993e-07 1.67304e-06 -1.9686e-06)
(-7.79637e-07 -3.72841e-07 -1.88519e-06)
(-7.0487e-07 -1.54814e-07 -8.52768e-07)
(-3.3682e-06 -1.10918e-07 -1.67874e-06)
(0.000254696 0.000188209 0.000165486)
(-0.00015923 6.4941e-05 0.000166177)
(0.000162791 -3.00206e-05 -0.000140144)
(7.33735e-05 -0.000174109 0.000146735)
(-0.000159322 -0.000135509 0.000102769)
(-0.000107493 -0.000107714 7.69638e-05)
(-0.000497367 -0.000150508 -0.000200041)
(-0.000542078 0.000214592 -0.000151604)
(-0.000481006 -0.000319939 -0.000163648)
(-0.000564927 -0.000167964 -0.000416143)
(-0.000603881 0.000369311 -0.00029788)
(-0.000144002 0.000239518 -8.96507e-05)
(-0.000219382 0.000304665 -0.000409722)
(-5.56789e-05 -8.13757e-05 9.30855e-05)
(2.6183e-05 -0.000245889 -7.81764e-06)
(-5.92263e-05 -0.000190428 -5.91238e-05)
(-8.51115e-05 -0.00048313 -0.000126182)
(-0.000271947 -0.000100497 -9.05082e-05)
(-0.000263387 -0.000221019 0.000115488)
(8.10367e-05 -7.47831e-05 3.56242e-05)
(1.54554e-05 -3.60163e-05 -6.56147e-05)
(5.35111e-05 -1.40672e-05 -0.000260273)
(4.73008e-05 0.000118154 2.2647e-05)
(0.000102787 -7.28856e-05 -4.72378e-05)
(-0.000212022 1.41637e-05 9.07576e-05)
(-9.01293e-05 0.000165777 5.25938e-05)
(-4.95709e-05 0.000174285 -3.81899e-05)
(-4.69817e-05 0.000190474 -0.000201779)
(9.86976e-06 6.66565e-06 9.43418e-06)
(-9.42188e-06 2.65911e-06 -3.47242e-05)
(1.05128e-05 4.15606e-06 1.23282e-05)
(2.28559e-05 -1.13455e-05 -2.72949e-05)
(-1.05661e-05 -9.96523e-06 -2.0292e-05)
(-2.0388e-05 7.85003e-06 1.23704e-05)
(-2.09613e-05 3.69596e-06 3.4e-05)
(-2.51143e-05 2.46674e-05 2.26874e-05)
(-1.36025e-05 -3.47503e-06 -1.9413e-05)
(-2.67994e-05 -2.48924e-05 3.09988e-05)
(-3.90604e-05 2.33849e-06 5.3551e-05)
(-9.57595e-06 1.88783e-05 1.72821e-05)
(7.49944e-06 9.74159e-06 -2.82298e-05)
(1.49025e-05 -6.35559e-06 -2.35047e-05)
(1.13527e-06 -1.37561e-05 2.29641e-05)
(-1.15102e-05 -7.61227e-06 -2.75191e-06)
(2.45104e-07 -2.07447e-05 1.41222e-05)
(2.7077e-06 1.63925e-06 9.54225e-06)
(2.40581e-06 -1.75074e-05 1.52429e-05)
(6.19231e-06 -8.77067e-06 4.89217e-06)
(8.50562e-06 -1.58545e-05 3.20676e-05)
(1.42226e-06 -2.39142e-05 -1.08082e-05)
(9.05677e-07 1.03448e-05 -2.73584e-05)
(2.00726e-05 1.02115e-05 2.90722e-05)
(3.31038e-06 -1.97837e-06 7.66684e-06)
(6.59503e-07 8.78233e-06 -1.01127e-05)
(8.69179e-06 -3.64692e-06 2.15962e-05)
(-4.18951e-06 -6.21624e-06 1.57952e-05)
(-1.35674e-05 -5.48295e-06 5.80053e-06)
(2.01459e-06 2.91845e-06 -2.43411e-05)
(2.47816e-06 -1.47363e-06 1.01559e-06)
(-4.97377e-06 4.6428e-06 -1.47082e-05)
(8.77499e-06 3.47991e-06 -1.21292e-05)
(7.83875e-06 -5.70138e-06 1.22242e-05)
(7.46558e-06 -8.37575e-07 2.06233e-05)
(1.23294e-05 -1.06797e-05 1.46796e-05)
(7.61451e-06 -2.6349e-07 -1.1063e-05)
(1.25391e-05 8.22049e-06 1.3018e-05)
(1.82974e-05 -1.48741e-06 3.16554e-05)
(4.63082e-06 -1.13013e-05 8.0284e-06)
(-6.38006e-06 -9.34852e-06 -1.93505e-05)
(-8.92366e-06 1.82396e-06 -1.91449e-05)
(-5.26582e-06 4.36625e-06 9.4479e-06)
(-1.43882e-06 3.9092e-06 -2.92338e-06)
(-5.92521e-06 1.16143e-05 9.28595e-06)
(-3.98937e-06 -2.02493e-06 7.8819e-06)
(9.76119e-07 1.00034e-05 9.42078e-06)
(-1.30564e-06 4.04671e-06 3.67231e-06)
(-5.44257e-06 8.94449e-06 1.79693e-05)
(-5.4505e-07 1.30372e-05 -7.13409e-06)
(-1.86361e-07 -4.65495e-06 -1.7924e-05)
(-1.0675e-05 -2.35989e-06 1.73116e-05)
(-5.19262e-06 7.18503e-06 6.02648e-06)
(7.3892e-07 -2.2834e-06 -1.08256e-05)
(-5.68952e-06 -2.60353e-06 1.33956e-05)
(2.70972e-07 4.77469e-07 1.08171e-05)
(-7.63742e-06 -3.37061e-06 1.70553e-06)
(8.45008e-07 1.27746e-06 -7.26854e-06)
(1.75375e-06 -3.11037e-07 2.77106e-06)
(-2.6145e-06 3.19942e-06 -5.02944e-06)
(5.47481e-06 2.42625e-06 -1.00668e-06)
(5.84111e-06 -3.49723e-06 8.77177e-07)
(4.45414e-06 -5.41858e-07 5.11541e-06)
(7.40952e-06 -6.21198e-06 4.30449e-06)
(4.13585e-06 -4.77748e-07 -2.61149e-06)
(6.77992e-06 5.10824e-06 3.97451e-06)
(1.08567e-05 -1.1694e-06 4.44462e-06)
(2.59906e-06 -8.04042e-06 2.91455e-06)
(-4.60656e-06 -6.20006e-06 -4.48938e-06)
(-5.79879e-06 7.55325e-07 -3.44428e-06)
(-4.0525e-06 1.94762e-06 2.82229e-06)
(-1.00642e-06 2.40786e-06 -3.69551e-07)
(-3.8324e-06 6.52866e-06 3.10376e-06)
(-1.79592e-06 -1.05475e-06 3.01498e-06)
(1.36012e-06 5.24845e-06 5.43495e-06)
(-5.43413e-07 1.92616e-06 2.36993e-06)
(-2.61969e-06 4.25044e-06 6.62305e-06)
(-2.9542e-07 6.94993e-06 -1.57829e-07)
(3.12097e-07 -2.46586e-06 -2.86071e-06)
(-6.05273e-06 -1.30151e-06 4.42957e-06)
(-3.13485e-06 4.92359e-06 4.43719e-07)
(5.47809e-07 -8.87813e-07 -4.77752e-07)
(-3.43733e-06 -1.9075e-06 2.64994e-06)
(-2.65015e-08 4.01984e-08 2.12898e-06)
(-4.36326e-06 -1.40786e-06 2.47242e-07)
(1.22075e-06 8.08734e-07 -2.43732e-06)
(7.07421e-07 -4.31773e-07 8.15315e-08)
(-9.9034e-07 1.02422e-06 -1.1141e-06)
(2.96718e-06 9.5813e-07 -1.45588e-06)
(1.6379e-06 -1.01291e-06 1.41284e-06)
(3.13555e-06 1.4874e-07 2.66865e-06)
(4.29721e-06 -2.98832e-06 2.06863e-06)
(2.88257e-06 -1.64904e-07 -5.4591e-07)
(3.93028e-06 1.00016e-06 1.6518e-06)
(4.36434e-06 -6.22219e-07 3.45812e-06)
(1.33846e-06 -2.61733e-06 9.56809e-07)
(-1.33212e-06 -3.03568e-06 -2.08315e-06)
(-2.33601e-06 9.31446e-07 -2.17183e-06)
(-2.19619e-06 1.93536e-06 1.14977e-06)
(-1.51909e-06 1.56898e-06 -3.19753e-07)
(-2.63464e-06 3.64183e-06 8.09871e-07)
(-1.86967e-06 3.75027e-07 9.39733e-07)
(2.87858e-07 3.06616e-06 8.20733e-07)
(-1.1009e-07 1.24651e-06 -9.15124e-08)
(-1.29189e-06 2.10267e-06 1.25688e-06)
(-4.35724e-07 3.47751e-06 -8.707e-07)
(-4.4124e-07 -6.63122e-08 -2.15915e-06)
(-2.4765e-06 1.09692e-06 1.53263e-06)
(-1.01736e-06 2.49627e-06 1.2774e-07)
(3.92602e-07 2.19622e-07 -1.04286e-06)
(-6.42939e-07 7.50677e-08 1.11114e-06)
(5.78583e-07 -1.86344e-07 9.51518e-07)
(-0.000212282 0.000224732 -0.000183491)
(-0.000121978 0.00021265 0.00010615)
(0.000312069 0.000324014 -1.25307e-05)
(-0.000138024 -0.000246174 0.000197275)
(9.04296e-06 1.81103e-05 2.3153e-05)
(3.47311e-06 1.71098e-05 -2.46634e-05)
(2.28372e-05 1.03428e-05 -1.85336e-05)
(-4.18541e-06 -2.23443e-05 -2.01896e-05)
)
;

boundaryField
{
    top_fluid_surface
    {
        type            pressureInletOutletVelocity;
        value           nonuniform List<vector> 
64
(
(0 0 -0.000185794)
(0 0 -0.000101292)
(0 0 -6.52727e-05)
(0 0 -7.54955e-05)
(0 0 -7.47555e-05)
(0 0 -0.00011631)
(0 0 -0.000109555)
(-0.00017262 0.000106743 4.35086e-05)
(0 0 -0.000119815)
(0 0 -0.000177669)
(-0.000466386 -1.85013e-05 0.000193171)
(0 0 -2.16273e-05)
(-0.000378062 -4.06296e-05 7.16392e-05)
(0 0 -0.000102669)
(0 0 -3.60294e-05)
(-9.3145e-05 -2.59244e-05 3.5208e-05)
(-0.000122892 0.000197952 0.000213032)
(0.000134629 -0.000295667 0.00024802)
(-0.000270157 -4.51626e-05 4.25845e-05)
(-7.29884e-05 -5.54914e-05 0.0002139)
(0 0 -6.20355e-05)
(-8.34461e-05 0.00021626 5.48699e-05)
(-0.000298641 0.000213085 0.000122391)
(5.39994e-06 0.000120479 0.00029821)
(0 0 -4.9831e-05)
(-0.0002384 0.000220584 0.000296364)
(0.000265572 -4.63907e-05 0.000140219)
(-0.00015405 6.844e-05 0.000157305)
(8.95171e-06 0.000185631 0.000165169)
(0 0 -2.37038e-05)
(4.12785e-05 4.43302e-06 3.43064e-05)
(0.000130622 0.000131538 0.000123794)
(0.000254696 0.000188209 0.000165486)
(-0.00015923 6.4941e-05 0.000166177)
(0 0 -0.000140144)
(7.33735e-05 -0.000174109 0.000146735)
(-0.000159322 -0.000135509 0.000102769)
(-0.000107493 -0.000107714 7.69638e-05)
(0 0 -0.000200041)
(0 0 -0.000151604)
(0 0 -0.000163648)
(0 0 -0.000416143)
(0 0 -0.00029788)
(0 0 -8.96507e-05)
(0 0 -0.000409722)
(-5.56789e-05 -8.13757e-05 9.30855e-05)
(2.6183e-05 -0.000245889 -7.81764e-06)
(0 0 -5.91238e-05)
(0 0 -0.000126182)
(0 0 -9.05082e-05)
(-0.000263387 -0.000221019 0.000115488)
(8.10367e-05 -7.47831e-05 3.56242e-05)
(0 0 -6.56147e-05)
(0 0 -0.000260273)
(4.73008e-05 0.000118154 2.2647e-05)
(0 0 -4.72378e-05)
(-0.000212022 1.41637e-05 9.07576e-05)
(-9.01293e-05 0.000165777 5.25938e-05)
(0 0 -3.81899e-05)
(0 0 -0.000201779)
(0 0 -0.000183491)
(-0.000121978 0.00021265 0.00010615)
(0 0 -1.25307e-05)
(-0.000138024 -0.000246174 0.000197275)
)
;
    }
    bottom_fluid_surface
    {
        type            noSlip;
    }
    lateral_surface_1
    {
        type            noSlip;
    }
    lateral_surface_2
    {
        type            noSlip;
    }
    lateral_surface_3
    {
        type            noSlip;
    }
    lateral_surface_4
    {
        type            noSlip;
    }
}


// ************************************************************************* //
