/*--------------------------------*- C++ -*----------------------------------*\
| =========                 |                                                 |
| \\      /  F ield         | OpenFOAM: The Open Source CFD Toolbox           |
|  \\    /   O peration     | Version:  v1612+                                |
|   \\  /    A nd           | Web:      www.OpenFOAM.com                      |
|    \\/     M anipulation  |                                                 |
\*---------------------------------------------------------------------------*/
FoamFile
{
    version     2.0;
    format      ascii;
    class       surfaceScalarField;
    location    "8.95";
    object      alphaPhi;
}
// * * * * * * * * * * * * * * * * * * * * * * * * * * * * * * * * * * * * * //

dimensions      [0 3 -1 0 0 0 0];

internalField   nonuniform List<scalar> 
2916
(
-0.00439288
0.0791288
-0.0623848
0.00595672
0.061548
-0.0602718
0.0238263
0.0557215
-0.0619394
0.0109974
0.0899872
-0.0643207
-0.0181472
0.105102
-0.0627061
0.0579
-0.0642029
0.00439024
0.104946
-0.0181012
-0.000806583
0.093708
-0.0162459
-0.0112517
0.0891022
-0.013145
-0.00343133
0.106203
-0.0123679
0.00427802
0.115283
-0.0060512
0.0854585
-0.0137362
0.00512421
0.138895
-0.0244927
-0.000246514
0.13282
-0.020832
-0.0126287
0.129928
-0.0165885
-0.00533955
0.137827
-0.0242345
0.0069634
0.14382
-0.0249336
0.124545
-0.0201559
0.00178219
0.184766
-0.0365556
-0.000572473
0.181717
-0.0354416
-0.00662572
0.1809
-0.0338077
-0.00417044
0.184272
-0.0378272
0.00385343
0.188129
-0.041257
0.178325
-0.0387275
-0.000877157
0.260854
-0.0643602
-0.000687772
0.257876
-0.0654965
-0.00128875
0.258759
-0.0664004
-0.00189326
0.259806
-0.0640914
-0.000757479
0.262264
-0.0644351
0.257981
-0.0695306
-0.00135872
0.341393
-0.0684711
-0.000850295
0.33671
-0.0686341
0.000266585
0.338389
-0.070041
-0.00143317
0.339829
-0.0676242
-0.00341177
0.342186
-0.0672469
0.336894
-0.0716204
0.000718375
0.419606
-0.0682224
-0.00089052
0.416598
-0.0675731
-0.000838406
0.417695
-0.0686583
-0.00130091
0.418888
-0.0678988
-0.00151752
0.419117
-0.0660168
0.416434
-0.0703607
0.000779005
0.357346
-0.0493298
-0.00119539
0.35833
-0.0516241
-0.00162594
0.358846
-0.0520915
-0.00162706
0.357067
-0.0497269
-0.00157412
0.352429
-0.0447744
0.360463
-0.0561399
-0.0038439
0.28193
0.0408839
-0.000947231
0.277132
0.0370434
-0.000183831
0.279226
0.0387089
-0.00291155
0.279981
0.0394078
-0.00524459
0.277975
0.038417
0.278892
0.035716
-0.00298498
0.158481
0.134672
-0.000741334
0.145892
0.140061
-0.000454487
0.147404
0.140426
-7.12727e-06
0.159215
0.132248
-0.00185647
0.162206
0.130084
0.142683
0.142952
0.00168815
-0.0393491
0.129088
0.00110098
-0.0574804
0.135749
0.000112017
-0.0558833
0.135683
0.00348834
-0.0386796
0.12824
0.00177426
-0.0288754
0.126847
-0.0611874
0.136818
0.00914622
-0.0547963
0.00011182
-0.0538283
-0.00121864
-0.0612564
0.00700807
-0.0528274
0.0122502
-0.037627
-0.0549202
0.00407726
0.0531477
-0.000170012
-0.00587674
0.0678587
-7.63515e-05
-0.0206833
0.0701196
-5.72006e-05
-0.00873585
0.0411467
-0.00010104
0.0122403
0.029199
-0.000167075
0.0656117
-5.46371e-05
0.00402428
0.123204
-4.16836e-05
0.00371073
0.135546
-1.43462e-05
0.00547913
0.135969
-2.08294e-05
0.00468211
0.120361
-2.52071e-06
-0.000282058
0.118143
-1.48176e-05
0.133454
-1.36142e-05
0.0061133
0.205374
-2.0952e-06
0.00490625
0.212112
-6.46354e-07
0.00369656
0.210078
-9.09178e-07
0.00488194
0.209743
-1.51893e-07
0.00280353
0.216725
-7.87196e-07
0.210817
-6.33714e-07
0.00148477
0.368788
-1.77291e-07
0.00134282
0.37233
-5.73087e-08
-4.9229e-05
0.37013
-8.10902e-08
0.000929982
0.372806
-1.30918e-08
0.003243
0.380105
-6.60947e-08
0.372941
-5.90025e-08
-0.00306175
0.61048
-1.75146e-08
-0.00090007
0.613799
-5.87612e-09
0.000291554
0.612681
-8.33434e-09
6.25894e-05
0.611502
-1.31533e-09
0.00175825
0.613904
-6.49167e-09
0.612227
-6.19578e-09
-0.00200442
0.815577
4.09357e-11
-0.0020394
0.815507
2.38298e-09
-0.00121131
0.815256
1.72483e-09
-0.00153594
0.815577
2.95814e-09
0.00228219
0.818026
-4.18457e-10
0.811509
-3.12916e-09
0.000544074
0.994497
-0.0716856
-0.00241372
0.99646
-0.0716403
-0.00237016
0.994857
-0.0722278
-0.00188629
0.996259
-0.07225
-0.000450139
0.998357
-0.0717714
0.99154
-0.0731681
0.0014289
1.12808
-0.0632363
-0.00175944
1.13614
-0.0643665
-0.00291734
1.13299
-0.0644878
-0.00095385
1.13231
-0.0646183
0.00151866
1.13283
-0.0631741
1.13082
-0.0654021
-0.000337181
1.06899
0.00311901
-0.000282399
1.18629
-0.000111121
0.000471821
1.15386
0.000530317
-0.00224861
1.13729
0.00135313
-0.00669485
1.18762
-8.25265e-05
1.14858
-0.00087261
0.00444562
0.415876
0.1035
-0.000456862
0.423654
0.12032
-0.00136537
0.417566
0.113956
-0.00229957
0.427704
0.109893
-0.0118846
0.434313
0.115223
0.410234
0.111783
0.00350068
0.322827
0.0317191
0.00056664
0.304077
0.0284856
-4.83922e-05
0.309585
0.0301027
0.00193948
0.325639
0.0299612
-0.00138615
0.322342
0.0271893
0.30027
0.0318036
-0.00740027
0.232057
-0.00107696
0.194586
-0.00499182
0.207417
-0.000193276
0.228183
0.0273234
0.214822
0.206364
1.89122e-07
4.87001e-06
-0.000174773
-1.23807e-07
2.67011e-06
-7.83252e-05
-6.53131e-07
2.1817e-06
-5.8353e-05
-4.42152e-07
2.60016e-06
-0.000103885
9.48034e-07
3.62303e-06
-0.000171771
2.04535e-06
-5.54571e-05
3.75902e-08
2.2944e-06
-3.91483e-05
1.63238e-08
7.09632e-07
-1.23474e-05
2.62418e-08
1.00102e-06
-1.96365e-05
3.85441e-09
1.63308e-07
-6.44463e-08
6.42587e-08
8.6392e-07
-1.21093e-05
6.95392e-07
-1.21879e-05
2.52601e-09
1.96678e-07
-1.30874e-16
2.13734e-09
6.36664e-08
-6.23207e-17
3.68926e-09
9.02935e-08
-7.04558e-17
6.6371e-10
1.44404e-08
-4.63931e-18
3.94627e-09
7.34415e-08
1.59017e-15
6.5624e-08
2.23519e-17
1.78383e-10
1.92089e-08
-4.01564e-13
8.04471e-11
6.45584e-09
-1.2908e-13
1.16677e-10
9.1673e-09
-1.66884e-13
2.76088e-11
1.43771e-09
-4.48952e-14
2.59106e-10
7.11552e-09
-3.45974e-13
6.88056e-09
4.54789e-16
-5.91669e-12
1.69886e-09
1.37287e-12
-7.11531e-12
5.80358e-10
5.28846e-13
-1.42298e-12
8.26415e-10
8.36028e-13
-7.08186e-12
1.28082e-10
-4.919e-14
-3.92659e-14
6.22872e-10
-3.23389e-13
6.21521e-10
6.32129e-11
5.06658e-10
-5.02118e-10
-1.66193e-10
2.61246e-10
-2.90266e-08
-9.74035e-09
4.41107e-10
-2.09881e-08
-7.06058e-09
-3.40217e-13
-3.58933e-08
-1.1817e-08
-1.63085e-12
4.04888e-11
9.07938e-12
3.1452e-10
7.85505e-11
-0.000129119
0.0441189
8.74521e-05
-0.000112868
0.0439471
8.05996e-05
-4.94137e-05
0.0438182
8.46076e-05
4.58029e-05
0.0443688
7.7393e-05
-1.28463e-05
0.0434323
6.55285e-05
0.0452159
8.80263e-05
-0.00120857
0.123489
-6.47666e-05
-0.00041313
0.115852
-5.17621e-05
0.000453456
0.117301
-5.8104e-05
-4.65491e-05
0.122913
-5.8717e-05
-0.00120006
0.120209
-4.41142e-05
0.117528
-8.55147e-05
-0.00223344
0.25407
0.00413671
-0.000978535
0.240635
0.00349445
0.00132674
0.243593
0.00355655
-0.000815975
0.25051
0.00388993
-0.00467034
0.247984
0.00395883
0.241921
0.00340773
0.00253345
0.563657
0.0416389
-0.000949076
0.521126
0.0372073
0.000247621
0.528929
0.0386457
-0.00212227
0.554115
0.0417781
-0.00648673
0.546584
0.0415888
0.528632
0.0384743
0.0139562
0.94216
0.0613331
-0.00203639
0.901401
0.0603372
-0.00512501
0.90727
0.0592124
-0.000942695
0.946239
0.0610595
-0.00134407
0.948437
0.0566957
0.883117
0.0628313
-0.0540037
0.747088
0.00779116
0.620632
0.0184065
0.66304
-0.0229588
0.753847
-0.00634808
0.732919
0.613303
2.93683e-06
-4.60119e-05
-0.000168548
1.96314e-06
-1.3525e-05
-8.54862e-05
2.15775e-06
-1.51533e-05
-6.41791e-05
4.18741e-06
-1.23081e-06
-0.000122423
6.79946e-06
-2.93724e-05
-0.000161344
-1.07712e-05
-5.98614e-05
-2.17986e-07
-2.63706e-15
-4.89007e-05
1.28957e-07
-1.21313e-15
3.32556e-18
1.29677e-06
-1.54725e-15
1.48887e-19
3.37211e-09
-1.14597e-17
-1.85797e-09
-4.596e-08
5.57026e-16
-2.10348e-05
1.10047e-17
7.06364e-18
-8.46555e-19
-4.21568e-15
1.17032e-15
-7.13933e-19
-1.32729e-15
5.16977e-17
-1.80895e-20
-1.62187e-15
3.46286e-18
2.97089e-17
-4.88285e-16
-1.04074e-16
-4.35196e-17
-3.87185e-15
5.89033e-15
2.81853e-16
-4.44398e-16
-1.09157e-16
-4.05713e-13
4.24166e-17
-1.41357e-16
-1.30386e-13
1.30152e-17
-3.29086e-17
-1.68563e-13
4.13694e-18
-3.25019e-16
-3.38317e-14
-1.12676e-14
1.17673e-18
-1.74144e-13
-1.76029e-13
6.78488e-14
-3.00227e-14
-3.59792e-14
1.00419e-12
8.23981e-18
-4.60197e-14
4.10983e-13
2.75448e-16
-8.18197e-15
6.28497e-13
2.01034e-16
-3.80669e-14
7.64907e-14
-1.30439e-13
2.61916e-13
1.06999e-12
-1.84454e-12
-7.31945e-12
-2.95392e-13
1.42425e-11
-1.14972e-11
-3.40082e-13
8.8944e-12
-5.99975e-10
-1.68424e-11
2.41195e-11
-5.60933e-10
-2.36536e-11
-9.459e-14
-8.73399e-10
-1.2989e-12
1.13681e-14
1.93595e-10
-1.83516e-10
7.84326e-11
-7.17839e-12
-1.0206e-06
0.000107363
-1.7854e-05
4.03813e-07
9.56314e-05
-1.64567e-05
4.53405e-07
0.000100884
-1.63264e-05
9.79944e-07
9.47532e-05
-1.78864e-05
1.97469e-06
8.27742e-05
-1.82365e-05
9.91343e-05
-5.99356e-06
-2.94898e-07
1.07885e-05
-5.79885e-06
-2.26927e-08
7.74581e-06
-7.54158e-06
1.28244e-07
8.65947e-06
-7.6471e-06
-2.03206e-08
8.76402e-06
-6.63378e-06
4.75006e-08
6.4945e-06
-6.86006e-06
1.18536e-05
-2.51101e-06
-4.06135e-05
0.00406204
6.10953e-05
-8.21864e-06
0.00337518
1.9959e-05
6.79812e-06
0.00345997
3.68696e-05
-1.37748e-05
0.00381888
4.85856e-05
1.88525e-05
0.00384999
2.46395e-05
0.00336444
3.04325e-05
0.000320819
0.0450943
0.000200057
-7.56209e-05
0.0406479
0.000245381
-1.48126e-05
0.0417578
0.000203244
-1.64333e-05
0.0452846
0.000237967
-1.24512e-05
0.0451686
0.000194445
0.0415239
0.000211772
0.0237953
0.284565
-0.0133384
-0.00558907
0.304871
-0.0211168
-0.0154235
0.29267
-0.0195639
0.00700166
0.296416
-0.0161458
0.0203555
0.304082
-0.0161554
0.301881
-0.0212568
-0.0329162
-0.00176955
0.0056359
-0.00338833
0.0185373
-0.00261224
-0.00496696
0.00131203
-0.00391672
0.0122799
-0.00320732
-0.000419087
0.0464801
-0.0455737
-0.0165765
0.0457326
-0.0312134
-0.00749279
0.0454127
-0.0602758
-0.0178241
0.0445974
-0.0439179
-0.0255191
0.0291182
-0.0247233
0.0334069
-0.0719402
0.000550267
0.0874703
-0.0431854
-0.0182119
0.0808281
-0.0211543
0.00684581
0.0518061
-0.0423087
0.0170429
0.041749
-0.0167858
-0.020367
0.0611418
0.00154677
0.0796396
-0.0799528
0.0147439
0.101102
-0.03443
-0.00322765
0.103464
-0.011004
0.0190504
0.0465439
-0.0292548
0.0191284
0.0322528
-0.00312764
-0.0260841
0.0909192
0.0026079
0.103969
-0.0628006
0.0469985
0.0902666
-0.0373823
0.0484953
0.0858707
0.0105596
0.0150674
0.010033
0.0248199
-0.0155033
0.0299254
0.00945962
-0.0363802
0.111184
-0.0120735
0.119349
-0.0632664
0.0539091
0.0740345
-0.0376942
0.0686428
0.0478462
0.0221336
0.00284459
0.00319926
0.0428043
-0.0259051
0.0167562
0.025392
-0.0362994
0.108192
0.000662386
0.135054
-0.0602614
0.0203021
0.00837615
-0.0470834
0.00832799
-0.00369525
0.0116383
0.0246127
-0.000332085
0.0275739
-0.014919
0.0304235
0.0267997
-0.0330567
0.00930451
0.0122878
0.0191449
-0.0116561
0.0391483
-0.00424617
-0.029629
0.0194629
-0.0716671
-0.0065874
0.0134607
-0.0372792
0.0154007
-0.00235293
0.0212588
0.0309563
-0.0214156
0.00760433
0.0233073
0.00261576
0.00547767
0.00965739
-0.012211
-5.67309e-05
0.0106151
-0.0768366
-0.00307042
0.00816276
-0.055191
0.0045971
0.00339283
0.00601935
0.0165865
-0.00430776
0.00265972
0.019031
-0.0266291
0.016055
-0.00309888
-0.00801596
0.00554906
-0.0190271
-0.0205426
0.00251536
-0.00923657
-0.0641336
0.00238431
0.0021496
-0.00862009
0.00940255
0.00592145
-0.00817234
0.0104581
-0.032289
0.00985648
-0.000357737
-0.0106772
0.00346582
-0.016756
-0.00615588
0.00710847
-0.0371915
-0.0383911
-0.000272015
-0.0057626
-0.0289558
0.00266907
7.65007e-05
-0.0150256
0.00272318
-0.0311548
0.00188289
-0.00137813
-0.00918925
0.00117232
-0.00330448
-0.00431459
0.00294294
-0.0161293
-0.0177774
-0.00217028
-0.0118103
-0.0230039
-0.00354185
0.00515793
-0.0173826
-0.00941121
-0.0169885
-0.00480252
-0.000734048
-0.00357735
-0.000762713
-0.000787385
-0.00575831
-0.00770383
-0.00492953
-0.0153932
-0.000964343
-0.016091
-0.0123054
-0.0197418
0.0336452
-0.0393091
-0.0212942
0.0273552
-3.89936e-07
-0.0442078
0.00584298
0.000103501
-0.0534525
0.0169053
-0.000385468
-0.0139403
0.0266434
-0.0182042
0.0276164
-0.0682052
-0.031842
0.0546884
-0.0188949
-0.0317976
0.0513632
-4.6595e-07
-0.0531705
0.0283127
-2.04426e-05
-0.0482575
0.0328281
-2.86909e-06
-0.00441513
0.0428665
-9.86796e-05
0.063802
-0.00318014
-0.0299332
0.0838462
0.000286666
-0.0522202
0.0829346
-3.64768e-05
-0.0495125
0.0540924
-0.00320382
-0.0220982
0.0693019
-0.000875578
0.0156896
0.0702497
-1.34734e-06
0.102128
-0.0224413
-0.0700105
0.141727
-0.00978955
-0.0393744
0.108544
-0.00651935
-0.0162603
0.0290113
0.00421841
0.00662848
0.113891
-0.0326565
0.0486741
0.132061
-0.00379442
0.143279
-0.0177278
-0.0550789
0.169748
-0.0106304
-0.0354841
0.163519
-0.0242332
-0.015858
0.0382969
0.0151706
-0.0121101
0.12014
0.00136695
0.0269312
0.151704
-0.0743185
0.158615
-0.0528566
0.00601352
0.150039
-0.033217
0.00832575
0.199906
-0.0274218
-0.02493
0.054933
0.0208736
-0.0735262
0.0110723
0.0265445
-0.0274809
0.16569
-0.051585
0.194623
-0.076231
0.0409189
0.0894303
-0.0610274
0.0575954
0.177716
-0.0299789
-0.00834209
0.0412761
0.0376198
-0.013595
0.00318724
0.0328529
-0.0171341
-0.00161369
0.0322437
0.0168906
0.00370152
0.0426703
-0.00320881
-0.0253659
0.0413511
0.0078237
0.00203593
0.00894867
0.0133744
0.0149588
0.000316581
0.00501161
0.0254704
0.00192775
-0.000862591
0.0161933
0.000132597
0.0109192
0.0134812
-0.000586438
-0.00514437
0.0161197
-0.00226334
0.00333896
0.00875182
0.00140968
-0.0015773
0.00498793
-0.000350825
0.00821158
0.00339432
-0.00116799
0.00132315
0.00332216
0.000617585
0.00133889
-0.000562757
0.000624903
0.00530773
-0.00744966
0.00249789
0.000472345
-0.000271004
-0.0001858
0.000202406
-0.000460347
-0.00010248
0.000105909
-0.000601989
-0.000106567
0.000526758
-2.42245e-05
0.000368804
-0.00207136
9.87653e-05
-3.56407e-05
-0.00459029
0.000718784
-8.77476e-05
-0.00202365
-1.83387e-06
-0.000268332
-0.000788802
-0.00287096
-0.000349594
-0.000666947
-0.0111387
-0.000253557
-0.000140995
0.0021615
-0.0067661
0.000690467
-0.00346235
0.00109488
-0.00780268
6.43548e-05
-0.0161733
-0.00058457
-0.017884
-0.00498758
-1.92869e-11
0.00112039
-1.0103e-06
-3.51405e-07
6.67449e-09
-5.09199e-08
-3.40373e-06
1.79053e-05
3.42516e-06
-0.000385785
1.58973e-06
-2.66703e-06
-0.000726111
9.87046e-05
-1.23057e-07
0.00320401
-1.19844e-06
-1.91079e-08
0.00165965
-1.14839e-05
-3.05078e-07
1.81309e-08
-2.31864e-07
-6.54636e-08
-2.73566e-06
-8.24182e-08
-1.34766e-06
4.29359e-10
-4.533e-09
1.36481e-09
7.53764e-07
-2.00385e-06
2.95114e-05
-5.60929e-06
-2.61129e-06
0.00596248
0.000105416
-4.09241e-05
1.99988e-06
-4.7656e-08
-1.40864e-05
-0.00323218
-1.21103e-06
-1.30506e-08
-0.000889619
-3.81707e-08
1.635e-08
1.9492e-08
-8.87868e-08
0.00149129
-0.000308185
-0.00509359
0.00559416
0.000132881
-0.015586
0.00722001
-3.51933e-05
-0.00461575
0.0203228
-8.0941e-06
0.00409153
0.0131392
-2.33776e-07
2.81127e-05
0.000272055
-2.98786e-06
0.0046157
-0.000260936
-0.00840614
0.00615877
-8.12345e-05
-0.061817
0.0578576
-0.000123562
-0.0188327
0.156
-5.60892e-06
0.0368699
0.101869
-2.83873e-07
0.0197207
0.105332
-2.32256e-06
0.0753887
-0.00112494
-0.00876127
0.0213978
5.66533e-05
-0.0444951
0.158333
-0.0106867
-0.0389724
0.0814128
-0.0186744
0.0125569
0.159769
-0.0200259
0.096541
0.165925
-0.0450062
0.234291
-0.0313526
-0.0565204
0.041547
-0.000735708
-0.044268
0.172057
-0.0292923
-0.0353935
0.0152856
0.03014
-0.00561045
-0.00823755
0.0285154
0.0220853
0.0257531
0.00707389
0.189757
-0.0136005
-0.00296315
0.0575583
-0.0107399
-0.00153476
0.0422675
-0.00708108
-0.00845573
0.00198983
0.0109416
-0.000977839
-0.00075957
0.0162318
0.00160333
-0.000530836
0.0116892
0.00188237
0.0152021
0.00293124
0.009583
-0.00927334
0.00183917
-0.00166392
0.00555116
-1.8897e-05
0.000345201
0.00160705
-2.65395e-05
-8.94965e-06
0.00100786
2.72872e-05
1.80755e-05
0.000627378
0.000576911
0.00159333
0.000325842
0.00112319
1.19869e-05
0.000139949
0.000119444
0.000581335
1.01295e-05
0.000111674
9.02251e-05
-3.45466e-05
-0.000166761
4.44682e-05
-5.85474e-05
-0.000166657
4.49137e-05
0.000341813
0.000222838
0.000231213
0.000404813
9.05252e-05
0.000440837
0.000230064
0.000240823
0.00174531
-0.00113038
0.000527724
0.000741483
-0.00379614
0.00105052
-0.000150628
-0.00388476
-0.0056235
-0.000564714
0.000824393
0.00291038
-0.00831301
0.00792269
-0.00979041
0.00806051
-0.00789736
0.00381908
-0.0136992
-0.00253947
-0.0161523
-0.0115781
-1.15725e-08
6.54e-09
-1.17177e-06
-2.01042e-07
1.02142e-08
-3.82119e-08
3.38946e-06
-6.21975e-09
-4.12895e-07
1.56819e-07
-5.77241e-10
-2.17912e-06
1.55078e-08
-3.04988e-09
-2.79948e-07
4.68457e-09
-1.1949e-06
-1.52441e-07
2.32492e-07
-1.17411e-05
5.77925e-08
6.71441e-07
-3.8067e-06
8.59265e-09
1.37837e-08
-1.05602e-07
5.1314e-09
2.42606e-09
-1.0402e-08
5.94211e-08
2.17425e-08
-2.16634e-06
2.90453e-06
-8.5081e-06
-6.37953e-07
0.00010781
-1.76114e-06
7.0021e-08
2.83604e-06
-4.18331e-06
7.89745e-09
3.60595e-08
-1.17721e-06
3.37528e-09
5.38961e-09
-4.38752e-08
3.75446e-06
8.68829e-08
-3.91091e-06
0.000341281
-7.65277e-06
2.68636e-05
0.00020406
1.09325e-05
3.42521e-07
1.4947e-06
-7.25653e-06
8.3093e-08
1.7777e-07
-7.97691e-06
5.95616e-09
8.14448e-09
-1.65424e-07
2.24168e-08
8.78235e-08
-3.00578e-06
7.77832e-05
2.60581e-06
6.46035e-05
0.000131005
-7.27262e-05
9.22883e-07
4.32981e-06
-6.28994e-05
1.21165e-07
5.36801e-07
-5.17228e-06
1.86047e-08
3.24983e-08
-2.06146e-07
2.78842e-08
8.36374e-08
-2.33368e-06
0.00120455
2.3338e-05
-3.60673e-05
0.000453644
-1.21021e-05
-0.0112779
0.000864304
-0.000304857
0.000931553
0.0587786
-8.93836e-05
0.0244183
0.0650604
-2.49737e-06
0.000376858
0.00814265
-5.21223e-07
0.0162655
0.000102188
-0.000573963
0.000888703
-0.00012477
-0.0331484
0.00695402
-0.0018059
-0.00860735
0.0522694
0.00150626
0.0134051
0.0483606
0.00849255
0.0252785
0.0517651
-0.00771777
0.0869222
-0.000104194
-0.0160669
0.0171718
-0.00330674
-0.0151836
0.0501753
-8.27931e-05
-0.00763943
0.00429788
0.0154898
-2.03666e-06
0.000117923
0.0214436
0.0174723
0.00118681
0.0172729
0.0258724
0.0142839
-0.0185687
0.0135705
-0.0016919
-0.0054822
0.0126415
0.0128597
-0.000787413
0.000109009
0.00101234
-0.000236169
2.9866e-05
0.00048476
-0.000556721
8.79472e-05
0.00196166
0.000341158
0.00374111
-0.000648667
0.00246867
0.00104018
-7.24004e-05
0.00164095
0.00192214
-2.49486e-05
5.00133e-05
6.83036e-05
-2.75435e-05
1.61254e-05
2.26698e-05
-5.72441e-05
0.000101854
2.66289e-05
0.000180622
0.000255749
0.000197821
0.00197467
0.000142275
0.000133827
0.00176139
0.000162908
2.96445e-05
0.000626135
4.59487e-05
4.40022e-05
0.000950926
6.1028e-05
-0.000120784
-0.00563626
7.23474e-05
0.000290387
0.000117736
0.00483505
-0.0101581
0.00769196
-0.00945682
0.00925733
-0.00808515
0.00651196
-0.00974358
-0.00264531
-0.0123628
-0.013697
1.49856e-05
-7.25191e-05
-1.81929e-05
4.84492e-06
-1.92691e-05
1.16049e-18
-1.46301e-05
-6.20548e-06
5.3645e-20
-1.48077e-05
-4.29953e-05
-4.54688e-08
-4.32281e-06
-7.25366e-05
-1.99952e-05
-3.21296e-06
3.24228e-18
-1.5764e-05
3.52608e-05
5.62495e-17
-4.30525e-06
1.67833e-05
1.55958e-18
1.87934e-05
1.11344e-05
-5.47424e-19
7.82912e-06
3.79538e-05
-6.41607e-18
-9.19942e-06
2.37634e-05
2.65947e-16
4.867e-05
1.73501e-17
-2.8526e-05
1.22283e-20
-3.13417e-06
-5.55286e-21
5.83351e-05
-4.4563e-19
4.16051e-05
-2.83812e-21
6.6249e-06
-1.50431e-22
-8.64645e-19
3.8927e-22
2.17068e-16
3.96548e-16
1.79957e-21
6.53279e-18
1.73441e-17
-1.1173e-21
-2.23726e-20
1.30505e-18
-4.73268e-08
-2.63274e-19
-3.03366e-15
4.35293e-19
1.01767e-15
1.88967e-15
6.17539e-17
-2.16076e-16
5.46691e-20
6.2897e-20
3.93673e-16
-4.47731e-22
-2.4613e-22
1.35279e-17
1.31514e-22
-1.95204e-20
-5.50855e-19
1.95981e-21
-1.25938e-22
-3.83485e-17
2.99174e-18
-7.48813e-22
1.67659e-15
-3.66021e-20
1.34751e-17
-1.73773e-24
1.27493e-19
-1.52985e-22
-5.64774e-21
2.42611e-22
-4.65546e-19
1.13314e-24
-2.72258e-21
-9.03119e-22
-4.35295e-21
-9.0215e-19
-2.84523e-17
1.58595e-15
2.57506e-17
-1.70524e-19
6.10158e-17
7.82581e-18
-3.14701e-18
-2.44346e-18
2.54103e-18
9.21091e-17
-1.6162e-16
-6.71544e-15
-4.17822e-18
6.84409e-15
-1.02046e-13
5.52846e-17
-9.6344e-15
-3.36375e-17
8.0699e-19
2.13213e-17
-6.55336e-19
-3.75693e-20
-1.86745e-19
2.6376e-20
-3.16557e-18
-5.99502e-18
2.98533e-18
-1.72374e-20
-1.09114e-15
-1.30147e-16
-2.69552e-20
-1.24941e-13
-5.82406e-18
-1.33046e-14
-1.89129e-21
1.32032e-18
-2.80339e-22
-6.58437e-20
1.19942e-20
-7.34981e-19
-1.01468e-23
-1.37055e-21
-2.68611e-20
-2.12332e-19
-4.63857e-17
2.86417e-19
6.91139e-17
1.54046e-17
1.16507e-19
-6.26112e-19
5.57317e-16
-1.43311e-16
-2.00354e-17
4.49622e-16
-6.02989e-15
-1.41895e-14
-5.23508e-15
-3.70938e-15
-3.45069e-13
4.78995e-15
-3.9533e-14
-6.71466e-15
-6.82368e-19
9.35744e-18
1.35329e-18
-5.06297e-20
-4.70021e-19
-1.17725e-19
2.34883e-20
-5.27094e-18
-1.95286e-16
-6.73501e-16
-9.68845e-21
-1.16169e-14
-8.69594e-16
-1.77878e-18
-3.95674e-13
-9.4223e-16
-5.11778e-14
-1.72127e-21
9.66341e-21
-2.6131e-20
-8.89222e-20
-3.74518e-24
-3.81167e-19
-5.91677e-21
-6.2976e-21
-4.13641e-18
-7.21875e-18
-2.00593e-15
2.63579e-17
4.61767e-18
9.1262e-16
1.34251e-17
-4.05386e-19
4.22976e-14
-4.01584e-15
-9.38998e-16
3.94814e-14
-4.07755e-13
-2.58999e-12
2.8587e-12
-2.64546e-13
-5.22669e-11
4.73142e-11
-3.64735e-12
-4.51854e-11
-3.69251e-20
9.48794e-20
3.92368e-19
-1.31365e-18
-8.80205e-19
-9.70754e-18
-2.11678e-15
-4.15873e-18
4.89426e-16
-2.23837e-13
-2.94878e-19
-2.37784e-12
-1.07341e-13
-3.0836e-15
-5.23719e-11
-5.75019e-14
-7.8207e-11
-7.31613e-23
2.95995e-23
-9.7068e-21
-1.87579e-23
-5.52746e-23
-1.74815e-22
-3.36842e-19
-2.34337e-34
-2.05144e-16
-1.98526e-31
-1.47963e-27
8.99203e-15
3.82972e-17
-5.26747e-15
3.37778e-15
-6.10018e-16
-2.46393e-13
-2.06481e-12
-3.16793e-12
-2.84807e-13
6.95999e-14
-1.0298e-08
1.02975e-08
-2.37569e-11
-1.12247e-07
1.01734e-07
-3.21378e-08
1.8712e-09
-7.93574e-18
1.78991e-21
-1.85939e-17
-3.69751e-14
-1.5282e-21
3.63475e-14
-1.95148e-10
-3.1996e-20
1.91943e-10
-1.48149e-09
-8.50258e-31
6.22768e-08
-1.00827e-10
-5.53937e-28
1.72119e-07
-6.14519e-24
2.86651e-08
-5.8668e-24
-6.7163e-23
-1.78293e-23
7.55266e-23
-5.17888e-36
6.26129e-22
1.33115e-35
8.43327e-34
-4.22652e-28
4.98837e-31
7.98101e-27
3.59331e-09
-1.5955e-06
2.13081e-06
2.94691e-09
-4.74493e-07
1.23465e-06
-1.63932e-09
-7.04564e-07
1.04271e-06
5.87363e-08
-1.3676e-06
2.18877e-06
2.64876e-08
-2.64311e-06
2.92034e-06
-2.1324e-07
1.15574e-07
-6.65094e-09
-1.24739e-09
1.66236e-06
-8.64927e-10
-7.67216e-13
5.03901e-07
-3.51543e-09
-1.20825e-16
5.35858e-07
-1.3149e-08
-4.76391e-32
8.04959e-07
1.55372e-09
-3.19056e-29
1.00837e-06
-1.06512e-26
1.20177e-07
7.72152e-13
-1.24817e-09
1.22964e-16
3.8288e-15
-6.81132e-36
2.13981e-18
-5.19875e-33
2.84834e-34
1.03046e-32
4.23119e-32
1.94792e-29
-1.18956e-06
-5.26148e-06
9.19469e-06
-1.4033e-07
-5.37166e-06
5.9357e-06
4.03494e-07
-6.27793e-06
6.00537e-06
-8.22717e-07
-5.98861e-06
7.99e-06
-8.1531e-07
-5.61057e-06
4.97599e-06
-6.17175e-07
1.43971e-06
-9.79579e-07
-8.1362e-07
4.88002e-06
-5.91447e-08
-1.99752e-07
2.05142e-06
2.76624e-07
-5.3894e-07
1.62253e-06
-3.50372e-07
-6.46416e-07
2.84847e-06
-5.05083e-07
-7.6179e-07
2.98104e-06
-7.8152e-09
5.99962e-07
1.34401e-08
-8.28308e-07
-1.79855e-09
-1.8453e-07
-1.9479e-09
-5.38791e-07
3.62127e-09
-6.51985e-07
7.53364e-09
-7.65709e-07
-2.95984e-10
-1.74409e-06
2.01285e-06
4.40059e-05
-8.51543e-07
-2.18653e-06
3.18265e-05
-7.34414e-07
-1.04966e-06
3.08201e-05
-8.31752e-07
-2.30215e-07
3.8278e-05
-4.98562e-07
-5.10096e-07
2.89257e-05
-1.6166e-06
3.09414e-05
-2.68664e-06
3.85832e-06
2.13617e-06
-3.08519e-10
-8.23421e-06
5.3833e-06
1.79282e-07
-1.77712e-06
4.73886e-06
-6.698e-07
2.74573e-06
2.31761e-06
-1.95563e-06
1.76043e-06
3.23971e-06
-4.36674e-06
3.99239e-06
-4.88953e-06
-3.4509e-05
1.50403e-07
-2.55359e-06
2.55132e-06
-6.52919e-06
-2.88176e-06
-1.36519e-05
-3.95929e-06
-1.49292e-05
-1.81706e-06
9.98709e-06
2.60878e-05
0.000197169
-1.3167e-06
9.1989e-06
0.000275732
-2.56899e-06
5.55559e-06
0.000223897
3.8697e-06
1.64705e-05
0.000247221
8.64058e-06
9.53751e-06
0.000201698
1.04303e-05
0.000234815
6.63388e-07
6.43172e-05
-4.03416e-05
-5.61543e-08
4.5496e-05
-3.19945e-05
-4.84986e-07
4.64144e-05
-3.35043e-05
1.78626e-06
5.21983e-05
-3.47338e-05
1.78295e-06
5.59509e-05
-4.31547e-05
4.57464e-05
-2.88578e-05
-1.089e-05
-7.80694e-05
1.47407e-07
-4.49951e-05
3.50286e-06
-5.07619e-05
-1.67471e-06
-6.88827e-05
-5.98554e-06
-5.72139e-05
-4.05682e-05
0.000163614
-0.00147335
-0.0139285
-1.79465e-05
-0.00123218
-0.0194881
0.000166511
-0.00153431
-0.0180462
0.000333596
-0.00149359
-0.0161282
0.000191153
-0.00141258
-0.0161433
-0.00163943
-0.0192493
-3.03244e-05
8.34967e-05
-0.00155274
2.68484e-06
0.000150974
-0.00144152
1.31231e-05
8.78488e-05
-0.00165514
3.2036e-06
6.61122e-05
-0.00156941
-5.5437e-05
7.92543e-05
-0.00146208
0.00013014
-0.00184299
-1.06112e-05
-1.48723e-05
2.70866e-07
-1.529e-05
3.70903e-06
-1.34138e-05
-2.06556e-06
-1.38812e-05
-1.05598e-05
-1.06916e-05
-3.13715e-05
0.000899522
-0.00923851
-0.00491244
-0.000240359
-0.0098638
-0.00674956
-0.000645476
-0.00950786
-0.00612478
0.00043711
-0.00981277
-0.00436205
0.000757994
-0.00971039
-0.00425163
-0.00986244
-0.00690186
8.2703e-05
-1.96111e-05
0.000915972
-1.58214e-05
1.46354e-05
0.000883039
-0.000133441
3.4696e-06
0.000874447
-2.85971e-05
1.17021e-05
0.000935556
3.59929e-05
1.12332e-05
0.000793856
-0.000229655
0.000873686
1.04924e-06
1.09499e-06
4.51239e-08
3.60101e-07
-2.94305e-07
8.44354e-07
2.69693e-07
1.2258e-06
1.53419e-07
6.58021e-07
1.335e-06
0.000896811
-5.16389e-07
-0.00732169
0.00939891
0.00105951
-0.000104314
-0.00732955
0.0102929
2.30786e-05
-3.82417e-05
-0.00741008
0.0116671
-0.00144052
-0.000232542
-0.00789856
0.0125816
-0.00186613
-8.29555e-05
-0.00825055
0.0114653
-2.27377e-06
-0.00742796
0.00933864
2.29985e-09
-3.07575e-08
9.61705e-10
-4.88988e-07
6.48395e-07
-9.85965e-07
-2.79596e-13
-0.000103974
5.49274e-08
-3.36381e-06
-8.15275e-11
-3.4285e-05
-2.47243e-07
-2.72322e-06
4.61382e-08
-0.00022953
-2.13291e-09
-5.13368e-07
8.12349e-07
-8.35752e-05
-1.69665e-08
3.05102e-08
-2.29282e-06
-4.73644e-09
9.16391e-11
-2.61127e-08
-4.19618e-07
-5.62896e-09
-5.65455e-07
-3.45281e-07
3.29063e-07
-1.47508e-05
1.33181e-07
5.97375e-07
-1.87123e-05
1.41794e-10
5.61356e-08
-1.85845e-06
1.64926e-10
-2.00726e-08
6.17782e-05
-1.09174e-09
-0.00372406
-2.74732e-05
-3.19707e-10
-0.00388238
9.05111e-05
-3.03782e-08
-0.00398431
7.68757e-05
-9.55644e-08
-0.00399631
-4.34694e-05
-8.10596e-07
-0.00386139
-3.02039e-08
-0.00386188
-1.02503e-13
-7.46772e-11
-8.73981e-11
-2.54386e-11
-3.16672e-10
-1.65765e-11
-3.80352e-10
-3.01083e-08
-4.97076e-11
-5.49661e-09
-4.91372e-08
-1.19071e-10
-1.38428e-10
-4.5163e-09
-1.0372e-11
-9.50474e-11
-8.55918e-13
-1.2769e-11
8.95798e-12
-6.01894e-09
4.47199e-12
-9.49123e-09
1.13846e-11
3.79056e-09
3.50416e-10
2.16665e-11
2.44632e-11
2.82569e-11
5.97775e-05
-1.6742e-08
-0.00018514
0.00011335
-2.52244e-09
-0.00030131
2.58746e-05
-5.04833e-09
-0.000259508
-5.5491e-05
-1.85722e-08
-0.000237507
-2.65772e-05
-5.00257e-09
-0.000188722
-2.32193e-09
-0.000201139
1.47817e-12
-4.20964e-14
-1.68409e-08
-3.79864e-12
-1.68329e-12
-2.54498e-09
-5.74706e-11
-2.68883e-11
-5.12732e-09
-1.94284e-11
-7.37617e-11
-1.95563e-08
-5.06444e-12
-4.74853e-12
-5.20849e-09
-1.09531e-13
-2.35621e-09
-6.18651e-14
-1.07e-12
-8.04554e-12
-8.72031e-14
-4.71091e-11
-3.2425e-13
1.11673e-11
1.63013e-12
6.38429e-13
1.14444e-13
2.80419e-14
3.52484e-05
-1.97849e-06
0.00329128
3.375e-05
-2.83981e-07
0.00318156
3.01634e-05
-5.52524e-07
0.00321992
1.57085e-05
-2.35817e-06
0.00326376
-9.82906e-06
-7.54557e-07
0.00331739
-3.7792e-07
0.00326128
-3.3634e-10
-6.2951e-10
-6.27543e-07
-7.64624e-10
-1.13758e-10
-2.86037e-07
-2.43528e-09
-1.55259e-10
-5.56022e-07
-7.0563e-10
-8.6966e-10
-2.37995e-06
-2.26263e-10
-2.01455e-10
-7.60502e-07
-1.25204e-10
-3.8052e-07
-7.70248e-14
-6.41125e-10
-1.6346e-13
-1.2696e-10
-7.07709e-13
-2.09502e-10
2.58308e-13
-1.07013e-09
2.37693e-13
-3.77522e-10
-1.54461e-10
-0.000124032
-1.37887e-05
0.00582765
8.24071e-05
-2.36308e-05
0.00459868
8.74786e-05
-4.19012e-05
0.00400143
-1.23236e-05
-1.05841e-05
0.00567551
-5.65883e-05
-6.75231e-05
0.00527308
-3.60986e-05
0.00466644
-2.34198e-08
-2.54647e-08
-5.69733e-05
-3.67568e-08
-6.3499e-09
-2.39004e-05
-7.59452e-08
-1.36462e-08
-4.24321e-05
-1.66186e-08
-6.48663e-08
-0.000102783
8.03087e-09
-2.77214e-08
-6.83485e-05
-1.53684e-08
-3.64809e-05
9.27906e-11
-2.87884e-08
-8.73453e-11
-7.01256e-09
-7.71949e-10
-1.53316e-08
3.94146e-10
-7.65559e-08
3.18777e-10
-3.15247e-08
-1.72848e-08
0.000354673
-0.000214769
-0.000119841
-0.000768884
-0.000325974
-0.000546832
8.07432e-05
3.59274e-05
0.000714494
-3.91563e-05
-0.000544648
6.59697e-07
-9.98102e-07
-1.0579e-06
-1.01997e-06
-1.04853e-05
-7.99929e-07
-3.06891e-06
-7.46953e-07
3.71698e-06
-5.52142e-07
-3.64727e-06
-2.29566e-09
-1.35688e-09
-9.60557e-09
2.55195e-09
4.73929e-09
1.05832e-07
-8.62118e-07
-8.19227e-07
2.68292e-07
-3.87761e-07
1.89697e-08
4.23455e-06
-7.84874e-06
4.4551e-07
-4.89436e-07
-8.63877e-07
2.24884e-07
-1.3018e-08
-5.00575e-07
1.11326e-08
-1.28657e-06
4.38708e-08
3.2219e-07
-0
-1.29141e-07
1.59314e-07
-1.79755e-14
1.41093e-08
1.11105e-07
-1.45576e-11
-4.5494e-08
-5.17958e-08
-1.53571e-14
3.21386e-08
-1.84083e-07
-3.67814e-17
4.20433e-08
-1.03617e-20
-1.532e-08
0
0
-1.79979e-14
2.24354e-17
1.54112e-14
-1.4591e-11
3.68386e-17
1.72491e-17
1.0371e-20
4.68553e-20
9.35909e-24
6.51699e-07
-8.47266e-06
2.44004e-06
-5.32281e-08
-2.23362e-06
3.6945e-07
2.01874e-08
-7.24243e-09
-8.0216e-09
2.34428e-07
-9.07284e-09
8.57506e-10
1.04263e-06
-3.21046e-06
1.22918e-07
-7.16006e-06
1.6693e-06
4.05821e-07
-1.38306e-156
-8.62572e-07
4.11779e-08
-2.23932e-17
-8.59229e-08
-1.32619e-10
-6.44119e-09
-1.98327e-10
1.17461e-08
-4.16106e-10
6.4324e-11
-1.7286e-07
-5.77988e-12
-8.92623e-08
-1.15412e-17
-6.03982e-07
1.64926e-159
8.10361e-160
1.53958e-20
2.68091e-20
1.46495e-10
1.39932e-10
5.78325e-12
3.0501e-11
-2.303e-21
3.37038e-15
-1.15435e-17
9.19023e-07
-6.00461e-06
2.68687e-06
1.0312e-06
-3.15916e-06
5.36175e-06
4.12743e-08
-5.18675e-08
6.88789e-07
9.24749e-09
-2.2894e-08
1.25065e-08
2.87387e-07
-2.71406e-06
1.33213e-06
-5.72747e-06
2.18764e-07
1.00455e-06