/*--------------------------------*- C++ -*----------------------------------*\
| =========                 |                                                 |
| \\      /  F ield         | OpenFOAM: The Open Source CFD Toolbox           |
|  \\    /   O peration     | Version:  v1612+                                |
|   \\  /    A nd           | Web:      www.OpenFOAM.com                      |
|    \\/     M anipulation  |                                                 |
\*---------------------------------------------------------------------------*/
FoamFile
{
    version     2.0;
    format      ascii;
    class       volScalarField;
    location    "8.95";
    object      p;
}
// * * * * * * * * * * * * * * * * * * * * * * * * * * * * * * * * * * * * * //

dimensions      [1 -1 -2 0 0 0 0];

internalField   nonuniform List<scalar> 
1116
(
6692.22
6685.87
6688.82
6697.15
6699.8
6694.89
7158.21
7158.16
7154.71
7155.73
7157.7
7159.4
8461.88
8470.17
8469.5
8458.7
8454.22
8473.98
10034.1
10044
10046.2
10039.3
10040.4
10055.1
11276.1
11281.7
11283.2
11277.7
11278.3
11286.9
12127.6
12129.5
12130.3
12127.1
12127.2
12129
12702.2
12702.1
12703.9
12702.4
12702.4
12702.2
13135.5
13133.6
13135.4
13136
13133.7
13135.9
13421
13426.7
13427.5
13427.8
13428.1
13432.4
13156.7
13180.8
13176.9
13178
13182.9
13193.1
12078
12078.8
12080
12093.9
12096.5
12095.7
14350.6
14306
14321.2
14347.9
14331.8
14304.2
1185.59
1171.84
1167.78
1194.09
1202.18
1175.08
1330.88
1340.31
1337.39
1319.04
1302.95
1340.51
1834.22
1851.86
1854.93
1833.43
1818.07
1859.04
2690.86
2709.1
2713.4
2694.17
2690.47
2728.1
3536.75
3557.87
3558.46
3540.02
3537.08
3575.82
4024.61
4036.33
4037.03
4023.99
4023.45
4030.98
4231.24
4231.68
4234.88
4234.67
4238.82
4228.9
4563.18
4560.69
4563.93
4567.39
4566.12
4560.31
5055.65
5055.21
5056.73
5060.93
5047.35
5059.27
5350.54
5335.72
5340.58
5344.41
5328.72
5371.73
6569.49
6519.73
6535.82
6561.08
6551.03
6547.55
10462.9
10307.8
10375.9
10433.8
10397.7
10309.8
-63.3599
-63.3279
-63.3985
-63.3026
-63.0362
-63.53
-82.5474
-82.4529
-82.7591
-83.3154
-83.2704
-83.5809
-113.912
-114.063
-114.352
-114.182
-114.533
-115.169
-127.472
-127.893
-127.786
-127.07
-126.948
-127.185
-76.168
-75.9221
-75.6344
-75.2434
-75.0007
-73.4126
49.4718
50.03
50.2537
50.3858
50.3671
51.367
192.773
194.986
194.897
196.03
196.036
197.298
198.992
196.25
195.976
197.19
195.182
197.209
314.872
304.454
305.986
311.195
306.449
306.276
805.638
782.256
788.351
797.483
797.843
789.391
2855.32
2760.85
2807.05
2849.27
2862.33
2773.72
7830.06
7674.89
7718.11
7869.8
7890.31
7525.85
-51.9012
-51.5973
-51.5419
-51.658
-51.7058
-51.7
-60.8381
-60.8267
-60.9082
-60.9871
-60.98
-61.4563
-71.486
-71.4761
-71.691
-71.8327
-72.0808
-72.4517
-79.7432
-79.9251
-79.9695
-79.8462
-79.9493
-81.014
-61.6842
-61.6833
-61.6461
-61.5888
-61.4479
-60.7817
-11.9635
-11.9087
-11.9406
-11.9842
-12.186
-10.9994
16.0496
16.2014
16.0563
15.7643
15.6495
16.0761
16.1625
16.0274
15.8314
15.696
16.0231
14.8123
17.1174
15.1319
15.1265
15.7961
15.596
13.959
50.4984
34.7139
38.5498
42.6467
40.1286
32.3977
70.572
-7.18892
18.9512
19.0127
17.4365
-3.07334
1267.45
1358.36
1310.11
1294.86
1323.24
1335
1364.91
1318.01
1288.52
1277.59
1342.09
1394.9
1322.25
1286.84
1224.5
1224.58
1267.18
1352.68
1277.75
1241.08
1229.69
1235
1228.99
1319.45
1283.08
1216.21
1236.7
1313.74
1234.52
1329.17
1304.67
1289.88
1282.53
1376.36
1374.14
1434.86
1325.99
1314.97
1323.62
1345.83
1351.56
1413.91
1227.44
1172.25
1110.58
1015.66
1035.96
1119.02
851.009
831.578
716.81
665.143
681.556
719.437
460.363
458.654
445.544
457.532
446.644
447.835
283.359
273.017
268.833
299.013
270.612
280.622
226.532
220.71
223.527
271.629
285.307
260.837
224.245
212.257
228.769
273.406
297.127
291.938
434.541
357.568
248.433
319.118
471.63
497.667
367.063
308.68
240.707
293.471
350.622
373.392
376.677
343.816
363.302
346.096
334.869
378.734
449.425
356.821
417.242
510.076
393.507
401.678
471.398
347.803
425.709
439.834
467.052
547.218
479.185
297.479
382.006
432.005
492.78
645.411
428.226
208.771
273.655
380.104
444.442
458.483
380.485
266.682
193.095
287.349
329.682
333.692
256.262
210.326
149.08
177.399
146.572
139.612
133.665
107.67
84.8772
90.8491
80.9899
78.9658
79.9951
75.4509
78.807
86.6319
92.7313
93.609
68.4805
71.9852
77.2695
92.0331
102.362
97.6322
-17.0133
-19.0433
-21.3246
-23.1233
-17.3667
-0.371862
-17.4742
-17.2714
-18.1411
-20.194
-20.9741
-18.6034
-4.44626
-9.66092
-10.7787
-10.345
-10.5869
-11.7261
6.69212
-9.29022
-2.44544
-1.57873
-4.87441
-2.62765
16.7216
12.7831
139.794
144.329
42.3502
51.2858
42.8211
74.2006
195.015
219.991
269.855
273.872
41.2906
55.194
82.7908
131.238
141.492
223.187
77.959
38.7134
49.5127
110.782
124.863
111.678
62.9412
53.3446
44.6487
61.8211
65.7269
70.2454
46.1525
37.8519
39.0429
43.0601
42.8666
47.9673
38.3694
27.3025
28.2998
32.5414
47.2382
52.3794
39.6418
27.9324
19.6216
24.1829
32.0706
31.4836
-34.3169
-32.9017
-33.7511
-35.9368
-35.8189
-34.2285
-34.9552
-33.6234
-34.4053
-35.4742
-34.6518
-33.88
-37.5865
-38.3243
-37.3122
-35.8166
-34.1999
-33.0088
-42.3334
-47.8023
-41.8321
-39.7021
-39.946
-37.8561
-47.5697
-54.3005
-44.7474
-44.5906
-49.8333
-47.8064
-43.3048
-48.962
-10.8868
-2.47453
-46.4987
-53.3765
-45.0536
-49.0864
-7.35758
-7.69711
-20.5077
-3.45705
-29.434
-41.6772
-0.753848
28.7469
6.21393
-1.83389
-2.09497
-13.1538
-0.831546
10.0112
14.2865
19.5004
10.9389
-1.91618
-2.83201
0.685409
4.06779
8.71311
17.6649
6.79879
-0.542863
-2.67902
4.11269
13.9779
19.9497
-0.412717
-17.3744
-23.69
-32.699
-15.4714
-65.6648
-65.7912
-66.0164
-65.602
-65.5004
-65.7792
-69.7711
-69.3578
-69.1357
-69.6878
-70.0099
-70.2626
-75.1001
-74.9526
-74.84
-75.4608
-75.4558
-75.59
-69.7462
-69.8165
-69.9223
-69.8536
-69.8865
-69.929
-72.6443
-72.697
-72.7251
-72.6815
-72.7222
-72.6756
-78.3929
-78.3232
-78.2012
-78.3738
-78.6181
-78.3066
-71.7031
-71.6743
-71.7073
-71.7591
-71.8803
-71.9288
-71.3132
-71.3281
-71.3385
-71.3914
-71.4299
-71.4512
-72.4147
-72.456
-72.4408
-72.4735
-72.4754
-72.4856
-67.4905
-67.5182
-67.5375
-67.4775
-67.6032
-67.6816
-69.0133
-69.0239
-69.0304
-69.0026
-69.0819
-69.0133
-69.8172
-69.8153
-69.7926
-69.7937
-69.8032
-69.7546
-47.6136
-47.6013
-47.6439
-47.4042
-47.5103
-47.6627
-61.0293
-60.9854
-60.9697
-60.9163
-60.8748
-60.92
-65.3747
-65.379
-65.3557
-65.3459
-65.3303
-65.3116
-13.2017
-13.0351
-13.0708
-12.7025
-12.6391
-12.4858
-46.0714
-45.9619
-45.956
-46.0084
-46.0971
-45.7505
-61.1792
-61.1833
-61.1458
-61.1455
-61.1943
-61.1369
0.521733
0.340792
0.129644
0.106193
-0.419169
0.050149
-39.5609
-38.9393
-39.0412
-39.2228
-39.3809
-38.6324
-61.0491
-60.9165
-60.8002
-60.9509
-60.8885
-60.8038
-8.58863
-8.39447
-9.15616
-8.70468
-9.03842
-9.59867
-47.5717
-43.8676
-44.7941
-45.8013
-45.1071
-42.539
-62.73
-62.6158
-62.0049
-62.0026
-62.084
-62.3004
-28.3638
-28.9638
-29.6025
-29.3336
-29.6036
-30.7517
-70.474
-66.9883
-69.2489
-69.4168
-69.1909
-67.2301
-77.8671
-75.706
-76.4269
-76.9859
-76.4538
-74.4664
-23.8447
-25.6301
-26.0612
-27.2362
-28.7635
-28.9702
-46.8381
-47.3189
-47.7164
-47.5624
-48.465
-48.5315
-67.4348
-64.9839
-66.6923
-67.3006
-66.717
-64.2822
-27.9606
-31.0032
-30.9074
-32.274
-35.1215
-35.7481
-16.2436
-16.0608
-15.5009
-14.8366
-16.4264
-15.2536
-61.0931
-60.4273
-60.7304
-60.8396
-60.9534
-60.2642
47.9361
49.1962
50.484
50.9784
51.5039
52.1176
-35.3935
-37.2188
-35.465
-34.018
-33.8983
-36.2546
-63.2099
-63.1162
-62.9275
-63.2348
-63.1227
-62.7157
52.8568
55.6023
52.9542
45.5054
41.778
46.4124
-47.7444
-49.0493
-50.8537
-52.6655
-50.8774
-49.0879
-65.9933
-66.3669
-67.2901
-67.009
-65.4706
-65.1325
65.5926
64.5978
63.4152
62.5486
62.8615
64.1741
-46.5076
-46.7856
-47.4799
-47.7868
-47.4675
-47.0304
-65.7494
-65.7025
-65.556
-65.2486
-65.0304
-64.9509
68.1232
68.046
67.6433
67.5555
67.886
68.0388
-45.9599
-46.0782
-46.3524
-46.3789
-46.1016
-45.8865
-65.8477
-65.8055
-65.6931
-65.3418
-65.2522
-65.2051
69.1774
69.2315
69.132
69.0918
69.2901
69.3449
-44.419
-44.3164
-44.2347
-44.1659
-44.0175
-43.9622
-65.0794
-65.0204
-64.9306
-64.813
-64.7452
-64.708
70.8473
72.1706
71.8707
72.0892
73.6406
72.7612
-43.0526
-42.6816
-42.5201
-42.5218
-42.1358
-42.1098
-63.6376
-63.5593
-63.4474
-63.3962
-63.2997
-63.2512
69.0715
75.8706
75.875
80.8101
96.8873
79.6346
-43.4656
-42.6736
-42.3297
-42.3347
-41.2961
-41.6665
-61.1844
-60.7871
-60.8303
-60.9618
-60.6714
-60.5317
-44.5493
-43.4567
-41.4277
-41.7767
-42.9759
-43.9618
-55.0455
-54.9858
-54.5073
-54.6902
-54.8371
-54.9295
-65.6759
-65.8786
-65.4683
-65.8211
-66.1258
-66.0931
-45.0853
-44.0557
-42.7257
-43.1346
-43.6559
-44.5463
-55.7673
-55.6363
-55.6306
-55.6863
-55.7683
-55.8258
-66.5879
-66.7648
-66.7781
-66.8343
-67.0539
-66.9586
-46.6644
-45.4929
-43.9518
-44.381
-45.2326
-46.3439
-56.028
-55.9723
-56.0512
-56.3048
-56.7805
-57.0735
-66.7357
-67.2026
-67.1327
-67.3246
-67.513
-67.3171
-47.1799
-48.0854
-48.6956
-49.1353
-50.5685
-50.1717
-55.4747
-56.1508
-57.3427
-58.1701
-59.0207
-58.6767
-67.6556
-68.3482
-68.5222
-68.6426
-68.4757
-67.8706
-47.6371
-52.1726
-54.0286
-54.2211
-58.6108
-56.5755
-54.0269
-55.6049
-57.2208
-58.7402
-59.9345
-59.557
-68.1559
-69.0663
-69.3009
-68.9724
-68.603
-67.9949
-52.6075
-57.96
-58.4933
-59.8541
-63.9775
-63.1202
-59.9732
-61.3813
-63.7492
-67.7089
-67.6747
-67.4179
-69.7665
-71.1022
-71.591
-70.7659
-69.6284
-69.2018
-60.7753
-56.8949
-45.1119
-60.8259
-67.8276
-67.8519
-71.7459
-75.6209
-78.675
-81.2478
-82.7968
-82.21
-73.6687
-75.3014
-77.5541
-75.8882
-74.4522
-74.0765
-68.6378
-83.476
-59.6958
-54.4097
-67.4183
-63.004
-76.5877
-87.1716
-103.107
-88.5842
-87.4318
-83.8216
-78.6529
-77.2598
-86.6632
-82.0873
-78.4458
-76.8564
-18.9393
-39.3411
-26.9623
-23.3504
-22.0864
-23.1993
-50.8849
-59.5233
-54.2251
-50.2639
-49.4435
-54.0805
-69.7271
-71.3224
-73.6326
-72.2903
-70.2285
-69.6947
-12.5952
-26.2999
-27.431
-27.1316
-23.9819
-22.8065
-40.5018
-46.8563
-49.4239
-52.1186
-50.0097
-49.1608
-66.441
-67.4519
-68.1604
-70.4628
-67.8144
-66.9188
-6.08672
-10.3679
-16.0758
-19.4512
-19.9134
-15.2093
-42.7386
-43.8926
-47.1345
-49.5518
-49.747
-48.7389
-66.1641
-66.7057
-67.3777
-67.297
-65.2165
-63.3701
8.74612
7.16872
-1.33696
-13.3687
-27.9947
-13.3786
-47.8749
-48.1731
-52.7558
-56.2742
-56.1549
-54.6912
-63.6334
-64.5922
-66.5163
-66.1662
-63.7981
-63.8206
)
;

boundaryField
{
    seabed_topleft_surface
    {
        type            calculated;
        value           nonuniform List<scalar> 
72
(
10350.1
10347.9
10358.6
10348
10340.9
10365.1
11035.2
11037.6
11037.4
11030.3
11027
11044.1
13040.9
13053.8
13053.9
13038.3
13030.3
13059.6
14812.2
14822.2
14824.4
14817.5
14818.5
14833.2
16054.6
16060.2
16061.7
16056.3
16056.9
16065.4
16906.1
16908.1
16908.9
16905.7
16905.8
16907.6
17480.8
17480.7
17482.5
17481
17481
17480.8
17617.9
17616.1
17619.6
17616
17606.1
17626.7
17331.3
17323.5
17330.6
17332.5
17336.7
17335.4
17008.2
17026.6
17024.9
17025.5
17039.3
17044
15741.7
15735.1
15739.3
15758.6
15762.3
15750.7
17688.4
17638.4
17652.8
17685.5
17666.2
17634
)
;
    }
    seabed_topright_surface
    {
        type            calculated;
        value           nonuniform List<scalar> 
72
(
1841.38
1794.97
1765.64
1756.04
1810.37
1874.42
1799.2
1764.32
1703.07
1703.7
1745.65
1833.85
1755.33
1719.14
1709.26
1715.55
1710.15
1802.13
1760.24
1693.79
1608.11
1758.05
1717.51
1812.73
1781.71
1767.04
1527.14
1663.71
1857.81
1919.34
1716.51
1648.32
1611.61
1646.86
1656.29
1750.18
1574
1547.25
1397.78
1183.1
1143.76
1364.83
1125.51
1156
947.958
713.371
743.649
942.192
568.291
638.978
622.188
500.672
496.507
627.195
334.344
321.734
443.342
388.194
321.539
452.993
289.306
245.082
323.159
422.024
408.276
432.443
291.954
239.208
322.321
428.671
462.956
462.171
)
;
    }
    breakwater_top_surface
    {
        type            calculated;
        value           nonuniform List<scalar> 
36
(
163.329
166.558
164.926
157.242
150.099
152.376
182.686
180.974
178.52
176.044
174.961
177.273
187.013
186.829
186.114
185.836
186.089
186.287
188.113
187.913
187.662
187.502
187.519
187.376
189.927
191.094
190.276
190.711
192.233
191.122
185.97
191.261
191.368
197.831
212.957
195.903
)
;
    }
    breakwater_left_surface
    {
        type            calculated;
        value           nonuniform List<scalar> 
24
(
14362.1
14317.4
14332.6
14359.4
14343.3
14315.6
10471.9
10316.4
10384.7
10442.8
10406.3
10318.5
7838.45
7682.81
7726.22
7878.18
7898.5
7533.75
1270.79
1361.61
1313.32
1298.29
1326.79
1338.1
)
;
    }
    breakwater_right_surface
    {
        type            calculated;
        value           nonuniform List<scalar> 
24
(
224.476
212.349
229.089
273.938
297.695
292.521
68.604
72.0482
77.3141
92.0559
102.386
97.671
39.6686
27.9818
19.6709
24.2902
32.1894
31.5451
20.0771
-0.288026
-17.2692
-23.5555
-32.5646
-15.3371
)
;
    }
    water_front_surface
    {
        type            calculated;
        value           nonuniform List<scalar> 
186
(
6692.22
7158.21
8461.88
10034.1
11276.1
12127.6
12702.2
13135.5
13421
13156.7
12078
14350.6
1185.59
1330.88
1834.22
2690.86
3536.75
4024.61
4231.24
4563.18
5055.65
5350.54
6569.49
10462.9
-63.3599
-82.5474
-113.912
-127.472
-76.168
49.4718
192.773
198.992
314.872
805.638
2855.32
7830.06
-51.9012
-60.8381
-71.486
-79.7432
-61.6842
-11.9635
16.0496
16.1625
17.1174
50.4984
70.572
1267.45
1364.91
1322.25
1277.75
1283.08
1304.67
1325.99
1227.44
851.009
460.363
283.359
226.532
224.245
434.541
367.063
376.677
449.425
471.398
479.185
428.226
380.485
256.262
133.665
79.9951
68.4805
-17.0133
-17.4742
-4.44626
6.69212
16.7216
42.8211
41.2906
77.959
62.9412
46.1525
38.3694
39.6418
-34.3169
-34.9552
-37.5865
-42.3334
-47.5697
-43.3048
-45.0536
-29.434
-2.09497
10.9389
17.6649
19.9497
-65.6648
-69.7711
-75.1001
-69.7462
-72.6443
-78.3929
-71.7031
-71.3132
-72.4147
-67.4905
-69.0133
-69.8172
-47.6136
-61.0293
-65.3747
-13.2017
-46.0714
-61.1792
0.521733
-39.5609
-61.0491
-8.58863
-47.5717
-62.73
-28.3638
-70.474
-77.8671
-23.8447
-46.8381
-67.4348
-27.9606
-16.2436
-61.0931
47.9361
-35.3935
-63.2099
52.8568
-47.7444
-65.9933
65.5926
-46.5076
-65.7494
68.1232
-45.9599
-65.8477
69.1774
-44.419
-65.0794
70.8473
-43.0526
-63.6376
69.0715
-43.4656
-61.1844
-44.5493
-55.0455
-65.6759
-45.0853
-55.7673
-66.5879
-46.6644
-56.028
-66.7357
-47.1799
-55.4747
-67.6556
-47.6371
-54.0269
-68.1559
-52.6075
-59.9732
-69.7665
-60.7753
-71.7459
-73.6687
-68.6378
-76.5877
-78.6529
-18.9393
-50.8849
-69.7271
-12.5952
-40.5018
-66.441
-6.08672
-42.7386
-66.1641
8.74612
-47.8749
-63.6334
)
;
    }
    water_back_surface
    {
        type            calculated;
        value           nonuniform List<scalar> 
186
(
6694.89
7159.4
8473.98
10055.1
11286.9
12129
12702.2
13135.9
13432.4
13193.1
12095.7
14304.2
1175.08
1340.51
1859.04
2728.1
3575.82
4030.98
4228.9
4560.31
5059.27
5371.73
6547.55
10309.8
-63.53
-83.5809
-115.169
-127.185
-73.4126
51.367
197.298
197.209
306.276
789.391
2773.72
7525.85
-51.7
-61.4563
-72.4517
-81.014
-60.7817
-10.9994
16.0761
14.8123
13.959
32.3977
-3.07334
1335
1394.9
1352.68
1319.45
1329.17
1434.86
1413.91
1119.02
719.437
447.835
280.622
260.837
291.938
497.667
373.392
378.734
401.678
547.218
645.411
458.483
333.692
139.612
78.9658
93.609
97.6322
-0.371862
-18.6034
-11.7261
-2.62765
51.2858
273.872
223.187
111.678
70.2454
47.9673
52.3794
31.4836
-34.2285
-33.88
-33.0088
-37.8561
-47.8064
-53.3765
-3.45705
-1.83389
19.5004
8.71311
13.9779
-15.4714
-65.7792
-70.2626
-75.59
-69.929
-72.6756
-78.3066
-71.9288
-71.4512
-72.4856
-67.6816
-69.0133
-69.7546
-47.6627
-60.92
-65.3116
-12.4858
-45.7505
-61.1369
0.050149
-38.6324
-60.8038
-9.59867
-42.539
-62.3004
-30.7517
-67.2301
-74.4664
-28.9702
-48.5315
-64.2822
-35.7481
-15.2536
-60.2642
52.1176
-36.2546
-62.7157
46.4124
-49.0879
-65.1325
64.1741
-47.0304
-64.9509
68.0388
-45.8865
-65.2051
69.3449
-43.9622
-64.708
72.7612
-42.1098
-63.2512
79.6346
-41.6665
-60.5317
-43.9618
-54.9295
-66.0931
-44.5463
-55.8258
-66.9586
-46.3439
-57.0735
-67.3171
-50.1717
-58.6767
-67.8706
-56.5755
-59.557
-67.9949
-63.1202
-67.4179
-69.2018
-67.8519
-82.21
-74.0765
-63.004
-83.8216
-76.8564
-23.1993
-54.0805
-69.6947
-22.8065
-49.1608
-66.9188
-15.2093
-48.7389
-63.3701
-13.3786
-54.6912
-63.8206
)
;
    }
    water_left_surface
    {
        type            calculated;
        value           nonuniform List<scalar> 
42
(
6704.74
6698.41
6701.39
6709.65
6712.27
6707.46
1189.63
1175.83
1171.75
1198.16
1206.26
1179.08
-63.3437
-63.3117
-63.3823
-63.2865
-63.02
-63.5138
-51.884
-51.5808
-51.5255
-51.6412
-51.6886
-51.6836
-65.6648
-65.7912
-66.0164
-65.602
-65.5004
-65.7792
-69.7711
-69.3578
-69.1357
-69.6878
-70.0099
-70.2626
-75.1001
-74.9526
-74.84
-75.4608
-75.4558
-75.59
)
;
    }
    water_right_surface
    {
        type            calculated;
        value           nonuniform List<scalar> 
42
(
1366.54
1319.65
1290.16
1279.23
1343.69
1396.54
436.109
358.778
249.213
320.147
473.142
499.2
-16.9346
-19.0271
-21.308
-23.1071
-17.3505
-0.264784
-34.301
-32.8858
-33.7352
-35.9209
-35.8031
-34.2126
-44.5493
-43.4567
-41.4277
-41.7767
-42.9759
-43.9618
-55.0455
-54.9858
-54.5073
-54.6902
-54.8371
-54.9295
-65.6759
-65.8786
-65.4683
-65.8211
-66.1258
-66.0931
)
;
    }
    water_top_surface
    {
        type            calculated;
        value           nonuniform List<scalar> 
180
(
-79.4906
-75.1731
-72.4913
-79.0495
-79.0794
-78.5605
-80.6087
-80.391
-80.1503
-80.5179
-80.9824
-80.1594
-74.2984
-74.3739
-74.3908
-74.3422
-74.3368
-74.3993
-73.2169
-73.2474
-73.2329
-73.2108
-73.2519
-73.1357
-71.7194
-71.7798
-71.7631
-71.7398
-71.7295
-71.7339
-71.8818
-71.9444
-71.8906
-71.9161
-71.9147
-71.8354
-74.3595
-74.5287
-74.3222
-74.4444
-74.2878
-74.0843
-71.0603
-79.1385
-78.0381
-74.1333
-73.0928
-79.1442
-69.7156
-72.3624
-69.2456
-69.3131
-69.293
-73.5414
-70.8477
-69.4666
-69.6879
-70.4018
-70.0277
-69.5157
-69.7564
-69.4937
-69.5335
-69.6883
-69.3205
-69.5703
-69.9021
-70.2265
-70.3967
-69.9277
-70.6322
-69.7126
-68.6706
-68.7168
-68.9985
-68.9492
-68.6818
-68.67
-68.67
-68.67
-68.6746
-68.678
-68.6705
-68.67
-68.67
-68.67
-68.67
-68.67
-68.67
-68.67
-68.67
-68.67
-68.67
-68.67
-68.67
-68.67
-68.67
-68.67
-68.67
-68.67
-68.67
-68.67
-68.6705
-68.6702
-68.6703
-68.6716
-68.6706
-68.6919
-70.446
-70.9986
-69.4798
-70.8091
-71.7666
-71.0785
-72.0885
-72.3893
-72.6925
-72.8543
-72.9526
-72.3971
-71.3833
-72.0097
-72.3786
-73.0039
-73.0682
-72.5671
-71.1174
-71.994
-73.1048
-73.8821
-73.3366
-72.5181
-71.1893
-73.0657
-74.4869
-74.8529
-73.3881
-72.132
-71.9906
-77.0122
-79.6027
-77.0163
-73.5667
-71.1923
-70.447
-76.8264
-83.4978
-74.3328
-69.2601
-68.6806
-68.6732
-70.7362
-145.02
-78.6063
-68.69
-68.6889
-69.0333
-70.8617
-87.2893
-73.3917
-69.7791
-68.6854
-71.8094
-74.103
-68.7419
-68.684
-68.6791
-68.6839
-72.1485
-70.4636
-68.7873
-68.6813
-68.6791
-68.9548
-68.7781
-68.675
-68.7596
-68.6842
-68.6813
-68.7057
)
;
    }
}


// ************************************************************************* //
