/*--------------------------------*- C++ -*----------------------------------*\
| =========                 |                                                 |
| \\      /  F ield         | OpenFOAM: The Open Source CFD Toolbox           |
|  \\    /   O peration     | Version:  v1612+                                |
|   \\  /    A nd           | Web:      www.OpenFOAM.com                      |
|    \\/     M anipulation  |                                                 |
\*---------------------------------------------------------------------------*/
FoamFile
{
    version     2.0;
    format      ascii;
    class       surfaceScalarField;
    location    "8.95";
    object      phi;
}
// * * * * * * * * * * * * * * * * * * * * * * * * * * * * * * * * * * * * * //

dimensions      [0 3 -1 0 0 0 0];

internalField   nonuniform List<scalar> 
2916
(
-0.00586189
0.0965977
-0.0907358
0.00793963
0.0741288
-0.0879303
0.0318463
0.0666469
-0.0905535
0.0147687
0.110572
-0.0934947
-0.024395
0.130111
-0.0909471
0.0693736
-0.0937686
0.00553165
0.114083
-0.0230168
-0.000977789
0.101098
-0.0204595
-0.0141128
0.0958525
-0.0160706
-0.00434767
0.115557
-0.0147498
0.00528185
0.126115
-0.00563337
0.0915566
-0.0169012
0.00537743
0.137385
-0.0286799
-0.000271207
0.131098
-0.0243516
-0.0133957
0.128205
-0.0192285
-0.00569797
0.136173
-0.0283136
0.00720586
0.142257
-0.0290457
0.122263
-0.0235001
0.00172784
0.182529
-0.046871
-0.000645034
0.179375
-0.0459036
-0.00677666
0.178521
-0.0441842
-0.00434255
0.182001
-0.0482626
0.0037638
0.185958
-0.0518073
0.175745
-0.0497182
-0.000953562
0.262657
-0.0791747
-0.000714789
0.259589
-0.0804528
-0.00128296
0.260459
-0.0813693
-0.00195592
0.261597
-0.0789225
-0.000868076
0.264169
-0.0792995
0.259615
-0.0847383
-0.00142226
0.347694
-0.0836146
-0.000857196
0.342895
-0.0838716
0.000323743
0.344608
-0.0853303
-0.00145032
0.346089
-0.0827181
-0.00352537
0.348541
-0.0822966
0.343072
-0.0869823
0.000715191
0.429556
-0.0825771
-0.000920706
0.426451
-0.0819195
-0.000841477
0.42762
-0.0830913
-0.00134063
0.428826
-0.0822383
-0.00157179
0.428941
-0.0801692
0.426529
-0.085029
0.000900969
0.478524
-0.0498694
-0.00131914
0.480641
-0.0519708
-0.00179915
0.480579
-0.0524784
-0.00177538
0.479021
-0.0502188
-0.00170892
0.474207
-0.0453324
0.481256
-0.0564357
-0.00485698
0.424609
0.0587719
-0.00125338
0.423608
0.0534297
-0.000261252
0.423918
0.0556683
-0.00367269
0.425723
0.0567094
-0.00660041
0.42183
0.0553047
0.423396
0.051259
-0.00425647
0.206499
0.222366
-0.00104628
0.190441
0.229957
-0.000609736
0.192339
0.231142
-0.000258216
0.207651
0.217721
-0.00251449
0.211285
0.212802
0.186145
0.234737
0.0022596
-0.0654005
0.26964
0.00140716
-0.0915252
0.282818
1.20014e-05
-0.0890447
0.282779
0.00437594
-0.064416
0.267703
0.00249114
-0.0508186
0.263988
-0.0965802
0.285216
0.0141668
-0.0795675
4.65953e-05
-0.0774051
-0.00227341
-0.0867246
0.0105597
-0.077249
0.0186913
-0.0589501
-0.0778891
0.0175362
0.193775
-0.302047
-0.0246591
0.250226
-0.295961
-0.0870087
0.25911
-0.287314
-0.0362532
0.148283
-0.292533
0.0515541
0.10401
-0.282764
0.240562
-0.282776
0.0142217
0.340384
-0.183847
0.0134956
0.368589
-0.138096
0.0210317
0.369128
-0.133625
0.0175005
0.33652
-0.199456
-0.00178841
0.33879
-0.221125
0.360136
-0.138264
0.0150674
0.371456
-0.074819
0.0126379
0.380311
-0.0336443
0.0110211
0.375266
-0.0237498
0.0133084
0.379109
-0.0731895
0.00645979
0.393681
-0.0770875
0.374951
-0.0318559
0.00240137
0.493304
-0.171121
0.00235723
0.495604
-0.161153
0.000360022
0.492172
-0.159092
0.00164141
0.498197
-0.168632
0.00523367
0.507913
-0.169632
0.494
-0.163533
-0.00443513
0.719222
-0.300657
-0.00121989
0.721185
-0.309249
0.000699162
0.719899
-0.311016
-7.31815e-05
0.720429
-0.300382
0.00201778
0.723466
-0.296943
0.719553
-0.308273
-0.00273111
0.943095
-0.304757
-0.00247935
0.944461
-0.307399
-0.00128507
0.943129
-0.309754
-0.00162719
0.943784
-0.305731
0.00239265
0.94636
-0.309211
0.941412
-0.306449
0.000487082
1.14471
-0.28468
-0.00294124
1.1504
-0.284435
-0.00286164
1.14681
-0.286849
-0.00227693
1.14776
-0.286795
-0.000477641
1.14975
-0.285356
1.14589
-0.289983
0.00168623
1.31424
-0.221086
-0.00218305
1.32939
-0.227084
-0.0035099
1.3229
-0.22724
-0.00111285
1.32096
-0.225825
0.00179597
1.32363
-0.222125
1.32117
-0.229921
-0.000322714
1.36994
0.0033947
-0.000424325
1.38677
-0.0038548
0.000461653
1.37893
-0.00125733
-0.002478
1.38092
-0.000309755
-0.00757495
1.38742
-0.00338233
1.37309
-0.00823642
0.00740648
1.09809
0.486811
-0.00071603
1.09977
0.525083
-0.00215169
1.0947
0.516813
-0.0040016
1.11006
0.490437
-0.020616
1.11907
0.497759
1.07981
0.507399
0.0132455
0.742776
0.611709
0.00163426
0.728279
0.665919
-0.00100211
0.726131
0.653984
0.00615872
0.757044
0.613556
-0.00498778
0.773756
0.620452
0.707873
0.652168
-0.0113663
0.674575
-0.00245313
0.641961
-0.0109681
0.647922
0.000610615
0.668216
0.0547942
0.660623
0.684778
0.0546986
1.48066
-1.83741
-0.0952728
1.73201
-1.878
-0.324951
1.78454
-1.84218
-0.13828
1.36473
-1.84393
0.304124
1.2047
-1.92987
1.81664
-1.79529
0.0531115
3.42672
-2.18302
0.0772857
3.65282
-2.08308
0.0849164
3.68766
-2.04437
0.0742179
3.4048
-2.22883
0.242907
3.28811
-2.47322
3.81899
-1.89771
0.0637465
5.12332
-1.83517
0.171105
5.36231
-1.85049
0.206353
5.40533
-1.77667
0.227318
5.18139
-1.87074
0.267504
5.08409
-1.91326
5.63283
-1.57819
0.0602464
6.05863
-1.16668
0.0827183
6.29171
-1.11303
0.0852854
6.31524
-1.07157
0.123348
6.1354
-1.1607
0.217305
6.02207
-1.20157
6.5194
-0.832793
-0.0467267
5.65577
0.148936
-0.0409849
5.77367
0.203051
-0.0537253
5.79653
0.220439
-0.0542832
5.68246
0.15311
0.00559539
5.58335
0.0819002
5.84196
0.374757
-0.0744159
4.12199
1.30343
-0.0537527
4.12428
1.32132
-0.0525487
4.15262
1.33295
-0.0527271
4.08616
1.29074
-0.0399294
4.05024
1.21109
4.12589
1.36969
-0.0248253
3.32047
0.54167
-0.0171816
3.32793
0.504279
-0.0100898
3.33675
0.521925
0.00548841
3.28478
0.49901
-0.00100621
3.29708
0.474303
3.33756
0.49734
-0.0573032
3.21115
-0.0544647
-0.0201795
3.23692
-0.173201
0.0212881
3.22684
-0.158797
-0.0009606
3.19524
-0.114039
-0.0547623
3.26998
-0.141227
3.18664
-0.133766
-0.0492182
2.72678
0.536986
-0.0216754
2.73077
0.47475
0.0281145
2.71332
0.462473
-0.0165836
2.73411
0.505519
-0.0988925
2.819
0.529909
2.63555
0.443968
0.0184692
2.1913
1.00382
-0.00887881
2.15033
1.13287
0.0031035
2.13347
1.08468
-0.0197305
2.21153
1.03585
-0.0575825
2.24668
1.10794
2.06798
1.01738
0.0743463
1.89524
0.833426
-0.0118275
1.90341
0.999009
-0.0278642
1.88481
0.918681
-0.00485178
1.92018
0.881902
-0.00486778
1.9645
0.902643
1.81608
0.899202
-0.0947941
2.6646
0.0134228
2.43716
0.0285901
2.51757
-0.0404443
2.65743
-0.00651674
2.59119
2.49434
0.0541727
-0.784713
-1.10687
0.0898004
-0.829857
-1.08378
0.0464429
-0.780878
-1.01795
0.0511169
-0.762476
-1.08613
0.118071
-0.747587
-1.24924
-0.750106
-0.927114
-0.0323935
-0.679868
-2.25547
0.0575145
-0.748234
-2.25461
0.194407
-0.77725
-2.18489
0.102183
-0.66696
-2.23213
-0.0119497
-0.616064
-2.49062
-0.703313
-1.95645
-0.0345616
-0.585459
-1.89502
-0.0229145
-0.573493
-2.03688
-0.0620332
-0.542626
-1.97218
-0.0316571
-0.606261
-1.96182
0.0515508
-0.624655
-1.98787
-0.419
-1.81096
-0.0439435
-0.284312
-1.42389
-0.0458229
-0.241798
-1.44284
-0.0408277
-0.219391
-1.3998
-0.0504174
-0.297895
-1.45948
0.00453586
-0.352415
-1.52876
-0.0626206
-1.18464
-0.0482281
0.389885
-0.477033
-0.0428247
0.406048
-0.450199
-0.056317
0.429135
-0.414596
-0.0638418
0.368898
-0.506158
-0.0341194
0.308754
-0.608993
0.515549
-0.237535
-0.0424043
1.59545
0.140268
-0.0287672
1.57588
0.137844
-0.0470483
1.61589
0.164478
-0.0272805
1.54599
0.0938761
-0.00484815
1.48146
0.0159457
1.67873
0.201651
-0.0296112
2.88729
-0.720553
0.0132212
2.80958
-0.772253
0.0158132
2.86654
-0.731318
0.032532
2.81747
-0.789194
0.0589576
2.70018
-0.770845
2.97681
-0.741778
-0.163318
4.20415
-1.20802
-0.00969768
4.17677
-1.69401
0.0736545
4.24089
-1.6165
-0.00936295
4.13692
-1.35047
0.0319946
4.05091
-1.53331
4.36087
-1.48583
-0.105954
4.21296
0.634135
-0.021378
4.22824
0.3387
0.0214807
4.2835
0.377002
-0.0254996
4.19117
0.498249
0.0598113
4.17791
0.317596
4.39796
0.46669
0.167533
2.87417
2.17508
-0.0244316
3.55178
2.00129
-0.00177599
3.25615
2.08938
-0.00507332
3.12787
2.10245
-0.00040151
3.15501
2.12616
3.45691
1.95803
0.381392
1.54024
1.78596
-0.113251
2.20436
2.84107
-0.255043
1.9164
2.40022
0.108419
1.68362
1.96269
0.378292
1.74938
2.03839
2.05789
2.67651
-0.150758
4.3556
0.0255311
4.46523
0.078611
4.38089
-0.0211877
4.44085
-0.00989699
4.32929
4.54233
-0.000781008
0.479344
-0.478563
-0.170324
0.464474
-0.294931
-0.0849948
0.464101
-0.549429
-0.196408
0.449867
-0.338454
-0.302904
0.265562
-0.159066
0.337692
-0.640596
0.0096025
0.889824
-0.420082
-0.185804
0.810161
-0.15028
0.0633956
0.626234
-0.411333
0.160434
0.459256
-0.106427
-0.220253
0.577312
0.0689384
0.796587
-0.679149
0.148552
1.04965
-0.308379
-0.0378439
1.07288
-0.0763245
0.190674
0.658497
-0.260782
0.19122
0.4828
-0.0240898
-0.273301
0.919967
0.121866
1.05674
-0.533456
0.490628
0.95413
-0.395107
0.525437
0.919772
0.118301
0.145344
0.279719
0.758871
-0.189996
0.554258
0.263883
-0.389486
1.23691
-0.117456
1.32421
-0.656951
0.564131
0.785807
-0.395808
0.734489
0.515407
0.234007
0.0384027
0.0741523
0.901653
-0.33268
0.527976
0.397364
-0.40714
1.32257
-0.0111943
1.50338
-0.586317
0.609554
0.484524
-0.30827
0.973886
-0.025695
0.17677
0.620281
-0.00215956
0.429917
-0.297616
1.07395
0.371925
-0.588871
1.46232
0.151501
1.0732
-0.158684
0.775088
-0.00904413
-0.28152
1.45808
-0.620658
-0.0880278
1.77453
-0.620077
0.301463
-0.0791884
1.91492
1.01274
-0.906973
1.53991
0.750197
0.114408
0.0518152
0.175371
-0.162824
-0.0215914
0.526995
-0.862139
-0.110143
1.101
-1.31505
0.120975
0.332297
0.945576
1.73805
-0.261387
0.398583
1.73501
-0.634689
0.487709
-0.146456
-0.31674
0.300371
-0.421737
-0.683852
0.0969941
-0.337957
-1.51077
0.111941
0.196016
-0.976081
1.38768
0.188339
-1.01122
1.41748
-0.927996
0.481646
-0.17655
-0.820798
0.680607
-0.952183
-0.802861
0.894642
-1.04589
-1.41299
-0.00407458
-0.416568
-1.84669
0.241285
0.0147682
-1.87066
0.428106
-1.02816
0.114933
-0.334335
-0.71299
0.226527
-1.28546
-0.813784
0.962046
-1.40228
-0.900299
-0.395868
-0.688405
-1.1705
-1.39006
0.149744
-1.12213
-1.58668
-0.627987
-0.25043
-0.151583
-0.561406
-0.870588
-0.0947785
-0.72462
-1.04627
-0.29616
-1.59896
-0.0365943
-1.3817
-0.664581
-0.13268
0.421444
-0.767327
-0.275839
0.373978
-0.52575
-1.25988
0.0996275
0.334988
-1.18354
0.261092
-0.675886
-0.220487
0.340554
-1.46267
0.337435
-1.19852
-0.299236
0.77042
-0.469822
-0.47304
0.728399
-0.330896
-1.23529
0.429489
0.0210555
-0.992783
0.437048
-0.524891
-0.0720133
0.643589
-1.15487
0.810111
-1.22384
-0.530783
0.962049
0.0307744
-0.723212
0.977533
-0.133029
-0.619753
0.726736
-0.661488
-0.331421
0.670887
-0.546261
0.180006
0.843027
-0.588999
1.03449
-0.577828
-0.573123
1.31359
-0.17352
-0.58513
1.25709
-0.149245
-0.299528
0.857358
0.342647
0.0718046
1.22449
-0.661057
0.586668
1.31287
-1.10216
1.33922
-0.375015
-0.465855
1.67979
-0.296156
-0.39686
1.70658
-0.284481
-0.264353
0.997476
0.629028
-0.22381
1.58063
0.00068375
0.303249
1.93585
-1.16123
1.95865
-0.902493
0.0737358
2.07762
-0.77984
0.0910438
2.31927
-0.45323
-0.611733
1.28575
0.844417
-0.929781
1.80888
0.461726
-0.302143
2.02296
-0.563251
2.27574
-0.777925
0.897653
2.03835
-1.1399
0.876937
2.55721
-0.305253
-0.207361
1.47995
1.19156
-1.14268
2.21231
1.54463
-0.49255
1.49564
0.627387
1.8309
0.00410879
1.73137
1.09348
-0.808089
2.24343
1.88921
0.0457977
0.691544
1.58432
1.56849
0.0385384
1.37523
3.22813
0.214681
0.00286761
3.05164
1.49173
1.04156
1.76767
0.00367655
-0.377499
3.24794
-0.304396
0.81033
1.50809
1.06755
2.36857
1.38488
-0.10095
2.98708
1.14515
-1.17198
2.83206
1.68551
1.43301
0.500828
-0.181015
0.364471
1.36882
-1.88671
1.60896
0.919741
-0.902797
2.41535
0.40343
-1.29867
1.95532
0.303768
-1.68495
1.04074
0.714859
1.38935
0.207794
-0.435563
0.273282
-0.0149406
-1.48432
0.782397
-0.228784
-1.33802
0.253199
-0.580491
-1.36057
-0.976461
-0.235407
-1.19195
-2.42477
-0.221393
0.450414
0.69921
-1.69618
1.11799
-1.99788
0.864683
-2.13098
0.121898
-2.21675
-0.402531
-2.04922
-1.28851
0.0171319
0.24973
-1.03419
0.0588135
0.265874
-0.833308
-0.891283
0.0625842
1.22249
-1.12847
0.209005
-0.647714
-0.112096
0.285182
-2.76423
0.464711
-1.77533
-0.590928
0.710229
-0.339392
-0.757926
0.607212
-0.50523
-1.06579
-0.045402
0.43691
-0.690137
0.0091143
-0.700646
0.0164673
0.410642
-1.98693
0.880424
-1.62308
-0.406133
0.802994
0.344142
-0.554003
0.534658
0.0873914
-0.755335
-0.376396
-0.129166
-0.244371
-0.167821
-0.880292
0.305078
0.348686
-1.07649
0.948519
-0.340845
-1.44777
0.916894
1.16035
-1.67353
0.714352
-0.103172
-0.526713
0.514303
-1.69487
0.75443
0.5194
-2.62942
1.14735
0.423088
-1.56948
0.650973
1.06988
-2.63777
1.33151
1.92699
-2.26994
1.58107
-1.51902
-0.397996
1.8046
-2.53321
1.24301
1.79145
-2.91237
1.98846
1.59584
-3.07944
1.33945
0.397489
-2.38355
2.10716
0.828068
-1.51074
2.34261
-2.08759
-0.566132
2.22376
-0.519357
0.164921
2.20978
-0.687658
1.10866
2.3387
-2.24985
2.48454
-0.814345
-1.22497
2.7437
-0.551476
-0.739407
3.09079
-1.53899
-1.12241
2.51217
1.28615
-0.681892
2.13107
1.18282
0.248275
1.93579
0.10013
3.02096
-0.284041
-0.106921
3.40663
-1.3641
-0.0771826
3.35539
-0.248541
-1.0718
2.47679
2.59849
-0.542705
1.13343
3.69668
0.220751
1.39062
2.83335
3.72579
0.557482
0.353309
3.70719
-1.03137
1.2439
2.57645
0.698681
0.0395394
2.05749
3.99222
-0.0892582
-0.0180121
4.26731
0.106736
0.261584
3.7651
3.335
1.93053
0.44416
3.66171
-0.0342126
0.825288
1.50919
2.29509
0.343857
0.792764
4.1615
-0.652048
-0.476249
3.40945
-0.61634
-0.825232
2.09184
1.36912
2.7389
1.33005
1.6004
1.00454
1.415
0.216518
1.99013
1.34941
-0.630005
1.74156
0.216996
-0.970116
0.649815
-0.118803
-1.04547
-1.86873
-0.237825
1.93855
1.59583
-1.69161
2.10608
-2.29162
1.53313
-2.18803
0.523158
-2.17689
-0.418119
-2.15342
-1.94445
-0.371206
0.150041
-0.813022
-0.0604551
0.0894322
-1.23348
1.01503
-0.0814989
0.228517
1.23166
-0.0860671
-0.778269
0.650937
-0.0918302
-2.09168
0.104953
-1.22934
-0.333958
1.01467
-0.870071
0.145886
0.818043
-1.71369
0.845797
0.79983
-1.14434
1.03749
0.507249
-1.48566
0.668825
0.30977
-2.01986
0.706061
-1.55537
-0.180054
1.4943
0.0445698
0.063715
1.84077
-1.1791
0.357948
1.57451
-1.19808
0.607433
1.0633
-1.68583
0.417913
1.23067
-1.80787
1.54505
-0.761922
0.198024
1.40511
1.05151
0.495294
2.20152
-0.761193
0.783361
1.74785
-2.15628
0.679282
1.00529
-2.46733
0.154611
1.82164
-1.63578
1.84583
0.923712
0.447699
1.3812
1.50321
0.53667
2.11963
-1.5261
1.21867
1.54483
-3.01219
1.60869
1.10935
-3.40644
0.721206
1.80891
-2.17923
1.74207
1.22246
-0.423877
1.8068
0.826339
-1.2878
2.60508
-1.70911
0.0913769
2.62179
-2.9755
1.43714
2.61935
-3.54342
1.17754
2.2689
-2.45023
2.00612
0.099143
-0.862713
2.19447
-0.0764326
-1.57809
3.09871
-1.31724
-0.503435
2.87102
-0.0377387
0.506104
2.4818
0.310832
0.90749
2.38455
-0.416912
2.70279
-0.0732164
-1.49106
2.87336
-0.551919
-2.01606
3.35511
0.0200528
-1.36289
2.25511
2.56122
0.00572471
1.66656
3.1433
0.756619
2.4695
1.99751
3.14712
0.869768
-1.33398
3.35816
-0.182184
-1.99147
3.35912
1.35217
-2.17737
1.73031
4.70291
-1.22581
0.611472
4.37084
-0.333636
1.92328
3.41914
2.82738
1.91663
-0.456643
3.29355
0.487041
-0.658841
3.43455
2.42186
-1.53105
2.02734
4.73667
-2.15033
1.00155
3.63866
-1.05372
0.216473
2.70203
1.70737
2.80519
1.33662
1.21678
1.74469
2.33124
1.48281
2.94724
1.92492
0.88619
3.28903
0.308519
0.44
2.82776
-0.808575
-0.749373
0.214213
0.566938
2.27041
0.861868
-1.3367
1.31229
-1.25923
1.31099
-1.30054
0.892464
-1.31837
-0.354156
-1.65617
-1.73167
0.0954592
-0.534166
-0.668163
0.0449956
-0.284125
-0.74919
-0.115886
-0.108796
-0.748273
-0.0935291
-0.425835
-0.682658
-0.0380998
-0.62336
-0.681309
-0.112597
-0.852618
-0.135602
0.182212
-0.580777
-0.0516552
0.168002
-0.536076
0.122578
0.198096
-0.481127
0.0614588
0.208244
-0.57296
-0.0546515
0.116132
-0.623381
0.398784
-0.566032
-0.286045
-0.466155
-0.0309297
-0.434321
0.428314
-0.382182
0.27839
-0.461126
0.0452989
-0.497586
-0.461995
0.00103489
-2.32421
-0.600456
-0.0262358
-2.33726
-0.639277
0.0139821
-2.28038
-0.693007
-0.00562693
-2.29223
-0.602943
-0.114822
-2.46383
-0.598897
-2.10842
-0.815474
-0.0182159
-2.47189
-0.414882
-0.0430241
-2.45599
-0.392538
0.0137441
-2.4261
-0.392177
0.0171916
-2.46079
-0.407848
-0.0972261
-2.5502
-0.422595
-2.35272
-0.418958
-0.0166975
-0.269916
-0.0180071
-0.261385
0.0297104
-0.255242
0.0218877
-0.272557
-0.0554137
-0.27834
-0.267548
0.0434825
-1.72875
-0.810205
0.00747349
-1.82715
-0.813001
-0.0527349
-1.80134
-0.803633
-0.0267681
-1.77435
-0.816385
0.00185492
-1.78092
-0.834476
-1.78694
-0.837639
0.0346085
-1.75432
-0.423925
0.0189512
-1.78182
-0.42221
0.0199363
-1.77754
-0.416968
0.0318441
-1.77039
-0.423708
0.032021
-1.76921
-0.434486
-1.77082
-0.403058
0.00396726
-0.216036
-0.000100849
-0.214903
0.00642612
-0.212628
-0.000686948
-0.216636
-0.00777246
-0.22225
-0.218255
-0.0275308
-1.40875
-0.797811
-0.0348646
-1.44815
-0.800367
-0.0166361
-1.42627
-0.795394
-0.0604303
-1.42703
-0.805034
-0.150426
-1.45893
-0.814308
-1.37148
-0.801219
0.0130751
-1.54315
-0.302595
-0.00328341
-1.54595
-0.308049
0.00125978
-1.53643
-0.31135
-0.00330152
-1.54107
-0.305108
-0.0347207
-1.55081
-0.311193
-1.50256
-0.306705
-0.00552539
-0.134368
-0.00738166
-0.134441
-0.000635163
-0.134002
-0.00594217
-0.13444
-0.018721
-0.135321
-0.135166
-0.0332754
-0.962258
-0.27931
-0.0211225
-0.989203
-0.273517
-0.0104182
-0.97022
-0.250475
-0.0439923
-0.97612
-0.301498
-0.125328
-0.999149
-0.342817
-0.933373
-0.230708
0.00686671
-1.22056
-0.0511633
-0.00168027
-1.23109
-0.0576186
-0.00373121
-1.22332
-0.0562033
-0.00596255
-1.22274
-0.0562558
-0.0122728
-1.22558
-0.078454
-1.20168
-0.0506656
-0.000349205
-0.0379651
-0.00331306
-0.0329313
-0.00134757
-0.0333456
-0.0058396
-0.0316877
-0.0120738
-0.0358505
-0.0294076
-0.0315101
-0.84522
0.737685
-0.0135018
-0.867148
0.713464
-0.0130228
-0.846353
0.759875
-0.00742858
-0.873945
0.660725
-0.0216254
-0.893181
0.580503
-0.827815
0.777133
-0.0128852
-1.27318
0.389681
-0.0107523
-1.28607
0.359168
-0.0160226
-1.2729
0.375616
-0.013363
-1.28515
0.352289
-0.00900117
-1.29219
0.316188
-1.25108
0.363596
0.00416227
0.0413214
-0.00211696
0.0572358
-0.000191735
0.0503463
0.00114033
0.0455427
-0.00428975
0.040989
0.0627062
0.0119638
-1.33856
1.34373
0.0128468
-1.38646
1.32678
7.01758e-05
-1.34973
1.39106
0.0421881
-1.38647
1.21588
0.0180518
-1.33965
1.17345
-1.34727
1.40068
-0.019991
-1.8228
0.893915
-0.00444476
-1.84189
0.79905
-0.0248473
-1.80746
0.853749
-0.0234402
-1.83368
0.798089
-0.00123639
-1.79739
0.751718
-1.76749
0.782577
0.0305694
0.00199976
0.00781286
0.0789058
-0.0067945
0.0652374
-0.00910377
0.0415897
0.015916
0.0207858
0.0824105
-0.528968
-1.63978
2.30446
-0.0652655
-2.35453
1.5236
0.158442
-2.26234
1.81318
-0.191427
-1.84592
2.0612
-0.488002
-2.00084
1.93756
-2.19678
1.62362
-0.547323
-1.64226
1.44372
-0.0544661
-2.70317
0.654834
0.190217
-2.61212
0.958844
-0.183815
-2.09228
1.41849
-0.568001
-1.98208
1.11715
-2.62128
0.639071
0.0775023
-0.53762
-0.055158
-0.0477856
-0.038955
-0.254643
0.0594886
-0.378884
0.106539
-0.410229
0.0130373
-0.483196
0.431096
2.9907
-0.292886
-0.589546
2.26155
-0.182089
-0.353606
2.43301
-0.3026
-0.153531
2.8335
-0.267117
-0.416708
2.63637
-0.463866
2.28706
-0.924254
1.83266
0.966401
0.0107751
-1.49591
0.626164
0.180342
-0.272661
0.708329
-0.586521
0.966934
1.06488
-1.2394
0.640533
0.712773
-1.60703
0.542839
-0.466684
-1.77347
0.0430511
-0.543474
0.222174
-1.05224
-0.25515
-1.47187
-0.648159
-1.50545
-0.529395
0.151954
4.08617
0.92766
-0.0137333
3.6681
0.760416
-0.0254261
3.82533
0.70875
0.080708
3.85135
0.978465
0.120702
3.88195
0.840587
3.66475
0.701053
0.101309
6.19131
-1.24005
-0.00324872
5.58479
-1.18596
-0.0449284
5.78427
-1.20893
0.166373
5.88167
-1.17674
0.189972
5.97222
-1.4011
5.55301
-1.15546
-0.348194
-2.18481
0.0232716
-1.82471
0.120919
-1.95473
-0.0547072
-2.09661
-0.248967
-2.22942
-1.70409
0.0893286
4.40124
-1.77695
0.00397806
5.73767
-2.05083
0.0712533
5.03826
-1.99657
0.165518
4.53076
-1.68388
0.0658558
4.60604
-1.6274
5.52614
-2.08273
-0.167725
4.63738
-1.30847
0.00295527
5.88513
-1.5041
0.0689563
5.16561
-1.40228
0.0350106
4.67446
-1.2865
-0.259988
4.88186
-1.38192
5.53099
-1.4203
-0.360396
-1.19711
0.0134568
-1.46561
0.155184
-1.36935
-0.0924044
-1.22073
-0.406195
-1.34475
-1.35508
0.0728727
2.74875
-0.242975
-0.0365738
2.85412
-0.330275
-0.0749732
2.72159
-0.298881
0.0187067
2.86483
-0.201548
0.0639108
2.80794
-0.151247
2.86125
-0.337734
0.0846931
0.530844
0.824752
-0.0289139
0.568936
0.894694
-0.145644
0.477495
0.958549
-0.0349408
0.531895
0.935733
0.0608826
0.401307
0.928886
0.651411
0.850425
0.0815182
0.12902
0.00431994
0.161497
-0.0258577
0.168939
0.0190792
0.157217
0.0272081
0.15073
0.128397
0.0402895
-0.673531
-0.561194
1.19444
0.0487564
-0.688995
-0.576777
1.2573
0.00242059
-0.728862
-0.587559
1.36276
-0.0623481
-0.665722
-0.633891
1.36438
-0.0870507
-0.695015
-0.668513
1.38823
-0.724226
-0.621963
1.25914
0.163489
-0.424751
0.0667675
-0.479037
0.23047
-0.488263
-0.0180974
-0.249614
0.0702289
-0.397955
-0.142485
-0.0281821
-0.0926689
-0.253724
-0.0086497
-0.240451
-0.0326228
-0.318484
0.323133
-0.759712
-0.352897
0.45743
-0.861382
-0.102705
0.232473
-0.544623
-0.0919197
0.234646
-0.61136
-0.0585609
0.363153
-0.90648
0.0508953
0.633441
-1.33311
0.129991
0.565824
-1.2366
0.4898
-0.998797
0.00313069
-0.401143
-0.163182
-0.000605257
-0.399578
-0.173463
0.00464141
-0.407023
-0.185782
0.00345929
-0.448686
-0.184023
-0.00239989
-0.489354
-0.1733
-0.456888
-0.167475
-0.0020243
-0.152254
-0.180097
-0.0356739
-0.160404
-0.223623
-0.140126
-0.171508
-0.273549
-0.230294
-0.171541
-0.195629
-0.153136
-0.171692
-0.0716886
-0.133987
-0.0186074
-0.0463517
0.0258759
-0.0907191
0.0374194
-0.0781986
0.0930775
0.0265047
0.187951
0.0352525
0.135176
0.114757
0.00264222
-0.157323
-0.00850186
0.00503922
-0.162054
-0.0138054
0.0011561
-0.169888
-0.0120115
-0.00253763
-0.169022
-0.0113073
-0.00125642
-0.165291
-0.00929031
-0.159103
-0.00962785
0.00415734
-0.0459305
-0.295646
-0.018448
-0.0508005
-0.312274
-0.0865261
-0.0500785
-0.325282
-0.116266
-0.0421398
-0.292772
-0.0719176
-0.0357389
-0.245588
-0.0274774
-0.22215
-0.0254379
-0.0311626
-0.0505924
-0.0212106
-0.0497574
-0.00923923
0.00861288
0.0075542
0.015962
0.00133463
0.00467446
0.00148785
-0.151706
0.141716
0.00149866
-0.152683
0.138867
0.00131652
-0.151495
0.139665
0.00057291
-0.150957
0.140393
-0.000454582
-0.151635
0.143373
-0.151457
0.141375
-0.0408246
-0.039869
-0.366661
-0.0471588
-0.0400014
-0.418624
-0.0351233
-0.0353269
-0.453486
-0.0326548
-0.0318179
-0.414379
-0.0204837
-0.0305798
-0.378814
-0.0285622
-0.365528
-0.0058576
-0.109561
-0.00914927
-0.104003
-0.00962086
-0.101018
0.00194913
-0.10334
0.00469581
-0.104853
-0.0950707
-0.00583771
-0.102526
0.25008
0.00355404
-0.133099
0.262574
0.00368096
-0.11991
0.259448
-0.0012321
-0.0960734
0.24138
-0.0020274
-0.0935085
0.237676
-0.134999
0.274346
-0.0363602
0.215521
-0.648349
-0.0310045
0.187288
-0.74437
-0.0154537
0.207595
-0.796543
-0.0121965
0.231265
-0.744974
0.00411182
0.233966
-0.722594
0.197743
-0.694158
0.0060872
-0.246216
-0.0169552
-0.244623
-0.0202131
-0.253616
0.00842106
-0.266157
0.0272537
-0.258541
-0.23949
0.0116667
-0.00456223
-0.00532557
-0.0507096
-0.0170568
-0.0277027
-0.00250819
0.0252822
0.0392904
0.0446305
-0.0240973
0.00261183
0.169229
-0.0354245
0.137651
-0.0660769
0.164955
-0.0324005
0.182364
0.0555574
0.162964
0.187727
-0.0155861
-0.0101671
-0.0111749
0.000413296
0.0181037
0.0513604
-0.756096
-0.10829
0.094472
-1.30877
0.0321728
0.873165
-0.64925
0.0990699
0.983783
-0.98828
0.0993907
0.331897
-1.46886
0.0290705
-0.933955
0.0365093
0.170412
-0.882383
-0.044121
0.0543673
-1.23917
0.0464506
0.015114
-0.57068
-0.0393154
-0.0700814
-0.986489
0.0834048
-0.224517
-1.3939
0.0794741
-1.15801
-0.000464119
0.0695701
0.0716599
-0.0686138
0.0695698
0.0598616
-0.00227479
0.134081
0.0625742
0.0173017
0.0708638
0.0511319
0.102014
-1.35316
0.272793
0.0836256
-1.74504
0.0819145
0.471874
-1.61873
0.185218
0.540625
-1.66218
0.207156
0.311914
-1.84852
0.086439
-1.54697
0.340024
0.188233
-1.38794
-0.197573
0.12476
-1.50611
-0.129008
-0.0381755
-1.482
-0.0131114
-0.0763818
-1.56756
0.0269862
-0.108287
-1.69282
-0.0443263
-1.53318
-0.122544
0.0649195
0.0345504
0.037147
0.0681924
0.0448622
0.0425977
0.0627771
0.0417776
-0.00965485
0.0343683
-0.0123046
0.384238
-0.781038
0.714161
0.515804
-1.75491
0.52616
0.746988
-1.78398
0.539938
0.49626
-1.82071
0.592758
0.14597
-1.97764
0.606497
-1.37104
1.09512
0.474232
-1.18871
-0.264138
0.311585
-1.51701
-0.20426
0.0261074
-1.47583
-0.0357864
-0.0811007
-1.65059
-0.0359299
-0.147667
-1.79243
-0.16297
-1.55674
-0.0845201
0.113038
-0.00198729
0.0125679
0.0554963
0.0371338
0.0187454
0.0218381
0.000203457
-0.073001
-0.0578321
-0.130641
1.13116
-0.322022
0.956536
1.60289
-1.71098
1.00421
1.08675
-2.09582
0.995621
0.129797
-1.94858
1.03097
-0.505691
-1.84434
1.45054
-0.558308
2.07145
0.684339
-1.14711
-0.123394
0.458841
-1.64311
-0.0466325
-0.115335
-1.75197
0.194535
-0.385259
-1.85103
0.136438
-0.511295
-1.88245
0.00117268
-1.48024
0.326123
0.136443
-0.0740131
-0.0225726
-0.0198543
-0.100846
-0.036969
-0.132415
-0.0706508
-0.171879
-0.246866
-0.280513
2.04648
-0.523631
0.936901
2.37167
-1.94069
1.0936
1.5278
-2.31472
1.14202
0.136941
-2.14866
1.16404
-0.743455
-1.55408
1.70578
-7.9954e-05
2.55053
0.642913
-1.2453
-0.0446347
0.403511
-1.92075
0.172827
-0.145994
-2.04084
0.470159
-0.690612
-1.86982
0.402214
-0.804676
-1.71909
0.280256
-1.24916
0.770522
0.0825426
-0.165889
-0.12296
-0.115943
-0.274507
-0.0748645
-0.207596
-0.106657
-0.194161
-0.317954
-0.298373
1.99718
-0.888639
0.654698
2.09763
-2.05643
1.34048
1.49113
-3.13168
1.9047
0.216078
-3.13339
2.02906
-0.634382
-1.69314
1.79915
-0.062227
2.07752
0.796729
-1.49264
-0.237368
0.846546
-2.47071
0.537282
0.0422479
-2.8095
0.952269
-1.18485
-2.35657
0.852491
-1.21431
-1.65851
0.275092
-0.971277
0.465257
0.118667
-0.368482
-0.00857555
-0.254789
-0.289006
-0.0910212
-0.422362
-0.139965
-0.376023
-0.342557
-0.434955
0.496582
-0.823381
0.905063
0.015371
-1.8348
2.33925
0.153023
-1.44462
3.17393
0.520894
-0.863261
2.83529
0.193425
-0.571604
2.28131
0.297418
1.90031
0.144399
-1.08726
-0.117889
-0.24509
-2.18834
1.28031
-0.280514
-2.55774
2.10081
-0.450534
-1.55244
1.71169
-0.869966
-0.5426
0.66552
0.0803865
-0.187678
0.060342
-0.477205
-0.0961866
-0.122633
-0.506167
0.660077
-0.524885
0.127433
-0.486612
-0.335261
-0.839936
-1.40042
-0.037694
1.79126
-2.06702
0.14973
2.87617
-0.838766
1.84178
2.66511
0.551934
2.41911
2.16878
0.668243
1.87996
2.28254
1.606
1.83232
-1.08174
0.322277
0.603875
-1.41005
0.0672314
1.69113
-1.11628
1.72342
1.92541
-0.0498067
1.77204
1.29228
-0.0959656
1.95048
0.641157
1.97843
-0.656076
-0.0191942
-0.358568
-0.301796
0.211268
-1.52552
0.732234
-1.25292
-0.0397157
-0.637829
-0.57633
-0.996128
-2.24307
1.10271
2.74944
-3.24527
2.08625
3.14428
-2.41687
4.42005
2.11957
-1.18339
4.032
1.27413
-0.184194
3.30634
1.39614
2.49846
1.0663
-2.14867
2.24672
1.60854
-3.14601
2.61148
2.16324
-2.3304
3.92738
1.60246
-1.10703
3.40974
0.691167
-0.0724519
2.89974
0.0131825
2.17336
-0.40342
-0.769256
0.277061
-1.41234
0.847856
-1.30326
0.702576
-0.553344
-0.0473354
0.0345909
-0.398987
-0.448564
-1.23094
2.00378
2.46364
-2.0671
3.01061
3.39168
-2.40621
4.78846
2.40688
-2.66335
3.68675
1.48318
-1.55372
2.59491
0.393646
2.27842
0.0393309
-0.704693
2.94324
1.37377
-1.52622
3.51079
2.48459
-1.38464
4.25169
1.99765
-1.39562
3.05071
1.3382
-0.981214
1.661
0.532682
1.35872
-0.464929
0.29542
0.148474
0.148297
1.00631
0.242088
1.26946
-0.0237038
0.93961
-0.126301
0.379764
-0.0269745
0.829049
3.09773
0.281551
1.88903
4.14141
1.13752
2.2399
4.54218
0.802866
1.52444
4.38536
0.641039
-0.629979
2.97841
-0.216136
2.18246
-0.502702
0.756935
2.8781
0.836465
1.81411
4.11023
1.45861
2.46902
4.48615
1.39877
2.29074
4.33096
1.57087
0.890109
3.43189
1.47982
2.06618
0.541469
0.537795
0.0506433
1.34621
0.594185
1.7372
1.27605
1.45076
1.58758
0.748151
1.22431
0.687378
0.116031
0.0232529
0.568713
0.682909
0.865879
0.567913
0.837787
0.715142
0.22835
0.125358
-0.746883
0.142855
0.237825
1.08248
0.952278
1.51071
1.51028
1.67694
1.87933
1.179
1.34341
0.112203
0.0101793
0.55538
0.76566
0.721752
0.706661
)
;

boundaryField
{
    seabed_topleft_surface
    {
        type            calculated;
        value           uniform 0;
    }
    seabed_topright_surface
    {
        type            calculated;
        value           uniform 0;
    }
    breakwater_top_surface
    {
        type            calculated;
        value           uniform 0;
    }
    breakwater_left_surface
    {
        type            calculated;
        value           uniform 0;
    }
    breakwater_right_surface
    {
        type            calculated;
        value           uniform 0;
    }
    water_front_surface
    {
        type            calculated;
        value           uniform 0;
    }
    water_back_surface
    {
        type            calculated;
        value           uniform 0;
    }
    water_left_surface
    {
        type            calculated;
        value           uniform 0;
    }
    water_right_surface
    {
        type            calculated;
        value           uniform 0;
    }
    water_top_surface
    {
        type            calculated;
        value           nonuniform List<scalar> 
180
(
0.934411
0.347206
0.121034
0.819295
0.846808
0.906077
-2.65144
-2.62762
-2.60076
-2.64154
-2.69215
-2.60258
-1.81217
-1.82423
-1.82668
-1.8192
-1.81821
-1.82788
-1.6193
-1.62456
-1.62181
-1.61796
-1.62496
-1.60437
-1.31661
-1.32963
-1.32593
-1.32099
-1.31881
-1.31951
-1.35663
-1.36996
-1.35852
-1.36371
-1.3636
-1.34749
-1.81406
-1.84082
-1.80776
-1.82743
-1.80221
-1.77128
-1.18014
-2.44381
-2.30844
-1.77025
-1.59811
-2.44536
3.53519
-1.50996
0.345818
2.53724
2.12877
-1.71276
6.95086
6.49456
6.58911
6.68204
6.89044
6.47874
4.01007
5.15218
4.4385
4.04617