/*--------------------------------*- C++ -*----------------------------------*\
| =========                 |                                                 |
| \\      /  F ield         | OpenFOAM: The Open Source CFD Toolbox           |
|  \\    /   O peration     | Version:  v1612+                                |
|   \\  /    A nd           | Web:      www.OpenFOAM.com                      |
|    \\/     M anipulation  |                                                 |
\*---------------------------------------------------------------------------*/
FoamFile
{
    version     2.0;
    format      ascii;
    class       volVectorField;
    location    "8.95";
    object      U;
}
// * * * * * * * * * * * * * * * * * * * * * * * * * * * * * * * * * * * * * //

dimensions      [0 1 -1 0 0 0 0];

internalField   nonuniform List<vector> 
1116
(
(0.126348 0.00255245 0.033932)
(0.0747593 -0.0157744 0.0354452)
(0.0586205 0.0324911 0.0266876)
(0.171088 0.0314388 0.0332221)
(0.220415 -0.00171146 0.0402002)
(0.0724202 -0.0486197 0.0221509)
(0.234966 0.016972 0.253609)
(0.20029 -0.00646061 0.275016)
(0.187211 0.0040618 0.288069)
(0.243903 -0.0303846 0.26276)
(0.271142 0.0220595 0.270403)
(0.183423 -0.0120172 0.282164)
(0.282295 0.0106663 0.134083)
(0.265048 0.00099792 0.148676)
(0.257632 -0.0015372 0.161246)
(0.279598 -0.0259667 0.130914)
(0.295284 0.0137874 0.126008)
(0.242776 0.00274542 0.151406)
(0.31968 0.00306007 -0.0884821)
(0.311673 0.0011618 -0.089465)
(0.308188 -0.00241638 -0.0859716)
(0.317618 -0.012247 -0.0913895)
(0.327144 0.00365452 -0.0951646)
(0.297942 0.00518439 -0.0919206)
(0.412071 -0.000628798 -0.258135)
(0.406565 -0.000849277 -0.263291)
(0.406477 -0.000391826 -0.265304)
(0.411047 -0.00274053 -0.257436)
(0.416843 -0.00140596 -0.257275)
(0.404318 0.000180319 -0.265798)
(0.566869 -0.00125651 -0.242773)
(0.558685 -0.00138297 -0.245311)
(0.561719 -6.77099e-05 -0.248215)
(0.563718 0.000514412 -0.241375)
(0.568346 -0.00315217 -0.242389)
(0.560314 -0.00343181 -0.245289)
(0.758332 0.00163223 -0.18393)
(0.746197 -0.000418913 -0.189983)
(0.749523 -0.00109721 -0.191401)
(0.755092 -0.000827306 -0.184685)
(0.760717 -0.00188673 -0.181019)
(0.744969 -0.00109762 -0.191308)
(0.950142 0.00219782 -0.110627)
(0.946012 -0.00071449 -0.12947)
(0.947361 -0.00154645 -0.127465)
(0.949617 -0.00180146 -0.114843)
(0.946255 -0.00224487 -0.103806)
(0.945566 -0.000627561 -0.139486)
(0.957798 -0.00486699 -0.0906355)
(0.966706 -0.00362701 -0.100606)
(0.965598 0.000758002 -0.0954959)
(0.959932 -0.00135361 -0.0960147)
(0.946882 -0.00613849 -0.100764)
(0.968525 -0.00560406 -0.104081)
(0.602657 -0.00495349 -0.313468)
(0.592505 -0.00150666 -0.289723)
(0.596149 -0.00144243 -0.288434)
(0.603304 0.000160021 -0.318029)
(0.59655 -0.000689766 -0.337359)
(0.592824 -0.00323833 -0.271591)
(-0.138013 -6.63372e-05 -0.743891)
(-0.177968 0.00492173 -0.723585)
(-0.174352 -0.00265668 -0.724612)
(-0.135806 0.00299877 -0.744602)
(-0.124519 0.00395857 -0.766986)
(-0.185585 0.00155543 -0.703501)
(-0.456117 0.0140309 -1.1126)
(-0.497354 0.00771627 -1.11291)
(-0.4947 -0.00691197 -1.12053)
(-0.455265 0.00409381 -1.11187)
(-0.430377 0.0135565 -1.11797)
(-0.499756 0.0184343 -1.1011)
(0.0411959 -0.00473646 -0.472446)
(0.184405 0.0335723 -0.463309)
(0.204376 -0.0871626 -0.466174)
(-0.117443 -0.065291 -0.483037)
(-0.273983 -0.00390272 -0.478842)
(0.159999 0.0901885 -0.474787)
(0.658437 -0.0225848 -0.385078)
(0.738351 0.0534858 -0.393652)
(0.752385 -0.0278801 -0.385641)
(0.636811 0.0672385 -0.355253)
(0.621111 -0.041266 -0.316669)
(0.723377 0.0411449 -0.38347)
(0.716611 -0.0100066 -0.269379)
(0.74749 0.041732 -0.26391)
(0.738246 -0.0176213 -0.254079)
(0.733039 0.0367246 -0.264572)
(0.76583 -0.0163087 -0.264444)
(0.732622 0.0347938 -0.262106)
(0.826624 -0.00566053 -0.0792149)
(0.833492 0.0119897 -0.0729458)
(0.823578 -0.00670802 -0.0696598)
(0.840897 0.00673141 -0.0814596)
(0.86774 -0.00473341 -0.0914951)
(0.827641 0.0187727 -0.0827761)
(1.20051 -0.00424189 -0.00933366)
(1.20404 -0.0023687 -0.00746789)
(1.19977 9.27813e-05 -0.00876551)
(1.20528 0.000630459 -0.00900626)
(1.21484 -0.00112037 -0.0108548)
(1.19972 0.00722373 -0.0197184)
(1.64744 -0.000994218 -0.0433105)
(1.64936 -0.00345348 -0.0411309)
(1.64766 -0.000985192 -0.0435433)
(1.64817 -0.0024287 -0.0413525)
(1.65276 0.000124158 -0.038432)
(1.64399 0.0036823 -0.0533046)
(2.07177 0.00217839 -0.106309)
(2.07556 -0.00151961 -0.097946)
(2.07186 -0.0034595 -0.100576)
(2.07402 -0.00267611 -0.104237)
(2.07993 -0.0009113 -0.100026)
(2.06723 -0.000543906 -0.108504)
(2.44908 0.0042156 -0.0717943)
(2.4727 -0.00105391 -0.0606702)
(2.46093 -0.00287764 -0.0641604)
(2.46059 -0.00371611 -0.0687491)
(2.46491 0.00134235 -0.0616411)
(2.45846 0.00181147 -0.0673009)
(2.81056 0.00233334 0.325106)
(2.85138 -0.00281765 0.316976)
(2.83552 0.00187836 0.319878)
(2.82649 -0.000495418 0.323195)
(2.83287 -0.00582756 0.322755)
(2.83421 -0.00628666 0.31292)
(2.81403 0.00684454 1.24932)
(2.83568 0.00423968 1.25676)
(2.82164 -0.00491425 1.25999)
(2.83962 0.00200205 1.23469)
(2.85698 -0.0128614 1.23382)
(2.80212 -0.0193188 1.25975)
(2.04223 0.00460286 1.95463)
(2.05295 0.0123475 1.99061)
(2.04304 -0.00664129 1.99044)
(2.06001 0.00613026 1.94716)
(2.08916 0.00191717 1.95474)
(2.00046 -0.0128245 1.97841)
(2.01998 -0.0314173 0.856172)
(1.95719 -0.00410852 0.862627)
(1.95241 0.00379843 0.839679)
(2.06113 -0.0200806 0.860686)
(2.12288 0.0205273 0.927272)
(1.91543 0.0680042 0.852943)
(0.915015 -0.0504514 -1.30298)
(1.40209 0.159209 -1.29404)
(1.55422 -0.359031 -1.24857)
(0.47652 -0.235227 -1.24814)
(0.162097 0.0185137 -1.21533)
(1.4922 0.482903 -1.21471)
(4.6296 -0.140726 -0.920232)
(5.13499 0.261118 -0.657421)
(5.17914 -0.12853 -0.636911)
(4.57009 0.255469 -1.03299)
(4.26225 -0.0810584 -1.2043)
(5.32408 0.508088 -0.654772)
(8.6216 -0.217404 -0.591527)
(9.04448 0.335365 -0.427223)
(9.16451 -0.0417397 -0.388644)
(8.69432 0.482292 -0.599085)
(8.52022 -0.0693394 -0.632961)
(9.55577 0.531468 -0.391186)
(11.6159 -0.198286 -1.12601)
(12.1434 0.289019 -1.06956)
(12.211 -0.137566 -1.05601)
(11.7841 0.331905 -1.10687)
(11.6032 -0.109496 -1.10286)
(12.7794 0.502358 -1.04852)
(12.9443 -0.155743 -1.08076)
(13.3528 0.0825411 -1.10078)
(13.3771 -0.166762 -1.10136)
(13.0665 0.061242 -1.06748)
(12.7979 -0.199378 -1.04847)
(13.6268 0.236376 -1.06291)
(9.67793 -0.0831868 -0.378661)
(9.71873 -0.0380656 -0.387393)
(9.78678 -0.0706997 -0.390042)
(9.63988 -0.0315277 -0.376227)
(9.51636 -0.094974 -0.386724)
(9.67845 0.0489249 -0.369001)
(6.36188 -0.0244151 -0.83775)
(6.3432 -0.0189286 -0.8548)
(6.38476 -0.0191944 -0.85735)
(6.27294 0.00475194 -0.855447)
(6.24239 0.00120155 -0.858011)
(6.41151 2.7093e-05 -0.872396)
(6.4481 -0.0660741 -0.881165)
(6.49801 -0.0467933 -0.924442)
(6.48828 0.00769306 -0.92095)
(6.39078 0.0392699 -0.907923)
(6.4704 -0.0443625 -0.902227)
(6.46955 -0.0524481 -0.925908)
(5.93635 -0.0615149 -0.353141)
(5.96549 -0.0487779 -0.37627)
(5.9418 0.014499 -0.368482)
(5.91831 0.0485954 -0.366106)
(6.12837 -0.0887748 -0.378329)
(5.79612 -0.0949268 -0.388141)
(4.86989 0.0193097 0.336591)
(4.83329 0.00321779 0.459352)
(4.79148 -0.0147522 0.426938)
(4.89861 0.0225141 0.364918)
(5.02792 -0.0612655 0.394486)
(4.62791 -0.0552939 0.393351)
(4.12365 0.0772823 0.158599)
(4.09652 0.0431432 0.337514)
(4.05164 -0.0549405 0.290276)
(4.19491 0.000883061 0.180154)
(4.21501 -0.00487105 0.204005)
(3.97028 -0.0142698 0.296043)
(4.66307 -0.132708 1.82857)
(4.76609 -0.050367 1.731)
(4.72202 0.0753836 1.76853)
(4.70437 -0.00507197 1.81444)
(4.86264 -0.050492 1.72904)
(4.53117 0.0216838 1.86939)
(-2.08725 -0.0772797 -3.982)
(-2.04823 0.200561 -4.09089)
(-1.61423 -0.0464658 -4.01113)
(-2.12251 0.12453 -4.04734)
(-2.25624 -0.0315475 -4.35883)
(-1.61327 0.244044 -3.89374)
(-1.54965 -0.0274601 -5.2289)
(-1.79078 -0.0270299 -5.15906)
(-2.01825 0.12759 -5.05643)
(-1.43825 0.221474 -5.26445)
(-1.24878 -0.00283164 -5.86861)
(-1.8908 -0.0333938 -4.57619)
(-1.75115 -0.0672986 -4.27811)
(-1.77569 0.0141571 -4.52086)
(-1.66587 -0.0679233 -4.33585)
(-1.81463 -0.0336073 -4.38308)
(-1.84475 -0.0271879 -4.45735)
(-1.4552 0.103946 -3.7204)
(-1.42914 -0.0683263 -1.91622)
(-1.3685 -0.0285682 -1.8226)
(-1.32403 -0.0584543 -1.71488)
(-1.45304 -0.00141714 -1.93359)
(-1.5078 -0.0774063 -2.07331)
(-0.936348 0.0660996 -1.01069)
(0.279919 -0.0643999 1.45967)
(0.397286 -0.0268869 1.6387)
(0.438249 -0.0564566 1.69076)
(0.256145 -0.0445498 1.44562)
(0.0827618 -0.0761866 1.20536)
(0.761261 0.0340307 2.1256)
(2.43947 -0.0415754 3.4585)
(2.41026 -0.0278067 3.52043)
(2.47815 -0.0282501 3.5571)
(2.36028 -0.0596946 3.40027)
(2.21407 -0.0165776 3.16587)
(2.57228 0.0324607 3.66592)
(4.64612 -0.0332126 1.96339)
(4.60648 -0.00531906 1.88723)
(4.71231 0.0236434 1.93414)
(4.51698 -0.00201723 1.8685)
(4.3269 0.0619925 1.81197)
(4.88078 0.0617307 1.89285)
(6.98626 -0.200573 0.314993)
(6.64033 -0.102381 -0.211825)
(6.76658 0.0788419 -0.142496)
(6.77184 0.0533838 0.0697274)
(6.52992 -0.0513504 -0.0654328)
(6.982 0.0739181 -0.0297289)
(9.38988 -0.212251 2.17726)
(9.67109 -0.0636984 1.89899)
(9.7195 0.0446647 1.87897)
(9.32851 0.0167457 2.06692)
(9.21918 -0.0463397 2.08296)
(10.149 0.111552 1.85972)
(8.21646 0.0423568 2.41881)
(8.25686 0.0533238 2.62316)
(8.22195 0.00277319 2.52585)
(8.37637 0.0286123 2.43925)
(8.43474 -0.04682 2.59477)
(8.28986 -0.0205824 2.3692)
(4.46248 0.309812 2.4874)
(6.5547 0.274745 2.68879)
(5.71119 -0.414101 2.53029)
(5.03316 -0.0803126 2.58358)
(5.10773 0.283068 2.60228)
(6.19288 0.37419 2.44323)
(4.5542 -0.209896 6.85946)
(5.37591 -0.00624535 6.19418)
(4.92035 0.0322863 6.40968)
(4.64583 0.0886754 6.84498)
(4.84872 -0.115768 6.72853)
(5.02366 0.104061 6.22762)
(-0.446156 0.0432371 -0.651632)
(-0.578344 -0.0513601 -0.151635)
(-0.505018 -0.307805 -0.963357)
(-0.550973 0.114102 -0.2049)
(-0.179125 -0.448111 0.0490533)
(-0.180294 -0.117068 -0.698096)
(-1.39044 0.0760122 -0.684817)
(-1.22746 -0.059565 0.147586)
(-1.21869 -0.361885 -0.618557)
(-1.14804 0.487148 -0.116335)
(-0.820086 -0.171893 0.240684)
(-1.14478 -0.195454 -0.748915)
(-2.0405 0.164924 -0.499182)
(-1.93671 0.0847941 0.147513)
(-1.30927 -0.151947 -0.326151)
(-0.712421 0.558957 -0.301678)
(-1.48558 -0.242631 0.266455)
(-1.90325 -0.20414 -0.671828)
(-2.17235 0.22007 -0.434387)
(-2.40386 0.641198 0.0464781)
(-1.30055 0.369628 0.762355)
(-1.29535 0.00172001 0.322605)
(-2.26013 -0.489185 0.110272)
(-2.27964 -0.155115 -0.846741)
(-1.66606 0.229266 -0.220046)
(-1.44162 0.899386 0.306495)
(-0.0139419 0.396639 0.754756)
(-1.12413 -0.264679 0.498363)
(-2.97163 -0.499066 0.517936)
(-3.10813 -0.241864 -0.358817)
(-1.60422 0.321521 0.0789975)
(-0.780109 0.821332 0.0906187)
(-0.395251 1.1411 -0.371368)
(-1.15102 0.0680476 -0.0748983)
(-2.46436 -0.732293 0.240102)
(-2.98821 -0.290521 0.107219)
(-0.421133 0.399682 -0.0188896)
(0.995037 1.04241 -0.804776)
(0.58644 1.95528 -1.01424)
(-2.86026 1.21109 0.0241094)
(-3.16254 -1.34468 0.335408)
(-1.05136 -0.190372 -0.492175)
(0.474334 -0.0662786 0.269289)
(1.95025 0.462333 -1.08422)
(2.54974 0.434518 -1.74887)
(-4.35673 1.45373 0.893353)
(-2.78921 -0.624756 0.839252)
(0.817466 0.194996 -0.597801)
(0.205111 -0.10908 0.808457)
(1.89174 -0.172475 -0.675359)
(3.21669 -0.726943 -1.8537)
(0.111265 0.189986 0.160191)
(1.02535 0.0814722 -0.324182)
(1.8421 0.354513 -0.7148)
(0.821385 0.253363 1.22443)
(1.10323 -0.669366 0.790883)
(3.58724 -1.18958 -1.94729)
(4.41708 -0.652197 -2.45662)
(3.93371 -0.397848 -1.85158)
(2.22271 0.465729 -0.800652)
(1.69619 0.0996042 0.80875)
(1.21425 -0.872822 2.40332)
(2.5911 -1.59914 -1.24657)
(3.62411 -0.94204 -2.55525)
(3.71416 -0.415003 -2.6029)
(1.96953 0.638098 -0.683543)
(0.682439 0.125355 0.246073)
(0.809106 -0.558728 1.57713)
(1.29767 -0.924767 -0.812566)
(1.91484 -0.353523 -1.7586)
(1.72668 -0.247216 -1.42467)
(0.608687 0.150333 -0.237415)
(-0.190229 -0.338311 -1.29701)
(-0.0963659 0.107828 -1.11612)
(0.486192 -0.791135 -1.50413)
(-0.0368806 -1.43303 -1.27967)
(-0.186492 -0.666663 -0.63064)
(0.037044 0.168321 -1.86785)
(-1.3365 -0.602671 -1.09309)
(-1.2444 0.0171143 -0.848712)
(-0.756042 -1.07496 -1.23492)
(-0.882456 -1.13621 -0.393446)
(-1.04486 -0.703658 -0.0171154)
(-1.2035 0.570093 -2.0357)
(-1.70778 -0.775107 -0.818431)
(-1.70977 -0.358972 -0.492641)
(-1.02887 -0.930293 -0.736445)
(-0.923407 -0.286155 0.181127)
(-1.55514 -0.408702 0.159685)
(-1.87319 0.821923 -1.51686)
(-2.14802 -0.791016 -1.05204)
(-2.25215 -0.487535 0.376173)
(-2.02498 -0.523978 1.96032)
(-1.95983 0.0321566 0.692998)
(-1.90918 0.0403229 -0.530975)
(-2.09047 1.13195 -1.74388)
(-2.87364 -0.704689 -1.28211)
(-2.88134 -0.352973 0.503952)
(-1.80647 -0.276308 2.22985)
(-3.06088 -0.304133 0.804748)
(-3.30628 -0.187833 -0.57234)
(-3.1532 0.852321 -1.91837)
(-3.6314 -0.354906 -1.34957)
(-4.01764 0.403735 0.428649)
(-2.49639 -0.141472 1.63916)
(-3.41809 -1.07914 1.15954)
(-4.32809 -0.737627 0.183467)
(-4.28464 0.254095 -0.812106)
(-4.19201 0.105691 -1.14899)
(-5.12081 1.35782 0.35141)
(-2.91219 0.459841 1.89078)
(-4.2279 -0.776964 3.30953)
(-4.13846 -1.31138 2.02538)
(-4.52139 0.244528 0.571754)
(-3.75096 0.420345 -0.348741)
(-5.43087 2.52067 0.52357)
(-3.41589 1.43732 2.08637)
(-5.716 0.277629 4.87389)
(-2.67717 -0.26524 5.05463)
(-2.96171 0.661133 2.32859)
(-0.404883 0.221749 0.464374)
(-2.13665 2.98125 1.19314)
(-3.90225 2.53257 2.24627)
(-1.22369 1.08005 4.4058)
(1.22957 1.10185 4.74935)
(-2.96858 1.25941 2.27313)
(0.173943 0.378575 1.16412)
(2.98599 0.409994 2.2806)
(-0.392038 1.66914 2.0555)
(0.571651 0.761647 3.01434)
(2.65804 -0.30365 2.79793)
(-3.89878 1.02651 1.33112)
(0.280026 0.193792 -0.17963)
(3.5441 0.112194 0.628278)
(3.08574 -0.147284 -0.511497)
(3.65375 -0.215068 -2.59907)
(3.3189 -0.815406 -4.28064)
(-0.00205778 0.325684 -0.0314024)
(1.8618 0.451693 -2.81994)
(2.36687 0.863282 -2.24267)
(3.01787 1.16298 -3.63545)
(3.56172 0.727642 -4.42402)
(3.58642 -0.388921 -3.92111)
(1.57722 -0.633772 -2.15731)
(0.433451 -0.377899 -1.49581)
(0.620726 0.409344 -1.15659)
(0.865952 -0.318731 2.46716)
(0.0969042 -1.5031 -1.91996)
(0.157767 -0.524887 -5.35303)
(0.128765 0.449698 -2.68606)
(-1.28371 -0.899459 -0.519168)
(-1.52138 -0.218572 -0.163105)
(-1.24177 -1.26619 1.32854)
(-0.747294 -0.903025 -1.68893)
(-0.870319 -0.558565 -4.52886)
(-1.49265 0.641536 -2.90344)
(-1.74267 -1.31802 0.906307)
(-1.25898 0.349045 0.274208)
(1.45353 -1.26534 -1.22937)
(0.826715 -0.0200774 -2.0924)
(-0.827264 -0.475946 -2.19322)
(-2.28557 1.05528 -0.573023)
(-1.57363 -1.64665 0.547022)
(-0.504897 -1.50044 -0.857235)
(0.311664 -1.33213 -0.86096)
(0.423419 0.366058 -3.27104)
(0.287709 0.846001 -3.61086)
(-1.23017 1.58528 0.569036)
(-2.09123 -2.71244 0.423088)
(-2.33139 -2.68368 -1.38493)
(-2.69986 -1.14475 0.559064)
(-2.55006 0.388646 -0.743824)
(-1.79252 1.6992 -3.65413)
(-1.44644 2.24885 -1.40665)
(-3.29789 -2.3417 -1.31858)
(-3.66313 -2.09895 -1.88567)
(-4.53485 -0.663715 2.11314)
(-4.37008 -0.460239 0.995595)
(-4.08477 0.809176 -2.07916)
(-3.82903 1.33771 -1.89195)
(-4.46363 -1.45142 -2.86723)
(-5.21296 -0.80989 -1.30789)
(-4.89611 -0.681148 3.1186)
(-4.9531 -1.25617 2.92647)
(-4.8434 -0.190962 0.748404)
(-5.4485 0.685506 -0.468448)
(-5.68925 -0.778864 -2.96264)
(-6.63944 0.519123 -0.230733)
(-5.62502 -0.75679 4.38331)
(-5.09049 -0.739228 7.98359)
(-3.8769 -0.341882 6.79822)
(-6.31312 0.579672 1.30924)
(-6.8983 -0.736799 -2.18164)
(-7.35651 1.44047 1.24534)
(-6.5087 0.305899 6.34234)
(-1.6715 0.0540859 7.6215)
(-3.36047 -0.348694 7.20063)
(-8.83137 0.629628 3.83702)
(-7.51321 -0.444877 -0.00902289)
(-3.5378 0.986891 4.28645)
(-4.37699 0.830959 6.42112)
(-0.82003 -0.019641 5.46522)
(0.382657 -1.47223 2.23529)
(-6.33415 0.578478 4.0472)
(-7.75539 0.393365 1.43018)
(-4.11121 1.52534 2.68512)
(-0.358637 1.50199 1.33123)
(1.72105 0.981256 -1.56132)
(2.81679 -0.410082 -4.47438)
(-1.1129 0.203215 1.47295)
(1.974 0.795678 -3.44006)
(3.71295 1.90036 -5.02858)
(3.77143 1.91491 -4.74623)
(3.61481 1.20472 -4.41669)
(3.60427 -0.119221 -4.2123)
(2.79987 -0.766378 -3.35789)
(0.539196 -0.197594 -2.05137)
(0.26204 -0.338732 -1.83373)
(1.06678 0.194698 2.78844)
(0.676562 1.44785 -0.0372932)
(0.326093 0.940803 -4.77355)
(0.211374 0.449181 -3.72247)
(-1.14692 -0.423406 -0.806672)
(-0.605976 -0.0602326 -2.09809)
(-0.852246 0.263387 0.116229)
(-0.358964 1.16946 -1.23039)
(0.153222 0.863046 -3.25371)
(-0.502702 0.439348 -3.06822)
(-2.9236 -0.737633 0.683559)
(-2.63748 0.318266 -0.249076)
(-2.45878 -0.160062 0.407086)
(-1.66352 0.874825 -1.78983)
(-1.29713 0.251364 -2.48662)
(-2.34784 0.532776 -0.824899)
(-3.05301 -0.810375 3.18085)
(-4.41083 0.938138 0.250005)
(-3.50981 0.340721 -4.76418)
(-2.12632 1.15461 -6.26145)
(-3.26169 -0.123709 -2.9539)
(-3.91508 0.52056 2.92838)
(-3.14751 -0.665204 5.54852)
(-4.03777 1.09825 -3.91583)
(-1.55723 0.345079 -8.92284)
(0.18183 1.74618 -9.46211)
(-2.78992 0.737805 -7.20626)
(-3.73171 0.918334 2.57824)
(-3.78764 -0.385227 3.72697)
(-3.98486 -0.956745 -4.99195)
(-3.97724 -0.631041 -3.86301)
(-4.0397 0.818468 -3.38095)
(-3.10629 1.44006 -5.92239)
(-3.28108 1.03059 -0.720881)
(-3.6409 -0.649737 0.317717)
(-5.22961 -1.49243 -3.05365)
(-6.08969 -0.883907 1.6826)
(-6.03315 -0.0940423 1.79247)
(-5.19161 0.926896 -0.242768)
(-4.72954 0.929906 -0.504123)
(-4.90367 -1.23752 -1.88281)
(-6.54082 -1.81156 -0.543672)
(-6.33474 -1.61549 5.33606)
(-5.4077 -0.689869 6.2986)
(-5.23373 0.602942 4.34116)
(-6.22629 0.808327 1.13523)
(-6.24527 -1.2637 -1.4482)
(-7.3084 -1.37763 1.81531)
(-5.22998 -2.19993 8.94805)
(-3.44863 -1.65296 8.57521)
(-6.63269 -0.917777 6.88874)
(-7.49655 0.437187 3.07709)
(-6.5899 -0.879134 -0.0714194)
(-7.00446 -0.258027 4.07478)
(-4.8023 -0.825397 8.77323)
(-1.84356 -1.87483 6.93121)
(-2.89555 -2.01571 5.21907)
(-4.79304 0.262998 5.76358)
(-7.56176 0.270831 2.40018)
(-9.21562 1.78896 4.9289)
(-6.93821 2.38964 5.45548)
(-5.0387 0.987401 4.06751)
(1.16669 -0.204958 -2.37004)
(-5.43058 -0.96209 5.71717)
(3.15437 0.386622 -2.99423)
(3.46688 1.04608 -3.3306)
(3.45877 1.28344 -3.33466)
(3.61236 1.32041 -3.58294)
(3.79216 0.136314 -3.98532)
(3.2985 -0.623408 -3.56671)
(-2.16256 -0.0112898 -0.815169)
(-2.36684 0.178792 -0.650838)
(-2.11861 -0.120713 -0.487671)
(-2.25494 -0.0490771 -0.686951)
(-2.30354 -0.128921 -0.99834)
(-2.17256 0.0380744 -0.220276)
(-2.16155 -0.17557 -0.912215)
(-2.08444 -0.0432354 -0.199211)
(-1.84639 -0.03095 0.205043)
(-2.14625 0.219175 -0.650065)
(-2.32406 -0.0976143 -1.0436)
(-1.94674 -0.0141516 -0.0955906)
(-1.90443 -0.264469 1.71042)
(-1.79575 -0.229894 0.664561)
(-1.58627 0.192666 0.271712)
(-1.84828 0.500116 1.50662)
(-2.02268 0.0687794 1.55568)
(-1.85775 0.00207271 1.67181)
(-0.748941 0.0252191 -4.03256)
(-0.883246 -0.0236978 -4.10791)
(-1.12574 -0.0337612 -3.94747)
(-0.729452 0.0683378 -3.92999)
(-0.672921 -0.0814937 -4.30681)
(-1.51753 -0.1266 -3.54685)
(-0.382056 0.0120916 -4.43372)
(-0.297846 -0.0503836 -4.41366)
(-0.317607 -0.0350756 -4.3555)
(-0.372774 0.0660394 -4.41219)
(-0.391658 -0.0409954 -4.64508)
(-0.522067 -0.124123 -4.11343)
(-0.214441 -0.00434513 -4.88916)
(-0.195742 -0.0255106 -4.8444)
(-0.185293 0.00131073 -4.79442)
(-0.237515 0.0455425 -4.8705)
(-0.225761 -0.0185717 -4.96499)
(-0.225893 -0.0592584 -4.79626)
(-1.73306 0.0364386 -3.64027)
(-1.73737 0.0505807 -3.93664)
(-1.70015 -0.0383771 -3.86992)
(-1.7411 -0.0528918 -3.77323)
(-1.78841 -0.00571761 -3.79641)
(-1.78408 0.00986379 -3.85397)
(-1.15832 0.0327299 -2.97826)
(-1.14464 0.027541 -3.05475)
(-1.1165 0.010569 -3.02906)
(-1.14084 0.0229974 -3.02521)
(-1.18431 0.0338419 -3.02572)
(-1.04886 0.0280154 -3.00464)
(-0.66914 0.00650134 -3.35775)
(-0.657627 -0.00156933 -3.38022)
(-0.647042 0.00234147 -3.38514)
(-0.662175 0.00684138 -3.37069)
(-0.688982 -0.00747576 -3.36896)
(-0.659196 -0.0078404 -3.38734)
(-1.71523 -0.00681359 -3.38872)
(-1.72736 -0.0415132 -3.54708)
(-1.72815 -0.0234106 -3.49659)
(-1.72791 0.000627237 -3.47262)
(-1.74268 -0.128169 -3.57419)
(-1.76571 -0.126562 -3.38413)
(-0.670949 0.0188642 -2.35217)
(-0.67794 0.0034713 -2.34987)
(-0.685009 -0.00954235 -2.31771)
(-0.680708 0.0133494 -2.34315)
(-0.684625 -0.0235721 -2.36195)
(-0.68435 -0.0284062 -2.22955)
(-0.30039 -0.0027296 -3.01722)
(-0.30399 -0.00852997 -3.02727)
(-0.303237 -0.0029924 -3.02242)
(-0.306062 0.00145372 -3.01497)
(-0.306685 -0.0147101 -3.02849)
(-0.312713 -0.0146341 -2.98979)
(-1.22158 -0.0142228 -2.77662)
(-1.21791 -0.038872 -2.8738)
(-1.19754 -0.0095489 -2.81827)
(-1.23332 -0.00061834 -2.8411)
(-1.2509 -0.0949809 -2.91687)
(-1.17101 -0.103885 -2.7403)
(-0.457254 0.0146848 -1.51952)
(-0.470294 0.000993109 -1.53192)
(-0.475155 -0.00513073 -1.51037)
(-0.457562 -8.48961e-05 -1.51619)
(-0.473565 -0.0118747 -1.52939)
(-0.461009 -0.00539252 -1.43997)
(-0.180443 0.00149416 -2.46985)
(-0.178163 -0.00243949 -2.49416)
(-0.177853 -0.00231942 -2.48744)
(-0.176728 -0.000753364 -2.47799)
(-0.177807 -0.0108589 -2.47388)
(-0.172496 -0.0083905 -2.47571)
(0.395719 -0.0154774 -2.48188)
(0.415261 -0.0300007 -2.54909)
(0.47402 -0.00515943 -2.48671)
(0.335302 -0.00807469 -2.5826)
(0.230427 -0.00952029 -2.63095)
(0.515816 -0.0190466 -2.45974)
(0.322129 -0.00109024 -1.53402)
(0.307366 -0.0163449 -1.55854)
(0.318197 -0.00689856 -1.53325)
(0.2999 -0.021074 -1.56296)
(0.245085 -0.0131872 -1.59334)
(0.326585 0.00505472 -1.4849)
(0.060519 0.00609314 -2.534)
(0.0740701 5.28518e-06 -2.5586)
(0.0720659 -0.00249379 -2.5375)
(0.0779797 0.00238635 -2.54757)
(0.0631977 -0.00177556 -2.54707)
(0.0816618 -0.00305794 -2.5158)
(2.22888 -0.000857946 -3.06514)
(2.09493 0.0222003 -3.15037)
(2.21877 -0.00500733 -3.07021)
(1.9562 0.0117487 -3.17351)
(1.73894 0.0344413 -3.06494)
(2.24442 0.0207875 -3.06955)
(1.37124 -0.00192112 -2.71478)
(1.19879 -0.0152194 -2.76888)
(1.27044 0.00025926 -2.70358)
(1.2041 -0.0522618 -2.7591)
(1.08355 -0.009519 -2.67437)
(1.15354 0.0231191 -2.67227)
(0.0632199 0.0360351 -3.3725)
(0.111692 0.0205684 -3.42237)
(0.0824262 -0.000246707 -3.36156)
(0.0539803 -0.0200196 -3.39774)
(0.0562506 0.00783491 -3.35138)
(0.122415 0.0257504 -3.29015)
(3.26401 -0.564508 -3.80016)
(3.40439 -0.305776 -4.92737)
(3.52022 0.135006 -4.74987)
(3.10047 0.224547 -4.06126)
(3.15453 -0.596392 -4.56361)
(3.5482 -0.36393 -4.41667)
(2.31175 -0.463075 -3.13791)
(2.25944 -0.285421 -4.51903)
(2.40699 0.121163 -4.38928)
(2.19847 0.16044 -3.5935)
(2.16972 -0.529056 -3.61571)
(2.31612 -0.324717 -4.29269)
(-0.00491991 0.0856996 -2.18578)
(0.301446 0.0344487 -4.57498)
(0.281319 -0.109622 -4.32782)
(0.199099 0.0244751 -3.30487)
(0.0860923 0.0810946 -2.9735)
(0.304691 0.0978 -4.57626)
(4.94176 -0.561859 0.401582)
(1.83898 -0.327169 -0.390145)
(2.81809 -0.276361 -0.240393)
(4.16976 0.00102846 -0.0253544)
(3.66828 -0.505049 -0.640007)
(2.08094 -0.0733957 0.0229379)
(2.33289 -0.998432 0.730867)
(-0.430061 -0.342174 -2.25798)
(0.440375 0.286549 -1.49041)
(2.33142 0.109736 -0.823495)
(1.26948 -1.2759 -1.32776)
(-0.557147 -0.7683 -2.1468)
(-2.71559 -0.661932 6.63519)
(-0.670276 -0.0297612 -2.71689)
(-1.69644 0.0633878 0.743281)
(-2.19633 0.299106 4.79202)
(-2.21832 -0.800545 4.03189)
(-0.390165 -0.238072 -3.12062)
(8.13919 0.0378243 6.50066)
(8.22876 0.161642 5.9562)
(7.94475 -0.159868 6.28573)
(8.21463 0.100599 6.33147)
(7.87933 0.0295132 6.37945)
(8.06462 0.183627 5.90375)
(2.20586 0.00384085 9.74082)
(3.47688 0.183473 8.49453)
(3.00587 -0.196916 8.89536)
(2.60969 0.146651 9.04787)
(2.14887 0.107299 9.0763)
(3.20637 0.276883 8.59746)
(-3.74167 -0.424831 12.8903)
(-1.06342 -0.0529318 12.0279)
(-1.92032 0.050297 12.2207)
(-3.07868 0.160178 12.3938)
(-3.18555 -0.280217 12.7704)
(-1.30024 -0.0688943 11.984)
(-5.23159 0.0429205 6.39178)
(-5.93885 0.0577252 9.89638)
(-5.84086 -0.0186475 8.45622)
(-5.12419 0.132753 6.99776)
(-5.27909 0.136527 7.16984)
(-6.016 -0.0114643 9.61902)
(-6.23384 -0.21626 7.67727)
(-7.28597 -0.0644064 10.1687)
(-6.88871 0.0672876 8.78162)
(-6.34345 0.111591 7.65227)
(-6.7511 -0.0916281 7.96461)
(-6.84462 -0.269369 9.46614)
(-4.83209 -0.415225 7.52466)
(-6.16144 -0.186338 9.62564)
(-5.742 0.196761 8.31572)
(-5.10038 0.110746 7.59499)
(-5.5797 -0.311475 8.08112)
(-5.50033 -0.376917 8.93227)
(-0.602161 0.0734887 7.51342)
(-1.07585 0.0590113 7.88127)
(-0.901632 -0.113465 7.59542)
(-0.389095 -0.0466241 7.89213)
(-0.0301169 0.0665214 7.65005)
(-1.0444 0.0806003 8.07885)
(0.0964074 0.0334793 3.82115)
(0.304281 0.0601091 4.28196)
(0.329765 -0.0838911 3.95458)
(0.281896 -0.158082 3.82287)
(0.311246 0.0927082 3.75133)
(0.17584 -0.0208804 4.24698)
(-0.123469 0.0850111 -1.5685)
(0.136967 0.0542134 -1.76294)
(0.0980731 -0.0397019 -1.85692)
(-0.000394046 -0.0277669 -1.58454)
(0.0189578 0.0607462 -1.97946)
(-0.0413443 0.00808492 -1.44259)
(1.89967 0.0436915 -0.149819)
(1.97081 0.0960215 -0.272462)
(1.9593 0.0501346 -0.353502)
(2.11508 -0.0465445 -0.266931)
(2.31439 -0.137257 -0.164623)
(2.14821 -0.0896469 -0.138856)
(-0.635534 0.0558353 -3.23698)
(-0.49553 0.39624 -3.26663)
(-0.301188 0.24525 -3.39157)
(-0.53021 -0.1047 -3.0755)
(-1.37119 -0.0704093 -3.31483)
(-1.6209 0.0108136 -3.56066)
(-1.11386 -0.103226 0.0334986)
(-1.10959 -0.184397 -0.305839)
(-1.52279 -0.162605 0.39911)
(-2.33061 0.00947379 1.05967)
(-2.15315 0.202763 0.85895)
(-1.88141 0.140248 0.901663)
(0.439046 0.00982842 -0.262134)
(0.454728 -0.00198435 -0.265004)
(0.513311 -0.000199827 -0.259976)
(0.51975 0.0124633 -0.290793)
(0.48118 -0.00157348 -0.309403)
(0.459357 -0.00331116 -0.298665)
(0.325579 0.0049014 -1.67127)
(0.522114 -0.00792777 -1.66407)
(0.755835 -0.131007 -1.73258)
(0.523688 -0.316261 -1.95548)
(0.100223 -0.313478 -2.18398)
(-0.0831762 -0.113374 -2.00411)
(0.0651906 -0.0308331 0.368545)
(0.0413114 -0.104717 0.307855)
(-0.117999 -0.18459 0.316561)
(-0.426958 -0.0251912 0.559769)
(-0.269408 0.0944871 0.801153)
(-0.194177 0.0157047 0.88054)
(0.252805 0.00153322 0.0392928)
(0.267196 0.00718124 0.0393871)
(0.262648 0.00606636 0.0357659)
(0.262723 -0.0025315 0.0450542)
(0.261028 -0.00385526 0.0451486)
(0.254925 -0.00021133 0.0339828)
(0.467669 0.00662115 -0.678547)
(0.480501 0.0072796 -0.705094)
(0.478549 -0.0787771 -0.746758)
(0.395702 -0.169911 -0.756123)
(0.251136 -0.149283 -0.735987)
(0.181257 -0.0569422 -0.690211)
(-0.137546 -0.0165396 0.180688)
(-0.146569 -0.0633565 0.168723)
(-0.166113 -0.100369 0.220853)
(-0.215634 -0.023609 0.300852)
(-0.202352 0.0401109 0.333577)
(-0.203926 0.00943347 0.357416)
(-0.214525 0.00182161 0.0499544)
(-0.204571 0.00254596 0.048745)
(-0.20793 0.00151098 0.0462472)
(-0.210341 0.00223393 0.0483242)
(-0.216508 -0.000167791 0.0496203)
(-0.209963 -0.00115937 0.0391087)
(0.724473 -0.0379336 -0.652164)
(0.775178 -0.0751557 -0.657595)
(0.808236 -0.0635883 -0.648989)
(0.763487 -0.0491558 -0.648166)
(0.723094 -0.042357 -0.653229)
(0.692777 -0.0167633 -0.643348)
(0.249163 -0.00629014 0.200346)
(0.222033 -0.00930768 0.20507)
(0.199216 -0.018492 0.236664)
(0.180306 -0.00749924 0.266987)
(0.194461 0.0116162 0.282785)
(0.18103 0.00335874 0.291561)
(-0.353112 -0.0120828 -0.145701)
(-0.369765 -0.00160686 -0.150279)
(-0.356908 0.00951232 -0.15176)
(-0.349416 0.00141476 -0.14713)
(-0.342372 -0.00317169 -0.145154)
(-0.365832 -0.00502139 -0.162429)
(0.615178 -0.0272232 -0.219209)
(0.766278 -0.0613524 -0.368431)
(0.883561 -0.0313261 -0.301534)
(0.784258 -0.0288597 -0.188778)
(0.682538 0.00534597 -0.180231)
(0.649906 0.00153916 -0.365198)
(0.219377 0.0153375 1.09015)
(0.231359 -0.000112711 1.10546)
(0.236212 -0.0436499 1.14206)
(0.256625 -0.0178839 1.14714)
(0.251557 0.0435604 1.15785)
(0.226461 0.032591 1.1591)
(-0.620009 0.0301141 -0.496498)
(-0.645796 0.00656255 -0.638867)
(-0.645787 -0.0285038 -0.556691)
(-0.597299 -0.0241254 -0.49935)
(-0.621335 0.0360213 -0.507488)
(-0.696546 0.0440313 -0.638432)
(2.33767 0.0383785 0.551177)
(2.53462 -0.0145598 0.487746)
(2.65897 -0.0824355 0.516938)
(2.57046 -0.156162 0.682928)
(2.55591 0.0950958 0.737575)
(2.4475 0.0358616 0.609963)
(0.604432 -0.0120838 0.214598)
(0.572485 -0.0178506 0.15885)
(0.60981 -0.0214078 0.257207)
(0.63595 -0.024187 0.197592)
(0.605633 0.0330867 0.126989)
(0.56151 0.0209169 0.296197)
(0.399526 0.230525 -1.37381)
(-0.164364 -0.149002 -2.44081)
(-0.0387776 0.407354 -1.75736)
(-0.0514182 1.04854 -2.35703)
(-0.0343063 0.6396 -2.89064)
(0.102613 -0.0792102 -1.0982)
(0.0826418 0.225977 -1.50292)
(-0.158542 0.0575113 -2.50139)
(0.385889 0.0766337 -0.932866)
(-0.0752008 -0.0626327 -1.64349)
(-0.155771 -0.0803159 -2.70912)
(-0.0402816 -0.321463 -2.24489)
(-0.119596 0.119615 -1.88459)
(-0.100096 -0.0211168 -2.15796)
(0.150172 -0.0670755 -1.27256)
(-0.0917041 0.150936 -2.0683)
(-0.11989 0.0751815 -2.48856)
(-0.0902303 -0.0339952 -2.19472)
(-0.00179602 0.203524 -2.5604)
(0.0208428 0.0171661 -3.74518)
(-0.355815 0.197031 -3.84777)
(-0.34671 0.562637 -3.70483)
(-0.0950535 0.416789 -3.69753)
(-0.274642 0.0786861 -2.5991)
(0.125131 0.142545 -2.54981)
(-0.00616032 0.226947 -2.84814)
(-0.193625 0.00756697 -2.5018)
(-0.222712 -0.0826395 -2.76577)
(-0.144307 -0.0685659 -3.27159)
(0.0490508 -0.131767 -3.00283)
(-0.128897 0.0435479 -2.61463)
(-0.146131 0.0593659 -2.72728)
(-0.129372 0.0189049 -2.83625)
(-0.124844 0.0710574 -2.89276)
(-0.130631 0.0256641 -2.92651)
(-0.085484 -0.0349867 -2.7301)
(-1.0213 0.237316 -0.64106)
(-0.3704 0.477071 -3.44561)
(-0.481992 0.616145 -4.17056)
(-0.572711 0.64501 -3.77336)
(-0.306668 0.225934 -3.64032)
(-1.14178 -0.00686927 -2.086)
(0.661068 0.420737 -2.24445)
(0.504593 0.4506 -3.18758)
(0.223433 0.111469 -2.72955)
(0.0916372 -0.0589136 -3.07965)
(0.292212 -0.117179 -3.58609)
(0.455373 -0.148637 -2.87541)
(-0.0346266 0.117059 -2.32922)
(-0.154501 0.0513812 -2.5842)
(-0.073311 -0.015459 -2.72318)
(-0.0669882 0.0725644 -2.94382)
(-0.0245737 -0.0420602 -2.96558)
(0.121277 -0.0679998 -2.79153)
(-1.94298 0.444481 1.23615)
(-1.75004 1.48821 -2.50072)
(-1.53957 1.50315 -3.80642)
(-1.67495 0.635231 -3.30642)
(-2.0176 -0.472402 -2.55663)
(-3.30716 -0.313697 0.752308)
(0.339941 0.537799 -2.3912)
(0.301015 0.660162 -3.87429)
(-0.0450398 0.1311 -3.73394)
(0.0907149 -0.318339 -3.64004)
(0.4144 -0.480977 -3.9463)
(-0.109544 -0.350906 -2.63171)
(0.0522577 0.128671 -2.21189)
(-0.0422782 0.0757439 -2.57793)
(0.0153271 -0.103829 -2.97776)
(0.0738927 -0.09127 -3.22822)