/*--------------------------------*- C++ -*----------------------------------*\
| =========                 |                                                 |
| \\      /  F ield         | OpenFOAM: The Open Source CFD Toolbox           |
|  \\    /   O peration     | Version:  v1612+                                |
|   \\  /    A nd           | Web:      www.OpenFOAM.com                      |
|    \\/     M anipulation  |                                                 |
\*---------------------------------------------------------------------------*/
FoamFile
{
    version     2.0;
    format      ascii;
    class       volScalarField;
    location    "9.15";
    object      p;
}
// * * * * * * * * * * * * * * * * * * * * * * * * * * * * * * * * * * * * * //

dimensions      [1 -1 -2 0 0 0 0];

internalField   nonuniform List<scalar> 
320
(
14724.8
14724.8
14724.8
14724.8
5.00541
5.00563
5.00503
5.00357
5.00538
5.00507
5.00614
5.00541
5.00573
5.00525
5.00559
5.00527
4914.91
4914.9
4914.86
4914.83
4914.89
4914.9
4914.9
4914.91
4914.93
4914.93
4914.91
4914.91
14724.8
14724.8
14724.8
14724.8
14724.8
14724.8
14724.8
14724.8
14724.8
14724.8
14724.8
14724.8
24534.8
24534.8
24534.8
24534.8
24534.8
24534.8
24534.8
24534.8
24534.8
24534.8
24534.8
24534.8
24534.8
24534.8
24534.8
24534.8
5.00543
5.0059
5.00624
5.00653
5.00443
5.00487
5.0055
5.00474
5.00538
5.00445
5.00507
5.00542
5.00619
5.00656
5.00575
5.00591
5.00592
5.00558
5.00543
5.00538
4914.91
4914.91
4914.89
4914.91
4914.85
4914.85
4914.86
4914.86
4914.9
4914.9
4914.88
4914.88
4914.9
4914.89
4914.89
4914.91
4914.91
4914.9
4914.91
4914.89
14724.8
14724.8
14724.8
14724.8
14724.8
14724.8
14724.8
14724.8
14724.8
14724.8
14724.8
14724.8
14724.8
14724.8
14724.8
14724.8
14724.8
14724.8
14724.8
14724.8
24534.8
24534.8
24534.8
24534.8
24534.8
24534.8
24534.8
24534.8
24534.8
24534.8
24534.8
24534.8
24534.8
24534.8
24534.8
24534.8
24534.8
24534.8
24534.8
24534.8
34344.8
34344.8
34344.8
34344.8
34344.8
34344.8
34344.8
34344.8
34344.8
34344.8
34344.8
34344.8
34344.8
34344.8
34344.8
34344.8
34344.8
34344.8
34344.8
34344.8
34344.8
34344.8
34344.8
34344.8
34344.8
34344.8
34344.8
34344.8
34344.8
34344.8
34344.8
34344.8
34344.8
34344.8
34344.8
34344.8
5.00529
5.00558
5.00637
5.0054
5.00402
5.00561
5.00732
5.0067
5.00643
5.00517
5.00525
5.00535
5.00479
5.00282
5.00389
5.00594
5.00639
5.00354
5.01199
5.00549
5.00605
5.00611
5.00628
5.00617
5.00657
5.00512
5.00537
5.00512
4914.92
4914.92
4914.92
4914.89
4914.89
4914.86
4914.9
4914.88
4914.88
4914.84
4914.88
4914.91
4914.88
4914.86
4914.9
4914.9
4914.91
4914.84
4914.98
4914.91
4914.91
4914.91
4914.92
4914.91
4914.92
4914.91
4914.91
4914.91
14724.8
14724.8
14724.8
14724.8
14724.8
14724.8
14724.8
14724.8
14724.8
14724.8
14724.8
14724.8
14724.8
14724.8
14724.8
14724.8
14724.8
14724.8
14724.8
14724.8
14724.8
14724.8
14724.8
14724.8
14724.8
14724.8
14724.8
14724.8
24534.8
24534.9
24534.8
24534.8
24534.8
24534.8
24534.8
24534.8
24534.8
24534.8
24534.8
24534.8
24534.8
24534.8
24534.8
24534.8
24534.8
24534.8
24534.8
24534.8
24534.8
24534.8
24534.8
24534.8
24534.8
24534.8
24534.8
24534.7
34344.8
34344.9
34344.8
34344.8
34344.8
34344.8
34344.8
34344.8
34344.8
34344.8
34344.8
34344.8
34344.8
34344.8
34344.8
34344.8
34344.8
34344.8
34344.8
34344.8
34344.8
34344.8
34344.8
34344.8
34344.8
34344.8
34344.8
34344.7
5.00536
5.00564
5.00531
5.00545
4914.92
4914.9
4914.93
4914.91
)
;

boundaryField
{
    top_fluid_surface
    {
        type            calculated;
        value           nonuniform List<scalar> 
64
(
-7.85386e-09
-4.31758e-09
-1.08529e-10
-2.56662e-08
-3.81114e-10
-3.89192e-10
-8.2647e-10
-9.56301e-09
-3.54113e-08
-9.84723e-09
0
-2.57641e-09
-7.47138e-09
-4.54449e-09
0
-8.03481e-09
0
0
0
0
0
-1.2441e-08
0
0
-2.81935e-10
0
0
0
0
0
-6.05635e-09
0
-5.67031e-09
-1.21855e-08
-3.1868e-08
0
-2.64608e-09
0
-3.41048e-08
0
0
0
0
0
-8.40665e-09
0
-1.51971e-08
-5.66574e-09
-4.47882e-09
-1.39512e-07
0
-1.3073e-08
-9.47869e-09
-8.57842e-09
-2.33991e-08
-4.10181e-09
-4.58387e-09
-2.07138e-09
-4.44252e-09
-5.23923e-08
-2.28029e-08
-4.19157e-09
-9.54951e-09
-1.94348e-08
)
;
    }
    bottom_fluid_surface
    {
        type            calculated;
        value           nonuniform List<scalar> 
64
(
39249.8
39249.8
39249.8
39249.8
39249.8
39249.8
39249.8
39249.8
39249.8
39249.8
39249.8
39249.8
39249.8
39249.8
39249.8
39249.8
39249.8
39249.8
39249.8
39249.8
39249.8
39249.8
39249.8
39249.8
39249.8
39249.8
39249.8
39249.8
39249.8
39249.8
39249.8
39249.8
39249.8
39249.8
39249.8
39249.8
39249.8
39249.9
39249.8
39249.8
39249.8
39249.8
39249.8
39249.8
39249.8
39249.8
39249.8
39249.8
39249.8
39249.8
39249.8
39249.8
39249.8
39249.8
39249.8
39249.8
39249.8
39249.8
39249.8
39249.8
39249.8
39249.8
39249.8
39249.7
)
;
    }
    lateral_surface_1
    {
        type            calculated;
        value           nonuniform List<scalar> 
40
(
5.00529
5.00558
5.00637
5.0054
5.00402
5.00561
5.00732
5.00512
4914.92
4914.92
4914.92
4914.89
4914.89
4914.86
4914.9
4914.91
14724.8
14724.8
14724.8
14724.8
14724.8
14724.8
14724.8
14724.8
24534.8
24534.9
24534.8
24534.8
24534.8
24534.8
24534.8
24534.7
34344.8
34344.9
34344.8
34344.8
34344.8
34344.8
34344.8
34344.7
)
;
    }
    lateral_surface_2
    {
        type            calculated;
        value           nonuniform List<scalar> 
40
(
5.00282
5.00389
5.00594
5.00639
5.00354
5.01199
5.00549
5.00605
4914.86
4914.9
4914.9
4914.91
4914.84
4914.98
4914.91
4914.91
14724.8
14724.8
14724.8
14724.8
14724.8
14724.8
14724.8
14724.8
24534.8
24534.8
24534.8
24534.8
24534.8
24534.8
24534.8
24534.8
34344.8
34344.8
34344.8
34344.8
34344.8
34344.8
34344.8
34344.8
)
;
    }
    lateral_surface_3
    {
        type            calculated;
        value           nonuniform List<scalar> 
40
(
5.00732
5.0067
5.00643
5.00517
5.00525
5.00535
5.00479
5.00282
4914.9
4914.88
4914.88
4914.84
4914.88
4914.91
4914.88
4914.86
14724.8
14724.8
14724.8
14724.8
14724.8
14724.8
14724.8
14724.8
24534.8
24534.8
24534.8
24534.8
24534.8
24534.8
24534.8
24534.8
34344.8
34344.8
34344.8
34344.8
34344.8
34344.8
34344.8
34344.8
)
;
    }
    lateral_surface_4
    {
        type            calculated;
        value           nonuniform List<scalar> 
40
(
5.00605
5.00611
5.00628
5.00617
5.00657
5.00512
5.00537
5.00512
4914.91
4914.91
4914.92
4914.91
4914.92
4914.91
4914.91
4914.91
14724.8
14724.8
14724.8
14724.8
14724.8
14724.8
14724.8
14724.8
24534.8
24534.8
24534.8
24534.8
24534.8
24534.8
24534.8
24534.7
34344.8
34344.8
34344.8
34344.8
34344.8
34344.8
34344.8
34344.7
)
;
    }
}


// ************************************************************************* //
