/*--------------------------------*- C++ -*----------------------------------*\
| =========                 |                                                 |
| \\      /  F ield         | OpenFOAM: The Open Source CFD Toolbox           |
|  \\    /   O peration     | Version:  v1612+                                |
|   \\  /    A nd           | Web:      www.OpenFOAM.com                      |
|    \\/     M anipulation  |                                                 |
\*---------------------------------------------------------------------------*/
FoamFile
{
    version     2.0;
    format      ascii;
    class       volScalarField;
    location    "2.7";
    object      p_rgh;
}
// * * * * * * * * * * * * * * * * * * * * * * * * * * * * * * * * * * * * * //

dimensions      [1 -1 -2 0 0 0 0];

internalField   nonuniform List<scalar> 
1116
(
16694.3
16694.3
16694.3
16694.3
16694.3
16694.2
16166.8
16166.8
16166.8
16166.8
16166.8
16166.7
15361.3
15361.3
15361.3
15361.3
15361.3
15361.2
15009.1
15009.1
15009.1
15009.1
15009.1
15009.1
15064.7
15064.7
15064.7
15064.7
15064.7
15064.7
15169.7
15169.7
15169.7
15169.7
15169.7
15169.7
15318.1
15318.1
15318.1
15318.1
15318.1
15318.1
15996.5
15996.5
15996.5
15996.5
15996.5
15996.5
17492
17492
17492
17492
17492
17492.1
20461.1
20461.1
20461.1
20461.1
20461.1
20461.1
24950.5
24950.5
24950.5
24950.5
24950.5
24950.5
28935.1
28935.1
28935.1
28935
28935.1
28935
11998.5
11998.4
11998.3
11998.4
11998.4
11998.3
7146.54
7146.49
7146.47
7146.48
7146.44
7146.44
6817.36
6817.34
6817.33
6817.3
6817.26
6817.3
7882.4
7882.39
7882.4
7882.37
7882.32
7882.37
9414.04
9414.07
9414.12
9414.1
9414.03
9414.04
9945.77
9945.82
9945.87
9945.84
9945.8
9945.75
9792.48
9792.5
9792.53
9792.51
9792.47
9792.43
8848.03
8848.02
8848.03
8848
8847.99
8847.98
6663.38
6663.29
6663.33
6663.32
6663.31
6663.4
9512.75
9512.53
9512.59
9512.59
9512.54
9512.74
22245.6
22245.2
22245.3
22245.3
22245.1
22245.5
32587.3
32587.6
32587.5
32587.5
32587.6
32587.3
-8.37012
-8.36967
-8.36984
-8.36981
-8.36976
-8.3703
-1.18097
-1.18058
-1.18071
-1.18084
-1.18081
-1.18109
-4.5572
-4.55671
-4.55689
-4.55687
-4.55677
-4.55739
-16.8687
-16.8679
-16.8683
-16.8685
-16.8687
-16.8697
-29.1739
-29.1729
-29.1732
-29.1736
-29.1739
-29.1752
-31.5576
-31.5561
-31.5564
-31.5569
-31.557
-31.5583
-19.0225
-19.0215
-19.0217
-19.0225
-19.0226
-19.0223
83.9484
83.9472
83.9481
83.9484
83.9476
83.951
247.504
247.502
247.504
247.506
247.507
247.511
578.361
578.367
578.37
578.37
578.373
578.384
6885.11
6884.06
6884.33
6884.35
6884.14
6884.71
30503.9
30504.1
30504
30504
30504.2
30503.7
-0.0930808
-0.0929413
-0.0930328
-0.0932874
-0.0934183
-0.0934143
7.13441
7.13467
7.13467
7.13449
7.13429
7.13403
6.67112
6.67122
6.67101
6.67078
6.67062
6.67045
2.45218
2.45225
2.45186
2.45152
2.45126
2.45083
-4.85402
-4.85414
-4.85456
-4.85492
-4.855
-4.85557
-10.575
-10.5749
-10.5754
-10.5758
-10.5759
-10.5769
-12.8591
-12.8584
-12.8589
-12.8596
-12.8603
-12.8614
-12.1557
-12.1556
-12.1555
-12.1555
-12.1564
-12.1571
8.08513
8.08426
8.08307
8.08238
8.08041
8.0848
41.7841
41.7856
41.7881
41.7884
41.7852
41.7842
219.72
219.713
219.717
219.726
219.723
219.701
29069.5
29068.7
29068.5
29069
29070.2
29066.4
-0.0779363
-0.0779352
-0.077934
-0.0779321
-0.0779303
-0.0779291
-0.0812997
-0.081298
-0.0812962
-0.0812938
-0.0812913
-0.0812895
-0.0880799
-0.0880784
-0.0880759
-0.0880721
-0.088068
-0.0880644
-0.0982974
-0.098296
-0.0982904
-0.0982815
-0.0982716
-0.0982626
-0.111978
-0.111971
-0.111954
-0.111931
-0.111905
-0.111884
-0.128999
-0.12897
-0.128929
-0.128878
-0.128828
-0.128789
-0.148363
-0.148306
-0.148241
-0.148169
-0.148104
-0.14806
-0.165177
-0.165109
-0.165056
-0.16501
-0.164979
-0.164968
-0.18736
-0.1873
-0.187315
-0.187382
-0.187485
-0.187593
-0.220808
-0.22086
-0.221028
-0.221286
-0.221577
-0.221835
-0.26254
-0.262725
-0.262977
-0.263288
-0.263601
-0.263864
-0.292512
-0.292621
-0.292678
-0.292693
-0.292675
-0.292638
-0.074709
-0.0747073
-0.0747054
-0.0747031
-0.0747011
-0.0746998
-0.0783361
-0.0783328
-0.0783299
-0.0783268
-0.0783241
-0.0783225
-0.0857359
-0.0857302
-0.0857252
-0.0857197
-0.085715
-0.0857121
-0.0971255
-0.0971146
-0.0971032
-0.097091
-0.0970803
-0.097073
-0.113085
-0.113061
-0.113035
-0.113009
-0.112987
-0.112972
-0.13549
-0.13544
-0.135392
-0.135348
-0.135314
-0.135292
-0.170873
-0.170779
-0.170706
-0.170659
-0.170631
-0.170625
-0.242992
-0.242861
-0.242815
-0.242831
-0.242895
-0.242978
-0.337432
-0.337461
-0.337608
-0.337848
-0.33812
-0.338359
-0.44591
-0.446133
-0.446461
-0.446857
-0.447241
-0.447514
-0.542973
-0.543232
-0.543494
-0.543721
-0.543892
-0.543961
-0.610423
-0.610335
-0.610125
-0.609777
-0.609393
-0.609019
-0.067999
-0.0679972
-0.0679955
-0.0679936
-0.0679921
-0.0679913
-0.0717496
-0.0717466
-0.0717443
-0.0717421
-0.0717404
-0.0717399
-0.0795055
-0.0795004
-0.0794967
-0.0794932
-0.0794908
-0.0794904
-0.0916614
-0.0916521
-0.0916444
-0.0916373
-0.0916321
-0.0916309
-0.108631
-0.108614
-0.1086
-0.108588
-0.10858
-0.108578
-0.129462
-0.129439
-0.129428
-0.129424
-0.129427
-0.129437
-0.145005
-0.145018
-0.145056
-0.145111
-0.14517
-0.14522
-0.136686
-0.136796
-0.136951
-0.137141
-0.137325
-0.137457
-0.124997
-0.125219
-0.125505
-0.125843
-0.126163
-0.126376
-0.124026
-0.124293
-0.124606
-0.124931
-0.125201
-0.125351
-0.18475
-0.184847
-0.184873
-0.184817
-0.184684
-0.184485
-0.0426921
-0.0424477
-0.0420641
-0.0415941
-0.0411085
-0.0408781
-0.057791
-0.0577894
-0.0577881
-0.057787
-0.0577862
-0.0577861
-0.0614496
-0.0614472
-0.0614458
-0.0614447
-0.0614443
-0.0614448
-0.0691448
-0.0691409
-0.069139
-0.0691379
-0.0691378
-0.0691393
-0.0817438
-0.0817379
-0.0817359
-0.0817352
-0.0817365
-0.08174
-0.101052
-0.101048
-0.101049
-0.101055
-0.101064
-0.101075
-0.132431
-0.13244
-0.132461
-0.132493
-0.132528
-0.132558
-0.193994
-0.194028
-0.194089
-0.194173
-0.19426
-0.194328
-0.307354
-0.307453
-0.30759
-0.307749
-0.307901
-0.308006
-0.446666
-0.446826
-0.446987
-0.447124
-0.447228
-0.447251
-0.581845
-0.581934
-0.581946
-0.581857
-0.581722
-0.581495
-0.753456
-0.753289
-0.753123
-0.752851
-0.752714
-0.752474
-1.02023
-1.01981
-1.01966
-1.01902
-1.01935
-1.019
-2.48868
-2.48862
-2.48876
-2.48898
-2.48911
-2.48917
-4.42683
-4.42691
-4.427
-4.42709
-4.42716
-4.4272
-6.50441
-6.50449
-6.50443
-6.50437
-6.50432
-6.50418
-0.839797
-0.839826
-0.840019
-0.840204
-0.840336
-0.840428
-3.97604
-3.97615
-3.97621
-3.9763
-3.97646
-3.97638
-7.13534
-7.1354
-7.13534
-7.13526
-7.13521
-7.13504
-4.55076
-4.5508
-4.55097
-4.55111
-4.55124
-4.55135
-4.67361
-4.67367
-4.67373
-4.6738
-4.6739
-4.67393
-7.28913
-7.2892
-7.28918
-7.28914
-7.28912
-7.28898
-6.54154
-6.54142
-6.54165
-6.54195
-6.54231
-6.54282
-6.16767
-6.16769
-6.16773
-6.16783
-6.16801
-6.16803
-8.93697
-8.93711
-8.93713
-8.93712
-8.93713
-8.93694
-9.18196
-9.18217
-9.18209
-9.18192
-9.18176
-9.18157
-7.0757
-7.07573
-7.07572
-7.07572
-7.07579
-7.07578
-9.07495
-9.07508
-9.07509
-9.07507
-9.07507
-9.07488
-9.10183
-9.10207
-9.10219
-9.10204
-9.1019
-9.10169
-7.70222
-7.70235
-7.70239
-7.70238
-7.70232
-7.70217
-9.35934
-9.35943
-9.3594
-9.3594
-9.35942
-9.35932
-4.84108
-4.84097
-4.84094
-4.84074
-4.84054
-4.8406
-6.53914
-6.53926
-6.53928
-6.53924
-6.53898
-6.53881
-8.64995
-8.65003
-8.64993
-8.64985
-8.64981
-8.64965
7.76075
7.76098
7.76072
7.7608
7.7596
7.76031
-3.54009
-3.5399
-3.5398
-3.5397
-3.54006
-3.53982
-7.16117
-7.16123
-7.16085
-7.16057
-7.16049
-7.1599
16.6678
16.6686
16.6674
16.667
16.6643
16.6637
-5.40838
-5.40774
-5.40863
-5.40922
-5.41069
-5.41143
-13.2644
-13.2643
-13.2643
-13.2642
-13.2646
-13.2642
-12.527
-12.5314
-12.5321
-12.5312
-12.5344
-12.533
-4.97136
-4.97037
-4.97197
-4.97156
-4.97661
-4.96767
-10.3536
-10.3512
-10.351
-10.3501
-10.3543
-10.3497
-59.9305
-59.9319
-59.9312
-59.9284
-59.9335
-59.9739
-22.4919
-22.5
-22.4969
-22.494
-22.5144
-22.4589
-29.1518
-29.1503
-29.1513
-29.1473
-29.1533
-29.1645
19593.8
19592.4
19593.3
19591.4
19582.6
19601.5
654.635
652.255
654.549
653.811
643.876
668.591
-80.3264
-80.3083
-80.3221
-80.3219
-80.3142
-80.4288
-4.11167
-4.11192
-4.11354
-4.1106
-4.1221
-4.10646
-3.07058
-3.07505
-3.07612
-3.07754
-3.0926
-3.07013
-2.76712
-2.76259
-2.76847
-2.76961
-2.75197
-2.80199
-1.09698
-1.09542
-1.09341
-1.09346
-1.08719
-1.09935
-2.92717
-2.93373
-2.93584
-2.93559
-2.9165
-2.96233
-3.23729
-3.24271
-3.24666
-3.24891
-3.24815
-3.25092
-12.339
-12.3299
-12.3233
-12.3141
-12.3283
-12.3056
133.302
133.779
133.716
134.132
133.513
133.477
1842.97
1844.24
1843.66
1847.42
1850.86
1840.02
341.53
341.292
341.408
342.572
343.334
341.088
9416.79
9417.75
9414.63
9425.15
9445.15
9390.06
4232.49
4242.02
4236.45
4240.94
4248.34
4222.25
13618
13614.5
13611.1
13629.6
13666.8
13574.9
16514.3
16509.8
16506.4
16528.4
16569.7
16465.3
392.691
394.213
392.886
392.107
393.443
388.893
15248.1
15247.4
15247.2
15245.7
15242
15258.5
7580.38
7590.81
7586.12
7560.87
7543.43
7601.34
-143.996
-144.037
-143.968
-143.954
-144.276
-143.631
-0.0441908
-0.0441901
-0.0441894
-0.0441891
-0.0441891
-0.0441894
-0.0278059
-0.0278057
-0.0278056
-0.0278057
-0.0278061
-0.0278064
-0.00976007
-0.00976009
-0.00976017
-0.00976034
-0.0097606
-0.0097608
-0.0472478
-0.047247
-0.0472467
-0.0472468
-0.0472472
-0.0472481
-0.0298417
-0.0298418
-0.029842
-0.0298424
-0.029843
-0.0298437
-0.0102135
-0.0102137
-0.0102139
-0.0102141
-0.0102144
-0.0102147
-0.0537118
-0.053711
-0.053711
-0.0537116
-0.0537128
-0.0537143
-0.0343351
-0.0343354
-0.0343359
-0.0343366
-0.0343373
-0.034338
-0.0108018
-0.010802
-0.0108023
-0.0108025
-0.0108028
-0.0108029
-0.0642717
-0.0642715
-0.0642728
-0.0642755
-0.0642787
-0.0642822
-0.0426934
-0.0426942
-0.0426955
-0.0426971
-0.0426986
-0.0426996
-0.010735
-0.0107352
-0.0107356
-0.0107361
-0.0107364
-0.0107366
-0.0788886
-0.0788934
-0.0789004
-0.0789098
-0.0789192
-0.0789267
-0.0583572
-0.0583601
-0.0583644
-0.0583696
-0.0583745
-0.0583778
-0.00765348
-0.00765416
-0.00765531
-0.0076568
-0.00765805
-0.00765896
-0.0927126
-0.0927316
-0.0927528
-0.0927767
-0.0927981
-0.0928126
-0.0898885
-0.0898987
-0.0899115
-0.089925
-0.0899373
-0.0899447
0.00258266
0.00258106
0.00257909
0.00257635
0.00257431
0.00257271
-0.09382
-0.09387
-0.0939181
-0.093963
-0.0939971
-0.0940124
-0.150139
-0.150158
-0.150181
-0.150202
-0.150223
-0.150228
0.0247327
0.0247295
0.0247279
0.0247228
0.0247213
0.0247207
-0.0834141
-0.0834826
-0.0835351
-0.0835697
-0.0835809
-0.0835625
-0.242494
-0.242512
-0.242548
-0.242543
-0.242586
-0.24257
0.0494473
0.0494417
0.049439
0.0494328
0.0494259
0.0494346
-0.103656
-0.103691
-0.10371
-0.103699
-0.103666
-0.103597
-0.349
-0.34898
-0.349056
-0.348989
-0.349093
-0.349031
0.0617454
0.0617296
0.0617078
0.0616894
0.0616356
0.0616232
-0.10998
-0.109911
-0.10984
-0.109761
-0.109698
-0.109675
-0.439509
-0.439409
-0.439677
-0.439395
-0.439812
-0.439635
-0.118428
-0.118489
-0.118609
-0.118522
-0.119008
-0.118572
-0.841633
-0.841478
-0.841421
-0.841138
-0.841448
-0.841078
-0.55772
-0.557662
-0.558284
-0.55779
-0.55925
-0.558148
-0.0866415
-0.0865446
-0.0866879
-0.0866052
-0.0869018
-0.0876332
-0.528177
-0.52799
-0.52782
-0.528281
-0.528168
-0.530528
-0.768839
-0.769395
-0.770567
-0.770006
-0.77374
-0.770973
-1.07746
-1.07852
-1.08172
-1.08075
-1.08956
-1.07926
)
;

boundaryField
{
    seabed_topleft_surface
    {
        type            fixedFluxPressure;
        gradient        uniform 0;
        value           nonuniform List<scalar> 
72
(
16694.3
16694.3
16694.3
16694.3
16694.3
16694.2
16166.8
16166.8
16166.8
16166.8
16166.8
16166.7
15361.3
15361.3
15361.3
15361.3
15361.3
15361.2
15009.1
15009.1
15009.1
15009.1
15009.1
15009.1
15064.7
15064.7
15064.7
15064.7
15064.7
15064.7
15169.7
15169.7
15169.7
15169.7
15169.7
15169.7
15318.1
15318.1
15318.1
15318.1
15318.1
15318.1
15996.5
15996.5
15996.5
15996.5
15996.5
15996.5
17492
17492
17492
17492
17492
17492.1
20461.1
20461.1
20461.1
20461.1
20461.1
20461.1
24950.5
24950.5
24950.5
24950.5
24950.5
24950.5
28935.1
28935.1
28935.1
28935
28935.1
28935
)
;
    }
    seabed_topright_surface
    {
        type            fixedFluxPressure;
        gradient        uniform 0;
        value           nonuniform List<scalar> 
72
(
-0.0779363
-0.0779352
-0.077934
-0.0779321
-0.0779303
-0.0779291
-0.0812997
-0.081298
-0.0812962
-0.0812938
-0.0812913
-0.0812895
-0.0880799
-0.0880784
-0.0880759
-0.0880721
-0.088068
-0.0880644
-0.0982974
-0.098296
-0.0982904
-0.0982815
-0.0982716
-0.0982626
-0.111978
-0.111971
-0.111954
-0.111931
-0.111905
-0.111884
-0.128999
-0.12897
-0.128929
-0.128878
-0.128828
-0.128789
-0.148363
-0.148306
-0.148241
-0.148169
-0.148104
-0.14806
-0.165177
-0.165109
-0.165056
-0.16501
-0.164979
-0.164968
-0.18736
-0.1873
-0.187315
-0.187382
-0.187485
-0.187593
-0.220808
-0.22086
-0.221028
-0.221286
-0.221577
-0.221835
-0.26254
-0.262725
-0.262977
-0.263288
-0.263601
-0.263864
-0.292512
-0.292621
-0.292678
-0.292693
-0.292675
-0.292638
)
;
    }
    breakwater_top_surface
    {
        type            fixedFluxPressure;
        gradient        uniform 0;
        value           nonuniform List<scalar> 
36
(
-4.11167
-4.11192
-4.11354
-4.1106
-4.1221
-4.10646
-1.09698
-1.09542
-1.09341
-1.09346
-1.08719
-1.09935
-12.339
-12.3299
-12.3233
-12.3141
-12.3283
-12.3056
341.53
341.292
341.408
342.572
343.334
341.088
13618
13614.5
13611.1
13629.6
13666.8
13574.9
15248.1
15247.4
15247.2
15245.7
15242
15258.5
)
;
    }
    breakwater_left_surface
    {
        type            fixedFluxPressure;
        gradient        uniform 0;
        value           nonuniform List<scalar> 
24
(
28935.1
28935.1
28935.1
28935
28935.1
28935
32587.3
32587.6
32587.5
32587.5
32587.6
32587.3
30503.9
30504.1
30504
30504
30504.2
30503.7
29069.5
29068.7
29068.5
29069
29070.2
29066.4
)
;
    }
    breakwater_right_surface
    {
        type            fixedFluxPressure;
        gradient        uniform 0;
        value           nonuniform List<scalar> 
24
(
-0.292512
-0.292621
-0.292678
-0.292693
-0.292675
-0.292638
-0.610423
-0.610335
-0.610125
-0.609777
-0.609393
-0.609019
-0.0426921
-0.0424477
-0.0420641
-0.0415941
-0.0411085
-0.0408781
-1.02023
-1.01981
-1.01966
-1.01902
-1.01935
-1.019
)
;
    }
    water_front_surface
    {
        type            fixedFluxPressure;
        gradient        uniform 0;
        value           nonuniform List<scalar> 
186
(
16694.3
16166.8
15361.3
15009.1
15064.7
15169.7
15318.1
15996.5
17492
20461.1
24950.5
28935.1
11998.5
7146.54
6817.36
7882.4
9414.04
9945.77
9792.48
8848.03
6663.38
9512.75
22245.6
32587.3
-8.37012
-1.18097
-4.5572
-16.8687
-29.1739
-31.5576
-19.0225
83.9484
247.504
578.361
6885.11
30503.9
-0.0930808
7.13441
6.67112
2.45218
-4.85402
-10.575
-12.8591
-12.1557
8.08513
41.7841
219.72
29069.5
-0.0779363
-0.0812997
-0.0880799
-0.0982974
-0.111978
-0.128999
-0.148363
-0.165177
-0.18736
-0.220808
-0.26254
-0.292512
-0.074709
-0.0783361
-0.0857359
-0.0971255
-0.113085
-0.13549
-0.170873
-0.242992
-0.337432
-0.44591
-0.542973
-0.610423
-0.067999
-0.0717496
-0.0795055
-0.0916614
-0.108631
-0.129462
-0.145005
-0.136686
-0.124997
-0.124026
-0.18475
-0.0426921
-0.057791
-0.0614496
-0.0691448
-0.0817438
-0.101052
-0.132431
-0.193994
-0.307354
-0.446666
-0.581845
-0.753456
-1.02023
-2.48868
-4.42683
-6.50441
-0.839797
-3.97604
-7.13534
-4.55076
-4.67361
-7.28913
-6.54154
-6.16767
-8.93697
-9.18196
-7.0757
-9.07495
-9.10183
-7.70222
-9.35934
-4.84108
-6.53914
-8.64995
7.76075
-3.54009
-7.16117
16.6678
-5.40838
-13.2644
-12.527
-4.97136
-10.3536
-59.9305
-22.4919
-29.1518
19593.8
654.635
-80.3264
-4.11167
-3.07058
-2.76712
-1.09698
-2.92717
-3.23729
-12.339
133.302
1842.97
341.53
9416.79
4232.49
13618
16514.3
392.691
15248.1
7580.38
-143.996
-0.0441908
-0.0278059
-0.00976007
-0.0472478
-0.0298417
-0.0102135
-0.0537118
-0.0343351
-0.0108018
-0.0642717
-0.0426934
-0.010735
-0.0788886
-0.0583572
-0.00765348
-0.0927126
-0.0898885
0.00258266
-0.09382
-0.150139
0.0247327
-0.0834141
-0.242494
0.0494473
-0.103656
-0.349
0.0617454
-0.10998
-0.439509
-0.118428
-0.841633
-0.55772
-0.0866415
-0.528177
-0.768839
-1.07746
)
;
    }
    water_back_surface
    {
        type            fixedFluxPressure;
        gradient        uniform 0;
        value           nonuniform List<scalar> 
186
(
16694.2
16166.7
15361.2
15009.1
15064.7
15169.7
15318.1
15996.5
17492.1
20461.1
24950.5
28935
11998.3
7146.44
6817.3
7882.37
9414.04
9945.75
9792.43
8847.98
6663.4
9512.74
22245.5
32587.3
-8.3703
-1.18109
-4.55739
-16.8697
-29.1752
-31.5583
-19.0223
83.951
247.511
578.384
6884.71
30503.7
-0.0934143
7.13403
6.67045
2.45083
-4.85557
-10.5769
-12.8614
-12.1571
8.0848
41.7842
219.701
29066.4
-0.0779291
-0.0812895
-0.0880644
-0.0982626
-0.111884
-0.128789
-0.14806
-0.164968
-0.187593
-0.221835
-0.263864
-0.292638
-0.0746998
-0.0783225
-0.0857121
-0.097073
-0.112972
-0.135292
-0.170625
-0.242978
-0.338359
-0.447514
-0.543961
-0.609019
-0.0679913
-0.0717399
-0.0794904
-0.0916309
-0.108578
-0.129437
-0.14522
-0.137457
-0.126376
-0.125351
-0.184485
-0.0408781
-0.0577861
-0.0614448
-0.0691393
-0.08174
-0.101075
-0.132558
-0.194328
-0.308006
-0.447251
-0.581495
-0.752474
-1.019
-2.48917
-4.4272
-6.50418
-0.840428
-3.97638
-7.13504
-4.55135
-4.67393
-7.28898
-6.54282
-6.16803
-8.93694
-9.18157
-7.07578
-9.07488
-9.10169
-7.70217
-9.35932
-4.8406
-6.53881
-8.64965
7.76031
-3.53982
-7.1599
16.6637
-5.41143
-13.2642
-12.533
-4.96767
-10.3497
-59.9739
-22.4589
-29.1645
19601.5
668.591
-80.4288
-4.10646
-3.07013
-2.80199
-1.09935
-2.96233
-3.25092
-12.3056
133.477
1840.02
341.088
9390.06
4222.25
13574.9
16465.3
388.893
15258.5
7601.34
-143.631
-0.0441894
-0.0278064
-0.0097608
-0.0472481
-0.0298437
-0.0102147
-0.0537143
-0.034338
-0.0108029
-0.0642822
-0.0426996
-0.0107366
-0.0789267
-0.0583778
-0.00765896
-0.0928126
-0.0899447
0.00257271
-0.0940124
-0.150228
0.0247207
-0.0835625
-0.24257
0.0494346
-0.103597
-0.349031
0.0616232
-0.109675
-0.439635
-0.118572
-0.841078
-0.558148
-0.0876332
-0.530528
-0.770973
-1.07926
)
;
    }
    water_left_surface
    {
        type            fixedFluxPressure;
        gradient        uniform 0;
        value           nonuniform List<scalar> 
42
(
16694.3
16694.3
16694.3
16694.3
16694.3
16694.2
11998.5
11998.4
11998.3
11998.4
11998.4
11998.3
-8.37012
-8.36967
-8.36984
-8.36981
-8.36976
-8.3703
-0.0930808
-0.0929413
-0.0930328
-0.0932874
-0.0934183
-0.0934143
-2.48868
-2.48862
-2.48876
-2.48898
-2.48911
-2.48917
-4.42683
-4.42691
-4.427
-4.42709
-4.42716
-4.4272
-6.50441
-6.50449
-6.50443
-6.50437
-6.50432
-6.50418
)
;
    }
    water_right_surface
    {
        type            fixedFluxPressure;
        gradient        uniform 0;
        value           nonuniform List<scalar> 
42
(
-0.0779363
-0.0779352
-0.077934
-0.0779321
-0.0779303
-0.0779291
-0.074709
-0.0747073
-0.0747054
-0.0747031
-0.0747011
-0.0746998
-0.067999
-0.0679972
-0.0679955
-0.0679936
-0.0679921
-0.0679913
-0.057791
-0.0577894
-0.0577881
-0.057787
-0.0577862
-0.0577861
-0.0441908
-0.0441901
-0.0441894
-0.0441891
-0.0441891
-0.0441894
-0.0278059
-0.0278057
-0.0278056
-0.0278057
-0.0278061
-0.0278064
-0.00976007
-0.00976009
-0.00976017
-0.00976034
-0.0097606
-0.0097608
)
;
    }
    water_top_surface
    {
        type            totalPressure;
        rho             rho;
        psi             none;
        gamma           1;
        p0              uniform 0;
        value           nonuniform List<scalar> 
180
(
-7.6424
-7.64284
-7.64262
-7.64243
-7.64239
-7.6418
-8.4197
-8.42012
-8.41985
-8.41968
-8.41964
-8.419
-7.55486
-7.5553
-7.55516
-7.55507
-7.55507
-7.55456
-9.05249
-9.05318
-9.05311
-9.05308
-9.05311
-9.05249
-7.86377
-7.86434
-7.86434
-7.86434
-7.86438
-7.86376
-8.52391
-8.52429
-8.52432
-8.52442
-8.52462
-8.52418
-8.4891
-8.48945
-8.48944
-8.48967
-8.48999
-8.48984
-8.89016
-8.89064
-8.89057
-8.89076
-8.89101
-8.88973
-12.2095
-12.2103
-12.209
-12.2084
-12.2078
-12.2066
-0.00506242
-0.00509547
-0.00513142
-0.00512513
-0.0054074
-0.00475364
0
0
0
0
0
0
0
0
0
0
0
0
0
0
0
0
0
0
0
0
0
0
0
0
0
0
0
0
0
0
0
0
0
0
0
0
0
0
0
0
0
0
0
0
0
0
0
0
-0.000373425
-0.000373451
-0.000373449
-0.000373451
-0.000373454
-0.000373428
-0.000423589
-0.000423612
-0.000423611
-0.000423614
-0.000423622
-0.000423599
-0.000537038
-0.000537056
-0.000537057
-0.000537071
-0.000537094
-0.000537082
-0.000747593
-0.000747609
-0.000747629
-0.000747678
-0.000747749
-0.000747783
-0.00111621
-0.00111628
-0.00111638
-0.00111654
-0.00111674
-0.00111691
-0.00178923
-0.00178963
-0.00178999
-0.00179043
-0.00179091
-0.00179132
-0.00304529
-0.0030467
-0.0030476
-0.00304842
-0.0030491
-0.00304944
-0.00575675
-0.00576001
-0.00576104
-0.00576122
-0.00576057
-0.00575845
-0.0121885
-0.0121922
-0.0121902
-0.012185
-0.0121776
-0.0121679
-0.0321398
-0.0321375
-0.0321252
-0.0321061
-0.032114
-0.0320379
-0.135952
-0.135988
-0.135952
-0.135977
-0.136689
-0.135111
-0.811822
-0.81176
-0.812623
-0.810944
-0.811459
-0.812115
)
;
    }
}


// ************************************************************************* //
