/*--------------------------------*- C++ -*----------------------------------*\
| =========                 |                                                 |
| \\      /  F ield         | OpenFOAM: The Open Source CFD Toolbox           |
|  \\    /   O peration     | Version:  v1612+                                |
|   \\  /    A nd           | Web:      www.OpenFOAM.com                      |
|    \\/     M anipulation  |                                                 |
\*---------------------------------------------------------------------------*/
FoamFile
{
    version     2.0;
    format      ascii;
    class       volVectorField;
    location    "2.7";
    object      U;
}
// * * * * * * * * * * * * * * * * * * * * * * * * * * * * * * * * * * * * * //

dimensions      [0 1 -1 0 0 0 0];

internalField   nonuniform List<vector> 
1116
(
(0.516612 -1.12217e-05 -0.496017)
(0.516606 -1.13789e-06 -0.496038)
(0.516605 -5.85866e-06 -0.496028)
(0.516615 -2.61876e-06 -0.496029)
(0.516616 -1.08104e-05 -0.496042)
(0.516591 4.99616e-06 -0.496022)
(1.63862 -9.36428e-06 -0.369477)
(1.63862 6.39665e-07 -0.369506)
(1.63862 -9.39587e-06 -0.369495)
(1.63863 -5.77896e-06 -0.369496)
(1.63863 -5.78305e-06 -0.369512)
(1.63861 1.20048e-05 -0.369488)
(2.54067 -9.01014e-06 -0.172537)
(2.54069 -9.32524e-07 -0.172566)
(2.54069 -5.95773e-06 -0.172555)
(2.54069 -5.77436e-06 -0.172556)
(2.54069 -2.54444e-06 -0.172568)
(2.54068 1.117e-05 -0.172544)
(3.21273 -9.19571e-06 -0.0975431)
(3.21275 -2.24061e-06 -0.0975666)
(3.21276 -4.70357e-06 -0.0975573)
(3.21276 -6.1748e-06 -0.0975582)
(3.21275 -3.11653e-06 -0.0975683)
(3.21274 8.63703e-06 -0.0975452)
(3.69708 -9.73974e-06 -0.0929819)
(3.69711 -3.70355e-06 -0.0929986)
(3.69711 -7.07489e-06 -0.0929918)
(3.69711 -7.36041e-06 -0.092993)
(3.69711 -4.61007e-06 -0.0930015)
(3.69708 7.71021e-06 -0.0929807)
(4.07543 -1.04637e-05 -0.0737311)
(4.07547 -5.36648e-06 -0.0737424)
(4.07547 -1.02324e-05 -0.0737374)
(4.07547 -8.12045e-06 -0.073739)
(4.07546 -5.66816e-06 -0.0737476)
(4.07543 7.42154e-06 -0.0737268)
(4.39783 -1.26883e-05 -0.00405001)
(4.39787 -7.88927e-06 -0.00405598)
(4.39787 -1.15438e-05 -0.00405243)
(4.39786 -8.52421e-06 -0.00405452)
(4.39786 -6.26975e-06 -0.00406412)
(4.39781 6.93387e-06 -0.00404493)
(4.65178 -1.10253e-05 0.12662)
(4.65179 -5.5989e-06 0.126606)
(4.6518 -8.38049e-06 0.126612)
(4.65179 -5.17885e-06 0.126609)
(4.65178 -5.56937e-06 0.126597)
(4.65173 5.15002e-06 0.126619)
(4.72904 -8.38444e-06 0.475513)
(4.72909 -1.17888e-06 0.475499)
(4.72908 -2.42133e-06 0.475504)
(4.72908 -1.66232e-06 0.475503)
(4.72909 -4.61831e-06 0.475492)
(4.729 3.43974e-06 0.475512)
(4.08683 -8.60355e-06 0.970213)
(4.08693 2.22993e-06 0.970216)
(4.08691 4.46113e-06 0.970212)
(4.0869 2.74377e-06 0.970208)
(4.08692 -2.07297e-06 0.970198)
(4.0868 2.71443e-06 0.970207)
(2.15469 1.24054e-06 1.07303)
(2.15479 2.23644e-06 1.07306)
(2.15479 -3.92829e-06 1.07304)
(2.15478 6.30846e-06 1.07304)
(2.15482 -2.29907e-06 1.07303)
(2.15467 -7.53055e-07 1.07301)
(0.122303 -2.8348e-05 0.120469)
(0.122393 -3.56248e-05 0.120457)
(0.122386 -1.88439e-05 0.120457)
(0.122385 -1.92422e-05 0.120449)
(0.122443 1.06756e-05 0.120444)
(0.122298 2.51092e-05 0.120443)
(0.0965007 1.86689e-05 -1.79513)
(0.0964676 -2.96374e-06 -1.79516)
(0.0964984 -7.24211e-06 -1.79515)
(0.0964834 -1.92968e-05 -1.79515)
(0.0964609 1.2674e-05 -1.79518)
(0.0965369 -6.65612e-06 -1.79515)
(1.75633 4.62455e-05 -2.0595)
(1.75634 -2.4246e-06 -2.05953)
(1.75634 -8.96523e-06 -2.05952)
(1.75634 -1.8949e-05 -2.05953)
(1.75634 4.88162e-06 -2.05956)
(1.75633 -3.70517e-05 -2.05952)
(2.95931 4.66535e-05 -1.54558)
(2.95935 8.52937e-07 -1.54562)
(2.95933 -7.50124e-06 -1.54561)
(2.95934 -9.98161e-06 -1.54561)
(2.95937 -4.03655e-06 -1.54564)
(2.95929 -4.25227e-05 -1.5456)
(3.70207 4.06408e-05 -1.11976)
(3.70215 6.45296e-06 -1.1198)
(3.7021 -2.08573e-06 -1.11978)
(3.70211 -4.64298e-07 -1.11979)
(3.70216 -3.67723e-06 -1.11982)
(3.70206 -3.64229e-05 -1.11977)
(4.27159 3.47142e-05 -0.868974)
(4.2717 1.13774e-05 -0.869016)
(4.27164 7.83151e-06 -0.868998)
(4.27165 1.04522e-05 -0.869002)
(4.27171 2.49648e-06 -0.869028)
(4.2716 -2.82926e-05 -0.868983)
(4.82002 3.03084e-05 -0.724458)
(4.82016 1.48187e-05 -0.724495)
(4.82009 1.72964e-05 -0.724479)
(4.8201 1.83113e-05 -0.724485)
(4.82016 1.08586e-05 -0.724509)
(4.82005 -1.9253e-05 -0.724469)
(5.32096 2.94493e-05 -0.626254)
(5.32114 2.0155e-05 -0.626292)
(5.32107 2.72691e-05 -0.626279)
(5.32109 2.57694e-05 -0.626284)
(5.32114 2.06037e-05 -0.626307)
(5.32104 -1.01618e-05 -0.62627)
(6.00654 3.12735e-05 -0.502081)
(6.00683 2.57249e-05 -0.502132)
(6.00674 3.68763e-05 -0.502117)
(6.00676 3.17592e-05 -0.502121)
(6.00682 2.74782e-05 -0.502141)
(6.00671 -5.85285e-06 -0.502106)
(6.54821 3.28309e-05 0.124128)
(6.54851 2.57039e-05 0.124045)
(6.54842 3.31072e-05 0.12407)
(6.54843 2.86887e-05 0.124073)
(6.54847 1.88081e-05 0.124051)
(6.54838 -1.29222e-05 0.124095)
(6.31726 3.43469e-05 1.376)
(6.31757 2.72936e-05 1.37591)
(6.31747 1.96406e-05 1.37593)
(6.31748 1.83684e-05 1.37594)
(6.31752 -3.50335e-06 1.37593)
(6.31738 -2.80175e-05 1.37597)
(4.62049 4.43167e-05 2.59108)
(4.62088 3.13496e-05 2.5911)
(4.62078 4.88567e-06 2.59107)
(4.62077 2.00081e-05 2.59108)
(4.62084 -5.39954e-06 2.59108)
(4.62061 -2.50035e-05 2.59108)
(1.39684 -5.44971e-05 1.9223)
(1.39715 -5.53286e-05 1.92233)
(1.39707 1.62567e-06 1.92232)
(1.39706 -1.11081e-05 1.92231)
(1.39713 3.41921e-05 1.92234)
(1.3969 4.36785e-05 1.92227)
(-0.0265299 0.000113104 -2.87746)
(-0.0265437 -0.000145503 -2.87737)
(-0.026455 7.31719e-05 -2.87742)
(-0.0266154 -0.000101029 -2.8775)
(-0.0266915 0.000246968 -2.87746)
(-0.0261977 -3.80224e-05 -2.87744)
(3.32285 8.04718e-05 -3.38068)
(3.32285 -0.000167768 -3.38058)
(3.32287 8.30854e-05 -3.3806)
(3.32279 -5.11175e-05 -3.38071)
(3.32277 0.000154955 -3.38068)
(3.32296 -0.000111461 -3.3806)
(6.65121 5.22211e-05 -2.79963)
(6.65112 -0.00013022 -2.79952)
(6.65107 7.19893e-05 -2.79956)
(6.65104 -1.64145e-05 -2.7996)
(6.65108 0.000135233 -2.79956)
(6.65118 -6.7505e-05 -2.79961)
(10.4525 4.64016e-05 -2.12213)
(10.4523 -6.92998e-05 -2.12203)
(10.4523 0.000121167 -2.12207)
(10.4523 4.41266e-05 -2.12208)
(10.4523 0.000178186 -2.12203)
(10.4524 -9.93782e-06 -2.12213)
(14.3041 5.42287e-05 -1.88113)
(14.3041 -1.13402e-05 -1.88108)
(14.3041 0.000181584 -1.88111)
(14.3041 0.000106498 -1.88109)
(14.3042 0.000240418 -1.88104)
(14.3043 4.75808e-05 -1.88113)
(18.1802 3.33728e-05 -1.69514)
(18.1802 -1.22912e-05 -1.69512)
(18.1803 0.000190658 -1.69515)
(18.1803 0.000104024 -1.69512)
(18.1803 0.00027069 -1.69507)
(18.1806 0.000107006 -1.69512)
(20.4839 2.07724e-05 -1.47009)
(20.4838 2.55691e-06 -1.47013)
(20.484 0.000212457 -1.47014)
(20.4841 8.63892e-05 -1.4701)
(20.484 0.000240754 -1.47005)
(20.4846 0.000111058 -1.47004)
(24.6139 1.83722e-05 -0.219622)
(24.6139 1.75013e-05 -0.21963)
(24.6141 0.000214359 -0.219612)
(24.6142 1.22876e-05 -0.219561)
(24.6141 3.33358e-05 -0.219502)
(24.6146 -6.30057e-05 -0.219502)
(15.7153 5.19282e-05 1.65345)
(15.7157 2.16944e-05 1.65349)
(15.7156 8.67017e-05 1.65348)
(15.7155 -4.52584e-06 1.65352)
(15.7154 -3.53943e-05 1.65356)
(15.7156 -0.000101994 1.65353)
(9.39711 1.8855e-05 3.32689)
(9.3975 -4.28415e-05 3.32694)
(9.3974 -2.16266e-05 3.32693)
(9.39741 -2.93838e-05 3.32696)
(9.39742 -2.62266e-05 3.32699)
(9.39736 -5.78437e-05 3.32694)
(4.43044 9.0947e-05 5.07916)
(4.43076 6.18991e-05 5.0794)
(4.43067 7.71833e-06 5.07929)
(4.43066 2.75559e-05 5.07931)
(4.43071 -2.98442e-05 5.07937)
(4.43054 -6.5475e-05 5.07927)
(1.42535 -3.73187e-05 3.87041)
(1.42571 -2.9285e-05 3.87057)
(1.4256 1.59558e-05 3.87053)
(1.42559 -1.51903e-07 3.87053)
(1.42559 2.85494e-05 3.87053)
(1.42548 2.38516e-05 3.87049)
(-0.0356013 -3.14326e-05 -3.64076)
(-0.0355943 -0.000109621 -3.64087)
(-0.0355691 5.80194e-05 -3.64095)
(-0.0356529 -2.13133e-05 -3.64101)
(-0.0356835 0.000117738 -3.64093)
(-0.0354866 3.18107e-05 -3.64077)
(0.181767 -9.01142e-05 -5.26412)
(0.181616 -6.86325e-05 -5.26432)
(0.181558 -3.3404e-08 -5.2643)
(0.181551 2.99009e-05 -5.2643)
(0.181583 1.56636e-05 -5.2643)
(0.181728 3.75715e-05 -5.26398)
(-2.06616 -5.54872e-05 -5.60154)
(-2.06649 1.14041e-05 -5.60177)
(-2.06656 2.87154e-05 -5.60176)
(-2.06655 4.18285e-05 -5.60175)
(-2.0665 2.95674e-05 -5.60177)
(-2.06629 7.52666e-05 -5.6015)
(-2.83752 -3.22295e-05 -5.85934)
(-2.83767 4.10996e-05 -5.85973)
(-2.83763 8.49292e-05 -5.85969)
(-2.8376 6.73587e-05 -5.85966)
(-2.83756 8.88545e-05 -5.85969)
(-2.83744 9.75329e-05 -5.85927)
(-3.89239 -9.81601e-05 -5.64001)
(-3.89256 -7.54379e-05 -5.64043)
(-3.89239 -2.13655e-05 -5.64036)
(-3.89232 -3.53354e-05 -5.64031)
(-3.89228 6.35934e-05 -5.64033)
(-3.89201 0.000126628 -5.6398)
(-4.27372 -0.000162567 -5.54282)
(-4.27404 -0.000215279 -5.54328)
(-4.27387 -0.000197604 -5.5432)
(-4.27385 -0.000194985 -5.54314)
(-4.27396 -3.66115e-05 -5.54322)
(-4.27346 9.23644e-05 -5.54249)
(-3.54984 -0.000138148 -4.11125)
(-3.55058 -0.000185434 -4.11173)
(-3.55027 -0.00020086 -4.11157)
(-3.55025 -0.000170233 -4.11143)
(-3.5506 -0.000124203 -4.11154)
(-3.54961 -5.30429e-05 -4.11093)
(-1.53523 1.87975e-05 0.763165)
(-1.53624 8.5026e-06 0.762794)
(-1.53572 -0.000141392 0.763098)
(-1.53548 -4.31478e-05 0.763392)
(-1.53573 -0.000277744 0.763515)
(-1.53514 -0.000359148 0.763176)
(9.8757 4.68466e-05 10.7192)
(9.87589 -5.26868e-06 10.7192)
(9.876 -8.90334e-05 10.7193)
(9.87606 2.79705e-05 10.7194)
(9.87664 -0.000332368 10.7197)
(9.87543 -0.000569456 10.7193)
(10.64 0.000140039 13.9684)
(10.6403 0.000187379 13.9686)
(10.6404 0.000139451 13.9686)
(10.6404 0.000122357 13.9686)
(10.6408 -2.36575e-05 13.9687)
(10.6403 -0.000220491 13.9686)
(4.90436 7.53696e-05 9.28621)
(4.90499 4.95995e-05 9.28684)
(4.9049 3.47177e-05 9.2866)
(4.90483 3.73969e-05 9.28666)
(4.9052 5.83368e-05 9.28686)
(4.90449 -1.70782e-06 9.28635)
(2.49568 1.10271e-05 4.75738)
(2.49587 6.42797e-06 4.75751)
(2.49587 9.03507e-06 4.75749)
(2.49587 0.000148914 4.75745)
(2.49587 -0.000110285 4.7576)
(2.49579 -0.000252689 4.75727)
(-0.00274297 -1.0819e-06 -0.00277522)
(-0.0027427 -2.28816e-06 -0.00277516)
(-0.00274224 -2.35373e-06 -0.00277512)
(-0.00274172 -2.30129e-06 -0.0027751)
(-0.00274115 -1.87972e-06 -0.00277507)
(-0.00274046 -7.26657e-07 -0.00277496)
(-0.0083109 -8.37463e-07 -0.00285307)
(-0.0083095 -2.46763e-06 -0.00285166)
(-0.00830773 -3.45979e-06 -0.00285132)
(-0.0083058 -3.80944e-06 -0.00285134)
(-0.00830372 -3.31946e-06 -0.0028516)
(-0.00830114 -1.39567e-06 -0.00285208)
(-0.0141117 -8.20426e-07 -0.00299611)
(-0.0141071 -3.65772e-06 -0.00299153)
(-0.0141025 -6.56833e-06 -0.00299036)
(-0.0140978 -7.76236e-06 -0.00299042)
(-0.0140929 -7.13277e-06 -0.00299121)
(-0.0140868 -3.16003e-06 -0.00299269)
(-0.020301 -2.13872e-06 -0.00322019)
(-0.0202894 -8.28484e-06 -0.00321237)
(-0.020279 -1.40955e-05 -0.00321076)
(-0.0202694 -1.62472e-05 -0.0032115)
(-0.0202596 -1.49664e-05 -0.00321386)
(-0.0202474 -6.73116e-06 -0.003218)
(-0.0270954 -6.74175e-06 -0.00354966)
(-0.0270701 -1.97385e-05 -0.00354277)
(-0.0270506 -2.84013e-05 -0.00354298)
(-0.0270344 -3.05026e-05 -0.00354608)
(-0.0270187 -2.70337e-05 -0.00355156)
(-0.0269982 -1.20052e-05 -0.00356004)
(-0.0347013 -1.77543e-05 -0.0041034)
(-0.0346553 -4.11739e-05 -0.00410965)
(-0.0346261 -4.78663e-05 -0.00411744)
(-0.0346054 -4.61132e-05 -0.00412631)
(-0.0345865 -3.76346e-05 -0.00413701)
(-0.0345586 -1.60505e-05 -0.00415089)
(-0.0428869 -3.20923e-05 -0.00489266)
(-0.0428196 -6.30703e-05 -0.00493345)
(-0.042789 -5.78567e-05 -0.00495674)
(-0.0427745 -4.65638e-05 -0.00497399)
(-0.0427641 -3.17886e-05 -0.00498862)
(-0.0427393 -1.22073e-05 -0.00500254)
(-0.0506995 -3.52687e-05 -0.00467334)
(-0.0506191 -5.32114e-05 -0.00476714)
(-0.050603 -2.3419e-05 -0.00480792)
(-0.0506126 9.56835e-07 -0.00482822)
(-0.0506295 1.87705e-05 -0.00483512)
(-0.0506307 1.21909e-05 -0.00483092)
(-0.0582146 -1.47955e-05 -0.0013264)
(-0.058143 1.12787e-05 -0.00144818)
(-0.058158 7.32069e-05 -0.00148199)
(-0.0582095 0.000106898 -0.00147728)
(-0.0582761 0.000116538 -0.00144533)
(-0.0583383 5.66176e-05 -0.00138728)
(-0.061169 2.84515e-05 0.00538005)
(-0.0611498 0.000112384 0.00530056)
(-0.0612008 0.000195445 0.00530588)
(-0.0612851 0.000230767 0.00534409)
(-0.0613933 0.00022296 0.00541106)
(-0.0615277 0.000103461 0.00551412)
(-0.0585526 8.02913e-05 0.00925055)
(-0.0585898 0.000189188 0.00929889)
(-0.0586379 0.000229884 0.0093445)
(-0.0586991 0.000236795 0.00939569)
(-0.0587948 0.000211399 0.00946749)
(-0.0589643 9.5484e-05 0.00958011)
(-0.0318189 3.39028e-05 0.0177358)
(-0.0318448 5.02139e-05 0.0177957)
(-0.0318546 2.38746e-05 0.0178037)
(-0.0318636 5.40492e-06 0.017803)
(-0.0318948 -1.12722e-05 0.0178156)
(-0.031979 -9.76128e-06 0.0178584)
(-0.0027806 -1.06666e-06 -0.00820448)
(-0.00277972 -2.2388e-06 -0.00820429)
(-0.00277899 -2.26734e-06 -0.00820404)
(-0.00277835 -2.04262e-06 -0.00820383)
(-0.0027778 -1.43005e-06 -0.00820366)
(-0.00277721 -4.31588e-07 -0.00820332)
(-0.00846493 -1.643e-06 -0.00848364)
(-0.00846161 -3.59851e-06 -0.00848083)
(-0.00845896 -3.85512e-06 -0.00847988)
(-0.00845666 -3.56107e-06 -0.00847967)
(-0.00845465 -2.55912e-06 -0.00848004)
(-0.00845239 -8.99397e-07 -0.00848094)
(-0.0144943 -3.21893e-06 -0.00899891)
(-0.0144863 -7.05143e-06 -0.00899015)
(-0.0144802 -7.75897e-06 -0.00898753)
(-0.0144751 -7.30874e-06 -0.00898725)
(-0.0144706 -5.59386e-06 -0.00898872)
(-0.0144653 -2.21342e-06 -0.00899185)
(-0.0210636 -6.1877e-06 -0.0097657)
(-0.0210461 -1.34092e-05 -0.00975145)
(-0.021034 -1.45648e-05 -0.00974819)
(-0.0210244 -1.36147e-05 -0.0097493)
(-0.0210158 -1.05691e-05 -0.0097541)
(-0.0210055 -4.29786e-06 -0.00976307)
(-0.0282777 -1.12892e-05 -0.0107457)
(-0.0282422 -2.32365e-05 -0.0107357)
(-0.0282207 -2.34065e-05 -0.0107371)
(-0.0282053 -2.07261e-05 -0.0107436)
(-0.0281918 -1.54656e-05 -0.0107552)
(-0.0281744 -6.1918e-06 -0.0107737)
(-0.0362068 -1.73174e-05 -0.0118159)
(-0.0361392 -3.24394e-05 -0.0118376)
(-0.0361056 -2.75439e-05 -0.0118561)
(-0.0360863 -2.08456e-05 -0.0118752)
(-0.0360716 -1.3282e-05 -0.0118975)
(-0.0360503 -4.83763e-06 -0.0119262)
(-0.0456191 -2.01908e-05 -0.0126803)
(-0.0455008 -2.86335e-05 -0.0127741)
(-0.0454568 -8.62916e-06 -0.0128237)
(-0.0454428 6.46682e-06 -0.012859)
(-0.0454411 1.51985e-05 -0.0128875)
(-0.0454337 8.58007e-06 -0.012912)
(-0.0571682 -1.48386e-05 -0.0131667)
(-0.0570039 3.31497e-06 -0.0133473)
(-0.0569677 5.40233e-05 -0.0134198)
(-0.0569849 8.2253e-05 -0.0134517)
(-0.0570286 8.87723e-05 -0.0134565)
(-0.0570778 4.24185e-05 -0.0134326)
(-0.0686275 1.98534e-05 -0.0133919)
(-0.0684697 8.94431e-05 -0.0135952)
(-0.0684708 0.000165985 -0.0136366)
(-0.0685383 0.00020194 -0.0136123)
(-0.0686462 0.000196209 -0.0135372)
(-0.0687856 9.07097e-05 -0.0134014)
(-0.0684472 6.90375e-05 -0.00665313)
(-0.0683647 0.000163658 -0.00674589)
(-0.06843 0.000194197 -0.006686)
(-0.068561 0.000189044 -0.0065633)
(-0.0687458 0.000153563 -0.00638295)
(-0.0689938 6.39534e-05 -0.00612897)
(-0.0618599 5.11458e-05 0.00885361)
(-0.0619498 8.43655e-05 0.00905331)
(-0.0620941 4.75241e-05 0.00920138)
(-0.0622751 9.46843e-06 0.00934409)
(-0.0625064 -2.71233e-05 0.00951422)
(-0.0628058 -2.23024e-05 0.00974888)
(-0.0391592 -4.36232e-05 0.044326)
(-0.0392623 -0.000141272 0.0445159)
(-0.0393509 -0.00021838 0.0445843)
(-0.0394432 -0.000242207 0.0446232)
(-0.0395593 -0.000227733 0.0446774)
(-0.0397065 -0.000106999 0.0447743)
(-0.00269467 -6.12211e-07 -0.0135001)
(-0.00269408 -1.38671e-06 -0.0135001)
(-0.00269365 -1.4439e-06 -0.0134997)
(-0.00269332 -1.17521e-06 -0.0134993)
(-0.00269315 -6.75097e-07 -0.0134991)
(-0.00269304 -1.21866e-07 -0.0134985)
(-0.0082522 -1.21138e-06 -0.0140684)
(-0.00825002 -2.5231e-06 -0.0140661)
(-0.00824852 -2.43146e-06 -0.014065)
(-0.00824741 -1.92079e-06 -0.0140645)
(-0.00824682 -1.01639e-06 -0.0140648)
(-0.00824643 -2.17059e-07 -0.0140655)
(-0.0143052 -2.57512e-06 -0.0151411)
(-0.0143 -5.02909e-06 -0.0151338)
(-0.0142968 -4.54045e-06 -0.0151313)
(-0.0142946 -3.45233e-06 -0.0151308)
(-0.0142936 -1.83137e-06 -0.0151323)
(-0.014293 -4.66532e-07 -0.0151356)
(-0.0211864 -4.74762e-06 -0.0167296)
(-0.0211749 -8.74108e-06 -0.0167191)
(-0.0211689 -7.10668e-06 -0.0167165)
(-0.0211656 -4.88636e-06 -0.0167178)
(-0.0211643 -2.10447e-06 -0.016723)
(-0.0211642 -3.31037e-07 -0.0167327)
(-0.029253 -7.49248e-06 -0.0186883)
(-0.0292282 -1.22047e-05 -0.0186865)
(-0.0292184 -7.3106e-06 -0.0186905)
(-0.0292148 -2.88015e-06 -0.0186983)
(-0.0292155 1.23896e-06 -0.0187113)
(-0.0292185 1.51815e-06 -0.0187312)
(-0.0386871 -8.45896e-06 -0.0205707)
(-0.0386382 -8.63227e-06 -0.0206094)
(-0.0386252 4.1029e-06 -0.0206343)
(-0.038626 1.19213e-05 -0.0206565)
(-0.0386355 1.59608e-05 -0.0206806)
(-0.0386503 8.29983e-06 -0.0207087)
(-0.0484745 1.22229e-06 -0.0210491)
(-0.0483927 1.97519e-05 -0.0211682)
(-0.0483826 4.47183e-05 -0.0212268)
(-0.0484002 5.52942e-05 -0.0212645)
(-0.048435 5.395e-05 -0.0212897)
(-0.0484835 2.48289e-05 -0.0213017)
(-0.0563408 3.35992e-05 -0.0160754)
(-0.0562376 9.15247e-05 -0.0162672)
(-0.0562475 0.000123694 -0.016336)
(-0.0563034 0.000127938 -0.0163554)
(-0.0563907 0.00010892 -0.0163352)
(-0.0565108 4.67232e-05 -0.0162662)
(-0.0667121 7.75994e-05 -0.000553942)
(-0.0666452 0.000170176 -0.000712799)
(-0.0667124 0.000182155 -0.000716881)
(-0.0668413 0.000161356 -0.000655418)
(-0.0670178 0.000115228 -0.000531667)
(-0.0672459 4.35474e-05 -0.000329159)
(-0.0800368 8.13121e-05 0.034748)
(-0.0801172 0.000158461 0.0347755)
(-0.0802706 0.000139904 0.0348944)
(-0.0804657 0.000101154 0.0350516)
(-0.0806971 4.57104e-05 0.0352599)
(-0.0809632 7.3049e-06 0.0355242)
(-0.0932792 2.40272e-05 0.0824328)
(-0.0935522 -3.53463e-06 0.0827284)
(-0.0937537 -8.60209e-05 0.0828894)
(-0.0939324 -0.000132665 0.0830006)
(-0.0940942 -0.000149532 0.0831187)
(-0.0942239 -7.48479e-05 0.083236)
(-0.0809714 -8.83015e-05 0.170994)
(-0.0811652 -0.000226771 0.171263)
(-0.0812898 -0.00029718 0.171414)
(-0.0813759 -0.000300166 0.171478)
(-0.0814601 -0.00022031 0.171622)
(-0.0814578 -8.03041e-05 0.171565)
(-0.00245162 -2.9293e-07 -0.0184172)
(-0.00245103 -7.04018e-07 -0.0184175)
(-0.0024508 -6.84751e-07 -0.0184172)
(-0.00245074 -4.07228e-07 -0.0184169)
(-0.00245084 -7.97639e-08 -0.0184167)
(-0.00245095 9.37322e-08 -0.0184161)
(-0.00756446 -8.41389e-07 -0.0193782)
(-0.00756243 -1.45492e-06 -0.019377)
(-0.0075617 -9.05201e-07 -0.0193762)
(-0.00756162 -2.68329e-07 -0.0193759)
(-0.00756208 3.50145e-07 -0.0193762)
(-0.0075626 3.2267e-07 -0.0193766)
(-0.0133331 -1.7441e-06 -0.0212536)
(-0.0133288 -2.50833e-06 -0.0212494)
(-0.0133277 -7.76374e-07 -0.0212478)
(-0.0133281 6.16571e-07 -0.0212478)
(-0.0133295 1.664e-06 -0.0212492)
(-0.0133311 1.02896e-06 -0.0212516)
(-0.0202969 -2.18326e-06 -0.0241233)
(-0.0202888 -1.89285e-06 -0.0241181)
(-0.0202878 1.886e-06 -0.0241174)
(-0.0202898 4.24498e-06 -0.0241194)
(-0.0202936 5.59618e-06 -0.0241244)
(-0.0202977 2.93766e-06 -0.0241319)
(-0.0291251 4.18756e-09 -0.0279845)
(-0.029111 4.48066e-06 -0.0279891)
(-0.0291112 1.12775e-05 -0.0279954)
(-0.0291173 1.4701e-05 -0.0280042)
(-0.0291265 1.50374e-05 -0.0280165)
(-0.0291364 7.1294e-06 -0.0280322)
(-0.040952 8.09039e-06 -0.0329095)
(-0.0409279 2.35536e-05 -0.0329498)
(-0.0409313 3.42797e-05 -0.0329761)
(-0.0409457 3.7567e-05 -0.0329995)
(-0.0409663 3.36644e-05 -0.0330226)
(-0.0409903 1.49114e-05 -0.0330439)
(-0.0591106 2.40723e-05 -0.039377)
(-0.0590772 5.80198e-05 -0.0394828)
(-0.0590888 7.14275e-05 -0.0395384)
(-0.0591196 7.17851e-05 -0.0395761)
(-0.0591645 5.92885e-05 -0.0395993)
(-0.0592233 2.49801e-05 -0.0396018)
(-0.0870454 4.2778e-05 -0.0459154)
(-0.0870322 9.27892e-05 -0.0460689)
(-0.0870712 0.000100225 -0.0461269)
(-0.0871345 9.22618e-05 -0.0461445)
(-0.0872234 6.96734e-05 -0.0461224)
(-0.0873428 2.75488e-05 -0.0460478)
(-0.125655 4.809e-05 -0.0516054)
(-0.125742 8.51513e-05 -0.0516971)
(-0.125839 6.06218e-05 -0.0516827)
(-0.125943 3.35962e-05 -0.0516179)
(-0.126072 2.02127e-06 -0.0515008)
(-0.12623 -8.06929e-06 -0.0513193)
(-0.153446 1.16173e-05 -0.0465484)
(-0.153675 -2.60288e-05 -0.0464604)
(-0.153804 -0.000111199 -0.0463522)
(-0.153886 -0.000153137 -0.046232)
(-0.153973 -0.000169652 -0.0460951)
(-0.154032 -9.04418e-05 -0.0459289)
(-0.186737 -0.000117668 0.00738588)
(-0.18704 -0.000282862 0.00764341)
(-0.187104 -0.000361665 0.00775219)
(-0.187028 -0.000347696 0.00779884)
(-0.187018 -0.000302093 0.00783552)
(-0.186795 -0.000151152 0.00782708)
(-0.0895199 -0.000104053 0.0243341)
(-0.0896735 -0.000158461 0.0244555)
(-0.0896733 -0.00017883 0.0244686)
(-0.0895759 -2.52735e-05 0.0244137)
(-0.0894948 -0.000121946 0.0242037)
(-0.0893714 -0.000223754 0.0243709)
(0.214378 -2.48848e-05 -3.84296)
(0.21437 1.94165e-05 -3.84325)
(0.214368 1.37501e-05 -3.84325)
(0.214361 7.00924e-07 -3.84322)
(0.214364 -2.66436e-06 -3.84321)
(0.21435 3.78065e-05 -3.84299)
(0.17588 2.30351e-05 -3.79243)
(0.175866 2.81867e-05 -3.79265)
(0.175858 -9.30197e-07 -3.79262)
(0.175864 -5.7927e-06 -3.7926)
(0.175868 -2.89341e-05 -3.79263)
(0.175837 -2.01282e-05 -3.79243)
(0.0528396 1.65355e-05 -3.90926)
(0.0528379 1.71946e-05 -3.90938)
(0.052838 7.44099e-07 -3.90935)
(0.05284 -2.26229e-06 -3.90934)
(0.0528402 -1.60836e-05 -3.90936)
(0.0528365 -1.60732e-05 -3.90922)
(-0.00698818 -2.77457e-06 -4.00363)
(-0.00706117 6.65575e-06 -4.00385)
(-0.00706706 -1.10058e-05 -4.00379)
(-0.00708403 1.86756e-06 -4.00376)
(-0.00707758 -1.13591e-05 -4.00381)
(-0.0069935 -9.38276e-07 -4.00354)
(0.0369038 1.71285e-05 -4.10251)
(0.0369213 2.81881e-06 -4.1027)
(0.0369168 -1.58872e-05 -4.10267)
(0.0369122 -1.3684e-05 -4.10266)
(0.0369109 -2.49536e-05 -4.10268)
(0.0368742 -3.03545e-05 -4.10244)
(0.0157489 1.49592e-05 -4.10313)
(0.0157448 1.8621e-05 -4.10325)
(0.0157447 2.71839e-06 -4.10321)
(0.0157468 5.20635e-07 -4.1032)
(0.0157487 -1.75954e-05 -4.10321)
(0.0157449 -1.7502e-05 -4.10307)
(-0.377449 3.11246e-05 -2.95189)
(-0.377467 2.05165e-05 -2.95215)
(-0.377482 -2.06551e-05 -2.95211)
(-0.377507 -1.4367e-05 -2.95211)
(-0.377511 -4.66997e-05 -2.95219)
(-0.377498 -3.58274e-05 -2.95184)
(0.191184 1.64061e-05 -3.93949)
(0.191222 1.54167e-05 -3.93967)
(0.191212 6.62713e-07 -3.93963)
(0.19121 6.62407e-06 -3.93963)
(0.191218 -2.19696e-05 -3.93966)
(0.191171 -3.30305e-05 -3.93942)
(0.0977426 1.30647e-05 -3.88642)
(0.0977459 1.57761e-05 -3.88653)
(0.0977467 4.12714e-06 -3.88651)
(0.0977494 1.82555e-06 -3.8865)
(0.097752 -1.43926e-05 -3.88651)
(0.0977424 -1.66736e-05 -3.88639)
(0.0246962 2.23641e-05 -3.67586)
(0.0247938 -4.7644e-06 -3.67628)
(0.0247432 -4.93112e-05 -3.67624)
(0.0247078 -3.91112e-05 -3.67625)
(0.0246882 -6.41231e-05 -3.67638)
(0.024556 -5.33661e-05 -3.67583)
(0.217394 3.14974e-05 -4.68977)
(0.217422 4.11514e-05 -4.69002)
(0.217422 1.13093e-05 -4.68999)
(0.217428 1.40136e-05 -4.69001)
(0.217437 -3.77131e-05 -4.69008)
(0.217408 -5.11096e-05 -4.68978)
(0.116915 1.80164e-05 -4.25395)
(0.116913 2.17377e-05 -4.2541)
(0.116916 6.44971e-06 -4.25408)
(0.116916 7.45529e-06 -4.25408)
(0.116917 -1.50536e-05 -4.2541)
(0.11692 -2.14043e-05 -4.25398)
(0.0121302 5.55803e-06 -3.30331)
(0.0121816 -2.88389e-05 -3.30376)
(0.0121101 -7.16108e-05 -3.30374)
(0.0120544 -5.91069e-05 -3.30375)
(0.012032 -7.67756e-05 -3.30387)
(0.0119211 -5.40752e-05 -3.30332)
(-0.0163449 3.33018e-05 -4.5348)
(-0.0163274 4.19498e-05 -4.53506)
(-0.0163206 4.63161e-06 -4.53504)
(-0.0163113 3.65624e-06 -4.53506)
(-0.0163127 -4.10634e-05 -4.53514)
(-0.0163139 -4.47831e-05 -4.53485)
(0.0101132 1.65852e-05 -3.96445)
(0.0101099 1.69304e-05 -3.9646)
(0.0101044 2.6705e-06 -3.9646)
(0.0101012 4.4839e-06 -3.96461)
(0.0100973 -1.83759e-05 -3.96463)
(0.0100991 -2.48022e-05 -3.9645)
(0.413432 1.7887e-05 -3.71242)
(0.413507 -4.72328e-06 -3.71281)
(0.413413 -2.45663e-05 -3.71284)
(0.413372 -1.7161e-05 -3.71288)
(0.413389 -6.4336e-05 -3.713)
(0.413248 -7.32351e-05 -3.71258)
(-0.0739005 3.08212e-05 -4.64833)
(-0.0739174 3.65909e-05 -4.64857)
(-0.0739064 7.57211e-06 -4.64854)
(-0.0738931 1.14858e-05 -4.64854)
(-0.0739139 -2.01063e-05 -4.64859)
(-0.0738367 -2.19395e-05 -4.64833)
(-0.0814015 1.37182e-05 -4.12732)
(-0.0814054 4.71345e-06 -4.12747)
(-0.0814136 -1.37339e-05 -4.12748)
(-0.0814225 -1.22522e-05 -4.12749)
(-0.0814315 -2.59362e-05 -4.12751)
(-0.081438 -2.29669e-05 -4.12736)
(0.121371 -4.30313e-05 -4.02783)
(0.12135 -8.88986e-05 -4.02819)
(0.121265 -6.0059e-05 -4.02823)
(0.121207 -5.46766e-05 -4.02829)
(0.121292 2.48483e-05 -4.02838)
(0.120996 5.10898e-05 -4.0281)
(-0.244314 -3.10421e-06 -4.01893)
(-0.244296 -3.11634e-05 -4.01905)
(-0.244309 -3.54927e-05 -4.01906)
(-0.244298 -3.68536e-05 -4.01905)
(-0.244335 3.03201e-05 -4.01907)
(-0.24431 6.542e-05 -4.01886)
(-0.146127 1.13878e-05 -4.11834)
(-0.146129 1.49569e-06 -4.11847)
(-0.146135 -2.60155e-05 -4.11844)
(-0.146148 -3.32435e-05 -4.11845)
(-0.146164 -4.83447e-05 -4.11845)
(-0.146176 -3.23558e-05 -4.11832)
(-0.224418 -2.28645e-05 -6.31554)
(-0.225111 -6.0092e-05 -6.31596)
(-0.225063 -5.95919e-05 -6.31591)
(-0.225229 -3.31683e-05 -6.31588)
(-0.225448 -9.68436e-05 -6.31588)
(-0.224874 -7.0244e-05 -6.3159)
(0.13449 1.30386e-05 -3.74731)
(0.134311 -4.99825e-05 -3.74755)
(0.13419 -4.90749e-05 -3.74754)
(0.134139 -9.71856e-05 -3.74748)
(0.133855 -9.58358e-06 -3.74751)
(0.13459 0.000102702 -3.74704)
(0.15267 3.94756e-06 -4.21362)
(0.152726 -2.21057e-05 -4.2137)
(0.152692 -7.12088e-05 -4.21367)
(0.152666 -8.59214e-05 -4.2137)
(0.152656 -8.54815e-05 -4.21377)
(0.152581 -4.25185e-05 -4.21354)
(1.6607 8.27803e-05 -0.415709)
(1.65998 0.000171319 -0.416488)
(1.66045 2.86704e-05 -0.416034)
(1.66043 0.000203795 -0.415674)
(1.66133 -0.00034105 -0.414127)
(1.65869 -0.000628334 -0.418489)
(-1.33168 0.000266046 -3.82161)
(-1.33211 9.69698e-05 -3.8222)
(-1.33213 -7.31858e-05 -3.82175)
(-1.33234 -2.04102e-06 -3.82146)
(-1.3326 -1.94283e-07 -3.82072)
(-1.33205 9.68686e-05 -3.82243)
(-0.0643464 5.98167e-05 -4.93819)
(-0.0643329 -2.4886e-05 -4.93834)
(-0.0644778 -0.000158837 -4.93814)
(-0.0645822 -0.000144264 -4.9381)
(-0.0645661 -0.000107871 -4.93809)
(-0.0646965 -3.32412e-05 -4.93799)
(10.5823 3.47376e-05 13.195)
(10.5826 9.45834e-05 13.1953)
(10.5826 7.19542e-05 13.1953)
(10.5825 0.00038748 13.1953)
(10.5834 -1.5875e-05 13.1962)
(10.5817 -0.000528618 13.1947)
(7.00822 0.00034416 7.17339)
(7.00883 0.000151475 7.17344)
(7.0087 -0.00049068 7.17321)
(7.00849 3.21597e-05 7.1734)
(7.00986 -0.00115478 7.17632)
(7.00642 -0.0015781 7.16993)
(1.44019 0.000703674 0.104119)
(1.44048 0.000355226 0.104515)
(1.44037 -0.000513684 0.104825)
(1.43999 0.000125203 0.104673)
(1.44097 -0.00134359 0.107344)
(1.43835 -0.0016744 0.100811)
(7.88013 0.000327802 13.4262)
(7.8809 0.000331123 13.4273)
(7.88107 3.9191e-05 13.427)
(7.8805 0.000242002 13.4271)
(7.87973 0.000411721 13.4276)
(7.88357 4.8614e-05 13.4267)
(10.5811 0.000356436 13.7295)
(10.5844 0.000290881 13.7302)
(10.5823 -0.000240755 13.7298)
(10.5825 0.000697781 13.7302)
(10.5911 -0.00195097 13.7327)
(10.5702 -0.00300234 13.728)
(8.8524 0.000819336 8.01389)
(8.85622 0.000326886 8.01482)
(8.854 -0.000567366 8.0149)
(8.85398 0.000441442 8.01521)
(8.85926 -0.00150748 8.01533)
(8.84676 -0.00219306 8.01582)
(5.69629 0.000176096 7.45883)
(5.6975 0.00011066 7.45982)
(5.69714 -0.000104827 7.45945)
(5.69716 -0.000309435 7.45976)
(5.69828 0.000441071 7.46088)
(5.69571 0.000653458 7.45843)
(7.84149 0.000534442 9.01118)
(7.84508 0.000147516 9.014)
(7.84314 -0.000527601 9.01303)
(7.84394 0.000101289 9.01109)
(7.85079 -0.00109207 9.01086)
(7.83341 -0.00143728 9.01356)
(10.795 0.000519307 7.56487)
(10.7998 0.000168772 7.57042)
(10.7966 -0.000405056 7.56771)
(10.7963 -2.97414e-05 7.56541)
(10.8046 0.000439241 7.56921)
(10.7835 0.000258528 7.56355)
(-0.119784 2.53722e-05 1.41077)
(-0.119411 0.000274165 1.41128)
(-0.119299 -0.000485321 1.41167)
(-0.11923 0.00082744 1.41122)
(-0.116267 -0.0014537 1.41723)
(-0.122348 -0.00300016 1.40592)
(-2.03643 0.000724822 -0.474038)
(-2.03727 0.00154576 -0.474395)
(-2.03763 -0.000152277 -0.474415)
(-2.03593 0.00792973 -0.474763)
(-2.04357 -0.00754365 -0.473964)
(-2.03074 -0.0164084 -0.47508)
(-0.752535 -0.00063032 1.04689)
(-0.753503 -7.897e-05 1.05243)
(-0.754013 -0.00098034 1.04494)
(-0.75285 0.0013805 1.06283)
(-0.7603 -0.00126709 1.10544)
(-0.747065 -0.00384747 1.00121)
(-0.467168 -0.000490043 2.26355)
(-0.467548 -0.000511762 2.264)
(-0.466345 -0.00048611 2.26519)
(-0.466993 -0.00296786 2.26257)
(-0.468411 0.00285929 2.26721)
(-0.462874 0.00539602 2.26143)
(-2.42628 0.000512242 -1.61755)
(-2.42902 0.00163394 -1.62015)
(-2.42534 -0.00133111 -1.61634)
(-2.42785 0.00343205 -1.62327)
(-2.44217 -0.00148118 -1.64506)
(-2.41307 -0.00719949 -1.59407)
(0.188326 0.000644012 9.79641)
(0.194503 0.00201301 9.80452)
(0.190887 0.000260925 9.79953)
(0.198573 0.0061441 9.80566)
(0.220883 -0.00436237 9.84293)
(0.167375 -0.0113911 9.76438)
(0.893969 0.00011712 0.428249)
(0.89421 -0.000375012 0.427693)
(0.894898 -0.00149833 0.427539)
(0.894342 -0.000680421 0.425621)
(0.896127 -0.00183118 0.42781)
(0.893386 -0.00218112 0.42724)
(2.89948 0.000209482 0.423001)
(2.89826 0.000390478 0.424077)
(2.89799 0.00028977 0.422965)
(2.90281 -0.00186289 0.422362)
(2.91062 0.00184964 0.427407)
(2.88825 0.00391542 0.41329)
(8.48951 0.000991411 12.5478)
(8.49265 0.00127247 12.5518)
(8.49112 0.000966324 12.5503)
(8.49373 0.00293365 12.5517)
(8.50937 -0.00250951 12.5564)
(8.47671 -0.00469319 12.5489)
(-0.670674 6.01587e-05 -3.63684)
(-0.672052 4.17003e-05 -3.6393)
(-0.671624 0.000138272 -3.63891)
(-0.670013 -0.000388634 -3.63516)
(-0.673112 0.00066825 -3.63443)
(-0.667138 0.00128508 -3.64051)
(6.70033 0.000689123 3.65703)
(6.70051 0.000805799 3.65837)
(6.7 0.000470237 3.65734)
(6.70114 0.000739042 3.65727)
(6.70684 -0.000645805 3.66251)
(6.6949 -0.000992824 3.6515)
(10.5293 0.00144815 7.5451)
(10.5325 0.00125147 7.55384)
(10.5314 0.000308815 7.54958)
(10.5316 0.00206459 7.5506)
(10.5407 -0.00250461 7.55453)
(10.5235 -0.0040722 7.54382)
(1.64342 0.000120501 2.21759)
(1.64246 0.000294555 2.21726)
(1.64246 7.68928e-05 2.21737)
(1.64466 0.00133271 2.21785)
(1.65042 -0.0011197 2.22123)
(1.63776 -0.00251834 2.21446)
(7.25457 0.00082997 5.09049)
(7.25709 0.000761037 5.09385)
(7.25585 9.03037e-05 5.09199)