/*--------------------------------*- C++ -*----------------------------------*\
| =========                 |                                                 |
| \\      /  F ield         | OpenFOAM: The Open Source CFD Toolbox           |
|  \\    /   O peration     | Version:  v1612+                                |
|   \\  /    A nd           | Web:      www.OpenFOAM.com                      |
|    \\/     M anipulation  |                                                 |
\*---------------------------------------------------------------------------*/
FoamFile
{
    version     2.0;
    format      ascii;
    class       surfaceScalarField;
    location    "8.05";
    object      phi;
}
// * * * * * * * * * * * * * * * * * * * * * * * * * * * * * * * * * * * * * //

dimensions      [0 3 -1 0 0 0 0];

internalField   nonuniform List<scalar> 
816
(
-1.5021e-06
-9.94131e-06
4.97172e-06
-1.32349e-05
-1.64999e-05
3.61701e-05
6.97833e-06
2.47574e-06
-9.60872e-06
2.74104e-06
-4.09824e-06
-7.50601e-06
2.39774e-06
1.27197e-06
5.70511e-06
-1.18025e-05
-6.95565e-06
7.33617e-06
3.19869e-06
-4.04981e-06
1.9147e-05
2.04063e-05
-1.87439e-06
-0.000201192
0.000175058
0.000168564
-2.34122e-06
5.46216e-05
2.28524e-05
7.63031e-05
-9.69456e-07
-5.65608e-05
0.000306925
0.000147662
6.18424e-06
0.000150406
1.17479e-05
0.000132208
-2.1323e-05
0.000132098
-8.63841e-05
0.000262779
-1.57774e-05
-5.63864e-05
0.0002279
0.000229986
-1.2487e-05
0.000334795
-0.000109037
0.000326871
-1.16247e-05
0.000235152
-0.000175761
-3.73497e-05
-6.0377e-07
0.000402082
0.000301756
3.63802e-05
1.88447e-05
0.000191433
-0.00022264
-0.000201995
1.25037e-05
0.000152849
-0.000432558
5.36435e-06
-0.000229914
-1.34647e-05
2.24903e-05
-3.34757e-06
-3.09069e-05
-3.61479e-06
1.32226e-05
3.07621e-05
-3.46219e-05
9.726e-06
9.34056e-06
2.48736e-06
-3.55094e-06
-3.0498e-06
3.35805e-05
-2.65099e-06
2.2165e-05
-3.15354e-07
-1.03096e-05
6.8241e-06
-1.68596e-05
6.10288e-06
-1.36953e-05
3.69322e-06
-2.58774e-05
5.41244e-06
2.28745e-05
6.31633e-06
-3.41073e-05
7.28418e-06
1.34655e-05
1.56524e-05
-6.10813e-06
-8.34825e-06
4.97232e-07
4.92446e-06
-4.51725e-05
2.32112e-05
3.52194e-05
2.48784e-05
-2.5439e-05
1.32456e-05
6.21487e-06
-9.20389e-06
5.5134e-05
8.71694e-06
-2.3846e-05
-1.79206e-05
1.9424e-06
6.85077e-06
-1.17317e-05
2.10107e-06
-1.51633e-05
-1.16221e-06
-1.86195e-05
-1.43921e-05
-1.08725e-05
1.35284e-06
-1.4706e-06
-1.92618e-06
-2.01276e-05
5.67545e-06
8.89597e-06
-6.05513e-07
-4.98705e-06
-6.93745e-06
-6.23946e-06
2.68881e-06
-1.34419e-05
-6.65989e-06
-1.3453e-05
-2.60955e-06
-1.57059e-05
-5.78547e-06
-1.05916e-05
-2.61213e-06
6.84699e-06
-6.97931e-06
-2.08354e-05
-9.45487e-06
-1.84805e-05
-1.36395e-05
-1.2164e-05
-5.2512e-06
5.8759e-06
2.36661e-05
-1.26949e-06
-8.75819e-06
-1.16346e-07
-1.0412e-06
-1.24109e-06
-5.9106e-06
2.92889e-06
-6.85155e-06
-5.43932e-06
3.79544e-06
1.60508e-06
-6.08948e-06
2.17489e-06
-3.94259e-06
1.66435e-06
1.08821e-06
1.00986e-06
-3.72306e-06
3.94269e-06
2.85163e-06
-6.53424e-06
6.0578e-07
-1.15888e-06
-5.16111e-06
-1.05462e-05
-6.43458e-06
-2.34202e-06
8.38656e-07
-1.82989e-06
-1.08988e-05
-1.13539e-07
4.19855e-06
-7.09261e-07
1.76501e-07
-1.81622e-06
-2.64736e-06
-2.00707e-06
7.2897e-07
-4.24075e-06
-7.40588e-06
-4.37595e-06
-1.83649e-06
-3.17647e-06
-6.00114e-06
-5.23293e-06
4.20288e-06
-1.80045e-06
-3.17692e-06
-6.28296e-06
-1.0535e-05
-6.08645e-06
-7.8385e-06
-2.99965e-06
-3.41915e-06
2.45379e-06
-5.32712e-07
7.04783e-06
-9.45748e-07
-1.33906e-06
-3.36377e-06
-0.000219526
0.000161572
-3.66381e-06
-0.000219939
1.82231e-05
-2.31973e-06
-0.000165689
3.36713e-07
6.8353e-06
-2.71579e-05
0.000109107
9.52843e-06
-3.04277e-05
0.000211099
1.65703e-05
-0.000292531
-0.000273816
2.64707e-05
5.22445e-06
-0.000242785
-0.000208709
-1.59345e-06
-0.000246279
-0.000493433
-6.73638e-06
-0.000348254
-0.000285889
2.58772e-06
-0.000100138
0.000559968
2.1663e-05
-0.000491901
-0.000215922
0.000394678
-4.3024e-06
-0.000215552
3.18679e-05
4.09632e-06
-0.000249774
0.000214648
-8.2703e-06
-1.37135e-05
0.000144454
-1.67049e-06
-3.67172e-05
-0.000112304
-7.08528e-07
-0.000204484
-0.000254978
-0.000242881
-9.69324e-07
-0.000205533
-0.00041041
4.41284e-07
-0.000124287
-0.000341211
-2.16626e-06
-0.000181342
-0.000177206
9.86588e-06
-0.000146667
6.17387e-06
-0.000239371
-0.000238038
-1.91887e-05
9.16413e-06
6.94083e-06
5.00433e-06
9.34555e-06
-2.64268e-05
-3.02757e-06
9.47683e-06
-1.8335e-07
1.4481e-05
6.34221e-06
-1.19968e-06
9.69739e-06
2.43792e-05
6.04951e-05
-3.26347e-05
-3.27013e-05
2.02791e-06
7.04316e-05
-1.18421e-05
-1.86129e-05
6.09449e-05
-4.41296e-05
-4.97673e-05
8.45927e-05
-5.09361e-05
-2.84504e-05
-5.52206e-06
-5.07727e-06
3.31532e-05
-1.00819e-05
-1.9041e-05
-1.77608e-05
-2.75518e-06
6.79919e-05
-1.28169e-05
-2.68089e-05
7.00052e-05
-3.6006e-05
8.08326e-06
-5.04044e-05
-3.38067e-06
2.86573e-06
4.38865e-05
-2.1607e-05
2.59034e-05
4.56029e-05
-4.35812e-05
-2.72519e-05
-3.15652e-06
5.88642e-05
2.67082e-06
-2.68606e-05
6.22004e-05
-2.56733e-05
-1.92375e-05
1.19568e-05
-1.06555e-05
-7.27714e-07
-5.26343e-06
2.69074e-07
5.22226e-05
-2.11211e-05
-2.87524e-05
6.16924e-06
-5.78517e-07
4.59803e-06
-3.38442e-06
-7.74207e-06
-1.24763e-05
-1.1947e-06
-7.99948e-06
1.50983e-06
-1.2254e-05
-5.59617e-06
-3.05685e-07
-5.22316e-06
-8.61349e-06
2.76075e-05
1.89131e-05
1.70541e-05
2.58508e-06
3.15835e-05
7.55593e-06
1.15084e-05
2.73044e-05
2.41426e-05
2.56597e-05
3.78964e-05
2.63421e-05
1.37856e-05
-2.7167e-06
2.40613e-06
-1.49922e-05
-4.16238e-06
1.2492e-05
1.04568e-05
3.7613e-06
2.97844e-05
5.97753e-06
1.91153e-05
3.10401e-05
1.78793e-05
-4.82732e-06
-2.17807e-05
2.09763e-06
-2.11018e-06
2.05458e-05
1.11288e-05
-1.47717e-05
2.04604e-05
2.39392e-05
1.38694e-05
9.74112e-07
2.5518e-05
-8.99073e-07
1.50402e-05
2.76336e-05
1.522e-05
9.90527e-06
5.80344e-06
1.001e-05
1.05209e-06
-1.93534e-06
4.62293e-06
2.37294e-05
1.06072e-05
1.83533e-05
3.98299e-06
-1.47201e-07
2.08693e-06
-2.21913e-06
-4.3474e-06
-3.97589e-06
-1.31175e-06
-4.94343e-06
2.7693e-06
-7.09899e-06
-2.70771e-06
-6.97117e-07
-3.67379e-06
-4.47819e-06
9.18815e-06
1.03048e-05
9.8751e-06
1.25276e-06
1.16833e-05
3.27116e-06
6.54212e-06
8.88881e-06
1.24185e-05
1.42976e-05
1.2468e-05
1.5023e-05
7.85844e-06
-9.09364e-07
3.71262e-07
-8.70484e-06
6.40124e-07
6.48478e-06
5.23203e-06
2.02338e-06
8.48838e-06
3.13613e-06
1.02346e-05
1.00631e-05
9.59349e-06
-3.40474e-06
-5.01663e-06
1.11297e-06
-1.31729e-06
6.35897e-06
5.81351e-06
-7.92789e-06
6.03258e-06
1.29699e-05
8.07943e-06
5.18442e-07
8.15691e-06
-1.61543e-06
8.05405e-06
8.78139e-06
8.33095e-06
4.7416e-06
2.66066e-06
5.96974e-06
2.57522e-07
-7.28575e-07
1.96794e-06
6.16888e-06
6.42767e-06
1.12053e-05
-9.48861e-07
-2.88229e-06
1.5076e-06
-3.13219e-06
3.38815e-06
-7.48921e-07
-1.41601e-06
-4.20119e-06
4.91017e-07
1.82829e-06
-2.41388e-06
4.44766e-06
-6.00683e-06
2.38674e-06
-8.13792e-09
-5.63783e-06
-3.4625e-06
9.16799e-07
-5.171e-07
-6.14188e-06
9.33996e-07
-1.26642e-06
-8.23685e-07
-2.66702e-06
6.19034e-07
-2.32193e-06
-3.51161e-06
-5.37195e-07
-3.98369e-07
-3.07952e-06
1.23615e-06
-2.73933e-06
-1.62189e-06
-4.80415e-06
-3.91216e-06
-4.15551e-07
7.44389e-07
-7.33561e-07
-1.28054e-06
1.06282e-06
4.85203e-07
1.10974e-06
-7.74036e-07
-3.55001e-06
3.26694e-08
-1.69008e-06
-2.55846e-06
-1.87628e-06
-1.02391e-06
-1.27398e-06
3.61127e-06
4.97921e-06
2.08207e-06
2.18601e-06
4.13499e-06
5.57145e-06
7.9066e-06
6.03554e-06
3.78304e-06
9.0836e-07
-2.4186e-06
3.02856e-06
3.81689e-06
1.32161e-06
1.23607e-06
5.43606e-06
5.56037e-06
1.28852e-07
1.54195e-06
5.33956e-07
4.34216e-06
-3.63619e-06
6.1048e-06
4.09764e-06
-1.91368e-07
-9.12475e-08
3.80945e-06
4.3399e-06
3.36398e-06
2.3704e-06
1.15197e-06
2.58291e-06
3.27863e-06
5.14731e-06
8.99094e-06
-0.000216572
-5.2492e-07
2.96565e-05
-8.17569e-06
0.000168073
7.67281e-06
3.3354e-06
2.94044e-05
-0.000105929
-3.20628e-06
-0.000443561
-3.89465e-06
0.000358974
2.44268e-05
0.000217305
2.08962e-06
-1.29326e-05
-1.42616e-07
-4.64136e-05
-1.03045e-06
-0.000139302
6.3717e-06
-8.83708e-05
-1.48422e-06
3.29964e-05
4.60736e-07
4.05781e-05
9.11095e-07
0.00019327
5.33174e-06
0.000435167
6.8091e-06
0.000308307
5.79782e-06
0.00030037
-5.43965e-06
0.000162645
-8.14484e-07
-5.47784e-05
2.08041e-06
-2.97659e-05
-3.21415e-06
-0.000290683
9.54399e-07
-5.10233e-05
3.10219e-06
-0.000197174
-2.52554e-06
-0.000264204
-0.000185972
-0.000310121
-3.66878e-06
-0.000223419
1.16723e-05
1.95583e-05
1.11386e-05
-2.02746e-05
-8.52369e-06
4.72421e-06
1.03806e-05
2.60965e-05
-1.48098e-05
2.71919e-06
5.20377e-05
-2.52159e-05
3.39998e-05
-4.44908e-05
-1.80192e-05
3.4337e-05
-5.97187e-05
2.38595e-05
-1.99438e-05
-2.27976e-05
2.60097e-05
-1.26418e-05
-5.51895e-05
1.33741e-05
-7.2003e-05
1.69819e-05
-1.15586e-05
1.22639e-05
-1.67351e-05
-1.37141e-05
2.7054e-05
-5.91308e-06
-2.27675e-05
-2.56617e-06
-1.15645e-05
4.97659e-07
-3.59646e-05
2.02127e-07
-1.16678e-05
-9.06263e-06
-1.21019e-05
-1.31979e-05
-3.6657e-05
3.33904e-05
-5.11943e-05
1.09723e-05
-3.02581e-06
-4.37463e-06
2.1285e-05
2.58822e-06
-3.13466e-05
-9.03966e-06
-8.66445e-06
-1.94855e-05
-3.97561e-06
-1.45503e-05
-3.52221e-05
-4.87894e-05
-1.02565e-05
1.77653e-05
-5.468e-06
-8.24406e-06
5.02292e-06
-1.72324e-05
-6.98041e-06
-1.1223e-06
2.37596e-05
1.20244e-05
1.56072e-05
1.91445e-05
-6.23864e-06
-1.35224e-05
-2.69803e-05
-5.93925e-06
-1.04527e-05
1.49007e-05
1.27012e-05
6.8336e-06
-2.29798e-05
-6.6107e-06
-3.22027e-05
-1.04549e-05
-5.32857e-06
-7.46315e-06
-7.24053e-06
7.40187e-06
1.22006e-05
5.5306e-06
-1.04023e-05
5.03128e-06
-5.092e-06
3.09323e-06
-1.61363e-05
-3.1801e-07
-6.19251e-06
5.03539e-06
-6.30232e-06
8.26272e-06
-1.5937e-05
-1.95235e-05
-2.34144e-05
-6.93383e-06
-1.74526e-06
3.1656e-06
1.02885e-05
1.07545e-06
-1.39948e-05
6.72235e-06
-4.07325e-06
9.77848e-06
-2.43273e-06
9.79837e-06
-1.67963e-05
-2.12268e-05
-5.67176e-06
8.88856e-06
-2.25369e-06
-4.55465e-06
1.711e-06
-9.7853e-06
-3.09526e-06
-8.19316e-07
7.69429e-06
7.66442e-06
3.44601e-06
1.13202e-05
4.16385e-07
-7.69095e-06
-7.98494e-06
-4.41143e-06
-3.87475e-06
8.26541e-06
3.29577e-06
5.00145e-06
-7.29901e-06
-3.77576e-06
-8.39113e-06
-5.78896e-06
-2.9379e-06
-4.75058e-06
-1.79841e-06
4.98696e-06
2.4372e-06
3.33617e-06
-3.51624e-06
2.45697e-06
-1.0725e-06
1.37338e-06
-5.44829e-06
-3.19166e-07
-3.37907e-06
2.84424e-06
-3.63627e-06
4.53799e-06
-4.66093e-06
-1.09204e-05
-7.94788e-06
-3.99069e-06
-5.84989e-07
2.47723e-06
2.20547e-06
9.58781e-07
-4.03904e-06
2.96364e-06
-1.35712e-07
5.06555e-06
-2.72348e-06
4.4199e-06
-4.91274e-06
-7.91263e-06
-4.24657e-06
5.26874e-06
-3.30408e-06
-6.36779e-06
-1.23554e-06
1.178e-06
5.21428e-06
-2.76123e-06
-1.65881e-06
3.83487e-06
2.10246e-06
-2.52311e-07
-2.27104e-06
-1.0006e-06
1.44711e-06
1.74838e-06
1.91133e-06
2.02331e-06
1.8798e-07
9.0394e-07
2.34604e-06
-5.60747e-06
-2.09554e-06
1.31911e-08
3.0629e-07
2.58327e-06
2.43165e-06
2.66547e-06
-0.000211153
0.000289469
7.62286e-08
-1.54394e-05
-2.98381e-06
-8.14366e-05
3.46532e-07
-1.24618e-05
2.8441e-06
2.06192e-05
-9.75644e-06
1.8135e-05
)
;

boundaryField
{
    top_fluid_surface
    {
        type            calculated;
        value           nonuniform List<scalar> 
64
(
-1.38619e-05
-0.000208023
-0.000152497
-0.000264374
-1.61255e-05
-0.000205143
-6.94256e-05
-0.000153524
-0.000310973
-9.87856e-05
0.000500255
3.27878e-05
2.66499e-05
-0.000226148
8.72776e-05
-0.000161906
0.000418966
0.000718152
0.00064497
0.000883142
-0.000160556
-0.000194551
0.000670039
0.000907049
0.000129485
0.000513228
0.000717985
0.000634138
0.000478011
0.000223785
-6.94878e-05
0.000479796
-3.15873e-05
-0.000127039
-0.000328475
0.000105163
9.1213e-05
7.09854e-05
-0.00085366
-0.000129842
1.04728e-05
-0.000230217
-0.000296751
-0.000149488
-0.000606492
-8.70976e-06
-0.000382178
-0.000484651
-0.000160688
8.55081e-06
7.78563e-05
-2.51999e-06
-9.36744e-06
-6.20986e-06
-0.000454037
-1.79321e-05
0.000180992
-7.64463e-05
-0.000224537
-0.0006444
-0.000330708
-0.00014853
-1.7003e-05
-0.000178182
)
;
    }
    bottom_fluid_surface
    {
        type            calculated;
        value           uniform 0;
    }
    lateral_surface_1
    {
        type            calculated;
        value           uniform 0;
    }
    lateral_surface_2
    {
        type            calculated;
        value           uniform 0;
    }
    lateral_surface_3
    {
        type            calculated;
        value           uniform 0;
    }
    lateral_surface_4
    {
        type            calculated;
        value           uniform 0;
    }
}


// ************************************************************************* //
