/*--------------------------------*- C++ -*----------------------------------*\
| =========                 |                                                 |
| \\      /  F ield         | OpenFOAM: The Open Source CFD Toolbox           |
|  \\    /   O peration     | Version:  v1612+                                |
|   \\  /    A nd           | Web:      www.OpenFOAM.com                      |
|    \\/     M anipulation  |                                                 |
\*---------------------------------------------------------------------------*/
FoamFile
{
    version     2.0;
    format      ascii;
    class       volVectorField;
    location    "8.05";
    object      U;
}
// * * * * * * * * * * * * * * * * * * * * * * * * * * * * * * * * * * * * * //

dimensions      [0 1 -1 0 0 0 0];

internalField   nonuniform List<vector> 
320
(
(6.0596e-06 -1.22821e-05 2.39019e-05)
(-8.70154e-06 -8.07597e-06 3.57889e-07)
(-1.71248e-05 -6.51026e-06 -9.56575e-06)
(3.04881e-06 2.24326e-05 1.82233e-06)
(0.000124891 0.000102302 -2.4526e-05)
(-6.57586e-05 -0.000122333 -0.000119222)
(0.000348323 -2.48001e-05 -7.71491e-05)
(0.000141417 0.000190083 -0.000128723)
(0.000291739 6.33888e-05 -3.75262e-07)
(-0.000181328 0.00026809 -0.000103868)
(-0.000316713 0.000410159 -4.26006e-05)
(-0.000114456 0.000196397 -6.9504e-05)
(-0.000568769 0.00043602 -0.000182464)
(-0.000466421 -0.000320659 -8.76309e-05)
(-0.000526546 0.000214092 0.000271738)
(-0.000164592 0.000241018 -3.38704e-07)
(2.23422e-05 1.92169e-06 3.89779e-05)
(2.06355e-05 4.01111e-07 3.51576e-05)
(4.42864e-05 4.31109e-06 3.72892e-06)
(1.41726e-05 2.30503e-06 -1.95079e-05)
(2.95991e-05 -9.54773e-06 1.69454e-05)
(8.21257e-06 2.62255e-05 3.40273e-05)
(-1.46128e-05 1.42179e-05 4.07769e-05)
(2.71363e-06 -1.5801e-05 8.77262e-06)
(-3.71594e-05 3.82463e-05 5.51336e-05)
(-2.7687e-05 -4.80124e-05 3.29929e-05)
(-3.70884e-05 1.80228e-06 -6.81905e-05)
(-1.42993e-05 1.52657e-05 2.29404e-05)
(-1.04758e-05 2.04615e-06 2.24709e-05)
(-1.20188e-05 3.71362e-06 3.03027e-05)
(-2.74886e-05 6.31386e-07 3.02429e-06)
(-1.04072e-05 2.78638e-06 -2.08895e-05)
(-1.82889e-05 7.07457e-06 1.32915e-05)
(-9.90273e-06 -1.63098e-05 1.92875e-05)
(4.88354e-06 -8.96252e-06 2.42572e-05)
(4.69956e-07 1.09157e-05 2.12926e-06)
(2.08117e-05 -1.52722e-05 3.40455e-05)
(1.43543e-05 2.80213e-05 2.0018e-05)
(1.85427e-05 -1.43678e-06 -3.88282e-05)
(6.31911e-06 -8.91092e-06 1.26408e-05)
(2.90332e-06 -7.26783e-06 8.95292e-06)
(-5.44997e-06 -4.78491e-06 -4.63153e-06)
(-9.97519e-06 -3.9107e-06 -1.21098e-06)
(1.79864e-06 1.23682e-05 -6.65952e-06)
(-5.38635e-06 1.22226e-06 7.72258e-06)
(-7.26301e-06 1.9304e-06 4.52028e-07)
(-1.48703e-05 3.72945e-07 1.38506e-07)
(-6.07389e-06 1.79352e-06 1.63312e-06)
(-9.69645e-06 5.51699e-06 2.25384e-06)
(-5.32098e-06 -8.70863e-06 6.9147e-06)
(3.97773e-06 -4.9375e-06 8.62864e-06)
(-1.93748e-07 6.8563e-06 3.75615e-06)
(1.06656e-05 -9.78718e-06 8.57508e-06)
(7.63716e-06 1.54643e-05 3.47553e-06)
(9.84681e-06 -1.96268e-07 -1.05985e-05)
(4.08443e-06 -4.15346e-06 4.46903e-06)
(-0.000541266 0.000197333 2.25718e-05)
(8.69346e-05 0.000303459 -0.00012952)
(-4.67304e-05 3.79026e-05 3.75034e-05)
(4.38439e-05 0.000157751 -9.3224e-05)
(0.000159891 0.000460627 0.000230293)
(0.000229385 -2.59091e-05 0.000403291)
(0.000154593 8.48225e-05 0.000364114)
(2.18293e-05 -0.000487463 0.000507549)
(3.27804e-05 -0.000514871 -8.68383e-05)
(-0.000494703 -2.90605e-05 -0.000125319)
(-0.000636138 0.000120173 0.000380554)
(-0.000105262 0.000181719 0.000496535)
(2.88329e-05 0.000225242 4.58993e-05)
(-0.000490175 0.000310863 0.00028764)
(0.000239651 -3.80122e-06 0.000388331)
(2.38903e-05 0.000218739 0.000354834)
(3.06422e-05 0.000253222 0.000277985)
(0.000267219 0.000604234 0.000121435)
(0.000203035 8.51951e-05 -4.82896e-05)
(0.000250194 0.000211515 0.000264829)
(-4.32901e-05 -1.83337e-05 -1.13369e-05)
(8.22561e-06 4.6969e-06 3.74983e-05)
(8.03864e-06 -1.97953e-05 -1.5195e-06)
(1.33739e-05 1.03317e-07 5.3729e-06)
(-3.19421e-06 4.42495e-05 -7.4759e-05)
(1.82735e-05 1.19716e-06 -9.87908e-05)
(-1.55471e-05 3.76835e-06 -8.0052e-05)
(-1.82164e-05 -4.46373e-05 -0.000118346)
(2.47703e-06 -4.90124e-05 7.90451e-06)
(-2.82567e-05 -8.79283e-06 1.25452e-05)
(-3.36388e-05 1.41982e-05 -8.24956e-05)
(3.86892e-05 -2.65403e-06 -9.40221e-05)
(1.49662e-05 -3.8205e-06 5.45582e-05)
(-3.35874e-05 4.15158e-06 -5.86396e-05)
(2.92738e-05 -4.44745e-05 -5.71696e-05)
(-2.69547e-05 -9.902e-06 -7.35548e-05)
(3.85462e-06 1.55829e-05 -7.88537e-05)
(1.86278e-05 3.96781e-05 -1.46985e-05)
(-1.42299e-06 -4.28179e-06 7.46306e-06)
(2.54703e-05 6.44698e-06 -6.21531e-05)
(1.84879e-05 9.01176e-06 -4.83228e-06)
(-6.56492e-06 4.04733e-07 1.7063e-05)
(-7.28606e-06 1.64967e-05 2.25384e-06)
(-1.06535e-05 2.55179e-06 -2.2267e-06)
(1.13262e-06 -2.22855e-05 -4.21378e-05)
(-9.47861e-06 3.96563e-06 -4.32528e-05)
(9.58405e-06 1.12255e-06 -4.24362e-05)
(7.61788e-06 2.29433e-05 -5.49296e-05)
(-2.89982e-06 2.53945e-05 3.93416e-06)
(1.54408e-05 4.86094e-06 1.04314e-05)
(1.60706e-05 -8.42721e-06 -4.98173e-05)
(-2.41769e-05 -1.09831e-06 -4.76108e-05)
(-1.08122e-05 3.0453e-06 3.93972e-05)
(1.87684e-05 -1.75843e-06 -3.20784e-05)
(-1.44477e-05 2.46131e-05 -3.43104e-05)
(1.37017e-05 6.50063e-06 -4.20659e-05)
(-4.73931e-06 -8.78548e-06 -4.51518e-05)
(-1.56325e-05 -2.03192e-05 -8.72457e-06)
(-4.46144e-06 1.99259e-06 2.06955e-06)
(-1.77831e-05 -4.72032e-06 -4.19122e-05)
(1.06752e-05 5.80695e-06 -3.40476e-06)
(-3.1804e-06 1.18005e-06 7.15415e-06)
(-4.60049e-06 9.9531e-06 -5.91211e-06)
(-6.25115e-06 2.65648e-06 2.52487e-06)
(1.56589e-06 -1.16031e-05 -1.47612e-05)
(-5.23377e-06 2.10793e-06 -2.00258e-05)
(4.86519e-06 3.89124e-07 -1.34977e-05)
(5.26564e-06 1.31216e-05 -2.05886e-05)
(-2.69341e-06 1.42117e-05 1.29379e-06)
(8.70696e-06 2.74031e-06 -2.93555e-06)
(9.45367e-06 -5.00038e-06 -1.21323e-05)
(-1.37676e-05 -6.0458e-07 -1.5752e-05)
(-5.12483e-06 2.13311e-06 6.91234e-06)
(1.09908e-05 -1.63598e-06 -8.94894e-06)
(-8.47239e-06 1.32513e-05 -8.01182e-06)
(9.01879e-06 3.50363e-06 -1.09368e-05)
(-2.06508e-06 -4.73028e-06 -1.2005e-05)
(-8.64073e-06 -1.08211e-05 -3.38872e-06)
(-1.36387e-06 2.05111e-06 2.14198e-06)
(-1.0519e-05 -2.78596e-06 -7.00054e-06)
(-3.74545e-07 -3.82258e-06 2.17888e-06)
(-1.24079e-06 -1.33169e-06 -2.46788e-07)
(-7.24688e-06 -1.46408e-06 -9.8675e-07)
(-6.78508e-07 8.44806e-06 2.37916e-07)
(-6.45661e-06 5.57881e-07 2.69443e-06)
(-4.92764e-06 2.9112e-06 3.82176e-06)
(-7.11768e-06 1.61902e-06 5.49524e-08)
(-1.81974e-06 4.26488e-07 -1.93853e-06)
(-4.60011e-06 1.21888e-06 1.34796e-06)
(-2.72296e-06 -2.97543e-06 1.93172e-06)
(1.44221e-06 -2.28793e-07 3.31812e-06)
(-1.94175e-07 2.23494e-06 -3.1958e-07)
(6.03761e-06 -3.32472e-06 3.50818e-06)
(3.2926e-06 8.26762e-06 3.15373e-06)
(6.01528e-06 -5.41424e-07 -3.27682e-06)
(1.39313e-06 -7.23926e-07 2.64422e-06)
(4.76361e-06 3.03139e-06 -4.99127e-07)
(-4.00965e-06 -5.21707e-07 1.19004e-06)
(-2.30191e-06 3.60528e-06 4.84908e-07)
(-1.63943e-06 -7.24423e-07 -8.43037e-07)
(-1.5088e-06 -5.26954e-06 -4.0459e-06)
(-4.11825e-06 2.73089e-06 -4.01604e-06)
(-3.50346e-07 1.18588e-06 -4.6731e-06)
(-6.13557e-08 7.54481e-06 -5.10243e-06)
(-1.55748e-06 7.37655e-06 5.63729e-07)
(2.30225e-06 9.27178e-07 1.50907e-06)
(3.00534e-06 -3.41728e-06 -4.90357e-06)
(-5.88896e-06 -3.20906e-07 -4.78584e-06)
(-4.15093e-06 5.69492e-07 3.26038e-06)
(3.76766e-06 5.50842e-07 -3.71111e-06)
(-4.84168e-06 6.0627e-06 -3.87569e-06)
(2.98539e-06 1.75997e-06 -5.013e-06)
(-2.53849e-06 -1.48649e-06 -5.31985e-06)
(-4.34397e-06 -5.72212e-06 -1.7033e-06)
(-3.46713e-06 -6.93822e-07 -5.75969e-07)
(-6.95499e-06 -1.8941e-06 -4.88379e-06)
(0.000290799 0.000297956 -2.21467e-05)
(-0.000256887 0.000207601 -4.92953e-05)
(0.000285837 1.32594e-05 -0.000185197)
(8.16748e-05 7.32467e-06 5.41628e-05)
(-7.0329e-05 -0.00011425 6.70846e-05)
(-0.000144105 0.000122325 3.02077e-05)
(-0.000722147 0.000187888 -0.000493227)
(-0.000662378 0.000528969 -8.10396e-05)
(-0.000656224 -2.87713e-05 2.18346e-05)
(-0.000663941 -1.43059e-05 -0.00015064)
(-0.000754927 -5.74808e-05 -0.00019768)
(-0.000238806 -0.000247382 -8.26263e-05)
(-0.000486378 0.00010335 -0.000314899)
(-0.000106219 -5.96897e-05 8.51507e-06)
(1.77274e-05 -0.000440373 -0.000212869)
(-0.000391176 -0.000570476 -0.000257693)
(-0.000421998 -0.000681766 -0.000109186)
(-0.000244803 -0.000255952 3.40157e-06)
(-0.000343237 -0.000410348 3.08299e-05)
(4.11976e-05 -0.000401272 -2.56615e-05)
(4.54651e-05 -0.000213545 -3.43054e-05)
(0.000232801 0.000292618 -5.35563e-06)
(0.000340362 0.000227439 -0.000217881)
(0.000242866 -7.63466e-05 -2.49995e-05)
(1.18813e-05 0.000386244 0.000226183)
(2.46957e-05 0.0002194 -3.79438e-05)
(0.000147772 0.000287362 -0.000144726)
(0.000100594 0.000250289 -0.000373347)
(3.25624e-05 3.12038e-05 1.36213e-05)
(-1.25554e-05 6.00122e-06 -1.21597e-05)
(2.38033e-05 4.74809e-07 2.63811e-05)
(2.5235e-05 -9.58221e-06 -6.2009e-05)
(-1.9747e-05 -1.67183e-05 -3.65342e-05)
(-3.39186e-05 2.35368e-05 1.84473e-05)
(-4.76207e-05 1.40064e-05 8.37037e-05)
(-5.71525e-05 5.22775e-05 2.79313e-05)
(-3.95913e-05 -8.0435e-06 -3.2953e-05)
(-6.63896e-05 -3.41709e-05 7.31528e-05)
(-7.75086e-05 8.47238e-06 8.58471e-05)
(-1.33047e-05 1.6185e-05 1.87088e-05)
(-1.23261e-05 2.09983e-05 2.21908e-05)
(1.6485e-05 1.14027e-06 -2.76787e-05)
(9.27667e-06 -2.76663e-05 3.27247e-05)
(2.07161e-06 -3.63944e-05 1.69829e-05)
(3.4003e-06 -6.33687e-05 4.61423e-05)
(-4.08869e-06 -1.11366e-06 1.35974e-05)
(3.48608e-06 -4.43129e-05 1.79165e-05)
(1.41272e-05 -3.81799e-05 4.47251e-05)
(1.24301e-05 -2.91692e-05 6.57333e-05)
(2.14412e-05 -3.69363e-05 2.64052e-06)
(1.99712e-05 1.28289e-05 -2.45401e-05)
(4.41697e-05 -2.43744e-06 3.85335e-05)
(1.95686e-06 -3.47023e-06 7.58211e-06)
(1.02839e-06 2.21061e-05 6.78025e-06)
(2.83394e-05 1.56512e-05 4.15218e-05)
(1.02386e-05 1.3101e-05 6.3118e-05)
(-2.34219e-05 -1.5621e-05 5.56939e-06)
(1.19737e-06 -2.81546e-06 -7.66086e-06)
(-1.79601e-05 1.66781e-06 6.51226e-06)
(-1.41681e-05 8.5808e-06 -3.71179e-05)
(1.1285e-05 8.54942e-06 -2.95622e-05)
(1.46708e-05 -1.33603e-05 1.62818e-05)
(2.20967e-05 -4.98292e-06 4.2455e-05)
(3.04739e-05 -2.15883e-05 1.48005e-05)
(2.27934e-05 9.08267e-06 -1.97895e-05)
(3.55929e-05 1.98892e-05 3.60324e-05)
(4.15526e-05 -5.41414e-06 5.64685e-05)
(7.24287e-06 -8.50132e-06 5.1277e-06)
(7.65851e-06 -1.17713e-05 1.33771e-05)
(-9.3839e-06 -2.8843e-06 -2.31174e-05)
(-6.24523e-06 1.41566e-05 1.59712e-05)
(-3.94848e-06 1.87994e-05 8.13822e-06)
(-6.5872e-06 3.41731e-05 2.5499e-05)
(1.13195e-06 1.21066e-06 7.45965e-06)
(-7.58444e-07 2.22292e-05 6.2913e-06)
(-8.70444e-06 2.0737e-05 2.5736e-05)
(-7.31732e-06 1.64899e-05 3.47557e-05)
(-1.15649e-05 2.06541e-05 2.77639e-06)
(-1.12785e-05 -5.56122e-06 -1.75437e-05)
(-2.36299e-05 -1.31731e-06 2.3293e-05)
(-3.81325e-06 -1.15838e-06 9.06583e-06)
(-4.47068e-06 -1.10616e-05 4.40684e-07)
(-1.68675e-05 -9.94935e-06 2.71357e-05)
(-9.70269e-06 -8.45665e-06 3.1533e-05)
(-1.21711e-05 -9.37146e-06 4.32344e-06)
(1.18739e-07 -1.48195e-06 -2.57018e-06)
(-9.53284e-06 1.18478e-06 5.90393e-06)
(-8.74e-06 4.87066e-06 -1.27442e-05)
(6.68524e-06 5.32415e-06 -3.09142e-06)
(9.83033e-06 -8.06571e-06 -3.03722e-06)
(1.17457e-05 -2.9409e-06 1.02862e-05)
(1.68706e-05 -1.24071e-05 5.30212e-06)
(1.09413e-05 3.67192e-06 -5.37997e-06)
(1.84344e-05 1.22911e-05 1.13696e-05)
(2.2842e-05 -2.041e-06 9.68233e-06)
(3.27312e-06 -5.2665e-06 5.40743e-06)
(3.36465e-06 -6.57662e-06 1.64036e-06)
(-6.04381e-06 -2.50461e-06 -2.64872e-06)
(-4.27027e-06 6.90368e-06 4.59045e-06)
(-1.97638e-06 1.04726e-05 1.82299e-06)
(-3.15532e-06 1.83327e-05 7.75677e-06)
(8.37793e-07 -1.3869e-07 5.90057e-06)
(-4.51998e-07 1.23703e-05 5.98759e-06)
(-4.76571e-06 1.13035e-05 7.30545e-06)
(-4.0701e-06 8.66369e-06 1.23939e-05)
(-6.71003e-06 1.21477e-05 1.05151e-06)
(-5.17334e-06 -3.38072e-06 -2.1699e-06)
(-1.35934e-05 -2.19401e-06 5.55083e-06)
(-2.63713e-06 5.04836e-07 -2.69524e-07)
(-2.26798e-06 -6.03142e-06 4.91727e-06)
(-1.07196e-05 -5.00075e-06 6.98937e-06)
(-4.48304e-06 -3.13488e-06 1.27336e-05)
(-8.48592e-06 -4.33101e-06 1.00594e-07)
(2.07377e-08 -1.42174e-06 -6.81905e-07)
(-7.03052e-06 4.11803e-07 5.37509e-07)
(-4.72494e-06 1.59914e-06 -2.72824e-06)
(1.75714e-06 2.83487e-06 -3.28734e-06)
(1.08626e-06 -1.79748e-06 2.26725e-06)
(8.59901e-06 2.39745e-07 5.2832e-06)
(1.06363e-05 -5.92887e-06 2.21702e-06)
(7.9397e-06 2.77744e-06 -1.16563e-06)
(1.06828e-05 4.48323e-06 3.03728e-06)
(1.12369e-05 1.18166e-08 6.47104e-06)
(3.14985e-06 -6.1175e-07 6.0363e-07)
(3.24881e-06 -3.58963e-06 1.69089e-06)
(-1.36696e-06 1.49669e-06 -2.19071e-06)
(-1.72987e-06 6.11247e-06 2.15712e-06)
(-1.47498e-06 5.52884e-06 2.74792e-07)
(-2.54453e-06 1.05927e-05 2.92663e-06)
(-1.06592e-06 2.18445e-06 9.57409e-07)
(5.44435e-07 7.50772e-06 1.21495e-06)
(-2.16641e-06 5.40761e-06 2.06542e-06)
(-2.34422e-06 4.83238e-06 3.74417e-06)
(-2.91945e-06 5.70255e-06 3.34489e-08)
(-2.70434e-06 -1.02165e-06 -2.46962e-06)
(-5.701e-06 9.38414e-07 2.42867e-06)
(-2.79436e-07 -1.47001e-06 4.28039e-07)
(-1.44893e-06 -3.33497e-06 1.94825e-07)
(-2.92065e-06 -1.9875e-06 2.94417e-06)
(-1.54237e-06 -2.95275e-06 3.22292e-06)
(-0.000276149 0.00030139 -0.00018935)
(-0.000174668 0.000141731 -6.60405e-05)
(5.44049e-05 0.00020617 -1.3113e-06)
(-0.000177495 -0.000161584 -7.05024e-05)
(-6.63848e-06 2.62844e-05 4.77568e-05)
(1.04307e-05 1.84606e-05 -1.03394e-05)
(3.90078e-05 1.54976e-05 -1.50429e-05)
(-3.34386e-06 -3.8664e-05 -1.20477e-05)
)
;

boundaryField
{
    top_fluid_surface
    {
        type            pressureInletOutletVelocity;
        value           nonuniform List<vector> 
64
(
(0 0 -2.4526e-05)
(0 0 -0.000119222)
(0 0 -7.71491e-05)
(0 0 -0.000128723)
(0 0 -3.75262e-07)
(0 0 -0.000103868)
(0 0 -4.26006e-05)
(0 0 -6.9504e-05)
(0 0 -0.000182464)
(0 0 -8.76309e-05)
(-0.000526546 0.000214092 0.000271738)
(-0.000164592 0.000241018 -3.38704e-07)
(-0.000541266 0.000197333 2.25718e-05)
(0 0 -0.00012952)
(-4.67304e-05 3.79026e-05 3.75034e-05)
(0 0 -9.3224e-05)
(0.000159891 0.000460627 0.000230293)
(0.000229385 -2.59091e-05 0.000403291)
(0.000154593 8.48225e-05 0.000364114)
(2.18293e-05 -0.000487463 0.000507549)
(0 0 -8.68383e-05)
(0 0 -0.000125319)
(-0.000636138 0.000120173 0.000380554)
(-0.000105262 0.000181719 0.000496535)
(2.88329e-05 0.000225242 4.58993e-05)
(-0.000490175 0.000310863 0.00028764)
(0.000239651 -3.80122e-06 0.000388331)
(2.38903e-05 0.000218739 0.000354834)
(3.06422e-05 0.000253222 0.000277985)
(0.000267219 0.000604234 0.000121435)
(0 0 -4.82896e-05)
(0.000250194 0.000211515 0.000264829)
(0 0 -2.21467e-05)
(0 0 -4.92953e-05)
(0 0 -0.000185197)
(8.16748e-05 7.32467e-06 5.41628e-05)
(-7.0329e-05 -0.00011425 6.70846e-05)
(-0.000144105 0.000122325 3.02077e-05)
(0 0 -0.000493227)
(0 0 -8.10396e-05)
(-0.000656224 -2.87713e-05 2.18346e-05)
(0 0 -0.00015064)
(0 0 -0.00019768)
(0 0 -8.26263e-05)
(0 0 -0.000314899)
(0 0 8.51507e-06)
(0 0 -0.000212869)
(0 0 -0.000257693)
(0 0 -0.000109186)
(-0.000244803 -0.000255952 3.40157e-06)
(-0.000343237 -0.000410348 3.08299e-05)
(0 0 -2.56615e-05)
(0 0 -3.43054e-05)
(0 0 -5.35563e-06)
(0 0 -0.000217881)
(0 0 -2.49995e-05)
(1.18813e-05 0.000386244 0.000226183)
(0 0 -3.79438e-05)
(0 0 -0.000144726)
(0 0 -0.000373347)
(0 0 -0.00018935)
(0 0 -6.60405e-05)
(0 0 -1.3113e-06)
(0 0 -7.05024e-05)
)
;
    }
    bottom_fluid_surface
    {
        type            noSlip;
    }
    lateral_surface_1
    {
        type            noSlip;
    }
    lateral_surface_2
    {
        type            noSlip;
    }
    lateral_surface_3
    {
        type            noSlip;
    }
    lateral_surface_4
    {
        type            noSlip;
    }
}


// ************************************************************************* //
