/*--------------------------------*- C++ -*----------------------------------*\
| =========                 |                                                 |
| \\      /  F ield         | OpenFOAM: The Open Source CFD Toolbox           |
|  \\    /   O peration     | Version:  v1612+                                |
|   \\  /    A nd           | Web:      www.OpenFOAM.com                      |
|    \\/     M anipulation  |                                                 |
\*---------------------------------------------------------------------------*/
FoamFile
{
    version     2.0;
    format      ascii;
    class       surfaceScalarField;
    location    "4.75";
    object      alphaPhi;
}
// * * * * * * * * * * * * * * * * * * * * * * * * * * * * * * * * * * * * * //

dimensions      [0 3 -1 0 0 0 0];

internalField   nonuniform List<scalar> 
2916
(
-6.18536e-06
0.0608761
-1.19301e-07
-5.03523e-06
0.0608769
-1.19154e-07
-1.00203e-06
0.0608769
-1.19201e-07
5.37987e-07
0.0608771
-1.19209e-07
1.65281e-06
0.0608769
-1.19156e-07
0.0608761
-1.19349e-07
-5.05187e-06
0.121833
-3.57924e-07
-4.8418e-06
0.121837
-3.57827e-07
-6.68497e-07
0.121836
-3.57879e-07
6.92604e-07
0.121836
-3.57866e-07
7.05467e-07
0.121837
-3.5779e-07
0.121834
-3.57954e-07
-2.20083e-06
0.177331
-4.27211e-07
-3.44799e-06
0.17734
-4.27014e-07
-3.47019e-07
0.177338
-4.27181e-07
-4.51174e-07
0.177338
-4.27207e-07
-2.20673e-06
0.177339
-4.27039e-07
0.177334
-4.26765e-07
2.13139e-06
0.152817
0.0318123
-9.27559e-07
0.152835
0.0318126
-1.04393e-06
0.152831
0.0318117
-2.8439e-06
0.15283
0.031813
-5.50427e-06
0.152834
0.0318126
0.152822
0.03181
2.46783e-06
-0.0845376
0.151643
-1.54798e-06
-0.0845077
0.151641
-3.74524e-06
-0.0845139
0.151641
-6.36394e-06
-0.0845135
0.151641
-9.17633e-06
-0.0845065
0.151639
-0.0845288
0.151637
1.7447e-05
-0.652739
0.361092
1.80876e-06
-0.652728
0.361126
-2.94954e-06
-0.652717
0.361109
-5.08981e-06
-0.652715
0.361106
-1.7807e-05
-0.652715
0.361117
-0.652737
0.361098
6.11086e-07
-1.2206
0.56755
1.59016e-05
-1.22063
0.567599
7.94821e-06
-1.22059
0.567583
-2.60632e-06
-1.22059
0.567582
-1.10196e-05
-1.2206
0.5676
-1.22062
0.567566
-1.68034e-05
-1.63466
0.413732
2.10115e-05
-1.63476
0.413767
1.47575e-05
-1.63467
0.413765
2.62837e-07
-1.63467
0.413767
-3.41112e-06
-1.6347
0.41378
-1.6347
0.413738
2.12504e-05
-1.6885
0.0532891
2.74869e-05
-1.68864
0.0533677
1.079e-05
-1.68855
0.0533724
-4.04185e-06
-1.68855
0.0533768
-1.81638e-05
-1.68859
0.0533947
-1.68854
0.0532946
0.000163943
-1.31386
-0.375465
2.84695e-05
-1.31402
-0.375158
-2.21809e-05
-1.31392
-0.375241
-2.38657e-05
-1.31394
-0.375271
-8.56768e-05
-1.314
-0.375192
-1.31388
-0.375403
0.000255058
-0.60391
-0.710849
7.96976e-06
-0.603956
-0.710461
-4.9608e-05
-0.603915
-0.710593
-3.94076e-05
-0.603942
-0.710651
-0.000162651
-0.603979
-0.710545
-0.603898
-0.71079
-3.60208e-05
-0.604016
-3.68966e-05
-0.6041
-1.73496e-05
-0.604078
-2.58347e-05
-0.604076
-5.74537e-05
-0.604091
-0.604098
-3.70477e-12
4.56805e-08
-2.90431e-07
-1.47026e-12
4.56778e-08
-2.90287e-07
2.57791e-13
4.56783e-08
-2.90336e-07
1.98548e-12
4.56782e-08
-2.90345e-07
4.16817e-12
4.56776e-08
-2.90292e-07
4.56813e-08
-2.90483e-07
-5.31332e-12
9.61334e-08
-5.33823e-07
-2.39685e-12
9.61276e-08
-5.33732e-07
4.60055e-13
9.6129e-08
-5.33786e-07
3.35056e-12
9.61281e-08
-5.33775e-07
6.26417e-12
9.61263e-08
-5.33698e-07
9.61356e-08
-5.33858e-07
-6.14074e-12
1.30989e-07
-5.86398e-07
-2.43545e-12
1.30965e-07
-5.86193e-07
-3.69545e-13
1.30977e-07
-5.86371e-07
3.07764e-12
1.30979e-07
-5.86404e-07
7.06941e-12
1.30966e-07
-5.86226e-07
1.30957e-07
-5.85919e-07
-6.03222e-08
0.0150631
-0.000141963
-5.65523e-08
0.0150639
-0.000141572
-4.67009e-08
0.0150629
-0.000141722
-1.64959e-08
0.0150632
-0.000141759
7.46324e-09
0.0150633
-0.000141631
0.0150618
-0.000141713
1.12786e-06
0.00379333
-0.00282016
-6.76598e-07
0.00381408
-0.00282019
-5.69148e-07
0.00380595
-0.00282007
-7.69321e-07
0.00380642
-0.00281975
-2.21613e-06
0.00381319
-0.00281966
0.00380022
-0.00281966
8.8237e-05
-0.347373
-0.0272182
-3.09912e-06
-0.347365
-0.0272284
-9.55202e-06
-0.34735
-0.0272255
2.96938e-07
-0.347339
-0.0272256
-5.40966e-05
-0.347334
-0.0272289
-0.347363
-0.0272245
5.91201e-05
-1.16135
0.339807
9.49017e-06
-1.16135
0.339921
5.96731e-07
-1.16133
0.339861
-4.94855e-06
-1.16132
0.33986
-5.31535e-05
-1.16131
0.339896
-1.16137
0.339823
7.13638e-05
-1.18611
0.43821
1.9433e-07
-1.18626
0.438542
-3.80676e-06
-1.18617
0.4384
7.71845e-06
-1.18616
0.43839
-4.00613e-05
-1.18619
0.438508
-1.18617
0.438286
0.00030379
-1.07424
-0.0589565
4.79317e-07
-1.07439
-0.0582523
-2.19612e-05
-1.0743
-0.0585404
3.32167e-05
-1.07432
-0.0585874
-0.000120007
-1.07436
-0.0583468
-1.07426
-0.0588028
0.000537488
-0.75134
-0.691531
1.24934e-05
-0.751053
-0.690781
-7.64354e-05
-0.751116
-0.691072
6.48506e-06
-0.751228
-0.691161
-0.00019339
-0.751195
-0.690918
-0.751173
-0.691383
0.000105923
-0.385314
-0.98205
-5.1446e-05
-0.384944
-0.981719
-7.38327e-05
-0.385038
-0.981868
-2.68525e-05
-0.385159
-0.981926
-1.42306e-05
-0.38514
-0.981798
-0.385086
-0.98211
-0.000337821
-0.925728
-8.92063e-05
-0.925812
-3.16983e-05
-0.92581
-2.7918e-05
-0.925851
0.000118559
-0.925873
-0.925875
-1.93874e-12
-7.51762e-08
-7.23087e-08
1.17968e-12
-7.51553e-08
-7.22528e-08
2.20685e-12
-7.51599e-08
-7.22699e-08
3.70066e-12
-7.51584e-08
-7.22758e-08
6.32538e-12
-7.51509e-08
-7.2254e-08
-7.5213e-08
-7.23256e-08
-2.29137e-11
2.43874e-07
-2.86597e-07
-7.02196e-13
2.436e-07
-2.86618e-07
6.08482e-12
2.43691e-07
-2.86651e-07
1.39394e-11
2.43718e-07
-2.86623e-07
3.60803e-11
2.43623e-07
-2.86668e-07
2.43597e-07
-2.86597e-07
-6.61524e-11
-2.85915e-07
-1.0978e-07
-1.94992e-11
-2.8618e-07
-1.09708e-07
-3.5585e-12
-2.86207e-07
-1.09737e-07
1.4625e-11
-2.86221e-07
-1.09733e-07
6.41914e-11
-2.86194e-07
-1.0972e-07
-2.85829e-07
-1.09787e-07
4.16414e-08
-0.000151961
1.51623e-06
6.10895e-09
-0.000151476
1.50827e-06
1.58682e-09
-0.000151665
1.51134e-06
6.21356e-09
-0.000151714
1.51289e-06
-9.34588e-09
-0.000151559
1.51004e-06
-0.000151669
1.51291e-06
8.57118e-07
-0.00378869
0.000367906
1.6114e-07
-0.00378528
0.000367052
-8.95286e-08
-0.00378634
0.000367318
1.40597e-08
-0.0037869
0.000367736
-1.45929e-07
-0.00378589
0.000367418
-0.00378652
0.000367565
2.30654e-05
-0.0594239
-0.00130091
-2.32017e-06
-0.059385
-0.00130994
-3.62622e-06
-0.0593984
-0.00130634
4.05386e-07
-0.0593859
-0.00130393
-1.39913e-05
-0.0593807
-0.00130714
-0.0593887
-0.00130398
0.000117512
-0.687532
-2.0942e-05
-1.22866e-06
-0.687583
-2.24326e-05
-1.13461e-05
-0.687554
-2.17996e-05
-2.8607e-06
-0.687545
-2.16352e-05
-7.74282e-05
-0.687565
-2.21623e-05
-0.687512
-2.13777e-05
0.000290725
-0.716348
-0.0811426
3.74186e-06
-0.716415
-0.0806957
-2.53106e-05
-0.716382
-0.0808927
2.01085e-05
-0.716402
-0.0809457
-0.000158512
-0.716424
-0.08077
-0.716362
-0.0810453
0.000124762
-0.46442
-0.205515
-3.55667e-06
-0.464045
-0.205458
-1.17093e-05
-0.464213
-0.205465
1.20552e-05
-0.464262
-0.205509
-7.47534e-05
-0.464153
-0.205464
-0.464341
-0.205523
-0.000539106
-0.143582
-0.240572
-2.30285e-05
-0.14288
-0.241161
5.95145e-05
-0.143232
-0.240885
-1.94094e-05
-0.143197
-0.240866
0.000238862
-0.14295
-0.241051
-0.143547
-0.240729
-0.000673635
-0.113556
-0.00590293
-4.80393e-05
-0.113016
-0.00593519
5.08108e-05
-0.113289
-0.00592154
-3.16494e-05
-0.113245
-0.00592665
0.00027254
-0.11307
-0.00592532
-0.113531
-0.00590214
-0.000186967
-0.0169751
-6.46748e-05
-0.0169876
-6.43656e-05
-0.0169863
9.31595e-06
-0.0169959
0.000193633
-0.0170277
-0.0169168
-1.3383e-12
-6.5267e-08
-9.52453e-09
1.54504e-13
-6.52449e-08
-9.51546e-09
3.14933e-13
-6.52445e-08
-9.51873e-09
6.17938e-13
-6.52635e-08
-9.51837e-09
2.01775e-12
-6.52274e-08
-9.51119e-09
-6.52732e-08
-9.5271e-09
-1.94963e-11
6.46353e-08
-1.62822e-07
3.16734e-12
6.46568e-08
-1.62868e-07
5.05219e-12
6.46705e-08
-1.62885e-07
2.66299e-12
6.46114e-08
-1.62798e-07
1.3852e-11
6.46903e-08
-1.62892e-07
6.46543e-08
-1.62806e-07
-3.8632e-12
7.70802e-07
-3.07072e-09
-3.31169e-13
7.71963e-07
-3.07258e-09
-2.58312e-13
7.71275e-07
-3.07219e-09
-1.14689e-12
7.69986e-07
-3.07252e-09
7.7643e-13
7.71059e-07
-3.07286e-09
7.7249e-07
-3.07189e-09
2.06356e-09
1.82886e-06
6.31305e-07
1.55602e-10
1.82595e-06
6.29161e-07
-2.13059e-10
1.82702e-06
6.29894e-07
4.67856e-11
1.82659e-06
6.30507e-07
-7.7459e-10
1.82609e-06
6.29687e-07
1.82861e-06
6.30491e-07
1.76124e-07
0.000295508
2.7278e-05
-1.52968e-08
0.000295142
2.73069e-05
-7.6463e-08
0.000295235
2.7297e-05
-1.39267e-08
0.0002955
2.72851e-05
-5.80655e-08
0.000295332
2.7297e-05
0.000295352
2.72656e-05
2.04149e-06
-0.0801839
0.00619583
-2.06436e-06
-0.0799428
0.00615211
-2.47779e-06
-0.0800456
0.00617171
4.20634e-07
-0.080106
0.0061816
-1.02448e-06
-0.0800102
0.00616423
-0.0801111
0.00618373
-6.16881e-05
-0.239926
-7.15912e-06
-1.84195e-05
-0.23994
-7.16459e-06
1.11987e-05
-0.239904
-7.15873e-06
9.30679e-06
-0.24001
-7.1582e-06
1.86777e-05
-0.240014
-7.16207e-06
-0.239947
-7.15364e-06
-0.00022921
-0.189529
-1.67619e-05
-1.28631e-05
-0.189405
-1.68215e-05
3.34422e-05
-0.189434
-1.68031e-05
4.2941e-06
-0.189534
-1.67849e-05
0.000100035
-0.189495
-1.68058e-05
-0.189524
-1.67838e-05
-0.000255599
-0.0150459
-0.000183348
-1.08004e-05
-0.0151512
-0.000183462
3.27202e-05
-0.0151004
-0.000183466
-7.19818e-06
-0.015102
-0.000183352
0.000110265
-0.0151292
-0.000183464
-0.0151089
-0.000183313
-2.48146e-05
0.00459479
-0.00239817
-6.62869e-07
0.00462493
-0.0024039
3.04199e-06
0.00460761
-0.00240175
-2.22099e-06
0.00461371
-0.00240056
9.52979e-06
0.00462219
-0.00240316
0.00460055
-0.00240008
-2.88153e-07
0.000143503
-0.0013541
9.01576e-09
0.000143286
-0.00135659
-8.46114e-09
0.000143569
-0.00135603
-7.19341e-08
0.000143771
-0.00135523
3.29905e-07
0.000143201
-0.0013566
0.000143248
-0.00135438
5.59276e-07
-0.0166385
7.06796e-08
-0.0166439
-5.9061e-08
-0.0166387
3.25852e-07
-0.0166516
2.86844e-07
-0.0166937
-0.0165939
6.31423e-11
-1.9428e-07
2.47836e-08
1.52421e-10
-1.99913e-07
2.51728e-08
1.50258e-10
-1.76882e-07
2.25847e-08
1.8874e-10
-1.91253e-07
2.38354e-08
5.20006e-10
-2.19228e-07
2.6477e-08
-1.32366e-07
1.71481e-08
4.61689e-09
-3.17011e-06
2.50348e-06
2.45208e-08
-3.22039e-06
2.5255e-06
8.8619e-09
-2.76916e-06
2.18846e-06
2.59264e-08
-2.95896e-06
2.3051e-06
1.15792e-07
-3.41345e-06
2.59731e-06
-1.78556e-06
1.46871e-06
3.30524e-07
-7.56817e-05
5.62601e-05
1.65774e-06
-7.7035e-05
5.64743e-05
1.06742e-06
-6.7034e-05
5.06355e-05
1.69752e-06
-7.07536e-05
5.22829e-05
5.32861e-06
-8.04509e-05
5.64246e-05
-6.1482e-05
5.50288e-05
1.1346e-05
-0.00118083
0.000763515
4.74833e-05
-0.00120415
0.000760672
3.80284e-05
-0.00106306
0.000707801
4.68706e-05
-0.00110702
0.000718014
9.27545e-05
-0.00121586
0.000742429
-0.000788681
0.000599648
8.15729e-05
-0.0547977
0.00359214
0.000269103
-0.0530892
0.00353097
0.000219536
-0.0489284
0.00344479
0.000223589
-0.0509717
0.00348202
0.000390334
-0.0558295
0.00348049
-0.0370917
0.00316659
0.000726373
-0.139481
-0.00475141
0.00106878
-0.138747
-0.00457947
0.00225625
-0.13967
-0.00465532
0.00156069
-0.142439
-0.00419441
-0.00140241
-0.154678
-0.00362679
-0.13475
-0.0041511
0.00220037
-0.180883
-0.0104698
0.00293234
-0.182489
-0.010258
0.00686248
-0.185655
-0.0108246
0.00501498
-0.184354
-0.00912291
-0.0059337
-0.19131
-0.00722641
-0.18647
-0.0111845
0.00255143
-0.201562
-0.0340531
0.00325438
-0.204465
-0.0331832
0.0083888
-0.2091
-0.0351398
0.0063894
-0.207879
-0.0265697
-0.00965319
-0.212088
-0.016249
-0.214901
-0.0365659
-4.1948e-05
-0.115183
-0.14288
-0.00021909
-0.116964
-0.145839
0.00241312
-0.11989
-0.150398
-0.000818255
-0.117471
-0.145636
-0.00574167
-0.121231
-0.145191
-0.123904
-0.156448
-0.000131809
0.0240281
-0.184438
7.07462e-05
0.0235506
-0.189188
0.00616762
0.0216965
-0.197004
-0.00122736
0.0239151
-0.178106
-0.0125784
0.0224456
-0.179623
0.0182619
-0.206388
0.000411184
0.00459512
-0.0153419
0.000852206
0.00461364
-0.0160427
0.00307243
0.00444683
-0.0240145
0.000673952
0.00448222
-0.0063221
-0.00444187
0.00423064
0.000217988
0.00600899
-0.034564
8.03842e-05
0.00390188
0.000209637
0.00382813
0.000477033
0.00347059
0.000189147
0.00398715
-0.000258501
0.0038685
0.00303426
3.38303e-12
2.3701e-10
1.23787e-08
1.71394e-11
-3.6559e-10
1.28111e-08
1.16478e-11
-2.00515e-10
1.15906e-08
2.72782e-11
-1.67462e-09
1.27654e-08
1.27817e-10
-2.80621e-09
1.43517e-08
-5.59094e-10
9.185e-09
-2.45189e-09
1.51218e-06
8.74765e-07
2.70168e-09
1.4853e-06
9.10539e-07
-7.80128e-09
1.25533e-06
8.30054e-07
6.31514e-09
1.2385e-06
9.29478e-07
5.42089e-08
1.36567e-06
1.03782e-06
7.4674e-07
6.75613e-07
-1.728e-07
-3.65851e-05
1.88637e-05
1.0971e-07
-4.36483e-05
1.96768e-05
-2.21657e-07
-7.25405e-06
1.69171e-05
1.81483e-07
-3.47976e-05
1.92666e-05
2.22046e-06
-6.81078e-05
2.20559e-05
4.11472e-05
1.2888e-05
-1.23121e-05
-0.0032352
0.000624421
-9.57456e-06
-0.00329154
0.000633128
-1.13378e-05
-0.00313233
0.000624742
-1.9384e-05
-0.00320463
0.000637248
-1.0219e-05
-0.00335978
0.000640328
-0.00278526
0.000616466
-3.44054e-05
-0.000163994
-0.000474021
-6.76288e-05
-0.000244969
-0.000468091
-7.05453e-05
-0.000304493
-0.000435345
-0.000101343
-0.000319304
-0.000440801
-0.000122325
-0.000530943
-0.000463298
-0.000701914
-0.000319838
4.91835e-07
-0.000241668
-1.33559e-07
-2.47324e-06
-0.000264148
-1.26774e-06
-9.40981e-06
-0.000269388
-2.36845e-06
-5.97549e-06
-0.000275725
-1.80231e-06
6.95243e-06
-0.000338691
-1.82514e-06
-0.000350408
-2.12997e-06
2.3158e-05
-0.0106876
-4.69844e-05
1.26834e-05
-0.0104627
-4.8875e-05
3.50569e-06
-0.0110352
-4.95976e-05
3.12658e-05
-0.0093849
-4.14135e-05
9.61928e-06
-0.00751643
-2.66537e-05
-0.0114753
-4.98305e-05
9.66913e-06
-0.0444952
-0.00137604
-5.90841e-05
-0.0436847
-0.0013612
-2.65783e-05
-0.0454385
-0.00139507
5.72552e-05
-0.0349482
-0.000964469
-7.78598e-05
-0.0208469
-0.000397188
-0.0469141
-0.00141548
2.55037e-06
-0.197485
-0.0468737
-0.000241703
-0.201643
-0.0478338
0.000391809
-0.20709
-0.0494921
0.000239164
-0.191496
-0.0431499
-0.00167102
-0.170599
-0.032249
-0.213696
-0.0518608
-0.000899898
-0.187753
-0.258318
-0.00311988
-0.190987
-0.262228
-0.00402055
-0.200396
-0.267246
-0.00260081
-0.174231
-0.262682
0.000465428
-0.16495
-0.254731
-0.209155
-0.278564
5.6514e-05
-0.00231782
-0.264471
-0.000857507
-0.00225622
-0.271188
-0.000866795
-0.00215252
-0.288881
0.000100375
-0.00221208
-0.238059
0.000615925
-0.00273137
-0.178963
-0.00575809
-0.308968
4.14679e-05
0.000872646
9.65751e-05
0.000793224
0.000144218
0.000471334
0.000148899
0.000943888
-0.000137595
0.000610987
-0.00368793
-6.79901e-13
5.95838e-09
7.53432e-10
-2.69502e-13
6.27155e-09
7.78158e-10
-3.92817e-13
5.69083e-09
7.03893e-10
5.61092e-13
6.53202e-09
7.7283e-10
6.51115e-12
7.37112e-09
8.66347e-10
4.62885e-09
5.50254e-10
-3.07937e-10
5.99557e-07
1.28289e-08
-1.88053e-10
6.30172e-07
1.29858e-08
-8.13179e-10
5.74857e-07
1.18411e-08
9.4261e-12
6.60543e-07
1.25714e-08
3.07978e-09
7.38308e-07
1.34262e-08
4.75359e-07
9.44248e-09
-5.27894e-08
-3.72482e-05
4.45786e-06
-2.8412e-08
-3.94306e-05
4.80794e-06
-1.17324e-07
-3.59742e-05
4.97109e-06
8.62625e-10
-4.26149e-05
6.12641e-06
3.39451e-07
-4.84168e-05
6.67035e-06
-2.66844e-05
3.6835e-06
-2.16949e-06
-3.34878e-05
8.9908e-06
-2.49881e-06
-3.70023e-05
9.10527e-06
-2.76824e-06
-3.67399e-05
9.21877e-06
-2.47563e-06
-4.23735e-05
9.21336e-06
-7.08632e-07
-4.83281e-05
9.28124e-06
-3.41326e-05
9.44899e-06
-1.86865e-06
-2.00398e-07
-7.16825e-06
-2.96912e-06
-2.21403e-07
-7.24807e-06
-2.22519e-06
-3.0556e-07
-6.59665e-06
-3.71399e-06
-2.20969e-07
-7.17062e-06
-5.50676e-06
-1.86485e-07
-7.36096e-06
-2.04497e-07
-4.44846e-06
-4.33081e-09
-6.54125e-07
-1.98443e-07
-4.89791e-09
-7.24683e-07
-2.16277e-07
-3.99464e-09
-7.23659e-07
-2.30989e-07
-8.70763e-09
-7.75449e-07
-2.43807e-07
-2.25863e-09
-5.89322e-07
-2.41064e-07
-1.12937e-06
-2.47748e-07
-2.91597e-08
-4.72291e-05
-3.70729e-07
-5.26557e-08
-4.91936e-05
-3.723e-07
-1.53341e-07
-4.98374e-05
-3.84508e-07
-8.47474e-08
-4.18908e-05
-3.59166e-07
1.08808e-07
-2.71371e-05
-2.98314e-07
-5.0472e-05
-4.119e-07
-7.38992e-07
-0.00142251
-1.25842e-08
-1.97491e-06
-0.00140914
-1.18421e-08
-5.78449e-06
-0.00144108
-1.27183e-08
-1.96184e-06
-0.00101016
-1.03754e-08
4.30669e-06
-0.000430583
-6.15066e-09
-0.00146163
-1.41496e-08
8.30065e-06
-0.0476908
-0.000588808
2.85124e-05
-0.0485955
-0.00064134
0.000115588
-0.0503469
-0.000649325
9.39004e-05
-0.0434802
-0.00063188
-0.00021705
-0.0316313
-0.00070732
-0.0527829
-0.00073305
-0.000613276
-0.243225
-0.0677123
-0.00184941
-0.249095
-0.0694146
-0.00414146
-0.255174
-0.0716918
-0.00128107
-0.24741
-0.0632907
0.000980148
-0.202698
-0.0446919
-0.264696
-0.0747355
-0.00156072
-0.0757222
-0.391747
-0.00791295
-0.0817649
-0.395886
-0.0247127
-0.100057
-0.394348
-0.0180473
-0.0513386
-0.405135
0.0322702
-0.000310887
-0.411498
-0.114839
-0.399972
-3.62891e-05
-0.181705
-0.00299552
-0.193586
-0.0123719
-0.220164
0.000654614
-0.152082
6.74011e-05
5.82356e-05
-0.246277
-2.43483e-14
1.25105e-11
1.32848e-11
-2.50183e-14
1.48235e-11
1.38996e-11
-2.83835e-14
1.16239e-11
1.24717e-11
-1.62083e-14
2.14819e-11
1.42198e-11
7.31993e-14
2.84076e-11
1.63374e-11
5.54941e-12
9.56696e-12
-6.0571e-12
1.65588e-09
1.1524e-09
-6.39753e-12
1.60495e-09
1.19725e-09
-1.24646e-11
1.46546e-09
1.09303e-09
-7.63944e-12
1.52865e-09
1.27245e-09
2.65499e-11
1.18891e-09
1.3892e-09
1.12857e-09
8.42708e-10
-1.52846e-09
6.52254e-07
1.73318e-08
-1.36469e-09
6.70967e-07
1.81515e-08
-3.93827e-09
6.27507e-07
1.64233e-08
-9.06733e-10
7.02443e-07
1.94909e-08
8.45024e-09
7.49229e-07
2.19862e-08
5.28063e-07
1.28061e-08
-6.66916e-08
8.03591e-06
3.34095e-07
-7.68545e-08
8.08968e-06
3.40529e-07
-1.24436e-07
8.01051e-06
3.16844e-07
-5.4296e-08
8.14472e-06
3.43946e-07
8.80661e-08
8.16037e-06
3.56507e-07
7.55183e-06
2.53533e-07
-3.19443e-08
1.80885e-06
-2.67426e-07
-6.18435e-08
1.78961e-06
-2.73735e-07
-2.84822e-08
2.24274e-06
-2.3929e-07
-6.14559e-08
1.89778e-06
-2.73603e-07
-1.4904e-07
1.80626e-06
-2.88799e-07
3.59427e-06
-1.38821e-07
-1.26319e-09
3.56329e-07
7.87379e-08
-3.35437e-09
3.57803e-07
7.83492e-08
1.56849e-10
3.71843e-07
8.41143e-08
-8.7377e-09
3.44815e-07
7.93695e-08
-2.47341e-08
2.91449e-07
7.82993e-08
4.15684e-07
9.87123e-08
4.08472e-11
1.45969e-08
-7.43043e-09
3.03859e-11
1.38779e-08
-7.27204e-09
1.43996e-10
1.49058e-08
-7.47743e-09
-4.64475e-11
1.2981e-08
-7.4241e-09
-3.66443e-10
1.15743e-08
-6.8501e-09
1.69117e-08
-7.96009e-09
-2.07546e-12
2.16209e-09
-3.55313e-10
-4.67464e-12
2.16798e-09
-3.38247e-10
-7.37935e-12
2.32922e-09
-3.50128e-10
-1.09272e-11
2.71247e-09
-3.15094e-10
-1.37691e-12
5.46588e-09
-2.46721e-10
2.91161e-09
-3.69052e-10
-1.06639e-07
-0.0005887
2.5856e-10
-9.96962e-08
-0.000641347
1.2085e-10
-8.83965e-08
-0.000649336
1.46414e-10
-2.91624e-07
-0.000631677
1.56082e-10
-1.8512e-07
-0.000707424
-3.85512e-11
-0.000733233
1.50537e-10
-4.28137e-05
-0.066487
-0.00174686
-8.23609e-05
-0.0682225
-0.00176807
-6.14066e-05
-0.0705528
-0.00178583
3.17188e-05
-0.0623094
-0.00168012
-2.71603e-05
-0.0440575
-0.0012666
-0.0736402
-0.00183323
-0.0011098
-0.293495
-0.117516
-0.00685011
-0.295663
-0.118535
-0.0177216
-0.297032
-0.118843
-0.00721936
-0.314079
-0.120292
0.0131849
-0.297316
-0.112144
-0.308601
-0.120585
-0.00346564
-0.407412
-0.0221551
-0.4065
-0.0702234
-0.405211
-0.0749279
-0.397539
0.0919033
-0.399721
-0.398363
3.21063e-13
-2.7245e-10
-2.65781e-08
7.35766e-14
-2.71563e-10
-2.65365e-08
-4.96499e-14
-2.71866e-10
-2.65488e-08
-1.62207e-13
-2.71798e-10
-2.65475e-08
-4.07106e-13
-2.71167e-10
-2.65225e-08
-2.72629e-10
-2.65857e-08
1.31643e-15
1.04357e-17
-1.60792e-13
3.77741e-16
1.14799e-17
-1.60689e-13
-2.4353e-16
1.17944e-17
-1.60706e-13
-7.70761e-16
1.15218e-17
-1.60839e-13
-1.86263e-15
1.14527e-17
-1.60752e-13
1.17306e-17
-1.60839e-13
-1.46047e-21
-1.03184e-17
-4.54827e-22
-1.02992e-17
1.55004e-22
-1.03045e-17
7.38494e-22
-1.0317e-17
1.97605e-21
-1.03069e-17
-1.03245e-17
-4.25029e-12
-1.08158e-10
3.81733e-10
-1.87086e-12
-1.08113e-10
3.81045e-10
-4.40256e-12
-1.08117e-10
3.81649e-10
-7.10487e-12
-1.08208e-10
3.87581e-10
-6.86314e-12
-1.08164e-10
3.87463e-10
-1.0818e-10
3.81127e-10
-2.18848e-17
-1.44958e-14
-1.08308e-10
-1.78254e-17
-1.44993e-14
-1.08263e-10
-4.2289e-17
-1.4502e-14
-1.08268e-10
-5.69696e-17
-1.45162e-14
-1.08359e-10
-5.6483e-17
-1.45089e-14
-1.08315e-10
-1.45012e-14
-1.08331e-10
7.01507e-21
-1.46513e-14
1.28077e-21
-1.46544e-14
-2.90181e-21
-1.46573e-14
-5.66529e-21
-1.46714e-14
-1.22932e-20
-1.46641e-14
-1.46567e-14
-4.4369e-13
-7.63592e-11
-4.07783e-09
-1.18606e-13
-7.63288e-11
-4.08229e-09
-1.24796e-13
-7.63572e-11
-4.08023e-09
-1.61413e-13
-7.63757e-11
-4.07588e-09
5.16695e-14
-7.63179e-11
-4.07672e-09
-7.64023e-11
-4.08123e-09
-2.93465e-14
2.05751e-11
-2.1602e-10
-6.94565e-15
2.05706e-11
-2.15979e-10
-9.75001e-15
2.05657e-11
-2.15985e-10
-1.09734e-14
2.05829e-11
-2.16125e-10
4.26291e-15
2.05786e-11
-2.16026e-10
2.05822e-11
-2.16124e-10
-4.99871e-18
-7.29742e-12
-9.18497e-18
-7.30463e-12
-2.4865e-17
-7.29865e-12
-2.62867e-17
-7.30542e-12
-3.23338e-17
-7.30678e-12
-7.30468e-12
1.90624e-11
4.13382e-08
1.80377e-07
5.78833e-12
4.13193e-08
1.78974e-07
-9.24672e-12
4.13171e-08
1.79543e-07
-6.02097e-12
4.13584e-08
1.79965e-07
-7.14437e-12
4.13432e-08
1.79416e-07
4.1354e-08
1.80011e-07
-4.31343e-12
3.49595e-09
-2.6548e-08
-3.6521e-13
3.4945e-09
-2.66057e-08
-7.16086e-13
3.49437e-09
-2.65705e-08
-7.389e-13
3.49743e-09
-2.65939e-08
1.74364e-12
3.49614e-09
-2.66127e-08
3.49702e-09
-2.65786e-08
-2.56178e-14
-1.30987e-09
-8.88278e-15
-1.31255e-09
-1.72149e-14
-1.31085e-09
-1.30222e-14
-1.31206e-09
-2.91346e-15
-1.31283e-09
-1.31128e-09
2.65971e-08
6.52198e-06
1.43273e-05
1.49264e-09
6.50647e-06
1.44092e-05
-4.53254e-09
6.51265e-06
1.438e-05
1.8994e-09
6.51813e-06
1.43506e-05
-1.08192e-08
6.51219e-06
1.43805e-05
6.51601e-06
1.43321e-05
1.58831e-09
2.53506e-07
6.11101e-06
1.07416e-10
2.53206e-07
6.09882e-06
-2.26488e-10
2.53303e-07
6.10351e-06
9.95656e-11
2.53469e-07
6.10833e-06
-8.81552e-10
2.53371e-07
6.1031e-06
2.53439e-07
6.10573e-06
1.46747e-11
2.06028e-07
7.14981e-13
2.05864e-07
-2.20939e-12
2.0591e-07
1.10752e-12
2.06028e-07
-1.02888e-11
2.05976e-07
2.05982e-07
-5.39811e-07
6.29789e-05
-2.63961e-06
-7.27686e-08
6.30554e-05
-2.63314e-06
-3.81522e-08
6.3015e-05
-2.63573e-06
-1.62942e-07
6.3031e-05
-2.63771e-06
1.64921e-07
6.30543e-05
-2.63551e-06
6.30102e-05
-2.63915e-06
-6.00217e-08
1.7581e-05
3.77352e-05
-1.55415e-08
1.75655e-05
3.77407e-05
-1.56117e-08
1.75701e-05
3.77351e-05
-3.28e-08
1.75837e-05
3.77487e-05
-8.84118e-09
1.75769e-05
3.77451e-05
1.75803e-05
3.77039e-05
-9.67234e-10
6.15682e-06
-6.01159e-10
6.15366e-06
-5.81339e-10
6.15427e-06
-1.14968e-09
6.15829e-06
-1.22213e-09
6.15698e-06
6.15469e-06
-4.65125e-10
-2.82447e-06
-7.76785e-06
-3.03685e-10
-2.8289e-06
-7.76412e-06
-1.55313e-10
-2.82585e-06
-7.76606e-06
-8.74648e-10
-2.82666e-06
-7.76639e-06
-9.4853e-10
-2.8296e-06
-7.76591e-06
-2.82321e-06
-7.76853e-06
2.13895e-09
1.62208e-05
-2.12026e-06
-1.42094e-09
1.62372e-05
-2.09269e-06
-2.65714e-09
1.62265e-05
-2.10428e-06
-2.50441e-09
1.62307e-05
-2.11576e-06
-2.85171e-09
1.62414e-05
-2.09524e-06
1.62216e-05
-2.13727e-06
-1.55954e-10
6.74398e-06
-2.16549e-10
6.78158e-06
-2.55078e-10
6.76482e-06
-4.0338e-10
6.76164e-06
5.00295e-10
6.76616e-06
6.73529e-06
7.87429e-10
-8.0627e-06
-1.72638e-05
-3.16929e-10
-8.12159e-06
-1.72564e-05
-5.80064e-10
-8.10023e-06
-1.72638e-05
-1.03584e-09
-8.09113e-06
-1.7257e-05
-1.7959e-09
-8.10686e-06
-1.7262e-05
-8.09189e-06
-1.72602e-05
2.07265e-08
-8.55465e-08
-8.29435e-06
1.17584e-10
-7.82381e-08
-8.29819e-06
-2.17604e-09
-8.20157e-08
-8.29527e-06
6.43178e-10
-8.27633e-08
-8.35403e-06
-8.65672e-09
-8.13614e-08
-8.32173e-06
-8.87503e-08
-8.36168e-06
2.31393e-09
4.51817e-06
7.29054e-10
4.53165e-06
5.1385e-10
4.52548e-06
4.95384e-10
4.52442e-06
1.5606e-09
4.5252e-06
4.51305e-06
1.94116e-09
-2.32635e-05
-0.000178367
-6.37836e-10
-2.3368e-05
-0.000178364
-7.85052e-10
-2.3323e-05
-0.000178419
-1.98969e-09
-2.33102e-05
-0.000178312
-4.37852e-09
-2.33314e-05
-0.000178409
-2.32455e-05
-0.000178351
1.40492e-08
-8.30965e-06
-1.0059e-07
4.2821e-10
-8.3683e-06
-1.00629e-07
-1.21631e-09
-8.34318e-06
-1.00689e-07
-4.87771e-10
-8.3377e-06
-1.00654e-07
-8.34974e-09
-8.33974e-06
-1.00547e-07
-8.28044e-06
-1.00519e-07
-4.92763e-11
3.48648e-07
1.32668e-10
3.50681e-07
2.28686e-10
3.49797e-07
2.23191e-10
3.49566e-07
4.27717e-10
3.49467e-07
3.47202e-07
4.89855e-08
-2.03295e-08
-0.00257655
-1.28673e-08
-2.08132e-08
-0.00258216
-1.22344e-08
-2.04498e-08
-0.00258012
-8.94529e-09
-2.04988e-08
-0.00257883
-6.21208e-08
-2.0657e-08
-0.00258147
-2.02856e-08
-0.00257845
5.62397e-12
-3.29418e-08
-7.61498e-08
-3.65775e-13
-3.339e-08
-7.62127e-08
-6.10134e-13
-3.31944e-08
-7.61918e-08
-5.11779e-14
-3.3166e-08
-7.62455e-08
-2.09816e-12
-3.31638e-08
-7.63228e-08
-3.28002e-08
-7.62912e-08
-1.24402e-12
3.15946e-07
1.05185e-12
3.17606e-07
9.98008e-13
3.16895e-07
2.00322e-12
3.16678e-07
6.78109e-12
3.16567e-07
3.14721e-07
6.00623e-07
-1.65655e-05
-0.00391424
-3.73197e-08
-1.65702e-05
-0.00392109
-1.41069e-08
-1.65689e-05
-0.00391915
1.92668e-07
-1.65703e-05
-0.00391725
1.61516e-07
-1.65733e-05
-0.00392102
-1.65681e-05
-0.00391565
4.23219e-12
-1.65949e-05
-2.17176e-08
3.82843e-11
-1.65992e-05
-2.16363e-08
1.38935e-10
-1.65981e-05
-2.17066e-08
7.92053e-11
-1.65996e-05
-2.16153e-08
-1.11524e-10
-1.66028e-05
-2.15433e-08
-1.65972e-05
-2.19158e-08
-3.78031e-10
1.48837e-06
1.98383e-10
1.48543e-06
-6.70381e-10
1.48706e-06
7.17845e-10
1.4852e-06
3.49787e-09
1.48123e-06
1.4917e-06
-3.96252e-06
-5.54686e-06
-0.0907398
-9.36816e-06
-5.52116e-06
-0.0907365
-2.03499e-05
-5.53268e-06
-0.0907517
-2.9482e-06
-5.52171e-06
-0.0907723
4.02162e-05
-5.50769e-06
-0.0908339
-5.57648e-06
-0.0907069
4.21533e-12
-5.5698e-06
1.47823e-17
1.04613e-12
-5.544e-06
1.93685e-17
3.98127e-11
-5.55564e-06
8.01879e-16
-5.95906e-12
-5.5445e-06
3.05624e-15
-1.31271e-10
-5.53032e-06
1.05805e-18
-5.59976e-06
3.35043e-18
5.39757e-10
5.95683e-27
5.60883e-10
9.37212e-27
9.20519e-10
8.16795e-27
2.83463e-10
2.62155e-26
-2.2774e-09
4.12505e-26
3.16436e-26
-0.000265287
-0.000151402
-0.333583
0.410927
-0.000355156
-0.000188562
-0.333642
0.410856
-0.000978942
-0.000207305
-0.333714
0.411528
-0.000441997
-6.63829e-05
-0.333582
0.410167
0.00123528
-2.59468e-07
-0.333215
0.408773
-0.000299235
-0.333819
0.412418
-4.59816e-08
2.32253e-26
-0.000156035
4.67876e-06
-2.05155e-09
1.89655e-26
-0.000194352
5.74639e-06
9.51591e-08
8.72166e-26
-0.000213705
6.30294e-06
-2.72807e-11
-1.08891e-16
-6.83189e-05
2.03113e-06
-2.67421e-07
-2.29265e-14
-5.81131e-12
7.93224e-09
4.26782e-26
-0.000308479
8.97655e-06
1.53948e-28
4.89515e-25
-1.77405e-26
4.43556e-28
2.07022e-25
-1.41356e-26
-1.12754e-28
9.5605e-25
-6.50163e-26
-1.34094e-16
3.56394e-25
2.52027e-17
7.00353e-28
2.51636e-25
1.40968e-14
3.63856e-25
-3.14416e-26
-3.1314e-05
-0.000350006
-0.25596
-9.43003e-05
-0.000261967
-0.256006
-0.000152248
-0.000241318
-0.256018
2.93966e-05
-0.000305575
-0.255928
0.000359455
-2.04481e-10
-0.255995
-7.85871e-05
-0.256008
-4.71632e-07
8.34539e-25
6.92042e-14
-3.2829e-07
3.57368e-25
5.58834e-14
-3.10066e-08
1.65695e-24
1.05173e-13
3.5109e-13
6.04984e-25
9.18178e-15
-2.1058e-10
4.2565e-25
6.39176e-13
6.3367e-25
2.88217e-15
1.75791e-27
-4.39921e-26
7.75063e-27
-1.92023e-26
4.97361e-27
-9.00502e-26
2.77666e-27
-3.33338e-26
2.15679e-28
-2.33091e-26
-3.55599e-26
-5.49662e-05
2.46389e-14
-0.177511
-0.000141251
1.98765e-14
-0.177514
-0.000301387
3.71454e-14
-0.177434
-1.93071e-05
3.34039e-15
-0.177746
0.000591112
2.36561e-13
-0.178007
1.00786e-15
-0.17692
5.67262e-17
1.60692e-24
2.84725e-18
4.92079e-16
1.52325e-24
4.18638e-18
1.14542e-16
1.59683e-24
1.98473e-16
9.87031e-16
1.40438e-24
7.19713e-16
-1.7175e-14
2.77194e-24
2.66608e-24
8.87765e-25
2.06431e-24
1.50831e-27
-2.88575e-25
2.74163e-27
-2.7536e-25
5.52998e-27
-2.88394e-25
2.68225e-27
-2.54674e-25
-1.1652e-26
-4.9819e-25
-1.64624e-25
-6.75974e-05
2.37359e-18
-0.0508908
-0.000125488
3.49334e-18
-0.0509016
-0.000125559
1.6557e-16
-0.0509121
1.44861e-05
6.03264e-16
-0.0509318
0.000254052
2.24982e-24
-0.0510879
1.71273e-24
-0.0507743
2.77739e-20
4.20952e-24
7.95132e-18
1.4345e-18
5.24999e-24
1.13207e-17
1.51446e-17
5.70704e-24
5.25047e-16
1.44664e-26
5.7281e-24
1.83478e-15
-1.14147e-25
5.51253e-24
1.10305e-25
4.12894e-24
1.20892e-25
2.86996e-27
-1.38119e-24
7.21841e-28
-1.71661e-24
1.28032e-27
-1.88325e-24
2.40585e-27
-1.85399e-24
-3.00546e-27
-1.74312e-24
-1.39674e-24
-8.43061e-05
1.14699e-16
0.0350272
-0.000137463
1.62411e-16
0.0350489
-0.000286848
7.50084e-15
0.0350501
-2.52512e-06
2.88314e-14
0.0351
0.000628197
1.99322e-24
0.0351262
1.56663e-24
0.0350488
4.92788e-19
7.14061e-25
-8.03848e-17
2.88868e-17
1.06629e-24
-1.13817e-16
3.43356e-16
9.74594e-25
-5.27155e-15
4.69677e-27
2.61689e-24
-2.01568e-14
-5.81549e-26
3.97917e-24
-1.39243e-24
3.02669e-24
-1.1067e-24
3.37777e-28
-4.07668e-25
3.32645e-30
-6.07155e-25
9.50758e-28
-5.57875e-25
8.96891e-28
-1.48254e-24
-4.26181e-27
-2.22365e-24
-1.75668e-24
-4.26563e-05
5.58082e-17
-8.55243e-05
7.31517e-17
-0.000186887
3.01947e-15
-1.38705e-05
1.15675e-14
0.000407516
4.01507e-18
1.25635e-17
4.5347e-20
1.3347e-25
1.54284e-18
2.09376e-25
1.51058e-17
1.82643e-25
1.83789e-21
5.83978e-25
-1.28358e-20
9.11585e-25
7.11753e-25
-7.14437e-30
-3.48803e-29
-1.10525e-28
-3.73606e-29
8.00987e-28
-4.44562e-16
3.05339e-13
1.68046e-12
-5.65226e-16
3.00316e-13
1.81961e-12
-6.41501e-16
2.88658e-13
1.48664e-12
-5.04454e-16
2.78431e-13
2.02382e-12
5.23918e-16
2.69617e-13
2.5096e-12
2.27273e-13
8.85213e-13
-9.52754e-18
1.56625e-13
5.58902e-15
-1.27899e-17
1.51466e-13
5.93603e-15
-1.49801e-17
1.49554e-13
5.09629e-15
-1.09792e-17
1.35652e-13
6.31e-15
3.28548e-18
1.20119e-13
7.62226e-15
1.1848e-13
3.5324e-15
-2.93786e-19
2.51771e-16
-4.51748e-19
2.51984e-16
-4.85727e-19
2.40919e-16
-3.45371e-19
2.3825e-16
-3.95351e-20
2.13916e-16
1.90477e-16
-1.14908e-13
1.07858e-11
1.12824e-09
-1.37181e-13
1.10234e-11
1.17218e-09
-1.81919e-13
1.04317e-11
1.06966e-09
-1.53399e-13
1.13161e-11
1.24704e-09
1.46607e-13
1.19749e-11
1.36079e-09
8.92894e-12
8.23777e-10
-1.12198e-15