/*--------------------------------*- C++ -*----------------------------------*\
| =========                 |                                                 |
| \\      /  F ield         | OpenFOAM: The Open Source CFD Toolbox           |
|  \\    /   O peration     | Version:  v1612+                                |
|   \\  /    A nd           | Web:      www.OpenFOAM.com                      |
|    \\/     M anipulation  |                                                 |
\*---------------------------------------------------------------------------*/
FoamFile
{
    version     2.0;
    format      ascii;
    class       volScalarField;
    location    "4.75";
    object      p_rgh;
}
// * * * * * * * * * * * * * * * * * * * * * * * * * * * * * * * * * * * * * //

dimensions      [1 -1 -2 0 0 0 0];

internalField   nonuniform List<scalar> 
1116
(
3924.17
3924.16
3924.17
3924.15
3924.16
3924.2
3994.92
3994.91
3994.92
3994.9
3994.91
3994.96
4216.95
4216.94
4216.94
4216.93
4216.94
4216.99
4987.8
4987.78
4987.78
4987.77
4987.79
4987.83
7334.85
7334.77
7334.79
7334.8
7334.8
7334.87
12295.6
12295.5
12295.5
12295.5
12295.4
12295.5
18174.1
18174.1
18174
18174
18174
18174
22032.7
22032.8
22032.8
22032.8
22032.8
22032.7
23984
23984.3
23984.2
23984.2
23984.2
23984.1
25545.3
25545.4
25545.4
25545.4
25545.4
25545.3
27489.3
27488.8
27489
27489
27488.9
27489.3
27489.4
27489.4
27489.5
27489.5
27489.5
27489.7
40.8051
40.8053
40.8053
40.8053
40.8053
40.805
48.593
48.5931
48.593
48.5928
48.5926
48.5923
80.4966
80.4964
80.4962
80.4959
80.496
80.4964
163.457
163.454
163.45
163.453
163.454
163.453
684.661
684.464
684.526
684.545
684.491
684.576
4736.35
4736.34
4736.26
4736.15
4736.18
4736.15
15230
15230
15229.8
15229.8
15229.7
15229.8
21819.6
21819.3
21819.5
21819.5
21819.4
21819.5
22685.9
22685.1
22685.8
22685.8
22685.4
22685.8
24360.9
24360.2
24360.6
24360.5
24360.4
24360.7
24961.3
24960.5
24960.9
24960.8
24960.4
24961.5
24899.4
24899.1
24899.3
24899.3
24899.2
24899.8
55.3845
55.3843
55.3842
55.3842
55.3842
55.3841
57.685
57.685
57.6848
57.6847
57.6845
57.6841
68.2436
68.2437
68.2436
68.2435
68.2435
68.2432
86.6589
86.6556
86.6553
86.6547
86.6543
86.6549
90.7278
90.727
90.7261
90.7273
90.7305
90.7278
276.515
276.401
276.441
276.435
276.412
276.466
6114.56
6114.98
6114.58
6114.32
6114.64
6113.99
17498.2
17503.6
17501
17500.8
17502.5
17499.2
20209.4
20218.6
20214.3
20214.1
20217
20211.8
17199.5
17213.6
17207.5
17206.4
17210.4
17203.9
12653.3
12660.3
12657.7
12656.1
12656.9
12657.8
13404.6
13397.7
13401.5
13400.6
13396.8
13407.6
39.6963
39.6965
39.6965
39.6966
39.6968
39.6966
45.1805
45.1808
45.1808
45.1808
45.181
45.1809
55.7536
55.753
55.7532
55.7532
55.7531
55.7534
68.7102
68.7029
68.7052
68.7056
68.7033
68.706
73.855
73.8531
73.8532
73.8555
73.8573
73.8574
226.02
225.223
225.559
225.727
225.434
225.775
2375.22
2373.69
2374.08
2375.32
2374.71
2374.76
3695.93
3697.85
3696.42
3697.83
3698.58
3696.52
2924.66
2928.76
2926.47
2927.26
2928.68
2926.08
97.0097
98.8517
97.9596
98.0019
98.4979
97.8328
-0.967052
-0.961726
-0.960809
-0.958502
-0.958845
-0.991807
97.1286
97.0761
97.1012
97.0522
97.0084
97.1512
67.3476
67.339
67.2986
67.2627
67.2485
67.0783
72.1027
72.1387
72.0268
71.9764
72.0123
71.5793
78.6478
78.7712
78.5586
78.4889
78.5849
77.9276
82.9739
83.1921
82.7515
82.6749
82.9017
81.4976
103.564
103.548
99.6553
101.227
104.046
90.6591
195.026
196.142
193.828
197.721
203.788
184.62
341.654
343.003
345.917
338.164
324.905
355.832
1134.86
1123.31
1110.93
1064.47
979.563
1091.85
2804.17
2801.94
2814.2
2806.3
2797.66
2822.12
2170.58
2158.21
2194.26
2081.31
2032.36
2240.86
1124.24
1121.22
1123.85
1108.67
1091.97
1130.86
1053.92
1053.22
1051.88
1048.04
1045.68
1052.56
58.1955
58.2014
58.1848
58.1801
58.2028
58.0628
58.8361
58.8997
58.8367
58.8795
59.0142
58.5975
51.8348
51.9734
51.9368
52.0207
52.2212
51.9267
3.11289
3.3492
3.39845
3.96244
4.52365
4.02755
-114.722
-114.094
-113.388
-111.985
-110.357
-109.181
-142.874
-142.622
-142.692
-142.051
-142.178
-142.296
-71.3208
-72.5438
-73.7478
-75.5753
-79.1847
-76.1994
85.8141
79.7262
80.1312
61.2821
39.0144
76.3382
882.39
885.629
904.079
802.877
702.31
929.893
1444.19
1457.92
1487.08
1409.08
1391.76
1555.37
1432.08
1439.18
1523.43
1226.38
928.92
1593.05
880.634
878.943
876.071
874.018
861.092
867.752
40.6306
40.637
40.6382
40.6408
40.665
40.6157
36.4021
36.4332
36.4328
36.4712
36.5637
36.4109
22.6558
22.7494
22.7922
22.9074
23.06
22.9166
-21.6689
-21.5623
-21.3204
-21.1326
-21.0131
-20.611
-83.8096
-83.7555
-83.4267
-83.3818
-83.2922
-82.7683
-89.0905
-89.1863
-89.2327
-88.4016
-87.0788
-88.7629
-52.323
-52.3901
-52.4698
-51.7998
-50.6386
-52.8863
-20.0056
-20.1089
-20.0584
-19.6216
-18.6995
-20.1712
0.36653
-0.537794
-1.22497
-3.728
-8.30655
-3.56009
1385.29
1401.09
1461.72
1245.85
746.885
1507.79
3111.08
3146.28
3165.41
3170.43
3299.92
3241.88
1709.83
1802.74
2116.69
1265.01
842.609
2353.06
25.2532
25.2527
25.2501
25.2457
25.2493
25.2416
20.259
20.2485
20.2367
20.2006
20.1882
20.2307
8.90953
8.96324
9.00601
9.10913
9.20951
9.06876
-18.6654
-18.6602
-18.5801
-18.5669
-18.5278
-18.3027
-54.3265
-54.462
-54.3403
-54.4733
-54.4549
-53.9367
-69.2541
-69.4945
-69.4507
-69.603
-69.5464
-69.3649
-40.5804
-40.6583
-40.6971
-40.7095
-40.7291
-40.8572
-18.2891
-18.2659
-18.1894
-17.9867
-17.6255
-18.1076
-13.2593
-13.277
-13.2891
-13.2642
-13.2883
-13.3579
6.07622
6.68221
7.10612
4.49572
2.11363
7.11255
3708.62
3760.62
3796.76
3772.12
3520.73
3864.9
5971.88
6005.74
6066.93
6159.66
6914.54
6228.6
33.6409
33.6408
33.6409
33.641
33.6411
33.6414
17.5937
17.594
17.5942
17.5942
17.5941
17.5939
7.30279
7.30266
7.30262
7.30261
7.30263
7.30285
34.8351
34.8354
34.8356
34.8357
34.8359
34.836
18.1919
18.1932
18.1935
18.1937
18.1936
18.1926
7.50349
7.50276
7.50262
7.50264
7.50274
7.50361
37.0531
37.0522
37.0522
37.0524
37.0523
37.0528
19.8228
19.8234
19.8233
19.8234
19.8234
19.8231
6.01195
6.01202
6.012
6.01205
6.012
6.01197
34.4004
34.3978
34.3978
34.3985
34.3983
34.3993
17.3007
17.3046
17.303
17.303
17.3041
17.3021
5.74346
5.74443
5.744
5.74396
5.74397
5.74339
47.6748
47.6642
47.6693
47.6739
47.6709
47.6768
16.862
16.8625
16.8621
16.8625
16.8619
16.8617
0.292944
0.292513
0.29204
0.2921
0.291424
0.291657
-39.3901
-39.4913
-39.4482
-39.4225
-39.4624
-39.4216
-50.6485
-50.6413
-50.648
-50.6503
-50.6475
-50.6554
-19.5722
-19.5712
-19.5738
-19.5744
-19.5741
-19.5772
-87.6101
-87.6056
-87.6041
-87.6041
-87.6033
-87.6081
-72.6659
-72.6775
-72.6744
-72.676
-72.6787
-72.6765
-24.9159
-24.9156
-24.9164
-24.9196
-24.9202
-24.9231
-68.6813
-68.6702
-68.6714
-68.6705
-68.6692
-68.6736
-65.1596
-65.1674
-65.1601
-65.1606
-65.1627
-65.1558
-16.6451
-16.6402
-16.6414
-16.6459
-16.6463
-16.6542
-37.4001
-37.3848
-37.3893
-37.3893
-37.3871
-37.3884
-41.7309
-41.7291
-41.7267
-41.7279
-41.7281
-41.7262
-13.7112
-13.7094
-13.7095
-13.7106
-13.7104
-13.713
-24.8575
-24.8545
-24.8574
-24.8593
-24.8624
-24.8569
-20.2057
-20.2066
-20.2059
-20.2074
-20.209
-20.2042
-11.7787
-11.7777
-11.7777
-11.7781
-11.778
-11.7797
3.0227
3.0085
3.01182
3.00335
2.99726
3.01342
1.46169
1.46225
1.46036
1.45739
1.45574
1.46093
-7.50206
-7.50113
-7.50142
-7.50159
-7.50174
-7.50079
857.387
857.31
857.322
857.384
858.112
856.612
5.31648
5.31457
5.31479
5.31454
5.31162
5.31784
-9.38327
-9.38457
-9.38467
-9.38719
-9.39225
-9.37806
14567
14567.9
14569.1
14569.3
14571
14572.6
3.24702
3.27561
3.31036
3.21004
3.17787
3.48376
-5.90055
-5.88208
-5.85527
-5.82303
-5.7806
-5.77738
14610.7
14611.4
14612.1
14612.3
14612.7
14614.8
8.68381
10.9371
11.9704
4.03025
0.660815
17.4283
-4.75141
-4.73723
-4.72268
-4.68852
-4.64173
-4.68802
14575.9
14576.8
14577.8
14576.7
14576.4
14582.2
0.760132
0.738903
0.741056
0.739113
0.720677
0.719902
-3.49252
-3.49013
-3.48933
-3.48575
-3.47744
-3.48428
13570.7
13569.3
13581.4
13542.7
13521.6
13602.1
1.86159
1.85676
1.85391
1.8396
1.83495
1.85373
-4.62729
-4.62178
-4.62726
-4.61408
-4.59534
-4.64695
11867.6
11868.2
11874.7
11862.6
11858.5
11883
3.99277
3.98704
3.98882
3.98359
3.98074
3.98484
-6.38649
-6.37988
-6.38578
-6.37627
-6.35335
-6.40286
9517.17
9517
9520.79
9515.37
9515.64
9523.26
5.40031
5.39876
5.39922
5.39989
5.39974
5.39654
-11.4674
-11.4662
-11.4671
-11.4697
-11.4686
-11.4665
15.1302
15.13
15.1292
15.128
15.1286
15.1259
8.22913
8.22919
8.22931
8.22943
8.22991
8.22882
2.5542
2.55421
2.5543
2.55444
2.55462
2.55441
11.7973
11.7974
11.7965
11.7949
11.7981
11.7949
6.6483
6.64907
6.65017
6.65169
6.65403
6.65168
2.17568
2.1759
2.17634
2.17691
2.17757
2.17707
5.12636
5.1383
5.15134
5.1731
5.19799
5.17637
3.50238
3.50671
3.51263
3.52083
3.52995
3.52343
1.34172
1.34283
1.34445
1.34671
1.34894
1.34697
-6.54988
-6.54226
-6.51813
-6.50177
-6.47158
-6.41462
-1.22692
-1.21899
-1.20897
-1.1931
-1.17586
-1.18039
0.138346
0.140589
0.142911
0.1475
0.152019
0.147094
-20.0272
-20.0392
-19.9755
-19.9678
-19.9051
-19.7565
-6.89386
-6.88486
-6.86801
-6.84888
-6.82387
-6.81769
-1.21869
-1.21593
-1.21312
-1.20783
-1.20265
-1.20486
-19.4873
-19.4684
-19.4054
-19.3706
-19.2838
-19.2579
-10.5461
-10.5396
-10.5245
-10.5092
-10.4872
-10.4758
-2.24568
-2.24369
-2.24018
-2.23506
-2.23102
-2.23222
-17.0698
-17.07
-17.0486
-17.0098
-16.9245
-17.0414
-9.1497
-9.14819
-9.14203
-9.1342
-9.12409
-9.12741
-1.9886
-1.98713
-1.9843
-1.9808
-1.9768
-1.98026
-10.8982
-10.8908
-10.8695
-10.8217
-10.7548
-10.855
-7.32557
-7.32191
-7.31277
-7.30305
-7.2909
-7.29038
-2.0366
-2.03442
-2.03074
-2.02639
-2.02159
-2.02432
-5.91639
-5.96987
-6.00207
-6.02439
-5.94871
-6.15098
-5.78628
-5.78085
-5.76539
-5.76991
-5.75379
-5.74383
-1.96528
-1.96472
-1.96146
-1.95627
-1.9465
-1.96089
-4.21614
-4.17899
-4.13641
-4.03833
-3.73571
-4.1426
-5.90199
-5.87295
-5.8204
-5.8565
-5.80599
-5.72645
-2.83626
-2.82965
-2.8167
-2.79131
-2.75275
-2.80553
-6.83977
-6.78897
-7.10925
-4.96143
-1.03024
-6.61741
-3.95657
-3.89713
-3.77961
-3.59186
-3.16909
-3.41197
-4.62793
-4.60992
-4.56793
-4.46342
-4.35655
-4.47572
8476.72
8450.92
8408.85
8700.04
8826.55
8425.26
-0.704158
-0.635469
-0.534624
-0.482349
-0.230523
-0.189824
-12.8005
-12.7569
-12.6749
-12.4598
-12.134
-12.4239
)
;

boundaryField
{
    seabed_topleft_surface
    {
        type            fixedFluxPressure;
        gradient        uniform 0;
        value           nonuniform List<scalar> 
72
(
3924.17
3924.16
3924.17
3924.15
3924.16
3924.2
3994.92
3994.91
3994.92
3994.9
3994.91
3994.96
4216.95
4216.94
4216.94
4216.93
4216.94
4216.99
4987.8
4987.78
4987.78
4987.77
4987.79
4987.83
7334.85
7334.77
7334.79
7334.8
7334.8
7334.87
12295.6
12295.5
12295.5
12295.5
12295.4
12295.5
18174.1
18174.1
18174
18174
18174
18174
22032.7
22032.8
22032.8
22032.8
22032.8
22032.7
23984
23984.3
23984.2
23984.2
23984.2
23984.1
25545.3
25545.4
25545.4
25545.4
25545.4
25545.3
27489.3
27488.8
27489
27489
27488.9
27489.3
27489.4
27489.4
27489.5
27489.5
27489.5
27489.7
)
;
    }
    seabed_topright_surface
    {
        type            fixedFluxPressure;
        gradient        uniform 0;
        value           nonuniform List<scalar> 
72
(
67.3476
67.339
67.2986
67.2627
67.2485
67.0783
72.1027
72.1387
72.0268
71.9764
72.0123
71.5793
78.6478
78.7712
78.5586
78.4889
78.5849
77.9276
82.9739
83.1921
82.7515
82.6749
82.9017
81.4976
103.564
103.548
99.6553
101.227
104.046
90.6591
195.026
196.142
193.828
197.721
203.788
184.62
341.654
343.003
345.917
338.164
324.905
355.832
1134.86
1123.31
1110.93
1064.47
979.563
1091.85
2804.17
2801.94
2814.2
2806.3
2797.66
2822.12
2170.58
2158.21
2194.26
2081.31
2032.36
2240.86
1124.24
1121.22
1123.85
1108.67
1091.97
1130.86
1053.92
1053.22
1051.88
1048.04
1045.68
1052.56
)
;
    }
    breakwater_top_surface
    {
        type            fixedFluxPressure;
        gradient        uniform 0;
        value           nonuniform List<scalar> 
36
(
14567
14567.9
14569.1
14569.3
14571
14572.6
14610.7
14611.4
14612.1
14612.3
14612.7
14614.8
14575.9
14576.8
14577.8
14576.7
14576.4
14582.2
13570.7
13569.3
13581.4
13542.7
13521.6
13602.1
11867.6
11868.2
11874.7
11862.6
11858.5
11883
9517.17
9517
9520.79
9515.37
9515.64
9523.26
)
;
    }
    breakwater_left_surface
    {
        type            fixedFluxPressure;
        gradient        uniform 0;
        value           nonuniform List<scalar> 
24
(
27489.4
27489.4
27489.5
27489.5
27489.5
27489.7
24899.4
24899.1
24899.3
24899.3
24899.2
24899.8
13404.6
13397.7
13401.5
13400.6
13396.8
13407.6
97.1286
97.0761
97.1012
97.0522
97.0084
97.1512
)
;
    }
    breakwater_right_surface
    {
        type            fixedFluxPressure;
        gradient        uniform 0;
        value           nonuniform List<scalar> 
24
(
1053.92
1053.22
1051.88
1048.04
1045.68
1052.56
880.634
878.943
876.071
874.018
861.092
867.752
1709.83
1802.74
2116.69
1265.01
842.609
2353.06
5971.88
6005.74
6066.93
6159.66
6914.54
6228.6
)
;
    }
    water_front_surface
    {
        type            fixedFluxPressure;
        gradient        uniform 0;
        value           nonuniform List<scalar> 
186
(
3924.17
3994.92
4216.95
4987.8
7334.85
12295.6
18174.1
22032.7
23984
25545.3
27489.3
27489.4
40.8051
48.593
80.4966
163.457
684.661
4736.35
15230
21819.6
22685.9
24360.9
24961.3
24899.4
55.3845
57.685
68.2436
86.6589
90.7278
276.515
6114.56
17498.2
20209.4
17199.5
12653.3
13404.6
39.6963
45.1805
55.7536
68.7102
73.855
226.02
2375.22
3695.93
2924.66
97.0097
-0.967052
97.1286
67.3476
72.1027
78.6478
82.9739
103.564
195.026
341.654
1134.86
2804.17
2170.58
1124.24
1053.92
58.1955
58.8361
51.8348
3.11289
-114.722
-142.874
-71.3208
85.8141
882.39
1444.19
1432.08
880.634
40.6306
36.4021
22.6558
-21.6689
-83.8096
-89.0905
-52.323
-20.0056
0.36653
1385.29
3111.08
1709.83
25.2532
20.259
8.90953
-18.6654
-54.3265
-69.2541
-40.5804
-18.2891
-13.2593
6.07622
3708.62
5971.88
33.6409
17.5937
7.30279
34.8351
18.1919
7.50349
37.0531
19.8228
6.01195
34.4004
17.3007
5.74346
47.6748
16.862
0.292944
-39.3901
-50.6485
-19.5722
-87.6101
-72.6659
-24.9159
-68.6813
-65.1596
-16.6451
-37.4001
-41.7309
-13.7112
-24.8575
-20.2057
-11.7787
3.0227
1.46169
-7.50206
857.387
5.31648
-9.38327
14567
3.24702
-5.90055
14610.7
8.68381
-4.75141
14575.9
0.760132
-3.49252
13570.7
1.86159
-4.62729
11867.6
3.99277
-6.38649
9517.17
5.40031
-11.4674
15.1302
8.22913
2.5542
11.7973
6.6483
2.17568
5.12636
3.50238
1.34172
-6.54988
-1.22692
0.138346
-20.0272
-6.89386
-1.21869
-19.4873
-10.5461
-2.24568
-17.0698
-9.1497
-1.9886
-10.8982
-7.32557
-2.0366
-5.91639
-5.78628
-1.96528
-4.21614
-5.90199
-2.83626
-6.83977
-3.95657
-4.62793
8476.72
-0.704158
-12.8005
)
;
    }
    water_back_surface
    {
        type            fixedFluxPressure;
        gradient        uniform 0;
        value           nonuniform List<scalar> 
186
(
3924.2
3994.96
4216.99
4987.83
7334.87
12295.5
18174
22032.7
23984.1
25545.3
27489.3
27489.7
40.805
48.5923
80.4964
163.453
684.576
4736.15
15229.8
21819.5
22685.8
24360.7
24961.5
24899.8
55.3841
57.6841
68.2432
86.6549
90.7278
276.466
6113.99
17499.2
20211.8
17203.9
12657.8
13407.6
39.6966
45.1809
55.7534
68.706
73.8574
225.775
2374.76
3696.52
2926.08
97.8328
-0.991807
97.1512
67.0783
71.5793
77.9276
81.4976
90.6591
184.62
355.832
1091.85
2822.12
2240.86
1130.86
1052.56
58.0628
58.5975
51.9267
4.02755
-109.181
-142.296
-76.1994
76.3382
929.893
1555.37
1593.05
867.752
40.6157
36.4109
22.9166
-20.611
-82.7683
-88.7629
-52.8863
-20.1712
-3.56009
1507.79
3241.88
2353.06
25.2416
20.2307
9.06876
-18.3027
-53.9367
-69.3649
-40.8572
-18.1076
-13.3579
7.11255
3864.9
6228.6
33.6414
17.5939
7.30285
34.836
18.1926
7.50361
37.0528
19.8231
6.01197
34.3993
17.3021
5.74339
47.6768
16.8617
0.291657
-39.4216
-50.6554
-19.5772
-87.6081
-72.6765
-24.9231
-68.6736
-65.1558
-16.6542
-37.3884
-41.7262
-13.713
-24.8569
-20.2042
-11.7797
3.01342
1.46093
-7.50079
856.612
5.31784
-9.37806
14572.6
3.48376
-5.77738
14614.8
17.4283
-4.68802
14582.2
0.719902
-3.48428
13602.1
1.85373
-4.64695
11883
3.98484
-6.40286
9523.26
5.39654
-11.4665
15.1259
8.22882
2.55441
11.7949
6.65168
2.17707
5.17637
3.52343
1.34697
-6.41462
-1.18039
0.147094
-19.7565
-6.81769
-1.20486
-19.2579
-10.4758
-2.23222
-17.0414
-9.12741
-1.98026
-10.855
-7.29038
-2.02432
-6.15098
-5.74383
-1.96089
-4.1426
-5.72645
-2.80553
-6.61741
-3.41197
-4.47572
8425.26
-0.189824
-12.4239
)
;
    }
    water_left_surface
    {
        type            fixedFluxPressure;
        gradient        uniform 0;
        value           nonuniform List<scalar> 
42
(
3924.17
3924.16
3924.17
3924.15
3924.16
3924.2
40.8051
40.8053
40.8053
40.8053
40.8053
40.805
55.3845
55.3843
55.3842
55.3842
55.3842
55.3841
39.6963
39.6965
39.6965
39.6966
39.6968
39.6966
33.6409
33.6408
33.6409
33.641
33.6411
33.6414
17.5937
17.594
17.5942
17.5942
17.5941
17.5939
7.30279
7.30266
7.30262
7.30261
7.30263
7.30285
)
;
    }
    water_right_surface
    {
        type            fixedFluxPressure;
        gradient        uniform 0;
        value           nonuniform List<scalar> 
42
(
67.3476
67.339
67.2986
67.2627
67.2485
67.0783
58.1955
58.2014
58.1848
58.1801
58.2028
58.0628
40.6306
40.637
40.6382
40.6408
40.665
40.6157
25.2532
25.2527
25.2501
25.2457
25.2493
25.2416
15.1302
15.13
15.1292
15.128
15.1286
15.1259
8.22913
8.22919
8.22931
8.22943
8.22991
8.22882
2.5542
2.55421
2.5543
2.55444
2.55462
2.55441
)
;
    }
    water_top_surface
    {
        type            totalPressure;
        rho             rho;
        psi             none;
        gamma           1;
        p0              uniform 0;
        value           nonuniform List<scalar> 
180
(
-0.00617018
-0.00619092
-0.00619725
-0.0062064
-0.00621835
-0.00621014
0
0
0
0
0
0
0
0
0
0
0
0
0
0
0
0
0
0
0
0
0
0
0
0
0
0
0
0
0
0
0
0
0
0
0
0
0
0
0
0
0
0
-8.4564
-8.44367
-8.44944
-8.45001
-8.44762
-8.45566
-11.8856
-11.8776
-11.8795
-11.8804
-11.88
-11.8832
-6.993
-6.98911
-6.98876
-6.99029
-6.99124
-6.98573
-2.57712
-2.58129
-2.57856
-2.57912
-2.58382
-2.57179
-2.28266
-2.31183
-2.29459
-2.29259
-2.37233
-2.23771
-1.84961
-1.85893
-1.85807
-1.81127
-1.79883
-1.84789
-2.52087
-2.52062
-2.51698
-2.54458
-2.61823
-2.4076
-4.51171
-4.53133
-4.48388
-4.59865
-4.7309
-4.35248
-4.7291
-4.75031
-4.71368
-4.78613
-4.88945
-4.61756
-2.70314
-2.71285
-2.70247
-2.71797
-2.74787
-2.67082
0
0
0
0
0
0
0
0
0
0
0
0
0
0
0
0
0
0
0
0
0
0
0
0
0
0
0
0
0
0
0
0
0
0
0
0
-0.0216985
-0.0215902
-0.0214911
-0.021346
-0.0211532
-0.0212624
-1.18407
-1.18178
-1.18161
-1.17962
-1.17843
-1.17609
-0.907163
-0.907251
-0.907548
-0.898456
-0.887731
-0.912161
-5.24119
-5.24165
-5.22373
-5.224
-5.20662
-5.18842
-6.08087
-6.09192
-6.04819
-5.98132
-5.94117
-5.95086
-2.27014
-2.23909
-2.24784
-2.14531
-1.89079
-2.21055
)
;
    }
}


// ************************************************************************* //
