/*--------------------------------*- C++ -*----------------------------------*\
| =========                 |                                                 |
| \\      /  F ield         | OpenFOAM: The Open Source CFD Toolbox           |
|  \\    /   O peration     | Version:  v1612+                                |
|   \\  /    A nd           | Web:      www.OpenFOAM.com                      |
|    \\/     M anipulation  |                                                 |
\*---------------------------------------------------------------------------*/
FoamFile
{
    version     2.0;
    format      ascii;
    class       surfaceScalarField;
    location    "4.75";
    object      phi;
}
// * * * * * * * * * * * * * * * * * * * * * * * * * * * * * * * * * * * * * //

dimensions      [0 3 -1 0 0 0 0];

internalField   nonuniform List<scalar> 
2916
(
-1.55268e-05
0.147611
-0.147596
-1.27846e-05
0.147614
-0.147617
-2.48264e-06
0.147614
-0.147624
1.12729e-06
0.147614
-0.147618
3.70946e-06
0.147614
-0.147616
0.14761
-0.147606
-1.24476e-05
0.269172
-0.121548
-1.2065e-05
0.269181
-0.121568
-1.59866e-06
0.269179
-0.121576
1.45786e-06
0.26918
-0.121569
1.31523e-06
0.26918
-0.121567
0.269172
-0.121561
-5.07357e-06
0.326879
-0.0577025
-8.05196e-06
0.326897
-0.0577132
-7.61986e-07
0.326894
-0.0577218
-1.30836e-06
0.326893
-0.0577126
-5.83449e-06
0.326895
-0.0577101
0.326883
-0.0577164
4.56815e-06
0.211768
0.115106
-1.64509e-06
0.211797
0.115107
-2.15132e-06
0.21179
0.115104
-6.21481e-06
0.211789
0.115109
-1.17471e-05
0.211794
0.115106
0.211775
0.115096
5.61981e-06
-0.150224
0.361987
-2.60936e-06
-0.150183
0.361988
-6.06918e-06
-0.150191
0.361984
-9.89369e-06
-0.15019
0.361983
-1.54472e-05
-0.15018
0.36198
-0.15021
0.36197
1.92576e-05
-0.702575
0.552331
3.0908e-06
-0.702547
0.55238
-2.63415e-06
-0.702542
0.552357
-6.12789e-06
-0.702541
0.552354
-1.99457e-05
-0.702535
0.552369
-0.702569
0.552339
3.26725e-08
-1.28164
0.579069
1.69795e-05
-1.28164
0.579078
8.89372e-06
-1.28161
0.579077
-2.33526e-06
-1.28161
0.57908
-1.09688e-05
-1.28161
0.579084
-1.28166
0.579076
-1.86044e-05
-1.69575
0.414126
2.16963e-05
-1.69582
0.414141
1.56118e-05
-1.69575
0.414146
7.18179e-07
-1.69575
0.414151
-2.5358e-06
-1.69577
0.414158
-1.69579
0.414128
2.11472e-05
-1.73426
0.0384867
2.77676e-05
-1.73442
0.0385895
1.05516e-05
-1.73432
0.0385841
-4.11073e-06
-1.73432
0.0385855
-1.81725e-05
-1.73436
0.0386135
-1.7343
0.0384935
0.000176512
-1.34098
-0.393454
2.86419e-05
-1.34114
-0.393132
-2.49831e-05
-1.34104
-0.393225
-2.48954e-05
-1.34106
-0.393257
-9.19185e-05
-1.34113
-0.393171
-1.341
-0.393393
0.000266328
-0.61281
-0.728438
6.98917e-06
-0.612858
-0.728022
-5.2787e-05
-0.612815
-0.728165
-4.11021e-05
-0.612843
-0.728228
-0.000170543
-0.612884
-0.728114
-0.612794
-0.728373
-4.1005e-05
-0.612769
-3.92233e-05
-0.61286
-1.81973e-05
-0.612835
-2.73367e-05
-0.612834
-5.99049e-05
-0.612851
-0.612854
-0.000101792
1.22962
-1.37712
-3.79539e-05
1.22962
-1.37729
1.06719e-05
1.22961
-1.37728
5.75543e-05
1.22961
-1.37728
0.000116484
1.22962
-1.37729
1.22963
-1.37712
-0.000130807
2.32795
-1.21974
-5.55401e-05
2.32789
-1.21991
1.81178e-05
2.32788
-1.21992
8.94206e-05
2.32788
-1.21991
0.000159298
2.32789
-1.21991
2.32797
-1.21974
-0.000131287
2.61017
-0.33979
-5.02333e-05
2.61012
-0.340023
-2.53019e-06
2.61013
-0.340019
7.04327e-05
2.61009
-0.339999
0.000153463
2.61009
-0.339999
2.6102
-0.339799
-5.56757e-07
1.58853
1.13675
-2.11473e-05
1.58884
1.1364
-2.23948e-05
1.58873
1.13651
-1.25705e-05
1.58867
1.13652
-1.23596e-05
1.58876
1.13644
1.58863
1.13665
8.47398e-05
-0.0383102
1.98874
-3.37088e-05
-0.0380105
1.98896
-2.49516e-05
-0.0381318
1.98884
-1.80741e-05
-0.0381231
1.98877
-9.48985e-05
-0.0380256
1.98884
-0.0382118
1.98872
0.000368778
-0.925334
1.43899
5.65958e-06
-0.925261
1.43999
-3.74383e-05
-0.925274
1.43954
-1.07228e-05
-0.925258
1.43946
-0.000224137
-0.925233
1.43979
-0.925316
1.43922
8.25299e-05
-1.22388
0.87753
1.31334e-05
-1.22386
0.877744
1.92887e-06
-1.22384
0.877658
-5.99931e-06
-1.22383
0.877665
-7.24839e-05
-1.22382
0.877737
-1.22389
0.87758
7.71652e-05
-1.23985
0.430023
2.93274e-07
-1.23999
0.430355
-4.53039e-06
-1.23991
0.430214
8.83154e-06
-1.2399
0.430203
-4.18404e-05
-1.23993
0.430321
-1.23991
0.4301
0.000324012
-1.10997
-0.0917231
6.68212e-06
-1.11011
-0.09098
-2.38999e-05
-1.11001
-0.0912782
3.07621e-05
-1.11004
-0.0913306
-0.000127318
-1.11008
-0.0910804
-1.10998
-0.0915603
0.000547372
-0.780675
-0.723292
1.14135e-05
-0.780309
-0.722395
-7.80801e-05
-0.780403
-0.722746
6.71229e-06
-0.780528
-0.722852
-0.000197842
-0.780475
-0.72257
-0.780478
-0.723092
7.9404e-05
-0.402344
-1.10685
-5.67022e-05
-0.40194
-1.10626
-7.38621e-05
-0.402048
-1.1065
-2.92918e-05
-0.402174
-1.10663
-6.99249e-06
-0.402146
-1.10647
-0.402102
-1.10676
-0.00035706
-1.01476
-9.3858e-05
-1.01506
-3.50668e-05
-1.01494
-3.19603e-05
-1.01501
0.000124956
-1.01515
-1.01483
-1.32001e-05
-0.709098
-0.668006
1.24828e-05
-0.709026
-0.668294
2.08236e-05
-0.709046
-0.668247
3.40475e-05
-0.709041
-0.668248
5.55422e-05
-0.709012
-0.668301
-0.709064
-0.668006
-7.74918e-05
-1.1826
-0.746161
-1.72362e-06
-1.18259
-0.746431
2.18157e-05
-1.18259
-0.746398
4.84711e-05
-1.18258
-0.746398
0.000123298
-1.18256
-0.746441
-1.18252
-0.746163
-0.000114411
-0.903338
-0.618934
-3.40278e-05
-0.903405
-0.619287
-8.08756e-06
-0.903405
-0.619231
2.3598e-05
-0.903376
-0.619234
0.000114716
-0.903359
-0.619291
-0.903174
-0.619029
0.000690187
-0.653479
0.886198
0.000108035
-0.651996
0.885576
2.70587e-05
-0.652582
0.885763
0.000100933
-0.652721
0.885782
-0.000151867
-0.652256
0.885583
-0.652545
0.885873
0.000559166
-2.60858
3.94329
5.79317e-05
-2.60708
3.94454
-9.35425e-05
-2.60754
3.94395
-3.70509e-06
-2.60779
3.94376
-0.000154126
-2.60731
3.94404
-2.6075
3.94352
0.00215186
-2.82402
1.65227
-0.000187974
-2.82359
1.65884
-0.000324131
-2.82377
1.65591
1.08726e-05
-2.82378
1.65512
-0.00132916
-2.82363
1.65746
-2.82384
1.65423
0.000583883
-1.915
-0.0320709
-2.43552e-05
-1.9146
-0.0306315
-4.79638e-05
-1.9148
-0.0312874
9.46256e-06
-1.91483
-0.0313465
-0.000373501
-1.91469
-0.0308243
-1.91493
-0.0317013
0.000499165
-1.25805
-0.227429
5.19544e-06
-1.2575
-0.226249
-4.43728e-05
-1.25776
-0.226784
3.57412e-05
-1.25782
-0.226887
-0.000272632
-1.25764
-0.226418
-1.25794
-0.227171
0.000128892
-0.769222
-0.580681
-1.38502e-05
-0.768071
-0.58027
-1.13629e-05
-0.768594
-0.580442
2.44268e-05
-0.768688
-0.580499
-8.27993e-05
-0.768334
-0.580283
-0.768972
-0.580606
-0.00110733
-0.311589
-1.17982
-4.1298e-05
-0.309671
-1.18186
0.000122565
-0.310614
-1.18089
-4.37789e-05
-0.310556
-1.18082
0.000491341
-0.309918
-1.18152
-0.311405
-1.18017
-0.00159296
-0.267812
-1.14903
-0.000112868
-0.266598
-1.15081
0.000124907
-0.267206
-1.15015
-7.54355e-05
-0.267107
-1.14988
0.000644979
-0.266751
-1.15035
-0.2677
-1.14982
-0.00037606
-1.28219
-0.00013166
-1.28191
-0.000137077
-1.28214
1.78676e-05
-1.28227
0.000397013
-1.28228
-1.28213
-2.60462e-05
-0.235876
-0.432103
1.97364e-06
-0.235897
-0.432428
5.36435e-06
-0.235883
-0.432369
1.22523e-05
-0.235884
-0.432372
3.91153e-05
-0.23589
-0.43244
-0.235863
-0.432105
-5.3106e-05
-0.571497
-0.410489
5.85031e-06
-0.571646
-0.410743
1.20762e-05
-0.571579
-0.410709
5.52964e-06
-0.571563
-0.410714
3.49876e-05
-0.571596
-0.410766
-0.5715
-0.410491
-4.50214e-05
-0.948482
-0.241906
-2.18847e-06
-0.948775
-0.242201
-5.49387e-06
-0.948656
-0.242152
-1.9613e-05
-0.948626
-0.242158
5.12861e-06
-0.948694
-0.242218
-0.948528
-0.241995
0.000810147
-0.887072
0.823977
6.78957e-05
-0.885897
0.82344
-7.98111e-05
-0.886344
0.823599
2.58781e-05
-0.886611
0.823663
-0.000296234
-0.886226
0.82344
-0.886669
0.823716
0.000543691
-1.98979
5.04546
-8.25912e-05
-1.9871
5.04637
-0.000275705
-1.98806
5.04585
-6.51327e-05
-1.98884
5.04577
-0.000203662
-1.98791
5.04587
-1.98893
5.04556
0.000451117
-3.67889
3.34092
-0.000422664
-3.67718
3.34979
-0.000447903
-3.67783
3.34571
0.000117853
-3.67868
3.34439
-0.000239961
-3.67795
3.34785
-3.67864
3.34371
-0.00106451
-3.09498
-0.614916
-0.000272284
-3.09366
-0.614947
0.000170706
-3.0943
-0.615265
0.000127493
-3.0946
-0.615375
0.000360583
-3.09408
-0.614928
-3.09483
-0.615152
-0.00244959
-2.27005
-1.04991
-0.000138549
-2.26695
-1.05527
0.000339425
-2.26838
-1.05318
3.51722e-05
-2.26872
-1.05247
0.00108653
-2.26765
-1.0539
-2.26949
-1.05143
-0.0034047
-1.45916
-1.38817
-0.000148766
-1.45612
-1.39435
0.000424279
-1.45765
-1.39175
-0.000118262
-1.45762
-1.39106
0.00146297
-1.45658
-1.39293
-1.45883
-1.38981
-0.0035698
0.574406
-3.20981
-0.000135687
0.573845
-3.21526
0.000399583
0.573794
-3.21287
-0.000319707
0.574487
-3.21221
0.00141257
0.574285
-3.21412
0.573505
-3.21109
-0.00144147
0.72962
-1.30281
4.00066e-05
0.72597
-1.30441
-8.366e-05
0.727554
-1.30379
-0.000269323
0.728363
-1.30356
0.001858
0.726173
-1.30437
0.728783
-1.30324
0.00163212
-0.5542
0.000148102
-0.554462
-0.000122412
-0.55432
0.000632149
-0.554664
0.000158345
-0.555638
-0.553199
0.0019329
-0.910421
0.908488
0.00496671
-0.911089
0.908055
0.00509885
-0.907317
0.907184
0.00620033
-0.907274
0.906173
0.0168999
-0.916362
0.905661
-0.886297
0.903196
0.00234569
-2.29332
1.38056
0.014523
-2.30265
1.37938
0.00639606
-2.27541
1.37622
0.0155589
-2.29054
1.3741
0.0655257
-2.34344
1.37711
-2.17995
1.35917
0.00872066
-4.55715
2.25511
0.0472496
-4.5933
2.25212
0.0344343
-4.51571
2.25311
0.0501139
-4.55224
2.24602
0.134376
-4.65982
2.23212
-4.29585
2.25028
0.0175826
-6.93419
2.35945
0.0781431
-7.00362
2.34976
0.0670255
-6.90169
2.3971
0.0797095
-6.93432
2.3694
0.16531
-7.04797
2.30255
-6.63898
2.50845
0.0172771
-7.84687
0.895406
0.0550026
-7.93941
0.898062
0.0497868
-7.87171
0.975236
0.0482066
-7.89248
0.959739
0.0854878
-7.99004
0.904784
-7.72853
1.17504
0.027569
-7.44707
-0.427373
0.0416351
-7.53783
-0.415652
0.0844392
-7.48025
-0.434266
0.0587553
-7.48143
-0.385362
-0.0505107
-7.5634
-0.317366
-7.35787
-0.421175
0.0576154
-6.52524
-0.979445
0.0782988
-6.58361
-0.974903
0.181544
-6.51284
-1.07065
0.127953
-6.50739
-0.920447
-0.163953
-6.56066
-0.710839
-6.36574
-1.15608
0.0603537
-5.30383
-1.28176
0.0780182
-5.33022
-1.27105
0.204194
-5.2945
-1.34451
0.150902
-5.33663
-1.11747
-0.252394
-5.4231
-0.734268
-5.20173
-1.41641
-0.00364876
-2.32411
-2.97607
-0.00795087
-2.33135
-2.99457
0.0467762
-2.35257
-2.99666
-0.0264215
-2.26749
-2.99594
-0.152459
-2.25605
-3.04101
-2.34678
-3.0074
-0.00423197
1.19682
-3.5167
0.00397669
1.19138
-3.53094
0.18478
0.996774
-3.53015
-0.033019
1.47893
-3.52862
-0.393644
1.75838
-3.6538
0.774473
-3.5149
0.0308039
3.12575
-1.95974
0.0637462
3.15122
-1.99279
0.227863
2.9747
-2.14204
0.0554134
3.32434
-1.67296
-0.324776
3.50888
-1.37031
2.70408
-2.25438
0.0787585
3.04699
0.212393
3.01759
0.480797
2.70629
0.195639
3.6095
-0.337278
4.04179
2.3668
0.00038053
-0.952403
1.86051
0.00213337
-0.954037
1.86034
0.00133205
-0.951812
1.8598
0.00323502
-0.954833
1.8591
0.0145699
-0.964837
1.85916
-0.938344
1.85611
-0.00320267
-1.99778
2.42914
0.00454314
-2.01244
2.43004
-0.0101757
-1.98715
2.42628
0.00846635
-2.02842
2.42905
0.0739243
-2.08914
2.43595
-1.91485
2.4096
-0.0129563
-3.32046
3.59074
0.00845805
-3.37532
3.59358
-0.0153528
-3.29651
3.58628
0.0127183
-3.40516
3.59468
0.111798
-3.5565
3.6004
-3.11835
3.56558
-0.031491
-4.67398
3.74447
-0.0301935
-4.77242
3.74557
-0.0349248
-4.6617
3.76702
-0.052292
-4.77754
3.75915
-0.0389089
-5.01342
3.74608
-4.46859
3.81977
-0.0433066
-5.47425
1.73898
-0.0856679
-5.57705
1.74505
-0.100703
-5.46489
1.79346
-0.13182
-5.55692
1.77023
-0.144346
-5.90328
1.80718
-5.34799
1.91009
0.0092515
-5.3073
-0.603575
-0.0258019
-5.38937
-0.56828
-0.116883
-5.23041
-0.577664
-0.0415795
-5.45391
-0.563672
0.0690806
-5.99088
-0.340431
-5.15501
-0.545071
0.0526392
-4.83043
-1.50896
0.0334353
-4.86834
-1.47672
0.0234041
-4.71915
-1.57188
0.105314
-5.00012
-1.45615
0.0235227
-5.49796
-1.12196
-4.61076
-1.6768
0.000904002
-4.51988
-1.59321
-0.013936
-4.53892
-1.58563
-1.41263e-05
-4.45267
-1.62491
0.0251926
-4.66429
-1.4785
-0.0335224
-4.99865
-1.17487
-4.38432
-1.67637
-0.000589451
-3.7666
-3.72877
-0.00389151
-3.77497
-3.75521
0.0160521
-3.72828
-3.741
0.00636192
-3.83431
-3.81623
-0.0562028
-3.90276
-4.07433
-3.69507
-3.75285
-0.0154088
-2.80236
-4.46552
-0.0501287
-2.81061
-4.46058
-0.0634815
-2.80198
-4.44309
-0.0587936
-2.87893
-4.4887
0.00169893
-2.902
-4.71505
-2.78451
-4.42377
0.00204068
-1.92527
-2.83887
-0.0103765
-1.92378
-2.8672
-0.00590265
-1.99068
-2.95782
0.00598387
-1.89821
-2.66556
0.0117792
-1.74712
-2.53099
-1.96867
-3.05844
0.185218
0.936498
0.467477
0.811545
0.775899
0.407197
0.910222
1.57697
-0.557143
3.76204
-0.159014
-0.000635946
-0.468561
2.32971
-0.000232247
-0.469871
2.32981
-0.000441052
-0.469766
2.32977
0.000521136
-0.471317
2.32945
0.00564768
-0.475753
2.32979
-0.466498
2.32826
-0.0038355
-0.725817
2.69023
-0.00241105
-0.732557
2.6913
-0.0103634
-0.725857
2.69032
0.000207973
-0.745449
2.69261
0.033098
-0.770247
2.69756
-0.707414
2.68361
-0.0151918
-0.575045
3.45516
-0.00951189
-0.604627
3.45997
-0.0328413
-0.57006
3.45381
-0.00104852
-0.650292
3.46773
0.0768518
-0.730128
3.48238
-0.500873
3.43589
-0.0316679
-0.613893
3.81499
-0.0401943
-0.671603
3.82107
-0.0412252
-0.624715
3.8227
-0.0390339
-0.726446
3.83311
-0.0225788
-0.840334
3.83983
-0.535764
3.83209
-0.0443612
-1.14375
2.3132
-0.0619442
-1.22102
2.31205
-0.0516477
-1.18437
2.34281
-0.0873652
-1.23722
2.31672
-0.087761
-1.36085
2.32809
-1.11682
2.40339
-0.0367316
-1.233
-0.4776
-0.0454491
-1.30085
-0.479728
-0.0624926
-1.28255
-0.46244
-0.111344
-1.26096
-0.491079
0.00516225
-1.34616
-0.47163
-1.23349
-0.423247
-0.0248729
-1.21982
-1.49726
-0.0501749
-1.25755
-1.49472
-0.171535
-1.24502
-1.48805
-0.139872
-1.22962
-1.51915
0.192674
-1.28559
-1.51508
-1.22989
-1.48772
-0.0121831
-1.24908
-1.55176
-0.0390433
-1.26169
-1.55464
-0.125365
-1.23849
-1.54513
-0.0812013
-1.23436
-1.51793
0.15494
-1.21255
-1.48405
-1.21484
-1.53649
0.00412947
-2.38114
-2.60084
0.0126446
-2.40362
-2.6218
0.0543046
-2.39445
-2.6267
0.0542621
-2.39448
-2.65607
-0.101697
-2.33626
-2.79466
-2.39625
-2.67314
-0.0131007
-2.6013
-4.23226
-0.036315
-2.61798
-4.223
-0.0711961
-2.58419
-4.21847
-0.0412198
-2.72389
-4.18927
0.0246841
-2.98476
-4.13245
-2.59037
-4.20496
-0.0161216
-1.86754
-3.5565
-0.0791006
-1.85818
-3.56402
-0.247726
-1.7924
-3.58098
-0.184949
-1.98637
-3.46586
0.322249
-2.67397
-3.34898
-1.74908
-3.57749
-0.0016551
-0.929389
-0.0592872
-0.989007
-0.322542
-1.12195
0.0447935
-0.776739
0.661506
0.47136
-1.24658
-0.000533509
-0.0817463
2.41199
-0.000576899
-0.0822966
2.41215
-0.000582326
-0.0824268
2.4122
-0.00027557
-0.0830099
2.41216
0.00148024
-0.0843636
2.4124
-0.0819661
2.4117
-0.00159184
0.0585041
2.55157
-0.00195557
0.0573351
2.55203
-0.00332998
0.0572646
2.55201
-0.00123093
0.0550812
2.55242
0.00593545
0.0520555
2.55397
0.0571033
2.55048
-0.00746304
0.693098
2.82803
-0.00770063
0.686967
2.83058
-0.0187896
0.693245
2.82892
-0.00444318
0.673315
2.83515
0.0313524
0.656216
2.84242
0.702349
2.822
-0.0140678
1.62676
2.89539
-0.0179747
1.61127
2.90067
-0.0256951
1.62676
2.89691
-0.0128531
1.58331
2.91028
0.011558
1.55091
2.92073
1.65398
2.89201
-0.0127951
2.11635
1.83641
-0.0238598
2.09535
1.83902
-0.011214
2.11276
1.84416
-0.0259616
2.07228
1.84249
-0.0503153
2.05302
1.85033
2.14405
1.863
-0.0013648
1.49199
0.14812
-0.00851621
1.47293
0.149846
0.00658879
1.48201
0.153201
-0.0256894
1.46726
0.146219
-0.07053
1.47656
0.149672
1.49268
0.157595
0.0062564
1.03541
-1.04693
0.00512051
1.02431
-1.04496
0.0188753
1.02282
-1.04262
-0.00503138
1.01876
-1.04674
-0.039202
1.03067
-1.03503
1.01035
-1.04459
-0.00782978
0.805819
-1.31434
-0.017133
0.787937
-1.30896
-0.0285822
0.795307
-1.30616
-0.0421142
0.809356
-1.295
-0.00284183
0.780934
-1.27359
0.774685
-1.30367
-0.0053211
-0.301892
-1.48781
-0.00549613
-0.330763
-1.50292
-0.00660616
-0.326222
-1.50406
-0.00919145
-0.341344
-1.50279
-0.0051733
-0.537315
-1.48043
-0.368995
-1.53464
-0.0146548
-1.71534
-2.80416
-0.028457
-1.74997
-2.78999
-0.0245299
-1.77334
-2.77528
0.0106742
-1.73491
-2.83091
-0.00825207
-1.85398
-2.79686
-1.82583
-2.75637
-0.0124094
-1.46675
-3.79268
-0.0684816
-1.47973
-3.77819
-0.168711
-1.48972
-3.76437
-0.0769618
-1.54138
-3.75114
0.126047
-1.75449
-3.65148
-1.54599
-3.73129
-0.0191745
-2.37697
-0.113342
-2.37457
-0.352815
-2.3722
-0.38981
-2.28112
0.461155
-2.1341
-2.33141
6.26904e-05
-0.231723
-0.200446
1.33354e-05
-0.231875
-0.200505
-9.60802e-06
-0.23185
-0.200497
-3.13753e-05
-0.23185
-0.200502
-8.07007e-05
-0.231878
-0.200513
-0.231722
-0.200465
1.40932e-05
-0.0672337
-0.164505
3.30292e-06
-0.0673541
-0.164511
-3.22713e-06
-0.0673329
-0.16451
-1.00989e-05
-0.0673306
-0.164513
-2.3406e-05
-0.0673532
-0.164513
-0.0672313
-0.164514
2.18268e-05
-0.0174911
6.25946e-06
-0.0174882
-1.55192e-06
-0.017488
-9.5769e-06
-0.0174893
-2.76042e-05
-0.0174898
-0.0174949
-3.23417e-05
-0.170484
-0.44042
-1.57825e-05
-0.170605
-0.440659
-3.04612e-05
-0.170596
-0.440593
-4.75383e-05
-0.170597
-0.4406
-4.28742e-05
-0.17062
-0.440661
-0.170482
-0.440516
-3.69757e-05
0.0472632
-0.382216
-1.69455e-05
0.0471185
-0.382251
-2.34023e-05
0.0471344
-0.38223
-2.63939e-05
0.0471366
-0.382239
-6.65369e-06
0.0471047
-0.382253
0.0472621
-0.382259
2.7674e-05
-0.0222608
5.14677e-06
-0.0222637
-5.16636e-06
-0.0222638
-1.18342e-05
-0.0222675
-3.94718e-05
-0.0222663
-0.02227
-0.000151753
-0.0153071
-0.666867
-4.71309e-05
-0.0154514
-0.667509
-5.16925e-05
-0.0154417
-0.667297
-6.25216e-05
-0.0154425
-0.667303
1.03457e-05
-0.0154626
-0.667486
-0.015326
-0.667174
-0.000146441
0.251304
-0.648676
-3.51558e-05
0.251249
-0.649055
-4.55743e-05
0.251248
-0.648902
-4.82491e-05
0.251253
-0.648924
2.61592e-05
0.251246
-0.64903
0.251326
-0.648881
-5.55295e-06
-0.0896321
-8.24979e-06
-0.0896423
-2.18484e-05
-0.0896273
-2.15538e-05
-0.089647
-2.67809e-05
-0.0896428
-0.0896787
0.00015562
0.595182
-0.438227
2.43019e-05
0.595075
-0.439009
-5.16263e-05
0.595062
-0.43868
-2.11407e-05
0.595129
-0.438796
-6.16455e-05
0.595068
-0.43907
0.595222
-0.438742
-0.000221149
0.490218
-0.543489
-1.7026e-05
0.490262
-0.544444
-3.47911e-05
0.490226
-0.544045
-3.83865e-05
0.490273
-0.544061
8.98321e-05
0.490278
-0.544366
0.490366
-0.543934
-7.85785e-05
-0.194466
-2.09912e-05
-0.194623
-4.19996e-05
-0.194542
-3.2739e-05
-0.194575
7.54924e-07
-0.194605
-0.194562
0.00185545
4.30401
0.301368
6.98054e-05
4.30379
0.305355
-0.00034359
4.30375
0.303837
0.000130646
4.30402
0.302475
-0.000755104
4.30369
0.303994
4.30406
0.302012
0.00106374
2.30082
1.45865
7.76487e-05
2.30066
1.45968
-0.000160235
2.30064
1.4593
6.19056e-05
2.30087
1.45887
-0.000581956
2.30066
1.45931
2.30107
1.45847
0.000336971
0.898053
2.09565e-05
0.898509
-4.92091e-05
0.898316
2.75225e-05
0.898175
-0.000233697
0.898404
0.897975
-0.00129922
5.25825
-1.61466
-0.000183484
5.26496
-1.61093
-7.6582e-05
5.26194
-1.6125
-0.000392075
5.26085
-1.61367
0.000408117
5.26343
-1.61239
5.2606
-1.61445
-0.00144535
5.39698
1.32135
-0.000322621
5.39948
1.32404
-0.000302253
5.3983
1.32291
-0.000730803
5.39803
1.32212
-0.000127144
5.39909
1.32305
5.39816
1.32079
-0.000425974
1.87749
-0.00020716
1.87855
-0.000192684
1.87801
-0.000406036
1.87783
-0.000380353
1.87827
1.87698
-0.000383689
1.63045
-3.85964
-0.000153904
1.63078
-3.85689
-7.92848e-05
1.6303
-3.85814
-0.000478054
1.63014
-3.85879
-0.000424011
1.63077
-3.85814
1.62979
-3.85981
0.000475355
3.16635
-0.215028
-0.000262795
3.16868
-0.213127
-0.000498226
3.16732
-0.213864
-0.000494751
3.16702
-0.214756
-0.000580598
3.16824
-0.214321
3.16634
-0.216349
-6.01412e-05
1.52923
-5.29311e-05
1.52986
-5.33681e-05
1.52946
-0.000108217
1.52932
0.000174682
1.52947
1.52843
0.000327074
-0.704155
-4.20572
-0.000186354
-0.708726
-4.20292
-0.000306284
-0.707057
-4.20414
-0.000531458
-0.706463
-4.20456
-0.000875026
-0.707734
-4.20395
-0.706643
-4.20547
0.0027521
-0.186097
-0.735839
4.63291e-05
-0.183613
-0.735535
-0.000286225
-0.185085
-0.735507
5.02165e-05
-0.185452
-0.736107
-0.00122015
-0.184663
-0.736123
-0.187496
-0.736723
0.000319988
1.25903
0.000131737
1.25966
0.0001619
1.25936
0.000186171
1.25923
0.000384102
1.25919
1.25848
0.000498925
-2.33746
-3.25693
-0.000174859
-2.34069
-3.25591
-0.000200533
-2.3394
-3.25647
-0.000485149
-2.33907
-3.25627
-0.00109247
-2.34016
-3.25611
-2.33948
-3.2569
0.00245534
-2.67618
-0.39957
5.44519e-05
-2.67428
-0.399549
-0.000224706
-2.67517
-0.399444
-9.06485e-05
-2.67549
-0.399811
-0.0014727
-2.67503
-0.399869
-2.67719
-0.400482
-0.000107283
0.767961
0.000216579
0.768345
0.000385974
0.768117
0.000377876
0.768072
0.000726129
0.767971
0.767331
0.000927045
-3.01102
-3.45665
-0.000197441
-3.01296
-3.45707
-0.00020122
-3.01215
-3.45718
-0.000107131
-3.01203
-3.45654
-0.00112857
-3.01265
-3.45655
-3.01181
-3.45731
0.00126147
-2.99371
-0.418145
-7.87604e-05
-2.99304
-0.418143
-0.000138065
-2.99334
-0.418204
-1.55896e-05
-2.99352
-0.418444
-0.000455813
-2.99335
-0.418744
-2.99398
-0.418773
-0.000148002
0.394533
0.000107345
0.394308
0.00010671
0.394371
0.000204708
0.394309
0.000686646
0.39402
0.394196
0.000678114
-1.94686
-2.81328
-5.09929e-05
-1.94672
-2.81406
-3.8055e-05
-1.94692
-2.81407
0.000201731
-1.94708
-2.81326
0.000218065
-1.94775
-2.8132
-1.94623
-2.8141
8.08503e-06
-2.05789
-0.307119
0.000202387
-2.05763
-0.307429
0.000741236
-2.05784
-0.307819
0.000414066
-2.05811
-0.307087
-0.00063053
-2.05862
-0.306835
-2.05729
-0.308349
-7.7394e-05
0.387979
3.76317e-05
0.387449
-0.000121578
0.387773
0.000131607
0.387402
0.000630745
0.386537
0.388503
-0.000211313
-1.76955
-1.59772
-0.000488941
-1.77024
-1.598
-0.00108588
-1.76971
-1.59808
-0.000177278
-1.7711
-1.59773
0.0021571
-1.77394
-1.59723
-1.76659
-1.59856
8.26604e-05
-1.74641
-0.330344
3.9829e-05
-1.74738
-0.330255
0.000628675
-1.74694
-0.331178
-9.43186e-05
-1.74765
-0.329823
-0.00202726
-1.74955
-0.329294
-1.74481
-0.332156
0.000263828
-0.0572431
0.000279524
-0.0574424
0.000471564
-0.057349
0.000133395
-0.0576515
-0.00118497
-0.0582343
-0.0568787
-0.000900527
-0.509985
-1.11255
1.62343
-0.00122481
-0.511075
-1.11213
1.62353
-0.00338491
-0.508406
-1.1122
1.62276
-0.00155649
-0.512544
-1.11207
1.62278
0.00423118
-0.513258
-1.11236
1.61983
-0.505609
-1.11125
1.62109
-0.00844458
-0.555271
-0.977749
1.03148
-0.00029575
-0.558646
-0.977574
1.017
0.0159143
-0.555789
-0.983193
1.01437
-0.00393994
-0.558959
-0.954985
1.02125
-0.0316079
-0.567059
-0.939242
1.02071
-0.548677
-0.988289
0.999746
-0.00458076
-0.238269
0.425283
-0.00307497
-0.235841
0.417789
0.000245615
-0.235415
0.415704
-0.00433487
-0.235429
0.419823
-0.00871971
-0.234707
0.422577
-0.232633
0.4058
-0.000107756
-0.257649
-0.85479
-0.000311615
-0.256935
-0.854993
-0.000488562
-0.257039
-0.854982
0.000113774
-0.257974
-0.854697
0.00116203
-0.258744
-0.854662
-0.255264
-0.854826
-0.00251333
-0.40175
-0.831134
-0.00162957
-0.402869
-0.832524
-0.00044354
-0.403981
-0.837437
-0.00136534
-0.394853
-0.817185
-0.000491142
-0.391484
-0.807377
-0.402141
-0.841903
-0.00205242
0.0197389
-0.00208283
0.0202179
-0.0035567
0.0206081
-0.00287519
0.0204655
9.00453e-05
0.0202996
0.0213496
-0.000192049
-0.304041
-0.550557
-0.000468772
-0.304173
-0.550543
-0.00100812
-0.303765
-0.550677
-6.61281e-05
-0.305604
-0.550035
0.00195898
-0.306866
-0.549821
-0.302293
-0.550575
-0.000768722
-0.655326
-0.47908
-0.00393238
-0.6549
-0.478631
-0.0104181
-0.655548
-0.479168
-0.000957061
-0.655773
-0.476478
0.0219789
-0.664336
-0.472841
-0.640764
-0.48145
-0.000645502
0.123074
-0.00113555
0.123727
-0.00250738
0.123808
-0.000664497
0.124188
0.00259658
0.124526
0.124398
-0.000253054
-0.406063
-0.144241
-0.000436094
-0.40608
-0.14428
-0.000378355
-0.406517
-0.144219
5.61491e-05
-0.405877
-0.144592
0.00079733
-0.405324
-0.145238
-0.406144
-0.143633
-0.00311668
-0.848095
-0.033929
-0.00342632
-0.850247
-0.0341552
-0.00982886
-0.844996
-0.0342848
-0.00246956
-0.85841
-0.0313054
0.0198923
-0.873143
-0.0273849
-0.830059
-0.0376432
-0.000466524
0.286875
-0.000105565
0.286632
-0.000276921
0.287402
-0.000367387
0.286523
0.000734085
0.284849
0.28925
-0.000354567
-0.481114
0.337227
-0.000579496
-0.481402
0.337347
-0.00115515
-0.480978
0.337335
-1.41762e-05
-0.482928
0.337195
0.00249148
-0.484617
0.336873
-0.478701
0.337559
-0.00140228
-0.845665
0.332026
-0.0018077
-0.847351
0.332192
-0.00564601
-0.844232
0.332801
-0.00109135
-0.851268
0.332476
0.013878
-0.86043
0.333456
-0.835294
0.332825
-0.000280796
0.487319
-5.87529e-06
0.487025
-0.000373692
0.487738
-0.000194959
0.486828
0.00110188
0.485511
0.489169
-0.000228054
-1.26027
-0.000452443
-1.26043
-0.000960846
-1.26024
-7.18667e-05
-1.26143
0.00207454
-1.2625
-1.25892
-0.000754276
-1.25783
-0.000621345
-1.25863
-0.00161459
-1.25762
-0.000565581
-1.25983
0.00400066
-1.26291
-1.25425
6.65741e-05
0.00021867
0.000765305
8.12915e-05
-0.00141347
-0.000284271
2.31025
0.102018
-0.000395668
2.31041
0.101847
-0.00041345
2.31046
0.101758
-0.000271186
2.3105
0.101513
0.000316251
2.31062
0.10119
2.31029
0.101734
-0.000133551
2.21737
0.0930163
-0.000205554
2.21751
0.0929677
-0.000216381
2.21755
0.0929227
-0.000151387
2.21759
0.0928471
4.62243e-05
2.21764
0.0927817
2.21747
0.0928636
-4.04709e-05
0.0349754
-6.5759e-05
0.0349636
-7.09241e-05
0.0349514
-5.27047e-05
0.0349369
-5.10922e-06
0.0349289
0.0349342
-0.000731521
2.33449
0.319831
-0.000966124
2.33476
0.319357
-0.00117292
2.33487
0.319108
-0.0008437
2.33501
0.318598
0.000761835
2.33539
0.318172
2.33461
0.318367
-0.000295443
2.18168
0.246125
-0.000435293
2.18186
0.246004
-0.000468291
2.18194
0.245883
-0.000362318
2.18202
0.245724
4.98314e-05
2.18213
0.245628
2.18191
0.245613
-7.9778e-05
0.0918002
-0.000125263
0.0917746
-0.000135465
0.0917436
-0.000101646
0.0917002
-3.79407e-06
0.0916724
0.0917041
-0.00217804
2.30857
0.841463
-0.00288298
2.30942
0.841228
-0.0048971
2.30945
0.840594
-0.00248269
2.31068
0.840651
0.00473776
2.31245
0.840928
2.3085
0.836608
-0.000700001
2.04345
0.51195
-0.000997771
2.04378
0.511934
-0.00115855
2.04398
0.511517
-0.000980122
2.0442
0.51203
-2.22973e-06
2.04449
0.512604
2.04411
0.510001
-0.000172511
0.174955
-0.000246505
0.174927
-0.000260982
0.174885
-0.000213949
0.174857
-2.5652e-05
0.17486
0.174799
-0.00424415
2.12637
1.61473
-0.00593108
2.12845
1.61514
-0.0102732
2.12737
1.61448
-0.00473447
2.13212
1.61327
0.00694039
2.13635
1.61363
2.12591
1.60965
-0.001346
1.74983
0.889831
-0.00191726
1.75049
0.890469
-0.00306097
1.75067
0.889358
-0.00206938
1.75142
0.891738
0.00104687
1.75223
0.893609
1.75104
0.885914
-0.000307306
0.281734
-0.00041012
0.281791
-0.000545616
0.281688
-0.000452355
0.281953
-3.14288e-06
0.282157
0.281322
-0.00389493
1.48342
1.97161
-0.00768386
1.48588
1.97208
-0.00668505
1.48499
1.97266
-0.00959019
1.48931
1.96936
-0.0105771
1.49301
1.97193
1.4879
1.97417
-0.00166106
1.21158
1.16333
-0.00245065
1.21244
1.1647
-0.00390022
1.21237
1.16343
-0.00312644
1.21368
1.1666
0.00020484
1.21466
1.16863
1.21353
1.16049
-0.000385584
0.344414
-0.000506698
0.344608
-0.000889815
0.344417
-0.000576562
0.344835
0.000331604
0.344989
0.344073
-0.00216614
0.367863
1.75404
-0.0036749
0.368914
1.75451
-0.00185891
0.36975
1.75429
-0.00640709
0.368062
1.75206
-0.00803953
0.36917
1.75407
0.372812
1.75091
-0.00114178
0.43477
1.09756
-0.00136597
0.435186
1.09865
-0.00147488
0.435256
1.09803
-0.00169666
0.435836
1.09905
-0.000694881
0.436426
1.10037
0.436572
1.09604
-0.000324839
0.323823
-0.000461902
0.323894
-0.0007605
0.323802
-0.000568785
0.323714
1.53749e-05
0.323688
0.323607
-0.00325837
-0.537155
1.24751
-0.00448074
-0.5373
1.24807
-0.0040259
-0.536497
1.24771
-0.00693245
-0.537296
1.24551
0.000577537
-0.535821
1.24735
-0.535558
1.24245
-0.000719603
-0.209407
0.770528
-0.000779539
-0.209142
0.770545
-0.000560103
-0.208765
0.770073
-0.000997126
-0.207939
0.770121
-0.000779872
-0.206516
0.770845
-0.208024
0.767718
-0.000493786
0.218521
-0.000853263
0.21842
-0.00119816
0.218415
-0.000951609
0.218172
0.000553162
0.2178
0.218585
-0.00638967
-0.877365
0.816926
-0.00925706
-0.876239
0.818208
-0.0155485
-0.875351
0.823185
-0.0107055
-0.872396
0.818062
0.00679348
-0.867433
0.823687
-0.872394
0.817966
-0.00129561
-0.803657
0.698113
-0.0024149
-0.802552
0.697973
-0.00223517
-0.802516
0.697057
-0.00339667
-0.800581
0.699465
-0.00527832
-0.798796
0.704087
-0.800592
0.690639
-0.00061718
0.239083
-0.000887055
0.238926
-0.000843865
0.238574
-0.0009775
0.239744
-0.00113295
0.240764
0.237689
0.00420897
-0.744213
0.0691123
-0.00235124
-0.744882
0.0667237
-0.0160955
-0.743052
0.0759135
-0.0085219
-0.744649
0.0523481
0.0292609
-0.738706
0.0441735
-0.747495
0.0600797
-0.00139571
-0.666216
0.621511
-0.00305234
-0.665745
0.620493
-0.000712898
-0.666205
0.617872
-0.00371324
-0.66246
0.620278
-0.0100226
-0.656514
0.628206
-0.668877
0.602
-0.00125912
0.298581
-0.00153789
0.297962
-0.00160409
0.297069
-0.00174529
0.29839
0.000410393
0.298737
0.295742
-0.00605257
-1.80861
-0.920386
-0.00464608
-1.80676
-0.91792
0.00344832
-1.80013
-0.907333
-0.0224
-1.81735
-0.93536
-0.0136317
-1.8087
-0.952758
-1.80222
-0.907699
-0.00633325
-1.7896
0.608831
-0.00926798
-1.79071
0.607389
-0.00580633
-1.78964
0.603921
-0.010325
-1.78334
0.590786
-0.00421459
-1.77094
0.584344
-1.79222
0.587785
-0.001541
0.244102
-0.00339955
0.242785
-0.00733679
0.24217
-0.00352571
0.241813
0.0122648
0.23958
0.240987
0.00132346
-2.138
-2.57639
0.0124245
-2.13968
-2.56753
0.0391227
-2.14272
-2.55568
-0.000343463
-2.0617
-2.58533
-0.0227467
-1.94928
-2.63256
-2.11819
-2.54354
-0.0218208
-1.8535
0.346158
-0.0503539
-1.8561
0.352344
-0.0932253
-1.85253
0.356607
-0.0742868
-1.82471
0.334858
0.0444673
-1.80859
0.324899
-1.83954
0.353597
-0.00189111
0.275517
-0.00918973
0.278693
-0.0221309
0.280689
-0.00965031
0.272298
0.0215918
0.261602
0.286642
0.00364182
-3.33357
0.010637
-3.32557
0.0209372
-3.31541
0.0139396
-3.23667
-0.0136049
-3.11929
-3.26746
-0.012446
-1.94349
-0.030997
-1.93767
-0.0379927
-1.93745
-0.0345185
-1.88403
-0.00467995
-1.80352
-1.9188
-0.00480578
-0.0160834
-0.0254693
-0.0125029
0.00510706
)
;

boundaryField
{
    seabed_topleft_surface
    {
        type            calculated;
        value           uniform 0;
    }