/*--------------------------------*- C++ -*----------------------------------*\
| =========                 |                                                 |
| \\      /  F ield         | OpenFOAM: The Open Source CFD Toolbox           |
|  \\    /   O peration     | Version:  v1612+                                |
|   \\  /    A nd           | Web:      www.OpenFOAM.com                      |
|    \\/     M anipulation  |                                                 |
\*---------------------------------------------------------------------------*/
FoamFile
{
    version     2.0;
    format      ascii;
    class       volVectorField;
    location    "4.75";
    object      U;
}
// * * * * * * * * * * * * * * * * * * * * * * * * * * * * * * * * * * * * * //

dimensions      [0 1 -1 0 0 0 0];

internalField   nonuniform List<vector> 
1116
(
(0.140416 -1.32516e-05 -0.178651)
(0.140415 -1.71187e-05 -0.178658)
(0.140417 -4.91497e-06 -0.178648)
(0.140418 -1.5416e-06 -0.178647)
(0.140416 2.86927e-06 -0.178657)
(0.140413 7.42895e-06 -0.178646)
(0.422501 -8.69232e-06 -0.316241)
(0.422511 -1.60654e-05 -0.316256)
(0.422509 -4.70003e-06 -0.316238)
(0.422511 2.60704e-07 -0.316234)
(0.42251 1.65638e-06 -0.316251)
(0.422499 2.84908e-06 -0.316239)
(0.606322 -5.25473e-07 -0.324165)
(0.606349 -1.04901e-05 -0.324185)
(0.606344 -3.20402e-06 -0.324166)
(0.606345 8.45918e-07 -0.32416)
(0.606346 -3.82323e-06 -0.324179)
(0.606326 -4.86141e-06 -0.32417)
(0.574048 8.34591e-06 -0.27223)
(0.574089 -6.95771e-07 -0.272256)
(0.57408 -2.53335e-06 -0.272238)
(0.57408 -1.9964e-06 -0.272233)
(0.574084 -9.93278e-06 -0.272252)
(0.574055 -1.04727e-05 -0.272242)
(0.157123 7.14314e-06 -0.138043)
(0.15719 4.64377e-07 -0.138071)
(0.157176 -4.39857e-06 -0.138057)
(0.157175 -6.52103e-06 -0.138053)
(0.157189 -1.41754e-05 -0.138071)
(0.157143 -1.23215e-05 -0.138059)
(-0.725197 1.46656e-05 0.155395)
(-0.72512 1.27071e-05 0.155393)
(-0.725131 -4.28686e-06 0.15539)
(-0.725128 -1.10336e-06 0.155392)
(-0.72511 -1.48772e-05 0.155387)
(-0.725172 -1.5621e-05 0.155392)
(-1.83387 -1.28031e-05 0.477894)
(-1.83382 1.29915e-05 0.477911)
(-1.8338 1.6722e-05 0.477903)
(-1.8338 3.09288e-06 0.477906)
(-1.83379 -9.53764e-06 0.477907)
(-1.83387 -8.35384e-06 0.477913)
(-3.05271 -3.3406e-05 0.437062)
(-3.05275 4.7846e-06 0.437138)
(-3.05265 2.89275e-05 0.437121)
(-3.05264 7.07893e-06 0.437124)
(-3.05265 -5.46915e-06 0.437144)
(-3.05276 -1.68163e-06 0.437072)
(-3.80556 2.802e-05 -0.0934322)
(-3.80575 2.98307e-05 -0.0933272)
(-3.80558 8.47921e-06 -0.0933247)
(-3.80557 1.77513e-05 -0.0933188)
(-3.80562 -2.2822e-05 -0.0933)
(-3.80565 -2.14969e-05 -0.0934468)
(-3.41178 0.000230418 -0.81741)
(-3.4122 0.00013548 -0.8173)
(-3.41195 -8.54478e-05 -0.817287)
(-3.41196 3.87515e-05 -0.817286)
(-3.4121 -8.41392e-05 -0.817279)
(-3.41188 -0.000108915 -0.817429)
(-2.1651 0.000291957 -1.20483)
(-2.16531 0.000162474 -1.20464)
(-2.16514 -0.000135924 -1.20469)
(-2.16521 2.9152e-05 -1.2047)
(-2.16533 -0.000130472 -1.20465)
(-2.16509 -0.000164532 -1.20487)
(-0.812738 -3.55201e-05 -0.844885)
(-0.81256 -5.0014e-05 -0.844808)
(-0.812602 -2.14774e-05 -0.84487)
(-0.812648 -1.19828e-05 -0.844854)
(-0.812653 -5.24127e-05 -0.844803)
(-0.812671 -4.67866e-05 -0.844979)
(1.1301 -7.9899e-05 -0.754153)
(1.13011 -8.55154e-05 -0.754263)
(1.1301 1.61776e-06 -0.754306)
(1.1301 1.72897e-05 -0.75428)
(1.13012 0.000103832 -0.754262)
(1.1301 9.02725e-05 -0.754206)
(3.42682 -0.000105885 -0.450269)
(3.42676 -0.000121034 -0.450371)
(3.42676 7.96996e-06 -0.450427)
(3.42674 2.21547e-05 -0.450395)
(3.42675 0.000157661 -0.450364)
(3.42685 0.000124996 -0.450328)
(5.86922 -0.000119434 0.2225)
(5.86908 -0.000108696 0.22246)
(5.86901 1.44131e-05 0.222416)
(5.86901 -2.73836e-05 0.222446)
(5.86904 0.000162738 0.222478)
(5.86923 0.000132651 0.222481)
(4.29585 -1.15695e-05 0.665615)
(4.29608 -1.99534e-05 0.66564)
(4.29606 -5.00458e-06 0.665631)
(4.29588 -3.70871e-05 0.665638)
(4.29592 5.38152e-07 0.665651)
(4.29601 -1.6031e-06 0.665646)
(1.35178 6.03634e-05 1.13657)
(1.3528 2.02498e-05 1.13653)
(1.35237 -3.24673e-05 1.13653)
(1.35235 -1.20289e-05 1.13653)
(1.35269 -6.04709e-05 1.13652)
(1.35209 -6.33447e-05 1.1365)
(-1.07685 0.000333383 1.69245)
(-1.07663 0.000192242 1.69257)
(-1.0767 -0.000159108 1.69251)
(-1.07666 8.08602e-05 1.6925)
(-1.0766 -0.000111015 1.69254)
(-1.07677 -0.00021195 1.69246)
(-1.85133 7.71067e-05 1.5883)
(-1.85116 6.02571e-05 1.58832)
(-1.85119 -2.42243e-05 1.58832)
(-1.85117 2.86552e-05 1.58833)
(-1.8511 -4.76346e-05 1.58835)
(-1.85131 -7.45296e-05 1.58831)
(-2.40963 7.17122e-05 1.01797)
(-2.40977 4.2079e-05 1.01791)
(-2.40965 -3.39946e-05 1.01797)
(-2.40962 2.71032e-05 1.01799)
(-2.40964 -1.91335e-05 1.01798)
(-2.40971 -4.21271e-05 1.01796)
(-2.55652 0.000337701 0.158273)
(-2.55692 0.000176729 0.158449)
(-2.55669 -0.000142665 0.158448)
(-2.55668 9.344e-05 0.158446)
(-2.55677 -6.15282e-05 0.158502)
(-2.55664 -0.000129789 0.1583)
(-2.05104 0.00060911 -0.887868)
(-2.05099 0.000322126 -0.886799)
(-2.0509 -0.000280243 -0.887132)
(-2.05104 0.000114958 -0.88726)
(-2.05105 -0.000111751 -0.88695)
(-2.05096 -0.000221398 -0.887648)
(-1.51977 6.0702e-05 -1.84333)
(-1.51794 1.60469e-05 -1.84202)
(-1.51854 -8.10113e-05 -1.84248)
(-1.51898 -7.66252e-05 -1.84271)
(-1.51864 -1.12699e-05 -1.84234)
(-1.51896 2.20877e-05 -1.84309)
(-0.882893 -0.000459799 -1.71857)
(-0.882714 -0.000272699 -1.71897)
(-0.882697 0.000109553 -1.71884)
(-0.882799 -0.000174737 -1.71884)
(-0.882921 9.85612e-05 -1.71893)
(-0.882704 0.000185847 -1.71884)
(-0.801841 -2.63391e-05 -3.20755)
(-0.801714 -2.69947e-06 -3.20803)
(-0.801752 2.52779e-05 -3.20796)
(-0.801739 1.7604e-05 -3.20795)
(-0.801688 4.59286e-05 -3.20802)
(-0.801824 4.95346e-05 -3.20754)
(-2.32544 -8.93176e-05 -3.1651)
(-2.3253 -4.47529e-05 -3.16558)
(-2.32534 3.96709e-05 -3.16554)
(-2.32533 5.55478e-06 -3.16554)
(-2.32527 9.38574e-05 -3.16558)
(-2.32535 0.000106789 -3.16509)
(-2.36626 -0.000109522 -1.69481)
(-2.36627 -7.82038e-05 -1.69551)
(-2.36627 4.99101e-06 -1.69544)
(-2.36621 -2.39347e-05 -1.69544)
(-2.36617 8.07708e-05 -1.6955)
(-2.36595 9.5507e-05 -1.69493)
(-1.19148 0.000591186 3.15102)
(-1.19222 0.000415306 3.14978)
(-1.1921 -0.000137253 3.15013)
(-1.19208 0.000172039 3.15014)
(-1.19218 -2.57941e-05 3.14984)
(-1.19136 -0.000187582 3.15053)
(-1.5923 0.000726648 6.76357)
(-1.58401 0.00038967 6.76541)
(-1.58715 -0.000344249 6.76459)
(-1.58782 0.000162873 6.7643)
(-1.58533 -9.47399e-05 6.76477)
(-1.58779 -0.000283234 6.76397)
(-6.63353 0.00169943 4.40518)
(-6.63431 0.000977832 4.41188)
(-6.63374 -0.00090294 4.40889)
(-6.63402 0.000317561 4.40839)
(-6.63418 -0.00059487 4.41057)
(-6.63346 -0.00105423 4.40707)
(-3.74021 0.000548161 1.89581)
(-3.7394 0.000290474 1.89679)
(-3.7398 -0.000258383 1.89636)
(-3.73982 0.000154922 1.89631)
(-3.73956 -0.000190898 1.89666)
(-3.74004 -0.000350131 1.89604)
(-2.71282 0.000558511 0.892629)
(-2.71181 0.000277966 0.893994)
(-2.71228 -0.00025907 0.893389)
(-2.71236 0.000183205 0.893313)
(-2.71202 -0.000137797 0.893781)
(-2.71262 -0.000311845 0.892942)
(-2.10215 0.00027181 -0.403671)
(-2.10038 7.77423e-05 -0.401454)
(-2.10116 -0.000138994 -0.402413)
(-2.10137 0.000128808 -0.40258)
(-2.10081 -6.13765e-05 -0.401833)
(-2.10173 -0.00015148 -0.403169)
(-1.47594 -0.000975083 -1.63786)
(-1.47202 -0.000650925 -1.63532)
(-1.47381 0.000444116 -1.6364)
(-1.47407 -0.000198603 -1.63668)
(-1.47285 0.000199553 -1.63587)
(-1.47514 0.000485414 -1.63725)
(-0.650003 -0.00163594 -2.36276)
(-0.645431 -0.00100394 -2.3612)
(-0.647743 0.000691946 -2.3619)
(-0.64742 -0.000475724 -2.36223)
(-0.645869 0.000376123 -2.36187)
(-0.649776 0.000863478 -2.36237)
(-1.44753 -0.000631954 -2.33976)
(-1.44732 -0.000285033 -2.34074)
(-1.44742 0.000149878 -2.34029)
(-1.44745 -0.000442251 -2.34059)
(-1.44768 0.000407512 -2.34117)
(-1.44729 0.000621103 -2.33969)
(-0.0802808 -2.02375e-05 -0.00425964)
(-0.0803189 -1.40271e-05 -0.00499252)
(-0.0802969 1.33999e-05 -0.00485901)
(-0.0803009 -1.13553e-06 -0.00486778)
(-0.0803138 3.20116e-05 -0.00501812)
(-0.0802611 2.17809e-05 -0.00426286)
(-0.871146 -5.12241e-05 -0.203587)
(-0.871197 -2.80694e-05 -0.2042)
(-0.871166 3.20968e-05 -0.204101)
(-0.871168 -8.67236e-06 -0.20411)
(-0.871179 2.59139e-05 -0.204233)
(-0.871107 2.22268e-05 -0.203588)
(-1.32452 -8.71195e-05 -0.564982)
(-1.32502 -3.19121e-05 -0.56569)
(-1.32482 3.70432e-05 -0.56554)
(-1.32477 -4.80601e-05 -0.565544)
(-1.32488 1.38021e-08 -0.565691)
(-1.32455 2.10857e-05 -0.565192)
(-2.57202 0.000632183 0.788361)
(-2.57322 0.00045122 0.786875)
(-2.57276 -0.00021289 0.787348)
(-2.57268 8.63823e-05 0.787429)
(-2.57301 -0.000111237 0.786875)
(-2.5724 -0.000262056 0.787497)
(-0.0198114 0.000730503 8.82574)
(-0.0124446 0.000327481 8.82834)
(-0.0151521 -0.000506059 8.82702)
(-0.0166921 4.81369e-05 8.82654)
(-0.0143965 -0.000138284 8.82717)
(-0.0173211 -0.000327502 8.82608)
(-7.47954 0.000106324 1.3983)
(-7.47533 5.31867e-05 1.41212)
(-7.47697 -0.00033987 1.40588)
(-7.47875 -0.000132942 1.40393)
(-7.47697 1.09051e-05 1.40918)
(-7.47849 -0.000115893 1.40246)
(-6.94446 -0.00141653 -1.94635)
(-6.94233 -0.000957463 -1.94175)
(-6.94339 0.000579284 -1.94386)
(-6.944 -0.000132926 -1.94404)
(-6.94305 0.000264516 -1.94237)
(-6.94423 0.000520439 -1.94515)
(-5.38298 -0.0025755 -1.83122)
(-5.37779 -0.00160771 -1.82755)
(-5.38018 0.00122484 -1.82927)
(-5.38089 -0.000443594 -1.82954)
(-5.37899 0.000549107 -1.82803)
(-5.38203 0.00122558 -1.83044)
(-4.12579 -0.00351563 -2.0055)
(-4.11797 -0.00216374 -2.00582)
(-4.12158 0.0017117 -2.00574)
(-4.12227 -0.000770334 -2.00576)
(-4.11955 0.000644651 -2.00554)
(-4.12435 0.00171034 -2.00566)
(-3.32375 -0.00345349 -3.59616)
(-3.31928 -0.0023541 -3.605)
(-3.32191 0.00170227 -3.60103)
(-3.32104 -0.000706593 -3.60037)
(-3.31965 0.000397098 -3.60348)
(-3.32348 0.00157668 -3.59724)
(4.9205 -0.00139071 -2.333)
(4.90782 -0.000903932 -2.3408)
(4.91305 0.000743871 -2.33772)
(4.91553 -0.000792608 -2.33665)
(4.91175 0.000725079 -2.33882)
(4.91478 0.00157589 -2.33602)
(-4.03804 0.000738907 -1.63993)
(-4.03873 0.000958612 -1.63901)
(-4.03841 0.000200231 -1.63969)
(-4.0382 -0.000900622 -1.64012)
(-4.0422 0.000822033 -1.64048)
(-4.03576 0.00161653 -1.63908)
(0.855526 0.000965628 0.893412)
(0.856065 0.00334699 0.892986)
(0.854505 0.00551335 0.891912)
(0.851754 0.00353133 0.890823)
(0.853469 0.0127336 0.890696)
(0.843277 0.0122519 0.886778)
(2.75267 -0.000517234 1.4518)
(2.75491 0.00798993 1.4499)
(2.73952 0.0155241 1.44656)
(2.74133 -0.00404088 1.44032)
(2.77188 0.0460238 1.44467)
(2.6677 0.0564407 1.42436)
(6.10239 -0.00249818 2.23996)
(6.13655 0.0276775 2.23504)
(6.03848 0.0514409 2.25041)
(6.0974 0.0158147 2.23336)
(6.27749 0.106083 2.19827)
(5.7146 0.113771 2.29103)
(11.7478 -4.18562e-05 0.984185)
(11.8708 0.0494659 0.968834)
(11.6439 0.0775757 1.08517)
(11.7493 0.0615449 1.06249)
(12.0345 0.136049 0.910228)
(11.0634 0.118508 1.41421)
(16.0136 0.0104756 -2.6281)
(16.1756 0.0368688 -2.64962)
(15.9916 0.039792 -2.52739)
(16.0371 0.076628 -2.51804)
(16.2454 0.0620523 -2.74428)
(15.5298 0.0279327 -2.08889)
(16.7594 0.0260676 -4.38429)
(16.9461 0.0349544 -4.44651)
(16.8335 0.0383537 -4.43454)
(16.8153 0.137259 -4.39694)
(16.9716 -0.011583 -4.59928)
(16.5876 -0.103284 -4.30261)
(15.171 0.0436721 -4.87293)
(15.3655 0.0647028 -4.9726)
(15.2334 0.101827 -4.99519)
(15.24 0.262706 -4.98665)
(15.4483 -0.0568129 -5.23682)
(14.957 -0.208252 -4.949)
(12.3569 0.0403653 -5.019)
(12.4614 0.0614368 -5.10748)
(12.3634 0.120047 -5.16146)
(12.4446 0.282371 -5.16076)
(12.686 -0.0988603 -5.40233)
(12.1143 -0.238966 -5.17211)
(8.58971 0.00813913 -6.09936)
(8.60492 -0.0192866 -6.14305)
(8.59809 0.0117084 -6.17368)
(8.58584 0.0662096 -6.13934)
(8.67508 -0.136265 -6.24222)
(8.50902 -0.113181 -6.16452)
(4.30338 0.0102905 -6.87983)
(4.33455 -0.031787 -6.91866)
(4.40612 0.0784333 -6.94266)
(4.13095 0.179531 -6.84633)
(4.06879 -0.298209 -7.01735)
(4.39544 -0.242362 -6.85727)
(-5.36905 0.0196634 -4.77237)
(-5.36559 0.0291283 -4.83037)
(-4.71018 0.124612 -5.01674)
(-6.37459 0.290374 -4.34049)
(-7.37255 -0.240436 -4.05711)
(-3.95359 -0.244602 -5.02164)
(-8.16496 0.0412125 1.34071)
(-8.28582 0.112036 1.4196)
(-8.15346 0.375337 1.65136)
(-8.18458 0.436378 1.46231)
(-8.37321 -0.176126 1.91817)
(-7.78439 -0.264133 2.00746)
(0.896598 0.000159104 2.70774)
(0.898014 0.00101968 2.70717)
(0.897521 0.00233484 2.70576)
(0.896318 -0.000312984 2.70415)
(0.899913 0.00971092 2.70402)
(0.890253 0.0112935 2.69789)
(2.61626 -0.00506158 3.86602)
(2.62209 0.00192701 3.86624)
(2.61393 0.00325373 3.85783)
(2.62719 -0.0227908 3.86199)
(2.6608 0.0484698 3.87533)
(2.57392 0.0667984 3.81985)
(4.16114 -0.0178831 6.09264)
(4.21315 -9.84556e-06 6.09166)
(4.12692 0.0109282 6.08328)
(4.28134 -0.0377749 6.08369)
(4.49346 0.0730104 6.07629)
(3.8998 0.111526 6.05209)
(7.79135 -0.0254282 6.48368)
(7.96793 -0.0326431 6.47176)
(7.72894 -0.0226668 6.5379)
(8.02398 -0.0457072 6.47823)
(8.43986 -0.0556759 6.40416)
(7.23948 -0.0072765 6.65946)
(11.7584 -0.0210607 4.46611)
(11.9558 -0.0607603 4.49452)
(11.7232 -0.0941745 4.58014)
(11.8768 -0.108829 4.54129)
(12.3557 -0.146576 4.61565)
(11.3199 -0.0862986 4.71532)
(10.8124 0.0110843 1.93942)
(11.0091 0.00810762 2.05761)
(10.7898 -0.0777716 1.95875)
(10.9869 -0.107948 2.14389)
(11.8212 0.0396871 2.69688)
(10.7775 0.0681959 1.90113)
(9.84583 0.0273044 0.165924)
(9.98043 0.0537821 0.296421)
(9.64327 0.0196307 -0.0667538)
(10.2781 0.0370345 0.55968)
(11.4579 0.0680651 1.81616)
(9.45601 0.0512135 -0.451914)
(9.32414 0.00171783 -1.85789)
(9.34676 -0.00323251 -1.76239)
(9.16748 -0.0116806 -1.98563)
(9.59641 0.00843316 -1.22513)
(10.3744 -0.0132864 0.360293)
(9.04113 0.0111504 -2.2605)
(9.24406 0.000522758 -7.44479)
(9.26455 -0.00428336 -7.46404)
(9.1557 0.00532196 -7.41214)
(9.3572 0.0175033 -7.53216)
(9.45371 -0.0339932 -7.69051)
(9.07001 -0.015983 -7.41696)
(8.64676 -0.0164712 -8.03659)
(8.66882 -0.0210796 -8.04217)
(8.58073 -0.0463025 -8.00351)
(8.8952 -0.112618 -8.13154)
(9.12164 -0.0477206 -8.44239)
(8.5126 0.0932108 -7.99866)
(5.46436 -0.0105637 -3.78709)
(5.4821 0.0115518 -3.86083)
(5.56037 -0.0172613 -4.18728)
(5.40103 -0.00467293 -3.17497)
(5.24322 -0.0175958 -2.44579)
(5.60734 0.0838793 -4.53536)
(-1.2155 0.0973719 6.36093)
(-1.15193 0.262442 6.03703)
(-0.461409 0.579838 4.47881)
(-2.01895 1.22046 8.61388)
(-2.89739 0.00381353 9.85634)
(0.0967686 -0.658382 2.7786)
(0.422792 -0.000307843 4.05373)
(0.423855 -0.000605203 4.05363)
(0.424087 6.20744e-05 4.05313)
(0.424712 -0.00124052 4.05202)
(0.427664 0.00314397 4.05228)
(0.421758 0.00468589 4.04825)
(1.12426 -0.00323542 4.9863)
(1.12879 -0.00242053 4.98844)
(1.12848 -0.00370205 4.98395)
(1.13418 -0.0166033 4.98925)
(1.14791 0.0198245 5.0013)
(1.12035 0.0313302 4.96146)
(0.828746 -0.01525 7.10778)
(0.848888 -0.00896515 7.11774)
(0.826326 -0.0124242 7.09859)
(0.894441 -0.0474473 7.13004)
(0.974901 0.048037 7.16077)
(0.772937 0.0792532 7.04546)
(0.518849 -0.0276754 8.16592)
(0.616801 -0.0343495 8.17275)
(0.497071 -0.0315963 8.18406)
(0.747225 -0.0531295 8.18752)
(0.985362 -0.0347381 8.18812)
(0.252092 0.00554773 8.21948)
(1.71419 -0.0303119 4.2431)
(1.87755 -0.0566655 4.22903)
(1.77162 -0.0502951 4.3436)
(1.99506 -0.0547735 4.25931)
(2.26494 -0.101871 4.30097)
(1.58376 -0.0631916 4.62253)
(2.6743 -0.0207774 -3.30396)
(2.83345 -0.0480745 -3.32212)
(2.77074 -0.0422589 -3.25538)
(2.79518 -0.0832915 -3.37852)
(3.01162 -0.0595702 -3.33386)
(2.62471 0.0140735 -3.10589)
(2.64214 -0.0117698 -4.85085)
(2.75693 -0.0322091 -4.86916)
(2.74643 -0.0873579 -4.86048)
(2.67175 -0.214843 -5.03901)
(2.79668 0.0421769 -5.1722)
(2.71092 0.1978 -4.86404)
(2.7292 -0.00744932 -2.76287)
(2.74325 -0.0172172 -2.77695)
(2.68671 -0.0702664 -2.75625)
(2.69008 -0.153174 -2.65705)
(2.7106 0.0608442 -2.57105)
(2.60558 0.135845 -2.7046)
(4.61872 -0.00208918 -6.78845)
(4.67436 0.00359694 -6.82769)
(4.65835 0.0335342 -6.82432)
(4.60216 0.0740206 -6.89032)
(4.5588 -0.0476135 -7.49269)
(4.66445 -0.0439254 -6.85042)
(7.1844 -0.016872 -8.51295)
(7.22434 -0.0114362 -8.49113)
(7.16791 -0.0416427 -8.45582)
(7.35098 -0.106364 -8.50365)
(7.65507 -0.0178999 -9.15049)
(7.16481 0.10685 -8.40356)
(6.30555 -0.0282464 -6.46558)
(6.32502 0.00102289 -6.49926)
(6.24887 -0.146273 -6.55861)
(6.51449 -0.38016 -6.31932)
(7.05666 0.118812 -6.23629)
(6.23774 0.387112 -6.61286)
(2.37663 -0.0276133 -0.730165)
(2.40962 0.0287655 -0.942042)
(2.43601 -0.162563 -1.36862)
(2.3665 -0.465345 -0.320898)
(2.47527 0.637039 5.80845)
(2.48101 0.42798 -1.78699)
(0.05677 -0.000276576 4.52416)
(0.0571408 -0.000608731 4.52442)
(0.0573345 -0.000443518 4.52445)
(0.0577117 -0.000860286 4.52414)
(0.0587976 0.000666494 4.52469)
(0.0569965 0.00140737 4.52258)
(0.0347455 -0.00103403 4.98933)
(0.036949 -0.00170858 4.99079)
(0.0375499 -0.0019756 4.99031)
(0.0403926 -0.00498276 4.99221)
(0.0448704 0.0032042 4.99749)
(0.0364136 0.00677441 4.9842)
(-0.789338 -0.00603728 5.98617)
(-0.784605 -0.00604733 5.99325)
(-0.785666 -0.0101919 5.98669)
(-0.774561 -0.0231757 6.00467)
(-0.762158 0.0182235 6.02568)
(-0.784174 0.0310322 5.96465)
(-2.7332 -0.0137843 6.64686)
(-2.71544 -0.013182 6.66122)
(-2.73851 -0.0171216 6.65286)
(-2.67294 -0.0331912 6.68807)
(-2.61817 0.00607757 6.71396)
(-2.77999 0.024333 6.64587)
(-4.11429 -0.0131713 4.47184)
(-4.072 -0.0191067 4.48195)
(-4.11367 -0.0130719 4.50258)
(-4.00577 -0.0158009 4.49665)
(-3.93766 -0.0415296 4.52068)
(-4.19144 -0.0285451 4.56058)
(-4.02871 0.00168485 0.920826)
(-3.9876 -0.00926434 0.928584)
(-4.0165 0.000382676 0.939937)
(-3.96547 0.00801386 0.920856)
(-3.96263 -0.0606452 0.936855)
(-4.06254 -0.0540534 0.954574)
(-2.73056 0.00638277 -1.45971)
(-2.70054 0.00215605 -1.44874)
(-2.70539 0.00832718 -1.44179)
(-2.69568 0.0278763 -1.43857)
(-2.73603 -0.0345805 -1.3795)
(-2.6906 -0.0475529 -1.45202)
(-1.39615 -0.00374264 -2.14757)
(-1.38606 -0.0124125 -2.13154)
(-1.38116 -0.0225299 -2.12808)
(-1.3883 -0.0341128 -2.09065)
(-1.43489 -0.0193797 -2.029)
(-1.35245 0.00138025 -2.13739)
(-0.91207 -0.00594404 -2.63755)
(-0.818273 -0.00544624 -2.71086)
(-0.851011 -0.00458564 -2.74268)
(-0.911909 -0.00611506 -2.74965)
(-0.621888 -0.00965489 -2.70432)
(-0.772492 -0.00177352 -2.90214)
(4.06966 -0.0125691 -6.79453)
(4.13423 -0.0100411 -6.78176)
(4.18531 -0.0265993 -6.79042)
(4.11391 -0.0357024 -6.69664)
(4.31483 0.0162187 -6.15315)
(4.30477 0.0285691 -6.77024)
(5.33634 -0.0139008 -6.79031)
(5.3644 -0.00583074 -6.78286)
(5.37841 -0.102426 -6.79381)
(5.4878 -0.244874 -6.62617)
(5.8389 0.0749781 -6.44066)
(5.4862 0.21345 -6.74995)
(3.46558 -0.01546 -3.56819)
(3.48403 -0.01901 -3.57309)
(3.50628 -0.207796 -3.60524)
(3.46256 -0.567741 -3.39489)
(3.63791 0.0920993 -3.25761)
(3.56124 0.489007 -3.58789)
(-0.165106 5.58799e-05 -1.17128)
(-0.165171 4.76639e-05 -1.17164)
(-0.165161 -1.97167e-05 -1.17157)
(-0.165165 1.45969e-06 -1.17157)
(-0.165177 -6.33911e-05 -1.17165)
(-0.165125 -7.00499e-05 -1.17128)
(-0.148327 2.48037e-05 0.0254134)
(-0.148334 1.38462e-05 0.0251652)
(-0.148333 -1.10429e-05 0.0252055)
(-0.148337 4.3105e-06 0.0252073)
(-0.148339 -2.05102e-05 0.0251612)
(-0.148343 -3.21172e-05 0.025416)
(-0.0175185 1.77293e-05 -0.113374)
(-0.0175158 1.65445e-05 -0.113526)
(-0.0175159 -2.85843e-06 -0.1135)
(-0.0175169 2.0129e-07 -0.113494)
(-0.0175172 -2.1137e-05 -0.113519)
(-0.0175213 -2.20071e-05 -0.113368)
(-0.642893 -3.05263e-05 -1.0247)
(-0.643041 -1.75149e-05 -1.02498)
(-0.643014 -1.78503e-05 -1.02495)
(-0.643028 -3.3624e-05 -1.02496)
(-0.643066 -4.92653e-05 -1.02502)
(-0.642932 -3.42243e-05 -1.0247)
(-0.517606 -1.78026e-05 0.169737)
(-0.51761 -2.31793e-05 0.169548)
(-0.517604 -1.98117e-05 0.169569)
(-0.517613 -1.89954e-05 0.169571)
(-0.51762 -1.98042e-05 0.16953)
(-0.517632 -1.8901e-05 0.169744)
(-0.0337549 1.88917e-05 0.0744559)
(-0.033756 1.7928e-05 0.0743108)
(-0.0337563 -4.24652e-06 0.0743218)
(-0.0337609 -3.43711e-06 0.0743248)
(-0.0337612 -2.67132e-05 0.0742984)
(-0.0337672 -2.66352e-05 0.0744463)
(-0.945316 -0.00018212 -0.410265)
(-0.946145 -0.000108148 -0.410607)
(-0.945906 2.5086e-05 -0.410582)
(-0.945926 -0.000105899 -0.41059)
(-0.946138 -1.53492e-05 -0.410641)
(-0.945681 5.24405e-05 -0.41033)
(-0.884066 -0.000130089 0.323429)
(-0.884272 -8.9271e-05 0.323275)
(-0.88418 1.27987e-06 0.323289)
(-0.884208 -7.24141e-05 0.323293)
(-0.884271 -9.95155e-07 0.323268)
(-0.884238 3.72647e-05 0.323446)
(-0.083573 -2.0621e-06 0.597233)
(-0.083582 -4.81644e-06 0.597144)
(-0.0835778 -1.50676e-05 0.597135)
(-0.0835869 -1.84512e-05 0.597147)
(-0.0835835 -2.51318e-05 0.597138)
(-0.0835977 -2.19772e-05 0.597274)
(-2.14521 0.00013533 1.7731)
(-2.14683 9.62931e-05 1.77288)
(-2.14631 -4.23747e-05 1.77287)
(-2.14636 -2.12654e-05 1.773)
(-2.14682 -3.20788e-05 1.77285)
(-2.14611 -5.7157e-05 1.77311)
(-1.58069 -0.000124237 0.709884)
(-1.58176 -0.000101799 0.709758)
(-1.58133 -2.76247e-07 0.709723)
(-1.5814 -5.00793e-05 0.70985)
(-1.58167 3.19065e-05 0.709758)
(-1.58125 4.73909e-05 0.710088)
(-0.166112 -5.19009e-05 1.09906)
(-0.166123 -4.25703e-05 1.09917)
(-0.16608 -2.40913e-05 1.09912)
(-0.166142 -3.8645e-05 1.09917)
(-0.166124 -7.41549e-06 1.0992)
(-0.166244 -5.46802e-06 1.09928)
(1.43445 0.00173188 9.12623)
(1.43374 0.00108527 9.12652)
(1.43424 -0.000777405 9.1261)
(1.43398 0.000312592 9.1264)
(1.4336 -0.000271812 9.12598)
(1.43388 -0.000805642 9.12614)
(0.158026 0.00122451 6.31789)
(0.155347 0.000678702 6.31725)
(0.156526 -0.00057291 6.31727)
(0.156579 0.000337518 6.31783)
(0.155623 -0.000259388 6.31719)
(0.156967 -0.000722563 6.31816)
(-0.601506 0.000337695 2.30696)
(-0.602248 0.000207101 2.30675)
(-0.601899 -0.000169099 2.30678)
(-0.601951 0.000110238 2.30712)
(-0.602134 -8.59238e-05 2.30689)
(-0.601683 -0.000264454 2.30761)
(-1.19643 -0.00110414 8.92511)
(-1.18437 -0.000738918 8.94293)
(-1.18927 0.000269034 8.93478)
(-1.19286 -0.000497796 8.93187)
(-1.18816 5.24733e-05 8.93876)
(-1.19408 0.000445074 8.9309)
(4.4558 -0.00118485 12.0796)
(4.46286 -0.000980411 12.0867)
(4.45995 7.91488e-05 12.0835)
(4.4582 -0.000575317 12.0824)
(4.46097 -0.000421832 12.0852)
(4.45612 -4.34187e-05 12.0825)
(3.83281 -0.000337524 8.19212)
(3.83546 -0.000382181 8.19443)
(3.83423 -0.000112501 8.19328)
(3.83377 -0.000184556 8.19327)
(3.8349 -0.00045358 8.19441)
(3.83254 -0.000432892 8.19363)
(-5.67065 -0.000387057 -0.621685)
(-5.66713 -0.000355161 -0.625431)
(-5.66874 0.000124939 -0.624958)
(-5.67009 -0.000284958 -0.625102)
(-5.66937 -0.000514352 -0.624766)
(-5.67202 -0.00025168 -0.623516)
(0.564729 0.00027103 6.00793)
(0.567395 0.00016658 6.01249)
(0.566242 -0.000344983 6.00996)
(0.565 -0.000601218 6.0091)
(0.565737 -0.000542988 6.01155)
(0.562177 -0.000253951 6.00724)
(3.40314 -3.64823e-05 6.49779)
(3.40466 -4.94649e-05 6.50272)
(3.4038 -1.47146e-05 6.49998)
(3.40344 -0.000165379 6.49949)
(3.40406 6.45001e-05 6.50165)
(3.40138 0.000149238 6.49858)
(-8.70025 0.000921727 -2.60064)
(-8.69226 5.96162e-05 -2.62425)
(-8.69576 -0.000598948 -2.61476)
(-8.69704 0.000101502 -2.61161)
(-8.69514 -0.000909036 -2.61845)
(-8.69956 -0.000985627 -2.60706)
(-1.31323 0.00267218 -0.471429)
(-1.30975 0.00151505 -0.467418)
(-1.31093 -0.00120572 -0.469731)
(-1.31247 0.000533394 -0.470538)
(-1.31188 -0.000554729 -0.469078)
(-1.31428 -0.00122714 -0.475204)
(3.13875 0.000448418 0.0805045)
(3.13985 0.000204343 0.0859149)
(3.1392 -1.68637e-05 0.082668)
(3.13895 0.000200137 0.0820402)
(3.13896 0.000248852 0.0835225)
(3.13751 0.000206368 0.078912)
(-7.34903 0.00131074 -3.87184)
(-7.34567 0.000120601 -3.89389)
(-7.34713 -0.000684684 -3.88454)
(-7.34744 0.000408118 -3.88209)
(-7.34681 -0.00111174 -3.88918)
(-7.34845 -0.0011727 -3.87758)
(-1.13259 0.00273964 -4.68599)
(-1.13488 0.00138666 -4.68249)
(-1.13361 -0.0011967 -4.68414)
(-1.13423 0.000649985 -4.68483)
(-1.13483 -0.000879026 -4.6835)
(-1.13465 -0.00139334 -4.68924)
(2.0074 -0.000157257 -4.11237)
(2.00888 9.20113e-06 -4.10911)
(2.00818 0.000384057 -4.11065)
(2.00798 0.000225571 -4.11104)
(2.00778 0.000599661 -4.11073)
(2.00633 0.000567887 -4.11288)
(-6.30204 0.00157914 -6.71016)
(-6.3016 0.000293559 -6.72072)
(-6.30227 -0.000792657 -6.71599)
(-6.30122 0.000513819 -6.71487)
(-6.30149 -0.000857658 -6.71865)
(-6.30268 -0.000941972 -6.71299)
(-0.549547 0.00147476 -5.77853)
(-0.547563 0.000498102 -5.77777)
(-0.548292 -0.000571931 -5.77831)
(-0.549086 0.000245068 -5.77839)
(-0.548893 -0.000334142 -5.77765)
(-0.551179 -0.000192171 -5.77986)
(0.971498 -0.000193737 -4.87496)
(0.971452 -3.31446e-05 -4.87329)
(0.971323 0.000214337 -4.87392)
(0.97135 -5.21277e-05 -4.87443)
(0.971174 0.000508825 -4.87447)
(0.970073 0.00061224 -4.87497)
(-7.43313 0.000503715 -2.38085)
(-7.43547 0.000246142 -2.37994)
(-7.43538 -8.74694e-05 -2.38054)
(-7.43323 -0.000105107 -2.38058)
(-7.43324 0.000236123 -2.38149)
(-7.4353 0.000497627 -2.37984)
(-0.790572 0.000131336 -4.32585)
(-0.792435 -8.79293e-05 -4.32586)
(-0.792032 0.000398559 -4.32621)
(-0.792172 0.000858427 -4.3264)
(-0.793421 -0.000251282 -4.32776)
(-0.791364 -0.000605136 -4.32472)
(0.756552 -8.47427e-05 -3.73767)
(0.755752 -1.31362e-05 -3.73694)
(0.756097 5.54886e-05 -3.73732)
(0.755848 -0.000262046 -3.73804)
(0.754879 0.000472258 -3.73837)
(0.756564 0.000738669 -3.73707)
(-4.75822 -0.000283638 -1.04421)
(-4.75904 -0.000168475 -1.04515)
(-4.75943 -0.000555523 -1.04444)
(-4.75793 -0.00175704 -1.04514)
(-4.75651 0.00153691 -1.0479)
(-4.76091 0.00264849 -1.0417)
(-0.476909 0.000222535 -5.39141)
(-0.476512 -0.000137353 -5.39315)
(-0.478233 0.000235789 -5.39231)
(-0.475208 0.00107426 -5.39529)
(-0.473271 -0.00138735 -5.40113)
(-0.480564 -0.00163159 -5.38572)
(0.668355 0.000154215 -2.26917)
(0.66699 0.000296643 -2.27116)
(0.667922 0.000303508 -2.27023)
(0.666645 0.000568288 -2.27066)
(0.66398 -0.000533477 -2.27287)
(0.67055 -0.000965422 -2.26764)
(2.65556 -0.00127888 -0.413185)
(2.65275 -0.00138798 -0.413083)
(2.65365 -0.00245913 -0.411138)
(2.65188 -0.0075984 -0.426418)
(2.65357 0.00350411 -0.438784)
(2.64775 0.00813916 -0.412558)
(2.54194 -0.00813415 -2.00595)
(2.51893 -0.0164557 -2.01297)
(2.52254 0.0169098 -2.0013)
(2.51074 0.0222111 -2.0158)
(2.49918 -0.0391573 -2.01906)
(2.48974 -0.0338371 -1.98305)
(1.09304 -0.00511998 -2.1363)
(1.08177 -0.007669 -2.14991)
(1.08159 -0.00140621 -2.14183)
(1.07664 0.00192423 -2.14086)
(1.06714 -0.0131862 -2.17775)
(1.07232 -0.0136532 -2.11502)
(1.94641 -2.19367e-05 -0.582093)
(1.9477 -0.000291538 -0.583302)
(1.94768 -0.000496066 -0.583741)
(1.94566 -0.00118399 -0.579773)
(1.94407 0.00140014 -0.575904)
(1.9493 0.00258757 -0.586512)
(1.76924 -0.00278236 -0.840231)
(1.78959 -0.00454162 -0.837568)
(1.80776 0.000805419 -0.841244)
(1.70454 -0.00280399 -0.830671)
(1.65234 -0.00435975 -0.828261)
(1.85401 0.00703914 -0.828614)
(0.00793346 -0.00251759 -1.92294)
(0.00820981 -0.00281275 -1.92772)
(0.00616324 -0.00438473 -1.92722)
(0.00897784 -0.00528515 -1.90273)
(0.0127563 -0.000867679 -1.89614)
(0.00246881 -0.00018694 -1.92181)
(1.4488 -0.000271698 -0.110598)
(1.44856 -0.000353063 -0.111436)
(1.44862 -0.000869103 -0.111695)
(1.44835 -0.00245651 -0.109419)
(1.44862 0.00222599 -0.106242)
(1.44745 0.00400275 -0.11437)
(1.48249 -0.0015401 -1.77628)
(1.47428 -0.00180491 -1.77525)
(1.47742 -0.0082464 -1.77503)
(1.47717 -0.024476 -1.77949)
(1.47159 0.0219975 -1.79066)
(1.4703 0.0421681 -1.75742)
(-0.124468 -0.000730976 -2.24486)
(-0.126881 -0.000915675 -2.24471)
(-0.126582 -0.00293757 -2.24305)
(-0.128141 -0.00391225 -2.25526)
(-0.130304 0.00250885 -2.28763)
(-0.126437 0.00372467 -2.19367)
(0.713566 -0.000479275 0.193302)
(0.713703 -0.00044944 0.192358)
(0.71389 -0.000348196 0.192026)
(0.71305 -0.00132876 0.194241)
(0.713159 0.00125079 0.197195)
(0.713461 0.00235802 0.189241)
(0.503667 -0.00512702 -2.43968)
(0.506451 -0.00388494 -2.44133)
(0.506613 -0.00620848 -2.43642)
(0.498642 -0.0241596 -2.45184)
(0.490924 0.0174276 -2.46784)
(0.516693 0.0394163 -2.41663)
(-0.307133 -0.00044879 -3.00333)
(-0.307428 -0.000541997 -3.00986)
(-0.308077 -7.49708e-05 -2.99407)
(-0.308516 -0.000522563 -3.03211)
(-0.308226 0.000308257 -3.07538)
(-0.310058 0.000515273 -2.94983)
(-0.156273 -0.000684691 0.390038)
(-0.156406 -0.000381561 0.388985)
(-0.156539 -0.00103429 0.389058)
(-0.155538 -0.00296592 0.390007)
(-0.154172 0.00287493 0.391382)
(-0.15755 0.00459179 0.38781)
(-0.404869 -0.0028168 -2.77476)
(-0.4065 -0.00205485 -2.77633)
(-0.406439 -0.00253116 -2.77212)
(-0.409493 -0.0157595 -2.78683)
(-0.415424 0.012256 -2.80189)
(-0.403857 0.0299231 -2.75477)
(-0.957278 -0.000407312 -3.07484)
(-0.956097 -7.82242e-05 -3.08172)
(-0.958687 -0.00019459 -3.06983)
(-0.954586 -0.000841918 -3.09333)
(-0.948393 0.00104175 -3.12657)
(-0.964676 0.000528668 -3.03842)
(-1.30531 -0.000511059 0.610969)
(-1.30558 -0.000265741 0.609762)
(-1.30543 -0.000838623 0.610289)
(-1.3056 -0.00245797 0.610245)
(-1.30539 0.00228488 0.608978)
(-1.30545 0.00367774 0.61163)
(-0.904498 -0.00111483 -6.8424)
(-0.904281 -0.00137541 -6.84259)
(-0.906433 -0.000298865 -6.84131)
(-0.90343 -0.00462358 -6.8483)
(-0.902577 0.00285783 -6.85384)
(-0.908542 0.00945241 -6.83451)
(-0.686086 0.000101729 -2.32446)
(-0.686053 0.000171898 -2.32872)
(-0.686226 0.000505507 -2.32434)
(-0.686727 0.00152572 -2.33103)
(-0.687488 -0.001208 -2.34387)
(-0.685912 -0.00284674 -2.31081)
(-0.0777669 -0.000148317 4.42265)
(-0.0776277 -0.000342279 4.42297)
(-0.077523 -0.000362612 4.42309)
(-0.0773434 -0.000440615 4.42315)
(-0.0770716 7.68944e-05 4.42352)
(-0.0774762 0.000344297 4.42252)
(-0.0791359 -6.83625e-05 4.18943)
(-0.0790858 -0.000166649 4.18971)
(-0.0790388 -0.000198088 4.18979)
(-0.0789738 -0.000198142 4.18988)
(-0.078914 -2.52907e-05 4.19002)
(-0.0789775 6.96812e-05 4.18961)
(-0.0306897 -2.01686e-05 4.03183)
(-0.0306758 -5.17568e-05 4.03209)
(-0.0306637 -6.50271e-05 4.03215)
(-0.0306484 -6.10878e-05 4.0322)
(-0.0306384 -2.19068e-05 4.03226)
(-0.0306461 4.08248e-06 4.032)
(-0.335997 -0.000394234 4.55958)
(-0.335379 -0.000852922 4.56022)
(-0.33507 -0.000947333 4.56043)
(-0.334111 -0.00128813 4.56076)
(-0.332984 0.000103568 4.56211)
(-0.334928 0.000908137 4.55954)
(-0.295101 -0.000155539 4.17092)
(-0.294929 -0.000359129 4.17131)
(-0.294777 -0.000428953 4.17148)
(-0.294495 -0.000421837 4.17167)