/*--------------------------------*- C++ -*----------------------------------*\
| =========                 |                                                 |
| \\      /  F ield         | OpenFOAM: The Open Source CFD Toolbox           |
|  \\    /   O peration     | Version:  v1612+                                |
|   \\  /    A nd           | Web:      www.OpenFOAM.com                      |
|    \\/     M anipulation  |                                                 |
\*---------------------------------------------------------------------------*/
FoamFile
{
    version     2.0;
    format      ascii;
    class       surfaceScalarField;
    location    "8.7";
    object      alphaPhi;
}
// * * * * * * * * * * * * * * * * * * * * * * * * * * * * * * * * * * * * * //

dimensions      [0 3 -1 0 0 0 0];

internalField   nonuniform List<scalar> 
2916
(
-0.00547868
0.163224
-0.151061
0.00577495
0.146639
-0.152114
0.0257369
0.140064
-0.154796
0.0113065
0.17263
-0.151041
-0.0182425
0.187148
-0.148934
0.142168
-0.155272
0.00370764
0.268506
-0.0818672
-0.00244205
0.256559
-0.0774352
-0.0141814
0.251371
-0.073889
-0.00561503
0.269287
-0.0777145
0.0075326
0.279389
-0.0763451
0.248116
-0.0732239
0.00565655
0.340206
-0.0453125
-0.000476038
0.334
-0.0401782
-0.0130349
0.331273
-0.0365697
-0.00566907
0.339807
-0.0458302
0.0103951
0.346347
-0.0499171
0.327417
-0.0385012
0.00294841
0.361244
-0.0218975
-3.11705e-05
0.358386
-0.0193251
-0.006409
0.357948
-0.0182133
-0.00285061
0.360874
-0.0225443
0.0067165
0.364118
-0.0252913
0.356296
-0.020142
0.000194917
0.382846
-0.0197896
-0.000502458
0.379126
-0.0180377
-0.00189178
0.380407
-0.0190636
-0.00147692
0.381395
-0.0189334
0.000481726
0.383296
-0.019152
0.379593
-0.020842
-0.000692347
0.414447
-0.0289036
-0.00061241
0.408998
-0.0279468
-0.000150005
0.410709
-0.0287595
-0.00126318
0.41275
-0.0282416
-0.00339918
0.414899
-0.027476
0.409475
-0.0312962
0.000847046
0.41113
-0.0507189
-0.000512314
0.407898
-0.0511951
-0.000864495
0.409049
-0.0514195
-0.00119407
0.410205
-0.0506054
-0.00116855
0.409205
-0.0483491
0.409405
-0.0537401
-0.000193922
0.330077
-0.00924205
-0.00080494
0.329519
-0.0146531
-0.000740681
0.330663
-0.0143485
-0.00146839
0.329021
-0.0100294
-0.00166469
0.325408
-0.00565247
0.33182
-0.0185228
-0.00252469
0.273319
0.0856533
-0.00031714
0.271456
0.084519
0.000409074
0.272139
0.0852433
-0.000731212
0.273631
0.084539
-0.00219678
0.271579
0.0839817
0.272365
0.0852622
0.000885191
0.125418
0.104768
5.80145e-05
0.115972
0.112448
-0.000610836
0.117477
0.111329
0.00367294
0.124978
0.103422
0.00335461
0.127105
0.103853
0.112695
0.117412
0.00401033
0.0493555
0.0420989
0.00150725
0.0346103
0.0766379
-2.15182e-05
0.0354702
0.0499756
0.00492793
0.0497115
0.040911
0.00681615
0.0573252
0.0390119
0.0302081
0.0774556
0.00142732
0.0289152
0.000557604
0.0214586
0.00147624
0.0208894
0.00053521
0.0306062
0.00265724
0.033074
0.0199354
-1.85865e-05
0.106408
-7.80366e-05
-0.00670872
0.122924
-3.82671e-05
-0.0133789
0.12688
-2.79439e-05
-0.00657314
0.0942257
-5.39979e-05
0.0052929
0.0806513
-8.63827e-05
0.121073
-2.41266e-05
0.00462796
0.217795
-2.62302e-05
0.00442562
0.219697
-1.54514e-05
0.00471878
0.21768
-1.61566e-05
0.00509947
0.216932
-1.11285e-05
0.0028635
0.221124
-1.50499e-05
0.215634
-8.85606e-06
0.00612718
0.361082
-6.78743e-07
0.00409112
0.362303
-4.31003e-07
0.000616161
0.360076
-4.79077e-07
0.00285754
0.36569
-2.06731e-07
0.00891558
0.377513
-4.25694e-07
0.359591
-2.59441e-07
0.0030847
0.581616
-0.0330978
0.00128757
0.584488
-0.0296698
-0.00202211
0.583051
-0.0288805
0.00152236
0.584155
-0.0326876
0.00954884
0.590439
-0.033383
0.579402
-0.0270169
0.00112748
0.811418
-0.0607157
-0.000421508
0.812022
-0.0590721
-0.00151871
0.81208
-0.0600058
-0.000187934
0.811967
-0.0599714
0.00307189
0.814984
-0.059574
0.806773
-0.0602647
0.00107843
1.00786
-0.0891616
-0.000754385
1.00817
-0.0885136
-0.00225652
1.00746
-0.0887577
-0.00138739
1.00938
-0.0893619
0.000152718
1.01097
-0.0883817
1.0051
-0.0921918
0.00244006
1.19873
-0.114418
-0.000334523
1.20668
-0.115221
-0.00263835
1.20303
-0.114291
-0.00156875
1.20317
-0.115445
0.00142518
1.20392
-0.114202
1.20267
-0.117083
0.00274314
1.29203
-0.110373
-1.56758e-05
1.3194
-0.112576
-0.00243113
1.31029
-0.112213
-0.00140521
1.30297
-0.110798
0.00317038
1.30162
-0.110143
1.31875
-0.111383
0.000842282
0.680172
-0.0518388
6.53016e-05
0.70044
-0.0468258
-0.000270621
0.686015
-0.0475634
-0.00131309
0.69705
-0.0506874
-0.00422006
0.712891
-0.0523379
0.692802
-0.0489602
-0.00215577
0.496744
0.00530191
0.000493176
0.60123
0.00545416
0.00161114
0.482055
0.00552137
-0.000206438
0.491176
0.00446248
-0.00553184
0.473029
0.00496548
0.564341
0.00706853
-0.0141636
0.632662
0.0260568
0.0042156
0.446992
0.020729
0.0152739
0.607434
0.0229372
-0.00150866
0.635072
0.0259179
-0.0138878
0.625221
0.0240818
0.458873
0.021595
-0.0429268
0.144033
0.00279383
0.119632
0.0251925
0.136019
-0.0191712
0.141241
-0.0231879
0.112982
0.122881
1.92692e-07
1.45496e-06
-8.01241e-05
-1.10037e-07
1.10048e-06
-3.93032e-05
-5.63125e-07
9.16621e-07
-2.86986e-05
-3.93808e-07
7.20849e-07
-5.48612e-05
5.90484e-07
8.76518e-07
-8.84279e-05
7.00719e-07
-2.44171e-05
1.04817e-08
7.04931e-07
-2.55135e-05
4.9104e-08
4.52748e-07
-1.4856e-05
1.27564e-07
5.06168e-07
-1.58408e-05
3.12578e-08
2.1452e-07
-1.05285e-05
9.04653e-09
4.43904e-07
-1.46056e-05
2.99096e-07
-8.48263e-06
3.77736e-11
2.2746e-08
3.42601e-09
7.57239e-10
1.87039e-08
2.34152e-09
1.21649e-09
2.34726e-08
3.15908e-09
5.91395e-10
7.44574e-09
1.00548e-09
1.9668e-09
1.5134e-08
1.72492e-09
1.58367e-08
-1.22875e-09
-1.3989e-05
0.0107927
-8.10059e-07
-7.54561e-05
0.0104801
1.81546e-05
-0.000237565
0.0106253
2.62957e-05
5.85125e-05
0.0106829
1.2284e-06
0.000978037
0.010962
-2.31645e-06
0.0117524
7.12516e-05
-0.000153214
0.0594401
-3.68534e-08
-0.000419995
0.0603281
-1.72804e-05
-0.000476388
0.0605685
-2.41804e-05
-0.00013363
0.0592334
-1.1187e-06
0.000793279
0.0584056
-7.00543e-08
0.0634878
-6.59645e-05
-0.00101948
0.176503
-2.0654e-08
-0.000768644
0.17758
-8.85976e-07
0.00013416
0.177727
-1.21874e-06
-0.000460525
0.177524
-1.41846e-07
-0.00214142
0.175473
-1.44758e-06
0.182326
-3.79508e-06
-0.00348186
0.301394
-1.70772e-05
-0.000656352
0.295172
-1.46479e-05
0.00218552
0.295947
-1.41345e-05
-0.000754548
0.301814
-1.78938e-05
-0.00621744
0.30195
-2.16427e-05
0.296098
-5.23822e-06
-0.00511734
0.441654
-1.45342e-05
-0.000843262
0.423875
-1.87935e-05
0.0040579
0.426795
-1.50207e-05
-0.0023393
0.438355
-1.53722e-05
-0.00895696
0.44198
-1.85486e-05
0.42129
-9.03619e-06
0.00345443
0.895112
-8.14339e-07
-0.000121643
0.873815
-1.85604e-06
0.00246643
0.876536
-1.99475e-06
-0.00138953
0.881573
-1.77123e-06
-0.00845439
0.886036
-1.7719e-06
0.877316
-9.41209e-07
0.01834
0.955677
-0.000457936
-0.00195709
1.01513
-6.25454e-07
-0.0088048
0.988463
-6.36071e-06
0.00709647
0.974124
-5.88794e-05
0.012415
1.00392
-4.80224e-05
0.964864
-1.04097e-07
-0.00714769
0.471065
0.137448
0.00113004
0.582298
0.109492
-0.00202604
0.539813
0.122474
-0.00155464
0.476465
0.141521
-0.00208659
0.529164
0.138271
0.535916
0.114436
-0.00977206
-0.031775
0.00226611
-0.0496135
0.00759189
-0.0434943
-0.000173421
-0.0288858
-0.0145116
-0.0305195
-0.0509991
6.44123e-06
-5.15665e-05
-0.000131427
1.3121e-06
-2.2958e-05
-5.34652e-05
-3.06159e-06
-1.61246e-05
-3.52709e-05
4.31003e-07
-1.91597e-05
-0.000105352
1.4334e-05
-3.59119e-05
-0.000149009
-1.14395e-05
-3.57402e-05
-3.65836e-07
-3.39821e-09
-7.23084e-05
1.86992e-06
-2.23917e-09
-3.37661e-05
5.49087e-06
-2.92444e-09
-4.00523e-05
1.41613e-06
-9.91045e-10
-7.74068e-06
-1.77073e-07
-1.76251e-09
-4.60005e-05
7.63827e-07
-2.41576e-05
-4.22312e-12
3.20189e-11
1.25343e-16
-3.57562e-12
1.01705e-10
4.86907e-18
-1.10023e-12
2.32165e-10
2.28154e-19
-1.86505e-12
1.52003e-11
2.47046e-17
-5.7146e-11
1.82659e-11
3.02324e-15
6.74622e-07
2.82552e-17
-8.37951e-07
2.79239e-08
6.6732e-18
-8.73458e-07
1.81903e-05
-1.20017e-18
-5.23096e-08
2.54748e-05
-2.00739e-17
-2.52504e-09
1.17864e-06
7.58272e-20
-2.39286e-06
7.39059e-08
1.79499e-16
6.95334e-05
8.32638e-19
-1.09332e-08
2.00395e-09
7.22982e-19
-1.03575e-08
9.09275e-07
-1.54512e-19
-1.23677e-09
1.2853e-06
-9.60977e-19
-4.19857e-11
5.87402e-08
1.01104e-20
7.11227e-11
3.73847e-09
1.63013e-17
3.56899e-06
-2.68305e-15
-2.14126e-10
3.19209e-09
-2.69564e-08
-1.70264e-10
7.35434e-08
-2.01408e-08
-1.96452e-10
1.07296e-07
-1.08749e-08
1.11427e-11
2.26793e-08
-2.43071e-07
2.33269e-09
1.0808e-07
-1.55887e-06
3.5938e-07
-5.11987e-07
-2.37557e-08
1.3929e-06
-1.84183e-05
-1.70991e-09
1.1656e-06
-1.58193e-05
1.12587e-08
1.16892e-06
-1.53137e-05
-2.30144e-10
1.40407e-06
-1.93898e-05
-9.5795e-09
1.74432e-06
-2.32031e-05
7.4115e-07
-5.44509e-06
-1.56375e-07
2.84617e-06
-1.54995e-05
-2.99222e-08
3.07409e-06
-2.059e-05
4.28875e-08
2.77138e-06
-1.65452e-05
-5.41175e-08
2.74419e-06
-1.65452e-05
-6.92674e-08
3.10985e-06
-1.9754e-05
1.77876e-06
-9.82643e-06
-2.63029e-08
1.95086e-06
1.96374e-08
-2.03007e-08
1.88039e-06
-3.01156e-07
-4.08694e-09
1.71958e-06
-6.69709e-08
-2.63037e-08
1.62567e-06
3.57595e-09
-2.32562e-08
1.586e-06
-3.61933e-08
1.20501e-06
-8.00398e-08
1.24601e-06
0.00110126
-0.000269833
-3.21126e-08
3.07578e-06
5.24784e-07
-3.16889e-08
1.37903e-05
-1.78062e-05
1.11889e-08
0.000120439
-0.000177576
6.02974e-08
0.000118405
-0.000164722
1.08386e-06
2.9204e-07
0.00742427
0.0046882
-0.0284851
-0.0039934
0.0290222
-0.0129824
-0.0116388
0.022651
-0.0203748
0.00387675
0.00196682
-0.0249014
0.0227473
-0.000878337
-0.0256798
0.0346745
-0.014455
-0.00203155
-0.00491417
0.000652366
-0.00841883
0.00327642
-0.00699942
0.000665266
-0.00707508
-0.00445368
-0.006578
-0.00768716
-0.00243738
0.0544063
-0.0592391
-0.0225443
0.0480899
-0.0356426
0.00892281
0.0519565
-0.0907061
0.0138397
0.0452519
-0.057295
-0.011102
0.0239807
0.000361632
0.0420746
-0.0590019
0.000239165
0.0993494
-0.0528421
-0.0229074
0.0806929
-0.0171735
0.0260244
0.0475155
-0.0516644
0.0510557
0.0360548
-0.0225559
-0.00410878
0.0606557
0.0116608
0.0944788
-0.0613501
0.0270319
0.11015
-0.0454391
0.0184185
0.0888414
-0.00673368
0.039829
0.039531
-0.0201857
0.0218973
0.0453809
0.00268953
-0.0272903
0.0923457
0.0125842
0.116643
-0.0537004
0.0606827
0.0773312
-0.0359263
0.07664
0.055642
0.0096486
0.0249309
0.00456891
0.0484382
-0.0170938
0.0255592
0.0350595
-0.0393095
0.109629
0.000686166
0.134727
-0.0599879
0.0564498
0.0406871
-0.0276431
0.00421372
0.00682896
0.0269258
0.005917
-0.00606563
0.0457208
-0.00110978
0.00568927
0.0423391
-0.0100042
0.00218049
0.0394626
0.0793039
0.00709905
0.0372157
-0.00705538
-0.00539667
0.0483348
-0.0392995
0.0203526
0.0322838
-0.0122876
0.0277932
-0.0321004
0.0487643
0.0268294
-0.0222578
0.00295178
0.032907
0.00406607
0.0269872
0.0212365
-0.0510582
0.00804007
0.0280261
-0.0656429
0.0122033
0.02128
-0.0525643
0.0138434
-0.00496824
0.00702541
0.023448
-0.0228483
-0.00978895
0.0203649
-0.0299146
0.0177608
0.00618929
-0.0734628
0.00881358
0.0195645
-0.085285
0.00635557
0.010496
-0.0689802
0.00646253
0.000875429
-0.00303773
0.0113607
-0.00157295
-0.021617
0.0133001
-0.0461508
0.0100141
-0.00359236
-0.0311793
0.00089575
-0.00095623
-0.0725996
-0.00740908
-0.000226713
-0.0700418
0.00148954
0.000474447
-0.017335
0.00869826
-0.000771114
-0.019325
0.00500723
-0.042304
-0.000134476
-0.000404564
-0.0257305
0.0016115
-0.0109819
-0.0186041
0.00457321
-0.0304056
-0.0516579
-0.00119558
-0.00908774
-0.0366738
0.000157842
-0.00379328
-0.0166202
-0.000805776
-0.0363888
-0.00573425
-0.000542702
-0.012726
-0.00298568
-0.00435005
-0.00859276
0.0022111
-0.0158556
-0.0220754
-0.00288809
-0.0143638
-0.0273979
-0.00270082
0.006034
-0.0180625
-0.0131158
-0.0187772
-0.00711455
-0.00115884
-0.00448684
-0.000592655
-0.00466903
-0.00654507
-0.0100538
-0.00298035
-0.0234387
0.00337321
-0.0180536
-0.0111245
-0.0520676
0.0418952
-0.0531158
-0.0503731
0.0471163
-0.0613882
-0.0638079
0.0247516
-0.0102879
-0.0183792
0.0319571
-0.0813142
-0.00152921
0.0340588
-0.0551924
0.0380725
-0.104993
-0.0521107
0.0747895
-0.0174759
-0.0397847
0.0833094
-0.0272144
-0.0557845
0.0546956
-0.000959239
-0.0154119
0.0608285
-0.0280733
0.0211612
0.0770326
-0.0461374
0.0954169
-0.0993468
-0.0451364
0.118009
-0.00541877
-0.0366847
0.128066
-0.0145333
-0.0251176
0.0561715
-0.0313025
-0.00217291
0.0886968
-0.0417429
0.0342562
0.120557
-0.0549495
0.138166
-0.0518592
-0.080461
0.165102
-0.010149
-0.0209232
0.157122
-0.0491452
0.00645136
0.0383287
0.0114039
-0.0037822
0.119715
0.0107694
0.0252247
0.143587
-0.0545842
0.161524
-0.0586064
0.00177371
0.163474
-0.0345212
0.021495
0.179824
-0.0204816
-0.0135273
0.0411873
0.0581537
-0.0469544
0.0239768
0.0612698
-0.0186391
0.154504
-7.26998e-05
0.185348
-0.0347937
0.0500761
0.153539
-0.050577
0.00684213
0.0613213
0.0125028
-0.0289809
0.0379586
0.0480164
-0.0156502
0.00157046
0.0324738
-0.00672603
0.000243892
0.0367929
0.0202053
0.0401184
0.043745
0.0018679
-0.0263238
0.0159395
-0.00291555
0.014937
0.000293698
0.0122549
0.0138455
-0.00612903
0.00140389
0.0155668
0.00359964
-0.0105211
0.0108112
-0.000448653
0.012099
0.0101535
-0.00482679
-0.000556906
0.00646536
0.0022841
0.00130954
0.000797036
0.0020259
-0.00280573
0.00133015
-0.00457486
0.00908315
0.00296497
-0.00419527
0.00106095
0.00151224
0.000168648
0.00698453
-0.00901484
-0.000801988
0.00107654
-0.000459281
4.18559e-05
0.00050797
0.000453362
-0.000467903
0.000630601
-0.000459632
0.000315629
5.31504e-05
-9.54268e-05
-2.85932e-05
0.000541793
2.45867e-06
0.000745346
-0.00184295
-0.000600675
0.000743099
-0.00348506
9.99809e-05
3.40501e-05
-5.20188e-05
1.30211e-05
-1.91172e-05
-0.000105239
-4.32213e-05
-0.00070628
-0.000198794
-2.72276e-05
-0.00028272
-0.000266416
-3.36377e-05
-0.00307468
-8.72698e-06
-9.40182e-05
-0.00423473
-1.12795e-05
-2.12242e-06
-0.00310388
-0.000151715
-6.80403e-05
-0.000598687
-0.00236584
7.96871e-05
-0.000419781
-0.0130142
-0.00125098
-5.36022e-05
0.0025459
-0.00771696
0.000743757
-0.00601327
0.000904327
-0.0134961
1.22614e-05
-0.0210496
-0.0018291
-0.0165576
-0.00614035
-0.0262499
0.00825168
-8.38835e-10
-0.000835101
0.00540082
-4.20601e-07
-0.0111455
1.53632e-05
-2.69697e-06
-0.00981541
-1.77778e-06
-4.75232e-06
0.0156006
0.00952421
-1.19961e-06
0.0153313
-4.37879e-07
-0.00515959
0.00629454
8.44252e-05
-2.13896e-05
0.000836001
-9.11839e-06
-0.000969723
4.57185e-06
-9.90813e-08
-0.00658131
0.000508177
-1.89388e-08
0.00899698
0.00786489
-8.00215e-06
0.0150863
-6.10506e-06
-0.00101021
0.00758432
0.000189351
-0.00157122
0.00125583
-1.70127e-05
-0.010983
0.0055646
-2.13495e-06
-0.000708489
0.0272291
-7.98743e-08
0.0192179
0.0292427
-1.36636e-05
0.0259473
-0.00137702
-0.00851486
0.0104194
-0.000143186
-0.0402044
0.0483502
-0.000132125
-0.0185373
0.161064
-3.53638e-06
0.0449039
0.131615
-1.8228e-07
0.0576072
0.138729
-9.58389e-06
0.0862372
-0.00261851
-0.0116697
0.0409366
0.00140361
-0.0240879
0.162643
-0.0113094
-0.00841526
0.0887575
-8.40498e-05
0.0343953
0.155547
-0.00354163
0.0778431
0.153491
-0.060808
0.163644
-0.00245994
-0.0318251
0.0748694
-0.00160521
-0.00369184
0.112443
-0.0422415
-0.013656
0.00586523
0.0424043
-0.00942241
0.00929097
0.0520596
0.0222807
0.0321224
0.0113641
0.192669
0.0375312
0.000279112
0.0567796
-0.0150299
-0.00114625
0.0387308
0.000430634
-0.0052384
0.000523739
0.00841412
-0.000396195
-0.000182458
0.01098
0.00586816
-0.00028096
0.0106109
0.000740043
0.0214364
2.9161e-05
0.00156944
-0.00236831
-0.000327054
0.000981915
0.00683632
-0.0029406
0.000156914
0.00133955
-1.33907e-05
-0.000343448
0.00316721
0.000112224
4.37348e-05
0.000584738
0.000142429
0.000909213
-0.000264912
0.0008145
4.35071e-06
-7.75131e-05
0.000238757
0.000416772
-6.39372e-05
0.000105939
3.46473e-05
-0.000108954
-5.58796e-06
1.11851e-05
-9.27855e-05
-3.2746e-07
1.3083e-05
0.000167197
0.000100526
-1.0174e-05
0.000159166
5.26583e-06
4.49927e-05
0.000241648
3.60185e-05
7.92698e-06
0.000146043
7.00116e-06
-1.40633e-05
-2.78306e-05
4.89862e-08
-8.11883e-07
-5.72033e-05
-1.2496e-06
0.000137407
1.89655e-05
5.7948e-06
1.7785e-05
1.23624e-05
0.00107444
-0.00019594
0.000423904
0.00200864
-0.00166893
0.000648402
0.00182398
-0.00290354
0.000563065
0.000955256
-0.00442613
-0.00760843
-0.000202217
0.000367972
0.00250663
-0.0113966
0.00729794
-0.00991302
0.00867852
-0.0118892
0.00110226
-0.014373
-0.00318724
-0.0156484
-0.0102138
-2.15068e-09
4.32584e-09
-1.25007e-07
-4.35808e-07
2.61429e-09
-4.24216e-08
3.2402e-07
1.37341e-11
-3.44154e-06
2.70289e-08
-5.01469e-12
-4.44215e-06
3.33522e-08
3.82567e-09
-1.18869e-06
1.83074e-08
-3.94967e-07
-9.2667e-09
0.000104375
-1.99889e-05
9.64199e-09
1.03663e-07
-9.22302e-06
3.32933e-09
3.58585e-09
-8.30245e-08
2.55486e-09
9.83135e-10
-7.01787e-09
8.48507e-08
6.91491e-08
-8.13658e-06
1.499e-07
-6.14382e-06
-5.27331e-08
0.000304051
-9.95094e-06
2.66546e-08
4.71802e-07
-1.74395e-05
1.92606e-08
3.38405e-08
-2.14277e-06
4.1283e-09
4.40495e-10
-5.10193e-08
7.89187e-08
1.8797e-07
-1.38422e-05
0.00214489
4.37584e-06
8.41934e-05
0.000191538
-0.000116949
6.0473e-07
4.07278e-06
-5.22436e-05
4.21798e-08
3.11677e-07
-3.23445e-06
9.70833e-09
1.64147e-08
-1.5074e-07
9.05802e-08
6.02635e-07
-1.00622e-05
0.00400046
0.000105979
-7.42832e-05
0.000246886
-2.30511e-05
-0.0122612
0.0011227
-0.000243198
-0.000128788
0.0626219
-2.97564e-05
0.0373776
0.0749306
-1.12223e-06
0.00573922
0.0526355
-0.0001017
0.0208856
0.000195894
-0.00370876
0.000453973
-0.000352762
-0.0144234
0.030702
-0.00374796
0.000674064
0.0698584
0.000504528
0.0339257
0.105364
0.0156542
0.0194639
0.0679653
-0.00498227
0.0504763
0.000491302
-0.0151689
0.00840664
-0.00140099
-0.0152195
0.0617934
-0.00689406
-0.00650662
0.00496023
0.017136
0.00803343
-0.00161417
0.0278347
0.0108865
0.000892782
0.018454
0.00457282
0.0130168
-0.011156
0.00837172
0.000540911
-0.00583255
0.00204279
0.00962485
-0.00102946
0.000104058
0.00135902
-0.000213653
-6.92862e-06
0.000732007
-0.000145028
-0.000239723
0.00169742
-0.00028644
0.00174899
-0.000743411
0.000247699
0.00106678
-9.9637e-05
0.000232973
0.00106333
-2.7244e-05
1.08736e-05
4.87307e-05
-4.31014e-05
-4.14259e-07
1.964e-05
-0.00013234
1.81387e-05
9.39087e-05
1.63553e-06
0.000187989
-1.79934e-05
0.000148803
6.12399e-05
-2.95308e-07
0.000159059
8.91497e-05
-5.36025e-07
1.30454e-05
3.69029e-06
-1.2851e-05
1.11036e-05
8.63199e-07
-4.22322e-06
8.79605e-06
9.45094e-07
1.48488e-05
1.523e-06
1.61729e-05
1.77048e-05
1.21472e-05
3.31077e-05
0.000534537
2.05301e-05
3.15806e-05
0.000637221
3.12798e-05
8.12599e-05
0.000815826
3.67741e-05
-1.49762e-05
-0.00634386
-0.000248681
0.000365361
3.36362e-06
0.00354212
-0.0134189
0.00519122
-0.0120618
0.00654626
-0.00990823
0.00544534
-0.0132008
-0.00359818
-0.0143092
-0.0149888
2.13495e-05
2.62964e-05
-5.68931e-05
6.21594e-06
6.3149e-05
-0.000112521
-1.40493e-05
7.48994e-05
-0.000137366
-1.19124e-05
4.35008e-05
-2.97584e-05
-6.20277e-07
-3.91894e-06
-3.56792e-05
8.49848e-05
-0.000110081
-1.3914e-05
0.000184592
-2.22022e-05
2.75131e-07
0.000103261
-2.18923e-07
1.48828e-05
8.62834e-05
-1.99915e-05
-2.53871e-07
0.000185877
-1.10831e-07
-1.94662e-05
0.000163767
-2.80934e-05
0.000199641
1.68046e-18
-4.97838e-05
3.074e-21
-4.26846e-06
-1.82897e-21
6.48448e-05
-5.00649e-19
4.23295e-05
-1.59829e-21
-3.73948e-07
-2.14418e-23
-5.96858e-21
-1.70212e-06
-2.77851e-05
5.59335e-17
-3.46599e-08
-6.97373e-08
2.57367e-18
3.63626e-06
-2.11224e-05
1.59449e-19
4.99112e-08
-3.4873e-09
9.84725e-18
-5.05278e-06
-3.89674e-05
9.70967e-16
3.07671e-18
3.67724e-17
-3.19886e-10
1.18108e-20
3.18339e-16
-2.8898e-07
-7.23536e-23
5.18179e-18
1.14366e-07
-5.35351e-20
-5.12944e-18
4.75859e-11
-6.28362e-23
1.84819e-18
3.50181e-19
-3.54281e-24
2.04075e-15
-2.12514e-22
6.9177e-17
-9.79561e-25
4.06914e-20
-3.93827e-22
-1.50847e-21
2.93732e-22
-5.54872e-19
6.72155e-25
-1.36807e-21
-1.03193e-23
-1.66316e-23
-6.19142e-21
-7.29556e-18
2.90425e-15
-3.4722e-17
4.19132e-21
5.27562e-17
-1.07949e-18
4.45056e-18
-1.40176e-19
-5.82239e-20
3.00575e-16
1.98132e-17
-6.63998e-18
-6.73534e-17
2.02572e-14
-7.52265e-16
3.91724e-16
-7.00699e-18
-1.23456e-16
3.91015e-19
-1.79701e-16
-9.10545e-19
-1.63539e-20
-3.24534e-18
1.37e-19
-6.3267e-18
9.53672e-21
-5.3722e-19
-1.33429e-20
-1.26974e-18
-1.17299e-15
-1.54643e-22
-1.0529e-15
-6.27468e-20
-3.4951e-17
-1.36161e-21
8.85478e-19
-1.59751e-21
-4.10423e-20
3.69063e-20
-5.46288e-19
2.92665e-23
-6.65879e-22
-2.59858e-22
-6.67393e-22
-1.7323e-19
-8.00437e-22
1.37887e-16
-4.02554e-18
-1.24258e-20
-2.28293e-18
1.48949e-20
1.1627e-21
-2.04008e-17
2.55039e-19
8.54441e-18
-1.22248e-17
-4.39846e-20
1.24587e-19
6.3376e-16
-9.65761e-17
5.32241e-18
-6.72598e-19
-2.01438e-18
2.44327e-17
-3.2845e-17
-2.26726e-20
-1.15325e-18
5.2842e-19
-1.52239e-20
-1.80329e-17
4.78227e-18
4.59686e-19
-1.85982e-20
2.88354e-18
2.97577e-20
-1.67758e-20
-1.43068e-16
-5.07003e-18
-1.33093e-18
-1.41258e-21
-6.06269e-19
-5.54281e-20
2.85424e-20
1.01242e-20
4.05009e-19
-5.03914e-23
4.6698e-22
-4.85018e-20
3.78886e-22
1.34824e-19
-5.05857e-23
8.77043e-18
-3.58349e-19
-2.27263e-22
-1.43498e-19
4.05663e-21
1.37592e-22
-7.2636e-19
2.00559e-20
2.68738e-19
-1.02093e-19
-4.70135e-21
-1.38711e-18
3.27586e-17
-6.84916e-18
-2.84292e-15
1.57806e-16
-8.27911e-20
1.86073e-19
-2.15249e-18
-6.853e-22
-3.46657e-18
3.76939e-18
-7.96017e-22
-1.47754e-17
1.88692e-17
8.38276e-20
-4.31259e-22
2.69726e-18
-4.49316e-19
-4.01376e-18
-7.08009e-18
-7.89243e-14
7.60796e-14
-2.4394e-22
-5.7675e-21
-1.64555e-20
1.21483e-19
-3.03333e-25
5.27341e-19
-9.55565e-21
7.50385e-21
-1.0076e-16
9.44149e-17
3.18639e-15
-8.05902e-12
-6.38191e-07
6.12343e-07
7.06926e-12
-3.54839e-07
3.34683e-07
-2.16109e-09
-1.82143e-07
1.73436e-07
2.31524e-09
-7.86126e-07
2.04784e-06
3.3531e-08
-2.03086e-06
3.12076e-06
-4.76586e-07
6.19222e-07
6.61673e-09
-6.25729e-10
1.21641e-06
7.30117e-11
-2.99876e-13
9.1182e-07
-4.21131e-09
-8.56195e-14
8.89007e-07
-9.62802e-10
-1.91181e-10
1.0869e-06
6.23473e-08
-1.91072e-09
1.29545e-06
-1.40582e-12
3.29459e-07
3.01462e-13
-6.26031e-10
5.48802e-18
1.2988e-16
-8.56674e-14
5.39776e-17
-4.9865e-13
-1.90768e-10
1.40633e-12
-1.91263e-09
1.46162e-15
-5.07168e-07
-1.49878e-05
9.91483e-06
-7.01782e-09
-1.23448e-05
9.10308e-06
3.92005e-07
-1.19964e-05
8.04063e-06
9.05966e-08
-1.55573e-05
8.61896e-06
-6.20854e-07
-1.80572e-05
8.60784e-06
-3.87964e-06
3.22193e-06
2.33419e-07
-7.66266e-07
1.54213e-06
9.19334e-08
-2.47118e-08
3.49096e-06
-8.37403e-08
-2.02617e-08
3.74359e-06
1.67774e-07
-3.94746e-07
1.62025e-06
2.56929e-07
-1.09086e-06
1.04449e-06
-9.17186e-09
1.09715e-06
1.82583e-09
-7.68718e-07
9.56535e-12
-2.29044e-08
-5.37038e-10
-1.97152e-08
-9.52217e-11
-3.95379e-07
3.50233e-09
-1.09637e-06
-5.67509e-09
-2.8276e-06
-2.2612e-05
2.44939e-05
-4.66628e-07
-2.15846e-05
7.44021e-06
1.18623e-06
-1.89717e-05
1.07982e-05
-9.78631e-07
-2.09562e-05
2.12512e-05
-3.70831e-06
-2.24523e-05
2.3123e-05
-1.07087e-05
4.17031e-06
-8.6635e-07
-7.57971e-06
4.91813e-06
4.99445e-07
-5.06203e-06
2.28783e-06
1.78381e-06
-4.23602e-06
3.16661e-06
2.95553e-08
-7.82331e-06
6.2744e-06
-2.07397e-06
-9.26501e-06
6.5158e-06
-1.79024e-06
8.03115e-07
4.54323e-07
3.08421e-06
9.46194e-09
-4.6424e-06
1.9526e-09
-4.24825e-06
1.81491e-07
2.21086e-06
1.32756e-07
6.61643e-07
-1.6634e-06
1.8811e-07
6.28469e-07
2.44777e-05
-6.69481e-08
9.27122e-11
3.6493e-06
-1.26703e-07
-1.06231e-08
1.31249e-05
-1.75485e-08
2.59233e-07
2.06586e-05
5.09168e-08
1.29975e-07
2.30947e-05
-2.43466e-08
2.71022e-06
6.77379e-07
6.30992e-06
-7.7265e-07
9.70744e-08
-2.92307e-06
2.56006e-06
-1.10362e-08
5.3328e-07
1.99186e-06
-5.24463e-08
2.40297e-06
2.28648e-06
-3.32959e-07
2.01618e-06
3.08163e-07
-5.08562e-06
1.32193e-06
1.6666e-06
-1.56386e-06
1.26272e-06
-4.45912e-06
1.30954e-06
-1.37698e-05
2.9377e-07
9.73179e-06
-2.3064e-06
-1.63685e-05
-4.92273e-06
-3.93131e-07
0.000883332
-0.00154223
-3.1111e-06
2.48626e-06
1.77654e-05
-1.01971e-05
6.92385e-05
-7.66355e-05
6.78174e-06
0.000533145
-0.000866244
4.21961e-05
0.000448915
-0.000746722
3.9133e-06
4.14448e-05
-4.17149e-09
0.000352937
0.000295012
-9.3506e-07
6.15877e-05
-4.7625e-05
-7.03543e-06
0.000124305
-5.39561e-05
4.05105e-06
0.000252343
0.000262237
5.45447e-06
0.00023771
0.000200414
6.36893e-05
-5.5062e-05
-3.04247e-06
-0.000442353
7.22221e-07
-7.67499e-05
4.41874e-06
-0.000149075
3.65004e-06
-0.000401499
-6.67588e-06
-0.000341006
-7.7468e-05
-0.00228271
-0.0108336
-0.0156527
-0.00103016
-0.00568898
-0.00851629
0.000275764
-0.00954059
-0.0122756
0.000189098
-0.0106292
-0.0151291
0.000399138
-0.0113677
-0.0152462
-0.00588896
-0.00812649
-0.000334319
0.000810148
-0.00664489
-6.58175e-05
0.000596681
-0.00664742
0.000108548
-0.000362641
-0.00645469
-2.2252e-05
0.000711082
-0.0065466
-0.000139777
0.000192948
-0.0066591
0.000644443
-0.00672133
-7.22591e-05
-2.66042e-05
-2.68767e-06
-5.00806e-05
4.11338e-05
-2.73465e-05
-2.41782e-05
-2.79532e-05
-7.07318e-05
-2.2198e-05
-5.44588e-05
-0.00061879
0.00859716
-0.00874553
0.00100391
0.00778841
-0.00876178
0.000249543
0.0078474
-0.00882758
-0.000856206
0.00789135
-0.00884958
-0.00109736
0.00753073
-0.00890143
0.00782684
-0.00850457
-0.000215529
2.58507e-05
0.000680848
0.000129113
5.2575e-05
0.000515537
3.34078e-05
2.60055e-05
0.000742135
-0.000437832
2.70055e-05
0.000892193
-0.000479354
1.88137e-05
0.00059781
5.82841e-05
0.00032982
-7.53521e-07
2.33755e-18
1.74057e-06
-1.26725e-18
3.99295e-07
-1.14746e-14
-5.69161e-07
2.04499e-08
-3.95384e-06
-5.55982e-15
-1.56486e-07
0.00130841
-7.63534e-08
-0.0085499
0.0112307
0.000960555
-1.81423e-07
-0.0086483
0.0127491
-0.000592676
-7.27444e-05
-0.0084603
0.0132564
-0.00134464
-3.35331e-05
-0.00855104
0.0126934
-0.00106535
-7.83894e-07
-0.00876507
0.0124224
-1.38822e-07
-0.00869285
0.0116392
3.28466e-11
-2.64736e-08
2.6256e-11
-4.99433e-08
-6.34752e-08
-3.31625e-08
7.461e-11
-8.47801e-08
-1.63017e-07
-9.86933e-07
1.88402e-07
-7.18292e-05
-1.65803e-09
-2.73854e-07
2.78972e-07
-3.3745e-05
-1.01082e-10
-5.85165e-09
7.96236e-09
-7.88942e-07
-7.90242e-10
1.3662e-09
-1.3957e-07
-3.91122e-09
5.48738e-11
-2.26172e-08
-3.34972e-08
4.69321e-11
-3.6235e-09
2.99093e-09
9.4505e-09
-2.51471e-06
-5.9029e-10
5.87666e-09
-3.54144e-07
2.05862e-11
4.0524e-11
1.12613e-10
5.9168e-12
-2.06205e-10
-5.97117e-05
-7.86331e-11
-0.00428154
-0.000188143
-9.04974e-10
-0.00436649
5.98157e-05
-1.90932e-07
-0.00439393
0.000146243
-2.79069e-07
-0.00436101
9.76774e-06
-7.94191e-09
-0.00430058
-1.36208e-09
-0.00431819
-1.88919e-12
-5.73163e-11
-6.87625e-14
-7.5575e-10
-8.03739e-11
-3.50727e-14
-1.40788e-09
-1.8825e-09
-2.40161e-14
-2.66088e-11
-1.76681e-09
2.52991e-10
-1.86442e-12
-3.71691e-11
1.6147e-11
-6.01724e-12
3.37642e-12
-2.47039e-12
-7.458e-19
-3.59065e-11
-7.88569e-15
2.45782e-11
7.95426e-13
8.98182e-12
6.29521e-13
1.72433e-13
-4.43009e-16
-4.05551e-21
2.78471e-05
-1.70709e-13
-3.47132e-05
5.79599e-05
-1.5048e-11
-0.000133344
3.66873e-05
-1.05209e-11
-9.54768e-05
8.20052e-06
-2.52963e-10
-6.21574e-05
-2.02412e-06
-1.62461e-11
-3.6522e-05
-3.37181e-12
-8.54106e-05
-7.95494e-15
-1.5161e-19
-1.39926e-11
-2.68447e-14
-2.34682e-15
-1.50654e-11
-6.33939e-13
-6.14533e-13
-1.32249e-11
-3.17219e-14
-6.45783e-13
-4.42206e-12
-3.52013e-15
-1.45132e-14
-1.23719e-13
-9.35341e-18
5.16878e-16
-8.98942e-19
6.66766e-22
-1.01967e-14
8.17955e-18
5.62088e-14
1.17508e-13
1.50369e-14
2.49205e-14
1.02369e-17
1.39168e-17
5.34873e-21
-1.46303e-05
-5.91457e-09
0.00367826
-9.24513e-06
-6.65591e-09
0.00362441
4.19237e-06
-8.43979e-09
0.00362873
-7.51177e-06
-5.97153e-09
0.00365182
-4.2917e-05
-1.61393e-09
0.0037112
-7.8763e-10
0.00361428
-5.33193e-12
-2.58073e-22
-5.92323e-09
-9.19613e-12
-3.16454e-18
-6.66711e-09
-5.95618e-12
-1.17148e-13
-8.45615e-09
-1.17607e-12
-2.48786e-14
-5.98071e-09
-3.27717e-13
-2.41949e-17
-1.6149e-09
-2.95128e-22
-7.87957e-10
2.3485e-27
6.90214e-25
4.5466e-22
8.23716e-21
2.94798e-17
3.31666e-16
1.0324e-17
6.11915e-17
5.56748e-21
5.70804e-20
1.0621e-20
-0.000151233
-3.80614e-06
0.00632328
3.6385e-06
-3.40665e-06
0.00585472
3.26725e-05
-4.82714e-06
0.00620071
-4.74152e-05
-5.28569e-06
0.00612899
-0.00016643
-3.03454e-06
0.00615686
-1.73262e-06
0.00584287
-1.32418e-09
-6.89821e-25
-3.81074e-06
-1.30164e-09
8.91171e-23
-3.41334e-06
-8.41848e-10
-3.31494e-16
-4.83605e-06
2.45981e-10
-5.74947e-15
-5.29275e-06
1.00186e-10
-4.26034e-18
-3.03601e-06
-2.3987e-09
-1.73127e-06
1.32196e-28
2.6241e-28
-5.19361e-24
-9.79742e-24
3.26032e-21
1.68021e-19
1.35914e-18
-5.7036e-15
1.19328e-17
-2.64388e-17
2.02364e-09
0.000190295
-0.000676546
6.14488e-06
-0.000513302
9.96983e-05
-0.000737412
0.000278856
-0.000885231
0.00010634
-0.000594688
-0.000330884
5.23561e-07
7.353e-17
-6.55264e-07
-1.1772e-16
-7.67976e-07
-4.96428e-12
1.00176e-06
-2.04404e-08
1.09456e-06
-4.4076e-12
-2.07087e-06
-1.57318e-18
-1.19907e-16
-4.97588e-12
4.41709e-12
3.30905e-15
5.75951e-07
-1.3183e-06
-5.09677e-07
7.83989e-07
-4.3535e-07
3.95885e-08
5.7765e-06
-1.31081e-05
3.59458e-07
-1.91251e-07
-1.56378e-06
-7.96475e-10
-5.09713e-08
-1.14744e-06
-9.59037e-08
-1.76903e-06
3.97774e-07
7.2082e-07
-2.77094e-131
-9.56089e-07
7.82547e-08
-6.7512e-09
-8.93369e-09
8.133e-07
-1.21186e-09
-2.59045e-09
-2.32459e-07
-2.23501e-86
-8.69833e-10
-6.65661e-07
-2.32505e-20
-2.13632e-07
-2.2289e-17
-1.13233e-06
5.71808e-134
2.00626e-134
-1.09296e-10
5.61774e-11
-1.17386e-89
-9.35164e-10
1.69221e-89
1.33455e-89
-2.32773e-20
2.67564e-23
-2.23123e-17
3.98015e-06
-2.54623e-05
7.06e-06
-3.36161e-07
-5.6932e-06
2.20208e-06
3.4784e-08
-6.17592e-08
-2.01235e-08
6.01935e-08
-2.58498e-08
5.16013e-10
-3.91201e-08
-7.87457e-06
1.59553e-07
-1.53366e-05
3.82398e-06
1.435e-06
-4.86009e-16
-3.57599e-06
-2.52543e-08
-5.61235e-11
-4.28947e-07
-5.1575e-10
-3.58136e-08
-3.88043e-09
-1.76925e-08
-3.21163e-09
-2.89759e-09
-2.35958e-06
-1.21506e-12
-1.11516e-06
-2.64767e-14
-2.31581e-06
8.16008e-19
-4.86825e-16
4.29132e-14
1.09019e-14
-5.17344e-11
-2.88323e-09
-2.17606e-16
3.35806e-11
-1.05891e-15
-1.21422e-12
-2.21462e-14
8.25018e-06
-1.65616e-05
1.99118e-05
3.93056e-06
-1.08518e-05
1.2515e-05
2.5319e-07
-1.03224e-07
7.02473e-07
3.16951e-07
-1.1213e-07
1.00614e-08
-2.00179e-06
-8.82652e-06
2.35884e-06
-1.56119e-05
8.95662e-06
3.20073e-06
-6.63543e-13
-9.65621e-08
-1.27593e-07
-2.76273e-09
2.34138e-07
-1.30815e-09