/*--------------------------------*- C++ -*----------------------------------*\
| =========                 |                                                 |
| \\      /  F ield         | OpenFOAM: The Open Source CFD Toolbox           |
|  \\    /   O peration     | Version:  v1612+                                |
|   \\  /    A nd           | Web:      www.OpenFOAM.com                      |
|    \\/     M anipulation  |                                                 |
\*---------------------------------------------------------------------------*/
FoamFile
{
    version     2.0;
    format      ascii;
    class       volScalarField;
    location    "6.45";
    object      p_rgh;
}
// * * * * * * * * * * * * * * * * * * * * * * * * * * * * * * * * * * * * * //

dimensions      [1 -1 -2 0 0 0 0];

internalField   nonuniform List<scalar> 
1116
(
20849.4
20849.4
20849.3
20849.4
20849.4
20849.4
20742.3
20742.4
20742.3
20742.3
20742.3
20742.3
18386.9
18386.7
18386.8
18386.9
18386.9
18386.9
15464.3
15464
15464.1
15464.3
15464.2
15464.3
13359.4
13359.5
13359.4
13359.6
13359.7
13359.4
11998.9
11999.3
11999
11999.7
11999.6
11999
11131.9
11133.3
11132.8
11132.7
11131.9
11133.2
10733.6
10733.4
10733.6
10734.1
10735.2
10732.3
10930.6
10930.1
10930.2
10931.1
10932.8
10928.5
11509.9
11516.7
11513.5
11513.2
11507.9
11519.2
12127.8
12119.8
12125
12124.5
12134.7
12115.8
11648.5
11637.4
11643.1
11646.7
11662.9
11638.3
22530.5
22529.6
22530
22530.2
22530
22530.2
21066.8
21067.3
21067
21066.9
21067.1
21066.9
16816.5
16813.4
16814.5
16815.8
16815.5
16815.2
9306.9
9302.93
9304.2
9305.95
9304.86
9305.81
6041.07
6040.54
6040.94
6040.92
6040.27
6042.05
4545.07
4547.96
4547.6
4545.82
4545.37
4547.88
3659.9
3662.73
3662.79
3660.11
3659.42
3662.66
3152.7
3150.63
3150.49
3152.54
3156.65
3148.18
3994.87
3996.35
3994.4
3996.28
3989.54
4002.09
5610.88
5633.03
5622.19
5619.97
5592.94
5647.09
6262.12
6191.75
6215.16
6249.22
6311.29
6154.09
4677.69
4612.63
4626.53
4667.45
4725.87
4607.64
22505.1
22504.3
22504.4
22504.5
22504.4
22504.6
9146.52
9144.16
9145.79
9145.57
9145.11
9146.57
1506.34
1503.57
1504.66
1505.36
1504.45
1505.73
14.1566
14.6302
14.4846
14.3667
14.387
14.4198
-18.7888
-19.2496
-19.0385
-18.919
-18.8434
-18.9806
-26.9314
-27.1417
-26.9085
-26.953
-26.8542
-26.9919
72.0134
71.3311
71.5096
71.9704
72.7266
70.88
214.09
213.977
213.936
214.169
214.587
213.556
377.121
380.809
378.017
379.14
380.828
377.806
915.584
925.489
918.779
920.914
915.418
926.704
1349.54
1344.63
1344.23
1346.24
1336.18
1347.81
1075.94
1077.42
1078.63
1076.03
1074.73
1079.33
24349
24361.5
24357.3
24354.5
24357.5
24354
-26.1227
-26.2599
-26.2116
-26.1703
-26.1498
-26.2144
-3.47291
-3.43803
-3.48462
-3.45972
-3.46918
-3.48507
-9.02636
-8.85892
-8.90798
-8.93245
-8.94537
-8.89024
-21.434
-21.7754
-21.5537
-21.6091
-21.5445
-21.5164
-66.9267
-67.3119
-67.1649
-67.2749
-67.0898
-67.1908
-11.0726
-11.2381
-11.1798
-11.2575
-11.0941
-11.5166
104.999
102.134
101.71
104.547
108.013
99.9258
545.164
537.171
536.707
543.879
552.78
529.696
700.462
699.445
702.934
699.171
697.439
701.722
639.478
636.939
643.809
631.919
639.557
639.703
837.925
836.382
837.844
837.469
837.078
833.773
3313.06
3567.98
3337.13
3462.09
3482.01
3321.16
2522.39
2621.54
2562.66
2641.34
2590.6
2533.7
1600.24
1933.41
1752.77
1811.01
1895.68
1780.98
1138.83
1161.38
1250.95
1199.72
1266.18
1330.68
845.858
561.545
737.183
631.765
781.49
974.669
645.367
440.251
554.935
506.065
682.707
848.078
674.62
771.496
832.765
800.224
787.864
856.045
800.746
835.548
847.835
844.005
844.732
847.236
836.175
836.603
856.935
892.515
881.301
773.099
1111.19
1051.86
1074.41
1184.95
1205.5
925.755
1481.9
1531.89
1701.6
1567.34
1562.35
1357.44
1437.58
1444.9
1534.08
1506.17
1674.59
1458.42
2762
2840.33
2874.23
2478.57
2435.71
2796.65
672.075
416.503
719.27
512.421
528.972
1144.2
133.195
126.436
101.018
147.126
181.26
157.875
21.0623
27.4444
19.9357
26.0378
28.7281
42.7171
-12.786
4.856
-0.775977
-3.52136
-13.0373
-14.4809
-26.9458
-20.4477
-16.4024
-19.7286
-21.5741
-19.4636
-20.0271
-24.512
-22.1255
-21.956
-15.1385
-10.0482
4.27671
5.72617
2.30225
-0.755722
-0.798841
1.30461
10.8722
10.7118
11.1548
11.3757
20.2843
20.3655
130.287
56.1503
86.2483
187.244
210.715
157.242
607.044
627.615
692.065
1062.03
953.531
938.849
1628.26
1862.56
1761.27
1852.56
1748.01
1910.22
2243.96
2531.37
2531.17
2025.29
1726.16
2626.83
38.0504
34.5187
48.8058
33.2651
25.4297
352.946
16.4628
15.5012
15.2798
15.7636
16.517
15.3088
10.2691
12.7697
10.3742
12.4912
11.4426
9.67712
14.6532
15.5964
16.0774
15.2412
13.2498
12.1022
-4.44693
-3.50016
-3.73861
-3.97073
-4.1232
-3.70857
0.404122
1.25337
0.499136
-0.865343
-1.94166
-0.133605
1.80512
4.06792
1.62978
-2.31148
-2.93419
-1.26849
-1.60663
-1.21637
-2.18204
-4.42223
-0.0770599
0.424722
-0.953565
-3.68079
-0.359589
0.555881
3.67917
4.98719
110.467
31.6424
20.8378
28.1999
78.2348
30.4567
1635.81
1592.03
1344.43
1527.75
355.041
1731.74
2815.13
2763.32
3127.77
2969.13
2108.13
3186.35
7.10701
6.24327
4.36876
-0.796216
-0.860724
75.0187
20.5037
18.9814
21.8747
18.8192
17.5109
17.6934
0.485002
0.547327
-0.24835
-0.717591
-1.27825
-2.90502
3.01547
3.20554
3.16205
2.52273
1.98624
1.37482
-7.56463
-8.41606
-8.23123
-6.35833
-5.31037
-5.44748
-0.296376
-0.558261
-0.22799
-1.64371
-1.36475
-0.578535
1.36729
1.49748
0.283143
-0.370225
0.292187
0.180808
-0.126854
-0.264849
-1.13947
-0.0418433
2.33952
2.87948
-4.94767
-4.58475
-5.43681
-2.04317
1.77035
-0.870552
-4.28226
-3.97662
-6.63954
27.8911
298.725
5.66825
493.634
-28.7898
-87.9337
20.4978
1049.57
377.484
24862.9
24860.7
24859.9
24860.2
24861
24861.7
5432.08
5406.79
5413.05
5417.36
5413.2
5421.1
22.0881
19.9545
20.8983
21.2969
20.6093
21.523
257.103
258.354
258.093
257.699
257.978
257.811
380.867
380.293
380.687
380.671
380.609
380.816
31.6024
28.9129
29.9074
30.3228
29.5921
30.5773
-25.7123
-25.6106
-25.6868
-25.6786
-25.7081
-25.6851
-11.3052
-11.1283
-11.2268
-11.2367
-11.2539
-11.2375
0.701958
0.613138
0.638529
0.668778
0.650569
0.670586
-20.2933
-20.2907
-20.3159
-20.236
-20.2548
-20.2711
-8.09461
-7.74616
-7.95528
-7.89012
-7.89912
-7.97178
-6.53842
-6.15139
-6.35081
-6.3456
-6.34562
-6.38841
-24.5051
-24.8953
-24.6317
-24.6982
-24.6572
-24.6021
-4.71129
-4.66863
-4.64431
-4.63965
-4.54897
-4.72907
7.11656
7.261
7.17295
7.29616
7.3893
7.15212
-43.5888
-44.2427
-43.8551
-43.9658
-43.8504
-43.8325
-15.3628
-16.2106
-15.9621
-15.5987
-14.8888
-16.555
11.075
14.4309
12.8791
12.4454
12.6257
11.5454
-11.1481
-14.8959
-14.3443
-12.1189
-10.3636
-16.5445
34.9519
30.5551
31.0936
34.1523
36.4288
24.6623
28.8896
26.0909
26.8919
28.7461
31.3179
28.7499
75.9727
76.2528
75.7944
75.4642
75.2573
76.7054
58.936
58.0393
57.9209
58.6492
58.2481
59.4214
-17.6369
-17.3814
-17.0763
-17.8168
-18.6974
-17.298
77.9095
77.134
78.2309
76.9337
73.7029
81.4319
-20.5742
-20.5086
-20.529
-20.368
-20.3928
-20.2495
-34.026
-34.0223
-34.0269
-33.8114
-33.7956
-33.5843
2.91586
2.88985
2.89023
2.94446
2.964
2.92334
-7.57528
-7.57036
-7.58957
-7.4984
-7.49381
-7.52235
-13.9243
-13.9048
-13.9103
-13.8701
-13.8745
-13.8323
11.1466
11.2227
11.2137
11.1567
11.1525
11.2068
-1.43259
-1.43149
-1.43351
-1.42161
-1.42252
-1.42016
-8.65182
-8.64281
-8.64298
-8.63787
-8.64242
-8.61986
831.839
821.255
823.791
823.038
830.639
819.419
1.26648
1.2678
1.2663
1.27733
1.27446
1.25697
-12.4004
-12.3893
-12.3902
-12.3807
-12.3881
-12.382
3478.82
3518.72
3568.35
3564.34
3563.73
3504.4
5.1897
5.34791
5.52691
5.52888
5.60872
5.31949
-8.08146
-8.16969
-8.29907
-8.31645
-8.30394
-8.27904
3940.57
3932.9
3926.74
3939.42
3941.59
3937.56
2.83232
2.86068
2.85174
2.81968
2.76973
2.81225
-6.26862
-6.30726
-6.36235
-6.35627
-6.34576
-6.34728
3965.25
3961.77
3960.47
3964.29
3965.39
3964.94
3.44439
3.47612
3.51005
3.53556
3.56144
3.53717
-5.60759
-5.61693
-5.62848
-5.6373
-5.63404
-5.64921
3967.17
3967.44
3967.51
3966.02
3967.5
3969.79
3.01457
3.01211
3.00676
2.99885
2.99197
2.9885
-5.72879
-5.73655
-5.74407
-5.74668
-5.74628
-5.7505
3947.32
3947.54
3947.67
3945.47
3946.54
3949.92
3.15633
3.15581
3.15426
3.15352
3.15135
3.14867
-7.1237
-7.13013
-7.13316
-7.14185
-7.14595
-7.14446
3665.15
3660.56
3660.57
3655.11
3654.89
3660.81
4.1746
4.18542
4.1885
4.19547
4.19804
4.19407
-10.7483
-10.7532
-10.7545
-10.7562
-10.7592
-10.7616
3634.71
1130.62
1930.54
2722.02
1570.08
3963.35
2411.37
260.178
337.58
210.009
74.3558
2612.5
12.9705
182.218
2.84605
0.739093
2.60103
206.201
20.565
11.8096
11.4725
18.1925
5.01856
158.769
18.0616
11.8645
12.3503
14.292
9.85318
155.658
2.56915
1.39538
0.541706
0.861976
-0.867997
41.5986
19.918
20.0328
20.6609
18.5328
19.5324
18.1004
19.4361
17.925
16.2333
16.1388
16.1949
15.2862
6.71004
4.39599
3.3643
3.7081
3.74117
4.28679
5.00972
4.91347
4.68314
4.56912
4.50208
4.40122
2.2646
2.15866
2.04192
1.84702
1.73974
1.98918
0.961478
0.933923
0.588465
0.0274253
-0.404205
-0.852079
8.53269
8.60467
8.62002
8.56962
8.42585
8.38598
3.1647
3.09162
2.98299
2.99583
2.92737
2.96872
2.26471
2.21073
2.15503
2.16875
2.12206
2.14412
2.23886
2.34775
2.24224
2.34802
2.49982
2.84176
0.02045
0.0187708
-0.0410546
-0.0789396
-0.0916989
-0.00448491
1.53319
1.52894
1.48642
1.41664
1.3723
1.36812
4.18522
4.24975
4.57457
4.70571
4.69289
4.52422
1.25724
1.42527
1.31895
0.914326
0.864415
1.17848
2.31121
2.33106
2.33038
2.31044
2.28296
2.26829
6.06724
6.03129
5.85919
5.53399
4.74713
4.72884
1.08841
1.26545
1.49051
0.766434
0.506005
0.550951
2.52611
2.51947
2.50485
2.39104
2.26253
2.23133
7.87071
7.81296
7.37725
6.52393
5.84145
5.64929
-0.277115
-0.207238
-0.21544
-0.180749
-0.110903
-0.0652736
2.6586
2.6161
2.57416
2.38902
2.25415
2.17448
10.916
11.1557
10.79
10.5811
9.91583
10.1595
-1.57637
-1.55974
-1.63973
-1.41524
-1.49195
-1.30045
2.7113
2.67008
2.6587
2.52017
2.43234
2.41719
8.5532
8.00955
6.21809
5.08144
4.07605
5.93349
-1.15156
-1.19748
-1.50453
-1.48118
-2.48207
-1.55608
0.0966546
0.0194964
0.0466707
-0.146412
0.00129842
-0.197622
432.464
584.932
755.65
628.268
812.665
468.984
-0.00166997
0.0154921
-0.221278
0.224206
0.117276
0.0599735
-6.32513
-6.75454
-7.59561
-7.33231
-7.53662
-6.7033
)
;

boundaryField
{
    seabed_topleft_surface
    {
        type            fixedFluxPressure;
        gradient        uniform 0;
        value           nonuniform List<scalar> 
72
(
20849.4
20849.4
20849.3
20849.4
20849.4
20849.4
20742.3
20742.4
20742.3
20742.3
20742.3
20742.3
18386.9
18386.7
18386.8
18386.9
18386.9
18386.9
15464.3
15464
15464.1
15464.3
15464.2
15464.3
13359.4
13359.5
13359.4
13359.6
13359.7
13359.4
11998.9
11999.3
11999
11999.7
11999.6
11999
11131.9
11133.3
11132.8
11132.7
11131.9
11133.2
10733.6
10733.4
10733.6
10734.1
10735.2
10732.3
10930.6
10930.1
10930.2
10931.1
10932.8
10928.5
11509.9
11516.7
11513.5
11513.2
11507.9
11519.2
12127.8
12119.8
12125
12124.5
12134.7
12115.8
11648.5
11637.4
11643.1
11646.7
11662.9
11638.3
)
;
    }
    seabed_topright_surface
    {
        type            fixedFluxPressure;
        gradient        uniform 0;
        value           nonuniform List<scalar> 
72
(
3313.06
3567.98
3337.13
3462.09
3482.01
3321.16
2522.39
2621.54
2562.66
2641.34
2590.6
2533.7
1600.24
1933.41
1752.77
1811.01
1895.68
1780.98
1138.83
1161.38
1250.95
1199.72
1266.18
1330.68
845.858
561.545
737.183
631.765
781.49
974.669
645.367
440.251
554.935
506.065
682.707
848.078
674.62
771.496
832.765
800.224
787.864
856.045
800.746
835.548
847.835
844.005
844.732
847.236
836.175
836.603
856.935
892.515
881.301
773.099
1111.19
1051.86
1074.41
1184.95
1205.5
925.755
1481.9
1531.89
1701.6
1567.34
1562.35
1357.44
1437.58
1444.9
1534.08
1506.17
1674.59
1458.42
)
;
    }
    breakwater_top_surface
    {
        type            fixedFluxPressure;
        gradient        uniform 0;
        value           nonuniform List<scalar> 
36
(
3478.82
3518.72
3568.35
3564.34
3563.73
3504.4
3940.57
3932.9
3926.74
3939.42
3941.59
3937.56
3965.25
3961.77
3960.47
3964.29
3965.39
3964.94
3967.17
3967.44
3967.51
3966.02
3967.5
3969.79
3947.32
3947.54
3947.67
3945.47
3946.54
3949.92
3665.15
3660.56
3660.57
3655.11
3654.89
3660.81
)
;
    }
    breakwater_left_surface
    {
        type            fixedFluxPressure;
        gradient        uniform 0;
        value           nonuniform List<scalar> 
24
(
11648.5
11637.4
11643.1
11646.7
11662.9
11638.3
4677.69
4612.63
4626.53
4667.45
4725.87
4607.64
1075.94
1077.42
1078.63
1076.03
1074.73
1079.33
837.925
836.382
837.844
837.469
837.078
833.773
)
;
    }
    breakwater_right_surface
    {
        type            fixedFluxPressure;
        gradient        uniform 0;
        value           nonuniform List<scalar> 
24
(
1437.58
1444.9
1534.08
1506.17
1674.59
1458.42
1628.26
1862.56
1761.27
1852.56
1748.01
1910.22
1635.81
1592.03
1344.43
1527.75
355.041
1731.74
493.634
-28.7898
-87.9337
20.4978
1049.57
377.484
)
;
    }
    water_front_surface
    {
        type            fixedFluxPressure;
        gradient        uniform 0;
        value           nonuniform List<scalar> 
186
(
20849.4
20742.3
18386.9
15464.3
13359.4
11998.9
11131.9
10733.6
10930.6
11509.9
12127.8
11648.5
22530.5
21066.8
16816.5
9306.9
6041.07
4545.07
3659.9
3152.7
3994.87
5610.88
6262.12
4677.69
22505.1
9146.52
1506.34
14.1566
-18.7888
-26.9314
72.0134
214.09
377.121
915.584
1349.54
1075.94
24349
-26.1227
-3.47291
-9.02636
-21.434
-66.9267
-11.0726
104.999
545.164
700.462
639.478
837.925
3313.06
2522.39
1600.24
1138.83
845.858
645.367
674.62
800.746
836.175
1111.19
1481.9
1437.58
2762
672.075
133.195
21.0623
-12.786
-26.9458
-20.0271
4.27671
10.8722
130.287
607.044
1628.26
2243.96
38.0504
16.4628
10.2691
14.6532
-4.44693
0.404122
1.80512
-1.60663
-0.953565
110.467
1635.81
2815.13
7.10701
20.5037
0.485002
3.01547
-7.56463
-0.296376
1.36729
-0.126854
-4.94767
-4.28226
493.634
24862.9
5432.08
22.0881
257.103
380.867
31.6024
-25.7123
-11.3052
0.701958
-20.2933
-8.09461
-6.53842
-24.5051
-4.71129
7.11656
-43.5888
-15.3628
11.075
-11.1481
34.9519
28.8896
75.9727
58.936
-17.6369
77.9095
-20.5742
-34.026
2.91586
-7.57528
-13.9243
11.1466
-1.43259
-8.65182
831.839
1.26648
-12.4004
3478.82
5.1897
-8.08146
3940.57
2.83232
-6.26862
3965.25
3.44439
-5.60759
3967.17
3.01457
-5.72879
3947.32
3.15633
-7.1237
3665.15
4.1746
-10.7483
3634.71
2411.37
12.9705
20.565
18.0616
2.56915
19.918
19.4361
6.71004
5.00972
2.2646
0.961478
8.53269
3.1647
2.26471
2.23886
0.02045
1.53319
4.18522
1.25724
2.31121
6.06724
1.08841
2.52611
7.87071
-0.277115
2.6586
10.916
-1.57637
2.7113
8.5532
-1.15156
0.0966546
432.464
-0.00166997
-6.32513
)
;
    }
    water_back_surface
    {
        type            fixedFluxPressure;
        gradient        uniform 0;
        value           nonuniform List<scalar> 
186
(
20849.4
20742.3
18386.9
15464.3
13359.4
11999
11133.2
10732.3
10928.5
11519.2
12115.8
11638.3
22530.2
21066.9
16815.2
9305.81
6042.05
4547.88
3662.66
3148.18
4002.09
5647.09
6154.09
4607.64
22504.6
9146.57
1505.73
14.4198
-18.9806
-26.9919
70.88
213.556
377.806
926.704
1347.81
1079.33
24354
-26.2144
-3.48507
-8.89024
-21.5164
-67.1908
-11.5166
99.9258
529.696
701.722
639.703
833.773
3321.16
2533.7
1780.98
1330.68
974.669
848.078
856.045
847.236
773.099
925.755
1357.44
1458.42
2796.65
1144.2
157.875
42.7171
-14.4809
-19.4636
-10.0482
1.30461
20.3655
157.242
938.849
1910.22
2626.83
352.946
15.3088
9.67712
12.1022
-3.70857
-0.133605
-1.26849
0.424722
4.98719
30.4567
1731.74
3186.35
75.0187
17.6934
-2.90502
1.37482
-5.44748
-0.578535
0.180808
2.87948
-0.870552
5.66825
377.484
24861.7
5421.1
21.523
257.811
380.816
30.5773
-25.6851
-11.2375
0.670586
-20.2711
-7.97178
-6.38841
-24.6021
-4.72907
7.15212
-43.8325
-16.555
11.5454
-16.5445
24.6623
28.7499
76.7054
59.4214
-17.298
81.4319
-20.2495
-33.5843
2.92334
-7.52235
-13.8323
11.2068
-1.42016
-8.61986
819.419
1.25697
-12.382
3504.4
5.31949
-8.27904
3937.56
2.81225
-6.34728
3964.94
3.53717
-5.64921
3969.79
2.9885
-5.7505
3949.92
3.14867
-7.14446
3660.81
4.19407
-10.7616
3963.35
2612.5
206.201
158.769
155.658
41.5986
18.1004
15.2862
4.28679
4.40122
1.98918
-0.852079
8.38598
2.96872
2.14412
2.84176
-0.00448491
1.36812
4.52422
1.17848
2.26829
4.72884
0.550951
2.23133
5.64929
-0.0652736
2.17448
10.1595
-1.30045
2.41719
5.93349
-1.55608
-0.197622
468.984
0.0599735
-6.7033
)
;
    }
    water_left_surface
    {
        type            fixedFluxPressure;
        gradient        uniform 0;
        value           nonuniform List<scalar> 
42
(
20849.4
20849.4
20849.3
20849.4
20849.4
20849.4
22530.5
22529.6
22530
22530.2
22530
22530.2
22505.1
22504.3
22504.4
22504.5
22504.4
22504.6
24349
24361.5
24357.3
24354.5
24357.5
24354
24862.9
24860.7
24859.9
24860.2
24861
24861.7
5432.08
5406.79
5413.05
5417.36
5413.2
5421.1
22.0881
19.9545
20.8983
21.2969
20.6093
21.523
)
;
    }
    water_right_surface
    {
        type            fixedFluxPressure;
        gradient        uniform 0;
        value           nonuniform List<scalar> 
42
(
3313.06
3567.98
3337.13
3462.09
3482.01
3321.16
2762
2840.33
2874.23
2478.57
2435.71
2796.65
2243.96
2531.37
2531.17
2025.29
1726.16
2626.83
2815.13
2763.32
3127.77
2969.13
2108.13
3186.35
3634.71
1130.62
1930.54
2722.02
1570.08
3963.35
2411.37
260.178
337.58
210.009
74.3558
2612.5
12.9705
182.218
2.84605
0.739093
2.60103
206.201
)
;
    }
    water_top_surface
    {
        type            totalPressure;
        rho             rho;
        psi             none;
        gamma           1;
        p0              uniform 0;
        value           nonuniform List<scalar> 
180
(
0
0
0
0
0
0
0
0
0
0
0
0
-0.397647
-0.41398
-0.40855
-0.405686
-0.414161
-0.40304
-1.03256
-0.8969
-0.964497
-0.9721
-0.982949
-0.967306
0
0
0
0
0
0
0
0
0
0
0
0
0
0
0
0
0
0
0
0
0
0
0
0
-23.9233
-24.7167
-24.5627
-24.2261
-24.455
-24.2938
-16.7066
-16.8373
-16.8465
-16.6782
-16.7644
-16.757
-9.41507
-9.4051
-9.41152
-9.40895
-9.44847
-9.37204
-4.78259
-4.78868
-4.78614
-4.7803
-4.78725
-4.78065
-0.649082
-0.640855
-0.65594
-0.769085
-0.882267
-0.771643
-1.87241
-1.88702
-1.90427
-1.93786
-1.96477
-1.93071
-1.58877
-1.58242
-1.57285
-1.55222
-1.54997
-1.53548
-1.98666
-1.99013
-1.99065
-1.9883
-1.9945
-1.97863
-2.69186
-2.69424
-2.69438
-2.6953
-2.70252
-2.68492
-2.58321
-2.57386
-2.57304
-2.57739
-2.58393
-2.56553
0
0
0
0
0
0
0
0
0
0
0
0
-1.28883
-2.1096
-2.10967
-1.35849
-1.75182
-0.229558
-3.43312
-3.57003
-3.52797
-3.80097
-3.93847
-3.88865
-0.7174
-0.730387
-0.749207
-0.699315
-0.722629
-0.699837
-0.608971
-0.605451
-0.626747
-0.637648
-0.654214
-0.630054
-0.0248848
-0.0194367
-0.0270282
-0.0421597
-0.0496837
-0.0356623
-0.0645752
-0.0595816
-0.0624676
-0.11384
-0.14948
-0.141445
-0.174993
-0.185553
-0.202765
-0.231361
-0.262707
-0.26085
-0.831447
-0.88654
-0.937952
-0.939484
-1.00585
-0.941117
-1.77135
-1.83625
-1.88677
-2.01977
-2.2661
-1.99207
-0.773419
-0.836827
-0.859548
-0.895054
-0.932755
-0.975983
)
;
    }
}


// ************************************************************************* //
