/*--------------------------------*- C++ -*----------------------------------*\
| =========                 |                                                 |
| \\      /  F ield         | OpenFOAM: The Open Source CFD Toolbox           |
|  \\    /   O peration     | Version:  v1612+                                |
|   \\  /    A nd           | Web:      www.OpenFOAM.com                      |
|    \\/     M anipulation  |                                                 |
\*---------------------------------------------------------------------------*/
FoamFile
{
    version     2.0;
    format      ascii;
    class       volVectorField;
    location    "6.45";
    object      U;
}
// * * * * * * * * * * * * * * * * * * * * * * * * * * * * * * * * * * * * * //

dimensions      [0 1 -1 0 0 0 0];

internalField   nonuniform List<vector> 
1116
(
(-0.517144 -0.000213992 0.170102)
(-0.517499 -9.18541e-05 0.170122)
(-0.517329 0.000135003 0.17012)
(-0.517244 -4.37871e-05 0.170101)
(-0.517356 4.38333e-05 0.170096)
(-0.517232 0.000101522 0.170111)
(-1.16277 -7.10823e-05 0.348291)
(-1.16321 -3.65025e-06 0.348225)
(-1.16296 3.55843e-05 0.348265)
(-1.16288 -3.0327e-05 0.348278)
(-1.16302 1.633e-05 0.348239)
(-1.16289 2.33483e-05 0.348295)
(-1.43634 2.99942e-05 0.35099)
(-1.43666 4.82406e-05 0.351003)
(-1.43643 -4.02928e-05 0.351027)
(-1.43642 -2.39391e-05 0.351008)
(-1.43652 5.44174e-06 0.35095)
(-1.43644 -1.48571e-05 0.351047)
(-1.792 8.02178e-05 0.291468)
(-1.79229 7.07867e-05 0.291508)
(-1.79206 -5.50666e-05 0.291514)
(-1.79215 1.49998e-05 0.291549)
(-1.79221 -2.3754e-05 0.291507)
(-1.79206 -8.0001e-05 0.291498)
(-2.05583 -5.20771e-05 0.141631)
(-2.05624 -4.54634e-05 0.141699)
(-2.05599 9.89433e-05 0.141635)
(-2.05608 0.000131643 0.141817)
(-2.05611 -0.000118525 0.141814)
(-2.0559 -0.00018679 0.141561)
(-2.12542 -0.000334803 0.0296601)
(-2.12672 -0.000310002 0.0294107)
(-2.12618 0.000387475 0.0293876)
(-2.12595 0.000333274 0.0299233)
(-2.12599 -0.000285933 0.0300898)
(-2.12598 -0.000317919 0.0291744)
(-2.08528 -0.000382093 -0.122494)
(-2.08817 -0.000526259 -0.122949)
(-2.0871 0.000581436 -0.122863)
(-2.08636 0.000572819 -0.122197)
(-2.08647 -0.000528907 -0.121713)
(-2.08681 -0.000463389 -0.123442)
(-1.95429 0.000475672 -0.348138)
(-1.95918 -0.000184781 -0.34877)
(-1.95792 0.000188712 -0.348377)
(-1.95567 0.000135308 -0.348044)
(-1.95478 -0.000110016 -0.346908)
(-1.95834 0.000274846 -0.349781)
(-1.69781 0.00175418 -0.623401)
(-1.69965 0.000616826 -0.624115)
(-1.6998 -0.000598623 -0.623266)
(-1.69822 -0.00117431 -0.623954)
(-1.69875 0.00115323 -0.621972)
(-1.69883 0.00175198 -0.625481)
(-1.38308 0.000508861 -0.796629)
(-1.3737 0.000140513 -0.795629)
(-1.37592 -1.09249e-05 -0.794693)
(-1.38235 -0.000513745 -0.797826)
(-1.38936 0.000211239 -0.797677)
(-1.36794 -0.000744144 -0.79481)
(-0.686129 0.000439188 -0.746446)
(-0.677576 0.0011453 -0.740025)
(-0.67995 -0.00133965 -0.740666)
(-0.684118 -0.00283921 -0.746502)
(-0.690624 0.00302301 -0.752208)
(-0.674877 0.00277957 -0.734163)
(-0.165205 0.00148422 -0.161568)
(-0.158783 0.00174836 -0.15371)
(-0.160109 -0.00225094 -0.15507)
(-0.164431 -0.00405393 -0.16038)
(-0.171051 0.00317167 -0.167448)
(-0.157576 0.00481503 -0.150436)
(-1.11637 -0.000224854 1.48589)
(-1.11682 -9.4517e-05 1.48516)
(-1.11656 0.000105921 1.4855)
(-1.11658 -6.13703e-05 1.48557)
(-1.1167 7.08145e-05 1.48535)
(-1.11646 0.000114734 1.48571)
(-1.79999 6.9501e-05 0.629473)
(-1.80031 4.52004e-05 0.629239)
(-1.8001 -6.00379e-05 0.629365)
(-1.80018 2.76148e-06 0.6294)
(-1.80024 1.33644e-05 0.629319)
(-1.80005 -1.30748e-05 0.629439)
(-1.75231 -4.49431e-05 0.254005)
(-1.75268 -3.24193e-05 0.254107)
(-1.7525 2.6667e-05 0.254093)
(-1.75256 -1.9867e-05 0.254083)
(-1.75267 6.61016e-05 0.254135)
(-1.75236 9.95932e-05 0.254005)
(-1.1082 -0.000806874 0.305502)
(-1.10822 -0.000512638 0.306243)
(-1.1082 0.000530726 0.305977)
(-1.10845 5.41242e-05 0.305846)
(-1.10866 0.000107091 0.306125)
(-1.108 0.000273271 0.305583)
(-0.525047 0.000208965 0.130898)
(-0.527362 0.000149898 0.131208)
(-0.526607 -0.00033191 0.130971)
(-0.525979 -0.000598983 0.131277)
(-0.526407 0.000528317 0.131568)
(-0.526042 0.000891351 0.130557)
(0.37952 0.000829772 -0.0655309)
(0.376855 0.000422876 -0.0660304)
(0.377807 -0.00078341 -0.0662649)
(0.378228 -0.000824843 -0.065094)
(0.377485 0.000529464 -0.0649477)
(0.378894 0.00113514 -0.0664918)
(1.43367 0.00167786 -0.196615)
(1.4334 0.000738351 -0.197182)
(1.4331 -0.00127252 -0.197435)
(1.43311 -0.00109072 -0.196197)
(1.43171 0.000739854 -0.196406)
(1.43475 0.00186027 -0.197225)
(1.94777 0.000380452 -0.15659)
(1.95919 -0.000652601 -0.156168)
(1.95497 -0.000484674 -0.156712)
(1.95163 -0.0010425 -0.155987)
(1.94552 0.000498622 -0.15729)
(1.95934 0.00241133 -0.155729)
(1.7162 -0.00240483 -0.0849533)
(1.73832 0.000443111 -0.0847402)
(1.73689 -0.000289674 -0.084274)
(1.71496 -0.00382156 -0.0848485)
(1.69898 0.00389913 -0.0866437)
(1.74662 0.00718086 -0.082668)
(0.534628 -0.0185694 -0.142337)
(0.538229 -0.00674843 -0.153659)
(0.544954 0.00992861 -0.150132)
(0.527175 0.0214213 -0.143778)
(0.52781 -0.0211809 -0.13391)
(0.545484 -0.0390012 -0.159622)
(0.950583 -0.016742 -0.452401)
(0.847538 -0.0029682 -0.440942)
(0.866722 0.00618109 -0.443404)
(0.942711 0.0194859 -0.451051)
(1.0247 -0.0105425 -0.459835)
(0.772019 -0.0259655 -0.431552)
(-0.45315 0.0155018 -0.482108)
(-0.556258 0.00932728 -0.461015)
(-0.540651 -0.013942 -0.463154)
(-0.460778 -0.0225585 -0.480254)
(-0.389142 0.0180325 -0.499959)
(-0.575038 0.0419495 -0.452372)
(-1.43109 0.000221882 2.31602)
(-1.432 0.000147075 2.31526)
(-1.43152 -0.000117882 2.31558)
(-1.43156 -5.24779e-06 2.31571)
(-1.43174 -7.71751e-06 2.3154)
(-1.43133 -3.76991e-05 2.31589)
(-0.162926 0.000257847 0.925679)
(-0.162784 0.000121984 0.925805)
(-0.162906 -0.000150183 0.925778)
(-0.162978 -5.01038e-05 0.925723)
(-0.162954 7.43138e-05 0.925819)
(-0.162892 0.000103707 0.92576)
(2.82192 -0.00152114 -0.119206)
(2.8248 -0.000936686 -0.118205)
(2.8239 0.00136254 -0.118549)
(2.8225 0.000291186 -0.118972)
(2.82236 -0.000252388 -0.118728)
(2.8234 0.000143217 -0.118553)
(6.91396 -0.0268165 -0.731078)
(6.85888 -0.0145961 -0.749023)
(6.87834 0.0152838 -0.742398)
(6.90111 0.00790427 -0.736263)
(6.90345 -0.00443502 -0.738864)
(6.87659 -0.00719178 -0.739163)
(9.65351 0.010795 -1.81374)
(9.52449 0.0103375 -1.80564)
(9.56806 -0.0136741 -1.80796)
(9.61796 -0.00822581 -1.81323)
(9.62714 0.00299566 -1.81605)
(9.5631 0.00701814 -1.80617)
(12.2699 0.0444375 -1.25706)
(12.278 0.0260484 -1.24997)
(12.265 -0.0315095 -1.25179)
(12.2836 -0.0133719 -1.25596)
(12.2739 0.00436039 -1.25739)
(12.2707 0.015353 -1.25205)
(10.7283 0.0808883 -0.570604)
(10.8671 0.0506998 -0.579164)
(10.7905 -0.0612705 -0.575436)
(10.8054 -0.0670464 -0.573664)
(10.7943 0.0529344 -0.567469)
(10.7953 0.0975044 -0.57853)
(0.0284292 0.0246498 0.935873)
(0.840467 0.0282292 0.891225)
(0.64381 -0.0370378 0.89824)
(0.208086 -0.0739118 0.92847)
(-0.281532 0.0623816 0.955383)
(0.962948 0.125831 0.878817)
(-4.22736 -0.0996258 1.30455)
(-4.10615 -0.038767 1.30653)
(-4.11378 0.0487308 1.31956)
(-4.24057 0.0652638 1.2982)
(-4.36481 -0.0527762 1.26306)
(-4.01419 -0.0889166 1.34463)
(-2.44741 -0.0665708 -0.0843979)
(-2.53855 -0.0188994 -0.091334)
(-2.50456 0.0281719 -0.0866975)
(-2.46976 0.0745562 -0.0867648)
(-2.51535 -0.0643034 -0.0940216)
(-2.49172 -0.110129 -0.0771428)
(-0.474201 -0.00744893 -0.135842)
(-0.75723 0.00224337 -0.0926699)
(-0.689113 0.00496116 -0.0935173)
(-0.536604 0.0300476 -0.148187)
(-0.343628 -0.00901002 -0.183878)
(-0.887793 -0.0121081 -0.0660993)
(-0.13041 0.0574743 0.793777)
(-0.319209 0.0199233 0.693076)
(-0.286099 -0.0285516 0.71927)
(-0.162739 -0.0545957 0.779496)
(-0.0368799 0.0366201 0.849798)
(-0.309826 0.103715 0.651185)
(-2.49024 0.000139547 2.93861)
(-2.49091 0.000111731 2.94017)
(-2.49058 -0.000112124 2.93966)
(-2.49061 -8.61893e-05 2.93943)
(-2.49074 0.000120158 2.93967)
(-2.4905 0.00012706 2.93921)
(1.19878 -0.00545144 -2.54908)
(1.20043 0.000955515 -2.54964)
(1.20125 0.00489231 -2.54947)
(1.19909 0.000113256 -2.54908)
(1.19799 0.00339128 -2.5492)
(1.20259 -3.36125e-05 -2.54867)
(-7.60512 -0.0586429 -6.05388)
(-7.62513 -0.0251163 -6.02957)
(-7.61721 0.0353221 -6.03696)
(-7.60812 0.0192338 -6.04795)
(-7.61938 -0.00880715 -6.05695)
(-7.60443 -0.0238468 -6.03044)
(-0.540958 -0.0533811 -3.95871)
(-0.889546 -0.0202246 -4.05882)
(-0.764515 0.0213888 -4.02213)
(-0.628243 0.0140993 -3.98998)
(-0.608724 -0.00891931 -4.00947)
(-0.772101 -0.0208209 -4.00095)
(-2.4095 0.0880715 -6.07695)
(-2.88448 0.0563461 -5.9381)
(-2.70438 -0.0659335 -5.989)
(-2.56886 -0.0307725 -6.04511)
(-2.53631 0.013634 -6.05854)
(-2.71204 0.0348527 -5.99034)
(-3.18852 0.136957 0.0442054)
(-3.19064 0.0702983 0.176524)
(-3.17133 -0.0756203 0.112513)
(-3.21273 -0.0397906 0.100963)
(-3.22682 0.0249196 0.123113)
(-3.16506 0.0766541 0.0746637)
(-1.69322 0.0486762 8.03532)
(-1.38071 0.0299229 8.09619)
(-1.45243 -0.0289543 8.08367)
(-1.60559 -0.0425545 8.06674)
(-1.74993 0.0489247 8.03391)
(-1.32959 0.0949041 8.09611)
(-7.89993 -0.014501 6.86536)
(-7.69919 -0.00573801 7.10369)
(-7.71225 0.00529375 7.12196)
(-7.8917 -0.00827181 6.89777)
(-8.06525 0.0159509 6.63549)
(-7.53679 0.0361928 7.29368)
(-7.50193 -0.00910669 0.877223)
(-7.5214 -0.0113461 0.925051)
(-7.50263 0.00946451 0.935523)
(-7.52891 0.0119695 0.877657)
(-7.56737 -0.00895949 0.787058)
(-7.44909 -0.00906788 1.00545)
(-5.74121 0.0139694 -2.75239)
(-5.76606 -0.00134568 -2.77436)
(-5.75236 -0.00298271 -2.75556)
(-5.76223 -0.0113466 -2.77043)
(-5.76567 0.00629371 -2.79942)
(-5.73734 0.0235187 -2.72532)
(-3.97522 0.0130701 -3.21146)
(-3.96883 -0.00354226 -3.23475)
(-3.95989 0.00208383 -3.22465)
(-3.99369 -0.00322923 -3.23007)
(-4.01854 -0.00332211 -3.21895)
(-3.93215 0.0108825 -3.23232)
(-2.09765 0.0158576 -1.59832)
(-2.15403 0.00480516 -1.62895)
(-2.13532 -0.00681168 -1.61726)
(-2.11821 -0.00905453 -1.61096)
(-2.08556 0.00801293 -1.58801)
(-2.16362 0.0197849 -1.63293)
(-0.138638 -0.794335 0.584)
(0.984753 -0.190033 0.198614)
(-0.0378127 -0.453885 0.541551)
(1.67793 -0.847151 0.130359)
(2.98747 0.251715 -0.250151)
(0.118592 1.15739 0.644009)
(1.95752 -0.53758 -0.111554)
(5.17323 -0.0334105 -1.4704)
(2.12309 -0.122224 -0.349422)
(4.41699 -0.19142 -1.03961)
(5.7021 -0.0178637 -1.24145)
(0.852955 0.290857 0.136157)
(5.31455 -0.110872 -1.2427)
(7.58472 0.0417684 -2.71363)
(6.48267 -0.0951525 -2.38376)
(6.56261 0.160854 -2.11343)
(7.08195 -0.248467 -1.60079)
(4.45869 -0.256516 -1.27466)
(6.89016 0.162203 -2.20938)
(7.94881 0.195009 -3.06466)
(7.65101 -0.171505 -3.48708)
(7.23434 0.150784 -2.60201)
(7.50295 -0.345782 -1.6394)
(6.41118 -0.310585 -2.43486)
(7.05271 0.134423 -2.18111)
(7.95577 0.374315 -2.99998)
(7.54158 -0.212334 -3.60124)
(7.30679 -0.0533214 -2.50258)
(7.47437 -0.346234 -1.41307)
(7.08702 -0.162102 -2.76147)
(7.13136 -0.0403465 -1.92063)
(8.19843 0.354564 -2.99317)
(7.78706 -0.197408 -3.56279)
(7.54133 -0.0772693 -2.40786)
(7.23995 -0.280619 -1.10437)
(7.23315 -0.0732728 -2.69655)
(7.01065 -0.289106 -1.75917)
(7.97378 0.294912 -3.12457)
(7.74594 -0.130875 -3.69892)
(7.47335 0.091605 -2.54157)
(6.82436 -0.0173584 -0.854348)
(6.96802 0.0211263 -2.50125)
(6.39343 -0.290007 -1.71063)
(7.1441 0.43551 -2.97975)
(7.17143 -0.0786248 -3.62905)
(6.85876 0.109587 -2.53416)
(6.22421 0.0837481 -0.675233)
(6.43374 0.0404257 -2.25476)
(5.4123 -0.147542 -1.7714)
(6.16655 0.490543 -2.76026)
(6.45048 -0.178523 -3.47092)
(6.03646 0.0746187 -2.42069)
(5.38497 -0.0418545 -0.537078)
(5.69979 -0.0857096 -2.05935)
(4.24024 -0.058084 -1.78069)
(4.9351 0.237537 -2.48678)
(5.41885 -0.334163 -3.43977)
(4.74834 0.290046 -2.34687)
(3.98029 -0.0609367 -0.521574)
(4.59294 -0.23206 -1.99704)
(2.29613 -0.21457 -1.12134)
(2.94903 -0.299193 -1.90521)
(3.44055 -0.142895 -3.50174)
(2.57878 0.815911 -2.05702)
(1.62364 0.173992 -0.388085)
(2.7338 -0.338003 -1.96513)
(-1.68601 -0.228398 1.38552)
(-1.4951 -0.485594 0.633963)
(0.0891531 -0.017695 -1.17206)
(-0.888598 0.593165 0.118875)
(-1.61255 0.311403 0.56893)
(-2.20004 -0.0811819 2.0434)
(0.319111 -0.661557 3.17104)
(1.55127 -0.144642 3.29337)
(0.515729 -0.685162 3.14576)
(2.53564 -0.888626 3.2621)
(4.22153 -0.0177965 3.25298)
(0.324306 1.19092 2.98386)
(2.64101 -0.445653 5.49271)
(5.74205 0.0267299 5.27416)
(2.77242 -0.371409 5.8904)
(5.66791 -0.47533 4.40768)
(7.29719 -0.765758 3.75634)
(1.52909 -0.144219 3.99262)
(6.72403 0.104005 4.86235)
(8.49375 0.0841406 3.82082)
(7.75981 -0.421623 5.41048)
(7.80038 -0.374186 4.0281)
(9.07189 -0.65769 2.95929)
(5.83396 -0.475632 4.23616)
(3.96279 -0.226944 2.26288)
(4.777 0.0345985 3.27163)
(4.43226 -0.0948414 3.35812)
(4.68417 0.0114734 2.82313)
(6.09385 -0.0547356 2.18414)
(5.03229 -0.117423 2.59149)
(-1.69242 -0.976317 0.473352)
(2.72501 -0.43659 3.28002)
(-0.0998604 -0.0472639 3.36178)
(0.506944 0.810194 2.48861)
(0.0470499 1.14484 1.02869)
(-0.469845 0.689128 2.04796)
(-4.65923 -0.169746 0.39834)
(3.78181 0.125456 3.26567)
(3.33487 -1.09161 3.74368)
(3.1926 -0.127002 2.55914)
(-1.42971 -0.22644 -0.0307078)
(-4.13285 0.648193 1.41898)
(-4.61614 0.696213 0.547474)
(-1.89083 0.911893 1.14786)
(-0.520486 -1.02862 2.94077)
(-1.67313 -1.87608 0.952325)
(-1.24167 -1.47263 -0.313274)
(-0.328695 0.270083 1.24304)
(0.935895 0.0154364 -0.0995554)
(3.19794 0.529814 0.724648)
(3.61544 -0.939615 2.64211)
(2.16314 -1.31909 0.656151)
(2.64426 -0.555233 -0.619706)
(4.08266 0.833054 1.32561)
(3.24249 0.0753964 -0.824334)
(6.21592 0.605204 1.27536)
(6.02688 -1.35111 2.86333)
(4.67987 -1.64575 0.0484374)
(4.67159 -0.563403 -1.23373)
(4.98853 0.665101 0.201689)
(5.0475 0.166437 -2.60232)
(6.81987 0.81635 -0.770481)
(6.03478 -0.917269 -0.0266372)
(5.52831 -1.22432 -2.53234)
(5.85607 -0.493445 -3.00501)
(5.24243 0.619561 -2.48443)
(4.50644 0.169658 -3.60788)
(4.50871 0.695565 -4.36597)
(4.31982 -0.23084 -5.66494)
(3.63649 -0.144878 -3.55578)
(3.71883 -0.492673 -3.3869)
(3.92228 -0.0180573 -4.86768)
(1.33909 0.0432375 -0.914151)
(2.03385 0.471465 -2.02559)
(2.77521 0.038885 -3.72651)
(1.7091 0.502567 -1.81024)
(-0.6306 -0.414359 0.515992)
(1.77822 -0.512286 -2.09497)
(1.56739 -0.345394 4.52425)
(2.44136 -0.0114635 5.46372)
(1.54572 -0.514088 4.99795)
(3.19403 -0.561194 4.93241)
(4.83191 -0.258733 5.4685)
(0.734557 0.884557 4.48847)
(-0.660012 -0.219109 9.07861)
(1.2095 0.0207564 9.28147)
(-0.292822 -0.41299 9.81061)
(1.069 -0.0116089 7.44581)
(1.6741 -0.764174 6.20133)
(0.506135 -0.260091 4.94565)
(2.47082 -0.0237162 2.85824)
(1.11872 -0.0290799 -0.576182)
(3.42147 -0.205166 4.8257)
(1.52007 0.345077 -0.97945)
(0.856985 0.339551 -2.60869)
(3.77179 -0.209014 3.52009)
(-2.05779 -0.270621 -7.01821)
(-1.84929 0.0881202 -6.49515)
(-1.78313 0.135285 -7.06619)
(-1.47311 -0.170624 -6.70786)
(-1.78066 0.508654 -6.38828)
(-1.5869 0.449643 -6.67414)
(1.65799 -0.188275 -5.72063)
(1.45098 -0.190189 -5.46866)
(1.50531 0.254944 -5.67319)
(1.65723 0.461855 -5.4693)
(1.11753 0.291862 -5.91817)
(1.37844 -0.00574365 -6.26395)
(-0.106258 -0.497733 -2.59045)
(-0.904521 -0.510642 -2.29308)
(-0.288129 -0.327148 -2.96567)
(-0.374549 -0.0408934 -3.36759)
(-0.492995 -0.470705 -3.04577)
(-1.06293 -0.398247 -0.8726)
(-1.21951 -0.193604 0.975159)
(-1.26189 0.113421 2.10981)
(-1.68828 -0.223604 2.78058)
(-0.837758 1.10999 -0.751072)
(0.282256 -0.280341 -1.03403)
(1.39271 0.0904617 3.03049)
(1.24901 -0.483394 2.7256)
(2.19297 -0.287525 3.78635)
(2.87592 -0.361226 4.63503)
(-0.280929 1.18685 2.09116)
(-1.72835 -0.101927 -0.231599)
(2.71029 0.610431 2.13857)
(-1.4883 -0.436287 1.75158)
(3.19883 -0.258253 3.26531)
(4.11417 -0.674509 3.39153)
(-0.667829 -0.00241165 1.14548)
(-2.35856 0.014126 -1.47893)
(0.0868097 0.472615 0.234169)
(1.00168 0.22413 -2.32342)
(1.99529 0.171644 -0.0439825)
(2.32844 -0.598134 -0.436796)
(1.38915 -1.03961 -3.67805)
(0.81001 -0.22194 -4.84996)
(1.53281 0.511513 -1.96764)
(1.97056 0.2069 -5.74215)
(0.367799 0.234918 -6.06616)
(1.00677 -0.312374 -5.88467)
(1.83701 -0.948261 -5.49088)
(3.33279 0.0559403 -5.95747)
(2.09503 0.826401 -6.09861)
(3.46066 0.0928274 -4.30116)
(3.97383 0.122877 -4.82673)
(4.03151 -0.0163114 -5.06291)
(2.73878 -0.638382 -3.32631)
(-0.22509 -0.352767 0.678103)
(3.24956 0.685289 -4.49526)
(2.36967 -0.241769 5.20949)
(2.84989 -0.000191822 6.59147)
(1.82929 -0.213726 6.22925)
(3.60021 -0.0795775 5.74303)
(5.5621 -0.124532 6.57023)
(1.21226 0.760081 5.45695)
(-1.29644 -0.192776 9.79691)
(-1.09043 -0.0298463 9.58839)
(-0.861517 0.0714293 10.121)
(-1.56974 0.991156 8.23722)
(-1.68663 0.146437 6.38799)
(-0.985009 0.0934924 4.39259)
(0.69069 0.381266 0.241895)
(1.8255 0.13243 -2.02337)
(1.31996 0.165058 -0.584066)
(2.20082 1.11595 -2.14967)
(2.82768 -0.0736075 -1.56673)
(1.59843 -0.321626 1.16718)
(-1.63829 0.150379 -1.41053)
(-1.79322 0.107133 -1.11283)
(-1.79804 0.0210687 -1.27279)
(-1.24359 0.0680263 -1.61771)
(-1.36084 0.0200502 -1.94771)
(-1.41092 -0.00317222 -1.17109)
(1.95888 -0.0293255 -0.062605)
(2.0431 0.0963461 0.0554353)
(1.99609 0.202318 0.0866274)
(2.10873 0.117427 0.117378)
(2.1704 0.126583 -0.116801)
(2.15907 0.0380707 0.0368647)
(1.56465 -0.0506011 -0.504619)
(1.5001 0.227419 0.367753)
(1.36094 0.0475758 0.000363071)
(1.44024 -0.0798506 -0.456012)
(1.59108 -0.35929 -0.389543)
(1.4658 -0.332741 0.682702)
(1.01744 -0.227805 1.31719)
(0.475413 0.0299615 2.87155)
(-0.162967 0.463064 2.74691)
(0.91885 1.05449 0.596391)
(1.28289 -0.553654 0.363777)
(1.20931 -0.409289 2.80113)
(-0.235693 -0.256834 2.17516)
(0.210145 -0.131002 3.66581)
(0.557174 0.18667 4.58317)
(-0.927635 1.28362 1.39706)
(-0.809396 0.262726 -0.965358)
(0.60233 -0.0103291 1.61396)
(-2.75013 -0.192448 -0.0219831)
(-1.94601 -0.100595 1.47035)
(-1.11917 0.109245 1.5206)
(-1.95094 0.817852 -0.0360118)
(-1.60719 0.554464 -0.803942)
(-1.5271 0.160908 -0.382072)
(-2.03935 -0.0101039 -1.61917)
(-1.25867 -0.136789 -1.71865)
(-0.121479 -0.536523 -2.02953)
(-1.30042 -0.644687 -1.90543)
(-0.402339 -0.224141 -2.56766)
(-1.12679 0.161427 -1.16343)
(-5.27628 0.149326 -2.96082)
(-6.5836 0.354544 -2.77587)
(-7.13578 -0.374562 -2.17071)
(-0.979152 -0.399188 -4.5134)
(3.77624 0.0196887 -5.35785)
(-3.33609 0.189713 -3.03384)
(4.7332 0.0409884 -4.04821)
(4.81037 0.0451066 -3.28096)
(4.85878 0.624967 -3.6084)
(4.79258 0.0201861 -4.00465)
(2.84341 -0.0231346 -3.1496)
(4.1028 0.386259 -3.83669)
(-3.52291 -0.000685052 3.69064)
(-3.52237 -0.00052829 3.69042)
(-3.52236 0.000169997 3.69013)
(-3.52266 -5.5492e-05 3.6906)
(-3.52245 0.000147438 3.6905)
(-3.52279 0.000247521 3.6903)
(-3.9146 0.00131726 2.81215)
(-3.9151 0.00103795 2.80923)
(-3.9143 -0.000657279 2.80954)
(-3.91491 -0.000110814 2.81066)
(-3.91473 -0.000319125 2.81005)
(-3.91481 -0.00050698 2.81075)
(-3.73399 -0.0116382 2.79958)
(-3.73064 -0.00817959 2.75756)
(-3.73137 0.00446168 2.77519)
(-3.73283 -0.00170558 2.78164)
(-3.73168 0.00179448 2.76913)
(-3.73313 0.00449841 2.78547)
(3.3263 -0.000723626 5.11431)
(3.32723 0.000352432 5.11891)
(3.32694 0.000778136 5.11722)
(3.32673 6.47371e-05 5.1166)
(3.32682 0.00076798 5.11817)
(3.32706 3.32475e-05 5.11603)
(4.10674 -0.00837864 5.8927)
(4.10847 -0.00530627 5.88407)
(4.10742 0.00360498 5.88665)
(4.10767 -0.000782728 5.88836)
(4.10791 0.000913397 5.88663)
(4.10741 0.0023264 5.88909)
(2.72053 -0.020274 3.96988)
(2.69779 -0.0136119 3.85781)
(2.70612 0.00745003 3.89949)
(2.71056 -0.00328436 3.91697)
(2.70427 0.00259322 3.88463)
(2.7123 0.00673878 3.92797)
(-7.55383 -0.0408926 -3.63595)
(-7.54328 -0.0167445 -3.66595)
(-7.54507 0.02273 -3.65397)
(-7.5484 0.0101788 -3.64815)
(-7.54342 -0.00379724 -3.65846)
(-7.54748 -0.0152455 -3.64054)
(-1.19441 -0.017101 -2.05186)
(-1.19344 -0.00796639 -2.07015)
(-1.18881 0.00905367 -2.06307)
(-1.18958 0.00214239 -2.05898)
(-1.17647 -0.000167265 -2.05997)
(-1.19508 -0.00259385 -2.06053)
(-2.0115 -0.00262509 -0.890259)
(-2.02557 -0.000965024 -0.908394)
(-2.01716 0.000380276 -0.902428)
(-2.0152 -0.000754688 -0.899265)
(-2.01265 0.000628343 -0.908637)
(-2.0171 0.000107173 -0.896372)
(-1.42145 -0.0575781 -4.75295)
(-1.71311 -0.0206103 -4.67486)
(-1.58732 0.0240942 -4.71009)
(-1.51481 0.00624261 -4.72933)
(-1.49507 0.000417188 -4.74683)
(-1.59239 -0.0112974 -4.69541)
(-1.36747 -0.0835857 -3.75667)
(-1.58469 -0.0388414 -3.67176)
(-1.48094 0.0422151 -3.71502)
(-1.44977 0.00789202 -3.72429)
(-1.44703 0.00243449 -3.73306)
(-1.4726 -0.00573974 -3.71082)
(-0.446822 -0.0411121 -1.4355)
(-0.486008 -0.021401 -1.33776)
(-0.466337 0.0215376 -1.38735)
(-0.466088 0.00408674 -1.39284)
(-0.465779 0.00156277 -1.40061)
(-0.463846 -0.00157112 -1.38945)
(-4.18629 0.0522134 -3.0599)
(-4.73586 0.0375273 -2.72888)
(-4.4913 -0.0374283 -2.88127)
(-4.39735 -0.0195338 -2.92777)
(-4.38741 0.0163293 -2.92427)
(-4.46527 0.0331286 -2.90978)
(-5.03203 -0.0105943 -1.04264)
(-5.71241 0.00490269 -0.656257)
(-5.39777 -0.00784699 -0.835463)
(-5.31008 -0.0177932 -0.878796)
(-5.34093 0.0211924 -0.846406)
(-5.33353 0.0346618 -0.88291)
(-2.18472 -0.0734934 2.63763)
(-2.59499 -0.0317014 3.08337)
(-2.40657 0.0258396 2.87836)
(-2.34784 -0.0107533 2.8301)
(-2.3681 0.014344 2.84551)
(-2.37028 0.0180543 2.83386)
(-7.0615 0.111095 2.61969)
(-7.15961 0.062012 2.95141)
(-7.06402 -0.0537249 2.79641)
(-7.15226 -0.025759 2.77313)
(-7.21393 0.0239528 2.77106)
(-6.98447 0.0608656 2.75724)
(-8.90908 0.113907 4.7206)
(-9.22763 0.0652901 5.08137)
(-9.03748 -0.0573532 4.91528)
(-9.10825 -0.0175897 4.89586)
(-9.21264 0.0156366 4.94856)
(-8.9134 0.0377598 4.85534)
(-5.00615 0.0776135 7.32862)
(-5.76796 0.0464455 8.02732)
(-5.41925 -0.0492208 7.73239)
(-5.36395 -0.0199331 7.64137)
(-5.45796 0.00450336 7.68624)
(-5.27782 0.0238953 7.62894)
(-8.17933 0.00693361 9.68594)
(-8.01129 0.00295332 9.86582)
(-8.03097 0.000685876 9.84585)
(-8.15703 0.000819973 9.72351)
(-8.271 0.00866862 9.59994)
(-7.90091 0.0254109 9.95417)
(-9.87396 0.0156354 9.30152)
(-9.85363 0.00751991 9.4275)
(-9.82384 -0.00375726 9.4231)
(-9.90859 0.0198376 9.31484)
(-10.03 -0.0189049 9.23268)
(-9.68744 -0.0275661 9.52808)
(-7.33558 0.0909007 8.61385)
(-7.53565 0.0464168 8.74582)
(-7.41551 -0.0335944 8.72068)
(-7.47944 0.0257297 8.65104)
(-7.58971 -0.0206958 8.62257)
(-7.333 -0.0271745 8.81501)
(-9.5242 -0.0393392 6.72715)
(-9.5447 -0.0299307 6.90354)
(-9.52075 0.0251931 6.92192)
(-9.5516 0.0349216 6.72839)
(-9.64574 -0.028676 6.53574)
(-9.4131 -0.0442298 7.1033)
(-8.45782 -0.0399671 5.37745)
(-8.47837 -0.027867 5.37593)
(-8.47632 0.0122603 5.43522)
(-8.46166 0.032579 5.31191)
(-8.5326 -0.0464748 5.17997)
(-8.38673 -0.0749276 5.5953)
(-5.12686 0.0213189 1.06592)
(-5.10973 0.00793068 0.925526)
(-5.12004 -0.0206101 1.04574)
(-5.1192 0.00394846 0.893782)
(-5.12367 -0.0168536 0.700002)
(-5.09023 -0.0214601 1.17664)
(-7.3799 -0.0184268 -0.120221)
(-7.38587 -0.0188191 -0.0587346)
(-7.40096 0.0131369 -0.0418562)
(-7.36304 0.0247056 -0.133358)
(-7.36607 -0.0286175 -0.29149)
(-7.39603 -0.0399181 0.11368)
(-3.74651 -0.0186073 -3.96149)
(-3.64698 -0.0152669 -4.11186)
(-3.68029 -0.000966418 -4.07012)
(-3.69713 0.0218589 -4.01937)
(-3.69196 -0.0364047 -4.13022)
(-3.69347 -0.0580229 -3.95459)
(-1.24463 0.00715168 -6.91648)
(-1.19169 0.00291813 -7.03028)
(-1.20323 -0.0080505 -7.00836)
(-1.22137 0.00355801 -6.96016)
(-1.20578 -0.0129827 -6.99297)
(-1.21894 -0.0184589 -6.96991)
(-4.42494 -0.0133708 -3.64985)
(-4.38502 -0.00726432 -3.61183)
(-4.39571 0.00729613 -3.63386)
(-4.4012 0.00784811 -3.64383)
(-4.40076 -0.00891616 -3.71274)
(-4.40173 -0.0128803 -3.56261)
(-2.18169 -0.0201587 -4.49165)
(-2.16096 -0.0108079 -4.53821)
(-2.16104 0.00978306 -4.53693)
(-2.17606 0.0120291 -4.49263)
(-2.18119 -0.0116426 -4.53176)
(-2.14902 -0.0231481 -4.49544)
(-0.910176 -0.0015415 -5.77998)
(-0.907274 0.000234225 -5.80253)
(-0.907572 -0.00231134 -5.80411)
(-0.909466 -0.00071961 -5.77502)
(-0.909953 -0.000793408 -5.78993)
(-0.903239 -0.00415004 -5.78867)
(-5.39801 -0.000635705 -3.36379)
(-5.41247 0.000275522 -3.30087)
(-5.40684 0.00142387 -3.3228)
(-5.39944 -0.000339613 -3.35595)
(-5.39506 0.00182455 -3.40642)
(-5.41328 0.00455828 -3.27967)
(-1.27142 -0.00949058 -3.42017)
(-1.27594 -0.00499339 -3.40386)
(-1.2788 0.00620685 -3.40523)
(-1.26663 0.00785376 -3.4189)
(-1.26478 -0.00792318 -3.43511)
(-1.27974 -0.0143885 -3.3868)
(-0.154146 -0.00151151 -4.33899)
(-0.152474 -0.00128744 -4.33668)
(-0.15367 0.000878817 -4.33814)
(-0.152494 0.00194914 -4.33755)
(-0.15396 -0.00278751 -4.34665)
(-0.152158 -0.00409994 -4.32904)
(-4.22455 0.00595325 -2.19552)
(-4.23213 0.00254553 -2.18839)
(-4.22614 -0.00196129 -2.19291)
(-4.23641 -0.00366898 -2.19933)
(-4.23985 0.00342117 -2.20475)
(-4.22681 0.00884917 -2.18592)
(-0.879059 -0.00361246 -5.52783)
(-0.875072 -0.00029044 -5.51929)
(-0.877387 0.000102852 -5.52304)
(-0.875551 0.00065259 -5.51597)
(-0.875485 -0.000841318 -5.52582)
(-0.878469 -0.00470208 -5.5129)
(0.0599363 -0.00117121 -3.09239)
(0.0628969 -0.000226014 -3.09434)
(0.0622973 -0.000577955 -3.09352)
(0.061033 -0.000219587 -3.09163)
(0.0594569 -0.000720126 -3.09388)
(0.0642698 -0.00206279 -3.09176)
(2.19075 -0.00901928 0.292424)
(2.18031 -0.0280663 0.293255)
(2.15872 -0.0412704 0.287998)
(2.1048 -0.0295979 0.418945)
(1.9989 0.00744089 0.481582)
(2.15509 0.0197811 0.427876)
(0.274601 -0.021958 -5.25187)
(0.314252 -0.047399 -5.28975)
(0.400846 -0.0690877 -5.28615)
(0.473763 -0.0960247 -5.24187)
(0.600383 -0.011063 -4.97536)
(0.458143 0.0436532 -5.20328)
(0.480949 0.0103575 -1.13933)
(0.520591 0.020749 -1.13209)
(0.581637 -0.00431942 -1.14533)
(0.581353 -0.0404496 -1.24016)
(0.633182 -0.0213895 -1.32827)
(0.534533 0.00562093 -1.2422)
(0.586627 -0.000388699 -0.189807)
(0.581265 0.00147523 -0.19416)
(0.562848 0.00811703 -0.192221)
(0.553787 0.0096915 -0.197501)
(0.539643 -0.000687354 -0.166856)
(0.5637 -0.00528167 -0.19454)
(-0.135527 0.013178 -2.11991)
(-0.156942 0.0323391 -2.11933)
(-0.170752 0.0438796 -2.07694)
(-0.219963 0.0407684 -1.96223)
(-0.261176 0.0164543 -1.85171)
(-0.195495 0.00318091 -2.06683)
(0.799621 0.00218241 -1.93503)
(0.803177 0.0014633 -1.94254)
(0.808067 -0.0170986 -1.95138)
(0.801123 -0.0257294 -1.96851)
(0.780925 -0.00422261 -1.98213)
(0.783035 0.00485384 -1.96487)
(0.214223 -0.000632594 0.208481)
(0.21317 -0.00168722 0.207749)
(0.214144 0.00535314 0.206969)
(0.216018 0.00622788 0.208797)
(0.217683 -0.00275246 0.207128)
(0.215802 -0.00216342 0.201322)
(-0.179716 -0.00421594 -1.06178)
(-0.173867 -0.00908224 -1.06684)
(-0.159349 -0.0151539 -1.05299)
(-0.156222 -0.0178314 -1.00736)
(-0.147553 0.00139186 -0.985777)
(-0.138047 0.0103209 -1.03109)
(0.241292 -0.000356581 -1.78228)
(0.244271 -0.00433951 -1.7787)
(0.245373 -0.0118614 -1.77332)
(0.235729 -0.0158154 -1.76165)
(0.229872 -0.00434024 -1.76038)
(0.235425 0.0033893 -1.75214)
(-0.238005 -0.000626001 0.240121)
(-0.236997 -0.000470166 0.239629)
(-0.237058 -0.00114504 0.239139)
(-0.234183 -0.00183051 0.241098)
(-0.233783 0.000394486 0.244087)
(-0.233757 0.00121063 0.235398)
(-0.721372 -0.000200129 -1.09789)
(-0.724809 0.000777623 -1.09696)
(-0.726826 -9.09769e-05 -1.09579)
(-0.729871 -0.00190962 -1.10791)
(-0.732263 0.00528677 -1.11789)
(-0.733911 0.00660205 -1.09223)
(-0.222887 -0.000357889 -1.99293)
(-0.2232 -0.00178107 -1.99465)
(-0.225304 -0.00347776 -1.99492)
(-0.230212 -0.00441089 -1.99376)
(-0.234272 -0.00281772 -1.99688)
(-0.232247 -0.000576035 -1.98893)
(-0.59991 -0.00137797 0.110895)
(-0.599652 -0.00143132 0.109413)
(-0.598521 -0.00107164 0.109269)
(-0.602917 -0.00141419 0.111821)
(-0.604014 -0.000281261 0.115481)
(-0.598382 0.00037822 0.106321)
(-1.16768 0.000884356 -1.9501)
(-1.17039 0.00286621 -1.95605)
(-1.17044 0.00450344 -1.95475)
(-1.16835 0.00320826 -1.97253)
(-1.16775 0.00403274 -1.98374)
(-1.17434 0.00363793 -1.9551)
(-0.904208 0.000302742 -2.31986)
(-0.905268 -0.000184469 -2.32087)
(-0.906042 -0.000218053 -2.32094)
(-0.905659 -7.02948e-05 -2.32135)
(-0.905605 -0.00192922 -2.32447)
(-0.90953 -0.00168359 -2.31692)
(-1.90154 -0.00131386 0.882052)
(-1.90257 -0.00186821 0.879834)
(-1.90079 0.00152518 0.879251)
(-1.90921 0.00272269 0.88382)
(-1.91196 -0.00297439 0.888769)
(-1.9015 -0.00345076 0.875454)
(-1.72313 0.00120436 -5.45414)
(-1.72092 0.00131913 -5.47287)
(-1.72244 0.000116277 -5.47015)
(-1.71742 -0.00101724 -5.46513)
(-1.71746 0.00243476 -5.46498)
(-1.72217 0.00361403 -5.47373)
(-0.849153 0.00166566 -2.27256)
(-0.848188 0.00137191 -2.26844)
(-0.84914 -0.00060372 -2.26808)
(-0.847495 -0.000494248 -2.27001)
(-0.847691 -9.54461e-05 -2.27291)
(-0.849062 -5.52977e-06 -2.26483)
(2.25924 -0.27375 5.82705)
(2.44361 -0.0377394 6.64604)
(1.36619 -0.206452 6.16667)
(3.24979 0.351487 6.09575)
(5.46827 -0.0811067 6.92133)
(1.25953 0.521798 5.83969)
(2.0483 -0.368087 5.46686)
(1.73353 0.496546 4.70451)
(1.9389 -0.47138 4.33236)
(3.2066 0.124392 5.13003)
(5.39319 0.0700307 6.68122)
(1.85872 0.603225 4.88835)
(2.93786 0.379488 6.43603)
(2.73692 -0.269472 13.4572)
(4.2896 -1.59815 11.9685)
(4.0068 -0.737675 5.70499)
(4.8754 1.63665 7.38644)
(2.95012 1.26128 10.9823)
(-2.15014 -0.249584 8.94807)
(-1.98114 0.0379134 7.68969)
(-1.29457 0.631469 7.84262)
(-3.16353 1.53763 7.89906)
(-4.72166 1.15234 5.96969)
(-1.60008 0.543153 6.33175)
(-2.26311 0.0177428 9.2708)
(0.604274 0.675297 8.3707)
(1.47312 0.844825 7.39042)
(-0.445648 1.80208 7.33263)
(-1.509 0.95894 6.43775)
(-1.46285 0.514054 8.09302)
(1.83007 0.123843 6.06294)
(4.28324 0.749641 5.12011)
(4.13409 0.503013 3.43893)
(2.20638 1.39516 4.75811)
(1.18847 0.432285 5.99001)
(-0.0721737 0.421784 8.65254)
(1.70598 0.302767 -0.761622)
(2.71454 0.428117 -2.01235)
(2.53576 0.147081 -1.51572)
(2.82918 -0.119608 -1.7332)
(2.72513 -0.59758 -1.4415)
(1.15044 -0.178828 0.217833)
(1.46734 0.306006 -0.13276)
(1.75457 0.295369 -0.748968)
(1.66312 -0.357087 0.0388511)
(2.13276 -0.278963 1.67557)
(2.4362 -0.542389 0.200331)
(1.61606 -0.0828925 0.413422)
(0.551823 0.163998 -1.60626)
(0.26404 -0.190798 -2.05479)
(0.463585 -0.691872 -2.05482)
(0.930308 -0.564889 -1.64915)
(1.04977 -0.268995 -1.87263)
(1.88005 -0.00566279 -0.678426)
(-0.575716 0.0790279 -3.45224)
(-0.573498 0.0933258 -3.52501)
(-0.455722 0.0772576 -3.46194)
(-0.264173 0.109881 -3.75665)
(-0.533353 -0.106811 -3.85323)
(-0.713119 -0.194337 -3.23497)