/*--------------------------------*- C++ -*----------------------------------*\
| =========                 |                                                 |
| \\      /  F ield         | OpenFOAM: The Open Source CFD Toolbox           |
|  \\    /   O peration     | Version:  v1612+                                |
|   \\  /    A nd           | Web:      www.OpenFOAM.com                      |
|    \\/     M anipulation  |                                                 |
\*---------------------------------------------------------------------------*/
FoamFile
{
    version     2.0;
    format      ascii;
    class       surfaceScalarField;
    location    "1.9";
    object      alphaPhi;
}
// * * * * * * * * * * * * * * * * * * * * * * * * * * * * * * * * * * * * * //

dimensions      [0 3 -1 0 0 0 0];

internalField   nonuniform List<scalar> 
816
(
-9.86574e-07
-8.78188e-08
1.3701e-07
3.43364e-07
7.34442e-07
-1.4106e-07
-4.72546e-09
1.19338e-06
-1.33362e-06
1.63556e-06
-2.47318e-06
2.20834e-07
4.0888e-08
-1.02562e-06
-6.61816e-07
1.33919e-06
-4.15742e-07
1.28843e-06
1.46182e-07
-7.82533e-07
-6.2016e-11
-1.28309e-10
3.20937e-06
-3.47506e-10
5.16869e-10
-4.19322e-10
-2.52953e-06
-1.59587e-10
8.58171e-11
-2.18357e-10
2.44798e-06
1.69595e-10
-2.35972e-10
-6.61201e-11
1.4139e-06
-7.14718e-10
1.04907e-09
1.96951e-10
-2.60008e-06
1.73968e-10
3.10857e-10
-3.98978e-10
2.3729e-07
8.98779e-10
2.86548e-10
3.78272e-10
-6.42019e-06
-4.92454e-11
8.12295e-10
-2.97175e-12
1.56015e-06
-2.86053e-10
2.92945e-10
2.09393e-10
5.05409e-06
-1.68342e-11
3.27466e-10
5.25734e-10
3.59982e-06
-4.11353e-10
4.61811e-10
1.03889e-10
-1.51114e-06
-5.63492e-10
4.17023e-10
5.01909e-06
-4.6269e-11
-1.45238e-10
3.20073e-06
3.62288e-08
-1.52283e-06
3.76472e-06
6.15337e-06
9.38769e-07
-6.97066e-06
4.08944e-06
1.9891e-06
1.62429e-06
2.55795e-06
2.32555e-06
4.15514e-06
-4.03649e-07
4.32884e-06
4.71645e-08
1.31691e-06
-1.25597e-06
1.9862e-06
1.14059e-06
1.69323e-06
-8.49831e-07
-1.33945e-06
-5.63943e-07
3.55662e-06
-5.30088e-06
-1.69298e-06
-1.20206e-06
3.00384e-06
-5.22437e-06
4.62541e-06
-4.27262e-06
6.81344e-06
2.83957e-06
-1.76392e-10
2.53146e-06
8.50264e-06
4.02696e-06
4.84154e-06
1.19482e-06
6.47261e-06
1.05701e-06
-3.1162e-06
-6.57762e-07
4.14168e-06
1.15066e-05
7.51657e-06
1.11744e-06
1.14575e-06
-2.61709e-06
-4.42823e-07
5.32872e-07
-2.3301e-06
-2.41262e-06
1.07607e-07
3.35675e-07
1.66981e-06
-3.30621e-07
-1.4478e-06
1.49132e-06
1.60698e-06
2.23534e-07
9.99437e-07
6.11035e-07
1.44035e-06
-4.3831e-07
-6.00514e-07
4.95087e-07
1.95694e-07
-5.30188e-07
-1.44908e-06
1.13534e-06
8.03586e-07
2.13651e-06
1.19653e-06
-1.16785e-06
5.84678e-07
9.8475e-07
4.11432e-07
-4.90431e-07
2.87738e-06
2.86147e-07
-2.07841e-06
-1.05497e-06
-1.23387e-07
5.38278e-06
4.28392e-07
9.9981e-07
-3.26048e-07
3.13184e-07
7.8149e-08
3.81253e-07
2.90183e-07
4.07151e-07
4.57983e-07
1.4467e-09
4.44339e-07
5.10704e-07
3.12088e-07
-1.01524e-06
-1.322e-07
-1.67453e-07
1.01803e-06
2.22209e-07
6.06785e-07
-1.39492e-06
6.49118e-07
-2.24457e-07
-1.23504e-06
5.00103e-07
-6.19471e-07
8.5958e-07
-3.70258e-07
-5.11007e-07
4.4572e-07
1.23276e-06
5.72142e-07
6.53617e-07
8.22871e-07
7.25772e-07
1.22417e-07
-1.91822e-07
3.15205e-08
4.77681e-07
-1.01748e-07
-9.76438e-07
5.11596e-07
-1.54574e-07
-1.22692e-07
9.36831e-07
6.63453e-07
-6.25033e-07
8.67753e-07
2.72339e-07
-4.80933e-08
-1.50533e-07
4.82131e-07
9.152e-07
-9.29897e-07
3.81256e-07
-2.66586e-07
7.77429e-07
6.97938e-07
1.58865e-06
2.41635e-10
-3.85268e-10
1.44213e-06
-2.35726e-10
2.39656e-10
3.11784e-06
-3.52763e-10
-3.72662e-11
-5.46268e-06
-2.69053e-10
-3.02005e-10
-1.61633e-06
-4.49909e-10
6.92742e-11
2.87608e-07
-8.76236e-10
-9.03033e-10
-5.64177e-11
2.50727e-06
-7.85871e-10
5.85703e-10
2.29438e-06
-8.86076e-10
4.10607e-11
-1.75702e-06
-3.85941e-10
-4.66679e-10
1.29228e-11
2.97767e-11
-2.96981e-10
1.54607e-06
4.89383e-10
-7.13418e-10
9.00755e-11
2.37412e-06
-5.75465e-11
-9.97463e-13
-5.18734e-06
-4.54773e-10
6.02602e-11
2.63113e-06
-2.55899e-10
5.57451e-10
8.35504e-07
-3.89657e-10
-1.09932e-10
-6.8507e-06
-3.99577e-10
3.73308e-10
-6.06983e-10
-2.24493e-06
-1.00434e-10
-8.29436e-11
2.36696e-06
-5.85064e-10
-2.03695e-10
2.64235e-06
-7.74274e-10
-1.87669e-10
3.34715e-06
3.64696e-10
-2.13435e-06
2.30711e-11
1.27411e-11
2.29916e-06
-5.00702e-06
8.91885e-06
5.3179e-06
3.78583e-06
4.23499e-06
1.05483e-05
-1.62151e-06
-1.62135e-06
4.23643e-06
-5.08462e-06
3.16929e-06
1.7766e-06
4.68664e-08
4.98146e-06
1.74411e-07
-5.33678e-06
1.9768e-06
6.97043e-06
2.58798e-06
2.5158e-06
8.00296e-06
4.42286e-07
-3.2651e-06
7.14041e-06
-1.59411e-06
-2.7759e-06
4.90407e-06
-2.94938e-06
-9.36962e-07
-6.20927e-06
5.71307e-06
4.79901e-06
-3.37767e-07
6.91695e-06
7.26028e-06
-7.29355e-06
1.05092e-06
-1.61754e-06
-3.77016e-07
1.39816e-06
-4.97232e-07
6.30126e-06
2.19673e-06
5.8886e-06
-1.19176e-06
-2.23161e-06
-1.14882e-06
9.10612e-07
-9.51831e-07
-1.1896e-06
6.84231e-06
-2.38706e-07
4.72796e-06
5.40745e-06
-1.92285e-06
1.0115e-05
1.19743e-06
3.36181e-06
7.16452e-06
1.87035e-06
-1.81171e-06
7.88685e-06
-3.36617e-06
-2.60445e-07
3.18909e-06
4.3067e-06
2.11293e-06
2.71826e-07
1.85029e-06
2.39909e-06
-8.71103e-07
-7.10763e-07
3.22013e-07
1.93861e-07
2.41658e-06
-6.57488e-07
-1.5282e-06
2.82091e-06
1.43138e-06
2.44545e-06
-9.97158e-10
3.50635e-06
4.41595e-07
1.96048e-06
3.47967e-06
2.78015e-06
3.26391e-06
3.17365e-06
4.10581e-06
4.02487e-06
2.59426e-06
2.03768e-06
-2.30179e-06
-2.70898e-06
-5.57505e-07
3.37651e-06
-5.0202e-07
3.22711e-06
2.07901e-06
2.43242e-07
6.04536e-07
8.53762e-07
1.54748e-07
8.25815e-07
1.86804e-06
9.31876e-07
1.16298e-06
1.25611e-06
-1.48407e-06
-6.82252e-07
6.12663e-07
2.71265e-07
-2.25801e-06
2.91181e-08
-1.87977e-08
-1.09841e-06
2.10938e-06
1.75234e-06
1.52643e-06
4.31115e-06
3.06463e-06
3.35902e-06
3.09206e-06
3.24356e-06
-1.03154e-06
2.19715e-06
3.57524e-06
-2.57342e-07
2.02456e-06
1.28543e-06
2.04113e-06
-5.79334e-08
4.84841e-07
1.7981e-06
-1.00421e-06
7.13004e-08
6.5155e-07
4.96076e-08
7.54899e-07
2.26575e-07
-7.79957e-07
9.14605e-07
1.35076e-06
1.34053e-06
2.99975e-07
1.11409e-06
7.65184e-07
1.04597e-06
1.34565e-06
1.94e-06
1.67477e-06
8.53661e-07
2.3883e-06
2.58702e-06
6.27002e-07
1.05901e-06
-1.37881e-06
-8.89614e-07
-2.65623e-07
2.40035e-06
-5.22214e-07
9.77228e-07
1.84227e-06
-3.69366e-07
1.82787e-07
7.81414e-07
-3.28213e-07
2.71575e-07
1.45923e-06
1.5639e-07
3.06584e-07
1.26013e-06
-9.29861e-07
-1.90554e-07
5.88334e-07
1.45253e-08
-9.27084e-07
7.71008e-08
2.38305e-07
-4.48536e-07
6.12899e-07
1.51141e-06
8.24357e-07
1.29804e-06
2.12907e-06
2.14272e-06
8.7228e-07
1.6028e-06
-2.35684e-07
1.71928e-06
1.68282e-06
-2.63461e-07
2.39857e-07
2.48096e-08
2.92648e-07
2.22397e-07
1.13438e-07
-1.55277e-07
1.95594e-07
3.01402e-07
-3.82962e-07
3.05291e-08
5.98376e-07
9.91426e-08
-4.92417e-07
1.95777e-07
-5.68201e-07
1.5392e-07
4.91946e-07
-2.84349e-07
-3.29888e-07
8.54314e-07
1.2867e-07
6.3629e-07
3.47989e-07
-2.18244e-07
2.9812e-07
4.31582e-07
-2.82682e-07
4.85032e-07
1.36156e-07
5.45912e-07
-5.00906e-07
4.59866e-07
1.32511e-07
-1.60768e-07
1.96956e-07
-3.58223e-07
2.2985e-07
3.0503e-07
4.35614e-07
-2.95594e-07
1.10938e-06
7.76967e-07
-3.17366e-07
7.00253e-07
-4.62461e-07
3.68033e-07
-1.4348e-08
1.93065e-08
-2.12779e-07
4.8118e-07
6.25419e-07
2.64405e-07
2.92422e-07
8.77721e-07
8.39094e-07
1.08135e-06
9.71755e-07
1.40207e-06
5.75148e-07
-8.07811e-07
9.99917e-08
1.19869e-06
-3.33736e-07
8.9916e-07
-2.28971e-07
5.53273e-07
-9.57353e-08
6.7976e-07
1.19679e-07
5.52749e-07
-5.63486e-07
3.97177e-07
1.05653e-07
-5.29038e-07
1.90181e-07
-2.28391e-07
5.19639e-07
3.86534e-07
9.18257e-07
9.22612e-07
7.70068e-07
8.35601e-07
9.62849e-07
-1.44847e-10
3.3916e-10
-9.88673e-06
1.35348e-10
-3.55344e-06
6.71673e-11
-1.49119e-05
-4.74907e-10
-7.92001e-06
-6.52025e-10
1.30805e-06
-4.42874e-10
-1.50507e-06
1.25477e-10
4.07938e-06
6.68927e-11
1.8073e-06
6.81359e-11
-2.58071e-06
6.95223e-10
-9.02107e-06
1.07512e-09
-7.20926e-06
2.8571e-10
7.83274e-07
-2.67938e-10
-1.8112e-07
-4.23754e-10
-6.95934e-06
-4.81482e-10
-1.55764e-05
-7.33191e-11
-1.33036e-05
3.27722e-11
3.77026e-07
8.35122e-11
-5.85141e-06
6.66108e-10
-9.57375e-06
4.63556e-10
-1.20002e-06
1.97599e-11
1.93048e-06
-8.5924e-10
-2.05439e-06
-1.18748e-09
-8.79687e-06
3.8258e-10
-8.84045e-06
7.2208e-10
-5.33283e-06
1.6832e-10
3.02824e-12
-4.21858e-11
2.12742e-06
-9.43552e-06
1.38352e-06
-2.06384e-06
-4.85164e-06
2.13506e-06
-5.89854e-07
-1.65325e-06
-8.35727e-06
-6.15489e-06
-1.84064e-06
-5.60282e-06
5.48233e-06
-5.28247e-06
-1.55602e-06
4.77299e-06
-3.47647e-06
5.84944e-06
-3.89173e-06
3.36558e-06
3.97781e-06
-2.7575e-06
-4.14683e-06
-2.62995e-07
-1.39554e-05
5.40845e-06
-4.89455e-06
5.47501e-06
5.63584e-06
-1.30109e-06
-1.8827e-06
-2.17382e-06
-1.27441e-05
-7.42304e-06
-3.57512e-06
-5.66918e-06
-7.77936e-08
1.02394e-06
-3.31826e-06
1.94592e-07
-3.23261e-06
-2.37962e-06
-1.22759e-06
6.5277e-06
-1.4466e-06
5.09428e-06
3.0694e-07
-8.56748e-07
1.3635e-06
-4.0892e-06
-3.05119e-06
-3.51094e-06
-6.63178e-06
1.64367e-07
-3.01e-06
6.7856e-06
-6.08976e-06
-8.37043e-06
-2.29423e-06
2.55042e-06
-2.91771e-06
7.50985e-08
-8.51006e-07
-1.89531e-06
-3.98894e-06
-2.2004e-06
-1.22159e-06
5.95369e-07
2.02113e-06
1.7724e-06
-1.34348e-06
-6.78611e-07
-1.04024e-06
-9.58331e-07
-1.17768e-06
2.25722e-06
1.1913e-06
3.34573e-06
-2.46859e-06
-3.25904e-07
-6.19194e-06
-1.50909e-06
-1.68295e-06
1.30366e-06
2.25818e-06
9.06001e-07
-1.49146e-06
-2.33372e-06
-6.13078e-06
-1.4345e-06
-2.40206e-06
-1.41696e-07
-5.17059e-07
-2.78436e-09
-1.58548e-06
-3.78347e-08
-1.9415e-06
1.75458e-07
-8.25537e-07
-9.99781e-07
-2.64628e-07
-6.56548e-07
2.42262e-07
3.11099e-07
3.85946e-07
1.10528e-06
-2.08709e-06
9.02977e-07
-3.36116e-06
1.9758e-06
-8.37148e-07
1.59187e-06
-2.10143e-06
-4.21581e-06
-1.28228e-06
1.09195e-06
-1.00501e-06
-1.39417e-07
1.77838e-08
-1.14706e-06
-1.1903e-06
-1.2915e-06
-4.30392e-07
2.53058e-07
7.01285e-07
4.34678e-07
-1.76471e-07
-2.63089e-07
-3.9792e-07
2.51709e-07
-3.69316e-07
1.7919e-06
4.1133e-07
1.71722e-06
-4.71183e-07
-3.52214e-07
-1.75945e-06
-2.9931e-07
-6.98889e-07
1.28863e-06
3.78347e-07
5.03185e-07
-7.19126e-07
-1.27535e-06
-1.97593e-06
-1.15288e-06
-6.92343e-07
-5.86884e-07
-3.01008e-07
-3.07861e-07
-3.92872e-07
-4.67742e-07
-5.18414e-07
-3.47737e-07
-3.42145e-07
-2.81442e-07
-3.25983e-07
6.15185e-08
-6.82212e-08
6.30362e-07
6.61557e-08
4.04232e-07
-3.42225e-07
4.25708e-08
-8.6889e-07
1.06292e-06
-2.6339e-07
1.52363e-06
-8.8401e-07
-1.59913e-06
-9.5242e-07
7.83259e-07
-1.66006e-07
-6.57098e-07
-7.20532e-07
-1.05051e-08
2.98911e-07
-1.04076e-07
1.45472e-07
8.36315e-07
1.18766e-06
3.83219e-07
2.44074e-07
7.05295e-07
-2.01311e-08
-8.19927e-07
-6.21666e-07
-3.73129e-07
-8.44205e-08
-4.23199e-08
1.95253e-08
-3.02091e-07
-2.56092e-07
6.53702e-09
1.87338e-07
2.36957e-07
7.4069e-07
8.15144e-07
-6.90634e-11
-1.84562e-10
-4.83996e-06
-7.4764e-10
-2.5699e-06
-1.60587e-10
-9.34865e-06
-5.54814e-06
3.21088e-06
4.25148e-07
1.25016e-06
2.26186e-06
)
;

boundaryField
{
    top_fluid_surface
    {
        type            calculated;
        value           nonuniform List<scalar> 
64
(
0
3.74698e-10
0
0
0
0
0
3.88288e-10
0
0
4.13894e-10
5.51457e-11
1.91414e-10
0
3.78866e-10
7.1617e-10
8.17651e-10
3.51692e-10
0
7.15642e-10
9.23221e-10
0
0
4.76489e-10
0
0
6.28569e-10
6.25017e-10
0
1.59943e-11
0
0
0
0
0
1.18132e-10
0
0
0
0
0
0
0
5.36724e-10
8.52038e-10
1.49946e-10
0
0
0
0
0
0
3.64921e-10
8.48321e-10
0
0
0
5.6672e-10
2.60213e-10
5.59841e-10
9.51974e-10
1.0077e-09
7.1548e-10
1.4479e-10
)
;
    }
    bottom_fluid_surface
    {
        type            calculated;
        value           uniform 0;
    }
    lateral_surface_1
    {
        type            calculated;
        value           uniform 0;
    }
    lateral_surface_2
    {
        type            calculated;
        value           uniform 0;
    }
    lateral_surface_3
    {
        type            calculated;
        value           uniform 0;
    }
    lateral_surface_4
    {
        type            calculated;
        value           uniform 0;
    }
}


// ************************************************************************* //
