/*--------------------------------*- C++ -*----------------------------------*\
| =========                 |                                                 |
| \\      /  F ield         | OpenFOAM: The Open Source CFD Toolbox           |
|  \\    /   O peration     | Version:  v1612+                                |
|   \\  /    A nd           | Web:      www.OpenFOAM.com                      |
|    \\/     M anipulation  |                                                 |
\*---------------------------------------------------------------------------*/
FoamFile
{
    version     2.0;
    format      ascii;
    class       volScalarField;
    location    "1.9";
    object      p;
}
// * * * * * * * * * * * * * * * * * * * * * * * * * * * * * * * * * * * * * //

dimensions      [1 -1 -2 0 0 0 0];

internalField   nonuniform List<scalar> 
320
(
14724.8
14724.8
14724.8
14724.8
4.92773
4.92794
4.9286
4.92894
4.92889
4.92997
4.9285
4.92933
4.92654
4.92724
4.92676
4.92679
4914.82
4914.77
4914.82
4914.86
4914.86
4914.84
4914.85
4914.81
4914.82
4914.82
4914.78
4914.8
14724.8
14724.8
14724.8
14724.8
14724.8
14724.8
14724.8
14724.8
14724.8
14724.8
14724.8
14724.8
24534.8
24534.8
24534.8
24534.8
24534.8
24534.8
24534.8
24534.8
24534.8
24534.8
24534.8
24534.8
24534.8
24534.8
24534.8
24534.8
4.92734
4.92798
4.92841
4.92819
4.92877
4.92915
4.93063
4.9293
4.92817
4.92852
4.928
4.92788
4.92641
4.92682
4.92666
4.92661
4.92704
4.92695
4.92808
4.92751
4914.81
4914.84
4914.8
4914.77
4914.79
4914.8
4914.86
4914.81
4914.79
4914.81
4914.84
4914.8
4914.83
4914.83
4914.77
4914.77
4914.84
4914.82
4914.85
4914.83
14724.8
14724.8
14724.8
14724.8
14724.8
14724.8
14724.8
14724.8
14724.8
14724.8
14724.8
14724.8
14724.8
14724.8
14724.8
14724.8
14724.8
14724.8
14724.8
14724.8
24534.8
24534.8
24534.8
24534.8
24534.8
24534.8
24534.8
24534.8
24534.8
24534.8
24534.8
24534.8
24534.8
24534.8
24534.8
24534.8
24534.8
24534.8
24534.8
24534.8
34344.8
34344.8
34344.8
34344.8
34344.8
34344.8
34344.8
34344.8
34344.8
34344.8
34344.8
34344.8
34344.8
34344.8
34344.8
34344.8
34344.8
34344.8
34344.8
34344.8
34344.8
34344.8
34344.8
34344.8
34344.8
34344.8
34344.8
34344.8
34344.8
34344.8
34344.8
34344.8
34344.8
34344.8
34344.8
34344.8
4.93019
4.92729
4.93004
4.92956
4.92912
4.92961
4.92978
4.92777
4.93086
4.93089
4.92996
4.92843
4.92895
4.92973
4.92999
4.93002
4.92845
4.92701
4.92931
4.9264
4.9264
4.92702
4.92762
4.92768
4.92808
4.92761
4.92642
4.92687
4914.85
4914.85
4914.84
4914.81
4914.86
4914.86
4914.83
4914.82
4914.87
4914.86
4914.82
4914.77
4914.8
4914.81
4914.83
4914.85
4914.84
4914.83
4914.85
4914.83
4914.76
4914.77
4914.84
4914.86
4914.84
4914.78
4914.77
4914.79
14724.8
14724.8
14724.8
14724.8
14724.8
14724.8
14724.8
14724.8
14724.8
14724.8
14724.8
14724.8
14724.8
14724.8
14724.8
14724.8
14724.8
14724.8
14724.8
14724.8
14724.8
14724.8
14724.8
14724.8
14724.8
14724.8
14724.8
14724.8
24534.8
24534.8
24534.8
24534.8
24534.8
24534.8
24534.8
24534.8
24534.8
24534.8
24534.8
24534.8
24534.8
24534.8
24534.8
24534.8
24534.8
24534.8
24534.8
24534.8
24534.8
24534.8
24534.8
24534.8
24534.8
24534.8
24534.8
24534.8
34344.8
34344.8
34344.8
34344.8
34344.8
34344.8
34344.8
34344.8
34344.8
34344.8
34344.8
34344.8
34344.8
34344.8
34344.8
34344.8
34344.8
34344.8
34344.8
34344.8
34344.8
34344.8
34344.8
34344.8
34344.8
34344.8
34344.8
34344.8
4.92729
4.92792
4.92798
4.92814
4914.76
4914.78
4914.8
4914.82
)
;

boundaryField
{
    top_fluid_surface
    {
        type            calculated;
        value           nonuniform List<scalar> 
64
(
0
0
-2.80143e-10
-1.46788e-09
-2.37349e-09
-4.2806e-09
-6.1597e-09
-6.13572e-10
-2.6529e-09
-1.42448e-09
0
0
0
-2.11866e-10
0
0
0
0
-2.8226e-09
0
0
-1.44883e-10
-5.97094e-11
0
-8.23206e-11
-6.70331e-10
0
0
-1.82903e-09
0
-1.76262e-09
-1.76819e-09
-1.29129e-09
-3.3045e-10
-6.1757e-11
0
-7.38973e-10
-4.24659e-09
-2.35439e-09
-9.06611e-10
-3.36896e-09
-6.16214e-09
-2.45579e-09
0
0
0
-8.2941e-10
-5.54035e-10
-1.73993e-09
-4.41764e-10
-5.55575e-09
-6.78754e-10
0
0
-6.33999e-12
-1.28947e-08
-4.46929e-09
0
0
0
0
0
0
0
)
;
    }
    bottom_fluid_surface
    {
        type            calculated;
        value           nonuniform List<scalar> 
64
(
39249.8
39249.8
39249.8
39249.8
39249.8
39249.8
39249.8
39249.8
39249.8
39249.8
39249.8
39249.8
39249.8
39249.8
39249.8
39249.8
39249.8
39249.8
39249.8
39249.8
39249.8
39249.8
39249.8
39249.8
39249.8
39249.8
39249.8
39249.8
39249.8
39249.8
39249.8
39249.8
39249.8
39249.8
39249.8
39249.8
39249.8
39249.8
39249.8
39249.8
39249.8
39249.8
39249.8
39249.8
39249.8
39249.8
39249.8
39249.8
39249.8
39249.8
39249.8
39249.8
39249.8
39249.8
39249.8
39249.8
39249.8
39249.8
39249.8
39249.8
39249.8
39249.8
39249.8
39249.8
)
;
    }
    lateral_surface_1
    {
        type            calculated;
        value           nonuniform List<scalar> 
40
(
4.93019
4.92729
4.93004
4.92956
4.92912
4.92961
4.92978
4.92687
4914.85
4914.85
4914.84
4914.81
4914.86
4914.86
4914.83
4914.79
14724.8
14724.8
14724.8
14724.8
14724.8
14724.8
14724.8
14724.8
24534.8
24534.8
24534.8
24534.8
24534.8
24534.8
24534.8
24534.8
34344.8
34344.8
34344.8
34344.8
34344.8
34344.8
34344.8
34344.8
)
;
    }
    lateral_surface_2
    {
        type            calculated;
        value           nonuniform List<scalar> 
40
(
4.92973
4.92999
4.93002
4.92845
4.92701
4.92931
4.9264
4.9264
4914.81
4914.83
4914.85
4914.84
4914.83
4914.85
4914.83
4914.76
14724.8
14724.8
14724.8
14724.8
14724.8
14724.8
14724.8
14724.8
24534.8
24534.8
24534.8
24534.8
24534.8
24534.8
24534.8
24534.8
34344.8
34344.8
34344.8
34344.8
34344.8
34344.8
34344.8
34344.8
)
;
    }
    lateral_surface_3
    {
        type            calculated;
        value           nonuniform List<scalar> 
40
(
4.92978
4.92777
4.93086
4.93089
4.92996
4.92843
4.92895
4.92973
4914.83
4914.82
4914.87
4914.86
4914.82
4914.77
4914.8
4914.81
14724.8
14724.8
14724.8
14724.8
14724.8
14724.8
14724.8
14724.8
24534.8
24534.8
24534.8
24534.8
24534.8
24534.8
24534.8
24534.8
34344.8
34344.8
34344.8
34344.8
34344.8
34344.8
34344.8
34344.8
)
;
    }
    lateral_surface_4
    {
        type            calculated;
        value           nonuniform List<scalar> 
40
(
4.9264
4.92702
4.92762
4.92768
4.92808
4.92761
4.92642
4.92687
4914.76
4914.77
4914.84
4914.86
4914.84
4914.78
4914.77
4914.79
14724.8
14724.8
14724.8
14724.8
14724.8
14724.8
14724.8
14724.8
24534.8
24534.8
24534.8
24534.8
24534.8
24534.8
24534.8
24534.8
34344.8
34344.8
34344.8
34344.8
34344.8
34344.8
34344.8
34344.8
)
;
    }
}


// ************************************************************************* //
