/*--------------------------------*- C++ -*----------------------------------*\
| =========                 |                                                 |
| \\      /  F ield         | OpenFOAM: The Open Source CFD Toolbox           |
|  \\    /   O peration     | Version:  v1612+                                |
|   \\  /    A nd           | Web:      www.OpenFOAM.com                      |
|    \\/     M anipulation  |                                                 |
\*---------------------------------------------------------------------------*/
FoamFile
{
    version     2.0;
    format      ascii;
    class       volScalarField;
    location    "5.5";
    object      alpha.water;
}
// * * * * * * * * * * * * * * * * * * * * * * * * * * * * * * * * * * * * * //

dimensions      [0 0 0 0 0 0 0];

internalField   nonuniform List<scalar> 
1116
(
0.359873
0.359867
0.359868
0.359868
0.359868
0.359869
0.371246
0.371232
0.371235
0.371238
0.371236
0.371243
0.557721
0.557692
0.557702
0.557705
0.557698
0.557716
0.934883
0.934879
0.934879
0.934879
0.934877
0.934882
0.974889
0.974889
0.974889
0.974889
0.974889
0.974889
0.974888
0.974888
0.974888
0.974888
0.974888
0.974888
0.97486
0.97486
0.97486
0.97486
0.97486
0.97486
0.974554
0.974555
0.974555
0.974555
0.974555
0.974554
0.972666
0.97267
0.972669
0.972667
0.972667
0.972667
0.969703
0.969711
0.969709
0.969704
0.969703
0.969708
0.967481
0.967492
0.967489
0.967484
0.967485
0.967485
0.964382
0.964391
0.964388
0.964385
0.964387
0.964381
0.0176726
0.0176586
0.0176672
0.0176661
0.0176612
0.0176671
0.0757135
0.0756817
0.0757002
0.0756945
0.0756845
0.0757055
0.473985
0.474104
0.474051
0.474026
0.474059
0.474021
0.910812
0.910927
0.910876
0.91086
0.910894
0.910844
0.973759
0.973763
0.973762
0.973761
0.973762
0.97376
0.941997
0.942034
0.942025
0.942014
0.942026
0.942006
0.835639
0.835758
0.835724
0.835692
0.83573
0.835661
0.658784
0.658919
0.658882
0.658829
0.658863
0.658811
0.519459
0.519538
0.519519
0.519435
0.519375
0.519554
0.481618
0.48166
0.48166
0.481539
0.481425
0.481782
0.559537
0.559335
0.55935
0.559527
0.559689
0.559149
0.517429
0.517241
0.517266
0.517414
0.517302
0.517223
0.000870615
0.000879676
0.000875156
0.000875508
0.000877827
0.000873478
0.0299576
0.0300664
0.0300186
0.0300077
0.0300327
0.0299882
0.216134
0.216353
0.21627
0.216237
0.216287
0.2162
0.289552
0.289634
0.28962
0.289591
0.28961
0.289586
0.285104
0.285149
0.285151
0.285123
0.285131
0.285129
0.208991
0.209009
0.209015
0.208991
0.208988
0.209002
0.0951682
0.095187
0.0951886
0.0951649
0.095159
0.0951776
0.0170942
0.0170846
0.0170937
0.0170728
0.0170479
0.0171022
1.61471e-06
1.74725e-06
1.7239e-06
1.62223e-06
1.54311e-06
1.81122e-06
4.6948e-05
5.28443e-05
5.17468e-05
4.74169e-05
4.41357e-05
5.51539e-05
0.023908
0.0237898
0.0237654
0.0239013
0.0239574
0.0237214
0.0176806
0.0176788
0.0176767
0.0176691
0.0176624
0.0176624
0.000686503
0.000695757
0.000691101
0.000691493
0.000693884
0.000689407
0.0037398
0.00375341
0.00374686
0.00374683
0.00375046
0.00374339
8.24833e-07
8.24174e-07
8.24267e-07
8.24732e-07
8.25114e-07
8.25273e-07
8.22252e-07
8.21833e-07
8.21892e-07
8.22241e-07
8.22649e-07
8.22854e-07
8.24833e-07
8.24174e-07
8.24267e-07
8.24732e-07
8.25114e-07
8.25273e-07
8.29683e-07
8.29123e-07
8.29165e-07
8.29671e-07
8.30152e-07
8.30286e-07
8.51728e-07
8.50667e-07
8.50819e-07
8.51726e-07
8.5278e-07
8.51867e-07
8.78226e-07
8.76983e-07
8.77102e-07
8.78277e-07
8.79845e-07
8.78164e-07
9.34412e-07
9.35081e-07
9.34707e-07
9.34701e-07
9.34897e-07
9.36701e-07
1.59985e-06
1.72728e-06
1.70431e-06
1.60661e-06
1.53069e-06
1.78827e-06
0.000532708
0.000798947
0.000754306
0.000553351
0.000396102
0.000923739
0.0358416
0.0362921
0.0362027
0.0358419
0.0354724
0.0365031
0.047123
0.0472726
0.047288
0.0473113
0.0471849
0.0474731
0.0326483
0.0302831
0.0394938
0.0404239
0.0315359
0.0474731
0.0181274
0.0167856
0.00866057
0.0312044
0.0636611
0.0323188
0.0809848
0.081198
0.0672987
0.077922
0.0780584
0.0302656
0.083498
0.0836513
0.083514
0.0833823
0.0725142
0.0734196
0.0825352
0.0836637
0.0837234
0.0829781
0.065151
0.0827775
0.0834383
0.086289
0.0840874
0.0840168
0.0924661
0.0833053
0.0906086
0.0908415
0.0916735
0.0927407
0.092796
0.0915789
0.0911596
0.0917698
0.0921354
0.0924373
0.0927606
0.0922757
0.0917696
0.0921351
0.0921352
0.092913
0.0924329
0.06383
0.0795852
0.089987
0.0918272
0.0936596
0.0920819
0.0584413
0.00737964
0.00989597
0.0115616
0.0135004
0.0387853
0.016768
0.0469631
0.047123
0.0472726
0.047288
0.0458559
0.0462201
0.000760487
0.000509502
0.00100214
0.000198651
6.55276e-05
0.00297433
0.00201631
0.00196216
0.00188361
0.00264035
0.00240529
0.00218152
0.000718203
0.000706095
0.00117003
0.00050906
0.000133585
0.000908201
1.03735e-09
6.0975e-09
1.40765e-08
2.34967e-09
4.37998e-09
7.66297e-09
5.38009e-10
7.6869e-09
2.22386e-09
1.27246e-09
4.13245e-08
1.1683e-09
5.20047e-09
2.05668e-07
5.17606e-08
2.16403e-08
9.53405e-07
1.63192e-08
0.00142198
0.000123322
2.56242e-06
2.88195e-05
0.00319596
3.77517e-07
0.0356318
0.0221207
0.0239322
0.0213509
0.00820813
0.0117327
0.0637749
0.0706287
0.0884191
0.0724636
0.0251007
0.075183
0.051356
0.0965486
0.0965817
0.0965817
0.0432114
0.0990639
0.00535345
0.00535345
0.0410963
0.0119711
0.00898899
0.0168235
0.042301
0.0407444
0.0397946
0.0393132
0.0333517
0.0370095
8.64009e-06
8.35137e-06
7.614e-06
7.01312e-06
6.2916e-06
9.96163e-06
-2.45764e-09
-8.26926e-09
-7.10166e-09
-1.13325e-09
5.63188e-09
1.22761e-08
1.03406e-09
3.62715e-09
5.17202e-09
2.34944e-09
4.3797e-09
7.91698e-09
5.3807e-10
5.92009e-09
2.25968e-08
1.89143e-09
1.37889e-09
1.09774e-08
3.28262e-10
3.45453e-10
3.48283e-10
2.99631e-10
2.55439e-10
3.03164e-10
2.57905e-10
6.40257e-09
2.50728e-10
2.43382e-10
-4.82991e-09
2.58385e-10
7.53802e-11
-6.07098e-09
-1.68265e-09
-5.85692e-09
-1.01923e-07
-1.13781e-10
2.23579e-07
5.82837e-07
-1.85268e-08
7.19346e-07
3.32333e-06
-1.01564e-08
2.66483e-05
2.74326e-05
2.05449e-05
0.00224627
0.00698638
4.8261e-05
0.0723334
0.0722806
0.0962562
0.0543623
0.0377833
0.0994169
0.109785
0.125473
0.125492
0.042457
0.00617171
0.119137
0.014405
0.012938
0.00938943
0.0119335
0.0062522
0.0187634
1.45248e-06
1.52985e-06
1.22106e-06
7.65312e-07
3.71523e-07
8.35245e-07
7.08472e-08
7.51029e-08
7.11758e-08
7.67353e-08
7.69416e-08
1.39475e-07
1.11456e-07
1.17466e-07
1.11963e-07
1.24273e-07
1.26012e-07
2.22663e-07
1.47756e-08
2.46924e-08
2.66447e-08
8.42364e-09
8.94194e-09
2.23782e-09
2.62205e-10
2.85745e-10
2.76337e-10
2.54618e-10
2.47259e-10
2.87475e-10
2.45266e-10
2.60923e-10
2.53613e-10
2.46414e-10
2.52136e-10
2.45796e-10
2.21514e-10
1.34799e-10
2.27424e-10
1.83965e-10
1.88875e-10
2.34322e-10
1.22874e-10
1.26516e-10
1.53699e-10
1.0446e-11
4.22326e-11
1.29452e-10
5.02469e-07
5.77646e-07
3.65889e-09
1.08875e-06
3.30474e-06
2.87708e-09
0.00971317
0.00650266
0.00134505
0.0131258
0.0178286
0.00666616
0.123786
0.125109
0.125495
0.124282
0.122378
0.120653
0.000137285
0.000140613
0.000138803
0.00013915
0.00014007
0.000138346
5.39733e-06
5.41084e-06
5.41342e-06
5.40479e-06
5.40739e-06
5.39992e-06
5.22406e-06
5.22272e-06
5.22768e-06
5.2297e-06
5.22892e-06
5.22717e-06
0.000927069
0.000929085
0.000926685
0.00092936
0.00093021
0.000927738
1.93143e-06
1.91783e-06
1.9351e-06
1.91088e-06
1.90779e-06
1.91487e-06
1.38272e-06
1.3842e-06
1.38174e-06
1.3839e-06
1.38465e-06
1.38332e-06
0.000788014
0.000785626
0.000786297
0.000786983
0.000786327
0.000787136
8.30303e-07
8.23604e-07
8.32954e-07
8.19495e-07
8.18115e-07
8.21586e-07
1.31482e-06
1.31635e-06
1.31389e-06
1.31601e-06
1.31675e-06
1.31545e-06
8.14014e-07
8.13216e-07
8.13352e-07
8.13843e-07
8.13992e-07
8.14256e-07
8.08299e-07
8.06556e-07
8.06974e-07
8.07813e-07
8.07586e-07
8.07822e-07
3.47482e-07
3.47936e-07
3.47929e-07
3.47177e-07
3.47324e-07
3.47478e-07
8.22252e-07
8.21806e-07
8.21892e-07
8.22241e-07
8.22649e-07
8.22854e-07
1.10042e-06
1.10579e-06
1.10177e-06
1.10462e-06
1.10464e-06
1.10237e-06
2.55608e-18
2.55004e-18
2.55753e-18
2.54666e-18
2.54659e-18
2.55292e-18
1.53974e-06
1.52139e-06
1.52573e-06
1.54043e-06
1.56425e-06
1.51893e-06
5.33948e-06
5.34182e-06
5.34075e-06
5.34072e-06
5.34004e-06
5.3406e-06
6.07559e-21
6.1114e-21
6.09914e-21
6.07925e-21
6.08131e-21
6.08766e-21
9.82836e-07
9.77283e-07
9.78434e-07
9.82612e-07
1.00434e-06
9.76869e-07
5.39537e-06
5.39537e-06
5.39543e-06
5.39543e-06
5.3954e-06
5.39548e-06
1.50808e-06
1.52607e-06
1.51809e-06
1.51802e-06
1.52706e-06
1.50875e-06
9.34436e-07
9.35132e-07
9.34755e-07
9.34728e-07
9.34915e-07
9.3678e-07
9.83556e-07
9.83715e-07
9.83817e-07
9.84022e-07
9.84413e-07
9.84609e-07
9.81259e-07
9.81258e-07
9.81415e-07
9.8158e-07
9.81663e-07
9.82003e-07
1.85982e-06
2.05716e-06
2.02572e-06
1.86805e-06
1.74494e-06
2.15683e-06
1.53554e-06
1.63674e-06
1.61464e-06
1.52883e-06
1.42768e-06
1.75157e-06
2.26925e-06
2.30984e-06
2.2861e-06
2.26775e-06
2.24212e-06
2.33196e-06
1.62115e-05
1.72094e-05
1.70019e-05
1.62863e-05
1.56318e-05
1.75656e-05
0.000775814
0.000785437
0.000782938
0.000774851
0.000766414
0.000791243
0.000271397
0.000272881
0.000272433
0.000271046
0.00026926
0.000274256
0.000210923
0.000226865
0.000225277
0.000207045
0.00019137
0.000239336
0.00160472
0.00160541
0.00160541
0.00160467
0.00160459
0.00160502
3.32251e-05
3.21608e-05
3.23727e-05
3.39296e-05
3.63111e-05
3.04607e-05
0.0631277
0.0631361
0.0631501
0.0630236
0.0628791
0.0632703
1.49078e-21
1.42302e-21
1.43996e-21
1.50772e-21
1.56701e-21
1.35525e-21
1.70178e-06
1.67515e-06
1.67962e-06
1.72033e-06
1.77677e-06
1.62915e-06
0.152492
0.15253
0.152594
0.152708
0.152718
0.152645
-1.79382e-15
-1.40601e-15
5.86913e-30
1.34469e-19
3.34841e-23
-1.18977e-16
-1.93938e-25
2.70036e-31
9.55251e-28
7.12601e-26
2.84571e-16
2.345e-26
0.152728
0.152785
0.152853
0.152882
0.152882
0.152864
-5.29835e-15
-4.0422e-15
6.72488e-28
1.80325e-24
1.99794e-07
-6.1224e-16
-3.92339e-25
-1.81966e-25
-7.51202e-25
-2.96565e-25
-2.26385e-25
-2.90409e-25
0.148669
0.1486
0.14855
0.148878
0.148929
0.148544
-1.39996e-14
-1.1386e-14
-2.09792e-14
-2.23852e-15
-1.32717e-13
-4.19488e-15
-4.58673e-25
-4.30848e-25
-4.64922e-25
-4.01291e-25
-7.59649e-25
-2.67597e-25
0.133295
0.133279
0.133209
0.133553
0.133609
0.133094
-1.25433e-15
-1.02729e-15
-2.13249e-15
-1.03957e-15
-1.21023e-14
-3.76542e-16
-6.31283e-25
-7.47355e-25
-8.181e-25
-7.83148e-25
-8.3273e-25
-5.92595e-25
0.127341
0.12731
0.12727
0.127458
0.127455
0.127213
-1.92567e-16
-1.7848e-16
-1.99046e-15
-6.44863e-15
-1.6295e-15
-5.11133e-17
-3.55014e-25
-4.38569e-25
-4.71987e-25
-5.41556e-25
-6.128e-25
-4.74284e-25
0.124169
0.124085
0.12405
0.124209
0.1242
0.124004
-4.97354e-17
-5.72382e-17
-1.45247e-15
-5.2363e-15
-2.80449e-16
-9.12543e-18
-2.17253e-25
-2.78823e-25
-2.92578e-25
-4.07181e-25
-5.00155e-25
-3.97715e-25
4.46466e-06
4.52262e-06
3.88691e-06
4.62205e-06
4.53383e-06
0.000641154
7.44186e-05
6.6655e-05
6.71e-05
8.15398e-05
4.98229e-05
0.000157211
0.0001222
0.000120205
0.000130935
9.71442e-05
7.29009e-05
8.77724e-05
3.31336e-06
3.48855e-06
2.98996e-06
2.87543e-06
2.62162e-06
1.99407e-06
0.000116117
0.000108332
0.000108699
0.000128883
7.37086e-05
0.000199492
0.000124637
0.000120301
0.000135124
9.58605e-05
7.16585e-05
0.000196215
3.53281e-06
3.78184e-06
3.43002e-06
6.36375e-06
6.077e-06
2.14576e-06
3.09532e-05
2.96475e-05
3.10525e-05
3.74242e-05
3.94394e-05
6.13108e-05
2.03014e-05
1.8959e-05
2.38606e-05
1.76784e-05
2.33779e-05
5.38692e-05
2.18327e-07
2.4688e-07
1.84283e-07
2.97418e-07
3.12095e-07
4.37247e-07
9.97252e-09
1.12804e-08
9.41608e-09
1.48509e-08
1.09043e-07
1.81278e-08
-2.98272e-11
-1.50347e-10
-1.90485e-10
-1.70112e-12
-2.32424e-12
-5.69692e-10
1.56153e-09
1.49857e-09
1.5084e-09
2.71383e-09
3.11971e-09
1.21544e-09
3.27047e-11
4.12544e-11
3.42543e-11
4.86324e-11
6.68047e-11
6.01888e-11
-2.95994e-14
-2.33877e-13
-4.10908e-13
-6.96121e-13
-3.02407e-12
-3.34017e-13
3.27209e-09
3.02868e-09
3.50601e-09
2.3915e-09
9.99265e-10
2.27416e-09
8.87105e-14
4.81599e-14
2.53156e-12
3.9319e-14
8.26152e-14
1.17435e-13
-1.28991e-14
1.39991e-15
-3.26826e-13
1.54994e-15
5.41436e-13
-1.51473e-12
1.96902e-09
1.96521e-09
1.94072e-09
1.29106e-09
5.35235e-10
1.64352e-09
8.17502e-14
3.35842e-14
3.95947e-14
2.38068e-14
6.51087e-14
1.26124e-13
1.05145e-12
1.05991e-12
9.47163e-13
1.16481e-12
1.15716e-12
7.11989e-13
4.70008e-13
1.29994e-12
1.1707e-13
1.70666e-12
3.4254e-12
4.30512e-13
8.42816e-13
3.40044e-14
1.15822e-13
2.42482e-14
4.96368e-14
7.1518e-13
8.94594e-14
1.07082e-13
9.37436e-14
1.10432e-13
1.08929e-13
8.81004e-14
-2.40921e-12
-1.28968e-09
-6.16117e-10
-6.54112e-10
-1.29889e-09
-2.27434e-12
6.8177e-31
2.13113e-25
1.46184e-24
3.31891e-25
2.66127e-25
-2.70804e-18
1.16902e-96
3.6776e-95
1.74789e-98
1.06904e-96
1.24128e-101
1.9779e-100
-2.88344e-08
-9.95241e-08
-5.75775e-08
-2.5169e-08
-3.77086e-08
-3.46836e-09
-6.74856e-12
4.19307e-12
6.52506e-12
4.60106e-12
-4.82383e-14
4.52356e-11
3.78798e-09
3.80176e-09
3.80468e-09
3.80255e-09
3.78895e-09
3.86315e-09
-4.10997e-07
-6.35109e-07
-9.49595e-07
0.000698219
4.43796e-06
8.42929e-05
8.73065e-11
1.08174e-10
5.10927e-11
8.76448e-12
2.02784e-10
3.19728e-10
2.1574e-10
8.12956e-10
1.82821e-09
1.47406e-10
5.0914e-09
3.86431e-09
0.068944
0.0697404
0.0660123
0.0810328
0.0782337
0.0780846
3.70577e-24
2.5808e-24
1.99458e-16
4.49446e-13
1.32947e-10
1.88597e-24
1.04755e-08
7.50991e-09
6.37158e-09
3.13477e-08
6.12475e-08
5.86625e-09
)
;

boundaryField
{
    seabed_topleft_surface
    {
        type            zeroGradient;
    }
    seabed_topright_surface
    {
        type            zeroGradient;
    }
    breakwater_top_surface
    {
        type            zeroGradient;
    }
    breakwater_left_surface
    {
        type            zeroGradient;
    }
    breakwater_right_surface
    {
        type            zeroGradient;
    }
    water_front_surface
    {
        type            zeroGradient;
    }
    water_back_surface
    {
        type            zeroGradient;
    }
    water_left_surface
    {
        type            zeroGradient;
    }
    water_right_surface
    {
        type            zeroGradient;
    }
    water_top_surface
    {
        type            inletOutlet;
        inletValue      uniform 0;
        value           nonuniform List<scalar> 
180
(
5.22406e-06
5.22272e-06
5.22768e-06
5.2297e-06
5.22892e-06
5.22717e-06
1.38272e-06
1.3842e-06
1.38174e-06
1.3839e-06
1.38465e-06
1.38332e-06
1.31482e-06
1.31635e-06
1.31389e-06
1.31601e-06
1.31675e-06
1.31545e-06
0
0
0
0
0
0
0
0
0
0
0
0
0
0
0
0
0
0
0
0
0
0
0
0
9.81259e-07
9.81258e-07
9.81415e-07
9.8158e-07
9.81663e-07
9.82003e-07
2.26925e-06
2.30984e-06
2.2861e-06
2.26775e-06
2.24212e-06
2.33196e-06
0.000271397
0.000272881
0.000272433
0.000271046
0.00026926
0.000274256
0
0
0
0
0
0
0
0
0
0
0
0
0
0
0
0
0
0
0
0
0
0
0
0
0
0
0
0
0
0
0
0
0
0
0
0
0
0
0
0
0
0
0
0
0
0
0
0
0.0001222
0.000120205
0.000130935
9.71442e-05
7.29009e-05
8.77724e-05
0.000124637
0.000120301
0.000135124
9.58605e-05
7.16585e-05
0.000196215
2.03014e-05
1.8959e-05
2.38606e-05
1.76784e-05
2.33779e-05
5.38692e-05
0
0
0
0
0
0
0
0
0
0
0
0
0
0
0
0
0
0
0
0
0
0
0
0
0
0
0
0
0
0
0
0
0
0
0
0
0
0
0
0
0
0
0
0
0
0
0
0
0
0
0
0
0
0
)
;
    }
}


// ************************************************************************* //
