/*--------------------------------*- C++ -*----------------------------------*\
| =========                 |                                                 |
| \\      /  F ield         | OpenFOAM: The Open Source CFD Toolbox           |
|  \\    /   O peration     | Version:  v1612+                                |
|   \\  /    A nd           | Web:      www.OpenFOAM.com                      |
|    \\/     M anipulation  |                                                 |
\*---------------------------------------------------------------------------*/
FoamFile
{
    version     2.0;
    format      ascii;
    class       volScalarField;
    location    "5.5";
    object      p;
}
// * * * * * * * * * * * * * * * * * * * * * * * * * * * * * * * * * * * * * //

dimensions      [1 -1 -2 0 0 0 0];

internalField   nonuniform List<scalar> 
1116
(
2969.49
2969.78
2969.68
2969.71
2969.74
2969.6
5110.75
5110.82
5110.81
5110.81
5110.8
5110.79
9198.5
9198.66
9198.58
9198.59
9198.62
9198.57
13066.9
13066.8
13066.8
13066.9
13066.8
13066.9
14882.4
14882.3
14882.3
14882.4
14882.3
14882.4
14995.9
14995.8
14995.8
14995.9
14995.8
14995.9
14278.4
14278.6
14278.5
14278.5
14278.5
14278.4
13172.3
13172.6
13172.5
13172.4
13172.7
13172.4
11868.3
11867.7
11868.1
11868
11869
11867.4
11059
11057.8
11058.7
11058.3
11059.2
11057.4
11137.4
11140.4
11140
11137.2
11133.8
11140.6
10837.2
10839.5
10838.5
10837.2
10832.8
10839.6
590.095
590.937
590.577
590.661
590.815
590.437
1581.46
1581.58
1581.55
1581.61
1581.57
1581.55
3350.19
3349.81
3350
3350.07
3349.88
3350.13
5719.38
5719.33
5719.36
5719.38
5719.31
5719.41
6678.68
6678.34
6678.51
6678.52
6678.38
6678.61
6266.58
6266.15
6266.34
6266.39
6266.26
6266.41
5283.47
5283.13
5283.29
5283.35
5283.41
5283.19
4222.21
4222.51
4222.53
4222.42
4222.75
4222.26
2853.32
2852.54
2852.62
2853.29
2854.27
2851.6
2423.29
2422.24
2422.48
2422.97
2423.71
2422.05
2794.12
2803.69
2801.37
2795.64
2784.46
2807.44
2460.45
2467.6
2467.35
2458.36
2450.98
2473.03
265.69
265.88
265.81
265.84
265.868
265.788
225.755
225.934
225.857
225.923
225.948
225.859
969.4
970.483
970.039
969.935
970.184
969.745
1373.48
1373.84
1373.78
1373.66
1373.73
1373.64
1359.22
1359.39
1359.42
1359.3
1359.34
1359.33
977.587
977.62
977.666
977.576
977.585
977.587
399.493
399.495
399.535
399.439
399.453
399.462
41.2695
41.1312
41.1704
41.2407
41.2968
41.1089
-31.1674
-31.2286
-31.2897
-30.9979
-31.038
-31.35
49.0422
49.1413
49.0647
49.1523
48.9946
49.2409
488.761
492.373
490.924
489.885
487.262
492.516
855.587
853.226
854.117
855.174
857.86
850.722
68.3229
68.3413
68.3297
68.3331
68.3366
68.3288
-126.895
-126.901
-126.898
-126.893
-126.887
-126.881
-114.398
-114.395
-114.401
-114.395
-114.39
-114.393
-69.0972
-69.0983
-69.0951
-69.0928
-69.0939
-69.0951
-54.4983
-54.5036
-54.499
-54.4941
-54.4906
-54.4994
-42.0814
-42.0978
-42.0893
-42.0783
-42.0633
-42.1004
-42.0856
-42.1147
-42.0986
-42.0759
-42.0462
-42.1169
-46.17
-46.2127
-46.2028
-46.1484
-46.1433
-46.196
-57.8622
-57.8656
-57.8892
-57.8242
-57.9741
-57.805
1.7841
1.52068
1.47669
1.97575
2.11279
1.41105
48.1182
48.7892
48.849
47.8944
47.525
48.7416
-369.716
-366.455
-365.387
-372.358
-375.467
-363.952
2907.83
2952.02
3049.98
3114.59
3131.94
3076.34
1661.34
1678.54
1674.22
1801.93
1866.92
1842.07
1054.11
1075.46
989.034
1100.04
1249.52
1095.33
609.018
610.675
695.901
600.279
525.974
558.522
453.603
455.889
458.172
443.856
391.571
407.734
417.211
428.545
425.035
413.186
356.116
404.68
392.601
402.529
398.957
397.875
420.492
398.014
637.925
537.728
532.327
565.033
541.143
508.957
1907.43
1733.42
1668.05
1636.45
1431.98
1520.74
2654.61
2778.33
2812.74
2660.69
2464.75
2672.77
1708.47
1813.39
1904.37
1842.17
1779.03
1805.71
1529.13
1527.84
1582.14
1568.25
1597.12
1542.87
1234.9
1232.26
1252.08
1317.91
1329.75
1317.73
343.166
343.495
338.596
349.81
356.863
333.559
73.2517
72.907
80.5974
47.5112
19.2459
57.1267
-50.7359
-51.4465
-51.063
-53.7226
-54.8884
-46.32
-38.5633
-38.8135
-42.2682
-42.4224
-41.3238
-44.0266
-20.3546
-19.9895
-21.5579
-22.2163
-23.9812
-24.0014
-14.3389
-14.6727
-16.1571
-15.264
-16.7628
-14.9903
16.1136
15.7344
13.1088
10.5944
-6.19721
9.75431
170.004
119.75
127.183
103.209
66.4504
97.7868
410.983
419.121
440.61
414.398
310.687
428.811
208.812
173.3
307.749
245.198
26.2679
417.369
818.185
773.413
680.226
622.799
526.56
672.695
275.927
279.676
275.816
293.91
304.06
255.121
-3.07576
-4.40662
-1.11025
-4.11023
-4.5309
3.42334
-27.1977
-27.9243
-26.1619
-28.8436
-29.8174
-27.3646
-36.9722
-37.2327
-37.4785
-37.6612
-37.8269
-36.4541
-27.7044
-27.7468
-28.3083
-28.6351
-27.9337
-28.7307
-22.0667
-21.5247
-21.9677
-21.4
-19.0222
-22.3794
-17.3958
-16.0131
-16.6384
-15.6866
-15.1857
-16.5379
-13.9535
-13.0274
-14.2383
-13.9539
-13.5091
-12.3807
-17.5594
-16.4109
-18.016
-17.0749
-11.7398
-12.9762
20.25
14.9978
16.0644
15.5396
8.98315
15.8688
173.806
194.334
240.549
136.817
-8.57424
174.376
711.356
699.81
404.415
379.772
367.426
374.625
54.458
53.8263
42.9457
46.2184
42.1606
35.1518
-126.434
-128.301
-128.022
-133.113
-134.943
-130.814
-118.149
-119.048
-119.95
-125.285
-128.382
-123.81
-105.382
-105.562
-105.384
-106.265
-106.616
-105.793
-63.2395
-63.0871
-63.3881
-63.209
-63.0903
-63.5757
-43.8909
-43.7144
-43.8984
-43.8729
-43.3926
-44.2053
-33.2051
-32.9783
-33.1999
-33.4931
-33.7333
-33.7105
-28.1972
-27.9077
-28.4716
-29.7703
-30.9621
-29.2898
-33.4531
-33.0534
-34.0523
-33.7398
-33.7764
-33.3072
-27.2633
-27.0825
-26.0622
-26.5086
-29.396
-28.1741
-31.4503
-31.4631
-40.2627
-40.3651
-42.0442
-28.5163
-269.548
-228.83
-290.477
-219.405
57.1959
-257.905
-43.0428
-43.0645
-43.0676
-43.0694
-43.0723
-43.0637
-70.537
-70.5526
-70.5507
-70.5576
-70.5653
-70.5643
-72.6311
-72.6426
-72.6378
-72.6394
-72.6419
-72.6408
-129.545
-129.571
-129.56
-129.568
-129.569
-129.562
-106.246
-106.278
-106.267
-106.273
-106.278
-106.269
-74.921
-74.9366
-74.9323
-74.9326
-74.9343
-74.9299
-111.656
-111.657
-111.658
-111.658
-111.658
-111.657
-104.432
-104.437
-104.437
-104.435
-104.436
-104.435
-67.7312
-67.7386
-67.7363
-67.7377
-67.7398
-67.7373
-73.5276
-73.5258
-73.5282
-73.5253
-73.5247
-73.5254
-79.6876
-79.6874
-79.688
-79.687
-79.6868
-79.6864
-66.1746
-66.1771
-66.1762
-66.1775
-66.1782
-66.1776
-56.0876
-56.0823
-56.0858
-56.0841
-56.0833
-56.0834
-64.842
-64.8373
-64.8396
-64.8402
-64.8411
-64.8364
-68.2466
-68.2467
-68.2467
-68.2473
-68.2474
-68.2474
-45.57
-45.5632
-45.5657
-45.5675
-45.5662
-45.5659
-51.9959
-51.9829
-51.9897
-51.9943
-52.0012
-51.9823
-68.8176
-68.8182
-68.8182
-68.8178
-68.8189
-68.8171
-43.7681
-43.7693
-43.7702
-43.7652
-43.7566
-43.7763
-35.8956
-35.8632
-35.8795
-35.8951
-35.9153
-35.8684
-71.4099
-71.4118
-71.411
-71.4098
-71.412
-71.4092
-48.8167
-48.8256
-48.8367
-48.7901
-48.7862
-48.8463
-19.6385
-19.5503
-19.5902
-19.6401
-19.6897
-19.5745
-73.9714
-73.966
-73.9688
-73.9658
-73.9741
-73.968
-55.9522
-55.7191
-55.8032
-55.9387
-56.1043
-55.6013
-17.1262
-17.0884
-17.1074
-17.1218
-17.1093
-17.1536
-61.7665
-61.7153
-61.733
-61.7581
-61.8172
-61.7758
-31.1299
-30.9821
-31.0583
-31.0388
-31.0739
-30.9891
-44.9588
-45.1095
-45.0519
-44.9126
-44.6521
-45.1971
-79.3521
-79.3754
-79.3735
-79.3576
-79.2756
-79.3222
-12.9554
-13.0188
-12.9549
-13.0764
-13.144
-13.0714
-83.4074
-83.4338
-83.37
-83.5118
-83.4575
-83.3525
-81.5954
-81.6526
-81.627
-81.6093
-81.5572
-81.6447
149.755
148.001
148.658
148.831
149.246
148.335
-87.6231
-87.6755
-87.634
-87.72
-87.7211
-87.6495
-87.3135
-87.4002
-87.3642
-87.347
-87.2929
-87.3925
686.677
686.576
686.953
688.342
689.457
688.245
-53.133
-53.0686
-53.1723
-53.3032
-53.3842
-53.3645
-71.2983
-71.2928
-71.258
-71.1761
-71.0567
-71.1366
700.812
701.073
701.188
701.9
701.861
701.67
-56.0838
-56.0892
-56.1037
-56.1164
-56.113
-56.149
-69.5262
-69.542
-69.526
-69.4652
-69.4255
-69.4617
684.297
684.053
683.844
685.232
685.507
683.745
-55.3093
-55.3082
-55.3255
-55.3502
-55.372
-55.3757
-68.3527
-68.3461
-68.3381
-68.3315
-68.3192
-68.326
608.867
608.827
608.513
610.074
610.372
607.953
-57.2669
-57.2719
-57.2758
-57.2896
-57.2944
-57.2823
-68.2421
-68.2395
-68.2368
-68.2363
-68.2322
-68.2316
570.965
570.821
570.634
571.491
571.504
570.318
-61.2753
-61.286
-61.2872
-61.2974
-61.3009
-61.3029
-70.4212
-70.421
-70.4181
-70.4211
-70.4188
-70.4145
521.779
521.2
521.07
521.986
522.145
520.656
-65.4267
-65.4368
-65.434
-65.4522
-65.452
-65.4431
-74.7404
-74.7412
-74.7381
-74.7453
-74.7465
-74.7363
-78.9614
-79.1512
-80.5552
-79.6588
-80.1398
-70.3929
-109.211
-109.101
-111.445
-106.137
-105.613
-101.754
-108.44
-107.404
-108.613
-104.269
-103.121
-106.399
-227.2
-228.614
-229.731
-230.486
-228.844
-233.271
-248.721
-248.258
-250.616
-241.999
-240.804
-245.605
-140.394
-138.286
-140.376
-132.136
-134.33
-136.132
-200.132
-200.077
-200.98
-201.305
-201.221
-201.61
-196.939
-194.55
-196.928
-192.996
-193.198
-196.731
-93.6753
-90.7925
-93.7198
-88.4098
-89.9
-92.6647
-145.617
-145.035
-144.893
-144.305
-145.064
-145.177
-132.844
-130.867
-132.088
-128.842
-129.857
-131.815
-74.4803
-73.5444
-74.2516
-73.5306
-73.4365
-73.9589
-81.7359
-81.3945
-81.6846
-81.1307
-81.2839
-81.5548
-83.852
-83.5222
-83.7652
-83.018
-83.1791
-83.5594
-72.6653
-72.64
-72.3731
-72.7493
-72.4548
-72.4674
-59.788
-59.6752
-59.7244
-59.6591
-59.5585
-59.7695
-68.7111
-68.5684
-68.6127
-68.5155
-68.4212
-68.6307
-71.4584
-71.4556
-71.3728
-71.4725
-71.3863
-71.4171
-48.1517
-48.075
-48.1129
-48.1661
-48.173
-48.242
-59.6565
-59.64
-59.6569
-59.6941
-59.6991
-59.7229
-68.1529
-68.1543
-68.1403
-68.1678
-68.1512
-68.1627
-43.0822
-42.9484
-43.1077
-43.376
-43.4683
-43.3894
-56.467
-56.4742
-56.5264
-56.6086
-56.636
-56.6059
-66.9309
-66.9321
-66.9403
-66.9612
-66.9642
-66.9702
-39.5239
-39.025
-38.972
-39.1974
-39.3573
-38.9449
-55.8178
-55.8432
-55.8433
-55.8827
-55.9153
-55.8057
-64.731
-64.6914
-64.7013
-64.7155
-64.7162
-64.7185
-37.5491
-38.0792
-37.4751
-38.6137
-39.104
-37.846
-58.6622
-58.9436
-58.7205
-58.7817
-58.7327
-58.4583
-66.5788
-66.5848
-66.5873
-66.6144
-66.644
-66.6307
-50.6948
-50.9758
-49.5722
-50.1607
-47.3114
-45.5733
-61.5033
-61.7988
-61.3931
-61.2812
-60.9139
-60.6994
-66.0693
-65.9742
-65.9779
-66.2718
-65.9753
-65.8914
215.539
218.808
191.61
272.915
277.483
249.919
-59.2656
-59.0698
-59.3125
-59.5273
-59.2672
-59.7194
-79.527
-79.7273
-79.7905
-79.2803
-78.8121
-79.5666
)
;

boundaryField
{
    seabed_topleft_surface
    {
        type            calculated;
        value           nonuniform List<scalar> 
72
(
4743.88
4744.14
4744.05
4744.08
4744.11
4743.97
6941.06
6941.06
6941.07
6941.08
6941.07
6941.09
11945.7
11945.7
11945.7
11945.7
11945.7
11945.7
17668.5
17668.5
17668.5
17668.5
17668.5
17668.6
19680.8
19680.7
19680.7
19680.7
19680.7
19680.8
19794.3
19794.2
19794.2
19794.2
19794.2
19794.3
19076.6
19076.8
19076.7
19076.7
19076.7
19076.7
17969
17969.4
17969.3
17969.2
17969.4
17969.1
16655.8
16655.2
16655.6
16655.4
16656.5
16654.8
15831.9
15830.8
15831.6
15831.1
15832.1
15830.3
15899.3
15902.4
15902
15899.2
15895.8
15902.6
15583.9
15586.3
15585.3
15584
15579.5
15586.3
)
;
    }
    seabed_topright_surface
    {
        type            calculated;
        value           nonuniform List<scalar> 
72
(
3144.45
3189.38
3287.41
3352.14
3368.87
3314.69
1826.79
1832.37
1873.33
2005.62
2026.9
2080.41
1148.17
1162.91
1036.54
1258.4
1567.46
1259.16
1012.14
1014.84
1031.73
988.338
914.704
712.258
869.079
872.119
873.727
858.763
753.041
773.655
827.953
844.835
841.619
826.105
681.381
816.613
807.783
831.728
817.331
815.902
880.063
812.543
1088.36
989.311
988.001
1025.96
1002.34
964.166
2360.58
2189.57
2126
2095.88
1893
1979.37
3110.75
3236.27
3270.68
3122.46
2924.15
2991.54
2104.71
2260.78
2360.8
2307.61
2236.71
2097.99
1570.34
1581.42
1643.91
1639.55
1792.75
1630.24
)
;
    }
    breakwater_top_surface
    {
        type            calculated;
        value           nonuniform List<scalar> 
36
(
1438.81
1438.89
1439.58
1441.53
1442.7
1441.12
1454.1
1454.64
1455.08
1455.94
1455.9
1455.62
1417.69
1417.11
1416.66
1419.65
1420.18
1416.53
1266.93
1266.81
1266.16
1269.4
1269.97
1265.03
1199.85
1199.56
1199.17
1200.95
1200.95
1198.58
1135.13
1134.13
1133.83
1135.53
1135.64
1133.19
)
;
    }
    breakwater_left_surface
    {
        type            calculated;
        value           nonuniform List<scalar> 
24
(
10853.5
10855.8
10854.8
10853.5
10849
10855.8
2469.01
2476.15
2475.9
2466.91
2459.53
2481.58
855.889
853.528
854.419
855.476
858.161
851.024
-369.132
-365.864
-364.797
-371.774
-374.889
-363.358
)
;
    }
    breakwater_right_surface
    {
        type            calculated;
        value           nonuniform List<scalar> 
24
(
1529.27
1528.02
1582.35
1568.49
1597.79
1543.17
818.29
773.518
680.921
623.013
526.725
672.989
713.148
701.855
406.461
380.475
367.542
376.568
-267.569
-226.83
-288.471
-217.418
59.1524
-255.976
)
;
    }
    water_front_surface
    {
        type            calculated;
        value           nonuniform List<scalar> 
186
(
2969.49
5110.75
9198.5
13066.9
14882.4
14995.9
14278.4
13172.3
11868.3
11059
11137.4
10837.2
590.095
1581.46
3350.19
5719.38
6678.68
6266.58
5283.47
4222.21
2853.32
2423.29
2794.12
2460.45
265.69
225.755
969.4
1373.48
1359.22
977.587
399.493
41.2695
-31.1674
49.0422
488.761
855.587
68.3229
-126.895
-114.398
-69.0972
-54.4983
-42.0814
-42.0856
-46.17
-57.8622
1.7841
48.1182
-369.716
2907.83
1661.34
1054.11
609.018
453.603
417.211
392.601
637.925
1907.43
2654.61
1708.47
1529.13
1234.9
343.166
73.2517
-50.7359
-38.5633
-20.3546
-14.3389
16.1136
170.004
410.983
208.812
818.185
275.927
-3.07576
-27.1977
-36.9722
-27.7044
-22.0667
-17.3958
-13.9535
-17.5594
20.25
173.806
711.356
54.458
-126.434
-118.149
-105.382
-63.2395
-43.8909
-33.2051
-28.1972
-33.4531
-27.2633
-31.4503
-269.548
-43.0428
-70.537
-72.6311
-129.545
-106.246
-74.921
-111.656
-104.432
-67.7312
-73.5276
-79.6876
-66.1746
-56.0876
-64.842
-68.2466
-45.57
-51.9959
-68.8176
-43.7681
-35.8956
-71.4099
-48.8167
-19.6385
-73.9714
-55.9522
-17.1262
-61.7665
-31.1299
-44.9588
-79.3521
-12.9554
-83.4074
-81.5954
149.755
-87.6231
-87.3135
686.677
-53.133
-71.2983
700.812
-56.0838
-69.5262
684.297
-55.3093
-68.3527
608.867
-57.2669
-68.2421
570.965
-61.2753
-70.4212
521.779
-65.4267
-74.7404
-78.9614
-109.211
-108.44
-227.2
-248.721
-140.394
-200.132
-196.939
-93.6753
-145.617
-132.844
-74.4803
-81.7359
-83.852
-72.6653
-59.788
-68.7111
-71.4584
-48.1517
-59.6565
-68.1529
-43.0822
-56.467
-66.9309
-39.5239
-55.8178
-64.731
-37.5491
-58.6622
-66.5788
-50.6948
-61.5033
-66.0693
215.539
-59.2656
-79.527
)
;
    }
    water_back_surface
    {
        type            calculated;
        value           nonuniform List<scalar> 
186
(
2969.6
5110.79
9198.57
13066.9
14882.4
14995.9
14278.4
13172.4
11867.4
11057.4
11140.6
10839.6
590.437
1581.55
3350.13
5719.41
6678.61
6266.41
5283.19
4222.26
2851.6
2422.05
2807.44
2473.03
265.788
225.859
969.745
1373.64
1359.33
977.587
399.462
41.1089
-31.35
49.2409
492.516
850.722
68.3288
-126.881
-114.393
-69.0951
-54.4994
-42.1004
-42.1169
-46.196
-57.805
1.41105
48.7416
-363.952
3076.34
1842.07
1095.33
558.522
407.734
404.68
398.014
508.957
1520.74
2672.77
1805.71
1542.87
1317.73
333.559
57.1267
-46.32
-44.0266
-24.0014
-14.9903
9.75431
97.7868
428.811
417.369
672.695
255.121
3.42334
-27.3646
-36.4541
-28.7307
-22.3794
-16.5379
-12.3807
-12.9762
15.8688
174.376
374.625
35.1518
-130.814
-123.81
-105.793
-63.5757
-44.2053
-33.7105
-29.2898
-33.3072
-28.1741
-28.5163
-257.905
-43.0637
-70.5643
-72.6408
-129.562
-106.269
-74.9299
-111.657
-104.435
-67.7373
-73.5254
-79.6864
-66.1776
-56.0834
-64.8364
-68.2474
-45.5659
-51.9823
-68.8171
-43.7763
-35.8684
-71.4092
-48.8463
-19.5745
-73.968
-55.6013
-17.1536
-61.7758
-30.9891
-45.1971
-79.3222
-13.0714
-83.3525
-81.6447
148.335
-87.6495
-87.3925
688.245
-53.3645
-71.1366
701.67
-56.149
-69.4617
683.745
-55.3757
-68.326
607.953
-57.2823
-68.2316
570.318
-61.3029
-70.4145
520.656
-65.4431
-74.7363
-70.3929
-101.754
-106.399
-233.271
-245.605
-136.132
-201.61
-196.731
-92.6647
-145.177
-131.815
-73.9589
-81.5548
-83.5594
-72.4674
-59.7695
-68.6307
-71.4171
-48.242
-59.7229
-68.1627
-43.3894
-56.6059
-66.9702
-38.9449
-55.8057
-64.7185
-37.846
-58.4583
-66.6307
-45.5733
-60.6994
-65.8914
249.919
-59.7194
-79.5666
)
;
    }
    water_left_surface
    {
        type            calculated;
        value           nonuniform List<scalar> 
42
(
2975.56
2975.85
2975.76
2975.79
2975.81
2975.67
590.403
591.245
590.885
590.969
591.123
590.745
265.72
265.91
265.84
265.871
265.898
265.818
68.3497
68.3682
68.3566
68.3599
68.3635
68.3556
-43.0428
-43.0645
-43.0676
-43.0694
-43.0723
-43.0637
-70.537
-70.5526
-70.5507
-70.5576
-70.5653
-70.5643
-72.6311
-72.6426
-72.6378
-72.6394
-72.6419
-72.6408
)
;
    }
    water_right_surface
    {
        type            calculated;
        value           nonuniform List<scalar> 
42
(
2908.64
2952.83
3050.79
3115.41
3132.75
3077.16
1235.69
1233.05
1252.87
1318.71
1330.53
1318.51
276.627
280.351
276.476
294.562
304.615
255.736
54.7023
54.0473
43.1105
46.4235
42.2756
35.4653
-78.9614
-79.1512
-80.5552
-79.6588
-80.1398
-70.3929
-109.211
-109.101
-111.445
-106.137
-105.613
-101.754
-108.44
-107.404
-108.613
-104.269
-103.121
-106.399
)
;
    }
    water_top_surface
    {
        type            calculated;
        value           nonuniform List<scalar> 
180
(
-69.0284
-69.0283
-69.0286
-69.0288
-69.0287
-69.0286
-68.7649
-68.765
-68.7648
-68.7649
-68.765
-68.7649
-68.7602
-68.7603
-68.7601
-68.7603
-68.7603
-68.7602
-73.6667
-73.666
-73.6662
-73.6682
-73.6679
-73.6691
-75.7415
-75.7379
-75.7399
-75.7406
-75.7404
-75.7409
-72.976
-72.9708
-72.9736
-72.9745
-72.9751
-72.9733
-69.3523
-69.3485
-69.3506
-69.3517
-69.3522
-69.3498
-68.7373
-68.7373
-68.7373
-68.7373
-68.7373
-68.7374
-68.8257
-68.8285
-68.8268
-68.8256
-68.8238
-68.83
-87.2882
-87.39
-87.3593
-87.2641
-87.1416
-87.4843
-70.8168
-70.8307
-70.8215
-70.8053
-70.7596
-70.8505
-79.747
-79.7063
-79.6949
-79.7723
-79.832
-79.6269
-71.5368
-71.5527
-71.5371
-71.5046
-71.5218
-71.5325
-72.214
-72.2371
-72.2212
-72.1593
-72.1462
-72.2396
-71.7048
-71.7059
-71.7002
-71.7
-71.7178
-71.6656
-72.2935
-72.2945
-72.2817
-72.3071
-72.3325
-72.2303
-74.8245
-74.8302
-74.8148
-74.8451
-74.8729
-74.7726
-74.7549
-74.7637
-74.7519
-74.7697
-74.7841
-74.7298
-77.0531
-76.9162
-77.6523
-75.3342
-73.6711
-74.6913
-77.2203
-76.9228
-77.9397
-75.2462
-73.5859
-82.1306
-70.0627
-69.9706
-70.3069
-69.9409
-70.2738
-72.3655
-75.3971
-75.4276
-74.1547
-76.5279
-75.6818
-74.5736
-76.4491
-76.3816
-76.4331
-76.2897
-76.1899
-76.5102
-74.8243
-74.8139
-74.8205
-74.8169
-74.7793
-74.8338
-72.8105
-72.8099
-72.8127
-72.8254
-72.8235
-72.8334
-72.4923
-72.4933
-72.504
-72.5217
-72.5259
-72.5322
-71.2473
-71.2459
-71.2509
-71.2633
-71.2686
-71.2451
-73.0727
-73.1257
-73.1059
-73.2276
-73.2848
-73.1037
-73.6869
-73.7446
-73.6152
-73.8259
-73.7889
-73.4287
-72.6609
-72.4066
-72.4412
-72.548
-72.8499
-72.6689
)
;
    }
}


// ************************************************************************* //
