/*--------------------------------*- C++ -*----------------------------------*\
| =========                 |                                                 |
| \\      /  F ield         | OpenFOAM: The Open Source CFD Toolbox           |
|  \\    /   O peration     | Version:  v1612+                                |
|   \\  /    A nd           | Web:      www.OpenFOAM.com                      |
|    \\/     M anipulation  |                                                 |
\*---------------------------------------------------------------------------*/
FoamFile
{
    version     2.0;
    format      ascii;
    class       surfaceScalarField;
    location    "4.4";
    object      alphaPhi;
}
// * * * * * * * * * * * * * * * * * * * * * * * * * * * * * * * * * * * * * //

dimensions      [0 3 -1 0 0 0 0];

internalField   nonuniform List<scalar> 
2916
(
-2.29423e-06
0.0922054
-4.18378e-07
-1.65818e-06
0.0922072
-4.18203e-07
-2.01801e-06
0.092207
-4.18269e-07
1.18414e-06
0.0922073
-4.18296e-07
7.40493e-06
0.0922074
-4.18239e-07
0.092206
-4.1845e-07
-3.18057e-07
0.18285
-1.13004e-06
-1.45449e-06
0.182856
-1.12989e-06
-1.37171e-06
0.182855
-1.12997e-06
2.24524e-06
0.182855
-1.12995e-06
6.98469e-06
0.182856
-1.1298e-06
0.182853
-1.13011e-06
8.39809e-07
0.286255
-1.50136e-07
-1.2245e-06
0.286266
-1.50126e-07
-5.58115e-07
0.286263
-1.50136e-07
2.18799e-06
0.286264
-1.50126e-07
4.10037e-06
0.286266
-1.50121e-07
0.286259
-1.50189e-07
1.855e-06
0.405076
-2.92294e-09
-5.2499e-07
0.405095
-2.92151e-09
1.25144e-07
0.40509
-2.92282e-09
1.24631e-06
0.405091
-2.9217e-09
3.71389e-07
0.405095
-2.92068e-09
0.405082
-2.92885e-09
1.66281e-06
0.459639
0.0112402
-3.48932e-07
0.459667
0.0112399
-7.81028e-08
0.459659
0.0112391
-1.05211e-06
0.45966
0.0112403
-3.5031e-06
0.459665
0.0112406
0.459644
0.0112394
1.00794e-06
0.286368
0.146186
-4.33522e-08
0.286404
0.146185
-6.0723e-07
0.286396
0.146184
-3.23988e-06
0.286396
0.146186
-6.13166e-06
0.286402
0.146185
0.286371
0.146184
-6.39329e-10
-0.211232
0.387562
1.66159e-06
-0.211195
0.387558
-2.61231e-06
-0.211197
0.387558
-6.24426e-06
-0.211196
0.387557
-1.15974e-05
-0.211188
0.387556
-0.211233
0.387555
2.55006e-06
-0.811993
0.599857
5.98815e-06
-0.811981
0.599882
-1.71706e-06
-0.811961
0.59987
-8.89317e-06
-0.811961
0.599871
-1.79419e-05
-0.811957
0.599877
-0.812015
0.599862
1.00767e-05
-1.29419
0.481309
1.51108e-05
-1.2942
0.481338
8.70381e-06
-1.29417
0.481332
-2.93571e-06
-1.29417
0.481337
-2.27043e-05
-1.29417
0.48135
-1.29422
0.481307
6.4549e-05
-1.3241
0.0289848
2.81427e-05
-1.32413
0.0290994
1.43972e-05
-1.32409
0.0290754
-4.38082e-06
-1.32409
0.0290791
-5.28298e-05
-1.32409
0.0291113
-1.32412
0.0289826
8.82802e-05
-0.772815
-0.552216
1.91583e-05
-0.772798
-0.552102
-2.80897e-07
-0.772791
-0.552119
-1.53791e-05
-0.772792
-0.552121
-6.01325e-05
-0.772784
-0.552104
-0.772818
-0.552204
5.26686e-06
-0.773613
-1.70218e-05
-0.773569
-1.79571e-05
-0.773583
-1.13484e-05
-0.773592
-1.12453e-05
-0.773577
-0.773622
-1.44691e-12
3.01444e-08
-4.5228e-07
-3.95828e-13
3.01409e-08
-4.52105e-07
4.09112e-13
3.01423e-08
-4.52172e-07
1.18323e-12
3.01433e-08
-4.52198e-07
1.99043e-12
3.01425e-08
-4.5214e-07
3.01476e-08
-4.52354e-07
-1.21066e-12
7.93029e-08
-1.18909e-06
6.27513e-14
7.92995e-08
-1.18894e-06
9.76568e-13
7.93023e-08
-1.18902e-06
2.10605e-12
7.93018e-08
-1.189e-06
3.29868e-12
7.92982e-08
-1.18885e-06
7.9309e-08
-1.18916e-06
-6.58451e-13
5.15301e-08
-1.35566e-07
-6.5169e-14
5.15277e-08
-1.35557e-07
3.1337e-13
5.1529e-08
-1.35564e-07
8.26167e-13
5.15279e-08
-1.35556e-07
1.50479e-12
5.15271e-08
-1.35554e-07
5.15363e-08
-1.35614e-07
-5.62066e-13
4.74246e-08
-1.23685e-08
-3.68814e-14
4.74243e-08
-1.23704e-08
-2.63384e-13
4.74251e-08
-1.23707e-08
2.70303e-13
4.74241e-08
-1.23706e-08
1.10378e-12
4.74238e-08
-1.23704e-08
4.74259e-08
-1.23695e-08
-1.59444e-09
0.00788293
0.000242315
6.21896e-10
0.00788276
0.000242287
-4.08272e-10
0.00788248
0.000242287
-7.09857e-09
0.00788298
0.000242307
-1.8147e-08
0.00788304
0.000242308
0.00788267
0.000242292
1.84459e-07
0.109623
0.00295935
2.99486e-08
0.109626
0.00296243
3.62483e-07
0.109625
0.00296086
-2.13204e-07
0.109626
0.00296076
-1.10894e-06
0.109628
0.0029618
0.109622
0.0029603
4.52666e-06
0.0668634
-0.0151504
-2.68212e-06
0.0668935
-0.0151323
-1.33408e-06
0.0668864
-0.015141
-3.16293e-06
0.0668907
-0.0151408
-1.38328e-05
0.0669035
-0.0151353
0.0668633
-0.0151428
4.15511e-05
-0.372612
0.266126
-2.97692e-06
-0.372597
0.266177
-1.05363e-05
-0.372582
0.266145
-1.3627e-05
-0.372579
0.266144
-4.6608e-05
-0.372567
0.266162
-0.372629
0.266126
7.2507e-05
-0.700122
0.542715
9.54051e-06
-0.70018
0.54297
1.10023e-05
-0.700133
0.542853
6.94423e-06
-0.700129
0.542857
-3.45174e-05
-0.700135
0.542925
-0.70015
0.542771
8.69243e-05
-0.718139
0.0461165
1.89848e-05
-0.718155
0.0463429
1.69626e-05
-0.718106
0.0462513
1.63258e-05
-0.718118
0.0462702
-4.6076e-06
-0.718128
0.0463265
-0.718137
0.0461662
0.00031338
-0.447995
-0.823416
2.55745e-05
-0.447898
-0.822813
-2.66088e-05
-0.447885
-0.82303
-2.21023e-06
-0.447926
-0.82308
-0.000100482
-0.447947
-0.822929
-0.447926
-0.823257
-8.09184e-05
-1.222
-3.06233e-05
-1.22199
1.34533e-05
-1.22199
1.34846e-05
-1.222
4.0884e-06
-1.22199
-1.22202
-3.83811e-12
-1.67681e-07
-2.26323e-07
1.09935e-12
-1.67609e-07
-2.26227e-07
5.42037e-12
-1.67631e-07
-2.26265e-07
5.79207e-12
-1.67628e-07
-2.2628e-07
5.14781e-12
-1.67597e-07
-2.26245e-07
-1.67685e-07
-2.26368e-07
-1.43676e-11
-1.72721e-07
-9.93867e-07
-3.60885e-12
-1.7264e-07
-9.93696e-07
-3.41189e-13
-1.72662e-07
-9.93771e-07
2.92872e-12
-1.72657e-07
-9.93768e-07
1.66579e-11
-1.72627e-07
-9.93632e-07
-1.72742e-07
-9.93928e-07
-6.90899e-12
1.23968e-08
-3.03941e-07
-3.69118e-12
1.23915e-08
-3.03832e-07
-2.83131e-12
1.23927e-08
-3.03862e-07
-1.41624e-12
1.23921e-08
-3.03849e-07
3.42011e-12
1.23912e-08
-3.03815e-07
1.23995e-08
-3.04011e-07
-1.21858e-12
6.16878e-08
-7.57988e-08
-1.05067e-12
6.16982e-08
-7.58158e-08
-8.48972e-13
6.17137e-08
-7.58298e-08
-5.60487e-13
6.17155e-08
-7.58343e-08
-7.32106e-14
6.17094e-08
-7.58292e-08
6.17199e-08
-7.58255e-08
3.50854e-10
0.00024224
1.95416e-07
-1.34729e-09
0.000242214
1.95407e-07
-1.19077e-09
0.000242212
1.95412e-07
-1.00485e-09
0.000242232
1.95409e-07
-2.06814e-09
0.000242234
1.95395e-07
0.000242214
1.95379e-07
4.62717e-07
0.00312387
1.85815e-07
-7.16462e-08
0.00312785
2.60475e-07
-2.05655e-08
0.00312571
2.55044e-07
1.6887e-08
0.00312564
2.42267e-07
-3.11193e-07
0.00312704
2.45188e-07
0.00312491
2.27877e-07
1.11751e-06
-0.0131033
0.000272492
-9.06693e-07
-0.0130811
0.000275939
-4.925e-07
-0.0130934
0.000274812
-5.76042e-07
-0.0130922
0.000274238
-2.17057e-06
-0.013084
0.000274699
-0.0130965
0.000273487
1.09018e-05
-0.202738
-0.0246612
2.85687e-06
-0.202749
-0.0246675
3.90376e-07
-0.202747
-0.0246592
-3.19256e-06
-0.202734
-0.0246648
-1.4277e-05
-0.202734
-0.0246739
-0.202731
-0.0246582
0.000224843
-0.320372
0.0172193
9.24054e-06
-0.320095
0.0173646
-1.19142e-05
-0.320209
0.0172973
8.33447e-06
-0.32023
0.0172888
-0.000111404
-0.320164
0.0173329
-0.320269
0.0172555
0.000544372
-0.294563
-0.223227
1.23743e-05
-0.293854
-0.222261
-4.75916e-05
-0.294129
-0.222713
2.88631e-05
-0.294237
-0.222764
-0.00022747
-0.294097
-0.222425
-0.294279
-0.223017
0.000263854
-0.153462
-0.821477
-1.17348e-05
-0.152907
-0.820687
-4.8432e-05
-0.153094
-0.821023
2.50089e-05
-0.153221
-0.821168
-3.31557e-05
-0.153193
-0.820939
-0.153163
-0.821273
-0.000450452
-1.0956
-6.95385e-05
-1.09584
-3.16361e-05
-1.09572
1.37007e-05
-1.09594
0.000387059
-1.09624
-1.09546
2.12055e-12
1.07277e-08
-2.55418e-08
2.85604e-12
1.07308e-08
-2.55148e-08
1.41832e-12
1.07321e-08
-2.55245e-08
4.5351e-13
1.07332e-08
-2.55233e-08
-2.06152e-13
1.07354e-08
-2.55041e-08
1.07314e-08
-2.55476e-08
-1.72805e-12
3.55394e-08
-5.50064e-07
-1.27453e-12
3.55549e-08
-5.49904e-07
-5.24968e-12
3.55617e-08
-5.49977e-07
-9.29009e-12
3.5561e-08
-5.49961e-07
-5.80001e-12
3.55567e-08
-5.49815e-07
3.55492e-08
-5.5011e-07
-8.56507e-12
-1.98152e-08
-1.40745e-07
-4.13128e-12
-1.98136e-08
-1.40636e-07
-4.13047e-12
-1.97841e-08
-1.40654e-07
-4.13713e-12
-1.97772e-08
-1.40653e-07
4.3822e-14
-1.97936e-08
-1.40634e-07
-1.98041e-08
-1.40762e-07
-2.30497e-12
-1.0236e-07
-1.18629e-08
-1.36127e-12
-1.02364e-07
-1.18666e-08
-1.18237e-12
-1.02359e-07
-1.18673e-08
-1.02305e-12
-1.02361e-07
-1.18679e-08
-1.68408e-13
-1.02366e-07
-1.18679e-08
-1.02386e-07
-1.18684e-08
-9.68522e-11
1.56769e-07
-9.14986e-08
-1.06039e-10
1.56769e-07
-9.15785e-08
-9.7349e-11
1.56744e-07
-9.15872e-08
-6.8288e-11
1.56726e-07
-9.15991e-08
-4.30298e-11
1.56741e-07
-9.1606e-08
1.56642e-07
-9.15992e-08
2.13961e-08
1.83162e-06
-2.05863e-06
-2.23593e-08
1.94894e-06
-2.03423e-06
-1.78478e-08
1.90534e-06
-2.0449e-06
-7.70626e-09
1.88829e-06
-2.04645e-06
-2.16951e-08
1.90963e-06
-2.03984e-06
1.87063e-06
-2.05569e-06
-9.19971e-08
0.000255853
-0.000112935
-7.62963e-08
0.000260134
-0.000113601
-1.41415e-07
0.000258784
-0.000113429
-2.17727e-08
0.000257935
-0.000113366
2.43942e-07
0.000258471
-0.000113497
0.000257564
-0.000113425
-9.84171e-06
-0.0851775
0.000202874
-4.37683e-07
-0.0853786
0.000203612
1.67501e-06
-0.0853246
0.000203432
-1.63354e-07
-0.0852704
0.000203469
5.36179e-07
-0.0852724
0.000203549
-0.0852535
0.000203768
-0.000140477
-0.45118
-6.12255e-05
8.90531e-06
-0.451785
-6.12448e-05
6.48396e-05
-0.451546
-6.12806e-05
1.15852e-05
-0.451508
-6.11645e-05
3.71091e-05
-0.451612
-6.0955e-05
-0.451398
-6.12305e-05
-0.000478515
-0.279558
-0.00067458
9.64498e-06
-0.279449
-0.00067406
0.000125488
-0.279514
-0.000674542
1.90508e-05
-0.279503
-0.000674476
0.000220125
-0.279389
-0.000674963
-0.279636
-0.000674656
-0.000696799
-0.166161
-0.0113915
-3.30255e-05
-0.165692
-0.0113876
3.06057e-05
-0.165927
-0.0113906
1.21947e-05
-0.165931
-0.0113941
0.000490725
-0.16574
-0.0114262
-0.166151
-0.0113866
-0.000347719
-0.216867
-6.18429e-05
-0.216839
-0.000155049
-0.216847
-6.26429e-06
-0.216944
0.000586909
-0.217118
-0.216742
-4.16548e-18
-3.3796e-13
1.52289e-14
-7.24864e-18
-3.31945e-13
1.4946e-14
-7.74978e-18
-3.31387e-13
1.51716e-14
-6.65133e-18
-3.44292e-13
1.54697e-14
-3.0597e-18
-3.57734e-13
1.62231e-14
-3.31907e-13
1.53588e-14
-1.14751e-15
-5.11091e-12
2.88382e-12
-2.15054e-15
-5.02087e-12
2.82347e-12
-2.07004e-15
-5.13832e-12
2.8832e-12
-1.8573e-15
-5.1164e-12
2.89615e-12
-6.24722e-16
-5.30955e-12
3.01215e-12
-5.22638e-12
2.941e-12
-2.76276e-13
-5.74347e-10
3.70798e-10
-6.11866e-13
-5.63335e-10
3.63189e-10
-5.7561e-13
-5.76624e-10
3.70282e-10
-4.78258e-13
-5.73709e-10
3.72648e-10
1.23837e-13
-5.94197e-10
3.87214e-10
-5.87565e-10
3.77446e-10
-2.98199e-11
-4.52629e-08
2.97198e-08
-1.25567e-10
-4.43056e-08
2.90811e-08
-1.23218e-10
-4.53221e-08
2.95826e-08
-1.08679e-10
-4.54101e-08
2.99509e-08
1.20061e-10
-4.73892e-08
3.11751e-08
-4.60477e-08
3.01335e-08
-1.17953e-09
-2.29471e-06
1.67061e-06
-8.36459e-09
-2.22017e-06
1.62181e-06
-6.50503e-09
-2.25587e-06
1.62415e-06
-1.10716e-08
-2.33044e-06
1.72907e-06
7.72221e-09
-2.48446e-06
1.85696e-06
-2.29806e-06
1.65566e-06
-4.26372e-08
-7.25612e-05
5.20637e-05
-4.2795e-07
-7.01893e-05
5.03623e-05
-3.88959e-07
-7.03053e-05
4.95714e-05
-4.85437e-07
-7.55776e-05
5.54401e-05
2.81942e-07
-8.23318e-05
6.07786e-05
-7.12482e-05
5.04119e-05
3.15031e-06
-0.000979239
0.000623588
-1.35254e-05
-0.000938382
0.0006088
-3.4723e-05
-0.000924302
0.000592719
-2.39911e-05
-0.00103263
0.000671741
3.27293e-05
-0.00113832
0.000721521
-0.000928585
0.000599918
3.92303e-05
-0.0272996
-0.0021429
-9.91251e-06
-0.0273034
-0.00199075
-8.77767e-05
-0.0285058
-0.00195228
-0.00024322
-0.0260414
-0.00239105
-0.000156518
-0.024996
-0.00310317
-0.0311069
-0.00210114
2.48903e-05
-0.0311852
-0.098559
0.000442546
-0.0318144
-0.0976077
0.00142339
-0.0344096
-0.0990545
0.000538327
-0.0253506
-0.0967168
-0.0018346
-0.019052
-0.0957091
-0.0374477
-0.100365
-0.000164343
0.00613065
-0.106828
0.00026116
0.00628134
-0.106283
0.0016267
0.00613774
-0.108829
0.000285301
0.00573623
-0.106531
-0.00299947
0.00457927
-0.106183
0.00618966
-0.105745
6.26506e-06
0.000232604
0.00068276
1.65745e-05
0.00023267
0.000756999
1.46711e-05
0.000227902
0.000879907
-4.23631e-07
0.00022346
0.000417569
-1.96318e-05
0.000210258
0.000142913
0.000225451
0.00116051
1.55673e-07
0.000210256
-1.63666e-06
0.000212465
-6.94552e-06
0.000212427
-1.88172e-06
0.000196477
9.29597e-06
0.000178513
0.000214765
-5.27065e-19
-1.07287e-14
3.661e-15
-8.65602e-19
-1.05619e-14
3.59478e-15
-9.05474e-19
-1.05795e-14
3.6295e-15
-8.06121e-19
-1.10222e-14
3.74697e-15
-3.18948e-19
-1.15481e-14
3.94253e-15
-1.0608e-14
3.66096e-15
-1.6215e-16
2.03598e-12
6.55872e-13
-3.03424e-16
1.99211e-12
6.43406e-13
-2.9153e-16
2.05115e-12
6.45897e-13
-2.67269e-16
2.02569e-12
6.76807e-13
-3.66483e-17
2.09909e-12
7.17571e-13
2.10235e-12
6.48966e-13
-3.51954e-14
2.64424e-10
7.85485e-11
-7.14313e-14
2.58987e-10
7.69378e-11
-5.96456e-14
2.66856e-10
7.66957e-11
-5.95408e-14
2.61822e-10
8.19953e-11
1.69745e-14
2.69457e-10
8.78248e-11
2.73528e-10
7.68768e-11
-4.03211e-12
2.3188e-08
5.37731e-09
-1.222e-11
2.27302e-08
5.28663e-09
-1.03551e-11
2.32772e-08
5.24897e-09
-1.21821e-11
2.32288e-08
5.61136e-09
1.09575e-11
2.42307e-08
5.96645e-09
2.37738e-08
5.26076e-09
-2.09394e-10
1.42061e-06
1.80134e-07
-9.5434e-10
1.37558e-06
1.78113e-07
-1.67094e-09
1.38285e-06
1.75869e-07
-1.25628e-09
1.47104e-06
1.87692e-07
2.46872e-09
1.58842e-06
1.96709e-07
1.4144e-06
1.76339e-07
-9.16152e-09
5.17003e-05
-6.38541e-07
-2.31388e-08
4.99849e-05
-6.20237e-07
-1.06426e-07
4.95084e-05
-7.73646e-07
-1.75619e-08
5.47839e-05
-4.00239e-07
1.76174e-07
6.00174e-05
-2.14074e-07
5.05418e-05
-8.63759e-07
2.85187e-07
0.000646159
-2.01134e-06
2.44174e-07
0.000626011
-2.27729e-06
-2.22396e-06
0.000618947
-4.64023e-06
1.13671e-06
0.000692997
2.23635e-06
5.0504e-06
0.000757794
6.3276e-06
0.000628998
-6.18663e-06
1.77868e-05
-0.00664568
-2.2523e-05
2.44895e-05
-0.00654688
-1.13709e-05
7.31163e-06
-0.0060267
-3.65873e-06
2.4377e-05
-0.00633746
-4.32847e-05
6.55032e-05
-0.00555929
-0.000107057
-0.00512142
-1.48841e-06
5.56467e-05
-0.0941284
-0.0292347
8.37838e-05
-0.0927833
-0.0288784
-0.000108875
-0.0934542
-0.0286099
0.000253921
-0.0978151
-0.0296839
0.000434884
-0.101161
-0.0300439
-0.0885242
-0.0282179
-0.000134433
-0.0229464
-0.176557
-9.2718e-05
-0.0235089
-0.174983
-0.000223195
-0.0244338
-0.174106
0.000320931
-0.0202767
-0.179047
0.000501102
-0.0163276
-0.181069
-0.0296863
-0.178207
1.71946e-06
-0.00016074
-0.048736
-8.56161e-05
-0.000163668
-0.0505007
-0.000373252
-0.000164401
-0.0506877
-4.73462e-05
-0.000145963
-0.0475549
0.00039848
-0.000124173
-0.0430239
-0.000168154
-0.0540034
-2.26068e-07
4.29893e-05
-8.59303e-07
4.28876e-05
-1.49591e-06
4.22286e-05
-8.75955e-07
4.34937e-05
1.1004e-06
4.60098e-05
4.12019e-05
-1.60472e-20
-3.55901e-15
7.7682e-16
-2.37073e-20
-3.51139e-15
7.61355e-16
-2.43461e-20
-3.61663e-15
7.49384e-16
-1.97919e-20
-3.50966e-15
8.20966e-16
-4.28303e-21
-3.56711e-15
8.85226e-16
-3.70115e-15
7.44313e-16
-3.59487e-18
-4.93386e-13
6.94261e-14
-6.37579e-18
-4.87979e-13
6.77899e-14
-5.32888e-18
-5.1126e-13
6.68982e-14
-4.47174e-18
-4.70442e-13
7.33118e-14
2.67325e-18
-4.64391e-13
7.90342e-14
-5.28475e-13
6.62154e-14
-4.2504e-16
-2.3883e-11
6.75169e-12
-8.59564e-16
-2.39282e-11
6.59761e-12
-4.44011e-16
-2.63925e-11
6.51015e-12
-3.34326e-16
-2.0239e-11
7.11178e-12
2.04344e-15
-1.74028e-11
7.64977e-12
-2.79902e-11
6.44615e-12
-1.51598e-14
-3.8626e-10
4.24842e-10
-3.44816e-14
-3.92854e-10
4.15911e-10
4.45376e-14
-5.49308e-10
4.09775e-10
-1.61158e-14
-1.38275e-10
4.47058e-10
4.76669e-13
5.92034e-11
4.79407e-10
-6.35746e-10
4.061e-10
4.02305e-12
-3.3183e-09
1.52482e-08
1.08231e-11
-3.25688e-09
1.49874e-08
-4.65689e-12
-8.59448e-09
1.47424e-08
8.31793e-12
4.77272e-09
1.59314e-08
9.95445e-11
1.0121e-08
1.68572e-08
-1.10645e-08
1.45874e-08
1.63051e-10
-9.72396e-07
1.67667e-07
1.67925e-09
-9.88874e-07
1.68192e-07
8.45278e-10
-9.13148e-07
1.6415e-07
3.26095e-09
-1.03113e-06
1.68565e-07
3.59789e-09
-1.07664e-06
1.62794e-07
-9.24423e-07
1.60353e-07
9.58892e-09
1.66508e-06
6.44759e-07
1.24524e-07
1.63291e-06
6.64775e-07
2.56043e-07
1.62118e-06
6.67617e-07
2.75039e-07
1.72128e-06
6.1031e-07
-7.05057e-08
1.65244e-06
4.00205e-07
1.50875e-06
6.91229e-07
2.15199e-07
-2.74864e-05
9.35797e-06
1.08231e-06
-1.67739e-05
9.60214e-06
2.91261e-06
-1.00808e-05
9.84992e-06
2.77235e-06
-4.73274e-05
8.67689e-06
-2.28379e-06
-0.000101325
7.51212e-06
-8.90269e-06
1.01197e-05
5.10962e-06
-0.0282356
-0.000976444
6.59597e-06
-0.0278195
-0.000981863
7.57217e-06
-0.0275107
-0.000995549
3.13985e-07
-0.0287459
-0.00094918
-1.26652e-06
-0.0285808
-0.000880253
-0.0270998
-0.00101061
-2.43596e-05
-0.150124
-0.0515409
-9.62568e-05
-0.148818
-0.0511005
-0.000571983
-0.152032
-0.0510797
-0.000272974
-0.148034
-0.0525145
0.00111894
-0.14571
-0.0538205
-0.157493
-0.0513563
-0.000127551
-3.35827e-05
-0.314607
-0.000646272
-3.32418e-05
-0.314022
-0.0022518
-3.40061e-05
-0.322945
-0.000898727
-3.30535e-05
-0.301516
0.00363429
-3.27743e-05
-0.286294
-3.42958e-05
-0.33534
-2.7154e-07
3.00596e-06
-6.42592e-07
2.93482e-06
-8.97411e-07
1.38571e-06
-7.0538e-07
3.76683e-06
7.17868e-08
5.97709e-06
6.59145e-07
-1.27859e-22
-2.96172e-17
3.97454e-17
-7.05398e-23
-2.98687e-17
3.92906e-17
7.50283e-23
-3.04612e-17
3.88098e-17
1.49376e-22
-2.4831e-17
3.97766e-17
2.55797e-22
-2.38713e-17
4.19243e-17
-2.99236e-17
3.87847e-17
1.03819e-20
-3.04787e-14
8.09628e-16
2.54489e-20
-2.99133e-14
7.92463e-16
4.52673e-20
-2.93631e-14
7.75119e-16
4.86714e-20
-3.23606e-14
8.80552e-16
6.44253e-20
-3.49202e-14
9.86328e-16
-2.92167e-14
7.70202e-16
9.04012e-18
-2.67898e-12
9.75553e-14
1.63446e-17
-2.62966e-12
9.57867e-14
2.1708e-17
-2.58158e-12
9.38415e-14
2.17452e-17
-2.83406e-12
1.03891e-13
2.71198e-17
-3.05074e-12
1.12329e-13
-2.56879e-12
9.34372e-14
2.44126e-15
-1.17584e-10
5.83939e-12
4.93359e-15
-1.15354e-10
5.71333e-12
6.23738e-15
-1.13534e-10
5.62148e-12
5.16387e-15
-1.23268e-10
6.14754e-12
5.50494e-15
-1.31881e-10
6.62793e-12
-1.12726e-10
5.57477e-12
3.65833e-13
-1.77307e-09
1.25378e-10
9.12735e-13
-1.74774e-09
1.2328e-10
1.0449e-12
-1.69748e-09
1.2006e-10
8.78618e-13
-1.86098e-09
1.31048e-10
7.27623e-13
-1.99082e-09
1.40069e-10
-1.67571e-09
1.18409e-10
3.20241e-11
2.91234e-08
7.81003e-10
1.11276e-10
2.89957e-08
7.75131e-10
1.23173e-10
2.84248e-08
7.49915e-10
1.30736e-10
3.09101e-08
8.30648e-10
4.54847e-11
3.17144e-08
8.05394e-10
2.88615e-08
7.54475e-10
4.97104e-10
6.72334e-07
1.24401e-08
3.76046e-09
6.87556e-07
1.26161e-08
6.55959e-09
6.91033e-07
1.22802e-08
5.61761e-09
6.53739e-07
1.27536e-08
-2.08414e-09
6.08662e-07
1.03473e-08
7.05369e-07
1.2348e-08
1.98673e-10
9.92327e-06
1.69126e-07
6.34611e-09
1.01758e-05
1.78484e-07
1.55452e-08
1.0428e-05
1.77631e-07
7.52268e-09
9.26644e-06
1.62263e-07
-1.36066e-08
8.13026e-06
1.06614e-07
1.0711e-05
1.82512e-07
-1.74348e-08
-0.000950563
-1.30085e-05
3.33344e-07
-0.000955205
-1.33246e-05
4.57938e-07
-0.000968231
-1.32512e-05
-1.45412e-07
-0.000924031
-1.27577e-05
-2.66549e-07
-0.000856107
-1.17856e-05
-0.000982807
-1.35508e-05
-1.48566e-05
-0.0496973
-0.00273023
-3.3001e-05
-0.0492354
-0.00275321
-5.52149e-05
-0.0492726
-0.00271569
-5.10168e-05
-0.0506013
-0.00276851
3.40977e-05
-0.051867
-0.00280363
-0.0495598
-0.0027077
-0.000105658
-0.426208
-0.0883269
-0.00049573
-0.407138
-0.0880699
-0.00161473
-0.427746
-0.090373
-0.000467356
-0.364697
-0.085103
0.00216709
-0.284812
-0.081879
-0.434571
-0.0936288
-0.000810472
-0.567104
-0.00103262
-0.570847
-0.00659841
-0.567284
-0.0029155
-0.572951
0.010159
-0.575059
-0.568003
4.71857e-14
-1.20934e-09
-2.31065e-08
1.85853e-14
-1.20223e-09
-2.30937e-08
5.55222e-15
-1.20455e-09
-2.30987e-08
-1.11602e-14
-1.20414e-09
-2.30983e-08
-4.79357e-14
-1.19958e-09
-2.30883e-08
-1.21069e-09
-2.31095e-08
1.80718e-14
1.49916e-16
-4.33422e-15
5.57861e-15
1.64199e-16
-4.33561e-15
-5.68154e-16
1.68554e-16
-4.33517e-15
-6.93497e-15
1.64803e-16
-4.33519e-15
-1.9006e-14
1.63827e-16
-4.33508e-15
1.67775e-16
-4.33511e-15
-3.32757e-21
2.05158e-17
-1.08691e-21
2.26059e-17
3.21522e-22
2.32462e-17
1.51331e-21
2.26963e-17
3.76511e-21
2.25525e-17
2.31357e-17
6.99934e-12
-1.90818e-12
-3.35628e-08
1.39106e-12
-1.90882e-12
-3.35201e-08
-2.40095e-12
-1.90865e-12
-3.35309e-08
-6.67823e-12
-1.90867e-12
-3.35293e-08
-1.35495e-11
-1.90865e-12
-3.35067e-08
-1.90865e-12
-3.35653e-08
1.07635e-18
8.7558e-16
-1.91339e-12
2.78896e-19
9.64902e-16
-1.91413e-12
-2.10703e-19
9.92195e-16
-1.91397e-12
-6.55846e-19
9.68719e-16
-1.91397e-12
-1.36491e-18
9.62623e-16
-1.91395e-12
9.87361e-16
-1.91398e-12
-1.69374e-20
-4.56738e-16
-4.60332e-21
-4.5676e-16
3.00744e-21
-4.56729e-16
9.13705e-21
-4.5672e-16
2.34473e-20
-4.56675e-16
-4.5684e-16
-8.16644e-13
-2.93348e-10
-9.80135e-09
-3.59865e-14
-2.93458e-10
-9.79185e-09
-1.65917e-13
-2.93436e-10
-9.79348e-09
-5.73064e-13
-2.93436e-10
-9.79329e-09
-5.39116e-13
-2.93437e-10
-9.78928e-09
-2.93443e-10
-9.80259e-09
9.94445e-17
-2.83393e-13
-2.95008e-10
1.0565e-17
-2.83409e-13
-2.95118e-10
-6.45382e-17
-2.83392e-13
-2.95096e-10
-1.12382e-16
-2.83389e-13
-2.95097e-10
-1.88359e-16
-2.83368e-13
-2.95097e-10
-2.83465e-13
-2.95104e-10
1.08363e-19
-2.83863e-13
1.92242e-20
-2.83879e-13
-3.4173e-20
-2.83862e-13
-7.80728e-20
-2.83859e-13
-1.88856e-19
-2.83838e-13
-2.83936e-13
-4.4316e-13
-8.03983e-10
-2.1941e-08
2.38567e-14
-8.04177e-10
-2.19353e-08
1.95821e-14
-8.04204e-10
-2.19376e-08
-5.26876e-14
-8.04222e-10
-2.19381e-08
5.7709e-14
-8.04187e-10
-2.1934e-08
-8.04282e-10
-2.19483e-08
-5.7745e-15
-1.0988e-11
-1.09839e-09
9.72455e-16
-1.09923e-11
-1.09871e-09
-2.43576e-15
-1.09927e-11
-1.0987e-09
-5.01789e-15
-1.09929e-11
-1.09872e-09
-5.12852e-15
-1.09924e-11
-1.09869e-09
-1.09933e-11
-1.0988e-09
1.26871e-17
-1.12718e-11
-1.52207e-19
-1.12761e-11
-1.25807e-17
-1.12764e-11
-2.13168e-17
-1.12767e-11
-3.91111e-17
-1.12762e-11
-1.12772e-11
-1.32311e-11
-4.90775e-09
-1.16261e-07
-7.25187e-12
-4.91859e-09
-1.16329e-07
-8.44797e-12
-4.9176e-09
-1.16343e-07
-5.63841e-12
-4.91829e-09
-1.16362e-07
3.82579e-12
-4.9198e-09
-1.16363e-07
-4.91627e-09
-1.16377e-07
3.14603e-13
1.20235e-09
-8.54223e-09
8.48389e-13
1.20264e-09
-8.55443e-09
6.33347e-13
1.20252e-09
-8.55282e-09
4.76081e-13
1.20248e-09
-8.55347e-09
3.16542e-13
1.20244e-09
-8.55466e-09
1.20292e-09
-8.55195e-09
4.23483e-15
-7.87065e-10
4.47058e-15
-7.87076e-10
-5.74969e-17
-7.87509e-10
-2.91062e-15
-7.87597e-10
-8.43308e-15
-7.8742e-10
-7.88e-10
1.35044e-09
9.78813e-07
-4.86475e-06
-8.99885e-10
9.8352e-07
-4.83901e-06
-9.2684e-10
9.81706e-07
-4.85278e-06
-5.97486e-10
9.81691e-07
-4.85421e-06
-9.80026e-10
9.83087e-07
-4.84643e-06
9.80691e-07
-4.86316e-06
1.16658e-10
1.24496e-07
-1.17972e-06
5.53463e-11
1.24832e-07
-1.17665e-06
3.80699e-11
1.24702e-07
-1.17865e-06
3.23214e-11
1.24698e-07
-1.17879e-06
-6.64082e-12
1.24777e-07
-1.17756e-06
1.24659e-07
-1.18024e-06
8.6684e-13
-6.0425e-08
1.85006e-12
-6.04419e-08
1.21568e-12
-6.04534e-08
8.29655e-13
-6.04573e-08
2.63768e-13
-6.04403e-08
-6.0485e-08
-2.88139e-08
2.40907e-05
-0.000176693
-9.30647e-09
2.41187e-05
-0.000177227
-2.82864e-09
2.41051e-05
-0.000177108
-1.59483e-09
2.41012e-05
-0.00017706
1.37429e-08
2.41062e-05
-0.000177164
2.4092e-05
-0.000177114
3.14186e-10
3.11772e-06
1.785e-05
1.67708e-09
3.12171e-06
1.78805e-05
1.19055e-09
3.12036e-06
1.78676e-05
-4.35867e-10
3.11956e-06
1.78644e-05
-1.0954e-09
3.11969e-06
1.78702e-05
3.11919e-06
1.78509e-05
1.27253e-10
1.44386e-06
9.83098e-11
1.44619e-06
7.70851e-11
1.44541e-06
4.96147e-11
1.44486e-06
-1.84957e-11
1.44482e-06
1.44449e-06
-1.12223e-07
5.28109e-05
-5.07975e-06
-1.07959e-07
5.29052e-05
-5.07251e-06
-1.36101e-07
5.28534e-05
-5.07062e-06
-1.88498e-07
5.2874e-05
-5.05013e-06
-3.10638e-07
5.29033e-05
-5.03552e-06
5.27723e-05
-5.06087e-06
-7.91412e-09
2.62991e-05
5.49881e-05
2.02736e-09
2.63654e-05
5.50994e-05
-4.80533e-09
2.63383e-05
5.5052e-05
-7.03397e-09
2.63351e-05
5.5048e-05
-4.30848e-10
2.63471e-05
5.50805e-05
2.63224e-05
5.49489e-05
-1.93072e-09
8.51428e-06
-1.2603e-12
8.53354e-06
-1.60579e-10
8.52625e-06
-8.81806e-10
8.5239e-06
-1.11846e-10
8.52408e-06
8.51793e-06
1.02093e-09
-4.30309e-06
-4.46638e-05
-3.2279e-10
-4.39173e-06
-4.45866e-05
3.57181e-10
-4.36499e-06
-4.46566e-05
-7.88201e-10
-4.34249e-06
-4.46103e-05
-4.59133e-09
-4.36342e-06
-4.4571e-05
-4.3409e-06
-4.46823e-05
4.08706e-08
1.0529e-05
-5.04685e-07
1.53238e-09
1.05733e-05
-5.06165e-07
-8.27693e-09
1.05596e-05
-5.07438e-07
-3.35983e-09
1.05591e-05
-5.06595e-07
-1.83074e-08
1.05666e-05
-5.02722e-07
1.05397e-05
-5.19186e-07
1.6761e-09
7.76877e-06
3.82229e-10
7.7693e-06
3.59142e-11
7.77625e-06
-2.96637e-10
7.76651e-06
-8.69114e-10
7.73703e-06
7.76339e-06
-1.72569e-08
-1.31139e-05
-0.000693115
-3.3989e-09
-1.30939e-05
-0.000692584
1.44631e-09
-1.31277e-05
-0.000693058
3.90251e-10
-1.3078e-05
-0.000693038
6.8252e-09
-1.30293e-05
-0.000694038
-1.31007e-05
-0.000693237
9.48829e-10
-1.0993e-07
-1.117e-06
-1.71909e-10
-1.09004e-07
-1.11075e-06
-1.48061e-10
-1.09882e-07
-1.11518e-06
-8.3906e-11
-1.06965e-07
-1.11064e-06
-4.57014e-10
-9.93347e-08
-1.25904e-06
-1.09736e-07
-1.11867e-06
1.3775e-10
7.73977e-06
-3.04181e-11
7.72263e-06
-8.88739e-11
7.75931e-06
-7.61423e-12
7.64181e-06
2.07285e-10
7.67882e-06
7.73506e-06
-1.36138e-07
-0.000207897
-0.0118552
2.12653e-08
-0.000207994
-0.0118511
-1.06138e-07
-0.00020794
-0.0118542
-1.38774e-08
-0.000207827
-0.0118582
6.64567e-07
-0.000232103
-0.0118651
-0.000207996
-0.01185
1.25823e-09
-0.000208215
-3.2969e-07
1.48192e-09
-0.000208332
-3.2716e-07
3.82223e-09
-0.000208243
-3.28319e-07
2.06966e-09
-0.000208239
-3.26875e-07
-3.55401e-09
-0.000208361
-3.16029e-07
-0.000208247
-3.33685e-07
2.87817e-08
2.89377e-05
-8.35455e-09
2.88399e-05
-3.07569e-08
2.88773e-05
2.0776e-08
2.88452e-05
1.19482e-07
2.87745e-05
2.90317e-05
-2.34403e-06
-2.45974e-05
-0.228695
2.26812e-06
-2.44021e-05
-0.22867
2.22169e-06
-2.44785e-05
-0.228677
-3.7353e-06
-2.43818e-05
-0.228772
4.90897e-06
-2.43885e-05
-0.228932
-2.48616e-05
-0.228562
-6.49865e-11
-2.49293e-05
4.56703e-17
1.6214e-10
-2.47318e-05
5.69423e-17
8.38432e-10
-2.48098e-05
2.92808e-15
3.11959e-10
-2.47103e-05
1.14276e-14
-1.92976e-09
-2.47125e-05
3.59203e-19
-2.52001e-05
1.87099e-11
3.75347e-09
9.99421e-26
6.263e-10
1.43232e-25
2.80733e-10
1.30033e-25
1.4093e-10
1.71753e-25
-7.76466e-09
3.1484e-25
2.22169e-23
-0.000324131
-0.000272657
-0.592986
0.713892
-0.000229838
-0.000272365
-0.592944
0.713383
-0.000467931
-0.000272176
-0.593124
0.713908
-9.09966e-05
-0.00027829
-0.592465
0.712685
0.00117481
-0.00028448
-0.591822
0.711197
-0.000264489
-0.593993
0.715828
-5.80471e-09
-1.21617e-05
-0.000273645
1.33162e-05
-7.77144e-09
-1.19021e-05
-0.000273579
1.32691e-05
-1.80395e-08
-1.18128e-05
-0.000273482
1.32754e-05
1.47445e-08
-1.13607e-05
-0.000280405
1.37574e-05
2.03499e-07
-8.46699e-06
-0.000289949
1.43903e-05
-1.09267e-05
-0.000266266
1.31073e-05
-2.69157e-08
9.13159e-25
3.95011e-06
9.30387e-09
3.79787e-25
3.34485e-06
5.66296e-08
1.76243e-24
3.12741e-06
4.79692e-09
6.84213e-25
5.36314e-06
-9.43651e-08
4.98901e-25
1.2634e-06
6.68561e-25
2.52765e-06
-9.85199e-05
-0.00550591
-0.463731
-0.000131313
-0.00552222
-0.463753
-0.000315654
-0.00551417
-0.463783
6.11598e-06
-0.00562622
-0.463529
0.000747427
-0.00580245
-0.46313
-0.00536356
-0.464156
-5.06052e-07
2.10298e-24
-0.00577905
-6.20608e-08
8.91363e-25
-0.00579625
1.47979e-07
4.10739e-24
-0.00578786
1.4717e-07
1.56248e-24
-0.00590662
9.1158e-07
1.1294e-24
-0.00609316
1.53976e-24
-0.00562891
1.51712e-27
-6.25832e-26
-4.2804e-27
-2.78143e-26
-4.95102e-26
-1.21182e-25
-5.77349e-27
-3.71496e-26
2.07356e-26
-2.18017e-26
-4.25006e-26
-5.90676e-05
-0.00122244
-0.337712
-7.86839e-05
-0.00131797
-0.337678
-0.000148483
-0.00126555
-0.3377
-2.6157e-05
-0.00135532
-0.337527
0.000389851
-0.00144537
-0.337319
-0.00118487
-0.337799
-6.87294e-06
2.08171e-24
-0.0085228
-9.83826e-06
2.02445e-24
-0.00859987
-3.05242e-05
1.98667e-24
-0.00848942
-3.47587e-06
1.87548e-24
-0.00879284
7.74296e-05
3.91255e-24
-0.00919138
1.10379e-24
-0.00810652
1.62808e-29
7.83301e-25
-1.77319e-27
9.48121e-25
1.94535e-27
1.04972e-24
-3.11546e-27
1.12107e-24
-2.62456e-26
1.0856e-24
7.61856e-25
-9.96602e-06
-0.0156333
-0.197331
-3.81197e-05
-0.0155504
-0.197367
-7.37531e-06
-0.015693
-0.197312
-6.47788e-05
-0.0153453
-0.197377
-5.98802e-05
-0.014948
-0.197606
-0.0161117
-0.196966
-1.63575e-05
2.41302e-23
3.71785e-16
-1.24778e-05
3.04189e-23
4.68434e-16
-5.66742e-05
3.28782e-23
2.36515e-14
-5.6787e-06
3.35671e-23
9.47106e-14
0.000161827
3.21887e-23
4.07111e-25
2.34953e-23
2.86876e-25
3.07445e-26
-2.27282e-24
-5.43493e-28
-2.86445e-24
3.6513e-26
-3.09586e-24
1.07579e-26
-3.15888e-24
-1.2619e-25
-3.02051e-24
-2.1956e-24
-6.29971e-05
3.87564e-16
0.00108942
-4.44203e-05
4.87554e-16
0.00108265
-0.000224012
2.46464e-14
0.00107822
-4.85769e-05
9.84655e-14
0.00111927
0.000587501
4.22288e-25
0.00113257
3.00295e-25
0.00109085
4.41977e-18
-5.32546e-24
-5.73007e-16
1.56575e-16
1.2329e-24
-7.18361e-16
2.72605e-15
-1.15969e-23
-3.66382e-14
3.32075e-27
1.5486e-23
-1.43994e-13
-3.75742e-26
2.99425e-23
-6.03449e-25
2.14676e-23
-4.55963e-25
3.74397e-28
7.183e-25
-4.93538e-27
-1.66031e-25
1.38652e-26
1.56804e-24
-4.66432e-27
-2.07949e-24
-1.34183e-26
-3.96721e-24
-2.94906e-24
-7.13925e-05
6.4401e-17
-3.90014e-05
8.04703e-17
-7.92416e-05
4.12068e-15
-9.72273e-06
1.62065e-14
0.000178645
5.15106e-19
2.6067e-11
5.91531e-20
1.26846e-23
1.35964e-18
1.71986e-23
1.35245e-18
1.61607e-23
-3.18325e-18
2.00305e-23
-4.89837e-22
3.07545e-23
3.21271e-21
4.02209e-27
3.99167e-27
1.14996e-26
1.60513e-28
-2.90739e-26
1.20824e-23
3.96955e-18
-4.07955e-18
2.71746e-23
3.93415e-18
-4.05342e-18
3.84998e-23
3.91135e-18
-3.99152e-18
3.68883e-23
3.89441e-18
-3.83759e-18
2.86956e-23
4.02206e-18
-3.98159e-18
3.92167e-18
-3.99847e-18
1.44581e-24
3.97835e-19
-3.81744e-19
2.69694e-24
3.94622e-19
-3.80683e-19
3.10276e-24
3.94323e-19
-3.78374e-19
2.75404e-24
3.92928e-19
-3.55008e-19
1.80332e-24
4.01595e-19
-3.61134e-19
3.96607e-19
-3.82296e-19
5.70436e-26
-1.70352e-20
9.03607e-26
-1.69828e-20
9.28041e-26
-1.69343e-20
7.3954e-26
-1.65446e-20
3.42547e-26
-1.66642e-20