/*--------------------------------*- C++ -*----------------------------------*\
| =========                 |                                                 |
| \\      /  F ield         | OpenFOAM: The Open Source CFD Toolbox           |
|  \\    /   O peration     | Version:  v1612+                                |
|   \\  /    A nd           | Web:      www.OpenFOAM.com                      |
|    \\/     M anipulation  |                                                 |
\*---------------------------------------------------------------------------*/
FoamFile
{
    version     2.0;
    format      ascii;
    class       volScalarField;
    location    "4.4";
    object      p_rgh;
}
// * * * * * * * * * * * * * * * * * * * * * * * * * * * * * * * * * * * * * //

dimensions      [1 -1 -2 0 0 0 0];

internalField   nonuniform List<scalar> 
1116
(
4399.71
4399.76
4399.77
4399.77
4399.78
4399.76
4471.09
4471.13
4471.15
4471.13
4471.15
4471.14
4763.73
4763.75
4763.77
4763.76
4763.77
4763.78
5313.4
5313.41
5313.42
5313.41
5313.43
5313.45
6282.49
6282.51
6282.52
6282.52
6282.54
6282.56
8229.86
8229.89
8229.89
8229.9
8229.92
8229.94
12273.6
12273.5
12273.5
12273.5
12273.5
12273.6
17488.4
17488.4
17488.4
17488.4
17488.3
17488.3
21617.7
21617.8
21617.7
21617.7
21617.7
21617.7
25022
25021.7
25021.6
25021.5
25021.6
25021.9
28264.1
28263.9
28263.9
28263.9
28263.9
28264
30436
30436
30436
30436
30435.9
30436
3.5528
3.55314
3.55332
3.55376
3.55423
3.55424
8.33888
8.33909
8.33924
8.33986
8.34062
8.34087
19.4019
19.4023
19.4026
19.4033
19.4042
19.4045
46.4587
46.4591
46.4591
46.4604
46.4614
46.462
89.5869
89.5871
89.5874
89.5886
89.5899
89.5916
360.179
360.186
360.182
360.181
360.182
360.192
2699.45
2699.02
2699.19
2699.2
2699.06
2699.33
13116.6
13116.5
13116.4
13116.4
13116.3
13116.4
21016.3
21016.6
21016.5
21016.4
21016.4
21016.3
22541.1
22541.7
22541.8
22541.9
22542
22541
26856.3
26855.6
26855.9
26856
26855.8
26855.9
29446.2
29446.1
29446.1
29446.1
29445.9
29446.3
16.944
16.9443
16.9446
16.9449
16.9453
16.9455
16.5219
16.5222
16.5224
16.5228
16.5233
16.5233
19.4087
19.4089
19.409
19.4093
19.4095
19.4092
2.20666
2.20606
2.20624
2.20654
2.20631
2.20645
-28.7889
-28.7913
-28.7898
-28.7901
-28.7912
-28.7896
1.6298
1.61974
1.62581
1.62474
1.62118
1.62676
86.1019
86.0939
86.0959
86.0986
86.1001
86.1069
2499.72
2500.06
2499.85
2499.75
2499.84
2499.68
13368.5
13372.4
13370.6
13370
13370.9
13369.3
22463.2
22463.2
22463.1
22462.9
22462.9
22463
28665.3
28663.8
28664.3
28664.6
28664.5
28664.8
29105.6
29106.2
29106
29106.2
29107.1
29106
6.57912
6.57962
6.57971
6.57979
6.57987
6.57953
5.48287
5.48325
5.48324
5.4833
5.48331
5.48296
8.32205
8.32245
8.32249
8.32255
8.32254
8.32204
-6.19573
-6.19662
-6.19659
-6.19639
-6.19644
-6.19603
-28.0462
-28.0486
-28.0484
-28.0479
-28.0479
-28.0469
-16.1817
-16.1865
-16.183
-16.1825
-16.184
-16.181
31.9274
31.9317
31.9283
31.9311
31.9351
31.9285
96.3491
96.6574
96.5775
96.5013
96.4995
96.4968
5624.52
5635.57
5631.51
5630
5632.04
5628.4
12154.6
12173.6
12165.8
12164.5
12169.5
12161
12608
12621
12615.6
12615.6
12619.7
12612.8
11316.8
11318.1
11318
11319.5
11321.3
11318.1
32.1585
32.1586
32.1586
32.1586
32.1586
32.1584
33.9283
33.9282
33.9283
33.9282
33.9281
33.9273
37.6627
37.6621
37.6625
37.6613
37.6627
37.6579
45.0829
45.0744
45.0855
45.0929
45.1143
45.0638
56.6303
56.5971
56.5959
56.5656
56.6092
56.4786
58.9449
58.9917
58.864
58.5632
58.5288
58.5027
60.6045
60.5967
60.4729
60.8576
61.3516
59.7023
204.157
203.385
202.327
205.796
206.264
199.013
881.023
877.351
885.339
887.561
881.349
898.191
128.147
131.092
133.376
110.943
85.4613
144.557
-209.104
-208.862
-208.853
-209.262
-209.487
-208.125
-220.675
-220.711
-220.919
-220.893
-219.961
-220.932
29.8477
29.8478
29.8478
29.8477
29.8476
29.8474
31.3044
31.3043
31.3045
31.3044
31.3045
31.3033
34.152
34.1518
34.1525
34.1514
34.1525
34.1486
38.7516
38.7497
38.7538
38.756
38.769
38.7353
44.1212
44.1219
44.1158
44.1441
44.1811
44.0382
30.9561
31.0772
30.9276
30.847
30.7097
30.707
-25.6128
-25.3233
-25.4604
-25.4861
-25.818
-25.6576
-62.1495
-62.2703
-62.0651
-58.372
-56.0089
-61.3121
227.966
223.895
221.815
238.099
243.299
221.742
173.501
171.241
172.107
174.522
170.68
187.917
-331.149
-328.995
-325.344
-337.934
-348.884
-319.026
-267.325
-267.485
-267.995
-269.598
-270.222
-268.138
25.1476
25.1476
25.1475
25.1472
25.147
25.1468
25.8063
25.8062
25.806
25.8057
25.8056
25.8049
26.7463
26.7461
26.7458
26.7443
26.745
26.7426
27.0154
27.0151
27.0141
27.0095
27.0134
27.0027
24.0899
24.0964
24.0842
24.0799
24.0817
24.0523
7.07495
7.14064
7.10939
7.01859
6.90656
7.09388
-37.9572
-37.8054
-37.7377
-37.9078
-38.2874
-37.301
-74.8228
-74.8202
-74.5656
-74.4881
-74.7826
-73.3577
-74.0561
-74.0574
-73.7913
-73.2171
-72.5174
-72.6288
713.929
705.504
702.979
728.267
744.448
704.205
1028.73
1034.88
1069.44
969.123
892.605
1132.44
-254.007
-254.259
-254.945
-255.976
-256.416
-255.869
19.3996
19.3995
19.3993
19.399
19.3987
19.3986
19.4101
19.4099
19.4096
19.4093
19.409
19.4087
18.9958
18.9956
18.9951
18.9943
18.9938
18.9931
17.1475
17.1473
17.1461
17.1436
17.1427
17.142
11.9182
11.9205
11.9174
11.9113
11.9079
11.9143
-1.08016
-1.06173
-1.05632
-1.06678
-1.09321
-1.0143
-24.6216
-24.5644
-24.4858
-24.4579
-24.5244
-24.2383
-47.2615
-47.2008
-47.0241
-46.7992
-46.6401
-46.3636
-46.7077
-46.658
-46.6525
-46.6806
-46.2598
-46.2484
-35.1953
-35.1452
-35.1128
-35.2686
-34.9068
-34.6339
2407.97
2388.11
2467.89
2316.75
2228.8
2574.48
6131.22
6145.15
6159.96
6113.54
5999.06
6218.96
6.49761
6.49756
6.49745
6.49733
6.49716
6.497
2.79636
2.79628
2.79619
2.79611
2.79602
2.79601
-0.198258
-0.198235
-0.198139
-0.198085
-0.198042
-0.197901
6.03892
6.03886
6.03868
6.03854
6.03836
6.03827
3.03112
3.03106
3.03098
3.03092
3.0309
3.03099
0.0760994
0.0760898
0.0761512
0.0761884
0.0762185
0.0762305
6.81184
6.81219
6.81213
6.81212
6.81204
6.8119
3.78019
3.78036
3.78032
3.78025
3.78021
3.78019
0.717215
0.717131
0.717113
0.717125
0.717154
0.717168
-2.36078
-2.36048
-2.36063
-2.3604
-2.36024
-2.35996
2.31331
2.31388
2.31374
2.31374
2.31384
2.31391
1.60203
1.60206
1.60207
1.60214
1.60221
1.6023
-17.7304
-17.7293
-17.7291
-17.7285
-17.7279
-17.7276
0.51029
0.5107
0.510618
0.510908
0.511398
0.511784
2.68603
2.68628
2.68627
2.68641
2.68652
2.68667
-7.37147
-7.37265
-7.37009
-7.36904
-7.36912
-7.36874
1.41457
1.41403
1.41473
1.41597
1.41693
1.41739
3.09642
3.09747
3.09724
3.0977
3.0983
3.09851
-0.289279
-0.28244
-0.284911
-0.283615
-0.28228
-0.28935
-9.1361
-9.1317
-9.13209
-9.13013
-9.12954
-9.13331
-4.55404
-4.55264
-4.55166
-4.55064
-4.55019
-4.55113
-73.9786
-73.9841
-73.9846
-73.9821
-73.982
-73.9771
-60.9571
-60.9603
-60.9593
-60.9561
-60.9573
-60.9614
-19.0253
-19.0275
-19.0256
-19.0247
-19.0256
-19.0291
-86.9846
-87.0308
-87.024
-87.0141
-87.0216
-87.013
-91.5798
-91.5632
-91.5562
-91.5659
-91.5667
-91.5664
-17.3343
-17.3314
-17.3294
-17.3324
-17.3316
-17.3354
-56.2322
-56.226
-56.2309
-56.2335
-56.2321
-56.2325
-44.502
-44.4996
-44.4988
-44.5037
-44.5071
-44.5039
-13.7071
-13.7073
-13.7055
-13.7085
-13.7062
-13.7115
-45.1177
-45.0964
-45.1115
-45.1058
-45.0737
-45.1288
-26.4211
-26.4201
-26.4195
-26.4184
-26.4212
-26.4171
-7.27812
-7.27429
-7.27451
-7.27479
-7.27299
-7.27488
-23.8411
-23.8373
-23.8823
-23.7881
-23.6329
-24.0387
2.93847
2.93648
2.93963
2.9627
2.96245
2.92312
-8.37262
-8.37464
-8.37276
-8.36901
-8.37874
-8.37134
19508.4
19507.3
19508.5
19506.8
19505.7
19510.5
7.95606
7.88444
7.85753
7.774
7.76673
7.61399
-4.88821
-4.91847
-4.93151
-5.06096
-5.2899
-4.99402
19647.2
19647.4
19647.7
19646.9
19646.8
19648.8
7.91609
7.91806
7.92096
7.78417
7.74405
7.85045
-4.21347
-4.22063
-4.21928
-4.18505
-4.17126
-4.21449
19717.5
19717.6
19717.6
19718.6
19720.2
19716.5
219.404
219.828
219.195
223.824
230.734
212.837
-5.10645
-5.10711
-5.12099
-5.14745
-5.17452
-5.16267
19792.5
19792.7
19792.4
19793.4
19795.8
19790.8
328.094
331.08
326.727
338.241
353.313
312.242
-4.051
-4.03684
-4.05318
-4.0408
-4.03499
-4.12178
19305.6
19309.2
19303.8
19320.6
19344.3
19280.1
7.24732
7.25833
7.25333
7.22452
7.32298
7.23882
-5.25939
-5.26153
-5.2539
-5.25486
-5.33737
-5.24284
15281.8
15280.9
15280.2
15289.6
15306.1
15266
1.97678
1.96583
1.96836
1.96516
1.93917
1.9959
-10.9214
-10.9217
-10.9194
-10.9288
-10.9559
-10.9269
13.5497
13.5497
13.5495
13.5492
13.5491
13.549
7.93525
7.93528
7.93518
7.93502
7.93487
7.9348
2.57674
2.57676
2.57671
2.57661
2.5765
2.5764
13.2809
13.2808
13.2806
13.2804
13.2802
13.2801
7.68
7.67992
7.67982
7.6797
7.6796
7.6795
2.4716
2.47155
2.4715
2.47143
2.47136
2.47128
12.433
12.4329
12.4328
12.4325
12.4323
12.4321
7.01267
7.01265
7.01266
7.01267
7.01267
7.01263
2.2181
2.21812
2.21818
2.21824
2.21829
2.21833
10.3541
10.3543
10.3544
10.3543
10.3542
10.3543
5.57801
5.57826
5.57858
5.57893
5.57917
5.57929
1.69144
1.69164
1.69185
1.69207
1.69221
1.6923
6.47606
6.47772
6.47956
6.48107
6.48251
6.48478
3.45548
3.45639
3.45761
3.4589
3.46
3.46061
1.07748
1.07777
1.07814
1.07851
1.07883
1.07885
-1.14898
-1.14187
-1.13332
-1.12356
-1.11909
-1.1081
-0.63373
-0.631212
-0.628178
-0.624486
-0.621782
-0.619187
-0.292923
-0.292323
-0.291573
-0.290662
-0.289801
-0.289159
-11.5686
-11.5491
-11.523
-11.498
-11.4958
-11.4483
-5.77478
-5.77004
-5.76451
-5.75777
-5.75306
-5.74751
-1.73838
-1.73724
-1.73548
-1.7336
-1.73092
-1.73115
-21.1281
-21.1015
-21.0751
-21.0384
-21.0375
-20.9585
-12.0979
-12.0914
-12.0857
-12.0781
-12.0764
-12.0559
-3.68589
-3.6839
-3.68152
-3.67892
-3.67492
-3.67301
-22.5536
-22.5427
-22.5494
-22.4989
-22.452
-22.5008
-16.1803
-16.1854
-16.166
-16.0961
-16.0503
-16.0985
-4.36328
-4.36215
-4.35265
-4.34699
-4.32342
-4.33531
-23.4495
-23.3927
-23.4881
-23.1867
-22.908
-23.3697
-17.4064
-17.4089
-17.4004
-17.3677
-17.316
-17.3605
-4.66229
-4.67726
-4.67453
-4.65895
-4.61936
-4.67976
-14.5596
-13.3905
-15.6353
-12.632
-10.1872
-17.4926
-11.2742
-11.305
-11.3421
-11.3326
-11.3382
-11.4001
-6.20562
-6.22729
-6.24049
-6.20623
-6.18357
-6.27305
10721.8
10727.8
10731.5
10693.6
10693.6
10755.7
0.474466
0.39396
0.274204
0.000901773
-0.272229
0.0736389
-17.5992
-17.6788
-17.7198
-17.349
-16.5523
-17.677
)
;

boundaryField
{
    seabed_topleft_surface
    {
        type            fixedFluxPressure;
        gradient        uniform 0;
        value           nonuniform List<scalar> 
72
(
4399.71
4399.76
4399.77
4399.77
4399.78
4399.76
4471.09
4471.13
4471.15
4471.13
4471.15
4471.14
4763.73
4763.75
4763.77
4763.76
4763.77
4763.78
5313.4
5313.41
5313.42
5313.41
5313.43
5313.45
6282.49
6282.51
6282.52
6282.52
6282.54
6282.56
8229.86
8229.89
8229.89
8229.9
8229.92
8229.94
12273.6
12273.5
12273.5
12273.5
12273.5
12273.6
17488.4
17488.4
17488.4
17488.4
17488.3
17488.3
21617.7
21617.8
21617.7
21617.7
21617.7
21617.7
25022
25021.7
25021.6
25021.5
25021.6
25021.9
28264.1
28263.9
28263.9
28263.9
28263.9
28264
30436
30436
30436
30436
30435.9
30436
)
;
    }
    seabed_topright_surface
    {
        type            fixedFluxPressure;
        gradient        uniform 0;
        value           nonuniform List<scalar> 
72
(
32.1585
32.1586
32.1586
32.1586
32.1586
32.1584
33.9283
33.9282
33.9283
33.9282
33.9281
33.9273
37.6627
37.6621
37.6625
37.6613
37.6627
37.6579
45.0829
45.0744
45.0855
45.0929
45.1143
45.0638
56.6303
56.5971
56.5959
56.5656
56.6092
56.4786
58.9449
58.9917
58.864
58.5632
58.5288
58.5027
60.6045
60.5967
60.4729
60.8576
61.3516
59.7023
204.157
203.385
202.327
205.796
206.264
199.013
881.023
877.351
885.339
887.561
881.349
898.191
128.147
131.092
133.376
110.943
85.4613
144.557
-209.104
-208.862
-208.853
-209.262
-209.487
-208.125
-220.675
-220.711
-220.919
-220.893
-219.961
-220.932
)
;
    }
    breakwater_top_surface
    {
        type            fixedFluxPressure;
        gradient        uniform 0;
        value           nonuniform List<scalar> 
36
(
19508.4
19507.3
19508.5
19506.8
19505.7
19510.5
19647.2
19647.4
19647.7
19646.9
19646.8
19648.8
19717.5
19717.6
19717.6
19718.6
19720.2
19716.5
19792.5
19792.7
19792.4
19793.4
19795.8
19790.8
19305.6
19309.2
19303.8
19320.6
19344.3
19280.1
15281.8
15280.9
15280.2
15289.6
15306.1
15266
)
;
    }
    breakwater_left_surface
    {
        type            fixedFluxPressure;
        gradient        uniform 0;
        value           nonuniform List<scalar> 
24
(
30436
30436
30436
30436
30435.9
30436
29446.2
29446.1
29446.1
29446.1
29445.9
29446.3
29105.6
29106.2
29106
29106.2
29107.1
29106
11316.8
11318.1
11318
11319.5
11321.3
11318.1
)
;
    }
    breakwater_right_surface
    {
        type            fixedFluxPressure;
        gradient        uniform 0;
        value           nonuniform List<scalar> 
24
(
-220.675
-220.711
-220.919
-220.893
-219.961
-220.932
-267.325
-267.485
-267.995
-269.598
-270.222
-268.138
-254.007
-254.259
-254.945
-255.976
-256.416
-255.869
6131.22
6145.15
6159.96
6113.54
5999.06
6218.96
)
;
    }
    water_front_surface
    {
        type            fixedFluxPressure;
        gradient        uniform 0;
        value           nonuniform List<scalar> 
186
(
4399.71
4471.09
4763.73
5313.4
6282.49
8229.86
12273.6
17488.4
21617.7
25022
28264.1
30436
3.5528
8.33888
19.4019
46.4587
89.5869
360.179
2699.45
13116.6
21016.3
22541.1
26856.3
29446.2
16.944
16.5219
19.4087
2.20666
-28.7889
1.6298
86.1019
2499.72
13368.5
22463.2
28665.3
29105.6
6.57912
5.48287
8.32205
-6.19573
-28.0462
-16.1817
31.9274
96.3491
5624.52
12154.6
12608
11316.8
32.1585
33.9283
37.6627
45.0829
56.6303
58.9449
60.6045
204.157
881.023
128.147
-209.104
-220.675
29.8477
31.3044
34.152
38.7516
44.1212
30.9561
-25.6128
-62.1495
227.966
173.501
-331.149
-267.325
25.1476
25.8063
26.7463
27.0154
24.0899
7.07495
-37.9572
-74.8228
-74.0561
713.929
1028.73
-254.007
19.3996
19.4101
18.9958
17.1475
11.9182
-1.08016
-24.6216
-47.2615
-46.7077
-35.1953
2407.97
6131.22
6.49761
2.79636
-0.198258
6.03892
3.03112
0.0760994
6.81184
3.78019
0.717215
-2.36078
2.31331
1.60203
-17.7304
0.51029
2.68603
-7.37147
1.41457
3.09642
-0.289279
-9.1361
-4.55404
-73.9786
-60.9571
-19.0253
-86.9846
-91.5798
-17.3343
-56.2322
-44.502
-13.7071
-45.1177
-26.4211
-7.27812
-23.8411
2.93847
-8.37262
19508.4
7.95606
-4.88821
19647.2
7.91609
-4.21347
19717.5
219.404
-5.10645
19792.5
328.094
-4.051
19305.6
7.24732
-5.25939
15281.8
1.97678
-10.9214
13.5497
7.93525
2.57674
13.2809
7.68
2.4716
12.433
7.01267
2.2181
10.3541
5.57801
1.69144
6.47606
3.45548
1.07748
-1.14898
-0.63373
-0.292923
-11.5686
-5.77478
-1.73838
-21.1281
-12.0979
-3.68589
-22.5536
-16.1803
-4.36328
-23.4495
-17.4064
-4.66229
-14.5596
-11.2742
-6.20562
10721.8
0.474466
-17.5992
)
;
    }
    water_back_surface
    {
        type            fixedFluxPressure;
        gradient        uniform 0;
        value           nonuniform List<scalar> 
186
(
4399.76
4471.14
4763.78
5313.45
6282.56
8229.94
12273.6
17488.3
21617.7
25021.9
28264
30436
3.55424
8.34087
19.4045
46.462
89.5916
360.192
2699.33
13116.4
21016.3
22541
26855.9
29446.3
16.9455
16.5233
19.4092
2.20645
-28.7896
1.62676
86.1069
2499.68
13369.3
22463
28664.8
29106
6.57953
5.48296
8.32204
-6.19603
-28.0469
-16.181
31.9285
96.4968
5628.4
12161
12612.8
11318.1
32.1584
33.9273
37.6579
45.0638
56.4786
58.5027
59.7023
199.013
898.191
144.557
-208.125
-220.932
29.8474
31.3033
34.1486
38.7353
44.0382
30.707
-25.6576
-61.3121
221.742
187.917
-319.026
-268.138
25.1468
25.8049
26.7426
27.0027
24.0523
7.09388
-37.301
-73.3577
-72.6288
704.205
1132.44
-255.869
19.3986
19.4087
18.9931
17.142
11.9143
-1.0143
-24.2383
-46.3636
-46.2484
-34.6339
2574.48
6218.96
6.497
2.79601
-0.197901
6.03827
3.03099
0.0762305
6.8119
3.78019
0.717168
-2.35996
2.31391
1.6023
-17.7276
0.511784
2.68667
-7.36874
1.41739
3.09851
-0.28935
-9.13331
-4.55113
-73.9771
-60.9614
-19.0291
-87.013
-91.5664
-17.3354
-56.2325
-44.5039
-13.7115
-45.1288
-26.4171
-7.27488
-24.0387
2.92312
-8.37134
19510.5
7.61399
-4.99402
19648.8
7.85045
-4.21449
19716.5
212.837
-5.16267
19790.8
312.242
-4.12178
19280.1
7.23882
-5.24284
15266
1.9959
-10.9269
13.549
7.9348
2.5764
13.2801
7.6795
2.47128
12.4321
7.01263
2.21833
10.3543
5.57929
1.6923
6.48478
3.46061
1.07885
-1.1081
-0.619187
-0.289159
-11.4483
-5.74751
-1.73115
-20.9585
-12.0559
-3.67301
-22.5008
-16.0985
-4.33531
-23.3697
-17.3605
-4.67976
-17.4926
-11.4001
-6.27305
10755.7
0.0736389
-17.677
)
;
    }
    water_left_surface
    {
        type            fixedFluxPressure;
        gradient        uniform 0;
        value           nonuniform List<scalar> 
42
(
4399.71
4399.76
4399.77
4399.77
4399.78
4399.76
3.5528
3.55314
3.55332
3.55376
3.55423
3.55424
16.944
16.9443
16.9446
16.9449
16.9453
16.9455
6.57912
6.57962
6.57971
6.57979
6.57987
6.57953
6.49761
6.49756
6.49745
6.49733
6.49716
6.497
2.79636
2.79628
2.79619
2.79611
2.79602
2.79601
-0.198258
-0.198235
-0.198139
-0.198085
-0.198042
-0.197901
)
;
    }
    water_right_surface
    {
        type            fixedFluxPressure;
        gradient        uniform 0;
        value           nonuniform List<scalar> 
42
(
32.1585
32.1586
32.1586
32.1586
32.1586
32.1584
29.8477
29.8478
29.8478
29.8477
29.8476
29.8474
25.1476
25.1476
25.1475
25.1472
25.147
25.1468
19.3996
19.3995
19.3993
19.399
19.3987
19.3986
13.5497
13.5497
13.5495
13.5492
13.5491
13.549
7.93525
7.93528
7.93518
7.93502
7.93487
7.9348
2.57674
2.57676
2.57671
2.57661
2.5765
2.5764
)
;
    }
    water_top_surface
    {
        type            totalPressure;
        rho             rho;
        psi             none;
        gamma           1;
        p0              uniform 0;
        value           nonuniform List<scalar> 
180
(
-2.29346
-2.29369
-2.29352
-2.29341
-2.29338
-2.29298
-2.00746
-2.00762
-2.00744
-2.00735
-2.00737
-2.00712
-1.26116
-1.26151
-1.26148
-1.26145
-1.26144
-1.26116
-0.278741
-0.278944
-0.278938
-0.278864
-0.278763
-0.278554
0
0
0
0
0
0
0
0
0
0
0
0
0
0
0
0
0
0
0
0
0
0
0
0
0
0
0
0
0
0
-1.31685
-1.31306
-1.31592
-1.31665
-1.31673
-1.31898
-3.80653
-3.8094
-3.80819
-3.81214
-3.82267
-3.79546
-8.14701
-8.17176
-8.16033
-8.16625
-8.19483
-8.1308
-5.18579
-5.31542
-5.30545
-5.21457
-5.31539
-5.32235
-2.28533
-2.26675
-2.2533
-2.31425
-2.35449
-2.19937
-0.65545
-0.667843
-0.655821
-0.699686
-0.755494
-0.619085
-10.1392
-10.1972
-10.0609
-10.3824
-10.7534
-9.71787
-13.8766
-13.9645
-13.8257
-14.0852
-14.5108
-13.4412
-7.84439
-7.87571
-7.84486
-7.89962
-7.97802
-7.75174
0
0
0
0
0
0
0
0
0
0
0
0
0
0
0
0
0
0
0
0
0
0
0
0
0
0
0
0
0
0
0
0
0
0
0
0
0
0
0
0
0
0
0
0
0
0
0
0
0
0
0
0
0
0
-5.71752
-5.73867
-5.7309
-5.69911
-5.67101
-5.74604
-6.41529
-6.47241
-6.48277
-6.37644
-6.43987
-6.46644
-1.10684
-1.05941
-1.1163
-0.944279
-0.543412
-1.19149
)
;
    }
}


// ************************************************************************* //
