/*--------------------------------*- C++ -*----------------------------------*\
| =========                 |                                                 |
| \\      /  F ield         | OpenFOAM: The Open Source CFD Toolbox           |
|  \\    /   O peration     | Version:  v1612+                                |
|   \\  /    A nd           | Web:      www.OpenFOAM.com                      |
|    \\/     M anipulation  |                                                 |
\*---------------------------------------------------------------------------*/
FoamFile
{
    version     2.0;
    format      ascii;
    class       surfaceScalarField;
    location    "4.4";
    object      phi;
}
// * * * * * * * * * * * * * * * * * * * * * * * * * * * * * * * * * * * * * //

dimensions      [0 3 -1 0 0 0 0];

internalField   nonuniform List<scalar> 
2916
(
-5.85903e-06
0.198271
-0.198265
-4.10697e-06
0.198274
-0.198275
-4.55504e-06
0.198273
-0.198272
2.70854e-06
0.198274
-0.198281
1.67282e-05
0.198273
-0.198287
0.19827
-0.198254
-1.42876e-06
0.364657
-0.166385
-3.62409e-06
0.364667
-0.166392
-3.0917e-06
0.364664
-0.166392
4.97051e-06
0.364666
-0.1664
1.54479e-05
0.364667
-0.166404
0.364658
-0.166372
1.44105e-06
0.497658
-0.133003
-2.87095e-06
0.497677
-0.133005
-1.21401e-06
0.497671
-0.133009
4.49232e-06
0.497673
-0.133013
8.40201e-06
0.497676
-0.133013
0.497661
-0.132995
3.27906e-06
0.600354
-0.102699
-1.21908e-06
0.600382
-0.102701
1.40487e-07
0.600373
-0.102704
2.2198e-06
0.600375
-0.102704
4.90359e-07
0.600379
-0.102702
0.600358
-0.102697
2.58531e-06
0.568208
0.0321439
-6.87024e-07
0.568242
0.0321432
-2.09514e-07
0.568232
0.032141
-1.84622e-06
0.568232
0.0321441
-5.70729e-06
0.568238
0.0321446
0.568211
0.0321415
1.23782e-06
0.291832
0.276374
-1.33178e-08
0.291872
0.276371
-1.05629e-06
0.291863
0.27637
-4.50608e-06
0.291863
0.276373
-7.79489e-06
0.29187
0.276371
0.291835
0.276368
4.62042e-07
-0.246736
0.538568
2.05145e-06
-0.246698
0.538569
-2.49372e-06
-0.2467
0.538567
-6.28109e-06
-0.246699
0.538565
-1.2307e-05
-0.246691
0.538567
-0.246737
0.53856
2.57724e-06
-0.864209
0.617471
7.00084e-06
-0.864197
0.617495
-8.73132e-07
-0.864176
0.617484
-8.55493e-06
-0.864176
0.617485
-1.80379e-05
-0.864172
0.617491
-0.864232
0.617477
1.11988e-05
-1.35269
0.488467
1.65723e-05
-1.3527
0.488496
9.56913e-06
-1.35266
0.48849
-3.14722e-06
-1.35266
0.488496
-2.41271e-05
-1.35266
0.48851
-1.35272
0.488465
7.41819e-05
-1.36719
0.0144238
3.06795e-05
-1.36722
0.0145602
1.49519e-05
-1.36717
0.0145309
-5.88105e-06
-1.36717
0.0145349
-6.25063e-05
-1.36718
0.0145735
-1.3672
0.0144212
9.37161e-05
-0.792173
-0.575106
2.00691e-05
-0.792157
-0.574985
-1.0636e-06
-0.792149
-0.575004
-1.6387e-05
-0.79215
-0.575008
-6.28819e-05
-0.792142
-0.574989
-0.792176
-0.575091
5.82906e-06
-0.792179
-1.72521e-05
-0.792134
-1.76877e-05
-0.792148
-1.11245e-05
-0.792157
-1.30582e-05
-0.79214
-0.792189
-7.45093e-05
1.51228
-1.71047
-2.12044e-05
1.51229
-1.71062
1.88184e-05
1.51229
-1.7106
5.7631e-05
1.51229
-1.71061
9.96934e-05
1.51231
-1.71064
1.5123
-1.71045
-5.10851e-05
3.14062
-1.79468
1.09903e-07
3.14066
-1.79481
3.79629e-05
3.14066
-1.7948
8.42382e-05
3.14066
-1.79481
0.000132153
3.14068
-1.79482
3.14069
-1.79463
-6.51174e-05
5.08923
-2.08154
-1.66079e-06
5.08924
-2.08165
4.09289e-05
5.08925
-2.08164
9.29681e-05
5.08924
-2.08165
0.000156643
5.08926
-2.08166
5.08933
-2.08148
-7.30275e-05
6.36805
-1.38145
-1.33189e-07
6.36807
-1.3816
-2.53961e-05
6.36817
-1.38159
4.78204e-05
6.36804
-1.38158
0.000157751
6.36802
-1.38157
6.36818
-1.38139
-1.33417e-05
4.6623
1.7379
4.37485e-06
4.66233
1.73786
-4.74757e-06
4.66243
1.73789
-3.06083e-05
4.6623
1.73791
-7.21581e-05
4.66229
1.73791
4.66232
1.73792
7.70696e-06
1.91167
3.027
6.42596e-06
1.91188
3.02682
3.06155e-05
1.91182
3.02695
-2.02476e-05
1.9118
3.02692
-8.91485e-05
1.91189
3.02685
1.91169
3.02691
4.81906e-05
0.127991
2.3222
-1.90725e-05
0.128079
2.32244
-8.42019e-06
0.128057
2.32232
-2.02434e-05
0.128067
2.32231
-0.000109611
0.128103
2.32244
0.127995
2.32214
6.5269e-05
-0.504893
1.25029
-2.8912e-06
-0.50486
1.2505
-1.61952e-05
-0.504853
1.25041
-2.19552e-05
-0.504848
1.25041
-7.40328e-05
-0.504832
1.25048
-0.504909
1.25031
7.47922e-05
-0.738603
0.722103
9.60882e-06
-0.738664
0.722366
1.20941e-05
-0.738616
0.722251
8.36458e-06
-0.738612
0.722263
-3.42866e-05
-0.738619
0.72234
-0.738632
0.722154
8.07026e-05
-0.75451
0.0302501
1.77273e-05
-0.754522
0.0304806
1.49957e-05
-0.754471
0.0303887
1.798e-05
-0.754486
0.0304054
6.30094e-06
-0.754497
0.0304632
-0.754505
0.0303005
0.000333921
-0.463669
-0.866281
2.55606e-05
-0.46357
-0.865628
-2.93466e-05
-0.463555
-0.865866
-1.95621e-06
-0.4636
-0.865921
-0.000108158
-0.463625
-0.865755
-0.463594
-0.866111
-8.75206e-05
-1.25576
-3.17527e-05
-1.25576
1.53177e-05
-1.25575
1.36431e-05
-1.25576
4.34366e-06
-1.25576
-1.25578
-2.30162e-05
-0.404799
-1.30565
6.49278e-06
-0.404715
-1.30594
3.14105e-05
-0.404736
-1.30589
3.3403e-05
-0.404722
-1.30589
2.98175e-05
-0.404687
-1.30595
-0.404776
-1.30564
-2.79426e-05
-0.642818
-1.55663
-4.34929e-06
-0.642666
-1.55688
1.53416e-06
-0.642695
-1.55684
7.77737e-06
-0.642693
-1.55684
3.64302e-05
-0.642652
-1.55688
-0.642764
-1.55661
-0.00011595
-0.526392
-2.19785
-5.91881e-05
-0.526352
-2.19802
-4.5239e-05
-0.526352
-2.198
-2.19066e-05
-0.526363
-2.19801
6.0986e-05
-0.526355
-2.19804
-0.526349
-2.19783
-0.000155399
1.25881
-3.16649
-0.000136607
1.25877
-3.16674
-0.000113406
1.25877
-3.16674
-7.78771e-05
1.25878
-3.16675
-1.6415e-05
1.25881
-3.1668
1.25882
-3.16658
1.24659e-05
2.66961
0.327095
-0.000127196
2.6699
0.326875
-0.000103286
2.66973
0.326911
-9.15502e-05
2.66974
0.326936
-0.00020399
2.66992
0.326913
2.66964
0.326901
0.000707389
1.16999
4.5259
-9.71448e-05
1.17202
4.52551
-2.08007e-05
1.17092
4.52569
3.7109e-05
1.17093
4.52567
-0.000471106
1.17168
4.5256
1.17061
4.52548
0.000280141
-1.47275
4.96467
-0.000134181
-1.47095
4.96581
-0.000107325
-1.47197
4.96518
-9.96959e-05
-1.47191
4.96514
-0.000371418
-1.4712
4.96559
-1.47225
4.96463
0.000132482
-1.28443
1.06183
2.5149e-05
-1.28357
1.06324
-4.75817e-07
-1.28399
1.06246
-3.36733e-05
-1.28403
1.06256
-0.000149595
-1.28379
1.06319
-1.28418
1.06208
0.000519314
-0.765043
0.2022
2.09312e-05
-0.76425
0.203541
-2.63318e-05
-0.764595
0.202899
2.23209e-05
-0.764665
0.20285
-0.000256469
-0.764475
0.2033
-0.764789
0.202509
0.000789494
-0.398738
-0.336845
1.81119e-05
-0.397726
-0.335272
-6.67883e-05
-0.398127
-0.335995
4.31962e-05
-0.398284
-0.336086
-0.000332536
-0.398083
-0.335553
-0.398343
-0.336478
0.000268474
-0.170027
-1.09526
-1.67737e-05
-0.169389
-1.09368
-5.49282e-05
-0.169608
-1.09435
2.75976e-05
-0.169741
-1.09455
-1.95811e-05
-0.169696
-1.0941
-0.169697
-1.09478
-0.000499061
-1.42529
-7.89433e-05
-1.42557
-4.37809e-05
-1.42539
1.22734e-05
-1.42555
0.000442579
-1.42588
-1.42503
1.57325e-05
0.0836447
-1.38931
2.18706e-05
0.0836728
-1.38961
1.05282e-05
0.0836803
-1.38956
3.21281e-06
0.0836777
-1.38956
-1.15002e-07
0.0836803
-1.38962
0.0836611
-1.38931
-5.49299e-07
0.061051
-1.53404
-2.35061e-06
0.0610923
-1.5343
-7.60663e-06
0.0610948
-1.53425
-1.17969e-05
0.0610934
-1.53425
-8.37002e-06
0.0610981
-1.53431
0.0610631
-1.53402
-6.04906e-05
-0.428614
-1.70813
-2.49269e-05
-0.42867
-1.70829
-2.54011e-05
-0.428634
-1.70827
-2.72881e-05
-0.428637
-1.70827
4.19651e-06
-0.428662
-1.70831
-0.428644
-1.70812
-0.00014025
-1.30456
-2.29041
-8.90366e-05
-1.30484
-2.29062
-8.04906e-05
-1.30477
-2.29061
-7.09502e-05
-1.30477
-2.29063
-1.77197e-05
-1.30484
-2.29067
-1.30472
-2.29052
-0.00017797
-0.529813
-0.44747
-0.000267634
-0.529948
-0.447931
-0.000255576
-0.529978
-0.447889
-0.000174849
-0.529995
-0.447919
-0.00012714
-0.529981
-0.447995
-0.53003
-0.447911
0.000554576
-0.726392
4.72192
-0.00048226
-0.724671
4.72127
-0.000395167
-0.725772
4.72139
-0.000163918
-0.725888
4.72133
-0.000516225
-0.725268
4.72124
-0.726177
4.72111
-0.000145875
-2.29937
6.5378
-8.9626e-05
-2.29815
6.53924
-0.000189746
-2.29892
6.53843
-4.95401e-05
-2.29919
6.53831
0.000313679
-2.29877
6.53873
-2.29929
6.53806
-0.00114239
-4.15756
2.92116
-5.01734e-05
-4.15817
2.92217
0.000207805
-4.15801
2.92128
-1.70003e-05
-4.15828
2.92187
3.22857e-05
-4.15839
2.92276
-4.15794
2.92077
-0.00109212
-2.13322
-1.82105
5.63843e-05
-2.13128
-1.8245
0.000475289
-2.13213
-1.8234
7.60552e-05
-2.1325
-1.82253
0.000298067
-2.13184
-1.82347
-2.13278
-1.82236
-0.00162814
-1.09847
-1.36997
2.24831e-05
-1.09543
-1.37277
0.000407754
-1.09682
-1.37169
6.15562e-05
-1.09705
-1.37119
0.000753416
-1.09598
-1.3721
-1.09789
-1.37062
-0.00218396
-0.615331
-1.57621
-0.000109298
-0.613413
-1.57777
8.15662e-05
-0.614342
-1.57701
2.02988e-05
-0.614243
-1.57729
0.00156755
-0.613436
-1.57819
-0.615206
-1.57589
-0.00107162
-2.03955
-0.00018547
-2.03987
-0.000427468
-2.03949
1.47715e-05
-2.04024
0.00169034
-2.04099
-2.03855
-4.54616e-05
-0.312456
0.312501
-7.63681e-05
-0.312481
0.312513
-8.06416e-05
-0.312513
0.312518
-6.50067e-05
-0.312539
0.312524
-2.82847e-05
-0.312565
0.312529
-0.31255
0.312522
-9.1151e-05
-0.663096
0.350732
-0.00016819
-0.663154
0.350752
-0.000161294
-0.663274
0.350755
-0.000140168
-0.663338
0.350779
-3.84921e-05
-0.663454
0.350789
-0.663357
0.35077
-0.000240475
-1.10729
0.444436
-0.000546852
-1.10731
0.44446
-0.000508596
-1.10781
0.444503
-0.000405998
-1.10801
0.444566
0.000194379
-1.10866
0.444603
-1.10773
0.444566
-0.000452319
-1.78828
0.681437
-0.00217309
-1.78662
0.681038
-0.00216443
-1.78976
0.681939
-0.00186743
-1.78977
0.681472
0.00256038
-1.79522
0.682135
-1.78773
0.682562
-0.000439571
-3.04402
1.25618
-0.0043006
-3.03742
1.25466
-0.00321755
-3.04727
1.25643
-0.0057135
-3.04349
1.25622
0.00576564
-3.06741
1.26071
-3.03863
1.25667
-0.000368342
-5.13244
2.08879
-0.0118974
-5.12009
2.0942
-0.0131567
-5.13397
2.08796
-0.0131418
-5.1389
2.09539
0.0131747
-5.18924
2.09552
-5.10362
2.07816
0.00726366
-7.13054
1.99084
-0.0268795
-7.11196
2.02602
-0.0755149
-7.09936
2.01403
-0.0495627
-7.14824
1.98339
0.0745678
-7.2176
1.90422
-7.01581
1.98676
0.00950565
-6.25387
-0.886174
-0.0010538
-6.25329
-0.84811
-0.0122814
-6.24751
-0.840623
-0.0389858
-6.1993
-0.922234
-0.0293292
-6.17343
-1.05382
-6.18757
-0.857576
0.000964504
-1.94056
-4.31428
0.0266554
-1.96563
-4.31336
0.140668
-2.02565
-4.33588
0.0264629
-1.78692
-4.29818
-0.245391
-1.58546
-4.31612
-2.09308
-4.33988
-0.0189711
2.42182
-4.3434
0.0285207
2.35115
-4.36426
0.186334
2.21938
-4.40285
0.0388744
2.62673
-4.26619
-0.328777
2.96521
-4.18302
2.01677
-4.43862
0.00564877
3.14282
-0.726649
0.0216441
3.10345
-0.768299
0.0258981
3.02935
-0.814213
-0.00650036
3.24494
-0.585802
-0.0317927
3.41663
-0.42612
2.89749
-0.912513
0.00420726
3.13861
-0.0211396
3.12879
-0.101622
3.10982
-0.0366363
3.17995
0.159694
3.2203
3.05718
-3.76828e-05
-0.317892
0.630432
-6.10768e-05
-0.317916
0.630455
-6.12501e-05
-0.317943
0.630463
-4.88842e-05
-0.31796
0.630472
-1.84548e-05
-0.317981
0.63048
-0.31796
0.630465
-7.04529e-05
-0.673258
0.706171
-0.000134023
-0.673303
0.706204
-0.000123529
-0.673418
0.706221
-0.000102783
-0.673448
0.706248
-9.13019e-06
-0.673547
0.706263
-0.673438
0.706239
-0.000191068
-1.11062
0.881993
-0.000391859
-1.11069
0.882045
-0.000293939
-1.11114
0.882128
-0.000277386
-1.11108
0.882185
0.000123409
-1.11157
0.882231
-1.11095
0.8822
-0.000441182
-1.68358
1.25484
-0.00142783
-1.68327
1.25461
-0.00124407
-1.68464
1.25526
-0.00122936
-1.68495
1.25532
0.00154057
-1.68833
1.25612
-1.68238
1.25553
-0.000830398
-2.45872
2.03215
-0.0035434
-2.45684
2.03096
-0.00678123
-2.45698
2.032
-0.00372376
-2.46705
2.03527
0.0101988
-2.48215
2.04061
-2.44682
2.03131
-0.00204729
-3.36541
2.99753
-0.00373822
-3.36322
3.00227
-0.0185329
-3.354
2.99978
-2.05265e-05
-3.39565
3.00548
0.0297373
-3.42242
3.00603
-3.3334
2.99448
0.00212319
-4.00041
2.62371
0.00177318
-3.99603
2.65917
-0.0287539
-3.97607
2.66662
0.0128151
-4.04932
2.5955
0.0547146
-4.07264
2.51254
-3.95355
2.66163
0.0135004
-4.61124
-0.288842
0.0169214
-4.61163
-0.235934
-0.0171612
-4.59589
-0.186724
0.0149856
-4.61269
-0.391019
0.0771011
-4.56178
-0.626794
-4.57972
-0.154309
0.00364688
-3.813
-5.11617
0.00348143
-3.8057
-5.11912
-0.0139738
-3.79973
-5.11458
0.00765325
-3.81487
-5.11762
0.0367082
-3.79857
-5.10839
-3.78627
-5.09662
-0.00483487
-2.75334
-5.39823
-0.00277914
-2.76486
-5.40716
-0.00839374
-2.78134
-5.41562
0.00962792
-2.71961
-5.37947
0.0182608
-2.63302
-5.3572
-2.78047
-5.42616
0.00108382
-0.567497
-2.91357
-0.0216679
-0.582345
-2.92807
-0.097865
-0.579055
-2.9403
-0.0147021
-0.537314
-2.85126
0.143449
-0.473536
-2.74375
-0.585344
-2.96419
-0.0107203
2.58184
-0.0470692
2.58279
-0.0745438
2.55824
-0.0426814
2.61077
0.0413279
2.66277
2.51316
-1.70481e-05
-0.24375
0.8742
-2.47564e-05
-0.243766
0.874231
-2.2035e-05
-0.243775
0.874237
-1.61223e-05
-0.243776
0.874244
-1.7159e-06
-0.243783
0.874249
-0.243761
0.874224
-2.23315e-05
-0.495379
0.957823
-4.23986e-05
-0.495399
0.957859
-3.16658e-05
-0.495435
0.957872
-2.34867e-05
-0.495421
0.957885
2.42161e-05
-0.495463
0.957896
-0.49536
0.957863
-3.48131e-05
-0.753232
1.13988
-7.02908e-05
-0.753248
1.13993
-2.41717e-05
-0.753319
1.13997
-1.29737e-05
-0.753237
1.13999
0.000170327
-0.753438
1.14002
-0.752946
1.13996
-2.92045e-05
-0.958545
1.46018
-6.10198e-05
-0.958774
1.46017
3.98729e-05
-0.958539
1.46038
-2.04503e-05
-0.958168
1.46032
0.000800472
-0.958745
1.46061
-0.956928
1.46031
0.000107095
-0.925266
1.99876
0.000429519
-0.926587
1.99845
-0.000482964
-0.924345
1.99872
0.000395029
-0.923045
1.99927
0.00442239
-0.923221
2.00106
-0.918981
1.99779
-0.000244989
-0.578455
2.65097
0.00449223
-0.581705
2.65265
0.0033196
-0.574018
2.65063
0.00881302
-0.574993
2.65193
0.00672131
-0.56775
2.65265
-0.563924
2.64614
0.00049653
-0.384514
2.42927
0.0197463
-0.385066
2.44328
0.0443755
-0.374096
2.44207
0.0425695
-0.392404
2.41471
-0.0156375
-0.382537
2.38554
-0.357868
2.43994
0.0100791
-1.19121
0.507775
0.0478416
-1.1896
0.530841
0.130722
-1.18302
0.53932
0.100025
-1.2182
0.465473
-0.10525
-1.21475
0.410694
-1.17326
0.555832
0.00140423
-2.98412
-3.32466
-0.00110923
-2.98253
-3.32368
-0.00383922
-2.97885
-3.31603
-0.00842946
-2.99445
-3.33678
-0.00103771
-2.98797
-3.34257
-2.96804
-3.30288
-0.0008176
-3.47081
-4.91072
-0.00352021
-3.4718
-4.91519
-0.0184564
-3.47047
-4.90907
-0.00717418
-3.47663
-4.90858
0.0338178
-3.48285
-4.90332
-3.45895
-4.90144
-0.00271934
-2.50538
-3.87629
-0.0106476
-2.51023
-3.88171
-0.0335682
-2.50425
-3.8836
-0.0122752
-2.485
-3.86419
0.0488741
-2.4466
-3.84115
-2.48299
-3.89128
-0.0174512
0.093912
-0.040002
0.0951288
-0.055228
0.0692166
-0.046494
0.11704
-0.0081213
0.177789
0.0220496
-1.2183e-06
-0.16867
1.04287
1.48361e-06
-0.168678
1.04291
5.55902e-06
-0.168676
1.04291
6.59961e-06
-0.16867
1.04291
7.88794e-06
-0.168667
1.04291
-0.168648
1.04288
8.53783e-06
-0.321547
1.11069
1.73153e-05
-0.321558
1.11073
2.81636e-05
-0.321549
1.11073
2.57326e-05
-0.321516
1.11073
3.13101e-05
-0.321512
1.11073
-0.321448
1.11069
4.88553e-05
-0.430107
1.24839
9.19447e-05
-0.430104
1.24843
0.000125387
-0.430047
1.24843
0.000106826
-0.429927
1.24842
0.000127583
-0.429932
1.24842
-0.429719
1.24836
0.000183437
-0.423579
1.45347
0.000394834
-0.423646
1.4535
0.000517678
-0.423278
1.45349
0.000369336
-0.42286
1.4534
0.000370707
-0.42275
1.45343
-0.422313
1.45328
0.000510915
-0.127688
1.70236
0.0014387
-0.128444
1.70232
0.00169644
-0.127041
1.70222
0.00127602
-0.125099
1.70192
0.000895465
-0.123487
1.70217
-0.125153
1.70152
0.000938884
0.583133
1.9392
0.00437965
0.581434
1.93933
0.00543537
0.584015
1.93851
0.00531375
0.588812
1.93814
0.00108135
0.594851
1.93854
0.585746
1.93632
0.000621607
1.27211
1.73967
0.011345
1.27146
1.74254
0.022464
1.27552
1.73945
0.0177166
1.27174
1.73653
-0.0108514
1.2763
1.73265
1.27837
1.73647
-0.000519897
1.0136
0.766804
0.0142982
1.01383
0.773644
0.0390372
1.01853
0.771567
0.0179196
1.00163
0.756695
-0.0418625
1.00086
0.745919
1.0196
0.772738
-0.00238148
-0.936918
-1.37176
0.00299116
-0.94756
-1.36767
0.00962871
-0.944828
-1.35931
-0.00268325
-0.940812
-1.38203
-0.0143095
-0.93917
-1.39091
-0.94408
-1.35351
-0.00430637
-2.84008
-3.00325
-0.00803846
-2.84797
-3.01105
-0.0115393
-2.84262
-3.00778
-0.0134382
-2.84979
-2.99771
0.00387227
-2.86745
-2.99235
-2.8256
-3.01605
-0.00153616
-2.66644
-4.0484
-0.0066176
-2.67162
-4.05298
-0.0208375
-2.66154
-4.05045
-0.00683352
-2.67705
-4.05093
0.0282536
-2.6931
-4.05058
-2.63555
-4.05307
-0.00343958
-2.56909
-0.00498077
-2.57495
-0.0296725
-2.56764
-0.0134277
-2.57625
0.0461344
-2.57487
-2.56737
5.01039e-05
-1.31003
-0.0793249
1.94208e-05
-1.31022
-0.0793616
5.15441e-06
-1.31019
-0.0793546
-1.17761e-05
-1.31019
-0.0793546
-4.98352e-05
-1.31022
-0.0793605
-1.31003
-0.0793224
3.85143e-05
-1.18397
-0.126103
1.1008e-05
-1.18409
-0.126101
-2.36881e-06
-1.18407
-0.1261
-1.59358e-05
-1.18408
-0.126099
-4.33613e-05
-1.1841
-0.126097
-1.18398
-0.126098
2.534e-05
-0.0267305
6.94975e-06
-0.0267298
-2.66308e-06
-0.0267302
-1.1183e-05
-0.0267304
-2.78663e-05
-0.0267299
-0.026731
1.95224e-05
-1.34819
-0.26519
3.56822e-06
-1.34836
-0.265283
-7.03077e-06
-1.34833
-0.265263
-1.81055e-05
-1.34833
-0.265265
-3.85658e-05
-1.34837
-0.265281
-1.34819
-0.265189
2.99276e-05
-1.12245
-0.351876
6.46347e-06
-1.12257
-0.351869
-6.91824e-06
-1.12255
-0.351868
-1.92027e-05
-1.12255
-0.351867
-4.14355e-05
-1.12258
-0.351865
-1.12246
-0.351866
2.21526e-05
-0.0668009
5.28031e-06
-0.0667974
-3.67419e-06
-0.0667977
-1.14487e-05
-0.0667975
-2.62558e-05
-0.0667962
-0.0668002
-2.74774e-05
-1.28512
-0.688169
-2.6439e-06
-1.28525
-0.688347
-6.56522e-06
-1.28524
-0.688289
-1.88902e-05
-1.28524
-0.688286
-1.84923e-05
-1.28527
-0.688319
-1.28512
-0.688211
1.72134e-05
-0.94687
-0.690143
2.4879e-06
-0.946971
-0.69014
-1.24764e-05
-0.946963
-0.690133
-2.30798e-05
-0.946967
-0.690132
-3.62352e-05
-0.94699
-0.690134
-0.946885
-0.690135
1.72009e-05
-0.15578
3.17438e-06
-0.155768
-5.6047e-06
-0.155769
-1.29927e-05
-0.155769
-2.73993e-05
-0.155766
-0.155779
-0.000100233
-1.31035
-1.66813
1.59436e-06
-1.31048
-1.66858
1.31871e-06
-1.31048
-1.66843
-1.34393e-05
-1.31047
-1.66843
1.37311e-05
-1.31048
-1.66853
-1.31036
-1.66836
-2.30563e-05
-0.63054
-1.36993
5.61317e-06
-0.630612
-1.37004
-8.76458e-06
-0.630614
-1.36998
-1.8844e-05
-0.63061
-1.36998
-1.47421e-05
-0.630621
-1.37
-0.630523
-1.36998
7.33275e-06
-0.390139
-1.36008e-06
-0.390117
-1.03677e-05
-0.390119
-1.55836e-05
-0.390117
-2.57796e-05
-0.390111
-0.390137
-9.12645e-05
-0.174042
-1.94146
-6.37203e-05
-0.174482
-1.94206
-7.48893e-05
-0.174421
-1.94188
-5.2858e-05
-0.174443
-1.94193
1.25655e-05
-0.174524
-1.94206
-0.174343
-1.94192
3.82055e-05
0.316187
-1.8602
8.18602e-05
0.316057
-1.86062
5.87164e-05
0.316069
-1.86045
4.39028e-05
0.316075
-1.86048
2.83666e-05
0.316058
-1.86057
0.316173
-1.86047
1.20982e-05
-0.6955
1.29187e-05
-0.695573
-2.06156e-06
-0.695538
-9.52882e-06
-0.695542
-2.59539e-05
-0.695549
-0.695568
0.000406041
3.3903
-0.610241
-0.000281915
3.38969
-0.609795
-0.000284715
3.38976
-0.610238
-0.000186314
3.38967
-0.610359
-0.000320259
3.38953
-0.610227
3.38968
-0.610802
0.000284546
2.16814
-0.638326
0.000106516
2.16786
-0.638622
6.81085e-05
2.16788
-0.638545
5.96399e-05
2.16785
-0.638661
-3.52361e-05
2.16779
-0.638725
2.16796
-0.638789
4.98792e-05
-0.265799
9.85126e-05
-0.266087
6.38169e-05
-0.265969
4.43939e-05
-0.266027
1.66797e-05
-0.266075
-0.266032
-0.000480652
6.46374
-0.535698
-0.0001387
6.46505
-0.53595
-6.45162e-05
6.46425
-0.536137
-5.06235e-05
6.46403
-0.536091
0.000229271
6.46429
-0.536071
6.46408
-0.536595
-3.15975e-05
4.49502
1.33042
0.000160068
4.49575
1.33048
0.00012111
4.4954
1.33035
-6.39365e-05
4.49526
1.33029
-0.000102979
4.49535
1.33026
4.49542
1.32977
0.0002123
1.31266
0.000174604
1.31309
0.000140067
1.31289
8.30365e-05
1.31275
-2.91393e-05
1.31283
1.31262
-0.000144229
4.51589
-2.13028
-0.000132517
4.51724
-2.13103
-0.000184278
4.51635
-2.13115
-0.000297139
4.51657
-2.13067
-0.000550182
4.51718
-2.13024
4.51588
-2.13226
-0.000206046
4.49303
1.35348
4.0645e-05
4.49538
1.3521
-0.000162707
4.49439
1.35251
-0.000218553
4.49432
1.3526
-1.35275e-05
4.49479
1.35245
4.49443
1.35121
-0.000479188
2.19963
1.6686e-05
2.19923
-4.10886e-05
2.19933
-0.000226632
2.19934
4.62467e-06
2.19913
2.1988
0.00111067
-0.308199
-3.64424
-0.000131052
-0.31053
-3.64376
-4.77673e-05
-0.309855
-3.64477
-0.00022023
-0.309336
-3.64369
-0.00182374
-0.309958
-3.64215
-0.309418
-3.64702
0.00289777
1.15449
-0.112107
0.000197875
1.15641
-0.112149
-0.000498667
1.1556
-0.112246
-0.000307369
1.15548
-0.112409
-0.00147951
1.15576
-0.112096
1.15469
-0.114377
0.000456401
1.84563
9.87865e-05
1.84452
1.49225e-05
1.84484
-8.84007e-05
1.84502
-0.000245372
1.84468
1.84395
-0.00128084
-1.83032
-3.1826
-0.000229703
-1.83571
-3.18187
0.000101557
-1.83394
-3.18285
6.92436e-05
-1.833
-3.18185
0.000640518
-1.83421
-3.18061
-1.83253
-3.18447
0.00213699
-1.22666
-0.717912
-0.000379564
-1.22875
-0.716587
-0.00030253
-1.22867
-0.7176
-0.000129027
-1.22809
-0.717495
-0.00104757
-1.22837
-0.717021
-1.22889
-0.719062
0.00105829
1.48163
-0.000229308
1.47954
-0.00069514
1.48009
-4.40615e-05
1.48
0.00177012
1.47822
1.48135
-0.000545844
-3.03672
-1.72154
0.000235967
-3.03927
-1.72116
-0.000208753
-3.03785
-1.72157
-6.21059e-06
-3.03817
-1.72118
0.00254057
-3.04052
-1.72083
-3.0357
-1.72212
0.000605644
-2.28066
-1.47458
0.000669293
-2.28229
-1.47363
0.00177308
-2.28153
-1.47503
0.00098302
-2.28181
-1.47307
-0.0017302
-2.28406
-1.47077
-2.27909
-1.47741
0.000423992
0.694044
-0.000143773
0.691814
-0.000519855
0.692707
0.000317671
0.691892
0.00196774
0.689062
0.695625
-0.000318916
-2.39193
-1.36885
0.00027924
-2.39295
-1.36867
0.000395631
-2.3924
-1.36877
-0.000389413
-2.39198
-1.36865
0.000385585
-2.39422
-1.36839
-2.39124
-1.36904
-0.000238482
-2.91568
-0.950586
0.000539458
-2.91854
-0.948816
0.00271186
-2.91706
-0.952543
0.000949051
-2.91771
-0.945579
-0.00570836
-2.92236
-0.935969
-2.91313
-0.961234
0.000645849
-0.00545064
8.97787e-05
-0.00616986
-5.43328e-07
-0.00573188
9.91731e-05
-0.00660612
-0.00114104
-0.00898252
-0.00389043
-0.000824019
-0.756193
-1.55246
2.30948
-0.000593814
-0.76236
-1.55161
2.31374
-0.00123507
-0.760432
-1.55113
2.3122
-0.000255871
-0.757678
-1.55286
2.30956
0.00299132
-0.758191
-1.55319
2.30814
-0.762055
-1.54951
2.31456
-0.000510328
-0.790443
-1.60774
1.6425
-0.00030857
-0.802848
-1.60182
1.6421
-0.00110388
-0.800703
-1.60455
1.64562
0.00223157
-0.793569
-1.61139
1.64394
0.0222282
-0.800107
-1.61408
1.636
-0.802334
-1.60791
1.67042
-0.00413499
-0.218658
0.52614
0.0021028
-0.213675
0.511159
0.0137456
-0.214402
0.507632
0.00143136
-0.223307
0.538764
-0.0213879
-0.228579
0.558321
-0.213244
0.49642
-0.000239525
-0.40665
-1.14557
-0.000323688
-0.405861
-1.14567
-0.000773434
-0.404957
-1.14572
1.57147e-05
-0.408547
-1.1451
0.00183225
-0.410849
-1.14416
-0.401085
-1.14659
-0.00283452
-0.498258
-1.51329
-0.000177272
-0.495892
-1.51444
0.000877752
-0.493863
-1.5167
0.00110621
-0.50441
-1.51576
0.00559095
-0.511901
-1.51751
-0.48514
-1.51827
-0.000770674
0.021548
0.00236321
0.0221908
0.00558364
0.021335
0.00164047
0.0179639
-0.00597778
0.0148158
0.0199951
-0.000145245
-0.309105
-0.836321
-0.000199296
-0.309389
-0.836222
-0.000384435
-0.309251
-0.836288
-7.48734e-05
-0.309588
-0.835824
0.000980187
-0.309926
-0.835291
-0.309076
-0.836535
-0.001823
-0.441463
-1.37911
-0.00250269
-0.443659
-1.37949
-0.00786254
-0.441393
-1.3792
-0.000866835
-0.450611
-1.38173
0.0193858
-0.462405
-1.38529
-0.432722
-1.37523
6.79338e-05
-0.0321174
0.000493331
-0.0304963
-5.58976e-05
-0.0313835
0.00112173
-0.0338641
0.00263569
-0.0346647
-0.0317716
-2.97799e-05
-0.35963
-0.476661
-9.94361e-05
-0.359369
-0.476784
-7.53176e-05
-0.359734
-0.476579
-0.000158293
-0.358882
-0.476859
-7.59832e-05
-0.357835
-0.477538
-0.360984
-0.475628
-0.0027271
-1.30825
-0.427766
-0.00211832
-1.31069
-0.428781
-0.00943788
-1.3043
-0.427315
-0.000888431
-1.31922
-0.429937
0.0252219
-1.33631
-0.43292
-1.28774
-0.423259
-0.00128773
0.125254
7.70594e-05
0.125503
-0.00141873
0.124812
-0.000314832
0.126064
0.00551927
0.127603
0.122248
-0.000153379
-0.490417
0.0139086
-0.000121976
-0.490652
0.0138365
-0.00064244
-0.489972
0.0139141
-9.16616e-05
-0.491221
0.0138111
0.00156232
-0.492635
0.0134429
-0.488293
0.0142281
-0.00425894
-1.63769
0.723766
-0.00314875
-1.64259
0.722046
-0.0129004
-1.63437
0.726831
-0.00333804
-1.64844
0.717723
0.0408769
-1.67604
0.706273
-1.60863
0.737958
-0.000432474
0.237019
-0.000516847
0.237328
-0.0012856
0.237126
0.000215666
0.237615
0.000806739
0.238277
0.236819
-0.000229689
-1.35471
-0.000122298
-1.35494
-0.000297869
-1.35468
-3.49028e-05
-1.3551
0.000695067
-1.35567
-1.35412
-0.00103703
-1.58049
-0.000463452
-1.58229
-0.000372751
-1.58049
-4.73033e-05
-1.58328
0.00200857
-1.58743
-1.57538
-0.000330526
-0.000348961
-0.000832943
-3.08739e-05
0.00131815
4.88022e-06
1.13163
-0.088764
1.01034e-05
1.13167
-0.0887685
1.29353e-05
1.13167
-0.0887642
1.16032e-05
1.13167
-0.0887581
7.87146e-06
1.13167
-0.0887539
1.13163
-0.0887428
4.1533e-06
1.18131
-0.0496834
8.33827e-06
1.18136
-0.0496865
9.3114e-06
1.18135
-0.0496834
7.90032e-06
1.18135
-0.0496802
4.77903e-06
1.18135
-0.0496775
1.18131
-0.049671
1.18446e-06
-0.0177311
1.91108e-06
-0.0177324
1.69075e-06
-0.0177311
1.24104e-06
-0.01773
9.04379e-07
-0.017729
-0.0177264
1.59851e-05
1.17718
-0.15527
2.94217e-05
1.17722
-0.155277
3.65016e-05
1.17722
-0.155262
3.16932e-05
1.17722
-0.15524
2.25585e-05
1.17722
-0.155227
1.17717
-0.155197
1.10347e-05
1.21208
-0.0845878
1.9354e-05
1.21212
-0.0845933
2.25427e-05
1.21212
-0.0845843
1.96769e-05
1.21212
-0.084575
1.23461e-05
1.21211
-0.0845665
1.21206
-0.0845524
3.79579e-06
-0.0304678
5.75948e-06
-0.030471
6.24804e-06
-0.030468
5.39078e-06
-0.0304655
3.15099e-06
-0.0304624
-0.0304574
5.23471e-05
1.26237
-0.169301
9.55378e-05
1.26241
-0.169301
0.000116629
1.2624
-0.169255
9.80907e-05
1.26239
-0.169188
7.04819e-05
1.26238
-0.169156
1.26232
-0.169092
3.03035e-05
1.26394
-0.0861827
5.48315e-05
1.26398
-0.0861888
6.35079e-05
1.26397
-0.0861642
5.46975e-05
1.26396
-0.0861425
3.27788e-05
1.26395
-0.0861192
1.2639
-0.0860985
9.53661e-06
-0.0320984
1.76022e-05
-0.0321029
1.94088e-05
-0.0320951
1.72035e-05
-0.0320908
9.02988e-06
-0.0320822
-0.0320751
0.000152657
1.36909
-0.0850703
0.000290633
1.36913
-0.0850679
0.000345848
1.36909
-0.0849152
0.000278424
1.36904
-0.0847621
0.000188174
1.36902
-0.0846616
1.36892
-0.084554
7.68765e-05
1.31509
-0.0322654
0.000144982
1.31514
-0.0322722
0.000160229
1.31511
-0.0322033
0.000141861
1.31509
-0.0321727
8.50366e-05
1.31506
-0.0321076
1.31499
-0.0320803
2.1575e-05
-0.0141845
4.40273e-05
-0.0141922
4.63317e-05
-0.0141692
4.39137e-05
-0.0141664
2.34305e-05
-0.0141405
-0.0141343
0.000350638
1.45205
0.164886
0.000770695
1.45209
0.164739
0.000917044
1.45198
0.165182
0.000695978
1.45184
0.165542
0.000359285
1.45181
0.16603
1.45163
0.165694
0.000167463
1.32838
0.0912404
0.000330759
1.32843
0.0912211
0.000367424
1.32836
0.091384
0.000309535
1.3283
0.091426
0.000210612
1.32824
0.0915627
1.32814
0.0916194
4.63997e-05
0.0165998
9.15235e-05
0.0165904
9.85304e-05
0.0166368
8.74446e-05
0.0166486
7.75728e-05
0.0166708
0.0167406
0.00062056
1.46287
0.6406
0.00176725
1.46291
0.640002
0.00199011
1.46265
0.640819
0.0016528
1.4623
0.641713
0.00037946
1.46234
0.643506
1.46186
0.64054
0.000269865
1.2338
0.320042
0.000663602
1.23387
0.319869
0.000656198
1.2337
0.320345
0.000593774
1.2336
0.320196
0.000207327
1.23346
0.32083
1.23338
0.320307
7.52742e-05
0.103552
0.000178488
0.103514
0.000165711
0.103655
0.0001648
0.103597
5.90502e-05
0.103735
0.103743
0.000553423
1.26399
1.11573
0.00431539
1.26437
1.1144
0.00636459
1.2634
1.11482
0.00446512
1.26256
1.11758
-0.00310178
1.26261
1.12111
1.26178
1.11213
0.00045168
1.03003
0.553552
0.00179572
1.0302
0.552694
0.00231041
1.02983
0.553398
0.00136973
1.02926
0.554443
-0.000576454
1.02925
0.556136
1.02896
0.55255
0.000155424
0.13671
0.000467718
0.136531
0.000575531
0.136799
0.000345703
0.136814
0.00033375
0.136852
0.137125
-5.97628e-07
0.840229
1.0423
0.0053525
0.842213
1.04048
0.00804131
0.840009
1.04369
0.00536178
0.83724
1.03971
-0.0117452
0.836075
1.04806
0.838127
1.03499
0.000802741
0.52149
0.871486
0.00252604
0.522256
0.870928
0.00299729
0.521073
0.871862
0.00210524
0.520748
0.871826
-0.00629988
0.52118
0.879435
0.51996
0.864416
0.000294325
0.348725
0.000827182
0.348392
0.00131012
0.348483
0.000533446
0.349508
-0.00201312
0.352001
0.346513
-0.00388002
-0.0846568
-0.240929
0.0068707
-0.0844845
-0.253453
0.0175142
-0.083725
-0.242547
0.00514771
-0.084718
-0.24523
-0.0225117
-0.0808474
-0.234342
-0.0898665
-0.251163
0.00157702
0.303485
0.481768
0.00445257
0.303645
0.479923
0.00507369
0.302248
0.485267
0.00344667
0.304393
0.484341
-0.00563088
0.307102
0.500562
0.2977
0.47122
-8.48504e-05
0.292783
0.00115606
0.291468
0.00344326
0.291116
0.000831532
0.295546
-0.00270039
0.298906
0.288938
-0.00527669
-1.62259
-1.61632
0.00118598
-1.63195
-1.63902
0.00564289
-1.63495
-1.61983
-0.00231962
-1.60864
-1.62634
-0.0108735
-1.58961
-1.62853
-1.66122
-1.61687
0.00109849
-1.72309
0.581165
-0.00239942
-1.73022
0.581688
-0.00350406
-1.73123
0.582646
0.00314945
-1.71354
0.582592
0.0106054
-1.69637
0.599869
-1.75034
0.570947
0.00246793
0.361845
-0.00110603
0.362726
-0.00790608
0.363377
0.00192251
0.364061
0.0280964
0.363721
0.366056
0.000735538
-1.95667
-3.70877
0.0046364
-1.96797
-3.72793
0.010631
-1.96991
-3.70636
-0.000773561
-1.9418
-3.72406
-0.00887678
-1.93886
-3.73214
-1.98107
-3.69774
-0.0128792
-1.71845
0.355821
-0.00818476
-1.72887
0.337897
0.00408928
-1.73199
0.332445
-0.0178477
-1.70687
0.369595
-0.0425157
-1.72228
0.407955
-1.73032
0.277678
0.0029199
0.566639
-0.00659885
0.57799
-0.0235975
0.584534
-0.00409432
0.558069
0.0275817
0.539319
0.59721
0.0033514
-3.97174
0.00266793
-3.98846
0.0103091
-3.96943
0.00770308
-3.98814
-0.00268921
-3.98848
-3.95324
0.0310887
-2.00451
0.031132
-2.0085
0.0524024
-2.01264
0.0525197
-1.97472
-0.0141465
-1.87786
-2.01929
0.0250482
0.0254722
0.0450982
0.042888
-0.0398383
)
;

boundaryField
{
    seabed_topleft_surface
    {