/*--------------------------------*- C++ -*----------------------------------*\
| =========                 |                                                 |
| \\      /  F ield         | OpenFOAM: The Open Source CFD Toolbox           |
|  \\    /   O peration     | Version:  v1612+                                |
|   \\  /    A nd           | Web:      www.OpenFOAM.com                      |
|    \\/     M anipulation  |                                                 |
\*---------------------------------------------------------------------------*/
FoamFile
{
    version     2.0;
    format      ascii;
    class       volVectorField;
    location    "4.4";
    object      U;
}
// * * * * * * * * * * * * * * * * * * * * * * * * * * * * * * * * * * * * * //

dimensions      [0 1 -1 0 0 0 0];

internalField   nonuniform List<vector> 
1116
(
(0.185999 -5.28079e-06 -0.208616)
(0.185998 -3.44748e-06 -0.208625)
(0.185999 -5.54391e-06 -0.208614)
(0.186 -5.53255e-06 -0.208612)
(0.185999 1.27244e-05 -0.208623)
(0.185998 1.53883e-05 -0.20861)
(0.571161 2.05534e-07 -0.339596)
(0.571171 -2.00407e-06 -0.339612)
(0.571167 -5.21659e-06 -0.339594)
(0.57117 -2.66493e-06 -0.33959)
(0.57117 1.46558e-05 -0.339607)
(0.57116 1.22691e-05 -0.339594)
(0.865908 5.0922e-06 -0.320184)
(0.865935 -1.09904e-06 -0.320205)
(0.865926 -3.74908e-06 -0.320186)
(0.865931 2.61819e-07 -0.320181)
(0.865933 1.03095e-05 -0.3202)
(0.86591 4.84466e-06 -0.32019)
(1.09231 7.35039e-06 -0.24122)
(1.09236 2.36458e-07 -0.241246)
(1.09234 -2.07339e-06 -0.241228)
(1.09235 1.91882e-06 -0.241224)
(1.09235 3.42071e-06 -0.241242)
(1.09232 -2.14869e-06 -0.241232)
(1.2124 6.24526e-06 -0.163737)
(1.21247 -3.17147e-08 -0.163764)
(1.21245 -1.54491e-06 -0.163749)
(1.21245 8.93305e-07 -0.163747)
(1.21246 -3.81452e-06 -0.163764)
(1.21241 -6.83834e-06 -0.163749)
(0.950998 3.1587e-06 -0.0564865)
(0.951068 6.31875e-07 -0.0565078)
(0.951049 -1.43275e-06 -0.056497)
(0.951049 -6.61549e-07 -0.0564952)
(0.951061 -7.26073e-06 -0.0565078)
(0.951 -7.00252e-06 -0.0564931)
(0.175147 -4.03671e-06 0.208979)
(0.175226 4.28738e-06 0.208978)
(0.17521 2.75348e-07 0.20898)
(0.175211 -3.90294e-06 0.208982)
(0.175226 -1.17879e-05 0.208977)
(0.175154 -7.61128e-06 0.208986)
(-0.952519 -4.15555e-06 0.590641)
(-0.952453 1.09567e-05 0.590671)
(-0.952444 1.80544e-07 0.590655)
(-0.952442 -6.52357e-07 0.590657)
(-0.952428 -1.92343e-05 0.59066)
(-0.95253 -1.25696e-05 0.59066)
(-2.30265 7.8946e-06 0.47527)
(-2.30264 2.05769e-05 0.475322)
(-2.30257 4.75172e-06 0.475312)
(-2.30257 1.6973e-05 0.475317)
(-2.30256 -2.28994e-05 0.475336)
(-2.30272 -2.55214e-05 0.475265)
(-3.16387 7.79897e-05 -0.299741)
(-3.16392 6.38812e-05 -0.299708)
(-3.16382 -3.29128e-06 -0.299698)
(-3.16382 3.28118e-05 -0.299694)
(-3.16383 -4.96392e-05 -0.299678)
(-3.16394 -5.85694e-05 -0.299797)
(-2.51205 0.000101327 -1.15329)
(-2.51213 6.5371e-05 -1.15324)
(-2.51206 -2.01551e-05 -1.15324)
(-2.51206 1.85624e-05 -1.15324)
(-2.51207 -5.62899e-05 -1.15324)
(-2.51209 -5.42536e-05 -1.15333)
(-1.04838 1.73832e-05 -1.14861)
(-1.0482 -8.16095e-06 -1.14855)
(-1.04824 -2.34494e-05 -1.14858)
(-1.04825 -1.06522e-05 -1.14859)
(-1.0482 -1.69168e-05 -1.14857)
(-1.04835 -2.61898e-06 -1.14863)
(1.57954 -5.58665e-05 -0.994165)
(1.57956 -5.98098e-05 -0.994215)
(1.57954 7.69261e-06 -0.994208)
(1.57955 3.64474e-05 -0.994253)
(1.57958 9.17896e-05 -0.994274)
(1.57953 6.80378e-05 -0.994109)
(4.55191 -4.13598e-05 -0.71183)
(4.55195 -3.81114e-05 -0.711859)
(4.55195 3.32225e-05 -0.711875)
(4.55195 4.88477e-05 -0.711923)
(4.552 0.000134921 -0.711926)
(4.55201 8.69634e-05 -0.711754)
(8.275 -5.54767e-05 -0.539241)
(8.27511 -4.82541e-05 -0.539248)
(8.27513 4.05687e-05 -0.539279)
(8.27509 4.41013e-05 -0.539305)
(8.27514 0.000157588 -0.539281)
(8.27516 0.000111116 -0.539168)
(11.2996 -7.64303e-05 -0.00202605)
(11.2996 -3.71134e-05 -0.00204209)
(11.2996 2.36008e-05 -0.00207185)
(11.2996 -4.44959e-05 -0.00205637)
(11.2997 0.000144491 -0.00201599)
(11.2999 0.000130782 -0.00194532)
(13.1672 -1.56469e-05 0.905768)
(13.1673 -1.09281e-05 0.90581)
(13.1676 2.41186e-05 0.905812)
(13.1671 -3.77423e-05 0.905793)
(13.167 -4.05487e-05 0.905809)
(13.1674 -4.05272e-05 0.905824)
(6.15188 1.42716e-05 0.957121)
(6.15211 -4.09113e-06 0.957123)
(6.15209 2.00757e-05 0.957122)
(6.152 1.78502e-05 0.957113)
(6.15212 -6.27968e-05 0.95711)
(6.15185 -6.93396e-05 0.957111)
(1.44361 3.28722e-05 1.50437)
(1.44394 1.45049e-05 1.50433)
(1.44384 -2.13618e-05 1.50435)
(1.44388 2.56636e-06 1.50434)
(1.44401 -7.09226e-05 1.50434)
(1.44364 -7.78332e-05 1.50433)
(-0.194548 8.0999e-05 1.61561)
(-0.194417 3.7105e-05 1.61566)
(-0.194437 -4.34671e-05 1.61564)
(-0.194429 7.0115e-06 1.61564)
(-0.194376 -5.43338e-05 1.61565)
(-0.194571 -7.44666e-05 1.6156)
(-1.22617 8.60311e-05 1.28512)
(-1.22618 4.67839e-05 1.28516)
(-1.22613 -2.23906e-05 1.28516)
(-1.22611 4.24469e-05 1.28518)
(-1.2261 -2.53477e-05 1.28521)
(-1.22621 -4.84943e-05 1.28511)
(-1.63207 0.000127883 0.2835)
(-1.63221 5.85262e-05 0.283814)
(-1.63209 -3.22611e-05 0.283731)
(-1.63209 5.36704e-05 0.283737)
(-1.6321 1.2252e-06 0.283818)
(-1.63214 -1.01086e-05 0.283552)
(-1.44175 0.000361109 -1.34694)
(-1.44158 0.000205256 -1.34648)
(-1.44152 -0.000131434 -1.34657)
(-1.44158 6.93314e-05 -1.34658)
(-1.44158 -7.70216e-05 -1.34651)
(-1.44167 -0.000123206 -1.34684)
(-1.11004 -0.000106673 -2.14942)
(-1.10966 -8.151e-05 -2.14931)
(-1.10969 3.10008e-05 -2.14934)
(-1.10983 3.16607e-06 -2.14938)
(-1.10991 8.74912e-06 -2.14936)
(-1.10978 9.703e-06 -2.14944)
(-0.493702 -2.02228e-05 -4.14576)
(-0.493612 -1.01455e-05 -4.14623)
(-0.493653 1.86574e-05 -4.14617)
(-0.493621 4.12831e-05 -4.14616)
(-0.493566 2.06816e-05 -4.14623)
(-0.493709 2.67795e-05 -4.14575)
(-1.41204 -2.60029e-05 -4.7695)
(-1.4118 -1.29856e-05 -4.7699)
(-1.41185 3.29825e-07 -4.76985)
(-1.41182 4.29491e-06 -4.76983)
(-1.41174 1.53701e-05 -4.76988)
(-1.41195 3.80978e-05 -4.76943)
(-1.11792 -0.000105082 -6.13656)
(-1.11762 -9.49925e-05 -6.1369)
(-1.11768 -3.00447e-05 -6.13686)
(-1.1177 -5.27103e-05 -6.13686)
(-1.11763 1.94349e-05 -6.1369)
(-1.1178 7.08232e-05 -6.13645)
(-2.08647 -0.000177537 -6.10478)
(-2.08663 -0.000170564 -6.10529)
(-2.08658 -6.24477e-05 -6.10525)
(-2.0866 -0.000135663 -6.10524)
(-2.08663 -4.50553e-05 -6.10529)
(-2.08638 2.27341e-05 -6.10478)
(5.76611 2.27531e-05 3.24642)
(5.76612 -5.96297e-05 3.2462)
(5.76602 -7.0351e-05 3.24627)
(5.76609 -0.0001161 3.24636)
(5.76625 -0.000134821 3.24635)
(5.76607 -0.000137471 3.24633)
(7.05572 0.000582926 8.73235)
(7.05631 0.000266855 8.73176)
(7.05601 -0.000252932 8.73217)
(7.056 0.000166141 8.73212)
(7.05638 -0.000194608 8.73188)
(7.05577 -0.000402202 8.73204)
(-1.13111 0.000357619 8.07176)
(-1.12458 7.20515e-05 8.0731)
(-1.12825 -0.000247994 8.07228)
(-1.12805 2.66411e-05 8.07233)
(-1.12556 -0.000263506 8.07306)
(-1.12929 -0.000306708 8.07141)
(-2.22397 0.00022634 3.06155)
(-2.22218 9.3478e-05 3.06267)
(-2.22311 -7.31446e-05 3.06213)
(-2.22314 7.66863e-05 3.06212)
(-2.22262 -0.000122326 3.06244)
(-2.22347 -0.000169978 3.06178)
(-1.39944 0.000567967 1.57261)
(-1.39794 0.000291429 1.57325)
(-1.39861 -0.000225349 1.57292)
(-1.39868 0.000162794 1.57299)
(-1.39831 -0.000139335 1.57318)
(-1.399 -0.000276695 1.57273)
(-1.18951 0.000802611 -0.0609615)
(-1.1878 0.000424256 -0.0601278)
(-1.18852 -0.000346804 -0.0605083)
(-1.18869 0.000199572 -0.0604238)
(-1.18829 -0.000159632 -0.0602164)
(-1.18893 -0.000351329 -0.0607634)
(-0.690653 0.000207342 -1.69688)
(-0.687965 0.000115823 -1.69515)
(-0.688997 -0.000103355 -1.69584)
(-0.689429 8.35023e-06 -1.696)
(-0.688906 1.50417e-05 -1.69551)
(-0.689604 -1.89879e-05 -1.69643)
(-1.04165 -0.000606821 -2.52991)
(-1.04121 -0.000318188 -2.5301)
(-1.04127 0.000154784 -2.52999)
(-1.04144 -0.000259731 -2.52998)
(-1.04164 0.00030464 -2.53001)
(-1.04118 0.000416766 -2.52996)
(0.155516 2.48169e-05 -1.61495)
(0.155533 2.09601e-05 -1.61563)
(0.155543 7.40291e-06 -1.61551)
(0.155536 8.87187e-06 -1.61552)
(0.155536 2.94904e-06 -1.61567)
(0.155531 -1.07241e-05 -1.61495)
(0.0201689 8.71852e-06 -1.94328)
(0.0202242 -2.33005e-06 -1.94386)
(0.0202431 -6.4533e-06 -1.94375)
(0.0202402 -6.61589e-06 -1.94376)
(0.0202437 -6.0245e-06 -1.94389)
(0.0202103 -1.91705e-05 -1.94326)
(0.169579 -4.764e-05 -2.89005)
(0.169697 -4.51907e-05 -2.89035)
(0.169708 -1.27404e-05 -2.89031)
(0.169702 -3.4186e-05 -2.89032)
(0.169703 -4.65299e-06 -2.8904)
(0.169603 2.80786e-06 -2.89006)
(-2.67582 -0.000168915 -4.91842)
(-2.67623 -0.00013143 -4.91883)
(-2.67609 -1.75766e-05 -4.91885)
(-2.6761 -0.000120393 -4.9189)
(-2.67622 -3.5178e-05 -4.91898)
(-2.67601 1.48589e-05 -4.91869)
(-3.87875 -0.000109938 -1.30522)
(-3.87952 -0.000248141 -1.30587)
(-3.87938 -0.000218004 -1.30583)
(-3.8794 -0.00025786 -1.30583)
(-3.87957 -0.000129862 -1.30591)
(-3.87925 -4.57283e-05 -1.30594)
(2.39695 0.00067845 10.566)
(2.39673 6.29264e-05 10.565)
(2.39664 -0.000683367 10.5654)
(2.39655 -0.000119851 10.5653)
(2.39667 -0.000316314 10.5652)
(2.39622 -0.000434944 10.5647)
(-1.60619 5.20253e-05 10.6162)
(-1.59987 -0.000166399 10.619)
(-1.60368 -0.000150043 10.6176)
(-1.60406 -9.55279e-05 10.6174)
(-1.60193 0.000108304 10.6183)
(-1.605 0.000199077 10.6166)
(-8.45897 -0.000866092 1.48569)
(-8.45995 -0.00073655 1.48899)
(-8.45969 0.000487293 1.48686)
(-8.46035 7.99109e-05 1.48753)
(-8.46059 -0.000122182 1.48953)
(-8.45978 0.000166695 1.48614)
(-5.26695 -0.000785687 -0.722559)
(-5.26363 -0.000647181 -0.717314)
(-5.26509 0.000606833 -0.719762)
(-5.26585 0.000192114 -0.720094)
(-5.26466 5.77609e-05 -0.718367)
(-5.26619 0.000317465 -0.721264)
(-3.00853 -0.00146198 -1.18082)
(-3.00243 -0.00094113 -1.17529)
(-3.00517 0.000861725 -1.1778)
(-3.00592 -0.000130167 -1.17826)
(-3.00386 0.000333007 -1.17638)
(-3.00713 0.000775135 -1.17948)
(-1.95506 -0.0022607 -2.27876)
(-1.94722 -0.00128473 -2.274)
(-1.95082 0.000961864 -2.27603)
(-1.95116 -0.000776751 -2.27665)
(-1.9484 0.000893567 -2.27531)
(-1.95358 0.00161928 -2.2772)
(-1.89822 -0.00121573 -2.73936)
(-1.89721 -0.000570897 -2.74002)
(-1.8978 0.000160078 -2.73955)
(-1.89732 -0.00102527 -2.74011)
(-1.89658 0.00109442 -2.74113)
(-1.89867 0.00159866 -2.73844)
(0.305201 -2.38506e-05 0.311318)
(0.305225 -6.2231e-05 0.311329)
(0.30525 -7.93354e-05 0.311334)
(0.305271 -7.33828e-05 0.31134)
(0.305293 -4.73616e-05 0.311345)
(0.305283 -1.43912e-05 0.311339)
(0.949955 -5.12627e-05 0.349086)
(0.950033 -0.000132313 0.349107)
(0.950171 -0.000169938 0.349103)
(0.950264 -0.00015187 0.349144)
(0.950389 -9.01314e-05 0.349159)
(0.950264 -2.06773e-05 0.349108)
(1.73955 -0.000128258 0.443174)
(1.73959 -0.000392189 0.443193)
(1.74024 -0.000562736 0.443222)
(1.74061 -0.000548503 0.443349)
(1.74129 -1.79711e-05 0.443398)
(1.7404 0.000244445 0.443277)
(2.69813 1.91896e-05 0.69379)
(2.6979 -0.00142258 0.693198)
(2.69912 -0.0021198 0.694972)
(2.69879 -0.00263314 0.692809)
(2.70125 0.000561113 0.693163)
(2.69817 0.00243096 0.696459)
(4.02287 0.00197079 1.38452)
(4.01847 -0.00363788 1.38284)
(4.02713 -0.00296864 1.38725)
(4.02394 -0.00568678 1.38111)
(4.04186 -0.000615591 1.38477)
(4.01812 0.00722811 1.38877)
(8.09889 0.00884462 2.23971)
(8.07176 -0.00745204 2.25053)
(8.10964 -0.0142829 2.22866)
(8.12339 -0.020585 2.26336)
(8.2152 0.00154057 2.26645)
(8.07957 0.0254273 2.20089)
(14.2371 0.0216292 0.756046)
(14.1999 -0.00687598 0.800434)
(14.2153 -0.0610193 0.721797)
(14.2178 -0.0757431 0.825448)
(14.332 0.0177515 0.772571)
(14.121 0.0696335 0.639404)
(14.0882 0.0183926 -4.26935)
(14.078 -0.000817291 -4.23051)
(14.0602 -0.0117001 -4.33768)
(14.0029 0.0110941 -4.19263)
(14.0294 -0.0553796 -4.29693)
(13.9028 -0.0454109 -4.44922)
(8.81886 0.00356645 -8.70612)
(8.81784 -0.00938382 -8.70698)
(8.88278 0.077074 -8.78558)
(8.67739 0.179712 -8.62308)
(8.63089 -0.158075 -8.67389)
(8.88816 -0.196525 -8.7863)
(4.17227 -0.0146058 -8.31955)
(4.28279 -0.0114082 -8.36665)
(4.49055 0.0938408 -8.44623)
(3.65523 0.201995 -8.14649)
(2.83225 -0.207214 -8.01869)
(4.74555 -0.169486 -8.47632)
(-9.6054 -0.00308493 -1.05317)
(-9.42571 0.0195593 -1.16609)
(-9.12988 0.0111838 -1.30716)
(-10.0881 0.0448525 -0.65645)
(-10.8399 -0.0516234 -0.214973)
(-8.59556 -0.0153406 -1.62031)
(-6.66294 0.000555465 3.73634)
(-6.61934 0.0101178 3.71313)
(-6.51824 -0.0661153 3.66814)
(-6.73927 -0.115229 3.83709)
(-6.85723 0.0838692 3.93464)
(-6.33559 0.134221 3.55161)
(0.302749 -1.91983e-05 0.918165)
(0.302773 -5.09623e-05 0.918199)
(0.302794 -6.04846e-05 0.918213)
(0.30281 -5.50715e-05 0.918228)
(0.302827 -3.25316e-05 0.918241)
(0.302808 -9.72026e-06 0.918219)
(0.93687 -3.90531e-05 1.03177)
(0.936944 -0.000104035 1.03183)
(0.937055 -0.000130801 1.03185)
(0.937099 -0.00011505 1.0319)
(0.937195 -4.69289e-05 1.03192)
(0.937083 4.33501e-06 1.03188)
(1.68644 -9.16586e-05 1.30197)
(1.6865 -0.000312467 1.30204)
(1.68698 -0.000347322 1.30219)
(1.6871 -0.000319046 1.30228)
(1.68761 -3.92739e-05 1.30236)
(1.68688 0.000155321 1.30233)
(2.56994 6.06327e-05 1.93493)
(2.57013 -0.00114165 1.93412)
(2.57121 -0.00127503 1.93563)
(2.57139 -0.00151903 1.93572)
(2.57323 0.00018866 1.93775)
(2.56991 0.00155472 1.93639)
(3.34217 0.0010267 3.39035)
(3.34258 -0.00274921 3.38683)
(3.3445 -0.00491326 3.38873)
(3.34422 -0.00751006 3.39648)
(3.3528 0.00370975 3.41024)
(3.33562 0.00988559 3.38743)
(4.98595 0.000971838 5.35148)
(4.9767 -0.00138655 5.36383)
(4.97604 -0.0106376 5.35957)
(5.01724 -0.0204151 5.36356)
(5.06855 0.0195916 5.35951)
(4.94434 0.0335526 5.34859)
(8.17145 0.000337913 5.07313)
(8.15192 0.0101641 5.16153)
(8.11869 -0.0121919 5.19575)
(8.27893 -0.0330303 4.97412)
(8.37408 0.0465002 4.72729)
(8.07734 0.0643087 5.1804)
(8.55977 -0.00116686 -0.976521)
(8.55059 0.0202174 -0.842288)
(8.48862 0.00501914 -0.693812)
(8.60355 -0.0167795 -1.1973)
(8.56809 0.0499806 -1.68758)
(8.45851 0.0572263 -0.661141)
(9.7965 -0.00123274 -10.249)
(9.76942 0.00567297 -10.2485)
(9.73 -0.00176373 -10.2332)
(9.86302 -0.0178269 -10.2811)
(9.89907 0.0298719 -10.3002)
(9.67372 0.0397658 -10.2101)
(9.96002 -0.00427337 -9.80831)
(9.95977 -0.00180315 -9.83503)
(9.97501 -0.000547218 -9.87024)
(9.9231 -0.0208407 -9.73032)
(9.83823 0.0247464 -9.61917)
(9.96756 0.0334244 -9.92637)
(4.84223 -0.000488275 -3.14549)
(4.89468 0.000238381 -3.20957)
(4.91043 -0.0529458 -3.26769)
(4.70987 -0.106908 -2.89973)
(4.4015 0.0918488 -2.46462)
(4.8981 0.11895 -3.37644)
(-4.45173 -0.00542931 6.41234)
(-4.4367 -0.012676 6.40128)
(-4.43123 -0.0651114 6.37936)
(-4.4666 -0.104623 6.45279)
(-4.45969 0.0288687 6.49472)
(-4.35291 0.0759329 6.31368)
(0.225536 -8.83779e-06 1.43794)
(0.22555 -2.25202e-05 1.43799)
(0.225556 -2.26861e-05 1.438)
(0.225558 -1.97473e-05 1.43802)
(0.225563 -7.02837e-06 1.43803)
(0.225542 -7.79346e-08 1.43799)
(0.676916 -1.26293e-05 1.59528)
(0.676956 -3.45989e-05 1.59535)
(0.676985 -3.76181e-05 1.59538)
(0.676973 -3.16696e-05 1.59542)
(0.677004 5.41172e-06 1.59545)
(0.676907 2.17638e-05 1.59539)
(1.12816 -1.25149e-05 1.95072)
(1.12818 -6.50653e-05 1.95082)
(1.12827 -4.1596e-05 1.95094)
(1.12816 -5.12001e-05 1.95102)
(1.12835 7.64929e-05 1.9511)
(1.12791 0.000139776 1.951)
(1.52341 8.80022e-05 2.64375)
(1.52349 -0.000147328 2.64361)
(1.52335 8.20165e-05 2.6444)
(1.52318 -0.000121692 2.6444)
(1.52375 0.000303827 2.6453)
(1.52175 0.000725956 2.64456)
(1.4965 0.000402979 3.96903)
(1.49814 8.91311e-05 3.96777)
(1.49642 0.000268585 3.96934)
(1.49362 -0.001255 3.97202)
(1.49312 0.00246602 3.97788)
(1.49132 0.00421575 3.96778)
(0.783707 -0.00130411 5.70612)
(0.786999 0.00235643 5.71037)
(0.780646 0.00466051 5.70646)
(0.773083 0.000918112 5.71537)
(0.768943 0.010134 5.72013)
(0.76784 0.0105955 5.69703)
(0.504633 -0.00695341 5.68985)
(0.504582 0.010056 5.73068)
(0.481286 0.0341242 5.73536)
(0.502864 0.0408769 5.66619)
(0.486824 0.00652032 5.59064)
(0.448152 -0.0139801 5.7351)
(0.554215 -0.00293119 0.584066)
(0.540561 0.0211245 0.663908)
(0.506584 0.0895709 0.710252)
(0.61948 0.142395 0.468628)
(0.646543 -0.0260672 0.294676)
(0.458904 -0.0953164 0.788915)
(5.30368 0.000285969 -8.78583)
(5.3006 -0.00020919 -8.79528)
(5.30109 -0.00270493 -8.79324)
(5.31089 -0.00212043 -8.76442)
(5.23691 -0.00854576 -8.7122)
(5.2897 0.00158101 -8.76347)
(9.7589 -0.00156303 -9.98796)
(9.75545 -0.00023884 -9.99846)
(9.73725 -0.00650728 -10.0007)
(9.80424 -0.0267278 -9.97369)
(9.85881 0.016744 -9.96529)
(9.68918 0.0395587 -9.99868)
(8.3064 -0.00307293 -6.40718)
(8.3205 -0.0017231 -6.42223)
(8.33884 -0.0157005 -6.45785)
(8.26201 -0.0480859 -6.32995)
(8.20455 0.0277205 -6.21747)
(8.34447 0.056077 -6.51519)
(0.515784 -0.00626004 4.2735)
(0.5255 -0.0233366 4.28318)
(0.53865 -0.0501915 4.19067)
(0.432 -0.0579783 4.36499)
(0.282584 -0.0131571 4.56411)
(0.561929 0.0104403 4.01801)
(0.149602 -8.82077e-07 1.79605)
(0.14961 -1.60792e-06 1.79612)
(0.149607 3.48053e-06 1.79612)
(0.149601 4.50505e-06 1.79613)
(0.149598 8.22063e-06 1.79614)
(0.149581 4.76743e-06 1.79608)
(0.429434 3.71659e-06 1.94281)
(0.429454 1.04227e-05 1.94288)
(0.429441 2.15312e-05 1.94289)
(0.429407 2.35e-05 1.94291)
(0.429394 2.90038e-05 1.94292)
(0.429328 2.01983e-05 1.94285)
(0.640772 2.54428e-05 2.25197)
(0.64078 6.01222e-05 2.25205)
(0.640725 0.000107517 2.25208)
(0.640579 9.83862e-05 2.25209)
(0.640558 0.00011354 2.25213)
(0.640366 8.77344e-05 2.252)
(0.688976 0.000106203 2.75802)
(0.688941 0.000244739 2.75808)
(0.688657 0.00046466 2.7582)
(0.688219 0.0003777 2.7581)
(0.688179 0.000343319 2.75834)
(0.687564 0.000290958 2.7579)
(0.334894 0.000286105 3.50406)
(0.335305 0.000837501 3.50396)
(0.334 0.00165158 3.5041)
(0.332576 0.00117926 3.50394)
(0.33158 0.00101713 3.5052)
(0.331488 0.00092571 3.50267)
(-0.756968 -1.78238e-05 4.36452)
(-0.754352 0.00245795 4.36557)
(-0.757884 0.00522478 4.36335)
(-0.764595 0.00423906 4.36377)
(-0.771141 0.00290303 4.36545)
(-0.760721 0.00137944 4.35758)
(-2.52401 -0.0030533 4.18159)
(-2.52075 0.00520069 4.19155)
(-2.52615 0.0182098 4.18247)
(-2.53409 0.021346 4.17164)
(-2.54592 2.68373e-05 4.15656)
(-2.52803 -0.0111535 4.1735)
(-2.85432 -0.0051916 1.97819)
(-2.86027 0.00391378 1.9983)
(-2.86923 0.0277376 1.99111)
(-2.83102 0.0400182 1.93467)
(-2.82144 -0.0186493 1.88637)
(-2.87846 -0.039765 1.98666)
(-1.42315 -0.0046555 -3.58859)
(-1.41981 0.00108436 -3.57138)
(-1.43036 0.00218618 -3.54385)
(-1.39447 0.0132488 -3.64886)
(-1.39816 -0.0102726 -3.71543)
(-1.42405 -0.0201217 -3.50853)
(6.5352 -0.00369349 -7.60016)
(6.56417 -0.0041508 -7.60825)
(6.5547 -0.0109515 -7.58931)
(6.54809 -0.0124997 -7.60693)
(6.57427 -0.00624887 -7.60411)
(6.53668 0.0110031 -7.5748)
(8.65325 -0.00246957 -7.4396)
(8.6674 -0.00109451 -7.44666)
(8.65051 -0.00983274 -7.42146)
(8.6668 -0.028385 -7.46941)
(8.69648 0.0148894 -7.49269)
(8.59907 0.0376268 -7.40187)
(5.45335 -0.00414735 -3.89686)
(5.46407 -0.00112728 -3.90291)
(5.42245 -0.0104761 -3.87876)
(5.50166 -0.0388345 -3.92721)
(5.5498 0.0225578 -3.94542)
(5.35102 0.0434789 -3.86355)
(-0.0516699 5.30766e-05 -2.9676)
(-0.0517124 4.44462e-05 -2.96802)
(-0.0517072 -8.21985e-06 -2.96794)
(-0.0517083 1.66142e-05 -2.96794)
(-0.0517148 -4.21864e-05 -2.96802)
(-0.0516748 -5.71203e-05 -2.9676)
(-0.110485 3.60958e-05 -2.13964)
(-0.110487 2.92953e-05 -2.13991)
(-0.110486 -7.82706e-06 -2.13986)
(-0.110487 4.19599e-06 -2.13986)
(-0.110485 -3.75074e-05 -2.13991)
(-0.110485 -4.47244e-05 -2.13963)
(-0.0257653 2.09097e-05 -2.14213)
(-0.0257644 1.90787e-05 -2.14229)
(-0.0257649 -2.98358e-06 -2.14227)
(-0.0257651 -1.95175e-06 -2.14227)
(-0.0257646 -2.18186e-05 -2.1423)
(-0.0257661 -2.1526e-05 -2.14216)
(-0.306332 2.34682e-05 -3.12717)
(-0.306447 1.77604e-05 -3.12754)
(-0.306427 -1.47273e-05 -3.12748)
(-0.306428 3.50606e-06 -3.12748)
(-0.306447 -3.6307e-05 -3.12755)
(-0.30633 -4.30297e-05 -3.12714)
(-0.408727 2.87725e-05 -2.10119)
(-0.40872 2.211e-05 -2.10143)
(-0.408718 -1.22351e-05 -2.10139)
(-0.408716 4.54738e-07 -2.10139)
(-0.408711 -3.77462e-05 -2.10144)
(-0.408715 -4.2252e-05 -2.10119)
(-0.0860329 1.91724e-05 -2.00402)
(-0.0860302 1.62911e-05 -2.00417)
(-0.086031 -4.09641e-06 -2.00416)
(-0.0860312 -2.27742e-06 -2.00417)
(-0.08603 -2.11384e-05 -2.0042)
(-0.086034 -2.16507e-05 -2.00406)
(-0.54685 -2.56052e-05 -2.93344)
(-0.547073 -9.87849e-06 -2.93375)
(-0.547019 6.23157e-07 -2.93371)
(-0.547022 -9.68675e-06 -2.9337)
(-0.547066 -2.0546e-05 -2.93376)
(-0.546846 -2.15884e-05 -2.9334)
(-0.934062 2.06734e-05 -1.93769)
(-0.934049 1.66249e-05 -1.93789)
(-0.934042 -1.44716e-05 -1.93787)
(-0.934041 -7.06049e-06 -1.93787)
(-0.934042 -3.58479e-05 -1.93792)
(-0.934042 -3.50317e-05 -1.9377)
(-0.186176 1.5991e-05 -1.5881)
(-0.186166 1.20696e-05 -1.58825)
(-0.186167 -5.07052e-06 -1.58824)
(-0.186167 -4.42307e-06 -1.58825)
(-0.186163 -2.22028e-05 -1.58828)
(-0.186175 -2.23714e-05 -1.58815)
(-2.42288 -0.000108164 -3.08047)
(-2.4234 -4.6571e-05 -3.0808)
(-2.42322 4.17566e-05 -3.08078)
(-2.42321 -3.47314e-05 -3.08077)
(-2.4233 1.02635e-05 -3.08082)
(-2.42307 2.11248e-05 -3.08057)
(-1.94615 -2.06339e-05 -1.74576)
(-1.94614 -1.09804e-06 -1.74592)
(-1.94612 3.27127e-06 -1.74592)
(-1.94611 -1.59537e-05 -1.7459)
(-1.94612 -1.78218e-05 -1.74593)
(-1.94613 -1.01719e-05 -1.74571)
(-0.417525 1.13765e-05 -0.746272)
(-0.417488 5.23407e-06 -0.746395)
(-0.41749 -8.55669e-06 -0.746396)
(-0.41749 -9.07206e-06 -0.746398)
(-0.417482 -2.20697e-05 -0.746416)
(-0.417524 -2.1067e-05 -0.746274)
(-4.9886 -1.47161e-05 -0.219333)
(-4.98985 -9.29776e-05 -0.220342)
(-4.9894 -5.85291e-05 -0.220221)
(-4.98944 -7.34322e-05 -0.220306)
(-4.98971 -8.24314e-06 -0.220492)
(-4.98927 2.53314e-05 -0.220182)
(-3.61241 3.59727e-05 -0.133762)
(-3.61283 5.40869e-05 -0.134147)
(-3.61265 6.3423e-05 -0.134082)
(-3.61265 5.73241e-05 -0.134069)
(-3.61272 3.64644e-05 -0.13414)
(-3.61263 2.6615e-05 -0.133877)
(-1.15636 1.82606e-05 1.11039)
(-1.15633 1.51459e-05 1.11034)
(-1.15633 -1.28535e-06 1.11033)
(-1.15632 -8.15098e-07 1.11033)
(-1.15632 -1.92753e-05 1.11034)
(-1.15638 -2.2196e-05 1.11046)
(-2.08507 0.000561707 7.79099)
(-2.08644 5.25409e-05 7.78954)
(-2.08601 -0.000447384 7.78969)
(-2.08616 -0.000110721 7.7895)
(-2.08648 -0.000276352 7.78924)
(-2.08622 -0.000262441 7.78932)
(-3.33926 0.000357507 4.68888)
(-3.3406 0.000178616 4.68805)
(-3.34007 -3.32467e-06 4.68809)
(-3.34019 0.000147967 4.68795)
(-3.34044 -1.31358e-05 4.68773)
(-3.34009 -4.60838e-05 4.6882)
(-1.37279 6.6535e-05 3.17162)
(-1.37306 6.70709e-05 3.17149)
(-1.37296 5.97514e-05 3.17154)
(-1.37298 7.6716e-05 3.17154)
(-1.37299 2.3077e-05 3.17152)
(-1.37299 7.29499e-06 3.1717)
(0.507011 -0.000194344 12.7354)
(0.510171 -0.000404202 12.738)
(0.508082 -2.06745e-05 12.7364)
(0.507805 -5.51946e-05 12.7361)
(0.508642 3.80889e-05 12.7367)
(0.50617 0.000168169 12.736)
(1.33437 5.64844e-05 11.3646)
(1.33481 -3.26994e-05 11.3667)
(1.33454 0.000183351 11.3655)
(1.3342 0.000114301 11.365)
(1.33422 -0.000184229 11.3654)
(1.33353 -0.000132027 11.3653)
(0.364916 0.000256695 5.4049)
(0.364077 0.000201241 5.40539)
(0.364492 8.73464e-05 5.4053)
(0.364268 0.000186506 5.40522)
(0.364106 -7.55882e-06 5.40527)
(0.364332 -8.06952e-05 5.40561)
(-3.66888 -0.000230915 7.46992)
(-3.67324 -0.000196027 7.47058)
(-3.67205 1.82616e-05 7.46936)
(-3.67155 -0.000219816 7.47059)
(-3.67227 -0.000489432 7.47182)
(-3.67221 -0.000311922 7.46805)
(3.15176 -0.000488097 10.6364)
(3.15143 -7.34096e-05 10.6408)
(3.15108 0.000200076 10.6387)
(3.15132 -0.000385664 10.6385)
(3.15118 -9.36259e-05 10.6395)
(3.14993 1.2314e-05 10.6381)
(4.46304 -0.000836246 6.63971)
(4.46548 -0.000244865 6.64378)
(4.4642 0.000324617 6.64239)
(4.464 -0.000377025 6.64224)
(4.46439 -5.55429e-05 6.64287)
(4.4632 1.01724e-05 6.64287)
(-5.37752 0.000605582 -5.01264)
(-5.37709 0.000370848 -5.02946)
(-5.37857 -0.000152823 -5.02361)
(-5.37697 0.000318555 -5.02012)
(-5.37467 -0.00116799 -5.02471)
(-5.38309 -0.00152485 -5.01849)
(1.04265 0.00263827 3.26595)
(1.03804 0.00173887 3.26729)
(1.04004 -0.00128845 3.26624)
(1.03995 0.000154491 3.26637)
(1.03951 -0.000782475 3.26671)
(1.03644 -0.00138356 3.26406)
(4.07236 0.000435425 2.59655)
(4.06864 0.000441366 2.60296)
(4.07028 -0.000175615 2.60054)
(4.07038 0.000122077 2.60005)
(4.06917 -0.000164385 2.60087)
(4.06917 -0.000492311 2.59896)
(-7.58516 -0.000817939 -4.58479)
(-7.58288 -0.00096212 -4.59907)
(-7.58556 0.000286999 -4.59323)
(-7.58331 -0.000144112 -4.59139)
(-7.57983 0.000338325 -4.59621)
(-7.58965 0.000750389 -4.58794)
(-1.01007 0.002896 -2.33034)
(-1.00584 0.000842456 -2.33976)
(-1.00831 -0.00140455 -2.33756)
(-1.00878 0.000651385 -2.33516)
(-1.00711 -0.00083973 -2.33585)
(-1.01318 -0.000908274 -2.33664)
(3.7977 0.00120539 -1.62265)
(3.79661 0.000507589 -1.62032)
(3.79635 -0.000764502 -1.62215)
(3.797 -0.000873124 -1.62264)
(3.79699 0.000928262 -1.62269)
(3.79374 0.00171208 -1.62409)
(-5.69407 -0.000186922 -4.59321)
(-5.69329 -0.000164023 -4.60192)
(-5.69437 0.000159951 -4.59767)
(-5.69384 -0.000505745 -4.59868)
(-5.69313 0.00115221 -4.60392)
(-5.69501 0.00167036 -4.59218)
(-2.4822 0.000989655 -5.34069)
(-2.48086 0.000286294 -5.34471)
(-2.48266 0.000882636 -5.3427)
(-2.48182 0.0023065 -5.34193)
(-2.48122 -0.00092082 -5.345)
(-2.48381 -0.00171687 -5.33997)
(2.31326 0.000892596 -2.75887)
(2.30643 0.000119189 -2.75986)
(2.30877 -0.000446169 -2.75942)
(2.30765 -0.00062134 -2.76086)
(2.30026 0.00129146 -2.76468)
(2.31639 0.00223017 -2.75487)
(-3.50448 -0.000364496 -2.86363)
(-3.50393 -0.000113533 -2.86461)
(-3.50451 0.000252863 -2.86367)
(-3.50323 0.000652364 -2.86487)
(-3.50225 -0.000195725 -2.86799)
(-3.50603 -0.000920723 -2.86098)
(-2.51239 -6.92074e-05 -7.65913)
(-2.50993 -0.000537396 -7.66158)
(-2.51369 0.00157971 -7.66011)
(-2.50555 0.00488954 -7.65875)
(-2.49762 -0.00340835 -7.66355)
(-2.52366 -0.00640492 -7.65794)
(0.451652 0.000665912 -4.03618)
(0.449327 0.00041963 -4.04228)
(0.45058 -0.000300526 -4.03946)
(0.448849 0.000469457 -4.04092)
(0.444587 -0.000498203 -4.048)
(0.454747 -0.00102606 -4.03222)
(3.79365 -0.00117594 -1.34041)
(3.78854 -0.00147168 -1.34036)
(3.78643 -0.000183134 -1.33891)
(3.79737 -0.00366732 -1.34177)
(3.80243 0.00302361 -1.34215)
(3.77567 0.00552499 -1.33496)
(3.8397 0.000174877 -2.42318)
(3.80005 -0.00325564 -2.45774)
(3.80553 0.00399759 -2.44782)
(3.8576 -0.0100732 -2.43185)
(3.8805 0.0197072 -2.43827)
(3.79174 0.0339013 -2.45534)
(1.23481 -0.00495357 -3.22033)
(1.21119 -0.0059093 -3.26035)
(1.21318 0.0136037 -3.25727)
(1.24577 0.0236675 -3.22923)
(1.25979 -0.0219199 -3.26029)
(1.20257 -0.030075 -3.2624)
(2.59021 -0.000263604 -1.04677)
(2.59126 -0.000419979 -1.04764)
(2.59128 -0.000492817 -1.04747)
(2.58876 -0.00196536 -1.04613)
(2.58607 0.0020327 -1.0441)
(2.59428 0.00352997 -1.04826)
(2.90239 -0.00425986 -1.24454)
(2.91196 -0.00384575 -1.23934)
(2.91823 0.00445281 -1.23397)
(2.90234 -0.00397628 -1.26141)
(2.89785 0.0065437 -1.2822)
(2.93383 0.0149104 -1.20892)
(-0.196625 -0.00183088 -2.13768)
(-0.192784 -0.000977616 -2.12897)
(-0.191784 0.00755815 -2.12263)
(-0.190392 0.0110287 -2.15114)
(-0.184047 -0.00648121 -2.16976)
(-0.1866 -0.011391 -2.09707)
(1.99289 -4.70909e-05 -0.528291)
(1.99262 -0.000336348 -0.529235)
(1.99272 -0.000370696 -0.529265)
(1.9921 -0.000779734 -0.527235)
(1.99081 0.000726646 -0.524694)
(1.99335 0.00146055 -0.53075)
(3.25093 -0.00316002 -1.57466)
(3.24854 -0.00223107 -1.57541)
(3.2512 -0.00461108 -1.57473)
(3.25499 -0.0207038 -1.5793)
(3.25968 0.0193595 -1.58537)
(3.24719 0.0353641 -1.57077)
(0.152782 -0.000524355 -1.14454)
(0.146985 0.000849812 -1.15531)
(0.148657 0.000362241 -1.14486)
(0.158177 -0.000432261 -1.18252)
(0.160337 0.00384724 -1.22875)
(0.147719 0.00329035 -1.11233)
(1.30943 4.04651e-05 0.0117686)
(1.30944 -8.97784e-05 0.0107924)
(1.30942 -0.000316078 0.0105118)
(1.30892 7.4144e-05 0.012865)
(1.30881 -0.000231543 0.016026)
(1.30883 -0.000323704 0.00764452)
(1.97823 -0.00456659 -2.49863)
(1.98177 -0.00270472 -2.49534)
(1.97832 -0.00443177 -2.49817)
(1.98407 -0.0242121 -2.49267)
(1.99147 0.0231708 -2.48709)
(1.96882 0.0433262 -2.50513)
(-0.0928728 -0.00202195 -4.50277)
(-0.0923447 -0.000739535 -4.5156)
(-0.0911355 0.000440533 -4.48535)
(-0.0938869 -0.00439254 -4.55644)
(-0.0950168 0.00449048 -4.63712)
(-0.088228 0.00816921 -4.4082)
(0.481082 -0.000334241 0.364148)
(0.481168 4.76202e-05 0.363074)
(0.480924 -0.000613861 0.36314)
(0.481255 -0.0011886 0.36425)
(0.482274 0.00134618 0.365811)
(0.479965 0.00161376 0.361685)
(-0.366644 -0.00626312 -3.81197)
(-0.36462 -0.00409078 -3.81679)
(-0.369821 -0.00689808 -3.80652)
(-0.358728 -0.0347074 -3.82295)
(-0.346628 0.0300811 -3.86318)
(-0.385581 0.0665348 -3.7699)
(-0.392497 -0.00103283 -5.26768)
(-0.393204 -0.00049046 -5.28429)
(-0.392534 -0.000433937 -5.25795)
(-0.393293 -0.00306047 -5.30705)
(-0.394173 0.00145802 -5.38664)
(-0.390848 0.00332715 -5.18429)
(-0.550698 -0.000568854 0.368899)
(-0.550476 -0.000165818 0.36774)
(-0.550455 -0.000247529 0.368366)
(-0.550775 -0.00062848 0.368074)
(-0.550478 0.000728729 0.366149)
(-0.550638 0.000683365 0.370337)
(-2.13781 -0.00153112 -7.09784)
(-2.13372 -0.00245836 -7.09908)
(-2.14446 0.00155958 -7.0974)
(-2.12561 -0.00250693 -7.09964)
(-2.09918 0.00137795 -7.10217)
(-2.16578 0.0067288 -7.09405)
(-0.358002 -0.000593174 -3.96045)
(-0.358875 -0.000339105 -3.96834)
(-0.358265 -0.00034244 -3.96056)
(-0.3602 -0.00259203 -3.97436)
(-0.364978 0.00183999 -3.99408)
(-0.355057 0.00385109 -3.93704)
(0.0902836 2.93275e-06 2.01821)
(0.0902885 6.32731e-06 2.01828)
(0.0902847 1.05188e-05 2.01828)
(0.0902793 1.06744e-05 2.01828)
(0.0902751 1.02296e-05 2.01828)
(0.090265 4.30461e-06 2.01821)
(0.051066 3.26572e-06 2.13975)
(0.0510698 5.95758e-06 2.13982)
(0.0510671 7.69411e-06 2.13982)
(0.0510642 7.61872e-06 2.13982)
(0.0510616 6.40356e-06 2.13982)
(0.0510554 2.01677e-06 2.13974)
(0.0181898 1.35469e-06 2.21462)
(0.0181915 1.59663e-06 2.2147)
(0.0181904 1.25227e-06 2.2147)
(0.0181895 1.10541e-06 2.2147)
(0.0181885 9.37444e-07 2.21469)
(0.018186 -1.95674e-08 2.21461)
(0.249994 6.89697e-06 2.12344)
(0.250006 2.01715e-05 2.12351)
(0.249989 3.10199e-05 2.12351)
(0.249964 3.12627e-05 2.1235)
(0.249948 2.63451e-05 2.1235)
(0.249911 1.28109e-05 2.12342)
(0.139248 4.47972e-06 2.21078)
(0.139257 1.37968e-05 2.21085)
(0.139247 1.98746e-05 2.21085)
(0.139235 1.95725e-05 2.21084)
(0.139225 1.56087e-05 2.21083)