/*--------------------------------*- C++ -*----------------------------------*\
| =========                 |                                                 |
| \\      /  F ield         | OpenFOAM: The Open Source CFD Toolbox           |
|  \\    /   O peration     | Version:  v1612+                                |
|   \\  /    A nd           | Web:      www.OpenFOAM.com                      |
|    \\/     M anipulation  |                                                 |
\*---------------------------------------------------------------------------*/
FoamFile
{
    version     2.0;
    format      ascii;
    class       surfaceScalarField;
    location    "9.05";
    object      phi;
}
// * * * * * * * * * * * * * * * * * * * * * * * * * * * * * * * * * * * * * //

dimensions      [0 3 -1 0 0 0 0];

internalField   nonuniform List<scalar> 
816
(
5.47519e-07
-1.13393e-05
6.83757e-06
-1.80191e-05
-1.81626e-05
4.0136e-05
6.1727e-06
2.36282e-06
-1.24491e-05
-1.35415e-06
5.81501e-06
-6.75831e-06
2.63951e-07
-1.29697e-06
2.76231e-06
-6.31209e-06
-1.15391e-05
2.32559e-06
-3.08119e-06
1.17003e-05
0.000548801
-0.000339234
1.20575e-06
-0.00012111
0.000145053
0.000679913
-1.51661e-06
9.84801e-05
-6.62309e-05
9.20642e-05
-9.03558e-07
-0.000109055
0.00073929
9.66803e-05
5.00751e-06
0.000612182
-0.000568581
0.000227447
6.70707e-06
0.000576581
-0.000609023
-0.000324804
-4.23814e-06
0.000274032
0.000262789
-0.000321848
4.49416e-06
0.000308197
-0.000186837
-5.79694e-05
-1.18211e-07
0.000223345
-0.000206543
-0.000137267
-1.05419e-06
0.000472053
7.32173e-05
-2.20787e-05
2.05028e-06
2.51455e-05
0.000111588
-0.000174642
4.35909e-06
-2.3069e-05
6.64704e-05
3.23203e-06
-0.00020021
-0.000167552
2.28061e-05
-3.31835e-06
-3.20656e-05
-3.32925e-08
1.36282e-05
3.83052e-05
-4.26575e-05
2.61142e-05
2.78008e-08
-1.49517e-06
-3.80958e-06
1.86806e-06
4.64023e-05
-6.73065e-06
1.95215e-05
7.95059e-06
-1.8121e-05
1.63936e-05
-1.70971e-05
1.70071e-05
-1.68399e-05
-2.40194e-06
-2.57188e-05
8.94225e-06
3.02722e-05
8.10639e-06
-3.16055e-05
1.80767e-05
6.5471e-06
2.69638e-05
-1.08666e-05
-9.70197e-06
1.55237e-06
8.10473e-06
-5.31896e-05
2.82743e-05
4.29631e-05
2.68752e-05
-3.06477e-05
1.81016e-05
-4.18172e-06
-1.63956e-05
7.04723e-05
1.06477e-05
-3.35637e-05
-1.76085e-05
-3.596e-06
4.63035e-06
-1.12543e-05
1.00827e-06
-1.60092e-05
1.02441e-06
-2.23479e-05
-1.84772e-05
-1.07135e-05
-3.92516e-07
-2.05399e-06
-1.15333e-07
-2.36149e-05
3.10525e-06
8.84732e-06
-5.26411e-06
-7.17478e-06
-7.19274e-06
-1.11625e-05
1.80549e-06
-1.25804e-05
-6.33244e-06
-1.57892e-05
-1.76044e-06
-1.52088e-05
-1.05085e-05
-1.21962e-05
-4.27288e-06
4.10229e-06
-6.00605e-06
-2.46423e-05
-1.4328e-05
-2.04069e-05
-1.60046e-05
-1.44564e-05
-7.48466e-06
8.81196e-06
2.96483e-05
-2.01279e-06
-9.30847e-06
3.11539e-06
-1.58901e-06
-7.48626e-07
-6.1778e-06
4.08471e-06
-9.38011e-06
-5.94298e-06
3.16886e-06
1.33142e-06
-7.96985e-06
1.35925e-06
-3.76978e-06
5.7027e-07
-7.00426e-07
4.83655e-07
-6.20676e-06
9.29444e-07
1.59012e-06
-5.88626e-06
-3.92188e-08
-2.27491e-07
-5.75873e-06
-1.25833e-05
-6.94843e-06
-3.47972e-06
-4.99952e-07
-5.05501e-07
-1.31426e-05
-4.89562e-07
2.86393e-06
-2.64646e-06
1.32425e-07
-3.24176e-06
-5.29508e-06
-1.98753e-06
1.16307e-06
-3.82017e-06
-9.00698e-06
-4.15954e-06
-1.11079e-06
-5.94426e-06
-6.0493e-06
-5.85338e-06
3.0252e-06
-1.97209e-06
-2.54622e-06
-9.09925e-06
-1.14895e-05
-7.35425e-06
-8.96612e-06
-4.51692e-06
-4.22007e-06
4.13825e-06
-1.28727e-06
8.44985e-06
8.28683e-07
-2.06835e-06
-3.94561e-06
0.000288868
-5.62818e-05
2.85994e-07
-0.00017572
0.000543883
7.24569e-08
-0.000201398
0.000538069
-1.38555e-05
-4.56519e-05
0.000568213
-3.51716e-06
-0.000175565
0.000179107
6.24742e-07
-0.000344613
-6.64713e-05
-1.06105e-05
3.20342e-06
-4.92694e-05
-0.000283898
5.723e-06
-5.45697e-05
-0.000556813
1.25985e-06
-0.000134391
-0.000313079
-1.9421e-06
6.8964e-05
0.000190648
1.7317e-06
-0.000101935
-0.000146062
-0.000183728
-1.37232e-06
-0.000199353
-0.000440584
6.20675e-06
-0.000218937
-0.000132946
4.83493e-06
5.36112e-06
-0.00013963
-1.32021e-06
-1.6712e-05
-6.01847e-05
-4.20414e-06
-0.000284701
-0.00041258
-0.000242765
-6.70962e-06
-0.000284064
-0.000392506
-2.89412e-06
-0.000196615
-0.000326771
-1.72757e-06
-0.000199472
-0.000115755
3.75186e-06
-0.000142244
2.94106e-06
-0.000256095
-0.000222794
-1.43514e-05
9.22777e-06
-2.2213e-06
3.59602e-06
1.76335e-05
-3.10375e-05
-2.4519e-07
1.37803e-05
2.44017e-06
2.15037e-05
1.27356e-05
-7.89698e-06
6.55562e-06
2.13141e-05
6.71747e-05
-4.09013e-05
-3.35755e-05
-3.68027e-06
8.66273e-05
-1.30602e-05
-2.57535e-05
8.5028e-05
-4.9606e-05
-5.77561e-05
0.000108599
-5.65811e-05
-2.93522e-05
-8.99078e-06
-5.1349e-06
4.29081e-05
-1.84964e-05
-2.97712e-05
-1.63378e-05
-5.42897e-06
9.38314e-05
-1.71536e-05
-3.53604e-05
9.2532e-05
-3.90154e-05
1.67624e-05
-5.20818e-05
-4.97246e-06
5.83105e-06
5.9e-05
-2.10083e-05
3.04837e-05
6.32797e-05
-5.53114e-05
-3.65143e-05
-6.03442e-06
7.8338e-05
-5.52437e-06
-3.5361e-05
7.64056e-05
-3.14028e-05
-2.78978e-05
1.92361e-05
-1.8473e-05
-2.65583e-06
-9.1885e-06
-6.05904e-06
7.09442e-05
-2.51016e-05
-3.68086e-05
8.70019e-06
-6.19496e-06
9.59784e-08
-1.70705e-06
-8.135e-06
-1.49536e-05
1.72774e-06
-8.70624e-06
2.44525e-06
-1.00845e-05
-6.67803e-06
-3.78695e-06
-6.26797e-06
-1.44956e-05
3.09167e-05
2.37894e-05
2.02641e-05
-9.4518e-07
3.82897e-05
1.11877e-05
1.33011e-05
3.74518e-05
2.8081e-05
3.30145e-05
4.77378e-05
2.99926e-05
1.907e-05
-4.61219e-06
3.21887e-06
-2.39593e-05
-6.93743e-06
1.81102e-05
1.33788e-05
1.74667e-06
4.10557e-05
1.13032e-05
2.15066e-05
4.03494e-05
2.19044e-05
-5.5007e-06
-2.28281e-05
1.85276e-06
-4.09399e-07
2.71591e-05
1.24292e-05
-1.69726e-05
2.81873e-05
3.03753e-05
2.12854e-05
2.3545e-06
3.38067e-05
4.78819e-06
1.80875e-05
3.38622e-05
1.9339e-05
1.19704e-05
9.51504e-06
1.38299e-05
4.5363e-07
-4.12904e-06
4.84776e-06
3.22046e-05
1.36592e-05
1.93232e-05
5.17835e-06
-3.54044e-06
1.03732e-06
-1.74772e-06
-4.82575e-06
-4.9631e-06
-3.11981e-07
-5.40418e-06
2.88356e-06
-6.74439e-06
-3.14309e-06
-1.69655e-06
-4.80716e-06
-7.22809e-06
1.05437e-05
1.27821e-05
1.16964e-05
-5.62946e-07
1.40872e-05
4.36034e-06
7.15967e-06
1.2238e-05
1.48531e-05
1.71374e-05
1.58419e-05
1.66423e-05
9.46424e-06
-1.35983e-06
6.20925e-07
-1.26888e-05
3.49608e-07
8.51658e-06
6.34599e-06
2.00377e-06
1.1716e-05
5.62934e-06
1.18416e-05
1.31382e-05
1.14464e-05
-3.97401e-06
-4.67733e-06
6.90387e-07
-5.50831e-07
8.61398e-06
6.0219e-06
-9.20914e-06
8.3988e-06
1.64462e-05
1.20309e-05
1.20375e-06
1.06091e-05
1.2999e-06
9.52409e-06
1.06706e-05
1.03352e-05
5.94386e-06
4.19533e-06
7.61015e-06
-6.47477e-07
-1.03845e-06
1.41107e-06
8.9998e-06
7.35348e-06
1.15588e-05
-7.98782e-07
-3.7755e-06
2.76852e-06
-4.13578e-06
2.77566e-06
-5.35785e-08
-2.15946e-06
-4.37323e-06
-4.41468e-07
1.52971e-06
-3.34102e-06
3.31916e-06
-6.02324e-06
2.11651e-06
9.37832e-07
-6.50446e-06
-3.02682e-06
-3.79059e-07
7.65871e-07
-7.35938e-06
-1.98758e-07
-2.21318e-06
-1.72562e-06
-3.80377e-06
6.01807e-07
-2.15853e-06
-4.34079e-06
-3.56648e-07
-1.76212e-06
-3.16532e-06
4.16898e-07
-2.15783e-06
-3.14612e-06
-5.20685e-06
-3.89443e-06
-9.41963e-07
1.85225e-06
-1.45031e-06
-4.30854e-07
4.58585e-07
1.60834e-06
-6.514e-07
-3.78131e-07
-3.43878e-06
9.07946e-07
-1.8034e-06
-1.84947e-06
-2.13757e-06
-6.20885e-07
-3.04286e-06
5.32442e-06
6.14355e-06
7.53151e-07
2.96021e-06
4.16111e-06
6.62719e-06
9.28226e-06
6.9244e-06
4.53323e-06
1.25293e-06
-4.12589e-06
4.35477e-06
4.64717e-06
9.18281e-07
2.28627e-06
5.94552e-06
6.3587e-06
1.25742e-07
1.55668e-06
1.02343e-06
4.52869e-06
-3.91141e-06
7.46963e-06
5.8455e-06
2.48834e-07
1.29582e-06
4.57367e-06
5.40613e-06
4.27521e-06
3.03921e-06
1.14566e-06
2.51444e-06
4.05231e-06
5.18091e-06
0.000226476
-0.000273804
1.39127e-06
0.000391206
1.62784e-06
0.000634373
-6.41761e-06
0.000456354
-6.56171e-06
0.000453987
1.09621e-05
-0.000101437
1.92716e-06
0.000302085
-5.83978e-06
0.000152064
-6.15342e-06
-5.62066e-06
-1.27968e-05
-8.91465e-05
3.5149e-06
-0.000103593
5.07012e-06
5.27488e-05
-1.15122e-06
2.90464e-05
-5.81694e-06
-0.000195434
-9.43117e-06
-0.000202806
-1.39575e-05
-0.000191789
-2.19254e-06
-0.000172444
6.05293e-06
-0.000147498
5.43557e-06
-0.000186124
-7.4772e-06
-0.000199979
1.04484e-06
4.78127e-06
-2.03843e-06
-0.000179313
-3.53398e-06
-2.78361e-05
-2.06418e-06
-0.000140399
-5.13387e-06
-0.000226211
-1.37575e-05
-0.000266157
-5.22111e-07
-0.000302808
6.18087e-06
4.55964e-07
1.70181e-05
-3.29452e-05
-7.91115e-06
1.55345e-05
6.87014e-06
3.44401e-05
-2.52969e-05
1.41905e-07
4.7706e-05
-2.27117e-05
4.36073e-05
-4.3314e-05
-1.83773e-05
3.6053e-05
-8.65214e-05
1.76577e-05
-2.19651e-05
-3.22417e-05
2.3505e-05
-1.75964e-05
-5.9121e-05
1.26093e-05
-7.37105e-05
1.99682e-05
-1.1824e-05
1.71324e-05
-3.00218e-05
-1.46973e-05
3.16113e-05
-1.06029e-05
-3.32241e-05
-7.37294e-06
-2.31945e-05
1.11777e-06
-4.16904e-05
7.08665e-06
-5.5724e-06
-1.05385e-05
-1.0674e-05
-1.71044e-05
-4.76669e-05
3.58965e-05
-5.48784e-05
1.12118e-05
-1.52788e-05
-3.13054e-06
7.11159e-06
-1.02808e-06
-3.94726e-05
-1.78872e-05
-1.27717e-05
-2.39444e-05
-8.61283e-07
-2.13866e-05
-3.33361e-05
-5.38757e-05
-8.0854e-06
1.83445e-05
-4.47106e-06
-5.8827e-06
2.98738e-06
-1.84379e-05
-1.11225e-05
-3.01504e-06
2.22665e-05
1.48003e-05
1.95674e-05
2.73865e-05
-7.15956e-06
-2.11588e-05
-3.79883e-05
-1.09786e-05
-1.19305e-05
1.18264e-05
1.18945e-05
5.55973e-06
-2.47507e-05
-4.90169e-06
-3.3236e-05
-7.83476e-06
-5.67035e-06
-8.28967e-06
-1.14564e-05
9.17461e-06
1.41314e-05
3.91832e-06
-1.45624e-05
1.37391e-06
-9.32542e-06
4.20422e-07
-1.88375e-05
3.65919e-07
-3.67144e-06
7.14477e-06
-5.02367e-06
1.06278e-05
-2.07613e-05
-1.9074e-05
-2.5159e-05
-5.97993e-06
-7.14349e-06
1.86624e-06
4.00612e-06
-7.66404e-07
-1.74945e-05
5.53168e-06
-5.21829e-06
1.02111e-05
-6.85038e-07
1.23446e-05
-1.61565e-05
-2.32323e-05
-4.33381e-06
9.20402e-06
-1.89369e-06
-3.46545e-06
5.72712e-07
-1.03594e-05
-4.76803e-06
-1.6994e-06
6.77313e-06
9.37622e-06
3.66621e-06
1.49753e-05
4.26651e-08
-1.13171e-05
-1.16497e-05
-6.7537e-06
-4.82532e-06
6.71257e-06
2.76637e-06
4.30591e-06
-7.50551e-06
-3.76334e-06
-8.50288e-06
-5.68806e-06
-3.12031e-06
-5.4188e-06
-3.19086e-06
6.39218e-06
2.29738e-06
3.04536e-06
-4.93321e-06
1.608e-06
-2.23602e-06
2.59692e-07
-6.01927e-06
6.08279e-08
-2.77113e-06
4.33636e-06
-3.29268e-06
5.64611e-06
-5.66866e-06
-1.03697e-05
-9.07346e-06
-3.54314e-06
-1.86085e-06
1.51946e-06
2.04089e-07
-4.92092e-07
-5.18445e-06
2.23413e-06
-3.28665e-07
5.60382e-06
-2.59435e-06
5.60134e-06
-4.54699e-06
-8.52504e-06
-3.21862e-06
5.3685e-06
-2.58209e-06
-6.38015e-06
-1.44548e-06
1.57135e-06
6.86984e-06
-4.77552e-06
-3.43185e-06
2.31e-06
1.42694e-06
-1.76094e-07
-2.0699e-06
-8.57009e-07
1.47035e-06
1.15466e-06
1.20208e-06
1.54696e-06
3.60535e-07
1.62333e-06
3.33742e-06
-5.78865e-06
-1.7702e-06
-2.6603e-07
-5.33481e-08
2.65309e-06
2.67596e-06
3.44366e-06
0.000369199
0.00021958
-1.77546e-06
-4.28542e-05
1.36431e-06
0.000411588
-1.95355e-06
2.63404e-06
-3.36366e-06
2.14364e-05
-1.44285e-05
1.03959e-05
)
;

boundaryField
{
    top_fluid_surface
    {
        type            calculated;
        value           nonuniform List<scalar> 
64
(
-0.000234699
-0.000161917
-4.1491e-05
-4.20788e-05
-0.000107385
1.96198e-05
-0.000130436
-0.000284485
-0.000465383
-0.000253464
0.000104849
-0.000149025
-0.000257611
-0.000176287
0.000163644
3.5534e-05
0.000843083
0.000991436
0.00093075
0.000979566
-4.08255e-05
-0.000244357
0.000850935
0.000774763
-9.72898e-05
0.000496541
0.000622219
0.000547582
0.000374351
0.000112317
-0.000241414
0.000307761
-0.000212003
-0.0003435
-0.000436936
0.000153488
-0.000136509
0.000203355
-0.000386282
9.48293e-05
0.000117965
2.16854e-05
-9.13371e-05
-8.55603e-05
-1.1839e-05
0.000239376
-0.000117549
-0.000162414
-0.000241846
-2.54879e-05
2.98764e-05
-0.000272413
-0.000202172
-0.000224486
-0.000433882
-7.9039e-05
-9.8788e-05
-0.000107366
-0.000186158
-0.000577691
-0.000375048
-0.000225543
-0.000285706
-0.000435078
)
;
    }
    bottom_fluid_surface
    {
        type            calculated;
        value           uniform 0;
    }
    lateral_surface_1
    {
        type            calculated;
        value           uniform 0;
    }
    lateral_surface_2
    {
        type            calculated;
        value           uniform 0;
    }
    lateral_surface_3
    {
        type            calculated;
        value           uniform 0;
    }
    lateral_surface_4
    {
        type            calculated;
        value           uniform 0;
    }
}


// ************************************************************************* //
