/*--------------------------------*- C++ -*----------------------------------*\
| =========                 |                                                 |
| \\      /  F ield         | OpenFOAM: The Open Source CFD Toolbox           |
|  \\    /   O peration     | Version:  v1612+                                |
|   \\  /    A nd           | Web:      www.OpenFOAM.com                      |
|    \\/     M anipulation  |                                                 |
\*---------------------------------------------------------------------------*/
FoamFile
{
    version     2.0;
    format      ascii;
    class       volVectorField;
    location    "6.5";
    object      U;
}
// * * * * * * * * * * * * * * * * * * * * * * * * * * * * * * * * * * * * * //

dimensions      [0 1 -1 0 0 0 0];

internalField   nonuniform List<vector> 
320
(
(1.5526e-06 -9.69828e-06 2.31863e-05)
(-5.08203e-06 -8.88538e-06 -1.03234e-05)
(-1.51803e-05 -8.58157e-06 -1.00663e-05)
(3.72933e-06 1.68995e-05 -7.91502e-06)
(0.00080212 2.67215e-06 8.24431e-05)
(0.000565769 -0.000190018 5.65886e-05)
(0.000577734 -0.000195267 0.000162176)
(0.000320044 -0.000172006 -5.69338e-06)
(0.000366601 -7.39533e-05 -6.39351e-05)
(0.000114308 4.96484e-05 -0.000115921)
(0.000105561 -5.99943e-05 -6.19031e-05)
(0.000179306 -4.11125e-05 -7.54704e-05)
(-0.000131093 0.000207294 -0.000146493)
(-7.91676e-06 -0.00033288 -7.43225e-05)
(-6.30078e-05 0.000208091 0.000182856)
(0.000239143 0.000177104 -0.000166656)
(1.74936e-05 3.63125e-06 2.93869e-05)
(2.32766e-05 9.25816e-06 2.60977e-05)
(3.05323e-05 -1.78695e-06 3.43765e-06)
(-1.14283e-07 -3.03412e-06 -1.24868e-05)
(1.23818e-05 -1.08681e-05 5.52606e-06)
(3.94126e-06 9.92722e-06 3.24229e-05)
(-1.79248e-05 -4.05838e-06 2.84525e-05)
(7.6268e-06 -2.03207e-05 -5.27274e-06)
(-1.60016e-05 2.29033e-05 4.21339e-05)
(-1.18609e-05 -3.83195e-05 3.40904e-05)
(-2.48096e-05 -1.34334e-06 -3.86319e-05)
(-1.37477e-05 8.94917e-06 1.76236e-05)
(-4.16133e-06 2.58666e-06 1.60308e-05)
(-6.12633e-06 -2.87153e-06 2.36668e-05)
(-1.61628e-05 -4.41597e-07 5.65929e-06)
(-1.23692e-07 1.58407e-07 -1.20699e-05)
(-8.52489e-06 4.46498e-06 5.79335e-06)
(-5.08053e-06 -1.01576e-05 1.96804e-05)
(7.96374e-06 -3.46333e-06 1.89543e-05)
(7.14399e-07 9.74353e-06 -2.98716e-06)
(1.33865e-05 -1.22635e-05 2.49095e-05)
(9.45104e-06 1.77367e-05 2.2901e-05)
(1.52227e-05 2.12881e-06 -1.97191e-05)
(7.05737e-06 -2.25339e-06 1.08912e-05)
(7.84677e-07 -5.89271e-06 7.21273e-06)
(-2.72286e-06 -5.97831e-06 -5.06052e-06)
(-8.70582e-06 -4.88998e-06 -1.63799e-06)
(2.53354e-06 9.22446e-06 -6.32818e-06)
(-1.81154e-06 9.2681e-07 5.31082e-06)
(-3.66369e-06 -2.24652e-06 7.59193e-07)
(-9.49397e-06 -3.4928e-07 8.01685e-07)
(-4.89797e-07 3.0438e-07 1.88691e-06)
(-4.48047e-06 3.112e-06 1.25686e-06)
(-2.64936e-06 -6.4368e-06 6.03939e-06)
(5.27911e-06 -2.1686e-06 5.75786e-06)
(1.31485e-07 5.65249e-06 8.36509e-07)
(6.99987e-06 -7.98879e-06 5.84867e-06)
(5.50903e-06 9.87713e-06 4.04756e-06)
(8.19409e-06 9.15962e-07 -6.2458e-06)
(4.46898e-06 -1.16682e-06 2.3148e-06)
(2.84315e-05 2.39067e-05 2.61864e-05)
(0.000545652 0.000183234 -0.000190676)
(0.000459086 7.2283e-05 7.7048e-05)
(0.000450626 0.000220699 -1.02869e-05)
(0.00043396 0.000390644 0.000394984)
(0.000321379 -0.000322149 0.000479771)
(0.000165759 -0.00020022 0.000365643)
(0.000228014 -0.000542728 0.000390031)
(0.000190089 -0.000567923 -5.99459e-05)
(-0.000203286 1.90192e-05 6.3725e-05)
(-0.000141732 0.000202304 0.000229382)
(0.000352885 2.43704e-05 0.000321154)
(0.000339042 0.000144788 -0.000114216)
(-7.21611e-05 7.67494e-05 0.000210328)
(0.000413106 -0.000108072 0.000164179)
(0.000104285 2.20329e-05 0.000108238)
(0.000334572 0.000151014 0.000190608)
(0.000364582 0.000379102 -4.93111e-05)
(0.00036747 9.40203e-05 -0.000121549)
(0.000557034 0.000258796 4.54661e-05)
(-2.71285e-05 -1.68699e-05 -1.93595e-05)
(3.94882e-06 -1.02044e-07 2.17116e-05)
(1.32483e-05 -1.42924e-05 1.25632e-05)
(1.0101e-05 7.24878e-06 5.54014e-06)
(-9.38742e-06 3.52306e-05 -4.73845e-05)
(5.23038e-06 -9.58127e-07 -6.71478e-05)
(-1.27435e-05 9.61417e-07 -4.50977e-05)
(-1.42362e-05 -3.0903e-05 -8.21282e-05)
(2.59317e-06 -4.12811e-05 4.88114e-06)
(-1.10572e-05 -1.14984e-05 1.60973e-05)
(-2.48424e-05 1.08713e-05 -4.30843e-05)
(2.49493e-05 -8.007e-06 -5.72142e-05)
(1.0986e-05 -1.25664e-05 4.53796e-05)
(-1.86089e-05 4.75913e-06 -3.80385e-05)
(2.08161e-05 -2.98907e-05 -2.55535e-05)
(-2.47689e-05 -1.35729e-05 -4.00454e-05)
(5.26023e-06 6.08448e-06 -5.03036e-05)
(1.634e-05 2.36608e-05 -8.96515e-06)
(1.3526e-06 1.31314e-06 9.86603e-08)
(2.13825e-05 9.42436e-06 -3.7194e-05)
(1.31116e-05 9.25909e-06 -1.16788e-05)
(2.17056e-06 -5.3624e-07 8.99419e-06)
(-2.05378e-06 1.10366e-05 1.25659e-05)
(-4.41108e-06 2.86084e-06 3.54513e-06)
(4.19962e-06 -1.6123e-05 -2.5998e-05)
(-6.8338e-06 1.41877e-06 -2.71286e-05)
(9.25084e-06 -1.24657e-06 -2.32429e-05)
(8.80795e-06 1.19466e-05 -3.80352e-05)
(-1.77203e-06 1.68908e-05 2.86648e-06)
(5.63578e-06 2.56364e-06 1.23924e-05)
(1.18298e-05 -1.06026e-05 -2.96261e-05)
(-1.61723e-05 -2.05532e-06 -3.0876e-05)
(-6.37743e-06 3.40437e-06 3.15043e-05)
(1.39785e-05 7.20389e-07 -2.20916e-05)
(-4.95837e-06 1.72113e-05 -1.91854e-05)
(1.77732e-05 5.21687e-06 -2.43738e-05)
(1.87477e-07 -6.74701e-06 -2.96029e-05)
(-6.87859e-06 -1.2093e-05 -3.6268e-06)
(1.41847e-07 4.75277e-07 -2.00849e-06)
(-1.38831e-05 -4.46862e-06 -2.73173e-05)
(7.51278e-06 5.87843e-06 -4.59903e-06)
(1.86443e-06 8.57743e-07 4.39016e-06)
(-1.44671e-06 6.93333e-06 -2.06137e-06)
(-3.37916e-06 2.3673e-06 2.58357e-06)
(2.73476e-06 -8.9327e-06 -6.90458e-06)
(-3.85774e-06 6.42893e-07 -1.19068e-05)
(4.71305e-06 -9.64637e-07 -6.37977e-06)
(5.06973e-06 7.065e-06 -1.3322e-05)
(-1.39895e-06 9.40205e-06 1.41428e-06)
(3.42601e-06 1.27499e-06 -8.03814e-07)
(7.09046e-06 -6.67477e-06 -6.73116e-06)
(-9.55612e-06 -1.26382e-06 -1.0041e-05)
(-2.88531e-06 2.32335e-06 6.16696e-06)
(8.75476e-06 -5.15689e-07 -5.73241e-06)
(-2.8301e-06 8.7524e-06 -4.10284e-06)
(1.06437e-05 2.40697e-06 -7.85283e-06)
(5.20628e-07 -3.69591e-06 -7.93724e-06)
(-3.38389e-06 -6.93297e-06 -2.62227e-06)
(1.58156e-06 2.45548e-07 1.81496e-07)
(-7.91282e-06 -2.71442e-06 -4.92135e-06)
(7.20638e-08 -3.06059e-06 1.9399e-06)
(4.17716e-07 -2.0085e-06 -1.1923e-06)
(-4.88442e-06 -2.3288e-06 -8.7893e-07)
(6.18375e-07 5.47431e-06 -1.03962e-06)
(-2.54029e-06 4.33593e-08 2.10937e-06)
(-2.01276e-06 5.44404e-07 2.98217e-06)
(-3.61251e-06 4.13485e-07 2.27881e-07)
(9.20203e-07 -4.29473e-07 -1.11779e-06)
(-1.83396e-06 -1.87302e-07 9.09065e-07)
(-9.11319e-07 -2.99096e-06 1.83907e-06)
(2.55923e-06 -1.61611e-07 2.23537e-06)
(3.92972e-07 1.45906e-06 -6.76711e-07)
(4.6657e-06 -2.84918e-06 2.6332e-06)
(3.05216e-06 5.15336e-06 2.85839e-06)
(5.33032e-06 3.35646e-07 -1.7648e-06)
(2.47948e-06 1.88629e-07 2.15906e-06)
(4.13907e-06 3.02303e-06 -9.13421e-07)
(-2.83704e-07 -4.50864e-07 7.81584e-07)
(4.75936e-08 2.41468e-06 1.3608e-06)
(5.25247e-07 -4.24022e-07 -4.9972e-07)
(2.07008e-07 -4.28784e-06 -2.48635e-06)
(-2.32735e-06 9.39358e-07 -2.95995e-06)
(9.21761e-07 -2.29944e-07 -2.78195e-06)
(7.12372e-07 3.64278e-06 -3.92803e-06)
(-4.11504e-07 4.05002e-06 3.60467e-07)
(7.43573e-07 -1.10329e-07 1.2273e-06)
(2.37771e-06 -3.80848e-06 -2.94703e-06)
(-3.83166e-06 -6.32675e-07 -3.35486e-06)
(-2.19685e-06 5.63298e-07 2.99767e-06)
(3.63013e-06 7.30666e-07 -2.5747e-06)
(-1.46246e-06 4.30662e-06 -2.03915e-06)
(4.55694e-06 8.81118e-07 -3.0645e-06)
(-3.09067e-07 -1.66421e-06 -3.37854e-06)
(-1.34414e-06 -3.63329e-06 -1.00797e-06)
(-8.84446e-07 -1.1479e-06 -3.47945e-07)
(-4.46252e-06 -1.45182e-06 -2.72114e-06)
(0.000797705 0.000208849 -0.000114957)
(0.000315002 9.60664e-05 -4.46191e-06)
(0.000754497 -7.71165e-05 -0.000150446)
(0.000529282 -0.000114882 0.000166343)
(0.000261841 -0.000146312 1.67741e-05)
(0.000354782 7.50949e-05 2.36384e-05)
(-0.000365745 -6.87362e-05 0.000164758)
(-0.000512544 0.000185222 9.07643e-06)
(-0.000570616 -0.000461438 5.27004e-05)
(-0.000651017 -0.000262885 -0.000261165)
(-0.000634585 -4.87081e-05 -0.000127414)
(-0.000162619 -0.000379939 -0.000217876)
(-0.000445886 4.52362e-05 -0.000261141)
(-0.000136224 -7.4262e-05 -2.76943e-05)
(3.48384e-05 -0.000385489 -5.97478e-05)
(0.000109086 -0.000311693 -3.16006e-05)
(0.000162292 -0.000633838 -0.000215855)
(0.000126789 -0.000123896 7.91599e-06)
(0.000119291 -0.000422681 -7.89101e-05)
(0.000272205 -0.000313981 -0.000118162)
(5.47926e-05 -0.000283141 -0.00024142)
(8.54757e-05 -9.18584e-05 -2.52404e-05)
(7.05202e-05 0.000129014 -3.00407e-05)
(0.000192033 -7.12365e-05 -0.000153556)
(-0.000152413 0.000242111 0.000101378)
(5.29935e-05 0.000365337 -4.53282e-05)
(0.000120638 0.000456677 -0.000160768)
(0.00025062 0.00033854 -0.000513155)
(2.30036e-05 2.08199e-05 1.47896e-05)
(-4.22372e-06 2.57471e-07 -2.09767e-05)
(1.49159e-05 -2.08252e-06 1.93328e-05)
(1.59289e-05 -1.07117e-05 -4.36244e-05)
(-1.89866e-05 -4.76247e-06 -2.95766e-05)
(-2.00288e-05 1.83743e-05 1.47981e-05)
(-2.93126e-05 5.88065e-06 5.58229e-05)
(-4.18054e-05 3.25005e-05 2.6033e-05)
(-3.20419e-05 -5.14507e-06 -3.07557e-05)
(-4.59913e-05 -2.24948e-05 5.62069e-05)
(-5.54862e-05 4.46506e-06 7.21502e-05)
(-1.0633e-05 1.31053e-05 1.41938e-05)
(-1.10894e-06 1.53184e-05 -4.69608e-06)
(1.61818e-05 -2.59506e-06 -2.33432e-05)
(7.03618e-06 -1.98812e-05 2.70427e-05)
(4.47153e-07 -2.06888e-05 -5.42143e-06)
(5.51128e-06 -4.51699e-05 2.60812e-05)
(-5.13765e-06 -1.25331e-06 1.12335e-05)
(1.32003e-06 -2.90447e-05 2.03188e-05)
(1.57092e-05 -2.11813e-05 2.98026e-05)
(1.33318e-05 -2.39378e-05 5.33518e-05)
(1.0575e-05 -3.57199e-05 -1.13594e-05)
(7.50415e-06 7.3464e-06 -4.55537e-05)
(3.14926e-05 2.78382e-06 3.13631e-05)
(4.20686e-06 -5.24822e-06 1.44611e-06)
(2.58781e-06 1.39949e-05 -6.40504e-06)
(1.68851e-05 4.7804e-06 3.44221e-05)
(-2.05412e-06 1.87974e-06 3.47986e-05)
(-1.51567e-05 -1.0419e-05 5.93035e-06)
(3.12679e-06 -6.81201e-07 -1.25053e-05)
(-5.93906e-06 -4.35473e-07 6.04461e-06)
(-9.52452e-06 7.4298e-06 -2.43119e-05)
(1.09929e-05 7.03528e-06 -2.41882e-05)
(1.41713e-05 -7.97524e-06 1.28603e-05)
(1.56437e-05 -2.93461e-06 3.2664e-05)
(2.06843e-05 -1.814e-05 1.5834e-05)
(1.36269e-05 4.60982e-06 -1.96109e-05)
(2.38759e-05 1.58027e-05 2.81886e-05)
(3.06729e-05 -6.55838e-06 4.93765e-05)
(5.37577e-06 -1.33364e-05 4.34786e-06)
(4.48062e-07 -1.16122e-05 -4.23651e-06)
(-8.79659e-06 -8.21449e-07 -1.88965e-05)
(-2.78108e-06 8.42114e-06 1.17295e-05)
(-4.62191e-07 7.59444e-06 -7.20381e-06)
(-6.04251e-06 2.07122e-05 1.08655e-05)
(-2.06123e-06 -2.5343e-06 5.5589e-06)
(-4.19935e-07 1.63961e-05 1.02272e-05)
(-2.2485e-06 1.18642e-05 1.53619e-05)
(-4.32621e-06 1.36879e-05 2.46687e-05)
(-2.50296e-06 2.07427e-05 -1.08939e-05)
(-7.94599e-07 -7.11539e-06 -3.36867e-05)
(-1.48359e-05 -6.91502e-06 1.80761e-05)
(-9.6379e-07 2.08251e-06 3.10185e-06)
(-6.61263e-07 -9.25942e-06 -7.75341e-06)
(-1.06982e-05 -6.0403e-06 2.33079e-05)
(-2.23416e-06 -1.95531e-06 1.99774e-05)
(-8.76316e-06 -6.31968e-06 2.70946e-06)
(8.96955e-07 -3.76179e-07 -4.77763e-06)
(-2.86666e-06 2.96051e-07 4.68643e-06)
(-5.17348e-06 4.35499e-06 -8.17191e-06)
(6.37186e-06 4.02278e-06 -2.47525e-06)
(8.28349e-06 -5.39599e-06 -1.3251e-07)
(7.90071e-06 -1.52623e-06 9.59601e-06)
(1.17705e-05 -9.77369e-06 6.6822e-06)
(7.05958e-06 1.62891e-06 -3.8504e-06)
(1.27565e-05 9.23097e-06 9.92364e-06)
(1.72546e-05 -2.99989e-06 9.09267e-06)
(2.69199e-06 -8.08001e-06 4.51857e-06)
(-2.27179e-07 -6.764e-06 -1.5012e-06)
(-5.34685e-06 -1.03841e-06 -3.0491e-06)
(-1.48834e-06 4.08125e-06 3.64307e-06)
(-1.10636e-07 3.8759e-06 -9.10244e-07)
(-3.71884e-06 1.1282e-05 4.21553e-06)
(-6.16551e-07 -1.96104e-06 3.38893e-06)
(5.70913e-07 9.01333e-06 5.62003e-06)
(-1.31419e-06 6.22259e-06 4.81656e-06)
(-2.75173e-06 7.49738e-06 7.9199e-06)
(-1.47699e-06 1.1442e-05 -2.01942e-06)
(-6.21625e-08 -4.63839e-06 -7.43653e-06)
(-8.52193e-06 -4.14995e-06 3.40947e-06)
(-5.16184e-07 1.97679e-06 -1.50245e-06)
(3.87604e-07 -5.69574e-06 8.164e-07)
(-6.45751e-06 -4.46659e-06 4.44285e-06)
(-1.36464e-06 -1.22684e-06 5.30537e-06)
(-5.35999e-06 -2.79867e-06 7.53688e-07)
(1.47853e-06 -3.96575e-07 -1.13262e-06)
(-1.93195e-06 -1.38158e-07 4.41053e-07)
(-2.03961e-06 1.25167e-06 -1.70234e-06)
(3.09e-06 1.94906e-06 -2.55705e-06)
(1.96154e-06 -1.3131e-06 1.61773e-06)
(5.78454e-06 1.94498e-07 3.64126e-06)
(7.29215e-06 -4.71288e-06 2.0291e-06)
(5.3595e-06 1.12823e-06 -1.39723e-06)
(7.48101e-06 2.61017e-06 2.43493e-06)
(8.19957e-06 -1.52056e-06 5.08346e-06)
(2.31769e-06 -2.95972e-06 6.91316e-07)
(1.18988e-06 -4.01093e-06 -1.64509e-07)
(-1.5829e-06 8.53655e-07 -1.9531e-06)
(-6.13974e-07 3.62646e-06 1.59227e-06)
(-3.89011e-07 2.21121e-06 -1.11392e-06)
(-1.81253e-06 6.39313e-06 1.52364e-06)
(-9.7035e-07 1.921e-07 8.55137e-07)
(9.2239e-07 5.16665e-06 1.30222e-06)
(9.34994e-08 2.89981e-06 1.28663e-06)
(-1.3446e-06 3.61067e-06 2.6941e-06)
(-6.33743e-07 5.19407e-06 -1.14212e-06)
(-4.57142e-07 -1.69583e-06 -3.42886e-06)
(-3.21066e-06 -7.47645e-07 1.82385e-06)
(4.59424e-07 -2.39726e-07 -1.90386e-07)
(1.82889e-07 -2.92977e-06 -5.90931e-07)
(-1.32248e-06 -1.45257e-06 2.41671e-06)
(1.82117e-07 -1.29409e-06 2.43769e-06)
(0.000178787 0.000132344 -0.000137199)
(0.000260769 1.10997e-05 1.8469e-05)
(0.000606355 8.13282e-05 -2.6396e-05)
(0.000260046 -0.000335935 0.00013959)
(4.25756e-06 2.55441e-05 4.0996e-05)
(7.83074e-06 1.91159e-05 -2.67088e-05)
(3.79552e-05 1.48893e-05 -1.74946e-05)
(-5.3003e-06 -3.49514e-05 -2.68845e-05)
)
;

boundaryField
{
    top_fluid_surface
    {
        type            pressureInletOutletVelocity;
        value           nonuniform List<vector> 
64
(
(0 0 8.24431e-05)
(0.000565769 -0.000190018 5.65886e-05)
(0.000577734 -0.000195267 0.000162176)
(0 0 -5.69338e-06)
(0 0 -6.39351e-05)
(0 0 -0.000115921)
(0 0 -6.19031e-05)
(0 0 -7.54704e-05)
(0 0 -0.000146493)
(0 0 -7.43225e-05)
(-6.30078e-05 0.000208091 0.000182856)
(0 0 -0.000166656)
(2.84315e-05 2.39067e-05 2.61864e-05)
(0 0 -0.000190676)
(0.000459086 7.2283e-05 7.7048e-05)
(0 0 -1.02869e-05)
(0.00043396 0.000390644 0.000394984)
(0.000321379 -0.000322149 0.000479771)
(0.000165759 -0.00020022 0.000365643)
(0.000228014 -0.000542728 0.000390031)
(0 0 -5.99459e-05)
(-0.000203286 1.90192e-05 6.3725e-05)
(-0.000141732 0.000202304 0.000229382)
(0.000352885 2.43704e-05 0.000321154)
(0 0 -0.000114216)
(-7.21611e-05 7.67494e-05 0.000210328)
(0.000413106 -0.000108072 0.000164179)
(0.000104285 2.20329e-05 0.000108238)
(0.000334572 0.000151014 0.000190608)
(0 0 -4.93111e-05)
(0 0 -0.000121549)
(0.000557034 0.000258796 4.54661e-05)
(0 0 -0.000114957)
(0 0 -4.46191e-06)
(0 0 -0.000150446)
(0.000529282 -0.000114882 0.000166343)
(0.000261841 -0.000146312 1.67741e-05)
(0.000354782 7.50949e-05 2.36384e-05)
(-0.000365745 -6.87362e-05 0.000164758)
(-0.000512544 0.000185222 9.07643e-06)
(-0.000570616 -0.000461438 5.27004e-05)
(0 0 -0.000261165)
(0 0 -0.000127414)
(0 0 -0.000217876)
(0 0 -0.000261141)
(0 0 -2.76943e-05)
(0 0 -5.97478e-05)
(0 0 -3.16006e-05)
(0 0 -0.000215855)
(0.000126789 -0.000123896 7.91599e-06)
(0 0 -7.89101e-05)
(0 0 -0.000118162)
(0 0 -0.00024142)
(0 0 -2.52404e-05)
(0 0 -3.00407e-05)
(0 0 -0.000153556)
(-0.000152413 0.000242111 0.000101378)
(0 0 -4.53282e-05)
(0 0 -0.000160768)
(0 0 -0.000513155)
(0 0 -0.000137199)
(0 0 1.8469e-05)
(0 0 -2.6396e-05)
(0.000260046 -0.000335935 0.00013959)
)
;
    }
    bottom_fluid_surface
    {
        type            noSlip;
    }
    lateral_surface_1
    {
        type            noSlip;
    }
    lateral_surface_2
    {
        type            noSlip;
    }
    lateral_surface_3
    {
        type            noSlip;
    }
    lateral_surface_4
    {
        type            noSlip;
    }
}


// ************************************************************************* //
