/*--------------------------------*- C++ -*----------------------------------*\
| =========                 |                                                 |
| \\      /  F ield         | OpenFOAM: The Open Source CFD Toolbox           |
|  \\    /   O peration     | Version:  v1612+                                |
|   \\  /    A nd           | Web:      www.OpenFOAM.com                      |
|    \\/     M anipulation  |                                                 |
\*---------------------------------------------------------------------------*/
FoamFile
{
    version     2.0;
    format      ascii;
    class       surfaceScalarField;
    location    "2.95";
    object      alphaPhi;
}
// * * * * * * * * * * * * * * * * * * * * * * * * * * * * * * * * * * * * * //

dimensions      [0 3 -1 0 0 0 0];

internalField   nonuniform List<scalar> 
2916
(
-4.4055e-06
0.418984
-0.270736
9.74477e-07
0.418981
-0.27074
-1.1254e-06
0.418982
-0.270735
-4.82638e-06
0.418985
-0.270734
-4.2465e-07
0.418984
-0.270739
0.418977
-0.270733
-1.52216e-06
0.828078
-0.25967
-8.47277e-08
0.828078
-0.259675
-3.96725e-06
0.82808
-0.259671
-4.22502e-06
0.828082
-0.259671
2.3562e-06
0.828081
-0.259675
0.828073
-0.259671
-2.60276e-06
1.12375
-0.162121
-8.2454e-08
1.12376
-0.162127
-2.55283e-06
1.12376
-0.162124
-2.5291e-06
1.12376
-0.162123
3.97984e-06
1.12376
-0.162126
1.12375
-0.162122
-4.51343e-06
1.35945
-0.127951
-4.85177e-07
1.35946
-0.127958
-1.78263e-06
1.35946
-0.127955
-2.21922e-06
1.35946
-0.127954
3.89733e-06
1.35946
-0.127957
1.35945
-0.127951
-6.3829e-06
1.56521
-0.127854
-2.24089e-06
1.56522
-0.127863
-3.05133e-06
1.56522
-0.12786
-3.28363e-06
1.56522
-0.127859
3.26432e-06
1.56521
-0.127862
1.5652
-0.127855
-7.83098e-06
1.74639
-0.133413
-4.25095e-06
1.74641
-0.133423
-4.83396e-06
1.7464
-0.13342
-4.19458e-06
1.7464
-0.13342
3.4098e-06
1.7464
-0.133424
1.74638
-0.133414
-9.78256e-06
1.87931
-0.106626
-5.80269e-06
1.87932
-0.106635
-6.52589e-06
1.87932
-0.106632
-5.40989e-06
1.87931
-0.106632
3.62465e-06
1.87931
-0.106637
1.87929
-0.106625
-8.51172e-06
1.91185
-0.0273201
-5.60435e-06
1.91186
-0.0273303
-5.98835e-06
1.91186
-0.0273272
-4.65194e-06
1.91186
-0.0273282
7.27839e-07
1.91185
-0.0273339
1.91183
-0.0273222
-6.68711e-06
1.66195
0.24991
-4.52862e-06
1.66198
0.249882
-6.17128e-06
1.66198
0.249887
-5.93241e-06
1.66198
0.249884
-3.53057e-06
1.66199
0.249871
1.66194
0.249893
-5.56719e-06
0.972944
0.689014
-4.68198e-07
0.972991
0.688992
-2.88667e-06
0.972989
0.688997
-4.95124e-06
0.972986
0.688996
-4.609e-06
0.973002
0.688986
0.972934
0.689001
6.36266e-06
0.218793
0.754147
3.9452e-06
0.218835
0.754161
3.42556e-06
0.218836
0.754156
1.33173e-06
0.218835
0.754155
-7.57215e-06
0.218857
0.754156
0.218786
0.754143
-2.74468e-05
0.211717
-2.0407e-05
0.211724
-1.13119e-05
0.211723
-6.53106e-07
0.211721
2.49323e-05
0.211728
0.211708
1.1618e-06
0.174183
-1.62155e-06
-9.79825e-07
0.174182
-1.62168e-06
-2.84775e-06
0.174184
-1.622e-06
2.58867e-06
0.17418
-1.62235e-06
7.02825e-06
0.174178
-1.62239e-06
0.174188
-1.62215e-06
3.43004e-06
0.172818
-1.13909e-05
-1.52231e-06
0.172818
-1.13904e-05
-5.10452e-07
0.172817
-1.13907e-05
2.34859e-06
0.172815
-1.13908e-05
-1.43558e-06
0.172813
-1.13902e-05
0.172818
-1.1391e-05
3.9961e-06
0.271095
-3.53228e-07
-4.95781e-07
0.271097
-3.5321e-07
7.66916e-07
0.271094
-3.5321e-07
1.83382e-06
0.271091
-3.53202e-07
-4.14907e-06
0.271091
-3.53189e-07
0.271091
-3.53232e-07
5.2788e-06
0.453935
-4.84858e-07
2.63255e-07
0.453942
-4.84898e-07
1.82374e-06
0.453935
-4.84889e-07
2.35151e-06
0.453933
-4.84836e-07
-5.21702e-06
0.453936
-4.84702e-07
0.453929
-4.84698e-07
6.62935e-06
0.729453
-5.22622e-07
6.24862e-07
0.729468
-5.22625e-07
3.36464e-06
0.72946
-5.22626e-07
4.43447e-06
0.72946
-5.22606e-07
-4.93059e-06
0.729466
-5.2257e-07
0.729452
-5.22476e-07
6.23002e-06
1.0244
-5.00661e-08
9.06478e-07
1.02443
-5.00663e-08
5.66959e-06
1.02441
-5.00663e-08
7.93864e-06
1.02442
-5.00643e-08
-1.47514e-06
1.02443
-5.00611e-08
1.0244
-5.00555e-08
8.09113e-06
1.18816
-6.87403e-09
3.55876e-06
1.1882
-6.87392e-09
8.9353e-06
1.18818
-6.87393e-09
1.10582e-05
1.18819
-6.87363e-09
2.23536e-06
1.18821
-6.87319e-09
1.18817
-6.87262e-09
1.05721e-05
1.33747
-5.27083e-09
8.24021e-06
1.33752
-5.27162e-09
1.25966e-05
1.3375
-5.26984e-09
1.26896e-05
1.33751
-5.26609e-09
3.88473e-06
1.33753
-5.26262e-09
1.3375
-5.27287e-09
1.17562e-05
1.4966
0.0251461
1.10105e-05
1.49664
0.0251444
1.24194e-05
1.49663
0.0251448
1.05221e-05
1.49663
0.0251451
2.44718e-06
1.49664
0.0251451
1.49663
0.0251465
1.61698e-05
1.55133
0.285092
1.40065e-05
1.55142
0.285066
9.55732e-06
1.5514
0.285074
4.41368e-06
1.5514
0.285075
-7.32433e-06
1.55142
0.285069
1.55138
0.285089
3.78479e-05
0.868871
1.25552
1.36928e-05
0.86904
1.2555
7.07068e-06
0.868998
1.2555
3.10825e-07
0.868996
1.25551
-2.71672e-05
0.869033
1.2555
0.868914
1.25552
-7.49561e-05
1.07328
-2.55074e-05
1.07334
-5.08016e-06
1.07332
1.01897e-05
1.07332
5.59151e-05
1.07334
1.0733
-4.31554e-12
4.58163e-08
-1.64387e-06
-2.62503e-12
4.58165e-08
-1.644e-06
-1.49528e-13
4.58207e-08
-1.64433e-06
3.89e-12
4.58239e-08
-1.64468e-06
7.23738e-12
4.58254e-08
-1.64472e-06
4.58304e-08
-1.64447e-06
-1.87161e-11
3.23206e-07
-1.1646e-05
-1.04522e-11
3.2319e-07
-1.16456e-05
-6.85673e-13
3.23194e-07
-1.16459e-05
8.16361e-12
3.23187e-07
-1.16459e-05
1.6309e-11
3.23171e-07
-1.16453e-05
3.23208e-07
-1.16462e-05
-1.52262e-12
4.76328e-08
-6.26995e-08
-5.98443e-13
4.76292e-08
-6.26984e-08
2.31927e-13
4.76295e-08
-6.26951e-08
8.20066e-13
4.76254e-08
-6.26921e-08
1.58637e-12
4.76211e-08
-6.26939e-08
4.76292e-08
-6.26997e-08
-1.13797e-12
5.13504e-08
-4.81926e-07
-2.40516e-13
5.1345e-08
-4.81967e-07
3.43753e-13
5.13462e-08
-4.81959e-07
8.0047e-13
5.13372e-08
-4.81901e-07
1.62286e-12
5.13281e-08
-4.81763e-07
5.13461e-08
-4.81768e-07
-9.54969e-13
5.2977e-08
-5.23148e-07
-1.3945e-13
5.29765e-08
-5.23157e-07
3.88588e-13
5.29769e-08
-5.23158e-07
8.11191e-13
5.29748e-08
-5.23145e-07
1.48819e-12
5.29716e-08
-5.23115e-07
5.29672e-08
-5.22996e-07
-1.04227e-13
8.14519e-09
-5.08326e-09
-2.13794e-14
8.14501e-09
-5.08393e-09
4.60868e-14
8.14504e-09
-5.08359e-09
9.96086e-14
8.1447e-09
-5.08322e-09
1.6919e-13
8.14416e-09
-5.0828e-09
8.14353e-09
-5.08076e-09
-3.56421e-15
1.31512e-09
-5.44621e-11
-7.09537e-16
1.31508e-09
-5.44767e-11
6.41391e-15
1.31508e-09
-5.44655e-11
1.13103e-14
1.31503e-09
-5.44569e-11
1.30874e-14
1.31494e-09
-5.44577e-11
1.31485e-09
-5.44249e-11
1.82495e-15
-4.04497e-09
1.02955e-11
5.93554e-16
-4.04788e-09
1.02747e-11
1.4637e-16
-4.04512e-09
1.02834e-11
-2.62891e-16
-4.04135e-09
1.0285e-11
-2.81629e-16
-4.03833e-09
1.0281e-11
-4.04765e-09
1.02907e-11
3.10822e-07
0.0226803
0.00204818
1.52437e-07
0.0226804
0.00204746
4.62378e-08
0.0226804
0.00204758
-4.87204e-09
0.0226805
0.0020477
-1.26237e-07
0.0226807
0.00204763
0.0226813
0.00204793
1.91542e-06
0.283735
0.0205523
3.70146e-07
0.283751
0.0205406
-1.33142e-07
0.283744
0.0205422
-3.84461e-09
0.283743
0.0205441
-6.49847e-07
0.283745
0.0205426
0.283745
0.0205468
6.98176e-05
0.622463
0.383785
2.90077e-05
0.62262
0.383695
1.22748e-05
0.622566
0.38371
-1.18148e-06
0.622565
0.383722
-4.54364e-05
0.622593
0.383718
0.6225
0.383742
-8.24791e-05
1.57552
-1.25298e-05
1.57556
-4.36804e-06
1.57556
1.77192e-05
1.57555
9.45153e-05
1.57555
1.57557
-3.96348e-11
-8.95346e-07
-9.11381e-07
-1.12779e-11
-8.95441e-07
-9.11469e-07
5.69291e-12
-8.9549e-07
-9.11674e-07
1.32185e-11
-8.95522e-07
-9.11904e-07
2.9815e-11
-8.95471e-07
-9.11945e-07
-8.95432e-07
-9.11781e-07
-2.05034e-10
-7.13544e-07
-9.5058e-06
-1.97862e-11
-7.13513e-07
-9.50579e-06
7.56807e-11
-7.13511e-07
-9.50607e-06
5.60029e-11
-7.13511e-07
-9.50598e-06
1.20445e-10
-7.13507e-07
-9.50529e-06
-7.13657e-07
-9.50591e-06
2.65938e-13
-2.47194e-07
-5.12205e-07
9.2482e-13
-2.47118e-07
-5.1225e-07
6.42803e-13
-2.47131e-07
-5.12211e-07
1.89903e-13
-2.47024e-07
-5.12324e-07
5.22535e-13
-2.46917e-07
-5.12468e-07
-2.47214e-07
-5.123e-07
-3.31099e-12
-2.09255e-07
-3.37647e-07
2.96501e-12
-2.09223e-07
-3.37771e-07
2.89382e-13
-2.0922e-07
-3.37758e-07
7.83392e-14
-2.09198e-07
-3.37733e-07
1.01242e-11
-2.0917e-07
-3.3761e-07
-2.09214e-07
-3.37388e-07
-1.62738e-11
-6.86071e-08
-5.25428e-07
-8.906e-12
-6.86096e-08
-5.25437e-07
-1.1015e-11
-6.86017e-08
-5.25435e-07
-8.09424e-12
-6.85958e-08
-5.25406e-07
1.25002e-11
-6.859e-08
-5.25384e-07
-6.85668e-08
-5.25382e-07
-1.5518e-13
-1.914e-10
-7.35096e-08
-9.11901e-14
-1.91456e-10
-7.35128e-08
-9.3702e-14
-1.91385e-10
-7.35046e-08
-8.44238e-14
-1.91346e-10
-7.34984e-08
3.42553e-14
-1.9135e-10
-7.34923e-08
-1.91202e-10
-7.34671e-08
-5.51702e-16
1.30157e-13
-2.47155e-10
-2.00013e-16
1.30355e-13
-2.47212e-10
4.7144e-17
1.30189e-13
-2.47135e-10
1.04298e-16
1.30095e-13
-2.47087e-10
3.47724e-16
1.30116e-13
-2.47087e-10
1.29852e-13
-2.46918e-10
-1.47807e-18
1.03386e-11
8.78106e-14
5.0822e-18
1.0318e-11
8.77694e-14
7.4913e-18
1.03265e-11
8.77876e-14
2.67699e-18
1.0328e-11
8.78077e-14
-5.11082e-18
1.0324e-11
8.77689e-14
1.03334e-11
8.78915e-14
6.25219e-09
0.001922
0.00012963
-7.3205e-09
0.0019213
0.000129623
-6.59732e-09
0.0019214
0.000129629
-1.05276e-08
0.00192152
0.000129635
-5.86854e-08
0.00192147
0.000129653
0.00192171
0.000129618
1.63248e-07
0.019063
0.00341364
1.18311e-07
0.019051
0.00341338
7.61279e-08
0.0190527
0.00341342
2.02148e-08
0.0190546
0.00341354
-6.55076e-08
0.019053
0.00341365
0.0190574
0.0034135
3.78239e-06
0.139603
0.118122
2.50675e-06
0.13962
0.118098
9.53622e-07
0.139619
0.1181
2.93848e-07
0.139612
0.11811
-4.68818e-07
0.139626
0.118102
0.139594
0.118116
-1.74944e-07
1.54918
1.03647e-05
1.54923
5.423e-05
1.54918
2.91369e-05
1.54924
-0.000139053
1.54943
1.54897
-4.21892e-66
5.23255e-63
-4.35044e-60
-5.1531e-66
5.24196e-63
-4.35892e-60
-5.56869e-66
5.24015e-63
-4.35821e-60
-5.00492e-66
5.23896e-63
-4.35816e-60
-3.19562e-66
5.23932e-63
-4.35953e-60
5.2267e-63
-4.35024e-60
-9.25414e-62
2.64435e-58
-1.10178e-55
-1.66431e-61
2.64674e-58
-1.10291e-55
-2.19161e-61
2.64503e-58
-1.10245e-55
-2.1988e-61
2.64414e-58
-1.10242e-55
-1.49463e-61
2.64442e-58
-1.10295e-55
2.63872e-58
-1.10109e-55
-1.51743e-57
5.33738e-54
-1.4585e-51
-4.04762e-57
5.3318e-54
-1.45698e-51
-5.91237e-57
5.32461e-54
-1.45551e-51
-6.27461e-57
5.32147e-54
-1.45536e-51
-4.5242e-57
5.32225e-54
-1.45647e-51
5.31263e-54
-1.45506e-51
-3.3885e-53
6.4044e-50
-1.30734e-47
-8.17519e-53
6.38472e-50
-1.30328e-47
-1.13844e-52
6.37235e-50
-1.30139e-47
-1.19017e-52
6.36867e-50
-1.30181e-47
-8.67554e-53
6.37304e-50
-1.30479e-47
6.36795e-50
-1.304e-47
-2.50583e-47
2.06536e-44
-1.38956e-41
-4.64375e-47
2.05727e-44
-1.38615e-41
-5.83457e-47
2.05196e-44
-1.38413e-41
-5.90976e-47
2.06482e-44
-1.39447e-41
-4.03297e-47
2.11543e-44
-1.43063e-41
2.02734e-44
-1.37207e-41
-4.05265e-42
1.69726e-39
-7.24036e-37
-6.07352e-42
1.70745e-39
-7.30096e-37
-6.71078e-42
1.71256e-39
-7.33404e-37
-6.26505e-42
1.73068e-39
-7.42124e-37
-4.06045e-42
1.77956e-39
-7.6402e-37
1.70809e-39
-7.34763e-37
-4.06672e-38
1.15795e-35
-3.59986e-33
-5.07903e-38
1.18699e-35
-3.70639e-33
-4.78622e-38
1.20086e-35
-3.75768e-33
-3.86647e-38
1.2194e-35
-3.82094e-33
-2.22821e-38
1.25589e-35
-3.9394e-33
1.20386e-35
-3.78319e-33
-4.84102e-35
1.38346e-32
-3.15965e-30
-4.27616e-35
1.45288e-32
-3.34477e-30
-2.22472e-35
1.48018e-32
-3.41661e-30
-2.93242e-36
1.50301e-32
-3.47183e-30
6.60386e-36
1.53842e-32
-3.55218e-30
1.45626e-32
-3.3618e-30
-1.6287e-33
1.85947e-30
-2.85115e-28
3.3693e-33
2.00045e-30
-3.11684e-28
8.92135e-33
2.02877e-30
-3.17148e-28
1.17173e-32
2.0216e-30
-3.14844e-28
9.64338e-33
2.00922e-30
-3.10813e-28
1.82122e-30
-2.78709e-28
3.45594e-35
9.61513e-33
1.31146e-34
8.93193e-35
1.02424e-32
1.09863e-34
1.29523e-34
1.03733e-32
1.2019e-34
1.40308e-34
1.03687e-32
1.45583e-34
1.05847e-34
1.03651e-32
1.8465e-34
9.49367e-33
2.19207e-34
8.05487e-34
5.67306e-32
4.13852e-32
1.22437e-33
5.68515e-32
4.18281e-32
1.39399e-33
5.6917e-32
4.21505e-32
1.34512e-33
5.70384e-32
4.25054e-32
9.66703e-34
5.72826e-32
4.2995e-32
5.76253e-32
4.36273e-32
1.63855e-31
2.71864e-29
1.34404e-31
2.74509e-29
6.72459e-32
2.75176e-29
1.35711e-32
2.75502e-29
-7.9892e-33
2.76108e-29
2.7709e-29
-3.54965e-63
4.5621e-60
-2.84123e-57
-4.46707e-63
4.56912e-60
-2.84676e-57
-4.56193e-63
4.5669e-60
-2.84629e-57
-3.73975e-63
4.5655e-60
-2.84623e-57
-2.03154e-63
4.56574e-60
-2.8471e-57
4.55489e-60
-2.84103e-57
-1.39003e-58
2.30595e-55
-7.12963e-53
-1.92468e-58
2.30831e-55
-7.14021e-53
-2.02884e-58
2.30669e-55
-7.13806e-53
-1.72537e-58
2.30573e-55
-7.13774e-53
-1.00529e-58
2.30579e-55
-7.14043e-53
2.3006e-55
-7.12719e-53
-3.69258e-54
4.55313e-51
-9.12256e-49
-5.23837e-54
4.55281e-51
-9.12691e-49
-5.53642e-54
4.54763e-51
-9.1213e-49
-4.83658e-54
4.54481e-51
-9.12023e-49
-3.04601e-54
4.54477e-51
-9.12497e-49
4.53531e-51
-9.11192e-49
-6.47642e-50
5.39551e-47
-1.1425e-44
-8.9868e-50
5.38851e-47
-1.1413e-44
-9.32523e-50
5.37975e-47
-1.13912e-44
-8.12015e-50
5.37662e-47
-1.14055e-44
-5.22189e-50
5.38085e-47
-1.14937e-44
5.36513e-47
-1.13082e-44
-1.26172e-43
7.25115e-41
-4.22863e-38
-1.64117e-43
7.24034e-41
-4.23121e-38
-1.62116e-43
7.2217e-41
-4.22564e-38
-1.38574e-43
7.26147e-41
-4.25324e-38
-8.37719e-44
7.42875e-41
-4.35482e-38
7.09479e-41
-4.16304e-38
-1.09679e-38
4.89489e-36
-1.59954e-33
-1.28004e-38
4.91309e-36
-1.6106e-33
-1.1341e-38
4.916e-36
-1.61411e-33
-8.72347e-39
4.95568e-36
-1.62882e-33
-4.87452e-39
5.07998e-36
-1.67084e-33
4.8576e-36
-1.59948e-33
-7.34525e-35
3.12519e-32
-6.54751e-30
-6.53853e-35
3.16671e-32
-6.66641e-30
-3.69326e-35
3.18299e-32
-6.71285e-30
-1.07125e-35
3.21726e-32
-6.79053e-30
3.12044e-36
3.30052e-32
-6.96731e-30
3.15322e-32
-6.65917e-30
-4.12955e-32
3.7507e-29
-5.25301e-27
1.79614e-32
3.84252e-29
-5.417e-27
8.85454e-32
3.8727e-29
-5.46915e-27
1.27804e-31
3.91201e-29
-5.52385e-27
1.09523e-31
3.99615e-29
-5.63399e-27
3.78865e-29
-5.33174e-27
9.67483e-30
5.69638e-27
-5.13626e-25
2.9417e-29
5.89624e-27
-5.36689e-25
4.4657e-29
5.91961e-27
-5.39969e-25
4.92784e-29
5.89831e-27
-5.35422e-25
3.74823e-29
5.91419e-27
-5.33709e-25
5.45485e-27
-4.87237e-25
2.52055e-31
4.29434e-29
4.06219e-30
3.93768e-31
4.42059e-29
4.15475e-30
4.39267e-31
4.43954e-29
4.23198e-30
4.01893e-31
4.44333e-29
4.33236e-30
2.67537e-31
4.48287e-29
4.50684e-30
4.17588e-29
4.36418e-30
9.55729e-31
1.36672e-28
1.2571e-28
9.95043e-31
1.37118e-28
1.26893e-28
6.86291e-31
1.37616e-28
1.27544e-28
3.24024e-31
1.38286e-28
1.28125e-28
2.1142e-32
1.39257e-28
1.28884e-28
1.40271e-28
1.29615e-28
-2.26993e-28
6.79401e-26
-4.79683e-28
6.836e-26
-6.64741e-28
6.85017e-26
-7.01244e-28
6.8569e-26
-5.4732e-28
6.86945e-26
6.86489e-26
-7.60837e-61
1.46049e-57
-6.32881e-55
-9.66941e-61
1.46296e-57
-6.34133e-55
-9.35921e-61
1.46248e-57
-6.34048e-55
-6.86227e-61
1.46226e-57
-6.34051e-55
-2.96565e-61
1.46261e-57
-6.34257e-55
1.45947e-57
-6.32914e-55
-3.4074e-56
7.31891e-53
-1.55697e-50
-4.3109e-56
7.32946e-53
-1.55972e-50
-4.01938e-56
7.32638e-53
-1.55942e-50
-2.88092e-56
7.32506e-53
-1.55942e-50
-1.26422e-56
7.32688e-53
-1.55998e-50
7.31219e-53
-1.55696e-50
-8.91834e-52
1.3922e-48
-1.89076e-46
-1.0734e-51
1.39347e-48
-1.89323e-46
-9.56011e-52
1.39265e-48
-1.89261e-46
-6.712e-52
1.39232e-48
-1.89255e-46
-3.083e-52
1.39272e-48
-1.89338e-46
1.39021e-48
-1.89017e-46
-1.95488e-47
2.26144e-44
-1.80314e-41
-2.17549e-47
2.26068e-44
-1.80203e-41
-1.7867e-47
2.25648e-44
-1.79597e-41
-1.14478e-47
2.25884e-44
-1.80207e-41
-4.56533e-48
2.27519e-44
-1.83595e-41
2.23643e-44
-1.75654e-41
-1.00098e-40
9.66324e-38
-5.30676e-35
-9.27953e-41
9.66655e-38
-5.31592e-35
-5.7633e-41
9.65009e-38
-5.30931e-35
-1.97727e-41
9.708e-38
-5.34226e-35
5.43746e-42
9.93107e-38
-5.46403e-35
9.47903e-38
-5.21467e-35
-2.73694e-36
3.72286e-33
-1.18501e-30
-6.66157e-37
3.73406e-33
-1.19114e-30
2.10658e-36
3.73524e-33
-1.19204e-30
3.90868e-36
3.76465e-33
-1.20129e-30
3.70916e-36
3.85697e-33
-1.22995e-30
3.68593e-33
-1.17466e-30
1.33031e-32
1.52234e-29
-3.45983e-27
3.7993e-32
1.53354e-29
-3.49704e-27
5.66358e-32
1.53773e-29
-3.50787e-27
6.17948e-32
1.55269e-29
-3.53947e-27
4.695e-32
1.59204e-29
-3.62337e-27
1.52181e-29
-3.45671e-27
6.04024e-29
1.37594e-26
-2.25337e-24
1.02863e-28
1.39192e-26
-2.28942e-24
1.22812e-28
1.39734e-26
-2.29779e-24
1.17765e-28
1.41099e-26
-2.3155e-24
8.15069e-29
1.444e-26
-2.36057e-24
1.37641e-26
-2.23962e-24
2.16428e-26
2.426e-24
-2.25179e-22
2.97517e-26
2.4508e-24
-2.27806e-22
3.01089e-26
2.45928e-24
-2.28761e-22
2.46958e-26
2.46458e-24
-2.26842e-22
1.44775e-26
2.51017e-24
-2.29476e-22
2.37215e-24
-2.14067e-22
5.44583e-25
6.30728e-23
-7.15489e-21
6.99009e-25
6.17327e-23
-6.94406e-21
6.1957e-25
5.76407e-23
-6.39046e-21
4.35609e-25
5.36063e-23
-5.91164e-21
1.74678e-25
3.98391e-23
-3.78902e-21
3.99049e-23
-4.23235e-21
2.43341e-28
6.05393e-26
1.1203e-24
-1.78989e-27
6.23765e-26
1.11276e-24
-3.88472e-27
6.20939e-26
1.07129e-24
-4.46887e-27
6.13472e-26
1.02606e-24
-3.7666e-27
5.5513e-26
9.06306e-25
5.44714e-26
8.71481e-25
-1.50585e-25
3.31894e-23
-2.78564e-25
3.3444e-23
-3.39305e-25
3.35208e-23
-3.36916e-25
3.35619e-23
-1.37605e-25
3.34804e-23
3.35658e-23
-6.57913e-59
2.04047e-55
-4.88426e-53
-7.79264e-59
2.04389e-55
-4.89394e-53
-6.25705e-59
2.04341e-55
-4.89337e-53
-3.28763e-59
2.04338e-55
-4.89348e-53
-3.60241e-60
2.04415e-55
-4.89512e-53
2.04e-55
-4.88481e-53
-3.47335e-54
1.00924e-50
-1.16588e-48
-3.3392e-54
1.01082e-50
-1.1681e-48
-2.01173e-54
1.01057e-50
-1.16794e-48
-4.30587e-55
1.01058e-50
-1.16797e-48
5.96883e-55
1.011e-50
-1.16838e-48
1.00909e-50
-1.16605e-48
-7.90023e-50
1.85404e-46
-1.32802e-44
-6.11625e-50
1.85653e-46
-1.33031e-44
-2.0327e-50
1.85606e-46
-1.33007e-44
1.70522e-50
1.85616e-46
-1.33009e-44
3.12019e-50
1.85707e-46
-1.33058e-44
1.85385e-46
-1.32808e-44
-8.38127e-45
2.41043e-41
-4.09956e-38
-2.98814e-45
2.40925e-41
-4.0995e-38
4.69958e-45
2.40146e-41
-4.08567e-38
1.00634e-44
2.40984e-41
-4.10071e-38
9.99998e-45
2.45503e-41
-4.18277e-38
2.34814e-41
-3.98509e-38
1.64336e-39
9.51696e-35
-4.16838e-32
4.13247e-38
9.52861e-35
-4.17615e-32
7.87129e-38
9.51483e-35
-4.17002e-32
9.58208e-38
9.57238e-35
-4.19431e-32
7.78597e-38
9.78723e-35
-4.28614e-32
9.33407e-35
-4.08628e-32
1.83219e-33
2.93808e-30
-5.71339e-28
3.8171e-33
2.94537e-30
-5.73136e-28
5.07537e-33
2.94382e-30
-5.72746e-28
5.25078e-33
2.96417e-30
-5.7648e-28
3.86693e-33
3.03259e-30
-5.89324e-28
2.89389e-30
-5.62005e-28
1.61011e-29
1.19617e-26
-1.21968e-24
2.64261e-29
1.20119e-26
-1.22553e-24
3.09885e-29
1.2015e-26
-1.22549e-24
2.96703e-29
1.21055e-26
-1.23402e-24
2.06713e-29
1.23854e-26
-1.26118e-24
1.1821e-26
-1.20236e-24
2.25041e-26
1.18382e-23
-6.4395e-22
3.22433e-26
1.19032e-23
-6.47613e-22
3.39713e-26
1.19065e-23
-6.474e-22
3.0193e-26
1.19928e-23
-6.51569e-22
1.96504e-26
1.22521e-23
-6.64371e-22
1.16853e-23
-6.32837e-22
4.64789e-24
2.64278e-21
-6.81142e-20
5.2658e-24
2.64014e-21
-6.73429e-20
4.15852e-24
2.65291e-21
-6.82398e-20
2.64808e-24
2.64803e-21
-6.7276e-20
8.75435e-25
2.71345e-21
-6.94619e-20
2.58287e-21
-6.60195e-20
1.53374e-22
4.25194e-19
-1.01847e-17
-2.09356e-22
4.23723e-19
-1.00648e-17
-6.81293e-22
4.15169e-19
-9.72656e-18
-6.4468e-22
4.1852e-19
-9.91082e-18
-8.6051e-22
3.02512e-19
-5.14268e-18
4.05155e-19
-9.5151e-18
-3.55451e-23
1.07723e-20
1.44072e-20
-3.75436e-23
8.8281e-21
1.51601e-19
-6.11841e-23
6.18434e-21
2.08553e-19
-2.55144e-23
8.73909e-21
1.49606e-19
-3.85652e-23
4.17964e-21
2.27147e-19
8.39183e-21
1.50917e-19
-9.80699e-25
4.14532e-22
-8.66853e-25
3.88326e-22
-9.86383e-25
3.07975e-22
-4.33985e-25
3.97102e-22
-9.07744e-25
2.67532e-22
3.76121e-22
9.73292e-12
-2.53973e-07
4.95352e-08
1.01651e-11
-2.53938e-07
4.95593e-08
7.70647e-14
-2.54027e-07
4.95613e-08
-9.54201e-12
-2.5414e-07
4.95786e-08
-9.33176e-12
-2.54188e-07
4.96052e-08
-2.54177e-07
4.95484e-08
1.4867e-12
4.81495e-15
1.22928e-08
4.39007e-13
5.27412e-15
1.22846e-08
-2.92354e-13
5.41363e-15
1.22889e-08
-8.83253e-13
5.29324e-15
1.22887e-08
-1.64195e-12
5.26205e-15
1.22795e-08
5.38764e-15
1.22929e-08
-6.30053e-20
-7.24834e-17
-1.75726e-20
-7.93854e-17
8.53369e-21
-8.14869e-17
2.89899e-20
-7.96747e-17
7.68624e-20
-7.9203e-17
-8.11017e-17
9.68525e-11
-3.7324e-06
1.25652e-06
-8.55571e-12
-3.73221e-06
1.25657e-06
-8.77255e-11
-3.73253e-06
1.2566e-06
-1.13663e-10
-3.73242e-06
1.25656e-06
-1.40221e-10
-3.73164e-06
1.25651e-06
-3.73249e-06
1.25652e-06
4.5435e-11
2.78953e-14
1.36234e-07
6.00794e-12
3.05537e-14
1.36201e-07
-1.93388e-11
3.13637e-14
1.36224e-07
-3.82938e-11
3.0666e-14
1.36221e-07
-7.45092e-11
3.04851e-14
1.36171e-07
3.12155e-14
1.36242e-07
-3.37447e-19
-5.78744e-16
-9.14157e-20
-6.33827e-16
6.90404e-20
-6.50652e-16
2.20152e-19
-6.36188e-16
5.09509e-19
-6.32436e-16
-6.47666e-16
1.02721e-11
-2.05339e-07
-2.45023e-08
3.02342e-12
-2.05319e-07
-2.45268e-08
-2.64316e-12
-2.05313e-07
-2.45169e-08
-7.97843e-12
-2.05355e-07
-2.45544e-08
-1.49266e-11
-2.05395e-07
-2.45812e-08
-2.05399e-07
-2.44913e-08
1.64854e-12
1.8121e-13
9.9175e-09
6.8009e-13
1.98484e-13
9.91519e-09
1.48534e-13
2.03741e-13
9.91549e-09
-6.28994e-13
1.99209e-13
9.9169e-09
-2.36535e-12
1.98036e-13
9.91811e-09
2.02766e-13
9.92129e-09
-2.1429e-18
-6.49078e-15
-5.93909e-19
-7.10901e-15
4.24317e-19
-7.29748e-15
1.29805e-18
-7.13522e-15
3.01431e-18
-7.09324e-15
-7.26331e-15
6.97048e-12
-9.88679e-09
3.96491e-08
1.88663e-12
-9.88449e-09
3.96273e-08
-2.70267e-12
-9.88478e-09
3.96355e-08
-7.66711e-12
-9.8862e-09
3.95919e-08
-1.4011e-11
-9.88743e-09
3.95639e-08
-9.89059e-09
3.96622e-08
8.05345e-15
1.51388e-13
3.05543e-11
5.37077e-15
1.6581e-13
3.05333e-11
3.08527e-15
1.70195e-13
3.05341e-11
-5.98896e-16
1.664e-13
3.05333e-11
-8.00751e-15
1.65421e-13
3.05227e-11
1.69369e-13
3.05236e-11
-2.01268e-18
-2.90741e-15
-6.88304e-19
-3.18407e-15
-4.43139e-20
-3.26824e-15
5.67242e-19
-3.1953e-15
2.16367e-18
-3.17642e-15
-3.25243e-15
8.97915e-12
-2.21981e-07
1.15318e-07
3.12286e-12
-2.21993e-07
1.15313e-07
-2.07925e-12
-2.21979e-07
1.15309e-07
-7.77774e-12
-2.21982e-07
1.15299e-07
-1.47769e-11
-2.21976e-07
1.15289e-07
-2.21905e-07
1.1529e-07
3.99522e-12
4.72816e-15
1.63493e-09
2.69224e-12
5.18284e-15
1.63294e-09
1.39516e-12
5.32536e-15
1.63359e-09
-3.26982e-13
5.20515e-15
1.63369e-09
-3.29043e-12
5.17198e-15
1.63275e-09
5.23908e-15
1.63552e-09
-5.94999e-20
-1.72448e-17
-1.98873e-20
-1.88992e-17
-2.78535e-21
-1.94105e-17
1.56811e-20
-1.89657e-17
7.16586e-20
-1.88424e-17
-1.90795e-17
1.2404e-12
-1.63493e-09
2.36369e-10
6.91633e-13
-1.63294e-09
2.36379e-10
1.93869e-13
-1.63359e-09
2.36327e-10
-2.95331e-13
-1.63369e-09
2.3629e-10
-1.32097e-12
-1.63275e-09
2.36292e-10
-1.63552e-09
2.36222e-10
1.19631e-15
2.57875e-18
1.14407e-15
5.19932e-16
2.77849e-18
1.13895e-15
1.38997e-16
2.84475e-18
1.14226e-15
-1.36234e-16
2.79169e-18
1.14472e-15
-8.3384e-16
2.77424e-18
1.14144e-15
2.81551e-18
1.1575e-15
-2.05299e-23
3.61662e-19
4.99558e-25
3.57522e-19
8.77596e-24
3.60218e-19
1.30673e-23
3.62461e-19
3.31163e-23
3.60935e-19
3.71574e-19
-2.81508e-15
2.45061e-14
1.00277e-11
-3.49044e-16
2.43945e-14
1.00293e-11
-4.19876e-16
2.44674e-14
1.00276e-11
1.55749e-15
2.45216e-14
1.00274e-11
6.98131e-15
2.44494e-14
1.0027e-11
2.47979e-14
1.00217e-11
-1.14231e-19
1.97353e-17
7.5587e-14
-1.02789e-19
1.95099e-17
7.52319e-14
-7.62579e-20
1.9656e-17
7.54523e-14
-1.33577e-19
1.97768e-17
7.56145e-14
-1.04707e-19
1.96941e-17
7.53738e-14
2.02704e-17
7.64887e-14
-9.36389e-23
-2.8419e-20
3.18316e-23
-2.81805e-20
1.2748e-22
-2.83845e-20
1.8838e-22
-2.84862e-20
3.27145e-22
-2.84456e-20
-2.90564e-20
2.459e-18
6.98593e-13
9.69053e-12
-2.1476e-18
6.95257e-13
9.6955e-12
-1.87099e-18
6.97239e-13
9.69182e-12
7.09353e-19
6.98658e-13
9.69019e-12
8.85525e-18
6.96365e-13
9.69212e-12
7.06787e-13
9.67638e-12
3.3754e-18
6.57324e-15
1.31092e-12
8.50538e-18
6.53603e-15
1.30451e-12
1.66713e-17
6.56229e-15
1.30821e-12
9.99164e-18
6.58116e-15
1.31081e-12
1.13503e-17
6.56413e-15
1.30628e-12
6.66515e-15
1.3263e-12
-5.65296e-20
-1.79294e-16
3.0629e-20
-1.78255e-16
9.12697e-20
-1.78947e-16
8.24194e-20
-1.79345e-16
2.39283e-19
-1.79027e-16
-1.81681e-16
5.98195e-11
2.32351e-13
0.000129867
1.28579e-09
2.31657e-13
0.000129859
1.40762e-09
2.31937e-13
0.000129866
3.9267e-10
2.31947e-13
0.000129874
-2.4774e-09
2.30614e-13
0.000129894
2.35573e-13
0.000129852
-2.42751e-17
1.9661e-12
-1.63366e-12
1.29632e-16
1.95653e-12
-1.62535e-12
1.91515e-16
1.96186e-12
-1.62992e-12
5.86345e-17
1.9655e-12
-1.63299e-12
-2.77143e-16
1.959e-12
-1.6275e-12
1.98811e-12
-1.65212e-12
2.34793e-17
-5.66333e-13
6.55657e-17
-5.63396e-13
1.16962e-16
-5.65093e-13
5.03433e-17
-5.66057e-13
-7.59555e-17
-5.64225e-13
-5.72659e-13
3.38892e-09
0.000320657
0.00321372
2.06678e-08
0.000320635
0.00321346
3.63256e-08
0.000320637
0.00321351
2.92335e-08
0.00032066
0.00321364
1.0282e-08
0.000320677
0.00321376
0.000320647
0.00321359
1.22801e-09
1.35038e-05
0.00030742
1.75762e-09
1.35024e-05
0.000307401
2.08072e-09
1.35033e-05
0.000307401
1.43522e-09
1.35058e-05
0.000307423
-3.89775e-09
1.35121e-05
0.00030744
1.34995e-05
0.000307412
5.02901e-11
1.33725e-05
-3.42617e-11
1.33724e-05
-6.10066e-11
1.33722e-05
-9.19574e-11
1.33763e-05
-4.44734e-10
1.33848e-05
1.3362e-05
4.6729e-07
0.0114133
0.109915
5.07999e-07
0.0114113
0.109892
8.76208e-07
0.0114122
0.109894
4.69188e-07
0.0114115
0.109905
-7.66432e-07
0.0114038
0.109906
0.0114213
0.1099
8.48229e-08
0.000667706
0.0110516
9.53882e-08
0.000667772
0.0110496
1.243e-07
0.000667791
0.0110504
5.17508e-08
0.000667777
0.01105
-2.15975e-07
0.000667725
0.0110426
0.000667987
0.0110588
4.04289e-09
0.000622551
4.67885e-09
0.000622621
1.16776e-08
0.000622636
1.84178e-09
0.000622623
-4.58004e-08
0.000622569
0.000622836
2.94968e-05
0.419947
1.01107
2.91264e-05
0.41997
1.01112
-4.20068e-05
0.419995
1.01111
4.79511e-05
0.41987
1.0112
0.000333553
0.419516
1.01156
0.420316
1.01078
1.13683e-05
0.0156621
0.320155
1.39477e-06
0.0156625
0.320156
-2.39309e-05
0.0156665
0.32023
1.12769e-06
0.0156635
0.320057
8.46249e-05
0.0156478
0.319368
0.0156912
0.320952
2.26798e-07
0.0112471
6.32599e-07
0.0112466
1.1612e-06
0.0112493
9.70263e-07
0.0112473
-1.68432e-06
0.0112366
0.01127
7.28297e-10
1.99821e-06
-1.99888e-06
-2.23326e-14
3.84149e-10
1.99995e-06
-1.99957e-06
-2.21895e-14
1.19549e-09
1.99815e-06
-1.99887e-06
-2.77561e-14
3.16623e-10
2.00997e-06
-2.00908e-06
-2.91842e-14
-9.18555e-09
2.04361e-06
-2.03411e-06
-3.74784e-14
1.95963e-06
-1.96811e-06
-2.32251e-14
6.65328e-11
-5.75597e-24
2.03268e-06
-3.45373e-08
3.33738e-11
-5.79189e-24
2.03529e-06
-3.53115e-08
1.41469e-10
-5.71955e-24
2.03434e-06
-3.63006e-08
2.45855e-12
-5.82158e-24
2.0465e-06
-3.63898e-08
-5.88244e-10
-4.13339e-25
2.07924e-06
-3.50378e-08
-4.81082e-24
1.99028e-06
-3.13144e-08
1.6952e-27
1.28184e-21
-1.2876e-21
-3.57119e-26
1.3003e-21
-1.30605e-21
-1.45521e-25
1.26856e-21
-1.27417e-21
-4.21144e-27
1.32305e-21
-1.32901e-21
4.11981e-26
9.9939e-23
-1.00398e-22
1.00832e-21
-1.01309e-21
-4.87051e-08
0.000110789
-0.000121366
-2.60542e-08
0.000110553
-0.000121175
-2.11226e-07
0.00011068
-0.000121102
-3.10116e-08
0.000110987
-0.000121815
6.5189e-07
0.000111568
-0.000122993
0.000109893
-0.000119747
3.99866e-09
5.46263e-06
0.00010713
2.79786e-09
5.44776e-06
0.000106917
6.15325e-09
5.45259e-06
0.000107033
-6.5256e-10
5.49036e-06
0.000107323
-3.2572e-08
5.58372e-06
0.000107864
5.34944e-06
0.00010628
2.72099e-07
-0.0181312
5.77734e-06
-0.0180337
1.73646e-05
-0.0179918
4.76401e-06
-0.0184023
-5.94144e-05
-0.0193951
-0.0171061
-2.97974e-06
-0.0231229
0.00204564
5.17097e-07
-0.0230621
0.00204377
5.92746e-08
-0.02306
0.00204281
2.54983e-06
-0.0232445
0.00204875
2.31559e-06
-0.023556
0.00205309
-0.0227511
0.00204336
1.06742e-05
0.117597
-0.233251
8.17293e-06
0.117507
-0.23256
1.24646e-05
0.117435
-0.232473
-4.9764e-06
0.117978
-0.234582
-2.88653e-05
0.119276
-0.239083
0.116214
-0.228401
4.75675e-05
-0.351574
3.5761e-05
-0.351561
0.000201963
-0.351322
8.55437e-05
-0.352493
-0.000818773
-0.355507
-0.348349
-1.00942e-06
-0.0322494
-0.0210795
7.81365e-06
-0.0322952
-0.02105
1.49318e-05
-0.0322744
-0.0210259
9.14698e-06
-0.032151
-0.0211974
-2.76008e-05
-0.0318216
-0.0215283
-0.0325858
-0.0207065
4.42571e-05
0.378917
-0.902977
9.07349e-05
0.37933
-0.90226
0.000335751
0.379115
-0.902106
0.000130412
0.378934
-0.904724
-0.0010466
0.378979
-0.910652
0.379136
-0.896714
0.000100837
-0.217448
4.49808e-06
-0.217379
-8.21168e-07
-0.217675
7.82348e-06
-0.216583
-2.26418e-05
-0.213884
-0.220468
5.95367e-05
0.188252
-0.378026
3.46091e-05
0.188297
-0.377945
3.81078e-05
0.188277
-0.377927
4.10264e-05
0.188311
-0.378241
2.28415e-05
0.188557
-0.379094
0.188158
-0.377142
1.58687e-05
0.162264
-0.792054
8.74728e-05
0.162671
-0.792378
6.62553e-05
0.162607
-0.792557
1.48355e-05
0.161984
-0.791018
0.000137151
0.160851
-0.787666
0.164279
-0.796283
-7.48931e-07
-0.0304897
8.164e-07
-0.0304998
-4.73161e-06
-0.0305083
1.2165e-06
-0.0304688
3.37824e-05
-0.0303794
-0.0307325
2.60983e-06
0.492951
4.53892e-05
0.493051
6.90203e-05
0.493079
8.48585e-05
0.49287
4.31687e-05
0.492428
0.493564
2.97526e-06
0.0257886
1.37304e-05
0.0257961
8.78486e-06
0.0258055
2.1721e-05
0.0257652
3.18749e-05
0.0256193
0.0259294
-1.07042e-07
6.65564e-07
-6.93561e-07
1.09463e-06
9.17896e-06
-5.06691e-58
-9.93609e-55
8.88027e-54
-9.66566e-58
-9.95711e-55
8.89746e-54
-7.18806e-58
-9.95692e-55
8.89682e-54
-1.42191e-58
-9.95728e-55
8.89753e-54
2.02223e-58
-9.96006e-55
8.90127e-54
-9.93828e-55
8.88309e-54
2.81006e-60
-4.36742e-58
9.88304e-56
-5.29006e-60
-4.37717e-58
9.90375e-56
-5.57802e-60
-4.37704e-58
9.90391e-56
-3.79586e-60
-4.37722e-58
9.90472e-56
-3.69472e-60
-4.37854e-58
9.90805e-56
-4.36858e-58
9.88675e-56
-5.73629e-64
1.07055e-59
-1.30408e-63
1.07294e-59
-1.27654e-63
1.07296e-59
-1.33761e-63
1.07307e-59
-1.66004e-63
1.07347e-59
1.07107e-59
-4.44503e-53
-4.82849e-50
4.22519e-49
-2.71402e-53
-4.8384e-50
4.23358e-49
1.71464e-53
-4.83835e-50
4.23345e-49
5.20511e-53
-4.83852e-50
4.23401e-49
5.65717e-53
-4.8398e-50
4.2359e-49
-4.82982e-50
4.22772e-49
-8.7487e-56
-2.46053e-53
9.73583e-51
1.30839e-55
-2.46585e-53
9.75609e-51
5.25699e-55
-2.46579e-53
9.7566e-51
7.29739e-55
-2.46588e-53
9.75764e-51
4.9889e-55
-2.46656e-53
9.76084e-51
-2.4612e-53
9.74119e-51
-1.82329e-59
9.863e-55
1.76159e-59
9.88481e-55
6.79864e-59
9.88536e-55