/*--------------------------------*- C++ -*----------------------------------*\
| =========                 |                                                 |
| \\      /  F ield         | OpenFOAM: The Open Source CFD Toolbox           |
|  \\    /   O peration     | Version:  v1612+                                |
|   \\  /    A nd           | Web:      www.OpenFOAM.com                      |
|    \\/     M anipulation  |                                                 |
\*---------------------------------------------------------------------------*/
FoamFile
{
    version     2.0;
    format      ascii;
    class       volScalarField;
    location    "2.95";
    object      p_rgh;
}
// * * * * * * * * * * * * * * * * * * * * * * * * * * * * * * * * * * * * * //

dimensions      [1 -1 -2 0 0 0 0];

internalField   nonuniform List<scalar> 
1116
(
12660.8
12660.8
12660.8
12660.8
12660.8
12660.8
12117.1
12117.1
12117
12117
12117
12117
11567.1
11567
11567
11567
11567
11567
11698.2
11698.2
11698.2
11698.2
11698.1
11698.2
12344.4
12344.4
12344.4
12344.4
12344.4
12344.4
13198.7
13198.7
13198.7
13198.7
13198.7
13198.7
14101.4
14101.4
14101.4
14101.4
14101.4
14101.4
15437.3
15437.3
15437.3
15437.3
15437.3
15437.3
17569.3
17569.3
17569.3
17569.3
17569.3
17569.3
20707
20707
20707
20707
20707
20707.1
24998.7
24998.7
24998.7
24998.7
24998.7
24998.7
27745.8
27745.8
27745.8
27745.7
27745.8
27745.7
6637.93
6637.96
6637.92
6637.88
6637.88
6637.86
3586.66
3586.63
3586.64
3586.58
3586.54
3586.64
3090.13
3090.1
3090.1
3090.06
3090.02
3090.09
3684.92
3684.87
3684.88
3684.85
3684.8
3684.87
4916.62
4916.55
4916.58
4916.56
4916.5
4916.58
6449.69
6449.63
6449.68
6449.67
6449.62
6449.67
7655.72
7655.67
7655.7
7655.7
7655.67
7655.69
7690.01
7689.96
7689.98
7689.98
7689.98
7689.97
8203.72
8203.57
8203.61
8203.61
8203.6
8203.68
13175.8
13175.2
13175.4
13175.4
13175.3
13175.7
25488.6
25488.3
25488.4
25488.4
25488.4
25488.6
31105.2
31105.4
31105.4
31105.4
31105.5
31105.3
3.82632
3.82657
3.82656
3.82672
3.82689
3.82657
8.22053
8.22089
8.22083
8.22085
8.221
8.22068
8.17389
8.17429
8.17435
8.17446
8.17466
8.17434
6.12805
6.12872
6.12871
6.12869
6.12877
6.12824
-0.793765
-0.792763
-0.792712
-0.792886
-0.793039
-0.79366
-9.68539
-9.68425
-9.68361
-9.68364
-9.68402
-9.68477
-18.1651
-18.1651
-18.1639
-18.1638
-18.1641
-18.1643
52.0378
52.0356
52.0358
52.0348
52.0342
52.0348
222.323
222.314
222.312
222.312
222.311
222.316
611.03
610.974
610.975
610.977
610.972
611
14693.1
14691.5
14691.9
14692.1
14691.8
14692.5
32542
32542.2
32542.2
32542.1
32541.9
32542.5
7.08111
7.08126
7.08128
7.08123
7.08116
7.08109
9.47452
9.4748
9.47483
9.4748
9.47477
9.47467
9.33202
9.33223
9.3322
9.33212
9.33216
9.33206
9.16733
9.16768
9.1675
9.16728
9.16733
9.16694
6.51641
6.51677
6.51649
6.51623
6.51613
6.51538
-0.0675074
-0.0673104
-0.0674524
-0.0675754
-0.0677333
-0.0687199
-9.85094
-9.85088
-9.85085
-9.85104
-9.85142
-9.8526
-16.548
-16.5481
-16.5483
-16.5486
-16.5488
-16.5506
-1.78049
-1.78036
-1.78235
-1.78413
-1.78523
-1.78257
21.2873
21.2894
21.2914
21.2905
21.2884
21.2863
737.675
736.965
737.075
737.191
737.057
737.369
33078.2
33077.1
33077
33077.5
33078
33076.7
-0.300597
-0.300589
-0.300588
-0.300587
-0.300587
-0.300587
-0.315013
-0.315007
-0.315006
-0.315005
-0.315005
-0.315005
-0.344242
-0.344238
-0.344234
-0.344231
-0.344228
-0.344227
-0.388858
-0.388853
-0.388845
-0.388835
-0.388824
-0.388816
-0.449412
-0.449398
-0.449376
-0.449349
-0.449323
-0.449303
-0.525864
-0.525829
-0.525781
-0.525727
-0.525679
-0.525642
-0.619158
-0.619089
-0.619012
-0.618937
-0.618877
-0.618836
-0.730648
-0.730564
-0.730511
-0.730482
-0.730476
-0.730484
-0.857383
-0.857375
-0.857451
-0.857576
-0.857724
-0.857854
-0.989449
-0.989562
-0.989803
-0.990123
-0.990458
-0.990728
-1.14291
-1.14314
-1.14343
-1.14374
-1.14402
-1.14424
-1.1762
-1.17631
-1.17637
-1.1764
-1.1764
-1.17641
-0.286642
-0.286639
-0.286638
-0.286637
-0.286637
-0.286638
-0.301373
-0.30137
-0.301367
-0.301366
-0.301366
-0.301367
-0.331486
-0.33148
-0.331474
-0.331469
-0.331466
-0.331465
-0.378301
-0.378288
-0.378274
-0.378259
-0.378248
-0.37824
-0.444535
-0.444508
-0.444477
-0.444444
-0.444416
-0.444397
-0.536558
-0.536503
-0.536447
-0.536393
-0.53635
-0.536322
-0.658755
-0.658681
-0.658637
-0.658609
-0.658601
-0.658603
-0.810767
-0.810732
-0.810792
-0.810899
-0.811031
-0.811148
-0.994191
-0.994264
-0.99449
-0.9948
-0.99513
-0.995415
-1.19202
-1.19227
-1.19258
-1.19289
-1.19316
-1.19334
-1.3868
-1.387
-1.38713
-1.38719
-1.38718
-1.38711
-1.5406
-1.54035
-1.53994
-1.53943
-1.53894
-1.5385
-0.258842
-0.258842
-0.258842
-0.258841
-0.258841
-0.258841
-0.273249
-0.273246
-0.273245
-0.273244
-0.273244
-0.273245
-0.302833
-0.302828
-0.302824
-0.302821
-0.30282
-0.302821
-0.348848
-0.348838
-0.34883
-0.348824
-0.34882
-0.348821
-0.411996
-0.411979
-0.411969
-0.411964
-0.411964
-0.41197
-0.490217
-0.490203
-0.490211
-0.49023
-0.490258
-0.490285
-0.58483
-0.584853
-0.584918
-0.585011
-0.585108
-0.585188
-0.701181
-0.701306
-0.701501
-0.701731
-0.701948
-0.702109
-0.837829
-0.838103
-0.83838
-0.838625
-0.838791
-0.838861
-0.885731
-0.88614
-0.886651
-0.887169
-0.887575
-0.887832
-1.29366
-1.29351
-1.29314
-1.29265
-1.29214
-1.29167
-0.951719
-0.951585
-0.951384
-0.951194
-0.950789
-0.950911
-0.218049
-0.21805
-0.21805
-0.218049
-0.218048
-0.218048
-0.231394
-0.231393
-0.231391
-0.23139
-0.23139
-0.231391
-0.25928
-0.259276
-0.259275
-0.259274
-0.259275
-0.259277
-0.304537
-0.304532
-0.30453
-0.304532
-0.304535
-0.304539
-0.373199
-0.373195
-0.3732
-0.37321
-0.373224
-0.373238
-0.477562
-0.477573
-0.4776
-0.47764
-0.477682
-0.477718
-0.62943
-0.629484
-0.62957
-0.629672
-0.62977
-0.629845
-0.840184
-0.840305
-0.840458
-0.840618
-0.840758
-0.840857
-1.14063
-1.14076
-1.14087
-1.14094
-1.14097
-1.14095
-1.53189
-1.53182
-1.53161
-1.53129
-1.53096
-1.53062
-2.02023
-2.01971
-2.01905
-2.01838
-2.01785
-2.01754
-2.66307
-2.66283
-2.66276
-2.66263
-2.66266
-2.66213
1.85028
1.85029
1.85026
1.85022
1.85019
1.85018
-0.552662
-0.552716
-0.55274
-0.552753
-0.552755
-0.552732
-3.82688
-3.82697
-3.82696
-3.82695
-3.82694
-3.82683
2.62001
2.62002
2.61999
2.61993
2.61989
2.61986
-0.319801
-0.319894
-0.319894
-0.319922
-0.319993
-0.319864
-4.22701
-4.22711
-4.22709
-4.22706
-4.22703
-4.22691
1.49297
1.49305
1.49302
1.49294
1.49286
1.49278
-0.323462
-0.323495
-0.32351
-0.32355
-0.323617
-0.323609
-4.60779
-4.60789
-4.60788
-4.60785
-4.60781
-4.60768
0.0569959
0.0571328
0.0570877
0.056976
0.0568351
0.056669
-1.23605
-1.23606
-1.23609
-1.23617
-1.23632
-1.2364
-5.66687
-5.667
-5.66698
-5.66694
-5.6669
-5.66671
-1.9602
-1.96026
-1.96042
-1.96052
-1.96067
-1.96093
-2.4742
-2.47427
-2.47433
-2.47442
-2.47459
-2.47469
-6.31738
-6.31747
-6.31741
-6.31736
-6.31732
-6.31711
-3.7207
-3.72109
-3.72136
-3.72133
-3.72129
-3.72136
-4.11462
-4.11484
-4.11493
-4.11494
-4.11496
-4.11487
-6.76864
-6.76867
-6.76859
-6.76856
-6.76856
-6.76846
-5.0665
-5.06673
-5.06707
-5.06702
-5.067
-5.06708
-5.60141
-5.60154
-5.60157
-5.60145
-5.60128
-5.60092
-6.73555
-6.73556
-6.73556
-6.7356
-6.73569
-6.73571
-6.37375
-6.37311
-6.37382
-6.37409
-6.37537
-6.3748
-5.35175
-5.35156
-5.35166
-5.35159
-5.35184
-5.35124
-5.6205
-5.6206
-5.62069
-5.62072
-5.62092
-5.62087
0.739525
0.740349
0.739429
0.738457
0.737237
0.736113
-0.309197
-0.308913
-0.309012
-0.309371
-0.30937
-0.30933
-8.38727
-8.38717
-8.38703
-8.38686
-8.38653
-8.38673
-11.1658
-11.1652
-11.1639
-11.1628
-11.1612
-11.163
9.22913
9.23019
9.2295
9.229
9.23012
9.23258
0.796949
0.799017
0.798169
0.79924
0.799306
0.796074
-21.8105
-21.8113
-21.8144
-21.8283
-21.8311
-21.8014
-3.72046
-3.71957
-3.71847
-3.7149
-3.7157
-3.72261
-17.4177
-17.4159
-17.4168
-17.4182
-17.4237
-17.4139
24004.6
24003.7
24004
24002.6
23999.6
24006.2
1592.51
1591.08
1591.4
1594.26
1597.79
1587.12
-60.7052
-60.7042
-60.7117
-60.7285
-60.7438
-60.7076
-2.58698
-2.58834
-2.5891
-2.58786
-2.59868
-2.57067
-18.4611
-18.4655
-18.461
-18.4596
-18.4876
-18.4303
0.59515
0.590137
0.60219
0.652906
0.803848
0.465853
-7.11306
-7.11605
-7.11612
-7.10783
-7.09445
-7.10914
-39.697
-39.7048
-39.7003
-39.6817
-39.7134
-39.6377
24.3654
23.6977
23.6131
25.4656
29.4384
20.1832
195.811
195.591
195.507
196.577
198.241
193.476
2310.33
2304.88
2304.89
2318.62
2345.26
2280.24
5361.2
5361.75
5358.43
5369.49
5396.47
5332.5
1456.46
1455.86
1455.68
1459.23
1461.75
1454.82
18121.1
18109.6
18108
18137.6
18196.2
18057.7
7710.37
7723.66
7717.91
7704.57
7683.26
7738.48
20270
20265.6
20263
20284.7
20330.8
20223.6
22859.8
22868.3
22867.8
22840
22781.6
22926.2
59.5684
57.9543
59.4033
56.3321
47.912
71.2126
21805.9
21805.6
21805.2
21803.5
21802.2
21808.4
5164.14
5165.88
5167.14
5156.35
5128.89
5196.14
-64.1836
-64.2151
-64.2397
-64.2076
-64.0413
-64.478
-0.165645
-0.165646
-0.165645
-0.165644
-0.165643
-0.165642
-0.103813
-0.103813
-0.103812
-0.10381
-0.103809
-0.103808
-0.0357361
-0.0357355
-0.0357344
-0.0357333
-0.0357323
-0.0357314
-0.17645
-0.17645
-0.176449
-0.176448
-0.176447
-0.176447
-0.111028
-0.111028
-0.111027
-0.111026
-0.111025
-0.111024
-0.0378851
-0.0378846
-0.0378839
-0.0378831
-0.0378824
-0.0378817
-0.199057
-0.199057
-0.199057
-0.199058
-0.199059
-0.19906
-0.126666
-0.126666
-0.126666
-0.126667
-0.126667
-0.126666
-0.0420847
-0.0420847
-0.0420844
-0.042084
-0.0420834
-0.0420825
-0.235069
-0.23507
-0.235073
-0.235077
-0.235081
-0.235085
-0.154002
-0.154003
-0.154004
-0.154006
-0.154007
-0.154008
-0.0481962
-0.0481961
-0.0481959
-0.0481958
-0.0481956
-0.0481955
-0.285109
-0.285115
-0.285126
-0.285139
-0.285152
-0.285163
-0.200244
-0.200246
-0.200251
-0.200257
-0.200263
-0.200268
-0.0563454
-0.0563457
-0.0563467
-0.0563482
-0.0563497
-0.0563512
-0.35155
-0.351574
-0.351604
-0.351637
-0.351666
-0.351685
-0.276154
-0.276162
-0.276174
-0.276187
-0.276199
-0.276206
-0.0703322
-0.0703338
-0.0703361
-0.070339
-0.0703411
-0.0703418
-0.442482
-0.442528
-0.442572
-0.442612
-0.442639
-0.442651
-0.396967
-0.39698
-0.396995
-0.397008
-0.397019
-0.397022
-0.101438
-0.10144
-0.101441
-0.101442
-0.101444
-0.101447
-0.567222
-0.567258
-0.567265
-0.567254
-0.567224
-0.567191
-0.593709
-0.593713
-0.59372
-0.593708
-0.593709
-0.593698
-0.192438
-0.192436
-0.192429
-0.192412
-0.192416
-0.192418
-0.82918
-0.829158
-0.829088
-0.828982
-0.828869
-0.828758
-0.949303
-0.949281
-0.949259
-0.94921
-0.949168
-0.949144
-0.343579
-0.343553
-0.343497
-0.343432
-0.343284
-0.343727
-0.747569
-0.747405
-0.747184
-0.746981
-0.746699
-0.74671
-1.63289
-1.63285
-1.63283
-1.63277
-1.63263
-1.63247
-1.07597
-1.07608
-1.07657
-1.07687
-1.07698
-1.07508
-1.64808
-1.64791
-1.64776
-1.64737
-1.64745
-1.64725
-3.25949
-3.25964
-3.25914
-3.25914
-3.25884
-3.25857
-0.978754
-0.977773
-0.975131
-0.97174
-0.960408
-0.984606
-0.500397
-0.500032
-0.499719
-0.50158
-0.499332
-0.499528
-6.48522
-6.48485
-6.48513
-6.48549
-6.48854
-6.48209
-7.84197
-7.84235
-7.85081
-7.86607
-7.90309
-7.80535
)
;

boundaryField
{
    seabed_topleft_surface
    {
        type            fixedFluxPressure;
        gradient        uniform 0;
        value           nonuniform List<scalar> 
72
(
12660.8
12660.8
12660.8
12660.8
12660.8
12660.8
12117.1
12117.1
12117
12117
12117
12117
11567.1
11567
11567
11567
11567
11567
11698.2
11698.2
11698.2
11698.2
11698.1
11698.2
12344.4
12344.4
12344.4
12344.4
12344.4
12344.4
13198.7
13198.7
13198.7
13198.7
13198.7
13198.7
14101.4
14101.4
14101.4
14101.4
14101.4
14101.4
15437.3
15437.3
15437.3
15437.3
15437.3
15437.3
17569.3
17569.3
17569.3
17569.3
17569.3
17569.3
20707
20707
20707
20707
20707
20707.1
24998.7
24998.7
24998.7
24998.7
24998.7
24998.7
27745.8
27745.8
27745.8
27745.7
27745.8
27745.7
)
;
    }
    seabed_topright_surface
    {
        type            fixedFluxPressure;
        gradient        uniform 0;
        value           nonuniform List<scalar> 
72
(
-0.300597
-0.300589
-0.300588
-0.300587
-0.300587
-0.300587
-0.315013
-0.315007
-0.315006
-0.315005
-0.315005
-0.315005
-0.344242
-0.344238
-0.344234
-0.344231
-0.344228
-0.344227
-0.388858
-0.388853
-0.388845
-0.388835
-0.388824
-0.388816
-0.449412
-0.449398
-0.449376
-0.449349
-0.449323
-0.449303
-0.525864
-0.525829
-0.525781
-0.525727
-0.525679
-0.525642
-0.619158
-0.619089
-0.619012
-0.618937
-0.618877
-0.618836
-0.730648
-0.730564
-0.730511
-0.730482
-0.730476
-0.730484
-0.857383
-0.857375
-0.857451
-0.857576
-0.857724
-0.857854
-0.989449
-0.989562
-0.989803
-0.990123
-0.990458
-0.990728
-1.14291
-1.14314
-1.14343
-1.14374
-1.14402
-1.14424
-1.1762
-1.17631
-1.17637
-1.1764
-1.1764
-1.17641
)
;
    }
    breakwater_top_surface
    {
        type            fixedFluxPressure;
        gradient        uniform 0;
        value           nonuniform List<scalar> 
36
(
-2.58698
-2.58834
-2.5891
-2.58786
-2.59868
-2.57067
-7.11306
-7.11605
-7.11612
-7.10783
-7.09445
-7.10914
195.811
195.591
195.507
196.577
198.241
193.476
1456.46
1455.86
1455.68
1459.23
1461.75
1454.82
20270
20265.6
20263
20284.7
20330.8
20223.6
21805.9
21805.6
21805.2
21803.5
21802.2
21808.4
)
;
    }
    breakwater_left_surface
    {
        type            fixedFluxPressure;
        gradient        uniform 0;
        value           nonuniform List<scalar> 
24
(
27745.8
27745.8
27745.8
27745.7
27745.8
27745.7
31105.2
31105.4
31105.4
31105.4
31105.5
31105.3
32542
32542.2
32542.2
32542.1
32541.9
32542.5
33078.2
33077.1
33077
33077.5
33078
33076.7
)
;
    }
    breakwater_right_surface
    {
        type            fixedFluxPressure;
        gradient        uniform 0;
        value           nonuniform List<scalar> 
24
(
-1.1762
-1.17631
-1.17637
-1.1764
-1.1764
-1.17641
-1.5406
-1.54035
-1.53994
-1.53943
-1.53894
-1.5385
-0.951719
-0.951585
-0.951384
-0.951194
-0.950789
-0.950911
-2.66307
-2.66283
-2.66276
-2.66263
-2.66266
-2.66213
)
;
    }
    water_front_surface
    {
        type            fixedFluxPressure;
        gradient        uniform 0;
        value           nonuniform List<scalar> 
186
(
12660.8
12117.1
11567.1
11698.2
12344.4
13198.7
14101.4
15437.3
17569.3
20707
24998.7
27745.8
6637.93
3586.66
3090.13
3684.92
4916.62
6449.69
7655.72
7690.01
8203.72
13175.8
25488.6
31105.2
3.82632
8.22053
8.17389
6.12805
-0.793765
-9.68539
-18.1651
52.0378
222.323
611.03
14693.1
32542
7.08111
9.47452
9.33202
9.16733
6.51641
-0.0675074
-9.85094
-16.548
-1.78049
21.2873
737.675
33078.2
-0.300597
-0.315013
-0.344242
-0.388858
-0.449412
-0.525864
-0.619158
-0.730648
-0.857383
-0.989449
-1.14291
-1.1762
-0.286642
-0.301373
-0.331486
-0.378301
-0.444535
-0.536558
-0.658755
-0.810767
-0.994191
-1.19202
-1.3868
-1.5406
-0.258842
-0.273249
-0.302833
-0.348848
-0.411996
-0.490217
-0.58483
-0.701181
-0.837829
-0.885731
-1.29366
-0.951719
-0.218049
-0.231394
-0.25928
-0.304537
-0.373199
-0.477562
-0.62943
-0.840184
-1.14063
-1.53189
-2.02023
-2.66307
1.85028
-0.552662
-3.82688
2.62001
-0.319801
-4.22701
1.49297
-0.323462
-4.60779
0.0569959
-1.23605
-5.66687
-1.9602
-2.4742
-6.31738
-3.7207
-4.11462
-6.76864
-5.0665
-5.60141
-6.73555
-6.37375
-5.35175
-5.6205
0.739525
-0.309197
-8.38727
-11.1658
9.22913
0.796949
-21.8105
-3.72046
-17.4177
24004.6
1592.51
-60.7052
-2.58698
-18.4611
0.59515
-7.11306
-39.697
24.3654
195.811
2310.33
5361.2
1456.46
18121.1
7710.37
20270
22859.8
59.5684
21805.9
5164.14
-64.1836
-0.165645
-0.103813
-0.0357361
-0.17645
-0.111028
-0.0378851
-0.199057
-0.126666
-0.0420847
-0.235069
-0.154002
-0.0481962
-0.285109
-0.200244
-0.0563454
-0.35155
-0.276154
-0.0703322
-0.442482
-0.396967
-0.101438
-0.567222
-0.593709
-0.192438
-0.82918
-0.949303
-0.343579
-0.747569
-1.63289
-1.07597
-1.64808
-3.25949
-0.978754
-0.500397
-6.48522
-7.84197
)
;
    }
    water_back_surface
    {
        type            fixedFluxPressure;
        gradient        uniform 0;
        value           nonuniform List<scalar> 
186
(
12660.8
12117
11567
11698.2
12344.4
13198.7
14101.4
15437.3
17569.3
20707.1
24998.7
27745.7
6637.86
3586.64
3090.09
3684.87
4916.58
6449.67
7655.69
7689.97
8203.68
13175.7
25488.6
31105.3
3.82657
8.22068
8.17434
6.12824
-0.79366
-9.68477
-18.1643
52.0348
222.316
611
14692.5
32542.5
7.08109
9.47467
9.33206
9.16694
6.51538
-0.0687199
-9.8526
-16.5506
-1.78257
21.2863
737.369
33076.7
-0.300587
-0.315005
-0.344227
-0.388816
-0.449303
-0.525642
-0.618836
-0.730484
-0.857854
-0.990728
-1.14424
-1.17641
-0.286638
-0.301367
-0.331465
-0.37824
-0.444397
-0.536322
-0.658603
-0.811148
-0.995415
-1.19334
-1.38711
-1.5385
-0.258841
-0.273245
-0.302821
-0.348821
-0.41197
-0.490285
-0.585188
-0.702109
-0.838861
-0.887832
-1.29167
-0.950911
-0.218048
-0.231391
-0.259277
-0.304539
-0.373238
-0.477718
-0.629845
-0.840857
-1.14095
-1.53062
-2.01754
-2.66213
1.85018
-0.552732
-3.82683
2.61986
-0.319864
-4.22691
1.49278
-0.323609
-4.60768
0.056669
-1.2364
-5.66671
-1.96093
-2.47469
-6.31711
-3.72136
-4.11487
-6.76846
-5.06708
-5.60092
-6.73571
-6.3748
-5.35124
-5.62087
0.736113
-0.30933
-8.38673
-11.163
9.23258
0.796074
-21.8014
-3.72261
-17.4139
24006.2
1587.12
-60.7076
-2.57067
-18.4303
0.465853
-7.10914
-39.6377
20.1832
193.476
2280.24
5332.5
1454.82
18057.7
7738.48
20223.6
22926.2
71.2126
21808.4
5196.14
-64.478
-0.165642
-0.103808
-0.0357314
-0.176447
-0.111024
-0.0378817
-0.19906
-0.126666
-0.0420825
-0.235085
-0.154008
-0.0481955
-0.285163
-0.200268
-0.0563512
-0.351685
-0.276206
-0.0703418
-0.442651
-0.397022
-0.101447
-0.567191
-0.593698
-0.192418
-0.828758
-0.949144
-0.343727
-0.74671
-1.63247
-1.07508
-1.64725
-3.25857
-0.984606
-0.499528
-6.48209
-7.80535
)
;
    }
    water_left_surface
    {
        type            fixedFluxPressure;
        gradient        uniform 0;
        value           nonuniform List<scalar> 
42
(
12660.8
12660.8
12660.8
12660.8
12660.8
12660.8
6637.93
6637.96
6637.92
6637.88
6637.88
6637.86
3.82632
3.82657
3.82656
3.82672
3.82689
3.82657
7.08111
7.08126
7.08128
7.08123
7.08116
7.08109
1.85028
1.85029
1.85026
1.85022
1.85019
1.85018
-0.552662
-0.552716
-0.55274
-0.552753
-0.552755
-0.552732
-3.82688
-3.82697
-3.82696
-3.82695
-3.82694
-3.82683
)
;
    }
    water_right_surface
    {
        type            fixedFluxPressure;
        gradient        uniform 0;
        value           nonuniform List<scalar> 
42
(
-0.300597
-0.300589
-0.300588
-0.300587
-0.300587
-0.300587
-0.286642
-0.286639
-0.286638
-0.286637
-0.286637
-0.286638
-0.258842
-0.258842
-0.258842
-0.258841
-0.258841
-0.258841
-0.218049
-0.21805
-0.21805
-0.218049
-0.218048
-0.218048
-0.165645
-0.165646
-0.165645
-0.165644
-0.165643
-0.165642
-0.103813
-0.103813
-0.103812
-0.10381
-0.103809
-0.103808
-0.0357361
-0.0357355
-0.0357344
-0.0357333
-0.0357323
-0.0357314
)
;
    }
    water_top_surface
    {
        type            totalPressure;
        rho             rho;
        psi             none;
        gamma           1;
        p0              uniform 0;
        value           nonuniform List<scalar> 
180
(
-5.26753
-5.26799
-5.2679
-5.26787
-5.26793
-5.26746
-5.70508
-5.70557
-5.70546
-5.70541
-5.70544
-5.70492
-5.4328
-5.43329
-5.43319
-5.43312
-5.43311
-5.43259
-6.53894
-6.53952
-6.53942
-6.53933
-6.53931
-6.53869
-6.62339
-6.62383
-6.62371
-6.62362
-6.62361
-6.62296
-7.43164
-7.43185
-7.43172
-7.43169
-7.43179
-7.43125
-7.6945
-7.69479
-7.69469
-7.6948
-7.69506
-7.69461
-6.90857
-6.909
-6.90898
-6.90906
-6.90934
-6.90804
-7.95433
-7.95456
-7.95448
-7.95428
-7.95476
-7.95259
0
0
0
0
0
0
0
0
0
0
0
0
0
0
0
0
0
0
-0.582058
-0.578161
-0.585333
-0.567377
-0.527623
-0.626996
0
0
0
0
0
0
0
0
0
0
0
0
0
0
0
0
0
0
0
0
0
0
0
0
0
0
0
0
0
0
-0.000355124
-0.000355167
-0.000355166
-0.000355168
-0.000355172
-0.000355129
-0.000403468
-0.000403511
-0.00040351
-0.000403515
-0.000403526
-0.000403484
-0.000512425
-0.000512468
-0.000512472
-0.000512489
-0.000512519
-0.000512487
-0.000716943
-0.000717004
-0.000717035
-0.0007171
-0.00071719
-0.000717206
-0.00108998
-0.00109016
-0.00109032
-0.00109053
-0.00109079
-0.00109094
-0.00181061
-0.00181129
-0.00181181
-0.00181239
-0.00181299
-0.00181335
-0.00328051
-0.00328246
-0.0032836
-0.00328459
-0.00328534
-0.00328529
-0.00682806
-0.00683154
-0.0068324
-0.00683191
-0.00683084
-0.00682689
-0.0157414
-0.0157421
-0.0157382
-0.0157294
-0.0157203
-0.0157108
-0.0524101
-0.0524004
-0.0523898
-0.0523592
-0.052395
-0.0522667
-0.215411
-0.21549
-0.215433
-0.215493
-0.216253
-0.214661
-1.41948
-1.42027
-1.4211
-1.42117
-1.42746
-1.41408
)
;
    }
}


// ************************************************************************* //
