/*--------------------------------*- C++ -*----------------------------------*\
| =========                 |                                                 |
| \\      /  F ield         | OpenFOAM: The Open Source CFD Toolbox           |
|  \\    /   O peration     | Version:  v1612+                                |
|   \\  /    A nd           | Web:      www.OpenFOAM.com                      |
|    \\/     M anipulation  |                                                 |
\*---------------------------------------------------------------------------*/
FoamFile
{
    version     2.0;
    format      ascii;
    class       surfaceScalarField;
    location    "2.95";
    object      phi;
}
// * * * * * * * * * * * * * * * * * * * * * * * * * * * * * * * * * * * * * //

dimensions      [0 3 -1 0 0 0 0];

internalField   nonuniform List<scalar> 
2916
(
-4.84351e-06
0.468131
-0.468126
1.31212e-06
0.46813
-0.468136
-1.05052e-06
0.468131
-0.468128
-5.25284e-06
0.468135
-0.468131
-3.73198e-07
0.468135
-0.46814
0.468125
-0.468125
-1.51258e-06
0.9173
-0.449167
8.99169e-08
0.917305
-0.449177
-4.1666e-06
0.917305
-0.449171
-4.57182e-06
0.917309
-0.449174
2.47243e-06
0.917311
-0.449183
0.917298
-0.44917
-2.617e-06
1.21774
-0.300442
7.79676e-08
1.21776
-0.300454
-2.61513e-06
1.21776
-0.300448
-2.64817e-06
1.21776
-0.300449
4.22437e-06
1.21776
-0.300456
1.21775
-0.300444
-4.63153e-06
1.43562
-0.217867
-3.59555e-07
1.43563
-0.21788
-1.72824e-06
1.43563
-0.217874
-2.23669e-06
1.43563
-0.217874
4.11239e-06
1.43563
-0.21788
1.43562
-0.217868
-6.5346e-06
1.62366
-0.188036
-2.20184e-06
1.62368
-0.188049
-3.02641e-06
1.62368
-0.188044
-3.31582e-06
1.62368
-0.188043
3.39292e-06
1.62368
-0.188049
1.62366
-0.188037
-8.01552e-06
1.79517
-0.171499
-4.29371e-06
1.79519
-0.171513
-4.86762e-06
1.79519
-0.171509
-4.23981e-06
1.79518
-0.171509
3.53951e-06
1.79518
-0.171514
1.79516
-0.1715
-1.00477e-05
1.92169
-0.126513
-5.87789e-06
1.92171
-0.126525
-6.62185e-06
1.92171
-0.12652
-5.49346e-06
1.9217
-0.126521
3.84961e-06
1.9217
-0.126527
1.92168
-0.126512
-8.65765e-06
1.95248
-0.030784
-5.61363e-06
1.9525
-0.0307961
-6.05175e-06
1.9525
-0.0307923
-4.72527e-06
1.9525
-0.0307935
8.05848e-07
1.95249
-0.0308002
1.95247
-0.0307864
-6.77626e-06
1.69053
0.26196
-4.63147e-06
1.69056
0.261936
-6.35599e-06
1.69056
0.261942
-6.12287e-06
1.69056
0.26194
-3.6917e-06
1.69056
0.261928
1.69051
0.261948
-5.47827e-06
0.983171
0.707361
-5.5457e-07
0.983219
0.707339
-3.12888e-06
0.983217
0.707344
-5.24509e-06
0.983214
0.707343
-5.03387e-06
0.983231
0.707333
0.983161
0.707348
6.78008e-06
0.215007
0.768157
4.15847e-06
0.215049
0.768172
3.46134e-06
0.215051
0.768167
1.16489e-06
0.21505
0.768166
-8.11253e-06
0.215072
0.768168
0.215
0.768152
-2.81078e-05
0.215035
-2.09127e-05
0.215042
-1.15869e-05
0.215042
-6.26401e-07
0.215039
2.56787e-05
0.215046
0.215026
3.04089e-06
0.567138
-1.03527
-2.81931e-06
0.567135
-1.03526
-7.777e-06
0.567143
-1.03527
8.12744e-06
0.567135
-1.03528
2.1179e-05
0.56713
-1.03528
0.567161
-1.03527
1.81447e-05
1.127
-1.00904
-8.34466e-06
1.12701
-1.00903
-2.07505e-06
1.127
-1.00904
1.36976e-05
1.127
-1.00906
-7.55773e-06
1.12701
-1.00904
1.12701
-1.00902
2.53421e-05
1.55556
-0.729025
-3.04437e-06
1.55559
-0.729006
5.70703e-06
1.55557
-0.729021
1.2549e-05
1.55557
-0.729023
-2.63759e-05
1.55559
-0.729001
1.55555
-0.729016
2.84175e-05
1.86753
-0.52987
1.50574e-06
1.86759
-0.529849
1.03693e-05
1.86755
-0.529867
1.32605e-05
1.86756
-0.529861
-2.80636e-05
1.86759
-0.529834
1.86753
-0.52987
2.69762e-05
2.17213
-0.492666
2.50726e-06
2.17221
-0.492646
1.37432e-05
2.17217
-0.49267
1.81373e-05
2.17217
-0.492663
-2.01152e-05
2.17221
-0.49263
2.17214
-0.49267
1.94995e-05
2.47207
-0.471451
2.52031e-06
2.47216
-0.471447
1.72763e-05
2.47211
-0.471471
2.453e-05
2.47212
-0.471464
-4.985e-06
2.47216
-0.471433
2.47209
-0.471453
2.09403e-05
2.72301
-0.377478
8.62276e-06
2.72313
-0.377485
2.27056e-05
2.72308
-0.377501
2.86397e-05
2.72309
-0.377496
5.40643e-06
2.72313
-0.377475
2.72305
-0.377474
2.72166e-05
2.91665
-0.224449
2.05208e-05
2.9168
-0.224457
3.17727e-05
2.91674
-0.224467
3.2356e-05
2.91675
-0.224459
9.62224e-06
2.91679
-0.224438
2.91672
-0.22444
2.92246e-05
2.74776
0.430823
2.659e-05
2.74792
0.430815
3.03904e-05
2.74787
0.430814
2.59732e-05
2.74788
0.430821
5.65613e-06
2.74791
0.43083
2.74784
0.430835
2.95974e-05
1.89747
1.55762
2.38788e-05
1.89765
1.55762
1.65838e-05
1.8976
1.55762
8.01207e-06
1.8976
1.55763
-1.37867e-05
1.89764
1.55763
1.89754
1.55763
4.12235e-05
0.892689
1.7729
1.47864e-05
0.892869
1.77298
7.47007e-06
0.892824
1.77295
2.65428e-09
0.892822
1.77295
-2.9792e-05
0.89286
1.77298
0.892736
1.77293
-7.74802e-05
1.1078
-2.65174e-05
1.10786
-5.36597e-06
1.10784
1.03698e-05
1.10785
5.72599e-05
1.10786
1.10782
-8.19665e-05
0.843401
-1.87859
-4.93039e-05
0.843386
-1.87868
-2.46982e-06
0.843392
-1.8787
7.24961e-05
0.84336
-1.87872
0.000134728
0.843347
-1.87869
0.843456
-1.87859
-0.000107099
1.80322
-1.96876
-5.92421e-05
1.80316
-1.96884
-3.64139e-06
1.80314
-1.96884
4.71715e-05
1.80311
-1.96885
9.50096e-05
1.8031
-1.96884
1.80323
-1.96871
-9.46175e-05
2.88559
-1.8113
-3.66642e-05
2.8855
-1.8114
1.48985e-05
2.88548
-1.81141
5.15963e-05
2.88546
-1.81141
9.9915e-05
2.88546
-1.81141
2.88559
-1.81128
-9.96368e-05
4.37272
-2.0169
-2.16761e-05
4.37261
-2.01703
2.90778e-05
4.37261
-2.01705
6.89631e-05
4.3726
-2.01704
0.000141362
4.37259
-2.01704
4.37274
-2.01688
-0.000114982
6.16242
-2.28225
-1.83464e-05
6.16227
-2.2824
4.40608e-05
6.1623
-2.28242
9.46685e-05
6.1623
-2.28241
0.000175521
6.16228
-2.2824
6.16247
-2.28222
-0.000108033
8.21156
-2.52049
-2.36593e-05
8.21139
-2.52065
4.49879e-05
8.21144
-2.52067
0.000101091
8.21144
-2.52066
0.000172649
8.2114
-2.52063
8.21163
-2.52044
-2.49473e-05
9.91683
-2.08272
-5.75129e-06
9.9167
-2.08281
4.71492e-05
9.91674
-2.08286
8.44599e-05
9.91676
-2.08286
9.98693e-05
9.91673
-2.08282
9.91693
-2.08268
0.000115876
9.0112
0.681063
2.44852e-05
9.01127
0.68107
-1.23435e-06
9.01123
0.681066
-2.08722e-05
9.0112
0.681122
-2.84317e-05
9.01116
0.681144
9.01127
0.681193
0.000255056
5.0965
4.34527
0.000106907
5.09696
4.34527
2.89116e-05
5.09685
4.34527
-9.1062e-06
5.0968
4.34526
-0.000111707
5.09681
4.34528
5.09677
4.34523
0.000219779
1.88281
4.77109
4.80637e-05
1.88315
4.77159
-1.55916e-05
1.88304
4.7715
-2.29037e-06
1.88301
4.7714
-7.25253e-05
1.88306
4.77144
1.88295
4.77137
0.000143872
0.692775
2.96279
6.03302e-05
0.692994
2.96323
2.50394e-05
0.692923
2.9631
-2.3055e-06
0.692919
2.96307
-9.19908e-05
0.692958
2.96317
0.692832
2.96296
-9.17029e-05
1.80067
-1.39738e-05
1.80078
-4.83586e-06
1.80076
1.92944e-05
1.80074
0.000103756
1.80073
1.80076
-7.01614e-05
-0.270518
-1.608
-1.9863e-05
-0.270555
-1.60817
9.89446e-06
-0.270562
-1.60817
2.2925e-05
-0.270565
-1.60816
5.2156e-05
-0.270554
-1.60816
-0.270529
-1.60801
-4.36533e-05
-0.596709
-1.64252
-3.08538e-06
-0.596755
-1.64269
1.69405e-05
-0.596769
-1.64266
1.2383e-05
-0.596766
-1.64265
2.69616e-05
-0.596742
-1.64267
-0.596735
-1.64247
1.33704e-05
-0.928461
-1.47956
4.39368e-05
-0.928438
-1.47975
2.97982e-05
-0.928438
-1.47973
8.07223e-06
-0.928429
-1.47973
2.40701e-05
-0.928399
-1.47977
-0.928453
-1.47954
-1.91139e-05
-1.03067
-1.91467
1.6317e-05
-1.03059
-1.91491
1.4788e-08
-1.03057
-1.91489
-1.1866e-06
-1.03057
-1.9149
5.65562e-05
-1.03054
-1.91496
-1.03061
-1.91467
-8.81446e-05
-1.16163
-2.15119
-4.7315e-05
-1.16159
-2.15145
-5.96058e-05
-1.16155
-2.15143
-4.45858e-05
-1.16155
-2.15144
6.73473e-05
-1.16155
-2.1515
-1.16156
-2.15121
-0.000115668
-1.10792
-2.57408
-6.81085e-05
-1.10796
-2.57433
-7.05228e-05
-1.1079
-2.57432
-6.32351e-05
-1.10788
-2.57433
2.61279e-05
-1.10789
-2.57437
-1.10785
-2.57412
-0.000122156
-0.310832
-2.8797
-4.67313e-05
-0.310988
-2.87986
8.59909e-06
-0.310893
-2.87991
2.25056e-05
-0.310788
-2.87996
8.30381e-05
-0.310768
-2.88
-0.310662
-2.87978
-7.77888e-06
2.20509
-1.83486
2.80696e-05
2.20499
-1.83496
4.18889e-05
2.20511
-1.83495
1.56745e-05
2.20525
-1.83489
-2.11368e-05
2.20535
-1.83494
2.20521
-1.8347
2.11418e-05
3.79319
2.75715
-4.40084e-05
3.79323
2.7571
-4.42572e-05
3.79319
2.75719
-7.13806e-05
3.7932
2.75733
-0.000366172
3.7933
2.75763
3.79313
2.75694
0.000172963
2.35718
6.20693
0.00011539
2.35736
6.20752
6.74731e-05
2.35731
6.20743
1.59324e-05
2.35727
6.20738
-6.10759e-05
2.35739
6.20743
2.35713
6.20731
0.000166865
0.501375
4.81842
0.000105071
0.501501
4.81915
3.82307e-05
0.501488
4.81899
1.24493e-05
0.501452
4.81892
-1.75107e-05
0.501508
4.81908
0.501383
4.81868
5.69354e-07
2.30204
1.29418e-05
2.30227
5.95577e-05
2.3022
3.17666e-05
2.30222
-0.000157092
2.30243
2.30198
-2.15586e-06
0.00265638
-0.00265422
-2.56868e-06
0.00265611
-0.00265427
-2.75472e-06
0.00265557
-0.00265421
-2.46693e-06
0.00265495
-0.00265418
-1.57452e-06
0.00265425
-0.00265415
0.00265334
-0.00265398
-1.90931e-06
0.005377
-0.00271776
-3.31961e-06
0.00537562
-0.00271623
-4.34674e-06
0.00537393
-0.00271577
-4.34725e-06
0.00537213
-0.00271574
-2.9432e-06
0.00537021
-0.00271599
0.00536771
-0.00271641
-2.36237e-06
0.00820351
-0.00282334
-6.11691e-06
0.00819895
-0.00281814
-8.91145e-06
0.00819457
-0.00281664
-9.44e-06
0.00819033
-0.00281654
-6.79673e-06
0.00818598
-0.00281734
0.00818047
-0.00281887
-5.89086e-06
0.0111902
-0.0029802
-1.40955e-05
0.0111788
-0.00297067
-1.96076e-05
0.0111693
-0.00296838
-2.04597e-05
0.0111609
-0.00296887
-1.48945e-05
0.0111526
-0.00297141
0.0111421
-0.00297601
-1.72749e-05
0.0143595
-0.00315157
-3.19772e-05
0.0143358
-0.00314183
-3.98643e-05
0.014319
-0.00314134
-3.93612e-05
0.0143054
-0.00314465
-2.79759e-05
0.0142929
-0.0031512
0.014276
-0.00316155
-4.1299e-05
0.017638
-0.00323699
-6.1648e-05
0.0175983
-0.0032422
-6.73532e-05
0.0175749
-0.00325028
-6.11092e-05
0.0175593
-0.0032601
-4.12094e-05
0.0175456
-0.00327253
0.0175238
-0.00328903
-7.10762e-05
0.0209914
-0.00328241
-8.77224e-05
0.0209374
-0.00332329
-8.14243e-05
0.0209163
-0.00334827
-6.3908e-05
0.0209093
-0.00336791
-3.84326e-05
0.0209054
-0.00338573
0.0208889
-0.00340393
-7.90736e-05
0.0240121
-0.00294193
-6.86006e-05
0.0239553
-0.00302959
-3.52032e-05
0.0239511
-0.00306924
-4.59245e-06
0.0239682
-0.0030904
1.01389e-05
0.02399
-0.00310013
0.0239981
-0.00309982
-2.04013e-05
0.0259162
-0.00188432
4.38752e-05
0.0258762
-0.00198664
0.000113658
0.025895
-0.00201477
0.000149769
0.025942
-0.00201093
0.000124156
0.0259995
-0.00198471
0.0260566
-0.00193504
9.16767e-05
0.0255203
0.000303584
0.000221606
0.0255149
0.000230295
0.00031731
0.0255453
0.000252989
0.000344454
0.0255974
0.000316468
0.000260762
0.0256682
0.000414063
0.0257655
0.000551211
0.000206816
0.0144423
0.0108706
0.0003132
0.0144449
0.0109629
0.000356115
0.014459
0.0110429
0.000343136
0.0144824
0.0111273
0.000246112
0.0145265
0.0112381
0.0146129
0.0113982
8.71147e-05
0.0143549
7.13435e-05
0.0144601
3.57203e-05
0.0144941
7.24684e-06
0.0145105
-4.03645e-06
0.0145374
0.0146088
-2.15482e-06
0.00278148
-0.00543254
-2.66758e-06
0.00278044
-0.00543253
-2.71107e-06
0.00277951
-0.00543229
-2.21187e-06
0.00277867
-0.00543207
-1.18779e-06
0.00277793
-0.0054319
0.00277708
-0.0054315
-3.40443e-06
0.00568379
-0.0056152
-4.65571e-06
0.00568064
-0.00561341
-4.89003e-06
0.00567807
-0.00561258
-4.14063e-06
0.00567583
-0.00561224
-2.38791e-06
0.00567386
-0.00561233
0.00567157
-0.00561266
-7.07631e-06
0.00880759
-0.0059389
-9.97292e-06
0.00879979
-0.00593298
-1.05209e-05
0.00879402
-0.00593082
-9.16701e-06
0.00878927
-0.00593019
-5.74812e-06
0.00878508
-0.00593089
0.00878023
-0.00593275
-1.46032e-05
0.0123023
-0.00645949
-2.02303e-05
0.012285
-0.00644926
-2.09804e-05
0.0122735
-0.00644618
-1.82306e-05
0.0122646
-0.0064461
-1.17191e-05
0.0122569
-0.00644892
0.0122479
-0.00645494
-2.83571e-05
0.0165002
-0.0073206
-3.69578e-05
0.0164649
-0.00731258
-3.6307e-05
0.0164442
-0.0073122
-3.03265e-05
0.0164301
-0.00731554
-1.9162e-05
0.0164185
-0.00732332
0.0164044
-0.00733685
-4.84279e-05
0.0219607
-0.008649
-5.6489e-05
0.0218961
-0.00866547
-4.96871e-05
0.0218659
-0.00867881
-3.73238e-05
0.0218503
-0.00869264
-2.18078e-05
0.0218407
-0.00871003
0.0218271
-0.00873361
-6.52853e-05
0.0285652
-0.009822
-5.7793e-05
0.0284664
-0.00990197
-3.2312e-05
0.028436
-0.00994454
-9.15971e-06
0.0284333
-0.00997459
2.64026e-06
0.0284423
-0.00999966
0.0284473
-0.0100221
-3.67099e-05
0.0351647
-0.00950557
1.69665e-05
0.0350482
-0.00966653
8.01124e-05
0.035034
-0.00973157
0.000114139
0.0350665
-0.0097587
9.57604e-05
0.0351198
-0.0097603
0.0351768
-0.00973432
6.60134e-05
0.0386751
-0.00546188
0.000191856
0.0385828
-0.00564848
0.000289668
0.0386003
-0.00568021
0.000321115
0.038669
-0.00564613
0.000244122
0.0387687
-0.00555779
0.0388909
-0.00540568
0.000207488
0.0355317
0.00323848
0.000313622
0.0354915
0.00321425
0.000348252
0.0355504
0.00326725
0.000318804
0.0356595
0.00335447
0.000210764
0.0358133
0.00347659
0.0360149
0.00363755
0.000166391
0.0241796
0.0220557
0.000172664
0.0242208
0.0222263
0.00011855
0.0243076
0.0223392
5.52194e-05
0.0244167
0.022433
2.584e-06
0.0245612
0.0225422
0.0247422
0.0226734
-0.000130337
0.0386644
-0.000273262
0.0388234
-0.000377355
0.0389054
-0.000397527
0.0389468
-0.000310432
0.0390105
0.0390407
-1.41653e-06
0.00278982
-0.00822021
-1.80384e-06
0.00278912
-0.00822044
-1.74697e-06
0.00278854
-0.00822021
-1.27716e-06
0.00278807
-0.00822
-5.43394e-07
0.0027878
-0.00821985
0.00278755
-0.00821932
-2.64631e-06
0.00575767
-0.00857954
-3.32958e-06
0.00575559
-0.00857833
-3.09686e-06
0.00575408
-0.00857762
-2.20826e-06
0.00575296
-0.00857731
-9.50533e-07
0.00575232
-0.00857745
0.0057518
-0.00857762
-5.73311e-06
0.00904873
-0.00922353
-6.86558e-06
0.00904366
-0.00921912
-6.10119e-06
0.00904058
-0.00921738
-4.2651e-06
0.00903857
-0.00921698
-1.93409e-06
0.00903759
-0.00921786
0.00903705
-0.00921966
-1.09187e-05
0.0127508
-0.0101501
-1.21368e-05
0.0127395
-0.0101433
-9.94399e-06
0.0127341
-0.0101413
-6.30874e-06
0.0127314
-0.010142
-2.52487e-06
0.0127308
-0.0101454
0.0127313
-0.0101514
-1.70758e-05
0.0166408
-0.0111932
-1.5815e-05
0.0166182
-0.011192
-9.73279e-06
0.016611
-0.0111947
-3.21769e-06
0.01661
-0.0112002
9.68648e-07
0.0166133
-0.0112094
0.0166186
-0.011223
-1.44935e-05
0.0200686
-0.0120622
-3.36873e-06
0.0200294
-0.0120879
1.14379e-05
0.0200232
-0.0121058
2.08788e-05
0.0200306
-0.0121226
1.9323e-05
0.020046
-0.0121411
0.020066
-0.0121619
1.99897e-05
0.0228755
-0.0126492
5.64611e-05
0.0228189
-0.0127286
8.38647e-05
0.0228213
-0.0127706
9.06856e-05
0.0228487
-0.0128001
6.7314e-05
0.0228907
-0.0128217
0.0229444
-0.0128338
0.000109253
0.0249522
-0.0116923
0.000183408
0.0248968
-0.0118196
0.000218259
0.0249234
-0.0118695
0.000207769
0.0249873
-0.0118879
0.00014105
0.0250756
-0.0118795
0.0251883
-0.0118378
0.000230851
0.0258622
-0.00660359
0.000313328
0.025863
-0.00669819
0.000316095
0.025941
-0.00670146
0.00025919
0.0260606
-0.00666333
0.000149551
0.026211
-0.00658445
0.0263897
-0.00645772
0.000265512
0.0303241
-0.00148969
0.000350062
0.0304433
-0.00145143
0.000334314
0.0305849
-0.0013615
0.000254362
0.0307407
-0.00124619
0.000138403
0.030904
-0.00110074
0.0310761
-0.000910424
7.23037e-06
0.00226301
0.0501092
-8.90551e-05
0.00237904
0.0503864
-0.000195959
0.00248337
0.0505472
-0.000253502
0.00258067
0.0506498
-0.000221539
0.00265936
0.0507544
0.00272414
0.0508036
-0.000186059
0.0411133
-0.000343083
0.0413599
-0.000417133
0.0414635
-0.000415759
0.0415266
-0.000169125
0.041424
0.0415958
-8.12609e-07
0.00264733
-0.0108664
-9.94292e-07
0.00264661
-0.0108668
-8.09042e-07
0.00264627
-0.0108666
-4.32097e-07
0.00264615
-0.0108665
-5.40871e-08
0.00264623
-0.0108664
0.00264629
-0.0108657
-1.88312e-06
0.00555512
-0.0114852
-1.81727e-06
0.00555322
-0.011485
-1.09927e-06
0.00555248
-0.0114845
-2.40906e-07
0.00555236
-0.0114843
3.19447e-07
0.00555274
-0.0114844
0.00555311
-0.0114842
-3.80322e-06
0.00903544
-0.0126998
-2.93794e-06
0.00903143
-0.012698
-9.73598e-07
0.00903041
-0.0126971
8.24462e-07
0.00903077
-0.012697
1.51044e-06
0.00903211
-0.0126977
0.00903347
-0.0126985
-4.6736e-06
0.0135668
-0.0146764
-1.6741e-06
0.0135593
-0.0146739
2.61057e-06
0.0135586
-0.0146735
5.58632e-06
0.0135607
-0.0146747
5.46496e-06
0.0135646
-0.0146774
0.0135686
-0.0146809
2.80055e-07
0.0200989
-0.0177254
8.56439e-06
0.0200871
-0.0177278
1.63953e-05
0.0200879
-0.0177316
1.98712e-05
0.0200945
-0.0177372
1.58263e-05
0.0201043
-0.0177448
0.0201149
-0.0177535
1.84056e-05
0.0299041
-0.0218857
3.83228e-05
0.0298883
-0.0219091
5.10424e-05
0.0298946
-0.0219253
5.25108e-05
0.0299113
-0.021941
3.78576e-05
0.0299344
-0.0219568
0.0299612
-0.0219709
5.84853e-05
0.0436536
-0.0264574
9.55257e-05
0.043645
-0.0265228
0.00011204
0.0436665
-0.0265595
0.000106581
0.0437035
-0.0265875
7.26838e-05
0.0437528
-0.026607
0.0438131
-0.0266134
0.000116359
0.0614156
-0.0295712
0.000165746
0.0614472
-0.0296719
0.000174641
0.0615008
-0.0297133
0.000154229
0.0615678
-0.0297324
9.8397e-05
0.0616535
-0.0297247
0.0617582
-0.0296845
0.000138569
0.0793433
-0.0246705
0.000157166
0.0794654
-0.0247355
0.000123318
0.0795588
-0.024726
7.8302e-05
0.0796375
-0.0246883
2.48313e-05
0.0797295
-0.0246072
0.0798156
-0.0244901
3.07169e-05
0.0919613
-0.0141387
-4.92851e-05
0.092158
-0.0140641
-0.000152354
0.0922508
-0.0139506
-0.000198624
0.0922881
-0.0138509
-0.000196779
0.0923308
-0.0137041
0.0922859
-0.0135778
-0.000321776
0.080144
0.0622483
-0.00048496
0.080299
0.0624091
-0.000557163
0.0803458
0.0625253
-0.000485754
0.0803116
0.0625556
-0.000362072
0.0803094
0.0626527
0.0801496
0.0625785
-0.000319446
0.121576
-0.000362218
0.121701
-0.000323768
0.12177
-0.000209897
0.121724
-0.000312881
0.121836
0.121432
1.85519e-05
-1.69908
0.0910615
1.84853e-05
-1.69924
0.0910639
-1.98111e-07
-1.69922
0.0910636
-1.76594e-05
-1.69921
0.0910628
-1.77352e-05
-1.69923
0.0910639
-1.69908
0.0910509
2.7912e-05
-1.73256
0.0334556
8.04422e-06
-1.73268
0.0334574
-5.51919e-06
-1.73266
0.0334565
-1.64629e-05
-1.73266
0.0334576
-3.09086e-05
-1.73268
0.0334582
-1.73256
0.0334482
2.31143e-05
0.0263279
5.96849e-06
0.0263263
-2.79824e-06
0.0263265
-9.76286e-06
0.0263264
-2.52088e-05
0.026326
0.0263269
1.74484e-05
-1.77658
0.225105
-1.24276e-06
-1.77673
0.225127
-1.53599e-05
-1.77671
0.225125
-2.00802e-05
-1.7767
0.22512
-2.50407e-05
-1.77673
0.225122
-1.77655
0.225098
2.21323e-05
-1.8195
0.0763481
2.97111e-06
-1.81961
0.0763558
-9.25977e-06
-1.8196
0.0763549
-1.86152e-05
-1.81959
0.0763562
-3.63893e-05
-1.81961
0.0763589
-1.81948
0.0763456
2.24265e-05
0.0382313
5.55532e-06
0.0382294
-4.23723e-06
0.0382302
-1.3454e-05
0.0382308
-3.0155e-05
0.0382312
0.0382331
2.89134e-05
-1.67492
0.420427
8.44772e-06
-1.67507
0.420467
-7.41162e-06
-1.67505
0.420458
-2.24241e-05
-1.67505
0.420452
-4.2266e-05
-1.67508
0.420456
-1.67489
0.420406
2.67865e-05
-1.76627
0.167678
1.07917e-05
-1.76638
0.16768
1.98538e-06
-1.76637
0.167683
-1.07346e-05
-1.76637
0.167686
-3.87828e-05
-1.76638
0.167691
-1.76626
0.167688
2.13175e-05
0.0634112
5.3635e-06
0.0634102
-3.92813e-06
0.0634113
-1.18322e-05
0.0634118
-2.65503e-05
0.0634123
0.0634139
3.18861e-05
-2.03628
0.542001
9.46083e-06
-2.03647
0.542047
-1.10711e-05
-2.03644
0.54203
-3.38527e-05
-2.03645
0.542022
-6.31272e-05
-2.0365
0.542024
-2.03628
0.54196
4.23095e-05
-1.98917
0.12053
2.79079e-05
-1.9893
0.120523
1.58573e-05
-1.98928
0.120529
-3.4421e-06
-1.98928
0.120534
-4.21122e-05
-1.9893
0.120536
-1.98919
0.120551
2.66574e-05
0.0388872
8.09214e-06
0.0388859
1.41742e-07
0.0388849
-7.24386e-06
0.038884
-2.58999e-05
0.0388835
0.0388837
3.6142e-05
-2.10593
0.496703
1.34081e-05
-2.10613
0.496749
-7.07796e-06
-2.10611
0.496728
-3.00464e-05
-2.10612
0.496719
-5.81559e-05
-2.10617
0.496722
-2.10596
0.496655
4.90594e-05
-2.00873
0.0232849
3.26593e-05
-2.00885
0.0232689
1.67477e-05
-2.00884
0.0232781
-4.25164e-06
-2.00885
0.0232843
-4.04749e-05
-2.00888
0.023279
-2.00876
0.0233104
2.49765e-05
0.00856619
7.10684e-06
0.00856525
4.5043e-07
0.00856204
-6.59748e-06
0.00855956
-2.79731e-05
0.00855882
0.00855557
4.0752e-05
-2.25949
0.182076
2.17379e-05
-2.25967
0.182109
5.28331e-06
-2.25965
0.182076
-1.04021e-05
-2.25965
0.182056
-4.27017e-05
-2.25968
0.182069
-2.25952
0.18201
3.84152e-05
-2.13511
-0.101132
1.62457e-05
-2.13523
-0.101147
4.08442e-06
-2.13522
-0.10114
-4.57686e-06
-2.13522
-0.101134
-2.69576e-05
-2.13524
-0.101143
-2.13512
-0.101117
1.68876e-05
-0.0361108
-4.84551e-07
-0.0361111
-6.91078e-06
-0.0361127
-1.0155e-05
-0.0361158
-2.5349e-05
-0.0361145
-0.0361204
-3.14876e-05
-2.24372
-0.453864
-4.06505e-06
-2.24385
-0.453926
-4.42387e-06
-2.24388
-0.453964
1.71391e-05
-2.2439
-0.454028
7.91691e-05
-2.24394
-0.45406
-2.24376
-0.453929
1.07698e-05
-2.07986
-0.265005
1.01749e-05
-2.07996
-0.265041
7.83744e-06
-2.07995
-0.265063
1.30415e-05
-2.07994
-0.265092
8.46239e-06
-2.07994
-0.265129
-2.07982
-0.265051
1.03136e-05
0.00565682
-3.28194e-06
0.0056662
-1.33934e-05
0.0056656
-2.01898e-05
0.00565835
-3.40489e-05
0.00566656
0.00564403
-5.12238e-05
-2.44967
0.161
4.94385e-05
-2.44982
0.160842
4.44735e-05
-2.44983
0.160926
-1.19581e-05
-2.44983
0.160967
-0.000187699
-2.44995
0.161121
-2.4496
0.160786
-1.09436e-05
-1.95972
-0.754948
-2.83313e-05
-1.95982
-0.755027
-5.60474e-05
-1.95981
-0.755062
-3.36893e-05
-1.95982
-0.755126
-4.22159e-05
-1.95989
-0.755183
-1.95964
-0.755054
1.75174e-05
0.0519368
-7.47575e-06
0.0519316
-2.50456e-05
0.051925
-2.26076e-05
0.0518912
-6.68381e-05
0.0519353
0.0519034
-2.46251e-06
-0.109828
3.02798
0.000155908
-0.110088
3.02787
0.000175006
-0.109883
3.02797
5.41965e-05
-0.109638
3.02806
-0.00027654
-0.109351
3.02843
-0.110118
3.02757
9.10798e-06
-1.76761
0.90282
-7.55356e-05
-1.76776
0.90273
-0.000108155
-1.76766
0.902749
-3.73185e-05
-1.76758
0.90275
0.000147759
-1.76761
0.90289
-1.76757
0.902549
-2.18717e-05
0.464814
-5.83143e-05
0.464694
-0.000101535
0.4648
-4.34054e-05
0.464736
6.74121e-05
0.464805
0.464762
2.8058e-05
5.52872
3.70616
0.000183088
5.52888
3.70634
0.000309715
5.52893
3.70635
0.00024013
5.52907
3.70644
0.000109068
5.52914
3.70686
5.52903
3.70596
8.23787e-05
2.81179
3.61967
0.000163579
2.81171
3.61982
0.000208196
2.81192
3.61972
0.000145461
2.8121
3.61978
-0.000294989
2.81215
3.62032
2.8119
3.61938
0.000106582
2.78124
-7.65344e-05
2.78137
-0.000148518
2.78133
-0.000206517
2.78118
-0.000914383
2.78187
2.78051
0.000175105
6.09303
2.43137
0.000186332
6.09382
2.43166
0.000319792
6.0936
2.4316
0.000170571
6.09354
2.43197
-0.00032758
6.09419
2.43225
6.09299
2.43132
0.000326934
6.01557
3.6968
0.000360859
6.01621
3.6974
0.000460477
6.01608
3.69714
0.000190191
6.01663
3.69696
-0.000730429
6.01846
3.69697
6.01394
3.6977
0.000197167
4.47746
0.000263825
4.4779
0.000605633
4.47756
9.71627e-05
4.47801
-0.00227172
4.48008
4.47544
5.55964e-05
2.9305
1.80286
5.40839e-05
2.93088
1.80305
-6.30628e-05
2.93089
1.80303
8.99121e-05
2.93091
1.80313
0.000549851
2.93055
1.80366
2.93133
1.80253
0.000284594
3.70018
2.92683
3.57091e-05
3.70145
2.92708
-0.000561964
3.70145
2.92717
4.96345e-05
3.70002
2.92723
0.00202393
3.69818
2.92737
3.70361
2.92744
0.000138834
5.04535
0.000327044
5.04598
0.000550112
5.04541
0.000390265
5.04635
-0.000952571
5.05001
5.04197
0.000227721
0.648592
-0.643031
-0.00578832
0.000119917
0.649208
-0.643564
-0.00553722
0.00036717
0.648923
-0.64355
-0.0056207
7.12561e-05
0.649185
-0.643362
-0.00552837
-0.00290246
0.652046
-0.644868
-0.00420441
0.645847
-0.641777
-0.00697381
0.00113347
-0.185197
2.06824
-1.23559
0.000525731
-0.184011
2.0699
-1.23608
0.00235876
-0.185852
2.06914
-1.2362
4.022e-05
-0.182228
2.06974
-1.23601
-0.0102469
-0.173438
2.07448
-1.23871
-0.194514
2.06319
-1.23308
3.37145e-05
0.706394
-0.566429
-0.00112198
0.707512
-0.566348
-0.00440711
0.709839
-0.566225
-0.00169376
0.704313
-0.568881
0.0162262
0.691139
-0.575504
0.719726
-0.558699
-0.000260481
0.616304
-1.25908
-0.000154089
0.615549
-1.25922
-0.00129673
0.61661
-1.25902
-0.000250074
0.614617
-1.25903
0.00380848
0.611439
-1.26037
0.619812
-1.25778
0.00136335
1.72507
0.958111
0.000824393
1.72487
0.961122
0.00177124
1.72461
0.960192
-0.000346408
1.72907
0.957405
-0.0105072
1.74329
0.952792
1.70892
0.963571
0.000130039
-1.13155
0.00247265
-1.13044
0.0078238
-1.12833
0.00196582
-1.13699
-0.0282123
-1.16116
-1.10744
-0.000630114
-1.04962
-0.208825
0.000180172
-1.05143
-0.208606
0.000171159
-1.05054
-0.208474
0.000630042
-1.05064
-0.208843
9.45834e-05
-1.0504
-0.209428
-1.04955
-0.208133
0.000215984
1.45682
-1.54854
0.000182345
1.45722
-1.54749
0.000296039
1.45679
-1.54725
-8.88182e-05
1.45777
-1.55062
-0.000637743
1.46164
-1.5587
1.45307
-1.53969
0.000472934
-3.68997
0.000412
-3.69133
0.00261335
-3.69028
0.00123517
-3.69308
-0.0105434
-3.70371
-3.67964
-4.33065e-05
-0.105098
-0.103684
0.000264768
-0.1053
-0.103613
0.000564244
-0.105238
-0.103536
0.000311579
-0.104608
-0.103983
-0.00117529
-0.103077
-0.104864
-0.106679
-0.102629
0.000110668
1.2131
-2.86685
0.000267687
1.21419
-2.86714
0.00102935
1.21372
-2.86697
0.000441141
1.21317
-2.86781
-0.00315038
1.21319
-2.87138
1.21374
-2.86326
0.000771484
-4.93508
2.10891e-05
-4.93618
-9.36878e-06
-4.93537
0.000173717
-4.93713
-0.000220462
-4.94462
-4.92722
0.000127571
0.689326
-0.793138
6.98144e-05
0.68945
-0.793005
6.80917e-05
0.689441
-0.792975
8.92649e-05
0.689514
-0.793518
8.27662e-05
0.69021
-0.795067
0.688997
-0.791543
6.84592e-05
0.647655
-2.82525
0.000183444
0.647643
-2.82545
0.000132217
0.648184
-2.82566
0.000153155
0.646733
-2.82505
0.000353796
0.643134
-2.8245
0.652954
-2.82686
0.000145142
-5.00756
0.00010073
-5.00774
-9.77203e-05
-5.00759
0.000625687
-5.00879
0.00220303
-5.01246
-5.00407
5.17924e-06
1.00972
8.59546e-05
1.00996
0.000143046
1.01
0.000167183
1.00959
2.73554e-05
1.00874
1.01101
5.37442e-05
1.11125
0.000121549
1.11153
6.96581e-05
1.11157
0.000228541
1.11161
0.000337971
1.11149
1.11192
6.48178e-05
0.00029205
2.11992e-05
0.00014501
0.00168421
-8.62995e-08
-0.0128402
0.00197387
-2.23588e-07
-0.0128411
0.00197387
-1.82233e-07
-0.012841
0.00197392
-5.8712e-08
-0.012841
0.001974
2.18743e-08
-0.012841
0.00197416
-0.0128401
0.00197416
3.65967e-08
-0.0141179
0.00127733
-8.79086e-08
-0.0141189
0.00127739
-9.95978e-08
-0.0141188
0.00127743
-7.69049e-08
-0.0141188
0.00127749
-6.96744e-08
-0.0141188
0.00127756
-0.0141179
0.00127753
-3.10902e-08
0.000346389
-6.41805e-08
0.000346415
-6.44822e-08
0.000346433
-6.28357e-08
0.000346455
-6.70615e-08
0.000346479
0.000346468
-4.32725e-07
-0.0136691
0.00415793
-2.78726e-07
-0.0136698
0.00415816
1.45826e-07
-0.0136698
0.00415841
4.82993e-07
-0.0136697
0.00415879
5.26365e-07
-0.0136698
0.00415924
-0.013669
0.00415938
-3.25136e-08
-0.0151498
0.00275758
1.58429e-08
-0.0151508
0.00275781
1.24159e-07
-0.0151508
0.00275796
1.82187e-07
-0.0151508
0.00275815
1.19333e-07
-0.0151508
0.00275835
-0.0151498
0.00275832
-2.11467e-08
0.000609474
-4.91481e-09
0.000609546
2.40691e-08
0.000609594
2.7909e-08
0.000609654
-6.45584e-09
0.000609711
0.000609703
-5.76742e-07
-0.0153053
0.00676396
4.31075e-07
-0.0153059
0.00676494
1.61066e-06
-0.0153058
0.00676586
2.2771e-06
-0.015306
0.00676698
1.92216e-06
-0.0153063
0.00676808
-0.0153057
0.0067685
2.21505e-07
-0.0173577
0.00480949
5.98039e-07
-0.0173588
0.00481004
9.09558e-07
-0.0173589
0.00481044
9.64581e-07
-0.017359
0.00481092
6.39381e-07
-0.0173592
0.00481136
-0.0173583
0.00481138
8.09958e-08
0.000606277
1.85794e-07
0.000606399
2.59572e-07
0.000606505
2.46125e-07
0.000606636
1.30424e-07
0.000606753
0.000606784
1.29017e-06
-0.0177419
0.00982821
4.14578e-06
-0.0177427
0.00983089
6.40118e-06
-0.0177431
0.00983316
7.1171e-06
-0.017744
0.00983557
5.38322e-06
-0.0177452
0.00983761
-0.0177453
0.00983827
1.09191e-06
-0.0211399
0.00820624
2.22169e-06
-0.0211414
0.00820743
2.90389e-06
-0.0211418
0.00820834
2.87518e-06
-0.0211424
0.00820931
1.92716e-06
-0.0211431
0.00821015
-0.0211422
0.00821019
3.12694e-07
-4.63706e-05
6.07345e-07
-4.61963e-05
7.80997e-07
-4.60058e-05
7.39125e-07
-4.57716e-05
4.82042e-07
-4.56009e-05
-4.55076e-05
8.47551e-06
-0.0210451
0.0131395
1.44854e-05
-0.0210479
0.013145
1.74256e-05
-0.0210502
0.0131489
1.67716e-05
-0.0210532
0.0131523
1.1508e-05
-0.0210566
0.0131546
-0.0210585
0.0131546
3.78993e-06
-0.0271118
0.0142691
6.31229e-06
-0.0271144
0.0142713
7.42789e-06
-0.0271158
0.0142727
6.9375e-06
-0.0271174
0.0142739
4.47242e-06
-0.027119
0.0142749
-0.0271184
0.0142743
9.04856e-07
-0.00198749
1.55588e-06
-0.00198735
1.88338e-06
-0.00198721
1.68613e-06
-0.00198694
1.09879e-06
-0.00198691
-0.00198674
2.47371e-05
-0.0254834
0.0167124
3.402e-05
-0.0254935
0.01672
3.50252e-05
-0.0255005
0.016723
2.97063e-05
-0.0255078
0.0167241
1.81538e-05
-0.0255144
0.0167233
-0.0255179
0.0167193
9.77382e-06
-0.0362188
0.0249947
1.3937e-05
-0.0362238
0.0249974
1.44939e-05
-0.0362269
0.0249983
1.24084e-05
-0.0362302
0.0249981
6.94469e-06
-0.036233
0.0249984
-0.0362324
0.0249956
1.87832e-06
-0.00590479
2.78559e-06
-0.00590492
3.15974e-06
-0.00590532
2.47279e-06
-0.00590512
1.46107e-06
-0.00590573
-0.00590536
4.65886e-05
-0.031165
0.0213731
5.36635e-05
-0.0311871
0.0213768
4.56844e-05
-0.0312002
0.0213712
3.07252e-05
-0.0312112
0.0213623
1.35667e-05
-0.0312188
0.0213517
-0.0312192
0.0213388
1.63294e-05
-0.0496611
0.0434743
2.05644e-05
-0.0496695
0.0434754
1.76343e-05
-0.0496742
0.043475
1.34841e-05
-0.0496783
0.0434689
4.77067e-06
-0.0496812
0.0434694
-0.0496789
0.0434602
2.42359e-06
-0.0122058
2.90477e-06
-0.0122068
2.97218e-06
-0.0122087
1.79948e-06
-0.0122087
1.08627e-06
-0.0122107
-0.01221
4.64681e-05
-0.0374503
0.0292054
3.49368e-05
-0.0374798
0.0291959
8.6246e-06
-0.0374915
0.0291753
-1.60353e-05
-0.0374975
0.0291518
-2.43855e-05
-0.0374945
0.0291298
-0.0374803
0.0291103
1.48827e-05
-0.0697116
0.0757206
1.45933e-05
-0.0697215
0.0757174
4.53816e-06
-0.0697249
0.0757185
-5.69185e-07
-0.0697248
0.0757015
-1.04654e-05
-0.0697245
0.0757095
-0.0697161
0.0756852
4.88631e-07
-0.0191241
-1.39317e-06
-0.0191269
-2.73953e-06
-0.0191312
-3.36915e-06
-0.0191329
-4.12584e-06
-0.0191341
-0.019137
-2.8614e-06
-0.0435214
0.048059
-4.73099e-05
-0.0435375
0.0480424
-9.28151e-05
-0.0435295
0.0480243
-0.000114284
-0.0435151
0.048
-9.88122e-05
-0.0434881
0.047995
-0.0434491
0.0479699
-2.21164e-06
-0.102313
0.134514
-1.29036e-05
-0.102319
0.134509
-3.25447e-05
-0.102317
0.134526