/*--------------------------------*- C++ -*----------------------------------*\
| =========                 |                                                 |
| \\      /  F ield         | OpenFOAM: The Open Source CFD Toolbox           |
|  \\    /   O peration     | Version:  v1612+                                |
|   \\  /    A nd           | Web:      www.OpenFOAM.com                      |
|    \\/     M anipulation  |                                                 |
\*---------------------------------------------------------------------------*/
FoamFile
{
    version     2.0;
    format      ascii;
    class       volVectorField;
    location    "2.95";
    object      U;
}
// * * * * * * * * * * * * * * * * * * * * * * * * * * * * * * * * * * * * * //

dimensions      [0 1 -1 0 0 0 0];

internalField   nonuniform List<vector> 
1116
(
(0.416691 -1.19543e-05 -0.429219)
(0.416683 4.37199e-06 -0.429238)
(0.416685 -2.50319e-06 -0.429225)
(0.416694 4.58849e-07 -0.429223)
(0.416693 -9.43942e-06 -0.42924)
(0.416674 8.20267e-06 -0.42922)
(1.39939 -7.51878e-06 -0.333634)
(1.39939 5.61095e-06 -0.333662)
(1.39939 -5.67603e-06 -0.333647)
(1.3994 -2.42176e-06 -0.333647)
(1.39941 -5.87604e-06 -0.333668)
(1.39938 1.01966e-05 -0.333644)
(2.16542 -6.96612e-06 -0.125294)
(2.16544 3.10279e-06 -0.125325)
(2.16544 -3.16413e-06 -0.125312)
(2.16544 -2.4381e-06 -0.125312)
(2.16545 -2.34132e-06 -0.125328)
(2.16542 1.0117e-05 -0.125304)
(2.69596 -7.98973e-06 -0.0149082)
(2.69598 2.49244e-07 -0.0149359)
(2.69598 -1.35505e-06 -0.0149247)
(2.69598 -2.49466e-06 -0.0149241)
(2.69599 -1.4315e-06 -0.0149366)
(2.69596 8.89605e-06 -0.0149132)
(3.08932 -9.03216e-06 -0.00168881)
(3.08935 -2.34204e-06 -0.0017103)
(3.08935 -2.81813e-06 -0.00170135)
(3.08935 -3.63852e-06 -0.00170123)
(3.08935 -2.12342e-06 -0.00171086)
(3.08932 7.93442e-06 -0.00168954)
(3.41837 -9.8731e-06 -0.0171546)
(3.41841 -4.1477e-06 -0.0171709)
(3.41841 -5.53291e-06 -0.0171645)
(3.4184 -4.66798e-06 -0.0171652)
(3.4184 -2.54726e-06 -0.0171739)
(3.41837 8.34512e-06 -0.0171523)
(3.70952 -1.19141e-05 0.0168908)
(3.70957 -5.84316e-06 0.0168821)
(3.70957 -7.41169e-06 0.0168865)
(3.70956 -6.24419e-06 0.0168855)
(3.70956 -3.10278e-06 0.0168771)
(3.70952 9.4237e-06 0.0168982)
(3.95092 -1.18106e-05 0.162076)
(3.95095 -4.96958e-06 0.162065)
(3.95095 -7.16634e-06 0.162069)
(3.95094 -5.04078e-06 0.162067)
(3.95093 -4.94676e-06 0.162056)
(3.95089 7.0608e-06 0.162081)
(3.93418 -1.01795e-05 0.558849)
(3.93423 -3.24823e-06 0.558835)
(3.93422 -6.86315e-06 0.558839)
(3.93422 -4.99707e-06 0.558838)
(3.93422 -8.47068e-06 0.558826)
(3.93415 2.83031e-06 0.55885)
(3.17471 -1.07009e-05 1.10761)
(3.1748 2.35613e-07 1.10761)
(3.17479 -1.64219e-06 1.10761)
(3.17478 -3.63943e-06 1.10761)
(3.17481 -8.37877e-06 1.1076)
(3.17469 7.52124e-07 1.10761)
(1.39077 1.55699e-06 0.986227)
(1.39088 8.87334e-06 0.986268)
(1.39088 7.9443e-07 0.986257)
(1.39087 7.25135e-06 0.986253)
(1.39091 -6.47616e-06 0.986259)
(1.39075 -5.44121e-06 0.986222)
(-0.280571 -2.34759e-05 -0.19098)
(-0.280488 -2.90958e-05 -0.19099)
(-0.280487 -1.16024e-05 -0.190984)
(-0.280487 -1.45665e-05 -0.19099)
(-0.280431 1.42906e-05 -0.190991)
(-0.28058 3.02491e-05 -0.191002)
(0.231473 2.18814e-05 -1.55323)
(0.231447 -1.36801e-05 -1.55325)
(0.231478 6.52418e-06 -1.55323)
(0.231455 -2.19072e-05 -1.55325)
(0.231432 3.97137e-05 -1.55327)
(0.231525 -1.79511e-06 -1.55323)
(1.76276 5.46004e-05 -1.70618)
(1.76277 -2.30177e-05 -1.7062)
(1.76277 1.02603e-05 -1.70618)
(1.76276 -1.64629e-05 -1.7062)
(1.76276 3.80263e-05 -1.70622)
(1.76279 -4.66176e-05 -1.70618)
(2.74359 5.92107e-05 -1.26061)
(2.74364 -1.4129e-05 -1.26064)
(2.74361 1.0325e-05 -1.26062)
(2.74361 -7.61132e-07 -1.26063)
(2.74365 1.98682e-05 -1.26065)
(2.7436 -6.12867e-05 -1.26061)
(3.39406 5.42704e-05 -0.973867)
(3.39415 -4.06881e-06 -0.973901)
(3.39409 8.50024e-06 -0.973885)
(3.39409 1.01761e-05 -0.973884)
(3.39416 1.04541e-05 -0.973901)
(3.39405 -5.63787e-05 -0.973871)
(3.96509 4.67115e-05 -0.831814)
(3.96522 2.26426e-07 -0.831854)
(3.96515 6.8584e-06 -0.831839)
(3.96515 1.82844e-05 -0.831837)
(3.96523 1.15822e-05 -0.831853)
(3.96509 -4.46532e-05 -0.831821)
(4.58584 3.58314e-05 -0.732467)
(4.586 -1.28002e-06 -0.732512)
(4.58591 8.44862e-06 -0.732498)
(4.58592 2.32339e-05 -0.732498)
(4.586 2.03964e-05 -0.732514)
(4.58586 -2.82017e-05 -0.732476)
(5.13756 3.18093e-05 -0.591218)
(5.13775 4.74036e-06 -0.591263)
(5.13766 1.53823e-05 -0.591248)
(5.13767 2.68404e-05 -0.59125)
(5.13774 2.65889e-05 -0.591268)
(5.13761 -1.572e-05 -0.591226)
(5.56349 3.28417e-05 -0.351691)
(5.56377 1.59567e-05 -0.35174)
(5.56366 2.74196e-05 -0.351725)
(5.56367 3.21272e-05 -0.351729)
(5.56376 2.94921e-05 -0.351751)
(5.56361 -9.46214e-06 -0.351708)
(5.79984 3.11985e-05 0.223645)
(5.80014 2.23112e-05 0.223572)
(5.80004 3.02965e-05 0.223592)
(5.80005 2.83255e-05 0.223585)
(5.80011 2.13565e-05 0.223555)
(5.79999 -8.82265e-06 0.223603)
(5.25941 2.39193e-05 1.34708)
(5.25972 2.53299e-05 1.34698)
(5.25962 2.21449e-05 1.34701)
(5.25963 1.32436e-05 1.347)
(5.25968 -1.89035e-06 1.34697)
(5.25955 -1.74342e-05 1.34702)
(3.56835 3.6461e-05 2.17638)
(3.56875 3.20473e-05 2.17641)
(3.56865 2.087e-06 2.17639)
(3.56865 1.48532e-05 2.17639)
(3.56873 -1.65272e-05 2.1764)
(3.56847 -3.11267e-05 2.17637)
(0.966097 -6.32467e-05 1.17902)
(0.966463 -6.35839e-05 1.17907)
(0.966378 1.45967e-06 1.17906)
(0.966371 -1.30921e-05 1.17905)
(0.96646 3.96954e-05 1.17908)
(0.966171 5.36016e-05 1.17901)
(0.605951 4.21554e-05 -2.79099)
(0.60596 -0.000172751 -2.79099)
(0.605988 6.04483e-05 -2.79102)
(0.605899 -6.24236e-05 -2.79108)
(0.605855 0.000224749 -2.79104)
(0.606076 -1.05866e-05 -2.79097)
(2.63774 1.16168e-05 -2.65735)
(2.63766 -0.000181676 -2.6573)
(2.63765 4.8439e-05 -2.65735)
(2.63758 -5.69341e-05 -2.65741)
(2.63756 0.000168082 -2.65734)
(2.63782 -2.00448e-05 -2.65726)
(4.59044 -9.77342e-06 -2.0308)
(4.59027 -0.000139942 -2.03073)
(4.59023 5.56225e-05 -2.0308)
(4.59017 -2.71149e-05 -2.03081)
(4.59017 0.000146708 -2.03071)
(4.59044 9.69025e-06 -2.03075)
(7.17355 -2.91206e-05 -1.60136)
(7.17336 -0.000118359 -1.60128)
(7.17334 6.27819e-05 -1.60136)
(7.1733 -1.02898e-05 -1.60134)
(7.1733 0.000166973 -1.60122)
(7.17355 5.77797e-05 -1.60135)
(10.2122 -5.04402e-05 -1.65526)
(10.212 -0.000116547 -1.65518)
(10.212 6.86247e-05 -1.65529)
(10.212 6.02044e-06 -1.65526)
(10.212 0.000195189 -1.65511)
(10.2123 9.5148e-05 -1.65526)
(14.0514 -5.63075e-05 -1.73511)
(14.0511 -0.000107152 -1.73509)
(14.0511 6.77885e-05 -1.7352)
(14.0511 6.3621e-06 -1.73516)
(14.0511 0.000191987 -1.73501)
(14.0515 9.72425e-05 -1.73508)
(16.621 -8.91757e-06 -1.42316)
(16.6206 -5.80818e-05 -1.42315)
(16.6207 6.55714e-05 -1.42324)
(16.6207 5.73203e-06 -1.42321)
(16.6207 0.000140351 -1.42309)
(16.6212 5.07768e-05 -1.4231)
(22.1895 0.00011574 0.05449)
(22.1894 3.88496e-05 0.0545221)
(22.1894 4.96018e-05 0.0544823)
(22.1894 -6.46663e-05 0.0545135)
(22.1893 1.44633e-05 0.0545947)
(22.1896 -4.95416e-05 0.054538)
(13.3542 0.000175521 2.2357)
(13.3549 0.000162986 2.23563)
(13.3547 8.54662e-05 2.23563)
(13.3546 -7.91073e-06 2.23566)
(13.3546 -4.11185e-05 2.2357)
(13.3546 -8.99931e-05 2.23569)
(7.13078 0.000154731 3.27792)
(7.13167 0.000130367 3.27789)
(7.13141 8.46215e-06 3.2779)
(7.13132 -2.02122e-05 3.27791)
(7.1314 -2.16652e-05 3.27791)
(7.13127 -5.02393e-05 3.27793)
(3.99937 0.000126334 4.13359)
(3.99999 0.00011498 4.13383)
(3.99978 1.37727e-05 4.13373)
(3.99978 4.10875e-05 4.13375)
(3.9999 -4.91721e-05 4.13382)
(3.99955 -0.000100178 4.13368)
(0.863003 -8.06756e-05 2.94519)
(0.863454 -6.035e-05 2.94539)
(0.863319 2.17943e-05 2.94533)
(0.863308 -2.84064e-05 2.94534)
(0.863373 7.53979e-05 2.94536)
(0.86312 9.39198e-05 2.94529)
(-0.254333 -6.51081e-05 -3.56547)
(-0.254332 -4.84119e-05 -3.56579)
(-0.254324 6.61122e-06 -3.56582)
(-0.25434 9.01881e-06 -3.56582)
(-0.254341 3.31768e-05 -3.56578)
(-0.254324 5.79647e-05 -3.5655)
(-0.84855 -6.13434e-05 -3.79466)
(-0.848699 1.13862e-07 -3.79499)
(-0.84873 -9.80447e-06 -3.79494)
(-0.848725 3.67373e-05 -3.79491)
(-0.848683 -8.59124e-06 -3.79494)
(-0.848594 5.02051e-05 -3.79457)
(-1.95742 -1.73927e-05 -3.7926)
(-1.95749 5.19013e-05 -3.79299)
(-1.95751 1.89716e-05 -3.79297)
(-1.9575 2.91559e-05 -3.79296)
(-1.95745 -8.06476e-06 -3.79301)
(-1.95747 4.49101e-05 -3.79258)
(-2.18606 -3.31374e-05 -4.8061)
(-2.18593 1.40455e-05 -4.80661)
(-2.1859 4.76914e-06 -4.80658)
(-2.18587 -7.6381e-06 -4.80659)
(-2.18581 1.20813e-05 -4.80668)
(-2.18596 6.63859e-05 -4.80608)
(-2.80799 -7.44913e-05 -5.58285)
(-2.80788 -5.52562e-05 -5.58341)
(-2.80783 -5.42324e-05 -5.58337)
(-2.80783 -6.49472e-05 -5.58337)
(-2.80781 4.78724e-06 -5.58347)
(-2.80784 8.22488e-05 -5.58281)
(-3.1519 -0.00010344 -6.30318)
(-3.15193 -8.78534e-05 -6.30374)
(-3.15184 -5.62354e-05 -6.30373)
(-3.15184 -7.07187e-05 -6.30372)
(-3.15188 -2.07632e-05 -6.30377)
(-3.15174 4.14769e-05 -6.30313)
(-3.08342 -0.000117926 -5.29331)
(-3.08365 -9.2153e-05 -5.29363)
(-3.0835 6.40533e-06 -5.29371)
(-3.08345 7.19787e-06 -5.29376)
(-3.08347 4.86196e-05 -5.29377)
(-3.08328 5.849e-05 -5.29331)
(0.865275 -2.3569e-05 1.16852)
(0.864741 1.24331e-05 1.16851)
(0.865013 3.27002e-05 1.16852)
(0.865452 4.38055e-05 1.16864)
(0.865568 6.72104e-06 1.16862)
(0.865904 -8.4203e-05 1.16882)
(10.0433 7.75354e-05 10.6346)
(10.0434 -3.19029e-05 10.6349)
(10.0434 -8.07285e-05 10.6348)
(10.0435 -6.30995e-06 10.6348)
(10.0438 -0.000181596 10.6349)
(10.0432 -0.000319144 10.6346)
(9.1642 0.00017129 13.2084)
(9.16436 0.00017517 13.2103)
(9.16427 7.74633e-05 13.2099)
(9.16427 3.00466e-05 13.2096)
(9.16444 -1.43088e-05 13.2098)
(9.16409 -0.000123532 13.2094)
(4.03026 0.000153302 6.64735)
(4.0311 0.000153519 6.64841)
(4.03094 3.87337e-05 6.64813)
(4.03076 4.06233e-05 6.64802)
(4.03114 -1.88548e-06 6.64829)
(4.03037 -5.82696e-05 6.64766)
(1.02283 -1.24693e-05 3.44281)
(1.02311 8.43724e-06 3.44296)
(1.02306 1.93316e-05 3.44295)
(1.02302 0.000111873 3.4429)
(1.02298 -7.27877e-05 3.44286)
(1.02295 -0.00019328 3.443)
(-0.0026207 -1.04939e-06 -0.00264721)
(-0.00262047 -2.38635e-06 -0.00264726)
(-0.00261996 -2.6787e-06 -0.00264723)
(-0.00261936 -2.65626e-06 -0.00264721)
(-0.00261869 -2.17079e-06 -0.00264721)
(-0.00261781 -8.56994e-07 -0.00264704)
(-0.00792712 -6.9801e-07 -0.00270232)
(-0.00792569 -2.52191e-06 -0.00270057)
(-0.00792361 -3.94874e-06 -0.0027001)
(-0.00792129 -4.46663e-06 -0.00270012)
(-0.00791878 -3.95975e-06 -0.00270044)
(-0.00791549 -1.71227e-06 -0.00270095)
(-0.0134013 -6.35036e-07 -0.00278767)
(-0.0133961 -3.94071e-06 -0.00278144)
(-0.0133904 -7.8042e-06 -0.00277975)
(-0.0133845 -9.44316e-06 -0.00277975)
(-0.0133784 -8.86678e-06 -0.00278074)
(-0.0133706 -4.02039e-06 -0.00278253)
(-0.0191312 -2.2996e-06 -0.00291105)
(-0.0191168 -9.7812e-06 -0.00289929)
(-0.0191034 -1.74463e-05 -0.0028966)
(-0.0190909 -2.0499e-05 -0.00289735)
(-0.0190782 -1.92498e-05 -0.00290042)
(-0.0190621 -8.81958e-06 -0.00290578)
(-0.0251975 -8.46448e-06 -0.00301184)
(-0.0251643 -2.51148e-05 -0.00299909)
(-0.0251383 -3.68921e-05 -0.00299839)
(-0.0251159 -4.02908e-05 -0.0030025)
(-0.0250942 -3.63021e-05 -0.00301031)
(-0.0250658 -1.63665e-05 -0.00302235)
(-0.0316084 -2.34839e-05 -0.00277742)
(-0.0315449 -5.49063e-05 -0.00278153)
(-0.0315031 -6.55048e-05 -0.00279257)
(-0.031472 -6.49264e-05 -0.00280659)
(-0.0314432 -5.41592e-05 -0.002824)
(-0.0314016 -2.34399e-05 -0.0028463)
(-0.0384455 -4.43092e-05 -0.00118852)
(-0.0383435 -8.85034e-05 -0.0012452)
(-0.0382928 -8.51408e-05 -0.0012836)
(-0.0382647 -7.29067e-05 -0.00131521)
(-0.0382422 -5.24885e-05 -0.00134387)
(-0.0381987 -2.06583e-05 -0.00137269)
(-0.0455276 -5.58172e-05 0.00312187)
(-0.0453943 -8.87646e-05 0.00298554)
(-0.0453575 -5.03987e-05 0.00291936)
(-0.0453603 -1.81693e-05 0.00288054)
(-0.0453735 9.10765e-06 0.00285945)
(-0.0453622 9.69301e-06 0.00285212)
(-0.0528434 -3.10172e-05 0.0107686)
(-0.0527094 -3.68677e-06 0.0105836)
(-0.0527147 8.52362e-05 0.0105241)
(-0.0527815 0.000135544 0.0105213)
(-0.0528708 0.000155275 0.0105567)
(-0.0529498 7.75923e-05 0.0106267)
(-0.0568383 3.26352e-05 0.0218327)
(-0.0567708 0.000148711 0.0217088)
(-0.0568271 0.000277194 0.0217096)
(-0.0569458 0.000336804 0.0217624)
(-0.0571006 0.000336368 0.0218576)
(-0.0572856 0.00016067 0.0219992)
(-0.0510749 0.000115572 0.0297353)
(-0.0510927 0.000273721 0.0297975)
(-0.0511536 0.000337726 0.0298667)
(-0.0512491 0.000352418 0.0299502)
(-0.0514013 0.000318035 0.0300694)
(-0.0516593 0.000145422 0.0302492)
(-0.0294254 6.16258e-05 0.0426805)
(-0.0294448 9.47921e-05 0.0427513)
(-0.029457 5.1001e-05 0.0427548)
(-0.029474 2.00543e-05 0.0427434)
(-0.0295283 -3.57493e-06 0.042754)
(-0.0296633 -6.18852e-06 0.0428088)
(-0.0026851 -1.2531e-06 -0.00786639)
(-0.00268414 -2.5871e-06 -0.00786642)
(-0.00268326 -2.67457e-06 -0.00786614)
(-0.00268247 -2.46059e-06 -0.0078659)
(-0.00268178 -1.75842e-06 -0.00786573)
(-0.00268099 -5.5062e-07 -0.00786516)
(-0.00817305 -1.97591e-06 -0.00809676)
(-0.00816924 -4.33357e-06 -0.00809327)
(-0.00816596 -4.75444e-06 -0.00809199)
(-0.00816302 -4.51617e-06 -0.00809165)
(-0.00816043 -3.34823e-06 -0.00809205)
(-0.00815743 -1.23134e-06 -0.00809286)
(-0.0139874 -4.09446e-06 -0.008489)
(-0.0139776 -9.03201e-06 -0.00847706)
(-0.0139698 -1.01628e-05 -0.00847324)
(-0.0139631 -9.78729e-06 -0.00847256)
(-0.013957 -7.65845e-06 -0.00847418)
(-0.01395 -3.09917e-06 -0.00847775)
(-0.0203688 -8.47493e-06 -0.00910225)
(-0.0203462 -1.84435e-05 -0.00908057)
(-0.0203297 -2.03805e-05 -0.00907478)
(-0.0203163 -1.94124e-05 -0.00907529)
(-0.0203042 -1.53594e-05 -0.009081)
(-0.0202897 -6.36005e-06 -0.0090922)
(-0.0277506 -1.68844e-05 -0.0100255)
(-0.0277016 -3.49972e-05 -0.0100048)
(-0.0276699 -3.60681e-05 -0.0100034)
(-0.0276461 -3.28242e-05 -0.0100103)
(-0.027625 -2.51178e-05 -0.0100254)
(-0.0275992 -1.02465e-05 -0.0100506)
(-0.0369429 -2.99189e-05 -0.0116226)
(-0.0368428 -5.74956e-05 -0.0116404)
(-0.0367887 -5.19732e-05 -0.0116613)
(-0.0367543 -4.25453e-05 -0.0116858)
(-0.0367271 -2.92884e-05 -0.0117175)
(-0.0366915 -1.11403e-05 -0.0117612)
(-0.0484468 -4.41665e-05 -0.0145307)
(-0.0482676 -7.1499e-05 -0.0146502)
(-0.0481958 -4.27283e-05 -0.0147185)
(-0.0481675 -1.86649e-05 -0.0147702)
(-0.0481568 6.59615e-07 -0.014817)
(-0.0481372 3.91378e-06 -0.0148652)
(-0.0608914 -3.73205e-05 -0.0183441)
(-0.0606321 -2.41207e-05 -0.0186006)
(-0.0605683 5.33709e-05 -0.0187114)
(-0.0605882 9.85939e-05 -0.0187665)
(-0.0606457 0.00011625 -0.0187881)
(-0.0607063 5.77776e-05 -0.0187781)
(-0.0722086 2.05616e-05 -0.0220203)
(-0.0719375 0.000118862 -0.0223299)
(-0.0719237 0.000242565 -0.0224054)
(-0.072024 0.000304987 -0.0223837)
(-0.0721858 0.000302194 -0.0222921)
(-0.0723847 0.000141463 -0.0221212)
(-0.0707869 0.000114802 -0.0241433)
(-0.0706124 0.000271455 -0.0243021)
(-0.0707025 0.000329354 -0.024211)
(-0.0709174 0.000331158 -0.0240125)
(-0.0712253 0.000271398 -0.023723)
(-0.0716252 0.000112703 -0.023326)
(-0.0654072 0.000106519 0.00281884)
(-0.065479 0.00019103 0.00307933)
(-0.0656893 0.000142561 0.00328601)
(-0.0659766 8.54324e-05 0.00349109)
(-0.0663623 1.76736e-05 0.00374995)
(-0.0668664 -9.91874e-06 0.00411752)
(-0.0292838 -5.66622e-05 -0.00540222)
(-0.0294112 -0.000195806 -0.00512067)
(-0.0295464 -0.000327068 -0.00500439)
(-0.029694 -0.000384174 -0.00493102)
(-0.0298864 -0.000377878 -0.0048495)
(-0.0301415 -0.000183213 -0.00466444)
(-0.00263176 -8.03191e-07 -0.0130235)
(-0.00263112 -1.70863e-06 -0.0130238)
(-0.00263058 -1.76102e-06 -0.0130233)
(-0.00263014 -1.48257e-06 -0.0130229)
(-0.00262988 -8.98562e-07 -0.0130226)
(-0.00262964 -1.89166e-07 -0.0130216)
(-0.00806104 -1.5749e-06 -0.0135333)
(-0.00805858 -3.22824e-06 -0.0135304)
(-0.00805665 -3.14609e-06 -0.0135289)
(-0.00805513 -2.60457e-06 -0.0135283)
(-0.00805422 -1.4986e-06 -0.0135285)
(-0.00805341 -3.89377e-07 -0.013529)
(-0.0139515 -3.48022e-06 -0.0144372)
(-0.0139454 -6.80378e-06 -0.0144272)
(-0.0139411 -6.29685e-06 -0.0144234)
(-0.0139381 -5.03777e-06 -0.0144223)
(-0.0139363 -2.90384e-06 -0.0144238)
(-0.013935 -8.40744e-07 -0.0144273)
(-0.0205076 -6.79445e-06 -0.015746)
(-0.0204933 -1.26147e-05 -0.0157293)
(-0.0204853 -1.06487e-05 -0.0157244)
(-0.0204805 -7.84832e-06 -0.0157248)
(-0.0204782 -3.96678e-06 -0.0157308)
(-0.0204769 -9.4401e-07 -0.0157428)
(-0.0275921 -1.12882e-05 -0.0172295)
(-0.0275604 -1.86795e-05 -0.0172211)
(-0.0275474 -1.20939e-05 -0.0172234)
(-0.0275422 -6.11322e-06 -0.0172319)
(-0.0275422 -1.55881e-08 -0.0172487)
(-0.0275443 1.40604e-06 -0.0172762)
(-0.0344364 -1.22028e-05 -0.0181335)
(-0.0343709 -1.25438e-05 -0.0181785)
(-0.0343527 5.30432e-06 -0.0182098)
(-0.0343535 1.61852e-05 -0.0182393)
(-0.0343651 2.23528e-05 -0.0182743)
(-0.0343818 1.18402e-05 -0.0183188)
(-0.0406878 5.12608e-06 -0.0167981)
(-0.040568 3.42892e-05 -0.0169625)
(-0.0405502 6.99699e-05 -0.0170464)
(-0.0405737 8.55147e-05 -0.0171028)
(-0.0406206 8.26884e-05 -0.017146)
(-0.0406841 3.80644e-05 -0.0171776)
(-0.0460944 5.42384e-05 -0.00946592)
(-0.0459303 0.00014491 -0.00975709)
(-0.0459372 0.000196914 -0.00986813)
(-0.0460174 0.000207838 -0.00990592)
(-0.0461442 0.000178079 -0.00988941)
(-0.0463165 7.65989e-05 -0.00980992)
(-0.0509422 0.000128638 0.00984354)
(-0.0508209 0.000281391 0.00957963)
(-0.050928 0.000306555 0.00955806)
(-0.0511467 0.000280124 0.00964304)
(-0.0514462 0.000202892 0.00982597)
(-0.0518269 7.67827e-05 0.0101246)
(-0.0761535 0.000152427 0.046392)
(-0.0762355 0.000321686 0.0464214)
(-0.0764666 0.000331494 0.0466062)
(-0.0767819 0.000285911 0.0468618)
(-0.0771753 0.000186067 0.047207)
(-0.0776424 6.26714e-05 0.0476443)
(-0.0507321 2.8563e-05 0.102987)
(-0.0512007 -1.87357e-05 0.10346)
(-0.0516019 -0.000143559 0.103741)
(-0.0519718 -0.000218727 0.103942)
(-0.0523035 -0.000254671 0.104154)
(-0.0526051 -0.000131615 0.104346)
(-0.0360077 -9.49004e-05 0.202528)
(-0.0363845 -0.000264819 0.202946)
(-0.036676 -0.000374583 0.203186)
(-0.0369072 -0.000426748 0.203287)
(-0.0371021 -0.000294783 0.203486)
(-0.0371852 -7.34977e-05 0.203415)
(-0.00242871 -4.90088e-07 -0.017883)
(-0.00242804 -9.89739e-07 -0.0178837)
(-0.00242772 -8.92967e-07 -0.0178833)
(-0.00242758 -5.93036e-07 -0.0178829)
(-0.00242765 -1.92977e-07 -0.0178827)
(-0.00242769 7.71239e-08 -0.0178816)
(-0.00751386 -1.23234e-06 -0.018799)
(-0.00751146 -2.09767e-06 -0.0187976)
(-0.0075104 -1.37526e-06 -0.0187965)
(-0.0075101 -6.3796e-07 -0.0187961)
(-0.00751045 1.77296e-07 -0.0187963)
(-0.00751077 2.98532e-07 -0.0187962)
(-0.0133293 -2.61658e-06 -0.0205332)
(-0.013324 -3.92232e-06 -0.0205274)
(-0.0133222 -1.73964e-06 -0.0205249)
(-0.0133223 -6.93304e-09 -0.0205244)
(-0.0133236 1.52499e-06 -0.020526)
(-0.013325 1.08695e-06 -0.0205284)
(-0.0205838 -3.69413e-06 -0.0232254)
(-0.0205733 -4.13907e-06 -0.0232167)
(-0.0205713 8.21741e-07 -0.0232146)
(-0.0205732 4.01203e-06 -0.0232165)
(-0.0205773 6.17653e-06 -0.0232224)
(-0.0205813 3.41174e-06 -0.0232318)
(-0.0305644 -1.86226e-06 -0.0270965)
(-0.030545 2.67385e-06 -0.0270991)
(-0.0305437 1.242e-05 -0.0271062)
(-0.0305504 1.7497e-05 -0.0271175)
(-0.0305611 1.87593e-05 -0.0271345)
(-0.0305718 9.1112e-06 -0.0271568)
(-0.045282 8.36699e-06 -0.0324929)
(-0.0452467 2.69837e-05 -0.0325465)
(-0.045248 4.31382e-05 -0.0325835)
(-0.0452653 4.97149e-05 -0.0326182)
(-0.0452911 4.60571e-05 -0.0326543)
(-0.0453203 2.0791e-05 -0.03269)
(-0.0669583 3.03547e-05 -0.0395337)
(-0.0669068 7.59855e-05 -0.0396905)
(-0.06692 9.93207e-05 -0.0397762)
(-0.0669628 0.000104599 -0.0398386)
(-0.0670261 8.96884e-05 -0.0398825)
(-0.0671066 3.86386e-05 -0.0398998)
(-0.0963114 6.41117e-05 -0.04623)
(-0.0962852 0.00014258 -0.0464757)
(-0.0963404 0.000161824 -0.0465751)
(-0.096437 0.00015672 -0.0466153)
(-0.0965744 0.000123936 -0.0465973)
(-0.0967557 5.02854e-05 -0.0465026)
(-0.134572 8.38736e-05 -0.046233)
(-0.134692 0.000157836 -0.0464034)
(-0.134844 0.000132222 -0.046398)
(-0.135017 9.67652e-05 -0.0463102)
(-0.135239 4.30866e-05 -0.0461346)
(-0.135507 4.33958e-06 -0.0458549)
(-0.158639 3.80619e-05 -0.0640845)
(-0.158991 1.23055e-05 -0.06397)
(-0.159225 -0.000103602 -0.0638132)
(-0.159399 -0.000168711 -0.0636293)
(-0.159587 -0.000213971 -0.063423)
(-0.159723 -0.000123717 -0.0631397)
(-0.214054 -0.000166295 0.0467089)
(-0.214547 -0.000396659 0.0471709)
(-0.214743 -0.000508892 0.0474318)
(-0.214731 -0.000495678 0.047573)
(-0.214804 -0.000429683 0.0477184)
(-0.214472 -0.000213007 0.0476913)
(-0.0626337 -0.000206646 -0.117387)
(-0.0629037 -0.000335938 -0.117082)
(-0.0629568 -0.000375523 -0.117022)
(-0.0629089 -0.000192537 -0.116925)
(-0.0627464 -0.000235746 -0.117451)
(-0.0626705 -0.000294599 -0.116848)
(0.190142 7.43056e-06 -2.88166)
(0.190138 3.03134e-05 -2.88202)
(0.190133 2.74005e-07 -2.88198)
(0.190139 -1.08531e-06 -2.88195)
(0.190144 -2.98098e-05 -2.88198)
(0.190103 -3.65969e-06 -2.88168)
(0.0946873 2.52001e-05 -3.19215)
(0.0946815 2.07999e-05 -3.1924)
(0.0946789 -5.12193e-06 -3.19236)
(0.0946826 -5.05716e-06 -3.19235)
(0.0946837 -2.66062e-05 -3.1924)
(0.0946715 -2.71442e-05 -3.19215)
(0.0366321 1.83646e-05 -3.24542)
(0.0366311 1.68494e-05 -3.24557)
(0.0366315 -2.82889e-06 -3.24556)
(0.0366309 -2.25416e-06 -3.24555)
(0.0366296 -1.95012e-05 -3.24557)
(0.0366303 -1.89738e-05 -3.24542)
(0.226231 2.32906e-05 -2.81235)
(0.226243 1.1849e-05 -2.81266)
(0.226246 -1.48244e-05 -2.8126)
(0.226237 -1.47936e-05 -2.81259)
(0.226237 -2.09016e-05 -2.81264)
(0.226224 -2.62449e-05 -2.81228)
(0.0481253 2.12759e-05 -3.42323)
(0.0481384 1.5309e-05 -3.42347)
(0.0481368 -9.11851e-06 -3.42344)
(0.048138 -7.41257e-06 -3.42343)
(0.0481395 -3.00045e-05 -3.42346)
(0.0481113 -3.16093e-05 -3.42318)
(0.0577605 1.71696e-05 -3.3773)
(0.0577555 1.66018e-05 -3.37744)
(0.0577562 -3.4191e-06 -3.37742)
(0.0577567 -4.08731e-06 -3.37742)
(0.0577567 -2.47839e-05 -3.37743)
(0.0577602 -2.18944e-05 -3.37728)
(0.627089 3.84509e-05 -2.25155)
(0.627166 2.27648e-05 -2.25189)
(0.627158 -9.83531e-06 -2.25183)
(0.627146 -5.83125e-06 -2.25183)
(0.627153 -3.41649e-05 -2.25192)
(0.627073 -4.76471e-05 -2.25148)
(0.29136 2.15284e-05 -3.48034)
(0.291379 2.34504e-05 -3.48058)
(0.291377 -9.46173e-07 -3.48054)
(0.291382 5.19524e-06 -3.48054)
(0.291391 -2.88817e-05 -3.48057)
(0.291365 -3.53081e-05 -3.4803)
(0.112244 1.63658e-05 -3.29527)
(0.112242 1.52174e-05 -3.2954)
(0.112244 -2.51942e-06 -3.29539)
(0.112246 -4.24951e-06 -3.29539)
(0.112248 -2.11116e-05 -3.2954)
(0.112252 -1.95021e-05 -3.29526)
(1.05983 4.22704e-05 -2.98788)
(1.05992 2.85677e-05 -2.9883)
(1.0599 -1.4899e-05 -2.98825)
(1.05989 -4.87361e-06 -2.98827)
(1.0599 -5.47328e-05 -2.9884)
(1.05977 -7.35264e-05 -2.98789)
(0.335585 3.41858e-05 -4.00397)
(0.335578 4.3487e-05 -4.00425)
(0.335588 1.08636e-05 -4.0042)
(0.335596 2.05016e-05 -4.0042)
(0.335604 -2.93841e-05 -4.00426)
(0.335618 -4.39992e-05 -4.00399)
(0.113744 2.01925e-05 -3.61486)
(0.113742 1.91985e-05 -3.61501)
(0.113743 -3.46212e-07 -3.61499)
(0.113743 7.13645e-07 -3.615)
(0.113744 -1.76974e-05 -3.61502)
(0.113746 -1.99505e-05 -3.61489)
(1.041 3.79905e-05 -3.16644)
(1.04108 3.02407e-05 -3.16687)
(1.04104 -9.85198e-06 -3.16684)
(1.04102 2.70826e-07 -3.16687)
(1.04101 -5.14476e-05 -3.167)
(1.04088 -7.2426e-05 -3.16652)
(0.154777 3.72279e-05 -4.09082)
(0.154759 4.90153e-05 -4.09111)
(0.154772 1.41827e-05 -4.09108)
(0.154781 1.98267e-05 -4.09108)
(0.154777 -3.07495e-05 -4.09114)
(0.154814 -4.35891e-05 -4.09087)
(0.0506107 1.96101e-05 -3.63781)
(0.0506079 1.78346e-05 -3.63796)
(0.050603 -7.36413e-07 -3.63796)
(0.0506001 1.97235e-06 -3.63796)
(0.0505985 -1.80725e-05 -3.63799)
(0.0505981 -2.23689e-05 -3.63786)
(0.903029 2.91997e-05 -3.84925)
(0.90311 2.8335e-05 -3.84963)
(0.903066 4.13903e-06 -3.84961)
(0.903067 1.12038e-05 -3.84963)
(0.903092 -2.73834e-05 -3.84973)
(0.902979 -5.53922e-05 -3.84937)
(-0.0742095 2.69704e-05 -4.23218)
(-0.0742548 3.03318e-05 -4.23243)
(-0.0742342 2.70893e-06 -4.2324)
(-0.0742206 7.71614e-06 -4.23239)
(-0.0742343 -1.94126e-05 -4.23242)
(-0.0741541 -2.15771e-05 -4.23217)
(-0.0211472 1.63299e-05 -3.85328)
(-0.0211471 9.33761e-06 -3.85344)
(-0.021153 -8.6875e-06 -3.85344)
(-0.0211588 -4.15058e-06 -3.85345)
(-0.0211597 -1.89501e-05 -3.85347)
(-0.0211718 -1.99129e-05 -3.85331)
(-0.209327 -3.09717e-05 -4.90745)
(-0.209284 -2.85101e-05 -4.90777)
(-0.20936 1.59157e-05 -4.90784)
(-0.209438 -1.82705e-05 -4.90794)
(-0.20939 5.44518e-05 -4.90805)
(-0.209519 8.13275e-05 -4.90761)
(-0.38252 6.70598e-06 -3.77241)
(-0.382536 7.23459e-06 -3.77256)
(-0.382523 8.75088e-06 -3.77255)
(-0.382511 8.86724e-06 -3.77254)
(-0.382524 1.23865e-05 -3.77256)
(-0.382498 1.25892e-05 -3.77236)
(-0.136551 1.14979e-05 -3.92042)
(-0.136549 7.40787e-06 -3.92057)
(-0.136551 -1.22974e-05 -3.92056)
(-0.13656 -1.08479e-05 -3.92055)
(-0.136554 -3.1261e-05 -3.92056)
(-0.136574 -2.9651e-05 -3.92037)
(-1.80172 -5.50298e-05 -6.27749)
(-1.80197 1.97336e-06 -6.27779)
(-1.80207 5.27117e-05 -6.27779)
(-1.80224 5.97788e-05 -6.27771)
(-1.80247 -0.000109227 -6.27791)
(-1.80174 -0.000152175 -6.27722)
(-0.753011 1.59253e-05 -3.36187)
(-0.753127 -2.66723e-05 -3.36215)
(-0.753226 -3.98069e-05 -3.36215)
(-0.753352 -4.30322e-05 -3.36218)
(-0.753519 -4.52135e-05 -3.36236)
(-0.753188 -2.06044e-06 -3.36181)
(0.18 1.51326e-05 -3.7139)
(0.180033 1.2704e-05 -3.71399)
(0.180031 -2.78685e-05 -3.71397)
(0.180011 -8.59925e-06 -3.71398)
(0.180035 -4.56056e-05 -3.71408)
(0.179967 -5.97947e-05 -3.71381)
(2.70018 -6.57359e-05 2.52168)
(2.69968 8.54672e-05 2.5211)
(2.70016 0.00014337 2.52157)
(2.70052 0.000205081 2.52226)
(2.70149 -0.000121367 2.52333)
(2.69912 -0.000384302 2.52075)
(-2.22762 6.7082e-05 -2.9741)
(-2.22784 -3.77497e-05 -2.97459)
(-2.22785 -0.00010964 -2.97422)
(-2.22803 -0.000117702 -2.97392)
(-2.22796 6.27058e-05 -2.9738)
(-2.22826 0.000176834 -2.97429)
(-0.0864767 -9.35265e-06 -3.98514)
(-0.0865318 -2.83287e-05 -3.98518)
(-0.0865432 -8.57982e-05 -3.98519)
(-0.0866262 -9.32836e-05 -3.98518)
(-0.0865127 3.50781e-05 -3.98538)
(-0.0865282 6.07747e-05 -3.98495)
(8.98655 -4.44929e-05 13.5048)
(8.98644 8.99292e-05 13.5056)
(8.98653 0.000270251 13.5054)
(8.98683 0.000301939 13.5055)
(8.9874 0.000220588 13.5056)
(8.98637 -8.95719e-05 13.5057)
(6.41564 5.91213e-05 8.44269)
(6.41548 0.000158218 8.44258)
(6.41553 8.47019e-05 8.44287)
(6.41567 0.000284395 8.44321)
(6.41622 -1.6153e-05 8.44322)
(6.41522 -0.000402499 8.443)
(2.45116 0.000137566 0.946643)
(2.45071 0.000156804 0.946531)
(2.45117 -0.000378121 0.946988)
(2.45099 0.000185002 0.947438)
(2.45121 -0.000564418 0.947573)
(2.4509 -0.00117334 0.946615)
(5.87514 0.000149539 10.6366)
(5.87592 0.000181878 10.6383)
(5.87575 0.000194065 10.6379)
(5.87637 0.000310092 10.6378)
(5.87744 -6.55465e-05 10.6381)
(5.87438 -0.000328381 10.6374)
(8.24592 0.000256384 12.7841)
(8.24741 0.00037572 12.7857)
(8.24676 0.000253049 12.7853)
(8.24561 0.000735643 12.7854)
(8.24516 -0.000386992 12.7876)
(8.24839 -0.00113373 12.783)
(8.70254 0.000100928 8.17885)
(8.70321 0.000345481 8.17968)
(8.70281 0.000117891 8.1795)
(8.70263 0.00108487 8.18102)
(8.70526 -0.00107062 8.18535)
(8.70036 -0.00239583 8.17435)
(3.81489 5.01534e-05 5.5847)
(3.81538 6.31352e-05 5.58545)
(3.81535 4.64677e-05 5.5852)
(3.81541 -0.00019832 5.58528)
(3.81559 0.00037452 5.58616)
(3.81538 0.000565894 5.58424)
(6.06783 0.000209425 6.76821)
(6.0683 0.000226823 6.76939)
(6.06813 -0.00018004 6.76941)
(6.06942 -0.000811616 6.76882)
(6.07154 0.00111998 6.7666)
(6.06667 0.00165981 6.77195)
(9.90028 6.49987e-05 5.74285)
(9.90145 0.000285242 5.74501)
(9.9004 0.000354958 5.7454)
(9.90167 0.000494762 5.74219)
(9.90677 -0.000243328 5.73778)
(9.89529 -0.00069136 5.75081)
(0.436135 5.31648e-05 2.57327)
(0.436959 0.000533079 2.57478)
(0.436932 -0.000220281 2.57499)
(0.436984 0.00171648 2.57479)
(0.442211 -0.00200203 2.58262)
(0.431664 -0.00438422 2.56623)
(-2.90251 0.00119578 0.451877)
(-2.90305 0.00160129 0.453699)
(-2.90398 0.000362491 0.45195)
(-2.90261 0.0075102 0.452958)
(-2.90733 -0.00847111 0.458637)
(-2.89743 -0.0159038 0.445973)
(-2.78716 -2.39542e-05 -1.07871)
(-2.78644 -8.76032e-05 -1.07509)
(-2.78672 -0.00385673 -1.08177)
(-2.801 -0.0112027 -1.06495)
(-2.83834 0.0118023 -1.02684)
(-2.74463 0.0195328 -1.11935)
(2.8798 -0.000609747 2.26971)
(2.88193 -0.000292258 2.2693)
(2.88147 -0.000309938 2.26997)
(2.87962 -0.00375564 2.26692)
(2.87942 0.00342611 2.26775)
(2.88012 0.00661366 2.27161)
(-6.06056 0.00146323 0.487203)
(-6.06788 0.00222181 0.483361)
(-6.0638 0.000381793 0.488877)
(-6.06554 0.00635945 0.481969)
(-6.07524 -0.00885882 0.464806)
(-6.05142 -0.0153916 0.503033)
(-0.692151 4.52238e-06 10.6029)
(-0.699833 0.00114619 10.5978)
(-0.707711 0.00629504 10.5891)
(-0.669766 0.0183081 10.6396)
(-0.574687 -0.0208713 10.7762)
(-0.791594 -0.0351453 10.4514)
(1.06396 -0.000979269 -4.90513)
(1.06169 -0.000209765 -4.91092)
(1.06184 0.0005891 -4.90752)
(1.065 -0.000139968 -4.91129)
(1.07179 0.000889486 -4.91746)
(1.05739 0.00089497 -4.89689)
(2.04956 0.00021033 -0.795904)
(2.04521 0.000365196 -0.803146)
(2.04482 0.000100585 -0.801013)
(2.05622 0.000838143 -0.793062)
(2.08016 -0.000870034 -0.775833)
(2.02283 -0.00169386 -0.814491)
(6.62709 0.00112729 11.4941)
(6.6306 0.000726782 11.5042)
(6.62809 0.00114959 11.4993)
(6.63342 0.00708973 11.4959)
(6.65604 -0.00733092 11.4994)
(6.60585 -0.0129818 11.4927)
(-0.1824 -0.000153877 -2.79735)
(-0.181652 0.000118064 -2.79823)
(-0.182083 0.000559294 -2.79793)
(-0.1828 0.00104179 -2.79689)
(-0.185235 -0.000744488 -2.79683)
(-0.180502 -0.00147579 -2.79859)
(5.18412 0.000157931 2.36159)
(5.18431 0.00032493 2.36146)
(5.18392 0.000600875 2.36134)
(5.18615 0.00260314 2.3632)
(5.19497 -0.0022345 2.37067)
(5.17526 -0.00442109 2.35481)
(8.93247 0.000968075 6.79811)
(8.93526 0.00082131 6.80529)
(8.93373 -0.000665272 6.80238)
(8.93619 0.000654336 6.79687)
(8.94906 9.15308e-05 6.78916)
(8.92046 -0.00114667 6.80927)
(0.694308 8.65664e-05 0.926505)
(0.693409 0.00024992 0.925731)
(0.693388 -7.31948e-05 0.925988)
(0.695568 0.000213157 0.927272)
(0.700843 0.000243172 0.93101)
(0.688679 -0.000182711 0.922949)
(5.74182 -1.80903e-05 3.71036)
(5.7426 0.000252276 3.71207)
(5.74247 9.0549e-05 3.71162)
(5.74275 0.000351414 3.71086)
(5.74651 0.00051902 3.71167)
(5.73897 -5.47214e-05 3.71132)
(9.88959 -0.000187987 1.47979)
(9.88968 0.000294457 1.47746)