/*--------------------------------*- C++ -*----------------------------------*\
| =========                 |                                                 |
| \\      /  F ield         | OpenFOAM: The Open Source CFD Toolbox           |
|  \\    /   O peration     | Version:  v1612+                                |
|   \\  /    A nd           | Web:      www.OpenFOAM.com                      |
|    \\/     M anipulation  |                                                 |
\*---------------------------------------------------------------------------*/
FoamFile
{
    version     2.0;
    format      ascii;
    class       volScalarField;
    location    "2.9";
    object      alpha.water;
}
// * * * * * * * * * * * * * * * * * * * * * * * * * * * * * * * * * * * * * //

dimensions      [0 0 0 0 0 0 0];

internalField   nonuniform List<scalar> 
1116
(
0.904207
0.904202
0.904203
0.904202
0.9042
0.904203
0.905963
0.905959
0.90596
0.905959
0.905957
0.90596
0.91493
0.914925
0.914926
0.914925
0.914923
0.914927
0.932879
0.932874
0.932875
0.932875
0.932873
0.932876
0.950103
0.950098
0.950098
0.950098
0.950096
0.950099
0.96036
0.960356
0.960355
0.960354
0.960353
0.960355
0.964563
0.964558
0.964556
0.964555
0.964554
0.964557
0.972154
0.972152
0.972151
0.97215
0.97215
0.972151
0.973116
0.973116
0.973116
0.973116
0.973116
0.973116
0.973117
0.973117
0.973117
0.973117
0.973117
0.973117
0.973117
0.973117
0.973117
0.973117
0.973117
0.973117
0.967751
0.967751
0.967751
0.967752
0.967753
0.967748
0.382917
0.382918
0.382916
0.382914
0.382914
0.382913
0.207912
0.20791
0.20791
0.207908
0.207906
0.20791
0.182835
0.182833
0.182833
0.182831
0.182829
0.182833
0.21798
0.217978
0.217978
0.217976
0.217973
0.217978
0.289644
0.289641
0.289643
0.289641
0.289638
0.289642
0.36806
0.368058
0.368061
0.36806
0.368058
0.36806
0.413343
0.413341
0.413343
0.413342
0.413341
0.413341
0.40756
0.407559
0.40756
0.40756
0.40756
0.407559
0.397778
0.39777
0.397772
0.397773
0.397772
0.397776
0.547927
0.547903
0.547911
0.547912
0.547907
0.547922
0.906262
0.906245
0.906249
0.906249
0.906244
0.906258
0.967678
0.967678
0.967678
0.967679
0.96768
0.967675
3.68519e-08
3.68515e-08
3.68521e-08
3.68537e-08
3.68556e-08
3.68577e-08
1.5951e-08
1.59499e-08
1.59501e-08
1.59481e-08
1.59458e-08
1.59496e-08
1.13881e-08
1.13875e-08
1.13877e-08
1.13862e-08
1.13846e-08
1.13865e-08
5.33625e-09
5.33626e-09
5.33626e-09
5.33605e-09
5.33569e-09
5.33502e-09
6.60716e-10
6.60707e-10
6.60706e-10
6.60678e-10
6.60631e-10
6.60553e-10
8.28689e-11
8.28671e-11
8.28665e-11
8.28627e-11
8.28569e-11
8.28468e-11
1.62155e-12
1.62201e-12
1.6214e-12
1.62108e-12
1.6212e-12
1.61954e-12
-2.3993e-12
-2.39061e-12
-2.39095e-12
-2.39102e-12
-2.3878e-12
-2.39632e-12
-7.12525e-07
-7.13298e-07
-7.13144e-07
-7.12917e-07
-7.13053e-07
-7.12975e-07
0.000595889
0.00059586
0.000595872
0.000595874
0.000595861
0.0005959
0.439266
0.4392
0.439213
0.43922
0.439211
0.439237
0.911614
0.911606
0.911613
0.911607
0.9116
0.91163
5.29191e-07
5.29215e-07
5.2932e-07
5.29439e-07
5.29466e-07
5.29405e-07
4.64806e-06
4.64783e-06
4.64791e-06
4.64794e-06
4.64779e-06
4.64822e-06
1.5951e-08
1.59499e-08
1.59501e-08
1.59481e-08
1.59458e-08
1.59496e-08
1.87332e-07
1.87294e-07
1.87299e-07
1.87244e-07
1.87188e-07
1.87334e-07
1.93415e-07
1.93406e-07
1.93405e-07
1.93402e-07
1.93393e-07
1.93368e-07
1.62156e-12
1.62202e-12
1.62141e-12
1.62109e-12
1.62121e-12
1.61955e-12
1.71605e-13
1.71629e-13
1.71632e-13
1.71642e-13
1.71654e-13
1.71605e-13
-1.51751e-15
-1.51998e-15
-1.51976e-15
-1.51938e-15
-1.51988e-15
-1.51928e-15
-2.31544e-06
-2.31525e-06
-2.31529e-06
-2.31545e-06
-2.31575e-06
-2.31523e-06
6.06181e-05
6.0615e-05
6.06162e-05
6.06176e-05
6.0618e-05
6.06181e-05
0.00353126
0.00352039
0.00352213
0.00352403
0.00352173
0.00352669
0.887601
0.887578
0.887577
0.887591
0.887613
0.88755
1.63866e-60
1.64177e-60
1.64154e-60
1.64157e-60
1.64213e-60
1.63877e-60
4.07967e-56
4.08461e-56
4.08333e-56
4.08338e-56
4.08527e-56
4.07838e-56
5.3987e-52
5.39686e-52
5.39275e-52
5.39246e-52
5.39604e-52
5.38975e-52
4.74874e-48
4.74023e-48
4.73546e-48
4.73627e-48
4.74252e-48
4.74313e-48
5.46251e-43
5.45232e-43
5.44515e-43
5.48245e-43
5.61709e-43
5.39338e-43
4.58346e-38
4.621e-38
4.6399e-38
4.69109e-38
4.82501e-38
4.63367e-38
2.91906e-34
2.99538e-34
3.03058e-34
3.07576e-34
3.16607e-34
3.03474e-34
3.39005e-31
3.55532e-31
3.6168e-31
3.66654e-31
3.74824e-31
3.54668e-31
4.87417e-29
5.21898e-29
5.27995e-29
5.25615e-29
5.22314e-29
4.74159e-29
2.34756e-31
2.48904e-31
2.51455e-31
2.50948e-31
2.50534e-31
2.29385e-31
3.98369e-30
3.99157e-30
3.99236e-30
3.99451e-30
3.99954e-30
3.99994e-30
1.91912e-27
1.92382e-27
1.92404e-27
1.92418e-27
1.92487e-27
1.9224e-27
1.43298e-57
1.43573e-57
1.43553e-57
1.43553e-57
1.436e-57
1.43305e-57
3.53705e-53
3.54273e-53
3.54191e-53
3.54188e-53
3.54322e-53
3.53671e-53
4.50605e-49
4.51007e-49
4.50806e-49
4.50776e-49
4.50986e-49
4.50291e-49
3.70938e-45
3.71052e-45
3.70853e-45
3.70869e-45
3.71161e-45
3.70841e-45
1.70493e-39
1.70628e-39
1.70407e-39
1.7146e-39
1.75496e-39
1.67738e-39
1.11707e-34
1.12435e-34
1.12639e-34
1.13599e-34
1.16473e-34
1.11397e-34
6.19066e-31
6.28876e-31
6.3245e-31
6.39011e-31
6.55121e-31
6.25515e-31
6.74026e-28
6.91526e-28
6.96698e-28
7.02804e-28
7.16822e-28
6.78588e-28
1.07367e-25
1.11088e-25
1.11373e-25
1.10889e-25
1.11041e-25
1.0236e-25
7.82364e-28
8.04715e-28
8.06345e-28
8.05026e-28
8.09358e-28
7.51175e-28
5.88067e-27
5.89002e-27
5.89014e-27
5.89205e-27
5.89797e-27
5.89702e-27
1.81157e-24
1.81527e-24
1.81519e-24
1.81505e-24
1.81537e-24
1.81276e-24
4.81401e-55
4.82336e-55
4.8228e-55
4.8229e-55
4.82454e-55
4.81466e-55
1.16733e-50
1.16945e-50
1.16927e-50
1.1693e-50
1.16972e-50
1.16748e-50
1.41241e-46
1.41454e-46
1.4142e-46
1.41419e-46
1.41475e-46
1.41226e-46
1.07759e-42
1.07897e-42
1.07868e-42
1.07874e-42
1.0794e-42
1.07765e-42
2.3963e-36
2.40039e-36
2.39726e-36
2.41138e-36
2.46617e-36
2.3526e-36
1.02154e-31
1.02645e-31
1.02697e-31
1.03446e-31
1.05888e-31
1.01063e-31
4.14087e-28
4.17939e-28
4.18914e-28
4.22353e-28
4.32193e-28
4.12062e-28
3.83349e-25
3.88297e-25
3.89246e-25
3.91947e-25
3.99749e-25
3.79366e-25
7.58512e-23
7.65941e-23
7.6566e-23
7.64788e-23
7.7469e-23
7.28153e-23
1.49029e-21
1.45444e-21
1.35591e-21
1.25429e-21
9.70286e-22
9.31471e-22
1.79616e-23
1.77877e-23
1.71969e-23
1.65608e-23
1.5151e-23
1.44637e-23
8.23671e-22
8.25064e-22
8.24923e-22
8.24745e-22
8.24727e-22
8.23419e-22
7.47905e-53
7.49361e-53
7.49283e-53
7.49307e-53
7.49565e-53
7.4803e-53
1.76201e-48
1.76537e-48
1.76519e-48
1.76525e-48
1.76586e-48
1.76241e-48
1.98995e-44
1.99352e-44
1.99325e-44
1.99327e-44
1.99395e-44
1.99018e-44
1.59651e-40
1.59868e-40
1.59756e-40
1.59824e-40
1.60323e-40
1.58963e-40
2.06747e-33
2.07114e-33
2.06801e-33
2.07956e-33
2.12525e-33
2.02539e-33
5.8091e-29
5.82608e-29
5.82153e-29
5.85783e-29
5.98834e-29
5.70839e-29
1.84811e-25
1.85586e-25
1.85525e-25
1.86737e-25
1.90835e-25
1.81864e-25
1.45103e-22
1.45787e-22
1.45686e-22
1.46566e-22
1.49551e-22
1.42373e-22
2.84202e-20
2.83921e-20
2.84473e-20
2.84244e-20
2.9049e-20
2.76231e-20
3.92155e-18
3.90429e-18
3.83201e-18
3.85287e-18
2.94642e-18
3.73724e-18
1.05489e-19
8.93727e-20
5.91727e-20
8.84981e-20
4.40746e-20
8.53947e-20
2.48729e-21
2.41815e-21
1.94705e-21
2.39983e-21
1.75902e-21
2.35422e-21
6.15253e-07
6.15227e-07
6.15389e-07
6.15573e-07
6.15605e-07
6.15551e-07
8.03257e-08
8.03021e-08
8.03287e-08
8.03607e-08
8.03725e-08
8.03865e-08
-3.24458e-15
-3.55378e-15
-3.64781e-15
-3.5667e-15
-3.54564e-15
-3.63049e-15
6.38885e-06
6.38887e-06
6.38889e-06
6.38892e-06
6.38896e-06
6.38896e-06
2.47019e-06
2.46929e-06
2.46979e-06
2.46967e-06
2.46859e-06
2.47043e-06
-1.8051e-14
-1.97702e-14
-2.02945e-14
-1.9843e-14
-1.97258e-14
-2.01997e-14
2.62722e-07
2.62704e-07
2.62678e-07
2.62764e-07
2.62869e-07
2.62801e-07
6.73189e-08
6.73056e-08
6.73033e-08
6.7319e-08
6.73361e-08
6.7344e-08
-1.20518e-13
-1.32e-13
-1.35497e-13
-1.32483e-13
-1.31702e-13
-1.34856e-13
2.60373e-07
2.60242e-07
2.60271e-07
2.60138e-07
2.60076e-07
2.60487e-07
4.0123e-19
4.01331e-19
4.01285e-19
4.01571e-19
4.01753e-19
4.01204e-19
-9.03451e-14
-9.89461e-14
-1.01564e-13
-9.92991e-14
-9.87137e-14
-1.01075e-13
2.88833e-07
2.88833e-07
2.88831e-07
2.88829e-07
2.88826e-07
2.88822e-07
1.02957e-07
1.02906e-07
1.02906e-07
1.02886e-07
1.02854e-07
1.02882e-07
-2.51178e-15
-2.75346e-15
-2.82954e-15
-2.76558e-15
-2.74776e-15
-2.77994e-15
2.53742e-08
2.5373e-08
2.53689e-08
2.53664e-08
2.53637e-08
2.53532e-08
2.49342e-11
2.51045e-11
2.52375e-11
2.52662e-11
2.50513e-11
2.55666e-11
-2.45218e-19
-2.46391e-19
-2.49175e-19
-2.49398e-19
-2.48213e-19
-2.55103e-19
-1.41991e-13
-1.42124e-13
-1.41993e-13
-1.41944e-13
-1.41966e-13
-1.41549e-13
-6.56121e-15
-6.53154e-15
-6.55127e-15
-6.56603e-15
-6.54787e-15
-6.63898e-15
-1.09476e-17
-1.08213e-17
-1.09039e-17
-1.09707e-17
-1.09259e-17
-1.12476e-17
-3.93891e-14
-3.94155e-14
-3.93919e-14
-3.93833e-14
-3.93968e-14
-3.93028e-14
-2.32006e-13
-2.30895e-13
-2.31553e-13
-2.32033e-13
-2.31279e-13
-2.34736e-13
-4.02699e-15
-4.004e-15
-4.0201e-15
-4.03164e-15
-4.02109e-15
-4.08343e-15
-8.60865e-08
-8.60641e-08
-8.60804e-08
-8.60719e-08
-8.6014e-08
-8.61443e-08
-1.86507e-12
-1.85574e-12
-1.86092e-12
-1.86445e-12
-1.85783e-12
-1.88678e-12
-1.36085e-12
-1.35412e-12
-1.35788e-12
-1.36045e-12
-1.35595e-12
-1.3761e-12
3.92648e-06
3.92622e-06
3.92641e-06
3.92679e-06
3.92751e-06
3.92617e-06
-1.37214e-07
-1.37205e-07
-1.37172e-07
-1.37315e-07
-1.3778e-07
-1.3669e-07
-2.41935e-09
-2.41054e-09
-2.41565e-09
-2.41271e-09
-2.41112e-09
-2.43338e-09
6.40977e-05
6.40927e-05
6.40958e-05
6.40952e-05
6.40828e-05
6.41108e-05
5.4238e-06
5.42376e-06
5.4237e-06
5.42417e-06
5.42424e-06
5.42313e-06
2.46639e-07
2.46611e-07
2.46639e-07
2.46664e-07
2.46676e-07
2.46619e-07
0.524882
0.524863
0.524868
0.524846
0.524779
0.524912
0.0223708
0.0223403
0.022351
0.0223987
0.0224261
0.0223207
1.10385e-05
1.10381e-05
1.10378e-05
1.10395e-05
1.10444e-05
1.10332e-05
-1.45826e-12
-2.97971e-13
-2.7645e-12
-2.85443e-13
-1.21942e-14
-2.27073e-11
4.65858e-18
2.43282e-18
7.18978e-18
2.02048e-14
7.28174e-18
4.18965e-18
1.10212e-41
3.19903e-40
1.09467e-41
3.48573e-40
1.06052e-38
1.75061e-41
4.02772e-07
4.0327e-07
4.03248e-07
4.05061e-07
4.08871e-07
3.97432e-07
5.66951e-09
5.6815e-09
5.68034e-09
5.70932e-09
5.78993e-09
5.56706e-09
0.000164196
0.000160238
0.000161264
0.000168356
0.000181523
0.000149195
0.00151081
0.00151108
0.00150978
0.00151807
0.00152809
0.00149205
0.0328619
0.0328262
0.032826
0.0329175
0.0330838
0.0326549
0.076244
0.0762741
0.0762273
0.0763666
0.0767088
0.0758721
0.0251173
0.0251008
0.0251041
0.0251782
0.0252341
0.025083
0.324212
0.324056
0.324034
0.324475
0.32533
0.32331
0.143419
0.143673
0.143526
0.143479
0.143569
0.143379
0.438794
0.4387
0.438639
0.439103
0.440055
0.437833
0.42885
0.428888
0.428855
0.428801
0.428703
0.429036
0.0108143
0.0107719
0.0108007
0.0107749
0.0106743
0.0109474
0.520948
0.520938
0.520936
0.520924
0.52091
0.520977
0.102541
0.10262
0.102657
0.102247
0.101346
0.103641
0.00146912
0.00146866
0.00146905
0.00146973
0.0014691
0.00146983
4.62064e-51
4.62958e-51
4.62914e-51
4.6293e-51
4.63089e-51
4.62143e-51
7.95479e-53
7.97108e-53
7.97097e-53
7.97127e-53
7.97351e-53
7.95661e-53
3.18025e-56
3.18712e-56
3.18703e-56
3.18716e-56
3.18812e-56
3.18109e-56
1.04369e-46
1.0457e-46
1.04561e-46
1.04565e-46
1.046e-46
1.04394e-46
3.63154e-48
3.6388e-48
3.63879e-48
3.63892e-48
3.63986e-48
3.63257e-48
1.66975e-51
1.67325e-51
1.67321e-51
1.67327e-51
1.67372e-51
1.6702e-51
1.07541e-42
1.07742e-42
1.0773e-42
1.07732e-42
1.07765e-42
1.07557e-42
7.80381e-44
7.81865e-44
7.81857e-44
7.81868e-44
7.82038e-44
7.80539e-44
4.48792e-47
4.49692e-47
4.49681e-47
4.49689e-47
4.49796e-47
4.48883e-47
8.38519e-38
8.38305e-38
8.35246e-38
8.37457e-38
8.5246e-38
8.14667e-38
2.06438e-34
2.06358e-34
2.05558e-34
2.06161e-34
2.1016e-34
2.00114e-34
4.33237e-31
4.33104e-31
4.31483e-31
4.32819e-31
4.41257e-31
4.20207e-31
1.10715e-30
1.109e-30
1.10712e-30
1.11311e-30
1.13704e-30
1.08332e-30
4.61375e-28
4.62114e-28
4.61289e-28
4.63778e-28
4.73647e-28
4.51316e-28
1.39437e-25
1.39654e-25
1.39399e-25
1.40157e-25
1.43118e-25
1.36399e-25
1.68965e-26
1.69307e-26
1.69064e-26
1.70031e-26
1.737e-26
1.65521e-26
3.56587e-24
3.57204e-24
3.56602e-24
3.58598e-24
3.66215e-24
3.49012e-24
4.45844e-22
4.46577e-22
4.45779e-22
4.48288e-22
4.57713e-22
4.36338e-22
3.43462e-23
3.44234e-23
3.43738e-23
3.45744e-23
3.53104e-23
3.36524e-23
4.21374e-21
4.22104e-21
4.21347e-21
4.23744e-21
4.32627e-21
4.1242e-21
2.3154e-19
2.31921e-19
2.31482e-19
2.32814e-19
2.37639e-19
2.26632e-19
1.81803e-20
1.82201e-20
1.81884e-20
1.8293e-20
1.86622e-20
1.77957e-20
1.21444e-18
1.21648e-18
1.21405e-18
1.22106e-18
1.24427e-18
1.18845e-18
2.36826e-17
2.37209e-17
2.3672e-17
2.38113e-17
2.4293e-17
2.31842e-17
2.56466e-18
2.5381e-18
2.56346e-18
2.54137e-18
2.62233e-18
2.50413e-18
7.04397e-17
6.72879e-17
7.03941e-17
6.7119e-17
7.19404e-17
6.88115e-17
1.70287e-17
1.70126e-17
1.70289e-17
1.70062e-17
1.68563e-17
1.70291e-17
7.13644e-16
7.10273e-16
6.92838e-16
7.10352e-16
3.92628e-16
6.96896e-16
1.42498e-14
1.42973e-14
1.42789e-14
1.43401e-14
1.80952e-17
1.37447e-14
1.57497e-17
1.41097e-17
1.57497e-17
1.4021e-17
1.53902e-17
1.56432e-17
1.30388e-13
1.29926e-13
1.30284e-13
1.29182e-13
2.18241e-13
1.36029e-13
4.97283e-18
4.99832e-18
2.7136e-18
4.8874e-19
4.13297e-19
4.51032e-19
4.97261e-18
5.05799e-18
4.93776e-18
5.19728e-18
4.13296e-19
3.7513e-18
-1.43452e-16
-1.43103e-16
-1.43365e-16
-1.38282e-19
-2.40567e-16
-1.48981e-16
2.23918e-09
2.25844e-09
2.28029e-09
2.28941e-09
2.2832e-09
2.13888e-09
2.29632e-216
3.82049e-212
1.00675e-206
3.52027e-199
1.2788e-187
7.66339e-215
)
;

boundaryField
{
    seabed_topleft_surface
    {
        type            zeroGradient;
    }
    seabed_topright_surface
    {
        type            zeroGradient;
    }
    breakwater_top_surface
    {
        type            zeroGradient;
    }
    breakwater_left_surface
    {
        type            zeroGradient;
    }
    breakwater_right_surface
    {
        type            zeroGradient;
    }
    water_front_surface
    {
        type            zeroGradient;
    }
    water_back_surface
    {
        type            zeroGradient;
    }
    water_left_surface
    {
        type            zeroGradient;
    }
    water_right_surface
    {
        type            zeroGradient;
    }
    water_top_surface
    {
        type            inletOutlet;
        inletValue      uniform 0;
        value           nonuniform List<scalar> 
180
(
0
0
0
0
0
0
0
0
0
0
0
0
0
0
0
0
0
0
0
0
0
0
0
0
0
0
0
0
0
0
0
0
0
0
0
0
0
0
0
0
0
0
0
0
0
0
0
0
0
0
0
0
0
0
-2.41935e-09
-2.41054e-09
-2.41565e-09
-2.41271e-09
-2.41112e-09
-2.43338e-09
2.46639e-07
2.46611e-07
2.46639e-07
2.46664e-07
2.46676e-07
2.46619e-07
1.10385e-05
1.10381e-05
1.10378e-05
1.10395e-05
1.10444e-05
1.10332e-05
0
0
0
0
0
0
0.000164196
0.000160238
0.000161264
0.000168356
0.000181523
0.000149195
0.076244
0.0762741
0.0762273
0.0763666
0.0767088
0.0758721
0.143419
0.143673
0.143526
0.143479
0.143569
0.143379
0.0108143
0.0107719
0.0108007
0.0107749
0.0106743
0.0109474
0.00146912
0.00146866
0.00146905
0.00146973
0.0014691
0.00146983
0
0
0
0
0
0
0
0
0
0
0
0
0
0
0
0
0
0
0
0
0
0
0
0
0
0
0
0
0
0
0
0
0
0
0
0
0
0
0
0
0
0
0
0
0
0
0
0
0
0
0
0
0
0
0
0
0
0
0
0
0
0
0
0
0
0
0
0
0
0
0
0
)
;
    }
}


// ************************************************************************* //
