/*--------------------------------*- C++ -*----------------------------------*\
| =========                 |                                                 |
| \\      /  F ield         | OpenFOAM: The Open Source CFD Toolbox           |
|  \\    /   O peration     | Version:  v1612+                                |
|   \\  /    A nd           | Web:      www.OpenFOAM.com                      |
|    \\/     M anipulation  |                                                 |
\*---------------------------------------------------------------------------*/
FoamFile
{
    version     2.0;
    format      ascii;
    class       volScalarField;
    location    "2.9";
    object      p;
}
// * * * * * * * * * * * * * * * * * * * * * * * * * * * * * * * * * * * * * //

dimensions      [1 -1 -2 0 0 0 0];

internalField   nonuniform List<scalar> 
1116
(
8902.43
8902.44
8902.43
8902.42
8902.41
8902.4
8320.11
8320.12
8320.11
8320.1
8320.09
8320.08
7682.33
7682.34
7682.33
7682.32
7682.31
7682.31
7686.6
7686.61
7686.6
7686.59
7686.59
7686.58
8212.51
8212.52
8212.51
8212.5
8212.5
8212.49
8926.8
8926.81
8926.8
8926.8
8926.8
8926.78
9648.25
9648.26
9648.25
9648.24
9648.24
9648.23
10813.4
10813.4
10813.4
10813.4
10813.4
10813.4
12837.1
12837.1
12837.1
12837.1
12837.1
12837.1
15918.7
15918.7
15918.7
15918.7
15918.7
15918.7
20271.8
20271.7
20271.7
20271.7
20271.7
20271.8
23221.3
23221.3
23221.3
23221.3
23221.3
23221.3
1865.15
1865.16
1865.15
1865.14
1865.14
1865.13
1033.38
1033.37
1033.37
1033.36
1033.35
1033.37
916.546
916.54
916.539
916.531
916.52
916.534
1095.2
1095.19
1095.19
1095.18
1095.17
1095.18
1441.69
1441.68
1441.69
1441.68
1441.67
1441.68
1825.64
1825.64
1825.65
1825.65
1825.64
1825.64
2033.4
2033.4
2033.41
2033.4
2033.4
2033.39
1999.16
1999.15
1999.15
1999.15
1999.14
1999.15
2168.41
2168.4
2168.39
2168.4
2168.41
2168.42
4398.05
4398.01
4398
4398.02
4398.04
4398.09
11660
11659.9
11659.9
11659.9
11659.9
11660
17125.1
17125.3
17125.3
17125.3
17125.3
17125.2
-21.8973
-21.897
-21.897
-21.8969
-21.8968
-21.8972
-17.1324
-17.1321
-17.1322
-17.1322
-17.1321
-17.1324
-17.9466
-17.9462
-17.9462
-17.9461
-17.9459
-17.9462
-22.0451
-22.0444
-22.0445
-22.0445
-22.0444
-22.045
-31.5322
-31.5313
-31.5313
-31.5315
-31.5316
-31.5323
-42.2558
-42.2549
-42.2543
-42.2544
-42.2548
-42.2555
-51.1426
-51.1427
-51.1419
-51.142
-51.1424
-51.1424
23.7977
23.7966
23.7967
23.7959
23.7948
23.795
189.857
189.851
189.849
189.85
189.85
189.853
518.486
518.456
518.453
518.456
518.457
518.477
2394.69
2394.49
2394.52
2394.56
2394.5
2394.66
9866.1
9866.37
9866.26
9866.29
9866.34
9866.12
-27.7755
-27.7754
-27.7754
-27.7755
-27.7756
-27.7757
-25.2537
-25.2535
-25.2535
-25.2536
-25.2536
-25.2537
-25.6493
-25.6491
-25.6492
-25.6493
-25.6492
-25.6493
-26.8514
-26.8511
-26.8513
-26.8514
-26.8514
-26.8517
-31.0955
-31.0953
-31.0955
-31.0957
-31.0958
-31.0965
-39.3034
-39.3033
-39.3035
-39.3037
-39.3039
-39.3048
-50.3796
-50.3795
-50.3796
-50.38
-50.3806
-50.3816
-55.9426
-55.9422
-55.9424
-55.9428
-55.9434
-55.9448
-39.6883
-39.6885
-39.6901
-39.6915
-39.6926
-39.6891
-15.4339
-15.4325
-15.431
-15.4312
-15.4329
-15.4342
195.648
195.655
195.654
195.656
195.655
195.634
1619.14
1618.8
1618.76
1618.84
1618.71
1618.92
-4.94305
-4.94304
-4.94304
-4.94305
-4.94305
-4.94305
-4.94421
-4.94421
-4.94421
-4.94421
-4.94421
-4.94421
-4.94646
-4.94646
-4.94646
-4.94646
-4.94646
-4.94645
-4.94952
-4.94952
-4.94952
-4.94951
-4.9495
-4.94949
-4.9528
-4.9528
-4.95278
-4.95276
-4.95274
-4.95272
-4.95482
-4.9548
-4.95476
-4.95472
-4.95468
-4.95464
-4.9545
-4.95444
-4.95437
-4.9543
-4.95423
-4.95418
-4.95458
-4.95449
-4.9544
-4.9543
-4.95421
-4.95416
-4.95558
-4.95549
-4.95542
-4.95532
-4.9552
-4.95511
-4.95545
-4.95542
-4.95538
-4.95528
-4.95498
-4.95434
-4.96566
-4.96575
-4.96583
-4.96591
-4.96593
-4.96594
-4.90793
-4.90802
-4.90805
-4.90804
-4.90802
-4.90804
-14.7517
-14.7517
-14.7517
-14.7517
-14.7517
-14.7517
-14.7529
-14.7529
-14.7529
-14.7529
-14.7529
-14.7529
-14.7553
-14.7553
-14.7553
-14.7552
-14.7552
-14.7552
-14.759
-14.759
-14.759
-14.759
-14.7589
-14.7589
-14.7649
-14.7649
-14.7649
-14.7648
-14.7648
-14.7648
-14.7773
-14.7773
-14.7772
-14.7771
-14.7771
-14.7771
-14.8011
-14.801
-14.8009
-14.8009
-14.8008
-14.8008
-14.8305
-14.8304
-14.8304
-14.8304
-14.8305
-14.8306
-14.8629
-14.8629
-14.863
-14.8633
-14.8636
-14.8639
-14.8938
-14.8939
-14.8942
-14.8947
-14.8953
-14.8962
-14.9307
-14.9308
-14.9309
-14.931
-14.9311
-14.9311
-14.9229
-14.9228
-14.9224
-14.922
-14.9216
-14.9212
-24.5594
-24.5594
-24.5594
-24.5594
-24.5594
-24.5594
-24.5605
-24.5605
-24.5605
-24.5605
-24.5605
-24.5605
-24.5629
-24.5629
-24.5629
-24.5629
-24.5629
-24.5629
-24.5662
-24.5662
-24.5662
-24.5662
-24.5662
-24.5662
-24.5694
-24.5694
-24.5694
-24.5694
-24.5694
-24.5694
-24.5673
-24.5673
-24.5673
-24.5673
-24.5673
-24.5673
-24.5553
-24.5554
-24.5554
-24.5554
-24.5555
-24.5556
-24.541
-24.5411
-24.5412
-24.5414
-24.5415
-24.5416
-24.5245
-24.5247
-24.5249
-24.5251
-24.5252
-24.5253
-24.4424
-24.4427
-24.443
-24.4433
-24.4436
-24.4438
-24.5977
-24.5975
-24.5971
-24.5965
-24.596
-24.5955
-24.0094
-24.0095
-24.0094
-24.0092
-24.0087
-24.0088
-34.3662
-34.3662
-34.3662
-34.3662
-34.3663
-34.3663
-34.3674
-34.3674
-34.3674
-34.3674
-34.3674
-34.3674
-34.37
-34.37
-34.37
-34.37
-34.37
-34.37
-34.3749
-34.3749
-34.3749
-34.3749
-34.3749
-34.3749
-34.3845
-34.3845
-34.3844
-34.3844
-34.3845
-34.3845
-34.4067
-34.4067
-34.4067
-34.4067
-34.4067
-34.4067
-34.4483
-34.4483
-34.4483
-34.4484
-34.4484
-34.4485
-34.5063
-34.5063
-34.5064
-34.5065
-34.5066
-34.5067
-34.5913
-34.5914
-34.5915
-34.5916
-34.5917
-34.5917
-34.6961
-34.6961
-34.696
-34.6957
-34.6956
-34.6953
-34.8724
-34.8719
-34.8711
-34.8701
-34.8692
-34.8687
-35.187
-35.186
-35.1847
-35.1831
-35.1815
-35.1803
-43.0571
-43.0571
-43.0571
-43.0572
-43.0572
-43.0573
-55.2409
-55.241
-55.241
-55.241
-55.241
-55.241
-68.1218
-68.1219
-68.1218
-68.1218
-68.1218
-68.1217
-42.6381
-42.6381
-42.6382
-42.6382
-42.6383
-42.6383
-55.1718
-55.1719
-55.1719
-55.1719
-55.172
-55.1719
-68.5874
-68.5875
-68.5874
-68.5874
-68.5874
-68.5873
-43.9784
-43.9784
-43.9785
-43.9785
-43.9786
-43.9786
-55.2174
-55.2175
-55.2175
-55.2175
-55.2176
-55.2175
-69.0118
-69.0119
-69.0119
-69.0118
-69.0118
-69.0117
-46.0043
-46.0042
-46.0042
-46.0043
-46.0044
-46.0045
-56.5104
-56.5104
-56.5104
-56.5105
-56.5106
-56.5106
-70.2386
-70.2387
-70.2387
-70.2387
-70.2387
-70.2385
-48.6402
-48.6402
-48.6403
-48.6404
-48.6405
-48.6407
-58.047
-58.047
-58.0471
-58.0471
-58.0473
-58.0474
-70.9016
-70.9017
-70.9017
-70.9016
-70.9015
-70.9013
-50.6812
-50.6815
-50.6818
-50.6817
-50.6817
-50.6818
-59.8397
-59.8399
-59.84
-59.84
-59.84
-59.8399
-71.3593
-71.3594
-71.3594
-71.3594
-71.3594
-71.3593
-51.5922
-51.5923
-51.5927
-51.5927
-51.5927
-51.5927
-61.005
-61.0051
-61.0052
-61.0051
-61.0049
-61.0047
-71.0205
-71.0205
-71.0205
-71.0206
-71.0206
-71.0207
-49.7518
-49.7512
-49.7519
-49.7521
-49.7532
-49.7524
-59.3509
-59.3508
-59.3508
-59.3507
-59.3509
-59.3503
-69.3248
-69.3249
-69.325
-69.325
-69.3253
-69.3251
-37.9454
-37.9446
-37.9452
-37.9459
-37.9473
-37.948
-52.5197
-52.5195
-52.5195
-52.5197
-52.5195
-52.5201
-71.5985
-71.5984
-71.5982
-71.5978
-71.5974
-71.5983
-47.4975
-47.4986
-47.4985
-47.4979
-47.4972
-47.4988
-40.9416
-40.9412
-40.9421
-40.9422
-40.9419
-40.9406
-63.4395
-63.4377
-63.4387
-63.437
-63.438
-63.4394
-69.824
-69.8163
-69.8204
-69.8321
-69.8265
-69.8377
-59.049
-59.0465
-59.0441
-59.0412
-59.0451
-59.0414
-80.6853
-80.6847
-80.6849
-80.685
-80.6879
-80.6832
-120.276
-120.182
-120.201
-120.375
-120.073
-120.602
-129.421
-129.472
-129.447
-129.342
-129.22
-129.617
-126.266
-126.261
-126.265
-126.279
-126.288
-126.273
-43.3604
-43.3615
-43.3597
-43.3552
-43.3538
-43.3121
-67.694
-67.7122
-67.6955
-67.7192
-67.6937
-67.4823
-65.1828
-65.1849
-65.1915
-65.1406
-65.0983
-65.413
-42.7096
-42.7096
-42.7088
-42.7047
-42.6895
-42.6749
-79.196
-79.1963
-79.2041
-79.2283
-79.255
-79.0651
-84.5774
-84.5268
-84.5827
-84.7306
-84.9448
-84.3487
-15.3241
-15.2953
-15.319
-15.3271
-15.3231
-15.3089
-120.738
-120.751
-120.77
-120.743
-120.669
-120.748
-205.791
-205.319
-205.425
-206.984
-210.26
-202.24
-15.65
-15.5647
-15.6034
-15.6735
-15.7282
-15.5075
-1207.23
-1206.54
-1206.82
-1208.61
-1212.23
-1203.76
-1204.12
-1205.25
-1204.78
-1204.19
-1204.61
-1204.46
-258.421
-258.525
-258.491
-258.1
-257.003
-259.494
-333.806
-332.605
-333.569
-332.587
-331.342
-337.095
-452.628
-452.665
-452.688
-452.456
-452.119
-453.322
-2533.71
-2533.63
-2533.73
-2533.48
-2533.17
-2535.33
-255.852
-255.728
-255.843
-256.228
-257.354
-254.876
-244.77
-244.762
-244.772
-244.72
-244.649
-244.963
-44.1568
-44.1568
-44.1568
-44.1568
-44.1568
-44.1568
-53.9623
-53.9623
-53.9623
-53.9623
-53.9623
-53.9623
-63.7671
-63.7671
-63.7671
-63.7671
-63.7671
-63.7671
-44.1579
-44.1579
-44.1579
-44.1579
-44.1579
-44.1579
-53.9632
-53.9632
-53.9632
-53.9632
-53.9632
-53.9632
-63.7669
-63.7669
-63.7669
-63.7669
-63.7669
-63.7669
-44.16
-44.16
-44.16
-44.16
-44.16
-44.16
-53.9654
-53.9654
-53.9654
-53.9654
-53.9654
-53.9654
-63.7663
-63.7663
-63.7663
-63.7663
-63.7663
-63.7663
-44.1631
-44.1631
-44.1631
-44.1631
-44.1631
-44.1631
-53.9708
-53.9708
-53.9708
-53.9708
-53.9708
-53.9708
-63.7642
-63.7642
-63.7642
-63.7642
-63.7642
-63.7642
-44.1641
-44.1641
-44.1641
-44.1641
-44.1641
-44.1641
-53.9837
-53.9837
-53.9837
-53.9837
-53.9837
-53.9837
-63.7592
-63.7592
-63.7592
-63.7592
-63.7592
-63.7592
-44.1584
-44.1584
-44.1584
-44.1585
-44.1585
-44.1585
-54.0103
-54.0103
-54.0103
-54.0103
-54.0103
-54.0103
-63.7506
-63.7506
-63.7506
-63.7506
-63.7506
-63.7506
-44.1436
-44.1436
-44.1436
-44.1437
-44.1437
-44.1437
-54.0549
-54.0549
-54.0549
-54.055
-54.055
-54.055
-63.7443
-63.7443
-63.7443
-63.7443
-63.7443
-63.7443
-44.1202
-44.1203
-44.1203
-44.1203
-44.1202
-44.1202
-54.1242
-54.1242
-54.1242
-54.1241
-54.1241
-54.1241
-63.7654
-63.7654
-63.7654
-63.7654
-63.7654
-63.7654
-44.1392
-44.1392
-44.1391
-44.1389
-44.1387
-44.1386
-54.2544
-54.2544
-54.2543
-54.2542
-54.2541
-54.254
-63.8175
-63.8175
-63.8174
-63.8174
-63.8173
-63.8174
-43.7473
-43.747
-43.7465
-43.7459
-43.7452
-43.7449
-54.5255
-54.5253
-54.5251
-54.5246
-54.5242
-54.5239
-64.1485
-64.1485
-64.1485
-64.1482
-64.1484
-64.1478
-44.2757
-44.2752
-44.2745
-44.2731
-44.2718
-44.2704
-55.44
-55.4399
-55.4391
-55.4382
-55.4358
-55.4338
-64.1968
-64.1969
-64.1965
-64.1963
-64.1942
-64.2005
-41.9461
-41.9449
-41.9422
-41.9399
-41.9315
-41.9312
-57.2487
-57.249
-57.2467
-57.2452
-57.2338
-57.213
-66.9828
-66.983
-66.9869
-66.9928
-67.0055
-66.9896
)
;

boundaryField
{
    seabed_topleft_surface
    {
        type            calculated;
        value           nonuniform List<scalar> 
72
(
13353.3
13353.3
13353.3
13353.2
13353.2
13353.2
12779.6
12779.6
12779.6
12779.6
12779.5
12779.6
12185.9
12185.9
12185.9
12185.9
12185.8
12185.9
12278.4
12278.4
12278.4
12278.4
12278.4
12278.4
12889
12889
12889
12889
12889
12889
13653.7
13653.7
13653.7
13653.7
13653.7
13653.7
14395.9
14395.8
14395.8
14395.8
14395.8
14395.8
15598.4
15598.3
15598.3
15598.3
15598.3
15598.3
17626.8
17626.7
17626.7
17626.7
17626.7
17626.8
20708.4
20708.4
20708.4
20708.4
20708.4
20708.4
25061.4
25061.4
25061.4
25061.4
25061.4
25061.4
27984.6
27984.6
27984.6
27984.6
27984.6
27984.5
)
;
    }
    seabed_topright_surface
    {
        type            calculated;
        value           nonuniform List<scalar> 
72
(
-0.02119
-0.021189
-0.0211891
-0.0211895
-0.02119
-0.0211903
-0.0223519
-0.0223536
-0.0223544
-0.0223545
-0.0223542
-0.0223537
-0.0246041
-0.0246081
-0.0246078
-0.0246051
-0.0246014
-0.0245976
-0.0276653
-0.0276683
-0.0276635
-0.0276544
-0.0276438
-0.0276336
-0.030945
-0.03094
-0.0309245
-0.0309028
-0.0308804
-0.0308605
-0.032964
-0.0329422
-0.0329079
-0.0328647
-0.0328228
-0.0327889
-0.0326417
-0.0325859
-0.0325183
-0.0324415
-0.0323712
-0.0323214
-0.0327236
-0.0326315
-0.032541
-0.0324434
-0.0323575
-0.0323044
-0.0337202
-0.0336382
-0.0335617
-0.0334622
-0.0333457
-0.033259
-0.0335906
-0.0335609
-0.0335288
-0.0334234
-0.0331203
-0.0324856
-0.0438008
-0.0438895
-0.0439773
-0.0440506
-0.0440775
-0.0440885
0.0139226
0.013832
0.0138087
0.0138189
0.0138364
0.0138163
)
;
    }
    breakwater_top_surface
    {
        type            calculated;
        value           nonuniform List<scalar> 
36
(
-38.4554
-38.4565
-38.4547
-38.4502
-38.4488
-38.4071
-37.8026
-37.8026
-37.8019
-37.7977
-37.7825
-37.768
-3.01603
-2.98587
-3.0159
-2.98346
-2.93035
-3.09271
112.332
112.337
112.314
112.607
112.826
112.306
1896.62
1896.05
1895.79
1898.45
1904.21
1890.84
23.8971
23.9176
23.8066
24.0018
24.2395
22.4151
)
;
    }
    breakwater_left_surface
    {
        type            calculated;
        value           nonuniform List<scalar> 
24
(
23237.6
23237.6
23237.6
23237.6
23237.6
23237.6
17141.1
17141.3
17141.3
17141.3
17141.3
17141.2
9880.86
9881.13
9881.02
9881.04
9881.1
9880.88
1633.23
1632.89
1632.85
1632.94
1632.8
1633.01
)
;
    }
    breakwater_right_surface
    {
        type            calculated;
        value           nonuniform List<scalar> 
24
(
-4.89108
-4.89117
-4.89119
-4.89118
-4.89116
-4.89118
-14.9064
-14.9062
-14.9059
-14.9055
-14.9051
-14.9047
-23.9932
-23.9933
-23.9932
-23.993
-23.9925
-23.9926
-35.1711
-35.1701
-35.1689
-35.1672
-35.1656
-35.1644
)
;
    }
    water_front_surface
    {
        type            calculated;
        value           nonuniform List<scalar> 
186
(
8902.43
8320.11
7682.33
7686.6
8212.51
8926.8
9648.25
10813.4
12837.1
15918.7
20271.8
23221.3
1865.15
1033.38
916.546
1095.2
1441.69
1825.64
2033.4
1999.16
2168.41
4398.05
11660
17125.1
-21.8973
-17.1324
-17.9466
-22.0451
-31.5322
-42.2558
-51.1426
23.7977
189.857
518.486
2394.69
9866.1
-27.7755
-25.2537
-25.6493
-26.8514
-31.0955
-39.3034
-50.3796
-55.9426
-39.6883
-15.4339
195.648
1619.14
-4.94305
-4.94421
-4.94646
-4.94952
-4.9528
-4.95482
-4.9545
-4.95458
-4.95558
-4.95545
-4.96566
-4.90793
-14.7517
-14.7529
-14.7553
-14.759
-14.7649
-14.7773
-14.8011
-14.8305
-14.8629
-14.8938
-14.9307
-14.9229
-24.5594
-24.5605
-24.5629
-24.5662
-24.5694
-24.5673
-24.5553
-24.541
-24.5245
-24.4424
-24.5977
-24.0094
-34.3662
-34.3674
-34.37
-34.3749
-34.3845
-34.4067
-34.4483
-34.5063
-34.5913
-34.6961
-34.8724
-35.187
-43.0571
-55.2409
-68.1218
-42.6381
-55.1718
-68.5874
-43.9784
-55.2174
-69.0118
-46.0043
-56.5104
-70.2386
-48.6402
-58.047
-70.9016
-50.6812
-59.8397
-71.3593
-51.5922
-61.005
-71.0205
-49.7518
-59.3509
-69.3248
-37.9454
-52.5197
-71.5985
-47.4975
-40.9416
-63.4395
-69.824
-59.049
-80.6853
-120.276
-129.421
-126.266
-43.3604
-67.694
-65.1828
-42.7096
-79.196
-84.5774
-15.3241
-120.738
-205.791
-15.65
-1207.23
-1204.12
-258.421
-333.806
-452.628
-2533.71
-255.852
-244.77
-44.1568
-53.9623
-63.7671
-44.1579
-53.9632
-63.7669
-44.16
-53.9654
-63.7663
-44.1631
-53.9708
-63.7642
-44.1641
-53.9837
-63.7592
-44.1584
-54.0103
-63.7506
-44.1436
-54.0549
-63.7443
-44.1202
-54.1242
-63.7654
-44.1392
-54.2544
-63.8175
-43.7473
-54.5255
-64.1485
-44.2757
-55.44
-64.1968
-41.9461
-57.2487
-66.9828
)
;
    }
    water_back_surface
    {
        type            calculated;
        value           nonuniform List<scalar> 
186
(
8902.4
8320.08
7682.31
7686.58
8212.49
8926.78
9648.23
10813.4
12837.1
15918.7
20271.8
23221.3
1865.13
1033.37
916.534
1095.18
1441.68
1825.64
2033.39
1999.15
2168.42
4398.09
11660
17125.2
-21.8972
-17.1324
-17.9462
-22.045
-31.5323
-42.2555
-51.1424
23.795
189.853
518.477
2394.66
9866.12
-27.7757
-25.2537
-25.6493
-26.8517
-31.0965
-39.3048
-50.3816
-55.9448
-39.6891
-15.4342
195.634
1618.92
-4.94305
-4.94421
-4.94645
-4.94949
-4.95272
-4.95464
-4.95418
-4.95416
-4.95511
-4.95434
-4.96594
-4.90804
-14.7517
-14.7529
-14.7552
-14.7589
-14.7648
-14.7771
-14.8008
-14.8306
-14.8639
-14.8962
-14.9311
-14.9212
-24.5594
-24.5605
-24.5629
-24.5662
-24.5694
-24.5673
-24.5556
-24.5416
-24.5253
-24.4438
-24.5955
-24.0088
-34.3663
-34.3674
-34.37
-34.3749
-34.3845
-34.4067
-34.4485
-34.5067
-34.5917
-34.6953
-34.8687
-35.1803
-43.0573
-55.241
-68.1217
-42.6383
-55.1719
-68.5873
-43.9786
-55.2175
-69.0117
-46.0045
-56.5106
-70.2385
-48.6407
-58.0474
-70.9013
-50.6818
-59.8399
-71.3593
-51.5927
-61.0047
-71.0207
-49.7524
-59.3503
-69.3251
-37.948
-52.5201
-71.5983
-47.4988
-40.9406
-63.4394
-69.8377
-59.0414
-80.6832
-120.602
-129.617
-126.273
-43.3121
-67.4823
-65.413
-42.6749
-79.0651
-84.3487
-15.3089
-120.748
-202.24
-15.5075
-1203.76
-1204.46
-259.494
-337.095
-453.322
-2535.33
-254.876
-244.963
-44.1568
-53.9623
-63.7671
-44.1579
-53.9632
-63.7669
-44.16
-53.9654
-63.7663
-44.1631
-53.9708
-63.7642
-44.1641
-53.9837
-63.7592
-44.1585
-54.0103
-63.7506
-44.1437
-54.055
-63.7443
-44.1202
-54.1241
-63.7654
-44.1386
-54.254
-63.8174
-43.7449
-54.5239
-64.1478
-44.2704
-55.4338
-64.2005
-41.9312
-57.213
-66.9896
)
;
    }
    water_left_surface
    {
        type            calculated;
        value           nonuniform List<scalar> 
42
(
8917.67
8917.69
8917.67
8917.66
8917.66
8917.64
1871.48
1871.49
1871.48
1871.47
1871.47
1871.47
-21.8811
-21.8808
-21.8808
-21.8807
-21.8806
-21.881
-27.7596
-27.7595
-27.7595
-27.7596
-27.7597
-27.7598
-43.0571
-43.0571
-43.0571
-43.0572
-43.0572
-43.0573
-55.2409
-55.241
-55.241
-55.241
-55.241
-55.241
-68.1218
-68.1219
-68.1218
-68.1218
-68.1218
-68.1217
)
;
    }
    water_right_surface
    {
        type            calculated;
        value           nonuniform List<scalar> 
42
(
-4.92619
-4.92619
-4.92619
-4.92619
-4.92619
-4.92619
-14.7352
-14.7352
-14.7352
-14.7352
-14.7352
-14.7352
-24.5432
-24.5432
-24.5432
-24.5432
-24.5432
-24.5432
-34.3504
-34.3504
-34.3504
-34.3504
-34.3504
-34.3504
-44.1568
-44.1568
-44.1568
-44.1568
-44.1568
-44.1568
-53.9623
-53.9623
-53.9623
-53.9623
-53.9623
-53.9623
-63.7671
-63.7671
-63.7671
-63.7671
-63.7671
-63.7671
)
;
    }
    water_top_surface
    {
        type            calculated;
        value           nonuniform List<scalar> 
180
(
-74.4086
-74.409
-74.4089
-74.4089
-74.4089
-74.4084
-74.8994
-74.8998
-74.8997
-74.8997
-74.8997
-74.8992
-74.5707
-74.5712
-74.5711
-74.571
-74.571
-74.5705
-75.7719
-75.7725
-75.7724
-75.7724
-75.7724
-75.7718
-75.6898
-75.6903
-75.6902
-75.6902
-75.6902
-75.6896
-76.4586
-76.4589
-76.4589
-76.4588
-76.4589
-76.4583
-76.5521
-76.5524
-76.5523
-76.5524
-76.5527
-76.5522
-75.7624
-75.7628
-75.7628
-75.7629
-75.7633
-75.7622
-77.082
-77.0822
-77.082
-77.0818
-77.0824
-77.0799
-68.6698
-68.6698
-68.6698
-68.6698
-68.6698
-68.6698
-68.6869
-68.6869
-68.6869
-68.6869
-68.6869
-68.6869
-69.4273
-69.4272
-69.4272
-69.4273
-69.4277
-69.4269
-68.7371
-68.7354
-68.738
-68.7321
-68.7195
-68.753
-79.9341
-79.6626
-79.7329
-80.2195
-81.1227
-78.905
-5299.11
-5301.17
-5297.96
-5307.52
-5330.99
-5273.6
-9907.4
-9924.86
-9914.76
-9911.51
-9917.69
-9904.68
-810.542
-807.634
-809.613
-807.845
-800.944
-819.673
-169.453
-169.422
-169.449
-169.496
-169.452
-169.502
-68.6703
-68.6703
-68.6703
-68.6703
-68.6703
-68.6703
-68.6703
-68.6703
-68.6703
-68.6703
-68.6703
-68.6703
-68.6704
-68.6704
-68.6704
-68.6704
-68.6704
-68.6704
-68.6706
-68.6706
-68.6706
-68.6706
-68.6706
-68.6706
-68.6709
-68.6709
-68.6709
-68.6709
-68.6709
-68.6709
-68.6714
-68.6714
-68.6714
-68.6714
-68.6714
-68.6714
-68.6725
-68.6725
-68.6725
-68.6725
-68.6725
-68.6725
-68.6751
-68.6751
-68.6751
-68.6751
-68.6751
-68.6751
-68.6815
-68.6815
-68.6815
-68.6815
-68.6815
-68.6815
-68.7066
-68.7066
-68.7066
-68.7065
-68.7066
-68.7065
-68.8352
-68.8353
-68.8352
-68.8353
-68.8361
-68.8344
-69.7239
-69.7244
-69.725
-69.7241
-69.7276
-69.7212
)
;
    }
}


// ************************************************************************* //
