/*--------------------------------*- C++ -*----------------------------------*\
| =========                 |                                                 |
| \\      /  F ield         | OpenFOAM: The Open Source CFD Toolbox           |
|  \\    /   O peration     | Version:  v1612+                                |
|   \\  /    A nd           | Web:      www.OpenFOAM.com                      |
|    \\/     M anipulation  |                                                 |
\*---------------------------------------------------------------------------*/
FoamFile
{
    version     2.0;
    format      ascii;
    class       volVectorField;
    location    "2.9";
    object      U;
}
// * * * * * * * * * * * * * * * * * * * * * * * * * * * * * * * * * * * * * //

dimensions      [0 1 -1 0 0 0 0];

internalField   nonuniform List<vector> 
1116
(
(0.431357 -1.206e-05 -0.439769)
(0.431349 3.65054e-06 -0.439789)
(0.431351 -3.58128e-06 -0.439776)
(0.43136 -2.35017e-07 -0.439775)
(0.431359 -1.03212e-05 -0.439791)
(0.431339 7.73244e-06 -0.439771)
(1.4353 -8.15849e-06 -0.335267)
(1.4353 4.74713e-06 -0.335296)
(1.4353 -7.03255e-06 -0.335281)
(1.43531 -3.54826e-06 -0.335282)
(1.43531 -5.94858e-06 -0.335302)
(1.43529 1.13116e-05 -0.335278)
(2.22771 -7.89226e-06 -0.125878)
(2.22772 2.01654e-06 -0.125909)
(2.22772 -4.11177e-06 -0.125896)
(2.22773 -3.53415e-06 -0.125896)
(2.22773 -2.30059e-06 -0.125912)
(2.22771 1.11304e-05 -0.125887)
(2.78593 -8.84933e-06 -0.0232811)
(2.78595 -7.75104e-07 -0.0233086)
(2.78595 -2.28441e-06 -0.0232976)
(2.78595 -3.59721e-06 -0.0232973)
(2.78596 -1.58905e-06 -0.0233094)
(2.78593 9.50103e-06 -0.0232856)
(3.20095 -9.78064e-06 -0.018018)
(3.20098 -3.19762e-06 -0.0180392)
(3.20098 -3.88241e-06 -0.0180306)
(3.20098 -4.67502e-06 -0.0180308)
(3.20098 -2.41652e-06 -0.0180402)
(3.20095 8.39923e-06 -0.0180185)
(3.54596 -1.04173e-05 -0.0318)
(3.546 -4.72733e-06 -0.031816)
(3.546 -6.59305e-06 -0.0318099)
(3.54599 -5.5168e-06 -0.0318108)
(3.54599 -2.96019e-06 -0.0318195)
(3.54596 8.60188e-06 -0.0317974)
(3.8474 -1.22671e-05 0.00988993)
(3.84744 -6.38348e-06 0.00988164)
(3.84744 -8.43886e-06 0.00988574)
(3.84743 -6.80597e-06 0.00988457)
(3.84743 -3.73011e-06 0.00987608)
(3.84739 9.11953e-06 0.00989723)
(4.09135 -1.19301e-05 0.152069)
(4.09137 -5.52915e-06 0.152058)
(4.09138 -7.94096e-06 0.152062)
(4.09137 -5.31773e-06 0.15206)
(4.09135 -5.27008e-06 0.152049)
(4.09132 6.68391e-06 0.152073)
(4.0945 -1.00589e-05 0.545252)
(4.09455 -3.40676e-06 0.545238)
(4.09455 -6.74585e-06 0.545243)
(4.09454 -4.86592e-06 0.545241)
(4.09455 -8.17126e-06 0.545229)
(4.09447 2.77146e-06 0.545253)
(3.35807 -1.08832e-05 1.09118)
(3.35816 1.04481e-07 1.09118)
(3.35815 -7.33468e-07 1.09118)
(3.35814 -2.83134e-06 1.09118)
(3.35816 -7.20333e-06 1.09117)
(3.35804 1.2221e-06 1.09118)
(1.54216 1.01143e-06 1.01155)
(1.54226 7.54514e-06 1.01159)
(1.54226 6.53635e-07 1.01157)
(1.54226 7.49143e-06 1.01157)
(1.54229 -5.36193e-06 1.01157)
(1.54214 -4.24866e-06 1.01154)
(-0.207066 -2.43002e-05 -0.128877)
(-0.206983 -3.01581e-05 -0.128888)
(-0.206983 -1.25687e-05 -0.128883)
(-0.206983 -1.49842e-05 -0.128889)
(-0.206927 1.43588e-05 -0.128891)
(-0.207074 2.9923e-05 -0.128898)
(0.199184 2.27753e-05 -1.59263)
(0.199156 -1.07208e-05 -1.59265)
(0.199187 2.80137e-06 -1.59263)
(0.199166 -2.24583e-05 -1.59265)
(0.199142 3.5032e-05 -1.59267)
(0.199235 -2.65354e-06 -1.59263)
(1.74635 5.43548e-05 -1.7707)
(1.74636 -1.79249e-05 -1.77072)
(1.74636 5.13336e-06 -1.77071)
(1.74635 -1.83859e-05 -1.77073)
(1.74635 3.2505e-05 -1.77075)
(1.74638 -4.42432e-05 -1.77071)
(2.77078 5.68232e-05 -1.32588)
(2.77083 -1.08302e-05 -1.32592)
(2.7708 6.09201e-06 -1.3259)
(2.7708 -3.45516e-06 -1.32591)
(2.77084 1.50897e-05 -1.32593)
(2.77078 -5.70837e-05 -1.32589)
(3.45732 5.11178e-05 -1.0172)
(3.45741 -2.26335e-06 -1.01724)
(3.45735 5.64514e-06 -1.01723)
(3.45736 7.41397e-06 -1.01723)
(3.45742 7.3575e-06 -1.01725)
(3.45731 -5.18567e-05 -1.01721)
(4.0469 4.29914e-05 -0.855778)
(4.04703 1.14655e-06 -0.855823)
(4.04696 6.20861e-06 -0.855806)
(4.04696 1.62955e-05 -0.855806)
(4.04704 1.01736e-05 -0.855825)
(4.0469 -4.02276e-05 -0.855787)
(4.66323 3.28051e-05 -0.739347)
(4.66339 4.30243e-07 -0.739394)
(4.66331 1.00824e-05 -0.739378)
(4.66331 2.19547e-05 -0.739379)
(4.66339 1.96252e-05 -0.739399)
(4.66325 -2.44629e-05 -0.739357)
(5.19122 3.01716e-05 -0.59467)
(5.19141 7.37939e-06 -0.594714)
(5.19132 1.83592e-05 -0.594699)
(5.19133 2.66816e-05 -0.594702)
(5.19141 2.59365e-05 -0.594722)
(5.19128 -1.34148e-05 -0.594679)
(5.647 3.14833e-05 -0.380712)
(5.64728 1.79399e-05 -0.380761)
(5.64718 3.04973e-05 -0.380747)
(5.64719 3.26249e-05 -0.380751)
(5.64727 2.94876e-05 -0.380772)
(5.64713 -7.91783e-06 -0.380731)
(5.93701 3.18636e-05 0.201784)
(5.93732 2.40385e-05 0.201708)
(5.93722 3.1186e-05 0.20173)
(5.93723 2.84668e-05 0.201724)
(5.93729 2.02397e-05 0.201694)
(5.93717 -9.63462e-06 0.201742)
(5.4551 2.34448e-05 1.35396)
(5.45541 2.40857e-05 1.35386)
(5.45532 2.21776e-05 1.35389)
(5.45533 1.36692e-05 1.35388)
(5.45538 -1.40534e-06 1.35386)
(5.45525 -1.7628e-05 1.3539)
(3.77032 3.71701e-05 2.26282)
(3.77072 3.16811e-05 2.26286)
(3.77062 3.39946e-06 2.26284)
(3.77061 1.64591e-05 2.26284)
(3.77069 -1.51382e-05 2.26284)
(3.77044 -3.08019e-05 2.26282)
(1.04345 -6.2704e-05 1.32024)
(1.04381 -6.29064e-05 1.32028)
(1.04373 2.11625e-06 1.32027)
(1.04372 -1.26366e-05 1.32027)
(1.04381 4.13379e-05 1.3203)
(1.04352 5.46486e-05 1.32022)
(0.58673 6.01407e-05 -2.78607)
(0.586737 -0.00017445 -2.78604)
(0.586774 6.62332e-05 -2.78608)
(0.586674 -7.05048e-05 -2.78615)
(0.586624 0.000234976 -2.78611)
(0.586888 -2.16284e-05 -2.78605)
(2.86783 2.39825e-05 -2.76998)
(2.86776 -0.000184708 -2.76991)
(2.86776 5.25626e-05 -2.76996)
(2.86768 -5.92494e-05 -2.77003)
(2.86766 0.000165577 -2.76997)
(2.86792 -3.88726e-05 -2.76988)
(5.00833 -9.43951e-07 -2.1771)
(5.00816 -0.000141258 -2.17702)
(5.00813 5.68994e-05 -2.17708)
(5.00807 -2.88216e-05 -2.1771)
(5.00807 0.000143115 -2.17702)
(5.00832 -5.26191e-06 -2.17706)
(7.81422 -2.20846e-05 -1.72124)
(7.81403 -0.00011479 -1.72115)
(7.81402 7.16827e-05 -1.72123)
(7.81399 -6.0906e-06 -1.72122)
(7.81398 0.000169135 -1.72112)
(7.81422 4.62393e-05 -1.72123)
(11.0713 -4.32502e-05 -1.74872)
(11.0711 -0.000108689 -1.74865)
(11.0711 8.38625e-05 -1.74875)
(11.0711 1.17149e-05 -1.74872)
(11.0711 0.000200482 -1.74859)
(11.0714 8.67887e-05 -1.74873)
(15.0431 -5.31441e-05 -1.76245)
(15.0428 -0.000104791 -1.76245)
(15.0429 8.39908e-05 -1.76254)
(15.0429 1.17495e-05 -1.7625)
(15.0429 0.000199713 -1.76238)
(15.0433 9.43621e-05 -1.76243)
(17.705 -7.0142e-06 -1.4215)
(17.7047 -5.76551e-05 -1.42151)
(17.7048 8.367e-05 -1.42158)
(17.7048 1.21856e-05 -1.42155)
(17.7047 0.000150704 -1.42145)
(17.7053 5.26914e-05 -1.42146)
(23.1253 0.000101716 -0.0147694)
(23.1252 3.08847e-05 -0.0147646)
(23.1252 8.36345e-05 -0.0147931)
(23.1253 -3.09622e-05 -0.0147565)
(23.1252 3.1356e-05 -0.014682)
(23.1255 -5.88796e-05 -0.0147261)
(14.0522 0.000125514 1.99854)
(14.0526 0.000106206 1.99849)
(14.0525 9.71432e-05 1.9985)
(14.0524 1.9123e-05 1.99853)
(14.0524 -6.38793e-06 1.99857)
(14.0525 -7.21557e-05 1.99858)
(7.79847 9.51081e-05 3.22819)
(7.79918 6.71051e-05 3.22814)
(7.799 1.46399e-05 3.22816)
(7.79893 -1.69427e-05 3.22818)
(7.79902 -8.68053e-06 3.22816)
(7.79883 -3.71023e-05 3.22822)
(4.13852 0.000118242 4.30946)
(4.13906 0.000104181 4.30968)
(4.13888 1.52163e-05 4.30959)
(4.13888 4.45172e-05 4.30961)
(4.13899 -4.93909e-05 4.30968)
(4.13867 -0.000101741 4.30955)
(0.938562 -7.26775e-05 3.12845)
(0.938987 -5.43191e-05 3.12863)
(0.93886 1.95789e-05 3.12857)
(0.938847 -2.44522e-05 3.12858)
(0.938898 7.15329e-05 3.12858)
(0.938679 8.5436e-05 3.12855)
(-0.233101 -6.40386e-05 -3.68526)
(-0.233097 -5.97477e-05 -3.68554)
(-0.233087 1.39054e-05 -3.68559)
(-0.233111 5.75139e-06 -3.68559)
(-0.233117 4.77462e-05 -3.68555)
(-0.233079 5.84246e-05 -3.68528)
(-0.752614 -6.88986e-05 -4.09178)
(-0.752778 -1.16603e-05 -4.09209)
(-0.752812 -1.04985e-05 -4.09205)
(-0.752809 3.78675e-05 -4.09202)
(-0.752769 -6.53391e-06 -4.09205)
(-0.752656 5.01489e-05 -4.09169)
(-2.0518 -2.39582e-05 -4.10325)
(-2.05192 4.80749e-05 -4.10361)
(-2.05195 2.19525e-05 -4.10359)
(-2.05195 3.50012e-05 -4.10359)
(-2.0519 -1.67698e-06 -4.10363)
(-2.05186 5.02454e-05 -4.10323)
(-2.38097 -3.51676e-05 -5.09241)
(-2.38088 1.54158e-05 -5.0929)
(-2.38085 1.08173e-05 -5.09288)
(-2.38083 8.21714e-07 -5.09288)
(-2.38078 2.28149e-05 -5.09296)
(-2.38087 7.25471e-05 -5.09238)
(-3.11002 -8.39079e-05 -5.77337)
(-3.10998 -6.43827e-05 -5.77392)
(-3.10991 -5.48362e-05 -5.77389)
(-3.10991 -6.77446e-05 -5.77388)
(-3.1099 1.03539e-05 -5.77396)
(-3.10987 9.30441e-05 -5.77331)
(-3.449 -0.000116423 -6.33864)
(-3.4491 -9.71733e-05 -6.33919)
(-3.449 -5.6958e-05 -6.33919)
(-3.44901 -7.7535e-05 -6.33918)
(-3.44908 -2.26695e-05 -6.33924)
(-3.44885 4.57226e-05 -6.33859)
(-3.31047 -0.000123365 -5.04836)
(-3.31081 -9.19881e-05 -5.04868)
(-3.31062 6.31018e-06 -5.04876)
(-3.31056 8.20913e-06 -5.04878)
(-3.31062 3.08932e-05 -5.04878)
(-3.31036 3.62802e-05 -5.04837)
(0.728982 -6.20547e-06 1.35943)
(0.728288 1.88564e-05 1.35938)
(0.728679 7.91994e-06 1.35944)
(0.729163 4.37717e-05 1.35961)
(0.729315 -4.56163e-05 1.35968)
(0.729494 -0.000148884 1.35973)
(10.0236 6.81292e-05 10.7757)
(10.0236 -4.3349e-05 10.776)
(10.0237 -9.33299e-05 10.776)
(10.0237 6.93604e-07 10.776)
(10.0241 -0.000225553 10.7762)
(10.0234 -0.000385289 10.7759)
(9.34657 8.80833e-05 13.9296)
(9.34663 0.000109182 13.9303)
(9.34659 0.000113038 13.9302)
(9.34662 6.41613e-05 13.9301)
(9.34702 -2.1968e-05 13.9301)
(9.34633 -0.000153246 13.9301)
(4.35224 0.000106518 7.29936)
(4.35333 9.99768e-05 7.30067)
(4.35312 3.81561e-05 7.30035)
(4.35291 4.90031e-05 7.30021)
(4.35362 -1.33913e-05 7.30067)
(4.35216 -7.69532e-05 7.29963)
(1.23923 -2.09606e-05 3.68604)
(1.23947 -4.19591e-06 3.68618)
(1.23944 2.03527e-05 3.68618)
(1.2394 0.000116427 3.68612)
(1.23935 -7.03063e-05 3.68608)
(1.23936 -0.000190233 3.68622)
(-0.0023534 -1.05248e-06 -0.00237865)
(-0.00235315 -2.31181e-06 -0.00237867)
(-0.00235264 -2.57462e-06 -0.00237867)
(-0.00235205 -2.63377e-06 -0.00237867)
(-0.00235139 -2.17921e-06 -0.00237867)
(-0.00235053 -8.61499e-07 -0.00237853)
(-0.00711793 -7.54766e-07 -0.00242767)
(-0.00711651 -2.52218e-06 -0.00242599)
(-0.00711449 -3.8664e-06 -0.00242557)
(-0.00711226 -4.42939e-06 -0.0024256)
(-0.00710984 -3.95906e-06 -0.00242592)
(-0.00710669 -1.71584e-06 -0.00242642)
(-0.0120331 -6.94752e-07 -0.00250488)
(-0.0120281 -3.88837e-06 -0.00249904)
(-0.0120227 -7.55574e-06 -0.00249749)
(-0.0120171 -9.16297e-06 -0.00249751)
(-0.0120113 -8.60651e-06 -0.00249845)
(-0.0120039 -3.89661e-06 -0.00250016)
(-0.0171871 -2.2344e-06 -0.00262649)
(-0.0171734 -9.39009e-06 -0.00261566)
(-0.0171609 -1.66593e-05 -0.00261322)
(-0.0171491 -1.95489e-05 -0.00261395)
(-0.0171371 -1.83358e-05 -0.00261683)
(-0.017122 -8.38714e-06 -0.00262187)
(-0.0226839 -7.96851e-06 -0.00276858)
(-0.0226527 -2.36823e-05 -0.00275715)
(-0.0226283 -3.47817e-05 -0.00275661)
(-0.0226074 -3.79657e-05 -0.0027604)
(-0.0225873 -3.41969e-05 -0.00276757)
(-0.0225608 -1.54053e-05 -0.00277866)
(-0.02853 -2.20771e-05 -0.00276083)
(-0.0284709 -5.14701e-05 -0.00276523)
(-0.0284324 -6.11045e-05 -0.00277541)
(-0.0284039 -6.03601e-05 -0.00278811)
(-0.0283776 -5.02491e-05 -0.00280384)
(-0.0283394 -2.17197e-05 -0.00282405)
(-0.0347451 -4.11707e-05 -0.00168591)
(-0.0346509 -8.18431e-05 -0.00173934)
(-0.0346047 -7.79672e-05 -0.00177494)
(-0.0345797 -6.61392e-05 -0.00180389)
(-0.0345601 -4.72083e-05 -0.00182985)
(-0.0345209 -1.84942e-05 -0.00185563)
(-0.041217 -5.15157e-05 0.00191504)
(-0.0410941 -8.11693e-05 0.00178753)
(-0.0410612 -4.43453e-05 0.00172589)
(-0.0410653 -1.35754e-05 0.00168994)
(-0.0410797 1.17941e-05 0.0016707)
(-0.0410719 1.05332e-05 0.00166482)
(-0.0481527 -2.91274e-05 0.00854399)
(-0.0480298 -2.68241e-06 0.00837181)
(-0.0480361 8.23879e-05 0.00831583)
(-0.0480998 0.00013107 0.00831186)
(-0.0481859 0.000150366 0.00834287)
(-0.0482665 7.51615e-05 0.00840618)
(-0.0516056 2.97827e-05 0.0183461)
(-0.0515442 0.000138865 0.018229)
(-0.0515968 0.000261697 0.0182276)
(-0.0517061 0.00032172 0.0182733)
(-0.051849 0.000329981 0.0183555)
(-0.0520199 0.000160797 0.0184754)
(-0.0482286 0.000106668 0.025002)
(-0.0482437 0.000253716 0.0250586)
(-0.048298 0.000314962 0.025122)
(-0.0483827 0.000330818 0.025198)
(-0.0485183 0.000300633 0.0253062)
(-0.0487488 0.000137877 0.0254701)
(-0.0281691 5.5118e-05 0.0349589)
(-0.0281863 8.38165e-05 0.0350285)
(-0.0281966 4.33843e-05 0.0350353)
(-0.0282106 1.50539e-05 0.0350284)
(-0.0282585 -7.7416e-06 0.0350412)
(-0.0283804 -8.59686e-06 0.0350953)
(-0.00242005 -1.18566e-06 -0.00707697)
(-0.00241911 -2.49666e-06 -0.00707697)
(-0.00241826 -2.64626e-06 -0.00707674)
(-0.0024175 -2.48352e-06 -0.00707652)
(-0.00241683 -1.81875e-06 -0.00707635)
(-0.00241607 -5.89678e-07 -0.00707583)
(-0.00736609 -1.87953e-06 -0.00728288)
(-0.00736241 -4.17717e-06 -0.00727957)
(-0.00735928 -4.64643e-06 -0.00727839)
(-0.00735649 -4.45556e-06 -0.00727808)
(-0.00735404 -3.3569e-06 -0.00727847)
(-0.00735119 -1.25251e-06 -0.00727927)
(-0.0126026 -3.87641e-06 -0.00763257)
(-0.0125933 -8.58518e-06 -0.00762138)
(-0.0125859 -9.69376e-06 -0.00761785)
(-0.0125796 -9.35974e-06 -0.00761727)
(-0.012574 -7.3572e-06 -0.00761885)
(-0.0125674 -2.98496e-06 -0.00762228)
(-0.0183288 -7.9506e-06 -0.00818101)
(-0.0183075 -1.7285e-05 -0.00816104)
(-0.0182922 -1.90507e-05 -0.00815582)
(-0.0182798 -1.81151e-05 -0.00815645)
(-0.0182686 -1.43215e-05 -0.00816192)
(-0.0182552 -5.9233e-06 -0.00817254)
(-0.0248619 -1.56566e-05 -0.00899155)
(-0.0248162 -3.23062e-05 -0.00897316)
(-0.0247869 -3.30227e-05 -0.00897232)
(-0.0247652 -2.98643e-05 -0.00897908)
(-0.024746 -2.27421e-05 -0.00899334)
(-0.0247222 -9.24631e-06 -0.0090169)
(-0.0329638 -2.71996e-05 -0.0103342)
(-0.0328709 -5.19685e-05 -0.0103523)
(-0.0328209 -4.63822e-05 -0.0103725)
(-0.0327894 -3.7459e-05 -0.0103956)
(-0.0327646 -2.54447e-05 -0.0104252)
(-0.0327321 -9.59284e-06 -0.0104654)
(-0.0433549 -4.01789e-05 -0.0128189)
(-0.0431887 -6.47357e-05 -0.012932)
(-0.043122 -3.78724e-05 -0.0129959)
(-0.0430957 -1.53913e-05 -0.0130439)
(-0.0430858 2.30234e-06 -0.0130867)
(-0.0430682 4.37432e-06 -0.0131299)
(-0.0547579 -3.45192e-05 -0.0162053)
(-0.0545184 -2.28475e-05 -0.0164458)
(-0.0544593 4.82988e-05 -0.0165489)
(-0.0544768 9.0134e-05 -0.0165995)
(-0.0545291 0.000106594 -0.0166182)
(-0.0545848 5.30534e-05 -0.0166065)
(-0.065157 1.8699e-05 -0.0196794)
(-0.0649058 0.000107735 -0.0199703)
(-0.0648927 0.000219518 -0.0200407)
(-0.0649839 0.000275663 -0.0200196)
(-0.0651311 0.000272566 -0.0199325)
(-0.0653104 0.000127385 -0.019771)
(-0.0638354 0.000103654 -0.0193233)
(-0.0636689 0.000245225 -0.0194779)
(-0.0637496 0.000296881 -0.0194016)
(-0.0639452 0.000295391 -0.0192268)
(-0.0642265 0.000233031 -0.0189684)
(-0.064593 9.27303e-05 -0.0186124)
(-0.0578896 9.62981e-05 0.00109607)
(-0.0579507 0.000172294 0.00133892)
(-0.0581443 0.000127737 0.00153372)
(-0.0584113 7.54848e-05 0.00172913)
(-0.0587703 1.33804e-05 0.00197368)
(-0.0592423 -1.05345e-05 0.00231817)
(-0.02806 -4.80073e-05 0.00297874)
(-0.0281735 -0.000172358 0.00323472)
(-0.0282955 -0.00029384 0.00333406)
(-0.0284306 -0.000347153 0.00339388)
(-0.0286086 -0.000341979 0.00346789)
(-0.0288451 -0.000165727 0.00363238)
(-0.00238017 -7.6963e-07 -0.011737)
(-0.00237955 -1.67109e-06 -0.0117372)
(-0.00237903 -1.75872e-06 -0.0117367)
(-0.00237861 -1.51005e-06 -0.0117363)
(-0.00237836 -9.50194e-07 -0.011736)
(-0.00237814 -2.217e-07 -0.0117351)
(-0.00729298 -1.48736e-06 -0.0121968)
(-0.00729062 -3.0972e-06 -0.0121941)
(-0.00728878 -3.0749e-06 -0.0121927)
(-0.00728735 -2.58161e-06 -0.0121921)
(-0.0072865 -1.53535e-06 -0.0121923)
(-0.00728577 -4.21307e-07 -0.0121927)
(-0.012634 -3.27217e-06 -0.0130135)
(-0.0126282 -6.4347e-06 -0.0130041)
(-0.0126242 -5.9981e-06 -0.0130006)
(-0.0126214 -4.82389e-06 -0.0129997)
(-0.0126198 -2.81985e-06 -0.0130011)
(-0.0126186 -8.3304e-07 -0.0130045)
(-0.0186186 -6.33871e-06 -0.0142086)
(-0.018605 -1.17783e-05 -0.0141933)
(-0.0185975 -9.93539e-06 -0.0141888)
(-0.018593 -7.30784e-06 -0.0141894)
(-0.0185909 -3.68853e-06 -0.0141952)
(-0.0185899 -8.74862e-07 -0.0142066)
(-0.0252049 -1.0475e-05 -0.0155985)
(-0.0251749 -1.73704e-05 -0.0155913)
(-0.0251627 -1.1279e-05 -0.0155938)
(-0.0251577 -5.72176e-06 -0.015602)
(-0.0251577 -5.92723e-08 -0.0156179)
(-0.0251598 1.28525e-06 -0.0156435)
(-0.0316436 -1.15511e-05 -0.0165302)
(-0.0315823 -1.22174e-05 -0.0165731)
(-0.0315654 4.23688e-06 -0.0166025)
(-0.031566 1.4351e-05 -0.0166302)
(-0.0315769 2.0161e-05 -0.0166625)
(-0.0315928 1.07288e-05 -0.0167033)
(-0.0373565 4.16516e-06 -0.0154714)
(-0.037245 3.05789e-05 -0.015625)
(-0.0372285 6.34121e-05 -0.0157027)
(-0.0372504 7.76823e-05 -0.0157544)
(-0.0372943 7.53301e-05 -0.0157934)
(-0.0373537 3.47082e-05 -0.015821)
(-0.0421226 4.89266e-05 -0.00893993)
(-0.0419688 0.000131468 -0.00921134)
(-0.041975 0.000179345 -0.00931381)
(-0.0420501 0.00018958 -0.00934797)
(-0.0421691 0.000162642 -0.00933132)
(-0.04233 6.99512e-05 -0.00925576)
(-0.0485311 0.000115898 0.00803342)
(-0.0484114 0.000256035 0.00778365)
(-0.0485031 0.000282982 0.0077627)
(-0.0486976 0.000262034 0.0078414)
(-0.0489672 0.000192871 0.00801108)
(-0.0493122 7.38822e-05 0.00828807)
(-0.0677689 0.000133492 0.0413737)
(-0.0678367 0.000278018 0.0413895)
(-0.0680482 0.000281116 0.0415566)
(-0.0683403 0.000239569 0.0417921)
(-0.0687045 0.000152331 0.0421129)
(-0.0691365 4.9552e-05 0.0425227)
(-0.0535808 3.38686e-05 0.090473)
(-0.0539914 3.46475e-07 0.0909062)
(-0.0543433 -0.000110632 0.091164)
(-0.0546731 -0.000178798 0.0913514)
(-0.0549782 -0.000214005 0.0915524)
(-0.0552569 -0.000111756 0.091742)
(-0.0430066 -0.000100079 0.177166)
(-0.0433324 -0.000274964 0.17755)
(-0.0435764 -0.00038446 0.177764)
(-0.0437666 -0.000423838 0.177847)
(-0.0439366 -0.000300915 0.178033)
(-0.0440059 -8.766e-05 0.177976)
(-0.0022021 -4.67333e-07 -0.0161436)
(-0.00220147 -9.65314e-07 -0.0161443)
(-0.00220117 -8.8222e-07 -0.0161438)
(-0.00220104 -5.916e-07 -0.0161435)
(-0.0022011 -2.06113e-07 -0.0161433)
(-0.00220115 6.57648e-08 -0.0161422)
(-0.00681276 -1.13995e-06 -0.0169744)
(-0.00681047 -1.97146e-06 -0.0169731)
(-0.00680948 -1.32634e-06 -0.016972)
(-0.00680921 -6.38501e-07 -0.0169716)
(-0.00680956 1.42065e-07 -0.0169718)
(-0.0068099 2.79453e-07 -0.0169717)
(-0.0120812 -2.42595e-06 -0.0185468)
(-0.0120761 -3.6491e-06 -0.0185413)
(-0.0120745 -1.6223e-06 -0.018539)
(-0.0120746 4.83951e-09 -0.0185387)
(-0.012076 1.43673e-06 -0.0185402)
(-0.0120774 1.02274e-06 -0.0185425)
(-0.0186217 -3.37543e-06 -0.0209849)
(-0.0186118 -3.71502e-06 -0.020977)
(-0.0186101 9.29932e-07 -0.0209752)
(-0.018612 3.9212e-06 -0.020977)
(-0.018616 5.92195e-06 -0.0209827)
(-0.01862 3.25363e-06 -0.0209915)
(-0.0275185 -1.42392e-06 -0.0244691)
(-0.0275004 2.98391e-06 -0.024472)
(-0.0274995 1.19456e-05 -0.0244786)
(-0.027506 1.66625e-05 -0.0244892)
(-0.0275163 1.77486e-05 -0.024505)
(-0.0275266 8.59643e-06 -0.0245256)
(-0.0406656 8.18225e-06 -0.029394)
(-0.0406328 2.59136e-05 -0.0294442)
(-0.0406343 4.08087e-05 -0.0294785)
(-0.0406507 4.66886e-05 -0.0295103)
(-0.0406751 4.30568e-05 -0.0295434)
(-0.0407027 1.93899e-05 -0.0295758)
(-0.0603885 2.84542e-05 -0.0360039)
(-0.0603405 7.08799e-05 -0.0361497)
(-0.0603528 9.20406e-05 -0.0362287)
(-0.0603924 9.65279e-05 -0.0362857)
(-0.0604511 8.24526e-05 -0.0363252)
(-0.0605258 3.54278e-05 -0.0363396)
(-0.087129 5.91156e-05 -0.0423223)
(-0.0871033 0.000130997 -0.0425512)
(-0.0871539 0.000147868 -0.0426431)
(-0.0872425 0.000142606 -0.0426797)
(-0.0873688 0.000112213 -0.0426621)
(-0.0875355 4.53476e-05 -0.0425735)
(-0.121562 7.70124e-05 -0.0447063)
(-0.121669 0.000143885 -0.0448692)
(-0.121809 0.000118684 -0.0448671)
(-0.121968 8.53414e-05 -0.0447882)
(-0.122172 3.5994e-05 -0.0446285)
(-0.12242 2.2612e-06 -0.0443719)
(-0.142403 3.67572e-05 -0.0565993)
(-0.142723 1.35952e-05 -0.0565009)
(-0.142936 -9.50486e-05 -0.0563568)
(-0.143095 -0.000155521 -0.0561848)
(-0.143271 -0.000196462 -0.0559878)
(-0.143403 -0.000113374 -0.0557217)
(-0.188502 -0.00015019 0.0413641)
(-0.188957 -0.000360606 0.0417816)
(-0.18913 -0.000469428 0.0420074)
(-0.189108 -0.000459439 0.0421253)
(-0.189174 -0.000401296 0.0422471)
(-0.188887 -0.000201276 0.0422328)
(-0.054312 -0.000195444 -0.0958261)
(-0.0545623 -0.000324729 -0.0955531)
(-0.0546075 -0.000377694 -0.0955045)
(-0.0545477 -0.000202356 -0.0954593)
(-0.0544094 -0.000227497 -0.0959075)
(-0.0543371 -0.00027814 -0.0954025)
(0.197864 1.02929e-06 -3.06836)
(0.19786 2.88892e-05 -3.06871)
(0.197855 2.15214e-06 -3.06867)
(0.19786 1.70922e-07 -3.06864)
(0.197865 -2.79505e-05 -3.06867)
(0.197824 2.30696e-06 -3.06837)
(0.107956 2.47115e-05 -3.31552)
(0.10795 2.14068e-05 -3.31576)
(0.107946 -4.4306e-06 -3.31572)
(0.107951 -5.42566e-06 -3.31572)
(0.107953 -2.7268e-05 -3.31576)
(0.107938 -2.67196e-05 -3.31551)
(0.0387098 1.7828e-05 -3.38764)
(0.0387086 1.6192e-05 -3.38778)
(0.0387091 -2.98111e-06 -3.38777)
(0.0387088 -2.65859e-06 -3.38776)
(0.0387076 -1.894e-05 -3.38778)
(0.038708 -1.83783e-05 -3.38764)
(0.202186 1.86705e-05 -2.98315)
(0.202187 1.00084e-05 -2.98343)
(0.202191 -1.47094e-05 -2.98337)
(0.20218 -1.33918e-05 -2.98336)
(0.202181 -1.97763e-05 -2.98341)
(0.20218 -2.28227e-05 -2.98307)
(0.0524649 2.03475e-05 -3.56093)
(0.0524802 1.36026e-05 -3.56116)
(0.0524788 -9.22949e-06 -3.56112)
(0.0524797 -8.164e-06 -3.56112)
(0.0524813 -2.81719e-05 -3.56115)
(0.0524503 -3.07632e-05 -3.56087)
(0.0533505 1.63225e-05 -3.52934)
(0.0533454 1.60059e-05 -3.52948)
(0.0533462 -3.29366e-06 -3.52946)
(0.053347 -3.88435e-06 -3.52945)
(0.0533474 -2.40268e-05 -3.52947)
(0.0533502 -2.12522e-05 -3.52931)
(0.522154 3.72215e-05 -2.3491)
(0.522223 2.33411e-05 -2.34942)
(0.522215 -9.46769e-06 -2.34936)
(0.522201 -6.53224e-06 -2.34937)
(0.522205 -3.56504e-05 -2.34945)
(0.522132 -4.63619e-05 -2.34903)
(0.301693 2.06114e-05 -3.60774)
(0.301718 2.32659e-05 -3.60797)
(0.301715 1.35974e-06 -3.60794)
(0.301719 6.89773e-06 -3.60793)
(0.301729 -2.57659e-05 -3.60797)
(0.301696 -3.38914e-05 -3.6077)
(0.113411 1.53534e-05 -3.43458)
(0.113409 1.47493e-05 -3.43471)
(0.113412 -1.74463e-06 -3.4347)
(0.113414 -3.32057e-06 -3.43469)
(0.113416 -1.99922e-05 -3.43471)
(0.113419 -1.89869e-05 -3.43457)
(0.949268 3.94747e-05 -3.15275)
(0.949373 2.48863e-05 -3.15317)
(0.949346 -1.93406e-05 -3.15312)
(0.949332 -1.10426e-05 -3.15315)
(0.949338 -5.81134e-05 -3.15328)
(0.949202 -7.23274e-05 -3.15276)
(0.341968 3.419e-05 -4.1685)
(0.341967 4.5142e-05 -4.16878)
(0.341976 1.37016e-05 -4.16874)
(0.341985 2.21609e-05 -4.16874)
(0.341993 -2.83706e-05 -4.1688)
(0.342 -4.44403e-05 -4.16853)
(0.114814 1.94786e-05 -3.76761)
(0.114812 1.93894e-05 -3.76776)
(0.114814 1.11921e-06 -3.76774)
(0.114814 2.6128e-06 -3.76774)
(0.114815 -1.65345e-05 -3.76776)
(0.114818 -1.99606e-05 -3.76763)
(0.898575 3.45719e-05 -3.29275)
(0.898665 2.55777e-05 -3.29319)
(0.898617 -1.46383e-05 -3.29316)
(0.898587 -5.98658e-06 -3.29319)
(0.898583 -5.4441e-05 -3.29333)
(0.898438 -6.99662e-05 -3.29282)
(0.137128 3.77186e-05 -4.22318)
(0.137118 5.06692e-05 -4.22347)
(0.13713 1.60744e-05 -4.22344)
(0.137141 2.05016e-05 -4.22345)
(0.137137 -2.97936e-05 -4.22351)
(0.137167 -4.31014e-05 -4.22324)
(0.0432732 1.90533e-05 -3.74537)
(0.0432702 1.84119e-05 -3.74552)
(0.0432657 1.24847e-06 -3.74552)
(0.0432632 4.20324e-06 -3.74552)
(0.0432615 -1.67739e-05 -3.74555)
(0.0432624 -2.25437e-05 -3.74541)
(0.781497 3.2522e-05 -3.97831)
(0.781586 3.46299e-05 -3.97869)
(0.781534 1.0603e-05 -3.97869)
(0.78153 1.5361e-05 -3.97872)
(0.781555 -3.126e-05 -3.97883)
(0.78143 -6.01632e-05 -3.97846)
(-0.103871 2.94607e-05 -4.34823)
(-0.103912 3.3998e-05 -4.34849)
(-0.103892 5.35507e-06 -4.34846)
(-0.103878 9.25728e-06 -4.34845)
(-0.103894 -1.97263e-05 -4.34848)
(-0.103814 -2.18159e-05 -4.34824)
(-0.0376682 1.64554e-05 -3.94499)
(-0.0376689 1.01416e-05 -3.94514)
(-0.037675 -7.1201e-06 -3.94514)
(-0.0376808 -2.66238e-06 -3.94515)
(-0.0376823 -1.76299e-05 -3.94517)
(-0.0376933 -1.94121e-05 -3.94501)
(-0.304817 -3.14621e-05 -4.88419)
(-0.304767 -3.48314e-05 -4.88453)
(-0.304851 1.10432e-05 -4.88462)
(-0.304927 -2.24325e-05 -4.88472)
(-0.304866 6.20826e-05 -4.88483)
(-0.305057 9.24383e-05 -4.88441)
(-0.426066 7.747e-06 -3.82951)
(-0.426077 5.07004e-06 -3.82965)
(-0.42607 5.35328e-06 -3.82964)
(-0.426058 2.31774e-06 -3.82963)
(-0.426077 1.6814e-05 -3.82965)
(-0.426048 2.42876e-05 -3.82945)
(-0.156228 1.15122e-05 -3.9682)
(-0.156226 7.87198e-06 -3.96835)
(-0.15623 -1.12793e-05 -3.96834)
(-0.156239 -9.92537e-06 -3.96833)
(-0.156237 -3.09614e-05 -3.96834)
(-0.156259 -2.9841e-05 -3.96816)
(-1.68398 -4.65933e-05 -6.3322)
(-1.68428 -6.24249e-06 -6.33252)
(-1.68437 2.40044e-05 -6.33251)
(-1.68455 2.24351e-05 -6.33243)
(-1.68477 -0.00010593 -6.3326)
(-1.68405 -0.000123768 -6.33198)
(-0.617857 1.46662e-05 -3.27165)
(-0.617981 -3.21373e-05 -3.27193)
(-0.61808 -4.42496e-05 -3.27193)
(-0.618196 -5.76072e-05 -3.27195)
(-0.618393 -3.94711e-05 -3.27212)
(-0.617953 1.79104e-05 -3.27153)
(0.163524 1.45839e-05 -3.76327)
(0.163561 7.87681e-06 -3.76335)
(0.163556 -3.40696e-05 -3.76333)
(0.163529 -1.72047e-05 -3.76335)
(0.163556 -5.85407e-05 -3.76345)
(0.163476 -6.6067e-05 -3.76318)
(2.32167 -6.834e-06 1.97805)
(2.32115 0.000128823 1.97731)
(2.32164 0.000104399 1.97785)
(2.32194 0.000202562 1.97857)
(2.32297 -0.000180823 1.97977)
(2.32041 -0.000457656 1.97685)
(-2.06505 9.92594e-05 -3.03838)
(-2.06529 -9.0739e-06 -3.03892)
(-2.0653 -0.000108232 -3.03852)
(-2.0655 -0.000102674 -3.03822)
(-2.06541 8.98201e-05 -3.03805)
(-2.06569 0.000193971 -3.03862)
(-0.0282983 -3.88289e-06 -4.09827)
(-0.0283507 -2.72163e-05 -4.09833)
(-0.0283723 -0.000102232 -4.09832)
(-0.0284609 -9.5085e-05 -4.09829)
(-0.0283151 2.15663e-05 -4.09851)
(-0.0284143 3.80262e-05 -4.09805)
(9.07151 2.15599e-05 13.3785)
(9.0715 0.000110003 13.3782)
(9.07148 0.00018786 13.3783)
(9.07167 0.000328545 13.3785)
(9.07229 0.00016762 13.3784)
(9.07146 -0.000203046 13.3787)
(6.46895 0.000202636 8.0153)
(6.46883 0.000274674 8.01512)
(6.46889 -4.91567e-05 8.01542)
(6.4689 0.000348129 8.01576)
(6.46939 -0.000262637 8.01617)
(6.46865 -0.000814343 8.01504)
(2.3125 0.000203349 0.520672)
(2.31208 0.000177629 0.520593)
(2.31256 -0.000421788 0.521006)
(2.31224 0.000314277 0.521402)
(2.31258 -0.000854558 0.522036)
(2.31213 -0.00159115 0.519935)
(6.27442 0.000186376 11.4245)
(6.27528 0.000192041 11.426)
(6.27514 0.000142124 11.4256)
(6.27547 0.000271483 11.4256)
(6.27568 0.000122992 11.4262)
(6.2752 -0.00013647 11.425)
(9.05159 0.000216171 13.1185)
(9.05326 0.000432941 13.1199)
(9.05227 0.000371648 13.1194)
(9.05144 0.000921978 13.1199)
(9.05331 -0.000652747 13.1236)
(9.05098 -0.00156678 13.1156)
(8.99861 8.80049e-05 7.95829)
(8.99946 0.000301966 7.95899)
(8.99878 -3.09421e-05 7.9588)
(8.99913 0.000830126 7.96035)
(9.0038 -0.000920464 7.96468)
(8.99401 -0.00211065 7.95364)
(4.19307 5.34505e-05 5.95784)
(4.19361 6.91799e-05 5.95863)
(4.19358 2.08303e-05 5.95835)
(4.19363 -0.00032287 5.9585)
(4.1939 0.000544573 5.95956)
(4.19358 0.000829367 5.95717)
(6.55003 0.000222995 7.21361)
(6.55047 0.000245089 7.21482)
(6.55038 -0.000190839 7.21505)
(6.55187 -0.000817931 7.21359)
(6.55434 0.00109391 7.20917)
(6.54856 0.0016217 7.22018)
(10.325 -1.19692e-05 6.26001)
(10.3269 0.00022065 6.26195)
(10.3257 0.000308791 6.26238)
(10.3255 0.000249019 6.25942)
(10.3292 0.000192223 6.2551)
(10.3222 -7.61453e-05 6.2676)
(0.394488 1.061e-05 2.10368)
(0.395063 0.000400738 2.10497)
(0.395098 -0.000434836 2.10527)
(0.395133 0.00136763 2.10507)
(0.399526 -0.0021561 2.11166)
(0.390657 -0.00431941 2.09703)
(-2.43712 0.00123702 0.286745)
(-2.43815 0.00164796 0.287801)
(-2.43876 0.000103757 0.286902)
(-2.43781 0.00609145 0.287997)
(-2.44281 -0.0092178 0.293412)
(-2.43233 -0.0155684 0.28256)
(-1.73243 -0.000298058 -0.367305)
(-1.73385 0.000200768 -0.362678)
(-1.73352 -0.00112184 -0.369744)
(-1.73865 -0.00242749 -0.353228)
(-1.7563 0.00468014 -0.315351)
(-1.71369 0.00585073 -0.408208)
(1.98276 -0.000594998 2.74892)
(1.984 -0.000453267 2.74932)
(1.98454 -0.000380472 2.74971)
(1.98383 -0.00357942 2.74729)
(1.98376 0.00326776 2.74978)
(1.98192 0.00637952 2.7486)
(-5.21222 0.00141414 -0.271011)
(-5.21854 0.00210795 -0.275677)
(-5.21445 0.000352111 -0.270449)
(-5.21866 0.00449622 -0.276989)
(-5.22925 -0.0071324 -0.294765)
(-5.20182 -0.0118019 -0.253433)
(-0.872491 0.00105506 9.15795)
(-0.874303 0.00191567 9.16279)
(-0.878293 0.00365499 9.15526)
(-0.859058 0.0103203 9.18319)
(-0.808349 -0.0117439 9.2632)
(-0.923409 -0.0193396 9.07668)
(1.18504 -0.000967345 -3.98554)
(1.18364 -0.000428657 -3.99003)
(1.18423 -0.000267791 -3.98697)
(1.18554 -0.00116113 -3.99389)
(1.18892 0.00252404 -4.00413)
(1.1823 0.00292857 -3.97093)
(1.94478 0.000316604 -0.639461)
(1.94207 0.000372172 -0.644651)
(1.94213 -4.85402e-05 -0.642694)
(1.94896 0.00041822 -0.640828)
(1.96243 -0.00067725 -0.634518)
(1.93011 -0.00115093 -0.645749)
(6.77525 0.00157239 11.5543)
(6.77966 0.00113852 11.5641)
(6.77704 0.000264008 11.5591)
(6.78059 0.00397152 11.559)
(6.7983 -0.00451881 11.5667)
(6.76028 -0.00781338 11.5485)
(-0.391372 1.12373e-05 -2.94344)
(-0.390885 0.000177459 -2.94458)
(-0.39123 0.000189855 -2.94428)
(-0.391133 0.000253541 -2.94324)
(-0.392899 0.000123947 -2.94386)
(-0.390295 -6.22166e-05 -2.94409)
(5.30875 0.000414609 2.54782)
(5.30926 0.000449302 2.54805)
(5.30885 0.000201896 2.54788)
(5.31026 0.00185527 2.5487)
(5.31692 -0.00176614 2.55408)
(5.30262 -0.00345163 2.5434)
(9.12121 0.00119733 7.20384)
(9.12501 0.000867149 7.21117)
(9.12327 -0.000579344 7.20755)
(9.12405 0.00161086 7.20523)
(9.13416 -0.00139875 7.20586)
(9.11268 -0.00330389 7.20484)
(0.787513 9.18427e-05 1.15271)
(0.78658 0.000274236 1.15202)
(0.786587 -3.40826e-05 1.15228)
(0.788741 0.000455288 1.15329)
(0.79392 3.36546e-05 1.15661)
(0.782074 -0.000613743 1.14963)
(5.99624 0.000114017 4.0343)
(5.99753 0.000280271 4.03626)
(5.99714 0.000152541 4.03558)
(5.99721 0.00125967 4.03508)
(6.00165 -0.000656433 4.03717)
(5.99288 -0.00196168 4.03395)
(10.0168 -0.000160422 2.62931)