/*--------------------------------*- C++ -*----------------------------------*\
| =========                 |                                                 |
| \\      /  F ield         | OpenFOAM: The Open Source CFD Toolbox           |
|  \\    /   O peration     | Version:  v1612+                                |
|   \\  /    A nd           | Web:      www.OpenFOAM.com                      |
|    \\/     M anipulation  |                                                 |
\*---------------------------------------------------------------------------*/
FoamFile
{
    version     2.0;
    format      ascii;
    class       volScalarField;
    location    "4.7";
    object      p;
}
// * * * * * * * * * * * * * * * * * * * * * * * * * * * * * * * * * * * * * //

dimensions      [1 -1 -2 0 0 0 0];

internalField   nonuniform List<scalar> 
320
(
14724.8
14724.8
14724.8
14724.8
4.96266
4.9629
4.9629
4.96405
4.96225
4.96163
4.96168
4.96305
4.96315
4.9634
4.96198
4.96049
4914.86
4914.88
4914.89
4914.84
4914.85
4914.85
4914.85
4914.84
4914.86
4914.86
4914.83
4914.85
14724.8
14724.8
14724.8
14724.8
14724.8
14724.8
14724.8
14724.8
14724.8
14724.8
14724.8
14724.8
24534.8
24534.8
24534.8
24534.8
24534.8
24534.8
24534.8
24534.8
24534.8
24534.8
24534.8
24534.8
24534.8
24534.8
24534.8
24534.8
4.96058
4.96134
4.96219
4.96164
4.96176
4.96298
4.96304
4.96275
4.96299
4.96157
4.9619
4.96109
4.96164
4.96118
4.96116
4.96261
4.96297
4.96055
4.96001
4.96069
4914.87
4914.88
4914.88
4914.86
4914.84
4914.84
4914.86
4914.85
4914.87
4914.87
4914.85
4914.83
4914.83
4914.82
4914.84
4914.83
4914.83
4914.87
4914.87
4914.85
14724.8
14724.8
14724.8
14724.8
14724.8
14724.8
14724.8
14724.8
14724.8
14724.8
14724.8
14724.8
14724.8
14724.8
14724.8
14724.8
14724.8
14724.8
14724.8
14724.8
24534.8
24534.8
24534.8
24534.8
24534.8
24534.8
24534.8
24534.8
24534.8
24534.8
24534.8
24534.8
24534.8
24534.8
24534.8
24534.8
24534.8
24534.8
24534.8
24534.8
34344.8
34344.8
34344.8
34344.8
34344.8
34344.8
34344.8
34344.8
34344.8
34344.8
34344.8
34344.8
34344.8
34344.8
34344.8
34344.8
34344.8
34344.8
34344.8
34344.8
34344.8
34344.8
34344.8
34344.8
34344.8
34344.8
34344.8
34344.8
34344.8
34344.8
34344.8
34344.8
34344.8
34344.8
34344.8
34344.8
4.96083
4.95997
4.9609
4.96139
4.96137
4.96127
4.96171
4.96364
4.9637
4.96392
4.96337
4.96298
4.96296
4.96084
4.96272
4.96322
4.96222
4.96254
4.95989
4.96038
4.95953
4.96198
4.96242
4.96172
4.96061
4.96007
4.96079
4.96268
4914.85
4914.9
4914.89
4914.83
4914.81
4914.82
4914.88
4914.87
4914.84
4914.91
4914.9
4914.83
4914.86
4914.88
4914.88
4914.88
4914.84
4914.81
4914.8
4914.84
4914.83
4914.83
4914.84
4914.86
4914.83
4914.89
4914.86
4914.8
14724.8
14724.8
14724.8
14724.8
14724.8
14724.8
14724.8
14724.8
14724.8
14724.8
14724.8
14724.8
14724.8
14724.8
14724.8
14724.8
14724.8
14724.8
14724.8
14724.8
14724.8
14724.8
14724.8
14724.8
14724.8
14724.8
14724.8
14724.8
24534.8
24534.8
24534.8
24534.8
24534.8
24534.8
24534.8
24534.8
24534.8
24534.8
24534.8
24534.8
24534.8
24534.8
24534.8
24534.8
24534.8
24534.8
24534.8
24534.8
24534.8
24534.8
24534.8
24534.8
24534.8
24534.8
24534.8
24534.8
34344.8
34344.8
34344.8
34344.8
34344.8
34344.8
34344.8
34344.8
34344.8
34344.8
34344.8
34344.8
34344.8
34344.8
34344.8
34344.8
34344.8
34344.8
34344.8
34344.8
34344.8
34344.8
34344.8
34344.8
34344.8
34344.8
34344.8
34344.8
4.96171
4.96292
4.9644
4.96226
4914.85
4914.83
4914.84
4914.82
)
;

boundaryField
{
    top_fluid_surface
    {
        type            calculated;
        value           nonuniform List<scalar> 
64
(
-2.42426e-09
-4.77968e-09
-7.18046e-09
0
-4.08058e-10
-2.63569e-09
0
0
-3.06311e-09
-8.67052e-10
0
-2.67191e-09
-2.75895e-09
-1.13746e-08
-1.98594e-09
-4.94317e-10
0
0
0
0
-5.11739e-09
-1.72364e-09
0
0
-1.98271e-10
0
0
0
0
-3.72335e-10
-7.34892e-09
0
-1.47667e-10
-3.7099e-09
-2.52247e-08
0
0
0
-4.42169e-08
-2.7004e-09
0
-9.25473e-08
-5.40018e-08
-1.05895e-10
-2.29164e-09
-4.72218e-10
-3.11074e-09
-1.92803e-09
-6.57028e-10
0
0
0
-4.01858e-09
0
0
-5.39105e-09
0
-8.49099e-09
-3.89381e-09
0
-1.47255e-08
0
0
0
)
;
    }
    bottom_fluid_surface
    {
        type            calculated;
        value           nonuniform List<scalar> 
64
(
39249.8
39249.8
39249.8
39249.8
39249.8
39249.8
39249.8
39249.8
39249.8
39249.8
39249.8
39249.8
39249.8
39249.8
39249.8
39249.8
39249.8
39249.8
39249.8
39249.8
39249.8
39249.8
39249.8
39249.8
39249.8
39249.8
39249.8
39249.8
39249.8
39249.8
39249.8
39249.8
39249.8
39249.8
39249.8
39249.8
39249.8
39249.8
39249.8
39249.8
39249.8
39249.8
39249.8
39249.8
39249.8
39249.8
39249.8
39249.8
39249.8
39249.8
39249.8
39249.8
39249.8
39249.8
39249.8
39249.8
39249.8
39249.8
39249.8
39249.8
39249.8
39249.8
39249.8
39249.8
)
;
    }
    lateral_surface_1
    {
        type            calculated;
        value           nonuniform List<scalar> 
40
(
4.96083
4.95997
4.9609
4.96139
4.96137
4.96127
4.96171
4.96268
4914.85
4914.9
4914.89
4914.83
4914.81
4914.82
4914.88
4914.8
14724.8
14724.8
14724.8
14724.8
14724.8
14724.8
14724.8
14724.8
24534.8
24534.8
24534.8
24534.8
24534.8
24534.8
24534.8
24534.8
34344.8
34344.8
34344.8
34344.8
34344.8
34344.8
34344.8
34344.8
)
;
    }
    lateral_surface_2
    {
        type            calculated;
        value           nonuniform List<scalar> 
40
(
4.96084
4.96272
4.96322
4.96222
4.96254
4.95989
4.96038
4.95953
4914.88
4914.88
4914.88
4914.84
4914.81
4914.8
4914.84
4914.83
14724.8
14724.8
14724.8
14724.8
14724.8
14724.8
14724.8
14724.8
24534.8
24534.8
24534.8
24534.8
24534.8
24534.8
24534.8
24534.8
34344.8
34344.8
34344.8
34344.8
34344.8
34344.8
34344.8
34344.8
)
;
    }
    lateral_surface_3
    {
        type            calculated;
        value           nonuniform List<scalar> 
40
(
4.96171
4.96364
4.9637
4.96392
4.96337
4.96298
4.96296
4.96084
4914.88
4914.87
4914.84
4914.91
4914.9
4914.83
4914.86
4914.88
14724.8
14724.8
14724.8
14724.8
14724.8
14724.8
14724.8
14724.8
24534.8
24534.8
24534.8
24534.8
24534.8
24534.8
24534.8
24534.8
34344.8
34344.8
34344.8
34344.8
34344.8
34344.8
34344.8
34344.8
)
;
    }
    lateral_surface_4
    {
        type            calculated;
        value           nonuniform List<scalar> 
40
(
4.95953
4.96198
4.96242
4.96172
4.96061
4.96007
4.96079
4.96268
4914.83
4914.83
4914.84
4914.86
4914.83
4914.89
4914.86
4914.8
14724.8
14724.8
14724.8
14724.8
14724.8
14724.8
14724.8
14724.8
24534.8
24534.8
24534.8
24534.8
24534.8
24534.8
24534.8
24534.8
34344.8
34344.8
34344.8
34344.8
34344.8
34344.8
34344.8
34344.8
)
;
    }
}


// ************************************************************************* //
