/*--------------------------------*- C++ -*----------------------------------*\
| =========                 |                                                 |
| \\      /  F ield         | OpenFOAM: The Open Source CFD Toolbox           |
|  \\    /   O peration     | Version:  v1612+                                |
|   \\  /    A nd           | Web:      www.OpenFOAM.com                      |
|    \\/     M anipulation  |                                                 |
\*---------------------------------------------------------------------------*/
FoamFile
{
    version     2.0;
    format      ascii;
    class       volScalarField;
    location    "0.35";
    object      alpha.water;
}
// * * * * * * * * * * * * * * * * * * * * * * * * * * * * * * * * * * * * * //

dimensions      [0 0 0 0 0 0 0];

internalField   nonuniform List<scalar> 
320
(
1
1
1
1
1.21509e-06
1.22765e-06
7.095e-07
3.41337e-07
3.39884e-07
6.69811e-07
2.54976e-07
6.00738e-07
6.24838e-07
5.53645e-07
2.44785e-07
6.36294e-07
0.999997
0.999997
1
1
0.999998
1
1
0.999998
1
1
0.999998
1
1
1
1
1
1
1
1
1
1
1
1
1
1
1
1
1
1
1
1
1
1
1
1
1
1
1
1
1
4.7277e-07
3.12927e-07
3.71361e-07
3.42461e-07
5.04373e-07
5.00769e-07
2.44606e-07
5.95216e-07
6.33356e-07
1.26714e-06
7.77037e-07
7.2527e-07
7.80025e-07
6.01503e-07
4.55535e-07
2.77703e-07
2.60837e-07
4.15268e-07
6.82233e-07
4.6559e-07
1
1
1
1
1
1
1
1
1
0.999998
1
1
0.999999
0.999999
1
1
1
1
1
1
1
1
1
1
1
1
1
1
1
1
1
1
1
1
1
1
1
1
1
1
1
1
1
1
1
1
1
1
1
1
1
1
1
1
1
1
1
1
1
1
1
1
1
1
1
1
1
1
1
1
1
1
1
1
1
1
1
1
1
1
1
1
1
1
1
1
1
1
1
1
1
1
1
1
1
1
4.53165e-07
3.33343e-07
3.09317e-07
3.41813e-07
2.68342e-07
6.46543e-07
3.19457e-07
1.05155e-06
2.67517e-07
2.44905e-07
4.5895e-07
1.42317e-06
4.35442e-07
4.02026e-07
5.04694e-07
9.92088e-07
3.28927e-07
7.1339e-07
7.4169e-07
3.25825e-07
3.68902e-07
7.66595e-07
2.05338e-07
1.78985e-07
4.94787e-07
1.82037e-06
1.18206e-06
7.11659e-07
1
1
1
1
1
0.999998
1
0.999999
1
1
1
0.999998
1
1
1
0.999999
1
0.999999
0.999999
1
1
0.999999
1
1
1
0.999998
0.999999
0.999998
1
1
1
1
1
1
1
1
1
1
1
1
1
1
1
1
1
1
1
1
1
1
1
1
1
1
1
1
1
1
1
1
1
1
1
1
1
1
1
1
1
1
1
1
1
1
1
1
1
1
1
1
1
1
1
1
1
1
1
1
1
1
1
1
1
1
1
1
1
1
1
1
1
1
1
1
1
1
1
1
1
1
1
1
4.56252e-07
4.09823e-07
8.67258e-07
4.22782e-07
1
1
0.999998
0.999999
)
;

boundaryField
{
    top_fluid_surface
    {
        type            inletOutlet;
        inletValue      uniform 0;
        value           nonuniform List<scalar> 
64
(
0
1.22765e-06
7.095e-07
3.41337e-07
0
6.69811e-07
2.54976e-07
0
0
5.53645e-07
0
6.36294e-07
4.7277e-07
3.12927e-07
3.71361e-07
3.42461e-07
5.04373e-07
5.00769e-07
2.44606e-07
5.95216e-07
6.33356e-07
0
7.77037e-07
7.2527e-07
0
0
4.55535e-07
2.77703e-07
2.60837e-07
4.15268e-07
6.82233e-07
4.6559e-07
4.53165e-07
3.33343e-07
3.09317e-07
3.41813e-07
2.68342e-07
0
0
0
2.67517e-07
2.44905e-07
4.5895e-07
0
4.35442e-07
4.02026e-07
5.04694e-07
0
3.28927e-07
0
0
3.25825e-07
3.68902e-07
0
2.05338e-07
1.78985e-07
4.94787e-07
0
0
0
4.56252e-07
4.09823e-07
0
0
)
;
    }
    bottom_fluid_surface
    {
        type            zeroGradient;
    }
    lateral_surface_1
    {
        type            zeroGradient;
    }
    lateral_surface_2
    {
        type            zeroGradient;
    }
    lateral_surface_3
    {
        type            zeroGradient;
    }
    lateral_surface_4
    {
        type            zeroGradient;
    }
}


// ************************************************************************* //
