/*--------------------------------*- C++ -*----------------------------------*\
| =========                 |                                                 |
| \\      /  F ield         | OpenFOAM: The Open Source CFD Toolbox           |
|  \\    /   O peration     | Version:  v1612+                                |
|   \\  /    A nd           | Web:      www.OpenFOAM.com                      |
|    \\/     M anipulation  |                                                 |
\*---------------------------------------------------------------------------*/
FoamFile
{
    version     2.0;
    format      ascii;
    class       surfaceScalarField;
    location    "0.35";
    object      alphaPhi;
}
// * * * * * * * * * * * * * * * * * * * * * * * * * * * * * * * * * * * * * //

dimensions      [0 3 -1 0 0 0 0];

internalField   nonuniform List<scalar> 
816
(
3.6488e-07
-6.29987e-07
2.27153e-07
-1.78278e-07
-2.35849e-07
5.60077e-07
-2.8515e-07
1.68685e-07
2.69893e-07
-2.69079e-07
6.45465e-07
-1.39002e-07
-2.24209e-07
9.03374e-07
1.07824e-06
-2.08218e-06
4.33761e-07
2.87907e-07
1.00435e-06
-2.10274e-06
7.45011e-11
-1.65401e-12
6.23296e-06
8.89924e-11
-1.09736e-11
1.04994e-11
-9.57933e-05
2.73235e-11
-1.6362e-11
-6.90503e-12
-3.53746e-06
2.00324e-11
2.66024e-12
-1.2e-11
-4.60678e-06
4.60751e-12
-5.38766e-12
-3.62571e-11
3.50877e-06
2.94557e-12
-7.78256e-12
1.40889e-11
-2.91615e-06
-2.40795e-11
-2.58333e-11
-1.10894e-11
-1.38987e-06
-2.6347e-11
4.79132e-12
1.49158e-11
2.82092e-06
-2.10804e-11
1.35189e-11
1.06235e-11
5.02129e-12
-1.71603e-11
3.95356e-11
3.62025e-12
-1.82635e-06
2.11068e-11
-5.4012e-11
-7.52956e-12
3.30218e-06
-1.79707e-12
-2.66564e-12
-1.64637e-06
2.49315e-11
-3.33506e-11
1.75985e-07
3.58701e-06
2.04418e-06
3.29939e-06
-2.20167e-07
4.21118e-06
2.1951e-06
3.08308e-06
-1.3758e-07
-1.94775e-06
-7.73125e-07
3.62535e-07
1.60694e-06
-2.85404e-06
-8.70373e-07
-9.28296e-08
-4.50134e-07
3.20931e-06
2.39117e-06
4.96435e-06
-1.50712e-06
-2.21753e-06
-1.21231e-06
-7.98076e-07
1.09274e-06
-2.50627e-06
-3.1877e-07
1.53582e-06
-2.44939e-06
2.65694e-06
2.11579e-06
4.9743e-07
1.10342e-06
-3.12404e-07
-3.20648e-07
-2.62514e-06
2.68193e-06
-2.83912e-06
-9.99572e-07
1.67429e-06
-4.77113e-06
2.21607e-06
2.43228e-06
3.38852e-06
2.24097e-06
-1.95018e-07
3.47351e-06
2.08262e-06
4.19804e-08
5.33043e-07
1.05902e-06
8.26793e-07
6.73379e-07
1.09945e-06
7.45104e-07
-3.22427e-07
-3.74611e-07
3.25028e-07
3.41649e-07
-5.53258e-07
-4.71281e-07
5.83368e-08
2.76269e-07
1.21258e-06
8.28518e-07
-4.17025e-07
-5.47726e-07
-1.55008e-08
3.55398e-08
-4.73584e-07
-8.0172e-08
1.66466e-07
4.5444e-07
1.05783e-06
-3.64871e-08
9.62097e-08
-2.98207e-07
-4.36883e-07
6.97868e-07
-1.81956e-07
-3.79835e-07
5.70346e-07
3.68779e-07
1.25997e-06
6.45256e-07
-2.60946e-07
7.16066e-07
4.2447e-07
2.35358e-07
-3.92156e-07
1.81612e-07
-8.16577e-08
-1.534e-08
-2.46865e-07
1.28507e-07
1.86805e-07
-7.62166e-08
-9.66793e-08
-1.42595e-07
5.55911e-07
3.66515e-07
2.39908e-07
1.47704e-07
3.00866e-07
3.5548e-10
4.45892e-07
5.6223e-07
3.04665e-07
4.62645e-07
5.3207e-07
3.15317e-07
-2.45661e-07
2.3695e-07
1.85655e-07
-6.87109e-08
-4.09183e-07
6.86731e-08
-1.74847e-07
1.89737e-07
5.56297e-07
3.18955e-07
-2.76619e-07
3.66418e-08
2.67551e-08
-1.48635e-07
-2.8566e-07
7.56638e-08
-8.54092e-09
3.6992e-07
-3.9424e-08
2.96975e-07
1.56775e-08
-3.22488e-07
3.79992e-07
-4.01373e-08
-7.89838e-08
3.4891e-07
-4.62714e-08
4.10712e-07
4.45452e-07
3.34245e-07
3.83255e-07
2.20645e-07
-3.9853e-08
1.87082e-11
-1.65034e-11
-7.25312e-06
1.72658e-11
2.57276e-12
-2.88385e-06
9.00542e-12
-7.9605e-12
-2.80477e-06
5.23516e-12
-1.98353e-11
-6.2739e-06
1.08502e-11
6.7915e-12
-7.54601e-06
-9.83318e-12
-5.39316e-11
7.38534e-12
-8.60573e-06
3.74921e-12
-3.3551e-11
-2.48007e-06
-4.403e-12
-4.47217e-11
-2.41969e-06
9.43242e-12
-6.12462e-11
-2.2331e-06
-8.83198e-11
2.20259e-12
3.38649e-06
5.72932e-11
3.35745e-11
1.32776e-11
-3.53633e-06
-2.91842e-11
-3.81844e-12
-1.46182e-06
9.17947e-12
3.42354e-11
1.85417e-06
-1.01231e-11
1.51387e-11
3.09104e-06
-2.02791e-11
1.45715e-11
3.30088e-14
-1.43597e-13
-1.89218e-12
1.30973e-12
5.27222e-13
3.29313e-12
-5.20308e-12
-1.63784e-06
2.22808e-12
-3.25673e-11
-4.09262e-06
-7.1931e-12
1.36821e-11
-8.72588e-06
-1.70476e-10
-6.53506e-06
1.02093e-11
-8.35169e-11
-3.17628e-08
-5.75892e-07
-1.09306e-06
2.93817e-07
2.50961e-08
-1.01097e-06
1.71557e-06
-1.19239e-07
-1.05155e-06
1.69757e-06
-1.09333e-06
-1.03172e-06
-6.96637e-08
1.11502e-06
-8.06108e-07
-3.42176e-06
-2.92354e-06
1.97791e-07
-8.94499e-07
-5.9391e-07
7.4289e-08
-8.70362e-07
-7.23324e-07
-1.28409e-06
-1.1204e-06
1.87067e-06
-2.91133e-06
-1.09161e-06
-4.03078e-06
2.79943e-06
1.46037e-06
1.66043e-06
1.42667e-06
-2.16502e-07
-1.25313e-06
-3.3339e-06
-4.22521e-06
-1.29922e-06
-4.86483e-07
1.4664e-07
1.61182e-06
4.41863e-07
2.78557e-06
1.39778e-06
-8.78025e-07
1.96387e-07
-1.02307e-06
-1.31072e-07
-1.59909e-06
1.33043e-07
-1.05905e-06
1.61333e-08
2.11926e-07
-9.53275e-07
-2.29155e-07
2.07587e-07
-1.08404e-06
1.74574e-06
7.2932e-08
-1.26063e-06
-2.90277e-06
-1.15305e-06
-1.2892e-07
-2.42441e-06
5.54119e-08
-1.05968e-07
-4.66491e-07
2.11976e-07
3.50266e-08
-5.11532e-07
3.875e-07
-4.09772e-08
-5.44844e-07
3.43693e-07
-2.9328e-07
-5.43165e-07
9.97676e-08
1.41839e-07
-3.44346e-07
-4.34679e-07
-4.30161e-07
1.93811e-08
-3.91887e-07
2.67389e-08
-1.57193e-07
-4.47252e-07
-1.55776e-07
-2.43582e-07
-5.24246e-07
3.22192e-07
-4.05339e-07
-5.13841e-07
-4.17988e-07
1.02777e-07
6.14937e-07
3.09099e-07
9.46782e-08
-1.723e-07
-5.14197e-07
-4.13475e-07
-6.74227e-07
-5.50688e-07
-9.40611e-08
1.52766e-07
8.13558e-07
-5.48709e-08
6.22084e-07
6.7826e-07
-1.66426e-07
1.99858e-07
-4.38827e-07
-4.91775e-08
-1.1653e-07
1.45893e-07
-4.94112e-07
1.64948e-07
1.20986e-07
-4.53414e-07
7.17108e-08
4.35834e-08
-5.59434e-07
2.17328e-07
1.59872e-07
-5.27061e-07
-3.8446e-07
-5.52758e-07
-7.58612e-09
-5.16436e-07
1.79175e-08
-6.10268e-08
-1.28832e-07
1.17657e-07
1.60093e-08
-1.86951e-07
2.49941e-07
-1.471e-08
-1.84504e-07
2.28671e-07
-1.69712e-07
-2.04159e-07
7.62046e-08
4.36865e-08
-8.35419e-08
-2.03461e-07
-1.97648e-07
-2.04121e-08
-9.54957e-08
2.69655e-08
-1.31476e-07
-1.63639e-07
-5.87683e-08
-1.58509e-07
-1.30516e-07
2.06835e-07
-2.66131e-07
-1.19023e-07
-2.15742e-07
3.97756e-08
1.36448e-07
1.72325e-07
1.36469e-08
-1.22573e-07
-7.82008e-08
-2.1723e-07
-3.96643e-07
-9.82717e-08
-7.51606e-08
1.2014e-07
2.88792e-07
-2.94418e-08
3.9482e-07
2.04559e-07
-1.01377e-07
1.51312e-07
-1.14117e-07
-5.00253e-08
-2.06241e-08
1.1312e-07
-1.63938e-07
1.03047e-07
1.10102e-07
-1.48036e-07
5.0022e-08
5.45073e-08
-1.63482e-07
1.38868e-07
1.20425e-07
-1.07167e-07
-2.15509e-07
-1.70765e-07
4.71183e-09
-2.77117e-07
7.53724e-08
-2.60379e-07
1.45335e-07
1.37581e-08
-1.96849e-07
1.15785e-07
1.10324e-07
-2.78041e-08
-1.08071e-07
2.50939e-07
1.27272e-07
-1.84836e-08
-1.11753e-09
1.64472e-07
3.01163e-07
1.8011e-07
2.85429e-07
-1.48702e-07
1.82087e-07
8.87441e-08
-2.37717e-07
5.84908e-08
-1.12621e-08
2.37006e-07
-1.41931e-07
4.08878e-08
-4.99364e-08
-1.23168e-07
-2.86812e-08
1.71122e-07
-9.1071e-08
7.2059e-08
-1.67652e-07
2.16832e-07
5.50118e-08
2.21342e-07
2.11763e-07
2.03757e-07
2.11089e-07
1.02857e-07
8.01426e-09
-3.06841e-08
7.55827e-08
8.21305e-09
1.27287e-07
5.47252e-09
1.19943e-07
-7.00087e-08
6.99821e-08
-4.22372e-08
-3.07573e-08
-8.41295e-08
-5.45879e-08
2.44049e-08
-1.3496e-07
-6.4953e-09
-1.07553e-07
9.22981e-08
-1.27983e-07
-3.45315e-08
-4.27156e-08
8.18034e-08
-1.86944e-08
-8.6983e-08
-6.96773e-08
-1.56124e-07
-5.32021e-08
9.4035e-08
-4.49568e-08
2.10317e-07
-5.93459e-08
1.29143e-07
-4.42952e-08
2.72009e-08
1.1331e-07
8.85727e-08
1.00513e-07
6.29593e-08
5.3847e-08
5.02491e-08
8.838e-08
-8.40794e-08
7.88268e-09
-1.3714e-07
1.97114e-11
-6.39292e-11
1.82714e-14
7.47167e-12
-2.58655e-06
2.73993e-12
-2.14156e-06
-4.994e-12
-1.84932e-06
-4.17739e-11
-2.57952e-06
-2.42849e-11
3.96867e-06
1.40354e-11
5.19433e-05
2.32999e-11
-1.68268e-06
7.94113e-12
-6.05341e-06
-1.74241e-11
-3.79221e-06
-1.11405e-10
-9.77841e-07
2.95561e-11
3.08146e-06
1.19021e-11
-8.55439e-07
-1.08877e-11
4.84028e-14
-1.88127e-11
-4.1212e-07
2.20126e-11
2.24986e-06
-8.7722e-12
-1.5309e-06
2.33173e-11
9.52019e-07
4.96229e-11
1.46461e-06
8.2214e-12
-6.02104e-07
-4.21691e-12
-1.46304e-06
3.61661e-11
2.73878e-06
1.47723e-12
1.19072e-07
-3.58083e-11
-2.51456e-06
-1.95432e-10
-7.37053e-06
1.12013e-11
-1.25862e-05
1.79381e-11
-5.70001e-06
-3.23131e-06
2.13894e-06
-5.84832e-06
-1.04234e-06
-8.82203e-08
-1.02983e-06
-1.93264e-07
-9.7597e-07
-1.26866e-06
-9.43967e-07
-2.566e-06
-8.42378e-07
1.12091e-06
1.57511e-06
-1.21552e-06
-2.47655e-07
1.30761e-06
1.03833e-06
7.45784e-07
-3.40946e-07
-6.96407e-07
-2.5207e-07
-2.1783e-06
-9.28971e-07
1.74071e-06
1.45201e-06
9.88396e-07
-6.27848e-07
-8.34235e-07
-5.77589e-07
-1.86678e-06
-5.35279e-07
-2.91501e-07
1.04367e-06
-2.03079e-06
-3.48003e-07
8.54788e-07
1.64411e-06
3.72589e-06
1.25093e-06
1.02873e-06
-9.42053e-07
-1.91594e-06
-9.14626e-07
1.8025e-06
1.25853e-06
8.88998e-07
-8.32964e-07
-6.60414e-07
-6.53457e-07
-2.23365e-06
-8.2358e-07
-1.56497e-06
8.37463e-07
-3.20728e-06
5.53278e-07
2.48437e-06
3.87036e-07
-8.8948e-07
-4.95226e-07
3.65791e-08
-4.97581e-07
-5.68705e-08
-5.07636e-07
-2.0302e-07
-4.56218e-07
-5.19103e-07
-4.0826e-07
7.67174e-08
6.82549e-07
-1.53177e-07
-2.09108e-07
1.55847e-07
3.61631e-07
4.45787e-08
-1.3452e-07
-1.60139e-07
-1.09227e-07
-3.21648e-07
-4.30776e-07
1.7168e-07
5.91168e-07
1.21473e-07
-2.76926e-07
-1.99235e-07
-2.71944e-07
-4.28562e-07
-2.08672e-07
-1.95163e-07
4.17394e-07
-4.94026e-07
-7.75877e-08
2.89405e-07
8.22315e-07
8.46657e-07
5.51795e-07
2.75e-07
-4.1512e-07
-2.37296e-07
-4.14641e-07
4.30577e-07
5.01693e-07
1.62997e-07
-4.14571e-07
-1.2218e-07
-2.95657e-07
-3.72961e-07
-3.77249e-07
-1.73453e-07
3.27909e-07
-3.37755e-07
1.78296e-07
1.28672e-06
2.42926e-07
-6.0518e-07
-1.31833e-07
2.75961e-08
-1.51278e-07
-2.91189e-08
-1.78195e-07
-1.00202e-07
-1.53034e-07
-2.9815e-07
-1.60211e-07
-1.46667e-08
1.73004e-07
-3.60756e-08
-9.49395e-09
3.74553e-08
5.14251e-08
-3.04453e-08
-8.91279e-08
-1.26589e-07
-6.90163e-08
-2.25463e-07
-1.06539e-07
4.58989e-08
1.36405e-07
5.05936e-08
-8.5872e-08
-1.19259e-07
-1.02632e-07
-2.46959e-07
-4.3312e-08
-1.41276e-07
1.07179e-07
-2.83522e-07
1.0585e-08
2.07073e-07
2.99513e-07
4.91605e-07
1.77568e-07
1.74966e-07
-1.18382e-07
-1.08006e-07
-1.24083e-07
2.58815e-07
1.22059e-07
1.02844e-07
-1.5215e-07
-4.27918e-08
-9.40275e-08
-1.44228e-07
-7.19934e-08
-9.6106e-08
1.15522e-07
-3.14373e-07
5.40027e-08
3.47416e-07
1.0935e-07
-2.49574e-07
3.08929e-08
-2.6695e-09
-2.76327e-08
-1.21773e-07
-2.92478e-08
-3.72745e-08
-1.72236e-08
-5.64756e-08
-1.19911e-07
-1.32233e-07
-2.14147e-08
6.59958e-09
-8.31974e-08
-1.32308e-07
-1.01865e-07
-1.32847e-07
1.26709e-07
2.51376e-07
1.09393e-07
-4.27395e-09
1.65581e-07
9.08711e-08
1.11805e-08
-3.10439e-08
-1.74742e-08
-9.88821e-08
9.55657e-12
-5.39484e-11
-6.58924e-06
-3.59765e-12
-7.37398e-06
1.439e-11
-1.86513e-07
1.34816e-06
2.09624e-06
-2.69589e-06
-7.30062e-07
-1.64807e-06
)
;

boundaryField
{
    top_fluid_surface
    {
        type            calculated;
        value           nonuniform List<scalar> 
64
(
0
1.47679e-11
1.77003e-11
2.47375e-11
0
1.2313e-11
1.11624e-11
0
0
2.87603e-12
0
4.36635e-12
3.51921e-11
1.50008e-11
1.43574e-11
2.95716e-11
4.43213e-11
4.8888e-11
1.51122e-11
9.21009e-12
1.13286e-11
0
1.42796e-11
3.9686e-12
0
0
1.24561e-11
7.85497e-12
1.37413e-11
1.67064e-11
5.96477e-11
4.06471e-11
9.14356e-12
1.68755e-11
1.54918e-11
1.50615e-11
1.5597e-11
0
0
0
3.4731e-11
2.21864e-11
1.53489e-11
0
1.99402e-11
2.2344e-11
1.30601e-11
0
1.43257e-11
0
0
1.58145e-11
1.63897e-11
0
9.61511e-12
1.44415e-11
3.92965e-11
0
0
0
2.2384e-11
2.83294e-11
0
0
)
;
    }
    bottom_fluid_surface
    {
        type            calculated;
        value           uniform 0;
    }
    lateral_surface_1
    {
        type            calculated;
        value           uniform 0;
    }
    lateral_surface_2
    {
        type            calculated;
        value           uniform 0;
    }
    lateral_surface_3
    {
        type            calculated;
        value           uniform 0;
    }
    lateral_surface_4
    {
        type            calculated;
        value           uniform 0;
    }
}


// ************************************************************************* //
