/*--------------------------------*- C++ -*----------------------------------*\
| =========                 |                                                 |
| \\      /  F ield         | OpenFOAM: The Open Source CFD Toolbox           |
|  \\    /   O peration     | Version:  v1612+                                |
|   \\  /    A nd           | Web:      www.OpenFOAM.com                      |
|    \\/     M anipulation  |                                                 |
\*---------------------------------------------------------------------------*/
FoamFile
{
    version     2.0;
    format      ascii;
    class       volScalarField;
    location    "4.95";
    object      p_rgh;
}
// * * * * * * * * * * * * * * * * * * * * * * * * * * * * * * * * * * * * * //

dimensions      [1 -1 -2 0 0 0 0];

internalField   nonuniform List<scalar> 
1116
(
3718.26
3718.23
3718.23
3718.22
3718.23
3718.28
3787.84
3787.81
3787.8
3787.8
3787.81
3787.86
4225.46
4225.43
4225.42
4225.42
4225.44
4225.46
5862.34
5862.31
5862.32
5862.33
5862.34
5862.37
9917.3
9917.21
9917.23
9917.21
9917.19
9917.27
16311
16311
16310.9
16310.9
16310.9
16311
20690.4
20690.5
20690.4
20690.5
20690.5
20690.4
22323.2
22323.7
22323.5
22323.6
22323.6
22323.4
22497.3
22497.6
22497.5
22497.5
22497.5
22497.3
23233.8
23233.6
23233.6
23233.6
23233.5
23233.6
23748.9
23748.4
23748.5
23748.5
23748.4
23748.7
23096.5
23096.5
23096.5
23096.5
23096.5
23096.6
48.7884
48.7888
48.789
48.789
48.7891
48.7891
61.0561
61.0559
61.0563
61.0564
61.0568
61.0576
119.128
119.113
119.116
119.123
119.121
119.118
609.271
609.176
609.209
609.225
609.198
609.212
3458.44
3458.8
3458.58
3458.45
3458.55
3458.39
13031
13031.1
13030.9
13030.8
13030.8
13030.9
21099.2
21099.3
21099.2
21099.2
21099.2
21099.2
21701.2
21700.9
21701.2
21701.1
21701
21701.2
21963.4
21963.4
21963.4
21963.5
21963.5
21963.5
20939.3
20940.3
20939.8
20939.7
20939.9
20939.7
19499.1
19499.6
19499.2
19499.1
19498.8
19499.4
19867.5
19865.4
19866.3
19866.1
19865.2
19867.6
62.8557
62.8562
62.8564
62.8565
62.8566
62.8566
62.2511
62.2527
62.253
62.2534
62.2536
62.2534
65.8108
65.8158
65.8125
65.8133
65.8157
65.8113
68.9114
68.9251
68.9191
68.9197
68.9284
68.9156
216.796
216.731
216.759
216.756
216.738
216.777
5686.34
5687.9
5687.04
5686.74
5687.26
5686.07
16608.5
16616
16612.5
16612.3
16614.9
16609.9
19008.9
19019.2
19014.5
19014.2
19017.8
19011.3
12951
12958.6
12955.2
12955.3
12957.8
12953
6439.84
6441.88
6441.01
6440.87
6441.23
6440.69
5025.46
5024.86
5024.92
5024.76
5024.41
5025.27
5386.15
5382.21
5384.05
5383.55
5381.07
5386.85
46.7737
46.7744
46.7746
46.7748
46.775
46.7748
52.6599
52.6603
52.6607
52.6614
52.6613
52.6618
59.3531
59.3566
59.356
59.3572
59.3579
59.3559
44.0391
44.0463
44.0437
44.0448
44.0489
44.0436
450.356
449.504
449.813
450.108
449.804
450.109
1415.31
1415.84
1415.21
1416.13
1416.52
1415.43
1291.49
1292.59
1291.65
1292.55
1293.27
1291.77
416.269
416.749
416.272
416.766
417.17
416.416
-46.4163
-46.4122
-46.4151
-46.4159
-46.4143
-46.4246
-7.7394
-7.74201
-7.74538
-7.74866
-7.74718
-7.75606
83.379
83.3662
83.3737
83.3598
83.359
83.3774
176.745
176.694
176.699
176.684
176.633
176.722
141.907
142.4
142.094
142.451
143.636
141.376
139.879
140.495
140.149
140.499
141.825
139.494
142.381
143.773
143.029
144.345
146.332
141.641
220.373
230.809
214.826
239.766
286.174
193.585
418.606
429.087
414.043
433.012
476.04
363.279
482.684
485.473
491.319
502.31
508.112
515.002
531.187
525.776
524.757
520.578
494.41
548.549
1548.81
1538.02
1516.29
1495.72
1458.18
1484.01
3230.44
3239.82
3251.57
3304.89
3368.27
3196.1
2801.45
2806.13
2830.05
2752
2757.06
2912.77
1534.07
1532.47
1528.92
1473.16
1379.11
1547.58
1358.51
1355.59
1351.56
1335.51
1316.41
1326.5
113.809
114.299
114.011
114.427
115.594
113.282
95.5212
95.8247
95.666
96.1212
96.8925
95.2634
25.4644
24.9586
24.8458
24.9118
21.5675
24.2492
-130.597
-131.852
-130.899
-130.373
-131.622
-125.836
-139.118
-139.021
-138.738
-138.046
-136.397
-136.026
-83.8774
-84.1444
-84.397
-83.986
-84.2641
-84.5367
-27.8229
-29.2877
-31.2661
-33.9765
-40.5166
-35.0146
156.992
147.842
140.959
110.011
57.6
120.191
1176.8
1187.15
1196.81
1069.1
862.248
1235.12
1877.08
1892.52
1907.85
1808.65
1486.08
2054.09
1695.75
1725.35
1816.39
1443.69
694.116
1954.39
1080.81
1077.1
1058.51
1053.73
1025.16
1055.04
61.7649
61.9476
61.865
61.955
62.376
61.5861
37.6632
37.6778
37.6994
37.6441
37.5158
37.865
-30.2092
-30.5989
-30.4257
-30.74
-32.4041
-30.4421
-108.429
-108.675
-108.181
-108.641
-109.305
-107.252
-102.274
-102.231
-102.107
-101.368
-100.402
-102.023
-57.6752
-57.7128
-57.806
-57.3238
-56.1004
-58.3725
-24.725
-24.7555
-24.694
-24.546
-23.6691
-24.9316
-11.6466
-11.4782
-11.129
-10.5899
-9.95235
-10.6517
10.8404
10.3762
9.95677
8.24895
0.489409
8.44158
1292.93
1331.51
1438.65
1090.78
224.776
1429.67
2982.76
3012.28
3038.99
2998.22
3159.73
3065.68
2727
2893.86
3288.12
1989.57
973.476
3220.05
28.7284
28.7512
28.7434
28.7195
28.7849
28.6795
9.77542
9.74079
9.7551
9.6557
9.45906
9.76069
-34.7746
-35.0136
-34.9658
-35.2007
-35.5613
-34.8709
-80.4644
-80.9219
-80.863
-81.284
-81.8916
-80.6529
-82.6472
-82.7493
-82.9678
-82.8916
-83.2755
-83.5747
-43.6864
-43.7322
-43.8611
-43.8716
-43.8789
-44.3889
-17.6026
-17.5999
-17.5961
-17.4909
-17.1136
-17.7473
-9.08854
-8.96282
-8.75996
-8.30026
-7.3572
-8.34883
-6.38556
-6.31442
-6.16948
-6.06645
-5.43552
-5.80268
10.2482
10.4526
11.0778
10.1947
10.569
11.1722
3115.95
3201.35
3339.2
3196.63
2622.87
3472.63
5343.6
5381.36
5439.5
5568.54
6294.39
5603.5
36.8257
36.826
36.8261
36.8262
36.8263
36.8264
20.0159
20.016
20.0161
20.0161
20.016
20.0158
5.60274
5.60288
5.6029
5.60285
5.60272
5.60244
36.7537
36.7536
36.7536
36.7538
36.7538
36.754
18.8337
18.8335
18.8333
18.8333
18.833
18.8329
4.89729
4.89736
4.8973
4.89717
4.89698
4.89678
32.2982
32.2995
32.2984
32.2995
32.2999
32.3001
13.4743
13.4723
13.4719
13.4717
13.4711
13.4719
3.0333
3.03334
3.03311
3.03294
3.03279
3.03269
20.1822
20.1856
20.1868
20.1892
20.1904
20.1867
4.68291
4.6913
4.6893
4.68841
4.68991
4.68694
-1.11218
-1.11175
-1.11216
-1.11228
-1.11245
-1.11261
-21.7735
-21.9451
-21.8847
-21.8324
-21.8942
-21.8161
-43.9901
-44.0054
-44.002
-44.0025
-44.0048
-44.0003
-13.851
-13.8532
-13.8533
-13.8536
-13.854
-13.8539
-79.9722
-79.9858
-79.9673
-79.9991
-80.0078
-79.9722
-49.9579
-49.9735
-49.9679
-49.9667
-49.9717
-49.9657
-16.0041
-16.007
-16.006
-16.0067
-16.0078
-16.0062
-52.0106
-52.0064
-52.0067
-52.0061
-52.0077
-52.014
-56.4131
-56.4096
-56.4099
-56.4126
-56.4151
-56.4183
-9.93265
-9.93688
-9.93486
-9.93393
-9.93513
-9.93216
-43.4815
-43.4735
-43.4771
-43.4773
-43.4767
-43.4745
-44.1374
-44.1359
-44.1361
-44.1367
-44.1378
-44.1344
-8.18391
-8.1808
-8.18216
-8.18339
-8.18289
-8.18595
-10.3737
-10.3722
-10.3755
-10.377
-10.3791
-10.3714
-5.78764
-5.78734
-5.7883
-5.79063
-5.79319
-5.78447
-4.96463
-4.96264
-4.96385
-4.96467
-4.96439
-4.9655
7.27324
7.2699
7.26717
7.26488
7.25734
7.27139
17.2969
17.3004
17.2976
17.2936
17.2873
17.3057
-2.72016
-2.72036
-2.72084
-2.7213
-2.72156
-2.71883
35.356
35.3364
35.3472
35.34
35.3333
35.357
18.9939
18.9949
18.9941
18.9918
18.9864
19.0017
-1.17532
-1.1764
-1.17688
-1.17826
-1.17949
-1.17502
2077.68
2077.77
2078.3
2077.38
2077.02
2079.18
-4.07792
-4.08025
-4.07597
-4.07335
-4.06929
-4.0788
-18.8014
-18.8052
-18.8051
-18.805
-18.8075
-18.804
12463.4
12463.9
12465
12465.4
12467
12467
3.12696
3.14349
3.1728
3.22146
3.23358
3.32223
-6.40934
-6.39021
-6.3537
-6.3057
-6.23262
-6.25283
12494.8
12495.7
12496.3
12495.6
12495.8
12497.3
1.31327
2.80787
2.95241
1.35124
1.35725
10.0482
-5.40477
-5.39578
-5.38591
-5.38361
-5.36613
-5.34659
12303.4
12302.2
12305.2
12293.6
12286.2
12316.7
1.79299
1.79538
1.80531
1.79708
1.79319
1.81105
-5.17428
-5.16945
-5.16191
-5.15863
-5.13923
-5.15778
10262
10258.5
10264.9
10242.5
10228.7
10284.9
2.69301
2.69319
2.70019
2.68819
2.68555
2.71081
-6.20749
-6.20203
-6.20236
-6.1799
-6.15297
-6.21878
9891.57
9889.96
9895.82
9877.08
9864.94
9913.68
3.71523
3.71157
3.71427
3.70597
3.69859
3.71845
-9.00843
-9.00518
-9.00688
-8.99793
-8.98346
-9.0167
8298.45
8297.97
8302.01
8291.02
8285.08
8312.14
9.50533
9.50575
9.5028
9.50859
9.50946
9.49776
-13.7647
-13.7649
-13.7655
-13.7645
-13.7612
-13.7691
15.3983
15.4002
15.3934
15.3832
15.3955
15.3545
9.06416
9.06513
9.06317
9.06032
9.06503
9.04852
3.07614
3.07663
3.07654
3.07627
3.07794
3.07383
6.92685
6.90754
6.89412
6.83749
6.80068
6.86977
6.89231
6.88925
6.88205
6.8674
6.86371
6.85659
3.11514
3.11607
3.11456
3.11433
3.11751
3.10336
-11.3866
-11.4844
-11.472
-11.5818
-11.7351
-11.4325
0.0108906
-0.00375808
-0.00503542
-0.0343658
-0.0616682
-0.000133002
1.60399
1.60513
1.60393
1.6024
1.60471
1.5976
-30.3376
-30.537
-30.478
-30.6414
-30.8038
-30.3946
-8.94474
-8.98335
-8.97188
-9.01503
-9.02666
-8.98099
-0.676417
-0.677893
-0.679447
-0.684138
-0.679604
-0.686597
-27.8154
-27.9662
-27.8809
-28.0295
-27.9989
-27.8584
-14.2403
-14.2888
-14.2748
-14.3419
-14.3484
-14.3055
-1.96476
-1.96662
-1.96857
-1.97215
-1.97018
-1.97886
-21.1951
-21.2307
-21.2014
-21.2188
-21.1676
-21.2429
-11.0019
-11.0147
-11.0104
-11.0316
-11.0319
-11.0349
-1.8458
-1.84586
-1.84559
-1.84453
-1.84096
-1.85029
-11.588
-11.579
-11.5327
-11.4853
-11.3607
-11.4753
-6.92453
-6.92017
-6.90991
-6.89822
-6.8797
-6.89314
-1.66687
-1.66485
-1.6605
-1.65515
-1.64733
-1.65306
-6.77636
-6.73883
-6.65421
-6.53441
-6.3461
-6.48002
-5.07118
-5.05504
-5.02434
-4.98504
-4.93767
-4.95108
-1.9762
-1.97065
-1.9604
-1.94804
-1.93533
-1.93619
-2.61732
-2.64823
-2.65806
-2.63514
-2.40528
-2.67445
-4.03987
-4.02072
-3.97994
-3.94038
-3.88115
-3.86923
-1.71547
-1.71319
-1.70643
-1.69481
-1.67779
-1.68981
-2.05475
-1.95823
-1.76429
-1.46026
-0.3915
-1.35989
-4.11302
-4.07229
-3.98643
-3.96145
-3.82608
-3.79657
-2.69486
-2.67905
-2.64962
-2.6013
-2.53669
-2.58229
-6.34209
-6.17577
-6.64541
-4.58633
2.12714
-5.22624
-3.2406
-3.17157
-3.04811
-2.94516
-2.49697
-2.69267
-3.8674
-3.8367
-3.78146
-3.62774
-3.40783
-3.5989
6630.89
6607.68
6586.31
6956.98
7226.19
6726.04
-0.31994
-0.271193
-0.171595
-0.160197
-0.0559725
0.00664257
-11.9919
-11.927
-11.8342
-11.7012
-11.5344
-11.5306
)
;

boundaryField
{
    seabed_topleft_surface
    {
        type            fixedFluxPressure;
        gradient        uniform 0;
        value           nonuniform List<scalar> 
72
(
3718.26
3718.23
3718.23
3718.22
3718.23
3718.28
3787.84
3787.81
3787.8
3787.8
3787.81
3787.86
4225.46
4225.43
4225.42
4225.42
4225.44
4225.46
5862.34
5862.31
5862.32
5862.33
5862.34
5862.37
9917.3
9917.21
9917.23
9917.21
9917.19
9917.27
16311
16311
16310.9
16310.9
16310.9
16311
20690.4
20690.5
20690.4
20690.5
20690.5
20690.4
22323.2
22323.7
22323.5
22323.6
22323.6
22323.4
22497.3
22497.6
22497.5
22497.5
22497.5
22497.3
23233.8
23233.6
23233.6
23233.6
23233.5
23233.6
23748.9
23748.4
23748.5
23748.5
23748.4
23748.7
23096.5
23096.5
23096.5
23096.5
23096.5
23096.6
)
;
    }
    seabed_topright_surface
    {
        type            fixedFluxPressure;
        gradient        uniform 0;
        value           nonuniform List<scalar> 
72
(
141.907
142.4
142.094
142.451
143.636
141.376
139.879
140.495
140.149
140.499
141.825
139.494
142.381
143.773
143.029
144.345
146.332
141.641
220.373
230.809
214.826
239.766
286.174
193.585
418.606
429.087
414.043
433.012
476.04
363.279
482.684
485.473
491.319
502.31
508.112
515.002
531.187
525.776
524.757
520.578
494.41
548.549
1548.81
1538.02
1516.29
1495.72
1458.18
1484.01
3230.44
3239.82
3251.57
3304.89
3368.27
3196.1
2801.45
2806.13
2830.05
2752
2757.06
2912.77
1534.07
1532.47
1528.92
1473.16
1379.11
1547.58
1358.51
1355.59
1351.56
1335.51
1316.41
1326.5
)
;
    }
    breakwater_top_surface
    {
        type            fixedFluxPressure;
        gradient        uniform 0;
        value           nonuniform List<scalar> 
36
(
12463.4
12463.9
12465
12465.4
12467
12467
12494.8
12495.7
12496.3
12495.6
12495.8
12497.3
12303.4
12302.2
12305.2
12293.6
12286.2
12316.7
10262
10258.5
10264.9
10242.5
10228.7
10284.9
9891.57
9889.96
9895.82
9877.08
9864.94
9913.68
8298.45
8297.97
8302.01
8291.02
8285.08
8312.14
)
;
    }
    breakwater_left_surface
    {
        type            fixedFluxPressure;
        gradient        uniform 0;
        value           nonuniform List<scalar> 
24
(
23096.5
23096.5
23096.5
23096.5
23096.5
23096.6
19867.5
19865.4
19866.3
19866.1
19865.2
19867.6
5386.15
5382.21
5384.05
5383.55
5381.07
5386.85
176.745
176.694
176.699
176.684
176.633
176.722
)
;
    }
    breakwater_right_surface
    {
        type            fixedFluxPressure;
        gradient        uniform 0;
        value           nonuniform List<scalar> 
24
(
1358.51
1355.59
1351.56
1335.51
1316.41
1326.5
1080.81
1077.1
1058.51
1053.73
1025.16
1055.04
2727
2893.86
3288.12
1989.57
973.476
3220.05
5343.6
5381.36
5439.5
5568.54
6294.39
5603.5
)
;
    }
    water_front_surface
    {
        type            fixedFluxPressure;
        gradient        uniform 0;
        value           nonuniform List<scalar> 
186
(
3718.26
3787.84
4225.46
5862.34
9917.3
16311
20690.4
22323.2
22497.3
23233.8
23748.9
23096.5
48.7884
61.0561
119.128
609.271
3458.44
13031
21099.2
21701.2
21963.4
20939.3
19499.1
19867.5
62.8557
62.2511
65.8108
68.9114
216.796
5686.34
16608.5
19008.9
12951
6439.84
5025.46
5386.15
46.7737
52.6599
59.3531
44.0391
450.356
1415.31
1291.49
416.269
-46.4163
-7.7394
83.379
176.745
141.907
139.879
142.381
220.373
418.606
482.684
531.187
1548.81
3230.44
2801.45
1534.07
1358.51
113.809
95.5212
25.4644
-130.597
-139.118
-83.8774
-27.8229
156.992
1176.8
1877.08
1695.75
1080.81
61.7649
37.6632
-30.2092
-108.429
-102.274
-57.6752
-24.725
-11.6466
10.8404
1292.93
2982.76
2727
28.7284
9.77542
-34.7746
-80.4644
-82.6472
-43.6864
-17.6026
-9.08854
-6.38556
10.2482
3115.95
5343.6
36.8257
20.0159
5.60274
36.7537
18.8337
4.89729
32.2982
13.4743
3.0333
20.1822
4.68291
-1.11218
-21.7735
-43.9901
-13.851
-79.9722
-49.9579
-16.0041
-52.0106
-56.4131
-9.93265
-43.4815
-44.1374
-8.18391
-10.3737
-5.78764
-4.96463
7.27324
17.2969
-2.72016
35.356
18.9939
-1.17532
2077.68
-4.07792
-18.8014
12463.4
3.12696
-6.40934
12494.8
1.31327
-5.40477
12303.4
1.79299
-5.17428
10262
2.69301
-6.20749
9891.57
3.71523
-9.00843
8298.45
9.50533
-13.7647
15.3983
9.06416
3.07614
6.92685
6.89231
3.11514
-11.3866
0.0108906
1.60399
-30.3376
-8.94474
-0.676417
-27.8154
-14.2403
-1.96476
-21.1951
-11.0019
-1.8458
-11.588
-6.92453
-1.66687
-6.77636
-5.07118
-1.9762
-2.61732
-4.03987
-1.71547
-2.05475
-4.11302
-2.69486
-6.34209
-3.2406
-3.8674
6630.89
-0.31994
-11.9919
)
;
    }
    water_back_surface
    {
        type            fixedFluxPressure;
        gradient        uniform 0;
        value           nonuniform List<scalar> 
186
(
3718.28
3787.86
4225.46
5862.37
9917.27
16311
20690.4
22323.4
22497.3
23233.6
23748.7
23096.6
48.7891
61.0576
119.118
609.212
3458.39
13030.9
21099.2
21701.2
21963.5
20939.7
19499.4
19867.6
62.8566
62.2534
65.8113
68.9156
216.777
5686.07
16609.9
19011.3
12953
6440.69
5025.27
5386.85
46.7748
52.6618
59.3559
44.0436
450.109
1415.43
1291.77
416.416
-46.4246
-7.75606
83.3774
176.722
141.376
139.494
141.641
193.585
363.279
515.002
548.549
1484.01
3196.1
2912.77
1547.58
1326.5
113.282
95.2634
24.2492
-125.836
-136.026
-84.5367
-35.0146
120.191
1235.12
2054.09
1954.39
1055.04
61.5861
37.865
-30.4421
-107.252
-102.023
-58.3725
-24.9316
-10.6517
8.44158
1429.67
3065.68
3220.05
28.6795
9.76069
-34.8709
-80.6529
-83.5747
-44.3889
-17.7473
-8.34883
-5.80268
11.1722
3472.63
5603.5
36.8264
20.0158
5.60244
36.754
18.8329
4.89678
32.3001
13.4719
3.03269
20.1867
4.68694
-1.11261
-21.8161
-44.0003
-13.8539
-79.9722
-49.9657
-16.0062
-52.014
-56.4183
-9.93216
-43.4745
-44.1344
-8.18595
-10.3714
-5.78447
-4.9655
7.27139
17.3057
-2.71883
35.357
19.0017
-1.17502
2079.18
-4.0788
-18.804
12467
3.32223
-6.25283
12497.3
10.0482
-5.34659
12316.7
1.81105
-5.15778
10284.9
2.71081
-6.21878
9913.68
3.71845
-9.0167
8312.14
9.49776
-13.7691
15.3545
9.04852
3.07383
6.86977
6.85659
3.10336
-11.4325
-0.000133002
1.5976
-30.3946
-8.98099
-0.686597
-27.8584
-14.3055
-1.97886
-21.2429
-11.0349
-1.85029
-11.4753
-6.89314
-1.65306
-6.48002
-4.95108
-1.93619
-2.67445
-3.86923
-1.68981
-1.35989
-3.79657
-2.58229
-5.22624
-2.69267
-3.5989
6726.04
0.00664257
-11.5306
)
;
    }
    water_left_surface
    {
        type            fixedFluxPressure;
        gradient        uniform 0;
        value           nonuniform List<scalar> 
42
(
3718.26
3718.23
3718.23
3718.22
3718.23
3718.28
48.7884
48.7888
48.789
48.789
48.7891
48.7891
62.8557
62.8562
62.8564
62.8565
62.8566
62.8566
46.7737
46.7744
46.7746
46.7748
46.775
46.7748
36.8257
36.826
36.8261
36.8262
36.8263
36.8264
20.0159
20.016
20.0161
20.0161
20.016
20.0158
5.60274
5.60288
5.6029
5.60285
5.60272
5.60244
)
;
    }
    water_right_surface
    {
        type            fixedFluxPressure;
        gradient        uniform 0;
        value           nonuniform List<scalar> 
42
(
141.907
142.4
142.094
142.451
143.636
141.376
113.809
114.299
114.011
114.427
115.594
113.282
61.7649
61.9476
61.865
61.955
62.376
61.5861
28.7284
28.7512
28.7434
28.7195
28.7849
28.6795
15.3983
15.4002
15.3934
15.3832
15.3955
15.3545
9.06416
9.06513
9.06317
9.06032
9.06503
9.04852
3.07614
3.07663
3.07654
3.07627
3.07794
3.07383
)
;
    }
    water_top_surface
    {
        type            totalPressure;
        rho             rho;
        psi             none;
        gamma           1;
        p0              uniform 0;
        value           nonuniform List<scalar> 
180
(
0
0
0
0
0
0
0
0
0
0
0
0
0
0
0
0
0
0
0
0
0
0
0
0
0
0
0
0
0
0
0
0
0
0
0
0
0
0
0
0
0
0
-5.70883
-5.68943
-5.69986
-5.70314
-5.69697
-5.71368
-11.8729
-11.8635
-11.868
-11.8688
-11.8674
-11.8714
-6.16462
-6.16051
-6.16105
-6.16178
-6.1621
-6.15998
-1.49973
-1.49876
-1.49953
-1.50045
-1.50078
-1.50008
-2.17961
-2.18253
-2.18142
-2.18129
-2.18394
-2.17946
-1.9434
-1.95984
-1.94362
-1.92437
-1.97129
-1.88112
-1.99033
-2.02349
-2.02585
-1.91965
-1.90195
-2.085
-2.11577
-2.11688
-2.11352
-2.12924
-2.17509
-2.04428
-3.12985
-3.13852
-3.11306
-3.17647
-3.24692
-3.03663
-3.3923
-3.40443
-3.38136
-3.42826
-3.48768
-3.32584
-1.48205
-1.48813
-1.48141
-1.4909
-1.51006
-1.46331
0
0
0
0
0
0
0
0
0
0
0
0
0
0
0
0
0
0
0
0
0
0
0
0
0
0
0
0
0
0
-0.0460575
-0.0460681
-0.0459989
-0.0458628
-0.0454529
-0.0459967
-0.531952
-0.531302
-0.53017
-0.528774
-0.526857
-0.528179
-1.90115
-1.89719
-1.8928
-1.88657
-1.88093
-1.87747
-1.54919
-1.54706
-1.54228
-1.52961
-1.5137
-1.5343
-4.35891
-4.34865
-4.31805
-4.3213
-4.29562
-4.25381
-5.09647
-5.08077
-5.00637
-4.98025
-4.91663
-4.84811
-2.37035
-2.35458
-2.34376
-2.30625
-2.19022
-2.28323
)
;
    }
}


// ************************************************************************* //
