/*--------------------------------*- C++ -*----------------------------------*\
| =========                 |                                                 |
| \\      /  F ield         | OpenFOAM: The Open Source CFD Toolbox           |
|  \\    /   O peration     | Version:  v1612+                                |
|   \\  /    A nd           | Web:      www.OpenFOAM.com                      |
|    \\/     M anipulation  |                                                 |
\*---------------------------------------------------------------------------*/
FoamFile
{
    version     2.0;
    format      ascii;
    class       volVectorField;
    location    "4.95";
    object      U;
}
// * * * * * * * * * * * * * * * * * * * * * * * * * * * * * * * * * * * * * //

dimensions      [0 1 -1 0 0 0 0];

internalField   nonuniform List<vector> 
1116
(
(0.119094 -7.77593e-06 -0.164008)
(0.119094 -1.21683e-05 -0.164014)
(0.119096 -3.69726e-06 -0.164005)
(0.119097 -8.13712e-07 -0.164003)
(0.119095 -9.62219e-06 -0.164013)
(0.119092 -4.25647e-06 -0.164003)
(0.342219 -3.66804e-06 -0.304103)
(0.342229 -1.09396e-05 -0.304117)
(0.342229 -2.98825e-06 -0.3041)
(0.34223 1.8493e-07 -0.304095)
(0.342227 -1.19415e-05 -0.304113)
(0.342219 -8.74985e-06 -0.3041)
(0.34591 5.27416e-06 -0.321622)
(0.345931 -2.0778e-06 -0.321641)
(0.345928 -1.47857e-06 -0.321623)
(0.345926 -3.12455e-06 -0.321617)
(0.345926 -1.36022e-05 -0.321636)
(0.345915 -1.10554e-05 -0.321627)
(-0.0979808 5.66163e-06 -0.214063)
(-0.0979335 -1.22099e-06 -0.214081)
(-0.0979428 -3.28588e-06 -0.214066)
(-0.0979427 -7.5583e-06 -0.214061)
(-0.0979335 -1.29247e-05 -0.214079)
(-0.0979608 -1.00082e-05 -0.214075)
(-0.980258 3.24324e-05 0.0402169)
(-0.980196 2.33323e-05 0.0402018)
(-0.9802 -6.26556e-06 0.0402056)
(-0.980199 7.12075e-07 0.0402095)
(-0.980184 -2.16167e-05 0.0401973)
(-0.980224 -2.42768e-05 0.0402022)
(-1.96665 -3.74635e-06 0.314709)
(-1.9666 1.4607e-05 0.314718)
(-1.96658 1.68326e-05 0.314712)
(-1.96658 3.40546e-06 0.314716)
(-1.96657 -1.23173e-05 0.314716)
(-1.96663 -1.18952e-05 0.31472)
(-2.98244 -5.19947e-05 0.42475)
(-2.98248 -4.21986e-06 0.424837)
(-2.98239 3.61159e-05 0.424808)
(-2.98238 -2.18643e-06 0.424807)
(-2.98239 -1.03493e-07 0.424833)
(-2.98248 6.86547e-06 0.424777)
(-3.76064 -5.06046e-05 0.146569)
(-3.76087 -1.22405e-05 0.146687)
(-3.76068 3.08133e-05 0.146676)
(-3.76066 -6.72494e-06 0.146683)
(-3.76072 5.22125e-06 0.146708)
(-3.76075 1.98972e-05 0.14657)
(-3.81016 0.000167593 -0.484554)
(-3.8106 0.000100419 -0.484401)
(-3.81034 -6.5106e-05 -0.484395)
(-3.81034 3.07446e-05 -0.4844)
(-3.81048 -4.97249e-05 -0.484377)
(-3.81027 -7.13484e-05 -0.484567)
(-2.96321 0.000434983 -0.923194)
(-2.9636 0.000253264 -0.922902)
(-2.96335 -0.000193455 -0.922952)
(-2.96343 6.51819e-05 -0.922997)
(-2.96359 -0.000152172 -0.922921)
(-2.96323 -0.000226165 -0.9232)
(-1.8285 0.000276199 -1.01043)
(-1.82826 0.000148568 -1.01007)
(-1.82827 -0.000161952 -1.01018)
(-1.82844 2.34988e-05 -1.01024)
(-1.82845 -0.000170188 -1.01012)
(-1.82833 -0.000225689 -1.01047)
(-0.571288 -0.000137116 -0.587692)
(-0.571123 -0.000114752 -0.587692)
(-0.571168 -7.9972e-07 -0.587734)
(-0.571201 -4.70072e-05 -0.5877)
(-0.571119 -5.01724e-05 -0.587653)
(-0.571314 -2.60167e-05 -0.587854)
(0.992133 -8.36504e-05 -0.635095)
(0.992148 -0.000103601 -0.635152)
(0.992129 -1.74457e-05 -0.635204)
(0.992121 1.49813e-06 -0.635159)
(0.992132 7.60362e-05 -0.635133)
(0.992117 7.19112e-05 -0.63518)
(2.8158 -8.97984e-05 -0.133975)
(2.81569 -0.000118625 -0.134037)
(2.81562 -4.5948e-05 -0.134091)
(2.81562 -6.23826e-05 -0.134033)
(2.81562 0.000110777 -0.133997)
(2.81568 0.000111526 -0.134079)
(2.34822 8.56048e-05 0.548823)
(2.34902 7.07677e-06 0.548775)
(2.34868 -0.000110645 0.548791)
(2.34845 -7.66829e-05 0.548802)
(2.34864 -4.971e-05 0.548794)
(2.34859 -4.87902e-05 0.548792)
(-0.01893 0.000240705 1.20168)
(-0.0177396 0.000119375 1.20167)
(-0.0183188 -0.000141698 1.20167)
(-0.0183328 3.35875e-06 1.20166)
(-0.0179507 -8.73077e-05 1.20165)
(-0.0186874 -0.000133786 1.20161)
(-1.94992 0.000537255 1.69302)
(-1.94963 0.000306506 1.69319)
(-1.94974 -0.000246931 1.6931)
(-1.94969 0.00013649 1.69309)
(-1.94959 -0.000154218 1.69313)
(-1.94983 -0.000314784 1.69304)
(-2.64871 0.000226384 1.52268)
(-2.64849 0.00014951 1.52272)
(-2.64855 -8.6656e-05 1.52271)
(-2.64856 7.2602e-05 1.52273)
(-2.64848 -8.64942e-05 1.52275)
(-2.64866 -0.000162124 1.5227)
(-2.87426 0.00011793 0.963448)
(-2.8744 8.07036e-05 0.963262)
(-2.87428 -5.63845e-05 0.963368)
(-2.87426 4.36897e-05 0.9634)
(-2.87429 -3.60251e-05 0.963348)
(-2.87434 -8.57153e-05 0.963418)
(-2.92887 0.000238121 0.26225)
(-2.92942 0.000121893 0.262071)
(-2.92913 -0.000114931 0.262215)
(-2.9291 7.46945e-05 0.262221)
(-2.92923 -4.10777e-05 0.262169)
(-2.92906 -0.000105193 0.262191)
(-2.44233 0.0004652 -0.446414)
(-2.44254 0.000238039 -0.445678)
(-2.44241 -0.00020461 -0.445881)
(-2.44242 0.000125933 -0.445998)
(-2.44242 -9.72548e-05 -0.445758)
(-2.44235 -0.000197964 -0.446272)
(-1.80124 0.000132816 -1.11468)
(-1.79966 4.55241e-05 -1.11282)
(-1.80028 -8.35798e-05 -1.1135)
(-1.8005 3.97444e-06 -1.11377)
(-1.80002 -8.34061e-05 -1.11319)
(-1.80077 -9.085e-05 -1.1143)
(-1.36037 -0.000558691 -1.79724)
(-1.3576 -0.000324654 -1.79598)
(-1.35878 0.000178398 -1.79649)
(-1.35895 -0.000162174 -1.79672)
(-1.35817 1.8433e-05 -1.79636)
(-1.3597 0.000109902 -1.79709)
(-0.839366 -0.000463678 -1.50531)
(-0.839135 -0.000258105 -1.50587)
(-0.839184 9.53846e-05 -1.50569)
(-0.83926 -0.000215784 -1.50572)
(-0.839003 0.00010697 -1.50577)
(-0.839502 0.000200252 -1.50573)
(-1.3546 -7.91345e-05 -2.5956)
(-1.35453 -6.76684e-05 -2.59597)
(-1.35457 -6.97827e-06 -2.59591)
(-1.35457 -2.3399e-05 -2.59589)
(-1.35453 4.17555e-05 -2.59594)
(-1.35462 6.2012e-05 -2.59557)
(-3.35015 -0.000195234 -1.28757)
(-3.35066 -0.000133936 -1.28832)
(-3.35054 2.19985e-05 -1.28822)
(-3.3505 -7.00116e-05 -1.2882)
(-3.35057 8.29103e-05 -1.2883)
(-3.35027 0.000129478 -1.28785)
(-3.26293 -0.000356117 3.31814)
(-3.26392 -0.000256383 3.31811)
(-3.2637 0.000114327 3.31778)
(-3.26377 -4.20203e-06 3.31759)
(-3.26384 0.000245797 3.31758)
(-3.26359 0.000261096 3.31754)
(-7.73176 0.00132731 5.84829)
(-7.73372 0.000716389 5.85335)
(-7.73213 -0.000626023 5.85108)
(-7.73229 0.000452068 5.85031)
(-7.7326 -3.04215e-05 5.85168)
(-7.73008 -0.000456517 5.84981)
(-8.18931 0.00277319 3.34936)
(-8.19603 0.00152187 3.35815)
(-8.1926 -0.00147182 3.35423)
(-8.19257 0.000602787 3.35352)
(-8.19457 -0.000949485 3.3565)
(-8.19047 -0.00170831 3.35159)
(-5.04999 0.000935357 1.27799)
(-5.04945 0.000508048 1.28117)
(-5.04968 -0.000462574 1.27979)
(-5.04982 0.000272282 1.27947)
(-5.04952 -0.000274295 1.28059)
(-5.04987 -0.00057147 1.27877)
(-3.63557 0.000239752 0.565065)
(-3.63471 0.000116009 0.567101)
(-3.63508 -0.00012591 0.566244)
(-3.63523 9.06884e-05 0.566038)
(-3.63485 -3.6035e-05 0.566752)
(-3.63542 -0.000129692 0.565553)
(-2.60505 -0.000291156 -0.315167)
(-2.60386 -0.000205253 -0.313238)
(-2.60437 8.88562e-05 -0.314031)
(-2.60459 -9.84698e-05 -0.314271)
(-2.60416 9.54356e-05 -0.313594)
(-2.60485 0.000182763 -0.314734)
(-1.5528 -0.0013092 -1.39779)
(-1.551 -0.000823813 -1.39619)
(-1.55175 0.000539664 -1.39682)
(-1.55207 -0.000404633 -1.39705)
(-1.55152 0.000265706 -1.39648)
(-1.55255 0.000691986 -1.39747)
(-0.153335 -0.00214982 -2.18448)
(-0.152264 -0.0013629 -2.18492)
(-0.152873 0.00102341 -2.18474)
(-0.152728 -0.000469429 -2.18479)
(-0.152362 0.000380325 -2.18488)
(-0.153607 0.00102091 -2.18478)
(1.65951 -0.00188862 -1.71246)
(1.65986 -0.00119608 -1.71381)
(1.65929 0.00100874 -1.71343)
(1.6606 -0.00067517 -1.71316)
(1.66069 0.000746233 -1.7134)
(1.65814 0.00162506 -1.71332)
(-2.28607 0.000527708 -1.90362)
(-2.28783 0.000439569 -1.90357)
(-2.2872 -0.000138176 -1.90369)
(-2.28713 0.000285286 -1.90381)
(-2.29118 -0.000384766 -1.90399)
(-2.28383 -0.000779035 -1.9037)
(-0.757889 -7.87369e-05 2.08016)
(-0.757919 -7.64805e-05 2.07951)
(-0.757907 4.76802e-07 2.07964)
(-0.757922 -3.90321e-05 2.07964)
(-0.757932 2.39389e-05 2.0795)
(-0.757914 3.41981e-05 2.08018)
(-2.70974 -5.80088e-06 1.8709)
(-2.71015 5.1019e-06 1.87002)
(-2.71001 -2.04332e-05 1.87026)
(-2.70998 -2.73608e-05 1.87034)
(-2.71006 4.37967e-06 1.87009)
(-2.70998 -2.05577e-05 1.87074)
(-3.45633 0.000310895 4.15927)
(-3.45674 0.000285364 4.15906)
(-3.45655 -6.03729e-05 4.15875)
(-3.45678 0.000120596 4.15878)
(-3.45668 3.19926e-05 4.15861)
(-3.45666 -0.000127064 4.15873)
(-5.18869 0.00014123 6.40122)
(-5.18571 -5.95771e-05 6.40858)
(-5.1864 -0.000325239 6.40494)
(-5.188 2.14888e-05 6.40366)
(-5.18667 -1.78579e-05 6.4062)
(-5.18835 -0.000135717 6.40261)
(-7.61799 2.41451e-05 -0.798323)
(-7.61541 3.3259e-05 -0.791457)
(-7.61631 -0.00036367 -0.79434)
(-7.6177 -0.000259135 -0.795593)
(-7.61666 0.000115933 -0.792995)
(-7.61766 2.69494e-05 -0.796406)
(-7.30282 -0.00118881 -2.79205)
(-7.29913 -0.00066748 -2.78876)
(-7.30084 0.000265881 -2.79028)
(-7.30175 -0.000545437 -2.79049)
(-7.30036 0.000388682 -2.7891)
(-7.30234 0.000672995 -2.79111)
(-6.4406 -0.00261718 -2.63756)
(-6.43281 -0.00149197 -2.63745)
(-6.4364 0.000921445 -2.63754)
(-6.43736 -0.00106151 -2.63755)
(-6.43466 0.000672762 -2.63726)
(-6.43898 0.00147813 -2.63744)
(-4.76677 -0.00301344 -2.88953)
(-4.76033 -0.00179752 -2.89326)
(-4.76301 0.000967635 -2.89175)
(-4.76417 -0.001472 -2.89114)
(-4.76213 0.000366795 -2.89216)
(-4.76542 0.00150274 -2.89034)
(3.40899 -0.00173764 -4.46168)
(3.40851 -0.00133894 -4.47124)
(3.41045 -2.18669e-05 -4.46684)
(3.40675 -0.00167319 -4.46632)
(3.40524 -0.000205886 -4.46987)
(3.40683 0.000895499 -4.46427)
(2.32129 -0.000489813 -4.6067)
(2.31324 -0.000492881 -4.61837)
(2.31682 0.00070793 -4.6135)
(2.31769 0.000345907 -4.61274)
(2.31421 0.000574087 -4.61654)
(2.3173 0.000765712 -4.60953)
(8.09504 -6.79806e-05 1.02813)
(8.08166 -0.000506212 1.0216)
(8.08717 0.00121246 1.02412)
(8.08999 -0.00113334 1.02508)
(8.08637 0.00174181 1.02477)
(8.08809 0.00422423 1.02513)
(-6.75679 0.00156974 -0.982424)
(-6.7654 0.00120782 -0.980736)
(-6.76277 -0.000497815 -0.982027)
(-6.75918 5.61639e-05 -0.980952)
(-6.77029 0.000178218 -0.980998)
(-6.75477 -8.94523e-05 -0.983367)
(1.48436 -0.0337564 2.1184)
(1.53659 -0.00439156 2.12381)
(1.46889 0.0211569 2.11439)
(1.50583 -0.090914 2.11268)
(1.65107 0.110456 2.12253)
(1.34397 0.189689 2.08658)
(6.64354 -0.06076 2.63697)
(6.94731 -0.000225537 2.57942)
(6.56267 0.0277621 2.70779)
(6.83225 -0.159532 2.59778)
(7.5641 0.167878 2.27933)
(5.91807 0.324435 2.87328)
(12.8001 -0.0629949 0.975578)
(13.284 0.00703601 0.761751)
(12.7472 -0.00855927 1.15041)
(13.1529 -0.163313 0.785565)
(14.0606 0.156423 -0.125772)
(11.8943 0.384869 1.71411)
(15.935 -0.0103303 -2.75887)
(16.3383 0.0317096 -2.96131)
(16.0299 0.0102951 -2.7327)
(16.1291 0.021026 -2.97289)
(16.5495 0.0554041 -3.65017)
(15.4037 0.162717 -2.25128)
(16.1829 0.0230869 -4.04678)
(16.539 0.0488132 -4.21242)
(16.3402 0.0596287 -4.16673)
(16.3071 0.197316 -4.20127)
(16.5468 -0.00548641 -4.64511)
(15.8824 -0.0934268 -3.95035)
(14.9348 0.0373886 -4.2086)
(15.2251 0.0632519 -4.38374)
(15.0159 0.108645 -4.41242)
(15.0574 0.353995 -4.40542)
(15.4545 -0.0620033 -4.84629)
(14.4251 -0.267189 -4.31562)
(13.4687 0.0365046 -3.96835)
(13.6078 0.0598315 -4.11874)
(13.4169 0.132709 -4.16165)
(13.5978 0.400626 -4.16665)
(14.1527 -0.0828839 -4.63699)
(12.7865 -0.30807 -4.10171)
(11.3281 0.0163705 -4.17621)
(11.3521 0.0103463 -4.27806)
(11.249 0.0889289 -4.31474)
(11.4731 0.269693 -4.29956)
(12.0472 -0.109459 -4.67844)
(10.8371 -0.199059 -4.21832)
(7.7664 -0.00985307 -5.17728)
(7.79928 -0.0743411 -5.26342)
(7.73563 0.01043 -5.28676)
(7.81887 0.118226 -5.20101)
(8.34932 -0.245102 -5.48396)
(7.49376 -0.162232 -5.03137)
(3.44951 -0.00169017 -5.62254)
(3.52816 -0.0773654 -5.70636)
(3.58791 0.167691 -5.77696)
(3.27073 0.526095 -5.49314)
(4.16105 -0.553019 -5.84949)
(3.39456 -0.619125 -5.25628)
(-3.89226 0.03798 -4.17549)
(-3.67312 0.0758194 -4.30658)
(-2.665 0.269402 -4.56874)
(-5.03483 0.955788 -3.70989)
(-6.06957 -0.480651 -3.84475)
(-1.06751 -0.502177 -4.47083)
(-6.9625 0.0731319 1.43776)
(-7.03006 0.196498 1.50874)
(-6.42578 0.496119 1.7287)
(-7.04132 0.974608 1.26631)
(-6.47826 -0.137775 1.72128)
(-5.20758 -0.617783 1.63477)
(1.32469 -0.0397489 6.03004)
(1.36945 -0.0107544 6.04687)
(1.31721 0.0128924 6.02541)
(1.3619 -0.110016 6.03587)
(1.48958 0.129101 6.07202)
(1.21049 0.224536 5.96356)
(4.84816 -0.0497816 7.5891)
(5.17591 -0.0329823 7.56004)
(4.78741 -0.00612527 7.66602)
(5.15308 -0.0854355 7.55161)
(5.99575 0.0580192 7.30698)
(4.08763 0.177537 7.78742)
(10.2793 -0.0157756 6.61786)
(10.695 -0.0455576 6.54534)
(10.3182 -0.0725673 6.81855)
(10.7836 -0.0112152 6.50299)
(11.6781 -0.142416 6.05825)
(9.56659 -0.102282 7.17321)
(13.453 0.0178008 4.135)
(13.7221 -0.00627886 4.11554)
(13.5157 -0.095456 4.32072)
(13.9618 -0.0812956 4.10897)
(14.6343 -0.159514 3.97733)
(13.1511 -0.0785552 4.54301)
(10.4579 0.0339761 1.43438)
(10.5558 0.0701898 1.44545)
(10.3103 -0.0366898 1.40592)
(10.9527 -0.132968 1.90345)
(12.3071 0.0499509 2.64376)
(10.3141 0.184435 1.41996)
(9.37261 0.0534234 -0.295565)
(9.35816 0.108621 -0.367201)
(9.00301 0.0613814 -0.737113)
(9.70952 0.125079 0.309938)
(11.6034 0.0632236 2.16044)
(8.72676 0.101842 -1.18725)
(8.33908 0.0275871 0.389423)
(8.19118 0.0727474 0.222012)
(7.87552 0.109499 -0.0604147)
(8.57087 0.306546 0.783065)
(10.5922 -0.0497414 2.7482)
(7.58282 -0.131478 -0.356342)
(8.38462 -0.0149918 -1.97824)
(8.31173 -0.0123581 -2.07661)
(8.11901 0.0224047 -2.15537)
(8.50947 0.163772 -1.46975)
(9.57583 -0.127269 0.0510839)
(7.90532 -0.138784 -2.15832)
(8.38676 -0.0220029 -6.49475)
(8.38186 -0.0228475 -6.55908)
(8.2512 -0.00845977 -6.55749)
(8.50655 0.106576 -6.48932)
(8.97442 -0.138344 -6.7929)
(8.09572 -0.117489 -6.48052)
(7.52242 -0.0296975 -6.89667)
(7.54593 -0.0345705 -6.9583)
(7.47044 -0.0552317 -7.03967)
(7.78495 -0.00209607 -6.76027)
(8.20927 -0.154437 -6.39144)
(7.39814 0.00705329 -6.95983)
(4.81105 0.0105748 -3.61522)
(4.88776 0.0818452 -3.80191)
(5.03917 0.0584921 -4.27376)
(4.71738 0.231625 -2.67425)
(3.49642 -0.128684 1.5174)
(5.17017 0.229027 -4.75556)
(-0.946573 0.227653 4.27867)
(-0.837374 0.817179 3.86368)
(0.456562 0.71386 1.91242)
(-1.86159 2.27654 6.77428)
(-2.8239 -0.00918756 9.59355)
(1.10128 -0.089499 0.106756)
(0.377134 -0.0229061 8.23798)
(0.388998 -0.0104569 8.259)
(0.380726 0.00241556 8.2369)
(0.391106 -0.0669038 8.25588)
(0.42177 0.0733603 8.30997)
(0.356346 0.129123 8.17268)
(0.356309 -0.0342943 10.1648)
(0.502465 -0.0329145 10.1792)
(0.33714 -0.00988571 10.2005)
(0.530629 -0.0501981 10.1902)
(0.922636 0.0326104 10.1527)
(0.0107547 0.103136 10.1836)
(2.04968 -0.0172534 9.13059)
(2.29642 -0.065247 9.07036)
(2.11534 -0.064539 9.25147)
(2.43177 0.00725571 9.05619)
(2.89922 -0.171523 8.84139)
(1.64986 -0.163886 9.50183)
(2.88501 -0.0187995 2.49)
(3.0574 -0.0658598 2.32775)
(3.1025 -0.101961 2.6349)
(3.24236 -0.110368 2.27875)
(3.59096 -0.150917 1.89536)
(3.0604 -0.0980133 3.25864)
(3.61341 -0.0147862 -5.18487)
(3.74874 -0.0415766 -5.27991)
(3.72409 -0.104819 -5.15686)
(3.90879 -0.215298 -5.30745)
(4.46148 0.00954663 -5.38933)
(3.7317 0.146677 -4.79769)
(4.28644 0.00956641 -6.14257)
(4.37337 -0.00243015 -6.18591)
(4.31989 -0.104501 -6.19681)
(4.38236 -0.312395 -6.36666)
(4.76351 0.103918 -6.4719)
(4.26564 0.328981 -6.20538)
(3.9886 0.0124471 -3.29779)
(4.0153 -0.0133438 -3.36651)
(3.97868 -0.139651 -3.48898)
(4.05508 -0.37276 -3.62086)
(4.35578 0.0743643 -3.69258)
(3.95823 0.350969 -3.70295)
(2.21404 -0.00715631 -1.64256)
(2.16714 -0.0426913 -1.62843)
(2.08256 -0.13206 -1.69282)
(2.18482 -0.246769 -1.29461)
(2.23771 -0.00152935 -0.932348)
(1.88185 0.200931 -1.69943)
(3.99144 -0.0156144 -5.94586)
(4.01788 -0.0352393 -6.01918)
(4.02891 -0.0480656 -6.10726)
(3.9811 -0.0246833 -5.96413)
(4.47888 -0.129248 -6.45126)
(4.05566 0.0790427 -6.25231)
(6.15401 -0.0317894 -7.82733)
(6.17696 -0.0536698 -7.82145)
(6.15612 -0.116608 -7.79827)
(6.36055 -0.273951 -7.76085)
(7.55237 -0.130871 -8.4007)
(6.27134 0.262194 -7.74215)
(5.33061 -0.0411194 -6.2162)
(5.33083 -0.0379893 -6.24334)
(5.24002 -0.239377 -6.28691)
(5.63401 -0.692999 -6.08529)
(6.4276 0.134812 -5.44969)
(5.40851 0.646761 -6.27209)
(2.21164 -0.0298191 -1.19864)
(2.22965 0.0725868 -1.36871)
(2.22342 -0.170711 -1.82985)
(2.21706 -0.636601 -0.720115)
(1.26204 0.82774 7.65577)
(2.31113 0.599002 -2.06486)
(-0.339237 -0.00765254 8.12854)
(-0.336408 -0.00665619 8.14181)
(-0.33508 -0.00237396 8.13271)
(-0.334454 -0.024625 8.1439)
(-0.329663 0.0209662 8.1795)
(-0.337885 0.0412812 8.09983)
(-1.90175 -0.0178691 9.45326)
(-1.87452 -0.0169875 9.47277)
(-1.90203 -0.00815968 9.46428)
(-1.85472 -0.0406252 9.48551)
(-1.77093 0.0336488 9.51611)
(-1.95898 0.0724608 9.41571)
(-3.54036 -0.0138503 8.72052)
(-3.45338 -0.0370672 8.71007)
(-3.53572 -0.0322149 8.77464)
(-3.37958 -0.0133431 8.72952)
(-3.18185 -0.0726974 8.68192)
(-3.73825 -0.0528406 8.85261)
(-4.3094 -0.00184662 4.20275)
(-4.22997 -0.0337833 4.14974)
(-4.24853 -0.0352549 4.26758)
(-4.11675 -0.00412102 4.14714)
(-3.97956 -0.134331 4.08657)
(-4.32188 -0.124412 4.47955)
(-3.85891 0.0162795 0.116191)
(-3.7926 -0.00149868 0.0870867)
(-3.81982 -0.0108583 0.148428)
(-3.68123 0.0213566 0.083336)
(-3.58283 -0.0900503 0.0935773)
(-3.84038 -0.0937236 0.256879)
(-1.66731 0.0192045 -2.16819)
(-1.62384 0.0188779 -2.18736)
(-1.64449 0.0254593 -2.1678)
(-1.55045 0.0574952 -2.17252)
(-1.52642 -0.0314022 -2.10631)
(-1.65508 -0.0576433 -2.15374)
(-0.629213 0.00966019 -2.81913)
(-0.598077 0.00687339 -2.82755)
(-0.585851 0.00540575 -2.81056)
(-0.524731 0.0015417 -2.77285)
(-0.487276 -0.0101365 -2.63766)
(-0.528989 -0.00246515 -2.80576)
(-0.737401 -0.0155371 -2.81322)
(-0.729986 -0.0458674 -2.8024)
(-0.715767 -0.0968538 -2.78142)
(-0.709892 -0.184947 -2.73639)
(-0.75715 -0.00340207 -2.62623)
(-0.674811 0.116353 -2.75279)
(-1.17757 -0.00421967 -1.73334)
(-1.1197 -0.0142978 -1.837)
(-1.1683 -0.0349519 -1.91936)
(-1.04031 -0.100017 -2.04393)
(-0.130998 0.0180726 -2.1348)
(-1.08853 0.0649837 -2.22064)
(3.57187 -0.0132983 -6.03955)
(3.62931 -0.0539287 -6.03714)
(3.71364 -0.0634968 -6.05581)
(3.66719 -0.15215 -5.89907)
(4.08615 -0.0305369 -4.34777)
(3.8442 0.092126 -6.02546)
(4.66329 -0.0205299 -6.56778)
(4.6942 -0.0579626 -6.55253)
(4.74586 -0.136016 -6.53571)
(4.84525 -0.374005 -6.32714)
(5.46925 -0.031098 -5.87849)
(4.91342 0.300737 -6.39993)
(3.16416 -0.0235047 -3.61034)
(3.17947 -0.0730181 -3.61063)
(3.19767 -0.267883 -3.62606)
(3.18616 -0.797016 -3.3692)
(3.4699 0.00719327 -3.0445)
(3.25794 0.667022 -3.49897)
(-0.261676 8.07237e-06 1.23598)
(-0.261737 -3.26866e-06 1.23553)
(-0.26173 -3.35767e-05 1.23562)
(-0.261745 -2.25837e-05 1.23562)
(-0.261761 -4.65598e-05 1.23552)
(-0.261713 -4.13717e-05 1.236)
(-0.194964 3.5383e-05 2.61618)
(-0.194992 2.18337e-05 2.61604)
(-0.194989 -2.31501e-05 2.61607)
(-0.195 -1.61602e-05 2.61607)
(-0.195009 -5.41899e-05 2.61606)
(-0.194998 -5.66014e-05 2.6162)
(0.00545645 6.12186e-06 2.45709)
(0.00545901 1.99596e-06 2.45696)
(0.00545833 -1.04663e-05 2.45699)
(0.00545474 -6.38889e-06 2.457)
(0.00545315 -1.58642e-05 2.45698)
(0.005445 -1.59664e-05 2.4571)
(-1.0607 -8.72776e-05 1.9105)
(-1.06103 -6.97572e-05 1.9101)
(-1.06095 -3.99486e-05 1.9102)
(-1.06098 -7.97847e-05 1.91022)
(-1.06104 -5.55119e-05 1.91013)
(-1.06089 -2.37235e-05 1.91053)
(-0.539969 -6.87303e-05 2.8829)
(-0.540079 -5.75582e-05 2.88276)
(-0.540048 -3.2007e-05 2.88279)
(-0.540077 -7.46195e-05 2.8828)
(-0.540102 -5.40369e-05 2.88278)
(-0.540061 -2.29471e-05 2.88293)
(0.0423414 -1.15906e-05 2.62007)
(0.0423466 -1.34118e-05 2.61997)
(0.0423505 -1.74551e-05 2.61998)
(0.0423386 -2.47037e-05 2.61999)
(0.042336 -2.27771e-05 2.61997)
(0.0423117 -1.41362e-05 2.62008)
(-1.5152 0.000107727 4.16481)
(-1.51641 0.000112243 4.16449)
(-1.51604 -9.74601e-05 4.16448)
(-1.51603 -2.62297e-05 4.16472)
(-1.51632 -4.91594e-05 4.16452)
(-1.51589 -0.000130178 4.16474)
(-0.485529 -0.000171191 3.53462)
(-0.486387 -0.000104898 3.53445)
(-0.486099 -1.21846e-05 3.53449)
(-0.486163 -0.000114207 3.53459)
(-0.486383 -2.1948e-05 3.53452)
(-0.486087 1.75971e-05 3.53474)
(0.211877 -7.08924e-05 2.88058)
(0.211754 -4.93305e-05 2.88057)
(0.211827 -1.38099e-05 2.88056)
(0.211791 -6.00248e-05 2.88058)
(0.211755 -1.90593e-05 2.88058)
(0.211764 4.78703e-06 2.88068)
(0.766856 0.000522588 7.72765)
(0.767518 0.000404087 7.73155)
(0.767544 -0.000185247 7.72947)
(0.76675 0.000135695 7.72922)
(0.767145 -6.46658e-06 7.73031)
(0.766324 -0.000227747 7.72856)
(1.46261 0.000322166 5.665)
(1.46075 0.000262216 5.66581)
(1.46148 -0.00021126 5.66519)
(1.46158 -4.07799e-06 5.66575)
(1.46095 -2.08793e-05 5.66573)
(1.4615 -0.000198555 5.66565)
(0.701424 -0.000106178 2.56804)
(0.700708 -2.04566e-05 2.56829)
(0.701035 1.29374e-05 2.56815)
(0.701042 -9.07618e-05 2.56841)
(0.700832 3.19697e-05 2.56842)
(0.701088 4.34518e-05 2.56854)
(-1.87316 -0.000623532 4.04648)
(-1.86755 -0.000385801 4.05483)
(-1.86918 0.000105624 4.05146)
(-1.87197 -0.000434875 4.04945)
(-1.87013 -1.10745e-05 4.05258)
(-1.87263 0.00029613 4.04927)
(4.18165 -0.000260757 6.8338)
(4.18546 -0.000111075 6.84179)
(4.18439 5.88817e-05 6.8382)
(4.18272 -0.000401173 6.83684)
(4.18399 -0.000258447 6.83947)
(4.1819 9.63174e-06 6.8366)
(2.92465 -0.000133432 3.34469)
(2.92476 -4.47508e-05 3.34746)
(2.92474 0.000122617 3.34592)
(2.92468 -3.74332e-05 3.34632)
(2.92453 -7.67868e-05 3.34669)
(2.92463 -5.49969e-05 3.34649)
(-3.94417 0.000708361 0.0705891)
(-3.94101 0.000343284 0.0667687)
(-3.94228 -0.000208902 0.0685608)
(-3.94322 2.38835e-05 0.0678607)
(-3.94283 -0.000318913 0.0666323)
(-3.94547 -0.000272843 0.0695984)
(2.50447 0.000757973 4.02054)
(2.50798 0.000460242 4.02797)
(2.50703 -0.000260391 4.02491)
(2.50497 -2.33649e-06 4.02247)
(2.50604 -0.000362551 4.02533)
(2.50333 -0.000372714 4.02205)
(4.59989 0.000221754 3.85545)
(4.60245 8.92461e-05 3.8613)
(4.60149 -0.000101387 3.85854)
(4.60065 5.02683e-05 3.85755)
(4.60173 -0.000272581 3.8599)
(4.59962 -0.000359622 3.85756)
(-9.02689 0.0015239 -3.00591)
(-9.02084 0.000493286 -3.02361)
(-9.02315 -0.000928176 -3.0161)
(-9.02484 0.000242567 -3.01468)
(-9.0243 -0.000779763 -3.02101)
(-9.0254 -0.00113805 -3.01016)
(-0.693062 0.00235368 -0.037762)
(-0.687412 0.00131152 -0.0292667)
(-0.689253 -0.000926949 -0.0328492)
(-0.691197 0.000731313 -0.0352279)
(-0.690367 -0.000530495 -0.032443)
(-0.694206 -0.00124693 -0.0388462)
(3.81644 0.000445846 1.38702)
(3.81938 0.000122792 1.39488)
(3.8182 -0.000233304 1.39115)
(3.81736 0.000163107 1.38952)
(3.81846 -0.0002126 1.39272)
(3.81513 -0.000360663 1.3872)
(-7.82486 0.00142146 -7.73528)
(-7.82444 0.000263797 -7.74392)
(-7.82445 -0.0010018 -7.7407)
(-7.82458 0.000425912 -7.73878)
(-7.82522 -0.00145743 -7.74252)
(-7.82378 -0.00181166 -7.73769)
(-1.02943 0.00141008 -4.72295)
(-1.02991 0.000586953 -4.71618)
(-1.02927 -0.000611788 -4.7192)
(-1.03003 0.000615402 -4.72081)
(-1.03047 -0.000291944 -4.71882)
(-1.02993 -0.000763508 -4.72509)
(1.88703 -0.000273745 -3.38081)
(1.8901 -0.000213035 -3.37495)
(1.88847 0.000401973 -3.37807)
(1.88792 0.000281043 -3.37908)
(1.88874 0.000532216 -3.37728)
(1.88531 0.000552106 -3.38226)
(-8.71833 0.0013229 -6.13382)
(-8.72161 0.000388513 -6.1327)
(-8.72081 -0.000316279 -6.13293)
(-8.71854 0.00117007 -6.13417)
(-8.71888 -0.00127804 -6.13558)
(-8.72071 -0.00181374 -6.13321)
(-1.41151 0.000329065 -5.63208)
(-1.41148 0.000142538 -5.6293)
(-1.4113 0.000136565 -5.63056)
(-1.41166 0.000435165 -5.63111)
(-1.41179 -0.000301604 -5.63044)
(-1.41269 -0.000431361 -5.63259)
(0.579329 -0.000452669 -4.87412)
(0.580666 -0.000188838 -4.87221)
(0.579992 0.000472309 -4.87322)
(0.579839 0.000173611 -4.87353)
(0.579935 0.000528992 -4.8734)
(0.57874 0.000556733 -4.8744)
(-10.8768 0.00117377 -1.23064)
(-10.8827 0.000402342 -1.22626)
(-10.8811 -0.000291384 -1.22743)
(-10.8773 0.000640778 -1.23006)
(-10.8765 -0.000859859 -1.23204)
(-10.8827 -0.000987976 -1.22523)
(-1.28944 -0.000222411 -4.44483)
(-1.28882 -0.000197889 -4.44443)
(-1.28897 0.000463238 -4.44482)
(-1.2894 0.000571056 -4.44499)
(-1.28927 -0.000573233 -4.44525)
(-1.29045 -0.000731385 -4.44435)
(0.127507 -0.000195819 -3.51268)
(0.127612 -1.67135e-05 -3.51179)
(0.127506 0.000220516 -3.51211)
(0.127529 2.50165e-05 -3.5125)
(0.127469 0.000184417 -3.51274)
(0.127014 0.000201169 -3.51218)
(-10.0371 0.001147 2.77867)
(-10.0445 0.000499005 2.78042)
(-10.0424 -0.000475684 2.77957)
(-10.0383 -0.000676749 2.77853)
(-10.0365 0.000195013 2.77569)
(-10.0449 0.00108289 2.78269)
(0.0199402 -2.52457e-06 -1.04035)
(0.0188005 -0.000104318 -1.04157)
(0.0191878 0.000314443 -1.04128)
(0.0199868 0.000838527 -1.04254)
(0.0213682 -0.000580311 -1.04502)
(0.0171895 -0.00105609 -1.0384)
(0.843324 2.06921e-05 -1.73498)
(0.843303 0.000113429 -1.7343)
(0.843358 9.24995e-05 -1.73464)
(0.843258 -0.000104206 -1.73508)
(0.843143 0.00016184 -1.73511)
(0.843309 0.000283048 -1.73445)
(-4.87773 -0.000292973 -0.372144)
(-4.87781 -0.000360114 -0.373414)
(-4.87841 -0.000576428 -0.372635)
(-4.87577 -0.00175678 -0.373285)
(-4.87274 0.00138856 -0.376459)
(-4.88155 0.00266629 -0.369366)
(1.57367 0.000559842 -7.41572)
(1.57376 0.000226057 -7.42009)
(1.57285 -3.54445e-05 -7.41932)
(1.57427 0.00114621 -7.42028)
(1.57472 -0.0011478 -7.42468)
(1.57222 -0.00184938 -7.41556)
(0.874107 0.000289064 -2.09048)
(0.873061 0.000444754 -2.09177)
(0.873775 0.000321052 -2.09113)
(0.872788 0.000789855 -2.09094)
(0.870732 -0.000587148 -2.09207)
(0.875776 -0.00126062 -2.08978)
(2.37105 -0.00128508 -0.111316)
(2.3707 -0.00182183 -0.113605)
(2.37238 -0.00260971 -0.116365)
(2.35704 -0.0105938 -0.130615)
(2.35267 0.00219774 -0.168387)
(2.36643 0.0110562 -0.130175)
(2.13294 -0.00968156 -2.1442)
(2.11503 -0.0184891 -2.14637)
(2.11316 0.00788495 -2.12866)
(2.09457 0.0143474 -2.12838)
(2.07916 -0.0541772 -2.08911)
(2.06647 -0.0443829 -2.08026)
(1.10437 -0.00506068 -1.97158)
(1.09339 -0.0100831 -1.97991)
(1.08881 -0.011282 -1.97169)
(1.08013 -0.0138155 -1.9619)
(1.06184 -0.0107765 -1.98567)
(1.07213 -0.0035886 -1.93972)
(1.6648 -0.000146515 -0.421369)
(1.66565 -0.000471922 -0.42243)
(1.66553 7.66821e-05 -0.422794)
(1.66451 -9.64928e-06 -0.417306)
(1.66287 0.000526327 -0.410136)
(1.66712 0.00116475 -0.425033)
(1.10268 -0.00434718 -0.897464)
(1.12494 -0.00723894 -0.90732)
(1.13281 -0.00455893 -0.911318)
(1.0665 -0.00878295 -0.88103)
(1.04888 -0.0162778 -0.886172)
(1.2067 -0.000855639 -0.920635)
(0.127459 -0.00292217 -1.99516)
(0.12461 -0.00472004 -2.01167)
(0.119725 -0.00636532 -2.01283)
(0.124666 -0.00829302 -1.95936)
(0.124592 -0.00276213 -1.9503)
(0.104637 0.000242256 -2.04199)
(1.10783 -0.000316544 0.0159023)
(1.10731 -0.000612277 0.0150717)
(1.10782 -0.000130651 0.0148015)
(1.10629 -0.000923465 0.0167932)
(1.10578 0.0004735 0.019816)
(1.10771 0.00168364 0.0118637)
(1.06915 -0.000715971 -1.8)
(1.05936 -0.00148414 -1.8013)
(1.05837 -0.0068346 -1.79987)
(1.06491 -0.0177786 -1.809)
(1.05846 0.0174499 -1.81907)
(1.0397 0.0324911 -1.78796)
(-0.169418 -0.000799249 -2.05701)
(-0.170776 -0.0014212 -2.05749)
(-0.172372 -0.00150766 -2.05582)
(-0.172609 -0.00240526 -2.06346)
(-0.173178 0.000285195 -2.08557)
(-0.17713 0.00169913 -2.02189)
(0.398404 -0.000341461 0.233032)
(0.398508 -0.000984541 0.232074)
(0.399047 0.0013527 0.231692)
(0.397283 0.00234133 0.234045)
(0.396878 -0.0027617 0.237099)
(0.399598 -0.00291149 0.228743)
(0.454639 -0.00361373 -1.97191)
(0.456766 -0.00300168 -1.9747)
(0.456937 -0.00296584 -1.97957)
(0.449979 -0.0153389 -1.96439)
(0.443843 0.00995415 -1.96274)
(0.466151 0.0257317 -1.98095)
(-0.47615 -0.000752343 -2.50194)
(-0.476251 -0.000510512 -2.50535)
(-0.477788 -0.00234014 -2.49514)
(-0.475136 -0.00550563 -2.52044)
(-0.472706 0.00492127 -2.54826)
(-0.481937 0.00750886 -2.46439)
(-0.345314 -0.000660467 0.377997)
(-0.345292 -0.00087864 0.376955)
(-0.345623 -0.000143554 0.376973)
(-0.343554 -0.00083797 0.378036)
(-0.341682 0.000273568 0.379576)
(-0.347107 0.00129745 0.375582)
(-0.133246 -0.00160792 -2.66536)
(-0.134251 -0.00118435 -2.66722)
(-0.134737 -0.00177118 -2.66876)
(-0.135424 -0.0110704 -2.66857)
(-0.138831 0.00926546 -2.67246)
(-0.133932 0.0216635 -2.66368)
(-1.08002 -0.000678248 -2.60509)
(-1.0791 -0.000118129 -2.60972)
(-1.08162 -0.000823031 -2.60086)
(-1.07839 -0.00327824 -2.61884)
(-1.07333 0.0028934 -2.64145)
(-1.08686 0.00412844 -2.57948)
(-1.58464 -0.000551153 0.593577)
(-1.5848 -0.000693655 0.592395)
(-1.58485 -0.000386383 0.592825)
(-1.584 -0.0013689 0.592934)
(-1.58309 0.000803653 0.5922)
(-1.58561 0.00197053 0.593658)
(-0.984047 -0.000646818 -6.11907)
(-0.9838 -0.000530106 -6.11946)
(-0.985345 -0.000328039 -6.12049)
(-0.983209 -0.00325393 -6.12226)
(-0.983114 0.00277983 -6.12323)
(-0.98645 0.00673847 -6.11876)
(-0.946009 6.6709e-06 -1.7228)
(-0.945867 0.000223121 -1.72632)
(-0.94656 0.000366844 -1.7224)
(-0.946325 0.000564226 -1.72788)
(-0.945954 -0.000361712 -1.73891)
(-0.947555 -0.0013373 -1.71176)
(-0.521698 -0.0017732 6.87892)
(-0.520946 -0.00318494 6.8835)
(-0.5204 -0.00245916 6.88324)
(-0.520614 -0.00630884 6.88585)
(-0.519198 0.00227575 6.89774)
(-0.520705 0.00737928 6.87628)
(-0.378774 -0.00047799 5.79548)
(-0.378675 -0.00135678 5.79679)
(-0.378663 -0.00139366 5.79775)
(-0.378662 -0.00160313 5.7982)
(-0.378294 -0.00039311 5.80073)
(-0.378745 0.000722482 5.79751)
(-0.137881 -0.000147648 5.19894)
(-0.137889 -0.000411067 5.19952)
(-0.137895 -0.000496807 5.19996)
(-0.137851 -0.000449497 5.20022)
(-0.137843 -0.000157708 5.20071)
(-0.137968 6.85918e-05 5.20002)
(-1.9362 -0.00514962 7.38419)
(-1.93759 -0.00564166 7.39398)
(-1.93284 -0.00424587 7.38836)
(-1.9326 -0.0174805 7.39997)
(-1.93336 0.0125102 7.42396)
(-1.91979 0.0260021 7.36336)
(-1.27779 -0.000723935 5.85523)
(-1.27908 -0.00169644 5.85766)
(-1.27626 -0.00174841 5.85725)
(-1.27862 -0.00351636 5.85878)
(-1.28274 0.000665517 5.86534)
(-1.26853 0.00303061 5.85281)
(-0.488685 -6.79172e-05 5.063)
(-0.488732 -0.000469845 5.06349)
(-0.488465 -0.000571987 5.06397)
(-0.48863 -0.000249279 5.06369)
(-0.489049 -0.00043728 5.06423)
(-0.487792 -0.000377247 5.064)
(-3.99064 -0.00590523 6.35985)
(-3.98567 -0.0121184 6.36745)
(-3.99576 -0.0114127 6.37292)