/*--------------------------------*- C++ -*----------------------------------*\
| =========                 |                                                 |
| \\      /  F ield         | OpenFOAM: The Open Source CFD Toolbox           |
|  \\    /   O peration     | Version:  v1612+                                |
|   \\  /    A nd           | Web:      www.OpenFOAM.com                      |
|    \\/     M anipulation  |                                                 |
\*---------------------------------------------------------------------------*/
FoamFile
{
    version     2.0;
    format      ascii;
    class       surfaceScalarField;
    location    "0.2";
    object      alphaPhi;
}
// * * * * * * * * * * * * * * * * * * * * * * * * * * * * * * * * * * * * * //

dimensions      [0 3 -1 0 0 0 0];

internalField   nonuniform List<scalar> 
816
(
1.02113e-07
-1.37985e-07
2.31292e-08
-5.55855e-08
8.56043e-08
-1.03473e-08
-1.43343e-07
7.4912e-08
1.45415e-07
1.39149e-07
-6.96161e-08
-6.95941e-08
4.03153e-09
3.49706e-07
3.82889e-07
-7.95335e-07
9.80877e-08
1.75989e-07
4.01004e-07
-9.42791e-07
-2.48545e-12
1.48583e-12
1.82601e-06
4.9119e-12
-2.72771e-12
1.55082e-11
1.48009e-06
1.83607e-11
-1.1404e-12
-1.30089e-12
-3.91886e-06
2.00114e-12
8.11055e-13
-2.81949e-11
-8.14947e-07
6.60094e-13
-1.78857e-12
2.69093e-11
1.34673e-06
3.46122e-11
-1.05159e-11
-3.12067e-12
-2.95265e-06
1.62538e-12
3.62027e-12
-3.09021e-11
1.3895e-07
1.74572e-12
-1.30404e-11
3.43261e-11
1.72604e-06
2.70946e-12
2.72742e-12
-1.67734e-12
-5.11277e-06
-9.58741e-12
2.53186e-12
-1.2337e-11
-2.23444e-06
2.30965e-12
-5.70751e-11
2.20109e-11
1.7822e-06
2.21497e-11
1.23374e-11
-4.03012e-06
1.39771e-12
3.65541e-13
1.94592e-09
2.79467e-06
1.753e-06
2.05878e-06
4.91519e-07
2.44268e-06
1.366e-06
1.93109e-06
1.54338e-07
-1.02019e-06
-5.36358e-07
4.62757e-08
3.49237e-07
-1.65415e-06
-2.71323e-07
4.06405e-08
-4.13841e-07
2.13302e-06
1.66964e-06
2.49541e-06
-2.00418e-07
-1.45953e-06
-6.42362e-07
3.37695e-07
7.32547e-07
-5.62683e-07
7.15171e-07
1.25494e-06
-8.7636e-07
2.05852e-06
1.02767e-06
6.94513e-07
1.16623e-07
-8.63456e-07
-5.13391e-07
-9.76789e-07
3.51334e-07
-1.48696e-06
-2.948e-07
2.68073e-07
-1.65563e-06
2.28696e-06
1.75791e-06
2.11971e-06
1.03623e-06
-7.75958e-07
8.43356e-07
7.51643e-07
1.14823e-08
5.01828e-07
7.46959e-07
4.76079e-07
3.86903e-07
5.53288e-07
4.31221e-07
-1.70742e-07
-1.88205e-07
1.24586e-07
7.12522e-08
-2.6919e-07
-7.99451e-08
4.29389e-08
3.39208e-07
7.14828e-07
4.33499e-07
-2.85104e-07
-2.12311e-07
5.86879e-08
1.20728e-07
-1.24703e-07
4.88694e-07
2.4109e-07
3.37613e-07
4.70712e-07
1.03482e-07
-1.10933e-07
-1.32516e-07
-1.0939e-07
1.73186e-07
-1.49023e-07
-5.49238e-08
1.23944e-07
4.236e-07
7.14292e-07
3.88241e-07
-3.05351e-07
2.45028e-07
2.06804e-07
4.57341e-08
-5.85282e-08
2.68417e-08
-1.35517e-08
5.51355e-08
-6.72228e-08
5.215e-08
8.54136e-08
6.61681e-08
-3.36257e-08
1.44176e-08
1.47722e-07
1.33499e-07
4.58367e-08
6.29529e-08
1.37217e-07
5.02259e-09
2.61102e-07
2.61058e-07
2.0003e-07
1.77339e-07
2.31813e-07
1.48441e-07
-8.44432e-08
7.2472e-08
1.95599e-08
-2.668e-08
-1.19643e-07
1.84622e-08
-1.15525e-09
1.88567e-07
2.20924e-07
1.985e-07
-1.93254e-07
4.47022e-08
7.97328e-08
-1.02266e-08
-4.52431e-08
1.65225e-07
1.60153e-07
1.47997e-07
8.81481e-08
1.37029e-07
-5.41411e-08
-1.64581e-08
7.09245e-08
-1.44037e-09
-4.84754e-08
4.8435e-08
1.26295e-08
2.43735e-07
1.97637e-07
1.90229e-07
1.33364e-07
1.0839e-07
-5.25306e-08
3.81404e-13
-4.74597e-13
-1.11286e-06
2.53123e-14
4.85548e-13
-2.32396e-06
4.25635e-13
8.40734e-13
-2.91682e-06
6.16194e-13
1.99322e-13
-1.65095e-06
3.34335e-13
-3.01003e-13
-1.79874e-06
8.68634e-14
-6.04975e-13
-3.28255e-13
-1.82354e-06
-4.62644e-13
-9.43079e-13
-5.93743e-07
-4.82204e-13
9.90429e-13
-2.67932e-06
1.23443e-12
9.48217e-13
-1.46532e-06
-1.14736e-11
-6.13902e-13
-0.000114427
6.76707e-12
4.94271e-12
-4.58063e-12
-4.14561e-07
-3.49554e-12
-4.79122e-11
-2.46967e-06
-1.28791e-12
1.85576e-11
6.60863e-07
1.00038e-11
3.80563e-11
4.45379e-07
2.0468e-11
-1.1952e-13
-3.07688e-06
3.19762e-13
5.67968e-13
-5.25236e-13
-3.07458e-06
6.30147e-13
-5.52766e-13
-2.60091e-06
1.01308e-12
-2.09988e-13
-2.83834e-06
8.43226e-13
-1.62207e-13
-1.93831e-06
-1.71051e-12
-6.18735e-07
-1.20724e-12
-2.53262e-12
-3.80455e-08
-9.03458e-08
-4.42025e-07
-1.17235e-07
4.50867e-08
-4.5082e-07
8.75284e-07
-1.73573e-07
-5.32483e-07
5.92715e-07
-4.62379e-07
-4.8962e-07
-3.01898e-07
2.30247e-07
-1.79479e-07
-9.56189e-07
-6.06773e-07
1.60075e-07
-2.84504e-07
-6.55322e-07
2.94297e-07
-2.1046e-07
-4.23162e-07
-1.31617e-07
-5.64138e-07
7.15392e-07
-9.24635e-07
-5.03415e-07
-1.32293e-06
9.08012e-07
2.25951e-07
-2.7734e-07
-4.19039e-07
-6.96255e-08
-5.4004e-07
-6.91157e-07
-1.20064e-06
-6.16126e-07
-1.80279e-07
-4.44487e-08
2.44384e-07
3.50991e-07
5.74148e-07
9.64785e-08
-2.68443e-07
1.37949e-07
-2.33484e-07
-2.79553e-07
-2.88402e-07
1.43581e-07
-3.11457e-07
-3.80312e-07
4.16956e-07
-2.19776e-07
-4.40271e-07
2.52117e-07
-5.31164e-07
6.32374e-07
4.95977e-09
-6.22045e-07
-4.93648e-07
-5.10193e-07
-3.58375e-08
-3.98516e-07
-3.65287e-08
-1.16619e-08
-1.9968e-07
4.3336e-08
-1.67036e-08
-1.98158e-07
1.97405e-07
-3.82447e-08
-2.31897e-07
1.51043e-07
-1.50688e-07
-2.32239e-07
-1.62142e-08
2.80709e-08
-6.36196e-08
-1.56547e-07
-1.2421e-07
2.91288e-08
-9.60085e-08
-7.48902e-08
2.45407e-08
-7.00978e-08
-7.97733e-08
-3.7791e-08
-2.05077e-07
7.17482e-08
-1.50775e-07
-1.259e-07
-2.20242e-07
1.66684e-07
1.14729e-07
-1.11434e-07
-1.0455e-07
-5.47339e-08
-1.4995e-07
-1.27187e-07
-2.46436e-07
-1.83036e-07
-6.66762e-08
2.1609e-08
1.507e-07
1.73408e-08
1.26126e-07
1.10985e-09
-4.76887e-08
5.34284e-08
-7.75217e-08
-5.75234e-08
-4.87541e-08
5.35293e-08
-1.30297e-07
-2.92713e-08
1.12951e-07
-9.97137e-08
-7.02319e-08
9.78369e-08
-2.45547e-07
6.86339e-08
7.63189e-08
-2.85482e-07
-7.63994e-08
-2.51003e-07
-3.45655e-08
-1.5443e-07
-2.21737e-08
-9.87552e-09
-6.57424e-08
2.76479e-08
-1.45265e-08
-5.83463e-08
1.0242e-07
-3.49106e-08
-6.19166e-08
7.86913e-08
-1.04237e-07
-7.20498e-08
-1.15334e-08
7.61667e-09
-7.1292e-09
-4.67132e-08
-7.82197e-08
2.20233e-08
-5.84995e-09
-5.44113e-08
2.84338e-08
-1.54657e-10
-4.48829e-08
1.29045e-08
-1.28443e-08
4.19982e-08
-4.03637e-08
4.09334e-09
-8.79635e-08
5.12625e-08
4.5584e-08
-4.04683e-08
-4.99211e-08
-5.5061e-08
-2.29966e-08
-5.86559e-08
-1.07297e-07
-1.49405e-08
-7.54597e-10
-5.38624e-09
5.49954e-08
1.11026e-08
8.17932e-09
-6.72349e-09
-7.32513e-08
2.95911e-08
-2.61033e-08
-3.29437e-08
-3.65651e-08
3.89114e-08
-3.90475e-08
-1.2214e-08
8.28377e-08
-2.74563e-08
-5.00458e-08
8.4393e-08
-5.70418e-08
2.6088e-08
5.32995e-08
-8.65766e-08
-4.71037e-08
-8.73826e-08
-1.65149e-08
-1.02242e-07
1.60154e-08
-3.72748e-08
2.14044e-08
-1.11258e-08
-2.9759e-08
2.82155e-08
3.17139e-08
4.97324e-09
-1.41057e-09
3.25644e-08
2.9673e-08
2.56839e-08
-1.07008e-09
7.65897e-08
1.07377e-07
4.48753e-08
9.12137e-08
-2.41641e-08
3.7505e-08
-4.32827e-09
-3.13336e-08
-1.12161e-09
6.5002e-08
6.8271e-08
-7.71279e-08
2.37089e-08
3.9325e-08
-3.31414e-08
5.46256e-08
2.38954e-08
1.86172e-08
-7.62764e-09
-9.46158e-09
9.37435e-09
3.96901e-09
1.0596e-08
1.03872e-07
5.71737e-08
7.46315e-08
4.31118e-08
-6.56703e-09
-1.02601e-08
1.89771e-08
-1.57862e-08
4.74849e-08
-2.50667e-08
3.33677e-08
-6.38543e-08
-3.20982e-09
4.17891e-09
-1.34499e-08
-3.92548e-08
1.54277e-08
-2.52107e-08
1.97535e-08
-1.93752e-08
2.27363e-08
6.58979e-09
-1.72707e-09
-2.61686e-08
1.18154e-08
-2.00386e-08
-2.61169e-08
-5.22971e-08
-2.5688e-08
-6.12428e-08
-9.30333e-09
-2.19362e-08
-1.21973e-08
-1.2076e-08
-3.60151e-08
2.34224e-08
-2.1928e-08
-1.80708e-08
3.35631e-08
-3.3214e-09
4.51914e-08
-1.37609e-08
5.79281e-08
6.29995e-09
3.73805e-08
-2.15611e-08
3.11167e-10
-5.18897e-08
2.96965e-12
-7.28898e-11
-2.49876e-06
6.47361e-13
-8.55974e-07
3.82342e-13
-1.43671e-06
3.27333e-13
-1.41897e-06
9.1578e-14
-1.01121e-06
-2.76556e-14
2.04568e-07
-8.27162e-13
-2.47542e-06
-6.71917e-13
-2.99876e-06
-5.2839e-13
-3.57834e-06
-5.31577e-13
-3.77489e-06
1.01554e-12
-4.41651e-06
3.71364e-11
-0.000122288
2.15086e-15
-1.6776e-06
2.46311e-14
-3.01728e-06
-2.09399e-11
-1.86793e-06
-1.22968e-11
-7.88618e-05
-2.57662e-11
8.61152e-07
3.04085e-11
-2.26938e-06
2.97496e-11
-5.46476e-05
1.16106e-13
-8.52172e-07
-4.63216e-14
-1.8368e-06
-9.58025e-14
5.94558e-07
-1.27443e-13
6.15449e-07
-9.51463e-13
6.85982e-14
-2.43435e-12
2.7377e-07
-2.34498e-12
-5.94692e-06
-6.65871e-11
-2.66199e-06
1.49276e-06
8.36307e-07
-3.10233e-06
-5.57828e-07
-1.19632e-07
-4.28816e-07
-1.98497e-07
-4.25061e-07
-3.94449e-07
-3.55949e-07
-8.82801e-07
-2.22246e-07
5.9624e-07
5.82023e-07
-3.53009e-07
-1.55509e-07
-1.43267e-07
1.5295e-07
2.06185e-07
1.74657e-07
1.79249e-07
1.34261e-07
-5.98149e-07
-2.58354e-07
-7.13319e-08
5.38911e-07
-7.00376e-08
1.98289e-07
1.69334e-07
3.80654e-07
4.31939e-07
3.73348e-07
-3.11942e-07
-7.71864e-09
-4.13817e-07
1.63925e-07
2.2547e-07
2.76009e-07
4.30148e-07
2.92634e-07
1.98782e-07
-4.02343e-08
-1.43845e-07
-7.74288e-08
-1.12977e-07
5.84797e-08
-1.04389e-08
-2.09084e-08
2.84507e-07
1.85117e-07
3.53505e-07
-1.06879e-07
-7.37922e-07
-2.43845e-07
-2.71696e-06
-2.27057e-07
1.58403e-06
1.71405e-07
-5.28821e-07
-2.35308e-07
-2.33315e-08
-1.95498e-07
-6.22832e-08
-1.94576e-07
-1.10924e-07
-1.60619e-07
-2.42221e-07
-9.10421e-08
3.23913e-08
1.6029e-07
-1.59536e-08
-7.52868e-08
-2.06921e-08
3.31103e-08
1.19197e-08
4.06948e-08
-8.337e-09
5.17502e-08
-9.84538e-08
-6.15178e-08
-5.11338e-08
2.32967e-07
-4.75743e-08
1.37282e-07
9.10421e-08
2.22365e-07
9.50117e-08
1.96544e-07
-1.34002e-07
2.86367e-08
-1.07488e-07
1.20146e-07
8.26533e-08
1.69404e-07
1.37386e-07
1.97671e-07
3.81231e-08
-5.54424e-09
7.54478e-09
-4.1928e-08
4.3466e-09
1.5102e-08
3.56954e-09
-3.45825e-08
4.99733e-08
9.24718e-08
1.16033e-07
-5.19011e-08
-9.91608e-08
-9.83088e-08
-4.09542e-07
-6.93194e-08
6.50696e-07
8.98027e-08
-2.76431e-07
-6.20931e-08
-1.30408e-08
-6.50114e-08
-4.32049e-08
-6.53138e-08
-7.11561e-08
-5.34207e-08
-1.28625e-07
-2.81294e-08
-3.49766e-09
5.27372e-08
-1.76207e-08
5.2412e-09
-4.72348e-09
2.27429e-08
1.78135e-08
3.10788e-08
3.24427e-08
5.08265e-08
-4.10534e-09
1.32769e-08
-2.64681e-09
8.26252e-08
-4.23665e-08
6.73872e-08
5.71001e-08
9.59326e-08
2.56054e-08
7.65032e-08
-7.63108e-08
2.42057e-08
-6.96554e-08
6.16754e-08
-7.52537e-09
6.80189e-08
5.45202e-08
5.16792e-08
3.1367e-08
-7.74173e-09
-8.66271e-09
-1.7167e-08
6.40327e-11
9.4592e-10
-5.2492e-09
-1.03913e-08
6.37862e-08
3.50865e-08
6.93597e-08
1.21487e-09
-4.33572e-08
-2.47982e-08
-1.97795e-07
-9.43707e-09
1.76416e-07
4.4719e-08
-1.12107e-07
-3.78474e-09
-2.55741e-08
-4.37973e-08
-7.10689e-08
-2.02434e-08
1.94781e-09
6.62636e-09
1.71148e-08
2.90259e-08
1.02008e-08
5.7308e-09
-2.35957e-08
2.40999e-08
1.62785e-09
-5.6341e-08
-5.47896e-08
-2.1842e-08
5.95485e-09
9.167e-09
4.56089e-09
1.72596e-08
1.12013e-08
3.75561e-08
4.06134e-08
-4.33542e-09
-6.31313e-08
2.78978e-12
-5.44546e-11
-1.87407e-06
-1.53912e-11
-3.15158e-06
-1.73478e-12
4.7358e-07
1.01103e-07
7.59093e-07
-3.94788e-07
-7.2858e-07
-7.7269e-07
)
;

boundaryField
{
    top_fluid_surface
    {
        type            calculated;
        value           nonuniform List<scalar> 
64
(
0
0
2.60977e-12
9.4877e-13
0
1.94451e-12
1.80703e-12
0
6.31048e-12
3.56173e-12
0
2.85554e-12
8.42441e-13
1.29493e-12
1.56125e-12
5.82604e-13
3.68931e-13
7.57392e-13
6.3084e-13
1.75501e-12
9.46371e-13
0
3.22156e-13
3.88579e-12
0
0
1.20107e-12
1.53706e-12
1.37337e-12
1.72943e-12
1.65457e-12
7.50554e-13
1.6971e-12
7.19981e-13
7.1247e-13
5.93428e-13
2.24015e-13
0
8.74411e-13
2.05372e-12
2.83951e-12
2.93002e-12
4.64949e-12
5.08889e-11
0
3.66759e-13
0
1.63062e-11
0
0
3.3347e-11
3.17476e-13
4.33521e-15
0
2.31127e-13
2.4603e-13
1.02339e-12
5.17666e-12
2.21168e-12
0
3.02277e-12
3.00532e-12
0
0
)
;
    }
    bottom_fluid_surface
    {
        type            calculated;
        value           uniform 0;
    }
    lateral_surface_1
    {
        type            calculated;
        value           uniform 0;
    }
    lateral_surface_2
    {
        type            calculated;
        value           uniform 0;
    }
    lateral_surface_3
    {
        type            calculated;
        value           uniform 0;
    }
    lateral_surface_4
    {
        type            calculated;
        value           uniform 0;
    }
}


// ************************************************************************* //
