/*--------------------------------*- C++ -*----------------------------------*\
| =========                 |                                                 |
| \\      /  F ield         | OpenFOAM: The Open Source CFD Toolbox           |
|  \\    /   O peration     | Version:  v1612+                                |
|   \\  /    A nd           | Web:      www.OpenFOAM.com                      |
|    \\/     M anipulation  |                                                 |
\*---------------------------------------------------------------------------*/
FoamFile
{
    version     2.0;
    format      ascii;
    class       volScalarField;
    location    "0.2";
    object      alpha.water;
}
// * * * * * * * * * * * * * * * * * * * * * * * * * * * * * * * * * * * * * //

dimensions      [0 0 0 0 0 0 0];

internalField   nonuniform List<scalar> 
320
(
1
1
1
1
2.20178e-07
5.58718e-07
1.06275e-07
5.76173e-08
7.42505e-07
1.17713e-07
1.67925e-07
9.01447e-07
1.38145e-07
1.20777e-07
6.94231e-07
1.48403e-07
1
0.999999
1
1
0.999999
1
1
0.999999
1
1
0.999999
1
1
1
1
1
1
1
1
1
1
1
1
1
1
1
1
1
1
1
1
1
1
1
1
1
1
1
1
1
4.35332e-08
6.48453e-08
7.91344e-08
4.95817e-08
2.33349e-08
3.91609e-08
5.3756e-08
1.07828e-07
7.60846e-08
1.1903e-06
5.86075e-08
1.35458e-07
9.41818e-07
8.15892e-07
3.07693e-08
7.32738e-08
8.11896e-08
9.75865e-08
7.45849e-08
4.35332e-08
1
1
1
1
1
1
1
1
1
0.999999
1
1
0.999999
0.999999
1
1
1
1
1
1
1
1
1
1
1
1
1
1
1
1
1
1
1
1
1
1
1
1
1
1
1
1
1
1
1
1
1
1
1
1
1
1
1
1
1
1
1
1
1
1
1
1
1
1
1
1
1
1
1
1
1
1
1
1
1
1
1
1
1
1
1
1
1
1
1
1
1
1
1
1
1
1
1
1
1
1
7.3202e-08
3.59267e-08
4.42709e-08
4.06884e-08
2.80046e-08
4.19617e-08
4.98694e-08
6.18505e-08
7.52911e-08
7.05534e-08
1.13162e-07
1.2708e-06
7.46602e-08
1.01792e-07
7.69653e-08
8.62048e-07
4.40862e-07
7.97119e-07
6.50798e-07
2.10993e-08
4.67037e-08
4.11232e-08
3.59183e-08
2.28454e-08
5.53996e-08
8.85551e-08
9.81512e-08
9.36711e-07
1
1
1
1
1
1
1
1
1
1
1
0.999999
1
1
1
0.999999
1
0.999999
0.999999
1
1
1
1
1
1
1
1
0.999999
1
1
1
1
1
1
1
1
1
1
1
1
1
1
1
1
1
1
1
1
1
1
1
1
1
1
1
1
1
1
1
1
1
1
1
1
1
1
1
1
1
1
1
1
1
1
1
1
1
1
1
1
1
1
1
1
1
1
1
1
1
1
1
1
1
1
1
1
1
1
1
1
1
1
1
1
1
1
1
1
1
1
1
1
1.309e-07
1.12572e-07
1.04406e-06
6.52052e-07
1
1
0.999999
0.999999
)
;

boundaryField
{
    top_fluid_surface
    {
        type            inletOutlet;
        inletValue      uniform 0;
        value           nonuniform List<scalar> 
64
(
0
0
1.06275e-07
5.76173e-08
0
1.17713e-07
1.67925e-07
0
1.38145e-07
1.20777e-07
0
1.48403e-07
4.35332e-08
6.48453e-08
7.91344e-08
4.95817e-08
2.33349e-08
3.91609e-08
5.3756e-08
1.07828e-07
7.60846e-08
0
5.86075e-08
1.35458e-07
0
0
3.07693e-08
7.32738e-08
8.11896e-08
9.75865e-08
7.45849e-08
4.35332e-08
7.3202e-08
3.59267e-08
4.42709e-08
4.06884e-08
2.80046e-08
0
4.98694e-08
6.18505e-08
7.52911e-08
7.05534e-08
1.13162e-07
1.2708e-06
0
1.01792e-07
0
8.62048e-07
0
0
6.50798e-07
2.10993e-08
4.67037e-08
0
3.59183e-08
2.28454e-08
5.53996e-08
8.85551e-08
9.81512e-08
0
1.309e-07
1.12572e-07
0
0
)
;
    }
    bottom_fluid_surface
    {
        type            zeroGradient;
    }
    lateral_surface_1
    {
        type            zeroGradient;
    }
    lateral_surface_2
    {
        type            zeroGradient;
    }
    lateral_surface_3
    {
        type            zeroGradient;
    }
    lateral_surface_4
    {
        type            zeroGradient;
    }
}


// ************************************************************************* //
