/*--------------------------------*- C++ -*----------------------------------*\
| =========                 |                                                 |
| \\      /  F ield         | OpenFOAM: The Open Source CFD Toolbox           |
|  \\    /   O peration     | Version:  v1612+                                |
|   \\  /    A nd           | Web:      www.OpenFOAM.com                      |
|    \\/     M anipulation  |                                                 |
\*---------------------------------------------------------------------------*/
FoamFile
{
    version     2.0;
    format      ascii;
    class       volScalarField;
    location    "7.75";
    object      p;
}
// * * * * * * * * * * * * * * * * * * * * * * * * * * * * * * * * * * * * * //

dimensions      [1 -1 -2 0 0 0 0];

internalField   nonuniform List<scalar> 
1116
(
20624.4
20618.9
20621.8
20624.9
20628.8
20625.7
20077.8
20073.2
20075.2
20079.6
20088
20076.4
18833.7
18829.4
18831.6
18842.1
18860.2
18838.3
17594.3
17594.2
17594
17597.6
17600.2
17596.2
15571.1
15571.3
15571.3
15571.8
15572
15572.5
12475.5
12470.2
12470
12473.8
12474.3
12469.6
9020.99
9020.65
9019.47
9019.92
9019.64
9025.17
6438.92
6440.23
6440.95
6435.5
6436.9
6439.9
5406.06
5409.9
5410.67
5402.08
5404.67
5405.3
5144.99
5140.31
5141.97
5142.73
5147.81
5133.08
4929.57
4921.41
4920.3
4932.33
4932.65
4925.78
5094.21
5095.89
5097.5
5099.45
5102.94
5109.62
12909.1
12897.8
12899.3
12909
12914.1
12902.3
11147.8
11143
11136.7
11150.1
11166.3
11125.9
10134.9
10119.9
10118.6
10127.7
10138.7
10110.1
8753.44
8747.05
8746.6
8751.53
8761.06
8740.82
6407.46
6408.59
6410.44
6404.28
6405.66
6408.71
3596.95
3585.56
3588.56
3590.67
3595.04
3584.65
1800.91
1795.04
1794.41
1797.79
1801.51
1793.58
978.314
983.534
980.77
976.91
973.513
974.951
773.347
779.375
775.624
775.827
768.75
788.405
895.717
902.647
901.166
897.467
891.685
902.045
1004.65
1004.98
1004.57
1008.59
1007.98
1009.22
1240.59
1228.55
1229.61
1249.13
1255.22
1232.42
5067.26
5059.51
5055.13
5068.38
5062.88
5048.28
1567.83
1583.75
1582.72
1565.13
1533.35
1584.94
1430.21
1426.27
1421.47
1428.13
1428.32
1418.98
1710.14
1707.68
1705.22
1710.65
1706.76
1705.83
1439.04
1432.36
1430.1
1437.34
1439.04
1432.54
772.764
749.241
749.027
769.032
785.492
734.667
257.209
245.421
244.403
251.971
272.799
239.448
248.169
239.846
240.081
247.776
251.202
212.176
161.831
173.55
171.165
166.449
157.418
181.403
79.4968
84.7119
83.9324
81.7404
80.2717
94.0829
177.131
177.155
177.706
178.918
180.111
178.421
127.195
122.125
124.784
129.828
136.355
127.298
546.758
534.426
541.594
540.066
510.878
547.066
-59.9223
-55.6166
-55.2218
-62.3302
-66.5784
-57.3925
-113.489
-113.464
-113.108
-112.637
-109.657
-111.413
-95.7871
-95.5059
-95.4282
-96.6802
-96.5948
-96.7069
-62.6296
-61.3323
-61.6606
-63.3696
-65.2202
-61.659
-47.9024
-46.7351
-46.8039
-46.6156
-47.6051
-45.4112
-43.7792
-44.9093
-44.2383
-42.9315
-40.6795
-41.1491
-15.7882
-16.0093
-16.2708
-16.7485
-17.5142
-19.0228
-15.7727
-15.5462
-15.6882
-15.8683
-16.5637
-16.2348
-23.2541
-23.2971
-23.1602
-22.8346
-22.4218
-21.8834
-10.5251
-10.5248
-10.656
-10.8363
-11.1553
-11.0055
-89.7651
-89.3696
-89.6165
-90.2347
-90.6424
-89.492
2452.24
2425.75
2440.62
2396.06
2382.5
2389.38
2302.73
2328.09
2307
2226.75
2193.91
2238.63
1725.24
1669.25
1638.25
1598.16
1689.42
1758.46
815.925
768.864
777.371
716.89
849.474
884.535
383.59
370.628
387.764
356.295
390.443
392.502
311.623
305.703
331.444
364.058
276.209
282.912
337.438
323.853
321.991
317.767
290.415
285.252
320.17
320.888
301.471
278.803
250.854
255.379
301.765
290.782
260.727
174.963
168.53
246.056
277.652
288.934
244.892
179.399
213.282
275.611
366.11
390.151
394.407
419.078
470.226
395.136
433.789
469.48
508.927
465.903
442.503
388.695
1611.57
1515.42
1535.19
1514.22
1432.51
1539.62
1356.64
1254.51
1302.81
1146.3
1092.23
1225.98
605.982
520.813
564.553
504.283
602.167
704.948
129.581
93.4848
108.093
130.578
188.218
230.732
-16.7199
-28.5022
-18.7102
20.3328
18.9828
19.9871
-31.1353
-34.9578
-41.9876
-36.1131
-33.166
-33.9455
-11.1512
-11.5888
-13.8788
-18.1946
-19.8592
-17.5474
4.92363
-0.00980144
-6.16443
-9.90142
-9.7931
-9.08124
19.6993
13.0058
2.02915
-0.0743643
1.50151
4.31198
36.278
34.4167
26.617
31.6607
29.7722
28.8164
40.6898
67.2628
66.3388
81.7055
62.1616
27.6395
17.4722
49.7026
67.3655
80.0559
48.8904
31.322
1120.46
1095.95
1095.67
1095.44
956.406
1001.83
779.389
700.504
868.211
673.337
475.781
572.001
217.332
112.488
150.875
110.927
94.0528
175.17
19.4979
15.1538
17.7879
15.2195
3.31686
12.7022
-8.31736
-7.76974
-10.6163
-8.14697
-11.9755
-10.7347
-11.8494
-12.2064
-15.1467
-21.0619
-14.1219
-15.3839
-8.27856
-8.63398
-9.29517
-10.485
-6.54763
-7.19403
-13.7744
-16.3693
-17.8154
-16.1903
-11.2183
-9.59341
-22.5711
-23.9129
-27.5924
-22.2163
-18.0531
-14.613
-26.5266
-25.2804
-25.2165
-7.55509
-15.745
-18.0596
-26.1649
-26.4518
-27.889
-12.3651
-33.0898
-29.6407
-71.1578
-90.8805
-80.8106
-36.3657
-49.2375
-44.1337
520.427
541.819
516.163
536.89
364.591
371.593
119.6
184.117
250.792
126.684
-18.8378
-31.3903
-33.1576
-50.1363
-40.586
-37.6512
-49.1315
-61.1697
-34.8242
-26.4688
-21.959
-25.7468
-31.97
-33.9505
-22.7094
-19.0429
-18.8743
-17.6248
-20.0749
-22.4898
-25.5754
-24.1208
-25.0127
-25.8758
-24.8262
-26.1967
-29.3197
-28.634
-28.483
-29.0233
-28.774
-28.1372
-39.3155
-40.4934
-39.6212
-36.7849
-34.1329
-31.7972
-41.5535
-44.0383
-44.7585
-38.6926
-38.0666
-32.23
-40.9163
-43.1065
-49.0806
-41.5664
-44.2092
-44.1166
-26.0538
-32.1714
-34.807
-38.9621
-36.0657
-29.3287
-49.7835
-60.0627
-66.3235
-98.4044
-111.103
-54.4699
-13.0399
-14.1033
-14.2018
-13.2928
-12.2806
-14.6963
-24.8095
-25.093
-26.1708
-24.7566
-23.4599
-26.7975
-43.8005
-42.6196
-44.0439
-43.9069
-44.4279
-46.2886
-41.6376
-42.2715
-42.5499
-42.8596
-42.6479
-43.7324
-52.4734
-51.9797
-52.0131
-54.8172
-56.3165
-53.963
-84.5204
-82.717
-83.3877
-86.1892
-89.2776
-82.9072
-62.5355
-60.8459
-60.8175
-63.7004
-65.4897
-63.7722
-63.938
-63.5498
-63.0101
-66.0931
-67.9601
-69.5096
-93.4534
-95.4215
-96.0076
-95.214
-96.7509
-98.5285
-67.4843
-67.1194
-67.0435
-66.9943
-66.9222
-66.5148
-62.9056
-63.058
-63.0231
-63.3317
-63.0012
-63.0094
-83.7313
-84.8172
-84.9977
-84.0439
-83.5791
-85.8938
-64.5435
-64.1563
-64.2111
-64.581
-64.9704
-64.419
-54.8243
-54.7796
-54.6743
-54.4857
-54.0493
-54.6169
-70.389
-70.6655
-70.6606
-70.4832
-70.1776
-70.8652
-72.7854
-71.8239
-71.7237
-72.7191
-72.5999
-71.592
-45.9528
-46.6546
-46.6657
-46.3073
-46.2964
-46.9753
-63.4061
-63.476
-63.5052
-63.4226
-63.2312
-63.4031
-52.9682
-53.1079
-52.7932
-52.668
-52.5961
-54.9883
-44.0671
-44.2621
-44.216
-44.2326
-43.9834
-44.4278
-58.7622
-58.8664
-58.9056
-58.8089
-58.7028
-58.9092
-34.7502
-34.8699
-34.9046
-34.899
-35.2238
-35.5779
-40.9057
-40.6233
-40.6651
-40.9249
-41.1963
-40.4962
-57.5198
-57.3843
-57.4267
-57.5296
-57.6231
-57.3615
-37.0469
-36.828
-37.0085
-37.1374
-37.4222
-36.8474
-49.5162
-49.4847
-49.5343
-49.4821
-49.4856
-49.3194
-60.8632
-60.8396
-60.8384
-60.8617
-60.837
-60.7992
-40.4469
-40.4254
-40.51
-40.5179
-40.7104
-40.279
-52.609
-52.7223
-52.7499
-52.608
-52.6268
-52.8309
-60.7088
-60.7001
-60.6996
-60.7043
-60.691
-60.6832
-40.5013
-40.3871
-40.5251
-40.7707
-41.0571
-40.7519
-51.8951
-51.9768
-51.9815
-51.9029
-51.9034
-52.0463
-62.9071
-62.9019
-62.9099
-62.9172
-62.9244
-62.9134
-33.032
-32.5229
-32.6253
-33.0775
-33.4668
-32.5054
-50.5714
-50.6196
-50.5684
-50.5054
-50.4284
-50.5249
-67.9263
-67.975
-67.9546
-67.9118
-67.87
-67.951
128.191
124.698
120.969
121.456
121.731
124.359
-48.3847
-48.3725
-48.1131
-47.598
-47.4213
-47.3139
-69.0483
-69.1756
-69.3824
-69.5867
-69.6534
-69.664
147.241
147.544
147.395
146.271
145.168
147.065
-50.0338
-49.9435
-49.7776
-49.654
-49.5882
-49.6247
-68.1888
-68.2183
-68.2958
-68.4392
-68.5518
-68.603
155.955
155.844
155.748
155.699
155.656
155.813
-49.2102
-49.1874
-49.1339
-49.0527
-48.996
-48.9573
-68.2731
-68.2964
-68.3483
-68.4089
-68.4575
-68.4698
153.54
153.525
153.582
153.595
153.74
153.88
-49.1994
-49.1798
-49.1482
-49.121
-49.1009
-49.0936
-68.6815
-68.6894
-68.7133
-68.7441
-68.7704
-68.7805
149.617
149.587
149.633
149.551
149.617
149.769
-48.0455
-48.0331
-48.009
-47.9729
-47.9413
-47.9347
-69.1267
-69.1327
-69.1472
-69.1675
-69.1894
-69.1905
120.005
120.245
120.004
119.462
118.936
119.739
-46.9749
-46.9548
-46.9475
-46.9461
-46.94
-46.9247
-70.705
-70.7172
-70.7245
-70.7257
-70.7338
-70.7497
-30.2929
11.7042
45.6283
99.3574
95.9427
100.903
-66.7745
-70.1118
-78.4018
-72.2203
-65.1838
-64.2777
-64.0999
-71.542
-83.0548
-87.5313
-74.452
-69.6747
-89.5684
-78.6442
-78.4494
-67.4121
-87.6652
-75.3084
-76.9806
-81.5492
-84.1948
-85.9343
-84.2576
-76.8434
-69.7184
-70.3947
-76.1827
-74.5896
-70.0796
-68.7822
-93.3322
-90.4839
-116.9
-72.3225
-66.3767
-63.9263
-72.9451
-74.6698
-80.1117
-72.4517
-70.5557
-67.7135
-66.1054
-68.7512
-67.2543
-67.5154
-67.9787
-65.5089
-49.6033
-43.6614
-40.2439
-39.5235
-40.2557
-42.6125
-53.4718
-52.8168
-53.9791
-52.3052
-52.1828
-52.3333
-64.1066
-63.8859
-64.0076
-63.2925
-63.4614
-63.7287
-34.1338
-30.5874
-30.1968
-31.3169
-34.0575
-35.6364
-50.6573
-49.5595
-49.5483
-49.8773
-50.6634
-50.9515
-63.4805
-63.4425
-63.3746
-63.2994
-63.3485
-63.3542
-31.67
-30.3022
-29.8826
-31.5296
-32.6738
-33.2353
-49.4519
-48.8766
-48.9588
-49.32
-49.7571
-49.5141
-62.8357
-62.9248
-62.8999
-62.6556
-62.5634
-62.661
-34.4571
-33.859
-32.7923
-33.8309
-33.6447
-33.3676
-52.6206
-52.5334
-52.3642
-52.4054
-52.3613
-52.0365
-63.625
-64.0073
-63.9293
-63.3884
-62.8195
-62.6547
-40.4671
-41.2745
-41.0569
-39.6957
-38.3285
-37.9038
-54.0483
-54.0798
-53.9307
-54.1634
-53.6361
-53.706
-63.5916
-63.7634
-63.7005
-63.3264
-62.932
-62.7312
-44.0914
-45.4834
-46.4395
-43.9126
-42.3515
-41.5264
-54.4647
-53.9506
-53.6455
-54.8662
-55.0261
-56.3828
-62.7021
-62.5236
-62.3259
-62.1927
-61.9226
-61.7255
-39.0722
-39.0001
-41.6128
-45.0166
-45.2522
-45.1141
-53.7778
-53.0502
-52.558
-54.8775
-56.5586
-57.5347
-61.6016
-61.374
-61.1984
-61.4101
-61.1318
-61.2221
-32.5385
-32.358
-32.8628
-41.4327
-43.6184
-39.5385
-58.1081
-58.1828
-57.0466
-56.7177
-57.0917
-56.6583
-59.8827
-60.1114
-60.3929
-61.146
-61.3574
-61.3615
-12.7146
-16.2276
-19.0644
-24.7023
-26.1861
-21.7193
-54.7263
-54.3637
-53.7419
-53.2696
-52.8799
-53.0631
-67.7085
-67.2582
-66.9926
-67.5403
-67.8332
-67.9836
)
;

boundaryField
{
    seabed_topleft_surface
    {
        type            calculated;
        value           nonuniform List<scalar> 
72
(
24110.5
24105
24107.9
24111
24114.9
24111.7
24330.3
24327
24328.1
24332.6
24341.7
24328.8
23628.2
23623.9
23626.1
23636.7
23654.7
23632.8
22388.8
22388.8
22388.6
22392.2
22394.8
22390.8
20365.7
20365.9
20365.9
20366.4
20366.6
20367
17118.5
17110.9
17111.3
17116.3
17116
17111.7
13225.9
13228.1
13227.9
13222.7
13216.4
13238.7
10323.6
10329.4
10331.8
10317.4
10315.6
10334.6
9151.64
9152.91
9155.88
9145.16
9151.91
9146.21
8878.7
8866.53
8869.74
8875.6
8887.9
8855.19
8649.4
8626.21
8625.69
8654.62
8662.4
8629.8
8741.17
8740.06
8741.84
8746.8
8752.8
8759.5
)
;
    }
    seabed_topright_surface
    {
        type            calculated;
        value           nonuniform List<scalar> 
72
(
2912.13
2885.64
2900.25
2855.7
2842.16
2849.06
2762.62
2787.98
2766.83
2686.48
2653.59
2697.72
2185.14
2129.11
2097.96
2057.88
2149.09
2217.66
1063.91
1029.13
935.398
909.291
1227.25
1245.76
664.032
589.391
501.771
377.811
501.537
452.731
604.144
583.811
577.23
524.096
380.861
481.351
630.179
616.212
613.068
607.534
536.631
532.787
612.965
613.469
588.721
552.047
499.145
503.665
575.754
583.216
536.509
323.386
316.782
510.566
445.951
581.308
523.651
319.184
352.021
562.802
530.797
632.376
671.172
646.34
698.135
682.326
622.722
657.196
787.622
749.495
729.41
675.862
)
;
    }
    breakwater_top_surface
    {
        type            calculated;
        value           nonuniform List<scalar> 
36
(
321.636
316.323
310.692
310.252
309.387
315.042
350.548
351.856
351.899
348.831
346.424
350.462
364.825
364.651
364.586
364.614
364.596
364.79
359.62
359.557
359.759
359.832
360.218
360.493
354.333
354.234
354.424
354.366
354.652
354.93
307.685
308.184
307.805
306.67
305.854
307.393
)
;
    }
    breakwater_left_surface
    {
        type            calculated;
        value           nonuniform List<scalar> 
24
(
5106.7
5108.37
5109.99
5111.94
5115.44
5122.12
1242.74
1230.7
1231.77
1251.29
1257.38
1234.59
127.726
122.589
125.253
130.367
136.934
127.755
-89.6469
-89.2587
-89.5019
-90.1145
-90.5098
-89.3754
)
;
    }
    breakwater_right_surface
    {
        type            calculated;
        value           nonuniform List<scalar> 
24
(
434.436
470.123
509.881
466.874
443.486
389.679
17.6259
49.7955
67.4315
80.1589
48.9934
31.3762
-71.0614
-90.7392
-80.6541
-36.2545
-49.1406
-44.0433
-49.5839
-59.8637
-66.1604
-98.2076
-110.906
-54.2735
)
;
    }
    water_front_surface
    {
        type            calculated;
        value           nonuniform List<scalar> 
186
(
20624.4
20077.8
18833.7
17594.3
15571.1
12475.5
9020.99
6438.92
5406.06
5144.99
4929.57
5094.21
12909.1
11147.8
10134.9
8753.44
6407.46
3596.95
1800.91
978.314
773.347
895.717
1004.65
1240.59
5067.26
1567.83
1430.21
1710.14
1439.04
772.764
257.209
248.169
161.831
79.4968
177.131
127.195
546.758
-59.9223
-113.489
-95.7871
-62.6296
-47.9024
-43.7792
-15.7882
-15.7727
-23.2541
-10.5251
-89.7651
2452.24
2302.73
1725.24
815.925
383.59
311.623
337.438
320.17
301.765
277.652
366.11
433.789
1611.57
1356.64
605.982
129.581
-16.7199
-31.1353
-11.1512
4.92363
19.6993
36.278
40.6898
17.4722
1120.46
779.389
217.332
19.4979
-8.31736
-11.8494
-8.27856
-13.7744
-22.5711
-26.5266
-26.1649
-71.1578
520.427
119.6
-33.1576
-34.8242
-22.7094
-25.5754
-29.3197
-39.3155
-41.5535
-40.9163
-26.0538
-49.7835
-13.0399
-24.8095
-43.8005
-41.6376
-52.4734
-84.5204
-62.5355
-63.938
-93.4534
-67.4843
-62.9056
-83.7313
-64.5435
-54.8243
-70.389
-72.7854
-45.9528
-63.4061
-52.9682
-44.0671
-58.7622
-34.7502
-40.9057
-57.5198
-37.0469
-49.5162
-60.8632
-40.4469
-52.609
-60.7088
-40.5013
-51.8951
-62.9071
-33.032
-50.5714
-67.9263
128.191
-48.3847
-69.0483
147.241
-50.0338
-68.1888
155.955
-49.2102
-68.2731
153.54
-49.1994
-68.6815
149.617
-48.0455
-69.1267
120.005
-46.9749
-70.705
-30.2929
-66.7745
-64.0999
-89.5684
-76.9806
-69.7184
-93.3322
-72.9451
-66.1054
-49.6033
-53.4718
-64.1066
-34.1338
-50.6573
-63.4805
-31.67
-49.4519
-62.8357
-34.4571
-52.6206
-63.625
-40.4671
-54.0483
-63.5916
-44.0914
-54.4647
-62.7021
-39.0722
-53.7778
-61.6016
-32.5385
-58.1081
-59.8827
-12.7146
-54.7263
-67.7085
)
;
    }
    water_back_surface
    {
        type            calculated;
        value           nonuniform List<scalar> 
186
(
20625.7
20076.4
18838.3
17596.2
15572.5
12469.6
9025.17
6439.9
5405.3
5133.08
4925.78
5109.62
12902.3
11125.9
10110.1
8740.82
6408.71
3584.65
1793.58
974.951
788.405
902.045
1009.22
1232.42
5048.28
1584.94
1418.98
1705.83
1432.54
734.667
239.448
212.176
181.403
94.0829
178.421
127.298
547.066
-57.3925
-111.413
-96.7069
-61.659
-45.4112
-41.1491
-19.0228
-16.2348
-21.8834
-11.0055
-89.492
2389.38
2238.63
1758.46
884.535
392.502
282.912
285.252
255.379
246.056
275.611
395.136
388.695
1539.62
1225.98
704.948
230.732
19.9871
-33.9455
-17.5474
-9.08124
4.31198
28.8164
27.6395
31.322
1001.83
572.001
175.17
12.7022
-10.7347
-15.3839
-7.19403
-9.59341
-14.613
-18.0596
-29.6407
-44.1337
371.593
-31.3903
-61.1697
-33.9505
-22.4898
-26.1967
-28.1372
-31.7972
-32.23
-44.1166
-29.3287
-54.4699
-14.6963
-26.7975
-46.2886
-43.7324
-53.963
-82.9072
-63.7722
-69.5096
-98.5285
-66.5148
-63.0094
-85.8938
-64.419
-54.6169
-70.8652
-71.592
-46.9753
-63.4031
-54.9883
-44.4278
-58.9092
-35.5779
-40.4962
-57.3615
-36.8474
-49.3194
-60.7992
-40.279
-52.8309
-60.6832
-40.7519
-52.0463
-62.9134
-32.5054
-50.5249
-67.951
124.359
-47.3139
-69.664
147.065
-49.6247
-68.603
155.813
-48.9573
-68.4698
153.88
-49.0936
-68.7805
149.769
-47.9347
-69.1905
119.739
-46.9247
-70.7497
100.903
-64.2777
-69.6747
-75.3084
-76.8434
-68.7822
-63.9263
-67.7135
-65.5089
-42.6125
-52.3333
-63.7287
-35.6364
-50.9515
-63.3542
-33.2353
-49.5141
-62.661
-33.3676
-52.0365
-62.6547
-37.9038
-53.706
-62.7312
-41.5264
-56.3828
-61.7255
-45.1141
-57.5347
-61.2221
-39.5385
-56.6583
-61.3615
-21.7193
-53.0631
-67.9836
)
;
    }
    water_left_surface
    {
        type            calculated;
        value           nonuniform List<scalar> 
42
(
20636.4
20630.9
20633.8
20636.8
20640.8
20637.6
12922.5
12911.2
12912.7
12922.4
12927.5
12915.7
5078.25
5070.45
5066.11
5079.35
5073.85
5059.28
548.552
536.163
543.362
541.832
512.64
548.863
-13.0399
-14.1033
-14.2018
-13.2928
-12.2806
-14.6963
-24.8095
-25.093
-26.1708
-24.7566
-23.4599
-26.7975
-43.8005
-42.6196
-44.0439
-43.9069
-44.4279
-46.2886
)
;
    }
    water_right_surface
    {
        type            calculated;
        value           nonuniform List<scalar> 
42
(
2453.82
2427.33
2442.19
2397.63
2384.07
2390.96
1613.11
1516.96
1536.74
1515.76
1434.05
1541.16
1121.97
1097.46
1097.19
1096.95
957.917
1003.34
521.91
543.299
517.645
538.064
365.94
373.075
-30.2929
11.7042
45.6283
99.3574
95.9427
100.903
-66.7745
-70.1118
-78.4018
-72.2203
-65.1838
-64.2777
-64.0999
-71.542
-83.0548
-87.5313
-74.452
-69.6747
)
;
    }
    water_top_surface
    {
        type            calculated;
        value           nonuniform List<scalar> 
180
(
-97.1528
-87.8874
-86.3569
-97.108
-107.422
-84.3147
-110.078
-109.486
-109.183
-109.968
-108.023
-108.106
-75.7543
-70.5973
-70.5608
-77.7018
-84.0971
-107.063
-84.2655
-82.5296
-82.4189
-85.2507
-86.7309
-78.5141
-76.2115
-76.8279
-76.6657
-76.2963
-76.0823
-76.3508
-69.2976
-69.5133
-69.4631
-69.2389
-69.1605
-69.4409
-68.67
-68.67
-68.67
-68.67
-68.6701
-68.67
-68.6739
-68.6719
-68.6718
-68.6739
-68.6756
-68.6711
-68.6767
-68.6767
-68.6765
-68.6765
-68.6765
-68.6765
-68.6855
-68.6855
-68.6855
-68.6855
-68.6855
-68.6855
-69.5863
-69.5815
-69.5945
-69.5994
-69.6211
-69.6073
-69.3327
-69.3573
-69.3532
-69.342
-69.3317
-69.3614
-68.8101
-68.8336
-68.8074
-68.752
-68.7298
-68.7433
-69.8836
-69.9279
-69.8564
-69.8255
-69.7972
-69.866
-69.3729
-69.3839
-69.3702
-69.3742
-69.3779
-69.3689
-69.5568
-69.5718
-69.5659
-69.5674
-69.5685
-69.5666
-69.508
-69.5154
-69.5106
-69.5022
-69.5009
-69.5025
-68.7092
-68.7093
-68.7088
-68.707
-68.7058
-68.7068
-68.6859
-88.2537
-169.869
-278.685
-80.6538
-68.6906
-81.5718
-71.6803
-85.8097
-78.1624
-70.542
-75.2391
-68.7017
-71.0954
-68.6715
-68.7151
-68.6851
-70.5002
-68.6701
-68.7081
-68.6702
-68.6732
-68.67
-68.67
-68.67
-68.67
-68.67
-68.67
-68.67
-68.67
-68.67
-68.67
-68.67
-68.67
-68.67
-68.67
-68.67
-68.67
-68.67
-68.67
-68.67
-68.67
-68.6701
-68.671
-68.6707
-68.6702
-68.67
-68.67
-68.673
-68.6846
-68.6767
-68.671
-68.67
-68.6705
-68.875
-68.8377
-68.8859
-69.1535
-69.1979
-69.3982
-69.834
-70.0911
-69.9643
-70.3311
-70.5015
-70.4937
-69.8469
-70.0935
-70.0693
-70.0217
-70.0548
-69.8299
)
;
    }
}


// ************************************************************************* //
