/*--------------------------------*- C++ -*----------------------------------*\
| =========                 |                                                 |
| \\      /  F ield         | OpenFOAM: The Open Source CFD Toolbox           |
|  \\    /   O peration     | Version:  v1612+                                |
|   \\  /    A nd           | Web:      www.OpenFOAM.com                      |
|    \\/     M anipulation  |                                                 |
\*---------------------------------------------------------------------------*/
FoamFile
{
    version     2.0;
    format      ascii;
    class       surfaceScalarField;
    location    "7.75";
    object      phi;
}
// * * * * * * * * * * * * * * * * * * * * * * * * * * * * * * * * * * * * * //

dimensions      [0 3 -1 0 0 0 0];

internalField   nonuniform List<scalar> 
2916
(
0.00133331
0.375129
-0.376463
-0.000530062
0.374779
-0.372916
-0.00149553
0.374912
-0.373947
-0.00124187
0.37516
-0.375414
9.37227e-06
0.375194
-0.376446
0.375337
-0.375327
0.00107709
0.687427
-0.313375
-8.04997e-05
0.686834
-0.310897
-0.0013777
0.687075
-0.310866
-0.000537859
0.687309
-0.312989
0.00226834
0.687524
-0.315136
0.687151
-0.309546
0.000569644
0.695802
-0.00894462
1.73561e-05
0.695129
-0.00774184
-0.00101873
0.695444
-0.00733303
-0.000441859
0.695594
-0.00886173
0.0019348
0.695907
-0.0107592
0.695354
-0.00626798
-0.000501529
0.488446
0.207858
5.82153e-05
0.486527
0.208042
0.000118826
0.487299
0.208084
4.02532e-05
0.487749
0.207923
5.29796e-05
0.488106
0.207788
0.48725
0.208157
-0.00107951
0.180533
0.308992
0.000124707
0.174792
0.310531
0.000835968
0.176534
0.310054
0.000135474
0.178773
0.309677
-0.00126942
0.180225
0.309285
0.175958
0.310023
-0.000851268
-0.11526
0.296644
0.000136754
-0.12253
0.296334
0.00117654
-0.120844
0.296338
0.00014544
-0.11702
0.296824
-0.00150403
-0.114868
0.296743
-0.122114
0.296568
-0.000517095
-0.362304
0.247561
-2.9163e-06
-0.365024
0.24198
0.000571366
-0.36442
0.243001
-5.60739e-05
-0.362686
0.246294
0.00107473
-0.363058
0.247059
-0.3638
0.242761
0.00181163
-0.498747
0.134631
0.000324559
-0.496102
0.132564
-0.00108383
-0.496177
0.133165
0.00124797
-0.498737
0.133719
0.00686827
-0.502426
0.133747
-0.49481
0.137879
-0.00031967
-0.474274
-0.0241537
0.000296823
-0.472279
-0.0244388
0.000385107
-0.471987
-0.0242782
0.000846004
-0.474608
-0.0245894
0.00162419
-0.478266
-0.0249379
-0.470859
-0.0223271
-0.00160002
-0.381077
-0.091597
0.000237773
-0.385612
-0.0885054
0.00279551
-0.384746
-0.0897985
0.000383299
-0.381511
-0.0906851
-0.00539921
-0.381562
-0.0909215
-0.387705
-0.088553
-0.00428631
-0.2798
-0.0969901
0.000698182
-0.289806
-0.10079
0.00670067
-0.289398
-0.101351
0.00110046
-0.280118
-0.095793
-0.012292
-0.27538
-0.0927894
-0.294067
-0.10593
0.00127168
-0.281072
-0.000748171
-0.287786
-0.00113748
-0.289008
-0.00047543
-0.28078
0.00385608
-0.279712
-0.290211
0.00415883
0.586676
-0.967297
-3.38972e-05
0.587229
-0.955953
0.00128507
0.58369
-0.958956
0.000660202
0.588932
-0.963721
-0.00537911
0.59615
-0.966557
0.581135
-0.961841
-0.00147727
1.03806
-0.763285
0.000368072
1.03418
-0.759697
0.00399647
1.03347
-0.764279
0.00246976
1.03833
-0.760863
-0.00325752
1.04422
-0.757478
1.03157
-0.763235
0.000572128
1.20382
-0.175278
0.000355294
1.20096
-0.174304
-0.000420458
1.20087
-0.173953
0.00120545
1.20365
-0.1758
0.00464214
1.20704
-0.17702
1.19971
-0.169767
-0.000356395
1.14537
0.26667
0.000103972
1.14484
0.2637
-0.000844511
1.14479
0.26511
-6.40025e-05
1.14557
0.265221
0.00361688
1.14587
0.265276
1.14481
0.266675
0.000965658
1.11993
0.333467
0.000208858
1.11777
0.338358
-8.18725e-05
1.11598
0.339155
0.000519978
1.12116
0.333483
0.00186707
1.12229
0.331524
1.11679
0.339908
0.00946363
1.20535
0.201759
0.000360714
1.2108
0.212416
-0.00594351
1.20439
0.214234
-0.000622689
1.21101
0.201651
0.00935643
1.21151
0.197544
1.20498
0.217728
0.00743117
1.35333
0.0921542
0.000488526
1.37909
0.0806254
-0.00635129
1.36815
0.0860837
-0.00284757
1.36587
0.0879372
0.013027
1.36042
0.0822698
1.37201
0.088767
-0.00510895
1.3481
0.144962
0.00144944
1.38424
0.120854
0.00166127
1.37503
0.126068
0.00225057
1.35797
0.141029
0.0119069
1.33491
0.149607
1.39519
0.126601
-0.011849
0.92136
0.414439
-0.000625528
0.948868
0.399714
-4.10867e-05
0.945138
0.405034
-0.0038539
0.928444
0.408746
-0.0183546
0.89635
0.428121
0.990749
0.363759
-0.0261663
0.400339
0.45559
-0.000114712
0.391134
0.443176
0.0170419
0.396265
0.441917
0.000585873
0.401908
0.452306
-0.0474521
0.395421
0.458045
0.404785
0.449959
-0.0368285
0.151489
0.188689
0.00589602
0.0820746
0.165545
0.0427385
0.0938321
0.16424
0.0168021
0.149912
0.18214
-0.0651345
0.194541
0.190027
0.0706585
0.163062
0.0196249
-0.149208
0.00426665
-0.190354
-0.00367329
-0.187236
0.00980912
-0.14435
0.0312604
-0.106622
-0.188292
0.00594823
0.537993
-1.51124
0.00284063
0.541712
-1.49456
0.00301213
0.537705
-1.49683
0.00466423
0.540729
-1.5061
-0.00328429
0.546695
-1.5053
0.532981
-1.49811
-0.00651385
1.49275
-1.71153
-0.00223259
1.50063
-1.72289
0.00981475
1.49979
-1.73842
0.00226218
1.49397
-1.70655
-0.0218568
1.49251
-1.67918
1.49306
-1.74517
-0.00595061
2.05681
-0.733391
-0.00130402
2.06438
-0.742708
0.00677375
2.06358
-0.745817
-9.33314e-05
2.05797
-0.732939
-0.0114194
2.05713
-0.730309
2.05637
-0.744499
-0.00519911
2.3441
-0.0154162
-0.000830677
2.35072
-0.0270014
0.004225
2.34972
-0.0260796
0.000886701
2.34553
-0.0189938
-0.00837346
2.34698
-0.0153205
2.3428
-0.0281349
0.00160828
2.80798
-0.13202
-7.41542e-05
2.80966
-0.118909
-0.000216838
2.80947
-0.120455
0.0012589
2.80939
-0.131852
-0.000445776
2.81931
-0.139093
2.79344
-0.111171
0.00953317
3.58183
-0.581627
-0.000941463
3.62128
-0.588727
-0.00901324
3.608
-0.576224
-0.00910011
3.61197
-0.600845
0.00116346
3.61394
-0.607354
3.59269
-0.580363
0.0567006
2.42215
1.19514
0.00100745
2.87986
0.877739
-0.051662
2.80779
0.938962
0.00306029
2.44758
1.19761
0.134332
2.23135
1.33359
3.16916
0.646633
0.0325865
-0.0433573
2.57788
-0.0141633
0.38416
2.6633
-0.0739505
0.321461
2.67218
0.0376111
-0.0571487
2.53419
0.343284
-0.337061
2.41235
0.92207
2.71697
-0.138331
-1.48574
1.99515
-0.00959856
-1.45479
2.10993
0.0719816
-1.46154
2.10645
-0.0655277
-1.50521
1.99432
-0.342568
-1.60536
1.97346
-1.22165
2.16491
-0.0204929
-1.50402
0.49436
-0.0157571
-1.54325
0.526906
-0.0193203
-1.53328
0.517216
-0.028192
-1.5285
0.484468
-0.0926692
-1.54295
0.460119
-1.52265
0.658283
0.0299405
-0.730125
-0.615145
-0.0239617
-0.826266
-0.497542
-0.070968
-0.804408
-0.517621
-0.0289407
-0.746081
-0.642308
0.0566718
-0.698095
-0.740442
-0.806341
-0.496571
0.0628858
-0.94222
-0.0223466
-0.931387
-0.0886951
-0.925296
-0.0371024
-0.942024
0.0864807
-0.928301
-0.908152
0.0352202
0.347416
-1.89388
-0.0125715
0.401422
-1.84819
-0.0916954
0.439532
-1.85724
-0.0419592
0.332485
-1.88832
0.080807
0.283275
-1.91135
0.462801
-1.8801
0.0374158
0.786631
-2.18816
-0.0285211
1.09962
-2.35515
-0.0788285
1.08871
-2.33728
-0.0301157
0.795964
-2.21874
0.062455
0.539195
-2.02767
1.14185
-2.36176
0.0699337
1.49459
-1.51129
-0.0360556
2.25129
-1.7884
-0.144584
2.24404
-1.79261
-0.256687
1.66879
-1.49365
0.0935286
0.854392
-1.39572
2.23397
-1.74309
0.330411
1.47235
-0.323585
0.0760261
2.74413
-0.265459
-0.221187
2.80623
-0.291064
-0.035954
1.81517
-0.350609
0.568737
0.751915
-0.517537
2.92211
-0.147542
-0.0821395
1.65821
-0.235741
0.242997
2.50053
-0.200447
0.667753
2.51304
-0.252021
0.8074
1.78921
-0.245544
0.311484
1.35972
-0.250984
3.19003
-0.0675969
-0.488344
1.39432
0.170609
-0.0228869
1.50614
-0.0597915
0.545217
1.45835
-0.0896382
0.239741
1.31331
0.180531
-0.66941
1.28786
0.373665
1.95042
-0.0101625
0.0866904
-0.369939
2.87271
-0.0527845
-0.0622357
2.58559
-0.115234
-0.121043
2.58081
-0.0950321
-0.437796
2.92852
0.0878611
-0.697022
3.13558
0.28979
2.39512
-0.0251391
-1.55436
3.78744
0.00699214
-1.41328
3.98222
0.0524528
-1.44771
3.95339
0.0343524
-1.60893
3.72343
0.0592174
-1.83181
3.52227
-1.0773
4.14328
-0.0824693
-1.50113
2.0244
-0.025779
-1.53957
2.17953
0.0160292
-1.55564
2.17258
-0.0683735
-1.55168
2.02148
-0.269129
-1.66861
2.01101
-1.52671
2.34519
0.0286938
-1.31169
0.276221
-0.0457939
-1.26905
0.330866
-0.106716
-1.29261
0.315112
-0.0814613
-1.36414
0.271667
-0.0495152
-1.46617
0.22574
-1.32766
0.409722
0.003069
-0.792814
-1.13709
0.0227987
-0.776296
-1.01002
0.0364385
-0.781095
-1.04278
0.0153678
-0.815689
-1.16968
-0.0235436
-0.869771
-1.29793
-0.799863
-1.04791
0.00304335
-1.73808
0.0137977
-1.71844
0.0271207
-1.71971
0.0186762
-1.74927
-0.00966714
-1.76973
-1.71768
-0.299278
0.410826
-0.111548
-0.263947
-0.179034
0.143702
0.0212394
-0.256164
-0.0290222
0.030333
-0.0290631
0.0199692
0.250682
-0.38811
0.167761
0.31834
-0.0676586
-0.132775
0.377156
0.166445
-0.0565217
-0.766158
0.510872
0.419946
-0.900162
0.16753
0.195437
-0.321529
0.516974
-0.17801
-0.55257
0.537907
0.139031
0.00129838
0.0673547
-0.348099
0.6579
0.258355
-1.66118
0.70402
0.276632
-1.38938
0.470941
-0.233204
-0.474762
0.66307
-0.516454
-0.987531
0.71821
-0.606051
0.228628
0.344101
-1.55786
0.865655
0.650656
-2.51084
0.543106
0.587077
-2.08544
0.759639
-0.404569
-0.447343
0.964227
-0.29923
-1.73098
0.638111
-1.48294
0.577662
0.417246
-2.20983
0.234727
0.537819
-2.8746
0.243187
0.625854
-2.8354
0.661926
-0.179063
-2.24124
2.59881
-0.170963
-2.56501
0.825931
-2.72656
1.07265
0.301876
-2.20761
-0.304091
0.331024
-2.69821
-0.205539
0.342874
-2.86783
0.020577
0.439821
-2.87507
0.536892
-0.0204655
-2.76333
0.658609
-2.79753
0.0505103
0.0318936
-2.00471
-0.234792
0.0733476
-2.32166
-0.418003
0.159499
-2.51206
-0.441915
0.239368
-2.50139
-0.453551
-0.035887
-2.45693
-0.0311431
-2.3734
-0.460021
-0.208989
-1.74117
-0.0545561
-0.184261
-2.0247
-0.321692
-0.0043355
-2.12106
-0.570927
0.187631
-2.01361
-0.679747
0.0161892
-2.16442
-0.121074
-2.03744
-0.31977
-0.340644
-1.50635
0.10582
-0.397801
-1.80594
-0.161595
-0.117213
-1.79831
-0.603338
-0.101269
-1.86316
-0.1664
-0.155429
-2.05821
-0.0520429
-1.70501
-0.487857
-0.545785
-1.45785
0.497291
-0.722393
-1.65371
0.0243711
-0.446756
-1.65009
-0.423863
-0.249928
-1.76445
-0.295534
0.119788
-1.84573
-0.582196
-1.35495
-0.23027
-0.688889
-1.00441
0.235452
-1.06032
-1.18569
-0.0965831
-0.677901
-1.17529
-0.857213
0.0477826
-0.882404
-1.60773
0.768344
-0.759417
-1.80688
-0.718933
0.132325
-0.474886
-0.529529
-0.600807
-1.05977
-0.1243
-1.6518
0.160892
-1.1676
0.464475
-1.063
-0.254458
-0.13854
0.806218
-0.779227
-0.145591
0.105929
0.044825
-0.0553693
0.317874
-0.437118
-0.00803641
-0.287474
0.26011
0.0859427
-0.270111
0.343893
0.763967
-0.745683
0.51374
0.96767
-0.508748
0.145586
0.044013
0.940942
-0.0657357
0.0172822
0.679443
-0.61864
-0.42905
1.21146
-0.631144
-0.227439
0.507739
1.06461
-0.930487
0.732846
0.571719
0.321005
-0.0837773
-0.205206
1.76986
-0.980876
-0.447286
1.83261
-2.10102
-0.797433
2.15159
-1.59341
-0.786774
0.769933
0.0834911
-0.383661
-0.145611
0.686263
0.896722
-0.993629
-0.669443
1.85536
-1.15299
-2.06069
2.5324
-1.52329
-1.84791
2.38501
-1.13676
-1.7255
1.19031
-1.08812
0.612519
-0.449005
1.62308
-0.253083
-1.32621
0.295406
0.155543
-1.22556
-2.08157
0.58216
-0.277753
-2.47831
2.2814
0.108453
-2.03673
0.750951
-1.02143
1.11441
0.215649
2.74061
-1.63728
-0.00524862
1.8743
-1.56354
-0.466674
-0.395675
-1.2039
-0.456757
-1.51297
-0.438357
0.22877
-1.44643
-0.61722
0.109136
-0.851283
0.179151
3.66459
-1.33792
-0.00678998
3.25607
-1.61382
-0.77177
1.51728
-1.58989
-1.41726
0.315177
-1.63621
-0.812806
-0.642671
-1.43935
0.449523
-1.61321
0.534806
3.40945
-0.33422
-0.0422024
4.42905
-0.917666
-1.19475
3.07827
-0.979372
-1.65792
1.0551
-0.956504
-0.780547
-1.453
-0.18812
-0.606903
-0.0438913
1.42193
0.88991
1.20343
2.31728
2.54364
0.828454
1.03997
2.91569
0.836551
0.406605
-0.0250041
1.54707
0.72643
-2.77924
0.954374
-1.33619
0.967855
0.290529
-1.28817
2.38484
1.73233
-1.16994
2.29614
1.79265
-0.0700332
2.50154
1.81989
-1.60657
1.25879
1.93149
-2.47482
-0.998214
-0.745384
1.11042
-1.43737
-1.30264
1.68729
-0.862119
-1.58566
-0.256115
0.108005
-1.25245
-0.644918
0.81405
-1.0136
-2.90674
1.43279
-1.33451
-3.56593
-0.542423
1.36215
0.123258
-1.95543
0.322944
-2.84511
0.34137
-2.92267
0.147875
-1.98771
-0.310089
-1.93955
-1.10697
0.0322687
0.97259
-1.78409
0.167469
0.647041
-0.737416
0.170424
0.838896
-1.27897
0.255887
0.249865
-0.075218
0.0144244
0.404498
0.180857
0.88181
-1.61307
0.538252
1.47005
-1.54446
0.343596
1.65847
0.124167
0.451601
1.43298
-0.022644
-0.225428
1.14867
0.989679
-0.772229
1.54998
-0.0909409
1.39602
-2.21692
0.888144
1.81912
-0.916205
0.372126
2.85151
1.09284
0.00622655
2.18441
1.44708
-0.909812
1.82646
2.38984
-1.3146
2.4963
0.228401
1.87644
-2.17869
0.551437
2.10932
0.0550832
-0.355946
3.01521
2.59905
-0.911862
1.82235
3.45037
-0.986758
1.01091
3.27546
-1.21229
2.80858
1.10355
1.56747
-0.290796
-0.164207
2.07084
-0.0504002
-0.379642
2.7621
0.624095
-0.944724
2.08272
0.886877
-0.319573
0.937429
1.72973
-0.228026
2.69508
0.772899
1.61423
0.839617
-0.164717
1.25929
-0.661012
-0.139027
1.88809
-0.715221
-0.23804
1.85851
-0.880677
-0.401902
1.26036
-0.597432
0.296609
1.78712
-0.407766
1.27611
-0.216547
-0.735371
1.10752
-0.450769
-1.13969
1.43673
-0.758152
-1.154
1.23121
-0.948282
-1.24428
0.588751
-0.874321
-0.261038
0.202243
-0.837718
-0.157036
-0.441111
-1.08752
1.94277
-0.0819577
-2.27255
2.10031
-0.396219
-2.76614
1.23571
-0.490281
-2.56834
-0.275498
-0.290058
-1.17118
-1.2162
-0.166837
-1.43754
0.0654371
0.0421656
1.89028
1.21375
-0.359028
2.20385
1.12611
-1.21359
1.63234
1.29449
-0.745394
-0.908786
1.71216
0.14947
-1.70546
0.548771
-1.36152
1.0413
0.275955
1.01123
2.98794
0.675196
0.589906
3.51085
0.2771
0.788225
3.74375
0.834404
-1.02687
0.819577
1.29813
-1.50768
-1.65971
0.175844
0.871181
0.109604
0.123116
2.4658
0.148924
-0.49407
0.788539
0.0487007
-0.414409
0.657939
0.174852
-0.896476
-3.16329
0.159007
-1.33948
-3.71828
0.299739
1.39726
0.846465
-2.67878
0.68341
-3.17613
0.274944
-2.92862
-0.323873
-2.28536
-1.35448
-2.24842
-2.16171
-0.116464
0.405929
-2.07355
0.181624
0.685616
-1.72112
0.245413
0.580815
-1.92357
0.392405
0.7695
-0.99171
0.210529
0.646518
-0.283784
0.490147
-1.89269
0.411044
1.22093
-2.7705
0.385661
1.84549
-1.01032
0.777111
1.72555
-1.55883
0.614069
1.89253
0.0296918
-0.0991995
1.93489
-0.666043
0.804638
-2.63061
0.510331
1.70591
-1.91152
0.635637
2.58295
0.23007
0.69662
2.10095
1.01069
0.551146
2.15215
2.27569
0.541768
1.9217
0.250964
0.0672103
-0.899494
-0.12427
1.62673
0.258534
-0.212036
2.88142
2.38834
0.00199952
2.32209
3.01519
0.526266
1.82975
3.07359
0.813714
1.48557
1.25224
0.5942
-0.00407196
-0.414591
1.34965
0.641274
-0.382692
2.06811
1.4055
-0.590561
1.82183
1.595
0.289522
1.4072
1.2722
0.626109
1.18709
0.734787
1.46322
0.596706
0.00015049
0.603841
0.084644
-0.0914344
0.729725
0.714752
-0.254463
0.434802
0.669382
-0.0568766
0.413758
0.198421
0.23554
0.3944
0.092505
0.622727
0.859484
-0.389684
0.217736
0.325019
-0.720392
-0.327268
0.629549
-0.686637
-0.917242
0.370008
-0.632278
-0.790342
0.27542
-0.499382
-0.567447
-0.00876874
-0.72996
0.412193
-0.289697
0.0721212
0.353354
-1.41636
-0.268464
0.671636
-2.14114
-1.07605
0.393313
-1.70741
-1.61088
0.096746
-1.11461
-1.32237
-0.00470783
-1.84962
0.0704815
0.366533
0.0958404
0.823496
-0.892589
0.510627
1.60614
-2.06509
0.0187997
1.37213
-0.857049
-1.46103
0.354276
-0.447398
-1.20708
0.023832
-1.4044
0.148687
0.566395
0.905632
1.61175
0.165082
1.50328
2.91951
-0.479149
1.59065
2.81613
0.442756
-1.21803
-0.345319
0.597911
-1.51586
-1.50609
0.582493
-0.517801
1.70417
0.638267
1.029
1.64859
1.12291
1.22449
1.32464
1.34655
1.22599
0.28715
-0.901168
-2.44267
-0.749111
-1.22591
-2.97198
1.09666
0.133985
0.283918
-2.32443
0.498734
-2.26803
0.961833
-2.04517
0.0376167
-2.26231
-1.11174
-2.32497
-2.17679
0.164669
-1.26538
-0.793164
-0.0764059
-1.33048
-0.27663
-0.466033
-1.35257
-0.115035
-0.304202
-1.21969
-0.830458
0.508682
-1.09537
-1.62885
-1.33992
-0.0314972
0.0945295
1.62764
-2.98755
0.00104687
1.61836
-2.85536
-0.368565
1.53493
-2.5179
-0.148339
1.68231
-3.12223
0.599233
1.68167
-3.52462
1.53927
-2.27995
-0.101203
-2.70102
0.105048
-2.9563
0.0824795
-2.69192
0.097963
-2.76056
0.343367
-2.92162
-2.32706
0.290091
-0.164652
-3.10677
-0.022695
-0.109837
-2.20917
-0.259021
-0.146787
-2.06921
-0.0986334
-0.129726
-3.07987
0.394855
-0.176939
-3.97308
-0.201656
-1.79675
0.156661
1.07352
-4.38237
0.019803
1.657
-4.48533
-0.0230712
1.63572
-4.25753
0.100966
1.08958
-4.46557
0.198293
0.629164
-4.42804
1.76018
-4.04349
-0.119402
-3.02507
0.0283522
-3.65442
0.35523
-3.56294
0.146999
-2.92707
-0.50644
-2.50598
-3.62515
-0.0117128
-0.289255
-4.31708
0.00814066
-0.0888974
-3.92853
0.126348
-0.0941649
-3.88587
0.18217
-0.3108
-4.31854
0.165069
-0.721056
-4.63065
0.115678
-3.49045
0.124116
-0.894055
-3.9017
-0.0109441
-0.160412
-4.27876
-0.0181099
-0.147897
-4.19663
0.126995
-1.04474
-3.87674
0.302461
-1.76304
-3.56152
0.629688
-4.25504
0.0772678
-1.83671
-0.0327577
-2.494
-0.0667895
-2.46845
0.0896471
-1.70293
0.184427
-1.24276
-2.99476
-0.0733111
-0.885243
-3.68211
-0.0399893
-0.527955
-3.69935
0.0263624
-0.554805
-3.68848
0.021201
-0.97526
-3.68873
0.0147532
-1.39667
-3.74507
-0.197787
-3.42545
0.0367422
-2.12837
-2.69531
-0.0562348
-1.78666
-2.92708
-0.124033
-1.78949
-2.89415
-0.0657981
-2.2505
-2.65973
0.0346322
-2.56234
-2.49628
-1.32928
-3.08891
0.11127
-1.01052
-0.0292264
-1.23248
-0.174653
-1.21476
-0.00541605
-0.96404
0.314926
-0.839001
-1.52608
-0.0948883
-1.16663
-2.65634
-0.0395317
-1.17403
-2.78112
0.00913043
-1.22644
-2.76272
-0.0344238
-1.22085
-2.66987
-0.126693
-1.20741
-2.69637
-0.868383
-2.75136
0.0657441
-1.86359
-2.06409
-0.0768365
-1.93046
-2.02806
-0.281315
-1.92352
-1.99259
-0.188498
-1.89938
-2.07402
0.11237
-1.88987
-2.11469
-1.74316
-2.10177
0.0971043
-0.858764
-0.0165717
-0.853523
-0.135703
-0.844554
-0.00173325
-0.872208
0.232908
-0.868355
-0.901499
-0.081187
-0.124541
-2.28
-0.0159287
-0.574905
-2.33127
0.0809529
-0.621213
-2.32802
0.00662539
-0.0827891
-2.33222
-0.0881174
0.151343
-2.3793
-0.439222
-2.41041
0.122974
-0.602514
-1.70909
-0.0494238
-0.777914
-1.65266
-0.279613
-0.769748
-1.61386
-0.130226
-0.573615
-1.73258
0.182245
-0.480637
-1.79519
-0.716649
-1.6421
0.0535114
-0.89421
-0.000823003
-0.862388
-0.07259
-0.848653
-0.0230613
-0.904403
0.0927743
-0.916169
-0.84256
-0.0112723
2.08688
-1.4829
-0.019501
1.71497
-1.45241
0.0317235
1.66651
-1.46495
0.0709021
2.07356
-1.51644
0.173993
2.27863
-1.62545
1.58317
-1.42447
0.0450381
1.36708
-1.03434
0.00175289
1.14417
-1.03857
-0.0344926
1.10126
-1.01237
-0.000278307
1.34752
-1.04076
0.0776915
1.46815
-1.06267
1.07244
-1.05368
0.0581587
-0.570787
0.0136688
-0.580675
-0.0597386
-0.56876
-0.0212597
-0.567298
0.071266
-0.559517
-0.571372
-0.0774926
3.2426
-0.860557
0.00518804
3.30778
-0.860651
0.108903
3.25668
-0.871944
0.0365158
3.16524
-0.885861
-0.103846
3.02262
-0.985443
3.39654
-0.781578
-0.0693504
2.20965
0.0679582
0.0143754
2.15308
0.032406
0.112208
2.11357
0.0329097
0.0121458
2.1616
0.0629496
-0.198172
2.12108
0.0491948
2.15756
-0.0128727
0.00648439
-0.0172594
0.0137263
-0.0284145
0.014696
-0.028924
0.000902173
-0.018147
-0.0445264
-0.0120562
-0.0360756
-0.0520841
1.7594
-0.543481
-0.000883408
1.88549
-0.617816
0.0433351
1.88179
-0.625373
-0.0278712
1.7635
-0.55668
-0.199187
1.75834
-0.561462
2.01826
-0.653837
-0.0437751
1.2716
0.599537
-0.00421141
1.30177
0.576572
0.0361103
1.30175
0.572638
-0.0189876
1.28604
0.595511
-0.1125
1.29492
0.606134
1.33544
0.557454
-0.013222
0.220274
-0.00784365
0.221004
-0.0010921
0.218904
-0.0155597
0.21982
-0.0220358
0.218699
0.222223
0.00910797
0.502807
-0.779175
0.0356304
0.533793
-0.847261
0.0458586
0.519708
-0.840194
0.0293831
0.502288
-0.770825
-0.0638265
0.479104
-0.721615
0.544576
-0.852516
0.0015963
0.276303
0.824445
0.0159309
0.288868
0.807162
0.0188096
0.281713
0.807751
0.0130615
0.277538
0.826008
-0.0110051
0.264769
0.844534
0.291008
0.800016
-0.00522673
0.432903
-0.00266206
0.436287
-0.000617708
0.434729
-0.00485854
0.433949
-0.00736747
0.430891
0.437923
-0.0245908
-0.484253
-1.40742
0.046601
-0.470669
-1.4578
0.100441
-0.487357
-1.44946
0.0604347
-0.502036
-1.39846
-0.0576018
-0.541203
-1.36031
-0.502832
-1.45519
0.00881206
-0.528983
0.860367
0.0182138
-0.530508
0.857599
0.0190183
-0.535434
0.855022
0.0221478
-0.53709
0.857932
0.0100492
-0.545828
0.861256
-0.539015
0.846247
0.000330798
0.630733
-0.000749302
0.631849
-0.00161709
0.630354
-0.00159294
0.629195
-0.0020047
0.626376
0.631974
-0.0134897
-1.56419
-1.56781
0.00203084
-1.61972
-1.57204
0.016732
-1.61084
-1.57304
0.00610331
-1.56155
-1.57555
-0.021353
-1.52393
-1.57865
-1.61578
-1.57845
0.0124456
-0.9965
0.280228
-0.00105037
-1.02747
0.278841
-0.0150195
-1.02021
0.278361
-0.00432239
-0.998248
0.28393
0.0250932
-0.98015
0.288063
-1.02245
0.278014
0.00766559
0.287861
-0.00118432
0.286089
-0.00772297
0.287632
-0.00292151
0.291825
0.0098478
0.294225
0.294162
0.00958558
-0.710842
-0.609917
1.31117
0.0234833
-0.736851
-0.635645
1.3586
0.0223569
-0.79788
-0.654362
1.45337
-0.00113247
-0.823476
-0.649804
1.49677
-0.0246089
-0.809981
-0.647149
1.48061
-0.785525
-0.62641
1.38733
-0.02095
-0.553992
-0.318127
0.182227
-0.0503344
-0.582485
-0.296218
0.171237
-0.0653702
-0.612308
-0.243629
0.0730932
-0.0349269
-0.618552
-0.211592
-0.0237758
-0.0179508
-0.599795
-0.181082
-0.0460802
-0.580229
-0.209419
-0.0138288
0.0406246
-0.133319
-0.250537
0.0953534
-0.125776
-0.285987
0.135252
-0.119498
-0.321722
0.0932536
-0.161948
-0.241318
0.0301104
-0.183811
-0.198455
-0.205687
-0.177404
-0.014413
-0.410327
-0.185176
-0.0204037
-0.447922
-0.181733
-0.0155275
-0.481383
-0.177855
-0.00723118
-0.480341
-0.177759
0.000138427
-0.47357
-0.180949
-0.449605
-0.176667
-0.0195596
-0.462035
-0.24686
-0.0393179
-0.490532
-0.233851
-0.0430456
-0.504698
-0.216587
-0.0325172
-0.498132
-0.20433
-0.00486688
-0.488328
-0.193976
-0.477098
-0.186795
0.0219601
-0.07442
0.0389519
-0.0809034
0.0463596
-0.0935952
0.0323718
-0.113839
0.0140811
-0.127086
-0.126949
-0.00497409
-0.168063
-0.012139
-0.00456805
-0.171717
-0.0104219
2.41021e-05
-0.174263
-0.00818398
0.000614253
-0.17224
-0.00610929
-0.00153685
-0.17341
-0.00538782
-0.170752
-0.00745125
-0.0183336
-0.260742
-0.135849
-0.0256011
-0.264248
-0.134053
-0.0249408
-0.263157
-0.128355
-0.019145
-0.261707
-0.120661
-0.011851
-0.261864
-0.112818
-0.257788
-0.111611
0.0131244
0.0741627
0.0244812
0.069118
0.0283138
0.061575
0.0228096
0.0536581
0.0094156
0.0494876
0.0473453
-0.00121133
-0.196012
0.185084
-0.00388954
-0.193725
0.185981
-0.00637081
-0.192899
0.187196
-0.00559834
-0.194798
0.187916
-0.00129433
-0.197526
0.187834
-0.195348
0.186602
-0.00581275
-0.302377
-0.0236712
-0.0111847
-0.302217
-0.0201911
-0.0138644
-0.300277
-0.0182992
-0.0111902
-0.301709
-0.0164261
-0.00259004
-0.303598
-0.0153478
-0.300342
-0.00920788
0.00584949
0.238297
0.0118803
0.236977
0.014236
0.233771
0.0109809
0.230617
0.00457341
0.228126
0.227003
-0.000762689
-0.476544
0.66239
-0.00358693
-0.474833
0.663638
-0.00631216
-0.475143
0.665064
-0.00569182
-0.482553
0.669849
-0.00154686
-0.489063
0.672751
-0.483392
0.668447
-0.00255166
-0.45722
-0.0404438
-0.00345482
-0.456652
-0.0374715
-0.00428414
-0.455714
-0.0369009
-0.00322496
-0.459862
-0.0401785
-0.0007645
-0.464268
-0.0426047
-0.458985
-0.0343808
0.00305809
0.242003
0.00734953
0.241936
0.0104818
0.239731
0.0082905
0.235752
0.00171621
0.233081
0.232804
-0.000280237
-0.90514
-0.000308648
-0.908373
-0.000416456
-0.907866
-0.00125862
-0.904862
-0.00302511
-0.904133
-0.913028
-0.000525126
-0.664835
-0.0017251
-0.665807
-0.00305027
-0.665082
-0.00102314
-0.663139
0.0031382
-0.662838
-0.666257
0.00338134
0.00418259
0.00449204
0.00472606
0.00355385
-0.61909
-1.14592
-0.308541
0.347973
-3.01233
0.324152
-0.0423072
-1.21032
-0.322974
-0.0499609
-1.1989
0.214841
0.756132
-1.4153
0.325424
-1.1965
0.059949
-0.0111565
0.506019
-1.64078
1.43252
-4.00101
-0.455001
-0.0501276
2.18019
-1.90785
-1.83083
1.27828
-0.696468
-0.91085
-2.29439
-0.0408983
-0.175239
-1.93212
0.345666
-1.37028
1.04285
-1.38121
-0.740785
-1.46945
-2.32887
-1.72638
-1.05481
-0.924257
-1.10861
-0.233437
-2.71318
-0.132426
-0.526032
-1.75882
1.36525
-0.186889
-3.29171
1.07077
0.440317
-2.28954
1.90687
-0.167916
-0.896651
1.16426
-1.41262
-1.32596
-0.107963
-2.6942
-1.5518
-0.625892
-1.6638
-0.0320857
-1.00424
-3.42858
-1.39264
-0.913845
-2.53895
-0.53746
-0.654995
-1.1364
-0.0599987
-1.63117
-2.36856
0.0559411
-1.44194
0.0279548
-1.77306
-0.438952
-1.32246
-0.762127
-1.62554
-0.323206
-1.54346
-1.15074
-0.439365
-0.712684
-0.891897
-0.0556667
-0.0351672
1.24679
-0.124687
0.937244
1.21323
0.385526
2.17016
1.50219
0.868649
0.761395
0.170712
0.56605
-1.92285
-0.94416
-0.070417
-1.2499
-0.480581
-0.525265
-0.00556677
-1.45631
0.837053
-0.31673
-0.274754
0.926618
-0.475474
1.02895
0.327084
-0.929394
0.56474
-1.3383
-0.2943
-1.11915
-0.486602
-0.967007
-0.115521
-0.863425
0.289323
-0.96067
0.294129
-1.14092
-0.915445
-1.13218
1.00054
-0.501728
-0.63142
2.21945
0.914931
-0.0175303
2.63419
0.980339
1.38994
2.43957
0.728733
1.90486
1.13214
-0.224104
0.442928
-0.464989
-0.755881
1.06415
-0.557628
-0.137047
1.65019
-0.0551479
0.506784
1.74956
-0.0759232
1.17023
1.32592
-0.0252739
0.92515
0.663497
-0.215671
0.423757
-0.393978
-0.151004
-0.50618
-0.0563822
-0.369478
0.262209
-0.414321
0.344684
-0.393575
0.078599
-0.448169
-0.519257
-0.849781
1.00229
-0.0129692
-0.255113
1.4566
0.269163
0.508525
1.56294
0.248765
1.14972
1.20248
0.157265
0.791635
0.879762
-0.0109993
0.883681
0.0396679
-0.535474
1.11982
-0.139681
-0.0734203
1.22831
-0.288909
0.502595
1.25188
-0.340875
0.674789
1.17467
-0.169668
0.336196
1.10793
-0.105252
1.05376
-0.22786
-0.137549
-0.314313
-0.0123251
-0.408197
0.114209
-0.446385
0.14988
-0.378618
0.0903492
-0.35574
-0.384171
-0.468757
0.615451
-0.0750199
-0.16103
1.32554
-0.649354
0.489771
1.33575
-1.06841
0.651768
0.840475
-0.646787
0.248382
0.419381
0.0655088
1.03049
0.117039
-0.451401
0.997966
-0.0707932
0.02308
1.34307
-0.780912
0.639723
1.44213
-1.0639
0.754899
1.13677
-0.581137
0.111096
0.921456
0.0364741
0.864172
0.049557
-0.11025
-0.101401
0.00888547
-0.379196
0.178168
-0.513706
0.193304
-0.280523
0.0781534
-0.137971
-0.161244
-0.200726
0.794001
-0.343275
-0.073547
1.42918
-1.57616
0.208929
1.18332
-2.1642
0.393773
1.05437
-1.61058
0.0693593
0.53376
-0.152607
0.795742
-0.19715
-0.118484
0.920464
-0.078771
0.33054
1.42187
-1.22263
0.546079
1.50311
-1.59923
0.735146
1.28471
-1.00055
0.281896
1.00081
0.0226692
0.877175
0.25002
0.0317089
-0.139542
0.140002
-0.434677
0.107586
-0.575398
0.1329
-0.324048
0.0688208
-0.143395
-0.135815
0.586003
0.626404
-1.20233
0.503137
1.10172
-1.92338
0.093387
0.794922
-2.15606
-0.126937
0.580726
-1.87424
-0.444133
0.600847
-0.440966
0.581397
-1.1522
0.45698
0.449833
-0.35918
0.921354
0.792847
-1.37813
0.744656
0.792913
-1.42052
0.279039
0.734503
-0.688705
0.0541318
0.59428
0.254145
0.49992
0.38563
0.175187
-0.155293
0.229453
-0.297969
-0.00524553
-0.310525
-0.0882258
-0.154736
-0.00799242
-0.0695814
-0.0265684
0.942615
0.718821
-2.04027
0.84438
1.43147
-1.65048
0.445148
1.0732
-1.4579
0.0896317
0.302661
-1.46711
-0.515129
0.70854
-0.520912
0.44296
-1.9616
0.473583
0.46364
-0.577583
0.964106
0.626111
-1.06329
0.96011
0.397055
-0.740374
0.219416
0.278868
0.0757831
0.0589717
0.481697
0.641433
0.402164
0.485398
0.0729825
-0.125558
0.143922
-0.148238
0.0403888
-0.0922404
-0.0521835
-0.00580144
-0.0215179
0.0182733
0.0443064
0.609462
0.654282
-1.69226
1.25759
1.62516
-1.00424
1.86431
1.45244
-0.700932
1.11682
-0.0574397
-1.00749
-0.0600959
-0.13479
-0.715296
-0.425822
-2.11367
0.0841316
0.0894437
-0.0968757
0.626017
0.177036
-0.157057
1.10297
0.0378531
0.197254
0.611541
-0.30223
0.812007
0.406839
-0.251263
0.96261
-0.371316
0.837732
0.0164675
0.276362
0.0504508
0.290998
0.0542846
0.279911
-0.00782885
0.263239
0.00651706
0.278838
0.300064
0.515441
0.331473
-1.51017
1.37146
0.509807
-1.14557
2.26446
0.589609
-0.957555
0.844606
-0.706172
-1.32413
-0.427655
-1.00819
-1.40682
-0.569883
-1.83746
-0.208041
0.0131293
0.429511
-0.12867
-0.159397
0.432777
0.259892
-0.210165
0.608468
0.217585
-0.774185
0.922328
0.0521261
-0.809847
0.929731
-0.63614
0.956115
0.197723
0.871085
0.340969
0.855043
0.439553
0.802055
0.205717
0.674692
0.0305426
0.645118
0.69428
-0.017228
-2.5062
-0.097148
-1.97509
-0.118681
-1.52782
-0.0231653
-2.18519
0.115922
-2.39027
-2.511
-0.348515
-1.54595
-0.357776
-1.36181
-0.0147584
-1.18928
0.104312
-1.40571
0.103366
-1.50567
-1.46535
-0.0720109
0.0677284
0.283148
0.225248
0.0945896
)
;

boundaryField
{
    seabed_topleft_surface
    {
        type            calculated;
        value           uniform 0;
    }
    seabed_topright_surface
    {
        type            calculated;
        value           uniform 0;
    }
    breakwater_top_surface
    {
        type            calculated;
        value           uniform 0;
    }
    breakwater_left_surface
    {
        type            calculated;
        value           uniform 0;
    }
    breakwater_right_surface
    {
        type            calculated;
        value           uniform 0;
    }
    water_front_surface
    {
        type            calculated;
        value           uniform 0;
    }
    water_back_surface
    {
        type            calculated;
        value           uniform 0;
    }
    water_left_surface
    {
        type            calculated;
        value           uniform 0;
    }
    water_right_surface
    {
        type            calculated;
        value           uniform 0;
    }
    water_top_surface
    {
        type            calculated;
        value           nonuniform List<scalar> 
180
(
4.42986
4.36841
4.24943
4.42739
4.35789
4.2097
1.51697
2.20736
2.17986
1.46433
0.866962
2.55182
-2.15968
-1.21081
-1.20836
-2.42532
-3.12105
0.18373
-3.06583
-2.90768
-2.89775
-3.15863
-3.28644
-2.48304
-2.11246
-2.19575
-2.1746
-2.12518
-2.09515
-2.13483
-0.620578
-0.714712
-0.693879
-0.590947
-0.548659
-0.682813
0.985504
0.906946
0.89478
0.971937
1.01897
0.872516
1.64964
1.59358
1.57276
1.62624
1.61904
1.57774
1.04729
1.04697
1.04717