/*--------------------------------*- C++ -*----------------------------------*\
| =========                 |                                                 |
| \\      /  F ield         | OpenFOAM: The Open Source CFD Toolbox           |
|  \\    /   O peration     | Version:  v1612+                                |
|   \\  /    A nd           | Web:      www.OpenFOAM.com                      |
|    \\/     M anipulation  |                                                 |
\*---------------------------------------------------------------------------*/
FoamFile
{
    version     2.0;
    format      ascii;
    class       volScalarField;
    location    "8.15";
    object      alpha.water;
}
// * * * * * * * * * * * * * * * * * * * * * * * * * * * * * * * * * * * * * //

dimensions      [0 0 0 0 0 0 0];

internalField   nonuniform List<scalar> 
320
(
1
1
1
1
1.87368e-05
2.01747e-05
1.94545e-05
2.00101e-05
2.00952e-05
2.03182e-05
2.02409e-05
2.01527e-05
2.0061e-05
1.83274e-05
1.63246e-05
1.83237e-05
0.999978
0.999976
0.999978
0.999981
0.999977
0.99998
0.999978
0.999976
0.999976
0.999978
0.999988
0.999978
1
1
1
1
1
1
1
1
1
1
1
1
1
1
1
1
1
1
1
1
1
1
1
1
1
1
1
1
1.89769e-05
1.9503e-05
1.80451e-05
1.89084e-05
1.60722e-05
1.53804e-05
1.60691e-05
1.55348e-05
1.95632e-05
1.91909e-05
1.6163e-05
1.46523e-05
1.90113e-05
1.68482e-05
1.55513e-05
1.59053e-05
1.65102e-05
1.78163e-05
1.87737e-05
1.71937e-05
0.999977
0.999977
0.999988
0.99998
0.99999
0.999992
0.999993
0.999992
0.999979
0.999984
0.999993
0.999991
0.999977
0.999988
0.99999
0.99999
0.999989
0.999985
0.999976
0.999988
1
1
1
1
1
1
1
1
1
1
1
1
1
1
1
1
1
1
1
1
1
1
1
1
1
1
1
1
1
1
1
1
1
1
1
1
1
1
1
1
1
1
1
1
1
1
1
1
1
1
1
1
1
1
1
1
1
1
1
1
1
1
1
1
1
1
1
1
1
1
1
1
1
1
1
1
2.01142e-05
1.96792e-05
1.96962e-05
1.80451e-05
1.85571e-05
1.83367e-05
2.1501e-05
1.89104e-05
2.00928e-05
1.96926e-05
1.96898e-05
1.97729e-05
2.20883e-05
1.89696e-05
2.04989e-05
2.10505e-05
1.92528e-05
1.93059e-05
1.84212e-05
2.01315e-05
1.8988e-05
2.02863e-05
2.10005e-05
1.8889e-05
2.07367e-05
2.03594e-05
2.03474e-05
2.2795e-05
0.999981
0.999978
0.999979
0.999985
0.999984
0.999984
0.999975
0.999982
0.999985
0.999978
0.999978
0.99998
0.999978
0.999983
0.99998
0.999977
0.999977
0.999979
0.999982
0.999976
0.999978
0.999976
0.999974
0.999977
0.99998
0.999978
0.999978
0.999974
1
1
1
1
1
1
1
1
1
1
1
1
1
1
1
1
1
1
1
1
1
1
1
1
1
1
1
1
1
1
1
1
1
1
1
1
1
1
1
1
1
1
1
1
1
1
1
1
1
1
1
1
1
1
1
1
1
1
1
1
1
1
1
1
1
1
1
1
1
1
1
1
1
1
1
1
1
1
1
1
1
1
1
1
2.03768e-05
2.02926e-05
1.88865e-05
2.06732e-05
0.999977
0.999975
0.999978
0.999972
)
;

boundaryField
{
    top_fluid_surface
    {
        type            inletOutlet;
        inletValue      uniform 0;
        value           nonuniform List<scalar> 
64
(
0
0
0
0
0
0
0
0
0
1.83274e-05
1.63246e-05
1.83237e-05
1.89769e-05
0
1.80451e-05
0
1.60722e-05
1.53804e-05
1.60691e-05
1.55348e-05
0
0
1.6163e-05
1.46523e-05
1.90113e-05
1.68482e-05
1.55513e-05
1.59053e-05
1.65102e-05
1.78163e-05
1.87737e-05
1.71937e-05
0
0
0
1.80451e-05
1.85571e-05
1.83367e-05
0
0
0
0
0
0
0
0
0
0
0
0
1.84212e-05
0
0
0
0
1.8889e-05
0
0
0
0
0
0
1.88865e-05
0
)
;
    }
    bottom_fluid_surface
    {
        type            zeroGradient;
    }
    lateral_surface_1
    {
        type            zeroGradient;
    }
    lateral_surface_2
    {
        type            zeroGradient;
    }
    lateral_surface_3
    {
        type            zeroGradient;
    }
    lateral_surface_4
    {
        type            zeroGradient;
    }
}


// ************************************************************************* //
