/*--------------------------------*- C++ -*----------------------------------*\
| =========                 |                                                 |
| \\      /  F ield         | OpenFOAM: The Open Source CFD Toolbox           |
|  \\    /   O peration     | Version:  v1612+                                |
|   \\  /    A nd           | Web:      www.OpenFOAM.com                      |
|    \\/     M anipulation  |                                                 |
\*---------------------------------------------------------------------------*/
FoamFile
{
    version     2.0;
    format      ascii;
    class       volScalarField;
    location    "3.85";
    object      p;
}
// * * * * * * * * * * * * * * * * * * * * * * * * * * * * * * * * * * * * * //

dimensions      [1 -1 -2 0 0 0 0];

internalField   nonuniform List<scalar> 
320
(
14724.8
14724.8
14724.8
14724.8
4.95237
4.951
4.95092
4.95293
4.9523
4.9524
4.95183
4.95122
4.95088
4.95111
4.95126
4.95261
4914.87
4914.87
4914.85
4914.86
4914.8
4914.84
4914.84
4914.87
4914.87
4914.87
4914.84
4914.83
14724.8
14724.8
14724.8
14724.8
14724.8
14724.8
14724.8
14724.8
14724.8
14724.8
14724.8
14724.8
24534.8
24534.8
24534.8
24534.8
24534.8
24534.8
24534.8
24534.8
24534.8
24534.8
24534.8
24534.8
24534.8
24534.8
24534.8
24534.8
4.95238
4.95274
4.95201
4.95231
4.95243
4.95175
4.95339
4.95253
4.95448
4.95408
4.95299
4.95146
4.95191
4.95114
4.95153
4.95108
4.95124
4.95158
4.9526
4.9523
4914.81
4914.86
4914.87
4914.85
4914.84
4914.82
4914.81
4914.8
4914.87
4914.82
4914.84
4914.82
4914.86
4914.84
4914.86
4914.83
4914.84
4914.8
4914.8
4914.84
14724.8
14724.8
14724.8
14724.8
14724.8
14724.8
14724.8
14724.8
14724.8
14724.8
14724.8
14724.8
14724.8
14724.8
14724.8
14724.8
14724.8
14724.8
14724.8
14724.8
24534.8
24534.8
24534.8
24534.8
24534.8
24534.8
24534.8
24534.8
24534.8
24534.8
24534.8
24534.8
24534.8
24534.8
24534.8
24534.8
24534.8
24534.8
24534.8
24534.8
34344.8
34344.8
34344.8
34344.8
34344.8
34344.8
34344.8
34344.8
34344.8
34344.8
34344.8
34344.8
34344.8
34344.8
34344.8
34344.8
34344.8
34344.8
34344.8
34344.8
34344.8
34344.8
34344.8
34344.8
34344.8
34344.8
34344.8
34344.8
34344.8
34344.8
34344.8
34344.8
34344.8
34344.8
34344.8
34344.8
4.95202
4.95193
4.95205
4.95327
4.95401
4.95364
4.95544
4.95104
4.95287
4.95141
4.95361
4.95442
4.95496
4.95448
4.95319
4.95591
4.95125
4.95473
4.95184
4.95228
4.95305
4.95113
4.95077
4.95065
4.95129
4.95139
4.9517
4.95285
4914.86
4914.81
4914.85
4914.84
4914.82
4914.81
4914.8
4914.85
4914.82
4914.81
4914.84
4914.88
4914.82
4914.82
4914.85
4914.82
4914.87
4914.82
4914.8
4914.86
4914.86
4914.88
4914.82
4914.85
4914.81
4914.8
4914.87
4914.9
14724.8
14724.8
14724.8
14724.8
14724.8
14724.8
14724.8
14724.8
14724.8
14724.8
14724.8
14724.8
14724.8
14724.8
14724.8
14724.8
14724.8
14724.8
14724.8
14724.8
14724.8
14724.8
14724.8
14724.8
14724.8
14724.8
14724.8
14724.8
24534.8
24534.8
24534.8
24534.8
24534.8
24534.8
24534.8
24534.8
24534.8
24534.8
24534.8
24534.8
24534.8
24534.8
24534.8
24534.8
24534.8
24534.8
24534.8
24534.8
24534.8
24534.8
24534.8
24534.8
24534.8
24534.8
24534.8
24534.8
34344.8
34344.8
34344.8
34344.8
34344.8
34344.8
34344.8
34344.8
34344.8
34344.8
34344.8
34344.8
34344.8
34344.8
34344.8
34344.8
34344.8
34344.8
34344.8
34344.8
34344.8
34344.8
34344.8
34344.8
34344.8
34344.8
34344.8
34344.8
4.95157
4.95158
4.95062
4.95161
4914.86
4914.83
4914.87
4914.82
)
;

boundaryField
{
    top_fluid_surface
    {
        type            calculated;
        value           nonuniform List<scalar> 
64
(
-1.71715e-08
-8.53346e-09
-2.12057e-09
-4.14256e-11
0
-2.07825e-09
-6.70913e-09
-7.25014e-10
-2.44918e-08
-2.01225e-08
0
-1.16332e-10
0
-1.94429e-09
-7.16365e-09
-7.89273e-10
0
0
0
0
-7.22025e-09
0
0
0
-1.13435e-08
0
-4.67112e-11
0
0
0
0
0
-2.79547e-09
0
-3.43279e-09
0
0
0
-2.02883e-08
-1.52866e-09
0
0
-3.77572e-09
-1.03132e-08
0
0
-4.91753e-10
-2.18016e-08
-1.9924e-08
-2.43374e-08
0
-1.58936e-09
-1.47352e-08
-4.03052e-09
0
-1.0574e-08
0
0
-4.87178e-09
-3.19644e-08
-1.06721e-08
0
-1.63744e-09
0
)
;
    }
    bottom_fluid_surface
    {
        type            calculated;
        value           nonuniform List<scalar> 
64
(
39249.8
39249.8
39249.8
39249.8
39249.8
39249.8
39249.8
39249.8
39249.8
39249.8
39249.8
39249.8
39249.8
39249.8
39249.8
39249.8
39249.8
39249.8
39249.8
39249.8
39249.8
39249.8
39249.8
39249.8
39249.8
39249.8
39249.8
39249.8
39249.8
39249.8
39249.8
39249.8
39249.8
39249.8
39249.8
39249.8
39249.8
39249.8
39249.8
39249.8
39249.8
39249.8
39249.8
39249.8
39249.8
39249.8
39249.8
39249.8
39249.8
39249.8
39249.8
39249.8
39249.8
39249.8
39249.8
39249.8
39249.8
39249.8
39249.8
39249.8
39249.8
39249.8
39249.8
39249.8
)
;
    }
    lateral_surface_1
    {
        type            calculated;
        value           nonuniform List<scalar> 
40
(
4.95202
4.95193
4.95205
4.95327
4.95401
4.95364
4.95544
4.95285
4914.86
4914.81
4914.85
4914.84
4914.82
4914.81
4914.8
4914.9
14724.8
14724.8
14724.8
14724.8
14724.8
14724.8
14724.8
14724.8
24534.8
24534.8
24534.8
24534.8
24534.8
24534.8
24534.8
24534.8
34344.8
34344.8
34344.8
34344.8
34344.8
34344.8
34344.8
34344.8
)
;
    }
    lateral_surface_2
    {
        type            calculated;
        value           nonuniform List<scalar> 
40
(
4.95448
4.95319
4.95591
4.95125
4.95473
4.95184
4.95228
4.95305
4914.82
4914.85
4914.82
4914.87
4914.82
4914.8
4914.86
4914.86
14724.8
14724.8
14724.8
14724.8
14724.8
14724.8
14724.8
14724.8
24534.8
24534.8
24534.8
24534.8
24534.8
24534.8
24534.8
24534.8
34344.8
34344.8
34344.8
34344.8
34344.8
34344.8
34344.8
34344.8
)
;
    }
    lateral_surface_3
    {
        type            calculated;
        value           nonuniform List<scalar> 
40
(
4.95544
4.95104
4.95287
4.95141
4.95361
4.95442
4.95496
4.95448
4914.8
4914.85
4914.82
4914.81
4914.84
4914.88
4914.82
4914.82
14724.8
14724.8
14724.8
14724.8
14724.8
14724.8
14724.8
14724.8
24534.8
24534.8
24534.8
24534.8
24534.8
24534.8
24534.8
24534.8
34344.8
34344.8
34344.8
34344.8
34344.8
34344.8
34344.8
34344.8
)
;
    }
    lateral_surface_4
    {
        type            calculated;
        value           nonuniform List<scalar> 
40
(
4.95305
4.95113
4.95077
4.95065
4.95129
4.95139
4.9517
4.95285
4914.86
4914.88
4914.82
4914.85
4914.81
4914.8
4914.87
4914.9
14724.8
14724.8
14724.8
14724.8
14724.8
14724.8
14724.8
14724.8
24534.8
24534.8
24534.8
24534.8
24534.8
24534.8
24534.8
24534.8
34344.8
34344.8
34344.8
34344.8
34344.8
34344.8
34344.8
34344.8
)
;
    }
}


// ************************************************************************* //
