/*--------------------------------*- C++ -*----------------------------------*\
| =========                 |                                                 |
| \\      /  F ield         | OpenFOAM: The Open Source CFD Toolbox           |
|  \\    /   O peration     | Version:  v1612+                                |
|   \\  /    A nd           | Web:      www.OpenFOAM.com                      |
|    \\/     M anipulation  |                                                 |
\*---------------------------------------------------------------------------*/
FoamFile
{
    version     2.0;
    format      ascii;
    class       surfaceScalarField;
    location    "5.35";
    object      alphaPhi;
}
// * * * * * * * * * * * * * * * * * * * * * * * * * * * * * * * * * * * * * //

dimensions      [0 3 -1 0 0 0 0];

internalField   nonuniform List<scalar> 
2916
(
2.71438e-07
-0.030809
0.0197222
7.75944e-07
-0.0308108
0.019723
-2.82272e-06
-0.0308098
0.0197249
-5.56598e-06
-0.0308093
0.0197241
-3.81629e-06
-0.0308097
0.0197217
-0.0308081
0.0197196
-2.60525e-06
-0.121115
0.0858129
7.57052e-07
-0.121114
0.0858107
-1.42663e-06
-0.121113
0.0858125
-2.78606e-06
-0.121113
0.0858115
5.53587e-07
-0.121114
0.0858097
-0.121113
0.0858114
-1.30658e-05
-0.444585
0.19333
4.91696e-06
-0.444543
0.193318
4.40768e-06
-0.444554
0.193323
-2.18914e-06
-0.444559
0.193327
4.55259e-06
-0.444549
0.193321
-0.444574
0.193326
-4.52259e-05
-1.49261
0.263984
1.19969e-05
-1.49263
0.263921
1.11446e-05
-1.4926
0.26395
-5.76374e-06
-1.4926
0.263962
1.52245e-05
-1.49261
0.263937
-1.49261
0.263971
-7.63098e-05
-1.69056
0.197321
1.68387e-05
-1.69064
0.197207
1.41563e-05
-1.69057
0.197263
-8.77531e-06
-1.69056
0.197281
2.3609e-05
-1.69059
0.197239
-1.69059
0.197301
-8.67478e-05
-1.78081
0.0895295
1.00892e-05
-1.781
0.0894615
9.11608e-06
-1.78088
0.0895048
-5.14755e-06
-1.78087
0.0895145
3.09637e-05
-1.78092
0.0894907
-1.78088
0.0895099
-1.63666e-05
-1.70261
-0.0790827
1.05985e-05
-1.70292
-0.0790037
-8.74147e-07
-1.70276
-0.079007
3.68526e-07
-1.70275
-0.0790204
9.00479e-06
-1.70283
-0.0789956
-1.70268
-0.0790812
0.000160585
-1.45489
-0.248509
2.66702e-05
-1.4552
-0.248214
-2.3545e-05
-1.45504
-0.248295
-1.98914e-06
-1.45505
-0.248347
-7.23221e-05
-1.45514
-0.248248
-1.45492
-0.248467
0.000330687
-1.12123
-0.331244
2.7213e-05
-1.12127
-0.330885
-5.88192e-05
-1.12122
-0.330992
-2.28942e-05
-1.12128
-0.331057
-0.000146915
-1.12135
-0.330919
-1.12111
-0.33121
0.000380344
-0.77638
-0.338887
-1.30622e-05
-0.776073
-0.33848
-0.000124673
-0.776159
-0.338618
-5.34172e-05
-0.776332
-0.33869
-8.58876e-05
-0.776422
-0.338569
-0.776041
-0.338815
0.000123419
-0.310098
-0.458387
-4.03919e-05
-0.309813
-0.458083
-9.03423e-05
-0.309899
-0.458195
-5.82527e-05
-0.310072
-0.458275
-0.000104095
-0.310088
-0.458272
-0.309846
-0.458281
-0.000153313
-0.299717
-1.96272e-05
-0.299726
6.11877e-05
-0.299757
-3.31366e-05
-0.299751
-0.000205981
-0.299687
-0.299827
1.07308e-06
-0.00178442
-0.000274605
-9.14247e-08
-0.00178357
-0.000274407
-2.8188e-07
-0.00178395
-0.000274601
-6.877e-08
-0.0017845
-0.000274473
-4.65317e-07
-0.00178408
-0.000274349
-0.00178391
-0.000274446
2.50075e-06
0.0046961
-0.00230631
5.28451e-07
0.00472327
-0.00230462
-3.47527e-06
0.00470951
-0.00230649
-1.22103e-06
0.00470776
-0.0023042
-2.80028e-08
0.00471649
-0.0023036
0.00470387
-0.00230562
1.83274e-06
-0.42878
0.0140892
9.00275e-07
-0.428932
0.0141606
-9.21826e-06
-0.428858
0.0141307
-9.25679e-07
-0.428824
0.0141208
8.07776e-06
-0.428866
0.0141388
-0.428828
0.0141074
0.000102555
-1.7074
0.0809112
1.19293e-05
-1.70771
0.0810632
-2.18859e-05
-1.70754
0.0810096
3.47739e-06
-1.70752
0.0809723
-4.92082e-05
-1.7076
0.0810243
-1.70749
0.080951
0.000171375
-1.87747
-0.0094913
1.17281e-05
-1.87758
-0.00916231
-2.51163e-05
-1.87751
-0.00928236
8.76481e-06
-1.87752
-0.00934502
-9.82154e-05
-1.87753
-0.00922472
-1.87753
-0.00940467
0.000163883
-1.61583
-0.165125
1.32091e-06
-1.61605
-0.164803
-2.83073e-05
-1.61594
-0.164917
1.11786e-05
-1.61594
-0.164976
-9.17814e-05
-1.61595
-0.164864
-1.61592
-0.16505
0.000138003
-1.14961
-0.327721
-1.71795e-05
-1.14998
-0.327443
-3.77663e-05
-1.14984
-0.327542
1.54915e-05
-1.14981
-0.327599
-4.31444e-05
-1.14986
-0.3275
-1.14971
-0.32767
1.79379e-05
-0.535805
-0.349619
-3.77905e-05
-0.536019
-0.349546
-4.23353e-05
-0.53596
-0.349571
-2.50923e-07
-0.535923
-0.349597
4.87184e-05
-0.535974
-0.349554
-0.535798
-0.34962
-0.000178254
-0.0983713
-0.245979
-4.68355e-05
-0.0982029
-0.246023
-1.95e-05
-0.0982826
-0.246006
-2.30179e-06
-0.098248
-0.246015
0.000145287
-0.0981964
-0.246007
-0.0983088
-0.245969
-0.000136058
0.0109165
-0.0587872
-4.92039e-05
0.0113146
-0.0587233
-5.1162e-05
0.0111438
-0.0587475
-2.17738e-05
0.0112109
-0.0587536
0.000363773
0.0112072
-0.0587418
0.0110373
-0.0587525
-0.000286097
-0.142226
-0.0597031
4.91005e-05
-0.142214
-0.0596948
0.000184554
-0.142247
-0.0597047
-4.18061e-06
-0.142126
-0.0595979
-0.000115985
-0.142417
-0.0594682
-0.142122
-0.059859
0.000180396
-0.0140767
-2.69006e-06
-0.0136149
-6.45557e-05
-0.0137061
1.75074e-05
-0.013914
4.39973e-05
-0.0140796
-0.0135614
-5.23763e-07
-0.000718845
0.000123639
-6.36033e-08
-0.000723281
0.000124126
-1.64313e-07
-0.000720928
0.000123793
-9.82658e-08
-0.000721515
0.000123984
1.90916e-07
-0.000722639
0.000124153
-0.000720277
0.000123839
4.68064e-06
-0.00486492
0.000340322
-7.11191e-07
-0.00487517
0.000351058
-5.06838e-06
-0.00486652
0.000345256
-1.92572e-06
-0.00487359
0.000346121
-1.83403e-06
-0.00487577
0.000349206
-0.00486797
0.00034331
4.98897e-05
-0.390912
0.000388721
-6.39251e-06
-0.391921
0.000410031
-2.23909e-05
-0.391465
0.000400142
-3.22673e-06
-0.391406
0.000399438
-1.38147e-05
-0.391666
0.00040542
-0.391171
0.000393972
-9.17951e-05
-0.912987
-0.000908657
2.71762e-06
-0.913427
-0.000910579
-2.12415e-05
-0.913256
-0.000909729
-1.69909e-05
-0.913231
-0.000908698
8.28962e-05
-0.913331
-0.000909239
-0.913138
-0.000909125
-0.000240673
-0.781539
-1.05151e-06
-1.23619e-05
-0.781581
-1.03851e-06
2.66576e-06
-0.781605
-1.04525e-06
-1.13386e-05
-0.781588
-1.03958e-06
0.00015737
-0.781575
-1.05016e-06
-0.781591
-1.04116e-06
-0.000298206
-0.425536
-5.64027e-06
-2.85702e-05
-0.425561
-5.6153e-06
-1.50681e-06
-0.425581
-5.60076e-06
-1.80461e-05
-0.425566
-5.62775e-06
0.000189286
-0.425574
-5.65579e-06
-0.425552
-5.62425e-06
-0.000228427
-0.00284637
-5.90811e-06
-3.36254e-05
-0.00284724
-5.95928e-06
-1.47497e-05
-0.00284694
-5.85998e-06
-2.06678e-05
-0.00284829
-5.88608e-06
0.00015501
-0.00287357
-5.97503e-06
-0.00283031
-6.1599e-06
-0.000107559
0.0790701
-8.0838e-06
-2.22114e-05
0.0790725
-8.32973e-06
-1.15781e-05
0.0790792
-8.14848e-06
-1.16276e-05
0.0790713
-8.04119e-06
7.21274e-05
0.0790525
-7.98981e-06
0.0790662
-8.66814e-06
-2.53885e-05
0.0684792
-2.61625e-05
-9.83468e-06
0.0683857
-2.65665e-05
-3.81626e-06
0.0684263
-2.64877e-05
-5.47232e-06
0.0684343
-2.60864e-05
1.00504e-05
0.0684175
-2.56951e-05
0.0684104
-2.69226e-05
-3.81096e-06
0.00960293
-4.05923e-05
2.52631e-06
0.00954033
-3.2595e-05
8.63764e-06
0.0095578
-3.54288e-05
7.71256e-07
0.00959119
-3.97607e-05
-1.31371e-05
0.0096331
-4.80015e-05
0.00951613
-2.54385e-05
-0.000248142
0.016709
-0.0116679
8.51609e-05
0.0162164
-0.0124046
0.000332894
0.0163602
-0.0122652
7.3066e-05
0.0166977
-0.0116722
-0.000702024
0.0169041
-0.0109551
0.0160609
-0.012906
9.69498e-05
-0.00424527
-3.22164e-05
-0.00421635
-0.000103332
-0.00421305
2.44955e-06
-0.00423935
0.000238276
-0.0043164
-0.00416734
-2.53554e-07
-5.53953e-05
8.21964e-05
-3.14589e-08
-5.69014e-05
8.27328e-05
-5.22599e-08
-5.60327e-05
8.23644e-05
-3.75037e-08
-5.63055e-05
8.25734e-05
9.81183e-08
-5.66839e-05
8.27278e-05
-5.58053e-05
8.23559e-05
1.65149e-06
-0.0122895
0.00347971
-3.2926e-07
-0.012313
0.00348562
-1.98419e-06
-0.0122974
0.00348101
-1.18003e-06
-0.0123085
0.00348446
-1.00754e-06
-0.0123161
0.00348664
-0.0122983
0.00348153
9.7133e-06
0.000208584
-0.000651859
-8.65631e-07
0.000208685
-0.000653533
-2.34591e-06
0.000208618
-0.000654039
-1.95448e-06
0.000208729
-0.000651196
-6.34669e-06
0.000208784
-0.000651885
0.000208675
-0.000651969
5.47244e-09
-7.62168e-07
-0.000699624
-3.48727e-10
-7.61289e-07
-0.000701459
-3.98058e-09
-7.61444e-07
-0.000700683
-2.56625e-09
-7.61889e-07
-0.000699544
-2.13525e-09
-7.62259e-07
-0.00070003
-7.62457e-07
-0.000699983
-7.64401e-10
1.03185e-06
-3.17444e-06
6.77187e-11
1.03105e-06
-3.17444e-06
-2.56647e-10
1.03196e-06
-3.17219e-06
-8.98899e-11
1.03121e-06
-3.17566e-06
1.01089e-09
1.03044e-06
-3.17855e-06
1.03167e-06
-3.17248e-06
3.30426e-10
2.74053e-06
-7.65776e-06
-2.28474e-10
2.73815e-06
-7.6515e-06
-5.41555e-10
2.73857e-06
-7.64994e-06
-2.1165e-10
2.7392e-06
-7.6706e-06
9.02252e-10
2.73934e-06
-7.70672e-06
2.74013e-06
-7.62484e-06
2.26594e-09
3.56742e-06
-6.99386e-06
-4.05124e-10
3.56986e-06
-6.98894e-06
-1.20707e-09
3.56399e-06
-6.97844e-06
-5.0143e-10
3.56554e-06
-7.00766e-06
8.53228e-10
3.57077e-06
-7.10041e-06
3.58369e-06
-7.00474e-06
2.12087e-09
3.20876e-06
-8.3009e-06
-1.13709e-11
3.21914e-06
-8.40656e-06
-3.23202e-10
3.20772e-06
-8.38078e-06
-2.5628e-10
3.20593e-06
-8.28881e-06
-7.38397e-10
3.20784e-06
-8.20308e-06
3.24155e-06
-8.48139e-06
-4.29069e-09
1.73052e-06
-2.6191e-05
2.23474e-09
1.71884e-06
-2.65579e-05
6.49501e-09
1.72053e-06
-2.65224e-05
1.17818e-09
1.72876e-06
-2.61245e-05
-1.69503e-08
1.7394e-06
-2.57185e-05
1.71936e-06
-2.69014e-05
-8.90038e-07
-2.67569e-05
-1.3117e-05
2.97917e-07
-2.66512e-05
-7.4555e-06
1.09216e-06
-2.77877e-05
-8.63748e-06
2.94404e-07
-2.62837e-05
-1.28674e-05
-3.03084e-06
-2.63639e-05
-1.85247e-05
-2.53391e-05
-3.70212e-06
2.18144e-05
-0.0126235
0.000770754
-6.40199e-06
-0.013316
0.000761628
-2.59007e-05
-0.0131875
0.000760713
-8.80342e-06
-0.012635
0.000779499
5.80713e-05
-0.0119541
0.000799157
-0.0137715
0.00074105
0.000474243
-0.0686098
-0.000155156
-0.0688044
-0.000587107
-0.0687377
-0.000141805
-0.068552
0.00137018
-0.0683646
-0.0689082
-0.0316434
-0.197582
0.0486982
-0.00748701
-0.227687
0.0705116
-0.0175209
-0.163395
0.027728
-0.0362651
-0.202376
0.090159
0.0852268
-0.223428
0.110751
-0.132734
0.0981663
-0.0008778
-0.216927
0.0506593
-0.00686953
-0.243311
0.0463903
0.0159922
-0.220425
0.0557741
0.0194611
-0.24195
0.054353
-0.00785206
-0.238961
0.0600473
-0.21952
0.0862773
0.00011432
-0.0852741
0.0173467
-0.00492871
-0.0716644
0.0164403
-0.00499669
-0.123388
0.0181044
-0.00432689
-0.14429
0.0183784
-0.00831519
-0.0939135
0.0152814
-0.223715
0.0190023
0.000333096
-0.156591
0.00490826
-0.000207711
-0.150204
0.00526075
-0.00141554
-0.0730232
0.00422413
-0.00327815
-0.233773
0.0045332
-0.00259423
-0.298018
0.00271494
-0.131178
0.000607167
0.00193103
-0.332836
-8.90791e-05
0.00180579
-0.33624
-7.94042e-05
-0.00165761
-0.225379
-5.9353e-05
-0.00416374
-0.323326
-0.00011626
-0.000992103
-0.384588
-0.000121629
-0.200504
-2.41103e-05
0.001503
-0.340888
-0.000606872
0.00320811
-0.344985
-0.000418641
0.00410045
-0.315141
-0.000337062
-0.00135051
-0.347667
-0.000887428
-0.00669577
-0.375476
-0.000934016
-0.260741
-0.00029546
0.00349297
-0.328909
-0.00843552
0.00210113
-0.339044
-0.006375
0.00479089
-0.354268
-0.00540684
0.00123325
-0.326764
-0.00970505
-0.012816
-0.28214
-0.00856464
-0.296821
-0.00515088
0.00704604
-0.341594
-0.0365899
0.00722667
-0.34381
-0.03132
0.0129185
-0.341111
-0.0245828
0.0124756
-0.330684
-0.0394432
-0.0172147
-0.300692
-0.0156484
-0.31856
-0.0290905
0.0020632
-0.213178
-0.128661
0.0126598
-0.223882
-0.128771
0.0399644
-0.239327
-0.123657
0.0304537
-0.216789
-0.10404
-0.0590928
-0.191211
-0.0440947
-0.21166
-0.209474
-0.0110616
0.0381033
-0.238465
-0.00151572
0.0247784
-0.252774
0.0564997
-0.00378212
-0.288681
0.0163497
0.0216076
-0.192815
-0.0917227
0.00994678
-0.115336
-0.0264829
-0.26295
-0.000559259
0.0216084
-0.0392208
0.0113201
0.0219399
-0.0806947
0.0543091
0.0257177
-0.255715
0.0403512
0.035459
-0.0654507
-0.0526017
0.0776912
-0.0416481
0.0190992
-0.0945936
-0.00186571
0.0190004
-0.00269106
0.0182866
0.00517357
0.00882739
0.00515809
0.0201356
0.00908954
0.0320936
0.0202893
-0.00792149
-0.0974941
0.0411117
-0.0105872
-0.0919196
0.0593878
-0.00874004
-0.0934091
0.0460048
-0.00634715
-0.0997117
0.0786673
0.0168403
-0.076709
0.11459
-0.088755
0.0799488
-7.61855e-05
-0.0171176
0.00649801
-0.000853449
-0.0160444
0.00590817
0.000949709
-0.0173789
0.00843118
-2.44985e-05
-0.0181634
0.0076944
-0.00202459
-0.0171394
0.00425982
-0.0185929
0.0112573
-2.33222e-06
-0.00254548
0.000216912
-3.54272e-05
-0.00275747
0.00021832
-0.000215444
-0.00212728
0.000187787
-0.000203749
-0.00273692
0.00023147
-5.6425e-05
-0.00257368
0.000216594
-0.000317264
0.000223393
1.00259e-05
4.27333e-05
-4.94573e-06
1.91484e-05
4.74588e-05
-4.79386e-06
3.67284e-05
3.29985e-05
-5.2023e-06
4.5514e-05
4.40694e-05
-4.87537e-06
-2.51581e-06
4.08146e-05
-2.86657e-06
1.74243e-06
-7.35073e-06
-1.99575e-08
-4.50129e-05
-1.0126e-06
-7.95711e-08
-3.07306e-05
-8.81879e-07
-3.33325e-08
-2.53472e-05
-8.08492e-07
-1.53532e-07
-7.07382e-05
-1.0231e-06
-1.66047e-07
-7.98575e-05
-7.59156e-07
-2.14798e-05
-5.93059e-07
-4.84625e-07
-0.000650945
-2.39606e-07
-1.09233e-06
-0.000448345
-2.01911e-07
-5.12671e-06
-0.000357969
-1.81785e-07
-5.58096e-06
-0.00095709
-3.82784e-07
-1.13471e-07
-0.00101822
-9.83026e-07
-0.000316504
-2.77225e-07
-6.9333e-06
-0.00907678
-2.67478e-06
-1.91534e-05
-0.00680929
-1.72309e-06
-0.000129271
-0.00565339
-1.19833e-06
-8.96361e-05
-0.010695
-6.73414e-06
1.11161e-05
-0.0096695
-1.42791e-05
-0.00545383
-2.34245e-06
-0.000173209
-0.0300979
-0.000106321
-0.000261557
-0.0244629
-4.91842e-05
-0.00134808
-0.0304653
-4.19106e-05
-0.000979921
-0.0232247
-0.000250317
-0.000234823
-0.014541
-0.000180877
-0.0243864
-8.93301e-05
-0.0027435
-0.137489
-0.00940701
-0.00777657
-0.0920469
-0.0063459
-0.0166019
-0.0860017
-0.00549803
-0.00328745
-0.0790563
-0.01089
-0.00522986
-0.0310624
-0.00474946
-0.120471
-0.00885845
-0.00148687
-0.182454
-0.169957
-0.0102148
-0.174103
-0.125578
-0.0195063
-0.212073
-0.151521
-0.00517526
-0.172064
-0.13401
-0.0113541
-0.0582395
-0.0802182
-0.218641
-0.148895
0.0266307
-0.00647801
-0.246203
0.0338001
-0.00709951
-0.360165
0.0723528
-0.038134
-0.407507
0.0106297
-0.033327
-0.233472
-0.0184224
-0.00914138
-0.107338
-0.0425669
-0.362021
0.00295685
0.00499963
0.00638994
0.00318809
0.0499749
-0.127345
0.0069072
0.0140822
-0.00457111
0.0244729
-0.0372296
-0.000882382
-0.00637337
0.00134147
-0.00185893
-0.00583271
0.000950344
-0.00316407
-0.0081894
0.00605056
-0.00172172
-0.00755564
0.00207815
0.00748937
-0.0045122
3.44681e-05
-0.01051
0.0191875
-1.76986e-05
-0.000222817
0.000296829
-7.01826e-05
-0.000223892
0.0002795
-5.14632e-06
-0.000195738
0.000313566
-3.2641e-06
-0.000238055
0.000306983
-0.000391884
-0.000219877
0.00028293
-0.000237653
0.000551533
-3.13732e-07
-7.05882e-07
-3.79413e-06
4.79185e-07
-7.82732e-07
-4.46786e-06
-6.21634e-07
-7.5434e-07
-4.98643e-06
-1.1803e-06
-5.00659e-07
-4.5578e-06
1.42015e-07
-3.8681e-07
-3.8637e-06
-9.02914e-06
-2.09302e-06
-5.54251e-09
-3.51913e-07
-4.95916e-06
3.00546e-09
-4.74841e-07
-4.75435e-06
1.12037e-08
-4.96203e-07
-4.83472e-06
1.41634e-08
-1.6294e-07
-4.90145e-06
1.23406e-08
-1.77286e-07
-2.88599e-06
-4.70093e-07
-4.97199e-06
-2.59508e-09
-6.69655e-08
-1.01906e-06
-8.90846e-09
-8.24732e-08
-1.04423e-06
-1.60156e-09
-9.35276e-08
-1.0531e-06
7.42429e-10
-5.76982e-08
-8.86626e-07
3.54477e-09
-1.04461e-07
-6.9144e-07
-8.89786e-08
-1.02881e-06
-6.54879e-10
-6.09924e-08
-4.50194e-08
-1.11504e-09
-4.16606e-08
-4.28718e-08
-2.18112e-09
-3.00086e-08
-4.0333e-08
-1.59738e-09
-1.54535e-07
-5.79688e-08
5.28433e-09
-8.99589e-07
-9.43714e-08
-5.12607e-08
-6.4673e-08
-2.58206e-09
-2.7259e-06
-7.41653e-09
-1.69135e-09
-1.75915e-06
-6.7382e-09
-1.72774e-08
-1.2068e-06
-6.09003e-09
-9.0252e-08
-6.81075e-06
-5.50774e-09
1.84869e-07
-1.54528e-05
-2.0814e-09
-2.20246e-06
-6.35028e-09
-1.19949e-07
-0.000108931
-3.14705e-11
-3.46605e-08
-5.10317e-05
-4.63531e-10
-1.16632e-06
-4.2004e-05
-2.45868e-11
-5.20868e-06
-0.000253116
-1.43447e-09
4.88914e-06
-0.000206149
-1.52961e-09
-8.66166e-05
-1.77542e-11
-9.48134e-06
-0.0094435
-6.40144e-05
-2.31683e-05
-0.00634469
-3.68409e-05
-0.000217553
-0.0053226
-2.14763e-05
-0.000224049
-0.0110662
-6.91239e-05
0.000227475
-0.00525935
-0.000140491
-0.0086665
-4.31032e-05
-0.000169663
-0.15119
-0.00685801
-0.000822622
-0.0875638
-0.00299695
-0.00448863
-0.106429
-0.0031429
-0.00267233
-0.126098
-0.00786723
0.00118898
-0.0823777
-0.00960323
-0.109915
-0.00696022
0.0047222
-0.0760505
-0.167488
-0.0192943
-0.0656462
-0.192747
-0.0833225
-0.134753
-0.242004
-0.0389146
-0.0637552
-0.197744
0.0284947
-0.00808301
-0.150159
-0.113929
-0.276776
0.0354879
-0.132194
0.0335943
-0.150635
-0.0102477
-0.1943
-0.000952019
-0.0687909
0.001539
0.00632631
-0.17524
0.000254324
-0.000113621
0.00133284
9.15e-05
-0.000146005
0.00136455
0.000246161
-0.00012203
0.00129768
0.00125771
-0.000204687
0.00136579
0.000549412
-0.00024635
0.0010687
-0.000341024
0.00245383
-1.73233e-06
-4.71065e-05
0.000189484
-3.08011e-06
-3.752e-05
0.000152881
-3.7054e-06
-5.51097e-05
0.00020584
3.34843e-07
-3.41946e-05
0.000154206
-1.49097e-05
-2.31262e-05
9.50557e-05
-6.68423e-05
0.000296954
6.24315e-09
-1.45554e-05
2.96432e-06
9.67927e-07
-1.29769e-05
1.45967e-06
-4.02142e-07
-1.53387e-05
1.59719e-06
4.91325e-07
-1.16344e-05
5.69238e-07
1.55694e-07
-6.54842e-06
1.19538e-06
-1.44395e-05
2.23702e-06
6.45789e-09
-2.3888e-06
-7.55383e-07
1.06307e-07
-2.28664e-06
-7.20273e-07
-1.88725e-08
-2.4754e-06
-6.90322e-07
1.76429e-07
-1.95649e-06
-8.34385e-07
2.71679e-07
-1.2548e-06
-7.31906e-07
-2.82115e-06
-9.57286e-07
1.82712e-09
-1.76478e-07
-1.29242e-07
8.68e-09
-1.79546e-07
-1.44579e-07
-4.30866e-09
-1.85463e-07
-1.51651e-07
3.84751e-09
-1.46631e-07
-8.49953e-08
1.84855e-08
-1.17994e-07
-8.08153e-08
-2.09541e-07
-1.25239e-07
2.88647e-11
-7.01119e-10
-2.34281e-08
3.51955e-11
-1.01001e-09
-2.19087e-08
-3.10328e-10
-1.08301e-09
-2.27911e-08
-1.26212e-10
-7.65666e-10
-2.464e-08
9.13082e-10
-7.41026e-10
-1.73715e-08
-8.531e-10
-2.25602e-08
-9.85087e-13
-3.08404e-12
-8.40305e-09
1.20893e-12
-3.57744e-12
-8.14616e-09
2.53388e-12
-2.68193e-12
-7.48351e-09
7.76663e-13
-6.66372e-12
-6.77115e-09
4.17087e-12
-4.88394e-12
-3.11408e-09
-1.70455e-12
-7.27401e-09
-6.92243e-13
8.16398e-12
-2.54615e-10
4.99793e-13
1.15367e-10
-7.32204e-10
5.45915e-13
9.69567e-12
-2.60293e-10
-5.78353e-13
8.98164e-11
-1.67817e-09
2.87443e-12
9.6718e-11
-1.64652e-09
4.52867e-12
-7.46245e-11
-3.50587e-08
-6.34148e-05
-5.64642e-07
2.94139e-08
-3.62116e-05
-6.93828e-07
-1.27578e-08
-2.11687e-05
-2.70207e-07
-4.56697e-07
-6.7355e-05
-1.32502e-06
2.89973e-07
-0.000138957
-2.2881e-06
-4.25511e-05
-2.48113e-07
-8.33527e-06
-0.00663955
-0.000274699
8.83757e-06
-0.00280557
-0.000243059
4.20786e-05
-0.00299998
-0.000194245
2.6045e-05
-0.00743818
-0.000479142
-6.21355e-05
-0.00907987
-0.000567539
-0.0067929
-0.000267722
-0.000715094
-0.128513
-0.0282441
-0.00391069
-0.135163
-0.0178937
-0.0078567
-0.127267
-0.0194158
-0.00770137
-0.160417
-0.0243138
0.00401531
-0.123953
-0.0243559
-0.143632
-0.0279003
-0.00796322
-0.223708
-0.0349227
-0.232488
-0.0970473
-0.235012
-0.0757694
-0.222674
0.0771197
-0.240508
-0.208728
-1.98057e-08
1.77743e-05
-5.53166e-06
-3.35482e-09
1.7832e-05
-5.87194e-06
-3.05926e-09
1.77928e-05
-5.68698e-06
-3.18683e-09
1.78244e-05
-5.72246e-06
6.63833e-09
1.7847e-05
-5.82003e-06
1.78021e-05
-5.63943e-06
-1.0091e-09
7.20947e-06
3.99256e-06
-4.80976e-11
7.21277e-06
4.00309e-06
3.54399e-11
7.21455e-06
3.99395e-06
-9.1847e-11
7.2188e-06
4.00041e-06
3.50201e-10
7.2231e-06
4.00332e-06
7.22374e-06
3.99384e-06
-7.93433e-11
3.34569e-07
1.18968e-11
3.36062e-07
2.965e-11
3.35057e-07
5.33131e-12
3.35681e-07
2.47362e-11
3.36104e-07
3.3516e-07
6.8039e-08
9.08903e-05
-0.000440089
-5.12425e-08
9.11339e-05
-0.000442944
9.46421e-08
9.09795e-05
-0.000440849
-8.07697e-08
9.10482e-05
-0.000442295
-1.90995e-07
9.1132e-05
-0.000443345
9.09726e-05
-0.00044143
-7.38138e-09
1.46946e-05
6.89977e-05
6.43478e-10
1.47254e-05
6.9134e-05
3.0197e-08
1.47089e-05
6.90105e-05
5.92854e-09
1.472e-05
6.91055e-05
-7.38158e-09
1.47336e-05
6.91461e-05
1.47143e-05
6.9023e-05
-1.89826e-10
2.79056e-06
1.11399e-10
2.79719e-06
9.01626e-10
2.79219e-06
2.85909e-10
2.79532e-06
-1.47574e-10
2.79736e-06
2.79277e-06
8.74976e-07
-6.42236e-05
-0.000518293
9.66227e-08
-6.44087e-05
-0.000519579
3.26016e-07
-6.42427e-05
-0.000518667
-1.27527e-07
-6.4398e-05
-0.000518717
-8.67087e-07
-6.44567e-05
-0.00051925
-6.42769e-05
-0.000518964
9.44804e-09
-2.685e-06
1.16022e-05
2.89195e-09
-2.68483e-06
1.1569e-05
1.4476e-08
-2.68092e-06
1.15849e-05
5.66243e-09
-2.69085e-06
1.15647e-05
-8.07085e-09
-2.691e-06
1.15523e-05
-2.68669e-06
1.15788e-05
5.31428e-12
1.24111e-06
7.94167e-11
1.24122e-06
5.36531e-10
1.24098e-06
2.72616e-10
1.24084e-06
-9.93845e-12
1.2409e-06
1.24134e-06
1.39581e-07
-1.95004e-05
-1.31277e-05
4.57045e-08
-1.95616e-05
-1.31195e-05
7.23974e-08
-1.95503e-05
-1.30964e-05
2.81711e-08
-1.9479e-05
-1.31382e-05
-1.07963e-07
-1.94932e-05
-1.31434e-05
-1.95129e-05
-1.30555e-05
8.11222e-10
-3.03053e-06
1.91437e-06
2.18713e-10
-3.02012e-06
1.90499e-06
4.33752e-10
-3.02294e-06
1.90905e-06
2.29354e-10
-3.02857e-06
1.91176e-06
-5.05168e-10
-3.02584e-06
1.90961e-06
-3.02861e-06
1.91077e-06
2.23533e-11
7.2452e-07
8.76269e-11
7.2606e-07
3.80244e-10
7.25023e-07
2.24317e-10
7.25377e-07
1.55197e-10
7.25757e-07
7.25356e-07
6.6392e-10
-5.24596e-06
-1.13683e-05
4.43255e-10
-5.25305e-06
-1.13736e-05
8.158e-10
-5.24378e-06
-1.13714e-05
5.31981e-10
-5.2586e-06
-1.13928e-05
-5.08131e-10
-5.26308e-06
-1.14021e-05
-5.24697e-06
-1.12773e-05
1.48631e-09
-2.9956e-06
5.56009e-06
4.62459e-10
-2.99638e-06
5.56024e-06
7.71333e-10
-2.99479e-06
5.55684e-06
5.08478e-10
-2.99741e-06
5.56621e-06
-1.02572e-09
-2.99766e-06
5.57594e-06
-2.9974e-06
5.55557e-06
7.20522e-12
3.13655e-07
1.93188e-11
3.15575e-07
4.42009e-11
3.1509e-07
3.22561e-11
3.13885e-07
4.35207e-11
3.14156e-07
3.14625e-07
6.40515e-10
-1.05301e-05
-7.40231e-06
8.23026e-10
-1.05212e-05
-7.38463e-06
1.34517e-09
-1.05237e-05
-7.37941e-06
3.82641e-10
-1.05301e-05
-7.43311e-06
-2.77313e-09
-1.05303e-05
-7.55779e-06
-1.05281e-05
-7.33667e-06
4.05279e-10
-3.56554e-06
3.49821e-06
2.25334e-09
-3.55514e-06
3.49644e-06
2.83539e-09
-3.56067e-06
3.49695e-06
1.44679e-09
-3.56163e-06
3.50192e-06
-3.5618e-09
-3.56635e-06
3.52001e-06
-3.56486e-06
3.48991e-06
9.76599e-12
1.3779e-06
2.27468e-11
1.39242e-06
3.69942e-11
1.38563e-06
1.8438e-11
1.38508e-06
-2.73501e-11
1.38927e-06
1.38218e-06
1.30481e-09
-1.14837e-05
3.44504e-07
9.51038e-10
-1.14664e-05
4.82526e-07
2.07605e-09
-1.14723e-05
4.62829e-07
1.7469e-11
-1.14847e-05
3.72892e-07
-7.14482e-09
-1.1502e-05
2.40734e-07
-1.14626e-05
4.22179e-07
-6.12166e-09
-2.86527e-06
-2.09956e-07
2.74656e-09
-2.86565e-06
-2.09488e-07
5.60983e-09
-2.86538e-06
-2.08789e-07
2.81045e-09
-2.86599e-06
-2.10439e-07
-8.13713e-09
-2.85754e-06
-2.1067e-07
-2.86844e-06
-2.09383e-07
-1.70083e-10
1.83863e-06
-6.34951e-11
1.86073e-06
1.03312e-10
1.85055e-06
1.12526e-10
1.84923e-06
1.13404e-10
1.85792e-06
1.8398e-06
3.14749e-09
-1.95896e-06
-6.98027e-06
1.78252e-09
-1.97118e-06
-6.98161e-06
5.05883e-09
-1.96589e-06
-6.9398e-06
5.4519e-10
-1.96585e-06
-6.91992e-06
-1.24476e-08
-1.98401e-06
-6.84295e-06
-1.96105e-06
-7.26244e-06
-2.08219e-09
-1.15758e-06
-1.9829e-07
1.02185e-09
-1.16391e-06
-2.00824e-07
2.26638e-09
-1.16018e-06
-2.01298e-07
4.35905e-10
-1.16243e-06
-1.91691e-07
-4.8637e-09
-1.1701e-06
-8.51071e-08
-1.15753e-06
-2.19959e-07
-1.30449e-10
5.80917e-07
4.80535e-11
5.86464e-07
1.36742e-10
5.83477e-07
1.07053e-10
5.83948e-07
-2.06417e-10
5.87275e-07
5.81068e-07
-2.03376e-08
-5.81497e-06
-2.84739e-05
2.14785e-08
-5.96009e-06
-2.88495e-05
7.2656e-08
-5.95086e-06
-2.87173e-05
8.68215e-09
-5.79777e-06
-2.83361e-05
-1.27242e-07
-5.60687e-06
-2.79975e-05
-6.07476e-06
-2.95827e-05
-3.4803e-08
-7.76463e-09
-6.53071e-06
2.284e-08
-8.04296e-09
-6.77047e-06
5.00789e-08
-7.75628e-09
-6.73205e-06
6.74143e-09
-7.81186e-09
-6.49904e-06
-1.22169e-07
-8.34926e-09
-6.11485e-06
-7.54251e-09
-6.9694e-06
-2.89469e-11
7.39295e-09
1.81498e-11
1.25091e-08
4.6727e-11
9.64745e-09
1.69626e-11
1.00578e-08
-1.31297e-10
1.31423e-08
7.33445e-09
-2.11532e-06
0.000278137
-0.000454902
6.75447e-07
0.000285535
-0.000477087
2.22962e-06
0.000283642
-0.000477049
7.77051e-07
0.00027771
-0.000458447
-5.70111e-06
0.000270297
-0.00041773
0.000290846
-0.000488149
-2.49878e-07
0.000562975
-0.00174683
-1.75887e-07
0.000565245
-0.00175435
-5.59001e-07
0.000564657
-0.00175278
6.3096e-09
0.000561175
-0.00174311
1.82169e-06
0.000556587
-0.00173126
0.000569736
-0.00176483
-4.12527e-08
2.24558e-05
2.96707e-08
2.25554e-05
4.77667e-08
2.25327e-05
1.18131e-08
2.23526e-05
-1.10783e-07
2.21183e-05
2.279e-05
5.09725e-05
0.00369792
-0.00354203
-1.32235e-05
0.00369449
-0.00349627
-5.14076e-05
0.00369204
-0.00351575
-1.47012e-05
0.0037039
-0.00353654
0.000121585
0.00371459
-0.00353804
0.00367709
-0.00347461
6.62515e-06
0.000152477
-1.7193e-07
-5.09993e-06
0.00015141
-1.72247e-07
-1.46221e-05
0.000151447
-1.72026e-07
-2.18314e-06
0.000153605
-1.71971e-07
3.42723e-05
0.000156145
-1.71692e-07
0.000148762
-1.72084e-07
1.63381e-08
2.48207e-05
-3.67108e-08
2.47018e-05
-9.73412e-08
2.469e-05
-1.04837e-08
2.50302e-05
2.21892e-07
2.54468e-05
2.4225e-05
7.81936e-05
-1.70275e-05
-0.0760495
-8.5655e-06
-1.70618e-05
-0.0759792
4.59923e-05
-1.70419e-05
-0.0759652
-8.33583e-05
-1.70506e-05
-0.0758781
-7.24198e-05
-1.70534e-05
-0.0758159
-1.70202e-05
-0.0760547
1.021e-09
-1.72004e-05
3.40939e-17
-6.88048e-10
-1.72323e-05
5.18877e-17
-1.86785e-09
-1.72128e-05
2.20086e-15
-4.28392e-10
-1.7224e-05
8.21187e-15
3.77619e-09
-1.72293e-05
4.70942e-18
-1.71885e-05
9.90688e-19
7.51183e-09
1.37322e-25
-4.56358e-09
1.79674e-25
-1.45795e-08
1.8621e-25
-2.30726e-09
2.81339e-25
2.84624e-08
3.55284e-25
2.87168e-25
-0.000267353
7.96805e-16
-0.130009
0.188119
-0.00032749
6.3396e-16
-0.129872
0.187762
-0.000960559
-4.07188e-14
-0.129716
0.188169
-0.000967501
-6.88862e-11
-0.129726
0.187446
0.00111257
-1.15532e-07
-0.129867
0.18553
2.69283e-17
-0.129565
0.188484
3.12566e-18
1.53909e-25
2.72734e-15
-9.78222e-16
-1.04582e-17
-5.28747e-25
2.1655e-15
-7.826e-16
-2.62306e-14
-8.48202e-22
-1.52345e-14
7.35888e-16
-2.29027e-11
-9.91426e-19
-4.72282e-11
1.21852e-12
3.19742e-19
-4.34287e-15
-1.17589e-07
2.03382e-09
1.16745e-25
2.26888e-16
-3.2881e-17
-4.91338e-27
1.86486e-25
-1.00145e-25
-2.73138e-23
8.26249e-26
2.66975e-23
-4.39516e-20
3.5534e-25
4.30758e-20
-5.21484e-17
1.3664e-25
5.1113e-17
6.18359e-28
9.39422e-26
6.92906e-16
1.26438e-25
-7.1501e-26
-4.68669e-05
1.94689e-15
-0.0721033
-2.62818e-05
1.5304e-15
-0.0720613
0.00013712
-1.16075e-12
-0.0720843
4.02068e-05
-3.65653e-09
-0.0718491
-0.000306804
-8.50397e-08
-0.0717382
1.64316e-16
-0.0720757
1.04085e-17
3.14465e-25
3.86632e-15
-3.12485e-16
1.39531e-25
3.15026e-15
-1.18206e-12
6.17774e-25
5.76806e-15
-3.70494e-09
2.33015e-25
5.93987e-16
4.67046e-18
1.6856e-25
3.47759e-14
2.3771e-25
1.01578e-15
7.60073e-28
2.59025e-26
8.93114e-27
2.40777e-26
4.05645e-27
2.36422e-26
3.79584e-27
1.96552e-26
3.47952e-27
3.2313e-26
8.30825e-27
5.26851e-05
5.80369e-15
-0.0202578
3.35608e-05
4.70051e-15
-0.0201972
4.14594e-05
8.68509e-15
-0.0202028
-0.0001032
9.2324e-16
-0.0201705
-0.000279703
5.49172e-14
-0.0201726
1.56139e-15
-0.020158
2.17844e-17
3.98849e-25
-1.57519e-15
1.0288e-16
3.74427e-25
-1.28999e-15
1.62413e-17
4.03914e-25
-2.41701e-15
1.3196e-16
3.48015e-25
-2.56359e-16
-1.40133e-15
6.63398e-25
-1.5602e-14
2.31252e-25
-4.54871e-16
1.40802e-27
-9.38331e-26
2.76827e-27
-8.82907e-26
2.88377e-27
-9.63803e-26
5.92814e-27
-8.31474e-26
5.67726e-28
-1.58949e-25
-5.77328e-26
5.98884e-05
3.32387e-17
0.00917939
7.46965e-05
2.82882e-17
0.00916418
0.000104399
1.13277e-16
0.00914422
-6.66482e-05
2.25435e-16
0.00920689
-0.00028474
3.2942e-16
0.00919932
9.90701e-18
0.00913811
3.2524e-19
5.35198e-25
-8.22748e-17
1.76093e-18
6.38316e-25
-7.02567e-17
4.99605e-18
6.97746e-25
-2.81806e-16
5.87537e-18
6.7259e-25
-5.65159e-16
-3.10704e-18
7.04755e-25
-8.28776e-16
5.04442e-25
-2.44828e-17
1.48526e-27
-3.9931e-25
2.80118e-27
-4.76549e-25
4.76371e-27
-5.23347e-25
2.21898e-27
-5.02233e-25
-4.53554e-27
-5.22738e-25
-3.84003e-25
4.42646e-05
2.12964e-17
0.0455281
1.40342e-05
3.18266e-17
0.0454778
-2.8386e-05
1.26669e-15
0.0454489
-6.04888e-05
4.71386e-15
0.0454977
-7.85584e-05
2.47438e-17
0.0454842
7.46312e-19
0.0454541
7.47167e-20
4.44223e-25
-5.27189e-17
5.16082e-18
5.56624e-25
-7.89285e-17
3.78861e-17
5.93721e-25
-3.14654e-15
5.39859e-20
7.2432e-25
-1.16686e-14
-3.75548e-19
8.39521e-25
-6.10692e-17
6.51372e-25
-1.85663e-18
4.89855e-28
-3.27693e-25
7.44808e-28
-4.1057e-25
1.4167e-27
-4.39383e-25
6.64542e-28
-5.32923e-25
-1.63475e-27
-6.13636e-25
-4.85805e-25
-3.94093e-06
2.53085e-17
2.34539e-05
3.85031e-17
0.000117984
1.63291e-15
-5.11215e-05
6.09752e-15
-0.000333501
3.50474e-18
7.34155e-19
1.4967e-20
3.11573e-25
2.14453e-18
4.07344e-25
1.72359e-17
4.21502e-25
2.88404e-21
6.39172e-25
-1.98295e-20
8.11408e-25
6.46478e-25
5.61056e-29
1.96122e-28
6.45735e-28
1.78107e-28
-1.17167e-27
2.48273e-05
0.000488644
0.000598339
9.36833e-05
0.000498467
0.000583628
9.26917e-05
0.000439187
0.000669696
0.000128447
0.00042785
0.000632302
5.62692e-05
0.000456521
0.000527051
0.000831747
0.00122936
-1.07174e-06
0.000131357
0.000196737
9.71887e-06
0.000129413
0.000193334
2.72629e-05
0.000211676
0.000237287
5.19138e-06
0.000104559
0.000185029
5.04066e-06
0.000136589
0.000171556
0.000276953
0.000341395
-2.15825e-07
2.07708e-05
4.73019e-07
1.99474e-05
3.24337e-06
2.79444e-05
4.5695e-07
1.75912e-05
-1.84465e-07
1.74413e-05
3.69757e-05
9.09695e-06
0.000499833
1.77135e-05
1.22979e-05
0.0004478
1.55614e-05
-1.51e-05
0.000574066
1.3164e-05
1.04584e-06
0.000429802
1.93717e-05
-1.03528e-05
0.000418037
2.31567e-05
0.000947504
3.0113e-05
8.15861e-06
6.48523e-05
9.9002e-05
5.37663e-06
6.26701e-05
8.82998e-05
7.02737e-06
0.00010565
9.77907e-05
-5.38004e-06
4.49154e-05
9.64131e-05
-1.57456e-05
8.59702e-05
0.000102462
0.00015487
0.00016865
2.61874e-07
4.50488e-06
4.67197e-08
3.97288e-06
1.27619e-06