/*--------------------------------*- C++ -*----------------------------------*\
| =========                 |                                                 |
| \\      /  F ield         | OpenFOAM: The Open Source CFD Toolbox           |
|  \\    /   O peration     | Version:  v1612+                                |
|   \\  /    A nd           | Web:      www.OpenFOAM.com                      |
|    \\/     M anipulation  |                                                 |
\*---------------------------------------------------------------------------*/
FoamFile
{
    version     2.0;
    format      ascii;
    class       surfaceScalarField;
    location    "5.35";
    object      phi;
}
// * * * * * * * * * * * * * * * * * * * * * * * * * * * * * * * * * * * * * //

dimensions      [0 3 -1 0 0 0 0];

internalField   nonuniform List<scalar> 
2916
(
4.50537e-07
-0.1112
0.111199
1.98009e-06
-0.111206
0.111205
-7.98493e-06
-0.111204
0.111214
-1.54546e-05
-0.111202
0.111209
-1.00458e-05
-0.111203
0.111197
-0.111198
0.111188
-6.9927e-06
-0.519543
0.408351
1.80377e-06
-0.51956
0.408346
-3.69358e-06
-0.519553
0.408355
-6.68546e-06
-0.519547
0.408349
2.36223e-06
-0.519551
0.408339
-0.51954
0.408345
-3.1751e-05
-1.15677
0.637259
1.18538e-05
-1.15679
0.637183
1.11219e-05
-1.15677
0.637219
-4.77632e-06
-1.15677
0.637237
1.10288e-05
-1.15677
0.637207
-1.15676
0.63723
-6.16957e-05
-1.55958
0.40287
1.7558e-05
-1.5596
0.402733
1.55521e-05
-1.55957
0.402798
-8.18109e-06
-1.55957
0.402821
2.04679e-05
-1.55957
0.402772
-1.55958
0.402839
-6.83445e-05
-1.74949
0.189975
1.964e-05
-1.74957
0.189882
1.31999e-05
-1.7495
0.189936
-9.80429e-06
-1.74949
0.189949
1.87912e-05
-1.74952
0.189912
-1.74952
0.189961
-8.43277e-05
-1.83083
0.0814244
1.10992e-05
-1.83103
0.0813626
8.69949e-06
-1.8309
0.0814049
-5.72795e-06
-1.83089
0.0814139
2.92488e-05
-1.83094
0.0813916
-1.8309
0.0814055
-1.03901e-05
-1.74299
-0.0878282
1.13324e-05
-1.74331
-0.0877388
-1.58098e-06
-1.74314
-0.087746
3.25286e-07
-1.74313
-0.0877607
6.06553e-06
-1.74321
-0.0877327
-1.74307
-0.0878252
0.000169677
-1.4873
-0.255855
2.75797e-05
-1.48762
-0.25555
-2.50181e-05
-1.48745
-0.255635
-2.26588e-06
-1.48747
-0.255688
-7.60595e-05
-1.48756
-0.255585
-1.48733
-0.255812
0.000342139
-1.1481
-0.33954
2.67605e-05
-1.14814
-0.339167
-6.29698e-05
-1.14809
-0.339278
-2.38012e-05
-1.14816
-0.339346
-0.000143669
-1.14824
-0.339199
-1.14796
-0.339509
0.000396073
-0.79895
-0.349549
-1.65543e-05
-0.798599
-0.349124
-0.000137626
-0.798697
-0.349267
-5.70328e-05
-0.798897
-0.349344
-6.61692e-05
-0.799012
-0.349216
-0.798554
-0.349477
0.000131059
-0.31991
-0.479171
-4.22659e-05
-0.319589
-0.478836
-9.97007e-05
-0.319684
-0.478955
-5.93407e-05
-0.319884
-0.479053
-9.28148e-05
-0.319918
-0.47906
-0.319609
-0.479038
-0.000160647
-0.319749
-1.43987e-05
-0.319735
7.39919e-05
-0.319772
-3.29571e-05
-0.319777
-0.000233845
-0.319717
-0.319842
0.000475226
-0.693112
0.803836
-4.21839e-05
-0.693129
0.804852
-0.000140009
-0.693054
0.804367
-3.75552e-05
-0.69318
0.804288
-0.000206976
-0.693197
0.804566
-0.693164
0.804147
9.01434e-05
-1.99453
1.70968
1.85852e-05
-1.99457
1.70986
-0.000153051
-1.99451
1.70998
-4.92233e-05
-1.99455
1.70961
1.32451e-05
-1.99456
1.70964
-1.9946
1.7098
1.79067e-05
-2.34152
0.984228
5.29569e-06
-2.34129
0.98392
-6.38767e-05
-2.34137
0.984149
-5.70407e-06
-2.34142
0.984053
4.93891e-05
-2.34134
0.983939
-2.34149
0.984163
0.000194649
-2.18023
0.241381
2.03434e-05
-2.1801
0.241712
-3.9424e-05
-2.18012
0.241605
4.92477e-06
-2.18016
0.241513
-9.70838e-05
-2.18011
0.241639
-2.18021
0.241466
0.000299831
-1.959
-0.0315552
2.70171e-07
-1.9591
-0.0308207
-4.94713e-05
-1.95903
-0.0310971
2.11369e-05
-1.95904
-0.0312364
-0.000167695
-1.95904
-0.0309638
-1.95905
-0.0313662
0.000176916
-1.66223
-0.215517
2.13406e-06
-1.66244
-0.21512
-3.04929e-05
-1.66234
-0.215259
1.13171e-05
-1.66234
-0.215335
-9.84173e-05
-1.66235
-0.215198
-1.66232
-0.215423
0.000140532
-1.25083
-0.499369
-1.95755e-05
-1.2511
-0.498917
-4.0434e-05
-1.251
-0.499067
1.56714e-05
-1.25098
-0.499173
-4.05323e-05
-1.251
-0.499026
-1.25091
-0.499279
4.14607e-06
-0.69672
-0.809972
-4.89394e-05
-0.696842
-0.809755
-5.3018e-05
-0.696817
-0.809809
-1.66007e-06
-0.696793
-0.809928
7.26284e-05
-0.696806
-0.809849
-0.696679
-0.809968
-0.000275061
-0.145541
-0.890443
-7.70091e-05
-0.145269
-0.890938
-3.39746e-05
-0.1454
-0.890738
-1.73263e-06
-0.145338
-0.890833
0.000230896
-0.145243
-0.890995
-0.145459
-0.890497
-0.000221365
0.0313315
-0.526201
-8.59323e-05
0.0318801
-0.526409
-0.00010567
0.0316417
-0.52629
-2.69569e-05
0.0317706
-0.526532
0.00065305
0.0317887
-0.526927
0.0314525
-0.525736
-0.00045843
-0.245508
-0.201873
8.95516e-05
-0.245582
-0.201923
0.00033624
-0.24561
-0.20195
-1.15532e-05
-0.245362
-0.201573
-0.00027494
-0.245936
-0.201073
-0.24537
-0.202491
0.000354788
-0.565612
-9.44564e-07
-0.564961
-0.000144259
-0.565239
2.02983e-05
-0.565304
0.000191518
-0.565824
-0.565021
-0.00264025
-2.79072
3.5972
-0.000340493
-2.79659
3.59914
-0.00090233
-2.79354
3.59847
-0.000540861
-2.79407
3.598
0.000936321
-2.79533
3.59841
-2.79271
3.59779
0.00119219
-4.62417
3.54194
-0.000199692
-4.62691
3.54158
-0.00131343
-4.62533
3.54289
-0.000487141
-4.6259
3.54062
-0.000435984
-4.62633
3.54059
-4.62531
3.54196
0.00107339
-4.35327
0.71226
-0.000137645
-4.35378
0.711997
-0.000533097
-4.35352
0.712727
-7.78526e-05
-4.35369
0.711386
-0.000254064
-4.35365
0.711433
-4.35356
0.712164
-0.000439324
-3.06083
-1.05062
3.90937e-06
-3.06065
-1.05186
-6.67373e-05
-3.0607
-1.05114
-6.01235e-05
-3.06085
-1.05133
0.000358459
-3.06074
-1.05169
-3.06085
-1.05089
-0.000656366
-2.12019
-0.971542
-3.45748e-05
-2.1198
-0.972295
1.35124e-05
-2.11998
-0.971867
-3.04288e-05
-2.12007
-0.971972
0.000422053
-2.11993
-0.972222
-2.12013
-0.971667
-0.000771938
-1.17034
-1.1646
-7.76374e-05
-1.17022
-1.16539
-4.01063e-06
-1.17029
-1.16502
-4.59084e-05
-1.17033
-1.16503
0.00048945
-1.17033
-1.16533
-1.17029
-1.16477
-0.000868534
0.0428676
-1.7117
-0.000132934
0.0428563
-1.71273
-6.07671e-05
0.0428652
-1.71229
-7.92276e-05
0.04286
-1.71234
0.000597835
0.0426911
-1.71272
0.0429804
-1.71195
-0.000953796
1.59829
-2.36445
-0.0002064
1.59885
-2.36649
-0.000102547
1.59869
-2.36574
-9.72368e-05
1.59887
-2.36594
0.000631269
1.59902
-2.3669
1.59839
-2.36474
-0.000806141
3.28496
-2.5763
-0.000317693
3.28522
-2.5778
-7.6804e-05
3.28525
-2.57754
-0.000213239
3.28556
-2.57738
0.000155861
3.28627
-2.57862
3.28421
-2.57617
-0.00391932
2.73661
0.0260595
0.0018999
2.71662
0.0363714
0.00631147
2.72153
0.0330171
0.000812011
2.73817
0.0263616
-0.0130751
2.75701
0.0162299
2.70118
0.0442245
-0.00958915
0.482234
2.0621
0.00301791
0.467197
2.0349
0.0125631
0.471487
2.03855
0.00280167
0.482546
2.06381
-0.0266028
0.48988
2.09546
0.461137
2.01095
0.00660332
-0.0899818
-0.00214877
-0.089011
-0.00696223
-0.0889385
0.000143468
-0.0898633
0.0165926
-0.0923922
-0.0872916
-0.00365497
-2.0147
5.61556
-0.000476985
-2.02102
5.61698
-0.000773963
-2.01786
5.61663
-0.000549612
-2.01839
5.61616
0.0014013
-2.01998
5.61644
-2.01688
5.61607
0.00100425
-2.66703
4.19327
-0.000182335
-2.67143
4.19317
-0.00107955
-2.66908
4.19501
-0.000644141
-2.66981
4.1916
-0.000594718
-2.67104
4.1916
-2.66867
4.19316
0.00193258
-2.30158
0.344875
-0.000170252
-2.30232
0.344983
-0.000442153
-2.30185
0.345769
-0.000388195
-2.30237
0.343895
-0.00127362
-2.30277
0.344047
-2.30246
0.344672
0.000617344
-0.721672
-2.63114
-2.78206e-05
-0.721008
-2.63252
-0.000423504
-0.721029
-2.63157
-0.000278087
-0.721573
-2.63227
-0.000232183
-0.721867
-2.63264
-0.722112
-2.63146
-0.000921848
1.20678
-2.89907
7.88853e-05
1.20606
-2.90037
-0.000219025
1.20697
-2.89957
-8.17109e-05
1.2063
-2.89999
0.00114348
1.20525
-2.90057
1.20674
-2.89938
0.000412168
2.84869
-2.80692
-0.000260207
2.84769
-2.80635
-0.000600689
2.84876
-2.80647
-0.000234987
2.8481
-2.80719
0.000950484
2.84641
-2.80768
2.84933
-2.80641
0.0023366
3.55251
-2.41786
-0.00041812
3.55285
-2.41513
-0.00124961
3.55339
-2.41609
-0.000510359
3.55268
-2.41767
0.000956747
3.55077
-2.41855
3.55393
-2.41559
0.00199881
2.97009
-1.78403
-2.84266e-05
2.96844
-1.78005
-0.000289452
2.96945
-1.78154
-0.000149705
2.97067
-1.78407
-0.000888964
2.97096
-1.78635
2.96736
-1.77906
-0.00346489
1.13808
-0.740823
0.00174667
1.12125
-0.735805
0.00521105
1.1265
-0.738053
0.00125272
1.13824
-0.740981
-0.0135765
1.15205
-0.744878
1.11137
-0.733742
-0.0442033
-0.898648
2.10699
0.0146572
-1.02579
2.12455
0.0575743
-1.00146
2.11806
0.0145742
-0.901733
2.10933
-0.135023
-0.778427
2.09631
-1.10695
2.12752
0.015942
-1.07624
2.22375
-0.00484835
-1.14374
2.17364
-0.0190231
-1.13114
2.18241
-0.0034826
-1.08022
2.22675
0.0420363
-1.017
2.28851
-1.18528
2.13132
0.0271118
-1.19334
-0.00827368
-1.19736
-0.0327272
-1.19562
-0.00797915
-1.19483
0.0761374
-1.1935
-1.19643
-0.441197
-3.77954
4.22074
-0.168174
-4.04096
3.76794
-1.44053
-3.5154
4.78776
-0.723436
-3.82755
3.11046
1.5495
-4.42833
2.1554
-2.69228
4.24178
-0.0214831
-5.04831
1.29025
-0.173059
-5.27132
1.38193
0.299914
-5.2035
1.21512
0.327276
-5.30168
1.44676
-0.227562
-5.77607
1.90259
-4.63845
1.7186
0.00198613
-6.04033
0.99004
-0.17875
-6.12829
1.03771
-0.156907
-6.07193
0.846589
-0.165634
-6.25201
0.959058
-0.319084
-6.75259
1.12997
-5.7191
0.761574
0.0229444
-6.58042
0.517141
-0.0128523
-6.70373
0.611238
-0.184566
-6.49907
0.598856
-0.126066
-6.54309
0.232588
-0.0370979
-6.94919
0.107627
-5.8735
0.117303
0.0342256
-6.06888
-0.545762
0.0349812
-6.14313
-0.561353
-0.034719
-6.06411
-0.365262
-0.0516843
-6.0366
-0.489528
0.00245314
-6.32705
-0.676276
-5.51329
-0.35776
0.0175685
-5.2883
-0.798155
0.0365687
-5.32628
-0.835845
0.0561982
-5.24365
-0.840088
-0.0107098
-5.31924
-0.650453
-0.07989
-5.5806
-0.677268
-4.85685
-0.736328
0.039527
-4.57588
-0.751944
0.0216558
-4.60738
-0.701032
0.078061
-4.46814
-0.831922
0.0356217
-4.65746
-0.619339
-0.184673
-4.97294
-0.387369
-4.1077
-0.933821
0.079749
-3.92107
-0.734555
0.0779897
-3.96324
-0.64238
0.178326
-3.82668
-0.741789
0.184941
-3.92188
-0.7422
-0.216378
-4.26321
-0.308411
-3.42625
-0.897828
0.0281601
-2.08731
-1.86193
0.13876
-2.20153
-1.87231
0.446985
-2.20302
-1.93189
0.350709
-2.1929
-1.6327
-0.622745
-2.51014
-0.779615
-2.02044
-2.02856
-0.125142
0.471951
-2.43411
-0.023322
0.305472
-2.60883
0.623132
-0.12052
-2.72895
0.258714
0.313374
-2.14186
-0.740224
0.11432
-1.62552
-0.333851
-2.42682
-0.0137362
1.9085
-1.42281
0.18473
2.00491
-1.89791
0.770627
1.57911
-2.28553
0.48289
1.91761
-1.3165
-0.571372
1.85303
-0.684445
0.894931
-1.80015
-0.339309
2.24781
-0.471955
2.13756
0.592923
0.514232
0.450966
2.05957
0.526637
1.77736
1.42157
-0.254864
-5.53044
10.006
-0.446492
-5.70096
9.66053
-0.676262
-5.26526
10.2828
-0.21687
-5.65145
8.30252
0.72103
-6.03558
7.25308
-4.06735
9.03016
-0.0311332
-7.16525
2.95619
-0.137133
-7.33124
3.11821
0.115948
-7.17435
2.87113
-0.087364
-7.26435
3.26297
-0.201208
-7.76461
3.74546
-6.18353
3.63357
-0.010374
-6.63562
0.47079
-0.0135155
-6.79108
0.500695
-0.230507
-6.51043
0.39966
-0.183582
-6.79554
0.443319
-0.0366265
-7.28329
0.501688
-5.81475
0.356169
0.0445268
-5.25274
-0.910271
0.0785663
-5.33744
-0.876439
0.244243
-5.24654
-0.830711
0.197326
-5.45299
-1.06305
-0.197301
-5.72927
-1.05177
-4.81493
-1.07982
-0.0431438
-3.78218
-1.97317
-0.177163
-3.76797
-1.99681
-0.0759381
-3.88501
-1.82801
-0.166389
-3.99008
-1.86198
-0.396724
-4.2864
-1.88882
-3.71952
-1.8499
-0.064984
-2.86244
-1.65291
-0.172778
-2.81614
-1.67988
-0.311644
-2.89473
-1.69151
-0.327091
-3.16644
-1.45864
-0.00540754
-3.93401
-1.35133
-2.725
-1.73625
-0.0457898
-3.04134
-0.527246
-0.170892
-2.94765
-0.444422
-0.434261
-2.92865
-0.53463
-0.335722
-3.35425
-0.530073
0.0471047
-4.50936
-0.194847
-2.6998
-0.911916
-0.0708119
-3.35712
-0.347963
-0.215265
-3.34663
-0.0989457
-0.309458
-3.36999
-0.206256
-0.290567
-3.53103
-0.584304
-0.211426
-4.78025
-0.116652
-3.12214
-0.686906
-0.062911
-2.77634
-2.3798
-0.201451
-2.82934
-2.25106
-0.411202
-2.66711
-2.42501
-0.30572
-3.10742
-2.16179
-0.156923
-4.34726
-1.3614
-2.71397
-2.59365
-0.0165111
-1.85496
-3.33898
-0.113417
-2.00839
-3.33287
-0.160293
-1.86003
-3.48916
-0.161255
-2.04948
-3.19884
-0.213939
-2.61552
-3.30458
-1.90899
-3.44574
0.302103
-1.007
-2.57287
0.370358
-1.0134
-2.96115
0.63639
-1.18428
-3.22731
0.633795
-1.12076
-2.24262
-0.352509
-0.862717
-1.45094
-1.08575
-2.9759
0.805201
0.435609
1.64169
0.287669
2.04215
-1.0705
2.13504
0.845911
-0.788086
3.83776
-0.452267
-0.108571
-3.70219
13.8168
-0.246002
-3.88434
13.6823
-0.27914
-3.83517
14.1511
-0.172023
-4.19566
12.3911
0.567999
-4.80241
11.3155
-3.12299
12.7211
-0.0705849
-6.05554
5.38012
-0.209254
-5.96059
5.33313
0.0309863
-6.2304
5.02612
0.0276776
-6.04137
5.11199
-0.695683
-6.05202
5.71843
-5.97237
5.78727
-0.0468439
-5.31521
-0.222689
0.0591472
-5.28596
-0.279922
-0.0886691
-5.3176
-0.365325
-0.112066
-5.26994
-0.30472
0.0431398
-5.37914
-0.326402
-5.38495
-0.188116
-0.0468171
-4.05477
-2.12389
0.00604997
-4.02926
-2.18602
0.104046
-4.07773
-2.16858
0.156926
-4.12577
-2.26009
0.17118
-4.17657
-2.26859
-4.13908
-2.15451
-0.0538961
-3.07966
-2.89439
-0.092278
-3.06022
-2.92747
-0.0432128
-3.04996
-2.90485
0.0146523
-3.13105
-2.91457
0.0527841
-3.19659
-2.90693
-3.05881
-2.87738
-0.055826
-2.2366
-2.44014
-0.0971237
-2.23824
-2.46056
-0.157733
-2.2156
-2.46525
-0.077998
-2.27472
-2.3947
0.207664
-2.50297
-2.33062
-2.123
-2.4644
-0.0799445
-1.21765
-1.46626
-0.0699414
-1.2478
-1.44486
-0.14365
-1.23294
-1.44359
-0.174731
-1.31973
-1.45399
0.338835
-1.88972
-1.32166
-1.1425
-1.55358
-0.0820731
-0.557432
-0.926107
-0.0339524
-0.559266
-0.835602
-0.253715
-0.443842
-0.775588
-0.308424
-0.843006
-1.00632
0.334119
-1.77468
-0.874228
-0.496613
-0.99867
-0.0662833
-1.394
-1.47695
-0.198368
-1.29911
-1.37914
-0.627963
-1.06471
-1.37456
-0.422876
-1.67971
-1.53018
0.450611
-2.45382
-1.55575
-1.27861
-1.36105
-0.0350949
-1.89758
-2.8003
-0.228192
-1.86293
-2.57596
-0.477848
-1.63256
-2.67165
-0.244341
-2.00525
-3.1068
0.115984
-2.58362
-3.53511
-1.756
-2.85237
0.043663
-1.32892
-3.1852
-0.164975
-1.38212
-3.23333
-0.535631
-1.1318
-3.35742
-0.341254
-1.47968
-2.96257
0.238939
-2.03731
-2.57744
-1.27433
-3.21863
0.261125
-1.15443
0.441589
-1.27491
-0.189411
-1.5713
-0.252772
-0.570405
0.288744
1.25893
-1.43786
0.134376
-0.602479
14.2849
0.066998
-0.74048
14.4902
0.104386
-0.856768
14.9705
0.404637
-0.846315
12.9371
0.36178
-1.51502
12.8733
-0.696651
13.7796
-0.0740562
-2.10156
6.95326
-0.134772
-1.944
6.59737
-0.190823
-2.57831
6.80372
0.0408384
-1.94824
5.98225
-0.227444
-2.0505
6.5222
-2.57202
7.4352
-0.00588263
-2.73188
0.413512
0.174518
-2.63125
0.226917
-0.0457754
-2.91312
0.189772
0.188226
-2.56743
0.0804645
0.107775
-2.55773
0.261282
-3.11074
0.458372
-0.00102331
-1.73556
-3.11919
0.07521
-1.68542
-3.20808
-0.0137403
-1.78112
-3.21163
0.144864
-1.70504
-3.28109
0.225781
-1.68889
-3.21835
-1.87631
-3.16316
0.000819572
-0.972948
-3.65783
0.0176006
-0.956777
-3.6729
-0.0201069
-0.978641
-3.66963
0.0120582
-0.984936
-3.66685
0.0629373
-0.986965
-3.65973
-1.01113
-3.67963
0.000855964
-0.587126
-2.82682
0.000281097
-0.587677
-2.82908
-0.0279358
-0.591118
-2.82456
-0.0125712
-0.586965
-2.80804
0.0609987
-0.595544
-2.79561
-0.584492
-2.83004
-0.00788299
-0.207157
-1.83835
0.0102364
-0.218462
-1.8322
0.0263076
-0.220553
-1.83022
0.00939379
-0.187301
-1.83674
0.0715994
-0.165315
-1.8141
-0.214203
-1.85227
-0.0270114
0.254986
-1.36124
0.0289891
0.239352
-1.34942
0.0501179
0.338661
-1.35593
-0.00433267
0.235252
-1.37442
0.110123
0.156235
-1.31023
0.277641
-1.38039
-0.0264483
-0.278736
-0.916787
0.0302796
-0.269512
-0.927004
-0.00531516
-0.104373
-0.895933
-0.0683648
-0.287033
-0.944844
0.0415949
-0.586274
-0.923208
-0.134812
-0.907
-0.0402405
-1.11705
-1.92175
0.0538704
-1.1124
-1.82718
0.166508
-1.01381
-1.87485
0.084034
-1.18192
-2.12944
-0.131432
-1.64702
-2.2589
-1.11187
-2.00674
-0.0492142
-1.11021
-3.14283
-0.300808
-1.15913
-2.935
-0.59328
-1.11873
-2.96003
-0.414938
-1.3525
-2.97034
0.166802
-1.86325
-2.94295
-1.21093
-2.95277
-0.0612276
-2.20341
-0.27349
-2.22178
-0.751395
-2.21212
-0.598327
-2.07597
0.621317
-1.82396
-2.02747
-0.00208955
5.71075
-0.0931011
-0.000328071
5.7118
-0.0965847
-0.000328557
5.7114
-0.0947745
-0.000344137
5.71124
-0.0950683
0.000703758
5.71143
-0.0960374
5.7111
-0.0943236
-0.00105949
4.58887
1.12294
-4.2287e-05
4.58967
1.12112
5.13422e-05
4.58929
1.12201
-8.29484e-05
4.58931
1.12206
0.00038406
4.58947
1.1215
4.5892
1.12228
-0.000202045
0.800372
3.14496e-05
0.800284
8.22977e-05
0.800302
2.29541e-05
0.800383
7.57703e-05
0.800324
0.800322
0.000300978
4.50642
-0.406555
-0.000101053
4.50659
-0.409597
0.00015459
4.50784
-0.407856
-0.000144401
4.50531
-0.408482
-0.000422602
4.50536
-0.409514
4.50628
-0.407863
-0.000108213
4.05735
1.57211
2.62492e-05
4.05758
1.56999
0.000715201
4.05805
1.57111
0.000144393
4.05696
1.57098
-0.000204267
4.05697
1.57023
4.05722
1.57113
-4.74342e-05
1.31064
5.06229e-05
1.31042
0.000368217
1.31056
0.000122029
1.31053
-7.08621e-05
1.31041
1.31041
0.000798379
0.934672
-0.997151
8.53871e-05
0.935276
-0.999177
0.000203301
0.935923
-0.998127
-9.85804e-05
0.933932
-0.998217
-0.000706274
0.934207
-0.999067
0.934433
-0.998331
0.000500301
1.08422
1.42205
0.000127262
1.08482
1.42082
0.000585153
1.08511
1.42146
0.000237367
1.08384
1.42141
-0.000371188
1.08407
1.42097
1.08397
1.42122
4.8883e-05
1.25176
6.44771e-05
1.25176
0.000402114
1.25181
0.000210208
1.2517
-2.73033e-05
1.25169
1.25157
0.000754424
-1.36903
-2.26002
0.000280127
-1.36812
-2.26311
0.000430952
-1.36821
-2.26164
0.000172998
-1.36919
-2.26104
-0.000593082
-1.36886
-2.26209
-1.36912
-2.26127
0.000518004
-1.19107
1.24357
0.000142093
-1.18996
1.24303
0.000270323
-1.1902
1.24332
0.000147099
-1.19097
1.24332
-0.000315731
-1.19057
1.24315
-1.19112
1.24291
3.59739e-05
1.00782
8.42502e-05
1.00839
0.000374296
1.00817
0.000224762
1.00797
0.000146635
1.00812
1.00782
0.000563061
-1.90904
-3.25061
0.000438943
-1.90752
-3.25582
0.000799596
-1.90806
-3.2535
0.000501737
-1.90873
-3.25201
-0.000491763
-1.90832
-3.25334
-1.90889
-3.25225
0.000469475
-1.84694
1.18099
0.000165925
-1.84523
1.18104
0.000268905
-1.84597
1.18112
0.000174474
-1.84637
1.18106
-0.00034847
-1.84586
1.18121
-1.84655
1.18023
2.49358e-05
0.8778
7.48693e-05
0.879183
0.000176498
0.878586
0.000128459
0.878278
0.000176311
0.878654
0.87813
0.00031384
-1.92849
-4.12935
0.000448349
-1.92504
-4.13727
0.000710405
-1.9265
-4.13374
0.000188892
-1.92744
-4.13123
-0.00147779
-1.92688
-4.13247
-1.92749
-4.13265
-1.22117e-05
-1.48961
0.742129
0.000346591
-1.4868
0.742439
0.000454578
-1.48806
0.742576
0.000222804
-1.4886
0.742456
-0.000584606
-1.48781
0.742944
-1.48881
0.74096
1.42477e-05
0.926697
2.76385e-05
0.929324
4.15254e-05
0.928202
2.0185e-05
0.92761
-3.53715e-05
0.928462
0.927125
0.000661163
-1.8142
-4.73367
0.000488262
-1.8094
-4.74282
0.00106408
-1.8114
-4.739
3.2114e-05
-1.81285
-4.73501
-0.00353733
-1.81285
-4.7346
-1.81194
-4.73984
-0.00103334
-0.905255
-0.165782
0.000450585
-0.902491
-0.165958
0.000921041
-0.903759
-0.165537
0.000427997
-0.904291
-0.16561
-0.00134102
-0.903405
-0.164734
-0.904921
-0.167401
-2.69956e-05
0.886477
-3.47215e-05
0.889412
2.35465e-05
0.888123
4.18968e-05
0.8875
2.18801e-05
0.888584
0.886406
0.00105937
-1.54802
-4.97074
0.000615889
-1.54322
-4.97921
0.00191815
-1.54531
-4.97653
0.00026374
-1.54717
-4.97025
-0.00437302
-1.54915
-4.96716
-1.54329
-4.97999
-0.00222992
-0.684283
-1.02729
0.00110306
-0.683007
-1.0295
0.0024811
-0.683727
-1.02849
0.000485905
-0.683958
-1.02683
-0.00529701
-0.68409
-1.02401
-0.683913
-1.03207
-0.000123013
0.631038
5.2651e-05
0.632473
0.000151699
0.631818
0.000105034
0.631704
-0.000333856
0.632673
0.630267
-0.00173654
-0.562157
-5.14767
0.00128363
-0.553637
-5.16441
0.00477849
-0.557225
-5.16085
0.000774285
-0.562034
-5.1452
-0.00799115
-0.570263
-5.13301
-0.548274
-5.17345
-0.00401746
-0.114199
-1.47123
0.00247767
-0.112136
-1.4775
0.00556756
-0.113049
-1.47575
0.000948539
-0.115116
-1.46913
-0.0130552
-0.119546
-1.46072
-0.108433
-1.48496
-0.000794954
0.166359
0.000557046
0.166131
0.00135628
0.166109
0.00037048
0.166531
-0.00378571
0.167609
0.164813
-0.0120503
1.32363
-4.35225
0.00384917
1.33074
-4.3865
0.0126611
1.32731
-4.3789
0.00442697
1.32522
-4.35285
-0.030166
1.32197
-4.32408
1.33025
-4.40635
-0.000699083
1.82011
-1.96701
-0.000564574
1.82462
-1.97151
-0.00172896
1.82285
-1.97013
7.26746e-05
1.81949
-1.9652
0.00563285
1.81456
-1.95887
1.82794
-1.97701
-0.000814103
0.429076
0.000460264
0.429625
0.000654087
0.42955
0.000212457
0.428603
-0.0013144
0.427823
0.430247
0.0211331
1.59353
-3.74318
-0.00524925
1.58095
-3.76743
-0.021614
1.58125
-3.76139
-0.00637996
1.60084
-3.74217
0.0509399
1.62358
-3.71646
1.55961
-3.7837
0.00524534
0.531803
-0.910534
-0.00367533
0.529195
-0.910827
-0.0110087
0.529045
-0.910585
-0.00202981
0.536207
-0.909539
0.0253549
0.544795
-0.907466
0.520128
-0.912179
0.000514638
0.742259
-0.000955944
0.743426
-0.00258541
0.743203
-0.000342915
0.741228
0.00584247
0.739282
0.745387
0.00154231
-3.61716
-1.3209
-0.000135441
-3.64222
-1.32089
0.000502682
-3.63748
-1.32016
-0.00135586
-3.61306
-1.32207
-0.000854123
-3.5875
-1.32297
-3.66186
-1.31912
0.00611757
-3.32103
-1.21277
-0.00382566
-3.32937
-1.21373
-0.0104605
-3.32731
-1.21412
-0.00252521
-3.31911
-1.21143
0.0211592
-3.31071
-1.20794
-3.33533
-1.21755
0.00261341
-0.482094
-0.00147133
-0.482712
-0.00465824
-0.483217
-0.000777972
-0.481627
0.00911118
-0.479655
-0.485526
-0.00154888
-0.499069
-0.734212
1.23483
-0.0018525
-0.503647
-0.734806
1.23876
-0.00549512
-0.50013
-0.734744
1.23852
-0.00549892
-0.480458
-0.728241
1.2087
0.00637826
-0.468069
-0.728281
1.18447
-0.487791
-0.731244
1.22541
-0.00212083
-0.67087
-0.437484
0.611405
-0.00775198
-0.673619
-0.4449
0.620505
-0.012584
-0.669649
-0.437505
0.611858
-0.00586042
-0.654936
-0.43005
0.597806
-0.0047282
-0.642017
-0.421931
0.594747
-0.657372
-0.431266
0.596119
-0.00610629
-0.327643
0.436323
-0.021548
-0.329489
0.447358
-0.0299453
-0.320058
0.430869
-0.0302147
-0.319836
0.429309
-0.00298841
-0.304489
0.401282
-0.298052
0.403338
-0.000259384
-0.316794
-0.417158
-0.000153243
-0.318513
-0.4164
0.00076896
-0.319398
-0.416269
0.000234294
-0.31049
-0.417217
-0.00176103
-0.309336
-0.41695
-0.316093
-0.416912
-0.0019187
-0.552886
-0.199472
-0.00899701
-0.556002
-0.20033
-0.0110546
-0.556348
-0.198496
-0.0133859
-0.546078
-0.192129
-0.0084412
-0.547373
-0.188837
-0.559747
-0.196052
-0.00288379
-0.0428625
-0.00813245
-0.0425876
-0.00975932
-0.0389979
-0.0123439
-0.0375512
-0.00789375
-0.0328396
-0.0252015
0.000342454
-0.311414
-0.106087
0.000199816
-0.310482
-0.105775
0.000205717
-0.310473
-0.105802
-0.000628909
-0.3109
-0.105482
-0.00158137
-0.310556
-0.105441
-0.312954
-0.10554
-0.00137257
-0.60881
0.0992977
-0.00360109
-0.608516
0.0999335
-0.0054103
-0.608306
0.101147
-0.000624402
-0.608845
0.10103
0.00799186
-0.610885
0.102875
-0.606921
0.105906
-0.00228396
0.14
-0.00421521
0.140238
-0.00510049
0.141919
-0.00547072
0.142289
-0.00149804
0.143234
0.14824
0.00044286
-0.185426
0.078897
0.000509883
-0.184667
0.0788257
0.000659742
-0.184638
0.0786863
-0.000468884
-0.183526
0.079172
-0.0018684
-0.183209
0.079168
-0.186052
0.0786445
-0.00210514
-0.570242
0.486219
-0.00287521
-0.57002
0.486056
-0.0040655
-0.569125
0.486824
-0.0032724
-0.570536
0.487248
0.00174575
-0.573233
0.48788
-0.565819
0.487418
-0.00132978
0.419676
-0.00229334
0.419814
-0.0039815
0.421125
-0.00180589
0.420258
0.00352243
0.419438
0.424949
0.000343033
-0.381709
0.460263
9.91872e-05
-0.381093
0.460163
-0.000256677
-0.38069
0.459732
-0.000430081
-0.381614
0.460959
-0.000505724
-0.382265
0.461509
-0.380894
0.459033
-0.000876153
-0.875649
0.981035
-0.00156475
-0.875745
0.981397
-0.00307601
-0.87437
0.982015
-0.000871608
-0.877261
0.98069
0.00580275
-0.880465
0.979405
-0.871614
0.983941
-0.000769806
0.6395
-0.00110037
0.639565
-0.00167508
0.640669
-0.00069981
0.639037
0.00160588
0.637188
0.643638
-3.55794e-06
-0.860632
0.000182622
-0.860916
0.00081035
-0.86106
-0.000382625
-0.859922
-0.00237533
-0.859466
-0.86246
-0.000292063
-1.09208
-0.00117251
-1.09237
-0.00248946
-1.09185
-0.000724915
-1.09243
0.00506145
-1.09379
-1.09101
-0.000137228
-0.000518735
-0.00107834
-0.000246576
0.00152174
0.113903
11.3912
2.77977
0.320243
11.6145
2.66929
0.289555
12.4762
2.525
0.381653
10.2502
2.59483
0.11918
10.8702
2.26564
11.2961
2.60262
-0.00153109
7.58761
3.80516
0.218905
7.65563
3.73847
0.423656
8.51248
3.75894
0.131089
6.8573
3.68546
0.0801569
7.15424
3.76686
7.64673
3.72957
-0.0216511
2.31098
0.0708248
2.27077
0.265041
2.40679
0.0550475
2.18735
0.0150388
2.24983
2.3148
0.121563
7.4897
2.12176
0.163261
7.08083
2.14413
-0.19747
7.92119
1.76826
0.0537227
6.15207
2.17382
-0.0748198
6.76682
2.14956
8.0726
1.89041
0.157013
6.49433
4.64352
0.143033
6.23209
4.60119
0.104904
7.15321
4.56504
-0.114394
5.54433
4.5125
-0.278036
5.9806
4.71673
6.89213
4.632
0.0635953
3.21676
0.0306759
3.16956
0.223398
3.31788
-0.0780056
3.06376
-0.221783
3.18025
3.25943
0.0395821
1.02719
1.4685
0.122929
0.756331
1.53136
-0.195508
1.01247
1.264
0.0831079
0.421935
1.55374
0.15989
0.698567
1.6355
1.22722
1.28145
0.115555
1.80287
3.75227
0.0860085
1.64096
3.74611
-0.0261105
1.97864
3.71099
-0.136663
1.37916
3.66583
-0.153259
1.58984
3.84206
1.95512
3.75085
0.0599332
2.51158
0.00754212
2.48638
0.126383
2.56877
-0.0868754
2.42362
-0.173358
2.49883
2.5441
0.0288429
-2.64957
0.970039
0.0733643
-2.7223
1.00105
-0.0930199
-2.70324
0.921993
0.00858511
-2.80644
0.977479
0.114905
-2.73456
1.04538
-2.67019
0.90338
0.046779
-1.12763
2.18355
0.0458189
-1.15932
2.18409
-0.00940255
-1.12032
2.18329
-0.0732441
-1.2128
2.13604
-0.0374843
-1.15154
2.22328
-1.14051
2.18369
0.0203873
1.37589
0.00275884
1.36886
0.058745
1.39085
-0.0314466
1.35242
-0.0560595
1.3773
1.37778
0.00445903
-3.17075
0.478489
0.0155049
-3.1735
0.490604
-0.0266442
-3.18512
0.479635
-0.016023
-3.1712
0.471209
0.0382056
-3.1688
0.500226
-3.19969
0.461652
0.00896263
-1.91432
0.918158
0.0121045
-1.91324
0.920692
0.00874044
-1.92085
0.922383
-0.0210909
-1.91379
0.908458
-0.00344657
-1.90004
0.936877
-1.93163
0.912177
0.000684911
0.506423
-0.00157421
0.50487
0.00772935
0.507414
-0.00572437
0.50357
0.000936142
0.510301
0.502046
-0.00579119
-2.43203
0.0894858
-0.00565544
-2.43123
0.0926187
-0.0102789
-2.43374
0.093437
-0.0127334
-2.42583
0.0914514
0.0164801
-2.42589
0.101293
-2.44071
0.0887993
0.000224642
-1.72411
0.210014
0.00222614
-1.72365
0.211115
0.00428296
-1.72431
0.210897
-0.00208466
-1.72228
0.211277
0.00745809
-1.71775
0.219191
-1.7274
0.206328
-0.000747369
0.127629
-0.00210441
0.127298
-0.00216483
0.127583
-0.00211376
0.127182
0.00533425
0.128341
0.126603
-0.00721657
-1.62334
-0.118301
-0.00570295
-1.62235
-0.118738
-0.00353029
-1.62265
-0.116304
-0.00685063
-1.62383
-0.118136
0.0229175
-1.62
-0.122568
-1.62943
-0.111121
0.00015629
-1.39802
-0.0154649
0.00236386
-1.39775
-0.0156964
0.00321106
-1.39708
-0.0155269
0.00199288
-1.39726
-0.0140757
0.00684608
-1.39468
-0.0109882
-1.3988
-0.0174601
-0.000845369
0.0178254
-0.00181862
0.0176864
-0.00195678
0.0178177
-0.00178042
0.0173936
0.00205742
0.0169502
0.0183033
-0.00882231
-1.34995
-0.120764
0.00407096
-1.34614
-0.134913
0.00985635
-1.34782
-0.130206
-0.00253239
-1.34839
-0.131774
0.0235271
-1.33696
-0.121901
-1.35574
-0.112248
0.000479088
-1.43998
0.074083
0.00390657
-1.43922
0.0739632
0.00453892
-1.43935
0.0753797
0.00167945
-1.44058
0.0809722
0.0054702
-1.43855
0.086807
-1.44103
0.073302
-0.000867608
-0.0110862
-0.00125087
-0.0113017
-0.00118708
-0.0114106
-0.00160051
-0.0120142
0.000656032
-0.0139336
-0.0111522
-0.0460162
-0.815194
-0.176344
-0.0170402
-0.79863
-0.292266
-0.069483
-0.806875
-0.166822
0.0120829
-0.795259
-0.362926
0.151326
-0.792292
-0.39206
-0.802204
-0.0657179
-0.0043622
-1.08164
0.34489
0.00245154
-1.07944
0.347958
0.0104204
-1.08107
0.341613
0.000497932
-1.07984
0.375473
-0.0260747
-1.07538
0.396465
-1.08884
0.333869
-0.00250927
0.0805028
-0.00282723
0.0791651
-0.00551866
0.0797764
-0.00157058
0.0733003
0.0115476
0.0662204
0.0804352
-0.0751147
-1.05856
-0.96442
0.10819
-1.0381
-1.26466
0.156611
-1.0436
-1.04649
0.16715
-1.15289
-1.35001
0.102755
-1.23168
-1.35488
-1.09972
-0.869981
0.011391
-1.41951
0.694451
0.0349496
-1.41676
0.703059
0.0913214
-1.42684
0.668484
0.0339156
-1.43343
0.713416
-0.0627033
-1.43003
0.691434
-1.44124
0.612681
-0.00181327
0.198103
-0.00325932
0.200118
-0.00950835
0.197033
-0.00796341
0.193526
0.00848339
0.185798
0.189634
-0.0538784
-1.48775
-2.56562
0.076947
-1.43918
-2.8913
0.219114
-1.44557
-2.70312
0.105714
-1.51022
-2.69674
-0.160258
-1.35232
-2.67954
-1.42923
-2.55378
-0.0168341
-1.43603
0.659569
-0.0361133
-1.4072
0.690363
-0.0288924
-1.43857
0.654267
-0.0945397
-1.39016
0.659014
-0.0294454
-1.33917
0.613193
-1.46252
0.616529
-0.0163261
0.379584
-0.0137903
0.389211
-0.0502794
0.380539
-0.0122032
0.380827
0.0712357
0.382252
0.363991
0.023395
-3.5576
0.00218288
-3.85311
-0.00812709
-3.66642
0.0257381
-3.59787
-0.0317157
-3.26158
-3.38755
0.0142328
-2.30086
-0.0990198
-2.42899
-0.165579
-2.33373
-0.186192
-2.32043
-0.0455863
-2.19424
-2.22048
0.0184934
-0.0688444
-0.0825617
-0.13075
-0.0498089
)
;

boundaryField
{
    seabed_topleft_surface
    {
        type            calculated;
        value           uniform 0;
    }
    seabed_topright_surface
    {
        type            calculated;
        value           uniform 0;
    }
    breakwater_top_surface
    {
        type            calculated;
        value           uniform 0;
    }
    breakwater_left_surface
    {
        type            calculated;
        value           uniform 0;
    }
    breakwater_right_surface
    {
        type            calculated;
        value           uniform 0;
    }
    water_front_surface
    {
        type            calculated;
        value           uniform 0;
    }
    water_back_surface
    {
        type            calculated;
        value           uniform 0;
    }
    water_left_surface
    {
        type            calculated;