/*--------------------------------*- C++ -*----------------------------------*\
| =========                 |                                                 |
| \\      /  F ield         | OpenFOAM: The Open Source CFD Toolbox           |
|  \\    /   O peration     | Version:  v1612+                                |
|   \\  /    A nd           | Web:      www.OpenFOAM.com                      |
|    \\/     M anipulation  |                                                 |
\*---------------------------------------------------------------------------*/
FoamFile
{
    version     2.0;
    format      ascii;
    class       volScalarField;
    location    "5.2";
    object      p;
}
// * * * * * * * * * * * * * * * * * * * * * * * * * * * * * * * * * * * * * //

dimensions      [1 -1 -2 0 0 0 0];

internalField   nonuniform List<scalar> 
320
(
14724.8
14724.8
14724.8
14724.8
4.96657
4.9656
4.96683
4.96659
4.96718
4.96781
4.96796
4.96793
4.96725
4.96672
4.96732
4.96675
4914.88
4914.82
4914.83
4914.88
4914.87
4914.87
4914.87
4914.9
4914.87
4914.88
4914.84
4914.86
14724.8
14724.8
14724.8
14724.8
14724.8
14724.8
14724.8
14724.8
14724.8
14724.8
14724.8
14724.8
24534.8
24534.8
24534.8
24534.8
24534.8
24534.8
24534.8
24534.8
24534.8
24534.8
24534.8
24534.8
24534.8
24534.8
24534.8
24534.8
4.96738
4.97033
4.96616
4.96805
4.96837
4.96734
4.96638
4.9662
4.96651
4.96677
4.96709
4.96785
4.9692
4.96898
4.96833
4.96766
4.96717
4.96764
4.96765
4.9664
4914.82
4914.86
4914.83
4914.88
4914.85
4914.85
4914.86
4914.85
4914.86
4914.83
4914.84
4914.83
4914.89
4914.84
4914.84
4914.86
4914.85
4914.81
4914.81
4914.83
14724.8
14724.8
14724.8
14724.8
14724.8
14724.8
14724.8
14724.8
14724.8
14724.8
14724.8
14724.8
14724.8
14724.8
14724.8
14724.8
14724.8
14724.8
14724.8
14724.8
24534.8
24534.8
24534.8
24534.8
24534.8
24534.8
24534.8
24534.8
24534.8
24534.8
24534.8
24534.8
24534.8
24534.8
24534.8
24534.8
24534.8
24534.8
24534.8
24534.8
34344.8
34344.8
34344.8
34344.8
34344.8
34344.8
34344.8
34344.8
34344.8
34344.8
34344.8
34344.8
34344.8
34344.8
34344.8
34344.8
34344.8
34344.8
34344.8
34344.8
34344.8
34344.8
34344.8
34344.8
34344.8
34344.8
34344.8
34344.8
34344.8
34344.8
34344.8
34344.8
34344.8
34344.8
34344.8
34344.8
4.96647
4.96621
4.96625
4.96704
4.96916
4.97179
4.9696
4.96766
4.96595
4.96602
4.9656
4.96613
4.96723
4.96698
4.96725
4.96684
4.96796
4.96843
4.96981
4.96743
4.9689
4.9669
4.96688
4.96717
4.96699
4.96703
4.96726
4.9658
4914.88
4914.8
4914.8
4914.85
4914.9
4914.86
4914.85
4914.88
4914.9
4914.89
4914.87
4914.88
4914.85
4914.81
4914.81
4914.83
4914.87
4914.88
4914.87
4914.82
4914.84
4914.87
4914.86
4914.87
4914.83
4914.8
4914.86
4914.9
14724.8
14724.8
14724.8
14724.8
14724.8
14724.8
14724.8
14724.8
14724.8
14724.8
14724.8
14724.8
14724.8
14724.8
14724.8
14724.8
14724.8
14724.8
14724.8
14724.8
14724.8
14724.8
14724.8
14724.8
14724.8
14724.8
14724.8
14724.8
24534.8
24534.8
24534.8
24534.8
24534.8
24534.8
24534.8
24534.8
24534.8
24534.8
24534.8
24534.8
24534.8
24534.8
24534.8
24534.8
24534.8
24534.8
24534.8
24534.8
24534.8
24534.8
24534.8
24534.8
24534.8
24534.8
24534.8
24534.8
34344.8
34344.8
34344.8
34344.8
34344.8
34344.8
34344.8
34344.8
34344.8
34344.8
34344.8
34344.8
34344.8
34344.8
34344.8
34344.8
34344.8
34344.8
34344.8
34344.8
34344.8
34344.8
34344.8
34344.8
34344.8
34344.8
34344.8
34344.8
4.9673
4.96675
4.96815
4.96754
4914.89
4914.87
4914.85
4914.86
)
;

boundaryField
{
    top_fluid_surface
    {
        type            calculated;
        value           nonuniform List<scalar> 
64
(
-1.70618e-08
0
0
-7.18698e-10
-6.2018e-09
-1.14079e-08
-1.02448e-08
-6.8207e-11
-3.95195e-09
-1.18791e-08
0
-3.82352e-10
0
-1.87293e-08
0
-3.75769e-09
0
0
0
0
-2.24481e-10
0
0
0
-2.24416e-08
0
0
0
0
0
0
0
-1.30233e-08
0
0
0
-2.8845e-09
0
-1.15924e-09
-5.29742e-09
-1.00098e-10
-6.77544e-08
-2.31738e-08
-5.60722e-09
-9.36645e-10
0
0
0
-9.16964e-09
-9.2835e-09
-1.55053e-09
-5.46201e-08
-3.11967e-09
-6.97214e-10
0
-1.29906e-09
0
0
-4.09143e-10
-4.01274e-08
-4.50546e-08
-2.50027e-11
-1.34953e-08
0
)
;
    }
    bottom_fluid_surface
    {
        type            calculated;
        value           nonuniform List<scalar> 
64
(
39249.8
39249.8
39249.8
39249.8
39249.8
39249.8
39249.8
39249.8
39249.8
39249.8
39249.8
39249.8
39249.8
39249.8
39249.8
39249.8
39249.8
39249.8
39249.8
39249.8
39249.8
39249.8
39249.8
39249.8
39249.8
39249.8
39249.8
39249.8
39249.8
39249.8
39249.8
39249.8
39249.8
39249.8
39249.8
39249.8
39249.8
39249.8
39249.8
39249.8
39249.8
39249.8
39249.8
39249.8
39249.8
39249.8
39249.8
39249.8
39249.8
39249.8
39249.8
39249.8
39249.8
39249.8
39249.8
39249.8
39249.8
39249.8
39249.8
39249.8
39249.8
39249.8
39249.8
39249.8
)
;
    }
    lateral_surface_1
    {
        type            calculated;
        value           nonuniform List<scalar> 
40
(
4.96647
4.96621
4.96625
4.96704
4.96916
4.97179
4.9696
4.9658
4914.88
4914.8
4914.8
4914.85
4914.9
4914.86
4914.85
4914.9
14724.8
14724.8
14724.8
14724.8
14724.8
14724.8
14724.8
14724.8
24534.8
24534.8
24534.8
24534.8
24534.8
24534.8
24534.8
24534.8
34344.8
34344.8
34344.8
34344.8
34344.8
34344.8
34344.8
34344.8
)
;
    }
    lateral_surface_2
    {
        type            calculated;
        value           nonuniform List<scalar> 
40
(
4.96698
4.96725
4.96684
4.96796
4.96843
4.96981
4.96743
4.9689
4914.81
4914.81
4914.83
4914.87
4914.88
4914.87
4914.82
4914.84
14724.8
14724.8
14724.8
14724.8
14724.8
14724.8
14724.8
14724.8
24534.8
24534.8
24534.8
24534.8
24534.8
24534.8
24534.8
24534.8
34344.8
34344.8
34344.8
34344.8
34344.8
34344.8
34344.8
34344.8
)
;
    }
    lateral_surface_3
    {
        type            calculated;
        value           nonuniform List<scalar> 
40
(
4.9696
4.96766
4.96595
4.96602
4.9656
4.96613
4.96723
4.96698
4914.85
4914.88
4914.9
4914.89
4914.87
4914.88
4914.85
4914.81
14724.8
14724.8
14724.8
14724.8
14724.8
14724.8
14724.8
14724.8
24534.8
24534.8
24534.8
24534.8
24534.8
24534.8
24534.8
24534.8
34344.8
34344.8
34344.8
34344.8
34344.8
34344.8
34344.8
34344.8
)
;
    }
    lateral_surface_4
    {
        type            calculated;
        value           nonuniform List<scalar> 
40
(
4.9689
4.9669
4.96688
4.96717
4.96699
4.96703
4.96726
4.9658
4914.84
4914.87
4914.86
4914.87
4914.83
4914.8
4914.86
4914.9
14724.8
14724.8
14724.8
14724.8
14724.8
14724.8
14724.8
14724.8
24534.8
24534.8
24534.8
24534.8
24534.8
24534.8
24534.8
24534.8
34344.8
34344.8
34344.8
34344.8
34344.8
34344.8
34344.8
34344.8
)
;
    }
}


// ************************************************************************* //
