/*--------------------------------*- C++ -*----------------------------------*\
| =========                 |                                                 |
| \\      /  F ield         | OpenFOAM: The Open Source CFD Toolbox           |
|  \\    /   O peration     | Version:  v1612+                                |
|   \\  /    A nd           | Web:      www.OpenFOAM.com                      |
|    \\/     M anipulation  |                                                 |
\*---------------------------------------------------------------------------*/
FoamFile
{
    version     2.0;
    format      ascii;
    class       volScalarField;
    location    "5.2";
    object      p_rgh;
}
// * * * * * * * * * * * * * * * * * * * * * * * * * * * * * * * * * * * * * //

dimensions      [1 -1 -2 0 0 0 0];

internalField   nonuniform List<scalar> 
320
(
-9800.21
-9800.19
-9800.2
-9800.19
-0.00600588
0.0020634
0.00177197
-0.00161942
-0.00601697
-0.00674096
-0.00688314
-0.000746823
-0.00211453
-0.00526519
0.00800559
-0.00105643
-9799.92
-9799.98
-9799.98
-9799.95
-9799.88
-9799.88
-9799.88
-9799.98
-9799.91
-9799.9
-9800.06
-9799.91
-9800.21
-9800.21
-9800.21
-9800.2
-9800.21
-9800.21
-9800.2
-9800.19
-9800.2
-9800.2
-9800.2
-9800.22
-9800.21
-9800.2
-9800.2
-9800.2
-9800.21
-9800.2
-9800.2
-9800.2
-9800.2
-9800.21
-9800.21
-9800.2
-9800.21
-9800.21
-9800.21
-9800.21
0.00381034
-0.00592468
0.00264236
-0.00450247
0.00706472
0.0109565
0.00195539
0.0097765
-0.00116141
0.00293467
0.00913771
0.0117136
-0.00948566
0.00859665
0.00666378
0.00422073
0.00571117
0.00411946
0.00388523
0.00850555
-9799.97
-9799.87
-9799.99
-9799.92
-9800.06
-9800.1
-9800.05
-9800.09
-9799.91
-9800
-9800.06
-9800.07
-9799.88
-9800.05
-9800.03
-9800.06
-9800.06
-9799.95
-9799.96
-9800.04
-9800.23
-9800.23
-9800.21
-9800.2
-9800.19
-9800.18
-9800.19
-9800.19
-9800.21
-9800.21
-9800.21
-9800.2
-9800.2
-9800.2
-9800.21
-9800.2
-9800.2
-9800.22
-9800.22
-9800.22
-9800.22
-9800.22
-9800.21
-9800.2
-9800.19
-9800.19
-9800.2
-9800.2
-9800.21
-9800.21
-9800.21
-9800.2
-9800.21
-9800.21
-9800.21
-9800.2
-9800.21
-9800.22
-9800.22
-9800.22
-9800.21
-9800.2
-9800.2
-9800.2
-9800.21
-9800.2
-9800.2
-9800.2
-9800.2
-9800.21
-9800.21
-9800.2
-9800.21
-9800.21
-9800.21
-9800.21
-9800.22
-9800.22
-9800.21
-9800.2
-9800.2
-9800.19
-9800.2
-9800.2
-9800.21
-9800.21
-9800.21
-9800.2
-9800.21
-9800.21
-9800.21
-9800.21
-9800.21
-9800.21
-9800.22
-9800.22
-0.0070293
0.00478547
0.00355539
0.00427813
-0.00610747
0.00148718
-0.0015643
-0.00411133
0.000176344
-0.0163822
-0.00679143
-0.00336267
-0.00365708
0.00491401
0.0046489
0.00105305
-0.00582888
-0.00599785
-0.00222054
-0.00178123
-0.00264679
0.000127502
0.000873934
-0.0012358
0.00673284
0.00696848
-0.000533671
-0.0124132
-9799.9
-9799.95
-9799.95
-9800.04
-9799.94
-9799.98
-9799.86
-9799.91
-9800.01
-9799.83
-9799.88
-9799.93
-9799.87
-9799.97
-9799.96
-9799.96
-9799.88
-9799.9
-9799.92
-9799.91
-9799.85
-9799.93
-9800.02
-9799.92
-9800.02
-9799.97
-9799.91
-9799.9
-9800.22
-9800.24
-9800.23
-9800.2
-9800.19
-9800.18
-9800.2
-9800.2
-9800.18
-9800.21
-9800.21
-9800.21
-9800.22
-9800.23
-9800.23
-9800.22
-9800.21
-9800.2
-9800.2
-9800.22
-9800.22
-9800.21
-9800.2
-9800.21
-9800.21
-9800.22
-9800.22
-9800.21
-9800.22
-9800.22
-9800.22
-9800.2
-9800.2
-9800.19
-9800.2
-9800.2
-9800.19
-9800.2
-9800.2
-9800.21
-9800.21
-9800.21
-9800.22
-9800.21
-9800.21
-9800.21
-9800.21
-9800.22
-9800.22
-9800.21
-9800.2
-9800.21
-9800.21
-9800.22
-9800.22
-9800.21
-9800.22
-9800.22
-9800.22
-9800.21
-9800.2
-9800.19
-9800.2
-9800.2
-9800.19
-9800.2
-9800.2
-9800.21
-9800.21
-9800.21
-9800.21
-9800.21
-9800.21
-9800.21
-9800.21
-9800.21
-9800.22
-9800.21
-9800.21
-9800.21
-9800.21
-9800.22
-9800.22
-9800.21
-0.0139327
-0.000688115
-0.00107742
0.00229798
-9799.85
-9800.05
-9799.99
-9800.05
)
;

boundaryField
{
    top_fluid_surface
    {
        type            totalPressure;
        rho             rho;
        psi             none;
        gamma           1;
        p0              uniform 0;
        value           nonuniform List<scalar> 
64
(
-1.70618e-08
0
0
-7.18698e-10
-6.2018e-09
-1.14079e-08
-1.02448e-08
-6.8207e-11
-3.95195e-09
-1.18791e-08
0
-3.82352e-10
0
-1.87293e-08
0
-3.75769e-09
0
0
0
0
-2.24481e-10
0
0
0
-2.24416e-08
0
0
0
0
0
0
0
-1.30233e-08
0
0
0
-2.8845e-09
0
-1.15924e-09
-5.29742e-09
-1.00098e-10
-6.77544e-08
-2.31738e-08
-5.60722e-09
-9.36645e-10
0
0
0
-9.16964e-09
-9.2835e-09
-1.55053e-09
-5.46201e-08
-3.11967e-09
-6.97214e-10
0
-1.29906e-09
0
0
-4.09143e-10
-4.01274e-08
-4.50546e-08
-2.50027e-11
-1.34953e-08
0
)
;
    }
    bottom_fluid_surface
    {
        type            fixedFluxPressure;
        gradient        uniform 0;
        value           nonuniform List<scalar> 
64
(
-9800.21
-9800.2
-9800.2
-9800.2
-9800.21
-9800.2
-9800.2
-9800.2
-9800.2
-9800.21
-9800.21
-9800.2
-9800.21
-9800.21
-9800.21
-9800.21
-9800.22
-9800.22
-9800.21
-9800.2
-9800.2
-9800.19
-9800.2
-9800.2
-9800.21
-9800.21
-9800.21
-9800.2
-9800.21
-9800.21
-9800.21
-9800.21
-9800.21
-9800.21
-9800.22
-9800.22
-9800.22
-9800.22
-9800.22
-9800.21
-9800.2
-9800.19
-9800.2
-9800.2
-9800.19
-9800.2
-9800.2
-9800.21
-9800.21
-9800.21
-9800.21
-9800.21
-9800.21
-9800.21
-9800.21
-9800.21
-9800.22
-9800.21
-9800.21
-9800.21
-9800.21
-9800.22
-9800.22
-9800.21
)
;
    }
    lateral_surface_1
    {
        type            fixedFluxPressure;
        gradient        uniform 0;
        value           nonuniform List<scalar> 
40
(
-0.0070293
0.00478547
0.00355539
0.00427813
-0.00610747
0.00148718
-0.0015643
-0.0124132
-9799.9
-9799.95
-9799.95
-9800.04
-9799.94
-9799.98
-9799.86
-9799.9
-9800.22
-9800.24
-9800.23
-9800.2
-9800.19
-9800.18
-9800.2
-9800.21
-9800.22
-9800.22
-9800.22
-9800.2
-9800.2
-9800.19
-9800.2
-9800.21
-9800.22
-9800.22
-9800.22
-9800.21
-9800.2
-9800.19
-9800.2
-9800.21
)
;
    }
    lateral_surface_2
    {
        type            fixedFluxPressure;
        gradient        uniform 0;
        value           nonuniform List<scalar> 
40
(
0.00491401
0.0046489
0.00105305
-0.00582888
-0.00599785
-0.00222054
-0.00178123
-0.00264679
-9799.97
-9799.96
-9799.96
-9799.88
-9799.9
-9799.92
-9799.91
-9799.85
-9800.23
-9800.23
-9800.22
-9800.21
-9800.2
-9800.2
-9800.22
-9800.22
-9800.21
-9800.22
-9800.21
-9800.21
-9800.21
-9800.21
-9800.22
-9800.22
-9800.21
-9800.21
-9800.21
-9800.21
-9800.21
-9800.21
-9800.21
-9800.22
)
;
    }
    lateral_surface_3
    {
        type            fixedFluxPressure;
        gradient        uniform 0;
        value           nonuniform List<scalar> 
40
(
-0.0015643
-0.00411133
0.000176344
-0.0163822
-0.00679143
-0.00336267
-0.00365708
0.00491401
-9799.86
-9799.91
-9800.01
-9799.83
-9799.88
-9799.93
-9799.87
-9799.97
-9800.2
-9800.2
-9800.18
-9800.21
-9800.21
-9800.21
-9800.22
-9800.23
-9800.2
-9800.2
-9800.19
-9800.2
-9800.2
-9800.21
-9800.21
-9800.21
-9800.2
-9800.2
-9800.19
-9800.2
-9800.2
-9800.21
-9800.21
-9800.21
)
;
    }
    lateral_surface_4
    {
        type            fixedFluxPressure;
        gradient        uniform 0;
        value           nonuniform List<scalar> 
40
(
-0.00264679
0.000127502
0.000873934
-0.0012358
0.00673284
0.00696848
-0.000533671
-0.0124132
-9799.85
-9799.93
-9800.02
-9799.92
-9800.02
-9799.97
-9799.91
-9799.9
-9800.22
-9800.21
-9800.2
-9800.21
-9800.21
-9800.22
-9800.22
-9800.21
-9800.22
-9800.21
-9800.2
-9800.21
-9800.21
-9800.22
-9800.22
-9800.21
-9800.22
-9800.21
-9800.21
-9800.21
-9800.21
-9800.22
-9800.22
-9800.21
)
;
    }
}


// ************************************************************************* //
