/*--------------------------------*- C++ -*----------------------------------*\
| =========                 |                                                 |
| \\      /  F ield         | OpenFOAM: The Open Source CFD Toolbox           |
|  \\    /   O peration     | Version:  v1612+                                |
|   \\  /    A nd           | Web:      www.OpenFOAM.com                      |
|    \\/     M anipulation  |                                                 |
\*---------------------------------------------------------------------------*/
FoamFile
{
    version     2.0;
    format      ascii;
    class       surfaceScalarField;
    location    "5.2";
    object      phi;
}
// * * * * * * * * * * * * * * * * * * * * * * * * * * * * * * * * * * * * * //

dimensions      [0 3 -1 0 0 0 0];

internalField   nonuniform List<scalar> 
816
(
-5.48582e-06
-6.89027e-06
3.38293e-06
-2.18657e-06
-8.8923e-06
2.00448e-05
3.80384e-06
5.83043e-06
-1.2703e-06
1.00623e-05
-2.38893e-05
-6.71613e-06
2.55766e-06
4.74304e-06
6.87937e-06
-1.43742e-05
-2.70863e-06
8.70507e-06
7.65582e-06
-1.6607e-05
0.000125788
0.000114925
2.3311e-05
8.23233e-05
-6.22845e-05
5.53941e-05
1.76344e-05
7.05395e-05
-9.07402e-05
-7.06782e-05
-1.1596e-06
-7.17294e-05
0.000120777
1.84646e-05
9.30767e-06
-0.00018886
0.000142864
0.000151007
-1.06772e-06
8.77012e-05
2.05507e-05
0.000117906
-2.08194e-06
3.16995e-05
0.000305583
0.000173689
-2.50038e-06
0.000129748
0.000109882
0.000319472
6.50133e-06
-8.12431e-05
-7.55178e-05
6.74032e-05
6.75714e-06
0.000126916
0.000228601
0.000200263
1.32081e-05
0.000142404
-6.13046e-05
5.24438e-05
-8.96774e-07
0.000276997
-0.000452914
7.83017e-07
2.90335e-05
0.000160059
9.12749e-06
8.56692e-06
-1.77876e-05
3.43979e-07
1.38344e-05
1.93435e-05
-1.84446e-05
5.19843e-06
1.35005e-05
-2.246e-07
-6.11374e-06
4.33923e-06
1.56446e-05
-6.2645e-07
1.3288e-05
-7.17101e-06
2.07549e-06
-3.4878e-07
2.21945e-06
-5.60153e-06
4.41661e-07
6.89623e-06
-2.04648e-05
-1.22545e-08
8.50963e-06
2.36764e-06
-1.52125e-05
-1.05138e-06
1.2754e-05
7.07648e-07
1.20916e-05
-9.88807e-06
2.46305e-06
2.21689e-06
-2.74141e-05
1.59312e-05
1.51071e-05
1.76928e-05
-1.93615e-05
1.34888e-06
1.28712e-05
3.67887e-06
1.34712e-05
5.52835e-06
-7.63056e-06
-6.43434e-06
9.36641e-06
9.25198e-06
-4.4729e-06
-3.38005e-07
-9.44259e-06
1.22658e-07
-8.1331e-06
-8.03456e-06
-9.20643e-07
-1.83654e-06
-1.83916e-06
1.84265e-08
-1.06452e-05
2.43302e-06
5.3931e-06
2.33087e-06
2.25772e-06
1.25346e-06
-1.56126e-06
-8.40974e-07
-9.56175e-06
-3.5234e-06
-4.28698e-06
-1.6564e-06
-6.94404e-06
1.26924e-06
-1.32812e-07
4.54103e-06
8.58253e-06
-3.90983e-06
-1.29214e-05
-1.84779e-06
-8.85849e-06
-8.92084e-06
-9.43009e-06
-1.63852e-07
-2.65256e-06
5.97359e-06
-9.78451e-07
-3.14559e-06
-5.43104e-06
-9.43487e-07
-2.81647e-06
-3.83536e-06
1.87601e-06
-1.77064e-06
-2.38268e-06
1.80764e-06
2.99803e-06
-9.64919e-07
3.39311e-06
-3.93344e-06
2.35017e-06
2.87866e-06
1.74359e-06
-1.84361e-06
4.45254e-06
2.90319e-06
-2.56635e-06
-1.1691e-06
-9.18907e-07
-3.03976e-06
-5.23942e-06
-1.17575e-06
-1.19174e-06
-9.66404e-07
-5.90866e-08
-5.86506e-06
-2.00268e-07
1.703e-06
1.10245e-06
6.39749e-07
1.40335e-06
-6.74535e-07
3.87449e-07
-6.27354e-08
-2.50351e-06
-2.743e-06
-2.82965e-06
-6.0062e-07
3.3545e-07
-2.29934e-06
1.42488e-08
5.45428e-06
7.89123e-07
-2.18444e-06
-1.58428e-06
-5.23519e-06
-3.90884e-06
-5.6178e-06
-4.37363e-07
-2.66924e-06
-2.26257e-06
-7.80381e-07
1.64813e-06
-4.12894e-06
-1.39799e-06
-1.07304e-06
-0.000325697
0.000119765
1.04628e-06
3.74611e-05
-8.27417e-05
5.43509e-05
0.000161115
-0.000239827
5.05157e-06
2.42463e-05
-7.4988e-05
-3.6397e-07
-6.36047e-05
3.3792e-05
-1.15627e-05
-0.000115049
-0.000261399
-0.000107493
-5.06514e-06
-0.000144088
-2.19574e-05
6.1214e-07
-0.000376112
-0.000123993
1.00316e-05
-0.00025693
4.30941e-05
2.30578e-07
-9.31771e-05
0.000108942
-1.58467e-06
-0.000196152
2.60643e-05
-2.9661e-05
3.12872e-06
4.96855e-05
-0.000215332
-6.22564e-07
-0.000191969
0.000159957
-1.55272e-06
-3.75869e-05
8.14431e-05
-5.83285e-07
-0.00014006
6.86108e-05
-2.22984e-06
-0.000145476
-9.39861e-05
1.29794e-05
4.18685e-06
0.000107678
-6.67997e-05
7.56883e-06
-3.60349e-05
-4.54841e-05
-6.22394e-06
9.94694e-05
-7.36592e-05
-6.54105e-06
7.22949e-05
1.3078e-05
-0.000270988
-9.2805e-05
-1.21098e-05
-3.10121e-06
1.27809e-05
4.95814e-06
2.16897e-06
-5.78906e-06
1.92512e-06
6.2066e-06
-1.45606e-05
1.25161e-05
-5.40929e-07
-2.01985e-06
9.29733e-06
5.52041e-06
2.05464e-05
-1.36215e-05
-2.24204e-05
-2.53985e-06
3.20911e-05
-8.33719e-06
-6.26164e-06
2.16325e-05
-2.29499e-05
-2.17719e-05
4.83532e-05
-3.3043e-05
-1.52432e-05
3.27833e-06
-8.04782e-06
9.06426e-06
-1.85759e-05
1.93962e-06
-9.37471e-06
3.52644e-06
1.71322e-05
-8.63197e-07
-1.21982e-05
2.52043e-05
-1.68008e-05
4.52195e-06
-3.09832e-05
-4.12268e-06
-8.92993e-07
1.51111e-05
-4.57489e-06
6.6963e-06
5.68522e-06
-6.04232e-06
-1.23051e-05
1.93677e-06
1.64065e-05
8.07198e-06
-5.39283e-06
2.72484e-05
-1.33201e-05
-9.72424e-06
9.86496e-06
-8.82325e-06
-7.65573e-06
-2.57938e-06
-5.08395e-07
1.92017e-05
-1.20534e-05
-1.3286e-05
4.37834e-06
1.95717e-06
6.83244e-06
-5.85949e-06
7.10398e-08
-2.98922e-06
1.29382e-06
-2.91276e-06
-5.479e-06
-7.05191e-06
-4.91016e-07
-1.53931e-06
-2.88733e-06
-7.48832e-06
1.00638e-05
9.12957e-06
8.40658e-06
-9.18743e-07
1.48232e-05
1.42107e-07
2.85116e-06
9.84884e-06
1.03309e-05
1.38462e-05
2.17622e-05
1.40545e-05
1.10005e-05
1.57886e-06
1.04407e-06
-3.12936e-06
-8.34582e-06
-3.45495e-06
7.33127e-06
2.01642e-06
8.12923e-06
-4.87956e-07
8.79426e-06
1.19959e-05
7.72706e-06
-4.8448e-07
-1.47171e-05
1.58589e-06
-1.66154e-06
6.79261e-06
7.61972e-06
-9.31677e-06
2.74389e-06
9.36834e-06
1.18292e-06
-3.17194e-06
6.88603e-06
-5.48982e-06
4.66901e-06
1.1716e-05
7.56537e-06
3.68566e-06
5.75233e-06
4.06858e-06
8.25585e-07
-1.122e-06
4.69663e-07
8.87355e-06
3.44534e-06
9.6001e-06
2.93419e-06
1.19252e-06
2.47577e-06
-4.0057e-06
6.93641e-07
-1.21762e-06
-4.66634e-07
-1.29548e-06
-1.57758e-07
-4.49604e-06
-1.79988e-07
-6.25767e-07
-2.0747e-06
-3.92535e-06
2.89207e-06
5.69657e-06
5.3284e-06
-4.87761e-07
5.26415e-06
2.06189e-07
1.43589e-06
3.56111e-06
5.4443e-06
7.42561e-06
6.87872e-06
8.19672e-06
5.9342e-06
2.88892e-07
3.02885e-07
-1.53299e-06
-1.29667e-06
-2.96091e-06
3.45579e-06
1.67697e-06
2.48535e-06
-3.09721e-07
5.90155e-06
3.7505e-06
4.3724e-06
-5.15626e-07
-3.93357e-06
1.06471e-06
-1.17274e-06
1.70705e-06
4.10588e-06
-5.02236e-06
5.66979e-07
5.34723e-06
6.40701e-07
-2.36498e-06
2.66268e-06
-3.68535e-06
1.63046e-06
3.40068e-06
3.89247e-06
2.06515e-06
1.97362e-06
2.62358e-06
4.13739e-07
-3.94889e-07
-4.76558e-07
2.17924e-06
2.33775e-06
5.91921e-06
-1.45221e-06
-1.37113e-06
9.08992e-07
-4.52634e-07
1.88151e-06
1.61549e-07
-8.14731e-08
-2.92139e-06
1.41997e-06
1.89323e-06
-1.44742e-06
3.31087e-06
-2.42623e-06
3.22549e-07
7.83548e-09
-2.49749e-06
-9.58124e-07
-2.33667e-07
4.16573e-07
-2.91481e-06
2.65986e-07
1.43482e-08
6.40068e-07
-1.42288e-06
2.75496e-07
-1.43363e-06
-1.02362e-06
3.32321e-07
9.49298e-07
1.5607e-07
2.38017e-06
-2.16745e-06
5.39756e-07
-2.13907e-06
-3.33444e-06
4.04172e-07
-1.76172e-06
-3.67057e-07
-2.66425e-06
1.51595e-07
1.08325e-06
8.13365e-07
-2.09212e-06
-3.89007e-07
2.08471e-07
-3.71634e-08
-1.5136e-06
6.93672e-08
-2.95949e-07
-1.82007e-06
2.18886e-06
2.58293e-06
8.44716e-08
4.19137e-07
1.25072e-06
2.40078e-06
4.06239e-06
2.64214e-06
2.70774e-06
2.31435e-07
2.51399e-07
-1.04459e-06
2.24235e-06
1.52083e-06
2.18886e-07
3.49608e-06
2.72841e-06
8.32677e-07
1.10172e-06
2.02242e-07
2.85428e-06
-3.01938e-06
2.99078e-06
7.58066e-07
-1.4976e-06
-1.03933e-06
3.37035e-07
1.962e-06
9.02572e-07
1.04961e-06
1.68946e-07
4.71588e-07
7.87979e-07
2.36099e-06
0.000193431
-0.000155939
8.15219e-06
3.15294e-06
1.63561e-05
-8.33402e-05
-4.45476e-07
-0.000239069
-8.20747e-07
-7.0573e-05
-8.92391e-06
-0.000189415
-0.000194772
6.22874e-05
-1.96344e-05
3.83614e-06
-5.41649e-06
-0.000188871
2.18811e-05
0.000118971
5.10609e-06
0.000189035
1.32479e-05
0.000229689
1.33043e-05
0.000196841
-4.70595e-06
-1.67978e-05
-1.99235e-06
-0.000114687
-6.23822e-06
-0.000124805
5.68568e-07
-1.21707e-05
3.6757e-07
0.000181455
4.81709e-06
0.000170383
3.80116e-06
-1.99224e-05
0.000253977
0.000153133
-4.3563e-06
3.92216e-05
2.51552e-05
7.89236e-05
5.97768e-06
0.000139106
-2.32206e-06
-3.16967e-05
-2.25737e-06
-0.000245411
-2.66191e-06
-0.000269756
-8.3512e-07
1.71849e-05
1.05358e-05
-9.26938e-06
-4.9752e-06
9.43878e-07
2.26535e-05
1.19359e-05
-1.21733e-05
2.8394e-06
2.27786e-05
-1.33523e-05
1.8659e-05
-2.11394e-05
-1.34846e-05
7.87505e-06
-3.38717e-05
5.75873e-06
-1.63676e-05
-1.22466e-05
2.5946e-05
-8.16928e-06
-2.17064e-05
1.20871e-05
-4.14136e-05
2.22333e-05
-8.16906e-06
8.35878e-06
1.89492e-05
-9.49437e-06
1.67477e-05
-1.89407e-06
-2.29719e-05
2.97765e-07
3.56051e-06
3.24446e-07
-1.19058e-05
6.38885e-06
-6.28461e-06
2.4224e-07
-1.77809e-05
-1.24562e-05
-1.49618e-05
1.3208e-05
-3.29742e-05
6.46903e-06
1.31367e-05
-7.2001e-06
2.94334e-05
3.0234e-06
-2.32492e-05
9.83826e-07
-7.75373e-06
-8.18074e-06
4.62619e-06
-6.53093e-06
-2.27548e-05
-7.77166e-06
-3.2518e-06
4.87928e-06
-3.14447e-06
1.35723e-06
1.204e-05
-5.1691e-06
-4.4563e-06
3.83494e-08
1.05516e-05
8.08463e-06
7.82524e-06
1.01777e-05
-6.20019e-06
-8.97028e-06
-1.47273e-05
-8.09518e-06
-8.65477e-06
6.85943e-06
1.12685e-05
4.46272e-06
-8.98898e-06
-4.71011e-06
-1.81494e-05
-7.5236e-06
-4.28285e-06
-1.73445e-06
9.84425e-06
6.74719e-06
8.21281e-06
8.20201e-07
-9.8856e-06
2.25667e-06
1.7712e-06
4.22244e-06
-6.14075e-06
3.45063e-06
-3.88407e-06
2.2689e-06
-9.01831e-06
3.58914e-06
-7.09686e-06
-1.49283e-05
-1.44701e-05
-5.87398e-06
5.35199e-06
5.20983e-06
1.28731e-05
-1.72886e-07
-1.03117e-05
-4.16074e-07
-3.45813e-06
1.88672e-06
2.7265e-06
-1.31424e-06
-9.99159e-06
-4.14173e-06
-3.0721e-06
3.1225e-06
-8.94277e-07
7.86678e-07
4.13805e-06
-2.09318e-06
-2.05986e-06
7.17431e-07
3.26556e-06
5.08052e-06
1.55294e-06
5.76226e-06
-1.16592e-06
-4.51177e-06
-4.50525e-06
-4.91376e-06
-3.02604e-06
3.55569e-06
3.00637e-06
2.69419e-06
-2.6901e-06
-3.33056e-06
-3.9392e-06
-5.75616e-06
-1.62409e-06
-1.56947e-06
2.80662e-06
4.70728e-06
2.0588e-06
1.32598e-06
-3.04766e-06
2.33158e-06
4.68339e-07
2.84891e-06
-2.31856e-06
1.71185e-06
-1.73095e-06
7.15597e-07
-3.96649e-06
1.46423e-06
-2.53176e-06
-8.10486e-06
-4.96142e-06
-3.09597e-06
1.02329e-06
2.86873e-06
3.25418e-06
-6.30077e-07
-2.91201e-06
-9.01799e-07
-5.6264e-07
1.4105e-06
-1.66483e-08
-7.13943e-08
-2.67406e-06
-1.05077e-06
-1.61154e-06
1.53053e-06
4.50828e-07
-1.42766e-06
2.80268e-07
1.52966e-06
2.58196e-06
-1.8857e-06
-2.36819e-06
1.05204e-06
7.81315e-07
-4.77984e-07
-1.91328e-06
-2.18501e-07
1.84959e-06
1.10581e-06
1.81065e-06
2.20638e-06
1.54986e-06
4.41855e-07
9.4077e-07
-4.05095e-06
-2.30219e-06
-9.90309e-08
-1.05452e-06
-5.73912e-07
-1.42838e-07
-4.62643e-07
-0.000151911
0.000175825
2.16094e-06
-0.000116657
6.82535e-06
9.7336e-05
0.000169077
5.32108e-07
4.84354e-06
1.95504e-05
-1.06993e-06
9.24837e-06
)
;

boundaryField
{
    top_fluid_surface
    {
        type            calculated;
        value           nonuniform List<scalar> 
64
(
-0.000296585
3.5489e-05
7.09297e-05
-6.87863e-05
-0.000228222
-0.00028185
-0.000274231
-2.22277e-05
-0.000129402
-0.00025606
0.000339735
-4.67945e-05
0.00017738
-0.000268657
9.70746e-05
-0.000170947
0.000330111
0.000475422
9.64658e-05
0.000433078
-4.52765e-05
9.807e-05
0.000374548
0.000507122
-0.000391743
0.000377194
0.00028058
0.000177865
0.000244984
0.000192201
0.000169511
0.000343622
-0.000298011
0.000198819
0.000128554
0.000200721
-0.000190899
0.000237211
-9.66304e-05
-0.000194125
-7.91565e-06
-0.000691463
-0.00034893
-0.000170649
-0.000120838
0.000215036
0.000166066
3.54394e-05
-0.000254379
-0.000253735
-8.46586e-05
-0.00022066
-0.000129192
-3.19344e-05
5.23071e-05
-7.72376e-05
0.000260521
0.00028555
-3.19639e-05
-0.000518432
-0.000569437
-3.06092e-07
-8.83063e-06
0.000121887
)
;
    }
    bottom_fluid_surface
    {
        type            calculated;
        value           uniform 0;
    }
    lateral_surface_1
    {
        type            calculated;
        value           uniform 0;
    }
    lateral_surface_2
    {
        type            calculated;
        value           uniform 0;
    }
    lateral_surface_3
    {
        type            calculated;
        value           uniform 0;
    }
    lateral_surface_4
    {
        type            calculated;
        value           uniform 0;
    }
}


// ************************************************************************* //
