/*--------------------------------*- C++ -*----------------------------------*\
| =========                 |                                                 |
| \\      /  F ield         | OpenFOAM: The Open Source CFD Toolbox           |
|  \\    /   O peration     | Version:  v1612+                                |
|   \\  /    A nd           | Web:      www.OpenFOAM.com                      |
|    \\/     M anipulation  |                                                 |
\*---------------------------------------------------------------------------*/
FoamFile
{
    version     2.0;
    format      ascii;
    class       volVectorField;
    location    "5.2";
    object      U;
}
// * * * * * * * * * * * * * * * * * * * * * * * * * * * * * * * * * * * * * //

dimensions      [0 1 -1 0 0 0 0];

internalField   nonuniform List<vector> 
320
(
(-4.9213e-06 -8.45628e-06 1.47073e-05)
(-4.27201e-06 -5.93594e-06 -1.53798e-05)
(-1.2644e-05 -4.61721e-06 -1.089e-05)
(9.57171e-07 1.39398e-05 -9.76515e-06)
(0.000134336 -0.000177685 -0.000184726)
(6.1833e-05 -0.000176323 -1.0519e-05)
(9.05078e-05 -7.01462e-05 3.34364e-05)
(-0.000225767 -4.66193e-05 -3.7913e-05)
(6.44365e-05 8.10517e-05 -0.000111371)
(4.76711e-06 0.000266459 -0.000151049)
(-0.000199176 8.34636e-05 -0.000143142)
(-0.000193283 -7.64818e-05 -1.16796e-05)
(-0.000365426 0.000227099 -8.89039e-05)
(-0.000332592 -0.00036193 -0.000154137)
(-0.000573092 -8.29428e-05 0.000179847)
(-0.000330049 7.80202e-06 -2.76533e-05)
(1.29299e-06 2.60577e-06 2.60531e-05)
(1.36976e-05 8.36104e-06 2.14476e-05)
(2.38844e-05 -3.32299e-06 6.538e-06)
(-5.50224e-06 3.73043e-06 -1.1726e-05)
(5.4422e-06 -5.64331e-06 -3.37076e-06)
(1.67919e-06 5.42932e-06 2.43719e-05)
(-1.4375e-05 -5.67526e-07 1.70241e-05)
(8.28849e-06 -1.4241e-05 -1.21052e-05)
(-9.05193e-06 1.96709e-05 3.48762e-05)
(-4.45919e-06 -2.48307e-05 2.57161e-05)
(-1.86402e-05 -6.43688e-06 -1.81457e-05)
(-1.63223e-05 -2.89522e-06 6.93678e-06)
(-2.75766e-06 6.96733e-07 1.32579e-05)
(-5.95632e-06 -5.14511e-06 1.58234e-05)
(-1.18796e-05 -1.51882e-06 3.95666e-06)
(9.26117e-07 -1.5427e-06 -1.1966e-05)
(-7.70505e-06 6.02375e-06 -1.39931e-06)
(-4.50125e-06 -1.85076e-06 1.56205e-05)
(6.36803e-06 1.75868e-06 1.20329e-05)
(-3.77541e-06 1.04934e-05 -9.10633e-06)
(4.26205e-06 -5.30309e-06 2.12477e-05)
(2.45554e-06 1.27935e-05 1.54849e-05)
(8.14629e-06 3.94797e-06 -9.37731e-06)
(3.6351e-06 2.12129e-06 5.52134e-06)
(-2.27594e-06 -5.17701e-06 3.50289e-06)
(-2.46696e-06 -3.68258e-06 -5.85349e-06)
(-7.26699e-06 -1.82917e-06 -2.47059e-06)
(2.04899e-07 7.62555e-06 -5.22663e-06)
(-6.90383e-07 8.25934e-07 3.94864e-06)
(-4.18693e-06 -2.41474e-06 2.00019e-07)
(-7.1692e-06 -1.04363e-06 2.7082e-07)
(8.87284e-08 -7.8523e-07 -1.74372e-07)
(-4.61836e-06 3.90996e-06 -7.97952e-07)
(-3.09979e-06 -1.31235e-06 4.22796e-06)
(3.27213e-06 3.48306e-07 2.90232e-06)
(-2.38539e-06 6.63167e-06 -1.04289e-06)
(2.45975e-06 -3.53664e-06 5.29467e-06)
(1.43383e-06 7.73483e-06 3.07441e-06)
(5.04605e-06 2.89402e-06 -2.63349e-06)
(3.09714e-06 2.14024e-06 1.04735e-06)
(-0.000426761 -9.49912e-05 9.74637e-05)
(-8.58534e-05 -8.15731e-05 -0.000193542)
(-0.000169318 5.36036e-06 3.65457e-05)
(-0.00018103 0.000188124 -8.66913e-05)
(2.79091e-06 0.000287186 0.000190178)
(0.000141224 -0.000221205 0.000264345)
(-0.000180906 8.55607e-06 5.96516e-05)
(8.58182e-05 -5.66026e-05 0.000236681)
(3.80457e-05 -0.000167497 -2.11887e-05)
(-6.02804e-05 0.000256752 4.08467e-05)
(-0.000187253 0.00028238 0.000193595)
(0.000252663 0.000148567 0.000271653)
(0.000108905 -4.28468e-05 -0.000211857)
(-0.000378983 4.87467e-05 0.000199985)
(0.000201748 -0.000114496 0.00014642)
(-0.000159803 -3.03911e-05 9.41923e-05)
(1.42482e-06 1.243e-05 0.000130631)
(1.80687e-05 0.000108582 0.000110187)
(-3.44333e-06 -3.15034e-05 9.04905e-05)
(0.0001697 0.000213948 0.000169314)
(-1.48991e-05 -1.30436e-05 -1.94584e-05)
(-5.88713e-06 -3.3366e-06 8.48605e-06)
(8.29953e-06 -1.79601e-05 1.40423e-05)
(7.54476e-06 -7.95603e-06 3.04308e-06)
(-9.60826e-06 1.67658e-05 -2.70777e-05)
(6.53156e-06 -4.68672e-06 -4.31218e-05)
(-1.11505e-05 4.50898e-07 -2.41742e-05)
(-1.86469e-05 -1.47321e-05 -6.03383e-05)
(-1.89175e-06 -2.50587e-05 -3.3426e-06)
(-7.82677e-07 -8.09218e-06 1.96263e-05)
(-1.90488e-05 9.23917e-06 -1.88479e-05)
(1.36311e-05 -2.72768e-06 -3.48194e-05)
(6.3842e-06 -7.96476e-06 3.49408e-05)
(-1.29092e-05 9.06345e-06 -2.15376e-05)
(1.43782e-05 -8.93647e-06 -7.73287e-06)
(-2.00513e-05 -5.79182e-06 -1.90129e-05)
(2.83053e-06 1.51703e-06 -3.14832e-05)
(9.1596e-06 1.16074e-05 -1.54258e-05)
(5.09325e-08 6.34753e-06 1.85693e-06)
(2.00544e-05 9.31618e-06 -2.10708e-05)
(6.61457e-06 9.13247e-06 -8.96118e-06)
(2.34481e-06 -7.64551e-07 2.97332e-06)
(-2.05661e-06 7.20681e-06 1.26167e-05)
(-3.53029e-06 1.39402e-06 1.82687e-06)
(2.71335e-06 -1.27291e-05 -1.54487e-05)
(-7.06881e-06 -6.87374e-07 -2.08811e-05)
(4.7606e-06 -1.76054e-06 -1.59073e-05)
(5.5944e-06 8.51392e-06 -3.38197e-05)
(-2.26973e-06 1.68251e-05 -3.09543e-06)
(-1.4661e-06 6.90639e-06 1.5609e-05)
(7.36152e-06 -5.91585e-06 -1.42049e-05)
(-1.13871e-05 1.40899e-06 -1.83446e-05)
(-5.58021e-06 5.29703e-06 2.59996e-05)
(6.37314e-06 2.20551e-06 -1.05733e-05)
(-2.54789e-06 1.12941e-05 -4.59458e-06)
(1.19532e-05 6.57608e-06 -1.10767e-05)
(-2.28598e-06 -7.33576e-07 -2.0178e-05)
(-5.40211e-06 -7.2775e-06 -7.66229e-06)
(-1.47587e-06 -8.35491e-07 1.90171e-06)
(-1.11171e-05 -1.1065e-06 -1.65078e-05)
(3.85537e-06 6.1343e-06 -3.43266e-06)
(2.27905e-06 1.44562e-06 2.624e-06)
(-5.97405e-07 5.08717e-06 -8.08309e-07)
(-2.23833e-06 1.14158e-06 1.15635e-06)
(2.00618e-06 -7.1325e-06 -4.50354e-06)
(-3.55197e-06 -8.76868e-08 -8.81798e-06)
(2.5922e-06 -1.13164e-06 -5.32372e-06)
(3.71132e-06 4.43707e-06 -1.08096e-05)
(-1.77865e-06 9.26441e-06 -1.98211e-07)
(-1.51955e-06 3.45258e-06 1.36861e-06)
(4.29778e-06 -3.64063e-06 -3.10496e-06)
(-7.73924e-06 5.7611e-07 -5.19978e-06)
(-3.38189e-06 3.44224e-06 4.81248e-06)
(4.22058e-06 7.98007e-07 -2.2058e-06)
(-1.53464e-06 6.26226e-06 -5.52045e-07)
(7.31562e-06 3.84493e-06 -3.8513e-06)
(-7.22784e-07 7.57145e-07 -4.63748e-06)
(-2.96966e-06 -3.5138e-06 -2.19465e-06)
(6.82618e-08 -3.64792e-07 9.83869e-07)
(-6.71012e-06 -7.12108e-07 -2.22102e-06)
(-1.89149e-06 -2.22131e-06 1.07347e-06)
(-4.48356e-07 -5.97252e-07 -1.30805e-06)
(-4.33062e-06 -1.56965e-07 -1.07054e-06)
(-9.41753e-07 4.68603e-06 -9.60883e-07)
(-1.82233e-06 5.36304e-08 1.97927e-06)
(-2.61063e-06 2.48099e-07 2.13294e-06)
(-2.97131e-06 -3.5143e-08 2.1573e-07)
(1.44549e-07 -5.5244e-07 -8.83457e-07)
(-2.45916e-06 1.21859e-06 -5.53232e-08)
(-1.57078e-06 -1.47435e-07 1.54437e-06)
(9.27197e-07 1.32274e-06 1.36048e-06)
(-1.67844e-06 2.79701e-06 -6.4951e-07)
(1.44925e-06 -2.89885e-07 2.16753e-06)
(3.07611e-07 4.47297e-06 1.99242e-06)
(2.47465e-06 1.91105e-06 -8.45923e-07)
(1.12779e-06 1.94136e-06 9.23614e-07)
(2.04202e-06 3.31824e-06 -1.42226e-06)
(-1.98219e-07 7.97599e-09 7.77763e-08)
(-3.59589e-07 1.90604e-06 1.14981e-06)
(2.19127e-07 -6.24676e-07 4.72566e-09)
(4.62698e-08 -3.39958e-06 -1.26968e-06)
(-2.1829e-06 1.7352e-07 -2.10943e-06)
(-1.43877e-08 -8.51017e-08 -1.52925e-06)
(1.06645e-07 2.97069e-06 -3.3397e-06)
(-1.07038e-06 4.4018e-06 -2.87086e-07)
(-1.11304e-06 1.5046e-06 1.36642e-06)
(6.19915e-07 -1.63381e-06 -1.53422e-06)
(-3.8862e-06 8.71603e-07 -2.20101e-06)
(-2.71799e-06 1.72251e-06 2.50328e-06)
(9.23392e-07 1.51127e-06 -1.45257e-06)
(-1.24783e-06 3.64549e-06 -7.15682e-07)
(2.62611e-06 2.18123e-06 -1.69723e-06)
(-1.07213e-06 8.68434e-07 -2.2734e-06)
(-1.46822e-06 -1.40113e-06 -1.58981e-06)
(-1.38029e-06 -3.79006e-07 -3.60076e-07)
(-3.66853e-06 -1.85126e-08 -1.84189e-06)
(0.000377208 0.000278199 -0.00016139)
(-3.40669e-05 4.99262e-05 9.87221e-05)
(3.57838e-05 -0.000113299 5.70716e-05)
(-0.000207253 -7.19783e-05 0.00011601)
(-0.000189353 -7.4689e-05 -7.59539e-05)
(7.45643e-05 -6.33404e-05 0.000261122)
(-0.000429439 -0.000146545 -4.81506e-05)
(-0.000514349 0.000253283 -0.000102931)
(-0.00046335 -0.000253271 -1.41491e-05)
(-0.000544893 -0.000100213 -0.000368115)
(-0.000572144 0.000300341 -0.000215285)
(-0.000191804 0.000121347 -0.000105898)
(-0.000282953 0.000359366 -4.32815e-05)
(-8.87384e-05 -1.29533e-05 0.000120373)
(0.000116878 -0.0002086 7.60803e-05)
(0.000113513 -0.000189566 1.89799e-05)
(0.00012538 -0.000507258 -0.000135423)
(-9.34394e-05 -6.37591e-05 -0.000136261)
(-0.000294378 -0.000305764 -5.56871e-05)
(1.52922e-05 -0.000147047 -0.000330515)
(-1.74666e-06 -0.000119059 -7.89895e-05)
(2.55192e-05 -0.000125441 -3.73421e-05)
(-1.33188e-05 2.71098e-05 3.60056e-05)
(8.25198e-05 -0.00018438 -5.09718e-05)
(-0.000211222 -8.74651e-05 0.000129043)
(-0.000114514 0.000157409 0.000148896)
(-2.11978e-05 0.000287917 -2.86057e-05)
(-3.98389e-05 0.000259553 -0.000283293)
(2.10473e-05 1.17145e-05 8.26653e-06)
(-3.6709e-06 2.3487e-06 -3.10297e-05)
(6.20945e-06 4.86619e-07 1.55851e-05)
(1.83172e-05 -9.74921e-06 -2.96599e-05)
(-1.08415e-05 -9.53127e-06 -2.13813e-05)
(-1.90767e-05 8.63618e-06 1.332e-05)
(-2.1735e-05 -6.11124e-08 3.91006e-05)
(-3.04313e-05 1.76501e-05 2.24788e-05)
(-2.08508e-05 -4.86635e-06 -2.66037e-05)
(-3.06119e-05 -2.14455e-05 3.43721e-05)
(-4.27418e-05 3.61291e-06 5.51113e-05)
(-1.22687e-05 2.3291e-05 1.43881e-05)
(5.60246e-06 1.81809e-05 -2.47894e-05)
(1.40027e-05 -2.63344e-06 -2.15236e-05)
(7.0463e-06 -1.10303e-05 2.66105e-05)
(-3.68683e-06 -1.04625e-05 -3.51679e-06)
(2.82827e-06 -2.63928e-05 1.56615e-05)
(-3.50253e-06 3.40396e-07 9.0282e-06)
(-8.08097e-06 -1.65047e-05 1.90726e-05)
(8.17745e-06 -4.48781e-06 1.28545e-05)
(1.31968e-05 -1.03044e-05 3.76613e-05)
(7.38082e-06 -1.9167e-05 -1.33556e-05)
(2.9687e-06 8.12303e-06 -3.17526e-05)
(2.1295e-05 4.37762e-06 2.93188e-05)
(5.83095e-06 -9.21589e-06 7.06627e-06)
(4.73832e-07 8.00262e-06 -6.60095e-06)
(7.4844e-06 7.9533e-06 2.4993e-05)
(-8.88437e-07 3.34087e-06 1.34434e-05)
(-1.08837e-05 -5.3959e-06 3.58992e-06)
(3.29423e-06 2.3571e-06 -1.81916e-05)
(-8.32924e-07 -2.07615e-06 5.69203e-06)
(-8.11531e-06 5.53553e-06 -1.61247e-05)
(8.05572e-06 3.98274e-06 -1.40689e-05)
(9.16102e-06 -6.05071e-06 1.28296e-05)
(9.19606e-06 -2.46493e-06 2.51457e-05)
(1.27819e-05 -1.48344e-05 1.26342e-05)
(7.09145e-06 5.28644e-07 -2.00922e-05)
(1.3998e-05 1.11205e-05 1.24038e-05)
(1.99712e-05 -1.00583e-06 3.09598e-05)
(4.47978e-06 -8.91255e-06 4.32286e-06)
(-5.76456e-06 -6.74408e-06 -1.56856e-05)
(-9.16855e-06 2.94069e-06 -1.48103e-05)
(-3.09707e-06 6.34318e-06 1.56009e-05)
(9.95761e-07 4.5714e-06 -3.55867e-06)
(-4.84435e-06 1.27083e-05 9.15614e-06)
(-4.57198e-06 -1.97153e-06 5.10711e-06)
(-1.73512e-06 1.17001e-05 1.38257e-05)
(-2.30942e-06 6.13651e-06 1.27114e-05)
(-5.37784e-06 1.14619e-05 2.35541e-05)
(-5.27619e-08 1.64685e-05 -1.08342e-05)
(-2.04431e-07 -5.04077e-06 -2.32785e-05)
(-1.16696e-05 -4.56112e-06 1.70091e-05)
(-4.03234e-06 4.758e-06 6.89175e-06)
(3.65215e-07 -3.59529e-06 -5.01038e-06)
(-6.79182e-06 -2.7669e-07 1.7625e-05)
(1.19465e-06 2.59046e-06 5.22814e-06)
(-7.0526e-06 -3.55886e-06 1.69116e-06)
(9.39469e-07 1.37735e-06 -5.43538e-06)
(3.56636e-07 -6.42986e-07 4.16567e-06)
(-3.883e-06 3.29978e-06 -5.3684e-06)
(5.05044e-06 2.64258e-06 -1.75586e-06)
(5.77407e-06 -3.98896e-06 4.48188e-07)
(4.87336e-06 -1.12543e-06 6.14e-06)
(7.73689e-06 -8.1844e-06 3.90812e-06)
(3.82143e-06 -4.57643e-07 -4.7445e-06)
(7.36695e-06 6.4777e-06 4.29216e-06)
(1.14306e-05 -4.60958e-07 4.46668e-06)
(2.46902e-06 -6.54294e-06 2.91298e-06)
(-4.37677e-06 -4.80675e-06 -3.32443e-06)
(-5.79018e-06 1.39909e-06 -1.7714e-06)
(-2.94477e-06 2.81255e-06 4.90669e-06)
(-2.23301e-07 2.82427e-06 -2.08155e-07)
(-3.81069e-06 7.33356e-06 3.35243e-06)
(-2.60726e-06 -1.10416e-06 2.29846e-06)
(-3.60277e-07 6.55894e-06 5.83605e-06)
(-8.89048e-07 3.47663e-06 3.61138e-06)
(-2.39395e-06 5.91332e-06 7.69463e-06)
(4.27227e-08 9.00267e-06 -7.89331e-07)
(3.46401e-07 -2.72489e-06 -4.10925e-06)
(-6.52695e-06 -2.55027e-06 4.13802e-06)
(-2.96099e-06 3.68499e-06 6.70409e-07)
(6.71743e-07 -1.60028e-06 7.56514e-07)
(-4.19653e-06 -9.86711e-07 3.69474e-06)
(3.97118e-07 1.03477e-06 1.48164e-06)
(-4.17399e-06 -1.47313e-06 2.04057e-07)
(1.1013e-06 7.31784e-07 -2.23018e-06)
(-4.10124e-07 -5.32416e-07 2.61022e-07)
(-1.97798e-06 9.43688e-07 -1.17221e-06)
(2.3343e-06 1.08598e-06 -1.55207e-06)
(1.1818e-06 -1.17149e-06 1.5605e-06)
(3.41483e-06 -4.9564e-08 2.95479e-06)
(4.53676e-06 -3.98936e-06 1.97618e-06)
(2.82505e-06 -9.58022e-08 -1.22896e-06)
(4.26745e-06 1.73707e-06 1.50635e-06)
(4.6472e-06 1.62587e-07 3.40163e-06)
(1.45934e-06 -1.3671e-06 7.22833e-07)
(-1.1217e-06 -2.09908e-06 -1.89157e-06)
(-2.14432e-06 1.53755e-06 -1.94186e-06)
(-1.53566e-06 2.5602e-06 1.55224e-06)
(-9.378e-07 1.96016e-06 -5.3984e-07)
(-2.42912e-06 4.11789e-06 1.01682e-06)
(-2.31809e-06 5.03089e-07 9.03959e-07)
(-4.73723e-07 3.718e-06 1.39893e-06)
(-4.40885e-07 1.90019e-06 8.37726e-07)
(-1.40259e-06 2.91104e-06 1.8484e-06)
(-3.91729e-07 4.57826e-06 -1.13093e-06)
(-4.69811e-07 -1.14207e-07 -2.51242e-06)
(-2.68716e-06 3.78656e-07 1.48586e-06)
(-9.5959e-07 1.60289e-06 2.98775e-07)
(3.16866e-07 -2.58956e-07 -7.52273e-07)
(-8.39555e-07 5.24516e-07 1.50943e-06)
(8.59888e-07 2.26306e-07 7.71467e-07)
(-0.000269919 0.000105505 -0.000300182)
(-6.19037e-05 3.43938e-05 7.02687e-06)
(0.000251683 0.000219174 -0.000164288)
(-9.16146e-05 -0.000287547 7.19024e-05)
(5.36921e-06 2.34687e-05 2.64395e-05)
(2.3713e-06 1.88958e-05 -2.88187e-05)
(2.66275e-05 1.11039e-05 -1.82268e-05)
(-6.03969e-06 -2.19106e-05 -2.30708e-05)
)
;

boundaryField
{
    top_fluid_surface
    {
        type            pressureInletOutletVelocity;
        value           nonuniform List<vector> 
64
(
(0 0 -0.000184726)
(6.1833e-05 -0.000176323 -1.0519e-05)
(9.05078e-05 -7.01462e-05 3.34364e-05)
(0 0 -3.7913e-05)
(0 0 -0.000111371)
(0 0 -0.000151049)
(0 0 -0.000143142)
(0 0 -1.16796e-05)
(0 0 -8.89039e-05)
(0 0 -0.000154137)
(-0.000573092 -8.29428e-05 0.000179847)
(0 0 -2.76533e-05)
(-0.000426761 -9.49912e-05 9.74637e-05)
(0 0 -0.000193542)
(-0.000169318 5.36036e-06 3.65457e-05)
(0 0 -8.66913e-05)
(2.79091e-06 0.000287186 0.000190178)
(0.000141224 -0.000221205 0.000264345)
(-0.000180906 8.55607e-06 5.96516e-05)
(8.58182e-05 -5.66026e-05 0.000236681)
(0 0 -2.11887e-05)
(-6.02804e-05 0.000256752 4.08467e-05)
(-0.000187253 0.00028238 0.000193595)
(0.000252663 0.000148567 0.000271653)
(0 0 -0.000211857)
(-0.000378983 4.87467e-05 0.000199985)
(0.000201748 -0.000114496 0.00014642)
(-0.000159803 -3.03911e-05 9.41923e-05)
(1.42482e-06 1.243e-05 0.000130631)
(1.80687e-05 0.000108582 0.000110187)
(-3.44333e-06 -3.15034e-05 9.04905e-05)
(0.0001697 0.000213948 0.000169314)
(0 0 -0.00016139)
(-3.40669e-05 4.99262e-05 9.87221e-05)
(3.57838e-05 -0.000113299 5.70716e-05)
(-0.000207253 -7.19783e-05 0.00011601)
(0 0 -7.59539e-05)
(7.45643e-05 -6.33404e-05 0.000261122)
(0 0 -4.81506e-05)
(0 0 -0.000102931)
(0 0 -1.41491e-05)
(0 0 -0.000368115)
(0 0 -0.000215285)
(0 0 -0.000105898)
(0 0 -4.32815e-05)
(-8.87384e-05 -1.29533e-05 0.000120373)
(0.000116878 -0.0002086 7.60803e-05)
(0.000113513 -0.000189566 1.89799e-05)
(0 0 -0.000135423)
(0 0 -0.000136261)
(0 0 -5.56871e-05)
(0 0 -0.000330515)
(0 0 -7.89895e-05)
(0 0 -3.73421e-05)
(-1.33188e-05 2.71098e-05 3.60056e-05)
(0 0 -5.09718e-05)
(-0.000211222 -8.74651e-05 0.000129043)
(-0.000114514 0.000157409 0.000148896)
(0 0 -2.86057e-05)
(0 0 -0.000283293)
(0 0 -0.000300182)
(0 0 7.02687e-06)
(0 0 -0.000164288)
(-9.16146e-05 -0.000287547 7.19024e-05)
)
;
    }
    bottom_fluid_surface
    {
        type            noSlip;
    }
    lateral_surface_1
    {
        type            noSlip;
    }
    lateral_surface_2
    {
        type            noSlip;
    }
    lateral_surface_3
    {
        type            noSlip;
    }
    lateral_surface_4
    {
        type            noSlip;
    }
}


// ************************************************************************* //
