/*--------------------------------*- C++ -*----------------------------------*\
| =========                 |                                                 |
| \\      /  F ield         | OpenFOAM: The Open Source CFD Toolbox           |
|  \\    /   O peration     | Version:  v1612+                                |
|   \\  /    A nd           | Web:      www.OpenFOAM.com                      |
|    \\/     M anipulation  |                                                 |
\*---------------------------------------------------------------------------*/
FoamFile
{
    version     2.0;
    format      ascii;
    class       volScalarField;
    location    "2.7";
    object      p_rgh;
}
// * * * * * * * * * * * * * * * * * * * * * * * * * * * * * * * * * * * * * //

dimensions      [1 -1 -2 0 0 0 0];

internalField   nonuniform List<scalar> 
320
(
-9800.21
-9800.21
-9800.21
-9800.21
-0.00662754
-0.00433844
-0.000903103
-0.000936353
0.00531629
-0.00102753
0.00422441
-0.000510543
-0.00186526
-0.00259596
0.00123543
0.00217767
-9799.99
-9800.03
-9800.04
-9800.08
-9800.14
-9800.01
-9800.09
-9800.08
-9799.99
-9800.03
-9800.11
-9800.05
-9800.21
-9800.21
-9800.21
-9800.21
-9800.21
-9800.21
-9800.21
-9800.21
-9800.22
-9800.21
-9800.21
-9800.19
-9800.21
-9800.21
-9800.21
-9800.21
-9800.21
-9800.21
-9800.21
-9800.22
-9800.21
-9800.21
-9800.21
-9800.22
-9800.22
-9800.21
-9800.21
-9800.21
0.00384441
-0.00110341
-0.0106328
0.00124833
-0.00479848
0.00457453
0.00465391
0.00720753
-0.00142447
-0.0088629
-0.000682927
0.00572521
-0.000672335
-7.65734e-06
-0.000418555
0.00386819
0.000521087
0.00434597
-0.00129751
-0.000501096
-9800.15
-9800.01
-9800.11
-9800.07
-9800.15
-9800.11
-9800.11
-9800.18
-9800.1
-9800.02
-9800.09
-9800.14
-9799.98
-9800.11
-9800.09
-9800.11
-9800.12
-9800.14
-9800.11
-9800.06
-9800.2
-9800.21
-9800.22
-9800.21
-9800.21
-9800.2
-9800.21
-9800.2
-9800.19
-9800.2
-9800.21
-9800.21
-9800.22
-9800.21
-9800.21
-9800.22
-9800.21
-9800.21
-9800.2
-9800.2
-9800.21
-9800.21
-9800.21
-9800.21
-9800.21
-9800.21
-9800.22
-9800.21
-9800.2
-9800.2
-9800.21
-9800.21
-9800.22
-9800.21
-9800.21
-9800.22
-9800.22
-9800.21
-9800.21
-9800.21
-9800.21
-9800.21
-9800.21
-9800.21
-9800.21
-9800.21
-9800.21
-9800.21
-9800.21
-9800.21
-9800.21
-9800.21
-9800.22
-9800.21
-9800.21
-9800.21
-9800.21
-9800.21
-9800.21
-9800.21
-9800.21
-9800.21
-9800.21
-9800.21
-9800.2
-9800.2
-9800.21
-9800.21
-9800.21
-9800.21
-9800.21
-9800.21
-9800.22
-9800.21
-9800.21
-9800.21
-0.00316897
0.00876306
0.00158812
0.00703189
0.00197068
0.0024613
-0.000791802
-0.00629758
0.00567838
0.00683206
-0.00809173
-0.0142277
-0.00103625
-0.000325189
-0.00491838
0.00237448
-0.0133589
0.0038589
0.00280862
-0.00409354
-0.0135477
-0.00322156
0.00509916
0.00154939
0.00214686
0.00250439
-0.00570073
-0.00198171
-9800.02
-9800.15
-9800.03
-9800.15
-9800.13
-9800.07
-9800.02
-9800
-9800.11
-9800.08
-9799.99
-9800.02
-9800.12
-9800.07
-9800.02
-9800.1
-9800.13
-9800.1
-9800.05
-9800.06
-9800.01
-9800.07
-9800.14
-9800.02
-9800.08
-9800.11
-9800.04
-9800.04
-9800.21
-9800.21
-9800.21
-9800.21
-9800.21
-9800.22
-9800.22
-9800.21
-9800.21
-9800.22
-9800.21
-9800.2
-9800.19
-9800.2
-9800.2
-9800.22
-9800.23
-9800.22
-9800.22
-9800.2
-9800.2
-9800.2
-9800.21
-9800.23
-9800.22
-9800.21
-9800.2
-9800.2
-9800.21
-9800.21
-9800.21
-9800.21
-9800.21
-9800.22
-9800.22
-9800.21
-9800.22
-9800.22
-9800.21
-9800.2
-9800.19
-9800.2
-9800.2
-9800.21
-9800.21
-9800.21
-9800.22
-9800.21
-9800.2
-9800.21
-9800.22
-9800.22
-9800.22
-9800.21
-9800.21
-9800.2
-9800.21
-9800.21
-9800.21
-9800.21
-9800.21
-9800.21
-9800.21
-9800.21
-9800.21
-9800.21
-9800.21
-9800.2
-9800.2
-9800.2
-9800.2
-9800.21
-9800.21
-9800.21
-9800.22
-9800.21
-9800.21
-9800.21
-9800.22
-9800.22
-9800.21
-9800.21
-9800.21
-9800.21
-0.00268049
0.00392883
0.00870419
0.00864468
-9800.05
-9800.13
-9800.15
-9800.12
)
;

boundaryField
{
    top_fluid_surface
    {
        type            totalPressure;
        rho             rho;
        psi             none;
        gamma           1;
        p0              uniform 0;
        value           nonuniform List<scalar> 
64
(
-9.30719e-09
-6.36667e-09
-1.88828e-09
-7.88719e-11
0
-3.98375e-10
0
0
-1.2745e-09
-3.07782e-09
0
-8.55404e-12
0
-2.834e-11
0
0
0
-3.75844e-11
0
0
-7.76996e-10
-1.82969e-08
0
0
-6.2104e-10
0
-6.2722e-12
0
0
0
-2.33089e-10
-2.74384e-10
-2.67972e-09
0
-6.74405e-10
0
0
0
-7.69471e-10
-9.79599e-09
0
0
-2.17665e-08
-4.79219e-08
-3.36145e-10
-1.5662e-10
-6.84079e-09
0
0
0
0
-3.63145e-09
-3.91531e-08
-3.67466e-09
0
0
0
0
-8.96234e-09
-2.37853e-09
-4.78339e-09
0
0
0
)
;
    }
    bottom_fluid_surface
    {
        type            fixedFluxPressure;
        gradient        uniform 0;
        value           nonuniform List<scalar> 
64
(
-9800.21
-9800.21
-9800.21
-9800.21
-9800.21
-9800.21
-9800.21
-9800.21
-9800.21
-9800.21
-9800.21
-9800.21
-9800.22
-9800.21
-9800.21
-9800.21
-9800.21
-9800.21
-9800.21
-9800.21
-9800.21
-9800.21
-9800.21
-9800.21
-9800.2
-9800.2
-9800.21
-9800.21
-9800.21
-9800.21
-9800.21
-9800.21
-9800.22
-9800.21
-9800.21
-9800.21
-9800.21
-9800.21
-9800.21
-9800.21
-9800.21
-9800.21
-9800.21
-9800.21
-9800.21
-9800.21
-9800.21
-9800.2
-9800.2
-9800.2
-9800.2
-9800.21
-9800.21
-9800.21
-9800.22
-9800.21
-9800.21
-9800.21
-9800.22
-9800.22
-9800.21
-9800.21
-9800.21
-9800.21
)
;
    }
    lateral_surface_1
    {
        type            fixedFluxPressure;
        gradient        uniform 0;
        value           nonuniform List<scalar> 
40
(
-0.00316897
0.00876306
0.00158812
0.00703189
0.00197068
0.0024613
-0.000791802
-0.00198171
-9800.02
-9800.15
-9800.03
-9800.15
-9800.13
-9800.07
-9800.02
-9800.04
-9800.21
-9800.21
-9800.21
-9800.21
-9800.21
-9800.22
-9800.22
-9800.2
-9800.21
-9800.21
-9800.21
-9800.21
-9800.21
-9800.22
-9800.22
-9800.2
-9800.21
-9800.21
-9800.21
-9800.21
-9800.21
-9800.21
-9800.21
-9800.21
)
;
    }
    lateral_surface_2
    {
        type            fixedFluxPressure;
        gradient        uniform 0;
        value           nonuniform List<scalar> 
40
(
-0.000325189
-0.00491838
0.00237448
-0.0133589
0.0038589
0.00280862
-0.00409354
-0.0135477
-9800.07
-9800.02
-9800.1
-9800.13
-9800.1
-9800.05
-9800.06
-9800.01
-9800.2
-9800.2
-9800.22
-9800.23
-9800.22
-9800.22
-9800.2
-9800.2
-9800.2
-9800.2
-9800.21
-9800.21
-9800.21
-9800.22
-9800.21
-9800.2
-9800.2
-9800.2
-9800.21
-9800.21
-9800.21
-9800.22
-9800.21
-9800.21
)
;
    }
    lateral_surface_3
    {
        type            fixedFluxPressure;
        gradient        uniform 0;
        value           nonuniform List<scalar> 
40
(
-0.000791802
-0.00629758
0.00567838
0.00683206
-0.00809173
-0.0142277
-0.00103625
-0.000325189
-9800.02
-9800
-9800.11
-9800.08
-9799.99
-9800.02
-9800.12
-9800.07
-9800.22
-9800.21
-9800.21
-9800.22
-9800.21
-9800.2
-9800.19
-9800.2
-9800.22
-9800.21
-9800.22
-9800.22
-9800.21
-9800.2
-9800.19
-9800.2
-9800.21
-9800.21
-9800.21
-9800.21
-9800.21
-9800.2
-9800.2
-9800.2
)
;
    }
    lateral_surface_4
    {
        type            fixedFluxPressure;
        gradient        uniform 0;
        value           nonuniform List<scalar> 
40
(
-0.0135477
-0.00322156
0.00509916
0.00154939
0.00214686
0.00250439
-0.00570073
-0.00198171
-9800.01
-9800.07
-9800.14
-9800.02
-9800.08
-9800.11
-9800.04
-9800.04
-9800.2
-9800.2
-9800.21
-9800.23
-9800.22
-9800.21
-9800.2
-9800.2
-9800.2
-9800.21
-9800.22
-9800.22
-9800.22
-9800.21
-9800.21
-9800.2
-9800.21
-9800.21
-9800.22
-9800.22
-9800.21
-9800.21
-9800.21
-9800.21
)
;
    }
}


// ************************************************************************* //
