/*--------------------------------*- C++ -*----------------------------------*\
| =========                 |                                                 |
| \\      /  F ield         | OpenFOAM: The Open Source CFD Toolbox           |
|  \\    /   O peration     | Version:  v1612+                                |
|   \\  /    A nd           | Web:      www.OpenFOAM.com                      |
|    \\/     M anipulation  |                                                 |
\*---------------------------------------------------------------------------*/
FoamFile
{
    version     2.0;
    format      ascii;
    class       surfaceScalarField;
    location    "2.7";
    object      phi;
}
// * * * * * * * * * * * * * * * * * * * * * * * * * * * * * * * * * * * * * //

dimensions      [0 3 -1 0 0 0 0];

internalField   nonuniform List<scalar> 
816
(
-2.69325e-06
4.06871e-07
2.31669e-06
3.07607e-06
3.12174e-06
-6.22817e-06
2.06864e-06
7.41822e-07
8.12084e-07
5.53637e-06
-1.18568e-05
-1.35365e-06
3.58731e-06
1.96125e-06
3.06312e-06
-6.85466e-06
-1.30321e-06
3.0876e-06
1.63109e-06
-2.70012e-06
2.99975e-05
6.29777e-05
-5.78383e-06
1.88331e-05
0.000164406
2.66689e-05
3.93687e-06
0.000135638
6.62381e-05
5.43111e-05
1.62483e-05
1.82667e-05
5.56157e-05
2.48196e-05
-1.56508e-05
2.60885e-05
1.25604e-05
-0.000128458
-9.77259e-06
-0.000178375
0.000105377
0.000187079
1.58505e-06
-0.000227274
-4.40743e-05
-1.68604e-07
-1.72623e-05
-0.000137749
0.000147365
-1.45132e-05
-1.67873e-05
-0.000101125
0.000125037
8.30538e-05
-2.76758e-06
-6.327e-05
5.59956e-05
0.000133505
1.07736e-05
-7.10832e-05
0.000140919
7.00377e-05
1.0402e-06
7.37245e-05
-5.79289e-05
-1.72963e-05
0.000227625
5.45341e-05
-7.46663e-06
1.35532e-05
-1.28159e-05
-1.50545e-06
1.6062e-06
6.39506e-06
-6.63685e-06
3.05196e-06
7.17125e-06
8.22555e-06
-1.74551e-07
6.51126e-07
9.55497e-06
-4.46109e-07
2.50098e-07
4.42392e-07
-7.79688e-06
-5.00344e-06
1.73395e-06
-5.0417e-06
-1.85629e-06
6.57814e-06
-6.56604e-06
-3.64351e-06
9.73884e-07
5.10742e-07
-5.23944e-06
-5.02757e-06
1.90925e-07
-5.05927e-06
-3.6071e-06
-7.84721e-06
-1.24248e-06
-8.64835e-07
-1.42219e-05
2.94396e-06
3.70746e-06
7.95874e-06
-1.79043e-06
2.33961e-06
1.21021e-06
9.3732e-06
-2.72095e-06
7.76985e-06
-6.96342e-06
1.92452e-06
3.05207e-06
-1.40856e-07
-1.46427e-06
-1.86749e-06
-6.09034e-06
-1.08114e-06
-2.51099e-06
-3.24085e-06
-1.62931e-06
8.10372e-07
1.49895e-07
-1.87145e-06
-1.7265e-06
9.4425e-07
-7.88663e-08
1.01908e-06
1.16338e-06
5.18308e-07
-3.14169e-07
2.53289e-06
-2.60076e-06
-3.86821e-06
-1.47084e-06
2.58866e-06
-2.19475e-06
-1.70262e-08
2.63949e-06
-2.33847e-06
2.27119e-06
-3.18637e-06
-6.45528e-06
1.39368e-07
-2.08321e-06
-3.11908e-06
-1.25453e-06
1.3497e-06
-2.77469e-06
-1.94343e-06
1.94926e-06
-1.30086e-08
-2.53335e-06
-1.65968e-07
-1.98109e-06
6.6834e-07
1.12228e-06
2.38609e-06
9.23169e-07
1.08925e-06
3.65787e-07
2.92015e-07
1.80798e-06
-1.06781e-06
2.44883e-06
1.81347e-06
5.18609e-07
-7.60886e-07
1.91211e-06
4.94051e-07
-1.21579e-06
-5.81913e-07
-1.50444e-06
-1.69024e-06
-1.73574e-06
-1.78057e-06
-5.44877e-07
8.40528e-07
-1.27063e-06
-1.19027e-06
3.84905e-08
6.87807e-07
2.54661e-07
1.02172e-07
4.87739e-07
-1.09012e-07
5.83542e-08
1.67517e-06
-1.94016e-06
-9.90238e-07
-8.54268e-07
1.88459e-06
4.55657e-08
-5.40094e-07
1.6851e-06
1.16432e-06
-8.72284e-07
-1.68155e-06
1.50871e-07
-9.70495e-07
-2.28021e-06
-1.61169e-06
8.83437e-07
-4.04893e-07
-1.82244e-06
1.26767e-06
-6.45451e-07
-2.53892e-06
-1.22081e-07
2.22903e-07
-4.55833e-05
-0.000124615
-1.49195e-05
0.000155047
4.34363e-06
-2.35856e-05
1.51275e-05
-8.56245e-05
9.19115e-06
0.000145777
-5.04479e-05
1.11161e-05
4.533e-05
-2.66103e-05
1.41293e-05
3.01286e-05
-0.000166929
4.31333e-05
-4.13871e-07
9.03911e-05
-0.000124964
-1.72254e-05
-2.80773e-05
-0.000347631
-5.19372e-06
-0.000255692
-0.000256476
1.36193e-05
-0.000265906
0.000236853
-3.81889e-07
-5.09826e-05
-7.33197e-05
0.000161461
-1.66948e-05
4.91378e-05
-6.22023e-05
-2.02132e-05
-0.000145995
-7.10875e-05
1.91212e-06
-4.2104e-06
-8.22431e-05
-9.61405e-06
-4.8262e-05
0.000227903
-7.13362e-06
-0.000171627
-0.000132295
0.000101859
-4.66766e-07
2.39427e-05
2.89198e-05
-5.03821e-06
-2.28978e-05
-0.000121942
-1.28462e-05
3.22213e-06
-9.94902e-05
-1.8712e-05
7.63899e-06
3.06102e-06
-7.49722e-05
-0.000120001
-5.55598e-06
-9.76589e-06
7.60247e-06
-4.22405e-06
-4.83563e-06
-3.06541e-06
-8.13436e-06
5.57998e-07
4.60108e-06
4.91805e-06
3.94476e-07
8.09809e-06
8.19099e-06
6.80075e-06
1.15426e-05
-2.44479e-06
-4.83988e-06
5.67588e-06
5.76206e-06
3.65013e-06
-4.07028e-06
1.65121e-06
-9.05296e-06
-1.19317e-05
1.43034e-05
-1.64092e-05
-1.01052e-05
1.37054e-05
-6.02229e-06
7.6138e-06
-1.10215e-05
2.17782e-07
-6.88463e-06
1.91094e-07
-1.18859e-06
-3.22175e-06
-3.9218e-06
4.90579e-06
-8.48343e-06
2.93857e-06
-9.2495e-06
-4.38439e-06
7.82564e-08
-3.04183e-06
-8.27588e-07
3.07703e-06
-2.8643e-06
-2.65828e-06
-5.26006e-06
4.64367e-06
-2.49031e-06
4.07411e-06
4.4639e-06
1.23834e-06
-2.80966e-06
-5.39685e-06
7.80752e-06
-2.21785e-06
-1.37785e-05
6.89405e-07
-1.13061e-05
-2.24839e-06
-7.51795e-06
-9.75301e-06
-1.10361e-06
3.0857e-06
3.64063e-06
-5.70517e-07
-2.4429e-06
-9.69203e-07
-1.8593e-06
-1.28577e-06
3.14141e-06
-1.32524e-06
1.93607e-06
3.54228e-06
-5.32488e-07
-5.15032e-07
5.02848e-06
3.20358e-06
5.77218e-06
5.26194e-08
2.31583e-06
1.17589e-06
-1.21685e-06
9.55015e-07
2.97807e-06
1.70214e-06
6.66391e-06
4.40088e-06
4.82688e-06
5.69773e-06
1.01632e-06
2.2546e-06
-5.46459e-06
-5.57316e-06
2.58681e-06
1.21167e-06
-4.67951e-07
-1.15766e-06
4.11317e-06
2.32242e-06
-3.25257e-07
9.78639e-07
-4.00474e-06
2.15074e-07
-6.03237e-07
-1.95388e-06
6.39034e-07
-1.11217e-06
-1.2411e-06
3.71501e-07
-1.48724e-06
-2.36067e-06
-1.16394e-06
-2.16712e-06
-1.83213e-06
-1.29984e-07
2.18554e-06
2.55727e-07
3.28242e-06
4.34963e-06
1.86785e-07
-4.74655e-07
1.05526e-06
-1.28922e-06
-8.09423e-07
3.13247e-06
-1.15546e-06
2.29614e-06
9.8288e-07
-1.02099e-06
-1.50615e-06
-4.80502e-08
-2.03827e-06
-4.49878e-07
1.47309e-06
-1.15106e-06
1.21384e-06
1.15918e-06
-5.27417e-07
-3.2874e-09
1.54422e-06
1.4368e-06
3.26512e-06
1.36096e-08
7.9262e-07
3.20919e-07
-5.25297e-07
7.11124e-07
1.03423e-06
1.60818e-06
1.80427e-06
2.61117e-06
3.02623e-06
1.69767e-06
6.28575e-07
1.00901e-06
-9.81412e-07
-3.36381e-06
8.96013e-07
7.05145e-07
2.24551e-07
-1.36495e-06
2.8998e-06
5.40999e-07
-3.15313e-07
1.1467e-06
-1.25536e-06
1.73367e-07
5.14125e-08
-7.54224e-07
4.51688e-08
-9.71674e-07
-4.93572e-07
8.13451e-07
-5.38119e-07
-1.48305e-06
-5.05917e-07
-1.1262e-06
-1.3639e-06
-4.83942e-08
6.80444e-07
3.79402e-08
6.98648e-07
2.42924e-06
-6.4014e-07
-3.01017e-08
9.52721e-08
-2.7616e-07
-1.41248e-06
2.06061e-06
-1.41292e-06
7.84089e-07
-7.04848e-09
1.54855e-06
9.55596e-07
-3.42032e-07
-2.29319e-07
-1.06228e-06
1.27313e-06
1.07495e-06
-8.06161e-07
1.18428e-06
-9.21761e-07
6.14078e-08
-8.50044e-07
-7.74688e-07
-1.03959e-06
4.06425e-07
-6.52112e-07
-4.9446e-07
3.77929e-07
-1.05056e-07
1.94883e-07
-5.70446e-07
1.30434e-06
-1.43851e-06
-5.33063e-07
1.5944e-06
3.35399e-07
1.38786e-06
5.91762e-07
-1.25674e-06
3.35177e-07
2.13157e-08
-1.24873e-06
6.51969e-07
-1.31417e-06
9.61964e-07
-1.32882e-06
2.89249e-07
-9.1088e-07
1.27847e-06
-7.15099e-07
-1.10159e-06
-7.26351e-07
-1.79869e-07
-4.87038e-07
5.52538e-07
-2.14998e-07
3.92888e-08
5.42082e-07
1.52368e-06
4.77906e-08
2.91504e-07
-5.26769e-10
6.56183e-07
6.29569e-07
6.00461e-07
1.03038e-06
-1.55139e-07
1.13389e-06
-1.55379e-06
4.56775e-07
1.19794e-06
-3.97479e-07
1.97357e-06
9.1207e-08
1.0474e-06
2.4814e-07
3.36233e-07
2.91564e-07
-6.39058e-07
4.93231e-07
-1.88443e-09
-9.97787e-07
-1.19115e-07
-9.65195e-07
5.67553e-07
-5.61779e-07
1.24561e-06
-6.4549e-07
3.2936e-07
-6.66393e-07
1.04392e-06
0.000155605
-0.000111664
9.94347e-06
-2.46053e-05
-1.78818e-06
9.05419e-06
2.41395e-05
-2.51707e-05
2.00954e-06
-4.73964e-05
-1.0278e-05
-7.61336e-05
-9.77449e-06
-2.98082e-05
6.41614e-06
0.000105514
-2.85561e-06
-5.80599e-05
-1.26714e-05
-0.000353728
-2.24898e-06
-0.000253424
1.309e-05
7.11372e-05
6.88716e-06
5.54155e-05
1.15024e-05
7.38148e-05
8.06284e-06
0.000218588
1.19426e-06
0.000148426
-1.73616e-05
-4.44839e-05
1.01794e-05
-7.56407e-05
4.52524e-06
-0.000231549
-1.03168e-05
-0.00023132
-1.63073e-06
0.000312895
1.67809e-06
0.000322173
1.11009e-05
0.00013379
-1.01332e-06
5.5872e-05
-6.25774e-06
-2.74162e-05
-1.30462e-05
-0.000106132
7.96606e-06
2.59915e-06
9.09732e-06
1.03516e-05
5.43753e-06
-6.81403e-06
2.48139e-06
-4.89764e-06
3.73829e-06
6.85533e-06
3.30368e-06
5.88852e-06
7.10041e-06
-4.24073e-06
7.28163e-06
-1.04849e-05
-6.11326e-06
4.55273e-06
-9.6304e-06
7.69351e-06
-1.10185e-05
-4.4638e-06
3.05871e-06
-1.11442e-05
-4.51873e-06
1.29076e-06
-1.6178e-05
6.67135e-06
-4.50931e-06
-9.53978e-07
1.93598e-05
-1.02582e-06
8.38487e-06
4.81903e-06
-8.24287e-06
1.98493e-06
4.2171e-06
9.63388e-07
6.52944e-06
5.0015e-06
-3.96994e-06
6.57881e-07
-7.34402e-06
-2.32496e-06
-1.36346e-06
4.21311e-06
-5.34135e-06
4.50608e-06
5.46591e-06
-4.50665e-07
7.95851e-06
-2.42787e-06
-6.87144e-06
-5.24141e-06
-1.2481e-05
-8.09814e-06
7.84158e-08
-2.36674e-06
-6.88979e-06
1.08114e-06
-1.43798e-06
1.22528e-06
1.88536e-06
-5.32781e-07
2.26074e-06
-1.67386e-06
2.64183e-06
4.83423e-07
3.63143e-06
3.99524e-06
3.26459e-06
3.32268e-06
-2.23634e-06
-1.85961e-06
-4.4439e-06
-2.01777e-06
-5.07266e-06
7.25563e-07
1.49532e-06
4.79901e-07
-1.2962e-06
-4.14919e-06
-7.1493e-06
-5.58759e-06
-2.05535e-06
-4.10902e-07
8.60999e-06
3.47236e-06
4.4993e-06
1.05691e-06
-3.24371e-06
1.36016e-06
2.76408e-06
4.64179e-06
2.91956e-06
2.75965e-06
-1.87416e-06
-6.74418e-07
-3.27561e-06
-2.14088e-07
-1.45066e-06
-2.21141e-06
-3.34655e-06
-1.32e-07
1.90083e-06
2.48818e-06
3.18008e-06
1.84155e-07
-2.37405e-06
-2.10693e-06
-5.85303e-06
-1.36395e-06
3.77757e-07
-1.4284e-06
-3.68469e-06
9.20588e-07
-9.29567e-07
8.65274e-07
5.42622e-07
-7.50657e-07
1.04361e-06
-6.39893e-07
5.08391e-07
5.57713e-07
1.29028e-06
2.38121e-06
9.28266e-07
1.93523e-06
-3.42948e-07
-9.65818e-07
-1.54284e-06
-1.19715e-06
-1.57654e-06
4.82673e-07
1.40048e-07
8.58764e-07
-6.33186e-07
-2.10525e-06
-1.574e-06
-3.31113e-06
-2.26103e-07
-7.26999e-07
2.64609e-06
2.16926e-06
1.59584e-06
4.89805e-07
-6.60629e-07
1.22341e-06
7.32392e-07
3.20106e-06
6.24524e-07
2.2809e-06
-7.93202e-07
5.23193e-07
-1.47633e-06
5.5768e-07
-6.65964e-07
-1.91165e-06
-8.72626e-07
-8.38422e-07
2.82326e-07
8.69214e-07
3.40857e-07
7.74492e-08
-8.94404e-07
-1.42445e-06
-1.92043e-06
-9.89202e-07
2.82331e-08
-1.56453e-06
-1.06323e-06
2.31923e-07
-7.12329e-07
5.95379e-07
-4.05898e-07
-6.25013e-07
1.77806e-07
8.96527e-07
1.1114e-06
-4.21154e-07
-4.73856e-07
-4.25921e-08
-1.94375e-08
-9.97096e-07
-1.38432e-06
-3.05709e-07
1.28333e-06
1.06605e-06
1.39713e-06
2.10826e-06
1.56072e-06
3.70933e-07
1.97923e-07
-6.66904e-07
-3.76759e-07
-1.55142e-07
-4.86767e-07
-1.16307e-06
-8.0041e-07
-8.2825e-07
6.19313e-05
0.000155926
2.71883e-05
2.09134e-05
1.29307e-05
7.65259e-05
2.27493e-06
-6.98619e-06
6.20228e-06
9.00828e-06
6.85963e-06
4.49951e-06
)
;

boundaryField
{
    top_fluid_surface
    {
        type            calculated;
        value           nonuniform List<scalar> 
64
(
-0.000270337
-0.000207769
-8.93754e-05
-1.94168e-06
0.000234364
-4.65564e-05
0.000196964
9.09215e-06
-9.17915e-05
-0.00013263
4.61288e-05
-0.000123097
0.000213598
-2.89573e-05
7.0479e-05
4.33147e-06
9.97685e-05
-7.4483e-05
0.000220707
0.000303473
-6.47995e-05
-0.000368578
9.43137e-07
0.000253632
-5.78483e-05
4.29475e-06
-1.02256e-06
0.000155009
2.98535e-05
0.000230187
-1.83873e-07
-3.4417e-05
-0.000128075
0.000338118
-1.72054e-05
0.000265139
8.93319e-05
9.23655e-05
-5.47446e-05
-0.000272621
0.000248367
0.000265999
-0.000369143
-0.000595877
-4.70012e-05
-2.61433e-05
-0.000218592
0.00013708
3.97973e-05
0.000131449
0.000119082
-0.000171148
-0.00054696
-0.000153604
0.000212798
6.26132e-05
0.000100432
7.50799e-05
-0.000238309
-0.000116623
-0.000145269
0.000134747
0.000340998
0.000360771
)
;
    }
    bottom_fluid_surface
    {
        type            calculated;
        value           uniform 0;
    }
    lateral_surface_1
    {
        type            calculated;
        value           uniform 0;
    }
    lateral_surface_2
    {
        type            calculated;
        value           uniform 0;
    }
    lateral_surface_3
    {
        type            calculated;
        value           uniform 0;
    }
    lateral_surface_4
    {
        type            calculated;
        value           uniform 0;
    }
}


// ************************************************************************* //
