/*--------------------------------*- C++ -*----------------------------------*\
| =========                 |                                                 |
| \\      /  F ield         | OpenFOAM: The Open Source CFD Toolbox           |
|  \\    /   O peration     | Version:  v1612+                                |
|   \\  /    A nd           | Web:      www.OpenFOAM.com                      |
|    \\/     M anipulation  |                                                 |
\*---------------------------------------------------------------------------*/
FoamFile
{
    version     2.0;
    format      ascii;
    class       volScalarField;
    location    "0.6";
    object      p;
}
// * * * * * * * * * * * * * * * * * * * * * * * * * * * * * * * * * * * * * //

dimensions      [1 -1 -2 0 0 0 0];

internalField   nonuniform List<scalar> 
1116
(
12481.5
12481.5
12481.5
12481.5
12481.5
12481.5
11645.1
11645.1
11645.1
11645.1
11645.1
11645.1
10690.8
10690.8
10690.8
10690.8
10690.8
10690.8
3477.79
3477.79
3477.8
3477.79
3477.79
3477.79
66.8476
66.8486
66.8502
66.851
66.8519
66.8539
3.36688
3.36705
3.36759
3.36802
3.3685
3.36913
4.30513
4.30486
4.30477
4.30477
4.30481
4.3049
-3.86514
-3.8653
-3.86554
-3.86586
-3.86616
-3.8664
-6.69704
-6.69689
-6.69682
-6.69684
-6.69696
-6.69713
-7.96398
-7.96425
-7.96489
-7.96554
-7.96606
-7.96642
-8.37343
-8.37469
-8.37601
-8.37701
-8.37763
-8.37794
-8.51328
-8.51356
-8.51389
-8.51419
-8.51441
-8.51451
3591.8
3591.8
3591.8
3591.8
3591.8
3591.8
3411.06
3411.06
3411.05
3411.04
3411.04
3411.03
3427.67
3427.67
3427.67
3427.67
3427.66
3427.66
96.0194
96.0243
96.0234
96.0213
96.0194
96.0181
-27.9644
-27.9633
-27.9626
-27.962
-27.9605
-27.9587
-14.1459
-14.1459
-14.1458
-14.1456
-14.1453
-14.1451
-17.1623
-17.1624
-17.1629
-17.1632
-17.1634
-17.1635
-18.4116
-18.4117
-18.4119
-18.4121
-18.4124
-18.4125
-18.8737
-18.8739
-18.8741
-18.8743
-18.8745
-18.8746
-18.8727
-18.8729
-18.8731
-18.8734
-18.8735
-18.8737
-18.728
-18.7272
-18.7265
-18.726
-18.7257
-18.7257
-18.5484
-18.5482
-18.548
-18.5478
-18.5477
-18.5476
-5120.34
-5120.34
-5120.34
-5120.35
-5120.35
-5120.35
-4300.31
-4300.31
-4300.31
-4300.32
-4300.33
-4300.33
-2774.79
-2774.79
-2774.79
-2774.79
-2774.78
-2774.78
-478.283
-478.285
-478.284
-478.284
-478.283
-478.283
-81.0871
-81.0863
-81.0858
-81.0852
-81.0847
-81.0844
-39.6688
-39.6685
-39.6685
-39.6684
-39.6684
-39.6685
-36.0209
-36.0207
-36.0208
-36.0209
-36.021
-36.0211
-32.291
-32.2913
-32.2913
-32.2912
-32.2911
-32.2909
-30.5147
-30.5151
-30.5152
-30.5153
-30.5153
-30.5152
-29.4083
-29.4084
-29.4083
-29.4081
-29.4081
-29.408
-28.6994
-28.6992
-28.6988
-28.6985
-28.6983
-28.6982
-28.2807
-28.2805
-28.2804
-28.2802
-28.2801
-28.2801
-14497.1
-14497.1
-14497.1
-14497.1
-14497.1
-14497.1
-12686.6
-12686.6
-12686.6
-12686.6
-12686.6
-12686.6
-9169.6
-9169.6
-9169.59
-9169.59
-9169.58
-9169.57
-526.149
-526.149
-526.15
-526.15
-526.149
-526.146
-66.8914
-66.8911
-66.8913
-66.8914
-66.8915
-66.892
-55.3274
-55.3274
-55.3275
-55.3278
-55.328
-55.3283
-48.2255
-48.2255
-48.2254
-48.2253
-48.2254
-48.2255
-43.812
-43.8121
-43.8122
-43.8121
-43.8121
-43.8121
-41.04
-41.0399
-41.0397
-41.0395
-41.0393
-41.0391
-39.3129
-39.3128
-39.3125
-39.3122
-39.3119
-39.3116
-38.2469
-38.2468
-38.2465
-38.2462
-38.246
-38.2459
-37.6524
-37.6523
-37.6522
-37.6521
-37.6521
-37.6521
-4.93552
-4.93552
-4.93552
-4.93552
-4.93552
-4.93552
-4.93618
-4.93619
-4.93619
-4.93619
-4.93619
-4.93619
-4.93753
-4.93753
-4.93753
-4.93753
-4.93753
-4.93753
-4.9396
-4.9396
-4.9396
-4.9396
-4.9396
-4.9396
-4.94245
-4.94245
-4.94245
-4.94245
-4.94245
-4.94245
-4.94615
-4.94615
-4.94615
-4.94615
-4.94615
-4.94615
-4.95074
-4.95075
-4.95075
-4.95075
-4.95074
-4.95074
-4.95625
-4.95625
-4.95625
-4.95625
-4.95624
-4.95624
-4.96256
-4.96257
-4.96256
-4.96256
-4.96256
-4.96256
-4.96946
-4.96946
-4.96946
-4.96946
-4.96946
-4.96945
-4.97619
-4.97619
-4.97619
-4.97618
-4.97618
-4.97618
-4.9822
-4.9822
-4.9822
-4.9822
-4.9822
-4.9822
-14.7445
-14.7445
-14.7445
-14.7445
-14.7445
-14.7445
-14.7452
-14.7452
-14.7452
-14.7452
-14.7452
-14.7452
-14.7466
-14.7466
-14.7466
-14.7466
-14.7466
-14.7466
-14.7487
-14.7487
-14.7487
-14.7487
-14.7487
-14.7487
-14.7516
-14.7516
-14.7516
-14.7516
-14.7516
-14.7516
-14.7554
-14.7554
-14.7554
-14.7554
-14.7554
-14.7554
-14.7602
-14.7602
-14.7602
-14.7602
-14.7602
-14.7602
-14.7661
-14.7661
-14.7661
-14.7661
-14.7661
-14.7661
-14.773
-14.773
-14.773
-14.773
-14.773
-14.773
-14.7807
-14.7807
-14.7807
-14.7807
-14.7807
-14.7807
-14.789
-14.789
-14.789
-14.789
-14.789
-14.789
-14.7974
-14.7974
-14.7973
-14.7973
-14.7973
-14.7973
-24.5529
-24.5529
-24.5529
-24.5529
-24.5529
-24.5529
-24.5536
-24.5536
-24.5536
-24.5536
-24.5536
-24.5536
-24.5549
-24.5549
-24.5549
-24.5549
-24.5549
-24.5549
-24.5569
-24.5569
-24.5569
-24.5569
-24.5569
-24.5569
-24.5598
-24.5598
-24.5598
-24.5598
-24.5598
-24.5598
-24.5637
-24.5637
-24.5637
-24.5637
-24.5637
-24.5637
-24.5688
-24.5688
-24.5688
-24.5688
-24.5688
-24.5688
-24.5753
-24.5753
-24.5753
-24.5753
-24.5753
-24.5753
-24.5836
-24.5836
-24.5836
-24.5836
-24.5836
-24.5836
-24.5945
-24.5945
-24.5945
-24.5945
-24.5945
-24.5945
-24.6063
-24.6063
-24.6063
-24.6063
-24.6063
-24.6063
-24.6195
-24.6195
-24.6195
-24.6195
-24.6195
-24.6195
-34.3607
-34.3607
-34.3607
-34.3607
-34.3607
-34.3607
-34.3613
-34.3613
-34.3613
-34.3613
-34.3613
-34.3613
-34.3625
-34.3625
-34.3625
-34.3625
-34.3625
-34.3625
-34.3644
-34.3644
-34.3644
-34.3644
-34.3644
-34.3644
-34.3671
-34.3671
-34.3671
-34.3671
-34.3671
-34.3671
-34.3709
-34.3709
-34.3709
-34.3709
-34.3709
-34.3709
-34.376
-34.376
-34.376
-34.376
-34.376
-34.376
-34.3829
-34.3829
-34.3829
-34.3829
-34.3829
-34.3829
-34.3916
-34.3916
-34.3916
-34.3916
-34.3916
-34.3916
-34.402
-34.402
-34.402
-34.402
-34.402
-34.402
-34.4158
-34.4157
-34.4157
-34.4157
-34.4157
-34.4157
-34.4342
-34.4342
-34.4342
-34.4342
-34.4342
-34.4342
-25495
-25495
-25495
-25495
-25495
-25495
-39613.6
-39613.6
-39613.6
-39613.6
-39613.6
-39613.6
-55386.8
-55386.8
-55386.8
-55386.8
-55386.8
-55386.8
-22428.3
-22428.3
-22428.3
-22428.3
-22428.3
-22428.3
-36565.8
-36565.8
-36565.8
-36565.8
-36565.8
-36565.8
-51050.1
-51050.1
-51050.1
-51050.1
-51050.1
-51050.1
-16682.2
-16682.2
-16682.2
-16682.2
-16682.2
-16682.2
-32668
-32668
-32668
-32668
-32668
-32668
-43969
-43969
-43969
-43969
-43969
-43969
-100.49
-100.489
-100.49
-100.49
-100.49
-100.491
-239.189
-239.188
-239.188
-239.188
-239.188
-239.19
-423.303
-423.301
-423.301
-423.301
-423.301
-423.303
-73.8523
-73.8522
-73.8524
-73.8527
-73.8529
-73.8534
-83.4877
-83.4872
-83.4873
-83.4874
-83.4874
-83.488
-109.473
-109.472
-109.472
-109.472
-109.472
-109.473
-71.0447
-71.0446
-71.0446
-71.0446
-71.0448
-71.045
-88.7044
-88.7044
-88.7045
-88.7045
-88.7046
-88.7046
-106.802
-106.802
-106.802
-106.802
-106.802
-106.802
-59.1675
-59.1675
-59.1674
-59.1674
-59.1675
-59.1675
-67.5122
-67.5122
-67.5123
-67.5124
-67.5125
-67.5125
-75.279
-75.279
-75.279
-75.2791
-75.2791
-75.2791
-54.1178
-54.1178
-54.1178
-54.1179
-54.1179
-54.1179
-62.9346
-62.9346
-62.9347
-62.9348
-62.9348
-62.9348
-70.7563
-70.7564
-70.7564
-70.7564
-70.7564
-70.7564
-50.6358
-50.6358
-50.6358
-50.6358
-50.6358
-50.6357
-59.2855
-59.2856
-59.2857
-59.2857
-59.2856
-59.2856
-66.9478
-66.9478
-66.9478
-66.9478
-66.9477
-66.9477
-48.5833
-48.5833
-48.5832
-48.5831
-48.583
-48.5829
-57.3512
-57.3512
-57.3512
-57.3511
-57.3511
-57.351
-65.4605
-65.4604
-65.4604
-65.4604
-65.4603
-65.4603
-47.3009
-47.3008
-47.3007
-47.3006
-47.3004
-47.3003
-56.2033
-56.2033
-56.2032
-56.2032
-56.2031
-56.2031
-64.7389
-64.7389
-64.7389
-64.7389
-64.7388
-64.7388
-46.455
-46.455
-46.4549
-46.4549
-46.4548
-46.4548
-55.4885
-55.4885
-55.4885
-55.4885
-55.4884
-55.4884
-64.3655
-64.3655
-64.3655
-64.3655
-64.3654
-64.3654
-44.4063
-44.4063
-44.4063
-44.4063
-44.4063
-44.4063
-54.1444
-54.1444
-54.1444
-54.1444
-54.1444
-54.1444
-63.8407
-63.8407
-63.8407
-63.8407
-63.8407
-63.8407
-44.5151
-44.5151
-44.5151
-44.5151
-44.5151
-44.5151
-54.2231
-54.2231
-54.2231
-54.2231
-54.2231
-54.2231
-63.8713
-63.8713
-63.8713
-63.8713
-63.8713
-63.8713
-44.666
-44.666
-44.6661
-44.6661
-44.6661
-44.6661
-54.3305
-54.3305
-54.3305
-54.3305
-54.3305
-54.3305
-63.9134
-63.9134
-63.9134
-63.9134
-63.9134
-63.9134
-44.8763
-44.8763
-44.8763
-44.8763
-44.8763
-44.8763
-54.4778
-54.4778
-54.4778
-54.4778
-54.4778
-54.4778
-63.9715
-63.9715
-63.9715
-63.9715
-63.9715
-63.9715
-45.1716
-45.1716
-45.1716
-45.1716
-45.1716
-45.1715
-54.6802
-54.6802
-54.6802
-54.6802
-54.6802
-54.6802
-64.0517
-64.0517
-64.0517
-64.0517
-64.0517
-64.0517
-45.5653
-45.5653
-45.5653
-45.5653
-45.5653
-45.5653
-54.9563
-54.9563
-54.9563
-54.9563
-54.9563
-54.9563
-64.1626
-64.1626
-64.1626
-64.1626
-64.1626
-64.1626
-44.1525
-44.1525
-44.1525
-44.1525
-44.1525
-44.1525
-53.9597
-53.9597
-53.9597
-53.9597
-53.9597
-53.9597
-63.7666
-63.7666
-63.7666
-63.7666
-63.7666
-63.7666
-44.1529
-44.1529
-44.1529
-44.1529
-44.1529
-44.1529
-53.96
-53.96
-53.96
-53.96
-53.96
-53.96
-63.7667
-63.7667
-63.7667
-63.7667
-63.7667
-63.7667
-44.1539
-44.1539
-44.1539
-44.1539
-44.1539
-44.1539
-53.9606
-53.9606
-53.9606
-53.9606
-53.9606
-53.9606
-63.7669
-63.7669
-63.7669
-63.7669
-63.7669
-63.7669
-44.1554
-44.1554
-44.1554
-44.1554
-44.1554
-44.1554
-53.9616
-53.9616
-53.9616
-53.9616
-53.9616
-53.9616
-63.7673
-63.7673
-63.7673
-63.7673
-63.7673
-63.7673
-44.1577
-44.1577
-44.1577
-44.1577
-44.1577
-44.1577
-53.9631
-53.9631
-53.9631
-53.9631
-53.9631
-53.9631
-63.7679
-63.7679
-63.7679
-63.7679
-63.7679
-63.7679
-44.161
-44.161
-44.161
-44.161
-44.161
-44.161
-53.9654
-53.9654
-53.9654
-53.9654
-53.9654
-53.9654
-63.7688
-63.7688
-63.7688
-63.7688
-63.7688
-63.7688
-44.1659
-44.1659
-44.1659
-44.1659
-44.1659
-44.1659
-53.9689
-53.9689
-53.9689
-53.9689
-53.9689
-53.9689
-63.7701
-63.7701
-63.7701
-63.7701
-63.7701
-63.7701
-44.1732
-44.1732
-44.1732
-44.1732
-44.1732
-44.1732
-53.9742
-53.9742
-53.9742
-53.9742
-53.9742
-53.9742
-63.7723
-63.7723
-63.7723
-63.7723
-63.7723
-63.7723
-44.185
-44.185
-44.185
-44.185
-44.185
-44.185
-53.9829
-53.9829
-53.9829
-53.9829
-53.9829
-53.9829
-63.7758
-63.7758
-63.7758
-63.7758
-63.7758
-63.7758
-44.2051
-44.2051
-44.2051
-44.2051
-44.2051
-44.2051
-53.9972
-53.9972
-53.9972
-53.9972
-53.9972
-53.9972
-63.7819
-63.7819
-63.7819
-63.7819
-63.7819
-63.7819
-44.2408
-44.2408
-44.2408
-44.2408
-44.2408
-44.2408
-54.0224
-54.0224
-54.0224
-54.0224
-54.0224
-54.0224
-63.7927
-63.7927
-63.7927
-63.7927
-63.7927
-63.7927
-44.3017
-44.3017
-44.3017
-44.3017
-44.3017
-44.3017
-54.0664
-54.0664
-54.0664
-54.0664
-54.0664
-54.0664
-63.8116
-63.8116
-63.8116
-63.8116
-63.8116
-63.8116
)
;

boundaryField
{
    seabed_topleft_surface
    {
        type            calculated;
        value           nonuniform List<scalar> 
72
(
17403.3
17403.3
17403.3
17403.3
17403.3
17403.3
16567
16567
16566.9
16566.9
16566.9
16566.9
15612.7
15612.7
15612.7
15612.7
15612.7
15612.7
8399.65
8399.65
8399.65
8399.65
8399.65
8399.65
401.223
401.224
401.226
401.227
401.227
401.229
8.30367
8.30384
8.30439
8.30482
8.30529
8.30593
9.22703
9.22676
9.22666
9.22666
9.22671
9.22679
1.05672
1.05655
1.05632
1.05599
1.05569
1.05546
-1.77518
-1.77504
-1.77496
-1.77498
-1.7751
-1.77527
-3.04212
-3.0424
-3.04303
-3.04368
-3.04421
-3.04456
-3.45157
-3.45284
-3.45415
-3.45515
-3.45577
-3.45608
-3.59142
-3.59171
-3.59204
-3.59234
-3.59255
-3.59266
)
;
    }
    seabed_topright_surface
    {
        type            calculated;
        value           nonuniform List<scalar> 
72
(
-0.0136665
-0.0136675
-0.0136681
-0.0136681
-0.0136681
-0.013668
-0.0143285
-0.0143296
-0.0143301
-0.01433
-0.0143298
-0.0143295
-0.0156721
-0.0156736
-0.0156741
-0.0156741
-0.0156738
-0.0156733
-0.0177408
-0.0177428
-0.0177434
-0.0177432
-0.0177427
-0.0177421
-0.0205927
-0.0205951
-0.0205956
-0.0205953
-0.0205945
-0.0205935
-0.0242918
-0.0242943
-0.0242946
-0.0242941
-0.024293
-0.0242917
-0.0288887
-0.0288912
-0.028891
-0.0288903
-0.0288889
-0.0288873
-0.0343896
-0.0343917
-0.0343911
-0.0343902
-0.0343887
-0.0343869
-0.040708
-0.0407096
-0.0407085
-0.0407077
-0.0407062
-0.0407045
-0.0476023
-0.0476034
-0.0476023
-0.0476017
-0.0476005
-0.0475991
-0.0543303
-0.0543309
-0.0543297
-0.0543292
-0.0543282
-0.054327
-0.0603471
-0.0603471
-0.0603461
-0.0603456
-0.0603449
-0.060344
)
;
    }
    breakwater_top_surface
    {
        type            calculated;
        value           nonuniform List<scalar> 
36
(
-39.5013
-39.5013
-39.5013
-39.5013
-39.5013
-39.5013
-39.6101
-39.6101
-39.6101
-39.6101
-39.6101
-39.6101
-39.761
-39.761
-39.7611
-39.7611
-39.7611
-39.7611
-39.9713
-39.9713
-39.9713
-39.9713
-39.9713
-39.9713
-40.2666
-40.2666
-40.2666
-40.2666
-40.2666
-40.2665
-40.6603
-40.6603
-40.6603
-40.6603
-40.6603
-40.6603
)
;
    }
    breakwater_left_surface
    {
        type            calculated;
        value           nonuniform List<scalar> 
24
(
-8.49642
-8.49671
-8.49704
-8.49734
-8.49755
-8.49766
-18.5319
-18.5317
-18.5315
-18.5313
-18.5311
-18.5311
-28.2645
-28.2644
-28.2642
-28.264
-28.264
-28.2639
-37.6365
-37.6364
-37.6363
-37.6362
-37.6362
-37.6362
)
;
    }
    breakwater_right_surface
    {
        type            calculated;
        value           nonuniform List<scalar> 
24
(
-4.96535
-4.96535
-4.96535
-4.96535
-4.96534
-4.96534
-14.7808
-14.7808
-14.7808
-14.7808
-14.7808
-14.7808
-24.6033
-24.6033
-24.6033
-24.6033
-24.6033
-24.6033
-34.4184
-34.4184
-34.4184
-34.4184
-34.4184
-34.4184
)
;
    }
    water_front_surface
    {
        type            calculated;
        value           nonuniform List<scalar> 
186
(
12481.5
11645.1
10690.8
3477.79
66.8476
3.36688
4.30513
-3.86514
-6.69704
-7.96398
-8.37343
-8.51328
3591.8
3411.06
3427.67
96.0194
-27.9644
-14.1459
-17.1623
-18.4116
-18.8737
-18.8727
-18.728
-18.5484
-5120.34
-4300.31
-2774.79
-478.283
-81.0871
-39.6688
-36.0209
-32.291
-30.5147
-29.4083
-28.6994
-28.2807
-14497.1
-12686.6
-9169.6
-526.149
-66.8914
-55.3274
-48.2255
-43.812
-41.04
-39.3129
-38.2469
-37.6524
-4.93552
-4.93618
-4.93753
-4.9396
-4.94245
-4.94615
-4.95074
-4.95625
-4.96256
-4.96946
-4.97619
-4.9822
-14.7445
-14.7452
-14.7466
-14.7487
-14.7516
-14.7554
-14.7602
-14.7661
-14.773
-14.7807
-14.789
-14.7974
-24.5529
-24.5536
-24.5549
-24.5569
-24.5598
-24.5637
-24.5688
-24.5753
-24.5836
-24.5945
-24.6063
-24.6195
-34.3607
-34.3613
-34.3625
-34.3644
-34.3671
-34.3709
-34.376
-34.3829
-34.3916
-34.402
-34.4158
-34.4342
-25495
-39613.6
-55386.8
-22428.3
-36565.8
-51050.1
-16682.2
-32668
-43969
-100.49
-239.189
-423.303
-73.8523
-83.4877
-109.473
-71.0447
-88.7044
-106.802
-59.1675
-67.5122
-75.279
-54.1178
-62.9346
-70.7563
-50.6358
-59.2855
-66.9478
-48.5833
-57.3512
-65.4605
-47.3009
-56.2033
-64.7389
-46.455
-55.4885
-64.3655
-44.4063
-54.1444
-63.8407
-44.5151
-54.2231
-63.8713
-44.666
-54.3305
-63.9134
-44.8763
-54.4778
-63.9715
-45.1716
-54.6802
-64.0517
-45.5653
-54.9563
-64.1626
-44.1525
-53.9597
-63.7666
-44.1529
-53.96
-63.7667
-44.1539
-53.9606
-63.7669
-44.1554
-53.9616
-63.7673
-44.1577
-53.9631
-63.7679
-44.161
-53.9654
-63.7688
-44.1659
-53.9689
-63.7701
-44.1732
-53.9742
-63.7723
-44.185
-53.9829
-63.7758
-44.2051
-53.9972
-63.7819
-44.2408
-54.0224
-63.7927
-44.3017
-54.0664
-63.8116
)
;
    }
    water_back_surface
    {
        type            calculated;
        value           nonuniform List<scalar> 
186
(
12481.5
11645.1
10690.8
3477.79
66.8539
3.36913
4.3049
-3.8664
-6.69713
-7.96642
-8.37794
-8.51451
3591.8
3411.03
3427.66
96.0181
-27.9587
-14.1451
-17.1635
-18.4125
-18.8746
-18.8737
-18.7257
-18.5476
-5120.35
-4300.33
-2774.78
-478.283
-81.0844
-39.6685
-36.0211
-32.2909
-30.5152
-29.408
-28.6982
-28.2801
-14497.1
-12686.6
-9169.57
-526.146
-66.892
-55.3283
-48.2255
-43.8121
-41.0391
-39.3116
-38.2459
-37.6521
-4.93552
-4.93619
-4.93753
-4.9396
-4.94245
-4.94615
-4.95074
-4.95624
-4.96256
-4.96945
-4.97618
-4.9822
-14.7445
-14.7452
-14.7466
-14.7487
-14.7516
-14.7554
-14.7602
-14.7661
-14.773
-14.7807
-14.789
-14.7973
-24.5529
-24.5536
-24.5549
-24.5569
-24.5598
-24.5637
-24.5688
-24.5753
-24.5836
-24.5945
-24.6063
-24.6195
-34.3607
-34.3613
-34.3625
-34.3644
-34.3671
-34.3709
-34.376
-34.3829
-34.3916
-34.402
-34.4157
-34.4342
-25495
-39613.6
-55386.8
-22428.3
-36565.8
-51050.1
-16682.2
-32668
-43969
-100.491
-239.19
-423.303
-73.8534
-83.488
-109.473
-71.045
-88.7046
-106.802
-59.1675
-67.5125
-75.2791
-54.1179
-62.9348
-70.7564
-50.6357
-59.2856
-66.9477
-48.5829
-57.351
-65.4603
-47.3003
-56.2031
-64.7388
-46.4548
-55.4884
-64.3654
-44.4063
-54.1444
-63.8407
-44.5151
-54.2231
-63.8713
-44.6661
-54.3305
-63.9134
-44.8763
-54.4778
-63.9715
-45.1715
-54.6802
-64.0517
-45.5653
-54.9563
-64.1626
-44.1525
-53.9597
-63.7666
-44.1529
-53.96
-63.7667
-44.1539
-53.9606
-63.7669
-44.1554
-53.9616
-63.7673
-44.1577
-53.9631
-63.7679
-44.161
-53.9654
-63.7688
-44.1659
-53.9689
-63.7701
-44.1732
-53.9742
-63.7723
-44.185
-53.9829
-63.7758
-44.2051
-53.9972
-63.7819
-44.2408
-54.0224
-63.7927
-44.3017
-54.0664
-63.8116
)
;
    }
    water_left_surface
    {
        type            calculated;
        value           nonuniform List<scalar> 
42
(
12498.3
12498.3
12498.3
12498.3
12498.3
12498.3
3608.32
3608.32
3608.31
3608.31
3608.31
3608.32
-5104.15
-5104.15
-5104.15
-5104.16
-5104.16
-5104.16
-14481.2
-14481.2
-14481.2
-14481.2
-14481.2
-14481.2
-25495
-25495
-25495
-25495
-25495
-25495
-39613.6
-39613.6
-39613.6
-39613.6
-39613.6
-39613.6
-55386.8
-55386.8
-55386.8
-55386.8
-55386.8
-55386.8
)
;
    }
    water_right_surface
    {
        type            calculated;
        value           nonuniform List<scalar> 
42
(
-4.91867
-4.91867
-4.91867
-4.91867
-4.91867
-4.91867
-14.728
-14.728
-14.728
-14.728
-14.728
-14.728
-24.5367
-24.5367
-24.5367
-24.5367
-24.5367
-24.5367
-34.3449
-34.3449
-34.3449
-34.3449
-34.3449
-34.3449
-44.1525
-44.1525
-44.1525
-44.1525
-44.1525
-44.1525
-53.9597
-53.9597
-53.9597
-53.9597
-53.9597
-53.9597
-63.7666
-63.7666
-63.7666
-63.7666
-63.7666
-63.7666
)
;
    }
    water_top_surface
    {
        type            calculated;
        value           nonuniform List<scalar> 
180
(
-68670
-68670
-68670
-68670
-68670
-68670
-68670
-68670
-68670
-68670
-68670
-68670
-68668.7
-68668.7
-68668.7
-68668.7
-68668.7
-68668.7
-47033.5
-47033.5
-47033.5
-47033.5
-47033.5
-47033.5
-76.6823
-76.6825
-76.6825
-76.6824
-76.6822
-76.6821
-73.3844
-73.3843
-73.3843
-73.3843
-73.3842
-73.3842
-69.5271
-69.5271
-69.5271
-69.5271
-69.5271
-69.527
-68.9719
-68.9719
-68.9719
-68.9718
-68.9718
-68.9718
-68.7724
-68.7724
-68.7724
-68.7724
-68.7724
-68.7724
-68.7119
-68.7119
-68.7119
-68.7119
-68.7119
-68.7119
-68.6894
-68.6894
-68.6894
-68.6894
-68.6894
-68.6894
-68.6793
-68.6793
-68.6793
-68.6793
-68.6793
-68.6793
-68.6702
-68.6702
-68.6702
-68.6702
-68.6702
-68.6702
-68.6703
-68.6703
-68.6703
-68.6703
-68.6703
-68.6703
-68.6706
-68.6706
-68.6706
-68.6706
-68.6706
-68.6706
-68.6712
-68.6712
-68.6712
-68.6712
-68.6712
-68.6712
-68.6723
-68.6723
-68.6723
-68.6723
-68.6723
-68.6723
-68.6743
-68.6743
-68.6743
-68.6743
-68.6743
-68.6743
-68.67
-68.67
-68.67
-68.67
-68.67
-68.67
-68.67
-68.67
-68.67
-68.67
-68.67
-68.67
-68.67
-68.67
-68.67
-68.67
-68.67
-68.67
-68.67
-68.67
-68.67
-68.67
-68.67
-68.67
-68.67
-68.67
-68.67
-68.67
-68.67
-68.67
-68.67
-68.67
-68.67
-68.67
-68.67
-68.67
-68.67
-68.67
-68.67
-68.67
-68.67
-68.67
-68.67
-68.67
-68.67
-68.67
-68.67
-68.67
-68.67
-68.67
-68.67
-68.67
-68.67
-68.67
-68.67
-68.67
-68.67
-68.67
-68.67
-68.67
-68.67
-68.67
-68.67
-68.67
-68.67
-68.67
-68.6701
-68.6701
-68.6701
-68.6701
-68.6701
-68.6701
)
;
    }
}


// ************************************************************************* //
