/*--------------------------------*- C++ -*----------------------------------*\
| =========                 |                                                 |
| \\      /  F ield         | OpenFOAM: The Open Source CFD Toolbox           |
|  \\    /   O peration     | Version:  v1612+                                |
|   \\  /    A nd           | Web:      www.OpenFOAM.com                      |
|    \\/     M anipulation  |                                                 |
\*---------------------------------------------------------------------------*/
FoamFile
{
    version     2.0;
    format      ascii;
    class       volScalarField;
    location    "7.2";
    object      alpha.water;
}
// * * * * * * * * * * * * * * * * * * * * * * * * * * * * * * * * * * * * * //

dimensions      [0 0 0 0 0 0 0];

internalField   nonuniform List<scalar> 
1116
(
0.687479
0.687479
0.687479
0.68748
0.68748
0.68748
0.937042
0.937137
0.93708
0.937066
0.937096
0.937065
0.97433
0.97433
0.97433
0.97433
0.97433
0.97433
0.97433
0.97433
0.97433
0.97433
0.97433
0.97433
0.97433
0.97433
0.97433
0.97433
0.97433
0.97433
0.91096
0.910753
0.910747
0.911041
0.911017
0.910743
0.855455
0.856297
0.856258
0.85557
0.854839
0.856686
0.823593
0.824187
0.824311
0.823462
0.822961
0.824534
0.807821
0.807685
0.807958
0.807598
0.807662
0.80773
0.800777
0.79977
0.800199
0.800569
0.801264
0.799481
0.7997
0.798737
0.799117
0.799494
0.800193
0.79922
0.799117
0.79825
0.798509
0.798912
0.799629
0.798723
0.764806
0.764739
0.76477
0.764804
0.764787
0.764793
0.937082
0.937133
0.937102
0.937074
0.937092
0.937074
0.816046
0.816085
0.816075
0.816059
0.81608
0.816044
0.663722
0.663666
0.663707
0.663695
0.663692
0.663675
0.431007
0.430654
0.43072
0.430883
0.430906
0.430827
0.23738
0.239136
0.238882
0.237938
0.237079
0.23952
0.119727
0.11855
0.118775
0.119931
0.121318
0.117692
0.106587
0.106489
0.10664
0.106253
0.106019
0.106322
0.127927
0.127825
0.128069
0.12762
0.126987
0.12813
0.122976
0.121836
0.122088
0.122931
0.12306
0.121911
0.130689
0.134643
0.133974
0.130975
0.12786
0.136613
0.231323
0.231911
0.233039
0.231218
0.231075
0.233047
0.765561
0.765561
0.765561
0.76556
0.76556
0.76556
0.533809
0.533779
0.533782
0.533836
0.533809
0.533787
0.225108
0.225332
0.225129
0.225311
0.225469
0.22494
0.0774926
0.0774924
0.0775178
0.0774669
0.0774334
0.0774738
0.0288708
0.0292116
0.0289403
0.0290806
0.0296045
0.0287034
0.000952292
0.0013266
0.00125148
0.0010604
0.000958007
0.00118204
0.000669445
0.00066129
0.000656505
0.000628172
0.000593309
0.000593309
0.00666719
0.00554879
0.00560465
0.00676081
0.00815278
0.00453845
0.0146802
0.0141643
0.0140048
0.0149151
0.0154735
0.0135895
0.0199929
0.0201384
0.0198144
0.0202693
0.019836
0.0200252
0.0227602
0.0228825
0.0225485
0.022901
0.0225329
0.022443
0.0281492
0.0301886
0.0295604
0.0278848
0.0262699
0.0296496
0.765561
0.765561
0.76556
0.76556
0.76556
0.76556
0.0924973
0.0928293
0.0925978
0.0927396
0.092872
0.0922635
5.99573e-06
5.02074e-06
4.97986e-06
5.63259e-06
6.98711e-06
5.69541e-06
4.00428e-05
1.20386e-05
1.08496e-05
3.11149e-05
4.09464e-05
1.27146e-05
0.000112997
2.74835e-05
2.67967e-05
8.4916e-05
9.04928e-05
2.58089e-05
0.00120616
6.67802e-05
8.52932e-05
0.00105106
0.0016616
3.18842e-05
0.00323274
0.00292471
0.002983
0.00326439
0.00326941
0.00236729
0.00267964
0.00325983
0.00326644
0.00285365
0.00248883
0.00328608
2.21423e-06
1.94879e-06
2.0001e-06
2.33162e-06
2.48927e-06
1.9237e-06
3.06134e-06
2.86524e-06
3.02554e-06
3.16487e-06
3.33154e-06
3.01009e-06
0.00602966
0.00560383
0.00569768
0.00605788
0.00650221
0.00554195
0.0268467
0.0268042
0.0267899
0.0267019
0.0264325
0.0266273
0.0920292
0.0920331
0.092046
0.0920964
0.0920679
0.0920837
0.092017
0.0920293
0.0920331
0.0920512
0.0920383
0.0920674
0.0884846
0.0444929
0.0612178
0.0643915
0.0920227
0.0920359
0.0319108
0.0677729
0.0715597
0.0569212
0.067506
0.0920189
0.0650166
0.0711798
0.071557
0.0712081
0.0627196
0.0859287
0.0694204
0.0620432
0.0615776
0.0426447
0.0626231
0.0177814
0.0694972
0.0641824
0.0404178
0.0131165
0.0505661
0.0169492
0.0695503
0.069365
0.0384062
0.0424823
0.0472769
0.0680059
0.0695222
0.0693011
0.0664922
0.065321
0.0592954
0.0700729
0.0685968
0.0633107
0.0766455
0.072242
0.0665434
0.0700068
0.0561463
0.0500538
0.0766463
0.0767279
0.0766256
0.0671927
0.0412353
0.0541125
0.0741814
0.0768094
0.0768094
0.0571168
0.092017
0.0750533
0.0920331
0.0920689
0.0921191
0.092089
0.0869347
0.0439402
0.0687686
0.0622315
0.0471378
0.0920896
0.0135846
0.00833028
0.00462728
0.00725803
0.0122864
0.0198936
0.00343278
0.00226146
0.003297
0.00250898
0.00416413
0.00336394
0.0013026
1.56278e-08
9.52882e-08
1.35628e-08
0.00108123
0.000862427
4.72241e-09
2.63251e-09
1.01961e-09
1.65763e-09
0.000285556
0.00340844
3.72845e-09
7.91398e-09
1.88582e-09
0.000432187
0.00122716
0.00519995
1.90209e-09
3.72846e-09
0.000103491
0.000284027
7.82621e-09
0.00206533
1.79904e-09
1.89446e-09
3.56779e-08
3.0123e-08
2.77845e-09
0.000115903
-8.68766e-10
3.07057e-08
2.13898e-07
1.90829e-07
2.88539e-07
4.82862e-08
0.00110946
0.00247664
0.000619759
0.00156471
0.00157461
0.00020463
0.0332281
0.00641534
0.000644747
0.0325116
0.0529528
0.0265701
0.0919755
0.090056
0.0851186
0.0799447
0.0814775
0.0920886
0.0766142
0.0100349
0.0337452
0.0233683
0.0152425
0.0803696
0.00250588
2.27804e-06
1.45632e-06
5.8288e-07
2.6341e-06
0.00659815
6.57459e-07
5.35181e-08
3.29719e-08
1.33753e-08
6.14891e-08
1.4661e-06
1.65609e-08
2.6325e-09
9.73471e-10
8.55447e-10
1.80268e-09
1.86822e-08
2.63251e-09
1.4084e-09
2.47233e-10
1.41844e-09
1.66574e-09
2.01576e-09
6.00634e-09
1.26058e-08
1.08036e-09
1.66574e-09
8.75429e-07
4.14109e-10
2.2696e-09
3.54447e-08
1.6182e-09
4.97093e-09
1.14038e-08
4.22506e-10
1.79583e-09
1.90319e-09
1.22238e-08
2.71337e-09
1.05351e-09
4.32097e-10
1.66342e-09
1.23828e-08
1.21965e-07
3.01286e-08
2.77635e-09
2.24699e-08
5.74655e-08
7.6066e-07
2.14162e-06
0.000192088
0.000128267
4.82862e-08
0.000626283
0.00117286
0.00611846
0.000895108
8.70554e-05
1.19044e-06
0.0919429
0.0919387
0.0919162
0.03199
0.0516311
0.0920361
0.0503014
0.0172893
0.0166494
0.00589166
0.00870321
0.031807
0.000497535
4.42044e-06
1.98643e-06
8.98759e-07
4.97509e-07
5.62723e-06
3.07941e-07
7.53693e-08
3.28236e-08
4.39951e-10
1.40401e-10
4.76441e-08
1.87865e-09
1.44489e-09
1.02621e-10
-2.2133e-11
-1.89495e-11
5.67801e-11
4.256e-09
1.56326e-08
8.62352e-11
3.60467e-09
2.78505e-08
1.87118e-07
1.16632e-08
1.85804e-08
3.53778e-10
1.20874e-08
9.70239e-08
8.31797e-10
2.35032e-09
4.46164e-09
1.99398e-09
3.05046e-09
7.34975e-10
1.24694e-09
2.15327e-09
8.78267e-07
2.56106e-06
2.88641e-08
1.9517e-09
5.57292e-09
7.04449e-08
2.86459e-06
6.05125e-06
1.68999e-07
1.22426e-07
7.11886e-07
7.99674e-08
6.25821e-08
8.44006e-07
0.00209256
0.00204437
7.73333e-07
0.00828718
0.0166062
0.0169265
0.0160787
0.00958088
0.0117883
0.551584
0.548732
0.549858
0.550668
0.550163
0.550711
0.0154514
0.0131792
0.0141112
0.0147556
0.0143631
0.014906
0.000628043
0.000553301
0.000601324
0.000582133
0.000539617
0.000629143
0.0424646
0.0428726
0.0426756
0.0426833
0.0427178
0.0423386
0.00885377
0.00855866
0.00867371
0.00871101
0.00868443
0.00869644
0.000621406
0.000482044
0.00056608
0.000538074
0.000456367
0.000647119
5.02135e-06
4.98025e-06
4.98029e-06
4.98031e-06
5.33796e-06
5.6956e-06
5.99589e-06
5.02135e-06
4.98031e-06
5.63321e-06
6.98718e-06
5.69567e-06
2.37641e-05
8.73624e-06
8.5443e-06
2.01095e-05
3.239e-05
9.34779e-06
2.08305e-05
5.02135e-06
4.98031e-06
7.18211e-06
3.04464e-05
5.69567e-06
0.000443196
4.28568e-05
9.12286e-06
0.000302754
0.000522791
1.75387e-05
0.000451256
0.000510453
0.000528138
0.000539586
0.000599007
0.000527575
0.000889422
0.00014811
0.00011369
0.000740205
0.00101388
0.000172385
0.0012062
0.000819526
0.000726186
0.00109793
0.00109793
0.000755527
0.00116859
0.0010888
0.00104614
0.00108067
0.00108561
0.00106297
0.00154708
0.00157037
0.00157073
0.00163185
0.00169088
0.00143491
0.00103823
0.00115753
0.00128207
0.000956333
0.000860081
0.00135291
2.38978e-25
3.5893e-22
1.52114e-18
2.24662e-22
1.99234e-25
3.23241e-05
0.00132387
0.00166342
0.00174124
0.00131591
0.00122697
0.00162489
4.22149e-12
4.23431e-12
4.20764e-12
4.41128e-12
4.45563e-12
4.22678e-12
6.16822e-18
3.55683e-18
1.98719e-21
3.89971e-18
4.30411e-18
1.82135e-22
3.55392e-10
2.98009e-10
3.04524e-10
3.84989e-10
4.23265e-10
2.7895e-10
9.01332e-12
7.83303e-12
7.9286e-12
9.64229e-12
1.04046e-11
7.51059e-12
-2.71898e-14
-3.39062e-15
-3.39286e-16
-3.30731e-14
-2.84019e-14
-3.54571e-15
2.58277e-08
2.20494e-08
2.25878e-08
2.78727e-08
3.0369e-08
2.13635e-08
3.55571e-10
2.97265e-10
3.03664e-10
3.83935e-10
4.21679e-10
2.79003e-10
7.60405e-08
7.65173e-08
7.62039e-08
7.91763e-08
8.02117e-08
7.60159e-08
3.40925e-08
4.0331e-08
3.82686e-08
3.30211e-08
3.06213e-08
4.104e-08
2.2213e-08
3.45302e-08
2.81386e-08
1.84613e-08
1.50764e-08
3.03189e-08
3.50251e-07
3.50318e-07
3.50413e-07
3.50456e-07
3.50429e-07
3.50496e-07
-1.70512e-08
-1.47524e-08
-1.43642e-08
-1.75905e-08
-1.86459e-08
-1.51116e-08
7.45688e-12
8.11567e-12
7.91676e-12
7.34907e-12
7.18443e-12
8.22305e-12
1.55233e-08
1.54398e-08
1.54432e-08
1.5492e-08
1.54436e-08
1.55223e-08
0.00840953
0.00787065
0.00814024
0.00852507
0.00907464
0.00804387
1.52588e-15
1.73719e-15
1.71944e-15
1.72851e-15
1.62603e-15
1.84397e-15
4.52046e-18
2.82531e-19
-1.25176e-18
2.04772e-18
6.42849e-18
2.65274e-18
0.0506885
0.05017
0.0499251
0.0499446
0.0502578
0.0504094
1.95082e-27
1.02994e-27
3.05952e-28
1.32074e-27
3.50582e-27
1.47826e-27
2.52815e-12
1.29559e-12
3.73439e-13
1.60496e-12
4.21379e-12
1.87221e-12
0.0519028
0.0521029
0.0527152
0.0530131
0.0535039
0.0528269
-3.30333e-16
-2.57244e-16
-1.68967e-16
-2.80968e-17
-8.85644e-16
-1.04386e-16
-1.26626e-26
-1.04334e-26
-1.53045e-26
-1.08433e-26
-1.683e-26
-7.95361e-27
0.0548975
0.0549261
0.0549776
0.0550193
0.0550199
0.0550046
-1.32261e-15
-1.10587e-15
-1.77224e-15
-2.63809e-16
-1.16559e-14
-7.36803e-16
-1.68074e-26
-1.59787e-26
-1.72801e-26
-1.54775e-26
-2.82076e-26
-1.02334e-26
0.0547237
0.0546833
0.05466
0.0547452
0.0548106
0.0548197
-9.39634e-16
-7.65942e-16
-1.32316e-15
-9.73938e-17
-8.32074e-15
-4.49303e-16
-1.53801e-26
-1.78793e-26
-1.95421e-26
-1.85645e-26
-2.03971e-26
-1.41236e-26
0.0544407
0.0544012
0.0543754
0.0544445
0.0545001
0.0545264
-5.50855e-16
-4.4732e-16
-7.95636e-16
-5.96869e-17
-4.86798e-15
-2.52979e-16
-1.06112e-26
-1.24288e-26
-1.3581e-26
-1.31999e-26
-1.45133e-26
-1.02602e-26
0.0498348
0.0497495
0.0497878
0.0498155
0.049845
0.0497598
1.19654e-28
1.36568e-28
1.33791e-28
1.34043e-28
1.25713e-28
1.44393e-28
1.12884e-17
1.12541e-17
1.12634e-17
1.12929e-17
1.12975e-17
1.12884e-17
0.0919387
0.0919247
0.0919149
0.077017
0.0582165
0.0919718
0.0902015
0.062916
0.0915737
0.0780934
0.0182065
0.0770752
0.0213334
9.96111e-21
0.0167791
0.0137727
3.29597e-19
0.0189785
0.0202383
0.0170355
0.0120393
0.00577806
0.00529396
0.0160418
3.80323e-07
0.0128936
3.06995e-07
0.00229633
0.00347008
2.22742e-09
2.75116e-20
0.00314474
0.000288855
0.000713274
0.0008226
2.94609e-22
1.48348e-06
6.24784e-07
1.48693e-07
-1.98702e-09
1.40535e-10
4.83657e-08
-5.46554e-16
-3.50289e-11
2.99267e-11
1.69799e-14
3.55995e-18
8.24461e-07
-1.11144e-09
2.85179e-20
-2.04863e-17
4.80458e-21
7.05966e-18
8.38414e-08
-6.21881e-09
-3.62883e-09
-6.22738e-10
-2.48743e-11
-1.20452e-12
4.71087e-08
-8.42608e-16
-7.44499e-13
1.76917e-12
-9.44196e-17
-1.00163e-11
2.71695e-21
-8.0336e-16
2.4362e-09
3.51682e-09
1.00311e-15
-1.45698e-15
8.61363e-21
-7.16497e-14
-7.40032e-11
-1.18385e-11
1.3655e-11
-1.68753e-14
-8.53474e-13
-8.20743e-15
1.04955e-15
8.62763e-16
5.88372e-17
1.10268e-18
6.45712e-11
1.32579e-15
1.44558e-15
3.46277e-15
1.18892e-15
1.44385e-15
2.08465e-12
9.23108e-10
1.62597e-09
4.99434e-11
1.12484e-13
5.66612e-11
4.72398e-09
3.41096e-12
4.6362e-14
1.78446e-14
8.94421e-16
2.04979e-17
3.04693e-15
2.44179e-14
1.47676e-14
3.62308e-15
2.68649e-14
4.70134e-14
2.26293e-14
4.09168e-09
9.07065e-09
5.70011e-11
5.52958e-11
8.76459e-13
2.15979e-11
1.76226e-10
7.1842e-10
1.53903e-12
1.12483e-13
6.73478e-13
1.29123e-13
5.82114e-14
5.46291e-14
1.14035e-11
1.37811e-12
2.76675e-13
2.55647e-14
3.7728e-10
9.04989e-09
1.30687e-09
2.51993e-10
2.5201e-11
2.1389e-11
2.21586e-10
1.07111e-08
1.38633e-08
3.21008e-09
8.76465e-13
1.03414e-11
3.0259e-11
6.50057e-10
1.68379e-09
2.54455e-10
1.49092e-12
1.99886e-11
3.58849e-09
1.72858e-07
1.54468e-07
4.89527e-08
2.45181e-08
2.58008e-08
1.67154e-08
2.34986e-07
2.39934e-07
8.65842e-08
4.81945e-09
5.55339e-08
1.62624e-09
9.40878e-09
7.83819e-09
2.32265e-09
3.46945e-12
9.20232e-10
7.94213e-08
2.2809e-06
1.60691e-06
4.51065e-07
2.87281e-08
7.36635e-07
3.91099e-06
3.61108e-06
1.73152e-06
9.43843e-07
7.05625e-08
8.14778e-07
4.08864e-09
4.14672e-09
5.10744e-10
-8.21813e-15
-7.22385e-17
-2.72399e-15
5.81063e-08
5.21714e-09
-3.62118e-09
3.64844e-09
1.04421e-09
4.10506e-09
1.41092e-07
2.57306e-11
2.22203e-12
-8.81771e-13
-3.80157e-13
-3.36418e-12
-3.0745e-14
-3.28369e-12
-2.52158e-13
-1.80062e-16
-2.78649e-18
-1.06063e-15
0.0199345
0.0193529
0.0169391
0.0153492
0.0134164
0.0181412
2.42582e-14
1.20039e-14
3.43449e-15
1.57347e-14
4.54218e-14
1.84517e-14
3.02677e-19
6.06949e-19
6.91745e-20
9.08173e-18
2.193e-11
1.42297e-17
)
;

boundaryField
{
    seabed_topleft_surface
    {
        type            zeroGradient;
    }
    seabed_topright_surface
    {
        type            zeroGradient;
    }
    breakwater_top_surface
    {
        type            zeroGradient;
    }
    breakwater_left_surface
    {
        type            zeroGradient;
    }
    breakwater_right_surface
    {
        type            zeroGradient;
    }
    water_front_surface
    {
        type            zeroGradient;
    }
    water_back_surface
    {
        type            zeroGradient;
    }
    water_left_surface
    {
        type            zeroGradient;
    }
    water_right_surface
    {
        type            zeroGradient;
    }
    water_top_surface
    {
        type            inletOutlet;
        inletValue      uniform 0;
        value           nonuniform List<scalar> 
180
(
0.000628043
0.000553301
0.000601324
0.000582133
0.000539617
0.000629143
0.000621406
0.000482044
0.00056608
0.000538074
0.000456367
0.000647119
2.37641e-05
8.73624e-06
8.5443e-06
2.01095e-05
3.239e-05
9.34779e-06
0.000451256
0.000510453
0.000528138
0.000539586
0.000599007
0.000527575
0.00116859
0.0010888
0.00104614
0.00108067
0.00108561
0.00106297
0
0
0
0
0
0
0
0
0
0
0
0
0
0
0
0
0
0
0
0
0
0
0
0
0
0
0
0
0
0
0
0
0
0
0
0
0
0
0
0
0
0
0
0
0
0
0
0
0
0
0
0
0
0
0
0
0
0
0
0
0
0
0
0
0
0
0
0
0
0
0
0
0
0
0
0
0
0
0.0213334
0
0.0167791
0.0137727
0
0.0189785
0
0.00314474
0.000288855
0.000713274
0.0008226
0
-1.11144e-09
0
0
0
7.05966e-18
8.38414e-08
0
0
0
0
0
0
1.32579e-15
1.44558e-15
3.46277e-15
1.18892e-15
1.44385e-15
2.08465e-12
0
0
0
0
0
0
5.82114e-14
5.46291e-14
1.14035e-11
1.37811e-12
2.76675e-13
2.55647e-14
3.0259e-11
6.50057e-10
1.68379e-09
2.54455e-10
1.49092e-12
1.99886e-11
1.62624e-09
9.40878e-09
7.83819e-09
2.32265e-09
3.46945e-12
9.20232e-10
0
0
0
0
0
0
0
0
0
0
0
0
0
0
0
0
0
0
)
;
    }
}


// ************************************************************************* //
