/*--------------------------------*- C++ -*----------------------------------*\
| =========                 |                                                 |
| \\      /  F ield         | OpenFOAM: The Open Source CFD Toolbox           |
|  \\    /   O peration     | Version:  v1612+                                |
|   \\  /    A nd           | Web:      www.OpenFOAM.com                      |
|    \\/     M anipulation  |                                                 |
\*---------------------------------------------------------------------------*/
FoamFile
{
    version     2.0;
    format      ascii;
    class       surfaceScalarField;
    location    "7.2";
    object      alphaPhi;
}
// * * * * * * * * * * * * * * * * * * * * * * * * * * * * * * * * * * * * * //

dimensions      [0 3 -1 0 0 0 0];

internalField   nonuniform List<scalar> 
2916
(
-7.2266e-05
0.0627156
-0.0696995
1.7691e-05
0.0625322
-0.0696784
1.3896e-05
0.0626284
-0.0696809
-3.20692e-06
0.0626686
-0.0697079
3.67544e-05
0.0626087
-0.0697052
0.0626609
-0.0696809
-5.34021e-05
0.140494
-0.0552312
1.82125e-05
0.14029
-0.0554185
2.05904e-07
0.140435
-0.0553309
-1.60383e-05
0.140419
-0.0552704
1.35373e-05
0.140358
-0.0553428
0.140455
-0.0553161
1.20577e-05
0.00655987
0.134152
-1.08686e-05
0.00630116
0.134241
-3.66314e-05
0.00651523
0.134175
-1.08041e-05
0.00640592
0.134217
-1.10181e-05
0.00636457
0.134223
0.0065663
0.134108
-0.00021497
-0.305146
0.31215
1.84484e-05
-0.306066
0.312363
0.000133123
-0.305626
0.312256
4.68658e-05
-0.305572
0.312294
-6.57101e-05
-0.305652
0.312359
-0.305406
0.312136
-0.00111392
-0.541187
0.237385
5.1842e-05
-0.544342
0.23734
0.00083101
-0.543413
0.237237
0.000224424
-0.542321
0.237585
-0.00102841
-0.541633
0.237463
-0.543489
0.237284
-0.001435
-0.640788
0.0985894
-3.76264e-05
-0.645661
0.0974865
0.000918138
-0.644637
0.0977492
0.000316602
-0.642231
0.0981779
-0.00149083
-0.640739
0.0987664
-0.645322
0.0976031
0.00251168
-0.639393
0.0242264
-0.000302895
-0.644203
0.0279543
-0.00268098
-0.643345
0.0276682
-0.000588569
-0.640496
0.0244576
0.00500649
-0.638372
0.0215959
-0.644674
0.0299611
0.0038965
-0.552487
-0.0365649
-0.000472225
-0.55203
-0.0348573
-0.00358495
-0.552194
-0.0350513
-0.000716313
-0.552542
-0.0364463
0.00700754
-0.553429
-0.0374276
-0.550984
-0.034249
0.00121204
-0.419102
-0.0735381
-0.000296883
-0.416475
-0.0727773
-0.00135912
-0.416944
-0.0730303
-0.000480194
-0.418859
-0.0734148
0.00126646
-0.421458
-0.0730175
-0.414357
-0.0732865
-0.00286358
-0.283924
-0.077435
0.000351614
-0.285042
-0.078296
0.00283339
-0.285433
-0.078067
-0.00033121
-0.283228
-0.0775316
-0.00852834
-0.283104
-0.0762818
-0.285803
-0.0798346
-0.00330212
-0.15626
-0.0700782
0.000750833
-0.159742
-0.0746387
0.00434593
-0.159814
-0.0738136
0.00137099
-0.156078
-0.0698293
-0.00672155
-0.154233
-0.0675401
-0.161946
-0.0776875
0.00381827
-0.106283
-0.000828535
-0.100518
-0.00456402
-0.101137
-0.000566742
-0.106209
0.00981468
-0.111884
-0.0987352
-0.000152998
0.133991
-0.193164
1.54349e-05
0.13373
-0.193232
1.81479e-05
0.13387
-0.19319
1.08957e-05
0.133845
-0.193194
0.000101257
0.133766
-0.193221
0.133909
-0.193133
-0.000103055
0.24016
-0.138454
-1.32219e-05
0.239582
-0.138523
8.45948e-07
0.239852
-0.138501
-3.11673e-05
0.239853
-0.138404
7.45429e-05
0.239689
-0.138508
0.239972
-0.138462
-0.000141994
0.216699
0.0399126
-2.87719e-05
0.216318
0.0397946
-2.13329e-05
0.216493
0.0398349
-3.15148e-06
0.216481
0.0398696
0.000164261
0.216349
0.039804
0.216638
0.0398661
-0.000320189
0.159602
0.0743393
-1.40874e-05
0.159362
0.0741435
-6.53466e-08
0.159593
0.074189
1.40106e-05
0.159341
0.0742984
0.00021085
0.158962
0.0743604
0.159911
0.0741393
-1.50879e-05
0.136436
0.00281993
-0.000174627
0.137969
0.00261973
-2.69026e-05
0.137351
0.00268595
1.81869e-06
0.137065
0.00272704
-0.000189095
0.136359
0.00280244
0.137328
0.00272372
0.00454079
0.131486
-0.0258476
5.73673e-05
0.134735
-0.0237927
-0.00432895
0.133884
-0.0234238
-0.00117594
0.13252
-0.0256551
0.00608827
0.130836
-0.026258
0.134312
-0.0231338
0.00106235
0.125924
-0.00301877
7.8305e-05
0.129234
-0.00249499
-0.00117403
0.12862
-0.00246517
-0.000821057
0.126233
-0.00278573
0.00158088
0.123265
-0.00390695
0.130006
-0.00174549
-0.000229046
0.118977
-0.0020478
-0.000265769
0.121926
-0.00242297
-0.000343978
0.121604
-0.00230972
-0.000351672
0.119147
-0.00202331
-7.66518e-05
0.115785
-0.00173767
0.123648
-0.00228779
-0.00109327
0.0835164
-0.00847172
-7.82703e-05
0.0844636
-0.00862459
0.000259077
0.084889
-0.00860905
-0.000249451
0.0832092
-0.0084692
-0.00180434
0.0807509
-0.00833449
0.0865367
-0.00851302
-0.00256181
0.0422706
-0.00439306
0.000265134
0.0396686
-0.0035821
0.00204863
0.0404487
-0.00381186
-0.000232168
0.0420664
-0.00430358
-0.00620338
0.0425578
-0.0048364
0.0394661
-0.00305098
-0.00346259
0.0522801
-0.0145254
0.00107805
0.0440598
-0.0180741
0.00463685
0.0450238
-0.0172578
0.00150489
0.0523459
-0.0149141
-0.00749987
0.0570944
-0.0127535
0.0408786
-0.0187243
0.00176491
-0.00182761
0.000845987
-0.000752132
-0.000162512
-0.000907779
0.00143652
-0.00183716
0.00441162
-0.0025646
-0.000719961
0.000211745
0.465522
-0.65452
-1.953e-05
0.46538
-0.654003
-6.24389e-05
0.465415
-0.654181
-1.58118e-05
0.465453
-0.654308
-9.24769e-05
0.465455
-0.654214
0.465415
-0.654253
0.000110671
0.420089
-0.300523
-2.0933e-05
0.420052
-0.300682
-0.000114272
0.419955
-0.300351
-9.86227e-05
0.420167
-0.300766
5.0574e-07
0.420369
-0.301288
0.419692
-0.299854
-4.76586e-05
0.193548
-0.0392567
-6.57035e-05
0.193697
-0.0393681
0.000422752
0.193554
-0.0393681
-3.60758e-05
0.19368
-0.0392857
-0.00110409
0.193953
-0.0392761
0.193287
-0.0393307
-0.000241521
0.116147
-0.00279335
-1.574e-05
0.116649
-0.00299801
0.000164934
0.116217
-0.00297816
-5.73621e-05
0.116546
-0.00290883
-0.000428097
0.117073
-0.00283022
0.115682
-0.00298672
2.30407e-05
0.0381511
-6.67042e-05
-0.00012332
0.0427231
-0.000689645
0.000289787
0.0414998
-0.000634263
0.000363191
0.0395724
-0.00115441
-0.000952976
0.0389297
-0.00135514
0.0421655
-0.000561584
0.000668219
0.00195475
-0.000683627
-6.61334e-05
0.00390372
-0.00220154
-0.00067097
0.00348462
-0.00209248
3.01343e-06
0.00216971
-0.000745096
0.00117902
0.00135566
-0.000656818
0.00503519
-0.00142159
2.70841e-05
-0.00307088
-0.0016501
1.613e-06
-0.000441919
-0.0017663
-4.19821e-05
-0.00079161
-0.00179257
2.69795e-05
-0.0032144
-0.0017156
0.000179831
-0.00573037
-0.00160078
0.000315912
-0.0014734
-0.00125419
-0.0077877
-0.00106715
-4.8743e-05
-0.00722834
-0.000703708
0.00076952
-0.00704519
-0.000689225
-0.000569545
-0.00804635
-0.00101576
-0.00230552
-0.00996376
-0.00135089
-0.0050988
-0.000442202
-0.00042688
-0.0210407
6.17151e-05
6.5407e-05
-0.0213894
0.000203393
0.000395202
-0.0209566
0.000213841
-0.000349779
-0.0215254
8.16076e-05
-0.00200799
-0.0220075
-2.94432e-05
-0.0204642
0.000203047
-0.000118341
-0.0239913
-0.000519118
8.36846e-05
-0.0239255
-0.000374382
0.000151188
-0.023588
-0.000419751
-6.95143e-07
-0.024382
-0.000518927
-0.00065106
-0.0247484
-0.000601368
-0.0231998
-0.000362375
4.18301e-05
-0.0114483
-0.0286674
0.000264112
-0.0133364
-0.0279217
0.000178045
-0.0127945
-0.027698
0.000396656
-0.0114508
-0.0290209
3.609e-05
-0.0102988
-0.0299889
-0.0128194
-0.0269435
0.000439667
-0.0262974
0.000147383
-0.0307843
-0.000102264
-0.0294859
-1.56986e-05
-0.0256439
0.000228497
-0.0223468
-0.0297722
0.000391306
0.288533
-0.93898
-6.27305e-05
0.289184
-0.938265
0.000179072
0.288674
-0.938625
-9.00134e-05
0.288969
-0.938536
-0.000964257
0.289538
-0.938405
0.288079
-0.938821
0.000263257
0.0422512
-0.173396
1.06156e-05
0.0423933
-0.174825
3.65474e-05
0.0424361
-0.174045
-0.000129377
0.0422731
-0.174175
-0.000445226
0.0421533
-0.174404
0.0424209
-0.172787
4.38088e-05
0.00295364
-2.90634e-05
-6.01631e-06
0.00306054
-6.00222e-06
6.23232e-06
0.00304061
-5.01466e-06
-2.11427e-05
0.0030139
-2.20975e-05
-3.20396e-05
0.00289311
-3.53614e-05
0.0030406
-5.93014e-06
1.84273e-05
-2.29519e-05
-1.48262e-05
9.14991e-07
1.75101e-05
4.18742e-07
-1.58287e-05
1.99298e-05
2.48583e-06
-1.40935e-05
-1.80596e-06
-1.62362e-05
1.91448e-05
-8.78861e-05
-9.5943e-06
2.55263e-05
-3.08911e-06
4.1593e-05
-0.000970182
-0.000832848
1.75804e-06
-0.00050364
-0.000181873
-1.91933e-05
-0.00051868
-0.000147384
1.00595e-05
-0.000688881
-0.000696759
0.00010525
-0.00206288
-0.000996738
-0.000314034
-0.000193129
-5.26234e-05
-0.00852434
0.00206142
-9.56555e-07
-0.00330609
0.000524415
7.95032e-05
-0.00348583
0.000665424
0.000275509
-0.00872878
0.00215049
1.09378e-05
-0.00921462
0.00168196
-0.00223378
0.0004451
-0.000519121
-0.00759248
0.00246986
-6.95797e-05
-0.00687412
0.00127486
0.000356038
-0.00697118
0.00123673
-7.76442e-05
-0.00792627
0.00253422
-0.000850096
-0.00761482
0.00217368
-0.00543191
0.00149937
-0.000178925
-0.000478305
0.000201798
-4.81388e-05
-0.000604898
0.000205856
0.000118258
-0.000620947
0.000128328
-8.58138e-05
-0.00051094
0.000187311
-0.000583204
-0.000414019
0.000172041
-0.000579301
0.000310751
-1.41344e-07
-0.000429751
4.15063e-06
-3.59125e-06
-0.000410578
3.41912e-06
-5.00357e-06
-0.000417718
2.76508e-06
-6.14798e-06
-0.000441809
4.22411e-06
-1.30758e-05
-0.000450258
4.60016e-06
-0.000403101
3.78229e-06
2.97102e-06
-0.000940986
-3.28304e-06
-5.31872e-06
-0.00076738
-3.101e-06
-1.11438e-05
-0.000821812
-3.17578e-06
-6.03634e-06
-0.000954786
-3.287e-06
9.55093e-06
-0.00105676
-3.18425e-06
-0.000746888
-3.09229e-06
0.000140456
-0.0176374
-0.0036164
-1.6856e-05
-0.0183945
-0.00331205
-0.000138375
-0.018139
-0.00338013
-7.18122e-05
-0.0177354
-0.00366677
0.000155196
-0.0181876
-0.00397762
-0.0182018
-0.00326606
0.000796669
-0.0374043
-9.54236e-06
-0.0363227
-0.000557271
-0.0369175
-0.000275848
-0.0374229
0.000756357
-0.0369112
-0.0365411
-0.0282461
-0.00646585
0.0336469
-0.0200548
-0.0526913
0.0448294
-0.0192786
-0.0388538
0.0377528
-0.0126927
-0.0439564
0.0345008
0.0443341
-0.0988552
0.0400282
0.00270634
0.0396893
0.0126297
-0.0769177
0.0560016
-0.025893
-0.0879603
0.0729301
0.00166316
-0.117233
0.051151
-0.0218664
-0.0972398
0.0755678
-0.0265618
-0.170698
0.0758698
-0.0706727
0.0447674
-0.00387682
-0.120742
0.0589835
-0.0160965
-0.151774
0.0377439
-0.00284572
-0.189537
0.0359902
-0.0230489
-0.151566
0.0506142
-0.0585762
-0.191269
0.0557744
-0.17747
0.0476662
-0.00810441
-0.14105
0.0234187
-0.00477335
-0.194178
0.0145372
0.00597425
-0.209097
0.0105625
0.00965551
-0.200029
0.0165102
-0.0239799
-0.192616
0.024707
-0.222535
0.0208776
0.00414008
-0.168218
0.00191911
0.00727055
-0.191983
-8.12763e-06
0.00755337
-0.207515
-9.45986e-05
0.0186113
-0.205254
-0.00223604
0.00744217
-0.173333
0.00526212
-0.140282
0.00266917
0.0104523
-0.162216
-9.50907e-06
0.00933701
-0.163185
-1.30999e-06
0.0176552
-0.148344
-3.6653e-05
0.00870567
-0.0827587
-0.000597451
0.00985431
-0.151906
-0.00182195
-0.0518458
0.00765446
0.0139045
-0.159813
-5.29315e-07
0.00756898
-0.165547
-3.66193e-05
0.00306971
-0.100092
-0.000439115
0.00516259
-0.0339791
0.00337315
0.00442491
-0.115437
0.00184397
-0.0944206
0.00612513
0.00440109
-0.147965
-1.85045e-07
0.0108029
-0.156727
-5.48262e-05
0.00505103
-0.0846811
0.00185098
0.00687957
-0.0691351
0.000981998
0.00638255
-0.0944156
-0.000110262
-0.190206
-0.0025767
-0.004959
-0.126701
-1.13519e-08
-0.00442099
-0.140631
-3.56956e-06
-0.0128797
-0.161754
-0.000324943
0.00138372
-0.0948179
-0.000378724
0.010725
-0.0789797
-2.99212e-05
-0.148614
-0.00143666
0.00261765
-0.100331
-0.00205578
-0.0179688
-0.0934338
-0.00117708
-0.0351528
-0.130863
-0.000309511
-0.0162346
-0.0989389
-0.00103938
0.0151328
-0.0754495
-0.00383415
-0.102704
-0.00084605
0.0116221
-0.0296634
-0.0339712
-0.00702464
-0.0518105
-0.0117522
-0.0476863
-0.0741056
-0.00254178
-0.0404687
-0.0498835
-0.0381794
0.00855981
-0.0312036
-0.0680754
-0.0393961
-0.0258555
0.00197359
-0.036318
-0.00389145
-0.037301
-0.0469628
-0.0157732
-0.0327693
-0.041444
0.00803963
-0.0493795
-0.0395187
-0.0361286
0.00500313
0.0629134
-0.00297571
-0.105681
0.103851
-0.0202465
-0.0269923
0.0824512
-0.00964498
-0.0838352
0.105548
0.0438568
-0.120152
0.10208
0.0238151
0.0603752
0.0396928
-0.0709631
0.0789891
0.0013975
-0.0614424
0.035341
-0.0065724
-0.047695
0.0598578
-0.0190762
-0.0709542
0.0496398
-0.0458556
-0.0829063
0.0317755
-0.0321477
0.0529372
0.00780608
-0.0294297
0.000216779
5.48129e-05
-0.0184231
0.000414904
-0.00284499
-0.0163595
0.000300097
-0.00546542
-0.0194379
0.00166268
-0.0147369
-0.0284598
-0.00169259
-0.020935
0.00202747
0.00147135
-0.00553453
7.2119e-05
-0.000514988
6.77439e-06
-0.000201657
-0.00209105
3.78182e-05
-0.000141527
-0.00363447
-3.18401e-05
-6.42009e-05
-0.00150925
-0.00408879
-0.000241431
-0.00153106
-0.000663861
-5.63958e-08
9.41813e-06
-6.71125e-05
-1.2868e-06
4.27354e-08
-2.93189e-07
-5.83075e-05
1.59398e-06
-9.5975e-07
-0.00235089
2.59506e-05
-1.27351e-06
-0.00117519
-0.000217346
-6.61874e-06
-0.00354342
-0.000113241
-3.17541e-08
1.37152e-08
-8.48994e-08
-1.36961e-06
8.40717e-08
-1.88176e-08
-3.8099e-05
1.72432e-06
-5.56737e-08
-0.000635363
2.57715e-05
-8.5818e-09
-0.00508773
-0.00102585
-1.1614e-07
-0.0119642
-1.83119e-06
-5.57036e-07
5.26435e-08
-1.80935e-08
-4.00731e-05
3.08935e-06
-1.348e-07
-0.000563215
8.57654e-05
-2.19359e-08
-0.000626467
0.000588543
-2.19447e-06
-0.00377213
0.000107629
-1.52375e-05
-0.0107999
1.97044e-05
-1.53919e-07
1.97682e-08
-4.1403e-12
-5.54861e-05
3.81177e-06
-2.31877e-07
-2.19739e-05
0.000340552
1.34081e-06
8.86816e-07
0.000383575
-1.7183e-07
1.17978e-07
-2.04795e-07
-6.1188e-08
-0.000365696
-2.42263e-06
2.0186e-09
2.94046e-09
1.57898e-09
1.33149e-07
9.47366e-08
5.15652e-09
1.14462e-05
4.85326e-06
-9.22345e-07
1.04267e-05
5.91659e-06
-1.23569e-07
7.10527e-07
-2.03502e-05
-7.68585e-08
-6.41039e-06
-6.61619e-08
4.95571e-05
-0.00210533
5.19785e-08
5.73886e-05
-0.00119338
8.21254e-06
-4.1084e-06
-0.000248023
3.81127e-06
-2.53658e-05
-0.00101677
5.64868e-06
8.30479e-05
-0.00390877
-5.21546e-05
-0.000770112
-5.41232e-08
0.00127887
-0.0312399
-0.000534866
-0.000105859
-0.00803208
0.000106576
-0.00213216
-0.000937784
-0.000555847
-0.00124261
-0.0235713
-0.00179798
0.000309846
-0.0410096
-0.00319899
-0.0195572
-7.40955e-05
0.00715464
-0.0316444
-0.000345727
-0.00675581
-0.010183
-0.00740826
-0.0191206
-0.0274855
-0.00618726
-0.019503
-0.0134228
-0.0246414
0.0530144
0.0335002
0.00200133
0.00553604
0.0706339
-0.00288339
0.00923911
0.0604136
-0.00125363
-0.0147246
0.0692867
0.0154249
-0.0177863
0.0799573
0.0468474
0.0252899
0.00687361
0.020327
0.0503302
0.000415293
-0.00019664
0.0284824
0.0089335
0.00020144
0.027652
0.00120136
-0.00137173
0.0107379
-0.0195328
0.000157365
0.0161515
0.0332583
-0.00209225
0.000721977
-1.81061e-05
0.00171445
1.87097e-07
0.000168513
0.00076557
-0.000240368
0.000133769
0.000597402
-0.000212807
5.98161e-05
0.000203244
-0.00202427
0.000196449
6.19952e-05
0.00080267
0.000658388
1.7553e-05
6.48751e-05
-2.98205e-05
1.93456e-07
1.09642e-07
-1.60444e-05
-2.97423e-07
9.17914e-07
-8.43521e-06
-1.95079e-06
1.195e-06
-3.96005e-06
-4.75949e-05
6.11426e-06
-5.84745e-06
0.000114535
-2.94085e-05
-2.67269e-08
7.69249e-08
-2.3201e-06
-1.57078e-08
1.0326e-08
-2.10611e-07
-3.92467e-09
5.13052e-08
-1.11415e-07
-3.8744e-08
9.48929e-09
-5.4243e-08
-5.37401e-07
7.42811e-08
-8.67909e-08
1.85184e-06
-1.18874e-06
-9.82322e-11
-3.46672e-09
-9.78523e-09
-6.12195e-10
5.41068e-09
-1.50067e-08
-1.54596e-09
1.24751e-09
-1.49132e-09
-2.31826e-09
8.19245e-10
-4.88924e-09
-2.01222e-08
7.36163e-10
-2.81346e-08
5.70352e-09
-1.29194e-08
-9.76848e-09
3.13891e-09
-4.28137e-09
-3.38124e-09
3.48251e-08
-2.84014e-11
-3.31236e-08
4.81415e-09
-7.55056e-10
-2.23615e-06
2.51291e-08
-2.00078e-08
-1.70265e-05
2.57739e-08
-1.43358e-07
2.42122e-06
2.60222e-07
-1.19201e-08
3.71393e-09
2.31642e-09
-9.92085e-07
3.12137e-08
5.38679e-08
-4.75697e-09
6.57644e-07
-2.85061e-07
-4.85587e-09
2.91601e-09
-4.83552e-11
-2.43469e-10
-7.26552e-11
-3.23677e-09
-2.69706e-09
-9.62527e-10
3.76584e-10
9.91463e-10
2.5646e-09
1.46937e-08
-7.16052e-08
1.22457e-07
1.70452e-07
-6.06836e-09
-1.78401e-07
5.15145e-08
2.74906e-12
-2.27873e-08
2.45496e-09
2.28195e-08
-5.97977e-08
-5.22417e-08
-1.61047e-08
2.31304e-07
-1.3933e-07
-4.14821e-08
6.94e-09
6.61795e-06
1.85861e-06
8.87115e-08
1.70951e-06
9.55623e-07
1.24792e-07
1.14278e-05
-5.89506e-06
9.24743e-07
-2.27778e-05
-3.01884e-05
3.83644e-07
-2.19909e-07
-3.22572e-05
-0.000502404
-9.95112e-08
-3.89904e-05
4.18779e-05
7.62209e-05
-3.90873e-05
-0.000714234
6.04065e-05
0.000111423
-0.000170904
-0.00412283
9.08473e-05
-0.000185801
-0.00564027
1.82583e-05
-1.89788e-06
-0.000206468
-0.011345
0.00112825
-0.0198107
0.00345695
-0.0369236
0.000737559
-0.0323841
-0.000263934
-0.0197312
-0.0136785
-0.0142581
0.0558817
-0.0085734
-0.00680355
0.0423719
0.0203473
-0.0054917
0.0355105
0.0230406
-0.00096982
0.013456
0.0399966
0.0032073
0.00978956
0.0407898
0.0468527
-0.020382
-0.00396511
0.00721038
0.0133882
0.000593857
-1.77204e-06
0.0389766
0.0044795
-0.000122615
0.0172989
0.00219364
-7.10702e-05
0.0114128
-0.00180872
-1.41734e-05
0.0127026
-0.000578043
-0.0144348
-0.000127228
4.36866e-05
0.00128351
-3.66371e-05
5.28018e-06
0.000650638
5.33365e-06
7.16195e-06
0.000415714
5.19816e-05
3.2251e-06
7.8705e-05
6.35881e-05
4.02168e-06
2.9854e-05
3.0883e-05
2.56498e-05
1.12359e-05
2.32369e-06
-2.1606e-06
2.15491e-06
1.62734e-07
-2.22091e-06
9.68793e-07
9.30235e-08
-4.19303e-07
2.2133e-07
5.40715e-08
-5.49784e-08
-1.63629e-06
3.73632e-08
-3.91641e-09
1.20135e-06
-9.8931e-07
6.4391e-08
-5.20097e-09
-5.05297e-08
1.3168e-08
-2.77428e-09
-1.51634e-08
-3.15969e-09
-2.83146e-09
-1.8502e-09
-2.39981e-09
-9.32895e-10
8.75775e-11
-4.26016e-08
-9.06628e-09
-4.18247e-11
-2.66284e-08
-3.28279e-09
6.78282e-10
-1.14425e-08
-1.16536e-09
-3.01604e-10
-1.89315e-08
-3.85829e-11
-1.53821e-10
-2.17178e-12
-6.17998e-12
3.65687e-09
-3.60827e-09
-4.96405e-11
-1.61869e-08
-5.99837e-08
-9.50262e-10
-1.25021e-07
2.665e-08
-4.32663e-09
-3.86723e-09
2.23559e-09
-1.37468e-09
8.66123e-09
1.73027e-08
-7.68172e-11
-1.20626e-09
1.36454e-09
-3.53621e-08
1.91599e-09
2.22849e-09
-1.22051e-07
2.21302e-09
-4.60961e-10
6.28732e-09
4.46137e-10
-6.72508e-09
-1.26612e-09
2.25168e-09
-9.18821e-10
-6.53911e-08
2.63303e-08
5.83717e-08
-3.84443e-07
3.3425e-08
5.67026e-09
8.94683e-09
8.67229e-09
2.38949e-10
2.53759e-09
-2.68613e-10
3.63991e-09
-1.14028e-10
4.26862e-09
-1.63392e-08
9.5961e-09
5.3237e-07
-4.44221e-06
8.297e-07
1.72954e-06
-1.20382e-05
3.85977e-07
7.55581e-07
6.96318e-07
4.30116e-08
1.82824e-08
6.50131e-07
1.67539e-10
-1.69678e-07
-3.8468e-08
1.3065e-07
1.08641e-07
2.22537e-11
-2.27167e-08
1.89292e-06
-2.13329e-06
-1.03659e-05
4.33654e-06
-5.91009e-06
2.78758e-05
-2.15439e-05
-2.12212e-05
1.12338e-05
-8.34001e-06
-5.77432e-06
2.76355e-06
-6.68486e-06
-1.07349e-06
2.73141e-06
-7.57188e-07
7.06536e-07
8.16757e-05
-5.08712e-06
6.32693e-06
5.57632e-05
-3.68048e-06
0.00163259
-0.00927327
-0.000705038
-3.16232e-06
-0.00772795
-0.000628254
0.000385091
-0.00039328
0.000776453
-0.0315686
0.00574797
-0.0401349
0.0167561
-0.0378893
0.00190287
-0.0365616
-0.011436
-0.0246834
-0.0327317
-0.00372704
-0.348587
0.0924422
0.00136838
-0.344959
0.093722
0.00258327
-0.34647
0.0933587
0.000843599
-0.347104
0.0927803
0.0013616
-0.346385
0.0923463
-0.347845
0.0927913
-0.000642658
-0.00616272
-0.00214426
0.000133533
-0.0056107
-0.00224249
0.000149477
-0.00587835
-0.00198222
0.000225249
-0.00603364
-0.00235774
0.00101342
-0.00578489
-0.00292824
-0.00634364
-0.00170897
-9.07151e-05
-0.00117886
9.24213e-06
-0.00112156
-6.09323e-06
-0.00112794
1.3283e-05
-0.00114471
0.000134908
-0.00113255
-0.00112198
0.000167469
-0.0296509
-8.24199e-05
4.1995e-05
-0.0296858
-4.57981e-06
-7.73046e-05
-0.0297553
-1.19121e-06
-0.000263837
-0.0295581
-5.60558e-05
-0.000270002
-0.0292097
-0.000132373
-0.0296737
-1.39793e-06
4.54827e-05
-0.00184996
-0.00183913
2.39718e-05
-0.00170809
-0.000372285
-0.000266107
-0.00168859
-0.000244501
-0.000328296
-0.00185448
-0.00129121
0.0002862
-0.00198776
-0.00245306
-0.00153956
-0.00026817
-3.43423e-05
-0.000273509
-5.55548e-06
-0.00019878
-7.3806e-06
-0.000213292
-1.34721e-05
-0.000253341
4.15364e-05
-0.000310651
-0.000221203
2.78171e-07
3.85811e-06
-0.000136327
7.42503e-08
3.00035e-06
-3.38112e-05
-7.80994e-08
2.57125e-06
-2.90197e-05
-9.16265e-09
3.76426e-06
-0.000102396
4.59618e-07
5.96796e-06
-0.000196241
2.55344e-06
-3.31291e-05
7.18593e-06
6.10202e-05
-0.00192981
2.33055e-07
2.21561e-05
-0.000405196
-3.06659e-06
1.74991e-05
-0.000276526
-2.67251e-06
4.96094e-05
-0.00136061
3.43024e-06
8.81527e-05
-0.00257205
1.812e-05
-0.000304014
6.1261e-06
-0.000529016
-1.46107e-09
-0.000310321
-6.89777e-07
-0.000354939
-3.8819e-06
-0.000538521
-6.34411e-06
-0.000635465
-0.000355173
9.43848e-06
0.000338904
-0.000770848
5.08723e-07
6.52966e-05
-0.000110469
-3.00203e-06
5.06192e-05
-9.40392e-05
-2.23093e-06
0.000241724
-0.000407156
2.25706e-05
0.00051226
-0.000914706
5.44312e-05
-9.17909e-05
6.66201e-06
0.00183074
-0.006085
8.5855e-07
0.000908592
-0.00163804
6.42514e-06
0.000717824
-0.000962972
5.607e-05
0.00196424
-0.0053368
4.37682e-05
0.00245952
-0.00582166
0.000753842
-0.000887902
1.22102e-05
-0.00149293
2.27265e-05
-0.0028038
5.97635e-05
-0.00326155
5.29516e-05
-0.00252188
-7.74842e-05
-0.0022609
-0.00328426
9.84164e-05
0.0025091
-0.00526469
4.36406e-06
0.00157147
-0.00333622
-1.90418e-05
0.00134337
-0.00300621
2.13056e-05
0.00235702
-0.00465828
0.00023385
0.00269539
-0.00309463
0.0016393
-0.00281424
-6.9949e-05
0.00321707
-0.00512264
-1.42856e-05
0.00416481
-0.00424551
7.495e-05
0.00367534
-0.00350548
7.82495e-05
0.00307284
-0.00493554
1.95959e-05
0.00223743
-0.00418469
0.00367787
-0.00323874
-0.000210222
-4.06964e-11
-1.35654e-05
-6.2058e-08
0.000191371
-0.000256274
0.00013372
-3.71451e-08
-0.000192655
-3.36024e-11
-0.00112051
-0.000123839
0.00141556
-0.00525138
1.927e-05
0.0014861
-0.00586378
0.000181667
0.00173061
-0.00587346
6.5171e-05
0.00109292
-0.00590065
-0.000131899
0.000474437
-0.0066412
0.00240113
-0.00522715
-0.000102428
-9.78562e-12
-5.70495e-10
-2.09244e-05
-1.04322e-08
-4.65988e-10
6.4472e-05
-4.69105e-05
-4.68014e-10
2.4736e-06
-8.59384e-09
-5.80068e-10
-0.000127468
-9.20503e-12
-5.87965e-10
-0.00015719
-5.32385e-10
-3.97004e-11
-1.07817e-11
-7.23099e-08
-2.19874e-10
4.55979e-08
-4.67312e-10
3.23823e-11
-1.73349e-10
2.19992e-14
-1.04472e-11
-4.70808e-10
-0.00014986
-2.52125e-10
-0.000208027
-3.07197e-06
-2.09935e-10
-0.000211465
0.00013861
-2.10013e-10
-0.000133383
-1.93972e-05
-2.97929e-10
-0.000193779
-0.000307447
-3.85923e-10
-0.000179123
-9.35253e-11
-0.000316388
-7.42156e-13
-3.63752e-11
-7.85214e-10
-8.31677e-14
-2.6581e-11
-6.49449e-10
3.16051e-14
-1.56317e-11
-6.61872e-10
-9.8699e-13
-3.09739e-11
-8.45728e-10
-2.23981e-12
-4.09022e-11
-9.31644e-10
-1.49552e-11
-6.1237e-10
4.07479e-13
-4.75645e-11
2.3917e-14
-2.46072e-10
-5.48292e-13
-4.82371e-10
-8.8698e-14
-2.04783e-10
8.24215e-13
-5.22622e-11
-4.84939e-10
2.3972e-07
-3.73079e-08
-6.43455e-06
2.98954e-08
-3.12635e-08
-5.37048e-06
-2.93247e-07
-3.16986e-08
-4.70223e-06
-1.90961e-07
-4.04982e-08
-6.53366e-06
-1.74325e-07
-4.4717e-08
-7.05709e-06
-2.93682e-08
-5.78486e-06
2.34228e-11
-1.1784e-09
-3.69799e-08
3.32205e-12
-1.18437e-09
-3.07473e-08
-3.25538e-11
-1.17276e-09
-3.11899e-08
-3.94239e-12
-1.27623e-09
-4.01406e-08
3.17078e-11
-1.35369e-09
-4.43728e-08
-1.15949e-09
-2.88254e-08
8.87276e-12
-1.2349e-09
1.03735e-12
-1.42257e-09
-6.11103e-12
-1.64796e-09
2.06894e-12
-1.48863e-09
1.28285e-11
-1.41669e-09
-1.63156e-09
-4.74296e-08
2.4066e-08
-2.44903e-06
-6.44475e-08
1.70008e-08
-2.12565e-06
-4.09703e-08
1.75741e-08
-2.15292e-06
-5.00628e-09
2.74749e-08
-2.57259e-06
5.36621e-08
3.17439e-08
-2.73516e-06
9.92661e-09
-2.1338e-06
-3.08264e-10
-1.70711e-08
1.74303e-09
-2.48162e-10
-1.78859e-08
1.49173e-09
-1.95468e-10
-1.77322e-08
1.46494e-09
-2.32565e-10
-1.71583e-08
1.71364e-09
-1.83063e-10
-1.70926e-08
1.79826e-09
-1.6822e-08
1.4829e-09
3.27199e-10
-4.23573e-08
-2.25897e-10
-4.29946e-08
-7.68087e-10
-4.29034e-08
-3.12384e-10
-4.26359e-08
4.57604e-10
-4.20585e-08
-4.36499e-08
-1.38225e-08
-5.13283e-07
-4.99865e-06
-4.57356e-08
-4.82323e-07
-4.52271e-06
-1.81133e-08
-5.13072e-07
-4.64109e-06
-3.46397e-08
-5.33402e-07
-5.09425e-06
-2.92322e-08
-5.24795e-07
-5.20034e-06
-5.28626e-07
-4.51404e-06
-8.11237e-10
-1.79324e-07
4.82174e-08
1.19677e-10
-1.79841e-07
5.67438e-08
7.50965e-10
-1.79115e-07
5.40906e-08
2.91614e-11
-1.78794e-07
4.6844e-08
-1.84783e-09
-1.79958e-07
4.4037e-08
-1.76203e-07
5.7477e-08
3.11279e-10
5.27823e-08
-7.40229e-10
5.28853e-08
-9.57404e-10
5.28814e-08
-3.07864e-10
5.26628e-08
-5.3672e-10
5.23302e-08
5.33027e-08
-1.43222e-06
-7.26191e-08
-0.00361989
-9.58985e-07
-8.10267e-08
-0.00331691
1.07428e-06
-7.83277e-08
-0.00338669
-1.87422e-06
-7.11329e-08
-0.00366881
-5.34369e-06
-6.82928e-08
-0.00397924
-8.17109e-08
-0.00327581
-1.31255e-11
-2.50426e-08
6.63793e-10
-1.96945e-12
-2.5021e-08
7.3887e-10
7.3315e-12
-2.49481e-08
7.16016e-10
1.50176e-13
-2.49167e-08
6.51579e-10
-1.67123e-11
-2.48701e-08
6.31392e-10
-2.49839e-08
7.47824e-10
5.74562e-12
2.53427e-10
-2.68087e-11
2.51424e-10
-3.47099e-11
2.53273e-10
-2.22123e-11
2.54354e-10
-1.05308e-11
2.54572e-10
2.54993e-10
0.000215398
-9.19069e-10
-0.0277032
-3.42189e-05
-9.87798e-10
-0.0278792
-0.000181494
-9.67925e-10
-0.0279115
-7.07816e-05
-9.06579e-10
-0.0279121
0.000278341
-8.88423e-10
-0.0278473
-1.00057e-09
-0.0277135
-2.83408e-13
-2.55045e-10
-4.22587e-16
3.44773e-14
-2.49267e-10
-4.85018e-16
1.94064e-13
-2.52083e-10
-4.81244e-16
8.64914e-14
-2.54908e-10
-4.66143e-16
-2.29205e-13
-2.56783e-10
-4.3131e-16
-2.5299e-10
-5.18599e-16
-1.76295e-12
1.45167e-13
2.29615e-13
1.65355e-13
1.25597e-12
1.63609e-13
5.39088e-13
1.63743e-13
-1.82757e-12
1.55083e-13
1.7539e-13
-0.000401445
-2.50511e-12
-0.0190108
0.0285156
-0.000164498
-1.2378e-12
-0.0186719
0.027625
0.000518038
-3.53869e-13
-0.018323
0.0262588
0.000905107
-1.62388e-12
-0.0183346
0.0271882
-4.451e-06
-4.69986e-12
-0.0185721
0.0284578
-1.90513e-12
-0.0188849
0.0277723
-1.1912e-15
-2.51104e-12
9.10945e-17
7.03468e-15
-1.76827e-16
-1.24081e-12
6.76853e-17
1.92488e-15
-1.98331e-16
-3.54452e-13
4.29552e-17
5.61186e-16
-8.75493e-16
-1.62544e-12
6.57418e-18
2.22383e-15
-5.2451e-16
-4.70169e-12
1.65007e-16
1.31315e-15
-1.90625e-12
2.22064e-17
5.67728e-16
2.12275e-14
4.21134e-27
-2.92756e-14
1.45062e-14
3.69646e-27
-1.57609e-15
1.45883e-14
5.4527e-27
-2.4433e-16
8.6147e-14
3.7236e-27
-6.51062e-16
3.178e-14
5.2643e-27
-2.00477e-12
2.73252e-27
-7.95709e-16
-6.93275e-06
1.40686e-16
-0.00950342
-0.000462584
1.08051e-16
-0.0092866
-0.00097086
7.28662e-17
-0.00905607
-0.000706861
1.3062e-17
-0.00898044
0.000461205
4.38171e-16
-0.008912
4.56555e-17
-0.00909359
-1.73513e-19
6.7081e-27
2.28052e-16
8.19693e-19
5.50128e-27
1.66432e-16
5.84043e-19
8.14203e-27
2.43735e-16
2.82224e-17
5.96852e-27
3.62372e-17
1.38169e-18
9.55387e-27
1.53884e-15
4.18138e-27
1.01398e-16
-1.08334e-28
3.60978e-27
-9.52035e-29
3.46376e-27
-8.03253e-29
3.76715e-27
5.45157e-29
3.49652e-27
4.48056e-29
6.40213e-27
2.2911e-27
-0.00026785
2.25959e-16
-5.58844e-05
-0.000263782
1.93876e-16
-8.21499e-05
-3.16029e-05
3.09842e-16
-6.3597e-05
2.73287e-05
4.42288e-17
0.00018121
-2.16318e-05
1.95255e-15
0.000356731
1.25149e-16
8.05173e-05
2.25635e-17
5.16799e-27
1.44546e-17
3.98477e-17
4.94885e-27
1.0736e-17
3.72766e-18
5.30904e-27
1.78356e-17
7.74922e-17
4.67859e-27
9.94871e-19
-8.96272e-18
8.4974e-27
4.75086e-17
3.08548e-27
2.33398e-18
-7.34037e-29
8.75404e-29
-8.05863e-29
1.35956e-28
-8.78258e-29
1.73524e-28
-5.5077e-29
1.81102e-28
-3.01348e-29
1.82716e-28
1.20625e-28
-0.000133316
1.73124e-16
0.00933212
-0.000208188
1.43213e-16
0.00936231
-0.000239031
2.49506e-16
0.00940849
-0.000119502
1.83032e-17
0.00947601
2.1169e-05
1.5434e-15
0.00951639
8.34475e-17
0.00942025
1.37841e-18
5.36895e-27
-1.42124e-16
4.68681e-18
6.29625e-27
-1.17115e-16
6.26602e-19
6.90148e-27
-2.03771e-16
4.86917e-17
6.54552e-27
-1.49846e-17
4.74902e-19
7.1629e-27
-1.29122e-15
4.92822e-27
-7.05213e-17
-5.06419e-29
-3.39e-27
-7.58566e-29
-3.93011e-27
-5.6053e-29
-4.29033e-27
-7.54858e-30
-4.08729e-27
8.03204e-30
-4.50832e-27
-3.11109e-27
-0.000125613
2.29847e-16
0.0186594
-0.000215402
1.88641e-16
0.0187811
-0.00023349
3.363e-16
0.0188231
-0.000107545
2.55159e-17
0.0187051
8.04751e-06
2.08253e-15
0.0186487
1.0757e-16
0.0187001
4.3014e-19
5.24704e-27
-1.26391e-16
4.82567e-19
6.19269e-27
-1.02475e-16
2.60361e-20
6.77343e-27
-1.82913e-16
2.72346e-18
6.62705e-27
-1.36407e-17
-1.2325e-18
7.29816e-27
-1.11685e-15
5.12119e-27
-5.84699e-17
-2.53675e-29
-3.60497e-27
-5.1097e-29
-4.19035e-27
-6.29197e-29
-4.57519e-27
-2.65757e-29
-4.44374e-27
1.129e-29
-4.9056e-27
-3.44633e-27
4.4966e-05
-1.44404e-13
8.03204e-06
-1.64414e-13
4.18495e-05
-1.62763e-13
1.30313e-06
-1.63563e-13
-9.60477e-05
-1.54299e-13
-1.74504e-13
4.68901e-18
-1.44957e-13
-1.50084e-18
-1.64995e-13
-6.905e-18
-1.63422e-13
-2.72577e-19
-1.64049e-13
1.09903e-17
-1.55859e-13
-1.7507e-13
2.10414e-16
5.71843e-16
7.59691e-16
4.55039e-16
-3.19929e-16
0.000303326
-0.0313858
0.0220445
-0.0119267
0.0115772
0.020485
-0.0193133
0.0123737
0.017498
-0.00717217
0.0386956
0.00949829
0.00117947
0.0242315
0.00555985
-0.0404358
0.0212797
-0.0798916
0.0771518
-0.00835799
0.0142165
-4.61703e-05
0.0125092
-0.00815484
0.0648559
-0.0171534
-0.0190261
0.0626781
-0.00984689
0.0314776
-0.000116873
0.00168474
0.0589434
-3.10181e-06
-5.63938e-06
-4.19705e-05
1.6836e-06
-5.34933e-05
-0.00416105
-0.00565017
-9.09513e-05
-0.00408911
0.000208499
-0.000416324
-3.83706e-07
-0.00249932
0.00837099
-0.00126325
0.000446128
0.028235
-0.000404663
0.00214998
0.0152354
-0.000406178
0.00148018
0.0127537
-3.88926e-05
-0.000708981
0.00827728
1.71052e-05
-5.32463e-08
-5.43596e-05
5.81697e-05
4.3116e-05
-7.4897e-05
0.00226833
0.0176307
-0.00015781
1.26911e-05
0.000364846
-3.07576e-05
0.000111272
0.00345768
-2.65934e-05
-3.35407e-08
0.00394549
2.86807e-05
-2.84964e-09
-3.20558e-06
2.49059e-06
-1.34516e-06
0.000781816
-2.05192e-06
-6.44529e-06
-6.70792e-08
-0.000536812
-3.58719e-07
-6.33111e-09
-7.18073e-05
-3.92887e-07
-6.73201e-05
7.60151e-05
3.39738e-06
1.08491e-05
0.000161645
1.43372e-06
2.79651e-05