/*--------------------------------*- C++ -*----------------------------------*\
| =========                 |                                                 |
| \\      /  F ield         | OpenFOAM: The Open Source CFD Toolbox           |
|  \\    /   O peration     | Version:  v1612+                                |
|   \\  /    A nd           | Web:      www.OpenFOAM.com                      |
|    \\/     M anipulation  |                                                 |
\*---------------------------------------------------------------------------*/
FoamFile
{
    version     2.0;
    format      ascii;
    class       volScalarField;
    location    "7.2";
    object      p;
}
// * * * * * * * * * * * * * * * * * * * * * * * * * * * * * * * * * * * * * //

dimensions      [1 -1 -2 0 0 0 0];

internalField   nonuniform List<scalar> 
1116
(
19528.3
19528.3
19528.2
19528.3
19528.2
19528.2
18508.2
18508.3
18508.2
18508.3
18508.3
18508
16001
16001.9
16001.5
16001.6
16001.5
16001.1
13110
13110.3
13110.4
13110.1
13110.1
13110.5
10173
10173.2
10172.8
10173.1
10172.5
10173.2
7689.87
7693.74
7691.8
7691.1
7685.71
7693.71
5947.68
5950.94
5951.41
5947.58
5947.16
5948.87
5301.85
5299.71
5302.42
5299.78
5305.31
5299.84
5300.12
5293.69
5296.07
5298.66
5303.25
5290.82
5361.92
5357.73
5356.35
5365.05
5363.36
5357.43
5596.07
5610.29
5605.06
5597.67
5582.25
5616.7
6125.91
6130.88
6132.02
6119.28
6117.69
6128.56
13233
13232.8
13232.8
13233
13232.9
13232.7
10943
10943
10942.7
10943.3
10943.9
10942.2
7398.22
7399.08
7398.59
7398.74
7399.4
7397.74
4311.98
4312.64
4312.89
4312.66
4312.51
4313.08
2166.82
2166.25
2167.79
2165.48
2165.44
2168.95
1015.52
1000.55
1002.61
1015.32
1019.83
1007.15
601.608
599.691
599.644
601.866
603.173
597.007
576.07
573.052
574.611
576.988
578.376
571.47
790.298
790.427
789.301
791.997
790.442
790.444
978.439
980.829
977.559
981.757
976.965
979.799
1252.09
1257.33
1252.78
1252.65
1246.25
1251.55
1591.63
1610.65
1603.87
1579.7
1569.27
1594.49
7759.87
7759.29
7759.36
7759.71
7759.66
7759.23
3494.56
3494.9
3494.06
3495.64
3497.09
3492.56
1186.02
1187.44
1187.95
1186.88
1185.2
1189.2
327.869
330.847
330.985
329.605
327.439
331.707
3.19115
8.14606
9.23724
3.62581
-4.89971
10.606
66.6816
49.2937
51.1824
65.6222
70.8477
40.909
155.816
155.642
155.036
155.314
152.709
149.819
151.908
156.262
156.423
157.164
158.038
169.215
94.0051
94.6748
94.1544
95.6951
95.6555
97.4958
125.979
125.278
124.373
127.85
126.914
125.695
245.6
248.178
245.923
246.143
243.523
245.952
234.607
233.632
233.826
235.079
234.708
233.491
4120.51
4124.5
4122.23
4121.75
4120.91
4119.23
32.6507
32.279
32.6474
32.7917
33.0987
33.1761
-39.9193
-40.0963
-39.6814
-40.0147
-39.6031
-38.8733
-52.2785
-52.9791
-52.8103
-51.7233
-50.2175
-52.6204
-43.8981
-44.551
-44.7427
-44.668
-45.0225
-46.9528
-18.7602
-18.4702
-18.8128
-20.3206
-23.4298
-22.3285
3.18306
1.87577
1.82135
3.81991
2.8146
3.73452
-5.97454
-5.30498
-6.13284
-5.38568
-5.67537
-3.84972
-15.6494
-15.5908
-15.5886
-15.5513
-15.6054
-15.116
-12.7511
-12.7087
-12.6403
-12.6063
-12.5177
-12.408
-0.75288
-1.00249
-0.843079
-0.712872
-0.578952
-1.06853
-105.722
-108.531
-107.452
-106.459
-104.628
-107.628
2095.85
2087.5
2132.58
2133.1
2138.69
2078.88
1863.08
1837.02
1918.6
1815.18
1789.78
1775.52
1262.16
1237.87
1270.66
1267.69
1288.2
1362.85
690.658
734.287
739.793
742.115
732.826
855.427
438.625
421.503
434.709
439.424
430.748
500.205
369.886
341.38
343.589
290.174
286.707
275.698
351.028
297.087
234.213
200.785
237.292
246.58
334.163
300.412
230.074
215.349
236.194
307.642
329.362
342.049
315.885
279.085
284.678
340.449
347.586
340.548
377.853
354.885
363.686
361.611
442.115
439.58
454.82
512.817
525.828
444.368
516.073
508.109
520.708
601.195
617.73
574.413
1217.71
1231.79
1225.31
1275.03
1195.43
1145.5
649.773
524.492
595.003
526.302
499.711
560.797
116.977
52.6014
55.3782
59.3831
72.139
112.732
-10.7351
-39.2319
-34.0121
-21.9013
-3.04446
-4.34288
-28.1276
-26.9174
-23.965
-20.5385
-8.74454
-0.423847
-13.9885
-12.9264
-10.1495
-6.73535
-5.87834
11.496
-23.1249
-27.6802
-29.8877
-33.7808
-42.8881
-30.3627
-32.14
-38.0856
-46.1321
-56.8264
-59.3611
-51.5274
-8.12024
-12.3989
-21.5806
-23.073
-18.9058
-16.745
16.4255
15.423
10.729
9.0818
9.12757
7.01824
48.935
35.9472
33.3181
44.0004
52.5566
41.8347
67.8804
35.893
52.9871
73.6344
131.766
78.4462
638.814
679.063
575.414
646.631
535.776
594.65
89.8739
86.4745
85.9646
64.8672
9.47807
74.9092
-22.9662
-22.9219
-23.3086
-23.1205
-20.6078
-16.7837
-20.5195
-21.3394
-17.1031
-16.7588
-13.8554
-13.4449
-13.6562
-11.0358
-9.15325
-8.54643
-7.59375
-7.65653
-15.9799
-15.0983
-12.7279
-10.2231
-8.93571
-7.53822
-26.1974
-25.8464
-23.0519
-19.966
-18.9527
-17.781
-29.3611
-28.8199
-26.4498
-26.3056
-28.0067
-26.2093
-17.0902
-15.7543
-13.4894
-14.6696
-14.7203
-12.6239
-22.2206
-18.1695
-14.0577
-15.7859
-15.6173
-16.8706
-9.90526
-10.1783
-9.60103
-6.21289
-1.44091
-5.45959
-39.8705
-32.8908
-39.0814
-30.4031
-33.5543
-32.1566
340.014
377.811
259.825
303.45
271.512
316.987
-2.57559
2.15549
-8.50652
-11.6735
-24.686
-13.6557
-20.3845
-17.0873
-16.4342
-18.3485
-18.911
-19.4802
-24.9513
-26.112
-25.3842
-24.604
-23.7943
-22.2507
-28.0961
-28.223
-28.1361
-27.5846
-27.2481
-26.7942
-33.6102
-34.5723
-34.2742
-33.4022
-33.4979
-33.9473
-41.4853
-43.9889
-43.1014
-41.0996
-39.8085
-40.5299
-40.859
-41.0753
-41.119
-43.9935
-41.7852
-40.928
-26.772
-26.1223
-26.5391
-29.2115
-29.3987
-28.0726
-33.635
-33.1513
-33.5599
-27.9704
-28.6309
-31.2438
-9.71074
-10.4724
-15.1303
-20.2509
-21.5646
-20.2657
-41.4171
-35.4866
-37.5335
-122.09
-137.352
-80.9462
1967.26
1986.41
1978.66
1972.51
1974.55
1968.34
-124.075
-131.138
-129.648
-127.62
-125.649
-123.769
-40.1248
-39.5139
-40.0106
-39.6961
-39.098
-40.5445
-93.4014
-93.4831
-92.9103
-93.8611
-94.0469
-92.1453
-104.677
-107.748
-108.57
-105.757
-102.724
-107.751
-69.9919
-69.1852
-69.5496
-69.4335
-68.9437
-70.7637
-74.7844
-74.1205
-74.0653
-74.6962
-74.7062
-74.2917
-63.3618
-64.5784
-64.6992
-64.2156
-64.0273
-64.1869
-70.1905
-71.4718
-71.249
-70.718
-70.6096
-71.0511
-90.6702
-90.6365
-90.4357
-90.4003
-89.668
-90.1811
-94.8802
-93.782
-93.532
-94.7888
-95.6047
-93.3177
-100.177
-101.226
-101.701
-102.077
-103.375
-101.475
-74.7535
-76.5054
-76.2284
-75.2306
-73.2608
-77.3992
-91.2392
-89.5532
-88.3195
-89.9364
-89.973
-86.7978
-129.672
-127.559
-126.633
-128.005
-128.959
-123.889
-35.6807
-35.4648
-36.2395
-36.6179
-37.0281
-37.9494
-52.3982
-52.3404
-52.2817
-52.1261
-52.7094
-51.0647
-91.4896
-90.4853
-90.0831
-91.2603
-91.3447
-88.3763
-26.0968
-25.5934
-25.8272
-25.9945
-25.9125
-24.8369
-47.928
-47.9213
-48.0908
-47.7114
-47.7078
-47.2507
-71.2362
-71.3532
-71.314
-71.1535
-70.9284
-70.9698
-28.6385
-28.7967
-28.5185
-28.3139
-28.1625
-28.1913
-45.0412
-45.0769
-45.0604
-44.9421
-44.841
-44.6779
-62.7686
-62.7855
-62.7614
-62.7387
-62.7064
-62.6556
-29.443
-29.2861
-29.2021
-29.3652
-29.4761
-28.9707
-45.4912
-45.4907
-45.4579
-45.4326
-45.4119
-45.3084
-60.8661
-60.8707
-60.8619
-60.835
-60.8166
-60.8464
-37.5145
-37.464
-37.4384
-37.4764
-37.47
-37.2742
-51.926
-51.8974
-51.9181
-51.9322
-51.968
-51.8858
-61.3523
-61.3423
-61.3389
-61.3445
-61.3485
-61.3161
-47.3872
-47.2644
-47.2482
-47.4013
-47.397
-47.1806
-55.8717
-55.863
-55.8782
-55.8767
-55.8844
-55.9056
-64.2971
-64.2985
-64.2928
-64.2917
-64.2892
-64.2801
-19.5324
-21.0959
-20.2723
-19.1653
-17.6569
-20.397
-50.4156
-50.4043
-50.4488
-50.4783
-50.5378
-50.4928
-69.4777
-69.423
-69.4645
-69.5005
-69.5527
-69.4604
187.977
188.117
186.075
184.365
182.878
186.583
-48.3761
-48.267
-48.1922
-48.0484
-47.891
-47.7531
-70.7134
-70.6746
-70.7355
-70.995
-71.2997
-71.1778
204.234
205.028
207.055
208.197
210.313
208.131
-51.4838
-51.4778
-51.4184
-51.3366
-51.2246
-51.2462
-69.6749
-69.7175
-69.7765
-69.8463
-69.876
-69.8528
220.369
220.524
220.755
221.026
221.035
221.081
-49.8744
-49.8507
-49.8223
-49.7943
-49.751
-49.6728
-69.0443
-69.0573
-69.0791
-69.1111
-69.1429
-69.1442
219.838
219.713
219.676
219.99
220.31
220.239
-50.1318
-50.1314
-50.126
-50.1218
-50.1423
-50.1466
-69.0877
-69.0941
-69.1055
-69.1199
-69.128
-69.1319
214.424
214.227
214.187
214.427
214.629
214.686
-49.358
-49.348
-49.3383
-49.3351
-49.3402
-49.3483
-69.7568
-69.7598
-69.7682
-69.7854
-69.7996
-69.7953
179.323
178.471
178.965
179.334
179.387
178.713
-47.1498
-47.1694
-47.1454
-47.114
-47.0931
-47.141
-71.3973
-71.4075
-71.4111
-71.4189
-71.44
-71.4286
146.334
132.24
122.31
162.971
134.698
164.534
-131.415
200.749
-169.889
-114.997
8.2225
-78.4384
-117.105
-89.8766
-119.026
-129.017
-98.8068
-130.685
-39.6433
-36.7761
-40.5014
-41.3807
-42.9557
-32.0864
-66.3142
-71.547
-79.0263
-71.3684
-70.1837
-68.1051
-81.6939
-86.9228
-81.4275
-84.2625
-85.7069
-82.3891
-27.1077
-24.8384
-24.882
-27.0457
-29.9619
-32.1623
-43.6552
-40.6614
-41.7778
-43.3907
-46.2724
-50.3689
-63.9138
-60.5056
-63.9195
-63.0802
-63.7265
-64.4886
-27.5013
-27.8355
-28.7608
-30.8018
-33.0201
-32.8362
-49.7404
-50.0699
-50.5294
-51.1441
-51.0371
-51.1184
-64.8924
-65.4833
-65.1237
-66.0121
-65.3375
-65.2986
-32.6979
-32.7004
-32.6206
-32.6554
-32.823
-32.9719
-50.1141
-49.9729
-50.0211
-50.3021
-50.8141
-51.173
-61.3843
-61.3623
-61.3781
-61.3944
-61.4292
-61.4611
-35.9834
-35.4888
-35.7396
-36.2398
-36.4885
-36.3149
-52.8497
-52.6695
-52.7425
-52.9527
-53.0974
-53.1484
-61.2665
-61.1806
-61.1763
-61.4303
-61.5357
-61.5694
-38.9826
-39.2203
-39.2534
-39.1948
-39.1256
-39.2553
-53.0963
-52.4505
-52.4334
-52.8584
-53.2604
-53.369
-61.6118
-61.6461
-61.5786
-61.4577
-61.4272
-61.5029
-41.8565
-42.1085
-41.6664
-40.4966
-39.9903
-39.9888
-55.2699
-55.6096
-55.8236
-55.3958
-55.1964
-55.2794
-62.2072
-62.209
-62.2781
-61.8099
-61.7018
-61.7042
-35.8865
-36.7613
-37.8736
-38.5176
-38.4632
-37.0445
-56.1891
-56.7869
-56.9774
-56.1816
-54.8146
-55.0206
-60.6489
-60.5265
-60.5813
-60.6475
-60.7508
-60.7557
-38.8561
-40.1001
-41.8116
-44.044
-42.7857
-43.3558
-59.9211
-59.9913
-59.7629
-59.3827
-58.5712
-59.0877
-60.5077
-60.4809
-60.6122
-60.7859
-60.8534
-60.9244
-42.6072
-43.526
-43.5052
-50.1743
-48.2762
-48.208
-61.0607
-61.0849
-60.3995
-60.8494
-60.1903
-60.6212
-60.7059
-60.8106
-61.1681
-61.735
-61.95
-61.8828
-5.87803
-9.42644
-13.9513
-18.824
-25.2583
-12.1003
-58.1404
-57.8608
-57.3164
-57.4406
-57.36
-57.3034
-72.0358
-71.9689
-71.5194
-71.5062
-71.311
-71.7897
)
;

boundaryField
{
    seabed_topleft_surface
    {
        type            calculated;
        value           nonuniform List<scalar> 
72
(
22913.5
22913.5
22913.4
22913.5
22913.5
22913.4
23120.5
23121
23120.7
23120.7
23120.8
23120.4
20796.7
20797.5
20797.1
20797.2
20797.2
20796.8
17905.7
17906
17906.1
17905.8
17905.7
17906.1
14968.6
14968.8
14968.4
14968.8
14968.2
14968.8
12173.9
12176.8
12174.8
12175.5
12170
12176.7
10158.8
10166.2
10166.5
10159.3
10155.3
10166.1
9356.33
9357.11
9360.42
9353.61
9356.68
9358.94
9277.04
9269.95
9273.67
9274.48
9279.39
9267.3
9304.21
9295.07
9295.8
9306.31
9308.05
9293.35
9533.06
9542.55
9539.19
9533.66
9521.67
9551.33
10060
10060.7
10063.2
10052.4
10054.3
10060.8
)
;
    }
    seabed_topright_surface
    {
        type            calculated;
        value           nonuniform List<scalar> 
72
(
2553.27
2544.94
2590.09
2590.86
2596.3
2536.57
2320.44
2294.44
2376.04
2272.71
2247.24
2233.13
1702.16
1461.56
1576.58
1589.22
1745.59
1820.31
852.483
1072.44
1096.57
1026.92
1069.67
1312.8
763.229
776.412
791.472
794.471
744.058
927.632
716.144
651.364
651.283
504.777
599.543
368.05
697.663
617.589
437.867
270.2
490.844
334.84
681.059
646.398
423.836
429.153
473.573
646.945
676.12
687.719
647.745
605.186
581.151
689.915
689.794
656.765
759.636
715.016
695.797
710.751
723.105
690.613
836.607
895.005
907.513
779.672
723.746
779.099
890.375
983.784
1000.32
860.175
)
;
    }
    breakwater_top_surface
    {
        type            calculated;
        value           nonuniform List<scalar> 
36
(
441.261
438.86
435.617
434.003
434.051
438.499
463.467
465.242
470.27
472.871
477.392
471.893
494.277
494.572
495.056
495.531
495.542
495.513
492.895
492.571
492.421
493.151
493.792
493.766
486.094
485.703
485.536
486.115
486.589
486.775
428.424
427.153
427.835
428.34
428.537
427.446
)
;
    }
    breakwater_left_surface
    {
        type            calculated;
        value           nonuniform List<scalar> 
24
(
6139.38
6144.34
6145.49
6132.75
6131.17
6142.03
1595.46
1614.49
1607.73
1583.53
1573.1
1598.35
235.079
234.136
234.32
235.546
235.149
233.987
-105.281
-108.09
-107.011
-106.02
-104.193
-107.19
)
;
    }
    breakwater_right_surface
    {
        type            calculated;
        value           nonuniform List<scalar> 
24
(
516.784
509.038
521.974
602.505
619.04
575.392
68.4451
36.0153
53.0143
74.1873
132.656
78.9011
-39.8442
-32.8557
-38.9663
-30.3725
-33.5367
-32.1404
-41.2698
-35.2074
-37.2492
-121.819
-137.184
-80.7433
)
;
    }
    water_front_surface
    {
        type            calculated;
        value           nonuniform List<scalar> 
186
(
19528.3
18508.2
16001
13110
10173
7689.87
5947.68
5301.85
5300.12
5361.92
5596.07
6125.91
13233
10943
7398.22
4311.98
2166.82
1015.52
601.608
576.07
790.298
978.439
1252.09
1591.63
7759.87
3494.56
1186.02
327.869
3.19115
66.6816
155.816
151.908
94.0051
125.979
245.6
234.607
4120.51
32.6507
-39.9193
-52.2785
-43.8981
-18.7602
3.18306
-5.97454
-15.6494
-12.7511
-0.75288
-105.722
2095.85
1863.08
1262.16
690.658
438.625
369.886
351.028
334.163
329.362
347.586
442.115
516.073
1217.71
649.773
116.977
-10.7351
-28.1276
-13.9885
-23.1249
-32.14
-8.12024
16.4255
48.935
67.8804
638.814
89.8739
-22.9662
-20.5195
-13.6562
-15.9799
-26.1974
-29.3611
-17.0902
-22.2206
-9.90526
-39.8705
340.014
-2.57559
-20.3845
-24.9513
-28.0961
-33.6102
-41.4853
-40.859
-26.772
-33.635
-9.71074
-41.4171
1967.26
-124.075
-40.1248
-93.4014
-104.677
-69.9919
-74.7844
-63.3618
-70.1905
-90.6702
-94.8802
-100.177
-74.7535
-91.2392
-129.672
-35.6807
-52.3982
-91.4896
-26.0968
-47.928
-71.2362
-28.6385
-45.0412
-62.7686
-29.443
-45.4912
-60.8661
-37.5145
-51.926
-61.3523
-47.3872
-55.8717
-64.2971
-19.5324
-50.4156
-69.4777
187.977
-48.3761
-70.7134
204.234
-51.4838
-69.6749
220.369
-49.8744
-69.0443
219.838
-50.1318
-69.0877
214.424
-49.358
-69.7568
179.323
-47.1498
-71.3973
146.334
-131.415
-117.105
-39.6433
-66.3142
-81.6939
-27.1077
-43.6552
-63.9138
-27.5013
-49.7404
-64.8924
-32.6979
-50.1141
-61.3843
-35.9834
-52.8497
-61.2665
-38.9826
-53.0963
-61.6118
-41.8565
-55.2699
-62.2072
-35.8865
-56.1891
-60.6489
-38.8561
-59.9211
-60.5077
-42.6072
-61.0607
-60.7059
-5.87803
-58.1404
-72.0358
)
;
    }
    water_back_surface
    {
        type            calculated;
        value           nonuniform List<scalar> 
186
(
19528.2
18508
16001.1
13110.5
10173.2
7693.71
5948.87
5299.84
5290.82
5357.43
5616.7
6128.56
13232.7
10942.2
7397.74
4313.08
2168.95
1007.15
597.007
571.47
790.444
979.799
1251.55
1594.49
7759.23
3492.56
1189.2
331.707
10.606
40.909
149.819
169.215
97.4958
125.695
245.952
233.491
4119.23
33.1761
-38.8733
-52.6204
-46.9528
-22.3285
3.73452
-3.84972
-15.116
-12.408
-1.06853
-107.628
2078.88
1775.52
1362.85
855.427
500.205
275.698
246.58
307.642
340.449
361.611
444.368
574.413
1145.5
560.797
112.732
-4.34288
-0.423847
11.496
-30.3627
-51.5274
-16.745
7.01824
41.8347
78.4462
594.65
74.9092
-16.7837
-13.4449
-7.65653
-7.53822
-17.781
-26.2093
-12.6239
-16.8706
-5.45959
-32.1566
316.987
-13.6557
-19.4802
-22.2507
-26.7942
-33.9473
-40.5299
-40.928
-28.0726
-31.2438
-20.2657
-80.9462
1968.34
-123.769
-40.5445
-92.1453
-107.751
-70.7637
-74.2917
-64.1869
-71.0511
-90.1811
-93.3177
-101.475
-77.3992
-86.7978
-123.889
-37.9494
-51.0647
-88.3763
-24.8369
-47.2507
-70.9698
-28.1913
-44.6779
-62.6556
-28.9707
-45.3084
-60.8464
-37.2742
-51.8858
-61.3161
-47.1806
-55.9056
-64.2801
-20.397
-50.4928
-69.4604
186.583
-47.7531
-71.1778
208.131
-51.2462
-69.8528
221.081
-49.6728
-69.1442
220.239
-50.1466
-69.1319
214.686
-49.3483
-69.7953
178.713
-47.141
-71.4286
164.534
-78.4384
-130.685
-32.0864
-68.1051
-82.3891
-32.1623
-50.3689
-64.4886
-32.8362
-51.1184
-65.2986
-32.9719
-51.173
-61.4611
-36.3149
-53.1484
-61.5694
-39.2553
-53.369
-61.5029
-39.9888
-55.2794
-61.7042
-37.0445
-55.0206
-60.7557
-43.3558
-59.0877
-60.9244
-48.208
-60.6212
-61.8828
-12.1003
-57.3034
-71.7897
)
;
    }
    water_left_surface
    {
        type            calculated;
        value           nonuniform List<scalar> 
42
(
19539.9
19539.9
19539.8
19539.9
19539.8
19539.8
13245.7
13245.4
13245.4
13245.6
13245.5
13245.3
7772.26
7771.69
7771.76
7772.1
7772.06
7771.62
4132.67
4136.65
4134.38
4133.9
4133.07
4131.38
1967.26
1986.41
1978.66
1972.51
1974.55
1968.34
-124.075
-131.138
-129.648
-127.62
-125.649
-123.769
-40.1248
-39.5139
-40.0106
-39.6961
-39.098
-40.5445
)
;
    }
    water_right_surface
    {
        type            calculated;
        value           nonuniform List<scalar> 
42
(
2097.42
2089.06
2134.15
2134.67
2140.26
2080.45
1219.24
1233.04
1226.84
1276.57
1196.97
1147.03
640.317
680.535
576.807
647.94
537.11
596.156
341.488
379.285
261.299
303.973
272.347
318.462
146.334
132.24
122.31
162.971
134.698
164.534
-131.415
200.749
-169.889
-114.997
8.2225
-78.4384
-117.105
-89.8766
-119.026
-129.017
-98.8068
-130.685
)
;
    }
    water_top_surface
    {
        type            calculated;
        value           nonuniform List<scalar> 
180
(
-111.755
-106.627
-109.922
-108.605
-105.688
-111.83
-111.299
-101.739
-107.504
-105.583
-99.9774
-113.063
-70.3003
-69.2693
-69.2562
-70.0495
-70.892
-69.3113
-99.6268
-103.688
-104.901
-105.686
-109.763
-104.862
-148.837
-143.363
-140.437
-142.805
-143.144
-141.591
-83.0363
-80.7696
-80.6102
-83.462
-85.8401
-77.8237
-77.8016
-78.2731
-78.2841
-77.7568
-77.5153
-78.5354
-70.9468
-71.0068
-70.9948
-70.9853
-70.9713
-71.0017
-69.0155
-69.0157
-69.0135
-69.0095
-69.0082
-69.0053
-69.5229
-69.5188
-69.5219
-69.5212
-69.5344
-69.5085
-71.4031
-71.398
-71.4005
-71.3988
-71.4088
-71.391
-70.0873
-70.123
-70.1289
-70.1192
-70.1151
-70.1284
-68.9477
-68.9289
-68.9221
-68.9312
-68.9668
-68.9176
-70.4518
-70.5052
-70.5083
-70.4643
-70.4132
-70.4159
-69.7553
-69.7489
-69.7341
-69.7357
-69.7341
-69.7287
-70.0296
-70.0399
-70.0379
-70.0369
-70.0378
-70.0285
-70.199
-70.2048
-70.2007
-70.1966
-70.2008
-70.1963
-69.1674
-69.1657
-69.1629
-69.1587
-69.1572
-69.1597
-1532.17
-87.2981
-1219.74
-1013.5
-75.4371
-1370.62
-69.8357
-284.404
-88.4858
-117.602
-125.101
-73.6143
-68.6699
-68.7062
-69.8455
-68.6723
-68.67
-68.6758
-70.6943
-71.2565
-71.1544
-71.3879
-71.3519
-70.999
-68.67
-68.67
-68.67
-68.67
-68.67
-68.67
-68.7634
-68.7378
-68.7405
-68.796
-68.8289
-68.8162
-68.67
-68.67
-68.67
-68.67
-68.67
-68.67
-68.67
-68.67
-68.6701
-68.67
-68.67
-68.67
-68.6701
-68.6706
-68.6705
-68.6702
-68.67
-68.6701
-68.9253
-68.9677
-69.0276
-69.0295
-69.0371
-69.0408
-70.0499
-70.1995
-70.3205
-70.4261
-70.4083
-70.3513
-70.7411
-70.4079
-70.1647
-70.5272
-71.1796
-70.4946
)
;
    }
}


// ************************************************************************* //
