/*--------------------------------*- C++ -*----------------------------------*\
| =========                 |                                                 |
| \\      /  F ield         | OpenFOAM: The Open Source CFD Toolbox           |
|  \\    /   O peration     | Version:  v1612+                                |
|   \\  /    A nd           | Web:      www.OpenFOAM.com                      |
|    \\/     M anipulation  |                                                 |
\*---------------------------------------------------------------------------*/
FoamFile
{
    version     2.0;
    format      ascii;
    class       surfaceScalarField;
    location    "7.2";
    object      phi;
}
// * * * * * * * * * * * * * * * * * * * * * * * * * * * * * * * * * * * * * //

dimensions      [0 3 -1 0 0 0 0];

internalField   nonuniform List<scalar> 
2916
(
-0.000104899
0.0975206
-0.0974157
2.59548e-05
0.0972607
-0.0973916
1.9989e-05
0.0973983
-0.0973925
-3.84981e-06
0.0974508
-0.097427
5.50431e-05
0.0973654
-0.0974244
0.0974449
-0.09739
-5.84617e-05
0.159465
-0.061886
1.99159e-05
0.159243
-0.0620604
-4.23542e-07
0.159398
-0.0619796
-1.65234e-05
0.159384
-0.061917
1.85759e-05
0.159318
-0.0619879
0.159421
-0.0619578
4.6387e-06
0.0197589
0.139702
-8.73637e-06
0.0194703
0.139786
-3.97061e-05
0.0197081
0.139721
-1.02518e-05
0.0195878
0.139767
-3.33485e-06
0.0195422
0.139769
0.0197646
0.139654
-0.00022432
-0.301038
0.321021
1.56995e-05
-0.302008
0.321239
0.000145719
-0.301548
0.321127
5.06338e-05
-0.301482
0.321165
-8.09758e-05
-0.30156
0.321234
-0.301321
0.321005
-0.00115683
-0.574528
0.274647
5.37087e-05
-0.578113
0.274894
0.000871347
-0.577103
0.274737
0.000234405
-0.575728
0.274883
-0.00108824
-0.574923
0.274685
-0.577222
0.274813
-0.00156199
-0.72278
0.149814
-4.21875e-05
-0.727863
0.14823
0.00100122
-0.726772
0.148625
0.000366134
-0.724257
0.149163
-0.00162914
-0.723046
0.150119
-0.727243
0.148391
0.00289925
-0.769121
0.0434415
-0.000355519
-0.774004
0.0493955
-0.00312218
-0.772962
0.0489566
-0.000654994
-0.770464
0.0437402
0.00584865
-0.768698
0.039149
-0.774131
0.0527374
0.00473726
-0.692454
-0.0814045
-0.000574419
-0.691295
-0.077397
-0.00436813
-0.691377
-0.0777916
-0.000859105
-0.692695
-0.0812778
0.00854841
-0.694298
-0.0838076
-0.689651
-0.0759316
0.00149766
-0.538623
-0.155328
-0.000371037
-0.535798
-0.153628
-0.0016882
-0.536073
-0.153986
-0.000590249
-0.538485
-0.155308
0.00157362
-0.541495
-0.154967
-0.533694
-0.154384
-0.00352755
-0.368328
-0.166767
0.000434361
-0.370516
-0.169244
0.0035204
-0.37063
-0.16853
-0.000409492
-0.367485
-0.16707
-0.0105878
-0.367068
-0.164249
-0.371821
-0.172461
-0.00428797
-0.204461
-0.159579
0.000969745
-0.208978
-0.166796
0.00561307
-0.208958
-0.166315
0.00175013
-0.204248
-0.159374
-0.00874987
-0.201916
-0.154651
-0.211649
-0.168922
0.0046631
-0.209124
-0.000991196
-0.203323
-0.00554429
-0.204405
-0.000641967
-0.20915
0.0120439
-0.214602
-0.199605
-0.000192656
0.173898
-0.271121
2.06668e-05
0.173605
-0.27121
2.12104e-05
0.17376
-0.271153
1.54306e-05
0.173737
-0.271158
0.000136252
0.173648
-0.271193
0.17382
-0.271074
-0.000111248
0.27917
-0.167046
-1.31959e-05
0.278595
-0.167149
-6.6554e-06
0.278861
-0.167087
-3.47682e-05
0.278891
-0.167042
0.000106858
0.278725
-0.167206
0.279017
-0.167048
-0.000181787
0.331641
0.0874123
-3.52919e-05
0.331112
0.0871232
-3.02142e-05
0.331346
0.0872316
-3.48192e-06
0.331331
0.0872996
0.000223386
0.331139
0.0871274
0.33156
0.0873344
-0.000490061
0.337881
0.315271
-2.90853e-05
0.337394
0.314495
4.42914e-07
0.337828
0.314615
2.69611e-05
0.337369
0.315101
0.000300049
0.336673
0.315427
0.338398
0.314467
-7.49014e-05
0.525396
0.0872068
-0.000421925
0.530833
0.0818012
-4.92598e-07
0.52842
0.0837231
-3.01709e-05
0.527578
0.0847032
-0.000579221
0.525219
0.0866877
0.527778
0.0848536
0.0201406
0.900062
-0.244993
0.0001284
0.916847
-0.217771
-0.0194207
0.911412
-0.214817
-0.00487984
0.904512
-0.242312
0.0264133
0.893537
-0.249492
0.91455
-0.211967
0.00936447
1.093
-0.158863
0.000675363
1.12512
-0.150184
-0.010512
1.11774
-0.146188
-0.00651307
1.09861
-0.154356
0.0140101
1.07244
-0.160279
1.13421
-0.152915
-0.00211558
0.953946
0.0597679
-0.00259074
0.978647
0.0695472
-0.00350322
0.974675
0.0661902
-0.00340239
0.958188
0.0590443
-0.00105638
0.933766
0.052523
0.993335
0.0638895
-0.00851933
0.562645
0.244492
-0.000643894
0.569196
0.247947
0.001937
0.571196
0.246912
-0.00201796
0.561653
0.245182
-0.0141844
0.547877
0.243088
0.581667
0.2431
-0.0208903
0.274079
0.142689
0.00215696
0.25771
0.119195
0.0164598
0.26256
0.125804
-0.00183336
0.272807
0.140069
-0.0502983
0.276682
0.155411
0.25583
0.103078
-0.0260995
0.27077
-0.130171
0.0081782
0.217027
-0.160391
0.035293
0.223281
-0.154151
0.0118098
0.270638
-0.133723
-0.0556597
0.305751
-0.116251
0.197527
-0.166279
0.00673997
0.0549062
0.00414559
0.0162983
0.000571341
0.0224501
0.00684624
0.0552137
0.01754
0.0804551
0.0154617
0.000316021
0.616028
-0.887465
-3.47823e-05
0.615894
-0.886753
-9.85419e-05
0.615915
-0.887004
-2.86471e-05
0.615951
-0.88718
-0.000141274
0.615969
-0.887049
0.615896
-0.887112
0.000231766
1.48043
-1.03168
-3.93548e-05
1.48033
-1.03132
-0.000254932
1.48008
-1.03103
-0.000193426
1.48048
-1.03163
5.72513e-05
1.48129
-1.03278
1.47924
-1.03033
-0.000285898
2.30359
-0.735458
-0.000319163
2.30174
-0.73425
0.00188716
2.30283
-0.737731
-0.000179959
2.30257
-0.732726
-0.00501882
2.30307
-0.729815
2.30303
-0.741475
-0.00332894
3.30026
-0.678075
-0.000254198
3.29959
-0.686427
0.0021246
3.29779
-0.682724
-0.000628081
3.30344
-0.683011
-0.00579459
3.29761
-0.673943
3.29392
-0.682218
-0.0043376
3.43434
-0.0425348
-0.00422375
3.72979
-0.34851
0.0146337
3.69186
-0.3292
0.0127695
3.50488
-0.114879
-0.0393606
3.35977
0.0766609
3.80857
-0.469156
0.379282
1.00156
1.80851
-0.0316807
1.6729
2.25008
-0.342152
1.54244
2.24507
0.0060597
1.07159
1.84277
0.657691
0.769621
1.68902
2.07345
2.18084
0.0426779
-0.5103
1.31032
0.00601862
-0.0402248
1.5996
-0.0594843
-0.113764
1.57552
0.0573033
-0.521261
1.3217
0.29494
-0.858589
1.2303
0.538315
1.67716
-0.220716
-0.86326
0.633443
-0.0112604
-0.860755
0.680622
0.124999
-0.841514
0.657682
-0.0760298
-0.879252
0.618066
-0.479632
-1.00099
0.598524
-0.643658
0.76623
-0.028451
-1.51254
0.92222
0.00396906
-1.53904
0.893812
0.0256918
-1.52967
0.913347
-0.0227643
-1.51919
0.933577
-0.139289
-1.57237
0.930996
-1.47
0.930156
-0.00518117
-1.56115
0.196487
0.00393763
-1.57828
0.149311
0.00658061
-1.57581
0.169295
0.000352726
-1.56241
0.189516
-0.0303082
-1.58773
0.201429
-1.54588
0.148644
0.00199447
-0.533222
-1.1601
0.0118309
-0.582888
-1.16562
0.00794078
-0.570104
-1.15596
0.0174192
-0.537806
-1.16781
0.00206125
-0.510903
-1.17772
-0.569523
-1.14057
0.0161984
-0.494514
0.00461302
-0.555004
-0.00430519
-0.538735
-0.000750239
-0.486147
0.0095611
-0.44076
-0.544501
0.000518486
0.454268
-1.34225
-7.49979e-05
0.456015
-1.34218
0.000325941
0.454863
-1.34227
-0.000108356
0.455219
-1.34196
-0.00145651
0.456355
-1.34206
0.453629
-1.3422
0.00279747
1.33639
-1.9166
0.000114042
1.34403
-1.91665
0.000464373
1.33971
-1.91623
-0.00140907
1.34175
-1.91629
-0.00497051
1.34309
-1.91596
1.33251
-1.91418
0.0193727
1.49577
-0.91422
-0.00294159
1.55415
-0.922054
0.00288771
1.55277
-0.956622
-0.0103368
1.52398
-0.901727
-0.01277
1.44546
-0.829748
1.56872
-0.99046
0.190967
-0.188458
0.815187
0.00949377
0.248217
0.800978
-0.190507
0.298964
0.77108
-0.146807
-0.0416084
0.838879
0.210211
-0.484551
0.899046
0.365607
0.731107
0.29595
-2.65106
2.12412
0.0524367
-1.91917
2.06239
-0.144913
-1.88076
2.04787
0.0885141
-2.49148
2.10157
0.519051
-3.07592
2.23749
-1.46766
1.88316
-0.0939341
-3.09883
2.35022
-0.00192151
-2.80523
3.04414
0.14736
-2.81812
3.03315
0.163286
-3.08736
2.42273
-0.000746808
-3.34144
2.11857
-2.35497
3.0674
-0.154108
-2.55768
0.923272
-0.025806
-2.58564
1.25171
0.0991977
-2.58786
1.22026
-0.02463
-2.57036
0.928537
-0.288396
-2.65075
0.803379
-2.38659
1.42038
-0.0647309
-2.03256
0.173057
-0.0124542
-2.06932
0.112025
0.0373828
-2.06948
0.0894679
-0.0348571
-2.0292
0.149145
-0.209221
-2.04014
0.162276
-2.00919
0.179617
-0.00101589
-2.08731
0.977983
-0.0158474
-2.08779
0.927114
-0.0218436
-2.09
0.939867
-0.0255387
-2.09306
1.00113
-0.0605621
-2.10243
1.02831
-2.06319
0.923593
0.00959631
-2.14552
0.245102
-0.0195915
-2.17054
0.26125
-0.0381294
-2.16736
0.265188
-0.0197548
-2.16306
0.241139
0.0278308
-2.16674
0.218157
-2.16479
0.278073
0.0237309
-1.28081
-2.04854
-0.00316904
-1.30176
-2.0075
-0.0243448
-1.29755
-2.0046
-0.0113084
-1.29784
-2.04607
0.0247284
-1.29684
-2.08366
-1.30335
-1.97729
0.030937
-1.80626
-0.000545133
-1.82528
-0.0216983
-1.81513
-0.0107514
-1.79493
0.0297909
-1.77814
-1.81806
-0.304733
-0.0527686
0.357502
-0.223239
-0.566395
0.4849
-0.222518
-0.406839
0.406118
-0.1485
-0.451987
0.37797
0.456599
-1.0637
0.458597
0.0340461
0.422553
0.131875
-0.805236
0.620592
-0.283319
-1.31139
1.16019
0.022284
-1.45818
0.745733
-0.232411
-1.21683
1.01954
-0.29118
-1.84867
0.843745
-0.760285
0.503151
-0.0518993
-1.82367
1.07034
-0.242505
-2.49851
1.37772
-0.111037
-2.602
1.01236
-0.348762
-2.26187
1.28277
-0.638281
-2.40315
0.843996
-1.92382
0.525257
-0.325013
-2.6355
1.13684
-0.078939
-3.11467
0.370086
0.0966375
-3.01263
0.235052
0.119728
-2.87068
0.585714
-0.279791
-2.66171
0.658082
-2.45479
0.251176
0.0666429
-2.74787
0.0457285
0.109237
-3.11379
-0.0434791
0.122515
-2.99874
-0.0271617
0.253572
-2.79127
-0.210468
0.08754
-2.66401
0.168331
-2.4299
0.0626484
0.173402
-2.52534
-0.395931
0.2569
-2.8985
-0.298785
0.392584
-2.77142
-0.363009
0.349986
-2.60242
-0.146252
0.311492
-2.57774
-0.047776
-2.65614
0.537734
0.260788
-2.41638
-0.369746
0.429474
-2.77318
-0.294004
0.459156
-2.78208
-0.0190235
0.17977
-2.78618
0.463145
0.131448
-2.60427
0.0748583
-3.01018
0.485484
0.0745928
-2.29762
-0.19335
0.291882
-2.51475
-0.475722
0.176638
-2.75473
0.0878932
0.0953246
-2.73945
0.0345885
0.0696192
-2.51679
-0.0617808
-2.8311
-0.109464
-0.0682779
-1.95637
-0.27298
-0.0670955
-2.10736
-0.40857
-0.175248
-2.429
-0.217574
0.0163868
-2.24908
-0.682008
0.169348
-2.11571
-0.554038
-2.26091
-0.40084
0.0401924
-1.41757
-0.578991
-0.257063
-1.76962
-0.0404896
-0.489344
-1.94569
-0.251025
-0.216654
-1.63923
-0.88254
0.221739
-1.49973
-1.05438
-1.59428
-0.444891
0.168775
-0.502268
-1.08407
-0.136708
-1.07509
-0.389043
-0.804369
-1.16994
-0.108094
-0.493409
-0.68376
-1.26643
0.153055
-0.416056
-1.73014
-0.688785
-0.752437
0.0312903
-0.533558
-0.133897
-0.909906
-0.675409
-0.628426
-0.395637
-0.963532
0.111675
-0.923368
-0.57711
-0.381033
0.0749912
0.663544
-0.0401742
-1.03577
1.17981
-0.246902
-0.286349
0.899195
-0.105913
-1.06903
1.30601
0.480342
-1.48533
1.35767
0.268839
0.634056
0.79377
-1.20417
1.10599
0.0352797
-2.09229
2.9752
-0.0976653
-1.41536
2.00769
-0.451795
-1.95585
2.2605
-0.718099
-2.42691
2.05163
-0.598151
0.652041
0.650939
-2.70398
1.91921
0.0140911
-2.98379
2.90607
-0.5294
-2.5942
2.73468
-0.734754
-2.8554
2.38766
-0.888426
-3.15257
1.72333
-1.87149
0.910169
0.380545
-2.25284
0.305154
-0.186794
-1.29099
-0.755372
-0.815992
-0.910504
-0.819443
-0.872392
-1.46766
-0.745628
-0.45205
-2.15178
-0.763045
-1.65461
-0.417755
-0.374038
-0.139504
-1.69357
-1.05183
1.10625
-1.76293
-1.60636
1.25327
-1.63641
-2.03635
0.663047
-1.91118
-1.31763
-0.969711
-1.73247
-1.77468
-1.13491
-1.1506
2.41083
-1.79567
-1.98731
3.08851
-1.44433
-2.73694
2.90892
-1.26903
-2.28324
1.15118
-1.08809
-1.59861
-1.02098
-0.681139
-2.79107
-0.0444915
-0.781932
3.90726
-1.08424
-1.98097
4.39762
-0.404077
-2.18877
3.38557
-0.28787
-1.28828
1.00091
-0.287081
-0.817163
-1.3493
-0.0679318
-3.49056
0.367817
-0.123085
3.68392
0.15307
-0.39264
3.76636
0.425097
-0.0415808
2.41196
0.710446
-0.159534
1.257
-0.103548
0.0206617
-0.351853
-1.23943
-3.03232
-0.547045
1.01158
1.53024
0.869117
1.98067
1.43753
0.951172
1.98697
0.911288
1.27679
1.37424
0.817113
0.370616
1.44406
-0.24476
-0.730952
-1.48608
-0.503017
1.13031
-1.19147
1.01242
1.23869
-0.993639
2.2823
-0.120445
-0.357644
2.37704
-0.266459
-0.447038
0.527626
0.965256
-1.42804
-1.1028
-0.982762
0.0170476
0.82414
-1.41954
-1.68015
-0.16376
-1.48833
1.09355
-1.2432
-1.21902
1.83272
-0.497275
-0.973841
-1.48555
0.148169
-1.18575
-2.61787
-1.00274
-0.584293
0.373785
-2.32689
-0.286168
-1.73828
-0.736279
-1.39733
-0.536827
-2.13682
-0.154691
-2.49126
-1.73454
-0.270523
0.602575
0.331492
0.0400317
0.113345
0.755913
-0.0251815
0.296602
0.667807
-0.0138437
-0.192355
1.48702
0.174136
-0.291584
1.46127
0.563968
0.244223
0.178401
0.575061
0.955102
0.10749
0.319346
2.84011
0.269419
0.0927843
2.04958
0.0432551
-0.151006
2.44531
-0.469087
0.157001
2.11539
0.81858
-0.0716578
0.270098
0.626599
1.59757
0.00328284
0.431043
3.06118
-0.75704
0.53211
3.05568
-0.777223
0.182079
2.07476
-0.367504
0.527567
0.94304
1.09586
0.265387
0.268738
1.08089
-0.417875
0.014716
1.13467
-1.20498
-0.253904
1.16128
-1.17999
-0.428962
0.997133
-1.38562
-0.324407
1.18068
-1.52071
1.05299
-0.699291
-0.211735
1.1537
-1.55464
-0.19704
1.08418
-1.72714
-0.165783
1.10496
-1.61135
-0.33567
0.71004
-1.4542
-0.183805
0.622271
-1.32593
0.66636
-0.932091
-0.034595
0.662539
-1.26992
-0.585472
1.17234
-0.981618
-0.950065
1.17948
-0.978963
-0.88853
0.480151
-0.919736
-0.549091
0.229025
-0.627331
0.100417
-0.0276383
-0.718781
0.676236
-0.37916
-1.23354
1.29847
-0.0154432
-1.54002
1.46281
-0.264721
-1.54872
0.598389
-0.396616
-0.875588
-0.324941
-0.187098
-1.04176
0.634405
-0.996159
0.914571
0.910895
-1.17558
0.437362
1.46562
-0.604085
0.59332
1.00845
-0.394652
0.339726
-0.054317
-0.541573
-0.466531
-0.950916
-1.60366
-0.526714
0.188163
0.187247
1.40828
0.496287
-0.468442
1.54885
1.42866
-0.250395
1.18814
1.58406
-0.0197578
0.574701
0.63983
0.0381065
-0.291359
-0.84337
-0.623477
0.307271
-0.0357247
0.928118
0.00864695
0.485737
1.62675
0.262245
0.381828
1.49122
0.506042
0.316739
-0.0526697
0.849035
-0.525533
-0.88216
0.63752
-0.614807
-0.625449
-0.363262
-0.727161
-1.04683
0.419715
1.58096
-0.204736
-0.182704
1.55516
0.599921
-0.210627
-1.76284
0.728117
-0.81879
-2.45281
1.02348
-0.242136
-0.580741
-2.10941
0.394666
-2.29398
1.15381
-2.33919
0.687376
-1.88101
-0.877221
-1.74545
-1.58828
-0.150376
0.620443
-0.138575
-0.0632411
0.481896
0.186882
-0.0922296
0.48166
0.215135
-0.052275
0.586845
0.860224
0.0465602
0.26068
1.10176
0.556789
-0.266006
-0.101854
1.06313
0.614269
0.0644856
0.986434
2.16923
0.336399
0.632309
1.62702
0.242899
0.747357
2.3783
-0.0769327
0.517964
2.17794
0.873239
-0.465041
-0.521733
1.50826
1.67417
-0.16421
1.51112
2.17897
0.0127158
1.2805
2.23056
0.539504
1.00178
1.29355
0.827705
0.632506
0.540295
1.20032
0.766013
0.362672
0.964215
-0.236501
0.420496
0.992293
-0.743975
0.294704
0.848274
-0.62197
0.138176
0.661735
-0.889052
-0.149349
0.543614
-1.1443
0.868373
-0.516697
0.153078
-0.00171809
-0.741787
0.152023
0.0799512
-0.813739
-0.122972
0.171398
-0.659478
-0.260587
-0.0431144
-0.611733
-0.26205
-0.296128
-0.484726
-0.0479728
-0.277793
0.128311
-0.743458
-0.656486
-0.138709
-0.641285
0.00663935
-0.578068
-0.305771
-0.0624358
-0.517847
-0.388348
-0.634723
-0.169449
-0.627002
-0.644853
-0.44165
0.196592
-0.207921
-1.12692
0.212219
-0.316736
-1.54391
0.995998
-0.591678
-1.30861
1.01307
-0.813169
-0.847874
0.284405
-0.466688
-0.611935
-0.548644
-0.706097
0.432166
-0.538001
-0.560354
0.882334
-0.0128415
-2.04172
1.43828
0.895872
-2.23533
1.02645
0.666532
-1.32246
0.649615
0.227728
-0.625234
-0.498811
-0.858346
-0.146736
0.00969667
-0.26635
1.10458
0.244185
-1.507
0.779649
0.854588
-1.8392
0.181606
1.19055
-1.1779
0.0941675
0.593745
-0.342284
0.0224973
-0.643037
-0.245043
0.13309
0.507357
0.0213236
-0.0510474
0.374316
-0.0704315
-0.415896
0.429656
-0.412788
0.519536
-1.43747
-0.728529
0.872484
-1.06594
-0.511455
0.370035
-0.755396
-0.670309
0.368131
0.0823748
0.500405
0.546069
0.238485
1.44641
0.836584
0.202224
0.748592
-1.08935
-1.41314
-0.0635541
-1.27263
-1.43397
0.572551
-0.508206
0.0420192
-1.78329
0.339487
-2.04538
1.05038
-2.21349
0.244525
-2.16452
-0.892254
-1.8813
-1.90798
-0.00774845
-1.56934
0.234837
0.0027649
-1.59208
0.239394
0.00499487
-1.58278
0.238281
0.00174595
-1.57468
0.235962
0.0034087
-1.57802
0.234299
-1.57546
0.236675
-0.0436712
-1.33144
-0.194233
0.00829627
-1.42699
-0.217057
0.00551163
-1.39467
-0.185323
0.0133341
-1.36502
-0.217481
0.0711254
-1.36332
-0.272485
-1.34843
-0.155912
-0.145499
-1.522
0.014026
-1.79611
-0.0122875
-1.62101
0.0193156
-1.69468
0.224192
-1.8683
-1.41949
0.00345935
-1.40466
-0.280555
0.00104201
-1.42328
-0.251551
-0.0019536
-1.42275
-0.252203
-0.00636374
-1.40744
-0.268486
-0.00608405
-1.38636
-0.295574
-1.42707
-0.256523
0.0106873
0.811192
-2.42078
0.00395794
0.715425
-2.34904
-0.0365272
0.719239
-2.28683
-0.0403325
0.798129
-2.41924
0.0385472
0.850307
-2.58804
0.667253
-2.21169
-0.0541587
-4.02647
-0.00826355
-4.30695
-0.015286
-4.10654
-0.0280067
-4.22085
0.0743281
-4.49746
-3.78036
0.0360081
0.665798
-1.89658
0.0134847
0.655483
-1.80657
-0.00819801
0.575273
-1.76241
-0.00196016
0.693002
-1.86945
0.0524769
0.859997
-2.03976
0.506991
-1.7015
0.192865
2.48196
-4.42981
0.0255319
2.65598
-4.1822
-0.105591
2.49878
-4.07921
-0.0441832
2.6083
-4.39595
0.0868796
2.8004
-4.65951
2.30499
-3.92281
0.179412
-4.37295
0.00778874
-4.46053
-0.0317231
-4.37189
-0.0670296
-4.43931
-0.132369
-4.64772
-4.08988
0.159347
2.58821
-3.82895
0.032596
2.75854
-3.63739
-0.105404
2.69982
-3.55315
-0.0409869
2.69179
-3.78678
0.283868
2.63898
-4.10455
2.64131
-3.32784
0.00829536
3.33719
-5.18708
0.0199614
3.67332
-5.10864
0.0592992
3.64829
-5.06702
0.107717
3.44708
-5.19966
0.109513
3.27211
-5.29443
3.70547
-4.87745
0.0169281
-4.20162
0.042793
-4.29379
0.119298
-4.28568
0.103326
-4.23353
-0.14179
-4.28129
-4.18865
0.178275
2.62967
-4.51278
0.0333202
3.04795
-4.47798
-0.0717738
3.04836
-4.44854
0.0206511
2.7378
-4.51544
0.379242
2.47985
-4.7055
3.05695
-4.12239
-0.0886563
2.19989
-4.66864
-0.0242224
2.67539
-4.80051
0.0914327
2.70321
-4.83752
0.0600631
2.26243
-4.69291
0.00569138
1.91804
-4.67826
2.91064
-4.72545
-0.149837
-3.36619
-0.0211395
-3.49136
0.178553
-3.49656
0.114306
-3.33604
-0.18813
-3.22526
-3.60032
-0.0957463
1.26968
-3.33649
0.0147982
1.86399
-3.40838
0.120817
1.89958
-3.42099
0.0465194
1.33759
-3.35601
-0.0756641
0.974498
-3.43924
2.09484
-3.22549
-0.10935
-0.943619
-2.34599
-0.016726
-0.603001
-2.42614
0.0659387
-0.568777
-2.45183
-0.00241525
-0.943347
-2.34362
-0.155789
-1.23269
-2.31769
-0.31448
-2.47191
-0.0382354
-1.2504
-0.0197229
-1.32713
0.0132064
-1.33393
0.0351894
-1.23972
0.00593666
-1.15065
-1.47411
-0.115049
-0.574763
-1.7234
-0.00228569
-0.471135
-1.7983
0.0971735
-0.492322
-1.80787
-0.0195682
-0.577446
-1.73329
-0.235812
-0.670292
-1.74933
-0.248942
-1.79198
-0.038843
-1.75901
-1.1229
-0.0040889
-1.82626
-1.10577
-0.00778798
-1.83597
-1.10448
-0.0491092
-1.76296
-1.11678
-0.141137
-1.7746
-1.12135
-1.75117
-1.11082
0.0476902
-0.718032
0.00204392
-0.711131
-0.0609892
-0.709641
-0.0109265
-0.719213
0.0853298
-0.719293
-0.713581
0.0401497
-0.48683
-1.10367
-0.000868445
-0.60245
-1.0428
-0.0553615
-0.618234
-1.04568
-0.0380801
-0.502308
-1.09911
-0.0173889
-0.49119
-1.11655
-0.578891
-1.05086
0.0343315
-0.922283
-0.721779
0.00493744
-0.971642
-0.707185
-0.0454992
-0.967899
-0.70438
-0.00681485
-0.933379
-0.724397
0.036683
-0.924809
-0.73123
-0.971324
-0.681706
0.0126621
-0.493666
0.00110226
-0.497057
-0.00871573
-0.496648
0.0021315
-0.494573
0.0161595
-0.492705
-0.4958
-0.0163276
0.680564
-0.789924
-0.0205791
0.660623
-0.772059
-0.00951673
0.660254
-0.777124
-0.0020535
0.697777
-0.803221
0.0084903
0.711068
-0.809852
0.647396
-0.766171
-0.0102773
-0.107023
0.076088
-0.00890793
-0.117828
0.0698968
-0.00604873
-0.116319
0.0693349
-0.00618371
-0.100455
0.0739711
-0.00735778
-0.0960341
0.0770478
-0.113047
0.0713792
0.00422739
-0.157098
-0.00315466
-0.159527
-0.0103212
-0.159234
-0.00408632
-0.157414
0.00597779
-0.155902
-0.161361
-0.00420053
0.334593
-0.875214
-0.0119486
0.366626
-0.869687
-0.004274
0.365652
-0.885263
-0.00837484
0.337054
-0.895035
-0.00961621
0.311503
-0.901957
0.392586
-0.8903
-0.0151775
-0.306752
0.73261
0.00227691
-0.306859
0.725928
0.0166335
-0.305749
0.72638
0.000663822
-0.304748
0.731743
-0.0358008
-0.314262
0.739278
-0.294963
0.723128
0.000734299
0.224755
-0.002131
0.224145
-0.00263931
0.224379
-0.000952646
0.224725
-0.00186185
0.224639
0.225034
-0.00560238
-1.18692
-1.73124
-0.00353457
-1.17269
-1.70656
0.00365252
-1.16859
-1.72846
-0.00563848
-1.1766
-1.75521
-0.0192541
-1.18416
-1.78785
-1.15798
-1.72886
-0.00993003
-1.01712
0.572741
-0.0014018
-1.01894
0.563654
0.00583634
-1.01645
0.567009
0.000302798
-1.01433
0.57501
-0.0122572
-1.01603
0.583711
-1.01199
0.564884
0.000418162
0.45892
-0.00173608
0.457941
-0.00223454
0.459496
-0.00145283
0.460295
-0.000698076
0.460753
0.461107
0.0243041
-2.10952
-1.45228
-0.00460552
-2.03998
-1.46295
-0.0218069
-2.06517
-1.46122
-0.00798168
-2.09673
-1.46724
0.0305434
-2.13235
-1.47216
-2.05201
-1.46436
-0.0173283
-1.38877
-0.130679
0.0027696
-1.36448
-0.13195
0.0131705
-1.37626
-0.132297
0.0066182
-1.38805
-0.127115
-0.0145825
-1.40249
-0.124944
-1.36859
-0.133127
-0.0133921
0.0412746
0.00211547
0.0465322
0.0100349
0.0459401
0.00433257
0.0457086
-0.0142915
0.0436009
0.0485341
-0.00779342
-0.828167
-0.602122
1.43808
-0.00283016
-0.782638
-0.605579
1.38325
0.0107333
-0.771945
-0.613231
1.37161
0.0179329
-0.827115
-0.622704
1.44262
-0.000278877
-0.905499
-0.634241
1.55795
-0.847296
-0.613807
1.46082
-0.0490967
-0.64912
-0.2787
0.14875
-0.025849
-0.625808
-0.266259
0.0861825
-0.00695675
-0.620348
-0.25673
0.086241
-0.0107938
-0.66164
-0.236398
0.0747603
-0.0150182
-0.728959
-0.188431
0.0161154
-0.664914
-0.214891
0.0174916
0.00823553
-0.330971
-0.0363191
0.0197495
-0.352338
-0.00339646
0.041028
-0.35394
-0.00884092
0.0370636
-0.341643
-0.0315574
0.00751139
-0.311649
-0.0858645
-0.342637
-0.0351798
-0.000381967
-0.424579
-0.177161
-0.00952959
-0.419346
-0.177085
-0.0192444
-0.431504
-0.172012
-0.0135694
-0.464853
-0.163526
0.00884697
-0.494554
-0.162104
-0.436798
-0.168163
0.000382514
-0.528853
-0.174807
-0.00537367
-0.526846
-0.153003
-0.0214333
-0.532126
-0.140048
-0.0324573
-0.550359
-0.139868
-0.013285
-0.567495
-0.134661
-0.52526
-0.139713
0.00879432
-0.213197
0.00964154
-0.215233
0.00589963
-0.21663
-0.00269232
-0.224815
-0.00551186
-0.226275
-0.223041
-0.00491819
-0.170914
-0.00132921
-0.00484932
-0.175361
-0.00179283
-0.000608517
-0.174874
-0.00137858
0.000487866
-0.167597
0.00297466
-0.000412306
-0.167441
0.00623775
-0.169706
0.00113136
-0.0204335
-0.307225
-0.0180619
-0.0225616
-0.309489
-0.0167468
-0.0143453
-0.306994
-0.0161447
-0.00726038
-0.301983
-0.0125658
0.000304641
-0.300861
-0.00880485
-0.300998
-0.00811541
0.004475
-0.00541584
0.00528768
-0.00738317
0.00540684
-0.00875609
0.00386777
-0.00973426
0.00114626
-0.0090221
-0.00858112
-0.0024066
-0.184472
0.185549
-0.00380581
-0.187133
0.18674
-0.00443597
-0.188632
0.187883
-0.00225615
-0.188082
0.188877
0.000375429
-0.185623
0.18923
-0.185959
0.187466
-0.00176654
-0.348519
0.147752
-0.00354055
-0.351537
0.149432
-0.00640722
-0.352451
0.150543
-0.00553126
-0.351905
0.150383
-0.000972632
-0.350524
0.151539
-0.348382
0.153336
0.00331093
0.219605
0.00431051
0.218994
0.00299297
0.2187
0.000522985
0.219291
-0.000502569
0.220128
0.219348
-0.00228119
-0.418392
0.606223
-0.00397695
-0.422804
0.61124
-0.00438553
-0.423668
0.61196
-0.00204898
-0.428502
0.615043
0.000143733
-0.428824
0.615861
-0.426346
0.613956
-0.000983957
-0.494055
0.224399
-0.000598881
-0.497794
0.224038
-0.000387814
-0.498191
0.224857
-0.000464949
-0.501509
0.223468
0.000315875
-0.502352
0.224288
-0.498694
0.226
0.00238955
0.336867
0.00413317
0.334278
0.00470586
0.334042
0.00210826
0.333811
-0.00106322
0.335223
0.332992
0.000921481
-0.846975
0.000107101
-0.850895
0.000730275
-0.849884
-5.31717e-05
-0.85141
-0.00179282
-0.854562
-0.852202
0.00164919
-0.754902
-0.000502447
-0.756654
-0.00214932
-0.755676
-0.00015268
-0.757052
0.00370062
-0.75907
-0.755628
0.00162462
0.00362843
0.00491272
0.00303318
-0.00191339
0.0027579
-0.387388
0.246055
-0.131024
0.0937281
0.226936
-0.228633
0.103761
0.208983
-0.0929769
0.504511
0.220058
0.01625
0.817096
0.175435
-0.509588
0.259832
-1.0097
1.51062
-0.888304
0.227256
-1.48206
0.338836
-0.0586076
1.28115
-0.891523
-0.398113
1.17064
-0.326624
0.68124
-0.383392
0.121134
1.56494
-1.39328
-1.02035
-2.33705
0.774355
0.000188944
-0.217563
-1.48851
-1.18117
-1.08738
1.02819
-0.443844
-2.45126
-0.116214
0.426484
0.550054
0.0305461
1.83945
0.409958
0.28757
1.4578
0.121172
0.247951
2.38921
0.248771
-0.0655133
2.29573
0.371104
-0.29953
0.028808
0.148565
0.114945
-0.72533
0.191471
2.45958
-0.324197
0.184698
2.25991
-1.68686
0.0418376
2.97096
-0.765522
-0.558031
2.44517
0.571563
-0.689713
-1.56113
0.958018
-2.25607
0.226964
-1.21443
0.00809067
-2.15271
-0.560797
-1.62687
-0.860709
-0.807864
-2.2222
-0.457902
1.94981
0.732317
0.131955
1.39239
0.606674
1.01666
1.16569
0.301332
1.54063
1.0304
-0.0120621
0.897666
1.66682
-0.112454
1.58942
0.103064
-0.142696
1.51949
-0.15232
0.512863
0.691662
-0.279026
0.526975
0.10298
-0.638263
0.65699
0.71954
-0.584675
0.879895
2.07525
-0.0597735
1.24106
-0.332877
-0.67942
-0.721037
-0.0297943
-1.01807
-0.21118
-1.01202
0.065354
-1.12535
0.751235
-0.814743
-0.757125
0.494034
-0.174014
0.175794
0.650787
-0.44294
0.148885
0.701326
-0.501925
0.130748
0.348571
-0.589644
0.0412842
-0.141854
-0.673473
-0.0928537
-0.605973
0.0504869
0.349454
-0.680354
0.00456579
0.403045
-0.826611
0.0510532
0.0633993
-0.820477
0.0199348
-0.210372
-0.890351
-0.0101978
-0.0245446
-0.907591
-0.0114832
-0.88533
-0.0780649
0.225793
-0.528629
0.121631
-0.499168
0.0179082
-0.515321
-0.184424
-0.540509
-0.115736
-0.53117
-0.582478
-0.0448897
-0.120648
-0.400456
-0.0315886
-0.142006
-0.536148
0.0353773
-0.158023
-0.437674
-0.0686199
-0.10455
-0.361902
-0.19132
-0.114476
-0.340403
-0.0558126
-0.362812
-0.0359757
0.261895
-0.342
0.0533054
0.2587
-0.438935
0.122486
0.25383
-0.4611
0.123443
0.26326
-0.378967
0.0618895
0.242548
-0.306954
0.252756
-0.324745
-0.0278672
-0.36317
-0.0127201
-0.395992
0.0179665
-0.41531
0.0344027
-0.412091
0.03611
-0.377626
-0.380442
-0.17756
-0.25606
-0.623322
0.161561
0.0188087
-0.887438
0.377015
0.0197602
-0.735325
0.0741347
-0.25295
-0.440794
-0.332853
-0.352405
-0.225861
-0.101748
-0.397324
-0.101201
-0.0986903
-0.398169
0.100943
0.034304
-0.656577
0.305039
0.0435473
-0.688986
0.21492
-0.122843
-0.418957
-0.0170019
-0.165481
-0.261956
-0.121592
-0.321904
-0.0361524
-0.209521
0.0209008
-0.237236
0.0989197
-0.26456
0.0502078
-0.23128
0.0133001
-0.21754
-0.21231
0.026679
0.340403
-0.778185
0.148952
1.38479
-1.3985
0.274588
1.59524
-1.44314
0.39706
0.624995
-0.903856
0.0404208
-0.0487826
-0.369082
0.52916
-0.453897
-0.317246
0.441797
-0.182317
0.119165
0.816187
-0.524387
0.70388
0.986927
-0.665382
0.698498
0.530602
-0.319182
0.0930088
0.360609
-0.0658575
0.365552
-0.0652877
-0.112576
-0.209691
-0.0111755
-0.213801
0.169864
-0.232795
0.138535
-0.218813
0.0524921
-0.223151
-0.224135
0.098513
0.785469
-0.779832
0.482314
1.50302
-1.84704
0.6817
1.52918
-2.14525
0.785312
1.05736
-1.41521
0.109171
0.225994
-0.417745
0.124877
-0.616339
0.0819641
0.314073
0.207114
0.377958
0.68517
-0.0025329
0.53311
0.882928
-0.174283
0.683769
0.497924
0.0895974
0.38228
0.165354
0.296271
0.117214
0.324657
-0.0906769
-0.111821
0.0097846
-0.0610732
0.134371
-0.0536754
0.186669
-0.0919162
0.0983088
-0.137248
-0.137758
0.607115
1.08221
-1.36458
1.10752
0.99511
-2.56291
1.04148
0.755988
-2.65358
0.944586
0.638549
-1.8627
0.0300301
0.637183
-0.117873
0.592095
-1.42345
0.426256
0.427972
0.435101
0.51823
0.456722
0.443886
0.205177
0.397952
0.496811
0.0441797
0.306153
0.582993
0.0331338
0.233587
0.710916
0.25987
0.690016
-0.0117066
0.073441
0.0621679
0.101945
0.139604
0.101248
0.139682
0.0786632
0.0606461
0.0411665
0.0512643
0.678263
0.491196
-2.51272
0.883473
0.352927
-3.19149
0.57296
0.150257
-2.90612
-0.00737635
0.171713
-2.1826
-0.0855706
0.360885
-0.912019
0.148909
-2.41332
0.221526
0.0929981
0.611772
0.193398
0.0736452
0.751296
-0.0506584
-0.0023644
0.89349
-0.1687
-0.0481134
0.920861
0.0699474
-0.125875
0.959029
-0.0468009
0.955673
0.00988546
0.500241
0.0563132
0.50321
0.095242
0.475529
0.0858259
0.459158
0.0168993
0.410927
0.449472
0.285667
0.0118112
-2.72782
0.235349
-0.149754
-2.75293
0.27924
-0.30676
-2.44102
-0.457405
-0.609943
-2.24915
-0.189284
-0.465121
-2.14899
-0.483678
-2.62713
0.0894067
-0.353134
0.887307
0.0229015
-0.368057
1.03611
-0.0493399
-0.424984
1.08396
-0.144549
-0.653186
1.05931
0.02088
-0.699509
1.02799
-0.58906
1.08193
0.0411193
0.956662
0.134807
0.939765
0.217635
0.906828
0.141048
0.855425
0.0245032
0.798992
0.837838
0.016655
-3.08969
-0.0522418
-3.34616
-0.123599
-3.21155
-0.0697936
-3.02485
-0.0598795
-2.48225
-3.13417
0.00313084
-2.05676
-0.152478
-2.06826
-0.281521
-1.9123
-0.279113
-1.89319
0.0473078
-1.76457
-1.98744
0.00751462
-0.0710044
-0.105937
-0.0908655
0.106909
)
;

boundaryField
{
    seabed_topleft_surface
    {
        type            calculated;
        value           uniform 0;
    }
    seabed_topright_surface
    {
        type            calculated;
        value           uniform 0;
    }
    breakwater_top_surface
    {
        type            calculated;
        value           uniform 0;
    }
    breakwater_left_surface
    {
        type            calculated;
        value           uniform 0;
    }
    breakwater_right_surface
    {
        type            calculated;
        value           uniform 0;
    }
    water_front_surface
    {
        type            calculated;
        value           uniform 0;
    }
    water_back_surface
    {
        type            calculated;
        value           uniform 0;
    }
    water_left_surface
    {
        type            calculated;
        value           uniform 0;
    }
    water_right_surface
    {
        type            calculated;
        value           uniform 0;
    }
    water_top_surface
    {
        type            calculated;
        value           nonuniform List<scalar> 
180
(
0.336061
0.209594