/*--------------------------------*- C++ -*----------------------------------*\
| =========                 |                                                 |
| \\      /  F ield         | OpenFOAM: The Open Source CFD Toolbox           |
|  \\    /   O peration     | Version:  v1612+                                |
|   \\  /    A nd           | Web:      www.OpenFOAM.com                      |
|    \\/     M anipulation  |                                                 |
\*---------------------------------------------------------------------------*/
FoamFile
{
    version     2.0;
    format      ascii;
    class       volVectorField;
    location    "7.2";
    object      U;
}
// * * * * * * * * * * * * * * * * * * * * * * * * * * * * * * * * * * * * * //

dimensions      [0 1 -1 0 0 0 0];

internalField   nonuniform List<vector> 
1116
(
(0.129886 -0.000153433 -0.257397)
(0.129434 -4.65575e-05 -0.257213)
(0.129651 9.1262e-05 -0.257294)
(0.129762 -4.43011e-05 -0.257375)
(0.129616 3.57088e-05 -0.257327)
(0.129761 6.63779e-05 -0.257337)
(0.248842 -8.54755e-05 -0.103796)
(0.248281 -1.13843e-05 -0.104001)
(0.248596 3.74243e-05 -0.103883)
(0.248696 -3.44624e-05 -0.103843)
(0.248512 7.85964e-06 -0.103962)
(0.24867 1.7179e-05 -0.103813)
(0.352995 1.79963e-05 0.275207)
(0.352703 1.51678e-05 0.27531)
(0.35299 -5.49652e-05 0.275279)
(0.352835 -1.72303e-05 0.27524)
(0.352754 2.56858e-06 0.275155)
(0.353005 -2.07788e-05 0.275303)
(-0.241562 -0.000261647 0.358233)
(-0.242352 -0.000121814 0.35811)
(-0.241749 0.000147878 0.358126)
(-0.242043 0.000126346 0.358287)
(-0.242136 -2.11897e-05 0.358219)
(-0.241544 -0.000130048 0.358164)
(-0.944308 -0.00135008 0.196178)
(-0.947811 -0.000804426 0.196093)
(-0.946565 0.000872117 0.195954)
(-0.945636 0.00103026 0.196482)
(-0.945646 -0.000664567 0.196334)
(-0.94597 -0.00141929 0.195797)
(-1.36433 -0.00127914 -0.0154965)
(-1.37327 -0.00124233 -0.0160416)
(-1.37112 0.00108158 -0.0158343)
(-1.36709 0.00121244 -0.0154674)
(-1.36559 -0.000852722 -0.0157414)
(-1.37129 -0.00152893 -0.0170319)
(-1.59032 0.00403818 -0.301129)
(-1.60461 0.001554 -0.303461)
(-1.60145 -0.00213927 -0.302243)
(-1.5944 -0.00465236 -0.30229)
(-1.58855 0.00357597 -0.300505)
(-1.60507 0.00722383 -0.304706)
(-1.55731 0.00583211 -0.575882)
(-1.56255 0.0026186 -0.578967)
(-1.56105 -0.00338887 -0.577328)
(-1.5592 -0.00633111 -0.577653)
(-1.55747 0.00525699 -0.574024)
(-1.56252 0.00978281 -0.58012)
(-1.36807 0.00118734 -0.743906)
(-1.36001 0.00104658 -0.744788)
(-1.36115 -0.00150793 -0.74368)
(-1.36773 -0.0020131 -0.745145)
(-1.37457 0.00136305 -0.743222)
(-1.35455 0.000712412 -0.744921)
(-1.0789 -0.00526896 -0.720969)
(-1.07299 -0.00183442 -0.717692)
(-1.07451 0.00241529 -0.71737)
(-1.07713 0.0058424 -0.721776)
(-1.08527 -0.00690854 -0.725747)
(-1.0665 -0.0134114 -0.712162)
(-0.624291 -0.00405587 -0.544455)
(-0.634309 -0.00264773 -0.538462)
(-0.633645 0.00394587 -0.538504)
(-0.623331 0.00737592 -0.544886)
(-0.617845 -0.00546567 -0.550186)
(-0.642836 -0.00780354 -0.532075)
(-0.308806 0.00666608 -0.248128)
(-0.31205 0.00273069 -0.22768)
(-0.312692 -0.00417689 -0.230833)
(-0.309122 -0.00865991 -0.24681)
(-0.309015 0.00753301 -0.264564)
(-0.311608 0.0171815 -0.219954)
(0.245537 -0.0002747 -0.139642)
(0.245075 -9.82959e-05 -0.139755)
(0.245302 0.000133674 -0.139677)
(0.245306 -7.62326e-05 -0.1397)
(0.245154 9.93942e-05 -0.139745)
(0.24539 0.000140436 -0.139616)
(0.379019 -0.00012043 -0.078256)
(0.378361 -9.195e-05 -0.0786394)
(0.378722 4.7684e-05 -0.078485)
(0.378653 -5.19105e-05 -0.0783216)
(0.378482 2.47917e-05 -0.0784389)
(0.378856 0.000103412 -0.0784811)
(0.677111 -0.000128155 0.338296)
(0.675613 -0.000130799 0.338547)
(0.676236 2.16601e-05 0.338285)
(0.676423 -8.07937e-05 0.338523)
(0.675974 0.000108672 0.338682)
(0.676642 0.000192886 0.337914)
(0.683852 -0.000552053 0.82564)
(0.683357 -0.000265627 0.826558)
(0.683613 0.000204895 0.826119)
(0.683356 -0.000212536 0.82614)
(0.682978 0.000255188 0.826521)
(0.6841 0.000368195 0.82562)
(0.746253 -7.60249e-06 0.758724)
(0.745462 -0.00020863 0.759364)
(0.746958 -0.000291344 0.759089)
(0.744788 0.000149232 0.759086)
(0.741612 -0.000237087 0.758696)
(0.748564 -0.000522427 0.759626)
(1.48918 0.0188998 0.483995)
(1.50732 0.0142976 0.47838)
(1.49662 -0.0136803 0.479711)
(1.49824 -0.0229061 0.481748)
(1.49706 0.0155879 0.485942)
(1.49388 0.027977 0.481087)
(2.1803 0.00728339 0.409564)
(2.23826 0.00882524 0.430406)
(2.22522 -0.00749065 0.427824)
(2.19069 -0.0129058 0.411798)
(2.14339 0.00311604 0.396037)
(2.24309 0.0189644 0.442593)
(2.33903 -0.00533273 0.19514)
(2.40695 -0.000448596 0.215371)
(2.39347 -0.00338693 0.212159)
(2.35125 -0.00257101 0.197269)
(2.29123 -0.00197309 0.181274)
(2.43803 -0.0014564 0.221833)
(1.68514 -0.01255 0.173769)
(1.72505 -0.00265072 0.183544)
(1.71979 0.000731139 0.180622)
(1.69035 0.00455115 0.175244)
(1.64708 -0.00972929 0.171651)
(1.75586 -0.0154427 0.181834)
(0.558617 -0.0273877 0.154342)
(0.543439 -0.00844917 0.142251)
(0.556188 0.0105521 0.144628)
(0.551821 0.0275994 0.153811)
(0.542285 -0.0333294 0.16838)
(0.560644 -0.0552304 0.123986)
(0.609488 -0.0330378 0.0116837)
(0.548589 -0.010791 -0.0241034)
(0.556135 0.0228418 -0.0218291)
(0.611813 0.0517788 0.0125105)
(0.643779 -0.0342675 0.0376539)
(0.515212 -0.0622717 -0.0406727)
(0.355476 0.0104195 -0.473976)
(0.197853 0.00784641 -0.471837)
(0.216057 -0.00113858 -0.473641)
(0.348253 0.000922557 -0.476451)
(0.462345 0.0094135 -0.479572)
(0.149925 0.0335752 -0.467716)
(0.0589581 0.000363565 -0.958009)
(0.058269 0.000164266 -0.958385)
(0.058655 -0.000216712 -0.958163)
(0.058616 5.69069e-05 -0.958135)
(0.058359 -0.000115473 -0.958219)
(0.0588682 -0.000167549 -0.957838)
(2.06656 0.000422024 -0.619504)
(2.06677 0.000117825 -0.619512)
(2.06638 -0.000264932 -0.619457)
(2.06669 -9.28645e-05 -0.619362)
(2.06714 -8.05088e-05 -0.619865)
(2.06599 -3.72031e-06 -0.619344)
(3.82967 0.000497128 -0.0958246)
(3.82908 -0.000849735 -0.0969318)
(3.829 0.000378916 -0.0962698)
(3.82951 0.00277434 -0.0963452)
(3.83151 -0.00339269 -0.097252)
(3.82681 -0.00432019 -0.0954331)
(5.18788 -0.00218988 0.271809)
(5.18532 -0.00225847 0.269481)
(5.18696 0.00152101 0.270374)
(5.18549 0.00180252 0.271047)
(5.18737 -0.00413599 0.270648)
(5.18963 -0.00353878 0.270442)
(7.30446 0.00279009 -0.355526)
(7.32692 -0.00792371 -0.376725)
(7.31565 0.00238266 -0.36764)
(7.32459 0.0250268 -0.365556)
(7.28841 -0.0146804 -0.362417)
(7.30552 -0.0336138 -0.362136)
(6.43507 0.255211 -0.683233)
(7.27423 0.203553 -0.663324)
(7.14682 -0.230282 -0.646762)
(6.67653 -0.24186 -0.686849)
(6.31099 0.356276 -0.691703)
(7.43197 0.422163 -0.660192)
(-1.67393 -0.0605196 -0.219643)
(0.587088 0.133793 -0.202216)
(0.145426 -0.130057 -0.182447)
(-1.62037 0.0682433 -0.187653)
(-2.70519 0.0086636 -0.188038)
(2.10366 0.468436 -0.229949)
(-0.993999 -0.215505 0.226941)
(-0.978051 -0.135678 0.279551)
(-0.931648 0.103045 0.264257)
(-1.07211 0.13459 0.222892)
(-1.41816 -0.312664 0.187415)
(-0.375442 -0.453361 0.275291)
(-2.67864 -0.0371114 0.809229)
(-2.74244 -0.00916708 0.809509)
(-2.70833 0.0124845 0.812791)
(-2.68909 0.0473517 0.807776)
(-2.82733 -0.0995897 0.800483)
(-2.5316 -0.138833 0.809403)
(-3.24807 -0.0151538 0.252803)
(-3.29277 0.00317608 0.18408)
(-3.28559 0.000250887 0.203663)
(-3.25091 0.0197743 0.245316)
(-3.32698 -0.0209984 0.282427)
(-3.21101 -0.0439315 0.151154)
(-2.5574 -0.000232048 -0.665732)
(-2.60781 0.00734248 -0.750035)
(-2.5954 0.00729038 -0.728357)
(-2.57064 0.0134557 -0.680171)
(-2.57446 0.00953656 -0.636166)
(-2.57315 -0.00241445 -0.75293)
(0.125165 0.0208982 0.639312)
(-0.0884617 0.010012 0.497808)
(-0.0362772 -0.00238404 0.523013)
(0.119025 -0.00347214 0.652953)
(0.272829 0.00157008 0.766801)
(-0.06834 0.016747 0.496743)
(-1.51353 0.00115526 -2.24977)
(-1.51222 0.00012732 -2.24671)
(-1.5128 -0.000397287 -2.24792)
(-1.51272 0.00108432 -2.24854)
(-1.51277 -0.00127345 -2.24803)
(-1.51327 -0.00159941 -2.24861)
(2.61469 0.00331816 -3.50781)
(2.62005 0.00127522 -3.50686)
(2.61618 -0.000920985 -3.50547)
(2.61777 0.00164085 -3.50797)
(2.62221 -0.00400034 -3.51209)
(2.61177 -0.00521175 -3.50249)
(2.60314 0.0228245 -3.1391)
(2.63526 0.00607188 -3.13768)
(2.62474 -0.00426419 -3.15698)
(2.61708 0.00151897 -3.12833)
(2.60804 -0.0176851 -3.09824)
(2.60671 0.00319299 -3.17507)
(3.11524 0.156722 -2.15111)
(3.28262 0.132157 -2.21167)
(3.28012 -0.111718 -2.19927)
(3.2312 -0.221794 -2.17404)
(2.99884 0.0451214 -2.11362)
(3.38044 0.212209 -2.20431)
(-3.99415 0.219226 0.711863)
(-2.54786 0.245182 -0.13445)
(-2.34375 -0.13253 -0.104378)
(-3.53693 -0.0950485 0.454195)
(-5.11326 0.296002 1.19839)
(-2.25994 0.506786 -0.516907)
(-5.02348 -0.0907455 5.52144)
(-3.63015 -0.0513377 6.97989)
(-3.68164 0.0540611 6.91239)
(-4.89565 0.226838 5.63112)
(-5.64442 -0.00374825 5.12714)
(-2.3049 0.0269831 6.7712)
(-5.95656 -0.137566 3.11165)
(-5.85019 -0.123612 3.9277)
(-5.88294 0.0652804 3.83255)
(-5.99434 0.135965 3.09246)
(-6.27278 -0.202003 2.82891)
(-5.17222 -0.267354 4.17922)
(-4.07262 -0.0439712 1.42476)
(-4.26188 -0.0588298 1.47153)
(-4.25906 0.0230323 1.41531)
(-4.10966 0.0585672 1.3782)
(-4.16647 -0.14462 1.38703)
(-4.1022 -0.186694 1.65124)
(-3.69944 0.00825907 2.17979)
(-3.6723 -0.0088272 2.04977)
(-3.67248 -0.0240165 2.11011)
(-3.66729 -0.0127469 2.22043)
(-3.67357 -0.0502669 2.25387)
(-3.57319 -0.031914 2.12145)
(-4.52147 0.018731 0.254039)
(-4.57565 -0.00114127 0.189849)
(-4.56501 -0.0314135 0.229814)
(-4.55566 -0.0445729 0.236018)
(-4.56806 0.0106373 0.227432)
(-4.53437 0.0435504 0.221477)
(-4.0075 0.0265236 -3.96655)
(-4.04452 0.0129333 -3.95614)
(-4.03432 -0.0172413 -3.9283)
(-4.05378 -0.0260822 -3.98103)
(-4.08062 0.00786255 -4.0163)
(-4.04411 0.0316993 -3.87412)
(-3.24365 0.0295658 -2.8084)
(-3.33376 0.0180361 -2.89623)
(-3.30856 -0.0176696 -2.8642)
(-3.26939 -0.0260414 -2.79699)
(-3.21471 0.0118894 -2.73642)
(-3.31768 0.0327961 -2.86478)
(-0.265093 -0.516797 0.0371969)
(0.714277 -0.134299 -0.385622)
(-0.197889 -0.247469 0.0153421)
(0.546446 -0.225003 -0.308088)
(1.57766 -0.0231934 -0.233773)
(-0.00670246 0.816613 0.20469)
(0.440071 0.389511 0.156212)
(1.6248 -0.192127 -0.365138)
(1.73444 -0.23913 -0.705577)
(1.38306 0.251057 -0.028664)
(2.87181 -0.650864 -0.184114)
(-0.100881 0.0422533 0.0833955)
(3.01748 -0.016047 -0.356336)
(3.9708 -0.120449 -1.02067)
(4.55345 -0.270135 -2.00262)
(3.68408 0.00587505 -0.596165)
(4.6246 -0.688317 -0.539948)
(3.14608 -0.470044 -1.05758)
(4.72792 -0.556493 -0.779149)
(6.29147 0.00154496 -2.43744)
(6.22617 -0.155158 -3.05758)
(5.74295 0.33156 -1.99293)
(5.29002 -0.156198 -0.560091)
(4.89959 -0.27416 -1.66333)
(5.72212 -0.201781 -1.51059)
(6.5476 0.309828 -2.67737)
(6.36005 -0.0665797 -3.30066)
(5.96893 0.312641 -2.40742)
(5.40454 0.118128 -0.739834)
(5.13446 0.107891 -1.48389)
(5.41379 -0.0835891 -1.64564)
(6.23792 0.385532 -2.52289)
(6.07872 0.186509 -3.2747)
(5.51508 0.50721 -2.23917)
(5.27009 0.223601 -0.854375)
(4.99202 0.36534 -0.850921)
(5.05397 -0.00460273 -1.53274)
(6.06031 0.474234 -2.50322)
(5.9606 0.360408 -3.24167)
(5.63662 0.408548 -2.01331)
(5.30235 0.0723975 -0.824441)
(5.9173 0.179463 -1.0276)
(5.00942 -0.137234 -1.38288)
(5.70286 0.293188 -2.44296)
(6.12587 0.1896 -3.20415)
(6.03071 0.177182 -2.29548)
(5.40005 0.0266321 -0.872514)
(6.2372 0.165933 -1.74093)
(4.65372 -0.19703 -1.17511)
(5.09725 0.0921236 -2.25642)
(5.87898 -0.248823 -3.12894)
(5.53115 -0.101463 -2.26246)
(4.95669 0.133438 -1.05549)
(5.60064 0.270025 -1.98789)
(3.69931 -0.0734898 -0.947283)
(4.29887 0.131068 -1.85975)
(5.02895 -0.572236 -2.82637)
(4.39987 -0.472338 -2.0725)
(3.98079 0.0947915 -1.35087)
(4.30426 0.29997 -1.76855)
(2.08077 -0.024577 -0.603971)
(3.19583 0.347222 -1.32376)
(3.66183 -0.645397 -2.28699)
(2.75002 -0.832984 -1.88561)
(2.44941 -0.0686902 -1.77543)
(2.49992 0.293268 -1.14301)
(-0.101926 -0.144203 0.7176)
(1.64157 0.193343 -0.898895)
(1.77514 -0.498625 -1.29198)
(0.66529 -0.707227 -0.913104)
(-0.23033 -0.0334097 -0.493945)
(0.392736 0.199799 0.114714)
(-0.961444 -0.889265 1.2253)
(1.38075 0.206149 2.1182)
(-0.857211 -0.308432 1.44852)
(1.43326 -0.0774206 1.73714)
(2.58759 -0.184499 1.89596)
(-0.222054 1.10213 1.26733)
(0.682258 0.707684 1.95371)
(3.1097 0.567619 4.38304)
(2.11863 -0.437854 3.22691)
(3.19633 0.180791 3.5807)
(3.75621 -1.11394 3.07474)
(-0.727402 -0.134275 1.58571)
(4.556 0.239269 3.72598)
(5.61685 0.719271 4.94076)
(4.37834 -0.630559 4.45425)
(5.10822 -0.460896 4.27593)
(6.26075 -1.01058 3.0389)
(3.32638 -0.530317 2.52494)
(5.41676 -0.225524 3.789)
(5.50746 0.647483 2.96127)
(4.40263 -0.867729 3.34675)
(5.32371 -0.753432 3.13583)
(5.5732 -0.724406 2.26895)
(4.06554 -0.299251 2.03624)
(2.80965 -0.394124 1.3813)
(-1.48501 -0.414058 2.00358)
(-1.7994 -1.46174 2.66331)
(-0.152693 -1.99674 0.94588)
(2.54425 -1.56148 0.990627)
(1.74683 -0.760288 1.54494)
(-2.71527 -0.661997 -0.423176)
(-3.79884 -1.50355 0.872342)
(-4.27658 -2.33755 1.32434)
(-3.30541 -2.75474 1.15246)
(0.563688 -2.26938 0.801349)
(4.42382 -0.225572 2.3944)
(-6.08424 -0.353557 -0.338668)
(-7.90087 -1.41239 1.14653)
(-6.82282 -2.41277 2.84837)
(-0.995454 -1.70089 2.82486)
(4.02529 -1.32848 0.932273)
(6.67144 0.156917 2.36314)
(-8.56277 -0.102836 0.330852)
(-9.0321 -0.231185 0.440783)
(-6.96823 -0.449278 3.10966)
(-2.99398 0.269562 2.10606)
(2.23092 -0.689556 0.164112)
(7.18674 0.853324 1.19324)
(-7.2297 0.258972 0.313117)
(-7.00262 1.63848 0.401998)
(-4.52206 1.83937 2.0445)
(-3.30523 1.84768 -0.104628)
(-1.31325 1.10558 -1.53739)
(4.0506 1.81593 0.119412)
(1.75023 0.398228 -0.816171)
(1.00612 1.9494 1.79371)
(0.0871331 0.148647 2.19691)
(0.667096 -0.325506 -0.940326)
(3.56001 -0.046165 -3.27203)
(2.66755 1.65299 -0.0449308)
(3.75583 0.156695 -4.27553)
(2.50509 1.1911 -0.725342)
(0.749107 -1.62296 1.73805)
(1.95273 -0.491842 -3.59271)
(3.8665 -0.360913 -5.46577)
(1.61135 0.495455 -2.34637)
(3.49594 0.164406 -3.05876)
(4.32761 0.358006 -3.18269)
(4.19381 -0.838246 -1.6108)
(3.34534 -0.478787 -2.96458)
(2.5377 -0.387183 -2.95999)
(3.2393 -0.0164819 -2.6031)
(-1.47917 -0.676067 1.24745)
(0.749672 0.25306 2.27834)
(-1.34204 -0.224171 1.82713)
(1.23901 0.223152 3.17326)
(2.47494 -0.291744 3.17979)
(-0.651451 0.714088 1.13693)
(-0.669939 0.0345893 2.53082)
(-1.07124 0.336107 6.67571)
(0.298069 -0.142892 4.84658)
(-0.336182 0.635815 5.40003)
(-1.03017 -0.642359 4.62814)
(-1.33129 -0.0219959 1.18364)
(-1.35752 0.017418 4.12335)
(-0.242727 0.554734 7.47503)
(-0.720679 -0.557776 7.54797)
(0.927164 -0.898351 5.80796)
(0.132345 -0.449398 4.11899)
(-1.71184 -0.248893 1.65297)
(-1.89649 -0.0199275 -1.83733)
(-2.50749 0.361628 -4.45424)
(-2.55213 -0.247677 -5.11864)
(-2.26376 -0.386523 -4.65946)
(-2.77663 -0.276479 -4.17672)
(-2.98962 -0.352362 -2.77659)
(-2.21228 -0.0814486 -6.26693)
(-1.72462 -0.227581 -6.78019)
(-1.58606 -0.105646 -6.98242)
(-1.26316 -0.272543 -6.2884)
(-1.51133 -0.282133 -6.1775)
(-0.980484 -0.11934 -4.88663)
(-1.02877 0.153962 -5.22802)
(-1.04723 -0.233505 -5.24955)
(-1.31286 -0.78941 -5.10248)
(-0.38372 -0.923325 -3.98254)
(0.0126988 -0.793505 -3.12635)
(-1.17521 -0.140857 -2.28375)
(-0.23236 -0.577451 -3.01144)
(-2.27031 -0.866853 -2.30123)
(-1.91836 -1.40587 -3.28477)
(-0.396224 -1.36709 -2.99551)
(-0.271125 -1.56429 -0.817331)
(1.20879 -0.139509 -0.120366)
(-1.84479 -1.06419 0.618321)
(-2.52963 -0.906762 1.66962)
(-3.3497 -1.06864 0.902851)
(-0.914212 -0.168925 -1.93856)
(2.52881 -0.781587 -3.2373)
(3.91738 -0.0212996 -2.62299)
(-3.02116 -0.198546 2.66088)
(-0.506052 0.604573 3.68973)
(-0.257568 0.531306 3.7172)
(-0.846232 1.8623 1.78058)
(-0.532861 0.950942 -0.612905)
(2.2445 0.476436 -1.55413)
(1.37564 0.2529 3.79019)
(0.999543 0.450301 6.19644)
(-0.233918 -0.377406 5.94558)
(0.238525 0.687767 2.44468)
(0.815548 0.443458 -0.711407)
(2.10328 0.997486 0.0269416)
(-1.88705 -0.943025 -2.50411)
(-6.01595 -0.343785 5.25206)
(-4.1033 -1.61327 4.72613)
(-2.15101 1.22037 -2.23618)
(1.60836 0.185246 -4.63156)
(-5.61146 0.86799 0.173885)
(5.90702 -0.518811 -5.46267)
(4.78894 -0.309304 -4.20856)
(5.04584 0.838962 -4.04743)
(4.96159 1.60792 -4.43472)
(4.84955 -0.497504 -4.91003)
(3.39289 -1.04651 -3.58482)
(-0.589542 -0.307206 0.0904241)
(0.466101 0.103834 0.751634)
(-0.226513 -0.28839 0.826949)
(1.23925 0.200276 2.10185)
(2.60206 -0.356596 2.51325)
(-0.14708 0.485974 -0.130078)
(-1.59961 -0.315977 1.46641)
(-2.0832 0.171098 4.72107)
(-1.40548 -0.0891436 3.34205)
(-2.99621 0.808403 4.39771)
(-3.37447 -0.477762 4.0734)
(-1.68912 0.400806 -1.3887)
(-2.84693 -0.65928 2.87146)
(-2.5979 -0.124675 5.34827)
(-1.83048 -0.20966 5.6051)
(-1.01618 0.186495 3.25767)
(0.546013 0.844269 0.19762)
(-1.80171 0.627659 -0.160701)
(-3.42935 0.0163574 -0.0447638)
(-3.59105 0.518665 -0.899337)
(-3.30262 0.33218 -0.25243)
(-2.82845 0.267315 -1.28341)
(-2.61294 -0.0612552 -2.17942)
(-3.15148 -0.139293 -0.279783)
(-0.616652 0.0538413 -0.606401)
(-0.639336 0.222609 -0.773916)
(-0.420422 0.0330971 -0.143286)
(0.0240043 -0.224488 -0.172143)
(0.366929 -0.29474 0.27853)
(-0.583127 -0.152442 0.705202)
(0.731715 -0.0698539 -0.322402)
(0.335454 0.237396 0.815656)
(-0.284372 -0.455589 0.653937)
(0.231581 -0.500021 -0.237378)
(0.917353 -0.475365 0.0787502)
(0.576409 0.104686 1.95204)
(2.47676 -0.489085 1.16052)
(2.26074 -0.0475832 2.05094)
(1.47329 -0.491815 1.84852)
(1.43825 -0.490163 0.876695)
(1.5934 -0.887723 -0.353887)
(0.697179 -0.126282 1.48269)
(1.71877 -0.860043 2.24453)
(3.12428 -0.166806 3.07199)
(3.09807 0.171156 1.99063)
(2.01536 1.16777 1.40072)
(1.43662 0.333189 -1.28629)
(2.27127 0.0493318 -0.0806332)
(-0.872879 -0.302798 2.75085)
(3.31193 0.33831 1.88293)
(4.54854 0.185539 0.192051)
(2.31621 1.16577 -0.110143)
(0.920239 1.09947 -0.833943)
(0.753917 0.156161 -1.29599)
(1.86725 0.0654774 0.21685)
(3.3923 0.245365 0.336863)
(3.98362 -0.406325 -0.423424)
(3.464 -0.0893299 -2.48237)
(1.30631 0.86603 -2.1379)
(2.99436 0.532318 -2.01375)
(-5.1146 -0.828566 0.854694)
(-6.12651 -0.192639 1.85124)
(-6.86505 0.980058 2.26453)
(2.52921 1.52217 -3.57317)
(3.31033 -0.101775 -3.93805)
(-4.76156 0.0218497 -0.607276)
(4.85285 0.000576728 -3.04561)
(5.07844 0.105443 -3.42839)
(4.79544 0.674129 -3.89044)
(4.34939 0.927898 -3.5614)
(4.48638 -0.57075 -3.32563)
(4.24071 -0.70924 -3.01328)
(-2.68176 -0.008221 -2.37784)
(-2.67596 -0.00334257 -2.37804)
(-2.67865 0.00704805 -2.37815)
(-2.68055 0.00153984 -2.37716)
(-2.67951 0.0025309 -2.37762)
(-2.68173 0.00289704 -2.37846)
(-2.68216 -0.0733694 -3.05438)
(-2.72538 -0.0203242 -3.14539)
(-2.69905 0.0418308 -3.10908)
(-2.71763 -0.0324039 -3.07871)
(-2.73204 0.0576754 -3.08838)
(-2.68381 0.0762563 -3.07356)
(-1.69508 -0.166687 -0.224157)
(-1.94462 -0.0605215 -0.462901)
(-1.79204 0.0694993 -0.382295)
(-1.84525 -0.0857029 -0.304314)
(-1.96508 0.143535 -0.298748)
(-1.66827 0.199717 -0.286282)
(3.17543 0.00252853 -3.08286)
(3.18366 0.00252607 -3.08392)
(3.18315 0.00026761 -3.08313)
(3.17798 -0.00480825 -3.08202)
(3.17101 -0.00702743 -3.07806)
(3.18111 -0.00237391 -3.07839)
(1.84042 0.00075886 -1.81098)
(1.79201 0.011589 -1.8739)
(1.89357 -0.00673586 -1.88282)
(1.78151 -0.0528212 -1.81688)
(1.57329 0.00020198 -1.72752)
(1.99522 0.0447043 -1.90249)
(-5.09014 -0.0418123 5.78228)
(-5.97985 -0.0255428 5.4365)
(-5.403 -0.00224401 5.48289)
(-5.6559 -0.0261438 5.72581)
(-6.25315 0.00105799 5.81729)
(-4.71139 0.0827359 5.28227)
(-3.69457 0.061822 -0.360566)
(-3.61029 0.0338485 -0.351189)
(-3.61257 -0.0125638 -0.459621)
(-3.66025 -0.0200686 -0.311032)
(-3.74111 0.0184435 -0.10655)
(-3.62688 0.0961355 -0.596638)
(-10.0424 0.151204 3.55968)
(-9.6853 0.135079 3.50436)
(-9.53117 -0.077342 3.27482)
(-9.97229 -0.0891625 3.61648)
(-10.4845 0.0217568 4.09182)
(-9.33747 0.119199 3.13755)
(-9.74762 0.15816 4.91947)
(-9.99997 0.102978 5.55302)
(-9.75762 -0.0781968 5.22222)
(-9.95109 0.0345089 5.31798)
(-10.4521 -0.14405 5.594)
(-9.10509 -0.139011 4.62819)
(-5.22667 0.145817 4.27079)
(-4.94582 0.158129 4.3223)
(-4.75046 -0.0867137 4.21289)
(-5.14934 -0.142026 4.37807)
(-5.75989 0.0985766 4.49416)
(-4.44265 0.36292 4.09597)
(-9.64774 0.00469613 6.18558)
(-9.09231 0.0331653 6.78503)
(-8.86186 0.0178611 6.68235)
(-9.6016 0.06084 6.46519)
(-10.042 0.0938609 6.11817)
(-8.43464 0.190809 6.5749)
(-8.66701 -0.00885242 5.83319)
(-8.75549 0.0203813 6.44011)
(-8.69233 0.0674356 6.44747)
(-8.76224 0.182793 6.01698)
(-9.09871 -0.0477252 5.80391)
(-8.26171 -0.139455 6.77275)
(-9.26169 0.0811402 5.22054)
(-9.05198 0.170165 5.78368)
(-8.90491 -0.0859569 5.71823)
(-9.22896 -0.0551091 5.39155)
(-9.79865 0.127674 5.13133)
(-8.34134 0.399959 5.61163)
(-10.669 -0.0766747 5.09592)
(-10.8748 -0.054908 6.26651)
(-10.9118 0.0293521 6.3632)
(-10.7477 0.0851127 5.37156)
(-10.7622 -0.00248595 4.58397)
(-10.5612 0.0424829 6.50913)
(-8.95065 -0.118757 2.79545)
(-9.11871 -0.10582 3.23701)
(-9.12366 0.0755459 3.1922)
(-8.92637 0.208466 2.65699)
(-8.83404 -0.0700711 2.17317)
(-9.10453 -0.16064 3.947)
(-8.0554 -0.115517 4.12715)
(-7.90322 -0.0596206 5.49182)
(-7.93981 0.077014 5.52069)
(-8.06671 0.159004 4.34472)
(-8.35398 -0.0665666 3.6541)
(-7.23318 -0.0933208 5.78955)
(-7.14086 -0.102393 1.06345)
(-7.41475 -0.0786042 2.02989)
(-7.5189 0.0464495 2.15277)
(-7.14005 0.0664794 1.13812)
(-7.05447 -0.0854101 0.413924)
(-7.41843 -0.13775 2.64906)
(-3.52929 -0.0228863 -5.3599)
(-3.91619 -0.0212991 -4.91885)
(-3.95046 -0.00333974 -4.88632)
(-3.46707 0.00480495 -5.43865)
(-3.0828 0.0303718 -5.85958)
(-4.45589 0.0311853 -4.27826)
(-5.42421 -0.10378 0.9143)
(-5.95185 -0.0788889 1.46416)
(-5.97051 0.0718443 1.43337)
(-5.48211 0.0976439 0.94757)
(-5.48917 -0.141691 0.71087)
(-5.82187 -0.243542 1.89693)
(-2.66299 -0.0347744 -2.8108)
(-2.68915 -0.0201506 -2.9801)
(-2.69033 0.00408011 -3.01893)
(-2.65882 -0.00969231 -2.84992)
(-2.66444 -0.104398 -2.94971)
(-2.83509 -0.106508 -2.64735)
(-1.54232 0.038368 -4.27329)
(-1.47463 0.0404671 -4.38225)
(-1.46217 -0.0367344 -4.38475)
(-1.55182 -0.0663273 -4.2628)
(-1.58809 0.0531485 -4.20575)
(-1.47338 0.0794599 -4.44169)
(-1.92307 0.021498 -0.519487)
(-1.73027 0.0408781 -0.826784)
(-1.74177 -0.0398723 -0.914668)
(-1.90112 -0.0521906 -0.576975)
(-1.94838 -0.0207351 -0.532314)
(-1.84134 -0.0107181 -0.691942)
(-1.86531 0.0249105 -1.48942)
(-1.79547 0.0357316 -1.64637)
(-1.78189 -0.0288944 -1.63637)
(-1.86494 -0.0485764 -1.51169)
(-1.88424 0.0336551 -1.489)
(-1.70131 0.0456664 -1.65343)
(-1.3415 0.010935 -2.13385)
(-1.34917 0.00937489 -2.16176)
(-1.34935 -0.00636491 -2.15621)
(-1.33724 -0.00951775 -2.15181)
(-1.32891 0.0127357 -2.14531)
(-1.34187 0.0167522 -2.15943)
(-2.03679 -0.00342 1.93581)
(-1.97492 -0.0195981 1.89817)
(-1.97962 -0.0118689 1.89236)
(-2.05027 -0.0133468 1.9865)
(-2.08174 0.00409862 2.02548)
(-1.90151 0.0266012 1.85848)
(-0.795189 -0.00938608 0.437999)
(-0.802047 -0.00968627 0.397934)
(-0.804644 -0.00457002 0.401453)
(-0.801489 -0.00807329 0.453173)
(-0.809144 -0.00609976 0.465446)
(-0.789892 -0.003095 0.396918)
(-0.781584 0.00430842 -0.831241)
(-0.790326 0.00230153 -0.831462)
(-0.789645 -0.00824444 -0.828805)
(-0.786883 -0.00886672 -0.824021)
(-0.783478 0.00286288 -0.822428)
(-0.797798 0.00545142 -0.818888)
(-1.31098 0.00699408 0.883037)
(-1.3178 -0.0127369 0.995826)
(-1.33746 -0.00624043 0.977501)
(-1.35597 -0.00458518 0.886623)
(-1.34568 -0.0152088 0.809757)
(-1.35728 0.00428023 1.03376)
(1.01185 -0.0151932 0.436519)
(0.999532 -0.00860697 0.433452)
(0.999536 0.0113507 0.440624)
(1.01091 0.0202043 0.442752)
(1.02824 -0.0203555 0.422366)
(0.992167 -0.0346712 0.46751)
(0.118282 0.0016233 -1.30602)
(0.117287 0.000171888 -1.3029)
(0.117455 -0.00374847 -1.30527)
(0.119869 -0.00171658 -1.30474)
(0.121408 -0.000762975 -1.31479)
(0.117188 -0.00134344 -1.29493)
(-2.88906 -0.000487688 -3.24378)
(-2.84487 -0.00565055 -3.12073)
(-2.8986 0.000823608 -3.13535)
(-2.93235 0.00158715 -3.22041)
(-2.98118 -0.0131923 -3.3)
(-2.90217 -0.0120652 -3.09144)
(1.65875 -0.00934985 -1.15733)
(1.64429 -0.00675636 -1.16382)
(1.64853 0.00312781 -1.15138)
(1.6596 0.00836121 -1.14878)
(1.67467 -0.00770769 -1.14923)
(1.64275 -0.0152181 -1.13516)
(0.790918 0.00091955 -2.33797)
(0.785976 -0.000350719 -2.3358)
(0.788993 -0.00238234 -2.33688)
(0.790659 -0.00203446 -2.33615)
(0.791395 -0.000915352 -2.3404)
(0.791445 2.43244e-05 -2.33283)
(-3.53394 0.0191039 -2.95556)
(-3.53582 0.0134528 -2.92366)
(-3.53896 -0.0180395 -2.92619)
(-3.5755 -0.021559 -2.92524)
(-3.6161 0.0142964 -2.92907)
(-3.54152 0.0245245 -2.93297)
(0.924329 -0.0185886 -4.44215)
(0.902319 -0.00876866 -4.30723)
(0.909359 0.0123505 -4.35706)
(0.929389 0.014081 -4.42014)
(0.9476 -0.00519634 -4.49283)
(0.906207 -0.0165555 -4.32123)
(0.881794 -0.0121436 -1.68366)
(0.886904 -0.0069062 -1.70475)
(0.886956 0.00907837 -1.70822)
(0.886427 0.0109339 -1.70249)
(0.885072 -0.00618767 -1.70006)
(0.891088 -0.0132605 -1.70789)
(2.14292 -0.00877929 0.0885309)
(2.16337 -0.0118279 0.161852)
(2.19619 0.00163116 0.214439)
(2.22671 0.0315976 0.235815)
(2.24385 0.0147836 0.295475)
(2.18057 -0.0139146 0.194361)
(1.38818 -0.0582655 -4.1781)
(1.4099 -0.0739718 -4.02834)
(1.41011 -0.0121336 -4.01124)
(1.29873 -0.00599844 -4.30491)
(1.06964 -0.0272573 -4.74959)
(1.19189 -0.0106761 -4.36307)
(0.651906 0.0118343 -0.745145)
(0.754816 0.0177629 -0.719466)
(0.748012 0.0486968 -0.709966)
(0.63525 0.0636505 -0.722663)
(0.448237 0.0281145 -0.770363)
(0.595311 0.00512805 -0.703637)
(0.463121 0.00186747 -0.143863)
(0.459023 -0.00319526 -0.152252)
(0.452762 -0.0228356 -0.158829)
(0.456095 -0.0360132 -0.180522)
(0.479419 0.00149489 -0.184407)
(0.466456 0.0194322 -0.176178)
(0.0676646 -0.000539814 -1.95678)
(-0.00969846 0.000860724 -1.91728)
(-0.0571329 -0.0159788 -1.96388)
(-0.0374098 -0.0471877 -2.1173)
(-0.0325198 -0.0390589 -2.26776)
(-0.0246088 -0.00806214 -1.9748)
(0.624751 0.00854796 -1.88771)
(0.618098 0.0158237 -1.91579)
(0.613029 0.0139509 -1.9174)
(0.647942 0.00152295 -1.89429)
(0.681245 -0.00921346 -1.86716)
(0.676801 -0.00419774 -1.86856)
(0.224812 -0.00406894 0.196632)
(0.227951 -0.0102664 0.195057)
(0.2276 -0.00376067 0.193506)
(0.210223 0.0022052 0.197209)
(0.197117 -0.00101632 0.194449)
(0.214074 -0.000228956 0.18907)
(0.452123 -0.0191593 -0.92153)
(0.451751 -0.0384232 -0.942325)
(0.455002 -0.0260623 -0.937309)
(0.434937 -0.0187342 -0.903235)
(0.413008 -0.00575478 -0.898729)
(0.416317 0.00809404 -0.904555)
(0.204329 0.00459171 -1.47327)
(0.211715 0.00814078 -1.46892)
(0.217754 0.00835554 -1.45882)
(0.222118 0.00691813 -1.45986)
(0.216836 0.00332003 -1.45878)
(0.212257 0.000994782 -1.45507)
(-0.216888 -0.00222792 0.209991)
(-0.21771 -0.00505089 0.20908)
(-0.219531 -0.00673485 0.208106)
(-0.218047 -0.00571508 0.210243)
(-0.217443 -0.000666777 0.212794)
(-0.215961 0.0014898 0.204382)
(-0.343295 -0.00188923 -1.01253)
(-0.349237 -0.00373731 -1.02603)
(-0.355414 -0.00670179 -1.03329)
(-0.353663 -0.011998 -1.03162)
(-0.355072 -0.00498999 -1.02158)
(-0.3592 0.00259984 -1.01395)
(-0.180882 0.00299945 -1.64897)
(-0.179371 0.00659148 -1.65518)
(-0.178977 0.0059629 -1.654)
(-0.179248 0.00237529 -1.65337)
(-0.179524 -0.000684424 -1.65392)
(-0.177794 -0.000783239 -1.64828)
(-0.572061 -0.00233635 -0.0262353)
(-0.576713 -0.00492588 -0.0279102)
(-0.57947 -0.00684998 -0.0282463)
(-0.584749 -0.00568849 -0.0268503)
(-0.586544 -0.000628086 -0.0235367)
(-0.581411 0.00108555 -0.0312784)
(-0.219571 -0.00109585 -1.96082)
(-0.22528 -0.00136502 -1.98271)
(-0.22624 -9.82752e-05 -1.98765)
(-0.225463 -0.00114624 -2.01381)
(-0.22677 -0.000355564 -2.01794)
(-0.23249 0.00107683 -1.99639)
(-0.725599 0.00208681 -1.74871)
(-0.724671 0.00526454 -1.75204)
(-0.723777 0.00724853 -1.74968)
(-0.72403 0.00589541 -1.74736)
(-0.72533 -0.000265249 -1.74976)
(-0.72438 -0.00213911 -1.74718)
(-2.01223 0.0011265 0.619907)
(-2.02811 0.000575751 0.618831)
(-2.02853 8.77129e-05 0.616476)
(-2.03534 0.00220593 0.620488)
(-2.0355 -0.00228635 0.625376)
(-2.03394 -0.00361185 0.610231)
(-0.875974 0.0019296 -4.72314)
(-0.867094 0.00141892 -4.73967)
(-0.870931 -0.00225688 -4.73437)
(-0.867108 -0.00323355 -4.74762)
(-0.870668 0.00334102 -4.76582)
(-0.870526 0.00482399 -4.73906)
(-0.44733 0.00102902 -0.997397)
(-0.437112 0.00385293 -0.995722)
(-0.43804 0.00681618 -0.99292)
(-0.437767 0.00765824 -0.988631)
(-0.442265 -0.000263202 -0.987147)
(-0.433487 -0.00399359 -0.989712)
(1.01858 -0.122726 -0.566683)
(1.19116 0.124558 -0.0154815)
(1.11424 -0.407019 0.115107)
(2.72637 0.0626317 1.33966)
(3.66203 -0.28918 1.78373)
(0.679904 0.339177 -0.776207)
(1.86462 -1.17992 -0.931403)
(1.50877 -0.189059 0.547083)
(1.55799 0.372542 0.215246)
(3.04795 -0.414394 0.65672)
(4.36142 -0.0513508 1.61792)
(2.24717 0.93854 -1.13391)
(2.45141 -1.18827 8.33417)
(0.723303 0.220694 -6.10382)
(2.01256 0.404984 6.25544)
(3.0921 -0.855304 5.28899)
(2.46743 -0.240039 -3.67874)
(2.79212 1.14762 8.69239)
(-1.77114 -0.382356 0.983902)
(-1.88021 0.204543 3.62871)
(-1.71368 -0.170231 2.66688)
(-3.24843 0.764709 4.18927)
(-4.04562 -0.402122 3.89405)
(-1.46263 0.330526 -0.354464)
(1.01872 0.0111864 1.31986)
(-2.47863 0.176388 3.28653)
(1.53614 -0.0050144 2.77465)
(-1.87875 0.545325 4.57272)
(-4.60812 -0.503388 4.51826)
(3.12104 -0.369162 -0.336522)
(6.22798 0.896333 -1.52638)
(-0.698073 0.553161 7.65904)
(3.63368 0.026345 5.76814)
(0.919719 -0.0740094 7.37283)
(-0.865139 -1.04725 5.54598)
(6.22589 -0.296207 -3.14402)
(-0.864941 -0.606114 3.04077)
(-0.144095 -0.100447 2.37755)
(0.990357 0.365119 2.30019)
(1.80941 1.41916 1.23085)
(2.02496 1.24803 1.55296)
(1.29233 0.404966 2.33838)
(2.13436 -0.30092 3.85915)
(3.18488 0.151503 2.58084)
(4.80186 0.603135 1.75803)
(4.3633 0.47422 2.3838)
(1.61708 0.742333 4.62783)
(2.59786 0.65499 3.32961)
(2.98899 -0.671518 1.27665)
(4.76802 -0.256907 -0.268345)
(4.51508 0.096401 -1.53266)
(5.08034 -0.339513 -0.0669759)
(3.53602 0.429057 2.61353)
(3.03053 0.838172 1.00066)
(-1.73287 0.28031 -0.511567)
(-1.94453 0.583409 -1.32916)
(-1.90009 0.677517 -1.55844)
(-1.67289 0.543146 -1.57717)
(-1.37842 -0.00586007 -1.7319)
(-1.62717 -0.169377 -1.43927)
(-1.21826 0.18663 -0.449996)
(-1.57507 0.419958 -0.781909)
(-1.47917 0.286652 -0.777063)
(-1.37024 -0.191416 -1.04203)
(-1.2008 -0.142983 -1.11439)
(-0.946938 0.0877352 -1.14827)