/*--------------------------------*- C++ -*----------------------------------*\
| =========                 |                                                 |
| \\      /  F ield         | OpenFOAM: The Open Source CFD Toolbox           |
|  \\    /   O peration     | Version:  v1612+                                |
|   \\  /    A nd           | Web:      www.OpenFOAM.com                      |
|    \\/     M anipulation  |                                                 |
\*---------------------------------------------------------------------------*/
FoamFile
{
    version     2.0;
    format      ascii;
    class       surfaceScalarField;
    location    "2.45";
    object      alphaPhi;
}
// * * * * * * * * * * * * * * * * * * * * * * * * * * * * * * * * * * * * * //

dimensions      [0 3 -1 0 0 0 0];

internalField   nonuniform List<scalar> 
2916
(
-8.3735e-06
0.628522
-0.570689
-4.02426e-06
0.628525
-0.570704
-3.41119e-06
0.628524
-0.5707
-6.23764e-06
0.628526
-0.570697
-1.99522e-06
0.628527
-0.570705
0.628521
-0.570698
-8.12188e-06
1.26566
-0.579304
-4.76657e-06
1.26567
-0.57932
-5.70712e-06
1.26567
-0.579317
-5.23767e-06
1.26567
-0.579316
3.34775e-06
1.26567
-0.579324
1.26566
-0.579313
-6.5386e-06
1.6851
-0.360995
-3.95895e-06
1.68511
-0.361009
-5.70961e-06
1.68511
-0.361004
-5.73057e-06
1.68511
-0.361004
1.49089e-06
1.68511
-0.361011
1.6851
-0.360998
-5.72555e-06
1.97384
-0.229782
-4.62465e-06
1.97385
-0.229791
-7.16999e-06
1.97385
-0.229786
-7.05752e-06
1.97385
-0.229788
2.20379e-07
1.97385
-0.229795
1.97384
-0.229782
-6.78218e-06
2.19818
-0.166505
-6.75345e-06
2.19819
-0.166513
-9.36914e-06
2.19819
-0.166509
-8.2051e-06
2.19819
-0.166512
-1.90288e-07
2.19819
-0.166519
2.19817
-0.166507
-9.61273e-06
2.38841
-0.134757
-8.83219e-06
2.38842
-0.134767
-1.06048e-05
2.38842
-0.134764
-9.07917e-06
2.38842
-0.134767
-1.02861e-06
2.38842
-0.134774
2.3884
-0.134762
-1.07041e-05
2.55211
-0.111355
-7.77876e-06
2.55212
-0.111367
-8.2109e-06
2.55212
-0.111364
-7.19809e-06
2.55212
-0.111366
-4.06621e-07
2.55212
-0.111373
2.55209
-0.111363
-5.58212e-06
2.66808
-0.114058
-7.59828e-07
2.6681
-0.114073
-2.86971e-07
2.66809
-0.114067
3.25049e-07
2.66809
-0.114067
4.44418e-06
2.6681
-0.114072
2.66807
-0.114062
-1.74951e-06
2.4915
0.0962727
8.43025e-06
2.49151
0.0962518
9.0148e-06
2.49152
0.0962586
7.76747e-06
2.49152
0.0962618
9.98016e-06
2.49152
0.0962577
2.49148
0.0962763
-3.60617e-07
1.83158
0.581079
8.42786e-06
1.8316
0.581034
1.11306e-05
1.83161
0.581055
1.04808e-05
1.8316
0.581058
7.88789e-06
1.83161
0.58105
1.83156
0.581071
7.01018e-06
0.738658
1.01422
1.06245e-06
0.738697
1.0142
5.42945e-06
0.738696
1.01421
6.19511e-06
0.738695
1.01421
-1.00867e-06
0.738718
1.0142
0.738654
1.01421
-3.33344e-05
0.686349
-2.17679e-05
0.686348
-1.43605e-05
0.686348
-8.96305e-06
0.686349
8.44569e-06
0.686363
0.686317
-3.26359e-06
0.565409
-0.69619
-5.78814e-06
0.565404
-0.69619
-5.94014e-06
0.565407
-0.696189
-1.23977e-05
0.565411
-0.696193
-1.57351e-05
0.565409
-0.6962
0.565401
-0.696197
1.10935e-05
0.898843
-0.321386
-6.96099e-06
0.898842
-0.321376
-1.02477e-05
0.898842
-0.321379
-8.75531e-06
0.898843
-0.321383
-1.28909e-05
0.898845
-0.321384
0.898837
-0.321386
1.34964e-05
1.22516
-0.0142182
-2.35418e-06
1.22517
-0.0142152
-7.52802e-06
1.22517
-0.014215
-6.80696e-06
1.22517
-0.0142163
-1.47197e-05
1.22517
-0.0142161
1.22516
-0.0142164
1.66853e-05
1.45914
-0.000774036
2.93509e-06
1.45916
-0.00077387
-2.58678e-06
1.45915
-0.000773853
-5.55954e-06
1.45915
-0.000773933
-1.5641e-05
1.45916
-0.000773932
1.45914
-0.000773946
1.67649e-05
1.59474
-5.94446e-05
6.53584e-06
1.59477
-5.94326e-05
2.7306e-06
1.59476
-5.94314e-05
-1.54688e-06
1.59476
-5.94382e-05
-1.23074e-05
1.59477
-5.94386e-05
1.59474
-5.94399e-05
1.58807e-05
1.58233
-5.9962e-06
1.00725e-05
1.58237
-5.99513e-06
9.18222e-06
1.58236
-5.99509e-06
5.08451e-06
1.58236
-5.99586e-06
-4.06509e-06
1.58236
-5.99593e-06
1.58234
-5.99618e-06
1.63456e-05
1.42669
-7.80259e-07
1.39704e-05
1.42674
-7.80128e-07
1.51815e-05
1.42672
-7.80136e-07
1.20453e-05
1.42672
-7.80246e-07
4.12417e-06
1.42672
-7.80256e-07
1.4267
-7.80311e-07
1.37045e-05
1.15878
-1.22948e-07
1.16605e-05
1.15882
-1.22928e-07
1.20293e-05
1.15881
-1.22931e-07
9.65896e-06
1.1588
-1.22949e-07
2.50848e-06
1.15879
-1.2295e-07
1.15878
-1.22962e-07
7.90779e-06
1.05323
-2.10629e-07
5.63271e-06
1.05327
-2.10778e-07
4.49838e-06
1.05326
-2.1073e-07
3.17288e-06
1.05325
-2.10724e-07
-1.4853e-06
1.05325
-2.10759e-07
1.05323
-2.10612e-07
1.11976e-05
1.31597
0.061487
3.97466e-06
1.316
0.0614758
2.1056e-06
1.31599
0.0614778
5.09221e-07
1.31598
0.0614772
-3.92386e-06
1.31598
0.0614744
1.31596
0.0614803
3.33131e-05
1.28142
0.545437
1.35401e-05
1.2815
0.545396
1.05929e-05
1.28147
0.545403
7.45387e-06
1.28147
0.545396
-7.00098e-06
1.28146
0.545382
1.28143
0.545399
-3.12524e-05
1.76154
-2.52487e-06
1.76154
5.14372e-06
1.76154
1.24268e-05
1.76153
2.49289e-05
1.76152
1.7615
1.69138e-06
0.06932
-3.96573e-06
-1.60841e-06
0.0693177
-3.96774e-06
-1.3283e-06
0.0693186
-3.96727e-06
6.28231e-07
0.0693183
-3.97092e-06
-9.77311e-07
0.0693177
-3.9764e-06
0.0693225
-3.96832e-06
-4.45588e-08
0.0150556
-6.54985e-05
-2.36065e-07
0.0150525
-6.54837e-05
-5.5211e-08
0.0150523
-6.54855e-05
-1.64695e-08
0.0150536
-6.54759e-05
-2.98673e-07
0.0150534
-6.54746e-05
0.0150537
-6.55056e-05
3.83044e-09
0.000838013
-5.97456e-07
1.49943e-10
0.00083783
-5.94967e-07
5.70276e-09
0.000837812
-5.91198e-07
1.31717e-08
0.000837898
-5.97624e-07
1.00779e-08
0.000837895
-6.07155e-07
0.000837913
-5.76087e-07
1.61238e-09
6.54986e-05
-1.411e-06
2.16965e-09
6.54857e-05
-1.41697e-06
2.36187e-09
6.54844e-05
-1.41843e-06
2.07242e-09
6.54919e-05
-1.41926e-06
1.48432e-09
6.54923e-05
-1.41927e-06
6.54941e-05
-1.42451e-06
1.61371e-10
6.92292e-06
-8.6774e-07
3.04653e-10
6.92171e-06
-8.6752e-07
3.22052e-10
6.92167e-06
-8.67444e-07
2.76091e-10
6.92256e-06
-8.67555e-07
1.93237e-10
6.92264e-06
-8.67557e-07
6.92292e-06
-8.67193e-07
8.32774e-12
9.27139e-07
-4.3475e-10
2.99776e-11
9.26987e-07
-4.34222e-10
3.68463e-11
9.26996e-07
-4.34018e-10
3.54617e-11
9.27127e-07
-4.3383e-10
3.45422e-11
9.27139e-07
-4.33584e-10
9.27203e-07
-4.33081e-10
7.16345e-13
1.46882e-07
-1.04924e-11
3.13062e-12
1.46858e-07
-1.04884e-11
4.31159e-12
1.46861e-07
-1.04934e-11
4.16733e-12
1.46883e-07
-1.04827e-11
5.50074e-12
1.46884e-07
-1.05066e-11
1.469e-07
-1.0464e-11
2.47285e-13
2.42181e-08
-2.91768e-10
3.93365e-13
2.42145e-08
-2.91665e-10
4.40684e-13
2.42152e-08
-2.91747e-10
3.43552e-13
2.4219e-08
-2.91725e-10
2.65533e-13
2.42189e-08
-2.9189e-10
2.42221e-08
-2.91244e-10
-1.10286e-14
-1.8402e-07
1.72668e-10
-2.31674e-14
-1.84172e-07
1.72376e-10
-1.98832e-14
-1.84124e-07
1.72459e-10
-1.00336e-14
-1.84114e-07
1.72569e-10
-9.14457e-15
-1.84149e-07
1.72507e-10
-1.84e-07
1.72899e-10
-1.00393e-07
0.0556698
0.00587741
-2.62264e-07
0.0556586
0.00587745
-2.17865e-07
0.0556602
0.00587762
-1.73489e-07
0.0556598
0.00587746
1.53421e-07
0.0556567
0.00587746
0.0556637
0.00587684
-7.06405e-07
0.226776
0.135582
-2.36769e-07
0.226755
0.135587
-1.44153e-07
0.226757
0.135585
-4.2759e-07
0.226754
0.135582
1.09725e-06
0.226739
0.135579
0.226759
0.135582
8.71601e-06
1.76906
1.53257e-05
1.76895
2.53775e-05
1.76898
4.18831e-05
1.76895
1.17444e-05
1.76886
1.76914
-7.09945e-12
5.64357e-08
-4.1704e-06
-4.76429e-12
5.64585e-08
-4.17087e-06
-2.69372e-13
5.64559e-08
-4.17153e-06
6.38538e-12
5.65054e-08
-4.17229e-06
1.12756e-11
5.65592e-08
-4.17243e-06
5.64176e-08
-4.17121e-06
-8.00916e-11
3.35767e-07
-6.5791e-05
-2.68272e-11
3.35742e-07
-6.57776e-05
3.03998e-11
3.35724e-07
-6.57813e-05
1.91263e-11
3.35756e-07
-6.57686e-05
-7.19076e-12
3.35823e-07
-6.57629e-05
3.35784e-07
-6.58089e-05
-2.04983e-12
1.3972e-08
-8.59564e-08
4.47845e-13
1.39976e-08
-8.6057e-08
1.48331e-12
1.39949e-08
-8.59682e-08
2.22327e-12
1.40194e-08
-8.62248e-08
3.82551e-12
1.40478e-08
-8.65583e-08
1.39941e-08
-8.56451e-08
1.7652e-12
4.57333e-10
-1.22661e-06
4.16279e-12
4.57175e-10
-1.2266e-06
4.24144e-12
4.58719e-10
-1.22659e-06
3.62695e-12
4.59398e-10
-1.22676e-06
3.71487e-12
4.59589e-10
-1.2268e-06
4.65517e-10
-1.2264e-06
4.77132e-13
8.68991e-11
-8.67378e-07
3.33119e-12
8.62931e-11
-8.6716e-07
4.04601e-12
8.61416e-11
-8.67081e-07
3.74537e-12
8.60857e-11
-8.67189e-07
3.88057e-12
8.60886e-11
-8.67192e-07
8.57157e-11
-8.66818e-07
-2.52089e-15
-4.1436e-12
-3.52222e-10
-2.36503e-15
-4.14406e-12
-3.52304e-10
-1.97698e-15
-4.14323e-12
-3.52253e-10
-1.09122e-15
-4.14258e-12
-3.52124e-10
9.18705e-16
-4.14263e-12
-3.51875e-10
-4.14032e-12
-3.51743e-10
-9.95757e-16
-9.08992e-12
-1.40633e-11
-1.31576e-15
-9.08869e-12
-1.40631e-11
-1.49649e-15
-9.09193e-12
-1.40656e-11
-1.37145e-15
-9.0855e-12
-1.40601e-11
-5.86472e-16
-9.0981e-12
-1.40704e-11
-9.07682e-12
-1.40466e-11
-6.55297e-16
9.20683e-12
-3.24393e-10
-1.74959e-15
9.20129e-12
-3.2426e-10
-3.52601e-15
9.20553e-12
-3.24394e-10
-4.49338e-15
9.20381e-12
-3.24352e-10
-7.19505e-15
9.20807e-12
-3.24606e-10
9.1864e-12
-3.23625e-10
-2.67953e-15
3.6183e-10
2.50477e-11
-7.02725e-15
3.61644e-10
2.50258e-11
-1.41027e-14
3.61684e-10
2.50347e-11
-1.80268e-14
3.61733e-10
2.50371e-11
-3.72294e-14
3.61703e-10
2.50466e-11
3.61793e-10
2.50119e-11
-7.4644e-08
0.00515599
0.000721522
-1.23859e-07
0.00515584
0.00072168
-9.60136e-08
0.00515599
0.000721624
-4.11562e-08
0.00515583
0.0007216
-3.45336e-08
0.00515589
0.000721589
0.00515528
0.000721545
1.15735e-06
0.110924
0.0294531
-2.26068e-07
0.110932
0.0294524
-1.50172e-07
0.11093
0.0294516
1.83307e-07
0.110925
0.0294517
7.86653e-07
0.110923
0.0294515
0.110926
0.0294521
-8.87894e-06
1.63634
-1.55692e-06
1.6362
3.96302e-05
1.63624
3.45679e-05
1.63626
-5.72205e-05
1.63619
1.63643
-1.25354e-67
2.44546e-64
-3.97949e-61
-9.83428e-68
2.45015e-64
-3.98697e-61
-9.3054e-68
2.44985e-64
-3.98648e-61
-7.52284e-68
2.44989e-64
-3.9867e-61
-4.29042e-68
2.45072e-64
-3.98815e-61
2.44595e-64
-3.98028e-61
-1.69627e-63
1.14049e-59
-9.57025e-57
-2.40456e-63
1.14238e-59
-9.58496e-57
-3.16979e-63
1.14213e-59
-9.58306e-57
-3.0469e-63
1.14209e-59
-9.58349e-57
-1.64622e-63
1.14242e-59
-9.58736e-57
1.14023e-59
-9.57007e-57
-7.09804e-60
2.19847e-55
-1.24684e-52
-4.99831e-59
2.20046e-55
-1.24759e-52
-8.45034e-59
2.19932e-55
-1.24699e-52
-9.32176e-59
2.19884e-55
-1.24693e-52
-6.48234e-59
2.19923e-55
-1.24747e-52
2.195e-55
-1.24551e-52
-1.98952e-55
2.58612e-51
-1.09278e-48
-1.11002e-54
2.58522e-51
-1.09201e-48
-1.76988e-54
2.58264e-51
-1.09112e-48
-1.94866e-54
2.5815e-51
-1.09103e-48
-1.44199e-54
2.58184e-51
-1.09176e-48
2.57746e-51
-1.09075e-48
-6.44265e-51
2.00305e-47
-6.60033e-45
-1.7047e-50
1.99944e-47
-6.58973e-45
-2.35846e-50
1.99653e-47
-6.58406e-45
-2.456e-50
1.99548e-47
-6.58548e-45
-1.80311e-50
1.99618e-47
-6.59405e-45
1.99407e-47
-6.59597e-45
-8.10695e-47
9.64453e-44
-2.56009e-41
-1.43091e-46
9.62538e-44
-2.55988e-41
-1.6983e-46
9.61372e-44
-2.56037e-41
-1.63166e-46
9.61314e-44
-2.56344e-41
-1.15078e-46
9.62384e-44
-2.5701e-41
9.6243e-44
-2.57409e-41
-3.73539e-43
2.55435e-40
-6.53878e-38
-5.23658e-43
2.55618e-40
-6.57571e-38
-5.39776e-43
2.55764e-40
-6.59576e-38
-4.68182e-43
2.56174e-40
-6.61999e-38
-3.07177e-43
2.5709e-40
-6.6725e-38
2.57194e-40
-6.65365e-38
-6.19014e-40
3.38943e-37
-1.2772e-34
-6.953e-40
3.4245e-37
-1.30097e-34
-5.75232e-40
3.44171e-37
-1.31117e-34
-3.91489e-40
3.45877e-37
-1.32046e-34
-1.951e-40
3.49394e-37
-1.34324e-34
3.46861e-37
-1.31539e-34
-2.67609e-37
1.80756e-34
-8.97246e-32
-1.80273e-37
1.86173e-34
-9.30625e-32
-2.42482e-38
1.88026e-34
-9.40448e-32
1.01032e-37
1.89053e-34
-9.44932e-32
1.33281e-37
1.91386e-34
-9.57888e-32
1.85931e-34
-9.1628e-32
-9.25966e-39
1.28667e-34
3.58234e-36
1.49029e-37
1.28613e-34
3.39682e-36
2.98801e-37
1.2861e-34
3.3845e-36
3.72543e-37
1.28743e-34
3.44513e-36
3.06528e-37
1.29017e-34
3.56338e-36
1.29148e-34
3.73952e-36
1.83068e-34
8.28424e-32
2.3358e-32
3.19081e-34
8.29286e-32
2.34309e-32
3.98333e-34
8.29317e-32
2.35099e-32
4.10798e-34
8.29872e-32
2.36276e-32
3.12655e-34
8.31292e-32
2.38011e-32
8.32247e-32
2.40156e-32
6.39078e-32
3.96013e-29
6.0658e-32
3.97317e-29
4.3464e-32
3.9742e-29
2.62053e-32
3.97486e-29
1.21966e-32
3.9777e-29
3.97636e-29
-1.84035e-64
4.04803e-61
-5.1725e-58
-1.58387e-64
4.05525e-61
-5.18234e-58
-1.4158e-64
4.05442e-61
-5.18171e-58
-9.60323e-65
4.05419e-61
-5.18187e-58
-1.94043e-65
4.05537e-61
-5.18368e-58
4.04718e-61
-5.17338e-58
-5.17156e-60
1.92546e-56
-1.26054e-53
-6.2389e-60
1.92856e-56
-1.26272e-53
-6.23828e-60
1.928e-56
-1.2625e-53
-4.80121e-60
1.92778e-56
-1.26252e-53
-1.75768e-60
1.92824e-56
-1.26298e-53
1.92438e-56
-1.26062e-53
-1.18954e-55
3.66682e-52
-1.6021e-49
-1.70522e-55
3.67104e-52
-1.60409e-49
-1.8067e-55
3.66922e-52
-1.60356e-49
-1.54739e-55
3.66829e-52
-1.60346e-49
-8.71854e-56
3.66878e-52
-1.60404e-49
3.66144e-52
-1.60128e-49
-2.02718e-51
4.11152e-48
-1.3204e-45
-2.97769e-51
4.11323e-48
-1.32123e-45
-3.16079e-51
4.10994e-48
-1.32057e-45
-2.78255e-51
4.10819e-48
-1.32045e-45
-1.78566e-51
4.10844e-48
-1.32108e-45
4.10065e-48
-1.31933e-45
-2.2273e-47
2.8924e-44
-7.22878e-42
-3.10036e-47
2.89119e-44
-7.23149e-42
-3.16316e-47
2.88805e-44
-7.2283e-42
-2.73172e-47
2.88657e-44
-7.229e-42
-1.78514e-47
2.88695e-44
-7.23503e-42
2.88242e-44
-7.23052e-42
-1.3099e-43
1.2151e-40
-2.62861e-38
-1.66655e-43
1.21417e-40
-2.63249e-38
-1.57372e-43
1.21295e-40
-2.63323e-38
-1.27112e-43
1.2127e-40
-2.63556e-38
-8.01037e-44
1.21363e-40
-2.64261e-38
1.21226e-40
-2.63885e-38
-4.10456e-40
3.30958e-37
-1.1528e-34
-4.29404e-40
3.31279e-37
-1.15932e-34
-3.20605e-40
3.31341e-37
-1.1618e-34
-1.91943e-40
3.31809e-37
-1.16612e-34
-8.74171e-41
3.33692e-37
-1.18287e-34
3.31805e-37
-1.16151e-34
-6.44744e-37
7.39378e-34
-4.53922e-31
-2.64871e-37
7.44987e-34
-4.59727e-31
2.69079e-37
7.4725e-34
-4.61772e-31
6.27158e-37
7.50579e-34
-4.64359e-31
6.03065e-37
7.62362e-34
-4.73764e-31
7.45777e-34
-4.57925e-31
2.46313e-34
7.48417e-31
-4.84935e-28
1.2459e-33
7.60745e-31
-4.95014e-28
2.11257e-33
7.64137e-31
-4.97257e-28
2.4387e-33
7.67126e-31
-4.98798e-28
1.91049e-33
7.79598e-31
-5.06629e-28
7.49907e-31
-4.8254e-28
3.61801e-34
1.84204e-31
9.9036e-33
7.27932e-34
1.83568e-31
9.52064e-33
9.56984e-34
1.83498e-31
9.54944e-33
9.76991e-34
1.83806e-31
9.76179e-33
7.07156e-34
1.84448e-31
1.01293e-32
1.85022e-31
1.06585e-32
4.54651e-31
1.16334e-28
6.00988e-29
6.0307e-31
1.16341e-28
6.03756e-29
6.07986e-31
1.16407e-28
6.05802e-29
5.15781e-31
1.16625e-28
6.08433e-29
3.20075e-31
1.17019e-28
6.12229e-29
1.17385e-28
6.16535e-29
2.5382e-29
7.40147e-26
-3.9591e-29
7.42391e-26
-1.09731e-28
7.42679e-26
-1.43138e-28
7.42852e-26
-1.16925e-28
7.43381e-26
7.42912e-26
-7.42387e-62
2.5382e-58
-2.39405e-55
-6.4905e-62
2.54284e-58
-2.39866e-55
-5.33953e-62
2.54241e-58
-2.3984e-55
-2.64636e-62
2.54234e-58
-2.39847e-55
1.12079e-62
2.54315e-58
-2.39929e-55
2.5381e-58
-2.39444e-55
-2.47654e-57
1.22564e-53
-5.84197e-51
-3.00264e-57
1.22776e-53
-5.85269e-51
-2.73696e-57
1.2275e-53
-5.85191e-51
-1.74031e-57
1.22743e-53
-5.85204e-51
-2.28923e-58
1.22779e-53
-5.85408e-51
1.22541e-53
-5.84286e-51
-6.31439e-53
2.28452e-49
-7.1316e-47
-8.31074e-53
2.2879e-49
-7.1429e-47
-7.76043e-53
2.28717e-49
-7.14137e-47
-5.54797e-53
2.28688e-49
-7.14121e-47
-2.25672e-53
2.28744e-49
-7.14367e-47
2.2831e-49
-7.13066e-47
-9.90283e-49
2.44455e-45
-5.47249e-43
-1.25349e-48
2.44718e-45
-5.47967e-43
-1.12822e-48
2.44604e-45
-5.47812e-43
-8.05143e-49
2.44556e-45
-5.47795e-43
-3.89186e-49
2.44613e-45
-5.48017e-43
2.44181e-45
-5.4715e-43
-8.94629e-45
1.66089e-41
-2.76052e-39
-1.00721e-44
1.66193e-41
-2.76415e-39
-8.04082e-45
1.66098e-41
-2.7636e-39
-5.00298e-45
1.66066e-41
-2.76388e-39
-2.09139e-45
1.66123e-41
-2.76553e-39
1.6588e-41
-2.76222e-39
-4.31153e-41
7.52032e-38
-1.35998e-35
-3.70952e-41
7.52388e-38
-1.36268e-35
-1.81496e-41
7.52041e-38
-1.36274e-35
-6.99834e-43
7.52188e-38
-1.36455e-35
6.96249e-42
7.53573e-38
-1.3755e-35
7.51609e-38
-1.35891e-35
-1.50449e-37
4.20065e-34
-2.0571e-31
-2.88715e-39
4.2084e-34
-2.06529e-31
1.79018e-37
4.20963e-34
-2.06684e-31
2.87948e-37
4.22018e-34
-2.07462e-31
2.56333e-37
4.27672e-34
-2.11626e-31
4.19558e-34
-2.04725e-31
5.20511e-34
2.2754e-30
-1.13875e-27
2.17396e-33
2.28604e-30
-1.14616e-27
3.54889e-33
2.28922e-30
-1.14775e-27
4.01499e-33
2.29928e-30
-1.15279e-27
3.10824e-33
2.34581e-30
-1.17703e-27
2.26993e-30
-1.13054e-27
4.44554e-30
4.18181e-27
-1.61378e-24
8.535e-30
4.21051e-27
-1.62644e-24
1.08812e-29
4.21552e-27
-1.62718e-24
1.08074e-29
4.23227e-27
-1.63229e-24
7.67231e-30
4.31588e-27
-1.66285e-24
4.14159e-27
-1.58522e-24
1.72263e-27
9.80954e-25
-2.8297e-22
2.44958e-27
9.90718e-25
-2.8553e-22
2.55016e-27
9.86206e-25
-2.83402e-22
2.13406e-27
9.80733e-25
-2.80874e-22
1.23105e-27
9.86654e-25
-2.81284e-22
9.278e-25
-2.62139e-22
2.63663e-28
2.49121e-25
7.67398e-26
2.1358e-28
2.49589e-25
7.72011e-26
8.23636e-29
2.49782e-25
7.74408e-26
-4.63573e-29
2.50104e-25
7.7697e-26
-1.15318e-28
2.50662e-25
7.80491e-26
2.5077e-25
7.8308e-26
-6.11131e-26
7.10992e-23
-1.19558e-25
7.12674e-23
-1.59006e-25
7.12867e-23
-1.5829e-25
7.12897e-23
-1.15755e-25
7.13225e-23
7.1219e-23
-1.30755e-59
7.23109e-56
-4.06484e-53
-1.08626e-59
7.24424e-56
-4.07273e-53
-6.58673e-60
7.24311e-56
-4.0723e-53
1.54101e-61
7.24312e-56
-4.07243e-53
7.53595e-60
7.24564e-56
-4.07382e-53
7.23113e-56
-4.06545e-53
-5.5783e-55
3.51042e-51
-9.72231e-49
-5.81811e-55
3.51658e-51
-9.74083e-49
-3.81845e-55
3.51596e-51
-9.73974e-49
-8.91712e-56
3.51597e-51
-9.74004e-49
1.92951e-55
3.5172e-51
-9.74338e-49
3.51043e-51
-9.72423e-49
-1.45474e-50
6.32708e-47
-1.11272e-44
-1.39636e-50
6.33722e-47
-1.11471e-44
-8.12692e-51
6.33592e-47
-1.11454e-44
-1.37541e-51
6.33586e-47
-1.11454e-44
3.09077e-51
6.33805e-47
-1.11491e-44
6.32626e-47
-1.11279e-44
-1.57874e-46
6.34601e-43
-7.72376e-41
-1.18702e-46
6.35486e-43
-7.73664e-41
-2.69913e-47
6.3534e-43
-7.73534e-41
5.54648e-47
6.35339e-43
-7.73534e-41
8.2576e-47
6.35573e-43
-7.73799e-41
6.34468e-43
-7.72416e-41
-5.12267e-43
3.89298e-39
-3.42661e-37
1.03226e-43
3.89769e-39
-3.43234e-37
9.02505e-43
3.89686e-39
-3.432e-37
1.40068e-42
3.89713e-39
-3.43225e-37
1.23619e-42
3.89894e-39
-3.4337e-37
3.89292e-39
-3.42816e-37
4.21498e-39
2.19053e-35
-9.49929e-33
1.15055e-38
2.19289e-35
-9.51452e-33
1.72365e-38
2.19226e-35
-9.50824e-33
1.90377e-38
2.19478e-35
-9.53309e-33
1.44832e-38
2.21191e-35
-9.71266e-33
2.18447e-35
-9.39219e-33
2.83172e-34
3.74768e-31
-2.65923e-28
4.88536e-34
3.7539e-31
-2.66537e-28
5.92913e-34
3.75364e-31
-2.66448e-28
5.78878e-34
3.76657e-31
-2.67397e-28
4.0937e-34
3.84195e-31
-2.73075e-28
3.71745e-31
-2.62431e-28
3.45783e-30
2.50231e-27
-1.34059e-24
5.11398e-30
2.50903e-27
-1.3447e-24
5.56224e-30
2.5098e-27
-1.34434e-24
4.97893e-30
2.52072e-27
-1.3497e-24
3.26077e-30
2.57573e-27
-1.37857e-24
2.47846e-27
-1.31948e-24
7.78005e-27
4.99458e-24
-1.89517e-21
9.9705e-27
5.01181e-24
-1.90105e-21
9.48981e-27
5.01235e-24
-1.89926e-21
7.36383e-27
5.03506e-24
-1.90652e-21
3.96831e-27
5.14422e-24
-1.94599e-21
4.92733e-24
-1.85441e-21
3.20884e-24
4.10524e-21
-1.06744e-18
2.74606e-24
4.11944e-21
-1.06973e-18
1.18345e-24
4.11189e-21
-1.06604e-18
-2.80392e-25
4.12061e-21
-1.06702e-18
-1.18149e-24
4.1948e-21
-1.08422e-18
3.99467e-21
-1.0287e-18
-1.47269e-25
8.64827e-23
2.10997e-22
-2.63256e-25
8.67306e-23
2.11624e-22
-3.39592e-25
8.67723e-23
2.11742e-22
-3.35027e-25
8.68448e-23
2.12687e-22
-2.57935e-25
8.7114e-23
2.14514e-22
8.65841e-23
2.0959e-22
-1.20856e-25
2.33121e-22
-1.73527e-25
2.33605e-22
-2.02904e-25
2.33737e-22
-1.66021e-25
2.33679e-22
-1.41696e-25
2.33577e-22
2.34131e-22
-6.40215e-11
-2.78204e-06
-1.03771e-06
3.30181e-12
-2.78212e-06
-1.03819e-06
1.85737e-11
-2.7828e-06
-1.03822e-06
5.71477e-11
-2.78349e-06
-1.03833e-06
1.37603e-10
-2.78365e-06
-1.03827e-06
-2.78335e-06
-1.03757e-06
8.98518e-12
3.68762e-14
-4.42783e-07
1.57693e-11
4.0394e-14
-4.42915e-07
1.99507e-12
4.14622e-14
-4.43011e-07
1.06299e-12
4.05396e-14
-4.43107e-07
2.50655e-11
4.03007e-14
-4.4313e-07
4.12614e-14
-4.43176e-07
-2.6561e-19
5.28872e-16
-4.26571e-20
5.79487e-16
1.69432e-19
5.94896e-16
2.9386e-19
5.81336e-16
3.94957e-19
5.7773e-16
5.92492e-16
-8.97464e-10
-4.88601e-05
-8.43747e-07
-2.0317e-10
-4.88601e-05
-8.42255e-07
2.95599e-10
-4.88598e-05
-8.40375e-07
4.20268e-10
-4.88597e-05
-8.43521e-07
5.41076e-10
-4.886e-05
-8.48036e-07
-4.88597e-05
-8.33743e-07
-2.91122e-10
2.3592e-13
-1.95945e-08
-4.94183e-10
2.58411e-13
-1.96376e-08
-4.94361e-10
2.65257e-13
-1.96137e-08
-2.80455e-10
2.59355e-13
-1.96485e-08
-2.1939e-10
2.57825e-13
-1.97064e-08
2.63989e-13
-1.96217e-08
-1.99191e-18
3.69299e-14
-1.2107e-18
4.04473e-14
-7.48254e-19
4.15197e-14
-1.32629e-19
4.05945e-14
1.60402e-18
4.03543e-14
4.13287e-14
1.6629e-14
-1.71928e-07
-7.71157e-07
-3.84312e-13
-1.71797e-07
-7.7121e-07
-1.29238e-12
-1.71697e-07
-7.71236e-07
-1.4949e-12
-1.72007e-07
-7.71361e-07
-1.97195e-13
-1.72423e-07
-7.71377e-07
-1.72348e-07
-7.71178e-07
2.06486e-13
1.05985e-12
-1.03448e-07
-9.8977e-13
1.16092e-12
-1.03365e-07
-1.28715e-12
1.19165e-12
-1.03384e-07
-1.63482e-12
1.16514e-12
-1.03322e-07
-2.92588e-12
1.15829e-12
-1.03282e-07
1.1859e-12
-1.03538e-07
-1.14248e-17
-2.47336e-14
-9.7705e-18
-2.70965e-14
-8.3603e-18
-2.78134e-14
-3.86434e-18
-2.71954e-14
7.9381e-18
-2.70361e-14
-2.76734e-14
-1.14018e-11
-1.3501e-06
-3.21975e-07
-2.72677e-11
-1.35014e-06
-3.21857e-07
-3.84737e-11
-1.35004e-06
-3.21838e-07
-3.41281e-11
-1.35056e-06
-3.21948e-07
-8.40861e-12
-1.35079e-06
-3.22004e-07
-1.34926e-06
-3.2165e-07
1.10458e-11
1.18586e-12
-4.25032e-08
-8.85119e-12
1.2989e-12
-4.2482e-08
-2.05629e-11
1.33324e-12
-4.24883e-08
-2.84424e-11
1.30356e-12
-4.24886e-08
-3.81368e-11
1.29589e-12
-4.24932e-08
1.3267e-12
-4.25331e-08
-1.53519e-17
-1.34897e-14
-1.41534e-17
-1.47761e-14
-1.01992e-17
-1.51666e-14
-2.30264e-18
-1.48287e-14
1.36194e-17
-1.47412e-14
-1.50916e-14
-4.98197e-11
-1.18268e-06
-9.22589e-09
-7.10835e-11
-1.18256e-06
-9.22711e-09
-6.48739e-11
-1.18248e-06
-9.2261e-09
-4.52657e-11
-1.18254e-06
-9.2228e-09
-9.38217e-12
-1.18254e-06
-9.21653e-09
-1.18205e-06
-9.21378e-09
1.12937e-11
7.20971e-15
1.10471e-08
-1.61399e-11
7.92546e-15
1.10532e-08
-3.45116e-11
8.17115e-15
1.10547e-08
-3.9669e-11
7.97952e-15
1.10526e-08
-4.11773e-11
7.91666e-15
1.10456e-08
7.73792e-15
1.10508e-08
-7.39081e-20
-3.71512e-18
-4.86872e-20
-3.71824e-18
-2.16072e-20
-3.7183e-18
1.87525e-20
-3.71824e-18
1.00359e-19
-3.721e-18
-3.71213e-18
-2.27602e-14
-9.583e-09
-1.18692e-12
-2.66576e-14
-9.5843e-09
-1.20409e-12
-2.59294e-14
-9.58324e-09
-1.20852e-12
-2.10192e-14
-9.57982e-09
-1.21164e-12
-1.2108e-14
-9.57331e-09
-1.21252e-12
-9.5704e-09
-1.20853e-12
1.29682e-13
-7.68739e-15
-4.73621e-12
4.39872e-16
-7.69328e-15
-4.74785e-12
-7.59123e-14
-7.69272e-15
-4.74089e-12
-1.41446e-13
-7.69213e-15
-4.74397e-12
-1.92462e-13
-7.69728e-15
-4.73057e-12
-7.67907e-15
-4.75299e-12
6.84982e-22
-7.69111e-15
-1.02189e-21
-7.69699e-15
-1.76693e-21
-7.69643e-15
-2.15858e-21
-7.69584e-15
-3.18194e-21
-7.701e-15
-7.68278e-15
-4.38323e-16
-5.03528e-12
-2.25999e-11
-4.47671e-16
-5.03555e-12
-2.2611e-11
-6.20413e-16
-5.03596e-12
-2.26209e-11
-5.74211e-16
-5.0359e-12
-2.26198e-11
-4.79299e-16
-5.03736e-12
-2.26483e-11
-5.03067e-12
-2.25462e-11
-8.78939e-17
-2.28117e-13
-9.60481e-12
-1.72166e-16
-2.28406e-13
-9.61636e-12
-1.41013e-16
-2.28301e-13
-9.61003e-12
-9.57637e-17
-2.28323e-13
-9.61305e-12
4.92066e-17
-2.28272e-13
-9.60136e-12
-2.28125e-13
-9.61692e-12
-2.51561e-19
-2.35778e-13
-5.41771e-19
-2.36072e-13
-8.38401e-19
-2.35967e-13
-9.98692e-19
-2.35989e-13
-4.80785e-19
-2.35943e-13
-2.35778e-13
-3.00334e-15
-1.0012e-09
3.73809e-10
-5.13199e-15
-1.00058e-09
3.73714e-10
-1.62992e-14
-1.00074e-09
3.73588e-10
-1.91461e-14
-1.00078e-09
3.73625e-10
-4.03909e-14
-1.00092e-09
3.73363e-10
-1.00078e-09
3.74541e-10
-1.12254e-14
-4.43076e-11
-9.49246e-10
-2.22296e-14
-4.43316e-11
-9.48601e-10
-2.26349e-14
-4.43297e-11
-9.4877e-10
5.10412e-16
-4.43263e-11
-9.48843e-10
8.09666e-14
-4.43457e-11
-9.49007e-10
-4.42623e-11
-9.48837e-10
-3.52021e-16
-4.4543e-11
-4.54455e-16
-4.45676e-11
-6.05016e-16
-4.45655e-11
-4.92287e-16
-4.45624e-11
7.03453e-16
-4.45828e-11
-4.44974e-11
4.73843e-13
-5.20167e-08
5.26253e-08
1.74986e-13
-5.19786e-08
5.25882e-08
-1.72794e-14
-5.19778e-08
5.25873e-08
-2.31245e-13
-5.19781e-08
5.25875e-08
-1.06299e-12
-5.19481e-08
5.25578e-08
-5.20603e-08
5.26688e-08
1.62278e-11
-4.75893e-09
-4.74939e-08
6.71238e-12
-4.76038e-09
-4.74289e-08
5.29789e-12
-4.7597e-09
-4.74365e-08
4.49938e-12
-4.75909e-09
-4.7438e-08
5.80505e-12
-4.75886e-09
-4.74091e-08
-4.7568e-09
-4.75197e-08
-1.34735e-14
-4.78638e-09
-9.40055e-14
-4.78779e-09
-1.17771e-13
-4.78717e-09
-2.51353e-14
-4.78667e-09
4.88368e-13
-4.78687e-09
-4.78374e-09
3.36299e-08
2.23727e-05
0.000699163
-2.10649e-09
2.23989e-05
0.000699364
-1.69418e-08
2.23883e-05
0.000699298
-2.42321e-08
2.23884e-05
0.000699266
-5.54694e-08
2.23917e-05
0.000699277
2.23732e-05
0.000699164
2.72576e-09
1.00261e-06
2.14209e-05
1.48551e-09
1.00421e-06
2.14497e-05
1.10067e-09
1.0038e-06
2.14387e-05
2.88307e-10
1.00366e-06
2.14393e-05
-1.29732e-09
1.00268e-06
2.14439e-05
1.00357e-06
2.14224e-05
5.46915e-11
8.70077e-07
6.37699e-11
8.71615e-07
7.63427e-11
8.71128e-07
5.89e-11
8.71128e-07
4.74238e-11
8.70304e-07
8.71013e-07
6.77078e-07
0.00137213
0.0287332
4.79821e-08
0.00137309
0.028733
1.66859e-08
0.00137271
0.028732
-4.9608e-08
0.00137272
0.028732
-2.16971e-07
0.00137256
0.0287321
0.00137286
0.0287318
6.28903e-08
7.49733e-05
0.00134891
4.97244e-08
7.52485e-05
0.00134966
3.77052e-08
7.51755e-05
0.00134963
1.91519e-08
7.51965e-05
0.00134942
7.24905e-08
7.5014e-05
0.001348
7.53336e-05
0.00135121
2.57654e-09
6.46296e-05
4.13299e-09
6.48916e-05
3.87827e-09
6.48215e-05
3.0045e-09
6.48457e-05
8.32695e-09
6.46749e-05
6.49771e-05
0.00013885
0.125229
1.07218
8.18306e-05
0.125309
1.07219
2.53776e-05
0.12533
1.0722
8.08454e-05
0.125297
1.0723
0.000130544
0.125093
1.07292
0.125605
1.07155
1.58428e-05
0.00329737
0.101269
7.3879e-06
0.00330929
0.101373
5.25528e-08
0.00330615
0.101349
2.15421e-06
0.00330634
0.101345
3.48233e-05
0.00329804
0.101346
0.00331505
0.101381
4.08235e-07
0.00336159
3.95518e-07
0.00337419
1.92072e-07
0.00337118
2.85539e-07
0.00337109
1.87044e-06
0.00336113
0.0033819
-8.10002e-15
-9.05252e-10
9.35972e-10
-4.037e-11
-8.32684e-15
-9.03925e-10
9.34584e-10
-4.03843e-11
-1.82818e-14
-9.03435e-10
9.34125e-10
-4.02981e-11
-1.38987e-14
-9.07279e-10
9.37974e-10
-4.05422e-11
-2.45515e-14
-8.18391e-10
8.44794e-10
-3.70854e-11
-8.9973e-10
9.30538e-10
-3.96713e-11
3.02795e-11
-3.53102e-06
3.57153e-06
-4.07605e-08
1.00474e-11
-3.52849e-06
3.569e-06
-4.07407e-08
5.11887e-11
-3.53068e-06
3.57117e-06
-4.07608e-08
2.44793e-11
-3.53058e-06
3.57118e-06
-4.07737e-08
-5.35288e-10
-3.50969e-06
3.55086e-06
-4.07528e-08
-3.54519e-06
3.58492e-06
-4.0644e-08
-1.84232e-09
-6.24997e-06
8.32167e-08
-1.45116e-09
-6.25871e-06
8.33421e-08
-1.4197e-08
-6.23186e-06
8.30946e-08
-2.40491e-10
-6.2914e-06
8.37742e-08
6.78628e-08
-6.46072e-06
8.55694e-08
-6.045e-06
8.09814e-08
-1.05349e-11
-1.63602e-07
1.65143e-07
-3.54027e-12
-1.63391e-07
1.64914e-07
-2.42432e-11
-1.63296e-07
1.64843e-07
-2.21574e-11
-1.63981e-07
1.65515e-07
1.00923e-10
-1.45172e-07
1.46517e-07
-1.62246e-07
1.63839e-07
2.00284e-08
6.59945e-05
-6.26076e-05
4.98258e-09
6.59126e-05
-6.24921e-05
2.32283e-08
6.58288e-05
-6.24407e-05
6.15781e-09
6.61718e-05
-6.27467e-05
-2.05578e-07
6.6878e-05
-6.32485e-05
6.47808e-05
-6.15772e-05
3.04377e-07
-0.00109874
1.52339e-07
-0.00109938
7.01936e-07
-0.00109825
5.3544e-08
-0.00110075
-5.05954e-06
-0.00111356
-0.00108371
-5.52211e-11
3.3417e-07
2.03029e-07
-2.26811e-11
3.38566e-07
2.05979e-07
-1.11903e-10
3.45174e-07
2.09706e-07
-5.79811e-11
3.26133e-07
1.98326e-07
1.92838e-10
3.11878e-07
1.81396e-07
3.82438e-07
2.32071e-07
-1.50402e-07
0.00853
-0.0125994
-2.1267e-07
0.00852767
-0.012587
-9.98784e-08
0.00852327
-0.0125835
-2.21308e-08
0.00853951
-0.0126154
-1.58346e-06
0.00859647
-0.0127033
0.00845092
-0.0124781
3.09678e-06
-0.0661646
1.08501e-06
-0.0661779
1.13692e-05
-0.0661529
-1.62027e-06
-0.0662195
-7.08609e-05
-0.066506
-0.065833
3.63127e-09
0.00221002
-0.00220876
1.23325e-08
0.00220826
-0.002207
-2.00184e-07
0.00220541
-0.00220392
5.67784e-08
0.00221487
-0.00221389
1.50415e-06
0.00222801
-0.00222828
0.00218833
-0.00218546
-5.45425e-06
0.139484
-0.279008
-4.29799e-06
0.139486
-0.279048
2.40048e-06
0.139447
-0.278996
-3.377e-07
0.139573
-0.279112
-3.54355e-05
0.140019
-0.279573
0.138911
-0.278511
5.91631e-06
-0.15142
2.38575e-06
-0.151466
2.55871e-05
-0.151433
5.62491e-06
-0.151517
-0.000186978
-0.1517
-0.151274
-2.54574e-06
0.100897
-0.294436
-9.47473e-07
0.100911
-0.294421
3.6572e-05
0.100863
-0.294322
-7.51439e-06
0.10096
-0.294599
-0.000123389
0.101361
-0.29567
0.10044
-0.293176
5.78802e-06
0.120642
-0.373291
7.03846e-06
0.120697
-0.373385
2.37679e-05
0.120661
-0.37336
-1.9541e-05
0.120716
-0.373441
-3.77261e-05
0.120856
-0.373665
0.120549
-0.373191
2.70671e-06
-0.0123021
1.83489e-06
-0.0123232
1.34987e-06
-0.012314
1.63478e-06
-0.0123261
2.10965e-06
-0.0123162
-0.0123332
2.01351e-05
0.35464
2.34384e-05
0.354714
0.000178018
0.354677
4.98073e-05
0.35473
-0.000922637
0.355025
0.354417
2.15839e-05
0.00894127
2.53706e-05
0.00894881
4.86975e-05
0.00894281
2.75777e-06
0.00895491
-9.31836e-05
0.00895548
0.00895043
7.72045e-07
5.77217e-07
5.6384e-07
4.16267e-07
8.73713e-07
-8.67328e-59
-8.1835e-55
6.83539e-54
-1.55016e-58
-8.20041e-55
6.84845e-54
-1.34559e-59
-8.20028e-55
6.84774e-54
3.23334e-58
-8.2006e-55
6.84796e-54
6.32104e-58
-8.20291e-55
6.8504e-54
-8.18539e-55
6.83644e-54
5.7152e-60
-3.57023e-58
7.44075e-56
1.20775e-60
-3.57802e-58
7.45597e-56
3.34959e-62
-3.57792e-58
7.45585e-56
-2.46338e-61
-3.57808e-58
7.45614e-56
-1.07101e-61
-3.57916e-58
7.45829e-56
-3.5712e-58
7.4424e-56
3.57859e-64
9.81887e-60
-5.24441e-64
9.83996e-60
-8.19863e-64
9.83964e-60
-1.17508e-63
9.8401e-60
-1.48558e-63
9.84313e-60
9.82138e-60
-1.78246e-53
-3.97463e-50
3.2378e-49
-1.8112e-53
-3.98263e-50
3.24403e-49
-2.84906e-54
-3.9826e-50
3.24375e-49
1.49345e-53
-3.98274e-50
3.24395e-49
2.46817e-53
-3.98378e-50
3.24518e-49
-3.97575e-50
3.23885e-49
8.95149e-56
-1.99788e-53
7.12393e-51