/*--------------------------------*- C++ -*----------------------------------*\
| =========                 |                                                 |
| \\      /  F ield         | OpenFOAM: The Open Source CFD Toolbox           |
|  \\    /   O peration     | Version:  v1612+                                |
|   \\  /    A nd           | Web:      www.OpenFOAM.com                      |
|    \\/     M anipulation  |                                                 |
\*---------------------------------------------------------------------------*/
FoamFile
{
    version     2.0;
    format      ascii;
    class       volScalarField;
    location    "2.45";
    object      alpha.water;
}
// * * * * * * * * * * * * * * * * * * * * * * * * * * * * * * * * * * * * * //

dimensions      [0 0 0 0 0 0 0];

internalField   nonuniform List<scalar> 
1116
(
0.988309
0.988309
0.988309
0.988308
0.988308
0.988308
0.988309
0.988309
0.988308
0.988308
0.988308
0.988308
0.986913
0.986913
0.986913
0.986913
0.986913
0.986913
0.985408
0.985408
0.985408
0.985408
0.985408
0.985408
0.985012
0.985012
0.985012
0.985012
0.985012
0.985012
0.984713
0.984712
0.984712
0.984712
0.984712
0.984712
0.984566
0.984566
0.984566
0.984566
0.984566
0.984566
0.980649
0.980648
0.980648
0.980648
0.980647
0.980647
0.961039
0.961028
0.961034
0.961033
0.961031
0.961034
0.960747
0.960735
0.960741
0.960741
0.960738
0.960742
0.95986
0.959848
0.959854
0.959854
0.959851
0.959855
0.946397
0.946398
0.946398
0.946399
0.946402
0.946393
0.907049
0.907046
0.907046
0.907048
0.907048
0.907047
0.678957
0.678949
0.67895
0.678953
0.678952
0.678952
0.654357
0.654351
0.654352
0.654352
0.654351
0.654354
0.662968
0.662965
0.662966
0.662964
0.662963
0.662966
0.661206
0.661204
0.661204
0.661202
0.6612
0.661202
0.622807
0.622806
0.622806
0.622802
0.622801
0.622801
0.537138
0.537136
0.537135
0.537132
0.53713
0.53713
0.409714
0.409714
0.409712
0.409708
0.409706
0.409706
0.220237
0.220238
0.220237
0.220235
0.220233
0.220234
0.245848
0.245844
0.245845
0.245843
0.245839
0.245843
0.593431
0.593403
0.593411
0.593408
0.5934
0.593412
0.912802
0.912795
0.912797
0.912797
0.912796
0.912789
0.160623
0.160619
0.160618
0.160622
0.160623
0.16062
0.00382797
0.00382604
0.00382599
0.00382673
0.0038264
0.00382693
3.58043e-08
3.58823e-08
3.58725e-08
3.59446e-08
3.60297e-08
3.58368e-08
2.4002e-08
2.4051e-08
2.40622e-08
2.40706e-08
2.40706e-08
2.41083e-08
8.41996e-09
8.41779e-09
8.41689e-09
8.41762e-09
8.41759e-09
8.4123e-09
6.30164e-12
6.30197e-12
6.3013e-12
6.29985e-12
6.29759e-12
6.29581e-12
3.39995e-12
3.39966e-12
3.39933e-12
3.39907e-12
3.39865e-12
3.39831e-12
6.68637e-12
6.68461e-12
6.68558e-12
6.68484e-12
6.68694e-12
6.67756e-12
-3.56252e-10
-3.56455e-10
-3.56388e-10
-3.56364e-10
-3.56424e-10
-3.56132e-10
-1.09281e-05
-1.09292e-05
-1.09292e-05
-1.09289e-05
-1.09287e-05
-1.09272e-05
0.0312297
0.0312162
0.0312183
0.0312181
0.0312153
0.0312209
0.749788
0.74978
0.749778
0.74977
0.749765
0.749783
8.50761e-08
8.51029e-08
8.51054e-08
8.51699e-08
8.52008e-08
8.4965e-08
3.58047e-08
3.58827e-08
3.58729e-08
3.5945e-08
3.60301e-08
3.58372e-08
2.51972e-08
2.53011e-08
2.53258e-08
2.53411e-08
2.53407e-08
2.54257e-08
8.41995e-09
8.41778e-09
8.41689e-09
8.41761e-09
8.41758e-09
8.4123e-09
6.30164e-12
6.30195e-12
6.30128e-12
6.29983e-12
6.29757e-12
6.29581e-12
3.39995e-12
3.39966e-12
3.39933e-12
3.39907e-12
3.39865e-12
3.39831e-12
3.39966e-12
3.39933e-12
3.39907e-12
3.39865e-12
3.39831e-12
3.39831e-12
3.50828e-12
3.50756e-12
3.50804e-12
3.50751e-12
3.5085e-12
3.50256e-12
1.88007e-11
1.87893e-11
1.87935e-11
1.87953e-11
1.87977e-11
1.87896e-11
-3.29626e-08
-3.27984e-08
-3.28962e-08
-3.29654e-08
-3.29347e-08
-3.31547e-08
0.000239623
0.000239633
0.00023963
0.00023963
0.000239625
0.000239639
0.70232
0.70227
0.702284
0.702283
0.702253
0.702331
1.09762e-61
1.09973e-61
1.09963e-61
1.09973e-61
1.10019e-61
1.09814e-61
2.51501e-57
2.51936e-57
2.51903e-57
2.51925e-57
2.52032e-57
2.51591e-57
3.14595e-53
3.14936e-53
3.14834e-53
3.14832e-53
3.14959e-53
3.14433e-53
2.67586e-49
2.67594e-49
2.6742e-49
2.67391e-49
2.67518e-49
2.67168e-49
1.58057e-45
1.57877e-45
1.57732e-45
1.57722e-45
1.57847e-45
1.57764e-45
5.9784e-42
5.97235e-42
5.9691e-42
5.97172e-42
5.98111e-42
5.98505e-42
1.27668e-38
1.27915e-38
1.28071e-38
1.28323e-38
1.2882e-38
1.28939e-38
1.41913e-35
1.43568e-35
1.44352e-35
1.45074e-35
1.46542e-35
1.45506e-35
6.74426e-33
6.95454e-33
7.0245e-33
7.06088e-33
7.14519e-33
6.93984e-33
4.93411e-33
4.93687e-33
4.93652e-33
4.9395e-33
4.94697e-33
4.94834e-33
4.07946e-30
4.08747e-30
4.08835e-30
4.09067e-30
4.09597e-30
4.09667e-30
1.95311e-27
1.95791e-27
1.95814e-27
1.95831e-27
1.95905e-27
1.95663e-27
1.78707e-58
1.79048e-58
1.7903e-58
1.7904e-58
1.79109e-58
1.78763e-58
4.15181e-54
4.15936e-54
4.15886e-54
4.15906e-54
4.16064e-54
4.15297e-54
5.08387e-50
5.09147e-50
5.09031e-50
5.09021e-50
5.09198e-50
5.0829e-50
4.08483e-46
4.08883e-46
4.0872e-46
4.08681e-46
4.08827e-46
4.08185e-46
2.19694e-42
2.19798e-42
2.19684e-42
2.19664e-42
2.19774e-42
2.19524e-42
7.42846e-39
7.43309e-39
7.43102e-39
7.43277e-39
7.4411e-39
7.43611e-39
1.69957e-35
1.70458e-35
1.70626e-35
1.70919e-35
1.71911e-35
1.70981e-35
3.33106e-32
3.36485e-32
3.37737e-32
3.39229e-32
3.44434e-32
3.36825e-32
3.11549e-29
3.17585e-29
3.19128e-29
3.2019e-29
3.25039e-29
3.12224e-29
7.85756e-30
7.85003e-30
7.8467e-30
7.85111e-30
7.86447e-30
7.86963e-30
6.06385e-27
6.07356e-27
6.07412e-27
6.0767e-27
6.08361e-27
6.0841e-27
1.87619e-24
1.88017e-24
1.8802e-24
1.88018e-24
1.88067e-24
1.8782e-24
1.15201e-55
1.15423e-55
1.15411e-55
1.15417e-55
1.15459e-55
1.15231e-55
2.69646e-51
2.70152e-51
2.70124e-51
2.70136e-51
2.70233e-51
2.6972e-51
3.1887e-47
3.19415e-47
3.19365e-47
3.19365e-47
3.1947e-47
3.18878e-47
2.39081e-43
2.3943e-43
2.39373e-43
2.39361e-43
2.39437e-43
2.39022e-43
1.18597e-39
1.18745e-39
1.18711e-39
1.18705e-39
1.18749e-39
1.1857e-39
3.9695e-36
3.97501e-36
3.97433e-36
3.97525e-36
3.98204e-36
3.97068e-36
1.66086e-32
1.66584e-32
1.66665e-32
1.67051e-32
1.69215e-32
1.659e-32
6.94037e-29
6.98121e-29
6.99064e-29
7.01754e-29
7.15329e-29
6.91376e-29
1.0286e-25
1.03658e-25
1.03744e-25
1.04063e-25
1.05985e-25
1.01539e-25
2.17987e-23
2.20235e-23
2.19085e-23
2.17608e-23
2.18575e-23
2.05153e-23
5.93893e-24
5.94858e-24
5.94817e-24
5.94868e-24
5.95309e-24
5.94654e-24
8.72727e-22
8.74332e-22
8.74265e-22
8.74141e-22
8.74194e-22
8.72855e-22
3.57762e-53
3.58454e-53
3.5842e-53
3.58434e-53
3.58559e-53
3.57836e-53
8.32801e-49
8.34394e-49
8.34316e-49
8.34349e-49
8.34637e-49
8.33017e-49
9.33367e-45
9.35071e-45
9.3496e-45
9.34969e-45
9.35263e-45
9.33481e-45
6.37895e-41
6.38982e-41
6.38883e-41
6.38868e-41
6.3905e-41
6.37872e-41
2.79743e-37
2.8019e-37
2.8014e-37
2.8013e-37
2.80208e-37
2.79717e-37
1.17714e-33
1.17895e-33
1.17854e-33
1.17959e-33
1.18836e-33
1.1731e-33
1.54896e-29
1.55222e-29
1.55177e-29
1.55636e-29
1.58647e-29
1.53379e-29
8.10947e-26
8.13288e-26
8.13146e-26
8.16059e-26
8.3303e-26
8.00534e-26
1.27788e-22
1.28188e-22
1.28102e-22
1.28553e-22
1.31177e-22
1.2546e-22
8.94195e-20
8.96469e-20
8.94053e-20
8.95142e-20
9.10326e-20
8.66034e-20
2.19347e-21
2.19717e-21
2.19657e-21
2.19703e-21
2.2025e-21
2.18848e-21
8.72879e-22
8.74483e-22
8.74418e-22
8.7429e-22
8.74331e-22
8.73022e-22
1.26247e-06
1.26251e-06
1.26273e-06
1.26298e-06
1.26303e-06
1.26284e-06
1.3241e-06
1.32408e-06
1.3244e-06
1.32474e-06
1.32483e-06
1.32472e-06
-1.77805e-14
-1.94759e-14
-1.9991e-14
-1.95464e-14
-1.94311e-14
-1.9895e-14
1.65441e-05
1.65419e-05
1.65424e-05
1.65406e-05
1.65397e-05
1.65468e-05
2.04023e-05
2.04024e-05
2.04024e-05
2.04024e-05
2.04025e-05
2.04025e-05
-1.05596e-13
-1.15659e-13
-1.18724e-13
-1.16083e-13
-1.15398e-13
-1.18161e-13
3.58047e-08
3.58827e-08
3.58729e-08
3.5945e-08
3.60301e-08
3.58372e-08
1.07949e-07
1.07861e-07
1.078e-07
1.07995e-07
1.08254e-07
1.08216e-07
-6.37591e-13
-6.98368e-13
-7.16862e-13
-7.00913e-13
-6.96786e-13
-7.13432e-13
6.22301e-07
6.22188e-07
6.22164e-07
6.22253e-07
6.22262e-07
6.21998e-07
5.80657e-07
5.80386e-07
5.80423e-07
5.80106e-07
5.79878e-07
5.8083e-07
-5.5862e-13
-6.11838e-13
-6.28018e-13
-6.14032e-13
-6.10412e-13
-6.24961e-13
6.33286e-07
6.33057e-07
6.33006e-07
6.33072e-07
6.33073e-07
6.32728e-07
6.36213e-07
6.36211e-07
6.36208e-07
6.36201e-07
6.36189e-07
6.36185e-07
-3.74949e-15
-4.12151e-15
-4.24927e-15
-4.1496e-15
-4.11685e-15
-4.02414e-15
3.87333e-12
3.87321e-12
3.87322e-12
3.87288e-12
3.87357e-12
3.86957e-12
4.53674e-09
4.53701e-09
4.53654e-09
4.53489e-09
4.53168e-09
4.53079e-09
1.94002e-21
1.94114e-21
1.94141e-21
1.94262e-21
1.94656e-21
1.94287e-21
3.74962e-12
3.74926e-12
3.74937e-12
3.74906e-12
3.75025e-12
3.74359e-12
2.97332e-14
2.9755e-14
2.97528e-14
2.97502e-14
2.97688e-14
2.97004e-14
1.37945e-17
1.37879e-17
1.37928e-17
1.37906e-17
1.38009e-17
1.37807e-17
8.01469e-11
8.01067e-11
8.016e-11
8.01461e-11
8.02402e-11
7.98646e-11
1.97898e-12
1.9787e-12
1.97896e-12
1.97919e-12
1.9794e-12
1.97885e-12
1.52076e-17
1.51443e-17
1.50992e-17
1.50922e-17
1.49513e-17
1.52057e-17
1.3729e-11
1.3742e-11
1.37453e-11
1.37389e-11
1.37337e-11
1.37084e-11
-5.59479e-11
-5.58985e-11
-5.58312e-11
-5.58034e-11
-5.54806e-11
-5.64345e-11
-2.17789e-12
-2.17857e-12
-2.17781e-12
-2.17775e-12
-2.1769e-12
-2.18015e-12
-7.36599e-11
-7.39242e-11
-7.39622e-11
-7.38613e-11
-7.41828e-11
-7.28308e-11
2.20616e-08
2.2042e-08
2.20446e-08
2.20464e-08
2.20561e-08
2.204e-08
-3.89866e-09
-3.90732e-09
-3.90385e-09
-3.90484e-09
-3.89696e-09
-3.90629e-09
2.47679e-05
2.47692e-05
2.47683e-05
2.47679e-05
2.47681e-05
2.47675e-05
2.61004e-06
2.60867e-06
2.60376e-06
2.60678e-06
2.63495e-06
2.57071e-06
9.51494e-08
9.52058e-08
9.52162e-08
9.51933e-08
9.50075e-08
9.51179e-08
0.356614
0.356578
0.356615
0.356594
0.356459
0.35679
0.00135097
0.00135116
0.00135271
0.00135152
0.00134398
0.00136163
-1.19276e-11
-1.18307e-11
-1.17257e-11
-1.26865e-11
-1.15845e-11
-1.15968e-11
2.4945e-12
2.50458e-12
2.48915e-12
2.5211e-12
2.65717e-12
2.36306e-12
6.89141e-11
7.92023e-11
6.45011e-11
7.87616e-11
8.13559e-11
-7.93444e-11
2.3426e-08
2.3415e-08
2.34274e-08
2.34333e-08
2.33054e-08
2.35179e-08
1.54716e-10
1.54614e-10
1.54632e-10
1.54811e-10
1.53769e-10
1.55431e-10
6.40379e-08
6.39982e-08
6.40315e-08
6.40385e-08
6.36677e-08
6.42447e-08
1.08393e-05
1.08496e-05
1.08253e-05
1.0881e-05
1.1071e-05
1.06158e-05
2.65781e-07
2.6542e-07
2.65321e-07
2.66304e-07
2.65665e-07
2.63902e-07
0.00024842
0.000247376
0.000247335
0.000249231
0.00025256
0.000242212
0.00765051
0.00765208
0.00764769
0.00765859
0.00770034
0.00759787
2.6936e-07
2.69038e-07
2.68987e-07
2.69822e-07
2.69958e-07
2.67861e-07
0.0432491
0.0432517
0.0432382
0.0432719
0.0433682
0.0431111
0.0341868
0.0341906
0.0341782
0.0342123
0.0343267
0.0340377
0.056969
0.0569695
0.0569383
0.0570098
0.0572515
0.056664
0.0730846
0.0730909
0.0730909
0.0731119
0.0731119
0.0730971
0.00587638
0.00588097
0.00588035
0.00587648
0.00584673
0.00592378
0.325857
0.325838
0.325829
0.325893
0.326104
0.325612
0.0678538
0.067882
0.0678691
0.0678775
0.0679082
0.0678536
-7.03651e-11
-7.07859e-11
-7.06052e-11
-7.07685e-11
-7.0846e-11
-7.04688e-11
4.66582e-51
4.67485e-51
4.6744e-51
4.67457e-51
4.67617e-51
4.66662e-51
8.04148e-53
8.05795e-53
8.05784e-53
8.05815e-53
8.06041e-53
8.04332e-53
3.21586e-56
3.22281e-56
3.22272e-56
3.22285e-56
3.22382e-56
3.21671e-56
1.05591e-46
1.05795e-46
1.05785e-46
1.05789e-46
1.05825e-46
1.05617e-46
3.67731e-48
3.68466e-48
3.68465e-48
3.68478e-48
3.68573e-48
3.67835e-48
1.69016e-51
1.6937e-51
1.69366e-51
1.69372e-51
1.69418e-51
1.69061e-51
1.09064e-42
1.09268e-42
1.09257e-42
1.09259e-42
1.09292e-42
1.09081e-42
7.92301e-44
7.93808e-44
7.938e-44
7.93812e-44
7.93984e-44
7.92462e-44
4.55069e-47
4.55983e-47
4.55972e-47
4.5598e-47
4.56088e-47
4.55162e-47
6.57552e-39
6.58735e-39
6.58653e-39
6.58646e-39
6.58828e-39
6.57577e-39
1.01625e-39
1.01808e-39
1.01807e-39
1.01806e-39
1.01825e-39
1.01639e-39
8.03255e-43
8.04783e-43
8.04765e-43
8.04771e-43
8.04938e-43
8.03393e-43
2.4768e-35
2.48106e-35
2.48071e-35
2.48062e-35
2.48122e-35
2.47662e-35
8.22763e-36
8.24166e-36
8.24149e-36
8.24135e-36
8.24253e-36
8.22836e-36
1.02614e-38
1.028e-38
1.02797e-38
1.02797e-38
1.02815e-38
1.02627e-38
5.84549e-31
5.85305e-31
5.84757e-31
5.86104e-31
5.96936e-31
5.7704e-31
4.89562e-28
4.90161e-28
4.89576e-28
4.90972e-28
5.01221e-28
4.80949e-28
3.7339e-25
3.73848e-25
3.73356e-25
3.74559e-25
3.82541e-25
3.65798e-25
1.40806e-26
1.40999e-26
1.40866e-26
1.41295e-26
1.44233e-26
1.38575e-26
8.87455e-24
8.88578e-24
8.87518e-24
8.90478e-24
9.0942e-24
8.70332e-24
4.08143e-21
4.08658e-21
4.08101e-21
4.09638e-21
4.18537e-21
3.99176e-21
6.46146e-23
6.47112e-23
6.46418e-23
6.48672e-23
6.62422e-23
6.34176e-23
2.81677e-20
2.8204e-20
2.81654e-20
2.82737e-20
2.88848e-20
2.75578e-20
7.50607e-18
7.51569e-18
7.50397e-18
7.53713e-18
7.70367e-18
7.327e-18
9.06003e-20
9.07366e-20
9.061e-20
9.09657e-20
9.29088e-20
8.86473e-20
2.59352e-17
2.59689e-17
2.5926e-17
2.60431e-17
2.66134e-17
2.5318e-17
1.51388e-17
1.51362e-17
1.51398e-17
1.51293e-17
1.5085e-17
1.51914e-17
9.3875e-17
9.39934e-17
9.38411e-17
9.41927e-17
9.61292e-17
9.16884e-17
1.8396e-14
1.84171e-14
1.83879e-14
1.84642e-14
1.88303e-14
1.79786e-14
1.58416e-17
1.5841e-17
1.5842e-17
1.58397e-17
1.58315e-17
1.58479e-17
2.84619e-14
2.8443e-14
2.84098e-14
2.85224e-14
2.8688e-14
2.80338e-14
6.16653e-12
6.16448e-12
6.15785e-12
6.1833e-12
6.22816e-12
6.07359e-12
8.77808e-17
8.78557e-17
8.77846e-17
8.77416e-17
8.56485e-17
1.35083e-17
1.47644e-12
1.48723e-12
1.47176e-12
1.50207e-12
1.71218e-12
1.3485e-12
4.2155e-10
4.2727e-10
4.18905e-10
4.35288e-10
5.08585e-10
3.54369e-10
-4.15162e-18
-4.19448e-18
-4.12344e-18
-4.34474e-18
-5.08843e-18
-3.82152e-18
)
;

boundaryField
{
    seabed_topleft_surface
    {
        type            zeroGradient;
    }
    seabed_topright_surface
    {
        type            zeroGradient;
    }
    breakwater_top_surface
    {
        type            zeroGradient;
    }
    breakwater_left_surface
    {
        type            zeroGradient;
    }
    breakwater_right_surface
    {
        type            zeroGradient;
    }
    water_front_surface
    {
        type            zeroGradient;
    }
    water_back_surface
    {
        type            zeroGradient;
    }
    water_left_surface
    {
        type            zeroGradient;
    }
    water_right_surface
    {
        type            zeroGradient;
    }
    water_top_surface
    {
        type            inletOutlet;
        inletValue      uniform 0;
        value           nonuniform List<scalar> 
180
(
0
0
0
0
0
0
0
0
0
0
0
0
0
0
0
0
0
0
0
0
0
0
0
0
0
0
0
0
0
0
0
0
0
0
0
0
0
0
0
0
0
0
0
0
0
0
0
0
0
0
0
0
0
0
-3.89866e-09
-3.90732e-09
-3.90385e-09
-3.90484e-09
-3.89696e-09
-3.90629e-09
9.51494e-08
9.52058e-08
9.52162e-08
9.51933e-08
9.50075e-08
9.51179e-08
0
0
0
0
0
0
2.3426e-08
2.3415e-08
2.34274e-08
2.34333e-08
2.33054e-08
2.35179e-08
1.08393e-05
1.08496e-05
1.08253e-05
1.0881e-05
1.1071e-05
1.06158e-05
0.00765051
0.00765208
0.00764769
0.00765859
0.00770034
0.00759787
0.0341868
0.0341906
0.0341782
0.0342123
0.0343267
0.0340377
0.00587638
0.00588097
0.00588035
0.00587648
0.00584673
0.00592378
0
0
0
0
0
0
0
0
0
0
0
0
0
0
0
0
0
0
0
0
0
0
0
0
0
0
0
0
0
0
0
0
0
0
0
0
0
0
0
0
0
0
0
0
0
0
0
0
0
0
0
0
0
0
0
0
0
0
0
0
0
0
0
0
0
0
0
0
0
0
0
0
0
0
0
0
0
0
)
;
    }
}


// ************************************************************************* //
