/*--------------------------------*- C++ -*----------------------------------*\
| =========                 |                                                 |
| \\      /  F ield         | OpenFOAM: The Open Source CFD Toolbox           |
|  \\    /   O peration     | Version:  v1612+                                |
|   \\  /    A nd           | Web:      www.OpenFOAM.com                      |
|    \\/     M anipulation  |                                                 |
\*---------------------------------------------------------------------------*/
FoamFile
{
    version     2.0;
    format      ascii;
    class       volScalarField;
    location    "2";
    object      alpha.water;
}
// * * * * * * * * * * * * * * * * * * * * * * * * * * * * * * * * * * * * * //

dimensions      [0 0 0 0 0 0 0];

internalField   nonuniform List<scalar> 
320
(
1
1
1
1
5.04723e-06
4.6233e-06
4.66369e-06
5.14855e-06
5.31713e-06
5.99377e-06
6.28194e-06
5.57853e-06
5.46348e-06
4.50288e-06
4.14693e-06
3.93189e-06
0.999991
0.999991
0.999992
0.999998
0.999998
0.999993
0.999996
0.999995
0.999991
0.999991
0.999993
0.999996
1
1
1
1
1
1
1
1
1
1
1
1
1
1
1
1
1
1
1
1
1
1
1
1
1
1
1
1
3.99407e-06
6.04892e-06
4.8527e-06
4.05426e-06
3.75847e-06
4.16419e-06
5.65193e-06
4.22044e-06
3.46668e-06
4.8411e-06
6.19493e-06
4.87057e-06
5.78535e-06
4.36894e-06
4.6595e-06
4.0715e-06
4.63125e-06
4.10604e-06
4.5067e-06
4.93695e-06
0.999999
0.999994
0.999997
0.999993
0.999997
0.999996
0.999998
1
0.999997
0.99999
0.999994
0.999997
0.999994
0.999995
0.999993
0.999994
0.999995
0.999999
0.999996
0.999994
1
1
1
1
1
1
1
1
1
1
1
1
1
1
1
1
1
1
1
1
1
1
1
1
1
1
1
1
1
1
1
1
1
1
1
1
1
1
1
1
1
1
1
1
1
1
1
1
1
1
1
1
1
1
1
1
1
1
1
1
1
1
1
1
1
1
1
1
1
1
1
1
1
1
1
1
6.54885e-06
5.2685e-06
6.89261e-06
5.55176e-06
5.05338e-06
5.86991e-06
5.5031e-06
4.94022e-06
5.95748e-06
7.01406e-06
6.60795e-06
4.19988e-06
3.84549e-06
5.18674e-06
6.85886e-06
6.50325e-06
5.23441e-06
4.68648e-06
6.54772e-06
4.99544e-06
3.71794e-06
3.51683e-06
5.23417e-06
7.05596e-06
5.94087e-06
4.12134e-06
4.22621e-06
5.55289e-06
0.999996
0.999999
0.999995
0.999999
0.999998
0.999997
0.999991
0.999991
0.999998
0.999996
0.999989
0.999991
0.999999
0.999998
0.999992
0.999998
0.999996
0.999994
0.999995
0.999993
0.99999
0.999994
0.999997
0.999996
0.999994
0.999994
0.999991
0.999995
1
1
1
1
1
1
1
1
1
1
1
1
1
1
1
1
1
1
1
1
1
1
1
1
1
1
1
1
1
1
1
1
1
1
1
1
1
1
1
1
1
1
1
1
1
1
1
1
1
1
1
1
1
1
1
1
1
1
1
1
1
1
1
1
1
1
1
1
1
1
1
1
1
1
1
1
1
1
1
1
1
1
1
1
3.84063e-06
3.51985e-06
5.09732e-06
6.11197e-06
0.999992
0.999997
0.999998
0.999999
)
;

boundaryField
{
    top_fluid_surface
    {
        type            inletOutlet;
        inletValue      uniform 0;
        value           nonuniform List<scalar> 
64
(
0
4.6233e-06
4.66369e-06
0
0
0
0
0
5.46348e-06
4.50288e-06
4.14693e-06
3.93189e-06
3.99407e-06
0
4.8527e-06
4.05426e-06
3.75847e-06
4.16419e-06
0
4.22044e-06
3.46668e-06
4.8411e-06
0
4.87057e-06
5.78535e-06
4.36894e-06
4.6595e-06
4.0715e-06
0
4.10604e-06
4.5067e-06
0
0
0
0
0
0
0
0
0
0
0
0
4.19988e-06
3.84549e-06
0
0
0
0
4.68648e-06
0
0
3.71794e-06
3.51683e-06
0
0
0
4.12134e-06
4.22621e-06
0
3.84063e-06
3.51985e-06
5.09732e-06
0
)
;
    }
    bottom_fluid_surface
    {
        type            zeroGradient;
    }
    lateral_surface_1
    {
        type            zeroGradient;
    }
    lateral_surface_2
    {
        type            zeroGradient;
    }
    lateral_surface_3
    {
        type            zeroGradient;
    }
    lateral_surface_4
    {
        type            zeroGradient;
    }
}


// ************************************************************************* //
