/*--------------------------------*- C++ -*----------------------------------*\
| =========                 |                                                 |
| \\      /  F ield         | OpenFOAM: The Open Source CFD Toolbox           |
|  \\    /   O peration     | Version:  v1612+                                |
|   \\  /    A nd           | Web:      www.OpenFOAM.com                      |
|    \\/     M anipulation  |                                                 |
\*---------------------------------------------------------------------------*/
FoamFile
{
    version     2.0;
    format      ascii;
    class       surfaceScalarField;
    location    "2";
    object      alphaPhi;
}
// * * * * * * * * * * * * * * * * * * * * * * * * * * * * * * * * * * * * * //

dimensions      [0 3 -1 0 0 0 0];

internalField   nonuniform List<scalar> 
816
(
-1.87626e-06
-7.3663e-07
1.13076e-07
4.77527e-07
-9.50635e-07
2.97263e-06
-6.85418e-07
1.75244e-06
-2.10798e-06
9.49817e-07
-1.78171e-06
-3.99397e-07
-2.17088e-07
-4.23877e-07
-8.20585e-07
1.12094e-06
-6.34188e-07
1.45622e-06
8.70575e-07
-2.77702e-06
-1.6516e-10
3.01342e-10
1.31868e-06
-8.35301e-10
6.11446e-10
-2.64878e-10
-7.01618e-06
-3.34281e-10
2.07489e-11
-3.30902e-10
9.56444e-08
1.08973e-10
-3.06995e-10
-2.02089e-10
2.8691e-06
-9.91169e-10
1.084e-09
-1.3838e-10
2.7569e-07
-1.92544e-11
4.12384e-10
-1.67202e-10
-1.29975e-06
1.05549e-09
1.73997e-10
4.81578e-10
-6.60671e-06
1.33399e-11
8.41018e-10
8.07268e-10
9.00902e-07
9.37629e-11
3.94858e-10
2.06133e-10
4.08516e-06
-2.6373e-10
3.13748e-10
4.51614e-10
2.22277e-06
-3.35365e-10
-4.61784e-11
2.02842e-10
-3.5703e-06
-4.39863e-10
1.72158e-10
5.94982e-11
-1.43473e-10
3.35083e-11
4.1357e-06
-9.47753e-07
-2.93378e-06
2.37984e-06
8.03672e-06
1.01259e-06
-9.93845e-06
2.2025e-06
9.72424e-07
-2.39255e-06
5.60946e-07
2.27644e-06
9.81477e-07
-1.27379e-06
6.48001e-06
-1.88988e-06
6.36523e-06
-4.72818e-07
4.18338e-06
2.86178e-06
2.17758e-06
-2.01958e-06
-8.13334e-07
3.79639e-06
4.63337e-06
-4.67194e-06
-4.50924e-07
-4.08649e-07
3.70096e-06
-9.60339e-07
6.31425e-06
-3.27241e-06
9.8391e-06
3.7014e-06
-9.91002e-07
2.10819e-06
8.74783e-06
5.04514e-06
3.13364e-06
-1.20029e-06
6.23056e-06
1.15614e-06
-5.05574e-06
-3.43303e-06
5.71716e-06
1.00101e-05
4.1037e-06
5.7006e-07
1.05598e-06
-2.68204e-06
-1.19735e-06
3.95273e-09
-2.61957e-06
-3.95014e-06
-5.22623e-07
-4.70906e-07
8.86113e-07
-5.54073e-07
-1.92046e-06
1.28636e-06
2.79134e-06
-1.66007e-07
1.28723e-06
1.74696e-06
1.91649e-06
-5.23539e-07
-2.93562e-07
1.1935e-06
8.98481e-08
-2.40906e-07
-4.63897e-07
1.30032e-06
1.64426e-06
2.73884e-06
1.51979e-06
-8.47205e-07
3.37971e-07
7.93929e-07
4.07509e-07
-4.16989e-07
2.34976e-06
-1.6341e-08
-2.15797e-06
-2.1713e-06
-6.51104e-07
5.11549e-06
-5.7414e-07
6.54531e-07
-9.93282e-07
-7.80821e-08
-1.66315e-07
2.37873e-07
5.48876e-08
-4.06845e-08
6.61776e-07
-9.68095e-07
3.14808e-07
1.11296e-07
-4.82066e-08
-8.03522e-07
-1.13747e-07
-3.62297e-07
9.4701e-07
4.74716e-07
6.65334e-07
-1.67833e-06
1.65899e-07
-5.00309e-07
-1.66148e-06
6.18616e-08
-1.04331e-06
3.3343e-07
-4.02607e-07
-9.51644e-07
2.34721e-07
1.04195e-06
1.98189e-07
8.94118e-07
9.12462e-07
1.03581e-06
4.70937e-07
-2.8609e-07
4.86443e-07
4.61808e-07
-4.01798e-08
-6.20637e-07
7.60631e-07
5.81806e-08
4.06112e-07
9.71551e-07
7.50585e-07
-4.60363e-07
8.55365e-07
5.47301e-07
-1.61614e-07
-6.07018e-08
3.70184e-07
7.89458e-07
-1.28816e-06
-1.92402e-09
-6.9867e-07
1.21258e-07
5.76023e-07
1.45708e-06
1.67689e-11
-2.27555e-10
-2.87865e-07
-6.37303e-10
1.69527e-10
2.13835e-06
-1.08759e-09
1.28862e-10
-4.90919e-06
-5.40686e-10
-2.65041e-10
-4.66662e-06
-4.46782e-10
-3.19264e-13
-6.83662e-07
-9.41434e-10
-7.29887e-10
-2.75366e-10
1.29901e-06
-9.91996e-10
5.13375e-10
4.42071e-06
-1.27085e-09
1.5405e-10
-8.60634e-07
-7.91889e-10
-5.77515e-10
-1.12271e-06
4.89938e-11
-3.92095e-10
-8.31549e-06
4.14826e-10
-1.36847e-09
3.68125e-10
1.79875e-06
-4.47766e-10
3.80387e-10
-1.33106e-05
-3.58517e-10
4.04969e-10
3.32421e-06
-1.03076e-10
5.31136e-10
5.28168e-11
-9.32316e-10
-9.52767e-11
-1.07312e-05
-3.04607e-10
5.48824e-10
-3.91996e-10
-9.35434e-06
-2.20864e-10
-5.08289e-11
3.39144e-06
-9.44545e-10
-3.01366e-10
4.22499e-11
-1.01895e-09
-5.37213e-10
4.75709e-06
1.58439e-10
8.2698e-07
-9.90908e-10
9.35482e-11
3.03806e-06
-3.94938e-06
9.37254e-06
2.85241e-06
4.77892e-06
4.18014e-06
7.46915e-06
1.74663e-07
-1.84857e-06
1.88012e-06
-5.81462e-06
1.24364e-06
-1.27643e-06
-1.37534e-07
4.04639e-06
-3.91695e-06
-7.72316e-06
2.3023e-07
5.33319e-06
-2.15443e-07
4.416e-06
1.0676e-05
3.10498e-07
-1.17087e-06
7.9873e-06
-7.9446e-07
-2.25836e-06
4.16706e-06
-3.9015e-07
-2.62598e-06
-9.45454e-06
5.16544e-06
1.11777e-06
-8.81019e-07
6.92123e-06
4.57558e-06
-6.93016e-06
1.1051e-06
-2.47629e-06
8.15867e-07
1.33689e-06
2.25012e-07
7.78982e-06
1.76562e-06
2.33326e-06
-1.24308e-06
-4.25961e-06
-4.23694e-06
2.28304e-06
-4.12248e-06
-3.27995e-06
4.37141e-06
-8.16999e-07
5.78602e-06
2.71714e-06
-3.12289e-06
1.02867e-05
-2.15159e-06
2.98197e-06
8.5189e-06
4.17209e-06
-1.62402e-06
5.64577e-06
-1.31159e-06
-3.51432e-07
3.36331e-06
4.52772e-06
1.2586e-06
3.05663e-07
2.2149e-06
1.29805e-06
-7.22717e-07
-8.16922e-07
-5.28828e-07
2.45946e-07
1.18891e-06
-1.47549e-06
-1.45394e-06
2.38326e-06
1.07884e-06
2.27946e-06
-7.09197e-07
3.00052e-06
-3.44322e-07
2.2542e-06
4.76353e-06
2.77547e-06
4.09686e-06
3.55412e-06
4.50526e-06
4.51243e-06
2.1792e-06
2.76771e-06
-2.73734e-06
-3.90251e-06
-7.76842e-07
2.4682e-06
-5.3805e-07
3.53057e-06
1.24591e-06
6.72798e-07
4.41911e-07
7.52102e-07
6.28501e-07
8.89037e-07
2.03796e-06
1.39382e-06
1.24171e-06
5.86586e-07
-1.89997e-06
-1.86214e-06
4.52139e-07
4.54288e-07
-2.93415e-06
-1.01852e-06
-7.77043e-07
-1.13738e-06
2.65887e-06
1.33155e-06
1.35198e-06
4.75188e-06
2.40626e-06
3.19761e-06
3.83342e-06
3.50334e-06
-8.02238e-07
1.42797e-06
4.33492e-06
-2.41053e-07
2.21653e-06
1.31387e-06
1.38344e-06
1.19991e-07
5.46715e-07
1.46818e-06
-8.49815e-07
2.62368e-08
1.77709e-07
-1.27282e-07
4.23834e-07
-3.69923e-07
-7.58458e-07
7.98181e-07
8.63641e-07
1.34833e-06
9.1712e-08
9.92666e-07
2.06657e-07
1.38455e-06
1.69867e-06
1.9679e-06
2.25564e-06
9.57875e-07
2.75462e-06
2.90874e-06
4.3397e-07
1.56325e-06
-1.70327e-06
-1.22248e-06
-2.60809e-07
2.17973e-06
-4.93512e-07
1.1128e-06
1.65617e-06
-2.81694e-08
1.93847e-07
5.71034e-07
1.54312e-07
2.32941e-07
1.46841e-06
9.25388e-07
2.96e-07
1.06115e-06
-1.21318e-06
-5.53629e-07
5.06446e-07
3.44093e-07
-1.58632e-06
-1.47641e-07
9.22607e-08
-6.48031e-07
7.40915e-07
1.37716e-06
7.73751e-07
1.38147e-06
1.96003e-06
2.17951e-06
9.81005e-07
2.02162e-06
-2.08941e-07
1.50322e-06
2.2872e-06
-5.23863e-07
1.2654e-07
-1.74643e-09
4.47007e-07
9.39044e-08
1.92904e-07
-5.08771e-07
-5.53087e-09
2.47196e-07
-2.35419e-07
-8.51657e-08
6.485e-07
1.53958e-08
-5.17947e-07
2.04404e-09
-7.92664e-07
-4.72131e-08
2.94481e-07
-3.13073e-07
-5.41836e-07
7.46729e-07
-7.11207e-08
6.80007e-07
4.51343e-07
-1.73825e-07
4.3403e-07
3.71051e-07
-5.56946e-08
5.84081e-07
4.05629e-07
5.51738e-07
-4.92417e-07
4.9955e-07
2.59724e-07
-1.26622e-07
2.11135e-07
-5.16272e-07
1.48739e-07
-2.24786e-08
4.43925e-07
-3.79593e-07
1.20691e-06
4.60375e-07
-3.1158e-07
4.68198e-07
-4.63636e-07
1.21675e-07
-8.78112e-08
-2.65235e-07
-2.24264e-07
3.202e-07
6.15375e-07
1.71413e-07
6.21761e-08
1.02693e-06
7.74032e-07
1.37214e-06
1.06454e-06
1.5007e-06
7.36604e-07
-9.34563e-07
1.09106e-07
1.08946e-06
-2.45714e-07
7.83594e-07
3.27502e-08
5.02265e-07
1.47485e-07
6.8769e-07
4.63249e-07
5.06676e-07
-7.63321e-07
4.40385e-07
2.54657e-07
-7.81095e-07
1.68914e-07
-2.86687e-07
4.76309e-07
3.7437e-07
8.79369e-07
8.81166e-07
9.18245e-07
6.58147e-07
1.20911e-06
9.8045e-11
4.66846e-10
-5.09967e-06
-3.39805e-10
3.26645e-08
3.09711e-10
-1.30792e-05
-1.17882e-10
-4.37687e-06
-5.78172e-10
2.59995e-06
-3.97616e-10
1.65642e-06
2.86915e-10
9.40024e-07
-4.03874e-10
8.28866e-07
-3.67046e-10
1.57623e-06
8.08207e-10
-4.32085e-06
1.49166e-09
-8.41771e-06
2.40281e-10
-4.38127e-06
-7.40043e-10
1.97643e-11
-3.23612e-10
-4.66186e-06
-2.85865e-10
-1.02909e-05
6.48941e-10
-4.56316e-06
3.53841e-10
1.81906e-06
8.38078e-11
9.04442e-12
1.18379e-09
1.47541e-07
6.83637e-10
5.20363e-07
-1.3984e-10
-2.30683e-06
-1.07647e-09
-6.97674e-06
-1.36751e-09
-2.21557e-06
5.55453e-10
-2.42673e-06
7.63135e-10
-8.55353e-07
-9.45769e-13
-6.94739e-06
-5.93126e-10
-4.5875e-06
-9.35456e-06
1.00958e-06
9.88247e-07
-2.49634e-06
2.57355e-06
1.71198e-06
-9.8862e-07
-6.68743e-06
-6.82601e-06
-4.77711e-07
-6.25771e-06
7.72477e-06
-3.70339e-06
2.9836e-08
3.73559e-06
-4.49125e-06
3.881e-06
-4.78856e-06
3.23814e-06
6.75904e-06
3.38743e-07
-2.5989e-06
3.11634e-06
-1.54477e-05
4.57592e-06
-8.3693e-06
3.36043e-06
5.85922e-06
-2.84708e-06
-1.19759e-06
-3.79489e-06
-1.20576e-05
-5.6499e-06
-1.15344e-06
-4.14804e-06
1.33416e-06
-3.10729e-07
-4.49551e-06
2.86716e-06
-1.14963e-06
1.39569e-06
-6.6812e-07
3.92973e-06
-5.21609e-06
5.99443e-07
-1.49197e-06
-2.56173e-06
4.2837e-06
-2.1059e-06
-1.21671e-06
-3.00811e-07
-5.25924e-06
1.53045e-06
-4.51873e-06
4.16575e-06
-9.26609e-06
-8.85823e-06
-2.35514e-06
3.40012e-06
-2.12291e-06
1.52487e-08
5.9023e-07
-1.80937e-06
-3.56589e-06
-2.07858e-06
-7.47755e-07
9.89625e-07
3.17532e-06
2.12335e-06
-2.60045e-08
-8.16422e-07
-1.55478e-06
-1.67487e-06
-1.65283e-06
2.24259e-06
2.50264e-06
4.16303e-06
-1.7437e-06
1.83675e-07
-6.96607e-06
-2.03674e-06
-3.3862e-06
6.45221e-07
2.39308e-06
7.29236e-07
-1.288e-06
-2.68065e-06
-6.204e-06
-1.13777e-06
-1.45314e-06
6.49355e-07
3.28192e-07
1.00025e-07
-1.89515e-06
7.81721e-07
-1.2306e-06
1.35048e-06
-7.66843e-07
-1.8976e-06
-1.96386e-06
-2.09971e-06
-8.15205e-07
1.93889e-07
1.23256e-06
1.42428e-06
-1.10089e-06
1.64383e-06
-3.06607e-06
2.29247e-06
-1.66496e-06
9.282e-07
-3.57398e-06
-4.53819e-06
-1.63529e-06
1.70136e-06
-7.15742e-07
-1.03064e-07
4.26723e-07
-1.25664e-06
-9.55859e-07
-1.64595e-06
-1.95324e-07
1.13085e-07
1.03831e-06
8.69511e-07
8.44649e-08
-2.53262e-07
-4.32615e-07
-2.48326e-08
-5.28186e-07
1.92787e-06
7.65362e-07
2.34985e-06
-1.9608e-07
-1.37864e-09
-1.86413e-06
-6.36583e-07
-1.20252e-06
1.06522e-06
3.69631e-07
4.22079e-07
-6.65542e-07
-1.64778e-06
-1.97451e-06
-1.1358e-06
-3.17864e-07
-1.12442e-07
-1.19524e-07
-3.87791e-08
-4.8663e-07
1.42817e-07
-3.34448e-07
3.34578e-07
-4.24059e-07
-7.30293e-07
-8.86895e-07
-7.90978e-07
-3.8249e-07
3.02289e-07
2.58015e-07
6.37062e-07
-3.95633e-08
3.38345e-07
-7.99092e-07
1.19229e-06
-5.02259e-07
1.18064e-06
-1.30577e-06
-1.66267e-06
-1.11362e-06
1.04321e-06
-2.43862e-07
-7.3872e-07
-8.13435e-07
-4.21126e-08
3.68728e-07
-6.21516e-08
3.10913e-08
8.63759e-07
1.4427e-06
6.41604e-07
1.6811e-07
6.24037e-07
-5.33629e-08
-9.48403e-07
-4.82348e-07
-9.17031e-08
1.2085e-07
3.04725e-07
3.41924e-07
-5.36255e-07
-6.4354e-07
-2.04319e-07
2.41478e-07
3.25347e-07
7.37267e-07
6.2532e-07
-1.7008e-10
-2.88044e-10
-1.39096e-05
-1.05742e-09
-1.81348e-05
-2.96995e-10
-1.79686e-05
-3.54041e-06
1.02666e-06
-1.57055e-06
-2.20783e-06
1.09393e-06
)
;

boundaryField
{
    top_fluid_surface
    {
        type            calculated;
        value           nonuniform List<scalar> 
64
(
0
4.96404e-10
2.51582e-10
0
0
0
0
0
6.07094e-10
1.52127e-10
6.37457e-10
4.99658e-10
4.84528e-10
0
4.33376e-10
8.8627e-10
8.79525e-10
5.57086e-10
0
7.90887e-10
1.15554e-09
3.29993e-10
0
5.50198e-10
2.36589e-10
4.64909e-10
4.55786e-10
7.88877e-10
0
4.21008e-10
4.53086e-12
0
0
0
0
0
0
0
0
0
0
0
0
8.39483e-10
1.13321e-09
0
0
0
0
3.84836e-10
0
0
7.45692e-10
1.00277e-09
0
0
0
6.87431e-10
5.52851e-10
0
1.19751e-09
1.23298e-09
5.89111e-10
0
)
;
    }
    bottom_fluid_surface
    {
        type            calculated;
        value           uniform 0;
    }
    lateral_surface_1
    {
        type            calculated;
        value           uniform 0;
    }
    lateral_surface_2
    {
        type            calculated;
        value           uniform 0;
    }
    lateral_surface_3
    {
        type            calculated;
        value           uniform 0;
    }
    lateral_surface_4
    {
        type            calculated;
        value           uniform 0;
    }
}


// ************************************************************************* //
