/*--------------------------------*- C++ -*----------------------------------*\
| =========                 |                                                 |
| \\      /  F ield         | OpenFOAM: The Open Source CFD Toolbox           |
|  \\    /   O peration     | Version:  v1612+                                |
|   \\  /    A nd           | Web:      www.OpenFOAM.com                      |
|    \\/     M anipulation  |                                                 |
\*---------------------------------------------------------------------------*/
FoamFile
{
    version     2.0;
    format      ascii;
    class       volScalarField;
    location    "2";
    object      p;
}
// * * * * * * * * * * * * * * * * * * * * * * * * * * * * * * * * * * * * * //

dimensions      [1 -1 -2 0 0 0 0];

internalField   nonuniform List<scalar> 
320
(
14724.8
14724.8
14724.8
14724.8
4.92987
4.92951
4.92958
4.92949
4.92961
4.92988
4.92957
4.92966
4.9309
4.92817
4.92841
4.92841
4914.81
4914.78
4914.78
4914.85
4914.85
4914.84
4914.85
4914.84
4914.78
4914.77
4914.78
4914.79
14724.8
14724.8
14724.8
14724.8
14724.8
14724.8
14724.8
14724.8
14724.8
14724.8
14724.8
14724.8
24534.8
24534.8
24534.8
24534.8
24534.8
24534.8
24534.8
24534.8
24534.8
24534.8
24534.8
24534.8
24534.8
24534.8
24534.8
24534.8
4.92856
4.9314
4.92876
4.9296
4.92939
4.92919
4.92954
4.9296
4.92975
4.93046
4.93186
4.92943
4.93098
4.92794
4.92934
4.92886
4.92829
4.92835
4.92873
4.92941
4914.8
4914.84
4914.8
4914.78
4914.79
4914.79
4914.86
4914.81
4914.79
4914.77
4914.84
4914.8
4914.8
4914.79
4914.78
4914.78
4914.83
4914.81
4914.8
4914.83
14724.8
14724.8
14724.8
14724.8
14724.8
14724.8
14724.8
14724.8
14724.8
14724.8
14724.8
14724.8
14724.8
14724.8
14724.8
14724.8
14724.8
14724.8
14724.8
14724.8
24534.8
24534.8
24534.8
24534.8
24534.8
24534.8
24534.8
24534.8
24534.8
24534.8
24534.8
24534.8
24534.8
24534.8
24534.8
24534.8
24534.8
24534.8
24534.8
24534.8
34344.8
34344.8
34344.8
34344.8
34344.8
34344.8
34344.8
34344.8
34344.8
34344.8
34344.8
34344.8
34344.8
34344.8
34344.8
34344.8
34344.8
34344.8
34344.8
34344.8
34344.8
34344.8
34344.8
34344.8
34344.8
34344.8
34344.8
34344.8
34344.8
34344.8
34344.8
34344.8
34344.8
34344.8
34344.8
34344.8
4.93076
4.92886
4.93033
4.93016
4.9297
4.92953
4.92934
4.92919
4.92962
4.93027
4.93091
4.93035
4.9302
4.92886
4.93253
4.93113
4.92974
4.92901
4.92925
4.92891
4.92864
4.92916
4.92908
4.9292
4.92891
4.92982
4.92919
4.93079
4914.86
4914.86
4914.85
4914.86
4914.85
4914.86
4914.82
4914.82
4914.86
4914.87
4914.83
4914.77
4914.8
4914.85
4914.85
4914.87
4914.84
4914.79
4914.86
4914.83
4914.76
4914.77
4914.85
4914.87
4914.84
4914.79
4914.77
4914.84
14724.8
14724.8
14724.8
14724.8
14724.8
14724.8
14724.8
14724.8
14724.8
14724.8
14724.8
14724.8
14724.8
14724.8
14724.8
14724.8
14724.8
14724.8
14724.8
14724.8
14724.8
14724.8
14724.8
14724.8
14724.8
14724.8
14724.8
14724.8
24534.8
24534.8
24534.8
24534.8
24534.8
24534.8
24534.8
24534.8
24534.8
24534.8
24534.8
24534.8
24534.8
24534.8
24534.8
24534.8
24534.8
24534.8
24534.8
24534.8
24534.8
24534.8
24534.8
24534.8
24534.8
24534.8
24534.8
24534.8
34344.8
34344.8
34344.8
34344.8
34344.8
34344.8
34344.8
34344.8
34344.8
34344.8
34344.8
34344.8
34344.8
34344.8
34344.8
34344.8
34344.8
34344.8
34344.8
34344.8
34344.8
34344.8
34344.8
34344.8
34344.8
34344.8
34344.8
34344.8
4.93003
4.93005
4.93024
4.93156
4914.77
4914.78
4914.81
4914.86
)
;

boundaryField
{
    top_fluid_surface
    {
        type            calculated;
        value           nonuniform List<scalar> 
64
(
-1.4007e-10
0
0
-7.06352e-10
-1.09481e-09
-4.93535e-09
-6.6027e-09
-3.41245e-09
-2.85976e-10
0
0
0
0
-2.49229e-09
0
0
0
0
-4.0573e-09
0
0
0
-2.11172e-09
0
-1.05857e-09
0
0
0
-4.28305e-11
0
0
-6.31292e-11
-6.35798e-09
-3.50016e-10
-5.52796e-09
-1.16606e-10
-1.84562e-10
-5.28706e-09
-2.26735e-09
-1.35314e-10
-5.05825e-09
-1.47175e-08
-6.72324e-09
0
0
-1.91764e-11
-5.97042e-09
-4.13826e-09
-2.64629e-10
0
-1.25043e-08
-2.779e-10
0
0
-2.46761e-10
-2.04288e-08
-6.26208e-09
0
0
-3.7491e-11
0
0
0
-1.43053e-09
)
;
    }
    bottom_fluid_surface
    {
        type            calculated;
        value           nonuniform List<scalar> 
64
(
39249.8
39249.8
39249.8
39249.8
39249.8
39249.8
39249.8
39249.8
39249.8
39249.8
39249.8
39249.8
39249.8
39249.8
39249.8
39249.8
39249.8
39249.8
39249.8
39249.8
39249.8
39249.8
39249.8
39249.8
39249.8
39249.8
39249.8
39249.8
39249.8
39249.8
39249.8
39249.8
39249.8
39249.8
39249.8
39249.8
39249.8
39249.8
39249.8
39249.8
39249.8
39249.8
39249.8
39249.8
39249.8
39249.8
39249.8
39249.8
39249.8
39249.8
39249.8
39249.8
39249.8
39249.8
39249.8
39249.8
39249.8
39249.8
39249.8
39249.8
39249.8
39249.8
39249.8
39249.8
)
;
    }
    lateral_surface_1
    {
        type            calculated;
        value           nonuniform List<scalar> 
40
(
4.93076
4.92886
4.93033
4.93016
4.9297
4.92953
4.92934
4.93079
4914.86
4914.86
4914.85
4914.86
4914.85
4914.86
4914.82
4914.84
14724.8
14724.8
14724.8
14724.8
14724.8
14724.8
14724.8
14724.8
24534.8
24534.8
24534.8
24534.8
24534.8
24534.8
24534.8
24534.8
34344.8
34344.8
34344.8
34344.8
34344.8
34344.8
34344.8
34344.8
)
;
    }
    lateral_surface_2
    {
        type            calculated;
        value           nonuniform List<scalar> 
40
(
4.92886
4.93253
4.93113
4.92974
4.92901
4.92925
4.92891
4.92864
4914.85
4914.85
4914.87
4914.84
4914.79
4914.86
4914.83
4914.76
14724.8
14724.8
14724.8
14724.8
14724.8
14724.8
14724.8
14724.8
24534.8
24534.8
24534.8
24534.8
24534.8
24534.8
24534.8
24534.8
34344.8
34344.8
34344.8
34344.8
34344.8
34344.8
34344.8
34344.8
)
;
    }
    lateral_surface_3
    {
        type            calculated;
        value           nonuniform List<scalar> 
40
(
4.92934
4.92919
4.92962
4.93027
4.93091
4.93035
4.9302
4.92886
4914.82
4914.82
4914.86
4914.87
4914.83
4914.77
4914.8
4914.85
14724.8
14724.8
14724.8
14724.8
14724.8
14724.8
14724.8
14724.8
24534.8
24534.8
24534.8
24534.8
24534.8
24534.8
24534.8
24534.8
34344.8
34344.8
34344.8
34344.8
34344.8
34344.8
34344.8
34344.8
)
;
    }
    lateral_surface_4
    {
        type            calculated;
        value           nonuniform List<scalar> 
40
(
4.92864
4.92916
4.92908
4.9292
4.92891
4.92982
4.92919
4.93079
4914.76
4914.77
4914.85
4914.87
4914.84
4914.79
4914.77
4914.84
14724.8
14724.8
14724.8
14724.8
14724.8
14724.8
14724.8
14724.8
24534.8
24534.8
24534.8
24534.8
24534.8
24534.8
24534.8
24534.8
34344.8
34344.8
34344.8
34344.8
34344.8
34344.8
34344.8
34344.8
)
;
    }
}


// ************************************************************************* //
