/*--------------------------------*- C++ -*----------------------------------*\
| =========                 |                                                 |
| \\      /  F ield         | OpenFOAM: The Open Source CFD Toolbox           |
|  \\    /   O peration     | Version:  v1612+                                |
|   \\  /    A nd           | Web:      www.OpenFOAM.com                      |
|    \\/     M anipulation  |                                                 |
\*---------------------------------------------------------------------------*/
FoamFile
{
    version     2.0;
    format      ascii;
    class       volScalarField;
    location    "2";
    object      p_rgh;
}
// * * * * * * * * * * * * * * * * * * * * * * * * * * * * * * * * * * * * * //

dimensions      [1 -1 -2 0 0 0 0];

internalField   nonuniform List<scalar> 
320
(
-9800.22
-9800.21
-9800.21
-9800.2
0.000136901
0.00185883
0.00173102
-0.000734481
-0.00144448
-0.00448728
-0.00621297
-0.0026778
-0.000869688
0.00111021
0.00308724
0.00414102
-9800.05
-9800.1
-9800.1
-9800.12
-9800.11
-9800.06
-9800.08
-9800.09
-9800.08
-9800.09
-9800.12
-9800.15
-9800.21
-9800.21
-9800.21
-9800.2
-9800.2
-9800.21
-9800.21
-9800.21
-9800.23
-9800.23
-9800.22
-9800.22
-9800.22
-9800.21
-9800.21
-9800.2
-9800.21
-9800.21
-9800.21
-9800.2
-9800.2
-9800.2
-9800.21
-9800.21
-9800.22
-9800.21
-9800.22
-9800.21
0.00398695
-0.00323946
-1.38739e-05
0.00472904
0.0059732
0.00378755
-0.00315739
0.00391539
0.00776151
0.00173328
-0.00349646
0.00056162
-0.00237109
0.00152755
0.00151144
0.0039121
0.000597106
0.00323005
0.00164573
0.000216099
-9800.18
-9800.07
-9800.15
-9800.13
-9800.16
-9800.15
-9800.11
-9800.19
-9800.17
-9800.08
-9800.07
-9800.16
-9800.11
-9800.14
-9800.11
-9800.13
-9800.1
-9800.17
-9800.14
-9800.08
-9800.21
-9800.2
-9800.2
-9800.21
-9800.21
-9800.21
-9800.2
-9800.2
-9800.21
-9800.22
-9800.2
-9800.21
-9800.22
-9800.22
-9800.23
-9800.22
-9800.21
-9800.21
-9800.21
-9800.21
-9800.21
-9800.2
-9800.21
-9800.21
-9800.21
-9800.2
-9800.2
-9800.2
-9800.21
-9800.21
-9800.2
-9800.21
-9800.21
-9800.22
-9800.22
-9800.22
-9800.21
-9800.21
-9800.21
-9800.21
-9800.21
-9800.21
-9800.21
-9800.2
-9800.21
-9800.21
-9800.21
-9800.2
-9800.2
-9800.21
-9800.21
-9800.21
-9800.22
-9800.21
-9800.21
-9800.21
-9800.21
-9800.2
-9800.2
-9800.21
-9800.21
-9800.21
-9800.2
-9800.21
-9800.21
-9800.21
-9800.2
-9800.21
-9800.21
-9800.22
-9800.22
-9800.22
-9800.21
-9800.21
-9800.21
-9800.21
-0.00632972
-0.00195142
-0.00844629
-0.0020429
-6.43609e-05
-0.00423082
-0.00262764
-1.87243e-05
-0.00457661
-0.00909641
-0.00647291
0.0047694
0.00636019
-0.0015569
-0.00608133
-0.0057344
-0.000909814
0.00104821
-0.00783137
-0.00056466
0.00542551
0.00692656
-0.00156681
-0.0103718
-0.00520245
0.00462934
0.00348339
-0.00141956
-9800.08
-9800.13
-9800.07
-9800.12
-9800.12
-9800.1
-9800.05
-9800.06
-9800.11
-9800.07
-9800.01
-9800.1
-9800.18
-9800.12
-9800.04
-9800.1
-9800.1
-9800.12
-9800.07
-9800.08
-9800.09
-9800.14
-9800.11
-9800.07
-9800.07
-9800.13
-9800.1
-9800.09
-9800.19
-9800.19
-9800.19
-9800.19
-9800.19
-9800.2
-9800.21
-9800.21
-9800.2
-9800.2
-9800.21
-9800.22
-9800.2
-9800.19
-9800.2
-9800.19
-9800.21
-9800.22
-9800.22
-9800.22
-9800.23
-9800.23
-9800.21
-9800.21
-9800.21
-9800.22
-9800.22
-9800.19
-9800.2
-9800.2
-9800.2
-9800.2
-9800.2
-9800.19
-9800.2
-9800.21
-9800.2
-9800.2
-9800.21
-9800.21
-9800.2
-9800.2
-9800.21
-9800.2
-9800.21
-9800.22
-9800.21
-9800.22
-9800.23
-9800.22
-9800.21
-9800.21
-9800.21
-9800.21
-9800.21
-9800.2
-9800.2
-9800.2
-9800.2
-9800.2
-9800.2
-9800.2
-9800.2
-9800.21
-9800.2
-9800.2
-9800.21
-9800.21
-9800.2
-9800.2
-9800.21
-9800.2
-9800.21
-9800.21
-9800.22
-9800.22
-9800.22
-9800.22
-9800.22
-9800.21
-9800.21
-9800.21
-9800.21
-9800.2
0.00621313
0.00780285
0.0002665
-0.00339194
-9800.12
-9800.17
-9800.16
-9800.12
)
;

boundaryField
{
    top_fluid_surface
    {
        type            totalPressure;
        rho             rho;
        psi             none;
        gamma           1;
        p0              uniform 0;
        value           nonuniform List<scalar> 
64
(
-1.4007e-10
0
0
-7.06352e-10
-1.09481e-09
-4.93535e-09
-6.6027e-09
-3.41245e-09
-2.85976e-10
0
0
0
0
-2.49229e-09
0
0
0
0
-4.0573e-09
0
0
0
-2.11172e-09
0
-1.05857e-09
0
0
0
-4.28305e-11
0
0
-6.31292e-11
-6.35798e-09
-3.50016e-10
-5.52796e-09
-1.16606e-10
-1.84562e-10
-5.28706e-09
-2.26735e-09
-1.35314e-10
-5.05825e-09
-1.47175e-08
-6.72324e-09
0
0
-1.91764e-11
-5.97042e-09
-4.13826e-09
-2.64629e-10
0
-1.25043e-08
-2.779e-10
0
0
-2.46761e-10
-2.04288e-08
-6.26208e-09
0
0
-3.7491e-11
0
0
0
-1.43053e-09
)
;
    }
    bottom_fluid_surface
    {
        type            fixedFluxPressure;
        gradient        uniform 0;
        value           nonuniform List<scalar> 
64
(
-9800.21
-9800.21
-9800.21
-9800.2
-9800.21
-9800.21
-9800.21
-9800.2
-9800.2
-9800.21
-9800.21
-9800.21
-9800.22
-9800.21
-9800.21
-9800.21
-9800.21
-9800.2
-9800.2
-9800.21
-9800.21
-9800.21
-9800.2
-9800.21
-9800.21
-9800.21
-9800.2
-9800.21
-9800.21
-9800.22
-9800.22
-9800.22
-9800.21
-9800.21
-9800.21
-9800.21
-9800.2
-9800.2
-9800.2
-9800.2
-9800.2
-9800.2
-9800.2
-9800.21
-9800.2
-9800.2
-9800.21
-9800.21
-9800.2
-9800.2
-9800.21
-9800.2
-9800.21
-9800.21
-9800.22
-9800.22
-9800.22
-9800.22
-9800.22
-9800.21
-9800.21
-9800.21
-9800.21
-9800.2
)
;
    }
    lateral_surface_1
    {
        type            fixedFluxPressure;
        gradient        uniform 0;
        value           nonuniform List<scalar> 
40
(
-0.00632972
-0.00195142
-0.00844629
-0.0020429
-6.43609e-05
-0.00423082
-0.00262764
-0.00141956
-9800.08
-9800.13
-9800.07
-9800.12
-9800.12
-9800.1
-9800.05
-9800.09
-9800.19
-9800.19
-9800.19
-9800.19
-9800.19
-9800.2
-9800.21
-9800.19
-9800.2
-9800.2
-9800.2
-9800.2
-9800.2
-9800.19
-9800.2
-9800.2
-9800.2
-9800.2
-9800.2
-9800.2
-9800.2
-9800.2
-9800.2
-9800.2
)
;
    }
    lateral_surface_2
    {
        type            fixedFluxPressure;
        gradient        uniform 0;
        value           nonuniform List<scalar> 
40
(
-0.0015569
-0.00608133
-0.0057344
-0.000909814
0.00104821
-0.00783137
-0.00056466
0.00542551
-9800.12
-9800.04
-9800.1
-9800.1
-9800.12
-9800.07
-9800.08
-9800.09
-9800.19
-9800.2
-9800.19
-9800.21
-9800.22
-9800.22
-9800.22
-9800.23
-9800.2
-9800.21
-9800.2
-9800.21
-9800.22
-9800.21
-9800.22
-9800.23
-9800.2
-9800.21
-9800.2
-9800.21
-9800.21
-9800.22
-9800.22
-9800.22
)
;
    }
    lateral_surface_3
    {
        type            fixedFluxPressure;
        gradient        uniform 0;
        value           nonuniform List<scalar> 
40
(
-0.00262764
-1.87243e-05
-0.00457661
-0.00909641
-0.00647291
0.0047694
0.00636019
-0.0015569
-9800.05
-9800.06
-9800.11
-9800.07
-9800.01
-9800.1
-9800.18
-9800.12
-9800.21
-9800.21
-9800.2
-9800.2
-9800.21
-9800.22
-9800.2
-9800.19
-9800.2
-9800.21
-9800.2
-9800.2
-9800.21
-9800.21
-9800.2
-9800.2
-9800.2
-9800.21
-9800.2
-9800.2
-9800.21
-9800.21
-9800.2
-9800.2
)
;
    }
    lateral_surface_4
    {
        type            fixedFluxPressure;
        gradient        uniform 0;
        value           nonuniform List<scalar> 
40
(
0.00542551
0.00692656
-0.00156681
-0.0103718
-0.00520245
0.00462934
0.00348339
-0.00141956
-9800.09
-9800.14
-9800.11
-9800.07
-9800.07
-9800.13
-9800.1
-9800.09
-9800.23
-9800.23
-9800.21
-9800.21
-9800.21
-9800.22
-9800.22
-9800.19
-9800.23
-9800.22
-9800.21
-9800.21
-9800.21
-9800.21
-9800.21
-9800.2
-9800.22
-9800.22
-9800.22
-9800.21
-9800.21
-9800.21
-9800.21
-9800.2
)
;
    }
}


// ************************************************************************* //
