/*--------------------------------*- C++ -*----------------------------------*\
| =========                 |                                                 |
| \\      /  F ield         | OpenFOAM: The Open Source CFD Toolbox           |
|  \\    /   O peration     | Version:  v1612+                                |
|   \\  /    A nd           | Web:      www.OpenFOAM.com                      |
|    \\/     M anipulation  |                                                 |
\*---------------------------------------------------------------------------*/
FoamFile
{
    version     2.0;
    format      ascii;
    class       surfaceScalarField;
    location    "2";
    object      phi;
}
// * * * * * * * * * * * * * * * * * * * * * * * * * * * * * * * * * * * * * //

dimensions      [0 3 -1 0 0 0 0];

internalField   nonuniform List<scalar> 
816
(
-1.9728e-06
-7.77025e-07
8.47334e-08
5.12704e-07
-1.07342e-06
3.22657e-06
-7.57698e-07
1.78318e-06
-2.17353e-06
8.92258e-07
-1.70868e-06
-5.15774e-07
-1.87061e-07
-3.21549e-07
-7.96819e-07
1.05135e-06
-6.04745e-07
1.55316e-06
1.01337e-06
-3.19325e-06
-3.34587e-05
6.65362e-05
1.12071e-05
-0.000164735
0.000130375
-5.63078e-05
-1.27174e-05
-6.37416e-05
2.08229e-06
-6.47037e-05
-4.86767e-07
2.4638e-05
-7.20078e-05
-4.05609e-05
1.28835e-05
-0.00018662
0.000203714
-2.52264e-05
1.33676e-05
-4.3179e-06
4.60204e-05
-2.50163e-05
8.2167e-06
0.000173819
-6.62182e-06
8.04317e-05
2.50078e-06
-9.66786e-07
0.000113879
0.000124855
2.08222e-05
-8.9384e-06
6.94474e-05
7.29481e-05
1.2828e-05
-2.88776e-05
8.6755e-05
0.000102734
5.24537e-06
-7.52731e-05
-1.30981e-05
4.83663e-05
-8.07183e-06
-0.000106353
3.408e-05
1.52116e-05
-4.08786e-05
6.98634e-06
4.24293e-06
-1.04191e-06
-3.07267e-06
1.92974e-06
8.15841e-06
1.0586e-06
-1.02073e-05
2.00507e-06
8.81836e-07
-2.84195e-06
3.88768e-07
2.24216e-06
6.56359e-07
-1.39502e-06
6.67651e-06
-2.08307e-06
6.80399e-06
-3.79979e-07
4.40484e-06
3.00179e-06
1.9992e-06
-2.19488e-06
-7.89604e-07
4.18547e-06
4.55104e-06
-4.57638e-06
-2.70628e-07
-4.49255e-07
3.56575e-06
-4.65118e-07
6.48958e-06
-3.01042e-06
1.0051e-05
3.85237e-06
-1.23334e-06
1.92608e-06
8.60199e-06
4.83856e-06
2.77905e-06
-1.69181e-06
5.8577e-06
1.11211e-06
-5.21036e-06
-3.68402e-06
5.81755e-06
9.86019e-06
3.83718e-06
7.57967e-07
1.05407e-06
-2.64006e-06
-1.24938e-06
-1.44076e-07
-2.66905e-06
-4.09853e-06
-6.10648e-07
-5.17544e-07
7.5001e-07
-5.6979e-07
-1.94365e-06
1.29648e-06
2.88364e-06
-1.98401e-07
1.28871e-06
1.81592e-06
1.91773e-06
-4.8586e-07
-2.68699e-07
1.22825e-06
3.20295e-08
-1.89167e-07
-3.70464e-07
1.28198e-06
1.74712e-06
2.80322e-06
1.58055e-06
-8.2355e-07
2.36322e-07
7.57594e-07
3.48464e-07
-4.86531e-07
2.21288e-06
-7.00198e-08
-2.1832e-06
-2.29068e-06
-6.96914e-07
5.04367e-06
-6.90021e-07
6.81047e-07
-1.04208e-06
-8.27128e-08
-1.96785e-07
2.49099e-07
5.31897e-09
-4.4316e-08
6.75273e-07
-1.06183e-06
2.94066e-07
1.10605e-07
-6.50559e-08
-7.73051e-07
-1.36121e-07
-3.93674e-07
9.34321e-07
4.83082e-07
6.7043e-07
-1.69081e-06
1.09378e-07
-5.23692e-07
-1.67744e-06
1.77334e-08
-1.07632e-06
2.79345e-07
-4.15753e-07
-9.97526e-07
2.08579e-07
1.04e-06
1.64799e-07
9.23718e-07
9.15722e-07
1.05905e-06
5.00457e-07
-2.72068e-07
5.26891e-07
4.5556e-07
-5.19186e-08
-5.55853e-07
7.94717e-07
6.84771e-08
4.73616e-07
9.84545e-07
7.4554e-07
-4.70215e-07
8.5005e-07
5.52355e-07
-1.97091e-07
-8.5873e-08
3.45517e-07
7.57512e-07
-1.32911e-06
-3.19499e-08
-7.3228e-07
3.77595e-08
5.73493e-07
1.43197e-06
-3.20571e-05
-4.67814e-05
9.8156e-06
-0.000117276
5.43665e-05
1.36331e-05
-0.000138994
1.74994e-05
-8.50804e-06
-0.000109897
-6.80155e-05
-9.50077e-06
-8.82549e-05
-3.16746e-08
-2.28439e-06
-0.000159658
-0.000144751
-4.97363e-05
4.16258e-06
-0.000166873
8.86744e-05
1.68804e-05
-0.000187277
3.39694e-05
-2.13571e-06
-0.000129917
-0.000126976
-1.95059e-06
9.02821e-06
-7.52501e-05
-1.86702e-06
9.13786e-05
-0.000214674
8.33181e-05
9.39698e-06
-5.55068e-05
5.45742e-05
-5.79874e-06
-7.12504e-05
9.91111e-05
1.09299e-05
9.75397e-06
0.000108718
6.67852e-06
-0.000154432
-1.99066e-05
-1.5903e-05
-5.99156e-05
0.000117814
-7.7536e-05
-1.14786e-05
-4.42887e-05
-1.81727e-05
1.34534e-05
-0.000138855
-6.82715e-05
1.00127e-05
-0.000172868
-0.000125395
1.37053e-05
2.45548e-05
3.98919e-06
-0.000158508
1.51933e-05
2.74184e-06
-3.88967e-06
9.38201e-06
2.58396e-06
5.08811e-06
4.27601e-06
7.33561e-06
1.71192e-07
-1.88024e-06
1.50103e-06
-5.86938e-06
1.08126e-06
-1.75536e-06
-1.41493e-07
3.96866e-06
-4.30971e-06
-7.91099e-06
2.61226e-08
5.1757e-06
-6.07186e-07
4.56077e-06
1.08845e-05
2.23117e-07
-9.07041e-07
8.0898e-06
-7.67543e-07
-2.22882e-06
4.10028e-06
-1.18209e-07
-2.95615e-06
-9.83859e-06
5.13637e-06
8.30888e-07
-5.09367e-07
7.00798e-06
4.46651e-06
-6.71296e-06
1.13271e-06
-2.54353e-06
8.92338e-07
1.20138e-06
4.05553e-07
7.78838e-06
1.64661e-06
1.95438e-06
-1.23104e-06
-4.36816e-06
-4.4857e-06
2.39245e-06
-4.3337e-06
-3.40832e-06
4.04376e-06
-9.01594e-07
5.89093e-06
2.39212e-06
-2.8444e-06
1.03362e-05
-2.45577e-06
2.51206e-06
8.32755e-06
3.9726e-06
-1.60762e-06
5.43465e-06
-1.1406e-06
-3.93743e-07
3.40064e-06
4.55082e-06
1.15095e-06
3.20116e-07
2.2438e-06
1.19791e-06
-7.23833e-07
-8.2604e-07
-6.21679e-07
2.69365e-07
1.06271e-06
-1.53539e-06
-1.44392e-06
2.35318e-06
1.03753e-06
2.29302e-06
-7.5996e-07
2.9659e-06
-4.1747e-07
2.27418e-06
4.88344e-06
2.78093e-06
4.16749e-06
3.59018e-06
4.53044e-06
4.56539e-06
2.12704e-06
2.81548e-06
-2.77017e-06
-4.0708e-06
-8.16322e-07
2.3804e-06
-4.83437e-07
3.56824e-06
1.2078e-06
7.74998e-07
4.38549e-07
7.34938e-07
6.67888e-07
8.44657e-07
2.06023e-06
1.38855e-06
1.18123e-06
5.31203e-07
-1.92763e-06
-1.94895e-06
4.45366e-07
4.63894e-07
-2.99618e-06
-1.10169e-06
-8.62222e-07
-1.16739e-06
2.69912e-06
1.30882e-06
1.37543e-06
4.76631e-06
2.34743e-06
3.10428e-06
3.83268e-06
3.45596e-06
-8.09091e-07
1.32968e-06
4.37139e-06
-2.5605e-07
2.22265e-06
1.30383e-06
1.31363e-06
1.40054e-07
5.48712e-07
1.41405e-06
-8.22123e-07
2.45116e-08
1.32024e-07
-1.33074e-07
4.02176e-07
-4.46841e-07
-7.43263e-07
7.9173e-07
8.12569e-07
1.35378e-06
7.26307e-08
9.82416e-07
1.65109e-07
1.41723e-06
1.73876e-06
1.9663e-06
2.3083e-06
9.74013e-07
2.78071e-06
2.93673e-06
4.23356e-07
1.60309e-06
-1.72101e-06
-1.25618e-06
-2.9471e-07
2.13082e-06
-4.58208e-07
1.13142e-06
1.62485e-06
4.18134e-08
1.8711e-07
5.55388e-07
1.95187e-07
2.16693e-07
1.48201e-06
9.68362e-07
2.75014e-07
1.015e-06
-1.24272e-06
-5.81788e-07
4.98346e-07
3.62254e-07
-1.65909e-06
-1.73674e-07
7.18381e-08
-6.84709e-07
7.53991e-07
1.33814e-06
7.58388e-07
1.3817e-06
1.9371e-06
2.15242e-06
9.81547e-07
2.04765e-06
-2.12121e-07
1.4513e-06
2.32804e-06
-5.55785e-07
1.31924e-07
-1.75126e-08
4.64342e-07
1.02087e-07
1.94468e-07
-5.38722e-07
-3.40593e-08
2.62117e-07
-2.01789e-07
-9.77129e-08
6.66062e-07
4.42571e-09
-5.12206e-07
-2.59045e-08
-8.01571e-07
-7.52427e-08
2.75355e-07
-3.2051e-07
-5.51195e-07
7.44544e-07
-8.34077e-08
6.87022e-07
4.59534e-07
-1.59742e-07
4.37955e-07
3.59745e-07
-1.33629e-08
5.95592e-07
4.46136e-07
5.67079e-07
-5.09916e-07
5.07404e-07
2.69383e-07
-1.41658e-07
2.10364e-07
-5.44483e-07
1.48185e-07
-6.12987e-08
4.44778e-07
-3.92545e-07
1.21263e-06
4.23663e-07
-3.05925e-07
4.32082e-07
-4.5432e-07
9.50238e-08
-8.22756e-08
-2.96134e-07
-2.17534e-07
3.00999e-07
6.22784e-07
1.59388e-07
4.37278e-08
1.04048e-06
7.67754e-07
1.39655e-06
1.06745e-06
1.50158e-06
7.4195e-07
-9.29686e-07
8.79186e-08
1.0702e-06
-2.19372e-07
7.65175e-07
7.18837e-08
4.99789e-07
1.81334e-07
6.88864e-07
4.89131e-07
4.9458e-07
-7.84421e-07
4.42191e-07
2.63963e-07
-8.21462e-07
1.57771e-07
-3.15051e-07
4.69558e-07
3.53079e-07
8.73691e-07
8.55056e-07
9.27931e-07
6.22379e-07
1.22539e-06
1.77885e-05
6.6487e-05
-6.64403e-06
-4.48978e-05
-2.17088e-06
3.14394e-05
-1.8408e-05
-1.85496e-05
-8.33178e-06
-9.509e-05
9.83577e-06
-7.01577e-05
7.50024e-06
5.12906e-05
2.60763e-06
-7.7078e-05
3.21542e-06
-5.8266e-05
6.99521e-06
0.000110952
-5.52633e-06
0.000237411
-1.24677e-05
5.86894e-05
-8.8169e-06
-0.000121846
-6.89072e-06
-8.5888e-05
-8.51597e-06
-1.62881e-05
-1.47303e-05
0.000114169
-8.30586e-06
7.43574e-05
3.21711e-06
1.55274e-05
-3.0444e-06
0.000179894
5.52014e-07
0.000162131
3.05529e-06
-4.32617e-05
-3.66119e-06
-0.000204546
-7.21025e-06
-0.000192191
-2.65487e-06
7.74581e-05
-2.33368e-06
0.000121725
-3.72059e-07
-1.09786e-07
-6.66369e-06
-0.000114519
-6.40075e-06
-1.32236e-05
9.47717e-07
1.05335e-06
-2.35757e-06
2.59149e-06
1.95818e-06
-1.03603e-06
-6.50705e-06
-6.69194e-06
-3.06784e-07
-6.33262e-06
7.9055e-06
-3.56058e-06
2.00486e-07
3.63925e-06
-4.60023e-06
3.6865e-06
-4.88796e-06
3.1885e-06
7.03134e-06
7.23204e-07
-2.43826e-06
3.48992e-06
-1.55474e-05
4.4411e-06
-8.705e-06
2.89958e-06
5.85248e-06
-2.82692e-06
-9.46676e-07
-3.84009e-06
-1.19566e-05
-5.39491e-06
-9.58032e-07
-4.02121e-06
1.47459e-06
-4.44326e-07
-4.67656e-06
3.07147e-06
-9.91912e-07
1.95716e-06
-5.8543e-07
3.61569e-06
-5.54364e-06
2.66721e-07
-1.62513e-06
-2.76732e-06
4.57345e-06
-1.88311e-06
-1.02783e-06
-2.45716e-08
-5.13698e-06
1.6802e-06
-4.63284e-06
3.7371e-06
-9.57377e-06
-8.6721e-06
-2.37906e-06
3.38212e-06
-2.02873e-06
4.24679e-09
7.13285e-07
-1.79571e-06
-3.5088e-06
-2.04172e-06
-6.81732e-07
1.03412e-06
3.29287e-06
2.17268e-06
9.49729e-08
-8.27609e-07
-1.59873e-06
-1.73213e-06
-1.69636e-06
2.24338e-06
2.63507e-06
4.22077e-06
-1.63613e-06
2.29765e-07
-7.02938e-06
-2.11104e-06
-3.55473e-06
5.1944e-07
2.39785e-06
7.64948e-07
-1.20139e-06
-2.64538e-06
-6.17261e-06
-1.06757e-06
-1.32798e-06
7.66434e-07
3.7468e-07
1.33753e-07
-1.97101e-06
8.113e-07
-1.12471e-06
1.4342e-06
-7.5025e-07
-1.97323e-06
-2.1319e-06
-2.2212e-06
-8.98204e-07
1.60393e-07
1.3413e-06
1.4171e-06
-9.63007e-07
1.68988e-06
-3.0426e-06
2.2749e-06
-1.75116e-06
8.08032e-07
-3.73431e-06
-4.48719e-06
-1.645e-06
1.73951e-06
-6.7764e-07
-8.49047e-08
4.59265e-07
-1.25502e-06
-9.19844e-07
-1.64773e-06
-1.56255e-07
1.27919e-07
1.06538e-06
9.14333e-07
1.15135e-07
-2.52279e-07
-4.35062e-07
-6.19679e-08
-5.37966e-07
1.92938e-06
8.02862e-07
2.41221e-06
-1.60124e-07
1.79774e-08
-1.86414e-06
-6.99678e-07
-1.24248e-06
1.02196e-06
3.83515e-07
4.45617e-07
-6.33503e-07
-1.66177e-06
-1.95633e-06
-1.08992e-06
-2.71855e-07
-4.8401e-08
-1.01347e-07
-3.00646e-09
-5.15544e-07
2.12344e-07
-3.08792e-07
4.06588e-07
-4.28973e-07
-7.82948e-07
-9.33889e-07
-8.88703e-07
-4.07154e-07
2.54981e-07
2.88997e-07
6.5865e-07
-1.39388e-08
3.54921e-07
-7.87294e-07
1.18033e-06
-5.22942e-07
1.11096e-06
-1.34429e-06
-1.64445e-06
-1.12297e-06
1.05986e-06
-2.49449e-07
-7.3758e-07
-7.99863e-07
-3.11304e-08
3.80521e-07
-5.67063e-08
2.28267e-08
8.62202e-07
1.46284e-06
6.54945e-07
1.38554e-07
5.97419e-07
-4.07493e-08
-9.41904e-07
-4.46579e-07
-3.80286e-08
1.44881e-07
3.40739e-07
3.69088e-07
-5.5982e-07
-6.88852e-07
-2.34559e-07
2.26102e-07
3.13446e-07
7.141e-07
5.87021e-07
-5.52405e-05
-5.75621e-05
-1.97011e-05
-0.000185956
-5.61547e-06
-7.39447e-05
-1.0514e-05
6.12112e-06
8.11177e-07
-1.78228e-06
-2.88902e-06
5.06581e-07
)
;

boundaryField
{
    top_fluid_surface
    {
        type            calculated;
        value           nonuniform List<scalar> 
64
(
-9.33998e-06
9.57425e-05
6.17737e-05
-5.39127e-05
-7.00261e-05
-0.00018031
-0.000223722
-0.00012866
-1.95654e-05
3.53429e-05
0.000141046
0.000135992
0.000144969
-0.000117396
5.0422e-05
0.000211013
0.000239741
0.000140384
-0.000155914
0.000176776
0.000325764
7.55859e-05
-0.000117703
8.18984e-05
-7.17803e-05
7.20575e-05
9.15974e-05
0.000182829
-2.19891e-06
0.000110315
2.01881e-05
-1.07674e-05
-0.000235676
-5.88441e-05
-0.000240379
-4.70927e-05
-2.1329e-05
-0.000189977
-0.000123754
-2.08381e-05
-0.000192911
-0.000349844
-0.000241637
0.0001972
0.00027271
-2.59957e-05
-0.000235663
-0.00019728
-3.70783e-05
5.7271e-05
-0.000312578
-3.98549e-05
0.000209323
0.000287488
-5.37945e-05
-0.000406413
-0.000217414
0.000180558
0.000136294
-3.36003e-05
0.000296691
0.000350854
8.65207e-05
-9.75167e-05
)
;
    }
    bottom_fluid_surface
    {
        type            calculated;
        value           uniform 0;
    }
    lateral_surface_1
    {
        type            calculated;
        value           uniform 0;
    }
    lateral_surface_2
    {
        type            calculated;
        value           uniform 0;
    }
    lateral_surface_3
    {
        type            calculated;
        value           uniform 0;
    }
    lateral_surface_4
    {
        type            calculated;
        value           uniform 0;
    }
}


// ************************************************************************* //
