/*--------------------------------*- C++ -*----------------------------------*\
| =========                 |                                                 |
| \\      /  F ield         | OpenFOAM: The Open Source CFD Toolbox           |
|  \\    /   O peration     | Version:  v1612+                                |
|   \\  /    A nd           | Web:      www.OpenFOAM.com                      |
|    \\/     M anipulation  |                                                 |
\*---------------------------------------------------------------------------*/
FoamFile
{
    version     2.0;
    format      ascii;
    class       volVectorField;
    location    "2";
    object      U;
}
// * * * * * * * * * * * * * * * * * * * * * * * * * * * * * * * * * * * * * //

dimensions      [0 1 -1 0 0 0 0];

internalField   nonuniform List<vector> 
320
(
(-2.3741e-06 -7.18996e-07 2.90178e-06)
(-1.67253e-06 -2.40583e-06 -5.95087e-07)
(-8.08715e-08 -4.82099e-07 1.64111e-06)
(-8.37174e-07 1.24311e-06 -1.80481e-06)
(-5.19324e-05 0.00017183 -1.67374e-05)
(-3.73542e-05 5.71482e-05 5.6303e-05)
(-5.68418e-05 -9.95669e-05 3.19768e-05)
(-0.000202271 -3.13735e-05 -3.7586e-05)
(4.01455e-05 -5.72202e-05 -4.67933e-05)
(0.000175735 7.33219e-06 -9.93514e-05)
(-0.000111718 8.12068e-06 -0.000114915)
(-7.41021e-05 -2.78536e-05 -8.26129e-05)
(-0.000141702 1.44871e-06 -2.38505e-05)
(1.94494e-05 -0.000123016 1.41786e-05)
(4.10694e-05 -7.82638e-05 7.65769e-05)
(-3.59108e-05 -8.4744e-06 5.78606e-05)
(3.325e-06 6.03068e-06 3.12425e-06)
(3.11468e-06 -3.0193e-07 8.85386e-06)
(-4.40055e-07 -3.04715e-06 -9.24826e-07)
(-5.80159e-06 -8.8194e-07 -5.71773e-06)
(1.33475e-06 -2.72874e-06 -3.37796e-06)
(3.3183e-06 1.65089e-06 1.86571e-06)
(1.57315e-06 -9.11681e-07 8.47705e-07)
(7.68343e-06 -8.07931e-06 -5.26183e-06)
(-5.72304e-06 -1.53111e-06 2.67723e-06)
(5.18145e-06 -7.11821e-06 -3.27973e-06)
(4.84473e-06 -1.09842e-06 4.23055e-06)
(-3.11425e-07 -1.54444e-06 -1.00445e-05)
(3.39274e-06 5.1933e-07 2.09221e-06)
(-1.52388e-06 -6.24696e-07 8.35936e-06)
(-3.3849e-06 -6.9057e-07 -5.80452e-07)
(-2.285e-06 -3.22726e-08 -5.47483e-06)
(-3.64969e-07 2.54031e-06 -3.69218e-06)
(-1.79877e-07 -4.76023e-07 2.40211e-07)
(1.34989e-06 1.28579e-06 3.65451e-07)
(-1.17692e-06 1.11818e-07 -5.71141e-06)
(-1.62539e-06 1.3159e-06 -1.00211e-06)
(1.12899e-06 4.61781e-08 -3.47406e-06)
(1.58238e-06 1.06779e-06 4.35207e-06)
(1.87399e-06 2.92073e-06 -9.2256e-06)
(-1.23824e-06 -4.61735e-08 -1.12703e-08)
(-7.01617e-07 -9.82462e-07 -5.80124e-07)
(6.78239e-07 -1.47448e-08 5.11155e-08)
(-3.71609e-07 9.96305e-07 -8.36335e-07)
(2.1955e-06 3.04856e-07 7.81264e-07)
(-9.73855e-07 -5.21833e-07 1.24709e-06)
(-2.05367e-06 2.16442e-07 -2.08879e-07)
(-1.1129e-06 5.56075e-07 -1.25648e-06)
(-3.90072e-07 1.66221e-06 -7.26886e-07)
(-3.34641e-07 -1.73592e-07 5.99922e-08)
(9.75338e-07 5.13643e-07 -1.32953e-07)
(-1.55289e-09 -1.37955e-07 -8.41976e-07)
(-7.6507e-07 8.99498e-07 7.31404e-07)
(6.94486e-07 -2.40382e-07 -6.92954e-07)
(7.80361e-07 5.34802e-07 1.02228e-06)
(8.73798e-07 1.57464e-06 -1.56511e-06)
(-1.67871e-05 0.000105639 6.72308e-05)
(-1.7124e-06 0.000148517 -7.06015e-05)
(7.00305e-05 7.75494e-05 3.32902e-05)
(-2.60417e-05 5.34691e-05 0.000116411)
(-0.000104722 0.000115812 0.000125172)
(-0.000114924 -0.000118853 6.93607e-05)
(-0.000149956 3.98534e-05 -9.0081e-05)
(-4.45909e-05 0.000117014 9.4822e-05)
(0.00012345 -6.14949e-05 0.000168115)
(0.000136867 -0.000218966 3.55422e-05)
(-2.93225e-05 -9.70178e-06 -6.49881e-05)
(-9.35814e-05 -3.13062e-06 4.77124e-05)
(-2.40969e-05 3.19093e-05 -4.588e-05)
(-0.000116174 -9.09671e-05 2.9865e-05)
(-0.000152824 -5.58952e-05 6.01246e-05)
(-3.17606e-05 0.000108201 0.000101518)
(0.000120135 3.57595e-05 -9.25532e-06)
(0.000158069 4.67962e-06 5.01886e-05)
(1.27088e-05 0.000114063 4.76386e-06)
(6.43909e-05 0.000166214 -1.12365e-05)
(1.61511e-06 -4.84687e-06 -9.11353e-06)
(5.18225e-06 -8.92841e-06 -3.53489e-06)
(3.76749e-06 -4.46106e-06 9.15941e-07)
(-3.575e-06 -8.35725e-07 -2.51578e-06)
(-6.90204e-06 2.35863e-06 -5.88147e-06)
(1.02844e-06 -2.52913e-06 -6.53295e-06)
(6.64222e-07 3.45823e-06 -9.76736e-06)
(3.08051e-06 3.26085e-06 -8.62264e-06)
(3.49107e-06 -5.14546e-06 -6.38706e-06)
(6.4952e-06 -5.18071e-07 8.57496e-06)
(-2.89905e-06 6.59317e-06 -6.60418e-06)
(4.75014e-06 -5.99779e-07 -1.90748e-06)
(6.72618e-06 3.01624e-07 -4.78531e-07)
(-8.26412e-06 4.39489e-06 -9.43046e-07)
(-6.10874e-06 -2.49526e-06 3.30301e-06)
(-9.41166e-06 5.36579e-06 2.94216e-06)
(-2.85087e-06 9.55987e-07 -4.9941e-06)
(1.9576e-06 1.72006e-06 -1.01206e-05)
(-1.73701e-06 2.80105e-06 -7.22664e-06)
(3.91514e-06 -6.8183e-06 2.8317e-06)
(-1.90927e-06 -1.4608e-06 -8.40153e-06)
(1.17146e-06 -2.78738e-07 -4.28904e-06)
(-4.62588e-07 1.57458e-06 2.22255e-06)
(-1.2399e-06 1.72112e-06 -8.23614e-07)
(1.87401e-06 -1.24345e-06 -3.44027e-06)
(-9.84884e-07 -1.6697e-06 -4.81123e-06)
(1.83538e-06 6.14119e-07 -8.85481e-06)
(3.86957e-06 3.34819e-06 -6.46422e-06)
(2.32902e-06 4.4093e-06 -3.27599e-06)
(1.54109e-06 4.50467e-06 7.90047e-06)
(2.7585e-06 6.31438e-07 -6.24712e-06)
(-1.42502e-06 1.08851e-06 -5.83484e-07)
(-1.10949e-07 2.67572e-06 -1.80276e-06)
(-1.28936e-06 3.28851e-07 -2.46628e-06)
(-1.16287e-06 1.07887e-06 3.84068e-06)
(8.74973e-07 2.53023e-06 2.38382e-06)
(-1.22461e-06 2.72564e-06 -5.23373e-06)
(-5.64871e-07 2.60525e-08 -8.85614e-06)
(-3.57957e-06 -2.97229e-06 -7.5654e-06)
(-5.30071e-06 -2.54842e-06 9.0128e-07)
(-1.40238e-06 -1.52938e-06 -1.50922e-06)
(8.58226e-07 -6.12199e-07 -5.70516e-07)
(-6.13204e-07 4.38569e-07 -2.12492e-07)
(-1.22919e-06 7.95937e-07 -4.51642e-07)
(1.10306e-06 -8.26048e-07 -8.81911e-07)
(-8.71808e-08 -4.05549e-07 -1.23638e-06)
(1.39423e-06 6.81132e-07 -2.37242e-06)
(2.29743e-06 1.77456e-06 -1.35189e-06)
(1.20555e-06 2.58115e-06 -4.46966e-07)
(9.55131e-07 3.379e-06 1.65163e-06)
(1.67743e-06 1.27185e-06 -1.52181e-06)
(-4.07246e-07 8.52512e-07 -2.38872e-07)
(2.92383e-07 1.87357e-06 -1.31734e-07)
(-7.29256e-07 1.00931e-06 -7.79039e-08)
(-8.84062e-07 1.04901e-06 7.8607e-07)
(-1.73208e-07 1.28578e-06 3.66556e-07)
(-1.52708e-06 1.53069e-06 -9.58136e-07)
(-8.17468e-07 1.33139e-07 -1.62402e-06)
(-2.21042e-06 -1.87788e-06 -1.09324e-06)
(-2.95918e-06 -2.0071e-06 4.11482e-07)
(-7.91468e-07 -1.30042e-08 -9.59174e-08)
(-3.39943e-07 -3.03928e-07 -1.96484e-07)
(1.34261e-07 3.59326e-07 1.72286e-07)
(-1.70945e-07 5.99937e-07 -7.23542e-09)
(6.66525e-07 4.52723e-08 2.15475e-07)
(-6.39054e-07 -1.20035e-07 6.57241e-07)
(-9.59475e-07 1.95054e-07 -1.7739e-07)
(-6.29991e-07 4.55105e-07 -4.29548e-07)
(-5.3758e-08 1.05536e-06 -1.00002e-07)
(6.18064e-08 1.15224e-07 8.45029e-08)
(3.56095e-07 4.8626e-07 8.32111e-08)
(-3.72147e-07 1.1988e-07 -4.80757e-07)
(-3.67609e-07 6.16362e-07 -2.58307e-07)
(2.02629e-07 1.80617e-07 -5.78056e-07)
(2.15699e-08 2.28336e-07 2.45837e-07)
(2.14424e-07 6.28186e-07 -9.19501e-07)
(-8.02977e-07 -4.67868e-07 -8.33331e-07)
(-4.32476e-08 -7.27201e-09 -4.30257e-07)
(-4.89725e-07 2.63226e-07 1.22704e-07)
(-5.77818e-07 5.59298e-07 -4.93199e-07)
(4.8713e-07 -1.75818e-07 -5.27558e-07)
(-1.13778e-07 -1.72207e-07 -4.64609e-07)
(4.64778e-07 6.01789e-07 -7.63528e-07)
(8.8886e-07 1.29173e-06 -4.54069e-07)
(6.50938e-07 1.3323e-06 -3.57887e-07)
(6.48421e-07 1.72358e-06 7.4821e-07)
(7.92286e-07 7.30675e-07 -4.97757e-07)
(-1.75601e-07 7.80141e-07 -9.03548e-08)
(4.1589e-09 9.35555e-07 -1.87811e-07)
(-3.68605e-07 5.3307e-07 -3.51207e-07)
(-4.77372e-07 7.77681e-07 1.78306e-07)
(-1.71421e-07 6.91112e-07 -1.0394e-07)
(-6.1022e-07 7.48506e-07 -3.76137e-07)
(-4.41406e-07 -1.20863e-09 -9.02466e-07)
(-1.07956e-06 -7.79275e-07 -5.82084e-07)
(-1.5224e-06 -7.76508e-07 1.05771e-07)
(2.77583e-05 9.23511e-05 -0.000112765)
(-1.81554e-05 8.29959e-05 -2.64581e-05)
(-2.36426e-05 9.37062e-05 -0.000105147)
(5.80628e-05 0.000105053 -1.52713e-05)
(-9.51796e-05 0.000105687 -1.92126e-05)
(-7.13525e-05 0.000173585 -0.00010283)
(-6.48548e-05 7.23704e-05 -6.73402e-05)
(-0.000166332 9.35134e-06 -1.64508e-05)
(-0.000170794 -0.000144634 -0.000100581)
(-0.000192292 3.89414e-05 -0.000171566)
(-0.0001716 0.000215889 -0.000115959)
(-9.34508e-05 0.000188893 0.000103891)
(7.84128e-05 -5.67451e-05 0.000147055)
(6.85276e-05 -0.000150455 -6.19297e-06)
(7.61959e-05 -0.000140463 -0.000109274)
(-3.94044e-05 -8.96813e-05 -9.09753e-05)
(-0.000153168 -0.00013048 -2.30056e-05)
(1.35158e-05 -3.01512e-05 2.89182e-05)
(-5.38529e-05 -0.00016792 -0.000158141)
(-0.000255748 -9.22584e-05 -2.35754e-05)
(-8.24424e-05 -6.49979e-05 0.000106154)
(-5.52426e-05 0.000133136 0.000150815)
(0.000106194 0.000274306 -2.22154e-05)
(0.000110811 6.65691e-05 -0.000202133)
(0.000136912 -0.000185572 -0.000111911)
(-7.94597e-05 -0.000102162 9.49026e-05)
(-7.90655e-05 0.000121193 6.99386e-05)
(-0.000125004 4.65917e-05 -8.65922e-06)
(-4.43827e-07 -5.59255e-06 2.92295e-06)
(1.79847e-06 -1.94503e-06 -1.79862e-06)
(2.93886e-06 -5.77601e-06 6.58906e-06)
(-4.97808e-06 2.98281e-07 -1.03029e-07)
(-7.25936e-06 2.96971e-06 -7.1019e-06)
(-4.72437e-06 3.98318e-06 4.11517e-07)
(-4.14755e-06 7.92189e-07 5.75246e-06)
(-7.33862e-06 4.91759e-06 5.71082e-06)
(-1.58876e-06 4.51901e-06 -6.05443e-06)
(-2.90236e-07 1.16989e-06 4.04038e-06)
(-3.87694e-06 9.79196e-08 1.52583e-05)
(-3.45321e-06 5.06546e-06 7.40856e-06)
(6.33396e-06 5.81789e-06 -7.55189e-06)
(2.8831e-06 7.43436e-08 2.41078e-07)
(2.71565e-06 3.52527e-06 1.22372e-05)
(3.39954e-06 3.85376e-06 9.87917e-07)
(7.86439e-06 -2.77345e-06 -1.00023e-06)
(2.68883e-06 7.39408e-07 5.63761e-06)
(-2.92616e-06 1.26396e-06 2.25592e-06)
(-2.02034e-06 -4.59866e-06 1.08584e-06)
(-7.02819e-07 -2.82471e-06 4.69257e-06)
(1.0713e-06 -2.99626e-06 4.99179e-07)
(-1.20356e-06 1.72653e-06 -4.30126e-06)
(-2.56777e-06 4.25111e-06 2.12809e-06)
(2.09173e-06 1.56026e-08 6.98484e-06)
(-4.27229e-06 4.1314e-07 4.25204e-06)
(-2.96146e-07 -3.55416e-06 9.52408e-06)
(-1.00759e-06 -6.30421e-06 7.84057e-06)
(-4.16758e-06 -7.57485e-07 3.10947e-06)
(-3.95597e-07 -1.39846e-06 -1.02092e-06)
(3.57357e-07 -2.27109e-06 6.62624e-06)
(-3.52376e-06 -5.84342e-07 1.30463e-06)
(-5.66936e-07 7.90031e-07 -6.28652e-06)
(2.73827e-06 -1.25735e-06 -2.82923e-07)
(1.18777e-06 -7.42595e-08 2.63998e-06)
(2.37086e-06 -2.00206e-06 2.9221e-06)
(4.29173e-07 -7.29173e-07 -5.29198e-06)
(3.31142e-06 4.82226e-06 2.47318e-06)
(4.63724e-06 3.03405e-06 1.33122e-05)
(2.99721e-06 -2.80452e-06 6.82108e-06)
(-2.57664e-06 -6.37549e-07 -4.34371e-06)
(-2.145e-06 1.57743e-06 2.04785e-06)
(1.06011e-06 1.14582e-06 1.09572e-05)
(3.23633e-06 2.0584e-06 2.02211e-06)
(-6.9433e-07 6.68036e-07 -1.16869e-06)
(-4.17276e-07 1.32771e-06 3.11641e-06)
(-2.85514e-08 9.74328e-07 9.18675e-07)
(-1.36274e-06 6.69123e-08 5.89708e-07)
(-1.02589e-06 1.17422e-06 3.89016e-06)
(8.14283e-08 2.56655e-06 1.71691e-06)
(4.61728e-07 1.25426e-06 -3.00905e-06)
(-1.19465e-06 -1.39364e-06 1.22195e-06)
(-3.65757e-06 -1.28723e-06 4.84332e-06)
(-2.50793e-06 -1.81519e-06 3.3745e-06)
(-2.50049e-06 -2.04875e-06 6.56531e-06)
(-2.0083e-06 -2.65292e-07 8.02653e-06)
(-2.32471e-06 -1.10049e-06 5.5863e-07)
(-5.21108e-07 -1.48159e-06 -8.1561e-07)
(2.27552e-07 -1.98176e-06 8.48411e-07)
(-2.38199e-06 -8.50916e-07 -1.93472e-07)
(-7.8905e-07 -2.12971e-07 -1.40928e-06)
(1.17703e-06 -1.29105e-06 -2.37532e-07)
(2.18621e-07 -2.86939e-07 8.05761e-07)
(1.22273e-06 -4.68273e-07 9.31481e-07)
(5.76396e-07 5.07614e-07 -1.14929e-06)
(2.13589e-06 2.94068e-06 -5.1199e-08)
(2.83595e-06 1.47353e-06 2.15138e-06)
(1.83486e-06 -1.51589e-06 1.67055e-06)
(-1.26109e-06 5.11407e-07 -6.26359e-07)
(-1.03273e-06 1.2491e-06 4.82146e-07)
(4.45106e-07 1.02074e-06 2.23003e-06)
(2.19185e-06 1.75912e-06 -1.15061e-07)
(3.73625e-07 5.06315e-07 1.40155e-07)
(-1.58353e-07 9.78252e-07 7.84154e-07)
(5.94862e-08 9.57052e-07 4.67469e-07)
(-3.86974e-07 1.89507e-07 6.07936e-07)
(-2.64427e-07 4.59963e-07 1.41701e-06)
(6.02936e-09 1.22308e-06 5.90255e-07)
(-9.036e-08 2.56482e-07 -3.49132e-07)
(-1.02327e-06 -8.84641e-07 -1.67835e-07)
(-2.50569e-06 -1.48538e-07 9.11474e-07)
(-1.30495e-06 -5.6708e-07 7.83458e-07)
(-1.19489e-06 -1.64367e-06 2.14786e-06)
(-9.41513e-07 -8.47117e-07 1.94597e-06)
(-1.45208e-06 -6.02856e-07 5.95247e-07)
(-5.54811e-07 -5.69515e-07 1.82924e-08)
(-6.45687e-08 -8.51022e-07 7.17973e-07)
(-1.20562e-06 -5.48194e-07 4.23286e-07)
(-5.20431e-07 -1.35123e-07 -4.31572e-07)
(5.00319e-07 -6.05582e-07 1.49683e-07)
(1.34188e-07 -1.48313e-07 2.23346e-07)
(5.91456e-07 -5.48004e-08 1.10659e-07)
(2.55205e-07 1.72702e-07 -1.86666e-07)
(9.36366e-07 1.45774e-06 4.07246e-07)
(1.11116e-06 1.24152e-06 1.25618e-06)
(8.86156e-07 -1.25215e-07 5.92592e-07)
(-3.46359e-07 5.40936e-07 -1.81957e-07)
(-2.96484e-07 5.29123e-07 5.75673e-07)
(4.612e-07 4.79249e-07 1.25892e-06)
(1.00524e-06 7.16345e-07 5.90744e-07)
(1.51215e-07 2.66291e-07 1.46775e-07)
(-1.25077e-07 3.89529e-07 3.9761e-07)
(-2.09737e-07 3.95527e-07 1.93456e-07)
(-4.11952e-07 2.30658e-07 1.33216e-07)
(-2.30949e-07 3.30104e-07 1.72161e-07)
(-1.31503e-07 7.736e-07 5.18979e-08)
(-2.3503e-07 4.83515e-07 -2.60934e-07)
(-3.39101e-07 -8.93677e-08 2.75277e-07)
(-1.0729e-06 -2.41e-07 4.98141e-07)
(-5.78893e-07 -4.52805e-07 1.26661e-07)
(-7.46434e-07 -8.40388e-07 5.59955e-07)
(-6.42772e-07 -4.99195e-07 9.28301e-07)
(6.35018e-05 6.01167e-05 0.000167362)
(-0.000201748 -5.7521e-05 0.000183131)
(-3.10098e-05 -0.000146921 5.86409e-05)
(-0.000128705 -0.000261258 -5.34888e-05)
(6.42531e-06 7.21284e-06 1.69961e-06)
(-5.31006e-06 1.68374e-06 -3.96039e-06)
(6.10697e-06 -9.61185e-06 2.81905e-07)
(-4.97999e-06 -5.8588e-06 -3.0705e-06)
)
;

boundaryField
{
    top_fluid_surface
    {
        type            pressureInletOutletVelocity;
        value           nonuniform List<vector> 
64
(
(0 0 -1.67374e-05)
(-3.73542e-05 5.71482e-05 5.6303e-05)
(-5.68418e-05 -9.95669e-05 3.19768e-05)
(0 0 -3.7586e-05)
(0 0 -4.67933e-05)
(0 0 -9.93514e-05)
(0 0 -0.000114915)
(0 0 -8.26129e-05)
(0 0 -2.38505e-05)
(1.94494e-05 -0.000123016 1.41786e-05)
(4.10694e-05 -7.82638e-05 7.65769e-05)
(-3.59108e-05 -8.4744e-06 5.78606e-05)
(-1.67871e-05 0.000105639 6.72308e-05)
(0 0 -7.06015e-05)
(7.00305e-05 7.75494e-05 3.32902e-05)
(-2.60417e-05 5.34691e-05 0.000116411)
(-0.000104722 0.000115812 0.000125172)
(-0.000114924 -0.000118853 6.93607e-05)
(0 0 -9.0081e-05)
(-4.45909e-05 0.000117014 9.4822e-05)
(0.00012345 -6.14949e-05 0.000168115)
(0.000136867 -0.000218966 3.55422e-05)
(0 0 -6.49881e-05)
(-9.35814e-05 -3.13062e-06 4.77124e-05)
(0 0 -4.588e-05)
(-0.000116174 -9.09671e-05 2.9865e-05)
(-0.000152824 -5.58952e-05 6.01246e-05)
(-3.17606e-05 0.000108201 0.000101518)
(0 0 -9.25532e-06)
(0.000158069 4.67962e-06 5.01886e-05)
(1.27088e-05 0.000114063 4.76386e-06)
(0 0 -1.12365e-05)
(0 0 -0.000112765)
(0 0 -2.64581e-05)
(0 0 -0.000105147)
(0 0 -1.52713e-05)
(0 0 -1.92126e-05)
(0 0 -0.00010283)
(0 0 -6.73402e-05)
(0 0 -1.64508e-05)
(0 0 -0.000100581)
(0 0 -0.000171566)
(0 0 -0.000115959)
(-9.34508e-05 0.000188893 0.000103891)
(7.84128e-05 -5.67451e-05 0.000147055)
(0 0 -6.19297e-06)
(0 0 -0.000109274)
(0 0 -9.09753e-05)
(0 0 -2.30056e-05)
(1.35158e-05 -3.01512e-05 2.89182e-05)
(0 0 -0.000158141)
(0 0 -2.35754e-05)
(-8.24424e-05 -6.49979e-05 0.000106154)
(-5.52426e-05 0.000133136 0.000150815)
(0 0 -2.22154e-05)
(0 0 -0.000202133)
(0 0 -0.000111911)
(-7.94597e-05 -0.000102162 9.49026e-05)
(-7.90655e-05 0.000121193 6.99386e-05)
(0 0 -8.65922e-06)
(6.35018e-05 6.01167e-05 0.000167362)
(-0.000201748 -5.7521e-05 0.000183131)
(-3.10098e-05 -0.000146921 5.86409e-05)
(0 0 -5.34888e-05)
)
;
    }
    bottom_fluid_surface
    {
        type            noSlip;
    }
    lateral_surface_1
    {
        type            noSlip;
    }
    lateral_surface_2
    {
        type            noSlip;
    }
    lateral_surface_3
    {
        type            noSlip;
    }
    lateral_surface_4
    {
        type            noSlip;
    }
}


// ************************************************************************* //
