/*--------------------------------*- C++ -*----------------------------------*\
| =========                 |                                                 |
| \\      /  F ield         | OpenFOAM: The Open Source CFD Toolbox           |
|  \\    /   O peration     | Version:  v1612+                                |
|   \\  /    A nd           | Web:      www.OpenFOAM.com                      |
|    \\/     M anipulation  |                                                 |
\*---------------------------------------------------------------------------*/
FoamFile
{
    version     2.0;
    format      ascii;
    class       surfaceScalarField;
    location    "9.2";
    object      alphaPhi;
}
// * * * * * * * * * * * * * * * * * * * * * * * * * * * * * * * * * * * * * //

dimensions      [0 3 -1 0 0 0 0];

internalField   nonuniform List<scalar> 
2916
(
-0.00291449
0.000528242
0.00159101
0.00491562
-0.014719
0.00493439
0.0199267
-0.0191387
0.00317094
0.00978444
0.0132017
-0.00199632
-0.0176457
0.0307675
-0.00141033
-0.0175668
0.000351122
0.00270289
-0.046438
0.0277187
0.00163659
-0.059385
0.0268589
-0.0034547
-0.0639062
0.0291412
-0.000242307
-0.0445406
0.0349802
-0.00381484
-0.0338265
0.0451525
-0.0691793
0.0275196
0.0022366
-0.0485336
-0.00470752
-0.000364455
-0.0548389
-0.00714697
-0.00846046
-0.0571049
-0.00468115
-0.00462908
-0.0501475
-0.00296426
0.00104141
-0.0447843
0.00073154
-0.0663446
-0.00781203
-0.00106634
-0.00191719
-0.0227687
-0.00180651
-0.0053163
-0.0260011
-0.00481568
-0.00619057
-0.025057
-0.00516653
-0.0026611
-0.0241518
-0.00148641
-0.000394885
-0.0250194
-0.0141726
-0.0306781
-0.0027329
0.0858071
-0.0622099
-0.00140018
0.0806004
-0.0644013
-0.000407399
0.0804078
-0.0640291
-0.00232707
0.0850927
-0.0622652
-0.00421722
0.0885213
-0.0635234
0.0749886
-0.0698263
-0.00124936
0.191158
-0.0806512
-0.000429689
0.185455
-0.0815789
0.00101504
0.185567
-0.0825036
-0.000551829
0.190292
-0.0795414
-0.00303212
0.194349
-0.079255
0.181353
-0.0852973
0.000807251
0.28864
-0.0741745
-0.000152384
0.2847
-0.0741848
0.000320642
0.284511
-0.0753254
-0.000203414
0.288385
-0.0734761
-0.000902617
0.291229
-0.0720892
0.280863
-0.0763201
0.0024063
0.327249
-0.08972
-0.000364211
0.327271
-0.0888181
-0.00134512
0.327283
-0.0903293
-0.000837836
0.327045
-0.0883601
0.000320717
0.324308
-0.0837295
0.327142
-0.09361
-0.00211757
0.271903
0.0047822
-0.000694816
0.271696
0.00344981
-0.000451433
0.272007
0.00388255
-0.00251224
0.272181
0.00429573
-0.00443805
0.254208
0.00505769
0.250695
0.000274296
-0.00624905
0.157844
0.102074
-0.000934372
0.14421
0.10175
0.000817058
0.145949
0.103884
-0.00124788
0.158574
0.0981601
-0.00388102
0.159626
0.0940465
0.141852
0.105607
-0.00289236
-0.0945587
0.267775
0.000130328
-0.111712
0.260732
0.000573339
-0.109877
0.25834
0.000648394
-0.0931321
0.263314
0.00139976
-0.0863843
0.253757
-0.114115
0.262683
0.014416
-0.12147
-0.000274022
-0.101316
-0.00427556
-0.114909
0.00867957
-0.11756
0.0135288
-0.0941263
-0.109522
0.00544927
0.0187985
-0.00014578
-0.00652427
0.0305717
-6.02953e-05
-0.0238367
0.0319319
-4.66228e-05
-0.0104876
0.0076907
-9.08308e-05
0.0157194
-0.00185625
-0.00013601
0.0283974
-4.20053e-05
0.00107969
0.0549131
-1.16412e-05
0.00286959
0.0649762
-1.41932e-06
0.00869263
0.0641484
-1.14597e-06
0.00407495
0.0524842
-1.89913e-06
-0.00486225
0.0519994
-2.41901e-06
0.062214
-1.05553e-06
-0.00198532
0.103989
-5.56566e-07
0.00381733
0.112705
-7.95582e-08
0.0166126
0.109705
-6.46784e-08
0.00792236
0.107051
-1.03111e-07
-0.00902234
0.11161
-1.3375e-07
0.112519
-6.08377e-08
-0.00355627
0.244849
-5.2311e-08
0.0013291
0.251363
-7.30416e-09
0.00875117
0.249273
-5.95914e-09
0.00342306
0.249643
-9.31645e-09
-0.00396375
0.255445
-1.20522e-08
0.256905
-5.76079e-09
-0.00384925
0.473382
-7.03229e-09
-0.000217245
0.477845
-9.37701e-10
0.00195614
0.477336
-7.68745e-10
-0.00070926
0.4759
-1.52027e-09
-0.000419883
0.478715
-1.25942e-08
0.486054
-3.99607e-09
-0.00419089
0.702426
-1.31453e-08
-0.000961249
0.705404
1.33883e-11
0.000888518
0.705827
2.89096e-12
-0.000893026
0.701729
-1.00884e-08
-0.000173567
0.701468
-2.64435e-07
0.7093
-1.23586e-08
-0.00142148
0.871296
5.74995e-10
-0.00188974
0.874517
8.62647e-10
-0.0006983
0.874373
7.6813e-10
-0.000915484
0.870395
7.50031e-10
0.000644062
0.868884
-1.6321e-07
0.874327
7.95031e-10
0.00234545
0.937395
5.03647e-09
-0.00230821
0.948322
2.75478e-09
-0.00273482
0.944278
2.93865e-09
-0.000800698
0.939697
4.63723e-09
0.00304716
0.942888
3.06491e-09
0.945322
3.30626e-09
0.00246538
0.997737
0.00483567
-0.00143042
1.01053
0.00799678
-0.00212397
1.00377
0.00796612
-0.000417726
1.00521
0.000591747
-0.000483505
1.01123
-9.48663e-08
0.999192
0.00720405
-0.000713584
0.672268
0.229145
-0.000411117
0.694316
0.228967
0.00111911
0.680785
0.231864
-0.00228898
0.692668
0.223581
-0.0141021
0.70889
0.222617
0.667305
0.229501
0.00349384
0.203409
0.128904
0.000826944
0.196532
0.151281
0.00108506
0.198503
0.142914
-0.00136318
0.214168
0.135588
-0.0153148
0.214796
0.146814
0.189525
0.135718
0.00758769
0.0886512
-0.00219091
0.0994288
-0.0104169
0.0947182
0.00537143
0.090331
0.0237391
0.0965431
0.100253
1.00579e-07
2.9499e-06
-0.000148421
1.93078e-08
1.50707e-06
-6.16902e-05
-1.77798e-07
1.2173e-06
-4.76188e-05
-1.06189e-07
2.01368e-06
-9.28848e-05
4.50666e-07
2.47921e-06
-0.000138992
1.11451e-06
-4.26443e-05
2.99396e-10
6.10712e-07
-9.27779e-06
3.85175e-10
8.8008e-08
-2.2179e-10
1.34308e-10
7.15831e-08
-8.08756e-15
7.26887e-10
1.13983e-07
-1.28911e-11
8.10961e-09
1.44446e-07
-8.81537e-08
6.70931e-08
-2.22129e-15
-6.91922e-12
6.03404e-08
-7.67868e-09
6.02958e-11
8.44835e-09
-6.82589e-11
5.31146e-11
6.91186e-09
3.72382e-14
1.45309e-10
1.07802e-08
-1.06865e-12
3.78562e-10
1.37444e-08
-3.52287e-09
6.64658e-09
-1.32986e-11
2.78096e-11
8.2168e-09
-2.47871e-10
6.5209e-12
1.1625e-09
2.92084e-12
6.77323e-12
9.507e-10
1.76049e-12
1.56902e-11
1.46524e-09
-9.51652e-12
3.85595e-11
1.8755e-09
-1.80411e-10
9.40379e-10
-1.02105e-11
5.91425e-12
1.57776e-09
-3.46276e-10
8.54235e-13
2.07721e-10
2.21426e-11
7.48209e-13
1.70386e-10
1.16753e-11
2.612e-12
4.02928e-10
-4.2853e-10
2.59303e-11
2.0447e-09
-1.27202e-08
1.55029e-09
-4.3475e-09
8.78427e-12
3.70431e-09
-1.52806e-08
-1.43002e-12
-5.48222e-10
-1.18587e-09
-3.18956e-13
-1.18387e-10
-1.26607e-09
1.10599e-11
2.8502e-09
-1.2547e-08
4.19066e-10
7.552e-08
-3.38996e-07
3.57431e-09
-1.39636e-08
-6.11278e-11
-3.36858e-08
1.61349e-08
-1.16716e-10
-5.07581e-08
3.80423e-08
-1.13507e-10
-4.48641e-08
3.36581e-08
-1.18906e-10
-4.37906e-08
2.78755e-08
2.54133e-12
4.98897e-08
-1.37701e-07
-4.77499e-08
4.0625e-08
5.82978e-10
-3.56045e-07
-7.26392e-08
-3.83759e-10
-1.99478e-07
-4.04869e-08
-1.24934e-09
-2.09636e-07
-4.21093e-08
-3.02426e-10
-3.28505e-07
-6.68717e-08
2.54335e-09
-2.15967e-07
-4.371e-08
-2.42212e-07
-4.80323e-08
-7.96331e-06
0.004408
0.000423079
-1.99825e-06
0.00733487
0.000649475
5.94676e-06
0.00727935
0.000642164
-1.13942e-08
0.00053883
6.08572e-05
-2.53825e-05
2.22495e-05
2.81077e-06
0.00659296
0.000597214
-0.00293668
0.371998
0.0243217
-0.000897432
0.37431
0.0254374
0.00187376
0.373011
0.0255166
-0.00102876
0.369949
0.0246153
-0.00591138
0.367501
0.025359
0.372213
0.0253734
0.00460501
0.34148
0.0921285
-0.000914587
0.337267
0.0862716
-0.000251869
0.332815
0.0867893
-0.00149016
0.347795
0.0934247
-0.00783252
0.359943
0.0933928
0.318816
0.0843256
0.00561997
0.436065
-0.000192403
0.447188
-0.0118966
0.44057
-0.00120681
0.434323
0.0272646
0.428911
0.441463
2.01637e-06
-1.78301e-05
-0.000121643
1.81612e-06
-4.32864e-09
-6.06749e-05
2.02105e-06
-1.61834e-13
-5.10385e-05
2.84823e-07
-2.59693e-10
-0.000109082
1.25269e-06
-1.78636e-06
-0.00013076
-4.76727e-14
-3.75723e-05
-3.65824e-12
-4.32805e-08
-1.34746e-05
1.35968e-13
-4.6443e-13
-4.5537e-09
2.02956e-16
3.11895e-15
-3.72766e-14
1.81911e-13
-2.33083e-15
-2.72707e-10
-1.5131e-17
-1.50721e-09
-1.87301e-06
-4.99089e-14
-1.56583e-21
1.11169e-11
-5.74562e-12
-5.09671e-08
1.71726e-14
8.46286e-14
-5.77083e-11
-7.48958e-16
3.92088e-14
-3.08477e-14
1.29242e-16
-1.63467e-14
-1.05551e-12
1.12574e-11
-1.50384e-12
-5.54445e-09
3.70301e-15
-2.09619e-12
8.09817e-15
-1.1318e-12
-2.52493e-10
1.55854e-14
4.48855e-13
-3.25191e-13
-7.90085e-15
1.93621e-13
-1.76138e-16
-2.52489e-13
-9.27565e-12
-1.26302e-14
1.21104e-14
-1.5553e-10
-2.57521e-11
1.03316e-12
-1.18324e-11
1.35712e-13
-1.59055e-10
-9.10959e-11
1.17003e-13
-1.64961e-11
-1.90238e-10
-6.80863e-12
-6.07388e-12
-1.074e-10
-1.44104e-10
-2.42076e-10
-7.28887e-10
-3.45892e-11
-9.97983e-09
-5.85241e-09
1.34719e-10
-1.06318e-08
-1.26648e-11
2.25162e-09
-5.65027e-08
-8.13692e-12
2.39987e-09
-1.01373e-08
8.55236e-11
2.5951e-09
-1.10933e-08
-3.13586e-09
1.56538e-09
-4.42496e-08
2.13306e-09
1.46322e-08
-8.66979e-07
3.19523e-09
-5.66927e-08
1.70882e-09
-2.09089e-08
-2.4703e-07
-5.9202e-11
-4.65769e-08
-4.55573e-08
-1.0876e-09
-4.23271e-08
-6.10857e-08
-2.17639e-10
-3.52672e-08
-1.42543e-07
1.57777e-09
1.65776e-07
-1.40832e-06
-5.43526e-08
-4.04413e-08
4.25454e-09
-2.78602e-07
-9.62141e-08
4.66303e-10
-1.52387e-07
-3.87212e-08
-1.77858e-09
-1.64769e-07
-5.21531e-08
-4.37491e-11
-2.43404e-07
-8.41966e-08
1.2583e-10
-1.50357e-07
-6.06522e-08
-1.99361e-07
-5.58257e-08
2.2273e-07
0.000401125
2.87621e-05
-5.41882e-07
0.000613557
4.28325e-05
-8.43365e-08
0.000604599
4.35389e-05
5.81386e-11
5.50306e-05
5.30955e-06
-1.64613e-07
-4.53615e-08
-4.40274e-08
0.00056406
4.09819e-05
-0.000360969
0.023154
0.00175206
-0.000137137
0.0237062
0.00198056
0.000113456
0.0237455
0.00197098
-0.000203511
0.0230504
0.0019128
-0.000237794
0.023432
0.00196449
0.0235882
0.00194547
2.79154e-05
0.10689
0.00723047
-6.79667e-05
0.0992384
0.00977019
0.000164496
0.100154
0.00901775
-0.000241167
0.107048
0.008878
-0.000149117
0.105845
0.00994351
0.0979735
0.00864934
0.00519692
0.389275
0.0035798
0.33217
-0.00289926
0.35185
-0.000116577
0.386681
0.0113798
0.375379
0.339252
0.00948967
0.0395807
-0.0503035
-0.00545837
0.040295
-0.0269565
-0.0182921
0.0385013
-0.0272455
-0.0393629
0.0396488
-0.0200261
-0.0378068
0.0266177
-0.0294075
0.0270846
-0.0656775
0.0108856
0.0760408
-0.0489466
-0.00553892
0.0713838
-0.0163581
-0.00339269
0.0568825
-0.0222757
-0.00677136
0.0442544
-0.00258368
-0.0293349
0.0534342
-0.00547934
0.0624974
-0.0653455
0.0119639
0.091912
-0.0303677
-0.00413711
0.102092
-0.0171925
0.0139026
0.0598243
-0.0229195
0.0133351
0.0392003
0.00374968
-0.0275835
0.0840388
0.00854732
0.0835826
-0.050546
0.0386127
0.0901301
-0.0394236
0.0303549
0.101904
0.00648141
0.0139856
0.0335383
0.0406965
-0.00820023
0.0460907
0.013358
-0.036157
0.108992
0.00113241
0.100277
-0.0547876
0.0508761
0.0849722
-0.0477318
0.0532005
0.0750764
0.0219144
-0.00613171
0.00448451
0.0236325
-0.0327985
0.0242239
0.00666498
-0.0407055
0.126669
-0.0117084
0.118723
-0.0610869
0.0504001
0.0825981
-0.0490548
0.0198883
0.0292917
0.0130299
0.010474
-0.000755083
0.0202054
-0.0429534
0.025082
0.0114536
-0.0509271
0.163671
-0.0306812
0.133646
-0.0671981
0.0634078
0.0147706
-0.0869008
0.104649
0.00749507
-0.0188713
0.106396
-0.0213822
0.011046
-0.012958
0.0170245
0.0334802
-0.0373955
0.0445903
-0.00535797
0.0225243
-0.0479974
0.0139416
0.00511913
-0.0200888
0.0255025
-0.00212466
-0.0428526
0.0174511
-0.0345129
-0.0115515
-0.00526078
0.0166495
0.0189179
-0.0278067
0.00915278
0.0187663
0.00268219
-0.0114884
-0.0119226
-0.00158478
0.0101222
-0.022411
4.35503e-05
-0.00462353
-0.00211468
-0.0459109
-0.00645782
-0.000223919
0.00539814
0.0120358
-0.00483535
0.00608065
0.0148803
-0.0181961
0.0101121
-0.000114368
0.000922579
0.0110775
-0.0232558
0.00125282
0.00970868
-0.0380569
-0.0269793
0.00298359
-0.0029924
-0.0180726
0.00468484
0.00501375
-0.010886
0.00775122
-0.0238845
0.00779185
-0.000539766
-0.00403631
0.00721177
-0.00355825
3.85119e-05
0.00509733
-0.0206551
-0.0127341
0.00215639
-0.0111204
-0.0176625
-0.000985378
0.00990314
-0.0183511
-0.00543949
-0.0140687
0.00144332
0.000172314
-0.0024955
-0.000829639
0.000372995
-0.0108823
-0.0027306
-0.00881154
-0.00805893
-0.000498601
-0.0135711
-0.00140574
0.00912426
0.0191403
-3.22073e-07
-0.010098
0.014688
-9.472e-08
-0.0633679
0.00178324
-3.29119e-05
-0.0540873
0.0108279
-1.11985e-06
-0.0125068
0.0150304
-6.48071e-07
0.0139064
-3.00135e-07
-0.0038696
0.0387609
-6.0158e-06
-0.0248816
0.0308419
1.03718e-05
-0.0738039
0.0126954
0.000164004
-0.0533257
0.0223932
-4.49377e-07
0.00162916
0.0268778
-1.15994e-06
0.0235581
-6.13147e-07
-0.0254295
0.0590135
7.12647e-05
-0.0357761
0.0544996
-4.78503e-06
-0.0390688
0.0323552
-0.00102388
-0.0279205
0.0318775
-1.60954e-08
0.00554402
0.0399798
-6.97812e-08
0.0539427
-6.80845e-05
-0.0356135
0.117436
-0.00808796
-0.0370696
0.0708255
-0.000102166
-0.0198476
0.0376461
0.000483327
0.00511509
0.0723801
-4.34544e-08
0.0178567
0.0508297
-3.10065e-07
0.0845633
-1.85878e-05
-0.0542834
0.148081
-0.0204587
-0.0341523
0.109802
0.000463801
-0.0244544
0.044911
0.00532633
0.0227587
0.117824
-0.0392024
0.0369481
0.120822
-0.00127557
0.132847
-0.00178394
-0.0496324
0.163826
-0.0146112
-0.0473449
0.177134
-0.0219073
-0.0576987
0.0754686
0.00761788
-0.017642
0.161681
-0.0172931
0.0306444
0.181391
-0.0699667
0.173892
-0.0613453
0.00333234
0.113345
-0.0358521
-0.00490881
0.203744
-0.0365386
-0.0481027
0.0907682
0.00215191
-0.0769885
0.0243223
0.0123047
-0.0335239
0.208489
-0.0617267
0.202973
-0.0955046
0.0517031
0.0199877
-0.0282885
0.0775572
0.20732
-0.0698459
-0.0131403
0.068242
0.038835
-0.01698
0.0103361
0.0316726
-0.0228322
0.00548632
0.026885
0.0349199
-0.0543823
0.0212684
0.00290846
-0.009313
0.0688287
-0.0053067
-0.0192002
0.0107257
0.00621885
0.0253501
0.000111917
0.0133628
0.0282622
0.00165279
-0.000555318
0.0158732
-0.00301935
0.00825778
0.00688477
0.000392253
0.00231826
0.0146462
-0.00150194
0.00977348
0.00822409
-0.000303574
6.95761e-05
0.00254154
-8.07041e-06
0.00897694
0.00160776
-0.000454357
0.00281532
0.00381853
0.00114423
0.00181146
0.00117018
0.000654466
0.00106528
-0.00216469
0.00494995
-0.000131323
-0.000760731
-0.000541284
-0.000165169
-0.000671455
-0.00104647
0.000439855
-0.00136583
-0.00591985
0.000477722
0.000961853
0.00140671
-0.00147881
0.00151159
-0.00121071
0.000817061
-0.0025324
0.000191591
-0.00889718
-0.000593925
-0.0160759
-0.00341188
2.02893e-09
1.95993e-09
-3.15684e-07
9.02337e-09
3.93903e-09
-8.99014e-08
-5.36392e-09
-4.19077e-05
9.01938e-06
-1.30825e-08
-2.97004e-10
-1.10752e-06
-4.48511e-09
-4.22871e-11
-6.56885e-07
5.72525e-09
-3.2311e-07
-4.78608e-06
1.16421e-07
-1.3408e-06
-0.00012075
5.93213e-06
-2.40159e-06
-3.58025e-09
-3.77778e-07
1.73476e-06
-3.0471e-09
9.91526e-10
-4.3992e-07
1.39998e-09
9.45094e-09
-1.16211e-06
2.19291e-08
-6.30967e-07
-1.20454e-08
0.004062
-7.44111e-06
1.10969e-08
1.258e-07
-4.06229e-07
-2.97258e-10
-0.00102304
-1.1966e-06
1.49711e-09
1.54744e-09
-7.84332e-09
3.18722e-09
5.54232e-09
-5.62641e-08
9.36442e-07
-6.89841e-05
-0.00238853
0.00336451
7.378e-05
-0.00352728
0.00243442
2.84293e-06
-5.78124e-10
-5.15473e-05
-2.00017e-06
2.865e-09
3.28399e-09
-3.73354e-08
4.16686e-09
1.07578e-08
-3.05869e-07
7.80458e-09
-1.76493e-05
-0.0161771
0.00292276
3.11901e-05
-0.0163354
0.0180704
-3.66707e-05
0.00127778
0.0213641
-1.16049e-05
0.00133405
0.00600842
-4.05607e-07
3.75167e-05
2.27499e-05
-1.78268e-06
-0.00173651
-9.89917e-06
-0.0167251
0.00177407
-3.55364e-05
-0.0495208
0.0572008
-0.000111519
-0.00554391
0.121645
-1.45865e-05
0.0286696
0.0910151
-6.61329e-07
0.000948637
0.0193295
-2.68375e-08
0.040962
-3.90615e-06
-0.0192288
0.0125292
0.000160889
-0.0581336
0.140742
-0.00342382
-0.0401864
0.114463
-0.0392024
0.010159
0.0874109
-0.0474459
0.0438055
0.126053
-0.0123148
0.166697
-0.0002413
-0.0613487
0.0508268
0.000789192
-0.0803868
0.185746
-0.0286921
-0.0491125
0.0445601
0.0121381
-0.0043761
-0.00560461
0.0240578
0.00235596
0.0754678
0.00275655
0.22266
-0.0194193
-0.00181166
0.0545023
-0.00800959
0.00947103
0.0462436
-0.00942826
-1.98064e-05
0.0088408
0.0163662
-0.000486033
0.00141996
0.016219
-0.00140549
0.00235217
0.0284583
0.0157771
-0.000679834
0.00957601
0.00894843
-0.00808682
0.0037038
-0.00351337
0.0126134
0.000316348
-2.639e-05
0.00292996
-0.000203669
-0.000454698
0.00197827
-0.00147725
-0.000523064
0.00274847
0.00282302
0.00540705
0.00206113
0.00253404
0.000804823
0.00122376
-0.000141822
0.00219429
0.00121106
-0.00164525
0.000481177
-5.61053e-05
-0.0050397
0.00255597
-0.000160316
-0.00476091
-0.00154615
5.68321e-05
0.00137576
0.00238795
-0.00343585
0.00817881
-0.00292716
0.00945241
-0.00472661
0.00502892
-0.0110042
-0.00386124
-0.0138646
-0.00731662
-2.61963e-08
4.43849e-08
-8.16054e-07
5.46708e-09
2.00382e-08
-4.13531e-07
1.12195e-05
-2.00445e-07
-2.32107e-06
6.93277e-07
-1.50397e-07
-9.18281e-07
-1.41318e-08
-1.43687e-08
-3.01814e-07
1.10163e-08
-6.84e-07
-6.30128e-07
1.79448e-06
-6.45806e-06
5.51251e-08
8.79636e-07
-3.1301e-06
1.35697e-06
9.2044e-07
-7.19116e-07
2.14558e-07
3.23462e-09
-1.7046e-07
2.28719e-07
1.30586e-07
-2.09182e-06
4.40219e-06
-5.15794e-06
-4.54586e-07
7.37659e-07
-4.20097e-06
-3.09124e-08
3.56467e-06
-2.94806e-06
1.43732e-09
6.59456e-08
-3.67466e-07
1.05542e-08
3.49265e-09
-9.51057e-09
2.29016e-06
2.80014e-08
-2.21993e-06
9.18683e-05
-1.94898e-06
1.06215e-06
7.53411e-05
-1.04655e-06
-2.51812e-09
9.43533e-06
-2.01743e-06
1.71224e-10
8.66108e-08
-2.09412e-06
6.62016e-09
5.62276e-08
-2.31734e-07
-2.17778e-06
1.11563e-06
-1.23026e-06
1.37675e-05
1.43046e-05
2.12488e-05
7.42936e-05
1.28299e-05
2.32921e-07
1.90963e-06
-7.98913e-06
1.21653e-07
3.18022e-07
-1.17281e-05
8.79568e-09
2.88606e-08
-2.81135e-07
1.7051e-08
4.12355e-08
-7.28336e-07
4.08961e-06
-2.45887e-07
2.58047e-05
3.59342e-05
-2.15777e-05
1.11346e-06
3.76886e-06
-8.89323e-05
3.25959e-07
9.04756e-07
-1.44014e-05
2.01553e-08
7.47128e-08
-4.13071e-07
9.24521e-09
1.88981e-08
-2.72525e-08
1.8676e-07
2.94803e-10
-3.11592e-06
0.000176914
-1.29665e-05
-0.00353323
0.000195723
-8.42501e-05
0.00269687
0.0310551
-2.0406e-05
0.0146162
0.0344912
-5.79976e-07
0.000291275
0.00201012
-9.82362e-09
5.01476e-05
-2.00997e-09
-0.000351947
0.00109029
-0.000130321
-0.0296658
0.00418617
-0.00264173
-0.0140936
0.0494316
-0.00138508
0.00184485
0.0375104
0.0111357
0.00898273
0.0250276
-0.00202492
0.0777713
-0.0110389
-0.0106248
0.0302493
-0.00472458
-0.0178515
0.0268171
-0.000199716
-0.00784724
0.00202023
0.00710072
7.10104e-05
0.000358295
0.0132509
0.010992
0.00253696
0.0164288
0.0542884
0.00151981
-0.0125719
0.023455
-0.00393606
-0.00315954
0.012628
0.0123025
-0.000506628
6.33091e-05
0.00169664
-0.000167395
7.90651e-05
0.00125617
-0.00286635
0.000411801
0.00337233
0.00373525
0.0116437
0.00157813
0.00208567
0.00187789
5.68922e-05
0.0024077
0.00346672
0.000264491
-0.000238335
0.00040292
-0.000221679
-0.002959
0.000524413
-0.000850239
-0.00647606
0.00170189
0.00194011
0.00112673
0.00749444
-0.00493861
0.0163804
-0.00290759
0.0150064
-0.00497034
0.00676263
-0.0086752
-0.0042621
-0.0122555
-0.0103178
8.35668e-06
-0.000105204
-2.37629e-06
3.53853e-06
-5.78532e-05
-1.06196e-07
-1.11494e-05
-5.14895e-05
-8.86707e-13
-8.07447e-06
-8.61338e-05
-6.44612e-09
1.17711e-06
-0.000112773
-1.18796e-06
-1.71889e-05
-5.43778e-14
-3.84718e-05
-4.45937e-05
6.05919e-18
-3.06925e-06
-7.04915e-05
-6.24164e-23
3.1761e-05
-4.371e-05
-3.06528e-21
3.94956e-05
-6.79437e-05
-9.17599e-22
3.79723e-06
-5.09576e-05
1.41024e-22
-1.79798e-05
-1.09546e-20
-5.20957e-05
2.8748e-21
-5.17884e-07
-1.21511e-21
3.12939e-05
-6.08076e-20
5.98724e-05
-1.80096e-20
1.78672e-05
-2.73543e-20
-2.19281e-19
1.10543e-07
8.17327e-17
5.14782e-08
-3.78257e-16
-3.11721e-24
-2.06937e-10
-9.2396e-13
-1.53183e-22
-4.01404e-16
-6.72099e-09
-4.56337e-23
1.27903e-12
-1.60382e-18
1.59739e-21
5.58939e-09
-5.25283e-22
-5.43794e-14
-1.38797e-26
4.22799e-20
-2.03785e-19
-9.03516e-25
-6.46791e-23
3.52112e-26
1.85063e-24
-3.21837e-21
2.13964e-24
5.1937e-25
-9.6195e-22
4.85817e-26
-1.08245e-23
-1.48243e-21
1.24715e-20
-1.14938e-20
3.04428e-24
-9.12081e-25
-2.34257e-20
-1.13188e-23
-1.26938e-21
7.0022e-23
-6.41073e-20
1.77462e-23
-1.89193e-20
-4.8394e-23
-2.87706e-20
-2.30823e-19
2.93724e-10
-6.80336e-19
2.54672e-10
6.90062e-14
-5.77343e-19
1.26054e-12
7.11673e-16
-4.61064e-17
1.79343e-15
1.36491e-13
-7.6363e-17
7.30074e-14
8.11161e-12
1.86407e-18
3.92317e-11
-6.11421e-17
3.35205e-13
1.68275e-22
-8.84985e-19
6.99306e-22
2.00266e-22
-5.73888e-20
6.74685e-22
4.47756e-19
-3.0001e-18
8.74039e-19
4.98335e-19
-7.00112e-19
8.93029e-19
-1.59552e-20
-9.42214e-19
-3.45052e-20
-7.5601e-18
1.04137e-18
4.07876e-22
-1.30647e-18
4.73615e-23
-8.7226e-20
8.40677e-21
-2.17487e-18
1.22197e-21
-1.4341e-18
-2.13615e-21
-1.75459e-18
-2.71109e-20
1.11295e-13
1.30195e-15
2.09251e-12
-2.41981e-19
-2.78237e-18
3.37467e-14
4.56456e-20
-5.79689e-17
1.65032e-15
-1.38036e-13
-5.87327e-18
1.979e-13
-3.68096e-13
1.21017e-15
1.36354e-11
-1.34346e-19
-2.339e-13
-2.07056e-18
-8.74456e-17
-3.73916e-17
-1.83849e-20
-6.2553e-18
5.05872e-17
7.8341e-20
-1.61609e-16
5.34863e-16
1.27094e-20
-9.37272e-17
1.05459e-16
-6.04679e-22
-1.046e-16
-3.17579e-17
-1.59603e-18
2.57185e-18
-8.36399e-21
-5.33425e-16
-2.14833e-19
-2.16794e-17
1.12195e-20
-2.66242e-16
-6.01028e-20
-2.35207e-16
-5.16675e-21
-4.48136e-16
-8.25701e-18
-5.55876e-13
-2.70586e-11
2.50067e-11
-1.02426e-13
-2.24312e-11
-2.76685e-10
-4.28633e-13
-4.84585e-12
-3.10303e-11
-2.45071e-11
-2.11781e-11
-1.29731e-09
-1.03639e-10
-2.54463e-10
-2.18622e-08
-3.81536e-09
-1.01157e-08
8.45184e-15
-1.08903e-13
-2.6961e-11
-2.22059e-15
-8.06634e-15
-2.2412e-11
-2.76891e-15
-3.44552e-14
-4.80999e-12
-1.12192e-13
-6.37718e-14
-2.10046e-11
-6.90875e-12
-3.64384e-13
-2.47302e-10
-7.3146e-15
-1.22699e-09
-4.08592e-19
-1.09388e-13
-2.27078e-17
-8.12338e-15
-8.8806e-18
-3.47358e-14
-2.67795e-17
-6.4058e-14
-8.54695e-19
-3.64916e-13
-7.32372e-15
-2.92845e-11
-9.2514e-09
-1.02309e-07
-1.82594e-11
-1.17115e-08
-1.94361e-08
7.24086e-11
-2.15025e-09
-2.44554e-08
-1.62764e-10
-1.27462e-08
-6.49202e-08
4.8453e-09
-3.83611e-07
-6.70634e-07
-7.43373e-08
-2.44377e-08
-3.8667e-11
-9.94947e-11
-9.14234e-09
-4.38827e-12
-1.00666e-11
-1.82735e-08
-7.69896e-12
-3.24257e-11
-2.0953e-09
-4.58401e-10
-8.84574e-11
5.77207e-09
-2.84019e-10
-2.38426e-10
-3.15814e-08
-3.55818e-12
-2.09549e-08
-1.64125e-16
-9.96028e-11
-2.30279e-14
-1.00519e-11
-3.42242e-15
-3.24801e-11
-8.92712e-15
-8.85159e-11
-4.23743e-16
-2.38799e-10
-3.56593e-12
1.376e-10
-7.3082e-07
6.1706e-08
1.23297e-10
-1.36197e-07
1.5292e-08
1.15517e-11
-2.00164e-07
2.39377e-09
1.3604e-09
-4.40129e-07
2.52021e-08
2.29984e-08
-7.63367e-07
-1.71988e-08
-9.85309e-08
3.73587e-08
3.97489e-09
-4.95508e-08
-6.77357e-07
1.1567e-10
-1.87627e-09
-4.02897e-08
-1.08398e-09
-1.46134e-08
-2.07513e-07
-1.54321e-09
-1.88854e-08
-4.72315e-07
-3.97032e-09
-4.51694e-08
-4.01936e-07
-7.22007e-10
-7.99999e-10
1.76221e-11
-4.9668e-08
-1.06734e-11
-1.85802e-09
-7.02497e-12
-1.46495e-08
-1.23952e-11
-1.89686e-08
2.79633e-12
-4.54234e-08
-7.22776e-10
7.52643e-10
-3.03455e-07
-1.9511e-09
-1.05893e-10
-7.72284e-08
-1.46614e-10
3.68868e-10
-2.1518e-07
6.80336e-08
-1.6445e-10
-2.81403e-07
-9.46594e-12
1.84002e-09
-2.76155e-07
6.20751e-11
-1.11008e-09
-2.46494e-09
-7.24696e-08
-2.34879e-07
9.44832e-08
-8.32237e-09
-2.5308e-08
3.50134e-08
1.8069e-08
-3.60534e-07
3.79813e-08
-1.03003e-07
-9.86326e-08
7.73854e-08
-3.76546e-08
-3.28008e-07
1.2913e-07
-4.15881e-09
-3.54058e-08
-1.8834e-09
-1.21106e-06
-1.77351e-08
-7.31058e-08
-3.25941e-09
-1.00017e-06
1.67811e-09
-6.18559e-07
7.29906e-09
-7.77023e-07
-2.20023e-08
-2.51191e-07
2.32685e-06
2.77176e-05
-4.0594e-08
8.06266e-07
4.18346e-05
-2.4944e-09
3.1127e-06
4.03581e-05
2.65259e-09
3.58391e-07
4.30865e-06
-1.1232e-07
-1.02918e-07
-8.37952e-08
2.13682e-06
3.87309e-05
-1.58787e-07
8.01096e-07
4.55924e-07
5.21954e-08
1.83411e-07
6.56061e-06
7.54908e-09
1.02474e-06
2.12192e-06
5.74538e-10
1.92618e-07
2.4881e-07
-8.05999e-08
2.35189e-08
4.83071e-08
2.54995e-08
1.99532e-06
-2.01775e-06
1.30087e-06
3.27578e-07
6.58507e-07
7.53464e-07
-7.56806e-08
-4.38175e-06
7.22856e-07
-1.89436e-06
-2.272e-09
2.69167e-07
4.51891e-05
0.000165518
0.00154862
-1.42579e-05
0.000153479
0.00191226
-2.58057e-05
0.000161431
0.00184369
-2.6217e-06
0.000164852
0.00172639
6.90705e-06
0.000171954
0.00178292
0.000130301
0.0018411
1.28061e-05
3.4312e-05
0.00011625
-1.627e-06
1.11461e-05
0.000164234
-6.9738e-06
3.54274e-05
0.000132387
9.9023e-07
2.45438e-05
0.000132525
3.03046e-06
2.09046e-05
0.000149057
7.35371e-06
0.000126565
1.30262e-06
-5.07711e-06
1.70359e-07
-9.48145e-07
-5.92118e-07
-3.82018e-06
1.37188e-07
-4.43479e-06
-1.66901e-07
-9.20796e-06
-2.11929e-06
0.00019049
0.000591657
0.00779251
-1.53658e-05
0.000745374
0.0110448
-6.87592e-05
0.000640391
0.0101216
1.85135e-05
0.000641726
0.00972198
9.1325e-05
0.000826071
0.0106671
0.000617506
0.00981932
5.50138e-05
0.000153455
0.00031662
-5.44394e-06
0.000246535
0.000811604
-2.11353e-05
0.000177885
0.000572063
1.91031e-05
0.000204584
0.000436463
4.77241e-05
0.000272131
0.000553169
0.000202204
0.000572311
3.79059e-06
-7.72397e-06
-8.90861e-07
6.16164e-06
-1.2954e-06
-6.01342e-06
4.65405e-06
-6.67782e-06
2.9927e-06
-9.51452e-06
-5.11948e-06
0.0150486
0.00138987
0.143284
-0.00429697
0.00310733
0.123279
-0.0129019
0.00276654
0.12556
0.00243487
0.00241998
0.150261
0.013339
0.00253242
0.15274
0.00246003
0.118899
-0.000179077
0.000129781
0.00206287
-1.60035e-05
0.000412119
0.00325394
0.000108612
0.000287095
0.00277762
4.47995e-05
0.000185908
0.00259782
6.81568e-05
0.000259843
0.00299405
0.000322046
0.00263875
-3.34693e-05
4.88831e-05
-1.8713e-07
0.00012719
1.38034e-05
9.34775e-05
-3.03557e-06
6.96717e-05
-1.48271e-05
8.26304e-05
9.22949e-05
0.000467061
-0.000594109
-0.00654113
0.00754625
0.00109615
-0.000462712
-0.00644919
0.00760847
0.000492577
-1.2042e-05
-0.00643379
0.00940077
-0.000543791
-1.64914e-06
-0.00685651
0.0106325
-0.00144612
-0.000380712
-0.00788828
0.0119216
-0.000198169
-0.00609585
0.00745177
5.80352e-06
-1.58275e-06
6.81032e-07
-0.000599296
8.12752e-06
-1.80129e-06
-1.63407e-08
-0.00046368
2.12038e-07
-5.16453e-06
-5.86452e-08
4.54426e-08
3.82192e-08
-2.80036e-06
-8.56793e-08
3.15255e-08
-4.17228e-08
-1.86638e-06
-3.34036e-09
-0.00037967
-5.63447e-07
2.37118e-06
-0.000200419
8.48801e-08
9.73319e-08
-1.87692e-06
2.17145e-06
4.98463e-08
-4.09192e-06
1.25962e-05
6.74421e-07
-3.86533e-05
3.414e-06
2.4599e-06
-5.97713e-05
1.33056e-07
2.29265e-06
-3.78083e-05
1.76476e-07
-8.28074e-07
0.000254119
-2.22121e-06
-0.00360841
0.0003384
-2.44328e-06
-0.00374067
0.000321896
-2.80695e-06
-0.00401454
7.07023e-05
-2.53008e-06
-0.0040122
-0.00033168
-2.00524e-06
-0.0037069
-3.059e-06
-0.00352365
8.67367e-09
-1.24642e-09
-1.64857e-06
1.00497e-08
-3.5029e-09
-2.55594e-06
-4.79073e-09
-6.2217e-08
-3.24972e-06
-3.25008e-08
-8.45845e-08
-3.47583e-06
-2.69763e-08
-7.17053e-08
-2.35785e-06
-1.51424e-09
-8.72745e-07
-1.19122e-09
-1.15335e-08
-5.36604e-08
-9.25075e-09
-1.61413e-07
-4.32634e-08
-7.70448e-08
5.47301e-09
-1.98832e-10
5.44367e-09
1.33341e-09
0.00010666
-0.000132742
-0.00195523
0.000221495
-0.000157864
-0.00211908
3.89993e-05
-0.000163296
-0.00204074
-0.000126528
-0.000172296
-0.00216452
-7.07378e-05
-0.000167654
-0.00212526
-0.0001268
-0.00191272
1.77164e-07
-6.57815e-08
-0.000134878
2.02635e-07
-8.20363e-08
-0.000160774
-1.99427e-07
1.7784e-07
-0.0001672
-7.44658e-07
2.64918e-07
-0.00017654
-5.12975e-07
1.55033e-07
-0.000171174
-2.05843e-08
-0.000128548
-2.62205e-09
-1.92703e-07
-7.88462e-09
-2.03261e-07
-1.39938e-08
-4.59762e-07
-8.09483e-09
-5.52075e-07
-1.2475e-09
-3.55178e-07
-2.00586e-07
7.56094e-06
0.00107256
-0.00110789
0.000117604
0.00115622
-0.00156378
8.34778e-05
0.0011253
-0.00141971
-2.86187e-05
0.00114247
-0.00104521
-0.00010501
0.00115531
-0.00101367
0.00110153
-0.00151947
-2.73734e-06
-1.21851e-05
-0.000592248
-1.46755e-06
-1.2924e-05
-0.000773559
-6.66227e-06
-1.22644e-05
-0.000755074
-1.04991e-05
-1.33442e-05
-0.000754284
-4.24493e-06
-1.43822e-05
-0.000786303
-1.02674e-05
-0.00060656
-1.07945e-07
-1.36184e-05
-1.26389e-07
-1.46076e-05
-1.57636e-07
-1.46615e-05
-1.14547e-07
-1.62002e-05
-1.59872e-08
-1.68979e-05
-1.18451e-05
-0.000176447
0.00687123
0.000447138
4.67824e-05
0.00646895
-0.00126814
-0.000462202
0.00641738
-0.00033896
-0.000116744
0.00698902
-0.000103285
0.000793963
0.0071194
-0.000788009
0.00626624
-0.000477051
-3.88267e-05
-5.51395e-05
-0.0073975
-1.71683e-06
-5.99604e-05
-0.00701702
-0.000165432
-6.03368e-05
-0.00684709
-0.000100595
-6.24481e-05
-0.00867551
0.000196251
-6.29513e-05
-0.00919845
-5.48999e-05
-0.00615194
-2.60445e-06
-0.000109628
-1.23612e-06
-0.000120537
-1.33324e-06
-0.000119117
-8.12727e-07
-0.000128442
1.27963e-06
-0.000133341
-0.000106396
-0.00182901
0.0275951
-0.000139548
0.0230845
0.000322572
0.0234684
-0.000565584
0.0294881
-0.000526758
0.0301908
0.022207
-0.000297431
0.000322018
1.40803e-05
0.000277347
-0.000145489
0.000286753
-0.000251724
0.00034743
0.000214245
0.000351707
0.000269139
-1.16589e-05
-9.09901e-07
2.95507e-07
-3.60161e-06
1.93567e-06
5.32148e-08
-6.91528e-07
-9.81788e-08
-1.48974e-06
-3.49947e-07
1.08018e-07
2.73931e-06
-4.0266e-06
8.28314e-07
2.33111e-07
-5.55127e-07
5.83615e-07
-7.08728e-08
-2.68533e-07
1.39731e-07
-7.48665e-07
9.72869e-08
1.11623e-07
-0
5.48689e-08
-1.92135e-07
-2.68796e-176
2.52951e-08
1.57227e-07
-7.54393e-233
1.26015e-07
-7.50347e-10
-1.39227e-194
2.06891e-08
-6.71406e-08
-1.04442e-196
3.68965e-08
-7.99605e-200
1.00556e-07
0
0
-1.0865e-235
3.62821e-179
1.04544e-235
6.76859e-236
3.70482e-197
1.77895e-197
7.49768e-200
1.2981e-199
9.60774e-203
-5.11261e-08
-2.38753e-06
1.19968e-06
-5.22232e-08
-6.65907e-07
6.58374e-08
5.51779e-09
-2.85701e-08
-7.67316e-09
2.06862e-07
-1.65055e-08
7.43582e-09
2.29015e-07
-1.83283e-06
1.98739e-07
-2.995e-06
6.0087e-07
1.5151e-07
-0
-1.40526e-07
-2.86413e-09
-4.09449e-179
1.28385e-11
-1.18365e-11
-4.23905e-09
-2.92281e-10
6.04788e-09
-1.96934e-10
4.79537e-10
-1.07398e-07
-1.30243e-12
4.51861e-08
-2.22501e-16
-4.14047e-08
0
0
5.15788e-183
6.57363e-182
5.89153e-11
9.15257e-11
1.30405e-12
2.8106e-12
2.22668e-16
1.39659e-15
1.66656e-19
-1.08123e-07
-3.30653e-06
1.54405e-06
1.04901e-09
-7.75514e-07
6.13621e-07
4.58462e-08
-1.43976e-08
1.49849e-07
5.70635e-08
-1.05127e-08
2.03553e-09