/*--------------------------------*- C++ -*----------------------------------*\
| =========                 |                                                 |
| \\      /  F ield         | OpenFOAM: The Open Source CFD Toolbox           |
|  \\    /   O peration     | Version:  v1612+                                |
|   \\  /    A nd           | Web:      www.OpenFOAM.com                      |
|    \\/     M anipulation  |                                                 |
\*---------------------------------------------------------------------------*/
FoamFile
{
    version     2.0;
    format      ascii;
    class       volScalarField;
    location    "9.2";
    object      p_rgh;
}
// * * * * * * * * * * * * * * * * * * * * * * * * * * * * * * * * * * * * * //

dimensions      [1 -1 -2 0 0 0 0];

internalField   nonuniform List<scalar> 
1116
(
9882.85
9839.27
9857.38
9883.79
9884.02
9911.77
10530.8
10573.7
10582.6
10560.7
10552
10601.7
12558.3
12585.3
12590.9
12564.7
12544
12604.4
14034.3
14071.8
14079.7
14055.5
14035.5
14081.4
15255.4
15226.7
15222.7
15234.6
15251.2
15230.2
15881.3
15875.6
15874.1
15875.9
15876
15872.1
16269
16266.7
16265.9
16262.1
16260
16261.4
16523.1
16519.5
16517.9
16512.1
16502.8
16513.6
16490.9
16473.5
16480.4
16474.2
16480.1
16475.3
17182.3
17192.8
17188.1
17185.8
17185.5
17188.4
16338.1
16364.6
16356
16350.9
16360.7
16362.5
16513.7
16486.7
16494.8
16503.7
16482.6
16487.2
4182.92
4180.19
4183.32
4222.06
4243.08
4206.78
4926
4990.67
4994.53
4914.48
4870.83
5003.94
6793.38
6904.36
6938.48
6789.33
6719.6
6932.13
9459.43
9538.88
9562.92
9469.24
9414.53
9571.82
11734.9
11746.5
11742.1
11755.9
11751.8
11785.1
13428.2
13425.6
13410.9
13428
13422.7
13431.1
14054.6
14049
14040.7
14030.9
14037.5
14010.4
15232.2
15160.4
15167.1
15163.6
15170.8
15125.5
16371
16386.9
16383.4
16364.6
16364.2
16376.9
16651
16757.4
16708.3
16730.2
16772.9
16704.6
12338.7
12650.8
12542
12459.8
12600.6
12511.5
15486.4
15206.4
15346.6
15426.3
15163.2
15336.7
6.66805
6.62441
6.47907
6.48682
6.66202
6.25038
4.77806
4.99555
5.0847
4.69587
4.84821
4.88367
-3.05594
-2.899
-2.89536
-2.98483
-3.08858
-2.81323
-17.8222
-17.9799
-17.996
-18.0796
-18.1476
-18.1599
-52.0496
-52.2161
-52.2362
-52.3487
-52.3174
-52.1395
-131.099
-131.074
-131.053
-131.583
-131.724
-130.111
-204.713
-204.678
-205.086
-206.325
-207.509
-204.578
-50.0159
-48.0799
-50.1569
-56.5816
-58.9011
-51.6451
382.529
383.668
383.277
381.682
381.627
385.021
2721.32
2719.4
2702.98
2748.92
2714.42
2738.11
4753.73
4795.21
4899.95
4694.92
4500.83
5079.07
17625
17514.7
17451.5
17539.3
17416.4
17380.1
16.5898
15.1419
14.8375
15.785
16.3815
14.6581
12.1842
12.1658
12.0753
12.0465
12.2028
11.8371
9.25574
9.31689
9.16502
9.28489
9.36174
8.84676
-3.09104
-3.17604
-3.27052
-3.13161
-2.95064
-3.62818
-29.0821
-29.1627
-29.2776
-29.3192
-29.4032
-29.8028
-82.3714
-82.3694
-82.5117
-82.677
-82.7007
-82.547
-176.354
-175.945
-176.223
-176.973
-176.984
-176.804
-173.917
-173.311
-173.683
-174.228
-174.073
-174.709
-22.2038
-25.0758
-23.75
-17.0266
-16.9947
-22.1235
90.5158
89.722
90.6211
93.113
94.3035
91.4307
171.877
170.63
169.937
167.729
171.276
164.407
17208
16240.6
16572.4
17017.8
16712.3
16421.3
1577.66
1568.46
1546.46
1510.29
1509.51
1530.15
1575.02
1559.01
1501.78
1491.22
1483.69
1512.9
1580.41
1561.6
1518.71
1513.18
1497.01
1538.84
1608.03
1552.83
1558.17
1583.28
1502.61
1592.42
1656.37
1611.72
1488.7
1604.15
1609.15
1728.06
1696.66
1646.93
1510.61
1788.79
1891.23
1940.88
1658.12
1658.86
1731.94
1496.75
1715.26
1826.72
1290.86
1462.54
1266.74
948.973
1034.17
1300.24
833.585
926.572
879.77
741.648
750.901
934.494
560.909
572.09
672.053
603.034
604.492
733.852
458.979
400.194
468.249
562.322
553.604
584.934
408.181
361.447
422.365
507.236
529.904
510.667
1158.65
1097.83
890.034
817.583
925.865
938.326
1075.63
1035.52
882.94
906.568
813.337
624.039
1068.9
1202.77
1086.64
1025.96
950.091
795.812
1463.26
1201.81
1174.23
1182.23
941.932
1158.62
1867.32
1293.7
1092.8
1807.14
1127.43
1590.04
1911.5
1716.71
1133.64
1839.89
1881.68
1990.81
1899.82
1668.51
1241.51
1293.93
1914.31
2087.27
1318.68
1716.68
1135.77
613.783
1066.2
1563.47
617.993
936.372
830.056
606.767
516.505
579.821
449.827
433.887
405.859
419.806
364.66
379.379
355.148
319.962
264.093
277.887
273.485
280.703
317.081
282.276
246.59
259.004
271.227
272.426
1.13262
0.406779
-1.21821
-3.3777
-0.667215
1.67798
3.48462
3.19495
2.07881
0.407758
2.95847
3.89951
130.899
9.10633
9.60572
6.35726
6.98225
6.95442
112.623
85.25
106.611
11.5649
11.6335
12.2291
88.8365
252.08
237.018
24.2339
18.8345
20.9089
44.9541
505.963
1002.07
767.736
39.1743
206.016
112.023
838.272
1720.81
1676.92
1144.84
1894.04
361.57
1818.51
936.84
526.268
1264.53
2059.61
764.225
1486.43
490.47
358.036
420.513
1223.63
600.48
353.759
187.9
212.164
209.338
225.597
220.243
195.195
184.658
254.352
259.676
201.431
206.144
213.76
220.715
309.302
350.582
279.966
1.41896
1.77083
1.17539
0.295935
1.06569
2.21115
1.74187
2.58563
1.77929
0.567714
1.56818
2.67617
-0.28261
0.119992
0.688099
1.48993
1.95469
5.60041
-3.5381
-6.11655
-2.59945
-0.921689
-0.404325
2.45983
-8.7937
-14.9055
-6.17176
-7.04768
-6.62828
-5.59199
-11.9536
-21.2131
-7.67661
-9.30143
-11.7419
-13.5813
-4.90587
-18.6592
150.654
312.285
-9.67655
-10.8813
3.82452
-1.07044
737.187
728.958
440.039
635.209
185.595
271.022
263.355
174.668
236.995
938.675
438.74
273.383
64.2702
84.2196
100.2
312.724
219.54
120.686
81.648
111.452
163.705
109.534
319
274.562
246.932
351.925
363.028
371.324
4.52569
3.58042
3.41551
4.18277
4.34959
1.70797
5.84054
2.93245
2.2016
5.91265
5.33887
1.47184
1.48872
-2.82227
-5.26317
1.1774
1.03454
0.601095
-4.01258
-4.35234
-4.3946
-4.29492
-4.20977
-4.27238
-7.90725
-7.89624
-7.95338
-8.01237
-8.09947
-7.93667
-13.9938
-13.6834
-13.5982
-13.996
-14.3994
-14.2533
-8.94474
-8.92023
-8.91595
-8.8785
-8.83889
-8.82452
-8.84624
-8.96252
-8.91737
-8.76896
-8.66347
-8.75174
-11.1271
-11.1305
-11.1206
-11.1368
-11.1706
-11.1946
-20.0625
-20.0344
-20.061
-19.9918
-19.963
-19.8618
-17.2278
-17.2345
-17.2309
-17.2091
-17.2323
-17.2069
-15.5217
-15.5174
-15.5037
-15.5031
-15.5241
-15.4763
-37.4447
-37.4531
-37.5191
-37.5146
-37.6061
-37.7102
-27.2264
-27.2516
-27.2869
-27.2822
-27.3337
-27.3568
-18.01
-18.0152
-18.01
-18.0057
-18.005
-17.9885
-68.0619
-67.9757
-68.0723
-68.0739
-67.9502
-68.1212
-42.6325
-42.6165
-42.6476
-42.6418
-42.6219
-42.6205
-20.6978
-20.6886
-20.6657
-20.6553
-20.6466
-20.6079
-100.718
-101.017
-101.109
-100.844
-100.887
-101.555
-51.2618
-51.8161
-52.0919
-51.4915
-51.8269
-51.9967
-19.638
-19.8617
-19.8421
-19.7393
-19.6726
-19.7583
-89.8718
-90.2913
-90.2658
-89.8211
-90.2475
-91.4834
-32.6256
-33.5057
-34.0335
-32.6757
-33.2972
-34.0165
-10.2152
-9.89035
-9.63475
-9.69765
-9.78296
-9.72971
-31.5034
-30.8678
-31.772
-29.9065
-29.7398
-30.0028
9.42894
9.99405
8.55223
9.47585
9.41601
10.5463
2.4401
1.30015
1.6202
2.19946
1.67448
1.65698
36.3119
32.3066
33.2904
34.0621
33.1898
32.7392
32.1589
27.7145
29.5912
31.2426
29.4657
28.3264
10.3472
9.72002
9.88468
10.0628
10.073
10.4692
80.6768
74.4822
76.5077
78.1624
78.6929
75.1907
44.6324
43.306
43.5144
44.304
46.2416
42.7077
16.0672
16.3045
16.5693
16.8056
17.2824
16.6616
5614
4239.11
4754.89
5547.91
5370.82
4569.36
2.04993
3.24092
3.06433
3.09817
4.20828
2.85706
-2.15566
2.28561
0.798534
-0.304896
0.80259
1.49582
977.481
972.002
958.921
939.295
916.713
879.972
2.99848
2.37766
1.41993
0.143095
0.0322154
1.84149
-1.09006
-1.76022
-2.2108
-2.31851
-2.06183
-1.24787
995.205
1000.62
991.442
964.65
917.495
958.834
6.1768
5.69547
5.18971
4.47173
4.74496
5.15131
0.327974
0.210549
0.137575
0.435668
0.877929
1.00869
1042.12
1039.87
1033.59
1033.63
1036.14
1037.43
7.15407
6.88649
6.61196
6.51569
6.79855
7.23681
2.00308
2.01762
2.07469
2.29782
2.66428
2.77034
1086.54
1087.5
1086.09
1083.18
1082.49
1082.86
19.264
20.9353
20.2987
20.9206
21.5785
19.6348
3.28538
3.3679
3.42837
3.53676
3.66717
3.68135
1207.43
1223.67
1223.57
1198.29
1191.56
1226.04
186.134
182.942
180.727
209.969
217.315
168.164
3.30582
3.53586
3.54509
3.64063
3.74944
3.69575
2588.94
2348.3
2377.65
2692.68
2739.35
2306.34
454.948
406.393
410.279
486.811
493.121
399.062
3.99724
4.39795
4.2576
4.56287
4.79645
4.29098
1.14655
1.46392
3.21898
3.04646
2.41562
1.88106
-0.0292825
0.0329767
0.833929
0.194729
0.165419
0.136265
-0.983878
-1.09968
-0.764943
-1.01891
-1.1843
-1.17076
0.754984
1.00645
1.39516
1.17385
1.28349
1.20376
-0.579398
-0.585437
-0.616028
-0.661296
-0.612074
-0.464457
-1.80212
-1.91465
-1.79624
-1.85358
-1.98799
-1.93712
-1.19658
-0.170747
1.06272
0.9489
0.855159
0.435471
-1.242
-1.17716
-1.0218
-1.02369
-1.00624
-1.076
-2.16634
-2.39157
-2.23405
-2.35709
-2.44019
-2.34611
-2.08693
-1.46185
-0.600953
0.193083
-0.31622
-0.0593106
-1.15594
-1.25062
-1.46458
-1.56795
-1.85235
-1.66356
-2.68231
-3.12182
-3.1572
-3.22463
-3.21943
-2.85703
-2.08788
-3.62917
-3.7081
-2.83864
-3.6244
-2.33583
0.164978
-0.606009
-1.81065
-2.3423
-2.70061
-1.45982
-3.48856
-4.20169
-4.47631
-4.38151
-4.15803
-3.43222
-0.452087
-5.75632
-7.49571
-7.50358
-8.7362
-7.88716
1.84417
1.18497
-1.5428
-3.21042
-4.26263
-3.64351
-4.43192
-5.44444
-5.92406
-5.69206
-5.32052
-4.64826
-2.22337
-12.8771
-12.9285
-13.726
-15.3718
-15.5898
3.89642
1.99709
-7.74689
-10.8034
-11.3381
-10.5229
-6.42067
-7.86859
-10.1034
-8.70492
-7.57336
-6.70215
40.063
45.8642
401.288
458.357
299.622
127.275
8.03649
25.2518
133.016
85.4366
67.087
-22.7005
-11.4884
-12.9881
0.352564
-15.1376
-14.2088
-13.0439
348.414
265.461
158.506
195.57
235.65
506.534
243.427
150.467
93.1528
162.067
173.392
19.0938
-12.7177
-10.5442
18.8803
2.57083
-7.74143
-16.7994
457.053
176.585
17.2981
25.603
48.4929
221.567
315.179
91.0341
-1.40803
15.9993
32.5879
36.2526
1.85242
5.51603
-10.147
-8.13735
-4.3306
-12.1824
151.601
45.7604
37.568
39.3299
45.4157
45.0681
92.8519
20.7443
9.2363
11.418
9.94177
11.3012
7.20963
4.33887
-8.08164
-8.74491
-7.03859
-6.40262
367.935
306.782
270.985
291.605
413.628
290.02
66.0475
74.6131
110.541
107.787
69.8175
12.1601
-1.95306
-3.50312
-5.30719
-5.5732
-4.70224
-3.05919
)
;

boundaryField
{
    seabed_topleft_surface
    {
        type            fixedFluxPressure;
        gradient        uniform 0;
        value           nonuniform List<scalar> 
72
(
9882.85
9839.27
9857.38
9883.79
9884.02
9911.77
10530.8
10573.7
10582.6
10560.7
10552
10601.7
12558.3
12585.3
12590.9
12564.7
12544
12604.4
14034.3
14071.8
14079.7
14055.5
14035.5
14081.4
15255.4
15226.7
15222.7
15234.6
15251.2
15230.2
15881.3
15875.6
15874.1
15875.9
15876
15872.1
16269
16266.7
16265.9
16262.1
16260
16261.4
16523.1
16519.5
16517.9
16512.1
16502.8
16513.6
16490.9
16473.5
16480.4
16474.2
16480.1
16475.3
17182.3
17192.8
17188.1
17185.8
17185.5
17188.4
16338.1
16364.6
16356
16350.9
16360.7
16362.5
16513.7
16486.7
16494.8
16503.7
16482.6
16487.2
)
;
    }
    seabed_topright_surface
    {
        type            fixedFluxPressure;
        gradient        uniform 0;
        value           nonuniform List<scalar> 
72
(
1577.66
1568.46
1546.46
1510.29
1509.51
1530.15
1575.02
1559.01
1501.78
1491.22
1483.69
1512.9
1580.41
1561.6
1518.71
1513.18
1497.01
1538.84
1608.03
1552.83
1558.17
1583.28
1502.61
1592.42
1656.37
1611.72
1488.7
1604.15
1609.15
1728.06
1696.66
1646.93
1510.61
1788.79
1891.23
1940.88
1658.12
1658.86
1731.94
1496.75
1715.26
1826.72
1290.86
1462.54
1266.74
948.973
1034.17
1300.24
833.585
926.572
879.77
741.648
750.901
934.494
560.909
572.09
672.053
603.034
604.492
733.852
458.979
400.194
468.249
562.322
553.604
584.934
408.181
361.447
422.365
507.236
529.904
510.667
)
;
    }
    breakwater_top_surface
    {
        type            fixedFluxPressure;
        gradient        uniform 0;
        value           nonuniform List<scalar> 
36
(
977.481
972.002
958.921
939.295
916.713
879.972
995.205
1000.62
991.442
964.65
917.495
958.834
1042.12
1039.87
1033.59
1033.63
1036.14
1037.43
1086.54
1087.5
1086.09
1083.18
1082.49
1082.86
1207.43
1223.67
1223.57
1198.29
1191.56
1226.04
2588.94
2348.3
2377.65
2692.68
2739.35
2306.34
)
;
    }
    breakwater_left_surface
    {
        type            fixedFluxPressure;
        gradient        uniform 0;
        value           nonuniform List<scalar> 
24
(
16513.7
16486.7
16494.8
16503.7
16482.6
16487.2
15486.4
15206.4
15346.6
15426.3
15163.2
15336.7
17625
17514.7
17451.5
17539.3
17416.4
17380.1
17208
16240.6
16572.4
17017.8
16712.3
16421.3
)
;
    }
    breakwater_right_surface
    {
        type            fixedFluxPressure;
        gradient        uniform 0;
        value           nonuniform List<scalar> 
24
(
408.181
361.447
422.365
507.236
529.904
510.667
317.081
282.276
246.59
259.004
271.227
272.426
206.144
213.76
220.715
309.302
350.582
279.966
319
274.562
246.932
351.925
363.028
371.324
)
;
    }
    water_front_surface
    {
        type            fixedFluxPressure;
        gradient        uniform 0;
        value           nonuniform List<scalar> 
186
(
9882.85
10530.8
12558.3
14034.3
15255.4
15881.3
16269
16523.1
16490.9
17182.3
16338.1
16513.7
4182.92
4926
6793.38
9459.43
11734.9
13428.2
14054.6
15232.2
16371
16651
12338.7
15486.4
6.66805
4.77806
-3.05594
-17.8222
-52.0496
-131.099
-204.713
-50.0159
382.529
2721.32
4753.73
17625
16.5898
12.1842
9.25574
-3.09104
-29.0821
-82.3714
-176.354
-173.917
-22.2038
90.5158
171.877
17208
1577.66
1575.02
1580.41
1608.03
1656.37
1696.66
1658.12
1290.86
833.585
560.909
458.979
408.181
1158.65
1075.63
1068.9
1463.26
1867.32
1911.5
1899.82
1318.68
617.993
449.827
355.148
317.081
1.13262
3.48462
130.899
112.623
88.8365
44.9541
112.023
361.57
764.225
600.48
220.243
206.144
1.41896
1.74187
-0.28261
-3.5381
-8.7937
-11.9536
-4.90587
3.82452
185.595
438.74
219.54
319
4.52569
5.84054
1.48872
-4.01258
-7.90725
-13.9938
-8.94474
-8.84624
-11.1271
-20.0625
-17.2278
-15.5217
-37.4447
-27.2264
-18.01
-68.0619
-42.6325
-20.6978
-100.718
-51.2618
-19.638
-89.8718
-32.6256
-10.2152
-31.5034
9.42894
2.4401
36.3119
32.1589
10.3472
80.6768
44.6324
16.0672
5614
2.04993
-2.15566
977.481
2.99848
-1.09006
995.205
6.1768
0.327974
1042.12
7.15407
2.00308
1086.54
19.264
3.28538
1207.43
186.134
3.30582
2588.94
454.948
3.99724
1.14655
-0.0292825
-0.983878
0.754984
-0.579398
-1.80212
-1.19658
-1.242
-2.16634
-2.08693
-1.15594
-2.68231
-2.08788
0.164978
-3.48856
-0.452087
1.84417
-4.43192
-2.22337
3.89642
-6.42067
40.063
8.03649
-11.4884
348.414
243.427
-12.7177
457.053
315.179
1.85242
151.601
92.8519
7.20963
367.935
66.0475
-1.95306
)
;
    }
    water_back_surface
    {
        type            fixedFluxPressure;
        gradient        uniform 0;
        value           nonuniform List<scalar> 
186
(
9911.77
10601.7
12604.4
14081.4
15230.2
15872.1
16261.4
16513.6
16475.3
17188.4
16362.5
16487.2
4206.78
5003.94
6932.13
9571.82
11785.1
13431.1
14010.4
15125.5
16376.9
16704.6
12511.5
15336.7
6.25038
4.88367
-2.81323
-18.1599
-52.1395
-130.111
-204.578
-51.6451
385.021
2738.11
5079.07
17380.1
14.6581
11.8371
8.84676
-3.62818
-29.8028
-82.547
-176.804
-174.709
-22.1235
91.4307
164.407
16421.3
1530.15
1512.9
1538.84
1592.42
1728.06
1940.88
1826.72
1300.24
934.494
733.852
584.934
510.667
938.326
624.039
795.812
1158.62
1590.04
1990.81
2087.27
1563.47
579.821
379.379
280.703
272.426
1.67798
3.89951
6.95442
12.2291
20.9089
206.016
1894.04
2059.61
1223.63
225.597
201.431
279.966
2.21115
2.67617
5.60041
2.45983
-5.59199
-13.5813
-10.8813
635.209
938.675
312.724
109.534
371.324
1.70797
1.47184
0.601095
-4.27238
-7.93667
-14.2533
-8.82452
-8.75174
-11.1946
-19.8618
-17.2069
-15.4763
-37.7102
-27.3568
-17.9885
-68.1212
-42.6205
-20.6079
-101.555
-51.9967
-19.7583
-91.4834
-34.0165
-9.72971
-30.0028
10.5463
1.65698
32.7392
28.3264
10.4692
75.1907
42.7077
16.6616
4569.36
2.85706
1.49582
879.972
1.84149
-1.24787
958.834
5.15131
1.00869
1037.43
7.23681
2.77034
1082.86
19.6348
3.68135
1226.04
168.164
3.69575
2306.34
399.062
4.29098
1.88106
0.136265
-1.17076
1.20376
-0.464457
-1.93712
0.435471
-1.076
-2.34611
-0.0593106
-1.66356
-2.85703
-2.33583
-1.45982
-3.43222
-7.88716
-3.64351
-4.64826
-15.5898
-10.5229
-6.70215
127.275
-22.7005
-13.0439
506.534
19.0938
-16.7994
221.567
36.2526
-12.1824
45.0681
11.3012
-6.40262
290.02
12.1601
-3.05919
)
;
    }
    water_left_surface
    {
        type            fixedFluxPressure;
        gradient        uniform 0;
        value           nonuniform List<scalar> 
42
(
9882.85
9839.27
9857.38
9883.79
9884.02
9911.77
4182.92
4180.19
4183.32
4222.06
4243.08
4206.78
6.66805
6.62441
6.47907
6.48682
6.66202
6.25038
16.5898
15.1419
14.8375
15.785
16.3815
14.6581
4.52569
3.58042
3.41551
4.18277
4.34959
1.70797
5.84054
2.93245
2.2016
5.91265
5.33887
1.47184
1.48872
-2.82227
-5.26317
1.1774
1.03454
0.601095
)
;
    }
    water_right_surface
    {
        type            fixedFluxPressure;
        gradient        uniform 0;
        value           nonuniform List<scalar> 
42
(
1577.66
1568.46
1546.46
1510.29
1509.51
1530.15
1158.65
1097.83
890.034
817.583
925.865
938.326
1.13262
0.406779
-1.21821
-3.3777
-0.667215
1.67798
1.41896
1.77083
1.17539
0.295935
1.06569
2.21115
1.14655
1.46392
3.21898
3.04646
2.41562
1.88106
-0.0292825
0.0329767
0.833929
0.194729
0.165419
0.136265
-0.983878
-1.09968
-0.764943
-1.01891
-1.1843
-1.17076
)
;
    }
    water_top_surface
    {
        type            totalPressure;
        rho             rho;
        psi             none;
        gamma           1;
        p0              uniform 0;
        value           nonuniform List<scalar> 
180
(
0
-1.67792
-2.52441
-0.125694
0
0
-15.0372
-14.6814
-14.4714
-14.9516
-15.3289
-14.9714
-11.2321
-11.2759
-11.3012
-11.2988
-11.3301
-11.3834
-13.8755
-13.9086
-13.9119
-13.8801
-13.9646
-13.841
-14.1638
-14.2139
-14.2023
-14.1812
-14.1981
-14.1615
-13.9436
-13.8715
-13.8142
-13.8798
-13.8795
-13.6851
-10.8058
-11.1508
-11.1158
-11.0504
-10.9463
-10.7519
-0.492014
-4.19794
-3.36157
-1.62392
-1.23727
-3.99308
0
-0.101899
0
0
0
-0.293388
0
0
0
0
0
0
0
0
0
0
0
0
0
0
0
0
0
0
0
0
0
0
0
0
0
0
0
0
0
0
0
0
0
0
0
0
0
0
0
0
0
0
0
0
0
0
0
0
0
0
0
0
0
0
-1.37799
-1.63486
-0.711443
-1.55934
-2.04381
-1.75938
-2.5913
-2.80154
-2.94981
-3.03784
-3.02984
-2.76066
-2.35628
-2.73086
-2.96034
-3.24885
-3.25114
-3.05151
-2.20197
-2.76281
-3.49386
-4.01287
-3.87524
-3.32156
-2.1169
-3.24809
-4.38636
-5.04047
-4.58854
-3.43295
-2.97721
-5.6368
-7.07062
-7.20396
-6.00958
-3.88679
-4.79711
-10.5247
-15.3027
-10.2331
-6.08845
-2.94439
-5.76547
-12.1882
-0.106337
-8.38793
-3.13195
-0.886462
-0.0188584
0
0
0
0
0
0
0
0
0
0
0
0
0
0
0
0
0
0
0
0
0
0
0
)
;
    }
}


// ************************************************************************* //
