/*--------------------------------*- C++ -*----------------------------------*\
| =========                 |                                                 |
| \\      /  F ield         | OpenFOAM: The Open Source CFD Toolbox           |
|  \\    /   O peration     | Version:  v1612+                                |
|   \\  /    A nd           | Web:      www.OpenFOAM.com                      |
|    \\/     M anipulation  |                                                 |
\*---------------------------------------------------------------------------*/
FoamFile
{
    version     2.0;
    format      ascii;
    class       volScalarField;
    location    "0.8";
    object      p_rgh;
}
// * * * * * * * * * * * * * * * * * * * * * * * * * * * * * * * * * * * * * //

dimensions      [1 -1 -2 0 0 0 0];

internalField   nonuniform List<scalar> 
320
(
-9800.21
-9800.21
-9800.22
-9800.21
0.00282907
0.00245771
0.00242963
-0.000855185
-0.00162367
-0.00140189
-0.00136848
0.000516352
-0.00121296
0.00329041
0.000320221
0.00151261
-9800.17
-9800.18
-9800.19
-9800.17
-9800.15
-9800.17
-9800.17
-9800.19
-9800.12
-9800.2
-9800.18
-9800.21
-9800.22
-9800.22
-9800.22
-9800.2
-9800.21
-9800.22
-9800.21
-9800.22
-9800.21
-9800.21
-9800.21
-9800.21
-9800.21
-9800.21
-9800.21
-9800.21
-9800.22
-9800.22
-9800.21
-9800.21
-9800.21
-9800.21
-9800.21
-9800.21
-9800.21
-9800.21
-9800.21
-9800.21
0.00236352
-0.00337936
0.00102424
0.00142331
0.00304066
0.00196491
-0.000172869
0.00197589
0.00323321
0.000727981
0.00214642
0.00103019
0.00201343
-0.00199861
-0.000544609
-0.000658147
0.000354833
-0.00119349
-0.000368026
-0.00286262
-9800.21
-9800.15
-9800.21
-9800.21
-9800.21
-9800.21
-9800.18
-9800.21
-9800.21
-9800.17
-9800.2
-9800.18
-9800.17
-9800.19
-9800.21
-9800.15
-9800.17
-9800.17
-9800.16
-9800.14
-9800.21
-9800.21
-9800.21
-9800.21
-9800.21
-9800.21
-9800.2
-9800.21
-9800.22
-9800.22
-9800.22
-9800.22
-9800.22
-9800.21
-9800.21
-9800.2
-9800.2
-9800.2
-9800.21
-9800.2
-9800.21
-9800.21
-9800.21
-9800.21
-9800.21
-9800.21
-9800.21
-9800.21
-9800.21
-9800.21
-9800.21
-9800.21
-9800.21
-9800.21
-9800.21
-9800.2
-9800.2
-9800.2
-9800.21
-9800.21
-9800.21
-9800.21
-9800.21
-9800.21
-9800.21
-9800.21
-9800.21
-9800.21
-9800.21
-9800.21
-9800.21
-9800.21
-9800.21
-9800.21
-9800.21
-9800.21
-9800.21
-9800.21
-9800.21
-9800.21
-9800.21
-9800.21
-9800.21
-9800.21
-9800.21
-9800.21
-9800.21
-9800.21
-9800.21
-9800.21
-9800.2
-9800.2
-9800.2
-9800.21
-9800.21
-9800.21
-0.00165117
-0.00101104
-0.000369458
-0.0014546
-0.00103148
-9.7132e-05
0.00385393
0.00120155
-0.00337047
-0.000751409
-0.00131636
0.001708
-0.000264974
-0.00174062
-0.00539016
0.000392061
-0.00404965
-0.00112048
0.00220197
-0.00136083
-0.00241342
0.00123121
-0.00322791
-0.00231162
-0.00344992
0.00293043
-0.00047155
-0.00109779
-9800.14
-9800.16
-9800.18
-9800.15
-9800.17
-9800.16
-9800.17
-9800.19
-9800.17
-9800.17
-9800.17
-9800.18
-9800.17
-9800.17
-9800.13
-9800.19
-9800.14
-9800.12
-9800.17
-9800.17
-9800.16
-9800.18
-9800.17
-9800.17
-9800.13
-9800.17
-9800.12
-9800.13
-9800.2
-9800.21
-9800.21
-9800.2
-9800.2
-9800.2
-9800.21
-9800.21
-9800.2
-9800.2
-9800.22
-9800.22
-9800.2
-9800.2
-9800.21
-9800.22
-9800.2
-9800.21
-9800.22
-9800.2
-9800.2
-9800.21
-9800.2
-9800.2
-9800.2
-9800.22
-9800.21
-9800.2
-9800.21
-9800.21
-9800.21
-9800.21
-9800.2
-9800.21
-9800.21
-9800.21
-9800.2
-9800.21
-9800.21
-9800.22
-9800.2
-9800.2
-9800.2
-9800.21
-9800.2
-9800.21
-9800.21
-9800.2
-9800.2
-9800.21
-9800.2
-9800.2
-9800.21
-9800.22
-9800.21
-9800.21
-9800.21
-9800.21
-9800.21
-9800.21
-9800.21
-9800.21
-9800.21
-9800.21
-9800.21
-9800.21
-9800.21
-9800.21
-9800.21
-9800.21
-9800.21
-9800.21
-9800.2
-9800.21
-9800.21
-9800.2
-9800.2
-9800.21
-9800.2
-9800.2
-9800.21
-9800.21
-9800.21
-9800.21
0.00386805
0.00233275
0.00349872
0.000447289
-9800.22
-9800.22
-9800.19
-9800.2
)
;

boundaryField
{
    top_fluid_surface
    {
        type            totalPressure;
        rho             rho;
        psi             none;
        gamma           1;
        p0              uniform 0;
        value           nonuniform List<scalar> 
64
(
0
0
0
-8.42741e-11
-1.52261e-10
-3.33028e-10
-1.49729e-10
0
-1.94735e-09
0
0
0
0
-2.97956e-09
0
0
0
0
-5.77372e-11
0
0
0
0
0
0
-2.04409e-10
0
-5.37746e-10
0
-2.20802e-10
-3.22195e-10
-3.06521e-09
-1.14555e-09
-7.681e-10
-2.96099e-11
-1.46769e-09
-2.87898e-10
-2.60813e-13
0
0
-2.12926e-09
-3.15543e-10
-4.38983e-10
0
-9.07636e-11
-8.98263e-10
-8.19496e-09
0
-3.24751e-09
-6.79717e-10
0
-5.50236e-10
-1.74953e-09
0
-9.87281e-10
-1.21932e-09
-3.65038e-09
0
-4.55268e-10
-2.24571e-11
0
0
0
0
)
;
    }
    bottom_fluid_surface
    {
        type            fixedFluxPressure;
        gradient        uniform 0;
        value           nonuniform List<scalar> 
64
(
-9800.21
-9800.21
-9800.21
-9800.21
-9800.21
-9800.21
-9800.21
-9800.21
-9800.21
-9800.21
-9800.21
-9800.21
-9800.21
-9800.21
-9800.21
-9800.21
-9800.21
-9800.21
-9800.21
-9800.21
-9800.21
-9800.21
-9800.21
-9800.21
-9800.21
-9800.21
-9800.21
-9800.21
-9800.21
-9800.21
-9800.2
-9800.2
-9800.2
-9800.21
-9800.21
-9800.21
-9800.21
-9800.21
-9800.21
-9800.21
-9800.21
-9800.21
-9800.21
-9800.21
-9800.21
-9800.21
-9800.21
-9800.21
-9800.21
-9800.21
-9800.21
-9800.21
-9800.2
-9800.21
-9800.21
-9800.2
-9800.2
-9800.21
-9800.2
-9800.2
-9800.21
-9800.21
-9800.21
-9800.21
)
;
    }
    lateral_surface_1
    {
        type            fixedFluxPressure;
        gradient        uniform 0;
        value           nonuniform List<scalar> 
40
(
-0.00165117
-0.00101104
-0.000369458
-0.0014546
-0.00103148
-9.7132e-05
0.00385393
-0.00109779
-9800.14
-9800.16
-9800.18
-9800.15
-9800.17
-9800.16
-9800.17
-9800.13
-9800.2
-9800.21
-9800.21
-9800.2
-9800.2
-9800.2
-9800.21
-9800.2
-9800.21
-9800.21
-9800.21
-9800.21
-9800.2
-9800.21
-9800.21
-9800.21
-9800.21
-9800.21
-9800.21
-9800.21
-9800.21
-9800.21
-9800.21
-9800.21
)
;
    }
    lateral_surface_2
    {
        type            fixedFluxPressure;
        gradient        uniform 0;
        value           nonuniform List<scalar> 
40
(
-0.00174062
-0.00539016
0.000392061
-0.00404965
-0.00112048
0.00220197
-0.00136083
-0.00241342
-9800.17
-9800.13
-9800.19
-9800.14
-9800.12
-9800.17
-9800.17
-9800.16
-9800.2
-9800.21
-9800.22
-9800.2
-9800.21
-9800.22
-9800.2
-9800.2
-9800.2
-9800.2
-9800.21
-9800.2
-9800.21
-9800.21
-9800.2
-9800.2
-9800.21
-9800.21
-9800.21
-9800.2
-9800.21
-9800.21
-9800.2
-9800.2
)
;
    }
    lateral_surface_3
    {
        type            fixedFluxPressure;
        gradient        uniform 0;
        value           nonuniform List<scalar> 
40
(
0.00385393
0.00120155
-0.00337047
-0.000751409
-0.00131636
0.001708
-0.000264974
-0.00174062
-9800.17
-9800.19
-9800.17
-9800.17
-9800.17
-9800.18
-9800.17
-9800.17
-9800.21
-9800.21
-9800.2
-9800.2
-9800.22
-9800.22
-9800.2
-9800.2
-9800.21
-9800.21
-9800.2
-9800.21
-9800.21
-9800.22
-9800.2
-9800.2
-9800.21
-9800.21
-9800.21
-9800.21
-9800.21
-9800.21
-9800.21
-9800.21
)
;
    }
    lateral_surface_4
    {
        type            fixedFluxPressure;
        gradient        uniform 0;
        value           nonuniform List<scalar> 
40
(
-0.00241342
0.00123121
-0.00322791
-0.00231162
-0.00344992
0.00293043
-0.00047155
-0.00109779
-9800.16
-9800.18
-9800.17
-9800.17
-9800.13
-9800.17
-9800.12
-9800.13
-9800.2
-9800.21
-9800.2
-9800.2
-9800.2
-9800.22
-9800.21
-9800.2
-9800.2
-9800.21
-9800.2
-9800.2
-9800.21
-9800.22
-9800.21
-9800.21
-9800.2
-9800.21
-9800.2
-9800.2
-9800.21
-9800.21
-9800.21
-9800.21
)
;
    }
}


// ************************************************************************* //
