/*--------------------------------*- C++ -*----------------------------------*\
| =========                 |                                                 |
| \\      /  F ield         | OpenFOAM: The Open Source CFD Toolbox           |
|  \\    /   O peration     | Version:  v1612+                                |
|   \\  /    A nd           | Web:      www.OpenFOAM.com                      |
|    \\/     M anipulation  |                                                 |
\*---------------------------------------------------------------------------*/
FoamFile
{
    version     2.0;
    format      ascii;
    class       surfaceScalarField;
    location    "0.8";
    object      phi;
}
// * * * * * * * * * * * * * * * * * * * * * * * * * * * * * * * * * * * * * //

dimensions      [0 3 -1 0 0 0 0];

internalField   nonuniform List<scalar> 
816
(
-4.45874e-07
-1.18442e-07
5.75306e-08
-1.55623e-07
-8.79943e-07
1.54253e-06
-3.71688e-07
1.17073e-07
-8.99979e-07
-9.15488e-07
1.62931e-06
2.24736e-07
-6.83302e-07
-1.36022e-06
-1.47504e-06
3.18045e-06
-6.86615e-07
-1.32771e-06
-1.82653e-06
3.70727e-06
4.13056e-05
-7.29564e-05
-8.86669e-06
-0.000130745
4.56055e-05
-5.25882e-06
-9.09547e-06
-6.31299e-05
6.65864e-06
-2.75424e-05
6.71171e-06
-3.29481e-05
-2.6736e-05
-2.41707e-05
-1.67736e-06
1.63823e-06
2.28962e-05
-1.35387e-05
-4.50917e-06
1.70907e-05
1.84615e-05
-4.51345e-05
1.37139e-05
6.53547e-05
-1.74043e-05
-3.72819e-05
-9.73821e-07
-7.77764e-05
8.89337e-05
-9.59012e-05
-1.15476e-05
-5.9898e-05
8.15618e-05
9.06179e-05
1.88936e-05
-2.67935e-05
-9.14725e-05
1.27585e-05
-1.90923e-07
-0.000117313
6.33422e-05
-4.79255e-06
-1.48349e-05
-0.000141131
0.00012645
1.0569e-06
-4.61033e-05
-8.52909e-05
-1.59306e-07
-3.44146e-06
-5.09489e-06
-1.45665e-06
3.96514e-07
-2.84764e-06
-4.99368e-06
-2.01563e-06
6.89901e-07
7.66644e-07
1.38662e-06
8.75937e-07
-4.92323e-07
-1.536e-06
-1.82632e-07
-1.92227e-06
2.73976e-06
-4.90777e-06
-2.98084e-06
-2.21033e-06
1.90231e-06
2.87749e-06
3.34533e-06
5.67878e-07
-3.99641e-08
2.41789e-07
-6.34188e-08
-3.34865e-06
5.41332e-06
-6.35693e-06
-4.06027e-06
-5.37921e-06
3.62242e-06
4.33758e-06
2.78594e-06
1.86938e-06
1.36577e-06
3.79233e-06
5.47694e-07
-1.94039e-06
2.45299e-06
-1.4338e-06
-6.02391e-06
-4.97254e-06
9.19902e-07
1.32696e-06
-1.38597e-06
-4.11008e-06
1.28825e-07
-1.85094e-06
-2.20708e-06
-1.10187e-06
-1.30335e-06
-2.30314e-06
-1.13371e-06
1.16083e-08
8.29101e-07
5.00516e-08
-8.09715e-07
-1.03747e-07
-4.63026e-07
-5.06283e-07
-1.10098e-06
-1.78886e-06
-8.78789e-07
5.75633e-07
1.81972e-06
3.35536e-07
-4.77158e-07
6.15196e-07
-5.21336e-07
-9.01695e-07
-1.12479e-06
-1.98726e-06
-9.96568e-07
6.7887e-07
1.46106e-06
3.36087e-07
-8.14136e-07
8.40021e-07
5.12502e-07
-1.47895e-06
-7.35631e-07
-2.91482e-06
-1.67826e-06
5.83505e-07
-7.58431e-07
-1.08066e-06
-1.39134e-07
-2.19814e-07
1.05006e-07
-1.8497e-07
-4.36121e-07
-2.45876e-07
6.37187e-08
-4.52892e-07
-4.07038e-07
2.8628e-07
-5.93207e-07
-8.71876e-07
-5.03282e-07
-3.31904e-07
-9.26739e-07
-5.19757e-07
1.53023e-07
-1.16545e-06
-4.26733e-07
-6.56448e-07
-7.95748e-07
-5.77609e-07
-7.05979e-07
7.74338e-08
1.73181e-07
-3.54498e-07
1.29439e-07
-2.44555e-07
-4.47571e-07
-1.46382e-07
-1.17711e-06
-7.56722e-07
-4.27271e-07
6.81464e-07
4.16732e-08
-4.4976e-07
3.86236e-07
2.45664e-07
-8.22842e-07
-1.67233e-07
-8.33395e-07
-9.22713e-07
-5.69509e-07
4.60061e-07
2.28943e-07
-3.11036e-07
2.54007e-07
7.16743e-07
-6.67578e-07
6.30194e-08
-4.7041e-07
-1.07749e-06
-8.22215e-07
-3.98413e-07
-7.71727e-07
1.19884e-07
4.10919e-05
-0.000118257
-5.92718e-06
-5.23873e-05
0.000100977
5.26563e-06
-4.76914e-05
7.63597e-05
-5.83969e-06
-8.04149e-05
6.30949e-05
1.10872e-06
-6.08676e-05
-1.25015e-05
-1.09583e-06
-4.37145e-05
6.86007e-06
-2.24181e-05
5.39754e-06
-7.82005e-05
6.15529e-06
2.62848e-06
-1.353e-05
-2.86031e-05
1.28105e-06
-3.91167e-05
-0.000136654
1.00739e-06
1.64841e-05
1.85247e-05
-1.19293e-05
-1.8742e-05
-0.000170614
-4.86671e-05
4.99627e-06
-5.37831e-05
-1.41133e-05
7.26707e-06
-0.000137745
-3.56103e-05
3.49665e-06
-7.99533e-05
-2.79103e-05
-4.02286e-07
7.79971e-06
7.19586e-06
-6.63023e-06
-3.95377e-05
-1.18894e-05
2.69831e-05
8.92561e-06
-7.64613e-05
-1.34616e-05
5.15889e-06
-7.85599e-05
-1.26488e-05
-1.00997e-06
-9.85289e-05
-7.80112e-05
8.37054e-06
7.47983e-06
8.29981e-06
-2.89285e-05
-3.04493e-05
1.80191e-06
-5.49339e-06
5.11713e-07
-1.75243e-06
1.32792e-06
-2.172e-07
-8.34753e-08
-1.06804e-06
-2.4404e-07
-2.19101e-06
-6.75342e-07
1.31191e-08
6.08106e-07
-1.47987e-06
3.71248e-07
1.42162e-06
3.15851e-08
7.39343e-08
1.95271e-06
8.52995e-07
1.80119e-07
1.20463e-06
-1.07785e-06
-7.48997e-07
9.24333e-07
-3.47684e-06
-7.56829e-07
9.94022e-07
2.01428e-06
-2.98712e-06
-4.59967e-06
-1.1201e-06
-3.7476e-06
-3.3515e-06
2.68061e-06
3.04288e-06
2.02046e-06
3.81463e-06
-3.71303e-07
3.77256e-06
1.73854e-08
-3.34051e-06
3.57287e-06
-1.44663e-06
2.98757e-08
-2.65594e-06
-6.23023e-09
-9.92539e-07
1.87247e-06
8.18828e-07
2.01163e-06
5.2684e-06
9.64408e-07
2.69345e-06
3.23127e-07
-1.97385e-06
3.57809e-07
-3.65268e-06
-1.31315e-06
3.42073e-06
-4.09043e-07
2.39933e-06
6.4666e-07
-2.2574e-06
5.20654e-07
-6.87919e-07
3.2578e-07
-4.04425e-07
3.19749e-07
-4.89486e-07
-6.2707e-07
5.78416e-09
-2.64606e-07
-8.15619e-07
3.72303e-07
-1.14859e-07
-1.93562e-07
-7.89674e-07
1.99267e-07
6.51884e-07
6.69926e-07
-4.34952e-07
9.90881e-07
-2.18354e-07
6.41216e-08
3.25426e-07
-1.27656e-07
3.02128e-07
5.55484e-07
-7.46528e-07
3.45504e-08
5.85262e-07
1.0186e-06
-6.41781e-07
-1.80185e-06
-9.89338e-07
-1.13085e-06
-4.27425e-07
1.5267e-06
4.71184e-07
1.05948e-06
1.87302e-06
-4.47713e-07
3.26336e-07
3.83213e-07
-6.23004e-07
-2.93432e-08
-8.58329e-07
1.37387e-07
-1.48521e-07
2.27707e-08
-5.96728e-07
6.8965e-07
-2.68674e-08
1.06359e-06
1.76232e-08
3.17246e-07
1.18291e-06
-3.01186e-07
-1.22101e-07
1.26885e-08
-8.86352e-07
-1.47265e-07
1.58385e-06
7.83013e-07
1.10501e-06
7.80386e-08
3.83397e-07
6.03383e-07
-6.19399e-07
1.13646e-07
-1.67619e-07
2.30188e-07
-2.02662e-07
-3.47717e-07
-8.75123e-08
-9.21786e-08
-4.41989e-07
1.69938e-08
-1.0505e-07
3.70142e-08
-5.13524e-07
-6.54793e-08
5.16394e-07
2.56738e-07
-2.09686e-07
2.7077e-07
4.10514e-08
-2.0221e-07
7.21297e-08
-1.94691e-07
-8.52222e-08
1.9015e-07
-5.02004e-07
-3.86243e-08
6.99338e-08
5.17394e-07
-5.10464e-07
-3.95353e-07
-3.55738e-07
-5.74067e-07
-1.94754e-07
4.57182e-07
3.20174e-07
6.07656e-07
4.93656e-07
-2.40437e-07
4.3812e-07
9.11541e-08
-4.46896e-07
8.559e-08
-2.42572e-07
-2.39161e-08
-5.18005e-08
4.84337e-08
-3.20932e-07
4.40678e-07
1.28472e-07
2.72294e-07
3.13789e-07
2.82073e-07
4.41509e-07
-7.0309e-08
-1.86971e-07
7.08745e-09
-5.92978e-07
-8.63812e-08
5.08425e-07
2.09619e-07
3.431e-07
7.90804e-08
-2.07605e-08
-3.14319e-08
-2.07802e-07
2.62846e-08
-2.16345e-07
-2.13835e-07
4.56985e-08
-2.58827e-07
9.42424e-08
-3.4969e-07
-4.43019e-07
-1.82603e-07
-4.48114e-07
1.40942e-07
-5.74689e-07
-1.88375e-07
-2.769e-07
-2.36299e-07
-1.15598e-07
1.35e-07
-1.73294e-07
-2.54992e-07
-2.62512e-07
-5.45679e-07
-3.10377e-07
2.69517e-07
-3.26709e-08
-3.90386e-07
1.04962e-07
-4.45571e-07
-3.33975e-07
-4.75368e-07
2.1037e-07
-2.30524e-08
-2.65046e-07
3.04061e-07
-4.66615e-07
-1.72292e-07
-5.50649e-07
-1.80009e-07
-4.39508e-07
3.78107e-07
-3.25335e-07
-1.1326e-07
1.6775e-07
-1.78078e-07
2.65182e-08
-2.00128e-07
4.28207e-08
-9.33224e-09
-3.28622e-07
1.86543e-07
9.57994e-08
-1.91497e-07
-5.57326e-08
-2.40509e-07
-1.31144e-07
-1.35534e-07
-2.16846e-07
-1.86976e-07
9.21485e-08
-8.79203e-08
-1.90479e-07
-3.05102e-07
2.56214e-08
-4.78629e-08
2.55857e-07
-1.87947e-07
1.08762e-07
-2.39363e-07
-7.04209e-08
-8.4422e-08
5.99254e-08
-2.06101e-07
1.29377e-07
9.95075e-08
-2.68975e-08
2.05157e-07
-1.23595e-07
-5.50802e-08
-2.71751e-07
-4.25676e-09
2.58717e-08
2.46011e-08
-1.4978e-09
7.06666e-05
-1.28669e-05
2.74545e-06
6.7251e-05
9.26653e-06
6.1894e-05
-2.19473e-06
4.71864e-05
3.22546e-06
7.09957e-05
-5.56458e-06
5.05625e-05
-8.82788e-06
-2.50715e-05
9.07098e-06
-6.04753e-05
-6.92797e-06
-4.42921e-06
-9.98392e-07
1.33061e-05
6.43929e-06
5.13125e-06
9.51873e-06
-9.01762e-05
-7.47957e-06
-9.16274e-05
4.39195e-06
-1.59641e-05
3.62714e-06
4.51122e-05
8.58746e-06
-2.89052e-05
-1.0688e-05
2.75669e-05
-2.19033e-06
-7.22734e-06
6.19829e-06
-8.04888e-05
-1.63775e-06
-6.03421e-05
2.78984e-06
4.43133e-05
4.94729e-06
-3.42424e-05
-1.17422e-05
2.60764e-06
-7.84222e-06
1.87191e-05
1.56243e-06
6.6775e-05
8.53245e-06
-3.63495e-05
9.93659e-07
-3.44327e-05
9.06683e-06
-9.10624e-06
1.51426e-07
3.81826e-06
2.65058e-06
2.84376e-06
2.32124e-06
3.38394e-07
6.36619e-07
1.41908e-06
1.69837e-06
-1.27167e-06
6.49637e-07
-4.33625e-06
-2.87891e-06
4.35702e-06
3.83977e-07
4.84719e-07
-3.24974e-06
-1.51961e-06
1.21376e-06
-1.44223e-06
1.34273e-06
1.04596e-07
1.76794e-06
-9.95054e-07
-4.29193e-06
-5.70819e-07
2.75989e-06
2.35594e-07
2.49877e-06
2.81968e-06
2.3708e-06
-2.16361e-06
-2.30317e-06
-2.02849e-06
1.58877e-06
1.54105e-06
8.06997e-07
1.19819e-06
-1.52871e-06
7.30883e-07
2.33563e-06
4.69155e-06
2.01502e-06
-5.07741e-07
-4.32706e-06
-2.95663e-06
-2.43825e-07
-3.20209e-06
2.20038e-06
-8.77041e-07
2.462e-06
7.27637e-07
-1.39302e-06
5.58183e-06
8.98891e-07
-5.34119e-06
-3.35974e-07
1.82834e-06
1.23621e-06
5.4474e-07
9.96542e-07
2.39181e-07
3.14564e-07
4.95278e-07
6.0825e-07
8.02449e-07
1.27575e-07
1.45797e-07
-1.59856e-06
-1.06133e-07
6.25698e-07
-1.23288e-06
-1.47374e-06
-6.06805e-07
3.6174e-07
2.81846e-07
3.30699e-07
1.95437e-07
1.12266e-06
-1.41017e-06
-1.66198e-06
-7.9743e-07
1.16082e-06
6.33022e-07
1.06905e-06
7.83114e-07
1.09289e-06
-1.09002e-07
-9.30076e-07
4.18662e-07
6.13015e-07
6.49693e-09
5.94195e-07
-9.5419e-07
-4.26822e-07
-1.6183e-07
9.55331e-07
9.77863e-07
8.76884e-07
-7.92517e-07
-1.86347e-06
-6.01089e-07
-4.09355e-07
4.18647e-07
8.84003e-07
9.06474e-07
1.09232e-06
5.26056e-07
-2.25515e-07
1.10647e-06
7.02569e-07
-2.40589e-06
-4.81559e-08
9.43247e-07
3.97355e-07
4.15256e-07
3.43756e-07
2.81295e-07
1.01672e-07
2.57632e-07
1.71595e-07
3.10918e-07
9.22032e-08
-3.88366e-07
-4.16084e-07
2.44085e-07
-2.55599e-08
-5.35501e-07
-4.65966e-07
-3.76007e-07
2.37701e-07
-3.14892e-07
7.21539e-08
-6.17254e-08
3.73111e-07
-7.45302e-07
-4.55608e-07
-3.81743e-07
4.40716e-07
2.47763e-07
4.3955e-07
4.17766e-07
3.48296e-07
-7.32727e-08
-1.11173e-07
5.87458e-08
2.61059e-07
1.01351e-07
1.00897e-07
-2.44844e-07
-1.08175e-07
6.96038e-09
3.87609e-07
6.35905e-07
2.52121e-07
-2.89694e-07
-4.87141e-07
-4.27142e-07
4.72327e-08
2.6681e-08
3.67466e-07
2.51695e-07
2.83654e-07
2.86025e-07
-5.01268e-08
8.22967e-07
1.21523e-07
-6.32474e-07
6.3505e-08
3.56053e-07
2.92354e-07
2.04194e-07
1.6072e-07
2.27762e-07
-1.77363e-08
-5.34207e-08
-4.3428e-07
-2.48724e-07
-3.01046e-07
-1.42176e-07
-5.05096e-07
-2.56087e-07
1.81508e-07
2.20814e-07
5.66194e-08
1.2988e-07
-7.43248e-09
-1.96849e-07
-1.43105e-08
2.38515e-07
-1.15408e-07
-9.04909e-08
1.58646e-07
1.76829e-07
1.57451e-07
2.72072e-07
2.01392e-05
-5.20704e-06
-4.31055e-06
-4.82097e-05
-5.21564e-06
-9.51811e-06
-7.19839e-06
-1.18452e-05
-3.40486e-07
-6.36227e-07
-4.23446e-07
1.49558e-06
)
;

boundaryField
{
    top_fluid_surface
    {
        type            calculated;
        value           nonuniform List<scalar> 
64
(
0.000126074
0.000110343
7.57718e-05
-2.89096e-05
-4.08947e-05
-3.15078e-05
-3.63056e-05
5.00754e-05
-8.89949e-05
0.000128324
4.9594e-05
4.98345e-05
8.78475e-05
-0.000143255
3.7439e-05
4.42848e-05
0.000110142
5.81445e-05
-1.70099e-05
8.55637e-05
0.000131296
4.95699e-05
7.95725e-05
1.50298e-05
6.43039e-05
-3.60879e-05
3.32295e-06
-4.48083e-05
5.87287e-07
-4.40394e-05
-3.65459e-05
-0.000141462
-9.20717e-05
-6.15458e-05
-1.95041e-05
-0.000102927
-5.93568e-05
-1.6523e-05
9.00725e-05
4.87484e-05
-0.000133065
-3.82491e-05
-3.94283e-05
9.33435e-05
-2.00318e-05
-7.90667e-05
-0.000239912
3.18057e-05
-0.000166326
-5.6115e-05
8.57871e-05
-6.22309e-05
-0.00010955
8.17299e-05
-0.000103947
-9.69927e-05
-0.000155503
0.000108382
-4.29545e-05
-2.7128e-05
0.000157825
0.00010339
0.000156046
5.93081e-05
)
;
    }
    bottom_fluid_surface
    {
        type            calculated;
        value           uniform 0;
    }
    lateral_surface_1
    {
        type            calculated;
        value           uniform 0;
    }
    lateral_surface_2
    {
        type            calculated;
        value           uniform 0;
    }
    lateral_surface_3
    {
        type            calculated;
        value           uniform 0;
    }
    lateral_surface_4
    {
        type            calculated;
        value           uniform 0;
    }
}


// ************************************************************************* //
