/*--------------------------------*- C++ -*----------------------------------*\
| =========                 |                                                 |
| \\      /  F ield         | OpenFOAM: The Open Source CFD Toolbox           |
|  \\    /   O peration     | Version:  v1612+                                |
|   \\  /    A nd           | Web:      www.OpenFOAM.com                      |
|    \\/     M anipulation  |                                                 |
\*---------------------------------------------------------------------------*/
FoamFile
{
    version     2.0;
    format      ascii;
    class       volVectorField;
    location    "0.8";
    object      U;
}
// * * * * * * * * * * * * * * * * * * * * * * * * * * * * * * * * * * * * * //

dimensions      [0 1 -1 0 0 0 0];

internalField   nonuniform List<vector> 
320
(
(-4.38628e-07 -3.13744e-07 1.63923e-06)
(-6.52551e-07 -4.65092e-07 1.7335e-06)
(8.66194e-07 -1.27314e-07 2.86557e-06)
(-2.5013e-07 -5.89258e-07 3.62566e-06)
(6.85831e-05 0.000112907 7.01282e-05)
(6.95542e-07 4.15961e-05 6.25232e-05)
(-1.42877e-05 -8.91814e-06 3.20624e-05)
(-1.18839e-05 -2.85506e-05 -1.29826e-05)
(1.0542e-05 -1.14558e-05 -1.74506e-05)
(7.22057e-05 -3.17482e-07 -2.57802e-05)
(5.05202e-06 -7.84609e-05 -1.73049e-05)
(7.18441e-05 -7.82689e-05 3.79502e-05)
(0.000125599 -5.87271e-05 -6.24075e-05)
(0.000109484 -8.10489e-05 6.4879e-05)
(0.000151635 1.72449e-05 4.07012e-05)
(0.000110896 2.02547e-05 2.45511e-05)
(2.12649e-06 1.50352e-06 3.77761e-06)
(-2.21896e-06 1.44334e-06 3.67e-06)
(-2.92165e-06 3.64264e-07 -1.66105e-06)
(-2.77655e-06 2.30637e-06 2.31039e-07)
(-2.62842e-06 -6.04083e-06 2.91718e-06)
(-2.00262e-06 -3.52577e-06 -2.82847e-06)
(-5.49961e-06 -6.25943e-06 5.49403e-08)
(5.93961e-06 -4.68944e-06 3.04308e-06)
(4.16769e-06 8.2446e-07 -1.96077e-06)
(2.40927e-06 -7.62319e-06 -9.13765e-07)
(2.21147e-06 -3.19517e-07 4.61855e-06)
(3.96633e-06 2.69535e-06 -1.36793e-06)
(1.37015e-06 4.56361e-07 4.43431e-06)
(-1.0179e-06 4.40301e-07 4.54146e-06)
(-1.44879e-06 -1.73284e-07 -1.60341e-06)
(-8.33554e-07 4.54027e-07 5.33919e-07)
(-9.92692e-07 -8.11789e-07 3.18606e-06)
(-2.73519e-07 -1.26988e-06 -3.61203e-06)
(-1.33703e-06 -1.50632e-06 4.60794e-07)
(5.61268e-07 -9.01912e-07 3.83889e-06)
(1.3638e-06 3.62049e-07 -3.03301e-06)
(1.71062e-06 -1.58915e-06 -7.26274e-07)
(9.28347e-07 3.88703e-08 5.70468e-06)
(1.94482e-06 1.32759e-06 -1.21103e-06)
(-5.94804e-08 -2.51516e-07 4.70992e-07)
(-2.96187e-07 -2.42684e-07 4.16464e-07)
(7.23516e-07 -3.86255e-07 6.81216e-07)
(1.39174e-09 -4.56083e-07 5.88632e-07)
(8.96528e-07 2.09192e-07 8.49363e-07)
(-5.37056e-07 2.5205e-07 8.68619e-07)
(-8.37296e-07 -1.50031e-08 -5.95156e-08)
(-4.95732e-07 2.86932e-07 4.42884e-08)
(-7.23134e-07 -9.89352e-07 4.67203e-07)
(-4.79303e-07 -1.04799e-06 -3.08288e-07)
(-8.99283e-07 -1.10103e-06 1.21163e-07)
(6.18652e-07 -7.13568e-07 7.23812e-07)
(7.70023e-07 2.62963e-07 -1.97955e-07)
(8.44685e-07 -1.13422e-06 1.47861e-08)
(5.96418e-07 -6.9672e-08 9.76787e-07)
(1.14272e-06 8.4131e-07 -8.90323e-08)
(7.37756e-05 4.64933e-05 5.02732e-05)
(4.81081e-05 8.72827e-05 -7.71953e-05)
(9.87243e-05 7.54146e-05 2.44572e-05)
(6.50087e-05 5.63151e-05 2.11506e-05)
(4.1977e-05 1.22498e-05 5.66226e-05)
(-5.51808e-05 -3.53163e-05 2.46459e-05)
(9.00521e-06 3.70202e-06 -1.07459e-05)
(-2.57772e-07 5.39253e-06 4.20944e-05)
(3.97098e-05 -6.27886e-05 6.54335e-05)
(-3.85481e-05 -0.000197804 3.4895e-05)
(2.63231e-05 -4.25017e-05 3.62053e-05)
(3.35915e-05 -0.000117845 4.95035e-06)
(1.0424e-05 -7.1334e-05 2.87645e-05)
(4.33926e-05 1.90013e-05 -2.01953e-05)
(1.32458e-05 -1.12903e-05 8.92371e-06)
(7.49837e-05 -1.22472e-05 -3.27947e-05)
(0.000103509 -1.36902e-05 -3.23529e-06)
(0.000142485 1.78975e-05 -2.10144e-05)
(2.93663e-05 3.49509e-05 -2.53848e-05)
(0.000100874 6.73514e-05 -7.8297e-05)
(3.8677e-06 8.17891e-07 -8.10212e-07)
(1.55579e-06 -1.78432e-07 3.8635e-07)
(-1.69536e-07 1.79329e-06 1.94278e-07)
(-1.23416e-06 -2.66217e-06 -2.04641e-07)
(-4.42298e-07 -3.01395e-06 -8.09807e-07)
(1.54437e-06 -9.9065e-08 -1.87833e-06)
(-1.8382e-06 9.28582e-07 -9.36736e-07)
(-3.39181e-06 -1.21335e-06 -1.14301e-06)
(3.59545e-06 3.11866e-07 -1.48156e-06)
(7.55521e-07 -2.45747e-06 3.80684e-06)
(3.94288e-06 3.69113e-06 -2.75158e-06)
(1.30784e-06 -2.64835e-06 -3.24732e-06)
(-4.00257e-06 -5.93008e-06 1.51189e-08)
(-4.93747e-06 2.30191e-06 1.30476e-06)
(-1.90898e-06 1.18874e-06 -6.06767e-08)
(-6.10633e-06 2.65725e-06 -1.2751e-06)
(4.04747e-07 -3.80601e-06 -2.0953e-06)
(5.3958e-06 1.5004e-06 -1.8519e-07)
(2.27104e-06 3.15974e-06 -2.62022e-06)
(4.17601e-06 -1.17521e-06 -1.60658e-06)
(9.41489e-07 2.56248e-07 -4.67592e-07)
(4.48665e-07 1.04241e-06 4.32148e-07)
(-2.29081e-08 1.25782e-06 3.74417e-07)
(7.7142e-08 -9.03856e-08 1.18529e-07)
(5.95973e-07 -1.17806e-06 -3.33486e-07)
(-3.01317e-07 -4.70392e-07 -1.90437e-06)
(-3.20871e-07 -8.98312e-09 -7.24249e-07)
(-1.03759e-06 -2.92234e-08 -1.0025e-06)
(1.13547e-06 6.95084e-07 -1.07549e-06)
(-1.57351e-07 -6.95069e-07 3.73331e-06)
(1.20871e-06 3.21515e-07 -2.86427e-06)
(-6.18096e-07 -8.21189e-07 -3.66718e-06)
(-1.00216e-06 -1.12957e-06 -4.6762e-07)
(2.18105e-07 3.37225e-07 1.48386e-06)
(-2.28336e-07 -4.09425e-07 7.02117e-08)
(6.69909e-08 5.90612e-07 -2.12804e-06)
(7.78044e-07 -5.62793e-07 -2.2686e-06)
(1.70068e-06 -7.95419e-08 -1.57869e-07)
(-2.05783e-07 4.69502e-07 -3.1148e-06)
(-4.36808e-08 -3.11874e-07 -2.19451e-06)
(7.78794e-07 3.58881e-08 -1.00679e-07)
(5.29779e-07 3.39966e-07 1.29612e-07)
(-7.19921e-08 5.70565e-07 5.93273e-08)
(-1.12898e-07 -3.73148e-07 1.1404e-07)
(1.48325e-07 -8.16098e-07 1.15811e-07)
(4.65547e-09 -1.30784e-07 -2.72559e-07)
(-3.51233e-07 -1.28523e-07 -1.75192e-07)
(-7.13689e-07 -4.39654e-07 -1.62287e-07)
(5.88886e-07 2.46229e-07 3.13434e-08)
(1.46515e-07 -3.63746e-07 5.56139e-07)
(6.24127e-07 1.03958e-07 -3.91763e-07)
(-3.33034e-07 -6.65134e-07 -5.00583e-07)
(-6.4048e-07 -9.519e-07 7.67478e-08)
(-1.31021e-07 1.06368e-07 3.10731e-07)
(-1.61482e-07 -2.2803e-07 -9.7498e-08)
(-2.43952e-07 2.62137e-07 -3.074e-07)
(2.56425e-07 -5.5986e-07 -5.7562e-07)
(1.04692e-06 4.65183e-08 -6.1941e-08)
(1.04947e-07 3.91567e-07 -5.8833e-07)
(1.37732e-07 -3.06235e-07 -4.2853e-07)
(1.18e-07 -1.44563e-07 2.94391e-07)
(-1.83343e-07 -1.67892e-07 2.94563e-07)
(3.25598e-07 -3.67579e-07 1.86402e-07)
(-7.75991e-08 -3.67276e-07 2.96234e-07)
(4.49449e-07 1.49332e-07 2.91049e-07)
(-1.4676e-07 1.37317e-07 3.62935e-07)
(-3.28442e-07 -6.72073e-08 -1.19113e-07)
(-2.92633e-07 -7.54022e-08 1.95339e-07)
(-3.28537e-07 -5.34939e-07 2.35251e-07)
(-2.10022e-07 -4.95864e-07 -2.99322e-07)
(-3.50702e-07 -5.09273e-07 1.60208e-07)
(2.27526e-07 -3.67866e-07 2.73057e-07)
(3.58713e-07 2.97847e-08 -2.20759e-07)
(4.97849e-07 -4.76803e-07 -1.15075e-07)
(4.13879e-07 -4.40413e-08 4.67711e-07)
(5.97206e-07 3.47846e-07 -1.0567e-07)
(4.33886e-07 2.25839e-08 -7.97126e-08)
(3.28529e-07 1.05133e-07 2.06102e-07)
(3.31966e-08 1.98568e-07 1.47281e-07)
(1.52667e-08 -1.81106e-07 1.25136e-07)
(6.46482e-08 -4.08568e-07 1.76263e-08)
(-7.59261e-08 -1.70582e-07 -1.56e-07)
(-2.17562e-07 -1.67987e-07 5.88417e-08)
(-2.70903e-07 -2.84665e-07 -1.44315e-07)
(1.31918e-07 -5.89164e-08 -1.24951e-07)
(-2.63361e-09 -3.231e-07 1.40476e-07)
(1.2182e-07 -2.15154e-07 -3.60591e-07)
(-2.05597e-07 -3.93232e-07 -3.43183e-07)
(-2.1346e-07 -4.93085e-07 -2.00919e-07)
(5.15749e-08 -9.00633e-08 9.63303e-08)
(2.23292e-08 -2.37961e-07 -1.96043e-08)
(8.20987e-08 7.8408e-08 -1.48629e-07)
(2.82526e-07 -3.12414e-07 -1.87427e-07)
(4.65394e-07 -4.52057e-08 9.2174e-08)
(1.21838e-07 1.6934e-07 -3.0906e-07)
(6.1673e-08 -1.82904e-07 -1.67001e-07)
(5.27054e-05 4.90205e-06 -4.78655e-05)
(9.08482e-05 3.20816e-05 -3.91944e-05)
(3.96204e-05 -1.22506e-05 -7.6841e-06)
(3.17767e-05 4.05782e-05 -5.41791e-05)
(4.88405e-05 5.46348e-05 -2.39957e-05)
(7.18382e-05 5.67197e-05 -7.22237e-07)
(1.60564e-05 2.47609e-05 3.6298e-05)
(-1.59281e-05 -7.07928e-05 3.04719e-05)
(-6.68911e-05 -4.18217e-05 -6.52573e-05)
(-2.25486e-05 2.63162e-05 -2.51214e-05)
(-4.42351e-05 1.92384e-05 -2.95953e-05)
(-8.67046e-06 -3.86114e-05 5.25173e-05)
(-2.01649e-05 -0.000125572 -1.34732e-05)
(6.34451e-05 -4.04538e-05 -4.23854e-05)
(-4.33435e-05 -0.000123908 -0.000128023)
(-7.64378e-06 -3.55529e-05 2.7935e-05)
(3.39342e-05 -9.00066e-05 -8.05917e-05)
(-6.50392e-05 -3.59217e-05 -3.68705e-05)
(6.57383e-05 -1.46518e-05 4.41141e-05)
(8.54052e-05 -5.81948e-05 -3.31734e-05)
(1.99451e-05 -8.67812e-05 -5.91528e-05)
(-8.70959e-06 8.56356e-06 5.11426e-05)
(3.9743e-05 3.14947e-05 -4.4436e-05)
(3.50319e-05 -1.3522e-05 -4.93825e-05)
(3.99196e-05 -5.68033e-05 -8.54445e-05)
(-3.9863e-05 -2.13653e-05 5.2671e-05)
(-1.63386e-05 6.98903e-05 -3.01751e-05)
(-3.73972e-05 -1.61745e-05 -6.70181e-06)
(-2.58946e-06 1.81761e-07 -1.9531e-06)
(2.96954e-06 1.71369e-06 -1.83698e-06)
(1.15102e-06 1.07994e-06 -6.25467e-07)
(2.64788e-07 2.11846e-06 -1.21663e-06)
(1.88564e-06 6.45613e-07 -4.41944e-07)
(-4.07108e-06 -1.00131e-06 2.49249e-06)
(-4.74663e-06 4.27444e-06 -3.97087e-07)
(5.29111e-07 2.95338e-06 2.51049e-06)
(1.22068e-06 -1.03164e-06 -7.8879e-07)
(-4.03393e-07 -2.6298e-06 -1.05331e-06)
(-2.33776e-06 -6.07171e-07 -1.44623e-06)
(2.0275e-07 6.21552e-07 3.48845e-06)
(-2.02802e-06 -1.65479e-06 -2.01787e-06)
(1.0055e-06 3.57746e-08 -1.7237e-06)
(-1.75049e-06 -2.99779e-06 -1.22503e-06)
(-1.81181e-06 2.54172e-06 1.79752e-06)
(4.1215e-06 2.75693e-06 -9.65663e-07)
(9.89407e-07 -2.71957e-07 -5.98719e-07)
(-2.95123e-06 -2.23503e-06 1.06504e-06)
(-7.04048e-07 -2.25819e-06 -1.63019e-06)
(5.92275e-08 -3.43997e-06 -1.2875e-06)
(-1.12251e-06 -3.10037e-06 3.09478e-06)
(-4.22985e-06 3.13817e-06 3.68552e-07)
(-6.41569e-07 3.87905e-06 -1.55312e-06)
(3.4552e-06 1.54674e-06 -1.79859e-06)
(-5.95102e-07 1.47555e-06 1.28588e-06)
(1.77102e-06 -4.04267e-06 -7.02375e-07)
(-3.46249e-06 -5.05174e-06 4.46657e-06)
(-1.44188e-06 2.12708e-07 -2.37252e-06)
(5.90543e-07 4.49793e-07 -1.98609e-06)
(3.68588e-07 5.63653e-07 -5.2706e-07)
(1.14897e-07 5.2987e-07 -1.33296e-06)
(9.87087e-07 4.25848e-07 -2.85361e-07)
(4.72219e-07 -3.80074e-07 2.98118e-06)
(-3.10643e-07 5.49601e-07 -1.00052e-06)
(6.19033e-07 -8.63927e-07 2.83867e-06)
(3.49255e-09 -1.09013e-06 -7.45544e-07)
(-7.02151e-10 -2.8224e-07 -7.90432e-07)
(-2.69761e-07 6.44549e-07 -2.07921e-06)
(6.73074e-07 -3.89639e-07 3.36093e-06)
(-1.35449e-06 -1.75867e-06 -2.32118e-06)
(-3.90535e-07 -1.1884e-07 -2.09885e-06)
(-9.44712e-07 -1.08279e-06 -2.3362e-06)
(-1.47382e-07 6.68523e-07 1.97847e-06)
(1.14068e-07 2.73298e-07 -1.27949e-06)
(-5.97155e-07 -6.36405e-08 -9.94929e-07)
(6.43671e-07 -1.31714e-07 9.83145e-07)
(7.11223e-07 -4.89203e-07 -1.92109e-06)
(-2.36868e-07 -1.07127e-06 -1.78502e-06)
(-8.18939e-07 -3.07006e-07 3.93378e-06)
(-1.34452e-07 1.36843e-06 6.00245e-07)
(-4.11175e-08 4.45276e-08 -1.71541e-06)
(4.72869e-07 -9.44956e-07 -2.20391e-06)
(-9.0654e-07 -4.16765e-07 5.15345e-07)
(-4.13397e-07 -9.79839e-07 -1.28907e-06)
(-1.57452e-06 -9.48409e-07 4.77441e-06)
(-6.96791e-07 1.81809e-07 -4.99508e-07)
(4.96517e-07 2.45707e-07 -4.23651e-07)
(3.61851e-07 4.64086e-07 -1.65481e-07)
(1.76058e-07 4.13635e-07 -2.47908e-07)
(5.49367e-07 2.16036e-07 -1.67925e-07)
(-1.46771e-07 -2.48631e-07 4.62239e-07)
(-4.69217e-07 5.11132e-07 2.27516e-07)
(2.90546e-07 -2.21721e-07 6.34712e-07)
(1.2516e-07 -5.14561e-07 -3.07264e-07)
(-9.32315e-08 -4.31412e-07 -1.29282e-07)
(-1.7773e-07 -4.92329e-08 -3.47109e-07)
(2.97189e-07 -1.8779e-07 6.65306e-07)
(-6.11749e-07 -8.58017e-07 -5.48691e-07)
(-1.97082e-07 -6.97561e-08 -5.68293e-07)
(-3.7309e-07 -4.84423e-07 -3.85172e-07)
(-1.77915e-07 4.49849e-07 1.97622e-07)
(1.56575e-07 3.1762e-07 -3.26032e-07)
(-1.52851e-07 -3.976e-08 3.34211e-08)
(4.61528e-08 -1.7001e-07 2.057e-07)
(2.12556e-07 -2.16933e-07 -5.01858e-07)
(-1.4493e-07 -5.44048e-07 -3.5576e-07)
(-4.72044e-07 -3.50139e-07 5.44222e-07)
(-2.67039e-07 6.8087e-07 -1.94733e-07)
(-5.33114e-08 1.56656e-07 -5.27015e-07)
(4.49476e-07 -2.2115e-07 -3.50252e-07)
(-3.20979e-07 -6.78787e-08 1.71481e-07)
(-9.96947e-09 -7.6585e-07 -4.16339e-08)
(-7.80595e-07 -5.88816e-07 7.80778e-07)
(-2.51406e-07 1.46208e-07 -2.05709e-07)
(3.09169e-07 1.79853e-07 -1.6859e-07)
(2.73464e-07 2.70924e-07 1.77094e-08)
(1.39478e-07 2.34917e-07 -3.64856e-08)
(2.78695e-07 1.64643e-07 6.30385e-08)
(6.55933e-08 -2.85117e-08 2.33102e-07)
(-8.34994e-08 1.63698e-07 -1.57018e-07)
(1.0871e-07 -3.22625e-07 2.01458e-07)
(2.44378e-09 -3.49418e-07 -5.11439e-08)
(-7.01254e-08 -2.70379e-07 2.36756e-08)
(-9.99482e-08 -1.85458e-07 -2.29965e-07)
(2.9081e-08 -2.27594e-07 1.39909e-07)
(-2.68626e-07 -5.26707e-07 -2.09308e-07)
(-1.74526e-07 -7.72871e-08 -1.87439e-07)
(-1.79635e-07 -1.71387e-07 -1.83503e-07)
(-1.39889e-07 9.97143e-08 6.77396e-09)
(-7.27707e-08 9.03224e-08 -1.16773e-07)
(-7.56428e-08 -3.31122e-08 -2.12113e-07)
(1.03589e-07 -4.74948e-08 -3.65969e-08)
(1.52923e-07 -8.5126e-08 -1.51168e-07)
(-8.83176e-08 -1.78089e-07 -9.54156e-08)
(-1.8128e-07 -1.60888e-07 2.74269e-07)
(-1.12442e-08 2.89982e-07 1.00957e-07)
(3.02934e-08 -9.35075e-08 -1.16658e-07)
(2.07662e-07 -2.0473e-07 -1.62172e-07)
(-1.29231e-07 -5.58755e-08 -1.24506e-07)
(-1.75528e-08 -3.5066e-07 -1.74476e-07)
(-2.96987e-07 -1.33227e-07 2.89249e-07)
(6.95102e-05 1.64733e-05 8.287e-05)
(-2.3026e-05 -2.12263e-05 5.64634e-05)
(3.01225e-05 -3.95443e-05 8.42419e-05)
(-4.43189e-05 -7.87101e-05 4.02086e-05)
(3.03809e-07 -5.66959e-08 7.91713e-07)
(-1.3088e-06 6.35435e-07 9.49125e-07)
(3.08141e-06 -1.85002e-06 2.1436e-06)
(1.44123e-07 -1.9873e-06 2.66856e-06)
)
;

boundaryField
{
    top_fluid_surface
    {
        type            pressureInletOutletVelocity;
        value           nonuniform List<vector> 
64
(
(6.85831e-05 0.000112907 7.01282e-05)
(6.95542e-07 4.15961e-05 6.25232e-05)
(-1.42877e-05 -8.91814e-06 3.20624e-05)
(0 0 -1.29826e-05)
(0 0 -1.74506e-05)
(0 0 -2.57802e-05)
(0 0 -1.73049e-05)
(7.18441e-05 -7.82689e-05 3.79502e-05)
(0 0 -6.24075e-05)
(0.000109484 -8.10489e-05 6.4879e-05)
(0.000151635 1.72449e-05 4.07012e-05)
(0.000110896 2.02547e-05 2.45511e-05)
(7.37756e-05 4.64933e-05 5.02732e-05)
(0 0 -7.71953e-05)
(9.87243e-05 7.54146e-05 2.44572e-05)
(6.50087e-05 5.63151e-05 2.11506e-05)
(4.1977e-05 1.22498e-05 5.66226e-05)
(-5.51808e-05 -3.53163e-05 2.46459e-05)
(0 0 -1.07459e-05)
(-2.57772e-07 5.39253e-06 4.20944e-05)
(3.97098e-05 -6.27886e-05 6.54335e-05)
(-3.85481e-05 -0.000197804 3.4895e-05)
(2.63231e-05 -4.25017e-05 3.62053e-05)
(3.35915e-05 -0.000117845 4.95035e-06)
(1.0424e-05 -7.1334e-05 2.87645e-05)
(0 0 -2.01953e-05)
(1.32458e-05 -1.12903e-05 8.92371e-06)
(0 0 -3.27947e-05)
(0.000103509 -1.36902e-05 -3.23529e-06)
(0 0 -2.10144e-05)
(0 0 -2.53848e-05)
(0 0 -7.8297e-05)
(0 0 -4.78655e-05)
(0 0 -3.91944e-05)
(0 0 -7.6841e-06)
(0 0 -5.41791e-05)
(0 0 -2.39957e-05)
(0 0 -7.22237e-07)
(1.60564e-05 2.47609e-05 3.6298e-05)
(-1.59281e-05 -7.07928e-05 3.04719e-05)
(0 0 -6.52573e-05)
(0 0 -2.51214e-05)
(0 0 -2.95953e-05)
(-8.67046e-06 -3.86114e-05 5.25173e-05)
(0 0 -1.34732e-05)
(0 0 -4.23854e-05)
(0 0 -0.000128023)
(-7.64378e-06 -3.55529e-05 2.7935e-05)
(0 0 -8.05917e-05)
(0 0 -3.68705e-05)
(6.57383e-05 -1.46518e-05 4.41141e-05)
(0 0 -3.31734e-05)
(0 0 -5.91528e-05)
(-8.70959e-06 8.56356e-06 5.11426e-05)
(0 0 -4.4436e-05)
(0 0 -4.93825e-05)
(0 0 -8.54445e-05)
(-3.9863e-05 -2.13653e-05 5.2671e-05)
(0 0 -3.01751e-05)
(0 0 -6.70181e-06)
(6.95102e-05 1.64733e-05 8.287e-05)
(-2.3026e-05 -2.12263e-05 5.64634e-05)
(3.01225e-05 -3.95443e-05 8.42419e-05)
(-4.43189e-05 -7.87101e-05 4.02086e-05)
)
;
    }
    bottom_fluid_surface
    {
        type            noSlip;
    }
    lateral_surface_1
    {
        type            noSlip;
    }
    lateral_surface_2
    {
        type            noSlip;
    }
    lateral_surface_3
    {
        type            noSlip;
    }
    lateral_surface_4
    {
        type            noSlip;
    }
}


// ************************************************************************* //
