/*--------------------------------*- C++ -*----------------------------------*\
| =========                 |                                                 |
| \\      /  F ield         | OpenFOAM: The Open Source CFD Toolbox           |
|  \\    /   O peration     | Version:  v1612+                                |
|   \\  /    A nd           | Web:      www.OpenFOAM.com                      |
|    \\/     M anipulation  |                                                 |
\*---------------------------------------------------------------------------*/
FoamFile
{
    version     2.0;
    format      ascii;
    class       volScalarField;
    location    "3.55";
    object      alpha.water;
}
// * * * * * * * * * * * * * * * * * * * * * * * * * * * * * * * * * * * * * //

dimensions      [0 0 0 0 0 0 0];

internalField   nonuniform List<scalar> 
1116
(
0.69343
0.693425
0.693426
0.693427
0.693425
0.693426
0.694425
0.69442
0.694422
0.694423
0.69442
0.694422
0.72757
0.727565
0.727566
0.727567
0.727565
0.727566
0.777137
0.777132
0.777134
0.777135
0.777133
0.777134
0.826414
0.826409
0.826411
0.826411
0.82641
0.826412
0.870374
0.870368
0.87037
0.87037
0.870369
0.870373
0.909258
0.909251
0.909252
0.909252
0.90925
0.909255
0.971101
0.971095
0.971095
0.971094
0.971092
0.971097
0.973027
0.973027
0.973027
0.973027
0.973027
0.973027
0.973027
0.973027
0.973027
0.973027
0.973027
0.973027
0.973017
0.973017
0.973017
0.973017
0.973017
0.973017
0.970594
0.970594
0.970594
0.970594
0.970594
0.970594
0.0384279
0.0384265
0.038427
0.0384254
0.0384247
0.0384298
0.0147879
0.0147868
0.0147867
0.0147871
0.0147874
0.0147883
0.0124499
0.0124498
0.0124493
0.0124502
0.012451
0.0124499
0.0191131
0.0191133
0.0191127
0.0191136
0.0191145
0.0191133
0.0337963
0.0337966
0.0337961
0.0337968
0.0337978
0.0337967
0.0565026
0.0565026
0.0565024
0.0565031
0.0565042
0.0565035
0.0851363
0.0851364
0.085136
0.0851367
0.085138
0.0851373
0.134952
0.134948
0.134949
0.13495
0.13495
0.134952
0.335654
0.335639
0.335643
0.335643
0.33564
0.335653
0.82207
0.822043
0.822051
0.822051
0.822043
0.822065
0.973008
0.973008
0.973008
0.973008
0.973008
0.973008
0.972952
0.972952
0.972952
0.972952
0.972952
0.972952
1.3177e-08
1.31776e-08
1.31774e-08
1.3178e-08
1.31791e-08
1.31792e-08
2.57099e-09
2.57122e-09
2.57111e-09
2.57061e-09
2.57069e-09
2.57123e-09
1.34879e-09
1.34867e-09
1.34872e-09
1.34842e-09
1.34834e-09
1.34888e-09
6.69585e-10
6.69916e-10
6.70082e-10
6.70103e-10
6.70041e-10
6.69384e-10
1.32527e-10
1.33028e-10
1.33394e-10
1.33498e-10
1.33351e-10
1.3234e-10
4.55428e-11
4.58825e-11
4.64256e-11
4.66999e-11
4.60467e-11
4.53773e-11
3.07376e-11
3.04564e-11
3.0912e-11
3.1068e-11
3.01066e-11
3.0575e-11
-2.04382e-08
-2.05259e-08
-2.04888e-08
-2.04746e-08
-2.04832e-08
-2.04958e-08
0.000133659
0.000133665
0.000133661
0.00013366
0.000133662
0.000133655
0.143395
0.143332
0.143357
0.143357
0.14334
0.143374
0.816506
0.816464
0.816481
0.816475
0.816459
0.816496
0.972934
0.972934
0.972934
0.972934
0.972934
0.972934
4.16503e-07
4.16391e-07
4.16465e-07
4.16528e-07
4.16514e-07
4.16628e-07
1.85128e-06
1.85109e-06
1.85114e-06
1.85115e-06
1.85106e-06
1.85135e-06
1.0411e-07
1.04168e-07
1.0415e-07
1.04145e-07
1.04177e-07
1.04115e-07
4.82122e-08
4.81678e-08
4.81766e-08
4.81471e-08
4.8133e-08
4.82427e-08
5.12549e-08
5.12505e-08
5.12495e-08
5.12473e-08
5.12455e-08
5.12518e-08
7.4029e-09
7.40359e-09
7.40265e-09
7.40137e-09
7.40113e-09
7.39781e-09
4.55424e-11
4.58821e-11
4.64252e-11
4.66995e-11
4.60463e-11
4.53769e-11
-5.94457e-09
-5.90823e-09
-5.92068e-09
-5.92237e-09
-5.90927e-09
-5.93171e-09
6.78881e-06
6.78903e-06
6.78864e-06
6.78857e-06
6.78786e-06
6.78927e-06
0.000627548
0.00062131
0.00062361
0.000623891
0.000621686
0.000625206
0.467252
0.467154
0.467186
0.467188
0.467167
0.467208
0.972426
0.972426
0.972426
0.972426
0.972426
0.972426
1.63613e-38
1.6132e-38
1.59966e-38
1.66036e-38
1.63969e-38
1.60146e-38
2.68934e-35
2.65351e-35
2.63193e-35
2.72441e-35
2.69942e-35
2.63137e-35
2.09187e-32
2.06558e-32
2.04935e-32
2.11381e-32
2.10305e-32
2.04483e-32
1.00996e-29
9.98077e-30
9.90519e-30
1.01717e-29
1.01688e-29
9.85761e-30
3.35106e-27
3.3144e-27
3.29033e-27
3.36163e-27
3.37848e-27
3.26468e-27
8.03111e-25
7.94997e-25
7.89521e-25
8.0219e-25
8.10555e-25
7.8101e-25
1.43143e-22
1.41821e-22
1.40915e-22
1.42385e-22
1.44587e-22
1.39048e-22
1.93553e-20
1.91951e-20
1.90859e-20
1.91836e-20
1.95599e-20
1.88042e-20
2.03788e-18
2.02325e-18
2.01369e-18
2.01376e-18
2.05909e-18
1.98301e-18
3.8036e-17
3.77394e-17
3.75305e-17
3.7774e-17
3.86407e-17
3.69881e-17
6.55117e-15
6.56101e-15
6.5759e-15
6.4876e-15
6.50081e-15
6.56162e-15
2.54927e-14
2.53737e-14
2.53214e-14
2.51516e-14
2.57827e-14
2.50319e-14
1.34724e-37
1.33073e-37
1.31422e-37
1.31841e-37
1.32887e-37
1.26432e-37
2.53037e-34
2.5001e-34
2.47083e-34
2.47832e-34
2.50639e-34
2.38338e-34
2.28843e-31
2.26175e-31
2.23678e-31
2.24275e-31
2.27553e-31
2.16259e-31
1.31822e-28
1.30323e-28
1.28966e-28
1.29237e-28
1.3152e-28
1.24929e-28
5.42663e-26
5.36634e-26
5.31353e-26
5.3206e-26
5.42888e-26
5.15535e-26
1.70558e-23
1.68707e-23
1.67138e-23
1.6719e-23
1.70969e-23
1.62376e-23
4.27924e-21
4.23385e-21
4.19671e-21
4.19218e-21
4.29442e-21
4.08166e-21
8.84056e-19
8.75127e-19
8.67975e-19
8.65209e-19
8.87403e-19
8.44829e-19
2.70467e-17
2.67353e-17
2.64986e-17
2.66039e-17
2.73137e-17
2.58291e-17
1.98687e-15
1.94957e-15
1.90628e-15
1.9006e-15
1.95341e-15
1.7813e-15
1.8275e-14
1.81824e-14
1.81354e-14
1.79997e-14
1.84583e-14
1.78887e-14
1.27347e-12
1.27293e-12
1.27544e-12
1.25491e-12
1.2774e-12
1.26593e-12
8.80384e-33
8.77214e-33
8.76297e-33
8.72258e-33
8.83199e-33
8.72272e-33
1.36913e-29
1.3644e-29
1.36271e-29
1.35653e-29
1.37443e-29
1.35685e-29
9.74595e-27
9.71285e-27
9.69744e-27
9.657e-27
9.79777e-27
9.65334e-27
4.11305e-24
4.09882e-24
4.09025e-24
4.07598e-24
4.14483e-24
4.0678e-24
1.1265e-21
1.12239e-21
1.11934e-21
1.11646e-21
1.13898e-21
1.11132e-21
2.09159e-19
2.08346e-19
2.07651e-19
2.07292e-19
2.12275e-19
2.05715e-19
2.71116e-17
2.70024e-17
2.69032e-17
2.68614e-17
2.76047e-17
2.65979e-17
3.21882e-17
3.21403e-17
3.21725e-17
3.19059e-17
3.1731e-17
3.23606e-17
1.0327e-16
1.02417e-16
1.01748e-16
1.01268e-16
1.03507e-16
9.94715e-17
2.50316e-11
2.49201e-11
2.48111e-11
2.49366e-11
2.58169e-11
2.44571e-11
5.42053e-09
5.40546e-09
5.39305e-09
5.3729e-09
5.53152e-09
5.3304e-09
7.85507e-08
7.85754e-08
7.86391e-08
7.74658e-08
7.90342e-08
7.77988e-08
1.65855e-34
1.64692e-34
1.6434e-34
1.64769e-34
1.69233e-34
1.63434e-34
3.41711e-31
3.39137e-31
3.38307e-31
3.39625e-31
3.50028e-31
3.36436e-31
3.49801e-28
3.47012e-28
3.46065e-28
3.47739e-28
3.59538e-28
3.44012e-28
2.341e-25
2.32178e-25
2.31502e-25
2.32698e-25
2.41209e-25
2.29977e-25
1.14411e-22
1.13476e-22
1.13141e-22
1.13673e-22
1.18034e-22
1.12307e-22
4.36472e-20
4.33067e-20
4.31846e-20
4.33292e-20
4.50349e-20
4.28256e-20
7.68167e-18
7.62285e-18
7.60093e-18
7.65982e-18
7.94133e-18
7.54142e-18
2.91018e-17
2.89831e-17
2.89343e-17
2.90132e-17
2.96273e-17
2.87846e-17
2.55379e-15
2.53834e-15
2.53277e-15
2.52475e-15
2.62832e-15
2.50439e-15
1.43871e-12
1.4308e-12
1.42747e-12
1.42223e-12
1.48065e-12
1.41007e-12
6.06896e-07
6.05445e-07
6.04136e-07
6.00938e-07
6.18887e-07
5.96394e-07
1.69371e-05
1.69316e-05
1.69169e-05
1.67647e-05
1.70229e-05
1.67851e-05
6.01424e-08
6.00973e-08
6.01257e-08
6.01521e-08
6.01497e-08
6.01856e-08
9.71195e-12
9.6153e-12
9.61198e-12
9.48945e-12
9.29384e-12
9.62513e-12
-6.45941e-16
-7.0743e-16
-7.26158e-16
-7.10013e-16
-7.05813e-16
-7.22772e-16
1.8703e-06
1.87031e-06
1.87031e-06
1.87033e-06
1.87034e-06
1.87034e-06
4.62895e-07
4.62259e-07
4.62504e-07
4.62455e-07
4.61961e-07
4.63023e-07
-3.33761e-15
-3.65514e-15
-3.75213e-15
-3.66868e-15
-3.64696e-15
-3.73494e-15
6.2723e-07
6.27145e-07
6.27167e-07
6.27197e-07
6.27189e-07
6.2728e-07
3.17856e-23
3.07813e-23
3.08362e-23
3.05982e-23
3.01977e-23
3.09541e-23
-2.32821e-14
-2.5498e-14
-2.61738e-14
-2.55916e-14
-2.54405e-14
-2.6052e-14
4.59565e-09
4.53391e-09
4.54681e-09
4.50358e-09
4.48974e-09
4.65296e-09
8.18165e-13
7.80019e-13
7.83995e-13
7.8023e-13
7.53128e-13
7.44482e-13
-1.63226e-14
-1.78749e-14
-1.83481e-14
-1.7939e-14
-1.7833e-14
-1.82611e-14
5.25778e-08
5.25778e-08
5.25772e-08
5.25762e-08
5.25762e-08
5.25762e-08
2.49355e-09
2.43767e-09
2.44616e-09
2.42282e-09
2.39772e-09
2.47111e-09
-9.20426e-16
-1.00839e-15
-1.03561e-15
-1.01236e-15
-1.00612e-15
-1.02463e-15
2.69039e-08
2.68911e-08
2.68919e-08
2.68867e-08
2.68806e-08
2.68941e-08
1.04578e-17
1.04262e-17
1.04369e-17
1.04533e-17
1.04547e-17
1.0448e-17
3.53813e-19
3.52804e-19
3.53087e-19
3.53596e-19
3.53691e-19
3.53478e-19
7.04079e-11
7.03999e-11
7.03606e-11
7.0321e-11
7.0383e-11
7.0411e-11
7.94081e-15
7.9287e-15
7.93911e-15
7.94793e-15
7.94804e-15
7.94484e-15
1.56787e-17
1.56769e-17
1.56776e-17
1.56773e-17
1.56746e-17
1.56766e-17
4.92528e-11
4.87212e-11
4.86389e-11
4.85232e-11
4.82407e-11
4.92421e-11
3.12829e-12
3.10891e-12
3.06915e-12
3.03134e-12
3.00395e-12
3.12147e-12
-7.91806e-16
-7.91332e-16
-7.91629e-16
-7.91764e-16
-7.9152e-16
-7.91749e-16
-3.63007e-08
-3.62877e-08
-3.62579e-08
-3.61426e-08
-3.58599e-08
-3.66445e-08
2.39399e-09
2.39218e-09
2.39271e-09
2.39268e-09
2.38698e-09
2.39435e-09
-2.43087e-17
-2.40194e-17
-2.5937e-17
-2.66243e-17
-2.64995e-17
-2.36468e-17
7.12128e-06
7.12177e-06
7.12142e-06
7.12152e-06
7.12165e-06
7.12107e-06
2.49416e-07
2.49411e-07
2.49415e-07
2.49439e-07
2.49431e-07
2.49423e-07
2.39443e-09
2.3929e-09
2.3938e-09
2.39477e-09
2.39436e-09
2.39471e-09
0.000380357
0.000379931
0.000380077
0.000380117
0.000379926
0.0003802
0.00494881
0.00494521
0.00494538
0.00494488
0.00493645
0.00495524
0.00179336
0.00179191
0.00179209
0.00179186
0.00178913
0.00179545
0.697109
0.697087
0.697082
0.697057
0.696955
0.697168
0.115142
0.115193
0.115166
0.115147
0.115122
0.115185
-7.69418e-21
-9.71847e-21
-1.04948e-20
-1.07545e-20
-1.04283e-20
-7.40411e-21
0.00524006
0.00526956
0.00531766
0.00499023
0.0051465
0.00502052
0.0207623
0.0208131
0.0216346
0.0198679
0.0198855
0.0210957
0.0170366
0.0171433
0.0172169
0.0168589
0.0167714
0.0170708
0.148744
0.148755
0.148827
0.148506
0.14921
0.148556
0.173137
0.173352
0.173137
0.172946
0.172603
0.173661
0.0281349
0.0281748
0.0283985
0.0277583
0.0271171
0.0290501
0.286102
0.285935
0.285917
0.286853
0.287929
0.286306
0.166723
0.166817
0.16674
0.166867
0.166168
0.167682
-1.06718e-23
-1.34874e-23
-1.45379e-23
-1.45889e-23
-1.40381e-23
-9.86277e-24
0.480509
0.480336
0.48027
0.481787
0.483393
0.47974
0.119721
0.119808
0.11966
0.119863
0.120082
0.119161
-6.35122e-23
-8.02498e-23
-8.6529e-23
-8.88045e-23
-8.58586e-23
-6.0629e-23
0.698276
0.698292
0.698311
0.698318
0.698321
0.698323
0.222891
0.222979
0.22293
0.223204
0.223846
0.222174
-3.77989e-22
-4.77717e-22
-5.15547e-22
-5.27831e-22
-5.10193e-22
-3.63262e-22
0.698292
0.698311
0.698318
0.698321
0.698323
0.698323
0.253423
0.253546
0.253508
0.253489
0.253647
0.253327
-1.74391e-21
-2.20422e-21
-2.37976e-21
-2.43571e-21
-2.35659e-21
-1.67953e-21
6.88021e-29
6.88604e-29
6.88735e-29
6.85356e-29
6.92715e-29
6.86934e-29
5.4656e-31
5.46894e-31
5.47001e-31
5.44867e-31
5.51128e-31
5.45365e-31
2.92921e-33
2.93017e-33
2.93072e-33
2.92311e-33
2.95875e-33
2.92035e-33
1.41461e-25
1.41617e-25
1.41644e-25
1.40747e-25
1.42135e-25
1.41322e-25
1.17619e-27
1.17718e-27
1.17741e-27
1.17151e-27
1.18412e-27
1.17427e-27
8.80194e-30
8.80555e-30
8.80793e-30
8.78019e-30
8.8717e-30
8.78209e-30
1.29034e-22
1.29207e-22
1.29235e-22
1.28167e-22
1.29307e-22
1.28967e-22
1.12823e-24
1.12945e-24
1.12965e-24
1.12232e-24
1.13345e-24
1.12696e-24
1.33118e-26
1.33172e-26
1.3323e-26
1.32698e-26
1.33478e-26
1.32954e-26
6.61781e-20
6.62834e-20
6.63039e-20
6.55836e-20
6.61075e-20
6.61537e-20
6.15143e-22
6.15947e-22
6.16072e-22
6.10843e-22
6.16364e-22
6.14653e-22
1.18861e-23
1.18906e-23
1.18982e-23
1.18363e-23
1.18039e-23
1.18808e-23
2.01789e-17
2.02167e-17
2.02281e-17
1.99371e-17
2.0086e-17
2.01622e-17
2.05844e-19
2.06158e-19
2.06217e-19
2.03926e-19
2.05615e-19
2.05652e-19
6.14981e-21
6.15237e-21
6.15706e-21
6.11495e-21
6.02614e-21
6.14621e-21
3.54887e-17
3.54686e-17
3.54641e-17
3.57815e-17
3.63537e-17
3.54084e-17
3.44767e-17
3.45345e-17
3.45504e-17
3.40769e-17
3.4339e-17
3.4415e-17
1.72002e-18
1.72095e-18
1.72223e-18
1.70672e-18
1.66612e-18
1.71652e-18
3.09404e-17
3.08426e-17
3.08076e-17
3.08353e-17
3.13693e-17
3.06811e-17
6.01998e-15
6.03123e-15
6.03399e-15
5.93534e-15
5.98625e-15
6.00017e-15
7.81982e-17
7.82582e-17
7.83132e-17
7.76809e-17
6.9592e-17
7.81755e-17
3.1804e-15
3.15997e-15
3.15409e-15
3.14996e-15
3.27001e-15
3.12464e-15
1.67244e-12
1.67545e-12
1.67619e-12
1.65097e-12
1.66467e-12
1.66777e-12
1.77169e-14
1.77436e-14
1.77458e-14
1.75512e-14
1.77362e-14
1.76885e-14
1.43871e-12
1.4308e-12
1.42748e-12
1.42223e-12
1.48065e-12
1.41008e-12
2.18649e-10
2.19056e-10
2.19111e-10
2.15175e-10
2.17494e-10
2.16141e-10
8.49016e-12
8.49045e-12
8.49796e-12
8.38731e-12
8.66178e-12
8.34844e-12
9.39224e-09
9.42971e-09
9.48003e-09
8.88986e-09
9.94503e-09
8.71367e-09
3.38952e-08
3.39519e-08
3.3993e-08
3.34251e-08
3.37159e-08
3.38723e-08
1.13962e-09
1.14054e-09
1.14311e-09
1.12232e-09
1.14178e-09
1.12775e-09
4.46448e-07
4.44569e-07
4.42832e-07
4.44946e-07
4.56138e-07
4.41427e-07
2.6125e-06
2.61688e-06
2.6207e-06
2.57446e-06
2.60903e-06
2.58978e-06
1.60665e-08
1.60817e-08
1.6144e-08
1.58409e-08
1.59315e-08
1.611e-08
1.10889e-07
9.77686e-08
8.21646e-08
1.9993e-07
4.13414e-08
2.54712e-07
1.68545e-08
1.6543e-08
1.63953e-08
1.63978e-08
1.48851e-08
1.69325e-08
8.34539e-09
8.19766e-09
8.19766e-09
7.44253e-09
7.44253e-09
7.44253e-09
)
;

boundaryField
{
    seabed_topleft_surface
    {
        type            zeroGradient;
    }
    seabed_topright_surface
    {
        type            zeroGradient;
    }
    breakwater_top_surface
    {
        type            zeroGradient;
    }
    breakwater_left_surface
    {
        type            zeroGradient;
    }
    breakwater_right_surface
    {
        type            zeroGradient;
    }
    water_front_surface
    {
        type            zeroGradient;
    }
    water_back_surface
    {
        type            zeroGradient;
    }
    water_left_surface
    {
        type            zeroGradient;
    }
    water_right_surface
    {
        type            zeroGradient;
    }
    water_top_surface
    {
        type            inletOutlet;
        inletValue      uniform 0;
        value           nonuniform List<scalar> 
180
(
0
0
0
0
0
0
0
0
0
0
0
0
0
0
0
0
0
0
0
0
0
0
0
0
0
0
0
0
0
0
0
0
0
0
0
0
0
0
0
0
0
0
0
0
0
0
0
0
0
0
0
0
0
0
2.39443e-09
2.3929e-09
2.3938e-09
2.39477e-09
2.39436e-09
2.39471e-09
0.00179336
0.00179191
0.00179209
0.00179186
0.00178913
0.00179545
0
0
0
0
0
0
0.0170366
0.0171433
0.0172169
0.0168589
0.0167714
0.0170708
0.0281349
0.0281748
0.0283985
0.0277583
0.0271171
0.0290501
0
0
0
0
0
0
0
0
0
0
0
0
0
0
0
0
0
0
0
0
0
0
0
0
2.92921e-33
2.93017e-33
2.93072e-33
2.92311e-33
2.95875e-33
2.92035e-33
8.80194e-30
8.80555e-30
8.80793e-30
8.78019e-30
8.8717e-30
8.78209e-30
1.33118e-26
1.33172e-26
1.3323e-26
1.32698e-26
1.33478e-26
1.32954e-26
1.18861e-23
1.18906e-23
1.18982e-23
1.18363e-23
1.18039e-23
1.18808e-23
6.14981e-21
6.15237e-21
6.15706e-21
6.11495e-21
6.02614e-21
6.14621e-21
1.72002e-18
1.72095e-18
1.72223e-18
1.70672e-18
1.66612e-18
1.71652e-18
7.81982e-17
7.82582e-17
7.83132e-17
7.76809e-17
6.9592e-17
7.81755e-17
1.77169e-14
1.77436e-14
1.77458e-14
1.75512e-14
1.77362e-14
1.76885e-14
8.49016e-12
8.49045e-12
8.49796e-12
8.38731e-12
8.66178e-12
8.34844e-12
1.13962e-09
1.14054e-09
1.14311e-09
1.12232e-09
1.14178e-09
1.12775e-09
0
0
0
0
0
0
8.34539e-09
8.19766e-09
8.19766e-09
7.44253e-09
7.44253e-09
7.44253e-09
)
;
    }
}


// ************************************************************************* //
