/*--------------------------------*- C++ -*----------------------------------*\
| =========                 |                                                 |
| \\      /  F ield         | OpenFOAM: The Open Source CFD Toolbox           |
|  \\    /   O peration     | Version:  v1612+                                |
|   \\  /    A nd           | Web:      www.OpenFOAM.com                      |
|    \\/     M anipulation  |                                                 |
\*---------------------------------------------------------------------------*/
FoamFile
{
    version     2.0;
    format      ascii;
    class       surfaceScalarField;
    location    "3.55";
    object      alphaPhi;
}
// * * * * * * * * * * * * * * * * * * * * * * * * * * * * * * * * * * * * * //

dimensions      [0 3 -1 0 0 0 0];

internalField   nonuniform List<scalar> 
2916
(
3.49709e-06
0.259155
-0.0971862
5.95064e-06
0.259154
-0.0971871
6.95603e-06
0.259156
-0.0971847
3.64069e-06
0.259157
-0.0971877
-6.36767e-07
0.259156
-0.0971901
0.259153
-0.0971805
7.94441e-06
0.507161
-0.0857177
6.85084e-06
0.507163
-0.0857151
9.68843e-06
0.507163
-0.0857161
3.87214e-06
0.507164
-0.0857129
-8.55037e-06
0.507164
-0.0857109
0.507159
-0.0857186
1.02725e-05
0.707465
-0.0512965
7.15902e-06
0.707475
-0.0512938
7.86286e-06
0.707473
-0.0512942
3.25284e-06
0.707474
-0.0512928
-7.72967e-06
0.707476
-0.0512914
0.707464
-0.0512957
1.17221e-05
0.872794
-0.038609
7.28745e-06
0.872809
-0.0386052
6.61042e-06
0.872806
-0.0386059
3.05209e-06
0.872807
-0.0386051
-6.67895e-06
0.87281
-0.0386034
0.872794
-0.0386074
1.18739e-05
1.008
-0.0317702
6.93201e-06
1.00802
-0.0317652
5.1768e-06
1.00802
-0.0317663
2.1228e-06
1.00802
-0.0317659
-6.12397e-06
1.00802
-0.031764
1.008
-0.0317683
1.09817e-05
1.10469
-0.0208763
6.69687e-06
1.10472
-0.0208711
3.74288e-06
1.10471
-0.0208719
2.7616e-07
1.10471
-0.0208716
-5.75426e-06
1.10471
-0.0208703
1.10469
-0.0208742
1.02823e-05
1.1339
0.00740212
6.52983e-06
1.13392
0.00741266
2.02774e-06
1.13392
0.00741267
-2.20023e-06
1.13392
0.00741348
-6.14244e-06
1.13392
0.00741399
1.1339
0.0074077
6.55577e-06
0.974817
0.138995
5.52531e-06
0.974838
0.139002
1.49508e-07
0.974837
0.139003
-4.70748e-06
0.974833
0.139004
-6.31136e-06
0.974833
0.139
0.974804
0.139
5.4949e-06
0.547853
0.426999
5.16291e-06
0.547877
0.427002
-7.39571e-07
0.54788
0.427004
-6.80218e-06
0.547875
0.427004
-1.10915e-05
0.547884
0.426995
0.547832
0.427002
7.17318e-06
0.000702934
0.547183
3.97534e-06
0.000723458
0.547198
-6.85964e-07
0.000728494
0.547197
-5.83061e-06
0.000724382
0.547197
-1.04917e-05
0.000736512
0.547192
0.000672311
0.54719
2.33825e-05
-0.316762
0.31753
5.88199e-06
-0.316735
0.317565
-1.77757e-06
-0.316732
0.317557
-7.49611e-06
-0.316735
0.317554
-2.71114e-05
-0.316716
0.317561
-0.316787
0.317521
-1.62946e-05
-0.317509
-1.87517e-05
-0.317496
-1.3415e-05
-0.317501
-4.73309e-06
-0.317507
1.78399e-05
-0.317502
-0.317533
-4.83337e-07
0.0273216
-8.04131e-07
-2.32823e-07
0.0273202
-8.0403e-07
1.17579e-06
0.027321
-8.04168e-07
9.27321e-07
0.0273193
-8.04272e-07
-6.70166e-07
0.0273185
-8.04245e-07
0.0273236
-8.0438e-07
-2.78909e-07
0.0167986
-3.0016e-06
-1.36133e-07
0.016798
-3.0016e-06
3.50374e-07
0.0167975
-3.00171e-06
5.26749e-07
0.0167983
-3.00167e-06
1.81492e-07
0.0167991
-3.00144e-06
0.0167989
-3.0017e-06
-1.20582e-07
0.0228276
-1.18563e-07
6.28501e-09
0.0228274
-1.18626e-07
1.59913e-07
0.0228264
-1.18605e-07
3.40757e-07
0.0228277
-1.18599e-07
4.26879e-07
0.0228292
-1.18626e-07
0.0228278
-1.18564e-07
1.18098e-07
0.049125
-7.25105e-08
1.68407e-07
0.0491264
-7.24449e-08
3.02213e-07
0.0491246
-7.24447e-08
4.46637e-07
0.0491258
-7.23981e-08
3.1509e-07
0.0491283
-7.2381e-08
0.0491259
-7.25538e-08
7.57924e-07
0.0960464
-7.84464e-08
4.08107e-07
0.0960504
-7.84363e-08
5.4219e-07
0.0960472
-7.8416e-08
6.09272e-07
0.0960482
-7.84071e-08
-1.10216e-07
0.0960522
-7.84189e-08
0.0960482
-7.84417e-08
2.20072e-06
0.167846
-9.1883e-09
7.71387e-07
0.167854
-9.18749e-09
8.01374e-07
0.167848
-9.17603e-09
8.22991e-07
0.167849
-9.16511e-09
-8.19751e-07
0.167856
-9.18681e-09
0.167848
-9.18601e-09
4.14977e-06
0.28348
-1.36354e-09
1.06476e-06
0.283495
-1.4244e-09
7.85965e-07
0.283486
-1.42567e-09
7.26617e-07
0.283487
-1.42834e-09
-1.92643e-06
0.283496
-1.47644e-09
0.283483
-1.36091e-09
7.74897e-06
0.514149
0.00800511
1.4377e-06
0.514174
0.00800591
8.14189e-07
0.514159
0.00800548
4.83367e-07
0.514159
0.00800542
-4.58524e-06
0.514171
0.00800577
0.514154
0.00800516
2.35481e-05
0.876856
0.0731621
6.87759e-06
0.876941
0.0731621
2.93677e-06
0.8769
0.0731615
-6.12996e-07
0.876899
0.0731615
-1.55036e-05
0.876925
0.0731609
0.876878
0.0731616
4.78748e-05
0.804786
0.51817
2.04535e-05
0.804951
0.518167
1.0242e-05
0.804894
0.518167
-8.02259e-07
0.804893
0.518166
-2.83941e-05
0.804941
0.518158
0.804821
0.518175
5.11495e-05
0.37562
0.746748
1.84728e-05
0.375795
0.746856
8.65174e-06
0.375751
0.746812
-3.273e-06
0.37575
0.746812
-2.76741e-05
0.375799
0.746831
0.375657
0.74676
-5.49855e-05
0.0582248
-2.20767e-05
0.0583253
-6.47887e-06
0.0582934
6.01945e-06
0.058289
4.4515e-05
0.0583167
0.058228
-2.86236e-12
3.68716e-09
-7.95611e-07
-1.41557e-12
3.68636e-09
-7.95513e-07
-6.66977e-13
3.6864e-09
-7.95651e-07
9.50762e-13
3.68673e-09
-7.95756e-07
3.30199e-12
3.68713e-09
-7.95728e-07
3.68779e-09
-7.95857e-07
-4.76058e-12
1.50003e-08
-3.0098e-06
-1.71976e-12
1.49993e-08
-3.00982e-06
3.34049e-13
1.49988e-08
-3.00993e-06
2.68924e-12
1.49989e-08
-3.00989e-06
6.07306e-12
1.49994e-08
-3.00966e-06
1.50008e-08
-3.0099e-06
-3.2192e-13
2.64978e-09
-1.03869e-07
-8.54766e-14
2.65041e-09
-1.03943e-07
9.24436e-14
2.6501e-09
-1.03924e-07
2.37104e-13
2.64983e-09
-1.03919e-07
4.243e-13
2.65028e-09
-1.0395e-07
2.64993e-09
-1.03869e-07
-1.52626e-13
2.15473e-09
-7.12028e-08
-5.82412e-14
2.15386e-09
-7.1152e-08
1.69829e-14
2.15395e-09
-7.11624e-08
8.77913e-14
2.15318e-09
-7.11192e-08
1.88913e-13
2.15288e-09
-7.11002e-08
2.15527e-09
-7.12431e-08
-1.19839e-13
2.42593e-09
-7.95775e-08
-7.18827e-14
2.42662e-09
-7.95788e-08
-2.63062e-14
2.4266e-09
-7.95753e-08
2.9221e-14
2.42655e-09
-7.95709e-08
1.06616e-13
2.42685e-09
-7.95675e-08
2.42552e-09
-7.95678e-08
-3.2244e-14
6.90004e-10
-8.94715e-09
-2.98482e-14
6.91007e-10
-8.94823e-09
-1.84192e-14
6.92007e-10
-8.94729e-09
-2.03436e-15
6.92212e-10
-8.94586e-09
1.33938e-14
6.91471e-10
-8.94491e-09
6.89331e-10
-8.9409e-09
-7.9948e-15
2.50761e-10
-2.09076e-09
-6.42602e-15
2.59084e-10
-2.14417e-09
-4.27477e-15
2.59395e-10
-2.15238e-09
-1.1769e-15
2.58692e-10
-2.15961e-09
3.29539e-15
2.66134e-10
-2.18689e-09
2.49829e-10
-2.08182e-09
-5.41997e-08
0.00792007
8.47669e-05
-3.59397e-08
0.00792086
8.47e-05
-3.27803e-08
0.00792043
8.47186e-05
-2.84449e-08
0.00792037
8.47213e-05
5.68753e-08
0.00792066
8.4696e-05
0.00792014
8.47455e-05
9.76887e-07
0.0789579
0.00197395
4.81244e-09
0.0789642
0.0019707
1.21775e-08
0.0789609
0.00197192
-4.8726e-08
0.0789607
0.0019721
-6.44329e-07
0.0789619
0.00197098
0.0789593
0.0019729
3.09323e-05
0.399278
-0.0368635
5.65952e-06
0.399327
-0.0368932
6.73013e-06
0.399307
-0.0368806
4.55616e-06
0.39931
-0.0368805
-1.55306e-05
0.399322
-0.0368895
0.39929
-0.0368736
0.000159809
0.309472
0.723859
3.91482e-05
0.30979
0.723989
1.44389e-05
0.309681
0.723933
-9.12052e-07
0.309689
0.723918
-7.61006e-05
0.309775
0.723929
0.309545
0.7239
-0.000114666
0.367813
-2.34202e-05
0.368026
-7.15864e-06
0.36796
1.09498e-05
0.367961
8.55625e-05
0.368019
0.367861
-3.39908e-12
-4.37331e-07
-1.25216e-07
-1.48405e-13
-4.37218e-07
-1.25161e-07
-4.98675e-12
-4.37263e-07
-1.25212e-07
-5.87691e-12
-4.37273e-07
-1.25263e-07
1.12391e-12
-4.37233e-07
-1.25262e-07
-4.37407e-07
-1.25303e-07
1.08728e-11
-4.00053e-07
-1.6843e-06
1.94381e-11
-4.00002e-07
-1.68434e-06
-1.39683e-11
-4.00013e-07
-1.68441e-06
-1.48823e-11
-4.00027e-07
-1.6844e-06
2.66675e-11
-4.00018e-07
-1.68424e-06
-4.00082e-07
-1.68435e-06
2.14233e-14
-7.52432e-08
-4.64844e-07
4.69164e-13
-7.52e-08
-4.64926e-07
-5.82617e-13
-7.52059e-08
-4.64918e-07
-5.17969e-13
-7.51775e-08
-4.64939e-07
1.89911e-12
-7.51689e-08
-4.64958e-07
-7.52726e-08
-4.64855e-07
-2.65173e-12
-5.39417e-08
-2.19016e-08
-2.26996e-12
-5.39205e-08
-2.18263e-08
-2.16876e-12
-5.39228e-08
-2.18422e-08
-1.42629e-12
-5.39147e-08
-2.17871e-08
1.18099e-12
-5.39102e-08
-2.17693e-08
-5.39469e-08
-2.19734e-08
-5.58812e-12
-2.12435e-08
-4.99649e-08
-4.48353e-12
-2.12227e-08
-4.99691e-08
-3.56654e-12
-2.12211e-08
-4.99658e-08
-1.94728e-12
-2.12155e-08
-4.99631e-08
2.11225e-12
-2.12056e-08
-4.9965e-08
-2.12414e-08
-4.99656e-08
-1.04647e-12
2.21312e-09
-2.72878e-08
-6.95898e-13
2.1837e-09
-2.72809e-08
-5.43795e-13
2.18642e-09
-2.7281e-08
-2.38514e-13
2.18899e-09
-2.72763e-08
5.8867e-13
2.15754e-09
-2.72712e-08
2.21414e-09
-2.72788e-08
-2.52203e-13
-3.15162e-10
-1.09171e-09
-2.65829e-14
-4.51506e-10
-1.04012e-09
5.6723e-14
-4.72078e-10
-1.03455e-09
1.40279e-13
-4.95511e-10
-1.02517e-09
4.30629e-13
-5.61817e-10
-9.95668e-10
-3.05148e-10
-1.0878e-09
-4.00739e-10
8.49123e-05
-5.3703e-09
9.49263e-10
8.48428e-05
-5.38769e-09
1.51382e-09
8.48624e-05
-5.39066e-09
1.35289e-09
8.48659e-05
-5.39359e-09
2.14336e-09
8.48392e-05
-5.40133e-09
8.48924e-05
-5.36931e-09
2.06662e-08
0.00193039
0.0001147
3.30133e-08
0.00192693
0.000114835
2.82989e-08
0.00192825
0.000114781
1.89933e-08
0.00192844
0.00011478
6.78025e-09
0.00192718
0.000114872
0.00192934
0.000114711
4.97691e-06
-0.0569135
0.00256317
9.02001e-07
-0.056752
0.0025666
5.04512e-07
-0.0568097
0.00256524
5.3866e-07
-0.0568187
0.00256517
-2.51144e-06
-0.0567606
0.00256755
-0.0568525
0.00256345
0.000196006
0.101785
0.0692254
2.97767e-05
0.102036
0.0694428
6.80591e-06
0.101944
0.0693611
1.22435e-05
0.101924
0.0693428
-0.000100411
0.101928
0.069449
0.101902
0.0692817
-7.60805e-05
0.468613
8.43908e-06
0.468917
2.56193e-05
0.468825
3.42029e-05
0.468815
1.27695e-05
0.468907
0.468714
-4.60704e-44
-4.70558e-37
2.86324e-40
-3.97635e-44
-4.64308e-37
2.82315e-40
-3.7189e-44
-4.60547e-37
2.79947e-40
-3.10401e-44
-4.76745e-37
2.90571e-40
-1.96842e-44
-4.72389e-37
2.86955e-40
-4.60498e-37
2.80264e-40
-5.88907e-41
-7.46978e-34
4.89884e-37
-7.78142e-41
-7.3764e-34
4.83371e-37
-9.0638e-41
-7.31879e-34
4.79445e-37
-8.42311e-41
-7.54933e-34
4.96294e-37
-5.28913e-41
-7.51121e-34
4.91738e-37
-7.30367e-34
4.79326e-37
-6.06159e-38
-5.59942e-31
4.12883e-34
-1.04957e-37
-5.5341e-31
4.07726e-34
-1.2827e-37
-5.49256e-31
4.04536e-34
-1.21116e-37
-5.64068e-31
4.17263e-34
-8.10092e-38
-5.63932e-31
4.15131e-34
-5.46708e-31
4.03619e-34
-7.88562e-35
-2.59663e-28
2.2272e-31
-1.09905e-34
-2.56857e-28
2.20095e-31
-1.17762e-34
-2.5501e-28
2.18421e-31
-1.02954e-34
-2.60548e-28
2.24284e-31
-6.76473e-35
-2.61862e-28
2.24198e-31
-2.53056e-28
2.17306e-31
-5.63327e-32
-8.22694e-26
8.36701e-29
-5.92755e-32
-8.14506e-26
8.27171e-29
-4.86087e-32
-8.08928e-26
8.20965e-29
-3.25706e-32
-8.21908e-26
8.38583e-29
-1.7373e-32
-8.30465e-26
8.4263e-29
-8.00198e-26
8.14101e-29
-2.08284e-29
-1.86335e-23
2.22956e-26
-1.32654e-29
-1.84636e-23
2.20412e-26
-1.57367e-30
-1.83449e-23
2.18769e-26
7.28209e-30
-1.85345e-23
2.2221e-26
8.68652e-30
-1.88189e-23
2.24497e-26
-1.80963e-23
2.16319e-26
-2.77479e-27
-3.08491e-21
4.18385e-24
2.19873e-27
-3.0594e-21
4.13517e-24
7.51684e-27
-3.04149e-21
4.10537e-24
1.03369e-26
-3.05636e-21
4.14752e-24
8.66066e-27
-3.11555e-21
4.21287e-24
-2.99443e-21
4.0544e-24
3.16372e-25
-3.77491e-19
5.00053e-22
1.94227e-24
-3.74731e-19
4.94102e-22
3.27515e-24
-3.72846e-19
4.91027e-22
3.69253e-24
-3.72725e-19
4.93907e-22
2.81586e-24
-3.80974e-19
5.04392e-22
-3.66753e-19
4.8607e-22
1.90035e-22
-3.49226e-17
2.65515e-20
4.46949e-22
-3.47082e-17
2.61972e-20
6.14378e-22
-3.45758e-17
2.61466e-20
6.31824e-22
-3.43701e-17
2.63184e-20
4.52898e-22
-3.51803e-17
2.71339e-20
-3.40051e-17
2.6382e-20
2.43719e-20
-1.17537e-16
-5.92872e-20
4.31576e-20
-1.16575e-16
-6.2927e-20
5.26164e-20
-1.15967e-16
-6.90117e-20
5.00009e-20
-1.15776e-16
-7.15899e-20
3.51067e-20
-1.19196e-16
-4.7177e-20
-1.14021e-16
-8.62949e-20
1.95466e-18
-1.5335e-13
7.85398e-14
2.2258e-18
-1.53198e-13
7.78593e-14
2.14709e-18
-1.53455e-13
7.7448e-14
1.90645e-18
-1.50948e-13
7.67751e-14
1.57718e-18
-1.5361e-13
8.11562e-14
-1.52141e-13
7.56192e-14
-1.16254e-16
-5.95361e-13
-2.15026e-16
-5.93615e-13
-2.42939e-16
-5.93581e-13
-2.6618e-16
-5.85938e-13
-2.26735e-16
-5.99201e-13
-5.87082e-13
-3.0609e-43
-4.3649e-36
4.68225e-39
-2.71934e-43
-4.31298e-36
4.62491e-39
-2.42747e-43
-4.26271e-36
4.56757e-39
-1.89062e-43
-4.27583e-36
4.58215e-39
-8.04678e-44
-4.32444e-36
4.61853e-39
-4.11239e-36
4.39418e-39
-5.26165e-40
-7.98655e-33
9.07645e-36
-6.98305e-40
-7.89419e-33
8.96804e-36
-7.26668e-40
-7.80752e-33
8.86312e-36
-6.23479e-40
-7.82874e-33
8.89004e-36
-3.31175e-40
-7.94352e-33
8.99067e-36
-7.54963e-33
8.54919e-36
-8.484e-37
-6.9864e-30
8.6596e-33
-1.1655e-36
-6.90786e-30
8.55897e-33
-1.14424e-36
-6.83634e-30
8.4646e-33
-9.63356e-37
-6.85101e-30
8.48718e-33
-5.97799e-37
-6.97227e-30
8.61108e-33
-6.62318e-30
8.18332e-33
-7.69384e-34
-3.85336e-27
5.28175e-30
-7.39549e-34
-3.81121e-27
5.22146e-30
-5.15134e-34
-3.7739e-27
5.16684e-30
-3.2342e-34
-3.77899e-27
5.1774e-30
-2.0724e-34
-3.85592e-27
5.26845e-30
-3.66176e-27
5.00389e-30
-1.35992e-31
-1.49742e-24
2.266e-27
1.83181e-31
-1.48145e-24
2.23998e-27
4.96574e-31
-1.46769e-24
2.21747e-27
5.89236e-31
-1.46808e-24
2.22005e-27
4.11785e-31
-1.50117e-24
2.26491e-27
-1.42567e-24
2.15055e-27
1.40217e-28
-4.35554e-22
7.11908e-25
4.5331e-28
-4.31024e-22
7.03455e-25
6.71749e-28
-4.27212e-22
6.96594e-25
6.9511e-28
-4.26682e-22
6.96652e-25
4.91072e-28
-4.37005e-22
7.12348e-25
-4.15282e-22
6.76612e-25
2.26825e-25
-9.85273e-20
1.66206e-22
3.81697e-25
-9.75316e-20
1.64118e-22
4.48611e-25
-9.67089e-20
1.62572e-22
4.22342e-25
-9.63674e-20
1.62384e-22
2.917e-25
-9.88021e-20
1.66401e-22
-9.40246e-20
1.58279e-22
9.15279e-23
-1.79219e-17
2.7283e-20
1.40015e-22
-1.77529e-17
2.69333e-20
1.574e-22
-1.76125e-17
2.67051e-20
1.43821e-22
-1.74846e-17
2.66414e-20
9.58576e-23
-1.79356e-17
2.73678e-20
-1.71131e-17
2.61153e-20
2.3786e-20
-2.884e-17
4.88287e-17
2.97801e-20
-2.83841e-17
4.85481e-17
2.79589e-20
-2.79334e-17
4.84974e-17
2.19093e-20
-2.78375e-17
4.8616e-17
1.37268e-20
-2.86749e-17
5.03751e-17
-2.66317e-17
4.86699e-17
5.45346e-18
-3.2019e-14
-2.66689e-14
6.86693e-18
-3.16587e-14
-2.59985e-14
6.484e-18
-3.13763e-14
-2.50203e-14
5.26725e-18
-3.15305e-14
-2.45419e-14
4.29442e-18
-3.30348e-14
-2.47493e-14
-3.06706e-14
-2.19369e-14
-6.86099e-16
-9.92946e-11
9.90134e-11
-3.35177e-15
-9.91204e-11
9.88423e-11
-5.64073e-15
-9.9204e-11
9.8926e-11
-6.00452e-15
-9.74941e-11
9.72174e-11
-6.58826e-16
-9.91573e-11
9.88697e-11
-9.81723e-11
9.78957e-11
-2.22864e-13
-1.16353e-10
-3.32284e-13
-1.16305e-10
-3.05731e-13
-1.1661e-10
-3.64737e-13
-1.14403e-10
-3.33036e-13
-1.16461e-10
-1.15711e-10
-7.44657e-39
-2.29446e-31
4.53534e-34
-4.27233e-39
-2.28665e-31
4.51905e-34
-2.49534e-39
-2.28386e-31
4.51434e-34
-2.37292e-40
-2.27356e-31
4.49355e-34
1.99813e-39
-2.30358e-31
4.54992e-34
-2.2741e-31
4.49359e-34
-9.56034e-36
-3.39382e-28
7.38465e-31
-1.15948e-35
-3.38253e-28
7.35925e-31
-8.4608e-36
-3.37726e-28
7.35011e-31
-2.82187e-36
-3.36323e-28
7.31682e-31
2.60642e-36
-3.41228e-28
7.41333e-31
-3.36195e-28
7.31832e-31
-1.80178e-32
-2.3026e-25
5.75033e-28
-1.63315e-32
-2.29485e-25
5.73091e-28
-5.55026e-33
-2.29011e-25
5.72182e-28
4.16986e-33
-2.28212e-25
5.69793e-28
7.38664e-33
-2.32063e-25
5.7809e-28
-2.27744e-25
5.6955e-28
-9.37887e-30
-9.32239e-23
2.7492e-25
4.15216e-30
-9.28948e-23
2.73957e-25
1.93394e-29
-9.26427e-23
2.73372e-25
2.62012e-29
-9.24018e-23
2.72405e-25
2.09548e-29
-9.42603e-23
2.76991e-25
-9.19645e-23
2.71826e-25
3.83779e-27
-2.47506e-20
8.71134e-23
1.53895e-26
-2.46574e-20
8.67765e-23
2.41445e-26
-2.45744e-20
8.65282e-23
2.57608e-26
-2.45298e-20
8.62967e-23
1.86826e-26
-2.51167e-20
8.80293e-23
-2.43371e-20
8.58865e-23
4.4876e-24
-4.49571e-18
1.86583e-20
9.17125e-24
-4.47795e-18
1.85765e-20
1.18036e-23
-4.46106e-18
1.85099e-20
1.14746e-23
-4.45343e-18
1.84755e-20
8.00731e-24
-4.57582e-18
1.89189e-20
-4.40797e-18
1.83355e-20
1.32087e-21
-5.68502e-16
2.70625e-18
2.33587e-21
-5.66292e-16
2.69324e-18
2.80747e-21
-5.64228e-16
2.68262e-18
2.62341e-21
-5.62606e-16
2.6784e-18
1.77956e-21
-5.79443e-16
2.75295e-18
-5.56691e-16
2.65351e-18
2.20962e-19
-8.09666e-16
2.55989e-16
3.28453e-19
-8.06265e-16
2.54784e-16
3.46149e-19
-8.01474e-16
2.5389e-16
2.83333e-19
-8.04383e-16
2.53305e-16
1.66136e-19
-8.40285e-16
2.61112e-16
-7.82879e-16
2.51156e-16
3.87945e-17
-3.69923e-14
3.48581e-14
5.19552e-17
-3.68026e-14
3.47101e-14
5.23038e-17
-3.67186e-14
3.4656e-14
3.53082e-17
-3.64349e-14
3.43965e-14
1.42896e-17
-3.79299e-14
3.58116e-14
-3.63234e-14
3.4355e-14
-4.51945e-17
-4.97444e-10
1.70067e-11
-2.52843e-15
-4.95232e-10
1.68623e-11
-4.9507e-15
-4.93273e-10
1.67376e-11
-8.4566e-15
-4.94832e-10
1.64589e-11
-7.21032e-15
-5.11701e-10
1.70089e-11
-4.87193e-10
1.62722e-11
-1.13838e-12
-2.26425e-08
-6.4458e-08
-1.71148e-12
-2.26377e-08
-6.42889e-08
-2.35923e-12
-2.26685e-08
-6.41574e-08
-2.38253e-12
-2.23566e-08
-6.36972e-08
-1.37379e-12
-2.27772e-08
-6.57533e-08
-2.24745e-08
-6.32711e-08
-3.32807e-11
-1.0228e-06
-3.2903e-11
-1.02467e-06
1.52482e-11
-1.02917e-06
-3.135e-11
-1.00298e-06
-1.44686e-10
-1.02231e-06
-1.01516e-06
-2.30664e-41
-5.07707e-33
1.10086e-35
6.39993e-41
-5.03905e-33
1.09315e-35
1.23589e-40
-5.02678e-33
1.09081e-35
1.5122e-40
-5.04636e-33
1.09366e-35
1.41105e-40
-5.20089e-33
1.12329e-35
-4.99884e-33
1.08479e-35
1.38092e-37
-1.06351e-29
2.3743e-32
2.55249e-37
-1.05509e-29
2.35642e-32
3.76172e-37
-1.05222e-29
2.35066e-32
4.40615e-37
-1.0573e-29
2.35981e-32
3.72025e-37
-1.09315e-29
2.43208e-32
-1.04591e-29
2.3376e-32
2.65169e-34
-1.0971e-26
2.63966e-29
6.69546e-34
-1.08815e-26
2.61862e-29
1.09517e-33
-1.08496e-26
2.61146e-29
1.21376e-33
-1.09052e-26
2.62406e-29
8.62401e-34
-1.13034e-26
2.71305e-29
-1.07764e-26
2.59583e-29
1.25234e-30
-7.29296e-24
1.95973e-26
2.44e-30
-7.23362e-24
1.94358e-26
3.0953e-30
-7.21187e-24
1.93785e-26
3.02261e-30
-7.24521e-24
1.94779e-26
2.08525e-30
-7.52247e-24
2.01896e-26
-7.15669e-24
1.92487e-26
2.23986e-27
-3.47281e-21
1.06555e-23
3.38297e-27
-3.44563e-21
1.05672e-23
3.64072e-27
-3.43558e-21
1.05351e-23
3.17427e-27
-3.44669e-21
1.0584e-23
2.01939e-27
-3.58192e-21
1.09896e-23
-3.40569e-21
1.0456e-23
1.77293e-24
-1.26031e-18
4.43677e-21
2.1589e-24
-1.25126e-18
4.4011e-21
1.93496e-24
-1.24796e-18
4.38819e-21
1.42116e-24
-1.249e-18
4.40264e-21
7.68131e-25
-1.29858e-18
4.57594e-21
-1.23543e-18
4.35165e-21
7.18264e-22
-4.14312e-16
2.42613e-16
6.00105e-22
-4.12157e-16
2.41632e-16
2.85218e-22
-4.1141e-16
2.41348e-16
1.12348e-23
-4.09414e-16
2.38472e-16
-1.1765e-22
-4.23973e-16
2.46737e-16
-4.07158e-16
2.38855e-16
4.75467e-20
-4.91852e-14
4.86429e-14
-1.00318e-19
-4.91844e-14
4.86453e-14
-2.57329e-19
-4.92086e-14
4.86703e-14
-3.25332e-19
-4.83809e-14
4.78444e-14
-2.24254e-19
-4.92193e-14
4.86623e-14
-4.88798e-14
4.83469e-14
-1.28234e-16
-5.75548e-12
5.6759e-12
-3.59048e-16
-5.76759e-12
5.6883e-12
-5.39972e-16
-5.77772e-12
5.6984e-12
-5.52818e-16
-5.66623e-12
5.58784e-12
-2.50503e-16
-5.72597e-12
5.64515e-12
-5.75354e-12
5.67473e-12
-1.02244e-13
-3.69844e-10
3.47966e-10
-4.4881e-13
-3.71882e-10
3.50233e-10
-8.05415e-13
-3.73594e-10
3.51871e-10
-9.46843e-13
-3.65429e-10
3.43641e-10
-1.05986e-13
-3.74193e-10
3.50559e-10
-3.71929e-10
3.49821e-10
7.46631e-11
-8.67991e-06
-5.89023e-08
-4.04566e-11
-8.67555e-06
-5.47176e-08
-4.82872e-10
-8.67861e-06
-4.80686e-08
-8.16545e-10
-8.53946e-06
-6.40577e-08
2.02244e-09
-8.79867e-06
-7.01283e-08
-8.51782e-06
-6.40761e-08
-2.41143e-09
-0.000199903
1.28611e-08
-0.000200125
5.31997e-08
-0.000200586
-1.85365e-09
-0.000196631
5.20185e-08
-0.000199868
-0.000198303
1.6414e-12
-6.44961e-09
2.81371e-09
3.20266e-13
-6.44545e-09
2.82221e-09
-7.65353e-13
-6.44897e-09
2.82048e-09
-1.48939e-12
-6.45284e-09
2.82227e-09
-2.22627e-12
-6.45343e-09
2.82816e-09
-6.45583e-09
2.81408e-09
2.74329e-15
6.02955e-16
-6.85927e-09
8.8271e-16
6.60438e-16
-6.85158e-09
-1.27219e-16
6.77909e-16
-6.85503e-09
-9.7519e-16
6.62835e-16
-6.85456e-09
-2.81271e-15
6.58928e-16
-6.84818e-09
6.74669e-16
-6.86244e-09
-1.66238e-20
-6.03495e-18
-7.24436e-21
-6.60936e-18
-1.62423e-21
-6.78435e-18
4.28466e-21
-6.63336e-18
1.67069e-20
-6.59392e-18
-6.75227e-18
6.16869e-11
-4.56648e-07
2.46173e-07
1.99516e-11
-4.56559e-07
2.46163e-07
-1.01402e-11
-4.5665e-07
2.46174e-07
-3.69642e-11
-4.56622e-07
2.4617e-07
-7.4532e-11
-4.56417e-07
2.46151e-07
-4.56692e-07
2.4618e-07
1.86365e-11
3.20047e-15
-6.07527e-15
5.78065e-12
3.5054e-15
-5.86924e-15
-1.89117e-12
3.59835e-15
-5.8855e-15
-9.26045e-12
3.51831e-15
-5.83877e-15
-2.26058e-11
3.49756e-15
-5.75091e-15
3.58144e-15
-5.91957e-15
-8.96276e-20
-4.46553e-17
-3.86321e-20
-4.89007e-17
-7.04449e-21
-5.01953e-17
2.80297e-20
-4.90764e-17
1.02457e-19
-4.87825e-17
-4.99604e-17
1.33495e-11
-3.14992e-13
-2.11014e-08
2.41382e-12
-3.0512e-13
-2.1104e-08
-3.58523e-12
-3.05638e-13
-2.11037e-08
-1.11276e-11
-3.03301e-13
-2.11022e-08
-2.21992e-11
-2.99402e-13
-2.11026e-08
-3.06774e-13
-2.11006e-08
2.4377e-19
2.08173e-14
-3.41885e-13
5.83379e-20
2.28016e-14
-3.3379e-13
-4.68183e-20
2.34055e-14
-3.34929e-13
-1.42102e-19
2.28848e-14
-3.32025e-13
-3.25086e-19
2.27503e-14
-3.27903e-13
2.32939e-14
-3.35988e-13
-5.3131e-19
-3.22292e-16
-1.49301e-19
-3.52977e-16
7.42644e-20
-3.62301e-16
2.85768e-19
-3.54224e-16
7.81544e-19
-3.52115e-16
-3.60573e-16
1.10328e-13
-2.50026e-10
-5.27166e-09
1.13604e-14
-2.44961e-10
-5.27995e-09
-4.15122e-14
-2.45776e-10
-5.27807e-09
-1.25588e-13
-2.43426e-10
-5.28419e-09
-2.47578e-13
-2.41283e-10
-5.286e-09
-2.48891e-10
-5.263e-09
1.04096e-16
1.49747e-14
-2.77172e-10
1.52233e-17
1.64009e-14
-2.71251e-10
-2.5285e-17
1.68348e-14
-2.7217e-10
-5.71365e-17
1.64594e-14
-2.69652e-10
-1.37043e-16
1.63625e-14
-2.66965e-10
1.67532e-14
-2.74764e-10
-3.25983e-19
3.82994e-18
-3.60959e-20
4.1937e-18
1.05378e-19
4.3073e-18
2.10476e-19
4.21077e-18
4.94784e-19
4.18464e-18
4.26334e-18
8.18423e-13
-7.7989e-09
1.04847e-08
3.27665e-13
-7.80181e-09
1.04764e-08
5.03282e-14
-7.79928e-09
1.0478e-08
-5.60018e-13
-7.80054e-09
1.04749e-08
-1.48467e-12
-7.7946e-09
1.04717e-08
-7.78443e-09
1.04816e-08
1.08726e-13
8.07851e-16
-5.59902e-14
3.06543e-14
8.85181e-16
-5.54246e-14
1.28921e-16
9.09056e-16
-5.55097e-14
-2.68551e-14
8.88645e-16
-5.52698e-14
-1.08907e-13
8.83186e-16
-5.50096e-14
8.99314e-16
-5.57613e-14
-2.2103e-20
-6.38234e-19
-5.27751e-21
-6.36208e-19
2.38453e-21
-6.36878e-19
7.79023e-21
-6.37902e-19
2.22118e-20
-6.37976e-19
-6.37661e-19
5.36475e-13
-1.47612e-11
-5.97053e-11
1.45116e-13
-1.47656e-11
-5.83327e-11
-2.28892e-13
-1.47648e-11
-5.81192e-11
-3.18131e-13
-1.47652e-11
-5.79274e-11
-4.97251e-13
-1.47647e-11
-5.72378e-11
-1.47629e-11
-5.97164e-11
9.72799e-18
-1.06622e-15
-1.48165e-11
3.92351e-18
-1.06304e-15
-1.48203e-11
7.16056e-19
-1.06409e-15
-1.48197e-11
-2.4682e-18
-1.06574e-15
-1.48198e-11
-1.02228e-17
-1.06586e-15
-1.4819e-11
-1.06519e-15
-1.4818e-11
4.96902e-22
-1.07461e-15
1.27291e-22
-1.07297e-15
-8.58916e-23
-1.07444e-15
-2.23875e-22
-1.07565e-15
-4.33425e-22
-1.07567e-15
-1.07528e-15
1.46667e-15
-4.1089e-11
-5.60075e-11
1.3972e-15
-4.09034e-11
-5.9379e-11
1.28851e-15
-4.08732e-11
-5.98351e-11
6.26425e-16
-4.08297e-11
-6.04625e-11
-6.60394e-16
-4.07306e-11
-6.19955e-11
-4.10737e-11
-5.60642e-11
6.02485e-16
-5.48746e-14
-5.60509e-11
2.12453e-16
-5.46806e-14
-5.58681e-11
6.1494e-18
-5.46811e-14
-5.58376e-11
-7.19112e-16
-5.46682e-14
-5.5794e-11
-1.53747e-15
-5.45816e-14
-5.56939e-11
-5.48786e-14
-5.60381e-11
2.00676e-19
-5.59652e-14
-7.33556e-20
-5.5769e-14
-1.88955e-19
-5.57711e-14
-1.6483e-19
-5.57595e-14
-1.29402e-19
-5.56728e-14
-5.59698e-14
7.32148e-15
-8.46431e-09
3.10657e-09
1.623e-14
-8.46728e-09
3.11212e-09
1.80058e-14
-8.46919e-09
3.11532e-09
9.86411e-15
-8.47154e-09
3.11754e-09
-2.09137e-16
-8.47344e-09
3.12112e-09
-8.46504e-09
3.10509e-09
-3.65259e-14
-5.12459e-11
-8.34344e-09
-1.50226e-13
-5.126e-11
-8.35676e-09
-1.82881e-13
-5.12688e-11
-8.35395e-09
-1.2241e-13
-5.12894e-11
-8.35666e-09
1.09287e-13
-5.13005e-11
-8.3626e-09
-5.12711e-11
-8.35101e-09
4.16046e-16
-5.12938e-11
-3.70012e-16
-5.13066e-11
-5.17383e-16
-5.1316e-11
-1.87844e-16
-5.13371e-11
6.9985e-17
-5.1348e-11
-5.13185e-11
1.52836e-09
8.01327e-06
0.000106461
2.5823e-09
8.00926e-06
0.000106601
3.33026e-09
8.01126e-06
0.000106545
2.16081e-09
8.01922e-06
0.000106542
-6.79905e-10
8.03178e-06
0.000106628
7.99358e-06
0.000106484
7.11044e-12
1.98917e-07
7.77863e-06
-2.55607e-11
1.98775e-07
7.77481e-06
-1.09571e-11
1.98848e-07
7.77667e-06
4.65116e-11
1.98941e-07
7.78446e-06
1.09454e-10
1.9894e-07
7.79693e-06
1.98842e-07
7.75913e-06
-2.28024e-13
1.98866e-07
-1.12689e-12
1.98724e-07
-1.29756e-12
1.98797e-07
-5.32396e-13
1.98889e-07
7.31476e-13
1.98887e-07
1.98792e-07
1.04717e-07
0.000136406
0.00252168
1.11573e-07
0.000136515
0.00252525
1.13423e-07
0.000136515
0.00252384
9.8398e-08
0.000136736
0.00252356
7.58453e-08
0.000137181
0.0025256
0.000135826
0.00252274
-4.81715e-09
9.97581e-05
4.35757e-05
-8.73027e-09
9.96576e-05
4.37803e-05
-1.48462e-08
9.96842e-05
4.37574e-05
4.69483e-09
9.9669e-05
4.39759e-05
8.1966e-08
9.94848e-05
4.45598e-05
9.98442e-05
4.29672e-05
5.64623e-10
9.02967e-05
2.25658e-11
9.02027e-05
-6.30053e-10
9.0224e-05
2.43103e-10
9.01941e-05
4.71945e-09
8.99851e-05
9.04212e-05
1.42283e-06
9.29524e-05
0.0702283
2.86671e-07
0.00010271
0.0704489
-3.1562e-07
9.9251e-05
0.0703666
1.35181e-07
9.85631e-05
0.0703472
1.04733e-06
0.000103807
0.0704527
9.43977e-05
0.0702888
-2.14221e-06
0.0132144
-0.0257278
1.18204e-06
0.0132198
-0.0257249
6.64152e-07
0.0132162
-0.0257193
-1.29458e-06
0.0132152
-0.0257275
1.87253e-06
0.013204
-0.0257091
0.0132284
-0.0257281
-1.09103e-06
6.83661e-21
-2.98569e-07
8.6309e-21
-1.24301e-07
9.32209e-21
-2.48468e-07
9.55474e-21
1.06237e-06
9.2709e-21
6.57587e-21
2.2385e-05
0.118091
0.451357
4.77913e-05
0.118385
0.451623
7.54979e-06
0.118278
0.451435
1.69871e-05
0.118234
0.451186
2.20857e-05
0.118268
0.451425
0.118232
0.451074
1.47626e-05
1.20675e-20
0.187306
4.08239e-05
1.52357e-20
0.187478
7.22465e-05
1.64569e-20
0.18742
-3.69141e-06
1.68601e-20
0.187384
-0.000188423
1.63543e-20
0.187431
1.16072e-20
0.187394
5.82355e-24
-5.86584e-21
9.66443e-24
-7.417e-21
1.34199e-23
-8.00724e-21
1.1084e-23
-8.19925e-21
-9.24962e-24
-7.93228e-21
-5.64981e-21
-4.72136e-06
-0.0155538
-0.025129
0.00022732
4.15584e-05
-0.0156551
-0.025243
0.000223784
0.000155965
-0.0161313
-0.0253872
0.000219574
3.23208e-05
-0.014806
-0.0242411
0.000234961
0.000139979
-0.0151454
-0.0245773
0.000217716
-0.0153128
-0.0248331
0.000235745
2.32491e-05
0.0343608
-0.183084
-1.23724e-05
-8.45909e-05
0.0344746
-0.182497
-1.09741e-05
-0.000206271
0.0353086
-0.20436
-9.2852e-06
-4.34296e-05
0.0333437
-0.164759
-2.20904e-05
0.000233056
0.0334743
-0.165602
-4.98804e-06
0.0344692
-0.194655
-2.79767e-05
4.45232e-05
-0.0703412
-4.96462e-07
-5.3812e-05
-0.0707201
-4.86465e-07
-9.37651e-05
-0.071095
-4.70279e-07
-1.2898e-05
-0.0695947
-5.95567e-07
0.000113363
-0.0683463
-4.29355e-07
-0.0717227
-6.54132e-07
-9.82817e-05
-0.18766
-0.0761358
-0.000134027
-0.188162
-0.0759629
-0.000235931
-0.188253
-0.0759749
1.30348e-05
-0.18752
-0.0765785
0.00141626
-0.187179
-0.0774964
-0.188944
-0.0766225
8.88155e-05
0.0580975
-0.424069
-0.000419739
0.0578516
-0.423107
-0.00232493
0.0631233
-0.425975
-0.000360484
0.0535074
-0.420769
0.00286823
0.0519007
-0.424786
0.0626896
-0.42452
3.64947e-05
4.51161e-23
-8.8751e-05
5.70635e-23
-0.000295638
6.14694e-23
-4.96238e-05
6.1777e-23
0.000539524
5.94646e-23
4.15292e-23
-1.97652e-05
-0.282367
-0.20666
8.66006e-05
-0.282284
-0.206374
0.00018866
-0.28231
-0.206281
0.000307114
-0.282938
-0.20855
0.000350507
-0.283241
-0.211052
-0.283703
-0.205912
-0.000115949
1.96556e-23
-0.286868
-0.000285424
2.48438e-23
-0.287179
-0.000909235
2.6739e-23
-0.286828
-0.000377959
2.69775e-23
-0.286742
0.00118641
2.62517e-23
-0.285332
1.80432e-23
-0.287213
2.80618e-27
1.65482e-22
1.99783e-26
2.09157e-22
2.40449e-26
2.2544e-22
7.46197e-26
2.31719e-22
2.95189e-26
2.24019e-22
1.5697e-22
0.000231349
-0.235908
-0.437559
0.000441027
-0.235861
-0.4372
0.000849823
-0.235752
-0.437024
0.00059231
-0.236517
-0.437797
-0.000549384
-0.236899
-0.438638
-0.235611
-0.437676
-5.75361e-05
7.86664e-23
-0.290932
-1.77939e-05
9.94448e-23
-0.291001
2.15144e-05
1.07161e-22
-0.290901
-7.04938e-05
1.09926e-22
-0.291704
-0.000250024
1.05617e-22
-0.292818
7.53089e-23
-0.289343
7.00709e-26
7.11839e-22
1.41779e-25
8.99641e-22
2.65188e-25
9.70091e-22
4.01236e-25
9.95458e-22
4.86961e-25
9.63009e-22
6.79956e-22
0.000186164
-0.0811487
-0.353834
0.000251163
-0.0813302
-0.353699
0.000415982
-0.0814858
-0.353877
0.000200565
-0.0809219
-0.354223
-0.000604926
-0.0801629
-0.354767
-0.0817075
-0.35367
-1.69825e-05
1.87281e-22
-0.352372
-1.75961e-05
2.36577e-22
-0.352586
-0.000210062
2.5493e-22
-0.352502
-1.30473e-05
2.61763e-22
-0.352542
0.000722228
2.52973e-22
-0.353065
1.78929e-22
-0.351931
4.65897e-25
2.64904e-21
6.0552e-25
3.34895e-21
5.14781e-25
3.61373e-21
1.40733e-24
3.70096e-21
2.05338e-24
3.57954e-21
2.54558e-21
6.62146e-05
0.099702
0.000117216
0.099793
0.000269579
0.0998414
9.86696e-05
0.100036
-0.00065433
0.100314
0.0996524
1.2552e-05
8.14146e-22
1.80338e-05
1.02807e-21
-5.29718e-05
1.10977e-21
1.3341e-05
1.13685e-21
0.000262012
1.1027e-21
7.81456e-22
1.69286e-24
2.18842e-24
1.8141e-24
2.71537e-24
1.7667e-24
4.208e-35
5.35052e-30
-1.61154e-27
6.91111e-35
5.35509e-30
-1.6133e-27
7.24751e-35
5.3561e-30
-1.6136e-27
6.36293e-35
5.32982e-30
-1.60337e-27
4.32028e-35
5.38704e-30
-1.61917e-27
5.34204e-30
-1.60991e-27
2.40734e-37
4.63671e-32
-8.31272e-30
3.40652e-37
4.63956e-32
-8.31976e-30
3.3234e-37
4.64047e-32
-8.32135e-30
2.55794e-37
4.62235e-32
-8.27974e-30
1.25027e-37
4.67546e-32
-8.36894e-30
4.62654e-32
-8.29938e-30
6.33836e-40
-2.80808e-32
7.27059e-40
-2.80928e-32
6.60863e-40
-2.81007e-32
4.12312e-40
-2.80125e-32
3.10862e-41
-2.83049e-32
-2.80189e-32
1.58397e-31
1.16549e-26
-3.13556e-24
1.65089e-31
1.16678e-26
-3.13978e-24
1.69316e-31
1.16701e-26
-3.14044e-24
1.44013e-31
1.15961e-26
-3.11447e-24