/*--------------------------------*- C++ -*----------------------------------*\
| =========                 |                                                 |
| \\      /  F ield         | OpenFOAM: The Open Source CFD Toolbox           |
|  \\    /   O peration     | Version:  v1612+                                |
|   \\  /    A nd           | Web:      www.OpenFOAM.com                      |
|    \\/     M anipulation  |                                                 |
\*---------------------------------------------------------------------------*/
FoamFile
{
    version     2.0;
    format      ascii;
    class       volScalarField;
    location    "3.55";
    object      p_rgh;
}
// * * * * * * * * * * * * * * * * * * * * * * * * * * * * * * * * * * * * * //

dimensions      [1 -1 -2 0 0 0 0];

internalField   nonuniform List<scalar> 
1116
(
7349.09
7349.04
7349.06
7349.06
7349.04
7349.06
7197.97
7197.92
7197.93
7197.94
7197.92
7197.95
7371.74
7371.71
7371.71
7371.73
7371.71
7371.71
7868.71
7868.68
7868.69
7868.7
7868.68
7868.69
8494.77
8494.73
8494.74
8494.75
8494.74
8494.75
9207.25
9207.21
9207.22
9207.22
9207.21
9207.24
10106.2
10106.1
10106.1
10106.1
10106.1
10106.1
11826.9
11826.9
11826.9
11826.9
11826.9
11826.9
14451
14451
14451
14451
14451
14451.1
18251
18250.9
18250.8
18250.8
18250.9
18251.2
22254.1
22254.1
22254.1
22254.1
22254
22253.8
24117.4
24117.4
24117.4
24117.4
24117.3
24117.3
755.186
755.16
755.17
755.141
755.129
755.221
298.182
298.163
298.161
298.167
298.173
298.19
251.233
251.232
251.223
251.239
251.254
251.233
388.34
388.344
388.335
388.349
388.365
388.343
683.488
683.494
683.485
683.498
683.517
683.496
1133.31
1133.31
1133.31
1133.32
1133.34
1133.33
1700.54
1700.55
1700.54
1700.55
1700.58
1700.56
2713.67
2713.6
2713.62
2713.63
2713.64
2713.68
6870.08
6869.84
6869.9
6869.89
6869.85
6870.08
17635.5
17634.9
17635
17635
17634.9
17635.3
24052.7
24052.6
24052.6
24052.5
24052.5
24052.5
26504.1
26504.1
26504.1
26504.1
26504.1
26504
4.28628
4.28653
4.28654
4.28673
4.2869
4.2866
4.7027
4.70295
4.70301
4.70305
4.70312
4.70301
5.04628
5.04643
5.04647
5.04642
5.0464
5.0464
6.76184
6.76196
6.76197
6.76189
6.76181
6.76175
8.12585
8.1259
8.12596
8.12596
8.12592
8.12589
9.43683
9.43697
9.43723
9.43747
9.43756
9.43772
17.1289
17.1287
17.1285
17.1286
17.1287
17.129
37.4755
37.4738
37.4724
37.4715
37.4711
37.4708
128.559
128.541
128.544
128.544
128.543
128.555
4099.06
4097.23
4097.97
4097.96
4097.48
4098.46
24334.6
24333
24333.5
24333.4
24332.9
24334.1
31840.7
31840.8
31840.7
31840.7
31840.7
31840.7
4.01755
4.01773
4.01782
4.01799
4.0181
4.01804
4.69523
4.69545
4.69556
4.69565
4.6957
4.69561
5.19913
5.19925
5.19929
5.19924
5.19918
5.19912
7.12391
7.12395
7.12396
7.12386
7.12376
7.12363
9.24594
9.24601
9.24608
9.24606
9.24599
9.24585
10.1026
10.1028
10.103
10.1032
10.1032
10.1033
11.4201
11.4204
11.4203
11.4202
11.4202
11.42
10.9208
10.9202
10.92
10.9197
10.9194
10.9191
15.308
15.3071
15.3068
15.3066
15.3064
15.3072
99.6647
99.4418
99.5275
99.537
99.4565
99.5827
17080.9
17075.2
17077.1
17077.3
17075.7
17078.5
36895.5
36895.4
36895.4
36895.4
36895.3
36895.4
3.72938
3.72935
3.72934
3.72934
3.72935
3.72935
3.90941
3.90939
3.90939
3.9094
3.90941
3.90943
4.27517
4.27516
4.27517
4.27517
4.27518
4.27519
4.83714
4.83715
4.83714
4.83713
4.83711
4.8371
5.6087
5.6087
5.60866
5.60859
5.6085
5.60844
6.60189
6.60185
6.60172
6.60154
6.60136
6.60122
7.82083
7.82071
7.82049
7.82023
7.81997
7.81978
9.25079
9.25064
9.25042
9.25021
9.25004
9.24995
10.8393
10.8392
10.8391
10.839
10.839
10.8391
12.4334
12.4334
12.4335
12.4335
12.4336
12.4337
13.7999
13.7998
13.7996
13.7994
13.7991
13.799
14.5897
14.5895
14.5891
14.5886
14.5881
14.588
3.55191
3.55189
3.55189
3.5519
3.55191
3.55192
3.73235
3.73234
3.73234
3.73235
3.73236
3.73238
4.09872
4.09871
4.09871
4.0987
4.0987
4.09871
4.65999
4.65997
4.65993
4.6599
4.65987
4.65986
5.42699
5.42695
5.42687
5.42679
5.42672
5.42668
6.41061
6.41053
6.41042
6.41031
6.41022
6.41015
7.61459
7.61453
7.61446
7.6144
7.61437
7.61434
9.02507
9.0251
9.02516
9.02526
9.02538
9.02547
10.6151
10.6152
10.6154
10.6157
10.616
10.6162
12.4103
12.4105
12.4109
12.4113
12.4117
12.4118
14.2231
14.2229
14.2222
14.221
14.2206
14.2199
15.1916
15.1914
15.1908
15.1888
15.1876
15.1884
3.20236
3.20236
3.20236
3.20236
3.20237
3.20238
3.3781
3.37809
3.37809
3.3781
3.3781
3.37811
3.74048
3.74047
3.74047
3.74046
3.74045
3.74046
4.31307
4.31306
4.31303
4.31299
4.31297
4.31296
5.13415
5.1341
5.13404
5.13398
5.13393
5.1339
6.25684
6.25676
6.25668
6.25661
6.25657
6.25655
7.74722
7.74715
7.74712
7.74714
7.74718
7.74724
9.68104
9.6811
9.68123
9.68141
9.68163
9.68185
12.1065
12.1068
12.1071
12.1074
12.1077
12.1081
14.8195
14.8215
14.8235
14.8253
14.8266
14.8287
16.6515
16.6507
16.6487
16.6455
16.6441
16.6435
16.8395
16.8375
16.8356
16.8309
16.8271
16.8283
2.69132
2.69132
2.69132
2.69132
2.69132
2.69133
2.85024
2.85024
2.85024
2.85024
2.85024
2.85024
3.1787
3.1787
3.17869
3.17868
3.17867
3.17868
3.69572
3.69571
3.69569
3.69567
3.69566
3.69566
4.42796
4.42795
4.42793
4.42792
4.42792
4.42793
5.41216
5.41216
5.41218
5.41222
5.41228
5.41233
6.68985
6.6899
6.68997
6.69006
6.69019
6.69025
8.28287
8.28286
8.28277
8.28263
8.28252
8.28243
10.2782
10.2774
10.276
10.2745
10.2733
10.2724
13.5756
13.5705
13.5625
13.5526
13.5491
13.5425
17.1915
17.1899
17.1819
17.1417
17.1535
17.1366
15.252
15.2497
15.2468
15.187
15.189
15.1708
2.53231
2.53243
2.53253
2.53261
2.53266
2.53267
1.20803
1.20805
1.20809
1.2081
1.20809
1.20808
-0.757185
-0.75727
-0.757298
-0.757325
-0.757356
-0.757319
2.89142
2.89152
2.89159
2.89163
2.89164
2.8916
1.39721
1.39717
1.3972
1.3972
1.39713
1.39717
-0.729724
-0.729807
-0.729822
-0.729834
-0.729848
-0.729766
3.16052
3.1606
3.16062
3.16062
3.16058
3.16047
1.85823
1.8582
1.85821
1.85819
1.85814
1.85814
-0.633276
-0.633304
-0.633271
-0.633243
-0.633221
-0.633114
3.9582
3.95825
3.9582
3.95815
3.95809
3.95796
2.59312
2.59307
2.59307
2.59306
2.59303
2.59306
-0.495146
-0.49515
-0.495088
-0.495049
-0.495029
-0.494957
5.09248
5.09258
5.09254
5.09248
5.09244
5.0923
3.53361
3.53358
3.53359
3.5336
3.5336
3.53369
-0.111597
-0.111659
-0.11164
-0.111637
-0.111653
-0.11163
6.40363
6.40394
6.40402
6.40406
6.40403
6.40381
4.54314
4.54321
4.54325
4.54325
4.54322
4.54325
0.691973
0.691872
0.691852
0.691841
0.691838
0.691867
10.5546
10.5548
10.5549
10.5548
10.5547
10.5544
5.9588
5.95898
5.95898
5.95884
5.95875
5.9586
1.73652
1.73643
1.73652
1.7366
1.73669
1.73673
4.89266
4.8927
4.89231
4.89206
4.89222
4.89195
3.79545
3.79634
3.79606
3.79583
3.79623
3.79538
5.07065
5.07067
5.07088
5.07101
5.07118
5.07089
15.5681
15.57
15.5702
15.5703
15.5696
15.5659
17.5389
17.5407
17.5414
17.5425
17.5433
17.5406
3.74586
3.74668
3.74705
3.7473
3.74789
3.74614
20.0952
20.1013
20.1018
20.1033
20.1056
20.0972
26.0223
26.0269
26.027
26.0268
26.0331
26.0224
13.5322
13.5355
13.5361
13.5343
13.5386
13.5304
-8.25856
-8.308
-8.29976
-8.28776
-8.29298
-8.30189
283.408
283.321
283.293
283.285
282.922
283.734
73.1047
73.0223
73.0318
73.0098
72.8543
73.2303
30972
30971.2
30970.8
30969.8
30965.3
30974.6
6725.79
6728.78
6727.19
6726.15
6724.67
6728.3
-15.0931
-15.0945
-15.0962
-15.101
-15.0995
-15.0994
338.65
339.915
342.446
327.334
334.34
329.63
1058.35
1061.1
1105.22
1010.17
1011.68
1074.58
1070.04
1077.09
1082.68
1057.65
1053.62
1071.45
6907.26
6908.3
6912.98
6889.66
6922.03
6897.25
8150.03
8159.32
8114.63
8176.55
8157.21
8149.39
1615.95
1618.46
1632.95
1591.99
1551.54
1673.23
13409.4
13401.2
13401.8
13438.8
13485.1
13418.1
9753.36
9758.81
9753.77
9762.5
9722.3
9808.91
-58.5813
-58.6098
-58.6116
-58.469
-58.5013
-58.7953
22593.2
22585.3
22583.1
22652.1
22724.5
22559.5
7001.42
7006.48
6997.87
7009.74
7022.08
6969.04
-25.4976
-25.5062
-25.5028
-25.4836
-25.5344
-25.5709
32871
32871.5
32872.8
32874
32874.4
32875.2
13077.3
13082.4
13079.6
13095.6
13133.2
13035.3
-12.7852
-12.7895
-12.7867
-12.7859
-12.8301
-12.8219
32211.5
32212.1
32212.2
32213
32213
32213
14898.9
14906.1
14903.9
14902.9
14912.1
14893.2
-9.88239
-9.88318
-9.88364
-9.88647
-9.89766
-9.90242
2.04163
2.04164
2.04163
2.04163
2.04163
2.04163
1.27649
1.27649
1.27649
1.27648
1.27648
1.27648
0.442335
0.442333
0.442331
0.442328
0.442325
0.442325
2.1712
2.1712
2.17119
2.17119
2.17119
2.17119
1.35925
1.35925
1.35924
1.35924
1.35924
1.35924
0.47288
0.472879
0.472878
0.472876
0.472876
0.472875
2.44439
2.44439
2.44439
2.44438
2.44438
2.44438
1.53226
1.53227
1.53226
1.53226
1.53226
1.53226
0.538793
0.538794
0.538795
0.538794
0.538792
0.538787
2.89688
2.89689
2.89688
2.89688
2.89687
2.89687
1.81083
1.81083
1.81083
1.81082
1.81081
1.8108
0.650444
0.650443
0.65044
0.650432
0.650424
0.650414
3.59964
3.59965
3.59964
3.59963
3.59962
3.59961
2.22076
2.22075
2.22074
2.22071
2.22068
2.22067
0.828055
0.828045
0.828032
0.82801
0.82799
0.827977
4.6811
4.68109
4.68105
4.681
4.68096
4.68093
2.81427
2.81424
2.81419
2.81413
2.81405
2.81401
1.07916
1.07912
1.07908
1.07902
1.07894
1.07891
6.37286
6.37276
6.37254
6.37223
6.37204
6.37192
3.70356
3.70351
3.70339
3.70322
3.70305
3.70296
1.46323
1.46317
1.46302
1.46285
1.46254
1.46241
8.97595
8.97556
8.97483
8.97392
8.97327
8.9732
5.02143
5.02131
5.02092
5.02026
5.01967
5.01896
1.85351
1.85365
1.85307
1.85217
1.85153
1.84998
13.5605
13.5595
13.5565
13.552
13.5499
13.5514
4.30574
4.30518
4.30329
4.30224
4.29715
4.29872
0.790384
0.791271
0.787284
0.78962
0.782474
0.780006
23.0427
23.0441
23.0323
23.0058
22.9999
23.0064
16.4885
16.4904
16.4922
16.4836
16.494
16.4765
9.87149
9.8772
9.88511
9.87976
9.89759
9.84648
19.2019
19.2079
19.177
19.1553
19.0987
19.1589
-11.3032
-11.3013
-11.3301
-11.337
-11.4445
-11.3267
-10.7509
-10.7313
-10.7533
-10.7975
-10.795
-10.8348
16.1025
16.0649
16.0846
16.1168
16.0538
16.0825
19.894
19.9305
20.1088
19.823
19.8274
20.1458
30.4424
30.4361
30.4575
30.3752
30.2964
30.5168
)
;

boundaryField
{
    seabed_topleft_surface
    {
        type            fixedFluxPressure;
        gradient        uniform 0;
        value           nonuniform List<scalar> 
72
(
7349.09
7349.04
7349.06
7349.06
7349.04
7349.06
7197.97
7197.92
7197.93
7197.94
7197.92
7197.95
7371.74
7371.71
7371.71
7371.73
7371.71
7371.71
7868.71
7868.68
7868.69
7868.7
7868.68
7868.69
8494.77
8494.73
8494.74
8494.75
8494.74
8494.75
9207.25
9207.21
9207.22
9207.22
9207.21
9207.24
10106.2
10106.1
10106.1
10106.1
10106.1
10106.1
11826.9
11826.9
11826.9
11826.9
11826.9
11826.9
14451
14451
14451
14451
14451
14451.1
18251
18250.9
18250.8
18250.8
18250.9
18251.2
22254.1
22254.1
22254.1
22254.1
22254
22253.8
24117.4
24117.4
24117.4
24117.4
24117.3
24117.3
)
;
    }
    seabed_topright_surface
    {
        type            fixedFluxPressure;
        gradient        uniform 0;
        value           nonuniform List<scalar> 
72
(
3.72938
3.72935
3.72934
3.72934
3.72935
3.72935
3.90941
3.90939
3.90939
3.9094
3.90941
3.90943
4.27517
4.27516
4.27517
4.27517
4.27518
4.27519
4.83714
4.83715
4.83714
4.83713
4.83711
4.8371
5.6087
5.6087
5.60866
5.60859
5.6085
5.60844
6.60189
6.60185
6.60172
6.60154
6.60136
6.60122
7.82083
7.82071
7.82049
7.82023
7.81997
7.81978
9.25079
9.25064
9.25042
9.25021
9.25004
9.24995
10.8393
10.8392
10.8391
10.839
10.839
10.8391
12.4334
12.4334
12.4335
12.4335
12.4336
12.4337
13.7999
13.7998
13.7996
13.7994
13.7991
13.799
14.5897
14.5895
14.5891
14.5886
14.5881
14.588
)
;
    }
    breakwater_top_surface
    {
        type            fixedFluxPressure;
        gradient        uniform 0;
        value           nonuniform List<scalar> 
36
(
338.65
339.915
342.446
327.334
334.34
329.63
6907.26
6908.3
6912.98
6889.66
6922.03
6897.25
13409.4
13401.2
13401.8
13438.8
13485.1
13418.1
22593.2
22585.3
22583.1
22652.1
22724.5
22559.5
32871
32871.5
32872.8
32874
32874.4
32875.2
32211.5
32212.1
32212.2
32213
32213
32213
)
;
    }
    breakwater_left_surface
    {
        type            fixedFluxPressure;
        gradient        uniform 0;
        value           nonuniform List<scalar> 
24
(
24117.4
24117.4
24117.4
24117.4
24117.3
24117.3
26504.1
26504.1
26504.1
26504.1
26504.1
26504
31840.7
31840.8
31840.7
31840.7
31840.7
31840.7
36895.5
36895.4
36895.4
36895.4
36895.3
36895.4
)
;
    }
    breakwater_right_surface
    {
        type            fixedFluxPressure;
        gradient        uniform 0;
        value           nonuniform List<scalar> 
24
(
14.5897
14.5895
14.5891
14.5886
14.5881
14.588
15.1916
15.1914
15.1908
15.1888
15.1876
15.1884
16.8395
16.8375
16.8356
16.8309
16.8271
16.8283
15.252
15.2497
15.2468
15.187
15.189
15.1708
)
;
    }
    water_front_surface
    {
        type            fixedFluxPressure;
        gradient        uniform 0;
        value           nonuniform List<scalar> 
186
(
7349.09
7197.97
7371.74
7868.71
8494.77
9207.25
10106.2
11826.9
14451
18251
22254.1
24117.4
755.186
298.182
251.233
388.34
683.488
1133.31
1700.54
2713.67
6870.08
17635.5
24052.7
26504.1
4.28628
4.7027
5.04628
6.76184
8.12585
9.43683
17.1289
37.4755
128.559
4099.06
24334.6
31840.7
4.01755
4.69523
5.19913
7.12391
9.24594
10.1026
11.4201
10.9208
15.308
99.6647
17080.9
36895.5
3.72938
3.90941
4.27517
4.83714
5.6087
6.60189
7.82083
9.25079
10.8393
12.4334
13.7999
14.5897
3.55191
3.73235
4.09872
4.65999
5.42699
6.41061
7.61459
9.02507
10.6151
12.4103
14.2231
15.1916
3.20236
3.3781
3.74048
4.31307
5.13415
6.25684
7.74722
9.68104
12.1065
14.8195
16.6515
16.8395
2.69132
2.85024
3.1787
3.69572
4.42796
5.41216
6.68985
8.28287
10.2782
13.5756
17.1915
15.252
2.53231
1.20803
-0.757185
2.89142
1.39721
-0.729724
3.16052
1.85823
-0.633276
3.9582
2.59312
-0.495146
5.09248
3.53361
-0.111597
6.40363
4.54314
0.691973
10.5546
5.9588
1.73652
4.89266
3.79545
5.07065
15.5681
17.5389
3.74586
20.0952
26.0223
13.5322
-8.25856
283.408
73.1047
30972
6725.79
-15.0931
338.65
1058.35
1070.04
6907.26
8150.03
1615.95
13409.4
9753.36
-58.5813
22593.2
7001.42
-25.4976
32871
13077.3
-12.7852
32211.5
14898.9
-9.88239
2.04163
1.27649
0.442335
2.1712
1.35925
0.47288
2.44439
1.53226
0.538793
2.89688
1.81083
0.650444
3.59964
2.22076
0.828055
4.6811
2.81427
1.07916
6.37286
3.70356
1.46323
8.97595
5.02143
1.85351
13.5605
4.30574
0.790384
23.0427
16.4885
9.87149
19.2019
-11.3032
-10.7509
16.1025
19.894
30.4424
)
;
    }
    water_back_surface
    {
        type            fixedFluxPressure;
        gradient        uniform 0;
        value           nonuniform List<scalar> 
186
(
7349.06
7197.95
7371.71
7868.69
8494.75
9207.24
10106.1
11826.9
14451.1
18251.2
22253.8
24117.3
755.221
298.19
251.233
388.343
683.496
1133.33
1700.56
2713.68
6870.08
17635.3
24052.5
26504
4.2866
4.70301
5.0464
6.76175
8.12589
9.43772
17.129
37.4708
128.555
4098.46
24334.1
31840.7
4.01804
4.69561
5.19912
7.12363
9.24585
10.1033
11.42
10.9191
15.3072
99.5827
17078.5
36895.4
3.72935
3.90943
4.27519
4.8371
5.60844
6.60122
7.81978
9.24995
10.8391
12.4337
13.799
14.588
3.55192
3.73238
4.09871
4.65986
5.42668
6.41015
7.61434
9.02547
10.6162
12.4118
14.2199
15.1884
3.20238
3.37811
3.74046
4.31296
5.1339
6.25655
7.74724
9.68185
12.1081
14.8287
16.6435
16.8283
2.69133
2.85024
3.17868
3.69566
4.42793
5.41233
6.69025
8.28243
10.2724
13.5425
17.1366
15.1708
2.53267
1.20808
-0.757319
2.8916
1.39717
-0.729766
3.16047
1.85814
-0.633114
3.95796
2.59306
-0.494957
5.0923
3.53369
-0.11163
6.40381
4.54325
0.691867
10.5544
5.9586
1.73673
4.89195
3.79538
5.07089
15.5659
17.5406
3.74614
20.0972
26.0224
13.5304
-8.30189
283.734
73.2303
30974.6
6728.3
-15.0994
329.63
1074.58
1071.45
6897.25
8149.39
1673.23
13418.1
9808.91
-58.7953
22559.5
6969.04
-25.5709
32875.2
13035.3
-12.8219
32213
14893.2
-9.90242
2.04163
1.27648
0.442325
2.17119
1.35924
0.472875
2.44438
1.53226
0.538787
2.89687
1.8108
0.650414
3.59961
2.22067
0.827977
4.68093
2.81401
1.07891
6.37192
3.70296
1.46241
8.9732
5.01896
1.84998
13.5514
4.29872
0.780006
23.0064
16.4765
9.84648
19.1589
-11.3267
-10.8348
16.0825
20.1458
30.5168
)
;
    }
    water_left_surface
    {
        type            fixedFluxPressure;
        gradient        uniform 0;
        value           nonuniform List<scalar> 
42
(
7349.09
7349.04
7349.06
7349.06
7349.04
7349.06
755.186
755.16
755.17
755.141
755.129
755.221
4.28628
4.28653
4.28654
4.28673
4.2869
4.2866
4.01755
4.01773
4.01782
4.01799
4.0181
4.01804
2.53231
2.53243
2.53253
2.53261
2.53266
2.53267
1.20803
1.20805
1.20809
1.2081
1.20809
1.20808
-0.757185
-0.75727
-0.757298
-0.757325
-0.757356
-0.757319
)
;
    }
    water_right_surface
    {
        type            fixedFluxPressure;
        gradient        uniform 0;
        value           nonuniform List<scalar> 
42
(
3.72938
3.72935
3.72934
3.72934
3.72935
3.72935
3.55191
3.55189
3.55189
3.5519
3.55191
3.55192
3.20236
3.20236
3.20236
3.20236
3.20237
3.20238
2.69132
2.69132
2.69132
2.69132
2.69132
2.69133
2.04163
2.04164
2.04163
2.04163
2.04163
2.04163
1.27649
1.27649
1.27649
1.27648
1.27648
1.27648
0.442335
0.442333
0.442331
0.442328
0.442325
0.442325
)
;
    }
    water_top_surface
    {
        type            totalPressure;
        rho             rho;
        psi             none;
        gamma           1;
        p0              uniform 0;
        value           nonuniform List<scalar> 
180
(
-1.48211
-1.48243
-1.48245
-1.48248
-1.48254
-1.48227
-1.54522
-1.54555
-1.54553
-1.54554
-1.54557
-1.54525
-1.3245
-1.32476
-1.32471
-1.32468
-1.32467
-1.32434
-1.32862
-1.32881
-1.32872
-1.32866
-1.32865
-1.32837
-1.17659
-1.1768
-1.17675
-1.17672
-1.17675
-1.17654
-1.09684
-1.09719
-1.0972
-1.09719
-1.09719
-1.09687
-0.948185
-0.948491
-0.948466
-0.948407
-0.948346
-0.947982
-0.817181
-0.817332
-0.817339
-0.81736
-0.817422
-0.817295
-0.0434402
-0.0435106
-0.0434436
-0.0434006
-0.0434033
-0.0434015
0
0
0
0
0
0
0
0
0
0
0
0
-19.5595
-19.5599
-19.5633
-19.5582
-19.5709
-19.5521
0
0
0
0
0
0
0
0
0
0
0
0
-55.6312
-55.6909
-55.5943
-55.8298
-56.602
-55.3895
-16.7577
-16.7851
-16.7664
-16.7448
-16.5713
-16.853
-3.71167
-3.71301
-3.7032
-3.72908
-3.74137
-3.66828
-7.03964
-7.03651
-7.03224
-7.04466
-7.07788
-6.99838
0
0
0
0
0
0
0
0
0
0
0
0
0
0
0
0
0
0
0
0
0
0
0
0
0
0
0
0
0
0
0
0
0
0
0
0
0
0
0
0
0
0
0
0
0
0
0
0
0
0
0
0
0
0
0
0
0
0
0
0
-0.23
-0.230417
-0.230189
-0.230102
-0.243393
-0.216855
0
0
0
0
0
0
)
;
    }
}


// ************************************************************************* //
