/*--------------------------------*- C++ -*----------------------------------*\
| =========                 |                                                 |
| \\      /  F ield         | OpenFOAM: The Open Source CFD Toolbox           |
|  \\    /   O peration     | Version:  v1612+                                |
|   \\  /    A nd           | Web:      www.OpenFOAM.com                      |
|    \\/     M anipulation  |                                                 |
\*---------------------------------------------------------------------------*/
FoamFile
{
    version     2.0;
    format      ascii;
    class       surfaceScalarField;
    location    "3.55";
    object      phi;
}
// * * * * * * * * * * * * * * * * * * * * * * * * * * * * * * * * * * * * * //

dimensions      [0 3 -1 0 0 0 0];

internalField   nonuniform List<scalar> 
2916
(
5.2709e-06
0.367496
-0.367501
8.59541e-06
0.367497
-0.3675
1.01592e-05
0.367498
-0.3675
5.30685e-06
0.3675
-0.367495
-1.25398e-06
0.3675
-0.367493
0.367494
-0.367495
1.17607e-05
0.700327
-0.332843
9.95085e-06
0.700335
-0.332836
1.40048e-05
0.700334
-0.33284
5.64455e-06
0.700335
-0.332827
-1.25246e-05
0.700336
-0.332818
0.700328
-0.332846
1.42959e-05
0.901227
-0.200914
9.92076e-06
0.901244
-0.200904
1.07059e-05
0.90124
-0.200906
4.49674e-06
0.901241
-0.2009
-1.04861e-05
0.901244
-0.200893
0.901228
-0.200911
1.52486e-05
1.04199
-0.140783
9.46236e-06
1.04202
-0.140769
8.43798e-06
1.04201
-0.140772
3.9278e-06
1.04201
-0.140768
-8.51155e-06
1.04202
-0.140761
1.042
-0.140777
1.45807e-05
1.14479
-0.102813
8.4752e-06
1.14482
-0.102796
6.24109e-06
1.14482
-0.1028
2.55939e-06
1.14482
-0.102798
-7.4357e-06
1.14482
-0.102792
1.1448
-0.102806
1.28541e-05
1.20295
-0.0581688
7.78919e-06
1.20298
-0.0581537
4.31302e-06
1.20298
-0.0581562
3.16374e-07
1.20297
-0.0581552
-6.70859e-06
1.20298
-0.058151
1.20295
-0.0581624
1.11553e-05
1.18831
0.014625
7.23472e-06
1.18834
0.0146409
2.21392e-06
1.18834
0.0146411
-2.44336e-06
1.18834
0.0146422
-6.66432e-06
1.18834
0.0146429
1.18831
0.0146335
6.91549e-06
0.990506
0.1978
5.80951e-06
0.990533
0.197811
1.50303e-07
0.990532
0.197813
-4.93574e-06
0.990528
0.197814
-6.70209e-06
0.990531
0.19781
0.990496
0.197809
6.07862e-06
0.544316
0.446184
5.53142e-06
0.544342
0.446192
-7.95393e-07
0.544345
0.446194
-7.35483e-06
0.54434
0.446194
-1.22472e-05
0.544348
0.446187
0.544294
0.44619
1.05595e-05
-0.0147664
0.559072
5.41183e-06
-0.0147407
0.559087
-9.70166e-07
-0.0147347
0.559086
-6.84075e-06
-0.01474
0.559086
-1.79926e-05
-0.0147227
0.559082
-0.0148047
0.55908
2.2011e-05
-0.334173
0.319385
4.93132e-06
-0.334146
0.319422
-1.50254e-06
-0.334142
0.319414
-6.83657e-06
-0.334145
0.319411
-2.12039e-05
-0.334126
0.319418
-0.3342
0.319374
-1.67042e-05
-0.334156
-1.92799e-05
-0.334143
-1.34722e-05
-0.334148
-4.21731e-06
-0.334154
1.9015e-05
-0.334149
-0.334181
-1.23499e-05
0.704866
-1.07235
-6.08477e-06
0.704857
-1.07236
3.08421e-05
0.704867
-1.0724
2.30733e-05
0.704852
-1.07234
-2.05515e-05
0.704843
-1.07229
0.704885
-1.0724
-1.87915e-05
1.24292
-0.870879
-9.26933e-06
1.2429
-0.870889
2.153e-05
1.24291
-0.870912
3.32682e-05
1.24289
-0.870876
1.24188e-05
1.24288
-0.870839
1.24294
-0.870893
-1.12806e-05
1.61623
-0.574209
-2.37538e-07
1.61622
-0.574237
1.06752e-05
1.61622
-0.574227
2.59895e-05
1.6162
-0.574226
3.72497e-05
1.6162
-0.574226
1.61625
-0.574179
4.44102e-06
1.81458
-0.33914
8.06265e-06
1.81461
-0.339159
1.40157e-05
1.81458
-0.339145
2.25093e-05
1.81457
-0.339147
1.99309e-05
1.81459
-0.339144
1.81459
-0.339103
2.0607e-05
1.93471
-0.22296
1.15529e-05
1.93478
-0.222954
1.48122e-05
1.93473
-0.222949
1.72733e-05
1.93472
-0.22295
-1.72228e-06
1.93475
-0.222936
1.93471
-0.222927
3.76307e-05
2.03912
-0.162623
1.34157e-05
2.03923
-0.162583
1.34891e-05
2.03916
-0.16259
1.40341e-05
2.03916
-0.162592
-1.34336e-05
2.0392
-0.162568
2.03912
-0.162586
4.72399e-05
2.10779
-0.0540852
1.23665e-05
2.10793
-0.0540228
8.72251e-06
2.10785
-0.0540433
8.11779e-06
2.10785
-0.0540482
-2.182e-05
2.1079
-0.054025
2.10779
-0.0540587
5.67679e-05
1.85415
0.45138
1.05144e-05
1.85432
0.451468
5.55761e-06
1.85424
0.451433
2.9436e-06
1.85424
0.451428
-3.41872e-05
1.85429
0.451453
1.85417
0.451396
6.93561e-05
1.34385
0.956408
2.00694e-05
1.34403
0.956523
8.33039e-06
1.34396
0.956485
-1.9976e-06
1.34396
0.956483
-4.67653e-05
1.34401
0.95651
1.34389
0.956421
6.18914e-05
0.84566
1.0572
2.44709e-05
0.845845
1.05731
1.20584e-05
0.84578
1.05728
-1.32986e-06
0.84578
1.05728
-3.66612e-05
0.845834
1.05729
0.845698
1.05724
5.4164e-05
0.376416
0.788574
1.92958e-05
0.376597
0.788705
9.36927e-06
0.376551
0.788653
-2.58991e-06
0.37655
0.788653
-2.82941e-05
0.3766
0.788678
0.376455
0.78859
-5.63083e-05
0.0423165
-2.21589e-05
0.0424195
-6.04962e-06
0.042387
6.82367e-06
0.0423825
4.6631e-05
0.0424108
0.0423203
-0.000125508
0.150805
-1.22303
-6.20525e-05
0.150775
-1.22321
-3.00401e-05
0.150766
-1.22321
4.17941e-05
0.150768
-1.22318
0.000147165
0.150781
-1.22318
0.150795
-1.22305
-0.000118446
0.355287
-1.07524
-4.25293e-05
0.355237
-1.07542
8.63366e-06
0.35522
-1.07542
6.71183e-05
0.35523
-1.0754
0.000151537
0.35526
-1.0754
0.355287
-1.07523
-8.9049e-05
0.716118
-0.934954
-2.26905e-05
0.716072
-0.935141
2.75601e-05
0.716055
-0.935116
6.73808e-05
0.71607
-0.935108
0.000118154
0.716106
-0.935124
0.716139
-0.934911
-9.55479e-05
1.33211
-0.955038
-3.56225e-05
1.33207
-0.955221
1.2111e-05
1.33205
-0.955188
5.63249e-05
1.33206
-0.955184
0.000118943
1.33211
-0.955204
1.33214
-0.954984
-0.000105621
2.12646
-1.0172
-6.35136e-05
2.12642
-1.01734
-2.32973e-05
2.12639
-1.01732
2.57168e-05
2.12639
-1.01732
9.41689e-05
2.12644
-1.01733
2.12647
-1.01716
-0.000147778
3.09378
-1.1298
-0.000137643
3.09372
-1.12989
-8.65124e-05
3.09363
-1.12989
-1.23172e-05
3.09362
-1.12989
5.83405e-05
3.09367
-1.12987
3.09369
-1.12975
-0.000172141
3.86115
-0.82128
-0.000137597
3.86105
-0.821382
-9.17978e-05
3.86098
-0.821437
-2.65704e-05
3.86097
-0.821469
6.75189e-05
3.86101
-0.821462
3.86107
-0.821373
-3.99975e-05
3.3346
0.977976
-3.19714e-05
3.33471
0.977792
-3.03252e-05
3.33461
0.977804
-2.4396e-05
3.33459
0.977803
5.38253e-05
3.33464
0.977745
3.33461
0.977911
0.000228414
1.64561
2.64517
3.56125e-06
1.64635
2.64511
5.05935e-06
1.64602
2.64507
-2.78884e-06
1.64601
2.64507
-0.000142778
1.64621
2.64508
1.64584
2.64505
0.000233687
0.835165
1.86741
4.56419e-05
0.835467
1.86838
4.57913e-05
0.835345
1.86795
3.26474e-05
0.835352
1.86795
-0.000114138
0.835434
1.86822
0.835259
1.8677
0.000205477
0.314341
1.30919
4.78166e-05
0.314672
1.30966
1.76862e-05
0.314559
1.30947
-2.53724e-07
0.314566
1.30946
-9.88268e-05
0.314657
1.30955
0.314416
1.30933
-0.000115542
0.356773
-2.38999e-05
0.356999
-7.38877e-06
0.356929
1.12919e-05
0.35693
8.63248e-05
0.356992
0.356823
-7.43536e-06
-0.326496
-0.89653
-4.5771e-07
-0.326451
-0.896758
-1.26719e-05
-0.326467
-0.896724
-1.47107e-05
-0.326463
-0.896716
2.24323e-06
-0.326446
-0.896751
-0.326527
-0.896522
6.47581e-06
-0.507852
-0.893898
1.10156e-05
-0.50774
-0.894146
-7.06041e-06
-0.507762
-0.894107
-7.93419e-06
-0.507757
-0.894106
1.4028e-05
-0.507724
-0.894148
-0.507878
-0.893866
7.35495e-07
-0.623705
-0.819101
4.14895e-06
-0.623538
-0.819347
-5.33384e-06
-0.623563
-0.819306
-5.21383e-06
-0.62356
-0.819306
1.59371e-05
-0.623519
-0.81935
-0.623711
-0.819062
-5.45554e-05
-0.665419
-0.913269
-4.78419e-05
-0.66525
-0.913515
-4.4755e-05
-0.665284
-0.91347
-2.96951e-05
-0.665286
-0.913472
2.21631e-05
-0.665251
-0.913522
-0.665428
-0.913245
-0.000108709
-0.720872
-0.961642
-8.87814e-05
-0.720744
-0.961869
-6.96609e-05
-0.720789
-0.961832
-3.77825e-05
-0.720801
-0.961836
3.92332e-05
-0.720776
-0.961883
-0.720905
-0.961643
-0.000137369
-0.732001
-1.11853
-9.27758e-05
-0.731948
-1.11873
-7.25116e-05
-0.731991
-1.11871
-3.23758e-05
-0.732019
-1.11871
7.48659e-05
-0.732021
-1.11873
-0.732047
-1.11854
-0.00014548
-0.00895856
-1.54417
-1.24477e-05
-0.00909961
-1.54436
3.6571e-05
-0.00911584
-1.54436
8.2263e-05
-0.00913202
-1.54441
0.000241607
-0.00920297
-1.54444
-0.00893612
-1.54424
-2.93104e-05
1.46004
-0.490992
9.65702e-05
1.45994
-0.491377
0.000151667
1.45992
-0.491288
0.000136048
1.45994
-0.491249
0.000211937
1.45986
-0.49139
1.46019
-0.491
0.000175871
1.00874
3.0963
0.000204742
1.0086
3.09641
0.000185086
1.00867
3.09635
0.000144391
1.00867
3.09637
4.45752e-05
1.00867
3.09637
1.00886
3.09642
0.000750711
-0.859033
3.73443
0.000154084
-0.857782
3.73536
7.24911e-05
-0.858247
3.73495
5.76736e-05
-0.858355
3.73499
-0.000366921
-0.857791
3.7351
-0.858618
3.73482
0.000498871
0.140373
0.309288
6.52771e-05
0.1407
0.31161
1.12635e-05
0.140582
0.310695
3.85419e-05
0.14056
0.310515
-0.00025939
0.140573
0.311489
0.140521
0.309935
-7.53897e-05
0.497222
8.93198e-06
0.497615
2.65052e-05
0.497493
3.57435e-05
0.49748
1.21877e-05
0.497589
0.497356
-2.21694e-06
-0.0184018
0.018404
-2.32656e-06
-0.0184026
0.0184042
-2.26426e-06
-0.0184032
0.0184043
-1.99655e-06
-0.0184038
0.0184044
-1.33962e-06
-0.0184045
0.0184044
-0.0184052
0.0184043
-1.89139e-06
-0.037549
0.0191503
-2.9699e-06
-0.0375514
0.0191507
-3.45829e-06
-0.0375531
0.0191509
-3.34223e-06
-0.0375547
0.0191509
-2.33816e-06
-0.0375563
0.0191508
-0.0375581
0.0191501
-2.83666e-06
-0.0582761
0.0207303
-5.19101e-06
-0.0582817
0.0207316
-6.14906e-06
-0.0582853
0.0207322
-5.87341e-06
-0.0582882
0.0207322
-4.17808e-06
-0.058291
0.0207319
-0.0582941
0.0207307
-7.93411e-06
-0.0813906
0.0231219
-1.09458e-05
-0.0814009
0.0231207
-1.12204e-05
-0.0814062
0.0231198
-9.71313e-06
-0.0814094
0.0231183
-6.64828e-06
-0.0814118
0.0231162
-0.0814156
0.023113
-1.67226e-05
-0.107486
0.0261109
-1.69918e-05
-0.1075
0.0260985
-1.29145e-05
-0.107504
0.0260923
-8.00594e-06
-0.107503
0.0260872
-4.19342e-06
-0.107501
0.0260828
-0.1075
0.0260788
-2.49258e-05
-0.1364
0.0289389
-1.4125e-05
-0.136414
0.0289015
1.49698e-06
-0.136407
0.0288859
1.26421e-05
-0.136394
0.0288779
1.33096e-05
-0.136378
0.0288751
-0.136365
0.0288772
-1.68575e-05
-0.166726
0.0303422
2.01091e-05
-0.166725
0.030272
5.85827e-05
-0.166696
0.0302491
7.74598e-05
-0.16666
0.0302459
6.3259e-05
-0.16662
0.0302561
-0.16658
0.0302791
1.94758e-05
-0.193408
0.0266618
0.000105607
-0.193381
0.0265695
0.000175703
-0.193324
0.0265574
0.000195427
-0.193257
0.0265781
0.000145348
-0.193189
0.0266201
-0.193116
0.0266827
9.46737e-05
-0.206429
0.0129252
0.000222619
-0.206356
0.0128464
0.000305871
-0.206292
0.0128841
0.000312853
-0.206233
0.0129696
0.000217976
-0.206172
0.0130773
-0.2061
0.0132013
0.000137979
-0.190125
-0.0164417
0.000245176
-0.190032
-0.0164328
0.000299624
-0.189975
-0.0163721
0.000285508
-0.18993
-0.0162901
0.000195158
-0.189879
-0.016206
-0.189792
-0.016114
9.0529e-05
-0.123333
-0.0668826
0.000104526
-0.123265
-0.0667838
0.000102428
-0.123227
-0.066747
9.11252e-05
-0.123199
-0.0667224
7.38031e-05
-0.123161
-0.066703
-0.123091
-0.0666283
-8.7723e-05
-0.123246
-0.000161712
-0.123193
-0.000182832
-0.123208
-0.000200108
-0.123185
-0.00017505
-0.123188
-0.123267
-1.9815e-06
-0.0181605
0.0365676
-2.0543e-06
-0.0181618
0.0365679
-1.93864e-06
-0.0181627
0.0365681
-1.61878e-06
-0.0181635
0.0365684
-9.53726e-07
-0.0181643
0.0365686
-0.0181651
0.0365685
-1.93525e-06
-0.0367494
0.0377424
-2.84122e-06
-0.0367529
0.037743
-3.02699e-06
-0.036755
0.0377432
-2.70627e-06
-0.0367566
0.0377434
-1.80321e-06
-0.0367582
0.0377432
-0.0367598
0.0377422
-3.55421e-06
-0.0558351
0.039819
-5.03984e-06
-0.0558421
0.0398204
-4.95843e-06
-0.0558453
0.0398208
-4.2175e-06
-0.0558474
0.0398206
-2.98969e-06
-0.0558492
0.0398199
-0.0558517
0.0398181
-5.39684e-06
-0.0748854
0.042176
-5.00989e-06
-0.0748973
0.0421737
-3.23187e-06
-0.0749007
0.0421716
-1.89489e-06
-0.0749017
0.0421692
-1.48916e-06
-0.0749018
0.042166
-0.0749039
0.0421619
-1.39009e-06
-0.0927541
0.0439798
5.05758e-06
-0.0927697
0.0439634
1.10126e-05
-0.0927701
0.0439542
1.24449e-05
-0.0927656
0.0439475
8.35071e-06
-0.0927596
0.043942
-0.0927557
0.0439379
9.93216e-06
-0.107805
0.0439785
2.92036e-05
-0.107824
0.0439351
4.23959e-05
-0.107815
0.0439165
4.33301e-05
-0.107798
0.0439078
2.98491e-05
-0.107778
0.0439061
-0.107759
0.0439119
5.42253e-05
-0.11838
0.0408626
9.15814e-05
-0.118376
0.0407867
0.000107863
-0.118345
0.0407628
0.000101223
-0.118306
0.0407616
6.81797e-05
-0.118264
0.0407769
-0.11822
0.0408089
0.000102862
-0.124151
0.032328
0.00015849
-0.124108
0.0322452
0.000178868
-0.124045
0.0322378
0.000163341
-0.123975
0.0322643
0.000105758
-0.1239
0.0323141
-0.123817
0.0323858
0.000151793
-0.130357
0.0189797
0.000191033
-0.130241
0.0189407
0.000179543
-0.13013
0.0189803
0.000140768
-0.130022
0.0190555
8.60105e-05
-0.12992
0.0191514
-0.129784
0.019255
0.000190055
-0.141149
-0.00583994
0.00024152
-0.140945
-0.00578
0.000228124
-0.140803
-0.00568549
0.000185002
-0.14068
-0.00559
0.000149073
-0.140591
-0.00549906
-0.140386
-0.00536252
-3.46951e-05
-0.0918375
-0.116161
-0.00016913
-0.09167
-0.115927
-0.000285882
-0.0915747
-0.115862
-0.000306515
-0.0914861
-0.1159
-3.15382e-05
-0.0914039
-0.116166
-0.0913647
-0.115682
-0.000265979
-0.214819
-0.000390205
-0.214741
-0.000343737
-0.214833
-0.000420425
-0.214597
-0.000414947
-0.214597
-0.215048
-7.43463e-07
-0.0176459
0.0542152
-5.2435e-07
-0.0176467
0.0542158
-3.70358e-07
-0.0176471
0.0542159
-1.74335e-07
-0.0176474
0.0542161
-9.85303e-09
-0.0176476
0.0542162
-0.0176475
0.0542157
-6.58813e-07
-0.0366571
0.0567552
-8.47163e-07
-0.0366597
0.0567558
-6.51321e-07
-0.0366606
0.0567559
-3.24959e-07
-0.0366611
0.0567559
-9.29461e-08
-0.0366612
0.0567557
-0.0366608
0.0567544
-1.74755e-06
-0.05889
0.0620528
-1.48091e-06
-0.0588954
0.0620537
-3.62776e-07
-0.0588966
0.0620537
5.34849e-07
-0.0588965
0.0620532
6.41337e-07
-0.0588955
0.0620522
-0.0588936
0.0620503
-1.85313e-06
-0.0869375
0.0702239
1.72595e-06
-0.0869469
0.0702204
5.45299e-06
-0.086947
0.0702172
6.95922e-06
-0.0869441
0.070214
5.22699e-06
-0.0869396
0.0702103
-0.0869332
0.070206
4.43134e-06
-0.124066
0.0811028
1.51635e-05
-0.124079
0.0810851
2.29013e-05
-0.124075
0.0810741
2.39901e-05
-0.124064
0.081066
1.67916e-05
-0.124051
0.0810598
-0.124034
0.0810561
2.29611e-05
-0.173446
0.0933359
4.5761e-05
-0.173457
0.0932918
5.80703e-05
-0.17344
0.0932704
5.58753e-05
-0.173414
0.0932603
3.77791e-05
-0.173383
0.0932582
-0.173347
0.0932656
4.94995e-05
-0.236736
0.104103
8.67956e-05
-0.236734
0.104027
0.000103548
-0.236694
0.104002
9.59092e-05
-0.236644
0.104003
6.28088e-05
-0.236591
0.104021
-0.236532
0.104058
8.64223e-05
-0.310512
0.106019
0.000128421
-0.310467
0.105938
0.000134892
-0.310399
0.105938
0.000109338
-0.310329
0.105977
6.09436e-05
-0.31027
0.106043
-0.310221
0.106136
0.000102186
-0.362065
0.07043
0.000138418
-0.361982
0.0704202
0.000139907
-0.361917
0.0704988
9.12222e-05
-0.361858
0.0706333
3.12024e-05
-0.361826
0.0707687
-0.361847
0.0709149
-4.49303e-05
-0.334697
-0.0331631
-0.000107908
-0.334582
-0.0331171
-0.000168952
-0.334522
-0.03302
-0.000236386
-0.334509
-0.0328727
-0.00022635
-0.33449
-0.0328423
-0.334639
-0.0327969
-0.00018733
-0.154983
-0.295688
-0.000264081
-0.154874
-0.295559
-0.000360802
-0.154861
-0.295427
-0.000389886
-0.155111
-0.29527
-0.000212544
-0.155321
-0.295514
-0.154951
-0.295582
-0.000217147
-0.369586
-0.000184346
-0.369651
0.000222013
-0.370101
-0.000187252
-0.369299
-0.00107576
-0.369031
-0.371075
-1.61517e-07
-0.0156649
0.0698811
3.86469e-07
-0.0156656
0.0698818
7.56939e-07
-0.0156658
0.0698818
8.85673e-07
-0.0156658
0.0698819
7.22592e-07
-0.0156656
0.0698819
-0.0156653
0.0698813
4.05367e-07
-0.0320749
0.0731651
8.23164e-07
-0.0320768
0.0731656
1.18907e-06
-0.0320769
0.0731655
1.31053e-06
-0.0320765
0.0731653
9.51313e-07
-0.0320758
0.0731649
-0.0320747
0.0731638
8.52001e-07
-0.0495068
0.0794825
2.16122e-06
-0.0495094
0.0794827
3.40099e-06
-0.0495083
0.079482
3.63492e-06
-0.0495062
0.0794811
2.38271e-06
-0.0495036
0.0794799
-0.0495007
0.0794781
5.60087e-06
-0.0675063
0.0882164
1.09865e-05
-0.0675084
0.0882137
1.38197e-05
-0.0675047
0.0882105
1.32717e-05
-0.0674993
0.0882074
8.7126e-06
-0.0674934
0.0882044
-0.0674866
0.0882012
1.99019e-05
-0.0846422
0.0982189
3.02611e-05
-0.0846397
0.0982081
3.24116e-05
-0.0846317
0.0982005
2.78498e-05
-0.0846224
0.0981949
1.68704e-05
-0.0846123
0.0981909
-0.0846003
0.0981886
4.04252e-05
-0.0986288
0.107283
4.93286e-05
-0.0986132
0.10726
4.37936e-05
-0.0986015
0.107249
3.1411e-05
-0.098591
0.107244
1.5996e-05
-0.0985799
0.107245
-0.0985662
0.10725
5.12368e-05
-0.106204
0.111629
4.24055e-05
-0.106168
0.111594
1.89948e-05
-0.10616
0.111588
-1.14785e-06
-0.106159
0.111594
-1.03563e-05
-0.106157
0.11161
-0.106152
0.111634
1.89178e-05
-0.103619
0.103417
-3.79819e-05
-0.103557
0.103387
-9.93974e-05
-0.103564
0.103406
-0.000121553
-0.103602
0.103443
-8.79733e-05
-0.10364
0.103492
-0.103641
0.103539
-6.68017e-05
-0.100767
0.0676467
-0.000207371
-0.100637
0.0676424
-0.000324927
-0.100624
0.0676783
-0.000324273
-0.100723
0.0677548
-0.00015115
-0.100923
0.0678818
-0.100631
0.0677548
4.53973e-05
-0.161243
0.0272685
-8.46424e-05
-0.161009
0.0273852
-0.000255445
-0.161003
0.0275308
-0.000430295
-0.160886
0.027466
6.85428e-05
-0.162197
0.0279345
-0.160794
0.0274339
0.000166446
-0.455438
-0.00166076
0.000162626
-0.455145
-0.00142213
-0.000222136
-0.455091
-0.000954522
-0.00110388
-0.453465
-0.00180743
0.00309747
-0.459509
-0.00240399
-0.451443
-0.0018371
-3.01698e-05
-0.824994
0.000840785
-0.825667
0.00289357
-0.827246
0.000489998
-0.82036
0.00233667
-0.830386
-0.820181
2.66112e-05
-0.941734
0.0451746
5.02341e-06
-0.941922
0.045183
-1.27189e-05
-0.941891
0.0451835
-2.4572e-05
-0.941888
0.0451841
-3.67628e-05
-0.941921
0.0451846
-0.941729
0.0451744
3.73713e-05
-0.924539
-0.0172286
1.21564e-05
-0.924661
-0.01723
-1.60714e-06
-0.924642
-0.0172306
-1.31727e-05
-0.924641
-0.0172309
-3.81884e-05
-0.924661
-0.0172313
-0.924534
-0.0172321
2.60566e-05
0.00905039
1.06602e-05
0.00905029
2.69193e-06
0.00905026
-5.61094e-06
0.00904999
-2.27467e-05
0.00904966
0.00904938
3.30244e-05
-0.977753
0.129001
1.05193e-05
-0.977949
0.129012
-5.60182e-06
-0.977917
0.129012
-1.99959e-05
-0.977914
0.12901
-4.00558e-05
-0.977949
0.129009
-0.97773
0.128999
4.0636e-05
-0.949177
-0.0458439
1.26658e-05
-0.949301
-0.0458496
-3.9541e-06
-0.94928
-0.04585
-1.98926e-05
-0.949279
-0.0458496
-4.88081e-05
-0.949302
-0.0458497
-0.949168
-0.0458469
2.7064e-05
0.0129118
1.07967e-05
0.0129109
2.14952e-06
0.0129099
-7.46713e-06
0.0129091
-2.74617e-05
0.0129081
0.0129083
2.14783e-05
-0.903717
0.213595
3.59132e-06
-0.903913
0.213593
-6.19971e-06
-0.90388
0.213594
-1.83288e-05
-0.903877
0.213592
-3.5949e-05
-0.903914
0.21359
-0.90369
0.21359
4.19389e-05
-0.883974
-0.0656301
9.96559e-06
-0.884093
-0.0656406
-8.76664e-06
-0.884074
-0.0656394
-2.61027e-05
-0.884074
-0.0656384
-5.78447e-05
-0.884098
-0.0656389
-0.883972
-0.0656269
2.23632e-05
0.0129742
5.48521e-06
0.0129748
-3.15534e-06
0.0129735
-1.14778e-05
0.0129728
-3.0251e-05
0.0129722
0.012972
1.75666e-05
-0.953237
0.253544
1.00398e-06
-0.953434
0.253526
-7.67278e-06
-0.953398
0.253529
-2.14842e-05
-0.953395
0.253528
-4.04842e-05
-0.953436
0.253521
-0.953231
0.253533
3.74735e-05
-0.904687
-0.11422
4.75029e-06
-0.904807
-0.114236
-1.0314e-05
-0.904789
-0.114231
-2.23912e-05
-0.90479
-0.114229
-5.14144e-05
-0.904812
-0.114231
-0.904696
-0.11421
1.94224e-05
-0.0054322
1.53992e-06
-0.00542951
-6.21032e-06
-0.00542983
-1.19746e-05
-0.00542994
-2.70515e-05
-0.00542965
-0.00543145
1.51116e-05
-0.909217
0.201105
6.00502e-06
-0.909416
0.201081
1.02147e-06
-0.909384
0.201086
-1.03625e-05
-0.909385
0.201088
-2.78757e-05
-0.909426
0.201079
-0.909237
0.201097
4.2451e-05
-0.86279
-0.16069
1.18635e-05
-0.862912
-0.160707
-2.94447e-07
-0.862896
-0.160702
-1.11742e-05
-0.862896
-0.160702
-4.33946e-05
-0.862915
-0.160704
-0.862796
-0.160686
2.4381e-05
-0.0336646
5.36468e-06
-0.0336599
-2.30992e-06
-0.0336608
-7.70786e-06
-0.0336617
-2.16037e-05
-0.0336615
-0.0336661
1.95098e-05
-0.896385
-0.0210576
4.81002e-06
-0.896553
-0.0210762
-9.08743e-06
-0.896528
-0.0210749
-1.24343e-05
-0.896523
-0.0210916
-1.89629e-05
-0.896545
-0.021095
-0.896385
-0.0210675
3.61333e-05
-0.843637
-0.213471
1.47764e-05
-0.84375
-0.213489
2.55737e-06
-0.843737
-0.213484
-9.71271e-06
-0.843736
-0.213481
-3.85679e-05
-0.843752
-0.213471
-0.843629
-0.21348
2.50307e-05
-0.0746258
6.5553e-06
-0.0746193
-4.16668e-06
-0.0746254
-1.11157e-05
-0.0746298
-2.13663e-05
-0.0746304
-0.0746322
1.65725e-05
-0.964878
-0.600373
1.66675e-05
-0.965017
-0.600415
1.65284e-05
-0.965003
-0.600429
8.97189e-06
-0.965019
-0.600466
-6.38356e-06
-0.965051
-0.600466
-0.96489
-0.600425
1.39311e-05
-0.714443
-0.463918
4.6652e-06
-0.714546
-0.463949
-3.765e-07
-0.714537
-0.463946
-1.78267e-05
-0.714544
-0.463938
-3.63648e-05
-0.714573
-0.463927
-0.714458
-0.463951
2.10965e-05
-0.0463115
-8.79214e-06
-0.0462845
-2.10159e-05
-0.0463129
-1.82683e-05
-0.0463345
-1.34756e-05
-0.0463398
-0.0463237
3.99376e-05
-1.41403
0.322622
8.9583e-05
-1.41432
0.322481
9.87136e-05
-1.41424
0.322513
5.52968e-05
-1.41419
0.322511
3.33717e-06
-1.41428
0.322471
-1.41406
0.322645
-1.44718e-05
-0.904449
-0.973484
-3.33581e-05
-0.904588
-0.973663
-3.82968e-05
-0.904561
-0.973623
-2.38991e-05
-0.90456
-0.973579
3.2309e-05
-0.904607
-0.973655
-0.904514
-0.973471
2.88187e-05
-0.292274
-3.19039e-05
-0.292245
-4.19728e-05
-0.292294
-1.57252e-05
-0.29232
8.70574e-06
-0.292337
-0.292288
0.000125787
2.00423
1.41457
0.00025413
2.00408
1.41469
0.000317387
2.0042
1.4146
0.000203451
2.00435
1.41464
-2.45003e-05
2.00425
1.41482
2.00435
1.41469
1.15528e-06
0.617872
0.412865
-5.16658e-05
0.617552
0.412916
-2.09567e-05
0.617749
0.412791
0.000102991
0.61792
0.412728
0.000267293
0.617851
0.412582
0.617927
0.413221
-6.68398e-05
0.501777
-0.000251462
0.501722
-0.000287628
0.501637
-0.000117902
0.501538
0.000182019
0.50132
0.501917
0.000156137
3.85344
1.29541
0.000235236
3.85376
1.29621
0.000234519
3.85368
1.29587
0.000194299
3.85384
1.29584
0.000183129
3.85369
1.29625
3.85387
1.29583
-0.000153883
4.37761
-0.111156
-0.000161715
4.378
-0.111314
-0.000262269
4.37798
-0.111411
6.63066e-05
4.37822
-0.111983
0.00146861
4.37829
-0.113423
4.37798
-0.109425
9.93756e-05
0.434384
-6.24338e-06
0.434258
-0.000159511
0.434199
5.89633e-05
0.433708
0.00118432
0.432365
0.435611
0.000745465
1.12805
0.475905
0.000115643
1.13172
0.476737
-0.00011133
1.13034
0.476453
8.67178e-05
1.12979
0.47636
0.000265901
1.13064
0.476915
1.12998
0.476053
-0.000562239
2.16706
-1.1496
0.00015665
2.16915
-1.14946
0.00010736
2.16853
-1.14955
-0.000229858
2.16838
-1.15023
0.000425547
2.16891
-1.15234
2.16788
-1.1469
-0.000621149
-0.966132
-0.000162022
-0.965763
-6.00363e-05
-0.965899
-0.000119619
-0.966083
0.00061706
-0.966685
-0.965645
2.80594e-05
0.337686
0.635413
6.94895e-05
0.338701
0.63561
8.98342e-06
0.338355
0.635652
2.25908e-05
0.338244
0.635584
4.03281e-05
0.338506
0.635981
0.338086
0.635363
0.000110517
-1.63623
0.824209
0.000358946
-1.63556
0.824546
0.000629515
-1.63595
0.82448
-2.90342e-05
-1.63553
0.824195
-0.00161501
-1.63602
0.823767
-1.63558
0.82515
-0.000536618
0.696064
-0.000839998
0.696864
-0.00114596
0.696658
-0.000971011
0.696111
0.000814649
0.694497
0.696853
-0.000462501
-0.766511
-3.1197
3.88668
0.00313614
-0.770654
-3.11837
3.88543
0.0106271
-0.772836
-3.11841
3.88376
0.00254708
-0.757551
-3.12144
3.88707
0.0110431
-0.770167
-3.11636
3.87803
-0.754952
-3.13303
3.89903
0.00107406
1.46591
-2.01692
-0.216575
-0.00342795
1.46963
-2.0191
-0.216682
-0.0104277
1.46684
-2.04014
-0.192532
-0.00233502
1.46947
-1.99967
-0.235445
0.013908
1.4732
-2.01381
-0.245801
1.46398
-2.01757
-0.187451
0.00230689
-2.65522
-0.15053
-0.00359479
-2.66425
-0.140959
-0.00559228
-2.66442
-0.139305
-0.000803926
-2.65636
-0.15908
0.00878927
-2.6578
-0.176018
-2.646
-0.140139
-0.000656319
-0.950906
-2.16814
-0.000766412
-0.950907
-2.16736
-0.00167534
-0.950356
-2.16715
0.000129333
-0.953026
-2.17022
0.00922707
-0.953072
-2.17239
-0.953195
-2.17061
0.000607776
0.469825
-3.43826
-0.000209789
0.469827
-3.43901
-0.0179901
0.466457
-3.43917
-0.00214694
0.470229
-3.43877
0.0208798
0.454564
-3.44447
0.482144
-3.43203
0.00124273
-4.20288
-0.00317412
-4.20586
-0.0103996
-4.20314
-0.00197911
-4.20856
0.0192199
-4.20726
-4.1899
-6.55668e-05
-0.806939
-1.36113
0.000314848
-0.806709
-1.36103
0.000621693
-0.806647
-1.36081
0.0010057
-0.808107
-1.3625
0.00133631
-0.809042
-1.36367
-0.807424
-1.36185
-0.000722996
-1.9119
-2.33257
-0.00155948
-1.91232
-2.33256
-0.00520935
-1.91045
-2.33172
-0.0021794
-1.91786
-2.33205
0.00620756
-1.93614
-2.32576
-1.90215
-2.3311
-8.35043e-05
-2.58083
-0.00132454
-2.58144
-0.00220998
-2.58065
-0.00468663
-2.58396
-0.00165571
-2.58291
-2.56725
0.000482541
-0.642222
-0.719395
0.000892334
-0.642017
-0.719419
0.00170439
-0.642163
-0.719457
0.00118515
-0.642501
-0.719477
-0.00104961
-0.641889
-0.719549
-0.643006
-0.719892
-0.000468804
-1.21956
-1.75476
-0.000148863
-1.22016
-1.75473
9.83282e-05
-1.21936
-1.75477
-0.000637865
-1.21885
-1.75496
-0.00160769
-1.21201
-1.75467
-1.2223
-1.75341
-0.000831424
-1.86364
-0.0014479
-1.8636
-0.00266521
-1.86225
-0.0043664
-1.86589
-0.00640789
-1.8677
-1.85356
0.000264201
-0.215811
-0.503848
0.000346126
-0.215697
-0.503804
0.000579696
-0.215853
-0.503837
0.000271542
-0.215051
-0.504117
-0.000862581
-0.213508
-0.504908
-0.21745
-0.503304
-8.36538e-05
-0.516739
-1.45375
-8.92021e-05
-0.516484
-1.45394
-0.00100451
-0.515732
-1.45398
-5.21589e-05
-0.517326
-1.45364
0.00341195
-0.517588
-1.45405
-0.513505
-1.45394
-0.000944584
-1.46853
-0.00106538
-1.46889
-0.00092134
-1.46815
-0.00248193
-1.46878
-0.00493611
-1.4685
-1.46574
9.48695e-05
0.13147
0.000164251
0.131736
0.000374648
0.131605
0.000134257
0.131707
-0.000918863
0.132126
0.13114
4.27256e-05
-0.498109
7.76203e-05
-0.497694
-0.000186374
-0.497632
5.42943e-05
-0.497975
0.000981721
-0.499088
-0.49667
-0.000715194
-0.000843806
-0.000714326
-0.000955082
-0.000802202
5.30832e-07
0.081883
-0.0120018
1.04239e-06
0.0818836
-0.0120017
1.12809e-06
0.0818836
-0.0120016
9.84188e-07
0.0818835
-0.0120015
6.17498e-07
0.0818834
-0.0120015
0.0818827
-0.0120014
4.14602e-07
0.0893429
-0.00745976
6.97821e-07
0.0893434
-0.00745976
7.08934e-07
0.0893433
-0.00745977
5.55155e-07
0.0893432
-0.00745983
2.65234e-07
0.0893432
-0.0074599
0.0893425
-0.00745997
2.45144e-07
-0.00333805
3.08737e-07
-0.00333811
2.91199e-07
-0.00333815
1.94801e-07
-0.0033382
4.17622e-08
-0.00333824
-0.00333824
1.10753e-06
0.0867519
-0.0255896
1.25969e-06
0.0867524
-0.0255897
1.29558e-06
0.0867523
-0.0255895
1.07847e-06
0.0867521
-0.0255893
5.72453e-07
0.0867518
-0.0255891
0.086751
-0.0255887
6.49468e-07
0.0945398
-0.0152484
6.32702e-07
0.0945403
-0.0152485
5.93039e-07
0.0945401
-0.0152485
3.80851e-07
0.09454
-0.0152484
1.3897e-08
0.0945399
-0.0152483
0.0945392
-0.0152481
9.1877e-08
-0.00768361
7.76778e-08
-0.00768381
5.38553e-08
-0.00768385
-2.63976e-08
-0.00768385
-1.04345e-07
-0.00768386
-0.00768366
1.3933e-06
0.097055
-0.0431649
1.94343e-06
0.0970556
-0.0431648
2.19212e-06
0.0970552
-0.0431642
1.94011e-06
0.0970548
-0.0431635
1.10255e-06
0.0970544
-0.043163
0.0970533
-0.0431623
4.49538e-07
0.105314
-0.0235091
6.7992e-07
0.105315
-0.0235087
8.07923e-07
0.105315
-0.0235083
7.15474e-07
0.105314
-0.0235077
4.1202e-07
0.105314
-0.0235073
0.105313
-0.0235069
-1.26565e-07
-0.0144626
-2.58747e-08
-0.0144628
1.03782e-07
-0.0144628
1.50741e-07
-0.0144625
2.85052e-07
-0.0144625
-0.014462
3.17515e-06
0.114017
-0.0689693
5.21537e-06
0.114016
-0.068969
5.64665e-06
0.114015
-0.0689685
4.80648e-06
0.114014
-0.068968
2.97197e-06
0.114012
-0.068968
0.114011
-0.0689674
1.75496e-06
0.122441
-0.031935
2.93921e-06
0.122441
-0.0319337
3.14902e-06
0.122441
-0.0319329
2.69234e-06
0.12244
-0.0319324
1.69618e-06
0.12244
-0.0319323
0.122439
-0.0319328
1.69729e-07
-0.0258952
3.90321e-07
-0.0258954
8.07623e-07
-0.0258958
6.73623e-07
-0.0258949
8.2809e-07
-0.0258954
-0.0258944
7.12639e-06
0.139499
-0.110255
9.6404e-06
0.139495
-0.110256
8.67286e-06
0.139492
-0.110256
5.7833e-06
0.139489
-0.110257
3.01636e-06
0.139486
-0.110259
0.139484
-0.110258
4.5215e-06
0.147367
-0.0398053
5.49762e-06
0.147367
-0.0398038
4.51225e-06
0.147366
-0.0398042
2.92288e-06
0.147365
-0.0398059
1.04301e-06
0.147364
-0.0398075
0.147363
-0.0398105
1.35718e-06
-0.0456797
1.45773e-06
-0.0456792
2.34756e-06
-0.0456809
1.05865e-06
-0.0456775
8.2164e-07
-0.0456795
-0.0456772
9.92992e-06
0.176913
-0.179892
9.5852e-06
0.176904
-0.179895
5.0891e-06
0.176897
-0.179897
-8.06664e-07
0.176895
-0.179898
-1.60189e-06
0.176893
-0.179903
0.176894
-0.179902
8.40991e-06
0.184808
-0.0477062
7.79553e-06
0.184808
-0.047705
3.35139e-06
0.184806
-0.0477067
-1.02975e-07
0.184806
-0.0477123
-3.66734e-06
0.184806
-0.047715
0.184806
-0.0477253
2.02609e-06
-0.0759842
1.3667e-06
-0.0759806
3.48853e-06
-0.0759862
1.23254e-06
-0.0759755
1.62323e-06
-0.0759807
-0.0759754
1.24625e-05
0.228225
-0.296498
8.11145e-06
0.228211
-0.296503
-1.23505e-07
0.228205
-0.296503
-1.4182e-05
0.228206
-0.296493
-1.10685e-05
0.228211
-0.296505
0.228219
-0.296499
1.43836e-06
0.239132
-0.0586118
-1.1407e-05
0.239132
-0.0586109
-2.71112e-05
0.239134
-0.0586172
-3.18768e-05
0.239136
-0.0586344
-3.72208e-05
0.239143
-0.0586396
0.239146
-0.058689
9.7623e-06
-0.124627
1.11483e-05
-0.124613
1.23152e-05
-0.124619
5.89031e-06
-0.124595
-6.39107e-06
-0.12459
-0.124605
1.6445e-05
0.321922
-0.515019
8.37679e-06
0.321917
-0.515023
-5.71127e-06
0.321926
-0.515007
-3.71515e-05
0.321957
-0.514974
-3.91219e-05
0.321986
-0.514997
0.322019
-0.515017
1.40586e-05
0.330373
-0.0670746
2.92439e-05
0.330372
-0.0670794
3.36345e-05
0.330379
-0.0670728
2.5183e-05
0.330374
-0.0670421
-9.67926e-07
0.330404
-0.0670312
0.33039
-0.0670598
2.69319e-05
-0.162443
4.90735e-05
-0.162421
6.28593e-05
-0.162412
3.86641e-05
-0.162328
1.57869e-05
-0.162312
-0.162287
2.48212e-05
0.450967
-0.898363
0.000171838
0.450976
-0.898502
0.000269569
0.450976
-0.898401
-8.32241e-05
0.450943
-0.897807
-0.000358883
0.451155
-0.897991
0.450845
-0.898466
-0.000123576
0.448768
-0.0647509
-0.000234938
0.448788
-0.0647783
-0.000439932
0.448866
-0.064757
-0.000312601
0.448821
-0.0650468
-0.000817565
0.449082
-0.0644513
0.448805
-0.0658366
0.000106607
-0.234481
0.000231476