/*--------------------------------*- C++ -*----------------------------------*\
| =========                 |                                                 |
| \\      /  F ield         | OpenFOAM: The Open Source CFD Toolbox           |
|  \\    /   O peration     | Version:  v1612+                                |
|   \\  /    A nd           | Web:      www.OpenFOAM.com                      |
|    \\/     M anipulation  |                                                 |
\*---------------------------------------------------------------------------*/
FoamFile
{
    version     2.0;
    format      ascii;
    class       volVectorField;
    location    "3.55";
    object      U;
}
// * * * * * * * * * * * * * * * * * * * * * * * * * * * * * * * * * * * * * //

dimensions      [0 1 -1 0 0 0 0];

internalField   nonuniform List<vector> 
1116
(
(0.318115 -1.19662e-06 -0.325127)
(0.31811 9.59453e-06 -0.325133)
(0.318114 9.70589e-06 -0.32512)
(0.318118 1.00477e-05 -0.325117)
(0.318116 -1.58208e-06 -0.325129)
(0.318111 9.60669e-08 -0.325121)
(1.09131 7.94482e-06 -0.367841)
(1.09132 1.13538e-05 -0.367856)
(1.09132 1.15276e-05 -0.36784)
(1.09132 1.52879e-05 -0.367834)
(1.09132 -6.66782e-06 -0.367852)
(1.09131 -1.38814e-05 -0.367845)
(1.63518 1.16094e-05 -0.236467)
(1.6352 1.33673e-05 -0.236487)
(1.6352 8.21022e-06 -0.236473)
(1.6352 1.35382e-05 -0.23647)
(1.6352 -5.83132e-06 -0.236488)
(1.63518 -1.34519e-05 -0.236476)
(1.97358 1.23121e-05 -0.0971253)
(1.97362 1.47711e-05 -0.0971475)
(1.97361 5.66371e-06 -0.0971353)
(1.97361 1.1801e-05 -0.0971345)
(1.97362 -4.97104e-06 -0.0971505)
(1.97358 -1.07613e-05 -0.0971342)
(2.20564 1.12668e-05 0.00454543)
(2.20569 1.4581e-05 0.00452608)
(2.20568 3.85413e-06 0.00453601)
(2.20568 9.2731e-06 0.00453632)
(2.20569 -5.00707e-06 0.0045238)
(2.20565 -8.37067e-06 0.00454009)
(2.36424 9.09837e-06 0.0679382)
(2.36429 1.37477e-05 0.0679237)
(2.36428 2.97606e-06 0.0679321)
(2.36428 6.16377e-06 0.0679322)
(2.36429 -5.80797e-06 0.067922)
(2.36424 -6.03564e-06 0.0679373)
(2.42226 6.24115e-06 0.124934)
(2.42233 1.27954e-05 0.124926)
(2.42232 2.49815e-06 0.124933)
(2.42232 2.18596e-06 0.124933)
(2.42232 -7.75774e-06 0.124924)
(2.42227 -3.34525e-06 0.124938)
(2.32235 1.24187e-06 0.277551)
(2.32241 1.06422e-05 0.277549)
(2.3224 1.62159e-06 0.277553)
(2.3224 -1.18638e-06 0.277553)
(2.3224 -1.00842e-05 0.277545)
(2.32235 -8.80352e-07 0.277561)
(1.82108 -1.89904e-06 0.679671)
(1.82113 1.1573e-05 0.679679)
(1.82114 7.77429e-07 0.679676)
(1.82113 -1.88291e-06 0.679677)
(1.82113 -1.55808e-05 0.679671)
(1.82106 -4.04124e-06 0.679687)
(0.776556 9.54517e-07 0.917812)
(0.776614 1.44802e-05 0.91785)
(0.776621 -1.42609e-06 0.917839)
(0.77661 1.44414e-07 0.917841)
(0.776637 -1.81009e-05 0.917847)
(0.776493 -9.60032e-06 0.917834)
(-0.573707 1.65252e-05 0.284532)
(-0.573636 1.96584e-05 0.284604)
(-0.573621 -6.48133e-06 0.284595)
(-0.573633 3.54484e-06 0.284589)
(-0.573585 -1.9503e-05 0.284619)
(-0.573806 -1.68065e-05 0.284497)
(-0.929874 -1.53531e-05 -0.945438)
(-0.929813 -2.27199e-05 -0.945471)
(-0.929814 -1.13941e-05 -0.945464)
(-0.929814 -1.73187e-05 -0.945476)
(-0.929774 9.34159e-06 -0.945482)
(-0.929888 2.91923e-05 -0.945491)
(0.565133 1.15469e-05 -1.27138)
(0.565127 -4.26092e-05 -1.27138)
(0.565147 3.65777e-05 -1.27139)
(0.565126 1.29483e-05 -1.27137)
(0.56511 2.02464e-05 -1.27136)
(0.565168 -4.39994e-05 -1.27135)
(1.99657 2.87267e-05 -1.20025)
(1.99654 -7.33601e-05 -1.20022)
(1.99656 5.67673e-05 -1.20025)
(1.99653 -1.26393e-05 -1.20019)
(1.99651 7.38541e-05 -1.20014)
(1.99661 -4.44388e-05 -1.20026)
(2.98548 4.57216e-05 -0.705262)
(2.98545 -6.40808e-05 -0.705206)
(2.98546 5.97202e-05 -0.705231)
(2.98542 -3.119e-05 -0.705198)
(2.98542 9.27655e-05 -0.705149)
(2.98554 -3.66598e-05 -0.705241)
(3.45954 5.69983e-05 -0.527049)
(3.45956 -4.37811e-05 -0.526973)
(3.45953 5.25724e-05 -0.526997)
(3.4595 -1.94624e-05 -0.52698)
(3.45953 7.38081e-05 -0.526933)
(3.45958 -4.63537e-05 -0.527015)
(3.71968 6.53406e-05 -0.456214)
(3.71979 -2.11613e-05 -0.456131)
(3.71972 3.77396e-05 -0.456155)
(3.71969 -5.31573e-06 -0.456146)
(3.71975 4.77034e-05 -0.456105)
(3.71971 -5.55611e-05 -0.456182)
(3.92299 7.29466e-05 -0.343732)
(3.92318 -4.94694e-07 -0.343655)
(3.92307 2.25509e-05 -0.343674)
(3.92305 5.91005e-06 -0.343669)
(3.92313 2.73573e-05 -0.34364)
(3.923 -6.03724e-05 -0.343704)
(4.13034 7.74729e-05 -0.101688)
(4.1306 1.25382e-05 -0.101638)
(4.13045 9.0483e-06 -0.101644)
(4.13044 8.46774e-06 -0.101641)
(4.13053 1.17177e-05 -0.10163)
(4.13035 -6.0168e-05 -0.101669)
(4.07286 7.58415e-05 0.330429)
(4.07318 2.3123e-05 0.330466)
(4.07302 8.56163e-07 0.330469)
(4.07302 8.62672e-06 0.330473)
(4.07312 -3.77663e-06 0.330467)
(4.07289 -5.619e-05 0.330448)
(3.43248 8.06565e-05 0.852503)
(3.43284 4.36326e-05 0.852523)
(3.43268 -1.60437e-06 0.852532)
(3.43268 1.63912e-05 0.852535)
(3.43278 -2.15345e-05 0.852514)
(3.43256 -5.86422e-05 0.852511)
(2.69022 5.92245e-05 1.29663)
(2.69061 4.82839e-05 1.29666)
(2.69046 6.17185e-06 1.29666)
(2.69046 1.71014e-05 1.29666)
(2.69056 -2.16684e-05 1.29664)
(2.69031 -4.14284e-05 1.29664)
(1.37592 4.54883e-05 1.03115)
(1.37631 4.42295e-05 1.03124)
(1.37619 1.44556e-06 1.03121)
(1.37619 1.41916e-05 1.0312)
(1.3763 -2.09652e-05 1.03121)
(1.37599 -2.93062e-05 1.03114)
(0.235857 -5.17807e-05 -0.332513)
(0.236251 -4.90601e-05 -0.332425)
(0.236164 1.6391e-06 -0.33245)
(0.236157 -1.48633e-05 -0.332464)
(0.236257 3.12861e-05 -0.332438)
(0.235937 4.86654e-05 -0.332557)
(0.100021 -8.25768e-05 -2.60845)
(0.100004 -0.000122695 -2.60856)
(0.0999989 -1.60436e-05 -2.60866)
(0.0999973 -3.30611e-05 -2.6085)
(0.100008 0.000130626 -2.60838)
(0.100011 0.000106511 -2.6086)
(0.352884 -8.44524e-05 -1.89302)
(0.352786 -0.000111554 -1.89313)
(0.352751 1.90003e-05 -1.89317)
(0.352767 -5.03185e-06 -1.8931)
(0.352812 0.00014779 -1.89303)
(0.352857 0.000112694 -1.89305)
(0.941 -6.19574e-05 -1.38791)
(0.940889 -8.74707e-05 -1.38809)
(0.940855 3.96362e-05 -1.38805)
(0.94088 6.4172e-06 -1.38805)
(0.940947 0.000126973 -1.38806)
(0.941022 8.83122e-05 -1.38782)
(1.97967 -6.78531e-05 -0.933079)
(1.97957 -9.7917e-05 -0.933234)
(1.97955 2.86207e-05 -0.933174)
(1.97958 -9.76609e-06 -0.933179)
(1.97966 0.000121188 -0.933187)
(1.97974 9.45845e-05 -0.932961)
(3.41451 -7.89164e-05 -0.617511)
(3.41443 -0.000116346 -0.617569)
(3.41436 -5.2524e-07 -0.617534)
(3.41438 -4.56952e-05 -0.617539)
(3.41447 9.15238e-05 -0.617509)
(3.41456 8.79701e-05 -0.617394)
(4.9381 -0.00010408 -0.48596)
(4.93802 -0.000178042 -0.485869)
(4.93795 -7.09679e-05 -0.485886)
(4.93795 -8.46828e-05 -0.48589)
(4.93805 5.61561e-05 -0.485807)
(4.9381 6.71298e-05 -0.485816)
(7.23685 -0.000140355 -0.182397)
(7.23671 -0.000203055 -0.182211)
(7.23646 -6.04233e-05 -0.182307)
(7.2364 -0.000106107 -0.182331)
(7.23655 5.04846e-05 -0.182239)
(7.23661 9.51634e-05 -0.182335)
(7.76893 -3.27577e-05 1.39961)
(7.76889 -7.02235e-05 1.39976)
(7.76875 5.54176e-06 1.39967)
(7.76872 -6.96774e-05 1.39966)
(7.76877 3.63176e-05 1.39971)
(7.76886 5.21498e-05 1.3996)
(5.30594 0.000156225 2.15594)
(5.30731 9.57006e-05 2.15613)
(5.30666 2.72896e-06 2.15603)
(5.30664 5.32072e-07 2.15602)
(5.30702 -5.98815e-05 2.15609)
(5.30632 -9.50077e-05 2.15589)
(2.98847 0.000188679 2.41114)
(2.98919 0.00013166 2.41139)
(2.98888 3.22502e-06 2.4113)
(2.9889 6.91502e-05 2.4113)
(2.98909 -4.03773e-05 2.41135)
(2.98874 -0.000110445 2.41122)
(1.83605 0.000186482 1.98456)
(1.83688 0.000141239 1.98498)
(1.83656 -2.02867e-05 1.98482)
(1.83658 4.89185e-05 1.98482)
(1.83679 -5.69501e-05 1.98492)
(1.83626 -9.88644e-05 1.98465)
(0.119242 -0.000110876 0.561915)
(0.120005 -8.2764e-05 0.562279)
(0.119775 2.7019e-05 0.562161)
(0.119788 -3.72075e-05 0.562156)
(0.119999 6.08811e-05 0.562255)
(0.119393 9.10395e-05 0.561981)
(-0.349112 -2.35821e-05 -1.89973)
(-0.34908 1.6044e-05 -1.90018)
(-0.349098 -1.85028e-05 -1.90012)
(-0.34909 -4.40716e-07 -1.90011)
(-0.349073 -2.17528e-05 -1.90017)
(-0.349158 2.2631e-05 -1.89972)
(-0.983249 -1.11249e-05 -1.83765)
(-0.983118 2.92124e-05 -1.83815)
(-0.983157 -1.25171e-05 -1.83808)
(-0.983149 1.96532e-07 -1.83808)
(-0.983102 -1.04979e-05 -1.83817)
(-0.983318 2.85659e-05 -1.83759)
(-1.29128 -1.17995e-05 -1.8568)
(-1.291 1.49872e-05 -1.85729)
(-1.29104 -7.74624e-06 -1.85721)
(-1.29103 -5.16632e-06 -1.85721)
(-1.29095 -3.20591e-06 -1.85729)
(-1.29131 2.7646e-05 -1.85672)
(-1.38014 -4.91293e-05 -2.26432)
(-1.37982 -4.42224e-05 -2.26481)
(-1.37988 -4.4963e-05 -2.26473)
(-1.37987 -4.54351e-05 -2.26474)
(-1.3798 -4.54864e-06 -2.26483)
(-1.38014 3.69111e-05 -2.26425)
(-1.59259 -8.89117e-05 -2.6724)
(-1.59232 -0.000100384 -2.67283)
(-1.59239 -6.76277e-05 -2.67276)
(-1.59241 -6.78733e-05 -2.67278)
(-1.59236 4.36779e-06 -2.67286)
(-1.59263 5.55056e-05 -2.67237)
(-1.96859 -0.000110324 -3.19136)
(-1.96843 -0.000124924 -3.19175)
(-1.96853 -5.29394e-05 -3.19173)
(-1.96856 -8.44813e-05 -3.19175)
(-1.96854 2.73491e-05 -3.19179)
(-1.96865 0.000101325 -3.19138)
(-1.69657 -0.000138856 -2.80969)
(-1.69657 -0.000103208 -2.8101)
(-1.69664 7.18485e-05 -2.81014)
(-1.69672 -1.11858e-05 -2.81024)
(-1.69672 0.000176796 -2.8103)
(-1.69666 0.000242944 -2.80993)
(1.48559 -8.87168e-05 1.91369)
(1.48487 8.87564e-06 1.91298)
(1.48487 0.000190041 1.91309)
(1.48487 7.48784e-05 1.91311)
(1.48455 0.000184934 1.91287)
(1.48571 0.00018488 1.91352)
(5.73164 0.00019082 7.4569)
(5.73167 0.000180793 7.45696)
(5.73171 0.0001391 7.45679)
(5.73171 0.00018512 7.45675)
(5.7316 0.000103667 7.45681)
(5.73209 -2.34738e-05 7.45673)
(-1.5058 0.000623813 5.20934)
(-1.50382 0.000479001 5.21276)
(-1.50458 -6.59264e-05 5.21126)
(-1.50475 0.000200397 5.21124)
(-1.50371 -0.000161937 5.2121)
(-1.50518 -0.000344988 5.21042)
(1.85709 0.000382692 3.01914)
(1.85823 0.000291276 3.0203)
(1.85777 -6.88326e-05 3.01979)
(1.85773 0.000104024 3.01976)
(1.8579 -0.000103765 3.01991)
(1.85758 -0.000215416 3.01955)
(-0.331572 -0.000104434 0.689987)
(-0.330809 -3.28309e-05 0.690433)
(-0.331049 4.73753e-05 0.690295)
(-0.331121 1.24305e-05 0.690308)
(-0.331123 3.78722e-05 0.690447)
(-0.331266 -4.58111e-06 0.690069)
(0.0181836 -1.43257e-06 0.0184502)
(0.0181844 -2.59484e-06 0.0184502)
(0.018185 -2.32047e-06 0.0184502)
(0.0181856 -2.22117e-06 0.0184502)
(0.0181864 -1.91679e-06 0.0184502)
(0.0181871 -8.45437e-07 0.0184499)
(0.0552535 -1.23563e-06 0.0192449)
(0.0552564 -2.75666e-06 0.0192452)
(0.0552586 -3.32674e-06 0.0192452)
(0.0552606 -3.52794e-06 0.0192451)
(0.0552628 -3.26301e-06 0.0192447)
(0.0552651 -1.45933e-06 0.0192437)
(0.0945465 -1.57042e-06 0.0211508)
(0.0945536 -4.30101e-06 0.0211528)
(0.0945585 -5.96412e-06 0.0211534)
(0.0945625 -6.2197e-06 0.0211532)
(0.0945666 -5.65345e-06 0.0211526)
(0.0945713 -2.56115e-06 0.0211511)
(0.137579 -4.36864e-06 0.0251972)
(0.137593 -1.01833e-05 0.0251973)
(0.137602 -1.17285e-05 0.0251967)
(0.137608 -1.07335e-05 0.0251951)
(0.137613 -9.25282e-06 0.0251927)
(0.13762 -4.26667e-06 0.0251888)
(0.185472 -1.04765e-05 0.0335339)
(0.185497 -1.93911e-05 0.0335221)
(0.185507 -1.59778e-05 0.0335165)
(0.185511 -1.05919e-05 0.0335113)
(0.185513 -7.02343e-06 0.0335067)
(0.185518 -3.20165e-06 0.0335012)
(0.238068 -1.93473e-05 0.0495493)
(0.238102 -2.55845e-05 0.0495085)
(0.238102 -6.2373e-06 0.049492)
(0.238093 7.87973e-06 0.0494829)
(0.238078 1.51087e-05 0.0494789)
(0.238068 7.77583e-06 0.0494778)
(0.292713 -2.39005e-05 0.0771042)
(0.292743 -7.98641e-06 0.0770298)
(0.292716 4.47445e-05 0.0770044)
(0.292671 7.00111e-05 0.076999)
(0.292619 7.84564e-05 0.0770065)
(0.292569 3.82704e-05 0.077024)
(0.341868 -1.50047e-05 0.118519)
(0.341857 4.88501e-05 0.11842)
(0.341782 0.000151955 0.1184)
(0.341687 0.000190387 0.118414)
(0.341582 0.000190081 0.118449)
(0.34147 8.95623e-05 0.118502)
(0.375616 2.4051e-05 0.167717)
(0.375531 0.000148837 0.16764)
(0.375406 0.000278956 0.167653)
(0.375274 0.00031651 0.167708)
(0.375137 0.00029813 0.167783)
(0.374981 0.000138461 0.167872)
(0.362861 6.62404e-05 0.207504)
(0.362674 0.000198472 0.207542)
(0.362522 0.000285455 0.207647)
(0.362384 0.000303485 0.207806)
(0.362238 0.000259583 0.207981)
(0.362041 0.000113153 0.208176)
(0.292314 6.50987e-05 0.164149)
(0.29208 0.000116208 0.164381)
(0.291965 0.000104079 0.164437)
(0.291881 9.71835e-05 0.164464)
(0.291776 9.50577e-05 0.164478)
(0.291545 5.51031e-05 0.164679)
(0.114212 -3.75696e-05 0.0924575)
(0.114085 -0.000124617 0.0926317)
(0.114044 -0.000180714 0.0926316)
(0.114014 -0.000198132 0.0926254)
(0.113977 -0.00021007 0.0925783)
(0.113877 -0.000100419 0.0926194)
(0.017604 -1.31211e-06 0.053555)
(0.0176052 -2.33989e-06 0.0535557)
(0.017606 -1.96198e-06 0.053556)
(0.0176067 -1.83314e-06 0.0535563)
(0.0176075 -1.39168e-06 0.0535565)
(0.0176083 -5.46557e-07 0.053556)
(0.053191 -1.3865e-06 0.0554266)
(0.0531954 -2.79789e-06 0.0554277)
(0.0531981 -2.9278e-06 0.0554279)
(0.0532005 -2.93576e-06 0.0554281)
(0.0532027 -2.44353e-06 0.0554277)
(0.053205 -1.0361e-06 0.0554258)
(0.0895872 -2.52282e-06 0.0586961)
(0.0895966 -4.99921e-06 0.0586996)
(0.0896014 -5.0156e-06 0.0587008)
(0.0896049 -4.66702e-06 0.0587008)
(0.089608 -3.86748e-06 0.0586997)
(0.0896119 -1.78013e-06 0.0586967)
(0.126406 -3.99828e-06 0.0617312)
(0.126423 -6.36624e-06 0.0617288)
(0.126429 -4.14299e-06 0.061726)
(0.126432 -2.49539e-06 0.0617218)
(0.126434 -1.89427e-06 0.0617162)
(0.126439 -1.26683e-06 0.0617082)
(0.162353 -3.36503e-06 0.0613019)
(0.162383 3.50675e-07 0.0612715)
(0.16239 8.71936e-06 0.0612549)
(0.16239 1.18647e-05 0.0612416)
(0.162388 1.10317e-05 0.0612302)
(0.162389 3.99196e-06 0.0612205)
(0.19555 -2.10774e-08 0.0510768)
(0.195587 1.71713e-05 0.0509865)
(0.195585 3.78743e-05 0.0509482)
(0.195569 4.32032e-05 0.0509288)
(0.19555 3.86793e-05 0.0509225)
(0.195533 1.58538e-05 0.0509297)
(0.223954 2.57784e-05 0.0225141)
(0.223989 7.4148e-05 0.0223424)
(0.223961 0.000101526 0.022288)
(0.223911 0.000104433 0.022282)
(0.223853 9.00427e-05 0.0223094)
(0.223792 3.83244e-05 0.0223706)
(0.24941 5.37153e-05 -0.0394187)
(0.249408 0.000138283 -0.0396367)
(0.249329 0.000173978 -0.0396588)
(0.249229 0.000172295 -0.0396026)
(0.249118 0.000148029 -0.0394964)
(0.248993 6.45682e-05 -0.0393388)
(0.274949 9.00698e-05 -0.141485)
(0.274818 0.000190621 -0.141649)
(0.274616 0.000193402 -0.141546)
(0.274383 0.000163354 -0.14134)
(0.274144 0.000124434 -0.141087)
(0.273882 5.3361e-05 -0.1408)
(0.339747 0.000123678 -0.301623)
(0.33944 0.000241428 -0.301628)
(0.339144 0.000235783 -0.301444)
(0.338848 0.000204906 -0.301207)
(0.338578 0.000177837 -0.300969)
(0.338137 8.97118e-05 -0.300717)
(0.355958 1.97533e-05 -0.476546)
(0.355464 -7.56163e-05 -0.476353)
(0.35518 -0.000238187 -0.476248)
(0.354947 -0.000356965 -0.476169)
(0.354792 -0.000149911 -0.47608)
(0.354468 6.26113e-05 -0.475965)
(0.234258 -0.000135299 -0.61775)
(0.234027 -0.000339053 -0.617676)
(0.233907 -0.000353514 -0.617732)
(0.233748 -0.00041182 -0.61763)
(0.233551 -0.000454934 -0.617553)
(0.233695 -0.000197404 -0.617912)
(0.0166769 -4.17245e-07 0.0865742)
(0.0166777 -7.16751e-07 0.0865752)
(0.0166781 -4.59461e-07 0.0865756)
(0.0166784 -2.99312e-07 0.0865761)
(0.0166786 -4.38494e-08 0.0865765)
(0.0166786 6.11949e-08 0.0865758)
(0.051197 -5.48405e-07 0.0901884)
(0.0512001 -9.16461e-07 0.0901896)
(0.0512014 -7.24539e-07 0.09019)
(0.0512023 -5.32555e-07 0.0901903)
(0.0512026 -1.42145e-07 0.09019)
(0.0512023 5.67709e-08 0.0901879)
(0.08983 -1.67661e-06 0.0973474)
(0.089837 -2.16806e-06 0.0973499)
(0.089839 -7.51988e-07 0.0973505)
(0.0898396 1.13297e-07 0.0973502)
(0.0898391 7.91758e-07 0.0973487)
(0.0898373 4.76377e-07 0.097345)
(0.136655 -2.48415e-06 0.107827)
(0.136668 -9.73614e-07 0.107821)
(0.13667 3.8984e-06 0.107816)
(0.136669 6.07557e-06 0.107811)
(0.136665 6.5486e-06 0.107804)
(0.136659 3.00388e-06 0.107796)
(0.197569 -5.7568e-07 0.121913)
(0.197593 8.00558e-06 0.121878)
(0.197592 1.92814e-05 0.121858)
(0.197583 2.29058e-05 0.121844)
(0.19757 2.12922e-05 0.121832)
(0.197551 9.37755e-06 0.121824)
(0.278438 7.4926e-06 0.140744)
(0.278475 3.20305e-05 0.140655)
(0.278464 5.22873e-05 0.140614)
(0.278435 5.56522e-05 0.140595)
(0.278398 4.90261e-05 0.140592)
(0.27835 2.16524e-05 0.140605)
(0.385484 1.9666e-05 0.167132)
(0.385519 6.51306e-05 0.166977)
(0.385477 9.62639e-05 0.166925)
(0.38541 9.90442e-05 0.166921)
(0.385332 8.57434e-05 0.166954)
(0.38524 3.82948e-05 0.167024)
(0.510328 4.44239e-05 0.205097)
(0.510315 0.000109981 0.20494)
(0.510206 0.000133901 0.204926)
(0.510064 0.000123925 0.204986)
(0.509918 9.27666e-05 0.205101)
(0.509767 3.84027e-05 0.205267)
(0.639594 6.95269e-05 0.257882)
(0.639497 0.000135192 0.257855)
(0.639343 0.000138445 0.257954)
(0.639179 0.000120151 0.258127)
(0.639039 6.06292e-05 0.258356)
(0.63893 1.47348e-05 0.258593)
(0.684507 -9.57062e-07 0.311866)
(0.684241 -6.33491e-05 0.312154)
(0.684076 -0.00013577 0.312394)
(0.68397 -0.000200455 0.312587)
(0.683913 -0.000255227 0.312732)
(0.684055 -0.000126563 0.313062)
(0.504917 -0.000100192 0.125095)
(0.504605 -0.000232496 0.125679)
(0.504522 -0.000297017 0.125849)
(0.504588 -0.000448473 0.125903)
(0.504746 -0.000310107 0.124801)
(0.504889 -2.58553e-05 0.126459)
(0.110002 -0.000172921 -0.0876148)
(0.109636 -0.000316736 -0.0874959)
(0.109584 8.6445e-05 -0.0879034)
(0.110029 0.000277224 -0.0864637)
(0.111166 -0.000781082 -0.0866635)
(0.10889 -0.000843813 -0.0877624)
(0.0144575 -1.73204e-07 0.115895)
(0.0144582 1.89212e-08 0.115896)
(0.0144583 5.59948e-07 0.115896)
(0.0144583 7.72686e-07 0.115896)
(0.0144582 8.08346e-07 0.115896)
(0.014458 3.68868e-07 0.115895)
(0.0439835 1.25141e-07 0.121374)
(0.0439859 5.55697e-07 0.121375)
(0.0439863 9.67396e-07 0.121375)
(0.0439861 1.16461e-06 0.121375)
(0.0439854 1.14585e-06 0.121374)
(0.0439842 4.96717e-07 0.121372)
(0.0748617 3.51481e-08 0.132219)
(0.074866 1.34141e-06 0.13222)
(0.0748654 2.90956e-06 0.132219)
(0.0748633 3.39774e-06 0.132218)
(0.0748603 3.27808e-06 0.132215)
(0.0748567 1.41228e-06 0.132212)
(0.106678 2.19035e-06 0.147245)
(0.106684 7.80215e-06 0.147238)
(0.10668 1.21748e-05 0.147232)
(0.106674 1.29513e-05 0.147225)
(0.106666 1.12758e-05 0.147218)
(0.106658 4.70878e-06 0.147211)
(0.137669 1.03043e-05 0.164004)
(0.137673 2.512e-05 0.163975)
(0.137664 3.03608e-05 0.163956)
(0.137652 2.8676e-05 0.163942)
(0.137638 2.27116e-05 0.163932)
(0.137621 9.20417e-06 0.163926)
(0.165006 2.40184e-05 0.175341)
(0.164999 4.76677e-05 0.175274)
(0.164983 4.53459e-05 0.175241)
(0.164963 3.65102e-05 0.175227)
(0.164941 2.43326e-05 0.175225)
(0.164915 8.81816e-06 0.175239)
(0.185591 3.71582e-05 0.166663)
(0.185559 5.59262e-05 0.166558)
(0.18554 2.92316e-05 0.16653)
(0.185523 8.48302e-06 0.16654)
(0.185502 -9.46111e-06 0.166574)
(0.185473 -8.62819e-06 0.166636)
(0.202081 3.34854e-05 0.106664)
(0.202009 7.03393e-06 0.106557)
(0.202004 -7.45731e-05 0.106576)
(0.202023 -0.000107724 0.106654)
(0.202034 -0.000111445 0.106762)
(0.202002 -5.3606e-05 0.106906)
(0.206052 -4.74043e-06 -0.0983636)
(0.205873 -0.000112637 -0.0983681)
(0.20585 -0.000268041 -0.0982246)
(0.20591 -0.000323607 -0.0979769)
(0.206016 -0.00024289 -0.0977983)
(0.205937 -8.13048e-05 -0.0976191)
(0.311842 4.46217e-05 -0.520419)
(0.311484 -5.05277e-06 -0.520262)
(0.311431 -0.000180476 -0.519864)
(0.311333 -0.000414622 -0.519041)
(0.312474 -0.000138777 -0.519029)
(0.310908 0.000141214 -0.518852)
(0.714012 0.000182107 -1.42027)
(0.713348 0.000226641 -1.42039)
(0.713531 0.000349396 -1.41991)
(0.713086 -0.00185002 -1.42014)
(0.716666 0.0011155 -1.41907)
(0.713448 0.00328244 -1.42214)
(1.74369 0.000190842 -1.49251)
(1.74314 -0.000310745 -1.49226)
(1.74243 0.0026023 -1.49357)
(1.73776 0.000850583 -1.49642)
(1.75641 0.000554532 -1.49323)
(1.73194 0.00303124 -1.50265)
(0.0829163 3.33781e-05 -1.56385)
(0.0829255 2.14472e-05 -1.56426)
(0.082925 -1.26639e-05 -1.56419)
(0.0829292 -9.9011e-06 -1.56418)
(0.0829323 -3.36337e-05 -1.56425)
(0.0829141 -3.63142e-05 -1.56384)
(0.00468674 3.50419e-05 -1.79706)
(0.00468425 3.08624e-05 -1.79734)
(0.00468427 -5.94544e-06 -1.7973)
(0.00468336 3.41585e-06 -1.7973)
(0.00468216 -3.06411e-05 -1.79735)
(0.00468299 -3.52136e-05 -1.79706)
(0.0098968 2.01502e-05 -1.72113)
(0.00989707 2.08998e-05 -1.72128)
(0.0098973 1.70512e-06 -1.72126)
(0.00989693 3.62471e-06 -1.72126)
(0.00989652 -1.66212e-05 -1.72128)
(0.0098957 -1.9558e-05 -1.72112)
(0.112187 4.33112e-05 -1.63444)
(0.112213 2.53463e-05 -1.63488)
(0.112216 -7.26394e-06 -1.63481)
(0.112214 -3.4342e-06 -1.6348)
(0.112212 -3.1769e-05 -1.63487)
(0.112187 -4.80267e-05 -1.63439)
(-0.0795877 3.61413e-05 -1.84959)
(-0.0795914 3.44856e-05 -1.84987)
(-0.0795939 -8.08737e-06 -1.84982)
(-0.0795946 1.71007e-06 -1.84982)
(-0.0795953 -4.26212e-05 -1.84987)
(-0.0796009 -4.31168e-05 -1.84956)
(0.0239691 2.11578e-05 -1.75727)
(0.0239676 2.14667e-05 -1.75742)
(0.0239667 1.54387e-06 -1.75739)
(0.0239656 2.73786e-06 -1.75739)
(0.0239643 -1.99253e-05 -1.75741)
(0.0239646 -2.29088e-05 -1.75725)
(0.373489 3.24453e-05 -1.36299)
(0.373506 1.47722e-05 -1.36343)
(0.373504 -9.95892e-06 -1.36335)
(0.373497 -8.61721e-07 -1.36335)
(0.373494 -2.91183e-05 -1.36343)
(0.373476 -4.76849e-05 -1.36291)
(-0.0972322 3.67903e-05 -1.8002)
(-0.0972517 3.4017e-05 -1.80048)
(-0.0972517 -1.25035e-05 -1.80043)
(-0.0972503 -2.41298e-06 -1.80043)
(-0.0972512 -5.13486e-05 -1.80048)
(-0.0972347 -4.93101e-05 -1.80018)
(0.0304488 1.95091e-05 -1.6268)
(0.0304473 1.60341e-05 -1.62695)
(0.0304449 -3.36971e-06 -1.62693)
(0.0304433 -2.19573e-06 -1.62693)
(0.0304412 -2.2991e-05 -1.62695)
(0.0304428 -2.3858e-05 -1.6268)
(0.501328 2.68555e-05 -1.3807)
(0.501298 1.23225e-05 -1.38114)
(0.501301 -1.23448e-05 -1.38106)
(0.501297 -5.46185e-07 -1.38105)
(0.501292 -3.42141e-05 -1.38115)
(0.50131 -5.24575e-05 -1.38068)
(-0.166893 3.39784e-05 -1.90536)
(-0.166922 2.74372e-05 -1.90564)
(-0.166915 -1.58958e-05 -1.90559)
(-0.166912 -2.35081e-06 -1.90558)
(-0.166912 -4.42199e-05 -1.90564)
(-0.166873 -4.26419e-05 -1.90536)
(0.0148142 1.89679e-05 -1.62945)
(0.0148188 1.20819e-05 -1.6296)
(0.0148172 -7.48554e-06 -1.62958)
(0.0148167 -4.32868e-06 -1.62959)
(0.0148169 -2.12713e-05 -1.62962)
(0.0148144 -2.14345e-05 -1.62947)
(0.498257 2.32251e-05 -1.22206)
(0.498209 1.26705e-05 -1.22249)
(0.498214 -5.35086e-06 -1.22242)
(0.498212 6.48504e-06 -1.22242)
(0.498197 -2.0811e-05 -1.22252)
(0.498231 -4.14885e-05 -1.22209)
(-0.280013 3.65736e-05 -1.86473)
(-0.280047 3.37655e-05 -1.86501)
(-0.280035 -8.16903e-06 -1.86496)
(-0.280029 7.54822e-06 -1.86496)
(-0.280032 -3.25035e-05 -1.86501)
(-0.279985 -3.65855e-05 -1.86475)
(-0.0391294 2.16856e-05 -1.5335)
(-0.0391217 1.6525e-05 -1.53366)
(-0.0391226 -3.84032e-06 -1.53364)
(-0.0391235 -3.32069e-07 -1.53365)
(-0.039123 -1.64995e-05 -1.53367)
(-0.0391302 -1.90069e-05 -1.53351)
(0.21128 3.17758e-05 -1.25512)
(0.211247 1.7756e-05 -1.25548)
(0.211263 -1.29851e-05 -1.25541)
(0.21128 -2.59221e-06 -1.2554)
(0.211265 -1.563e-05 -1.25544)
(0.211299 -3.11162e-05 -1.25511)
(-0.391394 3.40595e-05 -1.80896)
(-0.391429 3.28168e-05 -1.80922)
(-0.391419 -3.27063e-06 -1.80919)
(-0.391418 8.38e-06 -1.80919)
(-0.391422 -2.97923e-05 -1.80923)
(-0.391393 -3.3491e-05 -1.80896)
(-0.0897208 2.05592e-05 -1.48059)
(-0.0897106 1.77362e-05 -1.48073)
(-0.0897176 -3.20416e-06 -1.48072)
(-0.0897237 -4.42289e-06 -1.48072)
(-0.0897252 -1.80454e-05 -1.48073)
(-0.089735 -1.73002e-05 -1.48057)
(-0.238655 1.69854e-05 -2.43559)
(-0.238696 2.40854e-05 -2.43586)
(-0.238707 4.90626e-06 -2.43584)
(-0.238791 1.94362e-05 -2.4359)
(-0.238792 -1.15156e-06 -2.43599)
(-0.238716 -1.67116e-05 -2.43563)
(-0.355079 1.97429e-05 -1.3136)
(-0.355118 1.5441e-05 -1.31383)
(-0.355109 -8.78903e-06 -1.31381)
(-0.355098 6.3584e-06 -1.31381)
(-0.355067 -3.46706e-05 -1.31385)
(-0.355123 -4.4492e-05 -1.31362)
(-0.253097 1.97175e-05 -1.37681)
(-0.25308 9.04203e-06 -1.37695)
(-0.253096 -2.03971e-05 -1.37692)
(-0.253106 -1.65387e-05 -1.37692)
(-0.253105 -1.52497e-05 -1.37697)
(-0.253099 -9.68758e-06 -1.3768)
(-2.66109 2.46623e-05 -3.30343)
(-2.66124 6.64172e-05 -3.30401)
(-2.66131 6.90031e-05 -3.30384)
(-2.66139 9.8129e-05 -3.30373)
(-2.66137 3.00801e-05 -3.30395)
(-2.66125 -3.06483e-05 -3.30333)
(-1.86953 1.75941e-05 -1.67421)
(-1.86961 -2.4446e-05 -1.67466)
(-1.86963 -6.23995e-05 -1.67453)
(-1.86962 -2.60034e-05 -1.67444)
(-1.86959 1.09855e-05 -1.67454)
(-1.86965 1.83725e-05 -1.67437)
(0.131524 3.5641e-05 -1.27854)
(0.131591 6.92354e-06 -1.27863)
(0.131514 -5.57107e-05 -1.27864)
(0.131454 -2.26394e-05 -1.27869)
(0.131433 4.10125e-06 -1.27876)
(0.131485 2.84589e-06 -1.27859)
(4.30469 0.00013015 5.87363)
(4.30421 0.000185313 5.87388)
(4.30442 0.000244794 5.87385)
(4.30449 0.000336059 5.87399)
(4.30426 3.71733e-05 5.8739)
(4.3049 -0.00017153 5.87413)
(-1.50168 6.43018e-05 2.17606)
(-1.50233 -3.37423e-05 2.17523)
(-1.50213 -7.93169e-05 2.17572)
(-1.50192 5.47907e-05 2.17621)
(-1.50233 0.00020019 2.17598)
(-1.50141 0.00015574 2.17615)
(-1.56697 2.39174e-05 -0.294705)
(-1.56691 -0.000132299 -0.29493)
(-1.56705 -0.000295397 -0.294771)
(-1.56709 -0.000226919 -0.294699)
(-1.56717 7.82e-05 -0.294706)
(-1.56697 0.000156872 -0.294672)
(2.1795 0.000252693 7.78703)
(2.18063 0.000202894 7.78742)
(2.18007 0.000119561 7.78724)
(2.1801 0.00034364 7.78752)
(2.18106 0.000193027 7.78726)
(2.18017 -7.44267e-05 7.7876)
(3.11839 2.18251e-05 7.71231)
(3.11805 -0.000187174 7.71262)
(3.11777 -0.000192299 7.71262)
(3.11668 -0.000455947 7.71293)
(3.11568 0.000795954 7.71255)
(3.11984 0.00117701 7.71288)
(4.3366 0.000220805 8.13912)
(4.33627 7.37832e-05 8.14032)
(4.33603 -8.44364e-05 8.14032)
(4.33561 -0.000352414 8.14083)
(4.33465 0.000630625 8.14134)
(4.33723 0.000989239 8.1402)
(1.54515 0.000607513 0.110443)
(1.54786 0.000474623 0.118151)
(1.54682 -0.000166182 0.115178)
(1.54652 4.35197e-05 0.114552)
(1.54796 0.000179654 0.118035)
(1.54589 5.16671e-05 0.112602)
(-4.01843 -0.000326843 1.30135)
(-4.01851 -0.000155313 1.3047)
(-4.01873 0.00012154 1.30352)
(-4.01981 6.42112e-05 1.30256)
(-4.02454 9.80712e-05 1.30202)
(-4.01278 -0.000104437 1.30461)
(-3.39764 -0.000450941 6.38371)
(-3.39781 -0.000410466 6.38504)
(-3.39774 2.47354e-05 6.38462)
(-3.39893 -0.000243983 6.38419)
(-3.40235 0.000264726 6.38286)
(-3.39421 0.000382518 6.38624)
(1.23818 8.74978e-06 1.28033)
(1.23881 6.28983e-05 1.28137)
(1.2387 3.95814e-05 1.28105)
(1.23868 -1.58277e-05 1.281)
(1.23932 5.0577e-05 1.28127)
(1.23817 2.66844e-05 1.28076)
(0.626737 0.000126786 0.469484)
(0.627655 0.00018177 0.472712)
(0.627449 0.000358908 0.471586)
(0.626109 0.000882293 0.471194)
(0.623965 -0.000979244 0.472064)
(0.630085 -0.00161452 0.470697)
(0.18528 -0.000307092 -6.25459)
(0.186699 -0.000637719 -6.25467)
(0.186129 -0.000895383 -6.25524)
(0.186775 -0.00160202 -6.25441)
(0.188089 0.000163375 -6.25644)
(0.183663 0.00114499 -6.25349)
(6.56664 -0.00068727 -3.99637)
(6.56072 -0.0017624 -4.01255)
(6.55849 0.016174 -4.02855)
(6.58572 0.00259018 -3.9402)
(6.55504 0.00734537 -3.99572)
(6.61695 0.0248465 -3.94813)
(3.12023 0.000899965 -1.29779)
(3.12717 0.00189783 -1.30745)
(3.2093 -0.0108349 -1.29871)
(3.0483 -0.0198038 -1.30899)
(3.08871 0.0148964 -1.33399)
(3.14477 0.0249567 -1.27734)
(3.83323 0.00276441 12.2266)
(3.85783 0.00452082 12.2606)
(3.86295 -0.011808 12.2342)
(3.82789 -0.0115067 12.2611)
(3.83233 0.0123399 12.3123)
(3.82218 0.00872918 12.1947)
(4.50399 -0.0008788 -4.83552)
(4.50292 -0.0010255 -4.83758)
(4.50306 0.000129843 -4.83547)
(4.50958 -0.00768569 -4.83856)
(4.5211 0.00859877 -4.82842)
(4.50244 0.0172209 -4.84867)
(6.66423 0.000335271 -0.87061)
(6.66642 0.00292049 -0.86914)
(6.66619 -0.0120957 -0.871429)
(6.67147 -0.0279287 -0.873027)
(6.6932 0.0204982 -0.883824)
(6.64717 0.0352224 -0.869575)
(7.31751 0.00158919 5.26207)
(7.32882 0.00201464 5.26083)
(7.32467 -0.0107754 5.24707)
(7.32455 -0.0222127 5.25867)
(7.32663 0.0179504 5.16034)
(7.29683 0.0334643 5.35113)
(3.87557 -0.000322459 -2.73083)
(3.87452 -2.31155e-05 -2.73171)
(3.87393 0.001461 -2.73267)
(3.87847 -0.000385468 -2.72789)
(3.88268 0.00267119 -2.70408)
(3.87845 0.00254407 -2.75011)
(6.05159 -0.000620296 -1.5134)
(6.05189 -0.00137662 -1.51104)
(6.05155 -0.00324707 -1.51015)
(6.04846 -0.0127357 -1.52221)
(6.04032 0.00466006 -1.55137)
(6.04818 0.0170584 -1.49647)
(7.54969 0.00141083 -10.5486)
(7.55112 -0.0021706 -10.5541)
(7.54748 -0.00329521 -10.5449)
(7.55934 -7.21567e-05 -10.5672)
(7.55407 -0.0134836 -10.6401)
(7.51657 0.00284043 -10.5253)
(1.75582 0.000272733 -1.81543)
(1.75621 0.000988414 -1.81671)
(1.75621 0.00173864 -1.81677)
(1.75586 0.00364104 -1.81462)
(1.7543 -0.000129064 -1.81377)
(1.75875 -0.00338317 -1.81839)
(3.78772 -0.000485519 -1.51737)
(3.78763 -0.000607407 -1.51501)
(3.78674 -0.000114693 -1.51585)
(3.78695 0.000665879 -1.51943)
(3.7766 -0.00228728 -1.51599)
(3.78479 -0.00304802 -1.51938)
(3.97191 0.000287083 -5.78855)
(3.97228 -0.00338665 -5.7933)
(3.97027 -0.00030613 -5.79016)
(3.98074 -0.00544452 -5.78656)
(3.97757 -0.0109037 -5.75668)
(3.95271 -0.00463562 -5.80546)
(0.908292 0.000228732 -0.379568)
(0.90795 0.000487942 -0.380531)
(0.907988 0.0005557 -0.380529)
(0.909245 0.00138452 -0.378343)
(0.911582 -0.000694341 -0.372527)
(0.90662 -0.00168744 -0.385022)
(3.09177 -0.00019166 -0.578766)
(3.09193 3.77987e-05 -0.577211)
(3.09222 -0.000446827 -0.578049)
(3.09193 -0.00256289 -0.576135)
(3.09518 0.00293695 -0.573964)
(3.09021 0.00473226 -0.581852)
(3.84075 -0.000758194 -2.72402)
(3.84009 -0.00264281 -2.72447)
(3.8375 0.000160829 -2.7209)
(3.84049 -0.00229392 -2.73045)
(3.8455 -0.00779553 -2.73501)
(3.82624 -0.00341021 -2.70818)
(1.25595 4.05088e-05 0.865273)
(1.25614 0.000213484 0.86527)
(1.2563 0.000209072 0.865301)
(1.25616 0.00108375 0.865219)
(1.25701 -0.000763862 0.865417)
(1.25563 -0.00182496 0.865311)
(2.52832 1.33053e-05 0.236575)
(2.5289 0.000200155 0.238461)
(2.52883 -4.86591e-05 0.237504)
(2.52857 -0.000635454 0.238288)
(2.5284 0.000933455 0.241038)
(2.52945 0.00132513 0.234192)
(2.22647 -0.000730741 -3.75188)
(2.22858 -0.00134957 -3.75107)
(2.22803 -0.000816118 -3.74998)
(2.2264 -0.00154696 -3.75334)
(2.22072 -0.00170425 -3.76218)
(2.22939 -0.000113087 -3.74103)
(0.0118825 3.05759e-07 0.140302)
(0.0118825 7.48241e-07 0.140303)
(0.0118824 9.90006e-07 0.140303)
(0.0118824 1.02521e-06 0.140303)
(0.0118824 7.44907e-07 0.140303)