/*--------------------------------*- C++ -*----------------------------------*\
| =========                 |                                                 |
| \\      /  F ield         | OpenFOAM: The Open Source CFD Toolbox           |
|  \\    /   O peration     | Version:  v1612+                                |
|   \\  /    A nd           | Web:      www.OpenFOAM.com                      |
|    \\/     M anipulation  |                                                 |
\*---------------------------------------------------------------------------*/
FoamFile
{
    version     2.0;
    format      ascii;
    class       surfaceScalarField;
    location    "7.25";
    object      alphaPhi;
}
// * * * * * * * * * * * * * * * * * * * * * * * * * * * * * * * * * * * * * //

dimensions      [0 3 -1 0 0 0 0];

internalField   nonuniform List<scalar> 
2916
(
-7.04443e-05
0.0845863
-0.0937781
1.85349e-05
0.0843974
-0.0937486
1.13969e-05
0.0844971
-0.0937522
-1.96012e-06
0.0845375
-0.0937865
4.24926e-05
0.084476
-0.0937832
0.0845335
-0.0937541
-5.63631e-05
0.199088
-0.0836204
2.13186e-05
0.198868
-0.0838157
-2.33255e-06
0.199019
-0.0837113
-1.38317e-05
0.199006
-0.0836677
3.53545e-05
0.198944
-0.0837611
0.199041
-0.0836775
-2.69934e-06
0.0717156
0.127552
-1.14759e-05
0.0714222
0.127632
-3.71344e-05
0.0716538
0.127568
-6.22255e-06
0.0715417
0.127611
1.08431e-06
0.0714993
0.127615
0.0717089
0.127511
-0.000256891
-0.243019
0.315169
1.40067e-05
-0.244056
0.315385
0.000162915
-0.243588
0.315271
6.15212e-05
-0.243491
0.315312
-0.000112811
-0.243546
0.315397
-0.243386
0.315159
-0.00118863
-0.493681
0.252028
2.81035e-05
-0.497059
0.251964
0.000878235
-0.49608
0.251819
0.00022524
-0.494881
0.252221
-0.00120615
-0.49409
0.252153
-0.496227
0.251813
-0.00129432
-0.608364
0.108571
-7.09804e-05
-0.613644
0.107823
0.000763064
-0.612572
0.108045
0.00028459
-0.609836
0.108158
-0.00150057
-0.608231
0.108832
-0.613287
0.107747
0.00230188
-0.619609
0.0340313
-0.000334376
-0.624446
0.0371959
-0.00263002
-0.623563
0.0370024
-0.000490273
-0.620678
0.0340382
0.00483698
-0.618607
0.0315372
-0.624996
0.0392675
0.00385541
-0.538503
-0.0325609
-0.000463733
-0.538056
-0.030918
-0.00359573
-0.538167
-0.0310822
-0.000650185
-0.538567
-0.0324888
0.00706849
-0.539505
-0.0334564
-0.536907
-0.0302925
0.00118448
-0.409527
-0.0708576
-0.000294333
-0.406875
-0.0700603
-0.00134778
-0.407364
-0.0703113
-0.000435925
-0.409354
-0.070732
0.00129023
-0.411999
-0.0703634
-0.404598
-0.0704824
-0.00261007
-0.283046
-0.0722298
0.00032607
-0.284176
-0.0726062
0.00273218
-0.284606
-0.0725122
-0.000303215
-0.282356
-0.0722708
-0.00810517
-0.28226
-0.0713028
-0.284914
-0.0739359
-0.00385784
-0.163551
-0.0645879
0.000852908
-0.167238
-0.0708927
0.00497944
-0.167292
-0.0693171
0.0014914
-0.163283
-0.0644789
-0.00795357
-0.161369
-0.0614423
-0.169436
-0.0738664
0.00335303
-0.115503
-0.000680528
-0.110048
-0.00388811
-0.111494
-0.000222049
-0.115508
0.0087854
-0.120136
-0.108069
-0.000107983
0.185515
-0.264302
1.43698e-05
0.185251
-0.264243
-1.83308e-06
0.1854
-0.264246
9.78826e-06
0.185372
-0.264303
0.00011558
0.185279
-0.264312
0.185458
-0.264229
-9.97747e-05
0.327011
-0.19382
-5.09794e-06
0.326454
-0.19391
-5.15509e-05
0.326714
-0.193801
-3.63896e-05
0.326721
-0.193839
0.000242118
0.326567
-0.194103
0.326829
-0.193612
-0.000163792
0.285584
0.0429563
-2.3645e-05
0.285186
0.042789
-4.24328e-05
0.28536
0.0428692
-4.76827e-07
0.285349
0.0428823
0.000275833
0.285234
0.0427544
0.285491
0.0429661
-0.000307034
0.20232
0.093223
-2.97508e-05
0.202089
0.0930243
-9.78857e-06
0.202319
0.0930629
5.78069e-05
0.202023
0.0931692
0.000174067
0.2016
0.0933205
0.202593
0.0930242
-0.000168151
0.15803
0.00567563
-0.000254117
0.159866
0.00529318
0.000139348
0.159055
0.00540652
-5.61279e-06
0.158796
0.00550711
-0.000627137
0.157969
0.00566696
0.158754
0.00549115
0.00644408
0.138511
-0.0242193
-0.00012477
0.141685
-0.0202491
-0.00656007
0.140698
-0.019862
-0.00140745
0.139749
-0.0241866
0.00719336
0.138262
-0.0246836
0.141256
-0.0201343
0.00155894
0.1259
-0.00184367
2.311e-05
0.128998
-0.00308655
-0.00175565
0.128349
-0.00252942
-0.000706607
0.12628
-0.00155547
0.00225077
0.12359
-0.00256681
0.129495
-0.00296483
-0.000205091
0.11966
-0.00204496
-0.000288361
0.122754
-0.00231906
-0.000433293
0.122439
-0.00220604
-0.00037783
0.119778
-0.00201643
-9.35136e-05
0.116258
-0.00186399
0.12454
-0.00206356
-0.00105966
0.0849043
-0.00873348
-8.55922e-05
0.0860047
-0.00888325
0.00020948
0.0864357
-0.00888009
-0.000261401
0.0846128
-0.00870841
-0.00178409
0.0820209
-0.00858273
0.0882349
-0.00875589
-0.00249915
0.0402235
-0.00557429
0.000257298
0.0374591
-0.00485444
0.00189447
0.0383231
-0.0050965
-0.000191644
0.0400785
-0.00543574
-0.00588443
0.04062
-0.00591649
0.0374022
-0.00440117
-0.00347889
0.0451183
-0.0112518
0.00115696
0.036598
-0.0149291
0.00465038
0.0376702
-0.0139925
0.00161188
0.0454002
-0.0118076
-0.00724824
0.0502873
-0.00971957
0.033797
-0.0154222
0.00109097
-0.000853514
0.00127398
-0.00289401
0.00174388
-0.00221961
0.00243156
-0.000925796
0.00289434
-0.00197504
-0.00309618
0.000509868
0.492783
-0.750097
-9.13485e-05
0.492659
-0.748802
-0.000175695
0.492663
-0.749312
-7.18787e-05
0.492768
-0.749646
-0.0002477
0.492845
-0.749446
0.492677
-0.749617
0.000207084
0.483195
-0.360817
-9.29626e-06
0.483201
-0.361415
-0.000213308
0.483
-0.360622
-7.77333e-05
0.483343
-0.36145
0.000174774
0.483757
-0.362466
0.482528
-0.359434
-0.000146256
0.238453
-0.0415616
-8.03068e-05
0.238465
-0.0417578
0.000524181
0.238279
-0.0417611
5.42309e-06
0.23862
-0.0416123
-0.00138861
0.23907
-0.0415538
0.23786
-0.0417425
-0.000302654
0.139475
-0.00332066
-3.32683e-05
0.138596
-0.0035296
0.00018709
0.138358
-0.00348852
2.67107e-05
0.139375
-0.00343303
-0.000672564
0.140801
-0.00349435
0.137236
-0.00351944
-0.00131032
0.0535833
-0.0033415
-0.000195757
0.0581711
-0.000987502
0.00154704
0.0569204
-0.000918765
0.000651301
0.0550834
-0.00298305
-0.00286375
0.054584
-0.000877213
0.0574027
-0.000796245
0.00141503
0.00513409
-0.00162752
-0.000176468
0.00824579
-0.00465092
-0.00142111
0.00789464
-0.00444581
-1.14466e-05
0.00589365
-0.0019975
0.00239992
0.00403522
-0.00121855
0.0096208
-0.00285528
9.58611e-05
-0.0018866
-0.00109982
-1.29796e-05
0.000398418
-0.00131132
-0.000102394
0.000220086
-0.0013072
0.000104023
-0.00186893
-0.00109639
0.000451912
-0.00475041
-0.00102945
0.00127666
-0.00089172
-0.00166655
-0.00763191
-0.00195278
-8.51171e-05
-0.00691425
-0.00134915
0.000856353
-0.00672491
-0.0013326
-0.000747939
-0.0079594
-0.00188881
-0.00274614
-0.0100013
-0.00241871
-0.00451644
-0.000882894
-0.000428999
-0.0214005
-9.02271e-05
3.92083e-05
-0.0217755
4.86826e-05
0.000335515
-0.0213132
3.66142e-05
-0.000376616
-0.0219216
-7.05861e-05
-0.00197962
-0.0223867
-0.000154551
-0.0208463
7.03382e-05
-6.92898e-05
-0.024276
-0.000483727
7.15016e-05
-0.0240431
-0.000406456
7.29583e-05
-0.0237365
-0.000437171
4.2802e-05
-0.0246523
-0.00047672
-0.000494625
-0.0252113
-0.000522677
-0.0233464
-0.000417237
4.8386e-05
-0.0124878
-0.0266916
0.000286779
-0.0147056
-0.0261261
0.000187605
-0.0140801
-0.0259152
0.000397803
-0.0124982
-0.0270025
5.94839e-05
-0.0111203
-0.0278618
-0.0141748
-0.0252075
0.000557192
-0.030103
0.000132384
-0.0350976
-0.000287952
-0.0337658
-8.03449e-05
-0.0293896
0.000402843
-0.0254862
-0.0340693
0.000501474
0.28747
-1.03042
-5.81931e-05
0.288493
-1.02908
0.000608244
0.287483
-1.02979
-3.25684e-05
0.288336
-1.02966
-0.0019508
0.289508
-1.02935
0.286361
-1.03025
0.000249565
0.0450168
-0.189506
1.74691e-05
0.0453249
-0.191895
0.000109519
0.0453785
-0.191141
-0.000138684
0.0450793
-0.190515
-0.000618853
0.0448273
-0.18992
0.0453696
-0.189661
6.29395e-05
0.0033842
-2.99616e-05
4.07431e-06
0.00359505
-7.01277e-06
1.6055e-05
0.00357318
-5.9494e-06
-1.91993e-05
0.00348293
-1.89995e-05
-9.90287e-06
0.00325592
-2.17066e-05
0.00358794
-6.84463e-06
2.61711e-05
-6.48953e-05
-2.05425e-05
1.33666e-06
1.66105e-05
-5.87539e-07
-2.40673e-05
2.23943e-05
3.17226e-06
-1.00553e-05
-2.46765e-05
-8.47625e-06
3.0447e-05
-0.000203084
-1.30982e-05
3.14509e-05
-4.59183e-06
5.00452e-05
-0.00202578
-0.000730106
3.82854e-06
-0.000798431
-0.000296064
-5.32971e-06
-0.000800427
-0.000262884
1.12155e-05
-0.00253208
-0.00072134
0.000197511
-0.00368255
-0.00064903
-0.00046375
-0.000256274
-9.55301e-05
-0.00660805
0.000900203
-2.02284e-06
-0.00489322
-0.000729254
0.000158646
-0.00675595
-0.000523346
0.000219529
-0.00683242
0.0012725
-2.94547e-05
-0.00759022
0.000811711
-0.00312457
-0.000421348
-0.000235568
-0.00622536
0.00178295
-9.01886e-05
-0.00663697
0.00100769
0.000106238
-0.00676206
0.00208266
-0.000184116
-0.0064512
0.00179001
-0.000780894
-0.00609495
0.00169472
-0.00516304
0.000892492
-0.000135673
-0.00035449
0.000262025
-4.27183e-05
-0.000475891
0.00030561
6.83191e-05
-0.000477558
0.000297923
-7.105e-05
-0.00037774
0.00024869
-0.000471063
-0.000319975
0.000220505
-0.000477806
0.000383371
-4.28033e-07
-0.000460808
7.5385e-06
-4.47498e-06
-0.000439138
6.39278e-06
-6.34914e-06
-0.000455056
6.30899e-06
-7.7578e-06
-0.000463319
7.46785e-06
-1.68207e-05
-0.000481257
7.62747e-06
-0.000441527
6.78914e-06
2.60277e-06
-0.000938579
-3.02686e-06
-5.45627e-06
-0.000829691
-3.04892e-06
-1.07063e-05
-0.000878915
-3.02201e-06
-6.32592e-06
-0.000935714
-2.98383e-06
6.48535e-06
-0.00100746
-2.8799e-06
-0.000844645
-3.0514e-06
0.00014222
-0.0172547
-0.0031206
-2.23194e-05
-0.0176701
-0.00290343
-0.00014232
-0.017559
-0.00296245
-7.74395e-05
-0.0174535
-0.00316318
0.000153715
-0.0171308
-0.00340904
-0.0175505
-0.00288571
0.000872514
-0.0342897
-4.20891e-05
-0.0333969
-0.000663516
-0.0339629
-0.000333022
-0.0344836
0.000865969
-0.0353411
-0.033652
-0.027583
-0.00255041
0.02982
-0.0224205
-0.0482164
0.0428561
-0.0198913
-0.037116
0.0345718
-0.0137055
-0.0385611
0.0323968
0.0401991
-0.0940901
0.0402074
0.00437304
0.0358199
0.00968333
-0.0676985
0.0551819
-0.0255621
-0.0876351
0.0742269
0.00377979
-0.117503
0.0508482
-0.0191389
-0.0934296
0.0777717
-0.0269683
-0.162347
0.0761072
-0.0665648
0.0439909
-0.00724743
-0.115356
0.0594387
-0.0150166
-0.161972
0.038341
-0.00267491
-0.188966
0.0355758
-0.0208473
-0.155009
0.0499411
-0.0565407
-0.184829
0.0582021
-0.170192
0.0471075
-0.00768606
-0.146757
0.0236456
-0.00279089
-0.190699
0.0134622
0.00666577
-0.207832
0.0121896
0.0117557
-0.212833
0.0154326
-0.0198365
-0.190683
0.0246528
-0.210675
0.020676
0.00732489
-0.160215
0.000303503
0.0106535
-0.185856
-6.77507e-06
0.010926
-0.205139
-0.00012074
0.0185127
-0.198324
-0.00272703
0.00925099
-0.171855
0.00599906
-0.102184
0.00483861
0.0133989
-0.156558
-0.000132295
0.00835549
-0.161845
-6.77713e-06
0.0164759
-0.125768
-0.000171079
0.00687209
-0.0585108
0.00119758
0.00885582
-0.14434
0.000460045
-0.0414424
0.00654176
0.0149032
-0.154364
-9.05542e-06
0.0101874
-0.157427
-0.000193015
0.001718
-0.0860264
0.0014338
0.00323385
-0.0350658
0.00387797
0.00275826
-0.11118
0.002036
-0.177271
0.00604003
0.00451322
-0.141874
-7.03857e-07
0.0105626
-0.147787
-8.46612e-05
0.00493417
-0.10643
0.00222199
0.00400398
-0.0763528
-1.43203e-05
0.00167846
-0.0884223
-0.000122787
-0.155408
-0.00243502
-0.00437317
-0.123667
-4.69431e-08
-0.00650992
-0.137264
-6.34882e-06
-0.0146297
-0.152644
-0.000723315
6.61764e-06
-0.0981752
-0.000412607
0.00908813
-0.0746829
-1.61476e-05
-0.128208
-0.000198312
0.00323715
-0.0897283
-0.00149327
-0.0193881
-0.0896842
0.000107195
-0.0372017
-0.12339
-0.000265803
-0.0174628
-0.0908178
-0.000362334
0.0131791
-0.0704634
-0.00135022
-0.0924947
-0.000441667
0.012398
-0.0294256
-0.0282164
-0.00871997
-0.0516758
-0.00792298
-0.0487652
-0.0703751
-0.00211231
-0.0405785
-0.0469555
-0.0372206
0.00969448
-0.0317316
-0.0420301
-0.0390504
-0.0178583
0.00359937
-0.0395164
-0.00600576
-0.0288083
-0.0477803
-0.0169682
-0.0316677
-0.0449748
0.00908569
-0.0503908
-0.0376805
-0.0325576
0.00886961
0.0532193
-0.00387322
-0.101521
0.0982436
-0.0204474
-0.0233762
0.0743215
-0.00945661
-0.0787092
0.1001
0.0425552
-0.111286
0.0995039
0.0281892
0.0504388
0.0415586
-0.068687
0.0772931
0.00216111
-0.0604489
0.0414439
-0.00695747
-0.0482659
0.0637648
-0.0209734
-0.0695979
0.0544297
-0.0503499
-0.0875472
0.036811
-0.025745
0.0475971
0.00863292
-0.0278936
0.00250484
0.000112637
-0.0169853
-0.000247596
-0.00348171
-0.0159438
-0.000160944
-0.00651401
-0.0183225
0.00124169
-0.0175396
-0.0278616
-0.00426852
-0.0207372
0.00355343
0.000929786
-0.00376636
7.30943e-05
-0.00103391
4.93226e-06
-0.000245654
-0.00254134
2.95927e-05
-0.000227922
-0.00429972
-3.2322e-05
-8.08176e-05
-0.00197938
-0.00389788
-0.000392397
-0.00282531
-0.000444087
-8.2294e-08
0.000137756
-7.14819e-05
-2.39921e-06
9.44818e-08
-3.68284e-07
-9.48692e-05
2.52582e-06
-1.46187e-06
-0.00286799
1.5325e-05
-1.60227e-06
-0.00186461
-0.00104166
-1.24573e-05
-0.00677116
-0.000159468
-1.52269e-07
6.64759e-06
-1.01659e-06
-7.20892e-06
4.34169e-07
-5.3982e-08
-0.000185711
1.00416e-05
-1.02751e-07
-0.000298925
9.20216e-05
-4.50655e-08
-0.00554161
-0.00198713
-1.21561e-06
-0.0129378
2.75104e-07
-2.99925e-06
7.2518e-07
-9.44349e-08
-0.000213421
1.78516e-05
-1.1243e-08
-0.000691209
0.000549924
-1.52784e-08
-0.000609732
0.000528283
-3.82021e-07
-0.00267246
0.000122267
-1.2839e-05
-0.00597933
1.32555e-05
-5.38402e-08
6.30451e-08
-1.55588e-10
-7.36941e-05
6.85645e-06
-1.57923e-07
6.00326e-06
0.00075727
3.44949e-06
4.11293e-07
0.000404749
-3.35772e-08
1.63832e-08
-6.82914e-08
-2.97305e-08
0.000186857
-6.8029e-07
3.11664e-09
5.41144e-09
1.92263e-09
2.65578e-07
2.28994e-07
5.39503e-10
2.31575e-05
1.39034e-05
-3.04261e-06
9.07084e-06
6.67197e-06
-4.38371e-07
4.13495e-07
-7.51852e-06
-8.93971e-08
-1.11027e-05
-5.60687e-08
1.74075e-05
-0.00151125
5.63087e-07
8.67759e-05
-0.000834681
7.9595e-06
1.04725e-06
-0.000171423
5.30361e-06
-3.0247e-06
-0.000354803
3.93883e-06
2.32072e-05
-0.0013542
-2.94832e-05
-0.000428769
-6.47485e-07
0.000875918
-0.0282966
-9.84052e-05
-0.000202099
-0.00541035
9.96602e-05
-0.000420337
-0.000895576
-0.000486826
-0.000319315
-0.0239262
-0.00165611
0.000217462
-0.0409951
-0.00286308
-0.0180365
-7.95102e-05
0.00541499
-0.016249
-0.000312731
-0.00888189
-0.00650628
-0.0110292
-0.0143406
-0.0292413
-0.00517491
-0.02297
-0.0129291
-0.0239617
0.058196
0.0184007
0.00565181
0.00579137
0.0595903
-0.00111434
0.011695
0.0483571
-2.77005e-05
-0.0151619
0.0695248
0.0148339
-0.0163719
0.075895
0.0545899
0.0111594
0.0131174
0.0241891
0.0467695
0.0007689
-0.000376842
0.0327177
0.00867937
0.00115708
0.0307964
0.000960758
-0.000868358
0.0136924
-0.0248799
3.93507e-05
0.0177778
0.0410043
-0.0173908
0.00192301
-1.78195e-05
0.00340624
6.79924e-06
0.000210374
0.00107225
-0.000275695
0.000217358
0.00104611
-0.000245338
7.20409e-05
0.000269623
-0.00493068
0.000328723
9.5505e-05
0.000658747
0.000187669
1.6287e-05
6.8941e-05
-3.05448e-05
-6.39447e-07
8.9238e-08
-1.86749e-05
-6.30352e-07
1.39424e-06
-1.22995e-05
-5.67851e-06
1.4852e-06
-5.25966e-06
-7.32131e-05
1.1949e-05
-8.90865e-06
0.000161135
-2.93712e-05
-4.64248e-08
9.55034e-07
-3.4311e-06
-2.94631e-08
2.55254e-08
-3.15609e-07
-5.54188e-09
1.06307e-07
-2.08631e-07
-7.07598e-08
2.2866e-08
-7.44033e-08
-7.57477e-07
1.65878e-07
-1.45178e-07
1.62507e-06
-1.52622e-06
-5.28336e-10
7.13862e-10
-3.18723e-08
-1.3755e-09
5.57018e-09
-1.65261e-08
-2.42277e-09
3.31643e-09
-1.96021e-09
-2.12206e-08
1.3391e-09
-5.29157e-09
-1.03713e-06
8.85414e-09
-3.45597e-08
5.38152e-07
-1.62377e-08
-1.02656e-09
1.84321e-09
-5.16068e-09
-1.88856e-09
2.37147e-09
-3.65306e-09
-1.49994e-08
2.01926e-09
-2.41125e-09
-3.86971e-07
5.47373e-09
-1.06109e-08
-1.30855e-05
-2.39911e-09
-9.6669e-08
6.77833e-07
2.84996e-08
-2.79334e-08
9.60514e-09
2.61723e-09
-1.85564e-06
1.63652e-07
1.19549e-07
-1.59597e-09
2.14702e-06
-5.35797e-07
-3.80404e-09
6.90913e-10
-1.8644e-08
-5.83438e-10
4.43395e-09
-6.81877e-09
-1.79392e-08
-1.94457e-09
3.22916e-10
2.79907e-09
2.9628e-09
1.90393e-08
-2.34496e-08
1.52245e-07
4.21417e-07
-4.33998e-09
-1.3409e-06
5.34864e-08
-3.35057e-10
-5.6419e-08
1.01948e-08
-1.48793e-08
-9.80289e-08
-4.62073e-08
-3.20175e-08
1.42466e-07
2.29473e-07
1.8787e-07
1.85724e-08
7.52916e-06
4.94677e-07
6.96896e-08
5.6513e-06
2.90063e-07
8.47727e-08
4.47185e-06
-5.43679e-07
1.17611e-05
-0.000256585
-2.58581e-05
1.23935e-06
-6.8954e-07
-3.71835e-05
-6.08939e-05
-2.90998e-08
-6.85974e-05
3.76134e-05
9.88044e-05
-9.5481e-05
-0.00160292
0.000161236
0.000290677
-0.000491459
-0.00498023
0.000254012
-0.000305789
-0.00643001
7.64577e-05
3.73383e-07
-0.000316074
-0.0159868
0.00324692
-0.0264822
0.00390444
-0.0286957
0.000791353
-0.0347969
-0.000309113
-0.0225114
-0.0132735
-0.0116897
0.058844
-0.0296453
-0.002619
0.0454631
0.00398252
-0.0035399
0.0410249
0.00709136
-0.00118644
0.0149834
0.0340023
0.00142492
0.011414
0.0358433
0.0548453
-0.041778
-0.00285932
0.0153069
0.00940893
0.000786544
5.98879e-05
0.040435
0.00530132
-0.000151361
0.0173226
0.00299533
-4.50804e-05
0.0113913
-0.00118773
-3.47296e-05
0.0137253
0.000880832
-0.0256337
-0.000152688
5.2875e-05
0.00218924
-7.01719e-05
3.35805e-06
0.00102445
-1.2358e-05
1.13253e-05
0.000805754
5.07913e-05
3.76862e-06
0.000152379
5.34176e-05
6.65802e-06
4.82634e-05
3.24162e-05
4.72613e-05
1.59078e-05
3.43204e-06
-1.58911e-06
2.27287e-06
2.28364e-07
-2.46443e-06
1.39068e-06
1.77487e-07
-7.05602e-07
1.91285e-07
7.52007e-08
-4.44377e-07
-2.12059e-06
6.51418e-08
-1.04952e-08
1.59766e-06
-6.32237e-07
1.25385e-07
-3.72409e-08
-8.4237e-08
2.22706e-08
-1.76908e-08
-2.59678e-08
-4.79758e-09
1.23561e-09
-7.46339e-09
-4.22907e-09
-4.33961e-10
-6.9893e-10
-7.63601e-08
-7.70434e-09
-5.87048e-11
-1.43429e-09
-3.29374e-09
6.10064e-10
-9.59627e-09
-9.00423e-10
-1.66822e-10
-1.04044e-08
1.04998e-09
-4.84537e-10
-2.32448e-10
1.01455e-11
3.70409e-09
-2.55984e-09
-3.27331e-11
-1.88991e-08
-3.90582e-08
-1.2823e-09
-2.53322e-08
9.17323e-09
-3.11865e-09
-4.52265e-09
1.91609e-09
-1.46807e-09
2.32433e-08
1.34435e-08
-8.09519e-10
-1.00674e-08
1.61281e-09
-3.95686e-08
7.35949e-09
3.34777e-09
-2.01392e-08
1.73903e-08
-4.34887e-10
1.37342e-10
-1.87397e-10
-1.45929e-08
-1.60041e-09
2.8e-09
-1.39568e-09
-5.32624e-07
4.65828e-08
7.2057e-08
-6.52e-07
2.51077e-08
8.9951e-09
5.48142e-08
1.05954e-08
6.5536e-10
2.01364e-08
-3.13208e-10
-2.63075e-09
-9.74714e-10
6.22917e-09
-2.15064e-08
1.25681e-08
7.44028e-07
-4.01158e-06
1.07041e-06
1.97513e-06
-1.23327e-05
6.27702e-07
1.0141e-06
6.7017e-07
4.82561e-08
5.77685e-08
8.43157e-07
3.0921e-09
-1.06279e-06
-3.67176e-08
1.04714e-07
7.51493e-08
6.57622e-08
-9.30902e-08
2.01702e-06
5.79298e-07
-1.67367e-05
5.87618e-06
-1.93975e-06
3.14344e-05
-2.85529e-05
-1.88445e-05
2.00384e-05
-9.74503e-06
-5.7905e-06
4.03549e-06
-6.24332e-06
-9.04822e-07
4.57353e-06
-3.5307e-06
1.22154e-06
0.000113595
-1.49851e-05
1.7051e-05
0.000158775
-9.66906e-06
0.00167983
-0.00924471
-0.000812502
-1.08101e-05
-0.0086902
-0.000793543
0.00031684
-0.000334101
0.00058847
-0.0323745
0.00771044
-0.0412956
0.0132003
-0.0420269
0.00187559
-0.0394561
-0.0134953
-0.0259606
-0.0331366
-0.00715767
-0.00418765
0.0850174
0.00188092
-0.0044315
0.0860872
0.00327127
-0.00408469
0.0866817
0.00161957
-0.00441819
0.0849195
0.00459241
-0.00488397
0.0828258
-0.00357699
0.0869317
-4.48507e-05
-0.00116729
-0.00222216
1.0981e-05
-0.00127889
-0.00239418
3.74971e-06
-0.00127384
-0.00201327
1.03887e-05
-0.00118182
-0.0024577
5.83156e-05
-0.0010968
-0.0030214
-0.00117114
-0.00163719
-6.13871e-05
-0.000693958
7.68857e-07
-0.00067201
-2.61091e-05
-0.000712992
2.1953e-06
-0.000678461
0.000146229
-0.000577896
-0.000653739
7.7369e-05
-0.0265837
-0.000121993
5.24552e-05
-0.0266007
-7.50879e-06
-0.00010947
-0.0268353
-2.3816e-06
-0.000290164
-0.0264453
-6.43727e-05
-0.000175499
-0.0257314
-0.000120986
-0.0268657
-2.61492e-06
0.000252185
-0.00159316
-0.00152444
5.12539e-05
-0.00132116
-0.000492546
-0.000377556
-0.00133556
-0.000253016
-0.000273437
-0.00153833
-0.00138361
0.000365742
-0.00165429
-0.00157243
-0.00121822
-0.000297958
-3.99276e-06
-0.000310387
-6.33642e-07
-0.000172678
-9.27977e-06
-0.000190791
-6.67066e-06
-0.000292593
1.73014e-05
-0.000404468
-0.00019212
3.18596e-07
7.75465e-06
-0.000198322
8.73597e-08
7.02916e-06
-5.98557e-05
2.06055e-08
6.37712e-06
-5.31902e-05
-1.1268e-07
7.64562e-06
-0.00012942
5.705e-07
8.99301e-06
-0.00018987
6.3433e-06
-5.16989e-05
1.45541e-05
0.000201822
-0.00290649
6.88985e-07
3.92663e-05
-0.000549215
-2.63129e-06
2.76681e-05
-0.000309539
1.21073e-07
0.00012169
-0.00178647
9.15146e-06
0.000271559
-0.00275616
2.95802e-05
-0.000348512
1.34338e-05
-0.000787424
1.71233e-06
-0.000515506
-1.21704e-07
-0.000639873
-7.76568e-07
-0.00103296
-6.38407e-06
-0.00138913
-0.000735434
1.56532e-05
0.000548649
-0.000682372
7.97781e-07
0.000118981
-0.000202866
-6.84647e-06
8.18094e-05
-0.000162734
-2.81149e-06
0.000365565
-0.000546277
2.47446e-05
0.000493901
-0.000669482
8.58654e-05
-0.000153882
-1.23915e-05
0.00265363
-0.00541905
-3.84887e-08
0.00140059
-0.00266208
1.5482e-05
0.000969807
-0.00150267
4.7973e-05
0.00278367
-0.00416007
2.75474e-05
0.00321002
-0.00413666
0.00101046
-0.00177086
-2.34804e-05
-0.00258926
2.45912e-05
-0.00317545
0.000160367
-0.00311002
0.000111674
-0.00311726
-0.000166859
-0.00387489
-0.0032998
8.97628e-05
0.00230919
-0.00299184
7.65894e-06
0.00223744
-0.00375332
-2.9217e-05
0.00202287
-0.00401094
5.08228e-05
0.0026172
-0.00468817
0.000250873
0.00253074
-0.00485375
0.00221803
-0.00378278
-7.10893e-05
0.00201143
-0.00351981
-3.28455e-05
0.00349669
-0.00439271
6.2217e-05
0.00376052
-0.00400374
3.65355e-05
0.00196856
-0.00414479
-1.44106e-05
0.00133625
-0.00381936
0.00314764
-0.00434127
-0.000198076
-7.9842e-12
-6.93043e-05
-8.55018e-12
0.000128778
-8.11006e-12
5.98236e-05
-8.22316e-12
-0.000221706
-7.65788e-12
-9.10557e-12
-0.000224956
0.000454829
-0.00594949
3.1158e-05
0.000805423
-0.00587486
0.000446488
0.000631629
-0.00628835
7.74519e-05
0.000723091
-0.00629583
-0.000351492
0.000455818
-0.00629577
0.000374167
-0.00564743
-6.39151e-05
-2.10097e-12
-8.22615e-10
-1.00951e-05
-2.01747e-12
-7.17664e-10
4.12772e-05
-2.38393e-12
-7.45889e-10
-8.80893e-06
-2.16953e-12
-8.19851e-10
-0.000129735
-2.23097e-12
-8.27636e-10
-2.0491e-12
-8.75948e-10
-6.51292e-15
-1.00787e-11
-4.46977e-15
-1.05697e-11
3.63321e-16
-1.04988e-11
-3.68001e-16
-1.0392e-11
-1.04641e-14
-9.87875e-12
-1.11651e-11
-0.000110043
-4.69212e-10
-0.000271073
-7.87773e-06
-4.14924e-10
-0.000314565
7.75692e-05
-4.07549e-10
-0.00030714
-4.04689e-05
-5.51267e-10
-0.000257789
-0.000251104
-6.27241e-10
-0.000229674
-2.07818e-10
-0.000392064
-2.15119e-13
-4.08256e-11
-1.25256e-09
-6.43662e-14
-4.07632e-11
-1.09352e-09
-1.24445e-12
-4.07103e-11
-1.11306e-09
-1.6968e-12
-4.3049e-11
-1.3293e-09
-2.4627e-12
-4.4306e-11
-1.41151e-09
-3.72724e-11
-1.04989e-09
4.03163e-13
-5.13075e-11
-6.15026e-16
-5.09291e-11
-5.75027e-13
-5.06347e-11
-1.54368e-13
-5.38616e-11
5.99231e-13
-5.49383e-11
-4.78384e-11
6.01409e-07
-6.12896e-08
-9.59348e-06
-1.09507e-07
-5.47792e-08
-8.19416e-06
-1.13693e-06
-5.58818e-08
-8.13723e-06
-6.84027e-07
-6.54263e-08
-9.49157e-06
-4.42998e-08
-6.87559e-08
-9.74641e-06
-5.28036e-08
-8.68915e-06
3.87707e-11
-1.25179e-09
-6.13739e-08
2.34187e-12
-1.25135e-09
-5.46305e-08
-6.16489e-11
-1.25635e-09
-5.5719e-08
-1.8774e-11
-1.34649e-09
-6.54973e-08
3.68492e-11
-1.374e-09
-6.88927e-08
-1.21568e-09
-5.26452e-08
7.39837e-12
-1.31046e-09
-3.6226e-13
-1.29453e-09
-6.79952e-12
-1.30047e-09
-6.37769e-13
-1.40626e-09
6.99572e-12
-1.43649e-09
-1.25661e-09
-1.12596e-07
7.02229e-08
-2.25239e-06
-1.08085e-07
6.36699e-08
-2.10933e-06
-1.90421e-08
6.4977e-08
-2.22683e-06
-2.87397e-08
7.51873e-08
-2.33669e-06
-4.16746e-08
7.88101e-08
-2.42299e-06
6.25763e-08
-2.25929e-06
-7.57688e-10
-2.27132e-10
6.86345e-09
-6.70653e-10
-8.27855e-11
5.99484e-09
-4.7983e-10
-1.04674e-10
6.12239e-09
-6.75856e-10
-3.32906e-10
7.22219e-09
-8.44122e-10
-4.07108e-10
7.7355e-09
-1.19336e-10
6.20798e-09
3.69237e-10
-3.52368e-08
-3.10945e-10
-3.58722e-08
-9.85461e-10
-3.58693e-08
-3.56594e-10
-3.56397e-08
5.86713e-10
-3.49437e-08
-3.65122e-08
-2.28106e-08
-1.2499e-07
-5.07276e-06
-4.57659e-08
-2.55428e-07
-4.6431e-06
-1.60698e-08
-1.39678e-07
-5.04914e-06
-4.85178e-08
-1.15979e-07
-5.13138e-06
-7.03712e-08
-1.15223e-07
-5.12749e-06
-1.36561e-07
-5.14665e-06
-3.09597e-10
-1.24903e-07
2.676e-08
6.07568e-11
-1.25188e-07
3.01785e-08
3.24753e-10
-1.25773e-07
2.92009e-08
7.23287e-12
-1.2586e-07
2.75971e-08
-7.72889e-10
-1.25192e-07
2.69834e-08
-1.2052e-07
3.13482e-08
9.54495e-11
5.32342e-08
-7.27925e-10
5.33218e-08
-8.09569e-10
5.33957e-08
-4.1897e-10
5.32898e-08
-9.89239e-10
5.29594e-08
5.37674e-08
-1.27105e-06
-5.4202e-08
-0.0031244
-7.38654e-07
-5.76047e-08
-0.00290854
7.82804e-07
-5.6548e-08
-0.00296899
-9.85943e-07
-5.49353e-08
-0.00316655
-4.2097e-06
-5.42394e-08
-0.00341095
-5.8732e-08
-0.00289505
-8.50824e-12
-2.79192e-08
4.81934e-10
-3.71691e-13
-2.79194e-08
5.09652e-10
5.45724e-12
-2.78493e-08
5.01985e-10
7.89095e-13
-2.78274e-08
4.9228e-10
-1.00729e-11
-2.77544e-08
4.93389e-10
-2.79104e-08
5.22757e-10
1.10681e-11
2.87744e-10
-3.31467e-11
2.86009e-10
-4.35646e-11
2.88209e-10
-3.02373e-11
2.89529e-10
-1.5376e-11
2.90175e-10
2.90514e-10
0.000172751
-7.71485e-10
-0.0270465
-4.63635e-05
-7.92617e-10
-0.0272078
-0.000173262
-7.88468e-10
-0.0272277
-7.51665e-05
-7.82542e-10
-0.027226
0.000255775
-7.86728e-10
-0.0271513
-8.10286e-10
-0.0270344
-2.13865e-13
-2.89388e-10
-6.13226e-16
6.61509e-14
-2.83265e-10
-6.77796e-16
2.10696e-13
-2.86646e-10
-6.71948e-16
1.12626e-13
-2.90182e-10
-6.32938e-16
-2.14062e-13
-2.93074e-10
-5.9244e-16
-2.87761e-10
-7.16946e-16
-1.93723e-12
2.93184e-13
4.89048e-13
3.1781e-13
1.73875e-12
3.13719e-13
7.73662e-13
3.1157e-13
-2.42372e-12
2.98875e-13
3.29907e-13
-0.00036921
-2.13208e-12
-0.018386
0.0276419
-8.12857e-05
-1.05197e-12
-0.0179654
0.0264734
0.000583538
-3.02689e-13
-0.0177208
0.0253609
0.000844189
-1.3672e-12
-0.0176
0.0263529
-5.12817e-05
-4.16767e-12
-0.0179927
0.0278445
-1.61471e-12
-0.0182605
0.0268273
-9.66796e-16
-2.13799e-12
9.56297e-17
6.78108e-15
-1.57788e-16
-1.0551e-12
7.12362e-17
2.24521e-15
-2.38151e-16
-3.03268e-13
4.98136e-17
6.09315e-16
-1.16224e-15
-1.36868e-12
8.60325e-18
2.39595e-15
-5.32312e-16
-4.17032e-12
2.00003e-16
1.81986e-15
-1.6161e-12
2.43122e-17
8.3012e-16
1.74278e-14
3.75604e-27
-4.02102e-14
1.67541e-14
3.30031e-27
-6.41045e-15
1.61628e-14
4.78798e-27
-3.15806e-16
9.52796e-14
3.3329e-27
-2.31605e-16
2.99441e-14
4.79366e-27
-1.10149e-12
2.46787e-27
-4.24777e-16
-7.01225e-05
1.38425e-16
-0.00937892
-0.000554789
1.06902e-16
-0.00913055
-0.00100461
8.11642e-17
-0.0088741
-0.000720933
1.63175e-17
-0.00881106
0.000458856
5.02528e-16
-0.00873032
4.74275e-17
-0.0089372
3.91424e-20
6.09649e-27
2.32241e-16
1.37388e-18
5.0492e-27
1.72012e-16
8.19223e-19
7.41367e-27
2.52852e-16
3.4439e-17
5.48775e-27
3.94569e-17
1.40309e-18
8.84638e-27
1.60742e-15
3.81806e-27
1.03554e-16
-1.13924e-28
3.21092e-27
-1.15491e-28
3.08578e-27
-1.19313e-28
3.37407e-27
5.61764e-30
3.15568e-27
3.491e-29
5.82438e-27
2.08057e-27
-0.000270909
2.15899e-16
-0.000127652
-0.000267688
1.85508e-16
-0.000146474
-3.84895e-05
2.95598e-16
-0.000113441
2.56549e-05
4.41709e-17
0.000102149
-2.62193e-05
1.86215e-15
0.000296362
1.19068e-16
-9.48671e-06
2.15057e-17
4.76197e-27
2.5787e-17
3.79676e-17
4.56368e-27
2.01746e-17
3.8108e-18
4.89757e-27
3.38646e-17
8.49089e-17
4.31358e-27
2.30201e-18
7.88043e-19
7.82654e-27
1.44892e-16
2.84261e-27
7.5958e-18
-7.6677e-29
4.95442e-29
-9.46216e-29
9.34767e-29
-1.09457e-28
1.34689e-28
-7.61554e-29
1.51807e-28
-4.21762e-29
1.61499e-28
1.05841e-28
-0.000121495
1.65443e-16
0.00906127
-0.000201553
1.36558e-16
0.00908921
-0.000246308
2.36958e-16
0.00912917
-0.000135874
1.87351e-17
0.00918916
1.74929e-05
1.47106e-15
0.00923273
7.97902e-17
0.00914345
1.29506e-18
4.89149e-27
-1.19355e-16
4.76705e-18
5.73024e-27
-9.86581e-17
6.79761e-19
6.27301e-27
-1.7169e-16
4.87967e-17
5.95303e-27
-1.35744e-17
4.42004e-19
6.51046e-27
-1.08946e-15
4.48582e-27
-5.97414e-17
-4.79557e-29
-3.06629e-27
-7.5741e-29
-3.55232e-27
-6.32895e-29
-3.87512e-27
-1.63447e-29
-3.68848e-27
3.04479e-30
-4.06548e-27
-2.8045e-27
-0.000113077
2.19875e-16
0.018211
-0.000208598
1.80279e-16
0.0183175
-0.000244472
3.20653e-16
0.0183366
-0.000123237
2.45094e-17
0.0182273
6.84291e-06
1.98734e-15
0.0181472
1.03081e-16
0.0182563
5.14497e-19
4.84329e-27
-1.06164e-16
5.88178e-19
5.71049e-27
-8.60474e-17
3.01382e-20
6.24086e-27
-1.5358e-16
2.98844e-18
6.10139e-27
-1.15274e-17
-9.5459e-19
6.71873e-27
-9.37256e-16
4.71427e-27
-4.92842e-17
-2.31375e-29
-3.20697e-27
-4.82413e-29
-3.724e-27
-6.22991e-29
-4.06757e-27
-2.92945e-29
-3.94647e-27
8.57761e-30
-4.3579e-27
-3.05434e-27
4.49818e-05
-2.91885e-13
-8.8847e-06
-3.1657e-13
1.26424e-05
-3.12519e-13
-1.63057e-05
-3.11428e-13
-5.63417e-05
-2.98755e-13
-3.28662e-13
1.16301e-17
-2.92616e-13
-6.4724e-18
-3.17315e-13
-2.04239e-17
-3.13331e-13
-5.46699e-18
-3.12087e-13
3.0549e-17
-3.00321e-13
-3.29398e-13
5.68634e-16
1.06442e-15
1.45396e-15
9.36876e-16
-5.09629e-16
-0.000307276
-0.0509604
0.0205379
-0.0139828
-0.00256582
0.0191063
-0.01948
-0.00597829
0.0184223
-0.0072851
0.0284253
0.0100501
0.00110816
0.0195781
0.00593155
-0.0580097
0.0177491
-0.0730793
0.0662142
-0.00220512
0.0247145
-4.05208e-75
0.0115463
-0.00300729
0.0620943
-0.0149485
-0.0243084
0.0655351
-0.0105562
0.0234704
-0.000132159
0.0014697
0.0430314
-7.85966e-06
-3.8873e-76
-9.36455e-07
1.93617e-76
6.07726e-78
-0.00236935
-0.000655288
-0.000108103
-0.004709
0.000123099
-0.000363361
-7.29689e-07
-0.00267457
0.00219946
-0.00228442
9.0258e-05
0.0263177
-0.000566398
0.00216053
0.0132053
-0.00068238
0.00136588
0.0118762
-8.87387e-05
-0.00130643
0.00862184
-3.48489e-06
-3.95063e-07
-9.72676e-05
3.10954e-05
-3.46093e-09
-3.67908e-05
0.00218401
0.0157925
-0.00028484
5.15757e-06
0.000501992
-7.44161e-05
0.000330651
0.00230578
-4.59595e-05
-8.45818e-08
0.00335198
2.47631e-05
-7.34592e-09
-8.35496e-06
5.38325e-08
-9.93749e-07
0.00016319
-4.12508e-06
-2.85857e-06
-2.50319e-07
-0.000296751
-5.81076e-07
-1.11313e-08
-6.46036e-05
-7.48166e-07
-0.000148391
4.06471e-05
3.31518e-06
6.67011e-06
0.000292905
1.85143e-06
5.366e-05