/*--------------------------------*- C++ -*----------------------------------*\
| =========                 |                                                 |
| \\      /  F ield         | OpenFOAM: The Open Source CFD Toolbox           |
|  \\    /   O peration     | Version:  v1612+                                |
|   \\  /    A nd           | Web:      www.OpenFOAM.com                      |
|    \\/     M anipulation  |                                                 |
\*---------------------------------------------------------------------------*/
FoamFile
{
    version     2.0;
    format      ascii;
    class       volScalarField;
    location    "7.25";
    object      p;
}
// * * * * * * * * * * * * * * * * * * * * * * * * * * * * * * * * * * * * * //

dimensions      [1 -1 -2 0 0 0 0];

internalField   nonuniform List<scalar> 
1116
(
20213.2
20213.1
20213.1
20213.3
20213.3
20213.3
19189.2
19189.2
19189.1
19189.2
19189.3
19188.9
16571.6
16571.9
16571.7
16571.7
16571.7
16571.5
13667.3
13667.8
13667.5
13667.3
13667.1
13667.5
10565.4
10565.6
10565
10565.3
10564.8
10566.5
7900.48
7901.4
7900.23
7903.17
7899.35
7908.05
6030.13
6035.62
6036.24
6031.46
6031.72
6039.22
5282.29
5282.5
5284.68
5280.79
5285.46
5282.56
5252.97
5247.09
5249.26
5251.2
5255.67
5242.81
5304.17
5298.66
5297.63
5306.99
5305.96
5297.42
5496.08
5509.32
5504.05
5498
5483.26
5515.92
6055.12
6054.52
6056.08
6049.25
6046.01
6055.21
13868.1
13867.3
13867.4
13868.1
13868.3
13868.2
11771.6
11771.4
11770.8
11771.6
11772.9
11769.5
8075.18
8075.81
8075.13
8075.47
8076.44
8073.99
4722.09
4721.31
4721.1
4721.55
4720.96
4721.6
2356.09
2355.1
2356.24
2352.07
2351.39
2359.41
1058.19
1032.93
1037.43
1057.65
1066.94
1059.62
605.662
601.019
602.72
608.042
608.32
602.918
553.639
552.211
553.074
554.662
555.691
551.142
774.796
775.041
773.636
776.293
774.39
773.292
960.951
963.715
960.13
964.155
959.23
961.958
1230.6
1234.6
1229.87
1230.32
1223.64
1227.82
1599.26
1598.57
1591.35
1587.15
1566.93
1586.67
8237.89
8233.43
8234.82
8237.19
8237.9
8237.34
3981.15
3980.88
3979.54
3981.53
3982.74
3976.59
1385.51
1388.19
1388.17
1386.39
1382.81
1388.65
423.339
424.231
423.981
423.119
417.913
424.592
29.9698
47.6577
48.4803
29.0513
17.639
52.8275
44.5842
21.1052
24.6765
42.6922
54.0398
12.1927
149.551
149.229
149.59
150.274
148.223
145.625
165.53
175.771
175.268
170.4
164.455
173.699
94.9726
96.4397
95.8727
96.4501
95.8107
98.3342
123.015
122.934
122.066
124.579
123.708
123.698
243.493
246.77
244.503
243.831
241.012
244.647
230.526
231.74
231.858
231.708
232.66
232.403
4180.2
4186.15
4181.17
4184.13
4185.62
4177.65
55.6326
54.6691
55.0668
55.1291
54.8729
55.407
-33.9741
-34.8008
-34.5744
-34.5953
-34.2815
-34.1339
-36.8098
-38.6505
-39.0048
-37.7739
-38.0774
-40.1785
-31.5934
-31.1892
-31.4609
-32.354
-32.1748
-33.6541
-29
-27.6858
-27.5144
-28.9133
-27.8947
-28.3861
-16.5562
-20.3644
-20.9777
-14.836
-14.338
-15.2522
-10.8551
-10.3651
-10.3297
-10.167
-10.8198
-9.58534
-19.3053
-19.2523
-19.2254
-19.2356
-19.3357
-19.0068
-16.0796
-16.0375
-15.9723
-15.9547
-15.9091
-15.7896
-3.21451
-3.33423
-3.16168
-3.18225
-3.04667
-3.35079
-111.797
-114.93
-113.768
-112.393
-110.018
-113.896
2089.85
2082.86
2129.64
2122.74
2124.96
2073.26
1878.97
1862.08
1921.52
1828.46
1795.3
1788.49
1273.78
1255.1
1275.56
1276.98
1296.58
1372.19
683.911
728.589
745.913
742.451
735.294
848.934
416.858
412.509
431.719
434.972
428.424
465.82
357.038
322.255
305.679
248.496
274.755
266.326
346.007
294.888
236.903
195.168
241.821
265.825
326.151
295.781
235.489
217.567
235.212
322.587
321.857
341.383
334.854
285.99
275.014
331.506
327.852
336.024
373.799
340.715
336.164
348.254
411.6
409.448
432.729
490.783
473.604
428.325
486.346
477.939
521.108
584.208
589.275
550.019
1219.28
1231.03
1227.55
1272.22
1193.33
1147.84
676.834
558.925
621.921
550.03
518.793
594.941
130.259
56.4955
58.6226
63.1076
84.2103
131.505
-9.09806
-34.0054
-28.5517
-15.7954
4.30887
8.61627
-21.5388
-20.9864
-18.5805
-14.0519
-2.48469
7.68191
-10.2616
-9.49738
-6.77782
-4.08685
-4.64439
14.6321
-22.7397
-28.2485
-29.4844
-33.96
-44.0158
-37.1696
-34.2816
-42.1002
-51.7837
-55.6279
-54.6708
-49.2925
-8.8205
-12.9531
-23.2635
-22.1315
-17.14
-15.3241
17.9145
17.4388
13.4387
12.8872
11.7483
10.3618
44.4455
37.6788
35.6165
47.674
53.3801
39.0661
49.8644
28.0252
47.4915
65.9379
94.6713
50.1819
659.7
714.077
600.949
671.358
566.569
618.855
111.181
87.2147
87.5902
69.236
-9.69571
99.8951
-20.6178
-22.2341
-21.628
-22.2351
-19.6727
-11.4592
-17.056
-17.2688
-14.5082
-13.4015
-9.54872
-9.41897
-11.7517
-9.16443
-7.55472
-6.81987
-6.07487
-6.33685
-14.4672
-13.2983
-10.642
-8.4125
-8.04293
-7.04193
-25.379
-25.4473
-22.3074
-18.8796
-17.5551
-15.1532
-29.5665
-29.7422
-28.0047
-28.213
-27.8261
-25.8736
-18.2989
-17.4608
-16.0103
-16.0367
-15.1432
-12.4896
-21.868
-17.5749
-12.0881
-11.8963
-11.8987
-13.8178
-15.1815
-13.5286
-12.05
-7.37736
-2.56592
-8.74815
-41.8116
-42.5879
-53.2019
-36.7293
-39.9894
-37.6711
383.839
419.019
274.19
323.275
291.56
353.296
4.90548
-1.87492
-9.80969
-11.9523
-28.8952
-14.3899
-22.5849
-19.5963
-18.776
-20.139
-20.9531
-20.8579
-25.6091
-25.911
-24.631
-23.6314
-22.1492
-20.9628
-27.2185
-27.3143
-27.1683
-26.7633
-26.4943
-26.1767
-32.2998
-33.0601
-32.8652
-32.5839
-32.9698
-33.2102
-41.1044
-43.1636
-42.2079
-40.8222
-40.2264
-41.8707
-42.6409
-43.0034
-43.207
-44.1426
-41.4803
-40.4526
-28.1165
-28.0613
-29.0358
-31.0576
-30.5625
-28.8282
-32.4644
-32.4997
-33.5134
-28.7306
-29.0271
-31.8312
-9.87774
-12.2419
-18.5766
-23.2018
-23.8233
-21.7815
-33.9513
-28.8998
-39.22
-122.554
-143.048
-79.5277
2164.17
2136.04
2146.69
2155.73
2151.18
2158.5
-98.8524
-99.2626
-99.146
-99.0223
-98.7975
-98.2002
-48.8803
-48.1386
-48.5075
-48.1559
-47.3457
-49.2357
-91.1695
-91.2136
-89.6955
-92.2197
-92.6549
-88.4485
-89.9281
-91.5563
-92.3441
-90.1228
-89.2517
-93.0517
-62.6277
-61.8499
-62.2092
-61.9853
-61.6533
-63.2807
-75.8079
-75.5035
-75.3236
-75.8523
-75.3884
-75.2355
-65.2496
-66.5168
-66.6669
-66.5972
-66.6344
-66.4134
-70.6655
-71.791
-71.9432
-71.4634
-71.9921
-71.9113
-80.9638
-81.3299
-81.3838
-81.1633
-80.8673
-81.5919
-91.1833
-90.6621
-90.0895
-91.3204
-91.6012
-89.9688
-104.714
-104.715
-104.705
-106.441
-107.882
-104.436
-66.2501
-68.3468
-68.0703
-66.0422
-66.2745
-70.4554
-86.1807
-86.0787
-85.1733
-84.8505
-84.867
-84.7681
-127.718
-126.941
-125.841
-125.254
-125.361
-122.786
-32.5447
-32.0821
-32.4763
-31.8207
-31.869
-33.0597
-52.9316
-52.7705
-52.8034
-52.4973
-52.8961
-52.1525
-90.1241
-89.8336
-89.6022
-89.6454
-89.7909
-88.3576
-26.0786
-25.9909
-26.0103
-25.63
-25.4089
-24.8943
-47.7886
-47.7411
-47.7665
-47.346
-47.2872
-47.1597
-69.4888
-69.6134
-69.5793
-69.3103
-69.18
-69.2632
-26.5926
-26.7162
-26.6622
-26.2814
-26.0999
-26.4008
-44.7454
-44.7759
-44.7666
-44.6445
-44.5498
-44.4479
-62.0989
-62.1079
-62.0803
-62.0532
-62.0333
-61.9983
-31.5208
-31.3725
-31.3214
-31.477
-31.5575
-31.2003
-46.2177
-46.2499
-46.2234
-46.173
-46.1603
-46.0759
-60.7192
-60.6995
-60.6976
-60.7014
-60.698
-60.7236
-39.8766
-39.8419
-39.827
-39.8424
-39.8286
-39.6838
-52.5485
-52.5372
-52.5694
-52.574
-52.6086
-52.5673
-61.4195
-61.407
-61.405
-61.4101
-61.414
-61.3856
-48.1182
-48.0472
-48.0487
-48.1556
-48.1904
-48.0231
-56.0721
-56.0525
-56.0883
-56.0988
-56.1129
-56.1204
-64.3054
-64.3078
-64.3026
-64.3014
-64.2982
-64.2896
-24.1444
-25.4082
-24.7164
-23.7787
-22.4824
-24.8131
-50.2798
-50.285
-50.3258
-50.3444
-50.3972
-50.3697
-69.256
-69.2204
-69.2534
-69.2774
-69.3281
-69.2468
181.919
182.214
180.7
178.366
177.135
180.15
-48.53
-48.4239
-48.306
-48.1521
-47.9929
-47.9095
-70.4193
-70.354
-70.4773
-70.7519
-71.0809
-70.974
197.549
198.601
200.675
201.336
202.78
201.366
-51.487
-51.4733
-51.4048
-51.3305
-51.2337
-51.2754
-69.4837
-69.5277
-69.6024
-69.6818
-69.7265
-69.7132
213.813
213.966
214.153
214.394
214.361
214.369
-49.9523
-49.9333
-49.9135
-49.8998
-49.8955
-49.8553
-68.9218
-68.9354
-68.964
-69.0024
-69.0437
-69.0502
213.114
212.933
212.86
213.157
213.558
213.504
-50.1426
-50.1391
-50.1274
-50.1118
-50.0976
-50.0942
-69.0329
-69.0394
-69.0527
-69.0703
-69.0799
-69.085
207.685
207.442
207.359
207.609
207.895
207.926
-49.3683
-49.3547
-49.3422
-49.3335
-49.3297
-49.3312
-69.7126
-69.7145
-69.7224
-69.7394
-69.7532
-69.7505
172.222
171.482
171.875
172.254
172.757
171.656
-47.2374
-47.2519
-47.228
-47.192
-47.1504
-47.2139
-71.366
-71.3784
-71.3778
-71.3765
-71.3839
-71.3896
167.436
146.417
141.907
170.844
139.996
174.565
-100.558
156.952
-178.381
-109.594
-3.60483
-78.1297
-113.1
-90.0467
-112.619
-126.35
-97.1976
-128.522
-38.1733
-42.2352
-44.5755
-44.3141
-44.9429
-36.2712
-69.4791
-72.7552
-76.8511
-68.7471
-71.437
-70.042
-81.1708
-86.7129
-74.6125
-79.46
-82.8721
-80.4707
-30.2908
-26.8264
-26.9245
-29.519
-32.4858
-35.6464
-47.7044
-42.767
-43.2332
-44.6556
-47.4806
-51.6567
-64.6226
-61.2317
-64.4234
-63.5658
-63.948
-64.0067
-25.4926
-25.5147
-26.3316
-28.462
-31.185
-31.7093
-49.2679
-49.3398
-49.6288
-50.3761
-50.5258
-50.5835
-64.2255
-64.7708
-64.0224
-65.0545
-64.6359
-64.6546
-31.8669
-31.7862
-31.7581
-31.9162
-32.3515
-32.7189
-50.5285
-50.2622
-50.3809
-50.7626
-51.194
-51.3878
-61.4674
-61.4452
-61.4391
-61.3863
-61.3588
-61.3338
-35.4147
-35.245
-35.42
-35.5241
-35.6729
-35.5004
-52.3601
-51.7923
-52.0371
-52.8577
-53.2153
-53.4041
-61.1351
-61.246
-61.1489
-60.985
-61.0243
-60.9714
-38.5987
-38.6812
-38.5356
-38.4855
-38.4231
-38.4228
-53.2787
-52.6292
-52.6767
-53.1349
-53.5724
-53.7024
-61.6664
-61.7487
-61.6854
-61.4274
-61.3133
-61.3674
-41.9019
-42.0479
-41.313
-40.0734
-39.5245
-39.4632
-55.5709
-55.8812
-56.1933
-55.7695
-55.4424
-55.4036
-62.3425
-62.378
-62.48
-61.8715
-61.7014
-61.6796
-37.0059
-37.985
-38.8639
-39.4952
-39.3011
-37.6814
-56.9786
-57.7165
-57.7629
-56.9297
-55.3244
-55.6393
-60.759
-60.6354
-60.6883
-60.7222
-60.8014
-60.787
-40.0416
-41.5275
-42.6191
-44.9201
-43.7782
-44.4093
-60.7977
-60.9679
-60.6578
-60.2563
-59.3914
-59.9682
-60.4491
-60.4381
-60.6057
-60.822
-60.888
-60.9774
-41.9148
-42.9816
-43.8476
-50.9673
-49.4223
-49.0181
-61.6473
-61.5945
-60.6601
-61.369
-60.8812
-61.2373
-60.427
-60.5459
-60.9868
-61.6664
-61.9123
-61.874
-5.13385
-8.37533
-14.488
-21.2789
-25.912
-13.5415
-58.1582
-57.7696
-57.2198
-57.3662
-57.4155
-57.3553
-71.5485
-71.312
-70.9138
-71.0877
-71.1315
-71.4893
)
;

boundaryField
{
    seabed_topleft_surface
    {
        type            calculated;
        value           nonuniform List<scalar> 
72
(
23602.5
23602.4
23602.4
23602.6
23602.6
23602.6
23788.1
23788.6
23788.2
23788.3
23788.5
23787.9
21367.1
21367.5
21367.2
21367.2
21367.2
21367.1
18462.9
18463.4
18463.1
18462.9
18462.7
18463.1
15361
15361.1
15360.5
15360.8
15360.3
15362
12387.2
12387.1
12385.9
12390.2
12386.2
12393.8
10228.4
10238.8
10239.2
10230.2
10226.3
10244.8
9310.89
9314.63
9317.4
9308.66
9310.47
9316.63
9200.67
9193.99
9197.58
9197.76
9202.8
9189.5
9220.7
9209.53
9210.82
9222.47
9225.37
9206.47
9407.59
9416.17
9412.17
9408.48
9397.72
9425.78
9963.82
9958.53
9961.27
9956.93
9957.67
9961.86
)
;
    }
    seabed_topright_surface
    {
        type            calculated;
        value           nonuniform List<scalar> 
72
(
2547.56
2540.61
2587.42
2580.53
2582.75
2530.98
2336.65
2319.79
2379.28
2286.25
2253.1
2246.29
1710.3
1499.09
1592.66
1611.89
1754.32
1829.99
851.473
1074.53
1101.54
1043.51
1077.46
1306.67
747.105
763.86
787.315
784.717
734.694
846.956
695.213
621.097
574.345
402.054
574.805
324.479
684.584
617.702
423.635
245.311
477.937
413.227
665.01
633.836
433.547
450.014
462.998
663.272
661.026
681.563
699.54
616.872
559.733
671.783
654.326
640.005
749.707
690.114
652.58
685.322
670.127
655.767
808.736
866.403
837.941
750.477
696.836
743.346
884.495
957.285
959.736
839.76
)
;
    }
    breakwater_top_surface
    {
        type            calculated;
        value           nonuniform List<scalar> 
36
(
428.598
426.368
424.079
421.309
421.715
425.652
450.049
452.509
457.606
459.179
462.066
458.477
481.059
481.342
481.777
482.23
482.201
482.151
479.451
478.999
478.773
479.495
480.297
480.262
472.664
472.148
471.901
472.508
473.151
473.274
414.734
413.602
414.131
414.609
415.271
413.816
)
;
    }
    breakwater_left_surface
    {
        type            calculated;
        value           nonuniform List<scalar> 
24
(
6068.51
6067.89
6069.45
6062.64
6059.4
6068.59
1603
1602.3
1595.1
1590.88
1570.66
1590.43
231.02
232.272
232.38
232.197
233.117
232.926
-111.372
-114.512
-113.348
-111.969
-109.591
-113.479
)
;
    }
    breakwater_right_surface
    {
        type            calculated;
        value           nonuniform List<scalar> 
24
(
487.067
478.848
522.352
585.486
590.543
551.011
50.3432
28.1091
47.5186
66.4428
95.4374
50.5575
-41.7954
-42.5322
-53.0603
-36.6864
-39.9701
-37.6548
-33.7785
-28.605
-38.9288
-122.273
-142.865
-79.3143
)
;
    }
    water_front_surface
    {
        type            calculated;
        value           nonuniform List<scalar> 
186
(
20213.2
19189.2
16571.6
13667.3
10565.4
7900.48
6030.13
5282.29
5252.97
5304.17
5496.08
6055.12
13868.1
11771.6
8075.18
4722.09
2356.09
1058.19
605.662
553.639
774.796
960.951
1230.6
1599.26
8237.89
3981.15
1385.51
423.339
29.9698
44.5842
149.551
165.53
94.9726
123.015
243.493
230.526
4180.2
55.6326
-33.9741
-36.8098
-31.5934
-29
-16.5562
-10.8551
-19.3053
-16.0796
-3.21451
-111.797
2089.85
1878.97
1273.78
683.911
416.858
357.038
346.007
326.151
321.857
327.852
411.6
486.346
1219.28
676.834
130.259
-9.09806
-21.5388
-10.2616
-22.7397
-34.2816
-8.8205
17.9145
44.4455
49.8644
659.7
111.181
-20.6178
-17.056
-11.7517
-14.4672
-25.379
-29.5665
-18.2989
-21.868
-15.1815
-41.8116
383.839
4.90548
-22.5849
-25.6091
-27.2185
-32.2998
-41.1044
-42.6409
-28.1165
-32.4644
-9.87774
-33.9513
2164.17
-98.8524
-48.8803
-91.1695
-89.9281
-62.6277
-75.8079
-65.2496
-70.6655
-80.9638
-91.1833
-104.714
-66.2501
-86.1807
-127.718
-32.5447
-52.9316
-90.1241
-26.0786
-47.7886
-69.4888
-26.5926
-44.7454
-62.0989
-31.5208
-46.2177
-60.7192
-39.8766
-52.5485
-61.4195
-48.1182
-56.0721
-64.3054
-24.1444
-50.2798
-69.256
181.919
-48.53
-70.4193
197.549
-51.487
-69.4837
213.813
-49.9523
-68.9218
213.114
-50.1426
-69.0329
207.685
-49.3683
-69.7126
172.222
-47.2374
-71.366
167.436
-100.558
-113.1
-38.1733
-69.4791
-81.1708
-30.2908
-47.7044
-64.6226
-25.4926
-49.2679
-64.2255
-31.8669
-50.5285
-61.4674
-35.4147
-52.3601
-61.1351
-38.5987
-53.2787
-61.6664
-41.9019
-55.5709
-62.3425
-37.0059
-56.9786
-60.759
-40.0416
-60.7977
-60.4491
-41.9148
-61.6473
-60.427
-5.13385
-58.1582
-71.5485
)
;
    }
    water_back_surface
    {
        type            calculated;
        value           nonuniform List<scalar> 
186
(
20213.3
19188.9
16571.5
13667.5
10566.5
7908.05
6039.22
5282.56
5242.81
5297.42
5515.92
6055.21
13868.2
11769.5
8073.99
4721.6
2359.41
1059.62
602.918
551.142
773.292
961.958
1227.82
1586.67
8237.34
3976.59
1388.65
424.592
52.8275
12.1927
145.625
173.699
98.3342
123.698
244.647
232.403
4177.65
55.407
-34.1339
-40.1785
-33.6541
-28.3861
-15.2522
-9.58534
-19.0068
-15.7896
-3.35079
-113.896
2073.26
1788.49
1372.19
848.934
465.82
266.326
265.825
322.587
331.506
348.254
428.325
550.019
1147.84
594.941
131.505
8.61627
7.68191
14.6321
-37.1696
-49.2925
-15.3241
10.3618
39.0661
50.1819
618.855
99.8951
-11.4592
-9.41897
-6.33685
-7.04193
-15.1532
-25.8736
-12.4896
-13.8178
-8.74815
-37.6711
353.296
-14.3899
-20.8579
-20.9628
-26.1767
-33.2102
-41.8707
-40.4526
-28.8282
-31.8312
-21.7815
-79.5277
2158.5
-98.2002
-49.2357
-88.4485
-93.0517
-63.2807
-75.2355
-66.4134
-71.9113
-81.5919
-89.9688
-104.436
-70.4554
-84.7681
-122.786
-33.0597
-52.1525
-88.3576
-24.8943
-47.1597
-69.2632
-26.4008
-44.4479
-61.9983
-31.2003
-46.0759
-60.7236
-39.6838
-52.5673
-61.3856
-48.0231
-56.1204
-64.2896
-24.8131
-50.3697
-69.2468
180.15
-47.9095
-70.974
201.366
-51.2754
-69.7132
214.369
-49.8553
-69.0502
213.504
-50.0942
-69.085
207.926
-49.3312
-69.7505
171.656
-47.2139
-71.3896
174.565
-78.1297
-128.522
-36.2712
-70.042
-80.4707
-35.6464
-51.6567
-64.0067
-31.7093
-50.5835
-64.6546
-32.7189
-51.3878
-61.3338
-35.5004
-53.4041
-60.9714
-38.4228
-53.7024
-61.3674
-39.4632
-55.4036
-61.6796
-37.6814
-55.6393
-60.787
-44.4093
-59.9682
-60.9774
-49.0181
-61.2373
-61.874
-13.5415
-57.3553
-71.4893
)
;
    }
    water_left_surface
    {
        type            calculated;
        value           nonuniform List<scalar> 
42
(
20224.8
20224.7
20224.8
20224.9
20225
20224.9
13880.7
13879.9
13880
13880.8
13880.9
13880.8
8250.27
8245.81
8247.21
8249.58
8250.29
8249.73
4192.35
4198.3
4193.32
4196.28
4197.77
4189.8
2164.17
2136.04
2146.69
2155.73
2151.18
2158.5
-98.8524
-99.2626
-99.146
-99.0223
-98.7975
-98.2002
-48.8803
-48.1386
-48.5075
-48.1559
-47.3457
-49.2357
)
;
    }
    water_right_surface
    {
        type            calculated;
        value           nonuniform List<scalar> 
42
(
2091.41
2084.42
2131.21
2124.31
2126.52
2074.83
1220.82
1232.31
1229.08
1273.75
1194.86
1149.38
661.205
715.553
602.371
672.739
567.942
620.36
385.314
420.495
275.665
323.821
292.433
354.772
167.436
146.417
141.907
170.844
139.996
174.565
-100.558
156.952
-178.381
-109.594
-3.60483
-78.1297
-113.1
-90.0467
-112.619
-126.35
-97.1976
-128.522
)
;
    }
    water_top_surface
    {
        type            calculated;
        value           nonuniform List<scalar> 
180
(
-99.2131
-97.1157
-99.0212
-97.7938
-94.9899
-98.1927
-87.2473
-81.2773
-85.609
-83.1832
-78.6593
-91.2106
-72.3668
-70.2806
-70.6611
-72.5047
-74.2321
-70.95
-114.45
-114.207
-113.344
-121.524
-127.808
-113.494
-141.021
-138.336
-134.591
-133.309
-132.129
-131.78
-85.5835
-83.9496
-83.8351
-85.7344
-87.492
-81.6131
-75.8391
-76.2667
-76.2525
-75.8016
-75.5884
-76.4101
-70.1296
-70.1726
-70.1613
-70.1529
-70.1395
-70.1456
-68.818
-68.8183
-68.8164
-68.8131
-68.812
-68.8093
-69.3649
-69.3608
-69.3641
-69.3638
-69.3765
-69.3512
-71.2698
-71.2641
-71.2678
-71.2666
-71.2768
-71.26
-69.9746
-70.013
-70.0179
-70.0071
-70.0042
-70.0198
-68.9387
-68.9236
-68.9179
-68.9201
-68.9443
-68.9051
-70.4321
-70.4885
-70.4868
-70.4401
-70.3847
-70.3991
-69.7262
-69.721
-69.7067
-69.7094
-69.7094
-69.7026
-69.9904
-70.0011
-69.9986
-69.9977
-69.9984
-69.9898
-70.136
-70.1416
-70.1372
-70.133
-70.1372
-70.1329
-69.0971
-69.0959
-69.0931
-69.0881
-69.0858
-69.09
-1360.08
-92.9668
-1234.35
-1117.01
-77.5769
-1127.74
-70.663
-293.523
-68.6702
-95.0415
-126.103
-74.2791
-68.67
-68.7018
-69.933
-68.6969
-68.67
-68.6811
-70.2379
-70.7332
-70.5625
-70.8618
-70.9386
-70.5444
-68.67
-68.67
-68.67
-68.67
-68.67
-68.67
-68.7157
-68.6926
-68.6924
-68.7398
-68.7709
-68.763
-68.67
-68.67
-68.67
-68.67
-68.67
-68.67
-68.67
-68.6701
-68.6702
-68.67
-68.67
-68.67
-68.6702
-68.671
-68.6707
-68.6702
-68.67
-68.6701
-68.9415
-68.9864
-69.0553
-69.0558
-69.0518
-69.0646
-70.058
-70.2195
-70.3218
-70.4683
-70.4349
-70.4046
-70.6699
-70.3516
-70.1728
-70.5448
-71.1982
-70.4654
)
;
    }
}


// ************************************************************************* //
