/*--------------------------------*- C++ -*----------------------------------*\
| =========                 |                                                 |
| \\      /  F ield         | OpenFOAM: The Open Source CFD Toolbox           |
|  \\    /   O peration     | Version:  v1612+                                |
|   \\  /    A nd           | Web:      www.OpenFOAM.com                      |
|    \\/     M anipulation  |                                                 |
\*---------------------------------------------------------------------------*/
FoamFile
{
    version     2.0;
    format      ascii;
    class       surfaceScalarField;
    location    "7.25";
    object      phi;
}
// * * * * * * * * * * * * * * * * * * * * * * * * * * * * * * * * * * * * * //

dimensions      [0 3 -1 0 0 0 0];

internalField   nonuniform List<scalar> 
2916
(
-0.000101069
0.129171
-0.12907
2.62113e-05
0.128906
-0.129033
1.35438e-05
0.129048
-0.129035
-4.17561e-06
0.129099
-0.129081
6.29687e-05
0.129012
-0.129079
0.129101
-0.129038
-6.03167e-05
0.220383
-0.0911517
2.34619e-05
0.220147
-0.0913251
-3.82971e-06
0.220307
-0.0912323
-1.46764e-05
0.220297
-0.091187
4.34986e-05
0.22023
-0.0912765
0.220331
-0.0911865
-5.15437e-06
0.0873401
0.133048
-1.10639e-05
0.0870352
0.133118
-3.69539e-05
0.0872745
0.133059
-4.9271e-06
0.087161
0.133104
2.79572e-06
0.0871181
0.133105
0.0873307
0.133004
-0.000270358
-0.236331
0.323942
1.68276e-05
-0.237422
0.32417
0.000174282
-0.236935
0.324052
6.65642e-05
-0.236823
0.324091
-0.000126383
-0.236872
0.324183
-0.236733
0.323937
-0.00122844
-0.522599
0.287497
3.1169e-05
-0.526396
0.287714
0.000916495
-0.525334
0.287514
0.000227936
-0.523885
0.287751
-0.00128455
-0.522992
0.287632
-0.525538
0.287521
-0.00137182
-0.685623
0.164396
-8.59218e-05
-0.691133
0.163451
0.00078831
-0.689975
0.163766
0.000273896
-0.687155
0.163784
-0.00165751
-0.685864
0.164804
-0.690421
0.163226
0.00261938
-0.748288
0.0600454
-0.000400026
-0.753063
0.0649492
-0.00305953
-0.751997
0.0646816
-0.000580299
-0.749607
0.0599725
0.00556973
-0.748011
0.0559967
-0.753152
0.0683003
0.00467909
-0.680172
-0.0727949
-0.000559808
-0.678914
-0.06891
-0.00438572
-0.678943
-0.0692276
-0.000782933
-0.680431
-0.0727779
0.00864845
-0.682153
-0.075289
-0.677166
-0.0673375
0.00146953
-0.53045
-0.151191
-0.000366079
-0.527725
-0.149354
-0.00167763
-0.527906
-0.149726
-0.000527207
-0.530402
-0.151179
0.00162297
-0.533453
-0.150851
-0.525531
-0.150012
-0.00322333
-0.370166
-0.157061
0.000403023
-0.372728
-0.158623
0.00341267
-0.372761
-0.158155
-0.000371995
-0.369341
-0.157277
-0.0100901
-0.368795
-0.15494
-0.374027
-0.161593
-0.0049903
-0.216064
-0.149112
0.00110235
-0.220854
-0.157967
0.00642342
-0.220919
-0.157163
0.00190571
-0.215749
-0.149074
-0.0103139
-0.213224
-0.143351
-0.223485
-0.160856
0.00425409
-0.220318
-0.000803825
-0.215796
-0.00484774
-0.216875
-0.000192669
-0.220404
0.0109287
-0.224345
-0.212557
-0.000117157
0.234772
-0.363725
1.39613e-05
0.234472
-0.363636
-1.62378e-05
0.234638
-0.363643
7.01037e-06
0.234611
-0.363715
0.000152319
0.234506
-0.36373
0.23473
-0.363615
-0.000101655
0.373661
-0.229939
-2.39924e-06
0.373095
-0.230047
-7.29602e-05
0.373351
-0.229875
-4.01863e-05
0.373387
-0.229996
0.000309383
0.373238
-0.230358
0.373497
-0.229644
-0.000200228
0.417904
0.0890052
-2.6146e-05
0.417412
0.0886271
-5.98714e-05
0.417625
0.0888186
-2.06176e-06
0.417605
0.0888282
0.000366632
0.417448
0.0885251
0.417804
0.0890635
-0.000415026
0.39875
0.343511
-3.58076e-05
0.398302
0.342901
-1.42529e-05
0.398694
0.342962
8.3272e-05
0.398234
0.343365
0.000247008
0.397511
0.343956
0.399101
0.342887
-0.000379473
0.57335
0.113275
-0.000541858
0.579125
0.107054
0.00050495
0.576085
0.109076
-4.16534e-05
0.575925
0.110606
-0.00165406
0.573349
0.113407
0.574193
0.110774
0.0268429
0.92248
-0.211577
-0.000728488
0.933844
-0.163697
-0.027359
0.927869
-0.161388
-0.00613598
0.927591
-0.209104
0.0288325
0.919829
-0.216644
0.931828
-0.165577
0.0134526
1.1162
-0.147131
-3.1656e-06
1.14521
-0.132959
-0.0153625
1.13788
-0.129966
-0.00551355
1.12218
-0.14447
0.0189626
1.09815
-0.146805
1.15335
-0.134261
-0.00210083
0.983899
0.0616106
-0.00275043
1.00916
0.0677846
-0.00435595
1.00545
0.0648018
-0.00385211
0.988006
0.0608977
-0.000638538
0.962227
0.0574245
1.0259
0.0594776
-0.00844704
0.584659
0.256496
-0.000699862
0.592431
0.259631
0.00158999
0.594497
0.25894
-0.00210653
0.58386
0.256663
-0.0142005
0.568589
0.254881
0.607104
0.254582
-0.0208343
0.267352
0.18108
0.00215024
0.250131
0.160692
0.0155439
0.255478
0.167471
-0.00151315
0.266578
0.177061
-0.0488209
0.270458
0.190499
0.249748
0.146942
-0.0272056
0.24587
-0.100424
0.00919099
0.189651
-0.133884
0.0368835
0.196601
-0.125978
0.0132918
0.246855
-0.105759
-0.0561859
0.284257
-0.0876732
0.17142
-0.138714
0.00521816
0.0203336
0.00618279
-0.0271093
0.00798568
-0.0220777
0.0116883
0.0227479
0.0124432
0.0591574
-0.0286931
0.000826219
0.650084
-1.01464
-0.000157298
0.650036
-1.01269
-0.000288466
0.649969
-1.01348
-0.000128573
0.650105
-1.01398
-0.000409534
0.650263
-1.01371
0.64994
-1.01396
0.000425211
1.5581
-1.13838
-1.09511e-05
1.55801
-1.13759
-0.000413472
1.55759
-1.13709
-0.000108522
1.55817
-1.13837
0.000365952
1.55953
-1.1401
1.55636
-1.1357
-0.000651319
2.28767
-0.63992
-0.00029405
2.28662
-0.640333
0.00211226
2.28745
-0.643451
9.09512e-05
2.287
-0.637975
-0.00553634
2.28807
-0.634393
2.28722
-0.647327
-0.00271261
3.17487
-0.540972
-0.000293847
3.16935
-0.542252
0.00178409
3.16924
-0.540906
0.000473081
3.17171
-0.54003
-0.00695142
3.18429
-0.544838
3.15865
-0.535501
-0.0406627
3.53666
-0.207856
-0.00516329
3.76558
-0.524673
0.0500706
3.73828
-0.515199
0.0166213
3.59197
-0.276208
-0.086501
3.47097
-0.070148
3.86513
-0.682208
0.367072
1.34578
1.61223
-0.0379583
1.96119
2.04572
-0.329454
1.84191
2.02649
-0.00723057
1.43648
1.62417
0.621002
1.12805
1.49804
2.35039
1.97017
0.0922477
-0.230517
1.33692
-0.014495
0.346661
1.58831
-0.0985809
0.238923
1.5571
0.0892121
-0.211865
1.31608
0.382301
-0.572504
1.26066
0.943918
1.65451
-0.281075
-0.794548
0.90672
-0.0167743
-0.769801
0.919947
0.144074
-0.751352
0.894231
-0.0790077
-0.812971
0.885086
-0.534653
-0.947394
0.887961
-0.532866
1.00161
-0.0281887
-1.55853
1.04867
0.00209515
-1.58195
1.0415
0.0217161
-1.57317
1.06113
-0.0229178
-1.56479
1.05312
-0.133214
-1.6196
1.03738
-1.50749
1.09599
-0.00314722
-1.59498
0.220677
0.00347033
-1.61452
0.186639
0.00314712
-1.61129
0.205919
0.00257262
-1.59682
0.209665
-0.023643
-1.61992
0.217038
-1.58253
0.198343
0.00206735
-0.557897
-1.13958
0.0128087
-0.611467
-1.14768
0.00857655
-0.597319
-1.13572
0.0174209
-0.563336
-1.14809
0.00264809
-0.534034
-1.15879
-0.599238
-1.11936
0.0179208
-0.555484
0.00371206
-0.624367
-0.00914803
-0.606537
-0.00367855
-0.546057
0.0144268
-0.492982
-0.613505
0.000728806
0.468753
-1.48412
-7.87246e-05
0.472172
-1.48405
0.000889595
0.469712
-1.48416
-6.40372e-05
0.470753
-1.48378
-0.00287377
0.473041
-1.48394
0.467241
-1.48408
0.00228901
1.46755
-2.13947
0.000191197
1.47911
-2.14243
0.0012476
1.4747
-2.14313
-0.00136708
1.47427
-2.13927
-0.00642634
1.47247
-2.13447
1.46682
-2.1417
0.0255836
1.44023
-0.638188
0.00236126
1.53783
-0.67583
0.00522174
1.53807
-0.709688
-0.00798207
1.48437
-0.634874
-0.00123069
1.37906
-0.547738
1.56713
-0.748871
0.236692
-0.361352
1.02392
0.0212073
0.168454
1.0426
-0.232258
0.242793
1.00783
-0.0678653
-0.274233
1.05418
0.269177
-0.580673
1.07785
0.344626
0.956175
0.203957
-2.65867
1.8855
0.0743848
-2.10657
1.87992
-0.0194487
-2.03661
1.85803
0.114942
-2.60011
1.91527
0.484995
-2.98301
1.96213
-1.5041
1.65151
-0.14066
-3.02897
2.1232
-0.0142085
-3.01523
2.82793
0.197614
-3.01223
2.79028
0.0864472
-3.04104
2.17626
-0.0433845
-3.25302
1.89789
-2.45523
2.87792
-0.067794
-2.5028
0.878548
-0.0294184
-2.5711
1.10581
0.0178294
-2.57115
1.06878
-0.0545469
-2.51142
0.858844
-0.241309
-2.59309
0.787484
-2.35175
1.30972
-0.0606522
-1.97641
0.440976
-0.0179859
-2.03056
0.336741
0.0301272
-2.02952
0.30449
-0.0370035
-1.97177
0.412565
-0.208092
-1.98739
0.453354
-1.9726
0.414369
-0.00168667
-2.06712
1.14106
-0.0171196
-2.0799
1.10627
-0.0227219
-2.08379
1.12101
-0.026949
-2.07481
1.16038
-0.0622804
-2.08723
1.17256
-2.06043
1.12153
0.00921164
-2.10958
0.25393
-0.0207731
-2.14044
0.277165
-0.0389023
-2.13924
0.279493
-0.0216592
-2.13048
0.248093
0.0209256
-2.13423
0.221453
-2.1412
0.300035
0.0268
-1.25133
-2.02463
-0.00460227
-1.27165
-1.98507
-0.0277049
-1.26903
-1.98283
-0.013757
-1.27152
-2.021
0.0274733
-1.27409
-2.06016
-1.27485
-1.95823
0.0357194
-1.84253
-0.00206852
-1.85823
-0.027853
-1.84978
-0.013456
-1.83198
0.036117
-1.81665
-1.85223
-0.299263
-0.0161664
0.315429
-0.248253
-0.515577
0.464568
-0.214261
-0.402377
0.368385
-0.148479
-0.411789
0.346007
0.431535
-1.01127
0.431259
0.050886
0.380649
0.0994653
-0.720519
0.604887
-0.278231
-1.27517
1.13729
0.0458799
-1.44557
0.719081
-0.201529
-1.17351
1.00913
-0.293088
-1.75698
0.837263
-0.713697
0.471496
-0.0847607
-1.7265
1.09074
-0.222477
-2.46388
1.32642
-0.09177
-2.54984
0.973565
-0.297701
-2.20178
1.23421
-0.614129
-2.28893
0.848377
-1.84403
0.516202
-0.275852
-2.56375
1.1131
-0.0428825
-3.04293
0.346081
0.107547
-2.93053
0.230261
0.143364
-2.7569
0.5193
-0.24343
-2.55735
0.655215
-2.35512
0.267662
0.108105
-2.67368
0.00181994
0.15855
-3.06379
-0.0295786
0.18439
-2.91843
-0.0379394
0.289304
-2.6738
-0.188012
0.125636
-2.59474
0.201064
-2.3559
0.126411
0.233169
-2.4764
-0.430447
0.356728
-2.88683
-0.300524
0.496673
-2.75828
-0.300099
0.317758
-2.61229
0.117402
0.280755
-2.58414
0.0264032
-2.7642
0.689064
0.287129
-2.39016
-0.373367
0.518188
-2.74185
-0.376038
0.506735
-2.80843
0.0616059
0.0894616
-2.85039
0.655379
0.0407438
-2.61441
0.0789849
-3.04628
0.32282
0.0765414
-2.26331
-0.203387
0.288707
-2.47676
-0.477251
0.157293
-2.77336
0.0963395
0.0543133
-2.7362
-0.0112184
0.0214786
-2.50752
-0.0740553
-2.75945
-0.265357
-0.0706052
-1.89364
-0.299073
-0.100367
-2.06985
-0.377154
-0.17576
-2.37831
-0.319654
-0.0035395
-2.20646
-0.701956
0.138366
-2.09273
-0.556701
-2.17112
-0.449964
0.0443505
-1.36981
-0.568176
-0.290096
-1.74627
0.0108674
-0.522271
-1.86872
-0.277415
-0.233068
-1.5863
-0.909369
0.198385
-1.48833
-1.03585
-1.52667
-0.446058
0.174081
-0.553012
-0.99088
-0.195493
-1.10081
-0.275889
-0.860002
-1.13253
-0.0716783
-0.472639
-0.674711
-1.29895
0.182843
-0.448869
-1.69494
-0.720746
-0.623084
0.0475199
-0.600532
-0.200158
-0.853127
-0.7145
-0.618191
-0.385483
-1.00373
0.136018
-0.97037
-0.584728
-0.361738
0.119998
0.557168
-0.0516375
-0.945237
1.0997
-0.244218
-0.241285
0.80225
-0.103019
-0.999118
1.20393
0.464174
-1.39792
1.26199
0.319108
0.525714
0.816638
-1.09748
1.00572
0.0492545
-1.92535
2.88478
-0.10071
-1.32283
1.95059
-0.455811
-1.84201
2.20712
-0.730858
-2.29213
2.00652
-0.497364
0.55711
0.676425
-2.47493
1.79177
0.0166463
-2.81397
2.87483
-0.621734
-2.48744
2.77656
-0.844794
-2.77208
2.38734
-0.982652
-3.01594
1.71005
-1.79015
0.826336
0.241958
-1.93966
0.335878
-0.368915
-1.1453
-0.711719
-1.03405
-0.897654
-0.69439
-1.06139
-1.48071
-0.744731
-0.57627
-2.22847
-0.617386
-1.88552
-0.213243
-0.522689
0.19573
-1.61088
-1.29534
1.2479
-1.65013
-1.99318
1.29608
-1.53382
-2.32462
0.438463
-1.77575
-1.29695
-1.51475
-1.54032
-2.14181
-0.914246
-1.15398
2.63926
-1.72
-2.17335
3.30469
-1.33795
-2.80673
2.73464
-1.10528
-2.09243
0.587405
-0.745842
-1.43525
-1.52576
-0.619768
-2.92713
0.0391312
-0.792577
4.1921
-1.13363
-1.97849
4.77127
-0.656708
-1.6699
2.86612
-0.378451
-0.819801
0.539732
-0.147052
-0.558999
-1.33972
-0.367859
-3.25971
0.0964037
-0.00913795
3.96023
0.0376269
-0.20307
4.31873
0.169224
0.0108402
2.26725
0.481299
-0.246657
1.19672
-0.410704
-0.0043531
-0.216346
-1.43973
-2.5919
-0.937521
1.03982
1.85237
0.768963
2.19097
1.9153
0.875117
1.79696
1.17004
1.17157
1.08981
0.840842
0.361072
1.26384
-0.297165
-0.649917
-1.23301
-0.545008
1.12807
-1.03411
1.19024
1.57593
-0.911786
2.3901
0.264453
-0.246739
2.45085
-0.0692294
-0.482841
0.747997
0.853843
-1.4464
-0.809687
-1.01944
0.194215
0.715945
-1.45625
-1.28469
-0.24181
-1.5569
1.32697
-1.12143
-1.20028
1.76148
-0.293762
-1.0376
-1.57185
0.258107
-1.19439
-2.49882
-1.04845
-0.335969
0.310658
-2.36744
-0.311865
-1.7875
-0.543619
-1.58672
-0.434481
-2.15047
-0.156589
-2.44265
-1.78977
-0.263348
0.653956
0.16656
0.0845807
0.121759
0.630016
-0.00848388
0.373925
0.52139
0.00288717
-0.17793
1.37048
0.175837
-0.242861
1.3319
0.611323
0.0902276
0.315193
0.575293
0.769194
0.148501
0.501104
2.67213
0.238919
0.342177
1.89192
0.0259755
-0.0717093
2.31385
-0.567984
0.40227
1.95535
0.866066
-0.265616
0.449317
0.532024
1.38572
0.0209652
0.527966
3.27632
-0.780117
0.608267
3.31155
-0.940707
0.228049
2.24817
-0.632613
0.75688
1.04734
1.07758
-0.0177954
0.197048
0.97391
-0.303057
-0.13727
1.12476
-0.9742
-0.421415
1.12577
-0.927752
-0.64177
0.964468
-1.26079
-0.357734
1.19245
-1.337
1.08036
-0.573749
-0.300202
1.14332
-1.48009
-0.236299
1.09763
-1.6869
-0.184004
1.08409
-1.54444
-0.315516
0.707719
-1.38749
-0.173969
0.719977
-1.20939
0.768285
-0.776144
-0.113025
0.737981
-1.20163
-0.699534
1.26066
-0.914469
-1.03546
1.19252
-0.877787
-0.846263
0.592436
-0.819758
-0.552495
0.388716
-0.582276
0.224013
0.0309091
-0.732568
0.738792
-0.401876
-1.48205
1.52671
-0.173271
-1.81925
1.54541
-0.394137
-1.59468
0.653724
-0.432918
-0.957082
-0.266078
-0.350658
-0.869955
0.233289
-1.04325
1.05058
0.769086
-1.31215
0.815455
1.14938
-0.67172
0.821177
0.5651
-0.3975
0.267778
-0.298978
-0.466081
-0.547872
-1.08935
-1.5595
-0.714052
0.130068
0.339556
1.34992
0.515539
-0.227604
1.53271
1.34243
-0.0508838
1.21674
1.49019
-0.101298
0.582382
0.62221
-0.125449
-0.204356
-0.924094
-0.558208
0.204542
0.230552
1.0947
0.00913155
0.404559
1.95334
0.233776
0.272793
1.90253
0.571876
0.133932
0.174667
0.968278
-0.639822
-0.691715
0.63509
-0.396692
-0.721298
-0.100283
-0.232558
-0.99651
0.14195
1.86479
-0.209403
-0.324801
1.57196
0.602297
-0.348832
-1.90079
0.86419
-0.889142
-2.5114
1.07086
0.092449
-0.24411
-2.22361
0.52716
-2.41682
1.07094
-2.4553
0.551613
-1.97997
-1.00618
-1.77399
-1.72509
-0.120022
0.655741
-0.369159
-0.0181088
0.520534
0.00756928
-0.0636203
0.523811
0.0430905
-0.0606436
0.630975
0.736533
0.0197549
0.291662
0.959839
0.611816
-0.501834
-0.0520086
1.14629
0.330657
0.0835784
1.12363
1.93345
0.32531
0.818894
1.3551
0.262728
0.86068
2.14672
-0.0459891
0.608345
1.94738
1.02873
-0.728516
-0.375965
1.49965
1.40832
-0.189327
1.60757
2.60573
-0.107577
1.41595
2.63274
0.382573
1.05331
1.56539
0.70357
0.679317
0.655374
1.24076
0.473744
0.262439
1.03109
-0.0969289
0.300292
1.0774
-0.481883
0.236385
0.937598
-0.385487
0.0738769
0.715075
-0.760048
-0.137589
0.597172
-1.04339
0.984277
-0.454858
0.174384
0.0800028
-0.703388
0.158996
0.188415
-0.782521
-0.115377
0.285501
-0.617967
-0.276665
0.0555845
-0.566709
-0.296272
-0.165116
-0.42749
0.114949
-0.203087
0.137013
-0.656458
-0.602185
-0.13801
-0.532435
0.0814042
-0.554647
-0.218124
0.0424758
-0.468821
-0.28735
-0.562649
-0.156675
-0.46749
-0.592046
-0.273828
0.263012
-0.18896
-1.0591
0.18973
-0.39316
-1.44825
0.946749
-0.649291
-1.28453
0.9284
-0.745992
-0.888042
0.264477
-0.344669
-0.620698
-0.598773
-0.724801
0.339593
-0.535712
-0.586826
0.832522
-0.0180611
-2.07158
1.25505
0.833204
-2.35881
0.78812
0.654857
-1.56372
0.555041
0.19564
-0.778919
-0.471916
-0.997812
-0.245402
0.0145488
-0.384555
1.1331
0.24145
-1.57449
0.808716
0.735805
-1.86611
0.229678
1.07361
-1.40578
0.0866407
0.552547
-0.537331
0.0751226
-0.823229
-0.180245
0.12509
0.458678
0.126374
-0.135157
0.432817
0.206287
-0.52557
0.527312
-0.100482
0.481348
-1.53215
-0.705882
0.944064
-1.24305
-0.44871
0.401469
-0.677325
-0.420562
0.415658
0.231025
0.682125
0.632569
0.562358
1.4124
0.901773
0.467225
0.648854
-1.11883
-1.55057
-0.208107
-1.35376
-1.54373
0.732432
-0.446622
0.0322522
-1.8402
0.36958
-2.12158
1.08644
-2.27039
0.220566
-2.23292
-0.974925
-1.93226
-1.96758
-0.0142796
-1.72553
0.255695
0.00346265
-1.76072
0.258931
0.00651241
-1.74856
0.26135
0.00388298
-1.73619
0.255035
0.0107537
-1.73885
0.248038
-1.73649
0.263163
-0.0885491
-1.26517
-0.371809
0.0199108
-1.45108
-0.4181
0.000322782
-1.38214
-0.346831
0.0166183
-1.33449
-0.417992
0.12379
-1.33667
-0.509357
-1.33074
-0.281959
-0.126363
-1.67229
0.0031037
-1.97542
-0.0482076
-1.76566
0.00585528
-1.86647
0.273564
-2.09484
-1.50493
0.00244472
-1.51398
-0.372233
0.00177825
-1.56269
-0.320139
-0.00335323
-1.56593
-0.31072
-0.00835904
-1.52292
-0.356312
-0.00363081
-1.479
-0.412158
-1.57661
-0.305555
0.0427462
0.785258
-2.7138
0.0109051
0.662626
-2.61157
-0.0652264
0.665319
-2.50195
-0.0436041
0.763559
-2.72609
0.0655257
0.82054
-2.91803
0.61029
-2.40334
-0.00622123
-4.05338
0.00126484
-4.28644
-0.0344885
-4.07239
-0.0309511
-4.23204
0.0827722
-4.53778
-3.73041
0.0332379
1.06371
-2.10737
0.00938362
0.986719
-1.95884
-0.0011467
0.892241
-1.90212
-0.0172723
1.08464
-2.0597
0.0604036
1.23434
-2.27192
0.820779
-1.81481
0.193236
2.7341
-4.57742
0.045547
2.84077
-4.31794
-0.0563931
2.68634
-4.1941
0.00994296
2.84373
-4.55152
0.110639
2.98414
-4.76852
2.55788
-4.0298
0.205853
-4.33413
0.0498046
-4.38603
0.0130432
-4.29814
0.007782
-4.38995
-0.10455
-4.5782
-4.04532
0.202207
2.59923
-3.88489
0.0345667
2.87061
-3.61921
-0.159174
2.82886
-3.52941
-0.0348354
2.71312
-3.84299
0.358581
2.60018
-4.18766
2.7625
-3.26255
-0.0336059
3.14352
-5.0881
-0.00640523
3.58924
-5.06377
0.0801106
3.58579
-5.03755
0.0778746
3.26626
-5.10242
0.0780458
3.01355
-5.18207
3.65458
-4.84384
-0.0509839
-4.12468
0.029017
-4.23383
0.206913
-4.23365
0.130058
-4.16513
-0.209975
-4.18742
-4.14619
0.158689
2.32015
-4.47823
0.0286072
2.82283
-4.43204
-0.0824303
2.84163
-4.40197
0.0588265
2.41014
-4.47911
0.387956
2.11702
-4.67168
2.85213
-4.07521
-0.0808527
1.75297
-4.44008
-0.0398013
2.30631
-4.5883
0.0514925
2.3504
-4.63761
0.0239163
1.77261
-4.43732
-0.0116644
1.39914
-4.42861
2.52597
-4.52935
-0.176308
-3.15153
-0.0704409
-3.30369
0.134725
-3.30943
0.0515439
-3.10984
-0.228487
-2.99425
-3.37617
-0.138717
0.908712
-3.12503
0.0147737
1.45706
-3.21465
0.14846
1.48668
-3.23206
0.0398646
0.933805
-3.12806
-0.130204
0.590069
-3.19379
1.723
-3.05049
-0.0949709
-1.28208
-2.15432
-0.0100448
-0.990557
-2.22561
0.0498607
-0.95621
-2.25462
-0.0177242
-1.29684
-2.13909
-0.180793
-1.54644
-2.12903
-0.715352
-2.27179
-0.0330244
-1.15237
-0.0254065
-1.2044
-0.00312421
-1.20432
-0.00885656
-1.14046
-0.0598219
-1.07802
-1.29166
-0.0965282
-0.539245
-1.61071
-0.00707233
-0.530821
-1.66748
0.0614534
-0.558055
-1.67375
-0.0508769
-0.555782
-1.6011
-0.241922
-0.608031
-1.60723
-0.315057
-1.66764
-0.00486149
-1.59178
-1.09692
-0.00552851
-1.68272
-1.07304
-0.0526239
-1.69531
-1.07028
-0.0603857
-1.59678
-1.09034
-0.0989546
-1.59651
-1.10198
-1.62066
-1.06514
0.0459781
-0.716908
-0.00104923
-0.707712
-0.0651268
-0.705397
-0.0177531
-0.716825
0.0639403
-0.718989
-0.698044
0.0422549
-0.215332
-0.996657
-0.0105278
-0.342441
-0.935519
-0.0842168
-0.359473
-0.936099
-0.052458
-0.231169
-0.989129
0.000725954
-0.205277
-1.00179
-0.311338
-0.941208
0.0342087
-0.688079
-0.658385
0.00135947
-0.7356
-0.647036
-0.0526159
-0.731139
-0.644637
-0.0165422
-0.697146
-0.660433
0.0279721
-0.68665
-0.665124
-0.732106
-0.616404
0.0101818
-0.485924
-0.00101278
-0.489565
-0.00964152
-0.489047
-0.00126288
-0.485965
0.00864555
-0.483246
-0.487334
-0.0255325
0.872317
-0.702376
-0.0235592
0.856959
-0.68818
-0.00266975
0.859002
-0.694987
-0.00634919
0.891405
-0.716471
-0.0137738
0.900343
-0.722148
0.849327
-0.682777
-0.0117239
0.0616056
0.164049
-0.0112416
0.0506788
0.15876
-0.00766893
0.0523065
0.158485
-0.00933131
0.0700384
0.162596
-0.0141834
0.0735463
0.166524
0.0556879
0.163051
0.00399069
-0.137607
-0.00399728
-0.140141
-0.0119874
-0.139773
-0.0042582
-0.137894
0.00723285
-0.136524
-0.142092
-0.006578
0.359758
-0.801626
-0.0124615
0.392465
-0.797597
-0.0043806
0.389727
-0.813304
-0.0126488
0.361726
-0.821836
-0.0196383
0.335879
-0.829587
0.417082
-0.819464
-0.0150162
-0.236802
0.775626
0.00318386
-0.235105
0.768128
0.0167074
-0.234462
0.769149
0.000418218
-0.234673
0.775283
-0.0362128
-0.245017
0.78405
-0.221672
0.765591
0.000149549
0.246135
-0.00222784
0.245876
-0.00238918
0.246079
-0.00133026
0.246378
-0.00326203
0.24609
0.247027
-0.00539417
-1.18748
-1.63339
-0.0030265
-1.17283
-1.6122
0.0031138
-1.17067
-1.6316
-0.00332078
-1.17835
-1.65805
-0.0172678
-1.18492
-1.69088
-1.16098
-1.63399
-0.00982097
-0.994799
0.592768
-0.000134601
-0.997142
0.582748
0.00674487
-0.994794
0.586392
0.00122513
-0.992794
0.59525
-0.0112913
-0.994013
0.605658
-0.990473
0.583796
0.000655154
0.471798
-0.00184425
0.471097
-0.00243812
0.472474
-0.00172276
0.473131
-0.000875458
0.473784
0.47423
0.0218337
-2.03744
-1.46032
-0.00651321
-1.96898
-1.4731
-0.0229208
-1.99543
-1.46954
-0.00920084
-2.03038
-1.47337
0.0312552
-2.07363
-1.47436
-1.98118
-1.47378
-0.01657
-1.33686
-0.0912411
0.005785
-1.31528
-0.0933111
0.0174823
-1.32696
-0.0937731
0.00952182
-1.3391
-0.0880749
-0.016713
-1.35595
-0.0857857
-1.31873
-0.0953673
-0.0122189
0.0674873
0.00334642
0.0728566
0.011333
0.0718882
0.00504612
0.0712918
-0.0155825
0.068738
0.0746969
-0.00742198
-0.80986
-0.599047
1.41633
-0.0014303
-0.756479
-0.605021
1.35551
0.0125446
-0.751758
-0.614819
1.3526
0.01724
-0.809678
-0.623389
1.42837
-0.00126952
-0.896195
-0.632679
1.54738
-0.83151
-0.612424
1.44266
-0.0470023
-0.638522
-0.292609
0.168273
-0.0272265
-0.61146
-0.280751
0.115958
-0.00946973
-0.609736
-0.267682
0.107904
-0.0152226
-0.651003
-0.247147
0.0942255
-0.0172741
-0.720101
-0.19832
0.0242788
-0.652916
-0.224953
0.029085
0.00784493
-0.321376
-0.0405235
0.0262522
-0.340515
-0.0119102
0.0517358
-0.341088
-0.0185755
0.0471132
-0.331761
-0.0365418
0.00808189
-0.305535
-0.084604
-0.337251
-0.0350821
-0.00170881
-0.418306
-0.179032
-0.0116052
-0.41661
-0.178515
-0.0201917
-0.43307
-0.173163
-0.0141005
-0.464835
-0.164645
0.0089549
-0.492831
-0.162904
-0.434479
-0.16899
-0.000285569
-0.524193
-0.186436
-0.00781487
-0.524672
-0.165159
-0.0237652
-0.532649
-0.152153
-0.0340905
-0.549634
-0.152023
-0.0127216
-0.565731
-0.146788
-0.523159
-0.148994
0.0100604
-0.204467
0.012633
-0.206644
0.00927579
-0.209098
0.000247594
-0.218648
-0.00455403
-0.222085
-0.218175
-0.00509782
-0.171182
-0.00275218
-0.00503546
-0.175514
-0.00306398
-0.000740754
-0.175111
-0.00234624
0.000476839
-0.167455
0.00159214
-0.000498295
-0.167172
0.00524339
-0.16907
-0.000418175
-0.0203131
-0.305663
-0.0316416
-0.022443
-0.308024
-0.0305174
-0.0144354
-0.305546
-0.029724
-0.00769871
-0.300359
-0.0258547
-0.00140937
-0.299348
-0.0208995
-0.299136
-0.0203361
0.00504065
-0.00286516
0.0066908
-0.00509794
0.00721559
-0.0070229
0.00568963
-0.00851979
0.00174988
-0.00832636
-0.00785386
-0.0022357
-0.185715
0.185198
-0.00377425
-0.187952
0.186427
-0.00468878
-0.188959
0.187528
-0.00263171
-0.188887
0.188422
0.000304493
-0.186444
0.188752
-0.18723
0.187116
-0.00178722
-0.345851
0.130283
-0.00386857
-0.348604
0.132218
-0.00695082
-0.349039
0.133439
-0.00630376
-0.348701
0.133315
-0.00107619
-0.347099
0.13453
-0.345355
0.136715
0.00341827
0.216677
0.00470315
0.216003
0.00368136
0.215524
0.00108764
0.21587
-0.000158752
0.216533
0.215636
-0.00209932
-0.424541
0.611839
-0.00394043
-0.428602
0.61687
-0.00471012
-0.428983
0.61728
-0.00241903
-0.433951
0.620082
0.000120134
-0.434363
0.620576
-0.432377
0.619613
-0.00128118
-0.492323
0.199347
-0.000820921
-0.495826
0.198983
-0.00054216
-0.495771
0.199951
-0.000660756
-0.499108
0.198593
0.00016411
-0.499994
0.199338
-0.49668
0.201184
0.00234228
0.323691
0.00421037
0.321075
0.00502378
0.320917
0.00247755
0.320577
-0.000854576
0.322024
0.319414
0.000936094
-0.849413
-0.000281991
-0.855013
0.000146224
-0.852687
-0.000397473
-0.852741
-0.00108926
-0.85309
-0.855261
0.00192344
-0.743228
-0.00107711
-0.746338
-0.00331505
-0.744269
-0.000996703
-0.744539
0.00508144
-0.745614
-0.744362
0.00207933
0.00341632
0.00472229
0.00307004
-0.00146936
-0.00861273
-0.600691
0.240145
-0.146365
-0.0872991
0.23262
-0.22826
-0.100167
0.225152
-0.0954174
0.363482
0.240209
0.0148459
0.663322
0.186253
-0.711528
0.22454
-1.00602
1.40588
-1.00055
0.382321
-1.826
0.350353
-0.0158858
1.28412
-0.986079
-0.514793
1.2168
-0.354407
0.62506
-0.594233
0.117702
1.52782
-1.61429
-1.05013
-2.32521
0.774902
0.0810986
-0.117504
-1.80355
-1.09236
-1.28808
1.10824
-0.373041
-2.44234
-0.102112
0.0106605
0.662254
0.00337954
1.51709
0.543483
0.257301
1.07428
0.252054
0.192259
2.12037
0.331601
-0.103889
2.04348
0.386304
-0.65808
0.0502145
0.225364
-0.325881
-0.889369
0.137058
2.25843
-0.302677
0.178679
1.61663
-1.57005
0.114605
2.6234
-0.793362
-0.485768
2.2617
0.499853
-0.905201
-1.85294
0.814543
-2.30393
0.00301712
-1.19394
0.117021
-2.15195
-0.296003
-1.69958
-0.689372
-0.829344
-2.16853
-0.681174
1.96473
0.787018
0.0315644
1.68052
0.755952
1.02476
1.43849
0.453105
1.67711
1.13794
0.1067
1.21828
1.60498
-0.10448
1.64495
0.0972905
-0.432335
1.63709
-0.129393
0.443021
0.759978
-0.257485
0.746437
0.155877
-0.590857
1.02394
0.662596
-0.59552
1.21113
2.0381
-0.120456
1.35734
-0.354198
-0.708903
-0.753937
0.0496029
-1.04735
-0.118606
-0.941754
0.119713
-1.12769
0.736739
-0.848001
-0.760703
0.433676
-0.0164553
0.272867
0.706464
-0.261021
0.262303
0.879731
-0.340596
0.234948
0.55086
-0.445212
0.120735
-0.0280775
-0.530063
-0.0388678
-0.459158
0.0735135
0.35595
-0.533904
0.032106
0.41943
-0.682595
0.100609
0.107998
-0.68624
0.0662178
-0.194438
-0.768569
0.0302719
-0.0366217
-0.814377
0.00604106
-0.77126
-0.0787183
0.217998
-0.539767
0.0973813
-0.500735
0.0499487
-0.523998
-0.15693
-0.548132
-0.117153
-0.545125
-0.59505
-0.0479139
-0.0511559
-0.331451
-0.015043
-0.0724162
-0.480672
0.0650691
-0.0884816
-0.37465
-0.0369209
-0.0401381
-0.303847
-0.165199
-0.0463599
-0.29172
0.0218333
-0.316605
-0.049384
0.350513
-0.320178
0.0654955
0.346653
-0.433341
0.160676
0.341259
-0.458706
0.167191
0.347885
-0.364268
0.0871845
0.325229
-0.285542
0.333439
-0.30314
-0.0301936
-0.376204
-0.0101067
-0.408943
0.0194915
-0.428195
0.0389113
-0.428321
0.037881
-0.391468
-0.392926
-0.164997
-0.195371
-0.573267
0.160411
0.156325
-0.881003
0.388574
0.168606
-0.728944
0.109681
-0.17788
-0.409724
-0.314349
-0.293498
-0.166238
-0.0398168
-0.328126
-0.156692
0.0113499
-0.370208
0.10903
0.11839
-0.661131
0.385055
0.134044
-0.700171
0.266519
-0.0101863
-0.413427
0.00688205
-0.0825364
-0.236866
-0.0336629
-0.302413
-0.0230081
-0.195524
0.0204783
-0.233847
0.0900942
-0.265402
0.0563696
-0.222527
0.012524
-0.207713
-0.20225
0.0311964
0.352251
-0.766984
0.137098
1.42321
-1.46337
0.255681
1.61936
-1.53849
0.406495
0.685552
-0.981612
0.0626246
-0.048755
-0.372384
0.505231
-0.431138
-0.312043
0.474744
-0.180661
0.139804
0.890619
-0.580387
0.714631
1.07719
-0.732831
0.750431
0.594773
-0.358449
0.131966
0.393384
-0.0605415
0.388093
-0.05331
-0.116362
-0.20218
-0.00720632
-0.215495
0.177353
-0.243289
0.155065
-0.216563
0.0598123
-0.21989
-0.22289
0.105309
0.814785
-0.854554
0.504905
1.47698
-2.08489
0.689752
1.44802
-2.38323
0.785209
1.05996
-1.58199
0.115598
0.26433
-0.439018
0.123191
-0.684131
0.132617
0.325485
0.17602
0.428628
0.713701
-0.113118
0.527977
0.901128
-0.285287
0.663277
0.538893
0.0273165
0.385265
0.19341
0.288391
0.131661
0.323486
-0.0759341
-0.110026
0.0225641
-0.0570691
0.116738
-0.058123
0.175834
-0.0850695
0.0998293
-0.133389
-0.133085
0.64048
1.14044
-1.50237
1.14546
1.0205
-2.80165
1.07387
0.753141
-2.83511
0.870815
0.65762
-1.94991
-0.0164801
0.688037
-0.164636
0.644431
-1.52529
0.494254
0.451729
0.370477
0.576556
0.484207
0.340877
0.199975
0.41491
0.429528
0.0132581
0.325077
0.546578
0.00570086
0.264032
0.719956
0.290504
0.683115
-0.00385098
0.0668708
0.072364
0.102453
0.139038
0.0997487
0.138659
0.0817999
0.0614794
0.0423816
0.0548352
0.68513
0.515284
-2.57641
0.902234
0.353054
-3.16552
0.671893
0.13154
-2.83679
-0.0348376
0.151581
-2.10064
-0.0853687
0.399533
-0.96235
0.143165
-2.43115
0.257436
0.0866158
0.541708
0.199144
0.0665486
0.685672
-0.078552
-0.0189331
0.857696
-0.214301
-0.0866129
0.920521
0.0604825
-0.132213
0.976918
-0.074999
0.961761
0.0119468
0.494612
0.0665688
0.498522
0.111283
0.46677
0.0890696
0.451167
0.0248926
0.408469
0.445788
0.258352
0.0564012
-2.66014
0.338916
-0.0968762
-2.58686
0.505171
-0.250607
-2.28522
-0.366958
-0.643641
-2.13544
-0.202826
-0.501134
-2.16908
-0.518153
-2.56244
0.0780225
-0.335221
0.855308
0.0113466
-0.349768
1.00524
-0.0387027
-0.410637
1.06778
-0.130526
-0.685909
1.05461
0.0349503
-0.720664
1.03097
-0.60395
1.08251
0.0501459
0.95898
0.160388
0.93971
0.251063
0.903049
0.153322
0.84613
0.02404
0.793834
0.832707
0.023761
-3.10778
-0.0489176
-3.28025
-0.134001
-3.11792
-0.0780407
-2.99595
-0.0488259
-2.58318
-3.13619
-0.0333516
-2.05085
-0.175309
-2.0171
-0.255519
-1.86203
-0.231503
-1.87113
0.0561157
-1.81554
-1.96848
-0.0108014
-0.0675212
-0.0674049
-0.0425286
0.103417
)
;

boundaryField
{
    seabed_topleft_surface
    {
        type            calculated;
        value           uniform 0;
    }
    seabed_topright_surface
    {
        type            calculated;
        value           uniform 0;
    }
    breakwater_top_surface
    {
        type            calculated;
        value           uniform 0;
    }
    breakwater_left_surface
    {
        type            calculated;
        value           uniform 0;
    }
    breakwater_right_surface
    {
        type            calculated;
        value           uniform 0;
    }
    water_front_surface
    {
        type            calculated;
        value           uniform 0;
    }
    water_back_surface
    {
        type            calculated;
        value           uniform 0;
    }
    water_left_surface
    {
        type            calculated;
        value           uniform 0;
    }
    water_right_surface
    {
        type            calculated;
        value           uniform 0;
    }
    water_top_surface
    {
        type            calculated;
        value           nonuniform List<scalar> 
180
(
0.533477
0.394872
0.434833
0.477916
0.490468
0.447757
3.17258
2.96615
3.0078
3.1256