/*--------------------------------*- C++ -*----------------------------------*\
| =========                 |                                                 |
| \\      /  F ield         | OpenFOAM: The Open Source CFD Toolbox           |
|  \\    /   O peration     | Version:  v1612+                                |
|   \\  /    A nd           | Web:      www.OpenFOAM.com                      |
|    \\/     M anipulation  |                                                 |
\*---------------------------------------------------------------------------*/
FoamFile
{
    version     2.0;
    format      ascii;
    class       volScalarField;
    location    "4.9";
    object      alpha.water;
}
// * * * * * * * * * * * * * * * * * * * * * * * * * * * * * * * * * * * * * //

dimensions      [0 0 0 0 0 0 0];

internalField   nonuniform List<scalar> 
320
(
1
1
1
1
1.37618e-05
1.28212e-05
1.26285e-05
1.315e-05
1.31331e-05
1.3619e-05
1.33432e-05
1.21311e-05
1.32909e-05
1.38458e-05
1.02612e-05
1.21648e-05
0.999987
0.999989
0.999989
0.999989
0.999983
0.999982
0.999983
0.999991
0.999986
0.999986
0.999993
0.999984
1
1
1
1
1
1
1
1
1
1
1
1
1
1
1
1
1
1
1
1
1
1
1
1
1
1
1
1
1.13108e-05
1.27701e-05
1.20988e-05
1.17711e-05
1.01927e-05
9.99803e-06
1.19648e-05
1.04697e-05
1.28271e-05
1.13892e-05
1.11679e-05
9.52384e-06
1.25404e-05
9.60785e-06
1.10676e-05
1.10629e-05
1.08359e-05
1.2177e-05
1.15133e-05
1.07313e-05
0.999985
0.999986
0.999988
0.999986
0.999993
0.999997
0.999994
0.999997
0.999985
0.999988
0.999994
0.999993
0.999982
0.999992
0.999991
0.999994
0.999994
0.999985
0.999985
0.999993
1
1
1
1
1
1
1
1
1
1
1
1
1
1
1
1
1
1
1
1
1
1
1
1
1
1
1
1
1
1
1
1
1
1
1
1
1
1
1
1
1
1
1
1
1
1
1
1
1
1
1
1
1
1
1
1
1
1
1
1
1
1
1
1
1
1
1
1
1
1
1
1
1
1
1
1
1.1929e-05
1.12658e-05
1.26548e-05
1.07092e-05
1.13375e-05
1.12209e-05
1.369e-05
1.35175e-05
1.22827e-05
1.61548e-05
1.46299e-05
1.30429e-05
1.28533e-05
1.14953e-05
1.18517e-05
1.2945e-05
1.34591e-05
1.38479e-05
1.10206e-05
1.20046e-05
1.28194e-05
1.33348e-05
1.23668e-05
1.24756e-05
1.10536e-05
1.12774e-05
1.18801e-05
1.38381e-05
0.999986
0.999989
0.999986
0.999992
0.999988
0.999988
0.999982
0.999986
0.999994
0.999982
0.999986
0.999988
0.999983
0.999988
0.999986
0.999987
0.999983
0.999985
0.999984
0.999981
0.999979
0.999989
0.999992
0.999985
0.99999
0.999987
0.999984
0.999986
1
1
1
1
1
1
1
1
1
1
1
1
1
1
1
1
1
1
1
1
1
1
1
1
1
1
1
1
1
1
1
1
1
1
1
1
1
1
1
1
1
1
1
1
1
1
1
1
1
1
1
1
1
1
1
1
1
1
1
1
1
1
1
1
1
1
1
1
1
1
1
1
1
1
1
1
1
1
1
1
1
1
1
1
1.38938e-05
1.1463e-05
1.26423e-05
1.03635e-05
0.999981
0.999994
0.999989
0.999993
)
;

boundaryField
{
    top_fluid_surface
    {
        type            inletOutlet;
        inletValue      uniform 0;
        value           nonuniform List<scalar> 
64
(
0
0
0
0
0
0
0
1.21311e-05
0
0
1.02612e-05
0
1.13108e-05
0
0
1.17711e-05
1.01927e-05
9.99803e-06
1.19648e-05
1.04697e-05
0
1.13892e-05
1.11679e-05
9.52384e-06
1.25404e-05
9.60785e-06
1.10676e-05
1.10629e-05
1.08359e-05
0
1.15133e-05
1.07313e-05
1.1929e-05
0
0
1.07092e-05
1.13375e-05
1.12209e-05
0
0
1.22827e-05
0
0
0
1.28533e-05
1.14953e-05
0
0
0
0
1.10206e-05
1.20046e-05
0
1.33348e-05
1.23668e-05
0
1.10536e-05
1.12774e-05
0
0
0
1.1463e-05
0
1.03635e-05
)
;
    }
    bottom_fluid_surface
    {
        type            zeroGradient;
    }
    lateral_surface_1
    {
        type            zeroGradient;
    }
    lateral_surface_2
    {
        type            zeroGradient;
    }
    lateral_surface_3
    {
        type            zeroGradient;
    }
    lateral_surface_4
    {
        type            zeroGradient;
    }
}


// ************************************************************************* //
