/*--------------------------------*- C++ -*----------------------------------*\
| =========                 |                                                 |
| \\      /  F ield         | OpenFOAM: The Open Source CFD Toolbox           |
|  \\    /   O peration     | Version:  v1612+                                |
|   \\  /    A nd           | Web:      www.OpenFOAM.com                      |
|    \\/     M anipulation  |                                                 |
\*---------------------------------------------------------------------------*/
FoamFile
{
    version     2.0;
    format      ascii;
    class       surfaceScalarField;
    location    "4.9";
    object      alphaPhi;
}
// * * * * * * * * * * * * * * * * * * * * * * * * * * * * * * * * * * * * * //

dimensions      [0 3 -1 0 0 0 0];

internalField   nonuniform List<scalar> 
816
(
-3.52568e-06
-6.42816e-06
2.57889e-06
-4.14247e-06
-7.80088e-06
1.93181e-05
2.83929e-06
3.33925e-06
-8.76167e-07
7.14213e-06
-1.59717e-05
-5.6773e-06
3.89949e-06
4.6319e-06
5.85978e-06
-1.51439e-05
-2.81635e-06
6.2674e-06
5.8288e-06
-1.21232e-05
1.20896e-09
1.32071e-09
-6.53194e-06
-1.61161e-10
1.89136e-09
1.20439e-09
1.38353e-06
7.54837e-10
1.45315e-09
-6.9422e-10
2.74731e-06
1.26842e-09
2.2671e-09
1.7753e-09
-2.85376e-06
-3.54321e-09
3.49784e-09
2.84947e-09
-7.41001e-06
-9.87646e-10
2.09437e-09
3.27271e-09
-7.8506e-07
-1.82001e-09
3.16712e-09
2.94556e-09
-4.08257e-07
1.38794e-09
1.8349e-09
3.32209e-09
-5.25718e-06
1.48637e-09
-3.14198e-09
-7.95904e-10
-3.53747e-07
4.45562e-09
2.94333e-09
1.77816e-09
-3.87965e-06
1.61558e-09
2.49324e-10
-1.03003e-09
-3.19836e-06
1.70792e-09
-4.54403e-09
-2.88976e-06
-3.89531e-10
1.01503e-09
5.65294e-06
1.14716e-07
-2.34983e-05
-4.627e-06
1.32141e-05
1.31989e-05
-1.90117e-05
6.76502e-07
1.57766e-05
4.21474e-06
-3.42703e-06
4.13132e-06
1.92831e-05
-1.3826e-06
8.02185e-06
-6.50729e-06
1.41384e-06
-3.57233e-06
4.66607e-06
-3.97389e-06
-2.27115e-07
5.81402e-06
-1.84318e-05
1.08799e-06
5.78598e-06
4.75351e-06
-1.25741e-05
-2.20215e-06
1.53113e-05
-9.78076e-09
6.37388e-06
-7.69547e-06
9.11488e-07
4.30438e-06
-2.87766e-05
6.80452e-06
1.56979e-05
1.2853e-05
-2.22782e-05
-5.55324e-07
8.11237e-06
2.28862e-07
1.01809e-05
-9.30804e-07
-2.7754e-07
-5.74198e-06
4.06456e-06
-2.60648e-06
-3.51376e-06
-3.57942e-06
-1.17948e-05
-2.03291e-06
-7.11626e-06
-9.3663e-06
-2.70026e-06
-1.03717e-06
-1.84732e-06
-2.80533e-07
-7.3765e-06
1.50542e-06
2.60164e-06
1.99922e-06
1.45318e-06
2.66e-06
-7.54819e-07
1.93948e-07
-8.60489e-06
-3.75955e-06
-4.80745e-06
-8.54375e-08
-6.10095e-06
8.29112e-08
1.07043e-07
2.14109e-06
7.94169e-06
-3.39456e-06
-1.39079e-05
-3.29306e-06
-8.07345e-06
-9.61086e-06
-1.08533e-05
-5.81935e-07
-5.41261e-06
4.72036e-06
-2.8835e-06
-2.27595e-06
-8.5436e-06
-3.90723e-06
-1.4446e-06
-3.22495e-06
1.64867e-06
-2.63236e-06
-2.15113e-06
1.17794e-06
2.37893e-06
-2.00917e-07
2.3483e-06
-3.41737e-06
2.39873e-06
2.39338e-06
1.26561e-06
-1.69019e-06
3.25832e-06
2.02919e-06
-1.1561e-06
-3.31341e-06
-1.96899e-06
-3.69827e-06
-4.27004e-06
-2.05467e-06
-1.8101e-06
-6.28499e-07
-8.51429e-07
-4.28734e-06
-3.48172e-07
5.43272e-07
1.35986e-06
-1.22665e-07
9.00429e-07
1.451e-07
4.81234e-07
2.04522e-07
-2.36437e-06
-2.86659e-06
-2.66834e-06
-4.22659e-08
-3.96207e-07
-2.19577e-06
1.37833e-08
4.4923e-06
-6.3759e-09
-1.81461e-06
-2.68274e-06
-5.07248e-06
-4.33271e-06
-6.12379e-06
-9.03691e-07
-3.25015e-06
-3.51351e-06
-1.80779e-06
1.29987e-06
-5.32808e-06
-3.13913e-06
-6.19626e-07
-3.04129e-09
1.32563e-09
2.12014e-06
-2.09316e-10
-3.0194e-10
1.13396e-06
-4.40815e-10
-5.0275e-10
2.27699e-06
1.69128e-09
-8.14576e-10
-4.18811e-06
9.42413e-10
-5.28727e-10
-1.0104e-06
-5.55553e-10
-4.83882e-09
-1.89596e-09
-2.1592e-06
-2.07337e-09
-5.54207e-10
-2.23379e-06
-7.39469e-09
-1.62786e-09
-3.22257e-07
-5.58351e-09
2.99083e-10
1.01513e-06
-1.64353e-09
1.8541e-09
-3.97294e-06
-2.12327e-09
-5.84929e-10
2.59692e-09
1.64306e-06
9.26302e-11
2.98803e-10
-2.58743e-06
-2.81667e-09
1.93052e-09
-2.0091e-05
2.59848e-11
-3.35769e-10
-3.91406e-06
3.96967e-11
-2.26945e-10
-5.98737e-06
-1.06811e-09
-2.01935e-09
-1.54469e-09
-7.6302e-06
6.56802e-10
-3.37635e-09
-7.97166e-06
-7.53713e-10
-1.47361e-09
4.73008e-06
8.94903e-10
-6.49385e-10
2.89807e-06
5.79951e-11
8.59052e-11
-1.46371e-09
-6.11793e-10
-7.89306e-06
-4.20777e-06
1.93864e-05
1.96981e-06
2.60914e-06
-4.67065e-06
-5.40835e-06
8.98193e-06
-1.04329e-05
1.34504e-05
9.96556e-07
-2.09445e-06
8.53535e-06
8.95235e-06
1.91787e-05
-1.2341e-05
-1.60604e-05
-1.24032e-07
2.63461e-05
2.61514e-07
-6.22349e-06
1.66039e-05
-2.0183e-05
-2.36611e-05
4.18975e-05
-2.92233e-05
-1.94069e-05
4.5082e-06
-3.93421e-06
8.28264e-06
-1.6196e-05
3.09286e-06
-1.59537e-05
5.13412e-06
1.44068e-05
9.14705e-07
-7.3758e-06
2.46333e-05
-1.24724e-05
7.24745e-07
-3.16606e-05
-2.16572e-06
1.00922e-06
1.35778e-05
-9.47739e-06
1.36293e-05
5.25987e-06
-1.37295e-05
-3.66669e-06
8.20673e-07
9.14567e-06
8.57771e-06
-1.45381e-05
2.00176e-05
-1.44849e-05
-1.02665e-05
1.87598e-05
-6.12475e-06
-2.05414e-06
4.92517e-06
-4.31204e-06
1.74091e-05
-3.07727e-06
-1.35493e-05
5.61087e-06
2.26378e-06
1.03471e-05
-7.37381e-06
1.97831e-06
-2.41101e-06
-6.69441e-07
-5.2276e-07
-4.51198e-06
-6.11905e-06
8.783e-07
-1.08343e-06
-2.69257e-06
-5.83789e-06
9.08941e-06
8.06889e-06
8.73588e-06
-1.07281e-06
1.18096e-05
2.39261e-06
1.34803e-06
7.27517e-06
8.90673e-06
1.03327e-05
1.8979e-05
1.31894e-05
7.61702e-06
2.00412e-06
1.46657e-06
-1.12222e-06
-6.80347e-06
-4.94114e-06
4.29597e-06
2.81133e-06
6.68747e-06
-9.83548e-07
9.53175e-06
1.14457e-05
6.5499e-06
-1.03426e-06
-1.40901e-05
9.40469e-07
-2.00376e-06
6.04433e-06
5.21263e-06
-6.18248e-06
2.27403e-06
5.64165e-06
1.53048e-06
-3.90178e-06
4.06607e-06
-5.23198e-06
2.40638e-07
9.02076e-06
6.27686e-06
2.8897e-06
8.79543e-06
4.43556e-06
1.82106e-06
2.77163e-06
-6.76369e-07
8.07056e-06
4.4624e-06
8.96846e-06
4.1599e-06
1.04532e-06
3.79166e-06
-3.98373e-06
1.72341e-06
-7.68024e-07
-1.17349e-06
-3.99019e-07
1.06552e-07
-4.55092e-06
7.24805e-07
-6.15945e-07
-2.44413e-06
-2.90313e-06
2.49115e-06
4.56443e-06
5.66152e-06
-5.44541e-07
4.01235e-06
1.15307e-06
3.85535e-07
2.61987e-06
5.0872e-06
5.49319e-06
5.78188e-06
8.23976e-06
4.12785e-06
4.02638e-07
6.13184e-07
-5.5205e-07
-7.10918e-07
-3.53235e-06
2.15714e-06
1.60083e-06
2.22802e-06
-5.43799e-07
5.52462e-06
3.52665e-06
3.60124e-06
-8.64695e-07
-3.85981e-06
6.60652e-07
-1.22614e-06
1.46364e-06
2.26092e-06
-3.29241e-06
5.3815e-07
2.84015e-06
1.00198e-06
-2.58101e-06
1.72772e-06
-3.44681e-06
-4.13464e-07
2.65201e-06
3.31205e-06
1.13508e-06
2.93003e-06
2.52971e-06
8.31467e-07
7.44289e-07
-7.77963e-07
2.1885e-06
2.60921e-06
5.15548e-06
-5.38162e-07
-8.79659e-07
4.85532e-07
-1.21344e-06
1.51854e-06
-1.7215e-07
4.77678e-07
-2.31493e-06
1.3722e-06
1.33879e-06
-1.23909e-06
2.48145e-06
-1.25453e-06
-1.14528e-06
-7.96918e-07
-1.69651e-06
-1.53312e-06
-1.03755e-07
-1.70332e-07
-1.76982e-06
-6.3388e-08
3.22433e-07
7.0994e-08
-8.94603e-07
4.93749e-07
-1.50339e-06
-1.5868e-06
4.31455e-07
3.46691e-07
-4.37982e-09
1.799e-06
-1.971e-06
-1.04385e-07
-2.27583e-06
-3.72652e-06
-1.58538e-07
-2.54916e-06
-1.07166e-06
-3.48972e-06
-8.10339e-07
1.92358e-06
5.86529e-07
-2.20827e-06
5.99173e-07
-2.40346e-07
9.39166e-07
-1.76645e-06
7.79639e-07
-6.23291e-07
-1.31757e-06
1.68748e-06
2.90097e-06
-8.58241e-08
1.01387e-06
4.68202e-07
2.38918e-06
2.64646e-06
2.70891e-06
1.41989e-06
1.2704e-07
7.66752e-07
-1.38164e-06
1.33702e-06
1.62244e-06
-2.05981e-07
3.30911e-06
2.17973e-06
4.8386e-07
7.53509e-07
-4.91043e-08
1.88777e-06
-2.17504e-06
1.87552e-06
7.76321e-07
-1.70577e-06
-1.03238e-06
-7.96808e-07
1.59878e-06
2.23151e-07
8.50835e-07
8.55522e-08
8.07119e-08
8.48286e-07
2.01539e-06
-2.04658e-10
-1.67901e-09
-3.9584e-06
1.79601e-11
7.29807e-06
1.78984e-09
4.25121e-06
-4.61548e-11
-6.35664e-06
-1.39574e-09
-9.18476e-06
-4.62718e-09
-6.20747e-06
6.87024e-10
2.43586e-06
-4.28965e-10
-3.09729e-06
-4.04294e-09
-1.06521e-05
1.70058e-09
1.47761e-06
3.90141e-09
2.18486e-06
4.16509e-09
-9.36775e-06
9.36514e-10
2.56787e-06
1.57423e-10
1.77045e-10
3.67196e-10
3.53322e-06
2.40676e-09
-2.9651e-07
2.58628e-09
-1.54553e-05
3.93896e-09
-7.0818e-06
6.76655e-10
-4.57101e-06
-4.87992e-10
2.60001e-06
6.57616e-10
-1.09545e-05
-1.3424e-09
1.8714e-07
-7.62326e-10
-4.10778e-06
-2.84359e-10
-4.35012e-08
-1.26304e-09
-1.11937e-06
-1.84114e-09
5.23981e-06
-2.14109e-09
3.2214e-07
-1.31065e-05
-3.55492e-07
-2.71017e-06
-8.2325e-06
5.37909e-07
3.14187e-05
1.78053e-05
-5.77445e-06
5.01847e-06
1.98526e-05
-1.40693e-05
1.5213e-05
-2.17975e-05
-1.30792e-05
1.38167e-05
-2.56258e-05
1.27465e-05
-1.87059e-05
-1.55527e-05
1.41638e-05
-1.02555e-05
-1.99549e-05
9.77905e-06
-4.05088e-05
1.26381e-05
-1.28438e-05
3.73867e-07
2.48185e-05
-7.67056e-06
2.25545e-05
5.54133e-06
-1.50553e-05
6.80403e-06
2.92092e-06
-3.29682e-06
-1.20891e-05
-3.69383e-06
-9.52597e-06
-6.40619e-06
-1.25955e-05
-5.68713e-06
-2.84689e-06
1.91849e-05
-2.57456e-05
8.1091e-06
8.77337e-06
-1.23079e-05
2.23439e-05
-4.23532e-06
-2.33782e-05
-4.64964e-06
-7.40395e-06
-1.16565e-06
1.21708e-05
5.93879e-06
-1.79036e-05
-1.42545e-05
-6.63343e-06
6.28151e-06
-3.41454e-06
2.79888e-06
1.46257e-05
-1.37923e-06
-2.26826e-06
2.41153e-06
9.93989e-06
7.52337e-06
7.40759e-06
7.98967e-06
-5.47786e-06
-5.34578e-06
-1.22897e-05
-5.6994e-06
-9.61552e-06
4.52261e-06
6.33331e-06
2.66789e-06
-9.19456e-06
-6.2432e-06
-1.84053e-05
-1.14206e-05
-6.19221e-06
-3.99793e-06
1.24628e-05
7.44436e-06
1.11255e-05
3.32893e-06
-6.59965e-06
4.22205e-06
1.04679e-06
4.31606e-06
-5.63196e-06
1.25983e-06
-5.52775e-06
-4.2238e-07
-5.70135e-06
3.75059e-06
-1.35151e-06
-1.12404e-05
-1.07517e-05
-3.67244e-06
2.7494e-06
3.62802e-06
9.80913e-06
-2.9128e-06
-1.05559e-05
-2.89597e-06
-2.97464e-06
2.90372e-06
5.70281e-06
1.39739e-06
-7.42514e-06
-6.59299e-06
-3.66248e-06
3.70081e-06
-8.59579e-07
1.70208e-06
5.27726e-06
-5.60228e-07
-1.17914e-06
1.66756e-06
3.15977e-06
5.22656e-06
1.40604e-06
5.44077e-06
-1.12658e-06
-3.01446e-06
-3.8355e-06
-3.54412e-06
-3.42215e-06
2.68498e-06
1.25941e-06
1.5201e-06
-2.93898e-06
-4.36297e-06
-4.27197e-06
-7.89371e-06
-2.00534e-06
-2.69893e-06
3.75019e-06
5.12437e-06
3.31219e-06
2.40083e-06
-1.69346e-06
2.54742e-06
3.64725e-07
2.56814e-06
-2.04437e-06
-3.04039e-08
-2.27145e-06
-6.74618e-07
-2.79319e-06
1.71069e-06
-9.01479e-07
-5.51239e-06
-3.48671e-06
-2.12096e-06
3.49468e-07
2.03475e-06
2.20412e-06
-2.04237e-06
-3.1527e-06
-2.2706e-06
-1.85817e-07
1.56926e-06
1.09621e-06
1.04695e-06
-1.74081e-06
-1.85406e-06
-1.74637e-06
1.72877e-06
1.31595e-06
-1.02903e-07
1.29268e-06
2.07822e-06
2.64401e-06
-1.19195e-06
-1.71246e-06
5.60633e-07
1.2043e-08
-1.54513e-06
-3.40608e-06
-1.02938e-06
2.28192e-06
1.92954e-06
2.08526e-06
2.20853e-06
6.80504e-07
-2.33076e-07
7.40569e-07
-2.74448e-06
-1.62779e-06
-4.48436e-07
-1.99286e-06
-1.32022e-06
-1.46477e-07
1.26843e-07
-1.74953e-09
3.83253e-09
-8.76204e-06
1.13576e-10
-9.71127e-06
1.31348e-09
9.26925e-07
-9.93789e-06
8.32736e-06
1.20155e-05
-3.01837e-06
9.99316e-06
)
;

boundaryField
{
    top_fluid_surface
    {
        type            calculated;
        value           nonuniform List<scalar> 
64
(
0
0
0
0
0
0
0
9.55915e-10
0
0
3.82701e-09
0
1.07931e-09
0
0
7.61131e-10
3.88164e-09
4.55056e-09
7.38123e-10
3.95277e-09
0
8.93246e-10
2.10739e-09
4.9234e-09
3.46934e-10
5.12096e-09
2.66963e-09
3.44944e-09
3.4166e-09
0
4.43808e-11
2.29321e-09
2.54044e-10
0
0
3.15533e-09
2.41239e-09
1.92329e-09
0
0
7.47072e-10
0
0
0
9.04365e-10
9.78427e-10
0
0
0
0
2.99918e-09
2.73469e-10
0
8.32862e-11
1.12188e-09
0
1.74805e-09
3.57531e-10
0
0
0
2.61896e-09
0
4.50028e-09
)
;
    }
    bottom_fluid_surface
    {
        type            calculated;
        value           uniform 0;
    }
    lateral_surface_1
    {
        type            calculated;
        value           uniform 0;
    }
    lateral_surface_2
    {
        type            calculated;
        value           uniform 0;
    }
    lateral_surface_3
    {
        type            calculated;
        value           uniform 0;
    }
    lateral_surface_4
    {
        type            calculated;
        value           uniform 0;
    }
}


// ************************************************************************* //
