/*--------------------------------*- C++ -*----------------------------------*\
| =========                 |                                                 |
| \\      /  F ield         | OpenFOAM: The Open Source CFD Toolbox           |
|  \\    /   O peration     | Version:  v1612+                                |
|   \\  /    A nd           | Web:      www.OpenFOAM.com                      |
|    \\/     M anipulation  |                                                 |
\*---------------------------------------------------------------------------*/
FoamFile
{
    version     2.0;
    format      ascii;
    class       surfaceScalarField;
    location    "4.9";
    object      phi;
}
// * * * * * * * * * * * * * * * * * * * * * * * * * * * * * * * * * * * * * //

dimensions      [0 3 -1 0 0 0 0];

internalField   nonuniform List<scalar> 
816
(
-3.59635e-06
-6.45065e-06
2.57788e-06
-4.11441e-06
-7.87785e-06
1.94615e-05
2.89348e-06
3.34815e-06
-9.00959e-07
7.20663e-06
-1.61428e-05
-5.68185e-06
3.95021e-06
4.64836e-06
5.94344e-06
-1.53101e-05
-2.81479e-06
6.34748e-06
5.85266e-06
-1.21683e-05
8.7262e-05
0.000101392
-8.50536e-06
-1.94245e-06
0.000128615
9.46861e-05
5.31601e-06
6.41123e-05
0.000105226
-5.77212e-05
1.10956e-05
0.000103901
0.000176689
0.000133653
-2.56061e-06
-0.000293592
0.000262598
0.000201521
2.73632e-07
-8.67699e-05
0.00015874
0.000256688
-1.32596e-06
-0.000115061
0.000256084
0.000213628
-2.18083e-06
0.000103183
0.000133197
0.000275694
-5.92521e-06
0.000118282
-0.000244396
-5.71293e-05
-3.60601e-06
0.000339751
0.000222828
0.000134842
-5.82305e-06
0.000119402
1.84223e-05
-7.82215e-05
-3.4778e-06
0.000171811
-0.000330961
-4.41008e-06
-3.16427e-05
9.41205e-05
5.67401e-06
3.05567e-07
-2.32559e-05
-4.58374e-06
1.32872e-05
1.33271e-05
-1.88533e-05
7.72081e-07
1.59424e-05
4.06541e-06
-3.35156e-06
4.48003e-06
1.9416e-05
-1.19998e-06
8.22262e-06
-6.5612e-06
1.54051e-06
-3.60881e-06
4.53119e-06
-4.12877e-06
-2.52842e-07
5.93809e-06
-1.85225e-05
1.03412e-06
5.8927e-06
4.69251e-06
-1.26855e-05
-2.17482e-06
1.52999e-05
-4.34283e-08
6.46229e-06
-7.55399e-06
7.46656e-07
4.2159e-06
-2.86702e-05
7.21088e-06
1.57346e-05
1.30684e-05
-2.21246e-05
-4.19589e-07
8.17601e-06
3.66056e-07
1.02561e-05
-9.04925e-07
-3.51491e-07
-5.80449e-06
4.14243e-06
-2.13538e-06
-3.55192e-06
-3.42871e-06
-1.1719e-05
-1.97736e-06
-7.12931e-06
-9.27823e-06
-2.64571e-06
-1.06354e-06
-1.77111e-06
-2.17135e-07
-7.42803e-06
1.56044e-06
2.69753e-06
2.00277e-06
1.49168e-06
2.60434e-06
-8.1586e-07
1.76932e-07
-8.64791e-06
-3.77117e-06
-4.78024e-06
-1.38377e-07
-6.13762e-06
1.25097e-07
7.35423e-08
2.18113e-06
8.02386e-06
-3.44362e-06
-1.38769e-05
-3.19019e-06
-8.08432e-06
-9.56641e-06
-1.07978e-05
-5.42654e-07
-5.34151e-06
4.75159e-06
-2.83248e-06
-2.32689e-06
-8.45778e-06
-3.78414e-06
-1.48066e-06
-3.24302e-06
1.62905e-06
-2.62023e-06
-2.16186e-06
1.20871e-06
2.3661e-06
-2.23454e-07
2.37666e-06
-3.42678e-06
2.43088e-06
2.4083e-06
1.29167e-06
-1.70247e-06
3.29244e-06
2.04787e-06
-1.20386e-06
-3.25367e-06
-1.95517e-06
-3.67347e-06
-4.30207e-06
-2.03663e-06
-1.77234e-06
-6.30126e-07
-8.03179e-07
-4.30872e-06
-3.29935e-07
5.88411e-07
1.35107e-06
-8.93918e-08
9.14617e-07
1.13011e-07
4.66789e-07
2.04699e-07
-2.37626e-06
-2.86533e-06
-2.68529e-06
-5.18718e-08
-3.66328e-07
-2.20726e-06
3.08672e-09
4.55693e-06
5.51262e-09
-1.83728e-06
-2.62955e-06
-5.07273e-06
-4.32165e-06
-6.11021e-06
-8.82607e-07
-3.22665e-06
-3.49721e-06
-1.78719e-06
1.31135e-06
-5.32569e-06
-3.10531e-06
-6.30793e-07
-0.000243342
0.000107628
1.94193e-06
6.70926e-06
-2.68274e-05
5.75584e-06
-2.4792e-05
-4.64097e-05
8.63563e-06
0.0001395
-8.19318e-05
-6.70072e-06
8.09657e-05
-5.45094e-05
-1.88657e-06
-4.93281e-05
-0.00035975
-0.000158539
-2.10522e-06
-0.000171677
-4.86516e-05
-3.36137e-06
-0.00045705
-0.000124002
-9.45397e-07
-0.000382427
2.4357e-05
3.57522e-06
-0.000134166
0.000168334
6.98417e-07
-0.000193959
-3.74566e-05
0.000221149
5.7725e-06
-5.73301e-06
1.58473e-05
1.79656e-06
-0.000210539
0.0001585
-1.56108e-05
-2.30246e-05
-3.11163e-05
-3.978e-06
5.94705e-06
-1.53624e-05
2.81666e-06
-8.16131e-05
-0.000174766
-0.000142087
-1.30617e-05
6.77803e-05
-0.000264859
-9.16009e-06
-5.62618e-05
-0.000118427
1.84742e-05
7.43711e-05
-6.50192e-05
7.26767e-06
4.33835e-06
6.38184e-06
-0.000117262
-4.31613e-05
-8.1883e-06
-4.30027e-06
1.90012e-05
1.7922e-06
2.6081e-06
-4.64347e-06
-5.34349e-06
9.21674e-06
-1.03685e-05
1.36714e-05
9.62783e-07
-2.27179e-06
8.5789e-06
8.78264e-06
1.91588e-05
-1.22845e-05
-1.63599e-05
-2.4372e-07
2.65235e-05
2.35921e-07
-6.24496e-06
1.67619e-05
-2.03098e-05
-2.36098e-05
4.21265e-05
-2.94323e-05
-1.93034e-05
4.48177e-06
-4.09493e-06
8.24279e-06
-1.63399e-05
3.22062e-06
-1.60094e-05
5.25478e-06
1.4548e-05
7.57729e-07
-7.28469e-06
2.4608e-05
-1.25913e-05
6.88745e-07
-3.1958e-05
-2.5197e-06
8.59744e-07
1.35841e-05
-9.20586e-06
1.3471e-05
5.27832e-06
-1.33747e-05
-3.791e-06
7.37346e-07
9.34344e-06
8.63415e-06
-1.45207e-05
2.02143e-05
-1.44388e-05
-9.90546e-06
1.87026e-05
-6.07404e-06
-2.33299e-06
4.55985e-06
-4.37353e-06
1.7542e-05
-2.90956e-06
-1.35964e-05
5.51769e-06
2.24467e-06
1.02388e-05
-7.44294e-06
1.93813e-06
-2.39498e-06
-6.40698e-07
-5.12646e-07
-4.47306e-06
-6.0905e-06
8.49761e-07
-1.1715e-06
-2.67915e-06
-5.92257e-06
9.10557e-06
8.13362e-06
8.69123e-06
-1.08407e-06
1.18981e-05
2.36103e-06
1.39006e-06
7.3509e-06
8.94318e-06
1.04465e-05
1.90689e-05
1.31885e-05
7.73774e-06
2.00571e-06
1.42724e-06
-1.18875e-06
-6.86908e-06
-4.86428e-06
4.32434e-06
2.83139e-06
6.74728e-06
-9.89412e-07
9.5627e-06
1.14448e-05
6.56754e-06
-1.03853e-06
-1.4247e-05
9.19294e-07
-2.01075e-06
6.0426e-06
5.33032e-06
-6.30851e-06
2.27174e-06
5.79632e-06
1.51139e-06
-3.91794e-06
4.12038e-06
-5.23669e-06
3.44371e-07
9.08664e-06
6.32754e-06
2.98635e-06
8.78786e-06
4.45011e-06
1.76038e-06
2.6793e-06
-6.70167e-07
8.10742e-06
4.47074e-06
8.97869e-06
4.1213e-06
1.05508e-06
3.76335e-06
-4.0188e-06
1.71173e-06
-7.66984e-07
-1.1716e-06
-3.91291e-07
1.23657e-07
-4.53131e-06
7.05572e-07
-6.3587e-07
-2.4342e-06
-2.94878e-06
2.4976e-06
4.61506e-06
5.64746e-06
-5.51162e-07
4.04955e-06
1.14563e-06
4.14481e-07
2.64975e-06
5.0959e-06
5.55581e-06
5.81872e-06
8.23368e-06
4.18578e-06
3.9613e-07
6.19551e-07
-5.86596e-07
-7.40432e-07
-3.51026e-06
2.16465e-06
1.62583e-06
2.23338e-06
-5.42294e-07
5.5696e-06
3.52338e-06
3.62046e-06
-8.65141e-07
-3.91499e-06
6.60262e-07
-1.22178e-06
1.44964e-06
2.3285e-06
-3.35879e-06
5.17922e-07
2.91242e-06
9.9225e-07
-2.5879e-06
1.74327e-06
-3.44715e-06
-3.8217e-07
2.67036e-06
3.33181e-06
1.16141e-06
2.92377e-06
2.55183e-06
8.14184e-07
7.13025e-07
-7.80214e-07
2.19044e-06
2.61408e-06
5.17903e-06
-5.62943e-07
-8.89226e-07
4.88243e-07
-1.19683e-06
1.53521e-06
-1.7786e-07
4.57354e-07
-2.33431e-06
1.38434e-06
1.35437e-06
-1.25669e-06
2.50475e-06
-1.29554e-06
-1.10776e-06
-7.826e-07
-1.72064e-06
-1.52296e-06
-1.06292e-07
-1.47379e-07
-1.79487e-06
-4.35279e-08
3.10454e-07
9.59827e-08
-9.21833e-07
4.90583e-07
-1.50404e-06
-1.56568e-06
4.3262e-07
3.64457e-07
-8.79075e-09
1.83256e-06
-1.98244e-06
-6.85152e-08
-2.27307e-06
-3.71671e-06
-1.3846e-07
-2.54291e-06
-1.05723e-06
-3.48831e-06
-7.88925e-07
1.90015e-06
5.98184e-07
-2.22026e-06
5.85775e-07
-2.34448e-07
9.38451e-07
-1.7523e-06
7.61464e-07
-6.04694e-07
-1.34281e-06
1.71345e-06
2.89003e-06
-8.74835e-08
1.00382e-06
4.88616e-07
2.39048e-06
2.69152e-06
2.70454e-06
1.46152e-06
1.39131e-07
7.53584e-07
-1.37112e-06
1.35392e-06
1.62976e-06
-1.95568e-07
3.33088e-06
2.19356e-06
4.93155e-07
7.58529e-07
-4.28386e-08
1.92232e-06
-2.20865e-06
1.91762e-06
7.84786e-07
-1.70326e-06
-1.02222e-06
-7.78124e-07
1.61147e-06
2.37938e-07
8.61448e-07
8.28044e-08
8.7013e-08
8.47309e-07
2.02469e-06
1.99063e-05
-0.000132196
-1.25571e-05
-3.52233e-05
3.23114e-05
0.000132973
1.67642e-05
-1.16751e-05
-6.93581e-06
-0.000123335
-1.29041e-05
-0.000333772
-8.46505e-06
4.6008e-05
9.83764e-06
-3.84405e-05
-3.57154e-06
-0.00024613
-1.39193e-05
0.000107187
5.70791e-06
0.000278658
9.13767e-06
0.000297247
-8.17324e-07
0.00012259
1.04803e-05
9.08414e-06
1.33671e-05
2.84409e-05
1.36615e-05
0.000167378
4.42384e-06
0.000165242
-4.483e-06
0.000311198
-4.89926e-06
5.98951e-05
-7.28785e-06
-4.76416e-05
8.97965e-06
1.29476e-05
5.37849e-06
-7.21139e-05
2.20059e-06
-6.30776e-05
-6.85487e-06
-1.93978e-05
-1.00156e-06
-0.000109328
-8.66111e-07
-0.000158369
1.82224e-05
-0.000172185
2.72825e-06
-1.65033e-05
-4.42497e-07
-2.97695e-06
-8.39694e-06
5.43922e-07
3.15495e-05
1.7923e-05
-5.80544e-06
5.15428e-06
1.98649e-05
-1.41382e-05
1.5141e-05
-2.19831e-05
-1.32046e-05
1.36777e-05
-2.58135e-05
1.26618e-05
-1.85792e-05
-1.56464e-05
1.43789e-05
-1.02819e-05
-1.99786e-05
9.91977e-06
-4.04377e-05
1.32719e-05
-1.26055e-05
6.31713e-07
2.44062e-05
-7.87931e-06
2.24274e-05
5.39695e-06
-1.50752e-05
6.8262e-06
3.01982e-06
-3.22161e-06
-1.21492e-05
-3.21428e-06
-9.37418e-06
-6.1301e-06
-1.28935e-05
-6.06362e-06
-3.31919e-06
1.90944e-05
-2.59883e-05
7.92482e-06
8.82307e-06
-1.22266e-05
2.25318e-05
-4.13459e-06
-2.33894e-05
-4.41877e-06
-7.41609e-06
-1.43662e-06
1.1932e-05
5.65885e-06
-1.7976e-05
-1.40688e-05
-6.64574e-06
6.21371e-06
-3.49114e-06
2.78338e-06
1.46707e-05
-1.41285e-06
-2.25036e-06
2.41628e-06
9.94503e-06
7.52839e-06
7.34961e-06
8.01218e-06
-5.55425e-06
-5.46288e-06
-1.23383e-05
-5.76905e-06
-9.58202e-06
4.55895e-06
6.41453e-06
2.69829e-06
-9.1692e-06
-6.18536e-06
-1.83581e-05
-1.12098e-05
-6.14322e-06
-3.98844e-06
1.23443e-05
7.38906e-06
1.10517e-05
3.26495e-06
-6.62035e-06
4.21571e-06
1.09331e-06
4.31818e-06
-5.67675e-06
1.37747e-06
-5.50436e-06
-3.10268e-07
-5.86523e-06
3.71738e-06
-1.53696e-06
-1.13684e-05
-1.08947e-05
-3.77978e-06
2.78064e-06
3.65573e-06
9.87038e-06
-2.85042e-06
-1.05472e-05
-2.79781e-06
-3.00025e-06
2.82189e-06
5.65399e-06
1.3008e-06
-7.47036e-06
-6.55289e-06
-3.69182e-06
3.69002e-06
-8.75111e-07
1.68071e-06
5.27436e-06
-5.59158e-07
-1.1859e-06
1.6879e-06
3.16462e-06
5.21979e-06
1.3834e-06
5.43002e-06
-1.14684e-06
-3.05668e-06
-3.85028e-06
-3.58038e-06
-3.41079e-06
2.69163e-06
1.29185e-06
1.551e-06
-2.92479e-06
-4.31345e-06
-4.25214e-06
-7.83366e-06
-2.00319e-06
-2.6888e-06
3.70971e-06
5.1028e-06
3.27274e-06
2.37877e-06
-1.71827e-06
2.57216e-06
3.6626e-07
2.5787e-06
-2.06215e-06
1.2142e-08
-2.27176e-06
-6.44416e-07
-2.86251e-06
1.71751e-06
-9.65916e-07
-5.61595e-06
-3.55976e-06
-2.1646e-06
3.50929e-07
2.03981e-06
2.22651e-06
-2.02061e-06
-3.14892e-06
-2.25257e-06
-2.03129e-07
1.56096e-06
1.06891e-06
1.02368e-06
-1.75762e-06
-1.83838e-06
-1.75718e-06
1.72897e-06
1.2971e-06
-1.23827e-07
1.28861e-06
2.06693e-06
2.63372e-06
-1.21563e-06
-1.73447e-06
5.64252e-07
3.64658e-08
-1.50323e-06
-3.36292e-06
-1.01525e-06
2.26728e-06
1.91297e-06
2.08737e-06
2.22232e-06
7.15203e-07
-2.11562e-07
7.55121e-07
-2.79735e-06
-1.65308e-06
-4.4714e-07
-1.97916e-06
-1.31226e-06
-1.51105e-07
1.11635e-07
-0.000154485
0.000274158
-1.2432e-05
7.54755e-06
-1.30639e-05
0.000107231
3.68111e-06
-1.00758e-05
8.18549e-06
1.20799e-05
-2.84327e-06
1.01787e-05
)
;

boundaryField
{
    top_fluid_surface
    {
        type            calculated;
        value           nonuniform List<scalar> 
64
(
-0.000306324
-0.000182377
-0.00013884
-0.000157866
-0.000138592
-0.000196373
-0.000209667
7.32241e-05
-0.000225102
-0.000319174
0.000376274
-3.60677e-05
9.48208e-05
-0.000194778
-6.50762e-05
6.58617e-05
0.000384206
0.000454824
5.80919e-05
0.000366793
-0.000150549
8.76775e-05
0.000179693
0.000522497
1.66575e-05
0.000523743
0.00024158
0.000293177
0.000313166
-6.64185e-05
2.532e-05
0.000227651
7.65109e-06
3.22861e-05
-0.000216234
0.000289551
0.00020588
0.000169704
-0.000389786
-0.000271862
5.0254e-05
-0.000816458
-0.000562101
-0.000150635
-2.6831e-05
7.11351e-05
-7.42345e-05
-0.000145696
-0.000200096
-0.000167219
0.000238702
1.24838e-05
-6.31063e-05
-8.62086e-05
3.98468e-05
-9.7596e-05
0.000165836
6.15371e-05
-3.17436e-05
-0.000278007
-0.000311227
0.000218769
-6.03244e-05
0.000414026
)
;
    }
    bottom_fluid_surface
    {
        type            calculated;
        value           uniform 0;
    }
    lateral_surface_1
    {
        type            calculated;
        value           uniform 0;
    }
    lateral_surface_2
    {
        type            calculated;
        value           uniform 0;
    }
    lateral_surface_3
    {
        type            calculated;
        value           uniform 0;
    }
    lateral_surface_4
    {
        type            calculated;
        value           uniform 0;
    }
}


// ************************************************************************* //
