/*--------------------------------*- C++ -*----------------------------------*\
| =========                 |                                                 |
| \\      /  F ield         | OpenFOAM: The Open Source CFD Toolbox           |
|  \\    /   O peration     | Version:  v1612+                                |
|   \\  /    A nd           | Web:      www.OpenFOAM.com                      |
|    \\/     M anipulation  |                                                 |
\*---------------------------------------------------------------------------*/
FoamFile
{
    version     2.0;
    format      ascii;
    class       volScalarField;
    location    "8.55";
    object      alpha.water;
}
// * * * * * * * * * * * * * * * * * * * * * * * * * * * * * * * * * * * * * //

dimensions      [0 0 0 0 0 0 0];

internalField   nonuniform List<scalar> 
320
(
1
1
1
1
2.18027e-05
2.04268e-05
2.00267e-05
2.09699e-05
2.14093e-05
2.02056e-05
2.1111e-05
2.1644e-05
2.01727e-05
2.01246e-05
1.73489e-05
2.10194e-05
0.999978
0.999976
0.999978
0.999977
0.999978
0.999979
0.999978
0.999977
0.999975
0.999979
0.999987
0.99998
1
1
1
1
1
1
1
1
1
1
1
1
1
1
1
1
1
1
1
1
1
1
1
1
1
1
1
1
2.18212e-05
2.01934e-05
1.80453e-05
2.00081e-05
1.58973e-05
1.57692e-05
1.61114e-05
1.62061e-05
1.94588e-05
1.89099e-05
1.60901e-05
1.6718e-05
2.08692e-05
1.75085e-05
1.63211e-05
1.61901e-05
1.6363e-05
1.90242e-05
2.12755e-05
1.89313e-05
0.999976
0.999977
0.999984
0.999977
0.999988
0.999991
0.999992
0.999993
0.999979
0.999978
0.999992
0.999992
0.999979
0.999988
0.99999
0.99999
0.999988
0.999985
0.999978
0.999988
1
1
1
1
1
1
1
1
1
1
1
1
1
1
1
1
1
1
1
1
1
1
1
1
1
1
1
1
1
1
1
1
1
1
1
1
1
1
1
1
1
1
1
1
1
1
1
1
1
1
1
1
1
1
1
1
1
1
1
1
1
1
1
1
1
1
1
1
1
1
1
1
1
1
1
1
1.97269e-05
2.15517e-05
2.05051e-05
1.8272e-05
2.10674e-05
1.89235e-05
2.01331e-05
1.86136e-05
1.89246e-05
2.08456e-05
2.02081e-05
1.98061e-05
2.12722e-05
1.94955e-05
1.94764e-05
2.06151e-05
2.00945e-05
2.03374e-05
2.01055e-05
2.06006e-05
2.14794e-05
2.03615e-05
2.17509e-05
2.0766e-05
2.03327e-05
2.1037e-05
2.07013e-05
2.37041e-05
0.999978
0.999976
0.999974
0.999982
0.999983
0.999984
0.999971
0.999981
0.99998
0.999979
0.999978
0.999979
0.999975
0.999984
0.999977
0.999975
0.999977
0.99998
0.999983
0.999975
0.999977
0.999975
0.999973
0.999978
0.999978
0.999978
0.999978
0.999974
1
1
1
1
1
1
1
1
1
1
1
1
1
1
1
1
1
1
1
1
1
1
1
1
1
1
1
1
1
1
1
1
1
1
1
1
1
1
1
1
1
1
1
1
1
1
1
1
1
1
1
1
1
1
1
1
1
1
1
1
1
1
1
1
1
1
1
1
1
1
1
1
1
1
1
1
1
1
1
1
1
1
1
1
2.04734e-05
2.15984e-05
1.99597e-05
2.25599e-05
0.999976
0.999976
0.999977
0.999974
)
;

boundaryField
{
    top_fluid_surface
    {
        type            inletOutlet;
        inletValue      uniform 0;
        value           nonuniform List<scalar> 
64
(
0
0
0
0
0
0
0
0
0
2.01246e-05
1.73489e-05
0
0
0
1.80453e-05
0
1.58973e-05
1.57692e-05
1.61114e-05
1.62061e-05
0
1.89099e-05
1.60901e-05
1.6718e-05
0
1.75085e-05
1.63211e-05
1.61901e-05
1.6363e-05
1.90242e-05
0
1.89313e-05
0
2.15517e-05
0
1.8272e-05
2.10674e-05
1.89235e-05
0
1.86136e-05
1.89246e-05
0
0
0
0
0
0
0
0
0
0
0
0
0
0
0
0
0
0
0
0
0
0
0
)
;
    }
    bottom_fluid_surface
    {
        type            zeroGradient;
    }
    lateral_surface_1
    {
        type            zeroGradient;
    }
    lateral_surface_2
    {
        type            zeroGradient;
    }
    lateral_surface_3
    {
        type            zeroGradient;
    }
    lateral_surface_4
    {
        type            zeroGradient;
    }
}


// ************************************************************************* //
