/*--------------------------------*- C++ -*----------------------------------*\
| =========                 |                                                 |
| \\      /  F ield         | OpenFOAM: The Open Source CFD Toolbox           |
|  \\    /   O peration     | Version:  v1612+                                |
|   \\  /    A nd           | Web:      www.OpenFOAM.com                      |
|    \\/     M anipulation  |                                                 |
\*---------------------------------------------------------------------------*/
FoamFile
{
    version     2.0;
    format      ascii;
    class       volVectorField;
    location    "8.55";
    object      U;
}
// * * * * * * * * * * * * * * * * * * * * * * * * * * * * * * * * * * * * * //

dimensions      [0 1 -1 0 0 0 0];

internalField   nonuniform List<vector> 
320
(
(5.7585e-06 -1.27157e-05 2.54101e-05)
(-1.09818e-05 -8.5215e-06 3.83043e-06)
(-2.04102e-05 -7.21527e-06 -5.22762e-06)
(6.37148e-07 2.1473e-05 8.68341e-06)
(0.000372387 -5.68437e-05 -0.000217067)
(0.000224329 -0.00034729 -0.000112562)
(0.000621467 -0.00013385 -3.4562e-05)
(0.000437453 1.77549e-05 -6.66547e-05)
(0.000546296 -3.67069e-05 -0.000199576)
(0.000158113 0.000393177 -0.000107005)
(-3.36376e-05 0.000437299 -0.000184655)
(-7.75618e-05 4.18146e-05 -0.000183272)
(-0.000613192 0.000335845 -7.39349e-05)
(-0.000432116 -0.000295014 -5.13541e-06)
(-0.000399867 0.000334776 0.000359873)
(-5.64683e-05 0.000375811 -0.000119107)
(1.69505e-05 -4.47487e-07 4.06355e-05)
(1.90926e-05 -5.44125e-06 4.06842e-05)
(5.13293e-05 1.49306e-06 5.93339e-06)
(1.91387e-05 -1.24368e-06 -2.018e-05)
(3.47472e-05 -1.08432e-05 1.98621e-05)
(1.1406e-05 3.33111e-05 3.40225e-05)
(-1.70825e-05 2.29566e-05 4.20487e-05)
(-3.10757e-06 -1.65966e-05 1.40819e-05)
(-4.58949e-05 3.34835e-05 6.08876e-05)
(-3.37078e-05 -5.54558e-05 4.01078e-05)
(-4.40833e-05 7.01731e-06 -7.60892e-05)
(-1.74431e-05 2.20813e-05 2.62417e-05)
(-1.24198e-05 1.23528e-06 2.40714e-05)
(-1.32689e-05 4.62366e-06 3.32398e-05)
(-3.21785e-05 -8.01988e-07 4.22906e-06)
(-1.56467e-05 1.19092e-06 -2.28758e-05)
(-2.38805e-05 6.71916e-06 1.18641e-05)
(-1.0436e-05 -1.92326e-05 1.65351e-05)
(2.95289e-06 -1.24563e-05 2.16958e-05)
(-2.72569e-06 8.86086e-06 4.04671e-06)
(2.2585e-05 -2.08212e-05 3.91989e-05)
(1.63452e-05 2.99564e-05 3.02323e-05)
(2.01616e-05 -5.42659e-07 -3.94737e-05)
(6.20327e-06 -9.62715e-06 1.69413e-05)
(2.97479e-06 -7.46029e-06 9.6532e-06)
(-7.69853e-06 -4.6368e-06 -4.18672e-06)
(-1.08478e-05 -4.00478e-06 -3.12493e-07)
(4.69611e-07 1.17703e-05 -6.07784e-06)
(-6.40501e-06 9.67763e-07 8.63544e-06)
(-8.1848e-06 3.06249e-06 1.07156e-06)
(-1.7871e-05 -7.41492e-07 6.48319e-07)
(-9.37488e-06 1.1938e-06 1.50164e-06)
(-1.34446e-05 5.74393e-06 1.87506e-06)
(-6.72719e-06 -1.10164e-05 6.5284e-06)
(2.05018e-06 -7.58849e-06 8.1289e-06)
(-1.79838e-06 6.14649e-06 3.97668e-06)
(1.16613e-05 -1.21975e-05 1.01576e-05)
(8.75349e-06 1.65425e-05 6.11928e-06)
(1.06311e-05 -1.94291e-07 -1.04851e-05)
(3.7382e-06 -5.07775e-06 5.89406e-06)
(-0.000199139 1.87214e-05 -0.000181015)
(0.000571918 5.61388e-05 -6.06933e-05)
(0.000151627 -0.000175019 0.000153597)
(0.000349228 9.15509e-05 -5.05112e-05)
(0.000418796 0.000319429 0.00042896)
(0.000355399 -0.000261032 0.000463504)
(0.000226426 -5.57118e-05 0.000416174)
(0.000230219 -0.000506911 0.000445584)
(0.000186815 -0.000413004 -2.19626e-05)
(-0.000335241 4.97106e-05 8.04054e-06)
(-0.000305493 0.000190197 0.000419812)
(0.000263448 0.000274321 0.000415061)
(0.000162396 0.000193526 -0.000157859)
(-0.000500151 0.000170767 0.000299331)
(0.000370529 -0.00020941 0.000419802)
(0.000121456 0.000107734 0.000448843)
(0.000185389 0.00028897 0.000447156)
(0.000414637 0.000708296 0.000121306)
(0.00026797 0.000140916 -0.000117824)
(0.000257384 0.000176176 0.000175641)
(-4.53078e-05 -1.52593e-05 -4.10123e-06)
(1.04754e-05 4.48e-06 4.10413e-05)
(6.841e-06 -2.7041e-05 -6.59582e-06)
(1.72608e-05 -1.26848e-06 7.06897e-06)
(-2.02422e-06 4.66724e-05 -8.2682e-05)
(1.28125e-05 -3.56796e-06 -0.000111063)
(-1.57136e-05 1.81128e-06 -9.4253e-05)
(-1.50554e-05 -4.92716e-05 -0.000132035)
(3.79667e-06 -5.52067e-05 1.01055e-05)
(-3.84674e-05 -1.15142e-05 1.23349e-05)
(-4.34288e-05 1.59675e-05 -9.92065e-05)
(4.06251e-05 3.67272e-06 -0.000106041)
(1.77996e-05 -3.76233e-06 5.90509e-05)
(-4.01284e-05 6.12922e-06 -6.74821e-05)
(3.2906e-05 -4.89763e-05 -6.97191e-05)
(-2.55453e-05 -1.01791e-05 -8.68165e-05)
(1.12688e-05 1.68582e-05 -8.85082e-05)
(3.27008e-05 4.34099e-05 -1.80595e-05)
(7.81221e-06 -1.67666e-06 1.41253e-05)
(3.03994e-05 1.38312e-05 -7.14151e-05)
(2.27593e-05 9.33838e-06 -7.35566e-08)
(-8.49224e-06 -7.2807e-07 2.04908e-05)
(-8.94391e-06 1.61786e-05 -3.40022e-07)
(-1.22006e-05 2.89781e-06 -8.3645e-07)
(5.73551e-07 -2.55261e-05 -4.3406e-05)
(-1.27518e-05 1.18525e-06 -4.89022e-05)
(8.68912e-06 -2.24765e-07 -5.168e-05)
(7.16239e-06 2.66918e-05 -6.30895e-05)
(-3.04775e-06 2.80705e-05 5.28233e-06)
(1.78226e-05 4.97142e-06 9.88361e-06)
(1.66511e-05 -7.01366e-06 -6.05035e-05)
(-2.74547e-05 2.1348e-07 -5.1542e-05)
(-1.20428e-05 1.80969e-06 4.19455e-05)
(1.97005e-05 -3.91647e-06 -3.6636e-05)
(-1.80316e-05 2.71823e-05 -3.9159e-05)
(1.29821e-05 5.50468e-06 -4.79422e-05)
(-3.35543e-06 -9.64751e-06 -4.79128e-05)
(-1.47616e-05 -2.28601e-05 -9.38478e-06)
(-2.89854e-06 3.83568e-06 8.43906e-06)
(-1.60877e-05 -2.70415e-06 -4.83946e-05)
(1.26156e-05 6.3826e-06 -2.84466e-06)
(-5.16528e-06 1.33811e-06 8.46102e-06)
(-5.98912e-06 1.07038e-05 -6.22791e-06)
(-7.35616e-06 2.98657e-06 3.07079e-06)
(1.06703e-06 -1.31665e-05 -1.56137e-05)
(-7.35169e-06 1.04416e-06 -2.22607e-05)
(4.84526e-06 -2.10203e-07 -1.65287e-05)
(4.29856e-06 1.4419e-05 -2.36742e-05)
(-3.15543e-06 1.42963e-05 1.41296e-06)
(9.34981e-06 2.50146e-06 -3.38551e-06)
(8.44144e-06 -4.61026e-06 -1.44791e-05)
(-1.66951e-05 -4.79764e-07 -1.76787e-05)
(-6.23798e-06 1.57035e-06 6.31448e-06)
(1.18041e-05 -2.66715e-06 -1.07348e-05)
(-1.03587e-05 1.46469e-05 -9.62639e-06)
(8.36729e-06 3.09726e-06 -1.23596e-05)
(-1.85232e-06 -5.03621e-06 -1.28297e-05)
(-8.30288e-06 -1.24762e-05 -3.92389e-06)
(-5.14717e-07 2.9529e-06 3.06954e-06)
(-9.17381e-06 -9.51816e-07 -8.99991e-06)
(-1.06041e-06 -4.28095e-06 2.35274e-06)
(-2.7049e-06 -1.78713e-06 4.35581e-07)
(-8.53848e-06 -1.68729e-06 -4.26422e-07)
(-1.84961e-06 8.38541e-06 1.49924e-06)
(-7.62815e-06 3.54148e-07 3.00832e-06)
(-5.80184e-06 3.07456e-06 4.51019e-06)
(-8.95178e-06 8.32323e-07 2.971e-07)
(-3.58679e-06 -3.28802e-07 -2.54945e-06)
(-6.50812e-06 1.09206e-06 1.73559e-06)
(-3.86453e-06 -4.00843e-06 1.64828e-06)
(7.45073e-08 -1.20111e-06 3.45508e-06)
(-1.39026e-06 1.64566e-06 -1.43907e-08)
(6.15842e-06 -4.4842e-06 4.07781e-06)
(3.51116e-06 8.71518e-06 4.04029e-06)
(6.34474e-06 -8.76805e-07 -3.31647e-06)
(1.30761e-06 -9.43029e-07 3.18339e-06)
(5.76564e-06 3.40149e-06 1.25438e-07)
(-5.07798e-06 -6.41733e-07 1.40384e-06)
(-3.18305e-06 3.72566e-06 2.00079e-07)
(-2.62648e-06 -9.76228e-07 -1.1213e-06)
(-2.17971e-06 -6.25146e-06 -4.44187e-06)
(-5.48327e-06 2.11425e-06 -4.50075e-06)
(-8.86398e-07 6.56522e-07 -5.52065e-06)
(-8.8746e-07 8.10764e-06 -5.67368e-06)
(-2.08077e-06 7.39761e-06 4.3098e-07)
(2.1775e-06 7.31717e-07 9.87659e-07)
(2.09073e-06 -3.39922e-06 -5.82326e-06)
(-7.50383e-06 -4.7696e-07 -5.19717e-06)
(-5.25537e-06 2.27779e-07 3.67896e-06)
(3.69026e-06 -6.91231e-10 -4.10856e-06)
(-5.87108e-06 6.48419e-06 -4.35278e-06)
(2.55054e-06 1.4667e-06 -5.5846e-06)
(-2.71287e-06 -1.5011e-06 -5.64281e-06)
(-4.24364e-06 -6.4846e-06 -1.96547e-06)
(-3.14612e-06 -2.25002e-07 -3.16505e-08)
(-6.4155e-06 -1.15916e-06 -5.62308e-06)
(0.000617735 0.000251039 -1.74349e-05)
(6.31308e-05 -3.88612e-05 -1.63628e-05)
(0.000567302 -1.19241e-05 -7.19848e-05)
(0.000190844 -3.682e-05 0.000231725)
(0.000131057 -5.03043e-05 -4.37939e-05)
(0.000255195 0.00018236 4.1432e-05)
(-0.000517238 0.000110596 -0.000186406)
(-0.000594929 0.000189268 3.80751e-05)
(-0.000648735 -0.000323858 1.94108e-05)
(-0.000657174 -0.000104443 -0.000216262)
(-0.000698752 -7.51116e-05 -0.000150331)
(-0.000230601 -0.000171277 -7.08896e-05)
(-0.000456049 0.000121259 -0.000246438)
(-0.0001588 -7.84551e-05 1.57335e-06)
(0.000119962 -0.000376297 -7.15646e-05)
(-6.56687e-05 -0.00053293 -0.00013492)
(-3.75632e-05 -0.000613761 -7.12554e-05)
(2.42644e-05 -0.000235167 -5.48489e-05)
(-0.000213866 -0.000477443 -3.97654e-05)
(0.000241153 -0.000518692 -0.000103325)
(0.000172012 -0.0003498 -0.000231893)
(0.000340351 4.9464e-05 -4.94794e-05)
(0.000429031 0.000150947 -0.000145214)
(0.000384552 -6.93523e-07 -0.000129417)
(0.000140721 0.000417062 -7.67446e-05)
(9.4088e-05 0.000214451 -0.000118931)
(0.000216088 0.000371292 -0.000113133)
(0.000288327 0.000323371 -0.000448366)
(4.33082e-05 3.74416e-05 1.1271e-05)
(-8.10031e-06 6.32878e-06 -9.2252e-06)
(2.87322e-05 2.399e-07 2.86893e-05)
(2.48483e-05 -1.19338e-05 -6.37068e-05)
(-2.23687e-05 -1.77635e-05 -4.12994e-05)
(-3.43989e-05 2.76932e-05 1.73528e-05)
(-5.13311e-05 1.46107e-05 9.46001e-05)
(-6.4416e-05 4.59216e-05 2.62571e-05)
(-5.20819e-05 -1.21988e-05 -3.86047e-05)
(-7.30409e-05 -2.90942e-05 7.62839e-05)
(-8.29594e-05 8.6633e-06 9.01805e-05)
(-1.51388e-05 9.89961e-06 1.92411e-05)
(-1.7871e-05 2.17087e-05 2.69487e-05)
(1.80829e-05 6.05732e-06 -3.21522e-05)
(9.53924e-06 -2.98926e-05 3.34449e-05)
(-3.78321e-06 -4.19501e-05 2.31306e-05)
(2.63998e-06 -6.95238e-05 5.1723e-05)
(-5.56014e-06 -3.97319e-06 1.29202e-05)
(-6.92187e-07 -4.61635e-05 1.70447e-05)
(1.82851e-05 -4.33981e-05 5.17343e-05)
(1.55363e-05 -3.15477e-05 6.79986e-05)
(2.73876e-05 -3.77093e-05 8.81028e-06)
(2.68059e-05 1.18498e-05 -1.54021e-05)
(4.94146e-05 2.78198e-06 4.22427e-05)
(1.27369e-05 3.56695e-06 5.64502e-06)
(9.57939e-06 1.97759e-05 5.86368e-06)
(3.41833e-05 2.02351e-05 4.34436e-05)
(1.5991e-05 1.92462e-05 6.97405e-05)
(-2.11408e-05 -1.75485e-05 2.12703e-06)
(4.23168e-06 -3.8376e-06 -4.60764e-06)
(-1.92595e-05 9.7725e-07 9.57713e-06)
(-1.68963e-05 6.93021e-06 -3.54591e-05)
(9.51655e-06 8.92979e-06 -3.42065e-05)
(1.76094e-05 -1.47899e-05 1.57693e-05)
(2.60497e-05 -8.09833e-06 5.04399e-05)
(3.2741e-05 -2.74531e-05 1.39384e-05)
(2.4123e-05 7.31408e-06 -2.80304e-05)
(3.88731e-05 2.11134e-05 3.58953e-05)
(4.54524e-05 -5.02471e-06 5.89177e-05)
(7.1658e-06 -8.58948e-06 4.02427e-06)
(8.79384e-06 -1.24481e-05 1.16495e-05)
(-1.02474e-05 -3.32706e-06 -2.78568e-05)
(-8.48435e-06 1.57132e-05 1.44337e-05)
(-5.68554e-06 2.29773e-05 1.09043e-05)
(-5.86808e-06 3.80449e-05 3.11752e-05)
(1.40724e-06 1.38954e-06 5.45914e-06)
(-2.79127e-06 2.45952e-05 6.26757e-06)
(-1.01284e-05 2.38796e-05 3.19654e-05)
(-7.51467e-06 1.66966e-05 3.53005e-05)
(-1.4698e-05 1.92033e-05 7.96753e-06)
(-1.54973e-05 -6.14244e-06 -1.16155e-05)
(-2.63497e-05 2.20657e-06 2.69205e-05)
(-3.64684e-06 -8.40569e-08 4.18414e-06)
(-3.57568e-06 -1.0953e-05 -3.19727e-06)
(-1.84359e-05 -8.90475e-06 2.6415e-05)
(-9.78068e-06 -8.89402e-06 2.8613e-05)
(-1.14552e-05 -9.89206e-06 3.90171e-06)
(1.44866e-06 -1.31617e-06 -1.17199e-06)
(-1.07266e-05 1.27454e-06 7.78151e-06)
(-9.83398e-06 4.24533e-06 -1.16744e-05)
(5.99833e-06 5.11925e-06 -3.16426e-06)
(1.04343e-05 -9.10914e-06 -2.99251e-06)
(1.30525e-05 -4.24879e-06 1.34794e-05)
(1.79129e-05 -1.47987e-05 5.96962e-06)
(1.14196e-05 3.03632e-06 -6.78202e-06)
(1.99048e-05 1.28417e-05 1.09193e-05)
(2.447e-05 -2.25593e-06 9.69001e-06)
(3.23177e-06 -5.96427e-06 5.40855e-06)
(4.21055e-06 -7.20111e-06 1.9012e-06)
(-6.47088e-06 -2.74908e-06 -2.98959e-06)
(-5.74708e-06 7.93211e-06 4.95338e-06)
(-3.74635e-06 1.23478e-05 2.87063e-06)
(-4.12988e-06 2.01185e-05 8.74667e-06)
(3.8914e-07 -2.16016e-07 5.21182e-06)
(-1.41435e-06 1.34917e-05 5.9376e-06)
(-5.81021e-06 1.30016e-05 7.99738e-06)
(-4.3465e-06 8.94335e-06 1.29205e-05)
(-8.40486e-06 1.15094e-05 1.87336e-06)
(-7.48355e-06 -3.69223e-06 -2.91467e-07)
(-1.51932e-05 -1.26181e-07 6.64314e-06)
(-2.57362e-06 1.14322e-06 -9.71032e-07)
(-1.57433e-06 -5.9482e-06 5.06213e-06)
(-1.14747e-05 -4.5584e-06 6.36597e-06)
(-5.18125e-06 -3.59865e-06 1.22279e-05)
(-8.13206e-06 -4.688e-06 -4.77556e-07)
(7.9018e-07 -1.56989e-06 -3.87175e-07)
(-7.95235e-06 2.87383e-07 5.46463e-07)
(-5.46737e-06 1.30449e-06 -2.67655e-06)
(1.02534e-06 2.57176e-06 -3.61282e-06)
(7.37024e-07 -2.34739e-06 2.37485e-06)
(9.3882e-06 -3.45071e-07 5.89359e-06)
(1.13906e-05 -7.19644e-06 2.10595e-06)
(8.44325e-06 2.12559e-06 -1.67742e-06)
(1.14019e-05 4.26682e-06 2.94968e-06)
(1.20534e-05 -1.02232e-07 6.71683e-06)
(3.19207e-06 -9.43395e-07 3.78393e-07)
(3.71264e-06 -3.91093e-06 1.56882e-06)
(-1.45059e-06 1.64028e-06 -2.70059e-06)
(-2.59254e-06 6.8035e-06 1.95908e-06)
(-2.65598e-06 6.41036e-06 3.73608e-07)
(-3.55245e-06 1.155e-05 3.33986e-06)
(-1.86653e-06 2.45904e-06 1.02726e-06)
(-9.794e-08 8.16129e-06 1.29478e-06)
(-2.9773e-06 6.24715e-06 2.45858e-06)
(-2.70736e-06 5.26744e-06 4.03594e-06)
(-3.68709e-06 5.52705e-06 5.07778e-07)
(-3.66448e-06 -1.32615e-06 -1.67502e-06)
(-6.47983e-06 1.92118e-06 2.91909e-06)
(-2.42202e-07 -1.30999e-06 1.15569e-07)
(-1.30527e-06 -3.11492e-06 1.78027e-07)
(-3.1322e-06 -1.58459e-06 2.75848e-06)
(-1.73074e-06 -3.28655e-06 3.17093e-06)
(-0.000151507 0.000331636 -0.000117276)
(7.32992e-05 1.97421e-05 -0.000170451)
(6.0348e-05 7.09193e-05 6.86384e-06)
(-8.98714e-05 -0.000223726 -0.000254548)
(-1.70467e-05 2.71383e-05 5.14578e-05)
(8.7841e-06 1.8399e-05 -2.78827e-06)
(2.83411e-05 1.50261e-05 -1.02817e-05)
(-9.28949e-06 -4.15206e-05 5.80604e-07)
)
;

boundaryField
{
    top_fluid_surface
    {
        type            pressureInletOutletVelocity;
        value           nonuniform List<vector> 
64
(
(0 0 -0.000217067)
(0 0 -0.000112562)
(0 0 -3.4562e-05)
(0 0 -6.66547e-05)
(0 0 -0.000199576)
(0 0 -0.000107005)
(0 0 -0.000184655)
(0 0 -0.000183272)
(0 0 -7.39349e-05)
(0 0 -5.13541e-06)
(-0.000399867 0.000334776 0.000359873)
(0 0 -0.000119107)
(0 0 -0.000181015)
(0 0 -6.06933e-05)
(0.000151627 -0.000175019 0.000153597)
(0 0 -5.05112e-05)
(0.000418796 0.000319429 0.00042896)
(0.000355399 -0.000261032 0.000463504)
(0.000226426 -5.57118e-05 0.000416174)
(0.000230219 -0.000506911 0.000445584)
(0 0 -2.19626e-05)
(-0.000335241 4.97106e-05 8.04054e-06)
(-0.000305493 0.000190197 0.000419812)
(0.000263448 0.000274321 0.000415061)
(0 0 -0.000157859)
(-0.000500151 0.000170767 0.000299331)
(0.000370529 -0.00020941 0.000419802)
(0.000121456 0.000107734 0.000448843)
(0.000185389 0.00028897 0.000447156)
(0.000414637 0.000708296 0.000121306)
(0 0 -0.000117824)
(0.000257384 0.000176176 0.000175641)
(0 0 -1.74349e-05)
(6.31308e-05 -3.88612e-05 -1.63628e-05)
(0 0 -7.19848e-05)
(0.000190844 -3.682e-05 0.000231725)
(0 0 -4.37939e-05)
(0.000255195 0.00018236 4.1432e-05)
(0 0 -0.000186406)
(-0.000594929 0.000189268 3.80751e-05)
(-0.000648735 -0.000323858 1.94108e-05)
(0 0 -0.000216262)
(0 0 -0.000150331)
(0 0 -7.08896e-05)
(0 0 -0.000246438)
(0 0 1.57335e-06)
(0 0 -7.15646e-05)
(0 0 -0.00013492)
(0 0 -7.12554e-05)
(0 0 -5.48489e-05)
(0 0 -3.97654e-05)
(0 0 -0.000103325)
(0 0 -0.000231893)
(0 0 -4.94794e-05)
(0 0 -0.000145214)
(0 0 -0.000129417)
(0 0 -7.67446e-05)
(0 0 -0.000118931)
(0 0 -0.000113133)
(0 0 -0.000448366)
(0 0 -0.000117276)
(0 0 -0.000170451)
(0 0 6.86384e-06)
(0 0 -0.000254548)
)
;
    }
    bottom_fluid_surface
    {
        type            noSlip;
    }
    lateral_surface_1
    {
        type            noSlip;
    }
    lateral_surface_2
    {
        type            noSlip;
    }
    lateral_surface_3
    {
        type            noSlip;
    }
    lateral_surface_4
    {
        type            noSlip;
    }
}


// ************************************************************************* //
