/*--------------------------------*- C++ -*----------------------------------*\
| =========                 |                                                 |
| \\      /  F ield         | OpenFOAM: The Open Source CFD Toolbox           |
|  \\    /   O peration     | Version:  v1612+                                |
|   \\  /    A nd           | Web:      www.OpenFOAM.com                      |
|    \\/     M anipulation  |                                                 |
\*---------------------------------------------------------------------------*/
FoamFile
{
    version     2.0;
    format      ascii;
    class       volScalarField;
    location    "6.2";
    object      alpha.water;
}
// * * * * * * * * * * * * * * * * * * * * * * * * * * * * * * * * * * * * * //

dimensions      [0 0 0 0 0 0 0];

internalField   nonuniform List<scalar> 
1116
(
0.543355
0.543355
0.543355
0.543356
0.543356
0.543356
0.876179
0.876208
0.876185
0.87618
0.876188
0.876181
0.974493
0.974493
0.974493
0.974493
0.974493
0.974493
0.974493
0.974493
0.974493
0.974493
0.974493
0.974493
0.971363
0.971365
0.971364
0.971366
0.971368
0.971361
0.958179
0.958198
0.958191
0.958194
0.958208
0.958175
0.9414
0.941445
0.941434
0.941428
0.941452
0.941405
0.928593
0.928659
0.928648
0.928622
0.928645
0.928614
0.922752
0.922821
0.922809
0.922774
0.922803
0.922757
0.92155
0.921616
0.921606
0.921571
0.921604
0.921549
0.919894
0.919907
0.919917
0.919904
0.919992
0.919814
0.915059
0.915112
0.915065
0.915092
0.915075
0.915189
0.750065
0.750144
0.750114
0.750103
0.750123
0.75009
0.921847
0.921846
0.921847
0.921846
0.921846
0.921846
0.902926
0.902974
0.902953
0.902954
0.902975
0.902925
0.592514
0.592408
0.59244
0.592486
0.592461
0.592476
0.409244
0.409166
0.409193
0.409219
0.409195
0.409238
0.311675
0.311758
0.311748
0.311675
0.311656
0.311778
0.25308
0.25325
0.253227
0.253092
0.253077
0.253232
0.205159
0.205184
0.205223
0.205127
0.205225
0.205164
0.229101
0.229246
0.22909
0.229161
0.228951
0.229227
0.313749
0.314686
0.314283
0.31394
0.312576
0.315497
0.351005
0.345683
0.347096
0.350335
0.355367
0.34273
0.239453
0.23811
0.238387
0.239212
0.240563
0.237824
0.689243
0.689635
0.689481
0.689432
0.689538
0.689362
0.281942
0.281831
0.281885
0.281893
0.281853
0.281908
0.0370427
0.0369922
0.0370089
0.0370212
0.0370068
0.0370279
2.26369e-08
2.25773e-08
2.26013e-08
2.28766e-08
2.28187e-08
2.2754e-08
3.27577e-08
3.35552e-08
3.31941e-08
3.3254e-08
3.34743e-08
3.27569e-08
2.7207e-07
2.7174e-07
2.6667e-07
2.76085e-07
2.8659e-07
2.5625e-07
8.75689e-07
8.73421e-07
8.68842e-07
8.79209e-07
8.88915e-07
8.57342e-07
1.24249e-06
1.2412e-06
1.24144e-06
1.24178e-06
1.23987e-06
1.23871e-06
0.000626666
0.000612693
0.000609192
0.000627892
0.000654336
0.000586522
0.0103899
0.0107008
0.0105803
0.0104504
0.0101402
0.0109484
0.0329644
0.0324654
0.0323444
0.0330919
0.0327747
0.0323272
0.0259631
0.0259608
0.025959
0.0259582
0.0259582
0.0259582
0.544624
0.544722
0.544661
0.544662
0.544711
0.544639
2.22613e-08
2.22507e-08
2.22198e-08
2.21953e-08
2.21943e-08
2.21943e-08
2.22644e-08
2.22633e-08
2.22507e-08
2.22198e-08
2.21953e-08
2.21943e-08
2.19446e-08
2.21967e-08
2.19129e-08
2.23602e-08
2.22663e-08
2.22758e-08
2.29179e-08
2.291e-08
2.291e-08
2.31555e-08
2.30935e-08
2.30345e-08
3.27768e-08
3.36094e-08
3.32416e-08
3.32888e-08
3.35041e-08
3.28099e-08
2.6901e-07
2.68655e-07
2.63775e-07
2.73077e-07
2.83391e-07
2.53443e-07
8.46175e-07
8.46881e-07
8.42023e-07
8.50911e-07
8.593e-07
8.30796e-07
0.00353902
0.00347209
0.00345316
0.00354384
0.00372442
0.00328961
0.0265883
0.0264193
0.0264721
0.0265469
0.0268039
0.0262459
0.0303729
0.0302543
0.0303058
0.0303613
0.0303986
0.030247
0.0303973
0.0303971
0.0304047
0.0304109
0.0304188
0.0304109
0.0913912
0.0916823
0.0918262
0.0918796
0.0918796
0.0843594
0.0811765
0.07507
0.0809434
0.0899959
0.0918796
0.0918683
0.0255546
0.0440714
0.0129428
0.0557655
0.0918683
0.0500536
0.0540307
0.0852642
0.0560755
0.069555
0.0884127
0.064735
0.0851496
0.0861754
0.0873685
0.0881662
0.0882049
0.0931765
0.0843721
0.0637042
0.0720693
0.0721486
0.0885549
0.0931692
0.0801087
0.0554436
0.0485219
0.0602637
0.0853349
0.0924065
0.0853045
0.0820374
0.0804626
0.0833349
0.0897916
0.0923454
0.0883921
0.0894553
0.0899478
0.0905454
0.0910525
0.0920574
0.0878035
0.0888205
0.089574
0.090077
0.0905542
0.0764678
0.0872326
0.0881798
0.0892059
0.0896535
0.0900752
0.0393617
0.0407211
0.0426249
0.0493621
0.0439658
0.0896117
0.039179
0.0885958
0.0913913
0.0916823
0.0865794
0.0826098
0.0840915
0.01013
0.00502026
0.0110093
0.00486593
0.00466303
0.047879
0.00350876
0.00328207
0.00303872
0.00571134
0.00572683
0.00264008
0.00320541
0.00150823
0.00240812
0.00166698
0.00151761
0.00323805
7.47279e-12
2.53342e-12
2.0191e-12
1.71894e-12
0.000186507
0.000764747
1.27442e-11
1.34907e-11
4.06234e-12
4.56288e-11
6.02733e-11
3.74327e-09
1.87621e-11
2.48294e-11
7.83702e-10
8.94915e-09
3.59633e-09
6.90117e-08
2.66145e-06
5.03611e-07
1.19962e-07
1.17344e-06
1.44809e-08
3.38899e-05
0.00476976
5.473e-05
6.58216e-05
0.00255662
0.00992583
0.00334721
0.0300196
0.0211032
0.0071677
0.0248388
0.0277345
0.0183783
0.0543279
0.0480406
0.0525056
0.0581088
0.0447241
0.0796985
0.042282
0.0526078
0.0922835
0.0829159
0.0466149
0.0796985
0.0869909
0.0734034
0.0688934
0.0833307
0.0733573
0.0833149
2.45636e-05
1.378e-05
2.43306e-05
1.31737e-05
2.92215e-07
0.0128982
-1.94201e-10
-1.98154e-09
-2.74406e-08
5.9563e-09
1.25702e-08
6.44448e-09
7.4618e-12
2.48556e-12
1.5787e-12
1.71855e-12
1.17317e-12
2.27621e-11
2.53343e-12
1.93682e-12
1.84063e-12
1.19573e-12
7.01592e-13
1.19572e-12
1.5001e-10
2.53323e-12
2.08991e-12
1.68889e-12
1.19558e-12
1.36716e-10
2.34861e-08
1.085e-10
-1.18658e-11
-2.88729e-12
5.61279e-11
3.68094e-08
1.03378e-07
2.15571e-08
4.26646e-09
7.83643e-09
3.60093e-09
8.30336e-09
1.04785e-08
7.71801e-08
1.47663e-07
3.86213e-09
1.71187e-10
-8.79364e-10
2.24141e-10
-5.46004e-10
8.00209e-09
2.57739e-07
5.07576e-07
1.44171e-08
0.00476095
0.00430656
7.55957e-05
0.00477813
0.0114818
0.0145717
0.0898089
0.0910961
0.0922835
0.090481
0.0120042
0.0796985
0.0666154
0.0268482
0.0342465
0.0529699
0.0395473
0.0639232
6.65059e-07
8.24904e-08
5.02215e-07
1.03424e-07
1.05738e-07
0.0020138
3.85786e-09
7.35064e-08
4.04723e-08
9.55574e-08
8.81486e-08
6.06492e-08
6.37329e-09
1.11839e-07
7.58383e-08
4.3635e-07
7.94567e-07
4.36258e-07
9.78266e-13
1.95544e-12
9.78247e-13
4.35341e-13
2.66283e-13
4.35341e-13
2.65365e-09
1.96442e-12
3.00381e-10
1.56573e-10
3.52498e-12
3.05513e-12
2.34595e-08
1.2727e-11
1.41737e-10
3.40346e-10
2.05892e-09
6.698e-11
6.39387e-10
3.225e-10
-2.19839e-11
-2.27118e-11
1.48029e-08
8.35777e-10
1.89429e-08
-2.45816e-10
1.49186e-10
1.66698e-09
-3.24946e-13
2.6528e-12
4.27516e-11
2.23936e-10
2.22077e-09
3.81525e-09
-4.2832e-10
8.94748e-10
0.000273936
7.34774e-05
2.55059e-08
0.00170881
0.0125947
1.33933e-08
0.0493438
0.0434212
0.0260357
0.0334354
0.0531457
0.0528217
0.242707
0.241921
0.242167
0.242292
0.242139
0.242413
0.000775489
0.000729655
0.000745045
0.000752186
0.000741882
0.000758735
7.60473e-06
7.27593e-06
7.38132e-06
7.42244e-06
7.33773e-06
7.44937e-06
0.00452168
0.00450433
0.00451085
0.00451294
0.0045087
0.00451682
0.000749298
0.000731402
0.000737908
0.000740752
0.000735924
0.000742726
9.41134e-08
9.49548e-08
9.46009e-08
9.45093e-08
9.47166e-08
9.42736e-08
2.05893e-08
2.12109e-08
2.08978e-08
2.07348e-08
2.07491e-08
2.08936e-08
1.88147e-06
1.84022e-06
1.8566e-06
1.86984e-06
1.86092e-06
1.86573e-06
7.3503e-08
7.50233e-08
7.44997e-08
7.42416e-08
7.45627e-08
7.40059e-08
1.87229e-08
1.70251e-08
1.77841e-08
1.86038e-08
1.83195e-08
1.79951e-08
2.80636e-09
2.06753e-09
2.29317e-09
2.3818e-09
2.5827e-09
2.24788e-09
6.9545e-18
8.23842e-18
7.71803e-18
7.47414e-18
8.08299e-18
7.76942e-18
2.01385e-08
2.03449e-08
2.03012e-08
2.04212e-08
2.02958e-08
2.03814e-08
5.55025e-09
3.98773e-09
4.8573e-09
5.10418e-09
5.12453e-09
4.8365e-09
1.29697e-17
-3.48778e-15
-2.39567e-15
1.26812e-17
1.273e-17
1.24979e-17
1.01949e-07
1.1348e-07
1.07876e-07
1.07343e-07
1.07669e-07
1.06034e-07
3.28912e-07
6.67175e-07
3.90084e-07
3.69556e-07
3.60713e-07
3.92364e-07
1.81968e-08
2.69929e-08
2.29782e-08
2.13226e-08
2.0778e-08
2.30511e-08
1.96566e-06
2.05884e-06
1.98218e-06
2.02873e-06
2.07677e-06
1.91632e-06
0.00038775
0.000433248
0.000412841
0.000409514
0.000406655
0.000412537
0.000133848
0.000160406
0.000148688
0.000144403
0.000142181
0.000148567
0.000728301
0.000724234
0.000712186
0.000735696
0.000760134
0.000685185
0.000848385
0.000849533
0.00085062
0.000851094
0.000851094
0.000851094
0.000526412
0.000561835
0.000550204
0.000538611
0.000533899
0.000556842
0.00243591
0.00235495
0.00237689
0.00240497
0.00243409
0.00235115
0.000723173
0.000718084
0.000726689
0.000710917
0.00069651
0.000744631
0.000175949
0.000171728
0.000173729
0.000176644
0.000175136
0.000174894
3.21772e-06
3.07445e-06
3.09447e-06
3.18381e-06
3.20592e-06
3.06879e-06
7.61483e-12
7.41377e-12
7.42156e-12
7.65978e-12
7.8651e-12
7.31124e-12
0.000133414
0.000123622
0.000125117
0.00013108
0.000131049
0.000124972
-4.43049e-10
-4.13468e-10
-4.18823e-10
-4.35378e-10
-4.42412e-10
-4.10637e-10
5.80808e-12
5.68598e-12
5.72515e-12
5.8441e-12
6.00771e-12
5.57112e-12
2.51056e-22
2.70771e-22
2.68477e-22
2.55716e-22
1.46218e-19
2.61859e-22
0.0176531
0.017386
0.0175246
0.0175335
0.0177364
0.017326
7.44886e-24
7.52492e-24
7.46598e-24
7.51618e-24
3.35358e-20
7.39929e-24
2.54187e-09
2.51355e-09
2.52175e-09
2.55471e-09
2.60682e-09
2.45712e-09
0.0827968
0.0829277
0.0837667
0.0853218
0.086557
0.0842996
2.80708e-28
2.18104e-28
2.24481e-23
2.60513e-28
1.47422e-28
4.16519e-29
-6.38053e-26
2.40852e-28
2.73953e-25
1.47831e-23
2.2698e-17
-2.0845e-26
0.0918655
0.0918867
0.0918679
0.091545
0.0914509
0.0916999
-1.35462e-15
-1.02788e-15
2.11513e-31
-1.44461e-18
-3.07198e-16
-1.90655e-16
-7.64248e-26
-4.95703e-26
-1.19977e-25
-6.0624e-26
-7.01161e-26
-5.19531e-26
0.0923108
0.0923425
0.0923478
0.0919538
0.0918579
0.0921398
-4.08434e-15
-3.30916e-15
-5.75936e-15
-1.95822e-17
-3.61957e-14
-1.62158e-15
-9.68244e-26
-9.10991e-26
-9.80845e-26
-8.59933e-26
-1.59523e-25
-5.69897e-26
0.0936754
0.0936978
0.093704
0.0936594
0.0936921
0.0937527
-2.40546e-15
-1.95795e-15
-3.55732e-15
-1.73988e-16
-2.19367e-14
-9.50855e-16
-1.06614e-25
-1.24385e-25
-1.36058e-25
-1.29025e-25
-1.42127e-25
-9.78211e-26
0.0933833
0.0934078
0.0934157
0.0933539
0.0933801
0.093465
-1.22588e-15
-9.99592e-16
-1.91073e-15
-3.92786e-16
-1.13033e-14
-4.71482e-16
-6.09569e-26
-7.27187e-26
-7.92662e-26
-8.05998e-26
-8.90301e-26
-6.52022e-26
0.0851205
0.0851421
0.0851934
0.0849625
0.0849365
0.0852159
-5.43123e-16
-4.43119e-16
-9.06734e-16
-3.91827e-16
-5.03925e-15
-2.02235e-16
-3.71126e-26
-4.51443e-26
-4.88211e-26
-5.38412e-26
-6.08991e-26
-4.62929e-26
0.0186449
0.0059962
0.0130529
0.00574051
0.00179573
0.0245523
0.00729609
0.0144451
0.015338
0.00194993
7.95808e-05
0.0246681
0.0116111
0.0147887
0.0122794
0.00179435
0.000497402
0.0184455
0.000701395
8.62242e-05
1.07754e-06
2.82429e-07
3.91715e-07
0.00168007
0.000165056
1.37527e-06
1.05929e-06
8.11119e-07
7.8403e-05
0.000671748
3.80452e-06
4.02278e-06
1.19437e-06
1.02436e-06
2.96696e-05
2.49807e-05
4.91125e-09
1.29685e-08
1.92219e-06
4.33567e-07
6.58554e-07
1.70343e-07
-4.03256e-14
5.68093e-06
1.51097e-05
1.50804e-05
9.31979e-06
3.10104e-06
1.14859e-05
1.39819e-05
9.69737e-06
9.93635e-07
4.59567e-20
2.44009e-05
9.54638e-09
1.04685e-07
1.06599e-07
4.00761e-07
9.49631e-07
2.1232e-06
1.23702e-19
4.24352e-09
7.37041e-08
8.70333e-18
3.20667e-17
1.22094e-06
1.32328e-28
3.36723e-07
2.54041e-07
4.98386e-08
4.547e-08
3.88825e-07
-2.55117e-15
8.39583e-18
6.43413e-18
8.49565e-18
3.15248e-17
1.13936e-17
5.64545e-18
6.36036e-18
3.18018e-18
6.35529e-18
1.58813e-18
1.25368e-18
4.32101e-17
7.33952e-25
8.12104e-25
6.94729e-24
1.27011e-22
3.2968e-25
1.99675e-10
2.30474e-10
2.81685e-10
1.99064e-10
4.57822e-11
1.44741e-10
8.18509e-18
8.76409e-18
6.47807e-18
8.86298e-18
6.62544e-15
2.64494e-18
2.09066e-14
1.98909e-14
1.67305e-14
2.23489e-14
1.9694e-14
6.84918e-15
9.55e-12
9.92323e-11
2.51182e-10
1.60879e-10
5.56331e-11
-2.87066e-14
2.01301e-15
3.4464e-15
1.36777e-16
1.86357e-16
7.86872e-14
3.22933e-16
2.74524e-13
2.75136e-13
2.40408e-13
3.08503e-13
2.93154e-13
1.05108e-13
-1.54749e-13
-1.72966e-12
-6.58721e-16
1.07546e-11
1.92381e-11
-2.4691e-14
5.18797e-17
1.35481e-16
1.43699e-16
3.27852e-16
1.73588e-17
9.11023e-17
1.83874e-14
3.05818e-14
2.45776e-14
3.08894e-14
2.80131e-14
2.05306e-14
9.69321e-13
-6.92492e-13
-2.44072e-10
-1.8294e-13
-1.60872e-14
-3.60818e-12
8.51518e-22
5.97863e-23
1.5269e-22
4.50866e-20
3.21912e-17
9.72438e-19
4.0297e-252
1.81522e-248
4.72313e-245
5.6927e-239
5.43281e-312
1.1988e-313
9.87467e-12
3.17268e-11
-3.16547e-10
-3.23986e-13
-9.85602e-10
-1.225e-09
2.37045e-10
1.63082e-10
-1.01456e-12
1.30789e-10
-1.15873e-12
6.26989e-13
4.78707e-10
4.5436e-10
4.07878e-10
4.35458e-10
3.87933e-10
3.87198e-10
-4.0038e-11
-5.62598e-11
-2.24511e-08
-9.30999e-10
-5.2646e-08
-1.4801e-08
7.24142e-12
5.69266e-12
3.99195e-12
7.45823e-12
2.41369e-12
4.11257e-12
9.92596e-11
1.35072e-10
2.0123e-10
8.33508e-11
4.16922e-10
3.5062e-10
0.00490807
0.00568983
0.00890373
0.00896999
0.0191787
0.00710179
9.28074e-15
7.25344e-15
6.04019e-15
8.61732e-15
4.63942e-15
1.32714e-15
3.87339e-10
3.01805e-10
2.8169e-10
1.03299e-09
1.67663e-09
4.0038e-10
)
;

boundaryField
{
    seabed_topleft_surface
    {
        type            zeroGradient;
    }
    seabed_topright_surface
    {
        type            zeroGradient;
    }
    breakwater_top_surface
    {
        type            zeroGradient;
    }
    breakwater_left_surface
    {
        type            zeroGradient;
    }
    breakwater_right_surface
    {
        type            zeroGradient;
    }
    water_front_surface
    {
        type            zeroGradient;
    }
    water_back_surface
    {
        type            zeroGradient;
    }
    water_left_surface
    {
        type            zeroGradient;
    }
    water_right_surface
    {
        type            zeroGradient;
    }
    water_top_surface
    {
        type            inletOutlet;
        inletValue      uniform 0;
        value           nonuniform List<scalar> 
180
(
7.60473e-06
7.27593e-06
7.38132e-06
7.42244e-06
7.33773e-06
7.44937e-06
9.41134e-08
9.49548e-08
9.46009e-08
9.45093e-08
9.47166e-08
9.42736e-08
0
0
0
0
0
0
0
0
0
0
0
0
0
0
0
0
0
0
1.81968e-08
2.69929e-08
2.29782e-08
2.13226e-08
2.0778e-08
2.30511e-08
0.000133848
0.000160406
0.000148688
0.000144403
0.000142181
0.000148567
0.000526412
0.000561835
0.000550204
0.000538611
0.000533899
0.000556842
0.000175949
0.000171728
0.000173729
0.000176644
0.000175136
0.000174894
0
0
0
0
0
0
0
0
0
0
0
0
0
0
0
0
0
0
0
0
0
0
0
0
0
0
0
0
0
0
0
0
0
0
0
0
0
0
0
0
0
0
0
0
0
0
0
0
0
0
0
0
0
0
0.0116111
0.0147887
0.0122794
0.00179435
0.000497402
0.0184455
3.80452e-06
4.02278e-06
1.19437e-06
1.02436e-06
2.96696e-05
2.49807e-05
0
0
0
0
0
0
0
0
0
0
0
0
0
0
0
0
0
0
0
0
0
0
0
0
0
0
0
0
0
0
0
0
0
0
0
0
0
0
0
0
0
0
0
0
0
0
0
0
0
0
0
0
0
0
0
0
0
0
0
0
)
;
    }
}


// ************************************************************************* //
