/*--------------------------------*- C++ -*----------------------------------*\
| =========                 |                                                 |
| \\      /  F ield         | OpenFOAM: The Open Source CFD Toolbox           |
|  \\    /   O peration     | Version:  v1612+                                |
|   \\  /    A nd           | Web:      www.OpenFOAM.com                      |
|    \\/     M anipulation  |                                                 |
\*---------------------------------------------------------------------------*/
FoamFile
{
    version     2.0;
    format      ascii;
    class       volScalarField;
    location    "6.2";
    object      p;
}
// * * * * * * * * * * * * * * * * * * * * * * * * * * * * * * * * * * * * * //

dimensions      [1 -1 -2 0 0 0 0];

internalField   nonuniform List<scalar> 
1116
(
20858
20858.4
20858.2
20858.2
20858.3
20858.1
18704.1
18704.2
18704.1
18704.1
18704.2
18704.1
15340.3
15340.3
15340.3
15340.3
15340.3
15340.3
12300.1
12300
12300
12300
12300.1
12300
10083.3
10083.3
10083.3
10083.5
10083.5
10083.3
8536.72
8536.64
8536.54
8536.86
8536.75
8536.77
7559.42
7559.74
7559.59
7559.59
7559.14
7559.98
6947.62
6948.3
6948.19
6947.94
6947.69
6948.19
6992.41
6991.82
6991.19
6993.02
6993.89
6989.27
7646.16
7648.84
7647.62
7645.98
7642.74
7649.85
8601.45
8597.4
8597.9
8599.2
8600.5
8587.87
7851.28
7844.03
7847.43
7850.76
7862.26
7841.63
14495.1
14495.8
14495.4
14495.5
14495.7
14495.2
9118.14
9118.46
9118.29
9118.36
9118.42
9118.19
4790.55
4790.41
4790.41
4790.49
4790.48
4790.48
2915.71
2915.97
2915.84
2915.75
2915.84
2915.73
2023.41
2023.29
2023.31
2023.43
2023.56
2023.28
1504.2
1503.38
1503.74
1504.01
1504.28
1503.76
1180.98
1181.54
1181.51
1180.99
1181.07
1181.4
1001.33
1002.17
1002.23
1001.19
1000.89
1002.62
1185.22
1185.96
1185.07
1185.54
1184.43
1186.11
1767.3
1771.64
1768.91
1769.35
1760.99
1776.69
2541.13
2541.78
2537.99
2544.64
2521.16
2527.01
1735.76
1739.75
1738.37
1739.12
1751.73
1748.51
4653.17
4652.84
4652.94
4652.98
4652.91
4653.04
1346.19
1345.7
1345.93
1346.02
1345.88
1346
127.52
127.634
127.592
127.499
127.477
127.599
-35.7229
-35.5894
-35.6417
-35.6733
-35.6393
-35.7363
-54.8748
-55.1948
-55.0816
-54.956
-54.8782
-55.0964
-77.0204
-77.443
-77.2346
-77.1658
-77.0803
-77.238
-52.6469
-52.6997
-52.5812
-52.7421
-52.6327
-52.7624
116.782
116.903
116.858
116.918
117.285
116.482
329.375
329.474
329.443
329.511
329.928
329.136
427.505
429.412
428.506
428.77
426.973
429.747
673.17
673.43
672.002
674.268
671.475
671.228
558.879
557.335
559.02
558.354
561.259
558.793
-68.5377
-68.6844
-68.6454
-68.5652
-68.5479
-68.7109
-104.912
-104.94
-104.939
-104.924
-104.926
-104.934
-41.5397
-41.505
-41.528
-41.534
-41.5368
-41.5352
-45.7164
-45.6135
-45.6636
-45.6824
-45.6953
-45.6737
-51.6702
-51.7364
-51.7129
-51.6471
-51.6347
-51.6966
-89.7683
-90.2208
-89.9734
-89.9489
-89.8372
-89.9671
-111.009
-111.366
-111.198
-111.194
-111.071
-111.299
-23.1452
-22.8463
-22.9931
-23.1009
-23.1615
-23.0832
87.5013
87.7841
87.7235
87.548
86.801
88.3377
128.552
127.939
128.297
128.33
128.54
127.91
142.29
142.08
142.618
141.938
142.435
142.313
-118.731
-120.295
-118.899
-119.316
-117.219
-119.703
2896.21
3082.39
3006.77
3196.58
3328.03
3094.27
1805.81
1979.54
1799.7
2007.98
2079.99
1967.11
991.702
1071.81
993.018
1101.36
1186.08
1188.22
710.775
715.603
805.403
725.614
750.748
828.259
486.331
486.937
504.2
491.962
522.979
576.877
414.624
337.662
384.718
369.4
433.54
458.33
384.851
292.063
282.312
305.34
411.908
445.02
401.998
388.028
388.378
401.354
448.598
421.298
616.672
564.41
488.409
628.756
700.479
577.817
1241.27
1262.02
1085.96
1222.62
1276.12
1341.56
1374.94
1404.7
1528.51
1407.16
1433.88
1430.3
1381.57
1391.41
1418.37
1418.35
1422.2
1423.97
1271.09
1296.31
1290.89
1373.49
1419.67
1479.21
253.877
256.88
256.357
269.426
257.267
261.487
64.5872
45.489
73.0478
49.0903
55.5088
68.1048
-37.5949
-43.2879
-39.0507
-35.6452
-24.6094
-13.4323
-44.0653
-43.6294
-44.0201
-43.4158
-43.1667
-42.7653
-25.3882
-25.2918
-24.72
-25.4059
-29.4349
-29.1187
-13.1496
-14.0495
-13.8466
-13.5305
-14.7076
-12.7599
-6.145
-9.0548
-8.35111
-10.3676
-7.14464
-7.72753
10.0701
7.81885
5.68751
6.24847
19.152
14.1148
125.079
109.5
65.5686
104.909
140.332
101.156
314.842
349.202
313.822
397.346
330.045
463.472
713.317
700.586
654.991
682.737
402.101
732.404
238.848
215.38
227.032
232.479
245.639
358.513
21.912
18.0505
20.057
7.98224
-1.12831
-0.665801
-3.78803
-3.25881
-2.67767
-4.53997
-4.43314
-6.39848
-15.469
-14.2221
-16.3629
-13.1858
-12.5025
-13.9587
-14.2945
-13.8547
-14.021
-13.7734
-14.3122
-14.4907
-21.7932
-20.5448
-21.1976
-20.0622
-21.1393
-19.4871
-19.3896
-18.2266
-17.5917
-18.4467
-21.9527
-19.1779
-23.7629
-21.2866
-21.7623
-25.8615
-28.1478
-25.6849
-31.2227
-30.5073
-29.75
-31.5844
-29.9429
-29.9444
-29.3945
-28.0569
-27.3913
-26.6611
-21.9876
-24.4163
26.8041
25.436
12.7193
37.5618
1.74806
63.9845
228.408
189.359
104.273
121.608
97.6157
142.819
43.2919
25.9566
27.0497
58.0075
62.1056
92.458
-17.021
-14.5118
-15.2808
-19.7573
-23.911
-26.2578
-9.28751
-9.4241
-8.19151
-10.03
-13.2996
-14.1445
-33.7214
-33.682
-33.2137
-32.9565
-32.7451
-32.9915
-32.6641
-32.6879
-32.8311
-33.1181
-33.4262
-33.6823
-35.3059
-35.3779
-35.5797
-34.7464
-34.7813
-35.0836
-29.6273
-29.2192
-29.5171
-30.3973
-30.1559
-29.8648
-32.1553
-31.6262
-32.3262
-33.5034
-33.6086
-33.7306
-35.8824
-35.631
-36.4352
-36.9304
-36.7497
-37.3736
-41.6922
-42.5961
-42.075
-39.4948
-37.4794
-37.1875
-28.707
-30.9604
-34.2767
-29.7095
-26.9318
-25.765
-114.4
-101.853
-94.6396
-195.642
-97.0344
-206.93
1033.29
1034
1033.84
1033.65
1033.86
1033.57
-61.9254
-61.7686
-61.7965
-61.8277
-61.8033
-61.8567
-53.2973
-53.3961
-53.3742
-53.3633
-53.3776
-53.3419
-137.342
-136.962
-137.097
-137.151
-137.051
-137.22
-48.36
-48.2845
-48.3085
-48.31
-48.2944
-48.3146
-56.1904
-56.2359
-56.2121
-56.2133
-56.2269
-56.208
-53.0765
-53.0268
-53.0532
-53.0545
-53.0576
-53.0566
-47.872
-47.867
-47.8708
-47.8692
-47.8831
-47.865
-61.0271
-61.0264
-61.0281
-61.025
-61.028
-61.0241
-59.3956
-59.2661
-59.3347
-59.3429
-59.3783
-59.3218
-54.2215
-54.0689
-54.1449
-54.1644
-54.199
-54.1335
-63.828
-63.7824
-63.806
-63.8079
-63.8212
-63.7997
-54.8061
-54.7851
-54.8177
-54.7493
-54.7677
-54.7933
-47.5678
-47.2943
-47.4489
-47.4288
-47.4786
-47.4307
-59.4802
-59.2716
-59.3713
-59.3884
-59.4117
-59.3652
-72.0172
-72.34
-72.172
-72.1501
-72.073
-72.1933
-47.9311
-47.7887
-47.8661
-47.8033
-47.7928
-47.8996
-52.3085
-52.0521
-52.196
-52.1201
-52.1161
-52.1894
-80.5567
-81.0006
-80.836
-80.7655
-80.6165
-81.0241
-54.3477
-54.7633
-54.6011
-54.4841
-54.3145
-54.8093
-55.7839
-56.0455
-55.9211
-55.8688
-55.7634
-55.9409
-68.2886
-68.4084
-68.4439
-68.3117
-68.4434
-68.41
-75.9556
-76.6789
-76.4047
-76.2913
-76.3535
-76.3042
-91.4349
-92.1069
-91.8013
-91.7943
-91.7291
-91.9191
-61.1405
-61.0237
-61.2526
-60.892
-61.3172
-60.9128
-89.1545
-88.9516
-89.1026
-88.9761
-89.1422
-88.9203
-96.4669
-96.2913
-96.307
-96.522
-96.6176
-96.2974
-49.0446
-49.0199
-49.0375
-49.0106
-49.1058
-48.8861
-77.9995
-77.8444
-77.939
-77.8947
-77.9499
-77.8466
-89.1906
-89.1483
-89.1858
-89.1807
-89.2759
-89.1204
-31.0956
-31.151
-31.0816
-31.1622
-31.0122
-31.1669
-57.5687
-57.5349
-57.5511
-57.5537
-57.5501
-57.55
-77.093
-77.0483
-77.0603
-77.0836
-77.1048
-77.037
24.2365
23.2318
23.7409
23.7853
24.5975
22.9976
-54.1197
-54.1057
-54.1224
-54.1115
-54.1321
-54.1128
-76.931
-76.9227
-76.9309
-76.929
-76.9408
-76.9145
339.497
340.508
344.386
350.548
357.969
347.064
-48.5463
-48.5359
-48.5774
-48.5833
-48.4849
-48.5855
-72.0343
-72.0398
-72.0758
-72.1169
-71.989
-72.0305
401.635
401.798
401.677
400.17
400.003
400.426
-50.4697
-50.5165
-50.608
-50.728
-50.8457
-50.831
-69.5721
-69.586
-69.5913
-69.5461
-69.5195
-69.548
406.585
406.708
406.783
405.1
404.829
405.906
-50.8618
-50.853
-50.8582
-50.8264
-50.819
-50.8297
-68.5672
-68.5697
-68.5582
-68.5221
-68.4954
-68.5167
412.344
412.466
412.478
412.27
412.436
412.687
-51.5746
-51.5836
-51.6025
-51.6227
-51.6388
-51.6468
-68.4727
-68.4724
-68.4692
-68.4631
-68.4579
-68.4593
402.961
403.021
403.064
402.792
402.925
403.263
-51.7083
-51.7117
-51.7207
-51.7314
-51.7407
-51.7442
-69.9292
-69.9309
-69.9312
-69.935
-69.9356
-69.9319
332.786
332.75
332.987
332.068
332.019
333.051
-51.3862
-51.3763
-51.3806
-51.3803
-51.3859
-51.3852
-74.2776
-74.2902
-74.2886
-74.2851
-74.2806
-74.2907
-1.90454
-7.49667
-8.72119
-24.8347
-37.1752
12.1018
-138.806
-116.362
-93.5682
-80.6752
-85.6516
-103.376
-196.19
-175.922
-147.612
-123.683
-110.404
-151.431
-31.6454
-34.1758
-34.0323
-35.1239
-37.9726
-30.0569
-50.4196
-55.4676
-56.5241
-56.9425
-60.0494
-50.5513
-77.6266
-76.9263
-76.3222
-76.3297
-79.4857
-79.0782
-29.0734
-29.7686
-30.4114
-31.0104
-30.6769
-30.3297
-46.7051
-48.1217
-50.1758
-51.3221
-50.5944
-47.9439
-70.108
-70.7493
-70.2089
-67.7033
-67.1014
-64.3988
-38.7298
-39.1275
-39.0341
-39.0663
-38.8928
-38.0683
-54.7956
-55.0902
-55.0703
-55.2841
-55.3688
-54.6477
-68.7283
-68.7885
-68.817
-69.2426
-69.2575
-69.1977
-37.594
-37.6174
-37.7354
-37.8007
-37.8244
-37.7418
-52.1739
-52.2399
-52.3539
-52.3214
-52.3453
-52.2253
-63.9819
-63.9901
-63.9874
-63.8888
-63.8719
-63.7821
-39.6233
-39.4417
-39.5784
-39.6454
-39.657
-39.3815
-53.1416
-53.1336
-53.1977
-53.2252
-53.2695
-53.1897
-63.6832
-63.6832
-63.6971
-63.7312
-63.7356
-63.7135
-37.6383
-37.3648
-37.4536
-37.7286
-37.8552
-37.5598
-51.737
-51.6645
-51.7439
-51.8483
-51.8894
-51.7981
-62.5132
-62.5044
-62.5133
-62.5419
-62.5594
-62.5359
-37.6565
-37.5369
-37.3357
-38.174
-38.9328
-38.7786
-52.6217
-52.5683
-52.5652
-52.8197
-52.9684
-52.8897
-62.578
-62.5894
-62.5609
-62.6451
-62.6958
-62.6937
-40.4106
-40.1777
-39.8827
-40.6745
-40.917
-41.0087
-53.0962
-53.127
-53.2537
-53.4092
-53.5561
-53.6307
-63.0079
-63.0055
-62.9637
-63.0135
-63.0251
-63.0191
-37.9789
-37.8062
-37.2835
-37.1519
-37.2677
-37.3526
-53.407
-53.5252
-53.7683
-53.7024
-53.9469
-53.816
-63.255
-63.2576
-63.1626
-63.1751
-63.1672
-63.1297
-36.7237
-36.618
-36.278
-38.6712
-39.3559
-40.4918
-51.9612
-52.1096
-52.2699
-52.8357
-53.7759
-53.2059
-65.1061
-65.1309
-65.1145
-65.1404
-65.1149
-65.2009
-30.0243
-26.4252
-17.8541
-20.0665
15.2185
-25.0961
-48.5867
-48.7342
-49.3117
-49.1454
-49.8841
-49.4902
-69.602
-69.8181
-70.2095
-70.5433
-71.2862
-70.609
)
;

boundaryField
{
    seabed_topleft_surface
    {
        type            calculated;
        value           nonuniform List<scalar> 
72
(
23534.6
23534.9
23534.7
23534.7
23534.8
23534.7
23017.1
23017.4
23017.2
23017.2
23017.2
23017.2
20136.7
20136.7
20136.7
20136.7
20136.8
20136.7
17096.5
17096.4
17096.4
17096.5
17096.5
17096.5
14864.4
14864.3
14864.3
14864.6
14864.6
14864.3
13252.9
13253
13252.8
13253.2
13253.1
13253
12193.1
12193.7
12193.5
12193.5
12193.1
12193.7
11518.4
11519.4
11519.2
11518.8
11518.7
11519
11534.4
11534.2
11533.5
11535.2
11536.2
11531.3
12182.3
12185.3
12184
12182.2
12179.1
12186
13129.4
13125.4
13126
13127.2
13129
13115.5
12355.5
12348.5
12351.7
12355.1
12366.5
12346.5
)
;
    }
    seabed_topright_surface
    {
        type            calculated;
        value           nonuniform List<scalar> 
72
(
3350.5
3538.11
3463.2
3653.27
3784.71
3513.98
2209.88
2353.57
2202.61
2455.41
2536.68
2423.74
1122.27
1293.42
1061.58
1380.48
1642.71
1439.25
981.362
1139.76
1086.04
1072.53
1190.39
1151.48
909.928
915.577
938.707
930.392
961.598
1039.94
834.398
655.813
743.999
729.072
873.88
921.359
783.663
569.597
525.813
606.575
836.416
904.299
826.356
796.322
788.929
816.028
895.019
880.277
1056.21
1009.18
935.598
1078.88
1153.1
1035.38
1677.92
1703.67
1531.31
1670.44
1726.29
1722.46
1808.78
1843.2
1972.05
1852.9
1881.69
1628.76
1586.71
1605.92
1666.01
1639.45
1867.73
1621.53
)
;
    }
    breakwater_top_surface
    {
        type            calculated;
        value           nonuniform List<scalar> 
36
(
750.114
751.766
759.756
773.538
787.011
765.045
856.69
856.957
856.744
853.654
853.026
854.669
863.822
864.099
864.201
860.587
859.846
862.305
876.267
876.499
876.541
876.115
876.441
876.989
865.453
865.633
865.715
865.14
865.401
866.156
754.789
754.859
755.348
753.298
753.121
755.522
)
;
    }
    breakwater_left_surface
    {
        type            calculated;
        value           nonuniform List<scalar> 
24
(
7866.71
7859.46
7862.86
7866.18
7877.68
7857.06
1739.73
1743.7
1742.32
1743.09
1755.71
1752.45
559.316
557.771
559.456
558.79
561.695
559.229
-118.233
-119.797
-118.401
-118.817
-116.721
-119.205
)
;
    }
    breakwater_right_surface
    {
        type            calculated;
        value           nonuniform List<scalar> 
24
(
1382.27
1392.15
1419.22
1419.11
1423.72
1424.64
714.031
701.47
656.53
684.121
402.887
733.736
229.877
190.849
105.782
123.087
97.826
144.124
-113.602
-101.148
-94.2108
-195.096
-96.1757
-206.077
)
;
    }
    water_front_surface
    {
        type            calculated;
        value           nonuniform List<scalar> 
186
(
20858
18704.1
15340.3
12300.1
10083.3
8536.72
7559.42
6947.62
6992.41
7646.16
8601.45
7851.28
14495.1
9118.14
4790.55
2915.71
2023.41
1504.2
1180.98
1001.33
1185.22
1767.3
2541.13
1735.76
4653.17
1346.19
127.52
-35.7229
-54.8748
-77.0204
-52.6469
116.782
329.375
427.505
673.17
558.879
-68.5377
-104.912
-41.5397
-45.7164
-51.6702
-89.7683
-111.009
-23.1452
87.5013
128.552
142.29
-118.731
2896.21
1805.81
991.702
710.775
486.331
414.624
384.851
401.998
616.672
1241.27
1374.94
1381.57
1271.09
253.877
64.5872
-37.5949
-44.0653
-25.3882
-13.1496
-6.145
10.0701
125.079
314.842
713.317
238.848
21.912
-3.78803
-15.469
-14.2945
-21.7932
-19.3896
-23.7629
-31.2227
-29.3945
26.8041
228.408
43.2919
-17.021
-9.28751
-33.7214
-32.6641
-35.3059
-29.6273
-32.1553
-35.8824
-41.6922
-28.707
-114.4
1033.29
-61.9254
-53.2973
-137.342
-48.36
-56.1904
-53.0765
-47.872
-61.0271
-59.3956
-54.2215
-63.828
-54.8061
-47.5678
-59.4802
-72.0172
-47.9311
-52.3085
-80.5567
-54.3477
-55.7839
-68.2886
-75.9556
-91.4349
-61.1405
-89.1545
-96.4669
-49.0446
-77.9995
-89.1906
-31.0956
-57.5687
-77.093
24.2365
-54.1197
-76.931
339.497
-48.5463
-72.0343
401.635
-50.4697
-69.5721
406.585
-50.8618
-68.5672
412.344
-51.5746
-68.4727
402.961
-51.7083
-69.9292
332.786
-51.3862
-74.2776
-1.90454
-138.806
-196.19
-31.6454
-50.4196
-77.6266
-29.0734
-46.7051
-70.108
-38.7298
-54.7956
-68.7283
-37.594
-52.1739
-63.9819
-39.6233
-53.1416
-63.6832
-37.6383
-51.737
-62.5132
-37.6565
-52.6217
-62.578
-40.4106
-53.0962
-63.0079
-37.9789
-53.407
-63.255
-36.7237
-51.9612
-65.1061
-30.0243
-48.5867
-69.602
)
;
    }
    water_back_surface
    {
        type            calculated;
        value           nonuniform List<scalar> 
186
(
20858.1
18704.1
15340.3
12300
10083.3
8536.77
7559.98
6948.19
6989.27
7649.85
8587.87
7841.63
14495.2
9118.19
4790.48
2915.73
2023.28
1503.76
1181.4
1002.62
1186.11
1776.69
2527.01
1748.51
4653.04
1346
127.599
-35.7363
-55.0964
-77.238
-52.7624
116.482
329.136
429.747
671.228
558.793
-68.7109
-104.934
-41.5352
-45.6737
-51.6966
-89.9671
-111.299
-23.0832
88.3377
127.91
142.313
-119.703
3094.27
1967.11
1188.22
828.259
576.877
458.33
445.02
421.298
577.817
1341.56
1430.3
1423.97
1479.21
261.487
68.1048
-13.4323
-42.7653
-29.1187
-12.7599
-7.72753
14.1148
101.156
463.472
732.404
358.513
-0.665801
-6.39848
-13.9587
-14.4907
-19.4871
-19.1779
-25.6849
-29.9444
-24.4163
63.9845
142.819
92.458
-26.2578
-14.1445
-32.9915
-33.6823
-35.0836
-29.8648
-33.7306
-37.3736
-37.1875
-25.765
-206.93
1033.57
-61.8567
-53.3419
-137.22
-48.3146
-56.208
-53.0566
-47.865
-61.0241
-59.3218
-54.1335
-63.7997
-54.7933
-47.4307
-59.3652
-72.1933
-47.8996
-52.1894
-81.0241
-54.8093
-55.9409
-68.41
-76.3042
-91.9191
-60.9128
-88.9203
-96.2974
-48.8861
-77.8466
-89.1204
-31.1669
-57.55
-77.037
22.9976
-54.1128
-76.9145
347.064
-48.5855
-72.0305
400.426
-50.831
-69.548
405.906
-50.8297
-68.5167
412.687
-51.6468
-68.4593
403.263
-51.7442
-69.9319
333.051
-51.3852
-74.2907
12.1018
-103.376
-151.431
-30.0569
-50.5513
-79.0782
-30.3297
-47.9439
-64.3988
-38.0683
-54.6477
-69.1977
-37.7418
-52.2253
-63.7821
-39.3815
-53.1897
-63.7135
-37.5598
-51.7981
-62.5359
-38.7786
-52.8897
-62.6937
-41.0087
-53.6307
-63.0191
-37.3526
-53.816
-63.1297
-40.4918
-53.2059
-65.2009
-25.0961
-49.4902
-70.609
)
;
    }
    water_left_surface
    {
        type            calculated;
        value           nonuniform List<scalar> 
42
(
20867.2
20867.5
20867.3
20867.3
20867.4
20867.3
14507.4
14508.2
14507.8
14507.8
14508.1
14507.6
4664.33
4664.01
4664.11
4664.14
4664.08
4664.2
-59.8852
-60.0304
-59.9923
-59.9121
-59.894
-60.0582
1033.29
1034
1033.84
1033.65
1033.86
1033.57
-61.9254
-61.7686
-61.7965
-61.8277
-61.8033
-61.8567
-53.2973
-53.3961
-53.3742
-53.3633
-53.3776
-53.3419
)
;
    }
    water_right_surface
    {
        type            calculated;
        value           nonuniform List<scalar> 
42
(
2897.77
3083.95
3008.33
3198.14
3329.59
3095.71
1272.57
1297.83
1292.42
1374.94
1421.05
1480.62
240.271
216.584
228.162
233.842
246.842
359.876
44.3641
26.3982
27.6087
58.8634
62.7486
93.4876
-1.90454
-7.49667
-8.72119
-24.8347
-37.1752
12.1018
-138.806
-116.362
-93.5682
-80.6752
-85.6516
-103.376
-196.19
-175.922
-147.612
-123.683
-110.404
-151.431
)
;
    }
    water_top_surface
    {
        type            calculated;
        value           nonuniform List<scalar> 
180
(
-69.1917
-69.1691
-69.1764
-69.1792
-69.1734
-69.181
-68.6765
-68.6765
-68.6765
-68.6765
-68.6765
-68.6765
-69.7319
-69.7409
-69.7368
-69.7369
-69.7412
-69.7349
-71.6762
-71.655
-71.6659
-71.6681
-71.6759
-71.661
-68.7687
-68.7472
-68.7571
-68.7602
-68.7654
-68.7544
-68.6712
-68.6719
-68.6716
-68.6715
-68.6714
-68.6716
-77.8522
-79.674
-78.8702
-78.5762
-78.4238
-78.8619
-104.783
-107.213
-106.415
-105.619
-105.296
-106.87
-80.7404
-80.4555
-80.5881
-80.7908
-80.6868
-80.668
-86.2863
-87.2154
-87.0788
-86.4711
-86.6192
-86.949
-85.9857
-85.9399
-85.9507
-85.9799
-86.0715
-85.8704
-75.9474
-75.9548
-75.951
-75.9516
-75.9672
-75.9371
-69.776
-69.7559
-69.7717
-69.9482
-70.0206
-69.9245
-70.7893
-70.8028
-70.8109
-70.8506
-70.8707
-70.8641
-70.4758
-70.475
-70.4703
-70.4523
-70.4612
-70.437
-71.0648
-71.0682
-71.0669
-71.0659
-71.0738
-71.0483
-72.2207
-72.2222
-72.22
-72.2247
-72.2338
-72.2044
-72.8686
-72.8633
-72.8623
-72.8666
-72.8762
-72.8517
-865.21
-1083.19
-911.055
-191.764
-102.792
-1334.05
-68.931
-68.946
-68.7519
-68.7403
-70.7054
-70.3837
-70.829
-70.6943
-71.963
-70.7832
-71.6346
-69.1644
-76.7481
-76.7989
-76.4642
-76.9969
-77.0392
-76.2254
-70.6505
-70.6682
-70.672
-70.5699
-70.6018
-70.6
-69.9531
-69.95
-69.9684
-69.9659
-69.9777
-69.9575
-68.9655
-68.9642
-68.9789
-68.9975
-69.0097
-68.9904
-69.0326
-69.0385
-69.0551
-69.0966
-69.1296
-69.1102
-69.121
-69.1372
-69.1586
-69.1887
-69.2267
-69.2207
-70.0853
-70.1622
-70.2222
-70.2622
-70.3258
-70.2891
-71.2307
-71.3141
-71.3215
-71.523
-71.6631
-71.4851
-69.2457
-69.2742
-69.2959
-69.4033
-69.6912
-69.4469
)
;
    }
}


// ************************************************************************* //
