/*--------------------------------*- C++ -*----------------------------------*\
| =========                 |                                                 |
| \\      /  F ield         | OpenFOAM: The Open Source CFD Toolbox           |
|  \\    /   O peration     | Version:  v1612+                                |
|   \\  /    A nd           | Web:      www.OpenFOAM.com                      |
|    \\/     M anipulation  |                                                 |
\*---------------------------------------------------------------------------*/
FoamFile
{
    version     2.0;
    format      ascii;
    class       volVectorField;
    location    "6.2";
    object      U;
}
// * * * * * * * * * * * * * * * * * * * * * * * * * * * * * * * * * * * * * //

dimensions      [0 1 -1 0 0 0 0];

internalField   nonuniform List<vector> 
1116
(
(-0.849036 -0.000203004 0.330383)
(-0.849335 -0.00010365 0.330303)
(-0.849198 0.000128057 0.330346)
(-0.849128 -3.49978e-05 0.330345)
(-0.849211 4.38002e-05 0.330303)
(-0.849108 0.000108193 0.330361)
(-1.81748 -0.000114677 0.370521)
(-1.8179 -3.6623e-05 0.370452)
(-1.81767 6.32247e-05 0.370484)
(-1.81759 -2.57293e-05 0.370504)
(-1.81772 2.3918e-05 0.370481)
(-1.81759 4.01817e-05 0.370512)
(-2.12532 -4.33617e-05 0.325509)
(-2.12565 2.93766e-06 0.325375)
(-2.12544 1.37827e-05 0.325437)
(-2.12539 -1.15115e-05 0.325477)
(-2.12549 8.56171e-06 0.325408)
(-2.12542 -2.14496e-07 0.325497)
(-2.3651 -2.5658e-06 0.206842)
(-2.36545 2.42923e-05 0.206782)
(-2.36521 -9.8534e-06 0.206821)
(-2.36523 5.66883e-06 0.206875)
(-2.36531 1.49467e-06 0.206808)
(-2.3652 -2.73017e-05 0.206851)
(-2.44273 1.18912e-05 0.0852822)
(-2.44298 8.87183e-06 0.085322)
(-2.44278 1.61423e-05 0.085307)
(-2.44291 6.42032e-05 0.0854122)
(-2.44294 -3.97155e-05 0.0853745)
(-2.44275 -9.03106e-05 0.0852812)
(-2.36707 -0.0001045 0.00830954)
(-2.36757 -0.000121822 0.0083305)
(-2.36731 0.000209097 0.0082798)
(-2.36735 0.000211619 0.0085432)
(-2.36733 -0.000168352 0.00861596)
(-2.36724 -0.000198489 0.00814308)
(-2.22368 -9.07205e-05 -0.081686)
(-2.22528 -0.000251134 -0.0818743)
(-2.22466 0.000332004 -0.0818516)
(-2.22426 0.000246999 -0.08139)
(-2.22425 -0.000250519 -0.0810018)
(-2.22453 -6.32602e-05 -0.0822787)
(-2.08 0.000301415 -0.257191)
(-2.08209 -0.000197834 -0.257473)
(-2.08137 0.000209252 -0.257288)
(-2.08071 0.000101607 -0.256939)
(-2.08113 -0.000226967 -0.256086)
(-2.08096 0.000294364 -0.258277)
(-1.8291 0.000991982 -0.539207)
(-1.83079 0.000218652 -0.539496)
(-1.83077 -0.000179214 -0.539014)
(-1.82934 -0.000249497 -0.5393)
(-1.83043 0.00025045 -0.537935)
(-1.82991 0.000698382 -0.540654)
(-1.47061 0.00144791 -0.762054)
(-1.46576 0.00060073 -0.761054)
(-1.46676 -0.000535048 -0.760527)
(-1.47064 -0.00111564 -0.762717)
(-1.47591 0.00123292 -0.762423)
(-1.46157 0.00164576 -0.761293)
(-0.860961 0.000804466 -0.784515)
(-0.848378 0.00105266 -0.779618)
(-0.850588 -0.00119723 -0.77985)
(-0.860209 -0.00228597 -0.784832)
(-0.87003 0.00225423 -0.788954)
(-0.839598 0.00176111 -0.775675)
(-0.209213 -0.000863752 -0.192247)
(-0.201838 0.000318794 -0.188561)
(-0.203225 -8.95523e-05 -0.189357)
(-0.208462 -8.16761e-05 -0.191526)
(-0.215683 0.000220349 -0.195098)
(-0.200001 -0.00118824 -0.186517)
(-1.79816 -6.40076e-05 2.36241)
(-1.79888 -1.46475e-05 2.36152)
(-1.7985 2.91525e-05 2.36193)
(-1.79851 -2.25847e-05 2.36204)
(-1.79869 2.96203e-05 2.36173)
(-1.79833 3.84632e-05 2.36221)
(-2.66863 1.97627e-05 0.912776)
(-2.669 1.02757e-05 0.912238)
(-2.66878 -3.01604e-05 0.912494)
(-2.66884 3.56381e-05 0.912561)
(-2.66891 7.28847e-06 0.912413)
(-2.6687 -3.61999e-05 0.912653)
(-2.63061 -7.07013e-05 0.271447)
(-2.63104 -6.54996e-05 0.271339)
(-2.63083 4.73002e-05 0.271394)
(-2.63086 2.27597e-05 0.271441)
(-2.63095 2.62409e-05 0.271422)
(-2.6307 5.36833e-05 0.2714)
(-2.0851 -0.000440139 0.0593966)
(-2.08563 -0.000305255 0.059494)
(-2.08541 0.000289464 0.0594541)
(-2.08539 1.09415e-05 0.0595251)
(-2.08554 0.000123503 0.0596042)
(-2.08518 0.000262364 0.0593197)
(-1.24725 -0.00044902 -0.141182)
(-1.24835 -0.000294268 -0.140941)
(-1.24797 0.000272074 -0.141092)
(-1.24775 -8.38719e-05 -0.140887)
(-1.24811 0.000224263 -0.140712)
(-1.24753 0.000431131 -0.141336)
(-0.198205 0.000373233 -0.291011)
(-0.200516 0.000267326 -0.290802)
(-0.199792 -0.000468405 -0.291048)
(-0.199097 -0.000719085 -0.290598)
(-0.199781 0.000627583 -0.290423)
(-0.198957 0.00106634 -0.291277)
(0.870905 0.00081253 -0.341648)
(0.869724 0.000445361 -0.341595)
(0.869916 -0.000832676 -0.341821)
(0.870188 -0.000912166 -0.341201)
(0.868422 0.000644393 -0.341029)
(0.871698 0.00126915 -0.342007)
(1.58368 0.00132746 -0.277019)
(1.58391 0.000530967 -0.276649)
(1.58319 -0.00132208 -0.276985)
(1.58392 -0.00202044 -0.276537)
(1.58323 0.00163265 -0.277174)
(1.58438 0.00333445 -0.27641)
(1.91322 -0.000283999 -0.224249)
(1.92279 0.000148789 -0.224384)
(1.92203 -0.000188895 -0.224369)
(1.91279 -0.000605827 -0.223913)
(1.90502 0.00139733 -0.223786)
(1.92676 0.00206684 -0.224558)
(0.631853 -0.0121587 -0.178613)
(0.634071 -0.00523291 -0.187181)
(0.638661 0.00832295 -0.184901)
(0.627233 0.0172446 -0.179306)
(0.632763 -0.0167229 -0.17118)
(0.639451 -0.0304745 -0.19303)
(0.743368 -0.011084 -0.586497)
(0.660366 -0.00215926 -0.582164)
(0.675886 0.00517057 -0.581744)
(0.739043 0.0148083 -0.587001)
(0.8092 -0.00873089 -0.589173)
(0.596281 -0.0212703 -0.577621)
(-1.08565 0.00401595 -0.639943)
(-1.14775 0.00097828 -0.626079)
(-1.13694 -0.0036506 -0.628009)
(-1.09135 -0.00803092 -0.638804)
(-1.05422 0.00617513 -0.650545)
(-1.15449 0.0182925 -0.618413)
(-2.3061 0.000469022 3.54919)
(-2.30717 0.000298992 3.54969)
(-2.30661 -0.000216773 3.54953)
(-2.30666 5.38075e-05 3.54948)
(-2.30691 -7.26415e-05 3.54949)
(-2.30641 -0.000164222 3.54939)
(-1.43091 -0.000298751 1.01112)
(-1.43128 -0.000195908 1.01067)
(-1.43111 0.00016108 1.01087)
(-1.43118 -9.1456e-05 1.01088)
(-1.43128 0.000127508 1.01088)
(-1.43091 0.000272091 1.01097)
(1.36637 -0.00111453 0.147044)
(1.36667 -0.000622337 0.146994)
(1.36682 0.000857263 0.147022)
(1.36626 -6.9404e-06 0.147003)
(1.36588 5.54713e-05 0.146967)
(1.36687 0.000383437 0.147103)
(5.1394 -0.0130085 -1.41057)
(5.12002 -0.00697853 -1.41661)
(5.12666 0.009388 -1.41453)
(5.13599 0.00512969 -1.41219)
(5.134 -0.00189651 -1.41377)
(5.12872 -0.00354639 -1.41267)
(9.59643 -0.0085345 -2.56983)
(9.52651 -0.00130431 -2.57689)
(9.54818 0.00328628 -2.57425)
(9.58286 -0.000376351 -2.57258)
(9.57966 0.00214727 -2.57415)
(9.55244 0.00121004 -2.57158)
(12.6749 0.0278855 -2.61096)
(12.6553 0.020649 -2.5997)
(12.6548 -0.0238121 -2.60218)
(12.6781 -0.0180965 -2.61021)
(12.6713 0.0116824 -2.61329)
(12.6607 0.0182683 -2.6007)
(14.467 0.040067 -1.08275)
(14.5081 0.0236035 -1.07928)
(14.4805 -0.0283593 -1.07767)
(14.4947 -0.0161664 -1.0839)
(14.4802 0.0102631 -1.08468)
(14.4965 0.0197396 -1.07845)
(10.7408 0.0363857 0.20131)
(10.8876 0.0218517 0.196447)
(10.8179 -0.0362687 0.1972)
(10.8086 -0.0538216 0.199944)
(10.7633 0.0509891 0.205854)
(10.8527 0.0859409 0.193095)
(-1.28178 -0.0112512 1.93369)
(-0.97459 0.00536799 1.94443)
(-0.999478 -0.00842315 1.94702)
(-1.28126 -0.0437403 1.93171)
(-1.592 0.0431698 1.90577)
(-0.759323 0.0901039 1.96899)
(-2.82085 -0.0913514 0.807934)
(-2.78568 -0.0335883 0.798744)
(-2.7895 0.0519738 0.796645)
(-2.81853 0.111426 0.813279)
(-2.92855 -0.0987078 0.822096)
(-2.7115 -0.16965 0.788205)
(0.712221 -0.0272937 0.616058)
(0.29247 -0.00250287 0.590408)
(0.379132 0.0127452 0.603401)
(0.662317 0.0463027 0.601642)
(0.967156 -0.0235163 0.625537)
(0.0454777 -0.0406221 0.577723)
(-1.09904 0.0587322 0.182128)
(-1.28706 0.027311 0.102319)
(-1.25361 -0.0395444 0.124967)
(-1.12948 -0.0681974 0.166763)
(-0.987071 0.0566703 0.229835)
(-1.27549 0.123263 0.079397)
(-3.53991 -0.000481534 5.69057)
(-3.54025 -0.000294123 5.69434)
(-3.54004 0.00013309 5.69292)
(-3.5401 -5.73994e-05 5.69244)
(-3.54019 0.000131868 5.69328)
(-3.5401 0.000151136 5.69179)
(0.958571 -0.00551508 -2.44192)
(0.960466 -0.00311085 -2.448)
(0.960118 0.00289528 -2.44618)
(0.959032 -0.00147989 -2.44507)
(0.959566 0.0020738 -2.44648)
(0.960257 0.00332342 -2.44371)
(-6.15994 -0.0158611 -6.0906)
(-6.16451 -0.00817023 -6.08546)
(-6.16163 0.0122451 -6.08698)
(-6.16175 0.00654119 -6.09054)
(-6.16521 -0.00288654 -6.09188)
(-6.15599 -0.00543171 -6.08657)
(-1.48958 -0.0367358 -5.23089)
(-1.60735 -0.018292 -5.26416)
(-1.56851 0.0252697 -5.2524)
(-1.51135 0.0183852 -5.2393)
(-1.51357 -0.0105158 -5.24972)
(-1.56179 -0.0205083 -5.23987)
(-3.6993 -0.0167678 -6.74868)
(-3.99111 -0.000646551 -6.74696)
(-3.8976 -0.000323462 -6.74571)
(-3.76154 0.00308395 -6.75237)
(-3.73777 -0.00301304 -6.76913)
(-3.90635 -0.0107101 -6.72804)
(-4.20761 0.0717249 -5.13388)
(-4.4875 0.050348 -4.94345)
(-4.38459 -0.0585118 -5.00607)
(-4.29596 -0.0381519 -5.08912)
(-4.25657 0.0239541 -5.11973)
(-4.40713 0.0410844 -4.99698)
(-3.65034 0.0570049 3.61976)
(-3.5044 0.0379831 3.73885)
(-3.54248 -0.0391179 3.686)
(-3.61643 -0.0321048 3.66671)
(-3.64927 0.0302968 3.65477)
(-3.52943 0.0508062 3.68648)
(-2.63589 -0.00397329 9.35415)
(-2.56472 -0.000230263 9.38103)
(-2.54697 7.28799e-05 9.39658)
(-2.64582 -0.0123544 9.34531)
(-2.71411 0.0195522 9.27625)
(-2.46701 0.0338321 9.47347)
(-8.39103 -0.00856375 4.1721)
(-8.40602 -0.0068029 4.21501)
(-8.37767 0.00660526 4.23594)
(-8.42586 0.00868636 4.15566)
(-8.4538 -0.00907701 3.99856)
(-8.33707 -0.00864459 4.39612)
(-6.66621 0.00222447 -0.840362)
(-6.69157 -0.00131193 -0.846611)
(-6.67273 -0.000274019 -0.83358)
(-6.68801 -0.00423403 -0.853309)
(-6.69264 0.00214463 -0.903823)
(-6.65848 0.0106007 -0.779905)
(-4.36213 0.0150243 -3.19422)
(-4.38042 0.00540252 -3.25218)
(-4.36544 -0.00732702 -3.22756)
(-4.38236 -0.0125982 -3.21937)
(-4.38262 0.00907781 -3.18892)
(-4.35659 0.0207751 -3.24862)
(-2.1337 0.0152726 -2.00016)
(-2.16805 0.00700636 -2.0439)
(-2.15698 -0.00813594 -2.03132)
(-2.14503 -0.0112509 -2.01173)
(-2.13082 0.00977402 -1.9819)
(-2.17914 0.0190452 -2.05773)
(0.833868 -0.381468 0.538691)
(1.49014 -0.0960541 0.343724)
(0.941544 -0.423941 0.580276)
(1.90673 -0.751526 0.200195)
(3.34738 0.258063 -0.205488)
(0.468208 1.27762 0.842451)
(3.14633 -0.354526 -0.805874)
(4.78882 0.016726 -1.49615)
(3.33002 -0.190362 -1.08591)
(4.71705 -0.434103 -1.2508)
(6.3183 -0.103901 -1.6537)
(1.86686 0.345738 -0.196651)
(5.5276 -0.41187 -1.47238)
(7.96909 0.0854595 -2.65567)
(5.21992 -0.41329 -1.37017)
(7.28215 -0.322453 -2.2473)
(8.35042 -0.15923 -2.3744)
(4.69396 -0.0661297 -1.4645)
(7.59691 -0.0509048 -2.18356)
(9.20696 0.133022 -3.19287)
(8.29258 0.0326377 -2.91085)
(8.2925 0.351042 -2.69104)
(8.66974 -0.030494 -2.26206)
(6.66616 -0.180587 -2.27903)
(7.92042 0.0957707 -2.60255)
(8.83861 0.147453 -3.28998)
(8.58987 -0.055362 -3.63386)
(8.25268 0.361226 -2.88323)
(8.34068 0.0123312 -1.96408)
(7.35525 -0.147641 -2.75189)
(7.55152 0.0621883 -2.43404)
(8.24956 0.178834 -3.21533)
(7.91393 -0.174368 -3.72035)
(7.75032 0.233644 -2.74689)
(7.85802 0.0320277 -1.60652)
(7.46937 -0.0756999 -2.86681)
(7.40156 -0.129545 -2.18538)
(8.00311 0.271392 -3.20001)
(7.7206 -0.187907 -3.75221)
(7.50774 0.0722924 -2.61006)
(7.3242 -0.000382929 -1.23306)
(7.41405 0.00641164 -2.80681)
(7.02521 -0.317107 -1.8685)
(7.71797 0.270009 -3.19423)
(7.66762 -0.144994 -3.80301)
(7.242 0.201611 -2.56365)
(6.70187 0.112742 -0.928894)
(7.06582 0.0430512 -2.67382)
(6.04262 -0.306453 -1.70235)
(6.73396 0.414947 -3.10043)
(6.94922 -0.0598296 -3.77562)
(6.37084 0.373061 -2.58797)
(5.61387 0.106414 -0.698182)
(6.17817 -0.0609546 -2.51319)
(4.08556 -0.310299 -1.88676)
(4.76846 0.321889 -3.01132)
(5.37436 0.0538812 -3.78066)
(4.65986 0.744434 -2.68776)
(3.63279 0.0285944 -0.610539)
(4.32816 -0.313409 -2.30518)
(1.58095 -0.218852 -1.58179)
(2.14914 -0.0904897 -2.2987)
(3.16575 -0.0393875 -3.82966)
(2.27112 1.08326 -2.36011)
(0.998239 0.332021 -0.385441)
(1.60478 -0.444662 -1.38821)
(-1.98607 -0.126485 0.823513)
(-2.13534 -0.392495 0.582234)
(-0.995622 0.0680676 -0.642885)
(-1.81075 0.712442 0.600338)
(-1.96374 0.245145 0.468278)
(-2.46523 -0.129465 2.02231)
(2.39616 -0.155484 3.61619)
(3.11134 0.0823329 4.1573)
(2.25284 -0.328928 4.42531)
(3.40494 -0.468917 3.67833)
(5.31833 0.107593 3.54398)
(0.835207 1.30395 4.18064)
(4.6622 -0.28699 5.02875)
(5.69673 -0.0669072 5.18687)
(4.99639 -0.418061 5.15803)
(5.68557 -0.291707 4.57853)
(7.52887 -0.541716 3.63572)
(3.17747 0.107798 4.25463)
(7.18192 -0.0421081 5.56036)
(8.11027 -0.0640847 5.24269)
(7.77621 -0.520462 6.84902)
(8.33786 -0.0745131 3.94228)
(8.8939 -0.84784 3.33902)
(6.50425 -0.408005 4.18641)
(6.51945 0.0477723 3.03629)
(5.19019 -0.109861 2.97519)
(7.61988 -0.475142 3.50021)
(5.64688 -0.44644 2.93664)
(6.127 -0.794516 2.57678)
(6.03844 -0.162472 3.24166)
(-0.810303 -0.189517 1.13383)
(-0.970206 -0.410573 1.73904)
(0.16357 -1.13653 1.52304)
(-0.254381 -1.12108 1.46665)
(2.20307 0.0523731 1.55736)
(2.73845 0.447978 2.4037)
(-1.72696 -0.593046 0.66197)
(-2.09189 0.552661 2.43818)
(-0.122576 -0.898699 1.49674)
(2.28063 -0.444621 0.984846)
(2.55946 0.124482 0.773983)
(-1.39704 0.728343 2.55667)
(-1.18644 0.218619 1.05089)
(-0.401847 0.538934 2.61309)
(-2.80407 0.208702 3.49319)
(1.33103 -0.384152 1.50099)
(2.26991 -0.39981 -0.0803732)
(2.47689 0.500645 2.11071)
(4.81216 0.110765 0.902187)
(4.08438 0.132608 1.5633)
(3.51638 -1.06937 2.95305)
(3.97965 -1.14567 0.94414)
(5.11557 -0.281159 -0.605638)
(6.26184 1.26387 2.07547)
(6.0452 -0.106858 -1.28926)
(5.65248 0.174528 -0.555329)
(6.30011 -1.09018 2.23681)
(6.30571 -1.22869 -0.537788)
(7.09787 -0.222393 -1.55669)
(6.97668 1.02542 0.479737)
(5.69941 -0.0755331 -4.02996)
(5.91037 0.44297 -4.27059)
(5.98307 -0.741733 -1.81322)
(6.06731 -0.936194 -3.217)
(6.17846 -0.485604 -2.73629)
(5.57637 0.51589 -4.66113)
(3.86514 -0.0751424 -3.52896)
(4.30392 0.511406 -4.11653)
(4.41104 -0.150006 -5.62175)
(3.8298 -0.0357059 -3.52414)
(3.77537 -0.704917 -2.33866)
(3.90984 -0.194932 -4.96464)
(0.213318 0.0782389 0.418964)
(0.96664 0.537788 -0.492107)
(2.16988 0.241394 -3.01521)
(1.17473 0.954723 -0.96169)
(-1.86624 -0.369739 1.78254)
(1.05664 -0.583701 -1.19855)
(2.73362 -0.158749 6.55191)
(3.27301 0.0287175 7.74629)
(2.08475 -0.0509213 7.71445)
(3.88088 0.112632 6.67206)
(5.91456 0.0868566 7.18594)
(0.967588 0.955178 7.00634)
(1.85296 -0.0740296 7.74827)
(1.85621 -0.0227323 8.78759)
(2.26595 -0.0197545 8.27963)
(1.66841 0.701663 8.16838)
(2.14498 0.0201241 6.58129)
(0.542338 0.254707 6.75846)
(2.02368 0.00898765 2.72335)
(1.46795 0.0596003 0.401202)
(2.14924 0.136121 2.68293)
(1.79587 0.641086 -0.701329)
(2.41086 0.284689 -3.52206)
(4.59801 -0.290749 2.1156)
(-0.572379 0.0372223 -6.71691)
(-0.626344 0.00892061 -7.0643)
(-0.325931 0.0694553 -6.38083)
(-0.392457 0.177289 -6.66302)
(-0.406651 0.382205 -6.04612)
(-0.159403 0.22271 -6.01235)
(1.80449 -0.0728539 -6.08325)
(1.9917 -0.0368477 -5.87545)
(1.40281 0.019105 -6.24427)
(1.82345 -0.0964895 -5.64734)
(1.66347 -0.172614 -5.52444)
(1.73536 -0.0930951 -5.8331)
(0.998945 -0.300294 -1.99581)
(0.598162 -0.0511631 -1.10789)
(0.945235 -0.0246241 -2.58441)
(0.772727 -0.371178 -2.58203)
(0.665991 -0.669951 -2.8587)
(0.386023 -0.37898 -1.09321)
(-0.428436 -0.047395 2.19661)
(-0.223589 0.218667 3.47669)
(-1.32278 0.159545 2.79221)
(0.253138 0.801603 -0.415894)
(0.39953 -0.57983 -0.852061)
(1.31689 -0.237083 3.8284)
(1.32277 -0.122821 3.40444)
(1.37385 -0.309434 4.07316)
(1.0168 -0.429358 4.99667)
(-1.09094 1.09153 1.36534)
(-1.79692 -0.375436 -1.08895)
(3.25484 0.575041 3.16582)
(-1.34685 -0.258569 -0.0933692)
(0.37156 -0.672009 3.17758)
(2.46444 -0.742526 3.17651)
(-0.428489 0.0955507 -0.468174)
(-0.55138 0.290848 -3.90359)
(1.00138 0.558769 -1.46863)
(2.31736 -0.0202173 -4.49938)
(2.92667 -0.000418298 -3.86222)
(3.16998 -0.685343 -1.98719)
(2.89665 -1.04424 -5.55499)
(3.24739 -0.0922648 -6.98989)
(2.40475 0.58216 -4.63019)
(3.01404 0.151833 -5.57598)
(3.05578 0.390843 -5.96433)
(2.17012 -0.309161 -6.13783)
(2.54968 -0.906167 -6.0053)
(4.03371 -0.103148 -5.67208)
(3.24111 0.71363 -6.85207)
(2.59665 0.0533807 -3.35426)
(2.92324 0.24692 -3.95378)
(3.21963 -0.145199 -4.90464)
(2.30439 -0.646096 -3.0207)
(-0.953063 -0.294799 3.6906)
(2.5079 0.609495 -3.98285)
(2.17335 -0.371435 8.03709)
(2.39391 -0.0446543 8.76653)
(1.2604 -0.0271445 8.35149)
(3.6993 0.310697 8.31157)
(5.82603 0.0770078 9.21722)
(1.06589 0.683813 7.92816)
(-1.5443 -0.429804 8.43524)
(0.522462 -0.255792 7.92263)
(0.84198 0.382448 7.49248)
(-1.02867 1.52646 7.8543)
(-1.92404 1.14479 7.7073)
(-1.54674 0.683311 8.7528)
(2.30779 0.441441 0.301267)
(3.18481 0.542616 -0.684984)
(2.7672 0.185847 -0.39444)
(3.26576 0.504078 -0.665899)
(3.65333 -0.367697 -0.430658)
(1.75767 -0.460429 1.30738)
(-0.79754 0.0951817 -1.12083)
(-0.764055 0.00626068 -0.923673)
(-0.626648 -0.164533 -0.864607)
(-0.345348 -0.0647868 -1.43097)
(-0.380379 -0.140665 -1.57292)
(-0.211297 -0.122941 -0.91396)
(2.55677 -0.0253391 -0.783258)
(2.61905 0.0507228 -0.82085)
(2.51531 0.0835608 -0.79215)
(2.52461 -0.0608151 -0.678931)
(2.44999 0.0175775 -0.811342)
(2.39874 0.0243801 -0.67151)
(1.94101 -0.0863358 -0.217613)
(1.93602 0.155302 0.207941)
(1.87821 0.21967 -0.104627)
(1.67937 0.118077 -0.221869)
(1.63107 -0.118816 -0.14623)
(1.75256 -0.257481 0.376603)
(1.16494 -0.168484 0.995023)
(1.00744 0.181603 2.09899)
(1.0262 0.581151 1.62252)
(1.15626 0.736176 0.364058)
(1.1255 -0.505317 0.294352)
(0.865359 -0.648989 2.02382)
(-0.767152 -0.0677332 1.73185)
(-0.461828 0.0657332 2.58218)
(-0.624273 0.411438 3.33318)
(-0.996596 1.25979 0.671287)
(-0.947137 0.0545324 -0.0695299)
(-0.152219 -0.348195 2.11185)
(-2.37717 -0.191093 0.0435717)
(-2.27557 -0.0345826 0.627361)
(-1.8731 0.531199 1.22005)
(-1.8303 1.28466 0.13221)
(-1.64894 0.914999 -0.0592695)
(-1.74686 0.22752 0.233127)
(-0.707801 0.0345025 -1.30599)
(-0.431071 0.0411675 -1.60006)
(0.0131481 -0.0313518 -1.10329)
(-0.323464 -0.149753 -1.84903)
(0.123035 -0.214855 -2.89204)
(-2.19536 -0.0213159 -0.626148)
(-1.00099 0.150932 -4.53764)
(-2.16061 0.109139 -4.06332)
(-4.43793 0.116494 -2.30862)
(0.667133 -0.280446 -5.87032)
(3.74614 0.0322755 -5.73282)
(1.29535 0.553665 -5.0538)
(3.75125 -0.0391031 -4.27882)
(3.80183 -0.26716 -4.2467)
(3.91313 -0.12763 -3.96966)
(3.38034 -0.586834 -4.16926)
(2.54884 -0.0595922 -2.73408)
(3.3258 0.675018 -4.02563)
(-4.37009 0.0012811 6.41675)
(-4.37043 0.000971694 6.41489)
(-4.3701 -0.000844707 6.41496)
(-4.37033 -4.07905e-05 6.41597)
(-4.37023 -0.000120104 6.41542)
(-4.37037 -0.000553779 6.41583)
(-4.21616 -0.0034829 4.63964)
(-4.21273 -0.00267531 4.63186)
(-4.21342 0.00105281 4.63484)
(-4.2142 -0.000286634 4.63518)
(-4.21371 0.00044768 4.63379)
(-4.21508 0.00110111 4.63701)
(-3.12584 0.00178347 6.9303)
(-3.12836 0.00148886 6.94207)
(-3.12725 -0.000553036 6.93744)
(-3.12687 0.000125219 6.93516)
(-3.12791 -0.000686286 6.93835)
(-3.12676 -0.000887323 6.93331)
(4.0369 -0.00458701 7.02076)
(4.03704 -0.00303447 7.00102)
(4.03701 0.00199297 7.0078)
(4.03706 -0.00064126 7.01108)
(4.03681 0.00129608 7.0062)
(4.03738 0.00231268 7.01364)
(2.18342 -0.00506867 2.52214)
(2.15369 -0.00331928 2.44886)
(2.16416 0.00070248 2.47545)
(2.1704 -0.00216413 2.48826)
(2.16234 0.000435428 2.46862)
(2.17256 0.00158431 2.49394)
(0.866273 0.00199295 0.861334)
(0.874392 0.00278124 0.814391)
(0.870193 -0.002271 0.835525)
(0.87159 -0.00273301 0.836128)
(0.874465 -0.000758982 0.818988)
(0.869783 -0.000969925 0.841657)
(-5.36148 -0.0102799 -2.41052)
(-5.34743 -0.00493566 -2.41539)
(-5.35067 0.00718389 -2.41223)
(-5.35375 0.00553677 -2.41302)
(-5.35172 -0.00302691 -2.41693)
(-5.35146 -0.00718018 -2.41043)
(-0.809041 0.000403946 -2.65727)
(-0.812017 0.00107512 -2.66551)
(-0.810752 -0.00089567 -2.6616)
(-0.808978 0.000157413 -2.66178)
(-0.805726 -0.000162969 -2.66499)
(-0.810927 -0.00183361 -2.66075)
(-0.241508 -0.000899958 -1.45611)
(-0.244717 -0.000402491 -1.46229)
(-0.243753 0.00020697 -1.45952)
(-0.243366 -0.000220309 -1.45964)
(-0.242954 8.46871e-05 -1.46253)
(-0.243552 2.00982e-05 -1.45826)
(-1.34467 -0.0360224 -3.31241)
(-1.43089 -0.0175693 -3.31483)
(-1.39919 0.0231435 -3.31432)
(-1.36326 0.01816 -3.31446)
(-1.35324 -0.0117931 -3.3268)
(-1.40325 -0.0243323 -3.3013)
(-0.331766 -0.0163036 -3.45467)
(-0.344881 -0.00825395 -3.44595)
(-0.336121 0.0107929 -3.45099)
(-0.33902 0.00740445 -3.45208)
(-0.333372 -0.00479167 -3.45912)
(-0.339265 -0.0101102 -3.4458)
(-0.113359 -0.00295342 -2.45064)
(-0.119682 -0.00141564 -2.44195)
(-0.11682 0.00181894 -2.44647)
(-0.115888 0.00131975 -2.44738)
(-0.114947 -0.000676422 -2.45058)
(-0.117116 -0.00170728 -2.44452)
(-3.31733 -0.0432778 -3.64562)
(-3.64174 -0.0159287 -3.58892)
(-3.52531 0.0190927 -3.61195)
(-3.39824 0.0139292 -3.62869)
(-3.3508 -0.00748369 -3.64863)
(-3.5493 -0.0204998 -3.59472)
(-2.20759 -0.0688412 -2.10184)
(-2.37594 -0.0351166 -2.05001)
(-2.30519 0.0407261 -2.07433)
(-2.26013 0.0241853 -2.08492)
(-2.2407 -0.0148817 -2.10475)
(-2.31471 -0.0300766 -2.05784)
(-0.827755 -0.0198593 -0.442558)
(-0.855041 -0.0107989 -0.391083)
(-0.842051 0.0116352 -0.415592)
(-0.840444 0.00617848 -0.423131)
(-0.837183 -0.00403404 -0.43513)
(-0.843602 -0.00818025 -0.409212)
(-6.04905 0.0303918 -2.6509)
(-6.52297 0.0278813 -2.34653)
(-6.33491 -0.0278058 -2.46912)
(-6.20727 -0.0187595 -2.54547)
(-6.13828 0.0188386 -2.57782)
(-6.36261 0.0273373 -2.46374)
(-5.03042 -0.0386843 -0.366811)
(-5.63309 -0.0134915 -0.064698)
(-5.39529 0.00974169 -0.191786)
(-5.2316 -0.000719793 -0.249164)
(-5.17942 0.0065622 -0.255818)
(-5.41102 0.00787949 -0.200701)
(-1.44385 -0.0710149 2.68375)
(-1.64575 -0.0371729 2.89459)
(-1.5622 0.0350253 2.80487)
(-1.51259 0.0118244 2.76365)
(-1.50113 -0.00705912 2.74681)
(-1.56796 -0.0141389 2.80965)
(-8.39786 0.0539414 4.70589)
(-8.52958 0.0381145 4.94819)
(-8.43836 -0.0303966 4.85022)
(-8.48332 -0.0157259 4.79541)
(-8.49688 0.0206888 4.77277)
(-8.40896 0.0274547 4.85158)
(-8.62448 0.064392 5.74612)
(-8.97878 0.0383661 5.93088)
(-8.81089 -0.0402069 5.84886)
(-8.80139 -0.0171176 5.85493)
(-8.81834 0.0149962 5.91172)
(-8.77849 0.0273766 5.80306)
(-3.5844 0.022089 6.9273)
(-4.11616 0.0146511 7.2173)
(-3.90108 -0.027844 7.09579)
(-3.79401 -0.0260149 7.05856)
(-3.78995 0.0156555 7.09259)
(-3.8872 0.0370066 7.06575)
(-8.39466 -0.0246234 10.8703)
(-8.43041 -0.0147955 10.9191)
(-8.37428 0.0188785 10.9455)
(-8.43931 0.02954 10.8514)
(-8.52281 -0.0254251 10.7972)
(-8.26855 -0.042299 11.0083)
(-8.51413 0.0209202 8.99224)
(-8.54323 0.00630079 8.80472)
(-8.49972 -0.00143988 8.89048)
(-8.56775 0.0303671 8.92676)
(-8.64664 -0.031856 8.97881)
(-8.42722 -0.0443584 8.87595)
(-4.8986 0.101351 7.52912)
(-5.07671 0.0502391 7.51624)
(-4.98586 -0.0568576 7.51013)
(-5.01517 -0.0220162 7.54598)
(-5.07421 0.00773066 7.60208)
(-4.9499 0.0368938 7.49004)
(-9.61547 -0.0238822 5.74023)
(-9.67613 -0.0217638 5.76692)
(-9.64485 0.0189728 5.7965)
(-9.65033 0.0389853 5.71837)
(-9.71504 -0.0437987 5.64633)
(-9.56449 -0.0651436 5.87241)
(-6.28055 -0.00913532 2.96365)
(-6.20615 -0.0176844 2.70291)
(-6.23054 0.0156057 2.82396)
(-6.26964 0.0401491 2.85056)
(-6.32823 -0.0409697 2.83849)
(-6.19258 -0.0521322 2.87709)
(-2.08029 0.055665 0.149683)
(-2.03413 0.0160341 -0.0893595)
(-2.03568 -0.0155545 -0.00769921)
(-2.09775 0.0106261 0.0690013)
(-2.14425 -0.0181168 0.0620525)
(-2.01539 0.00660657 0.0130268)
(-6.36922 -0.00834061 -3.07549)
(-6.29594 -0.0114093 -3.09402)
(-6.33041 0.0102285 -3.07698)
(-6.33946 0.0168463 -3.09014)
(-6.36827 -0.0214043 -3.16053)
(-6.31621 -0.024601 -3.00694)
(-2.97101 -0.0206877 -4.55845)
(-2.88778 -0.0229587 -4.65994)
(-2.90418 0.024617 -4.6399)
(-2.95727 0.0378902 -4.58439)
(-2.97736 -0.0341676 -4.64274)
(-2.8916 -0.0437277 -4.58036)
(-0.749016 -0.000139131 -5.93558)
(-0.716568 -0.00524057 -6.09006)
(-0.718164 0.00895513 -6.06756)
(-0.750845 0.0187696 -5.96652)
(-0.755489 -0.0161879 -5.99124)
(-0.716091 -0.0200452 -6.04599)
(-5.39794 0.00266623 -4.48375)
(-5.41131 0.00205285 -4.41348)
(-5.40773 -0.00230877 -4.42435)
(-5.39868 -0.00760071 -4.47827)
(-5.39947 0.00756287 -4.50732)
(-5.40913 0.014855 -4.39657)
(-2.31789 -0.0177719 -4.81351)
(-2.32412 -0.0105666 -4.78781)
(-2.32268 0.0131756 -4.7896)
(-2.31733 0.0162381 -4.81339)
(-2.31388 -0.0125315 -4.84089)
(-2.32559 -0.0230692 -4.76138)
(-0.436969 -0.00460064 -5.88455)
(-0.435608 -0.00367986 -5.87674)
(-0.436897 0.00455914 -5.87855)
(-0.437816 0.00695564 -5.88351)
(-0.440355 -0.00659268 -5.89905)
(-0.436675 -0.00997953 -5.86486)
(-4.30468 0.00766372 -2.74912)
(-4.31815 0.00395134 -2.71543)
(-4.30989 -0.00615666 -2.72318)
(-4.31361 -0.00896572 -2.74528)
(-4.31212 0.00882189 -2.76454)
(-4.31316 0.0159181 -2.70889)
(-1.99619 -0.00572352 -5.90738)
(-1.99183 -0.00300105 -5.89246)
(-1.99444 0.00457879 -5.89989)
(-1.9921 0.00568775 -5.90679)
(-1.99355 -0.0051594 -5.92218)
(-1.99443 -0.0089522 -5.88035)
(-0.328159 -0.00109639 -3.81471)
(-0.324001 -0.000451643 -3.8166)
(-0.325088 0.00117997 -3.8156)
(-0.327949 0.00163062 -3.81577)
(-0.33054 -0.0023776 -3.81987)
(-0.323939 -0.00352818 -3.81199)
(2.07593 -0.00631646 0.457952)
(2.0816 -0.0164379 0.462752)
(2.08297 -0.0316781 0.45935)
(1.99276 -0.0313272 0.568279)
(1.90407 -0.0038888 0.51667)
(2.034 0.0105221 0.541717)
(0.233393 -0.0107566 -5.39365)
(0.263307 -0.0241673 -5.38913)
(0.296511 -0.0535173 -5.3603)
(0.41387 -0.062797 -5.20909)
(0.544177 -0.0125076 -4.74551)
(0.43334 0.0101826 -5.13152)
(0.658313 -0.00437278 -1.48706)
(0.67146 -0.0229035 -1.47349)
(0.682769 -0.0641983 -1.48417)
(0.702918 -0.0889217 -1.59865)
(0.747386 -0.0271951 -1.64332)
(0.691382 0.0177827 -1.58373)
(0.589535 -0.00136155 -0.197859)
(0.588865 -0.000821818 -0.202417)
(0.580014 0.0034875 -0.200842)
(0.569586 0.00608076 -0.199418)
(0.555449 -0.00076906 -0.165735)
(0.569039 -0.00490853 -0.194058)
(-0.334231 0.0146703 -1.93588)
(-0.345086 0.0338559 -1.95736)
(-0.340582 0.0554028 -1.96623)
(-0.377606 0.0493669 -1.80505)
(-0.384328 0.0227043 -1.71759)
(-0.362332 0.0126002 -1.89039)
(0.817246 -0.00279579 -2.05854)
(0.813815 -0.00952213 -2.06507)
(0.80322 -0.0285966 -2.06897)
(0.775552 -0.0350158 -2.08808)
(0.74887 -0.00871767 -2.09768)
(0.755957 0.00422573 -2.09453)
(0.224925 -0.0013511 0.204776)
(0.222956 -0.00254226 0.204049)
(0.222879 0.00355096 0.203312)
(0.224253 0.00411547 0.204932)
(0.224757 -0.00169582 0.204014)
(0.222731 -0.000722348 0.198216)
(-0.335223 0.00124126 -1.11272)
(-0.328527 0.00344925 -1.12632)
(-0.313164 0.000832814 -1.12471)
(-0.296769 -0.00105715 -1.09)
(-0.283777 0.00852823 -1.08272)
(-0.277048 0.00914632 -1.09849)
(0.27113 -0.00224937 -1.90011)
(0.270991 -0.00903071 -1.89964)
(0.267945 -0.0177727 -1.8972)
(0.253256 -0.0197973 -1.88772)
(0.244402 -0.00924552 -1.89243)
(0.251083 -0.000664436 -1.87964)
(-0.255718 -0.000452583 0.247882)
(-0.255252 -0.000247656 0.24733)
(-0.255466 -0.00201771 0.246874)
(-0.253146 -0.0023402 0.249041)
(-0.253302 0.00163946 0.252322)
(-0.25291 0.00204517 0.243347)
(-1.02847 0.0010038 -1.17244)
(-1.02921 0.00367803 -1.16697)
(-1.02794 0.0049093 -1.16446)
(-1.02536 0.0034252 -1.18486)
(-1.02366 0.00765121 -1.19281)
(-1.02784 0.00699918 -1.15979)
(-0.220366 -0.00172339 -2.18814)
(-0.221683 -0.00476634 -2.18967)
(-0.225475 -0.00637177 -2.18909)
(-0.231534 -0.00698248 -2.18866)
(-0.235437 -0.0053133 -2.1923)
(-0.236921 -0.00179563 -2.18065)
(-0.604106 -0.00156248 0.173884)
(-0.603007 -0.00170174 0.172274)
(-0.60165 -0.00120559 0.172083)
(-0.605784 -0.00103397 0.174687)
(-0.606394 0.000471974 0.178228)
(-0.601807 0.00067949 0.169261)
(-1.56746 0.000929803 -2.05199)
(-1.56906 0.00284509 -2.05699)
(-1.5684 0.00504372 -2.05574)
(-1.56479 0.0032084 -2.0702)
(-1.56272 0.00434211 -2.07685)
(-1.57001 0.00471105 -2.05207)
(-0.883834 -0.00024626 -2.66442)
(-0.886152 -0.00139362 -2.66497)
(-0.887912 -0.00198278 -2.66414)
(-0.888054 -0.00208425 -2.66592)
(-0.888372 -0.00299305 -2.66936)
(-0.894102 -0.00186795 -2.65832)
(-1.89276 -0.00169384 0.999372)
(-1.89289 -0.0024725 0.999781)
(-1.89069 0.000172075 0.99855)
(-1.89698 0.00126437 1.00091)
(-1.89838 -0.00107534 1.00341)
(-1.89138 -0.00125773 0.996542)
(-2.28465 0.0015652 -5.6044)
(-2.28008 0.00172288 -5.63723)
(-2.28189 0.00135048 -5.63204)
(-2.27889 0.000245895 -5.62078)
(-2.27897 0.00175825 -5.61276)
(-2.28142 0.00299766 -5.63529)
(-0.922805 0.00205268 -2.89731)
(-0.921476 0.0012649 -2.89548)
(-0.922901 -0.00142383 -2.89516)
(-0.923108 -0.00141821 -2.89664)
(-0.923756 -0.000799926 -2.9)
(-0.924936 -0.000141303 -2.89157)
(1.49291 -0.434126 7.6722)
(1.34288 0.11149 8.86427)
(1.14309 0.243487 8.09558)
(3.04456 0.939984 8.27069)
(4.82814 -0.55591 9.9748)
(1.44093 0.490583 7.3852)
(1.65341 -0.449899 5.98127)
(1.44535 -0.0050566 6.75186)
(1.93806 -0.100416 6.52677)
(3.63657 0.479767 9.14197)
(4.3506 0.0913979 12.1063)
(2.34193 0.657041 5.98474)
(3.60068 -0.368173 13.7065)
(3.37788 -0.261029 13.2785)
(4.24921 -0.657384 13.047)
(6.00582 -0.607791 13.9278)
(6.17002 0.491732 15.0651)
(4.03469 0.838068 12.9294)
(-2.11781 -0.410511 10.1561)
(-0.85383 0.335038 7.60442)
(0.0346753 0.569162 6.23509)
(-0.272308 1.57895 6.30436)
(-0.41188 0.434354 6.77354)
(-2.07816 0.604927 10.5906)
(-0.459339 0.0760353 10.4217)
(0.468363 1.25071 9.73303)
(0.891148 0.977864 8.14043)
(-0.0941403 1.31069 8.39297)
(-0.23242 -0.861349 10.8136)
(-1.68224 0.0309767 11.8734)
(4.88852 0.150108 5.90885)
(5.15538 0.6712 6.37295)
(4.08945 0.369794 5.80503)
(1.64158 0.236438 7.22114)
(1.61912 -1.35957 8.7097)
(2.00344 -0.186625 6.7836)
(3.52267 0.36655 -1.54127)
(4.59168 0.722568 -2.54745)
(4.21109 0.40399 -2.09034)
(4.18293 0.228014 -2.28636)
(4.43137 -0.862366 -2.51309)
(2.48378 -0.571752 -0.898119)
(3.51135 0.117629 -0.837269)
(3.74501 0.154372 -1.08652)
(3.28593 -0.541638 -0.434642)
(3.1247 -0.10572 1.83257)
(3.51428 -0.54604 0.606937)
(2.94262 0.0116471 -0.675207)
(1.55611 -0.140845 -2.07804)
(1.5602 -0.598405 -2.0121)
(1.34845 -1.05331 -2.56622)
(1.61704 -0.474171 -2.05572)
(1.6064 0.0579468 -2.43489)
(2.07411 0.63631 -0.994267)
(-0.193379 0.0618554 -3.70172)
(-0.232115 0.0391763 -3.7072)
(-0.0314089 -0.0728624 -3.60508)
(0.278495 0.0046369 -4.08448)
(0.00666603 -0.159855 -4.11393)
(-0.164688 -0.188088 -3.34501)
(0.133059 0.0248831 -3.32851)
(0.19974 -0.0030322 -3.33344)