/*--------------------------------*- C++ -*----------------------------------*\
| =========                 |                                                 |
| \\      /  F ield         | OpenFOAM: The Open Source CFD Toolbox           |
|  \\    /   O peration     | Version:  v1612+                                |
|   \\  /    A nd           | Web:      www.OpenFOAM.com                      |
|    \\/     M anipulation  |                                                 |
\*---------------------------------------------------------------------------*/
FoamFile
{
    version     2.0;
    format      ascii;
    class       surfaceScalarField;
    location    "3";
    object      alphaPhi;
}
// * * * * * * * * * * * * * * * * * * * * * * * * * * * * * * * * * * * * * //

dimensions      [0 3 -1 0 0 0 0];

internalField   nonuniform List<scalar> 
816
(
-2.70914e-06
-7.30031e-07
1.87566e-06
1.09259e-06
1.38297e-06
-7.62698e-07
3.92979e-07
1.64716e-06
-8.24012e-07
4.55094e-06
-8.56153e-06
-1.97657e-06
2.81914e-06
1.96146e-06
2.65789e-06
-6.26416e-06
-2.2077e-06
1.96446e-06
1.79742e-08
-1.34642e-06
1.97036e-09
-5.55005e-10
2.76848e-07
2.90424e-10
9.42722e-10
2.98246e-10
-1.26579e-06
3.51544e-10
-3.00463e-10
-3.87041e-10
-5.69447e-07
-3.51796e-10
-2.55916e-10
-2.2589e-10
9.72262e-07
-9.78781e-10
1.25165e-09
-5.41275e-10
-4.35094e-06
6.42287e-11
1.13693e-10
-3.24923e-10
-4.32979e-06
7.82144e-11
6.06593e-10
-1.9903e-10
-1.15438e-06
-4.75422e-10
2.2227e-09
3.83787e-11
1.38502e-06
-6.16207e-10
1.38318e-09
1.27627e-09
-1.99671e-06
-5.85402e-10
5.84848e-10
1.27989e-09
2.48781e-06
-1.26549e-09
1.77021e-09
8.73859e-10
-2.09075e-06
-6.15207e-10
5.71033e-10
2.21545e-06
1.28253e-09
7.23873e-11
1.20831e-06
6.29486e-06
-1.23135e-05
3.49001e-07
8.71471e-06
6.68041e-06
-1.32274e-05
1.29228e-06
8.1058e-06
3.43705e-06
-4.43197e-06
-7.56801e-07
6.70174e-06
2.1517e-06
4.67106e-06
2.28647e-06
-1.16437e-06
-3.74229e-06
4.45472e-06
-7.05871e-06
1.25284e-06
3.31175e-06
-1.04247e-05
-8.33321e-06
8.48234e-08
-1.46352e-06
-2.80937e-06
-4.50723e-06
4.93726e-06
-5.63287e-08
1.45779e-06
-3.19825e-06
4.43127e-06
1.90254e-06
-1.8714e-05
1.51998e-06
7.65145e-06
5.19664e-06
-5.0396e-06
1.94104e-06
5.8407e-06
3.32395e-06
-3.517e-06
3.08443e-06
-2.42527e-06
1.07368e-05
5.52896e-06
2.3359e-06
9.37208e-07
-4.80708e-06
-6.36883e-06
-2.40049e-07
-3.46013e-06
-5.01098e-06
-2.18212e-06
-5.09564e-07
-1.63631e-06
-2.38373e-06
-3.38429e-06
7.23694e-07
1.6604e-06
9.55701e-07
1.84523e-06
1.22023e-06
-6.98424e-08
1.88903e-06
-4.88256e-06
-4.06281e-06
-1.54161e-06
2.8831e-06
-2.12486e-06
2.96443e-07
3.54216e-06
-1.51874e-07
3.78471e-06
-2.598e-06
-8.70488e-06
-1.28999e-06
-2.59013e-06
-4.61417e-06
-2.013e-06
1.00036e-06
-5.217e-06
-1.95218e-06
6.89885e-08
4.22257e-06
-2.95572e-06
-5.57752e-07
-1.75156e-06
1.92873e-07
1.17394e-06
1.37387e-06
3.17534e-07
1.00837e-06
4.10661e-07
4.98818e-08
1.33212e-06
-9.60045e-07
2.12432e-06
1.35683e-06
3.14926e-07
-1.57065e-06
1.28287e-06
3.4493e-07
-2.34747e-07
-2.3505e-06
-7.53893e-07
-1.87603e-06
-1.94141e-06
-1.6587e-06
-1.21746e-06
2.14903e-07
-1.70606e-06
-1.59799e-06
-5.0638e-07
7.61028e-07
7.16728e-07
4.46909e-07
7.88686e-07
-6.44943e-07
2.66856e-07
1.82036e-06
-3.34021e-06
-1.26979e-06
-1.32678e-06
1.73229e-06
-3.99434e-07
-3.55584e-07
2.05672e-06
2.08455e-06
-4.44033e-07
-1.59088e-06
-6.73511e-07
-1.50467e-06
-2.86396e-06
-2.42261e-06
8.60988e-07
-6.98917e-07
-3.10695e-06
6.80809e-07
-6.20145e-07
-2.1111e-06
-4.70828e-07
1.3309e-06
-3.91428e-12
-9.29915e-11
2.04331e-06
1.5221e-09
7.16565e-10
-1.43095e-06
8.39166e-10
-7.75726e-10
1.81245e-06
6.85018e-10
-3.06664e-10
4.74763e-05
3.36841e-11
-3.15697e-11
6.00718e-07
-8.36125e-10
-1.26178e-09
-6.87368e-10
6.84027e-07
-1.20167e-09
4.4375e-11
-1.70967e-06
-4.79236e-10
-1.58154e-09
1.02145e-11
-6.41036e-10
-7.01633e-10
4.7812e-05
-2.55516e-10
-2.01717e-10
3.72044e-06
8.2397e-10
-1.6823e-10
-9.46476e-11
1.73594e-06
8.40511e-10
-8.69074e-10
-3.19674e-06
-3.02698e-10
-7.06174e-10
-2.48665e-06
1.97504e-10
-2.50327e-10
2.54328e-07
-1.78573e-09
4.75532e-10
-3.09639e-06
-7.43888e-10
-7.2728e-11
3.81618e-10
-7.6916e-06
4.82389e-10
1.3646e-10
1.89614e-06
-9.97252e-10
3.00298e-10
2.13624e-06
-1.02802e-09
5.74346e-10
3.03222e-06
4.25068e-10
-4.8211e-06
6.75028e-10
-7.48113e-11
-2.28004e-06
-5.94364e-06
1.54391e-05
4.75454e-06
-1.75367e-06
-3.23229e-06
4.7845e-07
-2.28338e-08
3.46394e-07
4.64252e-06
-1.62522e-06
6.98941e-06
2.08823e-06
4.43196e-06
1.09414e-05
-2.93921e-06
-8.33667e-06
2.85023e-06
8.79692e-06
2.00116e-06
-3.01475e-06
5.50041e-06
-1.04503e-07
-1.46367e-05
1.97606e-05
-1.58699e-05
-1.41262e-05
1.59921e-05
-1.26333e-05
8.46079e-06
-9.10445e-06
3.74297e-06
-4.27888e-06
6.68727e-06
2.56384e-06
3.85305e-06
-4.30426e-06
6.36868e-06
-8.83784e-06
-2.78522e-06
-1.49424e-05
5.59166e-07
-6.37155e-07
2.25577e-06
9.87113e-07
9.79709e-06
-3.31367e-07
-6.96557e-06
-1.57046e-06
3.62888e-06
-4.51942e-06
4.62229e-06
-2.28408e-06
3.01668e-06
7.41642e-07
-8.48487e-06
1.38153e-05
-2.82816e-06
-6.24719e-06
9.186e-06
-3.91793e-07
-2.85736e-06
-4.46585e-06
-1.2533e-05
1.03495e-06
4.19904e-06
6.35674e-06
9.1839e-07
-8.88173e-07
-1.5613e-06
4.55039e-08
-1.99007e-06
1.41119e-06
-2.2e-06
1.60381e-06
3.82845e-06
-2.78242e-06
-1.83607e-06
5.84297e-06
3.07655e-06
5.47353e-06
-9.95283e-07
3.8312e-06
7.17383e-07
-1.42569e-06
1.89239e-06
5.02881e-06
2.63042e-06
8.75996e-06
6.87714e-06
5.31152e-06
7.80747e-06
1.48215e-06
1.76508e-06
-4.23542e-06
-5.06414e-06
3.74561e-06
1.92681e-06
1.11193e-06
-2.63449e-07
4.50194e-06
2.8489e-06
1.2491e-06
-3.56166e-07
-6.98437e-06
7.02863e-07
-1.13239e-06
7.10566e-07
1.03509e-06
-7.50437e-07
-2.33427e-07
-7.4739e-08
-5.52959e-07
-2.99841e-06
-2.26211e-06
-2.58031e-06
-3.44123e-06
9.01107e-07
3.52013e-06
6.73043e-07
5.36274e-06
4.36567e-06
2.71751e-06
3.5128e-06
3.06135e-06
-1.06138e-06
1.11408e-06
3.9978e-06
-3.75511e-08
2.34675e-06
2.02766e-06
-6.51587e-08
-1.09993e-06
-4.20906e-07
-8.49842e-07
-1.03883e-06
9.44566e-07
-1.24725e-06
1.21743e-06
1.10002e-06
-1.22077e-06
-4.70009e-07
1.72509e-06
2.22006e-06
3.60372e-06
-2.34175e-07
1.22759e-06
8.03662e-07
-1.19774e-06
1.10366e-06
2.47491e-06
1.0484e-06
2.50009e-06
3.34568e-06
3.23939e-06
2.38984e-06
-1.02086e-07
1.53758e-06
-5.2967e-07
-3.81222e-06
1.81103e-06
1.24854e-06
5.49849e-07
-4.06492e-07
2.99431e-06
7.92802e-07
-7.07428e-08
2.04093e-08
-2.11103e-06
2.09588e-07
-7.59621e-07
1.00267e-07
7.77033e-07
-2.38587e-08
-1.09654e-07
-1.31573e-07
-6.15529e-07
-1.67323e-06
-6.03241e-07
-1.57362e-06
-1.98423e-06
1.86995e-07
1.84969e-06
-2.67771e-07
1.4512e-06
2.85254e-06
4.80951e-07
1.11534e-06
1.19881e-06
-1.56552e-07
-2.3868e-07
2.21417e-06
-1.20227e-06
3.92561e-07
2.0576e-07
9.03329e-07
6.70905e-07
-1.96369e-07
-3.46212e-07
-1.09174e-06
1.04929e-06
7.4438e-07
-1.01065e-06
9.44086e-07
-4.02643e-07
-8.74352e-07
-3.93537e-07
-8.82929e-07
-9.20395e-07
4.94904e-08
-6.75569e-07
-7.48785e-07
2.00241e-07
-3.87012e-08
1.91745e-07
-7.21498e-07
1.27388e-06
-1.80298e-06
-5.96642e-07
1.60443e-06
2.67387e-07
1.38059e-06
8.33206e-07
-1.18171e-06
4.51156e-08
-3.25545e-07
-1.56983e-06
4.36067e-07
-1.81085e-06
5.20655e-07
-1.28028e-06
-6.1094e-08
-2.02127e-07
1.23689e-06
-2.75094e-07
-7.96912e-07
-1.96537e-07
-3.4253e-07
-4.17655e-07
4.98002e-07
-4.00973e-07
-2.91423e-07
8.78288e-07
1.65613e-06
-2.16954e-07
4.24528e-07
-3.12272e-07
1.17097e-06
4.8134e-07
9.88984e-07
1.14928e-06
-7.56396e-08
1.2751e-06
-1.5532e-06
9.00712e-07
1.28779e-06
-2.94789e-08
1.93013e-06
4.2994e-07
3.7643e-07
2.91232e-07
-3.43157e-08
5.59209e-07
-2.82048e-07
2.14588e-07
-6.87274e-08
-9.79528e-07
-2.49934e-07
-1.1906e-06
8.33305e-07
-5.22439e-07
1.30521e-06
-4.81617e-08
5.98186e-07
-8.18495e-08
1.14499e-06
2.34367e-10
-1.43934e-10
-7.69525e-07
6.913e-11
-3.02805e-06
2.15096e-10
-2.73547e-06
-1.16997e-09
2.85521e-11
-1.39603e-09
3.23732e-06
-3.61406e-10
-1.81807e-06
-6.07684e-11
-1.43043e-06
1.20436e-10
7.82222e-07
-1.05321e-10
-3.72807e-06
1.67359e-11
3.94018e-05
-1.38396e-10
5.5955e-07
1.04037e-09
8.05659e-06
5.97714e-10
9.58761e-11
-3.60519e-10
-1.99604e-06
-2.58398e-10
8.91659e-07
-4.96307e-10
-2.82291e-06
-1.34853e-09
3.78126e-06
-1.7379e-09
-5.59574e-06
-3.51062e-10
-8.89983e-06
-8.15329e-10
7.05551e-07
2.04628e-09
4.41046e-06
7.31264e-10
-1.02054e-07
-3.06328e-10
-1.4865e-06
9.48388e-10
-1.39508e-06
1.68617e-09
7.93967e-08
1.08204e-09
-2.4126e-06
5.48668e-10
1.86672e-06
5.46283e-11
6.65283e-06
-8.46609e-06
-1.21582e-06
-1.14465e-06
4.07815e-06
9.1076e-07
-5.72795e-06
1.12431e-06
7.86362e-06
-3.54619e-06
1.49442e-05
-6.50363e-06
-6.44584e-06
3.52984e-06
-1.36279e-05
1.01474e-05
-1.0849e-05
-8.31186e-07
5.17725e-06
-1.73912e-05
-1.08807e-05
-6.2038e-06
-2.25117e-05
1.11556e-05
-1.48896e-06
4.54949e-06
2.20703e-05
-2.20713e-06
5.54178e-06
6.87253e-06
-9.03989e-06
1.99262e-06
1.09774e-06
9.02013e-07
3.52851e-06
-6.3224e-07
-7.68743e-06
-5.96139e-06
-8.54877e-06
-7.43284e-06
2.76963e-06
1.3815e-05
-2.44282e-06
1.00981e-05
5.45982e-06
1.44235e-07
8.51378e-06
-4.7817e-06
-1.39827e-05
-4.80659e-06
-1.0321e-05
-1.01555e-05
-2.56843e-06
-2.4021e-06
-7.38775e-06
-1.0495e-06
-1.73021e-06
1.68534e-06
-5.34796e-08
1.10194e-06
2.18402e-06
-3.04579e-06
-1.55077e-06
-1.18629e-06
3.77097e-06
4.99314e-06
5.99837e-06
5.02733e-06
-3.40012e-06
-2.53998e-06
-6.05786e-06
-2.70864e-06
-5.17487e-06
1.92149e-06
1.30278e-06
1.02564e-06
-4.94225e-06
-5.51217e-06
-9.12719e-06
-6.01087e-06
4.88804e-07
5.29534e-07
1.04842e-05
2.78921e-06
3.27002e-06
1.10918e-06
-3.59239e-06
1.6637e-06
3.09472e-07
3.97808e-06
2.43681e-06
8.26736e-07
-3.80223e-06
-1.78924e-06
-4.89078e-06
-1.11358e-07
1.01593e-06
-1.81722e-06
-7.4321e-07
4.8697e-07
2.62546e-06
2.97222e-06
3.39627e-06
-1.0983e-06
-6.41919e-06
-1.64713e-06
-5.41545e-06
-2.88259e-07
-8.6519e-07
-6.27065e-07
-2.98725e-06
-2.64477e-08
-8.37485e-07
6.80559e-07
-1.05656e-08
1.75373e-07
1.12462e-06
-1.4343e-06
-7.69252e-07
3.83642e-08
1.05881e-06
3.18803e-06
1.62538e-06
2.64042e-06
-6.21332e-07
-1.33264e-06
-2.07837e-06
-1.2338e-06
-1.63035e-06
7.31033e-07
1.48898e-07
-2.18953e-07
-1.50813e-06
-3.9695e-06
-2.03237e-06
-3.45099e-06
-1.26882e-07
9.40186e-08
3.15205e-06
2.19195e-06
1.1659e-06
1.20763e-06
-7.81033e-07
1.11438e-06
1.84428e-08
3.24955e-06
2.68957e-07
1.09472e-06
-1.42061e-06
-1.32384e-06
-1.6933e-06
-4.35379e-07
-7.07095e-09
-7.9012e-07
-3.87515e-07
6.25524e-07
6.1075e-07
2.06953e-06
3.72683e-07
-5.93905e-07
-1.91615e-06
-1.61998e-06
-1.53817e-06
-1.15149e-06
-8.55574e-08
-9.06731e-07
-9.90219e-07
-1.84103e-07
-6.57457e-07
5.63435e-07
2.13977e-07
-7.38362e-07
-9.12183e-08
1.13676e-06
1.40148e-06
-6.66966e-07
-6.28696e-07
-4.89126e-08
-3.80512e-07
-1.42975e-06
-1.62275e-06
-2.60172e-08
1.15468e-06
1.27576e-06
1.27428e-06
1.97966e-06
8.60022e-07
-2.65357e-07
-5.26955e-08
-4.4946e-07
8.41681e-08
2.06539e-07
-8.65574e-07
-1.09104e-06
-5.51585e-07
-3.8944e-07
7.08527e-10
6.76646e-10
-0.000123912
-1.56071e-09
2.45887e-11
4.05868e-10
1.05773e-12
-6.05917e-06
3.96568e-06
7.55471e-06
5.0074e-06
4.43577e-06
)
;

boundaryField
{
    top_fluid_surface
    {
        type            calculated;
        value           nonuniform List<scalar> 
64
(
0
1.14555e-09
1.14312e-09
0
2.64562e-10
0
0
0
0
0
4.82763e-10
0
0
0
7.79403e-10
0
9.32031e-10
1.06621e-09
0
1.72581e-09
0
0
0
7.29903e-10
0
1.22708e-10
3.36986e-10
6.8294e-10
0
0
0
4.00134e-11
4.71873e-10
1.55552e-09
5.93385e-10
1.58062e-09
0
0
0
0
0
0
0
0
8.78544e-10
9.41625e-10
0
1.13628e-09
1.74252e-10
7.11417e-10
0
0
0
1.0073e-09
1.37256e-09
0
0
7.2636e-10
2.44496e-10
7.03622e-10
1.47426e-10
2.00415e-09
2.1751e-09
1.10211e-09
)
;
    }
    bottom_fluid_surface
    {
        type            calculated;
        value           uniform 0;
    }
    lateral_surface_1
    {
        type            calculated;
        value           uniform 0;
    }
    lateral_surface_2
    {
        type            calculated;
        value           uniform 0;
    }
    lateral_surface_3
    {
        type            calculated;
        value           uniform 0;
    }
    lateral_surface_4
    {
        type            calculated;
        value           uniform 0;
    }
}


// ************************************************************************* //
