/*--------------------------------*- C++ -*----------------------------------*\
| =========                 |                                                 |
| \\      /  F ield         | OpenFOAM: The Open Source CFD Toolbox           |
|  \\    /   O peration     | Version:  v1612+                                |
|   \\  /    A nd           | Web:      www.OpenFOAM.com                      |
|    \\/     M anipulation  |                                                 |
\*---------------------------------------------------------------------------*/
FoamFile
{
    version     2.0;
    format      ascii;
    class       volScalarField;
    location    "3";
    object      alpha.water;
}
// * * * * * * * * * * * * * * * * * * * * * * * * * * * * * * * * * * * * * //

dimensions      [0 0 0 0 0 0 0];

internalField   nonuniform List<scalar> 
320
(
1
1
1
1
8.78924e-06
6.24968e-06
6.51141e-06
7.88605e-06
7.60854e-06
8.25623e-06
8.87476e-06
8.31066e-06
8.43053e-06
7.99371e-06
7.3279e-06
8.00481e-06
0.999989
0.999989
0.99999
0.999993
0.999997
0.999989
0.999994
0.999994
0.999987
0.999988
0.999995
0.999996
1
1
1
1
1
1
1
1
1
1
1
1
1
1
1
1
1
1
1
1
1
1
1
1
1
1
1
1
7.64045e-06
8.25669e-06
6.57444e-06
7.64654e-06
6.51921e-06
6.51579e-06
8.474e-06
5.98798e-06
7.44729e-06
7.94213e-06
7.74736e-06
7.36553e-06
8.2875e-06
7.49014e-06
7.37516e-06
7.68929e-06
7.9751e-06
7.84061e-06
7.88106e-06
7.56315e-06
0.999999
0.99999
0.999988
0.999989
0.999993
0.999997
0.999995
1
0.999992
0.999991
0.999993
0.999997
0.999987
0.999995
0.999993
0.999995
0.999996
0.999998
0.999996
0.999994
1
1
1
1
1
1
1
1
1
1
1
1
1
1
1
1
1
1
1
1
1
1
1
1
1
1
1
1
1
1
1
1
1
1
1
1
1
1
1
1
1
1
1
1
1
1
1
1
1
1
1
1
1
1
1
1
1
1
1
1
1
1
1
1
1
1
1
1
1
1
1
1
1
1
1
1
6.86375e-06
6.42798e-06
6.91092e-06
5.86759e-06
7.5749e-06
8.57626e-06
7.64634e-06
8.18548e-06
8.32411e-06
8.02192e-06
7.33497e-06
7.98751e-06
6.33225e-06
6.39488e-06
7.25105e-06
6.77868e-06
7.20928e-06
7.52409e-06
9.57026e-06
7.59142e-06
8.8468e-06
6.73988e-06
6.89637e-06
9.46005e-06
8.86807e-06
7.10373e-06
6.84419e-06
6.7155e-06
0.999988
0.999997
0.999986
0.999996
0.999997
0.999992
0.999988
0.999989
0.999995
0.999992
0.999986
0.99999
0.999996
0.999993
0.99999
0.999993
0.999988
0.999993
0.999991
0.999994
0.999991
0.999993
0.999996
0.999988
0.999993
0.999994
0.99999
0.99999
1
1
1
1
1
1
1
1
1
1
1
1
1
1
1
1
1
1
1
1
1
1
1
1
1
1
1
1
1
1
1
1
1
1
1
1
1
1
1
1
1
1
1
1
1
1
1
1
1
1
1
1
1
1
1
1
1
1
1
1
1
1
1
1
1
1
1
1
1
1
1
1
1
1
1
1
1
1
1
1
1
1
1
1
8.56775e-06
5.58326e-06
5.81411e-06
7.17592e-06
0.999986
0.999994
0.999996
0.999995
)
;

boundaryField
{
    top_fluid_surface
    {
        type            inletOutlet;
        inletValue      uniform 0;
        value           nonuniform List<scalar> 
64
(
0
6.24968e-06
6.51141e-06
0
7.60854e-06
0
0
0
0
0
7.3279e-06
0
0
0
6.57444e-06
0
6.51921e-06
6.51579e-06
0
5.98798e-06
0
0
0
7.36553e-06
0
7.49014e-06
7.37516e-06
7.68929e-06
0
0
0
7.56315e-06
6.86375e-06
6.42798e-06
6.91092e-06
5.86759e-06
0
0
0
0
0
0
0
0
6.33225e-06
6.39488e-06
0
6.77868e-06
7.20928e-06
7.52409e-06
0
0
0
6.73988e-06
6.89637e-06
0
0
7.10373e-06
6.84419e-06
6.7155e-06
8.56775e-06
5.58326e-06
5.81411e-06
7.17592e-06
)
;
    }
    bottom_fluid_surface
    {
        type            zeroGradient;
    }
    lateral_surface_1
    {
        type            zeroGradient;
    }
    lateral_surface_2
    {
        type            zeroGradient;
    }
    lateral_surface_3
    {
        type            zeroGradient;
    }
    lateral_surface_4
    {
        type            zeroGradient;
    }
}


// ************************************************************************* //
