/*--------------------------------*- C++ -*----------------------------------*\
| =========                 |                                                 |
| \\      /  F ield         | OpenFOAM: The Open Source CFD Toolbox           |
|  \\    /   O peration     | Version:  v1612+                                |
|   \\  /    A nd           | Web:      www.OpenFOAM.com                      |
|    \\/     M anipulation  |                                                 |
\*---------------------------------------------------------------------------*/
FoamFile
{
    version     2.0;
    format      ascii;
    class       volScalarField;
    location    "3";
    object      p;
}
// * * * * * * * * * * * * * * * * * * * * * * * * * * * * * * * * * * * * * //

dimensions      [1 -1 -2 0 0 0 0];

internalField   nonuniform List<scalar> 
320
(
14724.8
14724.8
14724.8
14724.8
4.94139
4.94121
4.9421
4.94245
4.94209
4.94261
4.94308
4.94298
4.94316
4.9432
4.94216
4.94177
4914.85
4914.78
4914.79
4914.85
4914.83
4914.84
4914.87
4914.86
4914.83
4914.83
4914.82
4914.87
14724.8
14724.8
14724.8
14724.8
14724.8
14724.8
14724.8
14724.8
14724.8
14724.8
14724.8
14724.8
24534.8
24534.8
24534.8
24534.8
24534.8
24534.8
24534.8
24534.8
24534.8
24534.8
24534.8
24534.8
24534.8
24534.8
24534.8
24534.8
4.94161
4.94181
4.9414
4.94496
4.94133
4.94154
4.94312
4.94149
4.94457
4.9405
4.94178
4.94234
4.94254
4.94259
4.9413
4.94276
4.94365
4.94367
4.94203
4.94126
4914.88
4914.84
4914.78
4914.86
4914.8
4914.82
4914.87
4914.83
4914.88
4914.85
4914.85
4914.83
4914.83
4914.83
4914.81
4914.82
4914.87
4914.88
4914.87
4914.82
14724.8
14724.8
14724.8
14724.8
14724.8
14724.8
14724.8
14724.8
14724.8
14724.8
14724.8
14724.8
14724.8
14724.8
14724.8
14724.8
14724.8
14724.8
14724.8
14724.8
24534.8
24534.8
24534.8
24534.8
24534.8
24534.8
24534.8
24534.8
24534.8
24534.8
24534.8
24534.8
24534.8
24534.8
24534.8
24534.8
24534.8
24534.8
24534.8
24534.8
34344.8
34344.8
34344.8
34344.8
34344.8
34344.8
34344.8
34344.8
34344.8
34344.8
34344.8
34344.8
34344.8
34344.8
34344.8
34344.8
34344.8
34344.8
34344.8
34344.8
34344.8
34344.8
34344.8
34344.8
34344.8
34344.8
34344.8
34344.8
34344.8
34344.8
34344.8
34344.8
34344.8
34344.8
34344.8
34344.8
4.94051
4.94169
4.94125
4.94121
4.94171
4.9416
4.94176
4.94139
4.94252
4.94635
4.93958
4.94037
4.93966
4.93988
4.94054
4.94154
4.94253
4.94177
4.94267
4.94087
4.94117
4.94094
4.94332
4.94489
4.94331
4.94217
4.94086
4.93972
4914.78
4914.82
4914.77
4914.81
4914.87
4914.86
4914.83
4914.84
4914.87
4914.88
4914.81
4914.85
4914.81
4914.8
4914.83
4914.8
4914.79
4914.81
4914.86
4914.85
4914.86
4914.8
4914.82
4914.85
4914.87
4914.81
4914.79
4914.79
14724.8
14724.8
14724.8
14724.8
14724.8
14724.8
14724.8
14724.8
14724.8
14724.8
14724.8
14724.8
14724.8
14724.8
14724.8
14724.8
14724.8
14724.8
14724.8
14724.8
14724.8
14724.8
14724.8
14724.8
14724.8
14724.8
14724.8
14724.8
24534.8
24534.8
24534.8
24534.8
24534.8
24534.8
24534.8
24534.8
24534.8
24534.8
24534.8
24534.8
24534.8
24534.8
24534.8
24534.8
24534.8
24534.8
24534.8
24534.8
24534.8
24534.8
24534.8
24534.8
24534.8
24534.8
24534.8
24534.8
34344.8
34344.8
34344.8
34344.8
34344.8
34344.8
34344.8
34344.8
34344.8
34344.8
34344.8
34344.8
34344.8
34344.8
34344.8
34344.8
34344.8
34344.8
34344.8
34344.8
34344.8
34344.8
34344.8
34344.8
34344.8
34344.8
34344.8
34344.8
4.94142
4.94279
4.94338
4.94265
4914.76
4914.79
4914.81
4914.82
)
;

boundaryField
{
    top_fluid_surface
    {
        type            calculated;
        value           nonuniform List<scalar> 
64
(
-1.17519e-08
0
0
-7.07655e-10
0
-1.13368e-09
-5.01453e-09
-2.46053e-09
-2.28172e-09
-1.24607e-09
0
-1.95241e-09
-1.59505e-10
-2.85153e-09
0
-9.28831e-10
0
0
-1.98826e-09
0
-3.58791e-10
-7.10384e-09
-6.81424e-10
0
-1.47608e-09
0
0
0
-1.09445e-10
-1.22875e-11
-1.28861e-09
-5.15774e-16
0
0
0
0
-2.80789e-10
-4.96101e-09
-2.4592e-10
-4.90232e-09
-1.06322e-09
-3.44414e-11
-1.7317e-09
-1.20894e-08
0
0
-3.7935e-10
0
0
0
-9.9612e-09
-4.63483e-10
-1.82595e-08
0
0
-7.09662e-09
-5.54223e-09
0
0
0
0
0
0
0
)
;
    }
    bottom_fluid_surface
    {
        type            calculated;
        value           nonuniform List<scalar> 
64
(
39249.8
39249.8
39249.8
39249.8
39249.8
39249.8
39249.8
39249.8
39249.8
39249.8
39249.8
39249.8
39249.8
39249.8
39249.8
39249.8
39249.8
39249.8
39249.8
39249.8
39249.8
39249.8
39249.8
39249.8
39249.8
39249.8
39249.8
39249.8
39249.8
39249.8
39249.8
39249.8
39249.8
39249.8
39249.8
39249.8
39249.8
39249.8
39249.8
39249.8
39249.8
39249.8
39249.8
39249.8
39249.8
39249.8
39249.8
39249.8
39249.8
39249.8
39249.8
39249.8
39249.8
39249.8
39249.8
39249.8
39249.8
39249.8
39249.8
39249.8
39249.8
39249.8
39249.8
39249.8
)
;
    }
    lateral_surface_1
    {
        type            calculated;
        value           nonuniform List<scalar> 
40
(
4.94051
4.94169
4.94125
4.94121
4.94171
4.9416
4.94176
4.93972
4914.78
4914.82
4914.77
4914.81
4914.87
4914.86
4914.83
4914.79
14724.8
14724.8
14724.8
14724.8
14724.8
14724.8
14724.8
14724.8
24534.8
24534.8
24534.8
24534.8
24534.8
24534.8
24534.8
24534.8
34344.8
34344.8
34344.8
34344.8
34344.8
34344.8
34344.8
34344.8
)
;
    }
    lateral_surface_2
    {
        type            calculated;
        value           nonuniform List<scalar> 
40
(
4.93988
4.94054
4.94154
4.94253
4.94177
4.94267
4.94087
4.94117
4914.8
4914.83
4914.8
4914.79
4914.81
4914.86
4914.85
4914.86
14724.8
14724.8
14724.8
14724.8
14724.8
14724.8
14724.8
14724.8
24534.8
24534.8
24534.8
24534.8
24534.8
24534.8
24534.8
24534.8
34344.8
34344.8
34344.8
34344.8
34344.8
34344.8
34344.8
34344.8
)
;
    }
    lateral_surface_3
    {
        type            calculated;
        value           nonuniform List<scalar> 
40
(
4.94176
4.94139
4.94252
4.94635
4.93958
4.94037
4.93966
4.93988
4914.83
4914.84
4914.87
4914.88
4914.81
4914.85
4914.81
4914.8
14724.8
14724.8
14724.8
14724.8
14724.8
14724.8
14724.8
14724.8
24534.8
24534.8
24534.8
24534.8
24534.8
24534.8
24534.8
24534.8
34344.8
34344.8
34344.8
34344.8
34344.8
34344.8
34344.8
34344.8
)
;
    }
    lateral_surface_4
    {
        type            calculated;
        value           nonuniform List<scalar> 
40
(
4.94117
4.94094
4.94332
4.94489
4.94331
4.94217
4.94086
4.93972
4914.86
4914.8
4914.82
4914.85
4914.87
4914.81
4914.79
4914.79
14724.8
14724.8
14724.8
14724.8
14724.8
14724.8
14724.8
14724.8
24534.8
24534.8
24534.8
24534.8
24534.8
24534.8
24534.8
24534.8
34344.8
34344.8
34344.8
34344.8
34344.8
34344.8
34344.8
34344.8
)
;
    }
}


// ************************************************************************* //
