/*--------------------------------*- C++ -*----------------------------------*\
| =========                 |                                                 |
| \\      /  F ield         | OpenFOAM: The Open Source CFD Toolbox           |
|  \\    /   O peration     | Version:  v1612+                                |
|   \\  /    A nd           | Web:      www.OpenFOAM.com                      |
|    \\/     M anipulation  |                                                 |
\*---------------------------------------------------------------------------*/
FoamFile
{
    version     2.0;
    format      ascii;
    class       volScalarField;
    location    "3";
    object      p_rgh;
}
// * * * * * * * * * * * * * * * * * * * * * * * * * * * * * * * * * * * * * //

dimensions      [1 -1 -2 0 0 0 0];

internalField   nonuniform List<scalar> 
320
(
-9800.22
-9800.21
-9800.2
-9800.2
-0.0066807
0.00558098
0.00519253
-0.00119087
-0.000193748
-0.00284274
-0.00540556
-0.0027424
-0.00314653
-0.000972252
0.00124901
-0.0024541
-9799.99
-9800.06
-9800.07
-9800.04
-9800.12
-9800
-9800.04
-9800.04
-9799.98
-9799.99
-9800.11
-9800.07
-9800.21
-9800.22
-9800.21
-9800.21
-9800.2
-9800.21
-9800.2
-9800.2
-9800.21
-9800.2
-9800.2
-9800.19
-9800.21
-9800.21
-9800.2
-9800.2
-9800.21
-9800.21
-9800.21
-9800.2
-9800.2
-9800.21
-9800.2
-9800.2
-9800.21
-9800.2
-9800.2
-9800.2
-0.000828255
-0.00365083
0.00418683
0.00248872
0.00438118
0.00460786
-0.00340778
0.00714971
0.00307967
-0.00341404
-0.00117974
0.00124713
-0.00306742
0.000888847
0.000157846
8.31342e-05
-0.000424598
0.000247153
-0.00159147
-0.000804451
-9800.1
-9800.01
-9800.05
-9799.98
-9800.09
-9800.14
-9800.06
-9800.17
-9800.01
-9800.02
-9800.04
-9800.13
-9799.98
-9800.1
-9800.09
-9800.1
-9800.07
-9800.09
-9800.07
-9800.09
-9800.19
-9800.21
-9800.21
-9800.21
-9800.21
-9800.2
-9800.19
-9800.19
-9800.2
-9800.21
-9800.2
-9800.2
-9800.21
-9800.2
-9800.2
-9800.2
-9800.18
-9800.18
-9800.19
-9800.21
-9800.2
-9800.21
-9800.21
-9800.21
-9800.21
-9800.2
-9800.2
-9800.2
-9800.2
-9800.2
-9800.2
-9800.2
-9800.21
-9800.2
-9800.2
-9800.2
-9800.19
-9800.19
-9800.2
-9800.21
-9800.21
-9800.21
-9800.2
-9800.2
-9800.21
-9800.21
-9800.21
-9800.21
-9800.21
-9800.21
-9800.2
-9800.2
-9800.2
-9800.2
-9800.2
-9800.2
-9800.2
-9800.21
-9800.21
-9800.21
-9800.21
-9800.21
-9800.2
-9800.2
-9800.21
-9800.21
-9800.21
-9800.2
-9800.21
-9800.2
-9800.2
-9800.2
-9800.2
-9800.2
-9800.2
-9800.21
0.00187374
0.00519602
0.00238473
0.00746174
-0.000411028
-0.00542925
-0.000704773
-0.00371968
-0.00327363
0.00204221
-0.0013625
-0.00376659
0.00363578
0.0035401
1.29427e-05
0.00332411
0.00220296
-0.000100149
-0.00922953
-0.00132428
-0.00717843
0.00291597
0.00452382
-0.00646994
-0.00514709
0.00235889
0.00232052
0.0018168
-9800.05
-9800.14
-9800.02
-9800.14
-9800.09
-9800.02
-9799.99
-9800
-9800.06
-9800
-9799.98
-9800
-9800.12
-9800.1
-9800.02
-9800.09
-9800.03
-9800.08
-9800
-9800.06
-9800
-9800.09
-9800.13
-9799.97
-9800.03
-9800.1
-9800.06
-9800.06
-9800.23
-9800.2
-9800.23
-9800.21
-9800.2
-9800.2
-9800.21
-9800.21
-9800.19
-9800.19
-9800.21
-9800.21
-9800.21
-9800.22
-9800.21
-9800.21
-9800.22
-9800.21
-9800.2
-9800.2
-9800.21
-9800.21
-9800.2
-9800.2
-9800.19
-9800.21
-9800.22
-9800.23
-9800.23
-9800.21
-9800.22
-9800.21
-9800.2
-9800.21
-9800.21
-9800.21
-9800.2
-9800.21
-9800.21
-9800.21
-9800.21
-9800.21
-9800.21
-9800.22
-9800.21
-9800.21
-9800.2
-9800.2
-9800.2
-9800.2
-9800.2
-9800.2
-9800.2
-9800.21
-9800.21
-9800.22
-9800.22
-9800.21
-9800.22
-9800.21
-9800.21
-9800.21
-9800.21
-9800.21
-9800.21
-9800.21
-9800.21
-9800.21
-9800.21
-9800.21
-9800.21
-9800.21
-9800.21
-9800.21
-9800.2
-9800.2
-9800.2
-9800.2
-9800.2
-9800.2
-9800.2
-9800.2
-9800.21
-9800.22
-0.00556624
0.0104285
0.00988907
0.00248591
-9800.04
-9800.12
-9800.14
-9800.11
)
;

boundaryField
{
    top_fluid_surface
    {
        type            totalPressure;
        rho             rho;
        psi             none;
        gamma           1;
        p0              uniform 0;
        value           nonuniform List<scalar> 
64
(
-1.17519e-08
0
0
-7.07655e-10
0
-1.13368e-09
-5.01453e-09
-2.46053e-09
-2.28172e-09
-1.24607e-09
0
-1.95241e-09
-1.59505e-10
-2.85153e-09
0
-9.28831e-10
0
0
-1.98826e-09
0
-3.58791e-10
-7.10384e-09
-6.81424e-10
0
-1.47608e-09
0
0
0
-1.09445e-10
-1.22875e-11
-1.28861e-09
-5.15774e-16
0
0
0
0
-2.80789e-10
-4.96101e-09
-2.4592e-10
-4.90232e-09
-1.06322e-09
-3.44414e-11
-1.7317e-09
-1.20894e-08
0
0
-3.7935e-10
0
0
0
-9.9612e-09
-4.63483e-10
-1.82595e-08
0
0
-7.09662e-09
-5.54223e-09
0
0
0
0
0
0
0
)
;
    }
    bottom_fluid_surface
    {
        type            fixedFluxPressure;
        gradient        uniform 0;
        value           nonuniform List<scalar> 
64
(
-9800.21
-9800.21
-9800.2
-9800.2
-9800.21
-9800.21
-9800.21
-9800.21
-9800.21
-9800.21
-9800.2
-9800.2
-9800.2
-9800.2
-9800.2
-9800.2
-9800.2
-9800.21
-9800.21
-9800.21
-9800.21
-9800.21
-9800.2
-9800.2
-9800.21
-9800.21
-9800.21
-9800.2
-9800.21
-9800.2
-9800.2
-9800.2
-9800.2
-9800.2
-9800.2
-9800.21
-9800.22
-9800.21
-9800.22
-9800.21
-9800.21
-9800.21
-9800.21
-9800.21
-9800.21
-9800.21
-9800.21
-9800.21
-9800.21
-9800.21
-9800.21
-9800.21
-9800.21
-9800.21
-9800.2
-9800.2
-9800.2
-9800.2
-9800.2
-9800.2
-9800.2
-9800.2
-9800.21
-9800.22
)
;
    }
    lateral_surface_1
    {
        type            fixedFluxPressure;
        gradient        uniform 0;
        value           nonuniform List<scalar> 
40
(
0.00187374
0.00519602
0.00238473
0.00746174
-0.000411028
-0.00542925
-0.000704773
0.0018168
-9800.05
-9800.14
-9800.02
-9800.14
-9800.09
-9800.02
-9799.99
-9800.06
-9800.23
-9800.2
-9800.23
-9800.21
-9800.2
-9800.2
-9800.21
-9800.23
-9800.23
-9800.21
-9800.22
-9800.21
-9800.2
-9800.21
-9800.21
-9800.22
-9800.22
-9800.21
-9800.22
-9800.21
-9800.21
-9800.21
-9800.21
-9800.22
)
;
    }
    lateral_surface_2
    {
        type            fixedFluxPressure;
        gradient        uniform 0;
        value           nonuniform List<scalar> 
40
(
0.0035401
1.29427e-05
0.00332411
0.00220296
-0.000100149
-0.00922953
-0.00132428
-0.00717843
-9800.1
-9800.02
-9800.09
-9800.03
-9800.08
-9800
-9800.06
-9800
-9800.22
-9800.21
-9800.21
-9800.22
-9800.21
-9800.2
-9800.2
-9800.21
-9800.21
-9800.21
-9800.22
-9800.21
-9800.21
-9800.2
-9800.2
-9800.2
-9800.21
-9800.21
-9800.21
-9800.21
-9800.21
-9800.2
-9800.2
-9800.2
)
;
    }
    lateral_surface_3
    {
        type            fixedFluxPressure;
        gradient        uniform 0;
        value           nonuniform List<scalar> 
40
(
-0.000704773
-0.00371968
-0.00327363
0.00204221
-0.0013625
-0.00376659
0.00363578
0.0035401
-9799.99
-9800
-9800.06
-9800
-9799.98
-9800
-9800.12
-9800.1
-9800.21
-9800.21
-9800.19
-9800.19
-9800.21
-9800.21
-9800.21
-9800.22
-9800.21
-9800.21
-9800.2
-9800.21
-9800.21
-9800.21
-9800.21
-9800.21
-9800.21
-9800.21
-9800.21
-9800.21
-9800.21
-9800.21
-9800.21
-9800.21
)
;
    }
    lateral_surface_4
    {
        type            fixedFluxPressure;
        gradient        uniform 0;
        value           nonuniform List<scalar> 
40
(
-0.00717843
0.00291597
0.00452382
-0.00646994
-0.00514709
0.00235889
0.00232052
0.0018168
-9800
-9800.09
-9800.13
-9799.97
-9800.03
-9800.1
-9800.06
-9800.06
-9800.21
-9800.21
-9800.2
-9800.2
-9800.19
-9800.21
-9800.22
-9800.23
-9800.2
-9800.2
-9800.2
-9800.2
-9800.2
-9800.21
-9800.21
-9800.22
-9800.2
-9800.2
-9800.2
-9800.2
-9800.2
-9800.2
-9800.21
-9800.22
)
;
    }
}


// ************************************************************************* //
