/*--------------------------------*- C++ -*----------------------------------*\
| =========                 |                                                 |
| \\      /  F ield         | OpenFOAM: The Open Source CFD Toolbox           |
|  \\    /   O peration     | Version:  v1612+                                |
|   \\  /    A nd           | Web:      www.OpenFOAM.com                      |
|    \\/     M anipulation  |                                                 |
\*---------------------------------------------------------------------------*/
FoamFile
{
    version     2.0;
    format      ascii;
    class       surfaceScalarField;
    location    "3";
    object      phi;
}
// * * * * * * * * * * * * * * * * * * * * * * * * * * * * * * * * * * * * * //

dimensions      [0 3 -1 0 0 0 0];

internalField   nonuniform List<scalar> 
816
(
-2.82137e-06
-9.14684e-07
1.7815e-06
8.76446e-07
1.11003e-06
-3.47227e-08
3.27169e-07
1.71177e-06
-8.64338e-07
4.51573e-06
-8.44106e-06
-1.98243e-06
2.83213e-06
1.95307e-06
2.6408e-06
-6.28888e-06
-2.22239e-06
1.92324e-06
1.56671e-08
-1.38256e-06
0.000221118
-7.30382e-05
1.20112e-06
3.11298e-05
0.000108202
4.45939e-05
2.79715e-06
5.38248e-05
-6.92003e-05
-4.88155e-05
9.58495e-07
-5.92114e-05
-4.10752e-05
-2.60597e-05
6.06729e-06
-0.000121754
0.000153564
-6.89862e-05
-7.06522e-06
1.31464e-05
9.0531e-06
-3.85469e-05
-8.36739e-06
2.6371e-06
7.64034e-05
-2.7635e-05
-6.27329e-06
-5.70458e-05
0.000253999
7.88272e-06
5.32985e-06
-7.12122e-05
0.000161393
0.000150451
-7.65004e-06
-8.17916e-05
7.50975e-05
0.000169909
7.07443e-06
-0.000163104
0.000218296
0.00012159
-7.49312e-06
-9.32368e-05
8.53032e-05
1.07643e-05
0.000162287
4.19493e-06
1.73934e-06
6.03891e-06
-1.23285e-05
4.22101e-07
9.40049e-06
6.68715e-06
-1.35945e-05
1.25361e-06
7.9385e-06
3.21513e-06
-4.70177e-06
-1.50841e-06
6.42699e-06
2.05311e-06
4.78491e-06
2.17206e-06
-9.46437e-07
-3.79046e-06
4.60378e-06
-7.03851e-06
1.34648e-06
3.11244e-06
-1.04379e-05
-8.67678e-06
1.37442e-07
-1.36275e-06
-2.60136e-06
-4.3544e-06
5.19306e-06
1.03786e-07
1.63627e-06
-3.15366e-06
4.61739e-06
1.96525e-06
-1.88345e-05
1.60388e-06
7.7807e-06
5.08419e-06
-5.199e-06
1.55092e-06
5.96431e-06
3.1238e-06
-3.52206e-06
2.83444e-06
-1.76869e-06
1.09923e-05
5.46253e-06
2.41583e-06
1.00577e-06
-4.92032e-06
-6.3791e-06
-1.87455e-07
-3.50756e-06
-5.14951e-06
-2.22217e-06
-5.69987e-07
-1.72818e-06
-2.44838e-06
-3.47e-06
6.9481e-07
1.71876e-06
9.04318e-07
1.83886e-06
1.27705e-06
-4.73017e-08
1.86942e-06
-4.89958e-06
-4.07675e-06
-1.49964e-06
2.88868e-06
-2.04715e-06
3.21073e-07
3.55234e-06
-2.8392e-08
3.82764e-06
-2.58374e-06
-8.77203e-06
-1.29602e-06
-2.6282e-06
-4.6663e-06
-2.08791e-06
9.19575e-07
-5.2536e-06
-1.95779e-06
-3.56924e-08
4.35202e-06
-2.96991e-06
-5.69996e-07
-1.75149e-06
1.50518e-07
1.18516e-06
1.3089e-06
2.85762e-07
9.69123e-07
4.54221e-07
1.96616e-08
1.31088e-06
-9.58045e-07
2.10608e-06
1.32687e-06
3.1213e-07
-1.58099e-06
1.25658e-06
3.5243e-07
-1.64229e-07
-2.43193e-06
-7.15185e-07
-1.88424e-06
-1.962e-06
-1.64508e-06
-1.26324e-06
1.85714e-07
-1.72577e-06
-1.64131e-06
-5.32607e-07
7.53777e-07
7.07821e-07
4.60065e-07
7.99762e-07
-6.46551e-07
2.87696e-07
1.79769e-06
-3.35015e-06
-1.24209e-06
-1.32838e-06
1.71451e-06
-3.79108e-07
-3.27045e-07
2.07824e-06
2.13728e-06
-4.16132e-07
-1.58912e-06
-6.76757e-07
-1.53811e-06
-2.88283e-06
-2.45533e-06
8.24273e-07
-7.12747e-07
-3.12415e-06
6.32648e-07
-6.14054e-07
-2.09699e-06
-4.68534e-07
1.3691e-06
6.35139e-07
-7.64594e-06
7.19926e-06
0.000197528
8.18139e-05
-1.2762e-06
0.000109188
-0.000116714
7.85499e-06
0.000105825
-4.01063e-05
1.08975e-05
1.31693e-05
-6.65501e-06
4.7903e-06
-9.48878e-05
-0.000150136
-8.72067e-05
2.65831e-06
-0.000147768
4.77932e-06
9.01007e-07
-8.69052e-05
-0.000214851
1.87421e-06
-7.00884e-05
-7.01143e-05
1.4665e-05
-2.36999e-05
-3.60729e-05
1.36103e-05
0.000112804
-1.26863e-05
-1.79342e-05
4.42525e-06
0.000111808
-0.00010898
-7.90587e-06
-4.39295e-05
-9.29866e-05
-1.10818e-05
3.46413e-05
-2.06393e-05
3.74351e-07
-0.000178373
5.80228e-05
-2.24865e-06
-9.29334e-05
-1.0177e-05
3.60665e-05
-1.2969e-05
5.70381e-05
1.69616e-05
-5.56799e-07
-0.000114972
5.34328e-05
3.52209e-06
-0.000111178
8.25399e-05
8.95679e-06
5.35889e-05
-7.22604e-06
9.65432e-05
-8.92067e-06
-2.12214e-06
-5.71805e-06
1.58317e-05
5.09185e-06
-1.44824e-06
-3.19211e-06
9.4134e-07
-6.21309e-07
7.35189e-08
4.40979e-06
-1.07314e-06
7.18814e-06
2.3833e-06
4.30914e-06
1.07393e-05
-3.22183e-06
-8.53451e-06
2.68241e-06
8.84146e-06
1.56047e-06
-2.89429e-06
5.73226e-06
-5.31945e-07
-1.50477e-05
1.99309e-05
-1.57286e-05
-1.37777e-05
1.63186e-05
-1.2272e-05
8.39379e-06
-9.10861e-06
3.9562e-06
-4.28843e-06
6.79093e-06
2.68417e-06
4.1052e-06
-4.29546e-06
6.51869e-06
-8.36801e-06
-2.64984e-06
-1.50541e-05
7.66931e-07
-5.41938e-07
2.20956e-06
6.03276e-07
9.60792e-06
-4.87162e-07
-7.36597e-06
-1.52607e-06
3.28511e-06
-4.55187e-06
4.65915e-06
-2.33747e-06
3.30228e-06
7.92379e-07
-8.33633e-06
1.4136e-05
-2.91399e-06
-5.93576e-06
9.43148e-06
-2.13208e-07
-2.83633e-06
-4.08485e-06
-1.21011e-05
1.1101e-06
4.26324e-06
6.52057e-06
9.68698e-07
-8.35308e-07
-1.55532e-06
1.29978e-07
-2.03002e-06
1.25824e-06
-2.21903e-06
1.653e-06
3.84548e-06
-2.79888e-06
-1.89732e-06
5.80262e-06
3.02686e-06
5.45127e-06
-1.06576e-06
3.88918e-06
6.2831e-07
-1.40039e-06
2.0431e-06
4.92342e-06
2.63518e-06
8.8543e-06
6.95493e-06
5.41063e-06
7.86601e-06
1.58467e-06
1.71715e-06
-4.1998e-06
-5.01552e-06
3.7878e-06
1.92283e-06
1.17871e-06
-2.22589e-07
4.52225e-06
2.88004e-06
1.36425e-06
-3.62888e-07
-7.06809e-06
7.26123e-07
-1.15837e-06
7.37669e-07
9.78919e-07
-8.24274e-07
-2.47617e-07
-6.3846e-08
-4.98672e-07
-3.10629e-06
-2.27677e-06
-2.6064e-06
-3.43902e-06
9.96826e-07
3.55097e-06
7.83946e-07
5.51933e-06
4.3484e-06
2.86579e-06
3.6498e-06
3.13063e-06
-1.07607e-06
1.24526e-06
4.13664e-06
1.84615e-09
2.38382e-06
2.07494e-06
-2.39448e-08
-1.04924e-06
-4.20127e-07
-7.85925e-07
-1.08722e-06
9.05468e-07
-1.27471e-06
1.21583e-06
1.0915e-06
-1.27792e-06
-5.07435e-07
1.71182e-06
2.20736e-06
3.60238e-06
-2.75089e-07
1.24517e-06
7.69378e-07
-1.19076e-06
1.14806e-06
2.4875e-06
1.06565e-06
2.53513e-06
3.37884e-06
3.26224e-06
2.39911e-06
-9.33996e-08
1.52643e-06
-5.28571e-07
-3.78528e-06
1.84497e-06
1.25954e-06
5.66461e-07
-3.60808e-07
2.99239e-06
8.01988e-07
-2.60256e-08
-3.33047e-09
-2.14034e-06
2.22926e-07
-7.74e-07
8.4848e-08
7.54824e-07
-7.99934e-08
-1.41238e-07
-1.76008e-07
-6.14456e-07
-1.70043e-06
-5.94045e-07
-1.58292e-06
-1.99192e-06
2.26481e-07
1.87854e-06
-2.03805e-07
1.50808e-06
2.85502e-06
5.97156e-07
1.14252e-06
1.25203e-06
-1.76491e-07
-1.36056e-07
2.25405e-06
-1.18705e-06
3.68216e-07
2.31869e-07
8.7118e-07
6.48867e-07
-1.70551e-07
-3.49741e-07
-1.07981e-06
1.04075e-06
7.24167e-07
-1.00232e-06
9.33601e-07
-3.68868e-07
-9.15181e-07
-3.62413e-07
-8.8444e-07
-9.07228e-07
3.05629e-08
-6.76331e-07
-7.69787e-07
1.9407e-07
-4.44279e-08
1.97618e-07
-7.18009e-07
1.25168e-06
-1.79792e-06
-5.86784e-07
1.59091e-06
2.78019e-07
1.3752e-06
8.57421e-07
-1.1818e-06
4.00379e-08
-3.51579e-07
-1.57523e-06
4.15651e-07
-1.80496e-06
4.92138e-07
-1.26969e-06
-6.40585e-08
-1.82265e-07
1.25384e-06
-2.46374e-07
-7.75018e-07
-1.65111e-07
-3.53469e-07
-4.17341e-07
4.92328e-07
-4.22337e-07
-3.10651e-07
8.7077e-07
1.65187e-06
-2.35667e-07
4.12391e-07
-3.12435e-07
1.1761e-06
4.94337e-07
1.0033e-06
1.16364e-06
-6.62811e-08
1.26091e-06
-1.53837e-06
9.15973e-07
1.27722e-06
-2.30726e-08
1.92012e-06
4.55734e-07
3.62973e-07
2.99257e-07
-4.53187e-08
5.58535e-07
-3.09582e-07
2.06893e-07
-6.74567e-08
-9.86572e-07
-2.49066e-07
-1.18536e-06
8.42228e-07
-4.78127e-07
1.30426e-06
5.88295e-09
6.18267e-07
-4.12186e-08
1.16527e-06
3.29529e-05
-7.83957e-06
-1.20321e-06
1.0973e-05
-8.33087e-06
3.1315e-05
-4.44345e-06
-0.000157692
4.78987e-06
-0.000159466
8.13265e-06
-5.19627e-05
-5.64969e-06
-1.11719e-05
-3.81683e-06
7.42369e-06
4.03591e-06
-3.28473e-05
-3.62399e-06
4.42775e-05
-2.68987e-05
-1.26939e-05
4.68663e-06
0.000136004
2.81898e-05
9.22141e-05
1.13911e-05
-5.84518e-05
-9.25345e-07
-4.37186e-05
4.11073e-06
-8.06195e-05
-6.78089e-06
-0.000176927
7.78226e-06
-0.000184676
-1.24375e-05
-4.26674e-05
-1.51037e-05
-9.34414e-05
9.01312e-06
0.00023145
1.7835e-05
8.76164e-05
2.91376e-06
-4.63123e-05
-5.11355e-06
0.000113095
-1.89826e-05
0.000210672
-6.84156e-06
0.000167616
-7.1826e-06
9.63213e-05
1.00825e-05
9.59337e-06
6.46836e-06
-8.48698e-06
-1.50854e-06
-1.09205e-06
4.16668e-06
7.19559e-07
-6.11182e-06
8.15424e-07
7.86449e-06
-3.55666e-06
1.52522e-05
-6.19351e-06
-6.26122e-06
3.42814e-06
-1.37562e-05
9.88003e-06
-1.09027e-05
-1.35561e-06
5.45522e-06
-1.66124e-05
-1.03988e-05
-6.29678e-06
-2.28582e-05
1.12636e-05
-1.53959e-06
4.69039e-06
2.20465e-05
-2.30894e-06
5.42876e-06
6.93243e-06
-9.08311e-06
2.15129e-06
1.04679e-06
6.04655e-07
3.17082e-06
-1.06907e-06
-7.75326e-06
-5.9762e-06
-8.37317e-06
-7.4966e-06
2.83965e-06
1.41124e-05
-2.43566e-06
9.9821e-06
5.23927e-06
-1.76259e-07
8.52295e-06
-4.76501e-06
-1.39861e-05
-4.57046e-06
-1.01205e-05
-9.71774e-06
-2.58737e-06
-2.39884e-06
-7.74364e-06
-1.29611e-06
-1.80131e-06
1.73075e-06
-1.77255e-07
1.14237e-06
2.2195e-06
-3.11638e-06
-1.72293e-06
-1.28519e-06
3.79581e-06
4.99542e-06
6.16673e-06
5.10759e-06
-3.34895e-06
-2.53614e-06
-6.11196e-06
-2.80101e-06
-5.1874e-06
1.83813e-06
1.44498e-06
1.23136e-06
-4.87392e-06
-5.50556e-06
-9.19883e-06
-5.981e-06
5.07236e-07
5.5494e-07
1.04906e-05
2.77605e-06
3.20879e-06
1.09674e-06
-3.61945e-06
1.69065e-06
2.33085e-07
3.89747e-06
2.33814e-06
7.45021e-07
-3.8636e-06
-1.78716e-06
-4.8538e-06
-7.97883e-08
1.08073e-06
-1.79501e-06
-7.14854e-07
4.12713e-07
2.54525e-06
2.90538e-06
3.42448e-06
-1.09437e-06
-6.44042e-06
-1.54376e-06
-5.32551e-06
-1.0051e-07
-8.92608e-07
-6.05403e-07
-3.0814e-06
-1.43095e-07
-9.04524e-07
6.97288e-07
-8.32095e-08
1.96268e-07
1.12862e-06
-1.48266e-06
-8.24773e-07
-1.38445e-08
1.05022e-06
3.20393e-06
1.67511e-06
2.67958e-06
-6.05764e-07
-1.33934e-06
-2.08707e-06
-1.28061e-06
-1.63699e-06
7.21454e-07
1.83157e-07
-1.92562e-07
-1.48326e-06
-3.97696e-06
-2.05057e-06
-3.44095e-06
-1.26735e-07
1.27939e-07
3.13838e-06
2.19569e-06
1.14364e-06
1.22416e-06
-7.96602e-07
1.10052e-06
3.519e-10
3.20405e-06
2.25763e-07
1.03078e-06
-1.44477e-06
-1.36362e-06
-1.67948e-06
-4.46085e-07
6.18929e-09
-7.54668e-07
-3.97742e-07
6.07636e-07
5.76603e-07
2.06343e-06
3.8183e-07
-5.90914e-07
-1.9079e-06
-1.5576e-06
-1.4932e-06
-1.06872e-06
-1.03135e-07
-8.33298e-07
-1.02956e-06
-2.54407e-07
-6.80875e-07
5.86526e-07
2.30999e-07
-7.55604e-07
-1.23086e-07
1.13489e-06
1.41207e-06
-6.6779e-07
-6.45542e-07
-5.66551e-08
-3.69652e-07
-1.42036e-06
-1.61107e-06
-4.63695e-09
1.14203e-06
1.27143e-06
1.2603e-06
1.95525e-06
8.24034e-07
-2.83836e-07
-5.86187e-08
-4.47836e-07
6.98081e-08
2.02157e-07
-8.60935e-07
-1.03588e-06
-5.01151e-07
-3.41361e-07
6.24387e-05
5.44667e-05
6.04126e-06
-0.000214077
2.31534e-06
8.02784e-05
-7.37008e-06
-1.42279e-05
3.44082e-06
7.05323e-06
4.66076e-06
4.36204e-06
)
;

boundaryField
{
    top_fluid_surface
    {
        type            calculated;
        value           nonuniform List<scalar> 
64
(
-0.000288335
0.000197771
0.000189967
-6.74045e-05
2.39441e-05
-0.000101321
-0.000209145
-0.000131069
-0.00013092
-8.07607e-05
5.83346e-05
-0.00011396
-3.72455e-05
-0.000149154
0.000135693
-0.000164123
0.000156314
0.000175665
-0.000130715
0.00029566
-0.000135177
-0.000197614
-6.71823e-05
8.26711e-05
-0.000116367
2.58246e-05
2.98287e-05
5.45472e-05
-3.20201e-05
-1.82575e-05
-9.23601e-05
-8.96483e-06
7.19609e-05
0.000230844
9.08325e-05
0.000283227
-4.42026e-05
-0.000203411
-3.77588e-05
-0.000175628
-0.000105654
-0.000138721
-8.19454e-05
-0.000248532
0.000137901
0.000149797
-3.33033e-05
0.000154053
4.37371e-05
4.91829e-05
-0.000302889
-4.44449e-05
-0.000339863
0.000135876
0.000197071
-0.000262456
-0.000212486
0.000100034
5.12596e-05
7.95891e-05
6.33388e-05
0.000388843
0.000388582
0.000136286
)
;
    }
    bottom_fluid_surface
    {
        type            calculated;
        value           uniform 0;
    }
    lateral_surface_1
    {
        type            calculated;
        value           uniform 0;
    }
    lateral_surface_2
    {
        type            calculated;
        value           uniform 0;
    }
    lateral_surface_3
    {
        type            calculated;
        value           uniform 0;
    }
    lateral_surface_4
    {
        type            calculated;
        value           uniform 0;
    }
}


// ************************************************************************* //
