/*--------------------------------*- C++ -*----------------------------------*\
| =========                 |                                                 |
| \\      /  F ield         | OpenFOAM: The Open Source CFD Toolbox           |
|  \\    /   O peration     | Version:  v1612+                                |
|   \\  /    A nd           | Web:      www.OpenFOAM.com                      |
|    \\/     M anipulation  |                                                 |
\*---------------------------------------------------------------------------*/
FoamFile
{
    version     2.0;
    format      ascii;
    class       volVectorField;
    location    "3";
    object      U;
}
// * * * * * * * * * * * * * * * * * * * * * * * * * * * * * * * * * * * * * //

dimensions      [0 1 -1 0 0 0 0];

internalField   nonuniform List<vector> 
320
(
(-4.1462e-06 -3.22023e-06 -1.23039e-06)
(-9.37628e-07 -2.71046e-06 -6.74847e-06)
(-3.06145e-06 1.83482e-06 -4.16628e-06)
(-8.77134e-07 3.51184e-06 9.89069e-07)
(0.000190786 2.46173e-05 -0.00015331)
(0.000190929 -2.80953e-05 8.95183e-05)
(-6.75079e-05 -3.5663e-05 9.22064e-05)
(-0.000239694 -2.28729e-05 -3.76206e-05)
(3.03722e-05 -3.6817e-05 2.23735e-05)
(3.90077e-05 -7.22388e-05 -4.76167e-05)
(8.75463e-06 -0.000152288 -0.000100145)
(6.2557e-05 -0.000215206 -7.01503e-05)
(-8.26365e-05 -7.54132e-05 -6.75533e-05)
(0.000198893 -0.000211171 -4.99214e-05)
(-2.07531e-06 -0.000115252 3.5157e-05)
(-3.25211e-05 -0.000106371 -6.24886e-05)
(-4.55607e-06 1.92704e-06 1.57982e-05)
(6.81563e-06 4.28373e-06 1.34919e-05)
(8.35977e-06 3.32103e-06 3.91729e-06)
(1.4917e-06 5.86402e-06 -4.43975e-06)
(-1.43258e-06 -3.32323e-06 -5.78838e-06)
(-4.89271e-06 -4.31475e-06 1.06551e-05)
(-3.01148e-06 -4.38129e-06 3.42297e-06)
(5.92103e-06 -7.90775e-06 -1.62378e-06)
(-5.94116e-06 4.61875e-07 1.95699e-05)
(1.1376e-08 -4.84472e-06 5.03502e-06)
(-8.31322e-06 -3.30672e-06 3.03323e-06)
(-7.64751e-06 -4.91029e-06 -1.07901e-05)
(4.15669e-06 -9.67986e-07 1.03479e-05)
(-2.41295e-06 -2.53845e-07 1.00436e-05)
(-4.62781e-06 8.35206e-07 3.50044e-06)
(-7.55325e-07 -1.68439e-06 -3.54494e-06)
(-3.86456e-06 3.28307e-06 -2.26243e-06)
(-5.04266e-06 -3.1021e-07 8.77783e-06)
(5.10529e-07 4.4137e-07 3.36778e-06)
(-5.77617e-06 4.35565e-06 -6.55335e-07)
(-5.05256e-07 -4.69758e-07 1.52431e-05)
(-2.8395e-07 5.14204e-06 4.00002e-06)
(2.035e-06 4.50768e-06 3.41501e-06)
(4.70368e-06 5.35513e-06 -7.91033e-06)
(-3.08867e-06 -1.83557e-06 -5.72045e-08)
(-4.3479e-08 -1.0315e-06 -1.74285e-06)
(-1.67255e-06 2.22833e-06 -4.96536e-07)
(-3.98877e-07 2.73447e-06 -9.67045e-07)
(1.71639e-06 -7.8565e-07 2.35776e-06)
(-1.91125e-06 2.95369e-07 1.6261e-06)
(-2.4111e-06 9.13842e-07 7.66393e-07)
(1.01311e-07 -3.23182e-07 -5.82193e-07)
(-2.59989e-06 1.77666e-06 -7.1221e-07)
(-3.7052e-06 -5.40221e-07 1.76033e-06)
(-4.95152e-07 -4.3312e-09 7.64234e-08)
(-3.20348e-06 2.54615e-06 5.06642e-07)
(-2.91809e-07 -1.48506e-07 3.82042e-06)
(-7.31096e-07 2.84928e-06 8.22843e-07)
(6.01787e-08 2.35745e-06 6.73505e-07)
(2.43534e-06 3.37952e-06 -2.19858e-06)
(-9.11431e-05 -0.000237984 -1.78609e-05)
(9.46187e-05 -0.000106275 -7.55186e-05)
(8.4895e-06 -0.000105279 6.0421e-05)
(-0.00013883 8.5806e-05 -4.31006e-05)
(-1.11088e-05 0.000112728 7.98754e-05)
(-4.88425e-05 -0.000128712 9.02865e-05)
(-4.78913e-07 1.35557e-05 -6.30596e-05)
(-1.70359e-06 -4.32687e-05 0.000157174)
(8.84634e-06 -0.000247736 -2.67877e-05)
(0.000121119 7.60027e-06 -0.000119196)
(-6.53422e-05 0.000186659 -3.69168e-05)
(9.9238e-05 1.36152e-05 5.34171e-05)
(0.000145444 5.63161e-05 -5.43339e-05)
(2.1398e-05 -0.000129396 1.35537e-05)
(3.12203e-05 -0.00011658 1.68862e-05)
(-7.84842e-05 -3.69887e-05 3.85343e-05)
(0.00013517 -1.73002e-05 -1.47949e-05)
(0.000174236 -2.00578e-05 -4.95731e-06)
(2.876e-05 -6.3555e-05 -5.07663e-05)
(0.000102033 -0.000126469 3.19971e-08)
(-9.57331e-07 -5.76208e-06 -1.62496e-05)
(-4.5652e-06 -2.79676e-06 4.36924e-06)
(-8.43821e-08 -6.83437e-06 -5.0153e-07)
(3.18767e-07 -1.59431e-06 -7.60936e-06)
(-4.24988e-06 4.40373e-06 -1.28778e-05)
(5.81871e-06 5.4559e-06 -1.02282e-05)
(3.38889e-06 1.85452e-06 -6.64778e-06)
(-1.37663e-05 -9.9368e-06 -2.24845e-05)
(-1.10762e-05 -1.75426e-05 -1.69143e-05)
(-1.55993e-06 -8.43839e-06 1.34539e-05)
(-1.45929e-05 4.97754e-06 -2.3333e-06)
(2.89173e-06 -6.51412e-06 -8.4092e-06)
(5.55389e-06 -2.77835e-07 1.45526e-05)
(-1.10174e-06 2.47863e-06 -2.04053e-06)
(2.45936e-06 -1.06092e-05 6.44576e-07)
(-9.44055e-06 -6.79545e-06 3.48358e-06)
(-3.39889e-06 -1.37355e-06 -3.9066e-06)
(1.0026e-06 5.72246e-06 -1.56398e-05)
(2.04457e-06 9.2825e-06 -9.00357e-06)
(1.52976e-05 4.81217e-06 3.4958e-06)
(-4.36601e-08 -1.58524e-08 -1.1441e-05)
(1.46293e-06 1.2129e-06 2.53841e-06)
(-2.74081e-06 4.13423e-06 -3.35105e-07)
(-1.05644e-06 3.79641e-06 -6.82422e-06)
(4.44647e-06 -3.20381e-06 -9.47548e-06)
(-1.4976e-06 4.74393e-08 -6.2937e-06)
(3.05494e-06 -1.94707e-06 -2.68685e-06)
(3.92478e-06 -7.75129e-07 -1.51289e-05)
(-1.97996e-06 5.46413e-06 -1.38423e-05)
(-4.45567e-06 5.88618e-06 6.8025e-06)
(1.15773e-06 -1.9899e-06 -1.94875e-06)
(-5.54301e-06 3.30006e-07 -4.59323e-06)
(-2.1502e-06 2.27809e-06 1.2843e-05)
(2.51353e-06 -1.69144e-06 -1.68695e-06)
(2.69358e-07 -1.22723e-07 1.16644e-07)
(4.97177e-06 1.55825e-06 4.49935e-06)
(-2.2696e-06 4.37514e-06 -1.63968e-06)
(-2.0669e-06 1.76739e-06 -9.60078e-06)
(-3.37932e-06 -3.04688e-06 -6.93929e-06)
(-6.92321e-06 -2.23491e-06 1.79042e-06)
(-1.94331e-07 7.15842e-07 -3.18877e-06)
(-4.52129e-09 2.03679e-06 6.58952e-07)
(-1.74298e-06 2.75862e-06 -1.17987e-06)
(-3.42456e-07 2.11272e-06 -1.14504e-06)
(2.96657e-06 -1.66619e-06 -2.21806e-06)
(-2.95793e-07 7.39125e-07 -2.086e-06)
(1.63265e-06 -1.22028e-06 -2.18198e-06)
(1.60645e-06 -1.07204e-06 -3.77798e-06)
(-2.07657e-06 3.15786e-06 -3.04041e-06)
(-3.32272e-06 3.26804e-06 5.35135e-07)
(5.62285e-07 -1.34533e-06 -9.0118e-07)
(-3.48525e-06 -6.12795e-07 -1.20994e-06)
(-1.52837e-06 9.91723e-07 2.68561e-06)
(1.37096e-06 -8.05158e-07 -1.00978e-07)
(5.14467e-07 -3.04228e-07 3.24137e-07)
(2.85213e-06 4.44088e-07 6.48682e-07)
(-1.34671e-06 2.58032e-06 -6.18989e-07)
(-1.56638e-06 1.33087e-06 -2.39418e-06)
(-1.33872e-06 -1.04017e-06 -1.61347e-06)
(-3.65204e-06 -2.00942e-08 3.74903e-07)
(-1.79311e-06 -4.20456e-07 -5.04874e-07)
(-3.02392e-07 -9.84399e-08 -7.17656e-07)
(-1.19602e-06 1.26768e-06 -2.4089e-07)
(-8.40265e-07 1.38619e-06 1.06465e-07)
(4.41586e-07 -1.21413e-07 1.19774e-06)
(-1.0091e-06 5.16623e-07 1.02171e-06)
(-9.8664e-07 3.7501e-07 1.94164e-07)
(-5.00568e-07 -2.51623e-07 -2.06128e-07)
(-1.33784e-06 6.93703e-07 9.41717e-08)
(-2.02286e-06 -4.3158e-07 7.33456e-07)
(-8.76371e-07 3.88846e-07 4.59751e-07)
(-2.16737e-06 9.11036e-07 4.36517e-07)
(-3.11559e-07 3.14921e-07 1.54579e-06)
(-3.06876e-07 1.76044e-06 5.57643e-07)
(-2.30647e-07 1.53916e-06 5.91403e-07)
(1.04361e-06 1.86226e-06 -3.16623e-07)
(-1.43929e-07 6.08883e-07 -1.13308e-06)
(-4.47475e-07 7.93509e-07 4.23965e-08)
(-7.98816e-07 1.157e-06 -6.21391e-07)
(-7.64673e-09 8.33937e-07 -8.069e-07)
(1.16269e-06 -6.14775e-07 -9.4279e-07)
(-2.58039e-07 2.3702e-08 -4.36981e-07)
(4.72045e-07 -4.49642e-07 -2.31244e-07)
(1.60669e-07 -1.36103e-07 -1.31226e-06)
(-1.05508e-06 1.03209e-06 -1.29103e-06)
(-1.59236e-06 1.40262e-06 7.35512e-07)
(-6.94597e-07 -4.66423e-07 -1.84991e-07)
(-2.18288e-06 2.75024e-07 -4.51941e-07)
(-1.12209e-06 5.79661e-07 1.23758e-06)
(1.45605e-07 -1.65303e-07 1.97674e-09)
(-3.12697e-09 2.08036e-07 3.00072e-08)
(8.5697e-07 4.58555e-07 3.93969e-07)
(-7.03424e-07 1.34859e-06 1.03562e-07)
(-8.40331e-07 9.3003e-07 -8.6324e-07)
(-8.50556e-07 -3.4696e-08 -4.07451e-07)
(-1.86468e-06 5.42306e-08 7.32544e-09)
(0.000145525 -3.67261e-05 3.6418e-05)
(-5.2669e-05 -0.000143177 0.000127343)
(5.94344e-05 -7.52217e-05 4.66208e-05)
(-1.01454e-06 -0.000107621 0.000141899)
(-0.000285925 -6.57133e-05 -2.36977e-05)
(-4.30577e-06 3.86637e-05 -9.96093e-05)
(-0.00011531 -7.24524e-05 -2.21775e-05)
(-0.000226731 4.06547e-05 -9.90184e-05)
(-0.00018675 -2.45851e-05 -4.61133e-05)
(-0.000123038 2.49142e-05 -8.29956e-06)
(-0.000175728 -2.64912e-05 -5.88507e-05)
(-0.00010762 5.05243e-05 -0.000155495)
(0.000122476 0.00021266 6.90027e-05)
(9.66411e-05 -2.7904e-05 7.90066e-05)
(3.488e-05 -2.39282e-06 -2.75445e-05)
(3.38881e-05 5.86942e-05 8.51518e-05)
(0.00013926 -0.00010081 1.80769e-05)
(0.000205469 1.84596e-05 3.34831e-05)
(9.00991e-05 -0.000160749 -0.000141147)
(4.1752e-05 -4.99556e-05 -3.04461e-05)
(0.000113175 -0.00017122 -0.000191099)
(-8.38014e-06 -0.000249525 6.81158e-05)
(-2.00736e-05 2.85038e-05 0.000109422)
(5.68324e-05 4.12958e-05 -0.000119135)
(3.82101e-05 -0.000221955 -0.000105283)
(-0.000145027 -0.000178929 5.6052e-05)
(-7.66704e-05 -0.000119721 1.02594e-05)
(-0.000138656 -9.83581e-05 2.9372e-05)
(1.5224e-05 2.72104e-06 1.78303e-06)
(-3.83505e-08 -2.00476e-06 -7.14883e-06)
(-3.48517e-06 1.80193e-06 6.82968e-06)
(5.61285e-06 -3.08505e-06 -1.00769e-05)
(-2.87734e-06 -3.89514e-06 -1.46594e-05)
(-5.7229e-06 1.11894e-07 6.9569e-06)
(-7.45028e-06 -2.42186e-06 1.4339e-05)
(-9.98385e-06 9.94765e-06 1.4313e-05)
(-1.90667e-06 1.09595e-05 -6.40411e-06)
(-4.48026e-06 -1.37213e-05 9.69867e-06)
(-1.74817e-05 -1.7789e-05 2.65781e-05)
(-1.23318e-05 7.89091e-06 5.98561e-06)
(7.9513e-06 1.15517e-05 -2.28753e-05)
(7.65868e-06 -1.81722e-06 -6.2493e-06)
(-4.50251e-06 -1.52419e-06 1.35701e-05)
(-6.8182e-06 1.12521e-06 -2.55423e-06)
(2.24393e-06 -9.30007e-06 -4.0217e-06)
(-3.07157e-06 1.77319e-06 7.19614e-06)
(4.39014e-06 -6.74041e-07 9.45219e-06)
(9.51212e-06 -3.71916e-06 -1.67504e-06)
(5.14951e-06 -7.72693e-06 6.4884e-06)
(1.14195e-06 -1.64745e-05 -6.03058e-06)
(-7.14912e-07 -5.39671e-06 -1.14964e-05)
(2.54104e-06 5.59849e-06 1.37526e-05)
(6.25744e-06 2.13721e-06 1.15986e-05)
(-1.04467e-06 9.38505e-06 2.36314e-06)
(6.35987e-06 7.41572e-06 1.07718e-05)
(1.55937e-06 -2.0799e-06 1.87853e-06)
(-3.76095e-06 -7.93975e-09 1.71497e-07)
(1.25588e-06 -1.40675e-06 -2.01338e-06)
(6.56374e-09 -1.30749e-06 2.76766e-06)
(-4.99655e-06 4.96804e-08 -6.32223e-06)
(2.71025e-06 9.48128e-07 -1.18545e-05)
(6.44047e-06 -3.71709e-06 6.37204e-06)
(3.49928e-06 -1.04596e-06 1.07362e-05)
(6.17041e-06 -4.14164e-06 8.40872e-06)
(2.56162e-06 -5.56294e-07 -2.811e-06)
(5.56666e-06 3.73763e-06 9.09171e-06)
(8.24614e-06 -1.75201e-06 1.64967e-05)
(4.59009e-06 -8.69017e-06 -2.1253e-06)
(-5.9078e-06 -2.45088e-06 -1.88696e-05)
(-3.74665e-06 3.28933e-06 -5.71208e-06)
(-2.44092e-06 1.12819e-06 5.41088e-06)
(5.13815e-07 1.27457e-06 -2.91858e-07)
(-3.75743e-06 1.77236e-06 -4.07604e-06)
(-3.75485e-06 -5.11061e-07 6.51093e-06)
(1.89557e-06 3.37691e-06 7.81414e-06)
(1.49163e-06 1.0693e-07 -2.89344e-06)
(-1.1934e-06 2.15463e-06 -3.06394e-07)
(8.54292e-07 1.78887e-06 -5.04285e-06)
(7.17912e-07 -3.00848e-06 -6.4742e-06)
(-3.71264e-06 -1.89653e-06 1.19769e-05)
(-5.55375e-06 3.39789e-06 9.58757e-06)
(-2.08215e-06 4.98603e-07 1.96729e-06)
(-2.00834e-06 -3.975e-07 4.38778e-06)
(-2.44769e-07 1.75563e-06 -1.59881e-07)
(-1.54244e-06 5.10035e-07 4.74533e-07)
(3.78451e-07 -5.63164e-07 -1.93085e-06)
(-3.2638e-07 -6.27429e-08 1.6162e-06)
(-1.98719e-06 -2.41304e-07 -1.52503e-06)
(2.0137e-06 1.81466e-07 -2.22335e-06)
(3.7372e-06 -2.59745e-06 4.39156e-07)
(1.77381e-06 -5.89181e-07 2.72067e-06)
(3.78207e-06 -1.92027e-06 2.15166e-06)
(1.51972e-06 -4.20068e-07 -5.57858e-07)
(2.62288e-06 1.57903e-06 1.77368e-06)
(4.31901e-06 -1.93257e-06 2.91227e-06)
(1.76234e-06 -5.46936e-06 7.4471e-07)
(-4.30821e-06 -1.35528e-06 -3.7584e-06)
(-2.86096e-06 1.51354e-06 -1.01384e-06)
(-2.08652e-06 6.63111e-08 1.27691e-06)
(1.75652e-07 2.77332e-07 1.26615e-07)
(-2.8322e-06 4.52939e-07 8.99466e-08)
(-3.01111e-06 -3.75713e-07 2.04173e-06)
(1.00414e-06 1.93568e-06 2.19901e-06)
(1.42337e-06 -8.90115e-09 2.08757e-07)
(-3.58476e-07 1.02677e-06 1.15703e-06)
(6.77197e-07 6.23601e-07 -3.76411e-07)
(5.6935e-07 -2.00969e-06 -3.52791e-07)
(-1.77658e-06 -1.56923e-06 2.2645e-06)
(-3.58019e-06 2.36545e-06 1.53349e-06)
(-7.41997e-07 1.29384e-06 1.14867e-07)
(-1.24619e-06 5.12117e-07 1.68129e-06)
(-2.09785e-07 1.54644e-06 6.49032e-07)
(-1.26234e-06 1.0746e-07 -4.14027e-07)
(3.04333e-07 5.35351e-08 -6.07014e-07)
(-1.06525e-07 -3.408e-07 -2.05618e-07)
(-1.04952e-06 -2.87413e-07 -6.58049e-07)
(7.8513e-07 -9.00908e-08 -1.09579e-06)
(1.45784e-06 -1.08019e-06 5.75574e-07)
(1.1743e-06 -3.85247e-07 1.14541e-06)
(1.86924e-06 -8.81947e-07 9.84534e-07)
(9.07129e-07 -3.15635e-07 1.07639e-07)
(1.52991e-06 1.67081e-07 8.1911e-07)
(1.52385e-06 -8.33425e-07 1.46016e-06)
(8.32588e-07 -2.18461e-06 -3.59133e-07)
(-1.69285e-06 -7.11189e-07 -1.90371e-06)
(-1.28122e-06 6.5398e-07 -9.83017e-07)
(-1.29984e-06 2.42361e-07 5.15083e-07)
(-8.95257e-07 3.61464e-07 -1.96714e-07)
(-1.92245e-06 4.43019e-07 -4.41754e-07)
(-1.72704e-06 1.01039e-07 7.59505e-07)
(6.00658e-08 1.04797e-06 8.7146e-07)
(4.51436e-07 1.86577e-07 -1.79139e-07)
(-2.89852e-07 5.93406e-07 -9.60469e-08)
(1.16977e-07 2.40229e-07 -5.14326e-07)
(-2.57659e-07 -3.85376e-07 -4.51292e-07)
(-7.26952e-07 6.31438e-08 1.10546e-06)
(-1.54311e-06 1.39203e-06 1.12112e-06)
(-2.64952e-07 8.37913e-07 4.7097e-08)
(-6.70499e-07 1.97093e-07 5.86411e-07)
(-1.22087e-07 6.55868e-07 -2.67912e-07)
(0.000171811 0.000210559 -1.51983e-05)
(-5.20224e-05 -8.50362e-05 0.00019844)
(0.00022244 -9.75234e-05 0.000206741)
(-4.37221e-05 -0.000322226 8.45289e-05)
(4.62995e-06 1.33819e-05 -1.76691e-07)
(1.30981e-06 1.16477e-05 -1.24448e-05)
(1.03977e-05 9.98118e-07 -1.00323e-05)
(-7.01505e-07 -3.55193e-06 -4.27634e-06)
)
;

boundaryField
{
    top_fluid_surface
    {
        type            pressureInletOutletVelocity;
        value           nonuniform List<vector> 
64
(
(0 0 -0.00015331)
(0.000190929 -2.80953e-05 8.95183e-05)
(-6.75079e-05 -3.5663e-05 9.22064e-05)
(0 0 -3.76206e-05)
(3.03722e-05 -3.6817e-05 2.23735e-05)
(0 0 -4.76167e-05)
(0 0 -0.000100145)
(0 0 -7.01503e-05)
(0 0 -6.75533e-05)
(0 0 -4.99214e-05)
(-2.07531e-06 -0.000115252 3.5157e-05)
(0 0 -6.24886e-05)
(0 0 -1.78609e-05)
(0 0 -7.55186e-05)
(8.4895e-06 -0.000105279 6.0421e-05)
(0 0 -4.31006e-05)
(-1.11088e-05 0.000112728 7.98754e-05)
(-4.88425e-05 -0.000128712 9.02865e-05)
(0 0 -6.30596e-05)
(-1.70359e-06 -4.32687e-05 0.000157174)
(0 0 -2.67877e-05)
(0 0 -0.000119196)
(0 0 -3.69168e-05)
(9.9238e-05 1.36152e-05 5.34171e-05)
(0 0 -5.43339e-05)
(2.1398e-05 -0.000129396 1.35537e-05)
(3.12203e-05 -0.00011658 1.68862e-05)
(-7.84842e-05 -3.69887e-05 3.85343e-05)
(0 0 -1.47949e-05)
(0 0 -4.95731e-06)
(0 0 -5.07663e-05)
(0 0 3.19971e-08)
(0.000145525 -3.67261e-05 3.6418e-05)
(-5.2669e-05 -0.000143177 0.000127343)
(5.94344e-05 -7.52217e-05 4.66208e-05)
(-1.01454e-06 -0.000107621 0.000141899)
(0 0 -2.36977e-05)
(0 0 -9.96093e-05)
(0 0 -2.21775e-05)
(0 0 -9.90184e-05)
(0 0 -4.61133e-05)
(0 0 -8.29956e-06)
(0 0 -5.88507e-05)
(0 0 -0.000155495)
(0.000122476 0.00021266 6.90027e-05)
(9.66411e-05 -2.7904e-05 7.90066e-05)
(0 0 -2.75445e-05)
(3.38881e-05 5.86942e-05 8.51518e-05)
(0.00013926 -0.00010081 1.80769e-05)
(0.000205469 1.84596e-05 3.34831e-05)
(0 0 -0.000141147)
(0 0 -3.04461e-05)
(0 0 -0.000191099)
(-8.38014e-06 -0.000249525 6.81158e-05)
(-2.00736e-05 2.85038e-05 0.000109422)
(0 0 -0.000119135)
(0 0 -0.000105283)
(-0.000145027 -0.000178929 5.6052e-05)
(-7.66704e-05 -0.000119721 1.02594e-05)
(-0.000138656 -9.83581e-05 2.9372e-05)
(0.000171811 0.000210559 -1.51983e-05)
(-5.20224e-05 -8.50362e-05 0.00019844)
(0.00022244 -9.75234e-05 0.000206741)
(-4.37221e-05 -0.000322226 8.45289e-05)
)
;
    }
    bottom_fluid_surface
    {
        type            noSlip;
    }
    lateral_surface_1
    {
        type            noSlip;
    }
    lateral_surface_2
    {
        type            noSlip;
    }
    lateral_surface_3
    {
        type            noSlip;
    }
    lateral_surface_4
    {
        type            noSlip;
    }
}


// ************************************************************************* //
