/*--------------------------------*- C++ -*----------------------------------*\
| =========                 |                                                 |
| \\      /  F ield         | OpenFOAM: The Open Source CFD Toolbox           |
|  \\    /   O peration     | Version:  v1612+                                |
|   \\  /    A nd           | Web:      www.OpenFOAM.com                      |
|    \\/     M anipulation  |                                                 |
\*---------------------------------------------------------------------------*/
FoamFile
{
    version     2.0;
    format      ascii;
    class       surfaceScalarField;
    location    "6.6";
    object      alphaPhi;
}
// * * * * * * * * * * * * * * * * * * * * * * * * * * * * * * * * * * * * * //

dimensions      [0 3 -1 0 0 0 0];

internalField   nonuniform List<scalar> 
816
(
-2.23146e-06
-1.04628e-05
3.91089e-06
-9.81337e-06
-1.46687e-05
3.32652e-05
4.02265e-06
6.67081e-06
-1.74071e-06
8.93047e-06
-2.01146e-05
-5.58467e-06
1.21227e-06
2.96912e-06
6.65002e-06
-1.57139e-05
-2.0428e-06
8.00112e-06
7.90056e-06
-1.54263e-05
1.09906e-08
-8.07025e-09
1.81098e-06
-6.54923e-10
4.45636e-10
8.30458e-09
-4.12097e-06
2.05694e-09
-1.64638e-09
-2.35891e-09
-7.75122e-06
6.11016e-10
8.48027e-09
-1.90291e-09
-2.69317e-06
4.23077e-09
-5.13306e-09
5.66551e-10
-1.72443e-06
5.42414e-09
-5.8784e-09
-2.74246e-09
-9.62867e-07
2.90132e-09
3.67516e-09
-2.92112e-09
-6.39258e-06
1.35241e-09
2.76387e-09
8.6584e-10
-5.36482e-06
2.41201e-09
-4.62862e-10
3.46269e-10
5.75727e-07
2.03986e-09
7.06625e-10
3.47034e-10
7.96385e-07
-2.45732e-09
4.0339e-09
-2.44312e-09
6.73406e-12
-2.28741e-09
4.5331e-10
1.71174e-06
-7.70213e-10
-5.39773e-09
2.23035e-05
-3.54174e-06
-2.34692e-05
-2.11434e-06
1.35415e-05
2.76858e-05
-2.61567e-05
3.0237e-06
1.13308e-05
-3.54057e-06
-5.23538e-06
-3.64938e-06
2.04749e-05
-8.74784e-06
1.29972e-05
-5.06166e-06
-6.23374e-06
1.78372e-07
-4.5849e-06
-1.81948e-07
-2.77904e-06
7.89364e-06
-2.65428e-05
3.52228e-06
1.28137e-05
4.69046e-06
-2.62825e-05
-4.85902e-06
2.11516e-05
4.5528e-06
2.81687e-06
-1.69235e-05
1.85806e-06
6.48443e-06
-3.49915e-05
1.56707e-05
2.06507e-05
2.17053e-05
-2.82361e-05
4.35052e-06
1.21152e-05
-4.12192e-06
3.11297e-05
3.57966e-06
-1.17283e-05
-1.31408e-05
7.41941e-06
5.30319e-06
-5.94532e-06
-1.87558e-06
-1.12397e-05
-5.18793e-07
-1.03094e-05
-1.14648e-05
-3.65346e-06
-4.37913e-07
-2.87853e-06
-3.61089e-07
-1.18723e-05
1.66637e-06
4.90232e-06
4.23876e-06
-2.28444e-06
-2.8513e-06
1.73168e-07
-1.39378e-06
-1.27773e-05
-3.45683e-06
-1.1193e-05
-4.38618e-06
-1.20329e-05
-3.23746e-06
-7.51704e-06
8.97523e-07
6.25934e-06
-3.553e-06
-1.54133e-05
-6.54915e-06
-1.69921e-05
-1.05245e-05
-1.27773e-05
-5.51325e-06
1.20409e-06
1.34383e-05
-3.8583e-06
-6.90362e-06
-2.50966e-06
-4.3898e-06
-1.08487e-06
-6.09274e-06
2.4942e-06
-5.37223e-06
-4.61473e-06
1.61487e-06
4.31383e-06
-1.21981e-06
3.13215e-06
-2.88964e-06
7.39528e-07
1.34927e-06
1.3537e-06
-8.3407e-07
4.0312e-06
3.43186e-06
-2.8588e-06
-1.66311e-06
-5.54644e-07
-3.6753e-06
-5.79485e-06
-2.23679e-06
-1.98098e-06
-4.94906e-07
-4.90191e-07
-7.04558e-06
-6.36283e-07
1.43113e-06
2.10352e-06
-3.53559e-07
-1.48262e-06
2.81119e-07
-1.0525e-06
-1.18083e-06
-1.97078e-06
-7.20394e-06
-3.88504e-06
-2.65567e-06
-2.22314e-06
-4.28556e-06
-4.37816e-06
3.63717e-06
-2.75809e-07
-1.1817e-06
-4.65312e-06
-9.56894e-06
-4.37886e-06
-5.61405e-06
-3.4614e-06
-3.52392e-06
6.1749e-07
-2.2532e-06
4.10411e-06
-2.04938e-06
-3.5807e-06
-2.31218e-06
4.15816e-09
-5.38905e-09
2.9169e-11
-1.03003e-09
8.25028e-09
2.0221e-06
-1.06446e-09
5.83747e-09
-1.68843e-06
8.23778e-10
8.53418e-09
-3.0804e-06
7.77943e-10
-1.4721e-10
2.34878e-07
-2.93439e-09
-6.74375e-10
-3.55427e-09
1.02592e-12
-7.27366e-10
-4.76845e-09
-5.25154e-06
-4.26367e-09
-7.50739e-09
-2.14251e-06
-4.03226e-09
-2.86791e-09
1.71932e-06
-8.12604e-10
1.92028e-09
-7.94962e-07
-5.928e-09
-2.38825e-09
-1.69372e-09
-2.52807e-06
1.40125e-10
-6.60097e-09
-2.90377e-07
-4.33117e-09
-1.90313e-09
-9.59603e-07
6.91762e-10
-1.42001e-09
-4.58268e-06
-3.57391e-09
6.36855e-11
-2.37125e-06
-4.0784e-09
-3.15514e-09
-1.98531e-09
1.34061e-06
-6.82073e-10
-5.26986e-09
-1.53017e-06
-4.47096e-09
-3.42758e-09
8.15399e-07
-1.38866e-09
-2.5601e-09
1.86705e-06
-3.2899e-09
7.79363e-07
-3.68736e-09
-6.81432e-09
-1.43099e-05
9.38879e-07
1.27973e-05
8.23676e-06
9.91086e-06
-1.49292e-05
4.66565e-07
1.07671e-05
-1.26975e-05
1.23496e-05
3.14483e-06
-4.68304e-06
-2.10966e-07
1.67093e-05
3.51305e-05
-2.87858e-05
-2.58012e-05
-1.25118e-06
4.48356e-05
-1.50289e-05
-1.52022e-05
3.3801e-05
-3.41177e-05
-3.96063e-05
5.96222e-05
-3.85629e-05
-2.32264e-05
-3.83459e-06
-4.35278e-06
1.666e-05
-1.66206e-05
-1.01513e-05
-1.86559e-05
-6.39209e-07
3.94563e-05
-4.84952e-06
-2.10062e-05
4.50336e-05
-2.94804e-05
5.37752e-06
-3.9604e-05
-4.01105e-06
-1.50146e-06
2.9146e-05
-1.59393e-05
1.96839e-05
2.46519e-05
-2.69339e-05
-1.69325e-05
3.76428e-06
3.64098e-05
6.12232e-06
-1.76564e-05
4.23674e-05
-2.11091e-05
-1.32502e-05
8.18341e-06
-6.33376e-06
-3.80326e-06
2.78278e-06
-1.21889e-07
3.62991e-05
-1.61812e-05
-2.05985e-05
7.95895e-06
-8.17226e-07
7.06165e-06
-3.9278e-06
-3.19701e-07
-7.4884e-06
3.21141e-07
-2.4062e-06
-4.93854e-06
-9.32838e-06
3.16938e-07
-2.957e-06
-4.81618e-06
-8.42976e-06
1.65152e-05
1.27281e-05
1.46311e-05
-3.84395e-07
2.0427e-05
4.46733e-06
4.58574e-06
1.52245e-05
1.78356e-05
1.61659e-05
2.68779e-05
2.13444e-05
9.57852e-06
-2.35434e-06
1.67296e-06
-9.58302e-06
-6.20795e-06
2.97953e-06
5.73567e-06
1.68087e-06
1.77089e-05
-7.28639e-07
1.2106e-05
2.03582e-05
1.10761e-05
-4.40922e-06
-1.81993e-05
1.38991e-06
-4.48344e-06
1.41013e-05
8.57989e-06
-1.17578e-05
1.13237e-05
1.62596e-05
4.3512e-06
5.03227e-07
1.60641e-05
-8.82703e-06
1.02262e-05
1.90059e-05
8.13945e-06
5.94529e-06
3.75762e-06
4.83491e-06
2.0031e-06
1.44682e-06
8.96531e-07
1.60314e-05
8.44035e-06
1.30154e-05
5.20237e-06
-3.51982e-07
2.60002e-06
-2.43532e-06
2.75821e-07
-2.58408e-06
-5.41426e-07
-1.64771e-06
3.513e-07
-5.60121e-06
-1.29334e-07
-1.40401e-06
-3.54761e-06
-4.59608e-06
4.79242e-06
7.72952e-06
8.41164e-06
-4.82744e-07
7.23229e-06
1.98977e-06
2.53725e-06
4.78824e-06
9.52204e-06
8.97745e-06
8.54952e-06
1.21716e-05
4.99391e-06
-8.95171e-07
5.51269e-07
-5.42451e-06
-2.82825e-07
1.65052e-06
2.87272e-06
1.0387e-06
5.18138e-06
-1.06703e-06
6.74971e-06
6.68769e-06
5.76928e-06
-3.53023e-06
-4.69828e-06
4.32467e-07
-3.01239e-06
4.36882e-06
4.58179e-06
-5.68787e-06
3.39445e-06
8.48069e-06
2.18011e-06
6.31301e-07
5.74e-06
-5.5287e-06
5.91857e-06
5.90069e-06
4.38564e-06
3.17641e-06
1.87906e-06
2.36414e-06
1.26817e-06
3.57712e-07
-5.83023e-07
4.18744e-06
5.01814e-06
7.751e-06
2.82624e-07
-3.17108e-06
1.58052e-06
-3.3071e-06
1.51111e-06
8.63732e-07
1.04221e-06
-2.20779e-06
-2.93884e-07
6.83619e-07
-3.68039e-07
3.10841e-06
-2.43676e-06
-1.74101e-07
5.20937e-07
-2.32139e-06
-1.23624e-06
-2.69851e-07
3.94416e-07
-3.06736e-06
-5.83606e-07
1.01938e-06
-1.42508e-06
-5.75363e-07
-9.31382e-07
-6.49061e-07
-3.72509e-06
-1.54101e-06
-5.65993e-07
-3.04476e-06
9.43073e-07
-1.32278e-06
-1.18628e-06
-4.90953e-06
-2.71911e-06
-1.45699e-06
2.04597e-08
-1.9305e-06
-1.45775e-06
-1.00271e-06
2.41833e-06
-1.68208e-07
-1.10212e-06
-1.02285e-08
3.63852e-07
7.85852e-07
-1.67261e-06
5.28731e-07
-7.47538e-07
-2.15546e-06
2.99771e-06
4.47364e-06
1.27421e-07
1.87503e-06
1.27207e-06
4.67564e-06
4.28704e-06
4.99445e-06
1.77176e-06
9.80146e-07
-1.58239e-06
1.13188e-06
1.9461e-06
5.10972e-07
-6.0863e-07
3.28174e-06
3.36793e-06
-1.05291e-06
5.92088e-07
-1.08625e-06
3.23812e-06
-2.70808e-06
4.08244e-06
9.70572e-07
3.93324e-07
-2.25186e-06
2.98444e-06
1.86665e-06
2.45217e-06
4.85757e-07
1.32929e-06
4.76923e-07
2.3794e-06
2.98009e-06
9.24304e-09
-1.3664e-08
1.03644e-06
7.81582e-09
-4.69178e-06
1.22025e-08
-6.87548e-08
5.96228e-09
7.26906e-11
4.49327e-09
2.43934e-06
-1.62584e-09
1.59502e-06
2.24215e-09
-0.000102102
-1.79262e-09
-7.68334e-06
-8.00284e-09
3.67259e-06
-3.68194e-09
-2.40089e-07
-3.09569e-09
1.97255e-06
-1.07791e-09
2.43438e-08
7.21323e-10
4.98873e-06
9.64042e-10
2.38704e-06
-1.16641e-09
-0.000132972
-3.05939e-09
3.72959e-05
-3.22988e-09
2.49469e-06
-2.90877e-09
-1.7729e-06
-2.32146e-09
-2.74518e-06
-1.9487e-09
-3.87376e-06
3.84839e-09
-1.35033e-06
-1.2847e-09
3.60241e-05
-1.94297e-09
-0.000108214
-1.98018e-09
1.08177e-06
-4.66937e-09
-3.80147e-06
-7.20908e-09
-1.40313e-06
-9.88464e-09
-1.73247e-06
3.89542e-09
1.34162e-05
-1.54557e-05
-9.47769e-06
3.75772e-06
1.42047e-05
1.82538e-05
-1.24419e-05
-3.28048e-07
3.56869e-05
-1.77567e-05
2.76408e-05
-2.31701e-05
-1.51157e-05
2.02796e-05
-4.99517e-05
1.12106e-05
-2.44788e-05
-1.8e-05
2.50528e-05
-8.56139e-06
-4.25578e-05
8.97509e-06
-6.28421e-05
1.27033e-05
-8.79055e-06
7.41665e-06
5.11071e-06
-1.0285e-05
2.33211e-05
-2.33628e-06
-1.85008e-05
-3.78053e-06
5.43757e-06
1.02839e-07
-1.88426e-05
1.43821e-07
-1.06886e-05
-7.20698e-06
-1.39352e-05
-1.57771e-05
-2.55148e-05
3.13347e-05
-3.88435e-05
1.06767e-05
1.12397e-05
-3.67543e-06
4.52266e-05
4.9249e-06
-2.31994e-05
-5.93827e-06
-5.08175e-06
-1.18171e-05
4.6157e-06
-7.35179e-06
-2.93277e-05
-2.37384e-05
-4.59067e-06
8.12977e-06
-4.57895e-06
-1.8693e-06
7.56828e-06
-8.46867e-06
-5.516e-06
1.85173e-06
1.60321e-05
1.2489e-05
1.21769e-05
1.6997e-05
-6.93611e-06
-1.08782e-05
-2.21244e-05
-8.59429e-06
-1.21651e-05
9.97125e-06
1.09746e-05
3.80732e-06
-1.85483e-05
-9.59877e-06
-2.80774e-05
-1.21246e-05
-4.50931e-06
-6.57559e-06
2.57812e-06
6.28872e-06
1.04625e-05
1.90979e-06
-8.35151e-06
3.40287e-06
3.26343e-06
4.19844e-06
-8.53431e-06
3.0901e-07
-5.39004e-06
2.07896e-06
-7.09898e-06
3.2531e-06
-1.03727e-05
-1.81715e-05
-1.74125e-05
-8.33036e-06
5.74916e-06
7.74649e-06
2.03589e-05
3.07596e-06
-1.03455e-05
4.24944e-06
-1.41704e-06
6.73667e-06
3.02279e-06
3.67105e-06
-1.32481e-05
-1.19377e-05
-3.17025e-06
5.15966e-06
-1.55255e-06
-8.17624e-07
2.77438e-06
-4.36477e-06
-2.50194e-06
1.203e-06
4.86103e-06
7.4252e-06
2.41641e-06
9.26222e-06
-1.02533e-06
-5.93583e-06
-7.00517e-06
-5.16387e-06
-4.60474e-06
5.41116e-06
2.40373e-06
2.6388e-06
-6.24714e-06
-5.91263e-06
-7.42232e-06
-7.41126e-06
-2.42743e-06
-4.07553e-06
9.20909e-07
3.69188e-06
2.72235e-06
8.46863e-07
-2.53484e-06
2.06763e-06
1.01495e-06
2.25021e-06
-2.94012e-06
-4.14419e-07
-2.28492e-06
5.06865e-07
-3.42004e-06
1.80085e-06
-3.13133e-06
-1.02233e-05
-5.29925e-06
-4.0045e-06
1.71529e-06
5.04472e-06
5.7611e-06
1.68663e-06
-2.57931e-06
2.00314e-06
6.3296e-07
4.7382e-06
-2.93024e-07
2.83335e-06
-3.5808e-06
-3.94982e-06
-1.67724e-06
2.50217e-06
-8.48985e-09
-2.15112e-06
1.02065e-06
2.62984e-06
4.59889e-06
-2.38593e-06
-2.53149e-06
1.74861e-06
1.9905e-07
-2.22192e-06
-3.66147e-06
-1.603e-06
1.11922e-06
5.63319e-07
9.93034e-07
1.42425e-06
-2.78912e-07
-4.73174e-07
4.85178e-07
-4.76536e-06
-2.04811e-06
1.45761e-06
7.50029e-07
1.87143e-06
2.04092e-06
1.43659e-06
4.2615e-09
2.44659e-09
-4.54967e-06
-2.82646e-09
1.80666e-07
6.3883e-09
3.82297e-07
-7.09954e-06
5.41633e-06
1.86396e-05
-5.90134e-06
1.965e-05
)
;

boundaryField
{
    top_fluid_surface
    {
        type            calculated;
        value           nonuniform List<scalar> 
64
(
0
1.74388e-09
2.26194e-09
3.95392e-10
0
0
0
0
0
0
4.07303e-09
0
1.22603e-09
0
2.66746e-09
0
9.14075e-09
1.01402e-08
8.24821e-09
8.77601e-09
0
2.10264e-09
6.69244e-09
7.93755e-09
0
4.72654e-09
4.8194e-09
3.37004e-09
4.11703e-09
0
0
1.30573e-09
0
5.2833e-10
0
4.815e-09
2.17927e-09
2.66207e-09
2.36728e-10
2.21235e-09
3.24493e-09
0
0
0
0
0
5.1376e-10
0
0
2.46734e-10
0
0
0
0
5.92788e-10
0
1.43245e-09
0
0
0
0
0
0
6.05428e-10
)
;
    }
    bottom_fluid_surface
    {
        type            calculated;
        value           uniform 0;
    }
    lateral_surface_1
    {
        type            calculated;
        value           uniform 0;
    }
    lateral_surface_2
    {
        type            calculated;
        value           uniform 0;
    }
    lateral_surface_3
    {
        type            calculated;
        value           uniform 0;
    }
    lateral_surface_4
    {
        type            calculated;
        value           uniform 0;
    }
}


// ************************************************************************* //
