/*--------------------------------*- C++ -*----------------------------------*\
| =========                 |                                                 |
| \\      /  F ield         | OpenFOAM: The Open Source CFD Toolbox           |
|  \\    /   O peration     | Version:  v1612+                                |
|   \\  /    A nd           | Web:      www.OpenFOAM.com                      |
|    \\/     M anipulation  |                                                 |
\*---------------------------------------------------------------------------*/
FoamFile
{
    version     2.0;
    format      ascii;
    class       volScalarField;
    location    "6.6";
    object      p;
}
// * * * * * * * * * * * * * * * * * * * * * * * * * * * * * * * * * * * * * //

dimensions      [1 -1 -2 0 0 0 0];

internalField   nonuniform List<scalar> 
320
(
14724.8
14724.8
14724.8
14724.8
4.98266
4.98313
4.98367
4.98285
4.98274
4.98253
4.98279
4.9832
4.98197
4.98239
4.98284
4.98229
4914.88
4914.86
4914.86
4914.86
4914.89
4914.89
4914.88
4914.89
4914.87
4914.89
4914.88
4914.89
14724.8
14724.8
14724.8
14724.8
14724.8
14724.8
14724.8
14724.8
14724.8
14724.8
14724.8
14724.8
24534.8
24534.8
24534.8
24534.8
24534.8
24534.8
24534.8
24534.8
24534.8
24534.8
24534.8
24534.8
24534.8
24534.8
24534.8
24534.8
4.98206
4.98192
4.98246
4.98316
4.98319
4.98336
4.98269
4.98244
4.9819
4.98152
4.98231
4.98121
4.9822
4.98224
4.98202
4.98122
4.98248
4.9828
4.9824
4.9824
4914.84
4914.87
4914.86
4914.88
4914.83
4914.83
4914.85
4914.85
4914.88
4914.84
4914.85
4914.85
4914.89
4914.86
4914.86
4914.88
4914.88
4914.91
4914.9
4914.88
14724.8
14724.8
14724.8
14724.8
14724.8
14724.8
14724.8
14724.8
14724.8
14724.8
14724.8
14724.8
14724.8
14724.8
14724.8
14724.8
14724.8
14724.8
14724.8
14724.8
24534.8
24534.8
24534.8
24534.8
24534.8
24534.8
24534.8
24534.8
24534.8
24534.8
24534.8
24534.8
24534.8
24534.8
24534.8
24534.8
24534.8
24534.8
24534.8
24534.8
34344.8
34344.8
34344.8
34344.8
34344.8
34344.8
34344.8
34344.8
34344.8
34344.8
34344.8
34344.8
34344.8
34344.8
34344.8
34344.8
34344.8
34344.8
34344.8
34344.8
34344.8
34344.8
34344.8
34344.8
34344.8
34344.8
34344.8
34344.8
34344.8
34344.8
34344.8
34344.8
34344.8
34344.8
34344.8
34344.8
4.98212
4.98191
4.9823
4.98197
4.98194
4.98125
4.97787
4.98492
4.9832
4.98265
4.98336
4.98171
4.98215
4.9809
4.98036
4.98907
4.97965
4.9818
4.98232
4.98151
4.98207
4.98805
4.97835
4.98224
4.98269
4.98246
4.98262
4.98293
4914.89
4914.84
4914.89
4914.85
4914.84
4914.83
4914.78
4914.83
4914.84
4914.89
4914.89
4914.89
4914.9
4914.89
4914.81
4914.9
4914.87
4914.84
4914.91
4914.87
4914.88
4914.92
4914.84
4914.9
4914.84
4914.86
4914.9
4914.95
14724.8
14724.8
14724.8
14724.8
14724.8
14724.8
14724.7
14724.8
14724.8
14724.8
14724.8
14724.8
14724.8
14724.8
14724.8
14724.8
14724.8
14724.8
14724.8
14724.8
14724.8
14724.8
14724.8
14724.8
14724.8
14724.8
14724.8
14724.8
24534.8
24534.8
24534.8
24534.8
24534.8
24534.8
24534.8
24534.8
24534.8
24534.8
24534.8
24534.8
24534.8
24534.8
24534.8
24534.8
24534.8
24534.8
24534.8
24534.8
24534.8
24534.8
24534.8
24534.8
24534.8
24534.8
24534.8
24534.8
34344.8
34344.8
34344.8
34344.8
34344.8
34344.8
34344.8
34344.8
34344.8
34344.8
34344.8
34344.8
34344.8
34344.8
34344.8
34344.8
34344.8
34344.8
34344.8
34344.8
34344.8
34344.8
34344.8
34344.8
34344.8
34344.8
34344.8
34344.8
4.98329
4.98308
4.98283
4.98353
4914.89
4914.9
4914.9
4914.87
)
;

boundaryField
{
    top_fluid_surface
    {
        type            calculated;
        value           nonuniform List<scalar> 
64
(
-6.49533e-09
0
0
0
-1.89976e-09
-6.46101e-09
-6.78784e-09
-9.99752e-09
-4.86028e-09
-2.013e-09
0
-1.02047e-08
0
-7.50626e-09
0
-1.63028e-09
0
0
0
0
-7.33113e-10
0
0
0
-6.67002e-09
0
0
0
0
-3.2186e-09
-3.95537e-09
0
-4.73823e-09
0
-1.14719e-08
0
0
0
-3.77348e-09
0
0
-3.42285e-08
-1.51978e-08
-4.03793e-09
-2.89707e-08
-1.99964e-12
0
-8.84397e-10
-9.00602e-09
0
-8.14746e-09
-9.24922e-09
-1.955e-08
-7.98159e-10
0
-1.10389e-08
0
-2.81364e-10
-1.8815e-08
-1.61315e-07
-1.46124e-08
-1.16338e-11
-1.09123e-10
0
)
;
    }
    bottom_fluid_surface
    {
        type            calculated;
        value           nonuniform List<scalar> 
64
(
39249.8
39249.8
39249.8
39249.8
39249.8
39249.8
39249.8
39249.8
39249.8
39249.8
39249.8
39249.8
39249.8
39249.8
39249.8
39249.8
39249.8
39249.8
39249.8
39249.8
39249.8
39249.8
39249.8
39249.8
39249.8
39249.8
39249.8
39249.8
39249.8
39249.8
39249.8
39249.8
39249.8
39249.8
39249.8
39249.8
39249.8
39249.8
39249.8
39249.8
39249.8
39249.8
39249.8
39249.8
39249.8
39249.8
39249.8
39249.8
39249.8
39249.8
39249.8
39249.8
39249.8
39249.8
39249.8
39249.8
39249.8
39249.8
39249.8
39249.8
39249.8
39249.8
39249.8
39249.8
)
;
    }
    lateral_surface_1
    {
        type            calculated;
        value           nonuniform List<scalar> 
40
(
4.98212
4.98191
4.9823
4.98197
4.98194
4.98125
4.97787
4.98293
4914.89
4914.84
4914.89
4914.85
4914.84
4914.83
4914.78
4914.95
14724.8
14724.8
14724.8
14724.8
14724.8
14724.8
14724.7
14724.8
24534.8
24534.8
24534.8
24534.8
24534.8
24534.8
24534.8
24534.8
34344.8
34344.8
34344.8
34344.8
34344.8
34344.8
34344.8
34344.8
)
;
    }
    lateral_surface_2
    {
        type            calculated;
        value           nonuniform List<scalar> 
40
(
4.9809
4.98036
4.98907
4.97965
4.9818
4.98232
4.98151
4.98207
4914.89
4914.81
4914.9
4914.87
4914.84
4914.91
4914.87
4914.88
14724.8
14724.8
14724.8
14724.8
14724.8
14724.8
14724.8
14724.8
24534.8
24534.8
24534.8
24534.8
24534.8
24534.8
24534.8
24534.8
34344.8
34344.8
34344.8
34344.8
34344.8
34344.8
34344.8
34344.8
)
;
    }
    lateral_surface_3
    {
        type            calculated;
        value           nonuniform List<scalar> 
40
(
4.97787
4.98492
4.9832
4.98265
4.98336
4.98171
4.98215
4.9809
4914.78
4914.83
4914.84
4914.89
4914.89
4914.89
4914.9
4914.89
14724.7
14724.8
14724.8
14724.8
14724.8
14724.8
14724.8
14724.8
24534.8
24534.8
24534.8
24534.8
24534.8
24534.8
24534.8
24534.8
34344.8
34344.8
34344.8
34344.8
34344.8
34344.8
34344.8
34344.8
)
;
    }
    lateral_surface_4
    {
        type            calculated;
        value           nonuniform List<scalar> 
40
(
4.98207
4.98805
4.97835
4.98224
4.98269
4.98246
4.98262
4.98293
4914.88
4914.92
4914.84
4914.9
4914.84
4914.86
4914.9
4914.95
14724.8
14724.8
14724.8
14724.8
14724.8
14724.8
14724.8
14724.8
24534.8
24534.8
24534.8
24534.8
24534.8
24534.8
24534.8
24534.8
34344.8
34344.8
34344.8
34344.8
34344.8
34344.8
34344.8
34344.8
)
;
    }
}


// ************************************************************************* //
