/*--------------------------------*- C++ -*----------------------------------*\
| =========                 |                                                 |
| \\      /  F ield         | OpenFOAM: The Open Source CFD Toolbox           |
|  \\    /   O peration     | Version:  v1612+                                |
|   \\  /    A nd           | Web:      www.OpenFOAM.com                      |
|    \\/     M anipulation  |                                                 |
\*---------------------------------------------------------------------------*/
FoamFile
{
    version     2.0;
    format      ascii;
    class       volScalarField;
    location    "9.25";
    object      p;
}
// * * * * * * * * * * * * * * * * * * * * * * * * * * * * * * * * * * * * * //

dimensions      [1 -1 -2 0 0 0 0];

internalField   nonuniform List<scalar> 
320
(
14724.8
14724.8
14724.8
14724.8
5.00623
5.00624
5.00728
5.00524
5.00556
5.00615
5.00635
5.00654
5.00631
5.00583
5.00615
5.00591
4914.91
4914.9
4914.91
4914.89
4914.83
4914.9
4914.9
4914.91
4914.93
4914.92
4914.91
4914.91
14724.8
14724.8
14724.8
14724.8
14724.8
14724.8
14724.8
14724.8
14724.8
14724.8
14724.8
14724.8
24534.8
24534.8
24534.8
24534.8
24534.8
24534.8
24534.8
24534.8
24534.8
24534.8
24534.8
24534.8
24534.8
24534.8
24534.8
24534.8
5.00602
5.00652
5.00682
5.00641
5.00733
5.00733
5.00709
5.00589
5.00751
5.00688
5.00625
5.00649
5.00584
5.00615
5.00653
5.00646
5.00628
5.00617
5.00587
5.00581
4914.91
4914.91
4914.9
4914.91
4914.86
4914.86
4914.85
4914.86
4914.87
4914.9
4914.88
4914.87
4914.9
4914.89
4914.9
4914.91
4914.91
4914.91
4914.91
4914.89
14724.8
14724.8
14724.8
14724.8
14724.8
14724.8
14724.8
14724.8
14724.8
14724.8
14724.8
14724.8
14724.8
14724.8
14724.8
14724.8
14724.8
14724.8
14724.8
14724.8
24534.8
24534.8
24534.8
24534.8
24534.8
24534.8
24534.8
24534.8
24534.8
24534.8
24534.8
24534.8
24534.8
24534.8
24534.8
24534.8
24534.8
24534.8
24534.8
24534.8
34344.8
34344.8
34344.8
34344.8
34344.8
34344.8
34344.8
34344.8
34344.8
34344.8
34344.8
34344.8
34344.8
34344.8
34344.8
34344.8
34344.8
34344.8
34344.8
34344.8
34344.8
34344.8
34344.8
34344.8
34344.8
34344.8
34344.8
34344.8
34344.8
34344.8
34344.8
34344.8
34344.8
34344.8
34344.8
34344.8
5.00587
5.00596
5.00665
5.00692
5.00656
5.00705
5.00797
5.01005
5.01141
5.00913
5.00734
5.0104
5.00763
5.00703
5.00652
5.00595
5.00603
5.00589
5.00648
5.00667
5.00734
5.00696
5.0066
5.00654
5.00662
5.00592
5.0058
5.00584
4914.91
4914.92
4914.93
4914.9
4914.89
4914.87
4914.91
4914.94
4914.95
4914.89
4914.84
4914.93
4914.89
4914.88
4914.92
4914.9
4914.9
4914.92
4914.93
4914.91
4914.91
4914.92
4914.92
4914.92
4914.93
4914.91
4914.9
4914.91
14724.8
14724.8
14724.8
14724.8
14724.8
14724.8
14724.8
14724.8
14724.8
14724.8
14724.8
14724.8
14724.8
14724.8
14724.8
14724.8
14724.8
14724.8
14724.8
14724.8
14724.8
14724.8
14724.8
14724.8
14724.8
14724.8
14724.8
14724.8
24534.8
24534.8
24534.8
24534.8
24534.8
24534.8
24534.8
24534.8
24534.8
24534.8
24534.8
24534.8
24534.8
24534.8
24534.8
24534.8
24534.8
24534.8
24534.8
24534.8
24534.8
24534.8
24534.8
24534.8
24534.8
24534.8
24534.8
24534.8
34344.8
34344.9
34344.8
34344.8
34344.8
34344.8
34344.8
34344.8
34344.8
34344.8
34344.8
34344.8
34344.8
34344.8
34344.8
34344.8
34344.8
34344.8
34344.8
34344.8
34344.8
34344.8
34344.8
34344.8
34344.8
34344.8
34344.8
34344.7
5.00617
5.00579
5.00642
5.00562
4914.92
4914.9
4914.92
4914.9
)
;

boundaryField
{
    top_fluid_surface
    {
        type            calculated;
        value           nonuniform List<scalar> 
64
(
-6.87754e-09
-3.45104e-09
-3.64235e-09
-1.21841e-09
0
-4.96789e-10
-1.00618e-09
-8.12671e-09
-3.18521e-08
-7.41233e-09
0
-1.42735e-09
-6.96325e-09
-3.97389e-09
0
-1.01248e-08
0
0
0
0
0
-5.47253e-09
0
0
-6.41585e-10
0
0
0
0
0
-4.2123e-09
0
-4.07457e-09
-1.10001e-08
-3.78164e-08
0
-7.71166e-11
0
-4.29052e-08
0
-1.93091e-10
0
0
-1.12707e-09
-8.62864e-09
0
-9.72138e-09
-7.11341e-09
-5.96371e-09
-8.64232e-09
-2.40084e-09
-1.06844e-08
-9.56139e-09
-8.44656e-09
-2.5685e-08
-7.36772e-09
-8.73154e-09
-1.66301e-09
-2.66726e-09
-5.36341e-08
-1.97532e-08
-3.60179e-09
-7.73964e-09
-1.78071e-08
)
;
    }
    bottom_fluid_surface
    {
        type            calculated;
        value           nonuniform List<scalar> 
64
(
39249.8
39249.8
39249.8
39249.8
39249.8
39249.8
39249.8
39249.8
39249.8
39249.8
39249.8
39249.8
39249.8
39249.8
39249.8
39249.8
39249.8
39249.8
39249.8
39249.8
39249.8
39249.8
39249.8
39249.8
39249.8
39249.8
39249.8
39249.8
39249.8
39249.8
39249.8
39249.8
39249.8
39249.8
39249.8
39249.8
39249.8
39249.9
39249.8
39249.8
39249.8
39249.8
39249.8
39249.8
39249.8
39249.8
39249.8
39249.8
39249.8
39249.8
39249.8
39249.8
39249.8
39249.8
39249.8
39249.8
39249.8
39249.8
39249.8
39249.8
39249.8
39249.8
39249.8
39249.7
)
;
    }
    lateral_surface_1
    {
        type            calculated;
        value           nonuniform List<scalar> 
40
(
5.00587
5.00596
5.00665
5.00692
5.00656
5.00705
5.00797
5.00584
4914.91
4914.92
4914.93
4914.9
4914.89
4914.87
4914.91
4914.91
14724.8
14724.8
14724.8
14724.8
14724.8
14724.8
14724.8
14724.8
24534.8
24534.8
24534.8
24534.8
24534.8
24534.8
24534.8
24534.8
34344.8
34344.9
34344.8
34344.8
34344.8
34344.8
34344.8
34344.7
)
;
    }
    lateral_surface_2
    {
        type            calculated;
        value           nonuniform List<scalar> 
40
(
5.00703
5.00652
5.00595
5.00603
5.00589
5.00648
5.00667
5.00734
4914.88
4914.92
4914.9
4914.9
4914.92
4914.93
4914.91
4914.91
14724.8
14724.8
14724.8
14724.8
14724.8
14724.8
14724.8
14724.8
24534.8
24534.8
24534.8
24534.8
24534.8
24534.8
24534.8
24534.8
34344.8
34344.8
34344.8
34344.8
34344.8
34344.8
34344.8
34344.8
)
;
    }
    lateral_surface_3
    {
        type            calculated;
        value           nonuniform List<scalar> 
40
(
5.00797
5.01005
5.01141
5.00913
5.00734
5.0104
5.00763
5.00703
4914.91
4914.94
4914.95
4914.89
4914.84
4914.93
4914.89
4914.88
14724.8
14724.8
14724.8
14724.8
14724.8
14724.8
14724.8
14724.8
24534.8
24534.8
24534.8
24534.8
24534.8
24534.8
24534.8
24534.8
34344.8
34344.8
34344.8
34344.8
34344.8
34344.8
34344.8
34344.8
)
;
    }
    lateral_surface_4
    {
        type            calculated;
        value           nonuniform List<scalar> 
40
(
5.00734
5.00696
5.0066
5.00654
5.00662
5.00592
5.0058
5.00584
4914.91
4914.92
4914.92
4914.92
4914.93
4914.91
4914.9
4914.91
14724.8
14724.8
14724.8
14724.8
14724.8
14724.8
14724.8
14724.8
24534.8
24534.8
24534.8
24534.8
24534.8
24534.8
24534.8
24534.8
34344.8
34344.8
34344.8
34344.8
34344.8
34344.8
34344.8
34344.7
)
;
    }
}


// ************************************************************************* //
