/*--------------------------------*- C++ -*----------------------------------*\
| =========                 |                                                 |
| \\      /  F ield         | OpenFOAM: The Open Source CFD Toolbox           |
|  \\    /   O peration     | Version:  v1612+                                |
|   \\  /    A nd           | Web:      www.OpenFOAM.com                      |
|    \\/     M anipulation  |                                                 |
\*---------------------------------------------------------------------------*/
FoamFile
{
    version     2.0;
    format      ascii;
    class       volVectorField;
    location    "9.25";
    object      U;
}
// * * * * * * * * * * * * * * * * * * * * * * * * * * * * * * * * * * * * * //

dimensions      [0 1 -1 0 0 0 0];

internalField   nonuniform List<vector> 
320
(
(1.24722e-05 -1.4764e-05 2.54669e-05)
(-6.73064e-06 -8.98615e-06 8.68388e-06)
(-1.48885e-05 -7.42262e-06 -6.07885e-06)
(4.64638e-06 2.14229e-05 1.45215e-05)
(0.000553741 4.1974e-05 -0.000117282)
(0.000404441 -9.01464e-05 -8.30788e-05)
(0.000859572 0.00013128 -8.53504e-05)
(0.000764451 0.000287298 -4.93642e-05)
(0.000855424 7.83434e-05 -6.41509e-06)
(0.000322438 0.000352622 -3.15211e-05)
(0.000296174 0.000448498 -4.48594e-05)
(0.000441993 0.000206268 -0.000127489)
(-0.000215862 0.000443221 -0.000252397)
(-0.000144653 -0.000210136 -0.000121757)
(-0.000164314 0.000210753 0.000111587)
(5.8191e-05 0.000173759 -5.34294e-05)
(2.33949e-05 -2.46407e-06 4.43039e-05)
(2.3248e-05 -1.58524e-05 4.7267e-05)
(6.45647e-05 -6.47017e-07 6.57208e-06)
(3.23704e-05 -1.44517e-06 -1.56388e-05)
(4.92616e-05 -1.05117e-05 2.46196e-05)
(1.77662e-05 4.23187e-05 3.40918e-05)
(-1.12748e-05 3.24329e-05 4.45502e-05)
(1.83599e-07 -1.34269e-05 1.98281e-05)
(-5.48482e-05 4.61301e-05 6.69415e-05)
(-4.13196e-05 -5.92694e-05 3.80555e-05)
(-4.95537e-05 5.31003e-06 -9.04047e-05)
(-1.52772e-05 2.36468e-05 2.44981e-05)
(-9.24807e-06 1.03006e-07 2.35385e-05)
(-1.10044e-05 5.63579e-06 3.78112e-05)
(-3.50197e-05 -1.08728e-06 4.10322e-06)
(-1.80372e-05 8.86609e-07 -1.88961e-05)
(-2.76103e-05 5.48556e-06 1.4484e-05)
(-8.61449e-06 -2.41599e-05 1.7448e-05)
(6.17784e-06 -1.93712e-05 2.22025e-05)
(4.63685e-07 8.40949e-06 4.88417e-06)
(2.90222e-05 -2.25699e-05 3.95245e-05)
(2.1664e-05 3.34307e-05 2.32843e-05)
(2.50768e-05 -3.35994e-06 -5.345e-05)
(8.33697e-06 -1.56371e-05 1.20788e-05)
(6.74722e-06 -8.48133e-06 9.67516e-06)
(-5.29656e-06 -5.37605e-06 -3.27861e-06)
(-8.07807e-06 -4.38775e-06 -1.04148e-06)
(2.65093e-06 1.14178e-05 -4.93553e-06)
(-3.97948e-06 -2.5229e-08 8.80993e-06)
(-6.41636e-06 3.11688e-06 1.86009e-06)
(-1.87357e-05 -1.69795e-06 1.34936e-06)
(-1.00323e-05 5.85567e-07 3.50737e-06)
(-1.43672e-05 5.06476e-06 3.05155e-06)
(-4.8602e-06 -1.34861e-05 7.82108e-06)
(4.15596e-06 -1.08995e-05 8.96394e-06)
(-1.50979e-07 5.34268e-06 4.29362e-06)
(1.49824e-05 -1.37196e-05 9.46587e-06)
(1.19688e-05 1.83149e-05 3.49603e-06)
(1.35304e-05 -1.2779e-06 -1.41357e-05)
(5.46678e-06 -7.90963e-06 4.9585e-06)
(-0.000196363 0.000212145 -0.000118011)
(0.000604901 0.000295809 -8.91504e-05)
(0.000290887 7.94787e-05 2.33378e-05)
(0.000652769 0.000231427 -0.000142301)
(0.000524643 0.000472028 0.000481361)
(0.000464518 1.98916e-05 0.000587397)
(0.000489908 0.000115176 0.000571242)
(0.000380083 -0.000558712 0.000599875)
(0.000274943 -0.000643006 3.66133e-05)
(-0.00018612 -0.000118018 -0.000104619)
(-0.000237134 0.00010491 0.000477704)
(0.000516503 0.000131039 0.000493054)
(0.00046966 0.000142644 -3.58214e-05)
(-0.00013856 0.00028925 0.000292258)
(0.000522875 -0.000105806 0.000337162)
(0.000210954 0.000199087 0.000298163)
(0.000236684 0.000217123 0.000238856)
(0.000351254 0.000528217 5.18278e-05)
(0.000279537 7.81706e-06 -9.17857e-05)
(0.000226807 0.000179929 0.000214188)
(-4.94099e-05 -1.5523e-05 4.16173e-06)
(2.24721e-05 2.73802e-06 4.29808e-05)
(1.20234e-05 -3.44683e-05 -8.39166e-06)
(2.22075e-05 -5.47678e-07 1.23999e-05)
(4.06073e-06 4.98336e-05 -9.69625e-05)
(2.5997e-05 -5.6984e-06 -0.000128985)
(-9.98433e-06 -1.10134e-06 -0.000115192)
(-1.24276e-05 -5.66935e-05 -0.000152888)
(5.84727e-06 -5.96476e-05 1.23343e-05)
(-4.17767e-05 -9.15231e-06 2.03379e-05)
(-4.28357e-05 1.53198e-05 -0.000121921)
(5.04408e-05 2.25079e-06 -0.000126527)
(1.8591e-05 -3.31268e-06 6.32371e-05)
(-4.72152e-05 1.15258e-05 -8.05202e-05)
(3.90677e-05 -5.55323e-05 -8.75318e-05)
(-2.59907e-05 -7.53515e-06 -0.000105836)
(4.80931e-06 1.99332e-05 -0.00010315)
(2.86718e-05 5.31725e-05 -2.49115e-05)
(5.88275e-06 -2.32749e-06 1.57087e-05)
(3.09119e-05 8.45365e-06 -8.41349e-05)
(2.74176e-05 6.80541e-06 3.69538e-06)
(-8.80057e-06 -2.63438e-06 2.0594e-05)
(-5.53989e-06 1.63585e-05 9.96536e-07)
(-1.2543e-05 1.78619e-06 4.56563e-06)
(5.01865e-07 -2.97118e-05 -4.64402e-05)
(-9.92519e-06 1.52624e-07 -5.43918e-05)
(1.01505e-05 -1.57817e-06 -6.03426e-05)
(8.11331e-06 3.08552e-05 -7.28653e-05)
(-1.5205e-06 3.32651e-05 8.17748e-06)
(2.64839e-05 6.54167e-06 1.74367e-05)
(2.50292e-05 -7.146e-06 -7.23502e-05)
(-2.79236e-05 -1.87715e-06 -6.4391e-05)
(-1.16875e-05 1.08799e-06 4.40335e-05)
(2.46633e-05 -4.65891e-06 -4.45915e-05)
(-2.25416e-05 3.2163e-05 -4.91894e-05)
(1.14405e-05 5.40633e-06 -5.98756e-05)
(-6.07198e-06 -1.13779e-05 -5.81326e-05)
(-1.93315e-05 -2.80942e-05 -1.62617e-05)
(-4.22769e-06 2.44602e-06 5.50549e-06)
(-1.53699e-05 -4.98784e-06 -5.81692e-05)
(1.59849e-05 4.93096e-06 -1.99404e-06)
(-4.27907e-06 1.24557e-07 8.69888e-06)
(-3.6237e-06 1.07461e-05 -6.72762e-06)
(-7.01017e-06 3.01415e-06 4.80116e-06)
(1.73064e-06 -1.50981e-05 -1.72807e-05)
(-5.67084e-06 9.53452e-08 -2.45231e-05)
(6.30454e-06 -1.00759e-06 -1.86655e-05)
(5.63525e-06 1.65917e-05 -2.66374e-05)
(-1.68623e-06 1.67669e-05 2.33291e-06)
(1.39727e-05 3.15149e-06 -2.39011e-06)
(1.3301e-05 -4.39963e-06 -1.7194e-05)
(-1.61805e-05 -1.09071e-06 -2.18892e-05)
(-5.25698e-06 1.10046e-06 5.81068e-06)
(1.44275e-05 -3.61671e-06 -1.41561e-05)
(-1.26488e-05 1.72662e-05 -1.35567e-05)
(7.87885e-06 2.886e-06 -1.64016e-05)
(-2.43083e-06 -5.84178e-06 -1.68832e-05)
(-1.02172e-05 -1.49843e-05 -6.65549e-06)
(-5.51424e-07 2.43038e-06 2.56323e-06)
(-8.63098e-06 -2.15687e-06 -1.1228e-05)
(1.02775e-06 -5.48648e-06 2.20775e-06)
(-4.5717e-07 -2.69281e-06 9.85168e-07)
(-6.87007e-06 -2.19919e-06 -2.64923e-07)
(2.16514e-07 8.3542e-06 2.28247e-06)
(-6.2185e-06 -5.13619e-07 3.01616e-06)
(-4.10016e-06 2.68419e-06 5.1823e-06)
(-8.73072e-06 2.16576e-07 3.42496e-07)
(-2.91719e-06 -1.1699e-06 -2.54019e-06)
(-6.0828e-06 5.33113e-07 1.99964e-06)
(-2.11142e-06 -5.15149e-06 1.501e-06)
(2.27519e-06 -2.73134e-06 3.67679e-06)
(1.72783e-07 9.2286e-07 -3.30338e-08)
(8.22943e-06 -5.4882e-06 4.24177e-06)
(5.4484e-06 9.20908e-06 3.7835e-06)
(8.44728e-06 -2.04126e-06 -4.40707e-06)
(2.79399e-06 -2.39558e-06 2.83755e-06)
(7.99699e-06 2.41999e-06 3.65099e-07)
(-4.05199e-06 -1.63571e-06 1.3435e-06)
(-1.18735e-06 3.22358e-06 3.10346e-07)
(-1.76844e-06 -1.57265e-06 -7.57668e-07)
(-1.44715e-06 -7.53316e-06 -4.82322e-06)
(-4.43095e-06 1.53543e-06 -4.91908e-06)
(-7.56428e-08 -4.49243e-08 -6.28202e-06)
(8.11718e-08 9.15993e-06 -6.21351e-06)
(-8.63562e-07 8.60961e-06 7.64374e-07)
(4.83212e-06 1.07992e-06 1.68953e-06)
(5.25829e-06 -3.59242e-06 -6.93259e-06)
(-5.85801e-06 -1.0331e-06 -6.178e-06)
(-4.11318e-06 -8.31369e-08 3.73033e-06)
(5.23981e-06 -5.11909e-07 -4.93282e-06)
(-6.64045e-06 7.3538e-06 -5.38329e-06)
(2.62827e-06 1.13164e-06 -6.85434e-06)
(-2.76324e-06 -1.98152e-06 -6.74222e-06)
(-4.63508e-06 -8.14102e-06 -2.88523e-06)
(-3.01499e-06 -9.63993e-07 -3.13165e-07)
(-6.06487e-06 -2.17871e-06 -6.84291e-06)
(0.000372516 0.000305796 -9.02726e-05)
(-5.81467e-05 0.000144061 -0.000148325)
(0.000686845 0.000166988 -0.000275014)
(0.000470073 5.8588e-05 4.37034e-05)
(0.000470252 -1.11643e-05 1.24191e-05)
(0.000316243 0.000241661 0.000100405)
(-0.000615913 0.000193612 -0.000292934)
(-0.000670189 0.000376908 -3.67251e-06)
(-0.000711097 9.82439e-05 -1.96515e-05)
(-0.000590371 0.000206267 -1.10404e-05)
(-0.000622314 -0.000133097 1.19482e-05)
(-0.000170078 -0.000211855 -4.74778e-05)
(-0.00018941 6.29137e-05 -0.000131367)
(1.07674e-05 -0.00014649 6.59683e-05)
(0.000234891 -0.000346544 -0.000139437)
(7.3747e-05 -0.000567827 -0.000119276)
(0.000258108 -0.000656059 -0.000109213)
(0.000282906 -0.00031362 -0.000131471)
(2.93217e-05 -0.000471208 -6.92942e-05)
(0.000279431 -0.000479884 -0.000146181)
(0.000123968 -0.000230598 -0.000138285)
(0.000372717 0.000218366 -0.000129974)
(0.000446571 0.000158178 -0.000226649)
(0.000333207 -6.85548e-05 -0.00012139)
(0.000161864 0.000253261 -0.000132148)
(5.93029e-05 4.48085e-05 -5.76717e-05)
(0.000200922 0.000308769 -7.30378e-05)
(0.000187495 0.000292538 -0.000327518)
(4.30288e-05 4.0428e-05 1.33513e-05)
(-9.57294e-06 8.87894e-06 -5.44636e-06)
(4.23391e-05 5.97388e-07 3.77599e-05)
(2.65454e-05 -1.09954e-05 -6.58694e-05)
(-1.97112e-05 -1.39167e-05 -4.43379e-05)
(-2.84163e-05 3.09242e-05 1.78359e-05)
(-5.69053e-05 1.8554e-05 0.000109306)
(-6.92806e-05 5.38342e-05 2.45754e-05)
(-5.2907e-05 -1.4695e-05 -3.2871e-05)
(-7.82703e-05 -3.98468e-05 8.30089e-05)
(-9.16192e-05 5.31954e-06 9.31708e-05)
(-1.63026e-05 1.29736e-05 1.95469e-05)
(-1.90194e-05 2.65909e-05 4.02028e-05)
(1.94407e-05 8.81156e-06 -3.45656e-05)
(1.71225e-05 -2.96446e-05 3.94741e-05)
(6.36064e-06 -5.00881e-05 3.1045e-05)
(7.34818e-06 -7.88218e-05 5.48459e-05)
(-9.08574e-06 -7.01124e-06 1.08154e-05)
(-2.64607e-06 -5.11462e-05 1.41268e-05)
(2.05651e-05 -5.15633e-05 6.0324e-05)
(1.54552e-05 -3.2653e-05 7.42094e-05)
(3.43673e-05 -3.50436e-05 1.80724e-05)
(3.59451e-05 1.18799e-05 -3.35862e-06)
(5.37825e-05 -4.61533e-06 4.74605e-05)
(1.14058e-05 6.39092e-06 1.26096e-05)
(7.01136e-06 2.58793e-05 6.57793e-06)
(3.96054e-05 2.16214e-05 4.4972e-05)
(2.01888e-05 2.10074e-05 8.28933e-05)
(-2.38283e-05 -2.18367e-05 3.02144e-06)
(5.98919e-06 -4.28265e-06 -5.76532e-06)
(-1.88009e-05 -4.10266e-07 1.37959e-05)
(-1.54282e-05 5.71704e-06 -3.48726e-05)
(1.10366e-05 9.47575e-06 -3.65815e-05)
(2.16758e-05 -1.78685e-05 1.96215e-05)
(3.10558e-05 -1.16847e-05 6.3534e-05)
(3.72392e-05 -2.97991e-05 1.50134e-05)
(3.09685e-05 8.56356e-06 -1.85343e-05)
(4.56553e-05 1.89364e-05 4.38089e-05)
(5.14734e-05 -6.19949e-06 6.12418e-05)
(8.61211e-06 -5.81448e-06 5.72942e-06)
(1.2395e-05 -1.20177e-05 2.40816e-05)
(-9.9398e-06 -4.65948e-06 -2.66709e-05)
(-6.39551e-06 1.76745e-05 2.16222e-05)
(-2.06448e-07 2.82164e-05 1.65524e-05)
(-2.053e-06 4.29069e-05 3.04771e-05)
(3.24883e-06 2.34647e-06 1.84704e-06)
(-2.05914e-06 2.7971e-05 3.08865e-06)
(-1.27593e-05 2.90676e-05 3.64872e-05)
(-9.15451e-06 1.8195e-05 3.90085e-05)
(-2.00274e-05 1.95562e-05 1.39858e-05)
(-2.17675e-05 -6.09866e-06 -6.85563e-06)
(-3.15399e-05 2.64857e-06 3.06133e-05)
(-7.74605e-06 -1.51232e-06 1.02332e-05)
(-4.96056e-06 -1.16746e-05 -4.27953e-06)
(-2.18674e-05 -1.27963e-05 2.57848e-05)
(-1.2775e-05 -1.27452e-05 3.41859e-05)
(-1.1966e-05 -1.23947e-05 4.5987e-06)
(3.18585e-06 -1.89402e-06 -5.79281e-07)
(-9.79498e-06 4.04064e-07 8.75725e-06)
(-9.30686e-06 3.62213e-06 -1.15664e-05)
(7.10707e-06 6.08708e-06 -1.91259e-06)
(1.36457e-05 -1.04951e-05 -2.32208e-06)
(1.58283e-05 -5.82893e-06 1.72459e-05)
(2.04946e-05 -1.63014e-05 6.90466e-06)
(1.46241e-05 2.8753e-06 -4.2939e-06)
(2.32742e-05 1.18887e-05 1.3643e-05)
(2.75182e-05 -2.92481e-06 1.08731e-05)
(3.76049e-06 -5.14765e-06 7.04058e-06)
(5.60516e-06 -7.35241e-06 5.35326e-06)
(-6.74363e-06 -3.67176e-06 -1.00568e-06)
(-4.64009e-06 8.67668e-06 7.00376e-06)
(-6.18565e-07 1.4941e-05 4.28486e-06)
(-1.34342e-06 2.25941e-05 8.07095e-06)
(2.37514e-06 1.06082e-07 5.10475e-06)
(-1.18177e-06 1.49625e-05 4.98084e-06)
(-6.94724e-06 1.57141e-05 8.00857e-06)
(-4.76844e-06 9.26129e-06 1.41679e-05)
(-1.12214e-05 1.12081e-05 2.28674e-06)
(-1.08256e-05 -3.50314e-06 6.3414e-07)
(-1.76091e-05 2.20944e-07 6.70275e-06)
(-4.76309e-06 6.01427e-07 -4.94997e-07)
(-2.0242e-06 -6.32275e-06 5.54128e-06)
(-1.35162e-05 -6.48424e-06 6.83857e-06)
(-6.35205e-06 -5.23058e-06 1.52979e-05)
(-8.24631e-06 -6.1152e-06 -5.94155e-07)
(2.25098e-06 -2.29399e-06 -2.66791e-07)
(-7.02213e-06 -3.6932e-07 7.23609e-07)
(-4.16325e-06 6.76166e-07 -2.56912e-06)
(2.02603e-06 2.60667e-06 -4.17231e-06)
(2.25743e-06 -3.11837e-06 2.61659e-06)
(1.12755e-05 -1.09803e-06 7.0078e-06)
(1.32959e-05 -8.26092e-06 2.39501e-06)
(1.05478e-05 1.58802e-06 -1.00258e-06)
(1.33484e-05 3.34199e-06 3.61998e-06)
(1.39345e-05 -2.54686e-07 7.34655e-06)
(3.93393e-06 -4.00457e-07 4.83917e-07)
(4.9248e-06 -3.82673e-06 2.48344e-06)
(-9.72754e-07 1.72781e-06 -2.80812e-06)
(-1.09794e-06 7.62533e-06 2.55281e-06)
(1.42077e-09 7.65793e-06 6.45872e-07)
(-1.23404e-06 1.2882e-05 3.49859e-06)
(-3.48426e-07 3.03406e-06 8.34994e-07)
(7.92581e-07 9.11736e-06 1.00761e-06)
(-3.35882e-06 7.48117e-06 2.91228e-06)
(-3.13904e-06 5.83563e-06 4.4722e-06)
(-4.78459e-06 5.47506e-06 1.24215e-06)
(-5.01775e-06 -1.6112e-06 -9.38403e-07)
(-7.52729e-06 1.94598e-06 3.17863e-06)
(-1.09024e-06 -2.29292e-06 5.03207e-07)
(-1.67926e-06 -3.82542e-06 -3.20106e-08)
(-3.95177e-06 -2.8115e-06 2.82335e-06)
(-2.3121e-06 -4.47554e-06 3.62183e-06)
(0.000340585 0.000324269 -0.000198762)
(0.000378601 0.000118906 -8.4874e-05)
(0.000464142 0.000161731 -0.000124416)
(0.000366347 -0.000111631 -0.000188717)
(-1.70258e-05 2.71208e-05 5.55914e-05)
(1.38431e-05 1.42098e-05 6.46586e-06)
(3.2306e-05 1.46099e-05 -6.80576e-06)
(-5.31883e-06 -4.20642e-05 1.42816e-05)
)
;

boundaryField
{
    top_fluid_surface
    {
        type            pressureInletOutletVelocity;
        value           nonuniform List<vector> 
64
(
(0 0 -0.000117282)
(0 0 -8.30788e-05)
(0 0 -8.53504e-05)
(0 0 -4.93642e-05)
(0.000855424 7.83434e-05 -6.41509e-06)
(0 0 -3.15211e-05)
(0 0 -4.48594e-05)
(0 0 -0.000127489)
(0 0 -0.000252397)
(0 0 -0.000121757)
(-0.000164314 0.000210753 0.000111587)
(0 0 -5.34294e-05)
(0 0 -0.000118011)
(0 0 -8.91504e-05)
(0.000290887 7.94787e-05 2.33378e-05)
(0 0 -0.000142301)
(0.000524643 0.000472028 0.000481361)
(0.000464518 1.98916e-05 0.000587397)
(0.000489908 0.000115176 0.000571242)
(0.000380083 -0.000558712 0.000599875)
(0.000274943 -0.000643006 3.66133e-05)
(0 0 -0.000104619)
(-0.000237134 0.00010491 0.000477704)
(0.000516503 0.000131039 0.000493054)
(0 0 -3.58214e-05)
(-0.00013856 0.00028925 0.000292258)
(0.000522875 -0.000105806 0.000337162)
(0.000210954 0.000199087 0.000298163)
(0.000236684 0.000217123 0.000238856)
(0.000351254 0.000528217 5.18278e-05)
(0 0 -9.17857e-05)
(0.000226807 0.000179929 0.000214188)
(0 0 -9.02726e-05)
(0 0 -0.000148325)
(0 0 -0.000275014)
(0.000470073 5.8588e-05 4.37034e-05)
(0 0 1.24191e-05)
(0.000316243 0.000241661 0.000100405)
(0 0 -0.000292934)
(-0.000670189 0.000376908 -3.67251e-06)
(0 0 -1.96515e-05)
(-0.000590371 0.000206267 -1.10404e-05)
(-0.000622314 -0.000133097 1.19482e-05)
(0 0 -4.74778e-05)
(0 0 -0.000131367)
(1.07674e-05 -0.00014649 6.59683e-05)
(0 0 -0.000139437)
(0 0 -0.000119276)
(0 0 -0.000109213)
(0 0 -0.000131471)
(0 0 -6.92942e-05)
(0 0 -0.000146181)
(0 0 -0.000138285)
(0 0 -0.000129974)
(0 0 -0.000226649)
(0 0 -0.00012139)
(0 0 -0.000132148)
(0 0 -5.76717e-05)
(0 0 -7.30378e-05)
(0 0 -0.000327518)
(0 0 -0.000198762)
(0 0 -8.4874e-05)
(0 0 -0.000124416)
(0 0 -0.000188717)
)
;
    }
    bottom_fluid_surface
    {
        type            noSlip;
    }
    lateral_surface_1
    {
        type            noSlip;
    }
    lateral_surface_2
    {
        type            noSlip;
    }
    lateral_surface_3
    {
        type            noSlip;
    }
    lateral_surface_4
    {
        type            noSlip;
    }
}


// ************************************************************************* //
