/*--------------------------------*- C++ -*----------------------------------*\
| =========                 |                                                 |
| \\      /  F ield         | OpenFOAM: The Open Source CFD Toolbox           |
|  \\    /   O peration     | Version:  v1612+                                |
|   \\  /    A nd           | Web:      www.OpenFOAM.com                      |
|    \\/     M anipulation  |                                                 |
\*---------------------------------------------------------------------------*/
FoamFile
{
    version     2.0;
    format      ascii;
    class       surfaceScalarField;
    location    "4.8";
    object      phi;
}
// * * * * * * * * * * * * * * * * * * * * * * * * * * * * * * * * * * * * * //

dimensions      [0 3 -1 0 0 0 0];

internalField   nonuniform List<scalar> 
2916
(
-1.39998e-05
0.141473
-0.141459
-1.24666e-05
0.141475
-0.141477
-2.23196e-06
0.141475
-0.141485
-4.17257e-07
0.141476
-0.141478
1.25863e-06
0.141475
-0.141477
0.141471
-0.14147
-1.11102e-05
0.256818
-0.115335
-1.16841e-05
0.256828
-0.115352
-1.37275e-06
0.256826
-0.115361
-3.91614e-07
0.256827
-0.115352
-1.5909e-06
0.256827
-0.115351
0.256819
-0.115349
-3.93484e-06
0.283923
-0.0271013
-7.42555e-06
0.283941
-0.0271101
-6.65283e-07
0.283938
-0.0271186
-2.76115e-06
0.283937
-0.0271082
-9.24921e-06
0.283939
-0.0271055
0.283927
-0.0271177
4.74891e-06
0.111252
0.172667
-6.35891e-07
0.111282
0.172665
-2.77168e-06
0.111275
0.172665
-7.88183e-06
0.111274
0.172668
-1.23559e-05
0.11128
0.172663
0.11126
0.172655
1.002e-05
-0.30143
0.412672
-2.32949e-06
-0.301393
0.412687
-6.84519e-06
-0.301398
0.412678
-9.637e-06
-0.301397
0.412674
-1.71064e-05
-0.301388
0.412675
-0.301416
0.41266
1.26747e-05
-0.863247
0.561804
6.70561e-06
-0.863221
0.561833
6.26835e-07
-0.863212
0.56182
-6.37035e-06
-0.863211
0.561821
-1.66709e-05
-0.863206
0.561828
-0.863242
0.561809
-2.59071e-06
-1.41016
0.546914
1.89948e-05
-1.41017
0.546929
1.16163e-05
-1.41013
0.546927
-1.03285e-06
-1.41013
0.546932
-9.91438e-06
-1.41013
0.546938
-1.41018
0.546925
-2.98151e-05
-1.76382
0.353687
1.9769e-05
-1.76392
0.353699
1.50996e-05
-1.76384
0.35371
1.21483e-06
-1.76383
0.353716
4.89065e-06
-1.76386
0.353721
-1.76386
0.353687
1.72853e-05
-1.72403
-0.0398055
2.0611e-05
-1.7242
-0.0397191
3.55451e-06
-1.72409
-0.0397267
-4.20276e-06
-1.72409
-0.0397297
-5.83653e-06
-1.72415
-0.0397057
-1.72407
-0.0397967
0.000223812
-1.29082
-0.433435
2.46488e-05
-1.29097
-0.433034
-3.81091e-05
-1.29087
-0.433159
-2.74165e-05
-1.2909
-0.433204
-0.000115066
-1.29097
-0.433091
-1.29082
-0.433361
0.000281322
-0.575392
-0.715706
2.61447e-06
-0.575427
-0.715266
-6.04001e-05
-0.575386
-0.715422
-4.57363e-05
-0.575422
-0.715494
-0.00018672
-0.575462
-0.715371
-0.575366
-0.715642
-6.17918e-05
-0.57533
-4.51468e-05
-0.575444
-2.00542e-05
-0.575412
-3.20306e-05
-0.57541
-6.3491e-05
-0.575431
-0.57543
-0.000102292
1.19521
-1.33657
-4.37151e-05
1.1952
-1.33674
4.02608e-06
1.19519
-1.33673
5.12488e-05
1.19519
-1.33672
0.000110315
1.1952
-1.33673
1.19522
-1.33657
-0.000140975
2.23146
-1.15144
-6.70153e-05
2.23139
-1.15162
4.53691e-06
2.23139
-1.15163
7.29862e-05
2.23138
-1.15161
0.000147175
2.23138
-1.15161
2.23146
-1.15145
-6.83965e-05
2.22437
-0.0199436
-5.96341e-05
2.22436
-0.0200932
-3.38177e-05
2.22433
-0.0200832
1.45495e-05
2.2243
-0.0200762
5.34606e-05
2.22432
-0.020084
2.22438
-0.0199864
4.73767e-05
0.86657
1.53041
-2.18902e-05
0.867001
1.5301
-2.61771e-05
0.866815
1.53018
-1.92165e-05
0.866781
1.53018
-4.69494e-05
0.86691
1.5301
0.866703
1.53029
0.000206119
-0.488725
1.76776
-2.23609e-05
-0.488484
1.7684
-4.76527e-05
-0.488582
1.7681
-1.81434e-05
-0.48856
1.76798
-0.000137745
-0.48848
1.76819
-0.488652
1.76788
0.000252495
-1.12583
1.19866
2.24174e-05
-1.12573
1.1993
-1.80836e-05
-1.12575
1.19903
-1.49537e-05
-1.12574
1.199
-0.000163694
-1.12571
1.1992
-1.12581
1.1988
0.000109523
-1.32644
0.747412
1.25336e-05
-1.32646
0.747766
3.39388e-06
-1.32643
0.747616
-1.35577e-07
-1.32642
0.747614
-8.40727e-05
-1.32642
0.747737
-1.32647
0.747502
0.000101608
-1.28016
0.307305
5.7117e-07
-1.28035
0.307682
-9.06806e-06
-1.28024
0.307527
1.29591e-05
-1.28023
0.307503
-4.75078e-05
-1.28028
0.307637
-1.28022
0.307391
0.000392235
-1.09863
-0.22173
1.28996e-05
-1.09867
-0.221019
-3.36797e-05
-1.09862
-0.221299
2.72066e-05
-1.09866
-0.221364
-0.000160143
-1.09867
-0.221121
-1.0986
-0.221583
0.000501415
-0.762147
-0.770417
4.43103e-06
-0.761527
-0.769678
-7.36629e-05
-0.761745
-0.769958
-1.40152e-07
-0.761874
-0.770064
-0.000203772
-0.761737
-0.769825
-0.761884
-0.770276
-9.61752e-05
-0.405219
-1.07254
-7.12469e-05
-0.404676
-1.07214
-5.94659e-05
-0.404858
-1.07232
-4.69854e-05
-0.404972
-1.07241
1.34739e-05
-0.404878
-1.07229
-0.404974
-1.07254
-0.000397906
-0.980151
-0.000100918
-0.980418
-4.61294e-05
-0.980324
-4.02802e-05
-0.980388
0.000150955
-0.9805
-0.980252
-2.09438e-05
-0.816348
-0.520201
8.35461e-06
-0.816287
-0.520479
1.83647e-05
-0.816306
-0.520433
3.48263e-05
-0.8163
-0.520434
6.13684e-05
-0.816273
-0.520483
-0.816313
-0.520197
-0.000107139
-1.3843
-0.583382
-1.80015e-05
-1.38435
-0.583654
1.17017e-05
-1.38434
-0.583618
4.83864e-05
-1.38433
-0.583616
0.000139063
-1.38431
-0.583655
-1.38424
-0.583381
-7.70548e-05
-1.21871
-0.185457
-4.73623e-05
-1.21854
-0.185925
-1.78742e-06
-1.21865
-0.185825
7.43102e-05
-1.21866
-0.185816
0.000156934
-1.21857
-0.185911
-1.21845
-0.185617
0.000476528
-1.52002
1.83124
6.9352e-05
-1.51872
1.83068
-1.18063e-06
-1.51922
1.83082
5.40446e-05
-1.51939
1.83085
-0.000118513
-1.51893
1.83064
-1.51918
1.8309
0.00108813
-3.40699
3.65365
-9.50514e-05
-3.40584
3.65671
-0.000249825
-3.40631
3.65535
-6.59271e-05
-3.4065
3.65491
-0.0005757
-3.40607
3.65583
-3.40635
3.65448
0.001343
-2.83355
0.623873
-9.61758e-05
-2.833
0.627898
-0.000229545
-2.83328
0.62614
-2.20805e-05
-2.8333
0.625597
-0.000867561
-2.83306
0.62704
-2.83341
0.624994
0.000599244
-1.8415
-0.245239
1.18567e-05
-1.84114
-0.243511
-3.48107e-05
-1.84131
-0.244307
1.18498e-05
-1.84135
-0.24438
-0.000357031
-1.84122
-0.243738
-1.84144
-0.24482
0.000391285
-1.21406
-0.320521
1.66064e-06
-1.21352
-0.319541
-4.05054e-05
-1.21377
-0.319978
3.41167e-05
-1.21384
-0.320084
-0.000210004
-1.21366
-0.319675
-1.21396
-0.320304
-0.000199957
-0.694469
-0.741126
-2.68802e-05
-0.693442
-0.741273
2.66063e-05
-0.693917
-0.741203
6.66671e-06
-0.693984
-0.741202
5.8287e-05
-0.693654
-0.741178
-0.694331
-0.741152
-0.00157504
-0.1635
-1.29981
-9.17408e-05
-0.16191
-1.30269
0.000181576
-0.162719
-1.30143
-7.15989e-05
-0.162581
-1.30121
0.000613605
-0.162029
-1.30214
-0.163482
-1.30051
-0.0016696
-0.214937
-1.01943
-0.00010656
-0.213966
-1.02165
0.000168682
-0.214482
-1.02083
-5.33142e-05
-0.214319
-1.02045
0.000705267
-0.214091
-1.02099
-0.214899
-1.02042
-0.000194417
-1.19489
-6.59003e-05
-1.19451
-0.000111417
-1.19476
-7.22435e-08
-1.19482
0.000240335
-1.19483
-1.19491
-7.32837e-05
-0.371844
-0.148285
-1.50141e-05
-0.371865
-0.14867
-1.07571e-06
-0.371849
-0.148596
1.58583e-05
-0.371849
-0.148599
7.5505e-05
-0.371858
-0.148682
-0.371834
-0.148284
-9.16698e-05
-0.861202
-0.0939299
-6.30691e-06
-0.861382
-0.0942186
8.04051e-06
-0.861304
-0.0941749
7.31652e-06
-0.861282
-0.0941802
6.0177e-05
-0.861324
-0.0942396
-0.861222
-0.0939303
9.38085e-05
-1.27089
0.224139
1.74527e-05
-1.271
0.223775
-1.10992e-05
-1.27096
0.223862
5.98882e-06
-1.27099
0.223873
-2.7136e-05
-1.27098
0.223782
-1.2709
0.22403
0.00111549
-1.44036
1.9996
0.000109199
-1.43841
1.99909
-0.000111535
-1.43914
1.99922
8.03617e-05
-1.43965
1.99932
-0.000365892
-1.43897
1.99907
-1.43968
1.99931
0.000547768
-2.80342
5.01616
-0.00027251
-2.79968
5.0188
-0.000445855
-2.80108
5.01746
-0.000142498
-2.80217
5.01713
-0.000335727
-2.80084
5.0179
-2.80236
5.01681
-0.00010307
-3.62516
1.44571
-0.000345989
-3.62397
1.45244
-0.000308468
-3.62445
1.44946
2.37832e-05
-3.62506
1.44815
-2.84448e-06
-3.62454
1.45077
-3.62504
1.44767
-0.00133908
-2.93207
-0.936982
-0.000227361
-2.92995
-0.938642
0.000127061
-2.93095
-0.938161
7.78006e-05
-2.9313
-0.938088
0.000604909
-2.93053
-0.938283
-2.9317
-0.937556
-0.00267689
-2.12192
-1.128
-0.000168937
-2.11876
-1.13324
0.000280256
-2.12021
-1.13116
-3.63432e-05
-2.12055
-1.13051
0.00124018
-2.11944
-1.13204
-2.12146
-1.1293
-0.0039207
0.0301185
-2.88924
-0.000201854
0.0280569
-2.89181
0.000396141
0.0288463
-2.89086
-0.000311782
0.0293042
-2.89035
0.00144693
0.0290128
-2.89139
0.0275893
-2.88876
-0.00381665
1.78994
-3.05582
-0.000340026
1.78313
-3.06127
-4.64396e-05
1.78592
-3.05881
-0.000681569
1.78702
-3.0583
0.00143381
1.7849
-3.06014
1.78597
-3.05745
0.000694164
1.02521
-0.255388
0.000180244
1.0193
-0.257295
3.07562e-05
1.02182
-0.256581
0.000420153
1.02268
-0.256511
0.00288646
1.01892
-0.257476
1.02452
-0.25608
0.00292299
-0.172615
0.00038129
-0.172665
7.97989e-05
-0.17264
0.000793759
-0.172851
-0.00142639
-0.173697
-0.171808
0.00171561
-1.11994
1.11822
0.00981648
-1.12584
1.11773
0.00771181
-1.11349
1.11559
0.0107451
-1.1171
1.11406
0.0368389
-1.13993
1.11384
-1.07006
1.1069
0.000661628
-2.8689
1.7483
0.0277579
-2.90133
1.7484
0.0145136
-2.84392
1.74367
0.0266785
-2.8699
1.74064
0.107056
-2.96226
1.74195
-2.68549
1.72249
0.00431041
-5.36821
2.49499
0.0601103
-5.44692
2.48979
0.0438797
-5.3397
2.51201
0.0589986
-5.37895
2.49392
0.171941
-5.52354
2.44834
-5.0716
2.55805
0.00766328
-7.47667
2.1008
0.0634699
-7.58795
2.08522
0.0475961
-7.48185
2.15802
0.0560585
-7.5102
2.12279
0.171856
-7.65395
2.01462
-7.23209
2.33235
0.0191977
-7.85614
0.360274
0.0436599
-7.97593
0.363521
0.0545041
-7.90157
0.408882
0.0459216
-7.91087
0.409247
0.0441746
-8.0107
0.358498
-7.74719
0.559271
0.0363137
-7.27152
-0.620938
0.0584659
-7.38338
-0.614701
0.120697
-7.30499
-0.658812
0.0783846
-7.31559
-0.552968
-0.0720513
-7.42773
-0.432536
-7.13605
-0.683188
0.0607711
-6.3717
-0.960591
0.0963092
-6.43064
-0.988281
0.219937
-6.342
-1.08662
0.150887
-6.35391
-0.892625
-0.20359
-6.43431
-0.638942
-6.14007
-1.19958
0.0480279
-5.20925
-1.21048
0.0733111
-5.22671
-1.22921
0.197746
-5.18311
-1.28332
0.156194
-5.2461
-1.06627
-0.263338
-5.36954
-0.645237
-5.06381
-1.3396
-0.0140946
-2.31611
-2.87904
-0.013076
-2.32445
-2.90328
0.0472953
-2.34278
-2.9007
-0.0410303
-2.25887
-2.8989
-0.159041
-2.27859
-2.97295
-2.32668
-2.89617
-0.00949136
1.05442
-3.36104
0.0159245
1.0307
-3.38056
0.258724
0.800059
-3.38564
-0.0274596
1.38425
-3.35693
-0.516287
1.71395
-3.50371
0.505886
-3.34886
0.031845
2.96834
-1.94576
0.0707441
2.98239
-1.99059
0.275914
2.75256
-2.15767
0.0810903
3.20266
-1.62359
-0.437657
3.43105
-1.19835
2.32414
-2.25591
0.049652
2.91869
0.154614
2.87743
0.32386
2.58331
-0.0314737
3.55799
-0.829793
4.22937
1.49435
-0.000183121
-1.11471
2.23312
0.00514194
-1.12093
2.23334
0.000689394
-1.1115
2.23155
0.00647997
-1.12273
2.231
0.0364318
-1.14831
2.2322
-1.07964
2.22297
-0.00775959
-2.37527
3.01662
0.0124769
-2.41243
3.01966
-0.0113634
-2.35629
3.0123
0.0149153
-2.4258
3.01743
0.122693
-2.54219
3.02805
-2.21932
2.98486
-0.0215249
-3.93856
4.07981
-0.000376473
-4.02531
4.08152
-0.0162886
-3.91725
4.08888
-0.00020059
-4.03647
4.08851
0.0803849
-4.25248
4.07804
-3.67905
4.09817
-0.0362505
-5.24766
3.44615
-0.0636678
-5.35667
3.44399
-0.0679263
-5.24896
3.49399
-0.0765196
-5.37221
3.46713
-0.101989
-5.65322
3.44083
-5.05444
3.60575
-0.0324334
-5.7702
0.915247
-0.082609
-5.86189
0.91892
-0.150389
-5.73276
0.960463
-0.139728
-5.92271
0.949087
-0.0428672
-6.3905
0.998911
-5.61269
1.07465
0.0330847
-5.0266
-1.39761
-0.00161518
-5.06948
-1.37242
-0.0890024
-4.88023
-1.42395
-0.016595
-5.22383
-1.32426
0.120455
-5.91337
-1.04671
-4.73458
-1.44085
0.0574118
-4.62617
-1.41844
0.0480467
-4.62983
-1.41856
0.0791313
-4.48333
-1.51461
0.140018
-4.81171
-1.36563
-0.0544526
-5.39697
-0.960873
-4.34496
-1.64365
-0.00363125
-4.4254
-1.40762
-0.00540068
-4.43129
-1.42599
0.0326703
-4.34799
-1.45673
0.0230459
-4.57907
-1.28928
-0.0898352
-4.98766
-0.941668
-4.27124
-1.50315
-0.00472708
-3.69126
-3.60845
-0.000898005
-3.69663
-3.64177
0.0344946
-3.6482
-3.63589
0.00480566
-3.76172
-3.68657
-0.0998255
-3.85212
-4.00386
-3.61059
-3.65665
-0.0189586
-2.71173
-4.32161
-0.0539151
-2.72108
-4.32116
-0.058894
-2.7157
-4.31317
-0.0580338
-2.79454
-4.32497
-0.0272555
-2.82918
-4.55742
-2.69437
-4.29233
0.0122799
-1.87593
-2.79385
0.00592778
-1.87493
-2.83039
0.0354431
-1.9672
-2.93567
0.0569353
-1.84942
-2.59019
0.0196542
-1.69925
-2.291
-1.88797
-3.04266
0.281769
0.760994
0.643988
0.640282
1.04516
0.214936
1.28446
1.46926
-0.273139
4.08772
-0.666759
-0.00159243
-0.480695
2.7154
-0.000368584
-0.483563
2.71568
-0.00201042
-0.482085
2.71527
0.000913848
-0.486885
2.71496
0.0142441
-0.497246
2.71611
-0.474661
2.71187
-0.00798353
-0.643393
3.1873
-0.00274373
-0.659192
3.19005
-0.0185749
-0.640682
3.18673
0.0012108
-0.681338
3.1921
0.0646809
-0.735019
3.20235
-0.598161
3.17304
-0.0234398
-0.526766
3.98662
-0.0203105
-0.574278
3.99348
-0.0389369
-0.521841
3.98866
-0.0118284
-0.624577
4.00464
0.0586757
-0.747526
4.02004
-0.414141
3.97282
-0.0427503
-0.786649
3.74878
-0.0645938
-0.858474
3.75003
-0.0643399
-0.797005
3.7689
-0.0770748
-0.908017
3.7633
-0.0770825
-1.06892
3.76223
-0.689524
3.80405
-0.0449139
-1.27614
1.44965
-0.0655842
-1.35663
1.43774
-0.0680325
-1.31566
1.48157
-0.0955341
-1.37486
1.44343
-0.0652047
-1.54887
1.44853
-1.25214
1.57206
-0.0303883
-1.50254
-1.14083
-0.0463249
-1.56537
-1.14774
-0.10986
-1.54561
-1.13047
-0.11702
-1.53085
-1.16111
0.0885269
-1.64984
-1.15129
-1.50967
-1.09479
-0.012258
-1.28643
-1.62229
-0.058344
-1.31397
-1.62387
-0.200927
-1.29681
-1.62083
-0.149419
-1.3024
-1.64559
0.251254
-1.38073
-1.63065
-1.27499
-1.62708
-0.00292919
-1.20994
-1.48118
-0.0380837
-1.21917
-1.48564
-0.11523
-1.19773
-1.47866
-0.0882416
-1.19477
-1.4239
0.144023
-1.18447
-1.3702
-1.16326
-1.47085
-0.000392569
-2.29535
-2.52265
0.00402606
-2.31624
-2.54911
0.0448792
-2.31031
-2.56416
0.0557474
-2.30695
-2.58526
-0.119663
-2.25792
-2.75499
-2.31076
-2.62881
-0.0182917
-2.48087
-4.1178
-0.0505892
-2.49473
-4.11038
-0.100005
-2.46467
-4.10939
-0.0622614
-2.60894
-4.06072
0.0193629
-2.93791
-3.95906
-2.48745
-4.09628
-0.0218081
-1.75017
-3.50274
-0.0979831
-1.73956
-3.50938
-0.300992
-1.67533
-3.522
-0.227559
-1.86163
-3.41094
0.370306
-2.59283
-3.23395
-1.65024
-3.50956
-0.000998508
-0.988176
-0.0565763
-1.0437
-0.347037
-1.16994
0.119846
-0.859251
1.03841
0.57633
-1.27859
-0.00134616
-0.0155974
2.73235
-0.00150042
-0.016836
2.73267
-0.00184093
-0.0171886
2.7328
-0.00098712
-0.018748
2.73286
0.00340227
-0.0217569
2.73348
-0.0166236
2.7319
-0.00376668
0.270818
2.90465
-0.00399587
0.267631
2.90581
-0.00879828
0.268927
2.90542
-0.00308185
0.260572
2.90707
0.0163282
0.250434
2.91075
0.270975
2.90177
-0.0123395
1.09168
3.17809
-0.0136654
1.07992
3.18252
-0.027636
1.09219
3.17937
-0.00828201
1.05609
3.18977
0.0379937
1.02251
3.2017
1.11307
3.16872
-0.0191986
1.93561
2.92405
-0.0310169
1.91317
2.9286
-0.0321583
1.9335
2.92873
-0.027579
1.87501
2.9398
-0.0161862
1.82412
2.94922
1.96836
2.93258
-0.0105364
2.09351
1.30229
-0.0274597
2.06767
1.30016
-0.00974759
2.08595
1.31141
-0.0323092
2.0379
1.30309
-0.0820209
2.0116
1.31076
2.11693
1.34147
0.00692349
1.27562
-0.329853
0.000965268
1.25677
-0.330889
0.0163843
1.26447
-0.324405
-0.0146581
1.24357
-0.335737
-0.0717748
1.24529
-0.327867
1.26877
-0.318406
0.00955967
0.90544
-1.26168
0.00960105
0.894091
-1.26124
0.0221023
0.890656
-1.25952
-0.0012639
0.880734
-1.25939
-0.0309996
0.887437
-1.24306
0.874819
-1.26413
-0.0119168
0.816435
-1.38026
-0.0264367
0.797701
-1.37473
-0.0496115
0.805676
-1.37051
-0.0597717
0.822828
-1.35584
0.0171335
0.767666
-1.32734
0.78777
-1.36667
-0.00356399
-0.254742
-1.44791
-0.00703936
-0.281484
-1.46645
-0.0150791
-0.280673
-1.46977
-0.00523002
-0.296732
-1.47555
0.00814252
-0.544328
-1.45637
-0.323847
-1.50905
-0.0191202
-1.66023
-2.6932
-0.0403538
-1.69265
-2.67798
-0.0476076
-1.72401
-2.6588
-0.00429663
-1.6797
-2.72106
-0.000507228
-1.82787
-2.6793
-1.77685
-2.64378
-0.0208786
-1.39912
-3.74297
-0.0818146
-1.41248
-3.72862
-0.192712
-1.42747
-3.70765
-0.109045
-1.4745
-3.6998
0.123271
-1.72701
-3.56712
-1.4907
-3.67245
-0.0280956
-2.3592
-0.12951
-2.35477
-0.381313
-2.3456
-0.45595
-2.25911
0.475436
-2.08207
-2.29385
8.27563e-05
0.0605482
-0.208914
1.71769e-05
0.0603881
-0.208987
-1.39424e-05
0.0604173
-0.208978
-4.25093e-05
0.0604178
-0.208985
-0.000106934
0.0603852
-0.208998
0.0605514
-0.208939
3.36203e-05
0.263666
-0.20315
6.94533e-06
0.263567
-0.20315
-6.40269e-06
0.263581
-0.203148
-1.72897e-05
0.263583
-0.203152
-4.33204e-05
0.263569
-0.203154
0.26367
-0.203162
1.16062e-05
-0.00109899
5.00391e-06
-0.00109902
-2.5137e-06
-0.00109884
-8.53049e-06
-0.00110127
-1.46683e-05
-0.00110131
-0.00110608
-4.5433e-05
0.176361
-0.479157
-2.077e-05
0.176198
-0.479424
-3.86797e-05
0.176215
-0.479347
-5.53503e-05
0.176214
-0.479358
-4.00962e-05
0.176179
-0.479429
0.176367
-0.479274
-4.97719e-06
0.372779
-0.39956
-5.19949e-06
0.372692
-0.399644
-2.64853e-05
0.372697
-0.39961
-3.97e-05
0.372699
-0.399625
-5.14131e-05
0.372686
-0.39965
0.372779
-0.399631
2.6474e-06
-0.00417991
5.2792e-07
-0.00418624
-4.76927e-06
-0.00418185
-8.68579e-06
-0.00418593
-1.09833e-05
-0.0041879
-0.00419354
-3.83039e-05
0.461457
-0.716434
-4.45911e-05
0.461303
-0.716946
-6.31673e-05
0.461326
-0.716794
-5.82843e-05
0.46133
-0.716822
-4.46174e-05
0.4613
-0.716962
0.461433
-0.716726
-0.000141686
0.585749
-0.52371
-4.00941e-05
0.585685
-0.524131
-5.38293e-05
0.585685
-0.523959
-5.54416e-05
0.585691
-0.523989
1.95296e-05
0.585685
-0.524112
0.585766
-0.523947
-1.64809e-05
-0.047969
-8.30199e-06
-0.0480263
-2.5259e-05
-0.0479881
-2.5106e-05
-0.0480119
-2.5408e-05
-0.0480183
-0.0480323
0.000828603
1.37165
-0.0893135
6.75234e-06
1.37151
-0.0885493
-0.000226327
1.3715
-0.0888402
-1.35162e-05
1.37166
-0.0893696
-0.000369741
1.37156
-0.0891011
1.37175
-0.0895335
-0.000119601
0.797984
0.0500737
-5.53231e-05
0.798105
0.049207
-8.15635e-05
0.798014
0.049551
-5.923e-05
0.798092
0.0495519
1.26582e-05
0.798123
0.0492556
0.798193
0.0496215
-0.000194798
-0.0372529
-1.74308e-05
-0.0376998
-4.31657e-05
-0.0374843
-4.91379e-05
-0.0374902
6.41573e-05
-0.037624
-0.0373986
0.000568352
5.06724
-0.140966
8.65381e-05
5.06826
-0.137524
-0.000157263
5.06766
-0.13879
-3.55733e-05
5.06778
-0.140141
-0.000155679
5.0678
-0.138882
5.06761
-0.140486
0.000694532
3.16677
1.94985
0.000117099
3.16694
1.95111
-0.000143917
3.16674
1.95073
-1.34116e-05
3.16704
1.95016
-0.000384911
3.16683
1.9506
3.16713
1.94971
0.000368357
1.36545
5.75822e-05
1.36595
-3.08388e-05
1.36577
5.03923e-05
1.36562
-0.000230153
1.36585
1.36542
-0.000589262
3.69829
-2.39295
-0.000230815
3.70436
-2.3898
-0.000167177
3.7017
-2.39109
-0.000285188
3.70042
-2.3923
0.000136155
3.70281
-2.39135
3.70022
-2.39291
-0.000565144
4.6596
0.989107
-0.0002583
4.66311
0.992049
-0.000176662
4.66146
0.990885
-0.000426501
4.66094
0.989899
-0.000249814
4.66241
0.99082
4.66104
0.988652
-0.000453449
2.03318
-0.000189493
2.03453
-0.000139819
2.03389
-0.000353877
2.03363
-0.000326142
2.03418
2.03275
0.000165943
0.79578
-4.12588
-0.000219841
0.794729
-4.12279
-0.000171045
0.794848
-4.12414
-0.000372025
0.794687
-4.12488
-0.00061508
0.794884
-4.12428
0.794698
-4.12577
0.00117865
2.2098
-0.426092
-8.94958e-05
2.21246
-0.424407
-0.000345441
2.211
-0.425016
-0.000357854
2.21048
-0.425889
-0.000851495
2.21177
-0.425585
2.20955
-0.427045
-3.39435e-05
1.5076
-4.14043e-05
1.50851
-9.1396e-06
1.50801
-8.25166e-05
1.50779
6.9738e-05
1.50805
1.50679
0.000175731
-1.2758
-3.97826
-0.000311895
-1.27932
-3.97622
-0.000432601
-1.2781
-3.97709
-0.000689133
-1.27768
-3.97746
-0.00105732
-1.27881
-3.97715
-1.27801
-3.97811
0.00257676
-1.0311
-0.673366
1.83947e-05
-1.02792
-0.67324
-0.00033295
-1.02967
-0.673097
-6.90149e-05
-1.03022
-0.673625
-0.00150151
-1.02923
-0.673733
-1.03262
-0.673948
4.32835e-05
1.08797
0.000208527
1.08884
0.00036592
1.08839
0.000355429
1.08823
0.000702075
1.08826
1.08733
8.12236e-05
-3.02746
-3.84012
-0.000297085
-3.02861
-3.83904
-0.000327305
-3.02824
-3.83967
-0.000756577
-3.02805
-3.83934
-0.00147347
-3.02867
-3.83916
-3.02849
-3.83985
0.00152181
-3.10148
-0.600867
2.91385e-05
-3.09955
-0.600805
-0.000181521
-3.10042
-0.600709
-0.000128739
-3.10071
-0.601015
-0.00118935
-3.10026
-0.601071
-3.1021
-0.601532
-0.000281782
0.533367
0.000226504
0.533796
0.000405052
0.533561
0.000384989
0.533508
0.000776427
0.533441
0.532856
0.00141452
-2.79382
-4.10354
-0.000136395
-2.79472
-4.10402
-0.000101286
-2.79436
-4.10415
-1.17359e-05
-2.79439
-4.10335
-0.00138731
-2.79479
-4.10314
-2.79431
-4.10438
0.000736016
-2.86751
-0.527912
-1.37102e-05
-2.86685
-0.527927
-2.55542e-05
-2.86713
-0.527937
4.89509e-05
-2.86731
-0.528169
-0.000231301
-2.86717
-0.528404
-2.86761
-0.52846
-0.00018915
0.254174
0.000107556
0.254049
0.000130133
0.254085
0.000193374
0.254046
0.000565511
0.253854
0.253916
0.000820707
-1.211
-3.14876
4.65558e-05
-1.21095
-3.1496
6.12964e-06
-1.21106
-3.14963
0.000256056
-1.21144
-3.14867
0.000455121
-1.21236
-3.14846
-1.21017
-3.14984
0.000100665
-1.65663
-0.0823718
0.000281039
-1.65644
-0.0826175
0.000737056
-1.65665
-0.0828066
0.0004547
-1.65694
-0.0823835
-0.000590238
-1.65743
-0.0822859
-1.65616
-0.0830554
-4.75024e-05
0.384368
5.61442e-05
0.383913
-8.8537e-05
0.384201
0.000120137
0.383861
0.000504243
0.383113
0.384827
-0.000267444
-1.73064
-1.59047
-0.000526427
-1.73132
-1.59069
-0.0011685
-1.73083
-1.5908
-0.000191884
-1.7322
-1.5903
0.00246137
-1.73514
-1.58967
-1.72777
-1.59142
9.61572e-05
-1.5811
-0.232001
3.19203e-05
-1.58197
-0.231917
0.000669066
-1.58157
-0.232718
-8.97932e-05
-1.58227
-0.231554
-0.00203168
-1.58423
-0.231249
-1.57941
-0.233447
0.000252621
-0.0440689
0.000301244
-0.0442465
0.000548112
-0.0441801
0.000132444
-0.0444156
-0.00141898
-0.0449199
-0.0437992
-0.000919385
-0.496772
-1.07322
1.57091
-0.00132905
-0.49745
-1.07294
1.5708
-0.00372033
-0.494493
-1.0731
1.56998
-0.00188592
-0.499044
-1.0723
1.56951
0.00444754
-0.499467
-1.07235
1.56548
-0.490553
-1.07231
1.56731
-0.00911535
-0.549755
-0.905037
0.967135
-0.000255345
-0.552496
-0.906418
0.952605
0.016589
-0.549467
-0.911277
0.949407
-0.00617214
-0.552416
-0.880906
0.95704
-0.0360152
-0.558885
-0.868824
0.958087
-0.540834
-0.917585
0.931853
-0.00474048
-0.255728
0.429123
-0.00420594
-0.253177
0.422338
-0.00201448
-0.252259
0.420019
-0.0057908
-0.251861
0.421992
-0.00717195
-0.250011
0.422119
-0.248361
0.409969
-0.000131515
-0.255111
-0.817973
-0.000290613
-0.254634
-0.81815
-0.000367053
-0.25488
-0.818141
0.000163321
-0.25494
-0.817895
0.000980473
-0.2553
-0.817864
-0.25331
-0.818023
-0.00290722
-0.401176
-0.756064
-0.00210895
-0.403895
-0.757955
-0.000747115
-0.405501
-0.762017
-0.00254565
-0.391789
-0.742258
-0.00276903
-0.387036
-0.736862
-0.406759
-0.766907
-0.00230936
0.00978953
-0.00286196
0.0103194
-0.00468701
0.0110013
-0.0037155
0.0107054
0.000569628
0.010699
0.0125651
-0.000223382
-0.312984
-0.504766
-0.000442336
-0.313208
-0.504723
-0.000938387
-0.312665
-0.50498
-7.25584e-05
-0.314828
-0.503933
0.00175777
-0.316179
-0.503515
-0.311176
-0.50509
-0.000629817
-0.611784
-0.456634
-0.00387889
-0.611756
-0.456161
-0.0103556
-0.611811
-0.456395
1.25465e-05
-0.613314
-0.454141
0.0202116
-0.621891
-0.451352
-0.598763
-0.459114
-0.000583757
0.133466
-0.00106391
0.133941
-0.00179549
0.134289
-0.000608864
0.134124
0.00182658
0.133991
0.135396
-0.000299157
-0.396444
-0.108023
-0.000337185
-0.396615
-0.108071
-1.79867e-05
-0.397295
-0.108005
6.55399e-05
-0.395554
-0.108462
0.000213687
-0.394546
-0.109118
-0.397424
-0.107452
-0.00269589
-0.788795
-0.0615898
-0.00311236
-0.790508
-0.0618573
-0.00819803
-0.786588
-0.0620134
-0.00186135
-0.796944
-0.0590832
0.0165876
-0.808804
-0.0555433
-0.774569
-0.0653797
-0.000472254
0.300061
-0.000172595
0.299842
-0.000878386
0.300631
-0.000351022
0.299752
0.00224884
0.298053
0.3025
-0.000378275
-0.480165
0.37252
-0.000609516
-0.480467
0.372627
-0.000975958
-0.480287
0.372649
-2.60198e-05
-0.481765
0.372352
0.00185345
-0.482924
0.371926
-0.478561
0.372962
-0.00120852
-0.80429
0.263742
-0.00162635
-0.805748
0.263832
-0.00513899
-0.803183
0.264389
-0.000843945
-0.809251
0.264104
0.0125904
-0.816962
0.265055
-0.79562
0.264268
-0.000319694
0.48024
-3.42103e-05
0.47994
-0.000648536
0.480676
-0.000224694
0.479705
0.00179197
0.478302
0.482202
-0.000262216
-1.21769
-0.000484961
-1.21784
-0.000886811
-1.21775
-5.90156e-05
-1.21877
0.0017659
-1.21957
-1.21669
-0.000624782
-1.18532
-0.000510414
-1.18603
-0.00141013
-1.18517
-0.000474708
-1.18716
0.00371516
-1.18995
-1.18215
5.81609e-05
0.000246049
0.000724924
7.15395e-05
-0.00126127
-0.00061506
2.55198
0.180985
-0.0008503
2.55222
0.180687
-0.000900163
2.55234
0.180515
-0.000606044
2.55244
0.180124
0.000601163
2.55271
0.179562
2.5521
0.180407
-0.000259489
2.40479
0.147444
-0.000392974
2.40498
0.147374
-0.000414287
2.40506
0.147307
-0.000298453
2.40514
0.147188
9.72636e-05
2.40525
0.147073
2.40499
0.147208
-7.91496e-05
0.0553341
-0.00012644
0.0553204
-0.000135435
0.0553006
-0.000101363
0.0552765
-3.39825e-06
0.0552623
0.0552705
-0.0013522
2.57514
0.511855
-0.00181986
2.57559
0.511381
-0.0024294
2.57575
0.510791
-0.0016806
2.57608
0.510359
0.0017853
2.57696
0.509885
2.57527
0.508697
-0.000497704
2.35853
0.36455
-0.000734736
2.35877
0.364431
-0.000765622
2.3589
0.364188
-0.000671356
2.35902
0.364156
-4.32987e-05
2.35921
0.364192
2.35893
0.363502
-0.000136727
0.136923
-0.000215007
0.13689
-0.000225162
0.13684
-0.000179617
0.136777
-1.81068e-05
0.13674
0.136783
-0.00366722
2.4941
1.19952
-0.00493081
2.49561
1.19955
-0.00884493
2.49527
1.1988
-0.00396504
2.49794
1.19731
0.00927515
2.50171
1.19664
2.49318
1.19352
-0.00106834
2.15128
0.708432
-0.00158028
2.15177
0.708783
-0.00203991
2.15206
0.707853
-0.00170325
2.15247
0.709288
0.0002995
2.15315
0.710749
2.15227
0.704708
-0.000276694
0.24179
-0.000398195
0.241794
-0.00042145
0.241695
-0.000399158
0.241833
-9.28309e-05
0.241984
0.241434
-0.0053722
2.16719
1.96175
-0.00914307
2.17
1.96192
-0.0123328
2.16848
1.96224
-0.00705839
2.1754
1.95643
0.00212705
2.18162
1.95506
2.16793
1.96029
-0.00176023
1.75336
1.12402
-0.00266242
1.75428
1.1254
-0.0044623
1.75435
1.12379
-0.00289309
1.75582
1.12731
0.00163566
1.75739
1.13045
1.75487
1.11939
-0.000445395
0.359054
-0.000599508
0.359264
-0.000929215
0.359029
-0.000698907
0.359794
0.000238145
0.360359
0.358348
-0.00336024
1.25588
2.01152
-0.00962386
1.2576
2.01075
-0.00640154
1.25769
2.01274
-0.0137724
1.26118
2.00572
-0.0222889
1.26655
2.00778
1.26264
2.01684
-0.00172087
1.07016
1.31146
-0.00313772
1.07105
1.31337
-0.0045977
1.07088
1.31206
-0.00447061
1.0726
1.31575
-0.000422808
1.07416
1.31879
1.07227
1.30933
-0.000458563
0.393229
-0.000620988
0.393563
-0.00121495
0.393259
-0.000715705
0.394042
0.000807117
0.394445
0.392799
-0.00216906
-0.041248
1.72508
-0.00609493
-0.0416763
1.72546
-0.00271695
-0.0408201
1.72577
-0.0114171
-0.0430622
1.72174
-0.0131221
-0.0420336
1.72365
-0.0386262
1.72393
-0.000630868
0.214071
1.05677
-0.00117635
0.214337
1.0579
-0.00139061
0.214324
1.05713
-0.00182133
0.21492
1.0582
-0.000449194
0.215635
1.05975
0.215429
1.05483
-0.000318415
0.323055
-0.000441935
0.323154
-0.000868509
0.323024
-0.000524002
0.323035
0.000412348
0.323048
0.322751
-0.00330826
-0.705834
1.17255
-0.00613135
-0.70638
1.17342
-0.00735323
-0.705533
1.173
-0.00944269
-0.706315
1.17076
0.00369813
-0.704692
1.17213
-0.704938
1.16844
-0.000566101
-0.361786
0.71329
-0.000755149
-0.361581
0.713286
-0.000607544
-0.361175
0.712619
-0.00103602
-0.360257
0.712566
-0.000521459
-0.35863
0.71317
-0.360598
0.709969
-0.000544976
0.204507
-0.000974251
0.204413
-0.00138766
0.204378
-0.00102352
0.204112
0.000797419
0.20373
0.204489
-0.00687699
-0.964729
0.763897
-0.0113228
-0.963698
0.766838
-0.0183629
-0.962366
0.771904
-0.0128382
-0.958651
0.768048
0.00938793
-0.952555
0.77513
-0.958831
0.769994
-0.00161061
-0.898856
0.649027
-0.00307029
-0.897729
0.648776
-0.00303028
-0.897442
0.647655
-0.00417784
-0.895285
0.650347
-0.00495573
-0.893285
0.654679
-0.895168
0.641349
-0.000732158
0.20995
-0.00111723
0.20983
-0.00117143
0.209515
-0.00115117
0.210552
-0.000865427
0.211402
0.208822
0.00788357
-0.778397
0.0865
0.00159601
-0.779042
0.0857216
-0.0129057
-0.77761
0.0942457
-0.00577868
-0.779497
0.0648749
0.0360934
-0.774233
0.0511239
-0.782336
0.0793713
-0.00218553
-0.736934
0.609751
-0.0040727
-0.73663
0.608254
-0.00134266
-0.737067
0.604382
-0.00478702
-0.733387
0.607682
-0.0108368
-0.727347
0.613842
-0.739735
0.58791
-0.00117982
0.274955
-0.00159147
0.274331
-0.00193304
0.27341
-0.00179441
0.274229
0.00107829
0.274158
0.272164
-0.00777082
-1.73517
-0.863751
-0.00887937
-1.73205
-0.859101
-0.00535963
-1.72351
-0.844564
-0.0313354
-1.74461
-0.885599
-0.00514265
-1.73544
-0.918935
-1.72683
-0.842721
-0.00815266
-1.73939
0.622122
-0.0113536
-1.74025
0.619663
-0.00647237
-1.73893
0.614924
-0.0136029
-1.73208
0.602276
-0.00660367
-1.71914
0.590544
-1.74066
0.59513
-0.00170869
0.233373
-0.00387227
0.231998
-0.0082062
0.231241
-0.00415741
0.230754
0.0121141
0.228334
0.229545
0.00317897
-2.10067
-2.50923
0.0133985
-2.10084
-2.4971
0.0428609
-2.1013
-2.48037
0.00264064
-2.02089
-2.52429
-0.0151844
-1.87199
-2.59624
-2.06735
-2.463
-0.0252639
-1.8157
0.362415
-0.057909
-1.81742
0.368892
-0.103566
-1.81325
0.372527
-0.0911022
-1.78325
0.352171
0.0477884
-1.76099
0.340653
-1.7964
0.371969
-0.00252666
0.263655
-0.0098894
0.265916
-0.023295
0.267317
-0.0112429
0.261895
0.0208937
0.253434
0.271959
0.00415343
-3.30168
0.0100064
-3.28691
0.0215526
-3.26754
0.017243
-3.20958
-0.0135384
-3.08205
-3.20308
-0.0192662
-1.95286
-0.0403268
-1.94436
-0.0464426
-1.93949
-0.0490362
-1.89777
-0.012131
-1.82021
-1.91139
-0.00876819
-0.0210659
-0.0298417
-0.0209033
-1.18132e-06
)
;

boundaryField
{
    seabed_topleft_surface
    {
        type            calculated;
        value           uniform 0;
    }
    seabed_topright_surface
    {
        type            calculated;
        value           uniform 0;
    }
    breakwater_top_surface
    {