/*--------------------------------*- C++ -*----------------------------------*\
| =========                 |                                                 |
| \\      /  F ield         | OpenFOAM: The Open Source CFD Toolbox           |
|  \\    /   O peration     | Version:  v1612+                                |
|   \\  /    A nd           | Web:      www.OpenFOAM.com                      |
|    \\/     M anipulation  |                                                 |
\*---------------------------------------------------------------------------*/
FoamFile
{
    version     2.0;
    format      ascii;
    class       volScalarField;
    location    "6.2";
    object      alpha.water;
}
// * * * * * * * * * * * * * * * * * * * * * * * * * * * * * * * * * * * * * //

dimensions      [0 0 0 0 0 0 0];

internalField   nonuniform List<scalar> 
320
(
1
1
1
1
1.58147e-05
1.39792e-05
1.27617e-05
1.51403e-05
1.48446e-05
1.58233e-05
1.53737e-05
1.51148e-05
1.72622e-05
1.55725e-05
1.24787e-05
1.69699e-05
0.999985
0.999987
0.999985
0.999984
0.999983
0.999981
0.999979
0.999978
0.999983
0.999984
0.999992
0.999982
1
1
1
1
1
1
1
1
1
1
1
1
1
1
1
1
1
1
1
1
1
1
1
1
1
1
1
1
1.60227e-05
1.74208e-05
1.42615e-05
1.46985e-05
1.15332e-05
1.07715e-05
1.13904e-05
1.13228e-05
1.57195e-05
1.53061e-05
1.34983e-05
1.24005e-05
1.47243e-05
1.32633e-05
1.40582e-05
1.41185e-05
1.3558e-05
1.49977e-05
1.52097e-05
1.49189e-05
0.999985
0.999982
0.999988
0.99998
0.99999
0.999991
0.999991
0.999993
0.999982
0.999987
0.999994
0.999993
0.999981
0.99999
0.999992
0.999993
0.999993
0.999984
0.999986
0.999991
1
1
1
1
1
1
1
1
1
1
1
1
1
1
1
1
1
1
1
1
1
1
1
1
1
1
1
1
1
1
1
1
1
1
1
1
1
1
1
1
1
1
1
1
1
1
1
1
1
1
1
1
1
1
1
1
1
1
1
1
1
1
1
1
1
1
1
1
1
1
1
1
1
1
1
1
1.70316e-05
1.62662e-05
1.48569e-05
1.37343e-05
1.51893e-05
1.44572e-05
1.54916e-05
1.49341e-05
1.52563e-05
1.59893e-05
1.51433e-05
1.53652e-05
1.7753e-05
1.5708e-05
1.54251e-05
1.55461e-05
1.7567e-05
1.53014e-05
1.42654e-05
1.63756e-05
1.77176e-05
1.60398e-05
1.59482e-05
1.52402e-05
1.51923e-05
1.72503e-05
1.62848e-05
1.76317e-05
0.999984
0.999983
0.999983
0.999991
0.999987
0.999985
0.999977
0.999982
0.999988
0.999978
0.99998
0.999984
0.999981
0.999985
0.999984
0.999987
0.999983
0.999983
0.999983
0.999979
0.999982
0.999987
0.999992
0.999986
0.999986
0.999981
0.999981
0.999977
1
1
1
1
1
1
1
1
1
1
1
1
1
1
1
1
1
1
1
1
1
1
1
1
1
1
1
1
1
1
1
1
1
1
1
1
1
1
1
1
1
1
1
1
1
1
1
1
1
1
1
1
1
1
1
1
1
1
1
1
1
1
1
1
1
1
1
1
1
1
1
1
1
1
1
1
1
1
1
1
1
1
1
1
1.54642e-05
1.43611e-05
1.46982e-05
1.29576e-05
0.999979
0.999985
0.999985
0.999985
)
;

boundaryField
{
    top_fluid_surface
    {
        type            inletOutlet;
        inletValue      uniform 0;
        value           nonuniform List<scalar> 
64
(
0
1.39792e-05
1.27617e-05
1.51403e-05
1.48446e-05
0
0
0
0
0
1.24787e-05
0
0
0
1.42615e-05
0
1.15332e-05
1.07715e-05
1.13904e-05
1.13228e-05
0
0
1.34983e-05
1.24005e-05
1.47243e-05
1.32633e-05
1.40582e-05
1.41185e-05
1.3558e-05
1.49977e-05
1.52097e-05
1.49189e-05
0
0
0
1.37343e-05
0
1.44572e-05
0
0
1.52563e-05
0
0
0
0
0
0
0
0
0
1.42654e-05
0
0
0
1.59482e-05
0
0
0
0
0
0
1.43611e-05
1.46982e-05
1.29576e-05
)
;
    }
    bottom_fluid_surface
    {
        type            zeroGradient;
    }
    lateral_surface_1
    {
        type            zeroGradient;
    }
    lateral_surface_2
    {
        type            zeroGradient;
    }
    lateral_surface_3
    {
        type            zeroGradient;
    }
    lateral_surface_4
    {
        type            zeroGradient;
    }
}


// ************************************************************************* //
