/*--------------------------------*- C++ -*----------------------------------*\
| =========                 |                                                 |
| \\      /  F ield         | OpenFOAM: The Open Source CFD Toolbox           |
|  \\    /   O peration     | Version:  v1612+                                |
|   \\  /    A nd           | Web:      www.OpenFOAM.com                      |
|    \\/     M anipulation  |                                                 |
\*---------------------------------------------------------------------------*/
FoamFile
{
    version     2.0;
    format      ascii;
    class       volScalarField;
    location    "6.2";
    object      p_rgh;
}
// * * * * * * * * * * * * * * * * * * * * * * * * * * * * * * * * * * * * * //

dimensions      [1 -1 -2 0 0 0 0];

internalField   nonuniform List<scalar> 
320
(
-9800.22
-9800.21
-9800.21
-9800.21
-0.00396948
0.00417643
0.0100125
-0.000823994
0.000337067
-0.00381505
-0.00162809
-0.000332331
-0.0103445
-0.0021959
0.0136731
-0.00867793
-9799.88
-9799.96
-9799.96
-9799.92
-9799.91
-9799.84
-9799.83
-9799.82
-9799.84
-9799.88
-9800.04
-9799.84
-9800.2
-9800.21
-9800.22
-9800.22
-9800.22
-9800.21
-9800.22
-9800.22
-9800.2
-9800.2
-9800.2
-9800.2
-9800.21
-9800.21
-9800.21
-9800.21
-9800.21
-9800.21
-9800.22
-9800.22
-9800.21
-9800.21
-9800.21
-9800.21
-9800.2
-9800.2
-9800.2
-9800.2
-0.00441925
-0.0121308
0.00274423
0.000950088
0.0140363
0.0198058
0.0169883
0.0175516
-0.00395922
-0.00184323
0.00682464
0.0120696
0.000894431
0.00820825
0.00425865
0.00554581
0.00847759
0.000929254
0.00121535
0.00313044
-9799.88
-9799.83
-9799.97
-9799.85
-9800.03
-9800.05
-9800.04
-9800.06
-9799.86
-9799.91
-9800.04
-9800.05
-9799.9
-9800
-9800.02
-9800.02
-9800.02
-9799.92
-9799.93
-9799.99
-9800.2
-9800.21
-9800.2
-9800.22
-9800.22
-9800.21
-9800.21
-9800.2
-9800.21
-9800.19
-9800.2
-9800.2
-9800.22
-9800.2
-9800.19
-9800.19
-9800.19
-9800.2
-9800.2
-9800.19
-9800.2
-9800.21
-9800.21
-9800.22
-9800.21
-9800.21
-9800.21
-9800.2
-9800.21
-9800.2
-9800.2
-9800.2
-9800.21
-9800.2
-9800.19
-9800.19
-9800.2
-9800.2
-9800.2
-9800.2
-9800.21
-9800.21
-9800.21
-9800.2
-9800.21
-9800.21
-9800.21
-9800.21
-9800.21
-9800.21
-9800.21
-9800.21
-9800.2
-9800.2
-9800.2
-9800.2
-9800.2
-9800.21
-9800.21
-9800.22
-9800.21
-9800.21
-9800.21
-9800.2
-9800.21
-9800.2
-9800.2
-9800.2
-9800.21
-9800.2
-9800.2
-9800.2
-9800.2
-9800.2
-9800.2
-9800.2
-0.00873413
-0.00627009
-9.99686e-05
0.00606231
0.00729819
-0.00206003
-0.005001
-0.00174799
-0.00182519
-0.00528903
-0.00074395
-0.00190267
-0.0117769
0.00411923
-0.00463809
-0.00375787
-0.0134624
-0.00228012
0.00322247
-0.00737369
-0.0138076
-0.00512919
-0.00251773
6.01263e-05
0.00137488
-0.0136706
-0.001951
-0.00996037
-9799.86
-9799.86
-9799.87
-9800.01
-9799.85
-9799.94
-9799.81
-9799.86
-9799.95
-9799.81
-9799.85
-9799.88
-9799.82
-9799.86
-9799.89
-9799.9
-9799.83
-9799.88
-9799.92
-9799.81
-9799.82
-9799.9
-9799.99
-9799.9
-9799.9
-9799.87
-9799.83
-9799.78
-9800.2
-9800.2
-9800.21
-9800.2
-9800.19
-9800.22
-9800.23
-9800.22
-9800.21
-9800.22
-9800.21
-9800.21
-9800.2
-9800.19
-9800.2
-9800.2
-9800.2
-9800.21
-9800.21
-9800.21
-9800.2
-9800.19
-9800.18
-9800.19
-9800.19
-9800.21
-9800.2
-9800.2
-9800.2
-9800.2
-9800.21
-9800.21
-9800.21
-9800.21
-9800.22
-9800.22
-9800.21
-9800.22
-9800.21
-9800.21
-9800.21
-9800.2
-9800.2
-9800.2
-9800.2
-9800.2
-9800.21
-9800.2
-9800.2
-9800.19
-9800.19
-9800.19
-9800.19
-9800.2
-9800.21
-9800.21
-9800.2
-9800.2
-9800.21
-9800.21
-9800.21
-9800.21
-9800.22
-9800.21
-9800.21
-9800.21
-9800.21
-9800.21
-9800.21
-9800.2
-9800.2
-9800.2
-9800.2
-9800.2
-9800.2
-9800.2
-9800.2
-9800.19
-9800.19
-9800.2
-9800.2
-9800.2
-9800.2
-9800.2
-0.0017529
0.00318396
0.00188889
0.0102649
-9799.83
-9799.94
-9799.93
-9799.96
)
;

boundaryField
{
    top_fluid_surface
    {
        type            totalPressure;
        rho             rho;
        psi             none;
        gamma           1;
        p0              uniform 0;
        value           nonuniform List<scalar> 
64
(
-8.67248e-09
0
0
0
0
-4.6575e-09
-1.89729e-09
-5.56186e-11
-3.42083e-08
-1.40768e-09
0
-1.6165e-08
-4.32167e-09
-3.30102e-08
0
-3.48576e-10
0
0
0
0
-2.05135e-09
-3.16639e-09
0
0
0
0
0
0
0
0
0
0
-1.92554e-08
-7.88058e-09
-6.33922e-10
0
-7.27526e-10
0
-1.97748e-08
-3.23168e-09
-1.61077e-10
-9.24157e-09
-2.80936e-09
-2.44575e-09
-2.55745e-08
-6.00204e-10
-5.9917e-09
-4.24e-09
-4.47885e-08
-1.70631e-09
0
-1.89022e-08
-5.62925e-08
-5.59009e-09
-2.41363e-10
-8.15804e-10
-2.04841e-11
-7.49299e-09
-6.26293e-09
-1.52072e-08
-2.19406e-09
0
0
0
)
;
    }
    bottom_fluid_surface
    {
        type            fixedFluxPressure;
        gradient        uniform 0;
        value           nonuniform List<scalar> 
64
(
-9800.21
-9800.21
-9800.21
-9800.2
-9800.21
-9800.21
-9800.21
-9800.21
-9800.21
-9800.21
-9800.21
-9800.21
-9800.2
-9800.2
-9800.2
-9800.2
-9800.2
-9800.21
-9800.21
-9800.22
-9800.21
-9800.21
-9800.21
-9800.2
-9800.21
-9800.2
-9800.2
-9800.2
-9800.21
-9800.2
-9800.2
-9800.2
-9800.2
-9800.2
-9800.2
-9800.2
-9800.2
-9800.2
-9800.21
-9800.21
-9800.21
-9800.21
-9800.22
-9800.21
-9800.21
-9800.21
-9800.21
-9800.21
-9800.21
-9800.2
-9800.2
-9800.2
-9800.2
-9800.2
-9800.2
-9800.2
-9800.2
-9800.19
-9800.19
-9800.2
-9800.2
-9800.2
-9800.2
-9800.2
)
;
    }
    lateral_surface_1
    {
        type            fixedFluxPressure;
        gradient        uniform 0;
        value           nonuniform List<scalar> 
40
(
-0.00873413
-0.00627009
-9.99686e-05
0.00606231
0.00729819
-0.00206003
-0.005001
-0.00996037
-9799.86
-9799.86
-9799.87
-9800.01
-9799.85
-9799.94
-9799.81
-9799.78
-9800.2
-9800.2
-9800.21
-9800.2
-9800.19
-9800.22
-9800.23
-9800.2
-9800.2
-9800.2
-9800.21
-9800.21
-9800.21
-9800.21
-9800.22
-9800.21
-9800.2
-9800.2
-9800.21
-9800.21
-9800.21
-9800.21
-9800.22
-9800.2
)
;
    }
    lateral_surface_2
    {
        type            fixedFluxPressure;
        gradient        uniform 0;
        value           nonuniform List<scalar> 
40
(
0.00411923
-0.00463809
-0.00375787
-0.0134624
-0.00228012
0.00322247
-0.00737369
-0.0138076
-9799.86
-9799.89
-9799.9
-9799.83
-9799.88
-9799.92
-9799.81
-9799.82
-9800.19
-9800.2
-9800.2
-9800.2
-9800.21
-9800.21
-9800.21
-9800.2
-9800.2
-9800.2
-9800.2
-9800.2
-9800.2
-9800.21
-9800.2
-9800.2
-9800.2
-9800.2
-9800.2
-9800.2
-9800.2
-9800.2
-9800.2
-9800.2
)
;
    }
    lateral_surface_3
    {
        type            fixedFluxPressure;
        gradient        uniform 0;
        value           nonuniform List<scalar> 
40
(
-0.005001
-0.00174799
-0.00182519
-0.00528903
-0.00074395
-0.00190267
-0.0117769
0.00411923
-9799.81
-9799.86
-9799.95
-9799.81
-9799.85
-9799.88
-9799.82
-9799.86
-9800.23
-9800.22
-9800.21
-9800.22
-9800.21
-9800.21
-9800.2
-9800.19
-9800.22
-9800.22
-9800.21
-9800.22
-9800.21
-9800.21
-9800.21
-9800.2
-9800.22
-9800.21
-9800.21
-9800.21
-9800.21
-9800.21
-9800.21
-9800.2
)
;
    }
    lateral_surface_4
    {
        type            fixedFluxPressure;
        gradient        uniform 0;
        value           nonuniform List<scalar> 
40
(
-0.0138076
-0.00512919
-0.00251773
6.01263e-05
0.00137488
-0.0136706
-0.001951
-0.00996037
-9799.82
-9799.9
-9799.99
-9799.9
-9799.9
-9799.87
-9799.83
-9799.78
-9800.2
-9800.19
-9800.18
-9800.19
-9800.19
-9800.21
-9800.2
-9800.2
-9800.2
-9800.19
-9800.19
-9800.19
-9800.19
-9800.2
-9800.21
-9800.21
-9800.2
-9800.19
-9800.19
-9800.2
-9800.2
-9800.2
-9800.2
-9800.2
)
;
    }
}


// ************************************************************************* //
