/*--------------------------------*- C++ -*----------------------------------*\
| =========                 |                                                 |
| \\      /  F ield         | OpenFOAM: The Open Source CFD Toolbox           |
|  \\    /   O peration     | Version:  v1612+                                |
|   \\  /    A nd           | Web:      www.OpenFOAM.com                      |
|    \\/     M anipulation  |                                                 |
\*---------------------------------------------------------------------------*/
FoamFile
{
    version     2.0;
    format      ascii;
    class       surfaceScalarField;
    location    "6.2";
    object      phi;
}
// * * * * * * * * * * * * * * * * * * * * * * * * * * * * * * * * * * * * * //

dimensions      [0 3 -1 0 0 0 0];

internalField   nonuniform List<scalar> 
816
(
-2.61945e-06
-9.52195e-06
2.66039e-06
-7.56373e-06
-1.30604e-05
3.01055e-05
3.18951e-06
5.36723e-06
-2.01976e-06
8.91521e-06
-1.80758e-05
-7.29906e-06
1.22169e-07
3.90938e-06
5.39659e-06
-1.16547e-05
-1.93719e-06
7.29853e-06
1.06933e-05
-2.0175e-05
0.000619237
-0.000420388
8.37906e-06
-0.000177331
0.000186066
0.000510336
-3.55378e-06
-7.44869e-05
3.54652e-05
-8.12047e-05
4.19819e-06
-0.000158375
0.000372584
-8.70962e-05
-1.00079e-05
0.000159871
-0.000157569
-0.000164046
-9.78702e-06
0.000249723
-0.000211528
-2.73224e-06
-2.56512e-06
4.17082e-05
-3.21897e-05
-9.236e-05
2.61671e-06
-0.000172825
0.000355454
-3.9981e-05
4.6454e-06
-8.03237e-05
4.47892e-05
0.000221264
8.70454e-06
0.000118051
7.7256e-05
0.00013753
-5.80199e-06
-0.000157495
0.000332528
-0.000298604
-4.33079e-06
-0.000130677
1.04626e-05
-2.17064e-06
-0.000204277
-0.000166511
1.40382e-05
3.32471e-06
-2.12316e-05
-8.28856e-07
1.33671e-05
1.94822e-05
-2.51852e-05
3.24142e-06
1.31233e-05
4.76349e-06
-1.20011e-06
-2.47919e-06
2.14319e-05
-3.01445e-06
8.88304e-06
-7.77984e-06
-2.53031e-06
-2.64267e-06
-6.30202e-06
-2.45701e-07
-3.75818e-06
3.23959e-06
-2.48516e-05
5.13079e-06
1.15198e-05
6.02265e-06
-1.96842e-05
-1.11052e-06
1.95406e-05
7.4047e-06
1.06708e-05
-1.31024e-05
6.03437e-06
9.71891e-06
-3.12423e-05
9.62207e-06
2.8987e-05
1.95179e-05
-3.06808e-05
3.18839e-06
1.05391e-05
-2.20022e-06
2.52362e-05
4.32732e-06
-1.14917e-05
-1.43308e-05
4.99721e-06
7.15331e-06
-5.70786e-06
-3.49703e-07
-1.13504e-05
-1.16787e-06
-1.10547e-05
-1.07701e-05
-3.71108e-06
2.03634e-06
-4.00566e-07
-1.895e-06
-1.19996e-05
2.48131e-06
3.33922e-06
3.07392e-06
-2.43584e-06
-3.41586e-06
7.84947e-08
-1.91022e-06
-1.18913e-05
-2.995e-06
-1.04954e-05
-3.05581e-06
-8.86116e-06
-2.38534e-06
-4.53405e-06
5.77538e-06
6.4884e-06
-1.66361e-06
-1.53395e-05
-7.09877e-06
-1.16774e-05
-1.05658e-05
-1.38782e-05
-4.00536e-06
-9.98248e-07
1.11193e-05
-3.02384e-06
-7.35482e-06
-5.22986e-06
-3.10411e-06
-2.04928e-06
-5.889e-06
2.37894e-06
-3.59935e-06
-3.90551e-06
1.30162e-06
3.91725e-06
-1.41293e-06
3.04737e-06
-4.26942e-06
1.59722e-07
2.65064e-06
9.49429e-07
-6.84443e-07
4.39386e-06
3.99034e-06
-3.83697e-06
-4.68121e-07
-8.70182e-07
-3.80709e-06
-6.93709e-06
-1.95285e-06
-1.82229e-06
1.23058e-06
-1.34325e-06
-7.103e-06
-1.29256e-07
2.25879e-06
1.51739e-06
-6.31708e-07
-8.16994e-07
2.72745e-07
-1.31223e-06
-1.75286e-06
-1.64011e-06
-5.79772e-06
-3.52235e-06
-2.15794e-06
-9.61137e-07
-3.1097e-06
-1.62834e-06
4.57347e-06
8.20984e-07
-6.95093e-07
-4.95728e-06
-6.78654e-06
-4.53831e-06
-5.84839e-06
-2.01699e-06
-4.07617e-06
-1.75843e-07
-1.58228e-06
3.40936e-06
-2.96454e-06
-2.60568e-06
-2.45493e-06
0.000149785
-9.82181e-05
1.00375e-05
-8.16813e-05
0.000464591
8.46784e-08
-4.89657e-06
0.0003037
-1.82312e-07
-1.51192e-05
0.000294501
2.31833e-05
-0.000165156
0.000129216
3.30798e-06
-0.000265676
-0.000192615
-0.000104141
7.00477e-06
-0.000207014
-0.000352485
1.30698e-07
-0.000286637
-0.000659362
-5.13851e-06
-0.000221512
-0.000411277
-4.86597e-06
-6.82258e-05
0.000179834
1.22006e-05
-0.000272869
-0.000213327
3.11475e-06
1.42002e-06
-0.000158289
-0.000233774
3.18994e-06
-0.000465767
-0.000183691
-1.24169e-05
-0.000139501
-0.000271477
7.09852e-06
-0.00014143
0.000214061
2.47804e-06
-0.00032742
-0.000344208
7.722e-05
-9.5636e-06
-5.72914e-05
-0.000189845
-1.94093e-06
-0.000251449
-0.000217327
-9.39209e-06
-0.000190055
-0.00021238
-2.17286e-05
-0.000193612
6.19971e-07
-0.000244068
-0.000165707
-1.32188e-05
2.45662e-06
1.71546e-05
6.72635e-06
2.19854e-06
-1.46869e-05
-1.45855e-06
3.23308e-06
-1.34988e-05
1.34839e-05
-5.70441e-07
2.60182e-06
9.52495e-06
1.48503e-05
3.65735e-05
-1.88696e-05
-2.57212e-05
2.02618e-06
4.52644e-05
-4.12243e-06
-8.35206e-06
3.18732e-05
-2.86582e-05
-3.25615e-05
5.45291e-05
-3.52257e-05
-2.42037e-05
-3.95032e-06
-5.01432e-06
1.47479e-05
-1.24201e-05
1.76973e-07
-1.36324e-05
-1.12788e-06
3.24317e-05
-3.77054e-06
-1.67755e-05
4.09707e-05
-2.28798e-05
2.637e-06
-3.85599e-05
-6.4924e-06
3.08372e-06
3.0452e-05
-1.45627e-05
2.32344e-05
1.98525e-05
-2.74473e-05
-1.0349e-05
2.64315e-06
2.61251e-05
1.36899e-05
-1.25666e-05
3.58207e-05
-1.8956e-05
-9.90985e-06
6.0353e-06
-1.47264e-05
-4.3374e-06
-2.35276e-06
-5.77767e-06
2.8627e-05
-1.44346e-05
-1.97825e-05
6.68463e-06
1.92652e-06
7.96796e-06
-4.66858e-06
-1.36586e-06
-7.69981e-06
-1.24509e-07
-4.37312e-06
-5.1342e-06
-9.07012e-06
-1.64002e-06
1.57143e-06
-3.608e-06
-6.42966e-06
1.72485e-05
1.23669e-05
1.17082e-05
1.68881e-06
2.05987e-05
4.54358e-06
5.55429e-06
1.46007e-05
1.64722e-05
1.53269e-05
2.48809e-05
1.99447e-05
8.61195e-06
-2.19871e-06
1.96214e-06
-7.22772e-06
-5.69048e-06
2.82163e-06
6.29002e-06
1.56248e-06
1.4438e-05
-1.30372e-06
1.17561e-05
1.85784e-05
9.81408e-06
-3.80741e-06
-1.68041e-05
2.97282e-07
-2.63292e-06
1.39685e-05
8.2007e-06
-8.4385e-06
9.02784e-06
1.21351e-05
4.4876e-06
1.81333e-07
1.17468e-05
-5.92866e-06
8.6252e-06
1.59264e-05
7.43355e-06
5.32064e-06
3.68181e-06
2.61531e-06
1.84267e-06
-9.87518e-07
-1.01259e-06
1.24201e-05
7.29728e-06
1.26966e-05
3.86691e-06
1.05658e-06
2.80036e-06
-2.74907e-06
-1.30655e-06
-2.43543e-06
-9.89034e-07
-3.31055e-06
2.99153e-07
-5.40088e-06
-9.51518e-07
8.87847e-09
-2.18739e-06
-3.27449e-06
5.23849e-06
7.02268e-06
7.30498e-06
6.7865e-07
7.44871e-06
2.07107e-06
3.33205e-06
4.69578e-06
8.74748e-06
9.21897e-06
7.94126e-06
1.13116e-05
5.30014e-06
-8.01962e-07
8.76026e-07
-4.59734e-06
-3.37199e-07
1.35034e-06
3.18894e-06
6.06598e-07
4.24707e-06
-8.11691e-07
6.43326e-06
6.0846e-06
5.69659e-06
-2.38313e-06
-4.06834e-06
6.42346e-07
-1.36574e-06
4.22225e-06
3.75205e-06
-4.5455e-06
2.69966e-06
6.55496e-06
2.94173e-06
-2.57312e-08
4.32636e-06
-3.91612e-06
4.63588e-06
4.77993e-06
4.44531e-06
3.31043e-06
1.8083e-06
1.58631e-06
1.35497e-06
-3.3584e-07
-1.31154e-06
2.98396e-06
4.65813e-06
7.16879e-06
-5.12001e-07
-2.71519e-06
1.28637e-06
-1.97239e-06
1.5476e-06
5.4369e-07
4.30046e-07
-2.96973e-06
-3.32325e-07
1.5211e-06
-6.25311e-07
3.17162e-06
-3.17591e-06
5.93779e-07
4.31417e-08
-3.08581e-06
-1.38786e-06
7.58645e-07
-4.017e-07
-3.57951e-06
1.20443e-07
4.12752e-07
-9.75198e-07
-8.55711e-07
-8.82237e-07
-5.79227e-07
-3.04045e-06
-8.51243e-07
2.05975e-08
-1.41787e-06
1.04101e-06
-1.04172e-06
-1.47444e-06
-3.45047e-06
-3.02734e-06
-5.96385e-07
-4.26242e-07
-1.19356e-06
-1.95324e-06
-3.6653e-07
1.19895e-06
9.68824e-07
-1.34259e-06
-1.25572e-06
4.17091e-08
-5.55467e-07
-1.79139e-06
-3.2945e-07
-6.39956e-07
-1.22638e-06
2.54414e-06
3.5795e-06
1.05978e-06
1.55843e-06
2.00924e-06
4.14282e-06
4.61957e-06
4.46474e-06
2.09501e-06
1.13682e-06
-1.25116e-06
8.90047e-07
2.12192e-06
4.6813e-07
-5.15961e-07
3.32455e-06
3.23821e-06
-1.88351e-07
4.69459e-07
-1.64438e-07
2.70279e-06
-2.06813e-06
3.1229e-06
1.46847e-06
9.38624e-08
-1.30854e-06
2.18364e-06
2.06892e-06
2.28225e-06
4.74972e-07
1.25998e-06
2.88381e-07
2.18175e-06
3.00111e-06
0.000301246
-0.000188086
2.98391e-06
0.000459538
9.96942e-06
0.000486336
7.38282e-06
0.000190001
1.77971e-05
0.000250953
-2.52997e-06
-0.00014934
-1.07048e-05
0.000145256
2.04726e-05
6.94827e-05
8.88182e-06
-0.000117297
-1.06873e-05
-0.000158605
-8.58923e-06
-0.000284542
-4.60534e-06
-0.000246463
5.8612e-06
-6.90581e-05
4.04889e-06
4.34687e-05
6.71211e-06
-9.57459e-05
4.88831e-06
-9.37127e-05
9.49817e-06
-4.96122e-06
5.8751e-06
-4.76789e-05
2.76066e-06
-0.000296264
-5.19042e-06
-0.000286167
8.88592e-06
0.000315788
5.73226e-06
0.000175024
5.35773e-06
0.000150557
-1.36746e-05
-6.01091e-05
2.03981e-06
-0.000228298
5.08655e-06
-0.000260533
1.47025e-05
-0.000192213
-1.64812e-06
-2.37856e-05
4.98073e-06
-5.67138e-06
-1.05341e-05
1.75575e-06
1.96416e-05
1.67077e-05
-1.00773e-05
4.92231e-07
3.16469e-05
-2.00601e-05
2.21405e-05
-3.36693e-05
-1.63181e-05
2.16769e-05
-3.54974e-05
2.14479e-05
-1.58558e-05
-1.33123e-05
2.01488e-05
-9.72152e-06
-4.10205e-05
1.02271e-05
-6.05762e-05
1.87156e-05
-8.53471e-06
7.26873e-06
4.72251e-06
-1.34762e-05
1.98501e-05
-3.5061e-06
-1.88827e-05
-3.45486e-06
5.69442e-06
-3.67754e-06
-1.65917e-05
-7.53549e-07
-6.80225e-06
-7.22977e-06
-1.40059e-05
-9.71231e-06
-1.63965e-05
3.10149e-05
-3.52767e-05
1.71669e-05
9.71269e-06
-1.33668e-05
2.98242e-05
-5.89537e-06
-2.4906e-05
-2.13604e-06
2.51865e-06
-4.48362e-06
1.08824e-05
1.7178e-06
-2.76641e-05
-2.80789e-05
-7.51332e-06
1.03255e-05
-6.06228e-06
-1.67027e-06
9.09811e-06
-7.70381e-06
-4.17114e-06
4.44446e-07
1.44241e-05
9.05476e-06
9.93476e-06
1.14097e-05
-6.30669e-06
-7.93196e-06
-1.61607e-05
-3.72296e-06
-8.36652e-06
1.20358e-05
8.92703e-06
4.4261e-06
-1.69456e-05
-9.48735e-06
-2.6722e-05
-1.12105e-05
-4.84902e-06
-5.60987e-06
1.94634e-06
5.0572e-06
9.18406e-06
9.65284e-07
-8.51797e-06
2.49521e-06
2.85962e-06
3.99477e-06
-8.28156e-06
1.41441e-06
-3.9282e-06
1.34598e-06
-5.74534e-06
3.82317e-06
-6.74725e-06
-1.50212e-05
-1.64378e-05
-4.85855e-06
4.01769e-06
5.3505e-06
1.36745e-05
-7.131e-07
-1.14209e-05
2.97569e-06
1.41966e-06
7.76963e-06
5.04336e-06
5.24879e-06
-1.2463e-05
-1.25144e-05
-4.60539e-06
5.25884e-06
-2.07463e-06
-1.56494e-06
3.28079e-06
-4.72834e-06
-2.01485e-06
-1.97101e-07
4.43313e-06
5.41987e-06
2.12413e-06
6.77449e-06
-6.43262e-07
-4.68939e-06
-4.69286e-06
-2.7755e-06
-2.99967e-06
6.16975e-06
2.0309e-06
3.64196e-06
-5.68888e-06
-4.7356e-06
-7.04097e-06
-6.16037e-06
-2.55916e-06
-3.6805e-06
7.59514e-07
3.28071e-06
2.2251e-06
6.04523e-07
-2.64633e-06
1.64089e-06
1.01077e-06
1.73642e-06
-2.69253e-06
6.65625e-08
-1.63332e-06
9.35094e-07
-2.87612e-06
2.77231e-06
-2.04129e-06
-8.57247e-06
-5.09249e-06
-2.74115e-06
1.10321e-06
3.46893e-06
3.52543e-06
-3.63382e-07
-3.16143e-06
1.47783e-06
1.17913e-06
4.78208e-06
3.89062e-07
2.93735e-06
-3.48604e-06
-4.33294e-06
-2.76271e-06
2.85368e-06
-8.42886e-07
-2.81575e-06
-1.8276e-07
1.28768e-06
3.16549e-06
-1.53055e-06
-9.66107e-07
2.61477e-06
1.06355e-06
-1.51077e-06
-2.92879e-06
-1.29771e-06
9.23169e-07
3.99308e-07
8.89383e-07
1.42874e-06
2.55493e-07
7.04738e-08
1.12838e-06
-3.96949e-06
-1.40785e-06
7.94438e-07
-3.21781e-07
1.32086e-06
1.98373e-06
1.4835e-06
0.000165216
0.000139364
-4.59238e-06
-0.00013102
-8.73125e-06
0.000405573
-1.21066e-05
1.77107e-06
8.59514e-06
1.94361e-05
-8.32698e-06
1.12909e-05
)
;

boundaryField
{
    top_fluid_surface
    {
        type            calculated;
        value           nonuniform List<scalar> 
64
(
-0.000216998
0.000151315
0.000374228
1.08159e-05
5.02394e-05
-0.000167989
-9.49219e-05
-2.3863e-05
-0.000465931
-8.35724e-05
0.000558584
-0.000346974
-0.000185442
-0.000492224
0.00010313
-7.04574e-06
0.00059479
0.000813256
0.00069592
0.000783382
-0.000133371
-0.000118771
0.000303489
0.000523226
2.06562e-05
0.000341063
0.000182421
0.000281445
0.000361856
9.16624e-05
3.90026e-05
0.00012043
-0.000370959
-0.00025357
-3.91578e-05
0.000264323
-0.000229391
4.78835e-05
-0.00030784
-0.000120065
-1.21983e-05
-0.000237126
-9.02924e-05
-0.000113533
-0.000450571
-0.000120994
-0.000181335
-0.000168648
-0.000561808
-0.000100682
0.000112388
-0.000347332
-0.000608935
-0.000209733
-2.05619e-05
-4.475e-05
-3.01489e-05
-0.00017643
-0.000195824
-0.000365963
-0.000104068
0.000184226
0.000120918
0.00041417
)
;
    }
    bottom_fluid_surface
    {
        type            calculated;
        value           uniform 0;
    }
    lateral_surface_1
    {
        type            calculated;
        value           uniform 0;
    }
    lateral_surface_2
    {
        type            calculated;
        value           uniform 0;
    }
    lateral_surface_3
    {
        type            calculated;
        value           uniform 0;
    }
    lateral_surface_4
    {
        type            calculated;
        value           uniform 0;
    }
}


// ************************************************************************* //
