/*--------------------------------*- C++ -*----------------------------------*\
| =========                 |                                                 |
| \\      /  F ield         | OpenFOAM: The Open Source CFD Toolbox           |
|  \\    /   O peration     | Version:  v1612+                                |
|   \\  /    A nd           | Web:      www.OpenFOAM.com                      |
|    \\/     M anipulation  |                                                 |
\*---------------------------------------------------------------------------*/
FoamFile
{
    version     2.0;
    format      ascii;
    class       volVectorField;
    location    "6.2";
    object      U;
}
// * * * * * * * * * * * * * * * * * * * * * * * * * * * * * * * * * * * * * //

dimensions      [0 1 -1 0 0 0 0];

internalField   nonuniform List<vector> 
320
(
(-6.1064e-09 -8.72809e-06 2.0248e-05)
(-4.09687e-06 -8.46923e-06 -1.14284e-05)
(-1.64314e-05 -8.48782e-06 -8.67303e-06)
(3.09964e-06 1.53663e-05 -1.3782e-05)
(0.000704313 0.00014525 -0.0001317)
(0.000512009 -9.37771e-06 6.65209e-05)
(0.000469686 -3.94779e-05 0.000182588)
(0.000153129 -8.00732e-05 1.97318e-05)
(0.00026322 -0.000134759 3.26743e-05)
(-4.06955e-06 -0.00013137 -9.65142e-05)
(1.30359e-05 -0.000231143 -6.16001e-05)
(0.000201373 -0.000146459 -1.05469e-05)
(-0.000140421 8.53755e-05 -0.000261566)
(2.34677e-05 -0.000471139 -5.306e-05)
(-0.000122462 0.000212563 0.000300584)
(8.00022e-05 0.000331545 -0.000179805)
(9.91761e-06 -3.28906e-07 2.94728e-05)
(1.48033e-05 9.55311e-06 2.54979e-05)
(2.60124e-05 7.13213e-06 9.19648e-07)
(-3.98402e-06 4.62295e-06 -1.02009e-05)
(1.42321e-05 -1.22552e-05 4.63859e-06)
(7.54305e-06 8.442e-06 3.01762e-05)
(-1.33554e-05 -7.51109e-07 2.31784e-05)
(2.91687e-06 -2.12483e-05 -1.33044e-05)
(-2.11626e-05 1.63025e-05 3.95973e-05)
(-1.03231e-05 -3.30702e-05 3.41349e-05)
(-2.48362e-05 -2.61503e-06 -3.38196e-05)
(-1.59163e-05 5.35588e-06 1.68471e-05)
(-4.86853e-06 2.30487e-06 1.64096e-05)
(-6.9968e-06 -2.74863e-06 2.21219e-05)
(-1.65898e-05 2.2817e-06 5.66008e-07)
(-7.77918e-07 1.36891e-06 -8.84429e-06)
(-7.70758e-06 3.90627e-06 6.05955e-06)
(-4.19895e-06 -9.29932e-06 1.82931e-05)
(8.29616e-06 -2.45047e-06 1.36017e-05)
(-1.47464e-06 8.58835e-06 -1.0625e-05)
(9.29727e-06 -1.30942e-05 2.48289e-05)
(7.69446e-06 1.6834e-05 2.44943e-05)
(1.30047e-05 3.08974e-06 -1.74839e-05)
(5.55265e-06 -7.70835e-07 1.27713e-05)
(-6.92114e-07 -6.07379e-06 6.46085e-06)
(-2.77353e-06 -5.81173e-06 -4.74262e-06)
(-9.66434e-06 -5.1057e-06 -9.02209e-07)
(2.13919e-06 8.86073e-06 -6.22475e-06)
(-2.58094e-06 6.60152e-07 5.14582e-06)
(-5.09653e-06 -2.59218e-06 7.11902e-07)
(-9.77419e-06 1.10285e-06 5.54662e-07)
(-5.46644e-07 1.16181e-06 2.40048e-06)
(-3.95692e-06 3.47094e-06 1.73609e-06)
(-2.12678e-06 -5.14697e-06 5.59319e-06)
(5.80308e-06 -1.12812e-06 4.77927e-06)
(-1.3354e-06 5.48114e-06 -4.07713e-08)
(4.23015e-06 -7.90552e-06 6.03724e-06)
(3.79322e-06 9.50358e-06 4.83699e-06)
(6.90267e-06 1.27167e-06 -5.31716e-06)
(3.59406e-06 -7.66907e-07 2.44891e-06)
(-0.000144949 9.9934e-05 -9.29696e-05)
(0.000476855 0.00015898 -0.000256944)
(0.000384691 0.000136739 4.49909e-05)
(0.000281264 0.000343557 -2.64036e-05)
(0.000234833 0.000451657 0.000316327)
(0.00022813 -0.000138266 0.000431675)
(0.000104924 -0.000100446 0.000368319)
(0.000192788 -0.00056786 0.000435343)
(6.87821e-05 -0.000706392 -6.40523e-05)
(-0.000143765 -8.12027e-05 -7.95788e-05)
(-0.000212794 4.2878e-05 0.00016831)
(0.000208367 -0.000168452 0.000284366)
(0.000282481 -2.99113e-05 1.49671e-06)
(5.77995e-05 0.000104778 0.000181718)
(0.000522972 -0.000330345 9.90943e-05)
(1.85533e-05 -0.000181846 0.00016717)
(0.000315175 7.16082e-05 0.000205658)
(0.000409541 0.000295943 6.03348e-05)
(0.00028089 0.000122612 4.00466e-05)
(0.000311362 0.000292173 7.56675e-05)
(-2.46369e-05 -1.38132e-05 -1.97242e-05)
(1.55474e-07 1.73487e-06 2.12644e-05)
(2.80945e-06 -1.59903e-05 1.35517e-05)
(5.27107e-06 -3.24182e-06 -1.42188e-06)
(-7.19506e-06 2.76129e-05 -4.43254e-05)
(1.49314e-05 2.9774e-07 -6.38762e-05)
(-1.40205e-05 4.36292e-06 -4.08042e-05)
(-1.4955e-05 -2.29847e-05 -7.68426e-05)
(2.3732e-06 -3.74602e-05 4.429e-06)
(-4.86012e-06 -1.15866e-05 1.58253e-05)
(-2.2478e-05 1.17922e-05 -3.60826e-05)
(2.41783e-05 -2.47702e-06 -5.18312e-05)
(1.16214e-05 -8.98703e-06 4.27441e-05)
(-1.81161e-05 -2.79134e-07 -3.64855e-05)
(1.27989e-05 -3.19769e-05 -2.08091e-05)
(-3.06007e-05 -1.34554e-05 -3.38292e-05)
(5.86264e-06 7.70207e-06 -4.55907e-05)
(1.76775e-05 1.93494e-05 -1.00258e-05)
(4.3235e-06 -1.28795e-07 2.40863e-06)
(2.06696e-05 8.61621e-06 -3.2255e-05)
(1.03478e-05 1.02545e-05 -1.18e-05)
(1.97149e-06 4.76405e-07 1.09937e-05)
(-4.07391e-06 1.04269e-05 1.27004e-05)
(-5.97571e-06 2.07484e-06 -4.29746e-06)
(3.44919e-06 -1.5458e-05 -2.8337e-05)
(-5.67968e-06 2.45107e-06 -2.9849e-05)
(7.94841e-06 4.13476e-07 -2.39252e-05)
(8.11513e-06 1.19479e-05 -3.68855e-05)
(-1.39474e-06 1.62264e-05 3.38638e-06)
(4.76851e-06 3.09806e-06 1.15668e-05)
(1.09697e-05 -9.78612e-06 -2.48378e-05)
(-1.47885e-05 -1.17544e-06 -2.88302e-05)
(-5.78529e-06 3.76501e-06 2.94277e-05)
(1.19128e-05 -4.03978e-07 -2.32551e-05)
(-6.16888e-06 1.32435e-05 -1.60071e-05)
(1.42385e-05 4.37103e-06 -1.81994e-05)
(-3.09767e-08 -4.78209e-06 -2.62123e-05)
(-5.68617e-06 -1.08709e-05 -4.10128e-06)
(1.04998e-06 -3.52341e-07 1.53765e-06)
(-1.42345e-05 -4.01521e-06 -2.21601e-05)
(5.81862e-06 6.0246e-06 -4.92052e-06)
(1.13321e-06 1.40228e-06 3.89815e-06)
(-3.21618e-06 6.51634e-06 -1.96191e-06)
(-4.32512e-06 1.74532e-06 1.17945e-06)
(2.89919e-06 -8.16144e-06 -7.43678e-06)
(-3.21439e-06 1.18633e-06 -1.19033e-05)
(4.19504e-06 5.71481e-09 -6.26882e-06)
(4.82406e-06 7.28067e-06 -1.23728e-05)
(-1.01913e-06 9.80866e-06 1.19815e-06)
(2.98675e-06 1.96383e-06 -8.62947e-07)
(6.98006e-06 -5.6204e-06 -6.00413e-06)
(-8.48919e-06 -2.69194e-07 -9.35924e-06)
(-2.88666e-06 3.21812e-06 5.83011e-06)
(6.84081e-06 -1.29455e-06 -5.7179e-06)
(-3.89066e-06 7.21168e-06 -3.52574e-06)
(8.84875e-06 2.43368e-06 -6.15613e-06)
(-4.81963e-08 -2.43326e-06 -6.58889e-06)
(-3.07159e-06 -6.27315e-06 -2.29289e-06)
(1.59128e-06 -4.23866e-07 7.86902e-07)
(-7.7647e-06 -2.69584e-06 -3.88242e-06)
(-8.51984e-07 -2.9614e-06 1.66872e-06)
(1.31158e-07 -1.71448e-06 -1.50973e-06)
(-5.42839e-06 -2.10099e-06 -1.07193e-06)
(2.44874e-07 5.26326e-06 -1.46719e-06)
(-3.06588e-06 9.52794e-09 2.18309e-06)
(-2.78867e-06 4.33186e-07 2.67008e-06)
(-4.09397e-06 1.22388e-06 -3.47043e-07)
(4.76655e-07 7.21353e-08 -1.15836e-06)
(-1.86919e-06 2.38839e-07 6.95126e-07)
(-7.8998e-07 -2.32958e-06 1.75133e-06)
(2.471e-06 2.73046e-07 1.7764e-06)
(-6.01288e-07 1.39277e-06 -1.39024e-06)
(3.15342e-06 -2.88247e-06 2.63971e-06)
(1.93359e-06 5.01253e-06 2.83055e-06)
(4.20929e-06 6.48047e-07 -1.54357e-06)
(1.72056e-06 3.77632e-07 2.09719e-06)
(2.88706e-06 3.1281e-06 -8.72517e-07)
(-9.07532e-07 -4.02999e-08 7.55445e-07)
(-1.0832e-06 2.39114e-06 1.28458e-06)
(-4.2075e-07 -2.73493e-07 -1.17906e-06)
(3.29247e-08 -3.68617e-06 -2.56816e-06)
(-2.28724e-06 1.33059e-06 -3.06808e-06)
(6.0957e-07 5.10306e-07 -2.71048e-06)
(6.06486e-07 3.99662e-06 -3.79213e-06)
(-2.30248e-07 4.41164e-06 3.0865e-07)
(6.61627e-07 4.12039e-07 1.41821e-06)
(2.26944e-06 -3.27917e-06 -2.50918e-06)
(-3.47748e-06 -1.11902e-07 -3.1679e-06)
(-2.27286e-06 7.8919e-07 2.71283e-06)
(2.47746e-06 2.77246e-07 -2.46353e-06)
(-2.08735e-06 3.51676e-06 -1.56403e-06)
(3.5421e-06 8.48918e-07 -2.51501e-06)
(-7.03548e-07 -1.04515e-06 -2.98103e-06)
(-1.41057e-06 -3.17445e-06 -1.10959e-06)
(-9.06057e-07 -1.3127e-06 -1.34944e-07)
(-4.56744e-06 -1.45158e-06 -2.29803e-06)
(0.000367991 0.000212517 -0.000196242)
(0.000213284 8.01153e-05 -0.000125543)
(0.000669938 -0.000145381 -3.56068e-05)
(0.000328128 -0.000112804 0.000134333)
(0.000157202 -8.77489e-05 -3.81451e-05)
(0.0002163 1.22292e-05 2.68139e-05)
(-0.000482948 -7.00636e-05 -0.000198871)
(-0.000568117 0.000353526 -8.0395e-05)
(-0.000580291 -0.000168105 1.78134e-05)
(-0.000597236 -0.000113682 -0.000135953)
(-0.000594568 -0.000170137 -7.49582e-05)
(-0.00020485 -0.000466693 -6.99393e-05)
(-0.000353724 4.55254e-05 -0.000226161)
(-7.79049e-05 -0.000134832 -3.46469e-05)
(7.27921e-05 -0.000411919 -0.000109469)
(8.2897e-05 -0.000351082 -9.20869e-05)
(8.55864e-05 -0.000704955 -0.000299294)
(-7.16762e-05 -0.000230228 -5.84177e-05)
(0.000157336 -0.000352947 5.27013e-05)
(0.000451 -0.000328454 -0.000194434)
(6.83501e-05 -0.000281982 -0.000335537)
(0.000114688 -0.00032836 -0.000105736)
(6.9516e-05 -0.000122275 2.17981e-05)
(0.000173751 -8.03521e-05 -4.03932e-05)
(-8.30345e-05 0.000178608 -6.40064e-06)
(5.54548e-05 0.000230929 -0.000122417)
(2.706e-05 0.000190089 -0.000111919)
(-4.59364e-05 0.000139371 -0.000174397)
(1.76249e-05 1.78799e-05 1.53287e-05)
(-9.03754e-06 5.50729e-07 -2.2559e-05)
(1.20947e-05 2.28234e-06 1.72996e-05)
(1.97819e-05 -1.13904e-05 -3.99229e-05)
(-1.75887e-05 -1.46906e-05 -2.53202e-05)
(-2.79862e-05 1.14671e-05 1.5847e-05)
(-3.35018e-05 6.10265e-06 4.90008e-05)
(-3.88654e-05 3.96694e-05 2.29137e-05)
(-2.14444e-05 3.05162e-07 -2.65372e-05)
(-3.8858e-05 -2.52586e-05 5.20284e-05)
(-5.1056e-05 4.13517e-06 6.89396e-05)
(-1.17446e-05 1.85356e-05 1.45207e-05)
(4.93203e-06 1.77031e-05 -6.48406e-06)
(1.75433e-05 -4.7043e-06 -2.16275e-05)
(8.27976e-06 -1.73111e-05 2.77508e-05)
(-1.56879e-06 -1.78441e-05 -3.68116e-06)
(7.42242e-06 -3.82197e-05 2.47647e-05)
(7.19861e-07 -1.09055e-06 1.05754e-05)
(1.82567e-06 -2.73176e-05 1.76169e-05)
(9.78167e-06 -2.10315e-05 2.37857e-05)
(8.94718e-06 -2.42994e-05 5.04596e-05)
(5.67871e-06 -4.06617e-05 -9.19142e-06)
(2.63788e-07 9.36537e-06 -3.69804e-05)
(2.84981e-05 1.52037e-05 3.19093e-05)
(7.76866e-06 -4.15225e-06 -2.47244e-06)
(4.99956e-06 8.3507e-06 -1.02338e-05)
(1.62454e-05 -5.12148e-07 3.1281e-05)
(-4.1273e-06 -2.49336e-06 3.04457e-05)
(-1.65671e-05 -9.40907e-06 8.48858e-06)
(1.06284e-06 -4.93299e-08 -1.37637e-05)
(-5.04136e-06 -1.25074e-07 3.83121e-06)
(-8.59564e-06 6.96476e-06 -2.19126e-05)
(9.29249e-06 4.39729e-06 -1.88228e-05)
(9.74954e-06 -8.30372e-06 1.39786e-05)
(1.20374e-05 -1.90216e-06 2.42122e-05)
(1.84389e-05 -1.33507e-05 1.08337e-05)
(1.41448e-05 6.78106e-06 -1.43715e-05)
(2.27692e-05 1.51657e-05 2.61279e-05)
(2.8894e-05 -5.43686e-06 4.69853e-05)
(5.38775e-06 -1.26513e-05 4.45349e-06)
(1.86292e-08 -1.05777e-05 -2.05687e-06)
(-8.28493e-06 -2.98721e-07 -1.62372e-05)
(-2.18564e-06 8.0027e-06 1.26255e-05)
(7.38312e-08 6.65455e-06 -5.67619e-06)
(-5.25434e-06 1.88978e-05 1.20157e-05)
(-2.24568e-06 -2.8788e-06 4.41509e-06)
(-1.80596e-07 1.53582e-05 7.31579e-06)
(-2.82917e-06 9.21434e-06 9.80471e-06)
(-5.66628e-06 1.20195e-05 2.46564e-05)
(-2.86144e-06 1.66636e-05 -7.62918e-06)
(-2.24589e-06 -6.95441e-06 -2.22087e-05)
(-1.41873e-05 -3.08997e-06 1.92727e-05)
(-5.55069e-07 4.17032e-06 -1.56435e-06)
(8.5308e-07 -9.32117e-06 -1.06747e-05)
(-9.52363e-06 -7.36354e-06 2.19533e-05)
(-2.49602e-06 -2.38168e-06 2.16008e-05)
(-8.7803e-06 -5.94261e-06 2.88761e-06)
(-5.03953e-07 -2.80199e-08 -5.4942e-06)
(-3.07286e-06 3.79899e-07 3.95354e-06)
(-5.43976e-06 4.1781e-06 -7.62665e-06)
(4.90344e-06 2.60344e-06 -1.79185e-06)
(6.54105e-06 -5.05042e-06 -1.95043e-07)
(6.70138e-06 -1.03866e-06 6.84213e-06)
(1.07132e-05 -8.00993e-06 4.69803e-06)
(6.85279e-06 2.39862e-06 -2.97995e-06)
(1.19254e-05 9.19952e-06 9.44128e-06)
(1.60461e-05 -1.74318e-06 8.99247e-06)
(2.90189e-06 -6.98383e-06 4.27709e-06)
(-7.4619e-07 -6.13428e-06 -1.60809e-06)
(-5.19606e-06 -7.23117e-07 -2.77827e-06)
(-1.53312e-06 3.72677e-06 3.47352e-06)
(1.06196e-07 3.7967e-06 -1.07089e-06)
(-3.03529e-06 1.06004e-05 3.60283e-06)
(-3.0997e-07 -1.65693e-06 2.65932e-06)
(2.36628e-07 8.02375e-06 5.15011e-06)
(-2.32862e-06 4.94709e-06 3.34375e-06)
(-3.39648e-06 6.46166e-06 7.33574e-06)
(-1.88193e-06 9.88267e-06 -1.44107e-06)
(-7.25538e-07 -4.06332e-06 -4.72832e-06)
(-8.37858e-06 -2.41635e-06 4.0216e-06)
(-7.08596e-07 2.91105e-06 -1.79444e-06)
(8.05415e-07 -5.46003e-06 3.4597e-08)
(-5.74481e-06 -4.34723e-06 4.37985e-06)
(-8.46037e-07 -1.04387e-06 5.77093e-06)
(-5.56985e-06 -2.64334e-06 9.56605e-07)
(3.09275e-07 -1.77727e-07 -1.21374e-06)
(-2.32893e-06 -6.55723e-08 3.97954e-07)
(-2.55548e-06 1.24367e-06 -1.61181e-06)
(1.98334e-06 1.40673e-06 -2.36232e-06)
(9.9064e-07 -1.16044e-06 1.3386e-06)
(4.88242e-06 4.48991e-07 3.0744e-06)
(6.49186e-06 -3.55135e-06 1.6928e-06)
(5.01725e-06 1.80052e-06 -1.36399e-06)
(6.96179e-06 2.9658e-06 2.19306e-06)
(7.4727e-06 -6.00982e-07 4.73743e-06)
(2.3642e-06 -2.2744e-06 8.1213e-07)
(7.86704e-07 -3.50598e-06 -9.68341e-08)
(-1.5538e-06 1.0025e-06 -1.72275e-06)
(-4.5707e-07 3.34303e-06 1.71719e-06)
(-2.66067e-07 2.12121e-06 -6.75171e-07)
(-1.59734e-06 5.8785e-06 1.54668e-06)
(-9.90417e-07 2.41086e-07 8.24244e-07)
(4.25858e-07 4.59607e-06 9.88195e-07)
(-6.13258e-07 2.29267e-06 1.0866e-06)
(-1.79496e-06 3.12195e-06 2.69421e-06)
(-9.65666e-07 4.43258e-06 -6.0068e-07)
(-8.79131e-07 -1.49871e-06 -2.64615e-06)
(-3.31326e-06 5.99168e-08 1.98134e-06)
(2.25938e-07 4.45538e-07 -3.21999e-07)
(3.06716e-07 -2.77926e-06 -6.72096e-07)
(-1.24064e-06 -1.53574e-06 2.20529e-06)
(2.22543e-07 -1.18017e-06 2.15262e-06)
(0.000135857 0.000238803 -6.62429e-05)
(0.000199669 0.000105969 0.000114979)
(0.000598828 5.19419e-05 8.12545e-05)
(0.000191921 -0.000409815 0.000220837)
(4.35281e-06 2.49403e-05 3.76732e-05)
(1.02709e-05 1.61464e-05 -2.81056e-05)
(2.8682e-05 1.13732e-05 -1.72417e-05)
(-5.51301e-06 -3.45067e-05 -3.07476e-05)
)
;

boundaryField
{
    top_fluid_surface
    {
        type            pressureInletOutletVelocity;
        value           nonuniform List<vector> 
64
(
(0 0 -0.0001317)
(0.000512009 -9.37771e-06 6.65209e-05)
(0.000469686 -3.94779e-05 0.000182588)
(0.000153129 -8.00732e-05 1.97318e-05)
(0.00026322 -0.000134759 3.26743e-05)
(0 0 -9.65142e-05)
(0 0 -6.16001e-05)
(0 0 -1.05469e-05)
(0 0 -0.000261566)
(0 0 -5.306e-05)
(-0.000122462 0.000212563 0.000300584)
(0 0 -0.000179805)
(0 0 -9.29696e-05)
(0 0 -0.000256944)
(0.000384691 0.000136739 4.49909e-05)
(0 0 -2.64036e-05)
(0.000234833 0.000451657 0.000316327)
(0.00022813 -0.000138266 0.000431675)
(0.000104924 -0.000100446 0.000368319)
(0.000192788 -0.00056786 0.000435343)
(0 0 -6.40523e-05)
(0 0 -7.95788e-05)
(-0.000212794 4.2878e-05 0.00016831)
(0.000208367 -0.000168452 0.000284366)
(0.000282481 -2.99113e-05 1.49671e-06)
(5.77995e-05 0.000104778 0.000181718)
(0.000522972 -0.000330345 9.90943e-05)
(1.85533e-05 -0.000181846 0.00016717)
(0.000315175 7.16082e-05 0.000205658)
(0.000409541 0.000295943 6.03348e-05)
(0.00028089 0.000122612 4.00466e-05)
(0.000311362 0.000292173 7.56675e-05)
(0 0 -0.000196242)
(0 0 -0.000125543)
(0 0 -3.56068e-05)
(0.000328128 -0.000112804 0.000134333)
(0 0 -3.81451e-05)
(0.0002163 1.22292e-05 2.68139e-05)
(0 0 -0.000198871)
(0 0 -8.0395e-05)
(0 0 1.78134e-05)
(0 0 -0.000135953)
(0 0 -7.49582e-05)
(0 0 -6.99393e-05)
(0 0 -0.000226161)
(0 0 -3.46469e-05)
(0 0 -0.000109469)
(0 0 -9.20869e-05)
(0 0 -0.000299294)
(0 0 -5.84177e-05)
(0.000157336 -0.000352947 5.27013e-05)
(0 0 -0.000194434)
(0 0 -0.000335537)
(0 0 -0.000105736)
(0 0 2.17981e-05)
(0 0 -4.03932e-05)
(0 0 -6.40064e-06)
(0 0 -0.000122417)
(0 0 -0.000111919)
(0 0 -0.000174397)
(0 0 -6.62429e-05)
(0.000199669 0.000105969 0.000114979)
(0.000598828 5.19419e-05 8.12545e-05)
(0.000191921 -0.000409815 0.000220837)
)
;
    }
    bottom_fluid_surface
    {
        type            noSlip;
    }
    lateral_surface_1
    {
        type            noSlip;
    }
    lateral_surface_2
    {
        type            noSlip;
    }
    lateral_surface_3
    {
        type            noSlip;
    }
    lateral_surface_4
    {
        type            noSlip;
    }
}


// ************************************************************************* //
