/*--------------------------------*- C++ -*----------------------------------*\
| =========                 |                                                 |
| \\      /  F ield         | OpenFOAM: The Open Source CFD Toolbox           |
|  \\    /   O peration     | Version:  v1612+                                |
|   \\  /    A nd           | Web:      www.OpenFOAM.com                      |
|    \\/     M anipulation  |                                                 |
\*---------------------------------------------------------------------------*/
FoamFile
{
    version     2.0;
    format      ascii;
    class       surfaceScalarField;
    location    "4.9";
    object      phi;
}
// * * * * * * * * * * * * * * * * * * * * * * * * * * * * * * * * * * * * * //

dimensions      [0 3 -1 0 0 0 0];

internalField   nonuniform List<scalar> 
2916
(
-1.02328e-05
0.129881
-0.129871
-1.06889e-05
0.129883
-0.129883
-1.92394e-06
0.129883
-0.129892
-2.89109e-06
0.129884
-0.129883
-5.54163e-06
0.129883
-0.129881
0.12988
-0.129885
-7.83133e-06
0.22413
-0.0942418
-9.74914e-06
0.22414
-0.0942546
-1.11759e-06
0.224139
-0.094264
-3.32549e-06
0.224139
-0.0942522
-9.33844e-06
0.224138
-0.094249
0.224132
-0.0942616
-1.77738e-07
0.165445
0.0586858
-4.04669e-06
0.165461
0.0586829
-2.1628e-06
0.165457
0.0586795
-6.75373e-06
0.165457
0.0586867
-1.35556e-05
0.165459
0.0586863
0.165449
0.0586694
1.87661e-06
-0.130863
0.296306
-1.37652e-06
-0.130855
0.29632
-4.82602e-06
-0.130856
0.296317
-1.03529e-05
-0.130856
0.296318
-1.04675e-05
-0.130854
0.296313
-0.130857
0.296296
3.47785e-05
-0.626964
0.496066
3.29813e-06
-0.626936
0.496113
-4.72765e-06
-0.626935
0.496087
-7.99871e-06
-0.626934
0.496081
-2.84206e-05
-0.626927
0.496094
-0.626951
0.496065
8.72259e-06
-1.171
0.544023
1.37646e-05
-1.17098
0.544041
7.03924e-06
-1.17096
0.544036
-4.47997e-06
-1.17096
0.544041
-1.52044e-05
-1.17096
0.544045
-1.171
0.544032
-1.88456e-05
-1.61895
0.447969
2.02899e-05
-1.619
0.447976
1.37564e-05
-1.61894
0.44798
-1.11399e-06
-1.61893
0.447985
-3.42165e-06
-1.61895
0.44799
-1.61898
0.447977
-4.62725e-05
-1.8317
0.2128
1.65744e-05
-1.83186
0.212799
1.09135e-05
-1.83175
0.212822
-1.1999e-06
-1.83175
0.212828
1.61334e-05
-1.83179
0.212828
-1.83175
0.21279
7.4308e-05
-1.66698
-0.164792
2.2282e-05
-1.66719
-0.164615
-1.2506e-05
-1.66707
-0.16465
-1.13149e-05
-1.66708
-0.16467
-3.26898e-05
-1.66715
-0.16462
-1.66702
-0.164769
0.000329959
-1.18542
-0.481889
2.35471e-05
-1.18553
-0.481358
-5.99112e-05
-1.18545
-0.481538
-3.36022e-05
-1.1855
-0.481609
-0.00017603
-1.18556
-0.48145
-1.1854
-0.481793
0.000271785
-0.509693
-0.676003
-8.66697e-06
-0.50967
-0.675577
-6.82524e-05
-0.509652
-0.675736
-5.60605e-05
-0.509698
-0.675812
-0.000217642
-0.509714
-0.675684
-0.509653
-0.675963
-0.000107413
-0.509585
-5.66543e-05
-0.50972
-2.44326e-05
-0.509684
-3.99506e-05
-0.509683
-5.94e-05
-0.509694
-0.509713
-0.000102439
1.10348
-1.23325
-4.3207e-05
1.10344
-1.23339
7.44769e-06
1.10344
-1.23338
5.27212e-05
1.10344
-1.23337
0.00010555
1.10344
-1.23338
1.10347
-1.23325
-0.000117242
1.83896
-0.829606
-5.39133e-05
1.83896
-0.829833
-3.51984e-05
1.83899
-0.829832
5.96216e-05
1.83889
-0.829803
0.000184486
1.83888
-0.829812
1.83908
-0.829682
-1.64793e-05
1.26798
0.62968
-0.000109301
1.26834
0.629388
-9.04863e-05
1.26819
0.629455
-3.32845e-05
1.26809
0.629435
-1.67294e-05
1.26817
0.629371
1.26815
0.629577
0.000153877
-0.20112
1.76525
-4.45869e-05
-0.200768
1.76563
-3.96475e-05
-0.200928
1.76543
-2.19209e-05
-0.200924
1.76531
-0.000123213
-0.200815
1.7654
-0.201035
1.76536
0.000563483
-1.12036
1.41474
-2.90864e-05
-1.12024
1.41618
-6.99808e-05
-1.12028
1.41548
1.21401e-05
-1.12026
1.41533
-0.000313247
-1.12022
1.41583
-1.12033
1.41505
0.000213659
-1.43937
0.86282
1.58265e-05
-1.43929
0.863289
-7.34557e-06
-1.43931
0.863089
-2.63557e-06
-1.43931
0.863088
-0.000146229
-1.43928
0.863243
-1.43937
0.862923
0.000123132
-1.45433
0.462807
9.24348e-06
-1.45447
0.463269
-5.43317e-06
-1.45439
0.463074
4.96009e-06
-1.45438
0.463044
-8.22626e-05
-1.45441
0.463209
-1.45439
0.462922
0.000144351
-1.31667
0.0749949
-1.44408e-06
-1.3169
0.0753739
-2.01252e-05
-1.31678
0.0752292
1.71141e-05
-1.31677
0.0751858
-5.74766e-05
-1.31683
0.07532
-1.31674
0.0750775
0.000416231
-1.03861
-0.443272
1.05876e-05
-1.03844
-0.442667
-4.43389e-05
-1.03849
-0.442883
2.27458e-05
-1.03854
-0.442972
-0.000175542
-1.03848
-0.442765
-1.03853
-0.443152
0.000291612
-0.687825
-0.832963
-1.3144e-05
-0.686958
-0.832537
-4.74018e-05
-0.687307
-0.832687
-1.46549e-05
-0.687405
-0.832776
-0.000165238
-0.687155
-0.832628
-0.687568
-0.832923
-0.000332416
-0.398526
-0.96497
-8.29094e-05
-0.397826
-0.964959
-1.39331e-05
-0.398103
-0.965009
-5.58674e-05
-0.398171
-0.965003
2.25026e-05
-0.397942
-0.964975
-0.398356
-0.965152
-0.000392015
-0.907719
-0.000106933
-0.907831
-6.68705e-05
-0.907827
-5.26687e-05
-0.907868
0.000188365
-0.907877
-0.907881
-5.82297e-05
-0.987259
-0.24593
-4.78343e-06
-0.987272
-0.246168
1.40216e-05
-0.987277
-0.246127
3.55935e-05
-0.987264
-0.246129
7.94776e-05
-0.987251
-0.246171
-0.987249
-0.245926
-0.00012274
-1.60501
-0.211731
-3.87336e-05
-1.60512
-0.212066
-1.31107e-05
-1.60513
-0.212001
3.78087e-05
-1.60513
-0.211989
0.000126516
-1.6051
-0.21205
-1.60502
-0.211788
-0.000159143
-2.00483
1.02966
1.34385e-05
-2.00508
1.02918
4.81362e-05
-2.00496
1.02925
9.64766e-05
-2.00501
1.02927
0.000250583
-2.00499
1.0291
-2.00451
1.02932
0.000320864
-3.35398
3.11408
0.000227941
-3.35562
3.11626
3.64369e-05
-3.35451
3.11517
6.42698e-05
-3.35457
3.11484
4.10437e-05
-3.35504
3.11548
-3.35364
3.11454
0.00372722
-3.59455
1.65159
-0.000257685
-3.59454
1.65909
-0.000477195
-3.59454
1.65573
3.38396e-05
-3.59459
1.65485
-0.00221975
-3.59449
1.65753
-3.59444
1.65362
0.00117894
-2.58386
-0.149052
-3.45746e-05
-2.58372
-0.146321
-0.000131458
-2.5838
-0.14755
2.1492e-05
-2.58385
-0.14781
-0.000696933
-2.58375
-0.146781
-2.58386
-0.148348
0.000387456
-1.69358
-0.427859
1.87068e-05
-1.69325
-0.426836
-2.84132e-05
-1.6934
-0.427282
2.68491e-05
-1.69347
-0.427391
-0.000205997
-1.69333
-0.426978
-1.69354
-0.427607
-2.32286e-05
-1.09362
-0.52494
-1.19958e-05
-1.09309
-0.524798
-3.25753e-05
-1.09332
-0.524828
1.32691e-06
-1.09341
-0.524903
2.30185e-05
-1.09323
-0.524797
-1.09354
-0.524898
-0.00111323
-0.400342
-1.13544
-8.38352e-05
-0.399523
-1.13726
6.71625e-05
-0.399921
-1.13644
-8.26497e-05
-0.399937
-1.1363
0.00052789
-0.39966
-1.13695
-0.400283
-1.13588
-0.00194717
0.300427
-1.53179
-0.000137684
0.301235
-1.5351
0.000233779
0.300743
-1.53372
-0.000100788
0.301054
-1.53343
0.000750198
0.301319
-1.53446
0.300154
-1.53261
-0.00172641
-0.0376312
-0.625185
-0.000109279
-0.0374294
-0.627911
0.000183895
-0.0376402
-0.626918
1.38199e-05
-0.0373482
-0.626431
0.000980695
-0.0378745
-0.626747
-0.0374525
-0.626563
0.000330447
-0.945681
5.83592e-05
-0.944988
1.08655e-05
-0.945419
-8.16057e-06
-0.945196
-0.000458191
-0.945302
-0.945791
-5.45742e-05
-0.690449
0.444574
-7.71009e-06
-0.690517
0.444306
-3.29778e-06
-0.690488
0.444358
-3.91939e-06
-0.690482
0.444354
2.99506e-05
-0.6905
0.444296
-0.690468
0.444576
-3.18181e-05
-1.44479
0.542648
-7.97795e-06
-1.44496
0.542361
-1.24614e-05
-1.4449
0.542421
-3.02754e-06
-1.44491
0.542427
7.61459e-06
-1.44492
0.542362
-1.44487
0.54262
0.000418718
-1.91628
1.50073
8.47005e-05
-1.91563
1.50018
-2.2988e-05
-1.91586
1.50031
8.54351e-05
-1.91615
1.50041
-0.000112834
-1.91582
1.50021
-1.91617
1.50051
0.000309219
-2.57641
3.77391
1.90856e-05
-2.5745
3.77543
-0.000110965
-2.57512
3.77457
-1.26105e-07
-2.5759
3.77448
-0.000101549
-2.57514
3.7749
-2.57594
3.77421
0.000658301
-3.66118
2.73569
-0.000272659
-3.65865
2.74416
-0.000542245
-3.65958
2.74046
-4.31994e-05
-3.66049
2.73894
-0.000220524
-3.65959
2.74216
-3.66067
2.73813
-0.000696586
-3.44746
-0.362072
-0.000233253
-3.44542
-0.360006
-0.000158944
-3.44636
-0.360848
-3.65836e-05
-3.44684
-0.361584
0.000390392
-3.44608
-0.360724
-3.44715
-0.361478
-0.00209195
-2.7247
-1.14853
-0.000195584
-2.72127
-1.15289
2.23253e-05
-2.7228
-1.15106
-0.000111004
-2.72333
-1.15077
0.00116322
-2.72217
-1.15216
-2.72406
-1.14954
-0.00300825
-1.18277
-2.06387
-0.000284553
-1.18108
-2.06771
-7.25921e-05
-1.18124
-2.06661
-0.000415399
-1.1829
-2.06499
0.0014768
-1.18277
-2.06609
-1.18299
-2.06449
-0.00302242
1.01292
-3.3281
-0.000465887
1.01104
-3.33193
-0.00113052
1.01301
-3.33001
-0.00123593
1.01104
-3.33015
0.00121064
1.00969
-3.33186
1.01186
-3.32953
-0.000611294
2.27444
-2.79269
1.88648e-05
2.27067
-2.79537
0.00108066
2.27233
-2.7941
0.000467742
2.2727
-2.79449
0.000755521
2.27095
-2.79602
2.27292
-2.79292
-0.000782933
0.730527
0.919509
3.75847e-05
0.724413
0.917522
-0.000148371
0.727293
0.918304
0.000133495
0.727705
0.918291
0.00534412
0.721622
0.917375
0.732269
0.91942
0.00284683
-0.218002
0.000301535
-0.218034
0.000256821
-0.21808
0.000854647
-0.218087
-0.00389869
-0.218924
-0.217422
-0.0102136
-1.6759
1.68611
0.0194845
-1.71776
1.68806
-0.000967622
-1.66057
1.68102
0.00914928
-1.68976
1.67964
0.123836
-1.80014
1.68545
-1.53547
1.6593
-0.0200775
-4.05686
2.40104
0.0381879
-4.17323
2.39721
-0.0101624
-4.02306
2.41083
0.0148606
-4.10866
2.39388
0.22875
-4.37207
2.35805
-3.73137
2.42465
-0.0239084
-6.61415
2.5812
0.0423195
-6.78372
2.54426
-0.0465387
-6.58909
2.65489
-0.00552356
-6.70962
2.55994
0.313687
-7.02134
2.33005
-6.25312
2.83543
-0.00372274
-7.94872
1.33829
0.0368957
-8.11932
1.29498
-0.032719
-7.98948
1.47001
-0.00657789
-8.03287
1.29711
0.235951
-8.2093
0.945431
-7.74093
1.72377
0.0242776
-7.72933
-0.243667
0.0481008
-7.88624
-0.256903
0.0916953
-7.78896
-0.244118
0.0600785
-7.7952
-0.206053
-0.0277602
-7.91009
-0.211372
-7.55703
-0.211667
0.0442584
-6.8616
-0.911981
0.0863912
-6.9768
-0.951571
0.190415
-6.87445
-1.01854
0.119245
-6.91726
-0.806769
-0.125249
-7.09418
-0.571418
-6.6037
-1.07858
0.0539192
-6.08431
-0.831212
0.104371
-6.11658
-0.910668
0.251107
-6.02012
-1.00106
0.19156
-6.06973
-0.78798
-0.231724
-6.21223
-0.458663
-5.7496
-1.08582
0.0213492
-4.91405
-1.19161
0.0577875
-4.91809
-1.23494
0.184836
-4.8732
-1.27396
0.16945
-4.96947
-1.08488
-0.244303
-5.19937
-0.599103
-4.73136
-1.26255
-0.0339768
-2.2038
-2.67627
-0.0190929
-2.22506
-2.70791
0.0543826
-2.23773
-2.70895
-0.0778161
-2.16041
-2.67685
-0.144248
-2.35407
-2.77888
-2.21324
-2.66237
-0.0268355
0.885276
-3.06225
0.0238916
0.818682
-3.09447
0.366328
0.544616
-3.12479
-0.00936398
1.23276
-3.01748
-0.694486
1.44906
-3.118
0.101785
-3.00951
0.0471807
2.69843
-1.86034
0.123249
2.67396
-1.93134
0.454868
2.3447
-2.1317
0.270619
2.9069
-1.48989
-0.634069
2.98847
-0.634723
1.7102
-2.24248
0.109498
2.58893
0.279997
2.50346
0.431737
2.19296
0.22903
3.10961
-0.734433
3.95194
0.975763
-0.0149557
-1.53057
3.23164
0.0109743
-1.5745
3.23663
-0.0135723
-1.52325
3.22882
0.00727652
-1.57327
3.23206
0.135818
-1.68853
3.24544
-1.40797
3.20309
-0.0338265
-3.33101
4.2353
-0.00202196
-3.44949
4.2404
-0.0314352
-3.3269
4.2439
0.000353254
-3.45484
4.24367
0.156416
-3.72568
4.23913
-3.06353
4.23663
-0.0385504
-4.95028
4.23903
-0.0679061
-5.09968
4.22381
-0.0664927
-4.97203
4.2986
-0.0579975
-5.14387
4.24047
-0.0875173
-5.50468
4.13857
-4.74818
4.43256
-0.01844
-5.74981
2.15626
-0.114141
-5.84537
2.13636
-0.0917335
-5.75841
2.23399
-0.0871475
-5.99493
2.14358
-0.265948
-6.42771
2.04726
-5.7087
2.41834
0.0318851
-5.49555
-0.529814
-0.00175215
-5.52952
-0.539111
-0.0963103
-5.40927
-0.4987
-0.0477589
-5.77927
-0.470267
0.127284
-6.50411
-0.310014
-5.41367
-0.379411
0.0897117
-4.47626
-2.02099
0.0981798
-4.4441
-2.04546
0.0641507
-4.2554
-2.13839
0.0762497
-4.64875
-1.94939
0.153363
-5.6122
-1.54044
-4.08549
-2.25341
0.0649414
-4.28878
-1.08363
0.0876899
-4.23899
-1.13853
0.177958
-4.10868
-1.23805
0.228003
-4.38818
-1.0986
-0.163612
-5.11704
-0.562212
-3.9477
-1.38722
-0.0121341
-4.21847
-1.24979
0.00602806
-4.20751
-1.28458
0.078318
-4.12807
-1.32686
0.0644057
-4.34902
-1.11013
-0.192122
-4.91805
-0.541567
-4.04778
-1.35459
-0.0177017
-3.53281
-3.34422
-0.0126078
-3.5322
-3.38831
0.0395799
-3.47811
-3.4111
0.0104743
-3.60667
-3.3901
-0.16919
-3.74597
-3.7713
-3.42816
-3.45118
-0.025668
-2.51086
-4.05853
-0.0579293
-2.52432
-4.07009
-0.046508
-2.52665
-4.08767
-0.0402338
-2.59991
-4.03052
-0.125966
-2.61472
-4.16352
-2.51363
-4.05
0.0362922
-1.67134
-2.73615
0.0393947
-1.67397
-2.7848
0.136413
-1.84644
-2.90893
0.165592
-1.63358
-2.4854
-0.00575736
-1.44678
-1.63131
-1.73941
-3.02246
0.398482
0.519115
0.825441
0.402535
1.24672
-0.0747594
1.51146
1.21129
-0.199495
4.21611
-0.963141
-0.0102528
-0.446388
3.68828
-0.00150626
-0.464096
3.69198
-0.0144167
-0.446884
3.68861
-0.000516716
-0.473323
3.69148
0.0664493
-0.523673
3.70214
-0.406061
3.6756
-0.0271297
-0.633083
4.44912
-0.0133815
-0.696283
4.45884
-0.0360566
-0.632812
4.4525
-0.00213766
-0.728299
4.46472
0.106397
-0.878178
4.4851
-0.49005
4.42702
-0.0397224
-0.970383
4.61605
-0.0715365
-1.05642
4.61575
-0.0492362
-1.00301
4.64649
-0.0538003
-1.11324
4.62997
-0.108196
-1.28777
4.60256
-0.861084
4.6954
-0.048787
-1.53232
2.76698
-0.099887
-1.61357
2.74461
-0.0915544
-1.5949
2.81755
-0.122271
-1.68923
2.75029
-0.16601
-1.90206
2.7053
-1.55231
2.94355
-0.029786
-1.58494
-0.44741
-0.0606786
-1.64989
-0.471892
-0.10724
-1.62365
-0.423385
-0.126416
-1.6791
-0.46122
0.0200797
-1.90077
-0.4578
-1.58183
-0.32981
-0.00243477
-1.78415
-1.81935
-0.0423846
-1.8219
-1.83351
-0.181865
-1.7973
-1.82527
-0.141099
-1.80714
-1.86212
0.250322
-1.9721
-1.86054
-1.77561
-1.8093
0.00288902
-1.25468
-1.61599
-0.0682606
-1.26506
-1.62422
-0.230396
-1.24304
-1.63017
-0.204936
-1.29096
-1.64024
0.295461
-1.44963
-1.58508
-1.22133
-1.64604
-0.00624218
-1.09958
-1.39866
-0.0577316
-1.09698
-1.40118
-0.152974
-1.06979
-1.40488
-0.159308
-1.09041
-1.30434
0.160948
-1.12998
-1.18148
-1.01673
-1.39824
-0.0134274
-2.15008
-2.2803
-0.0234065
-2.16174
-2.31358
-0.00230233
-2.15726
-2.34473
0.0431728
-2.15282
-2.37316
-0.140302
-2.15051
-2.5673
-2.15819
-2.45002
-0.0340912
-2.28308
-3.89144
-0.0864842
-2.29022
-3.88922
-0.170775
-2.264
-3.89665
-0.107369
-2.42574
-3.82101
-0.00682459
-2.92576
-3.48881
-2.32641
-3.88861
-0.0371736
-1.58123
-3.40083
-0.13847
-1.56835
-3.40537
-0.401402
-1.49747
-3.41252
-0.322686
-1.68788
-3.30197
0.461012
-2.33647
-3.0043
-1.50756
-3.3803
0.00290096
-1.06501
-0.0480745
-1.11484
-0.376664
-1.24364
0.0726868
-0.925939
1.15502
0.797303
-1.31569
-0.00468318
0.218432
3.47453
-0.00410379
0.215127
3.47627
-0.00754565
0.216134
3.47592
-0.00386019
0.210767
3.47703
0.0159238
0.200734
3.48162
0.219497
3.47203
-0.0134885
0.878321
3.80272
-0.0103948
0.86272
3.80815
-0.0250214
0.878776
3.80449
-0.00579852
0.844288
3.81198
0.0548759
0.798667
3.82649
0.911852
3.78954
-0.0228343
1.75838
3.75882
-0.0368244
1.72796
3.7645
-0.035394
1.75529
3.76855
-0.02688
1.68775
3.778
-0.0187377
1.60757
3.78552
1.81629
3.77223
-0.0211328
2.19489
2.3516
-0.0544411
2.16153
2.34435
-0.0317796
2.18105
2.36913
-0.0523787
2.10701
2.35163
-0.123619
2.03655
2.34755
2.22112
2.4151
-0.00174492
1.47421
0.275019
-0.0265297
1.44617
0.268259
-0.012112
1.4633
0.279944
-0.0425656
1.40977
0.266472
-0.111971
1.37954
0.268622
1.48308
0.296256
0.0174289
0.830698
-1.19326
0.0161795
0.813531
-1.19963
0.0317045
0.817552
-1.19504
4.2261e-05
0.784383
-1.20507
-0.0554958
0.771648
-1.19711
0.812912
-1.19462
0.0106135
0.703769
-1.49968
0.00958282
0.6923
-1.50196
0.0121277
0.68406
-1.49923
-0.0126027
0.66097
-1.4921
-0.0112299
0.648407
-1.46321
0.658081
-1.50244
-0.0247619
0.776043
-1.44617
-0.0530543
0.759614
-1.4402
-0.109681
0.768081
-1.43227
-0.113445
0.770091
-1.4097
0.074019
0.639433
-1.35997
0.753262
-1.4194
-0.00441884
-0.189426
-1.31041
-0.0157509
-0.209899
-1.33273
-0.0407138
-0.211134
-1.34055
-0.0305399
-0.251558
-1.36169
0.0494155
-0.658142
-1.34968
-0.253576
-1.39377
-0.0308711
-1.57527
-2.47472
-0.0645504
-1.60478
-2.46066
-0.0920679
-1.64714
-2.43313
-0.0667404
-1.60925
-2.48865
0.0237695
-1.83745
-2.40001
-1.70214
-2.41629
-0.0365573
-1.29523
-3.64431
-0.107408
-1.30955
-3.62975
-0.232514
-1.33017
-3.60438
-0.163743
-1.38424
-3.59575
0.114789
-1.71572
-3.40457
-1.40628
-3.56136
-0.0443935
-2.31585
-0.161926
-2.30686
-0.449854
-2.28588
-0.554456
-2.20558
0.510325
-1.98319
-2.21165
1.37468e-05
0.721181
-0.276619
-1.01114e-05
0.721017
-0.276684
-2.14904e-05
0.721046
-0.276674
-2.79361e-05
0.721046
-0.276684
-4.52377e-05
0.721014
-0.276699
0.721186
-0.276652
3.35354e-05
0.942014
-0.220864
4.95978e-06
0.941932
-0.220885
-1.39153e-05
0.941946
-0.220881
-2.68516e-05
0.94195
-0.22089
-5.32922e-05
0.941937
-0.220896
0.942022
-0.22089
3.16613e-06
0.00805629
-1.36059e-06
0.00805946
-5.07776e-06
0.00805961
-7.30842e-06
0.00805695
-8.69695e-06
0.00805656
0.00804972
-0.000103118
0.913502
-0.647366
-4.92165e-05
0.913368
-0.647744
-5.2907e-05
0.91339
-0.647639
-5.20109e-05
0.913389
-0.647644
-1.70866e-05
0.913363
-0.647732
0.913505
-0.647553
-6.38487e-05
1.06539
-0.372686
-3.22115e-05
1.06533
-0.372876
-4.90044e-05
1.06533
-0.372811
-5.41824e-05
1.06534
-0.372837
-2.92171e-05
1.06533
-0.372888
1.06541
-0.372822
-1.14933e-05
0.0293469
-9.13478e-06
0.0293318
-1.3836e-05
0.029343
-1.48001e-05
0.0293348
-9.48511e-06
0.0293289
0.0293224
2.16206e-05
1.48438
-0.631037
-2.402e-06
1.48418
-0.631724
-6.32252e-05
1.48423
-0.631494
-2.18432e-05
1.48428
-0.631555
-3.91686e-05
1.4842
-0.631705
1.48435
-0.631433
-0.000188748
1.3299
-0.218023
-5.8843e-05
1.32983
-0.218663
-6.74991e-05
1.32985
-0.218426
-5.53974e-05
1.32987
-0.218442
3.03011e-05
1.32985
-0.218625
1.32994
-0.218382
-4.77872e-05
0.091908
-2.24597e-05
0.0917791
-3.74175e-05
0.0918464
-3.07206e-05
0.0918211
-1.45087e-05
0.0917912
0.0918117
0.00111935
3.05899
0.0827548
0.000181961
3.05922
0.0854241
-0.000234777
3.05899
0.0845065
-1.40693e-05
3.05927
0.0834396
-0.000424235
3.05918
0.0844254
3.0592
0.0831541
0.00037945
1.61227
1.22832
2.57599e-05
1.61234
1.22856
-0.000217947
1.61225
1.22856
-4.81308e-05
1.61244
1.22821
-0.000177296
1.61241
1.22828
1.61252
1.22812
-0.000147801
0.605199
-2.01811e-05
0.604769
-4.96258e-05
0.604956
-4.35725e-05
0.604987
5.50581e-05
0.604804
0.605035
-0.000899476
3.94295
-1.1236
-0.000233336
3.94868
-1.11977
-0.000304401
3.94615
-1.12112
-0.000414169
3.94521
-1.12272
0.000387733
3.94719
-1.1214
3.94482
-1.12315
-0.000806569
3.36459
1.80749
-0.000108617
3.36684
1.80971
-0.000106685
3.36571
1.809
-0.000424858
3.36569
1.80806
6.90423e-05
3.36619
1.80879
3.36562
1.8074
-8.8234e-05
1.83526
0.000101841
1.83582
0.000110964
1.83561
-3.049e-05
1.83544
-5.00997e-05
1.83564
1.83517
-0.00034177
1.8262
-3.31153
-0.000157435
1.82934
-3.30929
-8.06316e-05
1.82805
-3.31009
-0.000278572
1.82698
-3.31108
0.00011416
1.82822
-3.31074
1.82696
-3.31148
0.000373194
3.07794
0.555375
-6.81957e-05
3.08139
0.558105
-2.04158e-05
3.07983
0.557176
-0.000126973
3.07904
0.556108
-0.000388671
3.08045
0.556819
3.07902
0.554952
9.61941e-05
2.06721
-0.000100091
2.06857
-5.55269e-05
2.06798
-0.000147809
2.0676
-0.000410136
2.06815
2.06674
0.000844649
-0.254292
-4.20661
-0.000295093
-0.256841
-4.20419
-0.00039757
-0.255888
-4.20516
-0.00038752
-0.255992
-4.20588
-0.000853966
-0.256706
-4.20574
-0.255651
-4.20622
0.00251052
0.796003
-0.497432
0.000114741
0.799568
-0.495907
-0.000210588
0.797921
-0.496306
-5.06653e-05
0.797079
-0.497124
-0.00139691
0.798468
-0.497013
0.79582
-0.497916
0.000159376
1.41515
-9.95045e-05
1.41655
-1.7495e-05
1.41589
-3.64066e-05
1.41555
-0.000201526
1.41598
1.41438
0.00047177
-2.21167
-4.05928
-0.00034624
-2.21248
-4.05861
-0.000906335
-2.21231
-4.05889
-0.000925429
-2.21214
-4.0587
-0.00143432
-2.21262
-4.0587
-2.21322
-4.05892
0.00146059
-2.08076
-0.629802
-2.50782e-05
-2.07711
-0.629796
-0.000144308
-2.07891
-0.629593
0.000134263
-2.0796
-0.629944
-0.000899212
-2.0785
-0.630095
-2.08192
-0.630114
-0.000287859
0.759627
0.000152236
0.760737
0.00043601
0.760163
0.000401023
0.759982
0.000754836
0.760175
0.759021
0.00104807
-3.23762
-4.15081
-0.000123309
-3.23739
-4.15197
0.000165675
-3.2375
-4.1517
-0.000157727
-3.23778
-4.15075
-0.00193759
-3.2381
-4.15068
-3.23834
-4.15205
0.000766771
-3.21659
-0.651596
9.98174e-05
-3.21501
-0.65151
0.000181204
-3.21573
-0.651449
0.000140007
-3.216
-0.651681
-0.000636845
-3.21569
-0.651732
-3.21686
-0.652227
-0.000436456
0.2635
0.000219157
0.263912
0.000412955
0.263683
0.000373342
0.263634
0.000749031
0.263624
0.263143
0.00120477
-2.13667
-4.80804
0.00020809
-2.13597
-4.81037
0.000422515
-2.13622
-4.8098
0.000248208
-2.13672
-4.80833
-0.00149819
-2.13714
-4.80781
-2.13581
-4.81066
-5.92277e-05
-2.36071
-0.427496
0.000117611
-2.36013
-0.427543
0.00030879
-2.36036
-0.427501
0.000123999
-2.36054
-0.427685
-0.000439302
-2.36054
-0.427772
-2.36048
-0.427999
-0.000185098
0.1673
0.000119054
0.167282
0.000145494
0.167284
0.000157838
0.167267
0.000315423
0.167198
0.167147
0.00126535
-0.179263
-3.71053
-0.000192916
-0.17932
-3.71208
-0.000405108
-0.179349
-3.71194
-3.71726e-05
-0.180045
-3.71036
0.00080607
-0.181598
-3.70968
-0.177682
-3.71275
8.25728e-07
-0.991793
0.385036
0.000235304
-0.991794
0.3847
0.000814115
-0.991886
0.384464
0.000319685
-0.99221
0.384976
-0.00141396
-0.992725
0.385087
-0.991272
0.384178
4.15119e-05
0.478455
6.58461e-05
0.478108
-5.32812e-05
0.478355
7.94899e-05
0.478045
0.000299377
0.477411
0.478913
-0.000271246
-2.32729
-1.60097
-0.00061057
-2.32866
-1.6011
-0.00118621
-2.3282
-1.60124
-0.000202682
-2.32899
-1.60045
0.00237864
-2.3316
-1.59959
-2.32569
-1.6021
0.000450102
-1.79107
-0.151633
0.00012017
-1.79209
-0.151545
0.000589887
-1.79176
-0.152443
-3.65169e-05
-1.7922
-0.151185
-0.00161983
-1.79393
-0.150997
-1.79003
-0.153096
0.000385867
-0.102226
0.00036287
-0.10239
0.000613884
-0.10242
0.000185599
-0.102531
-0.00148043
-0.102892
-0.102234
-0.000990928
-0.481576
-1.00205
1.48462
-0.00144567
-0.481961
-1.00204
1.48445
-0.00418408
-0.478785
-1.0023
1.48382
-0.0026667
-0.482247
-1.00022
1.48095
0.00472493
-0.480797
-0.999812
1.47322
-0.472899
-1.00175
1.47938
-0.00981832
-0.548139
-0.7726
0.848982
-0.00197035
-0.550153
-0.775111
0.835453
0.0119624
-0.546805
-0.778028
0.832114
-0.00973855
-0.547422
-0.751905
0.838781
-0.0380967
-0.5498
-0.743756
0.841117
-0.535969
-0.786674
0.811649
-0.0050472
-0.274328
0.425613
-0.00620959
-0.271403
0.419716
-0.00601811
-0.269555
0.417099
-0.00826221
-0.268628
0.415886
-0.0047346
-0.264539
0.412237
-0.263388
0.406645
-0.000199015
-0.256839
-0.745015
-0.00021771
-0.256922
-0.745099
-8.77638e-05
-0.257307
-0.745122
0.00019449
-0.255576
-0.744923
0.000636117
-0.25548
-0.744774
-0.25598
-0.745136
-0.00380241
-0.403404
-0.622236
-0.0033153
-0.408448
-0.624073
-0.00243167
-0.409958
-0.626262
-0.0053381
-0.392245
-0.612329
-0.00666977
-0.391084
-0.606817
-0.417072
-0.632249
-0.00266615
0.00575265
-0.00366307
0.006508
-0.00503496
0.00765483
-0.00373335
0.00685969
-0.000258675
0.00683728
0.0109705
-0.000266611
-0.338205
-0.406544
-0.000393571
-0.338534
-0.406438
-0.00052883
-0.33812
-0.406867
-7.8725e-05
-0.34009
-0.405283
0.000984558
-0.341239
-0.404598
-0.33674
-0.407411
-0.000425037
-0.565401
-0.394615
-0.00332884
-0.565733
-0.393968
-0.00849445
-0.565267
-0.393949
2.19894e-05
-0.568147
-0.392786
0.0169042
-0.574938
-0.389997
-0.555854
-0.396228
-0.000635972
0.155368
-0.000984792
0.155653
-0.000954943
0.156375
-0.000792744
0.155401
0.00123877
0.154691
0.158304
-0.000358399
-0.357495
-0.0486898
-3.53709e-05
-0.35803
-0.0487317
0.00109699
-0.359255
-0.0487446
-6.97332e-07
-0.355209
-0.0489755
-0.00172281
-0.353419
-0.0494571
-0.36075
-0.0483845
-0.00208822
-0.69931
-0.0507107
-0.00252796
-0.700557
-0.050999
-0.00604407
-0.698602
-0.0510869
-0.00150415
-0.703808
-0.0487281
0.0120535
-0.711109
-0.0458626
-0.690915
-0.0540103
-0.00051216
0.342179
-0.000510613
0.342001
-0.00231383
0.342879
-0.000507921
0.341934
0.00477897
0.340331
0.344811
-0.000426371
-0.478662
0.430399
-0.000563262
-0.47906
0.430466
-0.000489125
-0.479365
0.430546
-7.30242e-05
-0.479326
0.429935
0.000788934
-0.479624
0.429305
-0.478648
0.431052
-0.000870897
-0.756828
0.228325
-0.00134894
-0.758033
0.228459
-0.00439522
-0.756299
0.2289
-0.000527547
-0.76059
0.228673
0.0106353
-0.766168
0.229522
-0.75082
0.2288
-0.00033748
0.510242
-0.00013274
0.509955
-0.00114904
0.510743
-0.000322426
0.509778
0.00267649
0.508354
0.512333
-0.000333314
-1.17024
-0.000504946
-1.17047
-0.0006324
-1.17057
-9.1094e-05
-1.17106
0.00101903
-1.17139
-1.17003
-0.000469572
-1.09308
-0.000308659
-1.09371
-0.00134356
-1.09308
-0.000336432
-1.09457
0.00359295
-1.0968
-1.09073
6.52093e-05
0.000243136
0.000509161
4.11897e-05
-0.000724903
-0.00198063
3.05796
0.41855
-0.00255967
3.05871
0.418139
-0.00301321
3.05904
0.41734
-0.00246551
3.05945
0.41703
0.00210633
3.06099
0.416066
3.05841
0.415728
-0.000797937
2.76243
0.296332
-0.0011579
2.76279
0.296283
-0.00120121
2.76304
0.29604
-0.00106719
2.76326
0.296059
0.000144486
2.76369
0.29608
2.7631
0.295457
-0.0002355
0.11028
-0.00036796
0.110264
-0.000389829
0.110235
-0.000318883
0.110189
4.02146e-06
0.110174
0.110213
-0.00421731
3.12951
1.09598
-0.0049525
3.13125
1.09578
-0.00875794
3.13072
1.09491
-0.00437662
3.13257
1.09205
0.0116662
3.13736
1.08916
3.12717
1.08977
-0.00118447
2.72298
0.704049
-0.00177335
2.72346
0.704661
-0.00201365
2.72374
0.703257
-0.00197452
2.72399
0.704604
4.89529e-05
2.72488
0.706534
2.72366
0.699018
-0.000319369
0.262237
-0.000484678
0.262273
-0.000450039
0.262068
-0.000505773
0.262272
-0.000197099
0.26257
0.261585
-0.0079027
2.83959
2.02311
-0.013133
2.84316
2.02234
-0.0162844
2.84199
2.02462
-0.00866264
2.84913
2.0133
0.00303915
2.85812
2.00486
2.83921
2.02582
-0.00223432
2.32374
1.22214
-0.00354671
2.3249
1.22423
-0.00517594
2.32493
1.22194
-0.00344448
2.32665
1.22535
0.0019042
2.32945
1.22985
2.32482
1.21532
-0.000551336
0.418698
-0.000774257
0.419121
-0.00105102
0.418569
-0.000962843
0.419939
0.000149061
0.421322
0.417048
-0.00572378
1.98083
2.39961
-0.0170645
1.98204
2.396
-0.00948955
1.9838
2.40238
-0.0162675
1.98849
2.38323
-0.0369383
1.99624
2.37684
1.98845
2.41553
-0.00166656
1.64178
1.56285
-0.00410893
1.64308
1.56564
-0.00472668
1.6425
1.56386
-0.00456633
1.64564
1.56803
-0.00140027
1.64917
1.57375
1.64282
1.55956
-0.000637235
0.519127
-0.000914076
0.519956
-0.00176672
0.51919
-0.00107148
0.521506
0.00153717
0.523425
0.517479
3.56314e-05
0.58351
2.09108
-0.00528431
0.581269
2.08831
0.00132228
0.583894
2.09183
-0.00917018
0.582857
2.07733
-0.0290839
0.588075
2.0773
0.589853
2.09285
-0.000442703
0.700034
1.44677
-0.002819
0.700272
1.44901
-0.00270826
0.699919
1.44772
-0.00476161
0.701543
1.4514
-0.00312718
0.703857
1.45633
0.700854
1.44543
-0.000523527
0.447294
-0.000906022
0.447886
-0.00191157
0.447305
-0.00115773
0.448765
0.00183148
0.449765
0.446554
0.00163268
-0.593675
1.48986
-0.00260262
-0.595995
1.48891
0.00060322
-0.595367
1.48894
-0.00918856
-0.598614
1.48067
-0.0111086
-0.598587
1.4807
-0.595947
1.48306
0.000307234
-0.137933
0.990724
-0.000116901
-0.138232
0.991675
-0.00023745
-0.138049
0.990526
-0.00125409
-0.137669
0.991474
-0.000233158
-0.136487
0.993209
-0.137803
0.98705
-0.00046318
0.317494
-0.000866572
0.317606
-0.00152663
0.317409
-0.000948797
0.317545
0.00106459
0.317657
0.317005
-0.00363141
-0.994034
0.98785
-0.0102984
-0.99506
0.988676
-0.0145633
-0.993925
0.987904
-0.0163906
-0.994165
0.984559
0.00843521
-0.991346
0.984013
-0.993542
0.982598
-0.000652773
-0.600592
0.597935
-0.00130485
-0.600427
0.597694
-0.00146764
-0.599717
0.59648
-0.0016878
-0.598415
0.595945
0.000116452
-0.595983
0.596042
-0.598964
0.592589
-0.000815691
0.178127
-0.00155443
0.178038
-0.00215771
0.177962
-0.00160687
0.177661
0.00104701
0.177294
0.177954
-0.00928144
-1.0856
0.636557
-0.0184824
-1.08435
0.642025
-0.0280168
-1.08163
0.646793
-0.0227251
-1.0752
0.644769
0.0112656
-1.06496
0.655017
-1.07517
0.649627
-0.00312506
-1.03105
0.546508
-0.00602876
-1.02972
0.545965
-0.006947
-1.02861
0.544379
-0.00767244
-1.02566
0.54713
-0.00447914
-1.02281
0.55069
-1.02471
0.537653
-0.00115921
0.158245
-0.00195366
0.158173
-0.00227568
0.157928
-0.00193904
0.158623
-0.000626847
0.15907
0.157524
0.0119372
-0.814586
0.128797
0.00510286
-0.815326
0.131448
-0.0156446
-0.813648
0.140631
-0.00929784
-0.813385
0.0901101
0.0474877
-0.805967
0.0545151
-0.816025
0.11937
-0.00492375
-0.837381
0.574225
-0.00873766
-0.837289
0.571738
-0.00619513
-0.837396
0.56558
-0.00994069
-0.833488
0.570976
-0.012816
-0.826822
0.574417
-0.838927
0.547737
-0.00110541
0.230233
-0.00186345
0.229542
-0.00281962
0.228521
-0.0022694
0.228103
0.00201582
0.227039
0.22695
-0.0157693
-1.57866
-0.751501
-0.0280646
-1.57369
-0.743239
-0.038214
-1.56
-0.722358
-0.0691224
-1.58239
-0.785245
0.0132987
-1.56498
-0.862943
-1.55891
-0.724706
-0.0126319
-1.63585
0.644046
-0.0182683
-1.63597
0.63965
-0.0118058
-1.63334
0.632457
-0.0230343
-1.6241
0.62391
-0.0112284
-1.60779
0.605415
-1.63047
0.608066
-0.00242322
0.216758
-0.00561965
0.21539
-0.0111459
0.214614
-0.00664626
0.21387
0.0115432
0.21139
0.212271
0.00636319
-2.01555
-2.38663
0.0142115
-2.01176
-2.36908
0.0436022
-2.00832
-2.34781
0.00543448
-1.93014
-2.41269
-0.000326258
-1.71728
-2.54448
-1.9535
-2.3329
-0.0324517
-1.73082
0.391761
-0.0710493
-1.73105
0.397527
-0.120184
-1.72621
0.399469
-0.119751
-1.69256
0.385893
0.0478609
-1.65503
0.375549
-1.70172
0.404151
-0.00378648
0.251866
-0.0116628
0.252723
-0.0272468
0.253541
-0.0165169
0.253335
0.0210416
0.250665
0.256844
0.00505429
-3.22292
0.00750016
-3.19393
0.0204971
-3.16287
0.0222387
-3.13907
-0.012936
-3.01927
-3.07811
-0.0303078
-1.95187
-0.0535458
-1.93772
-0.0583667
-1.92647
-0.0680655
-1.9047
-0.0246112
-1.84606
-1.88692
-0.0154206
-0.027443
-0.0324864
-0.0292409
-0.01107
)
;

boundaryField
{
    seabed_topleft_surface
    {
        type            calculated;
        value           uniform 0;
    }
    seabed_topright_surface
    {
        type            calculated;
        value           uniform 0;
    }
    breakwater_top_surface
    {
        type            calculated;
        value           uniform 0;
    }
    breakwater_left_surface
    {
        type            calculated;
        value           uniform 0;
    }