/*--------------------------------*- C++ -*----------------------------------*\
| =========                 |                                                 |
| \\      /  F ield         | OpenFOAM: The Open Source CFD Toolbox           |
|  \\    /   O peration     | Version:  v1612+                                |
|   \\  /    A nd           | Web:      www.OpenFOAM.com                      |
|    \\/     M anipulation  |                                                 |
\*---------------------------------------------------------------------------*/
FoamFile
{
    version     2.0;
    format      ascii;
    class       volScalarField;
    location    "0.1";
    object      p_rgh;
}
// * * * * * * * * * * * * * * * * * * * * * * * * * * * * * * * * * * * * * //

dimensions      [1 -1 -2 0 0 0 0];

internalField   nonuniform List<scalar> 
320
(
-9800.21
-9800.21
-9800.21
-9800.21
-0.000279208
-9.55409e-05
3.20937e-05
4.37383e-05
-0.00293976
-0.000296753
-0.000332901
-0.000137169
-9.72155e-05
6.00466e-06
-0.00269199
-0.000228943
-9800.19
-9800.2
-9800.22
-9800.22
-9800.17
-9800.22
-9800.19
-9800.22
-9800.23
-9800.22
-9800.17
-9800.22
-9800.2
-9800.2
-9800.21
-9800.21
-9800.2
-9800.21
-9800.2
-9800.21
-9800.21
-9800.21
-9800.2
-9800.21
-9800.2
-9800.2
-9800.2
-9800.2
-9800.19
-9800.2
-9800.2
-9800.2
-9800.2
-9800.2
-9800.19
-9800.2
-9800.2
-9800.2
-9800.2
-9800.2
0.000135726
-2.09107e-05
6.37779e-05
0.000114255
4.47619e-05
-0.000146072
-0.000717551
-0.000819004
-0.000223196
-0.000380864
-0.000534642
-0.000110538
-9.79544e-05
0.000116377
4.71119e-05
-0.000147357
-0.000655726
-0.00069486
-0.000238366
0.000183615
-9800.22
-9800.22
-9800.22
-9800.22
-9800.21
-9800.2
-9800.2
-9800.23
-9800.23
-9800.2
-9800.22
-9800.22
-9800.23
-9800.22
-9800.21
-9800.2
-9800.19
-9800.22
-9800.23
-9800.22
-9800.21
-9800.21
-9800.21
-9800.21
-9800.21
-9800.2
-9800.2
-9800.21
-9800.2
-9800.2
-9800.2
-9800.21
-9800.21
-9800.21
-9800.2
-9800.2
-9800.2
-9800.2
-9800.21
-9800.21
-9800.19
-9800.2
-9800.2
-9800.2
-9800.2
-9800.2
-9800.2
-9800.2
-9800.19
-9800.19
-9800.19
-9800.2
-9800.2
-9800.2
-9800.2
-9800.2
-9800.2
-9800.2
-9800.2
-9800.19
-9800.19
-9800.19
-9800.19
-9800.19
-9800.19
-9800.19
-9800.2
-9800.2
-9800.19
-9800.19
-9800.19
-9800.19
-9800.2
-9800.19
-9800.19
-9800.19
-9800.19
-9800.19
-9800.2
-9800.2
-9800.2
-9800.2
-9800.2
-9800.19
-9800.19
-9800.19
-9800.19
-9800.19
-9800.2
-9800.2
-9800.2
-9800.2
-9800.2
-9800.19
-9800.19
-9800.19
0.0009144
0.000453953
2.36261e-05
0.000150298
0.000472831
0.000358944
0.000456517
-0.000543479
-0.00135431
-0.001537
-0.000892814
-0.000247392
-0.000462484
-0.00108823
-0.00151845
-0.000981173
-0.000535831
5.95252e-05
0.000431124
0.000387121
0.000448679
-0.000584789
-0.00138448
-0.00137443
-0.000229415
-0.000470141
-1.74329e-05
-0.0027327
-9800.22
-9800.22
-9800.23
-9800.22
-9800.2
-9800.19
-9800.2
-9800.2
-9800.2
-9800.2
-9800.23
-9800.2
-9800.2
-9800.2
-9800.2
-9800.2
-9800.23
-9800.22
-9800.2
-9800.19
-9800.2
-9800.2
-9800.2
-9800.2
-9800.19
-9800.2
-9800.22
-9800.17
-9800.2
-9800.2
-9800.21
-9800.21
-9800.2
-9800.2
-9800.2
-9800.2
-9800.2
-9800.2
-9800.21
-9800.2
-9800.2
-9800.19
-9800.2
-9800.2
-9800.21
-9800.21
-9800.2
-9800.2
-9800.2
-9800.2
-9800.2
-9800.2
-9800.2
-9800.2
-9800.2
-9800.2
-9800.19
-9800.19
-9800.2
-9800.2
-9800.2
-9800.2
-9800.21
-9800.21
-9800.2
-9800.2
-9800.2
-9800.19
-9800.19
-9800.19
-9800.19
-9800.19
-9800.2
-9800.2
-9800.2
-9800.2
-9800.2
-9800.2
-9800.2
-9800.2
-9800.2
-9800.19
-9800.19
-9800.19
-9800.19
-9800.19
-9800.19
-9800.2
-9800.2
-9800.2
-9800.21
-9800.21
-9800.2
-9800.2
-9800.19
-9800.19
-9800.19
-9800.19
-9800.19
-9800.19
-9800.19
-9800.2
-9800.2
-9800.2
-9800.2
-9800.2
-9800.2
-9800.2
-9800.19
-9800.19
-9800.19
-9800.19
-0.00057292
-0.000297782
-0.000520697
-0.000937515
-9800.21
-9800.22
-9800.23
-9800.22
)
;

boundaryField
{
    top_fluid_surface
    {
        type            totalPressure;
        rho             rho;
        psi             none;
        gamma           1;
        p0              uniform 0;
        value           nonuniform List<scalar> 
64
(
-5.85624e-11
-1.30338e-11
0
0
-8.47948e-10
-1.35768e-12
-3.28835e-11
-2.10935e-13
0
-7.44586e-13
-7.87072e-10
0
0
0
0
0
-7.01085e-12
-4.8377e-12
-2.34893e-11
-1.22083e-11
-1.61838e-13
-1.71445e-11
-8.50391e-13
0
0
0
-5.9229e-12
-3.5914e-12
-1.8739e-11
-1.31113e-11
-1.11828e-12
0
0
0
0
0
0
0
0
-2.88753e-11
-8.29454e-11
-9.26977e-11
-2.00851e-11
-1.6999e-11
-1.77733e-11
-5.12353e-11
-9.1607e-11
-4.58263e-11
-4.1417e-12
0
0
0
0
-3.08153e-11
-9.07219e-11
-1.23183e-10
-1.26045e-11
-1.22702e-11
-3.03552e-13
-7.68655e-10
-1.65276e-11
-1.40935e-13
-5.11012e-13
-2.69541e-11
)
;
    }
    bottom_fluid_surface
    {
        type            fixedFluxPressure;
        gradient        uniform 0;
        value           nonuniform List<scalar> 
64
(
-9800.19
-9800.19
-9800.19
-9800.19
-9800.19
-9800.19
-9800.2
-9800.2
-9800.19
-9800.19
-9800.19
-9800.19
-9800.2
-9800.19
-9800.19
-9800.19
-9800.19
-9800.19
-9800.2
-9800.2
-9800.2
-9800.2
-9800.2
-9800.19
-9800.19
-9800.19
-9800.19
-9800.19
-9800.2
-9800.2
-9800.2
-9800.2
-9800.2
-9800.19
-9800.19
-9800.19
-9800.19
-9800.19
-9800.19
-9800.2
-9800.2
-9800.2
-9800.21
-9800.21
-9800.2
-9800.2
-9800.19
-9800.19
-9800.19
-9800.19
-9800.19
-9800.19
-9800.19
-9800.2
-9800.2
-9800.2
-9800.2
-9800.2
-9800.2
-9800.2
-9800.19
-9800.19
-9800.19
-9800.19
)
;
    }
    lateral_surface_1
    {
        type            fixedFluxPressure;
        gradient        uniform 0;
        value           nonuniform List<scalar> 
40
(
0.0009144
0.000453953
2.36261e-05
0.000150298
0.000472831
0.000358944
0.000456517
-0.0027327
-9800.22
-9800.22
-9800.23
-9800.22
-9800.2
-9800.19
-9800.2
-9800.17
-9800.2
-9800.2
-9800.21
-9800.21
-9800.2
-9800.2
-9800.2
-9800.2
-9800.19
-9800.19
-9800.2
-9800.2
-9800.2
-9800.2
-9800.21
-9800.19
-9800.19
-9800.19
-9800.19
-9800.2
-9800.2
-9800.2
-9800.21
-9800.19
)
;
    }
    lateral_surface_2
    {
        type            fixedFluxPressure;
        gradient        uniform 0;
        value           nonuniform List<scalar> 
40
(
-0.00108823
-0.00151845
-0.000981173
-0.000535831
5.95252e-05
0.000431124
0.000387121
0.000448679
-9800.2
-9800.2
-9800.2
-9800.23
-9800.22
-9800.2
-9800.19
-9800.2
-9800.19
-9800.2
-9800.2
-9800.21
-9800.21
-9800.2
-9800.2
-9800.2
-9800.19
-9800.19
-9800.19
-9800.2
-9800.2
-9800.2
-9800.2
-9800.2
-9800.19
-9800.19
-9800.19
-9800.19
-9800.2
-9800.2
-9800.2
-9800.2
)
;
    }
    lateral_surface_3
    {
        type            fixedFluxPressure;
        gradient        uniform 0;
        value           nonuniform List<scalar> 
40
(
0.000456517
-0.000543479
-0.00135431
-0.001537
-0.000892814
-0.000247392
-0.000462484
-0.00108823
-9800.2
-9800.2
-9800.2
-9800.2
-9800.23
-9800.2
-9800.2
-9800.2
-9800.2
-9800.2
-9800.2
-9800.2
-9800.21
-9800.2
-9800.2
-9800.19
-9800.21
-9800.21
-9800.2
-9800.2
-9800.2
-9800.19
-9800.19
-9800.19
-9800.21
-9800.21
-9800.2
-9800.2
-9800.19
-9800.19
-9800.19
-9800.19
)
;
    }
    lateral_surface_4
    {
        type            fixedFluxPressure;
        gradient        uniform 0;
        value           nonuniform List<scalar> 
40
(
0.000448679
-0.000584789
-0.00138448
-0.00137443
-0.000229415
-0.000470141
-1.74329e-05
-0.0027327
-9800.2
-9800.2
-9800.2
-9800.2
-9800.19
-9800.2
-9800.22
-9800.17
-9800.2
-9800.2
-9800.2
-9800.2
-9800.2
-9800.2
-9800.2
-9800.2
-9800.2
-9800.2
-9800.2
-9800.2
-9800.2
-9800.19
-9800.19
-9800.19
-9800.2
-9800.2
-9800.2
-9800.2
-9800.19
-9800.19
-9800.19
-9800.19
)
;
    }
}


// ************************************************************************* //
