/*--------------------------------*- C++ -*----------------------------------*\
| =========                 |                                                 |
| \\      /  F ield         | OpenFOAM: The Open Source CFD Toolbox           |
|  \\    /   O peration     | Version:  v1612+                                |
|   \\  /    A nd           | Web:      www.OpenFOAM.com                      |
|    \\/     M anipulation  |                                                 |
\*---------------------------------------------------------------------------*/
FoamFile
{
    version     2.0;
    format      ascii;
    class       surfaceScalarField;
    location    "4.65";
    object      alphaPhi;
}
// * * * * * * * * * * * * * * * * * * * * * * * * * * * * * * * * * * * * * //

dimensions      [0 3 -1 0 0 0 0];

internalField   nonuniform List<scalar> 
2916
(
-6.46989e-06
0.0683285
-2.7772e-07
-4.83129e-06
0.0683296
-2.77553e-07
-1.34533e-06
0.0683296
-2.77611e-07
1.03911e-06
0.0683298
-2.77626e-07
3.74353e-06
0.0683296
-2.77567e-07
0.0683288
-2.77775e-07
-5.12386e-06
0.135927
-6.56032e-07
-4.65737e-06
0.135931
-6.55905e-07
-9.56793e-07
0.13593
-6.55972e-07
1.44378e-06
0.135931
-6.55957e-07
2.69781e-06
0.135931
-6.5585e-07
0.135929
-6.56117e-07
-2.41093e-06
0.210787
-1.41154e-08
-3.42999e-06
0.210796
-1.41072e-08
-5.17307e-07
0.210794
-1.41017e-08
6.29102e-07
0.210795
-1.41005e-08
3.43065e-07
0.210796
-1.41023e-08
0.21079
-1.41287e-08
1.16982e-06
0.248545
0.00445599
-1.85488e-06
0.248562
0.00445611
-4.78781e-07
0.248558
0.00445405
-1.03777e-06
0.248558
0.00445572
-3.70845e-06
0.248561
0.00445638
0.248549
0.00445427
3.21816e-08
0.114323
0.0994425
-1.23735e-06
0.114355
0.0994378
-2.21299e-06
0.114347
0.0994389
-5.26095e-06
0.114347
0.0994402
-6.66021e-06
0.114354
0.0994375
0.11433
0.0994372
4.42191e-06
-0.34767
0.303315
-2.48001e-06
-0.347636
0.303325
-5.69596e-06
-0.347638
0.303319
-6.83656e-06
-0.347637
0.303316
-1.25175e-05
-0.347629
0.303319
-0.347663
0.303311
2.58724e-06
-0.935968
0.587236
9.3311e-06
-0.935952
0.58725
2.19523e-06
-0.935934
0.587244
-5.31757e-06
-0.935933
0.587244
-1.26715e-05
-0.935929
0.587248
-0.935973
0.587238
-1.02558e-05
-1.45091
0.513933
1.82237e-05
-1.45095
0.513943
1.20516e-05
-1.4509
0.513945
-4.49026e-07
-1.45089
0.513949
-6.92391e-06
-1.4509
0.513953
-1.45094
0.513935
7.28527e-06
-1.65513
0.203193
2.48992e-05
-1.65522
0.203247
1.63412e-05
-1.65515
0.203248
1.82788e-06
-1.65515
0.203255
-1.07301e-05
-1.65517
0.203272
-1.65516
0.203194
0.000100197
-1.38379
-0.272446
2.93342e-05
-1.38391
-0.272252
-3.23976e-06
-1.38383
-0.272296
-1.59104e-05
-1.38384
-0.272306
-5.66042e-05
-1.38388
-0.27226
-1.38381
-0.27241
0.00019978
-0.675818
-0.709129
1.27327e-05
-0.675855
-0.708827
-3.24171e-05
-0.675821
-0.708921
-3.28199e-05
-0.675838
-0.708955
-0.000127471
-0.675863
-0.70888
-0.675817
-0.709081
-1.01289e-05
-0.67741
-2.84e-05
-0.677438
-1.3523e-05
-0.677437
-1.81651e-05
-0.677432
-5.08336e-05
-0.67743
-0.677469
-1.81702e-12
2.60812e-08
-3.35068e-07
-6.89147e-13
2.60782e-08
-3.34901e-07
8.21055e-14
2.60792e-08
-3.34959e-07
8.93629e-13
2.60795e-08
-3.34974e-07
2.07571e-12
2.60785e-08
-3.34913e-07
2.60827e-08
-3.35123e-07
-2.41902e-12
5.85608e-08
-7.51034e-07
-1.00006e-12
5.85583e-08
-7.50911e-07
2.49125e-13
5.856e-08
-7.50977e-07
1.7185e-12
5.85594e-08
-7.50961e-07
3.29506e-12
5.8557e-08
-7.50852e-07
5.85645e-08
-7.51118e-07
-1.44387e-12
5.03071e-08
-6.83847e-08
-2.89803e-13
5.03055e-08
-6.83797e-08
2.89741e-13
5.03059e-08
-6.8372e-08
1.32052e-12
5.0305e-08
-6.83711e-08
2.35619e-12
5.03049e-08
-6.83758e-08
5.0309e-08
-6.83934e-08
-1.04096e-08
0.0037161
2.33516e-05
-3.35124e-09
0.0037156
2.33376e-05
1.86573e-09
0.00371548
2.33345e-05
4.80528e-09
0.00371585
2.33401e-05
8.5577e-09
0.00371575
2.33403e-05
0.00371559
2.33479e-05
-5.53717e-07
0.0493495
-8.66471e-05
1.36463e-07
0.04936
-8.46547e-05
2.10381e-07
0.0493547
-8.55458e-05
-2.10519e-07
0.0493553
-8.56281e-05
-8.33092e-08
0.049359
-8.49527e-05
0.0493514
-8.56853e-05
1.65544e-05
-0.0651448
-0.0133601
-2.18473e-06
-0.0651255
-0.0133596
-3.65778e-06
-0.0651286
-0.0133593
-2.0136e-06
-0.0651243
-0.0133573
-1.44761e-05
-0.0651167
-0.0133582
-0.0651367
-0.0133581
4.6086e-05
-0.678657
0.166066
1.08125e-05
-0.678615
0.166118
-1.45567e-06
-0.678604
0.166087
-8.48773e-06
-0.678595
0.166083
-4.11098e-05
-0.678571
0.166098
-0.678651
0.166065
3.2668e-05
-1.08207
0.525847
2.52179e-06
-1.08215
0.526045
9.97458e-07
-1.08209
0.525954
-1.33686e-06
-1.08208
0.52596
-2.78307e-05
-1.08209
0.526022
-1.08211
0.525892
0.000134673
-1.03575
0.155793
7.04087e-06
-1.03588
0.156157
5.05227e-07
-1.03579
0.156008
2.05763e-05
-1.0358
0.156003
-4.035e-05
-1.03583
0.156123
-1.03577
0.155876
0.000488307
-0.785062
-0.524545
1.7842e-05
-0.785001
-0.523578
-5.16005e-05
-0.784979
-0.523958
8.22582e-06
-0.785041
-0.524043
-0.000191116
-0.785063
-0.52375
-0.784989
-0.524311
0.000343719
-0.396233
-1.09949
-1.69009e-05
-0.39605
-1.09861
-8.69738e-05
-0.396069
-1.09895
-1.63625e-05
-0.396155
-1.0991
-8.96301e-05
-0.396183
-1.09888
-0.396092
-1.09926
-0.000262305
-1.07292
-7.02426e-05
-1.07322
-2.94985e-05
-1.07309
-7.27243e-06
-1.07315
0.000146299
-1.07331
-1.07296
-3.28394e-12
-1.73195e-07
-1.09568e-07
1.46476e-13
-1.73116e-07
-1.0947e-07
1.57405e-12
-1.73142e-07
-1.095e-07
2.72291e-12
-1.73145e-07
-1.09509e-07
4.89416e-12
-1.73116e-07
-1.09474e-07
-1.73212e-07
-1.09593e-07
-1.47379e-11
-2.82247e-08
-4.93793e-07
5.25304e-12
-2.82446e-08
-4.93745e-07
9.98872e-12
-2.82807e-08
-4.93768e-07
1.72518e-11
-2.82507e-08
-4.93767e-07
3.70171e-11
-2.82319e-08
-4.93701e-07
-2.82688e-08
-4.93853e-07
-4.0179e-12
3.24235e-07
-1.26569e-07
-1.10637e-12
3.23987e-07
-1.26505e-07
-8.85314e-16
3.23893e-07
-1.26521e-07
9.30868e-13
3.24007e-07
-1.2652e-07
3.85094e-12
3.24024e-07
-1.26506e-07
3.24076e-07
-1.26591e-07
-1.9687e-13
2.38404e-05
-6.81861e-07
-5.70683e-11
2.3826e-05
-6.81535e-07
-3.91442e-11
2.38226e-05
-6.8156e-07
-2.16305e-11
2.38289e-05
-6.8184e-07
-1.92541e-11
2.3829e-05
-6.81741e-07
2.38358e-05
-6.81628e-07
4.0433e-07
-0.00011985
4.12521e-05
3.62416e-08
-0.000116876
4.10354e-05
5.5587e-10
-0.000118198
4.11312e-05
2.03058e-08
-0.000118374
4.11748e-05
-1.6029e-07
-0.000117416
4.10915e-05
-0.000118568
4.11725e-05
5.75423e-06
-0.0146658
-0.000442983
-9.74649e-07
-0.014643
-0.000440997
-1.20982e-06
-0.0146533
-0.000442196
-5.77727e-07
-0.0146542
-0.000440654
-4.09085e-06
-0.0146475
-0.000440324
-0.0146579
-0.000441854
1.72688e-05
-0.38214
-0.00620845
-4.10379e-07
-0.382131
-0.00623442
-5.39924e-06
-0.382127
-0.00622236
-4.70571e-06
-0.382116
-0.0062168
-1.83753e-05
-0.382122
-0.0062276
-0.382098
-0.00621492
0.000241897
-0.655759
-0.00695654
-5.09023e-06
-0.655701
-0.00644665
-1.71979e-05
-0.655717
-0.00668794
1.46332e-05
-0.655731
-0.00671315
-0.000134897
-0.655725
-0.0065252
-0.655709
-0.00683827
0.000410348
-0.515903
-0.147601
1.30723e-06
-0.515533
-0.147125
-3.12098e-05
-0.515691
-0.147342
2.99283e-05
-0.515747
-0.147393
-0.000215511
-0.515643
-0.147194
-0.515805
-0.147512
6.09182e-05
-0.275592
-0.341068
-2.77503e-05
-0.274687
-0.341272
-1.19102e-05
-0.275096
-0.341178
1.49749e-05
-0.275157
-0.341193
-1.97272e-05
-0.274891
-0.341228
-0.275398
-0.341168
-0.00058583
-0.142761
-0.342287
-6.38739e-05
-0.142056
-0.342558
-1.58404e-05
-0.142367
-0.34246
-1.7018e-05
-0.142397
-0.342445
0.000392058
-0.142207
-0.342514
-0.142599
-0.342459
-0.000463562
-0.351508
-8.15996e-05
-0.351428
-8.39973e-05
-0.351495
-3.99053e-06
-0.351544
0.000398298
-0.351528
-0.351574
-8.04133e-13
-2.65448e-08
-1.33082e-08
1.78802e-13
-2.65478e-08
-1.3291e-08
2.12572e-14
-2.65446e-08
-1.32966e-08
1.99364e-13
-2.6545e-08
-1.32963e-08
1.15886e-12
-2.65436e-08
-1.32858e-08
-2.65407e-08
-1.33119e-08
-8.58648e-12
5.31069e-10
-2.02396e-07
7.11465e-12
4.28223e-10
-2.02271e-07
6.68424e-12
4.82979e-10
-2.02328e-07
4.75904e-12
4.86289e-10
-2.02319e-07
1.17114e-11
4.64807e-10
-2.0223e-07
4.91385e-10
-2.02387e-07
-1.27649e-11
4.49104e-08
-1.67655e-08
-1.48499e-12
4.4792e-08
-1.67581e-08
-5.08341e-13
4.48563e-08
-1.67494e-08
-2.19713e-12
4.48972e-08
-1.67572e-08
3.30859e-12
4.48343e-08
-1.67828e-08
4.48408e-08
-1.67453e-08
-3.56684e-12
-9.76301e-07
-2.88244e-08
-3.31867e-12
-9.74701e-07
-2.87883e-08
-1.30958e-11
-9.75346e-07
-2.8807e-08
-2.56633e-11
-9.758e-07
-2.8819e-08
-1.53542e-11
-9.75188e-07
-2.8803e-08
-9.75676e-07
-2.88104e-08
3.985e-08
3.20038e-05
5.27712e-06
1.55094e-09
3.18746e-05
5.27952e-06
-2.6162e-09
3.19337e-05
5.27764e-06
4.07884e-09
3.19645e-05
5.27642e-06
-1.37481e-08
3.19089e-05
5.27799e-06
3.19608e-05
5.27048e-06
4.63611e-07
-0.000604992
-5.16964e-05
-2.8289e-07
-0.000598897
-5.37874e-05
-5.51932e-07
-0.000601896
-5.28058e-05
-1.86555e-07
-0.000602155
-5.17645e-05
-3.33731e-07
-0.000599889
-5.29039e-05
-0.000602989
-5.21048e-05
-2.33067e-05
-0.207658
0.000132691
-5.43786e-06
-0.20751
0.000133318
4.30847e-06
-0.207572
0.000133092
1.50073e-06
-0.207654
0.000133178
3.04693e-06
-0.20758
0.000133386
-0.20762
0.000133515
-0.000196161
-0.278809
-3.17125e-06
-1.09522e-05
-0.278865
-3.15036e-06
4.60042e-05
-0.278823
-3.15583e-06
1.59849e-05
-0.27891
-3.15712e-06
6.11871e-05
-0.278907
-3.15756e-06
-0.278865
-3.15237e-06
-0.000377626
-0.165236
-6.8574e-05
-1.3022e-05
-0.165221
-6.8618e-05
6.51454e-05
-0.165223
-6.86133e-05
6.35046e-06
-0.165262
-6.85787e-05
0.000161653
-0.165241
-6.86545e-05
-0.165289
-6.85609e-05
-0.000258815
-0.0176482
-0.000799532
-8.87268e-06
-0.0176646
-0.000799731
3.82438e-05
-0.0176681
-0.000799856
-7.17224e-07
-0.0176491
-0.000799497
0.000117293
-0.0176365
-0.0008005
-0.0177029
-0.000798937
-4.10934e-05
-0.0166156
-0.00782234
-1.56364e-06
-0.0165525
-0.00783895
5.71422e-06
-0.0165929
-0.00783411
2.12815e-07
-0.0165827
-0.00782903
1.85481e-05
-0.0165544
-0.00783588
-0.0166376
-0.00783114
-1.63788e-05
-0.0505061
-1.57952e-06
-0.0504517
-5.2664e-06
-0.050484
9.7794e-07
-0.0504901
1.58789e-05
-0.0505011
-0.0504936
2.29782e-13
-1.10861e-08
9.6602e-10
4.862e-13
-1.12559e-08
9.7196e-10
1.34886e-12
-1.06955e-08
9.33648e-10
1.4233e-12
-1.16455e-08
9.88012e-10
3.84551e-12
-1.23655e-08
1.03209e-09
-8.9196e-09
7.95731e-10
1.19033e-11
-1.45247e-07
1.086e-07
4.4746e-12
-1.458e-07
1.08642e-07
-1.86434e-10
-1.39447e-07
1.04601e-07
1.69129e-10
-1.45455e-07
1.07413e-07
2.21168e-09
-1.52067e-07
1.1003e-07
-1.17717e-07
9.08898e-08
-1.43368e-09
-9.99349e-06
8.6037e-06
5.4172e-09
-1.00404e-05
8.62496e-06
-4.24306e-08
-9.56721e-06
8.28658e-06
2.9256e-08
-1.00782e-05
8.6265e-06
3.30592e-07
-1.0619e-05
8.87032e-06
-7.98801e-06
7.17836e-06
1.03847e-08
-0.000179296
0.000129926
8.93009e-07
-0.000181395
0.000130493
2.78435e-07
-0.000171999
0.000125489
1.57529e-06
-0.00018008
0.000129915
6.8924e-06
-0.000186794
0.000130559
-0.000146239
0.000112274
9.1342e-07
-0.00198938
0.00120701
2.37633e-05
-0.002029
0.00121218
3.1182e-05
-0.00192734
0.00117244
3.74199e-05
-0.00197239
0.00119852
5.06035e-05
-0.00197414
0.00117374
-0.00171973
0.00110381
0.000141005
-0.0787135
0.00201834
0.000240402
-0.0789583
0.00208278
0.000379229
-0.0741282
0.00209305
0.000472637
-0.0746054
0.00196877
-5.5931e-05
-0.0747799
0.00218842
-0.0699418
0.00238076
0.000884344
-0.134794
-0.0062093
0.000879299
-0.132747
-0.00605133
0.00173892
-0.134781
-0.00611116
0.00198906
-0.131234
-0.00587842
-0.00127775
-0.135861
-0.00496066
-0.137397
-0.00605576
0.00129638
-0.154058
-0.0257341
0.00115494
-0.155719
-0.0255106
0.00341289
-0.159302
-0.0269138
0.00325185
-0.156675
-0.0238486
-0.00377248
-0.159907
-0.0185786
-0.165851
-0.0276178
0.000240181
-0.0868464
-0.113629
0.000261081
-0.088367
-0.11655
0.001649
-0.0910883
-0.120465
8.00731e-05
-0.0893384
-0.117352
-0.00258968
-0.0906886
-0.118849
-0.0933677
-0.125457
0.000195977
0.0256234
-0.15727
0.000430878
0.0254537
-0.158623
0.00167828
0.0259182
-0.166249
0.000329897
0.0234511
-0.148186
-0.00334214
0.0204332
-0.138899
0.0256735
-0.172314
0.000136595
0.00304315
0.00364807
0.000366022
0.0029591
0.00369973
0.00130895
0.00292247
0.000894518
0.000238246
0.00256544
0.00461042
-0.0018552
0.00255334
0.0034
0.00273565
-0.00391989
2.89171e-05
0.00264799
5.78874e-05
0.00259986
0.000175388
0.00251367
1.39244e-05
0.00247613
-0.000136383
0.00252449
0.00236345
-1.117e-14
-2.711e-12
3.95082e-10
3.1042e-14
-1.20768e-11
4.00279e-10
2.34251e-13
-4.64103e-12
3.83113e-10
2.31272e-13
-4.12882e-11
4.14973e-10
6.81185e-13
-6.5944e-11
4.39254e-10
1.25622e-11
3.22129e-10
-2.61568e-11
6.75426e-08
3.38242e-08
-3.10826e-11
6.69853e-08
3.42634e-08
-1.10947e-10
6.46382e-08
3.3006e-08
2.83248e-11
6.41844e-08
3.53842e-08
6.82632e-10
6.39149e-08
3.71971e-08
5.67657e-08
2.84509e-08
-9.10359e-09
7.08866e-06
1.12409e-06
-4.49971e-09
7.07316e-06
1.13767e-06
-3.82655e-08
6.81377e-06
1.11892e-06
1.20456e-08
6.99764e-06
1.14736e-06
1.47924e-07
7.09694e-06
1.17024e-06
5.93901e-06
1.03725e-06
-5.24843e-07
-0.000500794
6.74943e-05
6.11171e-08
-0.000509628
6.81826e-05
-9.65246e-07
-0.000478496
6.54439e-05
7.03844e-07
-0.000545363
7.25793e-05
3.81475e-06
-0.000568594
7.65881e-05
-0.000380925
5.42745e-05
-7.00416e-06
-0.00215144
0.000261995
2.12577e-07
-0.00219284
0.000263948
2.65596e-06
-0.00215384
0.000265651
-7.33271e-06
-0.00213048
0.000258216
-1.93191e-05
-0.00212265
0.000252822
-0.00210808
0.000271721
-4.70011e-06
-0.000790119
-3.22008e-06
-9.9584e-06
-0.000787461
-2.74161e-06
-2.71492e-06
-0.000795029
-2.6048e-06
-3.63696e-05
-0.000669866
-3.20177e-06
-6.81294e-05
-0.000563147
-2.46985e-06
-0.000772462
-2.33595e-06
9.34402e-06
-0.00697387
-3.58995e-05
-4.75198e-06
-0.00678872
-3.70661e-05
-1.98786e-05
-0.00685453
-3.758e-05
-3.56592e-06
-0.00653231
-3.32373e-05
1.16669e-06
-0.005504
-2.51808e-05
-0.00678987
-3.8267e-05
2.69608e-05
-0.0339698
-0.00154464
-5.16578e-05
-0.0320317
-0.00153372
-0.000259718
-0.0361023
-0.00156916
-1.20317e-05
-0.0265214
-0.00137248
0.000192162
-0.0193628
-0.000962789
-0.0370807
-0.00159968
0.00023015
-0.160232
-0.0403942
-0.000296973
-0.161436
-0.0405872
-0.0011893
-0.167645
-0.0420916
0.000459803
-0.149409
-0.0373764
0.00120931
-0.133444
-0.03218
-0.171782
-0.0446237
-0.000448408
-0.136559
-0.234603
-0.00164941
-0.137899
-0.235815
-0.00319942
-0.147577
-0.240137
-0.0014237
-0.119783
-0.238477
0.00226227
-0.109922
-0.236634
-0.157572
-0.25215
-0.00045532
-0.00159538
-0.264307
-0.00140617
-0.00158774
-0.267516
-0.00289728
-0.0015539
-0.282009
-0.00038481
-0.001862
-0.24128
0.000837993
-0.00221563
-0.202186
-0.0015772
-0.296866
1.23261e-05
0.00070316
3.55729e-05
0.000691555
6.60943e-05
0.000673315
5.02722e-05
0.000447102
-4.23084e-05
0.000271625
0.000561083
-4.01164e-15
1.05701e-10
2.32116e-11
-1.71817e-15
1.08624e-10
2.35438e-11
5.25717e-15
1.03561e-10
2.25469e-11
1.0994e-14
1.20961e-10
2.44199e-11
4.1688e-14
1.33718e-10
2.57647e-11
8.01923e-11
1.90934e-11
-1.70872e-12
1.34952e-08
1.48697e-09
-1.36417e-12
1.37647e-08
1.51068e-09
-3.063e-12
1.33676e-08
1.4494e-09
8.3363e-13
1.47597e-08
1.54426e-09
1.83842e-11
1.58149e-08
1.59935e-09
1.13105e-08
1.26364e-09
-4.14087e-10
4.9945e-07
2.17792e-08
-3.03971e-10
5.05769e-07
2.19295e-08
-1.4442e-09
5.15908e-07
2.10227e-08
2.10342e-10
5.09194e-07
2.20096e-08
4.86665e-09
5.08215e-07
2.22973e-08
5.08429e-07
1.85609e-08
-4.78162e-08
-1.41589e-05
5.93876e-07
-1.69889e-08
-1.48375e-05
6.01038e-07
-1.08801e-07
-1.39141e-05
5.84342e-07
4.66801e-08
-1.5784e-05
6.20916e-07
3.08528e-07
-1.67637e-05
6.48521e-07
-1.1934e-05
5.15799e-07
-5.29997e-07
-3.33956e-06
4.49236e-06
-1.73032e-07
-3.68855e-06
4.5169e-06
-3.33638e-08
-3.4606e-06
4.50384e-06
-1.24606e-07
-3.6525e-06
4.42914e-06
-3.44796e-07
-3.97196e-06
4.33078e-06
-2.99552e-06
4.46922e-06
-1.95966e-07
-3.8026e-07
-4.54418e-06
-1.8222e-07
-4.52316e-07
-4.53806e-06
1.54991e-07
-4.49333e-07
-4.52462e-06
-4.25023e-07
-3.7267e-07
-4.4901e-06
-8.93536e-07
-2.64484e-07
-4.42044e-06
-4.29428e-07
-4.4317e-06
-2.37456e-08
-3.56407e-05
-4.14878e-07
-3.04639e-08
-3.68743e-05
-4.31136e-07
-2.80025e-08
-3.74033e-05
-4.2695e-07
-7.09353e-08
-3.29626e-05
-4.0416e-07
-2.45831e-08
-2.49856e-05
-3.36861e-07
-3.80932e-05
-4.31599e-07
-7.89201e-07
-0.00157946
-2.76485e-08
-1.19672e-06
-0.00157016
-2.61625e-08
-4.93287e-06
-0.0016028
-2.56795e-08
-2.54199e-06
-0.00140779
-2.60868e-08
4.09545e-06
-0.00099437
-2.32527e-08
-0.00163366
-2.62773e-08
-1.37686e-06
-0.0410969
-0.000822341
1.36394e-05
-0.0412603
-0.000859313
4.16142e-05
-0.0428298
-0.000846003
4.08825e-05
-0.0378694
-0.000857771
-6.58046e-05
-0.0321935
-0.000872397
-0.0453882
-0.000894587
-0.00035346
-0.260505
-0.0662707
-0.00110968
-0.264027
-0.0670247
-0.00197724
-0.268993
-0.0689372
-0.000590911
-0.262574
-0.0626457
0.00111711
-0.230629
-0.0523091
-0.276949
-0.0721051
-0.000928693
-0.0533775
-0.446276
-0.00457369
-0.0571777
-0.449303
-0.0158125
-0.0734785
-0.446396
-0.0113357
-0.0372527
-0.455408
0.0225818
-0.000119778
-0.452956
-0.0860996
-0.448579
-2.88006e-05
-0.149661
-0.000770891
-0.164316
-0.00105157
-0.204928
-4.01281e-07
-0.081778
7.25527e-06
1.18145e-05
-0.237022
-7.79424e-17
-4.87345e-12
6.27169e-13
-4.63518e-17
-4.93858e-12
6.36838e-13
1.89312e-17
-4.74956e-12
6.08986e-13
1.44602e-16
-5.09639e-12
6.73473e-13
5.52568e-16
-5.33733e-12
7.23443e-13
-4.08535e-12
5.02541e-13
-3.55255e-14
8.10633e-13
3.03499e-11
-2.42618e-14
8.21221e-13
3.09504e-11
-3.68062e-14
4.61309e-13
2.95767e-11
1.30699e-14
1.28996e-11
3.21151e-11
2.01671e-13
2.5469e-11
3.36902e-11
-1.41084e-11
2.53561e-11
-7.598e-12
2.07453e-09
4.71628e-10
-4.05058e-12
1.9195e-09
4.77043e-10
-1.68844e-11
2.05046e-09
4.65261e-10
-7.91987e-13
1.89889e-09
4.87755e-10
4.66122e-11
1.79286e-09
5.01449e-10
1.96495e-09
4.18525e-10
-1.04829e-09
5.05871e-07
1.53995e-08
-6.44852e-10
5.08579e-07
1.56142e-08
-2.71122e-09
4.99108e-07
1.50259e-08
6.43672e-10
5.20951e-07
1.63648e-08
6.84822e-09
5.37257e-07
1.72819e-08
4.49066e-07
1.2811e-08
-1.47983e-08
4.39619e-06
1.41952e-07
-3.80472e-09
4.39037e-06
1.42893e-07
-4.68622e-09
4.38487e-06
1.41597e-07
7.79498e-09
4.33131e-06
1.41651e-07
1.19299e-08
4.2702e-06
1.39269e-07
4.31215e-06
1.38392e-07
-1.50865e-09
4.4984e-08
-1.56632e-07
-5.05368e-11
4.41152e-08
-1.57532e-07
6.32786e-09
4.54432e-08
-1.55958e-07
-1.88432e-09
3.94415e-08
-1.56815e-07
-1.34688e-08
4.55975e-08
-1.54965e-07
5.24114e-08
-1.50935e-07
1.22497e-11
3.39236e-08
-2.16726e-09
4.70873e-11
3.23154e-08
-2.00939e-09
2.94235e-10
3.14579e-08
-1.90737e-09
-4.93566e-11
3.31528e-08
-2.19241e-09
-5.94323e-10
3.4472e-08
-2.31879e-09
3.19358e-08
-1.90323e-09
-2.40972e-12
6.71759e-09
-4.76434e-10
-3.77738e-12
6.55393e-09
-4.46459e-10
-4.74941e-12
6.17658e-09
-4.41378e-10
-1.52847e-11
7.83752e-09
-4.47639e-10
-8.22408e-12
1.14519e-08
-2.62239e-10
6.34137e-09
-4.45606e-10
-1.92696e-07
-0.000822142
3.73518e-10
-9.5812e-08
-0.000859403
1.79496e-10
2.2633e-07
-0.000846318
2.14732e-10
-4.95983e-07
-0.000857013
2.28416e-10
-5.5919e-07
-0.000872286
-2.05398e-08
-0.000895117
2.19255e-10
-1.82215e-05
-0.0650695
-0.00195265
4.6114e-06
-0.0658942
-0.00196078
0.000114571
-0.0678368
-0.00201067
5.711e-05
-0.0615656
-0.00182439
-0.000126535
-0.0513961
-0.00155582
-0.071012
-0.00207483
0.000384684
-0.354572
-0.130899
-0.00343476
-0.356548
-0.131538
-0.0110069
-0.353889
-0.131288
-0.00128327
-0.376977
-0.132171
0.0123545
-0.365047
-0.127446
-0.357352
-0.131979
0.000699739
-0.459514
-0.0157668
-0.459446
-0.0699928
-0.459942
-0.0365013
-0.447597
0.0916246
-0.44826
-0.457223
1.47303e-13
-4.90869e-10
-2.5169e-08
3.91742e-14
-4.8835e-10
-2.51372e-08
-1.4808e-14
-4.89185e-10
-2.51473e-08
-7.06561e-14
-4.88984e-10
-2.5146e-08
-1.80633e-13
-4.87254e-10
-2.51262e-08
-4.91322e-10
-2.51749e-08
4.70558e-15
5.21491e-17
-1.44492e-14
1.31588e-15
5.72696e-17
-1.43342e-14
-4.12451e-16
5.88292e-17
-1.43732e-14
-2.19349e-15
5.74846e-17
-1.43733e-14
-5.39634e-15
5.71361e-17
-1.43067e-14
5.8547e-17
-1.44585e-14
-1.77669e-21
-4.21115e-18
-7.42171e-22
-4.20586e-18
-5.47961e-23
-4.20801e-18
6.26455e-22
-4.21186e-18
1.97251e-21
-4.20832e-18
-4.2151e-18
6.57628e-13
-7.61952e-12
-5.94732e-09
-4.68046e-13
-7.60171e-12
-5.94398e-09
-3.25414e-12
-7.60934e-12
-5.93295e-09
-6.31817e-12
-7.61354e-12
-5.93742e-09
-8.55076e-12
-7.60548e-12
-5.95832e-09
-7.61383e-12
-5.93075e-09
1.49625e-18
-6.95657e-15
-7.62611e-12
-1.90011e-19
-6.9456e-15
-7.60819e-12
-1.84806e-18
-6.95008e-15
-7.61586e-12
-3.09782e-18
-6.95576e-15
-7.62005e-12
-4.94126e-18
-6.94917e-15
-7.61193e-12
-6.9599e-15
-7.62043e-12
2.45375e-21
-6.91676e-15
8.37733e-22
-6.90573e-15
-3.0682e-22
-6.91024e-15
-1.16787e-21
-6.91593e-15
-3.56345e-21
-6.90931e-15
-6.9201e-15
-1.01093e-13
-8.92709e-11
-7.55752e-09
-2.28781e-14
-8.90813e-11
-7.50918e-09
-2.70263e-14
-8.924e-11
-7.55988e-09
-3.83348e-14
-8.92258e-11
-7.54763e-09
9.02393e-15
-8.89551e-11
-7.45273e-09
-8.93955e-11
-7.60949e-09
-9.22936e-16
-1.51356e-13
-9.77649e-11
-2.80488e-16
-1.50875e-13
-9.7556e-11
-4.55354e-16
-1.51251e-13
-9.77226e-11
-5.04153e-16
-1.51267e-13
-9.77135e-11
-1.50001e-16
-1.50573e-13
-9.74342e-11
-1.51741e-13
-9.78833e-11
5.32419e-19
-1.58069e-13
-8.68751e-20
-1.57576e-13
-1.13928e-18
-1.57956e-13
-1.62336e-18
-1.57978e-13
-2.98246e-18
-1.57279e-13
-1.58457e-13
-2.52039e-12
-1.52996e-09
-1.16246e-08
1.49419e-13
-1.52798e-09
-1.16833e-08
-4.62221e-14
-1.52906e-09
-1.16447e-08
-6.19561e-13
-1.52975e-09
-1.16359e-08
1.14786e-12
-1.52886e-09
-1.16964e-08
-1.52906e-09
-1.15887e-08
-7.92043e-14
-2.40622e-11
-1.72035e-09
-1.04184e-14
-2.40118e-11
-1.71788e-09
-1.72822e-14
-2.4039e-11
-1.7192e-09
-1.50757e-14
-2.40532e-11
-1.71988e-09
2.59254e-14
-2.40267e-11
-1.71863e-09
-2.40438e-11
-1.71909e-09
-5.78854e-16
-3.28883e-11
-4.22577e-16
-3.26677e-11
-8.96986e-16
-3.27877e-11
-7.89551e-16
-3.28134e-11
-9.96744e-16
-3.27051e-11
-3.28523e-11
1.98974e-09
2.7232e-07
1.74533e-06
1.04241e-10
2.72952e-07
1.76103e-06
-6.69313e-11
2.72589e-07
1.75339e-06
2.00825e-10
2.72509e-07
1.75026e-06
-8.57874e-10
2.72796e-07
1.75625e-06
2.71638e-07
1.74467e-06
3.89351e-11
1.90785e-09
2.813e-07
-4.85238e-13
1.91175e-09
2.82076e-07
-4.46188e-12
1.91033e-09
2.81653e-07
1.96394e-13
1.9124e-09
2.81604e-07
-2.58424e-11
1.91199e-09
2.81894e-07
1.91396e-09
2.80785e-07
2.76198e-13
-1.76554e-08
-8.73643e-14
-1.75184e-08
-1.72849e-13
-1.75929e-08
-5.05154e-14
-1.76122e-08
-3.82838e-13
-1.75425e-08
-1.76471e-08
-1.48783e-08
2.93302e-05
-0.000114425
-2.11177e-08
2.9342e-05
-0.000113924
-2.80381e-08
2.93343e-05
-0.000114141
-2.02175e-08
2.93396e-05
-0.000114332
-2.34199e-08
2.93427e-05
-0.000114129
2.93189e-05
-0.000114491
-1.68112e-09
5.76701e-06
2.30958e-05
-3.02059e-09
5.76419e-06
2.31141e-05
-3.68228e-09
5.76498e-06
2.31028e-05
-4.37282e-09
5.76706e-06
2.31058e-05
-5.26465e-09
5.76527e-06
2.31122e-05
5.7651e-06
2.3081e-05
1.1572e-10
2.2291e-06
-4.14196e-11
2.22906e-06
-5.82215e-11
2.22883e-06
-9.8148e-11
2.22943e-06
-2.15453e-10
2.2291e-06
2.22779e-06
-6.4897e-07
2.20606e-05
-4.14625e-06
-2.60646e-07
2.21449e-05
-4.14422e-06
-2.62969e-07
2.20898e-05
-4.14491e-06
-3.77122e-07
2.20959e-05
-4.14502e-06
-1.2939e-07
2.2146e-05
-4.14423e-06
2.20324e-05
-4.14593e-06
-7.59755e-09
3.48123e-05
1.43445e-05
-1.1136e-08
3.48415e-05
1.4399e-05
-1.4624e-08
3.4821e-05
1.43696e-05
-1.23613e-08
3.48338e-05
1.43586e-05
2.55228e-09
3.48426e-05
1.43753e-05
3.48105e-05
1.43049e-05
-2.22121e-10
9.23597e-06
-5.21606e-10
9.25182e-06
-6.23429e-10
9.24324e-06
-7.37262e-10
9.2451e-06
1.32215e-10
9.24651e-06
9.23001e-06
-4.49375e-10
-6.37666e-07
-7.48476e-06
-3.73862e-10
-6.22109e-07
-7.48008e-06
-3.38857e-10
-6.27009e-07
-7.48284e-06
-8.91437e-10
-6.30154e-07
-7.4805e-06
-1.33164e-09
-6.27079e-07
-7.48287e-06
-6.28108e-07
-7.48028e-06
1.95354e-08
9.78833e-06
-8.83646e-06
-4.14424e-10
9.82435e-06
-8.84806e-06
-5.32756e-09
9.80505e-06
-8.84229e-06
-2.1723e-09
9.80599e-06
-8.84971e-06
-8.46891e-09
9.81252e-06
-8.84889e-06
9.77948e-06
-8.84876e-06
2.63056e-09
4.67137e-06
5.19514e-10
4.68685e-06
2.32734e-11
4.68094e-06
2.69661e-10
4.67896e-06
9.20416e-10
4.67822e-06
4.66593e-06
3.74246e-10
-2.15045e-05
-5.48238e-05
-3.46064e-10
-2.1575e-05
-5.47965e-05
-5.06046e-10
-2.15479e-05
-5.48236e-05
-8.7637e-10
-2.15358e-05
-5.47987e-05
-1.33013e-09
-2.15551e-05
-5.48551e-05
-2.15366e-05
-5.47765e-05
3.33086e-08
-1.1878e-05
-2.90756e-07
8.04008e-10
-1.1894e-05
-2.94488e-07
-5.13289e-09
-1.18886e-05
-2.93944e-07
-2.67356e-09
-1.18875e-05
-2.94644e-07
-1.80753e-08
-1.18806e-05
-2.99521e-07
-1.1867e-05
-3.19003e-07
2.67494e-10
1.68537e-06
5.35321e-10
1.69253e-06
6.35295e-10
1.68933e-06
6.36559e-10
1.6889e-06
1.26678e-09
1.68836e-06
1.68034e-06
2.46569e-09
-1.75177e-07
-0.000853873
-1.80475e-09
-1.7708e-07
-0.000854031
1.56392e-09
-1.82845e-07
-0.000854184
-8.32578e-10
-1.85132e-07
-0.00085379
-7.25944e-09
-1.84853e-07
-0.000854841
-1.70536e-07
-0.000853225
8.54486e-11
-9.82751e-08
-7.21393e-08
-3.34327e-12
-9.90472e-08
-7.21184e-08
-1.04007e-11
-9.87372e-08
-7.21738e-08
1.11143e-12
-9.9044e-08
-7.2469e-08
-1.81925e-11
-9.94534e-08
-7.28597e-08
-9.93278e-08
-7.32503e-08
4.38971e-12
1.5974e-06
4.08852e-12
1.60373e-06
-1.02046e-12
1.60093e-06
7.91654e-12
1.60009e-06
3.72908e-11
1.59913e-06
1.59141e-06
1.44663e-07
-3.83348e-05
-0.00863672
1.20925e-08
-3.83497e-05
-0.00865321
3.01666e-08
-3.83483e-05
-0.00864867
1.63403e-08
-3.83474e-05
-0.00864317
8.33885e-10
-3.83585e-05
-0.00865105
-3.83533e-05
-0.00864471
9.65897e-11
-3.80232e-05
-5.50528e-08
7.61671e-11
-3.80427e-05
-5.47969e-08
3.35571e-10
-3.80414e-05
-5.49924e-08
1.74423e-10
-3.80403e-05
-5.47849e-08
-3.07705e-10
-3.80481e-05
-5.46358e-08
-3.8036e-05
-5.57532e-08
-5.19134e-11
3.64526e-06
5.63933e-11
3.63807e-06
-2.41925e-09
3.64191e-06
1.74002e-09
3.63787e-06
1.03465e-08
3.62774e-06
3.65318e-06
-1.98903e-07
-1.01143e-05
-0.105863
-3.66385e-06
-1.00641e-05
-0.105827
-6.52814e-06
-1.0087e-05
-0.105848
-5.74221e-07
-1.00639e-05
-0.105873
1.17429e-05
-1.00367e-05
-0.105938
-1.01761e-05
-0.105798
-7.99986e-12
-1.01687e-05
1.71349e-17
-4.99374e-12
-1.01183e-05
2.00371e-17
7.09226e-11
-1.01413e-05
6.5753e-16
-8.42154e-12
-1.01179e-05
2.50503e-15
-2.16374e-10
-1.00905e-05
2.93369e-18
-1.02313e-05
9.2834e-18
7.67896e-10
5.33283e-28
5.25082e-10
9.08648e-28
4.7251e-10
7.32077e-28
3.61746e-10
2.99943e-27
-1.6206e-09
4.9465e-27
3.68415e-27
-0.000281555
-0.00038082
-0.390232
0.478442
-0.000308875
-0.000404154
-0.390263
0.478242
-0.00080524
-0.000424967
-0.390288
0.478768
-0.000313548
-0.00028014
-0.390283
0.477677
0.00113051
-0.000212359
-0.390278
0.476716
-0.000476877
-0.39051
0.479772
-7.75528e-08
-4.37745e-06
-0.000389763
1.35385e-05
-2.13126e-08
-4.13452e-06
-0.000414174
1.42162e-05
9.85335e-08
-4.28969e-06
-0.00043565
1.49537e-05
-7.69247e-09
-1.56807e-09
-0.000289877
9.84505e-06
-1.39299e-07
-1.85986e-09
-0.000219677
7.45408e-06
-1.85543e-06
-0.000489641
1.66739e-05
-1.40966e-09
5.07896e-25
4.22998e-07
-1.15121e-10
2.13959e-25
2.7723e-07
1.69307e-09
9.92798e-25
2.32613e-07
-8.6238e-14
3.72179e-25
1.2509e-10
-6.37495e-10
2.65351e-25
3.31484e-11
3.79817e-25
2.55274e-08
-3.50798e-05
-0.000568441
-0.301711
-9.97863e-05
-0.0004421
-0.30182
-0.000210823
-0.000415637
-0.301809
9.86158e-06
-0.00065594
-0.30184
0.000479104
-0.000783427
-0.30191
-0.000113759
-0.301864
-7.20623e-07
9.64446e-25
-0.000978079
-5.94202e-07
4.10092e-25
-0.000940293
-9.10983e-10
1.89554e-24
-0.00098814
2.34039e-07
7.13308e-25
-0.000850589
5.81824e-07
5.10521e-25
-0.000771382
7.14922e-25
-0.000949398
1.00788e-27
-1.12495e-25
-4.52625e-28
-4.8442e-26
-4.34849e-27
-2.22016e-25
-3.55772e-29
-8.29708e-26
3.89919e-27
-5.78856e-26
-8.42347e-26
-6.19416e-05
-0.00772843
-0.206027
-0.000134155
-0.00776733
-0.206062
-0.000462149
-0.00755098
-0.205994
-7.43501e-05
-0.008157
-0.206119
0.000888435
-0.00858323
-0.206282
-0.00714867
-0.205773
-1.75431e-06
2.27119e-24
4.12025e-18
-3.73577e-06
2.16579e-24
5.74178e-18
-9.12098e-06
2.23304e-24
2.86644e-16
-1.18371e-06
2.00837e-24
1.05952e-15
1.55458e-05
4.01364e-24
2.99983e-24
1.23971e-24
2.30247e-24
2.2237e-28
-3.25211e-25
1.33096e-27
-3.12106e-25
2.16009e-27
-3.21021e-25
-9.51892e-28
-2.85415e-25
-1.48888e-26
-5.63931e-25
-1.79965e-25
-5.96506e-05
2.69268e-18
-0.0897785
-0.000151848
3.76412e-18
-0.0897883
-0.000365485
1.86791e-16
-0.0898096
-6.20518e-06
7.02188e-16
-0.0897638
0.000678403
2.01144e-24
-0.0898859
1.49642e-24
-0.0896583
4.2817e-20
7.03653e-24
-8.41748e-20
2.08876e-18
8.81642e-24
-1.20592e-19
2.59989e-17
9.56223e-24
-6.11727e-18
2.37331e-26
9.6549e-24
-2.78861e-17
-1.37251e-25
9.24066e-24
-8.87395e-26
6.88907e-24
-4.35133e-26
4.49076e-27
-1.68289e-24
8.93327e-28
-2.10145e-24
-3.56761e-28
-2.30064e-24
3.68456e-27
-2.27998e-24
-2.16592e-27
-2.13782e-24
-1.69743e-24
-7.54335e-05
1.52282e-16
0.0292695
-0.000107614
2.1004e-16
0.0292915
-0.000371716
9.89349e-15
0.0292873
-3.88754e-06
3.83904e-14
0.0293388
0.000831476
1.83918e-24
0.0293852
1.45912e-24
0.029248
1.04905e-18
7.04877e-25
-1.60206e-16
5.19672e-17
1.18662e-24
-2.20973e-16
6.05911e-16
9.61805e-25
-1.04518e-14
5.51319e-27
3.83903e-24
-4.02758e-14
-7.02252e-26
6.29828e-24
-1.92237e-24
4.7002e-24
-1.5524e-24
1.22278e-28
-3.35359e-25
-5.18051e-29
-5.62742e-25
-4.49959e-28
-4.59054e-25
4.28199e-28
-1.81104e-24
4.67277e-27
-2.9217e-24
-2.28072e-24
-3.63868e-05
4.43359e-17
-7.05333e-05
5.18799e-17
-0.000209517
1.69736e-15
-1.47284e-05
6.49804e-15
0.000473034
7.63731e-18
2.38547e-17
4.02041e-20
2.71845e-26
1.14736e-18
4.60572e-26
9.4912e-18
3.72034e-26
3.70916e-21
1.50889e-25
-2.56162e-20
2.44915e-25
1.89754e-25
-1.41359e-30
-5.07289e-30
-1.8174e-29
-7.97944e-30
1.68658e-28
-7.40312e-19
5.02306e-15
-7.51397e-15
-4.061e-19
4.98165e-15
-7.6673e-15
2.09455e-19
4.90638e-15
-7.32969e-15
1.51965e-18
4.97922e-15
-8.16647e-15
4.17241e-18
4.53985e-15
-8.83124e-15
4.03444e-15
-5.96629e-15
-6.02974e-21
2.07966e-15
9.43772e-18
-1.84595e-21
2.04671e-15
9.54608e-18
6.11929e-21
2.04189e-15
9.16747e-18
2.05278e-20
1.93409e-15
1.00545e-17
3.83489e-20
1.61942e-15
1.07516e-17
1.68831e-15
7.61758e-18
-1.88572e-22
5.28861e-19
-2.48394e-22
5.28925e-19
-2.76966e-22
5.17616e-19
-5.86348e-23
5.41377e-19
2.51851e-22
5.46573e-19
4.39933e-19
-3.40703e-16
2.68799e-13
1.21349e-12
-2.57389e-16
2.72413e-13
1.23754e-12
-2.51469e-16
2.60882e-13
1.16146e-12
1.84432e-16
2.89391e-13
1.34239e-12
1.48069e-15
3.12792e-13