/*--------------------------------*- C++ -*----------------------------------*\
| =========                 |                                                 |
| \\      /  F ield         | OpenFOAM: The Open Source CFD Toolbox           |
|  \\    /   O peration     | Version:  v1612+                                |
|   \\  /    A nd           | Web:      www.OpenFOAM.com                      |
|    \\/     M anipulation  |                                                 |
\*---------------------------------------------------------------------------*/
FoamFile
{
    version     2.0;
    format      ascii;
    class       volVectorField;
    location    "4.65";
    object      U;
}
// * * * * * * * * * * * * * * * * * * * * * * * * * * * * * * * * * * * * * //

dimensions      [0 1 -1 0 0 0 0];

internalField   nonuniform List<vector> 
1116
(
(0.152419 -1.33603e-05 -0.186576)
(0.152418 -1.59099e-05 -0.186584)
(0.15242 -5.39568e-06 -0.186573)
(0.152421 -2.9431e-06 -0.186572)
(0.152419 7.9911e-06 -0.186582)
(0.152416 1.22703e-05 -0.186571)
(0.46101 -8.35503e-06 -0.32268)
(0.46102 -1.46382e-05 -0.322695)
(0.461018 -5.34589e-06 -0.322677)
(0.46102 -8.07179e-07 -0.322673)
(0.461019 7.5145e-06 -0.32269)
(0.461008 7.84933e-06 -0.322677)
(0.68375 -4.90423e-07 -0.322736)
(0.683777 -9.84422e-06 -0.322756)
(0.683771 -3.9316e-06 -0.322737)
(0.683773 5.61111e-07 -0.322732)
(0.683774 2.06738e-06 -0.322751)
(0.683753 -2.27096e-07 -0.322742)
(0.77152 6.81669e-06 -0.269194)
(0.771561 -2.99198e-06 -0.269219)
(0.771551 -2.93258e-06 -0.269201)
(0.771552 1.89007e-07 -0.269196)
(0.771555 -5.25764e-06 -0.269215)
(0.771525 -7.70325e-06 -0.269205)
(0.567889 4.17235e-06 -0.17404)
(0.567954 -2.64183e-06 -0.174068)
(0.567938 -2.97854e-06 -0.174053)
(0.567936 -4.42377e-06 -0.174049)
(0.567948 -1.07469e-05 -0.174067)
(0.567901 -9.82804e-06 -0.174054)
(-0.157743 5.79875e-06 0.0596323)
(-0.157664 2.90051e-06 0.0596167)
(-0.15768 -5.75181e-06 0.059622)
(-0.157678 -5.61055e-06 0.0596237)
(-0.15766 -1.34493e-05 0.0596136)
(-0.157723 -1.15538e-05 0.0596241)
(-1.20843 -4.50217e-06 0.420972)
(-1.20837 1.13243e-05 0.42098)
(-1.20837 6.30973e-06 0.420974)
(-1.20836 2.38222e-07 0.420976)
(-1.20835 -1.1979e-05 0.420973)
(-1.20842 -1.04436e-05 0.420986)
(-2.49272 -2.48009e-05 0.539573)
(-2.49271 8.44097e-06 0.53962)
(-2.49264 2.17094e-05 0.539607)
(-2.49264 7.6795e-06 0.539611)
(-2.49264 -8.39329e-06 0.539623)
(-2.49275 -6.24226e-06 0.539586)
(-3.54398 6.2571e-06 0.0690519)
(-3.54408 1.84163e-05 0.0691264)
(-3.54394 1.64997e-05 0.0691307)
(-3.54393 2.05832e-05 0.069138)
(-3.54396 -1.45747e-05 0.0691564)
(-3.54404 -1.52438e-05 0.0690332)
(-3.52466 0.000143851 -0.699063)
(-3.52495 8.88619e-05 -0.698969)
(-3.52476 -4.06215e-05 -0.698956)
(-3.52476 3.11999e-05 -0.698951)
(-3.52484 -6.04946e-05 -0.698943)
(-3.52474 -7.08953e-05 -0.699086)
(-2.33377 0.00023569 -1.24007)
(-2.334 0.000133655 -1.23996)
(-2.33384 -9.72648e-05 -1.23997)
(-2.33387 2.78228e-05 -1.23997)
(-2.33397 -0.000108871 -1.23996)
(-2.33381 -0.000130023 -1.2401)
(-0.911687 -1.98294e-06 -0.958799)
(-0.9115 -2.64929e-05 -0.95871)
(-0.911544 -2.53964e-05 -0.958768)
(-0.911587 -1.34739e-06 -0.958762)
(-0.911582 -4.47918e-05 -0.958719)
(-0.911622 -4.32864e-05 -0.958857)
(1.28815 -8.3552e-05 -0.833857)
(1.28818 -8.35056e-05 -0.833975)
(1.28817 4.23221e-06 -0.834004)
(1.28817 1.14802e-05 -0.833997)
(1.28818 0.000101269 -0.83399)
(1.28816 9.25841e-05 -0.833889)
(4.14362 -0.000111277 -0.531472)
(4.1436 -0.000113026 -0.53158)
(4.1436 1.46736e-05 -0.531628)
(4.14359 1.40376e-05 -0.531618)
(4.14359 0.000157735 -0.531592)
(4.14366 0.00012973 -0.531514)
(5.59695 -0.000113294 -0.231701)
(5.59693 -9.45158e-05 -0.231761)
(5.59692 4.13649e-05 -0.231822)
(5.59689 7.77604e-06 -0.2318)
(5.59691 0.000195803 -0.231766)
(5.59707 0.000158527 -0.231729)
(9.51538 -0.000129882 0.671584)
(9.51526 -0.00013744 0.671632)
(9.51565 3.61201e-05 0.671613)
(9.51537 -1.06308e-06 0.671607)
(9.51524 0.00013383 0.671632)
(9.51568 0.000104725 0.671622)
(3.56726 -3.30754e-05 0.877697)
(3.56797 -3.35715e-05 0.877677)
(3.56766 2.86533e-05 0.877678)
(3.56764 -4.69449e-06 0.877683)
(3.56791 -1.57193e-05 0.877675)
(3.5675 -1.01119e-05 0.877672)
(0.200326 0.000138988 1.51708)
(0.200561 7.68622e-05 1.51711)
(0.200479 -7.40732e-05 1.51709)
(0.200504 1.61181e-05 1.51707)
(0.200578 -7.5862e-05 1.51709)
(0.200396 -0.000111618 1.51705)
(-1.15313 0.000105855 1.70426)
(-1.15288 6.84076e-05 1.70431)
(-1.15295 -4.17039e-05 1.70429)
(-1.15292 3.6644e-05 1.70428)
(-1.15282 -5.76472e-05 1.7043)
(-1.15307 -9.20487e-05 1.70425)
(-1.89177 3.15929e-05 1.33366)
(-1.8918 2.22872e-05 1.33364)
(-1.89173 -1.13704e-05 1.33367)
(-1.89171 1.44834e-05 1.33368)
(-1.8917 -1.97727e-05 1.33368)
(-1.89182 -3.13148e-05 1.33365)
(-2.38023 0.00017215 0.53028)
(-2.38045 8.52397e-05 0.530397)
(-2.38029 -6.60203e-05 0.530406)
(-2.38027 6.24531e-05 0.530422)
(-2.38032 -2.60493e-05 0.530465)
(-2.38031 -5.96213e-05 0.530301)
(-2.08163 0.00056743 -0.605584)
(-2.08181 0.000302404 -0.604869)
(-2.08163 -0.00024432 -0.605058)
(-2.0817 0.000121209 -0.605114)
(-2.08177 -0.000117253 -0.604928)
(-2.08163 -0.000217156 -0.605423)
(-1.48939 0.000343658 -1.83096)
(-1.48851 0.000179036 -1.82993)
(-1.48874 -0.000192996 -1.83026)
(-1.48899 -8.57768e-06 -1.8304)
(-1.48888 -4.33404e-05 -1.83011)
(-1.48899 -6.76465e-05 -1.83079)
(-0.967017 -0.000363493 -1.8658)
(-0.966776 -0.000214003 -1.86602)
(-0.966772 8.82674e-05 -1.86596)
(-0.966898 -0.000149906 -1.86595)
(-0.967043 0.000127127 -1.86598)
(-0.966778 0.000208993 -1.866)
(-0.619568 -3.03878e-05 -3.59285)
(-0.619448 -1.27307e-05 -3.59335)
(-0.619488 1.5149e-05 -3.59328)
(-0.619472 9.44963e-06 -3.59327)
(-0.619424 3.18093e-05 -3.59334)
(-0.619566 4.31407e-05 -3.59284)
(-1.82304 -5.27536e-05 -3.74239)
(-1.82288 -1.38555e-05 -3.74287)
(-1.82293 4.03296e-05 -3.74284)
(-1.82293 1.61646e-05 -3.74283)
(-1.82288 8.13377e-05 -3.74288)
(-1.82301 9.14779e-05 -3.7424)
(-1.81117 -0.000138666 -3.62081)
(-1.81108 -7.95752e-05 -3.62141)
(-1.81113 3.49425e-05 -3.62138)
(-1.81113 -2.87581e-05 -3.62138)
(-1.81108 7.85285e-05 -3.62142)
(-1.81103 0.000106975 -3.62085)
(-1.89908 1.49284e-05 0.190936)
(-1.89933 9.07912e-06 0.190068)
(-1.89938 -4.25261e-05 0.190192)
(-1.89929 -5.65134e-05 0.190203)
(-1.89924 -1.96074e-05 0.190112)
(-1.89882 -1.56805e-05 0.190827)
(4.53815 0.000687523 7.63044)
(4.53975 0.00036059 7.629)
(4.53909 -0.000267803 7.62972)
(4.53904 0.00019435 7.62983)
(4.5395 -0.000129035 7.62927)
(4.53905 -0.000321387 7.63)
(-4.36913 0.000791677 6.44259)
(-4.36197 0.000429575 6.44634)
(-4.36527 -0.000427032 6.44455)
(-4.36572 7.54563e-05 6.44422)
(-4.36337 -0.000372279 6.44558)
(-4.36639 -0.000511582 6.44332)
(-3.97502 0.00033726 2.7509)
(-3.97373 0.000162925 2.75201)
(-3.97436 -0.000179948 2.75153)
(-3.97438 8.28563e-05 2.75151)
(-3.974 -0.000158784 2.75186)
(-3.97468 -0.000251481 2.75117)
(-2.55515 0.000552354 1.49892)
(-2.55407 0.000287166 1.49966)
(-2.55458 -0.000240869 1.49932)
(-2.55462 0.000165222 1.49932)
(-2.5543 -0.000151505 1.49957)
(-2.55491 -0.000308838 1.49908)
(-2.09562 0.000676309 0.207846)
(-2.09403 0.000323887 0.209401)
(-2.09473 -0.000308876 0.208711)
(-2.09488 0.000218477 0.208662)
(-2.09442 -0.000163227 0.209174)
(-2.09521 -0.000354476 0.208207)
(-1.55196 4.59658e-05 -1.26219)
(-1.54858 -3.75183e-05 -1.25925)
(-1.55007 -4.01106e-05 -1.2605)
(-1.55042 1.73245e-05 -1.26077)
(-1.54944 9.36921e-06 -1.25984)
(-1.5511 1.38049e-05 -1.26147)
(-0.966624 -0.00109577 -2.32247)
(-0.961497 -0.000657507 -2.31986)
(-0.963767 0.000397287 -2.32093)
(-0.964105 -0.000445907 -2.32141)
(-0.962659 0.000414958 -2.32079)
(-0.965371 0.000787512 -2.32163)
(-1.19782 -0.000896984 -2.44693)
(-1.19773 -0.000458553 -2.44794)
(-1.19772 0.000246738 -2.44744)
(-1.19774 -0.000500298 -2.44772)
(-1.19794 0.000469492 -2.44831)
(-1.1976 0.000750074 -2.44681)
(0.0964605 -9.43643e-06 -0.812699)
(0.096429 -6.89836e-06 -0.813419)
(0.0964469 7.77819e-06 -0.813284)
(0.0964434 -5.54982e-06 -0.813289)
(0.0964358 1.78622e-05 -0.813429)
(0.0964834 1.14315e-05 -0.812678)
(-0.434286 -2.0514e-05 -1.06982)
(-0.434353 -8.67338e-06 -1.07043)
(-0.434321 2.43632e-05 -1.07033)
(-0.434321 2.71584e-06 -1.07034)
(-0.434329 2.52549e-05 -1.07045)
(-0.434245 1.26354e-05 -1.06979)
(-0.423175 -0.000136928 -1.59842)
(-0.423525 -7.79393e-05 -1.59898)
(-0.423377 4.52836e-05 -1.59889)
(-0.423341 -4.98309e-05 -1.5989)
(-0.423396 1.61198e-05 -1.59899)
(-0.423141 4.25347e-05 -1.59851)
(-2.1497 1.38525e-05 -1.91423)
(-2.1508 1.21599e-05 -1.91479)
(-2.1504 -2.58792e-05 -1.91469)
(-2.15028 -7.34842e-05 -1.91471)
(-2.15053 -7.31794e-05 -1.91487)
(-2.14993 -5.09129e-05 -1.91455)
(0.717566 0.00120189 6.55115)
(0.716131 0.000655458 6.54846)
(0.716731 -0.000523348 6.54964)
(0.716673 0.000298736 6.54983)
(0.716102 -0.000139465 6.54866)
(0.71685 -0.000499569 6.54978)
(-2.69387 0.000460681 9.42929)
(-2.68275 0.000114968 9.4359)
(-2.6875 -0.000494949 9.43281)
(-2.68945 -8.08594e-05 9.43228)
(-2.68543 -0.000178935 9.43448)
(-2.69011 -0.000266645 9.43124)
(-7.50832 -0.00127452 -0.651432)
(-7.50752 -0.000933713 -0.645946)
(-7.50799 0.000528395 -0.648438)
(-7.50859 -2.97233e-05 -0.648828)
(-7.50804 8.26533e-05 -0.646851)
(-7.50847 0.000308871 -0.64991)
(-5.87766 -0.00192014 -1.64888)
(-5.8747 -0.00130419 -1.64412)
(-5.8761 0.000996592 -1.64633)
(-5.87666 -6.35626e-05 -1.6466)
(-5.87552 0.000310237 -1.64486)
(-5.87716 0.000744509 -1.64776)
(-4.23253 -0.00287773 -1.5999)
(-4.22575 -0.00179884 -1.59644)
(-4.22888 0.00147972 -1.59809)
(-4.22956 -0.000451184 -1.59834)
(-4.22717 0.000583 -1.59691)
(-4.23123 0.00139692 -1.59919)
(-3.28118 -0.00349367 -2.46818)
(-3.27269 -0.00216239 -2.46897)
(-3.27675 0.00175256 -2.46873)
(-3.27707 -0.000723076 -2.46875)
(-3.27423 0.000750084 -2.46888)
(-3.27972 0.00181277 -2.46828)
(-2.30495 -0.00226337 -3.21863)
(-2.3018 -0.00137985 -3.2218)
(-2.30412 0.00110921 -3.22052)
(-2.30271 -0.000545879 -3.22067)
(-2.30132 0.000566711 -3.2221)
(-2.30594 0.00122967 -3.21896)
(-2.94825 -0.000704145 -3.15526)
(-2.94911 -0.00025014 -3.15655)
(-2.94893 0.000182189 -3.15582)
(-2.94887 -0.000647034 -3.15656)
(-2.9492 0.000652471 -3.15773)
(-2.94831 0.000991728 -3.15434)
(0.625251 9.16116e-05 0.643126)
(0.625284 0.000146632 0.643113)
(0.625448 0.000559232 0.643001)
(0.625024 0.000669518 0.642978)
(0.626263 0.00166002 0.642865)
(0.622718 0.00149936 0.642634)
(2.06026 0.000175682 0.858271)
(2.06073 -3.57083e-05 0.857362)
(2.06089 0.000232235 0.858239)
(2.05932 -0.00438336 0.856531)
(2.06386 0.00956439 0.858797)
(2.04933 0.0142925 0.854275)
(3.87214 -0.000316802 1.69341)
(3.87008 0.000549712 1.69132)
(3.86471 0.00168613 1.6933)
(3.8787 -0.0186211 1.6887)
(3.93098 0.038146 1.69651)
(3.79607 0.0573701 1.68423)
(7.74333 -0.00101658 2.09191)
(7.75228 0.00301004 2.09678)
(7.70684 0.0152806 2.09264)
(7.79654 -0.00367308 2.0952)
(7.99871 0.0566962 2.07164)
(7.44027 0.07354 2.15314)
(13.716 0.000534811 -0.14994)
(13.7758 0.00855286 -0.14752)
(13.6769 0.0242517 -0.151416)
(13.7859 0.0424445 -0.125083)
(14.0017 0.0437167 -0.195378)
(13.327 0.022871 0.0242092)
(16.8898 0.0166463 -3.77623)
(16.9798 0.0231779 -3.7923)
(16.8947 0.0175 -3.79469)
(16.9298 0.0768079 -3.73576)
(17.0697 0.0201286 -3.81849)
(16.6708 -0.0378234 -3.65661)
(16.1112 0.0292955 -5.18651)
(16.2159 0.037239 -5.22491)
(16.1823 0.0312126 -5.2402)
(16.1461 0.121114 -5.18973)
(16.2953 0.000316945 -5.30899)
(16.0518 -0.0841294 -5.17138)
(12.8269 0.0277806 -5.6843)
(12.8971 0.0410898 -5.73299)
(12.8914 0.0640091 -5.75374)
(12.8754 0.165251 -5.72108)
(12.9984 -0.0394282 -5.84945)
(12.7911 -0.131661 -5.74198)
(8.65482 0.00163349 -6.67175)
(8.6741 0.00493079 -6.71019)
(8.70099 0.018316 -6.74978)
(8.66065 0.0482722 -6.68689)
(8.67925 -0.0633947 -6.74533)
(8.66624 -0.0676236 -6.75549)
(4.43545 4.42566e-05 -7.43924)
(4.44157 0.00699377 -7.47087)
(4.53845 0.0261423 -7.50831)
(4.25922 0.0719819 -7.38975)
(4.1132 -0.0906126 -7.43308)
(4.56947 -0.0837496 -7.48367)
(-6.54809 0.00864016 -4.4942)
(-6.56304 0.0184517 -4.54102)
(-6.35271 0.0899902 -4.76723)
(-6.95717 0.192329 -4.14299)
(-7.49288 -0.162151 -3.99272)
(-5.96919 -0.1891 -4.8899)
(-8.56778 0.022802 1.30752)
(-8.61537 0.0576071 1.36639)
(-8.6057 0.221817 1.41947)
(-8.55909 0.23726 1.74755)
(-8.68066 -0.174088 1.99774)
(-8.49105 -0.168371 1.67678)
(0.641904 3.88001e-05 1.96828)
(0.642085 -0.00010777 1.96827)
(0.642321 0.000333001 1.96825)
(0.642191 0.000488664 1.96787)
(0.643414 0.00109033 1.96765)
(0.640256 0.0010797 1.96759)
(2.08365 -0.000219076 2.47142)
(2.0852 -0.000782711 2.47072)
(2.08563 -0.00101128 2.47127)
(2.0851 -0.00534771 2.47087)
(2.08961 0.00880107 2.47469)
(2.0765 0.0134753 2.46559)
(3.37744 -0.0049635 4.19015)
(3.38218 -0.00130813 4.18973)
(3.37259 -0.00640243 4.18542)
(3.39745 -0.0290689 4.19794)
(3.43736 0.0487734 4.21649)
(3.32695 0.0674511 4.15657)
(4.72909 -0.0164372 6.39508)
(4.76822 -0.00129994 6.40237)
(4.68345 -0.000578818 6.38866)
(4.88152 -0.0299166 6.40929)
(5.06986 0.0615694 6.41103)
(4.44558 0.0819425 6.37644)
(8.85201 -0.0172088 6.02838)
(8.99704 -0.0126135 6.04092)
(8.79446 0.00585638 6.05175)
(9.12117 0.000410922 6.01364)
(9.34323 -0.0587842 6.02178)
(8.3693 -0.047839 6.11731)
(12.5176 -0.000555744 3.6571)
(12.7146 -0.0177857 3.69261)
(12.5656 -0.0189096 3.72409)
(12.6116 -0.0227637 3.62079)
(12.8453 -0.11994 3.81068)
(12.3762 -0.0938634 3.72712)
(10.5324 0.0186571 1.09331)
(10.6823 0.0187739 1.23465)
(10.6233 -0.0335325 1.15535)
(10.5309 -0.0567279 1.12256)
(10.919 0.0208456 1.7828)
(10.6255 0.0378181 1.07604)
(9.52505 0.00311015 -2.29794)
(9.5675 0.00923814 -2.12782)
(9.45938 -0.0416817 -2.37197)
(9.57463 -0.083331 -1.96667)
(9.90036 0.0732304 -1.0914)
(9.40235 0.092963 -2.5159)
(9.61701 0.00077927 -7.98046)
(9.63462 0.00725245 -7.9831)
(9.55915 -0.0209662 -7.96223)
(9.68616 -0.0344102 -8.03259)
(9.71135 0.0446182 -8.04784)
(9.48305 0.0499664 -7.98243)
(9.22406 -0.0102536 -8.67432)
(9.24078 -0.0136843 -8.67983)
(9.16573 -0.0520749 -8.62122)
(9.38538 -0.100891 -8.79412)
(9.47046 0.0169825 -8.923)
(9.07069 0.0894848 -8.58895)
(5.67497 -0.0128614 -4.02015)
(5.68393 -0.00539583 -4.04688)
(5.73971 -0.0387677 -4.24425)
(5.66668 -0.054989 -3.6533)
(5.61873 0.00218288 -3.33582)
(5.7492 0.0761222 -4.45028)
(-2.0352 0.0488486 7.98531)
(-1.99373 0.138197 7.82226)
(-1.59938 0.420152 6.86174)
(-2.53928 0.81777 9.33139)
(-3.26725 -0.0762275 9.37483)
(-1.21374 -0.511182 5.826)
(0.358948 -4.83157e-05 3.01914)
(0.359098 -0.000148596 3.01921)
(0.359213 5.18032e-05 3.01926)
(0.359275 0.000108257 3.019)
(0.359864 0.000683332 3.01894)
(0.358342 0.000723108 3.01853)
(1.05492 -0.000238837 3.51671)
(1.05606 -0.000662933 3.51674)
(1.05615 -0.000542271 3.51711)
(1.05694 -0.00199496 3.51691)
(1.0596 0.00314232 3.51901)
(1.05224 0.00496097 3.51375)
(1.40314 -0.00287894 4.9278)
(1.40726 -0.00187048 4.9294)
(1.40382 -0.00499306 4.92607)
(1.41164 -0.0155248 4.93697)
(1.42181 0.0213173 4.95105)
(1.39151 0.0304162 4.9059)
(0.581481 -0.0133214 7.20136)
(0.597114 -0.00289926 7.21231)
(0.568545 -0.00898213 7.19288)
(0.640084 -0.0298988 7.23235)
(0.700843 0.0484011 7.25347)
(0.503372 0.0605471 7.1498)
(0.183332 -0.020646 7.3342)
(0.259434 -0.00997018 7.35402)
(0.154908 0.000725468 7.34493)
(0.375158 -0.00590342 7.34185)
(0.486283 -0.0145615 7.34363)
(-0.0570447 -0.0123274 7.3619)
(1.51892 -0.0175627 1.89821)
(1.64976 -0.0287885 1.92093)
(1.5666 0.00264595 1.95967)
(1.67344 0.00713991 1.83205)
(1.72948 -0.0811487 1.87646)
(1.3903 -0.068886 2.06045)
(1.95616 -0.0118687 -3.89483)
(2.07519 -0.0410773 -3.87472)
(2.09289 -0.0210595 -3.82511)
(1.96962 -0.0681126 -4.03321)
(1.96352 -0.0763176 -4.13106)
(2.06237 0.009346 -3.75988)
(2.52486 -0.00585295 -4.24609)
(2.55996 -0.0131434 -4.26965)
(2.5331 -0.0551606 -4.22552)
(2.50215 -0.105361 -4.26974)
(2.49858 0.0383365 -4.24965)
(2.50558 0.0960133 -4.13891)
(5.158 0.000250565 -7.13871)
(5.20894 -0.00617563 -7.13745)
(5.16273 0.0246577 -7.07926)
(5.16887 0.0240336 -7.28256)
(5.14605 -0.00578088 -7.56968)
(5.17298 -0.0355498 -7.07133)
(7.91833 -0.0088343 -8.87894)
(7.95692 -0.0101454 -8.85866)
(7.86951 -0.0176856 -8.77728)
(8.09671 -0.0754229 -9.02708)
(8.23117 0.0235385 -9.46746)
(7.81872 0.056532 -8.71168)
(7.01277 -0.0193313 -6.51325)
(7.03957 0.00588707 -6.54075)
(6.97182 -0.0923081 -6.62209)
(7.15627 -0.232397 -6.37767)
(7.50443 0.0868063 -6.50799)
(6.88875 0.248592 -6.68162)
(2.42281 -0.0323135 -0.197891)
(2.48387 0.0435741 -0.455525)
(2.57421 -0.123038 -1.04686)
(2.09143 -0.207836 0.815572)
(2.46868 0.121897 4.74485)
(2.59999 0.34093 -1.50419)
(0.127977 -3.88241e-05 3.49487)
(0.128058 -7.72023e-05 3.49501)
(0.128089 -1.4023e-05 3.49505)
(0.128131 1.31997e-06 3.49498)
(0.128296 0.000297642 3.49502)
(0.127839 0.000314664 3.49454)
(0.28364 -0.000152389 3.83028)
(0.284055 -0.000278237 3.83055)
(0.284035 -0.000172129 3.8307)
(0.284463 -0.000460132 3.83066)
(0.28538 0.00083228 3.83136)
(0.282987 0.00124396 3.82924)
(0.0885909 -0.000822208 4.52804)
(0.0903514 -0.000802089 4.52929)
(0.0893383 -0.00123796 4.52856)
(0.0915346 -0.0036909 4.53171)
(0.0932678 0.00416551 4.53656)
(0.0868372 0.00651136 4.5222)
(-1.06231 -0.00464002 5.59836)
(-1.05872 -0.00173532 5.60435)
(-1.06269 -0.00476741 5.59649)
(-1.05633 -0.012546 5.6149)
(-1.05219 0.0168781 5.62717)
(-1.0647 0.021586 5.57612)
(-3.17682 -0.00950117 5.70633)
(-3.16401 -0.00253235 5.72022)
(-3.18166 -2.49219e-05 5.70697)
(-3.1406 -0.00559558 5.72521)
(-3.12045 0.00566403 5.72849)
(-3.21082 0.00539627 5.69402)
(-4.1201 -0.00701475 2.73275)
(-4.09277 -0.00655101 2.75227)
(-4.11246 0.0093284 2.75461)
(-4.07382 0.0153197 2.72151)
(-4.07784 -0.0296731 2.71459)
(-4.14318 -0.0344423 2.75671)
(-3.88531 0.0007525 -0.365225)
(-3.8616 -0.000668649 -0.346729)
(-3.86116 0.011102 -0.33509)
(-3.86969 0.0279227 -0.371074)
(-3.91329 -0.0328019 -0.352218)
(-3.84067 -0.0458696 -0.33085)
(-1.99023 -0.0030907 -1.86555)
(-1.98157 -0.00648561 -1.85163)
(-1.98122 -0.00904941 -1.8492)
(-1.98613 -0.00703725 -1.82925)
(-2.02348 -0.0212545 -1.79251)
(-1.9564 -0.0202504 -1.85697)
(-0.709129 -0.00664844 -3.06576)
(-0.639119 -0.00727884 -3.09995)
(-0.676502 0.00474654 -3.11435)
(-0.708258 0.0038974 -3.07971)
(-0.573281 -0.0213446 -3.03012)
(-0.607778 -0.0141754 -3.19601)
(4.52128 -0.0110039 -7.16203)
(4.59224 0.00458813 -7.16357)
(4.59279 0.0110622 -7.18977)
(4.58901 0.0189054 -7.05193)
(4.69661 -0.00550335 -6.76029)
(4.67059 -0.00872409 -7.18539)
(5.96608 -0.00958281 -6.9173)
(5.9946 0.016485 -6.91765)
(5.96582 -0.0697569 -6.94088)
(6.13675 -0.146737 -6.80554)
(6.34226 0.106471 -6.73643)
(5.99272 0.15088 -6.94231)
(3.71099 -0.012233 -3.51868)
(3.72961 0.0156605 -3.52482)
(3.74331 -0.192715 -3.56827)
(3.72829 -0.401623 -3.39538)
(3.83744 0.187962 -3.3558)
(3.77436 0.382305 -3.59333)
(-0.114164 5.31818e-05 -2.03324)
(-0.114219 4.37775e-05 -2.03362)
(-0.114209 -1.90722e-05 -2.03355)
(-0.114211 5.72406e-06 -2.03355)
(-0.114221 -5.18888e-05 -2.03362)
(-0.114175 -6.1964e-05 -2.03323)
(-0.12648 3.21928e-05 -0.989793)
(-0.12648 2.40688e-05 -0.990049)
(-0.12648 -9.04278e-06 -0.990006)
(-0.126482 3.18538e-06 -0.990004)
(-0.126482 -3.04319e-05 -0.990052)
(-0.126487 -4.00323e-05 -0.98979)
(-0.0237584 1.67234e-05 -1.06868)
(-0.0237579 1.50921e-05 -1.06884)
(-0.0237583 -2.16237e-06 -1.06881)
(-0.0237588 2.29343e-06 -1.06881)
(-0.0237588 -1.75544e-05 -1.06883)
(-0.0237598 -1.98195e-05 -1.06869)
(-0.566297 3.45079e-06 -2.06082)
(-0.566433 9.04825e-06 -2.06111)
(-0.566414 -1.52396e-05 -2.06108)
(-0.566423 -1.17453e-05 -2.06108)
(-0.566452 -4.2192e-05 -2.06114)
(-0.56633 -4.07277e-05 -2.06081)
(-0.472698 1.56361e-05 -0.896259)
(-0.472692 8.72984e-06 -0.896473)
(-0.47269 -1.5847e-05 -0.896448)
(-0.472693 -8.40039e-06 -0.896447)
(-0.472691 -3.37621e-05 -0.896494)
(-0.472701 -3.70521e-05 -0.896262)
(-0.0756493 1.37114e-05 -0.903964)
(-0.0756478 1.15527e-05 -0.904122)
(-0.0756479 -3.2755e-06 -0.904112)
(-0.0756501 8.93947e-07 -0.904112)
(-0.0756508 -1.58494e-05 -0.90414)
(-0.0756563 -1.83482e-05 -0.903992)
(-0.804401 -0.000144076 -1.71236)
(-0.804898 -9.58552e-05 -1.71268)
(-0.804767 4.97842e-06 -1.71265)
(-0.804769 -7.41629e-05 -1.71266)
(-0.804875 -8.49186e-06 -1.7127)
(-0.80456 3.4633e-05 -1.71238)
(-0.820922 -5.34829e-05 -0.700657)
(-0.820952 -3.8873e-05 -0.700797)
(-0.820922 -1.30868e-05 -0.700787)
(-0.820932 -3.82446e-05 -0.700781)
(-0.820938 -1.93493e-05 -0.700811)
(-0.820958 -4.0773e-06 -0.700634)
(-0.127426 6.50284e-06 -0.390715)
(-0.127417 3.46412e-06 -0.390838)
(-0.127415 -7.82582e-06 -0.39084)
(-0.127419 -8.26518e-06 -0.390838)
(-0.127416 -2.25564e-05 -0.390859)
(-0.127436 -2.1846e-05 -0.390713)
(-2.02041 -3.05333e-05 -0.73505)
(-2.02188 -3.60015e-05 -0.735449)
(-2.02139 7.09244e-06 -0.735386)
(-2.02139 -1.00794e-05 -0.73536)
(-2.02175 9.6894e-06 -0.735471)
(-2.02108 7.08912e-06 -0.735112)
(-1.68346 -5.29751e-05 -0.664452)
(-1.68395 -4.23463e-05 -0.664647)
(-1.68374 -1.10213e-05 -0.664633)
(-1.68379 -1.58881e-05 -0.664603)
(-1.68389 1.656e-05 -0.664673)
(-1.68379 1.06501e-05 -0.664403)
(-0.356963 -1.77323e-05 0.225203)
(-0.356948 -1.47574e-05 0.225177)
(-0.356926 -1.99653e-05 0.225156)
(-0.356956 -3.17571e-05 0.225184)
(-0.356947 -3.00044e-05 0.225176)
(-0.357052 -2.53051e-05 0.225304)
(-1.85481 0.00133761 5.28251)
(-1.85758 0.000718567 5.28079)
(-1.85641 -0.000531178 5.28148)
(-1.85639 0.000428981 5.28168)
(-1.85736 -0.000222876 5.28083)
(-1.85594 -0.000683931 5.28182)
(-2.52215 0.000738436 3.06777)
(-2.52358 0.000371155 3.06716)
(-2.52301 -0.000327643 3.06728)
(-2.52309 0.000228919 3.06744)
(-2.52349 -0.000222826 3.06706)
(-2.52272 -0.000491694 3.06788)
(-1.37776 7.10965e-05 1.51676)
(-1.37809 4.22667e-05 1.51675)
(-1.37796 -5.38136e-05 1.51671)
(-1.37801 1.38052e-06 1.51685)
(-1.37806 -5.00439e-05 1.5168)
(-1.37799 -9.25444e-05 1.51717)
(2.25815 -5.83924e-05 12.7667)
(2.26696 -0.000244311 12.7707)
(2.26307 -0.000283725 12.7688)
(2.26158 -0.000173874 12.7683)
(2.26486 -0.000215149 12.7696)
(2.25936 -0.000210427 12.7678)
(3.67087 -5.43261e-05 12.7489)
(3.67522 -0.000322176 12.7508)
(3.67327 -0.000355086 12.7497)
(3.67257 -0.00021122 12.7495)
(3.67419 -0.000522268 12.7502)
(3.67053 -0.000524137 12.7492)
(1.25547 0.000220343 7.66193)
(1.25583 2.73279e-05 7.66305)
(1.25563 -0.000131319 7.66233)
(1.25539 3.96537e-05 7.66236)
(1.25558 -0.000259934 7.66278)
(1.25499 -0.00032906 7.66253)
(-4.46069 -0.00102973 4.67488)
(-4.46107 -0.000836137 4.6791)
(-4.4612 6.34776e-05 4.67627)
(-4.46197 -0.000620403 4.67626)
(-4.46176 -0.000421572 4.67892)
(-4.46288 4.1878e-05 4.6751)
(1.28959 -0.000431271 10.3836)
(1.29055 -0.000255894 10.3886)
(1.28992 -9.27815e-05 10.3858)
(1.28932 -0.000721363 10.3856)
(1.28983 -0.000146505 10.3879)
(1.28717 0.00025447 10.3843)
(3.40202 -9.58727e-05 8.37962)
(3.40315 -6.27572e-05 8.384)
(3.4024 -4.02709e-05 8.3815)
(3.40222 -0.000263244 8.38117)
(3.40271 -1.91912e-05 8.38277)
(3.40056 9.34856e-05 8.38118)
(-7.15462 8.33472e-05 -2.60361)
(-7.14939 -0.000472033 -2.62216)
(-7.15207 -0.000353006 -2.6152)
(-7.15269 -5.25164e-05 -2.61207)
(-7.15104 -0.000920765 -2.61652)
(-7.15625 -0.000857212 -2.60944)
(-0.18739 0.0023 2.60251)
(-0.184341 0.00154458 2.60373)
(-0.185639 -0.00115132 2.60244)
(-0.186862 -0.00017258 2.60247)
(-0.186422 -0.00064709 2.60334)
(-0.189344 -0.000962044 2.59946)
(3.53666 0.000473634 2.4243)
(3.53769 0.000375718 2.42793)
(3.53699 -7.59185e-05 2.42542)
(3.53684 1.95234e-05 2.42535)
(3.53681 0.000163086 2.42641)
(3.53541 9.556e-05 2.42354)
(-8.3462 0.000808935 -3.14099)
(-8.34083 -0.00012531 -3.16594)
(-8.34318 -0.000499072 -3.15577)
(-8.34359 9.82348e-05 -3.15235)
(-8.34185 -0.00083466 -3.15981)
(-8.34602 -0.000716039 -3.14761)
(-1.42134 0.00369623 -2.66207)
(-1.42503 0.0020475 -2.65918)
(-1.42323 -0.00175711 -2.66086)
(-1.4238 0.000557437 -2.66121)
(-1.42426 -0.00116936 -2.65972)
(-1.42482 -0.00187316 -2.66642)
(2.85814 7.87351e-05 -2.44802)
(2.8588 0.000238623 -2.44407)
(2.85842 0.000314588 -2.44584)
(2.85831 0.000234796 -2.44617)
(2.85782 0.000609155 -2.44572)
(2.85654 0.000497766 -2.44829)
(-5.8019 0.000764262 -3.33174)
(-5.79959 -0.000163944 -3.35215)
(-5.80077 -0.000219236 -3.34354)
(-5.80032 0.000396229 -3.3412)
(-5.80013 -0.000557307 -3.34751)
(-5.80181 -0.000399476 -3.33689)
(-0.317888 0.00226466 -5.1028)
(-0.315001 0.000865216 -5.10321)
(-0.316101 -0.000870478 -5.10353)
(-0.317074 0.000293176 -5.10322)
(-0.316647 -0.000350831 -5.1025)
(-0.319588 -0.000137957 -5.10535)
(1.77777 7.23052e-05 -4.21968)
(1.77743 0.000111268 -4.2174)
(1.77729 9.17695e-05 -4.21837)
(1.77737 -0.000143882 -4.21898)
(1.77713 0.000630306 -4.2189)
(1.7754 0.000821685 -4.22012)
(-4.67918 0.000663054 -3.80002)
(-4.6821 0.000246085 -3.80401)
(-4.6818 -0.000154565 -3.80282)
(-4.67968 0.000124775 -3.80169)
(-4.68045 1.06934e-05 -3.80296)
(-4.68114 9.14824e-05 -3.80161)
(-0.670446 0.00044121 -5.21207)
(-0.672519 -8.09867e-06 -5.21192)
(-0.672389 0.000283681 -5.21241)
(-0.672334 0.00101694 -5.21205)
(-0.673869 -0.000318576 -5.21322)
(-0.671558 -0.000750463 -5.2112)
(1.22966 9.93954e-06 -3.97422)
(1.22794 -4.90479e-06 -3.97357)
(1.22859 -5.55614e-06 -3.97391)
(1.22811 -0.000381561 -3.97481)
(1.22606 0.000690702 -3.9756)
(1.23 0.00109946 -3.97321)
(-4.50084 -0.000140318 -2.72632)
(-4.50179 -2.32314e-05 -2.72701)
(-4.50195 -0.000478807 -2.7268)
(-4.50121 -0.00144308 -2.72716)
(-4.50071 0.00123847 -2.72805)
(-4.50227 0.00210741 -2.72595)
(-1.07101 0.000107336 -6.76113)
(-1.0703 -0.000303443 -6.7628)
(-1.07266 0.000231569 -6.76249)
(-1.06857 0.000943219 -6.76426)
(-1.06535 -0.00128013 -6.76782)
(-1.07637 -0.00138921 -6.75811)
(0.732513 0.000172029 -2.81529)
(0.730851 0.000286119 -2.81792)
(0.731906 0.000116878 -2.81667)
(0.730451 0.000131105 -2.81742)
(0.727325 -0.000159582 -2.82036)
(0.735105 -0.000294542 -2.81322)
(2.86734 -0.001271 -0.612717)
(2.86322 -0.00137411 -0.612102)
(2.86323 -0.00169375 -0.6095)
(2.86789 -0.006046 -0.620313)
(2.87204 0.00332541 -0.624103)
(2.85595 0.00676255 -0.606392)
(2.81691 -0.00668561 -1.99972)
(2.7907 -0.0129034 -2.01376)
(2.79816 0.0118918 -2.00593)
(2.79033 0.00875994 -2.01209)
(2.78715 -0.0162203 -2.017)
(2.77875 -0.00795613 -2.00445)
(1.07224 -0.00490369 -2.27416)
(1.05957 -0.00604722 -2.29299)
(1.06224 0.00419502 -2.28659)
(1.06253 0.0101337 -2.28071)
(1.06275 -0.0141929 -2.31991)
(1.05698 -0.018429 -2.26863)
(2.09406 -4.16107e-05 -0.686722)
(2.09552 -0.000266777 -0.687876)
(2.09549 -0.000595392 -0.688132)
(2.09354 -0.00147874 -0.685194)
(2.0921 0.00157154 -0.682138)
(2.09753 0.00285322 -0.690507)
(2.16731 -0.00307175 -0.846011)
(2.1755 -0.00412225 -0.838979)
(2.19167 0.00326538 -0.838871)
(2.12252 -0.0028331 -0.853198)
(2.08733 0.00226609 -0.866789)
(2.21141 0.0124175 -0.81709)
(-0.103891 -0.00148662 -1.82955)
(-0.10261 -0.000873712 -1.82728)
(-0.10288 0.000699316 -1.82318)
(-0.102494 0.00225228 -1.83223)
(-0.0982504 -0.00247051 -1.8425)
(-0.102647 -0.00511342 -1.80481)
(1.60623 -0.000274091 -0.198745)
(1.60618 -0.000247052 -0.199688)
(1.60584 -0.00117622 -0.199781)
(1.60677 -0.0030727 -0.197879)
(1.60768 0.00268177 -0.195045)
(1.60438 0.00462212 -0.202254)
(2.02618 -0.00358841 -1.79821)
(2.01207 -0.00352154 -1.80018)
(2.02771 -0.00847441 -1.79277)
(1.99251 -0.0270182 -1.81658)
(1.96588 0.0230854 -1.83912)
(2.01873 0.0441245 -1.77517)
(-0.119336 -0.000245592 -2.39175)
(-0.122272 -3.55909e-05 -2.39214)
(-0.120391 -0.00104257 -2.38799)
(-0.120369 -0.00135323 -2.41152)
(-0.121626 0.00282946 -2.45436)
(-0.118039 0.00307168 -2.32797)
(0.885295 -0.000473442 0.160316)
(0.885411 -0.000160215 0.15936)
(0.885406 -0.000978818 0.159082)
(0.884987 -0.00273415 0.161165)
(0.88532 0.00258121 0.164053)
(0.884503 0.00417029 0.156358)
(0.501245 -0.00660997 -2.6099)
(0.50297 -0.00616276 -2.61127)
(0.503175 -0.0109603 -2.60155)
(0.494839 -0.0317536 -2.62558)
(0.488008 0.0222544 -2.64646)
(0.510407 0.0483719 -2.5746)
(-0.25787 -0.000550771 -3.42828)
(-0.258047 -0.000697624 -3.43687)
(-0.257889 0.000286925 -3.41578)
(-0.258746 -0.000226851 -3.46422)
(-0.260003 -0.000335755 -3.51981)
(-0.256611 7.74962e-05 -3.35939)
(0.00233148 -0.000620567 0.388569)
(0.00216081 -0.000147469 0.387507)
(0.00215861 -0.00112296 0.387594)
(0.00246817 -0.0031333 0.388544)
(0.00337478 0.00319151 0.389904)
(0.00142574 0.00481187 0.386356)
(-0.603045 -0.00385436 -2.89614)
(-0.605344 -0.00309603 -2.89863)
(-0.606405 -0.00397899 -2.89032)
(-0.610818 -0.020279 -2.9103)
(-0.617224 0.0152706 -2.93194)
(-0.605559 0.037115 -2.86688)
(-0.912002 -3.54349e-05 -3.5414)
(-0.911035 -8.20944e-05 -3.54987)
(-0.913262 -1.28108e-05 -3.5354)
(-0.909801 0.00138453 -3.56303)
(-0.904728 -0.000967664 -3.60461)
(-0.918322 -0.00319302 -3.49574)
(-1.11582 -0.000490643 0.574969)
(-1.11604 -0.000119745 0.57377)
(-1.11584 -0.000831565 0.574332)
(-1.11628 -0.00240497 0.574218)
(-1.11625 0.00232953 0.572744)
(-1.11565 0.00354045 0.575874)
(-1.25091 -0.00153611 -7.59444)
(-1.25057 -0.00197992 -7.59571)
(-1.25391 -0.000546207 -7.59282)
(-1.24931 -0.00613105 -7.60133)
(-1.24644 0.00348226 -7.60797)
(-1.25821 0.0119131 -7.58467)
(-0.625523 0.000150402 -2.88541)
(-0.625504 0.000128789 -2.89026)
(-0.625488 0.000422871 -2.88531)
(-0.626432 0.00158409 -2.89322)
(-0.6275 -0.00124187 -2.9071)
(-0.624923 -0.00283002 -2.86999)
(0.0161184 -1.69847e-05 3.59071)
(0.016152 -2.96256e-05 3.59088)
(0.0161597 -8.40135e-06 3.59089)
(0.0161756 6.35921e-06 3.59088)
(0.0162034 9.95604e-05 3.5909)
(0.0161037 9.2833e-05 3.5906)
(-0.0107746 -4.41232e-06 3.5438)
(-0.0107606 -7.86113e-06 3.54397)
(-0.010757 5.2088e-07 3.54397)
(-0.0107502 9.41422e-06 3.54397)
(-0.0107474 2.96869e-05 3.54397)
(-0.0107702 2.12424e-05 3.54377)
(-0.00487291 -3.80412e-07 3.50146)
(-0.0048676 -2.81674e-06 3.50163)
(-0.00486678 -3.12557e-06 3.50163)
(-0.00486497 -2.05698e-06 3.50163)
(-0.00486481 7.33599e-07 3.50162)
(-0.0048695 6.1374e-07 3.50144)
(-0.0265001 -5.90844e-05 3.72804)
(-0.0263654 -8.6539e-05 3.72828)
(-0.0263734 -5.94296e-05 3.72831)
(-0.0262475 -8.41581e-05 3.72834)
(-0.0260938 0.000212957 3.72851)
(-0.0266253 0.000265438 3.72775)
(-0.0731625 -1.66905e-05 3.56156)
(-0.0731126 -2.64872e-05 3.56176)
(-0.0731121 -2.35149e-05 3.56176)