/*--------------------------------*- C++ -*----------------------------------*\
| =========                 |                                                 |
| \\      /  F ield         | OpenFOAM: The Open Source CFD Toolbox           |
|  \\    /   O peration     | Version:  v1612+                                |
|   \\  /    A nd           | Web:      www.OpenFOAM.com                      |
|    \\/     M anipulation  |                                                 |
\*---------------------------------------------------------------------------*/
FoamFile
{
    version     2.0;
    format      ascii;
    class       surfaceScalarField;
    location    "6.95";
    object      alphaPhi;
}
// * * * * * * * * * * * * * * * * * * * * * * * * * * * * * * * * * * * * * //

dimensions      [0 3 -1 0 0 0 0];

internalField   nonuniform List<scalar> 
2916
(
-7.14614e-05
-0.0694194
0.0506402
1.38793e-05
-0.0695793
0.0506433
1.41208e-05
-0.069493
0.0506424
-5.34302e-06
-0.0694589
0.0506282
3.04447e-05
-0.0695129
0.0506269
-0.0694628
0.0506432
-2.36129e-05
-0.122269
0.0459785
1.1145e-05
-0.122436
0.0458943
-6.38626e-06
-0.122313
0.0459285
-1.54012e-05
-0.122325
0.0459693
-7.8994e-07
-0.122378
0.0459339
-0.122304
0.0459371
8.93642e-05
-0.264504
0.142148
-8.83194e-06
-0.26469
0.142355
-5.65732e-05
-0.264528
0.142265
-1.74986e-05
-0.264611
0.14225
-2.64438e-05
-0.264653
0.142287
-0.264493
0.142165
1.51049e-05
-0.557953
0.293437
1.94161e-05
-0.558496
0.293805
6.11844e-06
-0.558197
0.293685
1.14192e-05
-0.558226
0.293613
-4.5513e-06
-0.558335
0.293701
-0.558028
0.293533
-0.000693806
-0.73236
0.175099
6.76271e-05
-0.73405
0.17479
0.000483151
-0.733428
0.174813
0.000120431
-0.733085
0.17522
-0.000492736
-0.73297
0.175246
-0.733297
0.174774
-0.00124111
-0.774972
0.0603646
3.15193e-05
-0.778606
0.0599583
0.000926065
-0.777634
0.0599831
0.000207972
-0.776221
0.0603405
-0.00149379
-0.77511
0.0603959
-0.778137
0.0599696
0.000749671
-0.725101
-0.0103999
-0.00014159
-0.729302
-0.00911958
-0.000563689
-0.728545
-0.00933627
-0.000324738
-0.726258
-0.010074
0.00123002
-0.724655
-0.0111029
-0.729328
-0.00872154
0.00265358
-0.625278
-0.0472878
-0.000341671
-0.625057
-0.0464841
-0.00234317
-0.625383
-0.0465414
-0.0005536
-0.625372
-0.0472783
0.00441126
-0.626072
-0.0477243
-0.624268
-0.0462629
0.00148767
-0.477868
-0.0842422
-0.000259075
-0.47494
-0.08368
-0.00152084
-0.475757
-0.0838134
-0.00043343
-0.477313
-0.0842961
0.001985
-0.479618
-0.0840069
-0.473573
-0.0841298
-0.00270608
-0.294696
-0.112829
0.000339299
-0.294659
-0.11491
0.00251578
-0.295437
-0.114323
-0.000192196
-0.293691
-0.113164
-0.00732717
-0.294201
-0.111042
-0.295766
-0.116561
-0.000134146
-0.122553
-0.105186
0.000134461
-0.124972
-0.102353
0.000353656
-0.124873
-0.103396
0.000558231
-0.122642
-0.104316
0.00041047
-0.121271
-0.106324
-0.127231
-0.100355
0.0050725
-0.0599327
-0.00104906
-0.0504888
-0.00595675
-0.0517221
-0.00120856
-0.0593647
0.0120414
-0.0665631
-0.0465507
-0.000174911
-0.125957
0.166713
7.81592e-06
-0.12617
0.166526
3.00736e-05
-0.126067
0.166601
-4.29434e-07
-0.126074
0.166639
6.83763e-05
-0.126122
0.166577
-0.126035
0.166662
-0.000114895
-0.13882
0.0517163
-1.39291e-05
-0.139163
0.0516222
4.96707e-05
-0.138987
0.0516399
-8.96035e-06
-0.138947
0.0517604
-3.2446e-05
-0.13906
0.0517437
-0.138899
0.05163
0.000142352
-0.0262328
0.0102698
-2.25531e-05
-0.0265909
0.010552
-5.68125e-05
-0.0264241
0.0104267
7.20808e-06
-0.0264419
0.0103902
-2.21424e-05
-0.0265895
0.0104908
-0.0262582
0.0103007
-5.42289e-05
0.0325762
0.0192832
9.49245e-06
0.0322385
0.0193625
-0.000110472
0.0324398
0.0193458
1.13567e-05
0.0323549
0.0193086
0.000287657
0.0321589
0.0193245
0.0326999
0.0193032
0.000113227
0.0694335
-0.00154725
-4.88394e-05
0.0694842
-0.00162015
-0.000132338
0.0695354
-0.00161467
-2.17118e-05
0.069439
-0.00160962
1.37587e-05
0.0693081
-0.00156351
0.0696942
-0.0016398
0.00114981
0.107188
-0.0112349
-1.2026e-05
0.10847
-0.0126088
-0.000793832
0.108281
-0.0123575
-0.000202755
0.107538
-0.0122708
0.00135403
0.106468
-0.0120771
0.108515
-0.012432
-0.000411337
0.131976
-0.00686741
8.38376e-05
0.133809
-0.00550644
0.000559883
0.133324
-0.00567825
3.36129e-05
0.132388
-0.00687367
-0.000780571
0.130749
-0.00850724
0.134105
-0.00456724
-0.000263752
0.11808
-0.00303848
-4.74503e-05
0.121435
-0.00329537
-4.36237e-05
0.121042
-0.0033039
7.5486e-05
0.118539
-0.00302329
0.000362925
0.115438
-0.00270079
0.12308
-0.00348784
-0.000829061
0.0842034
-0.00686745
-0.000132774
0.0855729
-0.00707648
-0.000125035
0.0858263
-0.00702632
-0.000115698
0.0839408
-0.00682313
-5.67629e-05
0.0815415
-0.00649805
0.0876642
-0.00724022
-0.00258273
0.0651734
-0.00772571
0.000241476
0.0624431
-0.00965934
0.00264727
0.063259
-0.0095495
-0.000155864
0.0647119
-0.00749081
-0.00663615
0.0653344
-0.0061109
0.0617315
-0.0112481
-0.00262608
0.0844841
-0.027014
0.000749364
0.0729195
-0.0275216
0.00450418
0.0747929
-0.0279673
0.00111534
0.0833817
-0.0262664
-0.0067779
0.0912467
-0.0261577
0.0676629
-0.0278474
0.00461584
-0.00587253
-0.000252453
-0.00580665
-0.00405611
-0.00582426
-0.000178606
-0.00586265
0.00917262
-0.00600626
-0.00576308
1.62667e-07
0.234987
-0.077774
1.13591e-05
0.234829
-0.0778354
2.87736e-05
0.234847
-0.0777941
-7.00606e-06
0.234911
-0.0777709
-4.08005e-05
0.234897
-0.0778258
0.23486
-0.0777624
0.000110206
0.191799
-0.111523
-2.55031e-05
0.192067
-0.11153
-2.68991e-05
0.191988
-0.111542
-3.16858e-05
0.191864
-0.111507
-6.46785e-05
0.191851
-0.111487
0.191983
-0.111575
-2.20196e-06
0.0858135
-0.00522416
6.95719e-06
0.0864297
-0.005321
0.000103243
0.086193
-0.00524059
9.10359e-07
0.0860509
-0.00529276
-0.000132642
0.0860908
-0.00530549
0.0861519
-0.00523146
0.000229041
0.0411394
-8.05529e-05
-7.7613e-06
0.0418036
-7.51168e-05
-7.78674e-05
0.0414788
-7.67016e-05
-2.81329e-05
0.0414535
-8.07163e-05
7.03453e-05
0.0415253
-8.15399e-05
0.041382
-7.86777e-05
0.000248204
0.0128793
-4.51432e-05
-1.83295e-05
0.0129542
-2.84315e-05
-4.8901e-05
0.0127361
-2.11832e-05
-2.0265e-05
0.0126534
-3.47445e-05
6.19803e-05
0.0125631
-6.84972e-05
0.0127957
-2.62977e-05
0.000154281
0.000242272
-0.000219128
2.13395e-07
0.000417891
-0.000222563
-9.35237e-05
0.000354397
-0.000162201
-2.32141e-05
0.000263341
-0.000255524
0.000264907
0.000129792
-0.000234915
0.000448935
-4.11215e-05
2.4875e-05
-0.00496425
-0.00252011
1.63699e-05
-0.00329998
-0.00222955
-8.20632e-06
-0.00355382
-0.00220719
1.37263e-05
-0.00471646
-0.00240259
8.68445e-05
-0.00627511
-0.00252773
-0.00235091
-0.00192654
-0.000825257
-0.011609
-2.51508e-05
8.14442e-05
-0.0108215
-0.000145816
0.00065264
-0.0109118
-0.000168682
0.0001767
-0.0117528
-7.25723e-05
-0.00117793
-0.0136198
-4.05925e-05
-0.00947358
-0.000355321
-0.000373703
-0.0169527
-0.000129677
4.66561e-06
-0.0172588
-6.02151e-05
0.00030965
-0.0169831
-2.52978e-05
-8.32429e-05
-0.0171668
-0.000104495
-0.00124563
-0.0176393
-0.000133484
-0.0168875
-4.18176e-06
-0.000318965
-0.0209627
-0.00111972
0.000102569
-0.0227892
-0.00185501
0.000547254
-0.0221337
-0.00177025
5.49641e-05
-0.0214006
-0.00104341
-0.00137984
-0.020552
-0.000531037
-0.0231661
-0.00228043
-0.000334593
-0.00795545
-0.0344856
0.000189426
-0.00908624
-0.0348645
0.00047757
-0.00882057
-0.0346086
0.000292533
-0.00806143
-0.0345604
-0.000766609
-0.0074641
-0.0346698
-0.00877243
-0.0344203
0.000331938
-0.0117437
6.43084e-05
-0.0131754
-0.000153831
-0.0126425
-4.91086e-05
-0.0116815
0.000146432
-0.0105003
-0.0128377
0.000159802
0.214102
-0.30204
1.60293e-05
0.214049
-0.301777
-3.16485e-06
0.214069
-0.301875
1.29087e-05
0.214056
-0.30188
-5.85861e-05
0.214037
-0.301836
0.214068
-0.301916
3.99435e-05
0.00533851
-0.027611
-8.14099e-06
0.00542961
-0.0276304
2.2306e-05
0.00535224
-0.0276109
-3.10937e-06
0.00540465
-0.0276431
-5.02602e-05
0.00541479
-0.0276492
0.00534421
-0.0275941
9.27548e-07
0.000109648
-1.38607e-06
5.42385e-07
0.000104959
-1.10046e-06
1.74821e-06
0.000106367
-1.10154e-06
-4.41817e-08
0.000109874
-1.13756e-06
-3.40038e-06
0.000109809
-1.37881e-06
0.000106161
-8.67915e-07
8.83912e-08
7.51231e-07
-3.58263e-06
-3.42546e-08
4.65325e-07
-2.45109e-06
6.10023e-09
5.72784e-07
-2.75843e-06
-3.8035e-08
6.71267e-07
-3.12809e-06
-1.51097e-07
6.23744e-07
-3.29605e-06
5.67893e-07
-2.71856e-06
1.78265e-05
-0.000157366
3.62279e-05
1.34791e-06
-0.000110844
4.07582e-05
-7.19745e-06
-0.000109298
3.87342e-05
-4.21542e-07
-0.000136216
3.63962e-05
2.05491e-05
-0.000172122
2.51015e-05
-9.218e-05
3.06803e-05
3.50835e-05
-0.00324012
0.00148417
7.16381e-07
-0.00142586
0.000900948
-1.4288e-05
-0.00135362
0.000908692
4.30349e-06
-0.00185169
0.00124285
7.61688e-05
-0.00237539
0.0016519
-0.000992815
0.000769294
-0.000365438
-0.00773091
0.00470624
-3.20966e-05
-0.007043
0.00530889
0.000179713
-0.00734187
0.00523529
2.69425e-05
-0.00786767
0.00474756
-0.000340404
-0.00809845
0.00448182
-0.00716582
0.00581671
-0.000267039
-0.00851942
-0.000508469
-3.10521e-05
-0.00879735
-0.000457521
0.000258895
-0.00894054
-0.00053568
-3.0207e-05
-0.00908895
-0.000641291
-0.000715396
-0.0086606
-7.12232e-06
-0.00992817
-0.000354109
-1.24765e-08
0.000200053
-1.94371e-05
-9.06289e-06
0.0001765
-1.81889e-05
3.83849e-06
0.000167034
-1.82754e-05
-6.24423e-06
0.000150661
-1.93692e-05
-6.70216e-05
8.96274e-05
-2.07856e-05
0.000176704
-1.78477e-05
1.64805e-06
-0.00089873
-9.392e-06
-1.02055e-06
-0.0016445
-1.84485e-05
-3.26426e-06
-0.00157034
-1.81069e-05
1.98517e-07
-0.000906574
-8.06421e-06
7.92065e-06
-0.000589809
-4.62986e-06
-0.00205992
-2.34155e-05
1.05067e-05
-0.0258185
-0.00606882
-1.07818e-05
-0.0258204
-0.00584744
-4.1406e-05
-0.0256867
-0.00583612
-1.75628e-05
-0.026087
-0.00609928
1.27926e-05
-0.0260854
-0.00631883
-0.0256573
-0.00570515
0.000372425
-0.0349418
-6.37529e-05
-0.0359253
-0.000248803
-0.0351512
-0.000141626
-0.0343729
0.000431712
-0.033758
-0.0353571
-0.0395786
-0.0162763
0.0558728
-0.00523167
-0.0880226
0.0532127
-0.0220445
-0.0417684
0.0587234
-0.00792991
-0.0686823
0.0545649
0.0562353
-0.122164
0.0580183
-0.00347251
0.0597048
0.0139638
-0.103473
0.0732506
-0.0209281
-0.119157
0.0658734
0.00263054
-0.122022
0.0562324
-0.0194337
-0.118103
0.0718671
-0.0183134
-0.201568
0.0782685
-0.0861006
0.0643029
0.0197316
-0.172933
0.0497202
-0.0143144
-0.108116
0.0401918
-0.00480334
-0.162008
0.0382062
-0.0382535
-0.101006
0.0511107
-0.0678227
-0.213615
0.0415219
-0.201075
0.0471256
-0.00431075
-0.135123
0.0201874
-0.00843642
-0.196352
0.0190526
0.00433036
-0.236549
0.0139126
-0.00204619
-0.223718
0.0177431
-0.0353691
-0.198715
0.0223767
-0.253243
0.016697
-0.0114332
-0.193475
0.0107567
-0.00602442
-0.200349
-0.001259
0.000749025
-0.235544
-0.00124703
0.0146474
-0.216786
-0.00219214
-0.000478853
-0.239023
0.00612396
-0.299844
0.00174256
-0.00730394
-0.178497
-0.00315676
0.00297152
-0.201947
-8.13543e-06
0.00136221
-0.223193
-8.5461e-05
0.0147271
-0.196886
-3.21538e-05
0.0107497
-0.193603
-1.06867e-05
-0.230533
-0.000167347
0.00529435
-0.177566
-0.000159444
0.00362059
-0.173887
-5.57014e-07
0.00558293
-0.185188
-9.14414e-06
0.00854026
-0.124197
-0.000126448
0.0103738
-0.154147
-0.00244735
-0.0887671
0.00495384
0.00147328
-0.172587
-7.80417e-06
0.0011181
-0.163687
-8.46204e-08
0.00420479
-0.137099
-3.33774e-06
0.00747418
-0.0880657
-9.51924e-05
0.00794625
-0.120741
-0.00306411
-0.0508975
0.00647132
-0.0115158
-0.153832
-0.000561162
-0.0102556
-0.158466
-8.98116e-05
-0.00535682
-0.107041
-3.31257e-05
0.0168491
-0.100324
-3.37566e-06
0.0196068
-0.108995
-0.000302827
-0.171828
0.00701433
-0.012541
-0.130716
-0.00399524
-0.0153551
-0.141759
-0.00503246
-0.0163401
-0.103852
-0.00280811
0.0142411
-0.102785
-0.010999
0.033863
-0.097422
-0.0186743
-0.134889
-0.00129569
-0.00714734
-0.0368491
-0.0748031
-0.00727066
-0.0538966
-0.0433615
-0.0169782
-0.0745615
-0.0294364
-0.000167862
-0.0557928
-0.0840158
0.00486955
-0.0212045
-0.0804226
-0.0440434
-0.0798943
-0.0016529
-0.0180105
-0.0042112
-0.0784763
-0.0134888
-0.0853345
-0.00739135
-0.0610579
0.00581851
-0.033582
-0.0473791
-0.0476677
-0.00890671
0.112466
-0.00114772
-0.118706
0.129846
-0.0213447
-0.0449184
0.123366
-0.0108067
-0.0964224
0.140879
0.0485163
-0.130902
0.129605
0.000956301
0.107285
0.0256062
-0.0576197
0.0795857
-0.0012027
-0.059197
0.0109642
-6.08676e-05
-0.0478651
0.0456571
-0.0106688
-0.0713445
0.0229023
-0.0313412
-0.0646458
0.0170655
-0.0500671
0.0675822
0.00466974
-0.0256128
0.0028591
-3.40436e-05
-0.0213086
0.00126589
-0.00149326
-0.0153953
0.00343513
-0.0030021
-0.0210655
0.00137772
-0.00365428
-0.0269912
0.000940238
-0.0155673
0.000651652
0.00351947
-0.0101192
-7.96471e-05
0.000685233
-3.41749e-05
7.93385e-06
-0.000673227
-0.000329346
-2.92545e-05
-0.000968075
-0.00141736
9.97167e-06
0.000567058
-0.00692266
-9.00382e-05
-0.000136037
-0.000122149
0.0012842
-0.000344123
-2.28296e-06
4.84768e-07
7.22198e-06
-1.17332e-05
-2.93185e-05
8.9113e-05
-7.25735e-07
-0.000559788
3.35004e-05
-1.19831e-05
-6.20766e-05
5.06292e-06
-2.10093e-06
0.000179933
-2.6069e-06
-1.05284e-07
0.000167548
-4.48427e-08
-1.17739e-06
2.90982e-07
-1.14576e-07
-4.06746e-07
2.88846e-06
-8.87507e-09
-1.19308e-07
1.24756e-06
-1.60395e-07
-6.01927e-06
2.29146e-07
-6.54331e-08
6.55558e-06
-5.18795e-09
-1.76735e-08
8.13554e-06
-2.23652e-08
-3.00914e-07
2.68629e-08
-4.32051e-09
-6.9132e-06
3.57411e-07
-9.65249e-10
-0.000139347
6.72524e-06
-1.13197e-06
-0.00262353
3.97253e-05
-3.08599e-06
-0.00769914
-4.56085e-05
-2.53885e-09
3.34396e-07
2.36481e-08
-6.13913e-08
3.58175e-09
-6.36093e-10
-3.11708e-06
7.15598e-08
8.11805e-09
-9.44993e-05
3.30808e-06
-2.94832e-07
-0.0031028
-6.85821e-07
-1.26177e-05
-0.0114272
3.15524e-05
1.58636e-05
-0.000494845
-7.70357e-07
8.02412e-07
-7.36241e-05
-1.11161e-06
1.49069e-07
-3.21968e-05
-7.04189e-08
4.67568e-08
4.27882e-09
5.02661e-09
5.34827e-06
-0.000307188
-1.55883e-06
-9.97934e-05
4.97266e-05
0.000707511
-0.00189103
-5.43476e-06
-4.31447e-05
-0.00434619
6.69803e-07
-0.000357826
-0.0025295
6.96174e-06
-0.000495264
-0.010857
-4.48277e-06
0.000663151
-0.0199099
-0.00021248
0.000743225
4.8051e-06
0.00865859
-0.0373504
-0.00866425
0.000516311
-0.0303241
-3.33423e-05
-0.00524725
-0.0191061
9.52855e-05
-0.0148693
-0.0417557
-0.00102411
0.00920946
-0.0473153
-0.0245592
-0.0420306
-0.00084436
0.0181061
-0.0593185
0.014522
-0.00960743
-0.00514659
-0.00878205
-0.026202
-0.0140492
-0.0161204
-0.0901294
-0.00671262
-0.0211446
0.024684
0.105775
-0.0250025
0.00570104
0.127053
-0.00937619
-0.00514294
0.117228
-0.00410269
-0.0037113
0.0770471
0.010011
-0.0183859
0.0862918
0.02497
0.0922413
0.00683252
-0.00280885
0.0358346
0.000489566
-0.000996832
0.017917
0.00813375
-0.0034284
0.0130749
-0.000419067
-0.00122291
0.00224453
-0.0228704
-0.000825678
0.00739859
-0.000459452
0.0118568
-0.000183136
7.93108e-05
0.000150199
6.5737e-05
1.84715e-06
8.2943e-05
-8.71734e-05
2.50305e-05
0.000133105
7.59272e-05
3.00893e-06
3.34119e-05
9.81495e-05
8.89642e-05
2.16452e-06
0.000122695
0.000162811
-4.51801e-07
2.28672e-06
-2.27537e-06
4.51483e-06
1.17201e-05
-5.81646e-06
-1.78394e-08
7.28864e-07
-4.58321e-07
3.22729e-06
1.20826e-05
-2.79856e-06
4.46046e-07
2.1067e-06
-5.41217e-07
2.54976e-06
-1.62454e-06
1.1429e-08
3.72813e-08
-4.96559e-08
-2.27633e-10
9.00936e-08
-1.21926e-07
2.46857e-10
9.05673e-09
-8.42099e-09
-5.35349e-09
1.45378e-07
-4.45949e-08
-7.56249e-10
7.31812e-09
-7.24498e-09
1.09654e-08
-3.2785e-08
2.93802e-10
1.05171e-09
-1.48613e-08
-1.39568e-10
-6.08045e-09
-1.99386e-08
-4.79062e-10
8.12837e-10
-1.86035e-09
-1.87181e-09
1.58759e-09
-1.69803e-08
-2.02056e-10
-6.27016e-08
-6.61343e-09
1.11104e-09
-1.13399e-08
-2.56186e-08
1.10017e-09
-5.84829e-09
2.89696e-09
4.50473e-09
3.70927e-08
-1.48819e-09
3.99359e-10
1.2849e-09
-1.46278e-07
4.29454e-08
-1.18068e-08
-1.00058e-05
-1.16105e-06
-3.1423e-08
-5.54375e-05
-2.25658e-07
-4.01194e-09
2.41837e-08
3.62396e-09
-7.2539e-10
-3.20803e-08
1.06275e-08
-1.82142e-09
-5.89595e-09
8.57926e-09
-4.07782e-07
3.7865e-08
2.44326e-08
-2.71584e-05
6.15678e-07
-1.68637e-08
-5.08914e-05
6.73669e-07
1.13747e-07
-8.8146e-07
3.7419e-08
1.63677e-08
-2.10513e-06
1.29651e-07
8.52012e-09
-9.73485e-08
2.21773e-08
7.09655e-09
5.36232e-09
1.7376e-09
6.36021e-08
1.00348e-06
-1.36489e-10
-8.87941e-07
-2.10318e-07
4.50622e-06
-4.63283e-06
-2.03729e-06
-1.33669e-06
4.75065e-06
-1.51062e-07
-5.18694e-08
6.19642e-06
-4.7253e-07
-4.23907e-06
2.2586e-07
-5.35935e-07
1.62027e-06
-0.000183942
-3.26901e-05
3.37299e-06
-1.20442e-06
-5.70698e-07
-0.00853469
-0.000128752
-2.85255e-05
1.91796e-06
-1.80108e-06
-6.63645e-06
7.11688e-05
9.30712e-06
4.32924e-06
5.87589e-07
-0.00103513
0.000329628
-0.0162596
-0.00879827
1.50465e-05
-0.000516764
-0.00111755
-0.019694
1.63719e-05
-0.010738
0.000351233
-0.00907312
0.000799139
-0.0145106
-6.30323e-05
-0.0389233
-0.00673493
-0.0116044
0.019155
0.0747855
-0.0238957
0.0266866
0.108065
-0.0207641
0.0144629
0.0983321
-0.00338304
0.00952092
0.0907384
0.00341231
0.0044659
0.0660603
0.0280991
0.067419
-0.000528067
-6.90854e-05
0.0144675
0.000641982
-5.04251e-05
0.0266291
0.00133185
-0.000126981
0.0136304
0.000560039
-1.75622e-05
0.00805792
-0.00311381
-1.12441e-05
0.00450365
-0.000163247
0.00517238
-2.39589e-05
2.23233e-06
9.81703e-05
-2.50569e-07
5.9963e-06
8.21407e-07
2.17176e-06
2.78014e-07
3.18592e-06
1.45088e-05
2.87824e-06
1.75731e-07
3.84475e-06
4.8652e-07
9.55404e-07
-6.88377e-07
5.02972e-06
1.49417e-07
4.70702e-08
-2.91195e-07
2.08455e-07
1.18806e-07
-1.91738e-08
2.23314e-08
7.34668e-09
-1.44537e-09
5.96369e-08
4.25622e-08
-2.31887e-11
3.0291e-09
5.32186e-09
-4.46317e-09
-1.97935e-09
-5.69784e-07
1.05298e-09
-3.45043e-09
-9.18507e-11
7.53495e-10
-3.05931e-09
-1.48689e-10
-4.50478e-11
-2.24108e-10
-3.75251e-11
-2.80913e-11
-2.04107e-09
-8.92864e-13
-1.25687e-10
-1.82547e-09
-1.47469e-13
-2.80749e-09
-5.67335e-12
5.25412e-10
-1.4798e-08
-1.43139e-09
5.61961e-10
-3.35096e-08
-8.45295e-10
-1.62129e-09
-3.827e-10
-4.20604e-11
-8.95598e-10
-8.85089e-09
-8.23088e-11
-3.48829e-09
-2.24479e-08
-7.10524e-11
-1.78749e-07
-4.42669e-10
-1.53438e-08
-2.78214e-09
4.31878e-09
-8.78982e-10
-1.08341e-08
2.76033e-08
-6.84775e-11
-2.74499e-09
7.07875e-10
-1.77218e-09
-3.67541e-09
2.30064e-10
-1.54152e-07
-5.69007e-09
-3.83365e-10
-6.00943e-07
2.99201e-09
-7.89242e-10
-1.90364e-09
1.57759e-09
4.13574e-11
-1.03543e-08
3.85227e-09
1.5573e-09
-4.36064e-09
5.13151e-09
1.39882e-09
-6.89624e-10
3.70354e-09
-3.39063e-08
3.33499e-10
-1.12737e-09
1.68997e-08
1.40594e-09
3.22002e-10
2.91052e-08
3.93336e-09
4.01109e-09
8.29821e-08
1.19224e-08
6.00884e-08
-1.02716e-06
8.91726e-09
1.93044e-09
1.40571e-08
-2.26877e-09
4.07297e-10
4.93073e-10
-6.35636e-09
6.60951e-09
-2.07194e-07
1.40992e-07
5.93393e-06
-8.13229e-06
7.749e-07
7.0815e-06
-1.46041e-05
2.43817e-08
5.47943e-06
-1.78725e-05
7.68497e-08
2.41491e-05
-2.47394e-05
7.49463e-06
-3.49e-05
-5.20168e-06
3.18786e-05
-2.55964e-05
-2.26316e-05
0.000151659
-0.000251768
3.52475e-07
0.000287902
-0.000201275
3.83522e-05
0.000522752
-0.000551195
0.000831801
-0.00267454
-0.000317181
0.000306686
-0.00397173
-0.000691587
0.000149556
-0.000252804
-2.63571e-05
-0.029581
0.0032917
-0.0309477
0.0087831
-0.0351926
0.00237655
-0.0302851
-0.00487622
-0.024783
-0.0267905
-0.000891973
-0.32735
0.0857696
-7.19034e-05
-0.327271
0.0859827
0.000226809
-0.327402
0.0858748
2.01322e-05
-0.327212
0.0858496
0.000102387
-0.327187
0.0859137
-0.327214
0.0857344
-0.000710018
-0.00989838
0.0193598
0.000376146
-0.0101299
0.0195199
0.000432205
-0.0100992
0.0194136
0.000161092
-0.00992735
0.0193447
0.000344283
-0.00980879
0.0193343
-0.0098476
0.0192527
-0.000170552
-0.00368124
2.95582e-05
-0.00380043
1.29259e-05
-0.00371419
2.63248e-05
-0.00378136
0.000158754
-0.00385694
-0.00365217
-4.70718e-05
-0.00193064
-3.11686e-06
-4.37941e-06
-0.0021089
-4.40782e-07
9.94351e-05
-0.00198715
-1.93918e-07
-3.26581e-06
-0.00203197
-3.47189e-06
-0.000193574
-0.00203383
-5.92314e-06
-0.00190668
-1.53681e-07
-6.03278e-05
0.0110883
-0.000113399
3.07817e-06
0.0107875
-6.01555e-05
1.71524e-05
0.0109457
-5.35077e-05
-8.4318e-06
0.0109276
-9.98909e-05
-1.25524e-05
0.0108723
-0.000126029
0.0110172
-4.24916e-05
-0.000514894
-0.000722434
2.45027e-05
-0.0005428
-4.88395e-06
-0.00039203
3.51873e-05
-0.000800336
0.000453069
-0.00106489
-0.000266463
1.9461e-08
-3.5701e-06
-6.14117e-06
-5.70765e-10
-2.0777e-06
-4.67291e-06
-3.18957e-09
-2.09537e-06
-4.42685e-06
-3.72541e-09
-3.23941e-06
-6.03463e-06
-6.64729e-09
-3.64723e-06
-7.75266e-06
-1.46129e-06
-3.66781e-06
1.29707e-07
-2.78722e-06
-0.000116953
-7.79495e-10
2.41311e-07
-6.75333e-05
-2.69577e-10
-6.81407e-07
-6.01515e-05
2.64718e-08
1.07251e-08
-0.000108163
-3.94281e-08
5.73349e-07
-0.000134453
-1.1915e-06
-4.48512e-05
1.21035e-06
-0.000726432
1.18054e-07
-0.000549806
-8.26845e-08
-0.000402462
-1.85675e-07
-0.000810666
-8.55395e-08
-0.00107778
-0.00026774
3.36867e-07
9.68241e-06
-2.49616e-05
1.0593e-08
9.07773e-06
-2.10657e-05
-1.34392e-07
7.50419e-06
-1.97742e-05
-6.79524e-08
1.1536e-05
-2.57601e-05
3.01685e-07
1.53412e-05
-3.10276e-05
5.09448e-06
-1.52811e-05
2.44817e-06
0.000189596
-0.000305694
-4.16612e-08
0.000112855
-0.000176562
1.41649e-07
7.95205e-05
-0.000141681
-3.61348e-07
0.000197609
-0.000301283
-8.63387e-07
0.000275683
-0.000402425
4.29913e-05
-8.80675e-05
1.93639e-05
-0.00313507
-4.37777e-07
-0.00318941
2.15656e-05
-0.00314504
2.40634e-06
-0.00301193
-4.6626e-05
-0.00284101
-0.000828515
1.33396e-05
0.000630097
-0.000645846
1.06252e-06
0.000393843
-0.000373262
-5.15239e-06
0.000363336
-0.000349168
5.5383e-07
0.000574603
-0.000583067
1.98494e-05
0.000664607
-0.000705611
0.000256753
-0.00023173
1.05335e-05
0.00219708
-0.00302094
-1.49024e-06
0.00140345
-0.00303005
-2.31345e-06
0.0012108
-0.00320416
3.94149e-06
0.00223453
-0.00349298
1.06242e-05
0.00278161
-0.00333449
0.00249209
-0.00296937
-1.65653e-05
-0.00306133
-2.22618e-05
-0.00341046
6.91094e-05
-0.0033908
-1.94335e-05
-0.00322088
-0.000227381
-0.00338695
-0.00310012
1.15689e-06
0.00428648
-0.00777147
4.89301e-07
0.00444415
-0.00647142
-9.78243e-07
0.0045917
-0.00687683
3.49303e-05
0.00462187
-0.00735612
8.98165e-05
0.00469214
-0.00801421
0.00466914
-0.00793849
-7.84775e-05
0.00133751
-0.00375644
-8.61352e-06
0.00181795
-0.0039444
4.34766e-05
0.00173756
-0.00412683
1.96816e-05
0.00148825
-0.00365493
-4.13319e-05
0.00108852
-0.00375609
0.00412198
-0.00421943
-2.6677e-05
-5.36321e-10
-2.30898e-05
-5.55769e-10
-1.21635e-05
-5.52722e-10
-1.68102e-05
-5.65767e-10
-4.55903e-05
-5.46199e-10
-5.96048e-10
-0.000312978
0.00054202
-0.00236159
-6.93968e-05
0.000959463
-0.00255164
0.000136814
0.00120328
-0.00225576
-1.76267e-06
0.000607601
-0.0021989
-0.000399345
0.000391
-1.43397e-05
0.00189792
-0.0022627
-3.26243e-05
-2.23955e-10
-3.59037e-09
-1.23899e-05
-2.06916e-10
-3.25145e-09
1.12017e-05
-2.10861e-10
-3.1524e-09
-4.32886e-06
-2.22979e-10
-3.67325e-09
-6.44782e-05
-2.43036e-10
-4.09969e-09
-1.8999e-10
-2.84317e-09
-1.47116e-13
-7.60129e-10
-1.16099e-13
-7.62716e-10
-1.43489e-13
-7.63555e-10
-1.1794e-13
-7.88772e-10
-6.5631e-13
-7.88696e-10
-7.86695e-10
-2.66436e-06
-4.96052e-10
-2.02501e-06
-8.00387e-07
-8.90084e-10
-2.50554e-06
1.44845e-06
-9.94722e-10
-2.66576e-06
-7.56021e-10
-6.34552e-10
-2.02717e-06
-2.07018e-05
-2.04392e-10
-6.97791e-07
-1.34273e-09
-3.33071e-06
1.62237e-12
-1.85105e-09
-2.11786e-09
-1.01336e-12
-1.93859e-09
-2.08192e-09
-5.86928e-12
-1.94144e-09
-2.08169e-09
-1.65415e-12
-1.97908e-09
-2.21455e-09
4.02195e-13
-1.91792e-09
-2.26801e-09
-1.98949e-09
-2.07579e-09
1.3416e-11
-2.62459e-09
-2.01415e-12
-2.68588e-09
-2.29665e-11
-2.68404e-09
-2.25365e-12
-2.78857e-09
3.30075e-11
-2.74188e-09
-2.74318e-09
3.7782e-09
-1.23725e-07
-2.13403e-05
8.48437e-10
-1.23631e-07
-2.05662e-05
-9.67057e-09
-1.23644e-07
-2.08053e-05
-5.93486e-10
-1.27718e-07
-2.12771e-05
2.44614e-08
-1.29747e-07
-2.1376e-05
-1.23645e-07
-2.10284e-05
2.01434e-12
-1.18803e-07
-6.80033e-09
7.95133e-13
-1.19343e-07
-6.13087e-09
-1.92853e-11
-1.1932e-07
-6.14795e-09
5.94291e-13
-1.23917e-07
-7.21486e-09
3.23301e-11
-1.28053e-07
-6.18389e-09
-1.19251e-07
-6.19624e-09
3.21167e-10
-1.2596e-07
-9.77679e-11
-1.26671e-07
-5.13031e-10
-1.26532e-07
-1.14624e-10
-1.26317e-07
3.9234e-10
-1.25788e-07
-1.26962e-07
2.05802e-07
-6.58666e-07
-3.03011e-05
-1.59592e-07
-6.48638e-07
-3.80245e-05
-4.66085e-07
-6.55143e-07
-3.7971e-05
-1.43342e-07
-6.35685e-07
-2.90659e-05
8.94411e-07
-7.64949e-07
-2.62622e-05
-6.2072e-07
-4.29637e-05
-1.10376e-10
-8.28962e-07
5.03263e-09
-1.60789e-11
-8.31327e-07
4.50213e-09
5.90029e-11
-8.31431e-07
4.49708e-09
4.53273e-12
-8.28075e-07
5.48135e-09
-1.75332e-10
-8.27535e-07
4.87698e-09
-8.27021e-07
4.54557e-09
8.62038e-10
2.71774e-08
-8.12943e-10
2.68583e-08
-2.01446e-09
2.67835e-08
-3.78197e-10
2.7044e-08
-5.27858e-10
2.71735e-08
2.68231e-08
3.08092e-06
-1.04018e-08
-0.00610219
1.05896e-06
-9.75908e-09
-0.00588344
1.54934e-06
-9.71614e-09
-0.00587457
-4.74639e-07
-1.08058e-08
-0.00612631
-1.9686e-06
-1.02906e-08
-0.00634358
-9.73975e-09
-0.00575008
-8.60355e-13
-5.42218e-09
5.44355e-11
-1.9912e-13
-5.3067e-09
5.01524e-11
6.57593e-13
-5.26878e-09
4.99103e-11
2.73804e-14
-5.38067e-09
5.71817e-11
-1.73823e-12
-5.46403e-09
5.42181e-11
-5.24481e-09
4.99764e-11
-3.06855e-12
-4.50161e-10
-4.13475e-12
-4.40917e-10
-4.476e-12
-4.37965e-10
-2.05233e-12
-4.47347e-10
-2.87176e-12
-4.52388e-10
-4.39918e-10
0.000282376
-1.44734e-10
-0.0317406
8.98736e-05
-1.3974e-10
-0.031737
-6.5132e-05
-1.40427e-10
-0.0316677
-6.65844e-05
-1.48234e-10
-0.0317169
0.000195444
-1.46648e-10
-0.0317221
-1.38015e-10
-0.0315772
-1.88256e-14
-9.02794e-11
1.02949e-16
-9.79999e-15
-8.95971e-11
8.37049e-17
-2.11967e-15
-9.0525e-11
1.53263e-16
7.84792e-16
-9.10552e-11
1.77672e-17
-4.9406e-15
-9.24252e-11
9.07178e-16
-8.80434e-11
4.59634e-17
-2.4488e-13
9.31485e-28
-1.06448e-13
1.0598e-27
2.23128e-14
1.13509e-27
3.66542e-14
1.1409e-27
-1.28342e-13
1.28009e-27
9.11299e-28
-0.000789408
-5.93655e-12
-0.0222825
0.0325934
-0.000804841
-1.08934e-11
-0.0222008
0.0322903
2.32438e-05
-5.35307e-12
-0.0218952
0.0314167
0.00089398
-6.06179e-12
-0.0218768
0.031279
0.000298375
-5.82694e-12
-0.0208764
0.0307102
-4.38781e-12
-0.0221872
0.0323749
-1.30081e-14
-5.92661e-12
6.42635e-17
3.00298e-15
-4.51215e-15
-3.0317e-12
4.72449e-17
-7.87022e-12
-1.80095e-15
-8.84307e-13
1.29763e-17
-4.47149e-12
-5.41213e-16
-3.66813e-12
9.24151e-19
-2.39492e-12
1.3197e-15
-5.61359e-12
3.54376e-17
-2.15244e-13
-3.99681e-12
1.28654e-17
-3.89724e-13
5.55068e-14
6.7466e-27
-4.17465e-13
1.15605e-14
5.76426e-27
-1.2595e-13
-4.12895e-15
9.50004e-27
-4.47734e-14
-4.22957e-14
6.03104e-27
-1.58825e-12
5.457e-14
8.21824e-27
-7.27328e-12
4.3104e-27
-1.6051e-12
0.00021831
1.59867e-16
-0.0101599
2.18266e-06
1.24577e-16
-0.0100449
-0.00045963
3.29875e-17
-0.0100118
-0.000325691
2.73647e-18
-0.0101192
0.000213041
1.30957e-16
-0.0101791
3.83908e-17
-0.0101414
-1.53723e-18
1.07535e-26
1.68831e-16
-3.05874e-18
8.47406e-27
1.13043e-16
-2.15247e-19
1.33383e-26
1.5683e-16
1.65247e-18
9.07514e-27
1.69345e-17
6.16119e-19
1.36049e-26
7.44356e-16
6.71925e-27
6.9597e-17
-1.17708e-28
5.888e-27
-3.55372e-29
5.63316e-27
1.05581e-28
6.09927e-27
3.25139e-28
5.46645e-27
5.33873e-29
9.70342e-27
3.52534e-27
-0.000231135
2.92819e-16
0.000421316
-0.000198401
2.46682e-16
0.000373481
2.15333e-05
4.0114e-16
0.000324024
3.64832e-05
4.40913e-17
0.000477155
-2.21419e-05
2.49984e-15
0.000509258
1.54647e-16
0.000402548
2.6471e-17
8.19087e-27
-1.17602e-16
5.46481e-17
7.79157e-27
-1.0101e-16
4.76462e-18
8.34514e-27
-1.63914e-16
1.58586e-16
7.34719e-27
-1.94842e-17
-1.14933e-16
1.33488e-26
-1.14624e-15
4.8686e-27
-6.6125e-17
-6.07403e-29
9.6345e-29
-2.94093e-29
1.56415e-28
1.8385e-29
1.93172e-28
7.00306e-29
1.37378e-28
-3.13038e-29
4.87943e-29
5.12353e-29
-0.000132653
2.18051e-16
0.0109524
-0.000190672
1.80566e-16
0.0109334
-0.00018264
3.19905e-16
0.0109369
-6.76608e-05
1.59338e-17
0.0110127
3.10511e-05
1.99595e-15
0.0110319
1.05004e-16
0.0110165
1.4345e-18
8.64836e-27
-3.07807e-16
3.28207e-18
1.01441e-26
-2.52131e-16
3.26959e-19
1.11519e-26
-4.39809e-16
2.62486e-17
1.06032e-26
-2.18351e-17
-1.81079e-17
1.16664e-26
-2.75069e-15
7.97783e-27
-1.47077e-16
-6.22997e-29
-5.85301e-27
-8.00326e-29
-6.804e-27
-2.44646e-29
-7.4313e-27
4.26385e-29
-7.08325e-27
3.17126e-29
-7.82587e-27
-5.40485e-27
-0.000129972
2.87977e-16
0.0214669
-0.000196354
2.36663e-16
0.0214791
-0.000181024
4.27257e-16
0.0215175
-7.28562e-05
3.2614e-17
0.0215187
1.63535e-05
2.63443e-15
0.0215319
1.32573e-16
0.0215898
-6.55616e-20
8.04737e-27
-2.63423e-16
-3.28001e-19
9.52126e-27
-2.14116e-16
-3.1351e-19
1.04344e-26
-3.84093e-16
-7.47432e-21
1.0262e-26
-2.88718e-17
-7.32681e-18
1.13166e-26
-2.33096e-15
7.9607e-27
-1.19199e-16
-3.41737e-29
-6.40736e-27
-5.69525e-29
-7.50069e-27
-6.06633e-29
-8.17156e-27
-1.36142e-29
-7.97044e-27
2.20852e-29
-8.78328e-27
-6.24218e-27
8.60494e-05
2.75512e-16
9.50216e-05
2.2449e-16
0.000118463
4.11587e-16
6.92995e-06
4.82998e-17
-0.000137053
2.47886e-15
1.238e-16
-9.87071e-20
1.02306e-26
1.61141e-19
1.2187e-26
9.4074e-20
1.32873e-26
9.27797e-19
1.34828e-26
-7.27155e-18
1.49602e-26
1.09003e-26
-1.03179e-29
-2.57972e-29
-3.49195e-29
-2.46791e-29
1.05782e-29
-0.00638916
0.0598085
0.0148348
-0.0154346
0.102658
0.0131385
-0.0197325
0.0887081
0.0128828
-0.00307024
0.0848058
0.00758781
0.00651524
0.0494244
0.00384506
0.0558077
0.0180432
-0.0704347
0.139344
-0.010098
-0.022659
0.0141515
0.00697622
-0.00340428
0.0276701
-0.00240623
0.0151737
0.0272732
-0.000507241
0.0663623
0.00931544
0.00233891
0.135789
-0.0137717
-0.0143121
-0.00421515
-0.00241609
-0.00137001
-0.0038773
-0.00290089
0.000765812
-0.00240054
0.0147561
-0.000483674
-0.00286095
-0.00143403
0.0124565
-6.74458e-05
-9.26742e-05
0.0204957
-2.60442e-07
0.00125348
0.0151028
-3.2419e-06
0.000822159
0.010372
2.2454e-06
-0.000973235
0.00487858
1.47395e-05
0.00777702
-4.96078e-06
-0.000710281
0.00442622
-2.49285e-05
-0.000226437
0.0152051
-1.96978e-07
0.000538415
0.0118657
-9.88877e-08
0.000504505
0.00990361
-6.91614e-06
-0.000796415
0.00457707
1.31296e-05
0.00290983
-2.40915e-06
0.000159308
-4.12192e-07
0.00176585
-4.05222e-08
-0.000167279
-1.82197e-08
-0.00117463
-2.85053e-07
-4.66657e-05
-2.1493e-05
-2.05276e-07