/*--------------------------------*- C++ -*----------------------------------*\
| =========                 |                                                 |
| \\      /  F ield         | OpenFOAM: The Open Source CFD Toolbox           |
|  \\    /   O peration     | Version:  v1612+                                |
|   \\  /    A nd           | Web:      www.OpenFOAM.com                      |
|    \\/     M anipulation  |                                                 |
\*---------------------------------------------------------------------------*/
FoamFile
{
    version     2.0;
    format      ascii;
    class       volScalarField;
    location    "6.95";
    object      p;
}
// * * * * * * * * * * * * * * * * * * * * * * * * * * * * * * * * * * * * * //

dimensions      [1 -1 -2 0 0 0 0];

internalField   nonuniform List<scalar> 
1116
(
17294.4
17294.4
17294.4
17294.4
17294.4
17294.4
16051.9
16052.1
16052
16052
16052
16052
13834.2
13834.6
13834.5
13834.4
13834.4
13834.5
11180.7
11181
11180.9
11180.9
11181.1
11180.6
8838.88
8839.67
8839.03
8839.59
8839.18
8839.02
7002.86
7007.56
7006.17
7005.41
7002.67
7008.28
5903.5
5900.68
5901.69
5903
5906.44
5899.72
5559.44
5555.88
5558.31
5558.55
5563.41
5555.93
5631.42
5626.44
5628.79
5630.57
5632.75
5627.03
5794.19
5797.16
5795.87
5795.84
5790.07
5804.4
6189.67
6198.17
6197.47
6187.66
6177.35
6206.73
6455.49
6452.69
6457.78
6451.92
6458.34
6452.38
11057.5
11057.5
11057.5
11057.5
11057.5
11057.4
8068.61
8069.28
8069.05
8068.9
8069.02
8068.95
5244.1
5245.12
5244.98
5244.53
5244.58
5244.86
2989.25
2990.31
2989.68
2989.81
2990.18
2989.26
1565.98
1565.62
1565.26
1565.65
1566.2
1564.34
898.624
892.011
893.295
894.098
896.998
892.718
598.224
596.893
597.41
599.051
600.904
601.08
647.745
645.564
646.503
650.204
651.654
647.595
919.01
920.522
920.737
919.608
916.837
924.655
1123.43
1125.99
1124.95
1124.63
1121.71
1130.36
1376.42
1382.1
1380.42
1376.2
1370.39
1382.8
1546.61
1547.08
1547.63
1544.1
1542.84
1543.23
5374.13
5374.21
5374.18
5374.09
5374.05
5374.12
1535.96
1536.59
1536.64
1536.09
1536.12
1536.68
550.099
550.061
550.628
549.651
549.486
550.777
71.818
71.3295
71.5677
71.6291
72.0637
71.1563
-51.4721
-54.8724
-53.765
-52.9028
-51.8951
-55.0247
78.1278
73.9689
74.3699
75.9879
78.9107
70.987
172.134
170.275
169.718
170.916
170.29
168.151
139.735
141.963
141.174
141.212
139.734
144.625
136.903
138.525
138.207
137.83
135.701
141.355
135.712
137.98
136.954
136.635
135.199
139.641
246.996
249.005
246.692
247.985
244.797
247.699
230.521
231.807
230.212
231.344
228.926
231.682
2681.69
2681.68
2681.55
2681.67
2681.54
2681.37
-88.8279
-89.1502
-88.9647
-88.9138
-88.8673
-88.9003
-50.7463
-50.9979
-50.7998
-50.9642
-51.0147
-50.7344
-82.475
-82.5874
-82.5686
-82.5409
-82.4786
-82.5036
-69.0989
-69.8455
-69.8021
-69.7669
-69.3194
-70.4383
-13.1589
-13.1374
-12.7539
-12.8644
-12.8441
-13.3383
30.8989
33.2133
33.6341
33.7099
32.9322
35.2017
14.4046
16.1127
15.9923
15.4269
13.5465
17.6359
-1.38789
-1.24304
-1.35462
-1.62797
-2.21414
-0.95596
-0.566832
-0.476839
-0.53722
-0.797658
-1.06941
-0.690133
9.95307
10.5066
10.1396
10.0168
9.51277
10.2216
-81.9396
-82.8067
-81.9864
-82.2656
-81.2536
-82.3586
2169.58
2185.42
2203.53
2238.01
2254.17
2176.01
1855.12
1753.69
1920.83
1763.25
1785.27
1725.47
1263.31
1176.63
1277.75
1184.91
1235.9
1291.2
710.282
704.311
731.736
653.153
720.59
825.587
445.302
444.057
454.203
452.847
442.632
534.145
409.187
411.465
416.306
413.939
389.108
396.725
369.574
338.046
340.622
295.435
297.794
290.995
374.861
345.133
292.1
230.095
236.394
260.245
374.881
366.642
293.517
302.476
319.262
341.89
396.314
387.175
362.409
419.062
482.434
422.939
669.218
660.318
638.56
733.272
740.923
773.829
697.704
709.827
752.076
805.61
871.189
848.95
1207.47
1249.05
1222.36
1295.1
1209.66
1176.96
479.373
359.345
438.552
369.073
390.083
417.351
68.1437
63.6421
72.9176
59.0284
60.5705
59.7245
-15.1433
-46.2884
-45.3643
-36.5041
-20.0114
-29.9063
-43.278
-49.9874
-44.0923
-43.7117
-41.3492
-38.5389
-35.2495
-31.9794
-28.3017
-24.0566
-19.8264
-12.4631
-24.8285
-26.5065
-27.6423
-23.5127
-15.7078
-2.37117
-17.0201
-18.9969
-20.3846
-28.0178
-37.4724
-23.8645
0.00585127
-4.24819
-5.68301
-13.7725
-22.6285
-21.1213
10.343
9.40861
9.36752
8.35214
6.97791
-2.54779
65.1613
44.471
44.9371
71.3798
100.757
65.6431
167.148
102.555
70.1709
196.952
251.989
250.273
518.903
483.709
500.509
476.383
393.263
476.403
51.3817
53.1485
45.4945
26.0711
17.7344
28.9806
-16.6372
-8.42233
-13.8343
-11.6488
-12.6507
-13.033
-24.2611
-25.5795
-25.421
-24.122
-23.9926
-20.9738
-19.8146
-21.7928
-18.1387
-19.9753
-16.8644
-16.0852
-24.9555
-24.6797
-23.0285
-21.639
-19.9705
-19.187
-29.4365
-28.32
-28.8835
-27.7301
-23.663
-24.0918
-27.3325
-25.9967
-23.7235
-28.5385
-28.6423
-27.42
-15.7247
-14.6309
-13.9761
-19.0397
-22.4168
-22.581
-19.398
-21.0684
-21.0949
-27.8467
-24.8559
-27.4246
-14.9818
-16.5187
-15.5454
-14.4316
-12.0554
-14.9115
-46.5846
-29.5943
-33.9625
-29.1895
-21.8861
-22.7369
217.178
218.907
194.299
228.103
171.671
194.501
-16.0258
-7.2128
-18.6823
-22.6526
-31.3409
-23.0927
-14.5195
-13.3351
-12.6574
-12.8627
-13.4131
-13.0014
-32.6313
-33.4171
-35.1278
-33.7724
-34.3659
-33.4512
-34.2641
-34.071
-33.8846
-33.3092
-33.082
-33.0988
-39.4726
-40.0316
-40.3306
-38.7225
-38.1395
-39.6591
-40.6761
-40.7821
-40.6546
-39.7767
-36.6472
-36.3399
-36.5232
-36.0999
-34.8004
-37.7498
-36.2516
-36.1392
-26.2679
-25.7269
-25.0821
-26.8914
-28.7982
-29.6325
-32.9645
-32.8632
-32.9254
-32.6355
-32.9334
-33.871
-22.6622
-16.6838
-20.1407
-22.8721
-26.3253
-27.432
-62.1797
-60.7367
-71.7514
-101.626
-127.251
-96.8421
1897.92
1901.75
1899.7
1899.04
1899.53
1898.15
454.935
455.993
454.193
452.226
451.391
450.427
-197.173
-196.202
-197.06
-196.516
-196.442
-197.85
-63.7619
-65.547
-64.5595
-64.7972
-65.0611
-63.3364
-99.6995
-100.732
-100.671
-100.502
-100.334
-99.6844
-155.721
-150.949
-153.054
-152.351
-152.122
-156.372
-58.1792
-58.3209
-58.1504
-58.2386
-58.2611
-58.0425
-53.257
-53.8851
-52.8381
-53.4778
-54.4831
-52.8092
-69.8432
-69.5101
-70.1653
-70.066
-69.6029
-70.4051
-105.585
-105.288
-105.213
-105.243
-105.024
-104.882
-96.8194
-96.7326
-96.1956
-96.147
-95.6634
-94.4705
-93.3277
-93.7446
-92.7777
-93.0434
-92.8181
-89.5668
-84.8253
-85.2716
-85.1894
-85.0988
-84.6296
-85.5653
-90.973
-90.9188
-90.711
-90.5681
-90.3486
-90.0137
-109.402
-109.381
-108.985
-108.949
-108.874
-105.303
-49.6073
-49.2262
-49.1882
-48.8566
-48.8257
-50.3957
-74.2533
-74.0755
-74.0848
-73.6932
-73.9368
-75.7274
-121.037
-121.875
-122.003
-120.437
-120.793
-123.779
-27.3668
-26.436
-26.2373
-25.6804
-25.6452
-25.8666
-50.6316
-50.1697
-50.0474
-50.2106
-50.1693
-49.7293
-91.8685
-91.7263
-91.6891
-91.7692
-92.1981
-91.7079
-28.0993
-27.9091
-27.9521
-28.0996
-28.5064
-27.8281
-48.5619
-48.6404
-48.6495
-48.4132
-48.2764
-48.5777
-72.6713
-72.7698
-72.765
-72.6414
-72.6003
-72.8582
-22.907
-22.9565
-23.0169
-23.0878
-23.2319
-23.4085
-43.1843
-43.1629
-43.1887
-43.2287
-43.2531
-43.2844
-63.7811
-63.8001
-63.8005
-63.7901
-63.7953
-63.8075
-25.8228
-26.136
-26.035
-25.7986
-25.4999
-26.2479
-47.6483
-47.6522
-47.6524
-47.6429
-47.6468
-47.6583
-63.2144
-63.2197
-63.2164
-63.1994
-63.1992
-63.2122
-41.4033
-41.3229
-41.24
-41.3646
-41.386
-41.2453
-54.5728
-54.5594
-54.5573
-54.5721
-54.5866
-54.5606
-65.3052
-65.3031
-65.2996
-65.2952
-65.2964
-65.2925
7.6473
6.17731
6.49997
7.13249
8.10308
6.15075
-51.0458
-51.0479
-51.0627
-51.0464
-51.0472
-51.0644
-71.6642
-71.6121
-71.6154
-71.6183
-71.6464
-71.6061
221.651
221.705
220.943
218.965
213.479
219.225
-47.6211
-47.4512
-47.4245
-47.5521
-47.7917
-47.5684
-71.8054
-71.7959
-71.7644
-71.9282
-71.9845
-72.028
243.805
243.526
244.506
247.912
250.793
247.113
-51.294
-51.2489
-51.2294
-51.163
-51.086
-51.0639
-70.3152
-70.3356
-70.3511
-70.3907
-70.3585
-70.3381
256.562
256.902
257.312
257.635
257.622
257.472
-49.6762
-49.657
-49.6458
-49.6874
-49.7024
-49.6912
-69.4577
-69.4662
-69.4713
-69.4858
-69.4872
-69.4881
255.489
255.696
256.013
256.38
256.473
256.405
-50.28
-50.28
-50.2826
-50.2808
-50.2767
-50.265
-69.4268
-69.4352
-69.4455
-69.4515
-69.4497
-69.4475
249.516
249.681
249.986
250.199
250.213
250.261
-49.6859
-49.6738
-49.6619
-49.6517
-49.6414
-49.647
-70.2891
-70.2963
-70.3066
-70.3193
-70.3245
-70.3203
211.972
211.46
211.428
211.45
211.412
211.355
-47.5439
-47.5442
-47.5409
-47.5282
-47.5159
-47.5312
-72.3268
-72.331
-72.3403
-72.3487
-72.3576
-72.3521
128.882
124.304
105.033
151.628
110.312
132.283
-196.164
10.6655
-174.527
-128.711
28.7837
-131.401
-178.638
-153.312
-169.743
-143.971
-105.341
-143.38
-44.7944
-39.9745
-46.5345
-48.2578
-55.915
-46.1057
-67.7731
-74.1074
-91.0664
-79.2091
-77.1019
-63.5743
-91.1679
-104.013
-110.898
-101.625
-92.6637
-84.929
-29.1359
-28.9816
-28.1765
-29.574
-32.2352
-31.5073
-45.2684
-44.0657
-45.1237
-45.0018
-45.1765
-46.3232
-63.2489
-62.1312
-62.3357
-62.0663
-61.7883
-64.2141
-41.9418
-43.0414
-43.1862
-43.578
-44.105
-43.2997
-57.293
-57.6479
-58.0096
-57.6368
-57.0028
-57.0904
-69.6146
-70.3817
-70.7607
-70.237
-69.1859
-69.1092
-38.1086
-38.264
-37.8459
-37.8284
-37.7154
-37.4502
-53.0394
-52.8437
-52.8535
-52.9045
-52.9668
-53.0075
-62.1187
-62.0825
-62.0034
-61.9584
-61.9305
-61.98
-40.6102
-40.4345
-40.5831
-40.6828
-40.5146
-39.9717
-54.6274
-54.5464
-54.6054
-54.733
-54.8019
-54.7251
-62.6578
-62.6231
-62.6328
-62.7238
-62.7173
-62.7143
-39.5901
-39.8713
-40.2587
-40.1775
-40.053
-39.8625
-52.8003
-52.299
-52.1411
-52.7099
-53.1132
-53.0929
-61.6899
-61.6299
-61.5392
-61.6546
-61.6864
-61.7392
-40.8525
-41.206
-41.561
-41.5034
-41.4522
-41.0437
-54.0946
-53.9694
-54.2032
-54.0787
-54.0505
-54.1702
-61.5546
-61.4328
-61.308
-61.4069
-61.5773
-61.672
-34.4455
-35.3417
-36.8349
-36.6948
-37.9131
-37.0448
-55.1128
-55.531
-55.8554
-55.0826
-54.4377
-54.5406
-60.6646
-60.5752
-60.5928
-60.7494
-60.9075
-60.9462
-38.9931
-39.6941
-41.0946
-41.1205
-40.8717
-40.67
-57.6244
-57.6656
-57.6157
-57.5244
-57.0668
-57.4052
-60.9996
-60.9243
-60.9907
-60.9914
-61.0753
-61.0291
-45.5083
-47.0708
-47.8071
-48.012
-47.0946
-46.9925
-59.8896
-59.9606
-59.9229
-59.6059
-58.7215
-59.0412
-61.8243
-61.8875
-62.0762
-62.3303
-62.5237
-62.4937
-6.39747
-7.78562
-8.74828
-15.646
-24.9977
-10.7983
-58.4439
-58.2051
-57.6878
-57.494
-56.489
-57.2322
-73.4311
-73.5926
-73.3083
-72.7749
-71.6095
-72.5491
)
;

boundaryField
{
    seabed_topleft_surface
    {
        type            calculated;
        value           nonuniform List<scalar> 
72
(
20665.1
20665.1
20665.1
20665.1
20665.1
20665.1
20677.6
20678
20677.8
20677.7
20677.8
20677.7
18630.2
18630.6
18630.6
18630.4
18630.4
18630.5
15976.8
15977
15976.9
15977
15977.2
15976.6
13634.9
13635.7
13635
13635.6
13635.2
13635
11504.4
11508.4
11506.8
11507.5
11505
11508.6
10197.6
10195.4
10196.3
10197.6
10200.4
10194.4
9748.91
9745.98
9748.94
9747.78
9751.92
9746.63
9762.61
9757.21
9760.65
9760.98
9762.9
9758.62
9886.71
9887.54
9887.66
9887.49
9883.09
9895.08
10275.1
10281.7
10282.3
10272.3
10263.2
10290.5
10537.5
10533.8
10539.6
10533.7
10540.6
10533.3
)
;
    }
    seabed_topright_surface
    {
        type            calculated;
        value           nonuniform List<scalar> 
72
(
2626.12
2642.03
2660.18
2694.63
2710.8
2632.64
2311.66
2210.21
2377.45
2219.92
2241.9
2182.1
1719.75
1380.01
1565.52
1496.46
1692.5
1747.83
947.835
881.652
1012.14
800.17
1033.49
1282.18
636.112
822.14
832.752
831.396
747.472
972.617
786.411
786.211
794.369
792.668
768.614
775.373
747.908
678.064
683.74
547.861
636.728
501.549
753.516
707.729
588.227
448.093
535.326
381.792
753.898
744.293
580.961
630.253
658.994
587.322
775.34
764.246
705.36
794.914
869.705
817.38
1035.19
976.262
1008.12
1132.86
1142.99
1170.76
917.136
956.074
1140.31
1207.68
1273.26
1121.48
)
;
    }
    breakwater_top_surface
    {
        type            calculated;
        value           nonuniform List<scalar> 
36
(
509.476
508.013
506.326
504.477
497.529
505.911
543.144
541.967
544.248
552.145
559.156
549.597
566.11
566.861
567.743
568.384
568.401
568.021
564.355
564.844
565.529
566.237
566.343
566.231
556.783
557.209
557.846
558.328
558.327
558.446
496.493
495.485
495.477
495.554
495.556
495.36
)
;
    }
    breakwater_left_surface
    {
        type            calculated;
        value           nonuniform List<scalar> 
24
(
6469.47
6466.66
6471.76
6465.9
6472.32
6466.36
1550.56
1551
1551.56
1548.04
1546.82
1547.14
230.955
232.256
230.655
231.775
229.342
232.125
-81.4898
-82.3545
-81.5366
-81.8192
-80.8096
-81.9127
)
;
    }
    breakwater_right_surface
    {
        type            calculated;
        value           nonuniform List<scalar> 
24
(
698.456
710.671
753.405
806.987
872.566
849.883
167.89
103.161
70.476
197.825
253.338
251.289
-46.2973
-29.578
-33.946
-29.1731
-21.6002
-22.7206
-62.1268
-60.5966
-71.5627
-101.454
-127.122
-96.7339
)
;
    }
    water_front_surface
    {
        type            calculated;
        value           nonuniform List<scalar> 
186
(
17294.4
16051.9
13834.2
11180.7
8838.88
7002.86
5903.5
5559.44
5631.42
5794.19
6189.67
6455.49
11057.5
8068.61
5244.1
2989.25
1565.98
898.624
598.224
647.745
919.01
1123.43
1376.42
1546.61
5374.13
1535.96
550.099
71.818
-51.4721
78.1278
172.134
139.735
136.903
135.712
246.996
230.521
2681.69
-88.8279
-50.7463
-82.475
-69.0989
-13.1589
30.8989
14.4046
-1.38789
-0.566832
9.95307
-81.9396
2169.58
1855.12
1263.31
710.282
445.302
409.187
369.574
374.861
374.881
396.314
669.218
697.704
1207.47
479.373
68.1437
-15.1433
-43.278
-35.2495
-24.8285
-17.0201
0.00585127
10.343
65.1613
167.148
518.903
51.3817
-16.6372
-24.2611
-19.8146
-24.9555
-29.4365
-27.3325
-15.7247
-19.398
-14.9818
-46.5846
217.178
-16.0258
-14.5195
-32.6313
-34.2641
-39.4726
-40.6761
-36.5232
-26.2679
-32.9645
-22.6622
-62.1797
1897.92
454.935
-197.173
-63.7619
-99.6995
-155.721
-58.1792
-53.257
-69.8432
-105.585
-96.8194
-93.3277
-84.8253
-90.973
-109.402
-49.6073
-74.2533
-121.037
-27.3668
-50.6316
-91.8685
-28.0993
-48.5619
-72.6713
-22.907
-43.1843
-63.7811
-25.8228
-47.6483
-63.2144
-41.4033
-54.5728
-65.3052
7.6473
-51.0458
-71.6642
221.651
-47.6211
-71.8054
243.805
-51.294
-70.3152
256.562
-49.6762
-69.4577
255.489
-50.28
-69.4268
249.516
-49.6859
-70.2891
211.972
-47.5439
-72.3268
128.882
-196.164
-178.638
-44.7944
-67.7731
-91.1679
-29.1359
-45.2684
-63.2489
-41.9418
-57.293
-69.6146
-38.1086
-53.0394
-62.1187
-40.6102
-54.6274
-62.6578
-39.5901
-52.8003
-61.6899
-40.8525
-54.0946
-61.5546
-34.4455
-55.1128
-60.6646
-38.9931
-57.6244
-60.9996
-45.5083
-59.8896
-61.8243
-6.39747
-58.4439
-73.4311
)
;
    }
    water_back_surface
    {
        type            calculated;
        value           nonuniform List<scalar> 
186
(
17294.4
16052
13834.5
11180.6
8839.02
7008.28
5899.72
5555.93
5627.03
5804.4
6206.73
6452.38
11057.4
8068.95
5244.86
2989.26
1564.34
892.718
601.08
647.595
924.655
1130.36
1382.8
1543.23
5374.12
1536.68
550.777
71.1563
-55.0247
70.987
168.151
144.625
141.355
139.641
247.699
231.682
2681.37
-88.9003
-50.7344
-82.5036
-70.4383
-13.3383
35.2017
17.6359
-0.95596
-0.690133
10.2216
-82.3586
2176.01
1725.47
1291.2
825.587
534.145
396.725
290.995
260.245
341.89
422.939
773.829
848.95
1176.96
417.351
59.7245
-29.9063
-38.5389
-12.4631
-2.37117
-23.8645
-21.1213
-2.54779
65.6431
250.273
476.403
28.9806
-13.033
-20.9738
-16.0852
-19.187
-24.0918
-27.42
-22.581
-27.4246
-14.9115
-22.7369
194.501
-23.0927
-13.0014
-33.4512
-33.0988
-39.6591
-36.3399
-36.1392
-29.6325
-33.871
-27.432
-96.8421
1898.15
450.427
-197.85
-63.3364
-99.6844
-156.372
-58.0425
-52.8092
-70.4051
-104.882
-94.4705
-89.5668
-85.5653
-90.0137
-105.303
-50.3957
-75.7274
-123.779
-25.8666
-49.7293
-91.7079
-27.8281
-48.5777
-72.8582
-23.4085
-43.2844
-63.8075
-26.2479
-47.6583
-63.2122
-41.2453
-54.5606
-65.2925
6.15075
-51.0644
-71.6061
219.225
-47.5684
-72.028
247.113
-51.0639
-70.3381
257.472
-49.6912
-69.4881
256.405
-50.265
-69.4475
250.261
-49.647
-70.3203
211.355
-47.5312
-72.3521
132.283
-131.401
-143.38
-46.1057
-63.5743
-84.929
-31.5073
-46.3232
-64.2141
-43.2997
-57.0904
-69.1092
-37.4502
-53.0075
-61.98
-39.9717
-54.7251
-62.7143
-39.8625
-53.0929
-61.7392
-41.0437
-54.1702
-61.672
-37.0448
-54.5406
-60.9462
-40.67
-57.4052
-61.0291
-46.9925
-59.0412
-62.4937
-10.7983
-57.2322
-72.5491
)
;
    }
    water_left_surface
    {
        type            calculated;
        value           nonuniform List<scalar> 
42
(
17305.9
17305.9
17305.9
17305.9
17305.9
17305.9
11070.1
11070.1
11070.1
11070.1
11070.1
11070.1
5386.52
5386.59
5386.57
5386.48
5386.43
5386.51
2693.83
2693.82
2693.7
2693.82
2693.69
2693.52
1897.92
1901.75
1899.7
1899.04
1899.53
1898.15
454.935
455.993
454.193
452.226
451.391
450.427
-197.173
-196.202
-197.06
-196.516
-196.442
-197.85
)
;
    }
    water_right_surface
    {
        type            calculated;
        value           nonuniform List<scalar> 
42
(
2171.14
2186.98
2205.09
2239.57
2255.73
2177.57
1209
1250.26
1223.89
1296.63
1211.19
1178.5
520.403
485.187
501.856
477.228
394.338
477.905
218.63
220.357
195.748
228.738
172.352
195.973
128.882
124.304
105.033
151.628
110.312
132.283
-196.164
10.6655
-174.527
-128.711
28.7837
-131.401
-178.638
-153.312
-169.743
-143.971
-105.341
-143.38
)
;
    }
    water_top_surface
    {
        type            calculated;
        value           nonuniform List<scalar> 
180
(
-327.642
-319.63
-323.651
-326.077
-325.324
-328.335
-327.121
-311.305
-319.212
-320.11
-317.355
-323.278
-68.67
-68.7231
-68.7353
-68.7644
-68.7622
-68.6748
-84.2149
-79.0723
-76.8708
-84.4313
-87.9376
-72.395
-124.176
-124.188
-124.188
-124.188
-123.775
-119.277
-117.315
-122.06
-122.408
-115.725
-111.149
-132.246
-87.3289
-86.9956
-86.9124
-87.461
-88.5233
-85.6352
-81.502
-81.7171
-81.6964
-81.5388
-81.4633
-81.7691
-72.7932
-72.8046
-72.8076
-72.7851
-72.7824
-72.8033
-71.3478
-71.346
-71.3498
-71.3391
-71.3569
-71.3329
-72.4199
-72.4196
-72.4218
-72.4172
-72.4311
-72.4086
-70.8203
-70.8427
-70.8449
-70.8379
-70.8353
-70.8412
-68.9946
-68.9717
-68.9581
-69.0016
-69.0731
-69.001
-70.4685
-70.507
-70.5274
-70.5141
-70.5061
-70.4602
-69.9219
-69.9116
-69.896
-69.8874
-69.8779
-69.8803
-70.2002
-70.2082
-70.2099
-70.2086
-70.2107
-70.2007
-70.5142
-70.52
-70.5187
-70.5153
-70.5189
-70.5126
-69.637
-69.6325
-69.6309
-69.6291
-69.6284
-69.6254
-2433.86
-206.394
-507.131
-443.207
-69.2507
-2475.33
-68.6703
-203.116
-232.751
-184.9
-111.834
-68.6736
-68.67
-68.67
-68.6745
-68.67
-68.67
-68.67
-72.1225
-72.4659
-72.6202
-72.6764
-72.3642
-72.5449
-68.7465
-68.7439
-68.7517
-68.744
-68.75
-68.7432
-69.0344
-69.0177
-69.0373
-69.0898
-69.1189
-69.0922
-68.67
-68.67
-68.67
-68.67
-68.67
-68.67
-68.67
-68.67
-68.67
-68.67
-68.67
-68.67
-68.67
-68.67
-68.67
-68.6738
-68.6773
-68.6785
-68.9514
-68.9946
-69.0298
-69.0402
-69.0844
-69.0639
-69.986
-70.0905
-70.2179
-70.2855
-70.4638
-70.2503
-70.8308
-70.5635
-70.0805
-70.27
-70.6279
-70.5601
)
;
    }
}


// ************************************************************************* //
