/*--------------------------------*- C++ -*----------------------------------*\
| =========                 |                                                 |
| \\      /  F ield         | OpenFOAM: The Open Source CFD Toolbox           |
|  \\    /   O peration     | Version:  v1612+                                |
|   \\  /    A nd           | Web:      www.OpenFOAM.com                      |
|    \\/     M anipulation  |                                                 |
\*---------------------------------------------------------------------------*/
FoamFile
{
    version     2.0;
    format      ascii;
    class       volScalarField;
    location    "6.95";
    object      p_rgh;
}
// * * * * * * * * * * * * * * * * * * * * * * * * * * * * * * * * * * * * * //

dimensions      [1 -1 -2 0 0 0 0];

internalField   nonuniform List<scalar> 
1116
(
20665.1
20665.1
20665.1
20665.1
20665.1
20665.1
20677.6
20678
20677.8
20677.7
20677.8
20677.7
18630.2
18630.6
18630.6
18630.4
18630.4
18630.5
15976.8
15977
15976.9
15977
15977.2
15976.6
13634.9
13635.7
13635
13635.6
13635.2
13635
11504.4
11508.4
11506.8
11507.5
11505
11508.6
10197.6
10195.4
10196.3
10197.6
10200.4
10194.4
9748.91
9745.98
9748.94
9747.78
9751.92
9746.63
9762.61
9757.21
9760.65
9760.98
9762.9
9758.62
9886.71
9887.54
9887.66
9887.49
9883.09
9895.08
10275.1
10281.7
10282.3
10272.3
10263.2
10290.5
10537.5
10533.8
10539.6
10533.7
10540.6
10533.3
22328.8
22327.7
22328.2
22328.7
22328.4
22328.5
21913.3
21914.9
21914
21913.7
21914.1
21913.7
16745.5
16747.8
16747.3
16746.5
16747.1
16746.8
10900.5
10902
10901.2
10901.3
10901.6
10900.5
6526.07
6526.92
6525.2
6527.11
6528.03
6523.54
3832.99
3834.03
3833.44
3831.41
3830.08
3837.08
2376.76
2345.74
2350.77
2371.46
2397.06
2341.36
2441.68
2427.47
2433.32
2440.24
2447.54
2429.87
3062
3057.36
3062.88
3058.64
3044.08
3074.27
3354.48
3365.35
3361.96
3356.91
3335.73
3388.74
3877.06
3930.88
3926.39
3875.33
3832.45
3957.86
5067.64
5037.19
5059.78
5060.93
5090.62
5035.66
24155.1
24154.2
24154.5
24154.8
24154.5
24154.6
12005.1
12008.2
12008.4
12005.4
12004.7
12008.7
3549.58
3557.09
3555.67
3551.23
3551.32
3555.56
859.479
865.303
862.713
861.637
862.513
861.722
57.1497
56.9318
56.499
57.3845
58.9085
54.3525
109.815
102.216
102.503
105.691
110.551
98.4274
205.849
202.261
201.588
203.466
201.636
198.208
278.484
267.558
267.303
280.831
300.927
258.516
482.262
475.576
473.696
485.361
496.223
468.826
628.602
641.985
633.073
633.349
619.758
649.657
844.843
882.451
866.604
850.15
815.979
888.533
888.231
912.735
902.189
884.305
859.95
902.906
28966.7
28964.6
28965.5
28966.3
28965.6
28965.7
843.276
842.282
842.581
843.092
842.871
842.815
-16.3779
-16.6306
-16.4325
-16.5968
-16.6492
-16.3708
-48.0612
-48.1743
-48.1558
-48.1278
-48.0666
-48.0944
-34.6389
-35.3872
-35.3437
-35.3068
-34.8607
-35.9829
28.2065
23.6761
23.7978
25.5517
28.2182
22.5968
190.956
170.052
168.611
184.832
192.876
149.893
222.841
229.25
233.851
238.832
243.45
239.978
99.8684
99.9144
98.8779
96.3403
88.5913
104.686
34.0476
34.1292
34.0717
33.8356
33.9608
33.9195
375.257
360.547
359.942
377.7
390.783
350.785
891.449
895.744
891.402
883.638
879.6
882.518
2626.12
2642.03
2660.18
2694.63
2710.8
2632.64
2311.66
2210.21
2377.45
2219.92
2241.9
2182.1
1719.75
1380.01
1565.52
1496.46
1692.5
1747.83
947.835
881.652
1012.14
800.17
1033.49
1282.18
636.112
822.14
832.752
831.396
747.472
972.617
786.411
786.211
794.369
792.668
768.614
775.373
747.908
678.064
683.74
547.861
636.728
501.549
753.516
707.729
588.227
448.093
535.326
381.792
753.898
744.293
580.961
630.253
658.994
587.322
775.34
764.246
705.36
794.914
869.705
817.38
1035.19
976.262
1008.12
1132.86
1142.99
1170.76
917.136
956.074
1140.31
1207.68
1273.26
1121.48
2573.92
2332.57
2589.04
2661.95
2576.41
2543.7
1673.68
811.145
1349.76
1087.46
901.809
1769.33
195.223
181.983
121.997
173.274
195.81
226.3
62.3577
7.76639
23.5226
17.4157
61.715
26.9896
5.63276
-35.2547
-27.2695
-23.8075
-3.38259
-21.8229
-18.6707
-17.2479
-13.5701
-9.325
-5.0948
2.26844
-10.0969
-11.775
-12.9108
-8.78046
-0.975378
31.042
-2.28859
-4.26528
-5.653
-13.2858
-22.7264
44.2826
14.7385
10.4834
9.04891
0.959064
-7.89641
29.4593
37.104
24.1525
24.1041
23.0842
21.7536
12.7566
270.802
134.255
94.1977
259.467
478.905
253.425
829.226
643.259
342.284
975.674
1455.41
1156.11
2793.56
2724.88
2542.35
1756.68
2022.86
2752.99
1244.43
197.355
558.52
260.19
279.393
1338.92
7.92776
16.3572
10.7139
13.0267
11.9125
11.5396
0.280597
-1.0338
-0.879618
0.420834
0.54882
3.56799
4.72662
2.74843
6.4025
4.56587
7.67678
8.456
-0.414308
-0.138443
1.51275
2.90223
4.57071
5.35425
-4.89522
-3.77772
-4.34229
-3.18709
0.891973
0.449509
-2.79129
-1.45547
0.817698
-3.99667
-4.02629
-2.8623
8.81656
9.91285
10.5651
5.50158
2.12509
1.96029
5.14821
3.47605
3.44693
-3.30544
-0.313799
-2.86981
9.58281
8.04374
9.01489
10.1108
12.5652
9.67114
388.933
-5.01612
-8.93957
-4.45269
411.545
2.0264
3359.23
3357.67
3329.58
1600.65
1646.37
3379.77
490.317
283.563
186.355
81.8805
72.9379
397.681
19.848
21.0217
21.6945
21.4903
20.9381
21.351
1.71977
0.933663
-0.776911
0.578451
-0.0150699
0.899732
0.0868106
0.279869
0.466286
1.04165
1.26886
1.25211
-5.12157
-5.68027
-5.9797
-4.37138
-3.7885
-5.30791
-6.32472
-6.42986
-6.30373
-5.42535
-2.2957
-1.98891
-2.17227
-1.74898
-0.449482
-3.3988
-1.90053
-1.78823
8.08307
8.62403
9.27197
7.45952
5.55268
4.71838
1.38742
1.51073
1.5265
1.71546
1.41703
0.479946
11.6987
18.0486
14.2757
26.9522
69.1935
15.2735
52.2002
242.41
336.474
270.578
151.698
137.218
32972.5
32974.9
32972.4
32970.9
32970.9
32973.6
11636.7
11538.3
11575.9
11591.7
11571.3
11593
107.066
100.597
103.473
106.27
105.645
107.033
1462.5
1459.96
1460.78
1462.48
1463.48
1459.62
844.622
841.343
842.192
842.859
843.205
841.617
148.035
138.119
143.357
144.894
142.565
143.814
-14.013
-14.1548
-13.9844
-14.0749
-14.0996
-13.8811
0.712457
0.0957562
1.14263
0.503227
-0.505037
1.15583
-6.07817
-5.6958
-6.33968
-6.21329
-5.75235
-6.64011
-61.4171
-61.1217
-61.0469
-61.0772
-60.8597
-60.7202
-42.7879
-42.7229
-42.1893
-42.1178
-41.623
-40.48
-15.1282
-20.3203
-21.3976
-14.6429
-11.1617
-22.3428
-40.5597
-41.0358
-40.9554
-40.839
-40.3446
-41.3458
-9.1355
-21.9671
-23.0977
-11.8579
-7.448
-27.2991
5.90454
5.93624
6.33216
6.36866
6.06013
5.45405
46.0123
29.5505
30.1182
42.9467
53.9975
25.8026
43.3277
39.1203
41.9416
46.768
51.875
33.3717
-12.1018
-8.53369
-8.33891
-12.9787
-17.5836
-0.97884
158.414
153.783
151.928
155.619
155.954
153.844
30.8502
34.1893
36.0999
27.6075
24.5534
39.5164
-28.1035
-27.9613
-27.9241
-28.0042
-28.4331
-27.9429
17.4735
20.1945
21.1449
17.6625
15.6386
25.2816
5.39308
5.31464
5.30551
5.54182
5.67857
5.37727
-8.90628
-9.0048
-8.99999
-8.87641
-8.83527
-9.09321
21.2381
21.1885
21.1281
21.0573
20.9131
20.7366
10.7707
10.7921
10.7663
10.7263
10.7019
10.6706
-0.011611
-0.0306394
-0.0310849
-0.0203566
-0.0254136
-0.0380674
18.3225
18.0094
18.1103
18.3468
18.6455
17.8974
6.3072
6.30318
6.30306
6.31268
6.30857
6.29712
0.58886
0.583519
0.586785
0.603849
0.604016
0.59109
2.7416
2.82206
2.90497
2.78022
2.75869
2.89965
-0.617834
-0.604394
-0.602255
-0.617092
-0.631614
-0.605618
-1.54006
-1.53794
-1.53443
-1.53007
-1.53119
-1.52733
715.134
689.687
695.313
704.102
718.864
690.908
2.90918
2.90709
2.89225
2.90859
2.90781
2.89062
-7.8992
-7.84706
-7.85036
-7.85325
-7.88137
-7.84108
2812.08
2798.48
2789.39
2788.57
2769.93
2799.4
6.33394
6.50375
6.53048
6.40287
6.16334
6.38664
-8.04036
-8.03091
-7.99942
-8.16322
-8.21954
-8.26302
2937.85
2929.5
2942.19
2986.01
3026.06
2969.47
2.66105
2.70611
2.72563
2.79196
2.869
2.89111
-6.55016
-6.57061
-6.58608
-6.62566
-6.59346
-6.57314
3042.5
3046.53
3051.19
3054.37
3054.63
3052.42
4.27879
4.29803
4.30923
4.26764
4.25257
4.26384
-5.69274
-5.70116
-5.70626
-5.72084
-5.72225
-5.7231
3035.28
3038.03
3041.66
3045.09
3045.31
3044.84
3.67503
3.67495
3.67237
3.67421
3.67833
3.69003
-5.6618
-5.67015
-5.68052
-5.68652
-5.68467
-5.68248
3014.92
3017.43
3020.72
3023.37
3023.24
3023.93
4.26909
4.28124
4.29315
4.30329
4.3136
4.30803
-6.52411
-6.53128
-6.54157
-6.5543
-6.55952
-6.55534
2772.65
2767.69
2767.87
2768.38
2768.71
2767.4
6.41107
6.41075
6.41411
6.42678
6.43914
6.4238
-8.56182
-8.56601
-8.57528
-8.58368
-8.59263
-8.58712
4162.04
4153.52
4133.72
4093.66
2674.85
4223.77
4726.88
4019.66
4212.14
3846.04
1651.94
4867.02
2081.38
38.3397
301.164
267.578
-41.5765
2155.14
377.422
298.318
234.24
120.203
49.3895
397.049
84.0774
275.003
195.369
126.045
51.4036
145.361
-27.4027
84.5953
105.228
70.0673
11.1817
-21.1638
15.0106
15.1675
15.9685
14.571
11.9098
12.6387
8.6866
9.88934
8.83129
8.95316
8.7788
7.63184
0.516079
1.63378
1.42931
1.69876
1.97674
-0.449149
2.20318
1.10359
0.958837
0.566952
0.0399899
0.86488
-3.33797
-3.69286
-4.05429
-3.6818
-3.04782
-3.13537
-5.84959
-6.61572
-6.99501
-6.47189
-5.42092
-5.34422
6.03639
5.88103
6.29909
6.31659
6.42957
6.69481
0.915558
1.11127
1.10151
1.05048
0.988178
0.947548
1.64627
1.68254
1.76157
1.80665
1.83453
1.78504
3.5348
3.71054
3.5619
3.46219
3.63043
4.17334
-0.672392
-0.591412
-0.650441
-0.77799
-0.846881
-0.770052
1.10715
1.14186
1.13217
1.04116
1.04774
1.05065
4.55506
4.27396
3.88635
3.96754
4.09201
4.28247
1.15468
1.65604
1.81394
1.24509
0.841803
0.862052
2.07507
2.13509
2.22579
2.11044
2.07857
2.02579
3.29246
2.93903
2.58401
2.6416
2.69277
3.10134
-0.139592
-0.0143517
-0.248068
-0.123681
-0.0955294
-0.215174
2.21044
2.33224
2.45701
2.35811
2.18767
2.09299
9.69982
8.80417
7.31163
7.45014
6.23196
7.10041
-1.15725
-1.57304
-1.89613
-1.12662
-0.482639
-0.584974
3.10041
3.18987
3.17222
3.01557
2.8575
2.8188
5.16616
4.47563
3.05809
3.03107
3.27329
3.47581
-3.62266
-3.67563
-3.63952
-3.5544
-3.11162
-3.44749
2.76542
2.84076
2.77429
2.77357
2.68968
2.73595
-1.3634
-2.9257
-3.66336
-3.86886
-2.94957
-2.84819
-5.93462
-6.00556
-5.96789
-5.65092
-4.76653
-5.08624
1.94066
1.87746
1.68876
1.43473
1.24132
1.27128
925.192
991.387
971.858
820.45
485.678
869.875
-4.48892
-4.2501
-3.7328
-3.53903
-2.53398
-3.27723
-9.66609
-9.8276
-9.54335
-9.00991
-7.8445
-8.78408
)
;

boundaryField
{
    seabed_topleft_surface
    {
        type            fixedFluxPressure;
        gradient        uniform 0;
        value           nonuniform List<scalar> 
72
(
20665.1
20665.1
20665.1
20665.1
20665.1
20665.1
20677.6
20678
20677.8
20677.7
20677.8
20677.7
18630.2
18630.6
18630.6
18630.4
18630.4
18630.5
15976.8
15977
15976.9
15977
15977.2
15976.6
13634.9
13635.7
13635
13635.6
13635.2
13635
11504.4
11508.4
11506.8
11507.5
11505
11508.6
10197.6
10195.4
10196.3
10197.6
10200.4
10194.4
9748.91
9745.98
9748.94
9747.78
9751.92
9746.63
9762.61
9757.21
9760.65
9760.98
9762.9
9758.62
9886.71
9887.54
9887.66
9887.49
9883.09
9895.08
10275.1
10281.7
10282.3
10272.3
10263.2
10290.5
10537.5
10533.8
10539.6
10533.7
10540.6
10533.3
)
;
    }
    seabed_topright_surface
    {
        type            fixedFluxPressure;
        gradient        uniform 0;
        value           nonuniform List<scalar> 
72
(
2626.12
2642.03
2660.18
2694.63
2710.8
2632.64
2311.66
2210.21
2377.45
2219.92
2241.9
2182.1
1719.75
1380.01
1565.52
1496.46
1692.5
1747.83
947.835
881.652
1012.14
800.17
1033.49
1282.18
636.112
822.14
832.752
831.396
747.472
972.617
786.411
786.211
794.369
792.668
768.614
775.373
747.908
678.064
683.74
547.861
636.728
501.549
753.516
707.729
588.227
448.093
535.326
381.792
753.898
744.293
580.961
630.253
658.994
587.322
775.34
764.246
705.36
794.914
869.705
817.38
1035.19
976.262
1008.12
1132.86
1142.99
1170.76
917.136
956.074
1140.31
1207.68
1273.26
1121.48
)
;
    }
    breakwater_top_surface
    {
        type            fixedFluxPressure;
        gradient        uniform 0;
        value           nonuniform List<scalar> 
36
(
2812.08
2798.48
2789.39
2788.57
2769.93
2799.4
2937.85
2929.5
2942.19
2986.01
3026.06
2969.47
3042.5
3046.53
3051.19
3054.37
3054.63
3052.42
3035.28
3038.03
3041.66
3045.09
3045.31
3044.84
3014.92
3017.43
3020.72
3023.37
3023.24
3023.93
2772.65
2767.69
2767.87
2768.38
2768.71
2767.4
)
;
    }
    breakwater_left_surface
    {
        type            fixedFluxPressure;
        gradient        uniform 0;
        value           nonuniform List<scalar> 
24
(
10537.5
10533.8
10539.6
10533.7
10540.6
10533.3
5067.64
5037.19
5059.78
5060.93
5090.62
5035.66
888.231
912.735
902.189
884.305
859.95
902.906
891.449
895.744
891.402
883.638
879.6
882.518
)
;
    }
    breakwater_right_surface
    {
        type            fixedFluxPressure;
        gradient        uniform 0;
        value           nonuniform List<scalar> 
24
(
917.136
956.074
1140.31
1207.68
1273.26
1121.48
829.226
643.259
342.284
975.674
1455.41
1156.11
388.933
-5.01612
-8.93957
-4.45269
411.545
2.0264
52.2002
242.41
336.474
270.578
151.698
137.218
)
;
    }
    water_front_surface
    {
        type            fixedFluxPressure;
        gradient        uniform 0;
        value           nonuniform List<scalar> 
186
(
20665.1
20677.6
18630.2
15976.8
13634.9
11504.4
10197.6
9748.91
9762.61
9886.71
10275.1
10537.5
22328.8
21913.3
16745.5
10900.5
6526.07
3832.99
2376.76
2441.68
3062
3354.48
3877.06
5067.64
24155.1
12005.1
3549.58
859.479
57.1497
109.815
205.849
278.484
482.262
628.602
844.843
888.231
28966.7
843.276
-16.3779
-48.0612
-34.6389
28.2065
190.956
222.841
99.8684
34.0476
375.257
891.449
2626.12
2311.66
1719.75
947.835
636.112
786.411
747.908
753.516
753.898
775.34
1035.19
917.136
2573.92
1673.68
195.223
62.3577
5.63276
-18.6707
-10.0969
-2.28859
14.7385
37.104
270.802
829.226
2793.56
1244.43
7.92776
0.280597
4.72662
-0.414308
-4.89522
-2.79129
8.81656
5.14821
9.58281
388.933
3359.23
490.317
19.848
1.71977
0.0868106
-5.12157
-6.32472
-2.17227
8.08307
1.38742
11.6987
52.2002
32972.5
11636.7
107.066
1462.5
844.622
148.035
-14.013
0.712457
-6.07817
-61.4171
-42.7879
-15.1282
-40.5597
-9.1355
5.90454
46.0123
43.3277
-12.1018
158.414
30.8502
-28.1035
17.4735
5.39308
-8.90628
21.2381
10.7707
-0.011611
18.3225
6.3072
0.58886
2.7416
-0.617834
-1.54006
715.134
2.90918
-7.8992
2812.08
6.33394
-8.04036
2937.85
2.66105
-6.55016
3042.5
4.27879
-5.69274
3035.28
3.67503
-5.6618
3014.92
4.26909
-6.52411
2772.65
6.41107
-8.56182
4162.04
4726.88
2081.38
377.422
84.0774
-27.4027
15.0106
8.6866
0.516079
2.20318
-3.33797
-5.84959
6.03639
0.915558
1.64627
3.5348
-0.672392
1.10715
4.55506
1.15468
2.07507
3.29246
-0.139592
2.21044
9.69982
-1.15725
3.10041
5.16616
-3.62266
2.76542
-1.3634
-5.93462
1.94066
925.192
-4.48892
-9.66609
)
;
    }
    water_back_surface
    {
        type            fixedFluxPressure;
        gradient        uniform 0;
        value           nonuniform List<scalar> 
186
(
20665.1
20677.7
18630.5
15976.6
13635
11508.6
10194.4
9746.63
9758.62
9895.08
10290.5
10533.3
22328.5
21913.7
16746.8
10900.5
6523.54
3837.08
2341.36
2429.87
3074.27
3388.74
3957.86
5035.66
24154.6
12008.7
3555.56
861.722
54.3525
98.4274
198.208
258.516
468.826
649.657
888.533
902.906
28965.7
842.815
-16.3708
-48.0944
-35.9829
22.5968
149.893
239.978
104.686
33.9195
350.785
882.518
2632.64
2182.1
1747.83
1282.18
972.617
775.373
501.549
381.792
587.322
817.38
1170.76
1121.48
2543.7
1769.33
226.3
26.9896
-21.8229
2.26844
31.042
44.2826
29.4593
12.7566
253.425
1156.11
2752.99
1338.92
11.5396
3.56799
8.456
5.35425
0.449509
-2.8623
1.96029
-2.86981
9.67114
2.0264
3379.77
397.681
21.351
0.899732
1.25211
-5.30791
-1.98891
-1.78823
4.71838
0.479946
15.2735
137.218
32973.6
11593
107.033
1459.62
841.617
143.814
-13.8811
1.15583
-6.64011
-60.7202
-40.48
-22.3428
-41.3458
-27.2991
5.45405
25.8026
33.3717
-0.97884
153.844
39.5164
-27.9429
25.2816
5.37727
-9.09321
20.7366
10.6706
-0.0380674
17.8974
6.29712
0.59109
2.89965
-0.605618
-1.52733
690.908
2.89062
-7.84108
2799.4
6.38664
-8.26302
2969.47
2.89111
-6.57314
3052.42
4.26384
-5.7231
3044.84
3.69003
-5.68248
3023.93
4.30803
-6.55534
2767.4
6.4238
-8.58712
4223.77
4867.02
2155.14
397.049
145.361
-21.1638
12.6387
7.63184
-0.449149
0.86488
-3.13537
-5.34422
6.69481
0.947548
1.78504
4.17334
-0.770052
1.05065
4.28247
0.862052
2.02579
3.10134
-0.215174
2.09299
7.10041
-0.584974
2.8188
3.47581
-3.44749
2.73595
-2.84819
-5.08624
1.27128
869.875
-3.27723
-8.78408
)
;
    }
    water_left_surface
    {
        type            fixedFluxPressure;
        gradient        uniform 0;
        value           nonuniform List<scalar> 
42
(
20665.1
20665.1
20665.1
20665.1
20665.1
20665.1
22328.8
22327.7
22328.2
22328.7
22328.4
22328.5
24155.1
24154.2
24154.5
24154.8
24154.5
24154.6
28966.7
28964.6
28965.5
28966.3
28965.6
28965.7
32972.5
32974.9
32972.4
32970.9
32970.9
32973.6
11636.7
11538.3
11575.9
11591.7
11571.3
11593
107.066
100.597
103.473
106.27
105.645
107.033
)
;
    }
    water_right_surface
    {
        type            fixedFluxPressure;
        gradient        uniform 0;
        value           nonuniform List<scalar> 
42
(
2626.12
2642.03
2660.18
2694.63
2710.8
2632.64
2573.92
2332.57
2589.04
2661.95
2576.41
2543.7
2793.56
2724.88
2542.35
1756.68
2022.86
2752.99
3359.23
3357.67
3329.58
1600.65
1646.37
3379.77
4162.04
4153.52
4133.72
4093.66
2674.85
4223.77
4726.88
4019.66
4212.14
3846.04
1651.94
4867.02
2081.38
38.3397
301.164
267.578
-41.5765
2155.14
)
;
    }
    water_top_surface
    {
        type            totalPressure;
        rho             rho;
        psi             none;
        gamma           1;
        p0              uniform 0;
        value           nonuniform List<scalar> 
180
(
0
0
0
0
0
0
0
0
0
0
0
0
0
0
0
0
0
-0.0048155
0
0
0
0
0
0
0
0
0
0
0
0
0
0
0
0
0
0
-18.6589
-18.3256
-18.2424
-18.791
-19.8533
-16.9652
-12.832
-13.0471
-13.0264
-12.8688
-12.7933
-13.0991
-4.12321
-4.13456
-4.13758
-4.11513
-4.11242
-4.13332
-2.67784
-2.67602
-2.6798
-2.66907
-2.68688
-2.66293
-3.74985
-3.74959
-3.75178
-3.74717
-3.76107
-3.73864
-2.15034
-2.17275
-2.1749
-2.16791
-2.16527
-2.17123
-0.324577
-0.301717
-0.288147
-0.331585
-0.403133
-0.331031
-1.79852
-1.83696
-1.85736
-1.84413
-1.83608
-1.79021
-1.25187
-1.24156
-1.22599
-1.21741
-1.20788
-1.21029
-1.53018
-1.53821
-1.53991
-1.53863
-1.54069
-1.53073
-1.84422
-1.85
-1.84867
-1.84526
-1.84887
-1.84257
-0.967008
-0.962529
-0.960875
-0.959141
-0.958411
-0.955377
0
0
0
0
-0.580728
0
0
0
0
0
0
-0.00348889
0
0
-0.00454229
0
0
0
-3.45247
-3.79588
-3.95019
-4.00642
-3.69421
-3.87491
-0.0765392
-0.0738517
-0.0817028
-0.0739746
-0.0799761
-0.0732149
-0.364422
-0.347744
-0.367319
-0.419822
-0.448914
-0.422177
0
0
0
0
0
0
0
0
0
0
0
0
0
0
0
-0.00384928
-0.00731249
-0.00852154
-0.281375
-0.324555
-0.359835
-0.370241
-0.414397
-0.393897
-1.31604
-1.42049
-1.54792
-1.61545
-1.79377
-1.5803
-2.16079
-1.89349
-1.41053
-1.59999
-1.95788
-1.89012
)
;
    }
}


// ************************************************************************* //
