/*--------------------------------*- C++ -*----------------------------------*\
| =========                 |                                                 |
| \\      /  F ield         | OpenFOAM: The Open Source CFD Toolbox           |
|  \\    /   O peration     | Version:  v1612+                                |
|   \\  /    A nd           | Web:      www.OpenFOAM.com                      |
|    \\/     M anipulation  |                                                 |
\*---------------------------------------------------------------------------*/
FoamFile
{
    version     2.0;
    format      ascii;
    class       volScalarField;
    location    "0.5";
    object      p;
}
// * * * * * * * * * * * * * * * * * * * * * * * * * * * * * * * * * * * * * //

dimensions      [0 2 -2 0 0 0 0];

internalField   nonuniform List<scalar> 
320
(
-8.80078e-08
0.00384107
-1.60694e-07
0.00384105
-0.000883213
0.00471075
0.0114341
0.0114344
0.0114344
0.0114341
0.00471074
-0.000883214
-0.0075984
-0.00759868
-0.00759868
-0.0075984
-0.000246779
0.00407468
0.00856597
0.00856592
0.00856592
0.00856596
0.00407468
-0.000246786
-0.00473387
-0.00473383
-0.00473382
-0.00473387
-1.4994e-07
0.00384104
0.00775107
0.00775121
0.00775121
0.00775106
0.00384103
-1.68939e-07
-0.00390697
-0.0039071
-0.00390709
-0.00390697
0.000378105
0.00346482
0.000378095
0.00346481
0.000378072
0.00346483
0.0064453
0.00644526
0.00644526
0.0064453
0.00346482
0.000378063
-0.0026002
-0.00260015
-0.00260015
-0.0026002
-0.00759817
-0.000883255
0.0047108
0.0114339
0.0161198
0.0161196
0.0161192
0.0161192
0.0161195
0.0161197
0.0114338
0.00471079
-0.000883259
-0.00759817
-0.0122724
-0.0122722
-0.0122719
-0.0122719
-0.0122722
-0.0122724
-0.00473388
-0.000246829
0.00407473
0.00856598
0.0119501
0.0119498
0.0119494
0.0119494
0.0119498
0.0119501
0.00856597
0.00407472
-0.000246834
-0.00473388
-0.00811935
-0.00811906
-0.00811863
-0.00811863
-0.00811906
-0.00811936
-0.00390684
-1.50713e-07
0.00384102
0.00775093
0.0108451
0.0108451
0.0108451
0.0108451
0.0108451
0.0108451
0.00775092
0.003841
-1.60619e-07
-0.00390684
-0.00699591
-0.00699593
-0.00699594
-0.00699594
-0.00699593
-0.00699591
-0.00260025
0.000378046
0.00346485
0.00644534
0.00880234
0.00880223
0.00880211
0.00880211
0.00880223
0.00880233
0.00644533
0.00346484
0.000378035
-0.00260025
-0.00495379
-0.00495368
-0.00495355
-0.00495356
-0.00495368
-0.00495379
0.000505497
0.00333976
0.000505494
0.00333975
0.000505496
0.00333975
0.00605594
0.00605596
0.00605596
0.00605593
0.00333974
0.000505488
-0.00220885
-0.00220887
-0.00220887
-0.00220885
-0.00220883
0.000505495
0.00333975
0.00605591
0.00822735
0.00822736
0.00822737
0.00822737
0.00822736
0.00822734
0.0060559
0.00333974
0.000505487
-0.00220883
-0.00437738
-0.00437739
-0.0043774
-0.00437741
-0.0043774
-0.00437739
-0.0122757
-0.00759543
-0.000883855
0.00471146
0.0114312
0.016123
0.0338944
0.0338993
0.0338997
0.0339002
0.0339002
0.0338997
0.0338993
0.0338943
0.016123
0.0114311
0.00471145
-0.000883859
-0.00759543
-0.0122757
-0.0300233
-0.0300282
-0.0300285
-0.030029
-0.030029
-0.0300285
-0.0300282
-0.0300233
-0.00812239
-0.00473402
-0.000247265
0.00407523
0.00856617
0.0119532
0.0169339
0.0169309
0.0169307
0.0169304
0.0169304
0.0169307
0.0169309
0.0169339
0.0119532
0.00856615
0.00407522
-0.000247268
-0.00473402
-0.00812239
-0.0130782
-0.0130751
-0.0130749
-0.0130746
-0.0130746
-0.0130749
-0.0130751
-0.0130782
-0.00699599
-0.00390578
-8.94895e-08
0.00384096
0.00774987
0.0108451
0.0149436
0.0149465
0.0149467
0.0149471
0.0149471
0.0149467
0.0149464
0.0149435
0.0108451
0.00774986
0.00384094
-1.00081e-07
-0.00390578
-0.00699598
-0.0110868
-0.0110896
-0.0110899
-0.0110903
-0.0110903
-0.0110899
-0.0110896
-0.0110868
-0.00495463
-0.00260044
0.000377918
0.00346498
0.00644554
0.00880316
0.0107067
0.0107059
0.0107058
0.0107057
0.0107057
0.0107058
0.0107059
0.0107067
0.00880315
0.00644553
0.00346496
0.000377907
-0.00260045
-0.00495462
-0.00685134
-0.00685053
-0.00685042
-0.00685032
-0.00685032
-0.00685043
-0.00685053
-0.00685135
-0.00437738
-0.00220868
0.000505493
0.00333974
0.00605576
0.00822732
0.00986078
0.00986138
0.00986146
0.00986155
0.00986155
0.00986145
0.00986137
0.00986076
0.00822731
0.00605574
0.00333973
0.000505488
-0.00220868
-0.00437737
-0.00600719
-0.00600777
-0.00600785
-0.00600794
-0.00600794
-0.00600785
-0.00600778
-0.0060072
-0.000883171
0.00471071
-0.000883171
0.0047107
-0.000246711
0.00407462
-0.000246719
0.00407462
)
;

boundaryField
{
    top_fluid_surface
    {
        type            zeroGradient;
    }
    bottom_fluid_surface
    {
        type            zeroGradient;
    }
    lateral_surface_1
    {
        type            zeroGradient;
    }
    lateral_surface_2
    {
        type            zeroGradient;
    }
    lateral_surface_3
    {
        type            zeroGradient;
    }
    lateral_surface_4
    {
        type            zeroGradient;
    }
}


// ************************************************************************* //
