/*--------------------------------*- C++ -*----------------------------------*\
| =========                 |                                                 |
| \\      /  F ield         | OpenFOAM: The Open Source CFD Toolbox           |
|  \\    /   O peration     | Version:  v1612+                                |
|   \\  /    A nd           | Web:      www.OpenFOAM.com                      |
|    \\/     M anipulation  |                                                 |
\*---------------------------------------------------------------------------*/
FoamFile
{
    version     2.0;
    format      ascii;
    class       surfaceScalarField;
    location    "0.5";
    object      phi;
}
// * * * * * * * * * * * * * * * * * * * * * * * * * * * * * * * * * * * * * //

dimensions      [0 3 -1 0 0 0 0];

internalField   nonuniform List<scalar> 
816
(
-0.00189331
4.40031e-10
-2.22686e-09
0.00185442
-0.000150611
0.00018951
9.07498e-11
2.4614e-09
-0.00185492
0.00015007
-0.000188465
-0.00189331
-2.41184e-09
0.00185442
-0.000150612
0.00018951
-0.00185492
2.43145e-09
0.00015007
-0.000188465
0.00704586
-0.0068378
-0.000208069
1.17987e-08
1.02558e-11
0.00683855
0.000207319
-1.46198e-08
1.02624e-09
-4.36587e-08
0.000807734
1.67021e-07
0.0060307
1.01452e-11
0.000807767
0.00603072
-0.00683853
4.36786e-08
0.000807767
0.00603072
-0.00683853
-0.00683855
0.000807734
0.0060307
1.67039e-07
-0.00704586
0.000207319
-1.46077e-08
1.01531e-09
-0.0068378
-0.000208069
1.17991e-08
2.22813e-12
4.41455e-08
-0.000808082
-1.68299e-07
-0.0060296
-1.144e-11
-0.000808115
-0.00602962
0.00683778
-4.41381e-08
-0.000808115
-0.00602962
0.00683778
-0.000808082
-1.68323e-07
-0.0060296
-0.00220559
0.00218701
-0.000189514
2.56573e-08
-8.31676e-09
-0.00218672
0.00018847
-2.82389e-08
9.30732e-09
1.38691e-08
0.000661984
-3.34205e-08
-0.00204095
1.59957e-11
0.000661982
-0.0020409
0.0021867
-1.38594e-08
0.000661982
-0.0020409
0.0021867
0.00218672
0.000661984
-0.00204095
-3.34103e-08
0.00220559
0.00018847
-2.82316e-08
9.3085e-09
0.00218701
-0.000189514
2.56482e-08
-8.3201e-09
-1.30987e-08
-0.000662718
3.12931e-08
0.00204163
-1.4067e-11
-0.000662716
0.00204158
-0.00218699
1.3092e-08
-0.000662716
0.00204158
-0.002187
-0.000662718
3.12762e-08
0.00204163
-0.0018933
0.0018544
-0.000150611
-5.23936e-09
-0.00185491
0.00015007
5.009e-09
-1.73968e-08
0.000487812
5.37684e-08
-0.00168077
1.99187e-11
0.00048782
-0.00168077
1.74073e-08
0.00048782
-0.00168077
0.00185491
0.000487812
-0.00168077
5.37861e-08
0.0018933
0.00015007
4.99424e-09
0.0018544
-0.000150611
-5.35757e-09
1.74021e-08
-0.0004882
-5.38272e-08
0.00167992
-6.36583e-11
-0.000488208
0.00167993
-1.73856e-08
-0.000488208
0.00167993
-0.0004882
-5.38212e-08
0.00167992
-0.00155333
5.55539e-11
2.38237e-09
0.00147876
-7.60483e-05
6.03219e-12
-2.44918e-09
-0.00147907
7.58131e-05
-0.00155333
2.37232e-09
0.00147876
-7.60484e-05
-0.00147907
-2.46214e-09
7.5813e-05
-0.00155333
0.00147877
6.25846e-09
-7.60495e-05
-0.00147907
-6.4558e-09
7.58142e-05
5.53099e-09
-1.19094e-08
-0.00123122
0.000239966
9.70796e-12
-0.00123121
0.000239965
-5.52975e-09
-0.00123121
0.000239965
0.00147907
-0.00123122
-1.18942e-08
0.000239966
0.00155333
-6.44377e-09
7.58142e-05
0.00147877
6.24578e-09
-7.60495e-05
-5.52571e-09
1.19097e-08
0.00123068
-0.000240118
-4.25615e-12
0.00123067
-0.000240117
5.52926e-09
0.00123067
-0.000240117
1.19072e-08
0.00123068
-0.000240118
0.00683777
-0.00602953
-0.000808046
-3.59428e-07
0.00704581
-0.000208065
3.52788e-08
0.00683852
0.000207316
-4.07692e-08
0.00603063
0.000807698
3.56904e-07
2.4008e-07
0.00133686
-5.11296e-07
0.00469404
6.00315e-08
0.00133686
0.00469401
1.87238e-11
0.00133685
0.00469392
-6.00113e-08
0.00133685
0.00469392
-2.40058e-07
0.00133686
0.00469401
-0.00603063
0.00133686
0.00469404
-5.11266e-07
-0.00683852
0.000807698
3.56906e-07
-0.00704581
0.000207316
-4.07867e-08
-0.00683777
-0.000208065
3.52617e-08
-0.00602953
-0.000808046
-3.59431e-07
-2.4049e-07
-0.00133669
5.12316e-07
-0.00469311
-6.01353e-08
-0.00133669
-0.00469308
-1.68886e-11
-0.00133668
-0.00469299
6.01302e-08
-0.00133668
-0.00469299
2.40473e-07
-0.00133669
-0.00469308
-0.00133669
5.12287e-07
-0.00469311
-0.00218701
0.00204166
-0.000662712
5.3033e-08
-0.00220559
-0.000189517
5.23671e-08
-0.00218672
0.000188473
-5.72631e-08
-0.00204097
0.00066198
-5.72818e-08
2.49143e-07
0.00109364
-4.91205e-07
-0.00179752
8.14209e-08
0.00109361
-0.00179753
1.20219e-11
0.00109356
-0.00179753
-8.13932e-08
0.00109356
-0.00179753
-2.49115e-07
0.00109361
-0.00179753
0.00204097
0.00109364
-0.00179752
-4.91178e-07
0.00218672
0.00066198
-5.72801e-08
0.00220559
0.000188473
-5.72627e-08
0.00218701
-0.000189517
5.23589e-08
0.00204166
-0.000662712
5.30254e-08
-2.4619e-07
-0.00109405
4.84359e-07
0.00179878
-8.06781e-08
-0.00109402
0.00179879
-1.59509e-11
-0.00109397
0.00179879
8.06554e-08
-0.00109397
0.00179879
2.46169e-07
-0.00109402
0.00179879
-0.00109405
4.84342e-07
0.00179878
-0.00185438
0.00167991
-0.000488186
-1.101e-07
-0.00189328
-0.000150609
-8.60083e-09
-0.00185488
0.000150068
8.05218e-09
-0.00168075
0.000487799
1.1009e-07
6.59166e-09
0.000813071
-1.78758e-08
-0.00140017
1.02433e-12
0.000813068
-0.00140022
1.53457e-11
0.000813056
-0.00140027
2.19722e-11
0.000813056
-0.00140027
-6.55656e-09
0.000813068
-0.00140022
0.00168075
0.000813071
-0.00140017
-1.78696e-08
0.00185488
0.000487799
1.10087e-07
0.00189328
0.000150068
8.06361e-09
0.00185438
-0.000150609
-8.60518e-09
0.00167991
-0.000488186
-1.10094e-07
-7.1407e-09
-0.000813349
1.89337e-08
0.00139919
-2.33961e-10
-0.000813346
0.00139924
-1.98795e-11
-0.000813334
0.00139929
2.24958e-10
-0.000813334
0.00139929
7.13084e-09
-0.000813346
0.00139924
-0.000813349
1.89299e-08
0.00139919
-0.00147876
0.00123068
-0.000240117
2.07149e-08
-0.00155333
-7.605e-05
1.21615e-08
-0.00147907
7.58149e-05
-1.24578e-08
-0.00123122
0.000239965
-2.06799e-08
5.19769e-08
0.000399007
-1.00821e-07
-0.000817112
1.86343e-08
0.000399001
-0.00081712
1.71805e-11
0.00039899
-0.000817123
-1.86185e-08
0.00039899
-0.000817123
-5.19537e-08
0.000399001
-0.00081712
0.00123122
0.000399007
-0.000817112
-1.00808e-07
0.00147907
0.000239965
-2.06626e-08
0.00155333
7.58149e-05
-1.24452e-08
0.00147876
-7.605e-05
1.2165e-08
0.00123068
-0.000240117
2.0728e-08
-5.23655e-08
-0.000399019
1.01466e-07
0.000816306
-1.88093e-08
-0.000399013
0.000816314
-1.05519e-11
-0.000399003
0.000816317
1.88088e-08
-0.000399002
0.000816317
5.23571e-08
-0.000399013
0.000816314
-0.000399019
1.01475e-07
0.000816306
-0.00139364
1.26769e-11
2.01076e-10
0.0013176
9.69842e-12
-1.42885e-10
-0.00131783
-0.00139364
1.79709e-10
0.0013176
-0.00131783
-1.61716e-10
-0.00139364
0.00131759
5.97939e-10
-0.00131783
-5.4486e-10
-1.59195e-09
5.06485e-09
-0.00107787
1.70699e-12
-0.00107787
1.59316e-09
-0.00107787
0.00131783
-0.00107787
5.06682e-09
0.00139364
-5.46252e-10
0.00131759
5.87165e-10
1.49283e-09
-4.85878e-09
0.00107748
8.02754e-12
0.00107748
-1.47462e-09
0.00107748
-4.85061e-09
0.00107748
-0.00131758
0.00107747
-1.0406e-08
-0.00139363
1.1195e-09
-0.00131782
-1.0358e-09
-0.00107786
1.07465e-08
6.93858e-10
-1.84015e-09
-0.000678849
-1.42926e-10
-0.000678866
1.39654e-11
-0.000678877
1.43278e-10
-0.000678877
-6.71697e-10
-0.000678866
0.00107786
-0.000678849
-1.83383e-09
0.00131782
1.07552e-08
0.00139363
-1.02692e-09
0.00131758
1.1206e-09
0.00107747
-1.04028e-08
-1.21237e-09
2.70446e-09
0.000678449
-9.6487e-11
0.000678465
-1.46673e-14
0.000678477
1.1749e-10
0.000678477
1.21176e-09
0.000678465
2.70194e-09
0.000678449
0.00599991
-0.00466906
-0.00133033
0.00680357
-0.000804023
0.0070107
-0.000207093
0.00680431
0.000206349
0.00600099
0.000803678
0.00466997
0.0013305
-8.45338e-07
0.00467082
-4.1034e-07
0.00469361
-1.13962e-07
0.00469372
9.33499e-12
0.00469381
1.1398e-07
0.00469381
4.10363e-07
0.00469372
8.45357e-07
0.00469361
-0.00466997
0.00467082
-0.00600099
0.0013305
-0.00680431
0.000803678
-0.0070107
0.000206349
-0.00680357
-0.000207093
-0.00599991
-0.000804023
-0.00466906
-0.00133033
8.35441e-07
-0.0046699
4.05671e-07
-0.00469268
1.12431e-07
-0.00469279
1.84601e-14
-0.00469288
-1.1243e-07
-0.00469288
-4.05684e-07
-0.00469279
-8.35475e-07
-0.00469268
-0.0046699
-0.00203146
0.00179015
-0.00108854
-0.00217614
-0.000659291
-0.0021946
-0.000188576
-0.00217585
0.000187537
-0.00203079
0.000658561
-0.00178891
0.00108814
4.819e-07
0.00288143
2.2844e-07
0.00289635
5.86843e-08
0.00289636
1.14332e-11
0.00289634
-5.86661e-08
0.00289634
-2.28387e-07
0.00289636
-4.81869e-07
0.00289635
0.00178891
0.00288143
0.00203079
0.00108814
0.00217585
0.000658561
0.0021946
0.000187537
0.00217614
-0.000188575
0.00203146
-0.000659291
0.00179015
-0.00108854
-4.85614e-07
-0.00287926
-2.30334e-07
-0.00289416
-5.93672e-08
-0.00289417
-7.14871e-12
-0.00289415
5.93546e-08
-0.00289415
2.30307e-07
-0.00289417
4.85569e-07
-0.00289416
-0.00287926
-0.00167143
0.00139227
-0.000809371
-0.00184509
-0.000485742
-0.0018838
-0.000149869
-0.00184559
0.00014933
-0.00167227
0.000485356
-0.00139325
0.000809094
-4.21899e-07
0.0014886
-2.10189e-07
0.00149596
-6.59558e-08
0.00149599
1.64288e-11
0.00149601
6.59752e-08
0.00149601
2.10245e-07
0.00149599
4.21897e-07
0.00149596
0.00139325
0.0014886
0.00167227
0.000809094
0.00184559
0.000485356
0.0018838
0.00014933
0.00184509
-0.000149869
0.00167143
-0.000485742
0.00139227
-0.000809371
4.18899e-07
-0.0014874
2.08585e-07
-0.00149475
6.52912e-08
-0.00149478
-1.14004e-11
-0.0014948
-6.52873e-08
-0.0014948
-2.08611e-07
-0.00149478
-4.18904e-07
-0.00149475
-0.0014874
-0.00122456
0.000812306
-0.000397013
-0.00147139
-0.000238897
-0.00154558
-7.56698e-05
-0.00147169
7.5435e-05
-0.0012251
0.000238744
-0.000813108
0.000397
7.27746e-08
0.000675418
3.45106e-08
0.000678888
1.06244e-08
0.000678893
1.02195e-11
0.000678893
-1.06117e-08
0.000678893
-3.4479e-08
0.000678893
-7.27713e-08
0.000678888
0.000813108
0.000675418
0.0012251
0.000397
0.00147169
0.000238744
0.00154558
7.5435e-05
0.00147139
-7.56698e-05
0.00122456
-0.000238897
0.000812306
-0.000397013
-7.55234e-08
-0.000675021
-3.59636e-08
-0.000678487
-1.11909e-08
-0.000678492
-2.76029e-12
-0.000678492
1.11969e-08
-0.000678492
3.59611e-08
-0.000678492
7.55266e-08
-0.000678487
-0.000675021
-0.00107211
0.000675102
-0.00131102
-0.00138669
-0.00131125
-0.0010725
-0.000675501
-8.3138e-08
-4.37492e-08
-1.59884e-08
1.4183e-11
1.6007e-08
4.37564e-08
8.3138e-08
0.000675501
0.0010725
0.00131125
0.00138669
0.00131102
0.00107211
0.000675102
8.15227e-08
4.27907e-08
1.55585e-08
-1.78472e-12
-1.55475e-08
-4.27822e-08
-8.15134e-08
0.00704585
3.05802e-11
-0.000208072
9.61753e-12
0.000207322
0.00704585
-0.000208072
0.000207322
-0.00220557
4.7646e-11
1.42832e-12
-0.00220557
)
;

boundaryField
{
    top_fluid_surface
    {
        type            calculated;
        value           uniform 0;
    }
    bottom_fluid_surface
    {
        type            calculated;
        value           uniform 0;
    }
    lateral_surface_1
    {
        type            calculated;
        value           uniform 0;
    }
    lateral_surface_2
    {
        type            calculated;
        value           uniform 0;
    }
    lateral_surface_3
    {
        type            calculated;
        value           uniform 0;
    }
    lateral_surface_4
    {
        type            calculated;
        value           uniform 0;
    }
}


// ************************************************************************* //
