/*--------------------------------*- C++ -*----------------------------------*\
| =========                 |                                                 |
| \\      /  F ield         | OpenFOAM: The Open Source CFD Toolbox           |
|  \\    /   O peration     | Version:  v1612+                                |
|   \\  /    A nd           | Web:      www.OpenFOAM.com                      |
|    \\/     M anipulation  |                                                 |
\*---------------------------------------------------------------------------*/
FoamFile
{
    version     2.0;
    format      ascii;
    class       volVectorField;
    location    "0.5";
    object      U;
}
// * * * * * * * * * * * * * * * * * * * * * * * * * * * * * * * * * * * * * //

dimensions      [0 1 -1 0 0 0 0];

internalField   nonuniform List<vector> 
320
(
(-0.00188861 1.45658e-09 0.000165987)
(-0.00188886 -1.33401e-09 -0.000164981)
(-0.00188861 -1.07402e-09 0.000165987)
(-0.00188886 1.4421e-09 -0.000164981)
(0.00694391 -4.51264e-11 0.000150739)
(0.00694358 1.4169e-09 -0.000149812)
(0.00698056 -5.27678e-08 -0.000606526)
(0.0069806 -2.67255e-08 -0.000606562)
(0.0069806 2.67509e-08 -0.000606562)
(0.00698056 5.27874e-08 -0.000606526)
(0.00694358 -1.41589e-09 -0.000149812)
(0.00694391 1.87992e-11 0.000150739)
(0.00697852 -5.34276e-08 0.000607218)
(0.00697856 -2.69767e-08 0.000607253)
(0.00697856 2.69907e-08 0.000607253)
(0.00697852 5.34289e-08 0.000607218)
(-0.00221361 -1.00746e-08 0.000233777)
(-0.00221357 1.13829e-08 -0.000233084)
(-0.0020657 1.65222e-08 -0.000873487)
(-0.00206566 9.01989e-09 -0.000873504)
(-0.00206566 -8.9933e-09 -0.000873504)
(-0.0020657 -1.65195e-08 -0.000873487)
(-0.00221357 -1.13828e-08 -0.000233084)
(-0.00221361 1.00404e-08 0.000233777)
(-0.00206659 1.54899e-08 0.000873719)
(-0.00206655 8.60229e-09 0.000873736)
(-0.00206655 -8.58546e-09 0.000873736)
(-0.00206659 -1.54845e-08 0.000873719)
(-0.0018886 2.9403e-09 0.000165991)
(-0.00188885 -3.10636e-09 -0.000164986)
(-0.0017519 -2.17143e-08 -0.000536609)
(-0.0017519 -9.95207e-09 -0.000536603)
(-0.0017519 9.99022e-09 -0.000536603)
(-0.0017519 2.1718e-08 -0.000536609)
(-0.00188885 3.00631e-09 -0.000164986)
(-0.0018886 -3.26962e-09 0.000165991)
(-0.0017512 -2.17864e-08 0.000537445)
(-0.0017512 -9.90745e-09 0.000537439)
(-0.0017512 9.9857e-09 0.000537439)
(-0.0017512 2.17155e-08 0.000537445)
(-0.00153604 -1.36314e-09 0.000119887)
(-0.0015362 1.42598e-09 -0.000119613)
(-0.00153604 1.42022e-09 0.000119888)
(-0.0015362 -1.41922e-09 -0.000119613)
(-0.00153605 -2.97976e-09 0.000119886)
(-0.0015362 3.07229e-09 -0.000119611)
(-0.00137151 6.86435e-09 -0.00038575)
(-0.0013715 3.26319e-09 -0.000385759)
(-0.0013715 -3.24431e-09 -0.000385759)
(-0.00137151 -6.86802e-09 -0.00038575)
(-0.0015362 -3.08831e-09 -0.000119611)
(-0.00153605 2.91775e-09 0.000119886)
(-0.00137109 6.84442e-09 0.000385898)
(-0.00137108 3.25963e-09 0.000385907)
(-0.00137108 -3.25319e-09 0.000385907)
(-0.00137109 -6.85946e-09 0.000385898)
(0.00697843 3.26909e-07 0.00060718)
(0.00694388 -2.88329e-08 0.000150733)
(0.00694355 3.39183e-08 -0.000149806)
(0.00698047 -3.24589e-07 -0.000606488)
(0.00444395 4.67477e-07 -0.00101862)
(0.00444396 7.1342e-08 -0.00101864)
(0.00444391 3.81337e-08 -0.00101865)
(0.00444391 -3.81073e-08 -0.00101865)
(0.00444396 -7.1317e-08 -0.00101864)
(0.00444395 -4.67449e-07 -0.00101862)
(0.00698047 3.24606e-07 -0.000606488)
(0.00694355 -3.39082e-08 -0.000149806)
(0.00694388 2.88432e-08 0.000150733)
(0.00697843 -3.26882e-07 0.00060718)
(0.00444401 4.68342e-07 0.00102006)
(0.00444401 7.14659e-08 0.00102008)
(0.00444396 3.81928e-08 0.00102009)
(0.00444396 -3.81669e-08 0.00102009)
(0.00444401 -7.14636e-08 0.00102008)
(0.00444401 -4.68312e-07 0.00102006)
(-0.00206661 -5.21553e-08 0.000873697)
(-0.0022136 -4.79579e-08 0.000233777)
(-0.00221356 5.2511e-08 -0.000233085)
(-0.00206573 5.60222e-08 -0.000873465)
(-0.00216584 4.57501e-07 -0.00144267)
(-0.00216584 9.80656e-08 -0.00144265)
(-0.00216581 5.09028e-08 -0.00144261)
(-0.00216581 -5.08726e-08 -0.00144261)
(-0.00216584 -9.80416e-08 -0.00144265)
(-0.00216584 -4.5747e-07 -0.00144267)
(-0.00206573 -5.60121e-08 -0.000873465)
(-0.00221356 -5.24983e-08 -0.000233085)
(-0.0022136 4.79695e-08 0.000233777)
(-0.00206661 5.21692e-08 0.000873697)
(-0.00216552 4.51517e-07 0.00144161)
(-0.00216551 9.71078e-08 0.00144159)
(-0.00216549 5.04938e-08 0.00144155)
(-0.00216549 -5.04541e-08 0.00144155)
(-0.00216551 -9.71027e-08 0.00144159)
(-0.00216552 -4.5149e-07 0.00144161)
(-0.00175119 1.00585e-07 0.000537443)
(-0.00188857 8.49339e-09 0.000165993)
(-0.00188882 -7.90893e-09 -0.000164988)
(-0.00175189 -1.00506e-07 -0.000536608)
(-0.00171629 1.55515e-08 -0.000884899)
(-0.00171633 -5.7655e-10 -0.000884872)
(-0.00171636 5.51865e-10 -0.000884832)
(-0.00171636 -5.19254e-10 -0.000884832)
(-0.00171633 5.94969e-10 -0.000884872)
(-0.00171629 -1.55215e-08 -0.000884899)
(-0.00175189 1.00525e-07 -0.000536608)
(-0.00188882 7.95198e-09 -0.000164988)
(-0.00188857 -8.47796e-09 0.000165993)
(-0.00175119 -1.00542e-07 0.000537443)
(-0.00171525 1.65132e-08 0.000885903)
(-0.00171529 -2.88761e-10 0.000885876)
(-0.00171532 6.84894e-10 0.000885837)
(-0.00171532 -6.46612e-10 0.000885837)
(-0.00171529 2.75074e-10 0.000885876)
(-0.00171525 -1.64912e-08 0.000885903)
(-0.00137109 -1.97224e-08 0.000385884)
(-0.00153604 -1.12e-08 0.000119883)
(-0.00153619 1.1526e-08 -0.000119609)
(-0.00137151 1.97132e-08 -0.000385736)
(-0.00109071 9.37516e-08 -0.000649169)
(-0.00109071 2.30071e-08 -0.000649175)
(-0.00109071 1.10677e-08 -0.000649175)
(-0.00109071 -1.10316e-08 -0.000649175)
(-0.00109071 -2.30036e-08 -0.000649175)
(-0.00109071 -9.37279e-08 -0.000649169)
(-0.00137151 -1.96887e-08 -0.000385736)
(-0.00153619 -1.14979e-08 -0.000119609)
(-0.00153604 1.1224e-08 0.000119883)
(-0.00137109 1.97454e-08 0.000385884)
(-0.00108992 9.43756e-08 0.000649089)
(-0.00108992 2.32415e-08 0.000649096)
(-0.00108992 1.11606e-08 0.000649095)
(-0.00108992 -1.11387e-08 0.000649095)
(-0.00108992 -2.32538e-08 0.000649096)
(-0.00108992 -9.43695e-08 0.000649089)
(-0.00137618 -1.34996e-10 3.74819e-05)
(-0.0013763 1.2556e-10 -3.73458e-05)
(-0.00137618 1.59821e-10 3.74819e-05)
(-0.0013763 -1.13539e-10 -3.73458e-05)
(-0.00137618 -2.25255e-10 3.74832e-05)
(-0.0013763 1.53854e-10 -3.73471e-05)
(-0.00121621 -2.0952e-09 -0.000115478)
(-0.00121621 -8.13169e-10 -0.000115473)
(-0.00121621 8.25858e-10 -0.000115473)
(-0.00121621 2.08915e-09 -0.000115478)
(-0.0013763 -1.83433e-10 -3.73471e-05)
(-0.00137618 1.80286e-10 3.74832e-05)
(-0.0012159 -1.96871e-09 0.000115579)
(-0.0012159 -7.60854e-10 0.000115575)
(-0.0012159 7.54431e-10 0.000115575)
(-0.0012159 1.94343e-09 0.000115579)
(-0.00121589 9.28488e-09 0.000115582)
(-0.00137617 -1.08533e-09 3.74843e-05)
(-0.00137629 1.03138e-09 -3.73484e-05)
(-0.0012162 -9.60501e-09 -0.000115481)
(-0.00092352 1.80258e-09 -0.000186515)
(-0.000923536 -2.91071e-10 -0.000186504)
(-0.000923545 2.87998e-11 -0.000186493)
(-0.000923545 -6.3718e-12 -0.000186493)
(-0.000923536 2.94889e-10 -0.000186504)
(-0.00092352 -1.78504e-09 -0.000186515)
(-0.0012162 9.61555e-09 -0.000115481)
(-0.00137629 -1.01175e-09 -3.73484e-05)
(-0.00137617 1.10019e-09 3.74843e-05)
(-0.00121589 -9.27339e-09 0.000115582)
(-0.000923081 2.59408e-09 0.000186552)
(-0.000923098 3.84768e-11 0.000186542)
(-0.000923106 1.44669e-10 0.000186531)
(-0.000923106 -1.47223e-10 0.000186531)
(-0.000923098 -5.55096e-11 0.000186542)
(-0.000923081 -2.5921e-09 0.000186552)
(0.00442186 -4.35039e-07 0.00101501)
(0.00694344 3.00437e-07 0.000604037)
(0.00690924 -2.85915e-08 0.000150003)
(0.00690891 3.28201e-08 -0.000149085)
(0.00694545 -2.98566e-07 -0.000603354)
(0.0044218 4.3426e-07 -0.00101358)
(0.00574 -7.18147e-07 -0.00388441)
(0.00576845 -7.8035e-07 -0.00390425)
(0.0057684 -1.35332e-07 -0.00390437)
(0.00576829 -7.31246e-08 -0.00390448)
(0.00576829 7.31436e-08 -0.00390448)
(0.0057684 1.35355e-07 -0.00390437)
(0.00576845 7.80373e-07 -0.00390425)
(0.00574 7.1815e-07 -0.00388441)
(0.0044218 -4.3425e-07 -0.00101358)
(0.00694545 2.98553e-07 -0.000603354)
(0.00690891 -3.28471e-08 -0.000149085)
(0.00690924 2.85576e-08 0.000150003)
(0.00694344 -3.00459e-07 0.000604037)
(0.00442186 4.35052e-07 0.00101501)
(0.00573759 -7.10433e-07 0.00388598)
(0.005766 -7.71505e-07 0.00390583)
(0.00576596 -1.3336e-07 0.00390596)
(0.00576585 -7.22831e-08 0.00390607)
(0.00576585 7.22844e-08 0.00390607)
(0.00576596 1.33363e-07 0.00390596)
(0.005766 7.71536e-07 0.00390583)
(0.00573759 7.10446e-07 0.00388598)
(-0.00215484 -4.0487e-07 0.00143451)
(-0.00205634 -4.52781e-08 0.000869232)
(-0.00220253 -4.30232e-08 0.000232643)
(-0.00220249 4.67508e-08 -0.000231953)
(-0.00205547 4.84996e-08 -0.000868999)
(-0.00215516 4.10325e-07 -0.00143556)
(-0.00119037 4.09142e-07 -0.00462056)
(-0.00119627 4.41845e-07 -0.00464392)
(-0.0011963 6.9905e-08 -0.00464399)
(-0.00119631 3.72101e-08 -0.00464402)
(-0.00119631 -3.71877e-08 -0.00464402)
(-0.0011963 -6.98702e-08 -0.00464399)
(-0.00119627 -4.418e-07 -0.00464392)
(-0.00119037 -4.09129e-07 -0.00462056)
(-0.00215516 -4.1031e-07 -0.00143556)
(-0.00205547 -4.85033e-08 -0.000868999)
(-0.00220249 -4.67572e-08 -0.000231953)
(-0.00220253 4.30038e-08 0.000232643)
(-0.00205634 4.52633e-08 0.000869232)
(-0.00215484 4.04877e-07 0.00143451)
(-0.00119395 4.12082e-07 0.00461761)
(-0.00119989 4.45268e-07 0.00464095)
(-0.00119992 7.07733e-08 0.00464101)
(-0.00119993 3.75984e-08 0.00464104)
(-0.00119993 -3.75812e-08 0.00464104)
(-0.00119992 -7.0759e-08 0.00464101)
(-0.00119989 -4.45226e-07 0.00464095)
(-0.00119395 -4.12058e-07 0.00461761)
(-0.00170661 -1.7453e-08 0.000881521)
(-0.00174242 8.87437e-08 0.00053473)
(-0.00187906 6.62783e-09 0.000165171)
(-0.00187931 -6.27073e-09 -0.00016417)
(-0.00174311 -8.87806e-08 -0.000533898)
(-0.00170764 1.66536e-08 -0.000880522)
(-0.000899785 -3.50953e-07 -0.00162182)
(-0.000904405 -3.9065e-07 -0.00162988)
(-0.000904451 -8.01266e-08 -0.00162987)
(-0.000904492 -4.04108e-08 -0.00162984)
(-0.000904492 4.04431e-08 -0.00162984)
(-0.000904451 8.01613e-08 -0.00162987)
(-0.000904405 3.90682e-07 -0.00162988)
(-0.000899785 3.50945e-07 -0.00162182)
(-0.00170764 -1.66587e-08 -0.000880522)
(-0.00174311 8.87632e-08 -0.000533898)
(-0.00187931 6.25809e-09 -0.00016417)
(-0.00187906 -6.65346e-09 0.000165171)
(-0.00174242 -8.87682e-08 0.00053473)
(-0.00170661 1.74491e-08 0.000881521)
(-0.000899087 -3.48701e-07 0.00162003)
(-0.000903703 -3.87876e-07 0.00162808)
(-0.000903748 -7.92491e-08 0.00162807)
(-0.000903789 -4.00574e-08 0.00162804)
(-0.000903789 4.00744e-08 0.00162804)
(-0.000903748 7.92489e-08 0.00162807)
(-0.000903703 3.87899e-07 0.00162808)
(-0.000899087 3.48704e-07 0.00162003)
(-0.00108447 -8.22754e-08 0.00064585)
(-0.00136422 -1.61415e-08 0.000383922)
(-0.00152833 -9.66432e-09 0.000119284)
(-0.00152848 9.85279e-09 -0.00011901)
(-0.00136463 1.60903e-08 -0.000383775)
(-0.00108526 8.17892e-08 -0.000645928)
(-0.000468857 5.82934e-08 -0.00116238)
(-0.000471212 6.5733e-08 -0.0011683)
(-0.000471221 1.33395e-08 -0.00116834)
(-0.000471226 5.91262e-09 -0.00116837)
(-0.000471226 -5.89267e-09 -0.00116837)
(-0.000471221 -1.33192e-08 -0.00116834)
(-0.000471212 -6.57096e-08 -0.0011683)
(-0.000468857 -5.82953e-08 -0.00116238)
(-0.00108526 -8.17759e-08 -0.000645928)
(-0.00136463 -1.60849e-08 -0.000383775)
(-0.00152848 -9.85232e-09 -0.00011901)
(-0.00152833 9.65327e-09 0.000119284)
(-0.00136422 1.61394e-08 0.000383923)
(-0.00108447 8.22745e-08 0.00064585)
(-0.00046829 6.04126e-08 0.00116186)
(-0.000470642 6.82839e-08 0.00116778)
(-0.00047065 1.40828e-08 0.00116781)
(-0.000470655 6.21889e-09 0.00116784)
(-0.000470655 -6.21687e-09 0.00116784)
(-0.00047065 -1.40856e-08 0.00116781)
(-0.000470642 -6.82794e-08 0.00116778)
(-0.00046829 -6.04199e-08 0.00116186)
(-0.000918458 -2.69127e-09 0.000185629)
(-0.00120979 8.07399e-09 0.000115005)
(-0.00136927 -1.03878e-09 3.72986e-05)
(-0.00136939 9.74138e-10 -3.71629e-05)
(-0.00121011 -8.33945e-09 -0.000114904)
(-0.000918896 2.10513e-09 -0.000185591)
(-0.000375906 -6.79178e-08 -0.000275219)
(-0.0003778 -7.79629e-08 -0.00027658)
(-0.000377813 -1.96982e-08 -0.000276565)
(-0.000377823 -9.63064e-09 -0.00027655)
(-0.000377823 9.66231e-09 -0.00027655)
(-0.000377813 1.97044e-08 -0.000276565)
(-0.0003778 7.79715e-08 -0.00027658)
(-0.000375906 6.79083e-08 -0.000275219)
(-0.000918896 -2.10332e-09 -0.000185591)
(-0.00121011 8.3378e-09 -0.000114904)
(-0.00136939 -9.68214e-10 -3.7163e-05)
(-0.00136927 1.03994e-09 3.72986e-05)
(-0.00120979 -8.08403e-09 0.000115005)
(-0.000918458 2.69563e-09 0.000185629)
(-0.00037566 -6.67202e-08 0.000274961)
(-0.000377553 -7.6413e-08 0.00027632)
(-0.000377566 -1.91124e-08 0.000276305)
(-0.000377575 -9.41359e-09 0.000276289)
(-0.000377575 9.41051e-09 0.000276289)
(-0.000377566 1.91062e-08 0.000276305)
(-0.000377553 7.64047e-08 0.00027632)
(-0.00037566 6.67021e-08 0.000274961)
(0.00694389 2.59114e-10 0.000150745)
(0.00694356 3.51326e-10 -0.000149817)
(0.00694389 -2.11052e-10 0.000150745)
(0.00694356 -3.28114e-10 -0.000149817)
(-0.0022136 -5.07902e-09 0.000233776)
(-0.00221355 5.63451e-09 -0.000233082)
(-0.0022136 5.1281e-09 0.000233775)
(-0.00221355 -5.63316e-09 -0.000233082)
)
;

boundaryField
{
    top_fluid_surface
    {
        type            fixedValue;
        value           uniform (1 0 0);
    }
    bottom_fluid_surface
    {
        type            noSlip;
    }
    lateral_surface_1
    {
        type            noSlip;
    }
    lateral_surface_2
    {
        type            noSlip;
    }
    lateral_surface_3
    {
        type            noSlip;
    }
    lateral_surface_4
    {
        type            noSlip;
    }
}


// ************************************************************************* //
