/*--------------------------------*- C++ -*----------------------------------*\
| =========                 |                                                 |
| \\      /  F ield         | OpenFOAM: The Open Source CFD Toolbox           |
|  \\    /   O peration     | Version:  v1612+                                |
|   \\  /    A nd           | Web:      www.OpenFOAM.com                      |
|    \\/     M anipulation  |                                                 |
\*---------------------------------------------------------------------------*/
FoamFile
{
    version     2.0;
    format      ascii;
    class       surfaceScalarField;
    location    "2.45";
    object      alphaPhi;
}
// * * * * * * * * * * * * * * * * * * * * * * * * * * * * * * * * * * * * * //

dimensions      [0 3 -1 0 0 0 0];

internalField   nonuniform List<scalar> 
816
(
-3.51787e-06
-4.9787e-07
1.87408e-06
2.46213e-06
3.03675e-07
-7.97431e-07
5.54734e-07
1.35439e-06
-2.61643e-07
2.76393e-06
-7.91059e-06
-1.25148e-06
2.2802e-06
2.4902e-06
2.88409e-06
-6.86955e-06
-2.92857e-07
2.24273e-06
3.6513e-06
-6.26378e-06
-1.03931e-09
2.09799e-09
-3.55655e-06
-5.15483e-10
7.29282e-10
5.21054e-10
-9.90568e-07
5.45795e-10
7.70225e-10
1.02402e-09
-9.89525e-07
3.1101e-11
1.10444e-09
2.166e-10
-3.46839e-06
3.78669e-11
-4.31839e-10
-6.26295e-10
-2.80006e-06
-8.74855e-10
2.94749e-10
1.13456e-09
2.4375e-06
-1.52751e-09
-4.29187e-10
3.17131e-10
2.00849e-06
-6.21795e-10
3.40694e-10
-2.55564e-12
2.99991e-07
-1.11999e-09
-8.7576e-11
6.991e-11
6.31534e-08
-6.21147e-12
5.49004e-10
8.46962e-10
1.52455e-06
7.11726e-10
-9.34381e-11
1.16413e-09
6.55729e-05
1.723e-09
-1.47977e-09
-1.48655e-06
3.40117e-10
2.40607e-10
-2.89583e-06
8.89194e-06
-1.08714e-05
-4.05136e-06
2.3386e-06
5.28314e-06
-8.78729e-06
-1.49904e-06
1.61227e-06
-2.55846e-07
-1.86069e-06
2.25006e-06
3.73279e-06
-2.60798e-06
3.64528e-06
-4.42709e-06
7.22283e-07
-3.28386e-06
2.5494e-06
1.35027e-07
-3.64661e-06
-1.34278e-06
-2.98717e-06
8.14294e-06
-3.00869e-07
1.28154e-06
4.2535e-07
8.63173e-07
3.54455e-06
-1.76366e-06
2.22555e-07
-5.18369e-06
1.98138e-06
3.14467e-06
-9.74176e-06
-9.38987e-07
2.66228e-06
5.90276e-06
-3.58507e-06
-8.96815e-07
-2.96689e-06
5.41335e-06
-5.82361e-06
-5.02225e-07
-1.42143e-06
2.06059e-06
-8.5503e-07
4.37382e-07
-1.41532e-06
-1.41328e-06
-4.80301e-06
-1.35152e-06
-2.09329e-06
-4.7054e-06
-1.9917e-06
2.02605e-07
-1.3095e-06
-9.20711e-07
-1.83945e-06
8.60134e-07
2.40077e-06
2.13725e-07
9.00273e-07
1.4407e-06
7.44001e-07
8.08081e-07
-1.05407e-06
-4.84598e-07
-1.35164e-06
1.89974e-06
8.09475e-07
6.53685e-07
2.58089e-06
-1.01775e-07
1.82923e-06
-1.79143e-06
-3.95089e-06
-6.29593e-08
-1.35829e-06
-1.66449e-06
-2.0979e-06
8.57064e-07
-2.19884e-06
-3.72002e-06
8.89977e-07
8.90055e-07
-2.61797e-06
1.01157e-07
-2.19618e-06
-2.50993e-07
6.23944e-07
1.79633e-06
3.82276e-07
-3.21988e-07
9.31812e-07
-1.13025e-06
1.04728e-06
-1.17932e-06
1.27451e-06
1.86376e-06
7.3342e-07
-2.37006e-07
1.30662e-06
1.1334e-06
-4.11121e-07
-8.5372e-07
-1.52149e-06
-1.38594e-06
-1.50198e-06
-1.83561e-06
-8.56877e-07
-4.15547e-07
-6.6444e-07
-1.65512e-06
-1.0654e-07
6.25058e-07
-4.35646e-07
6.98242e-07
6.42253e-07
8.54425e-07
3.462e-07
2.92787e-07
3.87955e-07
-7.46149e-07
-3.37439e-07
1.51649e-06
7.82304e-07
1.7355e-07
1.77603e-06
1.11302e-06
-1.79508e-07
-6.12076e-07
5.30117e-08
-8.5853e-08
-1.49209e-06
-8.3853e-07
3.86226e-07
-4.5546e-07
-1.71734e-06
1.39905e-07
-1.2107e-06
-2.27884e-06
3.98582e-07
2.18158e-07
-1.3496e-09
-6.05247e-10
-2.49423e-06
-6.95408e-11
-6.38823e-10
6.62484e-07
-9.64546e-10
-8.62872e-11
3.28011e-06
6.21249e-10
1.08636e-10
-8.21998e-07
7.59427e-10
5.82187e-10
1.02229e-06
-8.80721e-11
-8.24052e-10
1.98055e-10
-7.9086e-07
4.29809e-10
-6.4098e-10
-2.77794e-06
-8.3279e-10
-2.00006e-09
-1.90449e-06
-3.07269e-09
-1.8861e-09
-2.96842e-06
-2.46415e-09
2.06113e-09
-1.46775e-06
-7.202e-10
-1.3607e-09
8.72131e-10
-2.23748e-06
-4.50905e-10
1.22161e-10
2.14875e-06
-9.52362e-10
7.21134e-10
6.05557e-06
-2.0471e-10
-1.39423e-10
1.0353e-11
-4.52074e-10
9.3342e-10
9.89725e-07
-4.775e-10
-6.25633e-10
8.45824e-10
1.88553e-06
4.3642e-10
4.87117e-10
-6.26476e-07
-1.81305e-10
-7.02403e-10
1.66684e-11
7.8561e-11
-1.73875e-09
-5.34635e-06
-8.12855e-10
-4.30137e-06
-7.36963e-10
-1.23573e-09
-5.3038e-06
-3.62649e-06
7.11923e-06
-5.52088e-06
-4.54641e-07
7.09896e-07
-5.71589e-06
4.59028e-06
4.1572e-06
2.45932e-07
-2.95417e-07
3.29081e-06
2.09601e-06
4.4112e-06
5.3859e-06
-9.39307e-06
-7.99184e-06
-4.49704e-07
3.02984e-06
-4.2478e-06
1.16609e-06
5.45756e-06
-1.1753e-05
-1.58204e-06
1.19385e-05
-1.05504e-05
-1.00019e-05
5.1724e-06
-1.61059e-06
-1.67214e-06
-1.35821e-05
8.04856e-06
-9.48453e-06
-2.44498e-06
2.1939e-06
-5.32948e-06
-2.15984e-06
5.08671e-06
-1.30307e-06
3.94443e-06
-4.17695e-06
-2.81895e-06
2.68479e-06
-3.28828e-06
-6.61242e-06
1.62543e-07
-8.88449e-07
4.04622e-06
3.68781e-06
5.85156e-06
-4.1332e-07
5.57116e-06
2.41501e-06
5.82318e-07
-9.76235e-06
-1.98804e-06
7.77469e-06
-7.7656e-06
-8.54108e-06
1.03453e-06
-7.10755e-06
-5.93961e-06
-8.36257e-06
-6.11553e-06
-1.86376e-06
3.83365e-06
3.89193e-06
-1.39832e-06
-1.94627e-06
1.05974e-06
-1.65624e-06
-3.13204e-07
2.12844e-06
-1.58056e-06
1.82383e-06
1.00169e-06
-7.60626e-07
-3.58522e-07
2.00383e-06
1.08141e-06
4.44381e-06
-4.04363e-07
1.35121e-06
-1.2461e-07
2.60906e-07
3.6414e-06
1.31243e-06
3.59152e-06
5.45588e-06
3.88445e-06
4.45667e-06
1.88586e-06
1.91665e-06
-7.03925e-07
-6.63556e-06
-2.96155e-06
1.15617e-06
-2.95387e-08
2.03408e-06
-1.96309e-06
3.30581e-06
2.29032e-06
1.82108e-07
1.76439e-06
-1.43631e-06
6.54073e-07
5.16037e-07
-1.66448e-06
-4.59368e-07
-1.91213e-06
-9.06378e-07
2.17337e-06
2.79243e-07
-1.71809e-06
-5.29333e-07
-1.41026e-06
-1.03541e-06
-5.27913e-08
7.33155e-07
8.9804e-07
3.97605e-06
2.68177e-06
8.07369e-07
2.42353e-07
9.20177e-07
-2.88451e-06
-1.51365e-06
3.08509e-06
-1.2507e-06
2.93544e-06
8.54773e-07
-9.12245e-07
-6.72157e-07
2.58897e-07
-1.29624e-06
-7.37608e-08
1.09593e-06
-1.41935e-06
7.25454e-07
5.08124e-07
-9.93747e-07
-2.357e-07
7.31425e-07
5.41966e-08
2.1514e-06
-4.04361e-07
5.38358e-07
-7.09235e-07
7.75932e-07
1.28574e-06
7.77111e-07
2.95297e-06
1.40289e-06
2.71031e-06
3.06896e-06
5.40008e-07
1.60319e-06
-1.10193e-06
-1.67854e-06
-1.57031e-06
7.62903e-07
9.95544e-08
8.57034e-07
-7.70431e-07
2.25139e-06
5.7216e-07
3.28329e-07
1.58071e-06
-4.62664e-07
8.14722e-07
1.00038e-06
-6.11627e-07
-3.99735e-07
-1.58759e-06
-4.6186e-07
1.32674e-06
8.38983e-07
-1.48493e-06
-1.41003e-07
-5.9177e-07
-1.21951e-06
1.11265e-07
-6.70931e-08
6.58636e-07
8.00681e-07
1.46708e-06
3.51715e-07
6.29836e-08
9.39233e-07
-8.1733e-07
-1.18782e-06
2.36383e-06
-1.35938e-06
3.41593e-07
5.9781e-09
1.41482e-06
3.36016e-07
-6.50142e-08
-6.10556e-07
-8.67925e-07
8.75171e-07
1.08865e-06
-3.65312e-07
9.59793e-07
-7.71714e-07
9.47219e-08
-7.26562e-07
-7.5771e-07
-9.60791e-07
1.16755e-07
-3.71423e-07
-6.1239e-07
4.86754e-07
-2.98603e-07
3.43642e-07
1.08179e-07
5.56224e-07
-1.82661e-07
-3.73264e-07
1.15277e-06
5.21524e-07
1.28755e-06
5.70269e-07
-7.58778e-07
3.53139e-07
2.41523e-07
-6.3555e-07
5.18811e-07
-9.96656e-07
5.60087e-07
-1.12016e-06
4.20864e-07
-1.02525e-06
1.53e-06
-7.83623e-07
-9.23802e-07
-5.947e-07
-1.43438e-07
-6.57518e-07
3.57456e-07
-3.73509e-07
-5.90366e-10
7.37223e-09
1.1012e-06
-2.38778e-08
-7.19575e-08
5.36773e-07
4.03487e-07
1.30909e-06
7.14173e-07
1.24355e-06
4.0568e-07
-1.48564e-07
-6.70795e-07
3.67178e-07
5.80401e-07
-2.67523e-07
1.46842e-06
2.23677e-07
1.17655e-06
4.23452e-07
7.78683e-07
1.5949e-07
-1.00236e-06
7.92821e-07
5.39587e-07
-9.1982e-07
4.97197e-08
-6.44252e-07
3.40537e-07
-1.44283e-07
8.55876e-07
-1.44231e-07
4.8129e-07
-6.42465e-07
1.18845e-06
1.90992e-10
-7.35947e-10
3.08427e-06
-1.54363e-09
7.50448e-07
5.14374e-10
5.41647e-06
3.58924e-10
3.57271e-07
-1.52847e-10
-4.38952e-06
-7.84822e-10
1.88676e-07
9.41676e-11
4.84954e-07
8.68733e-10
1.86196e-06
-1.07034e-09
1.17844e-10
-2.73026e-09
8.43305e-06
-1.43793e-09
8.55169e-07
1.65568e-10
-1.23212e-06
-2.81211e-10
3.25157e-05
7.21612e-10
2.57154e-06
2.23912e-09
1.62469e-06
1.07643e-09
6.11073e-06
6.36441e-10
1.23308e-06
5.08982e-10
3.21609e-06
-2.88738e-10
6.71058e-06
-9.79867e-10
-5.56319e-06
1.53712e-09
-2.91812e-06
1.58263e-09
-3.1449e-06
2.98959e-10
8.05541e-12
2.18743e-10
1.25654e-05
-9.34436e-10
2.3634e-06
-1.31905e-09
5.74533e-07
-2.12532e-10
-4.36041e-06
1.11322e-06
3.37606e-06
-2.4696e-06
4.09253e-06
-3.05668e-06
4.67833e-06
5.60228e-06
2.73347e-06
2.27552e-06
6.50487e-06
-6.39159e-06
6.39965e-06
-4.80711e-06
1.0268e-06
3.10706e-06
-8.38557e-06
1.16716e-07
-1.026e-05
-5.84699e-06
6.71061e-06
1.96074e-06
3.00579e-06
9.73547e-06
-1.48886e-05
6.89645e-06
-9.48352e-06
-6.16756e-06
9.23418e-06
-4.23853e-06
6.01867e-06
-3.17792e-08
-8.01951e-06
2.76347e-06
8.21025e-06
-2.35013e-06
2.91731e-06
1.57851e-06
-3.41772e-06
1.03525e-05
6.71515e-07
4.01941e-06
-5.76575e-06
-5.4594e-07
-1.02917e-05
-4.56924e-06
-9.11675e-07
-8.10644e-06
7.47341e-06
6.86536e-07
1.57431e-06
2.11398e-06
-7.27839e-06
-1.46771e-06
-2.20407e-06
-3.94848e-06
-1.02535e-05
-1.07061e-06
-1.55877e-06
2.04694e-06
2.12393e-06
-8.94839e-07
2.65416e-06
-1.48672e-06
1.69751e-06
7.92298e-08
3.39971e-06
2.49409e-06
3.1679e-06
3.37696e-06
1.12881e-06
-1.31977e-06
-3.71641e-06
-2.46562e-06
-4.6259e-06
3.0027e-07
3.79993e-06
2.74313e-06
1.91727e-06
-1.0977e-06
-7.13385e-06
-3.47731e-06
-5.16165e-06
-1.30988e-06
4.09481e-06
1.86639e-06
2.85869e-06
-1.09455e-06
-3.89255e-06
1.1857e-06
4.00433e-06
3.10022e-06
1.13703e-06
2.47475e-06
-2.11876e-06
1.95859e-06
7.24286e-07
1.35509e-06
-2.99782e-06
-3.33066e-06
-5.6125e-06
-2.23601e-06
-1.61553e-06
6.34213e-07
3.17428e-06
1.31207e-06
1.6006e-06
-1.02307e-07
-3.26233e-06
1.57653e-07
-1.46752e-06
-1.57629e-06
-5.41318e-06
-5.95938e-07
-1.32212e-06
1.72437e-06
5.47204e-07
-8.06322e-07
1.22666e-06
-8.14842e-07
4.02523e-07
-1.18282e-07
1.29639e-06
1.15166e-06
9.71709e-07
2.08728e-06
3.98021e-07
-6.73555e-07
-1.1276e-06
-1.7121e-06
-1.45025e-06
5.81098e-07
8.13067e-07
2.95208e-06
3.27965e-07
3.18117e-08
-1.51811e-06
-2.31295e-06
-1.2454e-06
-9.1825e-07
1.11478e-06
1.05855e-06
8.72015e-07
-1.12101e-06
-9.82284e-07
8.63581e-07
1.26563e-06
1.9696e-06
3.30748e-07
1.35068e-06
-6.86333e-07
2.00806e-06
-2.79193e-07
1.56693e-06
-1.21561e-06
-2.27627e-06
-1.78837e-06
-2.43459e-06
-6.28972e-07
-4.50053e-07
5.38309e-07
9.8368e-07
1.01207e-07
2.82215e-07
-1.06607e-06
4.83761e-08
-3.59739e-07
-1.29918e-06
-1.69454e-06
-1.75362e-07
-9.77323e-07
8.78002e-07
-5.47037e-07
-7.46145e-07
-1.11428e-07
4.85279e-07
9.34062e-07
-1.85706e-07
-5.3065e-07
2.12958e-07
9.33474e-07
1.07555e-07
-7.50831e-07
-3.22047e-07
5.49309e-07
-7.88496e-08
9.32604e-07
1.5044e-06
1.24954e-06
1.14144e-06
7.38952e-07
-1.04515e-06
-1.1294e-06
-5.50698e-07
-1.00221e-07
-3.15954e-07
-1.93553e-07
-7.01758e-07
1.12442e-10
1.86738e-09
1.40557e-06
7.46943e-10
1.11098e-06
9.81621e-11
3.83446e-06
8.04726e-11
2.61122e-07
1.19376e-06
-1.91144e-06
-2.84216e-07
)
;

boundaryField
{
    top_fluid_surface
    {
        type            calculated;
        value           nonuniform List<scalar> 
64
(
0
0
0
9.10846e-10
1.34698e-09
0
8.25227e-10
1.14049e-09
0
0
0
1.55809e-09
1.69726e-09
0
0
0
1.126e-10
7.97147e-10
1.51538e-09
1.56362e-09
5.84486e-11
0
6.89537e-10
6.83871e-10
0
1.00796e-09
0
0
1.09616e-09
1.61752e-09
1.67369e-09
0
0
9.64943e-10
0
5.27533e-10
1.21889e-09
3.27961e-10
0
0
9.76114e-10
0
0
0
0
0
0
0
0
0
0
3.67426e-10
0
0
1.0863e-09
0
5.39371e-10
0
0
0
0
0
6.03692e-10
1.1216e-09
)
;
    }
    bottom_fluid_surface
    {
        type            calculated;
        value           uniform 0;
    }
    lateral_surface_1
    {
        type            calculated;
        value           uniform 0;
    }
    lateral_surface_2
    {
        type            calculated;
        value           uniform 0;
    }
    lateral_surface_3
    {
        type            calculated;
        value           uniform 0;
    }
    lateral_surface_4
    {
        type            calculated;
        value           uniform 0;
    }
}


// ************************************************************************* //
