/*--------------------------------*- C++ -*----------------------------------*\
| =========                 |                                                 |
| \\      /  F ield         | OpenFOAM: The Open Source CFD Toolbox           |
|  \\    /   O peration     | Version:  v1612+                                |
|   \\  /    A nd           | Web:      www.OpenFOAM.com                      |
|    \\/     M anipulation  |                                                 |
\*---------------------------------------------------------------------------*/
FoamFile
{
    version     2.0;
    format      ascii;
    class       surfaceScalarField;
    location    "2.45";
    object      phi;
}
// * * * * * * * * * * * * * * * * * * * * * * * * * * * * * * * * * * * * * //

dimensions      [0 3 -1 0 0 0 0];

internalField   nonuniform List<scalar> 
816
(
-3.42014e-06
-3.96551e-07
1.9807e-06
2.41251e-06
4.84568e-07
-1.05509e-06
6.77248e-07
1.35033e-06
-2.14891e-07
2.92124e-06
-8.19744e-06
-1.22202e-06
2.30645e-06
2.43567e-06
2.93874e-06
-6.89744e-06
-3.30821e-07
2.21524e-06
3.6146e-06
-6.06842e-06
-0.00013038
0.000308934
-6.08207e-06
-8.13985e-05
8.7885e-05
6.05063e-05
1.03871e-06
6.49009e-05
9.2021e-05
0.000141969
-4.44071e-07
-7.15803e-07
0.00014762
4.42851e-05
-3.05455e-06
7.38579e-06
-7.69911e-05
-0.000109932
-9.94288e-07
-0.00019767
6.12846e-05
0.000202946
6.53123e-06
-0.000246861
-7.20905e-05
6.10795e-05
8.72123e-06
-0.000125574
6.97089e-05
-3.63468e-06
-4.90504e-06
-0.000153581
-1.96784e-05
4.36858e-06
-1.17203e-06
-1.3798e-06
8.05546e-05
8.95234e-05
2.90784e-06
0.00010278
-1.17032e-05
0.000233584
-6.40386e-06
0.000284755
-0.000144957
-1.55258e-05
8.58406e-05
6.74473e-05
-3.2004e-06
9.17492e-06
-1.10442e-05
-3.99553e-06
2.22854e-06
5.3371e-06
-8.65382e-06
-1.32819e-06
1.73543e-06
9.78324e-08
-1.75748e-06
2.18396e-06
4.03977e-06
-2.54833e-06
3.40399e-06
-4.35276e-06
3.7961e-07
-3.39807e-06
2.45289e-06
-1.95259e-07
-3.6172e-06
-1.13075e-06
-3.11988e-06
7.83705e-06
-3.31203e-07
1.28763e-06
2.43148e-07
5.85224e-07
3.34814e-06
-2.03069e-06
2.04912e-08
-5.4323e-06
1.76538e-06
2.94935e-06
-9.96654e-06
-8.63278e-07
2.54411e-06
5.35919e-06
-3.49565e-06
-7.39228e-07
-2.84974e-06
6.42596e-06
-5.15501e-06
6.30456e-07
-1.06125e-06
1.89337e-06
-7.86837e-07
3.53356e-07
-1.41964e-06
-1.45924e-06
-4.86465e-06
-1.36176e-06
-2.0888e-06
-4.6718e-06
-1.99097e-06
2.33731e-07
-1.2762e-06
-9.80558e-07
-1.82526e-06
8.73338e-07
2.30258e-06
2.45184e-07
8.80654e-07
1.40683e-06
6.95713e-07
8.33947e-07
-1.07753e-06
-6.12723e-07
-1.38522e-06
1.91351e-06
7.24783e-07
6.4135e-07
2.58683e-06
-2.09602e-07
1.85334e-06
-1.88067e-06
-4.03975e-06
-7.63857e-08
-1.38268e-06
-1.81651e-06
-2.04244e-06
9.05871e-07
-2.0975e-06
-3.55629e-06
1.06971e-06
8.246e-07
-2.57592e-06
6.72442e-08
-2.2111e-06
-2.04249e-07
6.52167e-07
1.80269e-06
3.96746e-07
-2.5292e-07
9.28983e-07
-1.06298e-06
1.09114e-06
-1.18338e-06
1.31976e-06
1.84105e-06
7.23013e-07
-2.59497e-07
1.32808e-06
1.09007e-06
-4.52489e-07
-8.30466e-07
-1.53335e-06
-1.4117e-06
-1.50141e-06
-1.84501e-06
-8.44804e-07
-3.77924e-07
-6.75542e-07
-1.6377e-06
-9.87045e-08
6.21412e-07
-4.20873e-07
6.49191e-07
6.33406e-07
8.15523e-07
3.17659e-07
3.52193e-07
3.22602e-07
-7.78703e-07
-3.62412e-07
1.53566e-06
7.32079e-07
1.28385e-07
1.75989e-06
1.0976e-06
-2.09477e-07
-6.66098e-07
4.64722e-08
-1.55027e-07
-1.5167e-06
-8.70807e-07
4.10991e-07
-4.3706e-07
-1.68514e-06
2.0618e-07
-1.17501e-06
-2.31298e-06
3.92714e-07
2.07255e-07
-0.000207295
-8.84737e-05
-7.57722e-06
-1.49356e-05
-0.000102368
4.80799e-06
-0.000123425
-1.62404e-05
1.1481e-05
0.000109304
-6.23897e-06
-1.25835e-06
0.000112796
9.14854e-05
-8.15903e-06
-6.53175e-06
-0.000101003
4.8147e-05
-6.5301e-06
5.03981e-05
-0.000144675
9.87764e-07
-0.00015368
-0.000333975
-2.1118e-06
-0.000357714
-0.000262592
-1.32165e-05
-0.000286933
0.000280664
-4.0512e-06
-0.000137926
-0.00016457
0.000156901
-2.25089e-06
-7.82079e-05
2.39212e-05
3.88467e-06
-0.000148462
9.01976e-05
6.03322e-06
-5.04372e-05
-2.31908e-05
-8.69051e-06
-7.68066e-05
0.000151545
3.60525e-06
-6.86882e-05
-8.3909e-05
0.000146395
9.10035e-06
6.75697e-05
7.88087e-05
-1.03958e-05
-3.17639e-05
-0.000131644
-4.46074e-06
2.22579e-05
-0.000260905
-1.4474e-05
-0.000129367
-8.03844e-06
-0.000123433
-0.000160839
-5.4133e-06
-3.92414e-06
7.0378e-06
-5.59593e-06
-8.02427e-07
5.55232e-07
-5.99687e-06
4.5258e-06
4.30216e-06
5.23327e-07
-2.40365e-07
3.52016e-06
2.45662e-06
4.56295e-06
5.54306e-06
-8.96315e-06
-7.91188e-06
-3.16115e-07
3.06545e-06
-4.00287e-06
1.04297e-06
5.22936e-06
-1.20574e-05
-1.84645e-06
1.19723e-05
-1.08694e-05
-1.01436e-05
5.33556e-06
-1.89534e-06
-1.47349e-06
-1.35767e-05
7.26522e-06
-9.53015e-06
-2.4265e-06
1.98671e-06
-5.5754e-06
-2.26622e-06
5.06406e-06
-1.67136e-06
3.91876e-06
-4.35424e-06
-3.07386e-06
2.51914e-06
-3.35178e-06
-6.68458e-06
1.83023e-07
-8.26839e-07
4.23708e-06
3.41917e-06
6.09579e-06
-3.36071e-07
5.68219e-06
2.58567e-06
5.00748e-07
-9.85251e-06
-2.06212e-06
7.67085e-06
-7.6198e-06
-9.00196e-06
8.83573e-07
-7.54058e-06
-5.77205e-06
-8.30117e-06
-6.21342e-06
-1.84883e-06
3.77986e-06
3.87422e-06
-1.35299e-06
-1.97126e-06
9.8417e-07
-1.67763e-06
-3.25186e-07
2.20769e-06
-1.53812e-06
1.84289e-06
1.10483e-06
-7.41509e-07
-3.45749e-07
2.06175e-06
1.15144e-06
4.51487e-06
-3.96485e-07
1.35396e-06
-8.44281e-08
2.2194e-07
3.53757e-06
1.30805e-06
3.51004e-06
5.49482e-06
3.8814e-06
4.42587e-06
1.95359e-06
1.83985e-06
-6.09542e-07
-6.5844e-06
-3.17672e-06
1.20864e-06
2.67463e-08
1.92178e-06
-2.0036e-06
3.32089e-06
2.29509e-06
1.13805e-07
1.73416e-06
-1.5245e-06
6.046e-07
4.76117e-07
-1.70122e-06
-4.80575e-07
-1.90026e-06
-8.51755e-07
2.16357e-06
2.37353e-07
-1.73702e-06
-4.53423e-07
-1.43801e-06
-1.04882e-06
-6.00916e-08
7.30014e-07
8.87471e-07
3.97731e-06
2.77236e-06
7.67523e-07
1.34798e-07
9.092e-07
-2.8457e-06
-1.47762e-06
3.0971e-06
-1.25773e-06
2.90689e-06
8.37982e-07
-9.31168e-07
-7.07957e-07
2.36199e-07
-1.34168e-06
-6.97859e-08
1.1157e-06
-1.39258e-06
7.58948e-07
5.33764e-07
-9.44276e-07
-2.31098e-07
7.54338e-07
1.10392e-07
2.17837e-06
-3.85847e-07
5.39171e-07
-6.77877e-07
7.25698e-07
1.23922e-06
7.54254e-07
2.91658e-06
1.4075e-06
2.70149e-06
3.049e-06
5.6058e-07
1.5647e-06
-1.01971e-06
-1.6603e-06
-1.65052e-06
7.47521e-07
1.1141e-07
8.20805e-07
-8.28039e-07
2.28378e-06
5.75239e-07
2.78028e-07
1.58066e-06
-4.85801e-07
7.64219e-07
9.67584e-07
-6.25604e-07
-4.13697e-07
-1.58468e-06
-4.43893e-07
1.3439e-06
8.09656e-07
-1.46471e-06
-1.22683e-07
-6.16185e-07
-1.2078e-06
1.14849e-07
-7.4769e-08
6.61056e-07
7.85815e-07
1.48935e-06
2.72325e-07
4.22175e-08
8.5875e-07
-8.06551e-07
-1.21622e-06
2.35452e-06
-1.38437e-06
3.6441e-07
-4.67204e-09
1.4159e-06
3.73235e-07
-7.4046e-08
-5.86086e-07
-8.83916e-07
8.84377e-07
1.08186e-06
-3.80282e-07
9.67e-07
-7.83157e-07
9.7154e-08
-7.32907e-07
-7.46032e-07
-9.63449e-07
1.2349e-07
-3.69762e-07
-6.03246e-07
4.82378e-07
-2.98896e-07
3.33487e-07
8.37159e-08
5.87629e-07
-2.28442e-07
-3.91802e-07
1.17238e-06
5.07299e-07
1.29442e-06
5.62786e-07
-7.8457e-07
3.4048e-07
2.2466e-07
-6.58848e-07
5.22039e-07
-1.00604e-06
5.80201e-07
-1.13206e-06
4.21552e-07
-1.02617e-06
1.5176e-06
-7.88587e-07
-9.28731e-07
-6.03273e-07
-1.30664e-07
-6.46484e-07
3.814e-07
-3.49732e-07
-1.45301e-08
4.09365e-08
1.11021e-06
-2.17562e-08
-5.53382e-08
5.103e-07
4.01604e-07
1.28618e-06
7.05256e-07
1.22533e-06
3.78803e-07
-1.02061e-07
-7.09934e-07
3.55453e-07
6.04716e-07
-2.89762e-07
1.49119e-06
2.02222e-07
1.18215e-06
3.99675e-07
7.64967e-07
1.49142e-07
-9.89923e-07
7.95642e-07
5.23358e-07
-9.18857e-07
3.58251e-08
-6.49342e-07
3.52983e-07
-1.60467e-07
8.66201e-07
-1.71606e-07
4.59612e-07
-6.48521e-07
1.18127e-06
3.26251e-05
-0.000110691
1.38359e-05
-0.000200331
4.80411e-06
6.60367e-05
1.78723e-05
6.66645e-05
1.84328e-06
-3.34292e-05
-5.05086e-06
-0.000103323
8.50566e-06
2.05591e-05
-2.84698e-06
7.54926e-05
-1.21021e-06
-0.000153767
6.63294e-06
-0.000313464
2.28593e-05
-0.000169565
3.47815e-06
-7.2929e-06
-7.06694e-06
-6.43761e-06
-1.37795e-05
9.98423e-05
7.61772e-06
0.000280122
7.00102e-06
0.000181363
1.73024e-05
8.39768e-05
1.86816e-06
7.64313e-05
5.35368e-06
-4.202e-05
1.43471e-05
-0.000124891
-1.76763e-05
0.00018995
-1.51608e-05
0.000219275
-7.58721e-06
7.01004e-05
-1.66677e-06
2.62386e-05
1.95073e-05
-0.000140031
1.55515e-06
-0.000162913
8.87987e-07
-3.82408e-05
-6.01525e-06
5.60549e-06
3.44263e-06
-2.65488e-06
4.11475e-06
-3.18658e-06
4.6136e-06
5.77233e-06
2.91441e-06
2.45584e-06
6.51809e-06
-6.19637e-06
6.33963e-06
-5.2437e-06
7.46095e-07
3.11748e-06
-8.43574e-06
1.53244e-07
-1.03212e-05
-6.02238e-06
6.57316e-06
1.64344e-06
2.97726e-06
9.58922e-06
-1.4883e-05
6.32756e-06
-9.29672e-06
-5.49063e-06
9.97278e-06
-4.2029e-06
6.08587e-06
-1.31783e-08
-8.02083e-06
2.68265e-06
8.2944e-06
-2.25056e-06
3.10375e-06
1.8189e-06
-3.30039e-06
1.03679e-05
5.8718e-07
3.80384e-06
-5.84436e-06
-3.48057e-07
-1.01044e-05
-4.25725e-06
-7.13354e-07
-8.1552e-06
7.44e-06
8.82956e-07
1.55809e-06
1.82293e-06
-7.55879e-06
-1.61453e-06
-2.05444e-06
-3.91087e-06
-1.00857e-05
-9.62399e-07
-1.53231e-06
2.01799e-06
2.14992e-06
-9.06813e-07
2.63211e-06
-1.45233e-06
1.78377e-06
1.23299e-07
3.40311e-06
2.54655e-06
3.1739e-06
3.34524e-06
1.10057e-06
-1.30725e-06
-3.77558e-06
-2.45785e-06
-4.6897e-06
2.82329e-07
3.73555e-06
2.65037e-06
1.91087e-06
-1.23352e-06
-7.128e-06
-3.64609e-06
-5.06269e-06
-1.16342e-06
4.29606e-06
1.95298e-06
2.95559e-06
-1.05203e-06
-3.85945e-06
1.17007e-06
4.0618e-06
3.15725e-06
1.23137e-06
2.50762e-06
-2.04921e-06
1.93476e-06
6.84512e-07
1.29699e-06
-3.03248e-06
-3.25292e-06
-5.55097e-06
-2.18899e-06
-1.54738e-06
6.2804e-07
3.17049e-06
1.31477e-06
1.57661e-06
-1.64997e-07
-3.3258e-06
6.57289e-08
-1.38754e-06
-1.5617e-06
-5.36891e-06
-5.033e-07
-1.29881e-06
1.67898e-06
5.54541e-07
-8.13489e-07
1.21175e-06
-7.85975e-07
4.15154e-07
-7.33278e-08
1.28883e-06
1.19443e-06
9.47221e-07
2.01919e-06
3.70205e-07
-6.4908e-07
-1.09971e-06
-1.71338e-06
-1.45359e-06
5.52792e-07
7.84509e-07
2.89884e-06
3.10056e-07
-2.98623e-08
-1.51709e-06
-2.37363e-06
-1.20717e-06
-9.24847e-07
1.17183e-06
1.10408e-06
9.15477e-07
-1.07072e-06
-9.6073e-07
8.7517e-07
1.27858e-06
2.02202e-06
3.6713e-07
1.41175e-06
-6.67539e-07
1.99095e-06
-3.00462e-07
1.5263e-06
-1.21685e-06
-2.26147e-06
-1.74988e-06
-2.40232e-06
-5.95766e-07
-4.2653e-07
5.44151e-07
9.74536e-07
7.42069e-08
2.31926e-07
-1.09975e-06
7.75715e-09
-3.07565e-07
-1.3328e-06
-1.67585e-06
-1.5906e-07
-9.62818e-07
8.68358e-07
-5.45091e-07
-7.30803e-07
-8.20406e-08
5.23898e-07
9.12268e-07
-1.95343e-07
-5.37583e-07
1.8642e-07
8.89913e-07
6.67656e-08
-7.80105e-07
-3.31618e-07
5.77327e-07
-3.55885e-08
9.5446e-07
1.53094e-06
1.27624e-06
1.13316e-06
7.15974e-07
-1.03477e-06
-1.10353e-06
-5.34761e-07
-1.17157e-07
-3.59129e-07
-2.12175e-07
-7.07383e-07
2.02866e-05
0.000226473
3.59529e-06
0.000113241
4.71941e-06
2.70077e-05
6.77222e-06
7.81557e-06
3.82909e-07
1.56477e-06
-1.60678e-06
-1.21437e-07
)
;

boundaryField
{
    top_fluid_surface
    {
        type            calculated;
        value           nonuniform List<scalar> 
64
(
-0.000179985
-0.000351894
-0.000229208
0.000169126
0.000291402
-1.46069e-07
0.000189709
0.000239232
-9.05889e-05
-0.00018233
-0.000279753
0.000348946
0.000403372
-6.80019e-05
-0.000142619
-0.000124485
1.98378e-05
0.000149562
0.000343541
0.000345355
-2.32755e-05
-0.000237433
0.00012309
0.000147077
-0.000184863
0.000185655
-2.9813e-05
7.48264e-06
0.000192861
0.000421913
0.000329586
-6.09618e-05
-5.65307e-05
0.000213745
-0.000408125
0.00010267
0.000216213
5.57359e-05
-0.000120977
-0.000158255
0.000275212
-2.44071e-05
-0.000509444
-0.000444799
-0.000127807
-0.000173379
-0.000358955
1.92272e-06
-5.91027e-05
-5.40189e-05
2.05439e-05
2.41133e-05
-0.000301062
-0.000108077
0.000217674
-1.58417e-05
0.000145826
-0.000109221
-0.000281745
-0.000154616
-0.000363101
-8.59358e-05
0.000142943
0.000254756
)
;
    }
    bottom_fluid_surface
    {
        type            calculated;
        value           uniform 0;
    }
    lateral_surface_1
    {
        type            calculated;
        value           uniform 0;
    }
    lateral_surface_2
    {
        type            calculated;
        value           uniform 0;
    }
    lateral_surface_3
    {
        type            calculated;
        value           uniform 0;
    }
    lateral_surface_4
    {
        type            calculated;
        value           uniform 0;
    }
}


// ************************************************************************* //
