/*--------------------------------*- C++ -*----------------------------------*\
| =========                 |                                                 |
| \\      /  F ield         | OpenFOAM: The Open Source CFD Toolbox           |
|  \\    /   O peration     | Version:  v1612+                                |
|   \\  /    A nd           | Web:      www.OpenFOAM.com                      |
|    \\/     M anipulation  |                                                 |
\*---------------------------------------------------------------------------*/
FoamFile
{
    version     2.0;
    format      ascii;
    class       surfaceScalarField;
    location    "4.2";
    object      alphaPhi;
}
// * * * * * * * * * * * * * * * * * * * * * * * * * * * * * * * * * * * * * //

dimensions      [0 3 -1 0 0 0 0];

internalField   nonuniform List<scalar> 
816
(
-2.05572e-06
-5.33259e-06
5.01877e-06
-1.13271e-06
-2.9082e-06
6.41046e-06
6.56544e-07
4.66358e-06
1.45175e-06
7.24964e-06
-1.60854e-05
-1.91708e-06
2.05364e-06
2.65727e-06
9.52714e-06
-1.76605e-05
7.49101e-07
3.87457e-06
4.86683e-06
-1.07754e-05
4.38457e-09
-3.33191e-09
3.31679e-06
-9.72361e-10
1.84231e-09
2.03058e-09
6.493e-10
-7.54091e-10
-3.48273e-11
-4.52407e-10
-4.68786e-06
-2.32475e-09
1.9594e-09
-8.16058e-10
2.02247e-06
-6.81274e-11
1.34053e-09
-6.26344e-10
-6.4079e-06
2.64879e-09
-5.81426e-10
2.08674e-09
-6.76745e-06
-8.95615e-10
1.8887e-10
1.24906e-09
-4.04423e-06
-8.95356e-10
3.09733e-09
8.77089e-10
5.89759e-07
-1.85549e-09
4.97843e-10
1.21423e-09
3.75784e-06
-8.85523e-10
1.1567e-09
1.23794e-09
3.22444e-06
-5.50993e-10
1.74843e-09
-8.53835e-10
-3.3031e-07
-4.24409e-10
-1.97413e-10
-3.27672e-06
1.19951e-09
-1.05799e-09
6.12517e-06
1.16808e-05
-1.60026e-05
3.32478e-06
6.77649e-06
1.51952e-05
-1.79533e-05
3.8429e-06
6.73492e-06
1.31605e-06
-7.53951e-06
1.43307e-06
1.15241e-05
1.8705e-07
8.15227e-06
2.04084e-06
-2.26079e-06
-2.9356e-06
7.15264e-06
9.16146e-07
-7.08023e-06
-9.15499e-07
-1.54207e-05
2.12504e-06
1.99218e-06
-3.96438e-06
-6.13087e-06
-2.882e-06
8.44276e-06
-4.66607e-06
6.13744e-06
-1.13504e-05
6.70184e-06
5.51117e-06
-1.85412e-05
8.05998e-06
1.39568e-05
1.83973e-05
-1.14858e-05
1.09022e-06
9.81766e-06
1.1012e-05
6.68449e-06
5.52696e-06
-5.18488e-06
-1.27311e-06
1.16706e-05
6.63785e-06
-1.11787e-07
-3.25309e-06
-8.3498e-06
7.22049e-07
-4.23436e-06
-7.02839e-06
-2.1542e-06
-2.37729e-06
-2.78531e-06
-1.95045e-06
-4.67459e-06
2.15086e-07
3.06915e-06
3.90785e-06
2.0142e-06
2.39283e-06
3.71245e-06
-1.95209e-06
-7.12549e-06
-6.26476e-07
-3.70821e-06
-1.41827e-06
-2.45816e-06
-3.36111e-07
3.65163e-07
2.91437e-06
3.4961e-06
-1.12712e-06
-8.21974e-06
-3.09205e-06
-5.74357e-06
-5.53204e-06
-5.17055e-06
7.22704e-07
-2.64712e-06
3.01361e-06
-3.63322e-07
-8.36015e-07
-4.61065e-06
-1.73577e-06
-8.06651e-07
-4.25741e-06
3.76015e-06
-9.69698e-07
-6.44518e-07
-2.19318e-08
2.87183e-06
1.19328e-06
2.38289e-06
-3.51239e-07
1.497e-06
1.59402e-06
2.51493e-06
1.01271e-06
1.65441e-06
1.81154e-06
-4.51311e-07
-1.99893e-06
4.10032e-07
-2.5613e-06
-2.39224e-06
-7.9894e-07
-1.4316e-06
-1.54399e-06
-5.48323e-07
-2.3538e-06
-7.47373e-07
3.47748e-07
2.10088e-06
2.31635e-07
1.00468e-06
2.08035e-06
6.42694e-07
-1.90675e-06
2.83957e-07
-2.43114e-06
-2.08436e-06
-1.33177e-06
-7.93533e-07
-6.05492e-07
3.63286e-10
2.38682e-06
6.63648e-07
-1.60466e-07
-2.18727e-06
-3.66387e-06
-2.23096e-06
-2.56674e-06
1.20202e-07
-1.3196e-06
-1.03942e-06
-2.91279e-07
7.94323e-07
-2.46531e-06
-1.37931e-06
-3.41539e-08
2.13028e-10
-2.74995e-10
-1.60836e-06
2.40383e-09
9.76314e-10
7.71467e-07
-2.09751e-10
-4.33346e-10
1.32309e-06
-3.47033e-10
5.07669e-10
-1.65896e-06
-1.85829e-09
2.5266e-09
-4.10986e-06
-2.56818e-09
-1.14641e-09
-5.77564e-10
-4.06454e-07
-1.1131e-09
-1.36325e-09
-6.82352e-06
-7.12962e-10
-5.22041e-09
-6.60784e-06
-9.26179e-10
-3.07416e-09
1.05724e-06
-9.05104e-10
1.09763e-09
-1.33144e-06
-1.76313e-09
-2.76869e-09
3.8565e-10
-4.63382e-06
7.56319e-11
-1.50809e-09
-1.76938e-05
-2.08244e-09
-4.13411e-10
2.28825e-06
-1.14754e-09
-4.17644e-10
2.94608e-11
-3.28478e-09
1.8931e-09
-4.47858e-06
-2.56577e-09
-6.48145e-10
-1.57762e-10
2.90432e-10
6.20089e-10
-2.55559e-09
5.01131e-07
-6.97294e-10
-2.88629e-09
-1.94572e-06
-4.07163e-10
-5.36661e-10
-6.05777e-06
8.68738e-10
-1.0887e-05
-9.64022e-10
-1.28953e-10
-8.77867e-06
-6.00684e-06
1.63075e-05
9.82219e-06
-1.65518e-06
-5.90697e-06
4.95995e-06
3.77709e-06
-8.98535e-06
9.93722e-06
-5.7339e-07
-8.06999e-07
3.83431e-06
8.27638e-06
1.43512e-05
-1.08681e-05
-1.5515e-05
2.60942e-06
1.79049e-05
-1.7748e-06
-2.6564e-06
8.26098e-06
-7.25629e-06
-1.93365e-05
3.01746e-05
-1.95077e-05
-1.39625e-05
6.60536e-06
-5.81997e-06
1.28276e-06
-1.74276e-05
9.71797e-06
-7.09179e-06
-3.888e-06
4.86492e-06
-3.86248e-07
-1.53329e-05
1.90488e-05
-1.11331e-05
8.11376e-07
-1.62151e-05
-1.91432e-06
2.37571e-06
1.21282e-05
-3.14914e-06
7.26718e-06
2.18591e-06
-9.2251e-06
-4.43279e-06
6.7938e-06
6.26328e-06
1.0275e-05
2.66052e-06
1.58535e-05
-8.6474e-06
-4.82011e-06
1.22499e-05
-4.12595e-06
-6.7747e-06
1.02055e-06
8.97784e-07
5.82634e-06
-9.21418e-06
-1.56414e-05
4.06981e-06
2.62858e-06
6.86585e-06
-1.8701e-06
1.12933e-06
-3.50359e-06
1.25772e-06
-1.07892e-06
-2.84714e-06
-6.09452e-06
1.26634e-06
-6.30247e-07
-4.49086e-06
-2.88239e-06
6.35139e-06
5.04198e-06
7.09692e-06
-5.52534e-08
8.33128e-06
2.08853e-06
4.81715e-07
3.39833e-06
8.22188e-06
6.58644e-06
1.36359e-05
1.41294e-05
7.09422e-06
2.68997e-06
2.76559e-06
-2.76243e-06
-8.39961e-06
-4.45533e-06
5.26804e-06
-2.40402e-06
2.49815e-06
-1.74639e-06
3.43327e-06
8.68782e-06
4.18297e-06
-1.17393e-06
-7.82252e-06
-2.07285e-07
-1.10472e-06
5.88052e-06
3.09216e-06
-2.9565e-06
1.63749e-06
2.00284e-06
3.93378e-07
-1.73501e-06
3.03333e-06
-3.75801e-06
1.93354e-06
7.18543e-06
5.71156e-06
3.76797e-06
5.32481e-06
4.71083e-06
1.96129e-06
-1.42468e-07
1.2192e-06
2.32292e-06
2.26603e-06
5.83041e-06
2.51307e-06
9.59408e-07
2.22992e-06
-1.3005e-06
6.80419e-07
-1.21144e-06
-6.01254e-08
-2.99361e-07
1.87389e-07
-2.87557e-06
9.29637e-07
-3.64859e-07
-2.06492e-06
-2.19477e-06
1.65928e-06
3.62671e-06
4.2092e-06
-3.09731e-07
2.57897e-06
1.48704e-06
8.26855e-08
1.24915e-06
3.8287e-06
4.09678e-06
3.67741e-06
7.98619e-06
4.546e-06
6.1422e-07
1.86109e-06
-2.64803e-06
-1.85894e-06
-2.26055e-06
2.87893e-06
-1.98055e-06
1.05912e-06
-1.69017e-06
1.65484e-06
2.75054e-06
1.57102e-06
-1.59674e-06
-1.64888e-06
-5.33191e-07
-1.34741e-06
1.79152e-06
1.63423e-06
-1.45952e-06
6.44636e-07
1.25567e-06
-1.70706e-07
-5.34056e-07
1.43151e-06
-3.01609e-06
2.06236e-06
2.20682e-06
2.48687e-06
2.88137e-06
1.55654e-06
2.63573e-06
1.18727e-06
-3.09672e-08
2.13245e-07
5.70202e-07
9.74432e-07
2.95856e-06
9.01177e-09
-1.90959e-06
1.76138e-06
-5.09957e-07
3.99298e-07
5.83138e-07
1.40135e-06
-1.55521e-07
3.02848e-07
4.45396e-07
8.28727e-07
1.19984e-06
-2.12973e-07
-1.1098e-06
5.11629e-07
-4.72985e-07
-6.04455e-07
-6.97947e-07
-1.13564e-07
-4.28814e-07
-3.68811e-07
1.26128e-06
-2.7133e-08
1.09376e-06
-1.21322e-06
4.47e-07
-1.37813e-06
-7.43978e-07
7.9763e-08
-3.64767e-07
5.5341e-07
-4.18717e-07
-5.15358e-07
-1.68504e-06
-1.33591e-06
1.5431e-08
-7.58944e-07
-2.94044e-07
-1.43678e-06
-4.65233e-07
1.18652e-06
3.9242e-07
-7.86293e-07
2.44281e-07
2.4006e-07
8.10175e-07
-1.00161e-06
9.91484e-07
-6.96573e-07
-8.97401e-07
1.22861e-06
2.29495e-06
2.099e-09
1.20943e-06
2.23353e-07
2.25701e-06
1.73937e-06
3.21778e-06
1.64773e-06
1.09897e-06
-1.29061e-06
-4.17157e-07
1.4481e-06
-1.05065e-06
-6.33417e-07
5.30602e-07
1.2256e-06
-5.31216e-07
-5.24e-08
-4.11088e-07
1.13944e-06
-6.42955e-07
7.50402e-07
1.12843e-07
-2.22347e-08
-8.94089e-07
1.04132e-06
1.15588e-06
1.36844e-06
9.31273e-07
6.17724e-07
2.6061e-07
5.27678e-07
1.06295e-06
2.82007e-09
-1.56452e-09
-8.43773e-07
4.73821e-10
-1.51485e-05
3.50545e-10
-9.22332e-06
-8.592e-10
1.84095e-06
4.85493e-10
9.66726e-07
2.84818e-10
-1.60775e-05
1.08935e-09
-8.01081e-06
2.0719e-09
2.16478e-06
-4.64402e-10
2.65179e-07
-1.05896e-09
-1.26922e-05
-2.89177e-09
-8.06431e-06
-1.97687e-09
2.22379e-06
-7.48435e-10
1.71573e-06
7.83071e-10
-1.31037e-05
1.82249e-09
-5.17373e-06
9.8975e-10
-1.73646e-05
-1.48245e-09
2.78254e-06
-1.07113e-09
1.99518e-06
-5.9844e-10
-2.88065e-06
-2.41481e-09
1.08738e-06
5.71316e-09
9.62932e-07
2.02612e-09
1.09862e-06
1.86308e-10
2.18353e-11
-6.244e-10
6.15584e-07
-6.16772e-10
-9.03232e-06
-7.81002e-10
-2.36234e-05
-1.39544e-09
4.37674e-07
6.30814e-06
1.49427e-05
-1.64752e-05
-3.65544e-06
-1.74068e-06
1.18284e-05
1.97944e-06
-1.28116e-05
2.93473e-07
1.87342e-05
-8.31822e-06
1.93281e-05
-8.49673e-06
-8.7257e-06
3.97263e-06
-2.29592e-05
1.03559e-05
-1.31675e-05
-2.10094e-06
1.16058e-05
-9.05998e-06
-1.73478e-05
4.11666e-06
-4.36751e-05
1.7797e-05
-1.0319e-05
8.49208e-06
2.18194e-05
-1.46895e-05
7.97916e-06
-5.30392e-06
-2.03598e-05
-6.60982e-06
4.92939e-06
-6.04023e-06
9.66156e-08
1.10096e-08
-5.00472e-07
2.67341e-07
-7.54167e-06
-5.09244e-06
2.13146e-07
1.46128e-05
-1.56207e-05
5.0309e-06
9.73207e-06
-3.50578e-06
2.05803e-05
6.73641e-06
-1.76391e-05
4.02079e-06
-1.20324e-05
-1.13592e-05
-1.58747e-07
-9.78663e-06
-1.25845e-05
-1.06651e-06
-1.99616e-06
2.26745e-06
-1.62452e-06
2.04215e-06
5.94944e-06
-4.51281e-06
-5.01084e-06
2.87155e-07
7.82693e-06
7.49166e-06
7.62628e-06
8.52599e-06
-4.71094e-06
-4.29147e-06
-1.01411e-05
-3.48583e-06
-6.86372e-06
5.87968e-06
4.3098e-06
3.39892e-06
-6.65985e-06
-7.58075e-06
-1.85875e-05
-9.89939e-06
-5.256e-06
-1.30387e-06
8.74284e-06
3.3264e-06
3.33393e-06
-1.77705e-06
-1.00354e-05
-2.03611e-06
3.43961e-06
1.41751e-06
8.09398e-07
5.17842e-07
1.92747e-07
-1.02701e-07
-3.83483e-06
1.82438e-06
2.74524e-07
-6.05037e-06
-7.74891e-06
-1.03032e-06
5.09351e-06
5.83424e-06
9.94864e-06
6.35659e-07
-6.73682e-06
-1.07381e-06
-5.62e-06
3.89336e-07
-4.04095e-07
-9.77528e-07
-5.38369e-06
2.33936e-07
-7.75834e-07
6.78145e-07
-5.14637e-07
1.53121e-06
2.35997e-06
-1.67836e-06
-1.86913e-06
8.19212e-07
2.436e-06
4.52466e-06
1.84834e-06
4.44915e-06
-9.35649e-07
-2.48185e-06
-3.17682e-06
-2.71344e-06
-2.4437e-06
2.44179e-06
6.02326e-07
2.19214e-06
-2.61068e-06
-3.42365e-06
-5.02015e-06
-4.95179e-06
-1.9091e-06
-8.68293e-07
2.30064e-06
1.51882e-06
9.15743e-07
-2.66658e-06
-3.01848e-06
-1.8052e-06
9.72263e-07
7.73377e-07
-2.07222e-07
4.96815e-07
-8.87625e-08
-1.86871e-07
-1.53767e-06
1.3318e-06
-8.30008e-09
-4.39063e-06
-2.038e-06
-7.48708e-07
1.26633e-06
3.76624e-06
2.40247e-06
1.49269e-06
-1.99199e-06
-1.11394e-07
-1.37167e-06
1.92726e-09
-2.60165e-07
-1.09667e-06
-1.30014e-06
-1.8037e-07
-4.41385e-07
4.69257e-07
1.13769e-06
-4.97707e-07
9.22461e-07
2.06048e-06
2.33531e-06
-8.47955e-07
-1.01747e-06
7.74886e-07
4.04171e-07
-1.42451e-06
-2.26689e-06
-4.44172e-07
4.49786e-07
-1.16547e-06
-8.30981e-07
1.80389e-07
2.65078e-08
-3.78926e-07
3.5874e-07
-1.68304e-06
-3.11182e-07
1.19283e-06
3.53226e-07
-8.72112e-08
-6.92775e-08
-2.9013e-07
-4.27195e-11
2.06844e-09
2.31292e-06
-1.53744e-09
1.4516e-11
1.74482e-09
7.22956e-12
-2.59994e-07
6.54837e-06
9.39757e-06
-1.33508e-06
1.11246e-05
)
;

boundaryField
{
    top_fluid_surface
    {
        type            calculated;
        value           nonuniform List<scalar> 
64
(
0
2.14099e-09
2.53718e-09
0
0
0
0
1.39027e-09
0
0
2.21371e-09
0
0
0
7.69929e-10
0
1.22089e-09
4.68573e-09
1.77782e-09
4.83901e-09
0
0
9.07604e-10
2.62201e-09
0
1.61095e-09
7.89271e-10
2.20421e-09
2.20591e-09
0
0
3.01445e-10
0
3.78309e-09
1.30772e-10
5.95953e-10
0
0
0
0
1.28959e-09
1.92735e-10
8.61275e-10
0
0
0
0
7.64718e-10
4.85876e-10
0
0
0
0
1.24809e-09
2.34523e-09
7.95676e-11
0
6.29316e-10
3.98576e-10
0
0
2.43329e-09
1.98684e-09
2.25386e-09
)
;
    }
    bottom_fluid_surface
    {
        type            calculated;
        value           uniform 0;
    }
    lateral_surface_1
    {
        type            calculated;
        value           uniform 0;
    }
    lateral_surface_2
    {
        type            calculated;
        value           uniform 0;
    }
    lateral_surface_3
    {
        type            calculated;
        value           uniform 0;
    }
    lateral_surface_4
    {
        type            calculated;
        value           uniform 0;
    }
}


// ************************************************************************* //
