/*--------------------------------*- C++ -*----------------------------------*\
| =========                 |                                                 |
| \\      /  F ield         | OpenFOAM: The Open Source CFD Toolbox           |
|  \\    /   O peration     | Version:  v1612+                                |
|   \\  /    A nd           | Web:      www.OpenFOAM.com                      |
|    \\/     M anipulation  |                                                 |
\*---------------------------------------------------------------------------*/
FoamFile
{
    version     2.0;
    format      ascii;
    class       volScalarField;
    location    "4.2";
    object      p;
}
// * * * * * * * * * * * * * * * * * * * * * * * * * * * * * * * * * * * * * //

dimensions      [1 -1 -2 0 0 0 0];

internalField   nonuniform List<scalar> 
320
(
14724.8
14724.8
14724.8
14724.8
4.95569
4.95557
4.95688
4.95698
4.95699
4.9566
4.95545
4.95464
4.95416
4.95449
4.95537
4.95639
4914.86
4914.79
4914.8
4914.87
4914.88
4914.85
4914.84
4914.82
4914.83
4914.84
4914.83
4914.87
14724.8
14724.8
14724.8
14724.8
14724.8
14724.8
14724.8
14724.8
14724.8
14724.8
14724.8
14724.8
24534.8
24534.8
24534.8
24534.8
24534.8
24534.8
24534.8
24534.8
24534.8
24534.8
24534.8
24534.8
24534.8
24534.8
24534.8
24534.8
4.95695
4.95635
4.95608
4.95739
4.95655
4.95664
4.95748
4.95708
4.95666
4.95687
4.95636
4.95514
4.95368
4.95414
4.95444
4.95458
4.95486
4.95624
4.957
4.95731
4914.89
4914.87
4914.81
4914.86
4914.84
4914.81
4914.83
4914.82
4914.86
4914.87
4914.84
4914.83
4914.85
4914.83
4914.82
4914.82
4914.83
4914.87
4914.88
4914.86
14724.8
14724.8
14724.8
14724.8
14724.8
14724.8
14724.8
14724.8
14724.8
14724.8
14724.8
14724.8
14724.8
14724.8
14724.8
14724.8
14724.8
14724.8
14724.8
14724.8
24534.8
24534.8
24534.8
24534.8
24534.8
24534.8
24534.8
24534.8
24534.8
24534.8
24534.8
24534.8
24534.8
24534.8
24534.8
24534.8
24534.8
24534.8
24534.8
24534.8
34344.8
34344.8
34344.8
34344.8
34344.8
34344.8
34344.8
34344.8
34344.8
34344.8
34344.8
34344.8
34344.8
34344.8
34344.8
34344.8
34344.8
34344.8
34344.8
34344.8
34344.8
34344.8
34344.8
34344.8
34344.8
34344.8
34344.8
34344.8
34344.8
34344.8
34344.8
34344.8
34344.8
34344.8
34344.8
34344.8
4.95631
4.95749
4.95699
4.9563
4.95718
4.95722
4.96069
4.95417
4.95653
4.95802
4.95736
4.95695
4.95744
4.9559
4.95848
4.95598
4.95769
4.95251
4.95449
4.95413
4.95413
4.95361
4.95453
4.95458
4.95715
4.95834
4.95952
4.95508
4914.86
4914.83
4914.82
4914.86
4914.9
4914.88
4914.85
4914.85
4914.84
4914.78
4914.79
4914.87
4914.91
4914.9
4914.89
4914.8
4914.8
4914.84
4914.87
4914.87
4914.89
4914.81
4914.81
4914.79
4914.87
4914.83
4914.82
4914.87
14724.8
14724.8
14724.8
14724.8
14724.8
14724.8
14724.8
14724.8
14724.8
14724.8
14724.8
14724.8
14724.8
14724.8
14724.8
14724.8
14724.8
14724.8
14724.8
14724.8
14724.8
14724.8
14724.8
14724.8
14724.8
14724.8
14724.8
14724.8
24534.8
24534.8
24534.8
24534.8
24534.8
24534.8
24534.8
24534.8
24534.8
24534.8
24534.8
24534.8
24534.8
24534.8
24534.8
24534.8
24534.8
24534.8
24534.8
24534.8
24534.8
24534.8
24534.8
24534.8
24534.8
24534.8
24534.8
24534.8
34344.8
34344.8
34344.8
34344.8
34344.8
34344.8
34344.8
34344.8
34344.8
34344.8
34344.8
34344.8
34344.8
34344.8
34344.8
34344.8
34344.8
34344.8
34344.8
34344.8
34344.8
34344.8
34344.8
34344.8
34344.8
34344.8
34344.8
34344.8
4.95542
4.95568
4.95497
4.95553
4914.84
4914.82
4914.79
4914.83
)
;

boundaryField
{
    top_fluid_surface
    {
        type            calculated;
        value           nonuniform List<scalar> 
64
(
-8.05855e-09
0
0
-1.27683e-09
-3.57435e-09
-3.61579e-09
-1.65873e-09
0
-1.4465e-09
-2.80467e-09
0
-1.44889e-08
-1.058e-09
-2.82056e-09
0
-2.24125e-09
0
0
0
0
-3.44452e-09
-3.00308e-10
0
0
-4.86049e-09
0
0
0
0
-4.89278e-13
-1.24892e-08
0
-5.1023e-09
0
0
0
-9.08002e-09
-5.33273e-09
-4.00167e-09
-5.80132e-09
0
0
0
-6.11709e-09
-6.81011e-09
-1.02194e-10
-1.56365e-08
0
-1.91184e-09
-2.09366e-09
-1.32792e-08
-2.08731e-09
-5.4032e-08
0
0
0
-1.91891e-11
0
-1.02877e-09
-1.25126e-08
-7.45154e-10
0
0
0
)
;
    }
    bottom_fluid_surface
    {
        type            calculated;
        value           nonuniform List<scalar> 
64
(
39249.8
39249.8
39249.8
39249.8
39249.8
39249.8
39249.8
39249.8
39249.8
39249.8
39249.8
39249.8
39249.8
39249.8
39249.8
39249.8
39249.8
39249.8
39249.8
39249.8
39249.8
39249.8
39249.8
39249.8
39249.8
39249.8
39249.8
39249.8
39249.8
39249.8
39249.8
39249.8
39249.8
39249.8
39249.8
39249.8
39249.8
39249.8
39249.8
39249.8
39249.8
39249.8
39249.8
39249.8
39249.8
39249.8
39249.8
39249.8
39249.8
39249.8
39249.8
39249.8
39249.8
39249.8
39249.8
39249.8
39249.8
39249.8
39249.8
39249.8
39249.8
39249.8
39249.8
39249.8
)
;
    }
    lateral_surface_1
    {
        type            calculated;
        value           nonuniform List<scalar> 
40
(
4.95631
4.95749
4.95699
4.9563
4.95718
4.95722
4.96069
4.95508
4914.86
4914.83
4914.82
4914.86
4914.9
4914.88
4914.85
4914.87
14724.8
14724.8
14724.8
14724.8
14724.8
14724.8
14724.8
14724.8
24534.8
24534.8
24534.8
24534.8
24534.8
24534.8
24534.8
24534.8
34344.8
34344.8
34344.8
34344.8
34344.8
34344.8
34344.8
34344.8
)
;
    }
    lateral_surface_2
    {
        type            calculated;
        value           nonuniform List<scalar> 
40
(
4.9559
4.95848
4.95598
4.95769
4.95251
4.95449
4.95413
4.95413
4914.9
4914.89
4914.8
4914.8
4914.84
4914.87
4914.87
4914.89
14724.8
14724.8
14724.8
14724.8
14724.8
14724.8
14724.8
14724.8
24534.8
24534.8
24534.8
24534.8
24534.8
24534.8
24534.8
24534.8
34344.8
34344.8
34344.8
34344.8
34344.8
34344.8
34344.8
34344.8
)
;
    }
    lateral_surface_3
    {
        type            calculated;
        value           nonuniform List<scalar> 
40
(
4.96069
4.95417
4.95653
4.95802
4.95736
4.95695
4.95744
4.9559
4914.85
4914.85
4914.84
4914.78
4914.79
4914.87
4914.91
4914.9
14724.8
14724.8
14724.8
14724.8
14724.8
14724.8
14724.8
14724.8
24534.8
24534.8
24534.8
24534.8
24534.8
24534.8
24534.8
24534.8
34344.8
34344.8
34344.8
34344.8
34344.8
34344.8
34344.8
34344.8
)
;
    }
    lateral_surface_4
    {
        type            calculated;
        value           nonuniform List<scalar> 
40
(
4.95413
4.95361
4.95453
4.95458
4.95715
4.95834
4.95952
4.95508
4914.89
4914.81
4914.81
4914.79
4914.87
4914.83
4914.82
4914.87
14724.8
14724.8
14724.8
14724.8
14724.8
14724.8
14724.8
14724.8
24534.8
24534.8
24534.8
24534.8
24534.8
24534.8
24534.8
24534.8
34344.8
34344.8
34344.8
34344.8
34344.8
34344.8
34344.8
34344.8
)
;
    }
}


// ************************************************************************* //
