/*--------------------------------*- C++ -*----------------------------------*\
| =========                 |                                                 |
| \\      /  F ield         | OpenFOAM: The Open Source CFD Toolbox           |
|  \\    /   O peration     | Version:  v1612+                                |
|   \\  /    A nd           | Web:      www.OpenFOAM.com                      |
|    \\/     M anipulation  |                                                 |
\*---------------------------------------------------------------------------*/
FoamFile
{
    version     2.0;
    format      ascii;
    class       volScalarField;
    location    "1.5";
    object      alpha.water;
}
// * * * * * * * * * * * * * * * * * * * * * * * * * * * * * * * * * * * * * //

dimensions      [0 0 0 0 0 0 0];

internalField   nonuniform List<scalar> 
1116
(
1
1
1
1
1
1
1
1
1
1
1
1
0.999999
0.999999
0.999999
0.999999
0.999999
0.999999
0.999985
0.999985
0.999985
0.999985
0.999985
0.999985
0.99986
0.99986
0.99986
0.99986
0.99986
0.99986
0.990614
0.990613
0.990613
0.990613
0.990613
0.990614
0.934364
0.934354
0.934355
0.934356
0.934356
0.934359
0.876432
0.876418
0.876419
0.876421
0.876421
0.876425
0.811604
0.811597
0.811599
0.811601
0.811599
0.811602
0.489446
0.489481
0.489484
0.489485
0.48948
0.489458
0.0225332
0.0225442
0.0225442
0.0225442
0.0225437
0.0225366
0.00614297
0.00614364
0.00614436
0.0061444
0.00614352
0.00614265
1
1
1
1
1
1
0.999999
0.999999
0.999999
0.999999
0.999999
0.999999
0.999985
0.999985
0.999985
0.999985
0.999985
0.999985
0.989893
0.989895
0.989895
0.989895
0.989895
0.989897
0.837314
0.837312
0.837314
0.837315
0.837315
0.837317
0.540143
0.540132
0.540138
0.54014
0.54014
0.540145
0.153911
0.153897
0.153901
0.153905
0.153904
0.153908
3.77874e-06
3.77905e-06
3.77917e-06
3.77924e-06
3.77942e-06
3.77962e-06
1.05186e-06
1.0519e-06
1.05196e-06
1.05197e-06
1.05199e-06
1.05203e-06
0.000165893
0.000165896
0.000165893
0.000165875
0.000165878
0.000165875
0.012028
0.0120265
0.0120266
0.0120266
0.012026
0.0120277
0.00698613
0.00698784
0.00698794
0.00698795
0.00698796
0.00698577
0.999999
0.999999
0.999999
0.999999
0.999999
0.999999
0.999949
0.999949
0.999949
0.999949
0.999949
0.999949
0.872292
0.872299
0.872301
0.872301
0.872301
0.872307
0.453181
0.45319
0.453195
0.453195
0.453197
0.453206
0.0282715
0.0282725
0.028275
0.0282755
0.0282763
0.0282803
1.24516e-06
1.24546e-06
1.24562e-06
1.2457e-06
1.24576e-06
1.24584e-06
-2.65478e-06
-2.65404e-06
-2.6543e-06
-2.65455e-06
-2.65462e-06
-2.65488e-06
-5.00373e-08
-5.00289e-08
-5.00469e-08
-5.00522e-08
-5.00512e-08
-5.00526e-08
5.39847e-07
5.39858e-07
5.39902e-07
5.39918e-07
5.39914e-07
5.39933e-07
0.000313999
0.000313912
0.000313943
0.000313942
0.000313812
0.000313873
0.00311084
0.00311066
0.00311058
0.0031106
0.00311056
0.00311063
0.00270204
0.0027024
0.00270225
0.00270223
0.00270241
0.00270183
0.999949
0.999949
0.999949
0.999949
0.999949
0.999949
0.721195
0.721199
0.721199
0.7212
0.721199
0.721205
0.131114
0.131119
0.131121
0.131122
0.131122
0.131128
1.72831e-07
1.72721e-07
1.72708e-07
1.7268e-07
1.72666e-07
1.72682e-07
1.57873e-07
1.57856e-07
1.57847e-07
1.57837e-07
1.57833e-07
1.57828e-07
6.93577e-11
6.94011e-11
6.93611e-11
6.93217e-11
6.92848e-11
6.91457e-11
3.02231e-09
3.0253e-09
3.02426e-09
3.02241e-09
3.01971e-09
3.01427e-09
1.52362e-08
1.525e-08
1.52519e-08
1.52541e-08
1.5263e-08
1.52577e-08
2.93047e-06
2.93055e-06
2.92995e-06
2.92938e-06
2.92957e-06
2.92959e-06
2.26604e-05
2.26659e-05
2.26662e-05
2.2666e-05
2.26592e-05
2.26571e-05
1.50247e-05
1.50269e-05
1.50273e-05
1.50271e-05
1.50228e-05
1.5023e-05
3.20651e-05
3.2072e-05
3.20713e-05
3.20709e-05
3.20725e-05
3.20657e-05
1.49823e-67
1.50067e-67
1.5006e-67
1.50083e-67
1.50148e-67
1.49944e-67
3.02249e-63
3.02728e-63
3.02717e-63
3.02763e-63
3.02902e-63
3.02504e-63
2.92774e-59
2.93224e-59
2.93215e-59
2.93261e-59
2.93402e-59
2.9303e-59
1.79433e-55
1.79702e-55
1.79699e-55
1.79728e-55
1.7982e-55
1.79601e-55
7.75549e-52
7.76701e-52
7.76695e-52
7.76837e-52
7.77263e-52
7.7636e-52
2.50705e-48
2.51079e-48
2.51081e-48
2.51133e-48
2.5128e-48
2.51005e-48
6.30315e-45
6.31268e-45
6.31286e-45
6.3143e-45
6.31826e-45
6.31176e-45
1.27117e-41
1.27313e-41
1.27319e-41
1.2735e-41
1.27434e-41
1.27311e-41
2.14025e-38
2.14364e-38
2.14376e-38
2.1443e-38
2.14575e-38
2.14378e-38
3.23166e-35
3.23686e-35
3.23703e-35
3.23785e-35
3.24007e-35
3.23719e-35
4.32617e-32
4.33399e-32
4.33422e-32
4.33501e-32
4.33749e-32
4.333e-32
4.29187e-29
4.29959e-29
4.2995e-29
4.29976e-29
4.30139e-29
4.29569e-29
5.24188e-64
5.24961e-64
5.24913e-64
5.2498e-64
5.25207e-64
5.245e-64
1.04536e-59
1.04685e-59
1.04676e-59
1.04689e-59
1.04737e-59
1.04601e-59
9.95664e-56
9.97034e-56
9.96949e-56
9.97081e-56
9.97565e-56
9.96314e-56
5.95409e-52
5.96204e-52
5.96156e-52
5.9624e-52
5.96548e-52
5.95832e-52
2.48736e-48
2.49062e-48
2.49043e-48
2.49083e-48
2.4922e-48
2.48937e-48
7.6953e-45
7.70535e-45
7.70487e-45
7.70624e-45
7.71081e-45
7.70259e-45
1.84247e-41
1.84489e-41
1.84481e-41
1.84518e-41
1.84635e-41
1.8445e-41
3.58148e-38
3.58628e-38
3.58616e-38
3.58695e-38
3.58933e-38
3.58597e-38
5.96053e-35
5.96872e-35
5.9686e-35
5.96993e-35
5.97398e-35
5.96862e-35
8.91838e-32
8.9311e-32
8.93096e-32
8.93283e-32
8.93876e-32
8.93077e-32
1.10532e-28
1.10719e-28
1.10718e-28
1.10732e-28
1.10787e-28
1.10664e-28
8.21459e-26
8.22842e-26
8.22799e-26
8.22819e-26
8.2309e-26
8.21963e-26
2.9729e-60
2.97739e-60
2.97714e-60
2.97745e-60
2.97863e-60
2.97445e-60
6.20192e-56
6.21103e-56
6.21052e-56
6.21116e-56
6.21377e-56
6.20526e-56
6.13639e-52
6.14516e-52
6.14464e-52
6.14527e-52
6.14794e-52
6.13971e-52
3.76525e-48
3.77052e-48
3.77019e-48
3.77059e-48
3.77229e-48
3.76736e-48
1.58301e-44
1.5852e-44
1.58506e-44
1.58523e-44
1.58597e-44
1.58395e-44
4.78237e-41
4.78898e-41
4.78857e-41
4.78912e-41
4.79142e-41
4.78546e-41
1.06113e-37
1.06261e-37
1.06252e-37
1.06264e-37
1.06316e-37
1.06186e-37
1.73008e-34
1.73253e-34
1.7324e-34
1.73258e-34
1.73342e-34
1.73131e-34
2.082e-31
2.08502e-31
2.08486e-31
2.08506e-31
2.08604e-31
2.0835e-31
1.93245e-28
1.93533e-28
1.93519e-28
1.93534e-28
1.93622e-28
1.93387e-28
1.57117e-25
1.57365e-25
1.57356e-25
1.57362e-25
1.5742e-25
1.57217e-25
7.18979e-23
7.20111e-23
7.20052e-23
7.20039e-23
7.20231e-23
7.19211e-23
1.91163e-57
1.91462e-57
1.91451e-57
1.91471e-57
1.91547e-57
1.91275e-57
4.30898e-53
4.31562e-53
4.31538e-53
4.31583e-53
4.31762e-53
4.31161e-53
4.54872e-49
4.55563e-49
4.55537e-49
4.55585e-49
4.55777e-49
4.55153e-49
2.91766e-45
2.92206e-45
2.92189e-45
2.92219e-45
2.92345e-45
2.9195e-45
1.24549e-41
1.24736e-41
1.24729e-41
1.24742e-41
1.24796e-41
1.2463e-41
3.68873e-38
3.69432e-38
3.69409e-38
3.69445e-38
3.69607e-38
3.69118e-38
7.80339e-35
7.81527e-35
7.81475e-35
7.81544e-35
7.81881e-35
7.80846e-35
1.22079e-31
1.22265e-31
1.22256e-31
1.22265e-31
1.22315e-31
1.22152e-31
1.46718e-28
1.46939e-28
1.46927e-28
1.46933e-28
1.46989e-28
1.46792e-28
1.40493e-25
1.40701e-25
1.40688e-25
1.4069e-25
1.40739e-25
1.40549e-25
1.08999e-22
1.09154e-22
1.09142e-22
1.09142e-22
1.09175e-22
1.09027e-22
2.92564e-20
2.92974e-20
2.9294e-20
2.92925e-20
2.92988e-20
2.92575e-20
0.852514
0.852515
0.852516
0.852516
0.852515
0.85252
0.331749
0.331751
0.331752
0.331751
0.33175
0.331755
0.0232248
0.0232254
0.0232256
0.0232253
0.0232251
0.0232267
0.00619785
0.0061979
0.00619796
0.00619854
0.00619853
0.00620021
2.5411e-23
2.43522e-23
2.5411e-23
2.43522e-23
2.5411e-23
2.32934e-23
-5.41999e-13
-5.93704e-13
-6.09398e-13
-5.95833e-13
-5.92323e-13
-6.06434e-13
1.85442e-07
1.85456e-07
1.85466e-07
1.85462e-07
1.85454e-07
1.85438e-07
3.67297e-18
3.55576e-18
3.38099e-18
3.1371e-18
3.67267e-18
3.67199e-18
-2.84895e-12
-3.1207e-12
-3.20319e-12
-3.1319e-12
-3.11346e-12
-3.18766e-12
2.88272e-07
2.88265e-07
2.88257e-07
2.88248e-07
2.88255e-07
2.8827e-07
1.07155e-05
1.07154e-05
1.0716e-05
1.07158e-05
1.07155e-05
1.0715e-05
-1.24402e-11
-1.36264e-11
-1.39865e-11
-1.36752e-11
-1.35948e-11
-1.39187e-11
3.47295e-09
3.46959e-09
3.47087e-09
3.47057e-09
3.47425e-09
3.47772e-09
2.21912e-05
2.21913e-05
2.21913e-05
2.21914e-05
2.21914e-05
2.21915e-05
-2.48755e-15
-2.95268e-15
-3.33538e-15
-3.18073e-15
-3.0289e-15
3.64271e-29
-2.23561e-12
-2.23855e-12
-2.23791e-12
-2.23656e-12
-2.23469e-12
-2.2307e-12
-2.1741e-16
-2.17434e-16
-2.17404e-16
-2.17415e-16
-2.17449e-16
6.06227e-17
1.80251e-17
1.80254e-17
1.80252e-17
1.80254e-17
1.80259e-17
1.80193e-17
3.78771e-09
3.79277e-09
3.79114e-09
3.78765e-09
3.78239e-09
3.77238e-09
2.14878e-15
2.14971e-15
2.14978e-15
2.15018e-15
2.15081e-15
2.15049e-15
5.67593e-18
5.67467e-18
5.67558e-18
5.67691e-18
5.67888e-18
5.68172e-18
7.41971e-08
7.42175e-08
7.42062e-08
7.42e-08
7.42085e-08
7.41813e-08
2.5675e-13
2.56834e-13
2.5684e-13
2.56889e-13
2.56964e-13
2.569e-13
-1.70408e-17
-1.70107e-17
-1.70216e-17
-1.70598e-17
-1.71172e-17
-1.65427e-17
1.81537e-07
1.81522e-07
1.81503e-07
1.81522e-07
1.81535e-07
1.81563e-07
2.6759e-11
2.67647e-11
2.6765e-11
2.67698e-11
2.67769e-11
2.67731e-11
2.53878e-13
2.53961e-13
2.53969e-13
2.54017e-13
2.54089e-13
2.54028e-13
1.78979e-06
1.78957e-06
1.78945e-06
1.78945e-06
1.78953e-06
1.78992e-06
1.76139e-08
1.75843e-08
1.75845e-08
1.75926e-08
1.76014e-08
1.76308e-08
2.63863e-11
2.63925e-11
2.63928e-11
2.63975e-11
2.64044e-11
2.64002e-11
1.05751e-06
1.05756e-06
1.05755e-06
1.05761e-06
1.0576e-06
1.05771e-06
5.07078e-08
5.07151e-08
5.07159e-08
5.07214e-08
5.07267e-08
5.07273e-08
2.0856e-09
2.08586e-09
2.08585e-09
2.08617e-09
2.0866e-09
2.08651e-09
2.42709e-06
2.42814e-06
2.42799e-06
2.42793e-06
2.42819e-06
2.42691e-06
1.95579e-07
1.95662e-07
1.95666e-07
1.95676e-07
1.95711e-07
1.95647e-07
1.72834e-08
1.72932e-08
1.72931e-08
1.72943e-08
1.72983e-08
1.72894e-08
6.52864e-17
6.53664e-17
6.53562e-17
6.53574e-17
6.53806e-17
6.52956e-17
4.69177e-17
4.69598e-17
4.69576e-17
4.69589e-17
4.69698e-17
4.69254e-17
4.401e-17
4.40574e-17
4.40568e-17
4.40585e-17
4.40701e-17
4.40212e-17
1.16373e-15
1.16452e-15
1.1644e-15
1.16432e-15
1.16439e-15
1.16344e-15
3.50326e-15
3.50526e-15
3.50527e-15
3.50529e-15
3.50558e-15
3.5035e-15
1.39009e-15
1.39165e-15
1.39161e-15
1.39166e-15
1.39204e-15
1.39041e-15
4.03808e-14
4.04124e-14
4.0403e-14
4.03943e-14
4.03912e-14
4.03418e-14
1.4539e-13
1.45513e-13
1.45513e-13
1.45518e-13
1.45547e-13
1.45422e-13
1.61821e-13
1.61983e-13
1.61978e-13
1.61983e-13
1.62025e-13
1.61854e-13
2.88963e-12
2.89149e-12
2.89078e-12
2.89012e-12
2.88977e-12
2.88653e-12
9.43208e-12
9.44042e-12
9.44019e-12
9.44044e-12
9.44257e-12
9.43369e-12
8.38272e-12
8.39003e-12
8.38975e-12
8.39002e-12
8.39216e-12
8.38445e-12
2.13404e-08
2.13527e-08
2.13495e-08
2.13473e-08
2.13485e-08
2.13297e-08
1.99757e-08
1.99923e-08
1.99908e-08
1.99908e-08
1.99957e-08
1.99767e-08
1.74142e-10
1.74428e-10
1.74426e-10
1.74449e-10
1.7456e-10
1.74291e-10
3.26239e-06
3.26403e-06
3.26379e-06
3.26368e-06
3.26409e-06
3.26204e-06
5.99604e-07
5.99971e-07
5.99945e-07
5.99954e-07
6.00074e-07
5.9969e-07
2.64598e-09
2.64677e-09
2.64731e-09
2.64787e-09
2.64862e-09
2.64925e-09
3.04562e-54
3.05039e-54
3.05026e-54
3.05059e-54
3.05176e-54
3.04725e-54
8.67991e-57
8.69428e-57
8.69396e-57
8.69502e-57
8.69865e-57
8.68492e-57
3.10136e-60
3.10654e-60
3.10646e-60
3.10685e-60
3.10814e-60
3.10323e-60
9.37628e-50
9.39079e-50
9.39035e-50
9.39131e-50
9.39497e-50
9.3812e-50
4.1316e-52
4.13842e-52
4.13825e-52
4.13874e-52
4.14051e-52
4.13399e-52
1.68703e-55
1.68983e-55
1.68978e-55
1.68999e-55
1.69071e-55
1.68805e-55
1.3421e-45
1.34414e-45
1.34407e-45
1.34419e-45
1.34471e-45
1.34275e-45
9.44089e-48
9.45636e-48
9.45591e-48
9.45697e-48
9.46106e-48
9.44613e-48
4.6721e-51
4.67983e-51
4.67965e-51
4.68021e-51
4.68223e-51
4.67485e-51
1.14988e-41
1.15161e-41
1.15153e-41
1.15162e-41
1.15207e-41
1.15039e-41
1.31855e-43
1.3207e-43
1.32063e-43
1.32077e-43
1.32135e-43
1.31926e-43
8.34361e-47
8.35736e-47
8.35697e-47
8.35795e-47
8.36162e-47
8.34843e-47
6.37236e-38
6.38179e-38
6.38126e-38
6.38172e-38
6.38414e-38
6.37488e-38
1.20754e-39
1.2095e-39
1.20943e-39
1.20955e-39
1.21008e-39
1.20816e-39
1.02597e-42
1.02766e-42
1.0276e-42
1.02772e-42
1.02817e-42
1.02654e-42
2.31808e-34
2.32146e-34
2.32123e-34
2.32137e-34
2.32224e-34
2.31887e-34
7.34809e-36
7.35994e-36
7.35944e-36
7.36012e-36
7.36328e-36
7.35156e-36
8.76527e-39
8.7796e-39
8.77907e-39
8.77998e-39
8.78383e-39
8.76982e-39
5.40094e-31
5.40868e-31
5.40805e-31
5.4083e-31
5.41026e-31
5.40242e-31
2.92838e-32
2.93303e-32
2.93281e-32
2.93304e-32
2.93426e-32
2.92959e-32
5.09673e-35
5.10497e-35
5.10461e-35
5.10507e-35
5.10726e-35
5.09907e-35
7.67423e-28
7.68491e-28
7.68391e-28
7.68412e-28
7.68678e-28
7.67568e-28
7.43447e-29
7.44593e-29
7.44537e-29
7.44584e-29
7.4488e-29
7.43708e-29
1.93854e-31
1.94161e-31
1.94147e-31
1.94162e-31
1.94243e-31
1.93932e-31
6.26745e-25
6.27588e-25
6.27498e-25
6.27505e-25
6.2771e-25
6.26811e-25
1.15852e-25
1.16024e-25
1.16016e-25
1.16022e-25
1.16066e-25
1.15889e-25
4.57083e-28
4.57792e-28
4.57759e-28
4.5779e-28
4.57977e-28
4.57255e-28
2.78939e-22
2.793e-22
2.79258e-22
2.79255e-22
2.79338e-22
2.78944e-22
1.05523e-22
1.05671e-22
1.05666e-22
1.05671e-22
1.05707e-22
1.05554e-22
6.30052e-25
6.31e-25
6.3096e-25
6.30999e-25
6.31248e-25
6.30277e-25
6.46872e-20
6.47665e-20
6.47561e-20
6.47535e-20
6.47696e-20
6.46795e-20
5.30902e-20
5.31592e-20
5.31574e-20
5.31594e-20
5.31759e-20
5.31044e-20
4.88568e-22
4.8927e-22
4.89246e-22
4.89274e-22
4.89454e-22
4.88732e-22
7.2034e-18
7.21144e-18
7.21014e-18
7.20946e-18
7.21054e-18
7.20073e-18
1.36907e-17
1.37067e-17
1.37064e-17
1.37068e-17
1.37104e-17
1.36938e-17
2.0999e-19
2.10271e-19
2.10264e-19
2.10275e-19
2.10345e-19
2.10056e-19
)
;

boundaryField
{
    seabed_topleft_surface
    {
        type            zeroGradient;
    }
    seabed_topright_surface
    {
        type            zeroGradient;
    }
    breakwater_top_surface
    {
        type            zeroGradient;
    }
    breakwater_left_surface
    {
        type            zeroGradient;
    }
    breakwater_right_surface
    {
        type            zeroGradient;
    }
    water_front_surface
    {
        type            zeroGradient;
    }
    water_back_surface
    {
        type            zeroGradient;
    }
    water_left_surface
    {
        type            zeroGradient;
    }
    water_right_surface
    {
        type            zeroGradient;
    }
    water_top_surface
    {
        type            inletOutlet;
        inletValue      uniform 0;
        value           nonuniform List<scalar> 
180
(
0.0232248
0.0232254
0.0232256
0.0232253
0.0232251
0.0232267
0
0
0
0
0
0
0
0
0
0
0
0
0
0
0
0
0
0
0
0
0
0
0
0
0
0
0
0
0
0
0
0
0
0
0
0
0
0
0
0
0
0
2.53878e-13
2.53961e-13
2.53969e-13
2.54017e-13
2.54089e-13
2.54028e-13
2.63863e-11
2.63925e-11
2.63928e-11
2.63975e-11
2.64044e-11
2.64002e-11
2.0856e-09
2.08586e-09
2.08585e-09
2.08617e-09
2.0866e-09
2.08651e-09
1.72834e-08
1.72932e-08
1.72931e-08
1.72943e-08
1.72983e-08
1.72894e-08
4.401e-17
4.40574e-17
4.40568e-17
4.40585e-17
4.40701e-17
4.40212e-17
1.39009e-15
1.39165e-15
1.39161e-15
1.39166e-15
1.39204e-15
1.39041e-15
1.61821e-13
1.61983e-13
1.61978e-13
1.61983e-13
1.62025e-13
1.61854e-13
8.38272e-12
8.39003e-12
8.38975e-12
8.39002e-12
8.39216e-12
8.38445e-12
1.74142e-10
1.74428e-10
1.74426e-10
1.74449e-10
1.7456e-10
1.74291e-10
2.64598e-09
2.64677e-09
2.64731e-09
2.64787e-09
2.64862e-09
2.64925e-09
3.10136e-60
3.10654e-60
3.10646e-60
3.10685e-60
3.10814e-60
3.10323e-60
1.68703e-55
1.68983e-55
1.68978e-55
1.68999e-55
1.69071e-55
1.68805e-55
4.6721e-51
4.67983e-51
4.67965e-51
4.68021e-51
4.68223e-51
4.67485e-51
8.34361e-47
8.35736e-47
8.35697e-47
8.35795e-47
8.36162e-47
8.34843e-47
1.02597e-42
1.02766e-42
1.0276e-42
1.02772e-42
1.02817e-42
1.02654e-42
8.76527e-39
8.7796e-39
8.77907e-39
8.77998e-39
8.78383e-39
8.76982e-39
5.09673e-35
5.10497e-35
5.10461e-35
5.10507e-35
5.10726e-35
5.09907e-35
1.93854e-31
1.94161e-31
1.94147e-31
1.94162e-31
1.94243e-31
1.93932e-31
4.57083e-28
4.57792e-28
4.57759e-28
4.5779e-28
4.57977e-28
4.57255e-28
6.30052e-25
6.31e-25
6.3096e-25
6.30999e-25
6.31248e-25
6.30277e-25
4.88568e-22
4.8927e-22
4.89246e-22
4.89274e-22
4.89454e-22
4.88732e-22
2.0999e-19
2.10271e-19
2.10264e-19
2.10275e-19
2.10345e-19
2.10056e-19
)
;
    }
}


// ************************************************************************* //
