/*--------------------------------*- C++ -*----------------------------------*\
| =========                 |                                                 |
| \\      /  F ield         | OpenFOAM: The Open Source CFD Toolbox           |
|  \\    /   O peration     | Version:  v1612+                                |
|   \\  /    A nd           | Web:      www.OpenFOAM.com                      |
|    \\/     M anipulation  |                                                 |
\*---------------------------------------------------------------------------*/
FoamFile
{
    version     2.0;
    format      ascii;
    class       volVectorField;
    location    "1.5";
    object      U;
}
// * * * * * * * * * * * * * * * * * * * * * * * * * * * * * * * * * * * * * //

dimensions      [0 1 -1 0 0 0 0];

internalField   nonuniform List<vector> 
1116
(
(0.438167 6.45426e-08 -0.438819)
(0.438169 1.46262e-07 -0.43882)
(0.438169 3.81408e-07 -0.438821)
(0.438169 7.34923e-07 -0.438821)
(0.438169 1.20799e-06 -0.438821)
(0.438168 8.69735e-07 -0.438819)
(1.26813 9.0738e-07 -0.563345)
(1.26814 9.64982e-07 -0.563348)
(1.26814 1.63098e-06 -0.563347)
(1.26814 1.24054e-06 -0.563346)
(1.26814 1.60549e-06 -0.563346)
(1.26813 5.75056e-07 -0.563342)
(2.36329 6.37709e-07 -0.600056)
(2.3633 2.40463e-06 -0.600058)
(2.3633 2.23423e-06 -0.600055)
(2.36329 7.91356e-08 -0.600053)
(2.36329 4.7521e-07 -0.600053)
(2.36328 6.53629e-07 -0.600049)
(3.45948 -3.83037e-06 -0.640699)
(3.45949 -2.42177e-07 -0.640703)
(3.45948 -1.92877e-07 -0.640698)
(3.45948 -4.37991e-06 -0.640697)
(3.45948 -4.40667e-06 -0.640699)
(3.45946 -4.66038e-07 -0.640702)
(4.56876 -1.52191e-05 -0.591135)
(4.56876 -1.38349e-05 -0.591154)
(4.56876 -8.12056e-06 -0.591149)
(4.56876 -1.04388e-05 -0.591149)
(4.56875 -9.00672e-06 -0.591154)
(4.56874 -1.13313e-06 -0.591163)
(5.84572 -2.72248e-05 -0.567026)
(5.84572 -2.66952e-05 -0.567088)
(5.84572 -1.09265e-05 -0.567085)
(5.84572 -1.17144e-05 -0.567082)
(5.84572 -6.7041e-06 -0.567087)
(5.8457 1.06219e-06 -0.56709)
(7.0522 -3.08293e-05 -0.577311)
(7.05224 -3.15925e-05 -0.577377)
(7.05224 -1.05625e-05 -0.577376)
(7.05224 -7.33069e-06 -0.577372)
(7.05224 -6.13348e-07 -0.577371)
(7.05223 2.50876e-06 -0.577366)
(7.93172 -1.98846e-05 -0.913835)
(7.93181 -2.30633e-05 -0.913879)
(7.93181 -7.34621e-06 -0.913874)
(7.93182 -1.44402e-06 -0.91387)
(7.93183 -4.37506e-08 -0.913874)
(7.93181 -1.76823e-06 -0.913862)
(8.94801 -1.56147e-05 -1.35007)
(8.94813 -2.06314e-05 -1.35009)
(8.94812 -1.08325e-05 -1.35008)
(8.94813 -8.21778e-06 -1.35008)
(8.94815 -5.56575e-06 -1.35009)
(8.94812 -1.06431e-06 -1.35005)
(10.1503 -3.71414e-05 -1.49385)
(10.1505 -3.97231e-05 -1.4939)
(10.1505 -1.54467e-05 -1.49388)
(10.1505 -1.8447e-05 -1.49387)
(10.1505 2.67862e-06 -1.4939)
(10.1504 2.00589e-05 -1.49382)
(10.1938 -4.95636e-05 -0.522182)
(10.1942 -5.14546e-05 -0.522517)
(10.1941 -3.06057e-05 -0.522521)
(10.1941 -3.65504e-05 -0.52253)
(10.1942 -4.32209e-06 -0.522525)
(10.1939 3.24506e-05 -0.522286)
(7.88475 -0.000322217 2.68503)
(7.88544 -0.000437038 2.68449)
(7.88553 -8.52595e-05 2.68438)
(7.88556 0.000237167 2.6844)
(7.88543 0.000531974 2.68457)
(7.88511 0.000354525 2.68517)
(0.493258 6.5711e-07 -1.21177)
(0.493259 1.35098e-06 -1.21178)
(0.493257 1.01162e-06 -1.21178)
(0.493256 7.81728e-07 -1.21178)
(0.493255 4.48437e-07 -1.21178)
(0.493253 2.89105e-07 -1.21177)
(1.30027 5.94467e-07 -1.54699)
(1.30028 4.99896e-06 -1.547)
(1.30028 2.01598e-06 -1.547)
(1.30027 9.1391e-07 -1.54699)
(1.30027 -4.78274e-07 -1.54699)
(1.30026 2.05005e-06 -1.54698)
(2.23172 2.49325e-06 -1.52894)
(2.23175 1.09548e-05 -1.52895)
(2.23174 2.87015e-06 -1.52894)
(2.23174 1.48996e-07 -1.52893)
(2.23174 -2.69079e-06 -1.52894)
(2.23173 4.05201e-06 -1.52892)
(3.21873 -2.93506e-06 -1.76349)
(3.21877 -8.81229e-07 -1.7635)
(3.21876 6.94291e-07 -1.76348)
(3.21876 -1.49389e-06 -1.76348)
(3.21875 3.72385e-07 -1.76349)
(3.21873 3.4467e-06 -1.76348)
(4.38998 -4.99054e-06 -2.02328)
(4.39004 -1.51048e-05 -2.02334)
(4.39002 -2.22892e-07 -2.02332)
(4.39002 -3.00365e-06 -2.02332)
(4.39001 2.05838e-06 -2.02334)
(4.38998 -4.24291e-06 -2.02334)
(5.66806 8.41068e-06 -2.35525)
(5.66817 -8.0822e-06 -2.35541)
(5.66816 1.66577e-05 -2.3554)
(5.66815 3.45994e-06 -2.35539)
(5.66815 1.62579e-05 -2.3554)
(5.66811 -4.57483e-06 -2.35538)
(7.21918 2.45668e-05 -1.83347)
(7.21929 -5.73358e-06 -1.83368)
(7.21927 1.13109e-05 -1.83369)
(7.21927 -6.83924e-06 -1.83368)
(7.21928 7.56194e-06 -1.83368)
(7.21921 -1.90654e-05 -1.83366)
(9.19343 4.53612e-06 -1.69046)
(9.19336 -7.64335e-05 -1.69064)
(9.19334 -6.14316e-05 -1.69064)
(9.19336 -5.87146e-05 -1.69062)
(9.19342 -2.81333e-05 -1.69063)
(9.19327 -5.27582e-05 -1.69064)
(11.8432 0.000148696 -2.47491)
(11.843 9.90664e-05 -2.47507)
(11.8427 1.50904e-05 -2.47506)
(11.8427 5.13623e-05 -2.47503)
(11.8429 1.93908e-05 -2.47511)
(11.8427 -0.000101439 -2.47506)
(14.0673 7.10601e-05 0.00627884)
(14.0679 7.57713e-05 0.00574221)
(14.0677 8.80336e-06 0.00581471)
(14.0677 -0.000111606 0.00578752)
(14.0684 -0.000117418 0.00563091)
(14.0677 -0.000120888 0.00593375)
(14.0646 5.87141e-05 4.56179)
(14.0652 3.16724e-05 4.56146)
(14.0651 -0.000136034 4.56146)
(14.0652 -0.000199861 4.56143)
(14.0659 -0.000345989 4.56152)
(14.0645 -0.000216623 4.56173)
(10.8864 -0.000105949 9.93893)
(10.8873 -0.000142614 9.9379)
(10.8872 -5.31417e-05 9.93794)
(10.8873 -7.7866e-05 9.93797)
(10.8876 0.000334783 9.938)
(10.8859 0.000467878 9.93925)
(0.422475 3.63091e-06 -2.22401)
(0.42248 6.14413e-06 -2.22403)
(0.422478 3.73708e-06 -2.22402)
(0.422478 2.17343e-06 -2.22402)
(0.422479 1.30469e-06 -2.22402)
(0.42248 7.45608e-07 -2.22401)
(1.16106 9.03625e-07 -2.28632)
(1.16109 1.42443e-05 -2.28633)
(1.16109 9.28057e-07 -2.28632)
(1.16109 4.04898e-06 -2.28632)
(1.16108 -5.58045e-06 -2.28632)
(1.16108 7.04103e-06 -2.2863)
(1.90385 4.79792e-06 -2.47878)
(1.9039 1.16018e-06 -2.47879)
(1.90391 4.65171e-07 -2.47876)
(1.9039 -1.04328e-06 -2.47876)
(1.90389 -2.30065e-06 -2.47877)
(1.90388 -2.02095e-06 -2.47874)
(3.13542 1.87794e-05 -3.24813)
(3.13552 -3.64918e-06 -3.24819)
(3.13552 1.76708e-05 -3.24815)
(3.13552 8.77946e-06 -3.24815)
(3.13551 1.81981e-05 -3.24815)
(3.13551 -1.02481e-05 -3.24812)
(5.06611 6.98768e-05 -3.14336)
(5.06634 4.13735e-05 -3.1435)
(5.06631 7.20591e-05 -3.1435)
(5.06631 4.57973e-05 -3.14349)
(5.06632 5.15716e-05 -3.14348)
(5.06629 -1.6695e-05 -3.14348)
(5.76716 8.15621e-05 -3.38876)
(5.76751 3.81213e-05 -3.38889)
(5.76752 0.000103454 -3.38887)
(5.76754 5.92053e-05 -3.38883)
(5.76754 5.52862e-05 -3.38881)
(5.76747 -3.74467e-05 -3.38878)
(6.60253 2.48947e-05 -3.44893)
(6.60276 -5.99067e-05 -3.44869)
(6.60271 1.71832e-05 -3.44874)
(6.60272 -3.55689e-05 -3.44874)
(6.60278 -4.91692e-05 -3.44877)
(6.60257 -0.000109293 -3.4488)
(6.91566 6.70182e-05 -3.54865)
(6.91579 -7.70333e-05 -3.54864)
(6.91567 -0.000197648 -3.54858)
(6.91566 -0.000120506 -3.54857)
(6.91594 -9.36825e-05 -3.54871)
(6.91558 -0.000143805 -3.54869)
(5.65739 8.4671e-05 -4.99326)
(5.65775 4.23574e-05 -4.99349)
(5.65724 -9.13204e-05 -4.99345)
(5.65713 0.000109591 -4.99345)
(5.65776 7.56672e-05 -4.99376)
(5.65761 -7.94408e-05 -4.9936)
(4.90731 -4.29789e-05 -0.574866)
(4.90753 -2.54036e-05 -0.575173)
(4.90703 -5.55285e-05 -0.574832)
(4.90698 -4.63201e-06 -0.574854)
(4.90794 -0.00011959 -0.575715)
(4.90772 -0.000132916 -0.575245)
(5.87735 0.000178014 8.30539)
(5.87739 0.000116163 8.30493)
(5.87702 -0.00027247 8.30499)
(5.87705 -0.00038009 8.30493)
(5.8779 -0.000635832 8.30478)
(5.87678 -0.000385361 8.30522)
(7.45979 9.48851e-05 18.8352)
(7.46059 0.000109911 18.8342)
(7.4604 2.31793e-05 18.8346)
(7.46041 -9.43871e-05 18.8346)
(7.46079 0.000133604 18.8342)
(7.45896 0.000310651 18.8362)
(0.148528 4.33192e-06 -2.83449)
(0.148542 7.87403e-06 -2.8345)
(0.148546 6.46616e-06 -2.8345)
(0.148547 4.00201e-06 -2.83449)
(0.148545 2.61071e-06 -2.8345)
(0.148553 2.58021e-06 -2.83449)
(0.460087 7.81552e-06 -2.80872)
(0.460099 -6.86323e-06 -2.80875)
(0.4601 7.05448e-06 -2.80874)
(0.4601 -6.51439e-07 -2.80874)
(0.460093 -1.06595e-06 -2.80875)
(0.460125 -1.78104e-05 -2.80871)
(2.34586 1.65751e-05 -3.75656)
(2.34592 -4.08347e-05 -3.75658)
(2.34592 1.07209e-05 -3.75657)
(2.34592 -1.20619e-05 -3.75656)
(2.34592 4.34745e-06 -3.75657)
(2.34589 -4.97044e-05 -3.75656)
(2.88487 4.90931e-05 -4.41006)
(2.88494 4.93594e-06 -4.41021)
(2.88497 5.64435e-05 -4.41019)
(2.885 1.37182e-05 -4.41017)
(2.88505 4.31053e-05 -4.41015)
(2.88513 -3.605e-05 -4.41014)
(3.47799 9.9137e-05 -3.39544)
(3.47837 0.000103081 -3.39566)
(3.47847 0.00015169 -3.39572)
(3.47854 8.48255e-05 -3.39568)
(3.47862 7.96806e-05 -3.39563)
(3.47866 -1.97527e-05 -3.39574)
(1.57965 3.16359e-05 -3.04748)
(1.58024 -2.69126e-05 -3.04753)
(1.58047 2.02714e-05 -3.04741)
(1.58053 2.11419e-06 -3.0473)
(1.58056 -7.96478e-06 -3.04726)
(1.58046 -4.82913e-05 -3.04714)
(-0.278942 -9.99389e-05 -2.01371)
(-0.27874 -0.000120673 -2.01347)
(-0.278791 -6.98496e-05 -2.01336)
(-0.278751 3.81167e-05 -2.01331)
(-0.278509 6.09438e-05 -2.01349)
(-0.278384 -1.57039e-06 -2.01386)
(-0.304687 -1.31084e-05 -2.97009)
(-0.304878 -4.89198e-06 -2.96982)
(-0.304912 -6.58029e-05 -2.96988)
(-0.304894 -1.03382e-05 -2.97001)
(-0.304571 -8.93817e-05 -2.97031)
(-0.304583 -0.000133794 -2.97066)
(-1.33743 0.000100789 -1.87599)
(-1.33771 8.95551e-05 -1.87591)
(-1.33794 -3.18163e-05 -1.87603)
(-1.33791 0.000163167 -1.87608)
(-1.33742 -2.04259e-05 -1.87627)
(-1.33767 -0.000179492 -1.87636)
(-1.64319 0.000234869 2.41033)
(-1.64318 0.000323078 2.41027)
(-1.64338 0.000165837 2.4103)
(-1.64323 0.000355504 2.41039)
(-1.64253 3.92971e-05 2.40993)
(-1.64294 -0.000184821 2.41056)
(-0.0755634 0.000283899 11.3668)
(-0.0749392 0.000461159 11.3667)
(-0.075201 0.000283986 11.3666)
(-0.075086 0.000306123 11.3664)
(-0.0743806 -1.49293e-05 11.3655)
(-0.0753426 -0.000142187 11.3667)
(2.59199 4.47714e-05 19.4796)
(2.59316 0.000168988 19.4795)
(2.59291 0.000203211 19.4797)
(2.59282 0.000134006 19.4795)
(2.59317 0.00017253 19.4793)
(2.59131 0.000172269 19.4804)
(0.00110173 -2.1138e-07 0.00111674)
(0.0011018 -2.64049e-07 0.00111682)
(0.0011018 -3.52935e-08 0.00111683)
(0.0011018 1.45758e-08 0.00111683)
(0.00110179 2.95546e-08 0.00111684)
(0.00110172 3.31609e-08 0.0011168)
(0.00334567 -2.50845e-07 0.00115819)
(0.00334593 -2.63211e-07 0.00115826)
(0.0033459 -1.07554e-08 0.00115826)
(0.0033459 3.92357e-08 0.00115826)
(0.00334588 9.38515e-08 0.00115826)
(0.00334569 8.46912e-08 0.00115822)
(0.00570778 -3.64662e-07 0.00123667)
(0.0057082 -3.22429e-07 0.00123675)
(0.00570814 4.46919e-08 0.00123675)
(0.00570813 8.00623e-08 0.00123676)
(0.00570809 1.71409e-07 0.00123677)
(0.00570777 1.23988e-07 0.00123675)
(0.00825452 -5.03599e-07 0.00134263)
(0.00825503 -3.77586e-07 0.00134276)
(0.00825492 1.52177e-07 0.00134278)
(0.00825487 1.67175e-07 0.00134281)
(0.00825479 2.98926e-07 0.00134285)
(0.00825429 1.90339e-07 0.00134286)
(0.0110293 -5.71079e-07 0.00146037)
(0.0110298 -3.16848e-07 0.00146064)
(0.0110296 3.52235e-07 0.00146071)
(0.0110295 3.25896e-07 0.00146078)
(0.0110294 4.79072e-07 0.00146085)
(0.0110288 2.85898e-07 0.00146091)
(0.0140358 -4.59705e-07 0.00156799)
(0.0140362 -6.69506e-08 0.00156852)
(0.014036 6.01103e-07 0.00156867)
(0.0140359 4.98808e-07 0.00156879)
(0.0140359 6.19421e-07 0.00156887)
(0.0140352 3.65479e-07 0.0015689)
(0.0172202 -1.93107e-07 0.00166598)
(0.0172206 2.68146e-07 0.0016669)
(0.0172206 6.72488e-07 0.00166716)
(0.0172206 4.1686e-07 0.00166729)
(0.0172208 4.47791e-07 0.0016673)
(0.0172203 2.79648e-07 0.00166718)
(0.0203396 1.41882e-07 0.00183416)
(0.0203401 4.93078e-07 0.00183548)
(0.0203403 4.08496e-07 0.0018358)
(0.0203407 -3.94561e-08 0.0018358)
(0.0203413 -1.34932e-07 0.00183558)
(0.0203412 -9.91245e-10 0.00183513)
(0.0227454 3.92551e-07 0.00209022)
(0.0227463 4.43404e-07 0.00209172)
(0.0227469 -2.85727e-07 0.00209195)
(0.0227477 -9.03842e-07 0.00209173)
(0.0227488 -1.0789e-06 0.00209121)
(0.0227491 -4.801e-07 0.00209035)
(0.0227946 1.62943e-07 0.00195019)
(0.0227962 -3.1572e-07 0.00195147)
(0.0227972 -1.3484e-06 0.00195141)
(0.0227983 -1.91302e-06 0.00195083)
(0.0227998 -1.98802e-06 0.00194989)
(0.0228008 -9.15958e-07 0.00194857)
(0.020328 -4.56987e-07 3.77681e-05)
(0.02033 -1.48669e-06 3.67008e-05)
(0.020331 -2.22574e-06 3.60022e-05)
(0.0203319 -2.50298e-06 3.51567e-05)
(0.0203333 -2.43058e-06 3.40492e-05)
(0.0203348 -1.15606e-06 3.25616e-05)
(0.0102309 -6.42037e-07 -0.00423155)
(0.0102321 -1.19469e-06 -0.00423339)
(0.0102325 -1.06319e-06 -0.00423383)
(0.0102327 -7.19905e-07 -0.00423415)
(0.0102333 -3.66283e-07 -0.00423452)
(0.010234 -3.08192e-08 -0.00423491)
(0.00108594 -1.52187e-07 0.00326941)
(0.00108601 -1.92465e-07 0.0032696)
(0.001086 -5.74517e-10 0.00326962)
(0.00108601 4.25014e-08 0.00326963)
(0.001086 8.71854e-08 0.00326964)
(0.00108593 5.96526e-08 0.0032695)
(0.00330364 -1.77692e-07 0.00339763)
(0.00330387 -1.67164e-07 0.0033978)
(0.00330384 3.63706e-08 0.00339781)
(0.00330385 7.39708e-08 0.0033978)
(0.00330383 1.57565e-07 0.00339781)
(0.00330364 1.10386e-07 0.00339765)
(0.00565588 -2.57539e-07 0.00364283)
(0.00565626 -1.96097e-07 0.00364304)
(0.00565621 9.32347e-08 0.00364305)
(0.0056562 1.09847e-07 0.00364306)
(0.00565617 2.37524e-07 0.00364309)
(0.00565583 1.60219e-07 0.00364297)
(0.0082194 -3.53628e-07 0.00397606)
(0.00821984 -2.25718e-07 0.00397638)
(0.00821975 1.78213e-07 0.00397642)
(0.0082197 1.77777e-07 0.00397649)
(0.00821964 3.76945e-07 0.00397656)
(0.00821911 2.49694e-07 0.00397649)
(0.0110421 -3.9228e-07 0.00433368)
(0.0110425 -1.9466e-07 0.00433431)
(0.0110424 3.02963e-07 0.00433445)
(0.0110423 2.9384e-07 0.00433461)
(0.0110422 5.62241e-07 0.00433474)
(0.0110415 3.72743e-07 0.0043347)
(0.0140907 -3.30006e-07 0.00458275)
(0.014091 -7.77098e-08 0.00458395)
(0.0140908 4.09458e-07 0.00458427)
(0.0140907 3.63224e-07 0.0045845)
(0.0140907 6.58995e-07 0.00458462)
(0.01409 4.48969e-07 0.00458445)
(0.0171668 -1.65808e-07 0.00444454)
(0.0171669 7.04737e-08 0.00444652)
(0.0171668 3.70366e-07 0.00444702)
(0.0171669 2.52518e-07 0.00444721)
(0.0171672 4.97112e-07 0.00444711)
(0.0171668 3.68456e-07 0.00444654)
(0.0199633 4.00602e-08 0.00330241)
(0.0199633 1.25746e-07 0.00330515)
(0.0199634 4.6908e-08 0.00330573)
(0.0199639 -2.12297e-07 0.00330564)
(0.0199648 -9.9439e-08 0.00330505)
(0.019965 5.49588e-08 0.00330377)
(0.0223313 7.73716e-08 0.000162597)
(0.0223313 -1.02557e-07 0.000165653)
(0.0223317 -5.51701e-07 0.000166104)
(0.0223328 -8.93205e-07 0.000165584)
(0.0223344 -8.68083e-07 0.000164371)
(0.0223355 -3.72951e-07 0.000162388)
(0.0241763 1.58363e-08 -0.00623157)
(0.0241767 -5.3405e-07 -0.00622948)
(0.0241774 -1.38269e-06 -0.00622959)
(0.0241789 -1.8558e-06 -0.00623062)
(0.0241811 -1.98331e-06 -0.00623239)
(0.0241832 -9.95603e-07 -0.00623473)
(0.0242677 -6.5218e-07 -0.0150574)
(0.0242692 -1.56511e-06 -0.0150603)
(0.0242701 -1.78854e-06 -0.0150617)
(0.0242716 -1.84031e-06 -0.0150634)
(0.024274 -1.86422e-06 -0.0150656)
(0.0242768 -9.92721e-07 -0.0150684)
(0.0167164 -6.88001e-07 -0.0297032)
(0.0167179 -8.23193e-07 -0.029708)
(0.0167184 -5.03373e-08 -0.0297091)
(0.016719 6.40546e-07 -0.0297098)
(0.0167201 9.83215e-07 -0.0297106)
(0.0167215 5.55514e-07 -0.0297111)
(0.001025 -1.23753e-07 0.0053108)
(0.00102506 -1.36086e-07 0.00531109)
(0.00102505 3.59741e-08 0.0053111)
(0.00102505 7.29974e-08 0.00531111)
(0.00102504 1.16539e-07 0.00531112)
(0.00102497 6.9211e-08 0.00531085)
(0.00313022 -1.42119e-07 0.0055421)
(0.00313041 -1.0982e-07 0.00554238)
(0.00313039 6.862e-08 0.00554238)
(0.00313039 1.00339e-07 0.00554237)
(0.00313036 1.78327e-07 0.00554238)
(0.00313016 1.15396e-07 0.00554209)
(0.00540425 -1.97933e-07 0.00599293)
(0.00540457 -1.32056e-07 0.00599326)
(0.00540453 1.06182e-07 0.00599325)
(0.00540452 1.21861e-07 0.00599327)
(0.00540448 2.37962e-07 0.00599329)
(0.00540414 1.57493e-07 0.00599302)
(0.00796865 -2.56146e-07 0.00663011)
(0.00796903 -1.46581e-07 0.00663058)
(0.00796896 1.59704e-07 0.00663062)
(0.00796892 1.61441e-07 0.00663069)
(0.00796887 3.41403e-07 0.00663075)
(0.00796838 2.31119e-07 0.00663049)
(0.0109622 -2.56695e-07 0.00737091)
(0.0109626 -1.12717e-07 0.00737172)
(0.0109625 2.26809e-07 0.00737186)
(0.0109624 2.22696e-07 0.00737201)
(0.0109624 4.61126e-07 0.00737211)
(0.0109618 3.22251e-07 0.0073718)
(0.014577 -1.71082e-07 0.00805056)
(0.0145772 -1.44257e-08 0.00805196)
(0.0145772 2.54636e-07 0.00805226)
(0.0145772 2.27462e-07 0.00805244)
(0.0145773 4.83724e-07 0.00805248)
(0.0145768 3.56667e-07 0.00805192)
(0.0191898 -2.97899e-08 0.00840378)
(0.01919 6.88278e-08 0.00840595)
(0.01919 1.39914e-07 0.00840637)
(0.0191903 7.19816e-08 0.00840642)
(0.0191908 2.71408e-07 0.00840614)
(0.0191905 2.50347e-07 0.00840502)
(0.0252073 5.12418e-08 0.00810356)
(0.0252076 2.81737e-08 0.00810646)
(0.0252077 -1.43067e-07 0.00810691)
(0.0252083 -2.75019e-07 0.00810663)
(0.0252092 -1.82906e-07 0.00810581)
(0.0252093 -2.24091e-09 0.00810393)
(0.0324198 -1.90286e-08 0.00671589)
(0.0324201 -1.90168e-07 0.00671926)
(0.0324204 -4.74229e-07 0.00671966)
(0.0324213 -6.30733e-07 0.00671904)
(0.0324226 -6.27802e-07 0.00671763)
(0.0324228 -2.73581e-07 0.00671502)
(0.0373139 -4.85009e-07 0.00342757)
(0.0373145 -8.24474e-07 0.00342991)
(0.0373148 -6.65903e-07 0.00342984)
(0.0373159 -5.34714e-07 0.00342883)
(0.0373175 -4.11085e-07 0.00342696)
(0.0373181 -1.5733e-07 0.00342387)
(0.0398902 -1.0221e-06 -0.00567842)
(0.039893 -1.40723e-06 -0.00568218)
(0.0398938 -5.15526e-07 -0.00568379)
(0.0398949 1.06342e-07 -0.00568536)
(0.0398966 3.50388e-07 -0.00568773)
(0.039898 2.25059e-07 -0.0056915)
(0.0235569 -1.34986e-06 -0.0216135)
(0.0235598 -7.80595e-07 -0.0216198)
(0.0235604 1.12818e-06 -0.0216213)
(0.0235609 2.53485e-06 -0.0216222)
(0.0235618 2.92133e-06 -0.0216236)
(0.0235626 1.74642e-06 -0.0216248)
(0.000910798 -9.98609e-08 0.00715535)
(0.000910849 -9.75345e-08 0.00715573)
(0.00091084 5.04554e-08 0.00715574)
(0.000910839 8.1985e-08 0.00715573)
(0.000910826 1.20034e-07 0.00715573)
(0.000910763 6.69726e-08 0.00715537)
(0.00279657 -1.10127e-07 0.00751349)
(0.00279674 -7.45766e-08 0.00751388)
(0.00279672 7.39434e-08 0.00751387)
(0.00279672 1.04394e-07 0.00751386)
(0.0027967 1.72542e-07 0.00751386)
(0.00279652 1.08131e-07 0.00751347)
(0.00488287 -1.50016e-07 0.00822594)
(0.00488315 -9.71649e-08 0.00822639)
(0.00488313 8.77476e-08 0.00822639)
(0.00488312 1.07183e-07 0.0082264)
(0.0048831 2.09459e-07 0.00822641)
(0.00488279 1.39277e-07 0.00822601)
(0.00733101 -1.8788e-07 0.00927456)
(0.00733137 -1.23039e-07 0.00927517)
(0.00733134 1.00141e-07 0.00927519)
(0.00733132 1.13964e-07 0.00927525)
(0.0073313 2.68169e-07 0.00927529)
(0.00733087 1.92301e-07 0.00927486)
(0.0103297 -1.88717e-07 0.010593)
(0.0103301 -1.26701e-07 0.0105939)
(0.0103301 1.03038e-07 0.010594)
(0.0103301 1.24191e-07 0.0105941)
(0.0103301 3.32384e-07 0.0105942)
(0.0103296 2.5199e-07 0.0105936)
(0.0140347 -1.46804e-07 0.0119909)
(0.0140353 -1.34119e-07 0.0119923)
(0.0140354 4.30384e-08 0.0119925)
(0.0140356 1.00647e-07 0.0119926)
(0.0140357 3.30231e-07 0.0119926)
(0.0140353 2.58531e-07 0.0119918)
(0.0184153 -1.27229e-07 0.0129769)
(0.0184163 -2.23339e-07 0.0129788)
(0.0184166 -1.11019e-07 0.0129791)
(0.018417 -9.31773e-09 0.0129791)
(0.0184175 1.95981e-07 0.0129788)
(0.0184171 1.7334e-07 0.0129775)
(0.023268 -2.41119e-07 0.0125022)
(0.0232696 -4.85408e-07 0.0125047)
(0.0232701 -3.43864e-07 0.012505)
(0.0232707 -1.71377e-07 0.0125047)
(0.0232715 1.35708e-08 0.012504)
(0.0232712 3.59555e-08 0.0125022)
(0.0285413 -5.0792e-07 0.00818472)
(0.0285434 -8.00256e-07 0.00818752)
(0.0285441 -3.6183e-07 0.00818786)
(0.0285448 -5.06263e-08 0.00818738)
(0.0285458 1.74767e-07 0.00818628)
(0.0285455 7.99581e-08 0.00818402)
(0.0362628 -7.58135e-07 -0.00517882)
(0.0362659 -8.86161e-07 -0.00517715)
(0.0362665 1.61122e-07 -0.0051771)
(0.0362672 7.16199e-07 -0.00517786)
(0.0362682 9.6845e-07 -0.00517951)
(0.0362681 4.32752e-07 -0.005182)
(0.0429973 -4.16809e-07 -0.0416202)
(0.0430039 1.34544e-08 -0.0416256)
(0.0430053 1.69649e-06 -0.041627)
(0.0430055 2.6099e-06 -0.041628)
(0.0430057 2.80946e-06 -0.0416297)
(0.043005 1.21382e-06 -0.041631)
(0.0462395 -3.89847e-07 -0.106973)
(0.0462488 4.41627e-07 -0.106994)
(0.0462505 2.39123e-06 -0.106998)
(0.04625 3.44991e-06 -0.106997)
(0.046249 3.58155e-06 -0.106995)
(0.046246 1.59218e-06 -0.106988)
(-0.916946 -2.41016e-06 -2.42275)
(-0.916942 -4.67813e-06 -2.42276)
(-0.916929 3.5581e-06 -2.42275)
(-0.91693 4.78774e-08 -2.42275)
(-0.91694 3.5887e-06 -2.42275)
(-0.916923 2.31652e-06 -2.42276)
(-3.3561 1.32416e-05 -1.31906)
(-3.35612 1.3432e-05 -1.31909)
(-3.3561 8.82181e-06 -1.31908)
(-3.3561 9.73405e-06 -1.31908)
(-3.35611 2.39104e-05 -1.31907)
(-3.35609 1.90908e-05 -1.3191)
(-4.4462 1.88654e-05 12.2052)
(-4.44622 1.96788e-05 12.2053)
(-4.44618 1.40154e-05 12.2053)
(-4.44619 1.56826e-05 12.2053)
(-4.4462 3.13229e-05 12.2053)
(-4.44615 2.16637e-05 12.2053)
(-2.26721 7.28498e-05 -4.82486)
(-2.26725 -0.0001118 -4.82493)
(-2.26724 7.32624e-05 -4.82492)
(-2.26723 -2.7751e-05 -4.82487)
(-2.26722 9.78326e-05 -4.82483)
(-2.26713 -0.000128816 -4.82484)
(-9.15426 6.74528e-05 -4.28684)
(-9.15433 -8.86037e-05 -4.28701)
(-9.15431 3.93656e-05 -4.28702)
(-9.15432 -3.46826e-05 -4.28698)
(-9.15428 0.000115846 -4.28685)
(-9.15421 -5.4756e-05 -4.28707)
(-10.2306 -7.09985e-07 -10.6321)
(-10.2306 6.71292e-06 -10.6321)
(-10.2306 -2.18635e-05 -10.6321)
(-10.2306 -1.94311e-05 -10.6321)
(-10.2306 1.08415e-06 -10.6321)
(-10.2306 2.44885e-05 -10.632)
(2.25496 6.63755e-05 -4.97974)
(2.25497 -5.29422e-05 -4.97992)
(2.25495 6.47638e-05 -4.97997)
(2.25494 -2.16003e-05 -4.97996)
(2.25497 0.000122137 -4.97996)
(2.2549 -4.06745e-05 -4.98015)
(-1.53439 -5.53822e-05 -3.62202)
(-1.53463 1.47983e-05 -3.62219)
(-1.53466 5.41473e-05 -3.6222)
(-1.53462 5.61751e-05 -3.6222)
(-1.53453 8.45615e-05 -3.62227)
(-1.53443 8.79372e-05 -3.62228)
(-2.06947 1.77871e-05 -6.2689)
(-2.06951 7.491e-06 -6.26895)
(-2.06951 -1.66368e-06 -6.26892)
(-2.0695 6.53937e-06 -6.26892)
(-2.06947 6.67182e-06 -6.26895)
(-2.06947 -5.49166e-07 -6.26886)
(-2.26175 7.31428e-05 -2.92128)
(-2.26174 0.00015934 -2.92173)
(-2.26167 0.000179364 -2.92172)
(-2.2616 0.000121705 -2.92172)
(-2.26149 0.000110084 -2.92172)
(-2.26115 4.65682e-05 -2.9217)
(-5.34543 7.47379e-05 -2.23616)
(-5.3458 9.66826e-05 -2.23615)
(-5.34577 3.74499e-05 -2.23613)
(-5.34579 2.28891e-05 -2.23613)
(-5.34577 1.34897e-05 -2.23616)
(-5.34552 2.00188e-05 -2.23619)
(-2.72495 -8.01007e-06 -3.6182)
(-2.72505 -7.5798e-06 -3.61824)
(-2.7251 -3.8879e-06 -3.61819)
(-2.72512 -2.32988e-06 -3.61818)
(-2.72512 1.10561e-05 -3.61817)
(-2.72511 1.5101e-05 -3.61809)
(-1.71878 3.37991e-05 -1.85781)
(-1.71847 -2.76131e-06 -1.85798)
(-1.71831 -1.0706e-05 -1.85795)
(-1.71822 -3.08428e-05 -1.8579)
(-1.71813 -5.27226e-05 -1.85793)
(-1.71792 -5.92786e-05 -1.85791)
(-2.83881 4.48046e-05 -1.8728)
(-2.83911 3.47123e-05 -1.87268)
(-2.83911 -1.43544e-05 -1.87264)
(-2.83916 -7.33867e-06 -1.87257)
(-2.83918 -6.37696e-06 -1.87252)
(-2.83896 -5.87633e-07 -1.87256)
(-1.38734 -2.49312e-05 -3.40362)
(-1.38744 -3.28487e-05 -3.40364)
(-1.38748 -2.61904e-05 -3.40359)
(-1.38751 -3.02914e-05 -3.40357)
(-1.38754 -3.17992e-06 -3.40356)
(-1.38751 1.37085e-05 -3.40349)
(-3.2624 -9.81825e-05 -1.06193)
(-3.26272 -0.000106538 -1.06173)
(-3.26267 -5.36873e-05 -1.06159)
(-3.26261 -1.03798e-05 -1.06145)
(-3.26255 2.52901e-05 -1.06146)
(-3.26234 1.14375e-05 -1.06173)
(-2.38584 -3.61365e-05 -2.18143)
(-2.38608 -4.68177e-05 -2.18137)
(-2.38613 -4.3101e-05 -2.18131)
(-2.38617 -1.87775e-05 -2.18122)
(-2.38619 2.25164e-05 -2.18115)
(-2.386 3.13558e-05 -2.18114)
(-0.86795 -8.143e-06 -2.66917)
(-0.868024 -1.50098e-05 -2.6692)
(-0.868046 -1.55585e-05 -2.66917)
(-0.868074 -1.57779e-05 -2.66915)
(-0.868097 -1.82452e-06 -2.66915)
(-0.868047 6.14939e-06 -2.66914)
(-2.02207 -2.97717e-05 -2.17943)
(-2.0225 3.36811e-05 -2.17927)
(-2.02237 0.000112758 -2.1792)
(-2.02225 0.0001268 -2.17914)
(-2.02211 0.000149037 -2.1792)
(-2.02173 6.44844e-05 -2.17946)
(-1.68732 -1.47724e-05 -2.2317)
(-1.68751 -1.70826e-05 -2.2316)
(-1.6875 1.33175e-05 -2.23156)
(-1.68748 3.14142e-05 -2.23154)
(-1.68747 7.11105e-05 -2.23156)
(-1.68727 4.99799e-05 -2.23165)
(-0.904289 -1.20931e-05 -2.31762)
(-0.90437 -2.04739e-05 -2.31759)
(-0.904376 -6.22745e-06 -2.31758)
(-0.904371 4.69686e-06 -2.31759)
(-0.904363 2.00986e-05 -2.31761)
(-0.904279 1.47148e-05 -2.31764)
(-3.06149 3.21368e-05 -2.72472)
(-3.06199 0.000108632 -2.72442)
(-3.06178 0.000137867 -2.72447)
(-3.06164 0.000146952 -2.72451)
(-3.06146 9.42418e-05 -2.72456)
(-3.06116 1.37129e-05 -2.72491)
(-2.30433 -1.48307e-05 -1.4991)
(-2.30464 1.57601e-05 -1.49885)
(-2.30461 7.04435e-05 -1.49883)
(-2.30458 6.42962e-05 -1.49887)
(-2.30457 8.6919e-05 -1.49894)
(-2.30426 6.1216e-05 -1.49917)
(-0.943366 -1.90009e-05 -1.3032)
(-0.943487 -2.92811e-05 -1.30305)
(-0.943504 -6.84443e-06 -1.30304)
(-0.94351 4.16542e-06 -1.30305)
(-0.943518 2.54534e-05 -1.30307)
(-0.94341 2.23804e-05 -1.30317)
(-4.17304 0.000112073 -1.86362)
(-4.17345 0.000161256 -1.8633)
(-4.17324 7.78255e-05 -1.86347)
(-4.1731 0.00011565 -1.86349)
(-4.17284 -1.12631e-05 -1.86341)
(-4.17272 -8.98645e-05 -1.86392)
(-3.29779 2.02163e-05 -0.727606)
(-3.2981 3.39048e-05 -0.727273)
(-3.29802 2.32921e-05 -0.727316)
(-3.29799 -1.92223e-05 -0.727351)
(-3.29805 -4.60714e-06 -0.727309)
(-3.2977 2.25148e-05 -0.727742)
(-1.30045 -1.82638e-05 -0.0541253)
(-1.30058 -2.46337e-05 -0.0539012)
(-1.3006 -8.65984e-06 -0.0538948)
(-1.30062 -2.62424e-05 -0.0539101)
(-1.30067 1.08894e-05 -0.0539082)
(-1.30053 3.35877e-05 -0.0541093)
(-5.0414 0.000182362 2.05992)
(-5.04147 0.000251412 2.06023)
(-5.04143 0.00010368 2.06013)
(-5.04129 0.000202255 2.06033)
(-5.04092 -6.79333e-05 2.06056)
(-5.04113 -0.000213797 2.0604)
(-4.21757 3.50474e-05 1.61382)
(-4.21772 1.4353e-05 1.6142)
(-4.21769 -7.28822e-05 1.61421)
(-4.21772 -0.00010738 1.61437)
(-4.21781 -0.000145785 1.6148)
(-4.2176 -8.88714e-05 1.6142)
(-1.54445 -1.55574e-05 1.86169)
(-1.54457 -5.78242e-05 1.86196)
(-1.5446 -9.02744e-05 1.862)
(-1.54466 -0.000133383 1.86205)
(-1.54479 -7.88832e-05 1.86218)
(-1.54464 3.98055e-06 1.86187)
(-3.49356 0.000220106 8.85348)
(-3.49312 0.000403259 8.85408)
(-3.49326 0.000278592 8.85407)
(-3.49322 0.000292828 8.85437)
(-3.49288 -7.1881e-05 8.85456)
(-3.49352 -0.000235818 8.85492)
(-3.17729 6.25488e-06 5.53479)
(-3.17728 4.80543e-06 5.53543)
(-3.1773 -6.37171e-05 5.53559)
(-3.17731 -9.2559e-05 5.53601)
(-3.1773 -0.000198831 5.53679)
(-3.17729 -0.000163586 5.53628)
(-1.16116 -4.41342e-05 3.91403)
(-1.16125 -0.000123624 3.91441)
(-1.16128 -0.000178804 3.91452)
(-1.16133 -0.000218049 3.91469)
(-1.16143 -0.00017279 3.91503)
(-1.16134 -5.63645e-05 3.9146)
(0.655916 7.16775e-05 13.8523)
(0.656538 0.000303943 13.8535)
(0.656328 0.000385213 13.8536)
(0.65615 0.000380942 13.8537)
(0.656142 0.000182601 13.854)
(0.655046 -2.0576e-05 13.8539)
(0.927953 -6.69278e-05 8.11288)
(0.928044 -8.30916e-05 8.11401)
(0.92802 -0.000100019 8.11419)
(0.928012 -0.000129056 8.11457)
(0.928023 -0.00020977 8.11535)
(0.927811 -0.000156328 8.11469)
(0.736873 -6.70608e-05 5.27718)
(0.736918 -0.000158911 5.27767)
(0.73694 -0.000197928 5.27778)
(0.736969 -0.000212971 5.27793)
(0.737023 -0.00017604 5.27823)
(0.736974 -6.52104e-05 5.27775)
(0.373456 1.51597e-07 0.0528145)
(0.373483 3.17857e-06 0.0528185)
(0.373483 5.79712e-06 0.0528173)
(0.373478 8.45746e-06 0.0528159)
(0.373472 6.48744e-06 0.0528146)
(0.373445 3.64577e-06 0.0528092)
(0.440761 -1.42936e-06 0.239338)
(0.440788 -1.76603e-06 0.239351)
(0.440791 8.90813e-07 0.23935)
(0.440789 3.31027e-06 0.239348)
(0.440786 4.03211e-06 0.239346)
(0.44076 2.6157e-06 0.23933)
(0.204186 -8.58617e-07 0.500349)
(0.204197 -1.55438e-06 0.500375)
(0.204198 -3.38929e-07 0.500375)
(0.204198 8.30093e-07 0.500374)
(0.204197 1.68606e-06 0.500372)
(0.204186 1.12171e-06 0.500347)
(0.45838 2.35603e-06 0.0232966)
(0.458414 7.84512e-06 0.0232981)
(0.45841 1.22672e-05 0.0232946)
(0.458398 1.66586e-05 0.0232913)
(0.458385 1.28968e-05 0.0232886)
(0.458343 6.25132e-06 0.0232828)
(0.653148 -2.28955e-06 0.292699)
(0.653192 -3.93065e-06 0.292715)
(0.653196 -8.82441e-08 0.292711)
(0.653193 4.32924e-06 0.292707)
(0.653187 6.55948e-06 0.292702)
(0.653144 4.68005e-06 0.292681)
(0.31421 -1.43789e-06 0.724193)
(0.314229 -3.29184e-06 0.724232)
(0.314232 -1.71372e-06 0.724234)
(0.314232 4.89393e-07 0.724231)
(0.31423 2.64233e-06 0.724227)
(0.314212 2.09581e-06 0.724189)
(0.56587 8.52156e-06 -0.0878538)
(0.56591 1.98849e-05 -0.0878643)
(0.565898 2.79095e-05 -0.0878735)
(0.565877 3.4891e-05 -0.0878821)
(0.565852 2.79923e-05 -0.0878896)
(0.565789 1.21838e-05 -0.087891)
(0.988292 -3.23109e-06 0.311098)
(0.988359 -8.00553e-06 0.311107)
(0.988366 -4.58976e-06 0.311096)
(0.988363 2.17881e-06 0.311085)
(0.988355 9.78061e-06 0.311074)
(0.98828 9.06015e-06 0.311048)
(0.490452 -2.64766e-06 1.04999)
(0.490485 -7.35395e-06 1.05005)
(0.490491 -6.20923e-06 1.05005)
(0.490493 -2.56951e-06 1.05004)
(0.490491 3.09564e-06 1.05004)
(0.490457 3.78956e-06 1.04998)
(0.583168 2.1594e-05 -0.280456)
(0.583203 4.68736e-05 -0.280477)
(0.583192 5.78381e-05 -0.280495)
(0.583175 7.04755e-05 -0.280514)
(0.583152 5.95126e-05 -0.280532)
(0.5831 2.676e-05 -0.280534)
(1.45497 -5.26149e-06 0.301679)
(1.4551 -1.74391e-05 0.301681)
(1.45512 -2.12821e-05 0.301658)
(1.45513 -1.28532e-05 0.301635)
(1.45513 6.01209e-06 0.301614)
(1.45501 1.36848e-05 0.30157)
(0.776098 -6.13589e-06 1.51883)
(0.776165 -1.87314e-05 1.51891)
(0.77618 -2.09273e-05 1.51891)
(0.776189 -1.61119e-05 1.51891)
(0.776195 -4.87123e-07 1.51889)
(0.776131 6.66491e-06 1.5188)
(-0.0415154 4.27152e-05 0.250057)
(-0.0415113 8.7856e-05 0.250161)
(-0.0416064 7.58662e-05 0.250144)
(-0.0417128 8.21561e-05 0.250142)
(-0.0418415 4.21088e-05 0.250151)
(-0.0420402 1.09919e-05 0.250054)
(2.31203 -1.83302e-05 0.839061)
(2.31225 -3.62992e-05 0.839209)
(2.31228 -4.15515e-05 0.839196)
(2.3123 -3.66295e-05 0.839199)
(2.31233 -2.43156e-05 0.839235)
(2.31211 -2.66035e-06 0.839057)
(1.23912 -2.47467e-05 2.14561)
(1.23926 -5.60739e-05 2.14574)
(1.23929 -5.99751e-05 2.14575)
(1.23932 -5.79469e-05 2.14575)
(1.23935 -2.50841e-05 2.14575)
(1.23925 2.98217e-06 2.14558)