/*--------------------------------*- C++ -*----------------------------------*\
| =========                 |                                                 |
| \\      /  F ield         | OpenFOAM: The Open Source CFD Toolbox           |
|  \\    /   O peration     | Version:  v1612+                                |
|   \\  /    A nd           | Web:      www.OpenFOAM.com                      |
|    \\/     M anipulation  |                                                 |
\*---------------------------------------------------------------------------*/
FoamFile
{
    version     2.0;
    format      ascii;
    class       volScalarField;
    location    "1.15";
    object      p_rgh;
}
// * * * * * * * * * * * * * * * * * * * * * * * * * * * * * * * * * * * * * //

dimensions      [1 -1 -2 0 0 0 0];

internalField   nonuniform List<scalar> 
1116
(
43386
43386
43385.9
43385.9
43385.9
43385.9
42357.3
42357.2
42357.2
42357.2
42357.2
42357.2
39683.3
39683.3
39683.3
39683.2
39683.2
39683.1
35309.1
35309.1
35309.1
35309.1
35309
35309
27273.1
27273.2
27273.2
27273.2
27273.2
27273.1
14961.6
14961.8
14961.8
14961.8
14961.8
14961.7
5770.78
5770.98
5771
5770.97
5770.95
5770.74
500.396
500.462
500.465
500.459
500.455
500.426
81.5326
81.5362
81.5376
81.5374
81.5366
81.5359
72.4782
72.4778
72.4789
72.4793
72.4784
72.4771
72.2579
72.2563
72.2571
72.2586
72.2598
72.2598
63.9023
63.9025
63.9018
63.9015
63.9016
63.9016
43860
43860
43860
43860.1
43860.1
43860.1
42301.3
42301.3
42301.2
42301.2
42301.2
42301.2
39042.9
39042.8
39042.8
39042.8
39042.8
39042.7
33402.6
33402.5
33402.5
33402.5
33402.5
33402.5
18833.8
18833.9
18834
18834
18834
18834
2915.72
2915.84
2915.85
2915.84
2915.81
2915.8
-74.623
-74.6212
-74.6225
-74.6212
-74.6203
-74.6192
-171.16
-171.154
-171.152
-171.147
-171.145
-171.147
18.2759
18.276
18.2753
18.2758
18.2737
18.2658
58.0744
58.0728
58.0729
58.0741
58.0752
58.0741
56.879
56.8783
56.8777
56.8781
56.8799
56.8805
51.2743
51.2754
51.275
51.2747
51.2747
51.2745
44946
44946
44946
44946.1
44946.1
44946.1
42562.7
42562.7
42562.7
42562.7
42562.7
42562.7
38404.2
38404.1
38404.1
38404.1
38404.2
38404.2
27455
27455
27455
27455
27455.2
27455.4
4438.1
4438.21
4438.26
4438.28
4438.33
4438.44
15.3661
15.3559
15.3544
15.355
15.3584
15.3674
-57.8438
-57.8438
-57.8422
-57.8403
-57.8397
-57.8386
-76.9232
-76.9257
-76.9253
-76.9241
-76.9243
-76.9242
-17.2117
-17.2115
-17.2133
-17.2126
-17.2105
-17.2119
29.491
29.4918
29.4918
29.4924
29.4948
29.4962
31.8563
31.8578
31.8583
31.8589
31.8599
31.8604
32.3423
32.3424
32.3427
32.3434
32.3441
32.3444
44974.8
44974.8
44974.8
44974.8
44974.8
44974.8
43465.1
43465.1
43465.2
43465.2
43465.2
43465.2
31001.5
31001.5
31001.5
31001.5
31001.6
31001.8
3716.86
3716.95
3716.99
3717.02
3717.11
3717.26
-30.385
-30.3953
-30.3983
-30.3974
-30.3928
-30.3837
-12.9288
-12.9282
-12.9285
-12.9291
-12.9285
-12.9274
-32.0818
-32.0832
-32.0824
-32.082
-32.0823
-32.0821
-39.079
-39.0806
-39.0811
-39.0812
-39.0807
-39.0795
-11.2868
-11.2866
-11.2863
-11.2856
-11.2841
-11.2827
13.0282
13.0284
13.029
13.03
13.0314
13.0326
18.4224
18.4221
18.4225
18.4236
18.4247
18.4253
18.5854
18.5845
18.5843
18.5846
18.5852
18.5857
0.0687142
0.068788
0.0688113
0.0688113
0.0688013
0.0687907
0.0715382
0.0715911
0.0716
0.0715892
0.0715668
0.071536
0.0770322
0.0770791
0.0770837
0.07707
0.0770454
0.0770134
0.0854727
0.0855155
0.0855186
0.0855042
0.0854794
0.085448
0.0971543
0.0971893
0.09719
0.0971733
0.097146
0.0971143
0.112403
0.112423
0.112419
0.112398
0.112367
0.112334
0.131531
0.131531
0.131521
0.131496
0.131465
0.131436
0.154801
0.154788
0.154777
0.154756
0.154733
0.154714
0.182479
0.182464
0.182457
0.182447
0.182439
0.182434
0.213089
0.21308
0.213082
0.213085
0.213089
0.213094
0.241897
0.241896
0.241905
0.241914
0.241923
0.24193
0.267799
0.267804
0.267813
0.267822
0.267829
0.267833
0.0656382
0.0656893
0.0656987
0.0656871
0.0656639
0.0656324
0.0684774
0.0685115
0.0685084
0.0684887
0.0684555
0.0684074
0.0740716
0.0741011
0.074095
0.0740733
0.0740388
0.0739905
0.0827283
0.0827538
0.0827465
0.0827242
0.0826891
0.0826416
0.094801
0.094818
0.0948079
0.0947825
0.0947447
0.0946971
0.110683
0.110686
0.11067
0.11064
0.1106
0.110555
0.130675
0.130664
0.130645
0.130615
0.13058
0.130545
0.154656
0.154643
0.154627
0.154608
0.154587
0.154569
0.181745
0.181738
0.181735
0.181731
0.181727
0.181726
0.212233
0.212236
0.212243
0.212249
0.212254
0.212258
0.245563
0.245572
0.24558
0.245586
0.245589
0.245589
0.2806
0.28061
0.280616
0.280619
0.280617
0.280614
0.0592804
0.0593214
0.0593249
0.0593086
0.0592817
0.0592483
0.0620314
0.0620575
0.0620498
0.0620265
0.0619906
0.0619423
0.0675009
0.0675223
0.0675119
0.0674868
0.0674499
0.0674018
0.0760665
0.0760822
0.0760702
0.0760438
0.0760064
0.0759592
0.0882403
0.0882457
0.0882295
0.0882003
0.0881614
0.0881157
0.104746
0.10474
0.104719
0.104688
0.10465
0.10461
0.126678
0.126668
0.126647
0.126621
0.126593
0.126566
0.155945
0.15594
0.155929
0.155916
0.155903
0.155891
0.195899
0.195904
0.195904
0.195903
0.195899
0.195895
0.247283
0.247293
0.247295
0.247293
0.247287
0.247278
0.302166
0.302173
0.302169
0.30216
0.302146
0.302132
0.363661
0.363668
0.363663
0.363653
0.363641
0.363631
0.0499045
0.0499353
0.0499345
0.0499164
0.0498893
0.0498569
0.0524119
0.0524299
0.0524197
0.0523956
0.0523606
0.0523152
0.0574494
0.0574626
0.0574498
0.0574241
0.0573882
0.0573434
0.0654563
0.0654629
0.0654478
0.065421
0.0653853
0.0653423
0.077095
0.0770921
0.0770729
0.077045
0.0770103
0.0769715
0.0933239
0.0933139
0.0932928
0.0932671
0.0932384
0.0932089
0.115245
0.115236
0.115221
0.115205
0.115188
0.115172
0.143617
0.143618
0.143615
0.14361
0.143605
0.143599
0.177926
0.177937
0.177938
0.177935
0.177929
0.177919
0.219578
0.219587
0.21958
0.219567
0.219549
0.219529
0.275859
0.27586
0.275845
0.275826
0.275807
0.275789
0.337071
0.337066
0.337052
0.337042
0.337038
0.337036
57475.3
57475.4
57475.5
57475.5
57475.5
57475.5
49072.4
49072.5
49072.4
49072.4
49072.4
49072.5
26390
26390.2
26390.2
26390.2
26390.1
26390.5
40826.1
40826.1
40826.1
40826.1
40826.1
40826.3
5201.91
5202.08
5202.02
5202.01
5202.03
5202.16
-39.5493
-39.5501
-39.5504
-39.5496
-39.5491
-39.5504
2409.22
2409.26
2409.24
2409.25
2409.29
2409.4
-34.985
-34.9832
-34.9821
-34.9813
-34.9797
-34.9799
-44.4172
-44.4191
-44.4191
-44.4189
-44.4194
-44.42
3.69788
3.69884
3.69786
3.69753
3.70297
3.71054
-10.0646
-10.0661
-10.0665
-10.066
-10.0648
-10.0632
-15.4398
-15.4402
-15.4403
-15.4401
-15.4398
-15.44
-24.9515
-24.9531
-24.9545
-24.9545
-24.9536
-24.9514
-10.8918
-10.8926
-10.8932
-10.8936
-10.8934
-10.8928
-4.69215
-4.69143
-4.69106
-4.69118
-4.69114
-4.69121
-17.299
-17.2988
-17.2985
-17.2983
-17.2978
-17.2972
-12.5155
-12.5157
-12.5155
-12.5155
-12.5156
-12.5154
-3.40812
-3.40812
-3.40822
-3.40831
-3.40838
-3.40847
-21.5867
-21.5871
-21.5873
-21.5875
-21.5876
-21.5877
-10.896
-10.8964
-10.8966
-10.8968
-10.8968
-10.8968
-3.30273
-3.3028
-3.30291
-3.30301
-3.30309
-3.30315
-16.6554
-16.6558
-16.6561
-16.6563
-16.6563
-16.6562
-7.04439
-7.0449
-7.0453
-7.04536
-7.04527
-7.04517
-2.3406
-2.34072
-2.34087
-2.34091
-2.34083
-2.34074
-2.99925
-3.00021
-3.00089
-3.00092
-3.00053
-3.00026
-0.958663
-0.958766
-0.959037
-0.958903
-0.958595
-0.958364
-0.421652
-0.421596
-0.421529
-0.421404
-0.421215
-0.421042
7.55844
7.55791
7.5578
7.55833
7.5591
7.5596
3.86824
3.86833
3.86862
3.86909
3.86963
3.86996
1.01975
1.01981
1.01998
1.02019
1.02043
1.02064
10.406
10.406
10.4066
10.4075
10.4085
10.4091
5.47545
5.47581
5.47638
5.47691
5.47746
5.4778
1.76279
1.76285
1.76307
1.76326
1.76348
1.76367
9.5483
9.5488
9.54941
9.54997
9.55057
9.55099
6.04452
6.04478
6.0451
6.04537
6.04565
6.04585
2.24128
2.24131
2.24136
2.24142
2.24152
2.24159
1.09988
1.09995
1.1
1.10003
1.10006
1.10008
0.854308
0.854359
0.854399
0.854433
0.854468
0.854486
0.352641
0.352661
0.352681
0.352704
0.352723
0.352725
1.49911
1.49918
1.49922
1.49925
1.49927
1.49926
1.19907
1.1991
1.19913
1.19915
1.19917
1.19916
0.492999
0.492997
0.493
0.493017
0.493029
0.493014
2.01054
2.01061
2.01062
2.01064
2.01061
2.01056
1.66463
1.66464
1.66465
1.66465
1.66464
1.66459
0.683996
0.683984
0.683979
0.683989
0.683997
0.68398
2.70917
2.70926
2.70925
2.7092
2.70914
2.70907
2.30935
2.30936
2.30932
2.30926
2.30922
2.30917
0.938498
0.93849
0.938475
0.938465
0.938457
0.938445
3.21884
3.21895
3.21895
3.21889
3.21884
3.21881
3.124
3.12401
3.12392
3.12386
3.12382
3.12379
1.26446
1.26444
1.26441
1.26439
1.26438
1.26437
2.37013
2.37022
2.37037
2.37044
2.37053
2.37062
4.00913
4.00909
4.00906
4.00907
4.00913
4.00917
1.6829
1.68287
1.68284
1.68283
1.68285
1.68286
0.0378718
0.0378906
0.0378856
0.0378679
0.0378431
0.0378139
0.0236989
0.0237052
0.0236981
0.0236839
0.0236648
0.0236423
0.00820849
0.00820775
0.00820355
0.00819744
0.00818918
0.00817819
0.0398788
0.0398878
0.0398761
0.0398535
0.0398223
0.0397826
0.0249902
0.0249908
0.0249799
0.0249625
0.0249391
0.0249096
0.00867037
0.00866817
0.00866299
0.00865593
0.00864631
0.00863325
0.0439584
0.0439632
0.0439493
0.0439256
0.0438939
0.0438551
0.0276395
0.0276375
0.0276255
0.0276075
0.0275841
0.0275556
0.00963091
0.00962815
0.00962276
0.00961562
0.00960617
0.00959387
0.0505702
0.0505692
0.0505534
0.0505294
0.0504988
0.0504632
0.0319903
0.0319854
0.0319725
0.031955
0.0319333
0.0319083
0.01123
0.0112266
0.0112213
0.0112147
0.0112063
0.011196
0.0605
0.060493
0.0604752
0.0604523
0.0604255
0.0603965
0.0386565
0.0386488
0.0386363
0.0386214
0.0386045
0.0385864
0.0137271
0.0137235
0.0137189
0.0137137
0.0137077
0.013701
0.0751444
0.0751337
0.0751182
0.0751012
0.0750835
0.0750659
0.0487387
0.0487315
0.048723
0.0487146
0.0487063
0.0486983
0.0175953
0.017593
0.0175904
0.0175878
0.0175854
0.017583
0.0971477
0.0971426
0.0971353
0.0971289
0.0971231
0.0971176
0.0641766
0.064176
0.0641745
0.064174
0.064174
0.0641729
0.0236844
0.0236848
0.0236847
0.0236847
0.0236848
0.0236842
0.131609
0.131615
0.131616
0.131616
0.131615
0.131611
0.0882895
0.0882952
0.0882968
0.0882975
0.0882964
0.0882925
0.033525
0.0335263
0.0335261
0.0335254
0.0335237
0.0335202
0.187947
0.187955
0.187952
0.187945
0.187934
0.18792
0.126813
0.126815
0.126808
0.126799
0.126788
0.126773
0.0499447
0.0499422
0.0499373
0.0499318
0.0499256
0.0499183
0.281973
0.281972
0.281957
0.281936
0.281914
0.281892
0.19043
0.190421
0.190405
0.190388
0.190372
0.19036
0.0780681
0.0780621
0.0780545
0.0780468
0.078041
0.0780391
0.442687
0.442687
0.442675
0.442662
0.442649
0.442641
0.305969
0.305969
0.305965
0.305962
0.305963
0.30597
0.129361
0.129365
0.129365
0.129365
0.129368
0.129376
0.691239
0.691262
0.691281
0.691298
0.691312
0.691316
0.505622
0.505638
0.505661
0.50569
0.505705
0.505698
0.217728
0.217737
0.217752
0.217767
0.217768
0.217751
)
;

boundaryField
{
    seabed_topleft_surface
    {
        type            fixedFluxPressure;
        gradient        uniform 0;
        value           nonuniform List<scalar> 
72
(
43386
43386
43385.9
43385.9
43385.9
43385.9
42357.3
42357.2
42357.2
42357.2
42357.2
42357.2
39683.3
39683.3
39683.3
39683.2
39683.2
39683.1
35309.1
35309.1
35309.1
35309.1
35309
35309
27273.1
27273.2
27273.2
27273.2
27273.2
27273.1
14961.6
14961.8
14961.8
14961.8
14961.8
14961.7
5770.78
5770.98
5771
5770.97
5770.95
5770.74
500.396
500.462
500.465
500.459
500.455
500.426
81.5326
81.5362
81.5376
81.5374
81.5366
81.5359
72.4782
72.4778
72.4789
72.4793
72.4784
72.4771
72.2579
72.2563
72.2571
72.2586
72.2598
72.2598
63.9023
63.9025
63.9018
63.9015
63.9016
63.9016
)
;
    }
    seabed_topright_surface
    {
        type            fixedFluxPressure;
        gradient        uniform 0;
        value           nonuniform List<scalar> 
72
(
0.0687142
0.068788
0.0688113
0.0688113
0.0688013
0.0687907
0.0715382
0.0715911
0.0716
0.0715892
0.0715668
0.071536
0.0770322
0.0770791
0.0770837
0.07707
0.0770454
0.0770134
0.0854727
0.0855155
0.0855186
0.0855042
0.0854794
0.085448
0.0971543
0.0971893
0.09719
0.0971733
0.097146
0.0971143
0.112403
0.112423
0.112419
0.112398
0.112367
0.112334
0.131531
0.131531
0.131521
0.131496
0.131465
0.131436
0.154801
0.154788
0.154777
0.154756
0.154733
0.154714
0.182479
0.182464
0.182457
0.182447
0.182439
0.182434
0.213089
0.21308
0.213082
0.213085
0.213089
0.213094
0.241897
0.241896
0.241905
0.241914
0.241923
0.24193
0.267799
0.267804
0.267813
0.267822
0.267829
0.267833
)
;
    }
    breakwater_top_surface
    {
        type            fixedFluxPressure;
        gradient        uniform 0;
        value           nonuniform List<scalar> 
36
(
1.09988
1.09995
1.1
1.10003
1.10006
1.10008
1.49911
1.49918
1.49922
1.49925
1.49927
1.49926
2.01054
2.01061
2.01062
2.01064
2.01061
2.01056
2.70917
2.70926
2.70925
2.7092
2.70914
2.70907
3.21884
3.21895
3.21895
3.21889
3.21884
3.21881
2.37013
2.37022
2.37037
2.37044
2.37053
2.37062
)
;
    }
    breakwater_left_surface
    {
        type            fixedFluxPressure;
        gradient        uniform 0;
        value           nonuniform List<scalar> 
24
(
63.9023
63.9025
63.9018
63.9015
63.9016
63.9016
51.2743
51.2754
51.275
51.2747
51.2747
51.2745
32.3423
32.3424
32.3427
32.3434
32.3441
32.3444
18.5854
18.5845
18.5843
18.5846
18.5852
18.5857
)
;
    }
    breakwater_right_surface
    {
        type            fixedFluxPressure;
        gradient        uniform 0;
        value           nonuniform List<scalar> 
24
(
0.267799
0.267804
0.267813
0.267822
0.267829
0.267833
0.2806
0.28061
0.280616
0.280619
0.280617
0.280614
0.363661
0.363668
0.363663
0.363653
0.363641
0.363631
0.337071
0.337066
0.337052
0.337042
0.337038
0.337036
)
;
    }
    water_front_surface
    {
        type            fixedFluxPressure;
        gradient        uniform 0;
        value           nonuniform List<scalar> 
186
(
43386
42357.3
39683.3
35309.1
27273.1
14961.6
5770.78
500.396
81.5326
72.4782
72.2579
63.9023
43860
42301.3
39042.9
33402.6
18833.8
2915.72
-74.623
-171.16
18.2759
58.0744
56.879
51.2743
44946
42562.7
38404.2
27455
4438.1
15.3661
-57.8438
-76.9232
-17.2117
29.491
31.8563
32.3423
44974.8
43465.1
31001.5
3716.86
-30.385
-12.9288
-32.0818
-39.079
-11.2868
13.0282
18.4224
18.5854
0.0687142
0.0715382
0.0770322
0.0854727
0.0971543
0.112403
0.131531
0.154801
0.182479
0.213089
0.241897
0.267799
0.0656382
0.0684774
0.0740716
0.0827283
0.094801
0.110683
0.130675
0.154656
0.181745
0.212233
0.245563
0.2806
0.0592804
0.0620314
0.0675009
0.0760665
0.0882403
0.104746
0.126678
0.155945
0.195899
0.247283
0.302166
0.363661
0.0499045
0.0524119
0.0574494
0.0654563
0.077095
0.0933239
0.115245
0.143617
0.177926
0.219578
0.275859
0.337071
57475.3
49072.4
26390
40826.1
5201.91
-39.5493
2409.22
-34.985
-44.4172
3.69788
-10.0646
-15.4398
-24.9515
-10.8918
-4.69215
-17.299
-12.5155
-3.40812
-21.5867
-10.896
-3.30273
-16.6554
-7.04439
-2.3406
-2.99925
-0.958663
-0.421652
7.55844
3.86824
1.01975
10.406
5.47545
1.76279
9.5483
6.04452
2.24128
1.09988
0.854308
0.352641
1.49911
1.19907
0.492999
2.01054
1.66463
0.683996
2.70917
2.30935
0.938498
3.21884
3.124
1.26446
2.37013
4.00913
1.6829
0.0378718
0.0236989
0.00820849
0.0398788
0.0249902
0.00867037
0.0439584
0.0276395
0.00963091
0.0505702
0.0319903
0.01123
0.0605
0.0386565
0.0137271
0.0751444
0.0487387
0.0175953
0.0971477
0.0641766
0.0236844
0.131609
0.0882895
0.033525
0.187947
0.126813
0.0499447
0.281973
0.19043
0.0780681
0.442687
0.305969
0.129361
0.691239
0.505622
0.217728
)
;
    }
    water_back_surface
    {
        type            fixedFluxPressure;
        gradient        uniform 0;
        value           nonuniform List<scalar> 
186
(
43385.9
42357.2
39683.1
35309
27273.1
14961.7
5770.74
500.426
81.5359
72.4771
72.2598
63.9016
43860.1
42301.2
39042.7
33402.5
18834
2915.8
-74.6192
-171.147
18.2658
58.0741
56.8805
51.2745
44946.1
42562.7
38404.2
27455.4
4438.44
15.3674
-57.8386
-76.9242
-17.2119
29.4962
31.8604
32.3444
44974.8
43465.2
31001.8
3717.26
-30.3837
-12.9274
-32.0821
-39.0795
-11.2827
13.0326
18.4253
18.5857
0.0687907
0.071536
0.0770134
0.085448
0.0971143
0.112334
0.131436
0.154714
0.182434
0.213094
0.24193
0.267833
0.0656324
0.0684074
0.0739905
0.0826416
0.0946971
0.110555
0.130545
0.154569
0.181726
0.212258
0.245589
0.280614
0.0592483
0.0619423
0.0674018
0.0759592
0.0881157
0.10461
0.126566
0.155891
0.195895
0.247278
0.302132
0.363631
0.0498569
0.0523152
0.0573434
0.0653423
0.0769715
0.0932089
0.115172
0.143599
0.177919
0.219529
0.275789
0.337036
57475.5
49072.5
26390.5
40826.3
5202.16
-39.5504
2409.4
-34.9799
-44.42
3.71054
-10.0632
-15.44
-24.9514
-10.8928
-4.69121
-17.2972
-12.5154
-3.40847
-21.5877
-10.8968
-3.30315
-16.6562
-7.04517
-2.34074
-3.00026
-0.958364
-0.421042
7.5596
3.86996
1.02064
10.4091
5.4778
1.76367
9.55099
6.04585
2.24159
1.10008
0.854486
0.352725
1.49926
1.19916
0.493014
2.01056
1.66459
0.68398
2.70907
2.30917
0.938445
3.21881
3.12379
1.26437
2.37062
4.00917
1.68286
0.0378139
0.0236423
0.00817819
0.0397826
0.0249096
0.00863325
0.0438551
0.0275556
0.00959387
0.0504632
0.0319083
0.011196
0.0603965
0.0385864
0.013701
0.0750659
0.0486983
0.017583
0.0971176
0.0641729
0.0236842
0.131611
0.0882925
0.0335202
0.18792
0.126773
0.0499183
0.281892
0.19036
0.0780391
0.442641
0.30597
0.129376
0.691316
0.505698
0.217751
)
;
    }
    water_left_surface
    {
        type            fixedFluxPressure;
        gradient        uniform 0;
        value           nonuniform List<scalar> 
42
(
43386
43386
43385.9
43385.9
43385.9
43385.9
43860
43860
43860
43860.1
43860.1
43860.1
44946
44946
44946
44946.1
44946.1
44946.1
44974.8
44974.8
44974.8
44974.8
44974.8
44974.8
57475.3
57475.4
57475.5
57475.5
57475.5
57475.5
49072.4
49072.5
49072.4
49072.4
49072.4
49072.5
26390
26390.2
26390.2
26390.2
26390.1
26390.5
)
;
    }
    water_right_surface
    {
        type            fixedFluxPressure;
        gradient        uniform 0;
        value           nonuniform List<scalar> 
42
(
0.0687142
0.068788
0.0688113
0.0688113
0.0688013
0.0687907
0.0656382
0.0656893
0.0656987
0.0656871
0.0656639
0.0656324
0.0592804
0.0593214
0.0593249
0.0593086
0.0592817
0.0592483
0.0499045
0.0499353
0.0499345
0.0499164
0.0498893
0.0498569
0.0378718
0.0378906
0.0378856
0.0378679
0.0378431
0.0378139
0.0236989
0.0237052
0.0236981
0.0236839
0.0236648
0.0236423
0.00820849
0.00820775
0.00820355
0.00819744
0.00818918
0.00817819
)
;
    }
    water_top_surface
    {
        type            totalPressure;
        rho             rho;
        psi             none;
        gamma           1;
        p0              uniform 0;
        value           nonuniform List<scalar> 
180
(
0
0
0
0
0
0
-52.118
-52.1287
-52.1275
-52.1257
-52.1239
-52.1234
-27.7911
-27.7978
-27.7956
-27.7944
-27.7952
-27.7943
-8.05239
-8.05213
-8.05189
-8.05137
-8.05144
-8.05167
-0.922952
-0.922202
-0.922452
-0.922661
-0.922827
-0.922887
-0.0403676
-0.0404206
-0.0404505
-0.0404637
-0.0404824
-0.0404959
-0.0157562
-0.0157782
-0.0157902
-0.015798
-0.0158038
-0.015808
0
0
0
0
0
0
0
0
0
0
0
0
0
0
0
0
0
0
0
0
0
0
0
0
0
0
0
0
0
0
0
0
0
0
0
0
0
0
0
0
0
0
0
0
0
0
0
0
0
0
0
0
0
0
0
0
0
0
0
0
0
0
0
0
0
0
0
0
0
0
0
0
0
0
0
0
0
0
0
0
0
0
0
0
0
0
0
0
0
0
0
0
0
0
0
0
0
0
0
0
0
0
0
0
0
0
0
0
0
0
0
0
0
0
0
0
0
0
0
0
0
0
0
0
0
0
0
0
0
0
0
0
0
0
0
0
0
0
)
;
    }
}


// ************************************************************************* //
