/*--------------------------------*- C++ -*----------------------------------*\
| =========                 |                                                 |
| \\      /  F ield         | OpenFOAM: The Open Source CFD Toolbox           |
|  \\    /   O peration     | Version:  v1612+                                |
|   \\  /    A nd           | Web:      www.OpenFOAM.com                      |
|    \\/     M anipulation  |                                                 |
\*---------------------------------------------------------------------------*/
FoamFile
{
    version     2.0;
    format      ascii;
    class       volVectorField;
    location    "1.15";
    object      U;
}
// * * * * * * * * * * * * * * * * * * * * * * * * * * * * * * * * * * * * * //

dimensions      [0 1 -1 0 0 0 0];

internalField   nonuniform List<vector> 
1116
(
(0.347468 1.49135e-07 -0.360244)
(0.347469 1.20839e-07 -0.360245)
(0.347469 1.69201e-07 -0.360246)
(0.347468 5.39928e-07 -0.360246)
(0.347468 9.05155e-07 -0.360246)
(0.347468 5.8343e-07 -0.360245)
(0.94319 6.03545e-07 -0.466046)
(0.943193 8.04185e-07 -0.466048)
(0.943192 1.42257e-06 -0.466048)
(0.943191 1.86866e-06 -0.466047)
(0.943191 1.47569e-06 -0.466046)
(0.94319 1.46083e-07 -0.466045)
(2.07669 1.43121e-06 -0.657526)
(2.0767 4.40534e-06 -0.657527)
(2.07669 6.87176e-06 -0.657523)
(2.07669 6.12325e-06 -0.65752)
(2.07669 4.0384e-06 -0.657518)
(2.07669 5.1757e-07 -0.657516)
(3.35357 -2.34828e-06 -0.882767)
(3.35358 2.05507e-06 -0.882774)
(3.35357 7.56905e-06 -0.882769)
(3.35357 7.36737e-06 -0.882765)
(3.35357 5.18023e-06 -0.882763)
(3.35357 2.32686e-06 -0.882762)
(4.79012 -6.61358e-06 -0.903464)
(4.79012 -1.03071e-06 -0.903488)
(4.79011 9.29622e-06 -0.903483)
(4.79011 1.26856e-05 -0.903482)
(4.79011 1.27945e-05 -0.903483)
(4.79012 8.10134e-06 -0.903474)
(6.40602 -4.11751e-06 -1.27183)
(6.40607 -4.81061e-06 -1.27181)
(6.40607 -8.19644e-07 -1.2718)
(6.40607 5.10396e-06 -1.2718)
(6.40608 -2.4674e-06 -1.27181)
(6.40607 -3.27737e-06 -1.27179)
(8.18913 1.84329e-05 -1.7186)
(8.18928 1.97646e-05 -1.71857)
(8.18925 -2.72604e-06 -1.71855)
(8.18925 -3.50255e-06 -1.71855)
(8.18929 -1.88695e-05 -1.71859)
(8.18922 -1.10538e-05 -1.71855)
(10.4782 3.96222e-05 -1.37331)
(10.4782 4.84987e-05 -1.37334)
(10.4782 -8.9355e-06 -1.3733)
(10.4782 -2.64563e-05 -1.3733)
(10.4783 -7.00699e-05 -1.37334)
(10.4782 -3.47275e-05 -1.37322)
(12.3865 -4.32946e-05 0.500928)
(12.3863 -5.71907e-05 0.500917)
(12.3863 -3.24023e-05 0.500908)
(12.3864 1.02213e-05 0.500885)
(12.3864 2.46512e-05 0.500826)
(12.3861 5.13765e-05 0.501087)
(6.78284 8.0003e-05 1.49289)
(6.78294 7.17056e-05 1.4928)
(6.78285 2.80918e-05 1.49274)
(6.783 0.000132504 1.49274)
(6.78316 0.000135678 1.4928)
(6.78269 8.36811e-05 1.49292)
(3.23504 6.10556e-05 1.39471)
(3.23563 0.000227821 1.39467)
(3.23558 0.000360186 1.39469)
(3.23558 0.000446243 1.39477)
(3.23564 0.000410018 1.39493)
(3.23549 0.000173383 1.3951)
(1.39922 1.01382e-05 1.11564)
(1.39954 9.02473e-05 1.11582)
(1.39956 0.000186556 1.11588)
(1.39952 0.000233737 1.11593)
(1.39949 0.00022669 1.11599)
(1.39943 0.000101895 1.11607)
(0.301119 6.16381e-08 -0.922662)
(0.301119 -2.22717e-07 -0.922664)
(0.301118 -4.47681e-07 -0.922665)
(0.301117 -3.22029e-07 -0.922664)
(0.301117 -2.0738e-07 -0.922664)
(0.301117 1.34666e-07 -0.922661)
(0.73234 1.68498e-06 -1.22899)
(0.732342 2.6645e-06 -1.22899)
(0.732339 2.04448e-06 -1.22899)
(0.732337 1.07609e-06 -1.22899)
(0.732338 -2.01103e-07 -1.22898)
(0.732337 -5.5235e-07 -1.22898)
(1.84599 3.69161e-06 -1.70078)
(1.846 1.10034e-05 -1.70078)
(1.84599 8.49309e-06 -1.70077)
(1.84599 4.74841e-06 -1.70077)
(1.84599 3.11163e-06 -1.70077)
(1.84599 2.88682e-06 -1.70076)
(2.51461 6.64938e-07 -2.23515)
(2.51465 1.13493e-05 -2.23516)
(2.51465 9.02856e-06 -2.23515)
(2.51465 6.64584e-06 -2.23514)
(2.51465 3.87735e-06 -2.23514)
(2.51464 7.02507e-06 -2.23514)
(4.05283 -1.10861e-05 -2.91516)
(4.05287 -3.64265e-06 -2.91525)
(4.05287 1.64688e-05 -2.91523)
(4.05287 1.36677e-05 -2.91523)
(4.05287 1.41391e-05 -2.91523)
(4.05287 7.69924e-06 -2.91521)
(6.43978 8.2702e-07 -3.07906)
(6.43992 -3.62899e-06 -3.07926)
(6.43992 1.24068e-05 -3.07924)
(6.43993 8.38551e-06 -3.07923)
(6.43994 1.0408e-05 -3.07925)
(6.43991 -3.23191e-06 -3.07923)
(7.31903 4.15232e-05 -4.39527)
(7.31965 -3.40827e-05 -4.39524)
(7.31959 -0.000100604 -4.39521)
(7.31962 -7.96433e-05 -4.39521)
(7.31975 -0.000135274 -4.39533)
(7.31975 -0.00012548 -4.39527)
(12.308 -0.000114558 0.566049)
(12.3083 -0.000234778 0.566061)
(12.3082 -0.000242416 0.566058)
(12.3082 -0.000179266 0.566047)
(12.3084 -0.000300627 0.565928)
(12.3079 -0.000195501 0.566136)
(9.85312 -3.89372e-06 4.21981)
(9.85359 -0.000172156 4.2199)
(9.85332 -0.000282501 4.21984)
(9.85333 -0.000112384 4.21978)
(9.8537 -0.000236925 4.21969)
(9.85249 -0.00015489 4.21983)
(4.22065 4.782e-05 5.11608)
(4.22108 0.000151042 5.11597)
(4.22079 0.00021401 5.11582)
(4.22087 0.000294612 5.11581)
(4.22132 0.000236634 5.11596)
(4.22068 8.86038e-05 5.11608)
(3.03321 0.000105502 3.62602)
(3.03385 0.000261087 3.62604)
(3.03394 0.000247371 3.62616)
(3.03404 0.000178788 3.62637)
(3.03423 0.000175219 3.62673)
(3.03418 9.21367e-05 3.62706)
(1.5174 -8.09838e-05 2.92614)
(1.51781 -9.04044e-05 2.92652)
(1.5179 2.09237e-05 2.9267)
(1.51793 6.58227e-05 2.92684)
(1.51798 7.91618e-05 2.92702)
(1.51796 3.98037e-05 2.9272)
(0.146633 1.66507e-06 -1.23945)
(0.146634 2.62271e-06 -1.23946)
(0.146633 2.92486e-06 -1.23945)
(0.146632 3.04296e-06 -1.23945)
(0.146632 2.73641e-06 -1.23945)
(0.146632 1.43671e-06 -1.23945)
(0.301137 3.86846e-06 -1.86444)
(0.301142 1.01852e-05 -1.86445)
(0.30114 7.48049e-06 -1.86444)
(0.301139 3.86604e-06 -1.86444)
(0.301141 3.69416e-06 -1.86444)
(0.301142 3.36884e-06 -1.86443)
(0.963885 2.97985e-06 -2.35407)
(0.963928 1.40424e-05 -2.35407)
(0.963935 3.70324e-06 -2.35406)
(0.963939 3.54323e-06 -2.35405)
(0.963944 -2.64418e-07 -2.35405)
(0.963937 7.398e-06 -2.35404)
(1.49499 1.39838e-05 -3.65588)
(1.49504 1.35103e-05 -3.65592)
(1.49505 2.03223e-05 -3.6559)
(1.49504 1.04251e-05 -3.6559)
(1.49504 2.80073e-05 -3.65591)
(1.49502 1.2547e-05 -3.65589)
(3.81263 5.75794e-05 -5.08392)
(3.81278 3.49232e-05 -5.08413)
(3.81279 4.45402e-05 -5.08409)
(3.8128 -1.12376e-06 -5.08408)
(3.8128 2.57861e-05 -5.08409)
(3.81276 -1.75508e-05 -5.08404)
(5.69178 7.59422e-05 -4.0051)
(5.69215 3.96385e-05 -4.00558)
(5.69213 4.81376e-05 -4.0055)
(5.69213 -9.34069e-06 -4.0055)
(5.69222 3.37588e-05 -4.0056)
(5.69213 -2.2839e-05 -4.00565)
(3.27988 -9.69544e-05 -4.5025)
(3.28097 -0.000243031 -4.50248)
(3.2807 -0.000226738 -4.50254)
(3.28072 -0.00015447 -4.50256)
(3.28109 -0.000151049 -4.50275)
(3.28114 -0.000128806 -4.5028)
(0.132974 -5.23571e-05 0.649058)
(0.133691 -9.66663e-05 0.648846)
(0.133282 -0.000129559 0.648712)
(0.13327 -5.45179e-05 0.648737)
(0.133769 -0.00019572 0.648621)
(0.13357 -0.000187374 0.648691)
(0.964785 -7.40493e-05 6.74659)
(0.965212 -1.01445e-05 6.74668)
(0.964903 6.90937e-05 6.74651)
(0.964901 4.71727e-05 6.74639)
(0.965487 -7.33401e-05 6.74642)
(0.964904 -7.81534e-05 6.7463)
(0.934774 4.70218e-05 6.17028)
(0.934897 0.000169866 6.1701)
(0.934898 0.000153311 6.17002)
(0.935009 3.84042e-05 6.17002)
(0.93542 2.21941e-05 6.1703)
(0.935275 1.64817e-05 6.17019)
(1.38606 -9.1925e-06 4.29136)
(1.38633 -6.73542e-05 4.29149)
(1.38646 -0.000152857 4.29171)
(1.38656 -0.000216938 4.29199)
(1.38676 -0.000196701 4.29245)
(1.38673 -7.64114e-05 4.29267)
(1.08432 -0.000125737 3.79378)
(1.08451 -0.000241979 3.79413)
(1.08455 -0.000202665 3.79432)
(1.08457 -0.000146175 3.79453)
(1.08459 -8.68987e-05 3.79475)
(1.08454 -3.13032e-05 3.79492)
(-0.280965 6.52145e-06 -1.91729)
(-0.280965 1.07602e-05 -1.91729)
(-0.280965 7.09687e-06 -1.91729)
(-0.280964 4.73425e-06 -1.91728)
(-0.280963 4.95049e-06 -1.91728)
(-0.280959 2.84994e-06 -1.91728)
(-0.472013 3.85282e-06 -2.11629)
(-0.471981 1.05901e-05 -2.11629)
(-0.471977 3.52635e-06 -2.11629)
(-0.471975 3.30734e-06 -2.11629)
(-0.471973 1.21709e-06 -2.11629)
(-0.471968 4.65604e-06 -2.11628)
(-0.243112 1.52128e-05 -3.18674)
(-0.243091 6.55739e-06 -3.18676)
(-0.243085 7.99528e-06 -3.18675)
(-0.243085 2.39022e-06 -3.18675)
(-0.243088 1.33067e-05 -3.18675)
(-0.24308 -1.01893e-06 -3.18671)
(2.38076 3.80399e-05 -6.02751)
(2.38094 -1.50072e-05 -6.02753)
(2.38094 3.61189e-05 -6.0275)
(2.38093 -2.30643e-05 -6.0275)
(2.38091 6.57459e-08 -6.0275)
(2.3809 -6.27782e-05 -6.0274)
(4.11181 6.44768e-05 -6.83358)
(4.11209 3.09078e-06 -6.83393)
(4.11214 0.0001241 -6.83387)
(4.11216 4.91016e-05 -6.83388)
(4.11214 0.000182364 -6.83394)
(4.11191 2.61787e-05 -6.8339)
(2.0916 5.17562e-05 -0.108959)
(2.09255 -2.1465e-06 -0.109399)
(2.09234 -6.70759e-06 -0.109273)
(2.09233 7.42417e-06 -0.109304)
(2.09257 5.09308e-05 -0.1096)
(2.09233 1.19313e-06 -0.109895)
(-2.47806 -8.00671e-05 0.298797)
(-2.47813 7.87923e-05 0.298834)
(-2.47837 0.00024419 0.298706)
(-2.47831 0.000216383 0.29869)
(-2.47801 0.00020007 0.29855)
(-2.4778 6.87098e-05 0.2982)
(-3.3006 3.25644e-05 2.87918)
(-3.30069 0.000185678 2.87927)
(-3.3007 0.000198473 2.87921)
(-3.3006 0.000126989 2.87921)
(-3.30029 4.22977e-05 2.87913)
(-3.30032 -2.95044e-05 2.87869)
(-1.94833 -9.42501e-06 5.34903)
(-1.94854 9.97813e-05 5.34923)
(-1.94845 0.00011608 5.34912)
(-1.9483 -1.28176e-05 5.34902)
(-1.94798 -2.20249e-05 5.34905)
(-1.94791 7.64194e-07 5.34859)
(-0.21897 5.30339e-05 4.73041)
(-0.218962 1.14117e-05 4.73041)
(-0.2188 -0.000134166 4.73042)
(-0.218652 -0.000228257 4.73045)
(-0.218427 -0.000215116 4.73072)
(-0.218394 -8.17205e-05 4.73044)
(0.544153 -8.05797e-05 3.901)
(0.544322 -0.000255923 3.90116)
(0.54437 -0.000366684 3.9013)
(0.544413 -0.000378972 3.90152)
(0.544475 -0.00031913 3.90189)
(0.544378 -0.000132074 3.90192)
(0.798886 -8.27343e-05 3.76133)
(0.798988 -0.000155899 3.76154)
(0.798981 -0.000149402 3.76165)
(0.798977 -0.000130984 3.76181)
(0.798966 -8.89687e-05 3.76199)
(0.798887 -3.40934e-05 3.76207)
(0.000684218 -4.66703e-07 0.00069368)
(0.000684191 -6.74893e-07 0.000693772)
(0.000684157 -2.12853e-07 0.000693814)
(0.000684121 3.96246e-08 0.000693849)
(0.000684074 1.0473e-07 0.00069389)
(0.000683994 6.06831e-08 0.000693935)
(0.00207791 -3.80894e-07 0.000720474)
(0.0020779 -5.15121e-07 0.00072055)
(0.00207784 -6.82158e-08 0.000720594)
(0.00207778 2.10764e-07 0.000720615)
(0.00207771 3.3692e-07 0.000720652)
(0.00207757 1.9981e-07 0.000720689)
(0.00354688 -3.65327e-07 0.000771434)
(0.00354691 -4.37486e-07 0.000771505)
(0.00354684 4.80157e-08 0.000771544)
(0.00354679 3.20411e-07 0.000771567)
(0.00354673 4.42907e-07 0.000771607)
(0.00354661 2.50778e-07 0.000771651)
(0.00513446 -2.85289e-07 0.000840347)
(0.00513444 -2.69215e-07 0.000840406)
(0.00513433 1.97654e-07 0.000840442)
(0.00513427 4.37908e-07 0.000840468)
(0.00513423 5.44341e-07 0.000840509)
(0.00513409 2.96709e-07 0.000840563)
(0.00686683 -1.09142e-07 0.000914614)
(0.00686675 4.25063e-08 0.00091466)
(0.00686661 3.80509e-07 0.000914689)
(0.00686658 5.18804e-07 0.000914718)
(0.00686657 5.84302e-07 0.000914763)
(0.00686643 3.03596e-07 0.000914817)
(0.00873755 1.57165e-07 0.0009702)
(0.00873744 4.19364e-07 0.000970224)
(0.0087374 4.85326e-07 0.000970218)
(0.00873742 4.81074e-07 0.00097025)
(0.0087375 4.90899e-07 0.000970278)
(0.0087374 2.42386e-07 0.000970298)
(0.0106856 4.27733e-07 0.000966489)
(0.0106856 6.22948e-07 0.00096644)
(0.0106857 3.41356e-07 0.000966413)
(0.0106858 2.46589e-07 0.0009664)
(0.010686 1.59141e-07 0.000966398)
(0.010686 6.7551e-08 0.000966356)
(0.0125771 5.72192e-07 0.000860407)
(0.0125773 5.85663e-07 0.000860251)
(0.0125775 -1.40437e-08 0.00086018)
(0.0125777 -1.38667e-07 0.000860098)
(0.0125779 -2.79524e-07 0.00086003)
(0.0125778 -1.61399e-07 0.000859907)
(0.0140697 5.54004e-07 0.000636852)
(0.0140702 4.15328e-07 0.000636563)
(0.0140704 -3.47148e-07 0.000636455)
(0.0140706 -4.79573e-07 0.00063635)
(0.0140707 -6.20682e-07 0.00063627)
(0.0140706 -3.46627e-07 0.000636142)
(0.0142933 4.4536e-07 0.00012311)
(0.0142939 2.01995e-07 0.000122746)
(0.0142941 -5.44936e-07 0.000122689)
(0.0142941 -6.378e-07 0.000122644)
(0.0142942 -7.65582e-07 0.000122646)
(0.0142939 -4.31099e-07 0.000122645)
(0.0128501 3.45021e-07 -0.0013857)
(0.0128507 4.92887e-08 -0.00138598)
(0.0128508 -5.82447e-07 -0.00138594)
(0.0128509 -6.37917e-07 -0.0013859)
(0.0128508 -7.59731e-07 -0.0013858)
(0.0128503 -4.30139e-07 -0.00138562)
(0.00668166 -3.83836e-08 -0.00445101)
(0.00668205 -4.20586e-07 -0.00445126)
(0.00668211 -8.00859e-07 -0.0044513)
(0.00668214 -8.35976e-07 -0.00445132)
(0.00668211 -8.40769e-07 -0.00445128)
(0.0066818 -4.03751e-07 -0.00445107)
(0.000671911 -3.06712e-07 0.0020282)
(0.000671896 -4.33315e-07 0.00202837)
(0.000671857 -5.5642e-08 0.00202844)
(0.000671833 1.95887e-07 0.00202849)
(0.00067179 3.11875e-07 0.00202854)
(0.000671717 1.80389e-07 0.00202856)
(0.00204413 -2.43548e-07 0.00211079)
(0.00204414 -2.842e-07 0.00211093)
(0.00204407 7.85708e-08 0.002111)
(0.00204402 3.39294e-07 0.00211103)
(0.00204396 5.28244e-07 0.00211107)
(0.00204383 3.08457e-07 0.00211107)
(0.00350174 -2.2678e-07 0.0022696)
(0.00350178 -2.09505e-07 0.00226974)
(0.00350172 1.93785e-07 0.00226979)
(0.00350167 4.5368e-07 0.00226983)
(0.00350162 6.42383e-07 0.00226987)
(0.0035015 3.6545e-07 0.00226988)
(0.00509748 -1.56906e-07 0.00248838)
(0.00509749 -6.18387e-08 0.0024885)
(0.0050974 3.28095e-07 0.00248855)
(0.00509736 5.50467e-07 0.00248859)
(0.00509734 7.27506e-07 0.00248864)
(0.00509721 4.10191e-07 0.00248867)
(0.00687173 -2.06987e-08 0.00273113)
(0.0068717 1.69356e-07 0.00273124)
(0.00687163 4.42594e-07 0.00273128)
(0.00687162 5.71928e-07 0.00273132)
(0.00687165 7.01761e-07 0.00273138)
(0.00687156 3.8228e-07 0.00273141)
(0.00883613 1.5842e-07 0.00292528)
(0.00883613 3.4263e-07 0.00292535)
(0.00883615 4.00116e-07 0.00292535)
(0.00883622 4.37349e-07 0.00292538)
(0.00883634 4.60285e-07 0.00292542)
(0.00883632 2.38317e-07 0.00292539)
(0.0109277 2.65746e-07 0.00292677)
(0.0109279 3.39145e-07 0.0029267)
(0.010928 1.41817e-07 0.00292663)
(0.0109282 1.09466e-07 0.00292658)
(0.0109284 3.17183e-08 0.00292655)
(0.0109285 -1.07823e-08 0.00292643)
(0.0129478 2.83343e-07 0.00245111)
(0.0129482 1.86265e-07 0.00245077)
(0.0129484 -2.31858e-07 0.00245061)
(0.0129487 -3.20884e-07 0.00245046)
(0.0129489 -4.86166e-07 0.00245034)
(0.0129489 -3.03447e-07 0.00245016)
(0.0146392 1.49633e-07 0.000916283)
(0.0146399 -4.34483e-08 0.000915696)
(0.0146401 -4.38048e-07 0.000915495)
(0.0146403 -5.13134e-07 0.000915347)
(0.0146404 -7.21447e-07 0.000915271)
(0.0146402 -4.59241e-07 0.000915224)
(0.0158942 -4.22414e-08 -0.00255466)
(0.015895 -2.38936e-07 -0.00255525)
(0.0158951 -4.4356e-07 -0.00255528)
(0.0158951 -4.87447e-07 -0.00255524)
(0.0158949 -6.73811e-07 -0.00255511)
(0.0158943 -4.42945e-07 -0.00255481)
(0.0159196 -1.17933e-07 -0.007642)
(0.0159201 -3.3373e-07 -0.0076424)
(0.0159201 -4.43612e-07 -0.00764225)
(0.0159199 -4.86531e-07 -0.00764205)
(0.0159196 -6.43685e-07 -0.00764176)
(0.0159186 -4.1186e-07 -0.00764112)
(0.0106036 -4.28993e-07 -0.0169121)
(0.0106039 -9.2035e-07 -0.0169127)
(0.0106038 -1.00991e-06 -0.0169127)
(0.0106037 -9.56814e-07 -0.0169126)
(0.0106035 -8.90293e-07 -0.0169123)
(0.0106029 -4.08132e-07 -0.0169116)
(0.000631278 -2.17503e-07 0.00328736)
(0.000631266 -2.85143e-07 0.00328751)
(0.000631231 3.65715e-08 0.00328756)
(0.000631208 2.57401e-07 0.00328758)
(0.00063117 3.52824e-07 0.00328759)
(0.000631103 1.93673e-07 0.00328751)
(0.0019276 -1.64057e-07 0.00343498)
(0.00192761 -1.51413e-07 0.00343512)
(0.00192755 1.62822e-07 0.00343516)
(0.0019275 3.88094e-07 0.00343517)
(0.00192744 5.45885e-07 0.00343516)
(0.00192732 3.0831e-07 0.00343506)
(0.00332801 -1.42091e-07 0.00372379)
(0.00332805 -7.62935e-08 0.00372393)
(0.00332799 2.69058e-07 0.00372396)
(0.00332795 4.90761e-07 0.00372396)
(0.00332791 6.48317e-07 0.00372396)
(0.00332779 3.61155e-07 0.00372386)
(0.00490756 -7.98085e-08 0.00413529)
(0.00490758 5.21553e-08 0.00413543)
(0.00490752 3.73585e-07 0.00413546)
(0.0049075 5.56973e-07 0.00413547)
(0.00490749 7.01843e-07 0.00413547)
(0.00490739 3.86777e-07 0.00413537)
(0.006746 3.14311e-08 0.00462257)
(0.00674602 1.98566e-07 0.00462272)
(0.00674601 4.07548e-07 0.00462273)
(0.00674603 5.25483e-07 0.00462275)
(0.00674609 6.19166e-07 0.00462275)
(0.00674604 3.34197e-07 0.00462265)
(0.00893281 1.3994e-07 0.00508411)
(0.00893292 2.55867e-07 0.00508422)
(0.008933 2.7381e-07 0.00508421)
(0.00893312 3.20689e-07 0.00508421)
(0.00893328 3.37014e-07 0.0050842)
(0.0089333 1.74001e-07 0.00508407)
(0.0115935 1.39133e-07 0.00533151)
(0.0115938 1.17176e-07 0.00533146)
(0.011594 -2.47006e-08 0.00533138)
(0.0115942 -2.5233e-08 0.00533132)
(0.0115945 -7.6348e-08 0.00533126)
(0.0115945 -5.38079e-08 0.00533108)
(0.0149853 -4.91962e-10 0.00507783)
(0.0149859 -1.58108e-07 0.0050775)
(0.0149861 -3.14298e-07 0.00507733)
(0.0149864 -3.20609e-07 0.00507722)
(0.0149866 -4.06088e-07 0.00507717)
(0.0149864 -2.39326e-07 0.00507709)
(0.0192181 -2.16609e-07 0.00399935)
(0.0192188 -4.09486e-07 0.00399892)
(0.0192189 -3.83627e-07 0.00399884)
(0.019219 -3.53613e-07 0.00399886)
(0.019219 -4.17538e-07 0.00399899)
(0.0192184 -2.50025e-07 0.00399924)
(0.0224285 -3.33426e-07 0.00152221)
(0.0224291 -4.654e-07 0.00152206)
(0.0224289 -2.91768e-07 0.00152235)
(0.0224286 -2.77298e-07 0.00152272)
(0.0224283 -3.04094e-07 0.00152318)
(0.0224273 -1.74006e-07 0.00152385)
(0.0242463 -5.30135e-07 -0.00430218)
(0.0242465 -8.26193e-07 -0.0043021)
(0.0242461 -5.73098e-07 -0.00430154)
(0.0242455 -4.72372e-07 -0.0043009)
(0.0242448 -3.65633e-07 -0.0043002)
(0.0242435 -1.40163e-07 -0.0042993)
(0.0157659 -9.65603e-07 -0.0177996)
(0.0157662 -1.54054e-06 -0.0178001)
(0.0157659 -1.17883e-06 -0.0177999)
(0.0157655 -7.78013e-07 -0.0177995)
(0.015765 -3.70206e-07 -0.017799)
(0.0157642 3.57123e-08 -0.017798)
(0.000557355 -1.4313e-07 0.00441604)
(0.000557347 -1.67915e-07 0.0044162)
(0.000557315 8.52064e-08 0.00441624)
(0.000557296 2.61375e-07 0.00441624)
(0.000557263 3.3682e-07 0.00441623)
(0.000557208 1.80413e-07 0.00441611)
(0.00171091 -9.76757e-08 0.0046413)
(0.00171092 -5.14272e-08 0.00464145)
(0.00171087 1.96405e-07 0.00464147)
(0.00171083 3.74521e-07 0.00464146)
(0.00171078 4.9677e-07 0.00464143)
(0.00171068 2.72888e-07 0.00464128)
(0.00298721 -7.24368e-08 0.00509108)
(0.00298724 1.89775e-08 0.00509125)
(0.0029872 2.83819e-07 0.00509126)
(0.00298716 4.50302e-07 0.00509124)
(0.00298714 5.70642e-07 0.0050912)
(0.00298704 3.13394e-07 0.00509104)
(0.00448773 -2.02216e-08 0.00575811)
(0.00448776 1.14872e-07 0.00575828)
(0.00448773 3.46164e-07 0.00575828)
(0.00448772 4.77892e-07 0.00575826)
(0.00448773 5.84146e-07 0.00575822)
(0.00448765 3.18238e-07 0.00575805)
(0.00634232 6.06203e-08 0.0066099)
(0.0063424 1.88075e-07 0.00661007)
(0.00634242 3.16411e-07 0.00661006)
(0.00634246 4.09068e-07 0.00661005)
(0.00634253 4.73995e-07 0.00661002)
(0.0063425 2.55101e-07 0.00660983)
(0.00870636 8.9218e-08 0.00754624)
(0.00870657 1.45522e-07 0.00754638)
(0.00870666 1.6312e-07 0.00754636)
(0.00870678 2.19148e-07 0.00754634)
(0.00870692 2.25581e-07 0.00754632)
(0.00870691 1.14243e-07 0.0075461)
(0.0116996 1.68523e-08 0.00830226)
(0.0117001 -3.87767e-08 0.00830229)
(0.0117002 -5.93627e-08 0.00830221)
(0.0117004 -1.39144e-08 0.00830216)
(0.0117005 -4.52789e-08 0.00830211)
(0.0117005 -3.67906e-08 0.00830189)
(0.0152419 -1.69784e-07 0.00822531)
(0.0152426 -3.11529e-07 0.00822519)
(0.0152427 -2.26979e-07 0.00822506)
(0.0152428 -1.55234e-07 0.008225)
(0.0152429 -1.76341e-07 0.00822499)
(0.0152425 -1.16374e-07 0.00822492)
(0.0191431 -3.72184e-07 0.00593199)
(0.0191437 -4.73677e-07 0.0059319)
(0.0191436 -1.63065e-07 0.00593191)
(0.0191435 -8.74005e-08 0.00593202)
(0.0191433 -3.86725e-08 0.00593223)
(0.0191424 -3.43508e-08 0.00593252)
(0.0243646 -5.07642e-07 -0.00188523)
(0.0243648 -5.58888e-07 -0.001885)
(0.0243643 -5.51476e-08 -0.00188456)
(0.0243637 4.67623e-08 -0.00188402)
(0.0243631 2.17474e-07 -0.00188346)
(0.0243619 1.33108e-07 -0.00188273)
(0.0308984 -5.43447e-07 -0.0237249)
(0.0308986 -6.84259e-07 -0.0237248)
(0.0308981 -7.02677e-08 -0.0237241)
(0.0308973 2.14074e-07 -0.0237233)
(0.0308964 4.87665e-07 -0.0237226)
(0.030895 2.4255e-07 -0.0237215)
(0.0307746 -1.02928e-06 -0.0707306)
(0.0307762 -1.68472e-06 -0.0707365)
(0.0307763 -9.18692e-07 -0.0707372)
(0.0307758 -2.24419e-07 -0.0707363)
(0.0307751 3.73006e-07 -0.070735)
(0.0307739 2.57525e-07 -0.0707326)
(-0.456612 6.73525e-06 0.428928)
(-0.456597 1.36521e-05 0.42895)
(-0.456595 6.27882e-06 0.428946)
(-0.456596 5.68501e-06 0.428947)
(-0.4566 5.40613e-06 0.428947)
(-0.456593 7.3113e-06 0.428951)
(-2.86467 1.17661e-05 -1.03716)
(-2.86466 1.89086e-05 -1.03715)
(-2.86466 6.73579e-06 -1.03714)
(-2.86466 1.11787e-05 -1.03714)
(-2.86467 2.13684e-05 -1.03714)
(-2.86466 2.34745e-05 -1.03715)
(-3.60002 1.05581e-05 10.9067)
(-3.59996 2.33369e-05 10.9068)
(-3.59995 1.6068e-05 10.9068)
(-3.59995 1.71126e-05 10.9068)
(-3.59995 2.56754e-05 10.9068)
(-3.59993 2.36746e-05 10.9068)
(-1.60643 9.88385e-06 -1.57235)
(-1.60639 -9.92604e-07 -1.57235)
(-1.6064 5.64879e-07 -1.57235)
(-1.6064 -5.0221e-06 -1.57235)
(-1.60641 4.98595e-06 -1.57235)
(-1.60637 -1.40815e-06 -1.57232)
(-5.53409 3.92101e-05 -4.71512)
(-5.53404 -3.08163e-05 -4.71515)
(-5.53406 1.89557e-05 -4.71513)
(-5.53406 -2.11282e-05 -4.71513)
(-5.53411 7.68656e-06 -4.71511)
(-5.53391 -6.48462e-05 -4.71519)
(-9.77675 6.60737e-05 -10.209)
(-9.77679 -1.43303e-05 -10.2089)
(-9.77677 5.63518e-05 -10.2089)
(-9.77679 -1.21834e-05 -10.2088)
(-9.77683 1.85011e-05 -10.2088)
(-9.77667 -8.97246e-05 -10.209)
(1.84745 7.24173e-05 -5.63739)
(1.84758 -2.81778e-05 -5.63742)
(1.84755 1.57137e-05 -5.63742)
(1.84754 -4.03605e-05 -5.63741)
(1.84747 1.60006e-05 -5.63739)
(1.84764 -7.84842e-05 -5.63733)
(3.68294 7.00222e-05 -6.4516)
(3.68285 -2.55957e-06 -6.45162)
(3.68289 3.82785e-05 -6.4516)
(3.68288 7.09114e-06 -6.45159)
(3.68291 8.50031e-05 -6.45156)
(3.68277 -3.45734e-06 -6.45174)
(-2.20425 -1.98101e-05 -7.45507)
(-2.20429 -5.48128e-05 -7.45506)
(-2.20428 -7.51617e-05 -7.45512)
(-2.20426 -6.22854e-05 -7.45514)
(-2.2042 -6.05988e-05 -7.45528)
(-2.20424 -1.28624e-05 -7.45534)
(2.66536 0.000138619 -7.68973)
(2.66551 8.96582e-05 -7.69002)
(2.66543 0.000120316 -7.69004)
(2.66543 3.01581e-05 -7.69002)
(2.66541 0.000138325 -7.69003)
(2.66571 -5.53069e-06 -7.68994)
(-1.74076 5.69978e-05 -6.22228)
(-1.74048 0.000130486 -6.22268)
(-1.74061 0.000128437 -6.22278)
(-1.7406 6.49989e-05 -6.22282)
(-1.74053 8.53617e-05 -6.22296)
(-1.74014 2.64647e-05 -6.22281)
(-3.67079 5.06154e-05 -4.01562)
(-3.67092 6.62877e-05 -4.01564)
(-3.67088 1.69002e-05 -4.01562)
(-3.67085 2.65182e-05 -4.01566)
(-3.67079 -1.08654e-05 -4.01577)
(-3.67069 -9.16888e-06 -4.01573)
(1.75884 0.000123419 -3.06995)
(1.75989 5.86972e-05 -3.07046)
(1.76008 9.82302e-05 -3.07035)
(1.76019 -2.17377e-05 -3.07037)
(1.76032 -2.40985e-05 -3.07043)
(1.7602 -0.00011394 -3.07034)
(-3.31609 3.60765e-05 0.73307)
(-3.31599 -2.64593e-05 0.733138)
(-3.31587 -2.78818e-05 0.733136)
(-3.31582 -4.43969e-05 0.733129)
(-3.31574 -3.88825e-05 0.733091)
(-3.31549 -3.57484e-05 0.732972)
(-4.26568 8.31524e-06 -1.36135)
(-4.26585 2.8081e-05 -1.36129)
(-4.2659 2.26082e-05 -1.36126)
(-4.26591 9.06135e-06 -1.36124)
(-4.2659 1.62731e-05 -1.36124)
(-4.2658 1.87252e-05 -1.36117)
(-4.24939 -0.000131633 1.60224)
(-4.24929 -0.000125874 1.6024)
(-4.24929 1.61919e-05 1.60241)
(-4.24923 6.5329e-05 1.60244)
(-4.24912 0.000160236 1.60238)
(-4.24915 0.000111754 1.60205)
(-2.86262 -8.2653e-05 1.84684)
(-2.86274 -5.46985e-05 1.84701)
(-2.86276 -6.36172e-06 1.84702)
(-2.86278 -2.23979e-05 1.84708)
(-2.86276 1.14233e-05 1.84713)
(-2.8626 3.72816e-05 1.84706)
(-1.81132 -6.88467e-06 -0.287407)
(-1.81141 -1.14281e-05 -0.287381)
(-1.81146 -2.24116e-05 -0.287349)
(-1.81151 -2.09863e-05 -0.287308)
(-1.81157 -1.28804e-05 -0.287277)
(-1.81154 1.40002e-06 -0.287268)
(-1.90247 -4.94395e-05 0.914333)
(-1.90259 4.61473e-05 0.914387)
(-1.90257 0.000154221 0.914355)
(-1.90254 0.000126357 0.914434)
(-1.90251 0.00017931 0.914455)
(-1.90235 9.92233e-05 0.914147)
(-1.6603 -7.62405e-07 0.610504)
(-1.66037 3.13186e-06 0.610539)
(-1.66037 -5.94888e-07 0.610549)
(-1.66035 -1.09088e-05 0.610595)
(-1.66034 2.9712e-05 0.610627)
(-1.66026 3.28702e-05 0.610533)
(-1.76126 1.77399e-06 -0.181651)
(-1.76134 1.16715e-06 -0.181651)
(-1.76134 4.81804e-06 -0.181653)
(-1.76133 2.91879e-06 -0.181661)
(-1.76133 1.32146e-05 -0.181668)
(-1.76126 1.07842e-05 -0.181694)
(-3.0199 2.15782e-06 2.11329)
(-3.02008 0.000102859 2.11342)
(-3.02004 0.000142747 2.11349)
(-3.01995 9.33279e-05 2.11353)
(-3.01986 0.000115651 2.11349)
(-3.01971 6.72721e-05 2.11325)
(-1.68416 7.5108e-07 2.07321)
(-1.68422 -4.02738e-06 2.07332)
(-1.68423 2.72417e-07 2.07335)
(-1.68421 1.83047e-05 2.07336)
(-1.6842 4.77832e-05 2.07335)
(-1.68413 3.63766e-05 2.07323)
(-0.802312 3.75908e-06 1.17324)
(-0.802343 -7.50286e-06 1.17329)
(-0.802359 -1.00975e-05 1.1733)
(-0.802369 -2.91253e-07 1.17329)
(-0.802377 9.24696e-06 1.17328)
(-0.802357 7.19692e-06 1.17324)
(-1.37273 2.02896e-05 3.34865)
(-1.37283 2.9135e-05 3.34896)
(-1.37278 1.39464e-05 3.34895)
(-1.3727 -1.59052e-05 3.34888)
(-1.37262 5.132e-06 3.34882)
(-1.3725 2.42085e-05 3.3485)
(-0.745252 -1.75619e-06 2.49267)
(-0.74528 -2.99874e-06 2.49283)
(-0.745274 1.51414e-05 2.49283)
(-0.745268 2.92835e-05 2.49279)
(-0.745276 4.5461e-05 2.49274)
(-0.745248 3.36295e-05 2.4926)
(-0.567408 -1.93107e-05 1.89447)
(-0.567436 -2.79513e-05 1.89451)
(-0.567438 -8.1439e-06 1.89449)
(-0.567444 4.65628e-06 1.89447)
(-0.56745 1.55799e-05 1.89446)
(-0.567433 1.22766e-05 1.8944)
(-0.309625 1.74211e-05 3.40181)
(-0.309607 -4.08762e-05 3.40192)
(-0.309559 -0.000112513 3.40191)
(-0.309529 -0.000130309 3.4019)
(-0.30949 -0.000101101 3.40197)
(-0.309472 -2.54916e-05 3.40177)
(-0.176047 -1.25468e-05 2.76065)
(-0.176055 -2.61238e-05 2.76073)
(-0.176062 -1.98851e-05 2.76072)
(-0.17608 -1.89553e-05 2.76072)
(-0.176098 -1.3273e-06 2.76072)
(-0.176107 1.21636e-05 2.76062)
(-0.153951 -1.37759e-05 2.22802)
(-0.15395 -1.31576e-05 2.22806)
(-0.153948 3.1492e-06 2.22805)
(-0.153951 5.87368e-06 2.22804)
(-0.153955 1.44417e-05 2.22805)
(-0.153953 1.02669e-05 2.22801)
(0.46232 -4.18983e-05 3.24105)
(0.462349 -0.000126229 3.24114)
(0.462359 -0.000182383 3.2412)
(0.462351 -0.000200665 3.24132)
(0.462359 -0.000162707 3.24151)
(0.462304 -6.18965e-05 3.24147)
(0.310281 -2.08333e-05 2.63127)
(0.310286 -4.0975e-05 2.63133)
(0.310286 -5.01816e-05 2.63136)
(0.310278 -6.35578e-05 2.63141)
(0.310276 -4.24947e-05 2.63148)
(0.310253 -9.40213e-06 2.63142)
(0.0403697 5.62026e-07 2.21163)
(0.0403765 3.47113e-06 2.21168)
(0.0403767 2.83934e-06 2.21169)
(0.0403766 -1.98266e-06 2.21171)
(0.0403756 3.37184e-06 2.21174)
(0.0403721 5.26577e-06 2.21171)
(1.41509 -3.70456e-05 3.22511)
(1.41513 -6.62464e-05 3.2252)
(1.41514 -7.53766e-05 3.22526)
(1.41515 -8.83449e-05 3.22535)
(1.41517 -7.32054e-05 3.22547)
(1.41512 -3.05319e-05 3.22547)
(0.973696 -1.0236e-05 2.33029)
(0.973729 -2.19525e-05 2.33036)
(0.973738 -3.5532e-05 2.33038)
(0.97375 -4.63459e-05 2.33042)
(0.973767 -3.59688e-05 2.33047)
(0.973735 -1.13605e-05 2.33042)
(0.276966 2.20042e-06 1.94507)
(0.276974 1.37111e-06 1.94513)
(0.276974 -4.4693e-06 1.94514)
(0.276975 -7.95811e-06 1.94517)
(0.276978 -4.96786e-06 1.94519)
(0.276965 -1.76596e-08 1.94515)
(0.289988 -7.61078e-08 0.0706126)
(0.289996 -9.2751e-08 0.0706141)
(0.289998 -4.2742e-07 0.0706141)
(0.289998 1.10963e-07 0.0706141)
(0.289998 -1.0422e-07 0.0706139)
(0.289992 3.01536e-07 0.0706122)
(0.220836 -1.39373e-09 0.189855)
(0.220842 -3.20855e-07 0.18986)
(0.220843 -4.05477e-07 0.18986)
(0.220843 -2.07244e-07 0.18986)
(0.220844 -3.3536e-07 0.18986)
(0.220839 -1.41727e-07 0.189855)
(0.0818887 -5.88971e-08 0.273975)
(0.0818908 -2.24098e-07 0.273982)
(0.0818911 -2.0279e-07 0.273982)
(0.0818913 -1.6235e-07 0.273982)
(0.0818915 -2.12632e-07 0.273982)
(0.0818897 -1.29203e-07 0.273976)
(0.395566 -3.79026e-07 0.0991107)
(0.395578 -9.50233e-07 0.0991128)
(0.39558 -1.675e-06 0.0991128)
(0.395581 -8.63016e-07 0.0991127)
(0.395582 -1.12227e-06 0.0991125)
(0.395572 -1.10305e-07 0.0991101)
(0.301984 -2.76517e-07 0.269348)
(0.301993 -1.19701e-06 0.269355)
(0.301995 -1.50174e-06 0.269355)
(0.301996 -1.30219e-06 0.269355)
(0.301996 -1.30948e-06 0.269355)
(0.301989 -5.30346e-07 0.269349)
(0.111689 -3.16503e-08 0.385412)
(0.111692 -4.40733e-07 0.385422)
(0.111693 -6.16707e-07 0.385423)
(0.111693 -6.39622e-07 0.385423)
(0.111693 -5.47862e-07 0.385423)
(0.111691 -1.95164e-07 0.385414)
(0.547133 -8.32178e-07 0.139104)
(0.547151 -2.23237e-06 0.139107)
(0.547155 -4.09448e-06 0.139107)
(0.547158 -3.38192e-06 0.139106)
(0.547159 -2.82837e-06 0.139106)
(0.547145 -4.68021e-07 0.139103)
(0.41878 -3.16331e-07 0.379363)
(0.418794 -2.2252e-06 0.379372)
(0.418796 -3.69531e-06 0.379372)
(0.418798 -3.51292e-06 0.379372)
(0.418799 -2.60787e-06 0.379372)
(0.418788 -8.00422e-07 0.379364)
(0.150976 1.61495e-07 0.53602)
(0.150981 -7.63987e-07 0.536034)
(0.150982 -1.62262e-06 0.536036)
(0.150982 -1.5923e-06 0.536036)
(0.150983 -1.00197e-06 0.536036)
(0.150979 -2.4747e-07 0.536023)
(0.715489 -3.5099e-06 0.183266)
(0.715512 -6.55391e-06 0.183269)
(0.715516 -8.58632e-06 0.183269)
(0.71552 -7.42111e-06 0.183268)
(0.715522 -5.65783e-06 0.183268)
(0.715503 -1.04587e-06 0.183263)
(0.575039 -1.54239e-06 0.53279)
(0.575059 -5.36398e-06 0.532803)
(0.575063 -7.84256e-06 0.532804)
(0.575067 -7.24513e-06 0.532805)
(0.575069 -5.18825e-06 0.532806)
(0.575054 -1.73955e-06 0.532794)
(0.201176 3.22798e-07 0.73917)
(0.201184 -1.49463e-06 0.739189)
(0.201185 -3.49384e-06 0.739192)
(0.201187 -3.34785e-06 0.739193)
(0.201187 -2.35009e-06 0.739193)
(0.201182 -8.97239e-07 0.739175)
(0.979171 -2.52352e-06 0.273342)
(0.979199 -4.0947e-06 0.273352)
(0.979203 -9.08866e-06 0.273352)
(0.979208 -8.71688e-06 0.273353)
(0.979212 -7.42171e-06 0.273354)
(0.979183 -9.32605e-07 0.273346)
(0.806814 -3.30983e-06 0.727435)
(0.806842 -8.74268e-06 0.727453)
(0.806847 -1.22118e-05 0.727454)
(0.806853 -1.20019e-05 0.727456)
(0.806858 -8.81028e-06 0.727459)
(0.806835 -3.0326e-06 0.727442)
(0.266753 -8.37404e-07 1.00354)
(0.266764 -4.15344e-06 1.00356)
(0.266766 -6.41646e-06 1.00357)