/*--------------------------------*- C++ -*----------------------------------*\
| =========                 |                                                 |
| \\      /  F ield         | OpenFOAM: The Open Source CFD Toolbox           |
|  \\    /   O peration     | Version:  v1612+                                |
|   \\  /    A nd           | Web:      www.OpenFOAM.com                      |
|    \\/     M anipulation  |                                                 |
\*---------------------------------------------------------------------------*/
FoamFile
{
    version     2.0;
    format      ascii;
    class       surfaceScalarField;
    location    "1.3";
    object      alphaPhi;
}
// * * * * * * * * * * * * * * * * * * * * * * * * * * * * * * * * * * * * * //

dimensions      [0 3 -1 0 0 0 0];

internalField   nonuniform List<scalar> 
816
(
-1.75208e-07
1.49852e-06
4.6944e-07
1.20193e-06
2.33315e-06
-5.32754e-06
6.85749e-07
3.08664e-07
1.63368e-06
2.22801e-06
-5.02885e-06
4.93174e-07
2.22774e-06
-8.56739e-07
-5.74405e-07
2.10846e-07
1.70462e-07
7.24411e-07
-3.57058e-07
6.40862e-07
1.68618e-10
3.20068e-10
1.46633e-07
3.88567e-10
-2.10214e-10
5.31633e-10
1.17364e-06
3.59067e-10
1.29655e-10
2.66318e-10
-3.56745e-06
-2.00107e-12
4.8783e-10
1.31277e-10
-1.21383e-06
1.39091e-10
-5.58464e-10
5.32767e-11
-1.36936e-06
-8.59199e-12
-2.93433e-10
-1.99187e-10
-1.20382e-05
-1.54258e-11
2.03369e-10
-3.51458e-10
2.5591e-06
1.84452e-11
1.14959e-11
-5.58115e-10
-2.40559e-06
1.01244e-10
-2.87833e-10
2.68987e-10
-1.09319e-05
-1.06246e-11
-1.9997e-10
1.99033e-10
-3.59995e-06
6.80966e-11
1.06633e-10
2.02697e-10
1.23266e-06
2.34196e-11
-6.48748e-11
-7.23044e-06
1.04647e-10
-1.10861e-10
-3.66009e-07
5.11522e-06
-3.11697e-06
-1.01606e-06
-2.15115e-07
4.39541e-06
-2.32284e-06
3.60498e-07
9.25366e-07
-8.79099e-07
-9.09654e-07
-7.40925e-07
2.18087e-06
3.02336e-08
1.28696e-06
6.94583e-07
-4.31679e-06
3.38781e-06
-2.14381e-06
-7.89796e-07
-1.52759e-06
-6.38271e-06
-5.53726e-06
9.83022e-07
-1.32127e-06
1.90084e-06
4.32495e-06
2.31671e-06
3.18087e-07
2.43695e-06
-1.59949e-06
2.14765e-06
-3.44298e-06
-5.92266e-07
-6.91043e-06
-2.64734e-06
-3.70293e-06
-1.61492e-06
-2.24697e-08
-2.02368e-06
-1.44257e-06
3.96641e-06
-2.90749e-07
8.84429e-08
-3.5554e-07
4.52415e-07
8.0111e-07
7.46252e-07
2.67003e-08
-9.14842e-08
-2.15961e-06
-4.19851e-07
-1.56866e-07
-1.69804e-06
-1.36561e-07
6.32619e-07
-1.06092e-06
-6.29693e-07
-1.32288e-08
1.55191e-06
1.19777e-06
8.01207e-07
1.18278e-06
-1.03364e-06
-5.65221e-07
-1.17594e-06
-2.52147e-06
-5.98148e-08
-5.9335e-07
6.05696e-07
2.32025e-06
9.47099e-07
3.2414e-07
-7.99631e-07
1.70735e-06
-1.14161e-06
-3.37594e-06
2.11793e-07
-2.29284e-06
-6.37387e-07
-5.04584e-07
-8.80361e-07
2.03719e-07
-3.05355e-07
3.78099e-07
-6.90292e-08
8.9595e-09
6.21468e-07
-1.56089e-07
9.65287e-07
1.29595e-07
4.75442e-07
9.21813e-07
7.80681e-08
3.17747e-07
8.49128e-07
8.25867e-07
2.13963e-07
1.18624e-06
-7.42325e-07
-2.66328e-07
-8.07931e-08
2.33848e-07
-2.1389e-07
1.25387e-07
-4.75005e-07
-1.16279e-06
-5.2262e-07
-2.21145e-07
-7.01272e-07
-3.44932e-07
-5.21568e-08
-5.67449e-07
-4.31041e-07
-2.35643e-07
9.97171e-07
5.8386e-07
4.096e-07
8.39636e-07
-5.32176e-07
-4.2189e-07
-9.32887e-07
3.34563e-07
-3.27352e-07
-7.50136e-07
5.26785e-07
4.57332e-07
6.13739e-07
1.45114e-07
1.04804e-06
-3.00442e-07
-4.45376e-07
8.36404e-09
-1.91163e-06
-8.90421e-07
-4.34681e-07
-1.16955e-06
-9.07754e-08
8.54611e-08
-3.03008e-07
-4.82252e-08
-3.31377e-07
1.13382e-08
-1.41789e-07
1.68597e-10
-3.43312e-10
-3.54374e-06
1.94111e-10
1.4769e-10
-7.26323e-06
8.90225e-11
1.28669e-10
3.83034e-06
2.89793e-10
-1.1975e-10
1.38981e-11
2.88191e-10
3.26678e-10
-1.1368e-05
3.06661e-11
-7.98656e-10
5.79538e-11
-8.10362e-06
1.54519e-10
-1.4922e-10
-4.35523e-06
-2.01356e-10
-3.07866e-10
-8.37629e-06
-1.83737e-10
-1.21048e-11
-1.20752e-05
-2.40628e-10
-6.82166e-11
1.55062e-06
2.72259e-10
1.33578e-10
-3.48806e-10
-4.02821e-06
1.00778e-10
-5.36204e-10
-9.30272e-06
1.47834e-10
-2.73277e-10
-4.57334e-06
-2.64242e-11
-4.25071e-10
-6.83018e-06
-2.22021e-10
1.56981e-10
3.00939e-06
-9.70112e-11
-3.85551e-10
6.70665e-10
-1.62646e-06
2.31373e-10
7.28602e-11
-6.1816e-06
-1.12036e-10
-8.3384e-11
-3.67256e-06
-3.68495e-10
-1.2239e-10
-7.421e-06
-7.57134e-10
-1.38219e-06
2.65917e-12
-1.11803e-09
-1.04189e-06
-1.77487e-06
1.51224e-06
-1.44956e-06
-1.84067e-06
6.93258e-07
-4.97389e-06
4.21174e-06
4.33291e-06
2.7116e-06
4.14003e-06
3.79582e-06
-4.51228e-07
2.44849e-06
-1.17432e-06
-4.596e-06
-4.20652e-06
-1.52244e-06
-9.29476e-07
-3.67478e-06
-1.00364e-06
6.06965e-07
-4.90438e-06
-3.51515e-06
1.60903e-06
-4.78036e-06
-6.63055e-06
2.98583e-07
-4.53655e-06
4.68145e-06
-2.26098e-06
8.9741e-07
-5.81983e-06
2.30253e-06
-8.34807e-08
-5.54694e-06
-2.86095e-06
-2.74519e-06
-2.004e-06
-4.38943e-06
-7.14355e-06
3.98627e-07
-6.8882e-06
-2.74867e-06
-4.54514e-06
4.85352e-06
6.03165e-06
-2.98165e-06
-1.56083e-06
3.32779e-06
-1.21818e-06
-4.94874e-06
6.51307e-07
2.12143e-07
-7.01054e-06
-4.43996e-08
2.35275e-06
-4.16601e-06
-4.26969e-06
-1.96176e-06
-2.81227e-06
-6.33859e-07
-4.71737e-06
-2.36532e-06
-7.35005e-07
1.38121e-06
5.29319e-07
3.4727e-07
-7.03577e-07
1.12466e-06
-8.87413e-07
6.62641e-07
2.21406e-06
6.16595e-07
1.98135e-06
1.58937e-06
2.50098e-07
-2.90523e-07
-8.34239e-07
8.05186e-07
1.12119e-06
-4.49558e-07
-7.10713e-07
-7.5286e-08
4.89002e-08
2.89304e-07
6.18582e-07
3.91184e-07
5.65896e-07
1.3762e-07
7.02935e-07
-2.36362e-07
1.61384e-07
7.06919e-07
-1.22633e-06
-8.72981e-07
-1.73135e-07
7.94978e-07
-4.82781e-07
-2.81465e-07
4.25433e-07
-1.57323e-06
1.3468e-07
-2.02759e-06
-3.89667e-06
9.06227e-07
-3.24331e-06
-9.47591e-07
-3.82125e-07
1.04579e-06
2.9938e-06
-4.16522e-07
-8.33674e-07
2.98199e-07
-8.08159e-07
-1.93587e-06
9.20319e-08
3.19297e-07
-7.75959e-07
9.9478e-07
1.50176e-06
3.33362e-07
-8.09315e-08
-9.66161e-07
7.08753e-07
1.26141e-07
-5.22971e-07
1.06358e-06
-4.53507e-07
6.4382e-07
7.62176e-08
-6.84909e-08
-7.44331e-08
5.21394e-07
-9.39869e-07
8.3195e-07
7.18015e-07
-1.2318e-07
1.55012e-06
5.58398e-07
-2.6359e-07
-1.50224e-07
-1.45668e-07
1.70239e-07
8.35584e-07
-4.41939e-07
-2.06305e-07
-6.48947e-07
1.24397e-07
1.21605e-07
1.86663e-07
3.15024e-07
1.09208e-07
-2.65796e-07
-3.85148e-08
4.70918e-08
3.89595e-07
5.80905e-07
-2.96761e-07
-7.92556e-07
-7.81481e-07
4.27738e-07
-2.20313e-07
-4.68658e-07
2.33692e-07
-5.15956e-07
-4.30837e-07
-1.7295e-06
-1.29453e-06
3.98252e-07
-2.28077e-06
-3.61147e-07
-3.20026e-08
8.6771e-07
8.9565e-07
-4.47596e-07
-5.9819e-07
4.89054e-08
5.60534e-09
-1.89433e-06
3.36538e-08
1.5773e-07
-9.84961e-07
7.96039e-07
5.03977e-07
-5.89211e-08
-3.76486e-07
-3.09178e-07
5.34464e-07
1.16764e-07
-5.57295e-07
8.33369e-07
7.19073e-08
6.62698e-07
-1.90005e-08
2.04293e-07
2.68774e-07
4.46454e-08
5.78964e-07
2.08762e-07
6.48427e-07
-4.64621e-07
4.2781e-08
2.11207e-07
1.00226e-07
-1.47608e-07
-5.0167e-07
3.46104e-08
-2.41535e-07
4.97316e-08
-2.48442e-07
-6.56203e-09
6.12722e-07
4.17181e-07
4.07795e-07
-1.85395e-07
-4.64927e-07
9.88702e-08
9.32086e-09
1.58273e-08
3.25415e-07
-2.00799e-07
5.52e-07
-2.10989e-07
1.05304e-07
-9.90237e-07
-1.54706e-07
-6.17247e-07
1.36142e-07
-1.36335e-07
-1.10532e-07
-4.40909e-08
-2.68707e-07
2.47735e-07
-1.61884e-08
4.91561e-08
-2.99978e-07
4.6774e-07
5.15699e-08
8.01715e-07
-2.90012e-08
-4.67681e-08
1.82796e-07
5.16755e-07
-1.54867e-07
-1.11393e-07
1.03993e-07
2.7461e-07
1.13785e-07
-9.8766e-08
9.47674e-08
1.43951e-07
3.05396e-07
-3.24364e-07
-2.02935e-07
1.37232e-07
-7.16497e-08
-1.8254e-08
-5.16551e-08
-9.90886e-07
2.18656e-07
-1.25142e-06
4.86516e-10
3.00618e-07
-1.6218e-07
-4.87926e-07
8.08193e-08
-7.63531e-07
4.7825e-08
-4.2254e-07
3.84769e-07
3.72867e-08
-1.50641e-07
1.90219e-07
-1.82563e-07
4.00957e-07
2.91242e-10
-5.42141e-10
1.40524e-06
8.72698e-11
-7.88502e-06
3.39062e-10
3.20783e-06
1.34785e-10
-2.12309e-06
-1.31786e-10
1.38459e-12
-8.62962e-10
7.9394e-07
2.26029e-10
-7.14866e-06
1.09799e-09
1.04582e-06
4.49615e-11
6.10007e-12
-2.14593e-10
2.17986e-06
1.53104e-10
2.30657e-06
6.02259e-10
1.47043e-06
2.33985e-10
-1.73266e-06
-2.21701e-10
7.27643e-12
-5.97555e-11
3.30575e-06
-2.1874e-10
2.43128e-06
-8.95158e-10
-6.29973e-07
-4.68814e-10
-9.54191e-06
-2.80045e-10
5.90774e-07
-3.87845e-12
4.66449e-06
2.40896e-11
3.71398e-09
3.51747e-10
7.75103e-07
8.16115e-11
2.66378e-11
-2.1474e-10
3.15202e-06
-3.45051e-10
1.05022e-06
-2.55625e-10
-5.30858e-06
3.46534e-10
-3.73994e-06
2.48902e-06
2.92643e-06
-4.64053e-06
1.79963e-06
-1.24699e-06
-3.10439e-07
3.41147e-06
4.28616e-06
1.86364e-06
3.44282e-07
3.29214e-07
1.60189e-06
1.14872e-06
-1.8743e-06
-2.71658e-06
-5.79523e-06
-1.31472e-06
-1.67972e-06
-3.84124e-06
1.76457e-06
-1.35593e-06
2.17569e-06
2.11008e-06
-1.36052e-06
2.98051e-06
-2.36026e-06
-1.62881e-06
2.25205e-06
-3.11955e-06
2.04387e-06
1.65433e-06
1.37732e-06
4.33483e-06
1.28239e-06
1.24768e-06
1.0841e-06
-3.81973e-06
-7.77027e-06
-3.83996e-06
-1.80809e-06
2.47568e-07
4.90182e-06
-1.4995e-06
1.92177e-06
-2.12283e-07
2.32804e-06
1.76751e-07
6.43305e-06
3.21802e-06
4.10362e-06
3.84297e-06
-4.43532e-08
-1.40733e-06
-4.51954e-06
-5.25803e-06
-4.55667e-06
-2.5893e-07
-6.88266e-07
6.47088e-07
1.32157e-06
-4.49901e-07
-2.04373e-07
3.35545e-07
2.59987e-06
9.034e-07
3.84201e-07
1.53602e-06
1.21384e-06
1.08689e-06
-6.23458e-07
-1.39738e-06
-3.31205e-06
-8.59066e-07
-1.0936e-06
-3.50432e-07
1.18076e-06
8.40095e-07
1.60898e-06
3.57304e-08
-4.15135e-07
-5.55615e-07
-1.61217e-06
-2.09735e-07
1.01169e-06
3.7791e-07
1.45016e-06
4.38238e-07
1.12282e-06
8.55477e-07
5.70626e-07
8.91985e-07
1.16247e-06
-1.92121e-06
-4.0579e-06
-2.71544e-06
-1.39732e-06
-9.31816e-07
2.70669e-06
-4.67183e-07
1.47026e-06
-4.42106e-08
1.08593e-06
8.54417e-07
3.6032e-06
1.75549e-06
2.43357e-06
1.60094e-06
4.51368e-07
5.73476e-07
-2.77533e-06
-4.35476e-07
-2.47794e-06
-4.49254e-08
-1.91363e-07
5.44316e-07
4.14238e-07
-4.28132e-07
-2.58444e-08
4.682e-07
7.50342e-07
6.72527e-07
4.7473e-08
1.34688e-06
2.70811e-07
1.23631e-06
-3.46242e-07
-1.15119e-06
-9.3062e-07
-1.00762e-06
-4.0479e-07
-6.22985e-07
1.48885e-07
8.56958e-07
3.13172e-07
2.71178e-07
-1.03369e-07
-6.03657e-07
-3.64779e-07
-7.28402e-07
3.20423e-07
3.60229e-07
3.50123e-07
3.96051e-07
2.78335e-07
5.22194e-07
-4.15647e-08
1.06907e-06
1.66607e-07
-1.30615e-06
-1.29315e-06
-2.3259e-06
-4.03532e-07
-9.12259e-07
8.35602e-07
-4.30428e-08
6.11314e-07
-1.0219e-07
5.64109e-07
5.59173e-07
1.05508e-06
1.40065e-06
6.15699e-07
1.67618e-06
1.23955e-07
2.67587e-07
-8.24184e-07
-6.8759e-07
-6.83272e-07
-1.85255e-07
-8.72712e-08
3.2169e-07
-1.25341e-07
3.21312e-07
4.1396e-07
6.54166e-07
4.95036e-07
-4.34522e-07
-3.24851e-07
-2.88572e-07
2.92292e-07
7.68536e-08
-1.57493e-07
-1.7794e-07
1.65637e-07
2.25551e-07
1.02673e-07
2.08384e-07
-8.69782e-07
-1.262e-06
-5.82992e-07
2.96705e-08
1.09718e-07
4.03248e-07
6.01269e-07
7.68467e-07
1.41707e-07
-1.35359e-07
7.87889e-10
4.00652e-10
2.2235e-06
1.55102e-10
2.21657e-11
5.46179e-10
1.03102e-06
2.20961e-07
1.74587e-06
9.84371e-07
-3.2427e-07
-5.93219e-08
)
;

boundaryField
{
    top_fluid_surface
    {
        type            calculated;
        value           nonuniform List<scalar> 
64
(
0
0
0
3.54303e-10
3.47452e-10
1.88737e-10
8.14649e-11
2.23496e-10
0
0
0
3.82333e-10
1.36323e-10
2.07806e-10
0
0
9.95846e-11
4.21679e-10
4.57861e-10
2.58828e-10
0
0
3.26637e-10
1.40087e-10
0
1.88724e-10
0
0
3.97474e-10
3.96681e-10
3.84949e-10
1.46773e-10
1.18859e-10
3.4269e-10
0
4.03385e-10
4.00404e-10
2.96037e-10
0
0
4.44549e-10
2.19333e-11
0
0
3.37704e-10
3.30935e-10
0
2.28501e-10
3.38411e-10
0
0
0
0
0
2.00271e-10
1.2729e-10
0
0
0
0
0
0
0
2.68758e-10
)
;
    }
    bottom_fluid_surface
    {
        type            calculated;
        value           uniform 0;
    }
    lateral_surface_1
    {
        type            calculated;
        value           uniform 0;
    }
    lateral_surface_2
    {
        type            calculated;
        value           uniform 0;
    }
    lateral_surface_3
    {
        type            calculated;
        value           uniform 0;
    }
    lateral_surface_4
    {
        type            calculated;
        value           uniform 0;
    }
}


// ************************************************************************* //
