/*--------------------------------*- C++ -*----------------------------------*\
| =========                 |                                                 |
| \\      /  F ield         | OpenFOAM: The Open Source CFD Toolbox           |
|  \\    /   O peration     | Version:  v1612+                                |
|   \\  /    A nd           | Web:      www.OpenFOAM.com                      |
|    \\/     M anipulation  |                                                 |
\*---------------------------------------------------------------------------*/
FoamFile
{
    version     2.0;
    format      ascii;
    class       volScalarField;
    location    "1.3";
    object      alpha.water;
}
// * * * * * * * * * * * * * * * * * * * * * * * * * * * * * * * * * * * * * //

dimensions      [0 0 0 0 0 0 0];

internalField   nonuniform List<scalar> 
320
(
1
1
1
1
3.88372e-06
3.99127e-06
3.61505e-06
2.18044e-06
2.1289e-06
3.14609e-06
2.56453e-06
2.7113e-06
4.32475e-06
3.44938e-06
2.93443e-06
2.41645e-06
0.999998
0.999998
0.999999
0.999997
0.999997
0.999995
0.999995
0.999998
0.999995
1
0.999998
1
1
1
1
1
1
1
1
1
1
1
1
1
1
1
1
1
1
1
1
1
1
1
1
1
1
1
1
1
2.88845e-06
2.70814e-06
2.8987e-06
3.18642e-06
3.45066e-06
2.52002e-06
2.15998e-06
2.78462e-06
3.37609e-06
3.47137e-06
2.61403e-06
3.16209e-06
3.28588e-06
2.70735e-06
3.11751e-06
4.60328e-06
2.31288e-06
2.14259e-06
2.49317e-06
2.72626e-06
1
0.999997
0.999998
1
1
1
1
1
1
0.999996
0.999999
0.999998
0.999997
0.999995
0.999997
0.999997
0.999997
0.999999
0.999997
0.999994
1
1
1
1
1
1
1
1
1
1
1
1
1
1
1
1
1
1
1
1
1
1
1
1
1
1
1
1
1
1
1
1
1
1
1
1
1
1
1
1
1
1
1
1
1
1
1
1
1
1
1
1
1
1
1
1
1
1
1
1
1
1
1
1
1
1
1
1
1
1
1
1
1
1
1
1
2.53708e-06
2.30112e-06
3.09478e-06
2.13472e-06
1.94114e-06
2.26751e-06
4.65657e-06
5.03528e-06
1.78238e-06
2.95008e-06
3.76925e-06
3.92497e-06
2.41855e-06
1.98629e-06
2.85503e-06
2.16331e-06
2.07226e-06
3.9657e-06
3.61095e-06
3.56278e-06
3.60107e-06
3.98961e-06
2.43131e-06
2.48404e-06
3.38116e-06
4.33852e-06
4.99789e-06
3.27343e-06
0.999995
0.999997
0.999995
0.999997
0.999998
0.999996
0.999996
0.999995
0.999997
0.999994
0.999992
0.999997
0.999999
0.999996
0.999993
0.999997
0.999995
0.999995
0.999996
0.999994
0.999995
0.999999
0.999997
0.999994
0.999993
0.999997
0.999994
0.999996
1
1
1
1
1
1
1
1
1
1
1
1
1
1
1
1
1
1
1
1
1
1
1
1
1
1
1
1
1
1
1
1
1
1
1
1
1
1
1
1
1
1
1
1
1
1
1
1
1
1
1
1
1
1
1
1
1
1
1
1
1
1
1
1
1
1
1
1
1
1
1
1
1
1
1
1
1
1
1
1
1
1
1
1
4.56113e-06
3.23552e-06
3.59674e-06
2.37587e-06
1
1
0.999999
0.999998
)
;

boundaryField
{
    top_fluid_surface
    {
        type            inletOutlet;
        inletValue      uniform 0;
        value           nonuniform List<scalar> 
64
(
0
0
0
2.18044e-06
2.1289e-06
3.14609e-06
2.56453e-06
2.7113e-06
0
0
0
2.41645e-06
2.88845e-06
2.70814e-06
0
0
3.45066e-06
2.52002e-06
2.15998e-06
2.78462e-06
0
0
2.61403e-06
3.16209e-06
0
2.70735e-06
0
0
2.31288e-06
2.14259e-06
2.49317e-06
2.72626e-06
2.53708e-06
2.30112e-06
0
2.13472e-06
1.94114e-06
2.26751e-06
0
0
1.78238e-06
2.95008e-06
0
0
2.41855e-06
1.98629e-06
0
2.16331e-06
2.07226e-06
0
0
0
0
0
2.43131e-06
2.48404e-06
0
0
0
0
0
0
0
2.37587e-06
)
;
    }
    bottom_fluid_surface
    {
        type            zeroGradient;
    }
    lateral_surface_1
    {
        type            zeroGradient;
    }
    lateral_surface_2
    {
        type            zeroGradient;
    }
    lateral_surface_3
    {
        type            zeroGradient;
    }
    lateral_surface_4
    {
        type            zeroGradient;
    }
}


// ************************************************************************* //
