/*--------------------------------*- C++ -*----------------------------------*\
| =========                 |                                                 |
| \\      /  F ield         | OpenFOAM: The Open Source CFD Toolbox           |
|  \\    /   O peration     | Version:  v1612+                                |
|   \\  /    A nd           | Web:      www.OpenFOAM.com                      |
|    \\/     M anipulation  |                                                 |
\*---------------------------------------------------------------------------*/
FoamFile
{
    version     2.0;
    format      ascii;
    class       volVectorField;
    location    "1.3";
    object      U;
}
// * * * * * * * * * * * * * * * * * * * * * * * * * * * * * * * * * * * * * //

dimensions      [0 1 -1 0 0 0 0];

internalField   nonuniform List<vector> 
320
(
(-1.39897e-06 6.06166e-08 -4.90501e-06)
(1.19908e-06 5.55923e-08 -4.42473e-06)
(4.60343e-07 2.5324e-06 1.87669e-07)
(5.42671e-07 9.94245e-07 7.96003e-07)
(-6.51387e-05 -0.000122799 -9.012e-05)
(0.000131901 -3.91087e-05 -0.000114373)
(0.000166084 5.06633e-05 -4.05847e-05)
(0.000169118 8.01588e-05 8.69951e-05)
(4.76865e-05 1.80795e-05 8.47392e-05)
(5.40858e-05 2.9829e-05 3.8957e-05)
(0.000122134 -3.55534e-05 2.78955e-05)
(0.000135039 4.25683e-05 4.83245e-05)
(0.00011215 -4.04702e-05 -7.58015e-05)
(-6.05359e-05 -4.57573e-05 -2.92984e-05)
(-0.000101579 -7.73779e-05 -5.00593e-06)
(-8.00244e-05 -7.81806e-05 8.30232e-05)
(-4.96209e-06 -1.07776e-06 4.23807e-06)
(3.66022e-06 6.88303e-07 3.50754e-06)
(5.74729e-06 -2.88063e-07 8.24848e-07)
(5.0326e-06 -1.98376e-06 -1.81708e-06)
(2.32588e-06 2.63695e-06 1.51492e-06)
(6.59341e-06 3.21921e-06 4.48297e-06)
(3.07929e-06 2.56494e-06 -3.61198e-06)
(-5.37507e-06 3.81852e-06 1.20421e-06)
(-3.11503e-07 -2.53205e-06 6.54939e-06)
(-1.4299e-06 4.23472e-06 -3.62366e-07)
(-2.23527e-06 -1.68243e-06 5.54453e-07)
(-3.93051e-06 -5.01664e-06 -1.39015e-06)
(1.53515e-07 -7.99944e-07 3.2005e-06)
(-1.80913e-07 -3.31347e-07 2.28755e-06)
(3.09222e-08 4.57529e-07 1.50299e-06)
(1.48215e-06 7.84204e-07 -1.40723e-06)
(-3.08205e-07 2.31822e-06 2.02725e-06)
(7.40147e-07 -1.13506e-07 5.09337e-06)
(9.84889e-07 7.96425e-07 -4.15078e-06)
(-1.84028e-06 1.87498e-06 1.51868e-06)
(1.11644e-06 7.87868e-07 6.35236e-06)
(1.07061e-06 1.43557e-06 4.14885e-07)
(-7.97084e-07 -2.51221e-07 2.50255e-07)
(6.06648e-08 -6.86276e-08 1.94886e-07)
(-8.19713e-07 -8.76228e-08 -1.21006e-06)
(5.27044e-07 -2.60619e-07 -1.15958e-06)
(3.44298e-07 1.65435e-06 2.13876e-07)
(2.00511e-08 3.34259e-07 1.51582e-07)
(4.6584e-07 -8.00986e-08 2.80058e-07)
(-2.41201e-07 -6.63437e-08 1.0965e-07)
(-2.32824e-07 -1.03278e-07 3.88295e-09)
(9.3948e-07 1.73631e-07 -3.97926e-07)
(-2.10965e-07 1.57656e-06 5.82578e-07)
(9.44295e-07 7.63051e-08 9.6568e-07)
(4.49246e-07 3.95937e-07 -6.24289e-07)
(-1.23359e-06 9.90713e-07 3.79946e-07)
(1.0139e-06 2.17523e-07 9.53165e-07)
(1.30728e-06 7.48138e-07 -7.53548e-08)
(-5.21739e-08 -1.39076e-07 -6.23216e-08)
(5.82293e-07 3.69088e-08 1.60764e-08)
(5.87814e-05 -1.5022e-05 2.72174e-05)
(4.11723e-05 -5.14984e-05 5.12487e-05)
(5.34299e-05 -0.00011442 -2.47915e-05)
(3.97688e-05 -4.82946e-05 -1.47044e-05)
(-0.0001199 4.58281e-05 1.93799e-05)
(0.000108256 9.03063e-05 8.91012e-05)
(-1.9413e-05 -2.53048e-05 0.000108595)
(-4.77595e-05 -0.000106006 5.21877e-05)
(-7.17657e-05 -4.42782e-05 6.38837e-06)
(1.8451e-05 5.14567e-05 -2.80748e-05)
(3.89622e-05 8.69424e-05 7.96048e-05)
(0.00016736 6.76911e-05 3.80252e-05)
(0.00011027 1.94484e-05 -1.43684e-05)
(0.000112669 9.93583e-06 2.82087e-05)
(0.000115691 1.92398e-05 -5.00564e-05)
(-4.0884e-05 -0.000130454 -0.000107348)
(2.44433e-05 -9.11762e-05 8.43066e-05)
(8.54102e-05 1.2578e-05 9.5887e-05)
(0.000185431 3.74319e-05 8.25393e-05)
(0.000236724 5.28482e-05 3.02275e-05)
(1.12816e-06 2.46082e-06 -1.70812e-06)
(-4.38122e-06 3.65034e-06 -5.33302e-07)
(1.43464e-06 -1.97457e-06 -3.33946e-06)
(6.975e-06 1.45271e-06 -3.17549e-06)
(-8.51604e-07 4.97134e-06 2.14817e-07)
(-1.86045e-06 -1.25438e-06 -2.95435e-07)
(-2.65941e-06 -1.50515e-06 -1.57861e-06)
(-3.5821e-06 -9.03091e-07 -2.10748e-06)
(-4.57483e-06 -5.36409e-06 -8.25959e-07)
(-2.30765e-06 -8.40871e-06 2.83818e-06)
(-5.60318e-06 -5.2351e-06 -8.28958e-07)
(7.46796e-07 1.51132e-06 1.75395e-06)
(3.73366e-06 1.71625e-06 6.33714e-06)
(7.39522e-06 -4.46586e-06 2.36665e-06)
(4.07816e-06 -5.57536e-06 -4.76327e-06)
(6.66295e-06 -5.0066e-06 1.75604e-06)
(6.4978e-06 -1.41426e-07 -7.04539e-07)
(1.935e-06 -2.17021e-06 -3.08482e-06)
(2.90345e-06 2.28568e-06 8.96047e-07)
(4.0947e-06 6.44143e-06 7.80886e-07)
(-8.30382e-07 -9.76898e-08 -1.03364e-06)
(-1.13625e-06 1.63268e-06 -1.2145e-06)
(-5.83727e-08 3.54982e-07 -4.20776e-06)
(1.48883e-06 5.02388e-07 -3.2232e-06)
(1.9266e-06 -5.2117e-07 1.87939e-06)
(-8.64461e-09 -3.37986e-07 1.67829e-06)
(7.34149e-07 -2.83512e-07 -2.72438e-08)
(-3.77761e-07 2.5222e-07 -9.38003e-07)
(-7.46881e-07 8.43922e-07 2.16431e-07)
(-9.4816e-07 2.95631e-07 1.84333e-06)
(-2.60713e-07 -7.52366e-07 8.91219e-07)
(-1.44582e-06 1.0236e-06 3.05401e-06)
(4.68915e-07 1.71262e-06 6.87516e-06)
(3.9783e-06 -4.94243e-07 2.16385e-06)
(2.02433e-06 -1.06411e-06 -5.84323e-06)
(2.98598e-06 -1.0327e-06 1.19695e-06)
(9.1973e-07 6.18846e-07 1.12857e-07)
(1.24944e-08 -9.4932e-07 -2.3512e-06)
(-9.9271e-07 -8.33242e-07 2.22029e-06)
(-1.30654e-06 8.31818e-07 3.11562e-07)
(-4.20089e-07 2.41944e-07 -2.11981e-07)
(-7.1646e-07 1.93205e-06 -5.13249e-07)
(5.50221e-07 9.29289e-07 -9.58815e-07)
(1.25314e-06 8.62205e-07 -8.94121e-07)
(1.45245e-06 -9.15194e-08 -1.02186e-07)
(-5.87638e-07 -3.80003e-07 4.69969e-08)
(5.17857e-07 -2.38761e-07 -3.28573e-07)
(-5.44939e-07 3.39073e-07 -2.73705e-07)
(-6.84759e-09 5.2288e-07 -3.07253e-07)
(-8.70333e-07 -6.07749e-07 3.00324e-07)
(-8.40214e-08 -5.76456e-07 2.0185e-07)
(-8.94358e-07 3.5549e-07 5.55462e-07)
(5.22711e-07 9.89722e-07 1.46429e-06)
(2.93678e-06 -2.14725e-07 4.84514e-07)
(1.43157e-06 -9.5097e-07 -9.82094e-07)
(2.45217e-06 -6.38788e-07 -4.59694e-08)
(1.22735e-06 5.8828e-07 -1.93509e-07)
(5.63497e-07 -8.12608e-07 -4.82333e-07)
(-5.97744e-07 -4.48015e-07 3.05199e-07)
(-6.64336e-07 9.69465e-07 1.17149e-09)
(-3.10676e-07 1.20663e-07 -3.6839e-07)
(4.51e-07 3.36466e-08 -2.97291e-07)
(2.84712e-07 9.59181e-07 4.23917e-07)
(1.0353e-07 3.36436e-07 2.80415e-07)
(1.15614e-07 -4.5332e-08 6.3317e-07)
(3.46911e-08 -4.25129e-08 5.6456e-07)
(6.05397e-08 1.6128e-08 3.24508e-07)
(5.67694e-07 1.89502e-07 -2.72821e-07)
(-2.12973e-08 8.42547e-07 2.92756e-07)
(3.794e-07 1.33787e-07 4.0076e-07)
(3.34365e-07 2.54585e-07 -3.73678e-07)
(-2.97205e-07 5.13884e-07 3.22345e-07)
(7.3245e-07 1.71073e-07 5.81541e-07)
(7.2764e-07 3.22966e-07 2.01681e-07)
(-3.90447e-08 -1.35451e-07 2.06821e-07)
(2.28974e-07 -6.43483e-08 1.81981e-07)
(-2.35469e-07 1.21507e-07 1.93819e-08)
(-3.32511e-07 7.766e-07 -3.83085e-07)
(3.8954e-07 2.87718e-07 -3.26277e-07)
(6.28041e-07 2.88171e-07 -1.8015e-07)
(8.02162e-07 -7.1236e-08 2.99392e-07)
(-5.25811e-08 -1.02859e-07 2.54018e-07)
(4.27374e-07 -4.81904e-08 2.19026e-08)
(-2.0235e-07 1.48143e-07 1.77821e-08)
(-7.48926e-08 2.16678e-07 1.6433e-07)
(-4.0387e-07 -5.33329e-08 2.92443e-07)
(-5.92048e-08 -9.14027e-08 1.65578e-07)
(-2.76567e-07 3.01168e-07 3.49496e-07)
(3.68224e-07 5.10124e-07 8.35156e-07)
(1.54514e-06 -6.33289e-09 2.11315e-07)
(9.33889e-07 -3.24861e-07 -5.58399e-07)
(1.09554e-06 -3.03613e-07 2.28987e-08)
(5.83058e-07 1.87687e-07 -1.96695e-07)
(2.20966e-07 -3.78004e-07 -3.86767e-07)
(-1.39524e-07 -2.41756e-07 1.91956e-07)
(-2.49575e-07 3.94122e-07 -2.41448e-07)
(0.00021157 -6.25262e-05 1.97957e-05)
(2.44478e-05 -0.000102132 8.31094e-05)
(3.42483e-05 -2.8206e-05 -4.60087e-05)
(0.00012894 -9.52765e-05 0.000119441)
(5.72528e-06 -0.000103749 0.000112578)
(-0.000149749 -6.13559e-05 6.54327e-05)
(-0.000163779 -7.38959e-05 -0.000113216)
(-0.000176524 0.000208929 -0.000174733)
(-4.13195e-07 0.000151501 0.000123559)
(-0.000115747 -7.57814e-05 2.04502e-07)
(-5.08637e-05 -3.424e-05 -9.65411e-05)
(-4.41757e-05 9.60444e-05 -8.18122e-05)
(8.93667e-05 0.000191912 8.89242e-05)
(9.59747e-05 5.14704e-06 8.61099e-05)
(3.30769e-05 -1.42049e-06 -5.36639e-06)
(3.81669e-05 -9.44572e-06 5.14352e-05)
(0.00018996 -6.151e-07 8.53974e-05)
(0.000192574 -3.19027e-05 -6.3835e-05)
(0.000112629 -8.30746e-05 -7.1085e-05)
(1.26868e-05 -3.1784e-05 -9.51219e-05)
(4.00426e-06 1.99498e-05 -0.000200579)
(5.57077e-05 -4.38006e-05 -0.000141232)
(-5.91454e-05 -0.000131806 2.04054e-05)
(5.45685e-05 8.04704e-05 1.22534e-05)
(0.00011237 8.34368e-05 -5.80998e-05)
(0.000125231 7.31692e-05 -0.000104137)
(0.000148064 1.14174e-05 -0.000174093)
(8.35944e-05 -0.000127151 -6.38634e-05)
(6.76661e-06 1.84431e-06 -1.85206e-06)
(-1.13955e-06 1.21627e-06 -1.88348e-07)
(-5.26786e-07 4.11205e-06 -3.50049e-06)
(5.85793e-06 -2.63811e-06 -7.67163e-07)
(-1.19838e-06 -3.112e-07 -2.48124e-06)
(9.78708e-07 5.53545e-06 1.57077e-06)
(2.05212e-06 -2.14148e-06 6.33906e-06)
(-5.62474e-06 -1.3863e-06 2.65112e-06)
(-4.30566e-06 -2.09589e-06 -2.77113e-06)
(-6.46639e-06 -3.70554e-06 -2.37511e-06)
(-6.50605e-06 7.21491e-07 1.74425e-06)
(-4.84158e-06 4.49354e-06 3.72999e-06)
(3.35182e-06 2.82471e-07 -2.71044e-06)
(3.84983e-06 -2.63519e-06 -2.82438e-06)
(9.42752e-07 -3.13319e-06 -5.98893e-07)
(-3.32693e-06 -5.88559e-06 -1.32438e-06)
(-3.8723e-06 -5.40945e-06 -1.31766e-06)
(6.02117e-07 -1.26641e-06 7.04839e-06)
(6.97995e-06 -2.27783e-06 2.57353e-06)
(1.15565e-06 -8.51314e-07 -4.18459e-06)
(-1.7698e-06 6.44591e-07 -1.93013e-06)
(-2.73933e-07 1.04154e-06 -1.18023e-06)
(4.84714e-06 -1.12529e-07 -5.89242e-06)
(4.6204e-06 -4.93122e-07 -4.11295e-06)
(4.49549e-06 -5.27675e-06 6.24786e-07)
(1.51389e-06 -2.85708e-06 5.26671e-06)
(-6.47357e-07 6.32365e-06 5.567e-06)
(1.39648e-06 3.88807e-06 1.31821e-06)
(-4.21679e-07 2.37369e-07 -2.12802e-06)
(-7.40175e-07 -4.5277e-07 6.73228e-07)
(-2.99149e-07 1.47163e-07 -4.81349e-06)
(9.49354e-07 -1.28987e-06 -1.84844e-07)
(9.07037e-07 -8.6059e-07 -1.53306e-06)
(1.86254e-06 -7.08095e-07 1.43377e-06)
(7.10115e-07 -7.96531e-07 5.83447e-06)
(6.21681e-07 -1.36881e-06 1.5273e-06)
(-1.37502e-07 -7.34915e-07 -1.64283e-06)
(2.24773e-07 4.15109e-07 -2.47406e-06)
(5.611e-07 8.37179e-07 7.69089e-07)
(8.09715e-07 -6.83898e-07 2.07255e-06)
(-9.66736e-07 -7.0641e-07 -1.82553e-06)
(-1.92362e-07 2.3694e-07 -2.13256e-06)
(-7.00924e-07 -5.37449e-07 -2.23968e-06)
(1.22182e-08 -1.03075e-08 -1.32031e-06)
(-1.48006e-06 -8.10369e-07 -1.50949e-06)
(-3.22456e-07 2.39248e-08 7.34248e-06)
(3.89318e-06 -1.90308e-08 1.78743e-06)
(1.96464e-06 1.09051e-07 -4.96731e-06)
(-2.5012e-07 4.06718e-08 -2.31209e-06)
(-3.18482e-07 5.27077e-07 -2.44165e-06)
(1.34104e-06 -3.16675e-07 -6.52278e-06)
(3.97446e-07 -1.53791e-06 -4.09437e-06)
(-8.15699e-07 -2.16367e-06 -4.67849e-07)
(-8.16899e-07 -1.38765e-06 4.63599e-06)
(-1.3701e-06 4.73395e-07 4.22975e-06)
(-1.17536e-06 4.32115e-07 -5.62346e-07)
(-1.11266e-07 2.07902e-07 -2.0595e-07)
(-3.80295e-07 -7.99487e-08 6.73044e-08)
(-2.21504e-07 1.68106e-07 -7.08646e-07)
(8.28645e-07 -5.74905e-07 -4.56356e-08)
(7.87984e-07 -1.10318e-07 -2.40502e-07)
(1.72768e-06 -1.0975e-07 4.42321e-07)
(7.48555e-07 -3.85546e-07 8.64481e-07)
(4.72759e-07 -1.45311e-06 2.21923e-07)
(-6.13038e-07 -1.03787e-06 2.74978e-09)
(-1.8511e-07 2.1633e-07 -2.01598e-07)
(-1.57949e-07 1.05185e-06 3.34861e-07)
(5.27666e-07 -2.49089e-07 2.44032e-07)
(-9.29919e-07 -1.25992e-06 -3.44289e-07)
(-1.24508e-07 -1.45617e-07 -1.0793e-07)
(-6.90316e-07 -9.51028e-07 -2.64056e-08)
(-1.89441e-08 -3.25635e-07 2.54943e-07)
(-1.11693e-06 -1.01611e-06 7.19808e-08)
(-6.63377e-07 -1.0306e-07 1.50227e-06)
(2.95459e-06 1.69983e-07 4.22929e-07)
(1.92095e-06 -1.2087e-07 -8.17518e-07)
(-3.32212e-08 -3.19397e-07 -4.68028e-07)
(-2.31747e-07 3.16497e-07 -6.30753e-07)
(1.23425e-06 1.33002e-08 -9.62536e-07)
(4.20342e-07 -1.14054e-06 -4.81472e-07)
(-4.94573e-07 -1.96417e-06 -3.38536e-09)
(-7.31219e-07 -1.19092e-06 7.6272e-07)
(-1.23748e-06 7.28422e-07 7.65092e-07)
(-9.72261e-07 4.73122e-07 4.4818e-07)
(-6.98821e-08 3.45332e-08 -4.19216e-07)
(-1.53505e-07 -8.11767e-08 -2.20462e-08)
(-5.05973e-08 -4.74314e-08 -5.88234e-07)
(5.2312e-07 -3.63091e-07 -1.18711e-07)
(4.19493e-07 -1.81012e-07 -2.64946e-07)
(7.42121e-07 -1.54544e-07 2.46565e-07)
(2.81486e-07 -1.20972e-07 7.08379e-07)
(3.15059e-07 -5.06532e-07 4.60881e-07)
(-1.5381e-07 -3.5866e-07 -2.343e-07)
(5.92579e-08 3.97343e-08 -2.42259e-07)
(-6.58853e-08 3.40281e-07 -8.52963e-08)
(2.51396e-07 -6.7734e-08 4.39529e-07)
(-3.50297e-07 -3.60008e-07 -2.96822e-07)
(-5.52795e-08 3.51726e-08 -4.54896e-07)
(-3.43498e-07 -2.59845e-07 -4.17434e-07)
(2.48991e-08 -2.51997e-08 -1.06323e-07)
(-2.67162e-07 -3.43949e-07 -3.26002e-07)
(1.02963e-08 -3.46043e-08 7.60816e-07)
(1.56743e-06 1.3979e-08 3.53155e-07)
(1.07772e-06 -5.69023e-08 -6.217e-07)
(1.00863e-07 -1.29854e-07 -4.87574e-07)
(2.79108e-08 1.14842e-08 -2.93817e-07)
(4.37208e-07 -1.79758e-07 -7.82435e-07)
(1.51767e-07 -5.51607e-07 -4.86829e-07)
(-3.02086e-07 -8.58033e-07 -2.14294e-07)
(-3.28263e-07 -5.34889e-07 5.82654e-07)
(-5.95219e-07 1.91148e-07 4.04426e-07)
(-5.31236e-07 9.85161e-08 4.31046e-08)
(8.00454e-05 3.19439e-05 -0.000172734)
(0.000227129 9.29991e-05 -4.03491e-05)
(0.000105157 0.000122917 -6.75088e-05)
(0.000180177 8.9761e-06 6.2914e-05)
(1.32371e-06 3.30355e-07 -3.72655e-06)
(2.22423e-06 1.91647e-06 -4.08965e-06)
(-1.36322e-06 1.78209e-06 3.93732e-07)
(1.34617e-06 -2.46397e-06 2.07768e-07)
)
;

boundaryField
{
    top_fluid_surface
    {
        type            pressureInletOutletVelocity;
        value           nonuniform List<vector> 
64
(
(0 0 -9.012e-05)
(0 0 -0.000114373)
(0 0 -4.05847e-05)
(0.000169118 8.01588e-05 8.69951e-05)
(4.76865e-05 1.80795e-05 8.47392e-05)
(5.40858e-05 2.9829e-05 3.8957e-05)
(0.000122134 -3.55534e-05 2.78955e-05)
(0.000135039 4.25683e-05 4.83245e-05)
(0 0 -7.58015e-05)
(0 0 -2.92984e-05)
(0 0 -5.00593e-06)
(-8.00244e-05 -7.81806e-05 8.30232e-05)
(5.87814e-05 -1.5022e-05 2.72174e-05)
(4.11723e-05 -5.14984e-05 5.12487e-05)
(0 0 -2.47915e-05)
(0 0 -1.47044e-05)
(-0.0001199 4.58281e-05 1.93799e-05)
(0.000108256 9.03063e-05 8.91012e-05)
(-1.9413e-05 -2.53048e-05 0.000108595)
(-4.77595e-05 -0.000106006 5.21877e-05)
(0 0 6.38837e-06)
(0 0 -2.80748e-05)
(3.89622e-05 8.69424e-05 7.96048e-05)
(0.00016736 6.76911e-05 3.80252e-05)
(0 0 -1.43684e-05)
(0.000112669 9.93583e-06 2.82087e-05)
(0 0 -5.00564e-05)
(0 0 -0.000107348)
(2.44433e-05 -9.11762e-05 8.43066e-05)
(8.54102e-05 1.2578e-05 9.5887e-05)
(0.000185431 3.74319e-05 8.25393e-05)
(0.000236724 5.28482e-05 3.02275e-05)
(0.00021157 -6.25262e-05 1.97957e-05)
(2.44478e-05 -0.000102132 8.31094e-05)
(0 0 -4.60087e-05)
(0.00012894 -9.52765e-05 0.000119441)
(5.72528e-06 -0.000103749 0.000112578)
(-0.000149749 -6.13559e-05 6.54327e-05)
(0 0 -0.000113216)
(0 0 -0.000174733)
(-4.13195e-07 0.000151501 0.000123559)
(-0.000115747 -7.57814e-05 2.04502e-07)
(0 0 -9.65411e-05)
(0 0 -8.18122e-05)
(8.93667e-05 0.000191912 8.89242e-05)
(9.59747e-05 5.14704e-06 8.61099e-05)
(3.30769e-05 -1.42049e-06 -5.36639e-06)
(3.81669e-05 -9.44572e-06 5.14352e-05)
(0.00018996 -6.151e-07 8.53974e-05)
(0 0 -6.3835e-05)
(0 0 -7.1085e-05)
(0 0 -9.51219e-05)
(0 0 -0.000200579)
(0 0 -0.000141232)
(-5.91454e-05 -0.000131806 2.04054e-05)
(5.45685e-05 8.04704e-05 1.22534e-05)
(0 0 -5.80998e-05)
(0 0 -0.000104137)
(0 0 -0.000174093)
(0 0 -6.38634e-05)
(0 0 -0.000172734)
(0 0 -4.03491e-05)
(0 0 -6.75088e-05)
(0.000180177 8.9761e-06 6.2914e-05)
)
;
    }
    bottom_fluid_surface
    {
        type            noSlip;
    }
    lateral_surface_1
    {
        type            noSlip;
    }
    lateral_surface_2
    {
        type            noSlip;
    }
    lateral_surface_3
    {
        type            noSlip;
    }
    lateral_surface_4
    {
        type            noSlip;
    }
}


// ************************************************************************* //
