/*--------------------------------*- C++ -*----------------------------------*\
| =========                 |                                                 |
| \\      /  F ield         | OpenFOAM: The Open Source CFD Toolbox           |
|  \\    /   O peration     | Version:  v1612+                                |
|   \\  /    A nd           | Web:      www.OpenFOAM.com                      |
|    \\/     M anipulation  |                                                 |
\*---------------------------------------------------------------------------*/
FoamFile
{
    version     2.0;
    format      ascii;
    class       volScalarField;
    location    "4.65";
    object      alpha.water;
}
// * * * * * * * * * * * * * * * * * * * * * * * * * * * * * * * * * * * * * //

dimensions      [0 0 0 0 0 0 0];

internalField   nonuniform List<scalar> 
1116
(
0.405976
0.405976
0.405978
0.405976
0.405976
0.40598
0.412484
0.412484
0.412485
0.412483
0.412484
0.412489
0.435245
0.435244
0.435245
0.435244
0.435245
0.43525
0.493612
0.493611
0.493612
0.493612
0.493613
0.493618
0.627424
0.627423
0.627425
0.627425
0.627426
0.62743
0.836064
0.836061
0.836064
0.836063
0.836063
0.836067
0.974003
0.974003
0.974003
0.974003
0.974003
0.974003
0.974009
0.974009
0.974009
0.974009
0.974009
0.974009
0.974002
0.974002
0.974002
0.974002
0.974002
0.974002
0.973988
0.973988
0.973988
0.973988
0.973988
0.973988
0.973964
0.973964
0.973964
0.973964
0.973964
0.973964
0.974017
0.974017
0.974017
0.974017
0.974017
0.974017
1.61871e-08
1.61869e-08
1.61869e-08
1.6187e-08
1.6187e-08
1.61873e-08
1.32142e-08
1.3214e-08
1.3214e-08
1.32139e-08
1.32139e-08
1.32143e-08
1.3214e-08
1.3214e-08
1.32139e-08
1.32139e-08
1.32139e-08
1.32139e-08
1.39081e-05
1.392e-05
1.38825e-05
1.39075e-05
1.39224e-05
1.38846e-05
0.00969858
0.00969722
0.00969772
0.00969816
0.00969761
0.00969798
0.110005
0.109994
0.109997
0.109997
0.109993
0.109998
0.538501
0.538513
0.538499
0.538495
0.538498
0.538494
0.932928
0.932935
0.932927
0.932927
0.932928
0.932929
0.974
0.974
0.974
0.974
0.974
0.974
0.973979
0.973979
0.973979
0.973979
0.973979
0.973979
0.974051
0.974051
0.974051
0.974051
0.974051
0.974051
0.973891
0.973891
0.973891
0.973891
0.973891
0.973891
1.3845e-07
1.38359e-07
1.38386e-07
1.38393e-07
1.38365e-07
1.38473e-07
3.77555e-07
3.77485e-07
3.77508e-07
3.77505e-07
3.77469e-07
3.77589e-07
2.4702e-08
2.46973e-08
2.47009e-08
2.46934e-08
2.46934e-08
2.47191e-08
3.54648e-08
3.5454e-08
3.5454e-08
3.54496e-08
3.54506e-08
3.54777e-08
4.82196e-07
4.81999e-07
4.81832e-07
4.81984e-07
4.8206e-07
4.82135e-07
0.000259503
0.000259281
0.00025938
0.000259402
0.000259325
0.00025941
0.0760275
0.0760365
0.0760291
0.0760241
0.0760303
0.0760173
0.446195
0.446353
0.446276
0.446265
0.446316
0.446215
0.654668
0.654921
0.654803
0.654791
0.654866
0.654727
0.677109
0.677425
0.677286
0.677265
0.677353
0.677208
0.628472
0.628764
0.628651
0.628605
0.628659
0.628628
0.64483
0.644687
0.644774
0.644776
0.644692
0.644907
5.95656e-08
5.94772e-08
5.95003e-08
5.95056e-08
5.94768e-08
5.95815e-08
4.49905e-07
4.49909e-07
4.49913e-07
4.49919e-07
4.49925e-07
4.49925e-07
9.68619e-08
9.67896e-08
9.68051e-08
9.68009e-08
9.67889e-08
9.68807e-08
2.68227e-08
2.67632e-08
2.67924e-08
2.68049e-08
2.67786e-08
2.68026e-08
2.86279e-07
2.85863e-07
2.86065e-07
2.86171e-07
2.85993e-07
2.86112e-07
2.4202e-05
2.4145e-05
2.41702e-05
2.41805e-05
2.4159e-05
2.41808e-05
0.0219437
0.0219057
0.0219233
0.0219346
0.0219172
0.0219315
0.109088
0.109132
0.109106
0.109135
0.109141
0.109105
0.135025
0.135179
0.1351
0.135124
0.135167
0.135079
0.0726293
0.0728195
0.0727329
0.0727264
0.0727789
0.0727058
0.015426
0.0154801
0.0154629
0.0154468
0.0154492
0.0154788
0.0227473
0.0226851
0.0227236
0.0227184
0.0226904
0.0227738
6.34968e-10
6.41211e-10
6.16579e-10
6.65662e-10
7.04002e-10
5.2174e-10
1.81557e-09
1.82419e-09
1.74848e-09
1.84795e-09
1.92505e-09
1.48575e-09
1.04925e-07
1.05244e-07
1.01028e-07
1.05334e-07
1.08719e-07
8.70679e-08
3.80967e-06
3.8223e-06
3.67036e-06
3.81935e-06
3.90826e-06
3.19979e-06
7.07435e-05
7.09941e-05
6.83794e-05
7.06397e-05
7.10348e-05
6.10449e-05
0.00966069
0.00960358
0.009206
0.00946423
0.00911502
0.00830424
0.0280664
0.0281165
0.0280876
0.0278211
0.0281195
0.0284343
0.0314454
0.0315655
0.0322341
0.0317502
0.0326092
0.0335502
0.0319491
0.0322341
0.0329946
0.0327077
0.0335502
0.0343787
0.0316857
0.0314786
0.0322919
0.0304492
0.0297689
0.0334681
0.0073373
0.00729008
0.00729922
0.00798846
0.00824994
0.00758398
0.000148504
0.000129189
0.000109119
9.00545e-05
6.09047e-05
8.61643e-05
3.34939e-11
3.39036e-11
3.26025e-11
3.55831e-11
3.79279e-11
2.73576e-11
4.46779e-10
4.51773e-10
4.3304e-10
4.68506e-10
4.95163e-10
3.64745e-10
3.10881e-08
3.14446e-08
3.01071e-08
3.26554e-08
3.45535e-08
2.54149e-08
2.9521e-05
2.97397e-05
2.8365e-05
3.16801e-05
3.36159e-05
2.28847e-05
0.000371276
0.000372562
0.00036829
0.00037064
0.000366384
0.000351439
0.000470188
0.000470986
0.00047051
0.000457856
0.000446826
0.000474896
4.78626e-07
5.10041e-07
5.16042e-07
4.46453e-07
3.5681e-07
5.32622e-07
0.00258726
0.00238318
0.00251433
0.00183306
0.000988641
0.00237649
0.0316805
0.031603
0.0327819
0.0292805
0.0273974
0.0343219
0.0475436
0.0482164
0.0492391
0.0494269
0.0509269
0.0520653
0.0438091
0.0439327
0.0485262
0.0321066
0.0216381
0.0520876
0.000129192
0.00010912
9.00546e-05
6.09047e-05
4.05216e-05
6.09047e-05
6.37807e-13
6.4677e-13
6.1909e-13
6.83402e-13
7.33993e-13
5.10423e-13
2.24195e-11
2.27479e-11
2.17676e-11
2.38713e-11
2.54965e-11
1.81312e-11
1.88648e-09
1.9139e-09
1.83097e-09
2.01131e-09
2.14808e-09
1.5284e-09
4.21538e-06
4.26356e-06
4.11914e-06
4.52902e-06
4.83841e-06
3.45104e-06
3.14813e-05
3.15897e-05
3.1754e-05
3.11114e-05
3.0768e-05
3.17208e-05
1.89215e-07
1.92332e-07
1.95191e-07
1.79278e-07
1.81361e-07
2.01113e-07
1.268e-08
1.21844e-08
1.18701e-08
1.25238e-08
1.35652e-08
1.21584e-08
1.18339e-10
1.60136e-11
-2.43638e-10
-1.09399e-09
-1.42291e-09
1.05417e-10
1.49308e-05
1.60383e-05
1.52909e-05
1.68987e-05
1.90177e-05
1.62565e-05
0.0473125
0.0475364
0.049378
0.04318
0.032925
0.0519352
0.111782
0.112458
0.112393
0.11336
0.110546
0.113321
0.0147572
0.0165454
0.0267423
0.0028849
4.05216e-05
0.0352711
1.6541e-14
1.67754e-14
1.60589e-14
1.77598e-14
1.91386e-14
1.32186e-14
6.43829e-13
6.53145e-13
6.2499e-13
6.90492e-13
7.42924e-13
5.14676e-13
6.55713e-11
6.65427e-11
6.36015e-11
7.05555e-11
7.60713e-11
5.234e-11
3.11496e-09
3.16972e-09
3.02782e-09
3.35524e-09
3.61314e-09
2.51066e-09
6.12854e-08
6.17662e-08
6.12325e-08
6.11444e-08
6.04586e-08
5.95765e-08
5.67468e-09
5.77334e-09
5.81748e-09
5.44571e-09
5.46151e-09
5.90058e-09
4.36081e-09
2.92001e-09
2.15319e-09
4.98108e-09
8.20932e-09
2.31303e-09
1.38794e-11
1.31266e-11
1.31899e-11
1.29489e-11
1.92131e-11
1.2522e-11
3.66412e-18
-2.52125e-10
-4.53756e-10
-8.10047e-10
-9.15456e-10
-2.9592e-10
1.48917e-05
1.6006e-05
1.52307e-05
1.69019e-05
2.03202e-05
1.61666e-05
0.113269
0.113966
0.113946
0.114887
0.111409
0.114853
0.211875
0.211991
0.212086
0.212086
0.212056
0.211844
2.51237e-09
2.50886e-09
2.51022e-09
2.50919e-09
2.50498e-09
2.51266e-09
1.34678e-10
1.33271e-10
1.33717e-10
1.33637e-10
1.32778e-10
1.34925e-10
-8.24895e-17
-9.05723e-17
-9.30415e-17
-9.09152e-17
-9.0361e-17
-9.26091e-17
1.94107e-07
1.93751e-07
1.9385e-07
1.93832e-07
1.93641e-07
1.94143e-07
8.60393e-17
8.59359e-17
8.59764e-17
8.6051e-17
8.59811e-17
8.61104e-17
2.32014e-18
2.32266e-18
2.32149e-18
2.32195e-18
2.32281e-18
2.32269e-18
1.07144e-11
1.06892e-11
1.07002e-11
1.0706e-11
1.06946e-11
1.07062e-11
6.93083e-14
6.91455e-14
6.92151e-14
6.92532e-14
6.91795e-14
6.92567e-14
1.34782e-17
1.3492e-17
1.34742e-17
1.34771e-17
1.35297e-17
1.34265e-17
7.42406e-10
7.4195e-10
7.41416e-10
7.42099e-10
7.43724e-10
7.41007e-10
1.07144e-11
1.06892e-11
1.07002e-11
1.0706e-11
1.06946e-11
1.07062e-11
2.3042e-13
2.27157e-13
2.28955e-13
2.29121e-13
2.27535e-13
2.30026e-13
2.48274e-08
2.47822e-08
2.48029e-08
2.48142e-08
2.47958e-08
2.48102e-08
8.8326e-10
8.80997e-10
8.81982e-10
8.82447e-10
8.81473e-10
8.82463e-10
4.77842e-10
4.72737e-10
4.75497e-10
4.76024e-10
4.7349e-10
4.77286e-10
1.67329e-06
1.62278e-06
1.64602e-06
1.66881e-06
1.64328e-06
1.66553e-06
5.16384e-08
5.14857e-08
5.15517e-08
5.15772e-08
5.15155e-08
5.15821e-08
4.19223e-09
4.18331e-09
4.18783e-09
4.19122e-09
4.18614e-09
4.19347e-09
1.46184e-06
1.46168e-06
1.46157e-06
1.4615e-06
1.46141e-06
1.46134e-06
5.26215e-06
5.26746e-06
5.26401e-06
5.26581e-06
5.26803e-06
5.26318e-06
1.70212e-06
1.70152e-06
1.70164e-06
1.70225e-06
1.70192e-06
1.70186e-06
1.47367e-06
1.4735e-06
1.4734e-06
1.47332e-06
1.47321e-06
1.47315e-06
7.19683e-06
7.21734e-06
7.20883e-06
7.20647e-06
7.21038e-06
7.19201e-06
4.88549e-06
4.89747e-06
4.89247e-06
4.89234e-06
4.89289e-06
4.88443e-06
7.63157e-07
7.63073e-07
7.63019e-07
7.62831e-07
7.62622e-07
7.62318e-07
9.22881e-06
9.22865e-06
9.22842e-06
9.22825e-06
9.22789e-06
9.22668e-06
1.67343e-06
1.68567e-06
1.68061e-06
1.67972e-06
1.67947e-06
1.66726e-06
4.07267e-08
4.07481e-08
4.06369e-08
4.03118e-08
3.99004e-08
3.96831e-08
3.32965e-08
3.32396e-08
3.31396e-08
3.28206e-08
3.23422e-08
3.18071e-08
7.98119e-10
8.40773e-10
8.30917e-10
8.14459e-10
7.94785e-10
8.0922e-10
2.61958e-07
2.62123e-07
2.62101e-07
2.61831e-07
2.6151e-07
2.61126e-07
4.15054e-08
4.18912e-08
4.18148e-08
4.14653e-08
4.0978e-08
4.07954e-08
1.00204e-05
1.00208e-05
1.00209e-05
1.00211e-05
1.00216e-05
1.00219e-05
0.00601288
0.00600796
0.00600821
0.00601022
0.00602135
0.00599715
-8.37813e-11
-8.3283e-11
-8.36325e-11
-8.33049e-11
-8.30382e-11
-8.42465e-11
3.00408e-06
2.98744e-06
2.99487e-06
2.98735e-06
2.97707e-06
3.02433e-06
0.321985
0.322006
0.322032
0.322031
0.322063
0.322126
1.40922e-07
1.42628e-07
1.45889e-07
2.46591e-11
4.94506e-11
2.755e-08
4.78913e-07
2.18612e-07
2.10739e-07
9.58839e-21
2.22184e-11
2.84664e-10
0.322535
0.322554
0.322571
0.322609
0.322639
0.322639
0.000317617
0.000343708
0.000361325
0.000232295
0.000168749
0.000416564
-2.5233e-24
-1.07678e-24
-4.98525e-24
-1.85647e-24
-1.31412e-24
-1.91507e-24
0.322511
0.322535
0.322554
0.322571
0.322609
0.322639
0.00072574
0.000693576
0.000739964
0.000596459
0.000507015
0.000719332
-3.06152e-24
-2.91753e-24
-3.01606e-24
-2.6815e-24
-5.26774e-24
-1.71227e-24
0.313689
0.31368
0.313855
0.313395
0.313136
0.314103
-6.69781e-18
-9.36477e-18
-4.65224e-16
-1.74162e-15
-4.98028e-24
-3.73978e-24
-6.86368e-24
-8.57604e-24
-9.37143e-24
-9.3041e-24
-8.7476e-24
-6.88991e-24
0.272198
0.272231
0.272324
0.272241
0.272329
0.272289
-3.12293e-16
-4.30478e-16
-2.03162e-14
-7.8429e-14
-3.74181e-24
-3.01226e-24
-7.1516e-25
-1.20074e-24
-9.78323e-25
-3.86507e-24
-6.25019e-24
-4.84881e-24
0.214087
0.214071
0.214131
0.214103
0.214197
0.214076
-3.09515e-17
-3.62079e-17
-1.18503e-15
-4.53204e-15
-5.32209e-18
-1.66716e-17
-1.84686e-26
-3.12667e-26
-2.52806e-26
-1.02339e-25
-1.65706e-25
-1.29302e-25
6.24964e-16
6.32501e-16
6.08093e-16
6.65564e-16
7.102e-16
5.06701e-16
1.03313e-16
1.0285e-16
1.01373e-16
1.04845e-16
1.01533e-16
8.78506e-17
9.24614e-17
9.14216e-17
9.09582e-17
8.93245e-17
8.13432e-17
7.7208e-17
1.47914e-14
1.49912e-14
1.43697e-14
1.58818e-14
1.71765e-14
1.18629e-14
1.03981e-14
1.05012e-14
1.0139e-14
1.11153e-14
1.20204e-14
8.42477e-15
4.58893e-16
4.61721e-16
4.41263e-16
4.85237e-16
5.22553e-16
3.75317e-16
2.09634e-12
2.12563e-12
2.03267e-12
2.25856e-12
2.44076e-12
1.66618e-12
2.77331e-13
2.7264e-13
2.8454e-13
2.58734e-13
2.38199e-13
3.07776e-13
1.75734e-14
1.7638e-14
1.73946e-14
1.80892e-14
1.87992e-14
1.59541e-14
1.39321e-10
1.41397e-10
1.35322e-10
1.49262e-10
1.59852e-10
1.12919e-10
7.08027e-12
7.16877e-12
6.90915e-12
7.53295e-12
8.03864e-12
5.89342e-12
2.53799e-13
2.57082e-13
2.47409e-13
2.70387e-13
2.88609e-13
2.09263e-13
7.58966e-10
7.75856e-10
7.72979e-10
7.52404e-10
7.52876e-10
7.6679e-10
5.43774e-11
5.48933e-11
5.43538e-11
5.43286e-11
5.39663e-11
5.18978e-11
8.42123e-12
8.49303e-12
8.36049e-12
8.40633e-12
8.47878e-12
7.85913e-12
1.32158e-10
1.32815e-10
1.31113e-10
1.2786e-10
1.2518e-10
1.27644e-10
-7.10527e-12
-7.10745e-12
-7.0098e-12
-7.21272e-12
-6.99815e-12
-6.46348e-12
5.45931e-12
5.46446e-12
5.37385e-12
5.50594e-12
5.51428e-12
5.36908e-12
7.23649e-10
6.96446e-10
6.83272e-10
7.11375e-10
7.1384e-10
6.76041e-10
1.2437e-11
1.24608e-11
1.24339e-11
1.12192e-11
1.07497e-11
1.28671e-11
5.32558e-12
5.33319e-12
5.24474e-12
5.36753e-12
5.38178e-12
5.25165e-12
1.19076e-11
1.16031e-11
1.15872e-11
1.28871e-11
1.75787e-11
1.15838e-11
1.26683e-11
1.27722e-11
1.22979e-11
1.31284e-11
1.31103e-11
1.20154e-11
4.74304e-12
4.79678e-12
4.67497e-12
4.88083e-12
4.96562e-12
4.6857e-12
-2.36931e-10
-1.13254e-10
-1.35731e-10
-1.44711e-10
-3.0836e-12
-1.37054e-10
4.99657e-13
3.59106e-13
4.76819e-13
2.14193e-13
3.40505e-14
1.66284e-13
7.78671e-22
8.69719e-22
8.66287e-22
1.15786e-16
6.83363e-22
6.7137e-22
-3.09714e-07
-3.28273e-07
-3.16618e-07
-3.45804e-07
-3.45888e-07
-3.36655e-07
1.69809e-09
-7.13853e-12
-1.46766e-11
2.73838e-09
4.02609e-09
1.47147e-09
2.19527e-07
2.04643e-07
1.92576e-07
2.20517e-07
2.20231e-07
2.19996e-07
-1.39487e-08
-4.51561e-08
-1.15817e-07
-3.32896e-08
-4.10229e-08
-1.18711e-07
9.91388e-10
9.32354e-10
1.02707e-09
1.4047e-09
2.88034e-09
6.48805e-09
3.30071e-11
1.1474e-17
9.9678e-09
1.15085e-09
1.02619e-07
5.99757e-08
0.195961
0.19564
0.194654
0.198594
0.199731
0.19415
1.09924e-09
1.02069e-09
1.25885e-09
8.18568e-10
3.31629e-09
7.6508e-09
1.3232e-06
1.07685e-06
9.07278e-07
3.18062e-06
7.07781e-06
7.89323e-07
)
;

boundaryField
{
    seabed_topleft_surface
    {
        type            zeroGradient;
    }
    seabed_topright_surface
    {
        type            zeroGradient;
    }
    breakwater_top_surface
    {
        type            zeroGradient;
    }
    breakwater_left_surface
    {
        type            zeroGradient;
    }
    breakwater_right_surface
    {
        type            zeroGradient;
    }
    water_front_surface
    {
        type            zeroGradient;
    }
    water_back_surface
    {
        type            zeroGradient;
    }
    water_left_surface
    {
        type            zeroGradient;
    }
    water_right_surface
    {
        type            zeroGradient;
    }
    water_top_surface
    {
        type            inletOutlet;
        inletValue      uniform 0;
        value           nonuniform List<scalar> 
180
(
0
0
0
0
0
0
0
0
0
0
0
0
0
0
0
0
0
0
2.3042e-13
2.27157e-13
2.28955e-13
2.29121e-13
2.27535e-13
2.30026e-13
4.77842e-10
4.72737e-10
4.75497e-10
4.76024e-10
4.7349e-10
4.77286e-10
4.19223e-09
4.18331e-09
4.18783e-09
4.19122e-09
4.18614e-09
4.19347e-09
1.70212e-06
1.70152e-06
1.70164e-06
1.70225e-06
1.70192e-06
1.70186e-06
4.88549e-06
4.89747e-06
4.89247e-06
4.89234e-06
4.89289e-06
4.88443e-06
0
0
0
0
0
0
0
0
0
0
0
0
0
0
0
0
0
0
0
0
0
0
0
0
0
0
0
0
0
0
0
0
0
0
0
0
0
0
0
0
0
0
0
0
0
0
0
0
0
0
0
0
0
0
0
0
0
0
0
0
9.24614e-17
9.14216e-17
9.09582e-17
8.93245e-17
8.13432e-17
7.7208e-17
4.58893e-16
4.61721e-16
4.41263e-16
4.85237e-16
5.22553e-16
3.75317e-16
1.75734e-14
1.7638e-14
1.73946e-14
1.80892e-14
1.87992e-14
1.59541e-14
2.53799e-13
2.57082e-13
2.47409e-13
2.70387e-13
2.88609e-13
2.09263e-13
8.42123e-12
8.49303e-12
8.36049e-12
8.40633e-12
8.47878e-12
7.85913e-12
5.45931e-12
5.46446e-12
5.37385e-12
5.50594e-12
5.51428e-12
5.36908e-12
5.32558e-12
5.33319e-12
5.24474e-12
5.36753e-12
5.38178e-12
5.25165e-12
0
0
0
0
0
0
0
0
0
0
0
0
0
0
0
0
0
0
0
0
0
0
0
0
0
0
0
0
0
0
)
;
    }
}


// ************************************************************************* //
