/*--------------------------------*- C++ -*----------------------------------*\
| =========                 |                                                 |
| \\      /  F ield         | OpenFOAM: The Open Source CFD Toolbox           |
|  \\    /   O peration     | Version:  v1612+                                |
|   \\  /    A nd           | Web:      www.OpenFOAM.com                      |
|    \\/     M anipulation  |                                                 |
\*---------------------------------------------------------------------------*/
FoamFile
{
    version     2.0;
    format      ascii;
    class       volScalarField;
    location    "4.65";
    object      p;
}
// * * * * * * * * * * * * * * * * * * * * * * * * * * * * * * * * * * * * * //

dimensions      [1 -1 -2 0 0 0 0];

internalField   nonuniform List<scalar> 
1116
(
2021.73
2021.74
2021.75
2021.74
2021.74
2021.75
2061.74
2061.75
2061.75
2061.75
2061.75
2061.77
2176.55
2176.56
2176.56
2176.55
2176.56
2176.58
2448.05
2448.04
2448.04
2448.04
2448.05
2448.07
3524.06
3524.07
3524.06
3524.06
3524.07
3524.09
6491.83
6491.76
6491.76
6491.75
6491.72
6491.76
11641.3
11641.3
11641.2
11641.2
11641.1
11641.1
16191.9
16191.9
16191.8
16191.8
16191.8
16191.8
18610
18610.3
18610.2
18610.2
18610.2
18610.1
20738.5
20738.6
20738.6
20738.6
20738.6
20738.5
23710.9
23710.5
23710.7
23710.7
23710.7
23710.9
24486.7
24486.6
24486.7
24486.7
24486.7
24486.9
-3.68873
-3.6885
-3.68863
-3.68883
-3.68898
-3.68923
2.87307
2.87304
2.87287
2.87288
2.87289
2.87278
18.4365
18.4361
18.435
18.4361
18.4369
18.4365
59.9726
59.972
59.9718
59.9726
59.9742
59.9758
151.679
151.677
151.68
151.675
151.677
151.689
582.579
582.353
582.443
582.453
582.38
582.51
3052.29
3052.35
3052.28
3052.25
3052.26
3052.24
6902.14
6901.78
6901.96
6901.98
6901.79
6901.95
7930.55
7930.48
7930.63
7930.63
7930.57
7930.54
9759.99
9759.25
9759.68
9759.64
9759.41
9759.84
12422.6
12421.6
12422
12422
12421.8
12422.4
13165.2
13165
13165.1
13165.1
13165.1
13165.3
2.39842
2.39827
2.39808
2.39799
2.39798
2.39798
2.99754
2.99745
2.99721
2.99706
2.99692
2.99671
4.48191
4.48169
4.48167
4.48175
4.48169
4.48152
1.94557
1.94196
1.94311
1.94326
1.943
1.94466
18.8282
18.8299
18.8309
18.8299
18.8314
18.8315
41.8306
41.8079
41.8169
41.8182
41.8123
41.8248
223.712
223.653
223.669
223.674
223.655
223.713
2660.92
2660.18
2660.73
2660.74
2660.25
2660.67
4403.8
4403.42
4403.7
4403.75
4403.54
4403.84
4386.78
4387.31
4387.26
4387.2
4387.21
4387.3
4004.65
4006.26
4005.87
4005.46
4005.8
4005.86
2913.76
2913.31
2913.49
2913.46
2913.2
2913.97
-18.0921
-18.0919
-18.0921
-18.0922
-18.0923
-18.0926
-16.0749
-16.0747
-16.0749
-16.075
-16.075
-16.0754
-11.7327
-11.7328
-11.733
-11.7331
-11.733
-11.7329
-8.23667
-8.23702
-8.2368
-8.2363
-8.23579
-8.23561
8.12064
8.11741
8.11957
8.12047
8.12027
8.12165
-3.91349
-3.91491
-3.91369
-3.91186
-3.91353
-3.91389
18.6049
18.5253
18.5479
18.5915
18.557
18.604
442.242
442.449
442.321
442.463
442.487
442.323
587.842
588.463
588.13
588.261
588.432
588.079
327.7
328.368
328.071
328.05
328.22
328.036
104.814
104.99
104.941
104.91
104.937
104.983
-765.701
-765.744
-765.796
-765.896
-765.996
-765.832
47.3385
47.3373
47.3352
47.3292
47.3305
47.3
50.3848
50.3865
50.3815
50.3752
50.4231
50.2645
57.7907
57.8246
57.7816
57.7674
57.8544
57.4958
64.3346
64.4206
64.3106
64.2884
64.3839
63.9645
63.5765
63.9272
63.635
63.6007
63.6914
63.2641
63.6768
64.7736
63.5054
63.7398
63.3667
63.1241
95.9604
94.1226
94.2281
89.6098
81.3846
93.1636
770.107
759.017
755.943
714.96
668.036
744.819
2202.41
2201.12
2209.11
2187.65
2172.6
2228.94
1459.81
1457.97
1460.47
1443.56
1427.62
1499.5
760.305
759.559
759.277
755.417
753.599
761.089
759.397
758.814
758.009
752.84
751.549
754.414
32.1402
32.1406
32.1415
32.1383
32.1422
32.119
33.1761
33.1845
33.1824
33.1974
33.2446
33.1089
34.3713
34.4458
34.3799
34.4796
34.5929
34.1881
21.1299
21.308
21.1565
21.3269
21.4167
21.3004
-49.4085
-49.1685
-48.9772
-48.8771
-48.2582
-47.3471
-170.276
-169.938
-169.195
-168.788
-167.509
-167.135
-138.051
-138.51
-138.766
-139.078
-140.432
-139.545
-9.39926
-9.84
-10.3501
-10.0985
-11.7306
-11.5116
198.937
196.373
197.058
187.768
172.942
198.126
285.9
284.478
285.61
269.489
274.382
302.526
283.526
283.945
287.261
284.321
269.854
297.405
612.307
611.761
610.325
608.095
600.606
604.965
10.96
10.9613
10.9623
10.9626
10.9658
10.9545
9.4552
9.46098
9.4624
9.47072
9.49114
9.44388
3.91554
3.94758
3.93342
3.98467
4.05252
3.89888
-15.1982
-15.1097
-15.1429
-15.0634
-15.0213
-15.0256
-64.0703
-64.0346
-63.8839
-63.913
-63.8186
-63.5306
-108.627
-108.646
-108.438
-108.504
-108.42
-108.627
-100.603
-100.601
-100.601
-99.9581
-99.1944
-101.309
-62.3511
-62.2767
-62.5785
-61.3633
-60.5482
-62.9833
-27.9243
-28.4565
-28.7574
-29.4866
-31.1056
-30.0236
57.8709
57.6566
64.023
42.0707
30.1608
68.0317
265.042
271.331
278.6
283.606
397.811
313.382
616.062
620.799
607.928
596.357
591.845
589.94
-10.2106
-10.2101
-10.2098
-10.2096
-10.2079
-10.2111
-12.4991
-12.4987
-12.4991
-12.4996
-12.4929
-12.501
-18.7163
-18.7261
-18.724
-18.7427
-18.7328
-18.7141
-32.6481
-32.6025
-32.608
-32.5403
-32.4983
-32.5785
-59.4809
-59.4889
-59.4423
-59.4798
-59.4787
-59.256
-86.4201
-86.5328
-86.4195
-86.535
-86.4812
-86.2604
-86.3519
-86.4398
-86.3812
-86.3711
-86.3547
-86.3724
-65.467
-65.4706
-65.4324
-65.2947
-65.0432
-65.4193
-52.3857
-52.3873
-52.3268
-52.4386
-52.4305
-52.3255
-37.1577
-36.5277
-36.0895
-39.658
-41.1007
-35.424
7.73777
16.7165
23.1087
-15.8749
-36.4048
30.9398
-1239.02
-1212.86
-1168.79
-969.752
-344.487
-984.477
-29.1962
-29.1962
-29.1961
-29.1961
-29.1961
-29.1963
-45.7055
-45.7053
-45.7052
-45.7052
-45.7052
-45.7053
-60.8466
-60.8465
-60.8464
-60.8464
-60.8464
-60.8463
-28.6691
-28.6689
-28.669
-28.669
-28.6691
-28.6693
-45.1764
-45.1761
-45.1761
-45.176
-45.1761
-45.176
-60.7503
-60.7503
-60.7503
-60.7503
-60.7502
-60.7502
-26.8547
-26.8541
-26.8543
-26.8541
-26.8539
-26.854
-43.6497
-43.6492
-43.6492
-43.6491
-43.6488
-43.6489
-60.6358
-60.6357
-60.6357
-60.6357
-60.6355
-60.6356
-26.446
-26.4434
-26.4442
-26.4439
-26.4424
-26.4438
-43.7499
-43.7481
-43.7484
-43.748
-43.7473
-43.7484
-60.9523
-60.9522
-60.9521
-60.9518
-60.9518
-60.9518
-23.4131
-23.4151
-23.4129
-23.4118
-23.4126
-23.4114
-53.2609
-53.2634
-53.262
-53.2613
-53.2621
-53.2608
-66.6279
-66.6292
-66.6285
-66.6278
-66.6283
-66.6272
-56.7194
-56.7121
-56.713
-56.7125
-56.7107
-56.7136
-72.2163
-72.2165
-72.2181
-72.2169
-72.2169
-72.2196
-72.2461
-72.2454
-72.2451
-72.2446
-72.2457
-72.2488
-109.812
-109.81
-109.812
-109.812
-109.811
-109.811
-112.369
-112.383
-112.38
-112.379
-112.382
-112.383
-86.8501
-86.8528
-86.8511
-86.8521
-86.8538
-86.8566
-112.744
-112.726
-112.73
-112.732
-112.732
-112.736
-128.171
-128.199
-128.19
-128.189
-128.198
-128.191
-86.2426
-86.2415
-86.2396
-86.2436
-86.2442
-86.2461
-95.2152
-95.2015
-95.2061
-95.2061
-95.2046
-95.2058
-99.1406
-99.143
-99.1402
-99.1428
-99.1441
-99.1406
-78.1898
-78.188
-78.1882
-78.1901
-78.1898
-78.1927
-64.4298
-64.4228
-64.4238
-64.4246
-64.4237
-64.4189
-75.6555
-75.6618
-75.6583
-75.6587
-75.6603
-75.6524
-75.0919
-75.0912
-75.0912
-75.0922
-75.0916
-75.0943
-45.4798
-45.4803
-45.4798
-45.4846
-45.4841
-45.4817
-60.1709
-60.1706
-60.1709
-60.1714
-60.1715
-60.1702
-74.3696
-74.3683
-74.3694
-74.3698
-74.3703
-74.3705
-47.88
-47.9195
-47.898
-47.949
-47.9559
-47.8872
-50.9939
-50.995
-50.9928
-50.991
-50.9938
-50.9871
-77.3232
-77.3229
-77.3238
-77.3245
-77.3285
-77.3217
1512.1
1512.25
1512.36
1513.16
1514.04
1512.6
-50.0216
-50.0071
-49.9678
-50.1258
-50.1819
-49.8293
-69.9834
-69.9636
-69.947
-69.9302
-69.906
-69.8866
1543.04
1543.1
1543.3
1542.85
1542.73
1543.51
-52.291
-52.3178
-52.2839
-52.4888
-52.6338
-52.182
-69.2086
-69.1943
-69.1956
-69.1539
-69.1318
-69.1528
1566.11
1566.12
1566.09
1566.63
1567.66
1564.84
-51.7123
-51.7385
-51.7263
-51.7155
-51.7043
-51.7677
-67.9642
-67.9627
-67.9586
-67.9697
-67.9666
-67.9556
1498.18
1498.21
1498.92
1497.07
1496.19
1499.82
-51.3239
-51.297
-51.2848
-51.191
-51.146
-51.3133
-68.4426
-68.4366
-68.4329
-68.43
-68.416
-68.4329
1289.2
1289.43
1289.72
1289.54
1290.34
1289.26
-49.2656
-49.2743
-49.2779
-49.2838
-49.2599
-49.2529
-69.506
-69.5001
-69.5053
-69.4953
-69.4722
-69.5238
970.946
970.907
971.126
971.038
971.577
970.771
-48.753
-48.7541
-48.752
-48.7481
-48.7425
-48.7374
-76.7875
-76.7883
-76.7877
-76.7925
-76.7924
-76.7808
-28.8082
-28.8079
-28.8077
-28.8074
-28.8069
-28.8079
-45.3981
-45.398
-45.398
-45.3978
-45.3977
-45.398
-61.0805
-61.0805
-61.0805
-61.0804
-61.0804
-61.0805
-30.6143
-30.6142
-30.6141
-30.6139
-30.6114
-30.6133
-46.4695
-46.4694
-46.4691
-46.4686
-46.4678
-46.4684
-61.4026
-61.4026
-61.4024
-61.4022
-61.402
-61.4021
-34.904
-34.9031
-34.9026
-34.9013
-34.8949
-34.9003
-48.7402
-48.7392
-48.7384
-48.7365
-48.7343
-48.7365
-62.0692
-62.0689
-62.0686
-62.068
-62.0675
-62.0679
-42.3638
-42.3542
-42.3507
-42.3339
-42.3191
-42.3425
-52.2978
-52.2942
-52.2929
-52.2876
-52.2825
-52.2903
-63.0818
-63.081
-63.0809
-63.0797
-63.0787
-63.0802
-53.6981
-53.6932
-53.6868
-53.6782
-53.6643
-53.6322
-57.141
-57.1356
-57.1367
-57.129
-57.1224
-57.1277
-64.3327
-64.3315
-64.3319
-64.3301
-64.3288
-64.3306
-65.3832
-65.3909
-65.3738
-65.3652
-65.3358
-65.3205
-62.9462
-62.9433
-62.9428
-62.939
-62.9359
-62.9359
-65.7879
-65.7869
-65.7866
-65.7858
-65.7853
-65.7845
-65.2109
-65.2197
-65.1989
-65.1624
-65.1258
-65.2061
-65.8678
-65.8705
-65.8699
-65.8665
-65.869
-65.8762
-66.1848
-66.1833
-66.1803
-66.1779
-66.1746
-66.1751
-60.4861
-60.4755
-60.4566
-60.4003
-60.3332
-60.4622
-64.1863
-64.1848
-64.1777
-64.1691
-64.1626
-64.1661
-66.4569
-66.4551
-66.4521
-66.4494
-66.4459
-66.4474
-53.8391
-53.8527
-53.8332
-53.7473
-53.6527
-53.8074
-61.7023
-61.701
-61.6807
-61.6799
-61.66
-61.6526
-66.2958
-66.2946
-66.2893
-66.2844
-66.273
-66.2875
-52.1822
-52.177
-52.2202
-52.3418
-52.2803
-52.2894
-62.0045
-61.9872
-61.9605
-62.0053
-61.9794
-61.8712
-67.0641
-67.0584
-67.0482
-67.0314
-66.9979
-67.0468
-52.98
-52.9435
-53.2517
-51.1358
-49.1107
-52.9842
-58.84
-58.7833
-58.6804
-58.4512
-58.1652
-58.3679
-69.1206
-69.1081
-69.0728
-68.9925
-68.9219
-69.0087
852.174
851.119
846.654
868.959
878.007
845.905
-54.9334
-54.8287
-54.7429
-54.6164
-54.3228
-54.3653
-77.2938
-77.2405
-77.2183
-77.0016
-76.9066
-77.0371
)
;

boundaryField
{
    seabed_topleft_surface
    {
        type            calculated;
        value           nonuniform List<scalar> 
72
(
4022.81
4022.82
4022.83
4022.82
4022.82
4022.85
4094.82
4094.82
4094.84
4094.82
4094.83
4094.87
4321.54
4321.54
4321.55
4321.54
4321.55
4321.6
4880.03
4880.02
4880.02
4880.02
4880.04
4880.08
6613.98
6613.99
6613.99
6613.99
6614.01
6614.04
10607.6
10607.5
10607.6
10607.5
10607.5
10607.6
16435.3
16435.3
16435.2
16435.2
16435.2
16435.2
20985.9
20985.9
20985.9
20985.9
20985.8
20985.8
23404.1
23404.3
23404.2
23404.2
23404.3
23404.1
25532.4
25532.6
25532.5
25532.5
25532.6
25532.5
28504.7
28504.4
28504.5
28504.5
28504.5
28504.7
29280.8
29280.7
29280.8
29280.8
29280.8
29281
)
;
    }
    seabed_topright_surface
    {
        type            calculated;
        value           nonuniform List<scalar> 
72
(
52.2603
52.2591
52.2571
52.2511
52.2524
52.2219
55.3066
55.3084
55.3034
55.297
55.3449
55.1864
62.713
62.747
62.704
62.6898
62.7768
62.4181
69.2752
69.3613
69.2505
69.2291
69.325
68.9021
68.8462
69.1981
68.8931
68.8699
68.9626
68.4861
116.1
116.916
113.693
115.197
113.106
108.877
238.883
237.291
237.255
231.326
224.568
237.895
929.644
919.145
919.358
875.995
833.295
914.705
2364.43
2364.54
2376.26
2353.39
2342.49
2402.9
1620.53
1617.67
1624.17
1598.2
1578.91
1668.98
801.304
800.325
800.089
799.617
799.085
803.301
765.049
764.371
763.467
758.205
756.771
759.759
)
;
    }
    breakwater_top_surface
    {
        type            calculated;
        value           nonuniform List<scalar> 
36
(
3094.77
3095.01
3095.25
3096.05
3097.09
3095.96
3128.4
3128.55
3128.84
3128.58
3128.6
3129.37
3151.35
3151.47
3151.54
3152.16
3153.38
3150.71
3040.19
3040.17
3041.75
3037.65
3035.49
3043.86
2627.9
2628.29
2629.04
2628.45
2629.68
2628.4
2024.9
2024.78
2025.29
2025.07
2026.07
2024.67
)
;
    }
    breakwater_left_surface
    {
        type            calculated;
        value           nonuniform List<scalar> 
24
(
24503.1
24503.1
24503.1
24503.1
24503.2
24503.3
13181.2
13181.1
13181.2
13181.2
13181.2
13181.4
2924.2
2923.76
2923.93
2923.9
2923.64
2924.41
-765.325
-765.368
-765.42
-765.52
-765.621
-765.455
)
;
    }
    breakwater_right_surface
    {
        type            calculated;
        value           nonuniform List<scalar> 
24
(
759.416
758.833
758.027
752.859
751.567
754.432
612.326
611.779
610.343
608.112
600.624
604.983
616.317
621.083
608.377
596.42
591.862
590.527
-1235.64
-1209.48
-1165.41
-966.373
-341.108
-981.101
)
;
    }
    water_front_surface
    {
        type            calculated;
        value           nonuniform List<scalar> 
186
(
2021.73
2061.74
2176.55
2448.05
3524.06
6491.83
11641.3
16191.9
18610
20738.5
23710.9
24486.7
-3.68873
2.87307
18.4365
59.9726
151.679
582.579
3052.29
6902.14
7930.55
9759.99
12422.6
13165.2
2.39842
2.99754
4.48191
1.94557
18.8282
41.8306
223.712
2660.92
4403.8
4386.78
4004.65
2913.76
-18.0921
-16.0749
-11.7327
-8.23667
8.12064
-3.91349
18.6049
442.242
587.842
327.7
104.814
-765.701
47.3385
50.3848
57.7907
64.3346
63.5765
63.6768
95.9604
770.107
2202.41
1459.81
760.305
759.397
32.1402
33.1761
34.3713
21.1299
-49.4085
-170.276
-138.051
-9.39926
198.937
285.9
283.526
612.307
10.96
9.4552
3.91554
-15.1982
-64.0703
-108.627
-100.603
-62.3511
-27.9243
57.8709
265.042
616.062
-10.2106
-12.4991
-18.7163
-32.6481
-59.4809
-86.4201
-86.3519
-65.467
-52.3857
-37.1577
7.73777
-1239.02
-29.1962
-45.7055
-60.8466
-28.6691
-45.1764
-60.7503
-26.8547
-43.6497
-60.6358
-26.446
-43.7499
-60.9523
-23.4131
-53.2609
-66.6279
-56.7194
-72.2163
-72.2461
-109.812
-112.369
-86.8501
-112.744
-128.171
-86.2426
-95.2152
-99.1406
-78.1898
-64.4298
-75.6555
-75.0919
-45.4798
-60.1709
-74.3696
-47.88
-50.9939
-77.3232
1512.1
-50.0216
-69.9834
1543.04
-52.291
-69.2086
1566.11
-51.7123
-67.9642
1498.18
-51.3239
-68.4426
1289.2
-49.2656
-69.506
970.946
-48.753
-76.7875
-28.8082
-45.3981
-61.0805
-30.6143
-46.4695
-61.4026
-34.904
-48.7402
-62.0692
-42.3638
-52.2978
-63.0818
-53.6981
-57.141
-64.3327
-65.3832
-62.9462
-65.7879
-65.2109
-65.8678
-66.1848
-60.4861
-64.1863
-66.4569
-53.8391
-61.7023
-66.2958
-52.1822
-62.0045
-67.0641
-52.98
-58.84
-69.1206
852.174
-54.9334
-77.2938
)
;
    }
    water_back_surface
    {
        type            calculated;
        value           nonuniform List<scalar> 
186
(
2021.75
2061.77
2176.58
2448.07
3524.09
6491.76
11641.1
16191.8
18610.1
20738.5
23710.9
24486.9
-3.68923
2.87278
18.4365
59.9758
151.689
582.51
3052.24
6901.95
7930.54
9759.84
12422.4
13165.3
2.39798
2.99671
4.48152
1.94466
18.8315
41.8248
223.713
2660.67
4403.84
4387.3
4005.86
2913.97
-18.0926
-16.0754
-11.7329
-8.23561
8.12165
-3.91389
18.604
442.323
588.079
328.036
104.983
-765.832
47.3
50.2645
57.4958
63.9645
63.2641
63.1241
93.1636
744.819
2228.94
1499.5
761.089
754.414
32.119
33.1089
34.1881
21.3004
-47.3471
-167.135
-139.545
-11.5116
198.126
302.526
297.405
604.965
10.9545
9.44388
3.89888
-15.0256
-63.5306
-108.627
-101.309
-62.9833
-30.0236
68.0317
313.382
589.94
-10.2111
-12.501
-18.7141
-32.5785
-59.256
-86.2604
-86.3724
-65.4193
-52.3255
-35.424
30.9398
-984.477
-29.1963
-45.7053
-60.8463
-28.6693
-45.176
-60.7502
-26.854
-43.6489
-60.6356
-26.4438
-43.7484
-60.9518
-23.4114
-53.2608
-66.6272
-56.7136
-72.2196
-72.2488
-109.811
-112.383
-86.8566
-112.736
-128.191
-86.2461
-95.2058
-99.1406
-78.1927
-64.4189
-75.6524
-75.0943
-45.4817
-60.1702
-74.3705
-47.8872
-50.9871
-77.3217
1512.6
-49.8293
-69.8866
1543.51
-52.182
-69.1528
1564.84
-51.7677
-67.9556
1499.82
-51.3133
-68.4329
1289.26
-49.2529
-69.5238
970.771
-48.7374
-76.7808
-28.8079
-45.398
-61.0805
-30.6133
-46.4684
-61.4021
-34.9003
-48.7365
-62.0679
-42.3425
-52.2903
-63.0802
-53.6322
-57.1277
-64.3306
-65.3205
-62.9359
-65.7845
-65.2061
-65.8762
-66.1751
-60.4622
-64.1661
-66.4474
-53.8074
-61.6526
-66.2875
-52.2894
-61.8712
-67.0468
-52.9842
-58.3679
-69.0087
845.905
-54.3653
-77.0371
)
;
    }
    water_left_surface
    {
        type            calculated;
        value           nonuniform List<scalar> 
42
(
2028.59
2028.59
2028.6
2028.59
2028.59
2028.61
-3.67221
-3.67199
-3.67211
-3.67232
-3.67246
-3.67272
2.41461
2.41446
2.41427
2.41418
2.41417
2.41418
-18.0762
-18.0761
-18.0762
-18.0763
-18.0764
-18.0768
-29.1962
-29.1962
-29.1961
-29.1961
-29.1961
-29.1963
-45.7055
-45.7053
-45.7052
-45.7052
-45.7052
-45.7053
-60.8466
-60.8465
-60.8464
-60.8464
-60.8464
-60.8463
)
;
    }
    water_right_surface
    {
        type            calculated;
        value           nonuniform List<scalar> 
42
(
47.3553
47.3541
47.3521
47.3461
47.3474
47.3169
32.1567
32.1571
32.158
32.1549
32.1587
32.1355
10.9762
10.9775
10.9785
10.9788
10.982
10.9707
-10.1948
-10.1942
-10.1939
-10.1937
-10.192
-10.1952
-28.8082
-28.8079
-28.8077
-28.8074
-28.8069
-28.8079
-45.3981
-45.398
-45.398
-45.3978
-45.3977
-45.398
-61.0805
-61.0805
-61.0805
-61.0804
-61.0804
-61.0805
)
;
    }
    water_top_surface
    {
        type            calculated;
        value           nonuniform List<scalar> 
180
(
-69.2402
-69.2405
-69.2405
-69.2405
-69.2405
-69.2404
-69.078
-69.0782
-69.0783
-69.0782
-69.0782
-69.078
-68.7461
-68.7461
-68.7461
-68.7461
-68.7461
-68.7461
-68.67
-68.67
-68.67
-68.67
-68.67
-68.67
-68.67
-68.67
-68.67
-68.67
-68.67
-68.67
-68.6703
-68.6703
-68.6703
-68.6703
-68.6703
-68.6703
-68.7868
-68.7867
-68.7867
-68.7868
-68.7868
-68.7867
-69.0052
-69.006
-69.0056
-69.0056
-69.0057
-69.0051
-71.6692
-71.6596
-71.6637
-71.6641
-71.6626
-71.6685
-77.5766
-77.5666
-77.5703
-77.5723
-77.5716
-77.5768
-76.5708
-76.568
-76.5689
-76.572
-76.575
-76.5652
-72.6345
-72.6417
-72.6381
-72.64
-72.6483
-72.6281
-71.2554
-71.2984
-71.2838
-71.2703
-71.3606
-71.243
-70.3436
-70.3395
-70.3321
-70.3487
-70.3677
-70.2989
-71.5308
-71.5318
-71.522
-71.5786
-71.683
-71.3807
-74.548
-74.5775
-74.5052
-74.672
-74.8662
-74.3143
-74.9422
-74.9722
-74.921
-75.0192
-75.1683
-74.7816
-72.8339
-72.8479
-72.8336
-72.8564
-72.8967
-72.7894
-68.67
-68.67
-68.67
-68.67
-68.67
-68.67
-68.67
-68.67
-68.67
-68.67
-68.67
-68.67
-68.67
-68.67
-68.67
-68.67
-68.67
-68.67
-68.67
-68.67
-68.67
-68.67
-68.67
-68.67
-68.67
-68.67
-68.67
-68.67
-68.67
-68.67
-68.67
-68.67
-68.67
-68.67
-68.67
-68.67
-68.67
-68.67
-68.67
-68.67
-68.67
-68.67
-69.3394
-69.3377
-69.3382
-69.337
-69.3364
-69.3352
-69.1672
-69.1675
-69.1687
-69.161
-69.153
-69.1741
-74.4243
-74.4311
-74.4161
-74.4084
-74.3886
-74.3936
-75.2245
-75.254
-75.2297
-75.1543
-75.1578
-75.1809
-70.6746
-70.6451
-70.6779
-70.5254
-70.2198
-70.6887
)
;
    }
}


// ************************************************************************* //
