/*--------------------------------*- C++ -*----------------------------------*\
| =========                 |                                                 |
| \\      /  F ield         | OpenFOAM: The Open Source CFD Toolbox           |
|  \\    /   O peration     | Version:  v1612+                                |
|   \\  /    A nd           | Web:      www.OpenFOAM.com                      |
|    \\/     M anipulation  |                                                 |
\*---------------------------------------------------------------------------*/
FoamFile
{
    version     2.0;
    format      ascii;
    class       volScalarField;
    location    "3.25";
    object      p_rgh;
}
// * * * * * * * * * * * * * * * * * * * * * * * * * * * * * * * * * * * * * //

dimensions      [1 -1 -2 0 0 0 0];

internalField   nonuniform List<scalar> 
1116
(
9472.32
9472.29
9472.3
9472.28
9472.25
9472.28
9192.37
9192.33
9192.34
9192.31
9192.28
9192.33
8986.38
8986.34
8986.35
8986.33
8986.3
8986.35
9279.58
9279.53
9279.54
9279.53
9279.5
9279.55
9872.04
9871.98
9871.99
9871.99
9871.96
9872.01
10640.6
10640.5
10640.6
10640.5
10640.5
10640.6
11741.2
11741.2
11741.2
11741.1
11741.1
11741.2
13538.1
13538
13538
13538
13538
13538.1
16280.6
16280.5
16280.5
16280.5
16280.5
16280.5
20056.5
20056.4
20056.4
20056.4
20056.4
20056.4
24076
24076
24076
24075.9
24075.9
24075.9
26296.9
26296.9
26296.9
26296.9
26296.9
26296.8
2790.24
2790.23
2790.23
2790.19
2790.18
2790.23
1471.9
1471.88
1471.88
1471.85
1471.84
1471.91
1158.65
1158.63
1158.62
1158.61
1158.61
1158.64
1414.85
1414.82
1414.82
1414.81
1414.8
1414.83
1937.98
1937.94
1937.94
1937.94
1937.93
1937.96
2685.61
2685.55
2685.55
2685.55
2685.55
2685.59
3822.06
3821.96
3821.96
3821.96
3821.97
3822.03
4939.75
4939.6
4939.61
4939.61
4939.62
4939.72
7921.62
7921.3
7921.32
7921.31
7921.29
7921.57
17127.6
17127.1
17127.2
17127.2
17127.1
17127.4
26240.6
26240.6
26240.6
26240.6
26240.6
26240.6
29123.8
29123.9
29123.9
29123.9
29123.9
29123.8
4.96833
4.96889
4.96905
4.96913
4.96916
4.96877
6.74563
6.74581
6.74581
6.74584
6.74591
6.74571
7.61854
7.61878
7.61879
7.61877
7.6187
7.61841
9.2137
9.21399
9.21404
9.21397
9.21386
9.21352
9.65883
9.65898
9.659
9.65898
9.65894
9.65882
9.186
9.18592
9.18606
9.18643
9.18689
9.18735
7.47499
7.47459
7.4748
7.47535
7.47604
7.47656
52.4436
52.4416
52.4409
52.4403
52.441
52.4419
196.767
196.759
196.754
196.751
196.752
196.761
1645.22
1644.7
1644.86
1644.84
1644.75
1645.01
21773.3
21771.8
21772.2
21772.2
21772
21772.7
32721.4
32721.8
32721.7
32721.6
32721.5
32721.8
5.67941
5.67941
5.6794
5.6794
5.6794
5.67937
6.75357
6.75363
6.75355
6.75348
6.75332
6.75302
7.44754
7.44768
7.44772
7.44779
7.44777
7.44747
9.30271
9.30299
9.30304
9.30306
9.30307
9.30263
10.8707
10.8709
10.8709
10.871
10.8711
10.8709
10.054
10.0541
10.0539
10.0539
10.0543
10.0544
6.0491
6.04999
6.05064
6.05106
6.05174
6.05091
4.67108
4.67138
4.67142
4.67137
4.67141
4.66973
-0.194365
-0.194365
-0.195206
-0.19603
-0.196641
-0.196548
57.4614
57.455
57.4565
57.4571
57.4599
57.4674
6825.24
6822.54
6823.18
6823.51
6823.13
6824.19
36112.4
36112.5
36112.5
36112.4
36112.2
36112.7
1.75086
1.75082
1.75086
1.75092
1.75097
1.75102
1.83792
1.83795
1.83801
1.83807
1.83811
1.83814
2.01456
2.01461
2.01463
2.01462
2.0146
2.01458
2.28526
2.28525
2.28519
2.2851
2.28501
2.28494
2.65687
2.65679
2.65666
2.6565
2.65635
2.65625
3.13858
3.13846
3.13827
3.13805
3.13782
3.13764
3.73996
3.73984
3.73962
3.7394
3.73918
3.73902
4.46399
4.46395
4.46386
4.46387
4.46396
4.46406
5.29265
5.29276
5.29296
5.29332
5.2938
5.29418
6.16523
6.16516
6.16526
6.16558
6.16625
6.16687
6.91836
6.91634
6.91628
6.9155
6.91686
6.91965
7.3995
7.39937
7.3994
7.3995
7.39976
7.40002
1.66598
1.66597
1.66602
1.66609
1.66616
1.66621
1.75233
1.75237
1.75242
1.75246
1.75249
1.75252
1.92713
1.92715
1.92712
1.92708
1.92703
1.92699
2.19334
2.19326
2.19315
2.19305
2.19297
2.19293
2.55385
2.55372
2.55361
2.55354
2.5535
2.55347
3.00728
3.00722
3.00719
3.00722
3.00726
3.00725
3.54158
3.54168
3.54187
3.54209
3.54228
3.5424
4.12842
4.12867
4.12906
4.12945
4.12981
4.13006
4.76605
4.76639
4.76677
4.76703
4.76718
4.76713
5.42292
5.42324
5.42348
5.42348
5.42318
5.4227
6.09629
6.09819
6.09822
6.09889
6.09766
6.09534
6.76284
6.76315
6.76331
6.76321
6.76289
6.76162
1.5009
1.50091
1.50096
1.50102
1.50108
1.50113
1.58468
1.58473
1.58477
1.5848
1.58482
1.58483
1.75764
1.75765
1.75762
1.75758
1.75753
1.7575
2.03244
2.03238
2.03231
2.03226
2.03223
2.03223
2.43132
2.43126
2.43126
2.43132
2.4314
2.43146
2.9921
2.99213
2.99226
2.99246
2.99265
2.99274
3.7709
3.77101
3.77127
3.7716
3.77191
3.77215
4.85022
4.85041
4.85068
4.85099
4.85128
4.85145
6.25343
6.25356
6.2536
6.25357
6.25345
6.2532
7.92438
7.92456
7.92437
7.9239
7.92314
7.92269
9.80327
9.80758
9.81041
9.81182
9.8111
9.81055
10.6824
10.6824
10.682
10.6811
10.6801
10.6804
1.26075
1.26076
1.2608
1.26086
1.26091
1.26095
1.33612
1.33616
1.33619
1.33621
1.33622
1.33622
1.49145
1.49145
1.49142
1.49138
1.49134
1.49131
1.73547
1.73543
1.73539
1.73538
1.7354
1.73543
2.08053
2.08053
2.08062
2.08077
2.08093
2.08102
2.53436
2.53448
2.53473
2.53502
2.53527
2.53541
3.08888
3.08904
3.08933
3.08964
3.08991
3.09013
3.70792
3.7079
3.70795
3.70791
3.70785
3.7078
4.35216
4.35181
4.35126
4.3506
4.3499
4.3494
5.08875
5.0876
5.08583
5.0838
5.08195
5.08091
5.94438
5.93908
5.9341
5.92969
5.9266
5.92075
5.70499
5.70214
5.69827
5.69398
5.69438
5.66903
2.80483
2.80485
2.80476
2.8046
2.8044
2.80421
0.933033
0.932993
0.93298
0.932932
0.932843
0.932796
-1.86279
-1.86288
-1.8629
-1.86291
-1.86292
-1.86278
3.40649
3.40647
3.40647
3.40647
3.4064
3.40626
1.11472
1.11461
1.11464
1.11465
1.11459
1.11472
-1.97427
-1.9743
-1.97425
-1.97421
-1.97418
-1.97398
3.48311
3.48309
3.48306
3.48309
3.4831
3.48304
1.52625
1.52625
1.52633
1.52643
1.5265
1.52664
-2.05743
-2.05749
-2.05745
-2.05743
-2.05743
-2.05737
3.81053
3.81067
3.8107
3.81073
3.81078
3.81079
1.83237
1.83233
1.83233
1.83236
1.83243
1.83258
-2.34976
-2.35
-2.35011
-2.35019
-2.35025
-2.35027
4.08502
4.08534
4.08545
4.08551
4.08556
4.08544
2.10245
2.10239
2.10233
2.10231
2.10231
2.10231
-2.47818
-2.4784
-2.47854
-2.47861
-2.47858
-2.47846
4.4328
4.43295
4.433
4.43311
4.43324
4.43307
2.05217
2.0522
2.05221
2.05218
2.05205
2.05178
-2.49669
-2.49666
-2.49664
-2.49662
-2.49662
-2.49655
5.45292
5.45284
5.45283
5.45302
5.45345
5.45335
2.18047
2.1805
2.18048
2.18046
2.18038
2.18048
-2.37413
-2.37409
-2.37406
-2.37415
-2.37435
-2.37429
2.80155
2.80112
2.80097
2.80097
2.80077
2.80055
0.72011
0.720033
0.719921
0.719793
0.719583
0.720091
-2.15925
-2.15941
-2.15939
-2.15953
-2.15961
-2.15954
8.15363
8.15371
8.15371
8.15327
8.15308
8.15139
10.7734
10.7732
10.7733
10.7732
10.7729
10.7725
-3.40954
-3.40994
-3.40985
-3.40966
-3.40961
-3.40987
-4.04156
-4.04106
-4.0397
-4.04075
-4.0414
-4.04292
7.88553
7.88159
7.88099
7.88017
7.87894
7.88072
2.90429
2.90301
2.90316
2.90234
2.90102
2.90334
-15.9587
-15.9485
-15.9524
-15.961
-15.9704
-15.9433
29.661
29.6588
29.6573
29.6573
29.6556
29.6461
-7.61297
-7.61232
-7.61072
-7.60648
-7.60764
-7.61219
29198.2
29196.8
29196.9
29195.8
29192.2
29200.5
5545.57
5545.06
5545.11
5544.91
5545.6
5545.05
-18.659
-18.6626
-18.6584
-18.6502
-18.6527
-18.6546
34.5356
34.5188
34.5072
34.5002
34.4848
34.3731
21.2067
21.1628
21.1681
20.9822
20.8815
20.5745
44.726
44.6793
44.6861
44.5741
44.5072
45.013
802.13
799.438
798.717
801.577
812.994
784.503
1205.91
1197.84
1200.65
1197.85
1261.11
1117.42
2474.07
2476.74
2478.02
2475.51
2504.73
2435.76
4580.04
4576.93
4575.85
4584.42
4598.43
4571.35
14793.6
14806.4
14800.4
14825.7
14826.3
14845.2
5166.84
5182.84
5194.94
5127.31
5054.81
5256.22
5952.23
5949.8
5950.66
5975.08
5993.14
5954.76
17813
17819
17825.7
17824.3
17825.7
17842.5
-49.0569
-49.1048
-49.1701
-49.0464
-49.0324
-49.3694
26468.1
26465.5
26464
26481
26516.4
26443.8
16669.1
16676.9
16676.2
16661.7
16630.8
16704.8
-21.8456
-21.8513
-21.8611
-21.8362
-21.8752
-21.9032
28266.4
28265.5
28265
28264.6
28261.7
28270.8
11507.7
11507.1
11505.2
11512.9
11531
11480.5
-1.9819
-1.97771
-1.97932
-1.9683
-1.96993
-2.00019
0.956934
0.956954
0.956992
0.957038
0.957081
0.957116
0.598648
0.598667
0.598696
0.59873
0.598762
0.598786
0.207531
0.207541
0.207553
0.207567
0.20758
0.207588
1.01903
1.01906
1.01909
1.0191
1.0191
1.0191
0.638509
0.63853
0.63854
0.638545
0.638546
0.638539
0.223305
0.223309
0.223311
0.223311
0.223309
0.223302
1.15058
1.15058
1.15055
1.15052
1.15048
1.15046
0.722032
0.722017
0.721985
0.721952
0.721923
0.721902
0.258647
0.258632
0.258616
0.258602
0.25859
0.258586
1.36922
1.3692
1.36919
1.3692
1.36922
1.36924
0.858034
0.858008
0.85799
0.857985
0.857993
0.858012
0.32278
0.322768
0.322762
0.322763
0.322772
0.322791
1.70913
1.70918
1.70927
1.70938
1.70946
1.7095
1.06277
1.0628
1.06283
1.06288
1.0629
1.06291
0.435571
0.435586
0.435595
0.435601
0.435601
0.435586
2.2356
2.23569
2.23581
2.23589
2.23594
2.23595
1.35883
1.35887
1.35889
1.35889
1.35887
1.35887
0.631336
0.631334
0.631308
0.631267
0.631232
0.631189
3.05985
3.05988
3.05992
3.05993
3.05998
3.06007
1.72544
1.72544
1.72541
1.7254
1.72545
1.72553
1.06871
1.06866
1.06855
1.06841
1.06837
1.06831
4.42625
4.42624
4.42616
4.42609
4.42611
4.426
2.32565
2.32564
2.32556
2.32549
2.32553
2.32547
1.50255
1.50249
1.5023
1.50163
1.50176
1.50068
6.83481
6.83457
6.83428
6.83376
6.8335
6.83313
2.59916
2.59911
2.59914
2.59904
2.59881
2.59808
3.96135
3.96078
3.96028
3.95908
3.95945
3.96106
9.79118
9.79072
9.79022
9.78945
9.78902
9.78875
4.43488
4.43394
4.43272
4.43015
4.42916
4.43117
3.94551
3.94532
3.94388
3.93167
3.94111
3.91967
18.8502
18.8477
18.8464
18.8426
18.8412
18.8418
5.53527
5.5327
5.53192
5.52136
5.52571
5.49436
15.2166
15.215
15.215
15.2112
15.2195
15.204
18.0281
18.0286
18.0211
18.0082
17.9828
17.9764
-2.55023
-2.56441
-2.55889
-2.54975
-2.58933
-2.69228
-2.25461
-2.2614
-2.27066
-2.29481
-2.25511
-2.33131
)
;

boundaryField
{
    seabed_topleft_surface
    {
        type            fixedFluxPressure;
        gradient        uniform 0;
        value           nonuniform List<scalar> 
72
(
9472.32
9472.29
9472.3
9472.28
9472.25
9472.28
9192.37
9192.33
9192.34
9192.31
9192.28
9192.33
8986.38
8986.34
8986.35
8986.33
8986.3
8986.35
9279.58
9279.53
9279.54
9279.53
9279.5
9279.55
9872.04
9871.98
9871.99
9871.99
9871.96
9872.01
10640.6
10640.5
10640.6
10640.5
10640.5
10640.6
11741.2
11741.2
11741.2
11741.1
11741.1
11741.2
13538.1
13538
13538
13538
13538
13538.1
16280.6
16280.5
16280.5
16280.5
16280.5
16280.5
20056.5
20056.4
20056.4
20056.4
20056.4
20056.4
24076
24076
24076
24075.9
24075.9
24075.9
26296.9
26296.9
26296.9
26296.9
26296.9
26296.8
)
;
    }
    seabed_topright_surface
    {
        type            fixedFluxPressure;
        gradient        uniform 0;
        value           nonuniform List<scalar> 
72
(
1.75086
1.75082
1.75086
1.75092
1.75097
1.75102
1.83792
1.83795
1.83801
1.83807
1.83811
1.83814
2.01456
2.01461
2.01463
2.01462
2.0146
2.01458
2.28526
2.28525
2.28519
2.2851
2.28501
2.28494
2.65687
2.65679
2.65666
2.6565
2.65635
2.65625
3.13858
3.13846
3.13827
3.13805
3.13782
3.13764
3.73996
3.73984
3.73962
3.7394
3.73918
3.73902
4.46399
4.46395
4.46386
4.46387
4.46396
4.46406
5.29265
5.29276
5.29296
5.29332
5.2938
5.29418
6.16523
6.16516
6.16526
6.16558
6.16625
6.16687
6.91836
6.91634
6.91628
6.9155
6.91686
6.91965
7.3995
7.39937
7.3994
7.3995
7.39976
7.40002
)
;
    }
    breakwater_top_surface
    {
        type            fixedFluxPressure;
        gradient        uniform 0;
        value           nonuniform List<scalar> 
36
(
34.5356
34.5188
34.5072
34.5002
34.4848
34.3731
802.13
799.438
798.717
801.577
812.994
784.503
4580.04
4576.93
4575.85
4584.42
4598.43
4571.35
5952.23
5949.8
5950.66
5975.08
5993.14
5954.76
26468.1
26465.5
26464
26481
26516.4
26443.8
28266.4
28265.5
28265
28264.6
28261.7
28270.8
)
;
    }
    breakwater_left_surface
    {
        type            fixedFluxPressure;
        gradient        uniform 0;
        value           nonuniform List<scalar> 
24
(
26296.9
26296.9
26296.9
26296.9
26296.9
26296.8
29123.8
29123.9
29123.9
29123.9
29123.9
29123.8
32721.4
32721.8
32721.7
32721.6
32721.5
32721.8
36112.4
36112.5
36112.5
36112.4
36112.2
36112.7
)
;
    }
    breakwater_right_surface
    {
        type            fixedFluxPressure;
        gradient        uniform 0;
        value           nonuniform List<scalar> 
24
(
7.3995
7.39937
7.3994
7.3995
7.39976
7.40002
6.76284
6.76315
6.76331
6.76321
6.76289
6.76162
10.6824
10.6824
10.682
10.6811
10.6801
10.6804
5.70499
5.70214
5.69827
5.69398
5.69438
5.66903
)
;
    }
    water_front_surface
    {
        type            fixedFluxPressure;
        gradient        uniform 0;
        value           nonuniform List<scalar> 
186
(
9472.32
9192.37
8986.38
9279.58
9872.04
10640.6
11741.2
13538.1
16280.6
20056.5
24076
26296.9
2790.24
1471.9
1158.65
1414.85
1937.98
2685.61
3822.06
4939.75
7921.62
17127.6
26240.6
29123.8
4.96833
6.74563
7.61854
9.2137
9.65883
9.186
7.47499
52.4436
196.767
1645.22
21773.3
32721.4
5.67941
6.75357
7.44754
9.30271
10.8707
10.054
6.0491
4.67108
-0.194365
57.4614
6825.24
36112.4
1.75086
1.83792
2.01456
2.28526
2.65687
3.13858
3.73996
4.46399
5.29265
6.16523
6.91836
7.3995
1.66598
1.75233
1.92713
2.19334
2.55385
3.00728
3.54158
4.12842
4.76605
5.42292
6.09629
6.76284
1.5009
1.58468
1.75764
2.03244
2.43132
2.9921
3.7709
4.85022
6.25343
7.92438
9.80327
10.6824
1.26075
1.33612
1.49145
1.73547
2.08053
2.53436
3.08888
3.70792
4.35216
5.08875
5.94438
5.70499
2.80483
0.933033
-1.86279
3.40649
1.11472
-1.97427
3.48311
1.52625
-2.05743
3.81053
1.83237
-2.34976
4.08502
2.10245
-2.47818
4.4328
2.05217
-2.49669
5.45292
2.18047
-2.37413
2.80155
0.72011
-2.15925
8.15363
10.7734
-3.40954
-4.04156
7.88553
2.90429
-15.9587
29.661
-7.61297
29198.2
5545.57
-18.659
34.5356
21.2067
44.726
802.13
1205.91
2474.07
4580.04
14793.6
5166.84
5952.23
17813
-49.0569
26468.1
16669.1
-21.8456
28266.4
11507.7
-1.9819
0.956934
0.598648
0.207531
1.01903
0.638509
0.223305
1.15058
0.722032
0.258647
1.36922
0.858034
0.32278
1.70913
1.06277
0.435571
2.2356
1.35883
0.631336
3.05985
1.72544
1.06871
4.42625
2.32565
1.50255
6.83481
2.59916
3.96135
9.79118
4.43488
3.94551
18.8502
5.53527
15.2166
18.0281
-2.55023
-2.25461
)
;
    }
    water_back_surface
    {
        type            fixedFluxPressure;
        gradient        uniform 0;
        value           nonuniform List<scalar> 
186
(
9472.28
9192.33
8986.35
9279.55
9872.01
10640.6
11741.2
13538.1
16280.5
20056.4
24075.9
26296.8
2790.23
1471.91
1158.64
1414.83
1937.96
2685.59
3822.03
4939.72
7921.57
17127.4
26240.6
29123.8
4.96877
6.74571
7.61841
9.21352
9.65882
9.18735
7.47656
52.4419
196.761
1645.01
21772.7
32721.8
5.67937
6.75302
7.44747
9.30263
10.8709
10.0544
6.05091
4.66973
-0.196548
57.4674
6824.19
36112.7
1.75102
1.83814
2.01458
2.28494
2.65625
3.13764
3.73902
4.46406
5.29418
6.16687
6.91965
7.40002
1.66621
1.75252
1.92699
2.19293
2.55347
3.00725
3.5424
4.13006
4.76713
5.4227
6.09534
6.76162
1.50113
1.58483
1.7575
2.03223
2.43146
2.99274
3.77215
4.85145
6.2532
7.92269
9.81055
10.6804
1.26095
1.33622
1.49131
1.73543
2.08102
2.53541
3.09013
3.7078
4.3494
5.08091
5.92075
5.66903
2.80421
0.932796
-1.86278
3.40626
1.11472
-1.97398
3.48304
1.52664
-2.05737
3.81079
1.83258
-2.35027
4.08544
2.10231
-2.47846
4.43307
2.05178
-2.49655
5.45335
2.18048
-2.37429
2.80055
0.720091
-2.15954
8.15139
10.7725
-3.40987
-4.04292
7.88072
2.90334
-15.9433
29.6461
-7.61219
29200.5
5545.05
-18.6546
34.3731
20.5745
45.013
784.503
1117.42
2435.76
4571.35
14845.2
5256.22
5954.76
17842.5
-49.3694
26443.8
16704.8
-21.9032
28270.8
11480.5
-2.00019
0.957116
0.598786
0.207588
1.0191
0.638539
0.223302
1.15046
0.721902
0.258586
1.36924
0.858012
0.322791
1.7095
1.06291
0.435586
2.23595
1.35887
0.631189
3.06007
1.72553
1.06831
4.426
2.32547
1.50068
6.83313
2.59808
3.96106
9.78875
4.43117
3.91967
18.8418
5.49436
15.204
17.9764
-2.69228
-2.33131
)
;
    }
    water_left_surface
    {
        type            fixedFluxPressure;
        gradient        uniform 0;
        value           nonuniform List<scalar> 
42
(
9472.32
9472.29
9472.3
9472.28
9472.25
9472.28
2790.24
2790.23
2790.23
2790.19
2790.18
2790.23
4.96833
4.96889
4.96905
4.96913
4.96916
4.96877
5.67941
5.67941
5.6794
5.6794
5.6794
5.67937
2.80483
2.80485
2.80476
2.8046
2.8044
2.80421
0.933033
0.932993
0.93298
0.932932
0.932843
0.932796
-1.86279
-1.86288
-1.8629
-1.86291
-1.86292
-1.86278
)
;
    }
    water_right_surface
    {
        type            fixedFluxPressure;
        gradient        uniform 0;
        value           nonuniform List<scalar> 
42
(
1.75086
1.75082
1.75086
1.75092
1.75097
1.75102
1.66598
1.66597
1.66602
1.66609
1.66616
1.66621
1.5009
1.50091
1.50096
1.50102
1.50108
1.50113
1.26075
1.26076
1.2608
1.26086
1.26091
1.26095
0.956934
0.956954
0.956992
0.957038
0.957081
0.957116
0.598648
0.598667
0.598696
0.59873
0.598762
0.598786
0.207531
0.207541
0.207553
0.207567
0.20758
0.207588
)
;
    }
    water_top_surface
    {
        type            totalPressure;
        rho             rho;
        psi             none;
        gamma           1;
        p0              uniform 0;
        value           nonuniform List<scalar> 
180
(
-2.91616
-2.91651
-2.91647
-2.91646
-2.91647
-2.91602
-3.11124
-3.11152
-3.11145
-3.11142
-3.11144
-3.11096
-2.90582
-2.90605
-2.90599
-2.906
-2.90608
-2.90577
-3.32924
-3.32963
-3.32967
-3.32978
-3.32996
-3.32972
-3.49275
-3.49336
-3.49352
-3.49365
-3.49375
-3.4933
-3.98193
-3.98245
-3.98255
-3.98258
-3.98257
-3.98199
-4.44452
-4.44475
-4.44473
-4.4448
-4.44506
-4.44475
-4.37089
-4.37102
-4.37103
-4.37119
-4.37161
-4.37098
-4.75827
-4.75823
-4.75854
-4.75902
-4.75941
-4.7577
0
0
0
0
0
0
0
0
0
0
0
0
0
0
0
0
0
0
0
0
0
0
0
0
0
0
0
0
0
0
0
0
0
0
0
0
-31.2945
-31.1782
-31.1418
-31.7954
-32.0534
-30.7011
-3.97915
-3.98802
-3.99315
-3.91241
-3.84983
-4.0645
0
0
0
0
0
0
0
0
0
0
0
0
0
0
0
0
0
0
0
0
0
0
0
0
0
0
0
0
0
0
0
0
0
0
0
0
0
0
0
0
0
0
0
0
0
0
0
0
0
0
0
0
0
0
0
0
0
0
0
0
0
0
0
0
0
0
0
0
0
0
0
0
-1.51191
-1.51203
-1.51169
-1.5142
-1.53611
-1.48969
)
;
    }
}


// ************************************************************************* //
