/*--------------------------------*- C++ -*----------------------------------*\
| =========                 |                                                 |
| \\      /  F ield         | OpenFOAM: The Open Source CFD Toolbox           |
|  \\    /   O peration     | Version:  v1612+                                |
|   \\  /    A nd           | Web:      www.OpenFOAM.com                      |
|    \\/     M anipulation  |                                                 |
\*---------------------------------------------------------------------------*/
FoamFile
{
    version     2.0;
    format      ascii;
    class       surfaceScalarField;
    location    "6.85";
    object      alphaPhi;
}
// * * * * * * * * * * * * * * * * * * * * * * * * * * * * * * * * * * * * * //

dimensions      [0 3 -1 0 0 0 0];

internalField   nonuniform List<scalar> 
2916
(
-7.69385e-05
-0.129728
0.094044
1.47429e-05
-0.129886
0.094033
1.61148e-05
-0.1298
0.0940381
-5.16461e-06
-0.129768
0.0940283
3.25697e-05
-0.129822
0.0940231
-0.129771
0.0940426
-1.3578e-05
-0.218815
0.0764508
1.09494e-05
-0.218979
0.0763908
-1.19103e-05
-0.21886
0.0764197
-1.55033e-05
-0.218868
0.0764449
3.26752e-06
-0.21892
0.0764111
-0.218856
0.0764304
0.000126526
-0.362849
0.143911
-9.81509e-06
-0.363023
0.144184
-7.1329e-05
-0.362876
0.144083
-1.80031e-05
-0.362944
0.144027
-2.58843e-05
-0.362979
0.144071
-0.362856
0.143979
8.51235e-05
-0.641686
0.278756
9.69713e-06
-0.64213
0.279187
-2.24579e-05
-0.64188
0.27904
-1.02777e-06
-0.641911
0.27895
-2.73005e-05
-0.642004
0.279056
-0.641737
0.278858
-0.000505817
-0.794969
0.153791
6.06895e-05
-0.796178
0.153483
0.000364935
-0.795673
0.15349
7.73123e-05
-0.795532
0.153909
-0.000352088
-0.795581
0.154007
-0.795462
0.153374
-0.00101737
-0.818944
0.0467427
5.94711e-05
-0.82182
0.0465266
0.000803501
-0.820932
0.0464893
0.000177816
-0.820022
0.04682
-0.00117185
-0.819328
0.0468004
-0.821154
0.0465007
8.81149e-06
-0.756848
-0.0180082
-7.79544e-05
-0.760625
-0.0173885
0.000139654
-0.759876
-0.0175404
-0.000120582
-0.757969
-0.0177622
3.6002e-05
-0.756753
-0.0183199
-0.760391
-0.0172136
0.00199754
-0.655545
-0.0493781
-0.000247605
-0.655787
-0.0488806
-0.00166489
-0.656036
-0.0488918
-0.000362074
-0.655766
-0.0493961
0.00326036
-0.656249
-0.0497128
-0.65509
-0.0486856
0.00165478
-0.506336
-0.0873193
-0.000220719
-0.503387
-0.0868758
-0.00164646
-0.504278
-0.0868877
-0.000402301
-0.505776
-0.0874545
0.00247431
-0.507959
-0.0872806
-0.502083
-0.0871405
-0.00221277
-0.30531
-0.128982
0.000315225
-0.304347
-0.131171
0.00198662
-0.305362
-0.130436
-0.000128383
-0.304203
-0.129467
-0.00586851
-0.30521
-0.127293
-0.305094
-0.132572
0.000652193
-0.112732
-0.124287
-3.93457e-05
-0.11457
-0.119649
-0.000691039
-0.114535
-0.12095
0.000177146
-0.112649
-0.123351
0.00218606
-0.111587
-0.126787
-0.116648
-0.116935
0.00503411
-0.0481198
-0.000982685
-0.0386828
-0.00585464
-0.0399114
-0.00127152
-0.0475733
0.0117873
-0.0550696
-0.0349737
-0.000175148
-0.22336
0.302525
6.53742e-06
-0.223548
0.302318
2.89997e-05
-0.223444
0.302396
-1.64542e-06
-0.223452
0.30244
6.97982e-05
-0.223501
0.302371
-0.223411
0.302461
-5.68831e-05
-0.269557
0.109693
-1.19984e-05
-0.269866
0.109623
2.50147e-05
-0.269719
0.109634
-6.25608e-06
-0.269709
0.109712
-2.87598e-05
-0.269802
0.109704
-0.269659
0.10963
0.000252997
-0.105481
-0.00294869
-3.12681e-05
-0.105765
-0.00250714
-0.000112028
-0.105635
-0.00267447
1.26938e-05
-0.105657
-0.00279378
1.89207e-05
-0.105792
-0.00267188
-0.105497
-0.00280695
2.97344e-06
0.00319835
0.0103238
-1.33526e-05
0.0028676
0.0104139
-8.62222e-05
0.00303934
0.010381
3.85603e-06
0.00300594
0.0103556
0.000167543
0.00285627
0.0103753
0.00324124
0.0103446
0.000133347
0.0553144
-0.00775969
-7.67458e-05
0.055041
-0.00760639
-0.000121003
0.0552025
-0.00771076
-1.50367e-05
0.0551297
-0.00769424
-4.22695e-05
0.0550601
-0.00764644
0.0554099
-0.00780137
0.000489416
0.104569
-0.00561735
-3.04238e-05
0.104779
-0.00579584
-0.000385143
0.10476
-0.00570134
-2.86383e-05
0.10463
-0.00568809
0.000580161
0.104405
-0.00561398
0.104728
-0.0057546
-0.000639242
0.138483
-0.00639729
2.39509e-05
0.140449
-0.0045987
0.000630573
0.140005
-0.00484658
0.000322384
0.139067
-0.00606774
-0.00107085
0.137296
-0.00765879
0.140636
-0.00374496
-3.66831e-06
0.119925
-0.00360243
-4.23088e-05
0.122723
-0.00374198
-0.00042912
0.122378
-0.00382566
4.04302e-05
0.120261
-0.00354826
0.00109695
0.118159
-0.00330181
0.124165
-0.00401032
-0.000676494
0.0885534
-0.00679535
-8.8675e-05
0.0899987
-0.00699663
-0.000294653
0.0903282
-0.00699092
-0.000116281
0.088159
-0.00674155
0.000676
0.0857782
-0.00633527
0.0921241
-0.00729663
-0.00267796
0.0798913
-0.0170613
0.000210095
0.0764117
-0.0185899
0.0028396
0.0775265
-0.0186664
-4.03251e-05
0.0791193
-0.0167961
-0.00665346
0.0803648
-0.0156615
0.0750705
-0.0197783
-0.00188161
0.0924391
-0.0303455
0.000548755
0.0781457
-0.0284404
0.00388877
0.0806544
-0.0294985
0.000933604
0.0909077
-0.029304
-0.00529639
0.101136
-0.0308396
0.0717678
-0.028049
0.00492188
-0.00703989
-0.000441866
-0.00704332
-0.00461604
-0.0070927
-0.000570686
-0.00703254
0.00983149
-0.00713107
-0.00698908
4.02156e-05
0.120865
0.167177
4.29297e-06
0.120762
0.167136
-5.609e-08
0.120773
0.16717
-1.26878e-05
0.120808
0.167183
-3.369e-05
0.120798
0.167128
0.120784
0.167191
0.000141768
0.148032
-0.0899678
-1.74246e-05
0.148391
-0.0900533
-7.51189e-05
0.148292
-0.0900267
-2.63406e-05
0.148124
-0.0899972
2.54875e-05
0.148124
-0.0899978
0.14828
-0.0900323
5.45576e-05
0.0673538
-1.38861e-07
1.10589e-05
0.067765
-7.04263e-08
-4.32189e-06
0.0675819
-6.38118e-08
-1.5307e-06
0.0675124
-1.36771e-07
-1.02067e-05
0.0675714
-1.99657e-07
0.0675348
-5.37992e-08
0.00018883
0.0192902
-1.42342e-06
-2.76789e-05
0.0194334
-1.1101e-06
-4.30748e-05
0.0192989
-1.07932e-06
-1.87396e-05
0.0193588
-1.29415e-06
-2.26763e-05
0.0194335
-1.61091e-06
0.0192314
-8.66959e-07
6.2523e-05
0.00616793
-1.56382e-05
-6.43096e-06
0.00635435
-1.85846e-05
-1.06424e-05
0.00626209
-1.80927e-05
-6.70859e-06
0.00624911
-1.701e-05
7.54271e-06
0.00622076
-1.72286e-05
0.00627686
-1.73517e-05
5.11558e-05
0.000166821
-6.01814e-05
-2.80018e-07
0.000256633
-5.25467e-06
-3.21569e-05
0.000230227
-1.02456e-06
-1.01766e-05
0.000195609
-5.00661e-05
7.97763e-05
0.000134447
-7.93561e-05
0.000252129
7.97715e-06
2.13471e-05
-0.00448786
-0.00243605
5.08796e-06
-0.00292101
-0.00204433
-1.66479e-05
-0.00318795
-0.00204317
4.60435e-06
-0.00421897
-0.00235373
7.82966e-05
-0.00563793
-0.00262728
-0.00225385
-0.00174334
-0.000700195
-0.0125414
-0.000601451
8.06887e-05
-0.0114028
-0.000811725
0.000510139
-0.0114963
-0.000823091
0.000296965
-0.0126643
-0.000604074
-0.000754082
-0.0148116
-0.000369592
-0.0100061
-0.00106488
-0.000446248
-0.0189127
-0.00210239
3.11344e-05
-0.0190629
-0.00207302
0.000353237
-0.018903
-0.0021444
-1.40784e-05
-0.0190318
-0.00218213
-0.000896573
-0.019503
-0.00246105
-0.0188733
-0.00192719
-0.000185451
-0.0201114
-0.00383561
4.48969e-05
-0.0224204
-0.00419617
0.00044756
-0.0217543
-0.0042135
4.51767e-05
-0.0205034
-0.00375039
-0.0012119
-0.019371
-0.00347218
-0.0234551
-0.0045553
-0.000360019
-0.00713299
-0.0334933
0.000169589
-0.00834298
-0.0338904
0.000573789
-0.00809532
-0.0338312
0.000278066
-0.00728053
-0.0333385
-0.000924616
-0.00667559
-0.0334404
-0.00814076
-0.0338669
0.000430765
-0.00814183
2.03083e-05
-0.00931866
-0.000299355
-0.00886186
-8.54585e-05
-0.00823445
0.000336507
-0.00721497
-0.00922083
0.000138902
0.13504
0.0171266
1.48822e-05
0.135028
0.0173402
-1.52974e-06
0.135038
0.0172653
1.5832e-06
0.135034
0.0172571
-6.42013e-05
0.13501
0.0172864
0.135037
0.0172096
-6.69225e-08
-1.05469e-08
-0.00757416
-3.80068e-06
-9.17473e-09
-0.00760871
9.19243e-06
-9.09964e-09
-0.00759335
-2.54406e-06
-9.91066e-09
-0.00759706
-9.66734e-07
-1.09974e-08
-0.00759844
-8.20918e-09
-0.00759195
-8.22997e-10
2.22015e-08
-2.63826e-07
2.64685e-10
1.70791e-08
-2.00451e-07
7.51581e-10
1.88293e-08
-1.97042e-07
8.97139e-11
2.01104e-08
-2.57367e-07
-8.0711e-10
1.99899e-08
-3.10939e-07
1.72877e-08
-1.61295e-07
-3.05836e-11
1.20481e-08
-1.51007e-06
-1.08274e-09
-1.4313e-07
-1.04189e-06
2.03268e-10
3.28035e-09
-1.16774e-06
-6.63134e-10
7.31943e-09
-1.38531e-06
-2.79034e-09
8.24711e-09
-1.68828e-06
2.89711e-09
-9.36555e-07
3.24751e-06
-1.70317e-05
-1.99134e-06
1.25503e-07
-1.64256e-05
7.50407e-07
-1.04794e-06
-1.59668e-05
-1.06544e-06
-2.03273e-07
-1.67048e-05
-1.29677e-06
2.53646e-06
-1.81866e-05
-1.9387e-06
-1.54739e-05
5.43527e-07
1.8828e-05
-0.000758906
0.000561517
1.37149e-06
-0.00053682
0.000433229
-8.6086e-06
-0.000555641
0.000450261
9.55028e-07
-0.000716656
0.000538836
3.62355e-05
-0.00112784
0.000621236
-0.000412639
0.000346566
-0.000102545
-0.0187647
0.00650749
5.47346e-06
-0.0179028
0.00631704
5.98171e-05
-0.0180335
0.00628887
3.86705e-05
-0.0188613
0.00637831
1.47525e-05
-0.0194472
0.0065999
-0.017571
0.00647264
-0.000349279
-0.0123747
0.000482939
-2.76207e-05
-0.012889
0.000984753
0.000275535
-0.012993
0.000971438
1.40103e-05
-0.0126364
0.000573408
-0.000685884
-0.0119896
1.35804e-05
-0.0138045
0.00162353
-3.28027e-06
0.000424452
-2.74357e-05
-1.94699e-05
0.000409928
-2.64888e-05
1.22883e-05
0.000415444
-2.66128e-05
-1.30811e-05
0.000429163
-2.7293e-05
-0.000114535
0.000418025
-2.81039e-05
0.00041762
-2.65382e-05
3.73645e-06
-0.00333962
-6.33874e-05
-1.24983e-06
-0.00370397
-6.56215e-05
-5.7793e-06
-0.00371497
-6.71166e-05
-1.20913e-06
-0.00325315
-6.10176e-05
1.34054e-05
-0.00250025
-5.59407e-05
-0.00404383
-6.88924e-05
-5.75908e-05
-0.0294754
-0.00619634
-1.72166e-05
-0.0295175
-0.00609609
9.13493e-06
-0.0293325
-0.00608278
-1.05299e-05
-0.0295026
-0.00618473
-7.02019e-05
-0.0296705
-0.0063286
-0.0291136
-0.00602232
0.00029855
-0.031717
-0.00011115
-0.0323637
-0.00023925
-0.0318675
-0.000113177
-0.0314771
0.000400233
-0.0308913
-0.0320013
-0.0461267
-0.020195
0.0662859
-0.000514328
-0.105814
0.0601549
-0.0236867
-0.0456488
0.0687828
-0.00583808
-0.0848965
0.0670144
0.0619489
-0.134175
0.066373
-0.00688291
0.0687915
0.00385456
-0.111468
0.0873997
-0.0149453
-0.152875
0.0658103
0.00828175
-0.132958
0.0640397
-0.00824589
-0.142549
0.0741395
-0.0108364
-0.213751
0.0821329
-0.0927896
0.0750231
0.0264793
-0.190584
0.0526419
-0.0177748
-0.0758308
0.0409603
-0.00821599
-0.149929
0.0378938
-0.0456847
-0.0915197
0.0456715
-0.0672957
-0.233426
0.0412296
-0.206788
0.0466421
0.00337035
-0.168391
0.0194286
-0.0138802
-0.155425
0.0141824
-0.000139957
-0.2357
0.0138875
-0.00522488
-0.117093
0.0146878
-0.0345933
-0.198377
0.0198398
-0.254302
0.0128533
-0.00856395
-0.129513
0.00983261
-0.00862313
-0.208774
-0.00389591
-3.35576e-05
-0.23557
-0.00123915
0.0088848
-0.207517
0.00125532
-0.00518185
-0.196976
0.0071081
-0.264664
-1.47931e-06
-0.0124982
-0.187749
0.000117165
0.000145956
-0.216145
-1.07126e-05
-0.000230279
-0.233597
-3.06108e-06
0.0135548
-0.227438
-3.37424e-05
0.00655661
-0.198324
-6.75238e-06
-0.270341
-5.09439e-10
0.00183724
-0.183142
-0.000375377
0.0041134
-0.190045
-7.16617e-09
0.000713931
-0.209221
-1.45405e-07
0.0110773
-0.159103
-3.41846e-06
0.0107103
-0.174157
-6.75583e-05
-0.159501
-0.000664578
0.00258282
-0.179978
-1.61972e-05
0.000141185
-0.174674
-2.5402e-06
0.00155093
-0.164438
-3.62434e-06
0.00704054
-0.109465
-0.000109288
0.00970067
-0.140161
-0.0029041
-0.0829766
0.006568
-0.0108358
-0.16311
-0.000346394
-0.014387
-0.164161
-0.000382724
-0.00365401
-0.129158
-0.000120746
0.0126703
-0.11512
-0.000260586
0.0162146
-0.126371
-0.000724753
-0.0951801
0.00869821
-0.0192874
-0.137104
-0.00103242
-0.0163312
-0.152667
-0.00760686
-0.00761702
-0.117182
-0.00503529
0.024102
-0.118882
-0.0170358
0.0310869
-0.105214
-0.0213151
-0.132523
0.000235994
-0.0178766
-0.0268759
-0.0845845
-0.0101532
-0.0571738
-0.0671783
-0.00262578
-0.0762967
-0.0462849
0.0211575
-0.0493016
-0.0893887
0.00715664
-0.0167684
-0.0730147
-0.0370328
-0.0861444
-0.0119414
-0.0171242
-0.0114824
-0.0771993
-0.000268388
-0.0859632
0.000475872
-0.0911772
0.00664476
-0.0215575
-0.0454115
-0.0497707
-0.0142781
0.130315
-0.00140844
-0.124061
0.140966
-0.0234176
-0.0514048
0.142152
-0.0120907
-0.100797
0.156464
0.0513619
-0.138422
0.141344
-0.00481508
0.124934
0.0180226
-0.0511811
0.0796956
-0.000460242
-0.0576852
0.00613158
0.0050611
-0.0486036
0.0426509
-0.0077338
-0.0678475
0.0127891
-0.0310543
-0.0637804
0.0124976
-0.0538092
0.0708887
0.00265893
-0.0185977
0.00358143
-0.000353546
-0.0196887
0.00148594
-0.00128013
-0.0150501
0.0032191
-0.00163823
-0.0241169
0.000709129
-0.00204461
-0.0246397
0.000759945
-0.0140513
0.00338338
0.00218178
-0.00673409
-4.21693e-05
0.00107276
-0.00344483
6.26484e-05
-0.000325461
-0.00194852
-9.14078e-06
0.000876712
-0.00634456
2.16679e-05
0.00218981
-0.00794025
-7.4344e-05
1.4175e-06
-6.80765e-05
0.00170823
-0.00214973
-8.74213e-07
0.000184027
1.06692e-05
-3.94306e-05
7.5297e-05
3.06137e-06
-3.05267e-07
-4.21425e-05
3.37161e-05
-1.97411e-05
-1.08786e-08
6.75134e-06
-1.65699e-06
2.7673e-09
-7.70292e-08
-3.04487e-09
0.000392061
-1.96739e-08
-2.73603e-10
1.5064e-09
-4.88764e-08
-2.86247e-10
5.12911e-10
-1.39087e-09
-4.04469e-10
1.23981e-09
-2.90532e-08
-5.88878e-10
1.19427e-09
-3.51615e-09
8.99378e-10
-8.35106e-10
-9.42346e-10
1.67168e-05
-3.40067e-08
-4.88451e-09
7.21776e-10
-4.46653e-09
-1.53543e-07
3.25558e-09
-7.08659e-10
-3.44146e-06
1.36352e-07
-2.67361e-07
-7.24104e-05
1.91319e-06
-5.02914e-07
-0.001489
-1.25746e-05
-1.61975e-08
5.00361e-07
3.31557e-08
-4.52175e-08
-2.50869e-06
-4.38058e-09
-3.69911e-06
1.48616e-08
2.53131e-09
-0.000115757
2.79867e-06
-2.01117e-07
-0.00301784
4.94421e-06
-1.12595e-05
-0.00786075
-1.30842e-05
7.85836e-05
-0.000177226
-8.15733e-07
8.61787e-07
-0.000301483
-5.52648e-06
-3.67266e-06
-0.000115601
-7.94556e-07
-3.09571e-06
-0.00025814
1.45391e-08
5.47215e-06
-0.000726242
-1.88893e-06
-0.00226109
5.50796e-05
0.000740559
-0.00453822
5.50702e-06
-9.33019e-05
-0.00707308
2.64089e-06
-0.000788518
-0.00445411
4.78573e-06
-0.000565898
-0.017508
-8.09106e-06
0.000735815
-0.0230792
-0.000265127
0.00315465
5.92842e-06
0.0101603
-0.059526
-0.00770912
0.00089605
-0.0385203
-3.52595e-05
-0.00878579
-0.0350652
2.51338e-05
-0.0164167
-0.051851
-0.00191131
0.0103868
-0.04585
-0.0329009
-0.0523434
-0.00100255
0.0230399
-0.0442094
0.0279884
-0.0508038
-0.00761503
-0.0101017
-0.0282243
-0.0477606
-0.021185
-0.072987
-0.0764096
-0.018296
0.00836459
0.126116
-0.0358756
0.00798047
0.150588
-0.013093
-0.0104487
0.138206
-0.00472438
0.000306116
0.0925037
0.00814225
-0.0144933
0.0855198
0.0144242
0.118554
0.00590405
-0.00367169
0.0248529
0.000297278
-0.00122275
0.0140399
0.0067456
-0.00320591
0.00895626
-0.00042823
-0.000526154
0.00168578
-0.0232238
-0.000698565
0.00301264
-0.00322522
0.0097185
-0.000149216
3.67612e-05
1.99291e-05
5.59767e-05
-9.0333e-06
5.61992e-05
-4.99246e-05
-9.40834e-08
0.000119335
0.000103955
5.32071e-06
4.90608e-06
9.73435e-05
6.87469e-05
-1.07354e-06
6.5725e-05
0.000187438
-5.9465e-06
8.859e-07
-4.00174e-07
9.32229e-06
3.95262e-05
-1.31187e-06
9.69198e-09
2.17044e-07
-1.30779e-07
7.79886e-06
1.98075e-05
-7.2196e-07
6.3249e-07
1.60097e-06
-2.91933e-08
6.78742e-08
-1.82866e-06
4.6834e-09
1.11184e-08
-6.94817e-09
8.97568e-08
2.68558e-08
-1.78733e-08
1.57051e-09
2.10173e-09
-2.73473e-09
6.11617e-08
1.43717e-08
-8.35744e-09
3.61133e-09
3.05643e-09
-1.56233e-09
1.10484e-08
-1.80087e-08
9.13118e-11
4.67064e-10
-1.40788e-08
-5.69776e-11
-7.36509e-09
-1.48286e-08
1.5521e-11
4.0834e-10
-1.00514e-09
-1.54273e-10
-1.06116e-08
-1.24503e-08
-1.39361e-12
1.59057e-09
-2.42269e-09
1.25109e-08
-3.89833e-09
-3.30704e-08
5.16689e-10
-5.23351e-09
4.4434e-09
1.36615e-08
5.45195e-08
3.5078e-10
-3.28546e-10
1.37428e-09
3.75504e-09
6.94207e-08
-3.4079e-09
-8.17114e-07
-2.94885e-07
-8.58358e-09
-1.91783e-05
-5.96269e-07
-5.77706e-09
3.10385e-08
3.87346e-09
-4.42489e-10
-1.71297e-08
1.63701e-08
-1.25428e-10
-1.03245e-08
4.5773e-09
-2.24924e-07
1.0326e-08
1.03896e-08
-1.99149e-05
6.92921e-07
7.23029e-09
-5.51927e-05
5.90248e-07
8.33584e-07
-1.73875e-06
1.17664e-07
-1.47602e-09
-4.99782e-06
2.23448e-08
-5.37697e-09
-7.13037e-07
4.47115e-09
-2.01137e-08
3.10981e-08
9.02844e-09
-3.26578e-06
1.74428e-06
-3.56507e-09
-2.87071e-06
4.77711e-09
4.96495e-06
-8.54885e-07
-4.63321e-07
-2.44998e-06
5.74561e-06
-6.6157e-08
-1.93193e-07
3.97158e-06
-1.35094e-06
-7.70035e-06
2.38993e-07
-5.39018e-07
1.55289e-06
-0.000219615
-5.28072e-05
7.33339e-06
-2.23401e-06
-6.16808e-07
-0.00754971
-0.000162404
-5.69448e-06
5.6305e-06
-3.16157e-05
-8.53361e-06
2.96566e-05
2.09648e-07
7.454e-07
-0.00101008
-0.000909777
0.000382872
-0.0205332
-0.0129709
2.47417e-05
-0.000626605
-0.00305311
-0.0202438
0.000873429
-0.0110141
0.000321249
-0.00966553
0.002531
-0.0104677
0.000404557
-0.0573596
-0.00827674
-0.00934145
0.0152292
0.103643
-0.0280662
0.0218263
0.147522
-0.0273891
0.011744
0.125816
-0.00713786
0.00780439
0.123514
0.00318962
0.00208814
0.0810699
0.019091
0.102512
-0.000555365
-1.27743e-05
0.0121398
0.000135029
-5.39892e-05
0.0162034
0.000652104
-0.000117671
0.0102296
0.000164318
-2.65982e-06
0.00560773
-0.00223761
-1.71979e-06
0.00180119
-0.000183481
0.00644743
-7.30446e-07
3.80096e-07
7.16302e-06
1.06808e-07
1.33233e-06
-7.75579e-08
1.22248e-06
1.28206e-07
3.44253e-07
2.78529e-06
7.05115e-07
-1.71286e-10
4.17856e-08
3.93527e-09
-5.12564e-08
-5.69307e-07
4.28343e-06
5.52482e-09
5.59111e-09
-3.40274e-08
1.21455e-08
1.4916e-08
-1.10313e-09
7.25683e-09
2.45967e-09
-2.45755e-10
6.70782e-09
5.58882e-09
-2.27317e-08
1.26715e-09
1.62707e-10
-2.00141e-08
2.47815e-08
-7.78091e-07
6.93332e-11
-1.39276e-09
-3.8823e-11
4.92072e-11
-2.89426e-09
-4.73946e-11
5.73922e-12
-2.02434e-10
-2.35946e-11
-2.55111e-12
-2.75964e-09
-6.75454e-13
-3.72565e-10
-1.02933e-09
-1.10815e-13
-4.10147e-09
-1.28408e-11
7.67739e-10
-1.50504e-08
-1.22513e-09
6.58895e-10
-3.41168e-08
-7.81265e-10
-1.29165e-09
-1.44828e-10
-6.80389e-11
-9.60351e-10
-1.19983e-08
-5.78276e-11
-9.54868e-10
-8.68926e-09
-5.8257e-11
-3.51163e-08
-9.15929e-11
-1.70719e-08
-1.16164e-09
4.52552e-09
-1.09456e-09
-6.95368e-09
1.79553e-08
-6.66499e-10
-5.64199e-10
1.59669e-10
2.70557e-09
-1.57042e-09
6.45642e-11
-4.04039e-08
-1.88543e-09
-1.38798e-10
-5.4443e-07
-6.56717e-10
-4.0901e-10
-2.53016e-09
8.65273e-10
4.05044e-11
-1.07413e-08
2.09213e-09
3.99136e-10
-3.5852e-09
1.39346e-09
8.48681e-10
-7.35759e-11
1.59819e-09
1.05288e-09
3.67178e-10
-3.45937e-10
7.44802e-09
9.14959e-10
-7.08969e-11
1.06481e-07
6.20365e-09
1.05723e-09
-1.52871e-08
5.92249e-09
1.05641e-08
-1.05985e-07
2.55007e-09
4.8928e-10
5.54581e-08
-3.73768e-08
3.43504e-11
8.99475e-11
-3.45555e-09
1.09997e-07
-9.86998e-08
1.00075e-07
6.26368e-06
-6.65907e-06
2.02583e-07
1.42842e-05
-1.55896e-05
-4.39649e-08
7.11951e-06
-1.66736e-05
-3.72697e-06
2.82233e-05
-2.50243e-05
1.24448e-05
-6.35433e-05
-5.59447e-06
3.02801e-05
-1.94832e-05
-2.09024e-05
6.74776e-05
-0.000193363
-1.68278e-06
0.000195122
-0.000230625
5.4511e-05
0.000503803
-0.000556656
0.000582591
-0.00118459
-0.000298786
0.000459444
-0.00652346
-0.00108511
0.000219465
-0.000265592
4.11454e-06
-0.0271268
0.00144082
-0.0281094
0.00837223
-0.0316034
0.00466832
-0.0281299
-0.00347135
-0.0296715
-0.025605
-0.000708749
-0.0770884
0.0735408
-0.000113867
-0.0780571
0.0737616
0.000133223
-0.077838
0.0736991
1.64608e-05
-0.0775154
0.07365
0.000126224
-0.077685
0.0736879
-0.0775159
0.0736258
-0.000831874
-0.00963052
0.0190252
0.000343476
-0.00742645
0.0194527
0.000203769
-0.00864787
0.0192195
-1.61563e-06
-0.00751616
0.0191873
4.99071e-05
-0.00729688
0.0191807
-0.00781773
0.0191862
-8.78886e-05
-0.00397609
1.84474e-05
-0.00405526
1.35614e-05
-0.00400938
1.33251e-05
-0.00402331
4.58826e-05
-0.00404097
-0.00398701
-0.000131655
0.0113719
-3.52923e-06
2.14669e-05
0.0113127
-2.4028e-06
7.19757e-05
0.0113575
-2.27401e-06
5.53936e-06
0.0113471
-3.50892e-06
-7.5443e-05
0.0113644
-4.70204e-06
0.011348
-1.67702e-06
-0.000202442
0.0192931
-4.48807e-05
2.07527e-05
0.0191063
-2.22289e-05
3.16192e-05
0.0192033
-1.883e-05
-2.08773e-06
0.0192132
-4.42338e-05
4.02382e-05
0.0191998
-6.16188e-05
0.0192292
-1.31508e-05
-0.000364614
-8.71421e-05
4.75892e-05
-0.000107418
2.37974e-05
-9.05069e-05
1.13097e-05
-0.00011132
0.000225978
-0.000137446
-7.66353e-05
7.27592e-11
-1.77908e-06
-2.11182e-06
-1.59274e-10
-8.34177e-07
-1.86279e-06
-5.23629e-10
-7.50947e-07
-1.82342e-06
-6.26333e-10
-1.68243e-06
-2.18959e-06
-2.27636e-10
-2.28399e-06
-2.82151e-06
-5.45532e-07
-1.37499e-06
8.86092e-10
-1.37978e-06
-4.55868e-05
-8.49683e-10
-1.13767e-06
-2.20476e-05
-1.52827e-08
-1.22698e-06
-1.84671e-05
-9.59217e-09
-1.45937e-06
-4.47642e-05
1.75634e-08
-1.60427e-06
-6.26774e-05
-1.18032e-06
-1.26214e-05
-7.5267e-08
-8.84466e-05
-8.24573e-09
-0.000108622
-1.7484e-08
-9.17247e-05
-7.57501e-10
-0.000112797
1.07424e-07
-0.000139159
-7.77085e-05
8.56303e-08
7.08396e-07
-4.5734e-06
8.27222e-10
1.11528e-06
-4.01164e-06
-2.70329e-08
7.54371e-07
-3.83658e-06
-2.15793e-08
1.15865e-06
-4.89653e-06
3.54716e-08
1.64381e-06
-6.37952e-06
4.02803e-07
-2.81375e-06
1.841e-06
1.71745e-05
-6.91792e-05
1.47932e-08
1.26585e-05
-3.31651e-05
-2.80115e-07
9.40128e-06
-2.80243e-05
-3.22766e-07
2.11001e-05
-6.96144e-05
-1.9067e-07
3.06438e-05
-9.74538e-05
6.11034e-06
-1.92148e-05
1.77438e-06
-0.000133286
-1.18202e-07
-0.000138572
-2.47973e-07
-0.000135175
-4.67702e-07
-0.000253655
-1.02183e-06
-0.000429567
-0.000128254
4.3274e-06
0.000241036
-0.000256514
1.13334e-07
0.000118255
-0.000119737
-1.12992e-06
0.000110332
-0.000116835
-3.08342e-07
0.000238324
-0.000250304
3.70699e-06
0.000332449
-0.000351362
7.85833e-05
-8.06036e-05
1.72328e-05
0.00222764
-0.00557366
1.22153e-07
0.00122754
-0.0020138
3.17992e-07
0.00106083
-0.00171661
2.72384e-06
0.00229601
-0.00520529
-3.41028e-07
0.0029467
-0.005424
0.000821352
-0.00105248
6.6497e-05
-0.00403095
5.09994e-06
-0.00369951
2.44792e-05
-0.00336393
2.14263e-06
-0.00391598
-0.000104979
-0.0039188
-0.00356074
1.56445e-05
0.0025286
-0.00491441
2.69125e-06
0.00395863
-0.00438152
-8.51546e-06
0.00411486
-0.00469654
3.70394e-06
0.00253413
-0.00515517
3.92281e-05
0.00275364
-0.00574467
0.00328225
-0.00466955
-5.72804e-05
0.00461676
-0.00506929
-1.19164e-05
0.00475454
-0.00482865
2.98969e-05
0.00494656
-0.00486889
1.18703e-05
0.00443235
-0.0048239
-3.90951e-05
0.00411901
-0.00461173
0.00406859
-0.00428658
-5.54442e-05
-0.000753348
-1.16441e-05
-0.00114316
8.79724e-05
-0.00125314
3.71747e-05
-0.000729183
-0.000167786
-0.000755775
-0.0011412
-0.000189572
0.000979891
-0.00668216
-7.93538e-06
0.00123019
-0.00673715
0.000117984
0.0014553
-0.00652495
1.82066e-05
0.00107934
-0.0066358
-0.000293282
0.000892429
-0.00619042
0.00128131
-0.00712275
-5.36371e-05
-0.000217409
-3.57409e-09
-1.24654e-05
-0.000103421
-3.52965e-09
2.2674e-05
-7.79961e-05
-3.60948e-09
1.62656e-05
-0.000233332
-3.65715e-09
-5.15498e-05
-0.000342214
-3.90561e-09
8.7442e-06
-3.45188e-09
-3.52958e-06
-4.6652e-08
-1.97413e-06
-4.67167e-08
-1.71929e-06
-4.6695e-08
-2.80873e-06
-4.9372e-08
-7.81068e-06
-5.12511e-08
-4.68816e-08
-2.78603e-05
-2.53679e-09
-5.98966e-06
-3.39179e-06
-2.56548e-09
-5.71595e-06
1.86702e-05
-2.50644e-09
-5.64546e-06
-5.89325e-06
-2.84936e-09
-5.73053e-06
-8.14042e-05
-2.9108e-09
-5.36182e-06
-2.65073e-09
-5.87121e-06
-1.32003e-12
-2.22025e-09
-3.60062e-09
-1.1679e-12
-2.25815e-09
-3.54851e-09
-4.35953e-12
-2.25274e-09
-3.5713e-09
-1.40146e-12
-2.36966e-09
-3.8108e-09
-7.85423e-12
-2.50143e-09
-4.00757e-09
-2.22845e-09
-3.58105e-09
1.1277e-11
-4.88835e-08
-3.40664e-12
-4.89602e-08
-2.82327e-11
-4.89229e-08
-8.36835e-12
-5.17615e-08
2.48323e-11
-5.37857e-08
-4.90852e-08
1.16991e-09
-1.90621e-07
-3.32303e-05
1.14441e-09
-1.90715e-07
-3.20087e-05
-7.03853e-09
-1.90959e-07
-3.20526e-05
-2.59759e-09
-2.03444e-07
-3.28194e-05
9.98329e-09
-2.15248e-07
-3.32592e-05
-1.90565e-07
-3.22022e-05
9.674e-12
-1.78202e-07
-1.6021e-08
8.434e-13
-1.80538e-07
-1.36611e-08
-4.52819e-11
-1.80273e-07
-1.4091e-08
-1.14817e-12
-1.89453e-07
-1.79166e-08
5.40419e-11
-1.99024e-07
-2.05378e-08
-1.7977e-07
-1.42241e-08
4.02978e-10
-2.0764e-07
-8.40352e-11
-2.08534e-07
-7.49804e-10
-2.084e-07
-9.27906e-11
-2.08783e-07
9.49046e-10
-2.08824e-07
-2.08459e-07
-2.58077e-08
-1.75247e-06
-9.46079e-05
-6.66744e-08
-1.61699e-06
-9.57686e-05
-2.62809e-07
-1.65057e-06
-9.70187e-05
-5.14694e-08
-1.88723e-06
-9.20038e-05
5.57432e-07
-1.94816e-06
-8.78434e-05
-1.68449e-06
-9.85253e-05
-1.4864e-10
-1.57211e-06
1.29186e-09
-6.69728e-12
-1.58524e-06
1.00867e-09
9.15984e-11
-1.59257e-06
1.06902e-09
2.46738e-11
-1.59299e-06
1.48328e-09
-2.16115e-10
-1.59808e-06
1.81791e-09
-1.58653e-06
1.06981e-09
1.03778e-09
6.36904e-10
-4.40391e-10
2.17873e-10
-1.36688e-09
-4.65242e-12
7.9387e-11
5.34608e-10
-2.61291e-09
8.86361e-10
-8.04504e-12
4.30275e-06
-1.28475e-09
-0.00629526
9.55697e-07
-9.78261e-10
-0.00618853
-1.10332e-06
-1.07092e-09
-0.00617774
-2.97848e-07
-1.47636e-09
-0.00627755
1.26203e-06
-1.83061e-09
-0.00641781
-1.06807e-09
-0.00611958
-7.34695e-14
-5.63543e-11
5.15419e-12
-1.16488e-14
-3.1008e-11
3.98861e-12
4.48113e-14
-4.91407e-12
3.95556e-12
-1.21925e-14
-5.71996e-11
5.8952e-12
-1.79799e-13
-7.92808e-11
7.28489e-12
-1.32617e-12
3.94758e-12
-9.29409e-15
-7.34829e-12
-1.85192e-19
-8.69357e-12
-1.47047e-14
-9.55117e-12
-1.10507e-14
-7.79523e-12
-7.23389e-20
-6.7416e-12
-9.37614e-12
0.000245105
-1.86292e-10
-0.0341029
9.36897e-05
-1.82017e-10
-0.0339445
-2.81304e-05
-1.82407e-10
-0.0337731
-5.44985e-05
-1.87406e-10
-0.0337889
0.000154551
-1.92608e-10
-0.0337927
-1.78275e-10
-0.0336493
-1.60355e-14
-1.81122e-10
1.41568e-16
-8.45835e-15
-1.78036e-10
1.15016e-16
-1.29829e-15
-1.78459e-10
2.12067e-16
1.86604e-16
-1.81512e-10
2.70623e-17
-5.03798e-15
-1.85319e-10
1.25913e-15
-1.74332e-10
6.20989e-17
-5.83937e-13
1.62064e-27
-3.03081e-13
1.88763e-27
5.87485e-15
2.03402e-27
4.84841e-14
2.06336e-27
-3.07403e-13
2.29986e-27
1.6644e-27
-0.0010136
-8.11068e-12
-0.0236543
0.033894
-0.00110651
-5.48254e-12
-0.0235625
0.0337512
-0.000308459
-1.9171e-12
-0.0233893
0.0331241
0.000653245
-5.00897e-12
-0.0231961
0.0326075
0.000496094
-5.00128e-12
-0.0221011
0.0320722
-5.08551e-12
-0.0234194
0.0337478
-5.61544e-15
-7.88781e-12
5.56178e-17
-2.17309e-13
-1.77088e-15
-4.01342e-12
4.15807e-17
-1.473e-12
-2.68155e-15
-1.15551e-12
6.19836e-18
-7.60692e-13
-1.75442e-15
-4.35525e-12
3.0937e-19
-6.54642e-13
2.08375e-15
-4.76415e-12
1.62405e-17
-2.40985e-13
-5.02033e-12
1.06324e-17
-6.31196e-14
7.6753e-14
7.93684e-27
-4.02503e-12
1.47618e-14
6.668e-27
-1.34555e-12
-2.83847e-14
1.15902e-26
-3.25157e-13
-7.31853e-14
7.15644e-27
-3.19703e-12
4.80866e-14
9.82936e-27
-8.60849e-12
5.12407e-27
-2.67957e-12
0.000214763
1.73245e-16
-0.0107347
0.000167861
1.37901e-16
-0.0105717
-0.000162354
1.9205e-17
-0.0105567
-0.000126186
1.09854e-18
-0.0107644
6.50868e-05
6.5833e-17
-0.0108472
3.73561e-17
-0.0107346
-3.03763e-18
1.29707e-26
1.37625e-16
-5.36758e-18
1.00895e-26
8.71177e-17
-5.50935e-19
1.64566e-26
1.15952e-16
-1.16963e-20
1.07498e-26
8.77791e-18
3.82322e-19
1.55729e-26
3.07978e-16
8.17021e-27
5.20141e-17
-1.49974e-28
6.97406e-27
-3.32449e-29
6.68012e-27
1.99074e-28
7.25545e-27
4.28193e-28
6.42432e-27
4.841e-29
1.13815e-26
4.14549e-27
-0.000192439
3.29799e-16
0.000506664
-0.000146189
2.75004e-16
0.000480943
5.98341e-05
4.50055e-16
0.000432152
4.09431e-05
3.91839e-17
0.000517095
-3.39615e-05
2.7756e-15
0.000514115
1.66164e-16
0.000456723
2.85849e-17
1.00031e-26
-1.91452e-16
6.2919e-17
9.48544e-27
-1.6099e-16
4.93501e-18
1.01364e-26
-2.63885e-16
2.22155e-16
8.89558e-27
-2.45592e-17
-1.61052e-16
1.61235e-26
-1.78964e-15
5.89901e-27
-9.90478e-17
-5.04101e-29
6.36163e-30
-1.55029e-30
6.91244e-29
7.33801e-29
1.10655e-28
1.6959e-28
4.43652e-30
-3.82643e-29
-1.23852e-28
-2.91842e-29
-0.000107102
2.41767e-16
0.0117173
-0.000154698
1.99145e-16
0.0116763
-0.000152216
3.53411e-16
0.0116634
-5.83816e-05
1.55541e-17
0.0116774
3.04711e-05
2.21856e-15
0.0116785
1.14509e-16
0.0117087
1.48609e-18
1.0643e-26
-3.95037e-16
3.66641e-18
1.246e-26
-3.22983e-16
3.01233e-19
1.36837e-26
-5.65195e-16
2.3206e-17
1.30294e-26
-2.46826e-17
-3.03453e-17
1.43639e-26
-3.51949e-15
9.81094e-27
-1.8514e-16
-6.32662e-29
-7.31772e-27
-7.94789e-29
-8.51173e-27
-1.64644e-29
-9.29834e-27
3.90136e-29
-8.86187e-27
3.58566e-29
-9.78465e-27
-6.75749e-27
-0.000105119
3.1441e-16
0.0229561
-0.000159173
2.58098e-16
0.0228948
-0.000150541
4.67851e-16
0.0228993
-6.57455e-05
3.75753e-17
0.0228536
1.47306e-05
2.88289e-15
0.0228543
1.42697e-16
0.0229478
-4.0259e-19
9.66506e-27
-3.34049e-16
-7.95801e-19
1.14376e-26
-2.71653e-16
-1.11178e-18
1.25294e-26
-4.89525e-16
-6.71537e-20
1.23614e-26
-3.87396e-17
-1.08024e-17
1.36466e-26
-2.96595e-15
9.62062e-27
-1.49218e-16
-3.34664e-29
-7.99343e-27
-5.48415e-29
-9.38133e-27
-6.11483e-29
-1.02225e-26
-1.35905e-29
-9.99781e-27
2.5549e-29
-1.10106e-26
-7.85375e-27
8.44404e-05
3.11372e-16
0.000116714
2.53641e-16
0.000152653
4.67673e-16
8.88305e-06
6.01191e-17
-0.000161602
2.80597e-15
1.3728e-16
-2.39449e-20
1.20444e-26
2.00675e-19
1.43701e-26
1.0184e-19
1.56582e-26
2.58332e-19
1.59806e-26
-7.84938e-18
1.77519e-26
1.29914e-26
-8.10526e-30
-1.90248e-29
-2.77771e-29
-2.22341e-29
9.1044e-30
-0.0107346
0.100013
0.0144003
-0.0156984
0.140812
0.0117094
-0.0191917
0.116448
0.0128973
-0.00192075
0.0990945
0.00719288
0.00831588
0.0602565
0.00277085
0.0957386
0.0149378
-0.060699
0.164444
-0.00393799
-0.0313374
0.0195955
0.00919154
-0.00114229
0.0179283
0.00673662
0.0261669
0.0164187
0.00377889
0.0597126
0.021424
0.00188202
0.161524
-0.00630485
-0.0166796
-0.00394201
-0.00177779
-0.000744782
-0.000936587
-0.00128286
0.000236572
-0.00128974
0.0204778
-0.00050492
-0.012267
-0.000905258
0.0115974
7.28899e-06
-0.000234791
0.0139551
-5.79335e-06
0.000889212
0.0133753
-3.77124e-07
0.000560596
0.00893041
-1.48447e-08
-0.000548633
0.0025688
6.15983e-06
0.0102255
-4.31613e-06
-0.000857232
0.00415187
-8.31577e-06
-0.000412061
0.0126001
2.98124e-06
0.000972639
0.0141159
-6.18353e-07
0.000996492
0.00965901
-4.44513e-06
0.00015838
0.00337397
5.33894e-06
0.00446491
-1.73372e-06
0.000110031
-1.18098e-07
0.00189586
-2.43668e-06
0.000446178
-6.53763e-09
3.17702e-05
-1.97984e-07
4.88307e-05
-1.3714e-05