/*--------------------------------*- C++ -*----------------------------------*\
| =========                 |                                                 |
| \\      /  F ield         | OpenFOAM: The Open Source CFD Toolbox           |
|  \\    /   O peration     | Version:  v1612+                                |
|   \\  /    A nd           | Web:      www.OpenFOAM.com                      |
|    \\/     M anipulation  |                                                 |
\*---------------------------------------------------------------------------*/
FoamFile
{
    version     2.0;
    format      ascii;
    class       volScalarField;
    location    "6.85";
    object      p;
}
// * * * * * * * * * * * * * * * * * * * * * * * * * * * * * * * * * * * * * //

dimensions      [1 -1 -2 0 0 0 0];

internalField   nonuniform List<scalar> 
1116
(
16686.8
16686.8
16686.8
16686.8
16686.8
16686.8
15557.2
15557.4
15557.4
15557.3
15557.3
15557.3
13431.7
13431.9
13431.9
13431.8
13431.8
13431.8
10751
10751
10750.9
10751.1
10751.3
10750.6
8548.78
8549.39
8548.88
8549.37
8549.2
8548.91
6885.47
6888.05
6887
6886.86
6885.13
6888.4
5957.21
5953.84
5954.62
5956.05
5959.65
5952.17
5702.81
5700.78
5702.39
5701.66
5704.74
5699.57
5820.29
5815.45
5817.73
5819.62
5822.58
5815.51
6026.83
6030.47
6029.41
6027.94
6022.18
6037.23
6435.74
6439.08
6442.22
6430.83
6430.32
6441.32
6605.19
6598.85
6604.88
6601
6610.37
6596.61
10341.1
10341.1
10341.1
10341.1
10341.1
10341.1
7491.54
7492.53
7492.17
7491.91
7492.07
7492.11
4877.48
4877.7
4877.78
4877.5
4877.29
4878.05
2673.22
2672.94
2672.75
2673.31
2673.54
2672.27
1455.74
1455.69
1455.76
1455.92
1455.89
1455.83
905.081
904.766
905.29
904.911
905.208
904.732
637.519
642.619
641.405
638.651
635.881
644.045
683.383
681.216
681.487
684.076
684.618
681.405
1013.73
1014.04
1014.69
1014.45
1014.71
1016.72
1226.02
1227.58
1227.35
1226
1222.97
1232.51
1433.39
1436.19
1435.71
1431.01
1428.67
1436.93
1525.1
1522.95
1524.29
1522.49
1523.39
1519.56
4490.45
4490.39
4490.44
4490.25
4490.23
4490.36
1131.14
1131.71
1131.82
1131.03
1131.1
1132.06
472.08
472.533
472.627
471.984
472.006
472.695
8.65283
6.75537
7.53423
7.89273
8.0795
7.42177
-36.156
-37.5751
-37.0295
-36.6085
-36.1787
-37.2634
63.3113
60.9636
61.654
62.835
64.986
59.6546
175.48
174.862
175.04
175.897
176.457
175.058
164.556
169.133
167.762
166.151
163.175
171.015
173.359
173.861
173.724
174.059
173.696
175.807
154.123
155.154
154.601
153.994
151.637
156.601
246.622
249.104
246.954
247.24
243.759
248.37
247.399
249.346
247.916
248.023
244.832
249.755
1521.39
1520.65
1520.64
1520.97
1520.79
1520.43
-89.0455
-89.3484
-89.0931
-89.2435
-89.1057
-89.0424
-37.2273
-37.4612
-37.3789
-37.3869
-37.4313
-37.3038
-71.9421
-72.0796
-72.0265
-72.0565
-72.0867
-71.8535
-65.8771
-66.161
-65.9159
-65.9414
-65.4617
-66.1899
-22.0309
-22.3983
-22.1438
-22.2341
-21.8869
-22.7987
43.2367
43.8875
43.5421
43.9743
43.7936
43.5669
27.1587
28.4913
27.9638
28.0337
26.9174
29.6282
12.175
12.5662
12.5801
12.421
11.8851
13.3922
8.46686
8.34218
8.35614
8.41864
8.42978
8.2559
17.8955
18.7244
18.2906
18.2218
17.521
18.6511
-75.6073
-76.2632
-75.5432
-75.6449
-74.7431
-75.8679
2263.94
2328.01
2286.11
2355.56
2359.58
2276.81
1899.98
1783.84
1946.33
1818.97
1821.03
1755.17
1300.54
1135.59
1259.25
1131.87
1219.99
1281.27
715.225
602.471
676.609
590.441
670.621
780.13
424.149
432.065
449.737
460.521
430.994
490.583
374.273
413.269
420.379
425.53
404.127
409.779
370.255
363.264
376.968
351.249
348.313
339.379
382.978
366.051
343.588
275.333
270.265
289.915
386.312
374.445
330.762
324.804
333.095
314.287
440.395
418.408
382.533
459.59
494.3
400.076
741.177
755.859
746.698
813.016
808.58
824.183
789.803
822.387
870.684
904.864
967.898
969.818
1248.47
1330.95
1259.8
1342.42
1241.12
1212.81
422.589
293.302
372.901
313.989
342.125
386.685
61.4113
61.0721
68.2748
53.6575
57.4728
56.0059
-17.4229
-33.4184
-37.9096
-24.0797
-24.135
-39.1566
-41.8771
-53.4968
-49.6705
-49.6106
-46.5927
-44.4334
-41.5425
-38.2039
-36.1889
-37.1184
-35.8784
-29.0904
-28.5726
-26.7139
-28.2661
-24.18
-16.957
-10.6522
-12.8441
-12.8717
-12.5947
-15.3597
-17.2227
-1.38267
2.7233
-2.42415
-1.58015
-6.98985
-19.1325
-13.7441
9.60354
9.14771
12.2346
11.1179
5.77284
-7.81718
84.5197
65.9536
60.47
108.943
128.136
71.5881
259.28
189.541
118.356
277.716
324.159
324.421
504.126
433.748
473.121
416.309
344.092
440.87
37.9398
34.1181
29.8736
9.12537
5.25072
24.1941
-16.1815
-6.44989
-14.0798
-10.928
-13.1335
-13.2695
-25.548
-25.7879
-25.1334
-24.5683
-25.2052
-23.1007
-20.1618
-22.4202
-19.3978
-19.6515
-17.4794
-16.3614
-24.0398
-24.9154
-23.2404
-24.0017
-22.4837
-23.9144
-27.6151
-25.9222
-27.1641
-28.0342
-23.4866
-22.8028
-25.1623
-23.4371
-21.4112
-26.7938
-25.2359
-23.6378
-16.2097
-15.7523
-15.0471
-21.3767
-23.1474
-22.8504
-25.3273
-25.8496
-25.4755
-29.3665
-26.735
-28.7994
-12.1914
-12.2264
-14.7571
-12.8748
-8.11365
-11.6658
-45.2745
-35.2282
-40.066
-38.1468
-20.9867
-27.0579
201.173
190.67
180.367
185.261
96.3368
147.453
-23.5018
-16.9893
-23.5981
-28.3901
-35.7333
-29.5116
-14.9516
-13.1373
-13.6286
-13.6251
-14.3244
-15.5565
-35.2768
-34.4828
-36.8006
-35.9485
-37.1461
-37.2666
-35.2356
-35.2286
-35.1661
-34.6926
-34.5214
-34.637
-41.0639
-41.4784
-41.7438
-40.8821
-40.4082
-41.717
-39.8085
-39.473
-39.1253
-39.0442
-36.2444
-35.7143
-35.5728
-35.1199
-34.3923
-36.2995
-33.4913
-33.8862
-28.2819
-27.8861
-27.5598
-29.5335
-30.095
-30.9739
-32.9404
-33.1408
-33.6101
-33.4117
-32.546
-34.2749
-27.2151
-22.8789
-22.4507
-26.6648
-28.627
-28.9672
-69.9274
-74.2967
-79.645
-109.357
-138.649
-110.101
1767.11
1770.82
1769.9
1769.36
1769.78
1769.01
524.284
528.351
524.467
525.678
525.767
524.655
-242.359
-242.403
-242.811
-242.783
-242.932
-243.306
-44.992
-45.0165
-44.9041
-44.9915
-45.0727
-44.594
-77.3738
-76.8352
-77.2713
-76.9124
-76.6572
-77.2945
-185.473
-180.588
-183.438
-182.804
-181.844
-185.428
-48.392
-48.723
-48.5538
-48.5893
-48.603
-48.4216
-41.2523
-41.5088
-41.4116
-41.3829
-41.3972
-41.3841
-64.0833
-64.0076
-63.9669
-63.8885
-63.8066
-64.1355
-92.6528
-92.2634
-92.2519
-92.4744
-92.4107
-92.1491
-83.287
-83.6147
-83.5194
-83.6812
-83.7987
-83.5553
-75.5989
-76.3996
-76.1043
-76.1213
-76.2917
-76.2146
-85.3507
-85.6545
-85.3671
-85.3247
-84.8062
-85.2553
-84.9027
-85.5087
-85.0925
-85.4626
-85.6559
-84.729
-88.2182
-89.488
-89.0052
-89.5803
-90.649
-88.7533
-58.2071
-58.4523
-58.4983
-58.1278
-58.0523
-58.7675
-78.2743
-77.5395
-77.4206
-77.6749
-77.7395
-76.0304
-124.791
-124.089
-123.406
-123.718
-124.522
-120.955
-31.8541
-30.7885
-31.2506
-31.3004
-31.8997
-31.0851
-52.8
-50.5343
-50.4065
-51.9085
-51.0696
-46.6937
-96.6443
-97.2144
-96.972
-96.0526
-96.2003
-97.2626
-26.8577
-26.7588
-26.8293
-26.791
-26.8362
-26.557
-51.1706
-50.9666
-51.0225
-50.8973
-50.914
-50.4681
-80.1897
-80.2951
-80.2703
-79.915
-79.7843
-80.3254
-23.7708
-23.9139
-23.9385
-23.838
-23.6709
-24.0523
-44.3112
-44.2868
-44.3078
-44.2771
-44.2554
-44.2755
-66.379
-66.3818
-66.3615
-66.3235
-66.2986
-66.2944
-22.971
-23.1273
-23.0621
-22.9267
-22.7378
-23.0854
-46.7598
-46.7508
-46.7472
-46.7197
-46.7151
-46.7029
-64.6169
-64.6134
-64.6083
-64.5823
-64.5869
-64.5732
-37.0418
-36.9937
-36.9319
-36.9773
-36.9925
-36.9336
-53.376
-53.3672
-53.3725
-53.3882
-53.399
-53.3719
-65.6781
-65.6709
-65.6685
-65.6653
-65.6663
-65.6569
14.6544
13.3538
13.4489
13.8078
14.6484
13.1267
-50.5467
-50.5456
-50.5541
-50.5486
-50.5502
-50.5596
-72.2187
-72.1714
-72.1649
-72.1679
-72.1909
-72.1582
234.783
235.746
235.53
233.524
228.738
232.737
-47.6197
-47.4471
-47.3793
-47.5556
-47.6765
-47.6068
-71.9783
-71.946
-71.896
-71.9898
-71.9135
-72.0541
262.418
261.819
262.322
265.986
267.803
265.038
-51.1219
-51.0681
-51.0438
-51.0011
-50.9585
-50.9408
-70.3149
-70.333
-70.3474
-70.3614
-70.3104
-70.3118
272.532
272.979
273.525
273.912
273.911
273.671
-49.6999
-49.6732
-49.6539
-49.6805
-49.6645
-49.6762
-69.4477
-69.4511
-69.4546
-69.4652
-69.4636
-69.473
271.483
271.776
272.197
272.572
272.618
272.547
-50.2105
-50.2151
-50.2258
-50.236
-50.24
-50.2297
-69.3978
-69.4088
-69.4194
-69.4198
-69.4161
-69.4115
265.146
265.381
265.798
266.038
266.035
266.048
-49.6232
-49.6149
-49.6056
-49.5972
-49.5908
-49.5945
-70.335
-70.3429
-70.3528
-70.3636
-70.367
-70.3616
226.375
225.695
225.491
225.421
225.326
225.326
-47.4967
-47.4954
-47.4922
-47.4792
-47.4685
-47.482
-72.5749
-72.5744
-72.5795
-72.5854
-72.5938
-72.5883
154.731
149.083
129.786
159.44
81.0726
118.559
-136.067
90.6691
-23.1659
-4.48131
16.6396
-120.934
-173.661
-146.303
-161.642
-154.032
-118.212
-160.468
-47.5742
-45.5846
-48.1413
-49.8973
-58.7308
-47.9538
-70.1233
-75.6526
-86.4513
-80.8854
-77.971
-61.4676
-92.0596
-105.684
-115.579
-107.868
-91.5035
-81.7721
-32.2116
-32.9968
-31.8811
-32.8198
-35.4457
-34.3078
-46.582
-45.9379
-46.9762
-46.4968
-45.5659
-46.3331
-62.9394
-61.932
-62.3872
-62.2458
-60.7294
-62.448
-45.3578
-45.8655
-45.9297
-46.0534
-46.0276
-45.6114
-59.4187
-59.6077
-59.7801
-59.4886
-58.2213
-58.4595
-69.711
-70.2818
-70.8009
-70.5906
-69.4811
-69.5195
-39.1063
-39.1728
-38.9962
-38.8114
-38.7339
-38.5173
-53.7281
-53.6423
-53.6562
-53.6638
-53.6064
-53.5617
-62.3702
-62.3149
-62.2947
-62.2427
-62.1255
-62.1488
-41.5883
-41.552
-41.6819
-41.7098
-41.4665
-41.0457
-55.3257
-55.2684
-55.3241
-55.4612
-55.5243
-55.4486
-62.7649
-62.7409
-62.7641
-62.8311
-62.8269
-62.8196
-38.9731
-39.1678
-39.3596
-39.4557
-39.4939
-39.4356
-52.8903
-52.4525
-52.2687
-52.873
-53.2341
-53.1906
-61.5271
-61.4697
-61.4223
-61.5112
-61.5378
-61.5826
-39.8042
-40.105
-40.4815
-40.3426
-40.1223
-39.7489
-53.7133
-53.4765
-53.5818
-53.6611
-53.819
-53.9684
-61.1892
-61.0576
-60.8634
-61.0504
-61.1862
-61.241
-34.526
-35.2389
-36.4772
-36.5113
-37.82
-37.0323
-54.8932
-55.2112
-55.5877
-54.9539
-54.5832
-54.6803
-60.3992
-60.3407
-60.3179
-60.4118
-60.4493
-60.4565
-37.963
-38.424
-39.3438
-38.9497
-39.338
-39.0535
-56.8858
-56.9224
-57.0436
-57.0388
-56.6545
-56.9427
-60.3546
-60.3416
-60.3869
-60.3811
-60.497
-60.4842
-43.0291
-44.76
-46.2308
-46.0382
-46.5775
-45.3935
-58.6488
-58.7197
-58.8045
-58.5151
-58.1506
-58.1007
-61.8102
-61.8532
-61.9924
-62.2347
-62.4074
-62.4308
-9.20683
-8.65303
-7.49265
-16.0622
-25.4154
-12.0856
-58.0491
-57.7234
-57.2801
-56.831
-55.6008
-56.5435
-73.2402
-73.434
-73.2892
-72.7244
-71.4671
-72.4594
)
;

boundaryField
{
    seabed_topleft_surface
    {
        type            calculated;
        value           nonuniform List<scalar> 
72
(
20031.7
20031.7
20031.7
20031.7
20031.7
20031.8
20173.7
20174.2
20173.9
20173.8
20173.9
20173.9
18227.7
18227.9
18227.9
18227.8
18227.8
18227.9
15547
15547
15547
15547.1
15547.3
15546.7
13344.8
13345.4
13344.9
13345.4
13345.2
13344.9
11405.5
11407.5
11406.3
11407.4
11406
11407.4
10292.2
10288.8
10289.5
10291.5
10295
10286.8
9945.45
9943.75
9945.75
9944.27
9946.98
9942.8
10014.1
10008.9
10012.1
10012.8
10015.6
10009.6
10186.3
10188.5
10188.6
10186.7
10181.9
10195.6
10587.3
10589.3
10593.6
10581.7
10582.1
10591.9
10754.2
10747.3
10753.9
10749.9
10759.7
10745.1
)
;
    }
    seabed_topright_surface
    {
        type            calculated;
        value           nonuniform List<scalar> 
72
(
2720.44
2784.54
2742.68
2812.15
2816.18
2733.4
2356.48
2240.27
2402.89
2275.54
2277.62
2211.76
1756.95
1379.22
1563.44
1490.24
1676.52
1737.85
1005.05
689.336
906.991
683.192
999.299
1236.66
609.44
799.809
832.512
799.559
712.087
903.474
709.51
794.186
804.144
812.462
793.536
804.222
754.123
731.443
751.301
682.916
720.24
676.149
767.096
739.845
689.321
539.65
600.406
465.117
770.859
758.148
657.846
660.635
687.799
479.769
824.942
802.203
732.269
848.769
891.342
761.47
1121.67
1112.68
1113.73
1213.23
1211.4
1224.15
1009.44
1050.83
1234.66
1266.1
1370.72
1229.05
)
;
    }
    breakwater_top_surface
    {
        type            calculated;
        value           nonuniform List<scalar> 
36
(
536.435
536.918
536.248
534.245
526.854
533.969
580.466
578.505
579.58
588.119
592.667
585.468
597.736
598.714
599.887
600.682
600.743
600.179
596.081
596.774
597.721
598.47
598.512
598.343
588.155
588.752
589.657
590.189
590.15
590.185
526.666
525.308
524.941
524.787
524.677
524.66
)
;
    }
    breakwater_left_surface
    {
        type            calculated;
        value           nonuniform List<scalar> 
24
(
6619.4
6613.06
6619.09
6615.21
6624.58
6610.82
1528.94
1526.73
1528.1
1526.32
1527.26
1523.34
247.847
249.806
248.371
248.466
245.264
250.209
-75.1439
-75.7982
-75.0798
-75.1839
-74.2839
-75.4092
)
;
    }
    breakwater_right_surface
    {
        type            calculated;
        value           nonuniform List<scalar> 
24
(
790.555
823.169
871.93
906.101
969.277
970.706
260.176
190.428
118.943
278.889
325.511
325.723
-44.8976
-35.161
-40.0498
-38.0871
-20.5368
-26.9832
-69.9016
-74.2105
-79.5099
-109.248
-138.466
-110.039
)
;
    }
    water_front_surface
    {
        type            calculated;
        value           nonuniform List<scalar> 
186
(
16686.8
15557.2
13431.7
10751
8548.78
6885.47
5957.21
5702.81
5820.29
6026.83
6435.74
6605.19
10341.1
7491.54
4877.48
2673.22
1455.74
905.081
637.519
683.383
1013.73
1226.02
1433.39
1525.1
4490.45
1131.14
472.08
8.65283
-36.156
63.3113
175.48
164.556
173.359
154.123
246.622
247.399
1521.39
-89.0455
-37.2273
-71.9421
-65.8771
-22.0309
43.2367
27.1587
12.175
8.46686
17.8955
-75.6073
2263.94
1899.98
1300.54
715.225
424.149
374.273
370.255
382.978
386.312
440.395
741.177
789.803
1248.47
422.589
61.4113
-17.4229
-41.8771
-41.5425
-28.5726
-12.8441
2.7233
9.60354
84.5197
259.28
504.126
37.9398
-16.1815
-25.548
-20.1618
-24.0398
-27.6151
-25.1623
-16.2097
-25.3273
-12.1914
-45.2745
201.173
-23.5018
-14.9516
-35.2768
-35.2356
-41.0639
-39.8085
-35.5728
-28.2819
-32.9404
-27.2151
-69.9274
1767.11
524.284
-242.359
-44.992
-77.3738
-185.473
-48.392
-41.2523
-64.0833
-92.6528
-83.287
-75.5989
-85.3507
-84.9027
-88.2182
-58.2071
-78.2743
-124.791
-31.8541
-52.8
-96.6443
-26.8577
-51.1706
-80.1897
-23.7708
-44.3112
-66.379
-22.971
-46.7598
-64.6169
-37.0418
-53.376
-65.6781
14.6544
-50.5467
-72.2187
234.783
-47.6197
-71.9783
262.418
-51.1219
-70.3149
272.532
-49.6999
-69.4477
271.483
-50.2105
-69.3978
265.146
-49.6232
-70.335
226.375
-47.4967
-72.5749
154.731
-136.067
-173.661
-47.5742
-70.1233
-92.0596
-32.2116
-46.582
-62.9394
-45.3578
-59.4187
-69.711
-39.1063
-53.7281
-62.3702
-41.5883
-55.3257
-62.7649
-38.9731
-52.8903
-61.5271
-39.8042
-53.7133
-61.1892
-34.526
-54.8932
-60.3992
-37.963
-56.8858
-60.3546
-43.0291
-58.6488
-61.8102
-9.20683
-58.0491
-73.2402
)
;
    }
    water_back_surface
    {
        type            calculated;
        value           nonuniform List<scalar> 
186
(
16686.8
15557.3
13431.8
10750.6
8548.91
6888.4
5952.17
5699.57
5815.51
6037.23
6441.32
6596.61
10341.1
7492.11
4878.05
2672.27
1455.83
904.732
644.045
681.405
1016.72
1232.51
1436.93
1519.56
4490.36
1132.06
472.695
7.42177
-37.2634
59.6546
175.058
171.015
175.807
156.601
248.37
249.755
1520.43
-89.0424
-37.3038
-71.8535
-66.1899
-22.7987
43.5669
29.6282
13.3922
8.2559
18.6511
-75.8679
2276.81
1755.17
1281.27
780.13
490.583
409.779
339.379
289.915
314.287
400.076
824.183
969.818
1212.81
386.685
56.0059
-39.1566
-44.4334
-29.0904
-10.6522
-1.38267
-13.7441
-7.81718
71.5881
324.421
440.87
24.1941
-13.2695
-23.1007
-16.3614
-23.9144
-22.8028
-23.6378
-22.8504
-28.7994
-11.6658
-27.0579
147.453
-29.5116
-15.5565
-37.2666
-34.637
-41.717
-35.7143
-33.8862
-30.9739
-34.2749
-28.9672
-110.101
1769.01
524.655
-243.306
-44.594
-77.2945
-185.428
-48.4216
-41.3841
-64.1355
-92.1491
-83.5553
-76.2146
-85.2553
-84.729
-88.7533
-58.7675
-76.0304
-120.955
-31.0851
-46.6937
-97.2626
-26.557
-50.4681
-80.3254
-24.0523
-44.2755
-66.2944
-23.0854
-46.7029
-64.5732
-36.9336
-53.3719
-65.6569
13.1267
-50.5596
-72.1582
232.737
-47.6068
-72.0541
265.038
-50.9408
-70.3118
273.671
-49.6762
-69.473
272.547
-50.2297
-69.4115
266.048
-49.5945
-70.3616
225.326
-47.482
-72.5883
118.559
-120.934
-160.468
-47.9538
-61.4676
-81.7721
-34.3078
-46.3331
-62.448
-45.6114
-58.4595
-69.5195
-38.5173
-53.5617
-62.1488
-41.0457
-55.4486
-62.8196
-39.4356
-53.1906
-61.5826
-39.7489
-53.9684
-61.241
-37.0323
-54.6803
-60.4565
-39.0535
-56.9427
-60.4842
-45.3935
-58.1007
-62.4308
-12.0856
-56.5435
-72.4594
)
;
    }
    water_left_surface
    {
        type            calculated;
        value           nonuniform List<scalar> 
42
(
16698.3
16698.2
16698.2
16698.3
16698.3
16698.3
10353.7
10353.7
10353.7
10353.7
10353.7
10353.7
4502.8
4502.75
4502.79
4502.6
4502.58
4502.71
1533.5
1532.76
1532.75
1533.08
1532.9
1532.54
1767.11
1770.82
1769.9
1769.36
1769.78
1769.01
524.284
528.351
524.467
525.678
525.767
524.655
-242.359
-242.403
-242.811
-242.783
-242.932
-243.306
)
;
    }
    water_right_surface
    {
        type            calculated;
        value           nonuniform List<scalar> 
42
(
2265.5
2329.58
2287.68
2357.12
2361.14
2278.37
1250
1332.18
1261.34
1343.96
1242.65
1214.34
505.583
435.225
474.487
416.981
345.005
442.371
202.565
192.118
181.815
186.027
97.0139
148.924
154.731
149.083
129.786
159.44
81.0726
118.559
-136.067
90.6691
-23.1659
-4.48131
16.6396
-120.934
-173.661
-146.303
-161.642
-154.032
-118.212
-160.468
)
;
    }
    water_top_surface
    {
        type            calculated;
        value           nonuniform List<scalar> 
180
(
-411.859
-408.028
-410.216
-411.719
-411.092
-412.314
-408.829
-401.438
-405.545
-405.612
-404.502
-406.797
-69.8542
-68.9166
-69.3613
-69.2731
-69.0246
-69.7929
-68.7543
-68.807
-68.7741
-69.0277
-69.3184
-68.7488
-110.365
-108.144
-106.482
-113.442
-118.361
-104.843
-146.121
-145.324
-143.218
-141.839
-141.906
-141.1
-77.4616
-76.8445
-76.5577
-77.9499
-79.6617
-74.9784
-87.7968
-88.0815
-88.0683
-87.8864
-87.8761
-88.0762
-76.1709
-76.2013
-76.2079
-76.1501
-76.1383
-76.2021
-72.8252
-72.8236
-72.8302
-72.8153
-72.8395
-72.8088
-73.0233
-73.0244
-73.0276
-73.0206
-73.0369
-73.0119
-71.1964
-71.2113
-71.2121
-71.2083
-71.2083
-71.2099
-69.0339
-69.012
-68.9987
-69.0488
-69.1244
-69.0513
-70.4674
-70.5025
-70.5275
-70.5281
-70.5361
-70.4795
-69.9896
-69.978
-69.9617
-69.947
-69.9354
-69.9381
-70.2757
-70.2824
-70.2849
-70.2834
-70.2864
-70.2765
-70.6489
-70.6543
-70.6544
-70.652
-70.6562
-70.6487
-69.8739
-69.8683
-69.867
-69.8665
-69.8668
-69.8613
-2314.73
-158.526
-282.33
-254.264
-99.6571
-2691.11
-68.6701
-156.874
-209.84
-163.886
-99.4355
-73.9314
-68.67
-68.6701
-68.6701
-68.6701
-68.6726
-68.67
-71.8299
-71.9795
-72.1285
-72.2736
-72.1229
-72.4212
-68.79
-68.791
-68.8024
-68.7917
-68.7997
-68.7912
-69.1071
-69.0966
-69.1197
-69.1638
-69.1907
-69.164
-68.67
-68.67
-68.67
-68.67
-68.67
-68.67
-68.67
-68.67
-68.67
-68.67
-68.67
-68.671
-68.67
-68.6741
-68.6825
-68.6914
-68.7003
-68.7022
-69.0025
-69.0462
-69.0816
-69.093
-69.1487
-69.116
-70.0032
-70.0965
-70.2051
-70.2929
-70.5408
-70.2848
-70.6892
-70.5014
-70.0247
-70.1427
-70.359
-70.5072
)
;
    }
}


// ************************************************************************* //
