/*--------------------------------*- C++ -*----------------------------------*\
| =========                 |                                                 |
| \\      /  F ield         | OpenFOAM: The Open Source CFD Toolbox           |
|  \\    /   O peration     | Version:  v1612+                                |
|   \\  /    A nd           | Web:      www.OpenFOAM.com                      |
|    \\/     M anipulation  |                                                 |
\*---------------------------------------------------------------------------*/
FoamFile
{
    version     2.0;
    format      ascii;
    class       volVectorField;
    location    "6.85";
    object      U;
}
// * * * * * * * * * * * * * * * * * * * * * * * * * * * * * * * * * * * * * //

dimensions      [0 1 -1 0 0 0 0];

internalField   nonuniform List<vector> 
1116
(
(-0.171558 -0.00016518 -0.0192531)
(-0.171968 -5.84541e-05 -0.0191439)
(-0.171771 9.93941e-05 -0.019199)
(-0.171668 -4.7549e-05 -0.0192341)
(-0.171804 2.91369e-05 -0.0192095)
(-0.171667 7.13235e-05 -0.0192266)
(-0.397792 -3.28923e-05 0.169097)
(-0.398226 1.27818e-05 0.168946)
(-0.397963 3.27072e-06 0.169023)
(-0.397894 -3.26048e-05 0.169066)
(-0.398052 3.37491e-06 0.168987)
(-0.397909 4.92454e-06 0.16907)
(-0.496425 0.00014526 0.320073)
(-0.49668 0.000103735 0.32039)
(-0.496433 -0.000123215 0.320287)
(-0.496544 -3.30764e-05 0.320199)
(-0.496614 -4.29623e-06 0.320188)
(-0.496461 -4.12588e-05 0.320225)
(-1.00274 7.45131e-05 0.349711)
(-1.00323 6.79183e-05 0.349882)
(-1.00286 -4.97892e-05 0.349821)
(-1.00303 1.55365e-05 0.349856)
(-1.00309 -6.09979e-06 0.34985)
(-1.00276 -7.15795e-05 0.349756)
(-1.54584 -0.000580519 0.16366)
(-1.54716 -0.000366607 0.163545)
(-1.54653 0.000439672 0.163465)
(-1.54644 0.00042025 0.163889)
(-1.54668 -0.000283114 0.163939)
(-1.54612 -0.000499694 0.163355)
(-1.80823 -0.00104744 -0.0159332)
(-1.81216 -0.000847897 -0.0164868)
(-1.81083 0.000891962 -0.0164417)
(-1.80965 0.00106789 -0.0156814)
(-1.80971 -0.000841464 -0.0154152)
(-1.81032 -0.00133735 -0.016745)
(-1.8664 0.000407793 -0.229004)
(-1.87661 -0.000336322 -0.230362)
(-1.87408 0.00022643 -0.229875)
(-1.86956 -1.46747e-05 -0.229119)
(-1.86582 -9.46994e-05 -0.227922)
(-1.87602 0.000185421 -0.231206)
(-1.74291 0.00316347 -0.484255)
(-1.75035 0.00110358 -0.485623)
(-1.74896 -0.00150414 -0.48469)
(-1.74491 -0.00290192 -0.484981)
(-1.74215 0.00237079 -0.482848)
(-1.75068 0.0043864 -0.486951)
(-1.53459 0.00212708 -0.719573)
(-1.52957 0.00099834 -0.72035)
(-1.531 -0.00131669 -0.719262)
(-1.53418 -0.00261175 -0.720794)
(-1.53831 0.00200822 -0.718479)
(-1.52653 0.00261821 -0.7214)
(-1.17759 -0.00325508 -0.777916)
(-1.16571 -0.001396 -0.775997)
(-1.16916 0.00195395 -0.775342)
(-1.17508 0.00320679 -0.77893)
(-1.18459 -0.00381808 -0.780002)
(-1.15966 -0.00805335 -0.77372)
(-0.538466 0.000534247 -0.630201)
(-0.544733 0.000763021 -0.624688)
(-0.544815 -0.000657854 -0.624921)
(-0.53708 -0.00147843 -0.630316)
(-0.532759 0.0020033 -0.635139)
(-0.552594 0.00354977 -0.618663)
(-0.19602 0.00632419 -0.164644)
(-0.19276 0.00391851 -0.148259)
(-0.193406 -0.00547379 -0.150722)
(-0.19613 -0.0102387 -0.16302)
(-0.200141 0.00839134 -0.176929)
(-0.191695 0.0159208 -0.142319)
(-0.377057 -0.000277276 0.539926)
(-0.377521 -0.000126951 0.539688)
(-0.377288 0.000137529 0.539816)
(-0.377262 -5.97188e-05 0.53983)
(-0.377389 5.61826e-05 0.539738)
(-0.377192 0.000110892 0.539883)
(-0.704383 -2.44182e-05 0.218273)
(-0.704781 -5.56944e-05 0.218111)
(-0.704541 1.13026e-05 0.218179)
(-0.7046 3.36406e-05 0.218282)
(-0.704694 -3.91628e-05 0.218196)
(-0.704492 -2.31786e-05 0.218182)
(-0.46444 0.000383171 0.277785)
(-0.465698 0.000187371 0.278259)
(-0.465182 -0.000247608 0.278057)
(-0.465022 -4.03562e-05 0.278041)
(-0.465417 5.22269e-05 0.278175)
(-0.464858 1.62085e-05 0.277766)
(-0.104879 -4.47547e-05 0.682254)
(-0.10534 2.52771e-05 0.683731)
(-0.105108 -7.47788e-05 0.683206)
(-0.105348 -0.00021012 0.68287)
(-0.105687 0.000240338 0.68328)
(-0.104693 0.000288273 0.682571)
(0.277589 0.000521676 0.499743)
(0.273947 0.000183256 0.499077)
(0.275896 -0.000608453 0.499218)
(0.27567 -7.34935e-05 0.499868)
(0.274107 -2.53143e-05 0.499966)
(0.278052 -0.000230272 0.49906)
(0.916623 0.00275049 0.235797)
(0.912881 0.00175431 0.235168)
(0.91465 -0.00192918 0.235014)
(0.914154 -0.00214562 0.235841)
(0.915654 0.00196718 0.235423)
(0.914973 0.00338449 0.235346)
(1.90826 -0.00402733 0.0347185)
(1.94287 -0.00342293 0.042172)
(1.93611 0.00345226 0.0401237)
(1.91873 0.00702174 0.0371896)
(1.89194 -0.00427482 0.0306059)
(1.94579 -0.00744149 0.0448547)
(1.94787 -0.00159141 0.012495)
(1.99783 0.000634329 0.0169573)
(1.98467 -0.0013301 0.0164819)
(1.95921 -0.00327053 0.0128324)
(1.92729 0.00458805 0.00812151)
(2.00781 0.00771535 0.0205055)
(1.43273 -0.00834852 0.09737)
(1.4675 -0.000754848 0.101978)
(1.46242 -0.000199081 0.101545)
(1.43447 -0.00371855 0.0973091)
(1.40455 0.0023132 0.0933831)
(1.4836 0.00515446 0.104206)
(0.423689 -0.0222188 -0.0684291)
(0.415014 -0.00698257 -0.0850436)
(0.426068 0.00953646 -0.0805037)
(0.414516 0.0237448 -0.0707449)
(0.40687 -0.0251754 -0.0568427)
(0.430034 -0.0431415 -0.0942399)
(0.998251 -0.0168825 -0.245676)
(0.930352 -0.00303567 -0.235353)
(0.941545 0.00952592 -0.23975)
(0.991399 0.0281284 -0.242193)
(1.03667 -0.0193798 -0.250367)
(0.878674 -0.0327907 -0.229126)
(0.244375 0.022417 -0.371108)
(0.0959182 0.0150801 -0.344249)
(0.116882 -0.0176037 -0.347067)
(0.232917 -0.0245198 -0.370913)
(0.339771 0.0213662 -0.393248)
(0.0516264 0.0537391 -0.332336)
(-0.489578 4.60033e-05 0.735823)
(-0.490204 2.58876e-05 0.734979)
(-0.48987 -5.97797e-06 0.735287)
(-0.489912 5.96769e-06 0.735482)
(-0.49007 -4.12589e-05 0.735228)
(-0.489719 -2.5015e-05 0.735564)
(1.05684 0.000571462 0.214508)
(1.05697 0.000264388 0.214362)
(1.05675 -0.000335922 0.214367)
(1.05697 -0.000136184 0.214563)
(1.05707 2.82256e-05 0.214598)
(1.05667 0.000126245 0.21435)
(3.4742 0.000516153 -0.294288)
(3.47836 0.000440533 -0.290999)
(3.47648 -0.000151081 -0.292188)
(3.47581 7.44292e-05 -0.293234)
(3.47592 -0.000109195 -0.292308)
(3.47599 -8.81642e-05 -0.29304)
(6.79571 0.00721836 -0.269541)
(6.7955 0.00391103 -0.269424)
(6.79503 -0.00437595 -0.269137)
(6.79801 -0.000639925 -0.269868)
(6.80079 -0.000830602 -0.269448)
(6.79274 -0.00125631 -0.269909)
(8.87248 0.0457809 -0.469197)
(8.86578 0.0236873 -0.472214)
(8.86089 -0.023273 -0.472705)
(8.86544 5.01154e-05 -0.470135)
(8.85547 -0.00259832 -0.468108)
(8.87334 0.000411993 -0.475895)
(7.422 0.215749 -0.599972)
(7.74294 0.152497 -0.607878)
(7.60247 -0.138265 -0.60341)
(7.57537 -0.197938 -0.603714)
(7.50523 0.183244 -0.593193)
(7.63629 0.320693 -0.603434)
(-3.33222 0.00853452 -0.114992)
(-1.07669 0.0916906 -0.177973)
(-1.50735 -0.0432164 -0.160138)
(-2.77454 -0.058617 -0.131191)
(-4.31377 0.103565 -0.0824147)
(-0.444595 0.289529 -0.179133)
(-3.9737 -0.19147 0.607798)
(-3.86927 -0.0988831 0.638246)
(-3.89563 0.116824 0.648413)
(-3.9878 0.177993 0.599999)
(-4.15377 -0.10336 0.556384)
(-3.67941 -0.232613 0.683238)
(-3.03423 -0.0462258 0.625853)
(-3.10008 -0.0108719 0.63463)
(-3.07646 0.0128983 0.633932)
(-3.05809 0.0433756 0.618624)
(-3.165 -0.0488236 0.579196)
(-2.9823 -0.0816336 0.662002)
(-2.78907 -0.0101545 -0.573658)
(-2.87898 -0.00434323 -0.600975)
(-2.86281 0.00762089 -0.612265)
(-2.80107 0.0386225 -0.560931)
(-2.81709 -0.0377305 -0.546625)
(-2.849 -0.054033 -0.622725)
(-1.79726 -0.00897163 -0.749182)
(-1.80577 -0.00983709 -0.669091)
(-1.81211 0.0170293 -0.702855)
(-1.80419 0.0355538 -0.720121)
(-1.85646 -0.0230734 -0.793084)
(-1.78272 -0.0272301 -0.65152)
(0.323042 0.0320748 1.24193)
(0.144549 0.00455239 1.1962)
(0.179035 -0.00454371 1.21146)
(0.294401 -0.00930759 1.2414)
(0.423208 -0.00157472 1.29099)
(0.144975 0.0345904 1.17974)
(-1.64736 0.000165107 -0.0740017)
(-1.64816 0.000101361 -0.0735348)
(-1.64775 -3.98362e-05 -0.0736348)
(-1.64785 4.11016e-05 -0.0736728)
(-1.64806 -4.77624e-05 -0.0737275)
(-1.64756 -6.08534e-05 -0.0737541)
(1.65605 -0.000253529 -2.23189)
(1.65649 -0.000366004 -2.23335)
(1.65632 0.000508804 -2.23257)
(1.65642 0.000346652 -2.2327)
(1.65645 -0.000540696 -2.23277)
(1.65644 -0.000327712 -2.23285)
(-1.9579 -0.0493405 -6.41262)
(-1.95235 -0.00509969 -6.3707)
(-1.95898 0.0268326 -6.39301)
(-1.95356 0.0132603 -6.40237)
(-1.95675 -0.0125184 -6.41017)
(-1.95724 -0.0287478 -6.38971)
(2.99868 0.010786 -3.91869)
(2.6006 -0.00978564 -3.77744)
(2.78017 -0.0202582 -3.83468)
(2.89561 0.0247271 -3.86264)
(2.89176 -0.0534615 -3.87179)
(2.79021 -0.0412188 -3.83238)
(-2.44421 0.208156 1.51954)
(-2.75478 0.125451 1.57303)
(-2.69307 -0.0995629 1.51361)
(-2.57994 -0.0630525 1.54878)
(-2.53893 0.0587884 1.65007)
(-2.71651 0.155143 1.42099)
(-2.15595 0.151734 7.09602)
(-1.3854 0.122893 7.33677)
(-1.4997 -0.0810954 7.29064)
(-1.9209 -0.114668 7.19162)
(-2.34991 0.150165 7.10804)
(-1.19482 0.290342 7.3752)
(-7.41704 -0.0447087 4.35691)
(-7.00583 -0.0212383 4.74798)
(-7.06222 0.018683 4.76406)
(-7.35346 0.0364332 4.4095)
(-7.67879 -0.0131499 4.09094)
(-6.67059 0.00146385 5.10315)
(-6.63264 -0.0433355 0.748082)
(-6.70077 -0.0462183 0.969323)
(-6.69459 0.0321345 0.974147)
(-6.66891 0.0628084 0.778139)
(-6.74417 -0.067748 0.584749)
(-6.59176 -0.108399 1.17916)
(-5.23252 0.010596 -1.28834)
(-5.2559 -0.0103327 -1.29345)
(-5.26084 8.32434e-05 -1.31172)
(-5.25146 0.00662564 -1.29446)
(-5.24448 -0.0193219 -1.33078)
(-5.2706 -0.0166082 -1.26933)
(-4.54533 0.0156032 -1.05538)
(-4.55432 0.0013949 -1.18311)
(-4.54148 -0.00637641 -1.19813)
(-4.55822 -0.0252293 -1.01789)
(-4.55255 0.0226558 -0.893983)
(-4.52371 0.0391688 -1.29736)
(-4.30583 0.00139245 -3.26344)
(-4.34232 -0.00661132 -3.31849)
(-4.32914 0.0013323 -3.30996)
(-4.32655 0.000549899 -3.26808)
(-4.32632 -0.00457105 -3.25659)
(-4.32901 -0.00131176 -3.31886)
(-2.57989 0.0134469 -2.02171)
(-2.65022 0.00354172 -2.05543)
(-2.62349 -0.0084149 -2.0425)
(-2.60443 -0.0103073 -2.03279)
(-2.56011 0.00526857 -2.00787)
(-2.64468 0.0170067 -2.04321)
(-0.191096 -0.840638 0.32305)
(1.38754 0.00197711 -0.258744)
(-0.156846 -0.0448087 0.29449)
(1.22817 -0.359951 -0.105398)
(2.27141 0.241491 -0.196502)
(0.083448 0.936405 0.444352)
(1.10281 0.0724499 0.0223608)
(3.47023 -0.018958 -1.16102)
(2.2 -0.186276 -0.799)
(2.66572 0.262841 -0.586598)
(3.84783 -0.414836 -0.4428)
(0.282847 0.112603 0.156335)
(4.07364 0.480954 -1.0482)
(4.45521 0.124597 -1.46675)
(4.73824 -0.469546 -2.2882)
(4.25712 -0.219722 -1.07657)
(5.56857 -0.988882 -1.07375)
(3.69064 -0.432381 -1.38531)
(5.879 -0.017866 -1.41043)
(6.36652 0.0488168 -1.82195)
(6.61597 -0.295843 -2.98686)
(5.57065 0.0165219 -1.0371)
(6.5521 -0.598383 -1.02626)
(5.78696 -0.338736 -2.23848)
(6.56096 -0.520866 -1.40508)
(7.75784 -0.017707 -2.80907)
(7.4724 -0.22429 -3.41679)
(7.23154 0.232916 -2.16926)
(6.6593 0.00481371 -0.698497)
(6.40696 -0.121578 -2.23073)
(6.55631 -0.484162 -1.66692)
(7.28186 0.168276 -2.92949)
(7.14654 -0.162453 -3.46547)
(6.93209 0.16241 -2.49859)
(6.39728 0.137335 -0.746158)
(6.136 0.0542771 -2.04382)
(5.89241 -0.24693 -1.75488)
(6.56306 0.296918 -2.7231)
(6.66304 -0.148005 -3.4074)
(6.2628 0.169049 -2.40769)
(5.80031 0.151451 -0.684947)
(5.74137 0.187897 -1.84006)
(5.228 -0.134977 -1.71767)
(6.09303 0.192475 -2.55623)
(6.27256 -0.181217 -3.36863)
(5.86229 0.240794 -2.29134)
(5.3559 0.225249 -0.682248)
(5.64672 0.369424 -1.65866)
(4.94931 -0.206652 -1.54476)
(5.65228 -0.0566217 -2.44118)
(5.89448 -0.315229 -3.37928)
(5.52768 0.21063 -2.26419)
(4.93348 0.399181 -0.763353)
(5.92305 0.471163 -1.82941)
(4.40732 -0.298451 -1.09427)
(4.95654 -0.145512 -2.25521)
(5.30241 -0.368967 -3.30312)
(4.68465 0.183307 -2.21486)
(4.0021 0.442856 -0.890307)
(5.65533 0.302494 -2.28262)
(2.71927 -0.276102 -0.499998)
(3.3309 -0.092733 -1.87296)
(4.02559 -0.271192 -3.02015)
(3.05155 0.177736 -1.97507)
(2.06737 0.206956 -0.773295)
(3.38517 -0.00447042 -1.78509)
(-0.849563 -0.356456 1.18824)
(0.467248 -0.275133 -0.459805)
(1.92461 -0.127591 -2.10192)
(0.537385 0.0378429 -0.885159)
(-0.964049 0.220539 0.134859)
(-0.854701 -0.0462773 1.07958)
(-0.935012 -1.06644 2.2472)
(1.79891 0.114264 2.65613)
(-0.599279 -0.179898 2.40066)
(2.26485 -0.24116 2.86899)
(3.75054 -0.0948323 2.84031)
(-0.0906652 1.19112 2.20016)
(1.61797 0.175581 3.1408)
(5.53696 0.341302 4.2757)
(3.18123 -0.268 3.66106)
(4.69994 0.34795 3.60929)
(5.3027 -0.885139 3.3749)
(0.274077 -0.273013 2.56036)
(5.04546 0.50274 2.90921)
(6.67173 0.391845 5.14107)
(5.85611 -0.536147 4.36627)
(6.52668 -0.0483072 4.1005)
(7.29961 -0.379568 2.7832)
(4.59216 -0.105529 2.63694)
(5.22397 0.17933 2.72926)
(6.18954 0.888662 5.79527)
(5.30135 -0.279769 4.3606)
(6.3344 0.166962 4.76521)
(6.58751 0.149783 2.13794)
(2.931 0.556699 2.38317)
(4.17554 0.271326 2.27242)
(2.5835 0.929846 1.8359)
(1.08654 -0.168531 2.64012)
(3.99458 0.274941 1.82739)
(3.76941 -0.349429 1.05979)
(-2.98857 0.141286 1.46584)
(1.58174 -0.335583 1.38701)
(-2.04442 -0.344687 -0.251537)
(-1.57374 -0.588975 1.80766)
(-1.92516 -0.280144 -0.274236)
(-3.46948 -1.35526 -0.376932)
(-5.02833 -0.474097 1.37051)
(-3.56181 -1.0211 -0.161339)
(-4.02522 -1.29216 0.969177)
(-3.05707 -2.11313 2.22884)
(-4.52224 -2.53051 -0.048392)
(-5.34265 -2.43896 -0.43561)
(-2.47769 -0.775842 1.78888)
(-6.1385 -0.805335 0.330835)
(-1.15549 0.130289 1.55956)
(-2.32699 -1.3088 2.03095)
(-4.53233 -2.39721 0.596773)
(0.0061499 -2.18663 -0.0536127)
(6.28348 0.0789549 2.45847)
(-0.56902 0.519808 1.4043)
(1.92526 1.34326 1.53198)
(0.570927 -0.904079 1.81651)
(-0.604104 -0.388799 -0.0626033)
(0.315817 -0.152095 -1.28396)
(7.80802 1.01398 2.86952)
(5.27527 0.140488 0.323232)
(3.0804 0.607481 0.154917)
(2.48666 -1.62685 1.52861)
(3.12604 -1.21177 -2.07862)
(3.90552 0.131239 -3.16469)
(7.43072 1.77505 2.14914)
(3.34977 0.271657 -4.21848)
(2.42371 0.911907 -3.70939)
(2.66993 -0.725517 -1.99363)
(3.40113 -0.930519 -4.01467)
(3.42 -0.197362 -4.01206)
(3.31227 0.727709 -4.88521)
(2.29997 0.204434 -1.99869)
(3.55403 0.622805 -3.21188)
(4.01437 0.208797 -3.63711)
(2.47654 -0.501253 -2.39933)
(0.829075 -0.519298 -0.998503)
(2.95344 -0.0177338 -3.01895)
(-0.896014 -0.472385 3.04364)
(0.871298 0.0188219 3.5026)
(-0.338689 -0.423994 3.37348)
(2.20764 0.105983 4.62479)
(3.56287 -0.497292 4.77856)
(-0.190967 0.798718 2.73387)
(0.113269 -0.0399162 5.01315)
(-1.22759 0.401766 7.7916)
(1.01945 -0.0931712 6.14112)
(-2.0348 0.757743 6.97409)
(-0.991197 -1.03085 6.00669)
(-0.483669 -0.371471 2.83226)
(1.85155 -0.688217 4.09811)
(2.55198 0.054313 4.12175)
(3.00938 0.048181 5.41757)
(2.39898 -0.237816 3.05855)
(1.72099 0.868439 1.72202)
(1.90061 0.366245 2.4611)
(-3.1624 -0.461367 -3.34866)
(-2.28813 0.200799 -1.74829)
(-3.07666 0.214879 -4.47993)
(-2.73933 -0.0404113 -3.04028)
(-3.10058 0.67587 -4.19186)
(-3.40716 0.307985 -5.43871)
(-0.885475 0.207649 -5.80392)
(-1.8012 0.153093 -6.64731)
(-1.58427 0.182147 -7.1604)
(-1.49004 0.132926 -7.07117)
(-1.06885 0.231785 -7.3087)
(-0.0797376 0.0987153 -7.12291)
(-0.365492 0.182179 -5.85999)
(-0.514008 -0.0557405 -5.96404)
(-0.767132 -0.0406701 -6.13594)
(-0.316183 0.0340194 -6.30658)
(0.692632 -0.188379 -5.44545)
(-0.262439 0.14978 -4.15885)
(-0.407912 -0.686704 -2.60355)
(-0.18092 -0.0991047 -0.055669)
(-1.10784 -0.34355 1.17292)
(-0.236287 0.65781 -2.25832)
(1.16133 -1.01254 -1.37317)
(-0.437426 -0.327245 2.39707)
(-1.00507 -0.975007 2.41433)
(2.3757 0.184054 4.02957)
(1.49772 -0.363189 4.36145)
(-1.31494 0.115334 2.46385)
(-0.301086 -1.11981 1.26287)
(2.73338 -0.231113 3.36082)
(-0.808634 0.199025 3.34703)
(3.00366 0.8062 4.10538)
(2.1888 -0.733077 3.30677)
(-1.03656 0.432582 1.87446)
(-1.57433 -0.484642 0.335333)
(2.11757 0.280613 1.08188)
(1.0603 0.658584 2.38418)
(1.70281 -0.00049755 3.46255)
(0.995153 -1.69349 2.32451)
(-0.748703 -1.22265 0.00848201)
(0.00888483 -0.309256 -1.93596)
(1.47764 0.629395 -1.10367)
(-0.352275 -0.252727 -6.29738)
(-7.54236 -0.338322 -0.0265918)
(-6.78001 -1.02553 2.641)
(-1.39641 0.0111523 -4.67941)
(4.06616 0.1482 -7.14517)
(-4.20305 0.816032 -4.65491)
(5.0397 -0.0384292 -4.89043)
(5.5658 -0.327286 -4.78806)
(4.13845 0.725591 -3.36287)
(5.08387 0.630189 -4.08449)
(3.09151 -0.0231613 -3.84949)
(4.92295 0.0039557 -4.37002)
(0.421396 -0.195162 2.4574)
(1.23827 -0.022371 3.05973)
(0.883159 -0.512159 2.85052)
(2.90629 0.0179583 3.78936)
(3.81461 -0.414378 4.38894)
(0.456466 0.585903 2.19771)
(-1.59888 -0.318511 4.80692)
(-2.04146 0.212666 7.61823)
(-1.39035 -0.165949 5.86234)
(-3.4791 0.749868 7.6239)
(-3.86554 -0.588705 6.11534)
(-1.14817 0.146237 1.18488)
(0.941917 -0.355107 2.61693)
(1.55504 -0.0490023 -0.849197)
(1.72511 0.0680337 1.13386)
(2.32561 0.882279 -0.843921)
(3.02896 0.875855 -1.59336)
(1.96241 0.449413 2.14383)
(-2.57644 -0.00787753 -1.19292)
(-2.93623 0.282327 -1.80558)
(-2.85303 0.462915 -1.4598)
(-2.78479 0.389868 -1.68523)
(-2.83055 0.362849 -2.16607)
(-2.87887 0.15367 -0.94968)
(0.415971 0.0508922 -0.211442)
(0.321105 0.195397 -0.074703)
(0.510977 0.137374 0.0118853)
(0.854511 -0.0740712 0.0286358)
(1.23928 -0.0919425 -0.0247108)
(1.05057 -0.0172724 0.232911)
(1.0777 -0.00820829 -0.660789)
(1.02347 0.200487 0.232708)
(0.704596 -0.102383 0.00433832)
(1.09379 -0.164482 -0.815675)
(1.71603 -0.508127 -0.435612)
(1.64076 -0.150806 0.761323)
(2.34378 -0.563117 1.33412)
(2.07957 -0.224832 2.63729)
(1.36112 0.0370591 2.97313)
(1.67781 0.852308 1.25966)
(2.52024 -0.575278 0.0118914)
(2.39334 -0.21962 2.21624)
(1.29867 -0.68718 2.58421)
(2.97341 0.0746722 4.297)
(3.06357 0.0244471 4.43156)
(0.909779 0.74783 2.73166)
(0.322781 0.0297579 -1.14892)
(1.44411 -0.0365958 1.29764)
(-1.51931 -0.286457 1.42428)
(1.11355 0.292415 1.92234)
(1.43227 -0.0251267 0.504181)
(-0.874 0.531836 -0.144334)
(-0.524156 0.172426 -1.63306)
(-0.850297 0.114677 -1.1848)
(-0.670767 0.0538257 -2.00841)
(1.45105 0.397838 -2.96324)
(2.85112 0.00958439 -3.39523)
(0.279856 -0.310172 -2.80905)
(0.144385 0.208414 -3.1927)
(0.319784 0.434214 -2.45908)
(-5.43822 -0.412377 -1.64438)
(-4.72794 -0.531145 -2.06183)
(-4.91852 0.260681 -1.98144)
(-2.04623 0.911167 -2.57429)
(3.31437 0.194722 -5.30514)
(-3.8653 0.18548 -2.45327)
(5.27107 0.012025 -2.77883)
(5.10411 -0.0218679 -2.44684)
(5.03197 0.437065 -2.69781)
(4.95416 1.07839 -2.87473)
(4.37569 0.134274 -4.13768)
(4.49015 -0.590022 -2.38446)
(-2.81107 -0.000869615 0.0994294)
(-2.8108 -0.000739573 0.100412)
(-2.81072 0.000300385 0.100033)
(-2.81094 2.12779e-05 0.0999922)
(-2.81085 5.65758e-05 0.100258)
(-2.81097 0.000228084 0.0997613)
(-3.3755 -0.00343462 -0.638472)
(-3.37303 -0.000998702 -0.645118)
(-3.37387 0.00225957 -0.643497)
(-3.37461 -0.000197106 -0.641664)
(-3.37412 0.000223073 -0.643033)
(-3.37477 0.000285399 -0.641319)
(-3.29364 -0.0191603 0.311092)
(-3.29891 -0.00616358 0.285715)
(-3.2962 0.0105752 0.301702)
(-3.29753 -0.00202757 0.304211)
(-3.29758 0.0080237 0.300954)
(-3.2941 0.00734414 0.302804)
(3.00123 -0.00604936 0.555881)
(3.00107 -0.00268319 0.54969)
(3.00104 0.00389537 0.55279)
(3.00143 0.00177411 0.552967)
(3.00155 -0.00173433 0.553218)
(3.0009 -0.00313404 0.552352)
(3.53192 -0.013817 1.39935)
(3.53386 -0.00585693 1.39432)
(3.53234 0.00660043 1.39928)
(3.53298 -0.00154669 1.39641)
(3.53291 0.00155527 1.39798)
(3.53246 0.00172397 1.40127)
(0.291434 -0.0690763 7.57288)
(0.20776 -0.0304997 7.55345)
(0.254713 0.0314588 7.56104)
(0.252818 -0.0162432 7.56704)
(0.235546 0.0282835 7.56689)
(0.273389 0.0372179 7.56058)
(-4.27531 -0.00665495 -4.08978)
(-4.31154 0.00846718 -3.87126)
(-4.30317 -0.00613947 -3.99422)
(-4.28331 -0.00987164 -3.99016)
(-4.28176 -0.00558186 -3.94511)
(-4.30913 0.000700071 -4.05083)
(-7.9573 -0.0030468 -2.27999)
(-8.0242 0.0124085 -1.87574)
(-7.98805 -0.0114593 -2.10663)
(-7.98377 -0.0223741 -2.06972)
(-8.00218 0.00373848 -1.97291)
(-7.98587 0.0222884 -2.22866)
(-9.45007 -0.0317305 -1.53846)
(-10.1364 -0.0144369 -0.701845)
(-9.73985 0.000239802 -1.17538)
(-9.7762 -0.0186957 -1.09774)
(-9.97749 0.0201058 -0.841563)
(-9.53138 0.0372034 -1.4981)
(-2.04648 0.096228 -0.326426)
(-2.43195 0.0404906 0.113367)
(-2.19572 -0.0426744 -0.134601)
(-2.26804 -0.00641857 -0.0848331)
(-2.41003 -0.0111991 0.0461576)
(-2.07998 0.0454729 -0.294951)
(-5.0338 0.139994 1.74083)
(-5.53262 0.0771072 2.29855)
(-5.18188 -0.0606768 2.00117)
(-5.36482 0.00663887 2.05658)
(-5.60903 -0.040527 2.15786)
(-4.94404 -0.00644617 1.84786)
(-3.85925 0.110578 3.56485)
(-4.85571 0.059679 4.7489)
(-4.31264 -0.0538549 4.15248)
(-4.42636 0.0291136 4.25204)
(-4.8151 -0.0632699 4.63689)
(-3.858 -0.0611087 3.61918)
(-7.43383 0.150349 5.3354)
(-7.43737 0.0824126 5.64707)
(-7.34632 -0.0668863 5.51908)
(-7.51636 -0.043428 5.50448)
(-7.68477 0.0377425 5.5371)
(-7.21434 0.142592 5.46814)
(-10.4302 0.0706116 7.28912)
(-10.3747 0.0375007 7.646)
(-10.2918 -0.0222307 7.50158)
(-10.4865 0.0230365 7.4668)
(-10.6658 -0.016488 7.37849)
(-10.126 0.020704 7.51114)
(-8.90067 0.104144 8.8946)
(-9.22743 0.0502052 9.33262)
(-9.01587 -0.0171393 9.19047)
(-9.14132 0.0967808 9.10681)
(-9.43721 -0.0971858 9.17185)
(-8.70374 -0.142725 9.11885)
(-7.99123 0.0239649 8.23035)
(-7.58225 0.0294531 8.75223)
(-7.62964 -0.0182483 8.7041)
(-7.94441 -0.0140613 8.3612)
(-8.26206 0.0327355 8.07766)
(-7.39653 0.0856518 9.01434)
(-10.0503 -0.0606172 7.71436)
(-9.9972 -0.0417411 8.32595)
(-10.0238 0.0162973 8.34858)
(-10.0356 0.0312783 7.77795)
(-10.1776 -0.0279839 7.41398)
(-9.83947 -0.0417422 8.64972)
(-8.59713 -0.0434263 5.51071)
(-8.59874 -0.0504495 5.59752)
(-8.62258 0.0276186 5.67853)
(-8.55555 0.0994898 5.32899)
(-8.63014 -0.0831952 5.06566)
(-8.51374 -0.142951 6.07784)
(-8.70468 -0.0646344 4.4349)
(-8.73335 -0.0423343 4.94087)
(-8.71675 0.0287525 4.94388)
(-8.72969 0.0606307 4.54047)
(-8.85148 -0.0577599 4.19988)
(-8.51516 -0.0987528 5.32326)
(-7.57542 -0.0665843 2.1197)
(-7.72366 -0.040217 2.48899)
(-7.75216 0.00956144 2.55714)
(-7.55407 0.0282184 2.06784)
(-7.53811 -0.030433 1.66939)
(-7.71128 -0.0803897 2.93111)
(-4.49136 -0.0176076 -4.19272)
(-4.56885 -0.0160885 -4.04288)
(-4.61936 -0.021687 -3.97131)
(-4.40335 -0.0196632 -4.30759)
(-4.20085 -0.0270541 -4.6881)
(-4.81419 -0.0322156 -3.55151)
(-5.51414 -0.0279638 -0.485374)
(-5.64146 -0.0203868 -0.319998)
(-5.65409 0.0105993 -0.337204)
(-5.51023 0.027619 -0.452925)
(-5.40496 -0.048463 -0.710836)
(-5.72758 -0.080605 -0.0603521)
(-2.72419 -0.00894429 -4.22178)
(-2.67751 0.00253458 -4.33487)
(-2.70497 -0.0228815 -4.31929)
(-2.68611 -0.0099815 -4.26062)
(-2.63766 -0.0176902 -4.37542)
(-2.77419 -0.0405789 -4.19025)
(-1.16794 0.011143 -6.18447)
(-1.14252 0.0106798 -6.23037)
(-1.14384 -0.0233787 -6.22826)
(-1.15049 -0.0280167 -6.19897)
(-1.13265 0.0180239 -6.19732)
(-1.14565 0.0231061 -6.22954)
(-2.82318 -0.00667333 -1.2957)
(-2.74191 0.0103882 -1.37213)
(-2.74721 -0.00665433 -1.41906)
(-2.79574 -0.015929 -1.30355)
(-2.8007 0.0143713 -1.30559)
(-2.73457 0.0127762 -1.42873)
(-1.82203 -0.000575285 -3.01442)
(-1.7895 0.0080814 -3.08852)
(-1.78677 -0.00895851 -3.08866)
(-1.81897 -0.0166608 -3.01405)
(-1.83954 0.0156437 -3.00949)
(-1.76466 0.0148321 -3.08381)
(-1.16231 0.00419224 -3.87294)
(-1.16747 0.0040039 -3.8808)
(-1.16492 -0.00698495 -3.88248)
(-1.16233 -0.00974818 -3.86757)
(-1.16335 0.00739915 -3.86452)
(-1.16166 0.0101801 -3.88099)
(-3.3404 -0.00671046 -0.462887)
(-3.35353 0.000789813 -0.395838)
(-3.34248 -0.00813423 -0.427538)
(-3.35898 -0.0203318 -0.436513)
(-3.34579 0.0176014 -0.484805)
(-3.3602 0.0252294 -0.400728)
(-0.583408 -0.0123006 -1.41144)
(-0.589372 -0.0068888 -1.42397)
(-0.591686 0.00477959 -1.424)
(-0.58273 0.0091572 -1.40314)
(-0.578372 -0.00831816 -1.42146)
(-0.590759 -0.0184865 -1.40439)
(-0.421853 0.00145211 -2.88257)
(-0.422916 0.00101057 -2.88199)
(-0.423331 -0.00265931 -2.88426)
(-0.419983 0.000136851 -2.87908)
(-0.416123 -0.000849496 -2.88747)
(-0.425692 -0.00314957 -2.87683)
(-4.35542 0.00667067 -3.16368)
(-4.33863 0.00618373 -3.10867)
(-4.34515 -0.00168185 -3.11906)
(-4.35836 -0.00234086 -3.16336)
(-4.36507 0.000955331 -3.22594)
(-4.35609 0.00375268 -3.07162)
(0.794094 -0.00507216 -1.58001)
(0.788273 -0.00239889 -1.57064)
(0.785941 0.00130985 -1.56877)
(0.795681 0.00465175 -1.56745)
(0.800807 -0.00508023 -1.58016)
(0.782221 -0.0113958 -1.55334)
(0.469672 -0.0007789 -2.95048)
(0.467852 -0.00114341 -2.95086)
(0.466982 -0.00125165 -2.95193)
(0.467038 -0.000501416 -2.94956)
(0.465687 -0.000803768 -2.9551)
(0.468825 -0.00116212 -2.94662)
(-3.95135 0.0107533 -2.59017)
(-3.958 0.0117357 -2.60152)
(-3.96582 0.00166094 -2.59918)
(-3.98589 -0.00578509 -2.59616)
(-4.00092 0.0025675 -2.58746)
(-3.96684 0.00941867 -2.59902)
(0.273605 -0.00683712 -5.24869)
(0.2703 -0.00651584 -5.17581)
(0.26798 -0.00183476 -5.16939)
(0.276292 0.0012504 -5.18499)
(0.279858 -0.000928277 -5.21671)
(0.268575 -0.00438073 -5.16664)
(0.525293 -0.00565571 -2.24772)
(0.52788 -0.00751637 -2.25438)
(0.529021 -0.00192265 -2.25474)
(0.529113 0.00240814 -2.25302)
(0.5284 -0.00188501 -2.25304)
(0.532155 -0.00437039 -2.25376)
(2.21009 -0.0145683 0.0961674)
(2.19459 -0.0306918 0.122717)
(2.18117 -0.0214425 0.157703)
(2.20326 0.00701321 0.244255)
(2.1728 0.0204373 0.4134)
(2.21672 0.0101542 0.226929)
(0.852197 -0.050312 -4.77513)
(0.847527 -0.0710783 -4.74736)
(0.923372 -0.0338003 -4.71464)
(0.859476 -0.0552141 -4.80056)
(0.812206 0.00678716 -4.70272)
(0.818822 0.0587193 -4.90021)
(0.508652 0.0135992 -0.853091)
(0.618778 0.0218488 -0.827027)
(0.70616 0.00390336 -0.810775)
(0.618328 -0.0354796 -0.870314)
(0.528287 -0.00221423 -0.953306)
(0.513196 0.0258548 -0.873176)
(0.525374 0.00247032 -0.165282)
(0.515824 0.0064435 -0.170032)
(0.498549 -0.000879978 -0.170042)
(0.49916 -0.0062941 -0.185694)
(0.505991 0.000763782 -0.172693)
(0.5181 0.00112252 -0.185752)
(0.0264086 0.00525484 -2.14281)
(-0.0295317 0.0226511 -2.08703)
(-0.0749378 0.0242302 -2.03617)
(-0.0868133 0.0132292 -2.10185)
(-0.13817 -0.00387144 -2.0957)
(-0.0427687 -0.00880022 -2.11532)
(0.738456 0.00637273 -1.89594)
(0.73454 0.0110074 -1.91442)
(0.725873 -0.00600679 -1.92741)
(0.730001 -0.0254597 -1.92773)
(0.712477 -0.0133985 -1.93186)
(0.736519 0.00139973 -1.90235)
(0.197798 -0.00228489 0.207019)
(0.20029 -0.00631138 0.205665)
(0.20472 -0.000277301 0.204268)
(0.19655 0.00316012 0.207118)
(0.195165 -0.00146443 0.204534)
(0.198671 -0.000380368 0.199016)
(0.161134 -0.0168139 -0.967397)
(0.161286 -0.0354927 -0.978583)
(0.17215 -0.0354986 -0.970624)
(0.166068 -0.0356706 -0.940503)
(0.166426 0.00177974 -0.931592)
(0.173657 0.0224109 -0.957789)
(0.216078 0.00245585 -1.62459)
(0.221695 0.00243915 -1.6174)
(0.226152 -0.00179011 -1.60728)
(0.219717 -0.00671848 -1.59812)
(0.209881 -0.0015037 -1.59083)
(0.210819 0.00324147 -1.59257)
(-0.224484 -0.00161602 0.22595)
(-0.224519 -0.00321201 0.225253)
(-0.225871 -0.00374529 0.224385)
(-0.224709 -0.00301621 0.226076)
(-0.224512 2.76876e-05 0.228623)
(-0.223022 0.00118775 0.220479)
(-0.464745 -0.00167104 -1.00632)
(-0.472648 -0.0023671 -1.01637)
(-0.480402 -0.00391082 -1.02818)
(-0.486436 -0.00746057 -1.03619)
(-0.493837 0.00180921 -1.0401)
(-0.487351 0.00652518 -1.01719)
(-0.214727 0.00202479 -1.79204)
(-0.214172 0.0042214 -1.79582)
(-0.215169 0.00240444 -1.79721)
(-0.21827 -0.000726558 -1.79636)
(-0.221879 -0.00227762 -1.79803)
(-0.218954 -0.00144052 -1.7925)
(-0.577954 -0.00185544 0.0315686)
(-0.582007 -0.00324278 0.030319)
(-0.585462 -0.00383924 0.0301101)
(-0.591888 -0.00321434 0.0320338)
(-0.593346 -0.00017826 0.0354621)
(-0.586507 0.000865647 0.0270687)
(-0.644882 0.000337576 -1.88784)
(-0.647829 0.00138981 -1.90597)
(-0.648348 0.0021275 -1.91794)
(-0.647256 0.000789455 -1.94393)
(-0.648197 0.00164124 -1.95181)
(-0.652004 0.0020946 -1.91994)
(-0.830432 0.00166073 -1.98946)
(-0.829308 0.00347995 -1.99217)
(-0.828075 0.00417998 -1.9922)
(-0.827636 0.00305928 -1.99098)
(-0.828316 -0.00139308 -1.99312)
(-0.830218 -0.00215444 -1.98932)
(-1.91351 0.00106512 0.715567)
(-1.92441 0.00243984 0.714124)
(-1.92967 0.00383727 0.713839)
(-1.94164 0.00367548 0.719859)
(-1.94441 -0.00330393 0.725496)
(-1.93224 -0.00426781 0.708072)
(-1.25797 0.000235042 -5.02473)
(-1.25481 6.57271e-05 -5.03116)
(-1.25397 -0.00148081 -5.03426)
(-1.24911 -0.00248283 -5.03855)
(-1.24834 0.00241858 -5.04838)
(-1.25401 0.00362733 -5.04048)
(-0.702563 0.00070554 -1.5517)
(-0.69828 0.00138859 -1.5481)
(-0.6957 0.0020281 -1.54727)
(-0.693486 0.00297927 -1.54695)
(-0.694058 0.000155152 -1.54711)
(-0.693717 -0.00154152 -1.54353)
(1.71262 -0.202811 2.13114)
(1.98067 0.00955316 3.1431)
(1.53151 -0.370256 2.67747)
(3.33452 0.0583715 3.06096)
(4.72749 -0.140372 3.75533)
(1.01841 0.462569 2.08637)
(2.19799 -0.599957 1.91384)
(1.99612 -0.602226 2.89183)
(1.53938 -0.306663 2.47287)
(2.9948 0.306817 2.55378)
(4.90882 0.806677 3.46377)
(1.78974 0.713764 1.66491)
(2.35522 -0.695896 8.09773)
(2.19213 -1.05655 0.580332)
(1.99884 0.00271326 1.62195)
(2.97796 -0.641044 1.60603)
(5.04536 1.12447 0.558734)
(2.2647 0.956697 8.68763)
(-2.06907 -0.451518 5.20182)
(-2.19041 0.092711 7.56793)
(-1.79378 -0.234226 6.24051)
(-3.45625 0.797007 7.3403)
(-4.67442 -0.309815 6.89013)
(-1.4606 0.273186 2.65378)
(-1.49069 -0.402046 6.53038)
(-2.50226 -0.111124 7.39937)
(-1.87103 -0.169555 6.60514)
(-3.09675 0.725359 7.07537)
(-4.9312 0.0309677 7.38362)
(-1.04492 0.267509 3.31602)
(2.12672 0.476229 4.09932)
(-0.572687 0.752447 7.72211)
(-0.327727 0.323812 8.14499)
(-0.775824 0.282877 7.66775)
(-2.2876 -0.119073 5.73559)
(1.60827 0.154946 3.66327)
(1.25888 0.38854 1.37511)
(2.01687 0.424352 -0.129671)
(2.33766 0.317111 -0.70353)
(2.96102 0.299013 -0.43127)
(1.88232 -0.224456 1.48289)
(2.07498 -0.168376 1.31504)
(1.61804 0.0712119 1.81777)
(1.63791 0.154146 0.812346)
(2.71068 -0.0597098 1.22771)
(2.94418 -0.439768 2.07378)
(1.13638 -0.173115 2.58559)
(2.29416 0.347436 1.37031)
(1.98577 -0.100172 0.708556)
(2.18677 -0.348189 0.336969)
(3.12979 -0.392981 0.311785)
(3.28937 -0.531752 0.883214)
(2.5957 0.0303511 1.241)
(3.20694 0.368618 0.458336)
(-1.18396 0.121424 -2.52176)
(-1.00026 0.199809 -2.6359)
(-0.937912 0.208533 -2.68444)
(-0.823052 0.0980941 -2.80685)
(-0.965167 -0.0641899 -3.03957)
(-1.28347 -0.0650021 -2.86985)
(-1.07761 0.0560094 -1.85164)
(-1.0664 0.168704 -1.97334)
(-0.954752 0.234031 -1.91096)