/*--------------------------------*- C++ -*----------------------------------*\
| =========                 |                                                 |
| \\      /  F ield         | OpenFOAM: The Open Source CFD Toolbox           |
|  \\    /   O peration     | Version:  v1612+                                |
|   \\  /    A nd           | Web:      www.OpenFOAM.com                      |
|    \\/     M anipulation  |                                                 |
\*---------------------------------------------------------------------------*/
FoamFile
{
    version     2.0;
    format      ascii;
    class       surfaceScalarField;
    location    "6";
    object      alphaPhi;
}
// * * * * * * * * * * * * * * * * * * * * * * * * * * * * * * * * * * * * * //

dimensions      [0 3 -1 0 0 0 0];

internalField   nonuniform List<scalar> 
816
(
-3.60661e-06
-9.79655e-06
4.24519e-06
-5.8181e-06
-1.15455e-05
2.65218e-05
2.42162e-06
5.81395e-06
-2.05485e-06
1.07089e-05
-2.04926e-05
-8.35207e-06
-3.42765e-08
5.53042e-06
7.30604e-06
-1.42419e-05
-1.56318e-06
8.26336e-06
1.19998e-05
-2.46162e-05
7.3124e-09
-4.19443e-09
-6.66892e-06
-2.68769e-09
2.93233e-09
5.0226e-09
4.15456e-07
-9.96833e-10
1.20207e-09
6.8149e-11
4.99744e-06
-2.16377e-09
4.83305e-09
-4.2024e-10
-5.47509e-06
8.03774e-10
-1.20386e-09
-1.691e-09
-3.13038e-07
2.98271e-09
-2.32373e-09
3.35675e-10
6.25189e-07
-1.6084e-10
-1.17403e-09
2.1866e-12
1.99066e-06
-2.58136e-09
4.5808e-09
3.16461e-09
2.30319e-06
-2.16748e-09
1.96956e-09
2.80529e-09
-6.2599e-06
-9.24687e-10
1.86002e-09
9.33515e-10
-1.66927e-06
-1.58621e-09
3.02278e-09
-4.43604e-09
7.74344e-14
-9.38876e-10
-9.68133e-10
-4.239e-06
-3.21879e-09
-1.51692e-09
7.36819e-06
3.65184e-06
-2.50759e-05
5.97182e-07
7.04923e-06
1.43547e-05
-2.29855e-05
5.99611e-06
1.20393e-05
4.98199e-06
1.27937e-06
1.36265e-06
2.23267e-05
-2.20204e-06
1.03218e-05
-8.00691e-06
-1.62111e-06
9.03282e-07
-2.30096e-06
1.64363e-06
-4.69883e-06
1.47487e-06
-2.21675e-05
8.512e-06
1.63931e-05
7.93587e-06
-1.45243e-05
4.05001e-06
1.63978e-05
1.2215e-05
1.51435e-05
-1.29152e-05
6.15468e-06
5.44063e-06
-3.52621e-05
4.51945e-06
2.39845e-05
1.84087e-05
-2.87092e-05
6.70604e-06
7.07791e-06
2.62557e-06
2.38473e-05
4.50789e-06
-1.18651e-05
-1.57174e-05
8.40582e-06
3.53161e-06
-7.47148e-06
-8.10508e-08
-1.26017e-05
-6.7319e-07
-1.20021e-05
-1.01935e-05
-2.4347e-06
1.77527e-06
9.70777e-07
-1.47084e-06
-1.19943e-05
2.5979e-06
4.41872e-06
3.03072e-06
-7.79043e-07
-1.20445e-06
7.09052e-07
-2.77308e-06
-1.0853e-05
-1.54524e-06
-7.77564e-06
-2.22577e-06
-7.10282e-06
2.82601e-07
-1.33655e-06
7.63123e-06
6.56298e-06
-2.3766e-06
-1.60205e-05
-8.01537e-06
-1.01862e-05
-1.05529e-05
-1.30474e-05
-1.95368e-06
-5.14122e-07
1.03248e-05
-2.33185e-06
-7.64685e-06
-4.79603e-06
-3.85762e-06
-2.99023e-06
-6.03448e-06
3.09452e-06
-2.30325e-06
-3.30661e-06
1.35156e-06
4.22658e-06
-1.51247e-06
3.65886e-06
-4.58969e-06
4.60033e-07
3.78879e-06
1.61836e-06
-7.6159e-07
5.05121e-06
4.46162e-06
-4.62397e-06
-1.60118e-07
-5.49363e-07
-4.17077e-06
-7.73245e-06
-1.23083e-06
-1.62019e-06
1.04684e-06
-1.02475e-06
-7.07039e-06
2.9028e-07
2.39474e-06
1.62734e-06
-5.92963e-08
5.27084e-07
4.47038e-07
-5.5845e-07
-1.94592e-06
-1.13351e-06
-4.09765e-06
-3.15014e-06
-1.8215e-06
2.71918e-07
-2.43441e-06
-2.3303e-07
4.97303e-06
1.50363e-06
-1.10092e-06
-4.73619e-06
-5.76128e-06
-4.6664e-06
-5.74918e-06
-7.58699e-07
-3.85682e-06
-1.54071e-08
-8.37784e-07
3.12567e-06
-2.68898e-06
-2.49435e-06
-2.63453e-06
6.64219e-10
1.27225e-10
-1.176e-06
-2.6815e-09
5.43022e-09
-8.98664e-06
-1.07196e-09
2.45461e-09
1.11492e-06
2.26163e-11
2.21142e-09
3.2104e-06
-5.75657e-10
2.44508e-09
2.69523e-06
-2.81244e-09
-3.9781e-09
-4.13731e-10
9.09484e-11
-1.31153e-09
-2.53138e-09
1.67599e-06
-4.05028e-09
-8.51526e-09
-1.61318e-06
-3.00161e-09
-5.88672e-09
-6.35109e-06
-2.00775e-09
1.51308e-09
6.28641e-07
-3.0974e-09
-4.64201e-09
-4.11017e-10
-3.04427e-06
-3.50818e-09
-3.12273e-09
3.13601e-11
-8.17209e-09
-1.59031e-09
1.54357e-06
-2.81731e-09
-2.68701e-09
1.24615e-10
-4.07861e-09
5.5076e-09
-6.41791e-07
-7.45086e-09
-4.40009e-09
8.69964e-10
-8.35951e-06
1.63902e-11
-2.95896e-09
-6.54807e-06
-3.89751e-09
-2.22801e-09
1.62866e-06
-1.51564e-09
-2.18746e-09
-1.16086e-06
-2.2393e-09
-6.24586e-06
-3.65781e-09
-2.15156e-09
-1.36887e-05
-9.18729e-07
1.43182e-05
6.15106e-06
-2.02295e-06
-1.70235e-05
-4.52991e-06
1.6429e-06
-1.32273e-05
1.53751e-05
-1.55683e-06
4.0772e-06
1.1206e-05
1.49786e-05
3.64269e-05
-1.77917e-05
-2.22947e-05
1.91965e-06
4.53226e-05
-6.76922e-07
-5.8825e-06
3.16477e-05
-2.50368e-05
-2.6415e-05
5.31039e-05
-3.21476e-05
-1.96464e-05
-3.66328e-06
-2.93962e-06
1.15352e-05
-1.65715e-05
1.45586e-06
-1.3901e-05
-4.67773e-06
2.69723e-05
7.42031e-07
-2.08195e-05
3.77451e-05
-1.62156e-05
5.5715e-06
-3.19475e-05
-1.69231e-06
7.69948e-06
2.98499e-05
-1.84319e-05
2.18313e-05
1.63062e-05
-2.62272e-05
-5.0158e-06
1.35973e-06
2.22285e-05
1.52785e-05
-1.70268e-05
3.20891e-05
-1.53562e-05
-7.34396e-06
1.06972e-05
-7.83339e-06
1.67245e-07
-2.81572e-07
-4.7873e-06
2.45285e-05
-9.37651e-06
-2.04658e-05
5.60855e-06
2.10174e-06
6.69726e-06
-4.87371e-06
-2.87246e-06
-8.32475e-06
-8.76177e-07
-5.42866e-06
-5.29758e-06
-7.79629e-06
-2.19018e-06
2.07783e-06
-2.68583e-06
-5.97752e-06
1.68219e-05
1.19606e-05
1.14371e-05
2.05559e-06
2.0313e-05
4.98676e-06
6.21668e-06
1.43564e-05
1.61647e-05
1.61728e-05
2.42885e-05
1.95667e-05
1.0023e-05
-1.69968e-06
2.63931e-06
-7.07302e-06
-7.70412e-06
1.74457e-06
6.48584e-06
2.20671e-07
1.22151e-05
-3.10893e-07
9.97499e-06
1.72864e-05
1.09993e-05
-2.50897e-06
-1.45156e-05
1.59779e-06
-7.20359e-07
1.33442e-05
6.692e-06
-7.4366e-06
7.24148e-06
1.03293e-05
5.45372e-06
-9.20028e-07
1.02273e-05
-4.70793e-06
6.25011e-06
1.45663e-05
8.39414e-06
6.05125e-06
4.8932e-06
3.67485e-06
3.04889e-06
-5.28541e-08
-1.08297e-06
1.06804e-05
7.50001e-06
1.15125e-05
3.126e-06
1.21161e-06
2.28896e-06
-2.60823e-06
-2.11873e-06
-2.70374e-06
-9.10123e-07
-3.93001e-06
2.2257e-07
-4.93635e-06
-1.18479e-06
2.96521e-07
-1.97666e-06
-3.09003e-06
5.20209e-06
6.44867e-06
7.08604e-06
8.69343e-07
7.46928e-06
1.82366e-06
3.70008e-06
4.73397e-06
8.41963e-06
9.72023e-06
7.80757e-06
1.09052e-05
6.3061e-06
-7.29506e-07
1.30502e-06
-4.37146e-06
-1.13549e-06
5.7868e-07
3.53372e-06
1.43939e-07
3.56512e-06
3.34038e-08
5.85314e-06
5.65815e-06
6.18956e-06
-1.56382e-06
-3.37747e-06
1.2459e-06
-3.34223e-07
4.01276e-06
3.36106e-06
-4.53046e-06
2.06033e-06
5.88209e-06
3.49173e-06
-6.11706e-07
3.77148e-06
-3.22403e-06
3.71582e-06
4.36408e-06
5.12025e-06
3.22163e-06
2.07825e-06
2.48189e-06
1.67907e-06
-2.13874e-07
-7.85218e-07
2.42964e-06
4.58625e-06
6.56111e-06
-1.25517e-06
-2.70652e-06
1.67916e-06
-1.02494e-06
1.61047e-06
7.3503e-07
5.56291e-08
-3.22458e-06
-5.73733e-08
2.18562e-06
-7.63795e-07
3.59886e-06
-3.74627e-06
9.97556e-07
2.61671e-07
-3.60159e-06
-1.02435e-06
8.05034e-07
-3.63817e-07
-3.74589e-06
4.18534e-07
3.82069e-07
-1.4665e-07
-7.62348e-07
-1.00242e-06
-2.89511e-07
-2.0101e-06
-5.05126e-07
6.66411e-07
-4.61169e-07
1.3941e-06
-1.23927e-06
-1.21941e-06
-2.6734e-06
-3.0539e-06
1.40061e-07
-3.07413e-07
-6.47272e-07
-1.78415e-06
-1.55325e-07
5.76251e-07
1.20838e-06
-1.27584e-06
-1.937e-06
7.40601e-08
-1.14929e-06
-1.5792e-06
-6.47978e-07
-5.63077e-07
-1.10864e-06
2.28167e-06
3.38132e-06
1.24569e-06
1.36034e-06
2.39402e-06
3.96749e-06
5.19944e-06
4.24043e-06
2.86769e-06
1.31232e-06
-1.2667e-06
5.95894e-07
2.40866e-06
2.8266e-07
6.57715e-09
3.0675e-06
3.5385e-06
2.27556e-07
8.57676e-07
5.21241e-07
2.503e-06
-2.12335e-06
2.83486e-06
1.86899e-06
-2.2853e-07
-8.02061e-07
1.70356e-06
2.57118e-06
2.2327e-06
9.00815e-07
1.38387e-06
4.78561e-07
2.18787e-06
2.82918e-06
1.65652e-09
-1.36874e-11
-8.96765e-06
4.80805e-09
1.0636e-06
6.4852e-09
2.07079e-06
2.60415e-09
-5.25732e-06
3.36792e-11
-8.91901e-06
-5.56299e-09
-3.68629e-06
4.30947e-09
4.84902e-06
3.75344e-09
1.02788e-06
-9.41959e-10
-1.22517e-05
-2.01811e-09
-3.49244e-06
-4.09067e-09
-4.16531e-06
-2.8735e-09
3.44943e-07
-1.12753e-09
-1.0114e-05
-3.39213e-10
6.92757e-07
-9.21969e-10
1.05e-06
-8.32725e-10
-7.18735e-07
-2.01885e-11
-6.15362e-06
-7.98699e-10
-1.90046e-06
-4.81481e-09
3.24742e-06
-3.92406e-09
2.80686e-06
7.39705e-09
-1.69103e-06
5.4517e-09
-2.90903e-06
1.06443e-09
-1.43542e-05
-1.25027e-09
-2.40299e-06
-2.12923e-09
2.30021e-06
-2.62245e-09
3.29853e-06
-7.7102e-10
-6.24258e-07
-9.38445e-06
5.11666e-06
-9.92994e-06
-1.3901e-05
-1.72742e-06
1.86048e-05
1.36365e-05
-9.61748e-06
-1.51939e-06
2.8159e-05
-2.16661e-05
2.05926e-05
-3.09619e-05
-1.3723e-05
2.12351e-05
-3.22167e-05
2.00659e-05
-1.59491e-05
-1.50931e-05
1.83521e-05
-7.46118e-06
-3.71748e-05
1.30067e-05
-5.81102e-05
2.18621e-05
-1.01984e-05
4.93424e-06
4.77853e-06
-1.17598e-05
1.89261e-05
-1.46087e-06
-1.99824e-05
-3.09981e-06
1.74623e-06
-8.33081e-06
-1.94486e-05
-5.11293e-06
-7.8203e-06
-2.51236e-06
-8.37457e-06
-4.2054e-06
-1.32389e-05
2.9713e-05
-3.61256e-05
1.51658e-05
6.04835e-06
-1.42161e-05
2.54751e-05
-5.0677e-06
-2.73841e-05
-3.57572e-06
-8.4633e-07
-5.61621e-06
1.12648e-05
-5.09957e-07
-2.61711e-05
-2.32363e-05
-7.96051e-06
8.95063e-06
-7.38819e-06
-2.15084e-06
7.93159e-06
-8.1072e-06
-4.53185e-06
-7.54355e-07
1.30067e-05
7.19139e-06
9.96956e-06
1.00044e-05
-4.56723e-06
-6.79519e-06
-1.54148e-05
-2.84832e-06
-8.44341e-06
1.13558e-05
9.13779e-06
5.37635e-06
-1.50332e-05
-7.94399e-06
-2.52249e-05
-9.66763e-06
-5.83489e-06
-5.283e-06
2.14135e-06
5.18942e-06
8.45563e-06
1.13944e-06
-9.44147e-06
1.83453e-06
7.40481e-07
2.55904e-06
-9.1738e-06
2.92134e-07
-3.95753e-06
2.5727e-06
-3.96354e-06
5.45032e-06
-5.78998e-06
-1.39012e-05
-1.67715e-05
-4.07862e-06
1.68859e-06
4.39243e-06
1.2295e-05
-1.89002e-06
-1.27087e-05
1.57316e-06
-6.3052e-07
7.35893e-06
4.39745e-06
4.56067e-06
-1.18607e-05
-9.72193e-06
-4.36536e-06
4.09673e-06
-2.52969e-06
-1.91538e-06
2.88099e-06
-5.19437e-06
-2.15354e-06
-1.10617e-06
3.98988e-06
4.61195e-06
2.28152e-06
6.67317e-06
-1.75026e-07
-4.38346e-06
-4.36437e-06
-2.87367e-06
-2.8671e-06
5.88487e-06
2.206e-06
4.29186e-06
-5.01861e-06
-3.58337e-06
-6.44077e-06
-5.22108e-06
-2.88886e-06
-3.17137e-06
6.78984e-07
3.44065e-06
1.84763e-06
6.30303e-07
-3.09064e-06
1.05629e-06
3.4665e-07
1.14796e-06
-3.07521e-06
4.26462e-08
-1.60414e-06
1.74535e-06
-2.30189e-06
3.57265e-06
-1.73521e-06
-7.79768e-06
-5.4093e-06
-2.94918e-06
3.35109e-07
3.24369e-06
2.88559e-06
-5.61028e-07
-3.77725e-06
6.45809e-07
6.47946e-07
3.94952e-06
3.12258e-07
1.96384e-06
-3.31523e-06
-3.66588e-06
-2.8207e-06
2.47674e-06
-1.21778e-06
-3.29287e-06
-8.79419e-07
8.39534e-07
2.9539e-06
-1.40957e-06
-9.03047e-07
2.66052e-06
1.60921e-06
-5.87515e-07
-2.1607e-06
-8.78256e-07
9.74442e-07
2.97845e-07
6.4915e-07
1.10945e-06
3.62261e-07
5.68241e-07
1.68275e-06
-3.72618e-06
-1.5265e-06
5.52716e-07
-6.55443e-07
8.92124e-07
1.68048e-06
1.19225e-06
1.83288e-09
2.5522e-09
5.15357e-07
-1.7427e-09
-3.61475e-06
3.91578e-09
-3.52094e-06
1.84691e-10
6.67913e-06
1.62346e-05
-9.69573e-06
8.75052e-06
)
;

boundaryField
{
    top_fluid_surface
    {
        type            calculated;
        value           nonuniform List<scalar> 
64
(
0
1.09329e-09
1.75521e-09
9.66096e-10
8.0026e-10
0
0
0
1.44779e-10
1.51057e-10
5.74568e-09
0
0
0
1.05554e-09
0
4.52042e-09
7.38438e-09
6.03058e-09
8.17801e-09
0
0
3.76e-09
5.58062e-09
0
3.2474e-09
1.81458e-09
5.48938e-09
5.35832e-09
0
5.44411e-10
2.65385e-09
0
0
0
3.09825e-09
1.86457e-09
1.83827e-09
0
0
3.2815e-09
0
0
0
0
0
0
0
0
0
0
0
0
0
4.26969e-09
0
0
0
0
0
0
3.44416e-09
3.61647e-09
3.66695e-09
)
;
    }
    bottom_fluid_surface
    {
        type            calculated;
        value           uniform 0;
    }
    lateral_surface_1
    {
        type            calculated;
        value           uniform 0;
    }
    lateral_surface_2
    {
        type            calculated;
        value           uniform 0;
    }
    lateral_surface_3
    {
        type            calculated;
        value           uniform 0;
    }
    lateral_surface_4
    {
        type            calculated;
        value           uniform 0;
    }
}


// ************************************************************************* //
