/*--------------------------------*- C++ -*----------------------------------*\
| =========                 |                                                 |
| \\      /  F ield         | OpenFOAM: The Open Source CFD Toolbox           |
|  \\    /   O peration     | Version:  v1612+                                |
|   \\  /    A nd           | Web:      www.OpenFOAM.com                      |
|    \\/     M anipulation  |                                                 |
\*---------------------------------------------------------------------------*/
FoamFile
{
    version     2.0;
    format      ascii;
    class       volScalarField;
    location    "6";
    object      alpha.water;
}
// * * * * * * * * * * * * * * * * * * * * * * * * * * * * * * * * * * * * * //

dimensions      [0 0 0 0 0 0 0];

internalField   nonuniform List<scalar> 
320
(
1
1
1
1
1.57922e-05
1.37481e-05
1.32239e-05
1.41381e-05
1.40054e-05
1.44382e-05
1.45315e-05
1.55652e-05
1.48284e-05
1.43859e-05
1.22338e-05
1.60368e-05
0.999985
0.999987
0.999987
0.999984
0.999982
0.999982
0.999981
0.999979
0.999985
0.999983
0.999992
0.999982
1
1
1
1
1
1
1
1
1
1
1
1
1
1
1
1
1
1
1
1
1
1
1
1
1
1
1
1
1.57615e-05
1.67922e-05
1.39305e-05
1.51215e-05
1.20681e-05
1.07712e-05
1.15505e-05
1.07682e-05
1.47837e-05
1.45299e-05
1.32926e-05
1.23669e-05
1.43089e-05
1.32631e-05
1.40177e-05
1.28205e-05
1.29071e-05
1.45876e-05
1.44462e-05
1.42068e-05
0.999986
0.999982
0.999988
0.999982
0.999992
0.999993
0.999992
0.999993
0.999982
0.99999
0.999994
0.999994
0.999981
0.999991
0.999992
0.999992
0.999992
0.999984
0.999985
0.999991
1
1
1
1
1
1
1
1
1
1
1
1
1
1
1
1
1
1
1
1
1
1
1
1
1
1
1
1
1
1
1
1
1
1
1
1
1
1
1
1
1
1
1
1
1
1
1
1
1
1
1
1
1
1
1
1
1
1
1
1
1
1
1
1
1
1
1
1
1
1
1
1
1
1
1
1
1.66827e-05
1.66459e-05
1.52868e-05
1.34655e-05
1.39463e-05
1.33334e-05
1.65949e-05
1.52957e-05
1.35212e-05
1.50609e-05
1.44704e-05
1.55185e-05
1.63654e-05
1.48414e-05
1.56297e-05
1.57607e-05
1.73394e-05
1.51922e-05
1.44132e-05
1.69132e-05
1.77469e-05
1.60312e-05
1.38834e-05
1.51076e-05
1.47882e-05
1.51835e-05
1.60619e-05
1.52799e-05
0.999984
0.999984
0.999984
0.999992
0.999985
0.999984
0.99998
0.999983
0.999987
0.999977
0.99998
0.999985
0.99998
0.999986
0.999985
0.999987
0.999983
0.999984
0.999983
0.99998
0.999982
0.999987
0.99999
0.999986
0.99999
0.999986
0.999981
0.999975
1
1
1
1
1
1
1
1
1
1
1
1
1
1
1
1
1
1
1
1
1
1
1
1
1
1
1
1
1
1
1
1
1
1
1
1
1
1
1
1
1
1
1
1
1
1
1
1
1
1
1
1
1
1
1
1
1
1
1
1
1
1
1
1
1
1
1
1
1
1
1
1
1
1
1
1
1
1
1
1
1
1
1
1
1.51242e-05
1.33011e-05
1.34684e-05
1.29175e-05
0.999979
0.999984
0.999984
0.999987
)
;

boundaryField
{
    top_fluid_surface
    {
        type            inletOutlet;
        inletValue      uniform 0;
        value           nonuniform List<scalar> 
64
(
0
1.37481e-05
1.32239e-05
1.41381e-05
1.40054e-05
0
0
0
1.48284e-05
1.43859e-05
1.22338e-05
0
0
0
1.39305e-05
0
1.20681e-05
1.07712e-05
1.15505e-05
1.07682e-05
0
0
1.32926e-05
1.23669e-05
0
1.32631e-05
1.40177e-05
1.28205e-05
1.29071e-05
0
1.44462e-05
1.42068e-05
0
0
0
1.34655e-05
1.39463e-05
1.33334e-05
0
0
1.35212e-05
0
0
0
0
0
0
0
0
0
0
0
0
0
1.38834e-05
0
0
0
0
0
0
1.33011e-05
1.34684e-05
1.29175e-05
)
;
    }
    bottom_fluid_surface
    {
        type            zeroGradient;
    }
    lateral_surface_1
    {
        type            zeroGradient;
    }
    lateral_surface_2
    {
        type            zeroGradient;
    }
    lateral_surface_3
    {
        type            zeroGradient;
    }
    lateral_surface_4
    {
        type            zeroGradient;
    }
}


// ************************************************************************* //
