/*--------------------------------*- C++ -*----------------------------------*\
| =========                 |                                                 |
| \\      /  F ield         | OpenFOAM: The Open Source CFD Toolbox           |
|  \\    /   O peration     | Version:  v1612+                                |
|   \\  /    A nd           | Web:      www.OpenFOAM.com                      |
|    \\/     M anipulation  |                                                 |
\*---------------------------------------------------------------------------*/
FoamFile
{
    version     2.0;
    format      ascii;
    class       volScalarField;
    location    "6";
    object      p;
}
// * * * * * * * * * * * * * * * * * * * * * * * * * * * * * * * * * * * * * //

dimensions      [1 -1 -2 0 0 0 0];

internalField   nonuniform List<scalar> 
320
(
14724.8
14724.8
14724.8
14724.8
4.97679
4.9752
4.97382
4.97506
4.97503
4.97564
4.97512
4.97798
4.97893
4.97657
4.97583
4.97698
4914.9
4914.84
4914.83
4914.83
4914.82
4914.86
4914.86
4914.87
4914.88
4914.83
4914.85
4914.88
14724.8
14724.8
14724.8
14724.8
14724.8
14724.8
14724.8
14724.8
14724.8
14724.8
14724.8
14724.8
24534.8
24534.8
24534.8
24534.8
24534.8
24534.8
24534.8
24534.8
24534.8
24534.8
24534.8
24534.8
24534.8
24534.8
24534.8
24534.8
4.97761
4.97647
4.97501
4.97653
4.97242
4.97363
4.9743
4.97504
4.97593
4.97578
4.97606
4.97622
4.97629
4.97591
4.97643
4.97737
4.97682
4.97625
4.97606
4.97721
4914.86
4914.89
4914.85
4914.83
4914.84
4914.83
4914.84
4914.83
4914.87
4914.9
4914.87
4914.86
4914.86
4914.86
4914.87
4914.85
4914.85
4914.87
4914.84
4914.86
14724.8
14724.8
14724.8
14724.8
14724.8
14724.8
14724.8
14724.8
14724.8
14724.8
14724.8
14724.8
14724.8
14724.8
14724.8
14724.8
14724.8
14724.8
14724.8
14724.8
24534.8
24534.8
24534.8
24534.8
24534.8
24534.8
24534.8
24534.8
24534.8
24534.8
24534.8
24534.8
24534.8
24534.8
24534.8
24534.8
24534.8
24534.8
24534.8
24534.8
34344.8
34344.8
34344.8
34344.8
34344.8
34344.8
34344.8
34344.8
34344.8
34344.8
34344.8
34344.8
34344.8
34344.8
34344.8
34344.8
34344.8
34344.8
34344.8
34344.8
34344.8
34344.8
34344.8
34344.8
34344.8
34344.8
34344.8
34344.8
34344.8
34344.8
34344.8
34344.8
34344.8
34344.8
34344.8
34344.8
4.97832
4.97524
4.97542
4.97523
4.97446
4.9737
4.97325
4.97407
4.9756
4.97512
4.97559
4.97572
4.97684
4.97567
4.97569
4.97591
4.97686
4.97641
4.97545
4.97575
4.97678
4.97755
4.97864
4.97736
4.97666
4.97642
4.97777
4.97904
4914.9
4914.9
4914.89
4914.86
4914.83
4914.82
4914.89
4914.88
4914.84
4914.85
4914.85
4914.89
4914.88
4914.89
4914.9
4914.91
4914.91
4914.88
4914.87
4914.89
4914.91
4914.91
4914.86
4914.89
4914.91
4914.89
4914.88
4914.84
14724.8
14724.8
14724.8
14724.8
14724.8
14724.8
14724.8
14724.8
14724.8
14724.8
14724.8
14724.8
14724.8
14724.8
14724.8
14724.8
14724.8
14724.8
14724.8
14724.8
14724.8
14724.8
14724.8
14724.8
14724.8
14724.8
14724.8
14724.8
24534.8
24534.8
24534.8
24534.8
24534.8
24534.8
24534.8
24534.8
24534.8
24534.8
24534.8
24534.8
24534.8
24534.8
24534.8
24534.8
24534.8
24534.8
24534.8
24534.8
24534.8
24534.8
24534.8
24534.8
24534.8
24534.8
24534.8
24534.8
34344.8
34344.8
34344.8
34344.8
34344.8
34344.8
34344.8
34344.8
34344.8
34344.8
34344.8
34344.8
34344.8
34344.8
34344.8
34344.8
34344.8
34344.8
34344.8
34344.8
34344.8
34344.8
34344.8
34344.8
34344.8
34344.8
34344.8
34344.8
4.9762
4.97558
4.97772
4.976
4914.86
4914.82
4914.82
4914.83
)
;

boundaryField
{
    top_fluid_surface
    {
        type            calculated;
        value           nonuniform List<scalar> 
64
(
-8.05021e-09
0
0
0
0
-6.69368e-10
-1.86609e-09
-2.46884e-09
0
0
0
-8.93994e-09
-2.90956e-08
-2.269e-08
0
-3.14055e-08
0
0
0
0
-1.65917e-10
-5.25252e-10
0
0
-5.19076e-10
0
0
0
0
-5.72588e-11
0
0
-1.31735e-08
-2.22557e-08
-7.86221e-09
0
0
0
-6.04211e-08
-1.10809e-08
0
-6.32231e-09
-2.10922e-09
-7.68179e-09
-8.65621e-09
-3.30536e-10
-1.18442e-08
-7.46851e-09
-3.57829e-08
-2.17629e-09
-1.42657e-09
-4.04127e-08
-5.90254e-08
-5.51139e-09
0
-1.82101e-09
-6.94611e-10
-3.14243e-09
-1.04092e-08
-2.89855e-10
-4.669e-09
0
0
0
)
;
    }
    bottom_fluid_surface
    {
        type            calculated;
        value           nonuniform List<scalar> 
64
(
39249.8
39249.8
39249.8
39249.8
39249.8
39249.8
39249.8
39249.8
39249.8
39249.8
39249.8
39249.8
39249.8
39249.8
39249.8
39249.8
39249.8
39249.8
39249.8
39249.8
39249.8
39249.8
39249.8
39249.8
39249.8
39249.8
39249.8
39249.8
39249.8
39249.8
39249.8
39249.8
39249.8
39249.8
39249.8
39249.8
39249.8
39249.8
39249.8
39249.8
39249.8
39249.8
39249.8
39249.8
39249.8
39249.8
39249.8
39249.8
39249.8
39249.8
39249.8
39249.8
39249.8
39249.8
39249.8
39249.8
39249.8
39249.8
39249.8
39249.8
39249.8
39249.8
39249.8
39249.8
)
;
    }
    lateral_surface_1
    {
        type            calculated;
        value           nonuniform List<scalar> 
40
(
4.97832
4.97524
4.97542
4.97523
4.97446
4.9737
4.97325
4.97904
4914.9
4914.9
4914.89
4914.86
4914.83
4914.82
4914.89
4914.84
14724.8
14724.8
14724.8
14724.8
14724.8
14724.8
14724.8
14724.8
24534.8
24534.8
24534.8
24534.8
24534.8
24534.8
24534.8
24534.8
34344.8
34344.8
34344.8
34344.8
34344.8
34344.8
34344.8
34344.8
)
;
    }
    lateral_surface_2
    {
        type            calculated;
        value           nonuniform List<scalar> 
40
(
4.97567
4.97569
4.97591
4.97686
4.97641
4.97545
4.97575
4.97678
4914.89
4914.9
4914.91
4914.91
4914.88
4914.87
4914.89
4914.91
14724.8
14724.8
14724.8
14724.8
14724.8
14724.8
14724.8
14724.8
24534.8
24534.8
24534.8
24534.8
24534.8
24534.8
24534.8
24534.8
34344.8
34344.8
34344.8
34344.8
34344.8
34344.8
34344.8
34344.8
)
;
    }
    lateral_surface_3
    {
        type            calculated;
        value           nonuniform List<scalar> 
40
(
4.97325
4.97407
4.9756
4.97512
4.97559
4.97572
4.97684
4.97567
4914.89
4914.88
4914.84
4914.85
4914.85
4914.89
4914.88
4914.89
14724.8
14724.8
14724.8
14724.8
14724.8
14724.8
14724.8
14724.8
24534.8
24534.8
24534.8
24534.8
24534.8
24534.8
24534.8
24534.8
34344.8
34344.8
34344.8
34344.8
34344.8
34344.8
34344.8
34344.8
)
;
    }
    lateral_surface_4
    {
        type            calculated;
        value           nonuniform List<scalar> 
40
(
4.97678
4.97755
4.97864
4.97736
4.97666
4.97642
4.97777
4.97904
4914.91
4914.91
4914.86
4914.89
4914.91
4914.89
4914.88
4914.84
14724.8
14724.8
14724.8
14724.8
14724.8
14724.8
14724.8
14724.8
24534.8
24534.8
24534.8
24534.8
24534.8
24534.8
24534.8
24534.8
34344.8
34344.8
34344.8
34344.8
34344.8
34344.8
34344.8
34344.8
)
;
    }
}


// ************************************************************************* //
