/*--------------------------------*- C++ -*----------------------------------*\
| =========                 |                                                 |
| \\      /  F ield         | OpenFOAM: The Open Source CFD Toolbox           |
|  \\    /   O peration     | Version:  v1612+                                |
|   \\  /    A nd           | Web:      www.OpenFOAM.com                      |
|    \\/     M anipulation  |                                                 |
\*---------------------------------------------------------------------------*/
FoamFile
{
    version     2.0;
    format      ascii;
    class       volScalarField;
    location    "6";
    object      p_rgh;
}
// * * * * * * * * * * * * * * * * * * * * * * * * * * * * * * * * * * * * * //

dimensions      [1 -1 -2 0 0 0 0];

internalField   nonuniform List<scalar> 
320
(
-9800.22
-9800.22
-9800.22
-9800.21
-0.00559094
0.0028326
0.00401977
0.000779831
0.00140476
-0.000105539
-0.00108216
-0.00329474
0.00127396
0.00107618
0.010884
-0.00660127
-9799.89
-9799.96
-9799.97
-9799.93
-9799.92
-9799.87
-9799.86
-9799.83
-9799.9
-9799.92
-9800.04
-9799.85
-9800.2
-9800.21
-9800.22
-9800.23
-9800.22
-9800.21
-9800.22
-9800.22
-9800.2
-9800.21
-9800.2
-9800.21
-9800.21
-9800.21
-9800.21
-9800.21
-9800.21
-9800.21
-9800.21
-9800.22
-9800.22
-9800.21
-9800.21
-9800.21
-9800.21
-9800.21
-9800.2
-9800.21
-0.00461784
-0.0108102
0.00174879
-0.00256348
0.00828345
0.0158508
0.0127061
0.0172759
-0.00150817
-0.000417509
0.00592282
0.0106215
0.00117892
0.00592251
0.00273935
0.00954574
0.00857198
-0.000231611
0.000271739
0.00259296
-9799.93
-9799.84
-9799.98
-9799.91
-9800.04
-9800.07
-9800.04
-9800.06
-9799.87
-9799.95
-9800.04
-9800.05
-9799.86
-9800.02
-9800.02
-9800.04
-9800.03
-9799.89
-9799.94
-9800.01
-9800.2
-9800.21
-9800.21
-9800.23
-9800.21
-9800.21
-9800.21
-9800.21
-9800.21
-9800.19
-9800.19
-9800.19
-9800.21
-9800.2
-9800.19
-9800.19
-9800.2
-9800.2
-9800.2
-9800.2
-9800.2
-9800.21
-9800.21
-9800.22
-9800.21
-9800.21
-9800.21
-9800.21
-9800.21
-9800.2
-9800.2
-9800.2
-9800.21
-9800.2
-9800.2
-9800.2
-9800.2
-9800.2
-9800.2
-9800.2
-9800.21
-9800.21
-9800.21
-9800.21
-9800.21
-9800.21
-9800.21
-9800.22
-9800.21
-9800.21
-9800.21
-9800.21
-9800.21
-9800.21
-9800.2
-9800.21
-9800.2
-9800.21
-9800.21
-9800.22
-9800.21
-9800.21
-9800.21
-9800.21
-9800.21
-9800.2
-9800.2
-9800.2
-9800.21
-9800.2
-9800.2
-9800.2
-9800.2
-9800.2
-9800.2
-9800.2
-0.00842622
-0.0113309
-0.00448756
0.0042495
0.00111986
0.00336492
-0.0130658
-0.00588298
0.00434297
-0.00367995
-0.000312695
-0.00532466
-0.00835412
-0.00205164
-0.00589273
-0.0063192
-0.0131009
-0.00302953
-0.000180775
-0.0121241
-0.0151782
-0.00600034
0.00560843
-0.00166464
-0.000803572
-0.00298385
-0.00593023
-0.000829042
-9799.86
-9799.87
-9799.88
-9800.02
-9799.95
-9799.94
-9799.82
-9799.87
-9799.97
-9799.82
-9799.85
-9799.88
-9799.83
-9799.91
-9799.89
-9799.91
-9799.84
-9799.88
-9799.89
-9799.82
-9799.82
-9799.9
-9800
-9799.9
-9799.95
-9799.91
-9799.84
-9799.8
-9800.2
-9800.2
-9800.21
-9800.2
-9800.22
-9800.22
-9800.22
-9800.22
-9800.22
-9800.23
-9800.22
-9800.2
-9800.2
-9800.19
-9800.19
-9800.19
-9800.19
-9800.2
-9800.2
-9800.2
-9800.19
-9800.19
-9800.19
-9800.19
-9800.19
-9800.2
-9800.21
-9800.22
-9800.21
-9800.2
-9800.21
-9800.21
-9800.22
-9800.22
-9800.22
-9800.21
-9800.22
-9800.22
-9800.22
-9800.21
-9800.21
-9800.2
-9800.2
-9800.2
-9800.2
-9800.2
-9800.2
-9800.2
-9800.2
-9800.19
-9800.2
-9800.2
-9800.19
-9800.2
-9800.21
-9800.21
-9800.2
-9800.2
-9800.21
-9800.21
-9800.22
-9800.21
-9800.21
-9800.22
-9800.22
-9800.22
-9800.21
-9800.21
-9800.2
-9800.2
-9800.2
-9800.2
-9800.2
-9800.2
-9800.2
-9800.2
-9800.2
-9800.2
-9800.2
-9800.2
-9800.2
-9800.2
-9800.2
-9800.21
-0.00291129
0.00540686
0.00672848
0.00770765
-9799.84
-9799.95
-9799.94
-9799.98
)
;

boundaryField
{
    top_fluid_surface
    {
        type            totalPressure;
        rho             rho;
        psi             none;
        gamma           1;
        p0              uniform 0;
        value           nonuniform List<scalar> 
64
(
-8.05021e-09
0
0
0
0
-6.69368e-10
-1.86609e-09
-2.46884e-09
0
0
0
-8.93994e-09
-2.90956e-08
-2.269e-08
0
-3.14055e-08
0
0
0
0
-1.65917e-10
-5.25252e-10
0
0
-5.19076e-10
0
0
0
0
-5.72588e-11
0
0
-1.31735e-08
-2.22557e-08
-7.86221e-09
0
0
0
-6.04211e-08
-1.10809e-08
0
-6.32231e-09
-2.10922e-09
-7.68179e-09
-8.65621e-09
-3.30536e-10
-1.18442e-08
-7.46851e-09
-3.57829e-08
-2.17629e-09
-1.42657e-09
-4.04127e-08
-5.90254e-08
-5.51139e-09
0
-1.82101e-09
-6.94611e-10
-3.14243e-09
-1.04092e-08
-2.89855e-10
-4.669e-09
0
0
0
)
;
    }
    bottom_fluid_surface
    {
        type            fixedFluxPressure;
        gradient        uniform 0;
        value           nonuniform List<scalar> 
64
(
-9800.21
-9800.21
-9800.21
-9800.21
-9800.21
-9800.21
-9800.21
-9800.22
-9800.21
-9800.21
-9800.21
-9800.21
-9800.21
-9800.21
-9800.2
-9800.21
-9800.2
-9800.21
-9800.21
-9800.22
-9800.21
-9800.21
-9800.21
-9800.21
-9800.21
-9800.2
-9800.2
-9800.2
-9800.21
-9800.2
-9800.2
-9800.2
-9800.2
-9800.2
-9800.2
-9800.2
-9800.2
-9800.2
-9800.21
-9800.21
-9800.22
-9800.21
-9800.21
-9800.22
-9800.22
-9800.22
-9800.21
-9800.21
-9800.2
-9800.2
-9800.2
-9800.2
-9800.2
-9800.2
-9800.2
-9800.2
-9800.2
-9800.2
-9800.2
-9800.2
-9800.2
-9800.2
-9800.2
-9800.21
)
;
    }
    lateral_surface_1
    {
        type            fixedFluxPressure;
        gradient        uniform 0;
        value           nonuniform List<scalar> 
40
(
-0.00842622
-0.0113309
-0.00448756
0.0042495
0.00111986
0.00336492
-0.0130658
-0.000829042
-9799.86
-9799.87
-9799.88
-9800.02
-9799.95
-9799.94
-9799.82
-9799.8
-9800.2
-9800.2
-9800.21
-9800.2
-9800.22
-9800.22
-9800.22
-9800.22
-9800.21
-9800.2
-9800.21
-9800.21
-9800.22
-9800.22
-9800.22
-9800.21
-9800.2
-9800.2
-9800.21
-9800.21
-9800.22
-9800.21
-9800.21
-9800.21
)
;
    }
    lateral_surface_2
    {
        type            fixedFluxPressure;
        gradient        uniform 0;
        value           nonuniform List<scalar> 
40
(
-0.00205164
-0.00589273
-0.0063192
-0.0131009
-0.00302953
-0.000180775
-0.0121241
-0.0151782
-9799.91
-9799.89
-9799.91
-9799.84
-9799.88
-9799.89
-9799.82
-9799.82
-9800.19
-9800.19
-9800.19
-9800.19
-9800.2
-9800.2
-9800.2
-9800.19
-9800.2
-9800.2
-9800.2
-9800.2
-9800.2
-9800.2
-9800.2
-9800.2
-9800.2
-9800.2
-9800.2
-9800.2
-9800.2
-9800.2
-9800.2
-9800.2
)
;
    }
    lateral_surface_3
    {
        type            fixedFluxPressure;
        gradient        uniform 0;
        value           nonuniform List<scalar> 
40
(
-0.0130658
-0.00588298
0.00434297
-0.00367995
-0.000312695
-0.00532466
-0.00835412
-0.00205164
-9799.82
-9799.87
-9799.97
-9799.82
-9799.85
-9799.88
-9799.83
-9799.91
-9800.22
-9800.22
-9800.22
-9800.23
-9800.22
-9800.2
-9800.2
-9800.19
-9800.22
-9800.21
-9800.22
-9800.22
-9800.22
-9800.21
-9800.21
-9800.2
-9800.21
-9800.22
-9800.22
-9800.22
-9800.21
-9800.21
-9800.2
-9800.2
)
;
    }
    lateral_surface_4
    {
        type            fixedFluxPressure;
        gradient        uniform 0;
        value           nonuniform List<scalar> 
40
(
-0.0151782
-0.00600034
0.00560843
-0.00166464
-0.000803572
-0.00298385
-0.00593023
-0.000829042
-9799.82
-9799.9
-9800
-9799.9
-9799.95
-9799.91
-9799.84
-9799.8
-9800.19
-9800.19
-9800.19
-9800.19
-9800.19
-9800.2
-9800.21
-9800.22
-9800.2
-9800.19
-9800.2
-9800.2
-9800.19
-9800.2
-9800.21
-9800.21
-9800.2
-9800.2
-9800.2
-9800.2
-9800.2
-9800.2
-9800.2
-9800.21
)
;
    }
}


// ************************************************************************* //
