/*--------------------------------*- C++ -*----------------------------------*\
| =========                 |                                                 |
| \\      /  F ield         | OpenFOAM: The Open Source CFD Toolbox           |
|  \\    /   O peration     | Version:  v1612+                                |
|   \\  /    A nd           | Web:      www.OpenFOAM.com                      |
|    \\/     M anipulation  |                                                 |
\*---------------------------------------------------------------------------*/
FoamFile
{
    version     2.0;
    format      ascii;
    class       surfaceScalarField;
    location    "6";
    object      phi;
}
// * * * * * * * * * * * * * * * * * * * * * * * * * * * * * * * * * * * * * //

dimensions      [0 3 -1 0 0 0 0];

internalField   nonuniform List<scalar> 
816
(
-3.54229e-06
-9.77933e-06
4.16015e-06
-5.91377e-06
-1.16225e-05
2.67095e-05
2.42576e-06
5.79788e-06
-2.04498e-06
1.06036e-05
-2.03353e-05
-8.33329e-06
-7.57671e-08
5.47748e-06
7.19198e-06
-1.40789e-05
-1.56441e-06
8.195e-06
1.1966e-05
-2.44078e-05
0.000482013
-0.000263134
-4.33801e-06
-0.000156408
0.000192861
0.000389604
1.1631e-06
-6.9673e-05
8.43839e-05
3.3144e-06
2.60926e-05
-0.000164919
0.000365566
-3.07937e-05
-2.33366e-06
6.12303e-05
-9.64778e-05
-0.00012181
-7.59277e-07
0.000212723
-0.000189203
1.54265e-05
1.1809e-06
-1.38805e-05
-9.20878e-05
-1.40379e-05
8.70669e-06
-0.000219693
0.000306402
0.000178695
-2.95991e-07
-0.000135435
0.000112591
0.000209105
-0.000180009
-5.13881e-05
0.000141057
7.0598e-05
-2.76753e-06
-0.000125374
0.000198518
-0.000282402
2.67181e-06
-6.87968e-05
-6.76539e-05
5.86961e-06
-0.000211446
-9.82724e-05
7.64709e-06
3.70437e-06
-2.48319e-05
5.36257e-07
7.38665e-06
1.45843e-05
-2.31048e-05
5.87272e-06
1.21067e-05
4.96932e-06
1.18046e-06
1.29135e-06
2.22855e-05
-2.17641e-06
1.02136e-05
-8.03949e-06
-1.65368e-06
7.6501e-07
-2.52655e-06
1.58044e-06
-4.75143e-06
1.51875e-06
-2.22688e-05
8.40469e-06
1.61621e-05
7.81528e-06
-1.47004e-05
3.84109e-06
1.65589e-05
1.20695e-05
1.49997e-05
-1.2843e-05
6.33312e-06
5.94672e-06
-3.5053e-05
4.78882e-06
2.43174e-05
1.81752e-05
-2.90277e-05
6.33939e-06
7.02159e-06
2.50117e-06
2.39367e-05
4.34548e-06
-1.17594e-05
-1.57115e-05
8.53066e-06
3.65295e-06
-7.36992e-06
-9.5441e-08
-1.25417e-05
-6.82218e-07
-1.19485e-05
-1.02141e-05
-2.48725e-06
1.78458e-06
9.26139e-07
-1.45999e-06
-1.2013e-05
2.5781e-06
4.33171e-06
3.00963e-06
-8.87618e-07
-1.32293e-06
6.87443e-07
-2.73699e-06
-1.08862e-05
-1.6087e-06
-7.92118e-06
-2.26091e-06
-7.16022e-06
2.45019e-07
-1.46754e-06
7.57423e-06
6.52886e-06
-2.28365e-06
-1.60199e-05
-7.9983e-06
-1.02336e-05
-1.05853e-05
-1.31001e-05
-2.0823e-06
-5.21806e-07
1.03554e-05
-2.3908e-06
-7.66335e-06
-4.78165e-06
-3.85097e-06
-2.94129e-06
-6.03886e-06
3.06932e-06
-2.36179e-06
-3.33351e-06
1.34116e-06
4.21777e-06
-1.50184e-06
3.62482e-06
-4.57341e-06
4.44369e-07
3.74892e-06
1.59172e-06
-7.48085e-07
5.00766e-06
4.45391e-06
-4.59223e-06
-1.68017e-07
-5.63915e-07
-4.16463e-06
-7.69794e-06
-1.252e-06
-1.63636e-06
1.05799e-06
-1.03016e-06
-7.08103e-06
2.6159e-07
2.3881e-06
1.61454e-06
-8.77705e-08
4.48035e-07
4.43822e-07
-5.96986e-07
-1.94978e-06
-1.14746e-06
-4.18373e-06
-3.16135e-06
-1.82549e-06
2.15055e-07
-2.45122e-06
-2.73458e-07
4.93624e-06
1.47796e-06
-1.08137e-06
-4.77534e-06
-5.80953e-06
-4.67195e-06
-5.75309e-06
-8.22768e-07
-3.86676e-06
-1.48045e-08
-8.88991e-07
3.13396e-06
-2.70009e-06
-2.51998e-06
-2.6466e-06
5.06358e-05
3.02636e-06
0.00018698
-0.000136194
0.000330506
7.72525e-07
-6.36674e-05
0.000161368
1.06919e-05
-5.73316e-07
0.000181703
0.00019945
-2.04355e-05
0.000190166
2.12448e-05
-0.00022373
-0.000269889
-4.31286e-05
1.67183e-05
-0.000112061
-0.00024236
7.23074e-06
-0.000273467
-0.000582818
-8.18475e-07
-0.000210898
-0.000403227
-5.56541e-06
-0.000126342
0.000107537
4.91831e-06
-0.000198002
-0.000296541
-3.44975e-05
-9.48105e-07
-0.000220728
-0.00022083
4.76409e-07
-0.000473506
-0.000114974
4.00352e-06
-0.000175314
-0.000197601
1.26996e-05
-0.000277754
0.000383611
9.35138e-08
-0.000434326
-0.000281899
7.24206e-05
-2.53505e-06
-1.69453e-07
-0.0001983
-2.18271e-06
-0.000262089
-0.000151999
8.74593e-06
-0.000105119
-0.000162019
5.10171e-06
-0.000149515
8.33379e-06
-0.000229709
-0.000139191
-1.40045e-05
-8.55635e-07
1.41871e-05
5.85575e-06
-1.88611e-06
-1.69359e-05
-4.44986e-06
1.74176e-06
-1.3245e-05
1.52702e-05
-1.59019e-06
3.82423e-06
1.11045e-05
1.49511e-05
3.64898e-05
-1.77712e-05
-2.25222e-05
1.93807e-06
4.53789e-05
-7.28231e-07
-5.95367e-06
3.16993e-05
-2.51643e-05
-2.66676e-05
5.31515e-05
-3.22662e-05
-2.00024e-05
-3.73974e-06
-3.08345e-06
1.17598e-05
-1.62385e-05
1.48471e-06
-1.38442e-05
-4.57123e-06
2.72087e-05
5.78367e-07
-2.07909e-05
3.78794e-05
-1.64816e-05
5.54297e-06
-3.21655e-05
-1.83816e-06
7.54409e-06
2.98879e-05
-1.85233e-05
2.19987e-05
1.64642e-05
-2.63458e-05
-5.26026e-06
1.33909e-06
2.23408e-05
1.52149e-05
-1.70345e-05
3.2235e-05
-1.55387e-05
-7.28457e-06
1.06555e-05
-8.12041e-06
1.33225e-07
-4.55994e-07
-4.9842e-06
2.46852e-05
-9.63857e-06
-2.05311e-05
5.61956e-06
2.04904e-06
6.69518e-06
-4.92105e-06
-2.80068e-06
-8.32899e-06
-8.58284e-07
-5.35968e-06
-5.29823e-06
-7.86588e-06
-2.21681e-06
1.9977e-06
-2.71377e-06
-6.00011e-06
1.68617e-05
1.20009e-05
1.14196e-05
2.03995e-06
2.0334e-05
4.9779e-06
6.19767e-06
1.43806e-05
1.61897e-05
1.6119e-05
2.4307e-05
1.95896e-05
9.91544e-06
-1.73572e-06
2.59635e-06
-7.07072e-06
-7.57576e-06
1.82348e-06
6.49199e-06
2.76782e-07
1.23222e-05
-3.61121e-07
1.0049e-05
1.73657e-05
1.09446e-05
-2.55279e-06
-1.45733e-05
1.52399e-06
-7.8789e-07
1.3406e-05
6.71128e-06
-7.45092e-06
7.33292e-06
1.03892e-05
5.41181e-06
-8.74576e-07
1.02777e-05
-4.76076e-06
6.31563e-06
1.4602e-05
8.33655e-06
6.0578e-06
4.89138e-06
3.63907e-06
3.01753e-06
-1.2087e-07
-1.11782e-06
1.07374e-05
7.47697e-06
1.15501e-05
3.15197e-06
1.19399e-06
2.29153e-06
-2.63003e-06
-2.07702e-06
-2.70844e-06
-9.28284e-07
-3.90394e-06
2.07728e-07
-4.96108e-06
-1.18993e-06
2.59355e-07
-1.9783e-06
-3.09664e-06
5.20631e-06
6.48104e-06
7.09156e-06
8.62246e-07
7.47487e-06
1.84551e-06
3.69375e-06
4.7352e-06
8.43793e-06
9.6962e-06
7.80755e-06
1.09246e-05
6.24437e-06
-7.35643e-07
1.28166e-06
-4.39024e-06
-1.0937e-06
6.28783e-07
3.5148e-06
1.58681e-07
3.59955e-06
-2.92566e-08
5.88138e-06
5.69776e-06
6.17561e-06
-1.59438e-06
-3.39202e-06
1.21719e-06
-3.68782e-07
4.03394e-06
3.35157e-06
-4.51573e-06
2.09493e-06
5.89659e-06
3.4732e-06
-5.91388e-07
3.79702e-06
-3.25603e-06
3.73287e-06
4.37933e-06
5.08248e-06
3.25027e-06
2.08307e-06
2.42624e-06
1.67137e-06
-2.24086e-07
-8.40906e-07
2.44298e-06
4.59542e-06
6.58084e-06
-1.21447e-06
-2.70615e-06
1.65843e-06
-1.07128e-06
1.60789e-06
7.23994e-07
7.99556e-08
-3.21319e-06
-7.23148e-08
2.15823e-06
-7.56215e-07
3.57106e-06
-3.72207e-06
9.7712e-07
2.48453e-07
-3.57681e-06
-1.03897e-06
8.05722e-07
-3.66854e-07
-3.73843e-06
4.03888e-07
3.79424e-07
-1.89664e-07
-7.67863e-07
-1.00042e-06
-3.02201e-07
-2.06703e-06
-5.15681e-07
6.31031e-07
-4.9909e-07
1.36304e-06
-1.22787e-06
-1.25335e-06
-2.71024e-06
-3.05886e-06
1.03632e-07
-3.1459e-07
-6.81683e-07
-1.79192e-06
-1.75805e-07
6.04639e-07
1.19815e-06
-1.28241e-06
-1.90359e-06
6.65103e-08
-1.12046e-06
-1.58524e-06
-6.38452e-07
-5.65148e-07
-1.11108e-06
2.28892e-06
3.38987e-06
1.23664e-06
1.37265e-06
2.3798e-06
3.97605e-06
5.16987e-06
4.24985e-06
2.82279e-06
1.30212e-06
-1.26756e-06
6.09238e-07
2.39153e-06
2.8806e-07
-2.8585e-08
3.07838e-06
3.5265e-06
2.12434e-07
8.35792e-07
4.97447e-07
2.49586e-06
-2.10596e-06
2.8289e-06
1.85915e-06
-2.20381e-07
-8.25573e-07
1.71433e-06
2.54424e-06
2.24266e-06
8.74641e-07
1.38472e-06
4.61397e-07
2.19168e-06
2.83649e-06
0.000125381
-1.32411e-05
-2.75862e-06
0.000287555
1.84509e-05
0.000427627
1.19972e-05
0.000200973
2.47463e-06
9.88873e-06
1.6824e-06
-0.000327756
-1.79878e-06
0.000253813
2.11961e-05
0.000243022
6.39256e-06
-6.12547e-05
-9.26125e-06
-0.0001433
-4.24126e-06
-0.00027233
-3.86216e-06
-0.000185092
2.20509e-06
-6.83388e-05
-5.82427e-06
-2.21089e-05
5.00337e-06
-6.10163e-05
6.5901e-06
-5.41915e-05
1.81246e-06
2.17221e-06
-3.71927e-06
-4.80917e-05
-3.59359e-06
-0.000297317
1.52805e-05
-0.000228017
1.25668e-05
0.000411964
-4.93378e-07
0.00035042
-8.79023e-07
8.62765e-05
-1.13633e-05
-7.73299e-05
-2.42823e-06
-0.000143718
1.02603e-05
-0.000169621
1.64694e-05
-6.3755e-05
2.7159e-06
-7.61457e-06
5.10045e-06
-9.58017e-06
-1.37039e-05
-1.59967e-06
1.86878e-05
1.38465e-05
-9.59218e-06
-1.27795e-06
2.83437e-05
-2.17133e-05
2.05221e-05
-3.12618e-05
-1.38996e-05
2.13364e-05
-3.22654e-05
2.02607e-05
-1.59084e-05
-1.50155e-05
1.83494e-05
-7.61334e-06
-3.74094e-05
1.28688e-05
-5.82529e-05
2.17653e-05
-1.00852e-05
4.9452e-06
4.68957e-06
-1.18047e-05
1.90005e-05
-1.54248e-06
-1.99364e-05
-3.09183e-06
1.94385e-06
-8.15281e-06
-1.93075e-05
-4.98977e-06
-7.77841e-06
-2.65379e-06
-8.47425e-06
-4.38927e-06
-1.33587e-05
2.97445e-05
-3.60716e-05
1.53379e-05
6.22556e-06
-1.42766e-05
2.55663e-05
-5.22418e-06
-2.7253e-05
-3.46146e-06
-6.68132e-07
-5.46639e-06
1.1369e-05
-2.98569e-07
-2.62281e-05
-2.3584e-05
-7.94248e-06
9.05416e-06
-7.33441e-06
-2.1307e-06
7.98018e-06
-8.06553e-06
-4.50039e-06
-6.7848e-07
1.30576e-05
7.22207e-06
9.89578e-06
1.00011e-05
-4.67676e-06
-6.83454e-06
-1.53987e-05
-2.84905e-06
-8.42292e-06
1.14069e-05
9.07877e-06
5.31465e-06
-1.51379e-05
-8.04593e-06
-2.53127e-05
-9.74034e-06
-5.78617e-06
-5.31932e-06
2.09536e-06
5.18214e-06
8.50679e-06
1.13094e-06
-9.37965e-06
1.8635e-06
8.51822e-07
2.62297e-06
-9.12275e-06
3.1591e-07
-3.9566e-06
2.53946e-06
-3.98277e-06
5.37518e-06
-5.80346e-06
-1.39452e-05
-1.67403e-05
-4.07843e-06
1.80386e-06
4.41063e-06
1.23077e-05
-1.84946e-06
-1.26646e-05
1.61984e-06
-4.54401e-07
7.4086e-06
4.46844e-06
4.62691e-06
-1.19001e-05
-9.90231e-06
-4.38431e-06
4.16206e-06
-2.51691e-06
-1.90426e-06
2.89479e-06
-5.16373e-06
-2.14445e-06
-1.05762e-06
3.99951e-06
4.62953e-06
2.24904e-06
6.6613e-06
-2.08257e-07
-4.39159e-06
-4.372e-06
-2.8535e-06
-2.86624e-06
5.89726e-06
2.19127e-06
4.2655e-06
-5.05305e-06
-3.63762e-06
-6.47475e-06
-5.26611e-06
-2.8755e-06
-3.21018e-06
6.73977e-07
3.4324e-06
1.86709e-06
6.34145e-07
-3.06413e-06
1.07498e-06
3.84247e-07
1.17147e-06
-3.0494e-06
3.01353e-08
-1.60187e-06
1.72114e-06
-2.31088e-06
3.55474e-06
-1.74613e-06
-7.82657e-06
-5.39431e-06
-2.92061e-06
3.73612e-07
3.24341e-06
2.90795e-06
-5.73769e-07
-3.74768e-06
6.91154e-07
6.87853e-07
4.01201e-06
3.2716e-07
2.02605e-06
-3.32837e-06
-3.7138e-06
-2.82522e-06
2.50172e-06
-1.20298e-06
-3.26292e-06
-8.45084e-07
8.46259e-07
2.96031e-06
-1.4051e-06
-8.99511e-07
2.6594e-06
1.58201e-06
-6.3523e-07
-2.20257e-06
-9.03857e-07
9.73835e-07
3.09945e-07
6.56834e-07
1.11905e-06
3.47058e-07
5.43283e-07
1.67149e-06
-3.72329e-06
-1.51241e-06
5.54891e-07
-6.51231e-07
9.15279e-07
1.70469e-06
1.21504e-06
0.000126651
0.000157508
-2.30438e-07
-0.000138934
-3.12668e-06
0.000307483
-1.10602e-05
1.49364e-05
6.81929e-06
1.64107e-05
-9.72291e-06
8.82636e-06
)
;

boundaryField
{
    top_fluid_surface
    {
        type            calculated;
        value           nonuniform List<scalar> 
64
(
-0.000231266
8.16422e-05
0.000125706
6.25952e-05
5.60795e-05
-4.22521e-05
-8.4582e-05
-0.000157925
1.56281e-05
1.2734e-05
0.000465171
-0.000239774
-0.000127318
-0.000403712
6.09664e-05
-0.000105119
0.000360677
0.000678208
0.000524208
0.000759965
-4.41577e-05
-3.54246e-05
0.000277887
0.000456845
-2.01416e-05
0.000247094
0.000128162
0.000426097
0.000406416
-1.38413e-05
2.54631e-05
0.000165434
-0.00031386
-0.000407194
-0.000209369
0.000222643
0.000113212
0.000133515
-0.000605966
-0.000261739
0.000236234
-0.000185116
-6.9059e-05
-0.000227653
-0.000283667
-6.21368e-05
-0.00026621
-0.000241603
-0.000517885
-0.000128182
-5.52792e-05
-0.000522652
-0.000638802
-0.000218362
0.000300686
-9.25835e-05
-5.0753e-05
-0.000135209
-0.00025412
-3.40468e-05
-0.000158525
0.000256203
0.000281548
0.000295994
)
;
    }
    bottom_fluid_surface
    {
        type            calculated;
        value           uniform 0;
    }
    lateral_surface_1
    {
        type            calculated;
        value           uniform 0;
    }
    lateral_surface_2
    {
        type            calculated;
        value           uniform 0;
    }
    lateral_surface_3
    {
        type            calculated;
        value           uniform 0;
    }
    lateral_surface_4
    {
        type            calculated;
        value           uniform 0;
    }
}


// ************************************************************************* //
