/*--------------------------------*- C++ -*----------------------------------*\
| =========                 |                                                 |
| \\      /  F ield         | OpenFOAM: The Open Source CFD Toolbox           |
|  \\    /   O peration     | Version:  v1612+                                |
|   \\  /    A nd           | Web:      www.OpenFOAM.com                      |
|    \\/     M anipulation  |                                                 |
\*---------------------------------------------------------------------------*/
FoamFile
{
    version     2.0;
    format      ascii;
    class       volVectorField;
    location    "6";
    object      U;
}
// * * * * * * * * * * * * * * * * * * * * * * * * * * * * * * * * * * * * * //

dimensions      [0 1 -1 0 0 0 0];

internalField   nonuniform List<vector> 
320
(
(-1.55147e-06 -1.03631e-05 1.76321e-05)
(-4.43562e-06 -9.00304e-06 -1.45262e-05)
(-1.73985e-05 -8.40055e-06 -1.1977e-05)
(2.61079e-06 1.468e-05 -1.74086e-05)
(0.00052758 8.9948e-05 -0.000126887)
(0.000361924 2.68447e-05 2.73071e-05)
(0.00039085 2.09881e-05 3.68793e-05)
(3.81384e-05 1.13984e-05 3.93715e-05)
(0.000228206 -9.14539e-05 2.81001e-05)
(-2.09352e-05 -0.000125954 -3.65887e-05)
(1.66371e-05 -0.000247448 -6.10916e-05)
(-1.45072e-05 -0.000227772 -7.02686e-05)
(-0.000265553 -1.91045e-05 0.00016903)
(-6.02926e-05 -0.000321397 -6.91748e-06)
(-0.00018997 0.000198426 0.000245298)
(-1.1514e-05 0.00028858 -0.000133716)
(4.85328e-06 -4.29598e-06 3.10104e-05)
(7.58448e-06 7.37062e-06 2.47902e-05)
(2.43879e-05 4.35721e-06 -1.39919e-07)
(-3.94348e-06 4.96528e-06 -1.13803e-05)
(1.47823e-05 -1.01349e-05 1.59468e-06)
(9.88543e-06 1.25264e-05 2.86076e-05)
(-1.28992e-05 2.24437e-06 2.02552e-05)
(-1.87487e-06 -2.08784e-05 -1.67688e-05)
(-2.17587e-05 1.59301e-05 3.98835e-05)
(-1.32368e-05 -2.77191e-05 3.23048e-05)
(-2.28889e-05 -6.20041e-06 -3.07026e-05)
(-1.09255e-05 -2.56764e-07 1.59005e-05)
(-5.6928e-06 6.49564e-07 1.95233e-05)
(-8.83766e-06 -3.78801e-06 2.06715e-05)
(-1.67176e-05 1.80033e-06 -2.23675e-06)
(-5.52419e-07 1.08565e-06 -1.0642e-05)
(-6.62191e-06 4.63191e-06 2.25922e-06)
(-2.93097e-06 -6.61799e-06 1.64227e-05)
(8.5956e-06 -3.50391e-07 9.95159e-06)
(-3.73563e-06 8.29727e-06 -1.43928e-05)
(6.3792e-06 -1.25259e-05 2.69833e-05)
(5.36054e-06 1.68636e-05 2.27718e-05)
(1.1831e-05 2.69927e-06 -1.65948e-05)
(6.00019e-06 -1.33179e-06 1.37551e-05)
(-1.88233e-06 -6.82988e-06 5.55089e-06)
(-3.31229e-06 -5.76749e-06 -5.12169e-06)
(-9.89405e-06 -4.86649e-06 -1.52571e-06)
(1.74248e-06 8.94479e-06 -6.9548e-06)
(-2.98502e-06 4.34224e-08 5.78472e-06)
(-6.06535e-06 -3.35239e-06 5.57395e-07)
(-9.90643e-06 7.22437e-07 8.73747e-08)
(-2.53223e-07 9.77848e-07 1.64183e-06)
(-3.73055e-06 4.21181e-06 9.14385e-07)
(-1.72661e-06 -3.45578e-06 4.95899e-06)
(5.76597e-06 -9.46564e-08 3.67024e-06)
(-2.2292e-06 5.83268e-06 -1.06323e-06)
(2.80944e-06 -7.14956e-06 6.53389e-06)
(2.36955e-06 9.29128e-06 4.8317e-06)
(5.95459e-06 1.14154e-06 -4.94607e-06)
(3.45179e-06 -9.89109e-07 2.79594e-06)
(-0.000238434 0.000148758 -0.000241228)
(0.000322439 0.000209406 -0.000213026)
(0.000241206 0.000115858 1.28621e-05)
(0.000136916 0.000222978 -0.000250621)
(0.000126251 0.000465929 0.000179877)
(0.000312517 -7.23249e-05 0.000352728)
(5.5281e-05 -2.54921e-05 0.000273793)
(0.000188677 -0.000459875 0.000417683)
(-4.35997e-06 -0.00065096 -1.82163e-05)
(-6.10072e-05 -0.000139327 -3.24115e-05)
(-0.000175915 -4.68661e-05 0.000155547)
(0.000238984 -0.00019055 0.000251958)
(0.000239496 -7.96191e-05 -3.22204e-05)
(-2.42641e-05 -0.000156433 0.000128078)
(0.000442122 -0.000519498 7.26273e-05)
(-2.57283e-06 -0.000265318 0.00023083)
(0.000313312 0.000141276 0.00022652)
(0.000332773 0.000285942 -1.07013e-05)
(0.00024655 4.12239e-05 7.29357e-06)
(0.000244812 0.00023774 8.9114e-05)
(-2.17809e-05 -1.45959e-05 -1.86068e-05)
(-4.76697e-06 3.72929e-06 2.06664e-05)
(-4.64814e-07 -1.79827e-05 1.38983e-05)
(3.54247e-06 -6.49607e-06 -2.48102e-06)
(-6.37018e-06 2.70184e-05 -4.15363e-05)
(1.75344e-05 -1.15846e-07 -6.05422e-05)
(-1.23613e-05 4.80125e-06 -3.77509e-05)
(-1.2146e-05 -1.86294e-05 -7.35754e-05)
(5.23147e-06 -3.0913e-05 3.47182e-06)
(-2.71242e-06 -9.75927e-06 1.83757e-05)
(-1.83757e-05 1.62078e-05 -3.13857e-05)
(2.77216e-05 3.50628e-06 -4.79928e-05)
(1.1774e-05 -6.45553e-06 3.92024e-05)
(-2.1845e-05 -6.40972e-06 -3.44524e-05)
(7.02161e-06 -3.00357e-05 -1.73797e-05)
(-2.82495e-05 -1.22705e-05 -3.04342e-05)
(2.37692e-06 9.82683e-06 -4.22217e-05)
(1.27369e-05 2.05483e-05 -1.27188e-05)
(5.55375e-06 -3.18741e-06 8.13093e-07)
(2.29298e-05 2.74286e-06 -2.94903e-05)
(9.3061e-06 9.99664e-06 -8.91234e-06)
(9.04521e-07 1.19667e-06 1.29545e-05)
(-5.5867e-06 9.23327e-06 1.27053e-05)
(-6.78884e-06 1.62886e-06 -5.19968e-06)
(3.41748e-06 -1.47316e-05 -2.81739e-05)
(-5.11391e-06 2.45009e-06 -3.0049e-05)
(7.92805e-06 1.09302e-06 -2.3959e-05)
(8.65453e-06 1.23033e-05 -3.6835e-05)
(-2.48035e-07 1.77339e-05 2.94402e-06)
(4.09699e-06 4.36838e-06 1.51964e-05)
(1.14627e-05 -7.62235e-06 -2.0787e-05)
(-1.23052e-05 1.21794e-06 -2.66899e-05)
(-5.22075e-06 5.01709e-06 2.45989e-05)
(9.17495e-06 -1.89288e-06 -2.2641e-05)
(-7.32741e-06 1.15239e-05 -1.29878e-05)
(1.28868e-05 4.48399e-06 -1.57785e-05)
(-1.4921e-06 -2.95039e-06 -2.39559e-05)
(-6.18616e-06 -9.72442e-06 -7.48974e-06)
(1.2996e-06 -1.87556e-06 -3.03297e-07)
(-1.32233e-05 -4.87817e-06 -1.92363e-05)
(5.08365e-06 5.62425e-06 -4.13271e-06)
(4.80995e-07 1.36424e-06 4.31355e-06)
(-3.99127e-06 5.95273e-06 -1.77132e-06)
(-4.75302e-06 1.63917e-06 8.05507e-07)
(2.90943e-06 -7.6665e-06 -7.53877e-06)
(-3.2336e-06 1.14743e-06 -1.191e-05)
(4.22975e-06 4.0856e-07 -6.35861e-06)
(5.02119e-06 7.47148e-06 -1.20303e-05)
(-5.18276e-07 1.07016e-05 1.09843e-06)
(2.45663e-06 2.9442e-06 2.3988e-07)
(7.06589e-06 -4.1976e-06 -5.12569e-06)
(-7.54621e-06 8.40587e-07 -8.71392e-06)
(-2.83888e-06 3.82109e-06 4.58149e-06)
(5.38305e-06 -1.42559e-06 -5.61405e-06)
(-4.52075e-06 6.78148e-06 -2.88908e-06)
(7.93574e-06 2.81927e-06 -5.24369e-06)
(-9.86848e-07 -1.72138e-06 -5.84182e-06)
(-3.80798e-06 -5.7478e-06 -2.83819e-06)
(1.14287e-06 -8.27514e-07 6.66163e-07)
(-7.22545e-06 -2.8648e-06 -2.99877e-06)
(-1.63265e-06 -3.31728e-06 1.45789e-06)
(-3.66121e-07 -1.65608e-06 -1.77597e-06)
(-5.6581e-06 -1.8971e-06 -1.33967e-06)
(-4.6346e-08 5.32399e-06 -1.63522e-06)
(-3.38906e-06 -3.28855e-07 2.30779e-06)
(-3.51482e-06 -4.96499e-08 2.50942e-06)
(-4.37101e-06 1.12582e-06 -4.59066e-07)
(4.17195e-07 1.51184e-07 -1.4156e-06)
(-1.85851e-06 8.58269e-07 3.22037e-07)
(-5.28593e-07 -1.31185e-06 1.62956e-06)
(2.38926e-06 1.00226e-06 1.54148e-06)
(-1.24075e-06 1.73914e-06 -1.56527e-06)
(2.17151e-06 -2.40636e-06 2.65453e-06)
(9.8461e-07 4.93207e-06 2.65338e-06)
(3.41173e-06 6.12978e-07 -1.40859e-06)
(1.39268e-06 2.01409e-07 2.02177e-06)
(2.30081e-06 2.92131e-06 -6.69858e-07)
(-1.38158e-06 -3.51183e-08 8.31071e-07)
(-1.8208e-06 2.12646e-06 1.30203e-06)
(-9.48927e-07 -2.34554e-07 -1.14976e-06)
(4.57192e-08 -3.42639e-06 -2.45425e-06)
(-2.30213e-06 1.31647e-06 -3.08224e-06)
(6.43248e-07 8.56418e-07 -2.62125e-06)
(7.30893e-07 4.37819e-06 -3.74042e-06)
(3.47075e-08 5.17375e-06 2.16804e-07)
(6.11835e-07 1.14299e-06 1.60829e-06)
(2.31301e-06 -2.39987e-06 -2.19242e-06)
(-3.09734e-06 6.82599e-07 -3.02408e-06)
(-2.24948e-06 1.20288e-06 2.46056e-06)
(1.62173e-06 2.81718e-07 -2.34527e-06)
(-2.45447e-06 3.35246e-06 -1.21486e-06)
(2.87927e-06 1.10202e-06 -2.24777e-06)
(-1.28081e-06 -6.56892e-07 -2.77708e-06)
(-1.81225e-06 -2.90923e-06 -1.17025e-06)
(-1.07918e-06 -1.43978e-06 -1.80248e-07)
(-4.39178e-06 -1.53434e-06 -2.06849e-06)
(0.000173823 0.000206832 -0.000162317)
(1.69238e-05 0.000122671 -0.000210977)
(0.000562597 -4.78416e-05 -0.000125397)
(0.000349503 -0.000117723 0.000127412)
(4.36417e-05 -0.00015512 6.73721e-05)
(-2.54169e-05 -2.34134e-05 6.17781e-05)
(-0.000577447 -3.94639e-06 -0.000347624)
(-0.000560777 0.000558363 -0.000148868)
(-0.000484749 -4.90876e-05 0.000140421)
(-0.000536819 -0.000110501 -0.000112448)
(-0.000570166 -0.000150598 -6.49496e-05)
(-0.000232159 -0.000374151 -0.00012395)
(-0.00029283 4.80478e-05 -0.000131577)
(-4.47708e-05 -0.000228232 -2.57113e-05)
(9.1718e-05 -0.000477037 -0.000153911)
(3.01694e-05 -0.000380411 -0.000122217)
(4.93025e-05 -0.000680737 -0.000267518)
(-4.90131e-05 -0.000192651 -6.59741e-05)
(0.000171948 -0.000394335 -5.34149e-05)
(0.000388677 -0.000387316 -0.000284298)
(1.19949e-05 -0.000341455 -0.000343585)
(5.75606e-05 -0.000547571 -0.000104989)
(-1.73677e-05 -0.000148326 0.00017917)
(0.000173897 1.39388e-05 -6.03492e-05)
(-0.000145258 0.000132145 -3.72723e-05)
(1.91452e-05 0.000198465 -7.92771e-05)
(1.33563e-05 7.88084e-05 -0.000144286)
(-0.000139286 5.43034e-05 -2.40772e-05)
(2.17512e-05 1.44069e-05 1.61231e-05)
(-1.19143e-05 7.16726e-07 -2.23466e-05)
(8.24004e-06 4.54148e-06 1.73137e-05)
(1.78107e-05 -1.22922e-05 -3.717e-05)
(-2.06123e-05 -1.37349e-05 -2.47983e-05)
(-2.64964e-05 1.18602e-05 1.37633e-05)
(-2.92698e-05 6.39358e-06 4.66806e-05)
(-3.47359e-05 3.75295e-05 2.30825e-05)
(-1.8759e-05 -1.63563e-06 -2.59595e-05)
(-3.62562e-05 -2.4711e-05 4.83869e-05)
(-4.82619e-05 7.45469e-06 6.63722e-05)
(-1.01768e-05 2.19586e-05 1.56772e-05)
(4.60236e-06 1.69772e-05 -8.83822e-06)
(1.65578e-05 -5.59148e-06 -2.08096e-05)
(5.99667e-06 -1.75426e-05 2.83017e-05)
(-3.38189e-06 -1.43004e-05 -1.03169e-06)
(9.76274e-06 -3.25361e-05 2.43941e-05)
(8.04181e-06 3.65642e-06 1.08969e-05)
(1.82034e-06 -2.88033e-05 1.46671e-05)
(2.60074e-06 -2.0008e-05 2.07055e-05)
(6.23808e-06 -2.43816e-05 4.9142e-05)
(1.86419e-06 -3.72602e-05 -6.84634e-06)
(-9.84997e-07 1.12848e-05 -3.485e-05)
(2.54182e-05 1.32635e-05 3.28909e-05)
(2.45468e-06 -3.02221e-06 6.54007e-07)
(1.85068e-06 9.93879e-06 -9.7626e-06)
(1.55784e-05 1.60154e-06 2.90282e-05)
(7.10496e-07 -4.61452e-07 2.47557e-05)
(-1.54204e-05 -9.12766e-06 1.16878e-05)
(-7.29846e-08 4.39929e-07 -1.16268e-05)
(-4.93002e-06 2.50701e-07 4.03948e-06)
(-9.26987e-06 6.27559e-06 -1.95636e-05)
(7.24538e-06 3.93476e-06 -1.84127e-05)
(8.61162e-06 -7.75862e-06 1.1047e-05)
(1.12481e-05 -1.25885e-06 2.28624e-05)
(1.77479e-05 -1.20934e-05 1.13499e-05)
(1.38865e-05 6.31114e-06 -1.38744e-05)
(2.16091e-05 1.48557e-05 2.27687e-05)
(2.76463e-05 -3.54389e-06 4.44499e-05)
(5.76417e-06 -1.11801e-05 6.5642e-06)
(-1.26538e-06 -9.82129e-06 -1.90895e-06)
(-8.42254e-06 1.05604e-07 -1.48936e-05)
(-2.44639e-06 7.26068e-06 1.44165e-05)
(2.18399e-07 6.64822e-06 -1.7271e-06)
(-4.04303e-06 1.85043e-05 1.48149e-05)
(-6.24058e-07 -1.61309e-06 5.12301e-06)
(-1.27216e-07 1.39076e-05 3.16652e-06)
(-4.6211e-06 7.68855e-06 8.08532e-06)
(-6.83343e-06 1.1202e-05 2.64018e-05)
(-3.3203e-06 1.56146e-05 -3.62864e-06)
(-2.74262e-06 -6.68915e-06 -1.95599e-05)
(-1.44938e-05 -2.20849e-06 2.11928e-05)
(-2.00203e-06 5.49077e-06 1.59804e-06)
(7.20623e-07 -8.37086e-06 -1.0169e-05)
(-8.49709e-06 -6.72446e-06 2.08746e-05)
(-1.12612e-06 -1.75687e-06 1.70039e-05)
(-7.77308e-06 -5.67909e-06 3.56576e-06)
(-7.77157e-07 1.6206e-07 -5.06948e-06)
(-3.31366e-06 1.81654e-07 3.90164e-06)
(-6.34045e-06 3.95675e-06 -6.84436e-06)
(3.71268e-06 2.5308e-06 -1.77747e-06)
(6.30583e-06 -4.50891e-06 -6.69059e-07)
(6.60709e-06 -8.65819e-07 5.83911e-06)
(1.02502e-05 -7.9001e-06 4.27702e-06)
(6.37341e-06 2.0427e-06 -2.86491e-06)
(1.11454e-05 9.23199e-06 8.62725e-06)
(1.51964e-05 -5.36202e-07 8.59337e-06)
(3.13803e-06 -6.01991e-06 4.53282e-06)
(-1.52498e-06 -5.50148e-06 -1.38253e-06)
(-5.30748e-06 -1.72595e-07 -2.37834e-06)
(-1.82222e-06 3.60994e-06 3.93874e-06)
(3.76981e-07 4.10621e-06 -4.19137e-07)
(-2.2526e-06 1.02987e-05 4.10156e-06)
(3.7042e-08 -1.18716e-06 2.48655e-06)
(-1.50936e-07 7.42276e-06 4.16271e-06)
(-3.11803e-06 4.34669e-06 2.70888e-06)
(-3.78557e-06 6.02e-06 7.58548e-06)
(-2.11228e-06 9.62806e-06 -5.5977e-07)
(-9.39043e-07 -3.61588e-06 -3.5426e-06)
(-8.54713e-06 -2.45207e-06 4.90187e-06)
(-1.6697e-06 3.27115e-06 -1.29775e-06)
(4.71662e-07 -4.40661e-06 -2.88414e-08)
(-5.24884e-06 -3.29193e-06 4.33848e-06)
(4.44952e-08 -3.85787e-07 5.34529e-06)
(-5.26248e-06 -2.56348e-06 1.00339e-06)
(-1.06543e-07 -6.13009e-08 -1.08119e-06)
(-2.59421e-06 -1.56139e-07 5.78172e-07)
(-3.31539e-06 1.15134e-06 -1.46639e-06)
(1.18184e-06 1.33847e-06 -2.33097e-06)
(8.80722e-07 -9.79444e-07 1.08952e-06)
(4.63241e-06 5.03442e-07 2.98764e-06)
(6.1153e-06 -3.41739e-06 1.72194e-06)
(4.64141e-06 1.72334e-06 -1.47755e-06)
(6.52218e-06 3.18416e-06 1.94115e-06)
(6.96912e-06 2.49723e-07 4.44332e-06)
(2.39371e-06 -1.43088e-06 9.34017e-07)
(3.64512e-07 -2.90434e-06 -2.68282e-07)
(-1.6536e-06 1.23629e-06 -1.5794e-06)
(-4.69771e-07 3.25443e-06 1.88263e-06)
(-6.82215e-08 2.31791e-06 -2.51537e-07)
(-1.21347e-06 5.63563e-06 1.63365e-06)
(-8.39855e-07 4.3405e-07 8.48307e-07)
(2.19236e-08 4.22601e-06 8.72231e-07)
(-1.17646e-06 2.03384e-06 1.08985e-06)
(-2.07679e-06 2.94799e-06 2.80841e-06)
(-1.16264e-06 4.33743e-06 -2.231e-07)
(-1.09181e-06 -1.23273e-06 -2.38281e-06)
(-3.49736e-06 2.40588e-07 2.17409e-06)
(-1.94334e-07 8.14606e-07 1.65344e-07)
(2.26458e-07 -2.37813e-06 -4.63567e-07)
(-1.1327e-06 -1.26204e-06 2.04411e-06)
(4.9875e-07 -9.32039e-07 1.57883e-06)
(6.03719e-05 0.000236718 -9.66333e-05)
(0.000172054 0.000137259 0.000146427)
(0.000467456 6.40465e-05 0.000161652)
(0.000135453 -0.000400259 0.000149223)
(2.8605e-06 1.82349e-05 3.52633e-05)
(8.18861e-06 1.44099e-05 -3.01641e-05)
(2.54665e-05 1.0955e-05 -1.94079e-05)
(-5.68419e-06 -3.24542e-05 -3.2148e-05)
)
;

boundaryField
{
    top_fluid_surface
    {
        type            pressureInletOutletVelocity;
        value           nonuniform List<vector> 
64
(
(0 0 -0.000126887)
(0.000361924 2.68447e-05 2.73071e-05)
(0.00039085 2.09881e-05 3.68793e-05)
(3.81384e-05 1.13984e-05 3.93715e-05)
(0.000228206 -9.14539e-05 2.81001e-05)
(0 0 -3.65887e-05)
(0 0 -6.10916e-05)
(0 0 -7.02686e-05)
(-0.000265553 -1.91045e-05 0.00016903)
(-6.02926e-05 -0.000321397 -6.91748e-06)
(-0.00018997 0.000198426 0.000245298)
(0 0 -0.000133716)
(0 0 -0.000241228)
(0 0 -0.000213026)
(0.000241206 0.000115858 1.28621e-05)
(0 0 -0.000250621)
(0.000126251 0.000465929 0.000179877)
(0.000312517 -7.23249e-05 0.000352728)
(5.5281e-05 -2.54921e-05 0.000273793)
(0.000188677 -0.000459875 0.000417683)
(0 0 -1.82163e-05)
(0 0 -3.24115e-05)
(-0.000175915 -4.68661e-05 0.000155547)
(0.000238984 -0.00019055 0.000251958)
(0 0 -3.22204e-05)
(-2.42641e-05 -0.000156433 0.000128078)
(0.000442122 -0.000519498 7.26273e-05)
(-2.57283e-06 -0.000265318 0.00023083)
(0.000313312 0.000141276 0.00022652)
(0 0 -1.07013e-05)
(0.00024655 4.12239e-05 7.29357e-06)
(0.000244812 0.00023774 8.9114e-05)
(0 0 -0.000162317)
(0 0 -0.000210977)
(0 0 -0.000125397)
(0.000349503 -0.000117723 0.000127412)
(4.36417e-05 -0.00015512 6.73721e-05)
(-2.54169e-05 -2.34134e-05 6.17781e-05)
(0 0 -0.000347624)
(0 0 -0.000148868)
(-0.000484749 -4.90876e-05 0.000140421)
(0 0 -0.000112448)
(0 0 -6.49496e-05)
(0 0 -0.00012395)
(0 0 -0.000131577)
(0 0 -2.57113e-05)
(0 0 -0.000153911)
(0 0 -0.000122217)
(0 0 -0.000267518)
(0 0 -6.59741e-05)
(0 0 -5.34149e-05)
(0 0 -0.000284298)
(0 0 -0.000343585)
(0 0 -0.000104989)
(-1.73677e-05 -0.000148326 0.00017917)
(0 0 -6.03492e-05)
(0 0 -3.72723e-05)
(0 0 -7.92771e-05)
(0 0 -0.000144286)
(0 0 -2.40772e-05)
(0 0 -9.66333e-05)
(0.000172054 0.000137259 0.000146427)
(0.000467456 6.40465e-05 0.000161652)
(0.000135453 -0.000400259 0.000149223)
)
;
    }
    bottom_fluid_surface
    {
        type            noSlip;
    }
    lateral_surface_1
    {
        type            noSlip;
    }
    lateral_surface_2
    {
        type            noSlip;
    }
    lateral_surface_3
    {
        type            noSlip;
    }
    lateral_surface_4
    {
        type            noSlip;
    }
}


// ************************************************************************* //
