/*--------------------------------*- C++ -*----------------------------------*\
| =========                 |                                                 |
| \\      /  F ield         | OpenFOAM: The Open Source CFD Toolbox           |
|  \\    /   O peration     | Version:  v1612+                                |
|   \\  /    A nd           | Web:      www.OpenFOAM.com                      |
|    \\/     M anipulation  |                                                 |
\*---------------------------------------------------------------------------*/
FoamFile
{
    version     2.0;
    format      ascii;
    class       volScalarField;
    location    "1.45";
    object      alpha.water;
}
// * * * * * * * * * * * * * * * * * * * * * * * * * * * * * * * * * * * * * //

dimensions      [0 0 0 0 0 0 0];

internalField   nonuniform List<scalar> 
320
(
1
1
1
1
3.77462e-06
3.63612e-06
3.61667e-06
2.77339e-06
2.82263e-06
4.25821e-06
2.49761e-06
3.34155e-06
5.33892e-06
3.42442e-06
4.68894e-06
3.43563e-06
0.999997
0.999997
0.999998
0.999998
0.999997
0.999996
0.999994
0.999998
0.999996
0.999999
0.999996
1
1
1
1
1
1
1
1
1
1
1
1
1
1
1
1
1
1
1
1
1
1
1
1
1
1
1
1
1
3.33723e-06
3.25624e-06
2.65097e-06
3.52141e-06
3.96766e-06
3.5322e-06
2.77339e-06
3.26951e-06
3.6462e-06
3.37242e-06
3.37958e-06
3.86037e-06
4.07365e-06
3.86434e-06
4.16353e-06
4.44389e-06
3.15298e-06
2.75082e-06
3.55833e-06
3.3027e-06
1
0.999998
0.999996
0.999999
1
1
1
1
1
0.999995
0.999999
0.999998
0.999997
0.999996
0.999994
0.999997
0.999997
0.999999
0.999998
0.999995
1
1
1
1
1
1
1
1
1
1
1
1
1
1
1
1
1
1
1
1
1
1
1
1
1
1
1
1
1
1
1
1
1
1
1
1
1
1
1
1
1
1
1
1
1
1
1
1
1
1
1
1
1
1
1
1
1
1
1
1
1
1
1
1
1
1
1
1
1
1
1
1
1
1
1
1
2.61426e-06
2.77885e-06
2.7149e-06
2.83722e-06
2.58128e-06
2.57547e-06
4.98722e-06
4.86022e-06
2.10411e-06
2.89349e-06
3.48653e-06
3.68848e-06
2.87262e-06
2.72959e-06
3.39845e-06
2.15739e-06
2.61088e-06
4.80395e-06
3.40723e-06
3.18026e-06
5.008e-06
3.62266e-06
2.38849e-06
2.39745e-06
3.25304e-06
4.429e-06
5.07084e-06
2.89288e-06
0.999995
0.999997
0.999993
0.999997
0.999998
0.999996
0.999996
0.999995
0.999997
0.999993
0.999991
0.999997
0.999999
0.999996
0.999991
0.999996
0.999995
0.999995
0.999996
0.999993
0.999993
0.999998
0.999996
0.999993
0.999992
0.999997
0.999994
0.999995
1
1
1
1
1
1
1
1
1
1
1
1
1
1
1
1
1
1
1
1
1
1
1
1
1
1
1
1
1
1
1
1
1
1
1
1
1
1
1
1
1
1
1
1
1
1
1
1
1
1
1
1
1
1
1
1
1
1
1
1
1
1
1
1
1
1
1
1
1
1
1
1
1
1
1
1
1
1
1
1
1
1
1
1
3.90738e-06
2.85945e-06
3.29869e-06
2.71128e-06
0.999998
0.999999
0.999998
0.999999
)
;

boundaryField
{
    top_fluid_surface
    {
        type            inletOutlet;
        inletValue      uniform 0;
        value           nonuniform List<scalar> 
64
(
0
0
0
2.77339e-06
2.82263e-06
0
2.49761e-06
3.34155e-06
0
0
0
3.43563e-06
3.33723e-06
3.25624e-06
2.65097e-06
0
0
3.5322e-06
2.77339e-06
3.26951e-06
0
0
3.37958e-06
0
0
3.86434e-06
0
0
3.15298e-06
2.75082e-06
3.55833e-06
3.3027e-06
2.61426e-06
2.77885e-06
2.7149e-06
2.83722e-06
2.58128e-06
2.57547e-06
0
0
2.10411e-06
2.89349e-06
0
0
2.87262e-06
2.72959e-06
0
2.15739e-06
2.61088e-06
0
0
3.18026e-06
0
0
2.38849e-06
2.39745e-06
0
0
0
2.89288e-06
0
2.85945e-06
0
2.71128e-06
)
;
    }
    bottom_fluid_surface
    {
        type            zeroGradient;
    }
    lateral_surface_1
    {
        type            zeroGradient;
    }
    lateral_surface_2
    {
        type            zeroGradient;
    }
    lateral_surface_3
    {
        type            zeroGradient;
    }
    lateral_surface_4
    {
        type            zeroGradient;
    }
}


// ************************************************************************* //
