/*--------------------------------*- C++ -*----------------------------------*\
| =========                 |                                                 |
| \\      /  F ield         | OpenFOAM: The Open Source CFD Toolbox           |
|  \\    /   O peration     | Version:  v1612+                                |
|   \\  /    A nd           | Web:      www.OpenFOAM.com                      |
|    \\/     M anipulation  |                                                 |
\*---------------------------------------------------------------------------*/
FoamFile
{
    version     2.0;
    format      ascii;
    class       volScalarField;
    location    "1.45";
    object      p_rgh;
}
// * * * * * * * * * * * * * * * * * * * * * * * * * * * * * * * * * * * * * //

dimensions      [1 -1 -2 0 0 0 0];

internalField   nonuniform List<scalar> 
320
(
-9800.2
-9800.21
-9800.2
-9800.21
-0.00258321
-0.00225527
-0.00155507
0.00314144
0.0031755
-0.00337736
0.00419578
0.00120926
-0.00807969
-0.000406337
-0.00587834
0.000745105
-9800.12
-9800.12
-9800.14
-9800.18
-9800.18
-9800.11
-9800.15
-9800.17
-9800.09
-9800.15
-9800.1
-9800.2
-9800.21
-9800.21
-9800.2
-9800.21
-9800.21
-9800.2
-9800.21
-9800.2
-9800.2
-9800.2
-9800.2
-9800.2
-9800.2
-9800.2
-9800.2
-9800.21
-9800.2
-9800.2
-9800.2
-9800.21
-9800.21
-9800.21
-9800.21
-9800.21
-9800.2
-9800.2
-9800.2
-9800.21
0.000562634
0.000567406
0.00271494
-0.000763733
-0.00321594
-8.65707e-05
0.00364488
0.000744002
-0.00144956
-0.000161751
0.000692478
-0.00160344
-0.00203184
-0.000706115
-0.00291769
-0.00532182
0.00181233
0.00351893
1.12214e-05
0.000479052
-9800.2
-9800.17
-9800.17
-9800.18
-9800.15
-9800.19
-9800.2
-9800.2
-9800.15
-9800.1
-9800.18
-9800.13
-9800.12
-9800.15
-9800.09
-9800.11
-9800.17
-9800.2
-9800.17
-9800.14
-9800.2
-9800.21
-9800.21
-9800.21
-9800.2
-9800.2
-9800.2
-9800.2
-9800.2
-9800.21
-9800.21
-9800.2
-9800.2
-9800.21
-9800.21
-9800.2
-9800.21
-9800.21
-9800.21
-9800.22
-9800.21
-9800.21
-9800.21
-9800.2
-9800.2
-9800.21
-9800.2
-9800.21
-9800.2
-9800.21
-9800.21
-9800.21
-9800.2
-9800.21
-9800.21
-9800.2
-9800.21
-9800.21
-9800.21
-9800.22
-9800.2
-9800.21
-9800.21
-9800.21
-9800.21
-9800.21
-9800.21
-9800.21
-9800.21
-9800.21
-9800.21
-9800.21
-9800.2
-9800.21
-9800.2
-9800.21
-9800.21
-9800.21
-9800.21
-9800.2
-9800.2
-9800.21
-9800.2
-9800.21
-9800.21
-9800.21
-9800.21
-9800.21
-9800.21
-9800.21
-9800.21
-9800.21
-9800.21
-9800.21
-9800.21
-9800.21
0.00307814
0.00310191
0.00242027
0.00241623
0.00369084
0.00443409
-0.00759833
-0.00730639
0.00655941
0.00216722
-0.00123996
-0.00208997
0.00252754
0.00357571
-0.000250681
0.00609633
0.00454521
-0.00552169
9.74742e-05
0.000274364
-0.00613696
-0.00268537
0.00516007
0.00471175
0.000326625
-0.0053702
-0.00885565
0.00105751
-9800.15
-9800.17
-9800.13
-9800.17
-9800.18
-9800.16
-9800.1
-9800.08
-9800.18
-9800.13
-9800.06
-9800.12
-9800.19
-9800.16
-9800.07
-9800.17
-9800.16
-9800.09
-9800.12
-9800.13
-9800.07
-9800.13
-9800.17
-9800.14
-9800.08
-9800.12
-9800.08
-9800.14
-9800.23
-9800.21
-9800.22
-9800.22
-9800.21
-9800.21
-9800.2
-9800.2
-9800.21
-9800.22
-9800.22
-9800.21
-9800.21
-9800.21
-9800.22
-9800.22
-9800.22
-9800.2
-9800.21
-9800.22
-9800.21
-9800.2
-9800.21
-9800.21
-9800.21
-9800.2
-9800.21
-9800.22
-9800.22
-9800.21
-9800.21
-9800.21
-9800.21
-9800.21
-9800.2
-9800.2
-9800.22
-9800.21
-9800.22
-9800.2
-9800.21
-9800.22
-9800.22
-9800.22
-9800.21
-9800.21
-9800.2
-9800.21
-9800.21
-9800.2
-9800.21
-9800.22
-9800.21
-9800.2
-9800.21
-9800.21
-9800.21
-9800.21
-9800.21
-9800.21
-9800.21
-9800.21
-9800.2
-9800.2
-9800.21
-9800.21
-9800.21
-9800.21
-9800.21
-9800.21
-9800.21
-9800.21
-9800.21
-9800.21
-9800.21
-9800.21
-9800.21
-9800.21
-9800.21
-9800.21
-9800.21
-9800.21
-9800.21
-9800.21
-0.00374611
0.00164363
-0.000209898
0.00321112
-9800.13
-9800.19
-9800.14
-9800.19
)
;

boundaryField
{
    top_fluid_surface
    {
        type            totalPressure;
        rho             rho;
        psi             none;
        gamma           1;
        p0              uniform 0;
        value           nonuniform List<scalar> 
64
(
-2.25243e-09
-3.19655e-09
-1.15177e-09
0
0
-1.6837e-09
0
0
-1.14447e-08
-2.96969e-10
-8.87751e-09
0
0
0
0
-2.02826e-08
-2.03959e-09
0
0
0
-6.21871e-10
-2.59292e-10
0
-3.86079e-10
-5.41743e-10
0
-3.15211e-09
-6.95055e-09
0
0
0
0
0
0
0
0
0
0
-1.28909e-08
-1.28581e-08
0
0
-1.05982e-09
-2.07123e-09
0
0
-4.46185e-10
0
0
-5.59119e-09
-4.11097e-11
0
-7.38236e-09
-4.34897e-09
0
0
-1.00681e-11
-7.10988e-09
-1.78007e-08
0
-7.06956e-09
0
-5.25251e-10
0
)
;
    }
    bottom_fluid_surface
    {
        type            fixedFluxPressure;
        gradient        uniform 0;
        value           nonuniform List<scalar> 
64
(
-9800.2
-9800.21
-9800.21
-9800.21
-9800.21
-9800.21
-9800.21
-9800.21
-9800.21
-9800.21
-9800.21
-9800.21
-9800.2
-9800.21
-9800.2
-9800.21
-9800.21
-9800.21
-9800.21
-9800.2
-9800.2
-9800.21
-9800.2
-9800.21
-9800.21
-9800.21
-9800.21
-9800.21
-9800.21
-9800.21
-9800.21
-9800.21
-9800.21
-9800.21
-9800.21
-9800.21
-9800.21
-9800.21
-9800.21
-9800.21
-9800.21
-9800.21
-9800.2
-9800.2
-9800.21
-9800.21
-9800.21
-9800.21
-9800.21
-9800.21
-9800.21
-9800.21
-9800.21
-9800.21
-9800.21
-9800.21
-9800.21
-9800.21
-9800.21
-9800.21
-9800.21
-9800.21
-9800.21
-9800.21
)
;
    }
    lateral_surface_1
    {
        type            fixedFluxPressure;
        gradient        uniform 0;
        value           nonuniform List<scalar> 
40
(
0.00307814
0.00310191
0.00242027
0.00241623
0.00369084
0.00443409
-0.00759833
0.00105751
-9800.15
-9800.17
-9800.13
-9800.17
-9800.18
-9800.16
-9800.1
-9800.14
-9800.23
-9800.21
-9800.22
-9800.22
-9800.21
-9800.21
-9800.2
-9800.22
-9800.22
-9800.21
-9800.21
-9800.21
-9800.21
-9800.21
-9800.2
-9800.21
-9800.21
-9800.21
-9800.21
-9800.21
-9800.21
-9800.21
-9800.2
-9800.21
)
;
    }
    lateral_surface_2
    {
        type            fixedFluxPressure;
        gradient        uniform 0;
        value           nonuniform List<scalar> 
40
(
0.00357571
-0.000250681
0.00609633
0.00454521
-0.00552169
9.74742e-05
0.000274364
-0.00613696
-9800.16
-9800.07
-9800.17
-9800.16
-9800.09
-9800.12
-9800.13
-9800.07
-9800.21
-9800.22
-9800.22
-9800.22
-9800.2
-9800.21
-9800.22
-9800.21
-9800.22
-9800.22
-9800.22
-9800.21
-9800.21
-9800.2
-9800.21
-9800.21
-9800.21
-9800.21
-9800.21
-9800.21
-9800.21
-9800.21
-9800.21
-9800.21
)
;
    }
    lateral_surface_3
    {
        type            fixedFluxPressure;
        gradient        uniform 0;
        value           nonuniform List<scalar> 
40
(
-0.00759833
-0.00730639
0.00655941
0.00216722
-0.00123996
-0.00208997
0.00252754
0.00357571
-9800.1
-9800.08
-9800.18
-9800.13
-9800.06
-9800.12
-9800.19
-9800.16
-9800.2
-9800.2
-9800.21
-9800.22
-9800.22
-9800.21
-9800.21
-9800.21
-9800.2
-9800.2
-9800.22
-9800.21
-9800.22
-9800.2
-9800.21
-9800.22
-9800.2
-9800.2
-9800.21
-9800.21
-9800.21
-9800.21
-9800.21
-9800.21
)
;
    }
    lateral_surface_4
    {
        type            fixedFluxPressure;
        gradient        uniform 0;
        value           nonuniform List<scalar> 
40
(
-0.00613696
-0.00268537
0.00516007
0.00471175
0.000326625
-0.0053702
-0.00885565
0.00105751
-9800.07
-9800.13
-9800.17
-9800.14
-9800.08
-9800.12
-9800.08
-9800.14
-9800.21
-9800.2
-9800.21
-9800.21
-9800.21
-9800.2
-9800.21
-9800.22
-9800.21
-9800.2
-9800.21
-9800.22
-9800.21
-9800.2
-9800.21
-9800.21
-9800.21
-9800.21
-9800.21
-9800.21
-9800.21
-9800.21
-9800.21
-9800.21
)
;
    }
}


// ************************************************************************* //
