/*--------------------------------*- C++ -*----------------------------------*\
| =========                 |                                                 |
| \\      /  F ield         | OpenFOAM: The Open Source CFD Toolbox           |
|  \\    /   O peration     | Version:  v1612+                                |
|   \\  /    A nd           | Web:      www.OpenFOAM.com                      |
|    \\/     M anipulation  |                                                 |
\*---------------------------------------------------------------------------*/
FoamFile
{
    version     2.0;
    format      ascii;
    class       surfaceScalarField;
    location    "1";
    object      alphaPhi;
}
// * * * * * * * * * * * * * * * * * * * * * * * * * * * * * * * * * * * * * //

dimensions      [0 3 -1 0 0 0 0];

internalField   nonuniform List<scalar> 
2916
(
2.98062e-08
0.2522
-0.2522
1.20341e-08
0.252202
-0.252201
-1.29093e-08
0.252202
-0.252201
1.37605e-08
0.252202
-0.252202
1.03353e-07
0.252201
-0.252202
0.252201
-0.252201
9.44538e-07
0.607234
-0.355034
1.22097e-06
0.607236
-0.355035
1.5875e-06
0.607236
-0.355035
1.63439e-06
0.607236
-0.355034
9.43223e-07
0.607235
-0.355033
0.607234
-0.355032
2.04009e-06
1.16645
-0.559221
3.61741e-06
1.16646
-0.559221
4.10776e-06
1.16645
-0.559219
3.6413e-06
1.16645
-0.559217
2.1644e-06
1.16645
-0.559215
1.16645
-0.559213
7.61051e-07
1.95361
-0.787156
3.4295e-06
1.95361
-0.787161
4.9633e-06
1.95361
-0.78716
5.00562e-06
1.95361
-0.787159
3.59554e-06
1.95361
-0.787158
1.95361
-0.787157
6.55557e-06
2.37889
-0.85387
4.48119e-06
2.37892
-0.85388
1.33583e-06
2.37891
-0.853875
-1.03337e-06
2.37891
-0.853874
-1.20941e-06
2.37891
-0.853877
2.37888
-0.853864
8.42242e-06
0.576903
-0.266279
3.08668e-06
0.576931
-0.266281
-6.48788e-06
0.576926
-0.266278
-1.44335e-05
0.576921
-0.266277
-1.54243e-05
0.576926
-0.26628
0.57689
-0.266277
2.87411e-07
0.00511479
0.0188185
-1.41265e-07
0.00511499
0.0188208
-1.10655e-06
0.00511514
0.0188213
-1.96778e-06
0.0051151
0.0188209
-3.26858e-06
0.00511527
0.0188199
0.00511472
0.0188203
-9.18325e-08
0.000352369
0.00320731
-3.96575e-07
0.000352378
0.00320763
-4.38037e-07
0.000352375
0.00320753
-4.35447e-07
0.000352374
0.00320745
-2.63881e-07
0.000352386
0.00320739
0.000352321
0.00320705
7.36249e-09
8.51769e-06
0.000278228
-2.74739e-09
8.51786e-06
0.00027825
-2.86311e-09
8.51747e-06
0.000278237
2.25166e-09
8.51761e-06
0.000278229
1.08326e-08
8.51835e-06
0.000278233
8.51695e-06
0.0002782
5.49902e-10
1.112e-07
6.88124e-06
1.24132e-09
1.11227e-07
6.88097e-06
1.59128e-09
1.11225e-07
6.8809e-06
1.60813e-09
1.11225e-07
6.88134e-06
1.21043e-09
1.11228e-07
6.8824e-06
1.11202e-07
6.88212e-06
1.59558e-11
2.23517e-09
8.90169e-08
3.05479e-11
2.23582e-09
8.90406e-08
3.60227e-11
2.23565e-09
8.90494e-08
3.3731e-11
2.23546e-09
8.90585e-08
2.24061e-11
2.23541e-09
8.90709e-08
2.23457e-09
8.90638e-08
8.79281e-14
6.36532e-10
1.61894e-13
6.36716e-10
1.98185e-13
6.36695e-10
1.87904e-13
6.36681e-10
1.22957e-13
6.36694e-10
6.36527e-10
-8.55508e-07
0.170585
-0.422785
-2.07415e-06
0.170585
-0.422785
-2.47388e-06
0.170584
-0.422785
-1.98959e-06
0.170583
-0.422785
-1.03145e-06
0.170582
-0.422785
0.170581
-0.422783
5.30641e-07
0.460033
-0.644484
-3.68326e-07
0.460035
-0.644484
-7.17415e-07
0.460033
-0.644484
-1.00053e-06
0.460031
-0.644483
-9.58218e-07
0.46003
-0.644482
0.460028
-0.64448
5.87871e-06
0.927941
-1.02713
6.18664e-06
0.927947
-1.02713
6.03992e-06
0.927944
-1.02713
4.68911e-06
0.927942
-1.02713
2.86888e-06
0.92794
-1.02712
0.927938
-1.02712
5.41974e-06
1.57608
-1.43524
8.02472e-06
1.57609
-1.43525
7.71947e-06
1.57609
-1.43525
5.50846e-06
1.57609
-1.43525
3.06975e-06
1.57609
-1.43525
1.57609
-1.43524
5.80205e-06
0.300114
-0.67027
6.43372e-06
0.300119
-0.670294
2.81421e-06
0.300117
-0.67029
-1.70027e-06
0.300116
-0.670287
-5.72271e-06
0.300116
-0.670289
0.300113
-0.670286
-1.6782e-07
-0.00384811
-0.019778
-4.02744e-07
-0.00384781
-0.0197787
-4.77781e-07
-0.00384756
-0.0197784
-2.70079e-07
-0.00384747
-0.0197783
-1.10287e-06
-0.00384766
-0.0197787
-0.00384768
-0.0197785
-1.78081e-07
0.00462388
-1.33058e-05
-3.80903e-07
0.00462433
-1.33039e-05
-4.18049e-07
0.00462444
-1.33078e-05
-4.77802e-07
0.00462438
-1.33097e-05
-7.59498e-07
0.00462432
-1.33048e-05
0.00462331
-1.32904e-05
4.3887e-08
-0.000229392
0.000601148
-1.95601e-08
-0.000229426
0.000601263
-3.38031e-08
-0.000229423
0.000601263
-1.275e-08
-0.000229416
0.000601241
2.40107e-08
-0.000229412
0.000601211
-0.000229393
0.0006011
1.43525e-09
-6.76074e-06
3.41801e-06
2.47897e-09
-6.76049e-06
3.41748e-06
2.06497e-09
-6.76048e-06
3.41687e-06
1.30984e-09
-6.76093e-06
3.41666e-06
2.26541e-09
-6.76195e-06
3.41713e-06
-6.76169e-06
3.41584e-06
2.83062e-11
-8.72198e-08
7.31191e-08
3.81978e-11
-8.72428e-08
7.31118e-08
1.28001e-11
-8.72518e-08
7.31047e-08
-1.60539e-11
-8.72611e-08
7.31057e-08
-2.17769e-11
-8.72735e-08
7.31232e-08
-8.72672e-08
7.31102e-08
-2.11377e-13
-6.00074e-10
1.18151e-09
5.90292e-14
-6.00253e-10
1.18155e-09
3.39894e-13
-6.00244e-10
1.18146e-09
3.91294e-13
-6.00242e-10
1.18145e-09
2.7569e-13
-6.00261e-10
1.18168e-09
-6.00128e-10
1.18134e-09
1.23074e-15
5.98098e-12
6.16121e-15
5.98297e-12
9.92379e-15
5.98246e-12
1.08223e-14
5.98193e-12
7.87951e-15
5.98204e-12
5.97936e-12
3.97069e-07
0.00200446
-0.424789
-5.27264e-07
0.0020041
-0.424788
-7.58482e-07
0.00200279
-0.424788
-4.25152e-07
0.00200197
-0.424787
-2.98641e-08
0.00200185
-0.424786
0.00200251
-0.424786
4.07563e-06
0.162128
-0.804611
3.43964e-06
0.162131
-0.804611
2.89069e-06
0.162129
-0.80461
2.019e-06
0.162128
-0.804608
1.38134e-06
0.162128
-0.804607
0.162129
-0.804605
1.11698e-05
0.449372
-1.31436
8.5352e-06
0.449392
-1.31436
5.76908e-06
0.449392
-1.31436
3.71573e-06
0.44939
-1.31435
3.39074e-06
0.449389
-1.31435
0.449391
-1.31434
6.76459e-06
0.9334
-1.74693
9.48428e-06
0.933426
-1.74695
1.03357e-05
0.933425
-1.74695
1.05268e-05
0.933426
-1.74695
8.10362e-06
0.933426
-1.74695
0.933427
-1.74695
2.98143e-06
0.0190146
-0.13288
1.82048e-06
0.0190154
-0.132888
1.49681e-06
0.0190153
-0.132887
1.65322e-06
0.019015
-0.132887
7.88523e-07
0.0190152
-0.132889
0.0190155
-0.132891
-2.25665e-07
-2.08314e-05
-0.000603191
-3.48138e-07
-2.08371e-05
-0.000603213
-2.2602e-07
-2.0837e-05
-0.000603205
-2.32259e-07
-2.08371e-05
-0.000603207
-3.78511e-07
-2.08373e-05
-0.000603277
-2.08375e-05
-0.000603387
1.94979e-09
-7.66798e-05
5.10469e-05
3.9091e-09
-7.66937e-05
5.10594e-05
7.8174e-09
-7.6697e-05
5.10574e-05
8.25393e-09
-7.6695e-05
5.10585e-05
9.92337e-10
-7.66838e-05
5.10618e-05
-7.66749e-05
5.10581e-05
2.15756e-10
-1.49183e-07
4.17542e-06
4.83864e-09
-1.49259e-07
4.17679e-06
4.82466e-09
-1.4925e-07
4.17656e-06
2.99834e-09
-1.49223e-07
4.17621e-06
1.84149e-09
-1.49164e-07
4.176e-06
-1.49091e-07
4.17468e-06
3.24497e-11
-6.98348e-08
7.70282e-09
5.81096e-12
-6.98282e-08
7.70293e-09
-6.90134e-11
-6.9821e-08
7.70325e-09
-1.28433e-10
-6.98214e-08
7.70441e-09
-9.65018e-11
-6.9837e-08
7.70735e-09
-6.9823e-08
7.70427e-09
-1.72667e-13
-1.1671e-09
6.70812e-10
-2.11217e-12
-1.16711e-09
6.71131e-10
-3.69404e-12
-1.16701e-09
6.70867e-10
-4.31603e-12
-1.16699e-09
6.70498e-10
-3.24589e-12
-1.16722e-09
6.70158e-10
-1.16689e-09
6.69537e-10
-1.71265e-14
-5.04412e-12
3.71941e-12
-2.72432e-14
-5.04449e-12
3.72041e-12
-3.00791e-14
-5.04338e-12
3.72059e-12
-2.72683e-14
-5.04268e-12
3.72098e-12
-1.77721e-14
-5.04327e-12
3.72225e-12
-5.04026e-12
3.7213e-12
1.79862e-17
1.00678e-13
1.12917e-16
1.00711e-13
1.77941e-16
1.00703e-13
1.92825e-16
1.00694e-13
1.43084e-16
1.00692e-13
1.00652e-13
5.57173e-06
-0.335469
-0.0893252
4.63796e-06
-0.335467
-0.0893197
4.59204e-06
-0.335468
-0.0893197
4.14859e-06
-0.335468
-0.0893191
2.73968e-06
-0.335466
-0.0893185
-0.335464
-0.0893186
9.84883e-06
-0.363981
-0.776092
7.32296e-06
-0.363967
-0.776091
5.27142e-06
-0.363966
-0.776092
3.92821e-06
-0.363965
-0.776092
3.29035e-06
-0.363964
-0.776092
-0.363958
-0.776091
3.14378e-07
0.0473583
-1.52674
-1.38261e-07
0.0473743
-1.52675
-4.29398e-07
0.0473756
-1.52674
7.61229e-07
0.0473763
-1.52674
1.67921e-06
0.0473783
-1.52674
0.0473816
-1.52674
5.65148e-06
0.0821799
-0.184019
7.3049e-06
0.0821846
-0.184021
1.11244e-05
0.0821848
-0.184021
1.5175e-05
0.0821854
-0.184022
1.11803e-05
0.0821883
-0.184026
0.0821908
-0.184019
-3.78085e-08
0.000544089
-0.00174233
8.34467e-08
0.000544122
-0.00174257
4.49856e-07
0.000544122
-0.00174255
5.47847e-07
0.000544117
-0.00174257
3.1843e-07
0.000544171
-0.00174269
0.000544273
-0.00174271
-1.74181e-08
-5.473e-05
4.24731e-06
-1.02628e-08
-5.47432e-05
4.24877e-06
5.16301e-09
-5.47414e-05
4.24819e-06
1.66391e-08
-5.47424e-05
4.2486e-06
1.52881e-08
-5.47456e-05
4.24939e-06
-5.47409e-05
4.24822e-06
-1.70467e-10
-3.80464e-06
2.5261e-07
1.89371e-10
-3.80586e-06
2.52666e-07
3.26641e-10
-3.80579e-06
2.52638e-07
3.29956e-10
-3.80554e-06
2.52659e-07
2.46397e-10
-3.80525e-06
2.52696e-07
-3.80412e-06
2.5262e-07
-2.64358e-11
1.98953e-09
2.90721e-08
1.16134e-10
1.99233e-09
2.90784e-08
1.46586e-10
1.99413e-09
2.90777e-08
9.53275e-11
1.99414e-09
2.90756e-08
7.78755e-11
1.99235e-09
2.90746e-08
1.99287e-09
2.90624e-08
2.62557e-12
-5.23122e-10
4.72673e-10
1.1843e-12
-5.23443e-10
4.72808e-10
-3.73284e-13
-5.23156e-10
4.72738e-10
-1.25369e-12
-5.22744e-10
4.72657e-10
-7.64138e-13
-5.22327e-10
4.7263e-10
-5.21703e-10
4.72349e-10
-1.30061e-14
-2.44431e-12
9.79281e-12
-6.04853e-14
-2.44453e-12
9.79526e-12
-9.37586e-14
-2.44467e-12
9.79584e-12
-9.92289e-14
-2.44501e-12
9.79599e-12
-6.60039e-14
-2.44606e-12
9.79637e-12
-2.44556e-12
9.79249e-12
-4.86001e-16
3.37917e-15
2.74661e-13
-8.10127e-16
3.38125e-15
2.74689e-13
-9.66966e-16
3.38098e-15
2.74716e-13
-9.19051e-16
3.38013e-15
2.74772e-13
-6.04286e-16
3.37914e-15
2.74879e-13
3.37706e-15
2.74861e-13
-2.11676e-19
3.63174e-15
4.55658e-19
3.63239e-15
9.7675e-19
3.63222e-15
1.12931e-18
3.63227e-15
8.31655e-19
3.63286e-15
3.63174e-15
-1.14809e-96
-5.97205e-88
6.12226e-93
-7.27003e-97
-5.97481e-88
6.12563e-93
-4.38211e-97
-5.97413e-88
6.12492e-93
-3.20854e-97
-5.97255e-88
6.12339e-93
-1.44657e-97
-5.97048e-88
6.12119e-93
-5.96452e-88
6.11505e-93
-2.85473e-91
-5.76641e-83
6.20667e-88
-1.34984e-91
-5.76857e-83
6.20946e-88
-7.16258e-92
-5.76768e-83
6.20856e-88
-3.62323e-92
-5.76621e-83
6.20705e-88
-4.46446e-94
-5.76428e-83
6.2049e-88
-5.7587e-83
6.19893e-88
-2.57227e-86
-2.70052e-78
3.15092e-83
-9.79455e-87
-2.7013e-78
3.15215e-83
-4.13212e-87
-2.70081e-78
3.15168e-83
-2.58132e-88
-2.70016e-78
3.15098e-83
2.94406e-87
-2.69929e-78
3.14999e-83
-2.69675e-78
3.14716e-83
-1.23127e-81
-8.08208e-74
1.04193e-78
-4.14508e-82
-8.08381e-74
1.04229e-78
-5.4616e-83
-8.08223e-74
1.04213e-78
1.4649e-82
-8.08024e-74
1.04192e-78
2.82143e-82
-8.07774e-74
1.04164e-78
-8.07038e-74
1.04077e-78
-3.48758e-77
-1.7232e-69
2.45739e-74
-8.72513e-78
-1.72344e-69
2.45805e-74
1.84289e-78
-1.72305e-69
2.45766e-74
7.91859e-78
-1.72263e-69
2.4572e-74
1.18101e-77
-1.72212e-69
2.4566e-74
-1.7206e-69
2.45465e-74
-7.01967e-73
-2.77849e-65
4.28039e-70
-1.2816e-73
-2.77871e-65
4.28114e-70
1.0456e-73
-2.778e-65
4.28041e-70
2.38153e-73
-2.77732e-65
4.27965e-70
3.12729e-73
-2.77654e-65
4.27878e-70
-2.77418e-65
4.27562e-70
-9.83331e-69
-3.53458e-61
5.52747e-66
-1.2094e-69
-3.53461e-61
5.52784e-66
2.34551e-69
-3.53363e-61
5.52685e-66
4.40267e-69
-3.53278e-61
5.52601e-66
5.42334e-69
-3.53188e-61
5.52521e-66
-3.52902e-61
5.52155e-66
-1.06442e-64
-3.68829e-57
5.09832e-62
-4.80707e-66
-3.68802e-57
5.09807e-62
3.83383e-65
-3.68695e-57
5.09725e-62
6.32792e-65
-3.68611e-57
5.09659e-62
7.29726e-65
-3.68528e-57
5.09618e-62
-3.68247e-57
5.0934e-62
-8.93933e-61
-3.30181e-53
2.69213e-58
7.47776e-62
-3.30128e-53
2.6915e-58
4.91105e-61
-3.30029e-53
2.69135e-58
7.1001e-61
-3.2996e-53
2.69141e-58
7.75328e-61
-3.29899e-53
2.6918e-58
-3.29668e-53
2.69132e-58
-6.35446e-57
-2.40989e-49
-2.87835e-50
1.73053e-57
-2.4093e-49
-2.87742e-50
5.0505e-57
-2.40869e-49
-2.87541e-50
6.64336e-57
-2.40836e-49
-2.87378e-50
7.06128e-57
-2.40818e-49
-2.87201e-50
-2.40686e-49
-2.86813e-50
-3.21275e-53
-1.0739e-45
-9.60088e-46
2.66782e-53
-1.0737e-45
-9.59667e-46
4.82497e-53
-1.07354e-45
-9.59333e-46
5.74041e-53
-1.07351e-45
-9.59147e-46
5.67052e-53
-1.07357e-45
-9.59029e-46
-1.07319e-45
-9.58452e-46
-1.06338e-49
-1.22241e-41
1.17243e-49
-1.22222e-41
2.11921e-49
-1.22204e-41
2.59896e-49
-1.22202e-41
2.73734e-49
-1.22212e-41
-1.22177e-41
-2.43193e-92
-1.33287e-83
2.70857e-88
-1.73961e-92
-1.33377e-83
2.71053e-88
-1.51765e-92
-1.33364e-83
2.71029e-88
-1.15863e-92
-1.33328e-83
2.70956e-88
-7.22601e-93
-1.33276e-83
2.70846e-88
-1.33135e-83
2.70556e-88
-5.14199e-87
-1.29529e-78
2.77587e-83
-2.65859e-87
-1.29604e-78
2.77758e-83
-1.72559e-87
-1.29588e-78
2.77727e-83
-9.48657e-88
-1.29554e-78
2.77654e-83
-6.74761e-89
-1.29505e-78
2.77546e-83
-1.29374e-78
2.77258e-83
-4.47698e-82
-6.07746e-74
1.42295e-78
-1.61599e-82
-6.08039e-74
1.42371e-78
-5.7495e-83
-6.07956e-74
1.42354e-78
4.03835e-83
-6.07802e-74
1.42319e-78
1.33142e-82
-6.07585e-74
1.42268e-78
-6.06997e-74
1.42127e-78
-1.99217e-77
-1.80937e-69
4.73306e-74
-4.71182e-78
-1.81009e-69
4.73526e-74
1.6585e-78
-1.80981e-69
4.73464e-74
6.35423e-78
-1.80936e-69
4.73352e-74
1.11293e-77
-1.80875e-69
4.73195e-74
-1.80707e-69
4.72748e-74
-5.24563e-73
-3.80016e-65
1.11624e-69
-4.5161e-74
-3.80137e-65
1.11668e-69
1.44284e-73
-3.80068e-65
1.11651e-69
2.95114e-73
-3.79975e-65
1.11626e-69
4.44717e-73
-3.79856e-65
1.11591e-69
-3.7952e-65
1.11491e-69
-9.79009e-69
-5.95817e-61
1.93043e-65
3.36757e-70
-5.95957e-61
1.93098e-65
4.49276e-69
-5.95836e-61
1.93066e-65
7.64583e-69
-5.95693e-61
1.93023e-65
1.06359e-68
-5.95523e-61
1.92969e-65
-5.95026e-61
1.92804e-65
-1.25054e-64
-7.24734e-57
2.44994e-61
2.131e-65
-7.24833e-57
2.45036e-61
8.34113e-65
-7.24671e-57
2.44989e-61
1.30489e-64
-7.24507e-57
2.44936e-61
1.74229e-64
-7.24329e-57
2.44876e-61
-7.23769e-57
2.44684e-61
-1.1497e-60
-7.08509e-53
2.16915e-57
3.9584e-61
-7.08524e-53
2.16916e-57
1.0512e-60
-7.08356e-53
2.16868e-57
1.52005e-60
-7.08213e-53
2.16827e-57
1.95265e-60
-7.08077e-53
2.16788e-57
-7.07588e-53
2.16644e-57
-8.70503e-57
-5.83007e-49
1.08888e-53
5.06544e-57
-5.82955e-49
1.08869e-53
1.13271e-56
-5.82815e-49
1.08845e-53
1.56053e-56
-5.82715e-49
1.08831e-53
1.88042e-56
-5.82639e-49
1.08822e-53
-5.82288e-49
1.08769e-53
-5.20039e-53
-3.99646e-45
-3.22576e-46
5.6512e-53
-3.99551e-45
-3.22687e-46
1.06219e-52
-3.99466e-45
-3.22533e-46
1.38616e-52
-3.9943e-45
-3.22348e-46
1.59769e-52
-3.9943e-45
-3.2212e-46
-3.99266e-45
-3.21639e-46
-9.66896e-50
-1.45309e-41
-1.45781e-41
5.88183e-49
-1.45282e-41
-1.45731e-41
8.11789e-49
-1.45262e-41
-1.45694e-41
9.40097e-49
-1.45261e-41
-1.45679e-41
1.0313e-48
-1.45275e-41
-1.45681e-41
-1.45237e-41
-1.45627e-41
-9.15548e-46
-1.37761e-37
1.28512e-45
-1.37746e-37
2.33958e-45
-1.37729e-37
3.26584e-45
-1.37731e-37
4.44363e-45
-1.3775e-37
-1.37724e-37
-2.21499e-88
-1.91452e-79
5.68057e-84
-1.78969e-88
-1.91539e-79
5.68336e-84
-1.54877e-88
-1.91521e-79
5.68287e-84
-1.32948e-88
-1.9149e-79
5.68196e-84
-8.75419e-89
-1.91456e-79
5.68094e-84
-1.9133e-79
5.6771e-84
-5.84942e-83
-1.96322e-74
6.1785e-79
-2.81983e-83
-1.96393e-74
6.18096e-79
-1.65208e-83
-1.96372e-74
6.18033e-79
-5.24741e-84
-1.96343e-74
6.17941e-79
8.37821e-84
-1.96313e-74
6.1784e-79
-1.9619e-74
6.17439e-79
-5.37839e-78
-9.65115e-70
3.35503e-74
-1.58232e-78
-9.65393e-70
3.35614e-74
3.82736e-80
-9.65282e-70
3.35579e-74
1.2861e-78
-9.65152e-70
3.35534e-74
2.46862e-78
-9.65025e-70
3.35489e-74
-9.64462e-70
3.35288e-74
-2.30329e-73
-2.97511e-65
1.17467e-69
-1.64195e-74
-2.97576e-65
1.17499e-69
6.71252e-74
-2.97537e-65
1.17486e-69
1.32273e-73
-2.975e-65
1.17472e-69
1.95401e-73
-2.97467e-65
1.17459e-69
-2.97306e-65
1.17393e-69
-6.27749e-69
-6.35926e-61
2.88337e-65
6.66813e-70
-6.36021e-61
2.88397e-65
3.42828e-69
-6.35928e-61
2.88362e-65
5.53584e-69
-6.35854e-61
2.8833e-65
7.4849e-69
-6.35801e-61
2.88305e-65
-6.35482e-61
2.88155e-65
-1.04425e-64
-9.91516e-57
5.11549e-61
3.44413e-65
-9.91592e-57
5.11618e-61
9.05442e-65
-9.91435e-57
5.11547e-61
1.321e-64
-9.91331e-57
5.11495e-61
1.70145e-64
-9.91277e-57
5.11462e-61
-9.90825e-57
5.11218e-61
-1.25473e-60
-1.16368e-52
6.59396e-57
6.53788e-61
-1.16368e-52
6.59426e-57
1.43435e-60
-1.16349e-52
6.59323e-57
1.99694e-60
-1.16339e-52
6.59262e-57
2.49163e-60
-1.16336e-52
6.59238e-57
-1.16289e-52
6.58956e-57
-1.06673e-56
-1.05211e-48
6.07976e-53
7.91229e-57
-1.05204e-48
6.07946e-53
1.5385e-56
-1.05186e-48
6.07842e-53
2.08623e-56
-1.05178e-48
6.07793e-53
2.57019e-56
-1.0518e-48
6.07792e-53
-1.05144e-48
6.07571e-53
-6.20222e-53
-7.44695e-45
3.79461e-49
7.6827e-53
-7.44583e-45
3.79409e-49
1.29758e-52
-7.44457e-45
3.79345e-49
1.69332e-52
-7.44421e-45
3.79324e-49
2.02483e-52
-7.44463e-45
3.79346e-49
-7.44249e-45
3.79244e-49
-1.04693e-49
-4.17001e-41
1.28344e-46
5.79951e-49
-4.16914e-41
1.28428e-46
7.66029e-49
-4.16845e-41
1.28486e-46
8.81709e-49
-4.16833e-41
1.28581e-46
1.06484e-48
-4.16873e-41
1.28715e-46
-4.16777e-41
1.28924e-46
6.34532e-47
-1.19153e-37
-9.42212e-38
3.26944e-45
-1.19132e-37
-9.41973e-38
3.46896e-45
-1.19116e-37
-9.41806e-38
3.42826e-45
-1.19117e-37
-9.41788e-38
4.26549e-45
-1.19133e-37
-9.41902e-38
-1.19113e-37
-9.41721e-38
-6.90684e-42
-6.99195e-34
3.07627e-42
-6.99134e-34
9.147e-42
-6.99066e-34
1.44083e-41
-6.9909e-34
2.08404e-41
-6.99202e-34
-6.99099e-34
-9.57007e-85
-1.1763e-75
4.49714e-80
-7.31069e-85
-1.1766e-75
4.49836e-80
-7.17419e-85
-1.17641e-75
4.49767e-80
-7.11209e-85
-1.17623e-75
4.49698e-80
-5.10618e-85
-1.17608e-75
4.49641e-80
-1.1754e-75
4.49379e-80
-2.97751e-79
-1.33418e-70
5.45488e-75
-1.39968e-79
-1.33443e-70
5.45595e-75
-6.9369e-80
-1.33421e-70
5.4551e-75
-6.26898e-81
-1.33403e-70
5.45433e-75
5.28668e-80
-1.33389e-70
5.45371e-75
-1.33316e-70
5.45065e-75
-2.76347e-74
-7.17432e-66
3.28988e-70
-5.41871e-75
-7.17522e-66
3.29039e-70
3.20274e-75
-7.17407e-66
3.28988e-70
9.89351e-75
-7.17319e-66
3.28948e-70
1.67322e-74
-7.17261e-66
3.28919e-70
-7.169e-66
3.28749e-70
-1.27328e-69
-2.37478e-61
1.26634e-65
1.05237e-70
-2.37497e-61
1.26649e-65
6.3996e-70
-2.37458e-61
1.26629e-65
1.03273e-69
-2.37432e-61
1.26616e-65
1.40839e-69
-2.37418e-61
1.26608e-65
-2.37309e-61
1.26547e-65
-3.2758e-65
-5.30139e-57
3.35965e-61
1.27183e-65
-5.30159e-57
3.35993e-61
2.98899e-65
-5.30069e-57
3.3594e-61
4.24971e-65
-5.30018e-57
3.35907e-61
5.45855e-65
-5.30003e-57
3.35894e-61
-5.2978e-57
3.35744e-61
-5.26594e-61
-8.29596e-53
6.27024e-57
3.54926e-61
-8.29593e-53
6.27049e-57
7.07397e-61
-8.29454e-53
6.26948e-57
9.59042e-61
-8.29389e-53
6.26894e-57
1.19565e-60
-8.2939e-53
6.26882e-57
-8.29081e-53
6.26627e-57
-5.21018e-57
-9.27234e-49
8.15078e-53
6.39274e-57
-9.27193e-49
8.15071e-53
1.06215e-56
-9.27041e-49
8.14937e-53
1.36114e-56
-9.26988e-49
8.14878e-53
1.65e-56
-9.2702e-49
8.14884e-53
-9.26722e-49
8.1459e-53
-3.70757e-53
-7.537e-45
7.14849e-49
6.58161e-53
-7.53636e-45
7.14808e-49
1.00399e-52
-7.53518e-45
7.14693e-49
1.25586e-52
-7.53492e-45
7.14654e-49
1.51143e-52
-7.53545e-45
7.14685e-49
-7.53342e-45
7.14465e-49
-1.26952e-49
-4.61399e-41
3.93787e-45
5.12768e-49
-4.61342e-41
3.93755e-45
7.39392e-49
-4.61275e-41
3.93694e-45
8.77485e-49
-4.61268e-41
3.93681e-45
1.0163e-48
-4.61316e-41
3.93713e-45
-4.61214e-41
3.93616e-45
3.37852e-47
-2.28474e-37
8.9064e-42
3.28088e-45
-2.28441e-37
8.90599e-42
4.02422e-45
-2.28411e-37
8.90498e-42
4.44618e-45
-2.28412e-37
8.90514e-42
5.17713e-45
-2.28443e-37
8.9065e-42
-2.28404e-37
8.90536e-42
3.57572e-42
-4.05689e-34
-5.2956e-34
1.59801e-41
-4.05616e-34
-5.29535e-34
1.66816e-41
-4.05563e-34
-5.29491e-34
1.41397e-41
-4.05574e-34
-5.29503e-34
1.41912e-41
-4.0565e-34
-5.29574e-34
-4.05619e-34
-5.29479e-34
3.66411e-38
-1.86349e-30
3.47222e-38
-1.8634e-30
3.40257e-38
-1.86327e-30
4.39126e-38
-1.86336e-30
6.18986e-38
-1.86369e-30
-1.86343e-30
1.52145e-05
0.693303
-0.782626
1.14878e-05
0.69332
-0.782619
7.90513e-06
0.69332
-0.782619
5.782e-06
0.69332
-0.78262
4.86256e-06
0.69332
-0.78262
0.69332
-0.782617
1.34732e-05
2.46022
-1.7657
1.00371e-05
2.46024
-1.76569
8.3017e-06
2.46024
-1.76569
7.86477e-06
2.46024
-1.76569
9.24096e-06
2.46024
-1.76569
2.46024
-1.76568
1.23718e-05
-1.48778
1.01759e-05
-1.48779
1.43597e-05
-1.48778
2.19346e-05
-1.48779
2.98344e-05
-1.48779
-1.4878
9.78461e-09
-0.479395
-0.925034
1.0916e-06
-0.479393
-0.925031
1.15327e-06
-0.479394
-0.925029
8.65113e-07
-0.479394
-0.92503
2.5426e-07
-0.479395
-0.925031
-0.479394
-0.925031
1.03117e-06
0.0946704
-2.90373e-07
-5.62587e-07
0.0946801
-2.90265e-07
1.07651e-06
0.0946782
-2.90281e-07
3.36158e-06
0.0946784
-2.90302e-07
1.06283e-06
0.094679
-2.90177e-07
0.0946872
-2.90201e-07
-2.24455e-07
-1.12283e-06
-1.25693e-06
-1.12318e-06
-1.32812e-06
-1.12323e-06
-1.17801e-06
-1.12316e-06
-8.80824e-07
-1.12314e-06
-1.12311e-06
1.9366e-06
-2.96213e-07
0.185429
1.00551e-06
-2.96102e-07
0.185432
3.61943e-06
-2.96119e-07
0.185432
4.90123e-06
-2.9614e-07
0.185432
-5.46008e-07
-2.96014e-07
0.185436
-2.96034e-07
0.18543
2.73722e-13
-1.03754e-07
-5.07408e-07
-5.08863e-13
-1.03787e-07
-5.07048e-07
-1.01842e-12
-1.03791e-07
-5.0703e-07
-1.52726e-12
-1.03785e-07
-5.06994e-07
-1.99895e-12
-1.03783e-07
-5.06768e-07
-1.03781e-07
-5.06836e-07
1.05538e-13
-1.22658e-06
1.20652e-13
-1.22697e-06
1.37435e-13
-1.22702e-06
8.75889e-14
-1.22695e-06
2.58759e-13
-1.22692e-06
-1.22689e-06
3.78821e-08
-7.5178e-05
0.0014872
2.85248e-08
-7.51324e-05
0.00148734
6.3082e-08
-7.51275e-05
0.00148732
5.19256e-08
-7.51226e-05
0.00148735
-2.39444e-09
-7.50926e-05
0.00148742
-7.50892e-05
0.00148748
2.27443e-10
-7.59516e-06
-6.81497e-05
2.29073e-10
-7.59369e-06
-6.81319e-05
2.30701e-10
-7.59362e-06
-6.81277e-05
2.39565e-10
-7.59318e-06
-6.81205e-05
1.60659e-10
-7.59145e-06
-6.80946e-05
-7.59113e-06
-6.80839e-05
4.40735e-12
-1.39171e-05
5.79841e-12
-1.3923e-05
2.51915e-12
-1.39237e-05
-4.03482e-12
-1.39223e-05
-9.46983e-12
-1.39225e-05
-1.39208e-05
3.37767e-09
-0.000199304
-4.21244e-07
3.02198e-09
-0.000199361
-4.21166e-07
4.1287e-09
-0.000199352
-4.21168e-07
5.3276e-09
-0.000199352
-4.21254e-07
6.32876e-09
-0.000199372
-4.21476e-07
-0.000199354
-4.21557e-07
-1.10282e-08
7.46986e-05
-4.32585e-06
-1.51066e-08
7.48692e-05
-4.26678e-06
-1.69555e-08
7.48829e-05
-4.26301e-06
-1.65632e-08
7.48538e-05
-4.27435e-06
-3.84343e-09
7.48888e-05
-4.26406e-06
7.48208e-05
-4.29294e-06
-4.04146e-11
-2.59424e-07
-7.97756e-12
-2.59739e-07
-3.04886e-11
-2.59742e-07
-4.87985e-11
-2.5968e-07
-4.23337e-11
-2.59743e-07
-2.59561e-07
-4.85813e-11
4.33057e-06
-2.55082e-07
2.30654e-11
4.3321e-06
-2.55133e-07
5.32368e-11
4.33156e-06
-2.55108e-07
1.13997e-10
4.33194e-06
-2.55127e-07
1.77972e-10
4.33262e-06
-2.5516e-07
4.33148e-06
-2.55087e-07
-5.75777e-12
3.05978e-08
-1.98736e-08
-2.27178e-12
3.06387e-08
-1.98808e-08
-2.31997e-12
3.06385e-08
-1.98786e-08
-2.39939e-12
3.06317e-08
-1.98807e-08
7.70453e-13
3.06423e-08
-1.9884e-08
3.06165e-08
-1.98783e-08
-8.66094e-13
-7.96294e-10
-1.02925e-12
-7.96824e-10
-1.64505e-12
-7.96626e-10
-1.6145e-12
-7.96717e-10
-6.52105e-13
-7.96936e-10
-7.96492e-10
-2.45316e-12
2.00885e-08
-1.65756e-08
-1.87338e-12
2.00959e-08
-1.65807e-08
-1.94952e-12
2.00936e-08
-1.65802e-08
-1.35581e-12
2.00957e-08
-1.65791e-08
6.80501e-13
2.00992e-08
-1.65786e-08
2.00935e-08
-1.65728e-08
-2.71103e-14
9.26709e-10
-8.91669e-10
-5.40471e-14
9.27045e-10
-8.91954e-10
-7.6895e-14
9.27033e-10
-8.91976e-10
-6.39663e-14
9.27131e-10
-8.91966e-10
-1.47705e-14
9.27271e-10
-8.91953e-10
9.27044e-10
-8.91607e-10
-1.97379e-16
-2.51461e-11
-3.10374e-16
-2.51591e-11
-4.10308e-16
-2.51605e-11
-3.54811e-16
-2.51599e-11
-7.50798e-17
-2.51611e-11
-2.5149e-11
-8.70652e-13
1.1557e-09
-3.34781e-10
-1.32617e-12
1.15601e-09
-3.34873e-10
-8.26802e-13
1.15603e-09
-3.34823e-10
8.60176e-14
1.15601e-09
-3.34756e-10
7.49461e-13
1.156e-09
-3.34711e-10
1.15553e-09
-3.34545e-10
-2.85209e-14
3.9511e-11
-5.35369e-12
-5.37546e-14
3.95272e-11
-5.35513e-12
-5.23813e-14
3.9529e-11
-5.35462e-12
-3.19821e-14
3.95279e-11
-5.35416e-12
-1.15848e-14
3.95288e-11
-5.35398e-12
3.95115e-11
-5.35129e-12
-2.96567e-16
-1.2999e-13
-3.94974e-16
-1.30022e-13
-3.29143e-16
-1.30008e-13
-1.95697e-16
-1.29992e-13
-7.40543e-17
-1.29991e-13
-1.29922e-13
1.33656e-14
9.86799e-12
-5.96092e-12
3.40517e-14
9.86967e-12
-5.96323e-12
4.49037e-14
9.86896e-12
-5.96353e-12
4.63428e-14
9.86874e-12
-5.96279e-12
3.67548e-14
9.86978e-12
-5.96145e-12
9.86584e-12
-5.95757e-12
-2.45125e-16
4.00853e-13
3.02592e-15
5.60227e-17
4.00898e-13
3.02461e-15
3.44006e-16
4.00854e-13
3.02401e-15
4.7726e-16
4.00822e-13
3.02366e-15
4.07086e-16
4.00838e-13
3.02406e-15
4.00664e-13
3.02415e-15
-1.12165e-18
-3.46063e-16
1.14825e-19
-3.46063e-16
1.50896e-18
-3.46041e-16
2.21646e-18
-3.46062e-16
1.88436e-18
-3.46147e-16
-3.46052e-16
-1.06997e-16
3.51032e-13
3.71025e-14
-2.60438e-16
3.51033e-13
3.71014e-14
-4.0277e-16
3.51018e-13
3.71071e-14
-4.11069e-16
3.51035e-13
3.71183e-14
-1.95192e-16
3.51103e-13
3.71366e-14
3.51025e-13
3.7145e-14
6.09217e-21
7.46611e-15
7.87488e-16
9.22747e-19
7.46588e-15
7.87461e-16
1.27008e-18
7.46539e-15
7.87464e-16
1.41953e-18
7.46575e-15
7.8758e-16
1.54692e-18
7.46739e-15
7.87858e-16
7.46554e-15
7.87775e-16
1.25007e-20
-1.29352e-19
1.71167e-20
-1.29493e-19
1.98336e-20
-1.29594e-19
1.9638e-20
-1.29695e-19
1.34084e-20
-1.29817e-19
-1.29719e-19
-4.0603e-18
8.35599e-15
1.60987e-15
-9.76203e-18
8.35586e-15
1.61017e-15
-1.31873e-17
8.35675e-15
1.6103e-15
-1.31249e-17
8.35897e-15
1.61055e-15
-8.38639e-18
8.36298e-15
1.61106e-15
8.36304e-15
1.61087e-15
-1.80062e-20
1.82713e-16
3.74707e-17
-8.72375e-20
1.82725e-16
3.74768e-17
-1.31875e-19
1.82731e-16
3.7479e-17
-1.31414e-19
1.82758e-16
3.74843e-17
-7.64434e-20
1.82815e-16
3.74953e-17
1.82788e-16
3.749e-17
6.30215e-23
5.18963e-18
-1.56818e-22
5.18995e-18
-3.27425e-22
5.19011e-18
-3.30041e-22
5.19076e-18
-1.79103e-22
5.19223e-18
5.19162e-18
-3.26647e-20
1.87953e-16
1.17999e-16
-7.74861e-20
1.87976e-16
1.18012e-16
-9.998e-20
1.87983e-16
1.18015e-16
-9.66311e-20
1.88008e-16
1.18015e-16
-6.43772e-20
1.88064e-16
1.18016e-16
1.88035e-16
1.18008e-16
-4.85735e-22
6.45965e-17
3.12649e-17
-1.098e-21
6.46057e-17
3.12693e-17
-1.43034e-21
6.46061e-17
3.12695e-17
-1.36152e-21
6.46107e-17
3.12718e-17
-8.18356e-22
6.46234e-17
3.12779e-17
6.46108e-17
3.12719e-17
-7.90889e-24
3.08374e-19
-1.18075e-23
3.084e-19
-1.36775e-23
3.084e-19
-1.19073e-23
3.08424e-19
-5.98223e-24
3.08487e-19
3.0844e-19
5.03475e-33
1.12266e-27
-7.31309e-25
3.05263e-27
1.46584e-33
1.12274e-27
-7.31361e-25
3.05283e-27
4.61449e-33
1.1227e-27
-7.31337e-25
3.05271e-27
7.37942e-33
1.12277e-27
-7.31378e-25
3.05289e-27
5.76144e-33
1.12295e-27
-7.31498e-25
3.0534e-27
1.12277e-27
-7.31379e-25
3.05292e-27
1.01741e-34
2.12088e-29
-7.52578e-27
2.46009e-29
6.25907e-35
2.12102e-29
-7.52627e-27
2.46024e-29
7.72688e-35
2.12095e-29
-7.52604e-27
2.46016e-29
7.08616e-35
2.12109e-29
-7.52653e-27
2.46033e-29
7.50069e-36
2.12147e-29
-7.52787e-27
2.46076e-29
2.12115e-29
-7.52674e-27
2.46041e-29
-2.0043e-39
-1.58466e-29
3.62443e-32
-3.6161e-38
-1.58476e-29
3.62466e-32
-5.03692e-38
-1.58471e-29
3.62453e-32
-7.30886e-38
-1.58482e-29
3.62479e-32
-1.49001e-37
-1.5851e-29
3.62544e-32
-1.58488e-29
3.62494e-32
-2.53521e-31
2.83151e-25
-1.19841e-22
-9.36876e-31
2.83172e-25
-1.19851e-22
-6.34262e-31
2.83162e-25
-1.19847e-22
-7.91609e-31
2.83178e-25
-1.19854e-22
-1.56975e-30
2.83224e-25
-1.19873e-22
2.83177e-25
-1.19852e-22
-5.32708e-33
6.82494e-27
-1.56865e-24
-7.44e-33
6.82539e-27
-1.56875e-24
-6.09062e-34
6.82516e-27
-1.56871e-24
-7.0586e-33
6.8256e-27
-1.56881e-24
-3.38982e-32
6.8268e-27
-1.56908e-24
6.82576e-27
-1.56884e-24
-4.73391e-35
-4.56836e-27
-1.96272e-35
-4.56864e-27
-1.05819e-35
-4.5685e-27
-4.70895e-35
-4.5688e-27
-1.49268e-34
-4.56963e-27
-4.56896e-27
-6.65862e-28
4.80677e-23
-1.29966e-20
-5.36477e-28
4.80715e-23
-1.29978e-20
-4.43052e-28
4.807e-23
-1.29974e-20
-3.78316e-28
4.80725e-23
-1.2998e-20
-4.11252e-28
4.80801e-23
-1.30001e-20
4.80718e-23
-1.29977e-20
-1.17282e-29
1.46558e-24
-2.16403e-22
-7.18139e-30
1.46568e-24
-2.16418e-22
-4.57645e-30
1.46563e-24
-2.16412e-22
-3.53933e-30
1.46572e-24
-2.16425e-22
-6.22701e-30
1.46598e-24
-2.16463e-22
1.46575e-24
-2.16428e-22
-4.40371e-32
-8.56966e-25
-1.64989e-32
-8.57016e-25
-3.26198e-33
-8.56991e-25
-5.05126e-33
-8.57049e-25
-2.06757e-32
-8.57204e-25
-8.57077e-25
-9.53514e-26
5.36576e-21
-8.95498e-19
-9.7901e-26
5.36624e-21
-8.95598e-19
-9.18266e-26
5.3661e-21
-8.9558e-19
-7.06041e-26
5.36635e-21
-8.95619e-19
-4.24662e-26
5.36717e-21
-8.95751e-19
5.3662e-21
-8.95578e-19
-2.01687e-27
2.07145e-22
-1.91751e-20
-1.48794e-27
2.0716e-22
-1.91766e-20
-1.07453e-27
2.07154e-22
-1.91762e-20
-7.11661e-28
2.07166e-22
-1.91774e-20
-4.80118e-28
2.07202e-22
-1.91807e-20
2.07169e-22
-1.91776e-20
-7.91954e-30
-1.02355e-22
-3.2329e-30
-1.02361e-22
-9.5097e-31
-1.02359e-22
4.48036e-31
-1.02366e-22
7.84734e-31
-1.02385e-22
-1.02369e-22
-5.36749e-24
3.70767e-19
-3.68353e-17
-7.74666e-24
3.70808e-19
-3.68413e-17
-8.25057e-24
3.708e-19
-3.6841e-17
-6.32637e-24
3.70815e-19
-3.68423e-17
-2.05996e-24
3.70869e-19
-3.68475e-17
3.70797e-19
-3.68395e-17
-1.37563e-25
1.87542e-20
-1.05598e-18
-1.68684e-25
1.87556e-20
-1.05609e-18
-1.56008e-25
1.87552e-20
-1.05607e-18
-1.0107e-25
1.87564e-20
-1.05614e-18
2.88053e-27
1.87596e-20
-1.05633e-18
1.87565e-20
-1.05614e-18
-7.43699e-28
-7.47661e-21
-6.39663e-28
-7.47712e-21
-5.03945e-28
-7.477e-21
-1.29952e-28
-7.47754e-21
5.60161e-28
-7.47896e-21
-7.47782e-21
-1.53565e-22
1.78163e-17
-3.51571e-22
1.78192e-17
-4.34462e-22
1.78191e-17
-3.7451e-22
1.78197e-17
-1.85175e-22
1.78222e-17
1.78184e-17
-8.77681e-24
1.06945e-18
-1.35793e-23
1.06955e-18
-1.48232e-23
1.06954e-18
-1.19163e-23
1.06961e-18
-3.9296e-24
1.0698e-18
1.06961e-18
-7.31437e-26
-1.10686e-25
-9.93067e-26
-5.96656e-26
1.41657e-26
-2.44073e-81
1.74561e-76
-3.94122e-72
-2.12969e-81
1.74604e-76
-3.94215e-72
-2.269e-81
1.74595e-76
-3.9419e-72
-2.11877e-81
1.74598e-76
-3.94195e-72
-1.63538e-81
1.74617e-76
-3.94233e-72
1.74571e-76
-3.94126e-72
-5.87276e-85
5.74156e-80
-1.03298e-75
-6.93898e-85
5.74283e-80
-1.03319e-75
-6.75389e-85
5.7425e-80
-1.03312e-75
-5.83219e-85
5.74259e-80
-1.03312e-75
-4.41769e-85
5.74316e-80
-1.03321e-75
5.74164e-80
-1.03292e-75