/*--------------------------------*- C++ -*----------------------------------*\
| =========                 |                                                 |
| \\      /  F ield         | OpenFOAM: The Open Source CFD Toolbox           |
|  \\    /   O peration     | Version:  v1612+                                |
|   \\  /    A nd           | Web:      www.OpenFOAM.com                      |
|    \\/     M anipulation  |                                                 |
\*---------------------------------------------------------------------------*/
FoamFile
{
    version     2.0;
    format      ascii;
    class       volScalarField;
    location    "1";
    object      p_rgh;
}
// * * * * * * * * * * * * * * * * * * * * * * * * * * * * * * * * * * * * * //

dimensions      [1 -1 -2 0 0 0 0];

internalField   nonuniform List<scalar> 
1116
(
44106.5
44106.5
44106.5
44106.5
44106.5
44106.5
42464.6
42464.7
42464.7
42464.6
42464.6
42464.6
39063.2
39063.2
39063.2
39063.2
39063.1
39063.1
32682.5
32682.5
32682.5
32682.5
32682.5
32682.4
20509.3
20509.3
20509.3
20509.3
20509.2
20509.1
5943.37
5943.42
5943.42
5943.38
5943.36
5943.22
305.689
305.716
305.718
305.715
305.712
305.692
45.8781
45.8797
45.8807
45.8815
45.8813
45.8808
57.8238
57.8235
57.8235
57.8226
57.8214
57.8198
52.7101
52.7106
52.7114
52.7113
52.7108
52.7101
43.4411
43.441
43.4411
43.4416
43.4423
43.4429
39.4163
39.4161
39.4155
39.4153
39.4154
39.4155
45330.8
45330.8
45330.8
45330.8
45330.8
45330.8
43264.7
43264.7
43264.7
43264.7
43264.7
43264.7
39484.4
39484.3
39484.3
39484.3
39484.3
39484.3
31246.6
31246.6
31246.6
31246.6
31246.6
31246.6
9479.34
9479.47
9479.46
9479.4
9479.35
9479.23
-9.53519
-9.52208
-9.52252
-9.52487
-9.5337
-9.53079
-107.734
-107.726
-107.724
-107.721
-107.72
-107.716
25.2995
25.2987
25.2992
25.299
25.298
25.2944
51.6549
51.656
51.6565
51.6556
51.6546
51.6525
42.8754
42.8759
42.8761
42.8761
42.8763
42.8763
37.0012
37.0005
36.9997
36.9996
36.9997
36.9999
33.8354
33.8352
33.8348
33.8347
33.8346
33.8345
48242.8
48242.8
48242.9
48242.9
48242.9
48242.8
45116.2
45116.1
45116.1
45116.1
45116.1
45116
40885.7
40885.6
40885.6
40885.6
40885.5
40885.5
31637
31637
31636.9
31636.9
31636.9
31637
2565.63
2565.73
2565.72
2565.72
2565.72
2565.76
-20.3921
-20.3893
-20.388
-20.3869
-20.3865
-20.3833
-30.2564
-30.2579
-30.2572
-30.2564
-30.2558
-30.254
5.39848
5.39838
5.39894
5.39898
5.39945
5.39941
27.3238
27.325
27.3258
27.326
27.3265
27.3268
28.3164
28.3159
28.3153
28.315
28.3147
28.3145
27.024
27.0234
27.0228
27.0224
27.022
27.0217
25.133
25.1331
25.1333
25.1336
25.1339
25.1341
49900.5
49900.5
49900.5
49900.5
49900.5
49900.4
48383.5
48383.5
48383.5
48383.5
48383.4
48383.4
42425.7
42425.6
42425.5
42425.5
42425.5
42425.5
14873.2
14873.4
14873.4
14873.4
14873.5
14873.7
260.417
260.43
260.432
260.438
260.453
260.472
1.8064
1.8057
1.80599
1.80601
1.80563
1.80552
-9.71056
-9.71101
-9.71097
-9.711
-9.71027
-9.7093
4.77164
4.77122
4.77102
4.77088
4.77165
4.77289
15.2441
15.244
15.2439
15.2445
15.2454
15.246
18.3949
18.3946
18.3947
18.3951
18.3953
18.3952
18.3355
18.3356
18.336
18.3362
18.336
18.3358
16.957
16.9573
16.9575
16.9575
16.9576
16.9576
0.0501787
0.0501696
0.0501616
0.050153
0.0501462
0.0501428
0.0528083
0.0527821
0.0527676
0.0527578
0.0527519
0.05275
0.0582463
0.0581964
0.0581755
0.0581678
0.058168
0.0581737
0.0668564
0.0667875
0.0667654
0.0667641
0.0667762
0.0667955
0.0791105
0.0790329
0.0790135
0.0790231
0.0790501
0.0790849
0.0954532
0.0953812
0.0953687
0.0953901
0.0954296
0.0954766
0.11615
0.116091
0.116086
0.116117
0.116164
0.116217
0.141087
0.141045
0.141048
0.141083
0.141132
0.141186
0.169604
0.169577
0.169585
0.169621
0.169667
0.169715
0.200311
0.200292
0.200302
0.200333
0.200372
0.200411
0.227478
0.227454
0.227457
0.227476
0.227502
0.22753
0.250971
0.25095
0.250948
0.250962
0.250986
0.251012
0.0476587
0.0476538
0.0476469
0.047639
0.047632
0.0476278
0.0502084
0.0501898
0.0501789
0.0501714
0.0501673
0.0501676
0.0555016
0.0554674
0.0554553
0.0554536
0.0554598
0.0554745
0.0639539
0.0639094
0.0639009
0.0639102
0.0639332
0.0639687
0.0761115
0.0760655
0.0760634
0.0760876
0.0761287
0.0761845
0.0925415
0.0925034
0.0925105
0.0925469
0.0926017
0.0926715
0.113684
0.113657
0.113672
0.113716
0.113778
0.113853
0.13956
0.139544
0.139566
0.139612
0.139673
0.139746
0.169418
0.169408
0.169431
0.169472
0.169526
0.169588
0.201272
0.201257
0.201273
0.201303
0.201342
0.201389
0.235781
0.235759
0.235765
0.235781
0.235806
0.235837
0.269259
0.269225
0.269221
0.269238
0.269271
0.269317
0.0428162
0.0428138
0.0428081
0.0428004
0.0427938
0.0427897
0.0452046
0.0451917
0.0451839
0.0451783
0.0451752
0.0451752
0.0501918
0.0501688
0.0501626
0.0501641
0.0501725
0.0501868
0.0582406
0.0582122
0.0582107
0.0582253
0.0582501
0.0582836
0.0700016
0.0699748
0.0699818
0.07001
0.0700514
0.0701026
0.086274
0.0862534
0.0862695
0.0863083
0.0863613
0.0864243
0.108033
0.10802
0.108043
0.108088
0.108146
0.108214
0.136681
0.136675
0.136701
0.136746
0.136803
0.136867
0.175124
0.175117
0.175141
0.175178
0.175224
0.175276
0.227146
0.227131
0.227144
0.227165
0.227191
0.227225
0.280282
0.280245
0.280245
0.280252
0.280265
0.280287
0.334354
0.3343
0.334295
0.33432
0.334368
0.334433
0.0358829
0.0358822
0.0358777
0.0358712
0.0358655
0.0358617
0.0379971
0.0379896
0.0379846
0.0379805
0.0379781
0.0379777
0.0424442
0.0424312
0.0424289
0.0424322
0.0424399
0.0424512
0.0497104
0.049696
0.0496992
0.0497135
0.0497348
0.0497611
0.0605331
0.0605213
0.0605323
0.0605575
0.0605914
0.0606312
0.0759067
0.0758995
0.0759175
0.0759502
0.0759926
0.0760416
0.0969799
0.0969763
0.0969978
0.097034
0.0970802
0.0971334
0.124612
0.124607
0.124628
0.124663
0.124706
0.124756
0.158098
0.158081
0.158093
0.158116
0.158148
0.158186
0.196377
0.196333
0.196326
0.196334
0.196351
0.196378
0.24905
0.248979
0.248968
0.248977
0.248997
0.24903
0.311877
0.311872
0.311916
0.311985
0.312081
0.312197
61216.2
61216.2
61216.2
61216.2
61216.2
61216.2
52018.9
52018.9
52018.8
52018.8
52018.8
52018.8
54738.3
54738.3
54738.3
54738.3
54738.3
54738.4
56244.5
56244.5
56244.5
56244.5
56244.5
56244.5
34596.4
34596.5
34596.5
34596.5
34596.5
34596.7
5430.14
5430.27
5430.24
5430.23
5430.26
5430.46
23622.4
23622.4
23622.4
23622.4
23622.5
23622.6
40.9641
40.9654
40.966
40.9675
40.9672
40.9611
-101.084
-101.08
-101.077
-101.075
-101.071
-101.067
-46.993
-46.9889
-46.9872
-46.9875
-46.9879
-46.9892
-41.4325
-41.4306
-41.4286
-41.4275
-41.427
-41.4271
-59.3402
-59.3406
-59.3396
-59.3381
-59.3369
-59.3359
-95.2809
-95.2809
-95.282
-95.2831
-95.2839
-95.2836
-29.5042
-29.5049
-29.5056
-29.5062
-29.5076
-29.5086
-20.7572
-20.7572
-20.7571
-20.7571
-20.7575
-20.7579
-13.6606
-13.6595
-13.6586
-13.6581
-13.6578
-13.6582
-23.3147
-23.3146
-23.3145
-23.3148
-23.315
-23.3156
-12.8454
-12.8453
-12.8454
-12.8455
-12.8458
-12.8463
-11.3678
-11.3675
-11.3677
-11.3681
-11.3678
-11.3676
-9.91134
-9.91143
-9.9117
-9.9118
-9.91176
-9.91182
-5.45218
-5.45221
-5.45238
-5.45246
-5.45255
-5.45277
2.18626
2.18555
2.18493
2.18501
2.18546
2.1859
-0.731274
-0.731709
-0.731836
-0.731522
-0.731228
-0.731045
-1.73926
-1.73931
-1.73923
-1.73909
-1.73902
-1.73903
8.02871
8.02833
8.02858
8.02944
8.03027
8.03076
3.15604
3.15623
3.15678
3.15732
3.15767
3.15781
0.4397
0.439974
0.44027
0.440466
0.440555
0.440565
11.2612
11.2618
11.2627
11.2633
11.2637
11.2638
5.8325
5.83305
5.83356
5.83374
5.8337
5.83361
1.4836
1.48378
1.48386
1.48384
1.48375
1.48367
11.2527
11.2533
11.2536
11.2535
11.2532
11.253
6.15701
6.15715
6.15702
6.15674
6.15644
6.15625
1.89315
1.89304
1.89284
1.89266
1.89252
1.89243
9.55721
9.55719
9.55681
9.55631
9.55597
9.55582
5.66476
5.66449
5.66409
5.66375
5.66354
5.66348
1.87208
1.87191
1.87175
1.87164
1.87159
1.87159
1.048
1.04791
1.04798
1.04811
1.04824
1.04834
0.760123
0.760114
0.760226
0.760363
0.760492
0.760583
0.291374
0.2914
0.291458
0.291521
0.291577
0.291611
1.46761
1.46762
1.46773
1.46788
1.46802
1.46814
1.07586
1.07592
1.07606
1.07623
1.07637
1.07645
0.407277
0.407323
0.407384
0.407447
0.407496
0.407513
2.03436
2.03438
2.03448
2.0346
2.03471
2.03479
1.49963
1.49966
1.49977
1.49991
1.50004
1.50008
0.561763
0.561781
0.561832
0.561896
0.561939
0.561941
2.81569
2.81566
2.81571
2.81579
2.81585
2.81586
2.07061
2.07057
2.07061
2.07071
2.07079
2.07077
0.764803
0.764787
0.764828
0.76489
0.764922
0.76491
3.72793
3.72784
3.72773
3.7277
3.72769
3.72773
2.80799
2.80789
2.80784
2.80785
2.80788
2.80789
1.0228
1.02277
1.0228
1.02283
1.02284
1.02285
4.37809
4.37781
4.37748
4.37724
4.37712
4.37717
3.72633
3.72612
3.72592
3.72582
3.7258
3.72587
1.34868
1.34864
1.3486
1.34859
1.3486
1.34864
0.0271833
0.0271833
0.0271801
0.0271753
0.0271709
0.0271676
0.0169898
0.0169898
0.0169876
0.0169849
0.0169818
0.0169793
0.00587762
0.0058769
0.00587573
0.00587437
0.00587286
0.00587137
0.0288652
0.0288617
0.0288588
0.0288564
0.0288544
0.0288535
0.0180813
0.0180799
0.0180784
0.0180771
0.0180756
0.0180743
0.00626887
0.00626812
0.00626731
0.00626649
0.00626557
0.0062645
0.0324338
0.0324284
0.0324284
0.0324316
0.0324371
0.0324443
0.0204125
0.0204111
0.0204118
0.0204137
0.0204166
0.0204201
0.00711093
0.00711061
0.00711069
0.00711102
0.00711156
0.0071123
0.0383537
0.038349
0.0383541
0.038365
0.0383799
0.0383975
0.0243226
0.0243226
0.0243265
0.0243329
0.0243414
0.024351
0.00853844
0.00853895
0.00854018
0.00854199
0.00854447
0.00854757
0.0473949
0.0473926
0.0474035
0.0474219
0.0474454
0.0474722
0.0303944
0.0303967
0.0304041
0.0304148
0.0304282
0.0304432
0.010787
0.0107884
0.0107908
0.010794
0.0107981
0.0108031
0.0608021
0.0608031
0.0608182
0.0608416
0.0608709
0.0609041
0.0396049
0.0396089
0.0396187
0.0396324
0.0396491
0.039668
0.0142561
0.0142581
0.0142613
0.0142656
0.014271
0.0142776
0.0807668
0.0807685
0.0807854
0.0808112
0.0808434
0.0808798
0.0536298
0.0536337
0.0536445
0.0536593
0.0536776
0.053698
0.0196311
0.0196337
0.0196377
0.0196429
0.0196494
0.0196566
0.111644
0.111641
0.111655
0.111678
0.111708
0.111741
0.0754157
0.0754149
0.0754228
0.0754351
0.0754506
0.0754671
0.0281209
0.0281223
0.0281256
0.02813
0.0281353
0.0281402
0.161995
0.161971
0.161972
0.161985
0.162006
0.162032
0.109869
0.109852
0.10985
0.109855
0.109864
0.109876
0.0418756
0.0418705
0.0418701
0.0418717
0.0418753
0.0418813
0.247736
0.247675
0.247656
0.24766
0.247681
0.247715
0.165543
0.165502
0.165491
0.165495
0.165511
0.165541
0.0649541
0.0649428
0.0649419
0.0649462
0.0649577
0.0649811
0.39689
0.39681
0.3968
0.396826
0.396883
0.396962
0.265259
0.265217
0.265229
0.265266
0.265324
0.265406
0.106285
0.106286
0.106301
0.106325
0.10636
0.106412
0.637295
0.637249
0.637287
0.637376
0.637501
0.637655
0.43931
0.439349
0.439428
0.439528
0.43964
0.43977
0.178311
0.178346
0.178392
0.17844
0.178488
0.178535
)
;

boundaryField
{
    seabed_topleft_surface
    {
        type            fixedFluxPressure;
        gradient        uniform 0;
        value           nonuniform List<scalar> 
72
(
44106.5
44106.5
44106.5
44106.5
44106.5
44106.5
42464.6
42464.7
42464.7
42464.6
42464.6
42464.6
39063.2
39063.2
39063.2
39063.2
39063.1
39063.1
32682.5
32682.5
32682.5
32682.5
32682.5
32682.4
20509.3
20509.3
20509.3
20509.3
20509.2
20509.1
5943.37
5943.42
5943.42
5943.38
5943.36
5943.22
305.689
305.716
305.718
305.715
305.712
305.692
45.8781
45.8797
45.8807
45.8815
45.8813
45.8808
57.8238
57.8235
57.8235
57.8226
57.8214
57.8198
52.7101
52.7106
52.7114
52.7113
52.7108
52.7101
43.4411
43.441
43.4411
43.4416
43.4423
43.4429
39.4163
39.4161
39.4155
39.4153
39.4154
39.4155
)
;
    }
    seabed_topright_surface
    {
        type            fixedFluxPressure;
        gradient        uniform 0;
        value           nonuniform List<scalar> 
72
(
0.0501787
0.0501696
0.0501616
0.050153
0.0501462
0.0501428
0.0528083
0.0527821
0.0527676
0.0527578
0.0527519
0.05275
0.0582463
0.0581964
0.0581755
0.0581678
0.058168
0.0581737
0.0668564
0.0667875
0.0667654
0.0667641
0.0667762
0.0667955
0.0791105
0.0790329
0.0790135
0.0790231
0.0790501
0.0790849
0.0954532
0.0953812
0.0953687
0.0953901
0.0954296
0.0954766
0.11615
0.116091
0.116086
0.116117
0.116164
0.116217
0.141087
0.141045
0.141048
0.141083
0.141132
0.141186
0.169604
0.169577
0.169585
0.169621
0.169667
0.169715
0.200311
0.200292
0.200302
0.200333
0.200372
0.200411
0.227478
0.227454
0.227457
0.227476
0.227502
0.22753
0.250971
0.25095
0.250948
0.250962
0.250986
0.251012
)
;
    }
    breakwater_top_surface
    {
        type            fixedFluxPressure;
        gradient        uniform 0;
        value           nonuniform List<scalar> 
36
(
1.048
1.04791
1.04798
1.04811
1.04824
1.04834
1.46761
1.46762
1.46773
1.46788
1.46802
1.46814
2.03436
2.03438
2.03448
2.0346
2.03471
2.03479
2.81569
2.81566
2.81571
2.81579
2.81585
2.81586
3.72793
3.72784
3.72773
3.7277
3.72769
3.72773
4.37809
4.37781
4.37748
4.37724
4.37712
4.37717
)
;
    }
    breakwater_left_surface
    {
        type            fixedFluxPressure;
        gradient        uniform 0;
        value           nonuniform List<scalar> 
24
(
39.4163
39.4161
39.4155
39.4153
39.4154
39.4155
33.8354
33.8352
33.8348
33.8347
33.8346
33.8345
25.133
25.1331
25.1333
25.1336
25.1339
25.1341
16.957
16.9573
16.9575
16.9575
16.9576
16.9576
)
;
    }
    breakwater_right_surface
    {
        type            fixedFluxPressure;
        gradient        uniform 0;
        value           nonuniform List<scalar> 
24
(
0.250971
0.25095
0.250948
0.250962
0.250986
0.251012
0.269259
0.269225
0.269221
0.269238
0.269271
0.269317
0.334354
0.3343
0.334295
0.33432
0.334368
0.334433
0.311877
0.311872
0.311916
0.311985
0.312081
0.312197
)
;
    }
    water_front_surface
    {
        type            fixedFluxPressure;
        gradient        uniform 0;
        value           nonuniform List<scalar> 
186
(
44106.5
42464.6
39063.2
32682.5
20509.3
5943.37
305.689
45.8781
57.8238
52.7101
43.4411
39.4163
45330.8
43264.7
39484.4
31246.6
9479.34
-9.53519
-107.734
25.2995
51.6549
42.8754
37.0012
33.8354
48242.8
45116.2
40885.7
31637
2565.63
-20.3921
-30.2564
5.39848
27.3238
28.3164
27.024
25.133
49900.5
48383.5
42425.7
14873.2
260.417
1.8064
-9.71056
4.77164
15.2441
18.3949
18.3355
16.957
0.0501787
0.0528083
0.0582463
0.0668564
0.0791105
0.0954532
0.11615
0.141087
0.169604
0.200311
0.227478
0.250971
0.0476587
0.0502084
0.0555016
0.0639539
0.0761115
0.0925415
0.113684
0.13956
0.169418
0.201272
0.235781
0.269259
0.0428162
0.0452046
0.0501918
0.0582406
0.0700016
0.086274
0.108033
0.136681
0.175124
0.227146
0.280282
0.334354
0.0358829
0.0379971
0.0424442
0.0497104
0.0605331
0.0759067
0.0969799
0.124612
0.158098
0.196377
0.24905
0.311877
61216.2
52018.9
54738.3
56244.5
34596.4
5430.14
23622.4
40.9641
-101.084
-46.993
-41.4325
-59.3402
-95.2809
-29.5042
-20.7572
-13.6606
-23.3147
-12.8454
-11.3678
-9.91134
-5.45218
2.18626
-0.731274
-1.73926
8.02871
3.15604
0.4397
11.2612
5.8325
1.4836
11.2527
6.15701
1.89315
9.55721
5.66476
1.87208
1.048
0.760123
0.291374
1.46761
1.07586
0.407277
2.03436
1.49963
0.561763
2.81569
2.07061
0.764803
3.72793
2.80799
1.0228
4.37809
3.72633
1.34868
0.0271833
0.0169898
0.00587762
0.0288652
0.0180813
0.00626887
0.0324338
0.0204125
0.00711093
0.0383537
0.0243226
0.00853844
0.0473949
0.0303944
0.010787
0.0608021
0.0396049
0.0142561
0.0807668
0.0536298
0.0196311
0.111644
0.0754157
0.0281209
0.161995
0.109869
0.0418756
0.247736
0.165543
0.0649541
0.39689
0.265259
0.106285
0.637295
0.43931
0.178311
)
;
    }
    water_back_surface
    {
        type            fixedFluxPressure;
        gradient        uniform 0;
        value           nonuniform List<scalar> 
186
(
44106.5
42464.6
39063.1
32682.4
20509.1
5943.22
305.692
45.8808
57.8198
52.7101
43.4429
39.4155
45330.8
43264.7
39484.3
31246.6
9479.23
-9.53079
-107.716
25.2944
51.6525
42.8763
36.9999
33.8345
48242.8
45116
40885.5
31637
2565.76
-20.3833
-30.254
5.39941
27.3268
28.3145
27.0217
25.1341
49900.4
48383.4
42425.5
14873.7
260.472
1.80552
-9.7093
4.77289
15.246
18.3952
18.3358
16.9576
0.0501428
0.05275
0.0581737
0.0667955
0.0790849
0.0954766
0.116217
0.141186
0.169715
0.200411
0.22753
0.251012
0.0476278
0.0501676
0.0554745
0.0639687
0.0761845
0.0926715
0.113853
0.139746
0.169588
0.201389
0.235837
0.269317
0.0427897
0.0451752
0.0501868
0.0582836
0.0701026
0.0864243
0.108214
0.136867
0.175276
0.227225
0.280287
0.334433
0.0358617
0.0379777
0.0424512
0.0497611
0.0606312
0.0760416
0.0971334
0.124756
0.158186
0.196378
0.24903
0.312197
61216.2
52018.8
54738.4
56244.5
34596.7
5430.46
23622.6
40.9611
-101.067
-46.9892
-41.4271
-59.3359
-95.2836
-29.5086
-20.7579
-13.6582
-23.3156
-12.8463
-11.3676
-9.91182
-5.45277
2.1859
-0.731045
-1.73903
8.03076
3.15781
0.440565
11.2638
5.83361
1.48367
11.253
6.15625
1.89243
9.55582
5.66348
1.87159
1.04834
0.760583
0.291611
1.46814
1.07645
0.407513
2.03479
1.50008
0.561941
2.81586
2.07077
0.76491
3.72773
2.80789
1.02285
4.37717
3.72587
1.34864
0.0271676
0.0169793
0.00587137
0.0288535
0.0180743
0.0062645
0.0324443
0.0204201
0.0071123
0.0383975
0.024351
0.00854757
0.0474722
0.0304432
0.0108031
0.0609041
0.039668
0.0142776
0.0808798
0.053698
0.0196566
0.111741
0.0754671
0.0281402
0.162032
0.109876
0.0418813
0.247715
0.165541
0.0649811
0.396962
0.265406
0.106412
0.637655
0.43977
0.178535
)
;
    }
    water_left_surface
    {
        type            fixedFluxPressure;
        gradient        uniform 0;
        value           nonuniform List<scalar> 
42
(
44106.5
44106.5
44106.5
44106.5
44106.5
44106.5
45330.8
45330.8
45330.8
45330.8
45330.8
45330.8
48242.8
48242.8
48242.9
48242.9
48242.9
48242.8
49900.5
49900.5
49900.5
49900.5
49900.5
49900.4
61216.2
61216.2
61216.2
61216.2
61216.2
61216.2
52018.9
52018.9
52018.8
52018.8
52018.8
52018.8
54738.3
54738.3
54738.3
54738.3
54738.3
54738.4
)
;
    }
    water_right_surface
    {
        type            fixedFluxPressure;
        gradient        uniform 0;
        value           nonuniform List<scalar> 
42
(
0.0501787
0.0501696
0.0501616
0.050153
0.0501462
0.0501428
0.0476587
0.0476538
0.0476469
0.047639
0.047632
0.0476278
0.0428162
0.0428138
0.0428081
0.0428004
0.0427938
0.0427897
0.0358829
0.0358822
0.0358777
0.0358712
0.0358655
0.0358617
0.0271833
0.0271833
0.0271801
0.0271753
0.0271709
0.0271676
0.0169898
0.0169898
0.0169876
0.0169849
0.0169818
0.0169793
0.00587762
0.0058769
0.00587573
0.00587437
0.00587286
0.00587137
)
;
    }
    water_top_surface
    {
        type            totalPressure;
        rho             rho;
        psi             none;
        gamma           1;
        p0              uniform 0;
        value           nonuniform List<scalar> 
180
(
0
0
0
0
0
0
0
0
0
0
0
0
-87.3824
-87.3746
-87.3704
-87.3681
-87.3604
-87.3433
-42.1199
-42.1214
-42.1207
-42.1197
-42.1192
-42.115
-1.52533
-1.52533
-1.52575
-1.526
-1.5261
-1.52593
0
0
0
0
0
0
0
0
0
0
0
0
0
0
0
0
0
0
0
0
0
0
0
0
0
0
0
0
0
0
0
0
0
0
0
0
0
0
0
0
0
0
0
0
0
0
0
0
0
0
0
0
0
0
0
0
0
0
0
0
0
0
0
0
0
0
0
0
0
0
0
0
0
0
0
0
0
0
0
0
0
0
0
0
0
0
0
0
0
0
0
0
0
0
0
0
0
0
0
0
0
0
0
0
0
0
0
0
0
0
0
0
0
0
0
0
0
0
0
0
0
0
0
0
0
0
0
0
0
0
0
0
0
0
0
0
0
0
0
0
0
0
0
0
0
0
0
0
0
0
)
;
    }
}


// ************************************************************************* //
