/*--------------------------------*- C++ -*----------------------------------*\
| =========                 |                                                 |
| \\      /  F ield         | OpenFOAM: The Open Source CFD Toolbox           |
|  \\    /   O peration     | Version:  v1612+                                |
|   \\  /    A nd           | Web:      www.OpenFOAM.com                      |
|    \\/     M anipulation  |                                                 |
\*---------------------------------------------------------------------------*/
FoamFile
{
    version     2.0;
    format      ascii;
    class       surfaceScalarField;
    location    "1";
    object      phi;
}
// * * * * * * * * * * * * * * * * * * * * * * * * * * * * * * * * * * * * * //

dimensions      [0 3 -1 0 0 0 0];

internalField   nonuniform List<scalar> 
2916
(
1.04093e-07
0.258499
-0.258499
-1.16563e-07
0.2585
-0.2585
-2.13218e-07
0.2585
-0.2585
-1.40545e-07
0.2585
-0.2585
-9.69462e-09
0.2585
-0.2585
0.258499
-0.258499
7.66688e-07
0.61941
-0.360912
1.2322e-06
0.619412
-0.360913
1.72107e-06
0.619412
-0.360913
1.80163e-06
0.619412
-0.360912
1.11863e-06
0.619411
-0.360911
0.61941
-0.360909
2.05622e-06
1.18384
-0.564431
3.73253e-06
1.18384
-0.564431
4.24065e-06
1.18384
-0.564429
3.85075e-06
1.18384
-0.564427
2.49516e-06
1.18384
-0.564425
1.18384
-0.564423
7.57241e-07
1.97144
-0.787598
3.68114e-06
1.97144
-0.787603
5.28754e-06
1.97144
-0.787602
5.35757e-06
1.97144
-0.787601
4.09258e-06
1.97144
-0.7876
1.97144
-0.787599
6.50261e-06
3.00257
-1.03114
5.3016e-06
3.00259
-1.03114
2.60901e-06
3.00258
-1.03114
3.88581e-07
3.00259
-1.03114
-3.89382e-08
3.00259
-1.03115
3.00258
-1.03114
1.61616e-05
4.78625
-1.78369
5.07247e-06
4.78624
-1.78364
-1.23777e-05
4.78623
-1.78363
-2.85754e-05
4.78624
-1.78363
-2.84783e-05
4.78625
-1.78367
4.78625
-1.7837
3.11909e-05
4.5206
0.265619
1.04207e-05
4.52058
0.265678
-2.3398e-05
4.52058
0.265692
-4.91491e-05
4.52058
0.265685
-7.6235e-05
4.52063
0.265655
4.52047
0.265702
-4.7404e-05
3.28445
1.23619
-9.30061e-05
3.28437
1.23627
-0.000105263
3.28434
1.23625
-9.63878e-05
3.28436
1.23622
-6.29741e-05
3.28444
1.23616
3.2843
1.23611
3.52365e-05
2.02324
1.26117
-2.46383e-05
2.02329
1.26114
-1.78323e-05
2.02327
1.26106
2.08752e-05
2.02328
1.26104
6.29418e-05
2.02331
1.26108
2.02325
1.2611
6.82008e-05
1.14461
0.878563
0.000141492
1.14471
0.878492
0.000194236
1.14471
0.878513
0.000195442
1.14471
0.878575
0.000150695
1.14469
0.878672
1.14464
0.878761
9.10224e-05
0.562539
0.581989
0.000175346
0.562583
0.582042
0.000206131
0.562568
0.58211
0.000186714
0.562547
0.582174
0.000121572
0.56252
0.582235
0.562483
0.582287
6.2802e-05
0.562481
0.000121088
0.562535
0.000140594
0.562552
0.000127764
0.562562
8.26907e-05
0.56257
0.562566
-8.92067e-07
0.178717
-0.437215
-2.04782e-06
0.178717
-0.437216
-2.35554e-06
0.178716
-0.437216
-1.78832e-06
0.178715
-0.437215
-7.86909e-07
0.178714
-0.437215
0.178714
-0.437214
5.01255e-07
0.475812
-0.658008
-1.59751e-07
0.475814
-0.658008
-3.93336e-07
0.475812
-0.658008
-6.24525e-07
0.47581
-0.658007
-4.50961e-07
0.475809
-0.658005
0.475807
-0.658003
6.32746e-06
0.947935
-1.03656
6.63329e-06
0.947942
-1.03656
6.34771e-06
0.947939
-1.03656
4.98564e-06
0.947937
-1.03655
3.22201e-06
0.947935
-1.03655
0.947932
-1.03655
5.568e-06
1.64209
-1.48176
8.33242e-06
1.6421
-1.48176
8.03154e-06
1.6421
-1.48176
5.81178e-06
1.6421
-1.48176
3.51701e-06
1.64209
-1.48176
1.64209
-1.48175
1.37049e-05
2.93641
-2.32547
1.42658e-05
2.93645
-2.32549
7.11214e-06
2.93644
-2.32548
-2.39013e-06
2.93644
-2.32548
-9.92212e-06
2.93644
-2.32549
2.93642
-2.32548
1.06121e-05
3.91087
-2.75818
-7.91633e-06
3.91086
-2.75803
-1.82253e-05
3.91083
-2.758
-1.61353e-05
3.91081
-2.758
-7.73772e-05
3.9109
-2.75806
3.91071
-2.75807
-6.58171e-05
3.68995
0.486612
-0.000104823
3.68989
0.48668
-0.000127881
3.68985
0.486688
-0.000147135
3.68983
0.486689
-0.000234079
3.68996
0.486675
3.68954
0.486639
4.30262e-05
2.20482
2.72128
-5.81222e-05
2.20484
2.72142
-7.373e-05
2.20476
2.72135
-3.53113e-05
2.20472
2.72129
1.82097e-05
2.20481
2.72126
2.20455
2.72112
3.50916e-05
1.26372
2.20224
6.80859e-05
1.26378
2.20217
7.7398e-05
1.26374
2.20208
6.0261e-05
1.26373
2.20205
9.79073e-05
1.26377
2.20209
1.26372
2.20203
2.0641e-05
0.784938
1.35733
4.72166e-05
0.784998
1.35725
3.12392e-05
0.784987
1.35728
-5.07364e-06
0.78497
1.35737
-1.28257e-05
0.784954
1.35749
0.784908
1.35756
-2.06386e-06
0.373274
0.993657
1.92871e-05
0.373306
0.993723
2.72936e-05
0.373286
0.993804
2.34059e-05
0.373257
0.993891
1.47735e-05
0.37322
0.993982
0.373167
0.994043
2.26715e-05
0.935726
7.75564e-05
0.935782
0.000114164
0.935802
0.00012175
0.935816
8.99731e-05
0.935827
0.935822
3.24015e-07
0.0106995
-0.447915
-6.38453e-07
0.0106991
-0.447914
-8.38469e-07
0.0106976
-0.447913
-3.49555e-07
0.0106966
-0.447912
2.07777e-07
0.0106967
-0.447912
0.0106977
-0.447911
4.604e-06
0.178586
-0.825899
4.11506e-06
0.17859
-0.825899
3.44097e-06
0.178588
-0.825898
2.36485e-06
0.178587
-0.825896
1.49329e-06
0.178587
-0.825895
0.178589
-0.825893
1.14178e-05
0.469083
-1.32707
8.98966e-06
0.469104
-1.32707
6.01205e-06
0.469103
-1.32707
3.91345e-06
0.469102
-1.32706
3.30756e-06
0.4691
-1.32706
0.469102
-1.32706
9.49337e-06
1.27993
-2.29262
1.16548e-05
1.27997
-2.29263
1.18608e-05
1.27997
-2.29263
1.23757e-05
1.27997
-2.29262
9.66869e-06
1.27997
-2.29262
1.27997
-2.29261
2.5012e-05
1.95954
-3.00511
1.63977e-05
1.95967
-3.00518
1.54064e-05
1.95965
-3.00517
1.66695e-05
1.95965
-3.00516
6.67201e-06
1.95966
-3.00516
1.95965
-3.00515
-8.81441e-05
0.38456
-1.1831
-0.000101224
0.384638
-1.18299
-6.86621e-05
0.384612
-1.183
-5.3621e-05
0.38461
-1.18298
-0.000121815
0.384684
-1.18302
0.384672
-1.18322
3.64986e-05
-0.699302
1.57045
3.71587e-05
-0.699271
1.57058
9.12241e-05
-0.699314
1.57057
0.000102217
-0.699299
1.5706
1.23095e-05
-0.699172
1.57063
-0.699158
1.57048
1.43883e-05
-0.181903
2.20387
8.51226e-05
-0.181926
2.20399
9.87861e-05
-0.181962
2.20399
5.70407e-05
-0.18195
2.20397
3.59939e-05
-0.181861
2.20396
-0.181835
2.20383
1.3377e-05
0.238284
1.78203
3.30694e-07
0.238239
1.78202
-6.66252e-05
0.238222
1.78197
-0.000138997
0.238236
1.78193
-0.000103736
0.238288
1.7819
0.238319
1.78177
-8.89557e-06
0.260267
1.33536
-0.000107183
0.260264
1.33533
-0.000203485
0.260248
1.33535
-0.000243356
0.260234
1.33541
-0.00018314
0.260228
1.3355
0.260203
1.3355
-5.51507e-05
0.144008
1.10997
-9.77752e-05
0.144019
1.11001
-0.000114216
0.144001
1.11007
-0.000103741
0.143975
1.11014
-6.79948e-05
0.143943
1.11023
0.143903
1.11027
1.13701e-05
1.07972
5.30708e-05
1.07976
8.58986e-05
1.07977
9.57383e-05
1.07978
7.20447e-05
1.07979
1.07979
5.71349e-06
-0.327125
-0.120796
4.85368e-06
-0.327122
-0.12079
4.73662e-06
-0.327123
-0.12079
4.3149e-06
-0.327122
-0.12079
2.84792e-06
-0.327121
-0.120789
-0.327119
-0.120789
1.0226e-05
-0.345994
-0.80704
7.83889e-06
-0.34598
-0.807039
5.47904e-06
-0.345978
-0.80704
4.08629e-06
-0.345977
-0.80704
3.35272e-06
-0.345976
-0.80704
-0.34597
-0.807038
2.04798e-06
0.107001
-1.78007
1.28174e-06
0.107025
-1.78007
8.71787e-07
0.107027
-1.78007
1.78213e-06
0.107029
-1.78007
2.12841e-06
0.107031
-1.78007
0.107035
-1.78006
1.42176e-05
1.88234
-4.06796
1.88974e-05
1.88237
-4.06798
2.82317e-05
1.88237
-4.06798
3.80209e-05
1.88237
-4.06797
2.54182e-05
1.88237
-4.06795
1.88235
-4.0679
4.14535e-06
0.690668
-1.81344
1.62502e-05
0.690758
-1.81358
3.88515e-05
0.69073
-1.81355
4.93827e-05
0.690747
-1.81355
3.25793e-05
0.690816
-1.81359
0.690817
-1.81359
-7.51358e-05
-1.15576
0.663405
-6.06959e-05
-1.15574
0.66349
2.59399e-05
-1.15578
0.663434
9.68247e-05
-1.15575
0.663457
8.54511e-05
-1.15565
0.663446
-1.15555
0.663232
-6.62812e-05
-1.11529
1.53004
6.35954e-05
-1.11538
1.53009
0.00014556
-1.11538
1.53009
0.000149444
-1.11532
1.53016
0.000108213
-1.11521
1.53023
-1.11509
1.53013
-2.45047e-05
-0.442884
1.53148
6.15073e-05
-0.443002
1.53154
8.40066e-05
-0.44298
1.53158
5.05007e-05
-0.442911
1.5316
3.34988e-05
-0.442822
1.53159
-0.442727
1.5315
9.92405e-05
-0.0802789
1.41933
5.23925e-05
-0.080325
1.41939
-2.36948e-05
-0.0802984
1.41936
-6.6568e-05
-0.0802519
1.41931
-4.29385e-05
-0.0801982
1.41925
-0.0801428
1.41915
-2.33185e-05
0.0401015
1.215
-0.000150849
0.0401108
1.21502
-0.000244569
0.0401228
1.21502
-0.000258308
0.0401339
1.21503
-0.000169447
0.0401476
1.21506
0.0401559
1.21503
-9.85507e-05
0.0411655
1.109
-0.000169958
0.0411719
1.10901
-0.000196447
0.041169
1.10905
-0.000179935
0.0411617
1.1091
-0.000115921
0.0411515
1.10916
0.0411366
1.10918
-1.19236e-05
1.1209
4.63736e-06
1.12092
2.07014e-05
1.12093
2.57253e-05
1.12094
1.99926e-05
1.12095
1.12095
1.33736e-07
-0.000441942
0.000441808
1.11786e-07
-0.000441894
0.000441819
1.09691e-07
-0.000441877
0.000441809
9.03125e-08
-0.00044187
0.000441811
5.86258e-08
-0.000441874
0.00044181
-0.000441872
0.000441814
3.55159e-07
-0.000901417
0.000459148
1.92534e-07
-0.000901371
0.000459141
1.28298e-07
-0.00090136
0.000459125
7.55396e-08
-0.000901364
0.00045912
3.05425e-08
-0.000901388
0.000459111
-0.000901407
0.000459106
6.63399e-07
-0.00139454
0.000492298
2.5791e-07
-0.00139452
0.000492263
9.07776e-08
-0.00139453
0.000492229
-8.79046e-09
-0.00139456
0.000492212
-7.50462e-08
-0.0013946
0.000492188
-0.00139463
0.000492166
8.66346e-07
-0.00193338
0.000537434
2.19866e-07
-0.00193341
0.000537366
-2.90255e-08
-0.00193345
0.000537314
-1.74763e-07
-0.00193348
0.000537283
-2.64646e-07
-0.00193353
0.000537248
-0.00193356
0.000537207
8.83545e-07
-0.00252186
0.000586626
1.01468e-07
-0.00252192
0.000586512
-2.03877e-07
-0.00252196
0.00058645
-3.6484e-07
-0.00252199
0.000586405
-4.57954e-07
-0.00252202
0.000586365
-0.00252201
0.000586311
7.08043e-07
-0.00314823
0.000624404
-3.75052e-08
-0.00314832
0.000624245
-3.19332e-07
-0.00314833
0.000624177
-4.65158e-07
-0.00314833
0.000624138
-5.5169e-07
-0.00314832
0.000624112
-0.00314827
0.000624072
4.19924e-07
-0.00377337
0.000623416
-1.8646e-07
-0.00377346
0.000623221
-3.8436e-07
-0.00377344
0.000623154
-4.77167e-07
-0.00377342
0.000623134
-5.44033e-07
-0.00377338
0.000623138
-0.00377328
0.000623129
8.72656e-08
-0.00431547
0.000540883
-2.74422e-07
-0.00431557
0.000540659
-3.37779e-07
-0.00431553
0.000540596
-3.49628e-07
-0.00431548
0.000540592
-4.01736e-07
-0.00431538
0.000540621
-0.00431522
0.00054066
-1.41969e-07
-0.00462785
0.000311723
-2.5354e-07
-0.00462792
0.000311462
-1.80415e-07
-0.00462785
0.000311412
-1.3227e-07
-0.00462776
0.000311445
-1.66886e-07
-0.00462762
0.000311517
-0.0046274
0.000311631
-1.90888e-07
-0.00436509
-0.00026298
-1.03015e-07
-0.00436512
-0.000263192
4.35278e-08
-0.00436502
-0.000263192
1.18105e-07
-0.00436489
-0.00026311
9.8313e-08
-0.00436472
-0.000262988
-0.0043644
-0.000262822
1.81745e-07
-0.00314973
-0.00121561
3.50363e-07
-0.00314974
-0.00121546
4.49797e-07
-0.00314971
-0.00121533
4.77477e-07
-0.00314964
-0.00121517
3.80656e-07
-0.00314954
-0.00121495
-0.00314925
-0.00121461
2.88212e-07
-0.00314989
3.44932e-07
-0.0031496
3.1369e-07
-0.0031495
2.58357e-07
-0.00314942
2.01278e-07
-0.00314932
-0.00314909
6.23541e-08
-0.00044259
0.000884313
8.67315e-08
-0.000442561
0.000884317
9.47198e-08
-0.000442549
0.00088431
8.35136e-08
-0.000442551
0.000884311
5.78094e-08
-0.000442563
0.000884311
-0.000442571
0.000884299
2.45727e-07
-0.000905725
0.000921863
1.33814e-07
-0.000905708
0.000921853
8.85263e-08
-0.00090571
0.000921839
4.18464e-08
-0.000905729
0.000921834
-1.8243e-08
-0.00090577
0.000921831
-0.000905809
0.000921816
4.40034e-07
-0.00140918
0.000994563
1.2622e-07
-0.00140919
0.000994532
-5.36712e-09
-0.00140921
0.00099451
-1.06264e-07
-0.00140925
0.000994498
-2.24586e-07
-0.00140931
0.000994494
-0.00140936
0.000994485
5.32932e-07
-0.0019697
0.00109594
2.72476e-08
-0.00196974
0.00109589
-1.75268e-07
-0.00196978
0.00109586
-3.3381e-07
-0.00196982
0.00109584
-5.07887e-07
-0.00196987
0.00109584
-0.00196991
0.00109584
4.93129e-07
-0.00259782
0.00121218
-1.17399e-07
-0.00259788
0.00121209
-3.53222e-07
-0.00259792
0.00121205
-5.36183e-07
-0.00259794
0.00121204
-7.34764e-07
-0.00259796
0.00121206
-0.00259795
0.00121207
3.3894e-07
-0.00329093
0.00131488
-2.36436e-07
-0.00329103
0.00131475
-4.56784e-07
-0.00329104
0.00131472
-6.24697e-07
-0.00329103
0.00131472
-8.18776e-07
-0.003291
0.00131475
-0.00329093
0.00131479
1.27295e-07
-0.00401579
0.00134606
-3.20129e-07
-0.00401595
0.00134588
-4.64505e-07
-0.00401594
0.00134583
-5.77265e-07
-0.00401589
0.00134585
-7.35256e-07
-0.00401581
0.0013459
-0.00401563
0.00134598
-2.56772e-08
-0.00466816
0.00119168
-3.00792e-07
-0.0046683
0.00119141
-3.83068e-07
-0.00466826
0.00119136
-4.55812e-07
-0.00466818
0.00119139
-5.74301e-07
-0.00466804
0.00119147
-0.00466781
0.00119162
-1.27556e-07
-0.00506056
0.000703306
-1.90867e-07
-0.00506073
0.00070297
-1.34265e-07
-0.00506065
0.00070292
-1.18017e-07
-0.00506049
0.000702976
-1.94692e-07
-0.00506025
0.000703105
-0.00505987
0.000703318
6.37897e-09
-0.00502169
-0.000302169
1.12384e-07
-0.00502184
-0.000302519
2.78198e-07
-0.00502177
-0.000302467
3.56735e-07
-0.00502161
-0.000302272
2.89051e-07
-0.00502137
-0.000301953
-0.00502091
-0.000301469
4.94916e-07
-0.00374191
-0.00249578
5.74914e-07
-0.00374199
-0.00249548
6.4453e-07
-0.00374196
-0.00249523
6.45442e-07
-0.00374187
-0.00249494
5.19151e-07
-0.00374171
-0.00249455
-0.00374134
-0.00249393
5.96185e-07
-0.00689229
3.85126e-07
-0.00689187
2.32136e-07
-0.00689168
1.30004e-07
-0.00689158
4.65839e-08
-0.00689145
-0.00689112
4.53648e-08
-0.000424708
0.00130901
7.9557e-08
-0.00042469
0.00130902
8.98851e-08
-0.000424683
0.00130902
8.32328e-08
-0.000424689
0.00130901
6.19899e-08
-0.000424702
0.00130901
-0.00042471
0.00130899
1.77344e-07
-0.000874592
0.00137148
9.98766e-08
-0.000874591
0.00137147
6.65625e-08
-0.000874599
0.00137146
2.94591e-08
-0.000874623
0.00137146
-1.17899e-08
-0.000874664
0.00137145
-0.000874694
0.00137144
2.91464e-07
-0.00137567
0.00149476
5.09796e-08
-0.00137569
0.00149474
-4.82198e-08
-0.00137571
0.00149472
-1.2431e-07
-0.00137576
0.00149471
-2.10305e-07
-0.00137581
0.00149472
-0.00137584
0.00149472
3.22009e-07
-0.00195428
0.00167305
-6.75463e-08
-0.00195433
0.00167301
-2.19633e-07
-0.00195436
0.00167299
-3.40842e-07
-0.0019544
0.00167299
-4.61791e-07
-0.00195444
0.00167302
-0.00195445
0.00167303
2.52508e-07
-0.00263493
0.00189092
-1.99159e-07
-0.002635
0.00189086
-3.8029e-07
-0.00263502
0.00189084
-5.17361e-07
-0.00263503
0.00189086
-6.50692e-07
-0.00263504
0.0018909
-0.00263501
0.00189094
1.41755e-07
-0.00343686
0.00211488
-2.84369e-07
-0.00343694
0.0021148
-4.548e-07
-0.00343695
0.00211479
-5.84947e-07
-0.00343693
0.00211482
-7.15348e-07
-0.00343691
0.00211488
-0.00343684
0.00211494
1.51057e-08
-0.00437293
0.00228052
-3.12466e-07
-0.00437304
0.00228038
-4.49108e-07
-0.00437303
0.00228037
-5.56223e-07
-0.00437299
0.00228041
-6.76867e-07
-0.00437294
0.00228048
-0.00437282
0.00228057
-8.63785e-08
-0.00546678
0.00228445
-2.96849e-07
-0.00546693
0.00228422
-3.73826e-07
-0.00546689
0.00228419
-4.36361e-07
-0.00546682
0.00228423
-5.10514e-07
-0.0054667
0.00228433
-0.0054665
0.00228447
-6.47489e-08
-0.00673611
0.00197207
-1.43845e-07
-0.00673629
0.00197171
-1.2558e-07
-0.00673623
0.00197168
-1.21353e-07
-0.00673611
0.00197176
-1.68325e-07
-0.00673592
0.00197193
-0.00673562
0.00197218
3.36091e-07
-0.00713779
9.89633e-05
2.12277e-07
-0.00713795
9.86385e-05
2.3524e-07
-0.00713788
9.869e-05
2.27653e-07
-0.0071377
9.88812e-05
1.34127e-07
-0.00713745
9.91749e-05
-0.00713703
9.96238e-05
8.41814e-07
-0.00598342
-0.00365111
5.30653e-07
-0.00598354
-0.00365091
4.09103e-07
-0.00598346
-0.00365067
3.11355e-07
-0.00598331
-0.00365039
1.71392e-07
-0.00598313
-0.00365004
-0.00598281
-0.00364945
8.65571e-07
-0.012877
2.51309e-07
-0.0128767
-9.04672e-08
-0.0128766
-3.13865e-07
-0.0128765
-4.50469e-07
-0.0128764
-0.0128762
2.26349e-08
-0.000384716
0.00169377
6.63426e-08
-0.000384711
0.00169379
7.67411e-08
-0.000384707
0.00169378
7.20219e-08
-0.000384713
0.00169378
5.71394e-08
-0.000384725
0.00169377
-0.000384731
0.00169375
1.03488e-07
-0.000799349
0.00178597
6.20164e-08
-0.000799361
0.00178598
4.27699e-08
-0.000799371
0.00178597
2.22565e-08
-0.000799393
0.00178596
-3.6649e-09
-0.000799424
0.00178596
-0.000799445
0.00178594
1.51239e-07
-0.0012774
0.00197222
1.43378e-09
-0.00127742
0.00197222
-6.0283e-08
-0.00127744
0.00197221
-1.09881e-07
-0.00127747
0.00197222
-1.61311e-07
-0.00127751
0.00197223
-0.00127753
0.00197222
1.36346e-07
-0.00185973
0.00225438
-1.02794e-07
-0.00185977
0.00225437
-2.00352e-07
-0.00185979
0.00225436
-2.77352e-07
-0.00185981
0.00225438
-3.49009e-07
-0.00185983
0.00225441
-0.00185983
0.00225442
7.87639e-08
-0.00259873
0.00262868
-1.94597e-07
-0.00259878
0.00262867
-3.15533e-07
-0.00259878
0.00262867
-4.05666e-07
-0.00259878
0.0026287
-4.82729e-07
-0.00259878
0.00262874
-0.00259875
0.00262877
1.38861e-08
-0.00355397
0.00306889
-2.43485e-07
-0.00355402
0.00306887
-3.64049e-07
-0.003554
0.00306888
-4.54317e-07
-0.00355398
0.00306891
-5.35428e-07
-0.00355395
0.00306897
-0.00355388
0.003069
-3.03759e-08
-0.00475892
0.00348445
-2.25594e-07
-0.00475896
0.0034844
-3.35512e-07
-0.0047589
0.0034844
-4.26329e-07
-0.00475885
0.00348443
-5.10337e-07
-0.0047588
0.00348449
-0.00475867
0.00348454
-8.97489e-09
-0.00613705
0.00366186
-1.43343e-07
-0.00613705
0.00366176
-2.38122e-07
-0.00613694
0.00366174
-3.13565e-07
-0.00613684
0.00366178
-3.646e-07
-0.00613673
0.00366186
-0.00613654
0.00366194
3.13596e-07
-0.0073709
0.00320524
1.57136e-07
-0.00737081
0.0032051
7.97187e-08
-0.00737063
0.00320507
8.57542e-09
-0.00737045
0.00320512
-6.90445e-08
-0.00737026
0.00320523
-0.00736997
0.00320536
9.67038e-07
-0.00868624
0.00141311
6.34628e-07
-0.00868605
0.00141292
4.63743e-07
-0.00868581
0.00141294
3.3126e-07
-0.00868558
0.00141304
1.69563e-07
-0.00868534
0.00141319
-0.0086849
0.00141342
1.65264e-06
-0.00739803
-0.00494167
8.15387e-07
-0.00739797
-0.00494138
4.23168e-07
-0.00739787
-0.00494122
8.98739e-08
-0.00739774
-0.00494102
-1.88909e-07
-0.0073976
-0.00494077
-0.00739731
-0.0049403
7.29039e-07
-0.0202775
-3.28287e-07
-0.0202778
-8.73633e-07
-0.0202778
-1.28917e-06
-0.0202778
-1.53388e-06
-0.0202778
-0.0202778
1.52407e-05
0.651002
-0.771813
1.16968e-05
0.651019
-0.771806
8.05784e-06
0.651019
-0.771806
5.95443e-06
0.651019
-0.771807
5.1422e-06
0.651019
-0.771808
0.651019
-0.771803
1.40645e-05
2.51559
-1.8646
1.05048e-05
2.51561
-1.86459
8.65452e-06
2.51561
-1.86459
8.45535e-06
2.51561
-1.86459
1.0455e-05
2.51561
-1.86459
2.51561
-1.86458
1.58541e-05
-3.68032
1.24704e-05
-3.68029
1.70236e-05
-3.6803
2.5986e-05
-3.6803
3.59484e-05
-3.6803
-3.68026
-2.64746e-08
-0.546433
-1.03242
1.0187e-06
-0.546431
-1.03241
1.01367e-06
-0.546432
-1.03241
6.12552e-07
-0.546432
-1.03241
1.51023e-07
-0.546433
-1.03241
-0.546431
-1.03241
1.4898e-06
0.0849508
-2.49599
-1.40382e-06
0.084982
-2.496
1.18284e-06
0.084976
-2.496
4.07192e-06
0.0849768
-2.496
-1.13488e-07
0.0849779
-2.496
0.0850064
-2.49602
-5.69301e-08
-5.44419
-1.30747e-05
-5.44421
-1.43432e-05
-5.44422
-1.29981e-05
-5.44422
-8.41481e-06
-5.44423
-5.44424
4.0085e-06
-3.42325
0.61076
1.88071e-06
-3.42324
0.610757
7.21562e-06
-3.42324
0.610752
8.80119e-06
-3.42323
0.610747
-1.76594e-06
-3.42321
0.610737
-3.42321
0.610744
4.3396e-06
-5.3165
-0.602742
-3.89403e-05
-5.31649
-0.602707
-6.06389e-05
-5.31649
-0.602727
-9.10698e-05
-5.31648
-0.602736
-8.79506e-05
-5.31649
-0.602729
-5.31651
-0.602815
-6.03924e-06
-3.28576
-1.67919e-05
-3.28578
-2.27621e-05
-3.28577
-2.86819e-05
-3.28577
-2.1091e-05
-3.28577
-3.28573
1.57396e-05
-4.76522
1.308
2.67486e-05
-4.76532
1.30809
3.14006e-05
-4.76534
1.30811
1.94263e-05
-4.76535
1.30813
1.71539e-07
-4.76535
1.30816
-4.76527
1.30812
0.000174303
-4.90335
-0.464799
0.000194502
-4.90345
-0.464613
0.000195242
-4.90348
-0.464589
0.00019846
-4.90352
-0.464566
0.000145946
-4.90357
-0.464456
-4.90351
-0.464434
9.20014e-06
-3.11219
-2.35503e-05
-3.11222
-3.86018e-05
-3.11223
-4.96971e-05
-3.11222
-6.179e-05
-3.1122
-3.11215
6.45331e-05
-0.619864
0.11436
7.58756e-05
-0.619951
0.114458
8.33297e-05
-0.619918
0.114476
9.42313e-05
-0.619928
0.114503
8.0484e-05
-0.619983
0.114561
-0.619966
0.114577
-2.4324e-05
0.313426
-1.39807
-5.88329e-05
0.313473
-1.398
-6.86276e-05
0.31348
-1.39798
-5.58134e-05
0.313467
-1.39798
-8.55967e-06
0.31345
-1.39793
0.313478
-1.39789
4.46795e-06
-1.80861
4.31005e-06
-1.80863
-4.1661e-06
-1.80865
-5.89966e-06
-1.80865
-7.15049e-06
-1.80865
-1.80862
-5.75543e-05
1.60627
-0.828456
-4.87247e-06
1.60633
-0.828439
2.72999e-05
1.60631
-0.828431
7.18958e-05
1.60633
-0.828415
0.000122418
1.60634
-0.828386
1.60627
-0.828344
-6.09465e-05
1.08024
-0.871972
-2.58684e-05
1.08027
-0.871982
-2.19272e-05
1.08029
-0.871977
-2.49284e-05
1.08032
-0.871978
1.13755e-05
1.08035
-0.871978
1.08035
-0.871957
-1.49721e-05
-0.966976
-1.89828e-05
-0.966995
-3.09462e-05
-0.967004
-3.22753e-05
-0.967017
-1.65821e-05
-0.967027
-0.967016
-6.91305e-05
1.0781
-0.376442
-4.54488e-05
1.0781
-0.376465
-3.88468e-05
1.07811
-0.376455
-2.98386e-05
1.07815
-0.376426
1.93149e-05
1.0782
-0.376399
1.07817
-0.376361
-2.02446e-05
0.669824
-0.463678
-3.55632e-05
0.669826
-0.463695
-5.22514e-05
0.669834
-0.46369
-4.5115e-05
0.669845
-0.46368
-8.72458e-06
0.669856
-0.463672
0.66985
-0.463646
-8.09059e-06
-0.606472
-9.99556e-06
-0.606491
-1.40231e-05
-0.606491
-1.12903e-05
-0.606493
-5.80094e-07
-0.606495
-0.606477
-2.44753e-05
1.34622
-0.191158
-1.79923e-05
1.34625
-0.191176
-1.13878e-05
1.34628
-0.191159
3.19612e-06
1.34629
-0.191133
1.65313e-05
1.34629
-0.19111
1.34624
-0.191084
-2.06607e-05
1.0287
-0.14613
-4.16833e-05
1.02871
-0.146137
-4.3128e-05
1.02872
-0.146134
-2.45351e-05
1.02872
-0.14613
-6.82416e-06
1.02872
-0.146127
1.02871
-0.146117
-1.202e-05
-0.235846
-1.87924e-05
-0.235855
-1.67558e-05
-0.235854
-9.43478e-06
-0.235852
-2.57196e-06
-0.235851
-0.235841
3.35213e-05
1.15735
0.0707924
5.61629e-05
1.15741
0.0707868
5.89995e-05
1.1574
0.0707921
5.81565e-05
1.15738
0.0707992
4.8344e-05
1.15735
0.0708054
1.1573
0.0708131
-1.48452e-05
1.002
0.00923612
2.82582e-06
1.00202
0.00923469
2.38868e-05
1.00201
0.00923508
3.60258e-05
1.00201
0.00923407
3.23146e-05
1.002
0.00923186
1.00198
0.00923244
-5.50597e-06
-0.103558
-6.1162e-07
-0.103561
5.08923e-06
-0.10356
8.79456e-06
-0.10356
8.61047e-06
-0.103559
-0.103554
-1.70609e-05
1.07986
0.205952
-4.44246e-05
1.07988
0.205953
-6.07649e-05
1.07988
0.205954
-5.7863e-05
1.07988
0.205955
-2.77295e-05
1.07988
0.205957
1.07986
0.205956
-7.64838e-06
0.966545
0.122552
-4.4145e-06
0.966557
0.122553
2.91229e-07
0.966558
0.122553
4.6712e-06
0.96656
0.122551
7.7606e-06
0.966561
0.122549
0.96655
0.122546
-3.99057e-08
-0.00198384
2.0975e-06
-0.00198442
3.16337e-06
-0.00198446
4.32363e-06
-0.00198474
3.56014e-06
-0.00198543
-0.00198472
-4.2033e-05
0.956895
0.358099
-7.89068e-05
0.956903
0.358104
-9.56853e-05
0.956917
0.358109
-9.06822e-05
0.956936
0.358115
-5.66367e-05
0.956958
0.358122
0.956955
0.358119
-8.95602e-06
0.861176
0.218282
-1.75725e-05
0.861187
0.218286
-2.3321e-05
0.861192
0.218287
-2.25209e-05
0.861198
0.218289
-1.30294e-05
0.861206
0.21829
0.861199
0.218288
1.13972e-07
0.0501711
-1.11954e-06
0.0501714
-2.77727e-06
0.0501714
-3.0617e-06
0.0501715
-1.54488e-06
0.0501716
0.0501716
-1.26596e-05
0.842593
0.63642
-1.92295e-05
0.842603
0.636429
-2.23884e-05
0.842609
0.636431
-2.30382e-05
0.842616
0.636433
-1.57952e-05
0.842624
0.636437
0.84262
0.636431
-2.21132e-06
0.71383
0.347054
-6.48837e-06
0.71384
0.347058
-1.06996e-05
0.713841
0.347058
-1.18686e-05
0.713844
0.34706
-8.16587e-06
0.713847
0.347061
0.713841
0.347058
3.69187e-07
0.0917622
-9.54437e-07
0.0917628
-2.32777e-06
0.0917628
-2.74674e-06
0.091763
-1.90497e-06
0.0917633
0.0917627
1.57451e-06
0.0298075
-0.110856
0.0810471
-7.25289e-07
0.0298076
-0.110858
0.0810474
-1.55541e-06
0.0298075
-0.110859
0.0810474
-1.74994e-06
0.0298075
-0.110859
0.0810476
-1.31744e-06
0.0298075
-0.110859
0.0810478
0.0298071
-0.110859
0.0810468
5.72426e-07
0.0507001
-0.0798426
0.058947
-1.17658e-06
0.0507005
-0.0798441
0.0589472
-1.685e-06
0.0507006
-0.0798444
0.0589474
-1.70972e-06
0.0507008
-0.0798448
0.0589476
-1.33112e-06
0.050701
-0.079845
0.0589477
0.0507006
-0.0798444
0.058947
-1.64202e-07
-0.0292134
0.0215246
-6.91157e-07
-0.029214
0.0215247
-8.83034e-07
-0.029214
0.0215248
-8.64726e-07
-0.0292141
0.0215249
-5.9775e-07
-0.0292141
0.021525
-0.0292137
0.0215247
1.00945e-07
0.0428452
-0.153706
-1.4337e-06
0.0428455
-0.153708
-2.12404e-06
0.0428454
-0.153709
-2.38156e-06
0.0428454
-0.153709
-1.92681e-06
0.0428454
-0.153709
0.042845
-0.153707
-5.67683e-07
0.0722452
-0.109247
-1.82081e-06
0.072246
-0.109248
-2.29911e-06
0.0722463
-0.109248
-2.25848e-06
0.0722466
-0.109248
-1.68652e-06
0.0722469
-0.109248
0.0722464
-0.109247
-5.48729e-07
-0.0391161
-7.89167e-07
-0.0391165
-9.35098e-07
-0.0391164
-8.8734e-07
-0.0391165
-5.23578e-07
-0.0391165
-0.0391161
-7.35239e-07
0.0614689
-0.215177
-1.88805e-06
0.0614696
-0.21518
-2.37897e-06
0.0614696
-0.21518
-2.38541e-06
0.0614696
-0.215181
-1.87057e-06
0.0614697
-0.215181
0.0614691
-0.215178
-7.05894e-07
0.101777
-0.149556
-1.83737e-06
0.101778
-0.149558
-2.47708e-06
0.101778
-0.149558
-2.34123e-06
0.101779
-0.149558
-1.35613e-06
0.101779
-0.149558
0.101778
-0.149555
-4.26379e-07
-0.0515732
-7.78832e-07
-0.0515736
-1.01451e-06
-0.0515737
-8.94528e-07
-0.0515737
-3.71031e-07
-0.0515737
-0.0515731
-1.17519e-06
0.0884499
-0.303628
-2.28666e-06
0.0884511
-0.303632
-2.68872e-06
0.0884512
-0.303632
-2.35913e-06
0.0884513
-0.303632
-1.23273e-06
0.0884514
-0.303632
0.0884505
-0.303629
-5.05944e-07
0.142587
-0.203694
-1.54787e-06
0.142589
-0.203697
-2.25281e-06
0.142589
-0.203697
-2.0186e-06
0.14259
-0.203696
-5.24256e-07
0.14259
-0.203697
0.142589
-0.203694
-1.57316e-07
-0.0663117
-7.77837e-07
-0.0663124
-1.05639e-06
-0.0663124
-7.69042e-07
-0.0663123
-1.17652e-07
-0.0663124
-0.0663118
-6.73421e-07
0.124806
-0.428435
-1.18307e-06
0.124808
-0.428439
-2.26174e-06
0.124808
-0.428439
-2.18093e-06
0.124808
-0.42844
-1.38793e-06
0.124808
-0.428441
0.124806
-0.428436
-9.82551e-08
0.197976
-0.276865
-9.88492e-07
0.197978
-0.276868
-1.86622e-06
0.197978
-0.276868
-1.80556e-06
0.197979
-0.276868
-7.80805e-07
0.197979
-0.276869
0.197977
-0.276866
-1.59574e-07
-0.0823636
-7.3382e-07
-0.0823645
-7.87327e-07
-0.0823643
-6.2075e-07
-0.0823644
-2.05618e-07
-0.0823646
-0.082364
4.32198e-07
0.207989
-1.17603e-06
0.207992
-2.765e-06
0.207992
-3.07124e-06
0.207992
-2.70935e-06
0.207993
0.207991
8.36377e-08
0.278178
-1.27412e-06
0.278181
-2.80827e-06
0.278181
-2.95665e-06
0.278182
-2.28435e-06
0.278183
0.27818
-2.62125e-07
-6.32747e-07
-9.43836e-07
-9.36502e-07
-8.19168e-07
9.83499e-09
0.0019733
-0.000279458
4.64789e-08
0.00197331
-0.000279459
5.41414e-08
0.00197331
-0.000279456
5.35439e-08
0.00197331
-0.000279463
4.549e-08
0.0019733
-0.000279471
0.00197328
-0.000279475
6.20609e-09
0.002153
-0.000179646
2.43842e-08
0.00215302
-0.000179649
3.25455e-08
0.00215302
-0.00017965
3.38569e-08
0.00215302
-0.000179653
3.13848e-08
0.00215301
-0.000179657
0.00215298
-0.000179658
9.89918e-10
-6.39897e-05
3.87456e-09
-6.39911e-05
5.88694e-09
-6.39919e-05
9.00682e-09
-6.39929e-05
1.32983e-08
-6.3994e-05
-6.39933e-05
4.68807e-08
0.00209006
-0.000583584
3.08236e-08
0.00209007
-0.000583595
2.50036e-08
0.00209007
-0.000583605
1.60401e-08
0.00209007
-0.000583621
5.56199e-09
0.00209006
-0.000583642
0.00209004
-0.000583657
1.46488e-08
0.00228806
-0.000377631
1.25319e-08
0.00228808
-0.000377641
1.26201e-08
0.00228808
-0.000377647
1.18932e-08
0.00228807
-0.000377656
1.25633e-08
0.00228807
-0.000377667
0.00228804
-0.000377672
1.17018e-09
-0.000135402
1.00717e-09
-0.000135405
1.40739e-09
-0.000135407
4.01391e-09
-0.000135409
7.70447e-09
-0.000135412
-0.000135412
4.84193e-08
0.002331
-0.000942654
-2.07789e-08
0.00233102
-0.000942677
-4.94438e-08
0.00233101
-0.000942692
-7.32544e-08
0.00233102
-0.000942712
-9.54615e-08
0.00233103
-0.000942736
0.00233102
-0.000942748
2.14268e-09
0.0025707
-0.000617436
-1.9399e-08
0.00257073
-0.000617452
-2.69739e-08
0.00257074
-0.000617461
-3.12102e-08
0.00257074
-0.000617471
-3.80131e-08
0.00257075
-0.000617482
0.00257073
-0.000617486
-4.31724e-09
-0.000223974
-7.48019e-09
-0.000223979
-8.97782e-09
-0.000223981
-9.50253e-09
-0.000223984
-9.98223e-09
-0.000223987
-0.000223988
1.68296e-08
0.00271159
-0.00140039
-9.77606e-08
0.00271162
-0.00140043
-1.45746e-07
0.00271162
-0.00140044
-1.82846e-07
0.00271164
-0.00140045
-2.1558e-07
0.00271167
-0.00140047
0.00271166
-0.00140047
-2.34344e-08
0.00302918
-0.000935217
-5.76447e-08
0.00302923
-0.000935238
-7.65539e-08
0.00302924
-0.000935244
-8.9733e-08
0.00302925
-0.000935252
-9.75436e-08
0.00302927
-0.000935259
0.00302925
-0.000935252
-1.15847e-08
-0.000345109
-1.76207e-08
-0.000345115
-2.1153e-08
-0.000345116
-2.33223e-08
-0.000345117
-2.80322e-08
-0.000345118
-0.000345114
-2.95744e-08
0.00325648
-0.00202883
-1.58094e-07
0.00325652
-0.00202886
-2.18327e-07
0.00325653
-0.00202887
-2.6189e-07
0.00325656
-0.00202887
-2.95636e-07
0.0032566
-0.00202888
0.0032566
-0.00202886
-5.39784e-08
0.00371505
-0.001394
-9.27684e-08
0.00371511
-0.00139402
-1.12394e-07
0.00371513
-0.00139402
-1.27123e-07
0.00371515
-0.00139402
-1.36662e-07
0.00371517
-0.00139402
0.00371515
-0.00139401
-2.10331e-08
-0.000525805
-2.47364e-08
-0.000525811
-2.90326e-08
-0.000525809
-3.01425e-08
-0.000525808
-3.28638e-08
-0.000525806
-0.000525797
-7.05105e-08
0.00400164
-0.00296217
-1.8159e-07
0.00400169
-0.00296221
-2.42553e-07
0.00400171
-0.0029622
-2.89384e-07
0.00400174
-0.0029622
-3.28134e-07
0.00400178
-0.0029622
0.00400178
-0.00296217
-7.73337e-08
0.00471948
-0.002112
-1.01414e-07
0.00471956
-0.00211203
-1.18783e-07
0.00471958
-0.00211202
-1.33349e-07
0.0047196
-0.00211202
-1.4667e-07
0.00471963
-0.00211202
0.0047196
-0.00211199
-2.21398e-08
-0.000815823
-1.74561e-08
-0.000815835
-2.01337e-08
-0.000815831
-2.25937e-08
-0.000815829
-2.85349e-08
-0.000815827
-0.000815812
-7.99575e-08
0.00500148
-0.00447964
-1.68196e-07
0.00500154
-0.00447969
-2.33935e-07
0.00500156
-0.00447967
-2.86295e-07
0.00500159
-0.00447966
-3.2579e-07
0.00500163
-0.00447965
0.00500163
-0.00447958
-7.75043e-08