/*--------------------------------*- C++ -*----------------------------------*\
| =========                 |                                                 |
| \\      /  F ield         | OpenFOAM: The Open Source CFD Toolbox           |
|  \\    /   O peration     | Version:  v1612+                                |
|   \\  /    A nd           | Web:      www.OpenFOAM.com                      |
|    \\/     M anipulation  |                                                 |
\*---------------------------------------------------------------------------*/
FoamFile
{
    version     2.0;
    format      ascii;
    class       surfaceScalarField;
    location    "6.7";
    object      alphaPhi;
}
// * * * * * * * * * * * * * * * * * * * * * * * * * * * * * * * * * * * * * //

dimensions      [0 3 -1 0 0 0 0];

internalField   nonuniform List<scalar> 
816
(
-1.78301e-06
-1.07554e-05
4.78439e-06
-1.00863e-05
-1.45581e-05
3.23974e-05
3.79442e-06
7.13582e-06
-1.51121e-06
9.72473e-06
-2.0919e-05
-5.97031e-06
1.56197e-06
3.03154e-06
7.33989e-06
-1.67181e-05
-1.64226e-06
8.75541e-06
8.52185e-06
-1.78604e-05
9.74855e-09
-7.35962e-09
9.84849e-07
-2.20503e-11
-3.13841e-10
7.81142e-09
-3.72236e-06
2.79342e-09
-2.35344e-09
-1.97639e-09
-8.10537e-06
1.47583e-09
9.61855e-09
-1.10915e-09
-2.63539e-06
4.40889e-09
-5.517e-09
7.48614e-10
5.12771e-07
5.53504e-09
-6.4994e-09
-3.58906e-09
-5.52861e-07
3.56921e-09
3.60333e-09
-2.85549e-09
-1.09151e-05
2.99777e-09
2.39444e-09
2.04991e-09
-7.37973e-06
2.99473e-09
-4.65768e-10
4.67456e-10
-1.81612e-06
1.58351e-09
1.43992e-09
3.25633e-10
7.97778e-07
-2.46183e-09
3.53229e-09
-2.06022e-09
3.39755e-11
-2.11402e-09
1.01287e-10
2.29135e-06
-7.66824e-10
-5.17004e-09
2.33708e-05
-4.77035e-06
-2.48521e-05
-1.57531e-06
1.16209e-05
2.68168e-05
-2.56555e-05
4.28375e-06
1.09743e-05
-2.45109e-06
-3.42798e-06
-2.80165e-06
2.30244e-05
-1.06606e-05
1.26327e-05
-4.72831e-06
-7.6796e-06
4.77001e-07
-4.07267e-06
9.98474e-07
-4.75025e-06
7.12668e-06
-2.63658e-05
4.48954e-06
1.46704e-05
4.80039e-06
-2.6354e-05
-3.33085e-06
1.84631e-05
5.93575e-06
2.73331e-06
-1.48385e-05
1.86603e-06
5.50077e-06
-3.71604e-05
1.50283e-05
1.99219e-05
2.12118e-05
-2.80161e-05
4.4291e-06
1.18528e-05
-2.82112e-06
3.38933e-05
4.17318e-06
-1.23643e-05
-1.35182e-05
9.8092e-06
5.24543e-06
-6.34623e-06
-2.00717e-06
-1.15654e-05
-1.48865e-07
-1.05315e-05
-1.13037e-05
-3.08133e-06
-5.75423e-07
-2.40534e-06
3.1501e-07
-1.12957e-05
1.50015e-06
4.68204e-06
4.31554e-06
-2.25713e-06
-2.32233e-06
3.59616e-07
-1.7121e-06
-1.28178e-05
-3.20658e-06
-1.08878e-05
-4.3627e-06
-1.22872e-05
-2.66133e-06
-7.58029e-06
7.56974e-07
6.75458e-06
-4.01388e-06
-1.60024e-05
-7.02576e-06
-1.77014e-05
-1.07769e-05
-1.25403e-05
-5.68315e-06
2.32585e-06
1.44737e-05
-3.76856e-06
-6.90922e-06
-1.58117e-06
-4.70893e-06
-9.10465e-07
-6.24053e-06
2.82501e-06
-5.62794e-06
-4.60327e-06
1.63733e-06
4.64089e-06
-1.00839e-06
3.49184e-06
-2.76547e-06
9.34574e-07
1.29518e-06
1.6412e-06
-6.31511e-07
4.29178e-06
3.72896e-06
-2.78006e-06
-1.87646e-06
-3.28297e-07
-3.7493e-06
-5.65313e-06
-1.96761e-06
-1.83365e-06
-7.23043e-07
-1.50745e-07
-6.74927e-06
-4.53446e-07
1.10361e-06
2.23612e-06
-4.03234e-07
-1.44771e-06
4.08464e-07
-8.16331e-07
-1.28398e-06
-1.92427e-06
-7.15772e-06
-3.89917e-06
-2.82086e-06
-2.14674e-06
-4.32078e-06
-4.6767e-06
3.84155e-06
-3.05367e-07
-1.35704e-06
-4.76494e-06
-1.01178e-05
-4.44923e-06
-5.6247e-06
-3.61088e-06
-3.37728e-06
1.08897e-06
-2.2934e-06
4.4231e-06
-1.5663e-06
-3.7952e-06
-2.34449e-06
4.30182e-09
-5.40611e-09
-3.72966e-06
-1.0872e-09
7.31309e-09
1.95588e-06
-9.93394e-10
5.26804e-09
-6.9455e-07
1.38039e-09
8.06711e-09
-2.4035e-06
2.10841e-09
-4.73449e-10
-6.93046e-06
-2.0255e-09
-1.30056e-09
-3.28881e-09
-9.23282e-06
-4.25453e-11
-4.31936e-09
-6.59669e-06
-3.74418e-09
-6.89555e-09
-2.35244e-06
-4.09089e-09
-3.05576e-09
-1.19017e-06
-4.08289e-10
1.93819e-09
-5.00154e-06
-5.11058e-09
-2.73696e-09
-1.64452e-09
7.78865e-08
-1.58086e-09
-6.99291e-09
3.55373e-12
-3.21462e-09
-2.41075e-09
-2.97145e-06
9.31285e-10
-1.57473e-09
-5.73492e-06
-3.55723e-09
1.47727e-10
3.25609e-12
-4.00344e-09
-4.71234e-09
-2.29257e-09
2.74218e-06
-8.50245e-10
-5.26548e-09
-3.39694e-06
-4.37238e-09
-3.05516e-09
1.49642e-06
-2.04954e-09
-2.40546e-09
2.38963e-06
-3.84179e-09
5.48085e-11
-3.48508e-09
-7.28377e-09
-1.43447e-05
-6.5907e-07
1.0589e-05
9.40025e-06
8.76966e-06
-1.65133e-05
-1.82071e-07
1.0909e-05
-1.2163e-05
1.28932e-05
5.61552e-06
-3.94352e-06
2.30829e-06
1.64833e-05
3.58951e-05
-2.80662e-05
-2.44295e-05
-2.39218e-06
4.58522e-05
-1.37187e-05
-1.61474e-05
3.56179e-05
-3.55651e-05
-3.90339e-05
6.14908e-05
-3.95869e-05
-2.36805e-05
-4.91865e-06
-5.89219e-06
1.77917e-05
-1.73864e-05
-1.231e-05
-1.87679e-05
-1.50462e-06
4.06585e-05
-5.75394e-06
-2.20565e-05
4.61992e-05
-2.91318e-05
5.5173e-06
-3.97039e-05
-3.05827e-06
-9.34352e-07
3.02823e-05
-1.79309e-05
1.94528e-05
2.58625e-05
-2.76366e-05
-1.88234e-05
2.35378e-06
3.85022e-05
6.15937e-06
-1.89522e-05
4.46985e-05
-2.15087e-05
-1.29493e-05
9.33799e-06
-4.98175e-06
-3.04758e-06
3.90474e-06
1.53094e-06
3.81755e-05
-1.58385e-05
-2.24451e-05
8.19572e-06
-1.88449e-06
6.12078e-06
-3.42681e-06
-7.58241e-07
-7.97203e-06
2.64152e-07
-2.31203e-06
-4.77417e-06
-8.92314e-06
7.89172e-07
-2.95541e-06
-3.79083e-06
-9.26303e-06
1.6579e-05
1.39359e-05
1.54292e-05
-9.10592e-07
2.05911e-05
5.59397e-06
4.66911e-06
1.5912e-05
1.84362e-05
1.70792e-05
2.76766e-05
2.17606e-05
1.00241e-05
-2.51562e-06
1.44579e-06
-1.03322e-05
-6.7385e-06
3.44134e-06
6.26636e-06
1.33535e-06
1.84301e-05
-3.34788e-07
1.20371e-05
2.09059e-05
1.19273e-05
-4.6127e-06
-1.81643e-05
1.85927e-06
-4.20114e-06
1.45044e-05
8.34157e-06
-1.20823e-05
1.19454e-05
1.70053e-05
4.78992e-06
1.7067e-07
1.70445e-05
-8.49595e-06
1.05238e-05
2.0014e-05
8.63719e-06
6.33509e-06
4.4614e-06
5.29138e-06
2.22999e-06
2.14197e-06
1.14063e-06
1.7035e-05
8.84577e-06
1.2632e-05
5.40791e-06
-9.27699e-07
2.28056e-06
-2.21231e-06
3.47891e-07
-2.79554e-06
-4.52659e-07
-1.41174e-06
4.31174e-07
-5.42578e-06
2.0798e-07
-1.50025e-06
-3.24084e-06
-5.01043e-06
4.78495e-06
8.18493e-06
8.81544e-06
-8.23778e-07
7.31279e-06
2.32901e-06
2.45112e-06
5.02411e-06
9.84145e-06
9.27032e-06
8.83994e-06
1.24214e-05
5.23764e-06
-9.23831e-07
5.0849e-07
-5.89925e-06
-3.90092e-07
1.73117e-06
3.05089e-06
8.55996e-07
5.35986e-06
-8.54265e-07
6.67033e-06
6.86745e-06
6.06544e-06
-3.70447e-06
-4.61649e-06
6.59973e-07
-3.0606e-06
4.52484e-06
4.56475e-06
-5.99262e-06
3.55903e-06
8.97516e-06
2.34384e-06
5.1727e-07
6.02425e-06
-5.62575e-06
6.03297e-06
6.28866e-06
4.59177e-06
3.27371e-06
2.13581e-06
2.7712e-06
1.36049e-06
5.91649e-07
-3.43997e-07
4.51167e-06
5.22445e-06
7.72281e-06
3.95181e-07
-3.32788e-06
1.82501e-06
-3.49343e-06
1.49102e-06
1.0634e-06
1.32483e-06
-2.11387e-06
-2.13972e-07
6.32328e-07
-2.05538e-07
3.30236e-06
-2.3614e-06
-3.16148e-07
7.48434e-07
-2.15103e-06
-9.92428e-07
-4.73698e-07
7.20917e-07
-2.8609e-06
-7.63582e-07
1.19627e-06
-1.3775e-06
-4.14468e-07
-1.09348e-06
-5.60725e-07
-3.63026e-06
-1.68875e-06
-4.35591e-07
-3.29395e-06
1.07238e-06
-1.43183e-06
-1.17657e-06
-5.14252e-06
-2.64012e-06
-1.5493e-06
3.30478e-07
-2.04842e-06
-1.15782e-06
-1.18101e-06
2.60325e-06
-5.29997e-07
-9.56275e-07
9.17708e-08
4.53123e-07
1.05943e-06
-1.53967e-06
8.01485e-07
-5.33959e-07
-2.46897e-06
3.26727e-06
4.77754e-06
-1.44214e-07
2.11185e-06
1.17361e-06
4.89615e-06
4.44671e-06
5.14695e-06
1.94654e-06
1.00076e-06
-1.82914e-06
1.26709e-06
2.09832e-06
3.29252e-07
-4.46717e-07
3.16674e-06
3.57414e-06
-1.16791e-06
7.73992e-07
-1.09362e-06
3.26504e-06
-2.91099e-06
4.33853e-06
1.04776e-06
2.92058e-07
-2.32524e-06
3.07085e-06
1.95589e-06
2.57225e-06
5.77334e-07
1.43743e-06
5.37339e-07
2.51376e-06
2.89697e-06
9.24065e-09
-1.3841e-08
4.98715e-07
8.29005e-09
-7.66589e-06
1.19949e-08
8.88085e-07
5.78497e-09
8.59414e-11
4.11964e-09
1.05197e-06
-1.61287e-09
1.06207e-06
1.14539e-09
-6.93994e-06
-1.08901e-09
-8.76787e-06
-7.58112e-09
1.1176e-06
-3.74927e-09
1.13177e-06
-2.05135e-09
-3.02774e-06
-5.09444e-10
4.82804e-07
5.83253e-10
3.1983e-06
-9.98607e-11
2.31295e-11
-2.14383e-09
1.64662e-06
-1.76886e-09
3.34799e-06
-3.73871e-09
1.09071e-06
-2.88367e-09
-6.88842e-06
-2.03094e-09
-1.00649e-07
-1.48303e-09
-3.89699e-06
2.36947e-09
1.12997e-06
-8.14674e-10
4.48406e-06
-1.54024e-09
5.57839e-06
-2.92878e-09
2.10569e-06
-4.27106e-09
-8.22493e-06
-7.3131e-09
-6.15924e-06
-9.70562e-09
-1.08254e-06
2.13461e-06
1.62581e-05
-2.01503e-05
-9.67744e-06
3.51346e-06
1.18794e-05
1.91689e-05
-1.23248e-05
1.50178e-06
3.62765e-05
-1.73541e-05
2.58902e-05
-2.47118e-05
-1.73183e-05
2.09774e-05
-5.24497e-05
1.07347e-05
-2.63979e-05
-2.18205e-05
2.28258e-05
-1.0037e-05
-4.24796e-05
9.09842e-06
-6.23075e-05
1.3253e-05
-8.08047e-06
9.43941e-06
4.62175e-06
-1.14672e-05
2.23942e-05
-3.2576e-06
-1.92802e-05
-1.88565e-06
4.88526e-06
-1.29127e-06
-2.13975e-05
-1.3819e-06
-1.12039e-05
-7.20673e-06
-1.21202e-05
-1.4547e-05
-2.65856e-05
2.96884e-05
-4.06764e-05
1.21628e-05
1.14357e-05
-4.36433e-06
4.52286e-05
6.39314e-06
-2.27782e-05
-5.86458e-06
-6.23877e-06
-1.54208e-05
3.04331e-06
-1.07857e-05
-2.86233e-05
-2.24292e-05
-3.92362e-06
7.60173e-06
-4.51239e-06
-1.96338e-06
6.4917e-06
-8.43446e-06
-5.59224e-06
2.66268e-06
1.6249e-05
1.31466e-05
1.16065e-05
1.73938e-05
-7.63985e-06
-1.14613e-05
-2.35898e-05
-9.23253e-06
-1.32124e-05
8.75894e-06
1.04157e-05
3.28479e-06
-1.85735e-05
-9.27367e-06
-2.79889e-05
-1.15765e-05
-4.33317e-06
-6.05602e-06
2.53258e-06
6.09831e-06
1.02454e-05
1.80595e-06
-8.71417e-06
3.49356e-06
2.84149e-06
3.23327e-06
-9.21811e-06
-2.27405e-07
-5.89843e-06
2.38775e-06
-6.39849e-06
3.81845e-06
-1.10055e-05
-1.88949e-05
-1.79711e-05
-8.38423e-06
5.6963e-06
7.34008e-06
2.10241e-05
3.37148e-06
-1.01739e-05
4.48118e-06
-2.06075e-06
6.53615e-06
2.12255e-06
3.63587e-06
-1.30957e-05
-1.11982e-05
-2.67722e-06
4.85768e-06
-1.47364e-06
-7.8554e-07
2.37884e-06
-4.25115e-06
-2.58388e-06
1.66853e-06
4.8958e-06
7.88261e-06
2.13943e-06
9.70452e-06
-1.304e-06
-6.31495e-06
-7.57456e-06
-5.68654e-06
-5.03538e-06
4.85001e-06
2.19591e-06
2.35127e-06
-6.23949e-06
-5.88119e-06
-7.34075e-06
-7.33467e-06
-2.37544e-06
-3.91115e-06
8.14247e-07
3.72193e-06
2.60012e-06
7.95595e-07
-2.72067e-06
1.95018e-06
8.20766e-07
1.9852e-06
-3.19549e-06
-7.4843e-07
-2.51995e-06
5.75896e-07
-3.17162e-06
1.89326e-06
-3.33407e-06
-1.05705e-05
-5.49263e-06
-4.22185e-06
1.65532e-06
5.15919e-06
6.01035e-06
2.06911e-06
-2.51231e-06
2.21798e-06
5.52945e-07
4.50021e-06
-5.10193e-07
2.63863e-06
-3.51313e-06
-3.70669e-06
-1.2655e-06
2.30014e-06
1.45258e-07
-1.99086e-06
1.35921e-06
2.96411e-06
4.91203e-06
-2.67047e-06
-2.93542e-06
1.36761e-06
2.10548e-08
-2.1773e-06
-3.5474e-06
-1.47035e-06
1.10912e-06
4.75837e-07
8.38773e-07
1.21059e-06
-5.39926e-07
-4.60267e-07
5.29458e-07
-4.94572e-06
-2.23981e-06
1.44275e-06
8.79609e-07
2.00533e-06
2.02683e-06
1.40702e-06
4.38746e-09
2.51349e-09
-2.34068e-06
-2.94869e-09
9.82525e-07
5.59355e-09
1.53459e-07
-3.95227e-06
6.8148e-06
1.91611e-05
-8.42187e-06
1.78258e-05
)
;

boundaryField
{
    top_fluid_surface
    {
        type            calculated;
        value           nonuniform List<scalar> 
64
(
0
1.01211e-09
0
0
0
0
0
0
0
0
3.88804e-09
0
1.51049e-09
0
2.75792e-09
0
9.34216e-09
1.00193e-08
7.55675e-09
8.832e-09
1.79251e-10
2.05082e-09
7.59851e-09
8.49217e-09
0
4.15654e-09
5.50319e-09
4.35123e-09
3.79204e-09
0
0
1.74388e-09
0
1.64677e-11
0
5.32894e-09
3.64337e-09
3.39346e-09
0
1.07891e-09
4.9069e-09
0
0
0
0
6.03693e-10
0
0
0
0
0
0
0
0
0
0
0
0
0
0
0
0
0
0
)
;
    }
    bottom_fluid_surface
    {
        type            calculated;
        value           uniform 0;
    }
    lateral_surface_1
    {
        type            calculated;
        value           uniform 0;
    }
    lateral_surface_2
    {
        type            calculated;
        value           uniform 0;
    }
    lateral_surface_3
    {
        type            calculated;
        value           uniform 0;
    }
    lateral_surface_4
    {
        type            calculated;
        value           uniform 0;
    }
}


// ************************************************************************* //
