/*--------------------------------*- C++ -*----------------------------------*\
| =========                 |                                                 |
| \\      /  F ield         | OpenFOAM: The Open Source CFD Toolbox           |
|  \\    /   O peration     | Version:  v1612+                                |
|   \\  /    A nd           | Web:      www.OpenFOAM.com                      |
|    \\/     M anipulation  |                                                 |
\*---------------------------------------------------------------------------*/
FoamFile
{
    version     2.0;
    format      ascii;
    class       volScalarField;
    location    "4.15";
    object      p;
}
// * * * * * * * * * * * * * * * * * * * * * * * * * * * * * * * * * * * * * //

dimensions      [1 -1 -2 0 0 0 0];

internalField   nonuniform List<scalar> 
1116
(
2465.27
2465.3
2465.3
2465.31
2465.32
2465.28
2514.16
2514.18
2514.18
2514.19
2514.2
2514.17
2687.13
2687.15
2687.15
2687.15
2687.16
2687.14
2951.66
2951.67
2951.68
2951.68
2951.68
2951.68
3305.12
3305.13
3305.14
3305.13
3305.14
3305.15
3975.53
3975.58
3975.57
3975.57
3975.59
3975.58
5467.46
5467.5
5467.49
5467.5
5467.51
5467.53
8973.51
8973.46
8973.48
8973.5
8973.51
8973.58
13390.4
13390.4
13390.4
13390.4
13390.4
13390.5
17068.8
17068.8
17068.8
17068.8
17068.8
17068.8
20741.4
20741.2
20741.2
20741.2
20741.1
20741.3
23748.5
23748.4
23748.5
23748.4
23748.4
23748.5
-22.9103
-22.9102
-22.9102
-22.91
-22.9098
-22.9098
-24.0746
-24.0743
-24.0743
-24.074
-24.0737
-24.0739
-33.0534
-33.053
-33.0529
-33.0527
-33.0524
-33.0525
-59.611
-59.6111
-59.6109
-59.611
-59.6109
-59.6098
-8.73202
-8.73261
-8.73181
-8.73199
-8.7322
-8.73029
141.915
141.914
141.915
141.914
141.914
141.918
293.345
293.315
293.328
293.328
293.326
293.346
1346.07
1345.87
1345.98
1345.99
1345.96
1346.07
4898.77
4898.66
4898.71
4898.63
4898.61
4898.69
7825.96
7825.92
7825.99
7825.88
7825.91
7825.86
11428.3
11428.5
11428.5
11428.4
11428.6
11428.5
14581
14581
14581.1
14581.1
14581.1
14581.1
-17.0817
-17.0818
-17.0816
-17.0814
-17.0812
-17.081
-19.0066
-19.0064
-19.0063
-19.0061
-19.006
-19.0059
-27.9188
-27.9186
-27.9185
-27.9186
-27.9185
-27.9184
-62.965
-62.9649
-62.965
-62.965
-62.9649
-62.9654
-92.7386
-92.7392
-92.739
-92.7389
-92.7386
-92.7376
-61.5028
-61.5043
-61.5032
-61.5027
-61.5026
-61.5014
1.98482
1.96548
1.97628
1.9724
1.9698
1.97453
68.82
68.8277
68.816
68.8162
68.8205
68.8212
478.981
479.534
479.226
479.214
479.301
479.201
3015.18
3015.13
3015.24
3015.16
3015.09
3015.26
6650.7
6650.28
6650.69
6650.69
6650.59
6650.67
8110.6
8110.57
8110.6
8110.62
8110.63
8110.69
-37.8179
-37.8178
-37.8176
-37.8174
-37.8171
-37.817
-38.7767
-38.7765
-38.7763
-38.7761
-38.7759
-38.7758
-42.2401
-42.2398
-42.2398
-42.2397
-42.2395
-42.2397
-57.1467
-57.1466
-57.1466
-57.1464
-57.1462
-57.1469
-59.9403
-59.9397
-59.9396
-59.939
-59.9386
-59.9394
-38.9879
-38.9858
-38.986
-38.9857
-38.9852
-38.9865
-4.16486
-4.16909
-4.16745
-4.16961
-4.16995
-4.16893
15.3999
15.396
15.395
15.3962
15.3973
15.3984
48.1622
48.198
48.1786
48.1711
48.1913
48.1863
1021.67
1022.54
1022.34
1021.96
1022.21
1021.85
3954.62
3959.09
3957.16
3956.59
3957.68
3956.05
4018.06
4019.02
4018.63
4018.65
4018.83
4018.21
13.2938
13.2938
13.2939
13.2939
13.294
13.2941
14.2478
14.2478
14.2479
14.248
14.2481
14.2482
16.2494
16.2495
16.2496
16.2497
16.2498
16.2499
19.5097
19.5098
19.51
19.5103
19.5107
19.511
24.435
24.4349
24.4359
24.4357
24.4371
24.4386
31.6219
31.6206
31.6243
31.62
31.624
31.6304
41.9414
41.934
41.9492
41.928
41.9379
41.9631
60.3711
60.3271
60.4123
60.2662
60.2738
60.5144
89.3674
89.2535
89.4986
89.0384
88.9366
89.8766
70.8527
70.8625
70.8997
70.8164
70.6668
71.1203
3.49283
3.517
3.53815
3.46942
3.36251
3.77132
-9.83705
-9.84355
-9.8533
-9.85954
-9.88653
-9.89433
2.45377
2.45384
2.45393
2.454
2.45408
2.45414
3.34066
3.3408
3.34091
3.341
3.34107
3.34111
5.18368
5.18378
5.18389
5.18397
5.18405
5.18405
8.14061
8.14055
8.14082
8.14082
8.14117
8.14145
12.5525
12.552
12.5533
12.5524
12.5538
12.5551
18.8578
18.8551
18.8611
18.8547
18.8594
18.8649
27.6818
27.6664
27.6986
27.655
27.6608
27.7178
44.7692
44.7097
44.8032
44.697
44.6745
44.8523
61.671
61.6264
61.6268
61.7624
61.7312
61.657
5.67754
5.96942
5.79559
5.88448
5.79156
6.34626
-51.5786
-51.5563
-51.609
-51.6808
-51.7256
-51.5886
-41.5554
-41.5927
-41.6421
-41.5836
-41.654
-41.8864
-9.38477
-9.38468
-9.38464
-9.38463
-9.38464
-9.38465
-8.66847
-8.66836
-8.66833
-8.66834
-8.66837
-8.66844
-7.22728
-7.22723
-7.22719
-7.22723
-7.22728
-7.22736
-5.0649
-5.06496
-5.06476
-5.0648
-5.06461
-5.0645
-2.2469
-2.24725
-2.2461
-2.2463
-2.24529
-2.24536
0.703971
0.70275
0.706889
0.706341
0.709321
0.707357
2.14293
2.13866
2.14599
2.15647
2.16213
2.13918
-3.11669
-3.11764
-3.16246
-2.99122
-2.9395
-3.27633
-30.479
-30.4082
-30.5596
-30.1684
-30.0393
-30.6412
-74.9315
-74.8705
-74.9326
-74.8149
-74.7503
-74.4405
-180.461
-180.357
-181.038
-180.002
-179.254
-183.076
-67.6112
-67.6356
-67.6328
-67.6792
-67.7677
-67.8852
-21.9796
-21.9796
-21.9796
-21.9797
-21.9798
-21.9799
-21.4879
-21.4879
-21.488
-21.4881
-21.4882
-21.4883
-20.5661
-20.5661
-20.5661
-20.5662
-20.5663
-20.5664
-19.3859
-19.3859
-19.3858
-19.3858
-19.3857
-19.3857
-18.3589
-18.3589
-18.3582
-18.3579
-18.3571
-18.3577
-18.3994
-18.3991
-18.397
-18.395
-18.3926
-18.3961
-21.9374
-21.934
-21.9323
-21.9215
-21.9167
-21.9339
-36.4938
-36.4777
-36.5111
-36.4299
-36.4144
-36.5291
-59.1727
-59.1094
-59.1455
-59.1034
-59.0909
-58.9346
-91.8572
-91.9081
-91.8666
-91.5218
-91.5498
-91.9377
-143.969
-144.14
-143.622
-142.793
-142.821
-144.947
-596.357
-595.521
-599.784
-590.847
-582.227
-610.493
-45.0303
-45.0303
-45.0301
-45.0298
-45.0295
-45.0293
-55.7421
-55.7421
-55.7419
-55.7417
-55.7415
-55.7414
-66.2184
-66.2185
-66.2184
-66.2184
-66.2183
-66.2183
-45.5095
-45.5093
-45.5091
-45.509
-45.5088
-45.5087
-55.5895
-55.5894
-55.5894
-55.5894
-55.5894
-55.5895
-66.0042
-66.0043
-66.0043
-66.0044
-66.0044
-66.0045
-47.2707
-47.2706
-47.2706
-47.2706
-47.2706
-47.2708
-55.407
-55.407
-55.4072
-55.4073
-55.4074
-55.4076
-65.4674
-65.4675
-65.4675
-65.4676
-65.4676
-65.4675
-50.3662
-50.3662
-50.3663
-50.3663
-50.3664
-50.3667
-54.3349
-54.335
-54.335
-54.335
-54.3351
-54.3351
-64.3063
-64.3062
-64.3062
-64.3062
-64.3062
-64.3061
-44.7118
-44.7113
-44.7114
-44.7113
-44.7114
-44.712
-50.6571
-50.6567
-50.6567
-50.6568
-50.6569
-50.6573
-63.1957
-63.1961
-63.1962
-63.1962
-63.1962
-63.1957
-30.141
-30.1398
-30.1403
-30.1406
-30.1407
-30.1413
-45.6945
-45.6955
-45.6959
-45.6964
-45.6969
-45.6968
-61.3008
-61.301
-61.3011
-61.3012
-61.3013
-61.3013
-27.1238
-27.1268
-27.1262
-27.1263
-27.1263
-27.1247
-50.2656
-50.2714
-50.2715
-50.272
-50.2729
-50.2713
-63.8938
-63.8945
-63.8945
-63.8944
-63.8946
-63.8943
-24.2032
-24.1963
-24.2006
-24.1993
-24.1969
-24.198
-45.1788
-45.1629
-45.1679
-45.1649
-45.1625
-45.1658
-63.2698
-63.265
-63.2673
-63.2654
-63.2648
-63.266
-65.0612
-65.0912
-65.0794
-65.074
-65.0766
-65.0638
-92.1928
-92.2051
-92.1973
-92.1947
-92.1992
-92.1928
-84.6679
-84.6851
-84.679
-84.6772
-84.6791
-84.6799
-100.664
-100.855
-100.771
-100.728
-100.772
-100.697
-108.898
-108.921
-108.904
-108.903
-108.908
-108.898
-88.3121
-88.3246
-88.3173
-88.3145
-88.3079
-88.3217
40.6062
41.5035
41.1488
41.0887
41.2215
40.9994
-93.8115
-93.8179
-93.8128
-93.8094
-93.8086
-93.8235
-85.2067
-85.2251
-85.2153
-85.2169
-85.2175
-85.2172
493.689
494.081
493.875
494.247
494.554
493.614
-89.7099
-89.6825
-89.6903
-89.6991
-89.7005
-89.6834
-78.4623
-78.4641
-78.4642
-78.4667
-78.4681
-78.4576
1863
1862.83
1863.31
1863.41
1865.21
1860.94
-48.5985
-48.831
-48.8782
-48.6147
-48.4369
-49.3799
-69.5249
-69.5469
-69.5648
-69.6181
-69.6346
-69.6454
2168.07
2169.25
2169.6
2167.74
2169.69
2168.08
-46.9248
-46.9457
-46.9736
-47.0274
-47.0637
-47.1528
-64.9448
-64.9365
-64.951
-65.0115
-65.0441
-64.9891
2539.21
2539.09
2539.41
2539.59
2539.95
2539.43
-36.2446
-36.325
-36.3183
-36.2617
-36.2591
-36.4401
-67.4763
-67.4867
-67.4962
-67.4832
-67.4889
-67.5195
2752.36
2752.25
2752.77
2752.77
2752.62
2753.41
21.2124
21.2256
21.2047
21.4653
22.027
20.7219
-66.6443
-66.6342
-66.6394
-66.6395
-66.6201
-66.6678
2770.4
2770.17
2770.74
2770.15
2768.42
2772.51
69.2971
69.4149
69.4064
69.6052
70.5077
68.521
-61.3972
-61.3847
-61.392
-61.373
-61.3377
-61.4466
2335.19
2335.72
2335.39
2336.17
2337.31
2334.28
-60.9201
-60.9017
-60.9034
-60.9341
-60.9128
-60.8834
-69.0058
-68.9969
-69.0009
-68.9937
-68.9714
-69.0281
-35.0486
-35.0486
-35.0488
-35.0489
-35.0491
-35.0491
-48.4184
-48.4185
-48.4185
-48.4186
-48.4187
-48.4187
-61.9031
-61.9031
-61.9032
-61.9032
-61.9032
-61.9032
-34.7668
-34.7668
-34.7669
-34.767
-34.7671
-34.7672
-48.2861
-48.2861
-48.2861
-48.2862
-48.2862
-48.2862
-61.8706
-61.8706
-61.8706
-61.8706
-61.8706
-61.8706
-34.2904
-34.2904
-34.2905
-34.2905
-34.2906
-34.2907
-48.0852
-48.0851
-48.0852
-48.0853
-48.0853
-48.0854
-61.8303
-61.8303
-61.8303
-61.8304
-61.8304
-61.8305
-33.8387
-33.8387
-33.8386
-33.8386
-33.8385
-33.8386
-47.9668
-47.9668
-47.9668
-47.9668
-47.9668
-47.9669
-61.8355
-61.8355
-61.8355
-61.8355
-61.8356
-61.8356
-33.8563
-33.8561
-33.8558
-33.8553
-33.8549
-33.855
-48.2102
-48.2101
-48.2099
-48.2094
-48.2094
-48.2093
-61.9646
-61.9646
-61.9645
-61.9644
-61.9644
-61.9644
-35.0479
-35.047
-35.046
-35.0441
-35.0429
-35.0435
-49.2228
-49.2218
-49.2209
-49.2194
-49.2195
-49.2195
-62.4402
-62.4399
-62.4395
-62.439
-62.4391
-62.4392
-38.4009
-38.3975
-38.3933
-38.388
-38.3842
-38.3893
-50.7618
-50.7584
-50.7506
-50.7433
-50.7385
-50.7563
-62.6078
-62.6066
-62.6044
-62.6023
-62.6013
-62.6038
-48.986
-48.9797
-48.9791
-48.9622
-48.9776
-48.983
-58.234
-58.2365
-58.1934
-58.128
-58.1086
-58.3073
-65.498
-65.4966
-65.4911
-65.4821
-65.4821
-65.5014
-48.1407
-48.1052
-48.122
-48.2087
-48.3373
-47.9518
-56.6686
-56.6456
-56.6872
-56.7549
-56.7911
-56.4658
-65.4417
-65.4388
-65.4348
-65.4261
-65.4134
-65.3993
-80.7556
-80.6694
-80.4893
-80.4878
-80.7537
-80.5365
-87.3413
-87.3742
-87.2991
-87.1905
-87.1958
-87.0041
-70.1778
-70.1911
-70.1961
-70.1664
-70.0982
-70.2381
-47.3612
-47.2616
-47.4106
-47.7546
-48.33
-48.3006
-57.7864
-57.8773
-57.9846
-57.988
-58.406
-57.5123
-67.3396
-67.3672
-67.3571
-67.2219
-67.1371
-67.3886
712.357
714.506
717.349
702.947
691.847
729.137
-59.9988
-60.1614
-60.4097
-60.6053
-60.7696
-61.182
-89.3587
-89.5089
-89.6511
-89.7352
-90.0135
-89.9548
)
;

boundaryField
{
    seabed_topleft_surface
    {
        type            calculated;
        value           nonuniform List<scalar> 
72
(
4921.06
4921.1
4921.11
4921.12
4921.15
4921.07
4994.65
4994.69
4994.7
4994.72
4994.73
4994.67
5335.3
5335.32
5335.34
5335.34
5335.36
5335.33
5910.45
5910.47
5910.49
5910.48
5910.5
5910.49
6681.18
6681.21
6681.22
6681.22
6681.23
6681.24
7889.05
7889.11
7889.11
7889.11
7889.12
7889.13
10003.3
10003.3
10003.3
10003.3
10003.3
10003.3
13762.8
13762.8
13762.8
13762.8
13762.8
13762.9
18179.8
18179.8
18179.8
18179.8
18179.8
18179.8
21858.3
21858.2
21858.2
21858.2
21858.2
21858.2
25530.7
25530.6
25530.6
25530.5
25530.5
25530.6
28537
28536.9
28537
28536.9
28536.9
28537
)
;
    }
    seabed_topright_surface
    {
        type            calculated;
        value           nonuniform List<scalar> 
72
(
18.2157
18.2157
18.2157
18.2158
18.2159
18.2159
19.1696
19.1697
19.1698
19.1699
19.17
19.1701
21.1712
21.1713
21.1714
21.1715
21.1717
21.1718
24.4316
24.4316
24.4319
24.4321
24.4325
24.4328
29.3568
29.3567
29.3578
29.3575
29.359
29.3605
36.5437
36.5424
36.5462
36.5419
36.5458
36.5523
46.8633
46.8559
46.871
46.8499
46.8597
46.885
65.3017
65.2575
65.3435
65.1958
65.2031
65.4464
94.4783
94.3622
94.6216
94.1321
94.0238
95.0165
75.8098
75.8197
75.8594
75.77
75.6175
76.0832
8.43703
8.46137
8.48471
8.41
8.2999
8.72213
-4.91083
-4.91741
-4.92729
-4.93357
-4.96055
-4.96836
)
;
    }
    breakwater_top_surface
    {
        type            calculated;
        value           nonuniform List<scalar> 
36
(
3775.88
3775.59
3776.53
3776.77
3780.06
3772.72
4371.08
4373.69
4374.4
4370.46
4374.48
4371.36
5078.82
5078.56
5079.07
5079.46
5079.84
5079.28
5313.21
5313.24
5313.91
5314.08
5314
5314.59
5331.39
5331.31
5332.05
5331.54
5329.81
5333.9
4771.3
4772.31
4771.67
4773.38
4776.18
4768.93
)
;
    }
    breakwater_left_surface
    {
        type            calculated;
        value           nonuniform List<scalar> 
24
(
23764.9
23764.8
23764.9
23764.8
23764.8
23764.9
14597.1
14597.1
14597.1
14597.1
14597.2
14597.2
8126.35
8126.32
8126.35
8126.36
8126.38
8126.43
4030.74
4031.7
4031.31
4031.33
4031.51
4030.89
)
;
    }
    breakwater_right_surface
    {
        type            calculated;
        value           nonuniform List<scalar> 
24
(
-9.82018
-9.82668
-9.83643
-9.84267
-9.86966
-9.87746
-41.5387
-41.576
-41.6255
-41.567
-41.6373
-41.8697
-67.5949
-67.6192
-67.6164
-67.6628
-67.7514
-67.8688
-594.659
-593.826
-598.074
-589.17
-580.581
-608.746
)
;
    }
    water_front_surface
    {
        type            calculated;
        value           nonuniform List<scalar> 
186
(
2465.27
2514.16
2687.13
2951.66
3305.12
3975.53
5467.46
8973.51
13390.4
17068.8
20741.4
23748.5
-22.9103
-24.0746
-33.0534
-59.611
-8.73202
141.915
293.345
1346.07
4898.77
7825.96
11428.3
14581
-17.0817
-19.0066
-27.9188
-62.965
-92.7386
-61.5028
1.98482
68.82
478.981
3015.18
6650.7
8110.6
-37.8179
-38.7767
-42.2401
-57.1467
-59.9403
-38.9879
-4.16486
15.3999
48.1622
1021.67
3954.62
4018.06
13.2938
14.2478
16.2494
19.5097
24.435
31.6219
41.9414
60.3711
89.3674
70.8527
3.49283
-9.83705
2.45377
3.34066
5.18368
8.14061
12.5525
18.8578
27.6818
44.7692
61.671
5.67754
-51.5786
-41.5554
-9.38477
-8.66847
-7.22728
-5.0649
-2.2469
0.703971
2.14293
-3.11669
-30.479
-74.9315
-180.461
-67.6112
-21.9796
-21.4879
-20.5661
-19.3859
-18.3589
-18.3994
-21.9374
-36.4938
-59.1727
-91.8572
-143.969
-596.357
-45.0303
-55.7421
-66.2184
-45.5095
-55.5895
-66.0042
-47.2707
-55.407
-65.4674
-50.3662
-54.3349
-64.3063
-44.7118
-50.6571
-63.1957
-30.141
-45.6945
-61.3008
-27.1238
-50.2656
-63.8938
-24.2032
-45.1788
-63.2698
-65.0612
-92.1928
-84.6679
-100.664
-108.898
-88.3121
40.6062
-93.8115
-85.2067
493.689
-89.7099
-78.4623
1863
-48.5985
-69.5249
2168.07
-46.9248
-64.9448
2539.21
-36.2446
-67.4763
2752.36
21.2124
-66.6443
2770.4
69.2971
-61.3972
2335.19
-60.9201
-69.0058
-35.0486
-48.4184
-61.9031
-34.7668
-48.2861
-61.8706
-34.2904
-48.0852
-61.8303
-33.8387
-47.9668
-61.8355
-33.8563
-48.2102
-61.9646
-35.0479
-49.2228
-62.4402
-38.4009
-50.7618
-62.6078
-48.986
-58.234
-65.498
-48.1407
-56.6686
-65.4417
-80.7556
-87.3413
-70.1778
-47.3612
-57.7864
-67.3396
712.357
-59.9988
-89.3587
)
;
    }
    water_back_surface
    {
        type            calculated;
        value           nonuniform List<scalar> 
186
(
2465.28
2514.17
2687.14
2951.68
3305.15
3975.58
5467.53
8973.58
13390.5
17068.8
20741.3
23748.5
-22.9098
-24.0739
-33.0525
-59.6098
-8.73029
141.918
293.346
1346.07
4898.69
7825.86
11428.5
14581.1
-17.081
-19.0059
-27.9184
-62.9654
-92.7376
-61.5014
1.97453
68.8212
479.201
3015.26
6650.67
8110.69
-37.817
-38.7758
-42.2397
-57.1469
-59.9394
-38.9865
-4.16893
15.3984
48.1863
1021.85
3956.05
4018.21
13.2941
14.2482
16.2499
19.511
24.4386
31.6304
41.9631
60.5144
89.8766
71.1203
3.77132
-9.89433
2.45414
3.34111
5.18405
8.14145
12.5551
18.8649
27.7178
44.8523
61.657
6.34626
-51.5886
-41.8864
-9.38465
-8.66844
-7.22736
-5.0645
-2.24536
0.707357
2.13918
-3.27633
-30.6412
-74.4405
-183.076
-67.8852
-21.9799
-21.4883
-20.5664
-19.3857
-18.3577
-18.3961
-21.9339
-36.5291
-58.9346
-91.9377
-144.947
-610.493
-45.0293
-55.7414
-66.2183
-45.5087
-55.5895
-66.0045
-47.2708
-55.4076
-65.4675
-50.3667
-54.3351
-64.3061
-44.712
-50.6573
-63.1957
-30.1413
-45.6968
-61.3013
-27.1247
-50.2713
-63.8943
-24.198
-45.1658
-63.266
-65.0638
-92.1928
-84.6799
-100.697
-108.898
-88.3217
40.9994
-93.8235
-85.2172
493.614
-89.6834
-78.4576
1860.94
-49.3799
-69.6454
2168.08
-47.1528
-64.9891
2539.43
-36.4401
-67.5195
2753.41
20.7219
-66.6678
2772.51
68.521
-61.4466
2334.28
-60.8834
-69.0281
-35.0491
-48.4187
-61.9032
-34.7672
-48.2862
-61.8706
-34.2907
-48.0854
-61.8305
-33.8386
-47.9669
-61.8356
-33.855
-48.2093
-61.9644
-35.0435
-49.2195
-62.4392
-38.3893
-50.7563
-62.6038
-48.983
-58.3073
-65.5014
-47.9518
-56.4658
-65.3993
-80.5365
-87.0041
-70.2381
-48.3006
-57.5123
-67.3886
729.137
-61.182
-89.9548
)
;
    }
    water_left_surface
    {
        type            calculated;
        value           nonuniform List<scalar> 
42
(
2473.68
2473.71
2473.71
2473.72
2473.73
2473.69
-22.8937
-22.8937
-22.8937
-22.8935
-22.8933
-22.8932
-17.0655
-17.0656
-17.0654
-17.0652
-17.065
-17.0648
-37.802
-37.8019
-37.8017
-37.8015
-37.8012
-37.8011
-45.0303
-45.0303
-45.0301
-45.0298
-45.0295
-45.0293
-55.7421
-55.7421
-55.7419
-55.7417
-55.7415
-55.7414
-66.2184
-66.2185
-66.2184
-66.2184
-66.2183
-66.2183
)
;
    }
    water_right_surface
    {
        type            calculated;
        value           nonuniform List<scalar> 
42
(
13.3107
13.3107
13.3107
13.3108
13.3109
13.3109
2.47029
2.47036
2.47044
2.47052
2.47059
2.47065
-9.36858
-9.36849
-9.36845
-9.36844
-9.36845
-9.36846
-21.9637
-21.9637
-21.9638
-21.9639
-21.964
-21.964
-35.0486
-35.0486
-35.0488
-35.0489
-35.0491
-35.0491
-48.4184
-48.4185
-48.4185
-48.4186
-48.4187
-48.4187
-61.9031
-61.9031
-61.9032
-61.9032
-61.9032
-61.9032
)
;
    }
    water_top_surface
    {
        type            calculated;
        value           nonuniform List<scalar> 
180
(
-71.6394
-71.6397
-71.6397
-71.6398
-71.6399
-71.6395
-71.3822
-71.3826
-71.3826
-71.3826
-71.3827
-71.3824
-70.5885
-70.5889
-70.5889
-70.5889
-70.589
-70.5886
-69.3971
-69.3972
-69.3972
-69.3972
-69.3972
-69.397
-68.67
-68.67
-68.67
-68.67
-68.67
-68.67
-68.67
-68.67
-68.67
-68.67
-68.67
-68.67
-68.67
-68.67
-68.67
-68.67
-68.67
-68.67
-68.6703
-68.6703
-68.6703
-68.6703
-68.6703
-68.6703
-68.6919
-68.6919
-68.6919
-68.6919
-68.6919
-68.6919
-69.0086
-69.0001
-68.9972
-68.9911
-68.983
-68.9911
-83.3437
-83.3451
-83.3529
-83.3551
-83.3568
-83.3657
-87.5658
-87.6178
-87.5939
-87.6023
-87.6382
-87.5513
-80.8852
-81.3883
-81.4177
-80.8147
-80.8536
-81.6478
-76.7013
-76.6303
-76.5951
-76.7957
-76.8808
-76.4576
-69.2758
-69.2841
-69.2785
-69.2887
-69.3014
-69.2736
-77.1885
-77.2169
-77.1756
-77.2783
-77.428
-77.0461
-96.0804
-96.1591
-96.0877
-96.2026
-96.4149
-95.8546
-79.3606
-79.415
-79.3714
-79.4133
-79.4841
-79.2938
-68.67
-68.67
-68.67
-68.67
-68.67
-68.67
-68.67
-68.67
-68.67
-68.67
-68.67
-68.67
-68.67
-68.67
-68.67
-68.67
-68.67
-68.67
-68.67
-68.67
-68.67
-68.67
-68.67
-68.67
-68.67
-68.67
-68.67
-68.67
-68.67
-68.67
-68.67
-68.67
-68.67
-68.67
-68.67
-68.67
-68.67
-68.67
-68.67
-68.67
-68.67
-68.67
-68.67
-68.67
-68.67
-68.67
-68.67
-68.67
-68.6708
-68.6708
-68.6708
-68.6708
-68.6707
-68.6707
-69.7103
-69.7128
-69.7167
-69.7142
-69.7201
-69.7154
-71.5659
-71.5891
-71.6064
-71.5692
-71.6388
-71.5661
-69.0661
-68.9923
-68.9524
-70.3519
-72.9662
-68.9684
)
;
    }
}


// ************************************************************************* //
