/*--------------------------------*- C++ -*----------------------------------*\
| =========                 |                                                 |
| \\      /  F ield         | OpenFOAM: The Open Source CFD Toolbox           |
|  \\    /   O peration     | Version:  v1612+                                |
|   \\  /    A nd           | Web:      www.OpenFOAM.com                      |
|    \\/     M anipulation  |                                                 |
\*---------------------------------------------------------------------------*/
FoamFile
{
    version     2.0;
    format      ascii;
    class       volScalarField;
    location    "4.15";
    object      p_rgh;
}
// * * * * * * * * * * * * * * * * * * * * * * * * * * * * * * * * * * * * * //

dimensions      [1 -1 -2 0 0 0 0];

internalField   nonuniform List<scalar> 
1116
(
4921.06
4921.1
4921.11
4921.12
4921.15
4921.07
4994.65
4994.69
4994.7
4994.72
4994.73
4994.67
5335.3
5335.32
5335.34
5335.34
5335.36
5335.33
5910.45
5910.47
5910.49
5910.48
5910.5
5910.49
6681.18
6681.21
6681.22
6681.22
6681.23
6681.24
7889.05
7889.11
7889.11
7889.11
7889.12
7889.13
10003.3
10003.3
10003.3
10003.3
10003.3
10003.3
13762.8
13762.8
13762.8
13762.8
13762.8
13762.9
18179.8
18179.8
18179.8
18179.8
18179.8
18179.8
21858.3
21858.2
21858.2
21858.2
21858.2
21858.2
25530.7
25530.6
25530.6
25530.5
25530.5
25530.6
28537
28536.9
28537
28536.9
28536.9
28537
-8.17854
-8.17851
-8.17851
-8.1783
-8.17807
-8.17803
-9.34303
-9.34268
-9.34266
-9.34244
-9.34213
-9.34229
-18.3218
-18.3214
-18.3213
-18.3212
-18.3208
-18.3209
-44.8795
-44.8795
-44.8793
-44.8794
-44.8793
-44.8782
5.99956
5.99898
5.99977
5.9996
5.99939
6.00129
180.892
180.899
180.897
180.896
180.897
180.9
798.548
798.592
798.587
798.601
798.617
798.616
5500.97
5500.17
5500.57
5500.59
5500.44
5500.86
15792.7
15792.8
15792.7
15792.6
15792.5
15792.7
22161.2
22161.2
22161.2
22161.1
22161.2
22161.1
25763.4
25763.6
25763.6
25763.5
25763.6
25763.5
28912.9
28912.9
28912.9
28912.9
28913
28913
7.46389
7.46385
7.46401
7.46422
7.46445
7.46465
5.54745
5.54769
5.54782
5.54794
5.54812
5.54815
-3.37672
-3.37651
-3.37647
-3.37651
-3.37644
-3.37633
-38.4238
-38.4236
-38.4238
-38.4237
-38.4236
-38.4241
-68.1974
-68.198
-68.1978
-68.1976
-68.1973
-68.1964
-36.962
-36.9635
-36.9624
-36.9619
-36.9618
-36.9606
28.1585
28.1387
28.1497
28.1458
28.1432
28.1479
112.416
112.424
112.413
112.412
112.416
112.416
3795.28
3796.9
3796.03
3795.79
3795.96
3795.89
16275.5
16277.6
16276.6
16276.2
16276.6
16276.1
28309.3
28308.2
28308.8
28308.7
28308.2
28309.2
31982
31982
31982
31982
31982
31982.1
-3.4588
-3.45867
-3.4585
-3.45825
-3.45799
-3.45789
-4.39691
-4.39666
-4.39649
-4.39631
-4.39609
-4.39598
-7.88293
-7.88267
-7.88263
-7.88255
-7.88235
-7.88258
-22.7959
-22.7957
-22.7957
-22.7955
-22.7953
-22.796
-25.5893
-25.5887
-25.5886
-25.588
-25.5876
-25.5884
-4.6282
-4.62611
-4.62636
-4.62603
-4.62556
-4.62688
30.3365
30.3322
30.3339
30.3317
30.3314
30.3324
52.0873
52.0844
52.083
52.084
52.0851
52.086
192.579
192.995
192.879
192.752
192.856
192.713
11423.8
11439.9
11433.9
11430.8
11435.2
11428.5
27361.8
27389.9
27378.2
27374.5
27382.5
27370.4
31459.8
31466.3
31463.5
31465.1
31466.8
31461.5
18.2157
18.2157
18.2157
18.2158
18.2159
18.2159
19.1696
19.1697
19.1698
19.1699
19.17
19.1701
21.1712
21.1713
21.1714
21.1715
21.1717
21.1718
24.4316
24.4316
24.4319
24.4321
24.4325
24.4328
29.3568
29.3567
29.3578
29.3575
29.359
29.3605
36.5437
36.5424
36.5462
36.5419
36.5458
36.5523
46.8633
46.8559
46.871
46.8499
46.8597
46.885
65.3017
65.2575
65.3435
65.1958
65.2031
65.4464
94.4783
94.3622
94.6216
94.1321
94.0238
95.0165
75.8098
75.8197
75.8594
75.77
75.6175
76.0832
8.43703
8.46137
8.48471
8.41
8.2999
8.72213
-4.91083
-4.91741
-4.92729
-4.93357
-4.96055
-4.96836
17.1853
17.1854
17.1854
17.1855
17.1856
17.1857
18.0722
18.0723
18.0724
18.0725
18.0726
18.0726
19.9152
19.9153
19.9154
19.9155
19.9156
19.9156
22.8721
22.8721
22.8723
22.8723
22.8727
22.873
27.2841
27.2835
27.2848
27.2839
27.2853
27.2866
33.5893
33.5866
33.5926
33.5862
33.5909
33.5964
42.4135
42.3981
42.4303
42.3867
42.3925
42.4495
59.5088
59.4493
59.5432
59.4362
59.4135
59.5928
87.3008
87.1757
87.5776
86.8913
86.6374
88.1271
74.5887
74.6515
75.7007
73.257
72.176
78.1422
-36.7415
-36.7148
-36.7424
-36.8543
-36.9078
-36.6703
-26.7031
-26.7393
-26.7881
-26.7329
-26.8112
-27.0249
15.1564
15.1565
15.1565
15.1566
15.1566
15.1565
15.8727
15.8728
15.8729
15.8729
15.8728
15.8727
17.3139
17.314
17.314
17.314
17.3139
17.3138
19.4763
19.4762
19.4764
19.4764
19.4766
19.4767
22.2943
22.2939
22.2951
22.2949
22.2959
22.2958
25.2452
25.2439
25.2481
25.2475
25.2505
25.2485
26.6843
26.68
26.6874
26.6978
26.7035
26.6806
21.4335
21.4324
21.3878
21.5588
21.6105
21.274
-5.31489
-5.27927
-5.41768
-5.00389
-4.81718
-5.53782
225.431
223.85
226.893
222.02
219.37
232.324
393.636
392.686
397.898
386.258
376.836
409.955
-42.8494
-42.873
-42.8703
-42.9199
-43.0155
-43.1166
12.3713
12.3713
12.3712
12.3711
12.371
12.371
12.8629
12.863
12.8629
12.8628
12.8627
12.8626
13.7848
13.7848
13.7847
13.7847
13.7846
13.7845
14.965
14.965
14.9651
14.9651
14.9652
14.9652
15.992
15.992
15.9926
15.993
15.9938
15.9932
15.9515
15.9518
15.9539
15.9559
15.9583
15.9548
12.4137
12.417
12.4187
12.4295
12.4343
12.4171
-2.11998
-2.1038
-2.13674
-2.05667
-2.04194
-2.15439
-24.7934
-24.7304
-24.7662
-24.7244
-24.712
-24.555
-56.6876
-56.761
-56.7326
-56.3286
-56.3386
-56.8112
1383.99
1377.12
1383.16
1382.25
1372.05
1401.14
3076.57
3071.56
3102.27
3038.54
2978.36
3171.5
-0.884954
-0.884897
-0.884681
-0.884428
-0.884166
-0.883883
-1.78703
-1.78697
-1.7868
-1.7866
-1.78641
-1.78627
-2.45337
-2.45346
-2.45342
-2.45336
-2.45333
-2.45332
-1.33285
-1.33266
-1.33249
-1.33236
-1.33223
-1.33208
-1.6345
-1.6344
-1.63436
-1.63436
-1.63437
-1.6345
-2.23917
-2.23929
-2.23934
-2.23938
-2.23943
-2.23945
-3.11822
-3.11809
-3.11811
-3.11814
-3.11814
-3.11831
-1.45199
-1.45204
-1.45216
-1.45228
-1.45241
-1.4526
-1.70244
-1.70248
-1.70253
-1.7026
-1.70265
-1.70251
-6.22116
-6.22125
-6.22133
-6.22133
-6.2214
-6.22172
-0.379948
-0.380006
-0.38003
-0.380019
-0.380053
-0.380078
-0.541257
-0.541228
-0.541214
-0.541225
-0.541245
-0.541083
-0.566802
-0.566288
-0.566381
-0.566282
-0.566403
-0.567006
3.29789
3.2983
3.2983
3.29822
3.29807
3.29767
0.569327
0.568941
0.56881
0.568769
0.568816
0.56925
14.0047
14.006
14.0054
14.0051
14.005
14.0044
8.26047
8.25954
8.25913
8.25857
8.2581
8.25821
2.4642
2.46398
2.46387
2.46375
2.46373
2.46371
17.0283
17.0253
17.0259
17.0258
17.0258
17.0274
3.68962
3.68378
3.6837
3.68316
3.6823
3.68394
-0.128793
-0.129485
-0.129535
-0.129434
-0.129548
-0.129341
20.1979
20.2049
20.2005
20.2018
20.2041
20.2031
8.78325
8.79903
8.79401
8.79695
8.79921
8.7961
0.495453
0.500227
0.497967
0.499814
0.500431
0.499185
-17.9949
-18.0145
-18.0103
-18.0074
-18.0145
-17.9987
-38.0435
-38.0578
-38.0518
-38.0521
-38.0582
-38.0503
-20.8826
-20.8997
-20.8937
-20.8918
-20.8938
-20.8946
-56.2534
-56.4481
-56.3671
-56.3287
-56.3764
-56.2975
-54.6655
-54.6928
-54.6793
-54.6841
-54.6927
-54.6792
-24.2327
-24.253
-24.2485
-24.2513
-24.2523
-24.2585
938.966
953.84
947.679
946.232
949.138
944.744
-39.6614
-39.6701
-39.6667
-39.6662
-39.6673
-39.6799
-7.81605
-7.83318
-7.81619
-7.81581
-7.81471
-7.80618
6076.55
6076.73
6076.2
6080.36
6083.02
6074.03
-35.7456
-35.7184
-35.7261
-35.735
-35.7367
-35.719
-14.6973
-14.6991
-14.6992
-14.7017
-14.7031
-14.6926
19078.9
19077.7
19082.3
19083.6
19098.8
19066.9
5.54072
5.29641
5.22941
5.51427
5.66046
4.66328
-3.27841
-3.48936
-3.55391
-3.35484
-3.64229
-3.89004
21995.2
22009.3
22012.8
21992.2
22012.8
21997.6
7.03018
7.00932
6.98142
6.92764
6.89126
6.80222
-1.17978
-1.17151
-1.18602
-1.24647
-1.27908
-1.22411
25395.7
25394.3
25396.4
25398.4
25398.9
25398.1
17.7104
17.63
17.6367
17.6933
17.6959
17.5149
-3.71133
-3.72169
-3.7312
-3.71816
-3.7239
-3.75453
25800
25801.2
25803
25804.5
25805.1
25804
914.137
915.253
912.621
920.503
932.752
901.848
-2.87933
-2.86922
-2.87441
-2.87447
-2.85514
-2.90284
25819.4
25820.4
25822.5
25822.7
25820.9
25825
1977.91
1981.81
1978.91
1985.48
2004.07
1960.05
2.36777
2.38026
2.37301
2.39198
2.42728
2.31841
24260.2
24265
24261.9
24271.1
24287.1
24246.1
-6.96506
-6.94666
-6.94839
-6.97907
-6.95781
-6.92844
-5.24076
-5.23194
-5.23589
-5.22866
-5.20637
-5.26309
9.09642
9.09635
9.09622
9.09608
9.09595
9.09588
5.53662
5.53654
5.53645
5.53636
5.5363
5.53631
1.86187
1.86186
1.86183
1.8618
1.8618
1.86184
9.37822
9.37819
9.37809
9.37797
9.37785
9.37782
5.66894
5.66893
5.66888
5.66881
5.66878
5.66883
1.8944
1.89442
1.89441
1.89438
1.89438
1.89439
9.85455
9.85458
9.85453
9.85445
9.85436
9.85431
5.86982
5.86986
5.86981
5.86975
5.86969
5.86965
1.93472
1.93471
1.93468
1.93464
1.9346
1.93454
10.3063
10.3063
10.3064
10.3064
10.3065
10.3064
5.9882
5.98821
5.98819
5.98822
5.98818
5.98812
1.92954
1.9295
1.92947
1.92946
1.92944
1.92943
10.2887
10.2889
10.2892
10.2897
10.2901
10.29
5.74477
5.74493
5.74511
5.74562
5.74562
5.7457
1.80037
1.80041
1.8005
1.80062
1.80064
1.80064
9.09708
9.09796
9.09898
9.10091
9.10205
9.10152
4.73223
4.73319
4.73406
4.73557
4.73549
4.73553
1.32484
1.32513
1.32549
1.32596
1.32585
1.32582
5.74415
5.74752
5.75168
5.75698
5.76082
5.75571
3.1932
3.19658
3.20441
3.21175
3.21651
3.19869
1.15722
1.15845
1.16065
1.16266
1.16367
1.16121
-4.8404
-4.83408
-4.83347
-4.81661
-4.83206
-4.83738
-4.27897
-4.28154
-4.23837
-4.17296
-4.15362
-4.35225
-1.73299
-1.73161
-1.72614
-1.71711
-1.71709
-1.73641
-3.99442
-3.95895
-3.97566
-4.06242
-4.19099
-3.80554
-2.71356
-2.69057
-2.73219
-2.79982
-2.83607
-2.51068
-1.676
-1.67302
-1.66906
-1.66039
-1.64773
-1.6336
-36.5382
-36.4541
-36.2756
-36.2688
-36.5368
-36.3183
-32.1031
-31.9519
-31.8489
-31.8889
-32.0702
-31.7448
-6.04179
-6.067
-6.07864
-6.02552
-5.97793
-6.13211
8.38923
8.78849
8.73734
7.32736
6.44782
8.34759
39.3933
40.0155
39.9839
34.829
27.5772
49.4693
-3.57464
-3.60221
-3.59206
-3.45694
-3.37215
-3.62357
8913.62
8922.3
8972.04
8850.26
8734.94
9077.19
-5.7516
-5.95966
-6.22812
-6.40953
-6.63825
-7.0507
-25.2259
-25.4446
-25.6239
-24.4085
-22.2591
-25.9127
)
;

boundaryField
{
    seabed_topleft_surface
    {
        type            fixedFluxPressure;
        gradient        uniform 0;
        value           nonuniform List<scalar> 
72
(
4921.06
4921.1
4921.11
4921.12
4921.15
4921.07
4994.65
4994.69
4994.7
4994.72
4994.73
4994.67
5335.3
5335.32
5335.34
5335.34
5335.36
5335.33
5910.45
5910.47
5910.49
5910.48
5910.5
5910.49
6681.18
6681.21
6681.22
6681.22
6681.23
6681.24
7889.05
7889.11
7889.11
7889.11
7889.12
7889.13
10003.3
10003.3
10003.3
10003.3
10003.3
10003.3
13762.8
13762.8
13762.8
13762.8
13762.8
13762.9
18179.8
18179.8
18179.8
18179.8
18179.8
18179.8
21858.3
21858.2
21858.2
21858.2
21858.2
21858.2
25530.7
25530.6
25530.6
25530.5
25530.5
25530.6
28537
28536.9
28537
28536.9
28536.9
28537
)
;
    }
    seabed_topright_surface
    {
        type            fixedFluxPressure;
        gradient        uniform 0;
        value           nonuniform List<scalar> 
72
(
18.2157
18.2157
18.2157
18.2158
18.2159
18.2159
19.1696
19.1697
19.1698
19.1699
19.17
19.1701
21.1712
21.1713
21.1714
21.1715
21.1717
21.1718
24.4316
24.4316
24.4319
24.4321
24.4325
24.4328
29.3568
29.3567
29.3578
29.3575
29.359
29.3605
36.5437
36.5424
36.5462
36.5419
36.5458
36.5523
46.8633
46.8559
46.871
46.8499
46.8597
46.885
65.3017
65.2575
65.3435
65.1958
65.2031
65.4464
94.4783
94.3622
94.6216
94.1321
94.0238
95.0165
75.8098
75.8197
75.8594
75.77
75.6175
76.0832
8.43703
8.46137
8.48471
8.41
8.2999
8.72213
-4.91083
-4.91741
-4.92729
-4.93357
-4.96055
-4.96836
)
;
    }
    breakwater_top_surface
    {
        type            fixedFluxPressure;
        gradient        uniform 0;
        value           nonuniform List<scalar> 
36
(
19078.9
19077.7
19082.3
19083.6
19098.8
19066.9
21995.2
22009.3
22012.8
21992.2
22012.8
21997.6
25395.7
25394.3
25396.4
25398.4
25398.9
25398.1
25800
25801.2
25803
25804.5
25805.1
25804
25819.4
25820.4
25822.5
25822.7
25820.9
25825
24260.2
24265
24261.9
24271.1
24287.1
24246.1
)
;
    }
    breakwater_left_surface
    {
        type            fixedFluxPressure;
        gradient        uniform 0;
        value           nonuniform List<scalar> 
24
(
28537
28536.9
28537
28536.9
28536.9
28537
28912.9
28912.9
28912.9
28912.9
28913
28913
31982
31982
31982
31982
31982
31982.1
31459.8
31466.3
31463.5
31465.1
31466.8
31461.5
)
;
    }
    breakwater_right_surface
    {
        type            fixedFluxPressure;
        gradient        uniform 0;
        value           nonuniform List<scalar> 
24
(
-4.91083
-4.91741
-4.92729
-4.93357
-4.96055
-4.96836
-26.7031
-26.7393
-26.7881
-26.7329
-26.8112
-27.0249
-42.8494
-42.873
-42.8703
-42.9199
-43.0155
-43.1166
3076.57
3071.56
3102.27
3038.54
2978.36
3171.5
)
;
    }
    water_front_surface
    {
        type            fixedFluxPressure;
        gradient        uniform 0;
        value           nonuniform List<scalar> 
186
(
4921.06
4994.65
5335.3
5910.45
6681.18
7889.05
10003.3
13762.8
18179.8
21858.3
25530.7
28537
-8.17854
-9.34303
-18.3218
-44.8795
5.99956
180.892
798.548
5500.97
15792.7
22161.2
25763.4
28912.9
7.46389
5.54745
-3.37672
-38.4238
-68.1974
-36.962
28.1585
112.416
3795.28
16275.5
28309.3
31982
-3.4588
-4.39691
-7.88293
-22.7959
-25.5893
-4.6282
30.3365
52.0873
192.579
11423.8
27361.8
31459.8
18.2157
19.1696
21.1712
24.4316
29.3568
36.5437
46.8633
65.3017
94.4783
75.8098
8.43703
-4.91083
17.1853
18.0722
19.9152
22.8721
27.2841
33.5893
42.4135
59.5088
87.3008
74.5887
-36.7415
-26.7031
15.1564
15.8727
17.3139
19.4763
22.2943
25.2452
26.6843
21.4335
-5.31489
225.431
393.636
-42.8494
12.3713
12.8629
13.7848
14.965
15.992
15.9515
12.4137
-2.11998
-24.7934
-56.6876
1383.99
3076.57
-0.884954
-1.78703
-2.45337
-1.33285
-1.6345
-2.23917
-3.11822
-1.45199
-1.70244
-6.22116
-0.379948
-0.541257
-0.566802
3.29789
0.569327
14.0047
8.26047
2.4642
17.0283
3.68962
-0.128793
20.1979
8.78325
0.495453
-17.9949
-38.0435
-20.8826
-56.2534
-54.6655
-24.2327
938.966
-39.6614
-7.81605
6076.55
-35.7456
-14.6973
19078.9
5.54072
-3.27841
21995.2
7.03018
-1.17978
25395.7
17.7104
-3.71133
25800
914.137
-2.87933
25819.4
1977.91
2.36777
24260.2
-6.96506
-5.24076
9.09642
5.53662
1.86187
9.37822
5.66894
1.8944
9.85455
5.86982
1.93472
10.3063
5.9882
1.92954
10.2887
5.74477
1.80037
9.09708
4.73223
1.32484
5.74415
3.1932
1.15722
-4.8404
-4.27897
-1.73299
-3.99442
-2.71356
-1.676
-36.5382
-32.1031
-6.04179
8.38923
39.3933
-3.57464
8913.62
-5.7516
-25.2259
)
;
    }
    water_back_surface
    {
        type            fixedFluxPressure;
        gradient        uniform 0;
        value           nonuniform List<scalar> 
186
(
4921.07
4994.67
5335.33
5910.49
6681.24
7889.13
10003.3
13762.9
18179.8
21858.2
25530.6
28537
-8.17803
-9.34229
-18.3209
-44.8782
6.00129
180.9
798.616
5500.86
15792.7
22161.1
25763.5
28913
7.46465
5.54815
-3.37633
-38.4241
-68.1964
-36.9606
28.1479
112.416
3795.89
16276.1
28309.2
31982.1
-3.45789
-4.39598
-7.88258
-22.796
-25.5884
-4.62688
30.3324
52.086
192.713
11428.5
27370.4
31461.5
18.2159
19.1701
21.1718
24.4328
29.3605
36.5523
46.885
65.4464
95.0165
76.0832
8.72213
-4.96836
17.1857
18.0726
19.9156
22.873
27.2866
33.5964
42.4495
59.5928
88.1271
78.1422
-36.6703
-27.0249
15.1565
15.8727
17.3138
19.4767
22.2958
25.2485
26.6806
21.274
-5.53782
232.324
409.955
-43.1166
12.371
12.8626
13.7845
14.9652
15.9932
15.9548
12.4171
-2.15439
-24.555
-56.8112
1401.14
3171.5
-0.883883
-1.78627
-2.45332
-1.33208
-1.6345
-2.23945
-3.11831
-1.4526
-1.70251
-6.22172
-0.380078
-0.541083
-0.567006
3.29767
0.56925
14.0044
8.25821
2.46371
17.0274
3.68394
-0.129341
20.2031
8.7961
0.499185
-17.9987
-38.0503
-20.8946
-56.2975
-54.6792
-24.2585
944.744
-39.6799
-7.80618
6074.03
-35.719
-14.6926
19066.9
4.66328
-3.89004
21997.6
6.80222
-1.22411
25398.1
17.5149
-3.75453
25804
901.848
-2.90284
25825
1960.05
2.31841
24246.1
-6.92844
-5.26309
9.09588
5.53631
1.86184
9.37782
5.66883
1.89439
9.85431
5.86965
1.93454
10.3064
5.98812
1.92943
10.29
5.7457
1.80064
9.10152
4.73553
1.32582
5.75571
3.19869
1.16121
-4.83738
-4.35225
-1.73641
-3.80554
-2.51068
-1.6336
-36.3183
-31.7448
-6.13211
8.34759
49.4693
-3.62357
9077.19
-7.0507
-25.9127
)
;
    }
    water_left_surface
    {
        type            fixedFluxPressure;
        gradient        uniform 0;
        value           nonuniform List<scalar> 
42
(
4921.06
4921.1
4921.11
4921.12
4921.15
4921.07
-8.17854
-8.17851
-8.17851
-8.1783
-8.17807
-8.17803
7.46389
7.46385
7.46401
7.46422
7.46445
7.46465
-3.4588
-3.45867
-3.4585
-3.45825
-3.45799
-3.45789
-0.884954
-0.884897
-0.884681
-0.884428
-0.884166
-0.883883
-1.78703
-1.78697
-1.7868
-1.7866
-1.78641
-1.78627
-2.45337
-2.45346
-2.45342
-2.45336
-2.45333
-2.45332
)
;
    }
    water_right_surface
    {
        type            fixedFluxPressure;
        gradient        uniform 0;
        value           nonuniform List<scalar> 
42
(
18.2157
18.2157
18.2157
18.2158
18.2159
18.2159
17.1853
17.1854
17.1854
17.1855
17.1856
17.1857
15.1564
15.1565
15.1565
15.1566
15.1566
15.1565
12.3713
12.3713
12.3712
12.3711
12.371
12.371
9.09642
9.09635
9.09622
9.09608
9.09595
9.09588
5.53662
5.53654
5.53645
5.53636
5.5363
5.53631
1.86187
1.86186
1.86183
1.8618
1.8618
1.86184
)
;
    }
    water_top_surface
    {
        type            totalPressure;
        rho             rho;
        psi             none;
        gamma           1;
        p0              uniform 0;
        value           nonuniform List<scalar> 
180
(
-2.96936
-2.96974
-2.96972
-2.96975
-2.96985
-2.96954
-2.71217
-2.71259
-2.7126
-2.71264
-2.71274
-2.71244
-1.91852
-1.91888
-1.9189
-1.91893
-1.91897
-1.91864
-0.727098
-0.727249
-0.727222
-0.727206
-0.727199
-0.726982
0
0
0
0
0
0
0
0
0
0
0
0
0
0
0
0
0
0
0
0
0
0
0
0
0
0
0
0
0
0
0
0
0
0
0
0
0
0
0
0
0
0
-18.8958
-18.9478
-18.9239
-18.9323
-18.9682
-18.8813
-12.2152
-12.7183
-12.7477
-12.1447
-12.1836
-12.9778
-8.03129
-7.96028
-7.92514
-8.12573
-8.21075
-7.78764
-0.605812
-0.614142
-0.608505
-0.61873
-0.631416
-0.603602
-8.51853
-8.54688
-8.50561
-8.60832
-8.75803
-8.3761
-27.4104
-27.4891
-27.4177
-27.5326
-27.7449
-27.1846
-10.6906
-10.745
-10.7014
-10.7433
-10.8141
-10.6238
0
0
0
0
0
0
0
0
0
0
0
0
0
0
0
0
0
0
0
0
0
0
0
0
0
0
0
0
0
0
0
0
0
0
0
0
0
0
0
0
0
0
0
0
0
0
0
0
0
0
0
0
0
0
-1.04032
-1.04281
-1.04671
-1.04423
-1.05009
-1.04539
-2.8959
-2.91911
-2.93643
-2.89916
-2.96876
-2.89608
0
0
0
0
0
0
)
;
    }
}


// ************************************************************************* //
