/*--------------------------------*- C++ -*----------------------------------*\
| =========                 |                                                 |
| \\      /  F ield         | OpenFOAM: The Open Source CFD Toolbox           |
|  \\    /   O peration     | Version:  v1612+                                |
|   \\  /    A nd           | Web:      www.OpenFOAM.com                      |
|    \\/     M anipulation  |                                                 |
\*---------------------------------------------------------------------------*/
FoamFile
{
    version     2.0;
    format      ascii;
    class       surfaceScalarField;
    location    "4.15";
    object      phi;
}
// * * * * * * * * * * * * * * * * * * * * * * * * * * * * * * * * * * * * * //

dimensions      [0 3 -1 0 0 0 0];

internalField   nonuniform List<scalar> 
2916
(
9.22199e-06
0.244942
-0.244951
7.24137e-06
0.244943
-0.244941
-1.86946e-06
0.244942
-0.244933
7.15918e-07
0.244943
-0.244945
4.39746e-06
0.244942
-0.244946
0.244941
-0.244937
1.09099e-05
0.453693
-0.208763
7.47584e-06
0.453702
-0.208756
1.46292e-07
0.453698
-0.208749
3.49448e-06
0.4537
-0.208761
6.6699e-06
0.453702
-0.208763
0.453694
-0.208746
1.01611e-05
0.613041
-0.159358
5.4472e-06
0.61306
-0.159353
1.14481e-06
0.613053
-0.15935
4.12163e-06
0.613055
-0.159358
4.89036e-06
0.613058
-0.159357
0.613043
-0.159344
9.12624e-06
0.738487
-0.125455
3.8742e-06
0.738516
-0.125451
1.79568e-06
0.738506
-0.125451
2.9243e-06
0.738508
-0.125454
3.35243e-07
0.738512
-0.125452
0.738491
-0.125448
7.51424e-06
0.804743
-0.0662634
2.66771e-06
0.804777
-0.066256
1.57446e-06
0.804765
-0.0662583
1.18774e-06
0.804767
-0.0662586
-2.4908e-06
0.804772
-0.0662562
0.804745
-0.0662567
5.28514e-06
0.714066
0.0906716
3.21423e-06
0.714102
0.090677
1.06188e-06
0.714091
0.0906766
-4.44873e-07
0.714091
0.090677
-3.88114e-06
0.714098
0.090678
0.714064
0.0906774
-2.3902e-06
0.368137
0.345932
-6.36816e-07
0.368175
0.345925
-3.67359e-06
0.368169
0.345925
-6.00139e-06
0.368169
0.345925
-5.39239e-06
0.368177
0.345921
0.368135
0.345924
-4.28381e-06
-0.155401
0.523542
-9.983e-07
-0.15537
0.523542
-5.57639e-06
-0.155365
0.523539
-9.48411e-06
-0.155366
0.523539
-1.33812e-05
-0.155358
0.523539
-0.155415
0.523536
1.77613e-05
-0.764303
0.608884
4.59327e-06
-0.764301
0.608944
-5.07329e-07
-0.764276
0.608916
-7.7241e-06
-0.764279
0.60892
-2.80032e-05
-0.764273
0.608935
-0.764342
0.608899
4.77647e-05
-1.0739
0.309545
1.37344e-05
-1.0739
0.309628
7.85849e-06
-1.07387
0.309599
-2.12125e-06
-1.07387
0.309601
-3.74978e-05
-1.07386
0.309624
-1.07392
0.309545
7.93941e-05
-0.758872
-0.315102
1.36517e-05
-0.758852
-0.314977
3.92372e-06
-0.758846
-0.315013
-6.61264e-06
-0.758847
-0.315012
-5.42547e-05
-0.758835
-0.314979
-0.758878
-0.315101
1.09175e-05
-0.758883
-1.39175e-05
-0.758828
-1.24501e-05
-0.758847
-9.19769e-06
-0.758851
-1.11417e-05
-0.758833
-0.758889
-2.4928e-05
1.81367
-2.0586
6.54229e-06
1.81371
-2.05868
2.19045e-05
1.81371
-2.05866
5.45531e-05
1.8137
-2.05868
6.86857e-05
1.81372
-2.05868
1.8137
-2.05857
-4.39516e-05
3.9313
-2.32635
2.28692e-05
3.93134
-2.32646
5.32678e-05
3.93137
-2.32644
9.29976e-05
3.93135
-2.32645
0.000136052
3.93137
-2.32646
3.93138
-2.32629
-6.03009e-05
6.40816
-2.63616
1.91382e-05
6.40818
-2.63627
5.30241e-05
6.40823
-2.63625
9.61336e-05
6.40821
-2.63626
0.000157914
6.40821
-2.63626
6.40828
-2.63608
-9.13852e-06
8.5362
-2.2535
2.81179e-05
8.53627
-2.25358
4.58279e-05
8.53633
-2.25357
7.42202e-05
8.53628
-2.25356
7.60102e-05
8.53631
-2.25355
8.53633
-2.25342
1.19525e-05
7.44728
1.02265
-2.39135e-05
7.44735
1.0227
-2.89486e-05
7.44738
1.02269
-5.7004e-05
7.44733
1.02272
-0.000109103
7.44736
1.02274
7.44725
1.02271
-3.02532e-05
4.06946
3.46851
-4.69629e-05
4.06954
3.46851
-3.26685e-05
4.06952
3.46853
-6.43336e-05
4.06947
3.46857
-0.000105851
4.06949
3.4686
4.06934
3.46848
-1.12323e-05
1.54527
2.87014
-8.86409e-05
1.54531
2.87023
-6.55071e-05
1.5453
2.87011
-5.67983e-05
1.54528
2.8701
-7.0665e-05
1.5453
2.87012
1.54519
2.87
2.39205e-06
0.318339
1.75047
-3.23312e-05
0.31844
1.75045
-1.46859e-05
0.318407
1.75042
-1.45312e-05
0.318407
1.75041
-4.85911e-05
0.318437
1.75044
0.318341
1.75034
0.000152023
-0.171386
1.09846
1.08517e-05
-0.171287
1.09881
-5.76324e-06
-0.171301
1.09864
-9.46127e-06
-0.171294
1.09863
-9.93727e-05
-0.171247
1.09871
-0.171397
1.09854
0.000104132
-0.371117
0.509172
1.31075e-05
-0.371074
0.509506
1.13107e-05
-0.371063
0.509363
8.66333e-06
-0.371056
0.509365
-3.19451e-05
-0.371032
0.50945
-0.371124
0.50924
0.000127735
-0.323408
-0.362939
3.9251e-05
-0.323247
-0.362716
2.84316e-05
-0.32327
-0.362795
4.33136e-06
-0.323273
-0.362771
-4.69894e-05
-0.323224
-0.362736
-0.323378
-0.362894
-4.84019e-05
-1.08224
-3.04153e-05
-1.08209
-1.67879e-05
-1.08213
5.1772e-06
-1.08215
5.84147e-05
-1.08211
-1.08221
-7.23727e-05
-0.500605
-1.55792
-3.79751e-05
-0.500559
-1.55816
1.59485e-05
-0.500595
-1.55812
2.83411e-05
-0.500567
-1.55813
3.97892e-05
-0.500526
-1.55817
-0.500623
-1.55791
-4.68321e-05
-0.924074
-1.90283
-1.37719e-05
-0.923988
-1.90307
5.41926e-06
-0.924021
-1.90303
2.13194e-05
-0.924004
-1.90303
6.5277e-05
-0.923962
-1.90307
-0.924043
-1.90281
-9.67698e-05
-0.968284
-2.59185
-5.4679e-05
-0.968264
-2.59204
-3.86605e-05
-0.968275
-2.59201
-6.26828e-06
-0.96829
-2.59201
8.38394e-05
-0.968287
-2.59203
-0.968239
-2.59181
-0.000190603
0.0114046
-3.23299
-0.000117685
0.0112761
-3.2332
-0.000137944
0.0113509
-3.23317
-5.88722e-05
0.0112413
-3.23317
0.000174403
0.0111287
-3.2332
0.011494
-3.23298
-0.000290256
1.71813
-0.683782
-0.000275967
1.71798
-0.684028
-0.000299049
1.71806
-0.684002
-0.000206292
1.71789
-0.684026
3.76391e-05
1.71772
-0.684094
1.71811
-0.683866
-0.000238309
2.2857
2.90118
-0.000356516
2.28582
2.90079
-0.000340962
2.28571
2.90086
-0.000283955
2.28558
2.90081
-0.000150836
2.28546
2.90071
2.28562
2.90081
0.0011519
1.52733
3.62736
-0.000357723
1.5305
3.62706
-0.000210521
1.5287
3.62698
-0.000109985
1.52872
3.62687
-0.000443687
1.52915
3.62676
1.52837
3.62681
-5.945e-05
-0.692575
3.97043
0.000101649
-0.689154
3.96994
6.71593e-05
-0.691025
3.97018
1.96276e-05
-0.690872
3.97005
-9.06777e-05
-0.690272
3.96998
-0.691416
3.97004
0.000514314
-0.404741
0.810107
8.27799e-05
-0.403924
0.814014
-9.94694e-05
-0.404312
0.81211
-1.12415e-05
-0.404316
0.81198
-0.000219238
-0.404117
0.812761
-0.404483
0.811385
0.000521098
-0.169286
0.273196
2.7151e-05
-0.168737
0.274813
-2.41505e-05
-0.168967
0.274068
2.80666e-05
-0.168981
0.273979
-0.000253713
-0.168835
0.274449
-0.169127
0.273631
0.000636049
-0.12823
-0.404632
4.43224e-05
-0.12797
-0.402891
-5.29278e-05
-0.128035
-0.40363
2.19864e-05
-0.128053
-0.403774
-0.000236398
-0.128024
-0.403288
-0.128133
-0.404124
-0.000131465
-1.21034
-2.59057e-05
-1.21017
9.78537e-06
-1.2102
3.30518e-05
-1.21022
0.000121097
-1.21022
-1.21022
2.72718e-05
-0.0631698
-1.49478
1.54253e-05
-0.0630803
-1.49507
-3.77238e-07
-0.0630885
-1.49502
-1.68388e-05
-0.0630918
-1.49502
-2.95649e-05
-0.0630771
-1.49508
-0.0631699
-1.49478
3.10138e-05
-0.367519
-1.59852
7.58437e-06
-0.367347
-1.59878
-7.75594e-06
-0.367373
-1.59873
-2.38238e-05
-0.367375
-1.59873
-4.05386e-05
-0.367346
-1.59878
-0.367523
-1.5985
-2.48709e-05
-1.1234
-1.83595
-3.34862e-05
-1.12324
-1.83614
-3.64168e-05
-1.12328
-1.83611
-3.21823e-05
-1.12329
-1.8361
-1.24111e-05
-1.12326
-1.83614
-1.12342
-1.83592
-0.000129484
-2.32414
-2.03213
-8.9668e-05
-2.32414
-2.03233
-9.03174e-05
-2.32415
-2.0323
-4.82258e-05
-2.32419
-2.0323
6.47019e-05
-2.32424
-2.03233
-2.32421
-2.03212
-0.000329272
-2.16997
-0.837623
-0.000166128
-2.17042
-0.837912
-0.0001502
-2.17028
-0.837881
-7.22671e-05
-2.17039
-0.837912
0.000143223
-2.17057
-0.837979
-2.17021
-0.837728
-0.00033135
-0.933204
1.66474
-0.000180438
-0.933813
1.66402
-0.000164592
-0.933622
1.66418
-0.000102929
-0.9337
1.66407
9.49414e-05
-0.933916
1.66386
-0.933512
1.66421
0.000962056
-0.775409
3.4686
8.48969e-05
-0.773435
3.46755
6.25669e-05
-0.774496
3.46786
0.000128887
-0.774604
3.46769
-0.000112059
-0.774321
3.4674
-0.774633
3.46781
0.000858153
-1.8356
5.02976
0.000313086
-1.83405
5.0311
0.00019265
-1.83471
5.03051
0.000278691
-1.83494
5.0303
-7.70839e-06
-1.83453
5.03047
-1.83499
5.03039
0.00107749
-3.60755
2.58098
8.01904e-05
-3.60596
2.58692
-0.000185202
-3.6065
2.58417
-7.23012e-05
-3.60703
2.58395
-0.000351757
-3.6064
2.5849
-3.60718
2.58322
0.00114056
-1.03497
-2.30053
0.000103139
-1.03301
-2.2971
-8.83927e-05
-1.03385
-2.29839
3.93659e-05
-1.03415
-2.29902
-0.000245451
-1.03352
-2.29814
-1.03441
-2.29938
-0.00027979
-0.219167
-1.22016
5.99733e-05
-0.217745
-1.2185
6.97543e-05
-0.21833
-1.21916
2.90894e-05
-0.218517
-1.21937
0.00024958
-0.218214
-1.21882
-0.218633
-1.21965
-0.000578865
-1.42893
4.9888e-06
-1.4285
0.0001745
-1.4287
4.98599e-05
-1.42861
9.71802e-05
-1.42848
-1.42876
-4.66328e-06
-0.130868
0.130873
-6.38425e-06
-0.130875
0.130876
-6.68827e-06
-0.130876
0.130876
-5.82995e-06
-0.130877
0.130877
-3.59947e-06
-0.130879
0.130877
-0.130876
0.130873
-7.09822e-06
-0.270095
0.139233
-8.63654e-06
-0.270108
0.139235
-8.66666e-06
-0.270111
0.139235
-7.6224e-06
-0.270113
0.139236
-4.75681e-06
-0.270116
0.139236
-0.270111
0.139232
-1.1086e-05
-0.42726
0.157177
-1.36031e-05
-0.427281
0.157177
-1.36622e-05
-0.427286
0.157177
-1.30231e-05
-0.427289
0.157177
-8.15228e-06
-0.427295
0.157176
-0.427288
0.157171
-1.92619e-05
-0.614233
0.186993
-2.5525e-05
-0.614255
0.186982
-2.08434e-05
-0.614263
0.186974
-2.70634e-05
-0.614252
0.186971
-1.78655e-05
-0.614268
0.186966
-0.61426
0.186955
-9.65761e-06
-0.845091
0.230868
-3.23155e-05
-0.845071
0.230839
5.11939e-06
-0.845115
0.230816
-6.13676e-05
-0.845003
0.230819
-7.09305e-05
-0.845075
0.230817
-0.845146
0.230816
7.51814e-05
-1.13996
0.294795
-2.90012e-05
-1.13973
0.294758
0.000144527
-1.14012
0.294827
-0.000228011
-1.13929
0.294665
-0.000324422
-1.13964
0.294663
-1.14056
0.295089
0.000373656
-1.53512
0.394789
-0.000143815
-1.53407
0.394864
0.000919385
-1.53627
0.395093
-0.00110549
-1.53174
0.394468
-0.00222722
-1.53293
0.394406
-1.53869
0.395904
0.00131794
-1.81375
0.277303
-0.000356797
-1.81118
0.278788
0.0110001
-1.82019
0.272562
-0.00440561
-1.80067
0.284332
-0.0240407
-1.80024
0.286952
-1.83016
0.267426
0.00179868
-0.614921
-1.20062
-0.000151597
-0.614384
-1.19485
0.0411661
-0.628027
-1.23348
-0.00853628
-0.597198
-1.15377
-0.0893911
-0.587795
-1.1316
-0.643692
-1.27586
-0.000691943
1.77571
-2.38994
0.00234619
1.77543
-2.39285
0.027651
1.76724
-2.42057
-0.00466697
1.78563
-2.3505
-0.0685362
1.79458
-2.3185
1.75491
-2.46713
-0.000826996
1.50906
0.267476
0.00257149
1.50884
0.263186
0.0181439
1.51068
0.240985
-0.00204967
1.50532
0.3005
-0.0520872
1.50443
0.340184
1.51535
0.187468
0.000417041
1.50865
0.00160603
1.50765
0.00317495
1.50911
-2.371e-05
1.50852
-0.00734023
1.51175
1.508
-4.91797e-06
-0.131985
0.262863
-5.83065e-06
-0.131992
0.26287
-5.50328e-06
-0.131993
0.26287
-4.48495e-06
-0.131994
0.262871
-2.71023e-06
-0.131995
0.262872
-0.131992
0.262864
-5.40394e-06
-0.271852
0.279106
-5.81927e-06
-0.271865
0.279112
-5.38219e-06
-0.271867
0.279112
-4.39667e-06
-0.271869
0.279112
-2.21865e-06
-0.271871
0.279112
-0.271864
0.279104
-4.41244e-06
-0.4282
0.313531
-5.53601e-06
-0.428218
0.313535
-4.72562e-06
-0.428221
0.313533
-5.76266e-06
-0.42822
0.313532
-3.22279e-06
-0.428225
0.313532
-0.428217
0.313523
5.78788e-06
-0.612735
0.371524
-1.96215e-07
-0.612743
0.371514
6.535e-06
-0.612755
0.371502
-1.12169e-05
-0.612728
0.371499
-1.24666e-05
-0.612752
0.371496
-0.612753
0.37148
4.75612e-05
-0.846498
0.464584
5.66844e-07
-0.846409
0.46455
4.20536e-05
-0.846509
0.464527
-6.74344e-05
-0.84632
0.464519
-6.98917e-05
-0.846472
0.464539
-0.846568
0.46456
0.000165467
-1.18447
0.632598
-8.15827e-05
-1.18389
0.632489
0.000160554
-1.18468
0.632755
-0.00040087
-1.18328
0.632184
-0.000467817
-1.18403
0.632292
-1.18521
0.63326
0.000567065
-1.78989
0.999646
-0.000313299
-1.78746
0.999316
0.00375667
-1.79428
1.00062
-0.00198109
-1.78081
0.997738
-0.00799304
-1.78145
0.997828
-1.79989
1.00259
0.00198625
-2.8026
1.28803
-0.000176541
-2.79608
1.28956
0.0178119
-2.82172
1.28201
-0.00455067
-2.76986
1.29574
-0.0370768
-2.75972
1.29774
-2.84645
1.27691
0.00225515
-3.06728
-0.938193
0.000836383
-3.06001
-0.929501
0.00670742
-3.09394
-0.967142
-0.000573692
-3.02366
-0.89269
-0.0136209
-3.00113
-0.877138
-3.13035
-1.00558
-0.000969995
-1.02103
-4.43523
0.00136133
-1.01836
-4.43683
-0.0115557
-1.04302
-4.45857
0.0096239
-0.990851
-4.40449
0.0302309
-0.964969
-4.37527
-1.0737
-4.49356
-0.00110294
1.01745
-1.76989
0.00419447
1.0161
-1.77657
0.00149314
1.00327
-1.8026
0.00791233
1.0326
-1.72937
0.00854758
1.04983
-1.67525
0.982205
-1.85989
0.00247491
2.52362
0.00188357
2.52435
-0.0011075
2.51538
0.00253168
2.53748
0.000969388
2.56314
2.49118
-3.12011e-06
-0.120318
0.383184
-2.67005e-06
-0.120324
0.383195
-1.84477e-06
-0.120324
0.383195
-8.55533e-07
-0.120324
0.383196
2.77128e-08
-0.120324
0.383196
-0.120319
0.383185
-3.1988e-06
-0.248933
0.407725
-1.84799e-06
-0.248945
0.407735
-4.66297e-07
-0.248946
0.407735
6.63383e-07
-0.248945
0.407735
1.87367e-06
-0.248945
0.407736
-0.248935
0.407723
-1.73187e-06
-0.39589
0.460492
5.9648e-08
-0.395908
0.460501
3.26119e-06
-0.395911
0.460499
2.4971e-06
-0.395906
0.460497
3.03117e-06
-0.395907
0.460497
-0.395892
0.460483
9.79277e-06
-0.574374
0.550001
5.73467e-06
-0.574388
0.55
1.86234e-05
-0.574409
0.549989
3.23288e-06
-0.574376
0.549985
1.07038e-06
-0.574392
0.549983
-0.574377
0.549967
4.01586e-05
-0.802569
0.692738
-8.09251e-06
-0.802512
0.69272
8.25208e-06
-0.80261
0.69271
-2.86768e-05
-0.802524
0.692704
2.42354e-05
-0.802628
0.692723
-0.802523
0.692731
8.20664e-05
-1.09777
0.927715
-0.000169729
-1.09739
0.927614
3.9047e-06
-1.09789
0.927854
-0.000298519
-1.0975
0.927464
-0.000179472
-1.09806
0.927606
-1.09756
0.92812
0.000414851
-1.48511
1.38657
-0.000510099
-1.48323
1.38608
0.000963353
-1.48591
1.38717
-0.00127963
-1.48302
1.3855
-0.00257997
-1.48496
1.38602
-1.48536
1.38781
0.00198908
-2.14453
1.94546
-0.000933316
-2.13682
1.94608
-0.00617472
-2.14175
1.9431
-0.00132868
-2.14204
1.9499
0.00968257
-2.14878
1.95055
-2.13824
1.93946
0.00255078
-3.39741
0.31213
-0.00240488
-3.38341
0.322039
-0.0393635
-3.38017
0.308241
0.00393813
-3.40725
0.329218
0.0762482
-3.42188
0.323654
-3.36489
0.297315
0.00107241
-3.97257
-3.86114
-0.0013562
-3.96261
-3.85521
-0.0242527
-3.9548
-3.86105
0.00540873
-3.99116
-3.85024
0.0599538
-4.00796
-3.84374
-3.92956
-3.86893
-0.00211814
-1.75412
-3.98623
0.000523992
-1.75204
-3.98978
-0.0093137
-1.7519
-3.99567
0.00232382
-1.75872
-3.97346
0.0351006
-1.76265
-3.95334
-1.74922
-4.00513
0.000679324
0.768816
0.0040254
0.768949
0.0225951
0.744905
0.00648189
0.794879
-0.0347478
0.841723
0.707203
-1.09777e-06
-0.101741
0.484927
2.71513e-07
-0.101746
0.484942
1.34902e-06
-0.101746
0.484942
1.9768e-06
-0.101745
0.484942
1.88805e-06
-0.101744
0.484942
-0.10174
0.484927
-2.47412e-07
-0.207247
0.513233
1.79375e-06
-0.207256
0.513248
3.07955e-06
-0.207256
0.513247
3.64351e-06
-0.207254
0.513247
3.54082e-06
-0.207252
0.513246
-0.207242
0.51323
2.17297e-06
-0.318695
0.57194
4.5191e-06
-0.318708
0.571954
7.0753e-06
-0.318708
0.571952
6.45566e-06
-0.318703
0.57195
5.59103e-06
-0.318701
0.571949
-0.318684
0.571931
1.1539e-05
-0.434942
0.666238
7.71848e-06
-0.434951
0.666248
1.45589e-05
-0.434968
0.666243
6.68961e-06
-0.434949
0.666238
8.74869e-06
-0.434959
0.666239
-0.434928
0.66622
1.77907e-05
-0.54777
0.805548
-2.90433e-05
-0.547734
0.805547
-2.2223e-05
-0.547823
0.805556
-3.66581e-05
-0.54779
0.805558
1.42878e-05
-0.547864
0.805577
-0.547741
0.805558
-2.8869e-05
-0.623643
1.00361
-0.000221644
-0.623503
1.00357
-0.000149245
-0.623746
1.0037
-0.000212472
-0.623889
1.00363
-3.25566e-06
-0.624218
1.00375
-0.623376
1.00375
-3.15668e-05
-0.537755
1.30071
-0.000517537
-0.537387
1.30045
-0.000862456
-0.537305
1.30107
-0.000536191
-0.539184
1.30047
0.00076801
-0.540813
1.30131
-0.535554
1.30075
0.00108683
-0.274141
1.68076
-0.00121651
-0.269316
1.68031
-0.0104602
-0.265312
1.68035
-0.000446618
-0.2817
1.6824
0.0160675
-0.291835
1.68506
-0.257581
1.67755
0.00289146
-0.964584
0.999681
-0.00423767
-0.943747
1.0036
-0.0359857
-0.927925
1.0026
-0.000751106
-0.991542
1.00382
0.0485897
-1.01734
0.999819
-0.912834
1.00116
0.00460408
-3.03611
-1.79422
-0.00206772
-3.00884
-1.78344
-0.0239674
-2.9913
-1.77577
-0.00313402
-3.06443
-1.79818
0.0317877
-3.0921
-1.8039
-2.97297
-1.777
-0.00242827
-3.35547
-3.66444
-0.00354476
-3.34848
-3.64902
-0.0114699
-3.33985
-3.63919
-0.00291643
-3.37012
-3.67633
0.0259364
-3.38554
-3.68876
-3.32448
-3.62769
-0.00511686
-2.58153
-0.000214309
-2.58444
-0.0102574
-2.5849
-0.0055261
-2.57997
0.0272699
-2.57661
-2.59
4.39771e-05
-1.45311
-0.0417161
1.41986e-05
-1.45331
-0.0417411
-3.65473e-07
-1.45327
-0.0417375
-1.56099e-05
-1.45327
-0.0417382
-4.95855e-05
-1.45331
-0.0417433
-1.45311
-0.0417152
4.07055e-05
-1.34087
-0.112283
1.24514e-05
-1.34099
-0.112285
-2.09467e-06
-1.34097
-0.112285
-1.6269e-05
-1.34097
-0.112284
-4.48299e-05
-1.34099
-0.112283
-1.34087
-0.112282
2.74723e-05
-0.021345
8.88702e-06
-0.0213437
-5.25807e-08
-0.0213438
-9.04796e-06
-0.0213437
-2.71237e-05
-0.0213433
-0.0213442
2.926e-05
-1.48408
-0.156189
8.83691e-06
-1.48426
-0.156236
-4.05656e-06
-1.48423
-0.156227
-1.77427e-05
-1.48423
-0.156228
-3.97778e-05
-1.48427
-0.156239
-1.48407
-0.156186
3.82542e-05
-1.29348
-0.302921
1.19771e-05
-1.2936
-0.302924
-2.77902e-06
-1.29358
-0.302922
-1.79598e-05
-1.29358
-0.302921
-4.6134e-05
-1.2936
-0.30292
-1.29348
-0.302914
2.60992e-05
-0.0538015
8.62605e-06
-0.0537985
8.51146e-08
-0.0537995
-8.03325e-06
-0.0537997
-2.5729e-05
-0.0537992
-0.0538027
1.36971e-05
-1.45048
-0.541664
4.29733e-06
-1.45066
-0.541709
-6.0896e-06
-1.45063
-0.541698
-1.70848e-05
-1.45063
-0.541694
-2.49351e-05
-1.45067
-0.541702
-1.45048
-0.541653
3.31183e-05
-1.12372
-0.62972
8.18017e-06
-1.12383
-0.629726
-5.77716e-06
-1.12381
-0.629725
-1.86364e-05
-1.12382
-0.629724
-4.19149e-05
-1.12384
-0.629727
-1.12373
-0.629714
2.20109e-05
-0.11676
6.69678e-06
-0.116752
-1.20698e-06
-0.116754
-8.25922e-06
-0.116754
-2.56992e-05
-0.116753
-0.116761
3.01511e-05
-1.11497
-1.45886
2.03195e-05
-1.11514
-1.4589
9.48734e-06
-1.11511
-1.45888
-1.03429e-05
-1.11511
-1.45886
-3.77399e-05
-1.11514
-1.45886
-1.11497
-1.45885
3.11243e-05
-0.759073
-0.985647
6.85248e-06
-0.75918
-0.985662
-5.04946e-06
-0.759168
-0.98566
-1.43607e-05
-0.75917
-0.985659
-3.5275e-05
-0.759189
-0.985663
-0.75908
-0.98564
1.58904e-05
-0.223043
2.42507e-06
-0.22303
-3.35889e-06
-0.223033
-8.46612e-06
-0.223031
-2.35506e-05
-0.223029
-0.22304
1.82088e-05
-0.100152
-2.19635
8.02562e-05
-0.100301
-2.19657
7.16216e-05
-0.100288
-2.19646
3.71918e-05
-0.100289
-2.19645
-8.7931e-06
-0.100315
-2.19648
-0.100178
-2.19641
1.97383e-05
-0.00347966
-1.08234
6.53699e-06
-0.00359287
-1.08236
1.32293e-06
-0.00358137
-1.08236
-7.79454e-06
-0.00358403
-1.08235
-2.75104e-05
-0.00360791
-1.08235
-0.00348583
-1.08236
1.47955e-05
-0.334683
1.3133e-06
-0.334673
-1.03551e-06
-0.334685
-4.78537e-06
-0.334683
-1.78301e-05
-0.334686
-0.334692
8.0413e-05
1.07133
-1.60301
0.000154646
1.07088
-1.60351
0.000147824
1.071
-1.60328
0.000111116
1.07096
-1.60331
3.7303e-05
1.07086
-1.60341
1.07108
-1.60324
7.89524e-05
0.883089
-0.894185
2.22365e-05
0.882926
-0.894346
2.95139e-05
0.882949
-0.894317
2.64472e-05
0.882945
-0.894337
-3.15083e-05
0.882918
-0.894353
0.88303
-0.894334
3.11586e-05
-0.271366
3.73632e-06
-0.271397
-4.58251e-06
-0.271413
-1.12551e-05
-0.271416
-2.28126e-05
-0.271425
-0.271427
0.000612755
2.19088
-0.3259
0.00020919
2.19009
-0.325641
0.000199211
2.19047
-0.325876
0.000163874
2.19042
-0.326005
-0.000101156
2.19025
-0.325997
2.19053
-0.326056
0.0001371
1.3128
-0.0162483
-5.02027e-05
1.31257
-0.016644
-4.17684e-05
1.31272
-0.0165797
6.68045e-07
1.31275
-0.0167048
-7.95326e-05
1.31272
-0.0167386
1.3128
-0.0166845
-2.92514e-05
0.11521
-7.85334e-05
0.115007
-9.76146e-05
0.115078
-4.76412e-05
0.115012
2.32184e-06
0.114976
0.115054
-0.000601027
4.9131
-0.20864
0.000522714
4.91414
-0.209808
0.000337445
4.91382
-0.209002
6.80726e-05
4.91366
-0.209096
0.000141611
4.91377
-0.209368
4.91376
-0.209288
-0.00129394
3.55387
1.34428
0.000254485
3.55446
1.34149
0.000210351
3.55451
1.34278
-0.000128806
3.55445
1.34285
-6.65425e-06
3.55452
1.34239
3.55453
1.34254
-0.000373858
1.43226
-1.40765e-05
1.43177
1.29285e-05
1.432
-4.85136e-05
1.432
-3.96681e-05
1.43189
1.43189
0.00176125
4.29994
-1.92936
-0.000198474
4.3067
-1.92763
-0.000496033
4.30362
-1.92815
-0.000100656
4.30312
-1.92866
-0.000432014
4.30413
-1.92827
4.30262
-1.92912
-0.000373253
4.68452
0.960074
-0.0002457
4.69161
0.956453
-4.98791e-05
4.68859
0.957613
-0.000150815
4.6879
0.958165
-0.000341111
4.68893
0.957782
4.6879
0.956921
-0.000398775
2.27316
-0.000266168
2.27258
-9.40884e-05
2.27253
-0.000250166
2.27273
-0.000308189
2.27252
2.27219
-0.00122208
-1.21006
-3.01861
-0.000401143
-1.21367
-3.01188
0.000906314
-1.21275
-3.0151
0.000747202
-1.2118
-3.01572
0.000401083
-1.21179
-3.01428
-1.21175
-3.01635
0.00178947
0.77298
-1.02475
-0.000252165
0.771363
-1.02654
-7.82242e-05
0.771318
-1.02663
2.98188e-06
0.771899
-1.02562
-0.000783406
0.771844
-1.02507
0.771778
-1.02739
-0.000401133
1.86723
-0.000555592
1.86427
-0.000821105
1.86519
-0.000289264
1.86508
0.00295808
1.86228
1.86826
-0.00439156
-2.27895
-1.95543
0.00071838
-2.28598
-1.94951
0.00137072
-2.2827
-1.95222
0.000221491
-2.28147
-1.95247
0.00142097
-2.28339
-1.9509
-2.28088
-1.9537
0.00186735
-1.27348
-2.03209
0.000649853
-1.27967
-2.03163
0.000841394
-1.27686
-2.03266
0.000699204
-1.27613
-2.03082
0.000143156
-1.27951
-2.02839
-1.27298
-2.03515
0.00154079
0.13551
0.000152073
0.132302
-0.000403392
0.133606
0.000481877
0.133107
0.00221427
0.130066
0.136544
-0.00141382
-2.94151
-0.441437
-7.0438e-05
-2.93873
-0.440614
6.16619e-05
-2.93998
-0.441066
-3.62261e-05
-2.94016
-0.440826
0.000520069
-2.93979
-0.440155
-2.94008
-0.441855
-0.00237709
-3.76025
-1.21097
-3.12839e-05
-3.76304
-1.20967
-0.000223695
-3.76171
-1.21073
5.718e-05
-3.7621
-1.20915
0.00157382
-3.76358
-1.20612
-3.75939
-1.21426
0.000822664
-0.364236
0.000170096
-0.364434
0.00011066
-0.364437
6.68031e-05
-0.364648
-0.000707448
-0.365414
-0.363478
-0.00107732
-0.989827
-2.16381
3.15471
-0.000781629
-0.99679
-2.16401
3.1605
-0.000794832
-0.995302
-2.16277
3.15808
-0.000375089
-0.99061
-2.16376
3.15395
0.00320165
-0.993598
-2.16418
3.1542
-0.990897
-2.15949
3.15359
-0.00103476
-1.31864
-2.28641
2.61626
0.00195637
-1.3532
-2.27632
2.62975
0.004449
-1.35376
-2.27515
2.63112
0.00638003
-1.31099
-2.28921
2.60766
0.0277912
-1.31271
-2.28572
2.58342
-1.36056
-2.28856
2.68601
-0.000687895
-0.487077
0.814308
0.00306954
-0.472985
0.793125
0.00778257
-0.471965
0.792441
0.000616344
-0.496723
0.83388
-0.00478495
-0.500341
0.83682
-0.471414
0.799105
-0.000452579
-0.640571
-1.52278
-0.000514662
-0.641231
-1.52272
-0.00148251
-0.639106
-1.5227
5.36325e-05
-0.643687
-1.52161
0.00433106
-0.648591
-1.51986
-0.630942
-1.52422
-0.00253667
-1.11351
-1.81093
0.00129285
-1.10886
-1.81253
0.00672059
-1.10523
-1.81446
0.0034007
-1.12062
-1.80896
0.00315619
-1.12818
-1.80589
-1.09342
-1.82293
-0.00490782
-0.268056
0.0028153
-0.267736
0.0135036
-0.268872
0.00145405
-0.269994
-0.0149664
-0.269941
-0.27205
-0.000169538
-0.473618
-1.049
-0.000187982
-0.473732
-1.04897
-0.00031526
-0.473474
-1.04909
7.40631e-05
-0.473682
-1.04832
0.0012373
-0.473681
-1.04735
-0.473061
-1.04992
-0.000303394
-0.449453
-1.83479
-0.00113996
-0.451151
-1.83427
-0.00447163
-0.450249
-1.83435
0.000411209
-0.451885
-1.83564
0.0118109
-0.45482
-1.83615
-0.449338
-1.83484
0.000755833
-0.307493
0.00105709
-0.306024
0.000224715
-0.306749
0.00153104
-0.308588
0.00321309
-0.308078
-0.308158
-3.26214e-05
-0.417031
-0.631934
-9.91638e-05
-0.417027
-0.631871
6.59689e-05
-0.417408
-0.631851
1.1125e-05
-0.416611
-0.631652
-0.000162596
-0.416033
-0.63114
-0.417995
-0.632086
-0.00154229
-1.13892
-1.11136
-0.000842364
-1.14027
-1.11173
-0.00317427
-1.13823
-1.1112
-0.000343937
-1.14344
-1.11164
0.0104884
-1.15126
-1.11176
-1.13144
-1.1109
-0.000946695
-0.0842195
0.000117028
-0.0841168
9.53531e-05
-0.0845689
-3.54597e-05
-0.0841841
0.00243973
-0.0833841
-0.0860331
7.59265e-05
-0.348628
-0.283382
-6.96807e-06
-0.348232
-0.283557
0.000325927
-0.348783
-0.2834
-5.29679e-05
-0.34775
-0.283524
-0.00155135
-0.345676
-0.283965
-0.350773
-0.282865
-0.00151253
-1.94742
0.488943
-0.0007119
-1.94922
0.48846
-0.00225457
-1.94752
0.489074
3.39794e-05
-1.9503
0.488624
0.00895343
-1.95484
0.488489
-1.94217
0.489445
-0.000600105
0.285721
-8.46549e-05
0.285829
-0.000935575
0.285807
4.25123e-05
0.28586
0.00478909
0.286241
0.285083
-0.000285602
-0.724534
-2.00246e-05
-0.724436
-1.5155e-06
-0.724485
2.11125e-05
-0.724373
4.36045e-06
-0.724104
-0.724715
-0.00205033
-1.44451
-0.000618675
-1.44708
-0.0018363
-1.44493
0.000117667
-1.44686
0.00727262
-1.44888
-1.44226
-0.000590262
-0.000117867
-0.000506682
-0.000156336
0.00262736
7.15084e-07
0.55473
-0.0698031
1.423e-06
0.554747
-0.069806
1.8832e-06
0.554747
-0.0698061
1.90675e-06
0.554747
-0.069806
1.27411e-06
0.554747
-0.0698058
0.55473
-0.0698031
9.86964e-07
0.598304
-0.043575
1.04933e-06
0.598323
-0.043577
1.26538e-06
0.598323
-0.0435771
9.96493e-07
0.598323
-0.0435772
4.56038e-08
0.598322
-0.0435772
0.598304
-0.0435755
3.19189e-07
-0.0158928
5.74599e-07
-0.0158937
6.6063e-07
-0.0158937
3.69201e-07
-0.0158937
-4.08505e-07
-0.0158937
-0.0158928
8.63422e-07
0.584567
-0.141136
2.12584e-06
0.584585
-0.141143
2.69406e-06
0.584584
-0.141143
2.59716e-06
0.584584
-0.141143
1.75669e-06
0.584583
-0.141143
0.584565
-0.141136
2.36292e-07
0.628096
-0.0871049
1.16117e-06
0.628116
-0.087109
1.47025e-06
0.628116
-0.0871087
1.14573e-06
0.628115
-0.0871088
-2.34243e-08
0.628115
-0.0871086
0.628096
-0.0871047
-2.15413e-07
-0.0319605
5.74696e-07
-0.0319621
7.49369e-07
-0.0319619
5.16661e-07
-0.0319617
4.98672e-08
-0.0319614
-0.0319596
1.09172e-06
0.645382
-0.214576
2.61921e-06
0.645401
-0.214587
3.11254e-06
0.6454
-0.214588
2.75827e-06
0.645399
-0.214589
1.90703e-06
0.645399
-0.21459
0.645379
-0.21458
1.51004e-07
0.6874
-0.129121
1.90895e-06
0.687422
-0.129128
1.78218e-06
0.687422
-0.129127
1.81727e-06
0.687422
-0.129128
7.74329e-07
0.687421
-0.129127
0.687399
-0.129122
4.58788e-07
-0.0477579
1.64939e-06
-0.0477605
1.77244e-06
-0.0477597
1.68604e-06
-0.0477592
1.34363e-06
-0.0477584
-0.0477562
2.57957e-06
0.738198
-0.286536
5.95815e-07
0.738218
-0.286552
-2.35423e-06
0.738217
-0.286557
-1.15204e-06
0.738216
-0.286566
1.97777e-06
0.738218
-0.28657
0.738194
-0.28655
1.67004e-06
0.774649
-0.165571
4.0368e-06
0.774675
-0.165584
5.5408e-07
0.774674
-0.165577
2.13114e-06
0.774675
-0.165587
-3.6806e-07
0.774675
-0.16558
0.774649
-0.165578
2.69268e-06
-0.061375
4.85608e-06
-0.0613794
4.32652e-06
-0.0613758
3.9111e-06
-0.0613739
9.13763e-07
-0.0613695
-0.0613688
-5.94595e-06
0.861765
-0.342749
-2.36299e-05
0.861784
-0.342773
-5.97285e-05
0.861792
-0.342758
-2.37306e-05
0.861804
-0.342848
4.25244e-05
0.861817
-0.342876
0.861784
-0.342734
5.16128e-07
0.884378
-0.188183
5.06609e-06
0.884412
-0.188217
-1.38588e-05
0.884408
-0.188175
-1.53431e-06
0.88442
-0.188216
-7.05318e-06
0.884416
-0.188173
0.884393
-0.188195
6.17137e-06
-0.0690078
1.33624e-05
-0.0690139
1.17576e-05
-0.0689991
1.1428e-05
-0.0689876
-5.93851e-07
-0.0689678
-0.0689721
-6.54439e-05
1.00407
-0.343145
-8.38402e-05
1.00409
-0.34328
-0.000192744
1.00415
-0.343098
-0.000119693
1.00419
-0.343483
6.67489e-05
1.00427
-0.343582
1.00418
-0.343094
-1.43129e-05
1.00892
-0.193019
2.78675e-05
1.00898
-0.193144
-3.14695e-05
1.00895
-0.192922
1.31042e-05
1.00899
-0.193063
2.51688e-05
1.00897
-0.192886
1.00896
-0.192946
8.26136e-06
-0.0572141
3.80712e-05
-0.0572383
3.3625e-05
-0.0571832
3.41677e-05
-0.0571542
-2.83588e-05
-0.0570607
-0.0571445
-8.08958e-05
1.14142
-0.183775
-0.000103347
1.14153
-0.184338
-0.000109166
1.14165
-0.18367
-0.000368649
1.14146
-0.184214
-0.000707902
1.14184
-0.183776
1.14178
-0.184831
-2.15414e-05
1.09501
-0.14659
8.40046e-05
1.09514
-0.146858
0.000134958
1.09513
-0.146453
4.01377e-05
1.09518
-0.146692
0.000111812
1.09533
-0.146442
1.09491
-0.145963
5.21093e-05
-0.0686441
0.000180179
-0.0687136
0.000266671
-0.0685541
0.000160903
-0.0683168
0.000115637
-0.0681089
-0.0683279
0.000699156
1.41273
0.0835546
0.000190956
1.41292
0.0835603
-0.00239249
1.41275
0.0865097
-0.000163949
1.41271
0.0832461
-0.00105895
1.41473
0.0874509
1.41247
0.079194
0.000804172
1.17455
0.0907852
0.00133898
1.17505
0.090471
0.00159395
1.17464
0.0914007
0.000295412
1.17448
0.0928348
-0.00336123
1.17439
0.0975492
1.17434
0.0888052
0.000168869
0.126362
0.000454772
0.126259
0.000640006
0.126629
0.0003695
0.127283
-0.000726207
0.128961
0.125663
0.000410083
1.35229
-0.269468
-0.00184961
1.35213
-0.262711
-0.00877618
1.35174
-0.255704
-0.000681937
1.356
-0.277024
-0.000230951
1.35723
-0.27041
1.35077
-0.27065
0.000155062
1.39321
0.0497117
0.00404328
1.3931
0.0456058
0.00612128
1.3909
0.0501581
0.00382995
1.39348
0.0576405
-0.0142162
1.39502
0.0777968
1.38864
0.0367181
0.000208966
0.122263
0.00283935
0.119369
0.00572812
0.118934
0.00158077
0.12801
-0.00613032
0.1337
0.114933
-0.00259782
-0.0749581
-1.98613
0.00194034
-0.0759012
-1.97479
0.015795
-0.0741002
-1.97124
-0.000716472
-0.0729692
-1.98573
-0.0507447
-0.0630643
-1.96122
-0.0956789
-2.00271
-0.00514371
-0.319698
0.299594
0.0073775
-0.328806
0.285987
0.0387102
-0.333865
0.278589
0.0045394
-0.313348
0.33219
-0.0774185
-0.299619
0.396309
-0.35213
0.215751
0.00677639
0.533836
-0.00236306
0.538647
-0.0170391
0.540382
0.00257857
0.534889
0.0391394
0.539033
0.543283
-0.00784209
-1.06458
-4.57814
0.00288623
-1.04828
-4.58626
0.0186515
-1.03479
-4.59141
-0.00197628
-1.07822
-4.56321
-0.0282196
-1.09169
-4.53205
-1.03555
-4.62307
-0.0323659
-0.950027
0.217401
0.0157369
-0.946086
0.135685
0.0893632
-0.942353
0.11253
-0.00434237
-0.956611
0.304287
-0.161213
-0.971141
0.432635
-0.934388
-0.0466228
-0.00357875
0.883071
-0.00185801
0.891455
0.00444164
0.895786
-0.00140657
0.880179
-0.011185
0.888831