/*--------------------------------*- C++ -*----------------------------------*\
| =========                 |                                                 |
| \\      /  F ield         | OpenFOAM: The Open Source CFD Toolbox           |
|  \\    /   O peration     | Version:  v1612+                                |
|   \\  /    A nd           | Web:      www.OpenFOAM.com                      |
|    \\/     M anipulation  |                                                 |
\*---------------------------------------------------------------------------*/
FoamFile
{
    version     2.0;
    format      ascii;
    class       volVectorField;
    location    "4.15";
    object      U;
}
// * * * * * * * * * * * * * * * * * * * * * * * * * * * * * * * * * * * * * //

dimensions      [0 1 -1 0 0 0 0];

internalField   nonuniform List<vector> 
1116
(
(0.227822 8.66905e-06 -0.235256)
(0.227819 1.37469e-05 -0.235265)
(0.227821 -2.41298e-06 -0.235253)
(0.227822 -8.55086e-07 -0.235251)
(0.22782 3.48408e-06 -0.235263)
(0.227821 1.74064e-06 -0.235249)
(0.710904 1.22635e-05 -0.358434)
(0.710912 1.33553e-05 -0.358451)
(0.710907 -1.00746e-06 -0.358433)
(0.71091 1.44801e-06 -0.358428)
(0.71091 7.85943e-06 -0.358446)
(0.710904 1.30532e-06 -0.358433)
(1.07708 1.29561e-05 -0.316439)
(1.0771 1.02261e-05 -0.316461)
(1.07709 -6.71797e-07 -0.316442)
(1.0771 2.45287e-06 -0.316437)
(1.0771 7.75027e-06 -0.316456)
(1.07708 -6.62092e-07 -0.316446)
(1.3539 1.22318e-05 -0.21726)
(1.35394 8.1764e-06 -0.217285)
(1.35393 -5.694e-07 -0.217269)
(1.35393 3.19167e-06 -0.217265)
(1.35394 3.86606e-06 -0.217283)
(1.3539 -3.55712e-06 -0.217271)
(1.56224 1.05313e-05 -0.12046)
(1.56231 6.50392e-06 -0.120485)
(1.56229 -8.79328e-07 -0.120472)
(1.56229 3.05866e-06 -0.12047)
(1.5623 -2.5661e-08 -0.120485)
(1.56225 -5.10993e-06 -0.120471)
(1.57732 7.5984e-06 -0.0308214)
(1.57739 6.07002e-06 -0.0308392)
(1.57737 -1.00652e-06 -0.0308292)
(1.57737 2.54755e-06 -0.0308283)
(1.57738 -2.85787e-06 -0.0308399)
(1.57732 -4.86986e-06 -0.0308259)
(1.18831 -3.28102e-06 0.117684)
(1.18839 6.68034e-07 0.117678)
(1.18837 -3.05974e-06 0.117685)
(1.18837 -2.99523e-06 0.117687)
(1.18839 -7.86696e-06 0.11768)
(1.18831 -3.06646e-06 0.11769)
(0.41148 -9.97591e-06 0.423593)
(0.411559 1.50734e-06 0.423593)
(0.411551 -2.88051e-06 0.423591)
(0.41155 -6.00241e-06 0.423592)
(0.411566 -1.58693e-05 0.423588)
(0.411477 -5.97501e-06 0.4236)
(-0.79604 1.22522e-05 0.713873)
(-0.795993 1.8938e-05 0.713931)
(-0.795968 -8.61208e-06 0.713903)
(-0.795972 7.19191e-06 0.713907)
(-0.795957 -2.53526e-05 0.713921)
(-0.796088 -2.3075e-05 0.713894)
(-2.11938 4.81247e-05 0.174135)
(-2.11937 4.0877e-05 0.174217)
(-2.11931 -1.08396e-05 0.174202)
(-2.11932 2.4445e-05 0.174202)
(-2.11929 -2.97243e-05 0.174235)
(-2.11948 -3.84425e-05 0.174101)
(-2.32239 8.11093e-05 -0.923403)
(-2.32242 5.327e-05 -0.923377)
(-2.32237 -1.82314e-05 -0.92337)
(-2.32237 2.40128e-05 -0.923375)
(-2.32237 -4.20207e-05 -0.923359)
(-2.32245 -4.7332e-05 -0.923478)
(-1.04064 1.83012e-05 -1.23088)
(-1.04051 -2.49258e-06 -1.23087)
(-1.04053 -1.92318e-05 -1.23088)
(-1.04054 -8.13507e-06 -1.23089)
(-1.04049 -1.42135e-05 -1.23089)
(-1.04062 -1.79129e-06 -1.23091)
(1.84977 -2.69073e-05 -1.25441)
(1.84984 -1.14436e-05 -1.25436)
(1.84983 1.66826e-05 -1.25433)
(1.84982 2.48166e-05 -1.2544)
(1.84984 7.86511e-05 -1.25438)
(1.84979 3.88962e-05 -1.25435)
(5.68924 -4.24807e-05 -1.02723)
(5.68933 -1.96791e-05 -1.02719)
(5.68935 4.86739e-05 -1.02717)
(5.68934 4.96689e-05 -1.02724)
(5.68939 0.000151368 -1.02722)
(5.68935 7.52062e-05 -1.02714)
(10.2171 -5.55142e-05 -0.835122)
(10.2172 -3.40021e-05 -0.835088)
(10.2173 6.04895e-05 -0.835086)
(10.2172 3.73058e-05 -0.835132)
(10.2173 0.000168185 -0.835109)
(10.2173 0.00010165 -0.835028)
(13.4315 -1.64657e-05 -0.662702)
(13.4315 -2.2066e-06 -0.662662)
(13.4316 6.815e-05 -0.662675)
(13.4316 6.94306e-06 -0.662694)
(13.4316 0.000115284 -0.662663)
(13.4318 7.03684e-05 -0.662628)
(20.371 3.16861e-05 0.365951)
(20.3712 -2.54155e-05 0.36601)
(20.3713 1.46514e-05 0.365994)
(20.3711 -9.27601e-05 0.365988)
(20.3712 -6.26748e-05 0.366009)
(20.3711 -7.26647e-05 0.366003)
(10.5694 -1.07593e-05 0.701929)
(10.5697 -5.27531e-05 0.701943)
(10.5696 -1.79765e-05 0.701941)
(10.5695 -6.36712e-05 0.701941)
(10.5696 -8.5885e-05 0.701947)
(10.5692 -6.89838e-05 0.701941)
(5.18624 1.44244e-05 0.958529)
(5.18617 -5.7322e-05 0.958502)
(5.18622 -6.89799e-05 0.9585)
(5.18615 -6.95869e-05 0.958499)
(5.18616 -6.03526e-05 0.958489)
(5.18597 -4.63482e-05 0.958494)
(1.73065 8.92717e-06 1.33499)
(1.73089 -2.13882e-05 1.33497)
(1.73079 -1.51759e-05 1.33497)
(1.73078 -1.36926e-05 1.33497)
(1.73083 -2.58605e-05 1.33497)
(1.73063 -4.79255e-05 1.33496)
(0.294372 0.000156313 1.51708)
(0.294597 8.49591e-05 1.51719)
(0.294535 -5.54959e-05 1.51714)
(0.294543 3.89986e-05 1.51714)
(0.294623 -6.15019e-05 1.51717)
(0.294388 -9.94947e-05 1.51709)
(-0.53797 0.000116746 0.937079)
(-0.537909 6.59091e-05 0.93731)
(-0.537891 -3.20468e-05 0.937222)
(-0.537879 4.61826e-05 0.937226)
(-0.537833 -2.36241e-05 0.937288)
(-0.538012 -4.82859e-05 0.937103)
(-0.826186 0.000156005 -0.454523)
(-0.825946 9.8961e-05 -0.453998)
(-0.82597 -1.82557e-05 -0.454166)
(-0.825966 5.90651e-05 -0.454161)
(-0.825875 -4.41111e-05 -0.454027)
(-0.826148 -6.11659e-05 -0.454434)
(-0.90696 -4.67685e-05 -1.90175)
(-0.906422 -4.93778e-05 -1.90153)
(-0.906542 -4.77366e-06 -1.9016)
(-0.906551 -3.13472e-05 -1.9016)
(-0.906411 4.30614e-05 -1.90153)
(-0.906867 7.22306e-05 -1.90174)
(-0.498665 -6.67662e-05 -4.941)
(-0.498637 -6.38903e-05 -4.94134)
(-0.498697 6.34233e-07 -4.9413)
(-0.498649 2.58731e-05 -4.94131)
(-0.498592 2.28545e-05 -4.94134)
(-0.498734 5.50281e-05 -4.94098)
(-1.53374 -4.43081e-05 -5.96062)
(-1.53359 -2.62573e-05 -5.96103)
(-1.53367 -4.18981e-06 -5.96097)
(-1.53361 1.19923e-05 -5.96096)
(-1.53351 3.5171e-05 -5.961)
(-1.53373 6.88749e-05 -5.96054)
(-2.28154 -8.43929e-05 -7.27731)
(-2.28138 -7.69704e-05 -7.27771)
(-2.28143 -3.22573e-05 -7.27765)
(-2.28143 -4.97349e-05 -7.27763)
(-2.28137 3.8977e-05 -7.27768)
(-2.28141 0.000100971 -7.27718)
(-3.14777 -0.000162006 -6.74254)
(-3.14787 -0.000176192 -6.74287)
(-3.14788 -7.60208e-05 -6.74283)
(-3.14793 -0.000173185 -6.74276)
(-3.14798 8.45942e-05 -6.74277)
(-3.14772 0.000188691 -6.74244)
(2.49074 -0.000195354 1.60715)
(2.49031 -0.000351542 1.60721)
(2.49062 -0.000188394 1.6072)
(2.49025 -0.000365089 1.60729)
(2.48985 -1.1577e-05 1.60734)
(2.49108 0.000110267 1.60726)
(6.47479 -0.000164512 9.28087)
(6.47488 -0.000375699 9.28099)
(6.4748 -0.000251017 9.28101)
(6.47449 -0.000381855 9.28115)
(6.47422 -0.000174572 9.2813)
(6.47454 -6.79484e-05 9.28083)
(5.98358 0.000956179 8.46559)
(5.98258 0.000346124 8.46628)
(5.98289 -0.000560602 8.46572)
(5.98262 -5.1732e-05 8.46566)
(5.98223 -0.000241625 8.46579)
(5.98293 -0.000333729 8.46524)
(0.156944 9.34043e-05 6.2475)
(0.167247 -3.73528e-05 6.24523)
(0.161509 6.5197e-05 6.24617)
(0.161913 0.000136082 6.24616)
(0.163594 -5.86695e-05 6.2459)
(0.160403 -0.000147562 6.24617)
(-0.43956 0.000773547 2.42954)
(-0.437861 0.000376702 2.43092)
(-0.438695 -0.000334279 2.43025)
(-0.438666 0.000147963 2.4302)
(-0.438259 -0.000148308 2.43049)
(-0.43903 -0.000276943 2.42992)
(-0.219996 0.000577623 1.14594)
(-0.218542 0.000298945 1.14682)
(-0.219194 -0.000228601 1.14642)
(-0.219228 0.000168774 1.14647)
(-0.218866 -0.000131464 1.14665)
(-0.219549 -0.000282973 1.14619)
(-0.289611 0.000674523 -0.836626)
(-0.28892 0.000388946 -0.836658)
(-0.289159 -0.000269331 -0.836636)
(-0.289136 0.000153013 -0.836511)
(-0.288956 -0.000123727 -0.836612)
(-0.289437 -0.00027707 -0.836641)
(-0.984792 -0.00015701 -2.20229)
(-0.984318 -9.68285e-05 -2.20206)
(-0.984378 5.26093e-05 -2.20209)
(-0.984462 -3.46955e-05 -2.20213)
(-0.984522 0.000100028 -2.20209)
(-0.984537 0.000121439 -2.20219)
(-0.0381946 3.32606e-05 -1.9169)
(-0.038119 2.79001e-05 -1.91752)
(-0.0381231 -4.22287e-06 -1.91741)
(-0.0381274 4.04411e-06 -1.91742)
(-0.0381145 -3.006e-05 -1.91756)
(-0.0381907 -3.42298e-05 -1.91688)
(-0.254855 4.40337e-05 -2.22819)
(-0.254612 2.66637e-05 -2.2287)
(-0.254633 -1.59977e-05 -2.22861)
(-0.254642 5.57708e-07 -2.22861)
(-0.254606 -3.87195e-05 -2.22872)
(-0.254856 -4.97485e-05 -2.22816)
(-1.2833 -5.19633e-06 -3.41938)
(-1.2829 -2.9145e-05 -3.4197)
(-1.28298 -4.25391e-05 -3.41966)
(-1.28299 -2.75166e-05 -3.41965)
(-1.28292 -1.92538e-05 -3.4197)
(-1.28334 -1.10373e-05 -3.41933)
(-4.31531 -0.00010347 -5.01944)
(-4.31509 -0.000119915 -5.01987)
(-4.31516 -6.92522e-05 -5.0198)
(-4.31519 -8.54859e-05 -5.01984)
(-4.31518 1.75807e-05 -5.01993)
(-4.31536 6.51947e-05 -5.01942)
(-5.85558 -0.000258437 -2.91448)
(-5.85595 -0.000281085 -2.91524)
(-5.85586 -8.26831e-05 -2.91516)
(-5.85599 -0.000163521 -2.9153)
(-5.85618 5.97078e-05 -2.91554)
(-5.85575 0.00014487 -2.91483)
(-2.06855 -0.000162006 4.6158)
(-2.07 -0.000302849 4.6141)
(-2.06959 -0.000120119 4.61434)
(-2.0699 -0.000165489 4.61402)
(-2.07049 2.52649e-05 4.61347)
(-2.06939 8.26037e-05 4.61436)
(-0.140582 0.000942889 7.30649)
(-0.142537 0.000492186 7.30445)
(-0.141866 -0.000216105 7.30478)
(-0.142078 0.000250088 7.30439)
(-0.142564 -2.26017e-06 7.3038)
(-0.141677 -0.00015411 7.30462)
(-0.33078 0.000752477 8.17051)
(-0.321786 0.000560793 8.17335)
(-0.326502 8.01087e-05 8.17206)
(-0.326613 0.000367044 8.17163)
(-0.325183 0.000104051 8.17207)
(-0.327051 -0.000103812 8.17144)
(-7.83027 0.00174764 1.55153)
(-7.8277 0.000792736 1.56466)
(-7.82808 -0.000788065 1.55814)
(-7.82942 0.000330043 1.55787)
(-7.82811 -0.000350354 1.56046)
(-7.82975 -0.000499926 1.55603)
(-3.11068 0.00127581 0.0134274)
(-3.10739 0.000680677 0.018976)
(-3.10885 -0.000504775 0.0164342)
(-3.10946 0.000265735 0.0159905)
(-3.1082 -0.000133932 0.0176976)
(-3.10989 -0.000337645 0.0148645)
(-0.632624 -0.000174818 -0.474153)
(-0.625959 -0.000128256 -0.467924)
(-0.628818 0.000128703 -0.470606)
(-0.629551 -8.07233e-06 -0.471251)
(-0.627683 0.000125047 -0.469416)
(-0.630552 0.000197137 -0.472343)
(-0.939041 -0.000631433 -2.0335)
(-0.938255 -0.000313632 -2.03302)
(-0.938461 0.000301588 -2.03314)
(-0.938676 2.65255e-05 -2.0332)
(-0.938874 9.68115e-05 -2.03324)
(-0.938394 3.7861e-05 -2.03314)
(0.12907 -2.71683e-06 0.130769)
(0.129076 -5.90305e-06 0.130773)
(0.129077 -6.61444e-06 0.130773)
(0.129079 -6.30119e-06 0.130773)
(0.12908 -4.86393e-06 0.130773)
(0.129077 -1.87504e-06 0.130769)
(0.395019 -4.98952e-06 0.139181)
(0.395038 -8.35792e-06 0.139183)
(0.395042 -8.71167e-06 0.139183)
(0.395046 -8.0648e-06 0.139183)
(0.395051 -6.63067e-06 0.139183)
(0.395043 -1.90719e-06 0.139179)
(0.686108 -7.75275e-06 0.15798)
(0.686141 -1.35418e-05 0.157981)
(0.686149 -1.37931e-05 0.157981)
(0.686155 -1.31301e-05 0.157981)
(0.686165 -1.08273e-05 0.15798)
(0.686153 -3.45482e-06 0.157975)
(1.02288 -1.31717e-05 0.192359)
(1.02293 -2.45738e-05 0.192348)
(1.02294 -2.29126e-05 0.192339)
(1.02293 -2.3439e-05 0.192334)
(1.02295 -2.24103e-05 0.192328)
(1.02295 -7.71806e-06 0.192317)
(1.42819 -6.8227e-06 0.250117)
(1.4282 -2.82063e-05 0.250082)
(1.42824 -2.15043e-06 0.25006)
(1.42815 -1.62979e-05 0.250055)
(1.42822 -7.36621e-05 0.250051)
(1.42826 -3.43478e-05 0.250056)
(1.92945 6.40227e-05 0.343613)
(1.92929 -9.26956e-06 0.343575)
(1.92955 8.05536e-05 0.343576)
(1.92903 -1.41412e-05 0.343551)
(1.92935 -0.000311217 0.343562)
(1.92976 -0.000137105 0.343757)
(2.63564 0.000478878 0.466006)
(2.63433 -0.000183602 0.466201)
(2.63663 0.000471027 0.466024)
(2.63186 0.000371251 0.466306)
(2.63298 -0.00210985 0.466276)
(2.63971 -0.00135014 0.466386)
(3.47354 0.00304575 0.337613)
(3.46953 -0.00251335 0.339228)
(3.47908 0.00528921 0.335712)
(3.45879 0.00897895 0.341493)
(3.46086 -0.019139 0.342171)
(3.49042 -0.0173391 0.334181)
(2.84224 0.00845143 -0.581119)
(2.8379 -0.00930158 -0.576188)
(2.8641 0.0189041 -0.605316)
(2.80949 0.0371946 -0.548749)
(2.8045 -0.0641806 -0.535958)
(2.88852 -0.0637876 -0.633881)
(-0.425631 0.00555046 -1.46054)
(-0.426113 -0.00708529 -1.46108)
(-0.381985 0.014273 -1.50998)
(-0.48363 0.0326931 -1.39478)
(-0.522581 -0.0493314 -1.35717)
(-0.322006 -0.0531805 -1.58202)
(-4.86191 0.00194039 0.883276)
(-4.85982 -0.00313344 0.882097)
(-4.86494 0.0100837 0.877482)
(-4.85402 0.0245497 0.89041)
(-4.85849 -0.0339389 0.895942)
(-4.86774 -0.0429481 0.868882)
(-2.77752 0.000459318 2.72393)
(-2.77704 0.000417093 2.72448)
(-2.78072 0.00242057 2.72586)
(-2.7703 0.00458978 2.72282)
(-2.76744 -0.00502456 2.72766)
(-2.78934 -0.00715135 2.72263)
(0.127471 -2.56845e-06 0.382959)
(0.127477 -6.04676e-06 0.382969)
(0.127479 -5.38703e-06 0.38297)
(0.12748 -5.00781e-06 0.38297)
(0.127481 -3.25613e-06 0.382971)
(0.127478 -1.75337e-06 0.38296)
(0.389387 -3.45196e-06 0.406789)
(0.389407 -6.08478e-06 0.406797)
(0.389411 -5.36671e-06 0.406797)
(0.389414 -4.83645e-06 0.406798)
(0.389417 -3.17837e-06 0.406798)
(0.389408 -9.46544e-07 0.406786)
(0.673197 -3.10528e-06 0.456673)
(0.673229 -5.2811e-06 0.456678)
(0.673235 -4.56934e-06 0.456676)
(0.673236 -5.20763e-06 0.456675)
(0.673243 -4.29176e-06 0.456674)
(0.673229 -1.47873e-06 0.45666)
(0.997384 2.87641e-06 0.537487)
(0.997413 1.5967e-06 0.537464)
(0.997429 4.22885e-06 0.537443)
(0.997401 -1.96689e-06 0.537435)
(0.997426 -1.33559e-05 0.537426)
(0.997424 -6.03921e-06 0.537401)
(1.38479 3.24418e-05 0.656941)
(1.38476 1.56715e-05 0.656868)
(1.38485 2.53091e-05 0.656821)
(1.38467 -9.57227e-06 0.656812)
(1.38479 -7.56896e-05 0.656829)
(1.38488 -2.39201e-05 0.656854)
(1.88951 0.000170445 0.846017)
(1.88901 -3.32472e-05 0.845854)
(1.88967 8.21942e-05 0.846224)
(1.88851 -3.01608e-05 0.845412)
(1.88903 -0.000513887 0.845461)
(1.89015 -0.000206489 0.847091)
(2.80495 0.00139054 1.19713)
(2.80247 -0.00109395 1.1969)
(2.80587 0.00167513 1.19867)
(2.8 0.00311597 1.19458)
(2.8021 -0.00675073 1.19437)
(2.80821 -0.00579004 1.20201)
(4.14013 0.00603516 1.04049)
(4.1335 -0.00480729 1.04464)
(4.15721 0.0078037 1.0226)
(4.10975 0.0175737 1.0654)
(4.10792 -0.0293485 1.07479)
(4.1775 -0.02772 1.0026)
(6.20353 0.00502638 -3.47132)
(6.18204 -0.00206475 -3.45425)
(6.29009 0.0035442 -3.574)
(6.06593 0.00940825 -3.32238)
(6.01077 -0.0118994 -3.25174)
(6.40593 -0.00703586 -3.71261)
(8.69667 -0.00355731 -8.02824)
(8.68084 0.00320189 -8.03203)
(8.74266 -0.00274632 -8.09331)
(8.62152 -0.0154538 -7.9431)
(8.56779 0.029036 -7.86553)
(8.80348 0.0353149 -8.19318)
(-1.84145 -0.00451095 -0.372288)
(-1.83268 0.00377443 -0.383715)
(-1.76057 0.00223703 -0.449557)
(-1.93666 0.000227607 -0.27355)
(-2.04094 0.0116166 -0.147261)
(-1.63187 0.00638889 -0.60124)
(-3.86993 0.000266949 2.46872)
(-3.8701 0.00393294 2.4642)
(-3.86919 -0.0014819 2.46666)
(-3.87041 0.00157058 2.47172)
(-3.8743 0.00312128 2.48036)
(-3.86821 -0.00366742 2.46401)
(0.113099 -1.60137e-06 0.615713)
(0.113104 -3.4022e-06 0.615731)
(0.113105 -1.91705e-06 0.615732)
(0.113105 -1.4877e-06 0.615734)
(0.113105 1.73772e-08 0.615735)
(0.1131 -1.3365e-07 0.615717)
(0.345882 -2.06146e-06 0.654843)
(0.345899 -2.62635e-06 0.654859)
(0.345901 -9.16819e-07 0.654859)
(0.345901 -6.5919e-08 0.65486)
(0.3459 1.44909e-06 0.65486)
(0.345887 1.30416e-06 0.654841)
(0.600358 -1.5526e-06 0.738559)
(0.600388 -9.83281e-07 0.738571)
(0.600392 1.98756e-06 0.738567)
(0.600388 2.69974e-06 0.738566)
(0.600389 3.10108e-06 0.738564)
(0.600365 2.11877e-06 0.738543)
(0.89582 4.72844e-06 0.88141)
(0.895854 6.94715e-06 0.881398)
(0.895876 1.27477e-05 0.881374)
(0.895847 1.05224e-05 0.88137)
(0.895861 1.243e-06 0.881365)
(0.895825 1.99903e-06 0.88133)
(1.2497 2.97398e-05 1.11389)
(1.24969 1.00179e-05 1.11383)
(1.2498 2.65989e-06 1.1138)
(1.24966 -1.75903e-05 1.11379)
(1.24974 -6.6485e-06 1.11384)
(1.2497 3.48507e-05 1.11385)
(1.68449 0.000167051 1.53276)
(1.68418 -0.000115505 1.53253)
(1.68454 -4.94402e-05 1.53314)
(1.68437 -2.27801e-05 1.53194)
(1.6847 -0.000355304 1.53223)
(1.6842 -0.000107206 1.53396)
(2.24177 0.00132142 2.45746)
(2.24055 -0.000854136 2.45669)
(2.24138 0.000147585 2.45917)
(2.24241 0.00146299 2.45411)
(2.24435 -0.00330696 2.45453)
(2.23877 -0.00246578 2.46205)
(2.66237 0.0041419 3.24876)
(2.65677 -1.99298e-05 3.25206)
(2.66547 -0.00419651 3.24176)
(2.65628 -0.00300955 3.2598)
(2.66254 0.00335233 3.25928)
(2.66536 0.00673773 3.2368)
(4.96558 0.00103659 -1.18625)
(4.93509 0.00740974 -1.1664)
(4.95586 -0.0189394 -1.20738)
(4.94841 -0.0355746 -1.13851)
(4.96966 0.0488718 -1.14019)
(4.95326 0.0604502 -1.23276)
(11.0076 -0.00246472 -9.34315)
(10.9807 0.00511211 -9.35134)
(10.9664 -0.00838832 -9.36573)
(11.0395 -0.0320819 -9.31467)
(11.0655 0.0437128 -9.27815)
(10.9168 0.0599403 -9.39388)
(9.10707 -0.00285621 -6.74683)
(9.09919 -0.000118596 -6.76342)
(9.08442 -0.000128244 -6.78607)
(9.14208 -0.0150979 -6.7061)
(9.1653 0.0224939 -6.64073)
(9.04201 0.0332676 -6.83198)
(-3.40396 -0.000312727 6.784)
(-3.40327 0.00105517 6.79505)
(-3.3706 0.00889699 6.73449)
(-3.44579 0.0286048 6.85141)
(-3.49923 -0.0182964 6.97768)
(-3.30359 -0.0389837 6.61664)
(0.0926981 -5.6472e-07 0.81113)
(0.0927022 -7.61161e-07 0.811154)
(0.0927021 1.04814e-06 0.811154)
(0.0927016 1.29727e-06 0.811155)
(0.0927007 2.17338e-06 0.811155)
(0.0926965 7.96976e-07 0.811131)
(0.280339 -3.42332e-07 0.860931)
(0.280352 7.12797e-07 0.860954)
(0.280352 2.46725e-06 0.860953)
(0.28035 3.10054e-06 0.860953)
(0.280348 3.79567e-06 0.860952)
(0.280334 2.09545e-06 0.860926)
(0.472687 1.03529e-06 0.965921)
(0.472709 3.3813e-06 0.965942)
(0.472709 5.76757e-06 0.965937)
(0.472704 6.38473e-06 0.965934)
(0.4727 6.46162e-06 0.965932)
(0.472675 3.28829e-06 0.965902)
(0.666189 7.48631e-06 1.13894)
(0.666214 9.44711e-06 1.13895)
(0.666227 1.0826e-05 1.13893)
(0.666212 1.00347e-05 1.13892)
(0.666217 7.2223e-06 1.13892)
(0.666163 5.4711e-06 1.13889)
(0.845586 2.48961e-05 1.40489)
(0.845585 -8.27863e-06 1.40487)
(0.845665 -2.68881e-05 1.40487)
(0.845612 -2.58941e-05 1.40486)
(0.845669 -1.26585e-05 1.40489)
(0.84555 1.88702e-05 1.4049)
(0.950124 7.44177e-05 1.80976)
(0.949992 -0.000145672 1.80963)
(0.950227 -0.000190535 1.8099)
(0.950273 -0.000128533 1.80964)
(0.950524 -0.000127063 1.8099)
(0.949874 2.95559e-05 1.81012)
(0.825147 0.000483673 2.50917)
(0.824887 -0.000494742 2.50822)
(0.824722 -0.000673108 2.50987)
(0.826976 -0.000597166 2.50819)
(0.828161 -3.40524e-05 2.50979)
(0.823086 0.000828342 2.5098)
(0.304775 0.00191809 3.62804)
(0.30437 0.00121836 3.62674)
(0.303807 -0.00531554 3.62726)
(0.30962 -0.00924749 3.63027)
(0.314834 0.00918668 3.6334)
(0.301574 0.0136826 3.62278)
(-0.4398 0.000922424 2.29951)
(-0.461838 0.00757433 2.31465)
(-0.47597 -0.0189054 2.31086)
(-0.415972 -0.0373038 2.30547)
(-0.380904 0.0342201 2.28454)
(-0.509046 0.0472379 2.30835)
(4.84571 0.000579333 -5.17698)
(4.76859 0.00558157 -5.15184)
(4.72297 -0.011102 -5.14852)
(4.9232 -0.0224526 -5.1751)
(4.99988 0.0160649 -5.19196)
(4.68762 0.0306936 -5.14243)
(10.0985 -0.00242587 -7.50054)
(10.0753 -0.00302585 -7.50029)
(10.047 -0.00248208 -7.50152)
(10.1395 -0.018344 -7.49057)
(10.1777 0.0128499 -7.47832)
(10.021 0.0339164 -7.49577)
(6.85339 -0.0045943 -4.27537)
(6.85037 -0.00282538 -4.28749)
(6.8471 0.000785749 -4.29981)
(6.86386 -0.0158451 -4.25847)
(6.87655 0.0111019 -4.23467)
(6.8106 0.0234353 -4.30278)
(-0.00382786 4.70091e-05 -3.012)
(-0.00385058 3.68874e-05 -3.01243)
(-0.00384691 -7.67033e-06 -3.01235)
(-0.00384742 7.35367e-06 -3.01235)
(-0.00385198 -3.89826e-05 -3.01243)
(-0.00382651 -5.16094e-05 -3.012)
(-0.0956447 3.77689e-05 -2.52567)
(-0.0956469 3.33609e-05 -2.52595)
(-0.0956464 -7.10472e-06 -2.5259)
(-0.0956465 3.85197e-06 -2.5259)
(-0.0956459 -3.66753e-05 -2.52595)
(-0.095645 -4.1806e-05 -2.52567)
(-0.0210105 2.14801e-05 -2.43782)
(-0.0210093 2.06377e-05 -2.43796)
(-0.0210095 -5.5996e-07 -2.43794)
(-0.0210096 7.83202e-07 -2.43794)
(-0.0210091 -2.04501e-05 -2.43796)
(-0.0210102 -2.21646e-05 -2.43781)
(-0.144328 3.57431e-05 -3.10046)
(-0.144402 2.58634e-05 -3.10088)
(-0.14439 -1.06559e-05 -3.10081)
(-0.144393 3.541e-06 -3.1008)
(-0.144411 -3.53577e-05 -3.10089)
(-0.144329 -4.65721e-05 -3.10043)
(-0.365753 3.5281e-05 -2.49816)
(-0.365757 3.25152e-05 -2.49842)
(-0.365757 -8.47536e-06 -2.49837)
(-0.365756 4.18561e-06 -2.49837)
(-0.365754 -4.06632e-05 -2.49843)
(-0.365753 -4.43409e-05 -2.49815)
(-0.0694395 2.07773e-05 -2.32969)
(-0.069436 1.94091e-05 -2.32984)
(-0.0694369 -5.79326e-07 -2.32982)
(-0.0694371 9.42433e-07 -2.32982)
(-0.0694361 -1.88638e-05 -2.32984)
(-0.0694392 -2.13868e-05 -2.3297)
(-0.527643 1.90093e-05 -2.97888)
(-0.527764 1.34776e-05 -2.97927)
(-0.527743 -7.85959e-06 -2.9792)
(-0.527747 -2.24178e-06 -2.97919)
(-0.527775 -2.41492e-05 -2.97928)
(-0.527643 -3.3586e-05 -2.97884)
(-0.91019 3.16681e-05 -2.34452)
(-0.910199 2.62633e-05 -2.34477)
(-0.910198 -1.22667e-05 -2.34473)
(-0.910194 2.77871e-06 -2.34473)
(-0.910192 -3.90891e-05 -2.34479)
(-0.910173 -4.13555e-05 -2.34452)
(-0.155143 1.91227e-05 -1.95922)
(-0.155134 1.60537e-05 -1.95937)
(-0.155136 -1.94993e-06 -1.95936)
(-0.155137 -3.43833e-07 -1.95936)
(-0.155135 -1.83618e-05 -1.95939)
(-0.155145 -2.08282e-05 -1.95925)
(-1.90687 2.60728e-05 -2.35745)
(-1.90694 2.66733e-05 -2.35778)
(-1.90691 8.62173e-06 -2.35774)
(-1.90689 1.18144e-05 -2.35772)
(-1.9069 -2.92486e-05 -2.35778)
(-1.90683 -5.104e-05 -2.35744)
(-1.69275 3.55553e-05 -1.84996)
(-1.69277 2.59166e-05 -1.85023)
(-1.69276 -1.62442e-05 -1.85019)
(-1.69276 8.11543e-06 -1.85019)
(-1.69276 -3.26035e-05 -1.85024)
(-1.69273 -3.82474e-05 -1.84997)
(-0.29177 1.64225e-05 -1.2062)
(-0.291749 1.01445e-05 -1.20634)
(-0.291754 -4.90615e-06 -1.20633)
(-0.291752 -1.64463e-06 -1.20634)
(-0.291747 -1.70719e-05 -1.20636)
(-0.291768 -1.94402e-05 -1.20622)
(-3.84308 3.7575e-06 -0.254798)
(-3.84316 4.91904e-05 -0.255171)
(-3.8431 8.0222e-05 -0.25513)
(-3.84305 6.6e-05 -0.255127)
(-3.84303 8.49433e-06 -0.255181)
(-3.84303 -3.88145e-05 -0.254881)
(-2.08948 2.92897e-05 -0.260633)
(-2.08949 2.0262e-05 -0.260919)
(-2.08949 -1.34462e-05 -0.260901)
(-2.08949 1.63495e-05 -0.260906)
(-2.0895 -2.61196e-05 -0.260969)
(-2.08946 -3.59102e-05 -0.260659)
(-0.631305 1.52765e-05 0.207552)
(-0.631269 7.39967e-06 0.207409)
(-0.631277 -3.33086e-06 0.20743)
(-0.631272 1.73366e-06 0.207426)
(-0.631265 -1.20104e-05 0.207404)
(-0.631295 -1.6341e-05 0.207556)
(-4.21473 9.44261e-05 1.68182)
(-4.21547 0.000113934 1.68062)
(-4.21514 0.000113987 1.68098)
(-4.21518 0.000154952 1.68086)
(-4.21532 5.79867e-05 1.68057)
(-4.21504 -7.68082e-06 1.68111)
(-1.92425 6.40491e-05 1.70995)
(-1.92435 4.74925e-05 1.70955)
(-1.92436 2.89722e-06 1.70962)
(-1.92436 4.66042e-05 1.7096)
(-1.92436 -9.9885e-06 1.70953)
(-1.9244 -2.84365e-05 1.70977)
(-0.547968 3.01431e-05 1.51763)
(-0.547964 1.66716e-05 1.51751)
(-0.547998 -8.58884e-06 1.51752)
(-0.548002 -2.17066e-06 1.51751)
(-0.548023 -2.1969e-05 1.51748)
(-0.548022 -1.56628e-05 1.51762)
(-2.81696 0.000518663 4.88149)
(-2.81858 0.000411359 4.87937)
(-2.81782 7.81171e-05 4.88027)
(-2.81794 0.000262825 4.88007)
(-2.81823 -4.8185e-06 4.87953)
(-2.81769 -0.000117081 4.88034)
(-2.15789 0.000108266 3.12406)
(-2.15872 3.31088e-05 3.12327)
(-2.1585 -6.40426e-05 3.12381)
(-2.15859 1.44385e-05 3.12383)
(-2.15868 -4.0245e-05 3.12373)
(-2.15849 -4.34327e-05 3.12392)
(-0.726223 -8.57471e-06 1.72992)
(-0.726427 -6.6647e-05 1.72984)
(-0.726437 -7.87179e-05 1.7299)
(-0.726454 -8.10478e-05 1.72993)
(-0.72648 -2.31246e-05 1.72992)
(-0.726466 3.51256e-05 1.73002)
(2.00892 -0.00058781 9.82936)
(2.01175 -6.1769e-05 9.83171)
(2.01005 0.000676216 9.83074)
(2.00974 9.2934e-05 9.83036)
(2.01012 9.35103e-05 9.83057)
(2.00923 7.81535e-05 9.83065)
(2.35651 -0.00112522 8.68675)
(2.35609 -0.000501867 8.68837)
(2.35603 0.000624601 8.68824)
(2.35565 -7.30731e-05 8.68804)
(2.35567 -7.21811e-05 8.68818)
(2.3556 -2.49023e-05 8.68816)
(1.3861 -0.000253975 4.16442)
(1.38545 -0.000201823 4.16468)
(1.38576 7.12218e-05 4.16511)
(1.38547 2.76574e-06 4.16503)
(1.38533 -7.2321e-05 4.16517)
(1.38569 -5.07114e-05 4.16527)
(-3.21352 0.00133362 6.13805)
(-3.22195 0.000714832 6.14828)
(-3.21643 -0.000664201 6.14385)
(-3.21669 -0.000129089 6.14315)
(-3.21828 -0.000258339 6.14444)
(-3.21708 -0.000157582 6.14187)
(1.85657 -0.000803226 10.4222)
(1.84646 -0.000368408 10.4348)
(1.85137 0.000204065 10.4292)
(1.85195 -0.000279123 10.4279)
(1.85017 -0.000205971 10.4299)
(1.85091 -0.000158527 10.4276)
(3.53138 -0.000923767 7.2062)
(3.52967 -0.000350208 7.21864)
(3.53036 0.00019079 7.21345)
(3.53064 -0.000350063 7.21242)
(3.5302 -0.000242478 7.21432)
(3.53001 -0.000303787 7.21241)
(-5.51801 -0.00286093 -6.71233)
(-5.50411 -0.00143976 -6.70919)
(-5.51106 0.0020731 -6.71018)
(-5.51253 -9.32975e-05 -6.71099)
(-5.50961 0.00047023 -6.70999)
(-5.51387 0.00113099 -6.71091)
(1.57222 0.00142802 0.62322)
(1.56829 0.00057576 0.608394)
(1.56806 -0.000500798 0.612158)
(1.56944 0.000259352 0.615859)
(1.5698 -0.000465425 0.615261)
(1.56603 -0.000435878 0.61583)
(5.94376 -0.000751576 2.26195)
(5.94375 -0.000497784 2.26307)
(5.94284 -8.69592e-05 2.26142)
(5.94339 -0.00168037 2.2616)
(5.94349 0.00146661 2.26123)
(5.94146 0.00276225 2.26107)
(-5.69694 -0.0041289 -4.45383)
(-5.67994 -0.00215427 -4.45146)
(-5.6875 0.0026852 -4.45219)
(-5.68907 -3.97323e-05 -4.45259)
(-5.6856 0.00071003 -4.4519)
(-5.69052 0.00139222 -4.45275)
(-4.82684 0.00156048 -4.63422)
(-4.82934 0.00121495 -4.65772)
(-4.82955 0.000356967 -4.64728)
(-4.827 0.00113225 -4.64319)
(-4.82519 0.000296006 -4.64923)
(-4.83064 -0.000317041 -4.64181)
(1.31593 0.00110814 0.82784)
(1.30386 0.0007937 0.822465)
(1.30854 -0.000198087 0.82525)
(1.30746 -0.000796083 0.824686)
(1.29631 0.00158787 0.817317)
(1.32242 0.00244826 0.835616)
(-2.20838 -0.00154445 -3.07804)
(-2.20515 -0.000745621 -3.07686)
(-2.20702 0.000518418 -3.07752)
(-2.20584 -0.000314808 -3.07702)
(-2.20372 0.000333588 -3.07648)
(-2.20913 0.000317456 -3.07769)
(-4.24826 -0.00196563 -7.46645)
(-4.24319 -0.00110356 -7.46223)
(-4.2476 0.000734781 -7.46406)
(-4.24267 -0.00129236 -7.46465)
(-4.23506 0.00127913 -7.46379)
(-4.25617 0.00239968 -7.46395)
(-0.765949 0.000770673 -6.14693)
(-0.766371 0.00055255 -6.15521)
(-0.765933 -0.000193868 -6.15128)
(-0.766954 0.000352247 -6.15263)
(-0.76846 -0.000346774 -6.15849)
(-0.764406 -0.000663461 -6.14446)
(5.32348 -0.00109136 -2.40441)
(5.32323 -0.00234302 -2.4051)
(5.31979 0.000246585 -2.40356)
(5.32447 -0.00294707 -2.40432)
(5.32708 0.00231169 -2.40017)
(5.30695 0.00627508 -2.4051)
(6.06119 -0.000900788 -3.26521)
(5.9916 -0.00682932 -3.32712)
(5.98435 0.0107919 -3.32175)
(6.10013 0.00964356 -3.25828)
(6.1137 0.0218461 -3.27133)
(5.99361 0.0266951 -3.29713)
(1.53259 -0.00155247 -4.94235)
(1.46511 -0.0011769 -5.04308)
(1.45982 0.0116039 -5.04888)
(1.58193 0.011321 -4.92803)
(1.61031 -0.0089297 -4.9359)
(1.44509 -0.0077906 -5.09425)
(3.50953 -0.000574395 -1.60264)
(3.51004 -0.000551483 -1.60337)
(3.50933 -0.000987302 -1.60277)
(3.5071 -0.00414653 -1.60236)
(3.50438 0.00446493 -1.59972)
(3.51067 0.00704957 -1.60384)
(3.80394 -0.00402289 -2.37234)
(3.82018 -0.00443511 -2.36907)
(3.82644 0.00895913 -2.35777)
(3.78987 0.00903833 -2.39096)
(3.77562 0.00300135 -2.41764)
(3.86102 0.00365243 -2.31801)
(0.380366 -0.00644203 -4.00742)
(0.39045 -0.00647901 -3.98963)
(0.394176 0.0161569 -3.98078)
(0.380375 0.0198907 -4.03084)
(0.379816 -0.0168683 -4.05188)
(0.408677 -0.0210861 -3.94609)
(2.52194 -0.000180785 -1.03707)
(2.52177 -0.000387183 -1.03778)
(2.522 -9.32909e-05 -1.03776)
(2.52017 -0.000958798 -1.03592)
(2.5174 0.00124708 -1.03348)
(2.52464 0.00214646 -1.03845)
(3.82689 -0.00114701 -1.90949)
(3.82306 -0.000765966 -1.9106)
(3.8242 -0.0022352 -1.91021)
(3.82942 -0.0100361 -1.91139)
(3.829 0.0120634 -1.91532)
(3.82683 0.0197161 -1.90853)
(0.953248 0.000178161 -1.09999)
(0.943578 0.00161201 -1.1075)
(0.94489 0.000874133 -1.10239)
(0.959878 0.000267396 -1.11162)
(0.959146 0.00424934 -1.12299)
(0.944945 0.00335409 -1.09802)
(1.6311 3.37977e-05 -0.354018)
(1.63105 -0.000167925 -0.355026)
(1.63124 -5.39519e-05 -0.355103)
(1.6302 0.000211397 -0.352912)
(1.6288 -0.000211607 -0.349898)
(1.63188 -0.00018296 -0.357491)
(2.93077 -0.00243525 -2.28832)
(2.9313 -0.00202732 -2.2866)
(2.9305 -0.000995153 -2.28955)
(2.93142 -0.00889451 -2.28523)
(2.93185 0.00902258 -2.28158)
(2.93122 0.0167081 -2.2939)
(0.339465 -0.00125207 -4.12646)
(0.339664 -0.000930139 -4.13323)
(0.340763 0.00103682 -4.12324)
(0.339128 -0.000959871 -4.14808)
(0.337057 0.00162975 -4.18404)
(0.345327 0.00328943 -4.0919)
(0.878448 7.44701e-05 0.300669)
(0.878383 9.65739e-05 0.299415)
(0.878196 -8.06365e-05 0.299714)
(0.878382 0.00107731 0.300741)
(0.878651 -0.00138387 0.302565)
(0.877955 -0.00248725 0.298546)
(1.27964 -0.0025375 -2.35822)
(1.28062 -0.0016636 -2.35405)
(1.27951 -0.000478229 -2.35791)
(1.28024 -0.00703955 -2.35192)
(1.28001 0.00809022 -2.33827)
(1.27873 0.0139835 -2.37182)
(-0.191867 -0.000731779 -7.40313)
(-0.192228 -0.000507739 -7.41359)
(-0.191899 -0.00013417 -7.40397)
(-0.191793 -0.00238407 -7.41952)
(-0.192114 0.00386562 -7.44817)
(-0.191694 0.00590784 -7.37271)
(0.147046 -0.000573348 0.267865)
(0.14762 -0.000127431 0.267034)
(0.147347 1.80522e-05 0.2674)
(0.147393 -7.959e-06 0.267645)
(0.1483 0.00016112 0.267086)
(0.14606 -0.000290645 0.26798)
(-2.29623 -0.00323547 -4.26358)
(-2.29532 -0.00216363 -4.26363)
(-2.29624 0.000222033 -4.2631)
(-2.29474 -0.00675586 -4.26301)
(-2.29163 0.00739217 -4.25879)
(-2.29962 0.0135198 -4.26653)
(-0.708853 -0.00071882 -4.62314)
(-0.708984 -0.000603632 -4.63482)
(-0.709231 -1.78014e-05 -4.62542)
(-0.709247 -0.00154317 -4.6345)
(-0.710275 0.00190599 -4.64985)
(-0.707275 0.00330914 -4.60889)
(0.0691148 3.33963e-07 0.962726)
(0.0691175 7.77408e-07 0.962755)
(0.0691176 1.80436e-06 0.962755)
(0.0691175 1.54158e-06 0.962755)
(0.0691173 1.73338e-06 0.962754)
(0.0691146 5.42622e-07 0.962725)
(0.0431384 5.20743e-07 1.06609)
(0.0431403 8.28469e-07 1.06613)
(0.0431404 1.24116e-06 1.06613)
(0.0431404 8.34985e-07 1.06613)
(0.0431404 6.74917e-07 1.06612)
(0.0431387 -4.20733e-08 1.06609)
(0.0155916 2.31007e-07 1.13366)
(0.0155925 3.54017e-07 1.13369)
(0.0155925 5.72129e-07 1.13369)
(0.0155925 3.85123e-07 1.13369)
(0.0155924 7.06364e-08 1.13369)
(0.0155916 -2.26253e-07 1.13366)
(0.208545 3.3891e-07 1.01674)
(0.208554 1.44009e-06 1.01677)
(0.208554 2.2269e-06 1.01677)