/*--------------------------------*- C++ -*----------------------------------*\
| =========                 |                                                 |
| \\      /  F ield         | OpenFOAM: The Open Source CFD Toolbox           |
|  \\    /   O peration     | Version:  v1612+                                |
|   \\  /    A nd           | Web:      www.OpenFOAM.com                      |
|    \\/     M anipulation  |                                                 |
\*---------------------------------------------------------------------------*/
FoamFile
{
    version     2.0;
    format      ascii;
    class       surfaceScalarField;
    location    "3.75";
    object      alphaPhi;
}
// * * * * * * * * * * * * * * * * * * * * * * * * * * * * * * * * * * * * * //

dimensions      [0 3 -1 0 0 0 0];

internalField   nonuniform List<scalar> 
816
(
-2.64904e-06
-6.69372e-06
6.13458e-06
-1.25443e-07
-2.91748e-06
6.23978e-06
3.96421e-07
4.4922e-06
1.79872e-06
6.62886e-06
-1.58393e-05
-7.57049e-07
3.39813e-06
3.39017e-06
9.06704e-06
-2.17503e-05
6.53268e-07
3.60109e-06
4.33386e-06
-8.88466e-06
2.48075e-09
3.2031e-10
-6.48466e-06
9.667e-10
-2.80083e-10
3.78842e-09
1.23658e-06
1.75654e-09
-4.16603e-10
3.05446e-10
5.16712e-06
6.73503e-10
4.45092e-09
4.68817e-10
-6.86748e-06
1.88668e-09
-2.01775e-09
-9.39244e-10
-2.75945e-07
2.2155e-09
-3.28365e-09
-1.31595e-09
1.1233e-06
2.12006e-09
1.6062e-10
-2.90108e-09
4.69054e-05
-1.37868e-09
8.71068e-10
-1.27094e-09
1.6694e-06
-1.49593e-10
4.33938e-10
1.78204e-09
8.3324e-07
5.39024e-10
1.30961e-09
4.40125e-09
-2.19274e-06
-4.27737e-10
2.45998e-09
2.66539e-09
4.23001e-07
6.95454e-10
-4.39553e-10
-5.00915e-06
2.76884e-09
-7.38364e-11
-1.36578e-06
8.40807e-06
-2.02489e-05
1.37221e-06
3.56912e-06
6.80048e-06
-1.28932e-05
7.92448e-06
3.68266e-06
4.21572e-06
1.06063e-07
7.6949e-06
1.29e-05
-8.58011e-07
2.60243e-06
-6.03782e-06
-2.29363e-06
-3.7876e-06
8.81578e-06
-2.14524e-06
-4.15577e-06
-2.06421e-06
-9.68144e-06
1.04158e-05
5.48009e-06
-4.2669e-06
5.50338e-08
-1.75199e-06
6.12833e-06
-3.61995e-06
5.40961e-06
-6.21253e-06
4.34219e-06
5.24017e-06
-1.66237e-05
2.99858e-06
8.17926e-06
1.2269e-05
-1.01931e-05
-1.50078e-06
4.05802e-06
1.13436e-05
2.74511e-06
1.11679e-06
-1.04373e-06
3.39848e-06
9.37507e-06
3.94873e-07
-1.82232e-06
-3.92315e-06
-9.89189e-06
1.52982e-06
-4.08787e-06
-6.55788e-06
6.08138e-07
-1.43235e-06
4.74521e-07
4.29227e-07
-3.45224e-06
3.53061e-07
1.10874e-06
1.58387e-06
2.42716e-06
5.02477e-06
2.45167e-06
-2.53058e-06
-4.6984e-06
1.68105e-06
-1.74138e-06
-1.0855e-06
8.76816e-07
6.6433e-07
7.45121e-07
2.1985e-06
4.84056e-06
-8.79943e-07
-8.08539e-06
-1.75841e-06
-5.05203e-06
-3.83161e-06
-4.6515e-06
8.87187e-07
-1.74045e-06
1.18199e-06
-6.61831e-07
2.60047e-06
-2.80583e-06
-2.08852e-06
-1.48435e-06
-3.86511e-06
3.7139e-06
-8.13627e-07
-4.36205e-07
-7.13456e-07
3.18072e-06
4.49736e-07
2.38773e-06
-7.3199e-07
1.95933e-06
1.48751e-06
2.53009e-06
-5.89191e-08
1.29549e-06
1.83735e-06
-4.26084e-07
-3.72623e-06
9.42904e-07
-3.01899e-06
-3.01575e-06
2.75265e-07
-1.14199e-06
-1.17769e-06
4.92352e-07
-2.0059e-06
1.82029e-07
1.33212e-07
2.05658e-07
2.23226e-08
2.04067e-06
1.71253e-06
1.37932e-06
-1.76614e-06
1.22385e-06
-5.78992e-07
-1.45065e-06
-2.17091e-07
4.21356e-07
3.52553e-07
5.09124e-07
2.71424e-06
6.5858e-07
-3.63027e-07
-1.47151e-06
-3.77345e-06
-1.98412e-06
-2.47337e-06
-1.11713e-07
-9.43707e-07
-1.36588e-06
-9.9099e-07
2.23446e-07
-1.46634e-06
-1.58365e-06
6.35126e-07
-1.02897e-09
-1.37741e-09
-2.8301e-06
1.31439e-09
4.2952e-10
-3.42611e-06
4.7958e-11
1.68972e-09
2.49553e-06
2.85245e-09
1.50599e-09
-9.21788e-08
1.78565e-09
5.98672e-10
-3.36346e-06
2.47111e-10
-4.23421e-10
-6.85768e-11
-8.09586e-07
7.42046e-10
-5.59555e-10
-3.35306e-06
-5.09059e-10
-3.80111e-09
2.68535e-11
-1.19726e-09
-6.75795e-10
-0.000152782
7.27316e-10
-3.40386e-09
-9.45047e-07
1.92798e-09
-7.53793e-10
-1.97097e-09
-1.08333e-05
1.99637e-10
-4.31739e-09
2.33725e-11
-2.73826e-09
-1.8321e-09
-3.45545e-06
5.09371e-10
-1.32649e-09
1.3842e-06
-7.28959e-11
1.51271e-09
7.99087e-07
-4.47415e-10
-1.61259e-09
1.02876e-09
-2.55898e-06
5.7759e-10
1.11717e-09
-1.6849e-06
-1.63956e-09
3.23876e-10
-1.43729e-06
-9.60293e-11
-5.96834e-10
-1.47576e-06
-5.65823e-10
-7.82001e-06
-1.4502e-09
-2.16177e-09
-5.33021e-06
-8.04481e-06
1.26498e-05
2.18451e-06
-1.82173e-06
-9.33367e-06
-2.8929e-06
2.77695e-06
-6.8875e-06
1.29048e-05
-2.1643e-06
-3.9835e-07
1.21758e-05
2.48666e-06
9.58954e-06
-5.37738e-06
-1.45894e-05
-1.43654e-07
1.53218e-05
9.03772e-07
8.53777e-07
7.95208e-06
-1.91067e-05
-6.82284e-06
2.90309e-05
-1.93556e-05
-1.11628e-05
4.26019e-06
-1.24557e-06
-3.49334e-06
-2.18183e-05
1.05147e-05
-6.53939e-06
-3.16884e-06
1.75899e-06
-6.24456e-07
-1.1123e-05
1.48556e-05
-7.69857e-06
-1.67217e-06
-1.74399e-05
-2.72286e-06
3.35206e-07
7.83546e-06
-4.11792e-06
5.48852e-06
4.68814e-06
5.98126e-07
-1.28719e-06
5.79197e-06
4.17421e-06
4.10128e-06
3.57189e-06
1.07355e-05
-1.17171e-05
-1.38332e-06
1.41213e-05
-8.53376e-06
-4.36209e-06
2.77228e-06
-7.58359e-06
3.47047e-07
-5.18528e-06
-1.27997e-05
2.56716e-06
2.17378e-06
6.91376e-06
-1.87065e-06
-3.23529e-07
-4.59157e-06
-3.8979e-07
-9.01239e-07
-3.23554e-06
-2.41455e-06
1.15881e-06
-8.87259e-07
-1.16439e-06
-4.40486e-06
4.14469e-06
5.61377e-06
5.37977e-06
-1.23971e-06
6.8435e-06
1.83849e-06
6.66216e-07
4.27957e-06
3.35457e-06
8.20384e-06
1.32008e-05
1.08441e-05
8.90917e-06
1.48022e-06
4.00511e-06
-4.87275e-06
-1.00847e-05
-3.34899e-06
5.3487e-06
-2.77822e-06
4.98307e-07
-2.41722e-06
2.536e-06
6.79938e-06
3.29117e-06
-1.70652e-06
-8.20347e-06
-1.27913e-07
-1.63953e-06
3.25297e-06
2.73633e-06
-3.0428e-06
2.29185e-06
3.79067e-06
3.18398e-08
-1.54366e-06
2.8837e-06
-5.23434e-06
1.91777e-06
4.86428e-06
3.27503e-06
4.62628e-06
7.49738e-06
3.2293e-06
3.50432e-06
1.65322e-06
9.99777e-08
-1.75039e-07
2.08471e-06
4.1766e-06
2.20012e-06
1.81873e-06
1.84258e-06
-3.88229e-07
4.28928e-07
-1.67006e-06
-2.39654e-07
-7.08201e-07
-1.06246e-07
-1.75522e-06
4.41726e-07
-4.00634e-07
-1.17419e-06
-2.89346e-06
9.83036e-07
3.19372e-06
3.28462e-06
-1.12779e-06
2.35272e-06
6.83069e-07
3.21001e-07
1.79725e-06
1.20924e-06
5.00999e-06
3.72963e-06
6.41675e-06
5.00352e-06
3.44945e-07
2.31358e-06
-2.76098e-06
-2.71133e-06
-2.38058e-06
2.73084e-06
-1.86403e-06
4.67256e-07
-1.48546e-06
1.55136e-06
2.14583e-06
1.65558e-06
-1.3843e-06
-1.88996e-06
-6.40158e-07
-1.37944e-06
1.06495e-06
6.47055e-07
-1.84954e-06
6.24252e-07
2.14464e-06
-5.91205e-09
-8.46345e-07
1.57854e-06
-3.46349e-06
7.51436e-07
1.68511e-06
1.4544e-06
3.28955e-06
2.20349e-06
1.75522e-06
2.94569e-06
3.11387e-07
1.03945e-07
-3.35699e-07
1.94177e-06
2.9753e-06
-4.61204e-07
-1.82061e-06
2.06258e-06
-2.25058e-07
-3.01737e-08
1.0378e-06
8.75339e-07
-2.88575e-07
6.42664e-07
3.35238e-07
4.64686e-07
1.0542e-06
-5.037e-07
-1.5206e-06
1.03954e-06
-8.26949e-07
1.79916e-07
-6.6905e-07
6.26689e-07
-6.31936e-07
-1.82503e-07
3.60748e-07
7.4751e-07
9.01229e-07
-1.34501e-06
9.26714e-07
-2.89043e-07
-4.38441e-07
5.09416e-07
-1.64747e-07
1.0173e-06
-3.10781e-07
-1.30496e-07
-1.7169e-06
-8.13287e-07
-1.02161e-07
-3.91431e-07
-4.48633e-07
-6.77844e-07
-6.08545e-07
7.91043e-07
7.8949e-07
-4.18391e-07
-9.78044e-08
2.37797e-07
2.72502e-07
-2.96393e-07
5.19332e-07
-3.22893e-08
-1.48705e-06
1.33943e-06
1.633e-06
-4.86941e-07
6.74116e-07
4.02199e-07
1.22641e-06
2.46044e-06
2.53583e-06
2.26497e-06
1.43097e-06
-1.70386e-06
-2.76679e-07
1.50289e-06
-1.19187e-06
-3.65246e-07
3.69774e-07
1.10464e-06
-5.98798e-07
8.54202e-08
-5.36198e-07
8.04821e-07
-1.16122e-06
1.18455e-06
4.11126e-08
-1.491e-07
-1.10858e-06
8.07449e-07
6.16835e-07
1.92615e-06
6.18908e-07
1.55442e-06
4.00075e-08
8.92164e-07
1.14315e-06
2.97437e-09
-3.36183e-09
6.90132e-07
4.31696e-10
5.93334e-11
2.34855e-09
3.99916e-06
1.78704e-09
-5.09255e-06
8.688e-10
-1.01215e-05
-4.71746e-10
-6.2548e-06
-1.30032e-10
3.19568e-06
5.45075e-10
-9.09737e-07
-6.21683e-10
-5.98406e-06
-9.7683e-10
8.03447e-06
4.57367e-10
2.98703e-06
3.09754e-09
-5.04363e-06
5.98777e-10
-1.31851e-06
-2.26132e-09
1.0751e-06
-3.38181e-09
-4.76124e-06
-3.63416e-09
3.57086e-06
-1.54905e-09
2.14518e-06
-8.07621e-10
2.01998e-06
-1.0323e-09
-1.56377e-06
-1.49357e-09
-6.46208e-07
1.31071e-09
-2.27526e-05
1.42785e-09
1.21145e-06
8.81387e-10
2.13092e-10
2.77728e-09
4.21797e-06
1.02037e-09
-4.36641e-07
-6.13231e-10
4.27679e-06
-1.41135e-09
4.25588e-06
-1.148e-05
3.32827e-06
-1.51738e-06
-4.14815e-06
-4.91395e-07
1.25526e-05
1.06265e-05
-7.22905e-06
2.66999e-06
9.02085e-06
-1.31387e-05
9.9083e-06
-1.79065e-05
-1.13273e-05
6.77844e-06
-1.26793e-05
5.26937e-06
-1.37282e-05
-1.14726e-05
8.18426e-06
-1.25191e-06
1.68454e-06
1.61805e-05
-3.09242e-05
1.85378e-05
-1.62201e-05
-8.02195e-08
1.38963e-05
-7.45832e-06
5.51139e-06
-7.27539e-06
-2.33201e-05
-4.10857e-06
9.8127e-06
-5.51783e-06
7.47823e-07
-2.53185e-07
3.82877e-07
4.46175e-06
-5.24641e-06
1.68134e-09
-3.67664e-06
3.36355e-06
-1.82657e-05
-1.02268e-06
8.77158e-06
-6.36878e-06
2.42193e-05
4.23585e-06
-9.82746e-06
3.63376e-06
-8.7099e-06
2.59416e-06
5.50535e-06
7.17268e-06
-1.16087e-05
-1.01208e-05
-2.76264e-06
3.17004e-06
-2.45391e-06
1.89372e-06
5.95552e-06
-1.95512e-06
-3.73676e-06
6.31662e-07
4.0468e-06
4.40299e-06
4.92276e-06
3.39141e-06
-4.72371e-06
-2.7051e-06
-6.54118e-06
-3.79012e-06
-7.253e-06
2.02101e-06
4.18153e-06
5.07354e-06
1.9863e-06
-1.33215e-06
-1.37036e-05
-5.36874e-06
-8.20317e-06
-1.31076e-06
6.43519e-06
2.21649e-06
1.97065e-06
-5.47267e-06
-1.03434e-05
-2.1949e-06
4.13818e-06
1.37676e-06
3.81715e-07
1.26819e-06
3.75192e-07
5.69872e-07
-1.78259e-06
2.4695e-06
-1.82468e-06
-8.26218e-06
-7.49053e-06
-2.86006e-06
3.39691e-06
4.9018e-06
1.12037e-05
2.2561e-06
-3.88821e-06
1.22345e-07
-3.3899e-06
2.68784e-06
3.04948e-06
1.30899e-06
-6.02536e-06
-5.53716e-06
-2.0602e-06
2.38172e-06
-8.53346e-07
1.18436e-06
2.2629e-06
-1.24714e-06
-1.54271e-06
-7.63629e-08
1.13077e-06
2.87802e-06
8.15452e-07
2.59237e-06
-1.24934e-06
-1.91783e-06
-2.06155e-06
-3.56813e-06
-2.35425e-06
4.34838e-07
8.71007e-07
3.76614e-06
-1.33295e-07
-2.82801e-07
-3.29837e-06
-3.47785e-06
-2.75689e-06
-6.16027e-07
1.17084e-06
1.20346e-06
1.29629e-07
-3.15726e-06
-3.28282e-06
-1.64986e-06
1.17289e-06
4.48544e-07
-5.82721e-08
3.07064e-07
-1.22134e-07
1.88575e-07
-9.98715e-07
9.7604e-07
-5.66572e-07
-4.2468e-06
-2.24045e-06
-1.71099e-06
8.93651e-07
2.91202e-06
3.10206e-06
1.45353e-06
-9.79981e-07
5.02856e-07
-6.93736e-07
2.94761e-06
7.07362e-07
1.56435e-06
-1.81706e-06
-1.56161e-06
-9.08381e-07
9.34519e-07
8.74454e-07
-4.51863e-07
3.68774e-07
1.15019e-06
1.26418e-06
-7.80002e-07
-1.52284e-06
3.74099e-08
1.13859e-06
3.62975e-07
-9.86885e-07
-1.1209e-07
-2.22079e-10
-1.82497e-06
-1.00195e-06
3.08768e-08
1.32885e-08
-1.62645e-07
3.81858e-07
-1.9173e-06
-9.61283e-07
1.03011e-06
6.61327e-07
5.75474e-07
1.34505e-06
5.99264e-07
2.15291e-09
3.81889e-10
-3.8413e-06
-9.64355e-10
1.89498e-06
3.92604e-09
7.13048e-06
-7.95691e-06
4.11411e-06
2.11363e-06
-1.39971e-06
8.14041e-06
)
;

boundaryField
{
    top_fluid_surface
    {
        type            calculated;
        value           nonuniform List<scalar> 
64
(
0
0
0
3.52621e-10
2.00896e-09
0
0
0
0
0
4.40078e-10
4.59834e-10
3.08332e-09
0
0
0
1.05815e-09
2.94776e-09
2.62127e-09
3.84172e-09
4.61153e-10
6.13296e-10
1.15913e-10
2.24294e-09
0
0
0
8.44401e-10
9.34574e-10
1.48701e-09
1.40963e-09
1.53393e-09
0
2.89057e-09
0
2.71507e-09
2.72251e-09
1.69548e-09
0
0
2.13773e-09
0
0
0
3.36004e-09
2.44038e-09
5.5874e-10
0
0
0
5.13709e-11
0
0
0
5.62009e-10
0
1.18034e-09
7.44902e-10
0
0
0
3.06356e-10
0
1.94544e-09
)
;
    }
    bottom_fluid_surface
    {
        type            calculated;
        value           uniform 0;
    }
    lateral_surface_1
    {
        type            calculated;
        value           uniform 0;
    }
    lateral_surface_2
    {
        type            calculated;
        value           uniform 0;
    }
    lateral_surface_3
    {
        type            calculated;
        value           uniform 0;
    }
    lateral_surface_4
    {
        type            calculated;
        value           uniform 0;
    }
}


// ************************************************************************* //
