/*--------------------------------*- C++ -*----------------------------------*\
| =========                 |                                                 |
| \\      /  F ield         | OpenFOAM: The Open Source CFD Toolbox           |
|  \\    /   O peration     | Version:  v1612+                                |
|   \\  /    A nd           | Web:      www.OpenFOAM.com                      |
|    \\/     M anipulation  |                                                 |
\*---------------------------------------------------------------------------*/
FoamFile
{
    version     2.0;
    format      ascii;
    class       volScalarField;
    location    "3.75";
    object      p;
}
// * * * * * * * * * * * * * * * * * * * * * * * * * * * * * * * * * * * * * //

dimensions      [1 -1 -2 0 0 0 0];

internalField   nonuniform List<scalar> 
320
(
14724.8
14724.8
14724.8
14724.8
4.9513
4.95056
4.95024
4.95068
4.95036
4.95221
4.9591
4.94902
4.95009
4.95043
4.95054
4.95086
4914.87
4914.88
4914.87
4914.82
4914.79
4914.84
4914.88
4914.87
4914.88
4914.87
4914.84
4914.79
14724.8
14724.8
14724.8
14724.8
14724.8
14724.8
14724.8
14724.8
14724.8
14724.8
14724.8
14724.8
24534.8
24534.8
24534.8
24534.8
24534.8
24534.8
24534.8
24534.8
24534.8
24534.8
24534.8
24534.8
24534.8
24534.8
24534.8
24534.8
4.95133
4.95183
4.9519
4.95121
4.95083
4.95021
4.95052
4.95024
4.95032
4.95323
4.95068
4.95058
4.95045
4.95096
4.95042
4.95016
4.9505
4.95046
4.95138
4.95081
4914.8
4914.85
4914.87
4914.85
4914.83
4914.82
4914.8
4914.8
4914.78
4914.82
4914.83
4914.83
4914.86
4914.88
4914.86
4914.83
4914.84
4914.8
4914.79
4914.83
14724.8
14724.8
14724.8
14724.8
14724.8
14724.8
14724.8
14724.8
14724.8
14724.8
14724.8
14724.8
14724.8
14724.8
14724.8
14724.8
14724.8
14724.8
14724.8
14724.8
24534.8
24534.8
24534.8
24534.8
24534.8
24534.8
24534.8
24534.8
24534.8
24534.8
24534.8
24534.8
24534.8
24534.8
24534.8
24534.8
24534.8
24534.8
24534.8
24534.8
34344.8
34344.8
34344.8
34344.8
34344.8
34344.8
34344.8
34344.8
34344.8
34344.8
34344.8
34344.8
34344.8
34344.8
34344.8
34344.8
34344.8
34344.8
34344.8
34344.8
34344.8
34344.8
34344.8
34344.8
34344.8
34344.8
34344.8
34344.8
34344.8
34344.8
34344.8
34344.8
34344.8
34344.8
34344.8
34344.8
4.95163
4.95155
4.95214
4.95132
4.95147
4.95087
4.9505
4.9504
4.95021
4.95027
4.95129
4.95397
4.95305
4.95275
4.95249
4.95228
4.95098
4.95068
4.9507
4.95251
4.95038
4.95154
4.95084
4.95062
4.95016
4.95121
4.95226
4.95176
4914.87
4914.81
4914.86
4914.83
4914.8
4914.8
4914.84
4914.86
4914.81
4914.83
4914.85
4914.87
4914.8
4914.82
4914.8
4914.87
4914.89
4914.86
4914.8
4914.86
4914.84
4914.88
4914.84
4914.86
4914.81
4914.81
4914.88
4914.89
14724.8
14724.8
14724.8
14724.8
14724.8
14724.8
14724.8
14724.8
14724.8
14724.8
14724.8
14724.8
14724.8
14724.8
14724.8
14724.8
14724.8
14724.8
14724.8
14724.8
14724.8
14724.8
14724.8
14724.8
14724.8
14724.8
14724.8
14724.8
24534.8
24534.8
24534.8
24534.8
24534.8
24534.8
24534.8
24534.8
24534.8
24534.8
24534.8
24534.8
24534.8
24534.8
24534.8
24534.8
24534.8
24534.8
24534.8
24534.8
24534.8
24534.8
24534.8
24534.8
24534.8
24534.8
24534.8
24534.8
34344.8
34344.8
34344.8
34344.8
34344.8
34344.8
34344.8
34344.8
34344.8
34344.8
34344.8
34344.8
34344.8
34344.8
34344.8
34344.8
34344.8
34344.8
34344.8
34344.8
34344.8
34344.8
34344.8
34344.8
34344.8
34344.8
34344.8
34344.8
4.95057
4.95003
4.95067
4.9473
4914.86
4914.84
4914.89
4914.82
)
;

boundaryField
{
    top_fluid_surface
    {
        type            calculated;
        value           nonuniform List<scalar> 
64
(
-1.17993e-08
-1.14589e-08
-6.9222e-09
0
0
-4.52931e-09
-3.93251e-09
-2.00519e-09
-2.77264e-08
-2.10268e-08
0
0
0
-3.33701e-10
-8.91957e-09
-1.37496e-09
0
0
0
0
0
0
-3.45392e-12
0
-9.48704e-09
-5.01188e-11
-9.39872e-10
0
0
0
0
0
-3.61522e-09
0
-6.02325e-09
0
0
0
-1.22239e-09
-1.93029e-09
0
-2.97167e-09
-1.26036e-08
-4.43832e-09
0
0
0
-5.53354e-10
-2.21253e-08
-3.87178e-10
0
-1.45082e-11
-4.75288e-09
-5.43733e-09
0
-1.71879e-08
0
0
-6.21599e-09
-1.62693e-08
-1.08711e-08
0
-5.05524e-09
0
)
;
    }
    bottom_fluid_surface
    {
        type            calculated;
        value           nonuniform List<scalar> 
64
(
39249.8
39249.8
39249.8
39249.8
39249.8
39249.8
39249.8
39249.8
39249.8
39249.8
39249.8
39249.8
39249.8
39249.8
39249.8
39249.8
39249.8
39249.8
39249.8
39249.8
39249.8
39249.8
39249.8
39249.8
39249.8
39249.8
39249.8
39249.8
39249.8
39249.8
39249.8
39249.8
39249.8
39249.8
39249.8
39249.8
39249.8
39249.8
39249.8
39249.8
39249.8
39249.8
39249.8
39249.8
39249.8
39249.8
39249.8
39249.8
39249.8
39249.8
39249.8
39249.8
39249.8
39249.8
39249.8
39249.8
39249.8
39249.8
39249.8
39249.8
39249.8
39249.8
39249.8
39249.8
)
;
    }
    lateral_surface_1
    {
        type            calculated;
        value           nonuniform List<scalar> 
40
(
4.95163
4.95155
4.95214
4.95132
4.95147
4.95087
4.9505
4.95176
4914.87
4914.81
4914.86
4914.83
4914.8
4914.8
4914.84
4914.89
14724.8
14724.8
14724.8
14724.8
14724.8
14724.8
14724.8
14724.8
24534.8
24534.8
24534.8
24534.8
24534.8
24534.8
24534.8
24534.8
34344.8
34344.8
34344.8
34344.8
34344.8
34344.8
34344.8
34344.8
)
;
    }
    lateral_surface_2
    {
        type            calculated;
        value           nonuniform List<scalar> 
40
(
4.95275
4.95249
4.95228
4.95098
4.95068
4.9507
4.95251
4.95038
4914.82
4914.8
4914.87
4914.89
4914.86
4914.8
4914.86
4914.84
14724.8
14724.8
14724.8
14724.8
14724.8
14724.8
14724.8
14724.8
24534.8
24534.8
24534.8
24534.8
24534.8
24534.8
24534.8
24534.8
34344.8
34344.8
34344.8
34344.8
34344.8
34344.8
34344.8
34344.8
)
;
    }
    lateral_surface_3
    {
        type            calculated;
        value           nonuniform List<scalar> 
40
(
4.9505
4.9504
4.95021
4.95027
4.95129
4.95397
4.95305
4.95275
4914.84
4914.86
4914.81
4914.83
4914.85
4914.87
4914.8
4914.82
14724.8
14724.8
14724.8
14724.8
14724.8
14724.8
14724.8
14724.8
24534.8
24534.8
24534.8
24534.8
24534.8
24534.8
24534.8
24534.8
34344.8
34344.8
34344.8
34344.8
34344.8
34344.8
34344.8
34344.8
)
;
    }
    lateral_surface_4
    {
        type            calculated;
        value           nonuniform List<scalar> 
40
(
4.95038
4.95154
4.95084
4.95062
4.95016
4.95121
4.95226
4.95176
4914.84
4914.88
4914.84
4914.86
4914.81
4914.81
4914.88
4914.89
14724.8
14724.8
14724.8
14724.8
14724.8
14724.8
14724.8
14724.8
24534.8
24534.8
24534.8
24534.8
24534.8
24534.8
24534.8
24534.8
34344.8
34344.8
34344.8
34344.8
34344.8
34344.8
34344.8
34344.8
)
;
    }
}


// ************************************************************************* //
