/*--------------------------------*- C++ -*----------------------------------*\
| =========                 |                                                 |
| \\      /  F ield         | OpenFOAM: The Open Source CFD Toolbox           |
|  \\    /   O peration     | Version:  v1612+                                |
|   \\  /    A nd           | Web:      www.OpenFOAM.com                      |
|    \\/     M anipulation  |                                                 |
\*---------------------------------------------------------------------------*/
FoamFile
{
    version     2.0;
    format      ascii;
    class       volScalarField;
    location    "4.6";
    object      alpha.water;
}
// * * * * * * * * * * * * * * * * * * * * * * * * * * * * * * * * * * * * * //

dimensions      [0 0 0 0 0 0 0];

internalField   nonuniform List<scalar> 
320
(
1
1
1
1
1.1194e-05
1.18367e-05
1.28292e-05
1.13884e-05
1.22284e-05
1.20597e-05
1.14886e-05
1.06191e-05
1.16395e-05
1.1538e-05
9.57561e-06
1.20883e-05
0.999985
0.999989
0.99999
0.999988
0.999985
0.999985
0.999984
0.999991
0.999985
0.999984
0.999994
0.999985
1
1
1
1
1
1
1
1
1
1
1
1
1
1
1
1
1
1
1
1
1
1
1
1
1
1
1
1
1.24096e-05
1.29304e-05
1.18573e-05
1.18618e-05
1.03163e-05
9.09077e-06
1.13184e-05
9.78472e-06
1.20097e-05
1.19188e-05
1.10342e-05
9.47616e-06
1.15215e-05
9.23516e-06
1.08883e-05
9.06687e-06
8.93429e-06
1.17022e-05
1.2517e-05
1.07312e-05
0.999988
0.999986
0.999989
0.999987
0.999994
0.999997
0.999994
0.999997
0.999986
0.99999
0.999994
0.999994
0.999982
0.999993
0.999991
0.999993
0.999994
0.99999
0.999987
0.999995
1
1
1
1
1
1
1
1
1
1
1
1
1
1
1
1
1
1
1
1
1
1
1
1
1
1
1
1
1
1
1
1
1
1
1
1
1
1
1
1
1
1
1
1
1
1
1
1
1
1
1
1
1
1
1
1
1
1
1
1
1
1
1
1
1
1
1
1
1
1
1
1
1
1
1
1
1.14207e-05
1.23265e-05
1.35048e-05
1.01851e-05
1.04064e-05
1.06955e-05
1.42773e-05
1.1904e-05
1.0157e-05
1.58674e-05
1.44585e-05
1.11234e-05
1.1875e-05
1.11706e-05
1.24851e-05
1.21485e-05
1.14985e-05
1.07783e-05
1.11528e-05
1.13595e-05
1.1847e-05
1.06247e-05
1.0599e-05
1.22231e-05
1.09269e-05
1.26199e-05
1.20471e-05
1.0383e-05
0.999986
0.999996
0.999988
0.999992
0.999988
0.999988
0.999984
0.999985
0.999993
0.999983
0.999986
0.999987
0.999988
0.999994
0.999988
0.999987
0.999982
0.999985
0.999986
0.999985
0.999982
0.99999
0.999991
0.999985
0.99999
0.999991
0.999985
0.999984
1
1
1
1
1
1
1
1
1
1
1
1
1
1
1
1
1
1
1
1
1
1
1
1
1
1
1
1
1
1
1
1
1
1
1
1
1
1
1
1
1
1
1
1
1
1
1
1
1
1
1
1
1
1
1
1
1
1
1
1
1
1
1
1
1
1
1
1
1
1
1
1
1
1
1
1
1
1
1
1
1
1
1
1
1.31589e-05
9.37539e-06
1.14377e-05
9.12936e-06
0.999981
0.999992
0.999988
0.999993
)
;

boundaryField
{
    top_fluid_surface
    {
        type            inletOutlet;
        inletValue      uniform 0;
        value           nonuniform List<scalar> 
64
(
1.1194e-05
1.18367e-05
0
1.13884e-05
0
0
0
1.06191e-05
0
1.1538e-05
9.57561e-06
0
0
0
0
0
1.03163e-05
9.09077e-06
1.13184e-05
9.78472e-06
0
0
1.10342e-05
9.47616e-06
0
9.23516e-06
1.08883e-05
9.06687e-06
8.93429e-06
0
0
1.07312e-05
0
0
0
1.01851e-05
1.04064e-05
1.06955e-05
0
0
1.0157e-05
0
0
1.11234e-05
0
0
0
0
0
1.07783e-05
0
0
0
1.06247e-05
1.0599e-05
0
1.09269e-05
0
0
1.0383e-05
0
9.37539e-06
1.14377e-05
9.12936e-06
)
;
    }
    bottom_fluid_surface
    {
        type            zeroGradient;
    }
    lateral_surface_1
    {
        type            zeroGradient;
    }
    lateral_surface_2
    {
        type            zeroGradient;
    }
    lateral_surface_3
    {
        type            zeroGradient;
    }
    lateral_surface_4
    {
        type            zeroGradient;
    }
}


// ************************************************************************* //
