/*--------------------------------*- C++ -*----------------------------------*\
| =========                 |                                                 |
| \\      /  F ield         | OpenFOAM: The Open Source CFD Toolbox           |
|  \\    /   O peration     | Version:  v1612+                                |
|   \\  /    A nd           | Web:      www.OpenFOAM.com                      |
|    \\/     M anipulation  |                                                 |
\*---------------------------------------------------------------------------*/
FoamFile
{
    version     2.0;
    format      ascii;
    class       surfaceScalarField;
    location    "4.6";
    object      phi;
}
// * * * * * * * * * * * * * * * * * * * * * * * * * * * * * * * * * * * * * //

dimensions      [0 3 -1 0 0 0 0];

internalField   nonuniform List<scalar> 
816
(
-2.11603e-06
-5.03101e-06
4.06039e-06
-4.02505e-06
-5.14595e-06
1.22731e-05
9.3086e-07
4.67062e-06
2.155e-08
6.6348e-06
-1.43684e-05
-5.55735e-06
2.15561e-06
4.3543e-06
4.95425e-06
-1.09283e-05
-2.06583e-06
4.21082e-06
5.4321e-06
-1.21995e-05
0.000167453
-0.000182637
-5.75733e-06
-0.000234697
0.000194437
7.89312e-05
-1.34665e-05
-9.77776e-05
0.000220602
0.000113662
-1.88899e-06
-5.01658e-05
0.000227608
0.000102312
-6.5519e-06
-0.000298289
0.000240835
0.00013559
2.55019e-05
-7.52652e-05
0.0001765
0.000305766
2.06616e-05
-0.000184912
9.39331e-05
0.000202362
1.49671e-06
-5.49174e-05
0.00021749
0.000227681
-7.25184e-06
4.92058e-05
-0.000239427
-1.67488e-05
-4.44498e-06
7.95587e-05
0.000222713
-5.80047e-05
-1.47649e-05
-3.98521e-06
4.09962e-05
-0.000254437
3.81905e-06
5.26325e-05
-0.000199487
6.77743e-06
-0.000166393
-0.000119476
8.99338e-06
-3.0725e-06
-2.55945e-05
-3.02037e-06
8.00466e-06
1.10987e-05
-2.54335e-05
-7.08594e-07
6.22949e-06
3.51678e-06
-7.3164e-06
-3.00153e-06
1.33869e-05
-7.02044e-06
4.48792e-06
-3.73813e-06
-1.63261e-06
-4.61699e-06
9.10318e-06
1.45975e-06
-1.09923e-06
5.04011e-06
-1.436e-05
3.80002e-06
8.82607e-06
4.94254e-06
-9.04228e-06
-2.27448e-06
1.33638e-05
6.95439e-07
4.88563e-06
-1.44306e-05
6.48956e-06
5.83146e-06
-3.11856e-05
-1.07017e-06
1.13216e-05
6.41651e-06
-2.4228e-05
-3.75259e-06
7.04827e-06
1.07838e-06
9.69137e-06
3.68115e-07
-1.64733e-06
-1.93698e-06
8.37819e-06
2.6093e-07
-1.38255e-06
-6.0888e-06
-1.13336e-05
-2.73985e-06
-6.82779e-06
-1.14627e-05
-3.84827e-06
-1.00706e-06
-4.37984e-06
-2.19893e-06
-6.54103e-06
-5.22646e-07
1.77505e-06
2.24979e-06
8.04544e-07
4.09895e-06
1.64123e-06
6.82797e-08
-7.44333e-06
-2.07029e-06
-4.09786e-06
6.53223e-07
-4.53466e-06
-9.01657e-07
1.12927e-06
1.63779e-06
4.94754e-06
-2.15795e-06
-1.40866e-05
-5.94793e-06
-7.86878e-06
-1.02297e-05
-1.07295e-05
-1.09984e-06
-5.54824e-06
4.23344e-06
-3.24201e-06
-9.28573e-07
-8.34985e-06
-4.27793e-06
-9.22953e-07
-2.99348e-06
2.7157e-06
-2.38305e-06
-1.56048e-06
2.14002e-07
3.07644e-06
4.63661e-07
1.9566e-06
-2.58923e-06
1.43212e-06
2.09262e-06
1.02325e-06
-8.33112e-07
2.07955e-06
1.8093e-06
5.44343e-08
-3.77881e-06
-1.33246e-06
-3.54123e-06
-3.47379e-06
-2.1681e-06
-2.66885e-06
-1.06673e-06
-1.81523e-06
-3.85632e-06
-1.12434e-06
-2.56896e-07
1.80397e-06
-3.68196e-07
7.48258e-07
1.31644e-06
9.55013e-07
-3.10232e-07
-1.4387e-06
-2.55121e-06
-2.37209e-06
-1.63352e-07
-9.79084e-07
-1.58161e-06
3.0906e-07
2.69096e-06
-8.38608e-08
-9.7641e-07
-3.62634e-06
-4.89395e-06
-4.30661e-06
-5.47598e-06
-8.70613e-07
-3.26854e-06
-2.99912e-06
-1.70987e-06
1.10057e-06
-4.51007e-06
-2.85996e-06
-3.14654e-07
-0.000108397
8.57242e-05
2.79192e-05
-3.09734e-05
6.0508e-05
8.60421e-08
-0.000155852
-1.36886e-05
-6.85152e-06
4.27985e-05
-2.30363e-06
2.08044e-06
1.6155e-05
8.70253e-05
6.31216e-06
-0.000135233
-0.000189469
-0.000110009
-2.17512e-06
-8.53853e-05
-4.79227e-05
-2.38625e-07
-0.000437311
-0.000214171
1.26334e-05
-0.000391376
-0.000177662
0.000172672
-7.4775e-05
0.000200387
1.66014e-05
-0.000127081
-0.000167743
0.000237053
-1.06626e-07
-2.98534e-06
4.13431e-05
3.47747e-06
-0.000211344
0.000106407
1.81058e-06
3.95308e-05
-5.00646e-06
-2.4243e-06
-0.000178246
8.60782e-05
-1.97389e-06
-0.000113887
-3.97632e-05
-0.000182208
-2.08684e-06
1.03666e-05
-0.000473726
-1.74652e-06
-0.000190546
-0.000306726
9.60969e-06
-3.94813e-05
-9.75336e-05
1.07776e-05
-6.62622e-05
3.19513e-06
-6.23767e-05
-5.98316e-05
-2.88704e-06
-4.5986e-06
2.2474e-05
6.39015e-06
2.73623e-06
-5.58003e-06
-2.31811e-06
2.04e-06
-1.41774e-05
5.77709e-06
1.1705e-07
1.81183e-07
1.86404e-06
1.33344e-05
1.90987e-05
-1.60578e-05
-9.57619e-06
1.68345e-06
2.15615e-05
-3.18553e-06
-4.99381e-06
1.29773e-05
-1.26288e-05
-2.05581e-05
3.63188e-05
-2.16693e-05
-2.25155e-05
3.69313e-06
-5.07801e-06
8.5414e-06
-1.47891e-05
4.73482e-06
-1.25874e-05
-4.35872e-07
9.56651e-06
4.1686e-06
-1.196e-05
2.40055e-05
-9.70296e-06
2.38097e-06
-2.26876e-05
-5.84564e-07
3.69146e-06
1.36781e-05
-1.51014e-05
1.35825e-05
3.98595e-06
-1.43711e-05
-3.41356e-07
3.16471e-06
6.5076e-06
9.45922e-06
-9.78748e-06
1.7729e-05
-1.17582e-05
-1.02393e-05
1.81931e-05
-8.59542e-06
-3.86351e-06
5.81451e-06
-1.07073e-06
1.40506e-05
-5.28825e-06
-1.27697e-05
6.7082e-06
2.58895e-06
1.08118e-05
-5.9714e-06
2.51728e-06
-2.92646e-06
-1.19517e-06
-1.32634e-06
-6.08072e-06
-8.10206e-06
1.13533e-06
2.29074e-08
-4.51184e-06
-3.34855e-06
8.4455e-06
5.48811e-06
9.66311e-06
-4.18291e-07
9.77548e-06
2.29133e-06
6.55039e-07
5.2998e-06
8.84919e-06
8.03264e-06
1.62457e-05
1.43579e-05
5.62825e-06
2.10616e-06
1.98518e-06
-7.86101e-07
-6.91592e-06
-5.41086e-06
3.95034e-06
9.49441e-07
4.67389e-06
-9.57187e-07
7.35885e-06
1.08826e-05
5.83607e-06
-7.06472e-07
-1.01973e-05
4.68408e-07
-1.21875e-06
6.20086e-06
2.04477e-06
-3.58127e-06
1.63588e-06
2.78174e-06
1.92832e-06
-3.29689e-06
3.17617e-06
-4.83403e-06
-5.88753e-07
8.14596e-06
5.77658e-06
2.76152e-06
7.90866e-06
3.71953e-06
1.8809e-06
2.73246e-06
-2.70156e-07
6.61486e-06
3.72898e-06
8.18814e-06
4.39943e-06
7.9801e-07
3.75642e-06
-2.65412e-06
1.9622e-06
-9.833e-07
-8.44582e-07
-8.62235e-07
-5.032e-07
-4.91805e-06
8.52344e-07
-2.68634e-07
-3.22827e-06
-1.86115e-06
2.31324e-06
3.23829e-06
5.58576e-06
-2.78278e-07
3.15971e-06
1.17943e-06
-6.89446e-08
1.82818e-06
5.09218e-06
4.1972e-06
4.5588e-06
8.74078e-06
3.58365e-06
4.66622e-07
8.59614e-07
-8.24218e-07
-9.88746e-07
-3.7078e-06
2.1953e-06
2.02713e-07
1.73616e-06
-5.9062e-07
3.88289e-06
3.36514e-06
2.88423e-06
-1.01177e-06
-2.62057e-06
-1.6764e-08
-1.11265e-06
1.66602e-06
1.00212e-06
-1.93918e-06
5.24903e-07
1.19828e-06
7.31752e-07
-1.83826e-06
1.3634e-06
-3.18122e-06
-3.06436e-08
2.34564e-06
3.12637e-06
1.46358e-06
2.67517e-06
2.07039e-06
8.30142e-07
8.48058e-07
-3.16773e-07
1.8876e-06
2.01942e-06
4.3498e-06
-1.52702e-07
-1.05018e-06
9.08295e-07
-1.25765e-06
7.87474e-07
2.33824e-07
8.06605e-07
-1.5724e-06
6.02422e-07
9.46305e-07
-5.1924e-07
1.56525e-06
-2.79699e-07
-1.6869e-06
-6.52838e-07
-1.12886e-06
-1.57201e-06
-3.01863e-07
-6.29791e-07
-1.31742e-06
-5.44621e-07
7.11872e-07
-2.20852e-07
1.51018e-07
1.26047e-07
-9.3386e-07
-1.7473e-06
1.93638e-07
-6.87554e-08
-5.79777e-08
7.61303e-07
-1.19025e-06
-9.18963e-07
-2.26451e-06
-3.16147e-06
-3.52208e-07
-2.13111e-06
-1.17892e-06
-3.02484e-06
-1.09753e-06
2.11767e-06
2.96586e-07
-1.67743e-06
7.70173e-07
-2.84905e-07
6.97833e-07
-2.00519e-06
9.42314e-07
-1.13126e-06
-7.19446e-07
1.05475e-06
2.90912e-06
6.05697e-09
1.12787e-06
9.53615e-08
2.45941e-06
1.66917e-06
3.19765e-06
9.59521e-07
2.9762e-07
2.60148e-07
-1.30554e-06
1.05136e-06
6.86696e-07
-4.06745e-07
2.26435e-06
1.71644e-06
1.66129e-07
2.2976e-07
-1.44619e-07
1.05933e-06
-1.13079e-06
9.11774e-07
6.01162e-07
-1.05309e-06
-9.73347e-07
-4.98188e-07
1.44883e-06
4.04128e-07
6.05854e-07
1.49553e-07
2.38038e-08
7.21474e-07
1.63183e-06
-0.000113341
8.20093e-05
-1.08328e-06
2.23773e-05
1.18126e-05
0.00026994
2.55416e-06
5.34476e-05
1.02241e-05
-0.000111285
7.99344e-06
-0.000335481
4.84331e-06
0.000233695
1.67268e-06
0.000109499
-2.99921e-06
-0.000310693
-7.05501e-07
6.19859e-05
-5.38994e-06
0.000250052
-2.68359e-06
7.13402e-05
8.8882e-06
1.89888e-05
0.000196385
1.0672e-05
3.27617e-05
0.000150316
8.26351e-06
0.000296386
-5.37642e-06
0.000140925
-6.57698e-06
0.000111767
-1.1947e-05
-1.10453e-05
1.51463e-05
-4.80128e-05
1.46324e-05
0.000166406
1.70795e-05
-1.44502e-05
-5.62855e-06
-0.000202157
-6.12586e-06
-0.000201939
-2.344e-06
-0.000271298
1.81243e-06
-2.70416e-05
6.2106e-06
8.45835e-05
-1.82839e-06
-4.01583e-06
5.63501e-06
-5.80957e-06
-5.75183e-06
-5.2117e-07
2.53937e-05
7.81109e-06
-7.90351e-06
-9.05724e-07
2.16735e-05
-1.11207e-05
2.11249e-05
-1.2529e-05
-7.38973e-06
1.39198e-05
-2.33251e-05
1.08169e-05
-2.06025e-05
-8.60509e-06
1.23359e-05
-1.01857e-05
-2.13831e-05
3.60629e-06
-4.4963e-05
7.85511e-06
-1.39714e-05
-2.69264e-07
2.76642e-05
-3.46708e-06
2.3064e-05
6.50173e-06
-1.59122e-05
8.71326e-07
-2.66867e-09
-7.30182e-06
-8.72129e-06
-8.6899e-06
-7.59346e-06
-2.96908e-06
-4.75766e-06
-5.97116e-06
1.88624e-06
2.5958e-05
-1.68575e-05
9.16115e-06
5.49434e-06
-1.20776e-05
1.84642e-05
-4.25398e-06
-2.35252e-05
-1.55413e-06
-4.90671e-06
-2.22818e-06
8.6447e-06
1.68038e-06
-1.58145e-05
-1.09032e-05
-5.67191e-06
5.83218e-06
-2.18044e-06
2.97361e-06
1.08252e-05
-2.29887e-06
-3.80126e-06
1.08298e-06
1.0196e-05
7.67952e-06
1.00224e-05
8.7438e-06
-2.9716e-06
-3.06966e-06
-1.14868e-05
-4.43487e-06
-9.6156e-06
4.93518e-06
5.26656e-06
2.46581e-06
-1.00676e-05
-7.65112e-06
-2.05136e-05
-1.38408e-05
-5.7732e-06
-4.70325e-06
1.31736e-05
7.88107e-06
1.05069e-05
3.18984e-06
-7.26464e-06
2.46016e-06
-2.18337e-07
3.07789e-06
-3.47794e-06
-5.73115e-07
-3.483e-06
-8.58054e-07
-2.42078e-06
2.95546e-06
8.65643e-07
-6.55347e-06
-7.3359e-06
-1.45111e-06
2.31173e-06
3.54487e-06
8.6358e-06
-3.56145e-06
-1.06405e-05
-2.53929e-06
-2.2249e-06
2.45354e-06
3.40882e-06
1.37189e-06
-6.53493e-06
-3.70151e-06
-2.04757e-06
2.43373e-06
-5.44162e-07
1.93374e-06
4.19948e-06
-1.34606e-06
-1.36414e-06
7.503e-07
3.17978e-06
5.15929e-06
2.37934e-06
5.80878e-06
-3.93755e-07
-2.15002e-06
-3.57009e-06
-2.82196e-06
-3.37181e-06
2.90348e-06
7.4222e-07
1.364e-06
-3.40062e-06
-5.1272e-06
-5.2735e-06
-8.13892e-06
-1.90759e-06
-2.51695e-06
3.89875e-06
4.70382e-06
3.30966e-06
1.49086e-06
-1.83341e-06
5.49228e-07
1.28891e-07
1.40797e-06
-1.44661e-06
-6.39916e-07
-1.45034e-06
-5.4973e-07
-1.51043e-06
1.51455e-06
3.96592e-09
-3.63005e-06
-2.18151e-06
-8.9006e-07
2.99961e-07
2.76408e-06
1.80724e-06
-1.46868e-06
-3.24661e-06
-1.5629e-06
-2.27828e-08
7.37579e-07
8.03571e-07
2.6709e-08
-1.45782e-06
-1.23162e-06
-1.08392e-06
1.26446e-06
1.44384e-06
-2.06309e-07
9.65457e-07
2.21001e-06
2.86406e-06
-7.21042e-07
-1.18829e-06
6.99707e-07
-2.0179e-07
-2.24976e-06
-3.84264e-06
-1.22613e-06
2.10546e-06
1.34146e-06
1.05901e-06
1.32506e-06
1.00036e-07
-3.50236e-07
5.63208e-07
-1.61443e-06
-7.09471e-07
1.3158e-07
-1.65017e-06
-1.05593e-06
-2.22546e-07
-3.97524e-08
-1.66704e-05
0.000348678
6.43735e-06
-9.96206e-07
-3.43692e-06
0.000107632
-6.65631e-06
8.6842e-06
9.92855e-06
1.54138e-05
-6.34097e-06
5.01989e-06
)
;

boundaryField
{
    top_fluid_surface
    {
        type            calculated;
        value           nonuniform List<scalar> 
64
(
9.34469e-05
-5.17979e-08
-0.000208148
8.22676e-05
-0.000110119
-0.000216826
-6.44151e-05
0.000209451
-3.02454e-05
1.06684e-05
0.000332705
-0.000167715
-0.000124848
-0.000253856
-3.94256e-05
-8.77915e-05
0.000216458
0.000536021
6.94061e-05
0.000361672
-4.76085e-05
-0.000176988
6.46628e-05
0.000344173
-5.86979e-05
0.000375392
6.00423e-05
0.000439424
0.000479167
-9.20035e-05
-0.000280782
0.0001141
-4.15192e-05
-0.00017098
-0.000408993
0.000239222
0.000170208
8.4127e-05
-0.000576024
-3.34692e-05
0.000281855
-0.000772795
-0.000564268
1.64436e-05
-3.50651e-05
-8.4415e-05
-0.000306075
-0.000122634
-3.86951e-05
0.000142127
-9.60458e-05
-0.000103831
-0.000243817
0.000162352
0.00021394
-0.000188089
2.4097e-05
-0.00027582
-0.000178326
0.000172197
-0.000365501
0.000439033
8.67131e-05
0.000410358
)
;
    }
    bottom_fluid_surface
    {
        type            calculated;
        value           uniform 0;
    }
    lateral_surface_1
    {
        type            calculated;
        value           uniform 0;
    }
    lateral_surface_2
    {
        type            calculated;
        value           uniform 0;
    }
    lateral_surface_3
    {
        type            calculated;
        value           uniform 0;
    }
    lateral_surface_4
    {
        type            calculated;
        value           uniform 0;
    }
}


// ************************************************************************* //
