/*--------------------------------*- C++ -*----------------------------------*\
| =========                 |                                                 |
| \\      /  F ield         | OpenFOAM: The Open Source CFD Toolbox           |
|  \\    /   O peration     | Version:  v1612+                                |
|   \\  /    A nd           | Web:      www.OpenFOAM.com                      |
|    \\/     M anipulation  |                                                 |
\*---------------------------------------------------------------------------*/
FoamFile
{
    version     2.0;
    format      ascii;
    class       volVectorField;
    location    "4.6";
    object      U;
}
// * * * * * * * * * * * * * * * * * * * * * * * * * * * * * * * * * * * * * //

dimensions      [0 1 -1 0 0 0 0];

internalField   nonuniform List<vector> 
320
(
(-2.02099e-06 -8.31111e-06 8.4285e-06)
(-1.19524e-06 -6.39329e-06 -9.24641e-06)
(-1.02092e-05 -2.00523e-06 -7.56102e-06)
(-7.89572e-08 8.55416e-06 -7.9263e-06)
(0.000298281 0.000103134 3.88404e-05)
(2.03162e-05 0.000161473 1.3239e-07)
(0.000162215 4.07776e-05 -0.000106653)
(-0.000395592 0.00013461 5.08119e-05)
(-0.000103184 0.000112619 -7.50331e-05)
(-0.000240608 8.52173e-05 -0.000138475)
(-0.000332537 -0.000130068 -3.86383e-05)
(-0.000148872 4.32926e-05 0.000115581)
(-0.000264746 0.000165485 -3.02735e-05)
(-0.000146918 -0.000119196 9.72771e-06)
(-0.000317925 0.00025905 0.00016843)
(8.01025e-05 0.000249731 -9.19083e-05)
(8.19164e-06 1.58584e-06 2.75391e-05)
(1.16208e-05 6.35877e-06 2.46593e-05)
(1.4606e-05 4.80003e-06 8.72632e-06)
(-2.62893e-06 -1.34649e-07 -6.13869e-06)
(9.85775e-06 -1.12486e-05 -1.10276e-05)
(4.37423e-06 2.58121e-06 1.87745e-05)
(-1.32053e-05 -3.77298e-06 9.90813e-06)
(4.34642e-06 -1.98623e-05 -7.13896e-06)
(-6.2643e-06 4.38275e-06 3.39513e-05)
(7.23683e-07 -1.41816e-05 2.44624e-05)
(-1.20705e-05 -3.20802e-07 -1.17282e-05)
(-3.68586e-06 -2.41599e-06 2.54687e-06)
(2.75488e-06 1.04335e-06 1.90652e-05)
(-4.89523e-06 -2.61025e-06 2.24086e-05)
(-9.30011e-06 6.87159e-07 7.67893e-06)
(9.72315e-07 -3.49454e-06 -4.19391e-06)
(-4.90516e-06 2.89152e-06 -7.06267e-06)
(-3.72926e-06 -1.70922e-06 1.14506e-05)
(3.70125e-06 -1.34645e-06 7.25993e-06)
(-5.34581e-06 6.69505e-06 -3.57401e-06)
(3.59249e-06 -7.17985e-06 2.37868e-05)
(2.38429e-06 1.18785e-05 1.91523e-05)
(8.94798e-06 6.56855e-06 -7.40043e-06)
(8.17413e-06 6.00983e-06 1.55149e-06)
(-8.409e-07 -5.17601e-06 2.57866e-06)
(-5.51825e-07 -4.02502e-06 -3.09464e-06)
(-5.20898e-06 -1.13497e-06 -1.21831e-06)
(5.65994e-07 4.56553e-06 -3.00548e-06)
(2.29364e-06 1.48201e-07 5.2638e-06)
(-2.09998e-06 -1.75193e-06 2.47574e-06)
(-5.2102e-06 -3.28274e-08 1.02941e-06)
(1.13578e-06 -2.51006e-06 1.08809e-06)
(-2.59713e-06 2.21525e-06 -1.32822e-06)
(-2.01331e-06 -1.09111e-06 3.24104e-06)
(2.79838e-06 -1.1119e-06 2.26586e-06)
(-2.61435e-06 4.27489e-06 5.88762e-07)
(2.23003e-06 -4.31025e-06 6.50045e-06)
(1.42602e-06 6.33889e-06 4.52047e-06)
(5.01064e-06 3.4776e-06 -1.52428e-06)
(4.96128e-06 3.33319e-06 1.63724e-07)
(-0.000271527 2.42013e-05 -7.77302e-05)
(6.29622e-05 0.000305334 -0.000131304)
(3.97754e-05 6.18517e-05 -1.99447e-05)
(-6.46087e-05 9.54204e-05 -4.63371e-05)
(5.32212e-05 0.000358265 0.000112814)
(0.000234283 -0.000169639 0.000286154)
(-0.000281175 -3.81967e-05 4.32186e-05)
(-0.000115984 -8.94069e-05 0.000192685)
(-8.12643e-05 -0.000330481 -0.000193645)
(-0.000101993 -2.59359e-05 -0.000114568)
(-0.00030422 0.000140928 3.70746e-05)
(-9.67621e-05 -7.42268e-06 0.000182676)
(-2.76005e-05 5.73338e-05 -4.37204e-05)
(-0.000113583 -4.38931e-05 0.000198186)
(0.00011481 -0.000175736 3.38679e-05)
(-0.000118162 1.0643e-05 0.000226923)
(0.000165833 0.000370406 0.000252424)
(0.000193984 0.000520152 -4.57865e-05)
(0.000180948 0.000149996 -0.000149227)
(0.000144103 1.02706e-05 6.03665e-05)
(-7.02409e-06 -1.20107e-05 -2.52929e-05)
(1.51316e-06 2.39481e-06 8.45311e-06)
(3.23537e-06 -5.67828e-06 1.40899e-05)
(1.4626e-06 2.53478e-06 6.40771e-07)
(-1.50613e-06 2.16675e-05 -2.18042e-05)
(7.59509e-06 2.26664e-06 -3.18531e-05)
(-4.32878e-06 2.06729e-06 -1.66212e-05)
(-8.22992e-06 -1.31211e-05 -4.89467e-05)
(1.66523e-06 -2.82562e-05 -5.34768e-06)
(-5.48389e-07 -1.47624e-05 1.87971e-05)
(-1.4625e-05 1.30979e-05 -9.38661e-06)
(1.56581e-05 -1.93995e-06 -2.81014e-05)
(7.17203e-06 -7.05249e-06 2.52265e-05)
(-1.12068e-05 -7.65815e-06 -1.6043e-05)
(2.29734e-06 -1.74093e-05 -3.786e-06)
(-1.7137e-05 -7.93262e-06 -1.00983e-05)
(6.18898e-06 2.60171e-06 -2.20736e-05)
(1.05296e-05 1.38641e-05 -1.98195e-05)
(3.58868e-06 6.63172e-06 -4.06676e-06)
(1.73843e-05 2.67137e-06 -1.31226e-05)
(5.75957e-06 9.50328e-06 -1.72319e-05)
(6.59879e-06 3.54683e-06 3.80811e-06)
(-8.38876e-07 9.95081e-06 1.32209e-05)
(-2.47451e-06 4.63517e-06 -7.93751e-07)
(5.36805e-06 -6.88639e-06 -1.43413e-05)
(-2.96788e-06 8.37211e-07 -1.34229e-05)
(4.66618e-06 -1.9977e-06 -7.76689e-06)
(9.13836e-06 3.85407e-06 -2.47964e-05)
(-8.09316e-07 9.73137e-06 -3.28852e-06)
(-4.1757e-06 3.53692e-06 1.30249e-05)
(6.17247e-06 -5.42283e-06 -7.7811e-06)
(-8.48335e-06 2.35174e-07 -1.82376e-05)
(-4.374e-06 2.38563e-06 1.72901e-05)
(5.26698e-06 -3.58094e-06 -1.13121e-05)
(-2.69104e-06 3.59009e-06 -3.38797e-06)
(1.05913e-05 3.81234e-06 -4.4866e-06)
(-7.42442e-07 3.35021e-06 -1.40939e-05)
(-2.37705e-06 -2.52154e-06 -1.34757e-05)
(2.1033e-07 -2.14535e-06 -5.62568e-06)
(-1.067e-05 -2.30405e-06 -1.24388e-05)
(3.91486e-06 4.96001e-06 -5.54458e-06)
(4.24422e-06 2.15429e-06 1.57321e-06)
(-3.70813e-07 5.92576e-06 -3.49261e-07)
(-1.28127e-06 3.61295e-06 6.46187e-07)
(3.31836e-06 -4.02028e-06 -3.64297e-06)
(-1.81908e-06 6.65116e-07 -5.36437e-06)
(3.19186e-06 -1.41188e-06 -3.18598e-06)
(5.82382e-06 1.41644e-06 -7.17571e-06)
(-8.98149e-07 5.77123e-06 -5.15695e-07)
(-2.44373e-06 2.42058e-06 4.8045e-07)
(4.28598e-06 -3.25882e-06 -2.56898e-06)
(-4.80007e-06 -2.55901e-07 -4.65137e-06)
(-2.01053e-06 1.25798e-06 3.82598e-06)
(3.56668e-06 -2.1553e-06 -1.71311e-06)
(-1.21169e-06 1.83867e-06 -2.76188e-07)
(6.49722e-06 2.13424e-06 -1.47797e-06)
(-1.30886e-07 1.64565e-06 -2.76097e-06)
(-1.44044e-06 -1.64079e-06 -3.64753e-06)
(4.13466e-07 -9.4762e-07 -8.05787e-07)
(-5.46547e-06 -1.0154e-06 -2.17281e-06)
(-5.96369e-07 -1.96871e-06 6.34489e-07)
(4.3048e-07 -9.55074e-07 -8.59375e-07)
(-2.63676e-06 -8.62664e-08 -1.09296e-06)
(-1.92639e-07 2.74384e-06 -6.71888e-07)
(5.4813e-07 2.5216e-07 2.18415e-06)
(-9.62149e-07 4.46253e-07 2.39437e-06)
(-1.55398e-06 3.87024e-07 8.82838e-07)
(8.30077e-07 -1.1992e-06 -2.9416e-07)
(-1.07196e-06 3.76536e-07 -4.61934e-07)
(-1.0972e-06 -9.8569e-07 1.31366e-06)
(8.93279e-07 -9.88063e-08 7.18658e-07)
(-1.35328e-06 1.26531e-06 -4.64021e-07)
(1.54235e-06 -1.18007e-06 2.06137e-06)
(9.09363e-07 3.50075e-06 1.89456e-06)
(2.78546e-06 2.22982e-06 -5.61435e-07)
(2.53458e-06 2.54623e-06 5.71087e-07)
(2.26631e-06 2.97705e-06 -1.67576e-06)
(1.50361e-06 8.93394e-07 5.40027e-07)
(2.9561e-07 2.63563e-06 1.1552e-06)
(8.60363e-07 1.05597e-06 2.02621e-08)
(1.34981e-06 -1.60542e-06 -9.53504e-07)
(-7.29057e-07 4.15965e-07 -1.30237e-06)
(9.47145e-07 -4.7305e-07 -7.04661e-07)
(1.55263e-06 8.16554e-07 -2.40376e-06)
(-7.31481e-07 1.86511e-06 -3.03222e-07)
(-1.31468e-06 5.04987e-07 1.36661e-06)
(8.91963e-07 -2.0305e-06 -8.42319e-07)
(-2.44364e-06 8.11186e-08 -1.9302e-06)
(-1.5555e-06 3.41675e-07 1.68058e-06)
(1.09796e-06 -3.60449e-07 -1.40074e-06)
(-7.94435e-07 1.25202e-06 -7.25767e-07)
(2.47736e-06 1.07671e-06 -1.18585e-06)
(-4.0608e-07 1.15684e-06 -1.69808e-06)
(-3.71563e-07 -3.43495e-07 -1.68661e-06)
(-4.3239e-07 -2.67003e-07 -5.72132e-07)
(-2.73365e-06 -1.5176e-07 -1.2114e-06)
(2.70009e-05 0.000123614 -2.34469e-05)
(-0.000214988 7.2135e-05 -8.37066e-05)
(0.000261944 6.71257e-05 -0.000214326)
(0.000232006 -0.000127053 0.000122558)
(-0.000132436 -0.000124248 8.89189e-05)
(-0.000117853 -5.90774e-05 3.31724e-05)
(-0.00047222 4.65887e-05 -0.000304382)
(-0.000368509 0.000445771 -2.71254e-05)
(-0.000385404 -0.000293305 0.00015007)
(-0.000490033 -0.000212912 -0.000394605)
(-0.000559939 0.000313088 -0.000305819)
(-9.14298e-05 9.9603e-05 -9.33812e-06)
(-0.000130736 0.000126924 -0.000200551)
(6.0765e-05 -0.000137713 -6.52265e-05)
(-9.50477e-05 -0.000329238 -0.0001735)
(-0.000258493 -0.000144042 -5.57616e-05)
(-0.00024855 -0.00037342 -1.74791e-05)
(-0.000112634 7.13335e-06 7.95135e-05)
(-3.21249e-05 -0.000289792 -6.8735e-05)
(2.69404e-05 -7.36157e-05 -6.6315e-05)
(9.20705e-05 -0.000201256 -0.000151669)
(-3.62802e-05 -0.000187919 9.08958e-05)
(7.94067e-05 0.000216251 0.000125393)
(0.000168549 0.000192761 -0.000105679)
(-9.81779e-05 0.000274533 6.69398e-06)
(-7.75119e-05 0.000198223 -0.000140966)
(-4.89889e-05 -0.000128275 -9.70152e-05)
(-0.000216087 -4.3237e-05 8.47669e-05)
(1.68915e-05 6.61192e-06 7.55554e-06)
(-3.40903e-06 -3.16578e-06 -2.76309e-05)
(1.8586e-06 2.99731e-06 1.42666e-05)
(1.14808e-05 -3.5121e-06 -2.62661e-05)
(-1.27403e-05 -5.24837e-06 -2.3451e-05)
(-1.04397e-05 1.069e-05 8.24868e-06)
(-1.15271e-05 3.68621e-06 2.92204e-05)
(-1.85305e-05 2.05685e-05 2.19502e-05)
(-1.26264e-05 1.97661e-06 -1.67682e-05)
(-1.8821e-05 -1.5959e-05 2.69431e-05)
(-3.06484e-05 -5.25665e-06 5.25147e-05)
(-1.09574e-05 1.02612e-05 1.75219e-05)
(7.8656e-06 7.20954e-06 -3.06124e-05)
(1.10147e-05 -7.25688e-06 -2.17482e-05)
(-4.22526e-06 -1.04043e-05 2.42082e-05)
(-8.44992e-06 -3.58022e-06 -4.47013e-07)
(6.94471e-06 -1.65812e-05 9.57527e-06)
(1.00649e-05 5.13311e-06 7.21614e-06)
(4.09214e-06 -1.94725e-05 9.67698e-06)
(2.88968e-06 -1.01663e-05 -4.89474e-07)
(8.70723e-06 -2.00652e-05 2.5391e-05)
(-1.19107e-06 -2.76862e-05 -8.0905e-06)
(-1.56764e-06 8.27382e-06 -2.45338e-05)
(1.50154e-05 1.34833e-05 2.79078e-05)
(9.31492e-06 -2.9207e-06 7.1052e-06)
(-1.76867e-06 4.44122e-06 -6.66236e-06)
(7.12337e-06 1.29266e-06 1.93399e-05)
(-3.14749e-06 -3.65923e-06 1.10761e-05)
(-1.19341e-05 -4.25561e-06 3.47521e-06)
(2.32349e-06 1.61841e-06 -1.71634e-05)
(2.30629e-06 -8.19919e-07 4.28135e-06)
(-5.98407e-06 5.91115e-06 -1.60913e-05)
(7.53668e-06 4.32517e-06 -1.83872e-05)
(9.2179e-06 -4.1001e-06 5.98874e-06)
(7.56387e-06 4.75533e-07 1.91748e-05)
(1.21395e-05 -7.54957e-06 1.59545e-05)
(6.90081e-06 -1.47077e-08 -8.92612e-06)
(1.12874e-05 8.6119e-06 1.65047e-05)
(1.75097e-05 -2.58381e-06 3.6679e-05)
(4.85135e-06 -1.50244e-05 8.79328e-06)
(-7.24491e-06 -1.05528e-05 -2.23974e-05)
(-9.2374e-06 1.28668e-06 -1.91844e-05)
(-5.93867e-06 3.27831e-06 1.08647e-05)
(-4.2744e-07 3.04946e-06 6.02347e-07)
(-4.10701e-06 9.87805e-06 5.60572e-06)
(-1.52967e-06 -1.32667e-06 5.5977e-06)
(2.38804e-06 7.03363e-06 9.76877e-07)
(-8.67187e-07 1.55237e-06 -2.74175e-06)
(-4.40386e-06 5.20995e-06 9.72535e-06)
(-7.46509e-07 7.87789e-06 -4.28319e-06)
(-1.17121e-07 -5.23054e-06 -1.46591e-05)
(-9.78949e-06 -1.08918e-06 1.75627e-05)
(-4.55651e-06 7.52111e-06 3.83823e-06)
(2.52884e-07 -2.28439e-06 -7.43007e-06)
(-4.69534e-06 -2.64253e-06 1.14492e-05)
(-8.56096e-08 3.54066e-07 6.98947e-06)
(-5.21217e-06 -2.47217e-06 1.02069e-06)
(1.79162e-06 4.35191e-07 -6.93643e-06)
(1.32784e-06 -3.4894e-07 2.11374e-06)
(-3.55869e-06 3.35158e-06 -5.08902e-06)
(4.73584e-06 2.83894e-06 -2.55875e-06)
(6.42197e-06 -2.66549e-06 -1.34967e-07)
(4.41783e-06 -2.64765e-07 4.32646e-06)
(6.81856e-06 -4.62809e-06 4.72755e-06)
(3.81001e-06 -1.5933e-07 -1.31909e-06)
(5.99412e-06 5.13263e-06 4.51317e-06)
(1.03544e-05 -1.87483e-06 6.05927e-06)
(2.70289e-06 -9.35845e-06 3.0564e-06)
(-4.77528e-06 -5.84683e-06 -5.36123e-06)
(-5.56442e-06 7.08338e-07 -4.41119e-06)
(-3.48614e-06 1.49755e-06 2.25635e-06)
(6.63204e-07 1.75074e-06 -3.03986e-07)
(-1.7184e-06 5.1203e-06 2.34142e-06)
(-7.14941e-07 -1.33088e-06 2.41713e-06)
(1.64933e-06 3.82471e-06 3.14658e-06)
(-3.84413e-07 5.86444e-07 6.93171e-07)
(-2.44531e-06 2.99742e-06 4.08933e-06)
(-3.43407e-08 4.72634e-06 2.64253e-07)
(4.42323e-07 -3.22951e-06 -1.68686e-06)
(-5.398e-06 -1.59868e-06 4.70523e-06)
(-2.80198e-06 4.02191e-06 -8.38427e-08)
(2.64657e-07 -6.91893e-07 -8.16275e-07)
(-2.54631e-06 -6.65712e-07 2.10755e-06)
(6.1433e-07 6.8846e-07 1.89414e-06)
(-3.27167e-06 -1.04961e-06 1.77422e-07)
(1.48943e-06 5.47534e-07 -1.70134e-06)
(8.8955e-07 -2.72732e-07 6.77043e-07)
(-1.12472e-06 1.1616e-06 -1.00954e-06)
(2.68707e-06 1.14761e-06 -1.67887e-06)
(2.26158e-06 -6.65112e-07 1.06352e-06)
(3.00735e-06 2.35827e-07 2.41286e-06)
(3.90829e-06 -1.93467e-06 1.99195e-06)
(2.6781e-06 -1.56437e-08 -2.75106e-07)
(3.47668e-06 1.08247e-06 1.75175e-06)
(4.23361e-06 -1.3021e-06 3.68042e-06)
(1.35803e-06 -3.85298e-06 1.0466e-06)
(-1.48449e-06 -3.13386e-06 -1.94173e-06)
(-2.28081e-06 4.8942e-07 -1.63705e-06)
(-1.83484e-06 1.28576e-06 1.51852e-06)
(-6.73333e-07 1.00959e-06 1.08641e-08)
(-1.47889e-06 2.85104e-06 3.42951e-07)
(-9.11709e-07 4.48469e-08 3.09776e-07)
(6.32002e-07 2.20726e-06 2.20009e-07)
(8.11399e-08 5.10798e-07 -6.74991e-07)
(-1.10297e-06 1.33168e-06 6.89186e-07)
(-2.82087e-07 2.03577e-06 -9.59293e-07)
(-3.19226e-07 -7.91722e-07 -1.95214e-06)
(-2.15051e-06 6.51829e-07 1.48152e-06)
(-8.24243e-07 2.20351e-06 1.97174e-07)
(3.96491e-07 1.84139e-07 -4.72602e-07)
(-3.73111e-07 1.37759e-07 9.56977e-07)
(6.86006e-07 9.50393e-09 3.39865e-07)
(-2.56582e-05 0.000292236 -0.000196752)
(-2.28929e-05 0.000227329 0.000234123)
(0.00026687 0.000422532 6.1153e-05)
(-0.000139033 -0.000244955 0.000205603)
(1.02877e-05 1.82733e-05 1.51666e-05)
(6.45018e-06 6.81768e-06 -2.2163e-05)
(1.53317e-05 8.40733e-06 -1.65565e-05)
(-6.78577e-06 -2.01218e-05 -1.80733e-05)
)
;

boundaryField
{
    top_fluid_surface
    {
        type            pressureInletOutletVelocity;
        value           nonuniform List<vector> 
64
(
(0.000298281 0.000103134 3.88404e-05)
(0 0 1.3239e-07)
(0 0 -0.000106653)
(-0.000395592 0.00013461 5.08119e-05)
(0 0 -7.50331e-05)
(0 0 -0.000138475)
(0 0 -3.86383e-05)
(-0.000148872 4.32926e-05 0.000115581)
(0 0 -3.02735e-05)
(-0.000146918 -0.000119196 9.72771e-06)
(-0.000317925 0.00025905 0.00016843)
(0 0 -9.19083e-05)
(0 0 -7.77302e-05)
(0 0 -0.000131304)
(0 0 -1.99447e-05)
(0 0 -4.63371e-05)
(5.32212e-05 0.000358265 0.000112814)
(0.000234283 -0.000169639 0.000286154)
(-0.000281175 -3.81967e-05 4.32186e-05)
(-0.000115984 -8.94069e-05 0.000192685)
(0 0 -0.000193645)
(0 0 -0.000114568)
(-0.00030422 0.000140928 3.70746e-05)
(-9.67621e-05 -7.42268e-06 0.000182676)
(0 0 -4.37204e-05)
(-0.000113583 -4.38931e-05 0.000198186)
(0.00011481 -0.000175736 3.38679e-05)
(-0.000118162 1.0643e-05 0.000226923)
(0.000165833 0.000370406 0.000252424)
(0 0 -4.57865e-05)
(0 0 -0.000149227)
(0.000144103 1.02706e-05 6.03665e-05)
(0 0 -2.34469e-05)
(0 0 -8.37066e-05)
(0 0 -0.000214326)
(0.000232006 -0.000127053 0.000122558)
(-0.000132436 -0.000124248 8.89189e-05)
(-0.000117853 -5.90774e-05 3.31724e-05)
(0 0 -0.000304382)
(0 0 -2.71254e-05)
(-0.000385404 -0.000293305 0.00015007)
(0 0 -0.000394605)
(0 0 -0.000305819)
(-9.14298e-05 9.9603e-05 -9.33812e-06)
(0 0 -0.000200551)
(0 0 -6.52265e-05)
(0 0 -0.0001735)
(0 0 -5.57616e-05)
(0 0 -1.74791e-05)
(-0.000112634 7.13335e-06 7.95135e-05)
(0 0 -6.8735e-05)
(0 0 -6.6315e-05)
(0 0 -0.000151669)
(-3.62802e-05 -0.000187919 9.08958e-05)
(7.94067e-05 0.000216251 0.000125393)
(0 0 -0.000105679)
(-9.81779e-05 0.000274533 6.69398e-06)
(0 0 -0.000140966)
(0 0 -9.70152e-05)
(-0.000216087 -4.3237e-05 8.47669e-05)
(0 0 -0.000196752)
(-2.28929e-05 0.000227329 0.000234123)
(0.00026687 0.000422532 6.1153e-05)
(-0.000139033 -0.000244955 0.000205603)
)
;
    }
    bottom_fluid_surface
    {
        type            noSlip;
    }
    lateral_surface_1
    {
        type            noSlip;
    }
    lateral_surface_2
    {
        type            noSlip;
    }
    lateral_surface_3
    {
        type            noSlip;
    }
    lateral_surface_4
    {
        type            noSlip;
    }
}


// ************************************************************************* //
