/*--------------------------------*- C++ -*----------------------------------*\
| =========                 |                                                 |
| \\      /  F ield         | OpenFOAM: The Open Source CFD Toolbox           |
|  \\    /   O peration     | Version:  v1612+                                |
|   \\  /    A nd           | Web:      www.OpenFOAM.com                      |
|    \\/     M anipulation  |                                                 |
\*---------------------------------------------------------------------------*/
FoamFile
{
    version     2.0;
    format      ascii;
    class       surfaceScalarField;
    location    "1.95";
    object      alphaPhi;
}
// * * * * * * * * * * * * * * * * * * * * * * * * * * * * * * * * * * * * * //

dimensions      [0 3 -1 0 0 0 0];

internalField   nonuniform List<scalar> 
2916
(
-1.44842e-06
0.556375
-0.556205
3.29341e-07
0.556377
-0.55621
1.35253e-06
0.556377
-0.556209
1.58386e-06
0.556377
-0.556208
1.79193e-06
0.556378
-0.556209
0.556376
-0.556205
-2.98315e-06
1.2002
-0.643651
1.05357e-07
1.2002
-0.64366
1.6589e-07
1.2002
-0.643656
2.89217e-07
1.2002
-0.643656
2.88281e-06
1.2002
-0.643657
1.2002
-0.643649
-2.703e-06
1.68492
-0.48443
-9.22512e-07
1.68493
-0.484436
-2.79589e-06
1.68493
-0.484431
-2.69273e-06
1.68493
-0.484432
2.10785e-06
1.68493
-0.484436
1.68492
-0.484425
-5.79006e-06
2.09733
-0.411638
-5.03907e-06
2.09734
-0.411647
-7.71829e-06
2.09733
-0.411644
-6.75028e-06
2.09733
-0.411648
-7.50917e-07
2.09733
-0.411654
2.09732
-0.411644
-9.39273e-06
2.42783
-0.329299
-8.91776e-06
2.42785
-0.329311
-1.17634e-05
2.42785
-0.329308
-1.06598e-05
2.42784
-0.329312
-4.98409e-06
2.42785
-0.32932
2.42783
-0.329312
-1.25761e-05
2.75876
-0.330356
-1.29076e-05
2.75878
-0.330371
-1.48835e-05
2.75878
-0.330369
-1.36649e-05
2.75878
-0.330372
-6.95904e-06
2.75878
-0.330379
2.75876
-0.330375
-1.34046e-05
3.06142
-0.327177
-1.3614e-05
3.06143
-0.327194
-1.43264e-05
3.06143
-0.327192
-1.25152e-05
3.06143
-0.327195
-4.80819e-06
3.06143
-0.327201
3.06141
-0.327196
-1.4066e-05
3.21475
-0.222515
-1.19839e-05
3.21475
-0.222529
-1.31258e-05
3.21476
-0.222527
-1.14684e-05
3.21476
-0.22253
-2.90692e-06
3.21476
-0.222534
3.21473
-0.222527
-6.96927e-06
3.09938
-0.0222223
-5.71205e-06
3.09939
-0.0222273
-7.72414e-06
3.09938
-0.0222254
-7.27181e-06
3.09938
-0.0222271
-1.76394e-06
3.09938
-0.0222302
3.09936
-0.0222266
-2.30991e-07
2.58326
0.380948
-4.68123e-07
2.58328
0.380935
-3.57846e-06
2.58327
0.38093
-5.43607e-06
2.58327
0.380927
-6.32234e-06
2.58329
0.380918
2.58325
0.380921
1.37094e-05
1.65098
0.797125
9.10953e-06
1.65104
0.797109
-4.06917e-08
1.65101
0.797122
-1.01533e-05
1.65102
0.79712
-1.80428e-05
1.65104
0.797118
1.65099
0.797102
-7.98579e-05
1.06339
-4.17613e-05
1.06339
-2.89387e-05
1.06339
-4.7043e-06
1.0634
3.88982e-05
1.0634
1.0634
-1.98224e-06
0.719733
-1.27576
-1.95663e-07
0.719737
-1.27578
-5.71487e-07
0.719735
-1.27577
-2.35e-06
0.719734
-1.27577
-2.9425e-06
0.719734
-1.27577
0.719732
-1.27577
-1.15208e-07
1.32307
-1.24448
-1.93578e-06
1.32308
-1.24449
-5.25491e-06
1.32308
-1.24449
-6.16247e-06
1.32308
-1.24449
-3.98605e-06
1.32308
-1.24449
1.32307
-1.24448
-1.60942e-06
1.70457
-0.772975
-5.80815e-06
1.70459
-0.772979
-8.99511e-06
1.70459
-0.772976
-9.54355e-06
1.70458
-0.77298
-6.9542e-06
1.70458
-0.772986
1.70457
-0.772976
-1.07065e-05
1.92794
-0.50548
-1.25387e-05
1.92796
-0.505487
-1.0275e-05
1.92795
-0.505488
-7.88017e-06
1.92795
-0.505493
-6.38937e-06
1.92795
-0.505498
1.92793
-0.505494
-4.66833e-06
1.80868
-0.154579
-1.37684e-05
1.80869
-0.15458
-1.19963e-05
1.80869
-0.154583
-7.25449e-06
1.80868
-0.154587
-8.63452e-06
1.80868
-0.154588
1.80866
-0.154588
2.06676e-06
1.43392
-0.034105
-7.27225e-06
1.43392
-0.0341023
-7.47262e-06
1.43391
-0.0341037
-4.83953e-06
1.43391
-0.0341054
-6.46763e-06
1.43391
-0.0341055
1.43388
-0.0341059
1.00824e-05
0.908144
-0.00334972
-2.31063e-06
0.908136
-0.00334948
-5.75114e-06
0.908129
-0.00334963
-4.44353e-06
0.908132
-0.0033498
-4.98161e-06
0.908133
-0.00334981
0.908104
-0.00334982
1.28559e-05
0.4518
-0.000333858
1.48668e-06
0.451803
-0.000333833
-4.56204e-06
0.451791
-0.000333848
-4.48481e-06
0.45179
-0.000333864
-3.71435e-06
0.451792
-0.000333866
0.451775
-0.000333855
4.67639e-06
0.28462
-3.04936e-05
2.40068e-06
0.284625
-3.04909e-05
-4.11085e-07
0.284616
-3.04915e-05
-1.03978e-06
0.284612
-3.0493e-05
-5.83339e-07
0.284611
-3.04939e-05
0.2846
-3.04911e-05
1.89032e-06
0.503244
0.00854138
5.67755e-07
0.50325
0.00854221
-9.39851e-07
0.503233
0.00854138
-2.38413e-06
0.503226
0.00854116
-4.36796e-06
0.50322
0.00854073
0.503208
0.00854082
4.07037e-06
0.929326
0.130141
1.5055e-06
0.929341
0.130143
-4.4094e-06
0.929333
0.130142
-1.05934e-05
0.929331
0.130139
3.14306e-06
0.929286
0.130161
0.929346
0.13011
-3.64077e-05
1.25046
-8.94438e-06
1.25046
1.19553e-05
1.25047
3.39092e-05
1.25048
-1.00311e-05
1.25054
1.25042
9.44289e-07
0.600983
-1.8759
6.68786e-07
0.600984
-1.87592
-1.80607e-06
0.600986
-1.87591
-2.58844e-06
0.600985
-1.87591
-2.42805e-06
0.600984
-1.87591
0.600982
-1.87591
4.98e-06
0.521168
-0.390002
-1.68036e-06
0.521163
-0.389996
-1.73977e-06
0.521164
-0.389999
1.45692e-06
0.521166
-0.390002
-2.70648e-06
0.521168
-0.390002
0.521172
-0.390005
3.35313e-07
0.42128
-0.0180444
-2.51141e-06
0.421274
-0.018043
-2.84821e-07
0.421276
-0.0180435
8.20426e-07
0.421279
-0.0180441
-4.60919e-06
0.42128
-0.0180446
0.421282
-0.0180458
3.60166e-06
0.18634
-0.000674876
2.44524e-06
0.186336
-0.000674799
3.38304e-06
0.18634
-0.000674831
2.85683e-06
0.186343
-0.000674866
-2.3671e-06
0.186344
-0.000674894
0.186345
-0.000674955
8.14849e-07
0.0378226
-1.97264e-05
8.01848e-07
0.0378196
-1.97243e-05
7.51336e-07
0.0378211
-1.9726e-05
5.83183e-07
0.037823
-1.97276e-05
1.44632e-07
0.0378231
-1.97285e-05
0.0378236
-1.97306e-05
7.66262e-08
0.00371786
-3.09526e-07
9.29411e-08
0.0037176
-3.09538e-07
7.07206e-08
0.00371777
-3.09608e-07
3.71634e-08
0.00371796
-3.09658e-07
-1.05157e-08
0.00371797
-3.09676e-07
0.00371798
-3.09712e-07
-8.86182e-09
0.000368154
-2.18847e-11
-8.98321e-09
0.000368127
-2.194e-11
-9.45083e-09
0.000368143
-2.20008e-11
-1.09275e-08
0.000368161
-2.19781e-11
-1.24433e-08
0.000368164
-2.19473e-11
0.000368151
-2.18546e-11
-1.31566e-09
3.43007e-05
-3.7977e-09
-2.16856e-09
3.4298e-05
-3.80111e-09
-1.94291e-09
3.42987e-05
-3.79989e-09
-1.66366e-09
3.43003e-05
-3.79898e-09
-1.56721e-09
3.43014e-05
-3.79983e-09
3.42978e-05
-3.79404e-09
8.34094e-11
3.68568e-06
1.25849e-07
-5.47202e-11
3.68584e-06
1.25941e-07
-4.69638e-11
3.68575e-06
1.25965e-07
-1.82612e-11
3.68581e-06
1.25942e-07
1.39369e-11
3.68594e-06
1.25971e-07
3.68533e-06
1.25827e-07
2.67213e-07
0.00822792
0.000316794
2.61108e-07
0.00822898
0.000316839
1.87982e-07
0.00822822
0.000316841
7.85197e-08
0.00822805
0.000316828
1.23358e-07
0.00822751
0.000316777
0.00822768
0.000316865
6.95866e-07
0.124556
0.013227
1.06761e-06
0.12456
0.0132269
8.06861e-08
0.124558
0.0132271
-5.32086e-07
0.124555
0.0132268
2.38853e-06
0.12457
0.0132295
0.124534
0.0132215
-1.46349e-05
0.466465
-3.9682e-06
0.46644
1.65795e-05
0.466439
-1.42916e-05
0.466471
-0.000139963
0.46667
0.466159
5.56238e-06
0.234202
-0.669432
3.54337e-06
0.234201
-0.669441
2.06656e-06
0.234203
-0.669446
5.50753e-06
0.234203
-0.669439
6.73681e-06
0.234202
-0.669439
0.234199
-0.66947
-1.55683e-08
0.0187109
-0.00546419
4.9393e-08
0.0187094
-0.00546449
3.14058e-07
0.01871
-0.00546484
4.99341e-07
0.0187106
-0.00546428
4.01486e-07
0.0187111
-0.00546428
0.0187123
-0.00546622
-4.44557e-09
0.000686758
-1.91075e-05
1.59836e-08
0.000686679
-1.90939e-05
2.55762e-08
0.000686711
-1.90966e-05
2.83843e-08
0.000686746
-1.90888e-05
2.31678e-08
0.000686775
-1.90816e-05
0.000686839
-1.91052e-05
1.35468e-09
1.96257e-05
-5.15777e-06
2.30708e-09
1.96236e-05
-5.1579e-06
2.04961e-09
1.96253e-05
-5.15759e-06
1.26627e-09
1.9627e-05
-5.15802e-06
7.05407e-10
1.96279e-05
-5.1585e-06
1.963e-05
-5.15739e-06
6.83669e-11
3.09527e-07
-3.67937e-07
1.02353e-10
3.09539e-07
-3.67858e-07
9.50582e-11
3.09609e-07
-3.67836e-07
6.45634e-11
3.09659e-07
-3.67803e-07
3.53814e-11
3.09677e-07
-3.67765e-07
3.09713e-07
-3.67793e-07
-2.75895e-13
-9.69733e-13
-6.78545e-13
-1.13471e-13
-9.69385e-13
-6.79694e-13
-1.47824e-14
-9.6827e-13
-6.79315e-13
1.32563e-13
-9.67301e-13
-6.79093e-13
3.07523e-13
-9.66725e-13
-6.79478e-13
-9.66251e-13
-6.77892e-13
-6.70131e-16
-2.98836e-11
-1.47811e-11
-5.95281e-16
-2.99077e-11
-1.47984e-11
-3.61266e-16
-2.98947e-11
-1.47924e-11
8.63403e-17
-2.98844e-11
-1.47858e-11
4.54604e-16
-2.98863e-11
-1.47891e-11
-2.98396e-11
-1.47638e-11
-7.06309e-15
-1.73451e-09
-2.1226e-09
-3.26074e-15
-1.73559e-09
-2.12495e-09
1.40136e-15
-1.73536e-09
-2.12387e-09
4.90251e-15
-1.73497e-09
-2.12334e-09
1.09417e-15
-1.73449e-09
-2.1247e-09
-1.73241e-09
-2.12097e-09
2.73509e-13
2.03419e-07
-7.85375e-08
5.20456e-13
2.03507e-07
-7.8533e-08
1.01432e-12
2.03518e-07
-7.85213e-08
1.03076e-12
2.03488e-07
-7.85155e-08
7.37647e-13
2.03494e-07
-7.85031e-08
2.03284e-07
-7.84852e-08
9.1849e-09
0.000304553
1.26415e-05
1.41709e-08
0.000304597
1.26468e-05
1.77818e-08
0.000304598
1.26488e-05
2.06641e-08
0.000304586
1.26485e-05
1.75357e-08
0.000304554
1.26375e-05
0.000304639
1.26521e-05
1.90134e-07
0.0126478
0.000849057
2.34827e-07
0.0126478
0.000849187
1.32505e-07
0.0126481
0.000849214
1.01167e-07
0.0126476
0.000849221
5.55645e-07
0.0126504
0.000848664
0.0126426
0.000849497
-2.12222e-06
0.024428
-1.55429e-06
0.0244291
1.32325e-06
0.0244281
-1.32861e-05
0.0244288
-5.67506e-05
0.0244551
0.0243926
1.15256e-69
2.90326e-66
-1.14062e-62
2.63561e-70
2.90825e-66
-1.14269e-62
-1.27213e-70
2.90811e-66
-1.14263e-62
-2.74886e-70
2.90855e-66
-1.14279e-62
-2.87262e-70
2.9103e-66
-1.14342e-62
2.90578e-66
-1.14158e-62
1.19305e-65
1.00082e-61
-2.06315e-58
3.16557e-68
1.00262e-61
-2.06694e-58
-5.34786e-66
1.00261e-61
-2.06686e-58
-8.38267e-66
1.00282e-61
-2.06722e-58
-1.03998e-65
1.00348e-61
-2.0684e-58
1.00209e-61
-2.06528e-58
7.08191e-62
1.32766e-57
-1.95647e-54
-5.03162e-63
1.32996e-57
-1.95987e-54
-4.21154e-62
1.32995e-57
-1.95977e-54
-6.53655e-62
1.33022e-57
-1.96005e-54
-8.10206e-62
1.33107e-57
-1.96111e-54
1.32927e-57
-1.95815e-54
3.5183e-58
1.04872e-53
-1.25933e-50
8.3642e-59
1.05035e-53
-1.26123e-50
-9.77562e-59
1.05028e-53
-1.26107e-50
-2.59614e-58
1.05044e-53
-1.26117e-50
-3.52395e-58
1.05105e-53
-1.26176e-50
1.04965e-53
-1.25988e-50
2.4239e-54
5.65493e-50
-5.85787e-47
1.56265e-54
5.66136e-50
-5.86403e-47
4.1577e-55
5.66014e-50
-5.8624e-47
-7.89985e-55
5.66035e-50
-5.86218e-47
-1.30164e-54
5.66315e-50
-5.86444e-47
5.65571e-50
-5.85594e-47
1.24803e-50
2.052e-46
-1.84231e-43
7.21927e-51
2.05287e-46
-1.84294e-43
-1.04742e-51
2.05192e-46
-1.84201e-43
-7.88023e-51
2.05178e-46
-1.84179e-43
-8.86157e-51
2.05274e-46
-1.84251e-43
2.05038e-46
-1.84023e-43
2.77985e-47
4.42079e-43
-3.32776e-40
1.08174e-48
4.4181e-43
-3.32573e-40
-3.10406e-47
4.41493e-43
-3.32337e-40
-5.20751e-47
4.41472e-43
-3.32322e-40
-4.71649e-47
4.4177e-43
-3.32541e-40
4.41487e-43
-3.32325e-40
2.09843e-44
4.86279e-40
-2.78688e-37
-3.02663e-44
4.85319e-40
-2.78179e-37
-8.32237e-44
4.84855e-40
-2.77944e-37
-1.12505e-43
4.8494e-40
-2.78014e-37
-9.57256e-44
4.85528e-40
-2.78366e-37
4.85648e-40
-2.78461e-37
-1.53936e-42
2.53239e-37
-7.85938e-35
-3.70949e-41
2.52358e-37
-7.82929e-35
-6.95826e-41
2.52077e-37
-7.8221e-35
-8.46199e-41
2.52241e-37
-7.82987e-35
-6.89829e-41
2.52787e-37
-7.85029e-35
2.53183e-37
-7.86822e-35
-8.24905e-39
8.25561e-35
4.16776e-36
-1.9779e-38
8.25775e-35
4.17622e-36
-2.82355e-38
8.25603e-35
4.17332e-36
-3.06648e-38
8.26017e-35
4.17015e-36
-2.35398e-38
8.27152e-35
4.16793e-36
8.2728e-35
4.15759e-36
-1.70551e-35
5.2386e-32
1.60935e-32
-2.33644e-35
5.24762e-32
1.61124e-32
-2.58635e-35
5.24827e-32
1.61098e-32
-2.45854e-35
5.25091e-32
1.61133e-32
-1.7301e-35
5.25718e-32
1.61268e-32
5.25709e-32
1.61184e-32
-3.61086e-33
2.49832e-29
-3.39099e-33
2.50354e-29
-2.45581e-33
2.50356e-29
-8.79654e-34
2.50355e-29
5.6518e-34
2.50427e-29
2.50089e-29
2.9889e-66
1.14307e-62
-3.82568e-59
9.08489e-68
1.14503e-62
-3.83278e-59
-1.23379e-66
1.14496e-62
-3.83251e-59
-1.96899e-66
1.14507e-62
-3.83289e-59
-2.525e-66
1.14568e-62
-3.83469e-59
1.14372e-62
-3.82786e-59
2.7472e-62
4.07231e-58
-7.31098e-55
-1.52272e-62
4.07954e-58
-7.3246e-55
-3.13277e-62
4.07936e-58
-7.32419e-55
-4.56625e-62
4.07997e-58
-7.32505e-55
-5.9478e-62
4.08221e-58
-7.32852e-55
4.07587e-58
-7.31614e-55
1.19544e-58
5.62117e-54
-7.31815e-51
-1.71299e-58
5.63084e-54
-7.33117e-51
-2.89474e-58
5.63054e-54
-7.33064e-51
-3.92015e-58
5.63127e-54
-7.33127e-51
-4.84769e-58
5.63422e-54
-7.33446e-51
5.62561e-54
-7.32217e-51
2.32716e-55
4.66614e-50
-4.94293e-47
-9.89448e-55
4.67347e-50
-4.95084e-47
-1.62442e-54
4.67299e-50
-4.95022e-47
-2.11893e-54
4.67336e-50
-4.95036e-47
-2.38113e-54
4.67551e-50
-4.95219e-47
4.66847e-50
-4.94404e-47
-7.07544e-52
2.64043e-46
-2.36039e-43
-5.63032e-51
2.64385e-46
-2.36348e-43
-9.50407e-51
2.6433e-46
-2.36295e-43
-1.16806e-50
2.64328e-46
-2.36283e-43
-1.04038e-50
2.64427e-46
-2.36355e-43
2.64036e-46
-2.35979e-43
-9.04187e-48
9.82336e-43
-7.38516e-40
-3.97085e-47
9.83182e-43
-7.39193e-40
-6.57732e-47
9.82828e-43
-7.38933e-40
-7.60765e-47
9.82742e-43
-7.38859e-40
-5.93606e-47
9.83072e-43
-7.39082e-40
9.81719e-43
-7.38015e-40
-6.84896e-44
2.01484e-39
-1.27085e-36
-1.81612e-43
2.01519e-39
-1.27133e-36
-2.64074e-43
2.0141e-39
-1.27074e-36
-2.89477e-43
2.01392e-39
-1.27067e-36
-2.22184e-43
2.01481e-39
-1.27124e-36
2.0127e-39
-1.26988e-36
-1.66521e-40
1.89932e-36
-1.00343e-33
-3.11341e-40
1.89794e-36
-1.00325e-33
-3.99295e-40
1.89662e-36
-1.00276e-33
-4.09918e-40
1.89666e-36
-1.00288e-33
-3.07392e-40
1.89807e-36
-1.00365e-33
1.89711e-36
-1.00311e-33
-1.1686e-37
8.10574e-34
-3.05727e-31
-1.71343e-37
8.08932e-34
-3.05442e-31
-1.9501e-37
8.08197e-34
-3.05293e-31
-1.87743e-37
8.08415e-34
-3.05428e-31
-1.35742e-37
8.09489e-34
-3.05838e-31
8.09809e-34
-3.05945e-31
-1.65781e-35
1.39687e-31
2.99293e-33
-2.39942e-35
1.39504e-31
3.0053e-33
-2.93945e-35
1.39423e-31
3.00005e-33
-3.04286e-35
1.39482e-31
2.99009e-33
-2.32731e-35
1.39688e-31
2.97603e-33
1.39779e-31
2.94979e-33
-1.92736e-32
9.21263e-29
4.07706e-29
-1.99483e-32
9.22483e-29
4.08014e-29
-1.92561e-32
9.22471e-29
4.07915e-29
-1.83329e-32
9.22787e-29
4.07972e-29
-1.34432e-32
9.23735e-29
4.08252e-29
9.23675e-29
4.07965e-29
-1.70167e-30
5.30645e-26
-9.36655e-31
5.31589e-26
5.81843e-31
5.31533e-26
2.09254e-30
5.31481e-26
2.55114e-30
5.31576e-26
5.30835e-26
3.42353e-63
1.83226e-59
-3.95782e-56
-5.5215e-64
1.8355e-59
-3.96534e-56
-2.34777e-63
1.83537e-59
-3.96504e-56
-3.31477e-63
1.83552e-59
-3.96528e-56
-4.10777e-63
1.83637e-59
-3.96679e-56
1.8331e-59
-3.95926e-56
2.74639e-59
6.90312e-55
-8.86944e-52
-3.30091e-59
6.91561e-55
-8.88616e-52
-5.58865e-59
6.91522e-55
-8.88556e-52
-7.52037e-59
6.91599e-55
-8.88613e-52
-9.43824e-59
6.91926e-55
-8.88944e-52
6.9078e-55
-8.8732e-52
1.07107e-55
1.00172e-50
-1.01078e-47
-3.55771e-55
1.00348e-50
-1.0126e-47
-5.58312e-55
1.00342e-50
-1.01251e-47
-7.11189e-55
1.0035e-50
-1.01254e-47
-8.33121e-55
1.00394e-50
-1.01288e-47
1.00229e-50
-1.01105e-47
-2.66038e-52
8.60739e-47
-7.35816e-44
-2.85281e-51
8.62156e-47
-7.3704e-44
-4.19409e-51
8.62061e-47
-7.36943e-44
-4.93327e-51
8.62092e-47
-7.36933e-44
-5.08027e-51
8.62411e-47
-7.37144e-44
8.61e-47
-7.35839e-44
-8.1122e-48
4.91832e-43
-3.55946e-40
-2.03839e-47
4.92552e-43
-3.56473e-40
-2.70632e-47
4.92463e-43
-3.56404e-40
-2.8331e-47
4.92447e-43
-3.56381e-40
-2.28712e-47
4.92593e-43
-3.56467e-40
4.91802e-43
-3.55856e-40
-6.61365e-44
1.83643e-39
-1.08962e-36
-1.21861e-43
1.8387e-39
-1.09101e-36
-1.49986e-43
1.83822e-39
-1.09073e-36
-1.46151e-43
1.83806e-39
-1.09063e-36
-1.01507e-43
1.83853e-39
-1.09089e-36
1.83568e-39
-1.08912e-36
-2.35813e-40
4.108e-36
-1.90147e-33
-3.7725e-40
4.11174e-36
-1.90343e-33
-4.37587e-40
4.11035e-36
-1.90286e-33
-4.12787e-40
4.10997e-36
-1.90272e-33
-2.8674e-40
4.11117e-36
-1.90328e-33
4.10554e-36
-1.90059e-33
-2.81461e-37
4.96812e-33
-1.66088e-30
-3.88179e-37
4.97056e-33
-1.66217e-30
-4.17176e-37
4.96852e-33
-1.66165e-30
-3.79354e-37
4.9683e-33
-1.66163e-30
-2.69547e-37
4.97037e-33
-1.66229e-30
4.96489e-33
-1.66033e-30
-6.51201e-36
2.97508e-30
-6.41642e-28
7.62747e-36
2.9751e-30
-6.41941e-28
-2.04832e-35
2.97368e-30
-6.41725e-28
-4.72827e-35
2.9738e-30
-6.41763e-28
-4.76005e-35
2.97562e-30
-6.42103e-28
2.97348e-30
-6.41532e-28
1.82581e-32
5.58133e-28
-2.93467e-26
5.83157e-32
5.57661e-28
-2.93198e-26
7.34158e-32
5.5739e-28
-2.93076e-26
6.73578e-32
5.57599e-28
-2.93248e-26
4.13997e-32
5.58336e-28
-2.93738e-26
5.58584e-28
-2.94077e-26
9.06071e-30
1.68886e-25
5.3312e-26
2.78409e-29
1.69118e-25
5.33656e-26
4.24688e-29
1.69111e-25
5.33583e-26
4.65586e-29
1.69143e-25
5.33664e-26
3.5331e-29
1.6927e-25
5.33995e-26
1.69206e-25
5.33604e-26
-4.30975e-27
5.10257e-23
-3.94777e-27
5.11037e-23
-1.8204e-27
5.10948e-23
3.83667e-28
5.10867e-23
1.38049e-27
5.10912e-23
5.10166e-23
9.1173e-61
1.15761e-56
-2.76206e-53
-9.0932e-61
1.15976e-56
-2.76733e-53
-1.57681e-60
1.15968e-56
-2.76706e-53
-1.87641e-60
1.15974e-56
-2.76715e-53
-2.05242e-60
1.16018e-56
-2.76809e-53
1.15795e-56
-2.76253e-53
4.8442e-57
5.14171e-52
-6.60774e-49
-2.97865e-56
5.15128e-52
-6.62029e-49
-4.22507e-56
5.15093e-52
-6.61967e-49
-5.176e-56
5.15124e-52
-6.61992e-49
-6.08341e-56
5.15316e-52
-6.62215e-49
5.14379e-52
-6.60934e-49
-9.52557e-53
8.60195e-48
-7.56667e-45
-4.25162e-52
8.61732e-48
-7.58055e-45
-5.40742e-52
8.61653e-48
-7.57974e-45
-6.05836e-52
8.61679e-48
-7.57983e-45
-6.45856e-52
8.61968e-48
-7.58216e-45
8.60421e-48
-7.56771e-45
-2.55034e-48
8.19845e-44
-5.25024e-41
-4.78728e-48
8.212e-44
-5.25937e-41
-5.1914e-48
8.21092e-44
-5.25866e-41
-4.91238e-48
8.2108e-44
-5.25856e-41
-4.12341e-48
8.21313e-44
-5.25998e-41
8.19881e-44
-5.25019e-41
-1.96929e-44
4.91872e-40
-2.32604e-37
-3.25712e-44
4.92631e-40
-2.32985e-37
-3.44573e-44
4.92543e-40
-2.32946e-37
-3.05798e-44
4.92514e-40
-2.32935e-37
-2.33385e-44
4.92628e-40
-2.3299e-37
4.91775e-40
-2.32568e-37
-1.32726e-40
1.81886e-36
-6.37661e-34
-1.68886e-40
1.82141e-36
-6.3864e-34
-1.50597e-40
1.82101e-36
-6.38519e-34
-1.08357e-40
1.82083e-36
-6.38475e-34
-5.84457e-41
1.82119e-36
-6.38611e-34
1.81811e-36
-6.37496e-34
-3.13873e-37
3.69024e-33
-9.85593e-31
-3.44243e-37
3.69467e-33
-9.86991e-31
-2.63252e-37
3.69366e-33
-9.8679e-31
-1.50451e-37
3.69324e-33
-9.86717e-31
-6.4602e-38
3.69395e-33
-9.86928e-31
3.68806e-33
-9.85298e-31
-3.3659e-34
3.53893e-30
-7.68683e-28
-2.40222e-34
3.54231e-30
-7.69697e-28
-6.67275e-35
3.5412e-30
-7.69542e-28
7.86083e-35
3.54082e-30
-7.69493e-28
1.21949e-34
3.54161e-30
-7.69665e-28
3.53647e-30
-7.6847e-28
-1.20097e-31
1.61568e-27
-2.94449e-25
4.23007e-33
1.61676e-27
-2.94808e-25
1.32451e-31
1.6162e-27
-2.94752e-25
2.02842e-31
1.61607e-27
-2.94736e-25
1.75682e-31
1.61653e-27
-2.948e-25
1.61451e-27
-2.94376e-25
-2.15869e-29
3.34668e-25
-4.13096e-23
2.35517e-29
3.34734e-25
-4.1355e-23
7.07856e-29
3.34599e-25
-4.13474e-23
9.14342e-29
3.34613e-25
-4.13454e-23
7.12719e-29
3.34799e-25
-4.13547e-23
3.34557e-25
-4.13037e-23
-3.02896e-28
5.14423e-23
1.95655e-23
3.88463e-27
5.15052e-23
1.95838e-23
7.81634e-27
5.14992e-23
1.95795e-23
8.76224e-27
5.15035e-23
1.95797e-23
6.53739e-27
5.15283e-23
1.95852e-23
5.14832e-23
1.95619e-23
-2.07087e-24
1.45447e-20
-2.19488e-24
1.45615e-20
-1.66265e-24
1.45578e-20
-8.38568e-25
1.45553e-20
-6.56106e-27
1.45558e-20
1.45343e-20
5.96822e-07
-1.77353e-05
0.00402007
5.6687e-07
-1.77137e-05
0.00402038
1.09901e-06
-1.7708e-05
0.0040207
1.42113e-06
-1.77328e-05
0.00402023
5.05162e-07
-1.77344e-05
0.00402019
-1.76654e-05
0.00402184
5.31763e-12
2.28355e-13
-1.77353e-05
8.81184e-12
2.50141e-13
-1.77137e-05
4.57337e-12
2.56756e-13
-1.7708e-05
1.24763e-11
2.51042e-13
-1.77328e-05
3.11424e-11
2.49565e-13
-1.77345e-05
2.55511e-13
-1.76653e-05
3.36109e-18
6.06177e-14
2.21559e-18
6.64025e-14
1.20309e-18
6.81596e-14
2.18157e-18
6.6643e-14
2.58253e-18
6.62512e-14
6.78319e-14
-7.72993e-09
-0.00145059
4.90535e-06
-2.94189e-09
-0.00145058
4.89694e-06
1.84033e-09
-0.00145059
4.89523e-06
1.92938e-09
-0.00145051
4.89779e-06
1.10172e-09
-0.00145055
4.90099e-06
-0.00145085
4.89963e-06
-3.40821e-08
8.68594e-13
-1.15521e-05
-1.44625e-08
9.51418e-13
-1.15577e-05
5.29862e-09
9.76594e-13
-1.15626e-05
3.06107e-10
9.54862e-13
-1.16205e-05
-9.64274e-09
9.49236e-13
-1.16551e-05
9.71855e-13
-1.15388e-05
4.84124e-19
5.93722e-13
6.1148e-18
6.50336e-13
7.42061e-18
6.6756e-13
6.27584e-18
6.52708e-13
8.37637e-18
6.48861e-13
6.6434e-13
-4.89161e-11
-1.32161e-05
-9.82764e-07
2.46634e-11
-1.32108e-05
-9.82844e-07
2.93372e-11
-1.32151e-05
-9.82824e-07
5.32514e-11
-1.32049e-05
-9.82758e-07
1.1646e-10
-1.31945e-05
-9.82685e-07
-1.32196e-05
-9.82587e-07
-3.77707e-11
8.70573e-13
-5.79411e-06
-2.63941e-11
9.53598e-13
-5.79407e-06
-6.96895e-11
9.7878e-13
-5.79511e-06
-9.31727e-11
9.56985e-13
-5.79314e-06
1.27621e-11
9.51368e-13
-5.79101e-06
9.73977e-13
-5.79563e-06
-9.16648e-18
5.49125e-13
-2.22557e-18
6.01443e-13
-4.43805e-18
6.17378e-13
-4.96939e-18
6.0364e-13
4.47827e-19
6.00088e-13
6.14408e-13
3.48182e-11
-4.91488e-06
-1.37312e-06
-2.57007e-11
-4.91487e-06
-1.37308e-06
-7.09808e-11
-4.91461e-06
-1.37304e-06
-7.25601e-11
-4.91497e-06
-1.37296e-06
-2.18949e-11
-4.91543e-06
-1.37288e-06
-4.91465e-06
-1.3728e-06
-9.24367e-11
3.75095e-12
-2.92056e-06
-2.22228e-10
4.10868e-12
-2.92065e-06
-2.35442e-10
4.21727e-12
-2.92081e-06
-2.03931e-10
4.12338e-12
-2.92103e-06
-1.30953e-10
4.09915e-12
-2.92119e-06
4.19647e-12
-2.92101e-06
-2.35547e-17
6.00595e-17
2.40663e-18
7.13545e-17
2.78213e-17
8.06579e-17
4.88522e-17
7.6903e-17
5.50631e-17
7.32147e-17
-7.2381e-22
-3.80477e-11
-1.78296e-06
-1.0066e-11
-3.14448e-11
-1.78273e-06
-1.0084e-11
-1.81083e-11
-1.78267e-06
-1.00773e-11
-8.19925e-12
-1.78259e-06
-1.00732e-11
1.87533e-11
-1.78253e-06
-1.00784e-11
-1.7825e-06
-1.0053e-11
-7.04107e-11
6.79416e-16
-6.7362e-16
-1.53934e-10
8.07259e-16
-6.73749e-16
-1.67153e-10
9.12435e-16
-6.73822e-16
-1.15573e-10
8.69927e-16
-6.74565e-16
-4.20547e-11
8.28188e-16
-6.76132e-16
-3.77324e-19
-6.75609e-16
2.68056e-21
-3.77552e-19
1.15355e-20
-3.77834e-19
1.87586e-20
-3.77968e-19
2.05252e-20
-3.78068e-19
-1.58226e-25
-3.78173e-19
-3.78048e-19
-1.88592e-17
-5.1566e-17
-1.0745e-11
-1.24144e-17
-5.15828e-17
-1.07641e-11
-3.22362e-18
-5.15984e-17
-1.07571e-11
4.57173e-18
-5.1622e-17
-1.07527e-11
1.07135e-17
-5.16634e-17
-1.07583e-11
-5.16397e-17
-1.07312e-11
-7.75034e-22
-3.78495e-17
-6.51614e-16
-1.46633e-21
-3.78756e-17
-6.51723e-16
-1.46207e-21
-3.78831e-17
-6.51791e-16
-9.109e-22
-3.78905e-17
-6.52546e-16
-4.04015e-23
-3.79012e-17
-6.54141e-16
-3.78808e-17
-6.53626e-16
-2.37632e-22
-2.50509e-18
-5.04077e-22
-2.51e-18
-6.65362e-22
-2.51165e-18
-7.17947e-22
-2.51455e-18
-6.45706e-22
-2.51368e-18
-2.51756e-18
3.11372e-16
-1.92479e-14
-2.5498e-11
1.60367e-15
-1.92621e-14
-2.55354e-11
2.19015e-15
-1.92561e-14
-2.55216e-11
2.48454e-15
-1.92674e-14
-2.55105e-11
2.43337e-15
-1.93065e-14
-2.55189e-11
-1.92769e-14
-2.54642e-11
-1.23349e-19
-1.28595e-16
-1.97072e-14
-7.48848e-20
-1.2883e-16
-1.97213e-14
1.17931e-20
-1.28915e-16
-1.97152e-14
1.05331e-19
-1.29075e-16
-1.97271e-14
2.46514e-19
-1.2905e-16
-1.9768e-14
-1.2927e-16
-1.97372e-14
-1.69999e-21
-1.36689e-16
-1.38989e-21
-1.3689e-16
-7.10313e-22
-1.36958e-16
-6.43389e-23
-1.371e-16
2.4968e-22
-1.3707e-16
-1.37257e-16
1.27331e-13
-9.19705e-12
-5.32e-09
1.74567e-13
-9.21234e-12
-5.32448e-09
1.64398e-13
-9.20344e-12
-5.32284e-09
1.51802e-13
-9.20111e-12
-5.32191e-09
1.52853e-13
-9.21584e-12
-5.32027e-09
-9.18724e-12
-5.31583e-09
-1.90929e-17
-2.17118e-13
-8.99052e-12
-2.13177e-17
-2.17524e-13
-9.00541e-12
-1.99297e-17
-2.17585e-13
-8.99643e-12
-3.82312e-18
-2.17834e-13
-8.99389e-12
4.41954e-17
-2.1791e-13
-9.00863e-12
-2.18151e-13
-8.97967e-12
-1.28785e-18
-2.17347e-13
-1.07482e-18
-2.17755e-13
-7.12786e-19
-2.17817e-13
-6.80399e-20
-2.18066e-13
8.6652e-19
-2.18142e-13
-2.18382e-13
1.85012e-11
-6.52376e-09
1.87788e-07
2.25408e-11
-6.5157e-09
1.87796e-07
2.18099e-11
-6.5144e-09
1.87822e-07
2.00355e-11
-6.51994e-09
1.87833e-07
1.67569e-12
-6.53734e-09
1.87823e-07
-6.53136e-09
1.87696e-07
-1.76046e-14
-4.41799e-10
-6.0873e-09
-1.7805e-14
-4.41834e-10
-6.07923e-09
-3.1585e-14
-4.41894e-10
-6.07785e-09
-1.63852e-14
-4.4225e-10
-6.08306e-09
6.11183e-16
-4.42358e-10
-6.10037e-09
-4.43155e-10
-6.09354e-09
-1.74689e-14
-4.41999e-10
-1.7645e-14
-4.42052e-10
-2.12156e-14
-4.42108e-10
-1.58987e-14
-4.42473e-10
-7.21242e-15
-4.42585e-10
-4.4338e-10
1.59515e-10
-2.36875e-07
1.32459e-05
2.21249e-10
-2.36754e-07
1.32512e-05
2.12886e-10
-2.36735e-07
1.32533e-05
2.85084e-10
-2.36709e-07
1.32528e-05
4.73779e-10
-2.36868e-07
1.32416e-05
-2.36533e-07
1.32571e-05
5.51529e-12
-1.69521e-07
2.79821e-07
5.73253e-12
-1.69404e-07
2.7968e-07
-2.50607e-12
-1.69435e-07
2.7989e-07
2.47027e-12
-1.69463e-07
2.79814e-07
4.7071e-11
-1.69515e-07
2.78926e-07
-1.69624e-07
2.81495e-07
-6.66585e-12
1.31236e-10
-9.13579e-12
5.4555e-11
-1.22977e-11
9.93686e-11
-1.40035e-11
4.77685e-11
-8.25599e-12
5.29608e-11
5.89982e-11
5.50455e-09
3.027e-05
0.000828431
9.70787e-09
3.02862e-05
0.00082855
7.41516e-09
3.02945e-05
0.000828577
6.32039e-09
3.02946e-05
0.000828581
-2.29853e-08
3.01888e-05
0.000828147
3.03981e-05
0.000828738
1.46425e-10
-1.07337e-06
3.19636e-05
1.39401e-10
-1.07092e-06
3.19772e-05
2.75098e-10
-1.07105e-06
3.19858e-05
2.13507e-10
-1.07085e-06
3.19857e-05
-2.44707e-09
-1.06982e-06
3.18801e-05
-1.07437e-06
3.20931e-05
1.89728e-10
3.29755e-05
1.95028e-10
3.29738e-05
3.40723e-10
3.29793e-05
3.73483e-10
3.29824e-05
-2.63799e-09
3.302e-05
3.29587e-05
-8.28944e-07
0.00637388
0.0188439
2.57867e-07
0.0063749
0.0188421
5.28984e-07
0.00637462
0.0188423
8.75989e-07
0.00637458
0.0188429
-3.41057e-05
0.00639329
0.0188854
0.00635381
0.0187939
1.64123e-07
0.000689624
0.00571574
3.94327e-08
0.00068975
0.00571694
2.64473e-07
0.000689756
0.00571631
1.22496e-08
0.000689858
0.00571665
-4.70688e-06
0.000691184
0.0057384
0.000688271
0.00569261
2.73208e-08
0.000447988
1.74693e-09
0.000448164
2.32744e-08
0.000448102
1.25166e-08
0.000448171
-3.30199e-07
0.00044977
0.00044637
-2.94254e-19
-2.55042e-13
3.95496e-14
-9.23816e-17
-3.4495e-19
-2.55421e-13
3.96255e-14
-9.24955e-17
-1.05192e-20
-2.55339e-13
3.96032e-14
-9.24829e-17
-1.27119e-19
-2.55171e-13
3.95785e-14
-9.24701e-17
5.05375e-19
-2.56508e-13
3.98177e-14
-9.226e-17
-2.53282e-13
3.9228e-14
-9.21934e-17
1.41848e-17
-2.69514e-11
1.24435e-11
-9.99117e-15
4.42932e-18
-2.69971e-11
1.24732e-11
-1.00005e-14
5.32577e-17
-2.69859e-11
1.24631e-11
-1.00051e-14
2.33276e-17
-2.69677e-11
1.24559e-11
-1.00049e-14
1.94344e-16
-2.71888e-11
1.25821e-11
-9.93064e-15
-2.66839e-11
1.22908e-11
-9.8745e-15
-6.53502e-16
-2.55603e-11
-1.91648e-12
8.8788e-16
-2.56122e-11
-1.90997e-12
4.25447e-15
-2.56025e-11
-1.90642e-12
3.28349e-15
-2.55792e-11
-1.90644e-12
1.22173e-14
-2.58194e-11
-1.94833e-12
-2.52952e-11
-1.96652e-12
4.97206e-18
-9.22825e-11
8.49375e-11
-2.49591e-17
-9.24412e-11
8.50746e-11
-2.42974e-18
-9.24062e-11
8.50373e-11
-3.36573e-17
-9.23415e-11
8.49922e-11
-7.14363e-17
-9.30733e-11
8.56274e-11
-9.13856e-11
8.41569e-11
1.09583e-14
-4.97007e-09
3.46728e-09
5.26757e-16
-4.97827e-09
3.47209e-09
5.86126e-15
-4.97589e-09
3.46949e-09
-1.33177e-15
-4.97345e-09
3.46994e-09
8.76438e-14
-5.01323e-09
3.48982e-09
-4.92324e-09
3.4441e-09
-3.1434e-13
-4.99532e-09
1.13006e-13
-5.00431e-09
8.75447e-13
-5.00225e-09
6.37411e-13
-4.99879e-09
4.66964e-12
-5.04308e-09
-4.94388e-09
-2.68174e-15
-5.20543e-09
5.27297e-09
-5.4686e-15
-5.20639e-09
5.27403e-09
-3.49965e-15
-5.20587e-09
5.27348e-09
-2.52883e-15
-5.20519e-09
5.27278e-09
2.36951e-14
-5.23913e-09
5.30713e-09
-5.15835e-09
5.22537e-09
3.0004e-12
-7.55614e-07
7.53119e-07
5.10284e-13
-7.56467e-07
7.53981e-07
-1.54282e-13
-7.56115e-07
7.53626e-07
4.06755e-13
-7.56025e-07
7.53536e-07
8.88484e-12
-7.60963e-07
7.58443e-07
-7.49948e-07
7.47497e-07
-3.18537e-11
-7.60574e-07
4.41313e-11
-7.61547e-07
1.48e-11
-7.61089e-07
7.73936e-11
-7.61083e-07
1.78099e-09
-7.67685e-07
-7.53113e-07
1.70014e-11
-4.46944e-07
7.63123e-07
1.21937e-11
-4.4634e-07
7.62796e-07
1.04685e-11
-4.46208e-07
7.62743e-07
8.69272e-12
-4.46723e-07
7.62921e-07
-1.96001e-10
-4.55932e-07
7.70738e-07
-4.3652e-07
7.5326e-07
3.69794e-09
3.3719e-06
-3.13405e-06
5.22604e-10
3.38101e-06
-3.13486e-06
-3.25012e-09
3.37586e-06
-3.12932e-06
-1.9488e-09
3.37655e-06
-3.13569e-06
1.89849e-08
3.4506e-06
-3.23429e-06
3.2863e-06
-3.02029e-06
6.0128e-09
-0.00026017
1.1586e-09
-0.00026046
-1.23926e-08
-0.000260303
-4.25271e-09
-0.000260325
1.08484e-07
-0.00026232
-0.000257945
4.71778e-12
2.12085e-07
7.31177e-07
6.43185e-12
2.11947e-07
7.30458e-07
-1.01614e-11
2.11903e-07
7.30532e-07
5.74968e-12
2.11971e-07
7.30243e-07
5.94654e-11
2.14884e-07
7.39942e-07
2.08847e-07
7.30754e-07
8.52339e-08
0.00244898
-0.00417996
-1.59431e-07
0.00245037
-0.00418092
-3.44806e-07
0.0024495
-0.00417982
-3.70782e-07
0.00244985
-0.00418088
2.77654e-07
0.00246424
-0.00420435
0.00243318
-0.00415428
4.85814e-08
-0.00110719
-1.09768e-07
-0.00110792
-2.78002e-07
-0.00110752
-2.93512e-07
-0.00110772
7.04104e-07
-0.00111357
-0.00110096
1.31434e-07
0.00871552
-1.69293e-07
0.0087155
1.19503e-06
0.0087149
9.3826e-09
0.0087159
-1.5944e-05
0.00874519
0.00868438
6.43652e-08
0.00305623
-3.82262e-07
0.00305734
2.14717e-07
0.00305689
-1.22322e-06
0.00305738
-6.70841e-06
0.003068
0.00304533
2.94572e-08
-1.11711e-07
-1.29242e-07
-1.82396e-07
-6.46996e-07
1.5144e-58
-5.53954e-55
4.49557e-54
-4.69222e-58
-5.55075e-55
4.50397e-54
-6.82264e-58
-5.55066e-55
4.50354e-54
-7.73472e-58
-5.55086e-55
4.50366e-54
-8.20082e-58
-5.55241e-55
4.50518e-54
-5.54079e-55
4.49609e-54
2.52715e-60
-2.41322e-58
4.9338e-56
-4.08701e-60
-2.41836e-58
4.94365e-56
-7.45804e-60
-2.41829e-58
4.94359e-56
-1.00026e-59
-2.41839e-58
4.94375e-56
-1.24681e-59
-2.41911e-58
4.94511e-56
-2.41385e-58
4.93472e-56
3.00662e-65
6.85944e-60
-8.09792e-64
6.87395e-60
-1.24977e-63
6.87376e-60
-1.72005e-63
6.87401e-60
-2.29067e-63
6.87604e-60
6.861e-60
-3.56428e-54
-2.68738e-50
2.12261e-49
-1.54529e-53
-2.69269e-50
2.1266e-49
-1.89909e-53