/*--------------------------------*- C++ -*----------------------------------*\
| =========                 |                                                 |
| \\      /  F ield         | OpenFOAM: The Open Source CFD Toolbox           |
|  \\    /   O peration     | Version:  v1612+                                |
|   \\  /    A nd           | Web:      www.OpenFOAM.com                      |
|    \\/     M anipulation  |                                                 |
\*---------------------------------------------------------------------------*/
FoamFile
{
    version     2.0;
    format      ascii;
    class       volScalarField;
    location    "1.95";
    object      p;
}
// * * * * * * * * * * * * * * * * * * * * * * * * * * * * * * * * * * * * * //

dimensions      [1 -1 -2 0 0 0 0];

internalField   nonuniform List<scalar> 
1116
(
30195.3
30195.4
30195.3
30195.3
30195.3
30195.3
28663.8
28663.8
28663.8
28663.8
28663.8
28663.8
24370.3
24370.3
24370.3
24370.3
24370.3
24370.3
20077.2
20077.2
20077.2
20077.2
20077.2
20077.2
16488.6
16488.6
16488.6
16488.6
16488.6
16488.6
13573.1
13573.1
13573.1
13573.1
13573.1
13573.1
10902.6
10902.6
10902.6
10902.6
10902.6
10902.6
8392.91
8392.91
8392.9
8392.89
8392.89
8392.87
7162.25
7162.26
7162.21
7162.2
7162.21
7162.15
9525.72
9525.72
9525.67
9525.63
9525.61
9525.62
16743.3
16743.3
16743.3
16743.3
16743.4
16743.4
28304.7
28304.9
28304.9
28305
28305.2
28305
19927.8
19927.8
19927.8
19927.8
19927.8
19927.8
17255.2
17255.2
17255.2
17255.2
17255.2
17255.2
12363.7
12363.7
12363.7
12363.7
12363.7
12363.7
8253.19
8253.18
8253.17
8253.18
8253.17
8253.17
4600.23
4600.18
4600.19
4600.2
4600.18
4600.19
3172.12
3172.08
3172.08
3172.08
3172.07
3172.06
2001.52
2001.47
2001.47
2001.48
2001.47
2001.45
988.6
988.561
988.556
988.555
988.552
988.531
271.291
271.278
271.262
271.252
271.253
271.251
368.054
368.06
368.049
368.045
368.059
368.085
1888.94
1888.97
1888.95
1888.95
1889.1
1888.97
11832
11832.1
11832
11832.1
11832
11832.3
10098.3
10098.3
10098.3
10098.3
10098.3
10098.4
4636.44
4636.41
4636.43
4636.45
4636.47
4636.51
1992.59
1992.55
1992.56
1992.57
1992.57
1992.6
814.665
814.642
814.651
814.662
814.662
814.672
4.59051
4.58609
4.58659
4.58774
4.58727
4.58688
-52.9372
-52.9371
-52.9365
-52.9359
-52.9357
-52.9352
-37.2199
-37.2168
-37.2147
-37.2132
-37.2124
-37.2117
-1.09829
-1.0967
-1.09493
-1.09422
-1.09441
-1.09448
42.152
42.1509
42.1512
42.1492
42.1472
42.145
108.947
108.942
108.938
108.934
108.932
108.929
314.614
314.62
314.604
314.594
314.619
314.614
1557.42
1557.64
1557.53
1557.65
1557.6
1557.81
3060.87
3060.87
3060.89
3060.89
3060.89
3060.92
51.4815
51.4823
51.4827
51.4831
51.4846
51.4865
-46.3534
-46.3513
-46.351
-46.3506
-46.3502
-46.3503
-37.067
-37.0667
-37.0667
-37.0666
-37.0667
-37.0673
-18.6748
-18.6749
-18.6747
-18.6745
-18.6744
-18.6745
-17.1632
-17.1634
-17.1635
-17.1635
-17.1635
-17.1638
-23.9582
-23.958
-23.9577
-23.9572
-23.9569
-23.9568
-16.3397
-16.3388
-16.3382
-16.3378
-16.3379
-16.3379
-5.72379
-5.72296
-5.72212
-5.72206
-5.72246
-5.72362
32.7252
32.723
32.7202
32.7176
32.7159
32.714
1.54314
1.54858
1.55219
1.54977
1.55978
1.53931
187.363
187.355
187.346
187.385
187.434
187.311
-5.05032
-5.05032
-5.05032
-5.05032
-5.05032
-5.05031
-5.05641
-5.05641
-5.05641
-5.05641
-5.0564
-5.0564
-5.0688
-5.0688
-5.0688
-5.0688
-5.0688
-5.0688
-5.08791
-5.0879
-5.0879
-5.0879
-5.0879
-5.08791
-5.1143
-5.11431
-5.11431
-5.11431
-5.11431
-5.11431
-5.14873
-5.14873
-5.14873
-5.14873
-5.14873
-5.14872
-5.1921
-5.1921
-5.19209
-5.19208
-5.19207
-5.19206
-5.2464
-5.24639
-5.24637
-5.24635
-5.24633
-5.24632
-5.3111
-5.31107
-5.31104
-5.311
-5.31098
-5.31096
-5.38508
-5.38505
-5.38501
-5.38498
-5.38495
-5.38494
-5.45244
-5.45242
-5.4524
-5.45238
-5.45237
-5.45237
-5.52448
-5.52449
-5.52451
-5.52452
-5.52453
-5.52454
-14.854
-14.854
-14.854
-14.854
-14.854
-14.854
-14.8602
-14.8602
-14.8602
-14.8602
-14.8602
-14.8602
-14.8729
-14.8729
-14.8729
-14.8729
-14.8729
-14.8729
-14.8925
-14.8925
-14.8925
-14.8925
-14.8925
-14.8925
-14.9197
-14.9197
-14.9197
-14.9197
-14.9197
-14.9197
-14.9551
-14.9551
-14.9551
-14.9551
-14.9551
-14.9551
-14.9982
-14.9982
-14.9982
-14.9982
-14.9982
-14.9981
-15.0463
-15.0463
-15.0463
-15.0463
-15.0462
-15.0462
-15.0988
-15.0987
-15.0987
-15.0987
-15.0987
-15.0986
-15.158
-15.158
-15.158
-15.158
-15.158
-15.158
-15.2275
-15.2275
-15.2275
-15.2275
-15.2276
-15.2276
-15.3257
-15.3257
-15.3258
-15.3258
-15.3258
-15.3259
-24.6518
-24.6518
-24.6518
-24.6518
-24.6518
-24.6518
-24.6578
-24.6578
-24.6578
-24.6578
-24.6578
-24.6578
-24.6702
-24.6702
-24.6702
-24.6702
-24.6702
-24.6702
-24.6897
-24.6897
-24.6897
-24.6897
-24.6897
-24.6897
-24.7173
-24.7173
-24.7173
-24.7173
-24.7173
-24.7173
-24.7548
-24.7548
-24.7548
-24.7548
-24.7548
-24.7548
-24.8056
-24.8056
-24.8055
-24.8055
-24.8055
-24.8055
-24.8784
-24.8783
-24.8783
-24.8783
-24.8783
-24.8783
-24.9802
-24.9802
-24.9802
-24.9802
-24.9802
-24.9802
-25.1187
-25.1186
-25.1186
-25.1187
-25.1187
-25.1187
-25.2626
-25.2626
-25.2626
-25.2627
-25.2628
-25.2628
-25.4533
-25.4534
-25.4534
-25.4534
-25.4534
-25.4533
-34.4441
-34.4441
-34.4441
-34.4441
-34.4441
-34.4441
-34.4496
-34.4496
-34.4496
-34.4496
-34.4496
-34.4496
-34.461
-34.461
-34.461
-34.461
-34.461
-34.461
-34.4793
-34.4793
-34.4793
-34.4793
-34.4793
-34.4793
-34.5057
-34.5057
-34.5057
-34.5057
-34.5057
-34.5057
-34.542
-34.542
-34.542
-34.542
-34.542
-34.542
-34.5893
-34.5893
-34.5893
-34.5893
-34.5893
-34.5893
-34.6443
-34.6443
-34.6443
-34.6443
-34.6443
-34.6443
-34.7049
-34.7049
-34.7049
-34.7049
-34.705
-34.705
-34.7783
-34.7784
-34.7785
-34.7785
-34.7786
-34.7787
-34.8742
-34.8742
-34.8743
-34.8744
-34.8745
-34.8745
-35.0362
-35.0362
-35.0361
-35.0361
-35.036
-35.0359
104.898
104.907
104.911
104.904
104.906
104.933
-62.2139
-62.2132
-62.2134
-62.2137
-62.2137
-62.2139
-71.9359
-71.936
-71.936
-71.9358
-71.9357
-71.9355
-62.0119
-62.0102
-62.01
-62.0103
-62.0105
-62.011
-64.9391
-64.939
-64.9388
-64.9383
-64.9385
-64.9398
-71.4216
-71.4218
-71.4218
-71.4216
-71.4216
-71.4216
-44.6802
-44.6794
-44.6793
-44.6792
-44.6793
-44.6799
-56.1461
-56.146
-56.146
-56.1459
-56.1459
-56.1459
-68.3806
-68.3805
-68.3805
-68.3805
-68.3806
-68.3806
-47.9719
-47.9715
-47.9716
-47.9718
-47.972
-47.9726
-57.2042
-57.2042
-57.2042
-57.2043
-57.2044
-57.2046
-68.1209
-68.1209
-68.1209
-68.1209
-68.1209
-68.1208
-43.1494
-43.1496
-43.15
-43.1504
-43.1506
-43.1511
-51.1878
-51.1879
-51.1879
-51.1879
-51.188
-51.1882
-66.1643
-66.1643
-66.1643
-66.1642
-66.1641
-66.164
-43.5525
-43.5528
-43.5531
-43.5532
-43.5534
-43.5536
-51.8497
-51.8499
-51.8499
-51.85
-51.85
-51.8501
-65.9464
-65.9464
-65.9463
-65.9462
-65.9461
-65.946
-37.783
-37.7834
-37.7836
-37.7836
-37.7834
-37.7832
-50.0377
-50.0379
-50.038
-50.0379
-50.0377
-50.0375
-64.7311
-64.731
-64.7309
-64.7309
-64.7309
-64.7309
-27.3679
-27.3679
-27.3678
-27.3676
-27.3673
-27.3672
-45.5363
-45.5366
-45.5365
-45.5363
-45.536
-45.5357
-63.0309
-63.0308
-63.0309
-63.031
-63.0312
-63.0314
-18.2982
-18.2981
-18.2981
-18.2982
-18.2991
-18.2997
-43.1268
-43.1268
-43.1268
-43.1266
-43.1275
-43.1259
-64.4414
-64.441
-64.4408
-64.4404
-64.4403
-64.4396
-2.9496
-2.9494
-2.95017
-2.95262
-2.95525
-2.95816
-37.4057
-37.4055
-37.406
-37.4073
-37.4046
-37.4124
-62.0738
-62.073
-62.073
-62.072
-62.0713
-62.0726
-30.5568
-30.5561
-30.556
-30.5551
-30.5554
-30.5558
-52.0454
-52.0422
-52.0498
-52.0422
-52.0514
-52.0409
-79.6376
-79.6365
-79.6389
-79.6333
-79.6434
-79.6284
-62.491
-62.4929
-62.5027
-62.4986
-62.5429
-62.4206
-90.8075
-90.804
-90.8174
-90.8052
-90.837
-90.7904
-108.908
-108.91
-108.919
-108.908
-108.931
-108.903
-46.7038
-46.7038
-46.7036
-46.7037
-46.7036
-46.7036
-57.191
-57.1912
-57.1908
-57.1912
-57.1905
-57.1911
-63.0922
-63.0923
-63.092
-63.0925
-63.0917
-63.0933
-48.4152
-48.415
-48.4148
-48.4149
-48.4151
-48.4139
-59.9781
-59.9788
-59.9778
-59.9788
-59.9768
-59.9784
-62.5738
-62.5739
-62.573
-62.5746
-62.5709
-62.5776
-48.0262
-48.0263
-48.0258
-48.0259
-48.0263
-48.0232
-65.2388
-65.2418
-65.2399
-65.2409
-65.2392
-65.2362
-63.1486
-63.1498
-63.1472
-63.1501
-63.1397
-63.1566
-57.0186
-57.0182
-57.0203
-57.0165
-57.0316
-56.9996
-73.3246
-73.3289
-73.326
-73.3274
-73.3187
-73.3288
-68.311
-68.3156
-68.3106
-68.3142
-68.2947
-68.3258
-40.869
-40.868
-40.8695
-40.8707
-40.8773
-40.8712
-75.671
-75.6737
-75.6752
-75.6705
-75.6659
-75.685
-69.8858
-69.8882
-69.8858
-69.8855
-69.8603
-69.9127
-96.2646
-96.2586
-96.2775
-96.2583
-96.3911
-96.1437
-73.6902
-73.6867
-73.704
-73.6772
-73.701
-73.6888
-86.0024
-86.0052
-86.0094
-86.0042
-86.0163
-85.9902
-44.2157
-44.2157
-44.2157
-44.2157
-44.2157
-44.2157
-53.9993
-53.9993
-53.9993
-53.9993
-53.9993
-53.9993
-63.7805
-63.7805
-63.7805
-63.7805
-63.7805
-63.7805
-44.2202
-44.2202
-44.2202
-44.2202
-44.2202
-44.2202
-54.0022
-54.0022
-54.0022
-54.0022
-54.0022
-54.0022
-63.7815
-63.7815
-63.7815
-63.7815
-63.7815
-63.7815
-44.2295
-44.2295
-44.2295
-44.2295
-44.2295
-44.2295
-54.0082
-54.0082
-54.0082
-54.0082
-54.0082
-54.0082
-63.7837
-63.7837
-63.7837
-63.7837
-63.7837
-63.7837
-44.2446
-44.2446
-44.2446
-44.2446
-44.2446
-44.2446
-54.0182
-54.0182
-54.0182
-54.0182
-54.0182
-54.0182
-63.7872
-63.7872
-63.7872
-63.7872
-63.7872
-63.7872
-44.2672
-44.2672
-44.2672
-44.2672
-44.2672
-44.2672
-54.0333
-54.0333
-54.0333
-54.0333
-54.0333
-54.0333
-63.7924
-63.7924
-63.7924
-63.7924
-63.7924
-63.7924
-44.3006
-44.3006
-44.3006
-44.3006
-44.3006
-44.3006
-54.0561
-54.0561
-54.0561
-54.0561
-54.0561
-54.0561
-63.7996
-63.7996
-63.7996
-63.7996
-63.7996
-63.7996
-44.3508
-44.3508
-44.3508
-44.3508
-44.3508
-44.3508
-54.0903
-54.0903
-54.0903
-54.0903
-54.0903
-54.0903
-63.809
-63.809
-63.809
-63.809
-63.809
-63.809
-44.4334
-44.4334
-44.4334
-44.4334
-44.4334
-44.4334
-54.1441
-54.1441
-54.1441
-54.1441
-54.1441
-54.1441
-63.8194
-63.8194
-63.8194
-63.8194
-63.8194
-63.8194
-44.566
-44.566
-44.566
-44.566
-44.566
-44.5661
-54.2302
-54.2302
-54.2302
-54.2302
-54.2302
-54.2302
-63.8237
-63.8237
-63.8237
-63.8237
-63.8237
-63.8237
-44.7994
-44.7994
-44.7994
-44.7994
-44.7994
-44.7994
-54.3858
-54.3858
-54.3858
-54.3858
-54.3858
-54.3858
-63.8179
-63.8179
-63.8179
-63.8179
-63.8179
-63.8179
-45.1642
-45.1642
-45.1642
-45.1641
-45.1641
-45.164
-54.7376
-54.7376
-54.7376
-54.7376
-54.7376
-54.7376
-63.7222
-63.7222
-63.7222
-63.7222
-63.7222
-63.7223
-45.8428
-45.8428
-45.8428
-45.8428
-45.8427
-45.8426
-55.4928
-55.4928
-55.4927
-55.4928
-55.4926
-55.4927
-63.5098
-63.5098
-63.5098
-63.5098
-63.5098
-63.51
)
;

boundaryField
{
    seabed_topleft_surface
    {
        type            calculated;
        value           nonuniform List<scalar> 
72
(
35117
35117
35117
35117
35117
35117
33585.5
33585.5
33585.5
33585.5
33585.5
33585.5
29291.7
29291.8
29291.8
29291.7
29291.7
29291.7
24997.9
24997.9
24997.9
24997.9
24997.9
24997.9
21407.4
21407.4
21407.4
21407.4
21407.4
21407.4
18486.8
18486.8
18486.8
18486.8
18486.8
18486.8
15746.2
15746.2
15746.2
15746.2
15746.2
15746.2
13021.6
13021.5
13021.5
13021.5
13021.5
13021.5
11345.9
11345.8
11345.8
11345.7
11345.7
11345.7
13719.8
13719.8
13719.7
13719.7
13719.7
13719.7
20931.2
20931.2
20931.2
20931.2
20931.3
20931.3
32023.1
32023.4
32023.3
32023.4
32023.6
32023.4
)
;
    }
    seabed_topright_surface
    {
        type            calculated;
        value           nonuniform List<scalar> 
72
(
-0.12846
-0.128462
-0.128461
-0.128461
-0.12846
-0.128459
-0.134551
-0.134551
-0.13455
-0.13455
-0.134549
-0.134548
-0.146946
-0.146946
-0.146944
-0.146944
-0.146944
-0.146943
-0.16605
-0.166049
-0.166049
-0.166049
-0.166049
-0.166049
-0.192449
-0.19245
-0.19245
-0.192451
-0.19245
-0.19245
-0.226875
-0.226877
-0.226876
-0.226874
-0.226871
-0.226869
-0.27024
-0.270241
-0.270234
-0.270225
-0.270216
-0.270208
-0.324545
-0.324536
-0.324518
-0.324498
-0.324478
-0.324463
-0.389243
-0.389213
-0.389181
-0.389148
-0.38912
-0.389101
-0.463227
-0.463193
-0.463156
-0.463124
-0.463099
-0.463085
-0.530589
-0.530563
-0.530541
-0.530526
-0.530517
-0.530514
-0.602622
-0.602637
-0.602652
-0.602663
-0.602673
-0.602681
)
;
    }
    breakwater_top_surface
    {
        type            calculated;
        value           nonuniform List<scalar> 
36
(
-41.7988
-41.7988
-41.7986
-41.7987
-41.7986
-41.7986
-43.5102
-43.51
-43.5098
-43.5099
-43.5101
-43.5089
-43.1212
-43.1213
-43.1208
-43.1209
-43.1213
-43.1182
-52.1131
-52.1127
-52.1148
-52.111
-52.1262
-52.0941
-35.9634
-35.9625
-35.9639
-35.9651
-35.9717
-35.9657
-75.3419
-75.335
-75.3556
-75.3351
-75.4269
-75.2683
)
;
    }
    breakwater_left_surface
    {
        type            calculated;
        value           nonuniform List<scalar> 
24
(
28317.4
28317.6
28317.6
28317.7
28317.9
28317.8
11841.5
11841.6
11841.5
11841.6
11841.4
11841.8
1562.98
1563.2
1563.09
1563.21
1563.16
1563.37
188.106
188.098
188.089
188.128
188.178
188.053
)
;
    }
    breakwater_right_surface
    {
        type            calculated;
        value           nonuniform List<scalar> 
24
(
-5.50762
-5.50764
-5.50765
-5.50766
-5.50767
-5.50768
-15.3091
-15.3092
-15.3093
-15.3093
-15.3093
-15.3093
-25.4371
-25.4372
-25.4372
-25.4372
-25.4372
-25.4371
-35.0203
-35.0203
-35.0203
-35.0202
-35.0201
-35.02
)
;
    }
    water_front_surface
    {
        type            calculated;
        value           nonuniform List<scalar> 
186
(
30195.3
28663.8
24370.3
20077.2
16488.6
13573.1
10902.6
8392.91
7162.25
9525.72
16743.3
28304.7
19927.8
17255.2
12363.7
8253.19
4600.23
3172.12
2001.52
988.6
271.291
368.054
1888.94
11832
10098.3
4636.44
1992.59
814.665
4.59051
-52.9372
-37.2199
-1.09829
42.152
108.947
314.614
1557.42
3060.87
51.4815
-46.3534
-37.067
-18.6748
-17.1632
-23.9582
-16.3397
-5.72379
32.7252
1.54314
187.363
-5.05032
-5.05641
-5.0688
-5.08791
-5.1143
-5.14873
-5.1921
-5.2464
-5.3111
-5.38508
-5.45244
-5.52448
-14.854
-14.8602
-14.8729
-14.8925
-14.9197
-14.9551
-14.9982
-15.0463
-15.0988
-15.158
-15.2275
-15.3257
-24.6518
-24.6578
-24.6702
-24.6897
-24.7173
-24.7548
-24.8056
-24.8784
-24.9802
-25.1187
-25.2626
-25.4533
-34.4441
-34.4496
-34.461
-34.4793
-34.5057
-34.542
-34.5893
-34.6443
-34.7049
-34.7783
-34.8742
-35.0362
104.898
-62.2139
-71.9359
-62.0119
-64.9391
-71.4216
-44.6802
-56.1461
-68.3806
-47.9719
-57.2042
-68.1209
-43.1494
-51.1878
-66.1643
-43.5525
-51.8497
-65.9464
-37.783
-50.0377
-64.7311
-27.3679
-45.5363
-63.0309
-18.2982
-43.1268
-64.4414
-2.9496
-37.4057
-62.0738
-30.5568
-52.0454
-79.6376
-62.491
-90.8075
-108.908
-46.7038
-57.191
-63.0922
-48.4152
-59.9781
-62.5738
-48.0262
-65.2388
-63.1486
-57.0186
-73.3246
-68.311
-40.869
-75.671
-69.8858
-96.2646
-73.6902
-86.0024
-44.2157
-53.9993
-63.7805
-44.2202
-54.0022
-63.7815
-44.2295
-54.0082
-63.7837
-44.2446
-54.0182
-63.7872
-44.2672
-54.0333
-63.7924
-44.3006
-54.0561
-63.7996
-44.3508
-54.0903
-63.809
-44.4334
-54.1441
-63.8194
-44.566
-54.2302
-63.8237
-44.7994
-54.3858
-63.8179
-45.1642
-54.7376
-63.7222
-45.8428
-55.4928
-63.5098
)
;
    }
    water_back_surface
    {
        type            calculated;
        value           nonuniform List<scalar> 
186
(
30195.3
28663.8
24370.3
20077.2
16488.6
13573.1
10902.6
8392.87
7162.15
9525.62
16743.4
28305
19927.8
17255.2
12363.7
8253.17
4600.19
3172.06
2001.45
988.531
271.251
368.085
1888.97
11832.3
10098.4
4636.51
1992.6
814.672
4.58688
-52.9352
-37.2117
-1.09448
42.145
108.929
314.614
1557.81
3060.92
51.4865
-46.3503
-37.0673
-18.6745
-17.1638
-23.9568
-16.3379
-5.72362
32.714
1.53931
187.311
-5.05031
-5.0564
-5.0688
-5.08791
-5.11431
-5.14872
-5.19206
-5.24632
-5.31096
-5.38494
-5.45237
-5.52454
-14.854
-14.8602
-14.8729
-14.8925
-14.9197
-14.9551
-14.9981
-15.0462
-15.0986
-15.158
-15.2276
-15.3259
-24.6518
-24.6578
-24.6702
-24.6897
-24.7173
-24.7548
-24.8055
-24.8783
-24.9802
-25.1187
-25.2628
-25.4533
-34.4441
-34.4496
-34.461
-34.4793
-34.5057
-34.542
-34.5893
-34.6443
-34.705
-34.7787
-34.8745
-35.0359
104.933
-62.2139
-71.9355
-62.011
-64.9398
-71.4216
-44.6799
-56.1459
-68.3806
-47.9726
-57.2046
-68.1208
-43.1511
-51.1882
-66.164
-43.5536
-51.8501
-65.946
-37.7832
-50.0375
-64.7309
-27.3672
-45.5357
-63.0314
-18.2997
-43.1259
-64.4396
-2.95816
-37.4124
-62.0726
-30.5558
-52.0409
-79.6284
-62.4206
-90.7904
-108.903
-46.7036
-57.1911
-63.0933
-48.4139
-59.9784
-62.5776
-48.0232
-65.2362
-63.1566
-56.9996
-73.3288
-68.3258
-40.8712
-75.685
-69.9127
-96.1437
-73.6888
-85.9902
-44.2157
-53.9993
-63.7805
-44.2202
-54.0022
-63.7815
-44.2295
-54.0082
-63.7837
-44.2446
-54.0182
-63.7872
-44.2672
-54.0333
-63.7924
-44.3006
-54.0561
-63.7996
-44.3508
-54.0903
-63.809
-44.4334
-54.1441
-63.8194
-44.5661
-54.2302
-63.8237
-44.7994
-54.3858
-63.8179
-45.164
-54.7376
-63.7223
-45.8426
-55.4927
-63.51
)
;
    }
    water_left_surface
    {
        type            calculated;
        value           nonuniform List<scalar> 
42
(
30212.2
30212.2
30212.2
30212.2
30212.2
30212.2
19944.3
19944.3
19944.3
19944.3
19944.3
19944.3
10114.5
10114.5
10114.5
10114.5
10114.5
10114.6
3071.12
3071.13
3071.14
3071.14
3071.14
3071.17
104.898
104.907
104.911
104.904
104.906
104.933
-62.2139
-62.2132
-62.2134
-62.2137
-62.2137
-62.2139
-71.9359
-71.936
-71.936
-71.9358
-71.9357
-71.9355
)
;
    }
    water_right_surface
    {
        type            calculated;
        value           nonuniform List<scalar> 
42
(
-5.03346
-5.03346
-5.03346
-5.03346
-5.03346
-5.03346
-14.8375
-14.8375
-14.8375
-14.8375
-14.8375
-14.8375
-24.6356
-24.6356
-24.6356
-24.6356
-24.6356
-24.6356
-34.4282
-34.4282
-34.4282
-34.4282
-34.4282
-34.4282
-44.2157
-44.2157
-44.2157
-44.2157
-44.2157
-44.2157
-53.9993
-53.9993
-53.9993
-53.9993
-53.9993
-53.9993
-63.7805
-63.7805
-63.7805
-63.7805
-63.7805
-63.7805
)
;
    }
    water_top_surface
    {
        type            calculated;
        value           nonuniform List<scalar> 
180
(
-77.2888
-77.2896
-77.2893
-77.2888
-77.2886
-77.2888
-81.4164
-81.4173
-81.417
-81.4165
-81.4164
-81.4152
-69.2861
-69.2862
-69.2862
-69.2862
-69.2862
-69.286
-72.3886
-72.389
-72.3889
-72.3889
-72.3889
-72.3885
-71.4155
-71.4157
-71.4157
-71.4156
-71.4155
-71.4151
-71.6325
-71.6325
-71.6323
-71.6322
-71.6321
-71.6317
-71.9407
-71.9404
-71.9403
-71.9403
-71.9404
-71.9405
-71.3992
-71.3989
-71.3989
-71.3992
-71.3996
-71.4
-72.1706
-72.1705
-72.1703
-72.1701
-72.1699
-72.1696
-73.3989
-73.3982
-73.3972
-73.3961
-73.3946
-73.3945
-78.293
-78.2908
-78.2889
-78.2843
-78.2955
-78.2659
-68.75
-68.7498
-68.7499
-68.7499
-68.7494
-68.7507
-68.7035
-68.7035
-68.7035
-68.7035
-68.7035
-68.7035
-68.76
-68.7601
-68.76
-68.76
-68.7601
-68.76
-68.6874
-68.6872
-68.6872
-68.6873
-68.687
-68.6879
-70.9616
-70.9643
-70.9631
-70.9629
-70.975
-70.9475
-92.287
-92.2997
-92.2934
-92.2939
-92.3781
-92.1906
-81.7596
-81.7649
-81.7636
-81.7644
-81.7819
-81.7397
-68.6701
-68.6701
-68.6701
-68.6701
-68.6701
-68.6701
-68.6701
-68.6701
-68.6701
-68.6701
-68.6701
-68.6701
-68.6701
-68.6701
-68.6701
-68.6701
-68.6701
-68.6701
-68.6702
-68.6702
-68.6702
-68.6702
-68.6702
-68.6702
-68.6703
-68.6703
-68.6703
-68.6703
-68.6703
-68.6703
-68.6705
-68.6705
-68.6705
-68.6705
-68.6705
-68.6705
-68.6709
-68.6709
-68.6709
-68.6709
-68.6709
-68.6709
-68.6715
-68.6715
-68.6715
-68.6715
-68.6715
-68.6715
-68.6728
-68.6728
-68.6728
-68.6728
-68.6728
-68.6728
-68.6756
-68.6756
-68.6756
-68.6756
-68.6756
-68.6756
-68.6803
-68.6803
-68.6803
-68.6803
-68.6803
-68.6803
-68.6886
-68.6886
-68.6886
-68.6886
-68.6886
-68.6886
)
;
    }
}


// ************************************************************************* //
