/*--------------------------------*- C++ -*----------------------------------*\
| =========                 |                                                 |
| \\      /  F ield         | OpenFOAM: The Open Source CFD Toolbox           |
|  \\    /   O peration     | Version:  v1612+                                |
|   \\  /    A nd           | Web:      www.OpenFOAM.com                      |
|    \\/     M anipulation  |                                                 |
\*---------------------------------------------------------------------------*/
FoamFile
{
    version     2.0;
    format      ascii;
    class       volVectorField;
    location    "1.95";
    object      U;
}
// * * * * * * * * * * * * * * * * * * * * * * * * * * * * * * * * * * * * * //

dimensions      [0 1 -1 0 0 0 0];

internalField   nonuniform List<vector> 
1116
(
(0.568303 -1.39496e-06 -0.478031)
(0.568305 -8.74383e-07 -0.478037)
(0.568304 1.14476e-06 -0.478037)
(0.568305 1.31743e-06 -0.478037)
(0.568306 1.85626e-06 -0.478037)
(0.568304 9.41022e-07 -0.478032)
(1.74243 -4.41861e-06 -0.657247)
(1.74244 -2.34468e-07 -0.657255)
(1.74243 3.91651e-08 -0.657253)
(1.74243 3.61549e-07 -0.657252)
(1.74243 4.42705e-07 -0.657252)
(1.74243 4.05565e-06 -0.657243)
(2.86504 -4.5523e-06 -0.535505)
(2.86506 2.21796e-07 -0.535512)
(2.86505 -2.5994e-06 -0.535509)
(2.86505 -2.74388e-06 -0.53551)
(2.86505 -1.94334e-06 -0.535511)
(2.86504 4.83511e-06 -0.535501)
(3.78206 -6.85843e-06 -0.431006)
(3.78208 -3.76819e-06 -0.431014)
(3.78208 -7.2102e-06 -0.43101)
(3.78207 -7.55466e-06 -0.431014)
(3.78207 -5.49734e-06 -0.431019)
(3.78205 3.56422e-06 -0.43101)
(4.52714 -9.56735e-06 -0.274289)
(4.52716 -7.93595e-06 -0.274298)
(4.52715 -1.09206e-05 -0.274292)
(4.52715 -1.16007e-05 -0.274298)
(4.52715 -9.85307e-06 -0.274308)
(4.52712 5.2465e-07 -0.2743)
(5.16577 -1.22915e-05 -0.217203)
(5.16579 -1.25014e-05 -0.217217)
(5.16579 -1.40006e-05 -0.217212)
(5.16579 -1.46183e-05 -0.217219)
(5.1658 -1.22554e-05 -0.217232)
(5.16575 -1.09077e-06 -0.217227)
(5.81539 -1.22466e-05 -0.23932)
(5.81542 -1.41134e-05 -0.239347)
(5.81542 -1.34692e-05 -0.239344)
(5.81541 -1.40685e-05 -0.23935)
(5.81542 -9.63604e-06 -0.239363)
(5.81537 -1.85432e-07 -0.239362)
(6.57744 -1.31069e-05 -0.260914)
(6.5775 -1.4805e-05 -0.260961)
(6.57749 -1.11606e-05 -0.26096)
(6.57749 -1.45496e-05 -0.260963)
(6.5775 -7.36234e-06 -0.260973)
(6.57745 8.05509e-07 -0.260971)
(7.20636 -9.52224e-06 -0.21732)
(7.20643 -8.00954e-06 -0.217376)
(7.20643 -6.11066e-06 -0.217381)
(7.20643 -1.22106e-05 -0.217382)
(7.20644 -4.38398e-06 -0.217388)
(7.20638 1.15118e-06 -0.217388)
(6.80655 -1.37066e-06 -0.217069)
(6.80665 3.20398e-07 -0.217124)
(6.80663 -2.45095e-06 -0.217126)
(6.80664 -5.66515e-06 -0.217127)
(6.80667 -6.45241e-06 -0.217132)
(6.80659 -4.93719e-06 -0.217141)
(5.26668 1.59521e-05 -0.0686054)
(5.2668 1.72094e-05 -0.0686387)
(5.26676 -3.94022e-07 -0.0686351)
(5.26676 -1.18641e-06 -0.0686354)
(5.26682 -2.1007e-05 -0.0686597)
(5.26674 -1.93558e-05 -0.068636)
(3.39792 -7.68405e-05 0.959138)
(3.39808 -9.20816e-05 0.959032)
(3.39804 -3.77687e-05 0.959063)
(3.39806 -3.63813e-05 0.959046)
(3.39809 2.67367e-05 0.959035)
(3.39799 4.68036e-05 0.959059)
(0.79435 -1.87926e-06 -1.78441)
(0.794357 -1.39769e-06 -1.78443)
(0.794354 6.62152e-07 -1.78442)
(0.794354 -2.01606e-06 -1.78442)
(0.794354 -3.30373e-06 -1.78442)
(0.794351 -2.00718e-06 -1.78441)
(2.01575 -2.64095e-06 -1.85673)
(2.01576 2.63056e-06 -1.85676)
(2.01576 -7.13911e-06 -1.85674)
(2.01575 -3.25906e-06 -1.85674)
(2.01575 -9.15945e-06 -1.85675)
(2.01575 2.87384e-07 -1.85673)
(3.04921 -5.5106e-06 -1.405)
(3.04925 2.03012e-06 -1.40501)
(3.04925 -1.2278e-05 -1.405)
(3.04924 -5.19481e-06 -1.405)
(3.04923 -1.47364e-05 -1.40502)
(3.04921 -2.87351e-07 -1.40498)
(3.93048 -1.06445e-05 -1.27786)
(3.93052 -1.28332e-05 -1.27788)
(3.93051 -1.3614e-05 -1.27787)
(3.9305 -7.1534e-06 -1.27789)
(3.9305 -1.08327e-05 -1.27791)
(3.93045 -3.71853e-06 -1.27787)
(4.76544 1.87612e-07 -1.18128)
(4.76549 -1.38089e-05 -1.18133)
(4.76548 -1.43625e-05 -1.18132)
(4.76547 -1.13178e-05 -1.18133)
(4.76548 -7.91687e-06 -1.18135)
(4.76542 -1.05221e-05 -1.18133)
(5.4018 1.3445e-05 -1.24525)
(5.40187 -8.47313e-06 -1.2453)
(5.40186 -8.9657e-06 -1.2453)
(5.40185 -1.12958e-05 -1.2453)
(5.40187 -3.96403e-06 -1.24533)
(5.4018 -1.61273e-05 -1.24531)
(6.31615 3.51508e-05 -1.42229)
(6.3163 1.07437e-06 -1.42237)
(6.31627 -9.21307e-06 -1.42237)
(6.31627 -1.66545e-05 -1.42237)
(6.31629 -3.3636e-06 -1.42239)
(6.31621 -2.35876e-05 -1.42238)
(7.73747 7.26509e-05 -1.41713)
(7.73779 2.91103e-05 -1.41723)
(7.7377 -1.31111e-05 -1.41722)
(7.7377 -2.97869e-05 -1.41723)
(7.73774 -8.96222e-06 -1.41726)
(7.73761 -3.3365e-05 -1.41723)
(8.93287 0.000107765 -0.272583)
(8.93332 7.31243e-05 -0.272616)
(8.93315 1.21392e-05 -0.272583)
(8.93314 -2.866e-05 -0.272609)
(8.93319 -1.67551e-06 -0.272652)
(8.93302 -2.56646e-05 -0.272597)
(10.4747 4.89326e-05 1.63043)
(10.475 2.22755e-05 1.6304)
(10.4749 -8.26058e-06 1.63046)
(10.4749 -2.42493e-05 1.63045)
(10.4749 -4.89692e-05 1.63042)
(10.4748 -6.73412e-05 1.63042)
(8.3183 5.27535e-05 3.06282)
(8.31854 2.82187e-05 3.06286)
(8.3184 -1.56725e-05 3.06289)
(8.31838 -8.97263e-05 3.06289)
(8.3184 -3.29109e-05 3.06288)
(8.31837 3.65166e-05 3.0628)
(7.23849 -5.24889e-05 5.53503)
(7.23901 -5.03245e-05 5.53487)
(7.23897 3.36972e-06 5.53488)
(7.23903 4.99408e-05 5.53486)
(7.23909 2.53369e-05 5.53482)
(7.23901 -2.45666e-05 5.53507)
(0.235827 6.52288e-07 -3.27986)
(0.235821 1.8021e-06 -3.27989)
(0.235829 -7.08193e-07 -3.27988)
(0.235835 -2.69549e-06 -3.27987)
(0.235831 -3.09178e-06 -3.27987)
(0.235824 1.51989e-07 -3.27988)
(2.01676 1.98887e-05 -3.25506)
(2.01677 -6.45721e-06 -3.2551)
(2.01676 4.03186e-06 -3.25508)
(2.01676 -7.7008e-06 -3.25508)
(2.01676 1.16112e-05 -3.25508)
(2.01675 -1.74282e-05 -3.25505)
(3.24121 1.94472e-05 -2.45681)
(3.24123 -1.82385e-05 -2.45685)
(3.24122 1.05152e-05 -2.45684)
(3.24121 -9.91799e-06 -2.45684)
(3.24123 1.35354e-05 -2.45686)
(3.24119 -3.07223e-05 -2.45682)
(4.36716 4.2566e-05 -2.54058)
(4.36722 -8.14672e-06 -2.54066)
(4.36722 4.22863e-05 -2.54065)
(4.36722 -1.14362e-06 -2.54065)
(4.36724 2.80649e-05 -2.54066)
(4.36721 -4.89016e-05 -2.54063)
(6.12341 0.000100799 -1.78145)
(6.12359 6.44168e-05 -1.7815)
(6.12358 0.000128398 -1.78154)
(6.12359 4.54808e-05 -1.78154)
(6.12361 8.08045e-05 -1.78153)
(6.12359 -4.8958e-05 -1.78156)
(7.59618 0.000107673 -2.38729)
(7.59662 8.28252e-05 -2.38733)
(7.59662 0.000149373 -2.38734)
(7.59658 2.82726e-05 -2.38733)
(7.59658 5.70616e-05 -2.38732)
(7.59659 -7.35667e-05 -2.38735)
(10.7395 -1.47203e-05 -3.08986)
(10.7397 -0.000174456 -3.08991)
(10.7397 -0.000105752 -3.08991)
(10.7396 -0.000186657 -3.08995)
(10.7396 -0.000155166 -3.08998)
(10.7394 -0.000185235 -3.08997)
(12.1172 -7.40133e-05 -2.57542)
(12.1171 -0.000328903 -2.57532)
(12.117 -0.000300794 -2.57533)
(12.1169 -0.000305606 -2.57544)
(12.117 -0.000249315 -2.57551)
(12.1163 -0.000245817 -2.57545)
(10.481 0.000180779 -0.84747)
(10.4811 -1.37778e-05 -0.847085)
(10.4807 -0.000135668 -0.846917)
(10.4806 -9.8047e-05 -0.846999)
(10.481 9.55012e-06 -0.847095)
(10.4801 -2.97138e-05 -0.847023)
(6.71189 0.000245142 2.35867)
(6.71306 0.000337736 2.359)
(6.71197 0.000267201 2.35898)
(6.71197 0.000143857 2.35893)
(6.71159 0.000106889 2.35902)
(6.71269 2.68316e-05 2.35822)
(4.75258 0.000154635 5.61352)
(4.75277 0.00016775 5.61366)
(4.75251 0.000131616 5.61369)
(4.75227 -0.000160588 5.61368)
(4.75282 0.000158207 5.61314)
(4.7524 0.000344511 5.61348)
(10.1479 -3.17085e-05 12.1145)
(10.1488 -1.72247e-05 12.1146)
(10.1487 -1.7214e-05 12.1145)
(10.1488 0.000144025 12.1145)
(10.15 -0.000238552 12.1152)
(10.1474 -0.000411936 12.1144)
(-1.73911 9.01127e-06 -4.00767)
(-1.73917 7.13325e-06 -4.0077)
(-1.73913 3.52568e-06 -4.00768)
(-1.73913 2.6688e-06 -4.00768)
(-1.73914 1.29388e-05 -4.00768)
(-1.73911 7.18166e-06 -4.00768)
(2.19962 9.30578e-06 -5.32024)
(2.19962 -1.59701e-05 -5.32024)
(2.1996 2.24874e-05 -5.32025)
(2.19963 3.29011e-05 -5.32026)
(2.19964 5.36705e-05 -5.32024)
(2.19961 1.47099e-05 -5.3202)
(3.85685 1.99565e-05 -4.07391)
(3.85685 -2.16898e-05 -4.07392)
(3.85681 7.335e-05 -4.07395)
(3.85682 5.22887e-05 -4.07395)
(3.85689 9.30602e-05 -4.0739)
(3.8569 1.40894e-05 -4.07391)
(3.75164 0.000133303 -4.2003)
(3.75139 0.00010052 -4.20047)
(3.75152 0.000221942 -4.20046)
(3.75162 8.26987e-05 -4.20041)
(3.75167 0.000121702 -4.20035)
(3.7518 -4.43998e-05 -4.20048)
(3.02076 0.000157949 -1.33405)
(3.02111 0.000219575 -1.33385)
(3.02125 0.000317784 -1.33393)
(3.02137 0.000163925 -1.33395)
(3.0214 0.000165822 -1.33384)
(3.02135 -5.88814e-06 -1.33398)
(0.0756327 -3.94678e-05 -4.22466)
(0.0758423 -4.37874e-05 -4.22448)
(0.0762263 -1.94463e-06 -4.22429)
(0.0764131 -6.77916e-06 -4.22417)
(0.0764309 4.68461e-05 -4.22415)
(0.076492 3.46697e-05 -4.22414)
(-1.99722 -9.30184e-05 -3.6043)
(-1.99719 -9.74514e-05 -3.60441)
(-1.99695 -7.14743e-05 -3.60441)
(-1.99685 -2.93019e-05 -3.60445)
(-1.99683 4.98754e-05 -3.60459)
(-1.99657 6.16759e-05 -3.60473)
(-1.44392 -7.36808e-05 -0.94706)
(-1.44408 -6.37618e-05 -0.947244)
(-1.44393 -2.24717e-05 -0.947418)
(-1.4439 5.88914e-05 -0.947584)
(-1.44388 3.76221e-05 -0.947781)
(-1.44351 -1.92416e-05 -0.948084)
(-0.872 5.95082e-05 1.462)
(-0.872083 0.000105641 1.4622)
(-0.871925 0.000151839 1.46215)
(-0.87186 0.000299816 1.4621)
(-0.8715 0.000233415 1.46224)
(-0.871391 4.33935e-05 1.46157)
(5.03851 0.000172786 5.90316)
(5.03927 0.000346724 5.9039)
(5.03912 0.000413186 5.90411)
(5.03938 0.00065814 5.90414)
(5.03919 0.000637948 5.90424)
(5.04035 0.000218354 5.90268)
(3.46037 0.000426688 10.1826)
(3.46091 0.000710174 10.1838)
(3.46109 0.000582431 10.1837)
(3.46055 -0.000106723 10.1838)
(3.46059 0.00104096 10.1792)
(3.46321 0.00133123 10.1877)
(11.175 -5.63108e-05 15.3221)
(11.1759 2.15793e-05 15.3221)
(11.1758 -7.70944e-05 15.3221)
(11.1758 0.000145406 15.3221)
(11.18 -0.000565447 15.3264)
(11.1712 -0.000838729 15.318)
(-0.00154895 5.86307e-07 -0.00156684)
(-0.00154879 4.83817e-07 -0.00156687)
(-0.00154875 -1.19446e-07 -0.0015669)
(-0.00154871 -7.94621e-08 -0.00156693)
(-0.00154868 -1.81495e-07 -0.00156696)
(-0.00154865 -1.1835e-07 -0.00156709)
(-0.00470726 3.80976e-07 -0.00162921)
(-0.0047069 2.35037e-07 -0.00162924)
(-0.00470688 -2.40688e-07 -0.00162926)
(-0.00470682 -1.91297e-07 -0.00162929)
(-0.00470679 -3.70249e-07 -0.00162933)
(-0.00470686 -2.44625e-07 -0.00162945)
(-0.00804073 2.43094e-07 -0.00174531)
(-0.00804028 1.51932e-07 -0.00174528)
(-0.00804033 -2.00515e-07 -0.00174528)
(-0.00804031 -1.85321e-07 -0.00174531)
(-0.00804032 -3.23312e-07 -0.00174533)
(-0.00804059 -2.16415e-07 -0.00174543)
(-0.0116426 1.61779e-07 -0.0018907)
(-0.0116421 1.92699e-07 -0.00189049)
(-0.0116422 -5.3729e-08 -0.00189045)
(-0.0116422 -9.93847e-08 -0.00189043)
(-0.0116422 -2.20754e-07 -0.00189044)
(-0.0116426 -1.72351e-07 -0.0018905)
(-0.0155768 2.2652e-07 -0.00200348)
(-0.0155763 4.23216e-07 -0.00200282)
(-0.0155763 1.5582e-07 -0.00200263)
(-0.0155763 -3.79551e-08 -0.00200252)
(-0.0155762 -1.96953e-07 -0.0020025)
(-0.0155765 -1.62341e-07 -0.00200257)
(-0.0198626 4.7571e-07 -0.00198446)
(-0.0198621 7.19787e-07 -0.00198294)
(-0.0198618 1.2855e-07 -0.00198246)
(-0.0198614 -3.12054e-07 -0.00198226)
(-0.0198609 -5.79062e-07 -0.00198229)
(-0.0198609 -3.39241e-07 -0.00198256)
(-0.0244908 7.43431e-07 -0.00174776)
(-0.0244899 6.46922e-07 -0.00174512)
(-0.024489 -7.01787e-07 -0.00174436)
(-0.0244879 -1.47645e-06 -0.00174426)
(-0.0244864 -1.85709e-06 -0.00174462)
(-0.0244854 -9.34062e-07 -0.0017455)
(-0.0293288 9.1776e-07 -0.00145799)
(-0.0293268 6.03291e-08 -0.00145462)
(-0.0293248 -2.44735e-06 -0.00145402)
(-0.0293227 -3.63652e-06 -0.00145445)
(-0.0293201 -4.09985e-06 -0.00145558)
(-0.0293174 -1.98852e-06 -0.00145754)
(-0.0335586 5.83102e-07 -0.00155092)
(-0.0335545 -1.37258e-06 -0.00154777)
(-0.0335515 -4.72704e-06 -0.00154785)
(-0.0335485 -6.00124e-06 -0.00154914)
(-0.0335449 -6.36452e-06 -0.00155123)
(-0.0335406 -3.0589e-06 -0.00155433)
(-0.0344119 -4.67714e-07 -0.00130105)
(-0.0344052 -3.15685e-06 -0.00129913)
(-0.0344011 -5.87612e-06 -0.00130047)
(-0.0343974 -6.53378e-06 -0.00130292)
(-0.0343929 -6.52668e-06 -0.0013062)
(-0.0343867 -3.09478e-06 -0.00131064)
(-0.0321377 -2.27033e-06 0.00138797)
(-0.0321293 -5.35976e-06 0.00138306)
(-0.0321255 -6.38895e-06 0.00138022)
(-0.0321224 -6.36128e-06 0.00137743)
(-0.0321181 -5.84529e-06 0.00137409)
(-0.0321107 -2.73843e-06 0.00136935)
(-0.0177265 -1.43743e-06 0.0112272)
(-0.0177218 -2.0078e-06 0.0112214)
(-0.0177203 -1.18527e-06 0.0112195)
(-0.0177192 -6.52156e-07 0.0112181)
(-0.0177174 2.39492e-07 0.0112165)
(-0.0177135 4.67435e-07 0.0112141)
(-0.00152028 4.34419e-07 -0.00457818)
(-0.00152013 2.62012e-07 -0.00457816)
(-0.00152011 -2.29397e-07 -0.00457819)
(-0.00152008 -1.84421e-07 -0.00457823)
(-0.00152005 -3.69727e-07 -0.00457827)
(-0.00152005 -2.68153e-07 -0.00457849)
(-0.00463069 2.51689e-07 -0.00477419)
(-0.00463033 8.82305e-08 -0.00477415)
(-0.00463032 -2.93856e-07 -0.00477417)
(-0.00463026 -2.79093e-07 -0.00477421)
(-0.00463023 -4.97651e-07 -0.00477426)
(-0.00463033 -3.48289e-07 -0.00477448)
(-0.0079531 1.34739e-07 -0.00515277)
(-0.00795266 9.70364e-09 -0.00515259)
(-0.00795266 -2.75773e-07 -0.00515258)
(-0.00795263 -2.87313e-07 -0.0051526)
(-0.00795261 -4.44119e-07 -0.00515262)
(-0.0079529 -3.07361e-07 -0.00515281)
(-0.0116357 5.89681e-08 -0.0056868)
(-0.0116352 -2.48786e-08 -0.00568625)
(-0.0116352 -2.31801e-07 -0.00568613)
(-0.0116351 -2.69535e-07 -0.00568606)
(-0.0116351 -3.65477e-07 -0.00568605)
(-0.0116355 -2.4509e-07 -0.00568622)
(-0.0158126 1.95576e-08 -0.00632422)
(-0.0158121 -7.56348e-08 -0.00632277)
(-0.015812 -2.90061e-07 -0.00632231)
(-0.0158118 -3.86495e-07 -0.00632206)
(-0.0158116 -4.21844e-07 -0.00632198)
(-0.0158119 -2.34313e-07 -0.00632221)
(-0.0205045 7.51924e-09 -0.00696691)
(-0.0205039 -2.78377e-07 -0.00696378)
(-0.0205036 -7.24818e-07 -0.00696274)
(-0.0205031 -9.47087e-07 -0.00696233)
(-0.0205023 -9.35138e-07 -0.0069624)
(-0.0205022 -4.36045e-07 -0.00696313)
(-0.025371 -1.39226e-07 -0.00731833)
(-0.0253701 -9.62481e-07 -0.00731309)
(-0.0253691 -1.85344e-06 -0.00731159)
(-0.0253678 -2.19693e-06 -0.00731142)
(-0.025366 -2.11857e-06 -0.00731229)
(-0.0253645 -9.66522e-07 -0.00731444)
(-0.0296541 -6.03553e-07 -0.00658159)
(-0.0296522 -2.28701e-06 -0.00657498)
(-0.02965 -3.5321e-06 -0.00657379)
(-0.0296475 -3.81806e-06 -0.00657465)
(-0.0296442 -3.56743e-06 -0.00657714)
(-0.0296407 -1.61535e-06 -0.00658158)
(-0.0332194 -1.2726e-06 -0.00312117)
(-0.0332158 -3.53688e-06 -0.00311482)
(-0.0332123 -4.52887e-06 -0.00311464)
(-0.0332084 -4.45694e-06 -0.00311699)
(-0.0332033 -4.00711e-06 -0.00312137)
(-0.0331972 -1.8263e-06 -0.00312795)
(-0.0364195 -9.65533e-07 0.00660652)
(-0.0364128 -3.04295e-06 0.00660971)
(-0.036408 -4.01289e-06 0.00660804)
(-0.036403 -3.87283e-06 0.00660458)
(-0.0363967 -3.99047e-06 0.00659929)
(-0.0363884 -2.07434e-06 0.00659189)
(-0.0402742 -1.73945e-06 0.0189275)
(-0.0402636 -3.23747e-06 0.018918)
(-0.0402587 -2.75623e-06 0.0189141)
(-0.0402541 -2.34553e-06 0.0189107)
(-0.0402481 -2.6073e-06 0.0189061)
(-0.0402393 -1.5446e-06 0.0188992)
(-0.0301107 -8.97974e-07 0.0481809)
(-0.0301034 -3.29564e-07 0.0481672)
(-0.0301006 9.56879e-07 0.0481624)
(-0.0300982 1.30667e-06 0.0481587)
(-0.030095 1.85096e-06 0.0481547)
(-0.0300904 1.05005e-06 0.0481507)
(-0.00142393 3.29885e-07 -0.00741425)
(-0.0014238 1.6212e-07 -0.00741413)
(-0.0014238 -2.39728e-07 -0.00741411)
(-0.00142377 -2.05629e-07 -0.00741413)
(-0.00142376 -3.58609e-07 -0.00741413)
(-0.00142378 -2.48898e-07 -0.00741435)
(-0.00434961 1.73183e-07 -0.00776087)
(-0.00434932 2.81721e-08 -0.00776069)
(-0.00434933 -2.77059e-07 -0.00776069)
(-0.00434929 -2.74766e-07 -0.0077607)
(-0.00434928 -4.46374e-07 -0.00776071)
(-0.00434943 -3.02786e-07 -0.00776095)
(-0.00750896 9.48779e-08 -0.00844105)
(-0.00750861 -2.30174e-08 -0.00844073)
(-0.00750861 -2.68042e-07 -0.00844069)
(-0.00750859 -2.92064e-07 -0.00844068)
(-0.00750859 -4.17693e-07 -0.00844067)
(-0.0075089 -2.74611e-07 -0.0084409)
(-0.0110473 3.86034e-08 -0.00942346)
(-0.0110469 -8.16298e-08 -0.00942277)
(-0.0110469 -2.99307e-07 -0.0094226)
(-0.0110468 -3.47947e-07 -0.0094225)
(-0.0110468 -4.28077e-07 -0.00942245)
(-0.0110472 -2.57141e-07 -0.0094227)
(-0.0151048 -6.23185e-08 -0.0106139)
(-0.0151044 -2.46444e-07 -0.0106122)
(-0.0151043 -4.55008e-07 -0.0106117)
(-0.0151042 -5.31298e-07 -0.0106114)
(-0.015104 -5.10906e-07 -0.0106113)
(-0.0151044 -2.46159e-07 -0.0106118)
(-0.0199256 -2.09813e-07 -0.0118128)
(-0.0199252 -6.39379e-07 -0.0118096)
(-0.0199249 -9.53518e-07 -0.0118085)
(-0.0199244 -1.03277e-06 -0.0118082)
(-0.0199238 -8.84613e-07 -0.0118084)
(-0.0199239 -3.65959e-07 -0.0118096)
(-0.0261277 -4.47079e-07 -0.0125688)
(-0.0261271 -1.28471e-06 -0.0125638)
(-0.0261264 -1.72925e-06 -0.0125625)
(-0.0261254 -1.76383e-06 -0.0125627)
(-0.026124 -1.50872e-06 -0.0125639)
(-0.0261233 -6.1676e-07 -0.0125669)
(-0.0348388 -6.04695e-07 -0.0124304)
(-0.0348377 -1.72961e-06 -0.0124246)
(-0.0348364 -2.09377e-06 -0.0124239)
(-0.0348348 -1.84887e-06 -0.0124253)
(-0.0348325 -1.61892e-06 -0.0124283)
(-0.034831 -7.14241e-07 -0.0124338)
(-0.0473048 -5.78957e-08 -0.011383)
(-0.0473024 -4.29374e-07 -0.0113778)
(-0.0473008 -4.60709e-07 -0.0113781)
(-0.0472991 -2.47516e-07 -0.0113808)
(-0.047297 -5.73485e-07 -0.0113854)
(-0.0472956 -3.99115e-07 -0.0113925)
(-0.056037 5.84743e-07 -0.00759096)
(-0.0560328 1.73143e-06 -0.00758936)
(-0.0560319 3.36545e-06 -0.00759037)
(-0.0560315 4.42388e-06 -0.00759265)
(-0.0560313 3.32243e-06 -0.00759632)
(-0.0560323 1.10656e-06 -0.00760255)
(-0.0640812 5.75357e-07 -0.00242389)
(-0.0640711 3.27958e-06 -0.00243417)
(-0.0640695 6.51496e-06 -0.00243715)
(-0.0640701 8.24741e-06 -0.00243856)
(-0.0640713 7.77079e-06 -0.00244148)
(-0.0640736 3.40774e-06 -0.00244833)
(-0.0459065 -3.75637e-06 0.0382262)
(-0.0458977 -5.1589e-06 0.0382099)
(-0.0458951 -2.53498e-06 0.0382034)
(-0.0458946 -8.6959e-07 0.0381993)
(-0.0458945 1.446e-06 0.0381953)
(-0.045895 1.53171e-06 0.0381911)
(-0.00125347 1.77989e-07 -0.00994697)
(-0.00125338 4.27767e-08 -0.00994675)
(-0.00125338 -2.14923e-07 -0.00994672)
(-0.00125336 -1.95898e-07 -0.00994671)
(-0.00125336 -2.65585e-07 -0.0099467)
(-0.00125337 -1.70152e-07 -0.00994699)
(-0.00384979 8.94186e-08 -0.0104718)
(-0.00384955 -3.3292e-08 -0.0104715)
(-0.00384955 -2.44602e-07 -0.0104715)
(-0.00384953 -2.44399e-07 -0.0104715)
(-0.00384953 -3.58206e-07 -0.0104715)
(-0.00384966 -2.34622e-07 -0.0104718)
(-0.00673234 2.0998e-08 -0.0115228)
(-0.00673196 -1.01959e-07 -0.0115224)
(-0.00673193 -2.7172e-07 -0.0115224)
(-0.00673191 -2.87223e-07 -0.0115224)
(-0.00673191 -3.61025e-07 -0.0115223)
(-0.00673221 -2.21343e-07 -0.0115226)
(-0.0101541 -1.05741e-07 -0.0130942)
(-0.0101536 -2.78424e-07 -0.0130935)
(-0.0101535 -3.86867e-07 -0.0130933)
(-0.0101535 -3.99489e-07 -0.0130932)
(-0.0101534 -3.75418e-07 -0.0130931)
(-0.0101538 -1.8931e-07 -0.0130935)
(-0.0144442 -1.79964e-07 -0.0151235)
(-0.0144434 -4.89994e-07 -0.0151219)
(-0.0144432 -6.34155e-07 -0.0151215)
(-0.014443 -6.04748e-07 -0.0151212)
(-0.0144428 -5.25741e-07 -0.0151211)
(-0.0144433 -2.47588e-07 -0.0151217)
(-0.020025 -5.56442e-07 -0.0174145)
(-0.0200237 -1.13031e-06 -0.0174118)
(-0.0200231 -1.0872e-06 -0.017411)
(-0.0200227 -9.15455e-07 -0.0174107)
(-0.0200223 -5.66051e-07 -0.0174108)
(-0.0200225 -1.76055e-07 -0.0174121)
(-0.026859 -8.82446e-07 -0.0195265)
(-0.0268567 -1.65638e-06 -0.0195226)
(-0.0268556 -1.32509e-06 -0.0195217)
(-0.0268548 -9.12876e-07 -0.0195219)
(-0.026854 -3.9387e-07 -0.019523)
(-0.026854 -5.89806e-08 -0.0195258)
(-0.0339922 -1.31045e-06 -0.0198728)
(-0.0339881 -1.92778e-06 -0.0198686)
(-0.0339866 -7.0067e-07 -0.0198683)
(-0.0339854 2.23231e-07 -0.0198696)
(-0.0339845 8.59534e-07 -0.0198723)
(-0.0339845 5.08785e-07 -0.0198768)
(-0.0413376 -1.40052e-06 -0.0164877)
(-0.0413313 -9.25461e-07 -0.0164844)
(-0.0413298 1.68116e-06 -0.0164849)
(-0.0413296 2.9441e-06 -0.0164874)
(-0.0413299 3.34824e-06 -0.0164911)
(-0.0413313 1.59422e-06 -0.0164966)
(-0.0493423 -1.88558e-06 0.0041749)
(-0.049335 1.05392e-07 0.00417623)
(-0.049335 5.4329e-06 0.00417572)
(-0.0493372 7.83466e-06 0.00417385)
(-0.0493398 7.95324e-06 0.00417054)
(-0.049343 3.51789e-06 0.00416594)
(-0.0735245 -3.29006e-07 0.0499389)
(-0.0735093 1.57878e-06 0.0499281)
(-0.0735072 4.66692e-06 0.0499257)
(-0.0735122 5.90717e-06 0.0499264)
(-0.0735187 5.18567e-06 0.0499256)
(-0.0735226 2.13369e-06 0.0499224)
(-0.0819903 -8.18196e-06 0.217297)
(-0.0819667 -1.39919e-05 0.217241)
(-0.0819602 -1.15538e-05 0.217222)
(-0.0819624 -8.89753e-06 0.217219)
(-0.0819679 -2.85757e-06 0.217223)
(-0.0819733 9.12872e-07 0.217233)
(-3.45253 2.87265e-05 -4.60656)
(-3.45256 5.69167e-06 -4.60653)
(-3.45246 2.61794e-05 -4.60653)
(-3.45257 2.39226e-05 -4.60656)
(-3.4526 4.02931e-05 -4.60653)
(-3.45223 -4.47263e-06 -4.60643)
(-1.69447 3.4713e-05 -4.74606)
(-1.69437 1.18341e-06 -4.74607)
(-1.69428 2.895e-05 -4.74612)
(-1.69447 2.88775e-06 -4.74607)
(-1.69449 8.76763e-05 -4.74599)
(-1.69388 2.37767e-05 -4.7461)
(-0.263723 -2.31238e-05 -4.15032)
(-0.26378 -3.4596e-05 -4.15043)
(-0.263767 -6.23905e-06 -4.15045)
(-0.263757 -1.34085e-05 -4.15036)
(-0.263772 -2.69215e-05 -4.15035)
(-0.263783 -1.93438e-05 -4.15045)
(3.01146 -3.46211e-05 -5.13605)
(3.0115 -6.70246e-05 -5.136)
(3.01141 -1.16955e-05 -5.13605)
(3.0115 3.65647e-05 -5.13607)
(3.01152 7.88245e-06 -5.13609)
(3.0112 -3.95325e-06 -5.13611)
(1.39328 -5.36471e-05 -4.76659)
(1.39338 -6.20386e-05 -4.76667)
(1.39334 -7.60981e-06 -4.76662)
(1.39333 2.54465e-05 -4.76658)
(1.39337 -1.03408e-05 -4.76662)
(1.39342 -3.37048e-06 -4.76644)
(-0.568762 3.97151e-06 -5.04704)
(-0.56878 -7.63176e-06 -5.04714)
(-0.568783 -2.33744e-05 -5.04707)
(-0.568789 -1.946e-05 -5.04704)
(-0.568792 -2.23894e-05 -5.04708)
(-0.568781 -1.7039e-05 -5.04696)
(-1.77773 -3.63302e-05 -2.04763)
(-1.77819 -8.25908e-06 -2.04779)
(-1.77819 3.34678e-05 -2.0478)
(-1.77814 2.14019e-05 -2.04779)
(-1.77799 6.39686e-05 -2.04779)
(-1.77773 8.62744e-05 -2.04778)
(-1.85281 -1.26266e-05 -1.05561)
(-1.85308 6.5262e-06 -1.05562)
(-1.85307 -1.50649e-05 -1.05556)
(-1.85313 -2.30685e-06 -1.05555)
(-1.85312 -1.84984e-05 -1.05559)
(-1.85282 2.0305e-05 -1.05554)
(-0.624118 8.03455e-06 -1.10777)
(-0.624101 7.22924e-07 -1.10779)
(-0.624124 2.05301e-06 -1.10774)
(-0.624128 2.12228e-06 -1.10772)
(-0.624119 4.3514e-06 -1.10772)
(-0.624142 -3.52273e-06 -1.10763)
(-2.62061 6.36388e-05 -2.17407)
(-2.62102 2.90423e-05 -2.1742)
(-2.62097 -8.59926e-05 -2.17408)
(-2.62097 -6.39285e-05 -2.17403)
(-2.62097 -6.61579e-05 -2.17405)
(-2.62068 5.72044e-06 -2.17405)
(-0.801019 -3.81244e-06 -2.60019)
(-0.801178 -5.20024e-05 -2.60031)
(-0.801244 -7.53462e-05 -2.60028)
(-0.801296 -6.45201e-05 -2.60029)
(-0.801334 -5.82677e-05 -2.60029)
(-0.801293 -2.87791e-05 -2.60013)
(-0.285796 6.74065e-06 -2.72436)
(-0.285783 6.12581e-06 -2.72444)
(-0.285806 -5.38771e-06 -2.72442)
(-0.285813 -1.22501e-05 -2.72443)
(-0.28582 -1.80238e-05 -2.72445)
(-0.285848 -9.66071e-06 -2.72436)
(-2.10663 -3.81965e-05 -0.304805)
(-2.10684 -4.76029e-05 -0.304832)
(-2.10683 -2.60048e-05 -0.304666)
(-2.10684 -1.56948e-05 -0.30453)
(-2.10683 8.12148e-06 -0.304502)
(-2.10662 1.85858e-05 -0.304427)
(-0.840692 -1.54122e-05 -2.42474)
(-0.840785 -4.07862e-05 -2.42488)
(-0.84082 -6.2337e-05 -2.42487)
(-0.840862 -5.26815e-05 -2.42485)
(-0.840888 -3.36681e-05 -2.42484)
(-0.84084 -5.38834e-06 -2.42467)
(-0.0668019 -6.61504e-07 -2.34005)
(-0.0668029 -7.424e-06 -2.34018)
(-0.0668118 -1.85251e-05 -2.3402)
(-0.0668181 -2.80767e-05 -2.34022)
(-0.0668223 -2.56656e-05 -2.34026)
(-0.0668359 -1.10675e-05 -2.34018)
(-1.18618 -9.39541e-05 -1.19042)
(-1.18651 -0.000104263 -1.1905)
(-1.18654 -2.73309e-05 -1.19042)
(-1.18654 -3.42536e-06 -1.19034)
(-1.18651 4.74539e-05 -1.19034)
(-1.18626 3.69104e-05 -1.19026)
(-0.143266 -1.31006e-05 -2.82388)
(-0.143319 -2.91849e-05 -2.82398)
(-0.143335 -3.52991e-05 -2.82396)
(-0.14335 -3.04019e-05 -2.82395)
(-0.143358 -1.25606e-05 -2.82394)
(-0.143281 5.4804e-06 -2.82379)
(-0.0187044 -1.98209e-06 -2.43113)
(-0.0187097 -1.22237e-05 -2.43123)
(-0.0187108 -2.05141e-05 -2.43123)
(-0.0187085 -2.39484e-05 -2.43125)
(-0.0187035 -2.41538e-05 -2.43128)
(-0.0187004 -1.28387e-05 -2.43121)
(-1.10556 -1.62103e-05 -2.59103)
(-1.10593 3.42331e-05 -2.59118)
(-1.10585 0.000123155 -2.59117)
(-1.10577 0.000113492 -2.59118)
(-1.10571 0.0001552 -2.59121)
(-1.10536 9.7378e-05 -2.59114)
(-0.364393 -2.8574e-05 -2.64091)
(-0.364467 -3.37644e-05 -2.64094)
(-0.364485 3.6454e-07 -2.64094)
(-0.364478 1.30967e-06 -2.64097)
(-0.364478 4.62864e-05 -2.64101)
(-0.364354 5.05535e-05 -2.64098)
(-0.0912664 -1.02211e-05 -2.55532)
(-0.0912723 -1.79153e-05 -2.55538)
(-0.0912697 -1.16628e-05 -2.55538)
(-0.0912641 -3.65848e-06 -2.55538)
(-0.091256 1.26013e-06 -2.55539)
(-0.0912464 1.08148e-06 -2.55534)
(-1.01584 4.82353e-05 -2.74183)
(-1.01645 0.000106238 -2.74211)
(-1.01632 0.000119416 -2.74206)
(-1.01624 9.26979e-05 -2.74206)
(-1.01621 0.000108986 -2.74201)
(-1.01566 7.9349e-05 -2.74195)
(-0.414688 -2.68698e-05 -2.24192)
(-0.414958 -3.33904e-05 -2.24195)
(-0.414988 -8.73696e-06 -2.24197)
(-0.415015 -4.0685e-05 -2.24201)
(-0.415087 3.57119e-05 -2.24205)
(-0.414756 7.34732e-05 -2.24208)
(-0.017682 -1.19884e-05 -2.33371)
(-0.0177241 -1.79451e-05 -2.33372)
(-0.0177434 -9.12717e-06 -2.3337)
(-0.0177627 -8.72109e-06 -2.3337)
(-0.0177796 6.21701e-06 -2.33368)
(-0.0177742 1.25843e-05 -2.33366)
(-0.83667 0.000113847 -3.04105)
(-0.837189 0.000213147 -3.04113)
(-0.837106 0.000180429 -3.04095)
(-0.837121 0.00020138 -3.04082)
(-0.837296 7.33174e-05 -3.04055)
(-0.83656 -4.38005e-05 -3.04084)
(-0.773522 -5.82837e-05 -2.72082)
(-0.774001 -6.93531e-05 -2.72078)
(-0.773995 -6.1102e-05 -2.72077)
(-0.774095 -0.000142157 -2.72075)
(-0.774413 -3.25102e-05 -2.72056)
(-0.773563 5.85242e-05 -2.72084)
(-0.185433 -6.67461e-05 -2.64174)
(-0.185573 -0.00011309 -2.6417)
(-0.185607 -0.000103995 -2.64168)
(-0.185675 -0.000131542 -2.64166)
(-0.185745 -7.08069e-05 -2.64164)
(-0.185616 2.17556e-06 -2.64176)
(3.16752 0.000191329 -0.152014)
(3.16778 0.000348295 -0.151296)
(3.16813 0.000317003 -0.150842)
(3.16819 0.000290251 -0.150437)
(3.1691 0.000690945 -0.149933)
(3.1683 0.000608133 -0.150605)
(0.0349372 6.58429e-05 -2.1453)
(0.0344014 0.000127415 -2.1449)
(0.0347253 6.60987e-05 -2.1446)
(0.0342873 -0.000237074 -2.14434)
(0.0347569 0.000473406 -2.14408)
(0.0343574 0.000735147 -2.14377)
(0.0561735 -5.13558e-05 -3.07073)
(0.0558455 -8.4438e-05 -3.07065)
(0.0558873 -0.000139074 -3.07054)
(0.0556624 -0.000107057 -3.07042)
(0.0558362 -0.00011822 -3.07021)
(0.0555165 -0.000112583 -3.0704)
(5.19471 0.00010279 6.32066)
(5.19504 0.000548336 6.32167)
(5.19548 0.000304083 6.32248)
(5.19495 0.000604269 6.3224)
(5.19477 -4.77641e-05 6.31166)
(5.19598 -0.000826893 6.33327)
(2.52965 0.000150953 0.971085)
(2.53017 0.000447934 0.972024)
(2.53101 -0.00040517 0.973153)
(2.53046 0.00161988 0.973436)
(2.52629 -0.00152557 0.964024)
(2.536 -0.00381176 0.984282)
(0.08167 0.000140212 -4.38287)
(0.0814453 0.000252495 -4.38238)
(0.0817762 -0.000139865 -4.3822)
(0.0815968 0.000989665 -4.38142)
(0.0815028 -0.000883186 -4.38408)
(0.0818656 -0.00210761 -4.37718)
(11.6085 -0.000182142 15.8265)
(11.6093 5.85718e-05 15.8273)
(11.6094 -9.43977e-05 15.8274)
(11.609 0.000573535 15.8275)
(11.619 -0.00162647 15.8341)
(11.5987 -0.00250411 15.8219)
(9.72379 6.54369e-05 13.6618)
(9.72452 0.000528253 13.6624)
(9.72508 -0.000714732 13.6631)
(9.7244 0.00190015 13.6635)
(9.73153 -0.00273386 13.6617)
(9.71801 -0.00577538 13.6653)
(5.75463 0.00023261 8.549)
(5.75537 0.000632788 8.54948)
(5.75554 -0.000784548 8.55003)
(5.75546 0.00214286 8.551)
(5.75869 -0.00243136 8.5448)
(5.75307 -0.00570141 8.5586)
(-1.03109 -6.8234e-06 -0.293519)
(-1.03107 -2.03266e-05 -0.293531)
(-1.03105 -1.34067e-06 -0.293538)
(-1.03106 -9.65782e-06 -0.293534)
(-1.03104 8.78592e-07 -0.293543)
(-1.03104 2.4028e-05 -0.293511)
(-0.438198 7.8496e-06 -0.862058)
(-0.438178 -4.05785e-06 -0.86207)
(-0.438136 1.91756e-05 -0.862066)
(-0.438193 -3.88886e-06 -0.862056)
(-0.438086 4.58521e-05 -0.862056)
(-0.438301 8.119e-05 -0.861998)
(0.44912 -1.24937e-05 -0.256312)
(0.449177 -7.49853e-06 -0.25629)
(0.449191 4.12101e-05 -0.256282)
(0.449115 2.58579e-05 -0.256315)
(0.449226 0.000111245 -0.256309)
(0.44887 0.000122706 -0.256398)
(-1.0214 1.92016e-05 -0.629167)
(-1.02136 -1.49998e-05 -0.62919)
(-1.0213 -1.30838e-06 -0.629208)
(-1.02137 -8.30286e-06 -0.629182)
(-1.02125 -4.88948e-05 -0.629244)
(-1.02141 -1.82066e-05 -0.629077)
(-0.43642 4.09073e-05 -1.51129)
(-0.436475 -7.97912e-06 -1.51138)
(-0.436367 4.32112e-05 -1.51138)
(-0.436497 -6.71037e-05 -1.51134)
(-0.436244 0.000115438 -1.51142)
(-0.436715 0.000272215 -1.51107)
(0.764619 -4.64764e-05 -0.421142)
(0.764689 -5.51115e-05 -0.421244)
(0.764783 0.000110539 -0.421167)
(0.764569 -3.77167e-05 -0.421259)
(0.76503 0.000342413 -0.421348)
(0.763992 0.00050013 -0.421193)
(-2.95726 1.89211e-05 -0.882176)
(-2.95732 -5.84978e-05 -0.882214)
(-2.95732 3.03992e-05 -0.882237)
(-2.95725 -8.37773e-05 -0.88218)
(-2.95774 1.44965e-05 -0.882295)
(-2.95658 0.000209322 -0.881871)
(-0.896827 0.000201828 -2.33046)
(-0.896984 6.86845e-05 -2.33062)
(-0.896735 8.29092e-05 -2.3306)
(-0.896973 -0.000192358 -2.33051)
(-0.895803 0.000255822 -2.33084)
(-0.898147 0.000666952 -2.32985)
(1.43627 -1.36847e-05 -0.181849)
(1.43659 -0.000100604 -0.181)
(1.43676 0.000278886 -0.181117)
(1.43626 -0.000518127 -0.181601)
(1.43797 0.00102386 -0.17949)
(1.43404 0.00191252 -0.18468)
(-1.27669 0.000177001 -1.56251)
(-1.27675 0.000145676 -1.56243)
(-1.27652 -5.21817e-05 -1.56258)
(-1.27678 0.000507656 -1.5624)
(-1.27587 -0.000945973 -1.56311)
(-1.2774 -0.00150508 -1.562)
(-0.370728 0.00063034 -1.91675)
(-0.371318 0.000283462 -1.91651)
(-0.371103 1.8308e-05 -1.91692)
(-0.371117 -0.00156175 -1.91664)
(-0.369331 0.0013232 -1.90868)
(-0.373845 0.00327137 -1.92704)
(3.19228 0.000319349 5.2837)
(3.1936 -3.44449e-05 5.28963)
(3.19308 0.000234586 5.28752)
(3.19292 -0.0019075 5.28663)
(3.2001 0.00211501 5.30546)
(3.18374 0.00466671 5.26256)