/*--------------------------------*- C++ -*----------------------------------*\
| =========                 |                                                 |
| \\      /  F ield         | OpenFOAM: The Open Source CFD Toolbox           |
|  \\    /   O peration     | Version:  v1612+                                |
|   \\  /    A nd           | Web:      www.OpenFOAM.com                      |
|    \\/     M anipulation  |                                                 |
\*---------------------------------------------------------------------------*/
FoamFile
{
    version     2.0;
    format      ascii;
    class       surfaceScalarField;
    location    "6.15";
    object      alphaPhi;
}
// * * * * * * * * * * * * * * * * * * * * * * * * * * * * * * * * * * * * * //

dimensions      [0 3 -1 0 0 0 0];

internalField   nonuniform List<scalar> 
2916
(
-8.69146e-05
-0.609759
0.367898
1.29237e-05
-0.609869
0.367822
2.19554e-05
-0.609812
0.367856
3.33822e-07
-0.60979
0.367864
4.50792e-05
-0.609821
0.367828
-0.609786
0.367883
-7.88626e-05
-1.00979
0.267342
1.60682e-05
-1.00996
0.267194
1.68296e-05
-1.00986
0.26726
-1.78083e-06
-1.00983
0.26728
3.38333e-05
-1.00989
0.267237
-1.00984
0.267306
-2.68891e-05
-1.17689
0.167197
9.01662e-06
-1.17705
0.167126
5.64972e-06
-1.17695
0.167159
-2.24564e-06
-1.17694
0.167183
5.94162e-06
-1.17698
0.167158
-1.17694
0.16718
-1.59882e-07
-1.23963
0.0628062
6.10365e-06
-1.23979
0.062794
2.86973e-06
-1.23968
0.0628021
3.15998e-06
-1.23971
0.0628415
-7.52582e-06
-1.23974
0.0628375
-1.23966
0.0627824
1.84683e-05
-1.20669
-0.0225348
1.25936e-05
-1.20687
-0.0224963
2.56095e-05
-1.20676
-0.0225196
9.98414e-06
-1.20682
-0.0224656
-4.71886e-05
-1.20684
-0.0224442
-1.20673
-0.0225628
-7.16603e-05
-1.11564
-0.0576727
4.80691e-05
-1.1161
-0.057622
0.000152919
-1.11591
-0.0576727
2.83832e-05
-1.11587
-0.0575633
-0.000160706
-1.11589
-0.0575231
-1.11584
-0.0577348
-0.00011707
-0.99971
-0.0711477
5.00529e-05
-1.00048
-0.071164
0.000214136
-1.00023
-0.0711999
8.45456e-06
-1.00001
-0.0710258
-0.000142452
-1.0002
-0.0709351
-1.00001
-0.0712987
8.41393e-05
-0.875786
-0.0761174
3.73929e-07
-0.876436
-0.0760994
7.59132e-05
-0.876306
-0.0761304
-7.38272e-05
-0.876013
-0.0759979
0.000156836
-0.876637
-0.0759664
-0.87575
-0.0761901
0.0004596
-0.7111
-0.116882
3.32001e-05
-0.71066
-0.117059
-0.000218233
-0.710836
-0.116935
-4.37008e-05
-0.711105
-0.116842
0.000449123
-0.712558
-0.116422
-0.709508
-0.117379
0.000788007
-0.505471
-0.15847
5.15244e-05
-0.501773
-0.16017
-0.000818545
-0.502514
-0.159482
0.000173138
-0.505339
-0.158832
0.00111242
-0.508871
-0.156795
-0.498732
-0.16156
0.000943299
-0.181233
-0.276744
-0.000110473
-0.177304
-0.274888
-0.00149917
-0.177974
-0.274659
-0.000214022
-0.180974
-0.277216
0.00202374
-0.184274
-0.27855
-0.175112
-0.272929
-0.000295448
-0.132439
0.000120821
-0.129681
0.000358534
-0.130117
3.90323e-05
-0.132171
-0.000711202
-0.134663
-0.128181
1.59328e-05
-1.05423
1.09918
2.34425e-05
-1.05456
1.10036
-8.49632e-06
-1.05438
1.09986
-5.15964e-06
-1.0544
1.09975
6.31358e-06
-1.05448
1.1001
-1.0543
1.09952
2.24272e-05
-1.27817
0.53644
-2.45916e-06
-1.27843
0.536263
-4.57049e-07
-1.2783
0.536344
1.39919e-05
-1.27832
0.536359
-1.8832e-05
-1.27838
0.536349
-1.27821
0.536375
-3.84211e-05
-1.07583
0.071492
-7.68704e-06
-1.076
0.0714482
2.35774e-05
-1.07592
0.0714637
1.689e-05
-1.07594
0.0714869
2.21165e-05
-1.07599
0.0714777
-1.07584
0.0714786
-0.000222984
-0.56342
-0.0312091
-6.81692e-06
-0.563552
-0.0311745
8.17691e-05
-0.563491
-0.0311874
3.02337e-05
-0.563511
-0.0311993
0.000125627
-0.563561
-0.0311943
-0.563422
-0.0311943
-0.000202482
-0.182025
-0.00323816
-2.18014e-06
-0.182294
-0.00321477
6.99753e-05
-0.182203
-0.00322263
2.86552e-05
-0.182145
-0.00323271
0.000134543
-0.182246
-0.00322846
-0.182096
-0.0032274
4.76294e-05
0.0283464
-0.00031849
-4.03749e-05
0.0280941
-0.000315294
-0.000134102
0.0281711
-0.000316298
-5.235e-06
0.0282266
-0.000317863
0.000279374
0.0280616
-0.000317237
0.0283493
-0.000316925
0.000126927
0.146716
-3.61827e-05
-5.66794e-05
0.146689
-3.59098e-05
-0.000199765
0.146677
-3.59938e-05
-3.98624e-05
0.146651
-3.61708e-05
0.000251621
0.146462
-3.6043e-05
0.146886
-3.61141e-05
0.000180622
0.219509
-0.000211904
-9.2147e-05
0.219984
-0.000209132
-0.000300684
0.219922
-0.000206426
-4.19175e-05
0.219476
-0.000213764
0.000533402
0.219085
-0.000221667
0.220228
-0.000197695
-8.63429e-05
0.214457
-0.000305983
1.69777e-05
0.214912
-0.000262291
8.72572e-06
0.215105
-0.000232856
0.00020245
0.214124
-0.000308261
0.000114937
0.214215
-0.000289997
0.215214
-0.000264139
-0.0029641
0.1355
-0.00261044
0.000644117
0.12784
-0.00249727
0.00337124
0.129715
-0.00251982
0.000277134
0.134675
-0.00261802
-0.00809349
0.141942
-0.00274101
0.122382
-0.00242472
-0.00267336
-0.00716556
-3.80674e-05
0.00067749
-0.0133177
-6.67041e-05
0.00298836
-0.0121859
-6.62549e-05
0.000741216
-0.0075241
-3.84703e-05
-0.00529488
-0.00314639
-9.56593e-08
-0.0164893
-7.71762e-05
0.000558823
-0.0179982
-0.000179009
-0.0203581
-0.00123082
-0.019753
0.000192647
-0.0184361
0.00253678
-0.0168063
-0.0211884
0.000318028
-0.597416
1.2314
2.13812e-05
-0.597725
1.23263
-5.31453e-05
-0.59759
1.23209
-3.56271e-06
-0.597591
1.23198
-0.000111153
-0.597656
1.23234
-0.597487
1.23173
-7.20766e-05
-0.0197878
-9.93332e-05
-8.81329e-06
-0.0198104
-9.75349e-05
9.9768e-06
-0.0197931
-9.81753e-05
3.3979e-06
-0.0198015
-9.84391e-05
5.76069e-05
-0.0198179
-9.79485e-05
-0.0197826
-9.87254e-05
-3.835e-05
0.0347965
-1.59104e-07
3.9545e-06
0.034755
-1.60272e-07
1.64507e-05
0.0347705
-1.60122e-07
2.30394e-06
0.0347843
-1.60669e-07
1.09066e-05
0.0347785
-1.60485e-07
0.0347788
-1.59671e-07
-8.96508e-06
0.0035968
-2.57066e-07
1.72128e-06
0.0035702
-2.67646e-07
6.08281e-06
0.00357911
-2.65581e-07
7.92714e-07
0.00359071
-2.65012e-07
-6.87531e-07
0.00358611
-2.63178e-07
0.00358422
-2.64269e-07
-3.53066e-07
0.000360174
-9.98335e-07
3.35429e-08
0.000356318
-1.08909e-06
2.56904e-07
0.000357485
-1.04194e-06
4.01008e-08
0.000359431
-1.03642e-06
1.38936e-07
0.000358775
-1.04611e-06
0.000358163
-1.01969e-06
1.71076e-07
4.65225e-05
-5.51123e-06
-3.00341e-08
4.61178e-05
-5.40694e-06
-1.02104e-07
4.61905e-05
-5.39378e-06
-2.76268e-08
4.65035e-05
-5.52515e-06
1.09872e-07
4.64212e-05
-5.59454e-06
4.6267e-05
-5.32188e-06
5.12836e-08
9.24014e-06
-4.60179e-07
-8.84305e-09
9.27415e-06
-5.18387e-07
-2.61007e-08
9.22815e-06
-4.79629e-07
-9.39347e-09
9.28665e-06
-4.91234e-07
2.99796e-08
9.27688e-06
-5.11593e-07
9.2225e-06
-4.45305e-07
3.10875e-08
3.30455e-06
-0.00020781
-5.22222e-09
3.37659e-06
-0.000205004
-4.18163e-08
3.33378e-06
-0.000202302
-1.00636e-08
3.33227e-06
-0.000209651
9.30762e-08
3.27562e-06
-0.000217573
3.37212e-06
-0.000193552
6.90833e-07
-0.000959871
-0.00350287
2.44073e-07
-0.000918429
-0.00348868
-8.06249e-06
-0.000912464
-0.00347335
-1.68217e-07
-0.00096826
-0.00351122
2.76354e-05
-0.00105566
-0.00360071
-0.000862553
-0.00335779
-0.00069752
-0.0176358
-0.00239268
0.000149125
-0.0194854
-0.00227681
0.000658281
-0.0189446
-0.00234338
0.00012224
-0.0179701
-0.00235081
-0.00153809
-0.0167296
-0.00234055
-0.0203158
-0.00236451
-0.000774193
-0.00206629
-0.0330103
0.000283101
-0.004497
-0.0342761
0.000977529
-0.00403193
-0.0336889
0.000510114
-0.00232951
-0.0335873
-0.00165422
-0.00067004
-0.0324811
-0.00554889
-0.0344668
0.00137013
-0.0238416
-0.000237899
-0.0256677
-0.00128244
-0.0251724
-0.000211941
-0.0242732
0.00288956
-0.0230149
-0.0262847
-0.00026972
-0.00025109
0.685747
-7.04743e-05
-0.000245019
0.684392
3.60732e-05
-0.000247156
0.684764
2.75445e-05
-0.000248109
0.685059
8.8358e-05
-0.000246522
0.684816
-0.000249043
0.685207
-1.53248e-10
-3.63137e-08
-0.000350265
-1.86614e-11
-3.6117e-08
-0.000342392
1.53749e-11
-3.61061e-08
-0.00034517
9.51885e-12
-3.6299e-08
-0.000346387
9.0667e-11
-3.663e-08
-0.000344309
-3.58666e-08
-0.000347608
-2.74203e-10
-3.46234e-08
-5.01648e-08
5.56648e-11
-3.52472e-08
-5.01552e-08
1.64765e-10
-3.49826e-08
-5.00038e-08
2.53613e-11
-3.48633e-08
-5.02429e-08
-4.33234e-11
-3.51594e-08
-5.07112e-08
-3.46944e-08
-4.97048e-08
-7.65454e-10
-4.14332e-08
-1.27314e-07
1.49319e-10
-4.68385e-08
-1.30884e-07
5.54595e-10
-4.46921e-08
-1.3093e-07
1.09435e-10
-4.30878e-08
-1.31234e-07
-3.9098e-10
-4.30723e-08
-1.29402e-07
-4.42124e-08
-1.30714e-07
-9.23603e-10
-5.30261e-07
-3.43345e-07
7.3841e-11
-5.91639e-07
-3.69942e-07
4.32544e-10
-5.57603e-07
-3.56757e-07
9.03856e-11
-5.53466e-07
-3.55239e-07
-5.98298e-10
-5.63665e-07
-3.54376e-07
-5.40975e-07
-3.52756e-07
1.94707e-08
-2.50482e-06
-3.36739e-06
-3.17747e-09
-2.56576e-06
-3.21995e-06
-1.2733e-08
-2.51406e-06
-3.2343e-06
-3.19033e-09
-2.5478e-06
-3.35088e-06
1.1379e-08
-2.58467e-06
-3.40447e-06
-2.47053e-06
-3.18541e-06
2.84786e-07
-1.15129e-05
8.33678e-06
-2.47262e-08
-1.27348e-05
9.65287e-06
-1.5158e-07
-1.17945e-05
8.85047e-06
-2.95986e-08
-1.21835e-05
8.97193e-06
2.13551e-07
-1.25064e-05
9.08213e-06
-1.11642e-05
8.49662e-06
-4.34919e-07
-0.00091389
0.000694285
3.63584e-07
-0.000925756
0.000706704
-5.6779e-07
-0.000910243
0.00069662
8.93315e-07
-0.000929368
0.000705558
2.80057e-06
-0.000944966
0.000712374
-0.0008904
0.000688037
-3.38584e-05
-0.0279011
0.00672246
2.28573e-07
-0.0274428
0.00662212
1.8084e-05
-0.0273278
0.00659859
1.27725e-05
-0.0279954
0.00671628
-1.57259e-05
-0.0289807
0.00689616
-0.0263036
0.00640329
-9.1536e-05
-0.0412684
-0.00756306
-1.70531e-05
-0.0402626
-0.00762916
9.01406e-06
-0.0407528
-0.00749743
-2.54814e-05
-0.041019
-0.0076841
0.00015009
-0.0422547
-0.00803238
-0.0397857
-0.00709136
0.000325311
-0.0357507
-0.017488
-4.38981e-05
-0.0353687
-0.0174175
-0.000215124
-0.0354654
-0.0174154
-7.05754e-05
-0.0357782
-0.0175155
0.000462146
-0.0362311
-0.0176099
-0.035065
-0.0172998
0.000482775
-0.0392297
-2.72776e-05
-0.0396479
-0.000226877
-0.0395372
-4.43281e-05
-0.0393262
0.000610685
-0.0389933
-0.0398313
-0.0202713
-0.0959982
0.116186
-0.0125771
-0.133836
0.125932
-0.0537012
-0.10371
0.144694
-0.0207048
-0.143137
0.110187
0.0946903
-0.213501
0.0981521
-0.0685428
0.131663
-0.0115879
-0.149774
0.0619875
-0.000906774
-0.186213
0.0647103
-0.0135988
-0.132184
0.0654553
-0.0172852
-0.217146
0.0688317
0.0195472
-0.331206
0.0809188
-0.126453
0.0775296
-0.0090766
-0.0945143
0.0238903
-0.00224508
-0.220067
0.0216526
-0.00338901
-0.0541218
0.0230059
-0.0211348
-0.21704
0.0289922
-0.00545949
-0.374825
0.028016
-0.143786
0.0370438
0.00084345
-0.248609
0.0175259
0.00802365
-0.321895
0.00757171
0.00729607
-0.245334
0.0187473
0.0114692
-0.273779
0.0116198
-0.0070727
-0.35801
0.0101217
-0.288522
0.0173323
0.00968728
-0.265021
-9.10101e-05
0.00788349
-0.345036
-5.98334e-05
0.0179911
-0.288796
-0.000101506
0.0212023
-0.316403
-9.72071e-05
-0.0056393
-0.33343
0.00144525
-0.296595
0.00271697
0.00992783
-0.267173
-2.9037e-09
8.66861e-05
-0.238485
-5.11025e-10
0.0129952
-0.242617
-1.64081e-07
0.0205061
-0.246245
-8.60103e-06
-0.000215439
-0.300059
-4.48009e-05
-0.29614
-3.82253e-05
0.00261152
-0.243143
-0.000424916
-0.000689794
-0.188478
-7.48094e-05
0.00167057
-0.157919
-1.24531e-05
0.0106931
-0.198112
-0.000327378
0.00437092
-0.26722
-0.00118389
-0.287947
-0.000788907
-0.00490965
-0.226689
-0.0075404
0.00221895
-0.21442
-0.0028968
0.00315543
-0.223802
-0.00156791
0.016694
-0.22951
-0.00675899
0.00990615
-0.242471
-0.0126109
-0.269411
-0.00555039
-0.000969462
-0.202064
-0.0306981
0.0154265
-0.213095
-0.0245612
0.0136109
-0.212007
-0.00856304
0.0240999
-0.212544
-0.0241297
0.0039646
-0.194039
-0.0254822
-0.246691
-0.0153081
-0.00570751
-0.110573
-0.0873778
0.0221344
-0.133736
-0.11345
0.0376678
-0.16564
-0.0629112
0.0456738
-0.135319
-0.082658
-0.0143492
-0.0804502
-0.0502132
-0.0778864
-0.127846
-0.0098416
0.021425
-0.118599
-0.00470853
0.0110246
-0.147496
0.0641483
-0.0119095
-0.221353
0.0495003
0.00425765
-0.123158
-0.00351256
0.0291436
-0.0557752
0.0104962
-0.0953242
-0.00884424
0.0179913
-0.0066805
0.00815905
0.0325152
-0.0731612
0.0262241
0.00133288
0.00357951
0.0532796
0.0117519
0.00352274
-0.1144
0.2039
-0.0024937
-0.0927065
0.176378
-0.0203166
-0.0975795
0.157972
-0.00100452
-0.0842504
0.17541
0.0603633
-0.100482
0.144357
-0.0616306
0.253858
-0.00088346
-0.0281156
0.0182203
-0.00183791
-0.0267721
0.012
-0.001685
-0.0339186
0.0140666
-0.000642787
-0.0327951
0.013884
-0.00346875
-0.0352444
0.0111975
-0.0464237
0.0336131
-4.37858e-05
-0.0122356
0.000600679
-0.00122163
-0.00823018
0.000352696
-0.000555863
-0.0135738
0.000701728
-0.00194095
-0.0104793
0.000311252
-0.00251102
-0.00785645
-2.40412e-05
-0.0141772
0.00243786
-3.7494e-05
9.101e-05
-4.87026e-08
-0.000963885
5.98162e-05
-3.16589e-07
-0.000622188
0.00010033
-1.30505e-07
-0.000671064
5.02145e-05
-1.31926e-06
-0.00211617
-0.00013077
-1.80374e-06
-0.00329875
-4.62909e-07
-1.10336e-10
2.68563e-12
-8.46602e-11
-1.7317e-08
1.51413e-10
-1.1726e-10
-1.19205e-06
-1.37008e-09
-1.55225e-11
-4.80388e-05
-1.45842e-07
-3.0484e-11
3.28415e-05
3.38372e-06
-7.39838e-11
2.8517e-05
-3.8272e-09
1.38426e-12
2.13548e-11
-3.00079e-09
-4.9883e-10
7.44127e-12
-1.21995e-11
-1.67205e-07
1.64044e-09
-5.42743e-10
-2.41239e-07
-8.66782e-06
-5.03919e-09
3.71865e-07
-4.20218e-05
-8.34929e-09
-9.3206e-06
-6.31697e-09
3.78362e-06
-0.000425408
-3.29146e-06
5.47452e-07
-7.12834e-05
-2.90171e-07
-1.29975e-07
-1.17342e-05
-3.16115e-08
-7.48333e-06
-0.000328733
2.19535e-08
-4.2955e-07
-0.0012324
-5.48828e-07
-0.000786386
-1.18436e-05
8.44905e-05
-0.00803723
2.03501e-06
-2.03116e-05
-0.00285924
-1.29616e-06
-0.000196817
-0.00139708
-5.98214e-06
-0.000555047
-0.00673156
9.7397e-07
0.000349964
-0.0147476
-6.42097e-07
-0.00596561
8.52024e-06
-5.66676e-05
-0.028805
-2.12257e-05
-0.00032321
-0.027352
-1.7219e-05
-0.00261123
-0.00819321
-1.11458e-06
-0.00843152
-0.0218141
-6.22167e-05
0.00636107
-0.0399909
-0.000147537
-0.00273151
-0.000199727
0.00241528
-0.0762398
-0.00584537
-0.00152293
-0.0746649
-0.00571657
-0.0232827
-0.0298723
-0.00157446
-0.0180711
-0.0546643
-0.00728113
0.00181464
-0.0692984
-0.0165832
-0.113596
-0.012345
0.00791677
-0.0442209
-0.0992403
0.0109746
-0.0414273
-0.0944735
-0.0043415
-0.112934
-0.0738816
-0.00890665
-0.048514
-0.0956302
-0.0346426
-0.0131829
-0.0756013
-0.0752304
-0.154588
0.0196787
-0.0617121
0.0219026
-0.0971601
0.0537852
-0.19078
0.00530348
-0.0925475
-0.0568146
0.00262137
-0.106572
-0.0116602
-0.0181036
0.191381
-0.000750567
-0.0112839
0.0922197
0.0125642
-0.0124781
0.0698805
0.0234895
-0.0131406
0.130513
0.0373387
-0.0104562
0.104504
-0.00639119
0.293224
-5.21958e-05
-0.000575018
0.000541733
-8.45441e-06
-0.000344879
0.00102506
0.000507788
-0.000661372
0.0017122
0.000306932
-0.000332926
0.00126989
0.000207882
-7.64249e-06
0.000847957
-0.00239433
0.00615251
5.81626e-06
-3.80285e-10
1.98725e-05
1.36267e-05
-1.48708e-09
-2.06911e-08
4.63736e-05
-1.54688e-09
7.79047e-06
2.4743e-05
9.93338e-09
-3.27761e-08
-6.81319e-06
-1.4137e-08
-1.06925e-07
-1.8166e-08
3.67133e-05
1.08075e-11
-5.86326e-12
-4.89341e-08
3.33543e-10
-1.08e-12
-3.18383e-07
6.45874e-10
-4.50119e-13
-1.3236e-07
6.08773e-09
-5.55498e-13
-1.31477e-06
9.68237e-09
-6.71518e-15
-1.82147e-06
-2.4533e-11
-4.71222e-07
-3.0383e-13
-2.44189e-11
-4.85795e-11
-9.34669e-14
-1.12696e-10
-1.74317e-12
-2.68107e-13
-4.70462e-12
-7.16087e-12
-2.12286e-13
-2.25607e-11
-3.39632e-12
-9.29347e-12
-6.38891e-11
-1.0556e-12
-3.84878e-09
-9.94551e-12
-8.22447e-11
1.37868e-08
-1.31634e-09
-6.87729e-13
-1.35952e-10
-4.37042e-12
-2.56451e-11
-3.09859e-10
-2.07567e-10
-7.11269e-11
-4.88025e-09
-1.31002e-10
-5.71084e-09
-2.69666e-09
-7.45144e-11
-1.46703e-08
-1.91313e-10
3.53939e-08
-2.24178e-06
1.20499e-08
4.54588e-09
-2.89139e-07
2.09838e-08
2.84582e-09
-3.77122e-08
3.12844e-09
2.56553e-10
1.78649e-08
-2.608e-10
-5.5202e-07
2.87959e-09
-1.99117e-09
-1.22679e-05
8.96022e-09
-2.10897e-07
4.57377e-08
1.19637e-07
-2.92998e-07
-1.39786e-06
7.81039e-08
4.1504e-07
-6.89733e-06
1.74161e-07
5.62182e-07
8.22161e-07
-1.70582e-08
-6.21781e-08
1.49163e-08
-1.71837e-08
-3.99319e-06
2.62301e-07
-6.28289e-06
-1.49294e-05
-3.90562e-09
-1.06366e-05
-1.46428e-05
2.28775e-07
-3.01675e-07
-1.89085e-05
4.04499e-07
1.40801e-07
-6.17273e-05
-1.25106e-07
1.46841e-06
-0.000148848
-1.5271e-09
-0.000202131
-1.5289e-07
-1.12848e-05
-0.00584901
-6.593e-09
-1.40691e-05
-0.00572846
-8.49041e-08
-0.00014466
-0.0014619
-1.10557e-06
-0.00024109
-0.0071975
-2.2042e-05
0.000114751
-0.0160583
-0.00101866
-0.0124313
-1.07482e-06
0.00143636
-0.0844385
-0.0101309
0.000935549
-0.0858036
-0.0094538
-0.0034605
-0.0593299
-0.000224026
-0.00276423
-0.0575946
-0.0245741
0.00436767
-0.00196519
-0.0707514
-0.062352
-0.0228014
0.0168498
-0.129946
0.0096923
-0.14556
-0.0466731
-0.165998
-0.0171635
-0.149406
0.00362537
0.00481426
-0.151277
-0.0109917
-0.000813795
0.0500166
-0.00122285
-0.000914892
0.00403019
0.00861284
-0.00154575
0.0263495
0.0125414
-0.00120476
0.0165976
0.0129237
-0.000800416
0.00125093
0.00569945
0.0449714
-7.15598e-06
-1.99567e-05
0.00150951
-1.85105e-07
-1.21242e-07
0.000103048
4.2443e-05
-8.83057e-06
0.0001302
3.60843e-05
-1.35578e-07
7.12277e-05
2.47767e-05
-7.84145e-07
5.92477e-05
-3.66318e-05
0.00716034
1.8695e-07
-1.55972e-07
-2.35573e-08
1.65023e-08
-9.53135e-08
-8.53634e-08
3.83045e-08
-1.24999e-07
-1.05786e-06
-6.33634e-09
-3.92163e-07
-8.98603e-08
-2.93089e-07
-8.34982e-07
-1.33113e-07
-4.47073e-07
1.81978e-08
6.61537e-09
-1.21417e-09
-2.70194e-08
7.63133e-10
-3.28612e-11
-2.00202e-07
-2.64738e-09
-3.93053e-10
-1.88413e-07
-5.05714e-08
-1.4937e-10
-8.84959e-07
-7.96194e-08
-2.83188e-11
-1.91299e-06
-3.34337e-10
-2.72321e-06
-3.00278e-15
-1.25265e-09
-8.00416e-12
5.20031e-14
-2.90585e-11
-3.50475e-12
-1.3088e-13
-3.93848e-10
-4.10449e-12
-5.834e-14
-1.50347e-10
-2.78623e-12
8.78044e-15
-2.85307e-11
-6.52098e-13
-3.42435e-10
-2.13379e-12
4.99708e-11
-7.64294e-09
-3.48275e-10
7.20867e-13
1.49913e-10
-1.30446e-10
4.74306e-11
-9.99221e-11
-2.06018e-10
8.55902e-13
-1.66216e-10
-1.36435e-10
-2.81118e-11
-1.38904e-11
-2.97193e-11
-4.43945e-10
-1.13565e-10
3.80047e-10
-2.05745e-08
-6.34861e-10
1.80404e-10
-9.6003e-09
-5.72019e-11
2.45353e-10
-4.03556e-09
4.18339e-11
5.98364e-11
-8.085e-10
-4.35284e-11
-6.99519e-09
-9.84193e-10
-3.75936e-11
-6.3628e-08
-2.28173e-10
7.82807e-09
8.54959e-08
3.89081e-10
1.46929e-08
4.83611e-08
3.08584e-10
3.77764e-08
4.20166e-08
3.96713e-10
6.96706e-09
1.09905e-08
-3.10198e-11
-4.16062e-08
1.49455e-08
-1.07546e-10
1.56827e-07
1.10745e-09
-7.12621e-09
1.66946e-08
-2.97399e-10
6.7423e-08
1.70563e-07
1.8398e-10
2.74954e-07
1.73993e-07
2.3255e-08
6.18901e-09
1.26783e-07
-3.85286e-11
1.83138e-10
1.92679e-08
-3.29295e-14
4.12682e-09
-3.25619e-12
4.24807e-12
9.95193e-09
-2.70266e-11
2.03719e-10
8.74061e-08
-2.7291e-09
-2.10261e-08
3.54636e-07
-1.26914e-06
-2.32555e-05
1.32621e-06
-8.815e-09
-1.67809e-09
-0.00102139
-2.0532e-05
2.15651e-07
-1.28308e-06
3.87052e-05
-0.00630978
-0.000358112
5.55891e-05
-0.00441127
-0.000386679
-0.000625602
0.000830349
-0.000372866
-0.00189446
-0.0102419
-0.00142563
0.00460123
-0.0555404
-0.00884363
-0.0174659
-0.000734152
-0.00675666
-0.0546209
-0.0174975
-0.0521674
-0.013398
-0.0431055
-0.0312855
-0.0523137
0.0305324
-0.0416966
-0.0626905
0.00033314
0.00234911
0.0231298
-2.06221e-05
0.00237236
0.0230336
-0.000107382
0.00236288
0.0230676
3.12708e-06
0.00235333
0.0230789
-0.000107298
0.00236204
0.02306
0.00235857
0.0230959
-3.20729e-05
0.0015591
-0.000730794
-1.3505e-06
0.00155632
-0.000727954
5.99761e-06
0.00155694
-0.000729004
-2.69408e-06
0.00155716
-0.000729089
7.59654e-06
0.00155696
-0.000728504
0.00155774
-0.000729858
6.36178e-07
-1.89957e-05
-5.42811e-09
-1.88838e-05
5.97819e-09
-1.89269e-05
8.16969e-09
-1.89262e-05
-3.47926e-07
-1.88868e-05
-1.8942e-05
-1.24373e-05
0.00382449
-1.61123e-07
2.09435e-07
0.00374241
-1.56513e-07
1.83765e-06
0.00377179
-1.60911e-07
-3.80975e-07
0.00378492
-1.61712e-07
6.80199e-06
0.00376323
-1.60943e-07
0.0037944
-1.6084e-07
-7.13896e-07
-3.2819e-05
-2.23886e-07
-1.52438e-07
-3.05327e-05
-2.29752e-07
-3.45171e-07
-3.14239e-05
-2.28076e-07
-3.90021e-07
-3.16892e-05
-2.27763e-07
1.32567e-07
-3.09936e-05
-2.27455e-07
-3.19235e-05
-2.27433e-07
6.59899e-10
-1.01385e-08
-9.74862e-09
-6.11279e-09
-2.03019e-08
-7.71167e-09
-1.10036e-08
-8.20652e-09
-1.75564e-09
-7.09303e-09
-8.6334e-09
-1.70997e-10
-3.10009e-08
-8.11949e-08
5.33585e-11
-3.0658e-08
-8.13529e-08
1.30207e-10
-3.06844e-08
-8.17311e-08
2.88352e-11
-3.08907e-08
-8.21077e-08
-1.14263e-10
-3.12855e-08
-8.15031e-08
-3.04933e-08
-8.16696e-08
1.14203e-11
-1.31324e-07
-1.75464e-08
-2.5592e-12
-1.33006e-07
-1.77371e-08
-2.02169e-11
-1.32359e-07
-1.75277e-08
1.64631e-12
-1.32462e-07
-1.76075e-08
-2.68079e-11
-1.33053e-07
-1.77089e-08
-1.31925e-07
-1.74458e-08
-1.16122e-10
-3.96676e-10
-8.53818e-12
-7.18953e-10
-1.20696e-11
-5.58801e-10
-7.8672e-12
-4.99494e-10
2.12173e-11
-4.68304e-10
-5.66668e-10
-1.06968e-09
-7.33435e-08
2.03472e-08
1.94389e-10
-7.05806e-08
2.80666e-08
7.1886e-10
-7.22347e-08
2.40662e-08
1.6726e-10
-7.32306e-08
2.27995e-08
-7.93154e-10
-7.34071e-08
2.23945e-08
-7.19996e-08
2.37074e-08
-1.92614e-10
-6.91447e-10
2.89916e-08
4.46499e-11
-8.65334e-10
4.43711e-08
9.50486e-11
-8.10197e-10
3.61084e-08
3.28784e-11
-7.63644e-10
3.46128e-08
-1.4226e-10
-7.45729e-10
3.31908e-08
-8.22109e-10
3.57733e-08
-7.82661e-14
-1.08804e-09
1.92956e-14
-1.58438e-09
2.5006e-14
-1.369e-09
1.29132e-14
-1.26313e-09
-4.13997e-14
-1.21398e-09
-1.38882e-09
-3.70291e-09
-1.61064e-07
-6.20687e-09
4.39546e-10
-2.28321e-07
4.81263e-08
1.7529e-09
-1.93439e-07
1.94239e-08
5.10182e-10
-1.85992e-07
1.15826e-08
-2.24118e-09
-1.81198e-07
7.34873e-09
-1.90953e-07
1.93796e-08
-8.39107e-09
-5.93601e-09
-1.69243e-07
1.19598e-09
-8.90646e-09
-2.67026e-07
3.42871e-09
-7.4897e-09
-2.18655e-07
7.82103e-10
-6.93904e-09
-2.03652e-07
-3.93808e-09
-6.72056e-09
-1.96298e-07
-7.49009e-09
-2.1813e-07
-6.2471e-11
-6.96158e-09
9.58989e-12
-1.05629e-08
1.83236e-11
-8.86768e-09
5.33547e-12
-8.18968e-09
-2.90733e-11
-7.90027e-09
-8.90799e-09
2.3536e-08
-6.14093e-06
2.7736e-06
-4.33359e-09
-7.08639e-06
3.91117e-06
-2.13145e-08
-6.48159e-06
3.31119e-06
-5.67204e-10
-6.6463e-06
3.30138e-06
2.81116e-08
-6.62656e-06
3.20621e-06
-6.34269e-06
3.25289e-06
-5.42118e-07
2.02584e-06
-8.87879e-06
2.62884e-08
3.52942e-06
-1.3267e-05
1.45265e-07
2.7556e-06
-1.09352e-05
4.34455e-08
2.54956e-06
-1.06204e-05
-9.58147e-08
2.40508e-06
-1.0371e-05
2.7655e-06
-1.07559e-05
-8.05722e-08
1.58883e-06
5.93248e-09
2.63005e-06
2.4071e-08
2.06383e-06
3.79113e-09
1.9564e-06
-2.43678e-08
1.84779e-06
2.05777e-06
2.30126e-06
6.04014e-05
-5.43646e-05
-1.08691e-07
7.6509e-05
-6.4404e-05
-8.40351e-07
6.72789e-05
-5.70265e-05
-1.38215e-07
6.77842e-05
-5.92198e-05
1.07879e-06
6.6912e-05
-5.9144e-05
6.51292e-05
-5.44096e-05
6.4381e-06
0.000328805
-0.00296149
-1.19554e-06
0.000445895
-0.00380673
-5.26806e-06
0.000385273
-0.00366747
-8.36354e-07
0.000383871
-0.00348558
5.99514e-06
0.000370186
-0.00300216
0.000374375
-0.00358071
-1.42779e-06
-0.000369532
-1.58122e-07
-0.00044617
-4.92484e-07
-0.000416033
-1.24832e-07
-0.000395834
1.23976e-06
-0.000388898
-0.000420334
-4.29539e-06
0.00309795
-0.00425939
1.04743e-06
0.00264999
-0.00413957
9.58996e-06
0.00267345
-0.00411814
1.5481e-06
0.00284306
-0.00425185
-1.60947e-05
0.00324068
-0.00441845
0.00272731
-0.00399181
4.87378e-05
0.00348049
-0.00339805
-2.9582e-06
0.00398688
-0.00340612
-5.20734e-06
0.00394619
-0.00341031
-4.71098e-06
0.00382398
-0.0033792
-9.33917e-06
0.00346594
-0.00342388
0.00388723
-0.00345468
3.8982e-05
-0.000375866
-6.34528e-06
-0.000421226
-2.15891e-05
-0.000404258
-4.99866e-06
-0.000397155
2.28656e-05
-0.000395428
-0.000404819
-7.58023e-05
0.00126909
-0.00298725
-1.62333e-06
0.00118735
-0.00250676
7.18444e-05
0.00121165
-0.00281353
1.37261e-06
0.00123922
-0.0027438
-0.000189185
0.00124967
-0.00258397
0.00119816
-0.00306059
2.93208e-06
-0.000115703
-0.000364687
-7.47779e-08
-8.11076e-05
-0.000366651
1.59872e-05
-8.59464e-05
-0.000361507
-1.25835e-06
-0.000108494
-0.000368142
-3.59211e-05
-0.000121395
-0.000372341
-6.62794e-05
-0.000357264
1.46278e-05
-0.000264979
-1.48331e-06
-0.000256702
-4.63055e-06
-0.000256527
-1.76014e-06
-0.000270017
2.80485e-06
-0.000273342
-0.000254432
-6.73709e-06
-0.000230297
-0.000514552
2.75731e-08
-0.000201753
-0.000426161
6.70585e-06
-0.000216491
-0.000482721
-9.70718e-08
-0.00021854
-0.000469244
-1.72944e-05
-0.000214612
-0.000437313
-0.000222868
-0.000534605
-2.11658e-07
-0.000594772
-3.26547e-11
1.77687e-08
-0.000568634
-3.17471e-11
2.59126e-07
-0.000578239
-3.18682e-11
1.72692e-08
-0.00058644
-3.28879e-11
-4.4922e-07
-0.000586487
-3.39715e-11
-0.000580581
-3.07584e-11
-8.74184e-07
-1.03239e-09
4.78636e-07
-1.01252e-09
3.51373e-06
-1.01795e-09
4.61254e-07
-1.03892e-09
-6.13359e-06
-1.0666e-09
-9.90081e-10
3.86791e-06
-1.33264e-10
-0.0180064
-2.46386e-07
-1.31006e-10
-0.0178395
-4.0798e-06
-1.31629e-10
-0.0178943
-9.45746e-07
-1.3392e-10
-0.0179879
1.6986e-05
-1.36901e-10
-0.0180651
-1.28172e-10
-0.0178174
-2.46153e-13
-1.95354e-11
-8.14141e-11
3.71629e-14
-1.91031e-11
-8.04267e-11
2.09388e-13
-1.92127e-11
-8.06761e-11
4.27934e-14
-1.96557e-11
-8.18097e-11
-2.76331e-13
-2.02664e-11
-8.35866e-11
-1.86141e-11
-7.85163e-11
-8.27957e-14
-1.05184e-09
1.48494e-14
-1.03172e-09
1.01334e-13
-1.03725e-09
1.64947e-14
-1.05849e-09
-1.66142e-13
-1.08669e-09
-1.00886e-09
0.000181265
-1.34149e-08
-0.0480098
-3.8435e-05
-1.32421e-08
-0.0483612
-0.000146472
-1.32907e-08
-0.0483766
-1.76794e-05
-1.34877e-08
-0.0479178
0.000362041
-1.37982e-08
-0.0477182
-1.29168e-08
-0.0484639
-9.86196e-13
-1.34954e-08
6.73755e-16
1.53032e-13
-1.33236e-08
5.49316e-16
7.70894e-13
-1.3372e-08
1.15068e-15
1.22594e-13
-1.35688e-08
5.79803e-16
-1.39863e-12
-1.38802e-08
6.26223e-15
-1.29967e-08
2.46932e-16
-6.03919e-12
1.48687e-26
1.8985e-12
1.80511e-26
6.52613e-12
1.95408e-26
-4.03736e-13
2.17962e-26
-1.57761e-11
2.47785e-26
1.88421e-26
-0.000542343
-5.69137e-13
-0.0338741
0.0575967
-0.00106119
-4.34432e-13
-0.0339068
0.0570557
-0.00158016
-3.78176e-13
-0.0338528
0.0559311
-0.00118578
-7.35587e-14
-0.0341419
0.0582486
0.000291139
1.6617e-17
-0.0343931
0.0565007
6.17355e-17
-0.0336553
0.0586082
-1.72602e-16
6.4862e-26
5.68411e-16
-5.69532e-13
-2.8022e-16
-1.59498e-25
3.67512e-16
-4.34692e-13
-6.1387e-17
-1.44052e-22
2.23869e-16
-3.78618e-13
4.74618e-19
-3.46888e-20
1.2183e-20
-7.36311e-14
9.67867e-20
-2.25056e-17
9.4096e-18
-3.78705e-19
1.87864e-26
2.7463e-18
-4.84661e-19
-8.15125e-28
3.62924e-26
-4.88487e-27
-2.35992e-24
2.29843e-26
2.17656e-24
-2.28991e-21
5.75931e-26
2.14319e-21
-1.30362e-18
2.81106e-26
1.26628e-18
4.02697e-29
3.12303e-26
3.56566e-18
2.38126e-26
-2.06387e-27
-8.28004e-05
6.65947e-16
-0.0165408
2.06585e-05
5.06393e-16
-0.0165067
0.000240053
1.1735e-19
-0.0164747
0.000100686
6.41111e-19
-0.0166639
-0.000172473
1.25315e-16
-0.0166975
8.49706e-17
-0.016454
-2.51961e-17
4.67573e-26
-2.43058e-16
-3.17385e-17
2.98194e-26
-1.82864e-16
-9.51785e-21
7.58564e-26
-4.069e-20
-3.81605e-20
3.61295e-26
-2.41564e-19
-2.92317e-18
3.98885e-26
-4.83987e-17
3.21003e-26
-2.91416e-17
2.46831e-28
2.69263e-26
1.75302e-27
2.52355e-26
1.58952e-27
2.67626e-26
1.25313e-27
2.22654e-26
8.04414e-29
4.01405e-26
1.44909e-26
-0.00012697
8.75677e-16
0.000684746
-1.19608e-06
7.18716e-16
0.000715075
0.000217173
1.25728e-15
0.000724978
4.56876e-05
4.1335e-18
0.000662681
-5.94291e-05
7.67209e-15
0.000662006
3.39771e-16
0.00069075
-5.92197e-18
4.58186e-26
-1.68851e-15
-7.76122e-18
4.32326e-26
-1.36745e-15
-2.50376e-18
4.65339e-26
-2.37887e-15
-7.37266e-20
4.03404e-26
-7.96251e-18
-2.29442e-16
7.51743e-26
-1.47555e-14
2.66853e-26
-6.45025e-16
3.79199e-28
1.25062e-27
9.71391e-28
1.3582e-27
1.26539e-27
1.10945e-27
1.90586e-27
1.07344e-28
2.11549e-28
-3.71555e-28
-8.6591e-29
-2.08225e-05
4.85748e-16
0.0194059
-7.35012e-05
3.93024e-16
0.0194774
-0.00013579
7.15219e-16
0.0195006
-1.95308e-05
3.84298e-17
0.0192658
0.000122892
4.5022e-15
0.0192046
1.86598e-16
0.019482
-3.6184e-18
5.90371e-26
-1.68985e-15
-5.9017e-18
6.87875e-26
-1.37613e-15
-1.02968e-17
7.51795e-26
-2.50786e-15
-7.10372e-19
7.18723e-26
-1.31792e-16
-1.13622e-16
7.95201e-26
-1.5373e-14
5.38433e-26
-6.54912e-16
3.14979e-28
-3.11815e-26
5.62746e-28
-3.65226e-26
5.98128e-28
-4.01867e-26
5.89196e-28
-3.83092e-26
2.44991e-28
-4.23594e-26
-2.93641e-26
-0.000114991
4.77017e-16
0.038237
-0.000105372
3.90686e-16
0.0381891
-5.95942e-05
7.54284e-16
0.0381802
-1.19782e-05
1.78826e-16
0.0379543
3.7163e-05
4.45098e-15
0.0378592
1.81139e-16
0.0382017
-1.26441e-18
4.70828e-26
-1.21349e-15
-2.32932e-18
5.63344e-26
-9.89268e-16
-4.68074e-18
6.1363e-26
-1.91135e-15
-9.90444e-19
6.28833e-26
-4.50532e-16
-3.31047e-17
6.96365e-26
-1.11984e-14
5.07538e-26
-4.59699e-16
3.58743e-29
-3.45599e-26
1.07545e-28
-4.13253e-26
1.26967e-28
-4.50939e-26
1.70129e-28
-4.60467e-26
1.11816e-28
-5.08783e-26
-3.75484e-26
-0.00011105
5.1244e-16
-9.36676e-05
4.2152e-16
1.1081e-05
8.81259e-16
8.93758e-06
4.43154e-16
-2.66748e-05
4.77241e-15
1.89342e-16
-4.44489e-19
4.95417e-26
-4.71553e-19
6.06383e-26
-3.79596e-19
6.54523e-26
-2.86394e-19
7.28269e-26
-6.28725e-18
8.25805e-26
6.30496e-26
-5.52253e-29
6.8571e-30
4.78543e-29
6.18251e-29
1.86575e-29
-0.00220499
0.00759187
0.00323528
0.00122161
0.0584567
7.27782e-05
0.00626015
0.0504014
-0.000181965
0.000869493
0.00641034
-6.61532e-05
-0.00321461
0.0019964
-9.06199e-05
0.0787696
0.00270052
-0.00153175
0.075991
-0.00230758
-0.00228429
0.108481
-0.000658675
3.72555e-05
0.0876859
-4.76843e-05
0.00021435
0.0190042
-2.41839e-05
0.00595881
0.0096235
-0.000156044
0.118507
-0.00320667
-0.00502246
-0.000416133
-0.0135033
-8.73127e-05
-0.00872689
-1.90469e-05
0.000121253
-1.49944e-05
0.00872521
-0.000249259
-0.00300695
0.000165828
0.00377252
-2.36384e-06
6.95971e-05
0.00064377
-6.24078e-06
3.98808e-06
1.95778e-05
-8.79565e-06
2.59707e-06
7.29949e-06
-1.67279e-06
4.39614e-05
0.000108679
-4.02896e-06
0.00758266
-8.10389e-06
8.06046e-05
0.000409445
-2.51078e-05
1.71254e-05
6.65512e-05
-1.82022e-05
1.69421e-06
9.00276e-06
-2.208e-05
-1.10906e-05
6.36396e-06
-1.31351e-05
-0.000658798
0.000475129
-3.5091e-05
0.00327307
-9.75045e-05
3.13276e-06
-3.29321e-05
1.17991e-06
-3.59647e-05