/*--------------------------------*- C++ -*----------------------------------*\
| =========                 |                                                 |
| \\      /  F ield         | OpenFOAM: The Open Source CFD Toolbox           |
|  \\    /   O peration     | Version:  v1612+                                |
|   \\  /    A nd           | Web:      www.OpenFOAM.com                      |
|    \\/     M anipulation  |                                                 |
\*---------------------------------------------------------------------------*/
FoamFile
{
    version     2.0;
    format      ascii;
    class       volScalarField;
    location    "6.15";
    object      p;
}
// * * * * * * * * * * * * * * * * * * * * * * * * * * * * * * * * * * * * * //

dimensions      [1 -1 -2 0 0 0 0];

internalField   nonuniform List<scalar> 
1116
(
21497.9
21498.3
21498.1
21498.1
21498.2
21498
19322
19322.2
19322.1
19322.1
19322.1
19322
15801.6
15801.6
15801.6
15801.6
15801.7
15801.6
12753.2
12753
12753.1
12753.1
12753.1
12753.1
10466.7
10466.6
10466.6
10466.7
10466.7
10466.6
8858.16
8858.07
8857.98
8858.26
8858.17
8858.19
7813.08
7813.28
7813.16
7813.18
7812.83
7813.5
7132.99
7133.41
7133.43
7133.16
7133.01
7133.36
7125.51
7125.28
7124.81
7126.12
7126.03
7123.9
7777.5
7780.01
7778.91
7777.59
7774.6
7781.42
8754.55
8751.45
8752.53
8755.58
8760.84
8749.01
8021.89
8015.78
8017.65
8021.24
8028.66
8012.23
15166.1
15167.3
15166.8
15166.7
15167
15166.4
9531.38
9531.99
9531.71
9531.75
9531.87
9531.51
4894.51
4894.48
4894.43
4894.49
4894.52
4894.44
3097.6
3097.81
3097.7
3097.64
3097.73
3097.57
2193.76
2193.9
2193.83
2193.81
2193.93
2193.77
1634.83
1634.02
1634.32
1634.65
1634.93
1634.34
1262.41
1262.57
1262.61
1262.27
1262.4
1262.59
1053.61
1054.34
1054.47
1053.45
1053.43
1054.61
1246.01
1247.79
1247.6
1245.91
1243.32
1249.94
1809.5
1814.02
1811.26
1811.25
1803.1
1819.43
2594.28
2592.53
2590.24
2599.46
2601.68
2590.55
1832.4
1837.63
1836.29
1833.2
1828.06
1839.08
4910.15
4909.82
4909.94
4909.96
4909.87
4910.02
1368.06
1367.71
1367.9
1367.95
1367.8
1367.92
117.754
117.788
117.766
117.723
117.71
117.781
-42.5989
-42.5288
-42.5598
-42.5702
-42.5368
-42.6383
-53.7217
-53.915
-53.8557
-53.7634
-53.6981
-53.8754
-69.7074
-70.1438
-69.9602
-69.8477
-69.7588
-69.94
-60.9635
-61.4777
-61.2722
-61.1973
-61.0408
-61.3386
91.1996
91.2084
91.1964
91.3229
91.7395
90.7254
307.064
307.046
306.902
307.143
307.402
306.708
476.5
478.133
477.285
477.356
475.519
479.033
698.474
699.262
697.778
699.895
697.328
698.424
598.953
596.933
598.501
597.397
599.583
596.586
-76.9359
-77.0983
-77.0222
-76.9821
-77.0102
-77.049
-107.011
-107.025
-107.025
-107.017
-107.022
-107.024
-38.8473
-38.8125
-38.8299
-38.839
-38.8411
-38.8401
-42.4369
-42.3541
-42.3951
-42.4119
-42.4213
-42.4071
-46.6461
-46.6505
-46.6518
-46.621
-46.6169
-46.6361
-78.6767
-79.0505
-78.8606
-78.81
-78.7188
-78.8549
-117.301
-117.304
-117.239
-117.356
-117.293
-117.381
-42.4812
-42.2206
-42.2913
-42.4915
-42.5769
-42.2872
95.1477
95.3326
95.4579
94.998
94.4538
96.1769
143.985
143.266
143.481
143.954
144.58
142.962
166.19
165.628
166.182
165.867
166.78
165.771
-87.205
-89.4711
-88.0138
-88.3485
-86.2231
-89.826
3004.18
3168.73
3120.79
3317.99
3483.13
3247.25
1859.87
1991.39
1919.54
2096.13
2197.88
2060.06
982.183
1045.58
1031.88
1131.27
1202.09
1199.73
681.829
703.591
742.339
704.519
711.693
775.68
476.39
480.021
493.801
483.326
501.235
576.126
419.631
377.158
419.149
406.123
444.359
462.754
402.35
308.037
313.292
324.618
426.609
449.395
402.769
376.489
360.271
393.299
454.935
426.224
661.549
605.999
509.612
669.769
744.397
629.554
1349.6
1365.73
1183.77
1305.84
1357.62
1441.96
1440.21
1468.07
1581.21
1451.89
1479.09
1476.87
1413
1424.32
1459.2
1469.31
1462.96
1465.81
1337.25
1313.33
1323.21
1383.95
1454.18
1535.54
249.353
252.827
254.546
276.737
265.615
259.835
71.8006
55.9177
75.553
53.807
53.2809
68.3634
-33.0585
-39.476
-33.6921
-33.3742
-26.5781
-11.387
-43.3922
-43.1261
-43.8761
-43.0491
-41.992
-41.8226
-23.1827
-23.3638
-23.5186
-24.1911
-26.8689
-27.1088
-10.3738
-10.8895
-10.381
-10.9236
-12.7826
-10.8441
-3.58088
-6.88662
-5.58308
-7.43423
-4.37882
-5.12346
12.7927
10.9164
8.63007
9.82313
25.5308
17.5848
141.344
128.407
74.5927
124.543
162.736
114.612
326.942
375.025
329.263
431.28
354.452
504.36
744.482
732.01
686.268
681.468
429.075
742.083
271.691
218.912
233.502
231.755
251.56
344.367
22.3194
21.4815
22.3242
10.2197
-0.178343
-3.08713
-2.07632
-0.211533
-0.303865
-1.77259
-2.52636
-3.99584
-12.4375
-11.1657
-12.5917
-11.0076
-10.1315
-11.3042
-15.37
-14.7464
-15.4514
-14.396
-14.2666
-14.1689
-20.362
-19.9148
-20.6327
-19.3545
-19.7248
-18.1092
-18.005
-17.253
-16.7405
-17.195
-20.9496
-17.8387
-22.8281
-20.557
-20.7913
-24.4083
-26.845
-24.083
-30.9607
-30.1637
-29.3484
-31.2355
-29.7855
-30.1855
-29.6574
-27.457
-26.7772
-25.1716
-19.8613
-21.9742
40.1746
40.0248
21.338
51.7352
7.34571
81.2461
274.049
232.044
164.131
147.785
130.677
165.007
50.1255
26.9785
31.1933
65.1814
65.3936
75.6091
-17.7665
-15.3432
-14.7486
-18.0849
-22.6514
-24.5761
-9.78543
-10.0799
-9.74409
-11.4096
-15.5768
-16.2707
-32.1978
-32.4446
-31.8229
-32.0048
-32.0209
-32.1129
-32.8703
-32.8264
-33.0586
-33.2824
-33.5123
-33.7584
-34.7269
-34.8416
-35.0803
-34.4471
-34.4701
-34.758
-29.3516
-29.0122
-29.4769
-30.1515
-29.8295
-29.3627
-31.8299
-31.2244
-31.8231
-33.1096
-33.3228
-33.2659
-35.3523
-34.831
-35.8289
-36.8948
-37.1936
-38.1392
-40.2155
-40.7509
-41.642
-39.6326
-38.1922
-37.814
-25.3969
-28.2325
-31.7104
-28.5435
-28.2291
-28.349
-157.819
-161.925
-97.0413
-217.516
-91.0896
-214.703
794.411
790.952
792.099
792.621
791.925
793.157
-43.6073
-43.5362
-43.5562
-43.5713
-43.5522
-43.5786
-57.4107
-57.4497
-57.4372
-57.4362
-57.4438
-57.4307
-98.8372
-98.5704
-98.6554
-98.6999
-98.6256
-98.753
-37.8697
-37.8226
-37.8384
-37.8381
-37.8242
-37.8397
-66.6124
-66.7122
-66.6738
-66.6676
-66.69
-66.656
-45.2946
-45.2516
-45.2687
-45.2731
-45.2764
-45.2766
-45.3928
-45.4037
-45.4036
-45.4005
-45.4142
-45.3951
-61.9432
-61.9584
-61.9574
-61.9588
-61.9651
-61.9534
-54.0248
-53.9202
-53.9742
-53.9874
-54.0169
-53.9644
-52.9898
-52.8946
-52.9428
-52.9563
-52.9826
-52.9329
-64.7101
-64.6809
-64.6976
-64.7009
-64.7123
-64.6946
-51.1487
-51.0765
-51.1274
-51.0857
-51.1177
-51.0985
-46.6037
-46.3298
-46.4711
-46.4809
-46.5383
-46.4535
-60.6304
-60.4964
-60.5575
-60.5761
-60.6007
-60.5546
-65.7356
-65.9589
-65.8522
-65.8122
-65.7494
-65.86
-44.2254
-44.0059
-44.119
-44.0692
-44.0983
-44.1287
-54.0696
-53.7018
-53.8788
-53.8689
-53.9081
-53.9131
-80.1769
-80.8171
-80.6143
-80.4987
-80.2756
-80.7632
-49.0958
-49.3151
-49.2149
-49.131
-49.0241
-49.3708
-49.5384
-49.3043
-49.3054
-49.3461
-49.4235
-49.4007
-71.3035
-71.6178
-71.5531
-71.4399
-71.4788
-71.4869
-67.8983
-68.6944
-68.3567
-68.3216
-68.227
-68.4043
-78.1873
-78.8857
-78.5834
-78.506
-78.3227
-78.5919
-64.3112
-64.2959
-64.3252
-64.2125
-64.7112
-63.5131
-94.9173
-94.7721
-94.9108
-94.8135
-94.8731
-94.9207
-97.8358
-97.7856
-97.7997
-98.0066
-97.9867
-97.7857
-50.2817
-50.1367
-50.2097
-50.1689
-50.2989
-49.9536
-83.6984
-83.5237
-83.6161
-83.5942
-83.6724
-83.5292
-91.7704
-91.7214
-91.7697
-91.7854
-91.8966
-91.7056
-28.315
-28.3391
-28.3179
-28.3134
-28.1477
-28.4671
-59.0453
-58.9896
-59.0136
-59.0134
-59.0202
-59.0198
-78.6409
-78.5838
-78.5985
-78.6317
-78.6617
-78.5727
27.048
25.943
26.4727
26.6354
27.5169
25.6718
-55.1629
-55.1399
-55.1531
-55.1567
-55.183
-55.1379
-77.0892
-77.0799
-77.0865
-77.0903
-77.1019
-77.0706
354.582
355.209
358.291
365.826
374.034
363.182
-48.6593
-48.6293
-48.6619
-48.7372
-48.7623
-48.808
-72.1615
-72.1591
-72.1702
-72.1781
-72.0047
-72.0931
414.141
414.468
414.411
412.69
412.623
413.115
-50.5776
-50.6135
-50.6826
-50.8189
-50.9366
-50.9229
-69.4953
-69.5054
-69.5044
-69.4563
-69.4255
-69.4583
419.241
419.513
419.676
417.772
417.543
418.646
-51.0689
-51.0598
-51.0632
-51.044
-51.0481
-51.0624
-68.3722
-68.3741
-68.3628
-68.3404
-68.33
-68.349
426.386
426.515
426.53
426.363
426.518
426.733
-51.9418
-51.9503
-51.9683
-51.9882
-52.0027
-52.0111
-68.2027
-68.1991
-68.1879
-68.1604
-68.1357
-68.1338
416.277
416.364
416.419
416.131
416.246
416.596
-52.2436
-52.2462
-52.2543
-52.2655
-52.2737
-52.2756
-69.6903
-69.6901
-69.6856
-69.6808
-69.6727
-69.6661
338.993
339.17
339.509
338.403
338.317
339.536
-52.2235
-52.2143
-52.2176
-52.2193
-52.2253
-52.2223
-74.121
-74.136
-74.1317
-74.1258
-74.1184
-74.1272
0.160304
1.01821
-13.4615
-32.6304
-42.107
-14.5581
-124.004
-110.197
-99.8246
-84.5938
-89.3594
-111.204
-189.928
-173.602
-158.227
-140.873
-132.822
-172.608
-33.2121
-36.9257
-37.2784
-38.2356
-41.0781
-32.8873
-53.2238
-57.7554
-59.6528
-59.8979
-64.5152
-53.9323
-79.8625
-79.1001
-79.3138
-79.463
-83.1128
-83.1062
-28.767
-30.0721
-31.6685
-33.0908
-33.2677
-32.4018
-47.2251
-49.0591
-51.5218
-53.1823
-52.7783
-50.1101
-69.8249
-70.4247
-70.0475
-67.7239
-67.4413
-65.3105
-38.4707
-39.092
-39.0366
-39.3685
-39.319
-38.3799
-55.4758
-55.8951
-55.9946
-56.2589
-56.4265
-55.7374
-69.9704
-70.0741
-70.0443
-70.505
-70.5124
-70.4353
-37.5114
-37.5795
-37.7324
-37.8337
-37.8586
-37.7694
-52.1788
-52.2688
-52.4393
-52.4334
-52.4696
-52.3682
-64.2524
-64.2805
-64.2971
-64.2222
-64.239
-64.17
-39.5819
-39.4487
-39.5843
-39.6465
-39.6346
-39.3762
-53.1583
-53.1603
-53.2394
-53.2714
-53.3233
-53.2455
-63.9753
-63.9803
-63.9942
-64.0272
-64.0325
-64.0111
-37.6027
-37.3522
-37.4522
-37.7147
-37.8314
-37.5105
-51.6197
-51.5689
-51.6605
-51.7528
-51.7935
-51.6989
-62.7277
-62.7237
-62.7331
-62.7606
-62.7727
-62.7506
-37.9046
-37.7904
-37.5194
-38.2558
-38.8752
-38.6869
-52.4742
-52.429
-52.4902
-52.7304
-52.8779
-52.7939
-62.7934
-62.8078
-62.7798
-62.8479
-62.8811
-62.8725
-41.0612
-40.8766
-40.5045
-41.2019
-41.3681
-41.4025
-53.0551
-53.0891
-53.2322
-53.4095
-53.5866
-53.6909
-63.1803
-63.1817
-63.1421
-63.1813
-63.1871
-63.1748
-39.06
-38.8571
-38.2244
-37.9507
-38.0848
-38.1215
-53.4017
-53.5045
-53.7576
-53.7211
-53.9851
-53.9225
-63.506
-63.5102
-63.4139
-63.4217
-63.4095
-63.3649
-39.8593
-40.3446
-38.7009
-41.145
-41.5227
-42.479
-52.5849
-52.7263
-52.7324
-53.3211
-54.1856
-53.6525
-65.476
-65.4873
-65.4507
-65.4408
-65.4247
-65.501
-33.4145
-31.5334
-22.6079
-22.0227
16.7339
-25.2423
-48.3882
-48.4692
-48.68
-48.3709
-49.2809
-48.8043
-70.0804
-70.2607
-70.5213
-70.8101
-71.5467
-70.8967
)
;

boundaryField
{
    seabed_topleft_surface
    {
        type            calculated;
        value           nonuniform List<scalar> 
72
(
24064.9
24065.4
24065.2
24065.2
24065.3
24065.1
23576.2
23576.5
23576.3
23576.3
23576.4
23576.2
20598.1
20598.1
20598.1
20598.1
20598.1
20598.1
17549.6
17549.5
17549.5
17549.6
17549.6
17549.6
15253
15252.9
15252.9
15253.1
15253.1
15253
13590.9
13590.8
13590.7
13591
13591
13590.9
12468.7
12469.1
12468.9
12468.9
12468.6
12469.1
11727.3
11728.1
11728
11727.6
11727.6
11727.8
11691.4
11691.5
11690.9
11692.1
11692.1
11689.8
12337.3
12340.1
12339
12337.5
12334.6
12341.3
13306.5
13303.5
13304.6
13307.6
13313.2
13300.7
12549.6
12543.5
12545.2
12549.1
12556.7
12540.1
)
;
    }
    seabed_topright_surface
    {
        type            calculated;
        value           nonuniform List<scalar> 
72
(
3458.54
3624.42
3577.18
3774.7
3939.84
3651.02
2265.77
2378.12
2339.46
2541.06
2654.6
2516.73
1139.18
1246.09
1136.64
1412.31
1658.75
1463.98
896.305
1097.06
920.559
1017.49
1152.88
1039.37
895.01
904.32
924.119
918.339
939.609
1039.37
834.965
744.443
825.338
808.372
893.688
925.972
815.598
602.714
586.786
647.028
864.457
910.779
828.084
768.178
722.913
792.803
903.394
887.379
1100.09
1051.96
958.697
1122.37
1199.34
1089.28
1785.63
1807.8
1630.77
1756
1810.27
1850.09
1876.53
1908.73
2026.46
1899.6
1928.39
1673.75
1613.29
1638.67
1696.64
1686.15
1910.31
1662.08
)
;
    }
    breakwater_top_surface
    {
        type            calculated;
        value           nonuniform List<scalar> 
36
(
781.092
781.911
788.221
805.743
819.748
798.2
881.504
882.136
882.066
878.471
877.994
879.726
888.683
889.307
889.556
885.43
884.781
887.298
903.839
904.086
904.135
903.75
904.046
904.551
892.295
892.51
892.608
892.02
892.246
893.001
768.928
769.531
770.197
767.736
767.433
770.331
)
;
    }
    breakwater_left_surface
    {
        type            calculated;
        value           nonuniform List<scalar> 
24
(
8037.4
8031.28
8033.15
8036.75
8044.17
8027.74
1836.55
1841.75
1840.42
1837.34
1832.23
1843.2
599.386
597.366
598.934
597.83
600.016
597.019
-86.6793
-88.9453
-87.4879
-87.8225
-85.6972
-89.3
)
;
    }
    breakwater_right_surface
    {
        type            calculated;
        value           nonuniform List<scalar> 
24
(
1413.68
1425.05
1460.01
1470.06
1464.5
1466.48
745.159
732.787
687.847
682.699
429.701
743.435
275.565
233.576
165.678
149.317
130.924
166.332
-156.91
-161.084
-96.4255
-216.837
-90.1264
-213.738
)
;
    }
    water_front_surface
    {
        type            calculated;
        value           nonuniform List<scalar> 
186
(
21497.9
19322
15801.6
12753.2
10466.7
8858.16
7813.08
7132.99
7125.51
7777.5
8754.55
8021.89
15166.1
9531.38
4894.51
3097.6
2193.76
1634.83
1262.41
1053.61
1246.01
1809.5
2594.28
1832.4
4910.15
1368.06
117.754
-42.5989
-53.7217
-69.7074
-60.9635
91.1996
307.064
476.5
698.474
598.953
-76.9359
-107.011
-38.8473
-42.4369
-46.6461
-78.6767
-117.301
-42.4812
95.1477
143.985
166.19
-87.205
3004.18
1859.87
982.183
681.829
476.39
419.631
402.35
402.769
661.549
1349.6
1440.21
1413
1337.25
249.353
71.8006
-33.0585
-43.3922
-23.1827
-10.3738
-3.58088
12.7927
141.344
326.942
744.482
271.691
22.3194
-2.07632
-12.4375
-15.37
-20.362
-18.005
-22.8281
-30.9607
-29.6574
40.1746
274.049
50.1255
-17.7665
-9.78543
-32.1978
-32.8703
-34.7269
-29.3516
-31.8299
-35.3523
-40.2155
-25.3969
-157.819
794.411
-43.6073
-57.4107
-98.8372
-37.8697
-66.6124
-45.2946
-45.3928
-61.9432
-54.0248
-52.9898
-64.7101
-51.1487
-46.6037
-60.6304
-65.7356
-44.2254
-54.0696
-80.1769
-49.0958
-49.5384
-71.3035
-67.8983
-78.1873
-64.3112
-94.9173
-97.8358
-50.2817
-83.6984
-91.7704
-28.315
-59.0453
-78.6409
27.048
-55.1629
-77.0892
354.582
-48.6593
-72.1615
414.141
-50.5776
-69.4953
419.241
-51.0689
-68.3722
426.386
-51.9418
-68.2027
416.277
-52.2436
-69.6903
338.993
-52.2235
-74.121
0.160304
-124.004
-189.928
-33.2121
-53.2238
-79.8625
-28.767
-47.2251
-69.8249
-38.4707
-55.4758
-69.9704
-37.5114
-52.1788
-64.2524
-39.5819
-53.1583
-63.9753
-37.6027
-51.6197
-62.7277
-37.9046
-52.4742
-62.7934
-41.0612
-53.0551
-63.1803
-39.06
-53.4017
-63.506
-39.8593
-52.5849
-65.476
-33.4145
-48.3882
-70.0804
)
;
    }
    water_back_surface
    {
        type            calculated;
        value           nonuniform List<scalar> 
186
(
21498
19322
15801.6
12753.1
10466.6
8858.19
7813.5
7133.36
7123.9
7781.42
8749.01
8012.23
15166.4
9531.51
4894.44
3097.57
2193.77
1634.34
1262.59
1054.61
1249.94
1819.43
2590.55
1839.08
4910.02
1367.92
117.781
-42.6383
-53.8754
-69.94
-61.3386
90.7254
306.708
479.033
698.424
596.586
-77.049
-107.024
-38.8401
-42.4071
-46.6361
-78.8549
-117.381
-42.2872
96.1769
142.962
165.771
-89.826
3247.25
2060.06
1199.73
775.68
576.126
462.754
449.395
426.224
629.554
1441.96
1476.87
1465.81
1535.54
259.835
68.3634
-11.387
-41.8226
-27.1088
-10.8441
-5.12346
17.5848
114.612
504.36
742.083
344.367
-3.08713
-3.99584
-11.3042
-14.1689
-18.1092
-17.8387
-24.083
-30.1855
-21.9742
81.2461
165.007
75.6091
-24.5761
-16.2707
-32.1129
-33.7584
-34.758
-29.3627
-33.2659
-38.1392
-37.814
-28.349
-214.703
793.157
-43.5786
-57.4307
-98.753
-37.8397
-66.656
-45.2766
-45.3951
-61.9534
-53.9644
-52.9329
-64.6946
-51.0985
-46.4535
-60.5546
-65.86
-44.1287
-53.9131
-80.7632
-49.3708
-49.4007
-71.4869
-68.4043
-78.5919
-63.5131
-94.9207
-97.7857
-49.9536
-83.5292
-91.7056
-28.4671
-59.0198
-78.5727
25.6718
-55.1379
-77.0706
363.182
-48.808
-72.0931
413.115
-50.9229
-69.4583
418.646
-51.0624
-68.349
426.733
-52.0111
-68.1338
416.596
-52.2756
-69.6661
339.536
-52.2223
-74.1272
-14.5581
-111.204
-172.608
-32.8873
-53.9323
-83.1062
-32.4018
-50.1101
-65.3105
-38.3799
-55.7374
-70.4353
-37.7694
-52.3682
-64.17
-39.3762
-53.2455
-64.0111
-37.5105
-51.6989
-62.7506
-38.6869
-52.7939
-62.8725
-41.4025
-53.6909
-63.1748
-38.1215
-53.9225
-63.3649
-42.479
-53.6525
-65.501
-25.2423
-48.8043
-70.8967
)
;
    }
    water_left_surface
    {
        type            calculated;
        value           nonuniform List<scalar> 
42
(
21506.7
21507.1
21506.9
21506.9
21507
21506.8
15178.2
15179.3
15178.8
15178.8
15179.1
15178.5
4920.65
4920.32
4920.44
4920.46
4920.37
4920.52
-69.0727
-69.2365
-69.1602
-69.1197
-69.1478
-69.1865
794.411
790.952
792.099
792.621
791.925
793.157
-43.6073
-43.5362
-43.5562
-43.5713
-43.5522
-43.5786
-57.4107
-57.4497
-57.4372
-57.4362
-57.4438
-57.4307
)
;
    }
    water_right_surface
    {
        type            calculated;
        value           nonuniform List<scalar> 
42
(
3005.74
3170.3
3122.35
3319.56
3484.7
3248.63
1338.73
1314.84
1324.67
1385.41
1455.59
1536.94
273.076
219.973
234.441
233.057
252.726
345.721
50.9853
27.2802
31.6817
65.8765
65.898
76.3167
0.160304
1.01821
-13.4615
-32.6304
-42.107
-14.5581
-124.004
-110.197
-99.8246
-84.5938
-89.3594
-111.204
-189.928
-173.602
-158.227
-140.873
-132.822
-172.608
)
;
    }
    water_top_surface
    {
        type            calculated;
        value           nonuniform List<scalar> 
180
(
-69.2345
-69.2416
-69.2389
-69.2389
-69.2397
-69.2372
-69.0989
-69.1151
-69.1089
-69.1077
-69.1113
-69.1051
-70.2124
-70.2234
-70.2182
-70.2188
-70.2234
-70.2163
-72.1471
-72.1333
-72.1406
-72.142
-72.148
-72.1363
-68.9971
-68.9723
-68.984
-68.9882
-68.9955
-68.9798
-68.6702
-68.6703
-68.6703
-68.6702
-68.6702
-68.6703
-71.8173
-72.7224
-72.3142
-72.152
-72.0424
-72.3363
-93.1878
-96.25
-95.1621
-94.1422
-93.2075
-95.4964
-83.9937
-83.6975
-83.8403
-84.0503
-83.9567
-83.9099
-82.543
-83.6374
-83.4581
-82.7584
-82.8554
-83.3588
-88.1941
-88.1438
-88.1527
-88.1928
-88.2996
-88.0623
-76.5772
-76.5842
-76.5793
-76.5836
-76.6006
-76.5637
-69.9072
-69.8835
-69.894
-70.0775
-70.1288
-70.0499
-70.8835
-70.8963
-70.9019
-70.9407
-70.9554
-70.9538
-70.5395
-70.5393
-70.5348
-70.5182
-70.5282
-70.5022
-71.1728
-71.1761
-71.1742
-71.1739
-71.1822
-71.1543
-72.4513
-72.453
-72.45
-72.4555
-72.465
-72.4326
-73.2753
-73.2725
-73.2714
-73.2747
-73.2845
-73.2599
-1167.25
-1287.03
-1050.31
-270.797
-190.818
-1483.64
-68.8126
-68.77
-68.7612
-68.7545
-69.3294
-69.4904
-70.2999
-69.9195
-71.3881
-70.3938
-71.1624
-68.9259
-77.7401
-77.7352
-77.3432
-77.9953
-78.0126
-76.9518
-70.9361
-70.9537
-70.9476
-70.8332
-70.8695
-70.8757
-70.0972
-70.0934
-70.1102
-70.1041
-70.1138
-70.0964
-69.0457
-69.0455
-69.0605
-69.079
-69.0915
-69.0721
-69.0995
-69.107
-69.125
-69.1648
-69.197
-69.1775
-69.1766
-69.1935
-69.2135
-69.2416
-69.2774
-69.2698
-70.2366
-70.3176
-70.3731
-70.4212
-70.4787
-70.4469
-71.514
-71.6006
-71.5958
-71.7934
-71.8969
-71.7281
-69.2919
-69.3177
-69.3232
-69.4472
-69.787
-69.4726
)
;
    }
}


// ************************************************************************* //
