/*--------------------------------*- C++ -*----------------------------------*\
| =========                 |                                                 |
| \\      /  F ield         | OpenFOAM: The Open Source CFD Toolbox           |
|  \\    /   O peration     | Version:  v1612+                                |
|   \\  /    A nd           | Web:      www.OpenFOAM.com                      |
|    \\/     M anipulation  |                                                 |
\*---------------------------------------------------------------------------*/
FoamFile
{
    version     2.0;
    format      ascii;
    class       volScalarField;
    location    "6.15";
    object      p_rgh;
}
// * * * * * * * * * * * * * * * * * * * * * * * * * * * * * * * * * * * * * //

dimensions      [1 -1 -2 0 0 0 0];

internalField   nonuniform List<scalar> 
1116
(
24064.9
24065.4
24065.2
24065.2
24065.3
24065.1
23576.2
23576.5
23576.3
23576.3
23576.4
23576.2
20598.1
20598.1
20598.1
20598.1
20598.1
20598.1
17549.6
17549.5
17549.5
17549.6
17549.6
17549.6
15253
15252.9
15252.9
15253.1
15253.1
15253
13590.9
13590.8
13590.7
13591
13591
13590.9
12468.7
12469.1
12468.9
12468.9
12468.6
12469.1
11727.3
11728.1
11728
11727.6
11727.6
11727.8
11691.4
11691.5
11690.9
11692.1
11692.1
11689.8
12337.3
12340.1
12339
12337.5
12334.6
12341.3
13306.5
13303.5
13304.6
13307.6
13313.2
13300.7
12549.6
12543.5
12545.2
12549.1
12556.7
12540.1
25920.4
25924
25922.5
25922.2
25923.2
25921.4
23177.7
23178.3
23178
23178.1
23178.2
23177.8
18356.4
18357.4
18356.9
18356.9
18357.4
18356.4
12393.9
12393.3
12393.4
12393.7
12393.6
12393.5
8752.14
8751.41
8751.63
8751.9
8751.76
8752.06
6585.1
6585.16
6585.39
6584.85
6584.94
6585.8
5256.06
5258.7
5258.35
5256.06
5256.01
5258.42
4284.07
4285.38
4286.13
4283.44
4284.79
4285.34
4781.31
4785.75
4783.35
4781.97
4776.07
4787.77
6554.6
6573.08
6564.64
6558.71
6530.17
6590.86
7963.14
7891.06
7906.57
7960.7
8030.49
7848.54
5534.87
5519.94
5522.08
5532.76
5547.36
5515.81
20821.8
20830.1
20826.8
20825.7
20828.1
20824.2
8353.71
8351.94
8352.95
8353.09
8352.21
8353.07
995.344
994.386
994.666
994.862
994.595
995.046
-18.057
-17.9869
-18.0179
-18.0283
-17.9949
-18.0964
-29.1796
-29.3729
-29.3136
-29.2213
-29.156
-29.3333
-45.1611
-45.5974
-45.4139
-45.3013
-45.2123
-45.3939
-36.4047
-36.9188
-36.7134
-36.6384
-36.4818
-36.78
115.767
115.776
115.764
115.89
116.307
115.293
337.371
337.038
336.749
337.492
337.985
336.363
717.039
725.467
722.102
719.063
710.503
731.644
1486.23
1475.44
1471.45
1490.16
1479.64
1471.96
1255.77
1253.66
1255.16
1254.03
1256.21
1253.22
16939.1
16935.8
16936.2
16937.3
16937.3
16937.3
-72.6594
-72.6731
-72.6735
-72.6655
-72.6702
-72.6724
-4.49561
-4.46076
-4.47817
-4.48729
-4.48935
-4.48838
-8.08511
-8.00227
-8.04331
-8.06016
-8.06955
-8.0553
-12.2943
-12.2986
-12.2999
-12.2691
-12.2651
-12.2842
-44.3245
-44.6983
-44.5085
-44.4578
-44.3666
-44.5027
-82.9429
-82.9458
-82.8806
-82.998
-82.9349
-83.0237
-8.10631
-7.84573
-7.91662
-8.11658
-8.20178
-7.91269
194.339
192.938
192.192
194.605
197.659
189.041
1073.23
1066.17
1066.62
1073.09
1083.82
1055.43
1299.69
1298.83
1299.95
1299.83
1301.39
1299.19
1050.34
1048.34
1050.03
1049.82
1051.94
1048.34
3458.54
3624.42
3577.18
3774.7
3939.84
3651.02
2265.77
2378.12
2339.46
2541.06
2654.6
2516.73
1139.18
1246.09
1136.64
1412.31
1658.75
1463.98
896.305
1097.06
920.559
1017.49
1152.88
1039.37
895.01
904.32
924.119
918.339
939.609
1039.37
834.965
744.443
825.338
808.372
893.688
925.972
815.598
602.714
586.786
647.028
864.457
910.779
828.084
768.178
722.913
792.803
903.394
887.379
1100.09
1051.96
958.697
1122.37
1199.34
1089.28
1785.63
1807.8
1630.77
1756
1810.27
1850.09
1876.53
1908.73
2026.46
1899.6
1928.39
1673.75
1613.29
1638.67
1696.64
1686.15
1910.31
1662.08
2651.56
2660.57
2625.45
2690.6
2710.45
2779.11
445.29
337.109
424.723
357.084
337.097
962.137
127.452
112.809
136.678
143.424
149.817
121.155
24.2837
-2.55024
11.3316
4.73583
4.84839
45.1576
-28.6606
-28.3946
-29.1446
-28.3176
-26.6923
-14.9511
-8.45117
-8.63232
-8.78709
-9.45962
-12.1374
-12.3772
4.35772
3.84203
4.35055
3.80805
1.94904
3.88888
11.2121
7.85541
9.1502
7.31452
10.3529
10.1512
113.185
26.3151
24.1347
68.5895
208.647
100.205
654.698
530.324
213.383
572.741
622.65
410.84
1237.63
1220.06
1188.72
1345.53
1042.9
1710.21
1348.21
1425.12
2094.59
1779.92
987.252
1947.92
2370.87
1827.61
1657.44
2205.36
2019.13
2396.85
47.9193
46.3321
47.3825
35.0623
24.3705
291.199
22.4649
24.3296
24.2368
22.7688
22.0152
20.5455
12.1037
13.3755
11.9495
13.5336
14.4096
13.237
9.1712
9.79479
9.08974
10.1452
10.2746
10.3723
4.17917
4.62639
3.90848
5.18671
4.81642
6.43202
6.53857
7.28817
7.80072
7.34621
3.59163
6.7037
1.71646
3.98504
3.74999
0.133041
-2.30366
0.458343
-6.41932
-5.62034
-4.80371
-6.69427
-5.24432
-5.64443
-5.11617
-2.91581
-2.23611
-0.625195
4.71388
2.56732
201.045
179.365
56.9639
246.878
370.917
642.323
2572.57
2555.03
2510.25
2470.77
505.979
2173.84
1910.85
679.753
1087.99
1569.36
1156.94
1606.82
21.7242
19.0095
19.6085
16.2684
11.702
60.159
24.5658
24.2726
24.6077
22.9436
18.7761
18.0816
2.15372
1.91081
2.5309
2.36335
2.3598
2.24813
1.4806
1.52448
1.29224
1.06845
0.838591
0.592514
-0.375972
-0.490696
-0.729399
-0.0961738
-0.119179
-0.407155
5.00007
5.33868
4.87399
4.19937
4.52142
4.98819
2.52101
3.12651
2.52778
1.24125
1.02861
1.08498
-1.00097
-0.480113
-1.478
-2.54388
-2.84269
-3.78835
-5.86459
-6.40002
-7.29109
-5.28164
-3.84143
-3.46306
30.1175
28.2267
2.64095
93.8758
472.7
6.00234
1809.26
1656.73
1235.54
1251.59
1993.21
1874.85
8684.72
8644.98
8658.04
8664.42
8656.1
8670.24
15.9439
15.8436
15.8855
15.8987
15.87
15.9096
6.87851
6.84613
6.85608
6.85705
6.85013
6.86095
59.6024
59.0018
59.2265
59.3081
59.1627
59.4113
26.2339
25.9271
26.0396
26.0973
26.0129
26.1336
-2.4492
-2.5339
-2.50129
-2.49613
-2.51515
-2.48698
-1.14854
-1.10553
-1.12268
-1.12707
-1.13038
-1.13057
8.56334
8.55239
8.55253
8.55561
8.54192
8.56096
1.82889
1.81373
1.8147
1.8133
1.80699
1.81873
-9.8782
-9.77363
-9.82759
-9.84075
-9.87026
-9.81775
0.966192
1.06142
1.01319
0.999744
0.973412
1.02311
-0.945146
-0.915859
-0.932577
-0.935946
-0.947271
-0.929585
-7.0021
-6.92984
-6.98071
-6.93899
-6.97107
-6.95182
7.35144
7.62546
7.48414
7.47433
7.41688
7.50176
3.13461
3.26857
3.20746
3.18886
3.1643
3.21037
-21.5869
-21.8098
-21.7033
-21.6634
-21.6006
-21.7111
9.73375
9.95553
9.84129
9.89075
9.86141
9.83148
9.69555
10.0635
9.88648
9.89638
9.85709
9.85217
-35.9773
-36.6132
-36.4132
-36.2969
-36.0737
-36.5631
11.4246
13.5263
12.5395
12.5407
12.0875
12.1319
17.1491
18.2236
17.8435
17.6522
17.4729
17.7687
-8.44507
-8.26515
-8.6529
-8.13798
-8.21584
-8.97304
37.0573
36.5474
37.0425
36.7164
37.4984
37.8319
8.34426
10.4893
9.78139
8.91172
8.22718
10.0833
77.6829
74.9286
75.4472
76.8689
77.4639
74.8085
7.16981
7.70952
7.84691
6.7573
6.07181
8.7177
-19.8416
-20.0665
-19.948
-19.9599
-20.027
-19.8694
11.3957
7.85327
10.2441
9.55249
7.89078
12.857
-29.7434
-29.5687
-29.6611
-29.6392
-29.7174
-29.5742
-15.4754
-16.2302
-16.141
-15.6738
-15.7743
-16.0635
15.83
15.8059
15.8271
15.8316
15.9973
15.6779
-5.09028
-5.0346
-5.05862
-5.05835
-5.06521
-5.06483
-14.8759
-14.8188
-14.8335
-14.8667
-14.8967
-14.8077
878.444
864.284
870.896
873.67
884.757
860.495
-1.20788
-1.18486
-1.19806
-1.20174
-1.22799
-1.18287
-13.324
-13.3147
-13.3212
-13.3251
-13.3366
-13.3054
4193.18
4195.52
4227.66
4325.08
4385.46
4278.35
5.29567
5.32573
5.29315
5.21778
5.19266
5.14695
-8.39652
-8.39408
-8.40516
-8.41311
-8.23968
-8.32805
4620.4
4623.48
4623.31
4604.72
4600.96
4612.61
3.37739
3.34146
3.27242
3.13608
3.01841
3.03207
-5.73025
-5.74041
-5.73939
-5.6913
-5.66051
-5.69326
4644.22
4647.66
4648.6
4626.7
4622.68
4636.52
2.88612
2.89516
2.89178
2.91104
2.90689
2.89263
-4.60719
-4.60906
-4.59775
-4.57536
-4.565
-4.584
4723.46
4724.66
4724.98
4722.85
4724.27
4727.1
2.01325
2.0047
1.98673
1.96681
1.9523
1.94392
-4.43766
-4.43409
-4.42287
-4.3954
-4.3707
-4.36883
4700.44
4701.68
4702.12
4699.13
4700.25
4704.25
1.71138
1.70882
1.7007
1.68951
1.68135
1.67942
-5.92534
-5.92508
-5.9206
-5.91578
-5.90772
-5.90112
4208.4
4212.42
4215.7
4202.4
4200.36
4216.69
1.73147
1.74071
1.73737
1.7357
1.72972
1.73275
-10.356
-10.371
-10.3667
-10.3608
-10.3534
-10.3622
536.774
448.815
685.748
130.805
5.76107
1083.83
567.5
964.199
986.455
134.232
8.92375
1438.85
893.945
1021.5
817.058
110.582
44.3658
1205.05
40.4366
12.8788
6.91319
5.91932
3.64565
72.8239
2.87898
-3.71488
-5.63131
-5.89726
-6.34798
32.252
-15.9652
-15.2422
-15.4641
-15.6195
-18.7355
-18.5794
15.3787
14.0745
12.5651
11.0698
10.8936
11.7526
6.87894
5.23468
3.32466
1.66267
1.85049
4.43724
-5.10574
-5.53029
-5.46977
-3.84674
-3.67634
0.594358
5.67491
5.05929
5.11508
4.79947
4.87859
5.86901
-1.52081
-1.93975
-2.02808
-2.30394
-2.4715
-1.69414
-6.20544
-6.28205
-6.25485
-6.73582
-6.74385
-6.60241
6.63358
6.56548
6.41265
6.31128
6.28636
6.3756
1.77617
1.68625
1.51566
1.52157
1.48538
1.58684
-0.487403
-0.515456
-0.532107
-0.457219
-0.473987
-0.405023
4.56307
4.6963
4.56071
4.49847
4.51042
4.76877
0.79669
0.794735
0.715578
0.683563
0.631747
0.709525
-0.210315
-0.215288
-0.229222
-0.262213
-0.26748
-0.246096
6.54235
6.79283
6.69285
6.43028
6.31357
6.63453
2.33535
2.3861
2.2945
2.2022
2.16154
2.25609
1.03733
1.04128
1.03193
1.00444
0.992328
1.01444
6.2404
6.35463
6.62561
5.88917
5.26984
5.45813
1.48081
1.52605
1.46478
1.22457
1.07712
1.1611
0.971561
0.957207
0.985229
0.917064
0.883873
0.892497
3.08384
3.2684
3.64053
2.94309
2.77686
2.7425
0.89985
0.865934
0.72283
0.545538
0.368377
0.264132
0.584743
0.583295
0.622897
0.583669
0.57786
0.590248
5.08502
5.28794
5.92063
6.19425
6.06015
6.02348
0.553273
0.450478
0.197376
0.23386
-0.0300614
0.0324816
0.259012
0.254843
0.351153
0.343372
0.355568
0.400125
4.28572
3.80035
5.44349
2.99999
2.61989
1.66542
1.37006
1.22868
1.22261
0.633854
-0.230594
0.302455
-1.71103
-1.72226
-1.68567
-1.67584
-1.65963
-1.73596
211.615
237.758
355.871
385.746
901.042
329.181
5.56677
5.48577
5.27502
5.58408
4.67405
5.15065
-6.31537
-6.49568
-6.7563
-7.04502
-7.78153
-7.13168
)
;

boundaryField
{
    seabed_topleft_surface
    {
        type            fixedFluxPressure;
        gradient        uniform 0;
        value           nonuniform List<scalar> 
72
(
24064.9
24065.4
24065.2
24065.2
24065.3
24065.1
23576.2
23576.5
23576.3
23576.3
23576.4
23576.2
20598.1
20598.1
20598.1
20598.1
20598.1
20598.1
17549.6
17549.5
17549.5
17549.6
17549.6
17549.6
15253
15252.9
15252.9
15253.1
15253.1
15253
13590.9
13590.8
13590.7
13591
13591
13590.9
12468.7
12469.1
12468.9
12468.9
12468.6
12469.1
11727.3
11728.1
11728
11727.6
11727.6
11727.8
11691.4
11691.5
11690.9
11692.1
11692.1
11689.8
12337.3
12340.1
12339
12337.5
12334.6
12341.3
13306.5
13303.5
13304.6
13307.6
13313.2
13300.7
12549.6
12543.5
12545.2
12549.1
12556.7
12540.1
)
;
    }
    seabed_topright_surface
    {
        type            fixedFluxPressure;
        gradient        uniform 0;
        value           nonuniform List<scalar> 
72
(
3458.54
3624.42
3577.18
3774.7
3939.84
3651.02
2265.77
2378.12
2339.46
2541.06
2654.6
2516.73
1139.18
1246.09
1136.64
1412.31
1658.75
1463.98
896.305
1097.06
920.559
1017.49
1152.88
1039.37
895.01
904.32
924.119
918.339
939.609
1039.37
834.965
744.443
825.338
808.372
893.688
925.972
815.598
602.714
586.786
647.028
864.457
910.779
828.084
768.178
722.913
792.803
903.394
887.379
1100.09
1051.96
958.697
1122.37
1199.34
1089.28
1785.63
1807.8
1630.77
1756
1810.27
1850.09
1876.53
1908.73
2026.46
1899.6
1928.39
1673.75
1613.29
1638.67
1696.64
1686.15
1910.31
1662.08
)
;
    }
    breakwater_top_surface
    {
        type            fixedFluxPressure;
        gradient        uniform 0;
        value           nonuniform List<scalar> 
36
(
4193.18
4195.52
4227.66
4325.08
4385.46
4278.35
4620.4
4623.48
4623.31
4604.72
4600.96
4612.61
4644.22
4647.66
4648.6
4626.7
4622.68
4636.52
4723.46
4724.66
4724.98
4722.85
4724.27
4727.1
4700.44
4701.68
4702.12
4699.13
4700.25
4704.25
4208.4
4212.42
4215.7
4202.4
4200.36
4216.69
)
;
    }
    breakwater_left_surface
    {
        type            fixedFluxPressure;
        gradient        uniform 0;
        value           nonuniform List<scalar> 
24
(
12549.6
12543.5
12545.2
12549.1
12556.7
12540.1
5534.87
5519.94
5522.08
5532.76
5547.36
5515.81
1255.77
1253.66
1255.16
1254.03
1256.21
1253.22
1050.34
1048.34
1050.03
1049.82
1051.94
1048.34
)
;
    }
    breakwater_right_surface
    {
        type            fixedFluxPressure;
        gradient        uniform 0;
        value           nonuniform List<scalar> 
24
(
1613.29
1638.67
1696.64
1686.15
1910.31
1662.08
1348.21
1425.12
2094.59
1779.92
987.252
1947.92
2572.57
2555.03
2510.25
2470.77
505.979
2173.84
1809.26
1656.73
1235.54
1251.59
1993.21
1874.85
)
;
    }
    water_front_surface
    {
        type            fixedFluxPressure;
        gradient        uniform 0;
        value           nonuniform List<scalar> 
186
(
24064.9
23576.2
20598.1
17549.6
15253
13590.9
12468.7
11727.3
11691.4
12337.3
13306.5
12549.6
25920.4
23177.7
18356.4
12393.9
8752.14
6585.1
5256.06
4284.07
4781.31
6554.6
7963.14
5534.87
20821.8
8353.71
995.344
-18.057
-29.1796
-45.1611
-36.4047
115.767
337.371
717.039
1486.23
1255.77
16939.1
-72.6594
-4.49561
-8.08511
-12.2943
-44.3245
-82.9429
-8.10631
194.339
1073.23
1299.69
1050.34
3458.54
2265.77
1139.18
896.305
895.01
834.965
815.598
828.084
1100.09
1785.63
1876.53
1613.29
2651.56
445.29
127.452
24.2837
-28.6606
-8.45117
4.35772
11.2121
113.185
654.698
1237.63
1348.21
2370.87
47.9193
22.4649
12.1037
9.1712
4.17917
6.53857
1.71646
-6.41932
-5.11617
201.045
2572.57
1910.85
21.7242
24.5658
2.15372
1.4806
-0.375972
5.00007
2.52101
-1.00097
-5.86459
30.1175
1809.26
8684.72
15.9439
6.87851
59.6024
26.2339
-2.4492
-1.14854
8.56334
1.82889
-9.8782
0.966192
-0.945146
-7.0021
7.35144
3.13461
-21.5869
9.73375
9.69555
-35.9773
11.4246
17.1491
-8.44507
37.0573
8.34426
77.6829
7.16981
-19.8416
11.3957
-29.7434
-15.4754
15.83
-5.09028
-14.8759
878.444
-1.20788
-13.324
4193.18
5.29567
-8.39652
4620.4
3.37739
-5.73025
4644.22
2.88612
-4.60719
4723.46
2.01325
-4.43766
4700.44
1.71138
-5.92534
4208.4
1.73147
-10.356
536.774
567.5
893.945
40.4366
2.87898
-15.9652
15.3787
6.87894
-5.10574
5.67491
-1.52081
-6.20544
6.63358
1.77617
-0.487403
4.56307
0.79669
-0.210315
6.54235
2.33535
1.03733
6.2404
1.48081
0.971561
3.08384
0.89985
0.584743
5.08502
0.553273
0.259012
4.28572
1.37006
-1.71103
211.615
5.56677
-6.31537
)
;
    }
    water_back_surface
    {
        type            fixedFluxPressure;
        gradient        uniform 0;
        value           nonuniform List<scalar> 
186
(
24065.1
23576.2
20598.1
17549.6
15253
13590.9
12469.1
11727.8
11689.8
12341.3
13300.7
12540.1
25921.4
23177.8
18356.4
12393.5
8752.06
6585.8
5258.42
4285.34
4787.77
6590.86
7848.54
5515.81
20824.2
8353.07
995.046
-18.0964
-29.3333
-45.3939
-36.78
115.293
336.363
731.644
1471.96
1253.22
16937.3
-72.6724
-4.48838
-8.0553
-12.2842
-44.5027
-83.0237
-7.91269
189.041
1055.43
1299.19
1048.34
3651.02
2516.73
1463.98
1039.37
1039.37
925.972
910.779
887.379
1089.28
1850.09
1673.75
1662.08
2779.11
962.137
121.155
45.1576
-14.9511
-12.3772
3.88888
10.1512
100.205
410.84
1710.21
1947.92
2396.85
291.199
20.5455
13.237
10.3723
6.43202
6.7037
0.458343
-5.64443
2.56732
642.323
2173.84
1606.82
60.159
18.0816
2.24813
0.592514
-0.407155
4.98819
1.08498
-3.78835
-3.46306
6.00234
1874.85
8670.24
15.9096
6.86095
59.4113
26.1336
-2.48698
-1.13057
8.56096
1.81873
-9.81775
1.02311
-0.929585
-6.95182
7.50176
3.21037
-21.7111
9.83148
9.85217
-36.5631
12.1319
17.7687
-8.97304
37.8319
10.0833
74.8085
8.7177
-19.8694
12.857
-29.5742
-16.0635
15.6779
-5.06483
-14.8077
860.495
-1.18287
-13.3054
4278.35
5.14695
-8.32805
4612.61
3.03207
-5.69326
4636.52
2.89263
-4.584
4727.1
1.94392
-4.36883
4704.25
1.67942
-5.90112
4216.69
1.73275
-10.3622
1083.83
1438.85
1205.05
72.8239
32.252
-18.5794
11.7526
4.43724
0.594358
5.86901
-1.69414
-6.60241
6.3756
1.58684
-0.405023
4.76877
0.709525
-0.246096
6.63453
2.25609
1.01444
5.45813
1.1611
0.892497
2.7425
0.264132
0.590248
6.02348
0.0324816
0.400125
1.66542
0.302455
-1.73596
329.181
5.15065
-7.13168
)
;
    }
    water_left_surface
    {
        type            fixedFluxPressure;
        gradient        uniform 0;
        value           nonuniform List<scalar> 
42
(
24064.9
24065.4
24065.2
24065.2
24065.3
24065.1
25920.4
25924
25922.5
25922.2
25923.2
25921.4
20821.8
20830.1
20826.8
20825.7
20828.1
20824.2
16939.1
16935.8
16936.2
16937.3
16937.3
16937.3
8684.72
8644.98
8658.04
8664.42
8656.1
8670.24
15.9439
15.8436
15.8855
15.8987
15.87
15.9096
6.87851
6.84613
6.85608
6.85705
6.85013
6.86095
)
;
    }
    water_right_surface
    {
        type            fixedFluxPressure;
        gradient        uniform 0;
        value           nonuniform List<scalar> 
42
(
3458.54
3624.42
3577.18
3774.7
3939.84
3651.02
2651.56
2660.57
2625.45
2690.6
2710.45
2779.11
2370.87
1827.61
1657.44
2205.36
2019.13
2396.85
1910.85
679.753
1087.99
1569.36
1156.94
1606.82
536.774
448.815
685.748
130.805
5.76107
1083.83
567.5
964.199
986.455
134.232
8.92375
1438.85
893.945
1021.5
817.058
110.582
44.3658
1205.05
)
;
    }
    water_top_surface
    {
        type            totalPressure;
        rho             rho;
        psi             none;
        gamma           1;
        p0              uniform 0;
        value           nonuniform List<scalar> 
180
(
0
0
0
0
0
0
0
0
0
0
0
0
-1.54239
-1.55341
-1.54822
-1.54877
-1.5534
-1.54628
-3.47708
-3.46331
-3.47058
-3.47198
-3.47801
-3.46632
-0.327123
-0.302342
-0.313979
-0.318158
-0.325505
-0.309761
0
0
0
0
0
0
0
0
0
0
0
0
0
0
0
0
0
0
0
0
0
0
0
0
-13.873
-14.9674
-14.7881
-14.0884
-14.1854
-14.6888
-19.5241
-19.4738
-19.4827
-19.5228
-19.6296
-19.3923
-7.90725
-7.91419
-7.90926
-7.91356
-7.93063
-7.89368
-1.23717
-1.21345
-1.22402
-1.40751
-1.45884
-1.37986
-2.21346
-2.2263
-2.23187
-2.2707
-2.28538
-2.28381
-1.8695
-1.86929
-1.86481
-1.84818
-1.85819
-1.83218
-2.50284
-2.50613
-2.5042
-2.50387
-2.51225
-2.48427
-3.78134
-3.78296
-3.78001
-3.78547
-3.79495
-3.76261
-4.60531
-4.60252
-4.60143
-4.6047
-4.61447
-4.58987
0
0
0
0
0
0
0
0
0
0
0
0
-1.62987
-1.24953
-2.71808
-1.72384
-2.49244
-0.255857
-9.07007
-9.06518
-8.67325
-9.32526
-9.34265
-8.28179
-2.26612
-2.28372
-2.27762
-2.16323
-2.19951
-2.20568
-1.42724
-1.42336
-1.44015
-1.43408
-1.44377
-1.4264
-0.375676
-0.375454
-0.390458
-0.409025
-0.42149
-0.402102
-0.429534
-0.436976
-0.455035
-0.494773
-0.526986
-0.507457
-0.506633
-0.523525
-0.543501
-0.571565
-0.607407
-0.59975
-1.56665
-1.64759
-1.70314
-1.75121
-1.80867
-1.77689
-2.84401
-2.93057
-2.92581
-3.12335
-3.22693
-3.0581
-0.621868
-0.647709
-0.653249
-0.777218
-1.11702
-0.802631
)
;
    }
}


// ************************************************************************* //
