/*--------------------------------*- C++ -*----------------------------------*\
| =========                 |                                                 |
| \\      /  F ield         | OpenFOAM: The Open Source CFD Toolbox           |
|  \\    /   O peration     | Version:  v1612+                                |
|   \\  /    A nd           | Web:      www.OpenFOAM.com                      |
|    \\/     M anipulation  |                                                 |
\*---------------------------------------------------------------------------*/
FoamFile
{
    version     2.0;
    format      ascii;
    class       volVectorField;
    location    "6.15";
    object      U;
}
// * * * * * * * * * * * * * * * * * * * * * * * * * * * * * * * * * * * * * //

dimensions      [0 1 -1 0 0 0 0];

internalField   nonuniform List<vector> 
1116
(
(-0.924062 -0.000173121 0.3732)
(-0.924353 -9.10783e-05 0.37314)
(-0.924222 0.00011211 0.373175)
(-0.924156 -2.79096e-05 0.373175)
(-0.924234 3.82621e-05 0.373133)
(-0.924134 9.69661e-05 0.373186)
(-1.9706 -0.000115968 0.360631)
(-1.97101 -3.88598e-05 0.360575)
(-1.97079 6.46748e-05 0.3606)
(-1.97071 -2.49333e-05 0.36062)
(-1.97084 2.36691e-05 0.360602)
(-1.9707 4.08593e-05 0.360623)
(-2.27889 -4.9071e-05 0.306066)
(-2.27921 -6.91763e-07 0.305933)
(-2.279 1.84895e-05 0.305991)
(-2.27895 -1.04807e-05 0.306033)
(-2.27905 8.19747e-06 0.305968)
(-2.27899 1.5865e-07 0.30605)
(-2.48816 -1.56706e-05 0.182646)
(-2.48852 1.70314e-05 0.182572)
(-2.48828 -2.20268e-06 0.182615)
(-2.48829 5.32037e-06 0.18267)
(-2.48837 2.93191e-06 0.182602)
(-2.48827 -2.28717e-05 0.182648)
(-2.53505 1.68337e-05 0.064642)
(-2.53534 1.49017e-05 0.0646669)
(-2.53513 7.82727e-06 0.0646616)
(-2.53524 5.64202e-05 0.0647573)
(-2.53528 -3.329e-05 0.0647159)
(-2.5351 -8.0151e-05 0.0646439)
(-2.43208 -6.9176e-05 -0.00538856)
(-2.4325 -9.07157e-05 -0.00534324)
(-2.43227 0.000173457 -0.00539022)
(-2.43235 0.000192125 -0.00516903)
(-2.43234 -0.000149069 -0.00511469)
(-2.4322 -0.000183295 -0.00550977)
(-2.2604 -3.80925e-05 -0.0810761)
(-2.26182 -0.000197177 -0.0812042)
(-2.26128 0.000282437 -0.0811929)
(-2.26092 0.000210767 -0.0807854)
(-2.26089 -0.000210434 -0.0804272)
(-2.26117 -3.43926e-05 -0.0815883)
(-2.10208 0.000336567 -0.240988)
(-2.10385 -0.000157007 -0.241208)
(-2.10322 0.000159987 -0.241046)
(-2.10269 4.52541e-06 -0.240728)
(-2.10315 -0.000147717 -0.23991)
(-2.10279 0.000432706 -0.241972)
(-1.85995 0.000895273 -0.518027)
(-1.86109 0.000156749 -0.518217)
(-1.8611 -0.000123341 -0.517777)
(-1.86014 -0.000221021 -0.518066)
(-1.86178 0.000140982 -0.516793)
(-1.85985 0.000695077 -0.519295)
(-1.48615 0.00142415 -0.751276)
(-1.48192 0.000584729 -0.750233)
(-1.48283 -0.000538571 -0.749817)
(-1.48621 -0.00107498 -0.751804)
(-1.49132 0.00122407 -0.751548)
(-1.4782 0.00176242 -0.750537)
(-0.894602 0.000762143 -0.788065)
(-0.882167 0.000935403 -0.783791)
(-0.88419 -0.00113488 -0.783954)
(-0.89407 -0.00211891 -0.788434)
(-0.903907 0.00192144 -0.792227)
(-0.872872 0.0014756 -0.780426)
(-0.218985 -0.00108605 -0.198911)
(-0.211317 0.000198607 -0.19553)
(-0.212721 0.000179441 -0.196305)
(-0.218203 0.000505022 -0.198194)
(-0.225376 -0.000141881 -0.201389)
(-0.209156 -0.00203023 -0.193508)
(-1.96051 2.32739e-05 2.57888)
(-1.96131 3.15175e-05 2.57817)
(-1.96088 -1.37825e-05 2.5785)
(-1.9609 -4.94561e-06 2.5786)
(-1.9611 1.05197e-05 2.57833)
(-1.96071 -1.50688e-07 2.57873)
(-2.88004 4.3206e-05 0.970732)
(-2.88043 2.25676e-05 0.97012)
(-2.88019 -4.11941e-05 0.970409)
(-2.88026 4.37754e-05 0.970485)
(-2.88033 -7.77875e-07 0.970314)
(-2.88011 -5.25249e-05 0.970586)
(-2.81344 -3.83454e-05 0.27462)
(-2.81388 -4.69627e-05 0.274501)
(-2.81366 2.59191e-05 0.274559)
(-2.8137 2.8679e-05 0.274607)
(-2.81378 1.5385e-05 0.274582)
(-2.81354 3.0926e-05 0.274573)
(-2.29437 -0.000374123 0.0209801)
(-2.2949 -0.000267753 0.021026)
(-2.29469 0.000238222 0.0210055)
(-2.29465 5.86002e-06 0.0210853)
(-2.29479 0.000113155 0.0211427)
(-2.29447 0.00023655 0.020897)
(-1.42477 -0.00046998 -0.194906)
(-1.42577 -0.000318338 -0.194718)
(-1.42541 0.000299837 -0.194841)
(-1.42522 -3.17413e-05 -0.194649)
(-1.42553 0.000185708 -0.19449)
(-1.425 0.000367084 -0.195055)
(-0.35523 0.00014117 -0.337348)
(-0.357358 0.000113134 -0.337116)
(-0.356686 -0.000277503 -0.33734)
(-0.356033 -0.000557101 -0.336966)
(-0.356689 0.000536081 -0.33678)
(-0.355904 0.000906841 -0.337564)
(0.720673 0.000696729 -0.37806)
(0.719406 0.000403966 -0.37784)
(0.719681 -0.000771051 -0.378091)
(0.719951 -0.000904679 -0.377602)
(0.718293 0.000663822 -0.377396)
(0.721325 0.00123933 -0.378314)
(1.46649 0.00121434 -0.304999)
(1.46588 0.000550744 -0.304538)
(1.46561 -0.00124466 -0.304837)
(1.46634 -0.00191535 -0.304537)
(1.46567 0.00159302 -0.305031)
(1.46678 0.0031165 -0.304354)
(1.92686 -0.00037603 -0.251946)
(1.93352 -3.26861e-05 -0.252254)
(1.93293 4.88697e-05 -0.252235)
(1.92646 7.80648e-05 -0.251625)
(1.92131 0.000814507 -0.251062)
(1.93573 0.000862946 -0.252791)
(0.654568 -0.0109764 -0.185992)
(0.655378 -0.0048531 -0.193833)
(0.659876 0.00769939 -0.191698)
(0.650053 0.0155184 -0.186597)
(0.656042 -0.015092 -0.178969)
(0.659815 -0.027437 -0.199225)
(0.704413 -0.0107144 -0.612252)
(0.628965 -0.00280819 -0.609165)
(0.643097 0.00531877 -0.608506)
(0.701074 0.0131464 -0.612706)
(0.767239 -0.00957265 -0.613742)
(0.569237 -0.0202395 -0.605452)
(-1.17927 0.00416541 -0.671418)
(-1.23842 0.00148351 -0.658613)
(-1.22776 -0.00338811 -0.66056)
(-1.18438 -0.0062218 -0.670462)
(-1.14806 0.00681325 -0.681647)
(-1.24472 0.0167856 -0.65134)
(-2.52772 0.000504487 3.84691)
(-2.52869 0.000319455 3.84804)
(-2.52817 -0.000233535 3.84764)
(-2.52823 6.71991e-05 3.84752)
(-2.52847 -8.53395e-05 3.84769)
(-2.528 -0.000191057 3.84729)
(-1.80496 -0.000352227 0.996248)
(-1.80562 -0.000221087 0.995842)
(-1.80533 0.000194455 0.996035)
(-1.80537 -0.00011857 0.996033)
(-1.80553 0.000131475 0.996045)
(-1.80505 0.000308791 0.996094)
(1.05396 -0.00129572 0.127054)
(1.05334 -0.000713732 0.126908)
(1.05382 0.000932446 0.126957)
(1.05361 -7.19481e-05 0.127009)
(1.05301 0.000151013 0.126958)
(1.05415 0.000524552 0.127049)
(5.02962 -0.00983693 -1.54286)
(5.01572 -0.00532838 -1.54749)
(5.02074 0.00746569 -1.54593)
(5.02708 0.0036923 -1.54416)
(5.02468 -0.00107018 -1.54541)
(5.02315 -0.0018957 -1.54438)
(9.55252 -0.01165 -2.65757)
(9.50117 -0.00415347 -2.66491)
(9.5169 0.006695 -2.66236)
(9.54362 0.00178024 -2.65998)
(9.53808 0.00100977 -2.66128)
(9.52243 -6.25153e-05 -2.66002)
(12.5979 0.0207235 -2.71658)
(12.5618 0.0165261 -2.70959)
(12.5684 -0.0188657 -2.7107)
(12.596 -0.0155075 -2.71687)
(12.5911 0.0102754 -2.71927)
(12.574 0.0153479 -2.70889)
(14.9509 0.0378273 -1.13752)
(14.9903 0.0243535 -1.13718)
(14.9666 -0.028705 -1.13543)
(14.9742 -0.0192553 -1.13944)
(14.9582 0.0117842 -1.13987)
(14.9821 0.0203627 -1.13515)
(12.606 0.0345774 0.0768437)
(12.7245 0.022192 0.0730278)
(12.6682 -0.0348629 0.0735514)
(12.6622 -0.0478837 0.0758725)
(12.6316 0.0459126 0.0793504)
(12.6933 0.0742529 0.070824)
(0.351414 -0.00203444 2.07343)
(0.643123 0.0103493 2.08484)
(0.611994 -0.0123532 2.08788)
(0.355012 -0.0470442 2.07236)
(0.0714528 0.0512688 2.06462)
(0.826961 0.0954206 2.08934)
(-3.17084 -0.0874592 0.973772)
(-3.10385 -0.0319643 0.959985)
(-3.11466 0.05134 0.960559)
(-3.16741 0.106208 0.977562)
(-3.30027 -0.0938167 0.988882)
(-3.00698 -0.164986 0.953136)
(0.919375 -0.0328628 0.734619)
(0.49396 -0.00629288 0.708052)
(0.579795 0.0178291 0.720518)
(0.874825 0.0537768 0.724051)
(1.18507 -0.0317615 0.758343)
(0.231608 -0.0533383 0.694604)
(-1.34282 0.0581276 0.105374)
(-1.53645 0.028523 0.0259798)
(-1.50171 -0.0395482 0.0483534)
(-1.37327 -0.06837 0.0876784)
(-1.2229 0.0598191 0.143332)
(-1.52749 0.125707 0.000186755)
(-3.79474 -0.000671071 6.39522)
(-3.79503 -0.000405261 6.39939)
(-3.79484 0.000199546 6.39775)
(-3.79489 -7.96897e-05 6.39727)
(-3.79497 0.000161657 6.39823)
(-3.79492 0.000194514 6.39653)
(1.17269 -0.00600257 -2.5799)
(1.17773 -0.00373907 -2.58428)
(1.17569 0.00290462 -2.58293)
(1.17462 -0.00152025 -2.58217)
(1.17615 0.00187017 -2.58329)
(1.17497 0.00351875 -2.58108)
(-5.236 -0.0109326 -6.04482)
(-5.24198 -0.00567659 -6.04296)
(-5.23896 0.00841416 -6.04354)
(-5.23908 0.00359495 -6.04553)
(-5.242 -0.00138678 -6.04629)
(-5.23368 -0.00225857 -6.04336)
(-1.34724 -0.0288412 -5.28038)
(-1.4292 -0.0149841 -5.30252)
(-1.40178 0.0214578 -5.29483)
(-1.36171 0.0154694 -5.28598)
(-1.36692 -0.00868139 -5.29373)
(-1.3935 -0.0160611 -5.28531)
(-3.65155 -0.0249737 -6.42469)
(-3.88936 -0.0073442 -6.43996)
(-3.8155 0.00874256 -6.43295)
(-3.69764 0.00965058 -6.43115)
(-3.68371 -0.00699 -6.44621)
(-3.81773 -0.0167323 -6.41548)
(-4.19584 0.0488504 -5.7728)
(-4.50653 0.0383687 -5.61603)
(-4.39936 -0.0459961 -5.66534)
(-4.28254 -0.0310652 -5.73908)
(-4.23694 0.0197233 -5.76713)
(-4.4244 0.0305959 -5.65521)
(-4.84558 0.0538171 1.80131)
(-4.7998 0.037116 1.95629)
(-4.80161 -0.0403582 1.89153)
(-4.84732 -0.0305635 1.85442)
(-4.86238 0.0267869 1.83504)
(-4.80032 0.0426884 1.89064)
(-2.11483 -0.00346423 9.35022)
(-2.07094 0.0012728 9.38516)
(-2.04598 -1.15725e-05 9.3963)
(-2.12766 -0.0089761 9.34573)
(-2.17919 0.0156666 9.28995)
(-1.9824 0.0249979 9.45963)
(-8.39883 -0.0121712 5.35737)
(-8.43377 -0.00814789 5.41479)
(-8.39323 0.00883595 5.45675)
(-8.44444 0.00625471 5.32591)
(-8.47769 -0.00517728 5.16263)
(-8.34442 -0.00166002 5.64779)
(-6.82053 -0.00160861 -0.493237)
(-6.85321 -0.00323863 -0.49131)
(-6.83139 0.0018497 -0.476098)
(-6.8445 -0.00190315 -0.508205)
(-6.85471 0.00106082 -0.558704)
(-6.81398 0.00802312 -0.415763)
(-4.4707 0.0126056 -3.11401)
(-4.49064 0.00463464 -3.1728)
(-4.47764 -0.00613046 -3.14878)
(-4.48778 -0.00994458 -3.13771)
(-4.49061 0.00748328 -3.11024)
(-4.46946 0.0169683 -3.16665)
(-2.18869 0.0144041 -2.10645)
(-2.21849 0.00737371 -2.15482)
(-2.20933 -0.00745363 -2.1422)
(-2.19824 -0.00993925 -2.11859)
(-2.18575 0.00979791 -2.08642)
(-2.22844 0.0171061 -2.17161)
(1.11007 -0.31248 0.555749)
(1.72395 -0.0366786 0.406273)
(1.22881 -0.368454 0.687782)
(2.08245 -0.662275 0.211378)
(3.50318 0.317864 -0.194171)
(0.55784 1.34117 0.930826)
(3.55393 -0.251908 -0.921333)
(4.95493 0.0129324 -1.54086)
(3.89542 -0.113382 -1.26789)
(4.83434 -0.266704 -1.27576)
(6.41051 -0.0817305 -1.6468)
(2.13521 0.355242 -0.225529)
(5.69635 -0.402971 -1.7354)
(7.80893 0.0659257 -2.67161)
(5.69255 -0.439716 -1.89254)
(7.35396 -0.411891 -2.30144)
(8.50195 -0.166441 -2.47633)
(4.89555 -0.0218598 -1.58995)
(7.69375 -0.128463 -2.19855)
(9.3358 0.176936 -3.19724)
(8.30947 0.0430168 -2.80608)
(8.43733 0.226138 -2.70503)
(8.92421 -0.0145266 -2.42577)
(6.68804 -0.115824 -2.27594)
(8.11966 0.0788507 -2.64747)
(9.12865 0.161917 -3.32789)
(8.86061 -0.00816171 -3.56746)
(8.48658 0.389084 -2.90399)
(8.57027 0.0325539 -2.10258)
(7.38074 -0.129227 -2.71901)
(7.66383 0.069497 -2.51528)
(8.43382 0.140653 -3.23901)
(8.12162 -0.130343 -3.71602)
(7.92402 0.33321 -2.79045)
(8.0483 0.0838076 -1.73395)
(7.47449 -0.0921518 -2.86921)
(7.46522 -0.113907 -2.29182)
(8.00203 0.190772 -3.20631)
(7.7128 -0.177671 -3.75697)
(7.53702 0.16684 -2.6466)
(7.46804 0.0490083 -1.34162)
(7.44591 -0.00442161 -2.84246)
(7.0925 -0.319229 -1.96293)
(7.74781 0.212976 -3.22081)
(7.65871 -0.151113 -3.81706)
(7.2505 0.233258 -2.57643)
(6.79782 0.117645 -1.00931)
(7.15638 0.0317366 -2.74301)
(6.09537 -0.336815 -1.72844)
(6.81394 0.330627 -3.16513)
(7.00993 -0.0687359 -3.82747)
(6.38434 0.450629 -2.60546)
(5.65006 0.113149 -0.762957)
(6.24653 -0.07533 -2.61017)
(4.04241 -0.329458 -1.87119)
(4.76241 0.270822 -3.11058)
(5.34474 0.0760753 -3.88979)
(4.59699 0.875731 -2.74061)
(3.57291 0.0608149 -0.672996)
(4.31037 -0.313203 -2.40899)
(1.45436 -0.21487 -1.64584)
(2.04359 -0.0547097 -2.38801)
(3.0899 -0.0116036 -3.89653)
(2.17171 1.17348 -2.40802)
(0.869848 0.359137 -0.435463)
(1.42214 -0.447347 -1.31798)
(-2.0646 -0.105327 0.732945)
(-2.18565 -0.353952 0.502481)
(-1.25041 0.076137 -0.5284)
(-1.8943 0.744531 0.615132)
(-2.05537 0.226134 0.406213)
(-2.51288 -0.12532 2.01905)
(2.72097 -0.0903147 3.89884)
(3.41232 0.125296 4.54248)
(2.48539 -0.207169 4.92284)
(3.68056 -0.295363 3.90047)
(5.54682 0.219622 3.76049)
(0.886399 1.33805 4.64976)
(5.41838 -0.199803 4.87576)
(6.07598 -0.0667209 5.17406)
(5.70653 -0.322645 5.05392)
(5.78197 -0.114413 4.7165)
(7.75614 -0.431371 3.60526)
(3.45259 0.162101 4.42777)
(7.16921 -0.0984144 5.19149)
(8.0477 -0.0335474 5.34377)
(7.86912 -0.474582 6.17975)
(8.33744 0.0406805 4.01173)
(8.87981 -0.79702 3.32687)
(6.63597 -0.435064 4.09368)
(6.55815 0.0408097 3.41751)
(5.44577 -0.139706 3.18942)
(7.6776 -0.474668 4.20765)
(5.73623 -0.30361 2.95867)
(5.47898 -0.915974 2.60545)
(6.0559 -0.154485 3.34484)
(-0.407856 -0.162732 1.09224)
(-0.833233 -0.428444 1.58059)
(0.978572 -1.2038 1.53941)
(-0.0810033 -1.30205 1.51447)
(1.40688 0.0327649 1.65993)
(3.24397 0.479215 2.38525)
(-1.37277 -0.605478 0.617184)
(-1.86604 0.636079 1.90963)
(-0.0778033 -0.952796 0.996785)
(2.72023 -0.740392 0.763725)
(3.25154 0.0850344 1.12497)
(-1.16708 0.772463 2.58425)
(-0.85897 0.233261 1.21657)
(-0.15003 0.54387 2.36456)
(-2.66278 0.298986 2.6025)
(1.87641 -0.35094 1.3052)
(2.89886 -0.37024 0.0621421)
(2.52517 0.403062 2.27455)
(5.29098 0.114585 1.14099)
(4.37495 0.128423 1.70983)
(3.4392 -1.02146 2.95466)
(4.19505 -1.1191 0.926554)
(5.33076 -0.217248 -0.538123)
(6.48751 1.2589 2.1828)
(6.49794 -0.133721 -1.09111)
(5.73069 0.0951075 -0.715629)
(6.09446 -1.07563 1.86783)
(6.44199 -1.14726 -0.710446)
(7.24963 -0.16155 -1.44499)
(7.10648 1.05177 0.391198)
(5.83751 -0.108048 -4.12076)
(5.96011 0.348618 -4.56416)
(5.94329 -0.716195 -2.44139)
(6.10445 -0.757279 -3.36569)
(6.23887 -0.45286 -2.60096)
(5.71991 0.503103 -4.78231)
(3.87454 -0.0970742 -3.63214)
(4.22272 0.458804 -4.15307)
(4.45006 -0.173505 -5.68878)
(3.84402 0.0909062 -3.44674)
(3.81442 -0.706206 -2.04033)
(4.01059 -0.197171 -4.97328)
(-0.0489085 0.0797706 0.620643)
(0.721996 0.543061 -0.226265)
(2.0598 0.287585 -2.84071)
(0.981175 0.992618 -0.679053)
(-2.15128 -0.354518 2.07701)
(0.988038 -0.533399 -1.08046)
(2.72272 -0.219998 7.2258)
(3.21256 -0.0207793 8.35708)
(1.9569 0.0229239 8.23401)
(4.00573 0.217863 7.16568)
(6.03071 0.174967 7.73965)
(0.913082 0.916615 7.67515)
(1.81602 -0.104544 6.96201)
(2.10191 -0.0878721 8.33924)
(2.49476 0.151752 7.69986)
(1.79497 0.905331 8.21804)
(2.03543 0.344891 7.17718)
(0.217941 0.35222 7.48038)
(2.13923 0.0438725 1.883)
(1.65238 0.128142 -0.087882)
(2.02769 0.19956 1.37798)
(1.90569 0.630977 -0.887412)
(2.79959 0.181258 -3.72284)
(4.60487 -0.361589 1.60876)
(-0.0523927 0.0954155 -6.24786)
(-0.13758 -0.0325866 -6.80158)
(0.21866 0.106849 -5.90352)
(0.0516079 0.370829 -6.47547)
(0.0463409 0.398771 -6.01442)
(0.253338 0.177369 -5.92385)
(1.72816 -0.0438443 -5.97108)
(1.96807 -0.0606807 -5.73692)
(1.31062 -0.0366987 -6.10352)
(1.82358 -0.102136 -5.45059)
(1.75661 -0.189348 -5.21567)
(1.85194 -0.0829707 -5.63743)
(1.08263 -0.278265 -2.03606)
(0.785635 -0.0773901 -1.16967)
(0.956293 -0.0286491 -2.57377)
(0.849965 -0.389378 -2.51004)
(0.815268 -0.646226 -2.79222)
(0.571761 -0.324758 -1.26147)
(-0.204816 -0.0275983 2.13029)
(0.0286119 0.272912 3.35624)
(-0.821953 0.151627 2.46764)
(0.450355 0.606957 -0.512351)
(0.4782 -0.631673 -1.11857)
(1.17239 -0.332193 3.73429)
(1.23378 -0.0336196 3.45305)
(1.36485 -0.193361 3.99453)
(0.828901 -0.39982 4.84188)
(-1.08377 0.950166 1.08147)
(-1.53269 -0.410461 -1.40587)
(3.21252 0.498004 3.4184)
(-0.919014 -0.211045 -0.183536)
(0.0240357 -0.626993 2.99417)
(2.00603 -0.711647 3.14466)
(-0.145394 0.0280752 -0.676548)
(0.000795126 0.298269 -4.05708)
(1.30787 0.572653 -1.459)
(2.54383 -0.0447498 -4.78404)
(3.18357 -0.0312683 -4.28441)
(3.30588 -0.701954 -2.51461)
(3.273 -1.06889 -5.79001)
(3.62111 -0.115592 -6.9354)
(2.68912 0.553671 -4.83322)
(3.12502 0.118754 -5.65283)
(3.28238 0.407655 -6.00635)
(2.29526 -0.275619 -6.20099)
(2.92622 -0.931926 -6.07536)
(4.1499 -0.128731 -5.47566)
(3.53002 0.68479 -6.93781)
(2.48011 0.0478411 -3.18281)
(2.7865 0.283544 -3.7648)
(3.05804 -0.132342 -4.78364)
(2.26681 -0.614921 -2.92074)
(-1.03706 -0.246128 3.87895)
(2.4054 0.592731 -3.86324)
(1.98732 -0.448621 8.49941)
(2.10774 -0.0979666 9.09622)
(1.16133 0.0225566 8.60956)
(3.72661 0.362935 8.80714)
(5.82075 0.0841696 9.75167)
(1.02405 0.652774 8.1993)
(-1.8042 -0.560155 8.78242)
(0.595374 -0.311669 7.4833)
(0.958908 0.330054 6.94235)
(-0.527536 1.48535 7.5873)
(-1.24919 1.08996 8.23068)
(-1.77125 0.734096 9.75901)
(2.88705 0.454785 0.333052)
(3.67627 0.54502 -0.474417)
(3.32842 0.135644 -0.248402)
(3.6684 0.306738 -0.418281)
(3.9765 -0.504184 -0.281313)
(1.9765 -0.522908 1.30552)
(-0.442698 0.102541 -1.04301)
(-0.399514 0.0271014 -0.886207)
(-0.243536 -0.144819 -0.753806)
(-0.0287214 -0.0402781 -1.37596)
(-0.080484 -0.133405 -1.50872)
(0.100904 -0.127295 -0.868876)
(2.62885 -0.0279599 -0.851142)
(2.69669 0.0315074 -0.908791)
(2.58635 0.0488037 -0.857442)
(2.61373 -0.101004 -0.7596)
(2.53577 -0.00614487 -0.885618)
(2.47865 0.0249317 -0.747432)
(1.94428 -0.0845832 -0.233)
(1.93497 0.13827 0.106504)
(1.87227 0.212133 -0.149496)
(1.65588 0.110622 -0.223104)
(1.57618 -0.0987959 -0.135745)
(1.75406 -0.235731 0.274929)
(1.26302 -0.15371 0.852975)
(1.12376 0.195374 1.81043)
(1.18634 0.575775 1.3374)
(1.19323 0.688447 0.299278)
(1.13281 -0.463571 0.262238)
(0.916229 -0.661194 1.72617)
(-0.748076 -0.028548 1.62213)
(-0.460174 0.125856 2.34485)
(-0.624552 0.45811 2.96767)
(-0.849415 1.22479 0.599936)
(-0.860574 0.00431836 0.118597)
(-0.249549 -0.422685 2.10363)
(-2.2173 -0.17816 0.159051)
(-2.11125 -0.00886104 0.530007)
(-1.84633 0.578449 1.16423)
(-1.6956 1.28177 0.225284)
(-1.54687 0.881895 0.0988955)
(-1.75974 0.204684 0.366466)
(-0.523776 0.0130461 -1.26436)
(-0.162753 0.0417723 -1.58232)
(0.0822271 0.0453325 -0.903944)
(-0.0549931 -0.098579 -1.93272)
(0.395299 -0.152042 -2.99696)
(-2.39505 0.0169484 -0.553628)
(-0.177148 0.106782 -5.01395)
(-0.612613 -0.0177048 -4.76386)
(-3.46015 0.09547 -2.76753)
(1.20265 -0.345077 -6.14592)
(3.7719 0.0479102 -5.897)
(1.65896 0.582637 -5.39042)
(3.57857 -0.0258325 -4.27065)
(3.61632 -0.223564 -4.27375)
(3.69615 -0.260771 -4.14394)
(3.21666 -0.676551 -4.19142)
(2.56267 -0.0696272 -2.73263)
(3.21285 0.648354 -4.06464)
(-4.58523 0.00127978 6.99651)
(-4.58519 0.000989339 6.99277)
(-4.5851 -0.000873062 6.99364)
(-4.58529 -5.30306e-05 6.99485)
(-4.58512 -0.000111938 6.99391)
(-4.5854 -0.000571997 6.99495)
(-4.16846 -0.00268951 5.15269)
(-4.17335 -0.0020248 5.1602)
(-4.17133 0.000866431 5.15729)
(-4.17062 -0.000136044 5.1554)
(-4.17218 0.000188598 5.15787)
(-4.17041 0.000728914 5.15532)
(-3.03128 0.000843166 8.07737)
(-3.03386 0.000717516 8.08712)
(-3.03264 -0.0002345 8.08293)
(-3.03219 0.000202411 8.08103)
(-3.03335 -0.00044388 8.08397)
(-3.03222 -0.000581361 8.07932)
(4.07937 -0.00333095 6.05232)
(4.07703 -0.00226694 6.01556)
(4.07792 0.0013674 6.02867)
(4.07833 -0.000495749 6.0345)
(4.07741 0.00110218 6.02508)
(4.07896 0.00182683 6.0392)
(0.754154 -0.0032342 1.16077)
(0.725727 -0.00199648 1.11269)
(0.735182 -0.000532305 1.13011)
(0.742059 -0.00254613 1.13887)
(0.73414 5.2011e-05 1.12539)
(0.743586 0.000833802 1.14143)
(0.699373 -0.00169135 0.672197)
(0.71259 0.000729835 0.623596)
(0.706682 -0.00062397 0.645666)
(0.707541 -0.00370947 0.645659)
(0.711604 -0.000248935 0.627736)
(0.705085 0.000522981 0.651577)
(-4.76513 -0.00705724 -1.95389)
(-4.75847 -0.00319621 -1.95822)
(-4.75925 0.00547379 -1.95522)
(-4.76097 0.00452729 -1.95653)
(-4.76093 -0.00253194 -1.95982)
(-4.75812 -0.0058673 -1.95435)
(-1.30476 -7.6587e-06 -2.56258)
(-1.3045 0.00074681 -2.56961)
(-1.3046 -0.000730614 -2.56597)
(-1.30355 -0.000241769 -2.56671)
(-1.30068 -5.53902e-05 -2.56963)
(-1.30518 -0.00123729 -2.5657)
(-0.406571 -0.000779386 -1.75638)
(-0.407969 -0.000345801 -1.76265)
(-0.407842 0.000220827 -1.7597)
(-0.40752 -0.000219489 -1.76002)
(-0.407019 6.74706e-05 -1.76266)
(-0.407728 8.02033e-05 -1.75863)
(-1.55994 -0.0292545 -2.99679)
(-1.62751 -0.0145793 -2.99662)
(-1.60334 0.0199744 -2.99691)
(-1.57296 0.0165751 -2.998)
(-1.56719 -0.0109631 -3.00827)
(-1.60439 -0.0217163 -2.9862)
(-0.365667 -0.00922533 -3.30408)
(-0.373185 -0.00449179 -3.29784)
(-0.367707 0.00626525 -3.30154)
(-0.369972 0.00488239 -3.30233)
(-0.364969 -0.00324758 -3.30726)
(-0.370481 -0.00702302 -3.29819)
(-0.0987299 -0.00190025 -2.63707)
(-0.102244 -0.000908834 -2.63186)
(-0.10068 0.00126365 -2.63464)
(-0.100051 0.000994786 -2.63518)
(-0.0993342 -0.000535582 -2.63749)
(-0.100987 -0.0012452 -2.63307)
(-3.36926 -0.0442744 -3.23245)
(-3.63521 -0.0182358 -3.19822)
(-3.54386 0.0224818 -3.21139)
(-3.42955 0.0185679 -3.22334)
(-3.38986 -0.0116429 -3.24226)
(-3.56419 -0.0265651 -3.1934)
(-1.95125 -0.0552682 -1.94879)
(-2.04181 -0.0294489 -1.92234)
(-2.00264 0.0355939 -1.93537)
(-1.97962 0.0244022 -1.94083)
(-1.96507 -0.0164068 -1.95867)
(-2.01123 -0.0309711 -1.91958)
(-0.62388 -0.0097279 -0.808758)
(-0.643471 -0.00523652 -0.777515)
(-0.634708 0.00581706 -0.792359)
(-0.632331 0.00393984 -0.797631)
(-0.629413 -0.00269514 -0.806806)
(-0.635723 -0.00554682 -0.787066)
(-5.83605 0.00901281 -2.99242)
(-6.29849 0.0157592 -2.741)
(-6.12566 -0.0165174 -2.83869)
(-5.97398 -0.0118068 -2.9097)
(-5.89356 0.0122361 -2.94345)
(-6.16711 0.0153861 -2.82791)
(-4.14868 -0.0605841 -0.81286)
(-4.65494 -0.0277661 -0.599459)
(-4.46307 0.0268212 -0.688699)
(-4.30142 0.0130545 -0.735413)
(-4.24366 -0.00488771 -0.753232)
(-4.4915 -0.0105805 -0.682996)
(-1.03071 -0.0598463 1.90177)
(-1.13277 -0.0334728 2.04851)
(-1.09046 0.0338474 1.98668)
(-1.0662 0.0175715 1.95412)
(-1.05692 -0.0117938 1.9326)
(-1.09527 -0.0211357 1.99683)
(-8.46386 0.0581662 3.27086)
(-8.66938 0.0417484 3.50071)
(-8.56147 -0.0361063 3.40644)
(-8.5657 -0.0200518 3.35944)
(-8.54974 0.0181728 3.34228)
(-8.55916 0.0250695 3.39977)
(-8.0082 0.0511251 4.08354)
(-8.49126 0.0318574 4.41354)
(-8.28978 -0.040216 4.26884)
(-8.21187 -0.025918 4.25555)
(-8.18615 0.0211685 4.26879)
(-8.2832 0.0394863 4.2101)
(-2.61492 -0.0192617 6.07603)
(-3.0806 -0.00807591 6.33583)
(-2.89995 -0.00467898 6.23002)
(-2.77603 -0.0138905 6.18224)
(-2.75074 0.0131212 6.1933)
(-2.90837 0.0255762 6.21448)
(-8.12181 -0.017341 10.8334)
(-8.16389 -0.009513 10.8322)
(-8.11092 0.0165884 10.8613)
(-8.1635 0.0272696 10.8099)
(-8.21043 -0.0245846 10.7996)
(-8.04363 -0.0404931 10.8848)
(-8.50495 0.0438307 8.93146)
(-8.60037 0.0202826 8.74166)
(-8.53334 -0.0180662 8.81187)
(-8.58893 0.0111012 8.88954)
(-8.64344 -0.0160948 8.97642)
(-8.49007 -0.0159364 8.76969)
(-4.34094 0.0987795 7.70849)
(-4.62581 0.0501763 7.75577)
(-4.49984 -0.0637432 7.72331)
(-4.48648 -0.0403023 7.75376)
(-4.51066 0.0223488 7.81563)
(-4.47128 0.0605825 7.69028)
(-9.43498 -0.026805 6.75593)
(-9.49156 -0.0254747 6.74758)
(-9.45459 0.0235855 6.78263)
(-9.47368 0.0413147 6.72396)
(-9.54136 -0.048656 6.70316)
(-9.37612 -0.0666436 6.82328)
(-6.59529 0.00792938 4.49593)
(-6.53552 -0.00882774 4.18418)
(-6.54818 0.00714872 4.31928)
(-6.59936 0.0333463 4.37456)
(-6.66603 -0.03713 4.40987)
(-6.50458 -0.0408757 4.33482)
(-2.13756 0.0743883 1.96336)
(-2.11205 0.0279595 1.77555)
(-2.10534 -0.0330557 1.83376)
(-2.16655 -0.00839476 1.90558)
(-2.22197 -0.00484358 1.92306)
(-2.07646 0.0289506 1.83875)
(-6.98827 -0.00857644 -2.32772)
(-6.8862 -0.0142121 -2.4024)
(-6.93913 0.0121057 -2.35514)
(-6.9464 0.0186201 -2.36902)
(-6.96686 -0.0236055 -2.41821)
(-6.94234 -0.0240435 -2.2838)
(-3.16536 -0.014605 -4.05892)
(-3.07056 -0.0233095 -4.17976)
(-3.09023 0.0239605 -4.14791)
(-3.1496 0.0404473 -4.09617)
(-3.179 -0.0397628 -4.14452)
(-3.07232 -0.0459679 -4.09442)
(-0.823653 0.00243808 -5.26748)
(-0.786964 -0.0077022 -5.47132)
(-0.788054 0.0107858 -5.43842)
(-0.826484 0.0224109 -5.30819)
(-0.83613 -0.0211854 -5.32642)
(-0.781995 -0.0215594 -5.42011)
(-5.34919 0.00323552 -4.77583)
(-5.35983 0.00311614 -4.71971)
(-5.35488 -0.00329861 -4.72876)
(-5.35035 -0.00871066 -4.77035)
(-5.3524 0.0109516 -4.79669)
(-5.35299 0.0179177 -4.70599)
(-2.42035 -0.0183192 -5.04732)
(-2.42601 -0.0110364 -5.01928)
(-2.42234 0.0139589 -5.02111)
(-2.42121 0.0179212 -5.04741)
(-2.41662 -0.0131049 -5.07817)
(-2.42514 -0.0245978 -4.99227)
(-0.478571 -0.00518893 -6.24893)
(-0.476802 -0.00412541 -6.24086)
(-0.477737 0.00535485 -6.24226)
(-0.479712 0.00850045 -6.24866)
(-0.481847 -0.00768981 -6.26571)
(-0.477715 -0.011967 -6.22772)
(-4.28545 0.00823333 -2.99777)
(-4.30104 0.00476239 -2.96325)
(-4.29243 -0.0067802 -2.97107)
(-4.29393 -0.00981314 -2.99192)
(-4.29128 0.00977253 -3.01082)
(-4.29634 0.0169661 -2.95766)
(-2.2574 -0.00591092 -5.97414)
(-2.25391 -0.00354305 -5.95632)
(-2.25615 0.00468255 -5.96224)
(-2.25386 0.00566259 -5.97453)
(-2.25521 -0.00528749 -5.98956)
(-2.25646 -0.0085946 -5.94422)
(-0.419011 -0.00139555 -3.97664)
(-0.415083 -0.000779632 -3.97836)
(-0.416143 0.00142725 -3.97711)
(-0.419032 0.0018566 -3.97818)
(-0.421855 -0.00251165 -3.98247)
(-0.414986 -0.00361547 -3.97319)
(2.05182 -0.00599071 0.484861)
(2.05892 -0.0152672 0.491061)
(2.0651 -0.0269861 0.493459)
(1.97097 -0.0275612 0.593167)
(1.88899 -0.00471117 0.520663)
(2.01067 0.00934917 0.559743)
(0.273771 -0.0108357 -5.3824)
(0.303066 -0.0245819 -5.38864)
(0.327119 -0.0515487 -5.34709)
(0.453008 -0.0509813 -5.1123)
(0.569852 -0.00976613 -4.62352)
(0.471494 0.00426779 -5.07175)
(0.698646 -0.00549511 -1.57273)
(0.708932 -0.0286449 -1.55757)
(0.713647 -0.0780357 -1.56433)
(0.734533 -0.0985379 -1.67751)
(0.768751 -0.0274994 -1.70783)
(0.721493 0.0175609 -1.66095)
(0.592314 -0.00130971 -0.198891)
(0.592119 -0.000905031 -0.20342)
(0.58446 0.00208546 -0.201779)
(0.576058 0.00468243 -0.19925)
(0.563676 -0.000616423 -0.165849)
(0.574238 -0.00460791 -0.193798)
(-0.361758 0.0140942 -1.8953)
(-0.37244 0.031544 -1.91661)
(-0.367998 0.0532232 -1.93213)
(-0.400048 0.0447034 -1.77424)
(-0.400013 0.0194663 -1.69637)
(-0.38385 0.0132693 -1.85472)
(0.798109 -0.00355091 -2.10367)
(0.794351 -0.011076 -2.10974)
(0.780884 -0.0299418 -2.11236)
(0.746524 -0.0363555 -2.13066)
(0.721211 -0.00978117 -2.13754)
(0.727503 0.0039564 -2.13682)
(0.225887 -0.00126037 0.203426)
(0.223932 -0.00239506 0.20271)
(0.223745 0.00269894 0.201976)
(0.224545 0.00308278 0.203472)
(0.224834 -0.00127317 0.202671)
(0.222917 -0.000189978 0.196911)
(-0.333657 0.00140494 -1.13789)
(-0.327297 0.00342626 -1.14968)
(-0.313106 0.00156343 -1.14859)
(-0.295564 0.00018103 -1.12453)
(-0.284246 0.00860672 -1.12138)
(-0.27844 0.00883357 -1.12706)
(0.263397 -0.00260673 -1.93319)
(0.262741 -0.00954888 -1.93305)
(0.258984 -0.0176155 -1.93072)
(0.243298 -0.0196261 -1.92209)
(0.233533 -0.0102841 -1.92731)
(0.240135 -0.00155764 -1.91379)
(-0.260638 -0.000389642 0.249088)
(-0.260137 -0.000169163 0.248516)
(-0.26033 -0.00214825 0.248061)
(-0.258526 -0.00239441 0.250245)
(-0.258819 0.00186262 0.253568)
(-0.258185 0.00217582 0.244551)
(-1.09078 0.000946264 -1.1916)
(-1.09138 0.00336226 -1.185)
(-1.09036 0.00479229 -1.18206)
(-1.08706 0.00331272 -1.20454)
(-1.08527 0.00737773 -1.21188)
(-1.09 0.00701076 -1.17715)
(-0.22873 -0.00184072 -2.23682)
(-0.230342 -0.00491291 -2.23826)
(-0.234299 -0.0061864 -2.2374)
(-0.240084 -0.00643646 -2.23726)
(-0.244084 -0.00511544 -2.24102)
(-0.246507 -0.0019341 -2.22853)
(-0.59969 -0.00157686 0.187522)
(-0.598563 -0.00172557 0.185904)
(-0.59723 -0.00124184 0.185692)
(-0.601123 -0.000993245 0.188268)
(-0.601596 0.000626726 0.191745)
(-0.597456 0.000761032 0.182902)
(-1.64155 0.000880477 -2.06977)
(-1.64304 0.00249634 -2.0759)
(-1.64251 0.0044652 -2.07498)
(-1.63884 0.00246027 -2.08701)
(-1.6367 0.00402707 -2.09247)
(-1.64407 0.00490553 -2.07032)
(-0.87812 -0.000203636 -2.74956)
(-0.880424 -0.00137945 -2.75013)
(-0.882277 -0.00210071 -2.74906)
(-0.882338 -0.00218362 -2.75106)
(-0.882461 -0.00290718 -2.75453)
(-0.888357 -0.00177922 -2.7428)
(-1.88335 -0.00149682 1.01659)
(-1.88376 -0.00220962 1.01762)
(-1.88158 -0.000274701 1.01617)
(-1.88703 0.00061943 1.01813)
(-1.88816 -0.00040453 1.02015)
(-1.88222 -0.00045559 1.0145)
(-2.43446 0.00157286 -5.57213)
(-2.42976 0.00155131 -5.60687)
(-2.43165 0.00124289 -5.60068)
(-2.42878 0.000141212 -5.59011)
(-2.42866 0.0013901 -5.58151)
(-2.43145 0.00283904 -5.60349)
(-0.955095 0.00194673 -3.03457)
(-0.953481 0.00113538 -3.03365)
(-0.954999 -0.00131308 -3.03329)
(-0.955251 -0.00119335 -3.03437)
(-0.955806 -0.00101489 -3.0376)
(-0.957252 -0.000453368 -3.02953)
(1.35907 -0.440986 8.00986)
(1.31284 0.0788238 9.0433)
(1.29808 0.188936 8.37062)
(3.10568 0.939604 8.99852)
(4.38706 -0.648885 11.1111)
(1.67572 0.560532 7.666)
(1.78608 -0.359878 6.56457)
(1.72516 0.0346646 7.06712)
(2.36201 -0.17445 7.02518)
(4.13071 0.303323 9.80063)
(4.5163 -0.0648373 12.4852)
(2.68195 0.703943 6.38064)
(3.85047 -0.307561 13.3714)
(3.87434 -0.216 13.3619)
(4.80844 -0.666282 13.3235)
(6.59432 -0.528923 14.5305)
(6.63072 0.213955 15.7592)
(4.41526 0.804882 13.0471)
(-2.33035 -0.319279 10.4206)
(-1.13445 0.560032 8.06513)
(-0.166809 0.62396 6.32688)
(-0.395607 1.44236 6.49302)
(-0.374576 0.123522 7.55431)
(-2.19651 0.576988 11.5031)
(-0.706783 0.194114 10.4354)
(0.0226299 1.35495 10.0573)
(0.233194 1.00382 8.76791)
(-0.992106 0.925996 9.25973)
(-0.946645 -1.26494 11.9882)
(-1.78392 -0.0952214 12.3596)
(4.28182 0.164855 6.42667)
(4.43758 0.581832 6.94484)
(3.3635 0.276804 6.82236)
(1.01738 -0.136931 8.1336)
(1.414 -1.66538 8.9893)
(2.36218 -0.290306 6.09885)
(3.96291 0.357257 -1.79229)
(4.98846 0.718601 -2.71032)
(4.59646 0.386302 -2.29708)
(4.54284 0.279404 -2.45066)
(4.80905 -0.856025 -2.69705)
(2.89786 -0.594762 -1.16872)
(3.90617 0.069981 -0.928015)
(4.07521 0.0975569 -1.12176)
(3.53337 -0.656541 -0.442103)
(3.21171 -0.122509 1.9658)
(3.5805 -0.473919 0.933133)
(3.20084 0.103543 -0.752571)
(1.74204 -0.179149 -1.80565)
(1.79585 -0.617018 -1.58103)
(1.50969 -1.12326 -2.33175)
(1.64849 -0.420628 -1.85698)
(1.64876 0.197089 -2.23288)
(2.08312 0.818527 -0.71558)
(-0.118981 0.0519294 -3.77633)
(-0.162181 0.0437011 -3.77627)
(0.032706 -0.0808068 -3.67058)
(0.341611 0.00616011 -4.19239)
(0.0642839 -0.14285 -4.20934)
(-0.0864301 -0.170385 -3.44)
(0.168432 0.0116679 -3.53439)
(0.209998 -0.019391 -3.52854)