/*--------------------------------*- C++ -*----------------------------------*\
| =========                 |                                                 |
| \\      /  F ield         | OpenFOAM: The Open Source CFD Toolbox           |
|  \\    /   O peration     | Version:  v1612+                                |
|   \\  /    A nd           | Web:      www.OpenFOAM.com                      |
|    \\/     M anipulation  |                                                 |
\*---------------------------------------------------------------------------*/
FoamFile
{
    version     2.0;
    format      ascii;
    class       volScalarField;
    location    "3.35";
    object      alpha.water;
}
// * * * * * * * * * * * * * * * * * * * * * * * * * * * * * * * * * * * * * //

dimensions      [0 0 0 0 0 0 0];

internalField   nonuniform List<scalar> 
1116
(
0.75954
0.759535
0.759537
0.759536
0.759532
0.759537
0.760688
0.760683
0.760685
0.760684
0.76068
0.760685
0.786907
0.786902
0.786903
0.786903
0.7869
0.786904
0.827053
0.827046
0.827049
0.827048
0.827045
0.82705
0.867101
0.867094
0.867096
0.867096
0.867094
0.867099
0.900379
0.900372
0.900373
0.900373
0.900371
0.900376
0.926134
0.926127
0.926127
0.926126
0.926125
0.92613
0.966932
0.966926
0.966925
0.966924
0.966922
0.966927
0.973069
0.973069
0.973069
0.973069
0.973069
0.973069
0.973069
0.973069
0.973069
0.973069
0.973069
0.973069
0.973068
0.973068
0.973068
0.973068
0.973068
0.973068
0.970358
0.970357
0.970357
0.970357
0.970357
0.970357
0.0993183
0.0993172
0.0993173
0.0993157
0.099315
0.0993188
0.0505194
0.0505181
0.050518
0.0505174
0.0505172
0.0505198
0.0395804
0.0395796
0.0395792
0.0395793
0.0395795
0.03958
0.0497624
0.0497615
0.0497611
0.0497613
0.0497615
0.049762
0.07103
0.0710285
0.0710283
0.0710285
0.0710288
0.0710295
0.101191
0.101189
0.101189
0.101189
0.10119
0.101191
0.144375
0.144371
0.144371
0.144372
0.144372
0.144374
0.199441
0.199434
0.199435
0.199435
0.199435
0.19944
0.36421
0.364193
0.364196
0.364196
0.364194
0.364208
0.778784
0.778757
0.778764
0.778763
0.778756
0.778776
0.973066
0.973066
0.973066
0.973066
0.973066
0.973066
0.97299
0.97299
0.97299
0.97299
0.97299
0.97299
1.90705e-08
1.9071e-08
1.90708e-08
1.90716e-08
1.90733e-08
1.90737e-08
4.31086e-09
4.31101e-09
4.31088e-09
4.31026e-09
4.31023e-09
4.31085e-09
2.75938e-09
2.75908e-09
2.75911e-09
2.75865e-09
2.75834e-09
2.75928e-09
1.36086e-09
1.36082e-09
1.36081e-09
1.36069e-09
1.36057e-09
1.3606e-09
2.27183e-10
2.27169e-10
2.27173e-10
2.2713e-10
2.27102e-10
2.27078e-10
2.60446e-11
2.6058e-11
2.60494e-11
2.60492e-11
2.60417e-11
2.60537e-11
6.80715e-12
6.82152e-12
6.82058e-12
6.82061e-12
6.8226e-12
6.82528e-12
-1.7924e-06
-1.79286e-06
-1.79246e-06
-1.79244e-06
-1.7927e-06
-1.79262e-06
0.000137303
0.000137325
0.000137316
0.000137316
0.000137322
0.000137312
0.0712038
0.071176
0.0711867
0.0711861
0.0711802
0.0711929
0.761228
0.761188
0.761203
0.761198
0.761184
0.761221
0.972939
0.972939
0.972939
0.972938
0.972938
0.972938
5.08611e-07
5.08537e-07
5.08623e-07
5.08705e-07
5.087e-07
5.08768e-07
2.47688e-06
2.47665e-06
2.47672e-06
2.47673e-06
2.47661e-06
2.47697e-06
7.64627e-08
7.6512e-08
7.64916e-08
7.64937e-08
7.65306e-08
7.64627e-08
7.91259e-08
7.90902e-08
7.90966e-08
7.90689e-08
7.90539e-08
7.91457e-08
8.09466e-08
8.09389e-08
8.09386e-08
8.09342e-08
8.09304e-08
8.09421e-08
8.38076e-09
8.38091e-09
8.38016e-09
8.37889e-09
8.37758e-09
8.37553e-09
-7.50747e-12
-7.50667e-12
-7.48845e-12
-7.49535e-12
-7.48367e-12
-7.4866e-12
-1.67054e-09
-1.66962e-09
-1.66972e-09
-1.66727e-09
-1.6659e-09
-1.66564e-09
-2.97207e-07
-2.96117e-07
-2.97035e-07
-2.97082e-07
-2.96435e-07
-2.97204e-07
0.000132559
0.000132526
0.00013254
0.00013254
0.00013253
0.000132552
0.274943
0.274851
0.274876
0.274883
0.274865
0.274909
0.971974
0.971973
0.971974
0.971974
0.971973
0.971974
3.27435e-45
3.19117e-45
3.14015e-45
3.13962e-45
3.20809e-45
2.93227e-45
1.44274e-41
1.40638e-41
1.3842e-41
1.38358e-41
1.41333e-41
1.29454e-41
3.00742e-38
2.93233e-38
2.88687e-38
2.8848e-38
2.94573e-38
2.70446e-38
3.88142e-35
3.78545e-35
3.72789e-35
3.72436e-35
3.80113e-35
3.49881e-35
3.42887e-32
3.34502e-32
3.29533e-32
3.29192e-32
3.35746e-32
3.09942e-32
2.17617e-29
2.1237e-29
2.09313e-29
2.09158e-29
2.13109e-29
1.97414e-29
1.02067e-26
9.96577e-27
9.82925e-27
9.83445e-27
1.0004e-26
9.30972e-27
3.60098e-24
3.51913e-24
3.47481e-24
3.48913e-24
3.53782e-24
3.31576e-24
9.84324e-22
9.63337e-22
9.52696e-22
9.65746e-22
9.71193e-22
9.22435e-22
2.14559e-19
2.10505e-19
2.08558e-19
2.17158e-19
2.12811e-19
2.08597e-19
2.08062e-17
2.05087e-17
2.03944e-17
2.5926e-17
2.1092e-17
2.51028e-17
4.87924e-17
4.82751e-17
4.80974e-17
5.19366e-17
4.88912e-17
5.23417e-17
5.38184e-44
5.31283e-44
5.19438e-44
5.10221e-44
5.09512e-44
4.59411e-44
2.52388e-40
2.49048e-40
2.43545e-40
2.3919e-40
2.38772e-40
2.15898e-40
5.61971e-37
5.54305e-37
5.42188e-37
5.32426e-37
5.31272e-37
4.81929e-37
7.88125e-34
7.77041e-34
7.60281e-34
7.46531e-34
7.44537e-34
6.77908e-34
7.85764e-31
7.74348e-31
7.57925e-31
7.4424e-31
7.41785e-31
6.78355e-31
6.03288e-28
5.94212e-28
5.819e-28
5.71593e-28
5.69236e-28
5.23357e-28
3.84742e-25
3.78668e-25
3.71083e-25
3.64977e-25
3.63008e-25
3.36143e-25
2.20905e-22
2.17363e-22
2.13285e-22
2.10614e-22
2.08875e-22
1.95598e-22
1.20662e-19
1.18779e-19
1.16831e-19
1.17005e-19
1.14917e-19
1.10212e-19
2.28544e-17
2.26625e-17
2.2563e-17
2.69246e-17
2.26141e-17
2.63195e-17
4.77021e-17
4.71891e-17
4.70048e-17
5.19848e-17
4.78749e-17
5.08981e-17
5.67855e-16
5.58297e-16
5.54356e-16
5.68476e-16
6.15819e-16
5.27625e-16
2.18644e-38
2.16034e-38
2.15008e-38
2.17131e-38
2.24404e-38
2.0654e-38
9.63369e-35
9.52027e-35
9.47601e-35
9.56376e-35
9.87821e-35
9.11343e-35
1.93393e-31
1.91154e-31
1.90289e-31
1.91911e-31
1.98073e-31
1.83275e-31
2.2599e-28
2.23426e-28
2.22454e-28
2.24157e-28
2.31139e-28
2.14656e-28
1.65101e-25
1.63276e-25
1.62605e-25
1.63684e-25
1.6859e-25
1.57291e-25
7.64742e-23
7.56587e-23
7.53738e-23
7.57876e-23
7.79535e-23
7.31554e-23
2.2156e-20
2.1933e-20
2.18621e-20
2.19555e-20
2.2548e-20
2.13184e-20
3.9192e-18
3.8836e-18
3.87406e-18
3.88566e-18
3.98333e-18
3.80189e-18
3.02186e-17
2.98616e-17
2.97564e-17
3.01158e-17
3.12988e-17
2.88377e-17
7.88324e-15
7.85388e-15
7.87202e-15
7.6638e-15
7.40987e-15
8.16245e-15
4.19448e-12
4.15846e-12
4.15194e-12
4.18941e-12
4.34643e-12
4.05748e-12
9.09406e-11
9.01919e-11
9.00788e-11
9.1874e-11
9.56075e-11
8.84663e-11
8.23033e-41
8.17981e-41
8.15489e-41
8.23487e-41
8.48266e-41
7.80313e-41
3.52574e-37
3.50466e-37
3.49415e-37
3.52686e-37
3.63089e-37
3.34464e-37
6.83438e-34
6.79438e-34
6.77427e-34
6.83421e-34
7.03104e-34
6.48775e-34
7.74612e-31
7.70205e-31
7.67978e-31
7.74333e-31
7.95982e-31
7.36033e-31
5.58023e-28
5.54997e-28
5.5346e-28
5.57704e-28
5.72714e-28
5.30996e-28
2.6262e-25
2.61344e-25
2.60681e-25
2.62531e-25
2.69257e-25
2.50495e-25
8.05595e-23
8.0274e-23
8.01093e-23
8.06487e-23
8.25782e-23
7.71685e-23
1.16367e-20
1.16341e-20
1.16181e-20
1.16937e-20
1.18947e-20
1.12446e-20
1.88489e-20
1.88129e-20
1.87984e-20
1.89679e-20
1.92869e-20
1.8419e-20
6.51968e-12
6.51539e-12
6.50304e-12
6.38507e-12
6.23563e-12
6.60447e-12
3.93607e-09
3.92272e-09
3.92543e-09
3.923e-09
3.98149e-09
3.91749e-09
1.36444e-07
1.34427e-07
1.3346e-07
1.38163e-07
1.51123e-07
1.22566e-07
1.3007e-07
1.30006e-07
1.3006e-07
1.30115e-07
1.30118e-07
1.30159e-07
-3.43826e-16
-3.77108e-16
-3.8723e-16
-3.78536e-16
-3.76277e-16
-3.85318e-16
-9.48681e-16
-1.03902e-15
-1.06652e-15
-1.04281e-15
-1.03664e-15
-1.06152e-15
2.56202e-06
2.56203e-06
2.56204e-06
2.56206e-06
2.56208e-06
2.56208e-06
6.9105e-07
6.90357e-07
6.90647e-07
6.90585e-07
6.89992e-07
6.91199e-07
-4.97002e-15
-5.44301e-15
-5.58742e-15
-5.46314e-15
-5.43082e-15
-5.56167e-15
6.81864e-07
6.81802e-07
6.81818e-07
6.8186e-07
6.81867e-07
6.81919e-07
1.31742e-19
1.31382e-19
1.31417e-19
1.31416e-19
1.31291e-19
1.31565e-19
-3.39887e-14
-3.72245e-14
-3.8211e-14
-3.7361e-14
-3.71406e-14
-3.80323e-14
3.0066e-08
2.99669e-08
2.99881e-08
2.99143e-08
2.98915e-08
3.0163e-08
4.25062e-20
4.26784e-20
4.25938e-20
4.25707e-20
4.2507e-20
4.20005e-20
-2.3894e-14
-2.61671e-14
-2.68597e-14
-2.62608e-14
-2.61057e-14
-2.67317e-14
8.32985e-08
8.32985e-08
8.32973e-08
8.32962e-08
8.3297e-08
8.3297e-08
8.21851e-09
8.16298e-09
8.17033e-09
8.14691e-09
8.12018e-09
8.18867e-09
-1.27281e-15
-1.39452e-15
-1.4322e-15
-1.40003e-15
-1.39138e-15
-1.41646e-15
3.30382e-08
3.30267e-08
3.30266e-08
3.30212e-08
3.30149e-08
3.3026e-08
1.44102e-21
1.44165e-21
1.44167e-21
1.44219e-21
1.44215e-21
1.44276e-21
-1.23997e-17
-1.35797e-17
-1.39456e-17
-1.36325e-17
-1.35471e-17
-1.37685e-17
2.16686e-11
2.1618e-11
2.1621e-11
2.16025e-11
2.15684e-11
2.16207e-11
1.53009e-17
1.53009e-17
1.53009e-17
1.53008e-17
1.53008e-17
1.53008e-17
-2.5328e-18
-2.5037e-18
-2.52249e-18
-2.53796e-18
-2.52734e-18
-2.60161e-18
8.85036e-11
8.84214e-11
8.84195e-11
8.83673e-11
8.83142e-11
8.84037e-11
1.56e-17
1.57131e-17
1.55613e-17
1.54376e-17
1.54122e-17
1.50893e-17
-9.74255e-16
-9.68488e-16
-9.72491e-16
-9.75372e-16
-9.72736e-16
-9.87892e-16
-1.6579e-07
-1.66105e-07
-1.66008e-07
-1.65996e-07
-1.66172e-07
-1.65703e-07
-1.52121e-12
-1.29265e-12
-1.04842e-12
-8.94721e-13
-1.47511e-12
-6.00865e-13
-2.52548e-13
-2.51295e-13
-2.51989e-13
-2.52466e-13
-2.51614e-13
-2.55397e-13
7.14226e-06
7.14324e-06
7.14286e-06
7.14303e-06
7.14311e-06
7.14305e-06
3.31661e-08
3.29916e-08
3.30702e-08
3.30885e-08
3.30167e-08
3.3225e-08
-6.2671e-09
-6.27796e-09
-6.27922e-09
-6.25981e-09
-6.22916e-09
-6.31508e-09
0.000141232
0.000141206
0.000141218
0.000141218
0.000141212
0.000141222
9.52978e-06
9.52907e-06
9.52961e-06
9.53024e-06
9.53077e-06
9.52927e-06
4.45109e-07
4.44939e-07
4.45031e-07
4.45133e-07
4.44933e-07
4.45555e-07
0.682283
0.682258
0.68226
0.682234
0.682154
0.682335
0.117749
0.117749
0.117745
0.117726
0.117703
0.11778
2.76696e-05
2.76854e-05
2.76794e-05
2.76786e-05
2.76767e-05
2.76841e-05
7.81664e-06
7.88324e-06
7.92911e-06
7.7823e-06
7.92679e-06
7.63984e-06
9.88064e-06
9.81712e-06
9.81106e-06
9.86225e-06
1.00813e-05
9.93112e-06
0.000645241
0.000672103
0.000679588
0.000648601
0.000762288
0.000558355
0.0421257
0.0420564
0.0420528
0.0420168
0.0426606
0.0414163
0.067199
0.0672919
0.0674106
0.0671294
0.0685814
0.0660764
0.0506048
0.050749
0.050835
0.0505001
0.0510461
0.0501759
0.141656
0.141591
0.141553
0.141783
0.141925
0.141823
0.294166
0.294172
0.294176
0.294191
0.294204
0.294204
0.0387794
0.0389209
0.0390129
0.0384143
0.0374867
0.0400191
0.218584
0.218473
0.218494
0.219368
0.22011
0.218372
0.289899
0.289931
0.289935
0.289861
0.289758
0.290056
2.81893e-20
1.46367e-20
1.51788e-20
1.51788e-20
2.7105e-20
1.51788e-20
0.641643
0.641592
0.641566
0.64195
0.642685
0.641101
0.251907
0.252043
0.252
0.252051
0.251887
0.252066
7.99359e-19
1.06439e-18
1.06685e-18
1.03692e-18
9.7726e-21
1.04951e-18
0.681075
0.681061
0.681056
0.68104
0.681028
0.681126
0.235704
0.235727
0.235685
0.235798
0.236137
0.235242
-2.1304e-10
-2.13852e-10
-2.14213e-10
-2.12461e-10
-2.09825e-10
-2.168e-10
1.77687e-33
1.77168e-33
1.77213e-33
1.77608e-33
1.80184e-33
1.75695e-33
4.54913e-36
4.53519e-36
4.53638e-36
4.54755e-36
4.61363e-36
4.49629e-36
5.09966e-37
5.10755e-37
5.09829e-37
5.12635e-37
5.23195e-37
4.99133e-37
1.06936e-29
1.06641e-29
1.06671e-29
1.06884e-29
1.08444e-29
1.05797e-29
2.82862e-32
2.82025e-32
2.82098e-32
2.82729e-32
2.86855e-32
2.79668e-32
5.74736e-33
5.75628e-33
5.74593e-33
5.77751e-33
5.89655e-33
5.62617e-33
2.774e-26
2.76689e-26
2.76771e-26
2.77246e-26
2.81329e-26
2.74622e-26
7.75751e-29
7.73548e-29
7.73745e-29
7.75279e-29
7.86683e-29
7.6729e-29
2.3129e-29
2.31639e-29
2.31233e-29
2.32492e-29
2.37272e-29
2.2651e-29
3.84281e-23
3.83398e-23
3.8352e-23
3.84054e-23
3.89771e-23
3.80741e-23
1.17919e-25
1.17602e-25
1.17632e-25
1.17831e-25
1.19587e-25
1.16684e-25
3.94247e-26
3.94781e-26
3.94128e-26
3.96204e-26
4.04295e-26
3.8648e-26
2.93634e-20
2.93065e-20
2.93159e-20
2.93448e-20
2.97867e-20
2.9122e-20
1.04254e-22
1.03994e-22
1.04019e-22
1.0416e-22
1.05747e-22
1.03208e-22
2.93922e-23
2.94188e-23
2.93767e-23
2.95168e-23
3.01095e-23
2.88877e-23
1.18919e-17
1.18749e-17
1.18785e-17
1.18841e-17
1.20649e-17
1.18109e-17
5.28721e-20
5.27501e-20
5.27608e-20
5.28112e-20
5.36486e-20
5.23557e-20
9.74131e-21
9.73931e-21
9.73131e-21
9.76501e-21
9.95342e-21
9.64279e-21
2.18035e-17
2.1759e-17
2.17697e-17
2.18675e-17
2.20415e-17
2.15853e-17
1.47082e-17
1.46763e-17
1.4679e-17
1.4687e-17
1.49428e-17
1.45615e-17
1.63173e-18
1.62849e-18
1.62929e-18
1.63024e-18
1.65897e-18
1.63941e-18
1.69393e-17
1.69398e-17
1.69399e-17
1.69405e-17
1.69297e-17
1.69429e-17
3.34301e-15
3.33437e-15
3.33392e-15
3.3338e-15
3.39883e-15
3.29476e-15
6.79079e-17
6.7767e-17
6.78015e-17
6.78072e-17
6.89911e-17
6.7328e-17
1.51651e-17
1.51563e-17
1.51588e-17
1.51811e-17
1.52117e-17
1.51244e-17
1.01674e-12
1.01414e-12
1.01434e-12
1.01457e-12
1.03474e-12
1.00274e-12
9.79517e-15
9.83434e-15
9.83912e-15
9.82394e-15
1.00137e-14
1.03648e-14
1.26445e-11
1.25936e-11
1.25482e-11
1.24304e-11
1.24376e-11
1.25028e-11
3.22344e-10
3.21541e-10
3.21533e-10
3.21382e-10
3.27884e-10
3.16583e-10
2.69777e-12
2.70037e-12
2.7014e-12
2.69896e-12
2.74368e-12
2.83996e-12
6.21732e-09
6.19887e-09
6.20217e-09
6.19937e-09
6.29988e-09
6.17806e-09
7.00686e-09
6.97877e-09
6.96701e-09
6.99097e-09
7.02187e-09
7.01916e-09
1.61651e-11
1.60374e-11
1.60536e-11
1.60735e-11
1.57525e-11
1.6866e-11
1.23552e-07
1.21581e-07
1.205e-07
1.25537e-07
1.38714e-07
1.10152e-07
7.95696e-06
7.89214e-06
7.88471e-06
7.94477e-06
8.14539e-06
8.02038e-06
3.3857e-20
3.33456e-20
3.37003e-20
3.32217e-20
3.26457e-20
3.85929e-20
)
;

boundaryField
{
    seabed_topleft_surface
    {
        type            zeroGradient;
    }
    seabed_topright_surface
    {
        type            zeroGradient;
    }
    breakwater_top_surface
    {
        type            zeroGradient;
    }
    breakwater_left_surface
    {
        type            zeroGradient;
    }
    breakwater_right_surface
    {
        type            zeroGradient;
    }
    water_front_surface
    {
        type            zeroGradient;
    }
    water_back_surface
    {
        type            zeroGradient;
    }
    water_left_surface
    {
        type            zeroGradient;
    }
    water_right_surface
    {
        type            zeroGradient;
    }
    water_top_surface
    {
        type            inletOutlet;
        inletValue      uniform 0;
        value           nonuniform List<scalar> 
180
(
0
0
0
0
0
0
0
0
0
0
0
0
0
0
0
0
0
0
0
0
0
0
0
0
0
0
0
0
0
0
0
0
0
0
0
0
0
0
0
0
0
0
0
0
0
0
0
0
0
0
0
0
0
0
-6.2671e-09
-6.27796e-09
-6.27922e-09
-6.25981e-09
-6.22916e-09
-6.31508e-09
4.45109e-07
4.44939e-07
4.45031e-07
4.45133e-07
4.44933e-07
4.45555e-07
2.76696e-05
2.76854e-05
2.76794e-05
2.76786e-05
2.76767e-05
2.76841e-05
0.000645241
0.000672103
0.000679588
0.000648601
0.000762288
0.000558355
0.0506048
0.050749
0.050835
0.0505001
0.0510461
0.0501759
0.0387794
0.0389209
0.0390129
0.0384143
0.0374867
0.0400191
0
0
0
0
0
0
0
0
0
0
0
0
0
0
0
0
0
0
5.09966e-37
5.10755e-37
5.09829e-37
5.12635e-37
5.23195e-37
4.99133e-37
5.74736e-33
5.75628e-33
5.74593e-33
5.77751e-33
5.89655e-33
5.62617e-33
2.3129e-29
2.31639e-29
2.31233e-29
2.32492e-29
2.37272e-29
2.2651e-29
3.94247e-26
3.94781e-26
3.94128e-26
3.96204e-26
4.04295e-26
3.8648e-26
2.93922e-23
2.94188e-23
2.93767e-23
2.95168e-23
3.01095e-23
2.88877e-23
9.74131e-21
9.73931e-21
9.73131e-21
9.76501e-21
9.95342e-21
9.64279e-21
1.63173e-18
1.62849e-18
1.62929e-18
1.63024e-18
1.65897e-18
1.63941e-18
6.79079e-17
6.7767e-17
6.78015e-17
6.78072e-17
6.89911e-17
6.7328e-17
9.79517e-15
9.83434e-15
9.83912e-15
9.82394e-15
1.00137e-14
1.03648e-14
2.69777e-12
2.70037e-12
2.7014e-12
2.69896e-12
2.74368e-12
2.83996e-12
1.61651e-11
1.60374e-11
1.60536e-11
1.60735e-11
1.57525e-11
1.6866e-11
0
0
0
0
0
0
)
;
    }
}


// ************************************************************************* //
