/*--------------------------------*- C++ -*----------------------------------*\
| =========                 |                                                 |
| \\      /  F ield         | OpenFOAM: The Open Source CFD Toolbox           |
|  \\    /   O peration     | Version:  v1612+                                |
|   \\  /    A nd           | Web:      www.OpenFOAM.com                      |
|    \\/     M anipulation  |                                                 |
\*---------------------------------------------------------------------------*/
FoamFile
{
    version     2.0;
    format      ascii;
    class       volScalarField;
    location    "3.35";
    object      p_rgh;
}
// * * * * * * * * * * * * * * * * * * * * * * * * * * * * * * * * * * * * * //

dimensions      [1 -1 -2 0 0 0 0];

internalField   nonuniform List<scalar> 
1116
(
8671.1
8671.07
8671.07
8671.06
8671.04
8671.07
8458.65
8458.6
8458.61
8458.6
8458.57
8458.62
8387.16
8387.11
8387.12
8387.11
8387.08
8387.12
8748.04
8747.99
8748
8747.99
8747.97
8748.01
9341.64
9341.58
9341.6
9341.6
9341.57
9341.62
10063
10062.9
10062.9
10062.9
10062.9
10062.9
11074.2
11074.1
11074.1
11074.1
11074.1
11074.1
12810.4
12810.4
12810.4
12810.4
12810.3
12810.4
15571.9
15571.9
15571.9
15571.8
15571.8
15571.9
19463.4
19463.3
19463.3
19463.3
19463.3
19463.3
23316.5
23316.5
23316.5
23316.5
23316.5
23316.6
25421.7
25421.6
25421.7
25421.7
25421.7
25421.7
1952.57
1952.55
1952.56
1952.53
1952.51
1952.58
1004.61
1004.58
1004.58
1004.57
1004.57
1004.61
791.193
791.179
791.172
791.173
791.177
791.185
996.195
996.181
996.173
996.175
996.179
996.187
1420.14
1420.11
1420.11
1420.11
1420.12
1420.13
2019.41
2019.37
2019.36
2019.37
2019.38
2019.4
2870.77
2870.71
2870.7
2870.71
2870.73
2870.75
3964.05
3963.91
3963.92
3963.92
3963.94
3964.02
7492.02
7491.66
7491.71
7491.7
7491.66
7491.94
17536.7
17536.3
17536.4
17536.3
17536.2
17536.6
25536
25535.9
25535.9
25535.9
25535.9
25535.9
28252.9
28252.9
28252.9
28252.9
28252.9
28252.9
5.91591
5.91625
5.91626
5.91633
5.91644
5.91615
7.15535
7.15561
7.15563
7.15568
7.15575
7.15556
8.06692
8.06715
8.06716
8.06712
8.0671
8.06697
10.0592
10.0594
10.0594
10.0594
10.0593
10.0592
11.8161
11.8162
11.8163
11.8162
11.8162
11.8161
14.082
14.0821
14.0824
14.0825
14.0825
14.0826
21.2561
21.2562
21.2561
21.2563
21.2566
21.2567
48.5801
48.5781
48.5765
48.5754
48.575
48.5751
158.908
158.896
158.895
158.892
158.888
158.897
2269.77
2269.04
2269.3
2269.28
2269.12
2269.46
23042.1
23040.8
23041.3
23041.2
23040.8
23041.8
32346
32346.2
32346.1
32346.1
32346.2
32346.1
6.01099
6.01109
6.01121
6.01135
6.01146
6.01144
6.92633
6.9265
6.92657
6.92668
6.92674
6.92663
7.77658
7.77675
7.77678
7.7768
7.7768
7.7766
9.94803
9.94815
9.94815
9.94814
9.94815
9.94783
12.3093
12.3094
12.3095
12.3095
12.3096
12.3092
13.0643
13.0647
13.0649
13.0651
13.0652
13.0649
11.9707
11.9713
11.9713
11.9713
11.9719
11.9715
8.92484
8.92575
8.92584
8.92573
8.92595
8.92538
0.392445
0.391131
0.390458
0.389981
0.389629
0.39099
71.1555
71.143
71.1423
71.142
71.1399
71.1391
10053
10049.7
10050.6
10050.8
10050.2
10051.7
36367.8
36367.9
36367.8
36367.8
36367.8
36367.8
-0.426503
-0.426517
-0.426523
-0.426522
-0.426518
-0.426513
-0.448184
-0.448191
-0.448186
-0.448175
-0.448158
-0.448139
-0.492179
-0.492168
-0.492147
-0.492121
-0.492093
-0.492069
-0.559571
-0.55953
-0.559496
-0.559469
-0.559449
-0.559436
-0.651266
-0.651211
-0.6512
-0.651216
-0.651249
-0.651281
-0.76669
-0.766676
-0.766755
-0.766885
-0.767039
-0.767174
-0.902735
-0.902817
-0.903055
-0.903354
-0.903678
-0.903946
-1.05507
-1.05521
-1.05553
-1.05596
-1.05641
-1.0568
-1.22799
-1.22798
-1.22813
-1.22847
-1.22901
-1.22961
-1.43296
-1.43133
-1.43075
-1.4306
-1.43175
-1.435
-1.62304
-1.62251
-1.62171
-1.62092
-1.6204
-1.62024
-1.88723
-1.88699
-1.88665
-1.88631
-1.88598
-1.88571
-0.40573
-0.405744
-0.405748
-0.405746
-0.40574
-0.405728
-0.428434
-0.42844
-0.428435
-0.428425
-0.428409
-0.428387
-0.476289
-0.476281
-0.476268
-0.476254
-0.476238
-0.476221
-0.555639
-0.555628
-0.555632
-0.555644
-0.555658
-0.555666
-0.678979
-0.679009
-0.679081
-0.679162
-0.679241
-0.679296
-0.867746
-0.867905
-0.868073
-0.868246
-0.868399
-0.868508
-1.14849
-1.14869
-1.14891
-1.14909
-1.14922
-1.14931
-1.53283
-1.53267
-1.53275
-1.53262
-1.53235
-1.53228
-1.97751
-1.97718
-1.97619
-1.97484
-1.97347
-1.97244
-2.45905
-2.4584
-2.45474
-2.44992
-2.44489
-2.44009
-2.60702
-2.60557
-2.60316
-2.60052
-2.59795
-2.59697
-3.06698
-3.06697
-3.06679
-3.06651
-3.06549
-3.06697
-0.363753
-0.363769
-0.363774
-0.363773
-0.363766
-0.363757
-0.384561
-0.38457
-0.384568
-0.384561
-0.384549
-0.384533
-0.426436
-0.426433
-0.426428
-0.426423
-0.426418
-0.426411
-0.488133
-0.488132
-0.48815
-0.488176
-0.488205
-0.488225
-0.563101
-0.563143
-0.563218
-0.563305
-0.563384
-0.563438
-0.63039
-0.630495
-0.630631
-0.630765
-0.630872
-0.63094
-0.654956
-0.655103
-0.655226
-0.655316
-0.655366
-0.655384
-0.606794
-0.607268
-0.60721
-0.607099
-0.606962
-0.606687
-0.555081
-0.554929
-0.55463
-0.554306
-0.553888
-0.553485
-0.71287
-0.713881
-0.715903
-0.718498
-0.720384
-0.720692
-0.574976
-0.574846
-0.574942
-0.575249
-0.575708
-0.575885
-1.57348
-1.57331
-1.57377
-1.57507
-1.57686
-1.57457
-0.30367
-0.303684
-0.30369
-0.30369
-0.303684
-0.303674
-0.322643
-0.322652
-0.322653
-0.32265
-0.322642
-0.322628
-0.363202
-0.363206
-0.36321
-0.363215
-0.363219
-0.363216
-0.433371
-0.433384
-0.433412
-0.433447
-0.433479
-0.433498
-0.552699
-0.552741
-0.552799
-0.552855
-0.552895
-0.552917
-0.764395
-0.764451
-0.764485
-0.764485
-0.764453
-0.764413
-1.14063
-1.14072
-1.14069
-1.14055
-1.14035
-1.14017
-1.75164
-1.75257
-1.75286
-1.75274
-1.75251
-1.75232
-2.66526
-2.66396
-2.66281
-2.66188
-2.66105
-2.6606
-4.03373
-4.03386
-4.03391
-4.03407
-4.03364
-4.03272
-4.32235
-4.32337
-4.32199
-4.31822
-4.31089
-4.32208
-6.08262
-6.08494
-6.08414
-6.07772
-6.06289
-6.08339
3.48805
3.48814
3.48823
3.48831
3.48836
3.48838
1.5567
1.55671
1.55676
1.55678
1.55678
1.55679
-1.2696
-1.2697
-1.26973
-1.26975
-1.26977
-1.26971
4.01576
4.01591
4.016
4.01605
4.01607
4.01604
1.6568
1.65677
1.65683
1.65684
1.6568
1.65689
-1.32644
-1.32655
-1.32657
-1.32658
-1.32659
-1.3265
4.3472
4.34733
4.34737
4.34737
4.34734
4.34723
2.28531
2.28532
2.28533
2.28531
2.28525
2.28523
-1.29522
-1.2953
-1.29529
-1.29527
-1.29525
-1.29514
5.07669
5.07675
5.07671
5.07667
5.07663
5.07651
2.82165
2.82162
2.82159
2.82154
2.82146
2.82141
-1.39236
-1.3924
-1.39235
-1.39232
-1.3923
-1.39221
5.98317
5.98328
5.98325
5.98325
5.9833
5.9832
3.53012
3.53002
3.53003
3.53005
3.53009
3.53027
-1.31
-1.31006
-1.31004
-1.31004
-1.31007
-1.31003
7.15287
7.15322
7.15333
7.15341
7.15344
7.15317
3.99807
3.99815
3.99822
3.99825
3.99826
3.99833
-1.06462
-1.06476
-1.0648
-1.06483
-1.06485
-1.06479
9.33124
9.33172
9.33181
9.33177
9.33181
9.33123
4.84895
4.84916
4.84917
4.84907
4.84886
4.84871
-0.638664
-0.638843
-0.638901
-0.638904
-0.638849
-0.638706
5.06157
5.06181
5.06181
5.06171
5.06166
5.06163
2.88594
2.88588
2.88561
2.88523
2.8849
2.88521
0.0328413
0.0327456
0.0324985
0.0322081
0.0320318
0.0322196
9.48836
9.4885
9.48893
9.489
9.48842
9.48598
14.3683
14.3678
14.3682
14.3683
14.3684
14.3686
-0.113439
-0.113936
-0.113215
-0.112405
-0.112058
-0.112115
0.469393
0.465726
0.466177
0.46656
0.466493
0.465545
18.7915
18.7798
18.7801
18.7795
18.7757
18.7887
9.8129
9.81088
9.8113
9.81137
9.80916
9.81304
-28.7842
-28.774
-28.7781
-28.7837
-28.7921
-28.7732
28.1184
28.1165
28.1156
28.1163
28.1181
28.1074
0.0356237
0.0354443
0.0357054
0.0362705
0.0365285
0.0366994
30327.1
30325.9
30325.9
30324.8
30321
30329.5
6682.18
6682.33
6682.07
6681.02
6679.88
6683.85
4.17225
4.16818
4.17001
4.17442
4.17702
4.16876
-5.34643
-5.35175
-5.34202
-5.32267
-5.31297
-5.29608
-63.7543
-63.9058
-64.011
-63.4425
-64.1551
-62.9724
-20.5575
-19.4391
-19.3546
-19.9362
-15.149
-23.3983
1891.72
1888.6
1888.49
1886.82
1915.25
1860.35
3542.25
3546.97
3553.16
3538.94
3617.16
3482.25
3074.7
3080.91
3085.25
3068.26
3091.03
3057.25
6359.76
6356.98
6355.1
6364.04
6368.97
6367.65
14848.7
14848.9
14849.1
14854.3
14874.4
14823.4
2330.03
2338.79
2344.57
2307.07
2248.8
2407.95
9602.02
9597.08
9598.08
9635.6
9668.03
9592.19
16977.9
16979.8
16980.1
16975.5
16969.2
16987.3
-37.1723
-37.1949
-37.1968
-37.1537
-37.1458
-37.1976
28570.8
28568.6
28567.5
28584.8
28616.7
28547.8
14756.2
14763.9
14761.4
14764.7
14755.6
14764.8
-7.76667
-7.77306
-7.7745
-7.76042
-7.73841
-7.80238
29956.2
29955.4
29954.9
29954.5
29952.3
29958.7
13864.8
13866.1
13863.7
13870.3
13890.1
13837.8
6.14625
6.14902
6.14726
6.14381
6.14325
6.14295
-0.227184
-0.227197
-0.2272
-0.227198
-0.227191
-0.22718
-0.140765
-0.140771
-0.140771
-0.140767
-0.14076
-0.14075
-0.0460246
-0.0460258
-0.0460253
-0.0460235
-0.0460201
-0.0460142
-0.240301
-0.240309
-0.240308
-0.240303
-0.240293
-0.240277
-0.149172
-0.149174
-0.14917
-0.149162
-0.149152
-0.149137
-0.0471811
-0.0471797
-0.0471765
-0.0471722
-0.0471667
-0.047159
-0.266336
-0.266337
-0.266336
-0.266333
-0.266327
-0.266317
-0.167552
-0.167548
-0.167541
-0.167533
-0.167524
-0.167515
-0.0474922
-0.0474877
-0.0474831
-0.0474787
-0.0474748
-0.0474722
-0.302747
-0.302746
-0.302752
-0.302759
-0.302764
-0.302765
-0.20078
-0.200775
-0.200772
-0.200771
-0.20077
-0.20077
-0.0415799
-0.0415777
-0.0415759
-0.0415756
-0.0415765
-0.04158
-0.339879
-0.339879
-0.339885
-0.339889
-0.339886
-0.339881
-0.263359
-0.263355
-0.26335
-0.263343
-0.263336
-0.26333
-0.0134154
-0.013417
-0.0134165
-0.0134193
-0.0134177
-0.013419
-0.346539
-0.346517
-0.34649
-0.34646
-0.346412
-0.346395
-0.397002
-0.39698
-0.396942
-0.396895
-0.396846
-0.396813
0.0534453
0.0534451
0.0534625
0.0534475
0.0534735
0.0534529
-0.259616
-0.25957
-0.259474
-0.259403
-0.259322
-0.259296
-0.725678
-0.725608
-0.725472
-0.725315
-0.725159
-0.725059
0.302856
0.302836
0.302877
0.302842
0.302926
0.302955
-0.00899501
-0.00896627
-0.00887994
-0.0087738
-0.00861928
-0.00859948
-1.32947
-1.32934
-1.32908
-1.32874
-1.3285
-1.32822
0.527685
0.527465
0.527744
0.527076
0.527677
0.527227
0.633782
0.634088
0.634542
0.634934
0.635501
0.635906
-1.9118
-1.91176
-1.91096
-1.90997
-1.90847
-1.90634
1.79952
1.79903
1.79985
1.79953
1.80056
1.80284
0.210521
0.211238
0.21199
0.212196
0.213073
0.213395
-6.6744
-6.67401
-6.67343
-6.6724
-6.6742
-6.67353
2.00059
1.99747
2.00187
1.99406
2.00598
1.99987
5.73674
5.73721
5.73775
5.73865
5.73935
5.74146
-4.76535
-4.76666
-4.76014
-4.74796
-4.74997
-4.71031
5.41055
5.39709
5.40366
5.39514
5.41708
5.442
-8.09175
-8.07303
-8.07162
-8.0868
-8.10627
-8.106
-28.6887
-28.694
-28.6831
-28.6829
-28.7214
-28.6875
0.62241
0.673422
0.729798
0.594404
0.907702
0.455395
)
;

boundaryField
{
    seabed_topleft_surface
    {
        type            fixedFluxPressure;
        gradient        uniform 0;
        value           nonuniform List<scalar> 
72
(
8671.1
8671.07
8671.07
8671.06
8671.04
8671.07
8458.65
8458.6
8458.61
8458.6
8458.57
8458.62
8387.16
8387.11
8387.12
8387.11
8387.08
8387.12
8748.04
8747.99
8748
8747.99
8747.97
8748.01
9341.64
9341.58
9341.6
9341.6
9341.57
9341.62
10063
10062.9
10062.9
10062.9
10062.9
10062.9
11074.2
11074.1
11074.1
11074.1
11074.1
11074.1
12810.4
12810.4
12810.4
12810.4
12810.3
12810.4
15571.9
15571.9
15571.9
15571.8
15571.8
15571.9
19463.4
19463.3
19463.3
19463.3
19463.3
19463.3
23316.5
23316.5
23316.5
23316.5
23316.5
23316.6
25421.7
25421.6
25421.7
25421.7
25421.7
25421.7
)
;
    }
    seabed_topright_surface
    {
        type            fixedFluxPressure;
        gradient        uniform 0;
        value           nonuniform List<scalar> 
72
(
-0.426503
-0.426517
-0.426523
-0.426522
-0.426518
-0.426513
-0.448184
-0.448191
-0.448186
-0.448175
-0.448158
-0.448139
-0.492179
-0.492168
-0.492147
-0.492121
-0.492093
-0.492069
-0.559571
-0.55953
-0.559496
-0.559469
-0.559449
-0.559436
-0.651266
-0.651211
-0.6512
-0.651216
-0.651249
-0.651281
-0.76669
-0.766676
-0.766755
-0.766885
-0.767039
-0.767174
-0.902735
-0.902817
-0.903055
-0.903354
-0.903678
-0.903946
-1.05507
-1.05521
-1.05553
-1.05596
-1.05641
-1.0568
-1.22799
-1.22798
-1.22813
-1.22847
-1.22901
-1.22961
-1.43296
-1.43133
-1.43075
-1.4306
-1.43175
-1.435
-1.62304
-1.62251
-1.62171
-1.62092
-1.6204
-1.62024
-1.88723
-1.88699
-1.88665
-1.88631
-1.88598
-1.88571
)
;
    }
    breakwater_top_surface
    {
        type            fixedFluxPressure;
        gradient        uniform 0;
        value           nonuniform List<scalar> 
36
(
-5.34643
-5.35175
-5.34202
-5.32267
-5.31297
-5.29608
1891.72
1888.6
1888.49
1886.82
1915.25
1860.35
6359.76
6356.98
6355.1
6364.04
6368.97
6367.65
9602.02
9597.08
9598.08
9635.6
9668.03
9592.19
28570.8
28568.6
28567.5
28584.8
28616.7
28547.8
29956.2
29955.4
29954.9
29954.5
29952.3
29958.7
)
;
    }
    breakwater_left_surface
    {
        type            fixedFluxPressure;
        gradient        uniform 0;
        value           nonuniform List<scalar> 
24
(
25421.7
25421.6
25421.7
25421.7
25421.7
25421.7
28252.9
28252.9
28252.9
28252.9
28252.9
28252.9
32346
32346.2
32346.1
32346.1
32346.2
32346.1
36367.8
36367.9
36367.8
36367.8
36367.8
36367.8
)
;
    }
    breakwater_right_surface
    {
        type            fixedFluxPressure;
        gradient        uniform 0;
        value           nonuniform List<scalar> 
24
(
-1.88723
-1.88699
-1.88665
-1.88631
-1.88598
-1.88571
-3.06698
-3.06697
-3.06679
-3.06651
-3.06549
-3.06697
-1.57348
-1.57331
-1.57377
-1.57507
-1.57686
-1.57457
-6.08262
-6.08494
-6.08414
-6.07772
-6.06289
-6.08339
)
;
    }
    water_front_surface
    {
        type            fixedFluxPressure;
        gradient        uniform 0;
        value           nonuniform List<scalar> 
186
(
8671.1
8458.65
8387.16
8748.04
9341.64
10063
11074.2
12810.4
15571.9
19463.4
23316.5
25421.7
1952.57
1004.61
791.193
996.195
1420.14
2019.41
2870.77
3964.05
7492.02
17536.7
25536
28252.9
5.91591
7.15535
8.06692
10.0592
11.8161
14.082
21.2561
48.5801
158.908
2269.77
23042.1
32346
6.01099
6.92633
7.77658
9.94803
12.3093
13.0643
11.9707
8.92484
0.392445
71.1555
10053
36367.8
-0.426503
-0.448184
-0.492179
-0.559571
-0.651266
-0.76669
-0.902735
-1.05507
-1.22799
-1.43296
-1.62304
-1.88723
-0.40573
-0.428434
-0.476289
-0.555639
-0.678979
-0.867746
-1.14849
-1.53283
-1.97751
-2.45905
-2.60702
-3.06698
-0.363753
-0.384561
-0.426436
-0.488133
-0.563101
-0.63039
-0.654956
-0.606794
-0.555081
-0.71287
-0.574976
-1.57348
-0.30367
-0.322643
-0.363202
-0.433371
-0.552699
-0.764395
-1.14063
-1.75164
-2.66526
-4.03373
-4.32235
-6.08262
3.48805
1.5567
-1.2696
4.01576
1.6568
-1.32644
4.3472
2.28531
-1.29522
5.07669
2.82165
-1.39236
5.98317
3.53012
-1.31
7.15287
3.99807
-1.06462
9.33124
4.84895
-0.638664
5.06157
2.88594
0.0328413
9.48836
14.3683
-0.113439
0.469393
18.7915
9.8129
-28.7842
28.1184
0.0356237
30327.1
6682.18
4.17225
-5.34643
-63.7543
-20.5575
1891.72
3542.25
3074.7
6359.76
14848.7
2330.03
9602.02
16977.9
-37.1723
28570.8
14756.2
-7.76667
29956.2
13864.8
6.14625
-0.227184
-0.140765
-0.0460246
-0.240301
-0.149172
-0.0471811
-0.266336
-0.167552
-0.0474922
-0.302747
-0.20078
-0.0415799
-0.339879
-0.263359
-0.0134154
-0.346539
-0.397002
0.0534453
-0.259616
-0.725678
0.302856
-0.00899501
-1.32947
0.527685
0.633782
-1.9118
1.79952
0.210521
-6.6744
2.00059
5.73674
-4.76535
5.41055
-8.09175
-28.6887
0.62241
)
;
    }
    water_back_surface
    {
        type            fixedFluxPressure;
        gradient        uniform 0;
        value           nonuniform List<scalar> 
186
(
8671.07
8458.62
8387.12
8748.01
9341.62
10062.9
11074.1
12810.4
15571.9
19463.3
23316.6
25421.7
1952.58
1004.61
791.185
996.187
1420.13
2019.4
2870.75
3964.02
7491.94
17536.6
25535.9
28252.9
5.91615
7.15556
8.06697
10.0592
11.8161
14.0826
21.2567
48.5751
158.897
2269.46
23041.8
32346.1
6.01144
6.92663
7.7766
9.94783
12.3092
13.0649
11.9715
8.92538
0.39099
71.1391
10051.7
36367.8
-0.426513
-0.448139
-0.492069
-0.559436
-0.651281
-0.767174
-0.903946
-1.0568
-1.22961
-1.435
-1.62024
-1.88571
-0.405728
-0.428387
-0.476221
-0.555666
-0.679296
-0.868508
-1.14931
-1.53228
-1.97244
-2.44009
-2.59697
-3.06697
-0.363757
-0.384533
-0.426411
-0.488225
-0.563438
-0.63094
-0.655384
-0.606687
-0.553485
-0.720692
-0.575885
-1.57457
-0.303674
-0.322628
-0.363216
-0.433498
-0.552917
-0.764413
-1.14017
-1.75232
-2.6606
-4.03272
-4.32208
-6.08339
3.48838
1.55679
-1.26971
4.01604
1.65689
-1.3265
4.34723
2.28523
-1.29514
5.07651
2.82141
-1.39221
5.9832
3.53027
-1.31003
7.15317
3.99833
-1.06479
9.33123
4.84871
-0.638706
5.06163
2.88521
0.0322196
9.48598
14.3686
-0.112115
0.465545
18.7887
9.81304
-28.7732
28.1074
0.0366994
30329.5
6683.85
4.16876
-5.29608
-62.9724
-23.3983
1860.35
3482.25
3057.25
6367.65
14823.4
2407.95
9592.19
16987.3
-37.1976
28547.8
14764.8
-7.80238
29958.7
13837.8
6.14295
-0.22718
-0.14075
-0.0460142
-0.240277
-0.149137
-0.047159
-0.266317
-0.167515
-0.0474722
-0.302765
-0.20077
-0.04158
-0.339881
-0.26333
-0.013419
-0.346395
-0.396813
0.0534529
-0.259296
-0.725059
0.302955
-0.00859948
-1.32822
0.527227
0.635906
-1.90634
1.80284
0.213395
-6.67353
1.99987
5.74146
-4.71031
5.442
-8.106
-28.6875
0.455395
)
;
    }
    water_left_surface
    {
        type            fixedFluxPressure;
        gradient        uniform 0;
        value           nonuniform List<scalar> 
42
(
8671.1
8671.07
8671.07
8671.06
8671.04
8671.07
1952.57
1952.55
1952.56
1952.53
1952.51
1952.58
5.91591
5.91625
5.91626
5.91633
5.91644
5.91615
6.01099
6.01109
6.01121
6.01135
6.01146
6.01144
3.48805
3.48814
3.48823
3.48831
3.48836
3.48838
1.5567
1.55671
1.55676
1.55678
1.55678
1.55679
-1.2696
-1.2697
-1.26973
-1.26975
-1.26977
-1.26971
)
;
    }
    water_right_surface
    {
        type            fixedFluxPressure;
        gradient        uniform 0;
        value           nonuniform List<scalar> 
42
(
-0.426503
-0.426517
-0.426523
-0.426522
-0.426518
-0.426513
-0.40573
-0.405744
-0.405748
-0.405746
-0.40574
-0.405728
-0.363753
-0.363769
-0.363774
-0.363773
-0.363766
-0.363757
-0.30367
-0.303684
-0.30369
-0.30369
-0.303684
-0.303674
-0.227184
-0.227197
-0.2272
-0.227198
-0.227191
-0.22718
-0.140765
-0.140771
-0.140771
-0.140767
-0.14076
-0.14075
-0.0460246
-0.0460258
-0.0460253
-0.0460235
-0.0460201
-0.0460142
)
;
    }
    water_top_surface
    {
        type            totalPressure;
        rho             rho;
        psi             none;
        gamma           1;
        p0              uniform 0;
        value           nonuniform List<scalar> 
180
(
-2.35458
-2.35497
-2.35499
-2.35504
-2.35512
-2.35481
-2.50355
-2.50399
-2.504
-2.50402
-2.50408
-2.5037
-2.29179
-2.29216
-2.29212
-2.29211
-2.29211
-2.29172
-2.55195
-2.55224
-2.55214
-2.55209
-2.5521
-2.55174
-2.61337
-2.61369
-2.61363
-2.61363
-2.61371
-2.61344
-2.9263
-2.92685
-2.92691
-2.92695
-2.92701
-2.92657
-3.23863
-3.23926
-3.23929
-3.23924
-3.23918
-3.23848
-3.30585
-3.30621
-3.30619
-3.30615
-3.30626
-3.30565
-3.00437
-3.00468
-3.00455
-3.00445
-3.00456
-3.00355
0
0
0
0
0
0
0
0
0
0
0
0
0
0
0
0
0
0
0
0
0
0
0
0
0
0
0
0
0
0
0
0
0
0
0
0
-43.3345
-43.3224
-43.3186
-43.4302
-43.3938
-43.3186
-2.85727
-2.86428
-2.86457
-2.8243
-2.78912
-2.90043
-0.154876
-0.151972
-0.151744
-0.155633
-0.161084
-0.146963
0
0
0
0
0
0
0
0
0
0
0
0
0
0
0
0
0
0
0
0
0
0
0
0
0
0
0
0
0
0
0
0
0
0
0
0
0
0
0
0
0
0
0
0
0
0
0
0
0
0
0
0
0
0
0
0
0
0
0
0
0
0
0
0
0
0
-2.30121
-2.29492
-2.28878
-2.30251
-2.29105
-2.29872
)
;
    }
}


// ************************************************************************* //
