/*--------------------------------*- C++ -*----------------------------------*\
| =========                 |                                                 |
| \\      /  F ield         | OpenFOAM: The Open Source CFD Toolbox           |
|  \\    /   O peration     | Version:  v1612+                                |
|   \\  /    A nd           | Web:      www.OpenFOAM.com                      |
|    \\/     M anipulation  |                                                 |
\*---------------------------------------------------------------------------*/
FoamFile
{
    version     2.0;
    format      ascii;
    class       surfaceScalarField;
    location    "3.35";
    object      phi;
}
// * * * * * * * * * * * * * * * * * * * * * * * * * * * * * * * * * * * * * //

dimensions      [0 3 -1 0 0 0 0];

internalField   nonuniform List<scalar> 
2916
(
1.21646e-06
0.397658
-0.39766
7.88183e-06
0.397659
-0.397665
7.66531e-06
0.39766
-0.39766
2.96547e-06
0.397663
-0.397658
1.6417e-06
0.397663
-0.397662
0.397655
-0.397654
6.43758e-06
0.769744
-0.372092
7.69573e-06
0.769752
-0.372095
1.04389e-05
0.769752
-0.372095
3.07606e-06
0.769754
-0.372084
-7.93896e-06
0.769756
-0.372082
0.769744
-0.372096
9.63293e-06
0.991088
-0.221354
7.53752e-06
0.991103
-0.221349
9.06216e-06
0.991101
-0.221351
3.22838e-06
0.991102
-0.221343
-8.31671e-06
0.991106
-0.221338
0.991089
-0.221354
9.93094e-06
1.146
-0.154924
7.11972e-06
1.14602
-0.154917
7.35818e-06
1.14602
-0.154919
3.31516e-06
1.14602
-0.154914
-5.99192e-06
1.14602
-0.154909
1.146
-0.154921
8.48275e-06
1.2649
-0.118902
6.10219e-06
1.26492
-0.118894
5.23194e-06
1.26492
-0.118896
2.1399e-06
1.26492
-0.118893
-4.36541e-06
1.26492
-0.118889
1.2649
-0.118898
6.68714e-06
1.34906
-0.0841672
5.01451e-06
1.34908
-0.0841616
3.0865e-06
1.34908
-0.0841617
1.10836e-07
1.34908
-0.0841598
-3.37775e-06
1.34908
-0.0841579
1.34906
-0.0841628
3.7165e-06
1.39157
-0.0425167
3.24338e-06
1.3916
-0.0425135
6.29654e-07
1.39159
-0.0425123
-1.86785e-06
1.39159
-0.042511
-2.09905e-06
1.39159
-0.0425115
1.39157
-0.0425123
1.04693e-06
1.30202
0.0895482
2.59331e-06
1.30205
0.0895483
-9.38099e-07
1.30205
0.0895523
-4.02585e-06
1.30204
0.0895533
-2.27878e-06
1.30204
0.0895476
1.30201
0.089554
1.66331e-06
0.935472
0.366546
2.93545e-06
0.935502
0.366544
-1.97881e-06
0.935502
0.366549
-6.2457e-06
0.935497
0.366549
-7.53677e-06
0.935505
0.366539
0.935452
0.366551
2.93074e-06
0.323283
0.612186
1.55719e-06
0.323315
0.612188
-4.10737e-06
0.323317
0.61219
-8.15305e-06
0.323312
0.612189
-1.25598e-05
0.323328
0.612181
0.32325
0.612189
1.29861e-05
-0.158121
0.481391
1.23366e-06
-0.158089
0.481416
-3.99909e-06
-0.158087
0.481409
-7.38851e-06
-0.158089
0.481405
-1.77662e-05
-0.158068
0.481406
-0.158147
0.481379
-2.35812e-05
-0.158097
-2.38013e-05
-0.158089
-1.76588e-05
-0.158093
-7.32838e-06
-0.1581
2.07218e-05
-0.158096
-0.158127
-1.07627e-05
0.65508
-1.05273
-3.73196e-06
0.655073
-1.05275
1.482e-05
0.655083
-1.05276
2.56365e-05
0.655072
-1.05274
1.55264e-05
0.655064
-1.05272
0.655103
-1.05274
-8.58487e-06
1.17414
-0.891148
-5.05549e-06
1.17414
-0.891167
3.10667e-05
1.17414
-0.89119
3.801e-05
1.17413
-0.891148
2.61424e-06
1.17413
-0.891113
1.17417
-0.89116
1.14939e-05
1.50079
-0.548011
3.85571e-06
1.50081
-0.54801
3.19978e-05
1.50079
-0.54803
3.3069e-05
1.50078
-0.547999
-1.52232e-05
1.5008
-0.547962
1.50081
-0.548005
2.6987e-05
1.71493
-0.369095
9.72917e-06
1.71499
-0.369076
3.08467e-05
1.71495
-0.369099
2.94602e-05
1.71495
-0.369074
-2.34781e-05
1.71498
-0.369032
1.71494
-0.369081
3.94092e-05
1.89554
-0.299549
1.17861e-05
1.89563
-0.299506
2.59138e-05
1.89558
-0.299534
2.64232e-05
1.89557
-0.29952
-2.55135e-05
1.89561
-0.299471
1.89555
-0.299528
4.78299e-05
2.08181
-0.27048
1.18273e-05
2.08192
-0.270414
2.04724e-05
2.08186
-0.270448
2.32989e-05
2.08185
-0.270441
-2.51704e-05
2.0819
-0.270391
2.08181
-0.270454
5.07593e-05
2.29549
-0.256254
8.7118e-06
2.29562
-0.256178
1.47784e-05
2.29556
-0.256223
1.87942e-05
2.29556
-0.256222
-2.44254e-05
2.2956
-0.256174
2.29551
-0.256237
5.55191e-05
2.27075
0.114235
1.20929e-05
2.27092
0.114297
1.48423e-05
2.27085
0.114263
1.55225e-05
2.27085
0.114262
-2.41597e-05
2.27089
0.114294
2.27079
0.114248
7.64805e-05
1.83026
0.806961
2.17079e-05
1.83044
0.807075
1.90458e-05
1.83037
0.807032
1.45364e-05
1.83037
0.807034
-3.31515e-05
1.83041
0.807066
1.83031
0.807004
5.57423e-05
1.21998
1.22241
2.66057e-05
1.22017
1.22249
1.34652e-05
1.2201
1.22247
9.69812e-07
1.2201
1.22246
-3.08711e-05
1.22015
1.22247
1.22003
1.22244
4.39973e-05
0.564641
1.13668
1.53728e-05
0.564816
1.1368
5.27558e-06
0.564772
1.13675
-5.2692e-06
0.564771
1.13675
-2.67654e-05
0.564817
1.13676
0.56468
1.1367
-6.73101e-05
0.406611
-2.88434e-05
0.406688
-1.10846e-05
0.406661
3.28768e-06
0.406657
4.44461e-05
0.40668
0.406598
-0.000121045
0.378359
-1.43097
-6.6428e-05
0.37833
-1.43113
-2.31734e-05
0.378326
-1.43113
4.27873e-05
0.378312
-1.43112
0.000124755
0.378315
-1.43111
0.378363
-1.43098
-0.000115822
0.767257
-1.27993
-4.98672e-05
0.767194
-1.2801
3.07127e-07
0.76718
-1.28009
6.26232e-05
0.767169
-1.28007
0.000142513
0.767186
-1.28007
0.767261
-1.27992
-9.838e-05
1.29972
-1.08037
-3.34007e-05
1.29965
-1.08053
1.07214e-05
1.29963
-1.08053
5.78434e-05
1.29963
-1.0805
0.000125703
1.29965
-1.0805
1.29973
-1.08035
-0.00010373
2.09118
-1.16045
-3.62496e-05
2.09112
-1.16061
1.04011e-05
2.0911
-1.16061
6.00145e-05
2.09109
-1.16059
0.000138485
2.09112
-1.16058
2.0912
-1.16041
-0.00010838
3.1069
-1.31516
-5.15924e-05
3.10683
-1.31528
-4.07607e-06
3.1068
-1.31528
4.96328e-05
3.10679
-1.31527
0.000125447
3.10682
-1.31525
3.10691
-1.31511
-0.000143016
4.37337
-1.53682
-0.000126995
4.37329
-1.53689
-6.40439e-05
4.3732
-1.53691
1.44247e-05
4.37318
-1.53691
8.44407e-05
4.37323
-1.53686
4.37331
-1.53678
-0.000228619
5.5145
-1.39715
-0.000129768
5.51424
-1.39723
-0.000112597
5.51428
-1.39732
-7.08918e-05
5.51427
-1.39735
0.000116647
5.51418
-1.39731
5.51443
-1.39723
-5.10056e-05
4.89089
0.737896
-4.01965e-05
4.89076
0.737772
-5.38985e-05
4.89081
0.737749
-5.20555e-05
4.8908
0.737734
6.74269e-05
4.89068
0.737673
4.89082
0.737917
0.000214041
2.58519
3.11245
6.25296e-05
2.58535
3.11263
4.78588e-05
2.58527
3.11258
3.14429e-05
2.58527
3.11257
-0.000107684
2.58531
3.11257
2.5852
3.11252
0.000128072
1.12639
2.68108
5.56552e-05
1.12664
2.68127
4.3661e-05
1.12653
2.68122
1.62553e-05
1.12654
2.68123
-7.52932e-05
1.1266
2.68127
1.12646
2.6811
0.000192935
0.451296
1.81159
5.34855e-05
0.451607
1.81197
1.60963e-05
0.451502
1.81182
-3.05637e-06
0.45151
1.8118
-7.60946e-05
0.451589
1.81185
0.451375
1.81171
-0.000121863
0.858029
-2.3962e-05
0.858197
-8.49511e-06
0.858147
1.21939e-05
0.858146
9.6667e-05
0.858185
0.85807
-2.44922e-05
-0.3358
-1.09514
-6.24241e-06
-0.335782
-1.09536
-5.66694e-06
-0.335795
-1.09533
-7.64575e-06
-0.335793
-1.09532
9.25094e-06
-0.335779
-1.09535
-0.33583
-1.09514
8.88963e-07
-0.539818
-1.07591
1.08707e-05
-0.539747
-1.07614
-5.56387e-06
-0.539768
-1.0761
-4.36138e-06
-0.539763
-1.0761
2.07775e-05
-0.539734
-1.07613
-0.539849
-1.07587
4.86175e-06
-0.635954
-0.984241
1.65745e-05
-0.635812
-0.984479
-5.88218e-06
-0.635833
-0.984441
-6.88056e-06
-0.635828
-0.984439
2.96579e-05
-0.635788
-0.984479
-0.635959
-0.984205
-5.23841e-05
-0.626426
-1.16993
-3.22716e-05
-0.626265
-1.17018
-4.59412e-05
-0.626292
-1.17014
-3.27593e-05
-0.626291
-1.17014
4.3589e-05
-0.626253
-1.17019
-0.62642
-1.16991
-0.000115705
-0.646268
-1.2952
-7.96345e-05
-0.64614
-1.29544
-7.52546e-05
-0.646179
-1.2954
-4.85412e-05
-0.646185
-1.2954
5.63521e-05
-0.646153
-1.29545
-0.646276
-1.2952
-0.000149295
-0.606793
-1.57614
-9.56958e-05
-0.606745
-1.57634
-8.48917e-05
-0.606789
-1.57632
-5.07349e-05
-0.606809
-1.57632
8.34166e-05
-0.606813
-1.57634
-0.606825
-1.57614
-0.000228706
0.0867075
-2.09042
-7.44217e-05
0.0864472
-2.09057
-3.36661e-05
0.0864292
-2.09059
3.64197e-05
0.0863984
-2.09063
0.000316712
0.0862535
-2.09066
0.0867354
-2.09048
-6.39423e-05
1.96697
-1.1423
4.94212e-05
1.96672
-1.14262
7.84684e-05
1.9667
-1.14255
7.51997e-05
1.96667
-1.14253
0.000181421
1.96653
-1.14271
1.96704
-1.14221
0.000116852
2.06134
3.01796
9.92908e-05
2.06141
3.01796
0.000128001
2.06129
3.01796
8.70216e-05
2.06126
3.01802
-7.04622e-05
2.06126
3.01799
2.06147
3.01802
0.000319216
0.659152
4.08295
0.000160162
0.659643
4.0832
0.000118238
0.659411
4.08314
5.07346e-05
0.659392
4.08316
-6.43278e-05
0.659449
4.0832
0.659426
4.08309
0.00029276
0.252968
2.21748
9.46245e-05
0.253278
2.21853
1.41763e-05
0.253169
2.21814
-4.41946e-06
0.253138
2.21807
-9.67908e-05
0.253148
2.21824
0.25313
2.21791
-8.36676e-05
1.11108
7.43203e-06
1.11138
2.46078e-05
1.1113
2.90027e-05
1.11128
1.03886e-05
1.11135
1.11121
-4.66151e-06
-0.00680771
0.00681237
-5.04105e-06
-0.00680894
0.00681249
-5.04984e-06
-0.00681015
0.00681264
-4.49011e-06
-0.00681132
0.00681281
-3.00258e-06
-0.00681264
0.00681289
-0.00681439
0.00681289
-4.37211e-06
-0.0139032
0.00710212
-6.28507e-06
-0.0139066
0.00710267
-7.2854e-06
-0.0139093
0.0071025
-6.98709e-06
-0.0139117
0.00710206
-4.76577e-06
-0.0139142
0.00710118
-0.0139177
0.00709964
-5.26796e-06
-0.0216183
0.00772178
-8.92678e-06
-0.0216254
0.00772384
-1.06515e-05
-0.0216305
0.007724
-1.01586e-05
-0.0216344
0.00772334
-6.94736e-06
-0.0216383
0.00772207
-0.0216443
0.00772029
-9.945e-06
-0.0302769
0.00866896
-1.41775e-05
-0.0302892
0.00866896
-1.51616e-05
-0.0302968
0.0086683
-1.35044e-05
-0.0303019
0.00866691
-9.08448e-06
-0.0303067
0.00866476
-0.0303151
0.00866164
-1.88916e-05
-0.0401861
0.00992853
-2.1337e-05
-0.0402043
0.00991874
-1.87206e-05
-0.040213
0.00991443
-1.40792e-05
-0.0402172
0.00991092
-8.45076e-06
-0.0402201
0.00990737
-0.0402282
0.00990328
-3.28239e-05
-0.0514649
0.0113123
-2.81846e-05
-0.0514863
0.0112774
-1.58108e-05
-0.0514896
0.0112635
-4.77601e-06
-0.0514852
0.0112557
5.29998e-07
-0.0514782
0.011251
-0.0514778
0.0112489
-4.02062e-05
-0.0639685
0.0125438
-1.35893e-05
-0.0639826
0.0124677
2.12522e-05
-0.063967
0.0124404
4.44551e-05
-0.0639409
0.0124306
4.22053e-05
-0.0639093
0.0124322
-0.0638813
0.0124458
-2.22541e-05
-0.075466
0.0115188
5.18107e-05
-0.0754592
0.0113999
0.000129016
-0.0754172
0.0113708
0.000165208
-0.0753557
0.0113775
0.000134492
-0.075288
0.0114092
-0.0752175
0.0114706
5.14522e-05
-0.082584
0.00706505
0.00017747
-0.0825265
0.00693886
0.000279689
-0.0824772
0.00695621
0.000315204
-0.0824276
0.00703552
0.000241874
-0.0823699
0.00715359
-0.0822862
0.00731009
0.000113906
-0.0758739
-0.0068254
0.000237717
-0.0757783
-0.00687379
0.000305662
-0.0757219
-0.00682393
0.000315865
-0.07567
-0.00676834
0.000246066
-0.075609
-0.00669365
-0.0755185
-0.00652132
0.000139682
-0.0501333
-0.0258808
0.000182547
-0.0500549
-0.0257672
0.000186019
-0.0500155
-0.0257105
0.000165965
-0.0499821
-0.0256694
0.000114057
-0.0499343
-0.0256256
-0.0498501
-0.0255547
-5.01891e-05
-0.050083
-0.000116434
-0.0499882
-0.000158611
-0.049973
-0.000165893
-0.0499755
-0.000108644
-0.0499919
-0.0499593
-3.7967e-06
-0.00656209
0.0133806
-4.03475e-06
-0.00656433
0.0133806
-3.8199e-06
-0.00656592
0.013381
-3.09952e-06
-0.00656723
0.0133815
-1.68721e-06
-0.00656848
0.0133818
-0.00657006
0.0133821
-3.79702e-06
-0.0132095
0.0137563
-5.02749e-06
-0.013215
0.0137569
-5.18152e-06
-0.0132185
0.0137569
-4.39974e-06
-0.0132211
0.0137566
-2.5566e-06
-0.0132235
0.0137557
-0.0132267
0.0137541
-5.78786e-06
-0.0198387
0.0143578
-7.76866e-06
-0.0198485
0.0143597
-7.68842e-06
-0.0198538
0.0143597
-6.3896e-06
-0.0198573
0.0143589
-3.95217e-06
-0.0198604
0.0143572
-0.0198653
0.0143549
-7.71864e-06
-0.0260188
0.0148572
-8.31272e-06
-0.0260345
0.0148562
-6.90327e-06
-0.0260408
0.0148547
-5.058e-06
-0.0260441
0.0148524
-3.13226e-06
-0.0260467
0.0148492
-0.0260529
0.0148451
-5.46634e-06
-0.030855
0.0147711
-1.38955e-06
-0.0308766
0.0147576
3.2446e-06
-0.0308813
0.0147505
5.18215e-06
-0.0308809
0.014745
3.53669e-06
-0.0308791
0.0147396
-0.0308821
0.0147345
5.58019e-07
-0.0329127
0.0133697
1.6498e-05
-0.0329445
0.0133287
2.95465e-05
-0.0329426
0.0133105
3.18806e-05
-0.0329297
0.0133002
2.20804e-05
-0.0329147
0.0132946
-0.0329053
0.0132943
5.42018e-05
-0.0309989
0.0105746
9.08911e-05
-0.0310126
0.0104971
0.000108386
-0.0309891
0.0104677
0.000102667
-0.0309523
0.010458
6.98059e-05
-0.0309119
0.0104626
-0.0308725
0.0104835
0.000126217
-0.0259022
0.0062938
0.000202233
-0.025887
0.00619601
0.000230073
-0.0258289
0.0061817
0.000210216
-0.0257459
0.00619076
0.000136429
-0.0256503
0.00622088
-0.0255497
0.00628406
0.000220067
-0.0207623
0.00170319
0.000323256
-0.0206738
0.00162103
0.000338081
-0.0205359
0.00164778
0.000282345
-0.0203859
0.00173124
0.00016482
-0.0202374
0.00185608
-0.0200879
0.00201364
0.000282013
-0.0190816
-0.00878939
0.000380074
-0.0189032
-0.00874241
0.000416678
-0.018777
-0.00861972
0.000365635
-0.0186411
-0.00846259
0.000214438
-0.0184949
-0.00828556
-0.018282
-0.0081123
8.43964e-05
-0.00267228
-0.0423751
1.6364e-05
-0.0025316
-0.0420705
-7.78367e-05
-0.00244246
-0.0419516
-0.000116557
-0.00236964
-0.0419038
-3.95379e-05
-0.00230358
-0.0418937
-0.00218597
-0.0416907
-0.000168527
-0.0525871
-0.000327342
-0.0523616
-0.000421647
-0.0523237
-0.000396926
-0.0523713
-2.30456e-05
-0.0526656
-0.0521689
-1.39084e-06
-0.00634762
0.0197313
-1.31639e-06
-0.00634899
0.0197313
-9.65696e-07
-0.00634969
0.0197316
-4.27316e-07
-0.00635008
0.0197318
9.15411e-08
-0.00635015
0.0197319
-0.00634998
0.019732
-1.31046e-06
-0.0132112
0.0206227
-1.50239e-06
-0.0132147
0.0206229
-9.96142e-07
-0.0132162
0.0206227
-2.30177e-07
-0.0132168
0.0206223
3.80393e-07
-0.0132166
0.0206213
-0.0132159
0.0206198
-2.44416e-06
-0.0213795
0.0225285
-2.11774e-06
-0.021386
0.0225295
-7.89243e-07
-0.021388
0.0225293
5.02668e-07
-0.0213882
0.0225284
1.04863e-06
-0.021387
0.0225266
-0.0213851
0.0225245
-2.75474e-06
-0.0319662
0.0254463
-2.11265e-07
-0.0319768
0.0254442
2.86275e-06
-0.0319787
0.0254421
4.51077e-06
-0.0319774
0.0254396
3.83564e-06
-0.031974
0.025436
-0.0319693
0.0254321
-4.69574e-07
-0.0466512
0.0294568
6.39701e-06
-0.0466674
0.0294415
1.26256e-05
-0.0466675
0.0294327
1.45939e-05
-0.0466614
0.0294258
1.07614e-05
-0.0466514
0.0294192
-0.0466383
0.0294139
9.90116e-06
-0.067831
0.0345395
2.69858e-05
-0.0678491
0.034493
3.94977e-05
-0.0678405
0.0344702
4.15865e-05
-0.0678203
0.0344564
3.01909e-05
-0.0677936
0.0344485
-0.0677611
0.0344492
3.23804e-05
-0.0977527
0.0404633
6.89447e-05
-0.0977583
0.0403699
9.41775e-05
-0.0977308
0.0403337
9.74895e-05
-0.0976858
0.040322
7.03351e-05
-0.0976309
0.0403297
-0.0975682
0.040362
8.43469e-05
-0.134675
0.043131
0.000133843
-0.134627
0.0430154
0.000157686
-0.134567
0.0429952
0.000147209
-0.134501
0.0430184
9.54662e-05
-0.134439
0.0430804
-0.134377
0.0431881
0.000124015
-0.16696
0.0338633
0.000163116
-0.166846
0.0338006
0.000163231
-0.166765
0.0338467
0.000127509
-0.16669
0.0339563
6.86235e-05
-0.166632
0.0341079
-0.166602
0.0343082
-3.45434e-05
-0.187427
0.0117121
-0.000155383
-0.187272
0.011804
-0.000260304
-0.187181
0.0118996
-0.000306737
-0.187115
0.0120072
-0.000232894
-0.187096
0.0121062
-0.187161
0.0122146
-0.000342271
-0.104721
-0.124739
-0.00053279
-0.104601
-0.124551
-0.00060058
-0.104521
-0.124544
-0.000582113
-0.104465
-0.124573
-0.00039861
-0.10444
-0.124733
-0.10463
-0.12462
-0.000497262
-0.15681
-0.000611001
-0.15685
-0.00055083
-0.156906
-0.000507844
-0.15688
-0.000509277
-0.157105
-0.157308
-1.49629e-07
-0.00552566
0.0252581
3.12292e-07
-0.00552692
0.0252579
8.79318e-07
-0.00552717
0.0252579
1.2389e-06
-0.00552697
0.0252579
1.10802e-06
-0.00552642
0.0252577
-0.00552572
0.0252579
2.8844e-07
-0.0111748
0.0262717
9.99534e-07
-0.0111778
0.0262714
1.90068e-06
-0.011178
0.0262711
2.43317e-06
-0.0111773
0.0262705
1.97799e-06
-0.0111757
0.0262696
-0.0111738
0.0262688
4.15436e-07
-0.0168381
0.0281901
2.18179e-06
-0.016842
0.0281898
4.02872e-06
-0.0168413
0.028189
4.75991e-06
-0.0168387
0.0281878
3.60538e-06
-0.0168349
0.0281861
-0.0168309
0.0281847
4.16011e-06
-0.0220815
0.0306845
8.99653e-06
-0.0220855
0.030682
1.20132e-05
-0.0220822
0.0306794
1.20548e-05
-0.0220763
0.0306765
8.28461e-06
-0.0220692
0.0306732
-0.0220617
0.0306706
1.7526e-05
-0.0256899
0.0330476
2.67227e-05
-0.0256903
0.033037
2.92819e-05
-0.0256826
0.03303
2.57429e-05
-0.025672
0.0330242
1.59976e-05
-0.02566
0.033019
-0.0256468
0.0330159
4.40008e-05
-0.0249934
0.0337989
5.68052e-05
-0.0249813
0.0337717
5.43048e-05
-0.024967
0.0337575
4.27391e-05
-0.0249515
0.0337486
2.43052e-05
-0.0249344
0.0337438
-0.0249159
0.0337453
8.31185e-05
-0.0162998
0.0316869
8.9937e-05
-0.0162584
0.031642
7.09927e-05
-0.0162367
0.0316247
4.4345e-05
-0.0162194
0.0316197
1.67127e-05
-0.0161997
0.0316258
-0.0161827
0.0316455
9.36073e-05
0.00474533
0.0219936
4.7261e-05
0.00485674
0.0219481
-1.95467e-05
0.00488145
0.0219454
-6.43622e-05
0.00488283
0.0219616
-6.69978e-05
0.00488762
0.0219941
0.00489339
0.0220439
-3.85951e-05
0.0327357
0.00591227
-0.000153791
0.0328647
0.00590798
-0.000261069
0.0328832
0.00595189
-0.00029816
0.0328554
0.0060188
-0.000213422
0.0328152
0.00609462
0.0328131
0.00617458
-0.000102735
0.0686784
-0.0241277
-0.000264349
0.0688435
-0.0240142
-0.000351512
0.0687814
-0.0239126
-0.000378611
0.068591
-0.0237028
-0.000231364
0.0682162
-0.0234425
0.0686662
-0.0238723
-0.000122004
0.122057
-0.177996
-0.000524418
0.122365
-0.177671
-0.000817662
0.122358
-0.177828
-0.000713529
0.121768
-0.177853
0.000850223
0.120249
-0.178331
0.123065
-0.17817
0.000228193
-0.034982
-0.000156028
-0.0341011
-0.00124271
-0.0334605
-8.32608e-05
-0.0362712
0.0048213
-0.0417608
-0.0294215
2.52687e-05
-1.16028
0.0651133
6.57214e-06
-1.16046
0.0651231
-1.27005e-05
-1.16043
0.0651229
-2.50658e-05
-1.16043
0.0651235
-3.30161e-05
-1.16046
0.0651243
-1.16028
0.0651102
3.30026e-05
-1.1601
-0.00021203
8.34554e-06
-1.16022
-0.000213032
-5.09025e-06
-1.1602
-0.000213595
-1.51418e-05
-1.1602
-0.000213633
-3.66152e-05
-1.16022
-0.000213859
-1.16009
-0.000216509
2.69602e-05
0.0168128
1.1587e-05
0.0168123
3.42954e-06
0.0168124
-5.01334e-06
0.016812
-2.24234e-05
0.0168115
0.0168117
3.03585e-05
-1.20477
0.193949
8.6064e-06
-1.20496
0.193969
-8.4897e-06
-1.20493
0.193969
-1.94793e-05
-1.20493
0.193966
-3.43542e-05
-1.20496
0.193966
-1.20474
0.193947
3.62847e-05
-1.20519
0.00016928
9.91078e-06
-1.20531
0.000166666
-6.42226e-06
-1.20529
0.000166291
-2.11057e-05
-1.20529
0.000166622
-4.67866e-05
-1.20531
0.00016693
-1.20518
0.000167219
2.81852e-05
0.0249034
1.17873e-05
0.0249018
2.47062e-06
0.0249011
-7.77377e-06
0.0249004
-2.78837e-05
0.0248993
0.0249003
2.26814e-05
-1.13544
0.345129
4.08931e-06
-1.13563
0.345141
-6.82005e-06
-1.1356
0.345139
-1.77302e-05
-1.1356
0.345136
-3.45703e-05
-1.13563
0.345136
-1.13541
0.345119
3.56102e-05
-1.1537
0.0183877
7.95066e-06
-1.15381
0.0183758
-8.40071e-06
-1.1538
0.0183779
-2.42372e-05
-1.1538
0.0183795
-5.28621e-05
-1.15382
0.0183799
-1.15369
0.0183933
2.36564e-05
0.034581
6.68872e-06
0.0345806
-2.53964e-06
0.0345795
-1.14483e-05
0.0345788
-2.99328e-05
0.0345781
0.0345789
2.183e-05
-1.265
0.440177
3.33028e-06
-1.2652
0.440176
-8.00285e-06
-1.26516
0.440173
-2.32582e-05
-1.26516
0.44017
-4.48207e-05
-1.2652
0.440165
-1.26499
0.440156
3.53832e-05
-1.2397
-0.00695087
5.93513e-06
-1.23982
-0.00696933
-8.17433e-06
-1.2398
-0.0069639
-2.05057e-05
-1.2398
-0.00696129
-4.75859e-05
-1.23982
-0.00696295
-1.23971
-0.00693795
2.17337e-05
0.023082
3.08174e-06
0.023084
-4.80285e-06
0.0230837
-1.07727e-05
0.0230836
-2.64704e-05
0.023084
0.0230829
1.74642e-05
-1.29172
0.436681
2.04225e-06
-1.29192
0.436674
-6.27541e-06
-1.29189
0.43667
-1.94379e-05
-1.29189
0.436669
-3.79786e-05
-1.29193
0.436663
-1.29174
0.436661
3.90703e-05
-1.25583
-0.0428784
1.02614e-05
-1.25596
-0.0428976
-1.02439e-06
-1.25594
-0.0428921
-1.13089e-05
-1.25594
-0.0428909
-4.29513e-05
-1.25596
-0.0428937
-1.25584
-0.0428735
2.61568e-05
0.0109253
6.27555e-06
0.0109287
-2.16718e-06
0.0109284
-8.52276e-06
0.0109276
-2.42584e-05
0.0109271
0.0109229
1.99859e-05
-1.35969
0.220205
5.98043e-07
-1.35985
0.220204
-1.53302e-05
-1.35983
0.220198
-1.97795e-05
-1.35982
0.220179
-2.01848e-05
-1.35984
0.220169
-1.35969
0.220191
2.83446e-05
-1.32995
-0.0726442
9.60313e-06
-1.33006
-0.0726638
-1.2906e-06
-1.33005
-0.0726557
-1.02152e-05
-1.33005
-0.0726531
-3.30696e-05
-1.33007
-0.0726477
-1.32994
-0.0726536
2.76983e-05
-0.00577011
7.83529e-06
-0.00576581
-4.31007e-06
-0.00576851
-1.31004e-05
-0.00577117
-2.57225e-05
-0.00577119
-0.00577389
3.16508e-06
-1.48311
-0.387114
4.91097e-06
-1.48323
-0.387133
-1.75018e-06
-1.48322
-0.387154
-2.77164e-06
-1.48324
-0.387209
1.62749e-05
-1.48327
-0.387235
-1.48311
-0.38716
1.08185e-05
-1.30528
-0.250481
-4.41888e-07
-1.30539
-0.250494
-8.50041e-06
-1.30538
-0.250496
-2.38222e-05
-1.30538
-0.250504
-5.57672e-05
-1.30541
-0.250482
-1.30527
-0.25055
2.43831e-05
0.067525
7.06319e-06
0.0675386
-5.25599e-06
0.0675326
-1.28096e-05
0.0675295
-2.40071e-05
0.0675313
0.0675275
5.40407e-05
-2.01495
0.485482
6.95282e-05
-2.01522
0.485455
8.69026e-05
-2.01516
0.48544
4.26256e-05
-2.01512
0.485421
-0.000100134
-2.01522
0.485422
-2.01497
0.485511
1.89672e-05
-1.47042
-0.795037
-3.49867e-05
-1.47055
-0.795105
-5.77989e-05
-1.47054
-0.795093
-5.13153e-05
-1.47055
-0.795078
-9.90605e-05
-1.47061
-0.795038
-1.47046
-0.795163
4.29145e-05
-0.0205007
1.04095e-05
-0.0204892
-5.04037e-06
-0.0204973
-7.25161e-07
-0.0205043
-1.88062e-05
-0.0205021
-0.0205098
0.000115845
0.962502
2.54082
0.000217091
0.96225
2.54107
0.000285866
0.962367
2.54097
0.000195365
0.962551
2.54098
7.73661e-05
0.962517
2.54102
0.962498
2.54111
8.7881e-05
-0.775105
0.942484
-1.18943e-05
-0.775309
0.942554
-2.78098e-05
-0.775232
0.942522
-2.17892e-06
-0.775147
0.942594
-7.28846e-06
-0.775186
0.942669
-0.775062
0.942392
1.86038e-05
0.553401
-0.000106647
0.553416
-0.000141881
0.553415
-7.21032e-05
0.553426
-1.49301e-05
0.553455
0.553404
0.000345247
4.1299
2.49353
0.000237125
4.13051
2.49386
0.000290684
4.13038
2.49368
0.000256804
4.13046
2.49372
0.000144734
4.13058
2.49375
4.13048
2.49387
0.000874133
3.40323
1.66828
0.00041085
3.40367
1.66986
0.00039918
3.40362
1.6693
0.000279522
3.40376
1.66941
-0.000644315
3.40366
1.67052
3.40428
1.66795
0.000348925
1.67709
0.000193077
1.67762
0.000151069
1.67737
-6.42054e-05
1.67748
-0.000681475
1.67811
1.67636
0.000266521
3.52398
1.18676
0.000229344
3.52514
1.18729
0.000142148
3.52472
1.18718
0.000115289
3.52463
1.18718
-0.000158742
3.52468
1.1876
3.52478
1.18684
0.000310157
4.99643
0.195521
0.000391648
4.99754
0.197372
0.000252099
4.99729
0.196868
0.000249431
4.99732
0.196731
0.000604661
4.99714
0.197707
4.99778
0.195552
0.000239107
1.70464
0.000152133
1.70538
5.20021e-05
1.70502
0.00015736
1.70481
2.85409e-05
1.70565
1.70364
6.69177e-05
1.37522
0.922554
6.69704e-05
1.37594
0.922736
5.12041e-05
1.37572
0.922781
3.88893e-05
1.37569
0.922786
-0.000102939
1.37594
0.923149
1.37544
0.922513
0.000176836
0.25142
1.31915
0.000171006
0.253801
1.31952
0.000244856
0.253066
1.31944
-1.96718e-06
0.253097
1.31957
-0.000453175
0.254222
1.31988
0.251244
1.31929
0.000593373
1.95179
-0.000268915
1.95192
-0.000636229
1.95177
-0.000196636
1.95085
-6.68531e-05
1.95126
1.95145
0.00139823
0.104061
-2.60456
2.4991
-0.000448121
0.106109
-2.60455
2.50029
-0.00360803
0.107381
-2.60389
2.49967
-0.00204052
0.102966
-2.60433
2.4998
0.00118909
0.10257
-2.60493
2.49914
0.100768
-2.6081
2.50852
0.0108559
1.15565
0.496801
-1.55924
0.00241705
1.17975
0.496345
-1.56154
-0.0101563
1.18498
0.495538
-1.56056
-0.00323238
1.16025
0.493541
-1.55775
-0.0582786
1.24947
0.468353
-1.5602
1.07617
0.519016
-1.55269
0.0194762
-0.454428
-0.305617
0.00866938
-0.465705
-0.294421
-0.00779009
-0.467999
-0.291939
0.00477601
-0.456575
-0.304623
-0.110883
-0.507112
-0.248768
-0.416804
-0.340143
3.48203e-06
-1.09865
-1.50591
-0.000200993
-1.09927
-1.50507
-0.000672832
-1.09892
-1.5045
0.000555932
-1.09866
-1.5069
0.00295176
-1.09973
-1.5076
-1.09741
-1.50773
0.000602112
1.43672
-2.03917
-0.00115062
1.43862
-2.03979
-0.00319902
1.43828
-2.03961
-4.21222e-05
1.4352
-2.04347
0.00242331
1.4261
-2.05994
1.44733
-2.0233
0.00332171
-3.18639
-0.000915323
-3.19175
-0.0073343
-3.19104
0.000786557
-3.19063
-0.00530221
-3.20886
-3.16854
-0.000193807
-0.557901
-0.947817
0.000159574
-0.558057
-0.94737
0.000904439
-0.557914
-0.947327
0.00108364
-0.557604
-0.949472
-0.00164058
-0.553968
-0.950906
-0.561969
-0.9474
0.000522929
0.388906
-2.9865
-0.00125796
0.390628
-2.9867
-0.00411417
0.391689
-2.98636
-0.000336784
0.382201
-2.98706
0.00906484
0.365729
-2.98904
0.409161
-2.98537
0.00101773
-4.2158
-0.0018492
-4.219
-0.00527783
-4.21918
-0.00128228
-4.21324
0.00670823
-4.20916
-4.22141
0.000206681
-0.427481
-0.520543
0.000685743
-0.427371
-0.520478
0.00138685
-0.427464
-0.520564
0.000918725
-0.427788
-0.521215
-0.000350876
-0.427887
-0.521749
-0.427368
-0.520383
7.38901e-05
-1.49708
-1.91697
-0.000718522
-1.4959
-1.91737
-0.00145324
-1.49576
-1.91733
0.000287104
-1.50102
-1.91556
0.00155971
-1.50276
-1.91543
-1.4937
-1.91748
0.000908623
-2.66524
-0.000227285
-2.66543
-0.0013372
-2.66559
-0.000427095
-2.6636
0.000612136
-2.66292
-2.66607
0.000245055
0.0223522
-0.54314
0.000395263
0.0223957
-0.543023
0.000527226
0.0223318
-0.543028
0.000247799
0.0226013
-0.543537
-0.000380774
0.0233325
-0.544453
0.0215751
-0.542338
-4.83186e-06
-0.360714
-1.5339
0.000461522
-0.361375
-1.53407
0.00101775
-0.361477
-1.53408
0.000170877
-0.357827
-1.53429
-0.00183209
-0.354402
-1.5357
-0.365037
-1.5327
0.000421378
-2.28185
4.72378e-05
-2.28124
-0.000798047
-2.28093
-0.000116472
-2.28192
0.00247873
-2.28396
-2.27896
7.80615e-05
0.379335
0.000205008
0.379586
0.000512571
0.379446
0.000135099
0.379627
-0.00137086
0.380201
0.378804
0.000183981
0.164397
-2.86021e-05
0.165249
-0.000573524
0.165358
-3.72944e-05
0.164374
0.00155336
0.162794
0.166951
0.000148195
0.000105655
0.000252312
-0.00017049
-0.000750605
9.1026e-07
0.0295844
-0.00432709
1.05925e-06
0.0295838
-0.00432693
1.09602e-06
0.0295837
-0.0043268
9.39118e-07
0.0295835
-0.00432668
5.14162e-07
0.0295834
-0.00432653
0.0295838
-0.00432656
5.28845e-07
0.0321782
-0.00259464
4.98313e-07
0.0321774
-0.00259462
4.14833e-07
0.0321774
-0.00259467
2.20957e-07
0.0321773
-0.00259471
-7.6039e-08
0.0321772
-0.00259476
0.0321779
-0.00259489
1.55735e-07
-0.00139526
1.30163e-07
-0.00139529
7.85452e-08
-0.00139532
-2.92256e-08
-0.00139534
-1.86862e-07
-0.00139535
-0.00139535
1.18411e-06
0.0313132
-0.00937078
1.41137e-06
0.0313125
-0.0093705
1.64323e-06
0.0313123
-0.00937021
1.53037e-06
0.031312
-0.00936986
8.73954e-07
0.0313116
-0.00936953
0.0313119
-0.00936942
5.11812e-07
0.0339024
-0.0051855
4.87773e-07
0.0339015
-0.00518537
4.66358e-07
0.0339014
-0.00518527
2.79595e-07
0.0339013
-0.00518515
-1.07664e-07
0.0339012
-0.00518501
0.0339018
-0.00518499
-2.38485e-08
-0.0033725
-2.14962e-08
-0.00337254
-3.24605e-08
-0.00337253
-9.09661e-08
-0.00337249
-1.84721e-07
-0.00337244
-0.00337231
1.38497e-06
0.0349963
-0.0161801
2.29503e-06
0.0349956
-0.0161793
2.95075e-06
0.0349953
-0.0161785
2.8979e-06
0.0349948
-0.0161778
1.88209e-06
0.0349942
-0.0161772
0.0349945
-0.0161771
3.12304e-07
0.0375363
-0.0077272
6.66337e-07
0.0375354
-0.0077265
9.06495e-07
0.0375352
-0.00772598
8.60517e-07
0.037535
-0.00772545
4.93372e-07
0.0375348
-0.00772501
0.0375355
-0.007725
-1.12207e-07
-0.00671558
3.74454e-08
-0.00671556
1.54113e-07
-0.00671546
2.24811e-07
-0.00671531
2.86594e-07
-0.00671518
-0.00671499
3.52351e-06
0.04101
-0.0265102
5.47701e-06
0.0410087
-0.0265085
6.15657e-06
0.0410077
-0.0265078
5.48622e-06
0.0410066
-0.0265074
3.42583e-06
0.0410054
-0.0265075
0.0410051
-0.0265081
1.80535e-06
0.0433263
-0.0100458
2.86496e-06
0.0433251
-0.010044
3.15955e-06
0.0433246
-0.010043
2.76947e-06
0.0433241
-0.0100424
1.68122e-06
0.0433236
-0.010042
0.0433242
-0.0100427
1.97623e-07
-0.0127189
4.74595e-07
-0.012719
7.07831e-07
-0.012719
7.52682e-07
-0.0127188
7.5006e-07
-0.0127188
-0.0127183
7.70136e-06
0.0500074
-0.0434777
9.33017e-06
0.0500027
-0.0434758
8.30971e-06
0.0499994
-0.0434765
5.86453e-06
0.0499965
-0.0434777
3.02683e-06
0.0499939
-0.0434796
0.049993
-0.0434814
4.34992e-06
0.0515429
-0.0115855
5.37017e-06
0.051541
-0.0115836
4.86521e-06
0.0515402
-0.0115838
3.54449e-06
0.0515396
-0.0115847
1.69024e-06
0.0515392
-0.0115859
0.0515401
-0.0115882
7.86767e-07
-0.0239904
1.15503e-06
-0.0239906
1.74089e-06
-0.0239906
1.25455e-06
-0.023989
1.26645e-06
-0.0239893
-0.0239865
9.62374e-06
0.0638525
-0.0735405
7.66233e-06
0.0638399
-0.0735412
2.87216e-06
0.0638329
-0.0735462
-7.92245e-07
0.0638275
-0.0735514
-1.08039e-06
0.0638242
-0.0735572
0.0638248
-0.0735608
7.88809e-06
0.0632658
-0.0110067
7.17368e-06
0.0632629
-0.0110058
3.8422e-06
0.0632623
-0.0110093
9.4844e-07
0.0632625
-0.0110156
-5.06578e-07
0.0632627
-0.0110212
0.063265
-0.0110286
-3.01974e-07
-0.0441437
-2.28874e-07
-0.0441444
1.77298e-06
-0.0441457
1.29721e-06
-0.0441397
4.88225e-06
-0.0441438
-0.044131
7.19543e-06
0.0833775
-0.125237
-1.51806e-06
0.0833551
-0.125243
-1.23156e-05
0.0833464
-0.125255
-1.85198e-05
0.0833434
-0.125266
-1.21776e-05
0.0833444
-0.125281
0.0833547
-0.125285
3.72405e-06
0.0774053
-0.00503741
-8.19081e-06
0.0774022
-0.00503951
-2.00753e-05
0.0774037
-0.0050527
-2.53365e-05
0.0774074
-0.00507205
-2.0004e-05
0.0774102
-0.00509153
0.0774149
-0.00511008
7.95604e-06
-0.0858849
1.1235e-05
-0.0858804
2.25681e-05
-0.0858885
1.16684e-05
-0.0858549
1.69552e-05
-0.0858774
-0.0858388
-2.01794e-05
0.122135
-0.225357
-5.2586e-05
0.122114
-0.225375
-7.11426e-05
0.122116
-0.225406
-8.06028e-05
0.122133
-0.225429
-4.14213e-05
0.122149
-0.225478
0.122194
-0.225478
-1.53717e-05
0.107394
0.00972018
-4.76485e-05
0.107395
0.00971296
-7.60698e-05
0.1074
0.00969184
-8.96234e-05
0.107418
0.00965636
-7.93237e-05
0.107425
0.00961984
0.107441
0.0095648
-3.68428e-06
-0.137298
2.98716e-06
-0.137301
5.00403e-05
-0.137359
2.62874e-05
-0.137225
0.000140731
-0.137411
-0.137066
-9.1275e-05
0.134889
-0.354242
-0.000173696
0.134903
-0.354287
-0.000197926
0.134928
-0.354358
-0.000232652
0.134997
-0.354373
-0.000128385
0.13502
-0.354508
0.135058
-0.354489
-6.99972e-05
0.12977
0.0149091
-0.000208532
0.129784
0.0149705
-0.000243493
0.1298
0.0148532