/*--------------------------------*- C++ -*----------------------------------*\
| =========                 |                                                 |
| \\      /  F ield         | OpenFOAM: The Open Source CFD Toolbox           |
|  \\    /   O peration     | Version:  v1612+                                |
|   \\  /    A nd           | Web:      www.OpenFOAM.com                      |
|    \\/     M anipulation  |                                                 |
\*---------------------------------------------------------------------------*/
FoamFile
{
    version     2.0;
    format      ascii;
    class       volVectorField;
    location    "3.35";
    object      U;
}
// * * * * * * * * * * * * * * * * * * * * * * * * * * * * * * * * * * * * * //

dimensions      [0 1 -1 0 0 0 0];

internalField   nonuniform List<vector> 
1116
(
(0.341691 -6.31802e-06 -0.357029)
(0.341684 8.24668e-06 -0.357041)
(0.341688 7.61724e-06 -0.357027)
(0.341693 6.83919e-06 -0.357023)
(0.341691 -1.85068e-06 -0.357037)
(0.341684 5.9675e-06 -0.357025)
(1.18949 1.29652e-06 -0.354506)
(1.18949 9.36324e-06 -0.354526)
(1.1895 8.14296e-06 -0.354509)
(1.1895 1.09205e-05 -0.354505)
(1.1895 -6.47901e-06 -0.354525)
(1.18948 -5.86974e-06 -0.354513)
(1.7965 5.33953e-06 -0.190779)
(1.79652 1.10661e-05 -0.190803)
(1.79652 5.98466e-06 -0.190789)
(1.79652 1.09023e-05 -0.190787)
(1.79653 -6.07815e-06 -0.190806)
(1.7965 -7.37636e-06 -0.190789)
(2.17312 5.6532e-06 -0.0505342)
(2.17316 1.12449e-05 -0.0505584)
(2.17315 4.81251e-06 -0.0505466)
(2.17315 9.43466e-06 -0.0505457)
(2.17316 -4.37703e-06 -0.0505609)
(2.17313 -5.21074e-06 -0.0505423)
(2.43544 4.33287e-06 0.0318094)
(2.43548 9.98045e-06 0.0317892)
(2.43547 3.73415e-06 0.0317991)
(2.43547 6.89286e-06 0.0317998)
(2.43548 -3.762e-06 0.0317884)
(2.43544 -3.12547e-06 0.0318058)
(2.62718 2.76915e-06 0.0690766)
(2.62722 8.57659e-06 0.0690619)
(2.62722 2.36904e-06 0.0690703)
(2.62722 4.09507e-06 0.0690705)
(2.62722 -4.10582e-06 0.0690609)
(2.62718 -1.21763e-06 0.0690774)
(2.74737 -7.6889e-08 0.10176)
(2.74743 6.2908e-06 0.101753)
(2.74743 6.2959e-07 0.101759)
(2.74742 6.20699e-07 0.101759)
(2.74742 -4.8805e-06 0.101751)
(2.74738 1.61675e-06 0.101766)
(2.8182 -4.24437e-06 0.255735)
(2.81825 5.47958e-06 0.255734)
(2.81825 6.51269e-07 0.255737)
(2.81824 -2.47496e-06 0.255737)
(2.81824 -6.93904e-06 0.255729)
(2.81819 3.91973e-06 0.255747)
(2.54491 -5.36092e-06 0.665133)
(2.54497 7.28413e-06 0.665137)
(2.54497 -1.94735e-07 0.665137)
(2.54496 -3.17702e-06 0.665138)
(2.54496 -1.18339e-05 0.66513)
(2.54489 5.58199e-07 0.665149)
(1.61745 -3.96475e-06 1.03297)
(1.61752 7.74855e-06 1.033)
(1.61752 -3.63292e-06 1.03299)
(1.6175 -3.8237e-06 1.03299)
(1.61753 -1.55544e-05 1.03299)
(1.61739 -4.61663e-06 1.03299)
(0.129872 8.38328e-06 0.602419)
(0.129952 1.21882e-05 0.602482)
(0.12996 -8.34126e-06 0.60247)
(0.129949 -2.33126e-07 0.602465)
(0.129995 -1.70586e-05 0.602485)
(0.12979 -1.27517e-05 0.6024)
(-0.799434 -2.05634e-05 -0.734279)
(-0.799369 -2.88518e-05 -0.734301)
(-0.799368 -1.53993e-05 -0.734295)
(-0.799369 -2.14559e-05 -0.734307)
(-0.799321 8.559e-06 -0.73431)
(-0.799463 3.01991e-05 -0.734331)
(0.462902 1.18225e-05 -1.33307)
(0.462888 -3.46119e-05 -1.33309)
(0.462912 2.99082e-05 -1.33308)
(0.462892 -6.04795e-06 -1.33308)
(0.462873 4.97187e-05 -1.33309)
(0.462945 -1.01831e-05 -1.33305)
(1.90207 3.99212e-05 -1.34576)
(1.90205 -6.09625e-05 -1.34576)
(1.90206 5.42091e-05 -1.34577)
(1.90204 -4.21934e-08 -1.34574)
(1.90203 6.56237e-05 -1.34571)
(1.90211 -5.65627e-05 -1.34577)
(2.77678 6.36015e-05 -0.832312)
(2.77679 -4.49871e-05 -0.832275)
(2.77678 5.24612e-05 -0.832295)
(2.77675 8.0211e-06 -0.832262)
(2.77678 5.34985e-05 -0.832225)
(2.77682 -7.89833e-05 -0.832304)
(3.21394 7.10289e-05 -0.639694)
(3.21402 -2.25553e-05 -0.639645)
(3.21397 4.11553e-05 -0.639665)
(3.21395 1.84716e-05 -0.639644)
(3.21401 3.75304e-05 -0.639609)
(3.21397 -8.07915e-05 -0.639675)
(3.55499 7.34622e-05 -0.559637)
(3.55513 -3.19e-06 -0.559592)
(3.55504 2.71334e-05 -0.559607)
(3.55503 2.43663e-05 -0.559594)
(3.55511 2.56734e-05 -0.559567)
(3.555 -7.34268e-05 -0.559618)
(3.90629 7.4371e-05 -0.461333)
(3.9065 9.97419e-06 -0.461299)
(3.90638 1.50173e-05 -0.461307)
(3.90638 2.58137e-05 -0.461299)
(3.90647 1.78857e-05 -0.461281)
(3.90631 -6.41787e-05 -0.461316)
(4.34885 7.28222e-05 -0.33254)
(4.34908 1.53748e-05 -0.332521)
(4.34896 4.47492e-06 -0.332522)
(4.34895 2.35245e-05 -0.332516)
(4.34904 1.14234e-05 -0.33251)
(4.34887 -5.51943e-05 -0.332527)
(4.60199 7.06359e-05 -0.0196893)
(4.60227 2.34154e-05 -0.01969)
(4.60214 4.68865e-06 -0.0196807)
(4.60214 2.24881e-05 -0.0196769)
(4.60223 6.26459e-06 -0.0196867)
(4.60205 -4.75647e-05 -0.0196824)
(4.33525 7.74871e-05 0.543089)
(4.3356 4.52139e-05 0.543066)
(4.33545 8.27908e-06 0.543086)
(4.33546 2.60173e-05 0.543086)
(4.33554 -5.2354e-06 0.543056)
(4.33536 -4.54706e-05 0.543088)
(3.62752 5.39603e-05 1.30766)
(3.62791 4.51439e-05 1.30763)
(3.62776 1.04314e-05 1.30765)
(3.62776 1.67865e-05 1.30764)
(3.62785 -1.62207e-05 1.30761)
(3.62763 -3.5655e-05 1.30765)
(2.10923 3.84304e-05 1.4321)
(2.10961 3.66593e-05 1.43215)
(2.1095 -1.26572e-06 1.43213)
(2.1095 9.94827e-06 1.43212)
(2.1096 -2.10318e-05 1.43211)
(2.10931 -2.89167e-05 1.43208)
(0.479748 -5.77234e-05 0.174993)
(0.480125 -5.87451e-05 0.175045)
(0.480041 -4.38428e-06 0.175028)
(0.480035 -1.8956e-05 0.175015)
(0.480127 2.8121e-05 0.175034)
(0.479823 4.66618e-05 0.17494)
(0.311955 -5.32077e-05 -2.71781)
(0.311944 -0.000142005 -2.71793)
(0.311951 -4.90538e-06 -2.71798)
(0.311925 -3.59144e-05 -2.71794)
(0.311922 0.000135078 -2.71786)
(0.311972 6.49487e-05 -2.71786)
(1.00455 -5.97847e-05 -2.12447)
(1.00443 -0.000131515 -2.12459)
(1.00441 2.23225e-05 -2.12466)
(1.00439 -2.16401e-05 -2.12455)
(1.00441 0.000157789 -2.12446)
(1.00455 8.22482e-05 -2.12449)
(1.96537 -5.17958e-05 -1.39106)
(1.96523 -0.000109327 -1.39112)
(1.96519 3.55971e-05 -1.39118)
(1.96518 -1.7561e-05 -1.39109)
(1.96523 0.000138736 -1.39098)
(1.96538 7.87868e-05 -1.39103)
(3.36516 -6.31993e-05 -0.9967)
(3.36504 -0.000110461 -0.9967)
(3.365 3.47291e-05 -0.996775)
(3.365 -1.82668e-05 -0.996694)
(3.36506 0.000142325 -0.996555)
(3.36521 9.86511e-05 -0.996648)
(5.07456 -7.21664e-05 -0.859811)
(5.07443 -0.000117549 -0.859703)
(5.07437 1.87404e-05 -0.859808)
(5.07436 -2.87981e-05 -0.859758)
(5.07444 0.000126728 -0.859581)
(5.0746 9.94396e-05 -0.859728)
(7.41245 -9.35933e-05 -0.862983)
(7.41231 -0.000171508 -0.862768)
(7.41224 -5.22146e-05 -0.862901)
(7.41223 -6.73418e-05 -0.862876)
(7.41229 8.5358e-05 -0.862677)
(7.41245 7.90817e-05 -0.86288)
(9.22641 -0.000171827 -0.824066)
(9.22631 -0.000225763 -0.823821)
(9.22597 -4.95752e-05 -0.824024)
(9.22592 -0.000162871 -0.824028)
(9.22614 5.49788e-05 -0.823833)
(9.22627 0.000136927 -0.824046)
(11.6822 -4.97338e-05 0.672373)
(11.6815 -8.54157e-05 0.672628)
(11.6818 1.36102e-05 0.672464)
(11.6818 -0.00012872 0.672457)
(11.6813 3.95953e-05 0.672608)
(11.682 0.000108201 0.67242)
(7.70686 0.000156868 1.94337)
(7.70705 0.000123616 1.94376)
(7.70696 5.44946e-05 1.94359)
(7.70695 3.097e-05 1.9436)
(7.70695 -2.63892e-05 1.94372)
(7.7068 -7.02158e-05 1.94351)
(4.01815 0.000108853 2.73503)
(4.01863 9.00889e-05 2.73522)
(4.01838 3.84071e-05 2.73516)
(4.01839 4.7442e-05 2.73515)
(4.01852 -3.02803e-05 2.73519)
(4.01828 -8.02534e-05 2.73509)
(2.52665 0.000171899 2.76211)
(2.52745 0.000140121 2.76247)
(2.52715 -1.20094e-05 2.76232)
(2.52717 3.60357e-05 2.76232)
(2.52737 -4.55452e-05 2.76239)
(2.52688 -8.18197e-05 2.76217)
(0.414459 -0.000110341 1.41346)
(0.415135 -8.53918e-05 1.41375)
(0.414931 2.56698e-05 1.41366)
(0.414941 -3.7732e-05 1.41365)
(0.415114 6.64868e-05 1.41373)
(0.414598 9.76278e-05 1.41351)
(-0.343166 -4.22458e-05 -2.39434)
(-0.343155 3.05084e-06 -2.39477)
(-0.343168 -1.64589e-05 -2.39473)
(-0.343163 8.41157e-06 -2.39471)
(-0.34315 -1.94901e-05 -2.39474)
(-0.343207 3.17624e-05 -2.39434)
(-1.03346 -2.45557e-05 -2.25274)
(-1.03342 2.89873e-05 -2.25319)
(-1.03346 -1.3704e-05 -2.25313)
(-1.03345 5.95713e-06 -2.25312)
(-1.03341 -1.07232e-05 -2.25319)
(-1.03354 3.94646e-05 -2.25268)
(-1.39871 -1.34919e-05 -2.25455)
(-1.3985 2.78293e-05 -2.25502)
(-1.39854 -3.13595e-06 -2.25495)
(-1.39853 -7.08288e-06 -2.25495)
(-1.39846 -1.10723e-06 -2.25503)
(-1.39875 4.28621e-05 -2.25449)
(-1.37445 -5.13003e-05 -2.85349)
(-1.37416 -3.15365e-05 -2.85401)
(-1.3742 -3.66321e-05 -2.85393)
(-1.37419 -5.04434e-05 -2.85394)
(-1.37411 3.31228e-06 -2.85404)
(-1.37443 5.5701e-05 -2.85343)
(-1.54091 -9.52599e-05 -3.42638)
(-1.54065 -9.51942e-05 -3.42685)
(-1.54071 -6.60367e-05 -3.42677)
(-1.54072 -7.767e-05 -3.42679)
(-1.54066 6.80583e-06 -3.42687)
(-1.54091 6.85621e-05 -3.42632)
(-1.79806 -0.000116577 -4.19928)
(-1.79792 -0.000126925 -4.19969)
(-1.798 -6.4429e-05 -4.19964)
(-1.79802 -9.82389e-05 -4.19966)
(-1.79799 2.14096e-05 -4.1997)
(-1.79809 0.000102098 -4.19925)
(-1.81533 -0.000179356 -4.09949)
(-1.81534 -0.000172896 -4.09987)
(-1.81542 4.70406e-06 -4.09996)
(-1.8155 -8.66513e-05 -4.10006)
(-1.81551 0.000186824 -4.10011)
(-1.81542 0.000296662 -4.09971)
(1.72401 -6.5816e-05 1.29584)
(1.72302 -1.59756e-05 1.29526)
(1.72305 9.64857e-05 1.29534)
(1.723 2.4577e-05 1.29531)
(1.72247 0.000150218 1.29499)
(1.72415 0.000149344 1.2959)
(6.62791 9.04439e-05 8.68802)
(6.62781 8.10928e-05 8.68829)
(6.6277 0.000120215 8.68824)
(6.6276 0.000112972 8.68821)
(6.62751 8.23128e-06 8.68814)
(6.62809 -8.29701e-05 8.68813)
(3.507 0.000216566 6.55362)
(3.50809 0.000231668 6.55406)
(3.50749 0.000132434 6.55394)
(3.50747 0.000104201 6.55395)
(3.50764 -2.08797e-05 6.55405)
(3.50759 -0.000109281 6.55362)
(2.5043 0.000262894 4.04506)
(2.5054 0.000220893 4.04606)
(2.50498 -1.55948e-05 4.04564)
(2.5049 4.01377e-05 4.04558)
(2.50499 -5.40393e-05 4.04566)
(2.50489 -0.000102613 4.04546)
(-0.00557595 -9.80669e-05 1.63386)
(-0.00499392 -3.44921e-05 1.63419)
(-0.00516805 4.04526e-05 1.6341)
(-0.00523825 1.59604e-05 1.6341)
(-0.00523859 3.1969e-05 1.63419)
(-0.00534939 -1.36135e-05 1.63393)
(0.00672986 -2.87651e-06 0.00685688)
(0.00673111 -5.40113e-06 0.0068569)
(0.00673234 -5.0354e-06 0.00685696)
(0.00673354 -4.83208e-06 0.00685705)
(0.0067349 -3.98058e-06 0.00685707)
(0.00673669 -1.65599e-06 0.00685696)
(0.0204584 -2.48227e-06 0.00717862)
(0.0204628 -5.73022e-06 0.00717906)
(0.0204666 -6.86275e-06 0.00717871)
(0.0204701 -7.23272e-06 0.00717808)
(0.0204738 -6.23814e-06 0.00717697)
(0.020479 -2.67463e-06 0.00717511)
(0.035052 -2.74233e-06 0.00796642)
(0.0350617 -7.38442e-06 0.0079689)
(0.0350689 -1.00042e-05 0.00796899)
(0.0350748 -1.0541e-05 0.00796804)
(0.0350809 -8.97512e-06 0.00796646)
(0.0350901 -3.84539e-06 0.00796438)
(0.0511101 -5.22415e-06 0.00973763)
(0.051128 -1.26947e-05 0.00973834)
(0.0511399 -1.52131e-05 0.00973781)
(0.0511485 -1.45551e-05 0.00973628)
(0.0511569 -1.21866e-05 0.00973391)
(0.0511711 -5.40675e-06 0.00973036)
(0.0691229 -1.0989e-05 0.0136322)
(0.0691525 -2.22929e-05 0.0136227)
(0.0691688 -2.10974e-05 0.0136194)
(0.0691789 -1.66582e-05 0.0136166)
(0.0691876 -1.2598e-05 0.0136137)
(0.0692049 -5.72888e-06 0.0136095)
(0.0891422 -2.21438e-05 0.0217473)
(0.0891855 -3.65324e-05 0.0217101)
(0.0892002 -2.29838e-05 0.0216978)
(0.089203 -1.02063e-05 0.0216913)
(0.0892017 -1.35387e-06 0.0216877)
(0.0892117 3.44982e-07 0.0216846)
(0.110421 -3.43386e-05 0.0372072)
(0.110472 -3.90099e-05 0.0371345)
(0.110467 6.07339e-06 0.0371125)
(0.110442 3.47119e-05 0.037106)
(0.110407 4.91076e-05 0.0371083)
(0.110385 2.53894e-05 0.037118)
(0.129201 -3.90218e-05 0.0635276)
(0.129226 -4.1366e-06 0.063419)
(0.129181 0.000100128 0.0633976)
(0.129107 0.000151292 0.0634072)
(0.129018 0.000166567 0.0634359)
(0.128926 8.10817e-05 0.0634857)
(0.144246 -3.14732e-06 0.0985903)
(0.144199 9.63628e-05 0.0984892)
(0.144108 0.000240652 0.0985065)
(0.143995 0.000303272 0.0985706)
(0.143865 0.000310455 0.098658)
(0.143702 0.000149293 0.0987702)
(0.132266 4.91187e-05 0.137885)
(0.132096 0.000176528 0.137892)
(0.131952 0.000284546 0.138011)
(0.1318 0.000319939 0.138196)
(0.13163 0.000315347 0.13841)
(0.131411 0.000154205 0.138623)
(0.101534 9.03381e-05 0.142571)
(0.101283 0.000184157 0.142807)
(0.101148 0.000190123 0.142941)
(0.101029 0.00018152 0.143056)
(0.100876 0.000161211 0.143181)
(0.100628 7.80274e-05 0.143352)
(0.0265757 -1.29056e-05 0.136451)
(0.0264323 -7.68601e-05 0.136668)
(0.0263788 -0.000144978 0.136729)
(0.0263455 -0.000167186 0.136742)
(0.026289 -0.000147955 0.136751)
(0.0261347 -5.94172e-05 0.136915)
(0.00636672 -2.35671e-06 0.0197156)
(0.00636888 -4.31352e-06 0.019716)
(0.00637042 -3.84247e-06 0.0197165)
(0.00637167 -3.45183e-06 0.0197171)
(0.00637287 -2.47497e-06 0.0197175)
(0.00637439 -8.47649e-07 0.0197175)
(0.0191675 -2.29661e-06 0.0203694)
(0.0191749 -4.77609e-06 0.0203705)
(0.0191798 -5.0335e-06 0.0203703)
(0.0191836 -4.80055e-06 0.0203695)
(0.0191872 -3.55893e-06 0.0203677)
(0.0191918 -1.31834e-06 0.0203644)
(0.0320022 -3.51127e-06 0.0214311)
(0.0320164 -7.30008e-06 0.0214358)
(0.0320247 -7.65581e-06 0.0214363)
(0.0320305 -7.06917e-06 0.021435)
(0.0320359 -5.35032e-06 0.0214322)
(0.0320438 -2.16485e-06 0.0214282)
(0.0444036 -5.09097e-06 0.0220082)
(0.044427 -9.13521e-06 0.0220081)
(0.0444377 -7.63357e-06 0.0220062)
(0.0444443 -6.01146e-06 0.0220027)
(0.0444501 -4.44838e-06 0.0219974)
(0.0444611 -2.06246e-06 0.02199)
(0.0552628 -5.7181e-06 0.0205465)
(0.0553006 -5.49861e-06 0.0205221)
(0.0553137 1.61713e-06 0.02051)
(0.0553191 4.5542e-06 0.0205003)
(0.055323 4.69632e-06 0.0204908)
(0.0553354 1.46887e-06 0.0204809)
(0.0627788 -6.02173e-06 0.0137058)
(0.0628261 5.21135e-06 0.0136215)
(0.0628329 2.55819e-05 0.0135855)
(0.0628261 3.1145e-05 0.0135648)
(0.0628168 2.84069e-05 0.0135527)
(0.062818 1.14802e-05 0.0135491)
(0.0648316 2.27536e-05 -0.0028691)
(0.064891 7.08333e-05 -0.00305036)
(0.0648773 0.000101099 -0.00311893)
(0.0648379 0.000104947 -0.00314443)
(0.0647905 9.11362e-05 -0.00313985)
(0.0647476 3.9002e-05 -0.00310311)
(0.0637648 5.83818e-05 -0.038852)
(0.0638126 0.000164766 -0.0391039)
(0.0637527 0.0002204 -0.0391701)
(0.0636496 0.000220075 -0.0391556)
(0.0635287 0.000187988 -0.0390821)
(0.0633968 8.1629e-05 -0.0389413)
(0.0619349 0.000115142 -0.0915763)
(0.061877 0.00028128 -0.0917899)
(0.0617123 0.000336345 -0.091755)
(0.0614713 0.000312839 -0.0916072)
(0.0611922 0.000244823 -0.0913838)
(0.0608972 0.000101864 -0.0910892)
(0.0786541 0.000163178 -0.188167)
(0.0784131 0.000351686 -0.188201)
(0.0781476 0.000397988 -0.188049)
(0.077833 0.0003932 -0.187825)
(0.0774779 0.000311365 -0.18756)
(0.0770697 0.000126915 -0.18725)
(0.0836472 7.77971e-05 -0.290022)
(0.0831431 8.34398e-05 -0.289706)
(0.0828223 -3.69455e-05 -0.289538)
(0.0825554 -0.000109337 -0.289418)
(0.0822944 -7.72702e-05 -0.289288)
(0.0818608 -1.14671e-05 -0.289096)
(0.0930108 -6.76572e-05 -0.396339)
(0.0927056 -0.000236274 -0.396138)
(0.0925411 -0.000384229 -0.396127)
(0.0924164 -0.000453657 -0.396139)
(0.0923138 -0.000166052 -0.396188)
(0.0921068 6.88974e-05 -0.396262)
(0.00600142 -8.84348e-07 0.0316068)
(0.00600279 -1.51523e-06 0.031607)
(0.00600347 -1.11219e-06 0.0316077)
(0.00600385 -6.91856e-07 0.0316084)
(0.00600391 -7.21093e-08 0.0316089)
(0.00600373 2.03125e-07 0.0316092)
(0.0184329 -8.6527e-07 0.0328644)
(0.0184377 -1.56262e-06 0.0328652)
(0.0184398 -1.20444e-06 0.0328651)
(0.0184408 -6.51769e-07 0.0328645)
(0.0184407 2.36944e-07 0.0328629)
(0.0184399 3.88502e-07 0.0328599)
(0.0325077 -1.77312e-06 0.0354)
(0.0325169 -2.63207e-06 0.0354032)
(0.0325201 -1.29577e-06 0.0354034)
(0.032521 -1.36608e-07 0.035402)
(0.0325198 1.01372e-06 0.035399)
(0.0325175 7.34606e-07 0.0353949)
(0.0499356 -2.69295e-06 0.0390751)
(0.0499515 -2.2697e-06 0.0390723)
(0.0499556 1.66109e-06 0.0390692)
(0.0499555 3.59829e-06 0.0390649)
(0.0499521 4.41274e-06 0.0390586)
(0.0499469 2.11001e-06 0.0390507)
(0.0736693 -2.92657e-06 0.044036)
(0.0736966 1.37515e-06 0.0440073)
(0.0737008 1.01271e-05 0.0439918)
(0.0736969 1.32308e-05 0.0439799)
(0.0736874 1.32413e-05 0.0439683)
(0.073674 5.95941e-06 0.0439577)
(0.107102 2.8037e-07 0.051026)
(0.107148 1.56708e-05 0.0509375)
(0.107149 3.42597e-05 0.0508962)
(0.107131 3.95949e-05 0.0508731)
(0.107103 3.84107e-05 0.0508601)
(0.107065 1.79227e-05 0.0508606)
(0.156268 8.2938e-06 0.0627394)
(0.156321 4.47805e-05 0.0625583)
(0.156301 8.28806e-05 0.062488)
(0.156248 9.52756e-05 0.0624649)
(0.156178 9.1022e-05 0.0624777)
(0.15609 4.25199e-05 0.0625332)
(0.213485 4.09012e-05 0.0843594)
(0.213489 0.000109194 0.0841417)
(0.213408 0.000147602 0.0840871)
(0.213281 0.000153765 0.0841124)
(0.213133 0.000132208 0.0842079)
(0.212967 5.84205e-05 0.0843808)
(0.288643 8.18193e-05 0.126995)
(0.288543 0.000162361 0.126883)
(0.288409 0.000164187 0.126931)
(0.288251 0.000149804 0.12708)
(0.288091 0.00010533 0.127312)
(0.287924 3.98601e-05 0.127606)
(0.319242 1.25429e-05 0.194558)
(0.318919 -6.9983e-05 0.194755)
(0.318694 -0.000204215 0.194991)
(0.318491 -0.000278427 0.19526)
(0.318339 -0.00028848 0.195565)
(0.318289 -0.000130588 0.195822)
(0.282072 -0.000168952 0.212855)
(0.281629 -0.000432978 0.213401)
(0.281396 -0.000556618 0.213537)
(0.281245 -0.000581721 0.2135)
(0.281238 -0.000502651 0.21332)
(0.281461 -0.000211284 0.213762)
(0.0456056 -0.000288814 0.292758)
(0.0453261 -0.000581389 0.293235)
(0.0452031 -0.000553267 0.293319)
(0.0452454 -0.000586472 0.293135)
(0.0455048 -0.000519245 0.292176)
(0.0451511 -0.00019316 0.293894)
(0.0051126 -2.34596e-07 0.0419951)
(0.00511383 -6.51369e-08 0.0419948)
(0.00511406 5.83221e-07 0.0419951)
(0.00511387 1.02291e-06 0.0419954)
(0.00511332 1.22105e-06 0.0419953)
(0.00511263 6.66092e-07 0.0419955)
(0.015423 -5.98229e-08 0.0438062)
(0.0154271 4.48952e-07 0.043806)
(0.0154277 1.40624e-06 0.0438056)
(0.0154269 2.03981e-06 0.0438047)
(0.0154249 2.31164e-06 0.0438029)
(0.0154224 1.15541e-06 0.0438007)
(0.0257689 -3.05063e-07 0.0473391)
(0.0257758 9.42448e-07 0.04734)
(0.0257755 3.11878e-06 0.0473391)
(0.0257725 4.16822e-06 0.0473369)
(0.0257676 4.27465e-06 0.0473335)
(0.025762 1.9409e-06 0.04733)
(0.0355669 1.26629e-06 0.0517355)
(0.0355749 5.98375e-06 0.0517308)
(0.0355717 1.03162e-05 0.0517259)
(0.0355643 1.13569e-05 0.0517202)
(0.0355547 1.01778e-05 0.0517132)
(0.0355443 4.33463e-06 0.0517064)
(0.0432534 8.15677e-06 0.0559244)
(0.0432602 2.14397e-05 0.0558982)
(0.0432517 2.71201e-05 0.055882)
(0.0432378 2.60098e-05 0.0558687)
(0.0432216 2.13011e-05 0.0558565)
(0.0432039 8.95304e-06 0.0558477)
(0.0455668 2.36328e-05 0.0567729)
(0.0455655 5.10467e-05 0.056699)
(0.0455481 5.3823e-05 0.0566613)
(0.0455246 4.69067e-05 0.056638)
(0.0454981 3.5226e-05 0.0566249)
(0.0454688 1.43913e-05 0.0566274)
(0.0369791 5.00272e-05 0.0490909)
(0.0369551 9.30841e-05 0.0489607)
(0.0369309 7.83316e-05 0.048912)
(0.0369056 5.69192e-05 0.0488992)
(0.036874 3.08225e-05 0.0489155)
(0.0368331 8.6029e-06 0.0489709)
(0.0138573 6.68113e-05 0.0151217)
(0.0137943 8.78084e-05 0.0149768)
(0.0137731 1.10883e-05 0.0149658)
(0.0137569 -4.08649e-05 0.0150148)
(0.0137279 -7.2512e-05 0.0151139)
(0.0136809 -4.24895e-05 0.0152758)
(-0.0232396 1.24239e-05 -0.0763697)
(-0.0234164 -6.68314e-05 -0.0764114)
(-0.0234708 -0.000205187 -0.0763232)
(-0.0234936 -0.000265996 -0.0761656)
(-0.0235199 -0.000265593 -0.0759827)
(-0.0235465 -0.000126624 -0.0757352)
(-0.0369801 -3.05947e-05 -0.213898)
(-0.0373347 -0.000160401 -0.21373)
(-0.0373587 -0.000306749 -0.213558)
(-0.0372119 -0.000353248 -0.21336)
(-0.0369503 -0.000313367 -0.213235)
(-0.037234 -0.000139171 -0.213036)
(-0.0554662 -2.79784e-05 -0.895267)
(-0.0559557 -0.00028572 -0.894948)
(-0.055757 -0.000644976 -0.895007)
(-0.0552165 -0.00099726 -0.895013)
(-0.0538555 0.000173595 -0.895426)
(-0.0554187 0.000780912 -0.895542)
(0.0969557 0.000144805 -1.05751)
(0.0964435 0.000155 -1.05833)
(0.0963814 -0.000442445 -1.05864)
(0.0979442 -0.00225623 -1.05809)
(0.102012 0.00251994 -1.05753)
(0.0940223 0.00432627 -1.06066)
(0.109202 2.96648e-05 -1.89154)
(0.109211 2.34074e-05 -1.89194)
(0.109208 -1.15449e-05 -1.89187)
(0.109214 -1.08168e-05 -1.89185)
(0.109218 -3.30261e-05 -1.89193)
(0.109193 -3.01192e-05 -1.89154)
(0.0280109 3.29771e-05 -2.22855)
(0.0280085 2.6395e-05 -2.22882)
(0.0280086 -8.50732e-06 -2.22878)
(0.0280085 -8.4945e-07 -2.22878)
(0.0280076 -2.99069e-05 -2.22883)
(0.0280068 -3.2928e-05 -2.22855)
(0.0191751 2.02023e-05 -2.1697)
(0.0191751 2.17776e-05 -2.16985)
(0.0191754 2.84293e-06 -2.16983)
(0.0191749 4.12259e-06 -2.16983)
(0.019174 -1.60591e-05 -2.16985)
(0.0191737 -1.87781e-05 -2.16969)
(0.175106 4.1741e-05 -1.95488)
(0.17514 2.367e-05 -1.9553)
(0.175143 -8.67427e-06 -1.95523)
(0.175139 -7.42555e-06 -1.95522)
(0.175138 -2.67868e-05 -1.95529)
(0.175104 -4.22295e-05 -1.95482)
(-0.0312946 3.35207e-05 -2.3255)
(-0.0312962 3.04631e-05 -2.32578)
(-0.0312984 -9.41278e-06 -2.32574)
(-0.0312984 -1.59509e-06 -2.32574)
(-0.0312983 -4.1564e-05 -2.32578)
(-0.0313078 -4.06334e-05 -2.32547)
(0.0432557 2.11354e-05 -2.23717)
(0.0432529 2.25199e-05 -2.23732)
(0.0432523 2.61419e-06 -2.2373)
(0.0432512 2.49816e-06 -2.23729)
(0.0432497 -2.04857e-05 -2.23732)
(0.0432513 -2.2443e-05 -2.23716)
(0.568115 3.49364e-05 -1.6431)
(0.568159 1.60822e-05 -1.64352)
(0.568154 -1.04214e-05 -1.64345)
(0.568145 -1.89845e-06 -1.64345)
(0.568145 -2.71523e-05 -1.64352)
(0.568099 -4.69338e-05 -1.64303)
(0.0364181 3.1888e-05 -2.31814)
(0.0364032 2.92933e-05 -2.31842)
(0.036403 -1.19717e-05 -2.31837)
(0.0364048 -2.7277e-06 -2.31837)
(0.0364061 -4.73746e-05 -2.31841)
(0.0364163 -4.55147e-05 -2.31811)
(0.0639316 1.94344e-05 -2.14032)
(0.0639286 1.71924e-05 -2.14046)
(0.0639268 -2.02011e-06 -2.14044)
(0.0639256 -2.41077e-06 -2.14044)
(0.0639238 -2.28464e-05 -2.14046)
(0.0639275 -2.28771e-05 -2.14031)
(0.834142 3.21228e-05 -1.82477)
(0.834145 1.65721e-05 -1.82521)
(0.834139 -1.32718e-05 -1.82513)
(0.834132 -1.90977e-07 -1.82513)
(0.834131 -3.72026e-05 -1.82523)
(0.834111 -5.81819e-05 -1.82476)
(0.0262393 3.2059e-05 -2.54694)
(0.0262087 2.71654e-05 -2.54722)
(0.0262161 -1.38602e-05 -2.54717)
(0.0262198 -9.21011e-07 -2.54716)
(0.0262195 -4.13979e-05 -2.54721)
(0.0262584 -4.12249e-05 -2.54693)
(0.0630551 1.99575e-05 -2.25856)
(0.0630578 1.40869e-05 -2.25871)
(0.0630565 -6.01045e-06 -2.2587)
(0.0630558 -3.27895e-06 -2.2587)
(0.0630554 -2.03075e-05 -2.25873)
(0.0630541 -2.0645e-05 -2.25859)
(0.905386 2.762e-05 -1.80997)
(0.905376 1.35277e-05 -1.8104)
(0.905369 -1.2562e-05 -1.81034)
(0.905363 1.61072e-06 -1.81034)
(0.905352 -3.03102e-05 -1.81044)
(0.905343 -5.20616e-05 -1.81001)
(-0.0500175 3.25605e-05 -2.60685)
(-0.0500533 3.04701e-05 -2.60713)
(-0.0500415 -7.9312e-06 -2.60708)
(-0.0500351 6.10831e-06 -2.60707)
(-0.0500392 -3.1279e-05 -2.60713)
(-0.049987 -3.51216e-05 -2.60686)
(0.0325261 2.26517e-05 -2.28556)
(0.0325309 1.82229e-05 -2.28571)
(0.03253 -3.2993e-06 -2.2857)
(0.0325283 -7.23513e-07 -2.28571)
(0.0325272 -1.8495e-05 -2.28573)
(0.0325213 -2.03771e-05 -2.28557)
(0.802232 3.37332e-05 -2.02743)
(0.802226 1.72853e-05 -2.02777)
(0.802227 -1.82849e-05 -2.02771)
(0.802237 -8.82401e-06 -2.0277)
(0.802222 -1.88561e-05 -2.02774)
(0.802227 -3.20162e-05 -2.02744)
(-0.138345 2.99672e-05 -2.69402)
(-0.138387 2.65007e-05 -2.69429)
(-0.138374 -7.10108e-06 -2.69425)
(-0.138374 4.07115e-06 -2.69425)
(-0.13838 -2.6175e-05 -2.69428)
(-0.138347 -2.71126e-05 -2.69402)
(0.00954508 2.16284e-05 -2.41823)
(0.00955146 1.98189e-05 -2.41837)
(0.00954883 -2.32558e-06 -2.41836)
(0.00954594 -5.69324e-06 -2.41836)
(0.00954583 -2.14496e-05 -2.41838)
(0.00953511 -1.939e-05 -2.41822)
(0.233162 6.44813e-06 -3.22442)
(0.233169 7.70242e-06 -3.22464)
(0.233145 -2.41382e-06 -3.22464)
(0.233053 -4.04261e-06 -3.22472)
(0.233027 5.437e-06 -3.22481)
(0.233102 5.68066e-06 -3.22445)
(-0.0942815 1.6172e-05 -2.37296)
(-0.0943064 1.21786e-05 -2.37318)
(-0.0942886 -1.38928e-05 -2.37316)
(-0.0942789 -6.70787e-07 -2.37315)
(-0.0942561 -5.00766e-05 -2.37318)
(-0.0943196 -5.91734e-05 -2.37293)
(-0.0337941 1.74706e-05 -2.54377)
(-0.0337814 1.76401e-05 -2.5439)
(-0.0337892 -2.2796e-06 -2.54389)
(-0.033794 -6.23673e-06 -2.54389)
(-0.03379 -1.9544e-05 -2.54393)
(-0.0337887 -1.66539e-05 -2.54375)
(-2.07848 3.79655e-05 -4.65463)
(-2.07858 7.46825e-05 -4.65514)
(-2.07865 4.73662e-05 -4.655)
(-2.0788 0.000113733 -4.65492)
(-2.07888 -4.22058e-05 -4.65519)
(-2.0786 -0.000129001 -4.65444)
(-1.16089 4.176e-05 -2.79361)
(-1.16092 -5.82422e-07 -2.79401)
(-1.16096 -7.10616e-05 -2.79392)
(-1.16101 -3.71614e-05 -2.79387)
(-1.16094 -7.84323e-05 -2.79396)
(-1.16117 -6.89484e-05 -2.79374)
(0.335662 3.50965e-05 -2.57004)
(0.335707 3.1422e-05 -2.57015)
(0.335682 -1.18867e-05 -2.57015)
(0.33566 1.79708e-06 -2.57019)
(0.335654 -7.06933e-06 -2.57028)
(0.335642 -1.57306e-05 -2.57005)
(4.42528 5.03949e-05 4.99049)
(4.42529 0.000169023 4.9902)
(4.4253 0.000260745 4.99028)
(4.42537 0.000281193 4.99055)
(4.42544 0.000133441 4.99048)
(4.42549 -6.53105e-05 4.99054)
(-1.50468 8.62155e-05 -1.01041)
(-1.50479 4.08763e-05 -1.01111)
(-1.50469 -4.8368e-05 -1.01074)
(-1.50456 -3.49858e-06 -1.01029)
(-1.50444 -6.27133e-06 -1.01033)
(-1.50481 -2.02647e-06 -1.01031)
(-0.46935 3.96197e-05 -2.4498)
(-0.469274 -2.74199e-05 -2.44991)
(-0.46934 -0.000137396 -2.44995)
(-0.469392 -0.000101296 -2.45003)
(-0.469372 -3.15348e-05 -2.45014)
(-0.469403 -6.37055e-06 -2.44974)
(5.66382 0.000214552 8.98248)
(5.66437 0.000280577 8.98323)
(5.66408 0.000246846 8.98307)
(5.66424 0.000287867 8.98316)
(5.66451 0.00021545 8.98332)
(5.66448 -3.13358e-06 8.98314)
(4.77646 0.000494612 7.82868)
(4.77655 0.000657944 7.82991)
(4.77633 0.000356851 7.8296)
(4.77643 0.000420547 7.82977)
(4.77647 -0.000207126 7.82997)
(4.77629 -0.000519031 7.83005)
(3.15508 0.000227714 4.15812)
(3.15501 0.000296017 4.15888)
(3.15507 0.000135552 4.15903)
(3.15513 0.000189559 4.15942)
(3.15517 -0.000405937 4.15889)
(3.15509 -0.00057298 4.16079)
(3.57181 0.000286354 5.39566)
(3.57308 0.000281344 5.39765)
(3.57264 0.0001009 5.39689)
(3.57259 0.000164715 5.39678)
(3.57301 -2.62299e-05 5.39701)
(3.57246 -0.000154563 5.39668)
(-0.543127 0.000254836 7.15474)
(-0.536779 0.000368707 7.15777)
(-0.538657 0.000275073 7.15674)
(-0.538313 0.000222479 7.15649)
(-0.533864 0.000427482 7.15675)
(-0.544423 0.000251613 7.15662)
(2.9371 0.000182784 9.29428)
(2.93951 0.000267939 9.29654)
(2.93842 -4.17045e-06 9.29629)
(2.93881 0.000117395 9.29656)
(2.94137 0.000175687 9.29627)
(2.93432 -0.000138478 9.29768)
(1.81268 3.88627e-05 2.7263)
(1.81323 7.42824e-05 2.7271)
(1.81317 5.12334e-05 2.72689)
(1.81323 6.41816e-05 2.72679)
(1.81388 -2.58041e-05 2.72693)
(1.81254 -0.000101186 2.72676)
(2.41178 0.000158097 3.16394)
(2.41293 0.000158904 3.16595)
(2.41271 0.000154444 3.1653)
(2.41174 0.000306988 3.16531)
(2.41106 -0.000291336 3.16618)
(2.41348 -0.000503193 3.16428)
(3.66281 0.000456379 -1.12871)
(3.66318 0.000307274 -1.11941)
(3.66293 -0.000671707 -1.12235)
(3.66182 -0.000291247 -1.12229)
(3.6626 4.98553e-05 -1.11806)
(3.66173 -0.000354689 -1.12971)
(6.39714 0.00177739 -2.10162)
(6.40022 0.00137267 -2.09689)
(6.39797 -0.00270475 -2.08996)
(6.39667 -0.00713994 -2.10819)
(6.39379 -0.000612136 -2.12439)
(6.41246 0.00535118 -2.09046)
(-5.48157 0.0119467 2.15617)
(-5.48222 0.0128341 2.16412)
(-5.47843 -0.0129565 2.16505)
(-5.47924 0.00487572 2.15833)
(-5.44531 -0.0446943 2.17151)
(-5.51204 -0.0623866 2.1246)
(-3.11429 0.0187152 5.79068)
(-3.06707 0.024703 5.94684)
(-3.0525 -0.01393 5.97874)
(-3.11376 0.0228617 5.82454)
(-2.89207 -0.0693626 6.43152)
(-3.27079 -0.123521 5.28751)
(2.75864 -0.000241867 -5.29339)
(2.757 0.000209544 -5.29673)
(2.75632 -0.000685836 -5.29428)
(2.75972 -0.00136942 -5.29593)
(2.76222 0.00334028 -5.30385)
(2.76374 0.00449934 -5.28832)
(3.37553 0.00039863 -1.32014)
(3.37756 0.0011312 -1.32091)
(3.37751 -0.00482349 -1.32032)
(3.38724 -0.00430939 -1.31755)
(3.43273 0.00396093 -1.30152)
(3.33377 0.00323433 -1.33096)
(5.388 0.00334093 11.926)
(5.40012 0.00446618 11.9374)
(5.39779 -0.00837768 11.9341)
(5.39954 -0.00580016 11.9134)
(5.43618 -0.000366675 11.8339)
(5.3522 -0.0047222 12.0095)
(2.94483 -0.00063741 -3.57009)
(2.94269 0.000186666 -3.57224)
(2.94187 0.000422213 -3.57145)
(2.95026 0.00229977 -3.5676)
(2.95614 -9.83532e-05 -3.55206)
(2.94238 -0.00311494 -3.59283)
(5.85151 0.000367874 0.251998)
(5.8517 0.00101254 0.252801)
(5.85048 -0.00542097 0.252047)
(5.85733 -0.00693203 0.253734)
(5.86872 0.00866244 0.261301)
(5.84127 0.00988102 0.244854)
(7.61211 0.0010129 3.48286)
(7.61788 0.00175694 3.49411)
(7.61612 -0.00743812 3.50219)
(7.61791 -0.00855505 3.43222)
(7.64059 0.00611268 3.30282)
(7.58767 0.0112385 3.63862)
(1.17215 -2.92979e-05 -2.48314)
(1.17253 0.000602722 -2.48465)
(1.17297 0.00180839 -2.48473)
(1.17334 0.00171607 -2.48119)
(1.17235 0.000641437 -2.47851)
(1.17394 -0.00133117 -2.48881)
(5.03585 0.000154441 0.501147)
(5.03664 0.000123272 0.503296)
(5.03655 -0.00211901 0.502852)
(5.03235 -0.00196807 0.497219)
(5.03144 0.00256627 0.493589)
(5.03769 0.00297855 0.507594)
(7.51442 0.000666019 -9.30968)
(7.51975 0.00140675 -9.30842)
(7.52189 -0.00242367 -9.30805)
(7.50167 -0.000405202 -9.32012)
(7.48036 -0.000578058 -9.31632)
(7.54244 0.00147364 -9.30816)
(0.68377 0.000207547 -0.256022)
(0.683086 0.000488698 -0.257049)
(0.682992 0.000753232 -0.257108)
(0.685087 0.00084369 -0.254263)
(0.688485 -0.000293988 -0.246527)
(0.680641 -0.000615047 -0.263821)
(3.11646 -3.96079e-05 0.541942)
(3.11713 6.41891e-05 0.543342)
(3.1172 0.00114478 0.542824)
(3.1152 0.00223305 0.542402)
(3.11576 -0.00184931 0.541276)
(3.11673 -0.00316394 0.542659)
(4.31133 0.000526324 -2.39192)
(4.309 0.000497135 -2.39481)
(4.30831 -0.000466658 -2.39501)
(4.31482 -0.00176243 -2.37821)
(4.32362 0.00218257 -2.36343)
(4.29841 0.00266868 -2.40998)
(1.67893 2.81263e-05 1.3833)
(1.67916 0.000181258 1.38352)
(1.6793 0.000377054 1.38341)
(1.67934 0.00139 1.38344)
(1.67987 -0.00116353 1.38439)
(1.67892 -0.00233806 1.38272)
(2.99785 0.000226735 1.47786)
(2.99816 0.000323516 1.4793)
(2.99803 -0.000468929 1.4785)
(2.99973 -0.00122273 1.47961)
(3.00277 0.00138157 1.48244)
(2.99515 0.00201524 1.47502)
(4.68573 0.000299813 -0.55575)
(4.68573 0.000239421 -0.550553)
(4.68537 -9.97718e-06 -0.550191)
(4.68285 0.000735929 -0.557222)
(4.68348 -0.00113341 -0.566838)