/*--------------------------------*- C++ -*----------------------------------*\
| =========                 |                                                 |
| \\      /  F ield         | OpenFOAM: The Open Source CFD Toolbox           |
|  \\    /   O peration     | Version:  v1612+                                |
|   \\  /    A nd           | Web:      www.OpenFOAM.com                      |
|    \\/     M anipulation  |                                                 |
\*---------------------------------------------------------------------------*/
FoamFile
{
    version     2.0;
    format      ascii;
    class       volScalarField;
    location    "2.2";
    object      alpha.water;
}
// * * * * * * * * * * * * * * * * * * * * * * * * * * * * * * * * * * * * * //

dimensions      [0 0 0 0 0 0 0];

internalField   nonuniform List<scalar> 
1116
(
0.999158
0.999158
0.999158
0.999158
0.999158
0.999158
0.999158
0.999158
0.999158
0.999158
0.999158
0.999158
0.998637
0.998637
0.998637
0.998637
0.998637
0.998637
0.997922
0.997922
0.997922
0.997922
0.997922
0.997922
0.997347
0.997347
0.997347
0.997347
0.997347
0.997347
0.996664
0.996663
0.996663
0.996663
0.996663
0.996664
0.991817
0.991817
0.991817
0.991816
0.991816
0.991816
0.967956
0.967954
0.967954
0.967953
0.967953
0.967952
0.913405
0.913386
0.913396
0.913395
0.913392
0.913395
0.914275
0.914266
0.914266
0.914266
0.914264
0.914265
0.913243
0.91323
0.913234
0.913234
0.913231
0.913233
0.902269
0.902273
0.902271
0.902272
0.902275
0.902266
0.999158
0.999158
0.999158
0.999158
0.999158
0.999158
0.925079
0.925076
0.925077
0.925078
0.925078
0.925079
0.884943
0.88494
0.884941
0.884941
0.884941
0.884944
0.825326
0.82532
0.825322
0.825322
0.825321
0.825325
0.768717
0.768713
0.768713
0.768712
0.76871
0.768713
0.660655
0.660651
0.660651
0.660648
0.660646
0.660647
0.497283
0.497278
0.497277
0.497273
0.49727
0.497268
0.314131
0.314126
0.314123
0.31412
0.314116
0.314112
0.124497
0.124495
0.124495
0.124493
0.124491
0.12449
0.137973
0.137967
0.137969
0.137967
0.137966
0.137964
0.304629
0.304607
0.304613
0.304609
0.304591
0.304616
0.786778
0.786769
0.786772
0.786769
0.786755
0.786781
0.728779
0.728776
0.728779
0.728779
0.72878
0.728787
0.236065
0.23606
0.236061
0.236063
0.236064
0.236065
0.122239
0.122236
0.122236
0.122237
0.122237
0.12224
0.06274
0.0627355
0.0627357
0.0627359
0.0627362
0.0627377
2.21248e-09
2.21053e-09
2.21196e-09
2.2163e-09
2.22307e-09
2.22587e-09
2.2482e-11
2.24842e-11
2.24968e-11
2.25077e-11
2.25104e-11
2.25046e-11
4.48377e-11
4.48383e-11
4.48352e-11
4.48208e-11
4.48077e-11
4.48021e-11
1.455e-10
1.45491e-10
1.45507e-10
1.45485e-10
1.45482e-10
1.45401e-10
-1.35415e-09
-1.35475e-09
-1.35422e-09
-1.35424e-09
-1.35505e-09
-1.35372e-09
-2.37622e-06
-2.37613e-06
-2.37594e-06
-2.37564e-06
-2.37494e-06
-2.37682e-06
0.000754021
0.000753994
0.000754034
0.000754007
0.000753891
0.000754089
0.644713
0.644693
0.644702
0.644698
0.644668
0.644739
0.033235
0.0332344
0.0332351
0.0332353
0.033236
0.0332391
1.4214e-06
1.42121e-06
1.4213e-06
1.42115e-06
1.4211e-06
1.42179e-06
5.01259e-08
5.01197e-08
5.01203e-08
5.0126e-08
5.01311e-08
5.01268e-08
4.029e-09
4.0288e-09
4.02861e-09
4.02894e-09
4.02892e-09
4.02707e-09
1.18823e-11
1.18827e-11
1.18976e-11
1.19135e-11
1.19249e-11
1.19346e-11
3.76218e-13
3.76274e-13
3.76456e-13
3.76347e-13
3.76528e-13
3.75612e-13
3.95419e-11
3.95424e-11
3.95388e-11
3.95253e-11
3.95116e-11
3.9511e-11
4.49317e-11
4.49324e-11
4.49295e-11
4.4915e-11
4.49019e-11
4.48961e-11
-4.25836e-10
-4.25653e-10
-4.25909e-10
-4.25762e-10
-4.25468e-10
-4.25854e-10
2.97301e-09
3.05232e-09
2.98971e-09
3.01051e-09
3.11279e-09
3.04842e-09
6.24049e-05
6.24151e-05
6.24186e-05
6.24143e-05
6.23858e-05
6.24414e-05
0.494418
0.494388
0.494402
0.494417
0.494444
0.494356
2.15337e-62
2.15744e-62
2.15728e-62
2.15755e-62
2.15857e-62
2.15483e-62
4.4383e-58
4.4466e-58
4.44631e-58
4.44691e-58
4.44906e-58
4.4417e-58
4.98734e-54
4.99556e-54
4.99497e-54
4.99536e-54
4.99752e-54
4.98925e-54
3.86664e-50
3.87129e-50
3.87025e-50
3.8702e-50
3.87166e-50
3.86552e-50
2.11776e-46
2.11881e-46
2.11775e-46
2.11749e-46
2.11827e-46
2.11534e-46
7.53381e-43
7.53214e-43
7.52716e-43
7.52645e-43
7.53065e-43
7.52395e-43
1.48171e-39
1.48126e-39
1.48063e-39
1.48104e-39
1.48265e-39
1.48264e-39
1.1786e-36
1.17951e-36
1.18006e-36
1.18139e-36
1.18373e-36
1.18503e-36
2.64964e-34
2.65995e-34
2.66586e-34
2.67221e-34
2.68013e-34
2.68555e-34
4.96711e-33
4.96945e-33
4.96893e-33
4.97185e-33
4.97923e-33
4.98085e-33
4.1201e-30
4.12814e-30
4.12901e-30
4.13135e-30
4.13672e-30
4.13743e-30
1.96849e-27
1.97329e-27
1.97352e-27
1.97369e-27
1.97444e-27
1.972e-27
5.02872e-59
5.03818e-59
5.03776e-59
5.03818e-59
5.04033e-59
5.03105e-59
1.07261e-54
1.07461e-54
1.07453e-54
1.07463e-54
1.07508e-54
1.07318e-54
1.21562e-50
1.21773e-50
1.21759e-50
1.21764e-50
1.2181e-50
1.21595e-50
9.21142e-47
9.22498e-47
9.22309e-47
9.22282e-47
9.22576e-47
9.20999e-47
4.77166e-43
4.77686e-43
4.77526e-43
4.77477e-43
4.77617e-43
4.76865e-43
1.54422e-39
1.54536e-39
1.54472e-39
1.54458e-39
1.54519e-39
1.54323e-39
2.69702e-36
2.69897e-36
2.69829e-36
2.69868e-36
2.70062e-36
2.6987e-36
2.08059e-33
2.08374e-33
2.08442e-33
2.08577e-33
2.08826e-33
2.08798e-33
5.89596e-31
5.91697e-31
5.92438e-31
5.93114e-31
5.93951e-31
5.93902e-31
7.87275e-30
7.8641e-30
7.86044e-30
7.8647e-30
7.87751e-30
7.88428e-30
6.12635e-27
6.13594e-27
6.13649e-27
6.13917e-27
6.14626e-27
6.14691e-27
1.90398e-24
1.90797e-24
1.908e-24
1.90798e-24
1.9085e-24
1.90604e-24
4.70752e-56
4.71647e-56
4.71607e-56
4.71636e-56
4.71819e-56
4.70915e-56
1.04399e-51
1.04597e-51
1.04588e-51
1.04595e-51
1.04635e-51
1.04441e-51
1.18036e-47
1.18248e-47
1.18236e-47
1.18239e-47
1.18279e-47
1.18062e-47
8.5546e-44
8.56856e-44
8.56718e-44
8.56699e-44
8.5695e-44
8.55419e-44
4.1334e-40
4.13929e-40
4.13834e-40
4.13805e-40
4.13914e-40
4.13213e-40
1.27123e-36
1.27285e-36
1.27252e-36
1.27243e-36
1.27281e-36
1.27086e-36
2.27248e-33
2.27537e-33
2.27495e-33
2.27501e-33
2.27595e-33
2.27302e-33
1.98887e-30
1.9919e-30
1.99192e-30
1.9923e-30
1.99338e-30
1.99117e-30
7.93241e-28
7.94825e-28
7.94997e-28
7.9519e-28
7.95597e-28
7.94598e-28
5.2803e-26
5.30296e-26
5.30526e-26
5.30324e-26
5.30219e-26
5.28545e-26
5.99483e-24
6.00387e-24
6.00375e-24
6.00473e-24
6.00899e-24
6.00621e-24
8.99964e-22
9.01616e-22
9.01555e-22
9.01444e-22
9.01526e-22
9.00181e-22
2.19265e-53
2.19688e-53
2.19669e-53
2.19678e-53
2.19757e-53
2.19319e-53
5.01964e-49
5.02925e-49
5.02882e-49
5.02906e-49
5.03082e-49
5.02117e-49
5.55386e-45
5.56409e-45
5.56351e-45
5.56361e-45
5.56538e-45
5.55484e-45
3.76161e-41
3.76813e-41
3.76762e-41
3.76755e-41
3.7686e-41
3.76164e-41
1.64041e-37
1.64307e-37
1.64279e-37
1.64271e-37
1.64311e-37
1.64017e-37
4.44572e-34
4.4525e-34
4.45167e-34
4.45141e-34
4.45246e-34
4.44482e-34
6.85246e-31
6.86239e-31
6.8612e-31
6.86094e-31
6.86271e-31
6.85174e-31
5.41283e-28
5.42064e-28
5.42001e-28
5.42004e-28
5.42162e-28
5.41345e-28
2.25564e-25
2.25906e-25
2.25891e-25
2.25891e-25
2.25991e-25
2.25571e-25
4.34406e-23
4.35275e-23
4.35173e-23
4.34946e-23
4.35603e-23
4.33226e-23
1.97014e-21
1.97299e-21
1.97281e-21
1.97279e-21
1.97348e-21
1.97153e-21
1.67297e-19
1.67553e-19
1.67534e-19
1.67508e-19
1.67512e-19
1.67257e-19
6.15619e-07
6.12456e-07
6.11605e-07
6.06966e-07
6.03537e-07
6.1484e-07
1.90346e-06
1.90316e-06
1.90379e-06
1.90445e-06
1.90423e-06
1.90419e-06
-4.14946e-14
-4.54519e-14
-4.6654e-14
-4.56165e-14
-4.5348e-14
-4.64287e-14
5.71324e-07
5.65553e-07
5.68533e-07
5.59932e-07
5.52289e-07
5.77253e-07
6.69669e-05
6.69659e-05
6.69652e-05
6.69652e-05
6.69707e-05
6.69752e-05
-2.0182e-13
-2.21058e-13
-2.26914e-13
-2.21867e-13
-2.20557e-13
-2.25828e-13
2.96042e-07
2.91891e-07
2.93684e-07
2.87984e-07
2.83909e-07
3.02075e-07
1.45334e-10
1.10351e-10
1.42665e-10
4.62627e-11
7.54662e-19
1.45242e-10
-1.21955e-12
-1.33582e-12
-1.37118e-12
-1.34067e-12
-1.33278e-12
-1.36459e-12
8.67186e-07
8.67424e-07
8.67256e-07
8.68105e-07
8.68698e-07
8.66395e-07
1.34683e-06
1.34687e-06
1.34688e-06
1.34688e-06
1.34688e-06
1.34691e-06
-1.29133e-12
-1.41439e-12
-1.45179e-12
-1.41946e-12
-1.4111e-12
-1.44469e-12
6.93763e-07
6.93731e-07
6.93717e-07
6.93831e-07
6.93881e-07
6.9348e-07
1.3306e-06
1.33012e-06
1.33008e-06
1.33024e-06
1.33027e-06
1.3298e-06
-3.17038e-16
-3.76716e-16
-4.25836e-16
-4.05979e-16
-3.86475e-16
1.86132e-29
2.38691e-15
2.38915e-15
2.38957e-15
2.38975e-15
2.39059e-15
2.38552e-15
3.9395e-17
3.94651e-17
3.95286e-17
3.95848e-17
3.9576e-17
3.95035e-17
3.44583e-17
3.45808e-17
3.45764e-17
3.46727e-17
3.46725e-17
3.45586e-17
3.76468e-13
3.7653e-13
3.76711e-13
3.7661e-13
3.76794e-13
3.75867e-13
2.31048e-15
2.3184e-15
2.31748e-15
2.32492e-15
2.32855e-15
2.31434e-15
1.72049e-18
1.67029e-18
1.67143e-18
1.62678e-18
1.59959e-18
1.70584e-18
3.06005e-11
3.05968e-11
3.06118e-11
3.06033e-11
3.06189e-11
3.0551e-11
-2.39671e-12
-2.39582e-12
-2.39643e-12
-2.39362e-12
-2.39305e-12
-2.39342e-12
-5.94814e-17
-5.56182e-17
-5.57947e-17
-5.49741e-17
-5.65784e-17
-5.43344e-17
2.49007e-09
2.48998e-09
2.49028e-09
2.4899e-09
2.49218e-09
2.48603e-09
1.55035e-10
1.55022e-10
1.54991e-10
1.54996e-10
1.55559e-10
1.54093e-10
3.73832e-10
3.75207e-10
3.74957e-10
3.76316e-10
3.7714e-10
3.74048e-10
4.53178e-08
4.52697e-08
4.53018e-08
4.52912e-08
4.53516e-08
4.51718e-08
9.36244e-09
9.36292e-09
9.36364e-09
9.36518e-09
9.36577e-09
9.34965e-09
2.3939e-08
2.39345e-08
2.39254e-08
2.39185e-08
2.39288e-08
2.39369e-08
3.56833e-06
3.57089e-06
3.57152e-06
3.57116e-06
3.56419e-06
3.57859e-06
2.92529e-08
2.93332e-08
2.9368e-08
2.93678e-08
2.9066e-08
2.9742e-08
2.54776e-10
2.53988e-10
2.53957e-10
2.54255e-10
2.52743e-10
2.51898e-10
0.0705624
0.0705512
0.0705555
0.070569
0.0706017
0.0705039
3.52156e-06
3.52418e-06
3.52475e-06
3.52437e-06
3.51727e-06
3.53106e-06
-9.86338e-16
-1.58918e-15
-2.83589e-15
-9.43772e-16
9.96999e-18
1.00087e-17
4.60133e-13
4.60579e-13
4.59793e-13
4.61347e-13
4.76288e-13
4.44534e-13
1.16234e-10
1.1641e-10
1.16194e-10
1.16568e-10
1.20964e-10
1.11865e-10
1.9736e-17
1.97384e-17
1.96979e-17
1.92223e-17
1.97632e-17
1.97071e-17
8.1668e-11
8.21912e-11
8.22392e-11
8.19495e-11
8.50064e-11
8.04915e-11
1.4491e-10
1.46256e-10
1.45074e-10
1.45588e-10
1.49304e-10
1.22771e-10
4.4245e-09
4.42605e-09
4.42308e-09
4.43049e-09
4.48385e-09
4.3732e-09
9.59346e-09
9.57715e-09
9.57274e-09
9.58738e-09
9.52336e-09
9.55632e-09
1.13458e-08
1.13495e-08
1.13426e-08
1.13584e-08
1.14601e-08
1.12215e-08
1.34776e-06
1.34896e-06
1.34744e-06
1.35004e-06
1.37198e-06
1.3243e-06
1.06263e-08
1.06104e-08
1.05989e-08
1.05642e-08
1.05294e-08
1.05294e-08
8.7874e-09
8.80621e-09
8.75902e-09
8.75441e-09
8.75023e-09
8.08346e-09
0.00106766
0.00106783
0.00106751
0.00106813
0.00107293
0.0010621
0.00136449
0.00136513
0.00136371
0.00136509
0.00137264
0.00135389
0.00826349
0.00826351
0.00826204
0.0082653
0.00828112
0.00824036
0.00385198
0.00385267
0.00385187
0.00385358
0.00386622
0.00383804
0.0474318
0.0474299
0.0474261
0.0474384
0.0474978
0.0473474
0.0168757
0.0168762
0.0168755
0.0168803
0.0168959
0.0168575
5.5674e-05
5.57351e-05
5.5738e-05
5.57573e-05
5.54652e-05
5.60852e-05
4.68163e-51
4.6907e-51
4.69024e-51
4.69041e-51
4.69202e-51
4.68243e-51
8.07169e-53
8.08823e-53
8.08811e-53
8.08843e-53
8.09069e-53
8.07354e-53
3.22828e-56
3.23525e-56
3.23516e-56
3.2353e-56
3.23627e-56
3.22914e-56
1.06016e-46
1.06221e-46
1.06211e-46
1.06215e-46
1.06251e-46
1.06042e-46
3.69314e-48
3.70053e-48
3.70052e-48
3.70065e-48
3.70161e-48
3.69419e-48
1.69726e-51
1.70082e-51
1.70078e-51
1.70084e-51
1.7013e-51
1.69772e-51
1.09591e-42
1.09796e-42
1.09784e-42
1.09786e-42
1.0982e-42
1.09607e-42
7.9638e-44
7.97895e-44
7.97887e-44
7.97898e-44
7.98072e-44
7.96542e-44
4.57257e-47
4.58175e-47
4.58163e-47
4.58172e-47
4.58281e-47
4.5735e-47
6.61316e-39
6.62505e-39
6.62423e-39
6.62416e-39
6.62599e-39
6.61341e-39
1.02275e-39
1.02459e-39
1.02457e-39
1.02457e-39
1.02475e-39
1.02289e-39
8.07827e-43
8.09364e-43
8.09346e-43
8.09352e-43
8.0952e-43
8.07966e-43
2.49263e-35
2.49691e-35
2.49656e-35
2.49647e-35
2.49707e-35
2.49245e-35
8.29525e-36
8.30939e-36
8.30922e-36
8.30908e-36
8.31027e-36
8.29599e-36
1.03318e-38
1.03505e-38
1.03502e-38
1.03502e-38
1.0352e-38
1.03331e-38
5.82101e-32
5.83054e-32
5.82961e-32
5.82927e-32
5.8305e-32
5.82001e-32
4.27395e-32
4.281e-32
4.28088e-32
4.28075e-32
4.28119e-32
4.27413e-32
1.04572e-34
1.04757e-34
1.04755e-34
1.04754e-34
1.04767e-34
1.04582e-34
7.97232e-29
7.98464e-29
7.98324e-29
7.98261e-29
7.98405e-29
7.97008e-29
1.51847e-28
1.5208e-28
1.52066e-28
1.52049e-28
1.52293e-28
1.51566e-28
2.24846e-26
2.25131e-26
2.24987e-26
2.24869e-26
2.29209e-26
2.19881e-26
6.16706e-26
6.17601e-26
6.17482e-26
6.17417e-26
6.17569e-26
6.16397e-26
7.10942e-25
7.11863e-25
7.11566e-25
7.11311e-25
7.19289e-25
7.01867e-25
3.83966e-22
3.84406e-22
3.84204e-22
3.841e-22
3.91673e-22
3.75579e-22
3.39967e-23
3.40417e-23
3.4031e-23
3.40219e-23
3.41037e-23
3.38906e-23
3.02273e-21
3.02609e-21
3.02422e-21
3.02298e-21
3.07344e-21
2.96624e-21
1.20784e-18
1.20916e-18
1.20865e-18
1.20876e-18
1.23329e-18
1.18142e-18
2.63676e-20
2.63971e-20
2.63774e-20
2.63594e-20
2.65912e-20
2.60722e-20
4.63227e-18
4.63707e-18
4.63422e-18
4.63383e-18
4.71728e-18
4.53842e-18
3.17723e-17
3.17931e-17
3.17263e-17
3.16606e-17
3.20206e-17
3.13101e-17
2.18066e-17
2.1828e-17
2.1808e-17
2.17978e-17
2.21009e-17
2.14028e-17
3.28981e-15
3.29319e-15
3.29142e-15
3.29252e-15
3.35639e-15
3.21965e-15
9.97751e-16
9.98785e-16
9.98559e-16
9.99002e-16
1.01991e-15
9.75005e-16
4.76802e-15
4.76646e-15
4.7671e-15
4.76961e-15
4.80599e-15
4.70679e-15
1.20413e-12
1.20459e-12
1.20411e-12
1.20526e-12
1.22544e-12
1.18056e-12
4.19562e-13
4.20009e-13
4.19812e-13
4.20196e-13
4.2886e-13
4.10493e-13
)
;

boundaryField
{
    seabed_topleft_surface
    {
        type            zeroGradient;
    }
    seabed_topright_surface
    {
        type            zeroGradient;
    }
    breakwater_top_surface
    {
        type            zeroGradient;
    }
    breakwater_left_surface
    {
        type            zeroGradient;
    }
    breakwater_right_surface
    {
        type            zeroGradient;
    }
    water_front_surface
    {
        type            zeroGradient;
    }
    water_back_surface
    {
        type            zeroGradient;
    }
    water_left_surface
    {
        type            zeroGradient;
    }
    water_right_surface
    {
        type            zeroGradient;
    }
    water_top_surface
    {
        type            inletOutlet;
        inletValue      uniform 0;
        value           nonuniform List<scalar> 
180
(
0
0
0
0
0
0
0
0
0
0
0
0
0
0
0
0
0
0
0
0
0
0
0
0
0
0
0
0
0
0
0
0
0
0
0
0
0
0
0
0
0
0
0
0
0
0
0
0
0
0
0
0
0
0
2.3939e-08
2.39345e-08
2.39254e-08
2.39185e-08
2.39288e-08
2.39369e-08
0
0
0
0
0
0
0
0
0
0
0
0
0
0
0
0
0
0
4.4245e-09
4.42605e-09
4.42308e-09
4.43049e-09
4.48385e-09
4.3732e-09
1.34776e-06
1.34896e-06
1.34744e-06
1.35004e-06
1.37198e-06
1.3243e-06
0.00106766
0.00106783
0.00106751
0.00106813
0.00107293
0.0010621
0.00385198
0.00385267
0.00385187
0.00385358
0.00386622
0.00383804
5.5674e-05
5.57351e-05
5.5738e-05
5.57573e-05
5.54652e-05
5.60852e-05
0
0
0
0
0
0
0
0
0
0
0
0
0
0
0
0
0
0
0
0
0
0
0
0
0
0
0
0
0
0
0
0
0
0
0
0
0
0
0
0
0
0
0
0
0
0
0
0
0
0
0
0
0
0
0
0
0
0
0
0
0
0
0
0
0
0
4.19562e-13
4.20009e-13
4.19812e-13
4.20196e-13
4.2886e-13
4.10493e-13
)
;
    }
}


// ************************************************************************* //
