/*--------------------------------*- C++ -*----------------------------------*\
| =========                 |                                                 |
| \\      /  F ield         | OpenFOAM: The Open Source CFD Toolbox           |
|  \\    /   O peration     | Version:  v1612+                                |
|   \\  /    A nd           | Web:      www.OpenFOAM.com                      |
|    \\/     M anipulation  |                                                 |
\*---------------------------------------------------------------------------*/
FoamFile
{
    version     2.0;
    format      ascii;
    class       volScalarField;
    location    "2.2";
    object      p;
}
// * * * * * * * * * * * * * * * * * * * * * * * * * * * * * * * * * * * * * //

dimensions      [1 -1 -2 0 0 0 0];

internalField   nonuniform List<scalar> 
1116
(
24944.1
24944.1
24944.1
24944.1
24944.1
24944.1
23597.5
23597.5
23597.5
23597.5
23597.5
23597.5
19854.9
19854.9
19854.9
19854.9
19854.9
19854.9
16762.6
16762.6
16762.6
16762.6
16762.6
16762.6
14657.4
14657.4
14657.4
14657.4
14657.4
14657.4
13001.2
13001.2
13001.2
13001.2
13001.2
13001.2
11389.9
11389.9
11389.9
11389.9
11389.9
11389.8
9974.8
9974.8
9974.78
9974.74
9974.73
9974.73
9752.61
9752.6
9752.56
9752.52
9752.5
9752.49
12463.4
12463.4
12463.3
12463.3
12463.3
12463.3
17964.3
17964.3
17964.3
17964.3
17964.4
17964.4
26273.2
26273.2
26273.2
26273.2
26273.3
26273.3
14140.5
14140.5
14140.6
14140.6
14140.6
14140.6
11252.7
11252.7
11252.7
11252.7
11252.7
11252.7
7752.93
7752.91
7752.91
7752.92
7752.93
7752.95
5560.35
5560.32
5560.32
5560.32
5560.32
5560.34
3981.74
3981.72
3981.72
3981.71
3981.7
3981.72
3258.37
3258.36
3258.35
3258.34
3258.32
3258.32
2423.95
2423.92
2423.91
2423.89
2423.87
2423.86
1508.16
1508.13
1508.12
1508.09
1508.07
1508.05
619.323
619.307
619.289
619.276
619.279
619.277
892.544
892.551
892.528
892.511
892.523
892.507
3691.59
3691.68
3691.67
3691.64
3691.73
3691.64
17121.5
17121.6
17121.5
17121.5
17121.6
17121.7
4314.08
4314.08
4314.11
4314.1
4314.11
4314.18
1138.84
1138.82
1138.83
1138.83
1138.84
1138.85
578.847
578.832
578.835
578.838
578.84
578.852
272.118
272.102
272.101
272.102
272.103
272.108
-58.1843
-58.1853
-58.1853
-58.1855
-58.1862
-58.1871
-82.6323
-82.6304
-82.6297
-82.6304
-82.6317
-82.6336
-79.3683
-79.3659
-79.3637
-79.3625
-79.3631
-79.3637
-66.327
-66.3252
-66.3239
-66.3233
-66.3243
-66.3229
-16.4104
-16.412
-16.4167
-16.4224
-16.428
-16.4322
123.887
123.879
123.866
123.854
123.845
123.829
603.26
603.253
603.222
603.207
603.219
603.19
3550.68
3550.89
3550.86
3550.89
3550.87
3551.24
137.336
137.334
137.336
137.337
137.341
137.352
-63.8903
-63.8895
-63.8892
-63.8891
-63.8887
-63.8896
-45.5889
-45.5884
-45.5882
-45.588
-45.5879
-45.5884
-43.5978
-43.5979
-43.598
-43.598
-43.5979
-43.5978
-39.5549
-39.5548
-39.5547
-39.5548
-39.5548
-39.555
-43.481
-43.4807
-43.4808
-43.481
-43.4814
-43.4824
-57.7467
-57.7467
-57.7463
-57.7458
-57.7461
-57.7468
-73.1434
-73.1431
-73.1428
-73.1417
-73.141
-73.1382
-77.7938
-77.7947
-77.7964
-77.799
-77.8003
-77.8017
-50.4683
-50.4736
-50.477
-50.479
-50.4794
-50.4774
-34.4717
-34.4762
-34.4951
-34.503
-34.4842
-34.5098
475.33
475.35
475.315
475.354
475.415
475.22
-4.82178
-4.82179
-4.8218
-4.8218
-4.8218
-4.8218
-4.81691
-4.81692
-4.81692
-4.81692
-4.81692
-4.81692
-4.80695
-4.80696
-4.80696
-4.80696
-4.80695
-4.80695
-4.79158
-4.79159
-4.79159
-4.79158
-4.79157
-4.79157
-4.77046
-4.77046
-4.77046
-4.77044
-4.77043
-4.77042
-4.74357
-4.74356
-4.74354
-4.74351
-4.74348
-4.74346
-4.7117
-4.71167
-4.71162
-4.71157
-4.71151
-4.71146
-4.67517
-4.6751
-4.67501
-4.67491
-4.67483
-4.67476
-4.63541
-4.6353
-4.63519
-4.6351
-4.63502
-4.63498
-4.59833
-4.59826
-4.5982
-4.59818
-4.59819
-4.59821
-4.56252
-4.56252
-4.56256
-4.56264
-4.56273
-4.56283
-4.54084
-4.54092
-4.541
-4.54107
-4.54113
-4.54117
-14.6362
-14.6362
-14.6362
-14.6362
-14.6362
-14.6362
-14.6312
-14.6312
-14.6312
-14.6312
-14.6312
-14.6312
-14.6211
-14.6211
-14.6211
-14.6211
-14.6211
-14.6211
-14.6054
-14.6054
-14.6054
-14.6054
-14.6054
-14.6053
-14.5833
-14.5833
-14.5833
-14.5833
-14.5832
-14.5832
-14.5533
-14.5533
-14.5533
-14.5532
-14.5532
-14.5532
-14.5133
-14.5132
-14.5131
-14.5131
-14.513
-14.513
-14.4644
-14.4643
-14.4642
-14.4641
-14.4641
-14.4641
-14.4109
-14.4108
-14.4107
-14.4107
-14.4108
-14.4108
-14.3566
-14.3566
-14.3566
-14.3568
-14.357
-14.3571
-14.2932
-14.2934
-14.2936
-14.2938
-14.2941
-14.2943
-14.2544
-14.2546
-14.2547
-14.2548
-14.2547
-14.2547
-24.4552
-24.4552
-24.4552
-24.4552
-24.4552
-24.4552
-24.4504
-24.4504
-24.4504
-24.4504
-24.4504
-24.4504
-24.4405
-24.4406
-24.4405
-24.4405
-24.4405
-24.4405
-24.4252
-24.4252
-24.4252
-24.4252
-24.4252
-24.4252
-24.4039
-24.4039
-24.4039
-24.4039
-24.4039
-24.4039
-24.3769
-24.3769
-24.3769
-24.3768
-24.3768
-24.3768
-24.3467
-24.3467
-24.3466
-24.3466
-24.3466
-24.3466
-24.313
-24.3129
-24.3129
-24.3129
-24.3129
-24.313
-24.2687
-24.2686
-24.2687
-24.2688
-24.269
-24.2691
-24.2171
-24.2173
-24.2175
-24.2178
-24.218
-24.2183
-24.1653
-24.1655
-24.1657
-24.166
-24.1662
-24.1663
-24.1455
-24.1455
-24.1453
-24.1451
-24.1448
-24.1445
-34.2786
-34.2786
-34.2786
-34.2786
-34.2786
-34.2786
-34.2742
-34.2742
-34.2742
-34.2742
-34.2742
-34.2741
-34.2651
-34.2651
-34.2651
-34.2651
-34.265
-34.265
-34.2507
-34.2507
-34.2507
-34.2506
-34.2506
-34.2506
-34.2299
-34.2299
-34.2299
-34.2299
-34.2299
-34.2299
-34.2006
-34.2006
-34.2005
-34.2005
-34.2005
-34.2005
-34.1573
-34.1573
-34.1573
-34.1573
-34.1573
-34.1573
-34.0994
-34.0994
-34.0995
-34.0995
-34.0996
-34.0997
-34.0327
-34.0328
-34.0329
-34.0331
-34.0333
-34.0334
-33.9684
-33.9686
-33.9687
-33.9689
-33.9691
-33.9691
-33.9105
-33.9105
-33.9105
-33.9104
-33.9102
-33.91
-33.8319
-33.8317
-33.8313
-33.8308
-33.8304
-33.8301
-45.8102
-45.8091
-45.8091
-45.8096
-45.8102
-45.8113
-58.2468
-58.2463
-58.2461
-58.246
-58.246
-58.2462
-69.9523
-69.9526
-69.9528
-69.9528
-69.9528
-69.9529
-55.9262
-55.9256
-55.925
-55.9246
-55.9244
-55.9244
-61.6339
-61.6338
-61.6338
-61.6337
-61.6337
-61.6337
-71.2464
-71.2465
-71.2465
-71.2466
-71.2467
-71.2466
-54.0705
-54.0699
-54.0697
-54.0695
-54.0694
-54.0694
-61.6442
-61.6441
-61.6441
-61.644
-61.6439
-61.6438
-68.5751
-68.5751
-68.5751
-68.575
-68.5749
-68.5748
-55.8583
-55.8578
-55.8578
-55.8579
-55.8578
-55.8579
-60.8684
-60.8684
-60.8683
-60.8681
-60.868
-60.868
-70.5851
-70.5851
-70.5851
-70.585
-70.5849
-70.5848
-57.2719
-57.2719
-57.2721
-57.2722
-57.2722
-57.2725
-59.896
-59.8962
-59.8962
-59.8962
-59.8962
-59.8962
-69.7056
-69.7057
-69.7057
-69.7057
-69.7057
-69.7057
-61.6661
-61.6664
-61.6666
-61.6667
-61.6669
-61.6672
-62.7365
-62.737
-62.7372
-62.7373
-62.7373
-62.7373
-70.3071
-70.3072
-70.3073
-70.3073
-70.3072
-70.307
-60.9421
-60.9421
-60.9422
-60.942
-60.942
-60.942
-63.4829
-63.4832
-63.4833
-63.4832
-63.483
-63.4827
-68.7041
-68.7039
-68.7039
-68.7038
-68.7037
-68.7037
-61.2294
-61.2291
-61.229
-61.229
-61.2291
-61.2283
-63.0025
-63.0025
-63.0025
-63.0028
-63.003
-63.0033
-66.3035
-66.3033
-66.3032
-66.3033
-66.3034
-66.304
-59.1662
-59.1682
-59.168
-59.1686
-59.1709
-59.1679
-58.582
-58.5827
-58.5822
-58.5838
-58.5847
-58.5855
-62.391
-62.3907
-62.3906
-62.3907
-62.3903
-62.3915
-37.694
-37.6982
-37.7016
-37.7037
-37.7029
-37.7018
-36.0475
-36.0458
-36.0456
-36.0475
-36.0486
-36.0503
-57.6817
-57.6806
-57.6806
-57.6813
-57.6819
-57.6829
-49.247
-49.2455
-49.2451
-49.2492
-49.2373
-49.2675
-26.3794
-26.3779
-26.3743
-26.3744
-26.3731
-26.3759
-56.8199
-56.8185
-56.8185
-56.8182
-56.8195
-56.8163
-79.0843
-79.1422
-79.1286
-79.1436
-79.1513
-79.0988
-82.7647
-82.7751
-82.7745
-82.7844
-82.763
-82.8088
-83.4482
-83.4467
-83.447
-83.4493
-83.4489
-83.4373
-42.0955
-42.0952
-42.0954
-42.0948
-42.0951
-42.0951
-53.6472
-53.6476
-53.6489
-53.6464
-53.6531
-53.6407
-58.8175
-58.8176
-58.8166
-58.8177
-58.8128
-58.8211
-42.9207
-42.92
-42.921
-42.9193
-42.9199
-42.9212
-54.5138
-54.5156
-54.5183
-54.5132
-54.5396
-54.4897
-55.4084
-55.4075
-55.4068
-55.4066
-55.3927
-55.4227
-43.2927
-43.2911
-43.2918
-43.2893
-43.285
-43.2953
-52.7002
-52.7004
-52.7044
-52.6964
-52.728
-52.6737
-56.2828
-56.2827
-56.2853
-56.2751
-56.2946
-56.2666
-44.9848
-44.9833
-44.9851
-44.9814
-44.9627
-45.006
-43.2829
-43.2822
-43.2849
-43.2803
-43.2881
-43.2803
-72.385
-72.3893
-72.3954
-72.3756
-72.462
-72.2968
-63.7271
-63.7294
-63.7345
-63.7162
-63.7408
-63.7169
-23.9653
-23.9574
-23.9762
-23.9407
-23.8416
-24.1336
-134.981
-134.992
-135.001
-134.979
-135.22
-134.71
-330.871
-330.958
-330.837
-330.954
-332.06
-329.361
-69.2933
-69.308
-69.3253
-69.2849
-69.2292
-69.441
-114.478
-114.486
-114.49
-114.485
-114.543
-114.405
-44.0901
-44.0901
-44.0901
-44.0901
-44.0901
-44.0901
-53.9205
-53.9205
-53.9205
-53.9205
-53.9205
-53.9205
-63.7529
-63.7529
-63.7529
-63.7529
-63.7529
-63.7529
-44.0866
-44.0866
-44.0866
-44.0866
-44.0866
-44.0865
-53.9181
-53.9181
-53.9181
-53.9181
-53.9181
-53.9181
-63.7519
-63.7519
-63.7519
-63.7519
-63.7519
-63.7519
-44.0791
-44.0791
-44.0791
-44.0791
-44.0791
-44.0791
-53.9131
-53.9131
-53.9131
-53.9131
-53.9131
-53.9131
-63.7499
-63.7499
-63.7499
-63.7499
-63.7499
-63.7499
-44.0671
-44.0671
-44.0671
-44.0671
-44.0671
-44.0671
-53.9048
-53.9048
-53.9048
-53.9048
-53.9048
-53.9048
-63.746
-63.746
-63.746
-63.746
-63.746
-63.746
-44.0496
-44.0496
-44.0496
-44.0496
-44.0496
-44.0496
-53.8921
-53.892
-53.892
-53.892
-53.892
-53.892
-63.7389
-63.7389
-63.7389
-63.7389
-63.7389
-63.7389
-44.0251
-44.0251
-44.0251
-44.0251
-44.0251
-44.0251
-53.8734
-53.8734
-53.8734
-53.8734
-53.8734
-53.8734
-63.7249
-63.7249
-63.7249
-63.7249
-63.7249
-63.7249
-43.9912
-43.9912
-43.9912
-43.9912
-43.9913
-43.9913
-53.8464
-53.8464
-53.8464
-53.8465
-53.8465
-53.8465
-63.7003
-63.7003
-63.7003
-63.7003
-63.7003
-63.7003
-43.9414
-43.9414
-43.9415
-43.9416
-43.9416
-43.9417
-53.805
-53.805
-53.805
-53.8051
-53.8051
-53.8051
-63.6389
-63.6389
-63.6389
-63.6389
-63.6389
-63.6389
-43.8537
-43.8537
-43.8538
-43.8539
-43.8539
-43.8539
-53.7527
-53.7527
-53.7527
-53.7527
-53.7527
-53.7527
-63.4923
-63.4924
-63.4924
-63.4924
-63.4924
-63.4924
-43.6761
-43.6761
-43.6761
-43.6761
-43.676
-43.6759
-53.7001
-53.7002
-53.7001
-53.7001
-53.7001
-53.7
-63.1745
-63.1745
-63.1744
-63.1745
-63.1744
-63.1745
-43.2474
-43.2474
-43.2473
-43.2471
-43.2471
-43.247
-53.7458
-53.7458
-53.7457
-53.7456
-53.7457
-53.7454
-62.4366
-62.4366
-62.4364
-62.4367
-62.4363
-62.4368
-42.9638
-42.9636
-42.9636
-42.9633
-42.9635
-42.9633
-53.7665
-53.7665
-53.7668
-53.7661
-53.7673
-53.7652
-61.1479
-61.148
-61.1474
-61.148
-61.1471
-61.1479
)
;

boundaryField
{
    seabed_topleft_surface
    {
        type            calculated;
        value           nonuniform List<scalar> 
72
(
29861.8
29861.9
29861.9
29861.9
29861.9
29861.9
28515.2
28515.2
28515.2
28515.2
28515.2
28515.2
24770.1
24770.1
24770.1
24770.1
24770.1
24770.1
21674.3
21674.3
21674.3
21674.2
21674.2
21674.2
19566.2
19566.2
19566.2
19566.2
19566.2
19566.2
17906.7
17906.7
17906.6
17906.6
17906.6
17906.6
16271.5
16271.5
16271.5
16271.5
16271.5
16271.5
14739.1
14739.1
14739.1
14739
14739
14739
14248.7
14248.6
14248.6
14248.5
14248.5
14248.5
16963.7
16963.7
16963.6
16963.6
16963.6
16963.6
22459.5
22459.5
22459.5
22459.6
22459.6
22459.6
30714.5
30714.5
30714.5
30714.5
30714.6
30714.6
)
;
    }
    seabed_topright_surface
    {
        type            calculated;
        value           nonuniform List<scalar> 
72
(
0.100073
0.100061
0.100058
0.100055
0.100054
0.100054
0.10495
0.10494
0.104937
0.104936
0.104937
0.10494
0.114907
0.1149
0.114898
0.1149
0.114904
0.114909
0.130272
0.130267
0.130267
0.130273
0.130281
0.130289
0.151396
0.151393
0.151399
0.151411
0.151426
0.151438
0.17829
0.178295
0.178315
0.178343
0.178373
0.178398
0.210153
0.210181
0.210231
0.21029
0.210349
0.210395
0.246684
0.246756
0.246848
0.246945
0.247031
0.247091
0.286441
0.286551
0.286662
0.28676
0.286833
0.286875
0.323521
0.3236
0.323652
0.323674
0.323667
0.323642
0.359334
0.35934
0.359298
0.35922
0.359123
0.359028
0.38102
0.380936
0.380855
0.380784
0.380728
0.380687
)
;
    }
    breakwater_top_surface
    {
        type            calculated;
        value           nonuniform List<scalar> 
36
(
-37.1905
-37.1902
-37.1904
-37.1898
-37.1901
-37.1901
-38.0157
-38.015
-38.016
-38.0143
-38.0149
-38.0162
-38.3876
-38.3861
-38.3867
-38.3842
-38.3799
-38.3903
-40.0797
-40.0782
-40.0801
-40.0763
-40.0577
-40.1009
-52.136
-52.1352
-52.1472
-52.1221
-52.1098
-52.1777
-93.5453
-93.6424
-93.5395
-93.5964
-94.4112
-92.4492
)
;
    }
    breakwater_left_surface
    {
        type            calculated;
        value           nonuniform List<scalar> 
24
(
26288.4
26288.4
26288.4
26288.4
26288.5
26288.5
17134.5
17134.6
17134.5
17134.5
17134.5
17134.6
3561.12
3561.33
3561.3
3561.33
3561.32
3561.68
483.186
483.206
483.171
483.211
483.271
483.075
)
;
    }
    breakwater_right_surface
    {
        type            calculated;
        value           nonuniform List<scalar> 
24
(
-4.52398
-4.52406
-4.52414
-4.52422
-4.52427
-4.52431
-14.2379
-14.2381
-14.2382
-14.2382
-14.2382
-14.2382
-24.1293
-24.1293
-24.1291
-24.1289
-24.1286
-24.1284
-33.816
-33.8158
-33.8154
-33.815
-33.8146
-33.8142
)
;
    }
    water_front_surface
    {
        type            calculated;
        value           nonuniform List<scalar> 
186
(
24944.1
23597.5
19854.9
16762.6
14657.4
13001.2
11389.9
9974.8
9752.61
12463.4
17964.3
26273.2
14140.5
11252.7
7752.93
5560.35
3981.74
3258.37
2423.95
1508.16
619.323
892.544
3691.59
17121.5
4314.08
1138.84
578.847
272.118
-58.1843
-82.6323
-79.3683
-66.327
-16.4104
123.887
603.26
3550.68
137.336
-63.8903
-45.5889
-43.5978
-39.5549
-43.481
-57.7467
-73.1434
-77.7938
-50.4683
-34.4717
475.33
-4.82178
-4.81691
-4.80695
-4.79158
-4.77046
-4.74357
-4.7117
-4.67517
-4.63541
-4.59833
-4.56252
-4.54084
-14.6362
-14.6312
-14.6211
-14.6054
-14.5833
-14.5533
-14.5133
-14.4644
-14.4109
-14.3566
-14.2932
-14.2544
-24.4552
-24.4504
-24.4405
-24.4252
-24.4039
-24.3769
-24.3467
-24.313
-24.2687
-24.2171
-24.1653
-24.1455
-34.2786
-34.2742
-34.2651
-34.2507
-34.2299
-34.2006
-34.1573
-34.0994
-34.0327
-33.9684
-33.9105
-33.8319
-45.8102
-58.2468
-69.9523
-55.9262
-61.6339
-71.2464
-54.0705
-61.6442
-68.5751
-55.8583
-60.8684
-70.5851
-57.2719
-59.896
-69.7056
-61.6661
-62.7365
-70.3071
-60.9421
-63.4829
-68.7041
-61.2294
-63.0025
-66.3035
-59.1662
-58.582
-62.391
-37.694
-36.0475
-57.6817
-49.247
-26.3794
-56.8199
-79.0843
-82.7647
-83.4482
-42.0955
-53.6472
-58.8175
-42.9207
-54.5138
-55.4084
-43.2927
-52.7002
-56.2828
-44.9848
-43.2829
-72.385
-63.7271
-23.9653
-134.981
-330.871
-69.2933
-114.478
-44.0901
-53.9205
-63.7529
-44.0866
-53.9181
-63.7519
-44.0791
-53.9131
-63.7499
-44.0671
-53.9048
-63.746
-44.0496
-53.8921
-63.7389
-44.0251
-53.8734
-63.7249
-43.9912
-53.8464
-63.7003
-43.9414
-53.805
-63.6389
-43.8537
-53.7527
-63.4923
-43.6761
-53.7001
-63.1745
-43.2474
-53.7458
-62.4366
-42.9638
-53.7665
-61.1479
)
;
    }
    water_back_surface
    {
        type            calculated;
        value           nonuniform List<scalar> 
186
(
24944.1
23597.5
19854.9
16762.6
14657.4
13001.2
11389.8
9974.73
9752.49
12463.3
17964.4
26273.3
14140.6
11252.7
7752.95
5560.34
3981.72
3258.32
2423.86
1508.05
619.277
892.507
3691.64
17121.7
4314.18
1138.85
578.852
272.108
-58.1871
-82.6336
-79.3637
-66.3229
-16.4322
123.829
603.19
3551.24
137.352
-63.8896
-45.5884
-43.5978
-39.555
-43.4824
-57.7468
-73.1382
-77.8017
-50.4774
-34.5098
475.22
-4.8218
-4.81692
-4.80695
-4.79157
-4.77042
-4.74346
-4.71146
-4.67476
-4.63498
-4.59821
-4.56283
-4.54117
-14.6362
-14.6312
-14.6211
-14.6053
-14.5832
-14.5532
-14.513
-14.4641
-14.4108
-14.3571
-14.2943
-14.2547
-24.4552
-24.4504
-24.4405
-24.4252
-24.4039
-24.3768
-24.3466
-24.313
-24.2691
-24.2183
-24.1663
-24.1445
-34.2786
-34.2741
-34.265
-34.2506
-34.2299
-34.2005
-34.1573
-34.0997
-34.0334
-33.9691
-33.91
-33.8301
-45.8113
-58.2462
-69.9529
-55.9244
-61.6337
-71.2466
-54.0694
-61.6438
-68.5748
-55.8579
-60.868
-70.5848
-57.2725
-59.8962
-69.7057
-61.6672
-62.7373
-70.307
-60.942
-63.4827
-68.7037
-61.2283
-63.0033
-66.304
-59.1679
-58.5855
-62.3915
-37.7018
-36.0503
-57.6829
-49.2675
-26.3759
-56.8163
-79.0988
-82.8088
-83.4373
-42.0951
-53.6407
-58.8211
-42.9212
-54.4897
-55.4227
-43.2953
-52.6737
-56.2666
-45.006
-43.2803
-72.2968
-63.7169
-24.1336
-134.71
-329.361
-69.441
-114.405
-44.0901
-53.9205
-63.7529
-44.0865
-53.9181
-63.7519
-44.0791
-53.9131
-63.7499
-44.0671
-53.9048
-63.746
-44.0496
-53.892
-63.7389
-44.0251
-53.8734
-63.7249
-43.9913
-53.8465
-63.7003
-43.9417
-53.8051
-63.6389
-43.8539
-53.7527
-63.4924
-43.6759
-53.7
-63.1745
-43.247
-53.7454
-62.4368
-42.9633
-53.7652
-61.1479
)
;
    }
    water_left_surface
    {
        type            calculated;
        value           nonuniform List<scalar> 
42
(
24961
24961
24961
24961
24961
24961
14157
14157.1
14157.1
14157.1
14157.1
14157.1
4325.89
4325.88
4325.91
4325.9
4325.92
4325.98
137.879
137.877
137.879
137.88
137.884
137.895
-45.8102
-45.8091
-45.8091
-45.8096
-45.8102
-45.8113
-58.2468
-58.2463
-58.2461
-58.246
-58.246
-58.2462
-69.9523
-69.9526
-69.9528
-69.9528
-69.9528
-69.9529
)
;
    }
    water_right_surface
    {
        type            calculated;
        value           nonuniform List<scalar> 
42
(
-4.80493
-4.80494
-4.80494
-4.80494
-4.80495
-4.80495
-14.6197
-14.6197
-14.6197
-14.6197
-14.6197
-14.6197
-24.439
-24.439
-24.439
-24.439
-24.439
-24.439
-34.2627
-34.2627
-34.2627
-34.2627
-34.2627
-34.2627
-44.0901
-44.0901
-44.0901
-44.0901
-44.0901
-44.0901
-53.9205
-53.9205
-53.9205
-53.9205
-53.9205
-53.9205
-63.7529
-63.7529
-63.7529
-63.7529
-63.7529
-63.7529
)
;
    }
    water_top_surface
    {
        type            calculated;
        value           nonuniform List<scalar> 
180
(
-75.3944
-75.3954
-75.3955
-75.3953
-75.3952
-75.3947
-76.4733
-76.4739
-76.474
-76.4742
-76.4745
-76.474
-71.0319
-71.0321
-71.032
-71.032
-71.032
-71.0317
-73.3077
-73.3081
-73.308
-73.308
-73.308
-73.3076
-71.573
-71.5732
-71.5732
-71.5732
-71.5732
-71.5729
-71.9934
-71.9934
-71.9934
-71.9933
-71.9933
-71.9929
-71.6946
-71.6944
-71.6942
-71.6941
-71.6941
-71.694
-70.4095
-70.4095
-70.4094
-70.4093
-70.4092
-70.4091
-69.5032
-69.5031
-69.5029
-69.5027
-69.5026
-69.5024
-68.6716
-68.6716
-68.6716
-68.6716
-68.6716
-68.6716
-68.7318
-68.7315
-68.7313
-68.731
-68.7316
-68.7301
-70.9544
-70.9519
-70.951
-70.9497
-70.9778
-70.9165
-68.7006
-68.7006
-68.7006
-68.7006
-68.7008
-68.7003
-68.6703
-68.6703
-68.6703
-68.6703
-68.6703
-68.6703
-68.7625
-68.7625
-68.7624
-68.7626
-68.7641
-68.7608
-141.913
-141.925
-141.903
-141.945
-142.274
-141.532
-332.921
-332.968
-332.913
-333.03
-333.898
-331.965
-72.4893
-72.4935
-72.4937
-72.495
-72.475
-72.5175
-68.6701
-68.6701
-68.6701
-68.6701
-68.6701
-68.6701
-68.6701
-68.6701
-68.6701
-68.6701
-68.6701
-68.6701
-68.6701
-68.6701
-68.6701
-68.6701
-68.6701
-68.6701
-68.6701
-68.6701
-68.6701
-68.6701
-68.6701
-68.6701
-68.6702
-68.6702
-68.6702
-68.6702
-68.6702
-68.6702
-68.6702
-68.6702
-68.6702
-68.6702
-68.6702
-68.6702
-68.6704
-68.6704
-68.6704
-68.6704
-68.6704
-68.6704
-68.6706
-68.6706
-68.6706
-68.6706
-68.6706
-68.6706
-68.6709
-68.6709
-68.6709
-68.6709
-68.6709
-68.6709
-68.6711
-68.6711
-68.6711
-68.6711
-68.6711
-68.6711
-68.6706
-68.6706
-68.6706
-68.6706
-68.6706
-68.6706
-68.67
-68.67
-68.67
-68.67
-68.67
-68.67
)
;
    }
}


// ************************************************************************* //
