/*--------------------------------*- C++ -*----------------------------------*\
| =========                 |                                                 |
| \\      /  F ield         | OpenFOAM: The Open Source CFD Toolbox           |
|  \\    /   O peration     | Version:  v1612+                                |
|   \\  /    A nd           | Web:      www.OpenFOAM.com                      |
|    \\/     M anipulation  |                                                 |
\*---------------------------------------------------------------------------*/
FoamFile
{
    version     2.0;
    format      ascii;
    class       volScalarField;
    location    "2.2";
    object      p_rgh;
}
// * * * * * * * * * * * * * * * * * * * * * * * * * * * * * * * * * * * * * //

dimensions      [1 -1 -2 0 0 0 0];

internalField   nonuniform List<scalar> 
1116
(
29861.8
29861.9
29861.9
29861.9
29861.9
29861.9
28515.2
28515.2
28515.2
28515.2
28515.2
28515.2
24770.1
24770.1
24770.1
24770.1
24770.1
24770.1
21674.3
21674.3
21674.3
21674.2
21674.2
21674.2
19566.2
19566.2
19566.2
19566.2
19566.2
19566.2
17906.7
17906.7
17906.6
17906.6
17906.6
17906.6
16271.5
16271.5
16271.5
16271.5
16271.5
16271.5
14739.1
14739.1
14739.1
14739
14739
14739
14248.7
14248.6
14248.6
14248.5
14248.5
14248.5
16963.7
16963.7
16963.6
16963.6
16963.6
16963.6
22459.5
22459.5
22459.5
22459.6
22459.6
22459.6
30714.5
30714.5
30714.5
30714.5
30714.6
30714.6
28859.7
28859.7
28859.7
28859.7
28859.7
28859.7
24881.6
24881.6
24881.6
24881.6
24881.6
24881.7
20791.2
20791.1
20791.1
20791.1
20791.1
20791.2
17721.2
17721.1
17721.1
17721.1
17721.1
17721.2
15309.5
15309.4
15309.4
15309.4
15309.4
15309.4
12995.8
12995.8
12995.7
12995.7
12995.6
12995.7
9757.09
9756.99
9756.96
9756.88
9756.82
9756.78
6145.88
6145.78
6145.73
6145.65
6145.59
6145.5
2466.25
2466.21
2466.18
2466.14
2466.11
2466.09
2937.8
2937.71
2937.73
2937.68
2937.67
2937.62
8189.48
8189.25
8189.32
8189.24
8189.06
8189.34
28715.1
28715
28715
28715
28714.8
28715.3
22205.8
22205.8
22205.9
22205.9
22205.9
22206.1
6950.89
6950.75
6950.8
6950.86
6950.88
6950.92
3600.27
3600.18
3600.19
3600.21
3600.22
3600.3
1834.83
1834.71
1834.71
1834.72
1834.72
1834.77
-33.6431
-33.644
-33.644
-33.6443
-33.6449
-33.6458
-58.0911
-58.0892
-58.0886
-58.0892
-58.0905
-58.0924
-54.8271
-54.8247
-54.8225
-54.8213
-54.8219
-54.8225
-41.7858
-41.784
-41.7827
-41.7821
-41.7831
-41.7818
8.13078
8.1292
8.12448
8.11876
8.11313
8.10893
148.37
148.362
148.349
148.337
148.328
148.312
646.287
646.28
646.249
646.234
646.243
646.219
19381.4
19381.1
19381.3
19381.3
19380.5
19382.6
1312.2
1312.17
1312.2
1312.21
1312.24
1312.35
-29.4907
-29.4899
-29.4896
-29.4894
-29.489
-29.49
-11.2364
-11.2358
-11.2356
-11.2354
-11.2353
-11.2358
-9.24682
-9.2469
-9.24699
-9.24696
-9.24684
-9.24682
-5.20407
-5.20389
-5.20385
-5.20391
-5.20397
-5.20408
-9.13015
-9.12987
-9.12989
-9.13011
-9.13056
-9.13148
-23.3958
-23.3958
-23.3954
-23.3949
-23.3952
-23.3959
-38.7925
-38.7922
-38.792
-38.7908
-38.7901
-38.7873
-43.443
-43.4438
-43.4455
-43.4482
-43.4495
-43.4508
-16.1173
-16.1226
-16.126
-16.128
-16.1284
-16.1264
2.02073
2.01652
1.99774
1.98971
2.00752
1.98382
17476.4
17475.4
17475.8
17476.4
17477.4
17474.2
0.100073
0.100061
0.100058
0.100055
0.100054
0.100054
0.10495
0.10494
0.104937
0.104936
0.104937
0.10494
0.114907
0.1149
0.114898
0.1149
0.114904
0.114909
0.130272
0.130267
0.130267
0.130273
0.130281
0.130289
0.151396
0.151393
0.151399
0.151411
0.151426
0.151438
0.17829
0.178295
0.178315
0.178343
0.178373
0.178398
0.210153
0.210181
0.210231
0.21029
0.210349
0.210395
0.246684
0.246756
0.246848
0.246945
0.247031
0.247091
0.286441
0.286551
0.286662
0.28676
0.286833
0.286875
0.323521
0.3236
0.323652
0.323674
0.323667
0.323642
0.359334
0.35934
0.359298
0.35922
0.359123
0.359028
0.38102
0.380936
0.380855
0.380784
0.380728
0.380687
0.0953476
0.0953355
0.0953324
0.0953303
0.0953302
0.095333
0.100287
0.100279
0.100277
0.100278
0.100281
0.100288
0.110402
0.110399
0.110401
0.110407
0.110414
0.110422
0.126128
0.126133
0.12614
0.12615
0.126161
0.126172
0.148203
0.148215
0.148231
0.148249
0.148267
0.148281
0.178183
0.17821
0.178242
0.178277
0.178308
0.178333
0.218259
0.218313
0.218372
0.218429
0.218477
0.21851
0.267163
0.267245
0.267319
0.267379
0.267418
0.267435
0.320664
0.320739
0.320774
0.320768
0.320733
0.320685
0.37495
0.374958
0.374876
0.374733
0.37456
0.3744
0.43828
0.438144
0.437932
0.437679
0.437426
0.437224
0.477068
0.476902
0.476801
0.476761
0.476775
0.476831
0.0859995
0.0859856
0.085983
0.0859822
0.0859839
0.0859886
0.0907895
0.0907817
0.0907818
0.0907847
0.0907901
0.0907994
0.100639
0.100638
0.100643
0.10065
0.100659
0.100669
0.115975
0.115983
0.115993
0.116004
0.116014
0.116023
0.137252
0.137269
0.137286
0.137302
0.137315
0.137326
0.164267
0.164299
0.164329
0.164355
0.164376
0.164389
0.194453
0.194507
0.194551
0.194584
0.194604
0.19461
0.228201
0.228267
0.228296
0.228295
0.228269
0.228229
0.272532
0.272554
0.272488
0.272367
0.272218
0.272082
0.324065
0.323937
0.32371
0.323426
0.32314
0.322923
0.37589
0.375687
0.375453
0.375217
0.375023
0.374919
0.395729
0.39573
0.395859
0.396091
0.396366
0.396638
0.0723225
0.072309
0.072308
0.0723094
0.0723136
0.0723208
0.0767055
0.0766996
0.0767022
0.0767076
0.0767156
0.0767274
0.0858021
0.0858047
0.0858117
0.08582
0.0858293
0.0858395
0.100194
0.100205
0.100215
0.100224
0.100231
0.100238
0.120931
0.12095
0.120962
0.120971
0.120977
0.12098
0.150292
0.150319
0.150333
0.150339
0.150338
0.150333
0.193593
0.193617
0.193614
0.193595
0.193565
0.193531
0.251497
0.251477
0.251414
0.251325
0.251227
0.251141
0.318223
0.318118
0.317959
0.317775
0.3176
0.317472
0.382467
0.382312
0.382133
0.381956
0.38182
0.381757
0.440386
0.44035
0.440391
0.440503
0.440683
0.440902
0.519016
0.519223
0.519588
0.520041
0.520448
0.520773
-1.63805
-1.63709
-1.63713
-1.63779
-1.63856
-1.63922
-4.18925
-4.18872
-4.18846
-4.18835
-4.18837
-4.18855
-6.18733
-6.18761
-6.18776
-6.1878
-6.18784
-6.18786
-11.756
-11.7556
-11.7549
-11.7549
-11.7551
-11.7539
-4.06934
-4.0693
-4.06927
-4.06919
-4.06887
-4.06866
-7.4814
-7.48151
-7.48154
-7.48159
-7.4817
-7.48163
-9.91246
-9.91205
-9.91176
-9.91184
-9.91187
-9.91108
-7.68923
-7.68912
-7.68905
-7.68897
-7.6889
-7.68882
-4.81011
-4.81013
-4.81008
-4.81002
-4.80994
-4.8098
-11.6751
-11.6746
-11.6746
-11.6746
-11.6745
-11.6747
-6.8408
-6.84081
-6.84071
-6.84055
-6.84044
-6.84036
-6.82012
-6.82014
-6.82007
-6.81997
-6.81991
-6.81977
-13.0963
-13.0963
-13.0965
-13.0966
-13.0966
-13.0969
-5.86927
-5.8695
-5.86954
-5.8695
-5.86949
-5.86954
-5.94062
-5.9407
-5.94071
-5.9407
-5.9407
-5.94069
-17.5211
-17.5214
-17.5216
-17.5217
-17.5219
-17.5222
-8.78153
-8.78196
-8.7822
-8.78233
-8.78235
-8.78227
-6.54208
-6.5422
-6.54226
-6.54225
-6.54218
-6.54199
-16.7971
-16.7971
-16.7972
-16.797
-16.797
-16.797
-9.52791
-9.52817
-9.52826
-9.5282
-9.52798
-9.5277
-4.93911
-4.93895
-4.93887
-4.93876
-4.93866
-4.93865
-17.0844
-17.0841
-17.084
-17.084
-17.0841
-17.0833
-9.04746
-9.04748
-9.04752
-9.04784
-9.04802
-9.04833
-2.53852
-2.53828
-2.53823
-2.5383
-2.53837
-2.53897
-15.0211
-15.0231
-15.0229
-15.0235
-15.0258
-15.0228
-4.62697
-4.62768
-4.6272
-4.62879
-4.62971
-4.63047
1.37401
1.37431
1.37438
1.37436
1.37476
1.3735
6.45298
6.44876
6.44535
6.44331
6.44406
6.44518
17.908
17.9097
17.91
17.908
17.9069
17.9052
6.08482
6.08591
6.08591
6.08526
6.08467
6.08358
-4.94462
-4.94301
-4.94255
-4.94672
-4.93511
-4.96473
27.5772
27.5786
27.5823
27.5822
27.5835
27.5807
6.94514
6.94651
6.94653
6.94683
6.94556
6.94874
3076.92
3076.37
3076.57
3077.15
3078.59
3074.33
-28.6198
-28.6301
-28.6295
-28.6394
-28.6184
-28.6634
-19.6832
-19.6817
-19.682
-19.6843
-19.6839
-19.6723
2.04955
2.04977
2.0496
2.05016
2.04988
2.04987
0.307856
0.307436
0.306074
0.308632
0.301896
0.314283
4.94747
4.94745
4.94839
4.9473
4.95216
4.9439
1.22433
1.225
1.22401
1.22574
1.22508
1.22384
-0.558769
-0.560578
-0.563253
-0.558241
-0.58455
-0.534723
8.35688
8.35779
8.35844
8.35869
8.37263
8.34262
0.852772
0.854295
0.853642
0.856141
0.860426
0.850085
1.25538
1.2552
1.2512
1.25919
1.22764
1.28195
7.56805
7.56818
7.56551
7.57585
7.55782
7.58277
-0.839286
-0.837826
-0.839646
-0.835888
-0.817245
-0.860527
10.6726
10.6733
10.6706
10.6752
10.6673
10.6751
59.3914
59.3981
59.3712
59.4308
59.65
59.1256
40.5929
40.6189
40.5514
40.6303
40.9386
40.1358
475.401
475.409
475.311
475.522
476.474
473.985
174.16
174.192
174.132
174.263
174.828
173.543
1805.06
1804.89
1804.84
1805.26
1806.78
1802.85
894.277
894.294
894.234
894.538
895.435
893.151
-47.1668
-47.1702
-47.174
-47.1683
-47.2444
-47.0673
0.054866
0.0548558
0.054857
0.0548608
0.0548672
0.0548764
0.0344919
0.0344877
0.0344905
0.0344952
0.0345019
0.0345107
0.0121265
0.0121269
0.0121289
0.0121316
0.0121352
0.0121404
0.0584224
0.0584193
0.058424
0.058431
0.0584404
0.0584533
0.0368576
0.0368581
0.0368633
0.0368698
0.0368781
0.036889
0.0130525
0.0130542
0.0130568
0.01306
0.0130638
0.0130692
0.0658812
0.065885
0.065892
0.0658998
0.0659081
0.0659176
0.0419024
0.0419063
0.0419119
0.0419177
0.0419237
0.0419308
0.0151293
0.0151314
0.0151337
0.015136
0.0151384
0.0151414
0.077856
0.0778649
0.0778718
0.0778772
0.0778812
0.0778848
0.0502339
0.0502389
0.0502429
0.0502457
0.0502476
0.0502496
0.018966
0.0189676
0.0189688
0.0189695
0.0189699
0.0189704
0.0953871
0.095399
0.0954043
0.0954061
0.0954053
0.095403
0.0629477
0.0629536
0.0629555
0.0629553
0.0629534
0.0629509
0.0261431
0.0261445
0.0261447
0.0261442
0.0261427
0.0261408
0.119913
0.119926
0.119927
0.119921
0.11991
0.119896
0.0816381
0.0816451
0.081644
0.0816385
0.0816294
0.081617
0.0401201
0.0401218
0.0401204
0.0401171
0.0401117
0.0401041
0.153828
0.153829
0.15381
0.153781
0.153746
0.153709
0.108566
0.108567
0.108555
0.108536
0.108512
0.108486
0.0647388
0.0647368
0.0647313
0.0647232
0.0647132
0.0647013
0.203593
0.203559
0.203506
0.203448
0.203392
0.203347
0.150002
0.149985
0.149959
0.149928
0.149898
0.149875
0.126101
0.126093
0.126083
0.126071
0.126061
0.126051
0.291319
0.291253
0.291193
0.291148
0.291125
0.291128
0.202347
0.202324
0.202307
0.202295
0.202293
0.202307
0.272653
0.272645
0.272648
0.272634
0.272646
0.272633
0.468892
0.468861
0.468878
0.468929
0.469002
0.469089
0.254859
0.254847
0.254864
0.254904
0.254948
0.255018
0.590548
0.590528
0.59058
0.590527
0.590612
0.590533
0.897575
0.897642
0.897734
0.897854
0.89794
0.89799
0.209221
0.209228
0.209252
0.209392
0.20933
0.20964
1.3284
1.32835
1.32856
1.32832
1.32871
1.32824
1.18118
1.18136
1.18135
1.18165
1.18153
1.18168
0.188543
0.188515
0.188176
0.188909
0.187746
0.189798
2.61713
2.61703
2.61757
2.61699
2.6179
2.61706
)
;

boundaryField
{
    seabed_topleft_surface
    {
        type            fixedFluxPressure;
        gradient        uniform 0;
        value           nonuniform List<scalar> 
72
(
29861.8
29861.9
29861.9
29861.9
29861.9
29861.9
28515.2
28515.2
28515.2
28515.2
28515.2
28515.2
24770.1
24770.1
24770.1
24770.1
24770.1
24770.1
21674.3
21674.3
21674.3
21674.2
21674.2
21674.2
19566.2
19566.2
19566.2
19566.2
19566.2
19566.2
17906.7
17906.7
17906.6
17906.6
17906.6
17906.6
16271.5
16271.5
16271.5
16271.5
16271.5
16271.5
14739.1
14739.1
14739.1
14739
14739
14739
14248.7
14248.6
14248.6
14248.5
14248.5
14248.5
16963.7
16963.7
16963.6
16963.6
16963.6
16963.6
22459.5
22459.5
22459.5
22459.6
22459.6
22459.6
30714.5
30714.5
30714.5
30714.5
30714.6
30714.6
)
;
    }
    seabed_topright_surface
    {
        type            fixedFluxPressure;
        gradient        uniform 0;
        value           nonuniform List<scalar> 
72
(
0.100073
0.100061
0.100058
0.100055
0.100054
0.100054
0.10495
0.10494
0.104937
0.104936
0.104937
0.10494
0.114907
0.1149
0.114898
0.1149
0.114904
0.114909
0.130272
0.130267
0.130267
0.130273
0.130281
0.130289
0.151396
0.151393
0.151399
0.151411
0.151426
0.151438
0.17829
0.178295
0.178315
0.178343
0.178373
0.178398
0.210153
0.210181
0.210231
0.21029
0.210349
0.210395
0.246684
0.246756
0.246848
0.246945
0.247031
0.247091
0.286441
0.286551
0.286662
0.28676
0.286833
0.286875
0.323521
0.3236
0.323652
0.323674
0.323667
0.323642
0.359334
0.35934
0.359298
0.35922
0.359123
0.359028
0.38102
0.380936
0.380855
0.380784
0.380728
0.380687
)
;
    }
    breakwater_top_surface
    {
        type            fixedFluxPressure;
        gradient        uniform 0;
        value           nonuniform List<scalar> 
36
(
2.04955
2.04977
2.0496
2.05016
2.04988
2.04987
1.22433
1.225
1.22401
1.22574
1.22508
1.22384
0.852772
0.854295
0.853642
0.856141
0.860426
0.850085
-0.839286
-0.837826
-0.839646
-0.835888
-0.817245
-0.860527
40.5929
40.6189
40.5514
40.6303
40.9386
40.1358
1805.06
1804.89
1804.84
1805.26
1806.78
1802.85
)
;
    }
    breakwater_left_surface
    {
        type            fixedFluxPressure;
        gradient        uniform 0;
        value           nonuniform List<scalar> 
24
(
30714.5
30714.5
30714.5
30714.5
30714.6
30714.6
28715.1
28715
28715
28715
28714.8
28715.3
19381.4
19381.1
19381.3
19381.3
19380.5
19382.6
17476.4
17475.4
17475.8
17476.4
17477.4
17474.2
)
;
    }
    breakwater_right_surface
    {
        type            fixedFluxPressure;
        gradient        uniform 0;
        value           nonuniform List<scalar> 
24
(
0.38102
0.380936
0.380855
0.380784
0.380728
0.380687
0.477068
0.476902
0.476801
0.476761
0.476775
0.476831
0.395729
0.39573
0.395859
0.396091
0.396366
0.396638
0.519016
0.519223
0.519588
0.520041
0.520448
0.520773
)
;
    }
    water_front_surface
    {
        type            fixedFluxPressure;
        gradient        uniform 0;
        value           nonuniform List<scalar> 
186
(
29861.8
28515.2
24770.1
21674.3
19566.2
17906.7
16271.5
14739.1
14248.7
16963.7
22459.5
30714.5
28859.7
24881.6
20791.2
17721.2
15309.5
12995.8
9757.09
6145.88
2466.25
2937.8
8189.48
28715.1
22205.8
6950.89
3600.27
1834.83
-33.6431
-58.0911
-54.8271
-41.7858
8.13078
148.37
646.287
19381.4
1312.2
-29.4907
-11.2364
-9.24682
-5.20407
-9.13015
-23.3958
-38.7925
-43.443
-16.1173
2.02073
17476.4
0.100073
0.10495
0.114907
0.130272
0.151396
0.17829
0.210153
0.246684
0.286441
0.323521
0.359334
0.38102
0.0953476
0.100287
0.110402
0.126128
0.148203
0.178183
0.218259
0.267163
0.320664
0.37495
0.43828
0.477068
0.0859995
0.0907895
0.100639
0.115975
0.137252
0.164267
0.194453
0.228201
0.272532
0.324065
0.37589
0.395729
0.0723225
0.0767055
0.0858021
0.100194
0.120931
0.150292
0.193593
0.251497
0.318223
0.382467
0.440386
0.519016
-1.63805
-4.18925
-6.18733
-11.756
-4.06934
-7.4814
-9.91246
-7.68923
-4.81011
-11.6751
-6.8408
-6.82012
-13.0963
-5.86927
-5.94062
-17.5211
-8.78153
-6.54208
-16.7971
-9.52791
-4.93911
-17.0844
-9.04746
-2.53852
-15.0211
-4.62697
1.37401
6.45298
17.908
6.08482
-4.94462
27.5772
6.94514
3076.92
-28.6198
-19.6832
2.04955
0.307856
4.94747
1.22433
-0.558769
8.35688
0.852772
1.25538
7.56805
-0.839286
10.6726
59.3914
40.5929
475.401
174.16
1805.06
894.277
-47.1668
0.054866
0.0344919
0.0121265
0.0584224
0.0368576
0.0130525
0.0658812
0.0419024
0.0151293
0.077856
0.0502339
0.018966
0.0953871
0.0629477
0.0261431
0.119913
0.0816381
0.0401201
0.153828
0.108566
0.0647388
0.203593
0.150002
0.126101
0.291319
0.202347
0.272653
0.468892
0.254859
0.590548
0.897575
0.209221
1.3284
1.18118
0.188543
2.61713
)
;
    }
    water_back_surface
    {
        type            fixedFluxPressure;
        gradient        uniform 0;
        value           nonuniform List<scalar> 
186
(
29861.9
28515.2
24770.1
21674.2
19566.2
17906.6
16271.5
14739
14248.5
16963.6
22459.6
30714.6
28859.7
24881.7
20791.2
17721.2
15309.4
12995.7
9756.78
6145.5
2466.09
2937.62
8189.34
28715.3
22206.1
6950.92
3600.3
1834.77
-33.6458
-58.0924
-54.8225
-41.7818
8.10893
148.312
646.219
19382.6
1312.35
-29.49
-11.2358
-9.24682
-5.20408
-9.13148
-23.3959
-38.7873
-43.4508
-16.1264
1.98382
17474.2
0.100054
0.10494
0.114909
0.130289
0.151438
0.178398
0.210395
0.247091
0.286875
0.323642
0.359028
0.380687
0.095333
0.100288
0.110422
0.126172
0.148281
0.178333
0.21851
0.267435
0.320685
0.3744
0.437224
0.476831
0.0859886
0.0907994
0.100669
0.116023
0.137326
0.164389
0.19461
0.228229
0.272082
0.322923
0.374919
0.396638
0.0723208
0.0767274
0.0858395
0.100238
0.12098
0.150333
0.193531
0.251141
0.317472
0.381757
0.440902
0.520773
-1.63922
-4.18855
-6.18786
-11.7539
-4.06866
-7.48163
-9.91108
-7.68882
-4.8098
-11.6747
-6.84036
-6.81977
-13.0969
-5.86954
-5.94069
-17.5222
-8.78227
-6.54199
-16.797
-9.5277
-4.93865
-17.0833
-9.04833
-2.53897
-15.0228
-4.63047
1.3735
6.44518
17.9052
6.08358
-4.96473
27.5807
6.94874
3074.33
-28.6634
-19.6723
2.04987
0.314283
4.9439
1.22384
-0.534723
8.34262
0.850085
1.28195
7.58277
-0.860527
10.6751
59.1256
40.1358
473.985
173.543
1802.85
893.151
-47.0673
0.0548764
0.0345107
0.0121404
0.0584533
0.036889
0.0130692
0.0659176
0.0419308
0.0151414
0.0778848
0.0502496
0.0189704
0.095403
0.0629509
0.0261408
0.119896
0.081617
0.0401041
0.153709
0.108486
0.0647013
0.203347
0.149875
0.126051
0.291128
0.202307
0.272633
0.469089
0.255018
0.590533
0.89799
0.20964
1.32824
1.18168
0.189798
2.61706
)
;
    }
    water_left_surface
    {
        type            fixedFluxPressure;
        gradient        uniform 0;
        value           nonuniform List<scalar> 
42
(
29861.8
29861.9
29861.9
29861.9
29861.9
29861.9
28859.7
28859.7
28859.7
28859.7
28859.7
28859.7
22205.8
22205.8
22205.9
22205.9
22205.9
22206.1
1312.2
1312.17
1312.2
1312.21
1312.24
1312.35
-1.63805
-1.63709
-1.63713
-1.63779
-1.63856
-1.63922
-4.18925
-4.18872
-4.18846
-4.18835
-4.18837
-4.18855
-6.18733
-6.18761
-6.18776
-6.1878
-6.18784
-6.18786
)
;
    }
    water_right_surface
    {
        type            fixedFluxPressure;
        gradient        uniform 0;
        value           nonuniform List<scalar> 
42
(
0.100073
0.100061
0.100058
0.100055
0.100054
0.100054
0.0953476
0.0953355
0.0953324
0.0953303
0.0953302
0.095333
0.0859995
0.0859856
0.085983
0.0859822
0.0859839
0.0859886
0.0723225
0.072309
0.072308
0.0723094
0.0723136
0.0723208
0.054866
0.0548558
0.054857
0.0548608
0.0548672
0.0548764
0.0344919
0.0344877
0.0344905
0.0344952
0.0345019
0.0345107
0.0121265
0.0121269
0.0121289
0.0121316
0.0121352
0.0121404
)
;
    }
    water_top_surface
    {
        type            totalPressure;
        rho             rho;
        psi             none;
        gamma           1;
        p0              uniform 0;
        value           nonuniform List<scalar> 
180
(
-6.7244
-6.7254
-6.72553
-6.72528
-6.7252
-6.72473
-7.80326
-7.80391
-7.80405
-7.80418
-7.80446
-7.80399
-2.36187
-2.36209
-2.36201
-2.36198
-2.36196
-2.36171
-4.63771
-4.63811
-4.63801
-4.63799
-4.63802
-4.63761
-2.90303
-2.90323
-2.9032
-2.9032
-2.90325
-2.90294
-3.32336
-3.32344
-3.32336
-3.32331
-3.32329
-3.32292
-3.02455
-3.02443
-3.02424
-3.02412
-3.02408
-3.02399
-1.73954
-1.73949
-1.73936
-1.73928
-1.73924
-1.73914
-0.833206
-0.833122
-0.832916
-0.832678
-0.832605
-0.832416
0
0
0
0
0
0
-0.0618485
-0.0615358
-0.0612908
-0.0609942
-0.0615853
-0.0601029
-2.28438
-2.28194
-2.28102
-2.27972
-2.30784
-2.24645
-0.0305602
-0.0306012
-0.0305683
-0.0305889
-0.0307991
-0.0303206
0
0
0
0
0
0
0
0
0
0
0
0
0
0
0
0
0
0
0
0
0
0
0
0
0
0
0
0
0
0
-5.33659e-05
-5.33646e-05
-5.33644e-05
-5.33644e-05
-5.33646e-05
-5.33656e-05
-6.03254e-05
-6.03232e-05
-6.03228e-05
-6.03228e-05
-6.03233e-05
-6.03249e-05
-7.60747e-05
-7.60696e-05
-7.60686e-05
-7.60688e-05
-7.60702e-05
-7.60737e-05
-0.000105144
-0.000105131
-0.000105129
-0.000105131
-0.000105136
-0.000105146
-0.000155752
-0.000155726
-0.000155724
-0.000155733
-0.00015575
-0.000155782
-0.000242407
-0.000242373
-0.000242387
-0.000242423
-0.000242481
-0.000242571
-0.000384642
-0.000384671
-0.000384759
-0.000384877
-0.000385032
-0.000385247
-0.000621904
-0.000622241
-0.000622527
-0.000622796
-0.000623066
-0.000623379
-0.000868417
-0.000869312
-0.000869709
-0.000869881
-0.000869808
-0.000869588
-0.00108282
-0.00108372
-0.00108324
-0.00108229
-0.00108047
-0.00107851
-0.00056771
-0.000567394
-0.000565459
-0.000563865
-0.000560651
-0.000560079
0
0
0
0
0
0
)
;
    }
}


// ************************************************************************* //
