/*--------------------------------*- C++ -*----------------------------------*\
| =========                 |                                                 |
| \\      /  F ield         | OpenFOAM: The Open Source CFD Toolbox           |
|  \\    /   O peration     | Version:  v1612+                                |
|   \\  /    A nd           | Web:      www.OpenFOAM.com                      |
|    \\/     M anipulation  |                                                 |
\*---------------------------------------------------------------------------*/
FoamFile
{
    version     2.0;
    format      ascii;
    class       surfaceScalarField;
    location    "2.2";
    object      phi;
}
// * * * * * * * * * * * * * * * * * * * * * * * * * * * * * * * * * * * * * //

dimensions      [0 3 -1 0 0 0 0];

internalField   nonuniform List<scalar> 
2916
(
-5.17233e-06
0.636174
-0.636169
-1.65976e-06
0.636177
-0.636181
-5.8379e-07
0.636177
-0.636178
-1.31634e-06
0.636177
-0.636176
-1.3783e-07
0.636177
-0.636179
0.636176
-0.636176
-7.6815e-06
1.32876
-0.692579
-2.43822e-06
1.32877
-0.692596
-2.00417e-06
1.32877
-0.692591
-1.54193e-06
1.32877
-0.69259
3.24564e-06
1.32877
-0.692594
1.32876
-0.692583
-4.8054e-06
1.7763
-0.447537
-2.18741e-06
1.77631
-0.447548
-3.94408e-06
1.77631
-0.447543
-4.01662e-06
1.77631
-0.447544
1.94945e-06
1.77631
-0.44755
1.7763
-0.447537
-5.04172e-06
2.10554
-0.329231
-4.94214e-06
2.10555
-0.329239
-7.72546e-06
2.10555
-0.329235
-6.84418e-06
2.10555
-0.329239
1.6223e-07
2.10555
-0.329246
2.10553
-0.329233
-8.87219e-06
2.3642
-0.258651
-8.7288e-06
2.36421
-0.25866
-1.09966e-05
2.36421
-0.258657
-8.97203e-06
2.36421
-0.258662
-2.05064e-06
2.36421
-0.258669
2.36419
-0.258658
-1.22759e-05
2.59815
-0.233935
-1.10292e-05
2.59816
-0.233947
-1.23403e-05
2.59816
-0.233944
-1.03362e-05
2.59816
-0.233949
-2.95807e-06
2.59816
-0.233956
2.59813
-0.233947
-7.91887e-06
2.83539
-0.237239
-6.69806e-06
2.83541
-0.237253
-7.60615e-06
2.83541
-0.237251
-6.38727e-06
2.83541
-0.237254
7.83516e-07
2.83541
-0.237261
2.83539
-0.237253
-1.28887e-06
3.07513
-0.239734
1.85188e-06
3.07516
-0.239752
3.00473e-07
3.07516
-0.239746
1.28133e-06
3.07516
-0.239749
7.25944e-06
3.07516
-0.239756
3.07514
-0.239742
-6.67534e-07
3.03891
0.0362176
6.11464e-06
3.03895
0.0361994
4.59024e-06
3.03895
0.0362054
4.32572e-06
3.03895
0.0362061
9.53371e-06
3.03896
0.0361991
3.03892
0.0362242
-1.49837e-06
2.365
0.673917
4.35932e-06
2.36505
0.673896
5.93749e-06
2.36504
0.673906
6.37816e-06
2.36504
0.673908
6.32144e-06
2.36506
0.673901
2.36501
0.673917
6.26384e-06
1.15016
1.21483
2.15097e-06
1.15022
1.21483
5.18035e-06
1.1502
1.21484
2.64073e-06
1.15021
1.21484
-5.44581e-06
1.15023
1.21484
1.15017
1.21484
-5.34753e-05
1.15021
-2.68861e-05
1.15019
-2.25442e-05
1.1502
-1.37707e-05
1.1502
1.44968e-05
1.1502
1.15018
-5.90768e-06
0.777027
-1.41319
-2.98369e-06
0.777026
-1.41321
-2.49898e-06
0.777027
-1.41321
-7.44935e-06
0.777029
-1.4132
-9.20372e-06
0.777029
-1.41321
0.777023
-1.41321
1.52524e-06
1.48802
-1.40358
-3.73518e-06
1.48804
-1.4036
-6.11852e-06
1.48804
-1.4036
-7.12059e-06
1.48803
-1.40359
-7.61107e-06
1.48803
-1.4036
1.48802
-1.40359
5.72438e-06
1.9083
-0.867821
-5.53802e-06
1.90832
-0.867825
-1.05061e-05
1.90832
-0.867823
-1.19292e-05
1.90832
-0.867827
-1.61616e-05
1.90832
-0.867834
1.9083
-0.867827
3.38366e-06
2.28928
-0.710214
-7.61555e-06
2.28931
-0.710218
-1.11685e-05
2.28931
-0.710219
-1.0876e-05
2.28931
-0.710227
-1.62707e-05
2.28931
-0.710233
2.28928
-0.710233
1.3329e-05
2.52172
-0.491108
4.83509e-07
2.52177
-0.4911
-4.80678e-06
2.52176
-0.491103
-4.79001e-06
2.52176
-0.491115
-1.37151e-05
2.52177
-0.491116
2.52173
-0.491125
1.96493e-05
2.87191
-0.584137
7.58466e-06
2.87197
-0.584141
3.66095e-06
2.87196
-0.584143
3.35411e-06
2.87196
-0.58415
-6.11446e-06
2.87197
-0.58415
2.87194
-0.584155
2.65645e-05
3.39594
-0.761302
8.02659e-06
3.39605
-0.761309
2.84837e-06
3.39603
-0.761312
4.34702e-06
3.39603
-0.761322
-3.36383e-06
3.39605
-0.761328
3.39599
-0.761312
3.2102e-05
3.9744
-0.818221
-5.82237e-06
3.97455
-0.818218
-1.86857e-05
3.97451
-0.818215
-1.59684e-05
3.97451
-0.818232
-1.4946e-05
3.97453
-0.818244
3.97446
-0.818221
5.83077e-05
4.25658
-0.246027
1.29053e-05
4.25677
-0.245972
-1.86575e-05
4.2567
-0.245955
-2.16684e-05
4.2567
-0.245981
-1.17487e-05
4.25673
-0.246003
4.25664
-0.245968
4.5936e-05
3.78964
1.14082
2.28781e-05
3.78979
1.1409
-5.5607e-06
3.78974
1.1409
-2.03367e-05
3.78974
1.14088
-1.59644e-05
3.78975
1.14088
3.7897
1.14084
1.57669e-05
1.84341
3.16105
2.55023e-05
1.84353
3.16108
-8.7932e-07
1.84349
3.1611
-3.43563e-06
1.8435
3.16108
5.57525e-05
1.84347
3.16105
1.84349
3.1611
-5.26663e-05
2.99367
-1.17094e-05
2.99369
-2.42877e-06
2.99368
2.38412e-05
2.99367
6.90141e-05
2.99363
2.99375
-9.5582e-07
0.500021
-1.91321
-5.29427e-06
0.500015
-1.91322
1.34892e-06
0.500022
-1.91323
-9.07058e-06
0.500024
-1.91321
-2.7058e-05
0.500022
-1.91321
0.50002
-1.91325
1.31653e-05
1.48494
-2.38851
-6.88119e-06
1.48495
-2.38852
3.85527e-07
1.48495
-2.38853
1.50016e-06
1.48495
-2.38852
-1.754e-05
1.48496
-2.38852
1.48494
-2.38853
1.53248e-05
2.1454
-1.52829
1.95276e-06
2.14541
-1.52827
1.00393e-05
2.1454
-1.52828
1.76236e-05
2.1454
-1.52829
-4.74093e-06
2.14542
-1.52828
2.14542
-1.52832
6.82e-05
2.90544
-1.47033
4.66195e-05
2.90549
-1.47027
4.38978e-05
2.90548
-1.4703
3.45949e-05
2.9055
-1.47032
-5.74732e-06
2.90553
-1.4703
2.90555
-1.47036
0.000141205
3.75425
-1.34006
0.000161211
3.7544
-1.34004
0.000149028
3.75444
-1.34004
0.000112082
3.75447
-1.34005
4.77928e-05
3.75449
-1.34001
3.75452
-1.34005
0.00017725
5.98368
-2.81374
0.000235971
5.98393
-2.81372
0.000193602
5.98396
-2.81363
0.000134752
5.98395
-2.81357
9.01114e-05
5.98391
-2.81353
5.98392
-2.81347
3.98529e-05
7.9777
-2.75537
3.42075e-05
7.97797
-2.75535
-2.80824e-06
7.978
-2.7553
-3.36494e-05
7.97791
-2.75525
-0.000103431
7.97788
-2.75523
7.9776
-2.7551
-0.000218592
8.47819
-1.31849
-0.000345494
8.47835
-1.31847
-0.000420961
8.47832
-1.31846
-0.000422732
8.47815
-1.31848
-0.000571186
8.47835
-1.31856
8.47743
-1.31862
-0.000280902
6.72533
1.50712
-0.000537344
6.72541
1.50723
-0.000696409
6.72525
1.50726
-0.000716312
6.72508
1.50711
-0.000589981
6.72532
1.5069
6.72441
1.50646
0.000102531
3.3437
4.52234
6.1028e-05
3.34397
4.52238
-8.41124e-05
3.34381
4.52249
-0.000210653
3.34379
4.52231
-4.32499e-06
3.34388
4.52212
3.34366
4.52159
5.7984e-05
1.29601
5.20868
0.000124371
1.29621
5.20878
4.94492e-05
1.29612
5.20887
1.18264e-05
1.29612
5.20879
0.000226117
1.29626
5.20846
1.29593
5.20906
-5.23204e-05
4.28973
2.83593e-05
4.28981
5.35362e-05
4.28978
7.72599e-05
4.28976
2.08994e-05
4.28995
4.28969
3.29479e-06
0.201604
-2.11482
-1.21747e-05
0.2016
-2.11481
8.88785e-06
0.201607
-2.11486
1.15473e-05
0.201595
-2.11481
-2.29967e-05
0.20159
-2.11476
0.201632
-2.11491
-4.41541e-05
0.950039
-3.1369
-2.79955e-05
0.950004
-3.13694
1.29728e-05
0.949987
-3.13695
6.53869e-06
0.95
-3.13692
-1.5521e-05
0.950019
-3.13692
0.950011
-3.13692
-5.62983e-05
1.39602
-1.97422
3.3701e-05
1.39586
-1.97422
8.41006e-05
1.39589
-1.97424
0.000110304
1.39592
-1.97424
0.000140121
1.39595
-1.97424
1.3961
-1.97427
9.85121e-05
1.10075
-1.17516
0.000195669
1.10071
-1.17522
0.000202115
1.10078
-1.1752
0.000144005
1.10084
-1.17519
8.77063e-05
1.10088
-1.17517
1.10097
-1.17515
0.000188397
0.320723
-0.560218
0.000313751
0.320794
-0.560246
0.000300283
0.320959
-0.560209
0.00021323
0.321056
-0.56017
0.000143032
0.321074
-0.560129
0.321146
-0.560082
-0.000163672
-0.827573
-1.66527
-0.000129639
-0.827626
-1.66533
-0.000105161
-0.827435
-1.66526
-4.7382e-05
-0.827374
-1.66519
6.96042e-05
-0.827406
-1.66517
-0.827227
-1.66502
-0.000275108
-1.40634
-2.17633
-0.000348272
-1.40647
-2.17643
-0.000366128
-1.40632
-2.1764
-0.000290921
-1.40635
-2.17635
-0.000178784
-1.40641
-2.17634
-1.40635
-2.17615
-0.000147182
-0.762148
-1.96253
-0.000211117
-0.762157
-1.96271
-0.000272571
-0.762019
-1.96271
-0.000266885
-0.762127
-1.96271
-0.000469999
-0.762073
-1.9627
-0.762698
-1.96274
9.49177e-05
0.448415
0.296463
-7.62037e-05
0.448778
0.296469
7.55201e-05
0.448511
0.296588
0.000125772
0.448417
0.296519
-9.06439e-05
0.448467
0.296576
0.447987
0.295692
0.000451184
0.780352
4.18995
0.000164603
0.780921
4.19052
0.000283116
0.780332
4.19055
0.000206143
0.780412
4.19039
-0.00038677
0.7805
4.19067
0.780517
4.18867
0.000611763
1.00669
4.98174
0.000595219
1.00694
4.98278
0.00028559
1.00678
4.98273
0.000188909
1.00677
4.98253
0.000869915
1.00716
4.98113
1.00636
4.98409
2.04999e-05
5.2964
9.62393e-05
5.29668
0.000103166
5.29656
2.23024e-05
5.29661
-0.000125249
5.29725
5.29592
6.81673e-07
0.00110552
-0.0011062
7.09693e-08
0.00110539
-0.00110626
-2.07958e-07
0.00110532
-0.00110626
-2.85149e-07
0.00110525
-0.00110631
-2.45469e-07
0.00110519
-0.00110634
0.00110509
-0.00110643
3.12816e-07
0.00225215
-0.00114792
-1.92348e-07
0.00225198
-0.00114787
-4.37805e-07
0.0022519
-0.00114785
-5.38735e-07
0.00225179
-0.0011479
-5.46384e-07
0.00225172
-0.00114795
0.00225161
-0.00114805
1.89364e-07
0.00347509
-0.00122385
-2.77002e-07
0.00347482
-0.00122343
-5.9358e-07
0.00347463
-0.00122332
-7.39417e-07
0.00347441
-0.00122333
-6.58783e-07
0.00347419
-0.00122338
0.00347395
-0.0012235
1.54331e-07
0.00480864
-0.00133414
-4.62499e-07
0.00480805
-0.00133301
-1.03802e-06
0.00480754
-0.00133267
-1.29555e-06
0.00480698
-0.00133262
-1.06504e-06
0.00480637
-0.00133272
0.00480575
-0.001333
-4.41971e-08
0.00629691
-0.00148833
-1.33198e-06
0.00629536
-0.00148604
-2.43702e-06
0.006294
-0.00148536
-2.85791e-06
0.00629267
-0.00148528
-2.216e-06
0.00629128
-0.00148558
0.00628983
-0.00148632
-1.43249e-06
0.0080388
-0.00174038
-4.16144e-06
0.00803518
-0.00173725
-6.00408e-06
0.00803226
-0.00173655
-6.41136e-06
0.00802965
-0.00173674
-4.76638e-06
0.00802704
-0.00173763
0.00802417
-0.00173941
-5.4306e-06
0.0101013
-0.00205704
-1.03088e-05
0.0100943
-0.00205503
-1.26412e-05
0.0100893
-0.00205539
-1.23878e-05
0.0100853
-0.00205666
-8.83846e-06
0.0100816
-0.00205883
0.010077
-0.00206237
-1.24745e-05
0.0122868
-0.00217338
-1.87487e-05
0.0122754
-0.00217651
-2.01478e-05
0.012269
-0.00217979
-1.80606e-05
0.012265
-0.00218313
-1.22255e-05
0.0122614
-0.00218701
0.0122559
-0.00219222
-1.83279e-05
0.0140794
-0.00177501
-2.27848e-05
0.0140646
-0.00178712
-2.08694e-05
0.014059
-0.00179387
-1.60877e-05
0.0140569
-0.00179853
-9.50217e-06
0.0140553
-0.00180224
0.0140513
-0.001806
-1.27186e-05
0.0136702
0.000420823
-1.19334e-05
0.013652
0.00040898
-6.81677e-06
0.013647
0.000404644
-1.61931e-06
0.0136462
0.000403476
1.11812e-06
0.0136463
0.000404359
0.0136445
0.000406562
-9.33665e-07
0.0110306
0.00263928
3.83765e-06
0.0110151
0.00262937
9.51812e-06
0.0110103
0.00262869
1.30224e-05
0.0110088
0.00263176
1.15014e-05
0.0110085
0.0026374
0.0110086
0.00264582
1.16509e-05
0.0110177
1.14418e-05
0.0110131
8.72105e-06
0.0110112
6.04448e-06
0.0110098
3.61547e-06
0.0110093
0.011011
4.88894e-07
0.00111976
-0.00222741
-1.1404e-07
0.0011196
-0.00222741
-3.45638e-07
0.00111951
-0.00222739
-4.41415e-07
0.00111943
-0.00222741
-4.84803e-07
0.00111937
-0.00222741
0.00111928
-0.00222745
9.01427e-08
0.00229384
-0.00232365
-3.96618e-07
0.00229358
-0.00232354
-5.79561e-07
0.00229342
-0.00232349
-6.69132e-07
0.00229327
-0.0023235
-7.23417e-07
0.00229318
-0.00232351
0.00229307
-0.00232359
-3.34537e-07
0.00357527
-0.002506
-7.60831e-07
0.00357478
-0.0025055
-9.20317e-07
0.00357444
-0.00250531
-9.44905e-07
0.00357413
-0.00250525
-7.93088e-07
0.00357387
-0.00250528
0.00357364
-0.00250538
-9.83253e-07
0.00501047
-0.00276884
-1.51519e-06
0.0050094
-0.00276755
-1.69629e-06
0.00500863
-0.00276707
-1.58586e-06
0.00500793
-0.0027669
-1.11563e-06
0.00500728
-0.00276697
0.00500669
-0.00276731
-2.17156e-06
0.00658836
-0.00306408
-3.22176e-06
0.00658604
-0.0030616
-3.48702e-06
0.0065843
-0.00306075
-3.14638e-06
0.00658281
-0.00306051
-2.07028e-06
0.00658138
-0.00306082
0.00657999
-0.00306182
-4.70613e-06
0.00809771
-0.00324501
-6.67553e-06
0.00809259
-0.00324201
-6.97659e-06
0.00808914
-0.00324128
-6.12773e-06
0.00808644
-0.00324148
-4.02936e-06
0.00808396
-0.00324263
0.00808128
-0.0032451
-9.02077e-06
0.0092425
-0.00319322
-1.16586e-05
0.00923207
-0.00319282
-1.12267e-05
0.00922631
-0.00319387
-9.20725e-06
0.00922256
-0.00319569
-5.83464e-06
0.00921941
-0.00319856
0.00921556
-0.00320314
-1.29189e-05
0.00991838
-0.00283743
-1.40952e-05
0.00989957
-0.00284467
-1.11336e-05
0.00989146
-0.00284949
-7.26979e-06
0.00988767
-0.00285361
-3.73585e-06
0.00988536
-0.00285792
0.00988209
-0.00286327
-1.12238e-05
0.0102509
-0.00209799
-6.59379e-06
0.0102201
-0.00211476
9.38259e-07
0.0102103
-0.00212227
6.34304e-06
0.0102082
-0.00212635
6.57704e-06
0.0102097
-0.00212852
0.0102113
-0.00212955
-1.56176e-06
0.0104609
0.000210403
1.17811e-05
0.0104252
0.000187687
2.47223e-05
0.0104171
0.000182499
3.03769e-05
0.0104195
0.000184436
2.4042e-05
0.0104272
0.000191172
0.0104382
0.000202213
1.99047e-05
0.00969543
0.00338269
3.47221e-05
0.00966491
0.00337154
4.33255e-05
0.00965866
0.00337574
4.36942e-05
0.00966124
0.00338692
3.20197e-05
0.00967009
0.00340352
0.00968659
0.00342745
2.31283e-05
0.0206879
1.54692e-05
0.0206831
3.05396e-06
0.0206799
-6.54655e-06
0.0206782
-9.49861e-06
0.0206798
0.020687
4.95741e-07
0.00108422
-0.00331304
-1.10747e-07
0.00108406
-0.00331299
-3.38107e-07
0.00108399
-0.00331298
-4.4391e-07
0.00108394
-0.00331299
-4.89915e-07
0.00108391
-0.00331298
0.00108389
-0.00331306
1.06981e-07
0.00223313
-0.00347423
-3.83989e-07
0.0022329
-0.0034741
-5.54171e-07
0.00223279
-0.00347406
-6.37196e-07
0.0022327
-0.00347405
-6.9321e-07
0.00223267
-0.00347407
0.00223273
-0.00347415
-3.00767e-07
0.00350754
-0.00378117
-7.17282e-07
0.00350715
-0.00378073
-8.38878e-07
0.00350693
-0.00378056
-8.2339e-07
0.00350675
-0.00378049
-6.99681e-07
0.00350664
-0.00378051
0.00350669
-0.00378063
-9.31057e-07
0.00496839
-0.00422928
-1.39398e-06
0.00496765
-0.00422816
-1.44824e-06
0.00496715
-0.00422773
-1.23602e-06
0.00496672
-0.00422757
-8.23528e-07
0.00496641
-0.00422764
0.0049663
-0.00422799
-2.06636e-06
0.00674973
-0.00484344
-2.73402e-06
0.00674802
-0.0048414
-2.64519e-06
0.00674688
-0.00484068
-2.09014e-06
0.006746
-0.00484048
-1.20257e-06
0.00674535
-0.00484084
0.00674502
-0.00484191
-4.17058e-06
0.00923161
-0.00572273
-5.00147e-06
0.00922753
-0.00572085
-4.42101e-06
0.00922528
-0.00572044
-3.19913e-06
0.00922385
-0.00572079
-1.69088e-06
0.009223
-0.00572207
0.00922271
-0.00572473
-6.92648e-06
0.0130094
-0.00696446
-7.00841e-06
0.0130006
-0.00696638
-4.90492e-06
0.012997
-0.00696819
-2.49947e-06
0.0129956
-0.00697041
-7.512e-07
0.0129958
-0.00697358
0.0129969
-0.00697834
-8.31373e-06
0.0180432
-0.00786368
-4.45655e-06
0.0180266
-0.00787564
1.44894e-06
0.0180228
-0.0078821
5.71592e-06
0.0180242
-0.00788713
5.90235e-06
0.0180288
-0.0078918
0.0180358
-0.00789654
-1.47917e-06
0.0239251
-0.0079795
1.07191e-05
0.0239019
-0.00800359
2.24352e-05
0.0239007
-0.00801303
2.75676e-05
0.0239088
-0.00801711
2.18336e-05
0.0239227
-0.00801765
0.0239417
-0.00801437
1.61906e-05
0.0269707
-0.00285265
3.69254e-05
0.026945
-0.00287818
5.09634e-05
0.0269484
-0.00288094
5.29742e-05
0.0269639
-0.00287445
3.81859e-05
0.0269879
-0.00286111
0.0270207
-0.00284009
3.00006e-05
0.0255408
0.00478096
3.90295e-05
0.0255235
0.00478128
3.94339e-05
0.0255308
0.00479042
3.24152e-05
0.0255498
0.00480544
1.8385e-05
0.0255783
0.00482445
0.0256157
0.00484909
-5.7129e-06
0.0462324
-2.78201e-05
0.0462264
-4.70275e-05
0.0462277
-5.44128e-05
0.0462333
-4.51102e-05
0.0462466
0.0462572
3.9383e-07
0.000993777
-0.00430818
-1.43193e-07
0.000993645
-0.00430818
-3.31517e-07
0.000993587
-0.00430817
-4.16337e-07
0.000993551
-0.00430817
-4.50334e-07
0.000993533
-0.00430817
0.000993519
-0.0043082
5.44884e-08
0.00206904
-0.0045511
-3.82363e-07
0.00206882
-0.00455103
-5.08087e-07
0.00206872
-0.004551
-5.71841e-07
0.00206867
-0.00455098
-6.41205e-07
0.00206869
-0.00455098
0.00206876
-0.00455102
-3.55644e-07
0.00332232
-0.0050352
-6.7071e-07
0.00332189
-0.00503493
-6.92705e-07
0.00332172
-0.00503481
-6.35645e-07
0.00332164
-0.00503474
-5.73135e-07
0.00332165
-0.00503473
0.00332177
-0.00503481
-9.55939e-07
0.00487659
-0.00578319
-1.14084e-06
0.00487571
-0.00578251
-9.37859e-07
0.00487537
-0.00578221
-6.27995e-07
0.00487522
-0.00578208
-3.60506e-07
0.00487522
-0.00578209
0.00487545
-0.00578235
-1.5349e-06
0.00681638
-0.00678188
-1.52056e-06
0.00681482
-0.00678076
-9.9819e-07
0.00681427
-0.00678034
-4.11066e-07
0.00681412
-0.00678024
-7.57497e-08
0.00681422
-0.00678049
0.00681446
-0.00678121
-1.77845e-06
0.00893339
-0.00783804
-1.05997e-06
0.00893045
-0.00783735
1.64306e-07
0.00892982
-0.00783738
1.14341e-06
0.00893005
-0.0078379
1.3005e-06
0.00893074
-0.00783896
0.00893162
-0.00784068
2.86604e-07
0.0107903
-0.0088219
3.07216e-06
0.0107851
-0.00882406
5.58756e-06
0.010785
-0.00882603
6.70339e-06
0.0107867
-0.00882827
5.33081e-06
0.0107894
-0.00883091
0.0107926
-0.00883397
7.49815e-06
0.0121694
-0.00925064
1.45804e-05
0.0121614
-0.00925921
1.8893e-05
0.012163
-0.00926459
1.91862e-05
0.0121683
-0.00926913
1.37975e-05
0.0121759
-0.00927301
0.0121855
-0.0092757
2.03348e-05
0.0130426
-0.00887349
3.23485e-05
0.0130339
-0.00888863
3.72473e-05
0.0130404
-0.00889582
3.46506e-05
0.0130531
-0.00889984
2.31903e-05
0.0130701
-0.00890107
0.0130919
-0.00889829
2.80664e-05
0.0146651
-0.00450402
3.84121e-05
0.0146612
-0.00451723
3.9461e-05
0.0146756
-0.00451854
3.20852e-05
0.0146985
-0.00451395
1.78489e-05
0.0147267
-0.00450506
0.0147595
-0.00449087
8.89973e-06
0.0125752
0.00686054
4.01366e-06
0.0125808
0.00686435
-3.88126e-06
0.0125994
0.00687249
-1.23677e-05
0.0126248
0.00688561
-1.50485e-05
0.0126521
0.00689966
0.0126786
0.00691449
-4.79882e-05
0.0588538
-8.13553e-05
0.0588385
-9.82816e-05
0.0588423
-9.19446e-05
0.0588502
-6.71142e-05
0.0588727
0.0588688
-3.62131e-05
-2.14698
0.0321975
-5.03788e-06
-2.14702
0.0321815
8.64776e-06
-2.14706
0.0321883
6.32359e-05
-2.14701
0.0321479
0.000141264
-2.14699
0.0321472
-2.14709
0.0323251
1.57254e-06
-2.03383
-0.113153
3.86388e-05
-2.03389
-0.11316
3.1452e-05
-2.03389
-0.113162
6.0299e-05
-2.03386
-0.11318
0.000111076
-2.03385
-0.113184
-2.03384
-0.11314
-4.128e-06
-0.0456791
-1.57923e-05
-0.0456856
-2.64733e-05
-0.0456865
-3.09677e-05
-0.0456807
-2.35256e-05
-0.0456786
-0.0456923
-8.40822e-05
-2.5754
-0.529221
-2.0201e-05
-2.57546
-0.529368
2.92309e-05
-2.57543
-0.529385
2.99792e-05
-2.57541
-0.529365
1.8091e-05
-2.57543
-0.52933
-2.57534
-0.529246
-3.51842e-05
-2.31027
-0.378244
-3.18452e-05
-2.31034
-0.378283
-1.97001e-05
-2.31031
-0.378293
-3.23004e-06
-2.3103
-0.378307
2.14878e-06
-2.31032
-0.378308
-2.31022
-0.378253
1.36868e-05
-0.219148
6.01286e-08
-0.219145
-4.83374e-06
-0.219151
-3.60738e-06
-0.21915
-1.48361e-05
-0.219149
-0.219163
-2.72031e-05
-1.17606
-1.32735
-1.02575e-06
-1.17608
-1.32753
-1.24988e-05
-1.17607
-1.32755
-2.20494e-06
-1.17606
-1.32755
4.94911e-05
-1.17608
-1.32755
-1.17604
-1.32743
-9.11997e-06
-1.04808
-0.50622
-1.79735e-05
-1.0481
-0.506256
-2.28586e-05
-1.04808
-0.506278
-2.06339e-05
-1.04807
-0.5063
-1.71213e-05
-1.04808
-0.50631
-1.04802
-0.506283
1.15035e-05
-0.085326
1.04481e-05
-0.085318
1.23335e-05
-0.0853227
1.16067e-05
-0.0853229
9.10479e-07
-0.0853222
-0.0853351
1.40938e-05
-1.45474
-1.04779
-1.70405e-05
-1.45483
-1.04789
-4.96806e-05
-1.4548
-1.04792
-5.33323e-05
-1.45479
-1.04794
-8.52665e-06
-1.45481
-1.04795
-1.4547
-1.04789
-1.0326e-05
-1.613
-0.347952
-5.0631e-05
-1.61309
-0.347965
-6.4739e-05
-1.61308
-0.347989
-6.45596e-05
-1.61309
-0.348008
-5.61647e-05
-1.61311
-0.348023
-1.613
-0.348032
2.51458e-05
-0.0387844
1.9667e-05
-0.0387777
1.069e-05
-0.0387806
-2.35724e-06
-0.0387817
-1.94541e-05
-0.0387826
-0.0387908
-8.55358e-05
-1.07103
-0.5369
-6.37961e-05
-1.07115
-0.537012
-3.38007e-05
-1.07111
-0.537045
-3.642e-06
-1.07107
-0.537068
4.63041e-05
-1.07107
-0.537067
-1.07093
-0.536995
-1.39979e-05
-1.31745
-0.10151
-6.66883e-05
-1.31755
-0.101514
-8.98604e-05
-1.31755
-0.10152
-8.00873e-05
-1.31756
-0.101526
-5.41903e-05
-1.31758
-0.101532
-1.31749
-0.101525
6.77688e-06
-0.0367019
-1.94463e-06
-0.0367014
-1.0162e-05
-0.0367031
-1.71911e-05
-0.0367041
-2.30435e-05
-0.0367045
-0.0367078
-0.000125647
-1.52217
-0.679878
-0.000132213
-1.52228
-0.680054
-0.000101878
-1.52227
-0.680064
-5.78723e-05
-1.52225
-0.680058
3.95475e-06
-1.52225
-0.680045
-1.52212
-0.679898
-2.09458e-06
-1.48845
-0.135223
-3.79299e-05
-1.48853
-0.135229
-5.48454e-05
-1.48853
-0.135238
-5.67947e-05
-1.48853
-0.135241
-4.67935e-05
-1.48854
-0.135248
-1.48846
-0.135225
-4.41746e-06
-0.119208
-1.52524e-05
-0.119209
-2.0835e-05
-0.119209
-2.24282e-05
-0.119209
-2.41137e-05
-0.119207
-0.119205
-9.80138e-05
-1.67829
-1.17782
-6.28655e-05
-1.67837
-1.17815
-6.10197e-05
-1.67835
-1.17811
-3.94193e-05
-1.67834
-1.17808
2.43382e-05
-1.67835
-1.17809
-1.67823
-1.17778
-4.13679e-05
-1.36655
-0.44692
-5.93818e-05
-1.36659
-0.446986
-5.01909e-05
-1.36659
-0.447011
-3.13185e-05
-1.36659
-0.447017
1.19953e-06
-1.36659
-0.447042
-1.36653
-0.446929
-1.52473e-05
-0.156554
-1.84051e-05
-0.156558
-1.79019e-05
-0.156559
-1.36267e-05
-0.156563
-6.73273e-06
-0.156567
-0.156558
5.39892e-05
-1.57241
-1.568
7.60086e-05
-1.57253
-1.56835
4.73545e-05
-1.5725
-1.56829
4.27113e-05
-1.5725
-1.56828
2.16418e-05
-1.57244
-1.56833
-1.57249
-1.56802
-2.66921e-05
-1.05301
-0.966288
-6.02153e-05
-1.05304
-0.966442
-5.16017e-05
-1.05305
-0.966474
-3.23871e-05
-1.05305
-0.966487
3.32058e-05
-1.05303
-0.966516
-1.05305
-0.966338
-2.34343e-05
-0.213081
-2.00692e-05
-0.213115
-1.75892e-05
-0.213129
-5.14382e-06
-0.213153
4.15681e-05
-0.213176
-0.213131
0.000503797
-0.881933
-0.390108
0.000325924
-0.881943
-0.38977
0.000430978
-0.881823
-0.389983
0.000397003
-0.881811
-0.389919
4.78302e-05
-0.881309
-0.390098
-0.882639
-0.389639
7.30454e-05
-0.630021
-1.21828
3.20574e-05
-0.630004
-1.21834
6.42044e-05
-0.630011
-1.21832
0.000108724
-0.630012
-1.21833
0.000306964
-0.629823
-1.2182
-0.6303
-1.21837
-0.000133908
-0.17241
-0.000133287
-0.172592
-0.000155431
-0.172604
-0.000105073
-0.172721
9.78303e-05
-0.172656
-0.172784
0.000613064
2.64262
1.15661
0.000520097
2.64345
1.15739
0.000791537
2.64344
1.15686
0.000808344
2.64353
1.15693
0.000274928
2.64423
1.15688
2.64172
1.15757
0.000132065
1.13205
0.292169
0.000385909
1.13256
0.2923
0.000549089
1.1327
0.292264
0.000623548
1.13278
0.292333
0.00112696
1.1332
0.292326
1.13221
0.292273
-0.000233034
0.419047
-0.000157871
0.418924
-0.000138876
0.418989
-2.70069e-05
0.418891
0.000191769
0.419057
0.418742
0.00146787
3.3489
2.78798
0.00168799
3.35092
2.78904
0.00134717
3.35125
2.78867
0.000910249
3.35112
2.78877
0.00320332
3.34646
2.78926
3.35648
2.78839
0.000135325
1.1117
2.52923
0.000552542
1.11315
2.52965
0.000843988
1.11372
2.5295
0.00069296
1.11389
2.52971
0.00113653
1.10934
2.529
1.11944
2.53045
-0.000615416
1.73605
-0.000526922
1.73625
-0.000266073
1.73647
-0.000232189
1.73647
-0.0012333
1.73408
1.73924
0.000261944
3.45143
4.63268
0.000297721
3.45257
4.63311
0.000204456
3.45238
4.63294
0.000163352
3.45235
4.63308
0.000360083
3.45107
4.63523
3.45454
4.63013
0.000413193
1.06727
4.91298
0.000501399
1.06849
4.91364
0.000318141
1.06854
4.91353
0.000276821
1.06877
4.91333
0.00286971
1.06272
4.91476
1.0757
4.91217
-6.85476e-05
4.0211
-9.11518e-05
4.02184
-9.88705e-05
4.02195
8.80217e-06
4.0218
-0.000468133
4.02087
4.02299
-2.07923e-05
-0.114329
0.400809
-0.286459
-1.6079e-05
-0.114326
0.400768
-0.286448
-3.76028e-05
-0.114333
0.40083
-0.286476
-4.92651e-06
-0.114322
0.400719
-0.28643
-1.50226e-05
-0.114327
0.400845
-0.286507
-0.114339
0.40074
-0.286416
5.09071e-05
-0.248288
0.344737
-0.210829
3.60926e-05
-0.248325
0.344886
-0.210872
-2.19279e-06
-0.248335
0.344931
-0.210891
3.53303e-05
-0.248301
0.344783
-0.210841
-0.000535389
-0.248599
0.345957
-0.211115
-0.247985
0.34367
-0.21056
-6.75387e-05
-0.569718
0.37965
-3.67839e-05
-0.569804
0.379658
-0.000120307
-0.56986
0.379775
1.86393e-05
-0.569822
0.379591
0.00127152
-0.571366
0.37997
-0.568163
0.379313
5.31444e-07
-0.242663
0.643471
1.03556e-06
-0.242634
0.643402
-1.38577e-05
-0.242657
0.643502
1.19042e-05
-0.242636
0.643329
-0.000229919
-0.242524
0.64361
-0.242809
0.643319
0.000213745
-0.252621
0.354481
0.000126262
-0.252406
0.354744
0.000216824
-0.252602
0.354784
0.000262624
-0.25241
0.35451
-0.00238862
-0.249917
0.356
-0.255316
0.353787
-0.000113263
-1.03964
-5.47021e-05
-1.0401
-0.000577983
-1.03952
-7.19404e-05
-1.04053
0.00373454
-1.04798
-1.03174
-7.21218e-05
-0.342828
0.98637
-5.25781e-05
-0.342951
0.986332
-0.000156847
-0.342878
0.986484
-6.96558e-05
-0.342898
0.986141
0.000104126
-0.343439
0.986877
-0.342384
0.985807
0.000455526
0.876087
-0.86489
0.00025503
0.87663
-0.864639
0.000543878
0.876094
-0.864477
0.000384577
0.876691
-0.864921
-0.00474943
0.883771
-0.866077
0.868375
-0.861721
0.000325615
-2.83884
0.000157336
-2.83969
0.000187662
-2.83871
7.63789e-05
-2.8402
-0.00220833
-2.85462
-2.82339
-4.42479e-05
0.370207
0.616207
4.21768e-05
0.370166
0.616079
-0.000126562
0.370023
0.616629
-4.35612e-05
0.370302
0.615755
0.000538914
0.372291
0.614002
0.36743
0.618915
0.000151276
3.05806
-3.5529
0.000246189
3.05847
-3.55304
0.000167579
3.05811
-3.55249
0.000495957
3.05847
-3.55341
-0.000822382
3.06483
-3.5573
3.05114
-3.54625
0.000393354
-4.98564
0.00029607
-4.98648
0.000981341
-4.98606
0.000292137
-4.9865
-0.00673863
-4.99775
-4.97438
1.54101e-05
2.00677
-1.39058
-0.000122464
2.00711
-1.3909
0.000147134
2.00662
-1.39027
-0.000156526
2.00703
-1.39098
-0.0025609
2.01063
-1.39422
2.00267
-1.38632
1.00879e-05
3.9098
-5.45594
8.01044e-05
3.91034
-5.45634
0.000156142
3.91022
-5.45616
-0.000248131
3.9103
-5.45628
-0.000481282
3.91308
-5.45952
3.90806
-5.45212
0.000214046
-5.6493
0.000272799
-5.6501
0.000847973
-5.65013
0.000368415
-5.64979
-0.00590315
-5.65524
-5.64428
-4.98283e-05
3.24215
-0.000173286
3.24234
0.000240515
3.24226
1.0238e-05
3.24233
-0.00275819
3.24378
3.24106
8.26019e-05
2.69911
7.19356e-05
2.69966
0.000206495
2.69949
-0.000248203
2.69984
-0.000729372
2.6995
2.70037
0.000265467
0.000252209
0.000353134
0.000398408
-0.00326341
2.89704e-07
-0.00502659
0.000717158
-1.4903e-07
-0.00502664
0.000717088
-3.09044e-07
-0.00502664
0.000717056
-3.949e-07
-0.00502663
0.000717035
-4.43154e-07
-0.00502661
0.000717016
-0.0050266
0.000716998
1.3714e-07
-0.00548307
0.000455501
-1.37185e-07
-0.00548309
0.000455469
-2.5421e-07
-0.00548308
0.000455453
-3.33612e-07
-0.00548305
0.000455442
-3.97737e-07
-0.00548301
0.000455429
-0.00548299
0.000455412
-1.66314e-08
0.000154249
-8.89594e-08
0.00015424
-1.25872e-07
0.000154236
-1.65498e-07
0.000154233
-2.17938e-07
0.00015423
0.000154225
2.42795e-08
-0.00533303
0.00149761
-3.10377e-07
-0.00533305
0.00149753
-4.17313e-07
-0.00533303
0.00149751
-4.85922e-07
-0.00533301
0.0014975
-5.75383e-07
-0.00533298
0.00149753
-0.00533295
0.00149757
2.08745e-09
-0.00583196
0.000953303
-2.12384e-07
-0.00583195
0.000953274
-3.06722e-07
-0.00583192
0.00095327
-3.91143e-07
-0.00583188
0.000953277
-4.95303e-07
-0.00583183
0.000953294
-0.00583179
0.000953328
-5.00217e-08
0.000314375
-1.05539e-07
0.000314368
-1.38607e-07
0.00031437
-1.80458e-07
0.000314375
-2.38817e-07
0.000314382
0.000314398
-2.06407e-07
-0.00596182
0.00242339
-4.18849e-07
-0.00596181
0.00242331
-4.28083e-07
-0.00596177
0.00242332
-4.01821e-07
-0.00596173
0.00242336
-4.08861e-07
-0.00596171
0.00242343
-0.00596166
0.00242354
-4.91316e-08
-0.00656065
0.00155135
-2.08332e-07
-0.00656061
0.00155133
-2.74681e-07
-0.00656058
0.00155134
-3.33561e-07
-0.00656054
0.00155138
-4.08893e-07
-0.0065605
0.00155142
-0.00656048
0.00155147
-6.1349e-08
0.000478257
-9.96757e-08
0.000478247
-1.20407e-07
0.000478256
-1.46966e-07
0.000478268
-1.84214e-07
0.000478283
0.000478311
-3.87196e-07
-0.00697605
0.00361602
-4.25615e-07
-0.00697587
0.00361601
-2.69672e-07
-0.0069758
0.00361611
-1.22559e-07
-0.00697576
0.00361627
-8.63926e-08
-0.00697576
0.00361645
-0.00697584
0.00361666
-1.2266e-07
-0.00776453
0.00233945
-1.60847e-07
-0.00776446
0.00233943
-1.4249e-07
-0.00776443
0.00233949
-1.33861e-07
-0.00776441
0.00233956
-1.74849e-07
-0.00776439
0.00233964
-0.00776443
0.00233972
-3.82273e-08
0.000607744
-5.50518e-08
0.000607734
-6.29588e-08
0.00060775
-8.02669e-08
0.000607772
-1.15338e-07
0.000607796
0.000607828
-2.9161e-07
-0.00848333
0.00531751
8.29955e-09
-0.00848309
0.00531772
4.0208e-07
-0.00848304
0.0053181
6.53946e-07
-0.00848307
0.00531852
5.47224e-07
-0.00848318
0.00531891
-0.0084834
0.00531923
-3.55758e-09
-0.00961703
0.00347291
8.39356e-08
-0.00961695
0.00347294
1.83395e-07
-0.00961696
0.00347307
2.05393e-07
-0.009617
0.00347321
9.69702e-08
-0.00961705
0.00347336
-0.00961715
0.0034735
-5.1381e-10
0.00056764
2.40798e-08
0.000567606
3.8331e-08
0.00056764
2.27835e-08
0.000567685
-2.02569e-08
0.000567733
0.000567817
6.72043e-07
-0.0106788
0.00815749
1.60007e-06
-0.0106788
0.00815808
2.29049e-06
-0.010679
0.00815884
2.50431e-06
-0.0106793
0.00815956
1.89109e-06
-0.0106797
0.00816013
-0.0106801
0.00816056
3.67279e-07
-0.0124527
0.00524634
6.89881e-07
-0.0124527
0.00524642
8.61797e-07
-0.0124528
0.00524666
8.03924e-07
-0.012453
0.00524691
4.74886e-07
-0.0124532
0.00524712
-0.0124534
0.00524735
5.90969e-08
-1.55669e-05
1.78522e-07
-1.56499e-05
2.35856e-07
-1.55635e-05
2.20214e-07
-1.54557e-05
1.61889e-07
-1.53691e-05
-1.51357e-05
3.52613e-06
-0.0139967
0.0133287
5.24172e-06
-0.0139972
0.0133296
5.80117e-06
-0.0139981
0.0133304
5.30763e-06
-0.0139991
0.013331
3.54322e-06
-0.014
0.0133312
-0.0140009
0.0133312
1.05206e-06
-0.0168513
0.00809987
1.78039e-06
-0.0168514
0.00809999
2.05006e-06
-0.0168518
0.00810026
1.83519e-06
-0.0168522
0.00810048
1.194e-06
-0.0168526
0.00810057
-0.016853
0.00810076
2.39468e-07
-0.00206969
4.67192e-07
-0.00206983
5.93534e-07
-0.00206975
5.40305e-07
-0.00206957
4.18538e-07
-0.00206951
-0.00206907
7.56592e-06
-0.0191451
0.0232156
9.33125e-06
-0.0191472
0.0232161
8.74739e-06
-0.0191492
0.0232158
6.71598e-06
-0.019151
0.0232151
3.68725e-06
-0.0191525
0.0232139
-0.0191535
0.0232126
2.22434e-06
-0.0242557
0.0132084
3.05717e-06
-0.0242561
0.0132083
3.14957e-06
-0.0242569
0.0132081
2.46055e-06