/*--------------------------------*- C++ -*----------------------------------*\
| =========                 |                                                 |
| \\      /  F ield         | OpenFOAM: The Open Source CFD Toolbox           |
|  \\    /   O peration     | Version:  v1612+                                |
|   \\  /    A nd           | Web:      www.OpenFOAM.com                      |
|    \\/     M anipulation  |                                                 |
\*---------------------------------------------------------------------------*/
FoamFile
{
    version     2.0;
    format      ascii;
    class       volVectorField;
    location    "2.2";
    object      U;
}
// * * * * * * * * * * * * * * * * * * * * * * * * * * * * * * * * * * * * * //

dimensions      [0 1 -1 0 0 0 0];

internalField   nonuniform List<vector> 
1116
(
(0.66059 -4.55359e-06 -0.518049)
(0.660594 -4.0092e-06 -0.518059)
(0.660593 1.24687e-08 -0.518058)
(0.660594 -1.33253e-06 -0.518057)
(0.660595 -7.90079e-07 -0.518058)
(0.660591 4.81509e-07 -0.518054)
(1.96011 -8.04931e-06 -0.616672)
(1.96012 -4.57764e-06 -0.616689)
(1.96012 -1.31541e-06 -0.616685)
(1.96011 -2.52183e-06 -0.616685)
(1.96011 1.96042e-07 -0.616688)
(1.96011 4.67835e-06 -0.616675)
(3.09569 -6.95021e-06 -0.474963)
(3.0957 -1.39749e-06 -0.474977)
(3.0957 -3.64816e-06 -0.474972)
(3.0957 -4.14556e-06 -0.474973)
(3.0957 -2.74634e-06 -0.474977)
(3.09569 5.76117e-06 -0.474963)
(3.90329 -7.54344e-06 -0.339841)
(3.90331 -2.4305e-06 -0.339849)
(3.90331 -7.97355e-06 -0.339845)
(3.90331 -7.0053e-06 -0.339848)
(3.90331 -5.63975e-06 -0.339854)
(3.90329 5.73025e-06 -0.33984)
(4.49052 -9.97626e-06 -0.20318)
(4.49055 -6.49549e-06 -0.203186)
(4.49054 -1.19111e-05 -0.203182)
(4.49054 -9.48688e-06 -0.203187)
(4.49054 -8.22265e-06 -0.203195)
(4.49051 4.03602e-06 -0.203181)
(4.96856 -1.26118e-05 -0.10685)
(4.96858 -1.01559e-05 -0.106858)
(4.96858 -1.33445e-05 -0.106853)
(4.96858 -1.06772e-05 -0.106859)
(4.96858 -9.14828e-06 -0.10687)
(4.96854 2.57508e-06 -0.106857)
(5.39551 -9.25322e-06 -0.0593525)
(5.39552 -6.01614e-06 -0.0593639)
(5.39552 -8.48766e-06 -0.0593596)
(5.39552 -7.17736e-06 -0.059366)
(5.39553 -3.97036e-06 -0.0593782)
(5.39548 5.01094e-06 -0.0593687)
(5.8399 -3.67376e-06 -0.0618919)
(5.83994 1.96481e-06 -0.0619129)
(5.83993 1.22808e-06 -0.0619079)
(5.83994 -1.02617e-06 -0.0619134)
(5.83995 4.10401e-06 -0.0619254)
(5.8399 9.26572e-06 -0.0619152)
(6.29808 -4.45455e-06 0.0621317)
(6.29814 3.68298e-06 0.0621071)
(6.29813 7.36078e-06 0.0621052)
(6.29813 9.60804e-07 0.062101)
(6.29815 7.70175e-06 0.0620894)
(6.29809 1.04158e-05 0.0620964)
(5.87878 -6.27135e-06 0.305677)
(5.87886 2.1011e-06 0.305642)
(5.87886 7.5603e-06 0.305637)
(5.87886 3.32752e-06 0.305632)
(5.87887 7.48048e-06 0.305623)
(5.87879 7.37809e-06 0.305615)
(3.86253 4.23743e-06 0.683749)
(3.86264 6.05014e-06 0.683728)
(3.86262 1.07892e-07 0.683717)
(3.86262 7.85784e-06 0.683716)
(3.86266 -2.56235e-06 0.683696)
(3.86255 -6.8048e-06 0.683706)
(1.58935 -4.66196e-05 0.779905)
(1.58949 -4.66826e-05 0.779866)
(1.58945 -1.39987e-05 0.77988)
(1.58945 -2.87483e-05 0.779875)
(1.58951 3.97428e-06 0.779876)
(1.58937 2.3709e-05 0.779865)
(0.636498 -7.10772e-06 -2.06637)
(0.636488 -3.0865e-06 -2.06641)
(0.63649 -2.92046e-06 -2.0664)
(0.6365 -2.51121e-06 -2.06639)
(0.6365 -1.2329e-05 -2.0664)
(0.636472 -3.85905e-06 -2.0664)
(2.28022 4.43577e-06 -2.07311)
(2.28023 -1.23152e-06 -2.07315)
(2.28024 -5.85151e-06 -2.07314)
(2.28023 -6.24784e-06 -2.07313)
(2.28023 -7.21495e-06 -2.07315)
(2.28023 -7.25465e-06 -2.07312)
(3.36947 8.90405e-06 -1.3931)
(3.36951 6.21583e-07 -1.39313)
(3.3695 -1.03045e-05 -1.39311)
(3.3695 -1.01925e-05 -1.39312)
(3.3695 -1.411e-05 -1.39313)
(3.36947 -1.4698e-05 -1.39309)
(4.1374 7.16518e-06 -1.07563)
(4.13746 -2.12597e-06 -1.07565)
(4.13745 -1.09748e-05 -1.07564)
(4.13744 -9.92909e-06 -1.07565)
(4.13745 -1.29168e-05 -1.07567)
(4.13739 -1.58578e-05 -1.07563)
(4.7606 1.66519e-05 -0.936378)
(4.76067 6.07646e-06 -0.93641)
(4.76066 -4.71771e-06 -0.936404)
(4.76065 -4.42432e-06 -0.936418)
(4.76067 -6.67998e-06 -0.936441)
(4.76061 -1.65443e-05 -0.936409)
(5.27186 2.36369e-05 -0.922119)
(5.27196 1.16978e-05 -0.922161)
(5.27194 4.37523e-06 -0.922156)
(5.27194 1.99086e-06 -0.922168)
(5.27196 3.70402e-06 -0.922189)
(5.27189 -1.41442e-05 -0.922163)
(5.98355 3.32164e-05 -0.996022)
(5.9837 1.27099e-05 -0.996073)
(5.98367 5.01518e-06 -0.996067)
(5.98367 -1.26004e-07 -0.996075)
(5.9837 8.34624e-06 -0.996094)
(5.98363 -1.60154e-05 -0.996069)
(7.23494 4.73902e-05 -1.05713)
(7.23519 6.81083e-06 -1.05719)
(7.23514 -1.5318e-05 -1.05717)
(7.23513 -2.29361e-05 -1.05718)
(7.23518 -4.57996e-06 -1.0572)
(7.23504 -2.93964e-05 -1.05715)
(7.9799 7.39037e-05 -0.0897068)
(7.98025 3.15079e-05 -0.0897601)
(7.98013 -8.35014e-06 -0.0897341)
(7.98012 -3.21825e-05 -0.0897296)
(7.98017 -2.65802e-06 -0.0897474)
(7.98002 -2.37776e-05 -0.0896563)
(8.9597 5.65994e-05 1.59928)
(8.96004 3.39209e-05 1.59923)
(8.95991 4.4259e-06 1.59927)
(8.95991 -1.87336e-05 1.59928)
(8.95996 -1.02642e-05 1.59926)
(8.95982 -2.9024e-05 1.59932)
(6.54732 2.49005e-05 3.29281)
(6.54759 1.93949e-05 3.29283)
(6.54749 2.08476e-05 3.29285)
(6.54749 -2.6317e-05 3.29286)
(6.54746 2.81493e-05 3.29286)
(6.54744 4.96549e-05 3.29286)
(3.65629 -4.93716e-05 3.63245)
(3.65657 -4.0476e-05 3.63241)
(3.6565 1.2931e-05 3.63243)
(3.65652 -1.85125e-05 3.63242)
(3.65648 6.12372e-05 3.63244)
(3.65653 7.93874e-05 3.63236)
(-0.661646 4.55151e-06 -3.40722)
(-0.661698 -7.37677e-06 -3.40726)
(-0.661661 -2.28499e-07 -3.40725)
(-0.661664 1.45962e-06 -3.40723)
(-0.661679 -2.03999e-05 -3.40725)
(-0.66163 -2.46354e-05 -3.40725)
(2.17906 2.98253e-05 -3.87976)
(2.17908 -1.08185e-05 -3.87981)
(2.17907 1.30347e-06 -3.87981)
(2.17908 -8.07947e-07 -3.87979)
(2.17909 2.61715e-06 -3.8798)
(2.17903 -3.20597e-05 -3.8798)
(3.81178 3.29633e-05 -2.36348)
(3.81181 -1.09528e-05 -2.36347)
(3.81179 1.65758e-05 -2.36348)
(3.81179 3.55897e-06 -2.36349)
(3.81183 2.6094e-05 -2.3635)
(3.81181 -3.12266e-05 -2.3635)
(4.61402 7.98633e-05 -1.9645)
(4.61402 3.17644e-05 -1.96451)
(4.61401 6.61513e-05 -1.96452)
(4.61402 1.96722e-05 -1.96454)
(4.61407 4.20136e-05 -1.96454)
(4.61409 -4.93719e-05 -1.96457)
(5.82478 0.000137319 -1.60594)
(5.82493 0.000120619 -1.60591)
(5.82494 0.000192034 -1.60593)
(5.825 9.2367e-05 -1.60596)
(5.82507 0.000120105 -1.60593)
(5.82511 -3.43606e-05 -1.60601)
(9.34839 0.000191431 -2.33793)
(9.34887 0.000202291 -2.33791)
(9.34897 0.000246003 -2.3379)
(9.34903 0.000107182 -2.33791)
(9.34902 0.000147869 -2.33787)
(9.34909 -1.51152e-05 -2.33791)
(13.5991 8.87698e-05 -2.90692)
(13.5997 1.97717e-05 -2.90688)
(13.5998 5.61667e-05 -2.90686)
(13.5997 -5.53992e-05 -2.90686)
(13.5996 -4.53066e-05 -2.90684)
(13.5996 -0.000136156 -2.90676)
(16.5274 -4.0296e-05 -2.58437)
(16.528 -0.000297943 -2.58424)
(16.528 -0.000344163 -2.5842)
(16.5278 -0.00042091 -2.58424)
(16.5278 -0.00050543 -2.5843)
(16.5268 -0.000449855 -2.58423)
(16.1595 -9.30063e-05 -0.381335)
(16.1595 -0.000466047 -0.381109)
(16.1593 -0.000615674 -0.381069)
(16.1588 -0.000701635 -0.381179)
(16.1595 -0.000693812 -0.381324)
(16.1568 -0.000533865 -0.381355)
(9.35722 8.56132e-05 3.24928)
(9.35776 6.29919e-05 3.2494)
(9.35743 -4.75981e-06 3.24946)
(9.35729 -0.000185953 3.24939)
(9.35753 -9.4146e-05 3.24927)
(9.35673 -6.28204e-05 3.24908)
(4.97913 7.01993e-05 6.66387)
(4.97961 6.94083e-05 6.66394)
(4.97929 9.75395e-05 6.66398)
(4.97924 -2.21784e-05 6.66392)
(4.97959 0.000139881 6.6638)
(4.97874 0.000169792 6.664)
(6.00351 -5.97724e-05 6.96401)
(6.00402 -1.63839e-05 6.9641)
(6.00397 5.46421e-05 6.9641)
(6.00399 6.04669e-05 6.96404)
(6.00407 6.008e-05 6.96386)
(6.00394 -1.27115e-06 6.96444)
(-2.55622 5.08655e-05 -4.00081)
(-2.55627 -4.7418e-05 -4.00082)
(-2.55617 2.8602e-05 -4.00088)
(-2.55628 -1.57795e-05 -4.00081)
(-2.55633 3.43397e-05 -4.00078)
(-2.55588 -6.55108e-05 -4.00093)
(2.29654 3.15462e-05 -5.77555)
(2.29658 -9.05737e-05 -5.77555)
(2.2965 2.98086e-05 -5.77561)
(2.29657 -9.76668e-06 -5.77555)
(2.29659 3.53715e-05 -5.77554)
(2.29628 -8.34959e-05 -5.77564)
(2.82413 -3.21116e-05 -3.75533)
(2.82392 -4.16887e-05 -3.75525)
(2.82391 8.82251e-05 -3.75531)
(2.82392 6.32857e-05 -3.75532)
(2.82399 0.000154525 -3.75528)
(2.82427 5.93339e-05 -3.75542)
(2.33577 8.21575e-05 -3.08238)
(2.33535 0.000116868 -3.08226)
(2.33545 0.000225781 -3.08232)
(2.33555 0.000141984 -3.08235)
(2.33563 0.000136505 -3.08229)
(2.33593 1.95957e-05 -3.08244)
(2.04588 0.000129746 -2.31369)
(2.04617 0.00023037 -2.3136)
(2.04636 0.000356757 -2.3136)
(2.04655 0.000202779 -2.31359)
(2.04666 0.000204107 -2.31348)
(2.04671 4.21901e-05 -2.31356)
(-1.41274 -0.000122982 -5.92252)
(-1.41272 -0.000147995 -5.92248)
(-1.41219 -0.000103732 -5.92221)
(-1.41197 -9.44566e-05 -5.92203)
(-1.41199 1.73714e-05 -5.92194)
(-1.41174 7.36983e-05 -5.92168)
(-3.65401 -0.000195704 -5.58752)
(-3.65426 -0.000301845 -5.5876)
(-3.65396 -0.00033462 -5.58753)
(-3.65389 -0.000312793 -5.5874)
(-3.654 -0.000256462 -5.58738)
(-3.65347 -9.37839e-05 -5.58706)
(-3.35238 -6.57909e-05 -1.98109)
(-3.35265 -0.000180284 -1.98125)
(-3.35238 -0.000251658 -1.98137)
(-3.35243 -0.000200745 -1.98141)
(-3.3525 -0.00039128 -1.98158)
(-3.35252 -0.000308369 -1.98182)
(0.0701713 0.000193676 4.55327)
(0.0704093 -4.45311e-05 4.55341)
(0.0707005 -8.2249e-05 4.55348)
(0.0701857 0.000188979 4.55314)
(0.0703969 8.7335e-06 4.55278)
(0.0673672 -0.000145518 4.55146)
(5.03342 0.000384134 11.3815)
(5.03481 0.000249557 11.3819)
(5.03342 0.000101863 11.382)
(5.03344 0.000419589 11.3815)
(5.03324 -9.79568e-05 11.3812)
(5.034 -0.000453554 11.3796)
(1.99003 0.000612089 12.1157)
(1.9907 0.000615028 12.1161)
(1.99004 0.00030498 12.1163)
(1.98998 0.000108151 12.116)
(1.99037 0.00057455 12.1151)
(1.98948 0.000551344 12.1167)
(8.41525 -2.87942e-05 10.2014)
(8.41602 7.48805e-05 10.2016)
(8.41598 8.36683e-05 10.2015)
(8.41603 0.000117544 10.2015)
(8.41729 -6.27732e-05 10.2023)
(8.41461 -0.000206342 10.2008)
(-0.0010909 5.21834e-07 -0.00110688)
(-0.00109075 3.89259e-07 -0.00110694)
(-0.00109067 -1.58211e-07 -0.00110695)
(-0.00109059 -2.12919e-07 -0.001107)
(-0.00109053 -3.01705e-07 -0.00110703)
(-0.00109041 -1.14405e-07 -0.00110712)
(-0.00331362 3.35572e-07 -0.00114816)
(-0.00331331 9.53416e-08 -0.00114812)
(-0.00331315 -3.94849e-07 -0.00114811)
(-0.00331296 -4.3438e-07 -0.00114816)
(-0.00331283 -5.86712e-07 -0.00114821)
(-0.00331261 -3.02039e-07 -0.00114833)
(-0.00565322 2.63803e-07 -0.00122123)
(-0.0056528 -1.95344e-08 -0.00122082)
(-0.00565254 -5.66009e-07 -0.0012207)
(-0.00565223 -6.23079e-07 -0.00122072)
(-0.00565194 -7.61042e-07 -0.00122078)
(-0.00565159 -4.15197e-07 -0.00122092)
(-0.00817769 2.95198e-07 -0.00131379)
(-0.00817691 -1.05942e-07 -0.0013126)
(-0.00817626 -9.44062e-07 -0.00131225)
(-0.00817551 -1.15052e-06 -0.00131221)
(-0.00817469 -1.27606e-06 -0.00131232)
(-0.00817384 -6.61955e-07 -0.0013126)
(-0.0109636 3.12817e-07 -0.00140119)
(-0.0109617 -4.89889e-07 -0.00139875)
(-0.0109599 -2.07335e-06 -0.00139804)
(-0.0109581 -2.67126e-06 -0.00139794)
(-0.0109561 -2.7222e-06 -0.00139824)
(-0.010954 -1.31291e-06 -0.00139897)
(-0.0141477 -2.73918e-07 -0.0015095)
(-0.014143 -2.4703e-06 -0.00150583)
(-0.0141389 -5.24889e-06 -0.00150499)
(-0.014135 -6.26368e-06 -0.00150517)
(-0.0141309 -5.92784e-06 -0.00150611)
(-0.0141264 -2.70439e-06 -0.00150798)
(-0.0178609 -2.47655e-06 -0.00193403)
(-0.0178507 -7.79058e-06 -0.001931)
(-0.0178428 -1.16596e-05 -0.00193118)
(-0.0178361 -1.2577e-05 -0.00193251)
(-0.0178294 -1.11466e-05 -0.00193487)
(-0.0178215 -4.89864e-06 -0.00193873)
(-0.0219168 -6.42613e-06 -0.00316754)
(-0.0218981 -1.60819e-05 -0.00316938)
(-0.0218862 -1.97123e-05 -0.00317241)
(-0.0218776 -1.91359e-05 -0.00317588)
(-0.0218696 -1.58264e-05 -0.00318009)
(-0.0218587 -6.72901e-06 -0.00318591)
(-0.0259135 -1.01838e-05 -0.0055021)
(-0.0258854 -2.19581e-05 -0.00551271)
(-0.0258723 -2.21795e-05 -0.00551934)
(-0.0258654 -1.84935e-05 -0.00552434)
(-0.0258595 -1.3502e-05 -0.00552875)
(-0.0258492 -5.39448e-06 -0.00553372)
(-0.026581 -7.77888e-06 -0.00816114)
(-0.0265438 -1.41179e-05 -0.00818045)
(-0.0265314 -9.71756e-06 -0.00818866)
(-0.0265278 -4.05342e-06 -0.00819227)
(-0.0265264 4.05131e-07 -0.00819289)
(-0.0265206 1.06849e-06 -0.00819212)
(-0.0263365 -1.63464e-06 -0.00867296)
(-0.0262962 5.47106e-07 -0.00868993)
(-0.0262851 6.94851e-06 -0.00869238)
(-0.0262832 1.143e-05 -0.00868902)
(-0.0262842 1.32161e-05 -0.00868201)
(-0.0262842 6.54794e-06 -0.00867193)
(-0.0144872 6.85808e-06 -0.000778052)
(-0.0144678 1.26196e-05 -0.000784669)
(-0.014462 1.00168e-05 -0.000786324)
(-0.0144599 7.1745e-06 -0.000787504)
(-0.0144592 5.05248e-06 -0.000788111)
(-0.0144592 2.08937e-06 -0.000786462)
(-0.00108048 3.79835e-07 -0.00324683)
(-0.0010803 2.21518e-07 -0.00324689)
(-0.0010802 -2.69656e-07 -0.00324688)
(-0.00108011 -3.54598e-07 -0.00324694)
(-0.00108005 -4.90554e-07 -0.00324697)
(-0.00107996 -2.51975e-07 -0.00324709)
(-0.00329202 1.55165e-07 -0.00338061)
(-0.00329157 -1.29828e-07 -0.00338046)
(-0.00329131 -5.34709e-07 -0.0033804)
(-0.00329108 -5.79564e-07 -0.00338046)
(-0.00329093 -7.22352e-07 -0.00338052)
(-0.00329074 -3.92697e-07 -0.0033807)
(-0.00565335 -6.00881e-08 -0.00363017)
(-0.00565262 -5.24208e-07 -0.00362928)
(-0.00565213 -9.21767e-07 -0.00362898)
(-0.00565169 -8.74981e-07 -0.00362894)
(-0.00565135 -9.1605e-07 -0.00362902)
(-0.00565104 -4.9945e-07 -0.00362925)
(-0.00825952 -3.74418e-07 -0.00398674)
(-0.0082581 -1.1966e-06 -0.00398432)
(-0.00825707 -1.6726e-06 -0.0039835)
(-0.0082561 -1.58974e-06 -0.00398329)
(-0.0082552 -1.42435e-06 -0.00398346)
(-0.0082544 -6.87051e-07 -0.00398407)
(-0.0111476 -1.06818e-06 -0.00442344)
(-0.0111446 -2.67297e-06 -0.00441863)
(-0.0111423 -3.33435e-06 -0.00441708)
(-0.0111402 -3.25375e-06 -0.00441673)
(-0.0111381 -2.70819e-06 -0.00441731)
(-0.011136 -1.18726e-06 -0.00441899)
(-0.0141056 -2.45493e-06 -0.00485683)
(-0.014099 -5.75699e-06 -0.00485023)
(-0.014094 -6.72814e-06 -0.00484863)
(-0.0140899 -6.44338e-06 -0.00484895)
(-0.0140858 -5.18295e-06 -0.00485097)
(-0.0140813 -2.16736e-06 -0.00485525)
(-0.0167035 -4.89941e-06 -0.00492925)
(-0.0166887 -1.06856e-05 -0.00492583)
(-0.0166794 -1.12746e-05 -0.00492708)
(-0.0166725 -1.00299e-05 -0.00493025)
(-0.0166661 -7.60921e-06 -0.00493558)
(-0.0166585 -3.06194e-06 -0.00494423)
(-0.0186632 -7.43388e-06 -0.00351205)
(-0.0186326 -1.44706e-05 -0.00352207)
(-0.0186174 -1.24605e-05 -0.00353068)
(-0.0186085 -9.00967e-06 -0.00353889)
(-0.0186016 -5.57626e-06 -0.00354804)
(-0.0185926 -1.9741e-06 -0.00356002)
(-0.0204357 -7.46612e-06 0.000584333)
(-0.0203807 -1.07446e-05 0.000553707)
(-0.0203599 -2.63691e-06 0.000537774)
(-0.0203522 4.05745e-06 0.00052745)
(-0.02035 7.22818e-06 0.000519946)
(-0.020347 3.84263e-06 0.000513107)
(-0.02246 -3.80434e-06 0.0110147)
(-0.0223836 2.60176e-06 0.010973)
(-0.0223629 1.87027e-05 0.0109592)
(-0.0223632 2.7618e-05 0.0109571)
(-0.022374 2.83406e-05 0.0109628)
(-0.0223893 1.30122e-05 0.010974)
(-0.0293292 8.98469e-06 0.0226076)
(-0.0292517 2.63328e-05 0.0225821)
(-0.0292362 3.85171e-05 0.0225821)
(-0.0292438 4.28837e-05 0.0225926)
(-0.0292655 3.87278e-05 0.022611)
(-0.0293009 1.71131e-05 0.022639)
(-0.0270639 1.46031e-05 0.0521955)
(-0.0270263 2.2326e-05 0.0521835)
(-0.0270172 8.94886e-06 0.0521766)
(-0.0270184 -2.39182e-06 0.0521715)
(-0.0270274 -9.29906e-06 0.0521701)
(-0.0270466 -5.63399e-06 0.0521767)
(-0.00102207 3.43978e-07 -0.0052877)
(-0.00102192 2.28429e-07 -0.00528772)
(-0.00102185 -2.53157e-07 -0.00528768)
(-0.00102179 -3.56758e-07 -0.00528771)
(-0.00102176 -4.69647e-07 -0.00528769)
(-0.00102172 -2.54984e-07 -0.00528774)
(-0.00312404 1.24852e-07 -0.00552962)
(-0.0031237 -1.02645e-07 -0.00552942)
(-0.00312353 -4.80207e-07 -0.00552932)
(-0.00312338 -5.46132e-07 -0.00552933)
(-0.00312332 -6.60182e-07 -0.00552935)
(-0.00312329 -3.66683e-07 -0.00552948)
(-0.0053986 -7.4176e-08 -0.00599217)
(-0.00539811 -4.73031e-07 -0.00599127)
(-0.0053978 -8.12094e-07 -0.00599093)
(-0.00539754 -7.7188e-07 -0.00599081)
(-0.0053974 -7.69559e-07 -0.00599085)
(-0.00539741 -4.10254e-07 -0.00599105)
(-0.00795703 -4.05124e-07 -0.00666829)
(-0.00795612 -1.1158e-06 -0.00666599)
(-0.00795548 -1.4221e-06 -0.00666511)
(-0.00795492 -1.2807e-06 -0.00666479)
(-0.0079545 -1.06829e-06 -0.00666492)
(-0.00795437 -4.96823e-07 -0.00666558)
(-0.0109612 -1.07753e-06 -0.00749504)
(-0.0109592 -2.40148e-06 -0.00749063)
(-0.0109578 -2.61351e-06 -0.00748909)
(-0.0109566 -2.28858e-06 -0.00748867)
(-0.0109556 -1.66911e-06 -0.00748931)
(-0.010955 -6.65969e-07 -0.00749131)
(-0.0148636 -2.25918e-06 -0.00836713)
(-0.0148587 -4.68196e-06 -0.00836225)
(-0.0148555 -4.55419e-06 -0.0083611)
(-0.0148531 -3.68371e-06 -0.00836161)
(-0.0148513 -2.41213e-06 -0.00836398)
(-0.0148501 -8.57037e-07 -0.00836903)
(-0.0207148 -3.94788e-06 -0.00916369)
(-0.0207019 -7.36616e-06 -0.00916532)
(-0.0206957 -5.75279e-06 -0.00916812)
(-0.0206923 -3.55e-06 -0.00917205)
(-0.0206906 -1.40647e-06 -0.00917805)
(-0.0206899 -1.95963e-07 -0.00918756)
(-0.0289979 -5.3167e-06 -0.0100423)
(-0.0289696 -7.55536e-06 -0.0100623)
(-0.0289602 -1.3516e-06 -0.0100736)
(-0.0289585 3.7793e-06 -0.0100825)
(-0.0289613 6.26987e-06 -0.0100912)
(-0.0289672 3.34332e-06 -0.0101015)
(-0.0408319 -3.26685e-06 -0.0113882)
(-0.0407843 2.25004e-06 -0.0114311)
(-0.040776 1.64751e-05 -0.011448)
(-0.0407835 2.44557e-05 -0.0114555)
(-0.0408009 2.51811e-05 -0.0114574)
(-0.0408264 1.16549e-05 -0.0114547)
(-0.0482566 6.01299e-06 -0.0113441)
(-0.0481979 2.41818e-05 -0.0113896)
(-0.0481989 4.29094e-05 -0.0113958)
(-0.048224 5.05306e-05 -0.0113865)
(-0.0482657 4.59217e-05 -0.0113662)
(-0.0483236 2.00311e-05 -0.0113346)
(-0.0586816 1.56794e-05 -0.0142067)
(-0.0586319 3.45398e-05 -0.0142157)
(-0.0586462 3.78702e-05 -0.0142019)
(-0.0586895 3.48146e-05 -0.0141764)
(-0.0587548 2.55042e-05 -0.0141416)
(-0.0588429 9.7073e-06 -0.0140931)
(-0.0410806 1.79378e-07 0.0129901)
(-0.0410583 -1.38894e-05 0.0129887)
(-0.0410656 -3.64461e-05 0.0129871)
(-0.0410884 -4.90362e-05 0.0129892)
(-0.0411244 -5.04754e-05 0.0129985)
(-0.0411732 -2.44854e-05 0.0130181)
(-0.000910229 2.47054e-07 -0.00714213)
(-0.000910098 1.60556e-07 -0.00714215)
(-0.000910041 -2.37169e-07 -0.00714213)
(-0.000910004 -3.4723e-07 -0.00714213)
(-0.000909985 -4.12133e-07 -0.00714212)
(-0.000909959 -2.19988e-07 -0.00714217)
(-0.0027979 5.77694e-08 -0.00751972)
(-0.00279757 -1.3032e-07 -0.00751956)
(-0.00279742 -4.26128e-07 -0.00751949)
(-0.00279734 -4.95102e-07 -0.00751947)
(-0.00279734 -5.81018e-07 -0.00751948)
(-0.00279738 -3.2443e-07 -0.00751957)
(-0.00490143 -1.59298e-07 -0.00826148)
(-0.00490083 -5.00605e-07 -0.00826084)
(-0.00490058 -6.75893e-07 -0.00826056)
(-0.00490047 -6.0856e-07 -0.00826044)
(-0.00490049 -5.68403e-07 -0.00826044)
(-0.00490068 -2.95425e-07 -0.0082606)
(-0.00741143 -5.14055e-07 -0.00937915)
(-0.00741036 -1.05333e-06 -0.00937749)
(-0.00740992 -9.94686e-07 -0.00937681)
(-0.00740974 -7.39022e-07 -0.00937652)
(-0.00740975 -4.81424e-07 -0.00937659)
(-0.00740999 -2.00227e-07 -0.00937713)
(-0.0105167 -8.52681e-07 -0.0108333)
(-0.0105147 -1.58359e-06 -0.0108303)
(-0.0105139 -1.20956e-06 -0.0108292)
(-0.0105137 -6.57768e-07 -0.0108289)
(-0.0105137 -1.58346e-07 -0.0108295)
(-0.010514 1.54353e-08 -0.0108312)
(-0.014188 -1.1201e-06 -0.0125093)
(-0.0141838 -1.61285e-06 -0.0125068)
(-0.0141827 -4.15974e-07 -0.0125064)
(-0.0141827 6.40621e-07 -0.0125072)
(-0.0141832 1.32036e-06 -0.0125095)
(-0.0141839 7.50135e-07 -0.0125137)
(-0.0177885 -2.5359e-07 -0.0142555)
(-0.0177798 1.26135e-06 -0.0142598)
(-0.0177785 4.15645e-06 -0.0142636)
(-0.0177798 5.84439e-06 -0.014268)
(-0.0177823 6.01333e-06 -0.0142737)
(-0.0177853 2.81798e-06 -0.0142813)
(-0.0206419 3.10424e-06 -0.0148043)
(-0.0206253 1.01512e-05 -0.0148252)
(-0.0206248 1.59429e-05 -0.014837)
(-0.0206302 1.80521e-05 -0.0148464)
(-0.0206392 1.62215e-05 -0.0148547)
(-0.0206509 7.0918e-06 -0.0148615)
(-0.0235626 9.42384e-06 -0.0130377)
(-0.0235385 2.50738e-05 -0.0130765)
(-0.0235434 3.31535e-05 -0.0130926)
(-0.0235597 3.40446e-05 -0.0131003)
(-0.0235841 2.82485e-05 -0.0131015)
(-0.0236168 1.18047e-05 -0.0130943)
(-0.0254126 1.37277e-05 0.00323119)
(-0.025392 3.24147e-05 0.0031956)
(-0.0254129 3.73141e-05 0.00319266)
(-0.0254514 3.40833e-05 0.00320364)
(-0.0255022 2.47073e-05 0.00322539)
(-0.0255663 9.25064e-06 0.00325978)
(-0.0449737 5.36219e-06 0.0331399)
(-0.0449773 7.58442e-06 0.0331474)
(-0.0450208 4.49974e-07 0.0331704)
(-0.0450858 -7.57835e-06 0.0332067)
(-0.0451608 -1.39743e-05 0.0332496)
(-0.0452415 -7.90746e-06 0.033299)
(-0.0568405 -2.42882e-05 0.171448)
(-0.0568393 -6.21351e-05 0.171417)
(-0.056865 -8.47039e-05 0.171425)
(-0.0569018 -9.04605e-05 0.17144)
(-0.0569488 -7.81623e-05 0.171486)
(-0.0569867 -3.39518e-05 0.171499)
(-1.27584 4.0076e-05 -3.82179)
(-1.27582 -7.18354e-05 -3.82176)
(-1.27575 5.40549e-05 -3.8219)
(-1.27589 -4.45349e-05 -3.82178)
(-1.27594 0.000174137 -3.82168)
(-1.27548 2.72842e-05 -3.82202)
(-0.26101 -1.0895e-05 -3.81513)
(-0.261019 2.21554e-05 -3.81526)
(-0.261006 4.01456e-05 -3.81529)
(-0.261058 1.92774e-05 -3.81523)
(-0.261075 0.00010069 -3.81519)
(-0.260963 8.47412e-05 -3.81523)
(0.0747251 -3.74833e-06 -3.66672)
(0.0747059 -1.00035e-05 -3.66682)
(0.0747039 -1.9804e-05 -3.66682)
(0.0747236 -2.55215e-05 -3.66678)
(0.0747273 -3.01539e-05 -3.66679)
(0.0746815 -1.31685e-05 -3.66677)
(1.29427 -7.77455e-05 -4.6182)
(1.29422 -4.96996e-05 -4.6183)
(1.29416 1.62626e-05 -4.61827)
(1.29422 3.78941e-05 -4.61823)
(1.29428 1.22309e-05 -4.61826)
(1.29423 1.69941e-05 -4.61811)
(-0.275904 -2.07735e-05 -4.70635)
(-0.275928 -3.36415e-05 -4.70647)
(-0.275945 -2.91508e-05 -4.70641)
(-0.275964 -5.27819e-06 -4.70639)
(-0.275962 -2.4859e-08 -4.70644)
(-0.275888 2.23766e-06 -4.70626)
(-0.317611 1.29147e-05 -3.95016)
(-0.317619 7.91293e-06 -3.95025)
(-0.317621 -5.91097e-06 -3.95021)
(-0.317615 -2.26292e-06 -3.95019)
(-0.317612 -8.19755e-06 -3.9502)
(-0.317627 -1.24185e-05 -3.95007)
(-3.13313 -3.09738e-05 -2.73578)
(-3.13362 3.49886e-06 -2.73583)
(-3.13365 -8.69478e-06 -2.73582)
(-3.13363 -1.26152e-05 -2.73581)
(-3.13356 9.81217e-06 -2.73585)
(-3.13321 6.82514e-05 -2.73581)
(-1.29282 -2.42927e-06 -1.8333)
(-1.29295 -9.2274e-06 -1.83335)
(-1.29298 -2.79793e-05 -1.83331)
(-1.29302 -1.27801e-05 -1.83331)
(-1.29303 -2.72196e-05 -1.83334)
(-1.29288 -7.08315e-06 -1.83322)
(-0.402385 9.21703e-06 -2.17247)
(-0.402368 8.76058e-06 -2.1725)
(-0.402386 1.15142e-05 -2.17246)
(-0.402387 1.10225e-05 -2.17245)
(-0.402384 7.99891e-06 -2.17245)
(-0.402423 -3.05064e-06 -2.17235)
(-2.37841 3.24706e-05 -1.63828)
(-2.37864 1.1186e-05 -1.63847)
(-2.37867 -5.26914e-05 -1.63836)
(-2.37872 -4.78054e-05 -1.6383)
(-2.37877 -3.73943e-05 -1.63831)
(-2.37864 1.49576e-05 -1.63814)
(-0.679685 4.85137e-06 -3.26791)
(-0.679713 -2.82889e-05 -3.26811)
(-0.679777 -5.91171e-05 -3.26811)
(-0.679818 -5.74261e-05 -3.26813)
(-0.679853 -6.56705e-05 -3.26818)
(-0.679892 -4.18694e-05 -3.26793)
(-0.0412232 1.60089e-05 -3.04411)
(-0.0412044 2.45391e-05 -3.04421)
(-0.0412079 1.38933e-05 -3.0442)
(-0.0412077 6.95306e-06 -3.0442)
(-0.0412084 -1.27194e-05 -3.04422)
(-0.0412273 -1.51456e-05 -3.0441)
(-1.55495 -6.61009e-05 -0.428707)
(-1.55513 -8.43754e-05 -0.428933)
(-1.55519 -3.94828e-05 -0.428776)
(-1.55524 -2.75644e-05 -0.428623)
(-1.55524 2.39643e-05 -0.428561)
(-1.55512 4.07799e-05 -0.428298)
(-0.551283 -3.17595e-06 -2.92576)
(-0.551304 -3.27684e-05 -2.92597)
(-0.551329 -7.99718e-05 -2.92598)
(-0.551359 -7.95441e-05 -2.92599)
(-0.551382 -7.22723e-05 -2.92603)
(-0.55138 -2.88335e-05 -2.9258)
(-0.0602856 6.49836e-06 -2.40759)
(-0.0602815 3.50847e-06 -2.40772)
(-0.0602881 -5.72682e-06 -2.40774)
(-0.0602923 -1.35147e-05 -2.40775)
(-0.0602955 -2.13455e-05 -2.40779)
(-0.0603063 -1.48888e-05 -2.40768)
(-0.86823 -9.50771e-05 -1.57543)
(-0.868516 -0.000148998 -1.5757)
(-0.868603 -9.68309e-05 -1.57565)
(-0.868647 -8.45388e-05 -1.5756)
(-0.868638 -1.42688e-05 -1.57557)
(-0.868469 1.33214e-05 -1.57527)
(0.0359914 2.37338e-06 -3.34151)
(0.0359916 -1.59022e-05 -3.34164)
(0.0359875 -4.62349e-05 -3.34163)
(0.0359853 -5.26356e-05 -3.34162)
(0.0359816 -5.51821e-05 -3.34164)
(0.0360128 -2.28064e-05 -3.34145)
(-0.132089 8.57077e-07 -2.57598)
(-0.132092 -9.09758e-06 -2.57611)
(-0.132093 -1.78438e-05 -2.57612)
(-0.132094 -2.0127e-05 -2.57614)
(-0.132091 -2.30219e-05 -2.57617)
(-0.132092 -1.50909e-05 -2.57607)
(-1.65562 -7.34949e-05 -3.24099)
(-1.65603 -9.39215e-05 -3.24126)
(-1.65598 -3.24063e-05 -3.24118)
(-1.6559 -7.26688e-05 -3.24111)
(-1.65585 -1.75245e-06 -3.24107)
(-1.65543 4.01701e-05 -3.24068)
(-0.552973 -3.17639e-05 -2.74623)
(-0.552984 -5.65598e-05 -2.74626)
(-0.553006 -4.80075e-05 -2.74625)
(-0.553 -4.70633e-05 -2.74625)
(-0.552999 -1.08596e-05 -2.74627)
(-0.552922 1.67209e-05 -2.7462)
(-0.305774 -6.435e-06 -2.45744)
(-0.305775 -1.63335e-05 -2.45755)
(-0.305772 -1.82692e-05 -2.45755)
(-0.305769 -1.32859e-05 -2.45754)
(-0.305768 -9.71673e-06 -2.45753)
(-0.305758 -5.61984e-06 -2.45743)
(-3.0611 4.78822e-05 -4.39612)
(-3.06194 7.54893e-05 -4.39656)
(-3.06183 5.52958e-05 -4.39639)
(-3.06178 2.72114e-05 -4.39636)
(-3.06186 3.06867e-05 -4.39618)
(-3.06105 3.81067e-05 -4.39618)
(-1.297 -1.06821e-05 -1.89407)
(-1.29723 -4.47003e-05 -1.89411)
(-1.29731 -5.19858e-05 -1.89414)
(-1.29733 -5.89687e-05 -1.89417)
(-1.29741 7.60618e-06 -1.89411)
(-1.29707 4.53206e-05 -1.89429)
(-0.314039 -1.41399e-05 -1.86296)
(-0.314065 -2.20842e-05 -1.86301)
(-0.314082 -1.62861e-05 -1.86299)
(-0.31411 -2.10123e-05 -1.86299)
(-0.314134 1.95276e-05 -1.86298)
(-0.314101 3.37345e-05 -1.86292)
(-3.77687 0.000345013 -2.74408)
(-3.77754 0.000428496 -2.74418)
(-3.77734 0.000289604 -2.74367)
(-3.77739 0.000450011 -2.74379)
(-3.77755 0.000189992 -2.74284)
(-3.77706 -4.75256e-05 -2.74616)
(-2.97436 7.0559e-05 -0.963127)
(-2.97484 2.40264e-05 -0.963026)
(-2.97489 6.66792e-05 -0.963071)
(-2.97496 1.07777e-05 -0.962974)
(-2.97502 0.000217226 -0.962003)
(-2.9746 0.000318438 -0.963973)
(-0.569388 -8.48537e-05 -1.28822)
(-0.569508 -0.000132803 -1.28818)
(-0.569542 -0.000129882 -1.28815)
(-0.569594 -0.000155871 -1.28812)
(-0.569634 2.21211e-05 -1.28823)
(-0.569517 9.49977e-05 -1.28821)
(2.8011 0.000454323 7.48309)
(2.80286 0.000534299 7.48488)
(2.80189 0.000464675 7.48482)
(2.80214 0.000969645 7.48461)
(2.80168 0.000548482 7.48598)
(2.80288 -7.21301e-05 7.47947)
(-1.17886 9.37514e-05 2.62738)
(-1.17853 0.000220334 2.62889)
(-1.17845 0.000546381 2.62911)
(-1.17842 0.000350786 2.62949)
(-1.17794 0.000894596 2.63057)
(-1.17897 0.00099213 2.62783)
(-0.0150136 -0.000147071 0.996751)
(-0.0155453 -0.000197498 0.997017)
(-0.0155618 -0.000120724 0.997227)
(-0.0159491 -0.000147934 0.997176)
(-0.0156928 0.00011223 0.99756)
(-0.0162958 0.000194018 0.996841)
(1.52571 0.00110726 10.0448)
(1.52808 0.00170378 10.0482)
(1.52692 0.00156828 10.048)
(1.52709 0.000437581 10.0476)
(1.52749 0.00206295 10.0429)
(1.52784 0.00234895 10.0529)
(2.83721 -0.000151079 3.54708)
(2.83751 0.00036723 3.55118)
(2.83733 0.000850006 3.5525)
(2.83769 0.000462412 3.55249)
(2.83711 0.00101198 3.53935)
(2.83809 0.000845144 3.56796)
(2.06588 -0.000443018 -0.346138)
(2.0659 -0.000534948 -0.345363)
(2.06622 -0.00050755 -0.344922)
(2.06624 0.00010344 -0.344359)
(2.06668 -0.000684245 -0.346107)
(2.06597 -0.00119455 -0.341739)
(8.99928 9.53834e-05 10.8536)
(9.00044 0.000311542 10.8544)
(9.00017 0.0003074 10.8541)
(9.00028 2.70024e-05 10.8542)
(9.00211 0.000288716 10.8551)
(8.99832 0.000334821 10.8533)
(5.93944 0.000112311 4.1182)
(5.94082 0.000428115 4.12119)
(5.94049 0.000733607 4.12095)
(5.9404 -0.000474057 4.12103)
(5.93855 0.00158296 4.11558)
(5.94345 0.00245496 4.12805)
(4.2979 -0.000167097 -2.13412)
(4.29875 7.89351e-05 -2.13301)
(4.29933 -0.000238322 -2.1327)
(4.2991 -2.12007e-05 -2.13221)
(4.29083 -4.11964e-05 -2.14518)
(4.30851 -0.000509062 -2.11714)
(-0.858591 -2.44859e-05 0.0154671)
(-0.858547 -1.96159e-05 0.0154835)
(-0.85866 -5.05567e-05 0.0154839)
(-0.858486 -2.305e-05 0.0154536)
(-0.858758 -2.79032e-06 0.0156026)
(-0.858447 -3.09415e-05 0.0152358)
(-0.577091 7.51629e-05 -0.86751)
(-0.577243 9.32739e-05 -0.867517)
(-0.577305 -5.53791e-05 -0.867611)
(-0.577149 0.000179144 -0.867438)
(-0.578318 -0.000353458 -0.86784)
(-0.576 -0.000608539 -0.867143)
(0.980529 2.43605e-06 -0.245897)
(0.980579 -0.000245497 -0.246075)
(0.980847 0.000188155 -0.245962)
(0.980469 -0.000700012 -0.24606)
(0.981679 0.000942352 -0.246902)
(0.979396 0.00207591 -0.244944)
(-0.562091 -5.48569e-05 -0.247071)
(-0.56198 7.93806e-05 -0.246934)
(-0.562051 -0.000119233 -0.246977)
(-0.561843 0.00012779 -0.246984)
(-0.561906 -0.000117005 -0.246316)
(-0.562009 -0.000514628 -0.247865)
(-0.678544 0.000260521 -1.50252)
(-0.678861 0.000326818 -1.50255)
(-0.679007 -0.000117864 -1.50273)
(-0.678524 0.00124476 -1.50246)
(-0.681277 -0.00151144 -1.50334)
(-0.676332 -0.00294205 -1.50175)
(1.06906 3.4882e-05 0.527798)
(1.06925 -0.000364778 0.529028)
(1.06917 0.000223746 0.528247)
(1.06951 -0.00240721 0.528917)
(1.07276 0.00275085 0.543889)
(1.06587 0.00580769 0.511831)
(-2.2661 -0.00011835 -0.283434)
(-2.26594 -1.34637e-05 -0.28345)
(-2.26637 -0.000228473 -0.283201)
(-2.2658 -0.000151723 -0.283533)
(-2.26686 0.000119538 -0.283798)
(-2.26584 -5.83392e-05 -0.282712)
(-0.489397 0.000556907 -2.0532)
(-0.490112 0.000969609 -2.05402)
(-0.49006 -0.000537086 -2.05392)
(-0.489654 0.00302926 -2.05359)
(-0.492072 -0.00308764 -2.05776)
(-0.489394 -0.00706304 -2.05024)
(2.67029 0.000412353 7.92864)
(2.67189 0.000565678 7.93292)
(2.66964 -0.000320396 7.92954)
(2.67326 0.00126471 7.93307)
(2.69991 -0.0017289 7.98193)
(2.6418 -0.00333421 7.87709)
(-1.99064 -0.000418032 -0.84485)
(-1.99096 0.000355268 -0.844773)
(-1.99087 -0.000341809 -0.844791)
(-1.98989 -0.000169938 -0.844643)
(-1.99375 0.000785555 -0.843328)
(-1.98619 -0.000191041 -0.845858)
(3.98745 -6.8807e-05 3.51768)
(3.98728 0.000649069 3.51737)
(3.98603 -0.00015654 3.51654)
(3.98853 0.000965634 3.51787)
(3.9959 -2.09812e-05 3.52832)
(3.97261 -0.00183706 3.50219)
(8.63499 7.36663e-05 15.4029)
(8.63685 0.00106877 15.4056)
(8.6353 -0.000439738 15.4039)
(8.63736 0.00445045 15.4058)
(8.66798 -0.00500999 15.4342)
(8.60286 -0.01082 15.376)