/*--------------------------------*- C++ -*----------------------------------*\
| =========                 |                                                 |
| \\      /  F ield         | OpenFOAM: The Open Source CFD Toolbox           |
|  \\    /   O peration     | Version:  v1612+                                |
|   \\  /    A nd           | Web:      www.OpenFOAM.com                      |
|    \\/     M anipulation  |                                                 |
\*---------------------------------------------------------------------------*/
FoamFile
{
    version     2.0;
    format      ascii;
    class       volScalarField;
    location    "3.4";
    object      p;
}
// * * * * * * * * * * * * * * * * * * * * * * * * * * * * * * * * * * * * * //

dimensions      [1 -1 -2 0 0 0 0];

internalField   nonuniform List<scalar> 
1116
(
4651.26
4651.25
4651.25
4651.24
4651.23
4651.24
4457.89
4457.87
4457.88
4457.87
4457.85
4457.88
4313.56
4313.54
4313.54
4313.54
4313.53
4313.54
4500.29
4500.27
4500.27
4500.27
4500.26
4500.27
4891.68
4891.66
4891.66
4891.66
4891.65
4891.67
5427.53
5427.51
5427.51
5427.51
5427.51
5427.52
6268.27
6268.26
6268.25
6268.25
6268.25
6268.27
7735.9
7735.87
7735.87
7735.86
7735.86
7735.89
10449
10449
10449
10449
10449
10449
14371.9
14371.9
14371.9
14371.9
14371.9
14371.9
18145.1
18145
18145
18145
18145
18145
20221.8
20221.8
20221.8
20221.8
20221.8
20221.7
388.916
388.912
388.913
388.906
388.903
388.92
196.055
196.051
196.05
196.049
196.05
196.057
154.88
154.879
154.877
154.878
154.879
154.879
205.212
205.211
205.209
205.21
205.211
205.209
306.889
306.887
306.885
306.887
306.889
306.887
449.825
449.821
449.82
449.822
449.825
449.825
640.093
640.085
640.084
640.087
640.092
640.093
921.226
921.207
921.209
921.211
921.217
921.23
2058.72
2058.65
2058.66
2058.66
2058.65
2058.73
5944.09
5944.08
5944.08
5944.08
5944.08
5944.12
10805.4
10805.4
10805.4
10805.4
10805.4
10805.4
13455
13455.1
13455.1
13455
13455.1
13455
-17.7438
-17.7434
-17.7432
-17.7431
-17.743
-17.7433
-16.6765
-16.6762
-16.6761
-16.6761
-16.676
-16.6763
-15.6972
-15.6971
-15.6971
-15.6972
-15.6973
-15.6976
-13.4639
-13.4637
-13.4637
-13.4639
-13.464
-13.4642
-11.1554
-11.1553
-11.1553
-11.1554
-11.1555
-11.1555
-8.14816
-8.14818
-8.14817
-8.14824
-8.14841
-8.14825
1.4173
1.41671
1.41627
1.41591
1.41569
1.41572
27.4271
27.4253
27.424
27.4231
27.4232
27.4238
122.932
122.927
122.929
122.93
122.929
122.937
494.814
494.804
494.816
494.816
494.811
494.848
4390.29
4389.97
4390.11
4390.09
4390.03
4390.2
8228.94
8229.18
8229.09
8229.12
8229.14
8229.07
-27.7279
-27.7276
-27.7274
-27.7272
-27.7271
-27.7273
-26.8628
-26.8627
-26.8626
-26.8626
-26.8626
-26.8628
-25.8109
-25.8108
-25.8109
-25.8109
-25.811
-25.8113
-23.3571
-23.3569
-23.3569
-23.3569
-23.3569
-23.3571
-20.4525
-20.4523
-20.4523
-20.4524
-20.4523
-20.4525
-18.6742
-18.6739
-18.6741
-18.6744
-18.6745
-18.6746
-17.4009
-17.4004
-17.4006
-17.401
-17.4011
-17.4019
-17.2712
-17.2713
-17.2719
-17.2724
-17.2725
-17.2731
-22.339
-22.3415
-22.3418
-22.3417
-22.3415
-22.3391
48.8599
48.8554
48.8572
48.8577
48.8565
48.8625
668.657
668.55
668.588
668.589
668.515
668.688
2997.48
2997.6
2997.48
2997.51
2997.47
2997.52
-3.61351
-3.61348
-3.61349
-3.6135
-3.61351
-3.61352
-3.551
-3.55098
-3.55098
-3.55097
-3.55097
-3.55098
-3.4225
-3.42247
-3.42243
-3.42237
-3.42232
-3.42228
-3.22003
-3.22
-3.21993
-3.21984
-3.21975
-3.21968
-2.93234
-2.93234
-2.9323
-2.93225
-2.9322
-2.93217
-2.54609
-2.54613
-2.54619
-2.54626
-2.54633
-2.54639
-2.05107
-2.05118
-2.05135
-2.0515
-2.05161
-2.05167
-1.45014
-1.45046
-1.45059
-1.45067
-1.45066
-1.45053
-0.766062
-0.766452
-0.766632
-0.766713
-0.76649
-0.765801
-0.031467
-0.0340429
-0.0338235
-0.034823
-0.0351145
-0.0287092
0.72291
0.722987
0.723191
0.723276
0.72343
0.72401
1.19152
1.1911
1.19031
1.18931
1.18827
1.18768
-13.4844
-13.4844
-13.4844
-13.4844
-13.4845
-13.4845
-13.4205
-13.4205
-13.4204
-13.4204
-13.4204
-13.4205
-13.2917
-13.2917
-13.2917
-13.2916
-13.2917
-13.2917
-13.098
-13.098
-13.098
-13.0981
-13.0981
-13.0981
-12.8427
-12.8428
-12.8429
-12.8429
-12.8429
-12.8429
-12.5327
-12.5328
-12.5328
-12.5328
-12.5327
-12.5327
-12.1678
-12.1679
-12.1678
-12.1676
-12.1674
-12.1673
-11.7358
-11.7371
-11.7361
-11.7358
-11.7358
-11.7351
-11.2213
-11.221
-11.2206
-11.2203
-11.2201
-11.2203
-10.6336
-10.6314
-10.6317
-10.6309
-10.6304
-10.6356
-9.57533
-9.57416
-9.57283
-9.57146
-9.56999
-9.56979
-8.96243
-8.96415
-8.9668
-8.96999
-8.97273
-8.97496
-23.4159
-23.4159
-23.4159
-23.4159
-23.4159
-23.4159
-23.3519
-23.3518
-23.3518
-23.3518
-23.3518
-23.3519
-23.2196
-23.2195
-23.2196
-23.2196
-23.2197
-23.2197
-23.0072
-23.0073
-23.0073
-23.0074
-23.0075
-23.0076
-22.6885
-22.6885
-22.6886
-22.6886
-22.6886
-22.6886
-22.2169
-22.217
-22.2169
-22.2168
-22.2166
-22.2165
-21.5468
-21.5467
-21.5465
-21.5463
-21.5461
-21.5459
-20.6541
-20.6527
-20.6533
-20.6534
-20.6532
-20.6537
-19.5463
-19.5463
-19.5466
-19.547
-19.5475
-19.548
-18.4111
-18.4111
-18.4117
-18.4125
-18.4135
-18.4147
-16.7214
-16.7225
-16.7246
-16.7269
-16.7289
-16.7301
-16.2534
-16.2554
-16.2612
-16.2701
-16.2795
-16.2808
-33.4053
-33.4053
-33.4053
-33.4053
-33.4053
-33.4053
-33.3479
-33.3479
-33.3479
-33.3479
-33.3479
-33.3479
-33.2325
-33.2325
-33.2325
-33.2326
-33.2327
-33.2328
-33.061
-33.0611
-33.0612
-33.0613
-33.0614
-33.0615
-32.8427
-32.8428
-32.8428
-32.8428
-32.8428
-32.8428
-32.5991
-32.5991
-32.5989
-32.5987
-32.5986
-32.5985
-32.3496
-32.3494
-32.3491
-32.3488
-32.3486
-32.3484
-32.0699
-32.0696
-32.0693
-32.0692
-32.069
-32.0691
-31.6983
-31.6984
-31.6982
-31.698
-31.6978
-31.6979
-31.3526
-31.3529
-31.353
-31.3531
-31.353
-31.3534
-29.617
-29.6198
-29.6215
-29.6208
-29.6177
-29.631
-26.5715
-26.5739
-26.5836
-26.5944
-26.6125
-26.6193
-39.9739
-39.9738
-39.9737
-39.9736
-39.9736
-39.9736
-51.8746
-51.8746
-51.8746
-51.8746
-51.8747
-51.8747
-64.6394
-64.6395
-64.6395
-64.6395
-64.6395
-64.6394
-39.4891
-39.489
-39.489
-39.4891
-39.4892
-39.4893
-51.6369
-51.637
-51.637
-51.637
-51.637
-51.637
-64.6299
-64.63
-64.63
-64.6299
-64.6299
-64.6298
-38.9245
-38.9245
-38.9245
-38.9245
-38.9246
-38.9246
-50.9599
-50.9601
-50.9601
-50.9601
-50.96
-50.9597
-64.5362
-64.5363
-64.5363
-64.5362
-64.5362
-64.5362
-37.8113
-37.8112
-37.8112
-37.8112
-37.8112
-37.8113
-50.1457
-50.1456
-50.1456
-50.1457
-50.1458
-50.1459
-64.4715
-64.4716
-64.4717
-64.4718
-64.4718
-64.4719
-36.2785
-36.2783
-36.2782
-36.2783
-36.2783
-36.2785
-48.9341
-48.9341
-48.9341
-48.9342
-48.9343
-48.9344
-64.128
-64.1281
-64.1282
-64.1283
-64.1283
-64.1282
-34.0925
-34.0924
-34.0924
-34.0925
-34.0926
-34.0929
-47.5985
-47.5986
-47.5986
-47.5988
-47.599
-47.5991
-63.4773
-63.4774
-63.4773
-63.4773
-63.4773
-63.4772
-29.8791
-29.8792
-29.8794
-29.8797
-29.8798
-29.8802
-45.3827
-45.3828
-45.383
-45.3832
-45.3834
-45.3834
-62.423
-62.4229
-62.4229
-62.4228
-62.4229
-62.4228
-32.0613
-32.0616
-32.062
-32.0622
-32.0625
-32.0631
-45.2818
-45.2821
-45.2823
-45.2824
-45.2828
-45.2827
-60.7508
-60.751
-60.7508
-60.7507
-60.7508
-60.7507
-24.0047
-24.0055
-24.0053
-24.0057
-24.0061
-24.0062
-31.6005
-31.6003
-31.5995
-31.5992
-31.5997
-31.6027
-60.2272
-60.2271
-60.2266
-60.2263
-60.2262
-60.2272
-26.3514
-26.3535
-26.3514
-26.3517
-26.3536
-26.3529
-16.6028
-16.5961
-16.5938
-16.5897
-16.5855
-16.6168
-44.7539
-44.7562
-44.7554
-44.7548
-44.7575
-44.7533
-49.7238
-49.723
-49.7242
-49.7293
-49.7558
-49.6848
-7.17492
-7.17411
-7.17306
-7.16261
-7.16363
-7.18583
-63.8449
-63.832
-63.8311
-63.8282
-63.8215
-63.8461
238.633
238.612
238.545
238.536
238.246
238.85
394.55
394.101
394.202
394.027
393.363
395.116
-54.0705
-54.0536
-54.0508
-54.0506
-54.0531
-54.0659
-30.0795
-30.065
-30.0756
-30.1174
-30.1093
-30.2511
-107.683
-107.65
-107.726
-107.522
-107.625
-107.779
-161.887
-162.066
-162.571
-161.455
-163.765
-160.485
21.1526
21.1044
21.1793
20.8068
20.7151
21.0732
-104.896
-104.832
-105.188
-104.463
-104.102
-104.983
-328.333
-330.128
-331.047
-327.67
-334.104
-323.518
198.003
198.101
198.231
196.502
196.07
197.319
-197.005
-195.165
-193.737
-178.627
-119.748
-271.79
-155.583
-155.71
-155.764
-155.412
-154.083
-156.855
214.333
214.009
213.724
212.279
212.043
214.124
1172.15
1172.89
1172.69
1171.12
1167.75
1175.05
-89.9958
-90.0158
-90.0276
-90.0382
-90.0329
-90.0164
825.402
824.563
823.683
818.316
811.616
834.621
1073.23
1073.64
1073.37
1074.69
1076.04
1071.45
-66.8189
-66.8201
-66.8244
-66.8232
-66.793
-66.8713
354.217
353.735
352.916
352.141
350.603
355.158
1194.24
1194.03
1193.86
1194.66
1196.77
1191.5
-57.073
-57.0597
-57.0639
-57.0752
-57.0777
-57.0787
-43.4274
-43.4274
-43.4274
-43.4274
-43.4274
-43.4273
-53.5073
-53.5073
-53.5073
-53.5073
-53.5072
-53.5072
-63.6107
-63.6107
-63.6107
-63.6107
-63.6107
-63.6107
-43.3805
-43.3805
-43.3805
-43.3805
-43.3805
-43.3806
-53.4783
-53.4783
-53.4783
-53.4783
-53.4783
-53.4783
-63.5985
-63.5985
-63.5985
-63.5985
-63.5985
-63.5985
-43.2822
-43.2822
-43.2822
-43.2823
-43.2824
-43.2824
-53.4199
-53.4199
-53.4199
-53.4199
-53.42
-53.42
-63.5703
-63.5703
-63.5703
-63.5703
-63.5703
-63.5703
-43.1189
-43.1189
-43.119
-43.119
-43.119
-43.1191
-53.3338
-53.3338
-53.3338
-53.3338
-53.3339
-53.3339
-63.5158
-63.5158
-63.5158
-63.5158
-63.5158
-63.5158
-42.8564
-42.8564
-42.8564
-42.8564
-42.8564
-42.8564
-53.2327
-53.2327
-53.2327
-53.2326
-53.2326
-53.2326
-63.4066
-63.4066
-63.4066
-63.4066
-63.4066
-63.4066
-42.4185
-42.4184
-42.4183
-42.4183
-42.4183
-42.4183
-53.1457
-53.1456
-53.1456
-53.1455
-53.1455
-53.1454
-63.2084
-63.2084
-63.2084
-63.2084
-63.2083
-63.2083
-41.6844
-41.6844
-41.6843
-41.6843
-41.6842
-41.6842
-53.1782
-53.1781
-53.1781
-53.1779
-53.1778
-53.1776
-62.7648
-62.7648
-62.7647
-62.7646
-62.7643
-62.7641
-40.5187
-40.5188
-40.5187
-40.5187
-40.5186
-40.5185
-53.3725
-53.3725
-53.3725
-53.3724
-53.3725
-53.3724
-62.2634
-62.2638
-62.2631
-62.2633
-62.2619
-62.2613
-38.4805
-38.4806
-38.4806
-38.4807
-38.4806
-38.4803
-53.2607
-53.2608
-53.2605
-53.2604
-53.2607
-53.2594
-61.2285
-61.2295
-61.2279
-61.2262
-61.2235
-61.2175
-36.4811
-36.4811
-36.4812
-36.4815
-36.4806
-36.4778
-55.8394
-55.8395
-55.8407
-55.8403
-55.8466
-55.8464
-61.6663
-61.6751
-61.6722
-61.6592
-61.6596
-61.6165
-28.0123
-28.0136
-28.0155
-28.015
-28.0117
-27.9942
-51.8564
-51.8581
-51.861
-51.8533
-51.8722
-51.8431
-64.5776
-64.6374
-64.663
-64.5564
-64.7121
-64.2627
-34.4669
-34.4576
-34.4594
-34.4796
-34.4795
-34.4985
-62.6917
-62.7129
-62.7042
-62.7445
-62.7785
-62.7568
-45.5784
-45.5182
-45.4492
-45.6223
-45.3492
-45.901
)
;

boundaryField
{
    seabed_topleft_surface
    {
        type            calculated;
        value           nonuniform List<scalar> 
72
(
8308.09
8308.05
8308.06
8308.05
8308.03
8308.06
8120.18
8120.13
8120.15
8120.14
8120.11
8120.15
8114.59
8114.54
8114.55
8114.55
8114.52
8114.55
8510.68
8510.63
8510.64
8510.64
8510.62
8510.65
9110.38
9110.32
9110.34
9110.34
9110.32
9110.35
9822.54
9822.49
9822.5
9822.5
9822.48
9822.52
10803.5
10803.5
10803.5
10803.5
10803.5
10803.5
12496.7
12496.6
12496.6
12496.6
12496.6
12496.7
15238.4
15238.3
15238.3
15238.3
15238.3
15238.4
19161.3
19161.3
19161.3
19161.3
19161.2
19161.3
22934.4
22934.4
22934.4
22934.4
22934.3
22934.4
24998.1
24998.1
24998.1
24998.1
24998.1
24998.1
)
;
    }
    seabed_topright_surface
    {
        type            calculated;
        value           nonuniform List<scalar> 
72
(
1.30835
1.30837
1.30837
1.30836
1.30835
1.30833
1.37086
1.37088
1.37088
1.37088
1.37088
1.37087
1.49935
1.49939
1.49943
1.49948
1.49954
1.49957
1.70182
1.70185
1.70192
1.70202
1.70211
1.70217
1.98951
1.98952
1.98956
1.98961
1.98966
1.98969
2.37577
2.37573
2.37566
2.37559
2.37552
2.37547
2.87079
2.87067
2.87051
2.87036
2.87025
2.87018
3.47171
3.4714
3.47126
3.47118
3.47119
3.47133
4.15579
4.1554
4.15522
4.15514
4.15537
4.15605
4.89039
4.88781
4.88803
4.88703
4.88674
4.89315
5.64477
5.64484
5.64505
5.64513
5.64529
5.64587
6.11338
6.11295
6.11217
6.11116
6.11012
6.10954
)
;
    }
    breakwater_top_surface
    {
        type            calculated;
        value           nonuniform List<scalar> 
36
(
-25.0685
-25.0543
-25.0643
-25.1076
-25.0994
-25.2403
320.188
319.903
319.994
319.119
323.232
316.018
1005.63
1005.34
1005.23
1004.98
1005.39
1005.9
1544.15
1543.15
1542.98
1546.64
1550.89
1542.41
4078.85
4077.78
4076.79
4073.2
4069.81
4085.69
3741.2
3740.65
3739.81
3738.95
3737.35
3742.38
)
;
    }
    breakwater_left_surface
    {
        type            calculated;
        value           nonuniform List<scalar> 
24
(
20238.2
20238.2
20238.1
20238.1
20238.1
20238.1
13471.1
13471.1
13471.1
13471.1
13471.1
13471.1
8244.69
8244.93
8244.84
8244.87
8244.9
8244.82
3012.91
3013.03
3012.91
3012.95
3012.9
3012.95
)
;
    }
    breakwater_right_surface
    {
        type            calculated;
        value           nonuniform List<scalar> 
24
(
1.20838
1.20795
1.20717
1.20616
1.20512
1.20454
-8.94592
-8.94763
-8.95029
-8.95348
-8.95621
-8.95844
-16.2372
-16.2392
-16.245
-16.2539
-16.2633
-16.2646
-26.5556
-26.558
-26.5677
-26.5785
-26.5967
-26.6034
)
;
    }
    water_front_surface
    {
        type            calculated;
        value           nonuniform List<scalar> 
186
(
4651.26
4457.89
4313.56
4500.29
4891.68
5427.53
6268.27
7735.9
10449
14371.9
18145.1
20221.8
388.916
196.055
154.88
205.212
306.889
449.825
640.093
921.226
2058.72
5944.09
10805.4
13455
-17.7438
-16.6765
-15.6972
-13.4639
-11.1554
-8.14816
1.4173
27.4271
122.932
494.814
4390.29
8228.94
-27.7279
-26.8628
-25.8109
-23.3571
-20.4525
-18.6742
-17.4009
-17.2712
-22.339
48.8599
668.657
2997.48
-3.61351
-3.551
-3.4225
-3.22003
-2.93234
-2.54609
-2.05107
-1.45014
-0.766062
-0.031467
0.72291
1.19152
-13.4844
-13.4205
-13.2917
-13.098
-12.8427
-12.5327
-12.1678
-11.7358
-11.2213
-10.6336
-9.57533
-8.96243
-23.4159
-23.3519
-23.2196
-23.0072
-22.6885
-22.2169
-21.5468
-20.6541
-19.5463
-18.4111
-16.7214
-16.2534
-33.4053
-33.3479
-33.2325
-33.061
-32.8427
-32.5991
-32.3496
-32.0699
-31.6983
-31.3526
-29.617
-26.5715
-39.9739
-51.8746
-64.6394
-39.4891
-51.6369
-64.6299
-38.9245
-50.9599
-64.5362
-37.8113
-50.1457
-64.4715
-36.2785
-48.9341
-64.128
-34.0925
-47.5985
-63.4773
-29.8791
-45.3827
-62.423
-32.0613
-45.2818
-60.7508
-24.0047
-31.6005
-60.2272
-26.3514
-16.6028
-44.7539
-49.7238
-7.17492
-63.8449
238.633
394.55
-54.0705
-30.0795
-107.683
-161.887
21.1526
-104.896
-328.333
198.003
-197.005
-155.583
214.333
1172.15
-89.9958
825.402
1073.23
-66.8189
354.217
1194.24
-57.073
-43.4274
-53.5073
-63.6107
-43.3805
-53.4783
-63.5985
-43.2822
-53.4199
-63.5703
-43.1189
-53.3338
-63.5158
-42.8564
-53.2327
-63.4066
-42.4185
-53.1457
-63.2084
-41.6844
-53.1782
-62.7648
-40.5187
-53.3725
-62.2634
-38.4805
-53.2607
-61.2285
-36.4811
-55.8394
-61.6663
-28.0123
-51.8564
-64.5776
-34.4669
-62.6917
-45.5784
)
;
    }
    water_back_surface
    {
        type            calculated;
        value           nonuniform List<scalar> 
186
(
4651.24
4457.88
4313.54
4500.27
4891.67
5427.52
6268.27
7735.89
10449
14371.9
18145
20221.7
388.92
196.057
154.879
205.209
306.887
449.825
640.093
921.23
2058.73
5944.12
10805.4
13455
-17.7433
-16.6763
-15.6976
-13.4642
-11.1555
-8.14825
1.41572
27.4238
122.937
494.848
4390.2
8229.07
-27.7273
-26.8628
-25.8113
-23.3571
-20.4525
-18.6746
-17.4019
-17.2731
-22.3391
48.8625
668.688
2997.52
-3.61352
-3.55098
-3.42228
-3.21968
-2.93217
-2.54639
-2.05167
-1.45053
-0.765801
-0.0287092
0.72401
1.18768
-13.4845
-13.4205
-13.2917
-13.0981
-12.8429
-12.5327
-12.1673
-11.7351
-11.2203
-10.6356
-9.56979
-8.97496
-23.4159
-23.3519
-23.2197
-23.0076
-22.6886
-22.2165
-21.5459
-20.6537
-19.548
-18.4147
-16.7301
-16.2808
-33.4053
-33.3479
-33.2328
-33.0615
-32.8428
-32.5985
-32.3484
-32.0691
-31.6979
-31.3534
-29.631
-26.6193
-39.9736
-51.8747
-64.6394
-39.4893
-51.637
-64.6298
-38.9246
-50.9597
-64.5362
-37.8113
-50.1459
-64.4719
-36.2785
-48.9344
-64.1282
-34.0929
-47.5991
-63.4772
-29.8802
-45.3834
-62.4228
-32.0631
-45.2827
-60.7507
-24.0062
-31.6027
-60.2272
-26.3529
-16.6168
-44.7533
-49.6848
-7.18583
-63.8461
238.85
395.116
-54.0659
-30.2511
-107.779
-160.485
21.0732
-104.983
-323.518
197.319
-271.79
-156.855
214.124
1175.05
-90.0164
834.621
1071.45
-66.8713
355.158
1191.5
-57.0787
-43.4273
-53.5072
-63.6107
-43.3806
-53.4783
-63.5985
-43.2824
-53.42
-63.5703
-43.1191
-53.3339
-63.5158
-42.8564
-53.2326
-63.4066
-42.4183
-53.1454
-63.2083
-41.6842
-53.1776
-62.7641
-40.5185
-53.3724
-62.2613
-38.4803
-53.2594
-61.2175
-36.4778
-55.8464
-61.6165
-27.9942
-51.8431
-64.2627
-34.4985
-62.7568
-45.901
)
;
    }
    water_left_surface
    {
        type            calculated;
        value           nonuniform List<scalar> 
42
(
4663.78
4663.77
4663.77
4663.76
4663.76
4663.76
390.274
390.27
390.271
390.264
390.262
390.278
-17.7276
-17.7272
-17.727
-17.7269
-17.7268
-17.7271
-27.712
-27.7117
-27.7115
-27.7113
-27.7113
-27.7114
-39.9739
-39.9738
-39.9737
-39.9736
-39.9736
-39.9736
-51.8746
-51.8746
-51.8746
-51.8746
-51.8747
-51.8747
-64.6394
-64.6395
-64.6395
-64.6395
-64.6395
-64.6394
)
;
    }
    water_right_surface
    {
        type            calculated;
        value           nonuniform List<scalar> 
42
(
-3.59665
-3.59663
-3.59663
-3.59664
-3.59665
-3.59667
-13.4679
-13.4679
-13.4679
-13.4679
-13.4679
-13.468
-23.3997
-23.3997
-23.3997
-23.3997
-23.3997
-23.3997
-33.3894
-33.3894
-33.3894
-33.3894
-33.3894
-33.3894
-43.4274
-43.4274
-43.4274
-43.4274
-43.4274
-43.4273
-53.5073
-53.5073
-53.5073
-53.5073
-53.5072
-53.5072
-63.6107
-63.6107
-63.6107
-63.6107
-63.6107
-63.6107
)
;
    }
    water_top_surface
    {
        type            calculated;
        value           nonuniform List<scalar> 
180
(
-70.7449
-70.7453
-70.7453
-70.7453
-70.7453
-70.745
-70.866
-70.8663
-70.8663
-70.8663
-70.8663
-70.8658
-70.6452
-70.6454
-70.6453
-70.6452
-70.6452
-70.645
-70.8202
-70.8205
-70.8205
-70.8206
-70.8207
-70.8205
-70.8064
-70.8069
-70.8071
-70.8071
-70.8072
-70.8067
-70.9813
-70.9817
-70.9817
-70.9817
-70.9816
-70.9811
-71.1141
-71.1143
-71.1141
-71.114
-71.1141
-71.1136
-71.0979
-71.0979
-71.0978
-71.0978
-71.098
-71.0974
-70.3907
-70.3909
-70.391
-70.3912
-70.3915
-70.3909
-68.67
-68.67
-68.67
-68.67
-68.67
-68.67
-71.9619
-71.9249
-71.9354
-71.932
-71.9001
-71.9804
-76.6803
-76.6652
-76.6712
-76.6721
-76.6695
-76.6763
-254.326
-258.221
-259.089
-255.012
-272.293
-241.031
-3857.6
-3871.07
-3878.73
-3844.17
-3868.9
-3848.25
-1354.17
-1357.79
-1362.13
-1331.22
-1258.45
-1442.74
-108.881
-108.895
-108.893
-108.858
-108.635
-109.118
-71.0181
-71.0241
-71.0223
-70.9956
-70.9677
-71.0516
-69.5526
-69.549
-69.5474
-69.5554
-69.5698
-69.5322
-68.67
-68.67
-68.67
-68.67
-68.67
-68.67
-68.67
-68.67
-68.67
-68.67
-68.67
-68.67
-68.67
-68.67
-68.67
-68.67
-68.67
-68.67
-68.67
-68.67
-68.67
-68.67
-68.67
-68.67
-68.67
-68.67
-68.67
-68.67
-68.67
-68.67
-68.67
-68.67
-68.67
-68.67
-68.67
-68.67
-68.67
-68.67
-68.67
-68.67
-68.67
-68.67
-68.67
-68.67
-68.67
-68.67
-68.67
-68.67
-68.67
-68.67
-68.67
-68.67
-68.67
-68.67
-68.67
-68.67
-68.67
-68.67
-68.67
-68.67
-68.67
-68.67
-68.67
-68.67
-68.67
-68.67
-71.1938
-71.1788
-71.1702
-71.1956
-71.1434
-71.226
)
;
    }
}


// ************************************************************************* //
