/*--------------------------------*- C++ -*----------------------------------*\
| =========                 |                                                 |
| \\      /  F ield         | OpenFOAM: The Open Source CFD Toolbox           |
|  \\    /   O peration     | Version:  v1612+                                |
|   \\  /    A nd           | Web:      www.OpenFOAM.com                      |
|    \\/     M anipulation  |                                                 |
\*---------------------------------------------------------------------------*/
FoamFile
{
    version     2.0;
    format      ascii;
    class       volVectorField;
    location    "3.4";
    object      U;
}
// * * * * * * * * * * * * * * * * * * * * * * * * * * * * * * * * * * * * * //

dimensions      [0 1 -1 0 0 0 0];

internalField   nonuniform List<vector> 
1116
(
(0.334884 -5.17074e-06 -0.348663)
(0.334877 8.64075e-06 -0.348673)
(0.334882 8.41362e-06 -0.34866)
(0.334887 7.58388e-06 -0.348656)
(0.334884 -1.40745e-06 -0.348669)
(0.334878 4.8933e-06 -0.348659)
(1.16505 2.78797e-06 -0.357834)
(1.16505 9.77671e-06 -0.357853)
(1.16506 9.47309e-06 -0.357836)
(1.16506 1.23769e-05 -0.357832)
(1.16506 -6.53793e-06 -0.357851)
(1.16504 -8.01983e-06 -0.357841)
(1.75625 7.01734e-06 -0.202202)
(1.75627 1.17622e-05 -0.202226)
(1.75627 6.88774e-06 -0.202211)
(1.75627 1.21643e-05 -0.202209)
(1.75628 -6.45569e-06 -0.202228)
(1.75625 -9.52961e-06 -0.202212)
(2.12156 7.55535e-06 -0.0615718)
(2.12159 1.23842e-05 -0.0615954)
(2.12159 5.22107e-06 -0.0615836)
(2.12159 1.05351e-05 -0.0615828)
(2.1216 -4.86931e-06 -0.0615982)
(2.12156 -7.13046e-06 -0.0615801)
(2.37489 6.26769e-06 0.026506)
(2.37494 1.14031e-05 0.0264861)
(2.37493 3.96363e-06 0.026496)
(2.37493 7.85634e-06 0.0264966)
(2.37494 -4.22674e-06 0.0264848)
(2.3749 -4.74612e-06 0.026502)
(2.55666 4.4688e-06 0.070989)
(2.55671 1.00887e-05 0.0709744)
(2.5567 2.74205e-06 0.0709828)
(2.5567 4.81574e-06 0.0709831)
(2.5567 -4.5942e-06 0.0709733)
(2.55666 -2.58357e-06 0.0709894)
(2.6586 1.39928e-06 0.109542)
(2.65866 7.7121e-06 0.109535)
(2.65866 1.09557e-06 0.109542)
(2.65865 1.14902e-06 0.109542)
(2.65866 -5.45234e-06 0.109533)
(2.65861 3.74403e-07 0.109548)
(2.68741 -2.49924e-06 0.262982)
(2.68746 7.11668e-06 0.26298)
(2.68745 1.03524e-06 0.262984)
(2.68745 -2.00167e-06 0.262984)
(2.68744 -7.90154e-06 0.262975)
(2.6874 2.46448e-06 0.262993)
(2.36207 -4.17265e-06 0.671702)
(2.36212 8.92936e-06 0.671708)
(2.36213 5.00189e-07 0.671707)
(2.36212 -2.63376e-06 0.671708)
(2.36212 -1.28836e-05 0.671701)
(2.36205 -7.42919e-07 0.671719)
(1.41004 -2.75433e-06 1.00609)
(1.41011 9.8675e-06 1.00613)
(1.41011 -2.27114e-06 1.00612)
(1.4101 -2.27325e-06 1.00612)
(1.41012 -1.59245e-05 1.00612)
(1.40999 -5.74126e-06 1.00611)
(-0.0436464 1.03625e-05 0.530241)
(-0.0435667 1.46046e-05 0.530308)
(-0.0435561 -6.72366e-06 0.530296)
(-0.0435672 1.8425e-06 0.530291)
(-0.0435199 -1.64604e-05 0.530314)
(-0.0437305 -1.30519e-05 0.53022)
(-0.843478 -1.96138e-05 -0.792986)
(-0.843415 -2.74917e-05 -0.793011)
(-0.843413 -1.39635e-05 -0.793005)
(-0.843414 -1.98243e-05 -0.793017)
(-0.843367 9.76171e-06 -0.79302)
(-0.843503 3.06517e-05 -0.793038)
(0.487525 1.15536e-05 -1.31312)
(0.487514 -3.64255e-05 -1.31313)
(0.487537 3.15929e-05 -1.31312)
(0.487516 -2.40531e-06 -1.31312)
(0.487498 4.54475e-05 -1.31312)
(0.487566 -1.56002e-05 -1.31309)
(1.91792 3.80771e-05 -1.30846)
(1.9179 -6.35697e-05 -1.30846)
(1.91792 5.6476e-05 -1.30848)
(1.91789 -1.20506e-06 -1.30843)
(1.91788 6.78487e-05 -1.3084)
(1.91797 -5.51361e-05 -1.30847)
(2.80816 6.13492e-05 -0.794904)
(2.80817 -4.88845e-05 -0.794861)
(2.80816 5.63575e-05 -0.794885)
(2.80813 3.16895e-06 -0.794847)
(2.80815 6.06347e-05 -0.794805)
(2.80821 -7.37377e-05 -0.794895)
(3.24366 7.01899e-05 -0.607975)
(3.24373 -2.61444e-05 -0.607917)
(3.24368 4.52993e-05 -0.60794)
(3.24366 1.36782e-05 -0.607917)
(3.24372 4.38119e-05 -0.607877)
(3.24369 -7.74078e-05 -0.607954)
(3.5646 7.3825e-05 -0.532505)
(3.56474 -5.57981e-06 -0.532448)
(3.56466 3.05648e-05 -0.532467)
(3.56464 2.06657e-05 -0.532454)
(3.56472 2.93708e-05 -0.532422)
(3.56462 -7.26408e-05 -0.532483)
(3.8793 7.60384e-05 -0.428206)
(3.87951 9.25625e-06 -0.42816)
(3.87939 1.69529e-05 -0.428171)
(3.87938 2.28179e-05 -0.428163)
(3.87947 1.88355e-05 -0.428142)
(3.87931 -6.56235e-05 -0.428186)
(4.26713 7.60625e-05 -0.273423)
(4.26737 1.67638e-05 -0.273393)
(4.26724 5.64671e-06 -0.273394)
(4.26723 2.09411e-05 -0.273389)
(4.26732 1.0342e-05 -0.273381)
(4.26714 -5.80911e-05 -0.273406)
(4.46371 7.42573e-05 0.0603366)
(4.46401 2.4631e-05 0.0603477)
(4.46387 3.19221e-06 0.0603554)
(4.46387 1.97484e-05 0.0603595)
(4.46396 3.25961e-06 0.0603511)
(4.46376 -5.12113e-05 0.0603474)
(4.11102 8.27621e-05 0.613207)
(4.11137 4.79344e-05 0.613195)
(4.11122 5.42739e-06 0.613214)
(4.11122 2.51996e-05 0.613215)
(4.11132 -1.06289e-05 0.613187)
(4.11112 -5.16372e-05 0.613209)
(3.39753 5.50114e-05 1.30651)
(3.39792 4.57834e-05 1.3065)
(3.39777 1.00956e-05 1.30651)
(3.39777 1.76381e-05 1.30651)
(3.39787 -1.76797e-05 1.30648)
(3.39763 -3.76956e-05 1.30651)
(1.92722 3.91254e-05 1.33234)
(1.92761 3.751e-05 1.3324)
(1.9275 -5.62192e-07 1.33238)
(1.9275 1.10722e-05 1.33237)
(1.9276 -2.07394e-05 1.33236)
(1.92731 -2.87404e-05 1.33233)
(0.421682 -5.66355e-05 0.0542881)
(0.422062 -5.6984e-05 0.0543477)
(0.421978 -3.369e-06 0.0543296)
(0.421971 -1.81011e-05 0.0543173)
(0.422065 2.86502e-05 0.054338)
(0.421758 4.69277e-05 0.0542414)
(0.258493 -6.18468e-05 -2.68094)
(0.25848 -0.000137173 -2.68107)
(0.258483 -8.1022e-06 -2.68113)
(0.258464 -3.45585e-05 -2.68106)
(0.258464 0.00013082 -2.68098)
(0.258502 7.44389e-05 -2.68099)
(0.828726 -6.65402e-05 -2.06225)
(0.828614 -0.000127584 -2.06238)
(0.828587 1.75694e-05 -2.06244)
(0.828577 -1.96087e-05 -2.06234)
(0.828604 0.000155428 -2.06225)
(0.828721 9.18326e-05 -2.06228)
(1.69138 -5.49464e-05 -1.37091)
(1.69125 -0.000103718 -1.371)
(1.69121 3.59647e-05 -1.37103)
(1.69121 -1.17236e-05 -1.37096)
(1.69126 0.00013904 -1.37087)
(1.69139 8.44582e-05 -1.37086)
(2.98619 -6.59827e-05 -0.967077)
(2.98607 -0.000108943 -0.967106)
(2.98603 3.1745e-05 -0.967154)
(2.98605 -1.76095e-05 -0.967083)
(2.98612 0.000137325 -0.966975)
(2.98624 9.85891e-05 -0.967016)
(4.59208 -7.90761e-05 -0.791906)
(4.59197 -0.000122947 -0.791825)
(4.5919 1.14825e-05 -0.791906)
(4.5919 -3.64386e-05 -0.791862)
(4.59199 0.000116139 -0.791714)
(4.59211 9.66584e-05 -0.79182)
(6.67386 -9.47916e-05 -0.753598)
(6.67373 -0.00016965 -0.7534)
(6.67367 -5.51879e-05 -0.753518)
(6.67366 -7.02524e-05 -0.753499)
(6.67373 7.536e-05 -0.753325)
(6.67385 7.23748e-05 -0.753501)
(8.66433 -0.000165517 -0.65)
(8.66426 -0.000222972 -0.649771)
(8.66394 -5.80074e-05 -0.649951)
(8.66389 -0.000149558 -0.649962)
(8.66413 6.02283e-05 -0.649793)
(8.6642 0.000130341 -0.649977)
(10.3336 -5.17922e-05 0.861557)
(10.3332 -6.48006e-05 0.861785)
(10.3333 4.50666e-05 0.861634)
(10.3333 -9.98581e-05 0.861619)
(10.3331 3.73588e-05 0.861748)
(10.3335 9.37774e-05 0.861568)
(7.0612 0.00010914 1.97279)
(7.06141 4.60403e-05 1.97319)
(7.06129 2.52527e-06 1.97302)
(7.0613 -3.37395e-06 1.97302)
(7.06134 -2.91735e-05 1.97315)
(7.06118 -5.92231e-05 1.97292)
(3.77955 0.000107996 2.63578)
(3.78002 8.49309e-05 2.63598)
(3.77979 3.46044e-05 2.63592)
(3.7798 4.8695e-05 2.63592)
(3.77992 -3.16653e-05 2.63596)
(3.77967 -8.26821e-05 2.63585)
(2.35243 0.000175897 2.57177)
(2.35324 0.000140008 2.57214)
(2.35293 -1.46286e-05 2.57199)
(2.35295 4.01743e-05 2.57199)
(2.35315 -4.81372e-05 2.57207)
(2.35265 -8.62533e-05 2.57184)
(0.35199 -0.00011112 1.21046)
(0.352686 -8.52054e-05 1.21077)
(0.352476 2.64918e-05 1.21067)
(0.352487 -3.74763e-05 1.21066)
(0.352669 6.53261e-05 1.21074)
(0.35213 9.65088e-05 1.21052)
(-0.347365 -3.68934e-05 -2.25412)
(-0.347349 5.04917e-06 -2.25455)
(-0.347362 -2.09858e-05 -2.25451)
(-0.347356 4.18095e-06 -2.25449)
(-0.347342 -2.14188e-05 -2.25452)
(-0.347406 2.92277e-05 -2.25411)
(-1.02951 -2.06583e-05 -2.12657)
(-1.02944 2.83994e-05 -2.12703)
(-1.02947 -1.64652e-05 -2.12696)
(-1.02947 1.84124e-06 -2.12696)
(-1.02943 -1.06997e-05 -2.12703)
(-1.02958 3.71807e-05 -2.1265)
(-1.37329 -1.56277e-05 -2.13134)
(-1.37306 2.05921e-05 -2.13182)
(-1.3731 -8.25154e-06 -2.13175)
(-1.37309 -1.06859e-05 -2.13175)
(-1.37302 -1.14022e-06 -2.13183)
(-1.37333 4.0676e-05 -2.13128)
(-1.3747 -5.45026e-05 -2.67369)
(-1.3744 -4.00474e-05 -2.6742)
(-1.37444 -4.2268e-05 -2.67412)
(-1.37443 -5.24137e-05 -2.67413)
(-1.37436 2.82575e-06 -2.67423)
(-1.37469 5.33803e-05 -2.67363)
(-1.54684 -9.44701e-05 -3.19087)
(-1.54658 -9.64906e-05 -3.19133)
(-1.54665 -6.63979e-05 -3.19126)
(-1.54665 -7.85612e-05 -3.19127)
(-1.5466 5.13381e-06 -3.19136)
(-1.54686 6.63439e-05 -3.19081)
(-1.82591 -0.000113867 -3.88312)
(-1.82576 -0.000119552 -3.88354)
(-1.82585 -4.92551e-05 -3.8835)
(-1.82588 -8.48923e-05 -3.88352)
(-1.82586 3.40652e-05 -3.88357)
(-1.82598 0.000109424 -3.88314)
(-1.76821 -0.000167853 -3.70606)
(-1.76822 -0.000153218 -3.70644)
(-1.7683 2.53831e-05 -3.70652)
(-1.76839 -6.55822e-05 -3.70662)
(-1.7684 0.000193591 -3.70667)
(-1.76833 0.000293088 -3.70627)
(1.75472 -8.4609e-05 1.31297)
(1.7538 -2.25804e-05 1.31239)
(1.75384 0.000119319 1.31248)
(1.75379 3.09179e-05 1.31247)
(1.75329 0.000161749 1.31219)
(1.75484 0.00016875 1.31298)
(6.12082 0.000166344 8.17635)
(6.12065 0.000179532 8.17667)
(6.12069 0.000148082 8.17657)
(6.12063 0.000103041 8.17655)
(6.12047 -4.248e-05 8.1766)
(6.121 -0.000112448 8.17648)
(2.45812 0.000205508 6.07479)
(2.46052 0.000182415 6.07497)
(2.4595 8.57959e-05 6.07491)
(2.45949 9.62154e-05 6.07494)
(2.46011 -6.8073e-05 6.07502)
(2.45915 -0.00015654 6.07468)
(2.34053 0.000274557 3.78738)
(2.34167 0.000228056 3.7884)
(2.34122 -1.84733e-05 3.78796)
(2.34115 4.92779e-05 3.78791)
(2.34127 -6.59305e-05 3.78802)
(2.3411 -0.000120844 3.78777)
(-0.0892192 -0.000105581 1.40026)
(-0.0885943 -3.82778e-05 1.40062)
(-0.0887847 4.41517e-05 1.40051)
(-0.0888546 1.17032e-05 1.40052)
(-0.0888529 3.63862e-05 1.40062)
(-0.0889731 -4.78192e-06 1.40033)
(0.00709103 -1.90861e-06 0.00722433)
(0.00709235 -4.20885e-06 0.00722425)
(0.00709347 -4.84694e-06 0.00722419)
(0.00709446 -4.91502e-06 0.00722419)
(0.00709553 -4.0639e-06 0.00722414)
(0.00709689 -1.69156e-06 0.00722399)
(0.021564 -2.45546e-06 0.00757298)
(0.0215681 -5.74394e-06 0.00757406)
(0.0215714 -6.93338e-06 0.00757406)
(0.0215744 -7.18758e-06 0.0075737)
(0.0215775 -6.21281e-06 0.0075729)
(0.0215817 -2.70293e-06 0.00757144)
(0.0369916 -3.12569e-06 0.00847202)
(0.0370002 -7.8611e-06 0.00847547)
(0.0370069 -1.01914e-05 0.00847587)
(0.0370126 -1.07259e-05 0.008475)
(0.0370185 -9.28617e-06 0.00847327)
(0.0370267 -4.04043e-06 0.00847065)
(0.0540839 -5.28921e-06 0.0105872)
(0.0541011 -1.30476e-05 0.0105888)
(0.0541128 -1.62524e-05 0.0105879)
(0.0541218 -1.62606e-05 0.0105855)
(0.0541304 -1.40292e-05 0.0105819)
(0.0541437 -6.26275e-06 0.0105768)
(0.0734747 -1.09062e-05 0.0154037)
(0.0735048 -2.27518e-05 0.015394)
(0.0735209 -2.28675e-05 0.0153893)
(0.0735306 -1.91524e-05 0.0153848)
(0.0735381 -1.47528e-05 0.0153801)
(0.0735527 -6.56844e-06 0.0153744)
(0.0953 -2.20269e-05 0.0256226)
(0.0953435 -3.57979e-05 0.0255853)
(0.0953558 -2.20475e-05 0.0255718)
(0.0953557 -9.07974e-06 0.0255646)
(0.0953508 7.62196e-07 0.0255607)
(0.0953557 1.73493e-06 0.025558)
(0.118591 -3.33452e-05 0.0449445)
(0.118638 -3.43948e-05 0.0448736)
(0.118629 1.25871e-05 0.0448518)
(0.118599 4.06441e-05 0.0448461)
(0.11856 5.48395e-05 0.0448494)
(0.118533 2.82188e-05 0.0448596)
(0.138958 -3.5075e-05 0.0767357)
(0.138974 4.40299e-06 0.0766355)
(0.138923 0.000108241 0.0766114)
(0.138845 0.00015692 0.0766191)
(0.138755 0.000168913 0.0766458)
(0.138666 8.15548e-05 0.0766899)
(0.154431 2.08467e-06 0.11748)
(0.154366 0.000106202 0.117379)
(0.154271 0.000247502 0.117386)
(0.154156 0.000303542 0.117435)
(0.15403 0.000302027 0.11751)
(0.1539 0.000143175 0.117614)
(0.142444 7.26784e-05 0.161745)
(0.14228 0.000201315 0.161735)
(0.142139 0.00029144 0.161847)
(0.141996 0.00032115 0.162012)
(0.141835 0.00025486 0.162211)
(0.141618 9.86371e-05 0.162465)
(0.108329 8.37846e-05 0.160588)
(0.108103 0.000168508 0.160812)
(0.107978 0.000172783 0.160915)
(0.107873 0.000166315 0.160997)
(0.107728 0.000147044 0.161089)
(0.10746 7.13384e-05 0.161268)
(0.0251126 -1.59996e-05 0.1546)
(0.0249769 -7.98517e-05 0.154807)
(0.0249264 -0.000141635 0.154852)
(0.0248941 -0.000160736 0.154854)
(0.0248415 -0.000149993 0.154835)
(0.0246904 -6.39913e-05 0.154993)
(0.00671661 -2.02908e-06 0.0207785)
(0.00671867 -4.26583e-06 0.0207788)
(0.00672 -4.55665e-06 0.0207792)
(0.00672098 -4.31969e-06 0.0207796)
(0.00672185 -3.32836e-06 0.0207799)
(0.0067229 -1.28577e-06 0.0207799)
(0.0201938 -3.04583e-06 0.0214543)
(0.0202002 -6.14918e-06 0.0214566)
(0.0202042 -6.087e-06 0.0214571)
(0.0202072 -5.50013e-06 0.0214568)
(0.0202099 -4.09468e-06 0.0214556)
(0.0202134 -1.58566e-06 0.0214529)
(0.0335947 -4.3785e-06 0.0225433)
(0.0336073 -8.45293e-06 0.0225494)
(0.0336144 -7.91453e-06 0.0225504)
(0.0336195 -6.88642e-06 0.0225491)
(0.0336242 -5.09428e-06 0.0225458)
(0.0336311 -2.06951e-06 0.0225406)
(0.046262 -5.12857e-06 0.0230275)
(0.0462845 -9.00275e-06 0.0230282)
(0.0462949 -7.30846e-06 0.0230253)
(0.0463015 -5.73469e-06 0.0230198)
(0.0463071 -4.37939e-06 0.023012)
(0.0463172 -2.1264e-06 0.0230015)
(0.0567819 -4.68654e-06 0.0210436)
(0.0568199 -3.86486e-06 0.021018)
(0.0568331 2.2054e-06 0.0210029)
(0.0568385 4.54394e-06 0.0209901)
(0.0568415 4.8651e-06 0.0209778)
(0.0568513 1.61229e-06 0.0209659)
(0.0632277 -3.24503e-06 0.0126053)
(0.0632748 8.58436e-06 0.0125197)
(0.0632814 2.58427e-05 0.0124825)
(0.0632739 3.0345e-05 0.0124616)
(0.0632631 2.80749e-05 0.0124507)
(0.0632612 1.15765e-05 0.0124493)
(0.0640088 2.44177e-05 -0.00738258)
(0.0640605 6.96419e-05 -0.00756041)
(0.0640492 9.34804e-05 -0.00762456)
(0.064012 9.47946e-05 -0.0076442)
(0.063966 8.13477e-05 -0.00763392)
(0.0639254 3.45534e-05 -0.00759341)
(0.0626451 6.41004e-05 -0.0489713)
(0.0626892 0.000153623 -0.0492193)
(0.0626353 0.000187313 -0.0492731)
(0.0625444 0.000189738 -0.0492491)
(0.062436 0.000159888 -0.0491705)
(0.0623128 6.75824e-05 -0.0490283)
(0.0615475 0.000100726 -0.109367)
(0.0614951 0.000235882 -0.109572)
(0.0613267 0.000270813 -0.109523)
(0.0610989 0.000249648 -0.109363)
(0.060836 0.000201842 -0.109133)
(0.0605305 8.74647e-05 -0.108836)
(0.0878059 0.000135681 -0.209604)
(0.0875697 0.000308953 -0.209647)
(0.0873084 0.000353662 -0.20948)
(0.0870063 0.000341183 -0.209248)
(0.0866696 0.000322137 -0.208974)
(0.0862447 0.000160497 -0.208636)
(0.0944649 5.77667e-05 -0.326153)
(0.0939662 2.37762e-05 -0.325875)
(0.0936544 -0.000115131 -0.32572)
(0.093392 -0.000189093 -0.325601)
(0.0931543 -9.71731e-05 -0.325461)
(0.0927332 9.70271e-06 -0.325259)
(0.0943315 -7.38423e-05 -0.422014)
(0.0940431 -0.000243217 -0.42186)
(0.0938705 -0.000374751 -0.421846)
(0.0937219 -0.000471345 -0.421805)
(0.0935978 -0.00019736 -0.421747)
(0.093423 6.53045e-05 -0.421894)
(0.00635755 -9.86703e-07 0.0333585)
(0.00635897 -2.2066e-06 0.0333588)
(0.00635957 -2.39708e-06 0.0333594)
(0.0063598 -2.06626e-06 0.0333601)
(0.00635975 -1.35859e-06 0.0333606)
(0.00635953 -4.20252e-07 0.0333609)
(0.0195556 -1.96652e-06 0.0346844)
(0.0195599 -3.38644e-06 0.0346861)
(0.0195615 -2.42402e-06 0.0346868)
(0.0195621 -1.46478e-06 0.0346867)
(0.0195618 -3.52244e-07 0.0346855)
(0.019561 1.18105e-07 0.034683)
(0.0346228 -2.72743e-06 0.0373713)
(0.0346312 -3.61581e-06 0.0373753)
(0.0346338 -9.57617e-07 0.0373757)
(0.0346345 7.65968e-07 0.0373741)
(0.0346335 2.00583e-06 0.0373705)
(0.0346316 1.19854e-06 0.0373651)
(0.0536405 -2.5279e-06 0.0413218)
(0.0536567 -1.34773e-06 0.0413188)
(0.0536611 3.27004e-06 0.0413143)
(0.0536613 5.37763e-06 0.0413082)
(0.0536581 6.06911e-06 0.0412999)
(0.0536526 2.85516e-06 0.0412896)
(0.080249 -1.82279e-06 0.0469032)
(0.0802782 3.1944e-06 0.0468734)
(0.0802828 1.14693e-05 0.0468556)
(0.0802784 1.4636e-05 0.0468418)
(0.0802675 1.49067e-05 0.0468289)
(0.0802515 6.87894e-06 0.0468176)
(0.118452 5.44844e-07 0.0554638)
(0.118499 1.53702e-05 0.0553767)
(0.118498 3.28074e-05 0.0553359)
(0.118479 3.81075e-05 0.0553137)
(0.118447 3.75499e-05 0.0553023)
(0.118407 1.77223e-05 0.055304)
(0.173824 6.03907e-06 0.0707403)
(0.173879 3.91242e-05 0.0705667)
(0.173853 7.54522e-05 0.0705004)
(0.173798 8.7496e-05 0.0704801)
(0.173727 8.45854e-05 0.070494)
(0.173638 3.99229e-05 0.0705461)
(0.237019 2.85638e-05 0.0986385)
(0.237021 9.76261e-05 0.098427)
(0.236933 0.000145972 0.0983807)
(0.236803 0.000147846 0.0984095)
(0.236655 0.000131678 0.0985033)
(0.236491 6.15341e-05 0.0986708)
(0.312147 8.35952e-05 0.14995)
(0.312046 0.000172176 0.149848)
(0.311903 0.000184692 0.149901)
(0.311735 0.000174946 0.150046)
(0.311564 0.000127396 0.150271)
(0.311391 4.9419e-05 0.150555)
(0.348515 2.46455e-05 0.233477)
(0.348216 -2.05793e-05 0.233668)
(0.347999 -0.000115125 0.233876)
(0.347799 -0.000175262 0.234113)
(0.347642 -0.000207569 0.234387)
(0.347602 -0.000100968 0.234614)
(0.282253 -0.000143915 0.231064)
(0.281861 -0.000355438 0.23164)
(0.281645 -0.000439837 0.231739)
(0.281483 -0.000453491 0.231606)
(0.281433 -0.000374536 0.231238)
(0.281626 -0.00014676 0.231979)
(0.0205284 -0.000269265 0.284773)
(0.0202602 -0.000469526 0.285194)
(0.0201264 -0.000291894 0.285248)
(0.0201606 -0.000212159 0.285129)
(0.020388 -0.000354593 0.284233)
(0.0198957 -0.000235006 0.285542)
(0.00540484 -5.35855e-07 0.0443683)
(0.0054061 -1.03755e-06 0.0443681)
(0.00540622 -8.40046e-07 0.0443686)
(0.00540594 -4.51632e-07 0.0443689)
(0.00540535 -1.25243e-07 0.044369)
(0.00540469 2.82807e-08 0.0443692)
(0.01628 -1.17005e-06 0.0462902)
(0.0162835 -1.17543e-06 0.0462908)
(0.0162835 5.43251e-07 0.0462909)
(0.0162824 1.49991e-06 0.0462903)
(0.0162803 2.01803e-06 0.0462889)
(0.016278 1.05102e-06 0.046287)
(0.0270535 -8.62814e-07 0.0500415)
(0.027059 9.39734e-07 0.0500427)
(0.0270583 4.61106e-06 0.0500417)
(0.0270552 6.14873e-06 0.0500393)
(0.0270506 6.21739e-06 0.0500355)
(0.0270457 2.83326e-06 0.0500312)
(0.0367842 2.1734e-06 0.0547229)
(0.0367917 8.29192e-06 0.0547175)
(0.0367888 1.33262e-05 0.0547115)
(0.036782 1.44558e-05 0.0547046)
(0.036773 1.2831e-05 0.0546964)
(0.0367629 5.47924e-06 0.0546884)
(0.0431556 9.4922e-06 0.0591326)
(0.0431627 2.33237e-05 0.059106)
(0.0431548 2.80243e-05 0.059089)
(0.0431416 2.66296e-05 0.0590753)
(0.0431256 2.20059e-05 0.0590632)
(0.0431074 9.35367e-06 0.0590547)
(0.0420805 2.34623e-05 0.0596439)
(0.0420792 4.80067e-05 0.0595741)
(0.042063 4.72635e-05 0.0595388)
(0.0420414 3.96287e-05 0.0595182)
(0.042017 2.87849e-05 0.0595073)
(0.0419905 1.14628e-05 0.0595103)
(0.0285458 4.53892e-05 0.049784)
(0.0285223 7.86155e-05 0.0496617)
(0.0285019 5.72521e-05 0.0496167)
(0.0284824 3.50867e-05 0.049606)
(0.0284579 1.11085e-05 0.0496211)
(0.0284233 -6.50336e-07 0.0496714)
(0.000711071 5.89784e-05 0.0103414)
(0.000656665 6.64993e-05 0.0102031)
(0.000652436 -1.59664e-05 0.0101889)
(0.000657468 -6.57213e-05 0.0102345)
(0.000648501 -8.89755e-05 0.0103269)
(0.000607709 -4.78359e-05 0.0104811)
(-0.0434532 1.37706e-06 -0.099593)
(-0.0435994 -0.000101045 -0.0996397)
(-0.0436152 -0.000256678 -0.0995551)
(-0.0435953 -0.000318246 -0.0994017)
(-0.0435852 -0.000290516 -0.0992276)
(-0.0436202 -0.00012778 -0.0989827)
(-0.0440179 -5.33783e-05 -0.239188)
(-0.044385 -0.000228876 -0.239028)
(-0.0443929 -0.000406539 -0.238856)
(-0.0441997 -0.000463484 -0.238648)
(-0.043828 -0.000350212 -0.238543)
(-0.0443389 -0.000120231 -0.238403)
(0.02531 3.66399e-05 -1.0525)
(0.0247248 -0.000247798 -1.0522)
(0.0248946 -0.000804154 -1.05223)
(0.0253707 -0.00143453 -1.05228)
(0.0267737 0.000355439 -1.05272)
(0.0255056 0.00126777 -1.05297)
(0.116257 0.000174231 -0.986664)
(0.115525 0.000228156 -0.987948)
(0.115097 -0.00031788 -0.988244)
(0.117573 -0.00216452 -0.987031)
(0.12339 0.0020793 -0.985647)
(0.111597 0.00387947 -0.988758)
(0.100633 3.09977e-05 -1.79284)
(0.100641 2.31079e-05 -1.79323)
(0.100639 -1.10576e-05 -1.79316)
(0.100644 -9.0797e-06 -1.79315)
(0.100648 -3.1209e-05 -1.79322)
(0.100623 -3.09964e-05 -1.79283)
(0.0212968 3.37058e-05 -2.10302)
(0.0212941 2.8578e-05 -2.1033)
(0.0212937 -5.97095e-06 -2.10326)
(0.0212926 2.23755e-06 -2.10326)
(0.0212909 -2.91006e-05 -2.1033)
(0.0212898 -3.3416e-05 -2.10302)
(0.016397 2.01829e-05 -2.03721)
(0.0163969 2.16812e-05 -2.03736)
(0.0163969 2.79169e-06 -2.03734)
(0.016396 4.00426e-06 -2.03734)
(0.0163949 -1.74064e-05 -2.03736)
(0.0163944 -2.00687e-05 -2.0372)
(0.154916 4.15244e-05 -1.86081)
(0.154948 2.30427e-05 -1.86123)
(0.15495 -8.70189e-06 -1.86116)
(0.154946 -6.40146e-06 -1.86115)
(0.154944 -2.82544e-05 -1.86122)
(0.154911 -4.4104e-05 -1.86075)
(-0.0464056 3.37193e-05 -2.18606)
(-0.0464081 3.07851e-05 -2.18634)
(-0.0464111 -9.75723e-06 -2.1863)
(-0.0464124 -1.83504e-06 -2.1863)
(-0.0464137 -4.44362e-05 -2.18635)
(-0.0464228 -4.30906e-05 -2.18604)
(0.0374246 2.0793e-05 -2.09586)
(0.0374224 2.1235e-05 -2.09601)
(0.0374216 9.45256e-07 -2.09598)
(0.0374202 9.82334e-07 -2.09598)
(0.0374186 -2.2397e-05 -2.096)
(0.0374205 -2.3792e-05 -2.09584)
(0.512126 3.27337e-05 -1.55908)
(0.512163 1.34077e-05 -1.55951)
(0.512158 -1.18932e-05 -1.55943)
(0.51215 -3.24271e-06 -1.55943)
(0.51215 -2.93192e-05 -1.55951)
(0.512111 -4.80964e-05 -1.55901)
(-0.00265413 3.29436e-05 -2.16469)
(-0.00267041 2.96966e-05 -2.16497)
(-0.00266952 -1.41426e-05 -2.16492)
(-0.00266689 -5.71236e-06 -2.16492)
(-0.00266531 -5.18682e-05 -2.16497)
(-0.002651 -4.82421e-05 -2.16466)
(0.053974 2.01772e-05 -1.98771)
(0.0539725 1.74257e-05 -1.98786)
(0.0539715 -3.06882e-06 -1.98784)
(0.053971 -3.32053e-06 -1.98784)
(0.0539696 -2.29936e-05 -1.98786)
(0.0539739 -2.2795e-05 -1.98771)
(0.739639 2.8227e-05 -1.68973)
(0.739633 1.2979e-05 -1.69016)
(0.739631 -1.30808e-05 -1.69008)
(0.739626 -5.99762e-07 -1.69008)
(0.739624 -3.66976e-05 -1.69017)
(0.739615 -5.67667e-05 -1.68971)
(-0.0292872 3.22728e-05 -2.35714)
(-0.029316 2.8941e-05 -2.35741)
(-0.0293067 -1.07268e-05 -2.35736)
(-0.0293009 1.43784e-06 -2.35735)
(-0.0293001 -3.80208e-05 -2.3574)
(-0.0292596 -3.85132e-05 -2.35713)
(0.0491855 2.17173e-05 -2.07369)
(0.0491881 1.71933e-05 -2.07384)
(0.0491871 -3.88816e-06 -2.07382)
(0.0491868 -2.25792e-06 -2.07383)
(0.0491866 -1.92351e-05 -2.07385)
(0.0491847 -1.99312e-05 -2.07371)
(0.788301 2.58244e-05 -1.63283)
(0.788282 1.45442e-05 -1.63326)
(0.78828 -7.69846e-06 -1.63319)
(0.788277 4.02241e-06 -1.63319)
(0.788266 -2.73685e-05 -1.63329)
(0.788271 -4.89151e-05 -1.63286)
(-0.115217 3.70718e-05 -2.38761)
(-0.11525 3.86961e-05 -2.3879)
(-0.115239 -1.0738e-06 -2.38785)
(-0.115233 1.07207e-05 -2.38785)
(-0.115237 -2.86126e-05 -2.3879)
(-0.115188 -3.37198e-05 -2.38764)
(0.0135514 2.17136e-05 -2.06655)
(0.0135545 1.79554e-05 -2.06671)
(0.0135526 -2.30793e-06 -2.0667)
(0.0135508 -8.71311e-07 -2.0667)
(0.0135504 -1.87789e-05 -2.06673)
(0.0135442 -2.02882e-05 -2.06657)
(0.650194 3.51708e-05 -1.78868)
(0.650181 2.32853e-05 -1.78903)
(0.650188 -9.68599e-06 -1.78898)
(0.6502 -2.25076e-06 -1.78896)
(0.650185 -1.26176e-05 -1.78901)
(0.6502 -2.80239e-05 -1.7887)
(-0.213303 3.3502e-05 -2.4351)
(-0.213345 3.22746e-05 -2.43537)
(-0.213334 -3.22873e-06 -2.43534)
(-0.213335 6.72016e-06 -2.43534)
(-0.213339 -2.61349e-05 -2.43537)
(-0.21331 -2.807e-05 -2.43511)
(-0.0170802 1.81529e-05 -2.14924)
(-0.0170726 1.55316e-05 -2.14939)
(-0.0170758 -2.94332e-06 -2.14937)
(-0.0170782 -4.15691e-06 -2.14938)
(-0.0170769 -1.85296e-05 -2.1494)
(-0.0170879 -1.78634e-05 -2.14923)
(0.135095 1.56424e-05 -2.95799)
(0.135096 2.11365e-05 -2.95822)
(0.135075 4.56353e-06 -2.95822)
(0.134982 6.06496e-06 -2.9583)
(0.134957 3.05837e-06 -2.95838)
(0.13503 -2.91917e-06 -2.95802)
(-0.157161 1.79032e-05 -2.07038)
(-0.157181 1.45666e-05 -2.07061)
(-0.157164 -1.07753e-05 -2.07058)
(-0.157152 4.95656e-06 -2.07057)
(-0.157121 -4.9376e-05 -2.0706)
(-0.157196 -6.14353e-05 -2.07036)
(-0.0741877 1.82074e-05 -2.2101)
(-0.0741704 1.76259e-05 -2.21024)
(-0.0741785 -1.98097e-06 -2.21022)
(-0.0741839 -2.6857e-06 -2.21023)
(-0.0741796 -1.71561e-05 -2.21027)
(-0.074181 -1.68243e-05 -2.21009)
(-2.21264 4.72606e-05 -4.33207)
(-2.21273 7.77112e-05 -4.3326)
(-2.21279 4.1329e-05 -4.33245)
(-2.21292 0.000105304 -4.33235)
(-2.21298 -4.30516e-05 -4.3326)
(-2.21277 -0.000122277 -4.3319)
(-1.33949 4.62417e-05 -2.50107)
(-1.3395 8.64229e-06 -2.50149)
(-1.33953 -5.66371e-05 -2.50138)
(-1.33957 -1.89807e-05 -2.50132)
(-1.33947 -6.50079e-05 -2.50141)
(-1.33971 -6.38646e-05 -2.5012)
(0.271614 4.03711e-05 -2.20275)
(0.271663 3.49822e-05 -2.20287)
(0.271631 -1.45454e-05 -2.20288)
(0.271606 3.27893e-06 -2.20292)
(0.271598 -9.09775e-06 -2.20301)
(0.271602 -2.00952e-05 -2.20278)
(4.22882 8.18419e-05 5.02967)
(4.22879 0.000177739 5.02942)
(4.2288 0.000249629 5.02951)
(4.22886 0.000283665 5.02977)
(4.22887 0.00015592 5.02967)
(4.22901 -3.28587e-05 5.02976)
(-1.74697 0.000110354 -0.402041)
(-1.74704 4.36075e-05 -0.402831)
(-1.74695 -7.38603e-05 -0.402446)
(-1.74684 2.56734e-05 -0.401997)
(-1.74669 7.73068e-05 -0.402093)
(-1.74688 4.70612e-05 -0.401947)
(-0.72289 4.02234e-05 -1.85437)
(-0.722758 -3.76544e-05 -1.85452)
(-0.722833 -0.000153062 -1.85454)
(-0.722891 -0.000106139 -1.85461)
(-0.722807 -4.23269e-06 -1.85473)
(-0.722942 2.04384e-05 -1.85438)
(4.85098 0.000317785 8.44919)
(4.85222 0.000332953 8.44957)
(4.85169 0.000180826 8.44946)
(4.85191 0.000205834 8.44956)
(4.85252 4.21202e-05 8.4497)
(4.85113 -0.000108483 8.44939)
(4.54266 0.000627527 7.82291)
(4.54324 0.000640211 7.82412)
(4.54289 8.84084e-05 7.82373)
(4.54296 0.000341918 7.82389)
(4.54303 0.000174473 7.82414)
(4.54304 -0.000174845 7.82407)
(3.21793 0.000499641 5.41242)
(3.21774 0.000529264 5.41308)
(3.2177 9.08456e-05 5.41316)
(3.21771 0.000365332 5.41354)
(3.21759 -0.000468486 5.41298)
(3.21807 -0.000818526 5.41475)
(3.17467 0.000429856 4.71621)
(3.17644 0.00038618 4.71919)
(3.17584 7.00604e-05 4.71813)
(3.17582 0.000241903 4.71801)
(3.17658 -0.000295798 4.71881)
(3.17518 -0.000492966 4.71724)
(-3.10286 0.000464271 5.3676)
(-3.10183 0.000518912 5.37509)
(-3.10192 0.000261063 5.37259)
(-3.10267 0.000454387 5.37271)
(-3.10486 -0.000176077 5.37718)
(-3.09924 -0.000538717 5.36691)
(0.99015 -7.46998e-05 9.27798)
(0.995532 1.4348e-05 9.28268)
(0.99376 6.50274e-05 9.28155)
(0.994185 1.50401e-05 9.2819)
(0.998421 0.000580149 9.28373)
(0.98724 0.000429394 9.27974)
(1.65667 4.22877e-05 2.38962)
(1.65724 8.17835e-05 2.39046)
(1.65717 4.85492e-05 2.39022)
(1.65722 5.01468e-05 2.39015)
(1.65788 -2.11613e-05 2.39031)
(1.65654 -8.86376e-05 2.39006)
(1.92428 0.000259728 2.60223)
(1.92551 0.000239475 2.60457)
(1.9253 0.000195985 2.6038)
(1.92415 0.000535383 2.60377)
(1.92313 -0.000574971 2.60476)
(1.92651 -0.000951862 2.60269)
(2.99652 0.000216206 -4.0037)
(2.99894 6.39011e-05 -3.99977)
(2.99812 -0.000586674 -4.00119)
(2.99769 -0.000187 -4.00139)
(2.99968 4.44171e-05 -4.00077)
(2.99524 -0.000356928 -4.00237)
(6.49285 0.000663602 -2.5156)
(6.49798 0.00061166 -2.51377)
(6.49585 -0.00171198 -2.5061)
(6.49224 -0.00607391 -2.52283)
(6.48666 0.00542413 -2.53396)
(6.51236 0.0109608 -2.50427)
(-4.42069 0.00865644 3.11863)
(-4.41822 0.0127791 3.11212)
(-4.40802 -0.0200293 3.11424)
(-4.41899 0.000261861 3.11275)
(-4.35921 -0.0255311 3.1001)
(-4.47324 -0.0485766 3.12438)
(-0.858582 0.014693 10.2928)
(-0.81371 0.0243485 10.4179)
(-0.808342 -0.0223272 10.4241)
(-0.840953 0.0218549 10.3252)
(-0.629905 -0.0490055 10.7383)
(-1.02742 -0.111698 9.93438)
(3.03167 -0.000296031 -5.44853)
(3.03028 0.000151079 -5.45232)
(3.02965 -0.00115501 -5.45054)
(3.03503 -0.0020351 -5.44927)
(3.04277 0.00420526 -5.44919)
(3.0305 0.00543829 -5.45159)
(4.38003 0.000391137 -1.06264)
(4.38121 0.00122606 -1.06386)
(4.38004 -0.00611697 -1.06421)
(4.39616 -0.00891298 -1.0581)
(4.44019 0.00941441 -1.03987)
(4.33378 0.0119412 -1.08002)
(5.91951 0.00370697 10.33)
(5.9336 0.00536464 10.3394)
(5.93115 -0.010021 10.3382)
(5.9317 -0.00447847 10.3091)
(5.97577 -0.000179279 10.2204)
(5.87771 -0.00645129 10.4271)
(3.20695 -0.000589822 -3.42002)
(3.20508 0.00019484 -3.42213)
(3.20426 0.00026273 -3.42209)
(3.21184 0.001714 -3.41768)
(3.21637 0.000840319 -3.40456)
(3.2051 -0.00179712 -3.43954)
(6.05575 0.000171723 0.112364)
(6.05637 0.000517993 0.113609)
(6.05508 -0.00646709 0.112823)
(6.05967 -0.0130539 0.112682)
(6.06774 0.0160376 0.117665)
(6.04832 0.0227917 0.107862)
(8.00544 0.000736209 0.307122)
(8.01213 0.00126864 0.31342)
(8.01063 -0.00699938 0.326837)
(8.01408 -0.0109167 0.235238)
(8.06036 0.0101179 0.00100009)
(7.96095 0.0181638 0.569843)
(1.34857 1.35412e-05 -2.31394)
(1.34878 0.000560544 -2.31543)
(1.34909 0.00172242 -2.31543)
(1.34924 0.00171207 -2.31202)
(1.34808 0.000392283 -2.30898)
(1.3504 -0.00138394 -2.31927)
(4.80719 1.88873e-06 0.00529132)
(4.80786 -1.38896e-05 0.00748223)
(4.80776 -0.000932374 0.00701524)
(4.80224 7.81536e-05 0.0012235)
(4.79534 0.000419268 -0.0029915)
(4.81558 -0.000104212 0.0113741)
(6.53798 0.000914804 -8.96802)
(6.54314 0.00111504 -8.96963)
(6.54406 -0.00172145 -8.96943)
(6.52447 -0.00138816 -8.96555)
(6.49432 0.00148058 -8.94046)
(6.57596 0.00278041 -8.99432)
(0.746393 0.000217406 -0.323898)
(0.745755 0.000497815 -0.324933)
(0.745655 0.00083303 -0.324963)
(0.747645 0.00120765 -0.322312)
(0.750751 -0.000844197 -0.314978)
(0.743548 -0.00143762 -0.331087)
(2.97696 -6.37535e-05 0.212558)
(2.97736 9.78483e-05 0.214014)
(2.97741 0.000784696 0.213374)
(2.9768 0.00127218 0.213456)
(2.97889 -0.000838707 0.213003)
(2.97541 -0.00162857 0.212524)
(4.63311 0.000297024 -2.16725)
(4.6296 0.000245817 -2.16994)
(4.62844 -0.000583428 -2.16916)
(4.6374 -0.00223329 -2.15682)
(4.65085 0.0030597 -2.14376)
(4.61449 0.00421146 -2.18261)
(1.57633 3.2799e-05 1.22528)
(1.57655 0.000198408 1.22549)
(1.5767 0.00036469 1.2254)
(1.57675 0.00136055 1.22536)
(1.57743 -0.00114798 1.22607)
(1.57605 -0.00231861 1.22498)
(2.91872 0.000208573 1.15683)
(2.91888 0.000331438 1.15829)
(2.91883 -0.000435877 1.15747)
(2.91998 -0.0012613 1.15852)
(2.92216 0.00145091 1.16129)
(2.91695 0.00213647 1.15414)
(4.52396 -0.000138499 -1.3286)
(4.52409 -7.60294e-05 -1.32589)
(4.52368 0.000114958 -1.3247)
(4.52127 0.000595193 -1.33075)