/*--------------------------------*- C++ -*----------------------------------*\
| =========                 |                                                 |
| \\      /  F ield         | OpenFOAM: The Open Source CFD Toolbox           |
|  \\    /   O peration     | Version:  v1612+                                |
|   \\  /    A nd           | Web:      www.OpenFOAM.com                      |
|    \\/     M anipulation  |                                                 |
\*---------------------------------------------------------------------------*/
FoamFile
{
    version     2.0;
    format      ascii;
    class       surfaceScalarField;
    location    "7.95";
    object      alphaPhi;
}
// * * * * * * * * * * * * * * * * * * * * * * * * * * * * * * * * * * * * * //

dimensions      [0 3 -1 0 0 0 0];

internalField   nonuniform List<scalar> 
2916
(
0.00177731
0.35239
-0.373691
-0.000686671
0.352108
-0.367838
-0.000992632
0.351251
-0.369798
-0.00119968
0.353192
-0.372028
-0.00121025
0.354886
-0.374017
0.351408
-0.371915
0.00157545
0.676332
-0.298894
-0.000383635
0.675313
-0.29389
-0.00250953
0.675288
-0.294621
-0.00150639
0.676562
-0.297551
0.00285333
0.677796
-0.300962
0.675482
-0.293688
0.00181527
0.740219
-0.0656783
2.36165e-05
0.739213
-0.062085
-0.00259554
0.739462
-0.0615317
-0.000876264
0.740076
-0.0652099
0.00418308
0.740962
-0.0682015
0.739248
-0.0595599
0.000349826
0.613811
0.126077
8.97721e-05
0.611752
0.127739
-0.000853025
0.612471
0.127953
-0.000248528
0.613099
0.126392
0.00160612
0.613819
0.125307
0.612204
0.128669
-0.000869484
0.391455
0.223244
0.000126366
0.386187
0.224589
0.000569064
0.387797
0.22425
1.03829e-05
0.389778
0.223898
-0.000970597
0.391279
0.22354
0.387085
0.224168
-0.000926318
0.136538
0.223308
0.000167689
0.129315
0.223388
0.00130524
0.131013
0.223255
0.000139953
0.134725
0.223656
-0.00192473
0.136818
0.223744
0.129786
0.223179
0.000565944
-0.0910343
0.178757
3.92527e-05
-0.0937026
0.176592
-0.000210092
-0.0931595
0.177145
-0.000311905
-0.0913321
0.178235
0.00148633
-0.0914404
0.178261
-0.0934035
0.17732
0.00141354
-0.260088
0.129238
0.000388545
-0.258219
0.128059
-0.000542516
-0.258419
0.128434
0.000824326
-0.259603
0.128803
0.0038477
-0.262531
0.129416
-0.256771
0.12953
-0.000714229
-0.303965
0.0379107
0.000610208
-0.30283
0.0371832
0.0017306
-0.302573
0.037055
0.0013896
-0.304169
0.0380568
0.00111193
-0.307432
0.0380498
-0.301851
0.0394342
-0.0013967
-0.256962
-0.0296473
0.000487814
-0.259437
-0.0285911
0.00301882
-0.25877
-0.0292952
0.000831328
-0.257842
-0.0286818
-0.0036744
-0.258603
-0.0291792
-0.260688
-0.0278649
-0.001073
-0.17612
-0.0421889
0.000261741
-0.184545
-0.0395489
0.00274882
-0.18398
-0.0401416
0.000254968
-0.176866
-0.0412176
-0.00577269
-0.172833
-0.0420747
-0.188117
-0.0409919
0.00202967
-0.104872
-0.0010271
-0.106969
-0.00280518
-0.107486
-0.0015665
-0.104716
0.00385226
-0.104478
-0.109065
0.00218879
0.424214
-0.49561
0.00233388
0.420883
-0.483585
0.00895636
0.414694
-0.484224
0.00523466
0.428354
-0.488148
-0.0110642
0.442145
-0.489681
0.41135
-0.485817
-0.00299764
0.806246
-0.363736
0.000207399
0.797713
-0.362323
0.00291014
0.795618
-0.364638
0.000305663
0.807188
-0.361557
-0.00523544
0.81719
-0.358738
0.791869
-0.366197
0.000669448
1.09172
-0.137878
0.000969843
1.08295
-0.13579
0.000515405
1.08315
-0.135652
0.00138506
1.09123
-0.137386
0.00240047
1.09879
-0.138086
1.08017
-0.134064
0.00261545
1.19047
0.0591467
0.000498908
1.18698
0.0594493
-0.0031398
1.1872
0.0608953
0.00035135
1.19016
0.0585598
0.00864356
1.19323
0.0579046
1.18588
0.0632736
0.000380769
1.15506
0.147997
0.000250293
1.15371
0.148318
-0.000456067
1.1526
0.149434
0.000225536
1.15583
0.147548
0.00295542
1.15692
0.147021
1.1528
0.150099
0.00482436
0.793897
0.0830395
0.000342101
0.802389
0.0868885
-0.00195156
0.797746
0.0871743
0.000126401
0.798352
0.0833652
0.00320922
0.797155
0.0824526
0.799798
0.0878048
0.00509759
0.324796
0.01543
0.000262265
0.331548
0.01645
-0.00405442
0.329073
0.0167869
-0.00112168
0.328252
0.015325
0.00614373
0.325582
0.014159
0.332517
0.0175817
0.000284143
0.221494
-9.34785e-05
0.000636529
0.222895
0.000155521
-7.82451e-06
0.222857
7.8345e-05
0.0011084
0.220846
-4.73522e-05
0.00403204
0.222674
-0.000148194
0.217214
-0.00016484
-0.00358783
0.196959
-0.015816
0.000438478
0.202527
-0.0131183
0.00262399
0.202022
-0.0136122
-0.00064694
0.196718
-0.015651
-0.0069178
0.194226
-0.0174445
0.203022
-0.0106387
-0.00495837
0.109697
-0.0191582
-0.000102864
0.110663
-0.0180316
0.00363819
0.111182
-0.0178593
-0.000289292
0.109528
-0.0191671
-0.00849456
0.107166
-0.0197458
0.113656
-0.0177741
-0.00302916
0.0283411
-0.00904683
-3.3102e-06
0.0201585
-0.00982323
0.00277706
0.0213822
-0.00960247
0.000996925
0.0281069
-0.00884515
-0.00551874
0.0326726
-0.00847079
0.0195208
-0.00995591
0.00427198
-0.00693094
-0.000827797
-0.00397011
-0.00503551
-0.00398668
-0.000842435
-0.00712692
0.00706432
-0.00753216
-0.00317233
0.0077262
0.158415
-0.000214249
-0.00259597
0.167787
-0.000221871
-0.0165243
0.174157
-0.000235158
-0.00774199
0.155437
-0.000219737
0.0124788
0.142371
-0.000304373
0.176847
-0.000238248
0.0012558
0.141175
-0.000786482
0.000438943
0.146977
-0.000389591
0.00124754
0.146108
-0.000372039
0.000474171
0.142059
-0.000755684
0.00107684
0.140073
-0.00107709
0.147423
-0.000338307
-0.000148844
0.366959
-0.00133236
-0.000163289
0.369098
-0.00132073
0.000116798
0.36607
-0.00128271
-0.00130123
0.36771
-0.00126683
0.000258837
0.367654
-0.0012979
0.367639
-0.000923558
4.08224e-05
0.800219
-0.000877242
-0.000179047
0.800276
-0.000676077
-0.000258123
0.798225
-0.000864632
-0.0010587
0.799668
-0.000709135
-0.000272095
0.798667
-0.000401397
0.798137
-0.000441411
-4.00839e-05
0.898097
-5.32676e-05
0.000127125
0.897977
-3.47641e-05
0.000452035
0.896934
-5.33589e-05
0.000408289
0.897669
-3.69203e-05
-0.000933702
0.898147
-1.67003e-05
0.895651
-2.44135e-05
0.002162
0.730824
-5.78805e-06
9.25663e-05
0.73172
-4.60462e-06
-0.00135214
0.730095
-6.50983e-06
-0.000386389
0.733088
-5.19029e-06
0.00014825
0.738169
-1.48742e-06
0.720084
-2.52693e-06
0.00982868
0.300523
-5.05873e-06
0.000375838
0.324913
-1.73535e-05
-0.00989787
0.318759
-1.67084e-05
-0.00220838
0.305873
-8.23434e-06
0.0171445
0.30151
0.000650595
0.319259
-9.96669e-06
0.00417888
0.0230451
0.0108607
-3.45565e-05
0.03931
0.0124366
-0.00604234
0.0359421
0.011903
0.00375207
0.0229026
0.0107123
0.024592
0.0163188
0.0106085
0.0519919
0.00560624
-0.00430507
-0.0105093
-0.000212976
-0.000431857
-0.00963751
-0.00152498
0.00221726
-0.00993607
-0.00126079
-0.00124482
-0.0111782
5.17544e-05
-0.00846962
-0.0114205
7.8106e-05
-0.00495447
-0.00245277
-0.00117758
-0.0186499
1.46828e-05
-0.000335722
-0.0207603
-9.34261e-07
0.000175885
-0.0205027
4.42118e-06
-0.000716084
-0.0191757
4.67226e-05
-0.00316877
-0.0182386
1.49286e-05
-0.0203542
1.57478e-05
0.0010471
-0.0149039
-0.00216449
-0.000648195
-0.0147882
-0.00076558
-0.00217306
-0.0144989
-0.00101214
-0.000857277
-0.0156359
-0.00210888
0.00197247
-0.0161024
-0.00253646
-0.0142999
-0.00062172
0.00152053
-0.0169813
-0.000688707
-0.0145464
-0.0021929
-0.0147406
-0.00143388
-0.0173079
0.00219786
-0.0193559
-0.0142695
4.77581e-06
9.20877e-06
-0.000205758
-2.76309e-06
1.97393e-05
-0.000207851
-1.54886e-05
2.48787e-05
-0.000224287
-7.4818e-06
6.28018e-06
-0.000218318
1.27576e-05
-8.01768e-06
-0.000289846
2.01334e-05
-0.000219335
2.2571e-06
1.88222e-05
-0.000763225
1.61845e-06
2.89509e-05
-0.000341942
5.16468e-06
3.03432e-05
-0.000337111
5.50603e-06
1.81315e-05
-0.000720902
2.28691e-06
7.92842e-06
-0.00104747
2.66527e-05
-0.000308779
-6.56809e-07
4.36492e-05
-0.001326
-7.6386e-07
5.38393e-05
-0.00129576
1.82836e-06
5.29251e-05
-0.00126671
1.37778e-06
4.02004e-05
-0.00125412
4.05165e-06
3.02057e-05
-0.00129331
4.27347e-05
-0.000912349
-1.6425e-07
4.36121e-05
-0.000867008
-4.14982e-07
3.88147e-05
-0.000654837
-2.43018e-07
4.88976e-05
-0.000848476
-3.75042e-07
3.63155e-05
-0.000695128
4.75435e-07
1.80603e-05
-0.000388501
2.7412e-05
-0.000424085
1.67734e-08
5.45479e-06
-1.3998e-05
7.96946e-08
3.97384e-06
-2.95428e-08
2.31675e-07
6.33084e-06
-9.1879e-06
1.03142e-07
3.86891e-06
-2.51041e-08
1.43092e-08
1.65921e-06
-3.95188e-08
2.97283e-06
-2.51544e-08
-2.3958e-08
1.33965e-06
-3.49752e-08
2.96145e-08
1.02437e-06
-1.72703e-07
9.78659e-08
1.24607e-06
-1.39323e-07
4.9065e-08
7.21162e-07
-3.18633e-08
-1.27314e-08
3.63095e-07
-5.33719e-09
3.97437e-07
-1.01189e-07
-2.43749e-08
5.75367e-06
-7.77511e-06
-5.71966e-09
1.64475e-06
-1.31706e-05
1.65811e-08
2.08172e-06
-1.18512e-05
4.67207e-09
2.9489e-06
-9.56693e-06
-2.71733e-09
0.000737176
-8.64579e-05
4.95123e-07
-1.03153e-05
0.000112806
0.000272967
-2.9662e-05
-0.000109471
0.00180512
4.98937e-05
-0.000234145
0.0015056
6.42928e-05
3.96295e-05
-1.04403e-05
2.60014e-05
0.000738204
-0.00016732
-6.45914e-05
0.00306343
-5.17835e-06
-8.87608e-05
-0.000154036
0.000131027
-2.41621e-05
-0.000147481
0.000137786
2.72916e-05
-0.000152305
0.000135709
-5.51169e-05
-0.000175017
0.000133676
-0.000225267
-0.000191835
0.00011774
-0.000106277
0.000100245
-1.59271e-05
-0.000138103
2.19712e-06
-1.60869e-05
-0.000167705
2.99173e-06
-1.95758e-05
-0.000162751
2.82294e-06
-3.98308e-05
-0.000122395
2.14297e-06
-9.7365e-05
-0.000132461
1.58902e-06
-0.000210997
3.64425e-06
-9.93401e-06
-0.00252298
-5.61185e-05
2.11227e-05
-0.00255001
-4.45091e-05
3.77716e-05
-0.00262578
-4.79591e-05
1.66638e-05
-0.00254567
-5.81754e-05
-2.87779e-05
-0.00282055
-7.90802e-05
-0.00272401
-5.73309e-05
-0.000163995
-0.0157294
0.000111224
-0.0160184
0.000349254
-0.0159502
0.000174977
-0.0156141
-0.000389975
-0.0154662
-0.0158929
-0.0187055
0.0499803
-0.0350456
-0.0160215
-0.00199249
-0.000696215
0.0129337
-0.00936594
-0.0205591
0.00936682
0.0124716
-0.00900126
0.0169413
-0.013144
0.00535258
0.0414734
-0.0246803
-0.00606837
0.0751687
-0.0192357
0.00924658
-0.0386781
0.0213622
0.0523986
-0.0480664
-0.00472092
0.0300505
0.00638302
0.0276254
-0.0104028
-0.00654163
0.0337003
0.0536419
-0.0228194
0.0295581
0.0144905
0.0249779
0.0552426
-0.0936111
0.0302707
0.0349086
-0.0352929
0.0203942
-0.0365079
0.0306607
0.0466561
-0.057272
-0.0316173
0.0456547
0.00218665
-0.00611191
0.0145312
-0.0806597
0.0341751
0.00838563
-0.103866
0.0258664
0.014305
-0.045839
0.0191082
-0.00502709
-0.00993979
0.0372168
-0.0183434
-0.0411767
0.0380567
-0.0378596
0.0224017
0.00852981
-0.109682
0.017206
0.00277795
-0.112817
0.0126189
0.00589878
-0.122162
0.0157917
-0.000251947
-0.084651
0.0224871
0.000936639
-0.05197
0.0146529
-0.0585738
0.0144538
0.00486827
-0.112444
0.00123753
0.00277857
-0.10683
-0.00134572
0.00671692
-0.123069
-0.000771513
0.0154179
-0.109726
9.21797e-05
0.00581454
-0.110456
0.013257
-0.0984064
0.00774822
-0.00506347
-0.104247
-0.00037528
-0.00168417
-0.103478
-0.000117501
0.0053697
-0.10361
-0.000172833
0.0081731
-0.125458
-4.3012e-05
0.00146872
-0.105784
-0.000292036
-0.0833176
-7.52173e-06
-0.0122323
-0.0908032
0.0015744
-0.0057831
-0.101784
-0.000152383
0.00272839
-0.080562
-1.52748e-05
-0.000232286
-0.0573998
-4.22715e-06
-0.00532887
-0.0628353
0.00276547
-0.0821915
-7.1556e-07
-0.020015
-0.0780008
0.00471796
-0.0159242
-0.0970508
-0.00097841
0.000117913
-0.0721043
-0.000214326
-0.00239302
-0.0304708
0.00419
-0.0094342
-0.0399951
0.00369669
-0.0831084
-0.000856713
-0.0285757
-0.0519541
0.00872352
-0.0335002
-0.0842042
-0.000432245
-0.0132187
-0.0700665
-0.00168969
-0.00510508
-0.0257586
0.00102747
0.00159627
-0.0351204
-0.0026256
-0.0704313
-0.000977752
-0.0140799
-0.0295204
0.00183392
-0.029531
-0.0467399
-0.0109485
-0.0281408
-0.0447688
-0.000462499
-0.00219341
-0.0249569
-0.0151798
0.0287139
-0.0255713
-0.0252782
-0.0347199
0.00314316
-0.00638275
-0.00913842
-0.00403657
-0.0264774
0.0021584
-0.0183947
0.0143806
-0.0192021
0.0237466
-0.0247967
-0.000832722
0.00514992
0.0855538
-0.132251
-0.00692986
0.0408189
-0.0294109
0.0075471
0.0597746
-0.0948242
0.0108739
0.00185614
-0.0141777
-0.00520373
0.0113683
0.0100572
0.078065
-0.107996
0.0462285
0.135591
-0.1159
0.0257581
0.0291159
0.0125595
0.0146904
0.0235671
0.000144387
-0.0348921
0.0169282
0.062136
-0.0524496
0.0501273
0.0122365
0.120325
-0.117788
0.0656243
0.141038
-0.046141
0.00223083
0.00790059
0.043381
-0.00720939
-0.00199675
0.0429946
-0.0324501
0.00345385
0.0488466
-0.0788532
0.00668921
0.0118715
0.0940591
-0.0587861
0.00686556
-0.000786554
0.0114192
-0.00456596
0.000216784
0.0241376
-0.0108321
-0.00598829
0.0297735
-0.0241806
-0.00670662
0.0227283
-0.025243
-0.0121141
0.0125815
-0.000785011
0.00420475
0.00176592
0.000501701
-7.93742e-05
-0.00327666
0.00123344
-0.000118571
-0.00626451
-0.000929044
0.000583602
-0.0027812
-0.00637617
0.000163412
0.000173159
-0.00985006
0.00486073
-0.00299598
0.006088
0.000207868
0.000409391
-0.000199151
2.13355e-05
0.000124542
-9.84814e-05
-8.49268e-05
0.000175447
-0.00014311
-0.000480863
3.98965e-05
-0.000322447
-7.40182e-05
7.31067e-05
-3.32757e-05
6.02152e-06
-9.88038e-05
3.45294e-06
2.81699e-05
-1.04535e-05
7.83938e-07
1.12088e-05
-9.93512e-06
-2.54573e-08
5.99481e-06
-3.7533e-06
-2.79394e-06
1.19459e-07
-9.70258e-07
4.71838e-07
-0.000238942
-7.27891e-06
2.64058e-07
-1.61985e-06
0.000155012
0.00085094
-1.3863e-06
1.25435e-06
1.22869e-05
-6.14374e-07
-1.07128e-05
1.63016e-06
-1.53426e-07
-0.000442217
-1.37204e-05
-1.74658e-06
-2.5727e-08
-0.00139906
-2.23313e-06
1.9331e-08
-5.10298e-07
0.002574
-0.00548155
0.000122232
0.000233364
0.00066433
1.87828e-05
4.86249e-06
1.55961e-05
-1.75572e-06
0.000206413
-6.96523e-05
-3.12804e-05
0.000286503
-0.000193729
-9.04843e-05
-0.000492601
-7.71569e-05
0.000522122
-0.0122293
0.000158281
0.00179692
5.00831e-05
0.000405326
3.33556e-05
1.3282e-05
7.46136e-05
0.00014739
-9.29116e-05
-7.05969e-05
0.000177637
-0.000553691
-0.00333893
-0.00298586
-1.58192e-06
-0.00282852
-0.0107334
-0.000128393
-1.73975e-05
-0.0055824
-0.000654927
-3.17948e-05
-0.000352339
-8.3491e-05
8.63412e-05
-0.000318131
-0.0150611
0.000919035
-0.000745254
-0.0263452
-0.00192456
-0.000251436
0.00117193
-0.0238114
0.000893967
-0.0273951
4.07668e-05
-0.0178691
1.33219e-05
-0.0194076
-0.00116475
-0.0185233
-0.00986229
-0.000600696
0.0683932
-0.213627
0.00441803
0.0558357
-0.0968719
0.0181157
0.0674527
-0.176021
0.0445336
0.0404205
-0.0810465
0.0205631
0.047902
-0.0141383
0.0750257
-0.162616
0.0023631
0.100017
-0.111507
0.0243023
0.129679
-0.0812146
0.0574506
0.118117
-0.0838299
0.0479811
0.090766
0.0209332
0.010623
0.134813
-0.0376506
0.0532688
-0.045869
0.0350147
0.0948368
-0.0612674
0.0208303
0.0759885
-0.0031112
0.0157053
0.0429979
0.0384673
-0.0514762
0.0109191
0.0667218
-0.034198
0.0688755
-0.0449989
0.0239461
-0.0112256
0.00915821
0.00580906
-0.0188731
-0.00421836
0.000851344
0.0200248
-0.00311481
0.000392532
0.0239113
-0.018037
-0.00267364
0.00791284
-0.0109739
-0.00404563
0.00655339
0.000577954
-0.00139385
0.000749246
0.000232881
3.99108e-06
-0.000279155
0.000134336
0.00136793
-0.000768185
0.000119991
0.00127112
-0.000549031
0.000301836
0.000599417
-0.000419171
5.47619e-05
0.000610423
0.000109691
-1.42576e-05
2.03452e-05
1.30279e-05
-9.70429e-06
2.642e-05
1.27512e-05
7.07549e-07
1.4161e-06
5.02243e-06
-6.78044e-06
-1.64579e-05
1.15016e-06
-4.41994e-06
-4.8677e-06
8.73051e-06
-4.62471e-09
2.92544e-06
-7.31948e-08
-1.16926e-06
3.59693e-06
-1.41037e-07
-1.54141e-07
1.50159e-06
-8.6926e-07
-1.15164e-07
6.00946e-07
-2.69302e-07
-4.83306e-07
2.25863e-07
-4.03131e-08
-4.41572e-08
7.25871e-07
-1.23137e-07
9.32236e-08
-1.15002e-07
-2.03118e-07
2.48779e-06
-8.59818e-09
-2.17373e-07
8.04632e-07
-1.78992e-07
-1.36433e-06
3.51728e-07
-7.89785e-08
-7.65565e-06
4.89747e-07
4.54733e-08
-1.69022e-06
-1.00439e-05
-1.31253e-06
-1.76387e-06
1.39093e-06
3.82161e-06
0.000118948
1.88924e-06
-2.50381e-07
2.28846e-05
-1.52944e-07
-1.30933e-05
6.97451e-06
1.46505e-06
-2.79645e-05
-2.15604e-05
2.17569e-06
1.88258e-05
-0.000156738
-2.75543e-06
-0.000451628
0.000199434
6.13218e-06
0.000241772
3.45753e-05
2.0257e-05
0.000390083
1.85842e-05
2.93369e-06
8.86957e-05
4.86818e-06
0.00049697
-0.00033569
0.000238136
0.00105057
-0.000956058
-0.000675772
4.78763e-05
0.000181293
-0.000145949
8.61647e-06
0.000268939
-0.000155169
-0.000919938
0.00104894
0.000449126
-0.00114887
0.00153768
0.00103042
-0.00414014
-0.011041
0.000434602
-0.00661386
-0.0197038
0.000105597
0.000128081
0.00481038
-0.0249826
0.00339983
-0.0235488
0.00200978
-0.0137256
-0.00255667
-0.0214994
-0.00962626
-0.0222432
-0.0164632
-0.0198701
0.0135109
-0.118559
0.00627004
0.0260242
-0.000560109
0.00226761
0.018844
-0.166597
0.0298386
0.0355944
-0.144194
0.0433278
0.038932
-0.0508802
0.0334474
-0.0938251
-0.0390425
0.000649811
-0.00016514
0.0183484
0.107691
-8.02047e-06
0.0558096
0.0602763
-0.00423954
0.0525908
0.0712406
-0.0790016
0.022554
0.0578561
-0.0534483
0.00116158
-1.03109e-05
-0.0112595
0.00114615
-0.00063212
0.0384592
0.101903
-0.0706707
0.0230627
0.0903331
-0.0270338
0.0101262
0.017136
0.0182099
0.010081
0.0103854
-0.0144734
2.17991e-05
-2.81353e-07
-0.00396302
0.00459155
-0.00168571
-0.00030089
-0.000484172
0.00397728
0.00303265
0.000646812
0.020268
0.00139193
-0.00024128
0.00668251
0.00137298
-0.000475885
-0.00040389
1.68626e-06
-2.2866e-07
-0.000380904
-1.50263e-05
0.000232029
-0.00075705
9.031e-05
0.000983614
-0.000176639
5.03049e-05
0.00118104
-6.72769e-05
7.04533e-06
0.000226789
3.08095e-05
2.98598e-06
1.40254e-05
3.31648e-05
-1.35675e-07
-2.67784e-05
-8.19617e-07
9.2638e-07
-1.04921e-05
2.80393e-06
6.40795e-05
-1.78741e-06
4.96545e-07
3.19609e-05
-1.35155e-06
2.23831e-08
1.96264e-06
1.91088e-06
-9.14013e-07
1.52304e-07
3.09279e-06
1.68843e-06
-9.43198e-07
-8.72055e-08
1.2156e-08
-3.00763e-07
-4.86157e-08
7.95353e-07
-3.17072e-08
-3.07421e-07
3.35225e-07
-4.04857e-08
-3.77636e-08
1.64203e-08
-5.57529e-08
-1.09659e-06
7.3985e-10
2.16295e-06
1.31029e-08
-1.27773e-07
1.22383e-07
7.47984e-09
-1.3805e-06
5.93954e-07
7.00323e-07
7.64751e-07
-3.8272e-07
7.14814e-07
6.59712e-07
7.07222e-08
2.03633e-08
-1.61251e-05
-1.99247e-06
5.21415e-07
-9.84714e-05
6.61225e-06
1.24319e-07
1.85506e-06
4.91233e-08
-1.72096e-06
2.23638e-06
6.91188e-07
-2.74906e-06
1.76301e-06
2.94385e-06
-2.83335e-07
-3.55176e-07
1.30399e-07
-4.89446e-05
2.08461e-05
-7.59413e-08
-0.000131018
3.07766e-06
4.95938e-06
2.73092e-05
2.72145e-06
6.09806e-07
2.22286e-05
2.88488e-06
-1.20076e-05
1.32297e-05
7.08279e-06
1.68001e-05
0.000207208
1.40142e-06
1.91774e-05
-0.000634448
-2.29129e-05
0.000105432
-4.47146e-05
2.2604e-05
0.000275475
7.46075e-06
3.73455e-05
0.00104368
1.596e-05
0.000287617
0.00126782
3.41136e-05
0.00172436
-0.00738349
-0.000924472
-2.71535e-05
-0.00996135
-0.00210461
0.000207978
-2.74554e-07
0.00202419
-0.022394
0.00441825
-0.0203221
0.00833005
-0.0174404
0.00101602
-0.0174893
-0.00932105
-0.0177879
-0.0214346
3.20471e-05
-5.58136e-05
-0.000259508
-5.37885e-06
-1.0504e-05
-4.61817e-05
-4.80275e-05
-1.08611e-05
-2.67245e-05
-4.64629e-05
-6.11757e-05
-0.000280177
0.000112796
-0.000193819
-0.000709094
-1.8205e-05
-4.68667e-05
1.12235e-05
0.000760484
-0.00131375
1.42812e-05
0.000652046
-0.00111499
-9.84424e-06
0.000660912
-0.00063956
2.04947e-05
0.000933093
-0.00136008
0.000134858
0.000979407
-0.00123496
0.000912897
-0.000858478
-9.04595e-05
-0.000642473
5.40947e-05
-0.00110528
0.000151238
-0.00128309
7.73997e-05
-0.000762039
-4.62922e-05
-0.00063111
-0.00144917
7.15299e-06
-0.000197839
-0.00135359
1.88604e-05
-0.000119189
-0.00112567
9.64594e-05
-4.16267e-05
-0.000910491
0.000120885
-0.000117794
-0.00102098
9.60634e-06
-0.000168302
-0.00142831
-4.36877e-05
-0.000657494
8.16894e-06
-0.000165122
-0.000632224
4.03985e-05
5.57733e-05
-0.000599767
0.000137205
3.29305e-05
-0.00139683
0.000117547
-0.000342508
-0.000877998
-5.85672e-05
-0.000645492
-0.000524721
0.000476292
-0.00137141
-2.4738e-06
-1.10155e-13
1.34024e-05
-2.911e-13
2.71559e-05
-2.53076e-13
2.15581e-05
-1.09083e-13
-4.71654e-05
-1.17285e-13
-0.00075695
-8.21678e-05
-0.000500256
-0.00112112
-1.75147e-05
-0.000414747
-0.00110839
6.55443e-05
-0.000554825
-0.00157914
2.10802e-05
-0.000570659
-0.00160066
-9.304e-05
-0.000391207
-0.00116778
-0.000390554
-0.00128765
7.11104e-06
-1.70896e-13
-3.47792e-09
-4.5301e-06
-2.56124e-13
-7.10308e-09
-7.57891e-06
-2.34473e-13
-4.22431e-09
8.15207e-07
-1.00386e-13
-4.2025e-09
5.78247e-06
-6.23764e-14
-1.98084e-08
-0.000459191
-1.54844e-08
3.7554e-16
-2.81426e-13
1.99823e-16
-5.47152e-13
-9.35814e-17
-4.87286e-13
2.22135e-16
-2.09784e-13
5.65825e-15
-1.85175e-13
-5.20087e-11
-1.51911e-05
-4.86945e-09
-0.000326239
-1.33259e-05
-7.32991e-09
-6.51349e-07
-2.54735e-05
-6.08927e-09
-0.000211997
-1.60736e-05
-9.04275e-09
-6.05133e-07
-7.77132e-06
-5.25234e-08
-7.59612e-07
-4.76277e-09
-5.40803e-07
1.77948e-11
-2.80809e-11
-8.34065e-09
-6.27102e-12
-4.02562e-11
-1.43735e-08
-6.28949e-11
-3.43684e-11
-1.02302e-08
-1.28581e-10
-2.52969e-11
-1.31554e-08
3.69554e-10
-3.09475e-11
-7.28011e-08
-2.69155e-12
-1.98825e-08
5.06898e-14
-2.84131e-11
7.29837e-15
-4.07738e-11
-3.21475e-14
-3.48174e-11
2.11799e-14
-2.556e-11
1.33127e-13
-3.1252e-11
-5.46132e-11
-7.35928e-10
-5.95312e-08
-7.58919e-07
-1.60055e-08
-2.89041e-08
-6.91372e-07
1.66976e-07
-8.59893e-08
-1.98478e-06
-6.40006e-12
-2.44945e-08
-4.56931e-07
-1.66581e-09
-9.78007e-08
-7.25302e-07
-3.20925e-08
-5.8878e-07
5.8118e-10
-1.26458e-09
-6.75859e-08
-2.45434e-10
-9.38905e-10
-4.19882e-08
-1.66031e-09
-2.38668e-09
-9.28458e-08
-3.59304e-09
-6.26237e-10
-3.52309e-08
9.47207e-09
-1.28176e-09
1.5725e-07
-9.89948e-10
-4.20332e-08
3.89027e-12
-1.29633e-09
-7.24217e-13
-9.76148e-10
-4.69565e-12
-2.35271e-09
-1.63897e-12
-1.13797e-09
7.16669e-12
-1.32168e-09
-1.03982e-09
-2.32526e-08
-7.84163e-08
-4.19255e-06
6.29113e-09
-2.23684e-07
-5.98117e-07
5.73254e-08
-1.85114e-07
-5.76852e-06
2.58301e-08
-9.68284e-08
-4.99895e-07
-2.91126e-08
-8.12736e-08
2.80606e-06
-2.63115e-07
-7.52409e-07
1.07854e-08
-6.51858e-09
-9.93744e-07
-3.1228e-09
-1.39638e-08
-2.55079e-06
-1.55117e-08
-1.13617e-08
-1.95841e-06
-2.16314e-08
-9.3335e-09
-1.13371e-06
1.39983e-07
-4.85624e-08
-8.01244e-07
-1.68948e-08
-2.68664e-06
1.09522e-10
-2.58292e-08
-1.78368e-13
-1.67737e-08
-1.71855e-10
-1.69826e-08
-7.0807e-11
-2.12364e-08
1.94537e-10
-5.01466e-08
-2.63943e-08
1.02852e-06
1.4179e-05
-0.000147992
-9.98081e-07
2.24382e-05
-0.000118639
-2.02419e-06
1.98528e-05
-0.000125822
2.00511e-07
1.67101e-05
-0.00016151
4.76862e-06
3.92408e-06
-0.000186027
1.81025e-05
-5.81042e-05
2.1467e-08
7.30698e-08
-2.44742e-05
-1.21938e-07
-4.12707e-07
-2.40252e-05
4.13482e-08
-2.52768e-07
-2.42376e-05
1.50909e-07
-1.73751e-07
-2.48374e-05
5.22676e-07
-3.23248e-07
-2.41448e-05
4.79082e-07
-1.91918e-05
1.10653e-09
-8.39031e-07
1.53463e-09
-9.11766e-07
1.91411e-09
-8.72486e-07
2.05983e-09
-8.06061e-07
2.75813e-09
-7.39787e-07
-8.0909e-07
1.1832e-05
3.74242e-05
-0.00012192
-1.17245e-05
2.76318e-05
-0.000113472
-3.06944e-05
2.93648e-05
-0.000115112
-1.11271e-05
3.52958e-05
-0.000127159
2.06354e-05
2.8977e-05
-0.000126035
-1.05361e-06
-5.29791e-05
-5.321e-07
4.96747e-06
-3.82609e-06
-3.06581e-07
5.06667e-06
-4.54214e-06
3.01017e-07
5.06456e-06
-4.36138e-06
-4.80302e-08
4.50632e-06
-3.93494e-06
-7.24612e-07
3.18524e-06
-4.08775e-06
5.11385e-06
-4.43314e-06
-5.91616e-08
-3.78429e-08
8.69067e-10
-4.91079e-08
8.39023e-08
-4.78567e-08
1.22521e-08
-3.65856e-08
-1.183e-07
-3.54582e-08
-5.76876e-08
-4.97296e-06
4.90052e-06
-5.43413e-06
3.03074e-07
6.69269e-06
-6.56025e-06
3.81856e-06
6.04214e-06
-6.47395e-06
-3.05459e-06
4.92556e-06
-5.4742e-06
-2.39415e-05
4.44015e-06
-5.19238e-06
7.56624e-06
-5.74546e-06
-2.56107e-07
4.50692e-07
2.87227e-07
1.21897e-08
8.21646e-07
2.19837e-07
1.91625e-07
5.2206e-07
2.0579e-07
-1.47632e-07
4.58566e-07
2.88642e-07
-1.02863e-06
4.71702e-07
2.60502e-07
9.3861e-07
1.6724e-07
-8.95337e-09
4.43824e-08
-3.14884e-09
4.31572e-08
2.01033e-09
4.3193e-08
-9.35329e-09
4.63002e-08
-2.05301e-08
4.77318e-08
4.79388e-08
-1.5731e-07
-1.00861e-07
-3.39739e-06
1.62403e-07
-6.71104e-08
-4.35151e-06
2.83476e-07
-5.45349e-08
-4.21853e-06
-1.07117e-07
-1.00527e-07
-3.24369e-06
-1.4772e-06
-8.50505e-08
-2.5207e-06
-7.92718e-08
-4.12409e-06
8.19878e-09
-4.17531e-09
3.0007e-07
6.1084e-09
-1.90544e-09
2.71103e-07
4.02604e-10
1.11769e-10
2.69353e-07
3.11919e-09
-3.99229e-09
3.06512e-07
-6.36639e-09
8.59734e-09
2.80438e-07
-1.06042e-08
2.4262e-07
-2.53403e-10
6.83037e-08
-6.70208e-10
6.35806e-08
-1.4224e-09
6.4253e-08
-1.11698e-09
6.87608e-08
1.27155e-10
6.79286e-08
5.84934e-08
-5.6949e-06
2.39715e-05
-9.27519e-05
8.60563e-06
1.68946e-05
-9.31531e-05
1.90603e-05
1.78089e-05
-9.37001e-05
1.17293e-05
2.50263e-05
-9.43922e-05
-1.37821e-05
2.30924e-05
-9.3148e-05
1.35911e-05
-0.000100577
4.69563e-08
-6.75045e-08
2.02065e-06
7.30685e-09
-5.28981e-08
1.77916e-06
-3.01406e-08
-6.26227e-08
1.71356e-06
1.07723e-08
-7.69795e-08
1.95641e-06
5.28894e-08
-8.23272e-08
1.69493e-06
-5.15268e-08
1.40756e-06
-5.65241e-11
1.51442e-08
2.03019e-10
1.43974e-08
2.49458e-10
1.39617e-08
1.55745e-10
1.47464e-08
-2.76352e-10
1.32611e-08
1.23413e-08
-9.04248e-05
-2.01718e-06
-0.0181335
-3.34899e-06
-1.77855e-06
-0.0181832
6.93826e-05
-1.71298e-06
-0.018178
-2.17661e-06
-1.95237e-06
-0.0181532
-0.000172073
-1.69063e-06
-0.0181904
-1.40802e-06
-0.0181292
5.70922e-10
-1.50589e-08
1.4677e-08
-3.38824e-10
-1.43356e-08
1.30084e-08
-1.28181e-09
-1.39e-08
1.2523e-08
-4.98582e-10
-1.46623e-08
1.44907e-08
1.05105e-09
-1.31735e-08
1.27236e-08
-1.22887e-08
1.0388e-08
7.38171e-12
7.79928e-11
-2.99693e-12
7.21033e-11
-1.18401e-11
7.04782e-11
-5.3251e-12
7.75916e-11
1.05055e-11
7.17415e-11
6.30668e-11
0.000790409
-3.34379e-11
-0.0127858
0.0174884
0.000979669
-2.34144e-11
-0.0126283
0.0180509
0.000601172
-6.2624e-09
-0.012477
0.0185486
-0.000213559
-5.67124e-10
-0.0124255
0.0186043
-0.00107886
-7.13649e-12
-0.0123541
0.0184582
-2.43212e-13
-0.0124881
0.0172405
-4.58028e-15
-3.3492e-11
7.75209e-17
5.8636e-14
-7.39257e-12
-1.60659e-11
5.434e-17
3.94571e-14
-9.5038e-13
-7.31442e-11
5.01507e-17
-6.1957e-09
-5.04858e-15
-4.22794e-12
1.76058e-17
-5.63842e-10
-4.06613e-17
-5.04936e-13
2.10679e-16
-6.63677e-12
-2.19792e-13
1.87129e-17
-2.34798e-14
2.08922e-12
2.09247e-28
-3.55672e-11
2.1137e-12
1.07127e-28
-1.60803e-11
3.57605e-12
8.11868e-29
-7.46108e-11
1.65975e-14
3.25796e-28
-6.82034e-13
1.88331e-14
7.48835e-28
-1.88516e-14
3.64416e-28
-1.17099e-16
-0.000484701
1.23101e-16
-0.00675526
-0.000650313
1.06454e-16
-0.00653871
-0.000385964
1.37784e-16
-0.00638436
-0.000177957
6.006e-17
-0.00653184
-9.52982e-05
8.57057e-16
-0.00668876
5.76487e-17
-0.00655903
6.80744e-18
1.64633e-27
1.42964e-16
1.36282e-17
1.50971e-27
1.18386e-16
5.42109e-18
2.03372e-27
1.70398e-16
4.50347e-17
1.61968e-27
5.12377e-17
-2.54816e-18
2.62149e-27
1.01407e-15
1.12414e-27
5.90777e-17
-7.1309e-29
2.36317e-28
-1.40498e-28
2.64212e-28
-2.98656e-28
3.71776e-28
-1.95098e-28
4.58529e-28
-1.41281e-28
9.59909e-28
3.701e-28
-0.00014531
1.00687e-16
-0.000411415
-0.000116436
8.83677e-17
-0.000369026
2.49588e-05
1.41296e-16
-0.000315503
1.5968e-05
4.67782e-17
-0.000262357
-7.34055e-05
9.97486e-16
-0.000256021
5.91644e-17
-0.000297514
9.22923e-18
1.37659e-27
-4.8779e-16
2.3635e-17
1.32979e-27
-4.06565e-16
8.84564e-18
1.43504e-27
-3.60949e-16
1.45853e-16
1.29047e-27
-3.81491e-16
5.45998e-18
2.30179e-27
-1.98636e-16
8.54934e-28
-2.30954e-16
-9.14666e-29
-5.32082e-28
-1.65253e-28
-4.7869e-28
-2.07837e-28
-4.69112e-28
-1.48107e-28
-3.66844e-28
-1.0839e-28
-5.8917e-28
-2.12838e-28
-6.33221e-05
-1.06919e-13
0.00608195
-0.000157901
-9.08948e-14
0.00610507
-0.000222894
-8.49442e-14
0.00615358
-0.000202682
-9.5475e-14
0.00617075
-7.98916e-05
-5.24264e-14
0.00616646
-6.11307e-14
0.00612325
-2.22794e-17
1.35207e-27
-1.07384e-13
-3.41751e-17
1.53043e-27
-9.12894e-14
-4.23258e-17
1.66757e-27
-8.5297e-14
-1.77302e-17
1.59156e-27
-9.58811e-14
-6.27562e-18
1.81809e-27
-8.36386e-14
1.2036e-27
-6.1368e-14
-3.4438e-29
-1.14288e-27
-8.20873e-29
-1.28504e-27
-1.08653e-28
-1.3821e-27
-8.39217e-29
-1.28608e-27
-4.36443e-29
-1.43413e-27
-9.54569e-28
-4.41313e-05
-5.37406e-11
0.012898
-0.000149258
-4.71558e-11
0.0129638
-0.000226493
-4.54117e-11
0.0129824
-0.000205729
-5.38349e-11
0.0129685
-7.7767e-05
-4.84681e-11
0.0129497
-3.77962e-11
0.0129574
-5.60662e-15
1.68419e-27
-5.38424e-11
-7.37416e-15
1.94331e-27
-4.72453e-11
-1.09448e-14
2.12381e-27
-4.54934e-11
-8.19288e-15
2.0656e-27
-5.39335e-11
-2.45592e-15
2.29845e-27
-4.85575e-11
1.58175e-27
-3.786e-11
-1.61724e-29
-7.23167e-28
-3.97438e-29
-8.44499e-28
-5.71037e-29
-9.05334e-28
-4.46866e-29
-8.41696e-28
-1.4956e-29
-8.99149e-28
-6.35673e-28
-4.55255e-05
-1.46937e-08
5.18933e-06
-1.30256e-08
5.06899e-05
-1.25408e-08
-2.09363e-05
-1.45049e-08
-0.000162842
-1.27377e-08
-1.04074e-08
-8.95186e-13
-7.79556e-11
-5.29473e-13
-7.21026e-11
-8.53806e-13
-7.04878e-11
-3.10916e-13
-7.75811e-11
4.82343e-13
-7.17399e-11
-6.31072e-11
3.71643e-14
3.78681e-14
2.82637e-14
3.87531e-14
4.0321e-14
0.000646049
-6.31793e-05
-9.89184e-06
8.59737e-05
-2.83391e-08
-7.8329e-08
-0.0123603
-0.0148281
-2.79702e-05
-0.0171776
-0.0482336
-0.00202764
0.000878685
-1.37091e-06
0.000501438
-2.68493e-05
-8.89279e-08
4.47609e-11
-4.58142e-09
-6.31739e-05
5.31002e-07
-3.94148e-11
-5.59132e-07
-0.00330048
2.53199e-05
-1.26506e-06
-4.26263e-07
-0.00111111
-5.50953e-07
-3.18588e-07
-7.09698e-08
-1.43849e-06
-3.51768e-07
-2.68229e-05
1.19899e-11
-4.59341e-09
7.91086e-10
-8.18512e-10
-4.35352e-05
-5.90715e-07
-3.08613e-07
-2.46234e-07
-4.16058e-08
-3.37977e-07
-3.93373e-07
-2.86127e-08
-0.000166483
-3.65722e-06
1.56926e-08
-6.03487e-06
4.06833e-08
-0.00399967
-8.20569e-07
-0.000266714
-0.00125877
-1.07493e-05
0.00931193
-1.11407e-05
-0.00017626
0.00424537
-1.66832e-05
-2.59238e-07
2.20584e-05
-4.541e-07
-0.000312537
-3.49384e-09
-1.5407e-08
-3.83721e-07
-1.56874e-07
-1.25818e-07
-1.81522e-06
-4.7045e-06
-3.96297e-07
-6.45229e-06
-2.47375e-05
-1.06912e-05
-0.000147012
-2.40495e-05
-8.10177e-05
1.53973e-09
-4.60253e-07
1.65458e-10
-1.48516e-08
-4.24086e-09
-7.12127e-07
-3.92732e-07
-2.54038e-07
-2.55466e-06
-1.98554e-05
-2.14599e-05
5.43667e-05
-0.000301753
-0.000243044
-0.000314193
-0.000451962
0.0140284
-0.00103046
-0.000200395
0.00975893
-0.00026561
-0.000100358
0.021878