/*--------------------------------*- C++ -*----------------------------------*\
| =========                 |                                                 |
| \\      /  F ield         | OpenFOAM: The Open Source CFD Toolbox           |
|  \\    /   O peration     | Version:  v1612+                                |
|   \\  /    A nd           | Web:      www.OpenFOAM.com                      |
|    \\/     M anipulation  |                                                 |
\*---------------------------------------------------------------------------*/
FoamFile
{
    version     2.0;
    format      ascii;
    class       volScalarField;
    location    "7.95";
    object      alpha.water;
}
// * * * * * * * * * * * * * * * * * * * * * * * * * * * * * * * * * * * * * //

dimensions      [0 0 0 0 0 0 0];

internalField   nonuniform List<scalar> 
1116
(
0.721573
0.721546
0.721559
0.721565
0.721571
0.721581
0.837985
0.837902
0.83774
0.83806
0.838421
0.837527
0.974093
0.974093
0.974093
0.974093
0.974093
0.974094
0.974108
0.974108
0.974108
0.974108
0.974108
0.974108
0.974108
0.974108
0.974108
0.974108
0.974108
0.974108
0.958965
0.958381
0.958519
0.958851
0.958753
0.958654
0.871615
0.87163
0.871973
0.871049
0.869905
0.873062
0.797653
0.79824
0.798707
0.796959
0.79647
0.799557
0.758542
0.757754
0.758181
0.758055
0.75905
0.757465
0.750142
0.748389
0.748567
0.750128
0.751741
0.747411
0.74092
0.737717
0.737684
0.741563
0.743208
0.737182
0.712196
0.711236
0.711184
0.71225
0.712604
0.712293
0.767497
0.767543
0.767589
0.767635
0.767767
0.767635
0.766387
0.766525
0.765592
0.766857
0.767801
0.765727
0.831683
0.83167
0.831263
0.831709
0.832004
0.831848
0.934453
0.933903
0.934182
0.934147
0.934054
0.93463
0.945849
0.94553
0.945762
0.945619
0.945635
0.945899
0.816962
0.819353
0.818817
0.817565
0.817131
0.819027
0.481407
0.485874
0.484785
0.483022
0.480673
0.486326
0.185667
0.186027
0.186049
0.186222
0.184737
0.190907
0.149794
0.147851
0.148718
0.148491
0.151057
0.143018
0.161572
0.159907
0.160176
0.160229
0.161583
0.157991
0.114513
0.111876
0.111975
0.113534
0.114496
0.111939
0.0970512
0.0950098
0.0953771
0.0970922
0.0981092
0.0958895
0.431342
0.43306
0.434899
0.430252
0.429945
0.43553
0.119877
0.120059
0.119638
0.120101
0.12026
0.120114
0.146081
0.144437
0.143732
0.146314
0.147462
0.144217
0.28957
0.285727
0.285018
0.28903
0.290363
0.285848
0.370947
0.370341
0.369931
0.370659
0.370309
0.371075
0.311913
0.311202
0.311405
0.311124
0.311018
0.311881
0.203295
0.199644
0.200199
0.203176
0.20717
0.194422
0.0852329
0.0892139
0.0880814
0.0854986
0.0837058
0.0857402
0.0226478
0.0260614
0.0251822
0.0232212
0.0210753
0.0298145
0.0103602
0.0123475
0.0121677
0.0104382
0.00929711
0.0133276
0.0221308
0.021044
0.0212273
0.0224872
0.0229014
0.0208532
0.0276853
0.0241411
0.024396
0.0283742
0.031139
0.0240625
2.25747e-05
2.10283e-05
2.19247e-05
2.02919e-05
1.70875e-05
1.49438e-05
1.63876e-05
1.47097e-05
1.6326e-05
1.44661e-05
1.04651e-05
9.92482e-06
6.22776e-06
4.69063e-06
6.17854e-06
4.89561e-06
2.73873e-06
3.10578e-06
6.51589e-07
3.37297e-07
6.44215e-07
3.56318e-07
1.76923e-07
2.4073e-07
1.35335e-07
1.16843e-08
1.15029e-07
1.08919e-08
1.91069e-08
1.23979e-08
1.60517e-07
9.95505e-08
1.05179e-07
4.30968e-08
4.50189e-08
1.9636e-08
2.05294e-07
1.4239e-07
1.01802e-07
8.16197e-08
2.48182e-08
2.48182e-08
0.000692745
0.000639493
0.000642295
0.00068209
0.000676089
7.58951e-05
4.04443e-05
4.76318e-05
4.55148e-05
4.08956e-05
3.83164e-05
5.34999e-05
4.04722e-06
5.09541e-06
4.84241e-06
3.92426e-06
3.48679e-06
6.09661e-06
0.000179198
0.000310942
0.000267573
0.000154177
0.000126948
0.000321612
0.00383661
0.0043842
0.00446428
0.00379878
0.00370553
0.00470935
0.0929339
0.092934
0.0929503
0.0925231
0.0928859
0.0929315
0.0929314
0.0929339
0.0929361
0.0929081
0.0929337
0.0929317
0.0930482
0.0929099
0.0873879
0.0929278
0.0929363
0.0929327
0.0673295
0.0447691
0.0169846
0.039671
0.0674811
0.0652362
0.0565392
0.0416457
0.0366425
0.0190398
0.0105566
0.0110442
0.0561011
0.0561634
0.0561335
0.0546852
0.0407707
0.0438049
0.056148
0.0554895
0.0537034
0.054291
0.0534188
0.0526632
0.0561098
0.0554484
0.0434183
0.0342886
0.0403563
0.0476152
0.0539523
0.0554239
0.0433795
0.0163987
0.0178723
0.0528067
0.032145
0.0553524
0.0454815
0.0181834
0.0210208
0.0532841
0.0285341
0.0462965
0.0459573
0.0382436
0.0395407
0.0532908
0.0317892
0.0290356
0.0465066
0.0520835
0.0532908
0.0532908
0.0930585
0.092934
0.092935
0.0929341
0.0929342
0.0929341
0.0929378
0.0852258
0.0914243
0.0929342
0.0929442
0.0929359
0.0929281
0.0411459
0.0278654
0.0363728
0.0759376
0.0929419
0.0342349
0.0173427
0.0131252
0.0242597
0.0256377
0.0329152
0.00487923
0.00547474
0.00513624
0.00587256
0.00510131
0.00593378
5.68718e-05
4.01481e-06
0.000405651
0.00165847
0.00247113
0.00181355
1.98475e-06
1.65587e-06
2.37864e-07
2.25565e-07
3.12585e-06
2.83203e-07
0.000146413
1.63282e-07
2.04934e-07
8.80386e-06
0.000382859
2.83203e-07
0.00176696
6.76016e-05
3.50225e-07
0.0008066
0.000719605
2.83203e-07
0.00907001
0.00172323
1.53025e-06
0.000114093
0.000121024
0.00052005
0.00945456
2.39474e-05
1.15823e-05
1.97637e-05
8.39248e-05
0.00472539
0.00986302
0.00426695
1.89271e-05
0.000112727
0.000398896
0.00429378
0.0931883
0.0930585
0.0929358
0.092935
0.0929442
0.092934
0.0904307
0.0926003
0.0929348
0.0929427
0.0929454
0.0709743
0.08913
0.0770676
0.0702966
0.0554962
0.0820975
0.0399213
0.0427202
0.014586
0.00715426
0.00501377
0.0183074
0.016329
0.000196286
4.35568e-05
1.16668e-05
0.000310469
2.06227e-05
0.000339369
2.02227e-06
2.27138e-06
5.3765e-07
2.25558e-07
7.36583e-07
5.49075e-07
6.08887e-08
1.51565e-07
1.23255e-07
3.83406e-08
5.94078e-08
2.49209e-07
1.55613e-08
8.18381e-08
1.85893e-07
3.86264e-07
4.18859e-07
3.22492e-07
3.95102e-08
1.62705e-07
2.9398e-07
3.97579e-07
2.60818e-06
0.000220435
5.86453e-06
8.47289e-07
6.95751e-07
0.000192384
0.00140093
0.000516683
1.41646e-05
0.00104817
0.00139298
0.00365014
0.00454988
7.32946e-06
0.00413045
0.00641688
0.00565039
0.007578
0.00726341
0.00479078
0.0877219
0.0440095
0.0920463
0.0929238
0.0880355
0.088216
0.0102377
0.0761777
0.0601469
0.0876133
0.0613813
0.000674083
0.000323986
0.0718532
0.0637234
0.0451679
0.0220564
3.58322e-07
0.00364983
0.013996
0.0112117
0.00162096
0.00236007
1.46596e-06
0.000727451
2.56288e-05
1.34914e-05
2.55211e-06
2.99083e-06
1.64785e-06
1.8131e-07
8.57225e-07
2.64832e-07
3.12887e-08
4.53085e-08
4.22293e-06
7.95826e-09
4.99807e-08
1.52744e-08
1.36607e-09
1.15799e-08
5.15461e-08
8.09962e-09
8.7613e-07
1.2105e-06
3.10451e-09
2.71344e-06
1.79016e-05
1.39403e-08
7.58408e-07
1.91172e-06
4.07231e-08
2.03954e-06
0.000121847
4.05923e-07
4.89993e-07
1.32476e-06
9.77361e-07
1.19652e-06
0.000132161
1.11631e-05
1.92878e-06
1.74718e-06
0.00230162
0.0034166
3.66473e-06
0.00939616
0.00924585
0.00865368
0.00953461
0.00953461
0.00950014
9.38345e-05
8.36745e-05
8.0888e-05
0.00010207
0.000142122
9.76521e-05
0.000373804
0.00015425
9.92539e-05
0.000366617
0.00045572
0.000188595
0.000429005
0.000429005
0.000390888
0.000452949
0.00045572
0.000390452
0.000317071
0.000165995
0.000158515
0.000291604
0.000367467
0.000150321
0.00045077
0.00045077
0.000426373
0.000437804
0.00045564
0.000446509
0.000340339
0.000283212
0.000299277
0.000275179
0.000241948
0.000425561
0.000425351
0.000425351
0.000423064
0.000408438
0.000376033
0.000325566
0.000188084
0.000141231
0.000147422
7.70724e-05
2.24167e-05
0.000197894
8.22435e-27
1.76392e-26
1.41455e-26
1.07997e-26
1.71457e-26
8.28552e-05
0.000265511
0.000194889
0.000247294
0.000186772
9.28518e-05
0.000130013
2.87908e-13
4.00839e-13
3.50731e-13
2.38741e-13
2.74488e-13
4.70875e-13
1.25608e-18
1.10141e-18
1.2919e-18
6.78045e-19
1.46371e-19
1.13985e-23
4.88229e-08
4.08144e-09
2.99207e-09
3.78772e-09
1.08919e-08
5.2118e-09
2.96351e-11
3.983e-11
3.47473e-11
2.34326e-11
1.31528e-08
4.08374e-11
-4.71883e-14
-5.91663e-17
-1.20879e-12
-9.58841e-14
-2.37267e-14
8.93387e-19
1.41379e-07
1.48561e-07
1.86292e-07
1.47039e-07
2.04483e-07
1.51597e-07
8.55792e-08
1.40885e-07
9.44036e-08
1.54966e-07
5.9875e-07
2.00713e-07
4.58909e-10
2.89046e-10
3.92191e-10
2.62204e-10
-3.30096e-13
4.65318e-10
3.88835e-06
1.0564e-05
8.67007e-06
4.85485e-06
2.5345e-06
9.52879e-06
1.6513e-06
3.94434e-06
3.18206e-06
1.78395e-06
1.10697e-06
4.33304e-06
4.43104e-08
2.85049e-08
3.6917e-08
2.90267e-08
2.27539e-08
5.7013e-08
4.25004e-06
7.20911e-06
6.39958e-06
4.78887e-06
7.33543e-06
8.71974e-06
1.15394e-06
1.13407e-06
1.17915e-06
1.09101e-06
8.49703e-07
1.61766e-06
1.00836e-07
1.24993e-07
1.16865e-07
8.96428e-08
7.53274e-08
1.40642e-07
2.48309e-06
3.0271e-06
2.8738e-06
2.49899e-06
2.38354e-06
3.4815e-06
2.82454e-07
3.0944e-07
3.02814e-07
2.83976e-07
2.80293e-07
3.33318e-07
1.92203e-07
1.98833e-07
1.93714e-07
1.92908e-07
1.9348e-07
2.01144e-07
2.91729e-07
3.17247e-07
3.10051e-07
2.8999e-07
2.79883e-07
3.46163e-07
1.96753e-07
1.98833e-07
1.99166e-07
1.97648e-07
1.98759e-07
2.01382e-07
1.93919e-07
1.9561e-07
1.96136e-07
1.94789e-07
1.96225e-07
1.9741e-07
1.19575e-06
1.09928e-06
1.06107e-06
1.15735e-06
1.01093e-06
9.52633e-07
1.40989e-06
1.03571e-06
1.05311e-06
1.42413e-06
1.22278e-06
7.59397e-07
4.93882e-08
4.99201e-08
4.98041e-08
4.91677e-08
4.93013e-08
5.0478e-08
0.00677543
0.00709701
0.00700791
0.0066521
0.00633798
0.00695818
2.14057e-10
1.89706e-10
1.82625e-10
2.11295e-10
1.85508e-10
1.51489e-10
-9.69075e-16
-3.39927e-16
-5.09562e-16
-1.44399e-15
-1.88756e-15
7.77788e-18
0.0351247
0.0345704
0.0341794
0.0340772
0.0339285
0.0342423
-5.16145e-21
-9.42662e-21
-1.22917e-19
6.7622e-25
8.69186e-27
2.99893e-28
-3.4656e-15
-1.45602e-15
1.00208e-17
1.1562e-17
5.16955e-13
2.59771e-13
0.0371663
0.0371043
0.0368462
0.0365854
0.0365252
0.0367962
-2.90289e-16
-2.29706e-16
-2.83249e-16
-1.25372e-16
-1.79539e-15
-1.24936e-16
-3.84488e-27
-3.30397e-27
-4.39517e-27
-3.59008e-27
-5.88058e-27
-2.54456e-27
0.0376755
0.0376586
0.0376288
0.0376076
0.0376074
0.0376232
-6.12834e-16
-5.27146e-16
-8.2858e-16
-2.74759e-16
-5.78083e-15
-3.51652e-16
-6.06102e-27
-5.75054e-27
-6.23778e-27
-5.61711e-27
-9.98008e-27
-3.79786e-27
0.036937
0.0369705
0.0370026
0.036984
0.0369696
0.0370294
4.5918e-28
3.93547e-28
3.67041e-28
4.08441e-28
2.21007e-28
2.5963e-28
-5.02757e-27
-5.68423e-27
-6.22191e-27
-5.90522e-27
-6.69109e-27
-4.48059e-27
0.03659
0.0366032
0.0366452
0.0366138
0.0365974
0.0366251
9.27993e-26
8.18133e-26
7.83237e-26
9.16361e-26
8.11671e-26
6.42357e-26
-4.01162e-27
-4.63824e-27
-5.07245e-27
-4.89096e-27
-5.38673e-27
-3.75883e-27
0.0339338
0.033977
0.0339677
0.0338913
0.0338193
0.033889
7.94618e-13
6.97306e-13
6.71483e-13
7.95859e-13
7.16369e-13
5.58751e-13
7.59311e-18
7.86413e-18
7.95717e-18
7.6118e-18
8.19587e-18
8.52909e-18
0.0108975
4.89911e-09
0.0263671
0.0510793
0.00790827
0.00538226
4.21227e-11
7.76868e-12
0.00185405
0.00680533
9.51298e-09
1.98418e-08
-1.06933e-19
1.10471e-18
7.76865e-12
2.56283e-06
9.51046e-18
8.16585e-18
2.36355e-07
1.44315e-07
3.33216e-08
0.00765346
0.00567739
3.58504e-07
5.89829e-05
6.05631e-07
1.08494e-08
1.58214e-08
2.93548e-08
2.04065e-05
-8.58837e-13
-1.03189e-14
1.32089e-17
-2.64631e-13
1.61105e-06
6.6531e-06
0.000101948
0.00911772
0.0043854
0.0108703
0.00130876
2.29035e-07
0.000269838
8.09734e-08
3.33216e-08
1.17379e-07
0.000119122
6.75196e-05
4.09291e-07
-7.28369e-12
1.21847e-06
7.61073e-08
1.82883e-05
2.55599e-05
0.000470691
0.00698059
0.00544458
0.00215651
1.46561e-06
5.05508e-08
1.09387e-05
0.000675495
0.000877852
0.00033626
5.05497e-08
1.2106e-09
2.23589e-08
8.09505e-08
7.54944e-07
6.08781e-08
8.0022e-10
5.2618e-10
3.71864e-05
0.000196004
0.000415023
5.05543e-07
4.60778e-07
1.59193e-08
5.55267e-09
1.60045e-05
5.18172e-05
3.58527e-06
9.80988e-10
5.2618e-10
4.34955e-10
2.6838e-08
5.47059e-09
1.82497e-07
1.91377e-10
1.19301e-10
7.25274e-08
4.74043e-08
1.31555e-08
1.15228e-09
9.45926e-10
1.85273e-07
4.28596e-10
2.29714e-09
1.24683e-09
4.48271e-10
2.69047e-11
9.65739e-11
2.96093e-10
4.65565e-10
3.34015e-10
4.78397e-11
1.83577e-11
2.28889e-11
5.05254e-09
7.69476e-08
8.09962e-10
9.35419e-10
5.99086e-11
1.21584e-08
8.24598e-10
1.31562e-09
3.22829e-10
3.46029e-11
1.83498e-11
1.74053e-10
2.96092e-10
2.94429e-10
2.46573e-10
1.93973e-10
1.83577e-11
1.83577e-11
1.76854e-09
2.02391e-07
7.50834e-07
1.36607e-09
9.20607e-08
7.17008e-07
1.01955e-09
1.8818e-09
1.38451e-09
5.47491e-08
2.32611e-10
1.69897e-10
6.29691e-10
1.50165e-08
2.07871e-08
9.99317e-09
8.48067e-11
1.00024e-10
2.91846e-09
1.47897e-07
1.92249e-06
3.54146e-09
1.99422e-09
1.51838e-09
1.76854e-09
6.91181e-09
9.7281e-07
3.26171e-07
7.93015e-11
1.35869e-09
7.62555e-08
3.1171e-07
1.44158e-07
3.31201e-08
1.33215e-10
6.31537e-09
5.96493e-08
1.44256e-07
1.55546e-06
4.07211e-08
3.34342e-09
5.72119e-11
1.16585e-05
9.97697e-06
4.8691e-06
1.39684e-07
-7.36287e-13
4.60579e-12
5.53854e-07
1.0794e-06
3.73558e-07
6.13975e-11
-5.70856e-14
9.94521e-12
2.37284e-06
5.85547e-07
9.36759e-07
1.21037e-07
1.05345e-09
-1.01249e-09
4.07777e-05
2.97317e-05
2.06058e-05
3.15905e-09
-1.73067e-12
2.34978e-14
1.48746e-07
6.8571e-08
8.18917e-08
-5.17442e-11
-4.65997e-15
-1.87292e-16
0.00907905
0.00698653
0.00680998
0.00773522
0.00736902
0.00872318
3.64383e-13
2.79328e-13
9.0772e-11
8.24107e-12
6.38544e-14
4.09166e-16
-1.70443e-14
-3.13269e-14
-5.27062e-14
-5.31578e-17
1.97397e-18
2.29513e-18
)
;

boundaryField
{
    seabed_topleft_surface
    {
        type            zeroGradient;
    }
    seabed_topright_surface
    {
        type            zeroGradient;
    }
    breakwater_top_surface
    {
        type            zeroGradient;
    }
    breakwater_left_surface
    {
        type            zeroGradient;
    }
    breakwater_right_surface
    {
        type            zeroGradient;
    }
    water_front_surface
    {
        type            zeroGradient;
    }
    water_back_surface
    {
        type            zeroGradient;
    }
    water_left_surface
    {
        type            zeroGradient;
    }
    water_right_surface
    {
        type            zeroGradient;
    }
    water_top_surface
    {
        type            inletOutlet;
        inletValue      uniform 0;
        value           nonuniform List<scalar> 
180
(
0.000429005
0.000429005
0.000390888
0.000452949
0.00045572
0.000390452
0
0
0
0
0
0.000425561
0
0
0
0
0
0
0
0
0
0
0
0
0
0
0
0
0
0
0
0
0
0
0
0
4.43104e-08
2.85049e-08
3.6917e-08
2.90267e-08
2.27539e-08
5.7013e-08
1.00836e-07
1.24993e-07
1.16865e-07
8.96428e-08
7.53274e-08
1.40642e-07
1.92203e-07
1.98833e-07
1.93714e-07
1.92908e-07
1.9348e-07
2.01144e-07
1.93919e-07
1.9561e-07
1.96136e-07
1.94789e-07
1.96225e-07
1.9741e-07
0
0
0
0
0
0
0
0
0
0
0
0
0
0
0
0
0
0
0
0
0
0
0
0
0
0
0
0
0
0
0
0
0
0
0
0
0
0
0
0
0
0
0
0
0
0
0
0
0
0
7.76865e-12
2.56283e-06
0
0
0
0
0
0
0
0
0
0
0
0
0
0
2.23589e-08
8.09505e-08
7.54944e-07
6.08781e-08
8.0022e-10
5.2618e-10
4.34955e-10
2.6838e-08
5.47059e-09
1.82497e-07
1.91377e-10
1.19301e-10
2.96093e-10
4.65565e-10
3.34015e-10
4.78397e-11
1.83577e-11
2.28889e-11
2.96092e-10
2.94429e-10
2.46573e-10
1.93973e-10
1.83577e-11
1.83577e-11
6.29691e-10
1.50165e-08
2.07871e-08
9.99317e-09
8.48067e-11
1.00024e-10
7.62555e-08
3.1171e-07
1.44158e-07
3.31201e-08
1.33215e-10
6.31537e-09
0
1.0794e-06
3.73558e-07
0
0
0
0
0
0
0
0
0
0
0
0
0
0
0
)
;
    }
}


// ************************************************************************* //
