/*--------------------------------*- C++ -*----------------------------------*\
| =========                 |                                                 |
| \\      /  F ield         | OpenFOAM: The Open Source CFD Toolbox           |
|  \\    /   O peration     | Version:  v1612+                                |
|   \\  /    A nd           | Web:      www.OpenFOAM.com                      |
|    \\/     M anipulation  |                                                 |
\*---------------------------------------------------------------------------*/
FoamFile
{
    version     2.0;
    format      ascii;
    class       volScalarField;
    location    "7.95";
    object      p;
}
// * * * * * * * * * * * * * * * * * * * * * * * * * * * * * * * * * * * * * //

dimensions      [1 -1 -2 0 0 0 0];

internalField   nonuniform List<scalar> 
1116
(
16655.1
16648.9
16652.9
16654
16658.8
16655.3
16456.6
16451.5
16453.2
16458.6
16472.3
16452
16349.4
16344
16345.3
16349.3
16357.1
16343.8
16456.7
16454.1
16454.1
16456.4
16459.4
16453
15963.8
15963.4
15963
15963.8
15964.1
15963.2
14306.6
14305.7
14305.5
14305.5
14305.2
14306.5
11625.4
11622.6
11623.2
11624.5
11624.2
11622.5
8258.97
8261.17
8260.95
8256.86
8255.64
8262.49
6165.84
6163.71
6163.64
6161.23
6161.34
6151.55
5400.72
5398.3
5398.54
5396.43
5400.07
5388.05
4943.77
4931.17
4931.31
4943.24
4945.21
4930.3
4757.69
4751.99
4754.04
4762.38
4768.56
4762.83
8845.84
8834.76
8835.75
8849.66
8855.67
8841.95
7245.52
7255.67
7250.3
7251.08
7274.08
7251.12
7147.44
7139.9
7138.99
7144.36
7160.28
7131.32
7648.69
7636.77
7638.49
7643.69
7652.71
7626.31
7101.04
7100.22
7100.93
7099.33
7100.85
7097.74
5193.85
5191.33
5194.13
5189.69
5188.88
5194.29
3217.51
3212.81
3214.67
3216.3
3217.96
3214
1869.74
1870.39
1868.21
1867.38
1864.14
1859.44
1064.16
1079.68
1074.04
1065.22
1050.45
1092.25
967.685
970.776
969.418
967.683
963.167
965.263
997.009
991.731
990.873
1000.57
1000.57
992.041
1131.79
1122.73
1127.12
1137.7
1148.4
1127.56
2113.92
2121.58
2126.72
2111.81
2113.3
2130.04
596.547
604.269
601.32
597.251
594.324
604.463
719.122
719.354
716.572
721.43
726.977
717.137
1395.95
1382.03
1382.02
1394.58
1398.02
1376.39
1747.48
1749.67
1749.07
1746.39
1743.79
1748.23
1417.12
1410.4
1411.94
1412.63
1413.8
1412.99
920.391
906.138
910.329
919.115
940.6
881.685
620.039
641.775
635.31
616.42
606.228
561.438
233.858
238.808
236.194
240.179
227.954
236.884
104.24
113.483
112.227
106.078
103.019
119.449
171.169
170.817
171.123
172.132
173.819
172.834
121.669
119.234
120.996
123.158
127.557
123.687
-13.1818
-13.1562
-13.5495
-13.0201
-12.4274
-13.3569
-22.0393
-21.6792
-22.3049
-23.5741
-24.6055
-23.8063
-50.6722
-50.5111
-49.8346
-50.7618
-51.6389
-52.5138
-93.852
-92.9381
-92.4662
-94.1916
-94.5209
-92.7783
-118.818
-118.066
-118.25
-118.847
-118.899
-116.078
-111.106
-111.814
-112.025
-110.508
-110.721
-110.163
-60.4793
-62.318
-62.3317
-58.9163
-58.7466
-62.3179
17.7761
17.5073
17.8007
17.264
17.5002
13.3738
31.4669
31.6807
31.5383
32.2213
30.9146
31.3765
8.44649
9.45792
9.52908
9.08876
9.76065
11.9654
14.0509
14.1452
13.9939
13.9093
13.704
14.1552
-47.0145
-46.1808
-46.726
-47.6824
-49.5027
-46.9017
2599.98
2531.87
2547.64
2503.34
2490.79
2522.06
2460.61
2425.24
2400.74
2346.8
2304.31
2364.67
2066.34
1972.58
1887.44
1867.2
1938.15
1954.37
1352.12
1218.59
1178.68
1189.98
1157.65
1237.29
657.597
618.103
661.878
634.703
596.541
610.166
334.977
319.01
344.118
394.707
420.004
411.768
317.004
312.019
307.273
313.498
319.745
298.758
315.48
304.827
244.644
219.738
246.161
245.204
301.812
270.729
218.981
188.627
184.943
243.044
280.195
262.992
212.772
161.007
197.033
255.991
350.779
343.883
272.655
342.199
414.943
363.028
379.272
392.863
376.755
384.811
399.608
381.096
1704.97
1593.13
1648.37
1627.77
1546.15
1608.56
1497.87
1338.97
1401
1290.1
1176.24
1327.17
1003.17
955.626
961.974
883.077
909.863
899.053
428.908
438.702
461.527
451.642
483.107
464.901
17.7856
-4.4983
-1.27289
37.3301
81.8146
89.0935
-28.9232
-33.1011
-33.0856
-32.2843
-30.9144
-25.5488
2.04706
1.31711
3.13068
1.24058
-2.3466
-7.55463
20.9887
14.4437
7.24574
7.68278
7.4359
3.46604
19.5788
11.0113
0.725993
2.38534
1.48675
6.19701
20.0974
14.4691
15.7079
16.3738
18.0525
22.559
34.7548
52.1821
50.8932
60.9169
56.3383
29.4497
39.3306
62.1409
64.0284
69.5641
56.2978
37.5734
997.569
896.099
1002.7
1024.08
960.941
969.415
656.864
728.386
819.3
748.262
525.116
407.208
416.405
468.276
545.238
331.043
247.195
158.638
67.8422
85.0758
137.342
102.954
88.2536
51.9701
3.28485
0.777115
0.364195
-1.07284
1.44634
2.74444
-6.26614
-6.14111
-8.04488
-12.0123
-15.0273
-12.5233
1.32527
2.07524
1.29817
-0.591277
-1.00873
-3.26892
-2.69394
-4.04095
-6.60873
-5.67256
-4.52706
-5.64102
-17.8594
-18.2103
-24.0255
-19.8242
-16.4918
-13.7243
-27.8919
-24.7518
-24.338
-15.421
-19.0671
-18.0306
-23.3685
-22.3791
-17.2567
-20.0128
-26.8259
-24.3179
-50.3097
-61.8213
-48.9116
-29.3511
-40.0753
-38.7079
290.169
209.973
299.617
456.104
387.576
380.491
48.837
277.868
224.785
265.752
50.0352
-18.1573
-25.7144
7.38833
114.734
27.2645
-25.0019
-39.6452
-74.4479
-65.1546
-9.84754
-17.0029
-40.6905
-39.2961
-31.1857
-28.3587
-21.2477
-19.2533
-17.0792
-18.9416
-22.6342
-20.5481
-20.7758
-22.6198
-20.144
-21.6681
-22.2844
-20.1804
-20.5717
-21.7392
-21.852
-22.5852
-26.9811
-27.9728
-29.3346
-27.4341
-25.7828
-23.9378
-35.1169
-37.6405
-40.1175
-34.7356
-35.1212
-29.2762
-38.5657
-40.9949
-47.5687
-42.1109
-43.2121
-42.0855
-24.4184
-28.1607
-32.5106
-40.493
-33.1129
-27.429
-53.4815
-59.6875
-64.8206
-89.6292
-102.637
-57.5382
-8.7311
-9.66738
-10.5991
-8.56745
-6.63243
-9.72457
-33.049
-31.2177
-33.0407
-32.9963
-33.7566
-32.891
-63.5147
-61.4532
-62.2234
-64.1087
-65.1718
-62.6213
-25.0748
-24.5168
-25.1253
-26.7894
-28.3908
-25.9887
-55.0308
-52.9614
-54.6836
-56.4871
-58.4593
-56.2365
-81.5774
-80.7499
-80.683
-81.3724
-83.9641
-86.0087
-48.7068
-47.5566
-47.0419
-48.8952
-49.9427
-47.5528
-69.9856
-69.4472
-69.5127
-70.2512
-70.6316
-68.9444
-87.865
-88.4206
-88.8279
-88.0919
-88.4904
-89.1001
-71.0471
-70.4921
-70.3672
-70.6559
-70.6154
-70.1901
-74.1993
-74.1673
-74.1831
-73.8671
-73.4424
-73.9402
-80.5049
-80.8664
-80.8948
-80.6638
-80.5422
-81.2767
-91.2714
-90.8814
-91.0261
-91.3478
-91.7575
-90.9897
-76.9488
-76.867
-76.8441
-76.914
-76.8144
-76.7191
-73.9774
-74.2986
-74.2425
-73.8158
-73.46
-74.0607
-119.581
-119.504
-119.96
-120.873
-121.835
-119.969
-78.2618
-78.3254
-78.2834
-78.2206
-77.6204
-78.1586
-67.5803
-67.7068
-67.7181
-67.5483
-67.3343
-67.8278
-116.183
-118.019
-117.948
-117.032
-116.21
-119.125
-73.5497
-73.5835
-73.366
-73.6866
-73.5634
-74.0479
-61.6869
-61.5853
-61.5643
-61.6852
-61.7622
-61.9559
-59.7973
-60.8847
-60.5565
-59.5544
-59.2467
-59.5208
-57.5841
-57.6843
-57.5763
-57.3289
-57.4603
-57.6847
-61.2365
-61.256
-61.2402
-61.133
-61.2008
-61.3587
-16.7386
-15.8525
-16.2146
-16.7511
-17.0826
-14.6781
-44.0542
-43.7299
-43.8494
-43.8643
-43.8578
-43.2063
-60.8366
-60.8562
-60.8581
-60.7654
-60.7188
-60.8355
-21.6048
-21.0933
-21.206
-21.3638
-21.3287
-19.9103
-48.6047
-48.8374
-48.8361
-48.3984
-48.3894
-48.6409
-59.6873
-59.7634
-59.7642
-59.7178
-59.7141
-59.8607
-26.4817
-26.3521
-26.3558
-26.4126
-26.5287
-26.2019
-50.2747
-50.363
-50.2139
-50.0236
-49.7441
-50.0201
-58.9788
-58.9782
-59.0876
-59.1554
-59.2668
-59.2163
-27.6041
-27.1266
-27.2653
-27.6232
-28.1792
-26.8797
-50.7749
-50.7675
-50.6986
-50.6214
-50.4969
-50.5283
-66.2311
-66.275
-66.2675
-66.2293
-66.1947
-66.2677
111.336
107.647
106.043
106.743
106.032
107.273
-47.6527
-47.6967
-47.5438
-47.0845
-46.8809
-46.8407
-69.0774
-69.2281
-69.3833
-69.4651
-69.5191
-69.5263
130.818
130.252
129.593
128.583
127.949
129.107
-49.1149
-49.0058
-48.816
-48.6666
-48.5778
-48.5919
-67.7005
-67.6743
-67.704
-67.966
-68.1633
-68.2429
136.524
136.363
136.071
135.963
135.983
136.06
-48.3889
-48.3708
-48.3201
-48.2348
-48.1755
-48.1421
-68.2475
-68.2616
-68.298
-68.3454
-68.3828
-68.3931
133.857
133.954
134.005
133.895
133.825
134.03
-48.3948
-48.3689
-48.3311
-48.2953
-48.2679
-48.2535
-68.3953
-68.4016
-68.4223
-68.4482
-68.4727
-68.4858
130.916
131.005
131.103
130.889
130.757
130.926
-47.0185
-46.9992
-46.9683
-46.9233
-46.8825
-46.8681
-68.4268
-68.4344
-68.446
-68.4561
-68.467
-68.4716
107.879
108.364
108.134
107.486
106.701
107.7
-46.1064
-46.0554
-46.0429
-46.0464
-46.0394
-45.9738
-69.3708
-69.3789
-69.3895
-69.3952
-69.4039
-69.4107
-18.4106
-31.7658
-18.6202
14.6099
-5.01133
-22.1229
-56.6818
-54.6423
-55.9958
-52.1096
-53.7516
-53.5939
-67.6013
-67.392
-63.3935
-63.3501
-66.531
-65.4891
-57.3343
-56.5216
-62.2676
-55.4883
-66.9189
-64.9016
-66.5913
-69.1281
-69.5033
-73.4966
-72.0056
-67.8711
-71.1715
-72.878
-73.2524
-72.7524
-68.7113
-66.412
-67.1213
-72.8059
-87.1436
-73.889
-77.5155
-65.8441
-74.2641
-81.6392
-84.374
-86.6834
-82.9796
-74.7502
-68.236
-71.2938
-70.7477
-69.8309
-66.725
-65.043
-83.0897
-94.6785
-90.6053
-67.7137
-66.7142
-62.0411
-73.1898
-79.024
-79.8423
-75.5639
-69.8147
-65.0537
-66.879
-67.1039
-67.332
-66.7131
-65.2638
-65.073
-45.5012
-43.007
-37.6283
-34.7202
-35.8873
-36.0277
-54.3263
-54.2133
-52.057
-50.0414
-52.0508
-51.8338
-64
-64.2771
-64.0736
-63.5187
-63.5478
-63.4716
-30.507
-27.6549
-26.9054
-29.2863
-31.0485
-31.8118
-49.3551
-48.5749
-48.1233
-48.687
-49.437
-49.2956
-63.6552
-63.7842
-63.6919
-63.3531
-63.1684
-63.1681
-30.3957
-29.487
-29.1395
-31.4354
-31.6565
-31.4944
-49.6773
-49.6528
-49.3775
-49.8423
-49.966
-49.6732
-63.6965
-64.0686
-63.822
-63.56
-63.1035
-62.9343
-35.4966
-35.8682
-37.3936
-37.2926
-36.5464
-36.5041
-51.0642
-51.2853
-51.4322
-51.7681
-50.9919
-51.9074
-63.2999
-63.4269
-63.2506
-63.234
-62.8771
-62.7039
-42.4947
-43.2728
-45.8297
-43.6641
-42.4303
-41.8508
-52.6691
-52.7242
-52.9063
-53.4181
-53.4557
-54.7957
-62.7487
-62.5551
-61.9953
-62.1549
-62.0614
-61.7698
-41.7261
-41.4367
-44.6983
-46.7359
-44.7636
-43.563
-51.8024
-51.1839
-50.7818
-52.7583
-53.5493
-53.9269
-62.0342
-61.8246
-60.8388
-61.0514
-61.4335
-61.4392
-30.9963
-30.0336
-30.2926
-37.5111
-39.0168
-36.3343
-55.282
-55.1494
-53.7162
-54.1349
-54.3486
-54.1541
-61.2856
-61.217
-60.9339
-60.9999
-61.1714
-61.1092
-13.9793
-14.5346
-12.9445
-24.6584
-29.1834
-26.2438
-54.0985
-53.8038
-53.4618
-52.8895
-52.1632
-52.2551
-67.3174
-66.8591
-66.5991
-67.0515
-67.2647
-67.3957
)
;

boundaryField
{
    seabed_topleft_surface
    {
        type            calculated;
        value           nonuniform List<scalar> 
72
(
20207.9
20201.7
20205.7
20206.8
20211.7
20208.2
20581.9
20576.3
20577.3
20584.2
20599.7
20575
21143.9
21138.5
21139.8
21143.8
21151.5
21138.3
21251.2
21248.7
21248.7
21251
21254
21247.5
20758.4
20758
20757.5
20758.3
20758.6
20757.7
19026.7
19022.9
19023.4
19025
19024.2
19025.1
15916
15913.3
15915.6
15912.3
15906.4
15920.2
12185.9
12191
12193.1
12180.4
12176.7
12198.8
9900.46
9894.46
9896.48
9893.46
9898.46
9880.88
9094.04
9083
9084.12
9089.69
9101.25
9067.94
8591.75
8563.4
8563.37
8594.38
8604.44
8559.89
8264.43
8254.01
8255.8
8269.39
8277.31
8270.05
)
;
    }
    seabed_topright_surface
    {
        type            calculated;
        value           nonuniform List<scalar> 
72
(
3061.86
2993.74
3009.59
2963.19
2952.42
2983.92
2922.47
2887.11
2862.62
2808.54
2766.18
2826.53
2528.78
2434.34
2322.04
2329.04
2400.04
2416.24
1688.1
1443.63
1267.12
1389.96
1494.38
1562.98
940.518
827.794
846.968
733.242
653.369
669.392
615.744
600.083
625.044
668.513
625.392
632.075
598.002
589.779
576.251
585.365
587.323
562.622
596.29
582.385
463.051
393.254
449.512
484.247
572.014
548.167
437.197
274.18
277.741
507.613
443.171
540.078
441.323
255.335
305.313
522.907
496.002
576.442
503.546
535.161
614.284
629.977
540.499
540.551
610.347
645.824
666.557
648.045
)
;
    }
    breakwater_top_surface
    {
        type            calculated;
        value           nonuniform List<scalar> 
36
(
288.355
281.95
278.431
278.63
277.19
279.968
317.842
316.972
315.048
312.76
311.832
314.317
326.042
325.798
325.361
325.149
325.167
325.322
319.757
320.018
320.227
320.025
319.885
320.383
315.116
315.269
315.573
315.205
314.993
315.297
279.063
279.76
279.484
278.462
277.324
278.664
)
;
    }
    breakwater_left_surface
    {
        type            calculated;
        value           nonuniform List<scalar> 
24
(
4769.7
4763.98
4766.03
4774.39
4780.58
4774.84
1133.41
1124.32
1128.71
1139.32
1150.04
1129.15
122.133
119.64
121.407
123.633
128.077
124.093
-46.9378
-46.0954
-46.6393
-47.6063
-49.428
-46.8112
)
;
    }
    breakwater_right_surface
    {
        type            calculated;
        value           nonuniform List<scalar> 
24
(
379.824
393.369
377.555
385.705
400.522
382.01
39.5099
62.2278
64.0452
69.5824
56.3209
37.6608
-50.2267
-61.7013
-48.804
-29.2124
-39.9416
-38.6143
-53.3166
-59.525
-64.6675
-89.4621
-102.47
-57.3717
)
;
    }
    water_front_surface
    {
        type            calculated;
        value           nonuniform List<scalar> 
186
(
16655.1
16456.6
16349.4
16456.7
15963.8
14306.6
11625.4
8258.97
6165.84
5400.72
4943.77
4757.69
8845.84
7245.52
7147.44
7648.69
7101.04
5193.85
3217.51
1869.74
1064.16
967.685
997.009
1131.79
2113.92
596.547
719.122
1395.95
1747.48
1417.12
920.391
620.039
233.858
104.24
171.169
121.669
-13.1818
-22.0393
-50.6722
-93.852
-118.818
-111.106
-60.4793
17.7761
31.4669
8.44649
14.0509
-47.0145
2599.98
2460.61
2066.34
1352.12
657.597
334.977
317.004
315.48
301.812
280.195
350.779
379.272
1704.97
1497.87
1003.17
428.908
17.7856
-28.9232
2.04706
20.9887
19.5788
20.0974
34.7548
39.3306
997.569
656.864
416.405
67.8422
3.28485
-6.26614
1.32527
-2.69394
-17.8594
-27.8919
-23.3685
-50.3097
290.169
48.837
-25.7144
-74.4479
-31.1857
-22.6342
-22.2844
-26.9811
-35.1169
-38.5657
-24.4184
-53.4815
-8.7311
-33.049
-63.5147
-25.0748
-55.0308
-81.5774
-48.7068
-69.9856
-87.865
-71.0471
-74.1993
-80.5049
-91.2714
-76.9488
-73.9774
-119.581
-78.2618
-67.5803
-116.183
-73.5497
-61.6869
-59.7973
-57.5841
-61.2365
-16.7386
-44.0542
-60.8366
-21.6048
-48.6047
-59.6873
-26.4817
-50.2747
-58.9788
-27.6041
-50.7749
-66.2311
111.336
-47.6527
-69.0774
130.818
-49.1149
-67.7005
136.524
-48.3889
-68.2475
133.857
-48.3948
-68.3953
130.916
-47.0185
-68.4268
107.879
-46.1064
-69.3708
-18.4106
-56.6818
-67.6013
-57.3343
-66.5913
-71.1715
-67.1213
-74.2641
-68.236
-83.0897
-73.1898
-66.879
-45.5012
-54.3263
-64
-30.507
-49.3551
-63.6552
-30.3957
-49.6773
-63.6965
-35.4966
-51.0642
-63.2999
-42.4947
-52.6691
-62.7487
-41.7261
-51.8024
-62.0342
-30.9963
-55.282
-61.2856
-13.9793
-54.0985
-67.3174
)
;
    }
    water_back_surface
    {
        type            calculated;
        value           nonuniform List<scalar> 
186
(
16655.3
16452
16343.8
16453
15963.2
14306.5
11622.5
8262.49
6151.55
5388.05
4930.3
4762.83
8841.95
7251.12
7131.32
7626.31
7097.74
5194.29
3214
1859.44
1092.25
965.263
992.041
1127.56
2130.04
604.463
717.137
1376.39
1748.23
1412.99
881.685
561.438
236.884
119.449
172.834
123.687
-13.3569
-23.8063
-52.5138
-92.7783
-116.078
-110.163
-62.3179
13.3738
31.3765
11.9654
14.1552
-46.9017
2522.06
2364.67
1954.37
1237.29
610.166
411.768
298.758
245.204
243.044
255.991
363.028
381.096
1608.56
1327.17
899.053
464.901
89.0935
-25.5488
-7.55463
3.46604
6.19701
22.559
29.4497
37.5734
969.415
407.208
158.638
51.9701
2.74444
-12.5233
-3.26892
-5.64102
-13.7243
-18.0306
-24.3179
-38.7079
380.491
-18.1573
-39.6452
-39.2961
-18.9416
-21.6681
-22.5852
-23.9378
-29.2762
-42.0855
-27.429
-57.5382
-9.72457
-32.891
-62.6213
-25.9887
-56.2365
-86.0087
-47.5528
-68.9444
-89.1001
-70.1901
-73.9402
-81.2767
-90.9897
-76.7191
-74.0607
-119.969
-78.1586
-67.8278
-119.125
-74.0479
-61.9559
-59.5208
-57.6847
-61.3587
-14.6781
-43.2063
-60.8355
-19.9103
-48.6409
-59.8607
-26.2019
-50.0201
-59.2163
-26.8797
-50.5283
-66.2677
107.273
-46.8407
-69.5263
129.107
-48.5919
-68.2429
136.06
-48.1421
-68.3931
134.03
-48.2535
-68.4858
130.926
-46.8681
-68.4716
107.7
-45.9738
-69.4107
-22.1229
-53.5939
-65.4891
-64.9016
-67.8711
-66.412
-65.8441
-74.7502
-65.043
-62.0411
-65.0537
-65.073
-36.0277
-51.8338
-63.4716
-31.8118
-49.2956
-63.1681
-31.4944
-49.6732
-62.9343
-36.5041
-51.9074
-62.7039
-41.8508
-54.7957
-61.7698
-43.563
-53.9269
-61.4392
-36.3343
-54.1541
-61.1092
-26.2438
-52.2551
-67.3957
)
;
    }
    water_left_surface
    {
        type            calculated;
        value           nonuniform List<scalar> 
42
(
16667.2
16661.1
16665.1
16666.2
16671
16667.4
8858.52
8847.44
8848.44
8862.34
8868.35
8854.63
2120.91
2128.6
2133.77
2118.78
2120.27
2137.09
-13.1656
-13.14
-13.5333
-13.0039
-12.4113
-13.3408
-8.7311
-9.66738
-10.5991
-8.56745
-6.63243
-9.72457
-33.049
-31.2177
-33.0407
-32.9963
-33.7566
-32.891
-63.5147
-61.4532
-62.2234
-64.1087
-65.1718
-62.6213
)
;
    }
    water_right_surface
    {
        type            calculated;
        value           nonuniform List<scalar> 
42
(
2601.57
2533.45
2549.22
2504.92
2492.37
2523.64
1706.52
1594.68
1649.92
1629.32
1547.7
1610.11
999.093
897.62
1004.22
1025.6
962.46
970.934
291.576
210.687
301.093
457.593
388.988
381.906
-18.4106
-31.7658
-18.6202
14.6099
-5.01133
-22.1229
-56.6818
-54.6423
-55.9958
-52.1096
-53.7516
-53.5939
-67.6013
-67.392
-63.3935
-63.3501
-66.531
-65.4891
)
;
    }
    water_top_surface
    {
        type            calculated;
        value           nonuniform List<scalar> 
180
(
-98.1003
-98.1003
-95.4854
-99.7429
-99.933
-95.4555
-70.9713
-69.3072
-68.8011
-71.8539
-74.0971
-97.8641
-90.8014
-89.65
-89.376
-91.9382
-93.5356
-83.8862
-84.2059
-84.8149
-84.5225
-84.7357
-84.8867
-84.0871
-75.2271
-75.7429
-75.5632
-75.2492
-75.0634
-75.4128
-68.8245
-68.981
-68.9839
-68.8027
-68.7382
-68.9946
-68.673
-68.672
-68.6725
-68.672
-68.6716
-68.6739
-68.6769
-68.6786
-68.678
-68.6761
-68.6752
-68.6796
-68.6832
-68.6836
-68.6833
-68.6832
-68.6833
-68.6838
-68.6833
-68.6834
-68.6835
-68.6834
-68.6835
-68.6835
-68.8251
-68.827
-68.8327
-68.8259
-68.8336
-68.8348
-69.1481
-69.1555
-69.152
-69.1505
-69.1464
-69.1532
-68.7314
-68.7569
-68.7328
-68.6859
-68.6753
-68.6804
-69.5147
-69.534
-69.4514
-69.4461
-69.4431
-69.5071
-69.1798
-69.1956
-69.1803
-69.1798
-69.1807
-69.1723
-69.3281
-69.3432
-69.3366
-69.3386
-69.3401
-69.339
-69.1868
-69.1951
-69.1891
-69.1785
-69.173
-69.1765
-68.6703
-68.6703
-68.6704
-68.6705
-68.6708
-68.6708
-68.881
-76.758
-68.67
-68.8458
-76.5571
-69.4302
-78.9211
-77.1951
-82.0184
-77.863
-75.2138
-73.8015
-70.2923
-74.3287
-70.5256
-70.1771
-70.8792
-68.7235
-68.6715
-68.6756
-68.7218
-68.6742
-68.6701
-68.67
-68.67
-68.6718
-68.6704
-68.6825
-68.67
-68.67
-68.67
-68.67
-68.67
-68.67
-68.67
-68.67
-68.67
-68.67
-68.67
-68.67
-68.67
-68.67
-68.67
-68.671
-68.6714
-68.6707
-68.67
-68.67
-68.6752
-68.6914
-68.6799
-68.6723
-68.67
-68.6704
-68.6889
-68.744
-68.6956
-68.8453
-68.9514
-69.1384
-69.2053
-69.4933
-69.2666
-69.6358
-69.868
-69.8787
-69.6242
-69.9797
-69.9489
-69.741
-69.6539
-69.54
)
;
    }
}


// ************************************************************************* //
