/*--------------------------------*- C++ -*----------------------------------*\
| =========                 |                                                 |
| \\      /  F ield         | OpenFOAM: The Open Source CFD Toolbox           |
|  \\    /   O peration     | Version:  v1612+                                |
|   \\  /    A nd           | Web:      www.OpenFOAM.com                      |
|    \\/     M anipulation  |                                                 |
\*---------------------------------------------------------------------------*/
FoamFile
{
    version     2.0;
    format      ascii;
    class       surfaceScalarField;
    location    "7.95";
    object      phi;
}
// * * * * * * * * * * * * * * * * * * * * * * * * * * * * * * * * * * * * * //

dimensions      [0 3 -1 0 0 0 0];

internalField   nonuniform List<scalar> 
2916
(
0.0024759
0.394069
-0.396545
-0.00092236
0.393686
-0.390287
-0.00118032
0.392612
-0.392354
-0.0015668
0.395025
-0.394639
-0.00187153
0.397157
-0.396853
0.392705
-0.394576
0.00189054
0.696214
-0.304035
-0.000491251
0.694941
-0.298873
-0.0031116
0.694865
-0.299633
-0.00189597
0.696446
-0.302636
0.00343164
0.697931
-0.306101
0.694952
-0.298816
0.00192494
0.760337
-0.0660485
1.75139e-05
0.759282
-0.0624337
-0.00277012
0.759531
-0.0618782
-0.000947164
0.760203
-0.0655806
0.00442059
0.76116
-0.0685971
0.759304
-0.0599314
0.000413636
0.634052
0.125872
9.15274e-05
0.631935
0.127669
-0.000943949
0.63267
0.127896
-0.000274944
0.633323
0.126212
0.00175035
0.634091
0.125044
0.632383
0.128672
-0.000873112
0.410437
0.224489
0.000131956
0.405048
0.225882
0.000562802
0.4067
0.22554
4.88173e-06
0.408718
0.225163
-0.000958233
0.410267
0.224787
0.405957
0.225468
-0.000953785
0.161226
0.250164
0.000177398
0.153628
0.250289
0.00136139
0.155398
0.250119
0.000141595
0.159361
0.250576
-0.00202695
0.16171
0.250725
0.153965
0.249965
0.000668932
-0.0945604
0.255118
4.60231e-05
-0.0975567
0.251808
-0.000247754
-0.0968694
0.252561
-0.000350644
-0.0949721
0.254436
0.00171572
-0.0952842
0.254928
-0.0969195
0.2526
0.00170174
-0.331657
0.235395
0.000508662
-0.329033
0.232669
-0.0006057
-0.329013
0.233258
0.00106516
-0.33143
0.234788
0.00469861
-0.335345
0.236427
-0.326749
0.234528
-0.000894374
-0.411438
0.0806749
0.000834944
-0.410217
0.0794557
0.00230976
-0.4096
0.0791128
0.00189745
-0.412082
0.0810637
0.00158828
-0.415922
0.0808861
-0.409237
0.0840763
-0.00184675
-0.355887
-0.0537039
0.000680292
-0.360626
-0.052118
0.00406407
-0.35959
-0.0533935
0.00114841
-0.357098
-0.0520679
-0.00481732
-0.357194
-0.0527622
-0.363034
-0.0510199
-0.00131658
-0.258021
-0.0965489
0.000343234
-0.271261
-0.0910254
0.00356376
-0.270412
-0.0923984
0.000316623
-0.259104
-0.0947467
-0.00758849
-0.252757
-0.0965315
-0.27639
-0.0942327
0.00302113
-0.261043
-0.0015005
-0.266739
-0.00423295
-0.26768
-0.00231741
-0.26102
0.00566179
-0.260736
-0.270728
0.0025817
0.539807
-0.938934
0.00329214
0.534765
-0.925763
0.0125628
0.526717
-0.928342
0.00728342
0.54519
-0.934549
-0.0151626
0.563678
-0.938084
0.522262
-0.932001
-0.00410742
1.0107
-0.770816
0.000136414
0.999502
-0.767853
0.00364497
0.997745
-0.774169
0.000120858
1.01145
-0.765369
-0.00716008
1.02328
-0.758425
0.992569
-0.776283
0.00079276
1.21445
-0.270598
0.00116234
1.2047
-0.268
0.000493783
1.20491
-0.268375
0.00150618
1.21423
-0.269373
0.00275333
1.223
-0.269566
1.20048
-0.265094
0.00291459
1.25694
0.0804686
0.000569055
1.25339
0.0813217
-0.0034162
1.25333
0.083461
0.000425359
1.25688
0.079717
0.0094306
1.26033
0.078711
1.25164
0.0869507
0.000428828
1.27471
0.206293
0.000275258
1.2725
0.206922
-0.000543298
1.27124
0.20845
0.000244314
1.27547
0.205788
0.00329828
1.27701
0.205054
1.2711
0.209306
0.00571925
1.34961
0.169541
0.000418902
1.3523
0.175796
-0.00223395
1.34729
0.176725
0.000174001
1.3537
0.169931
0.00369413
1.35578
0.168433
1.34711
0.177647
0.0105103
1.48776
0.106463
0.000512359
1.50142
0.112688
-0.00825515
1.49331
0.115305
-0.00227467
1.49716
0.104997
0.0124343
1.49909
0.0969114
1.49045
0.121691
0.00195743
1.55767
0.163524
0.0033535
1.59215
0.140537
-0.000264695
1.5818
0.148384
0.00594707
1.56768
0.158058
0.0216344
1.55536
0.164467
1.5877
0.158915
-0.0245891
1.18281
0.480121
0.00323306
1.23286
0.410924
0.0184063
1.22347
0.422271
-0.00414888
1.19211
0.47919
-0.0484032
1.15874
0.521763
1.27348
0.349889
-0.0311865
0.634387
0.525908
-0.00062163
0.648111
0.502067
0.0230614
0.649984
0.496408
-0.00192307
0.638169
0.526858
-0.0538775
0.619692
0.53824
0.670793
0.497792
-0.0260482
0.246956
0.31693
-0.000310722
0.181807
0.349541
0.0234694
0.191841
0.341965
0.00831517
0.245601
0.312975
-0.0475736
0.281345
0.297705
0.175287
0.353699
0.0446005
-0.058687
-0.00938634
-0.0309452
-0.0542583
-0.0309672
-0.00958552
-0.0600915
0.0734452
-0.0624223
-0.0219956
0.0184371
0.432107
-1.38948
-0.00672447
0.460337
-1.36094
-0.0409502
0.477741
-1.37186
-0.0197962
0.424283
-1.37999
0.0311654
0.383601
-1.37265
0.485194
-1.38603
0.0113413
1.1654
-1.51545
0.00458623
1.22201
-1.52277
0.0119214
1.22145
-1.52522
0.0056969
1.17061
-1.50547
0.0103737
1.14782
-1.52732
1.22934
-1.51006
-0.000719105
1.68339
-0.787869
-0.00106098
1.72576
-0.771405
0.00108221
1.71968
-0.768746
-0.00823062
1.6863
-0.775746
0.00362037
1.66881
-0.802408
1.72339
-0.755517
0.000596655
2.05417
-0.290908
-0.000720965
2.06833
-0.259933
-0.00162108
2.06553
-0.261483
-0.00383924
2.05616
-0.287929
-0.000348967
2.0512
-0.307166
2.05956
-0.249572
-0.000263951
2.37745
-0.116721
0.000344419
2.38144
-0.106801
0.00132737
2.37975
-0.106761
0.00107866
2.37821
-0.116014
-0.00270322
2.37896
-0.118925
2.37494
-0.108781
0.0063718
3.00884
-0.468223
0.000313474
3.01693
-0.453636
-0.00353002
3.00565
-0.445324
-0.000986396
3.02561
-0.480003
-0.000793119
3.0392
-0.491996
2.98424
-0.432445
0.0468655
3.11802
-0.049584
0.0014556
3.38029
-0.205257
-0.048282
3.32354
-0.152853
-0.0102876
3.15667
-0.0640657
0.0815858
3.05362
-0.00937892
3.45023
-0.262714
0.0424334
1.24588
1.99324
-1.85855e-05
1.7634
1.79988
-0.0623485
1.67395
1.86031
0.0459764
1.22231
1.9841
0.284615
1.00239
1.97705
2.1769
1.71686
-0.161164
-0.802002
2.68916
-0.0162865
-0.591027
2.62047
0.0874416
-0.62978
2.62228
-0.0547141
-0.846399
2.69005
-0.287678
-0.98066
2.73778
-0.251097
2.49021
-0.0957325
-1.24722
1.06686
-0.0258426
-1.3061
1.14725
0.0172585
-1.28804
1.11156
-0.0713643
-1.27666
1.04574
-0.239767
-1.30884
1.03482
-1.27596
1.28289
0.0481322
-0.750768
-0.227657
-0.0304981
-0.834151
-0.0437746
-0.100148
-0.810609
-0.0658131
-0.0375256
-0.770863
-0.255444
0.0885035
-0.735822
-0.401339
-0.80283
-0.0309327
0.0584508
-0.867905
-0.0289763
-0.777669
-0.0920128
-0.77854
-0.0474798
-0.875487
0.0775315
-0.923256
-0.747294
0.193434
0.352888
-1.9358
-0.113951
0.852239
-1.90579
-0.674985
1.04688
-1.85771
-0.348442
0.258142
-1.96467
0.598747
-0.356921
-1.96292
1.12759
-1.91487
0.0815899
0.659111
-1.90326
0.0866327
1.33123
-2.00681
0.246195
1.3379
-1.97579
0.230576
0.692628
-1.92434
0.103833
0.284232
-2.04173
1.69617
-1.9748
-0.0423145
1.97876
-2.06521
-0.0340957
2.57926
-2.02765
0.113617
2.44294
-2.02151
0.0957611
2.04046
-2.10573
0.21121
1.70126
-2.33488
3.03424
-1.88237
-0.0398065
3.92597
-2.19831
-0.0444629
4.50339
-2.17941
-0.0147016
4.37568
-2.22397
-0.063336
4.08179
-2.28062
0.0716174
3.64969
-2.39055
4.83753
-1.98124
0.00739628
5.45388
-1.65202
0.108767
6.17335
-1.87813
0.195549
6.08988
-1.90774
0.112131
5.72484
-1.67563
0.0254214
5.23523
-1.61775
6.50396
-1.7498
-0.102958
5.2518
-0.163185
0.16192
5.82063
-0.365793
0.406707
5.7795
-0.379739
0.333683
5.44019
-0.122331
-0.16896
5.26297
-0.0170847
6.23046
-0.327902
-0.0847724
2.96394
2.32304
-0.0188122
3.47113
2.07829
0.0792787
3.3841
2.14445
0.0651253
2.99919
2.39108
-0.0809453
2.91045
2.48921
3.97278
1.91402
0.051618
0.251201
4.65436
-0.0510761
0.785737
4.58798
-0.0994404
0.67131
4.62147
0.0296025
0.184074
4.67017
0.391487
-0.0655493
4.59117
1.44291
4.63823
-0.0788776
-0.816394
3.83564
-0.0244777
-0.638302
3.99011
0.015457
-0.690904
3.94456
-0.0448247
-0.876826
3.81123
-0.167736
-1.04791
3.84305
-0.349391
4.11477
-0.075024
-0.75345
1.07894
-0.0601245
-0.692323
1.18637
-0.0753083
-0.72148
1.15733
-0.210916
-0.7656
1.07013
-0.329434
-0.939849
1.04528
-0.76358
1.36765
-0.0328269
-0.750787
-0.197491
0.0665081
-0.731727
-0.103709
0.147095
-0.739049
-0.128838
0.0903715
-0.743346
-0.220973
-0.0924919
-0.811966
-0.34636
-0.733824
-0.153182
-0.0409164
-1.57777
0.0250603
-1.57537
0.0839354
-1.57646
0.0468819
-1.58178
-0.0915646
-1.59678
-1.57268
-0.189613
0.559934
-0.370321
-0.165904
-0.0121049
-0.0116048
0.143805
-0.0763175
-0.233392
0.103802
0.141997
-0.101993
0.176274
-0.124381
0.0519093
0.452621
-0.276347
-0.0576722
0.844726
-0.22712
0.107613
-0.396005
0.218615
0.570356
-0.478574
-0.0604872
0.325781
0.10076
0.285813
-0.109365
-0.0418488
0.352613
0.604311
-0.261055
0.351574
0.250882
0.242271
0.657401
-1.09949
0.39766
0.402443
-0.531103
0.307487
-0.407521
0.391567
0.519157
-0.612984
-0.332335
0.49595
0.0680076
-0.0766808
0.62715
-1.02326
0.646995
0.79075
-2.00297
0.739875
0.415158
-1.46647
1.31096
-0.137998
-0.237366
1.18209
-0.379526
-0.887546
0.796739
-0.777426
0.465907
0.302401
-1.93429
0.60863
0.217119
-2.54187
0.624187
0.533511
-2.58352
0.800659
0.695878
-2.22138
1.82165
0.12564
-2.11958
1.80227
-2.33252
1.68073
0.0815111
-2.0783
0.0624912
0.0388056
-2.46231
-0.0368536
0.116591
-2.60343
-0.0578785
0.407967
-2.52032
0.00756545
0.163756
-2.47148
0.596117
-2.51989
0.351127
-0.0917811
-1.87159
-0.114926
-0.0290451
-2.13011
-0.394942
0.104977
-2.1784
-0.559049
0.151064
-2.07816
-0.488247
0.0236346
-2.23237
-0.111682
-2.12582
-0.370428
-0.213815
-1.68622
0.0284502
-0.066577
-1.90879
-0.368559
0.144815
-1.92743
-0.462368
-0.0248001
-1.96104
0.0524943
-0.186265
-2.2
0.129088
-1.86631
-0.445782
-0.313853
-1.5503
0.177929
-0.281694
-1.80424
-0.136701
0.0174342
-1.7975
-0.429058
-0.261817
-2.04589
0.364101
-0.438038
-2.29192
0.268144
-1.59781
-0.706536
-0.598645
-1.52121
0.569551
-0.629374
-1.7202
-0.0533207
-0.289571
-1.71278
-0.424516
-0.407749
-2.0197
0.0919909
0.0543661
-2.08214
-0.671892
-1.32473
-0.218718
-0.696469
-0.980588
0.15585
-0.711744
-1.18698
-0.51794
-0.622261
-1.23116
-0.571111
-0.0829759
-0.983681
-1.57531
0.727984
-0.846557
-2.04654
-0.650199
0.0534574
-0.394172
-0.586416
-0.238765
-1.34239
0.0312372
-1.50116
0.238789
-1.19123
0.449098
-1.05687
-0.201101
0.0657766
0.920119
-1.35622
-0.0730167
0.457882
-0.330693
0.086206
0.658948
-1.05156
0.125795
0.0394364
-0.181019
-0.0595399
0.14133
0.0959141
0.842069
-1.17796
0.507328
1.48986
-1.30419
0.275528
0.773686
0.134611
0.173133
0.731424
-0.0305679
-0.356228
0.213491
0.641118
-0.563786
0.578009
0.123493
1.439
-1.42177
0.72434
1.57655
-0.568761
0.315347
0.700877
0.879462
-0.469375
0.650337
1.1733
-1.63199
0.396689
1.49857
-1.0424
0.283432
0.200936
1.26342
-0.9435
0.331118
1.48943
0.403001
-0.216485
0.10708
1.88128
-0.769188
-0.367408
2.88141
-1.43961
-0.290023
2.53922
-0.88012
-0.545006
1.06568
0.434892
0.414319
0.369616
1.49141
0.23703
-0.598397
0.665119
1.03416
-1.06945
-0.804346
1.70865
-0.566544
-1.56641
2.59513
-0.00270869
-1.79475
2.48818
-0.579964
2.69288
0.92261
1.82737
-1.19608
0.470194
1.7598
-0.679125
-0.0756882
0.440408
-0.756748
-0.183853
-0.807568
-0.643115
-0.0421416
-1.33753
-0.00281898
-0.190675
-0.0803038
0.350698
2.39355
-1.0318
0.208087
2.9015
-1.39403
-0.075879
1.69987
-1.53455
-0.306541
0.418302
-1.48345
0.142705
-0.679051
-1.21941
0.915357
-1.33376
0.993929
1.48631
-0.0582332
0.442201
3.75549
-0.670823
-1.14723
3.29584
-0.468896
-1.06187
-0.0945298
0.479962
-0.0523474
-2.28692
0.727441
0.132135
0.285092
1.46393
-0.865372
1.06568
2.46715
1.90274
0.712838
0.963265
3.35114
1.01953
0.24826
-0.85964
1.84422
0.349533
-2.97523
0.855177
-0.938279
0.713412
0.076592
-1.88123
1.50882
1.32711
-1.09416
1.69307
1.75943
0.333464
2.16084
0.975786
-1.50873
1.52472
1.11521
-2.26429
-1.52225
-0.754507
0.712717
-1.15595
-1.39194
0.822509
-0.899992
-1.47429
-0.39377
-0.16281
-1.14721
0.172381
0.387784
-0.907793
-2.72683
1.14096
-1.24785
-3.81617
-0.612947
1.05286
0.190242
-2.1686
0.337239
-2.96367
0.180707
-2.49183
0.0203551
-1.93867
-0.304238
-1.98012
-1.11829
-0.0119734
0.742449
-2.08669
0.0384632
0.686878
-1.06801
0.188806
0.73272
-1.93463
0.480252
0.446436
-0.918901
0.231012
0.519846
-0.174692
0.834989
-1.78193
-0.0136804
1.43466
-1.98272
0.239283
1.57008
-1.00156
0.624091
1.48261
-1.16526
0.56186
0.986886
0.162897
0.179218
1.5855
-0.559517
1.43414
-1.8417
0.575702
1.98813
-1.69793
0.480633
2.64745
-0.102836
0.296028
2.26151
0.578993
-0.568855
1.98167
1.36867
-0.425168
2.36431
-0.721561
1.71917
-1.6537
0.364016
3.02137
-0.994254
-0.253709
3.82592
1.32053
-0.53787
2.64017
2.78691
-1.19426
1.74299
3.4343
-0.717747
2.37314
0.580347
1.64786
-0.232116
0.409688
2.84284
0.00586834
-0.47631
3.8783
1.86778
-1.07273
2.09288
2.85235
-1.05032
1.05152
3.26419
-0.471695
1.96049
2.32221
1.52812
2.34092
0.247276
1.79411
-0.394622
0.473109
2.90217
0.0711672
0.102304
1.89299
-0.186051
-0.370374
1.16426
-0.283186
-0.268056
1.81069
0.0446621
1.1342
0.0455618
-0.297125
1.3057
-0.246271
-0.0954828
1.75871
-0.452214
-0.33617
1.25453
-0.655395
-0.644131
0.568044
-0.579271
-0.0476921
0.422728
-0.427884
0.0818607
-0.32911
-0.997783
2.01434
0.230912
-1.95356
2.2249
-0.181232
-2.65648
1.54363
-0.0550735
-1.97672
-0.184189
0.552441
-0.437378
-1.15695
0.767774
-0.878222
0.807797
0.115019
1.75509
1.20991
-0.230559
2.45553
0.827789
-1.24803
2.22476
1.35586
-0.804141
-0.829773
2.04591
0.227475
-1.67163
0.338239
-1.04712
1.10978
0.00854262
0.821328
2.43404
0.436999
1.00012
2.72002
0.27803
1.19348
3.35109
0.670766
-0.858344
1.16056
0.88295
-1.29966
-2.1064
0.073133
0.475414
-0.232353
0.00833927
1.86785
-0.38716
-0.265209
1.02636
0.146489
-0.31809
1.1503
0.267201
-0.867696
-2.83819
0.143042
-1.2101
-3.78157
0.0857101
1.18332
0.62769
-2.78795
0.388776
-2.98997
0.265552
-2.6867
-0.289341
-2.25148
-1.1423
-2.33726
-2.17487
-0.281563
0.233549
-2.03868
0.0726271
0.417047
-1.83925
0.000735292
0.23945
-2.10218
0.319503
0.432327
-1.67
0.526122
0.583574
-0.964884
0.53453
-1.79034
-0.980423
0.859985
-1.62873
0.158223
1.53027
-3.25343
0.787094
1.55284
-3.10752
1.27255
1.64852
-1.53875
1.31102
1.81098
-1.82539
0.865465
-0.861619
-0.368553
1.11842
-1.58781
0.376089
2.41996
-1.73717
0.951013
2.3925
-0.835587
0.867716
2.39242
0.708065
0.754698
2.70978
-1.50734
0.270841
-0.30438
-0.378227
1.18225
-0.679858
-0.00913127
3.13213
0.239268
0.448134
2.85436
1.86778
0.899178
2.1365
3.23917
0.525349
2.30242
1.36154
0.0989652
0.465107
-0.794673
1.3542
0.628587
-1.21292
3.44096
1.97719
-0.944158
2.57667
2.86129
-0.42714
1.67835
3.20532
0.359323
1.96483
1.87333
1.44509
1.35412
-0.620878
1.01319
0.567265
-0.406618
1.87256
1.42531
-0.331241
1.06777
1.24747
-0.277461
0.662732
0.678655
0.458563
0.768377
0.505092
0.919776
1.02944
-0.731976
0.751176
0.747722
-0.647368
0.338897
0.996847
-0.647779
-0.273127
0.685913
-0.70238
-0.405099
0.543161
-0.349436
-0.487245
0.474793
-0.536976
0.778206
-0.667943
1.03449
0.615539
-2.06104
0.627324
0.923434
-2.91929
-0.203272
0.733326
-2.17498
-0.920616
0.323644
-1.22279
-1.00401
0.332348
-1.4023
0.450334
0.188367
1.20114
0.854891
-1.28007
1.55623
1.36732
-2.48075
0.833075
1.5202
-1.13542
-0.856949
0.636914
-0.71929
-0.809464
-0.272443
-1.15225
0.140444
0.731042
1.29471
1.60944
0.229453
2.08255
2.69529
-0.630528
1.95094
3.09321
0.30639
-0.87323
0.239921
0.366962
-1.13299
-1.84344
0.557092
-0.866968
1.33794
0.758651
1.06597
1.66739
1.29278
1.48668
1.67531
1.33344
1.75987
0.526572
-0.76843
-1.79426
-0.595425
-1.03867
-2.75389
1.06907
0.0759177
0.226083
-2.25538
0.521626
-1.99273
0.994553
-1.82619
0.113361
-2.13871
-0.988327
-2.27425
-2.09413
0.366307
-0.370515
-1.93159
-0.0623216
-0.305605
-1.17156
-0.778469
-0.285942
-0.855617
-0.348264
-0.364231
-2.03065
0.894948
-0.433884
-2.77225
-0.33864
-0.681282
0.0640266
2.05422
-2.48876
0.155062
2.15015
-2.54679
-0.0734982
2.15016
-2.20754
0.0615907
2.046
-2.54531
0.293178
1.86011
-2.52558
2.1938
-2.23926
-0.218909
-1.83777
0.135754
-2.23878
0.361039
-2.10121
0.178453
-1.81079
-0.116206
-1.7337
-2.09893
0.0189082
-0.507488
-3.34628
0.127515
-0.305235
-2.98174
0.36199
-0.237716
-2.82817
0.324276
-0.572792
-3.34448
0.024042
-0.99034
-3.5234
-0.151597
-2.48044
0.00100271
-0.503176
-2.49407
0.114561
-0.0143568
-2.95122
0.314654
0.235419
-2.88076
0.246844
-0.643535
-2.40676
-0.139075
-1.13262
-1.99738
0.637551
-3.16748
0.00152781
-1.09065
0.0183071
-1.55891
0.13586
-1.60814
0.101272
-0.967883
-0.153392
-0.73934
-2.07136
-0.188984
-2.13459
-3.08791
-0.0458067
-1.88613
-3.26643
0.214331
-1.84609
-3.26372
0.106928
-2.27613
-3.06667
-0.18534
-2.68315
-2.88287
-1.46925
-3.07891
0.0427729
-2.9095
-1.76194
-0.0237643
-2.66761
-2.10322
-0.0531783
-2.61174
-2.0857
0.00952991
-3.0666
-1.67899
0.066222
-3.34554
-1.39168
-2.08888
-2.48163
0.0794189
-0.450031
0.0240941
-0.625852
-0.0293655
-0.640225
0.059337
-0.405372
0.127934
-0.315832
-0.979878
-0.0569804
-2.81988
-2.40936
-0.0521181
-2.86181
-2.5889
-0.0874736
-2.86973
-2.58261
-0.0910695
-2.94422
-2.39947
-0.0472483
-3.02954
-2.2877
-2.58398
-2.52342
0.126888
-3.0284
-1.68031
-0.0357423
-3.08842
-1.71397
-0.279982
-3.04633
-1.66487
-0.098437
-3.11061
-1.69415
0.308094
-3.13286
-1.6949
-2.90503
-1.85249
0.0848869
-0.546112
0.00953806
-0.563346
-0.0629335
-0.565014
0.0431663
-0.554482
0.229393
-0.553509
-0.643476
-0.0620815
-2.50161
-1.49768
-0.00341669
-2.83868
-1.68702
0.0454025
-2.85297
-1.6862
0.00115822
-2.53693
-1.49393
-0.11176
-2.4165
-1.37603
-2.70712
-1.67786
0.122309
-2.29908
-2.00515
-0.0422906
-2.44959
-1.93846
-0.253434
-2.4242
-1.8825
-0.0882854
-2.31319
-2.08303
0.231256
-2.23318
-2.19776
-2.36967
-1.95868
0.0665342
-0.963384
-0.0104971
-0.911818
-0.101716
-0.899487
-0.0331726
-0.985886
0.122567
-1.02157
-0.914579
-0.101772
-0.667892
-0.891198
0.0358519
-1.21909
-0.971348
0.236491
-1.27521
-0.991368
0.143086
-0.595109
-0.92775
-0.145557
-0.215182
-0.889288
-1.26044
-0.890876
0.112562
-0.700791
-2.08481
-0.0316483
-0.943283
-2.07006
-0.17651
-0.967478
-2.04536
-0.0411595
-0.676393
-2.1371
0.254034
-0.491841
-2.2163
-0.969145
-1.99594
0.0612379
-1.45891
0.000224899
-1.40141
-0.0981807
-1.37372
-0.0428992
-1.47338
0.123961
-1.51495
-1.35667
0.112399
2.29482
-0.975372
-0.0773165
2.07563
-0.778981
-0.171289
2.06987
-0.822814
0.0333154
2.32754
-1.06882
0.435795
2.45309
-1.25566
1.87394
-0.415005
0.00890365
2.21569
-2.01459
-0.032412
1.99045
-1.94356
0.0120991
1.92846
-1.94847
0.0783093
2.189
-2.06477
0.190047
2.30727
-2.18221
1.82668
-1.75863
0.00720786
-1.03114
0.0113541
-1.03058
0.0234014
-1.00876
0.0292234
-1.03039
0.0362081
-1.04707
-0.996348
0.0671165
4.90273
-1.29086
-0.0597338
5.04919
-1.11335
-0.151163
5.03895
-1.14887
-0.0497882
4.85576
-1.35578
0.158243
4.69277
-1.56529
5.08423
-0.702765
-0.0341768
3.95119
-1.02887
-0.0282212
4.12392
-1.02424
0.00766532
4.08226
-1.02766
-0.0112166
3.86739
-1.05753
-0.0508278
3.71948
-1.16932
4.18226
-0.90749
-0.0552734
-0.142769
-0.00110856
-0.167128
0.0789986
-0.163895
0.0138215
-0.141007
-0.129503
-0.147485
-0.17381
-0.0947116
3.41055
-0.771055
0.00504578
3.5897
-0.812687
0.0778049
3.5495
-0.82658
-0.0668938
3.39136
-0.791206
-0.396486
3.43994
-0.832583
3.70715
-0.691625
-0.0800916
2.2706
0.191162
0.00404011
2.38449
0.0968314
0.0646994
2.36416
0.0970212
-0.0605958
2.27529
0.183845
-0.288096
2.32208
0.176051
2.46237
0.0491884
-0.0301375
0.34862
-0.00898108
0.337113
0.0069453
0.334818
-0.0352931
0.350283
-0.0668275
0.348806
0.320017
-0.0354058
1.30558
-0.962288
0.0262789
1.3477
-1.0357
0.0556623
1.32785
-1.02649
-0.0353966
1.31259
-0.942609
-0.240827
1.30467
-0.886544
1.42918
-0.99398
0.0277975
0.801218
0.667731
0.0169476
0.815782
0.639599
-0.00137715
0.805215
0.637983
0.00784965
0.814986
0.672228
-0.0171569
0.810643
0.695086
0.83539
0.625819
-0.000413174
0.516307
-0.00331229
0.518342
-0.00802116
0.516627
-0.00530095
0.519568
0.00216011
0.518578
0.519079
-0.0295007
0.356466
-1.48674
0.0402563
0.332861
-1.54202
0.0957644
0.321129
-1.53196
0.0638364
0.343835
-1.47549
-0.0716571
0.331826
-1.42923
0.301289
-1.52011
0.030589
-0.00651115
1.00012
0.00222563
-0.00153135
1.00235
-0.0223846
-0.0163474
1.00007
0.00436065
-0.0165215
1.00584
0.0528957
-0.0384999
1.01688
-0.0174276
0.997432
-0.000737545
0.783092
0.00605836
0.784189
0.0063977
0.780788
0.00507492
0.779827
-0.00574606
0.775291
0.780258
-0.0121617
-1.5086
-1.54375
-0.000588167
-1.58686
-1.5421
0.00926604
-1.57289
-1.54539
-0.000664495
-1.4941
-1.55324
-0.0242891
-1.44078
-1.56161
-1.56859
-1.54849
0.0156517
-0.936353
0.412215
-0.0121105
-0.972178
0.415429
-0.0382563
-0.961933
0.415266
-0.0177976
-0.929398
0.420683
0.0348638
-0.903006
0.426442
-0.955951
0.419657
0.0106198
0.390809
-0.00404372
0.385749
-0.0168849
0.388982
-0.00751045
0.397409
0.0150774
0.403874
0.397729
0.0240673
-0.738152
-0.616474
1.33056
0.0296965
-0.786036
-0.644742
1.42515
0.0177955
-0.844289
-0.654312
1.5105
-0.00656047
-0.829736
-0.651007
1.5051
-0.0322872
-0.821759
-0.657275
1.50476
-0.80339
-0.633397
1.4045
-0.00745268
-0.540964
-0.264499
0.0747643
-0.0395355
-0.585039
-0.233523
0.0646129
-0.057518
-0.611762
-0.173592
-0.0409494
-0.0245073
-0.585339
-0.136723
-0.140681
-0.00774571
-0.566829
-0.113908
-0.15778
-0.5542
-0.146569
-0.110364
0.0458763
-0.050609
-0.383501
0.105778
-0.0275997
-0.442004
0.143399
-0.0124122
-0.481455
0.104544
-0.0872998
-0.360805
0.0362876
-0.124584
-0.300192
-0.140118
-0.290041
-0.0127965
-0.424791
-0.178886
-0.0170595
-0.464023
-0.176456
-0.0100917
-0.486142
-0.175138
-0.00476673
-0.478832
-0.1775
-0.00271606
-0.477593
-0.181732
-0.461939
-0.174174
-0.0302813
-0.426198
-0.232808
-0.0487498
-0.454764
-0.224309
-0.0433075
-0.459875
-0.205296
-0.0247559
-0.448348
-0.185754
0.00171875
-0.443353
-0.174619
-0.43959
-0.167197
0.0181392
-0.0377192
0.0425097
-0.0446238
0.0697429
-0.0581491
0.0558856
-0.0803451
0.0246756
-0.0950002
-0.0963418
-0.00379255
-0.164045
-0.0110487
-0.00299459
-0.167399
-0.00985477
0.000702687
-0.170379
-0.00845568
0.000412915
-0.170113
-0.0070974
-0.00196453
-0.17241
-0.00694382
-0.168083
-0.00805442
-0.0174591
-0.225164
-0.154227
-0.0286729
-0.229334
-0.151157
-0.0325975
-0.228177
-0.143572
-0.0255788
-0.22785
-0.135033
-0.0157109
-0.228742
-0.128153
-0.223179
-0.127811
0.0151261
0.0876672
0.0288523
0.0831704
0.0335231
0.0751481
0.0265195
0.0651629
0.0109368
0.0587764
0.0557376
-0.00175613
-0.191389
0.182096
-0.00429086
-0.189719
0.182399
-0.00599029
-0.190212
0.183456
-0.00545445
-0.192017
0.184384
-0.00220361
-0.194875
0.18468
-0.193204
0.182946
-0.00837549
-0.266855
-0.0703845
-0.013669
-0.267219
-0.0683625
-0.014996
-0.266024
-0.0664312
-0.0114247
-0.267509
-0.0631119
-0.00352344
-0.269687
-0.061242
-0.266626
-0.0579145
0.00690102
0.225466
0.0145502
0.224229
0.0176009
0.22027
0.0143555
0.215868
0.00662505
0.212372
0.211069
-0.00124646
-0.482017
0.665359
-0.00412624
-0.479468
0.664746
-0.00618732
-0.481148
0.666665
-0.0056142
-0.488547
0.672358
-0.00215174
-0.495641
0.676859
-0.488586
0.66938
-0.00414792
-0.417458
-0.130795
-0.00565882
-0.416608
-0.129712
-0.00708538
-0.41635
-0.129803
-0.00593969
-0.419915
-0.132891
-0.00233185
-0.424224
-0.136268
-0.418322
-0.130511
0.00408984
0.174712
0.00862455
0.176628
0.0112677
0.172982
0.00915496
0.166472
0.00283165
0.161184
0.16352
-0.00142129
-0.876965
0.000166242
-0.878945
0.00161649
-0.880175
-0.000582934
-0.878684
-0.00492612
-0.880404
-0.884037
-0.00253904
-0.593004
-0.00159737
-0.594167
-0.00214319
-0.594166
-0.00101575
-0.59202
0.00114479
-0.592393
-0.593747
0.00476919
0.00484947
0.00352413
0.00483501
0.00499192
0.0439628
-1.84853
-0.234113
0.566623
-2.05755
-0.304352
-0.339609
-1.07678
-0.119173
-0.635435
-1.24859
-0.125581
0.312884
-1.94651
0.0333048
-1.45771
-0.0197488
-0.0013585
-0.818247
-1.02892
0.9625
-2.48003
-0.541385
-0.541028
1.33538
-0.908633
-1.4653
0.36913
-0.69345
-0.633453
-2.2918
-0.48655
-0.839499
-1.25166
0.116515
-0.561056
0.139758
-0.339523
-0.571919
-0.533135
-0.880069
-0.786189
-0.466852
-0.571208
-0.628089
-0.0423156
-1.99759
0.177072
0.0559869
-3.77223
0.116144
-0.478291
-3.71129
1.01888
-0.244063
-3.62882
1.73026
-0.53121
-2.47673
0.971791
-0.718439
-0.69414
0.58975
-2.45592
-1.16034
-0.0212114
-2.86483
-0.837821
-0.74638
-3.40724
-0.487518
-1.56991
-3.21957
-0.279171
-1.20904
-2.13134
-1.19281
-1.45918
-1.71996
0.295258
-0.886671
0.0980863
-0.782428
-0.26696
-0.808906
-0.823472
-1.15241
-0.520599
-1.08501
-0.912506
0.07576
-1.03522
-0.451289
-0.0845329
-2.91315
1.45242
-0.106051
-1.62762
1.83243
-0.0667432
-0.0361605
2.43518
-0.479771
-0.813273
0.690747
0.379991
-1.85828
0.336492
-0.904804
-1.62725
-0.560642
-2.33254
-0.521297
-1.20337
-1.31192
-0.160486
-0.845577
-0.650312
-0.0228084
-0.467363
-0.740128
-1.64417
-0.00517956
-1.80215
0.207509
-1.05262
-0.315294
-0.810041
-0.47165
-0.95421
-0.385351
-0.99315
-0.146858
-0.987234
-0.932018
-0.36316
0.232364
-1.00035
-0.489575
0.298961
1.51914
-0.238112
1.65802
1.79073
0.892184
2.88778
1.65628
0.948939
1.78228
0.213254
0.63034
-1.07458
-0.352747
0.444081
-1.48622
-0.896321
0.662763
-0.341527
-0.673177
1.23273
0.041663
0.33724
1.74979
0.104757
0.478975
0.918759
-0.922386
0.386973
-1.07981
-0.199859
-0.758196
-0.283473
-0.686069
-0.180586
-0.657344
0.087061
-0.549056
0.146861
-0.60378
-0.609629
-1.41493
1.34054
-0.297369
-1.3352
2.18916
1.22744
-0.520596
2.70282
1.13459
0.980452
2.64088
0.71967
1.16349
1.6995
0.204042
1.32681
0.11623
-1.1633
1.46888
-0.451266
-0.826317
1.89066
-0.380024
0.226762
2.07719
-0.385786
1.33418
1.89632
-0.258101
0.846306
1.50551
-0.240528
1.37475
-0.281442
-0.330908
-0.329147
-0.15331
-0.554548
0.204293
-0.621647
0.399976
-0.422772
0.202467
-0.324758
-0.370479
-1.02608
1.12562
0.170358
-0.474569
2.04449
0.0567456
0.577439
1.87782
-0.547772
1.05795
1.35204
-0.434222
0.721407
0.868316
0.177359
1.46147
0.405603
-0.683589
1.42858
-0.0706374
-0.1365
1.91531
-0.79794
0.695187
1.94004
-1.2797
1.0186
1.64072
-0.870195
0.336328
1.3275
-0.0174444
1.33753
0.17883
-0.175698
-0.107649
0.00821766
-0.596439
0.248355
-0.835676
0.320594
-0.481194
0.100639
-0.1199
-0.113274
-0.378636
1.22711
0.0696098
-0.206483
1.67166
-0.79022
0.0456777
1.29097
-1.40499
0.165521
1.12419
-1.1351
-0.0833787
0.862511
0.0385389
1.23084
-0.130407
-0.0675814
1.25089
-0.0268388
0.428212
1.63254
-1.25461
0.638364
1.55608
-1.75495
0.669069
1.45914
-1.23585
0.196959
1.28831
0.0288685
1.23307
0.373555
0.110631
-0.136149
0.266634
-0.662915
0.1908
-0.855755
0.150035
-0.51934
0.0604645
-0.124843
-0.0444681
0.564378
0.701847
-0.581076
0.156882
1.31369
-0.772983
-0.558283
1.04909
-1.0056
-0.696287
0.518846
-1.1923
-0.706779
0.734438
-0.35306
0.757956
-1.14481
0.55877
0.588471
-0.472234
1.01094
0.97397
-1.36706
0.900178
0.881568
-1.47666
0.28462
0.761752
-0.863194
-0.012004
0.820701
0.239228
0.726979
0.392527
0.233203
-0.219936
0.369461
-0.567571
0.160012
-0.556023
-0.0857602
-0.278083
-0.047296
-0.0406728
0.0400188
0.865645
0.59175
-1.18358
0.343424
1.54833
-0.43177
-0.255476
1.41019
-0.296692
-0.175044
0.308306
-0.944124
-0.664978
0.40321
-0.53878
0.130937
-1.80028
0.495537
0.442366
-0.818387
0.955366
0.850971
-1.12953
1.16732
0.665563
-0.94399
0.606565
0.287973
-0.282106
0.28631
0.534399
0.428293
0.441528
0.368244
0.0284003
-0.237994
0.149003
-0.374594
0.151499
-0.286839
-0.0356046
-0.0993456
-0.049316
-0.00398971
0.0298003
0.759216
0.829004
-1.16236
1.23495
2.08388
-0.296089
1.51592
2.35635
0.159187
1.33453
0.396315
-0.919131
0.0595625
-0.353165
-0.754094
-0.600654
-2.00703
0.111441
0.250047
-0.350873
0.752251
0.661354
-0.34782
1.65028
0.675824
-0.161492
1.32505
-0.0703397
0.509776
0.741587
-0.203771
0.862361
-0.293356
0.802532
-0.0943836
0.203129
-0.0327757
0.198801
0.109412
0.22185
0.0293138
0.211561
-0.00345425
0.212162
0.236255
0.452641
0.656933
-1.20597
1.51406
1.00094
-0.871759
2.7016
1.38471
-0.653194
1.39362
-0.212623
-1.19279
-0.119567
-0.739958
-1.25484
-0.408261
-1.64242
-0.211669
0.20477
0.312958
0.0637646
0.0962733
0.281413
0.681111
0.17473
0.431137
0.483139
-0.429831
0.924957
0.199184
-0.573608
0.979966
-0.391642
0.985098
0.110081
0.83191
0.240524
0.831896
0.389271
0.814529
0.217696
0.679063
0.0296996
0.637536
0.688944
-0.077529
-2.05326
-0.110801
-1.40607
0.00263677
-1.08232
0.0784157
-1.90218
0.133126
-2.07903
-2.19892
-0.379513
-1.28603
-0.307371
-1.13218
-0.0188118
-0.980684
0.0721941
-1.20891
0.0799274
-1.26458
-1.24426
-0.0673112
0.0843899
0.319445
0.243941
0.102963
)
;

boundaryField
{
    seabed_topleft_surface
    {
        type            calculated;
        value           uniform 0;
    }
    seabed_topright_surface
    {
        type            calculated;
        value           uniform 0;
    }
    breakwater_top_surface
    {
        type            calculated;
        value           uniform 0;
    }
    breakwater_left_surface
    {
        type            calculated;
        value           uniform 0;
    }
    breakwater_right_surface
    {
        type            calculated;
        value           uniform 0;
    }
    water_front_surface
    {
        type            calculated;
        value           uniform 0;
    }
    water_back_surface
    {
        type            calculated;
        value           uniform 0;
    }
    water_left_surface
    {
        type            calculated;
        value           uniform 0;
    }
    water_right_surface
    {
        type            calculated;
        value           uniform 0;
    }
    water_top_surface
    {
        type            calculated;
        value           nonuniform List<scalar> 
180
(
4.11089
4.03427
4.02608
4.03937
3.88847
4.17653
-1.25183
-0.71101
-0.375204
-1.45186
-1.87232
0.456582
-3.62953
-3.54534
-3.5262
-3.71782
-3.83764
-3.05243
-3.0172
-3.07557
-3.04906
-3.0676
-3.0814
-3.01203
-1.94835
-2.02408
-1.9985
-1.95033
-1.92086
-1.976
-0.266503
-0.392675
-0.394838
-0.244183
-0.165316
-0.403095
1.78071
1.61547
1.55145
1.74019
1.8324
1.50257
3.11809
3.2063
3.15728
3.04319
2.96323
3.23022
1.80935
1.85909
1.84952
1.82624
1.85732
1.90172
0.633944
0.637451
0.628116
0.642981
0.633411
0.638488
-0.272559
-0.274173
-0.280846
-0.275456