/*--------------------------------*- C++ -*----------------------------------*\
| =========                 |                                                 |
| \\      /  F ield         | OpenFOAM: The Open Source CFD Toolbox           |
|  \\    /   O peration     | Version:  v1612+                                |
|   \\  /    A nd           | Web:      www.OpenFOAM.com                      |
|    \\/     M anipulation  |                                                 |
\*---------------------------------------------------------------------------*/
FoamFile
{
    version     2.0;
    format      ascii;
    class       volVectorField;
    location    "7.95";
    object      U;
}
// * * * * * * * * * * * * * * * * * * * * * * * * * * * * * * * * * * * * * //

dimensions      [0 1 -1 0 0 0 0];

internalField   nonuniform List<vector> 
1116
(
(0.451944 0.00300532 -0.322169)
(0.453989 0.00087776 -0.318861)
(0.449816 -0.00213567 -0.319348)
(0.455473 -0.000606516 -0.321889)
(0.462537 -0.00175635 -0.323384)
(0.448413 -0.00262204 -0.321083)
(1.1144 0.00202821 -0.317384)
(1.11101 0.00101054 -0.316024)
(1.11064 -0.00181063 -0.313629)
(1.1148 -0.00478178 -0.318238)
(1.11768 0.00232171 -0.32309)
(1.11128 0.00245374 -0.312559)
(1.5859 0.00160488 -0.269446)
(1.58407 0.00157538 -0.268316)
(1.58433 -0.00149899 -0.267432)
(1.58614 -0.00393995 -0.269223)
(1.58823 0.00271814 -0.271758)
(1.58422 0.00440985 -0.266672)
(1.52354 0.000115798 0.022668)
(1.52174 0.000530058 0.0248395)
(1.52244 -0.000350169 0.0244713)
(1.523 -0.00138344 0.0234668)
(1.52422 0.00106372 0.0214916)
(1.52193 0.00172867 0.0257075)
(1.05932 -0.00121662 0.208512)
(1.05326 -0.000444924 0.209543)
(1.05541 0.000648104 0.208758)
(1.05719 0.00059684 0.209695)
(1.05899 -0.000574956 0.208768)
(1.05497 -0.00134279 0.209412)
(0.590681 -0.00102224 0.196506)
(0.575131 -0.000827649 0.190459)
(0.579438 0.00115656 0.190908)
(0.585977 0.00150533 0.195796)
(0.590484 -0.00130202 0.197844)
(0.576581 -0.00239517 0.189037)
(0.0364773 0.00162108 -0.0981646)
(0.0214595 -0.000596966 -0.107921)
(0.0244671 0.000741253 -0.105653)
(0.0338745 -0.0011233 -0.100727)
(0.0392711 0.000374795 -0.0943286)
(0.0206637 0.00267303 -0.111179)
(-0.570244 0.00260566 -0.475613)
(-0.570313 0.000753208 -0.483454)
(-0.569632 0.000411972 -0.48079)
(-0.570178 -0.00194215 -0.477745)
(-0.57511 0.00386059 -0.472169)
(-0.56716 0.006652 -0.485136)
(-0.895553 -0.00202783 -0.667838)
(-0.886612 0.000220483 -0.66776)
(-0.886825 0.00172488 -0.667261)
(-0.895445 0.00224841 -0.668108)
(-0.905364 0.00221794 -0.669773)
(-0.882409 0.000130343 -0.663585)
(-0.904738 -0.0043537 -0.663011)
(-0.907327 0.000224644 -0.654124)
(-0.904666 0.00140427 -0.655012)
(-0.907102 0.00575112 -0.661954)
(-0.913962 -0.00270823 -0.672203)
(-0.90438 -0.00865088 -0.642474)
(-0.814581 -0.00325623 -0.572491)
(-0.826464 -0.000351867 -0.55147)
(-0.826145 0.00100919 -0.55394)
(-0.816115 0.00756339 -0.571294)
(-0.817233 -0.00670398 -0.590823)
(-0.83305 -0.0108049 -0.539978)
(-0.388105 0.00407416 -0.438552)
(-0.416409 0.00101911 -0.417337)
(-0.41475 -0.00382684 -0.42152)
(-0.390241 -0.00389712 -0.438229)
(-0.37317 -3.46815e-05 -0.458573)
(-0.425945 0.0102361 -0.414329)
(0.219927 0.00353654 -1.26132)
(0.220507 0.000135576 -1.24188)
(0.195569 0.00628593 -1.25084)
(0.239739 0.0200165 -1.25232)
(0.293705 -0.00466204 -1.25724)
(0.184313 -0.0277181 -1.25714)
(1.72191 -0.00257621 -0.822398)
(1.70373 -0.00423666 -0.803317)
(1.69629 0.00415334 -0.809465)
(1.72393 0.00262404 -0.815678)
(1.74403 -0.00152551 -0.821639)
(1.68963 -0.0158615 -0.807914)
(2.38353 0.000294201 0.0506464)
(2.35517 0.000731938 0.0625186)
(2.3567 0.00165072 0.0636322)
(2.38316 -0.000640516 0.051933)
(2.40735 0.00499205 0.0438412)
(2.34366 -0.00182644 0.0695542)
(2.58286 0.00192346 0.532303)
(2.57427 0.00258344 0.537404)
(2.57353 -0.00116088 0.538941)
(2.58349 -0.0053134 0.53266)
(2.59417 0.00669056 0.530147)
(2.56881 0.00834897 0.540237)
(2.4989 0.000209971 0.646034)
(2.49576 0.000488696 0.650514)
(2.49619 0.000184474 0.650411)
(2.49842 -0.00144559 0.647206)
(2.5005 0.00210756 0.646982)
(2.4951 0.00378454 0.64883)
(2.58246 0.00639526 0.669308)
(2.57707 0.00353004 0.676273)
(2.5718 -0.00237251 0.675273)
(2.5857 -0.00270091 0.67157)
(2.58978 0.00294486 0.669882)
(2.5721 0.00465305 0.676627)
(2.86842 0.0112903 0.919187)
(2.88674 0.00688557 0.919186)
(2.87122 -0.00552602 0.91936)
(2.88355 -0.00979761 0.919641)
(2.88764 0.00621128 0.912951)
(2.87285 0.0151927 0.927127)
(3.29118 0.00189804 1.21115)
(3.3286 0.00266878 1.20807)
(3.31181 0.00252829 1.20792)
(3.31016 -0.00284501 1.21119)
(3.31077 0.0137637 1.21106)
(3.28812 0.0268121 1.22272)
(3.36465 -0.0267367 0.914105)
(3.46692 -0.0110723 0.910072)
(3.44152 0.0148145 0.90842)
(3.38604 0.0225978 0.915185)
(3.33296 -0.0363474 0.91665)
(3.51449 -0.0343659 0.922662)
(1.85468 -0.0394286 0.490425)
(1.94759 -0.0154011 0.485445)
(1.93601 0.0136405 0.481741)
(1.87102 0.0316823 0.495517)
(1.79521 -0.0368083 0.503731)
(2.04512 -0.0590839 0.475685)
(0.774055 -0.0433836 0.286636)
(0.733236 -0.0109323 0.285073)
(0.748439 0.00979254 0.282424)
(0.776288 0.0446674 0.292639)
(0.780275 -0.0304099 0.30595)
(0.72787 -0.0678523 0.261936)
(0.158677 0.037711 -0.390131)
(-0.0759846 0.0353707 -0.430301)
(-0.046777 -0.0504291 -0.429382)
(0.152973 -0.047542 -0.390296)
(0.312188 0.0359427 -0.369646)
(-0.10444 0.0809967 -0.448508)
(-0.50945 0.0156213 -2.45171)
(-0.503021 0.0189584 -2.41522)
(-0.453136 -0.0297976 -2.41665)
(-0.551543 -0.0514161 -2.4446)
(-0.673751 0.0122025 -2.45646)
(-0.432278 0.0524131 -2.42628)
(1.81195 0.00601527 -2.60446)
(1.914 0.019832 -2.61058)
(1.9281 -0.0130487 -2.63112)
(1.82559 0.0354197 -2.58901)
(1.79426 -0.0265861 -2.55784)
(1.93571 0.0505998 -2.63953)
(3.01247 -0.00251267 -1.32302)
(3.13724 0.00177753 -1.32435)
(3.12103 -0.00497048 -1.32816)
(3.02062 0.00783424 -1.31846)
(2.96495 -0.0196722 -1.31067)
(3.14473 0.0241681 -1.31863)
(3.8462 -0.000374403 -0.279671)
(3.88995 0.000591821 -0.282662)
(3.88318 -0.00210502 -0.276834)
(3.84949 0.000139292 -0.282568)
(3.83148 -0.00572835 -0.283838)
(3.87527 0.00352976 -0.264979)
(4.33451 -0.000767826 0.256811)
(4.35019 0.000431914 0.254872)
(4.34639 0.000165293 0.261079)
(4.33915 0.00249819 0.253547)
(4.33581 -0.000997616 0.250463)
(4.33364 -0.00342768 0.266286)
(5.04772 0.00350404 0.138938)
(5.04762 0.00599964 0.159071)
(5.04563 -0.00499841 0.163935)
(5.04536 -0.000818293 0.138361)
(5.05173 -0.000481383 0.133529)
(5.03926 -0.00111178 0.166754)
(6.63251 0.0406606 -0.368718)
(6.67031 0.0340673 -0.341391)
(6.6277 -0.0300668 -0.329575)
(6.6991 -0.0580606 -0.375845)
(6.76388 0.0477899 -0.404765)
(6.54244 0.0722534 -0.310433)
(6.00818 0.0258542 -0.404855)
(7.0578 0.0609373 -0.500233)
(6.87583 -0.0626844 -0.46622)
(6.08801 -0.0569351 -0.42937)
(5.55386 0.164086 -0.402349)
(7.42616 0.307566 -0.451004)
(-0.892965 -0.17503 1.23984)
(0.0810764 -0.0866106 0.940223)
(-0.0917145 0.0431175 0.993768)
(-1.04397 0.158769 1.23491)
(-1.42186 -0.304403 1.41929)
(1.47577 -0.150736 0.642507)
(-2.22632 -0.0659314 1.44669)
(-2.34339 -0.0685612 1.37992)
(-2.32752 0.00649137 1.36243)
(-2.27704 0.0140102 1.43618)
(-2.41354 -0.19176 1.47851)
(-2.33538 -0.160432 1.40394)
(-1.67248 0.0569006 0.697901)
(-1.8242 0.0286507 0.80922)
(-1.77578 -0.0852842 0.787324)
(-1.74195 -0.101575 0.675339)
(-1.71788 0.0394344 0.611654)
(-1.7386 0.11317 0.849611)
(-1.42304 0.0610388 0.00353188)
(-1.55357 0.033464 0.18327)
(-1.50625 -0.0796136 0.182874)
(-1.43711 -0.0974984 -0.00207262)
(-1.32934 0.0243749 -0.0271604)
(-1.47535 0.0976222 0.249221)
(-0.0677309 0.169743 -3.40179)
(0.525125 0.223111 -3.29354)
(0.989877 -0.477981 -3.25923)
(-0.569066 -0.771712 -3.41889)
(-2.1831 0.171004 -3.43087)
(1.01509 0.88069 -3.32067)
(1.14191 0.0343756 -3.69077)
(2.46988 0.156587 -3.80016)
(2.74674 0.009522 -3.77482)
(1.24613 0.40374 -3.68525)
(0.346802 -0.0521241 -3.75067)
(3.01257 0.308218 -3.74627)
(1.63714 -0.041158 -2.41923)
(3.09877 -0.0463761 -2.41187)
(2.87819 0.017285 -2.39587)
(1.72086 0.152076 -2.38167)
(0.872954 0.0414009 -2.50527)
(4.04132 0.284044 -2.369)
(5.54816 0.00303304 -1.49233)
(6.61738 -0.0569607 -1.34688)
(6.28478 0.00472633 -1.37019)
(5.65852 -0.068447 -1.48215)
(5.07881 -0.0460421 -1.56886)
(7.50273 0.253136 -1.29114)
(9.41607 -0.0434091 -1.10371)
(10.7032 0.0774386 -1.05634)
(10.4922 0.10918 -1.06915)
(9.93188 0.205828 -1.09624)
(8.72238 -0.0701431 -1.10875)
(11.2491 0.176448 -1.05435)
(11.0568 -0.2889 -1.83779)
(12.6461 0.0827934 -1.76323)
(12.5373 0.169788 -1.75074)
(11.6869 0.719367 -1.82068)
(10.918 -0.203744 -1.88144)
(13.4155 -0.0442223 -1.61671)
(9.50261 -0.224215 0.420279)
(10.1251 -0.00402312 -0.0714109)
(10.0983 -0.0570935 0.0572747)
(9.69414 0.298149 0.394158)
(9.85981 -0.168416 0.616123)
(11.0332 -0.0941781 -0.25845)
(4.82999 0.0163331 6.51683)
(6.16209 0.0577208 5.97397)
(5.886 -0.127318 6.1461)
(4.69976 -0.0727072 6.54713)
(4.14566 0.16305 6.51537)
(7.17237 0.394236 5.95017)
(-1.3647 -0.102879 7.54035)
(-0.604182 -0.040677 7.71442)
(-0.801819 -0.0243954 7.64168)
(-1.55834 0.0888897 7.51684)
(-1.94418 -0.229236 7.53012)
(0.95944 -0.0653614 7.79255)
(-0.958606 -0.0321155 2.16051)
(-0.848142 -0.0687683 2.50985)
(-0.899823 -0.0589518 2.41178)
(-1.02764 -0.12162 2.10243)
(-1.32043 -0.296556 1.99888)
(-0.976989 -0.202653 2.95791)
(-0.805143 -0.0488741 -1.64142)
(-0.552487 -0.00192179 -1.04313)
(-0.630352 0.11281 -1.1177)
(-0.803852 0.171998 -1.71898)
(-1.2391 -0.02912 -2.22438)
(-0.603849 -0.112527 -1.04329)
(-4.3866 -0.040645 -3.43804)
(-4.3296 -0.020558 -3.28161)
(-4.31238 0.0599383 -3.28684)
(-4.38642 0.0996806 -3.46185)
(-4.42764 -0.0390302 -3.59563)
(-4.2616 -0.0908167 -3.24014)
(-0.550508 -0.238345 -0.251133)
(-0.150329 -0.211742 -0.298581)
(-0.462818 -0.0485361 -0.24779)
(-0.238448 0.285154 -0.439324)
(0.514587 -0.0868324 -0.140191)
(-0.225094 0.486443 -0.0470306)
(-1.80575 -0.0534846 0.157428)
(0.180429 -0.0732556 -0.434165)
(0.730359 0.308912 -1.22413)
(-0.374449 0.748212 -0.423562)
(-0.0537655 -0.167055 0.194214)
(-1.66854 0.0109672 0.23507)
(-1.57347 0.0301977 0.308125)
(1.57315 0.591535 -1.13009)
(1.44972 0.691266 -1.62577)
(0.0486829 0.0473654 -0.679728)
(0.153222 -0.752192 -0.0501146)
(-0.86473 -0.416369 -0.0697569)
(0.687474 0.287572 -0.431709)
(3.3401 0.773341 -1.46791)
(1.18701 0.814911 -0.80219)
(-1.40616 0.124319 -0.0718092)
(1.43703 -0.477762 -0.103292)
(0.661514 -0.153373 -0.295093)
(3.5563 0.120876 -0.85942)
(4.98211 0.372639 -1.68474)
(4.72338 0.181049 -1.9789)
(2.62203 0.763061 -0.0994314)
(2.67652 0.463346 0.715476)
(3.15251 -0.113475 -0.32562)
(4.15259 -0.0753002 -0.922705)
(5.30973 0.200947 -1.94826)
(5.74661 -0.108685 -2.6627)
(5.68633 0.390157 -1.96866)
(4.99867 0.35032 -0.683064)
(5.4028 -0.0419828 -1.49167)
(4.15367 -0.212508 -1.0461)
(4.78753 0.02486 -2.00257)
(5.09135 -0.0893176 -2.69615)
(4.74645 0.305077 -2.15567)
(4.83962 0.0262591 -1.27782)
(4.83001 -0.00108184 -1.67788)
(3.65832 -0.253313 -0.976823)
(4.28762 -0.125807 -1.93316)
(4.41603 -0.0540582 -2.50429)
(4.14194 0.318954 -1.93189)
(4.55863 -0.348163 -1.60504)
(4.22115 -0.0283861 -1.55489)
(3.33956 -0.262243 -0.568144)
(4.01581 -0.373417 -1.66889)
(4.1021 -0.196054 -2.25096)
(4.42008 0.214631 -1.82398)
(5.02759 -0.796747 -1.78726)
(3.71786 0.0960987 -1.26386)
(3.15318 -0.379464 0.132887)
(3.86249 -0.769206 -1.22254)
(4.02863 -0.528978 -2.02597)
(4.94178 -0.19694 -2.11083)
(5.18717 -0.458658 -2.10197)
(3.20537 0.613871 -0.935692)
(2.51845 -0.389191 0.660329)
(3.24737 -0.879311 -0.720261)
(3.50845 -0.751112 -1.87686)
(3.39841 -0.330698 -2.13943)
(3.44244 0.228712 -2.53578)
(2.17444 0.986279 -0.620354)
(1.05611 -0.282858 0.394931)
(1.66166 -0.400397 -0.68296)
(1.97508 -0.123399 -1.56148)
(1.47003 0.199282 -1.25731)
(1.05521 0.320108 -1.14961)
(0.655035 0.485366 -0.0770503)
(-1.14665 -0.195059 -1.30108)
(-0.361029 0.267038 0.233705)
(-1.63968 -0.348253 -0.764415)
(-0.0406071 0.502902 -0.0240369)
(0.645071 -0.327829 0.275062)
(-0.708061 0.260392 -1.14614)
(-2.60792 0.230727 -1.11248)
(-1.55568 0.570804 1.109)
(-1.06022 0.109569 0.922858)
(-0.11799 0.153205 1.34638)
(-1.1421 -0.975183 0.969533)
(-2.50632 0.0850793 -1.33128)
(-3.06588 0.480212 0.454551)
(-1.57817 0.769757 2.37363)
(-1.90481 -0.0148663 2.52264)
(-0.895258 -1.13049 2.42924)
(-1.41725 -1.69004 1.75985)
(-3.02153 -0.352605 -0.273381)
(-2.97847 0.387815 2.49325)
(-1.31761 0.194887 3.85012)
(-0.915362 -0.503766 4.96113)
(-0.987503 -1.21317 4.07947)
(0.0817603 -1.27407 3.01574)
(-1.88878 -0.482856 1.88961)
(-2.19742 0.632788 2.44963)
(0.571214 -0.125881 3.27153)
(2.3493 -1.08657 4.03715)
(1.88896 -0.687158 5.58986)
(2.10224 -0.210013 4.88195)
(-0.0246717 0.158215 5.44676)
(-4.52539 0.65642 0.714389)
(-4.11902 0.835283 1.37975)
(-0.415691 0.191195 2.05571)
(3.16478 -0.317437 1.70728)
(4.17058 -0.0919505 2.12348)
(1.53271 0.0567453 2.1558)
(-4.38024 0.222454 0.308579)
(-4.41621 0.328319 -0.0611836)
(-2.30562 0.221026 -0.094781)
(-1.03444 -0.42963 -0.366504)
(-0.27438 -0.185928 0.491533)
(-1.40268 0.368181 -0.337379)
(-5.27166 0.668885 1.09783)
(-6.80651 1.00098 0.400962)
(-3.80785 -0.355786 0.420233)
(-0.424491 -1.57719 1.9783)
(3.07954 -0.27008 1.89483)
(-1.99992 0.0642754 -0.171113)
(-0.387151 0.341663 1.37047)
(-7.9119 2.3866 1.43404)
(-8.81243 1.82959 0.94517)
(0.0991022 0.459921 2.69556)
(6.12189 -0.108829 2.36904)
(1.80788 1.00877 -0.805869)
(3.16429 -0.615747 1.81981)
(0.148816 0.70307 1.16011)
(-4.85337 1.78885 1.03407)
(2.67751 1.75635 2.28922)
(5.44568 0.0205919 -1.19826)
(1.51584 2.36326 0.469395)
(3.77028 -1.07194 -0.27944)
(3.82508 -0.681007 -1.53286)
(2.78979 -1.64988 0.406592)
(2.88044 1.58432 -4.63047)
(4.49912 -0.799368 -6.59317)
(1.5239 2.526 0.751734)
(2.67824 0.0635506 -3.08567)
(3.79704 0.439124 -5.2212)
(3.1454 0.0692112 -4.54736)
(3.1197 0.49425 -3.48666)
(3.20043 -0.54929 -3.24962)
(1.03743 -0.200534 -0.871362)
(-0.340493 -0.340564 -3.71285)
(-0.459819 0.2857 -1.34235)
(-0.704422 -0.160765 -3.06174)
(-0.674063 0.556804 -0.607189)
(0.3912 0.230476 0.187765)
(-0.385304 0.264298 -3.19894)
(-2.32484 -0.41948 -3.6596)
(-2.21001 0.400028 -0.467893)
(-2.19223 0.143701 -1.01612)
(-1.03294 0.986414 1.39148)
(-2.22957 -0.058577 -0.389541)
(-2.46984 0.395453 -4.02465)
(-3.06887 0.131719 -2.40339)
(-3.81844 0.85817 1.34834)
(-3.53067 0.25141 2.43525)
(-2.77517 0.139027 3.24887)
(-3.89363 -1.05601 -0.914852)
(-2.90945 0.225537 -3.28595)
(-4.11396 0.296448 -0.632454)
(-6.01862 0.339141 3.83447)
(-4.93878 -0.580764 6.70351)
(-4.98352 -0.789257 5.71684)
(-5.20778 -1.29097 0.766003)
(-3.52756 -0.0899272 -0.511114)
(-6.85075 0.371147 -0.90623)
(-9.13995 0.272861 2.16407)
(-5.45273 -1.10494 4.33982)
(-2.55206 -1.0269 6.01695)
(-3.82574 -0.844949 5.59831)
(-2.98921 0.000612721 6.07739)
(-4.90486 0.00328202 -3.6638)
(-7.59061 0.53992 -2.70343)
(-4.55027 0.315589 -3.67145)
(-2.52828 -0.181296 -3.11106)
(-4.93645 -0.516567 -1.63907)
(-3.4957 0.18031 -1.93485)
(-2.13015 -0.389251 -3.2859)
(-4.00514 -0.0878948 -4.17378)
(-2.89508 -0.11308 -4.66199)
(-2.04629 -0.656751 -4.13263)
(-2.6704 -0.38387 -3.92094)
(-1.15697 0.222721 -3.53019)
(-2.27536 -0.472125 -1.31924)
(-1.69098 -1.52437 -2.77916)
(-0.847002 -2.46691 -1.85534)
(0.548876 -2.39878 0.377499)
(1.52566 -1.07375 1.47715)
(1.20164 0.0749039 1.41623)
(-5.48072 0.12482 2.23994)
(-6.39496 0.193081 0.606966)
(-4.74961 -0.880307 2.35906)
(-0.480306 -1.0614 5.43775)
(3.11874 -0.507125 1.72591)
(1.92758 1.02045 2.80803)
(-2.58954 -0.358526 4.05436)
(-4.44702 0.429028 4.39261)
(-6.05843 0.125461 5.78507)
(1.50767 0.691058 3.6946)
(3.45758 0.209876 -3.90295)
(1.12385 1.62939 1.49662)
(-2.98693 -1.14306 3.19794)
(-1.06366 0.646981 -0.362898)
(-0.516372 -1.21368 -0.192606)
(2.59216 1.43631 -5.64019)
(4.1844 -1.02269 -7.22792)
(-2.40041 1.3923 2.63028)
(3.6664 0.425755 -5.42878)
(3.97825 0.563933 -6.17006)
(3.38437 0.272069 -5.33402)
(3.25467 0.366712 -4.21492)
(3.41397 -1.06753 -4.42542)
(2.4873 -0.973572 -3.78313)
(1.16732 -0.910576 -4.17673)
(0.148584 0.252952 -2.67954)
(0.95974 -0.0564307 -4.35661)
(0.733851 0.0880116 -2.92209)
(0.749591 0.36658 -0.813449)
(1.45705 0.702879 -3.52507)
(-1.72218 -1.4619 -4.06186)
(-1.73467 0.138606 -3.1918)
(-1.74028 0.0432131 -3.32393)
(-2.22394 1.46718 -0.822466)
(-2.75149 0.631806 -1.73216)
(-2.32848 1.26241 -3.06037)
(-1.38537 -1.07842 -3.94749)
(-3.83399 0.582598 -1.72522)
(-4.04829 0.267065 -0.0649829)
(-4.08931 1.33368 2.26161)
(-4.52477 0.24758 -1.53213)
(-2.04623 0.857917 -2.29323)
(-2.50952 -0.94724 -2.73282)
(-5.77583 0.269124 0.977609)
(-5.74513 -0.206869 3.83938)
(-6.02772 1.02872 6.76904)
(-6.00661 0.212944 1.54913)
(1.05742 1.04316 -0.0657748)
(-2.85612 -0.876946 0.651113)
(-7.95598 -0.625769 3.61955)
(-6.50028 -1.35561 5.32106)
(-4.12011 -0.563575 6.33535)
(-4.67434 -0.112267 3.71029)
(-1.97094 0.601197 3.09436)
(-2.33423 -0.600759 1.62542)
(-6.07119 -0.380338 2.76886)
(-4.7141 -0.412838 2.56123)
(-3.00453 -0.374744 1.56994)
(-3.0053 0.0457897 1.68416)
(-3.63321 0.601236 1.96799)
(-2.13893 -0.545383 1.96852)
(-2.14604 -0.607683 1.97463)
(-0.373749 -0.703026 1.62724)
(-0.337839 -0.63451 1.42772)
(-0.629057 -0.544928 1.83118)
(-0.668254 -0.176361 1.86687)
(-1.27279 -0.0970352 1.96632)
(0.371274 -1.24182 1.86026)
(1.20129 -2.79018 1.4948)
(1.72987 -2.386 1.35929)
(2.0905 -1.63857 0.977176)
(2.32873 -0.485183 1.24605)
(-3.41861 0.545001 2.49711)
(-3.40712 -0.286789 2.40165)
(-1.0173 -2.45354 2.7592)
(1.29547 -1.5303 2.25661)
(1.97386 -1.02928 -0.712859)
(2.52758 0.0493636 1.48781)
(-2.39791 0.340043 4.94069)
(-4.13154 1.13452 6.0785)
(-3.68738 -0.95274 6.68086)
(1.93285 0.204473 0.172113)
(2.63087 0.15486 -4.40281)
(2.55324 0.665278 0.0530968)
(-5.91329 -0.00238406 4.56978)
(-7.81062 2.26206 4.98969)
(-7.91087 1.06273 5.01552)
(1.89415 1.7021 -4.4499)
(3.42088 -0.553305 -6.26236)
(-6.22577 -0.339858 2.64951)
(3.71449 0.0928306 -4.59452)
(3.53809 0.28214 -4.41873)
(3.4423 0.814842 -4.14622)
(3.67062 0.835395 -4.23651)
(3.79283 -0.711148 -4.49207)
(3.26833 -0.75332 -3.96681)
(-1.55862 0.234402 -2.65034)
(-0.235228 0.375303 -2.735)
(0.382791 -0.546559 -2.65018)
(-2.10018 -0.739209 -2.70729)
(-4.08875 0.255314 -2.6118)
(0.241382 1.07945 -2.7623)
(-4.69386 0.00818457 0.92289)
(-4.27622 0.181926 1.38452)
(-3.26747 -0.00236609 1.32824)
(-5.04079 -0.0713739 1.01397)
(-5.68981 0.148407 0.598812)
(-3.23538 0.430241 1.20202)
(-4.52044 -0.257179 7.46443)
(-4.9768 -0.0419261 7.31288)
(-4.32545 0.240259 7.31334)
(-4.7003 0.385259 7.33048)
(-5.04782 -0.118858 7.05666)
(-3.79595 -0.0152234 7.59404)
(-6.60806 -0.0189833 -2.12023)
(-4.75496 0.0825277 -2.25605)
(-4.05869 0.162094 -2.17329)
(-6.54787 0.459927 -2.19662)
(-7.7067 0.0439161 -2.61447)
(-3.24243 0.058242 -2.1542)
(-6.13932 0.0241693 -0.139089)
(-6.84481 0.0213612 0.81431)
(-6.46194 0.154119 1.00273)
(-6.06646 0.411888 -0.322204)
(-5.36718 -0.0614302 -1.52936)
(-6.60928 -0.100791 1.35062)
(-3.61139 -0.038803 -2.14617)
(-4.87312 0.0529834 -1.12978)
(-4.9783 -0.0348519 -0.513077)
(-3.30245 0.333186 -2.52436)
(-2.6547 -0.192849 -3.29551)
(-5.51763 -0.0979936 0.862645)
(-7.03388 -0.13793 -3.78964)
(-7.42093 -0.155063 -3.55724)
(-7.45076 0.0957979 -3.54946)
(-6.9831 0.217238 -3.95203)
(-6.46356 -0.0719999 -4.63232)
(-6.84802 -0.170167 -3.05293)
(-3.8333 0.0554204 -4.58717)
(-4.94375 0.0456842 -3.9288)
(-4.98991 -0.0824898 -3.77913)
(-3.51477 -0.0397351 -4.95872)
(-2.48825 0.0375894 -5.73561)
(-6.02561 0.143089 -2.8739)
(-0.663504 0.0445558 -6.65399)
(-1.23287 0.0790251 -6.4786)
(-1.29534 -0.050828 -6.43613)
(-0.509855 0.0256186 -6.82265)
(-0.217243 0.0576314 -7.05288)
(-2.55409 0.18476 -5.51737)
(-5.26694 -0.047655 -4.84826)
(-5.63511 -0.0319431 -4.92452)
(-5.62423 -0.0700584 -5.04107)
(-5.21873 -0.113154 -5.11892)
(-4.95776 -0.0485289 -5.38346)
(-5.43193 -0.0209973 -4.35312)
(-2.99709 0.119016 -5.95324)
(-3.26147 0.120478 -6.05362)
(-3.17794 -0.2004 -5.95363)
(-2.95086 -0.320134 -6.16002)
(-2.81652 0.177926 -6.22149)
(-3.71204 0.326695 -5.60204)
(-0.887031 0.0635903 -5.57495)
(-0.988769 0.0688091 -5.68313)
(-0.989434 -0.0490976 -5.63138)
(-0.874677 -0.0519914 -5.66906)
(-0.839383 0.151829 -5.69558)
(-1.13895 0.208598 -5.55332)
(-4.00075 -0.067514 -3.65085)
(-4.34567 -0.0215854 -4.46734)
(-4.33411 0.0103204 -4.54803)
(-4.01716 0.0736601 -3.74606)
(-3.86609 -0.083323 -3.53344)
(-4.28537 -0.0658163 -4.14452)
(-3.60978 0.117135 -5.31932)
(-3.4595 0.113853 -5.73614)
(-3.34686 -0.193222 -5.69562)
(-3.74515 -0.281187 -5.3491)
(-3.94306 0.133085 -5.09441)
(-3.58731 0.275742 -5.51704)
(-1.27853 0.0553987 -3.62154)
(-1.24396 0.0443124 -3.7612)
(-1.24676 -0.0624402 -3.71303)
(-1.30796 -0.106818 -3.62739)
(-1.34193 0.0648427 -3.5757)
(-1.34706 0.113641 -3.67203)
(-2.92348 -0.123201 0.891579)
(-3.32761 -0.026736 -0.109931)
(-3.34055 0.0917616 -0.183957)
(-2.92608 0.30055 1.08859)
(-2.62359 -0.120086 1.53377)
(-3.35344 -0.0391675 -0.118537)
(-4.35983 0.0890893 -2.47618)
(-4.28052 0.0984061 -3.20748)
(-4.17103 -0.152153 -3.30612)
(-4.5202 -0.173425 -2.43157)
(-4.73188 0.132674 -1.84443)
(-4.19277 0.258125 -3.3056)
(-2.64224 0.0493188 -0.555417)
(-2.46428 0.0498336 -0.787962)
(-2.42044 -0.0500503 -0.791605)
(-2.7157 -0.120011 -0.51427)
(-2.83187 0.0645448 -0.368493)
(-2.41364 0.117283 -0.804753)
(-0.712067 0.0388653 5.94818)
(-0.782101 0.0926639 5.62406)
(-0.80766 -0.199758 5.71766)
(-0.808456 -0.0778253 6.12006)
(-0.853604 0.183297 6.32061)
(-0.554753 0.419837 5.25082)
(-4.23481 0.00124941 4.58945)
(-4.24308 0.00937982 4.05599)
(-4.23965 -0.0510169 3.93953)
(-4.31192 0.0563282 4.56984)
(-4.4358 0.120278 4.8427)
(-4.08395 0.188841 3.63875)
(-3.00761 0.000115358 3.16546)
(-2.95507 0.0186329 2.85829)
(-2.88457 0.00493336 2.74066)
(-3.00207 0.0324741 3.08996)
(-3.0646 0.0275189 3.26219)
(-2.84528 0.0286266 2.65256)
(-2.18869 0.0257915 10.8)
(-1.38331 0.05642 10.9242)
(-1.51325 -0.150511 10.9393)
(-2.42178 -0.0973869 10.765)
(-3.09229 0.00854789 10.5052)
(-0.312905 0.25416 10.8332)
(-3.36329 -0.0512172 8.94738)
(-3.07152 -0.0116637 9.40424)
(-3.09863 -0.0386984 9.3423)
(-3.46487 0.0641636 8.78461)
(-3.81369 -0.0887974 8.40268)
(-2.47675 0.00456911 9.57447)
(-1.21849 -0.0624631 5.70421)
(-1.26751 -0.0373687 5.86697)
(-1.25097 0.0345 5.77672)
(-1.20768 0.119654 5.56563)
(-1.21794 -0.0989592 5.41828)
(-1.21615 -0.133668 5.91259)
(-2.76895 -0.0853683 7.53012)
(-2.83496 -0.0441033 7.84202)
(-2.87731 0.0435743 7.7609)
(-2.84224 0.108442 7.49683)
(-3.04805 -0.279857 7.5592)
(-2.2972 -0.309741 8.02205)
(-0.698517 -0.0727489 5.45091)
(-0.956939 -0.0502581 5.77423)
(-0.951871 0.051777 5.71823)
(-0.725185 0.0786735 5.43032)
(-0.81885 -0.211307 5.54031)
(-1.06842 -0.264913 5.97189)
(0.610875 -0.0271356 3.34557)
(0.556794 -0.0273506 3.43922)
(0.55322 0.00780039 3.42101)
(0.606167 0.00803336 3.37663)
(0.593869 -0.0668817 3.43337)
(0.474869 -0.067245 3.52012)
(-0.991413 -0.0339005 2.17663)
(-1.12439 -0.0094619 2.23585)
(-1.1299 0.0416425 2.20229)
(-0.992057 0.067949 2.19261)
(-0.942584 -0.156386 2.20818)
(-1.13682 -0.196649 2.46526)
(1.19551 0.00790034 2.31078)
(1.10862 0.0299067 2.3736)
(1.10637 -0.00632766 2.3482)
(1.19604 0.0122128 2.34149)
(1.2571 -0.00306118 2.34101)
(1.06393 -0.0400217 2.44921)
(0.913515 -0.00163536 1.13651)
(0.917747 -0.000908903 1.14297)
(0.91302 -0.00517659 1.12575)
(0.924127 -0.00675901 1.15466)
(0.927429 0.000181382 1.13698)
(0.923959 0.000898307 1.14727)
(-3.05113 -0.0386933 0.714664)
(-3.23939 -0.00627878 0.591969)
(-3.19642 0.0724797 0.573745)
(-2.98986 0.11205 0.694293)
(-2.81032 -0.0182215 0.704332)
(-3.11435 -0.0851855 0.497779)
(1.64125 0.0178638 0.683959)
(1.62794 0.0267035 0.698429)
(1.62658 -0.0188947 0.674315)
(1.65949 -0.0213331 0.660418)
(1.70218 0.0381888 0.615854)
(1.62761 0.0338973 0.673326)
(1.29058 -0.0016204 -0.556825)
(1.30113 0.00183183 -0.560249)
(1.29324 0.00656501 -0.570278)
(1.28697 0.00714506 -0.55836)
(1.27215 -0.00107193 -0.571914)
(1.29268 -0.00531193 -0.573932)
(-3.49579 -0.00953262 -1.71603)
(-3.5045 -0.00760799 -1.81843)
(-3.51253 0.00588584 -1.81614)
(-3.50994 0.00981297 -1.70897)
(-3.51854 -0.0137053 -1.65862)
(-3.52016 -0.0183349 -1.8382)
(2.11585 0.0153548 -3.21788)
(2.13877 0.00989958 -3.36813)
(2.13067 -0.0296965 -3.32867)
(2.12301 -0.0432628 -3.18499)
(2.12186 0.0173606 -3.07438)
(2.126 0.0372028 -3.30218)
(1.55066 0.0098009 -0.977874)
(1.54043 0.00585194 -0.985389)
(1.53991 -0.012053 -0.981829)
(1.54875 -0.0167303 -0.980265)
(1.55354 0.00647306 -0.976092)
(1.5425 0.0147619 -0.982981)
(2.19215 0.0196079 0.218628)
(2.2878 0.0432187 0.207287)
(2.30828 0.0407317 0.145538)
(2.30225 0.0200439 0.230684)
(2.32668 -0.0437523 0.240622)
(2.25007 -0.0440781 0.224392)
(1.14778 0.00257693 -3.81465)
(1.01057 -0.0325799 -4.05475)
(0.772221 -0.0838608 -4.30645)
(0.658805 -0.0604132 -4.31357)
(0.570753 -0.0207517 -4.27416)
(0.769594 -0.00774917 -4.15096)
(-0.199868 0.0276952 -0.350343)
(-0.304192 0.100633 -0.416868)
(-0.392267 0.204353 -0.354271)
(-0.205089 0.21683 -0.178453)
(-0.0984995 0.102605 -0.102375)
(-0.0286307 0.0119884 -0.143904)
(0.440354 -0.0106126 -0.153882)
(0.450664 -0.0270654 -0.182361)
(0.463385 -0.0220356 -0.200235)
(0.474194 -0.0107535 -0.217966)
(0.48089 -0.00597568 -0.220196)
(0.455648 0.000270091 -0.20559)
(0.161408 -0.0229128 -1.89941)
(0.150617 -0.0649007 -2.07931)
(0.115485 -0.0703079 -2.18242)
(0.0666256 -0.0557102 -2.12067)
(0.0466974 -0.0129447 -2.10258)
(0.00218383 0.0159112 -2.02924)
(0.318112 0.013892 -1.29964)
(0.344058 0.0455528 -1.31441)
(0.388258 0.0908245 -1.25002)
(0.440252 0.101551 -1.2458)
(0.470742 0.060253 -1.24333)
(0.460553 0.0164104 -1.29381)
(0.271811 -0.00353607 0.15708)
(0.267892 -0.00802364 0.155451)
(0.262294 -0.00160113 0.152606)
(0.254331 0.00380717 0.157218)
(0.250993 -0.00256696 0.154446)
(0.25453 -0.00283146 0.147691)
(0.633272 -0.0159419 -0.833869)
(0.620941 -0.0379984 -0.848396)
(0.59149 -0.0468344 -0.858485)
(0.561679 -0.0443804 -0.859789)
(0.538144 -0.0330025 -0.867449)
(0.551283 -0.0122024 -0.837895)
(-0.11802 0.0118337 -1.00964)
(-0.109515 0.0345987 -1.0251)
(-0.0907194 0.0493416 -1.01006)
(-0.0535204 0.0483076 -1.00959)
(-0.0296819 0.0285029 -1.0105)
(-0.018895 0.00631571 -1.0022)
(-0.219288 -0.000970598 0.159494)
(-0.220707 -0.00416146 0.15922)
(-0.221444 -0.00826199 0.158168)
(-0.219201 -0.0104774 0.160286)
(-0.216263 -0.00582538 0.161784)
(-0.215376 1.91303e-05 0.152755)
(0.0781002 -0.00651928 -0.982289)
(0.0747352 -0.0171171 -0.972484)
(0.0690869 -0.0217581 -0.97228)
(0.0633321 -0.0220711 -0.982619)
(0.0583026 -0.0110489 -0.998023)
(0.0457601 0.000178452 -0.97922)
(-0.234606 0.00508383 -1.14713)
(-0.228802 0.0165952 -1.16021)
(-0.217437 0.0257498 -1.15446)
(-0.205742 0.025768 -1.15624)
(-0.197503 0.0158833 -1.15749)
(-0.192566 0.0042422 -1.15653)
(-0.56114 -0.000554999 -0.141749)
(-0.560183 -0.00308801 -0.141368)
(-0.5639 -0.00843996 -0.142086)
(-0.570318 -0.0113236 -0.143366)
(-0.575192 -0.00569855 -0.143148)
(-0.567724 8.22042e-05 -0.147586)
(0.146315 -0.00400576 -2.19148)
(0.143382 -0.00796412 -2.17777)
(0.141784 -0.00950566 -2.18411)
(0.133721 -0.0100406 -2.22112)
(0.130632 -0.00614774 -2.25808)
(0.131972 -0.00164703 -2.21486)
(-0.7365 0.00284254 -1.01648)
(-0.736662 0.00941269 -1.02463)
(-0.731647 0.0158888 -1.01874)
(-0.725274 0.0175854 -1.00835)
(-0.719413 0.008643 -1.00283)
(-0.720029 0.000326095 -1.0064)
(-2.2685 -0.00167901 0.245774)
(-2.26783 -0.00145976 0.241369)
(-2.27088 0.00176622 0.242859)
(-2.28651 0.00255905 0.246411)
(-2.29814 -0.00530535 0.255142)
(-2.27698 -0.00619233 0.235348)
(0.263059 -0.00200426 -4.5837)
(0.260694 -0.00324851 -4.59235)
(0.263768 -0.0024585 -4.59779)
(0.285492 -0.00504217 -4.58988)
(0.303577 0.000945104 -4.60243)
(0.278868 0.00462162 -4.60888)
(0.182037 0.00507693 0.0241524)
(0.174618 0.00837614 0.0256631)
(0.183306 0.00554051 0.0288707)
(0.201361 0.00588718 0.0332265)
(0.215481 0.00886495 0.0392718)
(0.206936 0.0050843 0.0396614)
(2.63326 -1.3694 -3.11641)
(0.344782 1.19044 -3.95261)
(2.08387 0.347941 -3.21436)
(2.74175 -0.908898 -3.24629)
(2.22186 -0.297744 -2.49382)
(3.10035 0.82443 -2.82938)
(2.62031 -0.897295 -3.04279)
(0.619347 0.946584 -4.37178)
(2.55782 0.522207 -0.169788)
(2.71913 -1.41718 -0.850809)
(0.960801 -1.36766 -4.66129)
(2.55497 0.195591 -2.30554)
(1.86738 -0.0544997 -0.649238)
(0.27227 0.178441 -4.02137)
(2.07543 0.230926 4.70522)
(1.99072 -1.39512 2.54544)
(0.577888 -0.445425 -3.97161)
(1.72403 -0.244632 -1.23298)
(-1.35848 -0.394688 -2.71446)
(1.28538 0.427734 -8.13579)
(-1.41962 -0.494393 -7.48502)
(-2.16381 -0.0865427 -4.53929)
(-2.24305 -0.439994 -4.43341)
(-2.80917 -0.395297 -0.511679)
(1.89063 0.408309 -3.93746)
(1.95721 0.484014 -6.51849)
(1.26967 -0.44599 -6.95668)
(0.352906 -1.23159 -8.23018)
(1.40247 -1.53135 -4.51737)
(3.08991 -0.382801 -1.57144)
(0.664624 0.18892 -4.52725)
(1.32897 0.251929 -4.12886)
(0.447651 -0.0433646 -5.16668)
(1.56404 -0.535632 -4.28796)
(1.81799 -0.781062 -3.61774)
(0.85602 -0.172346 -3.20349)
(0.349509 -0.295185 -2.4056)
(-1.80531 0.383148 -4.15799)
(-3.06287 -0.623137 -2.68655)
(-4.66203 0.524771 0.764425)
(-1.62467 -0.73574 -3.57811)
(4.88708 0.184174 0.719064)
(2.89818 -0.0344628 -1.09099)
(1.73267 0.447513 -5.93815)
(1.08653 -1.27124 -3.1636)
(1.0164 -0.973652 -0.738103)
(3.76139 -0.656419 -0.0282193)
(3.96655 0.0578017 0.474839)
(2.61711 0.192851 -1.80093)
(1.63806 0.0537393 -3.36388)
(2.50832 -0.516307 -1.92637)
(2.74971 -0.382713 -1.73617)
(2.48501 -0.234762 -2.10196)
(2.67438 -0.00776918 -0.327097)
(1.81156 -0.837982 -0.00296493)
(-3.93565 -0.0677496 0.151865)
(-4.51513 -0.767892 3.30646)
(-5.22193 0.524459 5.70747)
(-1.15457 0.753572 3.54945)
(2.55453 1.24852 1.36313)
(3.59253 -0.410038 1.01049)
(0.148938 -0.480731 1.3474)
(-0.60368 -1.01961 3.35626)
(-1.05672 -0.114517 5.18363)
(2.15147 0.715653 3.01952)
(2.63848 0.337884 1.27721)
(1.73905 -0.101334 0.596798)
(1.44286 -0.293655 1.06)
(1.32656 -0.289413 1.44366)
(1.1493 -0.0163589 1.8473)
(1.31929 0.218736 0.822706)
(1.14711 0.00253964 0.355239)
(1.25586 -1.29483 2.00926)
(-3.01754 -1.19503 3.98216)
(-3.36005 -1.1184 5.34847)
(-2.0959 0.256308 5.44418)
(-0.0842832 1.29911 3.03326)
(0.979169 0.844902 1.98218)
(1.62456 -1.01054 2.85288)