/*--------------------------------*- C++ -*----------------------------------*\
| =========                 |                                                 |
| \\      /  F ield         | OpenFOAM: The Open Source CFD Toolbox           |
|  \\    /   O peration     | Version:  v1612+                                |
|   \\  /    A nd           | Web:      www.OpenFOAM.com                      |
|    \\/     M anipulation  |                                                 |
\*---------------------------------------------------------------------------*/
FoamFile
{
    version     2.0;
    format      ascii;
    class       volScalarField;
    location    "0.95";
    object      p_rgh;
}
// * * * * * * * * * * * * * * * * * * * * * * * * * * * * * * * * * * * * * //

dimensions      [1 -1 -2 0 0 0 0];

internalField   nonuniform List<scalar> 
320
(
-9800.2
-9800.2
-9800.21
-9800.2
-0.000502799
2.27382e-05
0.0046522
-0.00190968
-0.000802628
0.000976701
-0.000104081
-0.00114371
0.00268336
0.00343353
-0.00191757
0.00278069
-9800.16
-9800.17
-9800.19
-9800.15
-9800.15
-9800.12
-9800.17
-9800.15
-9800.15
-9800.2
-9800.15
-9800.21
-9800.21
-9800.21
-9800.21
-9800.2
-9800.2
-9800.21
-9800.19
-9800.2
-9800.21
-9800.21
-9800.2
-9800.21
-9800.2
-9800.2
-9800.21
-9800.2
-9800.21
-9800.21
-9800.21
-9800.2
-9800.2
-9800.2
-9800.2
-9800.21
-9800.21
-9800.21
-9800.21
-9800.21
0.000967225
-0.00311904
0.000152795
0.00203094
0.00449139
0.00487692
0.00294329
0.00301171
0.00402145
-0.00191454
0.00399003
0.00361662
0.0022775
-0.00329973
0.000566806
0.00173286
-0.00095416
-0.000630229
0.00226091
-0.0013007
-9800.21
-9800.15
-9800.21
-9800.21
-9800.21
-9800.21
-9800.21
-9800.21
-9800.2
-9800.14
-9800.2
-9800.18
-9800.16
-9800.13
-9800.2
-9800.18
-9800.15
-9800.17
-9800.19
-9800.14
-9800.21
-9800.2
-9800.2
-9800.21
-9800.21
-9800.21
-9800.21
-9800.21
-9800.21
-9800.2
-9800.21
-9800.21
-9800.22
-9800.21
-9800.2
-9800.21
-9800.2
-9800.2
-9800.22
-9800.21
-9800.21
-9800.2
-9800.21
-9800.21
-9800.21
-9800.21
-9800.21
-9800.21
-9800.21
-9800.2
-9800.21
-9800.21
-9800.21
-9800.21
-9800.2
-9800.21
-9800.2
-9800.2
-9800.21
-9800.21
-9800.2
-9800.2
-9800.21
-9800.2
-9800.21
-9800.21
-9800.21
-9800.2
-9800.2
-9800.2
-9800.2
-9800.21
-9800.21
-9800.21
-9800.21
-9800.21
-9800.21
-9800.21
-9800.21
-9800.21
-9800.21
-9800.21
-9800.21
-9800.21
-9800.2
-9800.2
-9800.2
-9800.21
-9800.21
-9800.21
-9800.21
-9800.21
-9800.21
-9800.2
-9800.21
-9800.21
-0.000868948
0.000239308
-0.00555957
-0.000769166
-0.000972812
-0.00366899
0.00401391
1.20528e-05
-0.000923876
-0.0015027
-0.00321895
0.00025538
0.00172075
0.000437063
-0.00300769
-0.00251757
-0.00357125
0.00137334
0.000861763
-0.00253841
0.00140147
-0.00305728
-0.00385183
-0.000132374
-0.00140588
0.00264547
0.000751295
-0.00567183
-9800.14
-9800.15
-9800.14
-9800.15
-9800.17
-9800.14
-9800.16
-9800.18
-9800.17
-9800.18
-9800.12
-9800.17
-9800.21
-9800.17
-9800.13
-9800.15
-9800.14
-9800.15
-9800.16
-9800.14
-9800.15
-9800.15
-9800.16
-9800.17
-9800.13
-9800.17
-9800.15
-9800.12
-9800.2
-9800.21
-9800.2
-9800.2
-9800.2
-9800.2
-9800.22
-9800.21
-9800.21
-9800.21
-9800.21
-9800.21
-9800.21
-9800.2
-9800.2
-9800.2
-9800.2
-9800.22
-9800.22
-9800.2
-9800.2
-9800.2
-9800.19
-9800.2
-9800.21
-9800.22
-9800.22
-9800.2
-9800.21
-9800.21
-9800.2
-9800.2
-9800.2
-9800.21
-9800.22
-9800.21
-9800.21
-9800.21
-9800.21
-9800.21
-9800.2
-9800.2
-9800.2
-9800.2
-9800.2
-9800.21
-9800.21
-9800.2
-9800.2
-9800.2
-9800.2
-9800.2
-9800.21
-9800.22
-9800.22
-9800.21
-9800.21
-9800.21
-9800.21
-9800.21
-9800.21
-9800.21
-9800.21
-9800.21
-9800.21
-9800.21
-9800.21
-9800.21
-9800.2
-9800.2
-9800.2
-9800.2
-9800.2
-9800.21
-9800.21
-9800.21
-9800.2
-9800.21
-9800.2
-9800.21
-9800.21
-9800.21
-9800.21
-9800.21
0.00220251
0.00157456
0.00150025
-0.000850416
-9800.21
-9800.21
-9800.19
-9800.15
)
;

boundaryField
{
    top_fluid_surface
    {
        type            totalPressure;
        rho             rho;
        psi             none;
        gamma           1;
        p0              uniform 0;
        value           nonuniform List<scalar> 
64
(
0
0
0
-1.17829e-09
-2.49563e-10
0
-3.1917e-11
-1.87137e-10
0
0
-3.71381e-10
0
0
-2.99802e-09
0
0
0
0
0
0
0
-4.87157e-10
0
0
0
-3.13069e-09
0
0
-7.7272e-10
-2.54686e-10
0
-1.03701e-09
-3.55282e-10
-1.53527e-10
-7.41264e-09
-5.86911e-10
-5.90932e-10
-2.68467e-09
0
0
-1.10372e-09
-2.52881e-08
-3.40757e-09
0
0
0
-3.27611e-09
-8.1411e-10
-4.06429e-09
0
0
-1.8132e-09
0
-5.73202e-10
-3.31871e-09
-3.76354e-10
-1.09182e-09
0
0
-5.4681e-09
0
0
0
-9.22279e-11
)
;
    }
    bottom_fluid_surface
    {
        type            fixedFluxPressure;
        gradient        uniform 0;
        value           nonuniform List<scalar> 
64
(
-9800.2
-9800.2
-9800.21
-9800.2
-9800.21
-9800.21
-9800.21
-9800.2
-9800.2
-9800.2
-9800.2
-9800.21
-9800.21
-9800.21
-9800.21
-9800.21
-9800.21
-9800.21
-9800.21
-9800.21
-9800.21
-9800.21
-9800.21
-9800.21
-9800.2
-9800.2
-9800.2
-9800.21
-9800.21
-9800.21
-9800.21
-9800.21
-9800.21
-9800.2
-9800.21
-9800.21
-9800.21
-9800.21
-9800.21
-9800.21
-9800.21
-9800.21
-9800.21
-9800.21
-9800.21
-9800.21
-9800.21
-9800.21
-9800.2
-9800.2
-9800.2
-9800.2
-9800.2
-9800.21
-9800.21
-9800.21
-9800.2
-9800.21
-9800.2
-9800.21
-9800.21
-9800.21
-9800.21
-9800.21
)
;
    }
    lateral_surface_1
    {
        type            fixedFluxPressure;
        gradient        uniform 0;
        value           nonuniform List<scalar> 
40
(
-0.000868948
0.000239308
-0.00555957
-0.000769166
-0.000972812
-0.00366899
0.00401391
-0.00567183
-9800.14
-9800.15
-9800.14
-9800.15
-9800.17
-9800.14
-9800.16
-9800.12
-9800.2
-9800.21
-9800.2
-9800.2
-9800.2
-9800.2
-9800.22
-9800.2
-9800.21
-9800.21
-9800.2
-9800.2
-9800.2
-9800.21
-9800.22
-9800.21
-9800.21
-9800.21
-9800.21
-9800.21
-9800.21
-9800.21
-9800.21
-9800.21
)
;
    }
    lateral_surface_2
    {
        type            fixedFluxPressure;
        gradient        uniform 0;
        value           nonuniform List<scalar> 
40
(
0.000437063
-0.00300769
-0.00251757
-0.00357125
0.00137334
0.000861763
-0.00253841
0.00140147
-9800.17
-9800.13
-9800.15
-9800.14
-9800.15
-9800.16
-9800.14
-9800.15
-9800.2
-9800.2
-9800.2
-9800.2
-9800.22
-9800.22
-9800.2
-9800.2
-9800.2
-9800.2
-9800.2
-9800.2
-9800.21
-9800.21
-9800.2
-9800.2
-9800.2
-9800.2
-9800.2
-9800.2
-9800.21
-9800.21
-9800.21
-9800.2
)
;
    }
    lateral_surface_3
    {
        type            fixedFluxPressure;
        gradient        uniform 0;
        value           nonuniform List<scalar> 
40
(
0.00401391
1.20528e-05
-0.000923876
-0.0015027
-0.00321895
0.00025538
0.00172075
0.000437063
-9800.16
-9800.18
-9800.17
-9800.18
-9800.12
-9800.17
-9800.21
-9800.17
-9800.22
-9800.21
-9800.21
-9800.21
-9800.21
-9800.21
-9800.21
-9800.2
-9800.22
-9800.21
-9800.21
-9800.21
-9800.21
-9800.21
-9800.2
-9800.2
-9800.21
-9800.21
-9800.21
-9800.21
-9800.21
-9800.21
-9800.2
-9800.2
)
;
    }
    lateral_surface_4
    {
        type            fixedFluxPressure;
        gradient        uniform 0;
        value           nonuniform List<scalar> 
40
(
0.00140147
-0.00305728
-0.00385183
-0.000132374
-0.00140588
0.00264547
0.000751295
-0.00567183
-9800.15
-9800.15
-9800.16
-9800.17
-9800.13
-9800.17
-9800.15
-9800.12
-9800.2
-9800.2
-9800.19
-9800.2
-9800.21
-9800.22
-9800.22
-9800.2
-9800.2
-9800.2
-9800.2
-9800.2
-9800.21
-9800.22
-9800.22
-9800.21
-9800.2
-9800.21
-9800.2
-9800.21
-9800.21
-9800.21
-9800.21
-9800.21
)
;
    }
}


// ************************************************************************* //
