/*--------------------------------*- C++ -*----------------------------------*\
| =========                 |                                                 |
| \\      /  F ield         | OpenFOAM: The Open Source CFD Toolbox           |
|  \\    /   O peration     | Version:  v1612+                                |
|   \\  /    A nd           | Web:      www.OpenFOAM.com                      |
|    \\/     M anipulation  |                                                 |
\*---------------------------------------------------------------------------*/
FoamFile
{
    version     2.0;
    format      ascii;
    class       surfaceScalarField;
    location    "3.8";
    object      alphaPhi;
}
// * * * * * * * * * * * * * * * * * * * * * * * * * * * * * * * * * * * * * //

dimensions      [0 3 -1 0 0 0 0];

internalField   nonuniform List<scalar> 
2916
(
6.43881e-06
0.204735
-0.0269417
4.01331e-06
0.204736
-0.026939
8.58353e-06
0.204737
-0.0269518
2.68651e-06
0.204737
-0.026944
-1.07252e-05
0.204737
-0.0269384
0.204736
-0.0269564
1.15007e-05
0.387634
-0.0044334
6.94325e-06
0.387637
-0.00443042
5.79444e-06
0.387636
-0.00442941
2.47348e-06
0.387638
-0.00443088
-7.6959e-06
0.387639
-0.00443038
0.387633
-0.00443121
1.14076e-05
0.566668
-0.000216123
6.38861e-06
0.566679
-0.000215988
3.93377e-06
0.566677
-0.00021594
2.55732e-06
0.566678
-0.000216005
-3.37537e-06
0.566681
-0.000215983
0.56667
-0.000216017
1.10112e-05
0.732124
-1.44564e-05
6.6911e-06
0.732144
-1.44469e-05
3.20817e-06
0.732139
-1.4444e-05
2.51558e-06
0.73214
-1.44478e-05
-1.58179e-06
0.732144
-1.44457e-05
0.732127
-1.4449e-05
1.01196e-05
0.860858
-0.0215915
7.18413e-06
0.860884
-0.0215891
2.28548e-06
0.860877
-0.0215882
1.22758e-06
0.860878
-0.0215894
-1.17831e-06
0.860882
-0.0215892
0.860861
-0.0215888
1.12362e-05
0.934592
-0.006711
6.80007e-06
0.934621
-0.00670662
2.1698e-06
0.934615
-0.00670668
-9.94643e-08
0.934615
-0.00670735
-3.66518e-06
0.934619
-0.00670692
0.934594
-0.00670837
1.05495e-05
0.869064
0.0675617
6.62591e-06
0.869091
0.0675725
1.16058e-06
0.869086
0.0675724
-2.85819e-06
0.869084
0.0675723
-6.76837e-06
0.869087
0.0675723
0.86906
0.0675669
5.09199e-06
0.59646
0.27261
4.95761e-06
0.596489
0.272614
-9.60137e-07
0.596488
0.272615
-5.57942e-06
0.596485
0.272615
-8.34809e-06
0.59649
0.272611
0.59645
0.272613
7.29239e-06
0.0642407
0.532239
3.59769e-06
0.0642608
0.532259
-1.42587e-06
0.0642678
0.532253
-6.71625e-06
0.064264
0.532254
-1.49851e-05
0.0642723
0.532254
0.0642152
0.532248
2.48177e-05
-0.436318
0.500562
8.56532e-06
-0.436298
0.500602
1.16657e-06
-0.436287
0.50059
-6.53537e-06
-0.436291
0.50059
-2.82409e-05
-0.436275
0.500597
-0.436359
0.500574
3.85575e-05
-0.520856
0.0846182
5.65356e-06
-0.520832
0.0846854
-7.48122e-07
-0.520827
0.0846649
-4.81733e-06
-0.52083
0.0846616
-2.73183e-05
-0.520815
0.0846805
-0.520876
0.0846083
-1.34878e-06
-0.521868
-1.47754e-05
-0.521831
-1.13404e-05
-0.521843
-4.28459e-06
-0.521849
6.49738e-06
-0.521838
-0.521882
3.07093e-07
0.0046627
-6.68142e-07
6.0854e-08
0.00465957
-6.67917e-07
4.96886e-08
0.00465851
-6.68044e-07
7.00782e-09
0.00466005
-6.68123e-07
-4.46017e-07
0.00465953
-6.68059e-07
0.00466039
-6.68339e-07
-2.70766e-09
0.000231929
-2.69011e-06
-1.68108e-09
0.000231785
-2.68998e-06
-1.33725e-09
0.000231733
-2.69005e-06
-2.49113e-10
0.000231804
-2.69004e-06
7.67753e-10
0.000231779
-2.68985e-06
0.000231815
-2.6902e-06
-8.71659e-10
1.58449e-05
-8.04028e-08
-4.57847e-10
1.58346e-05
-8.05099e-08
-5.43983e-10
1.58314e-05
-8.04817e-08
-1.9277e-10
1.58356e-05
-8.04682e-08
9.44935e-10
1.58333e-05
-8.05093e-08
1.58369e-05
-8.04059e-08
-5.63022e-11
1.31229e-06
3.69212e-08
-2.93765e-11
1.3115e-06
3.68477e-08
-3.32246e-11
1.31126e-06
3.68715e-08
-5.24749e-12
1.31156e-06
3.68688e-08
6.88565e-11
1.31137e-06
3.68258e-08
1.31172e-06
3.69343e-08
-1.80984e-07
0.0204616
9.3994e-05
-5.10272e-08
0.0204665
9.3994e-05
7.59799e-09
0.0204653
9.40036e-05
1.01694e-07
0.0204672
9.39973e-05
2.85086e-07
0.0204708
9.39966e-05
0.0204659
9.40199e-05
1.52353e-08
0.0835555
0.000322507
1.9495e-08
0.083562
0.000322442
9.94231e-08
0.0835604
0.000322492
3.14191e-07
0.0835617
0.000322435
5.15767e-07
0.0835658
0.00032237
0.0835608
0.000322535
2.49447e-07
0.20098
0.00142683
-2.65796e-07
0.200994
0.00142681
-4.24051e-07
0.200991
0.00142681
-2.50158e-08
0.200992
0.00142681
8.28882e-08
0.200996
0.00142682
0.200987
0.00142681
2.92817e-06
0.414614
0.00574765
2.05526e-07
0.414636
0.00574596
-7.53378e-07
0.414629
0.00574682
-1.17424e-06
0.414629
0.00574678
-4.18967e-06
0.414635
0.0057463
0.414617
0.00574692
1.95002e-05
0.562023
0.0585447
4.25592e-06
0.562106
0.0585615
1.17045e-06
0.562076
0.058554
-2.6779e-06
0.562076
0.0585524
-1.95763e-05
0.562103
0.0585543
0.562034
0.0585454
7.01015e-05
0.344133
0.551039
1.76583e-05
0.344278
0.551113
8.47076e-06
0.344229
0.551083
-1.47928e-06
0.34423
0.551082
-3.96673e-05
0.344277
0.551091
0.344155
0.551062
9.36988e-05
0.094241
0.334536
2.39217e-05
0.0944078
0.334746
1.40569e-05
0.0943699
0.334654
2.59737e-06
0.0943687
0.334654
-4.19063e-05
0.0944177
0.334705
0.0942717
0.33457
-2.21428e-05
-0.427579
-1.67419e-05
-0.427403
-3.50415e-06
-0.427461
7.89072e-06
-0.427466
2.81195e-05
-0.427415
-0.427557
-2.98021e-12
-7.408e-09
-7.06893e-07
-1.1402e-12
-7.40877e-09
-7.06667e-07
-3.22886e-13
-7.40948e-09
-7.06798e-07
1.06753e-12
-7.40885e-09
-7.06877e-07
3.48986e-12
-7.40773e-09
-7.06817e-07
-7.40881e-09
-7.07092e-07
-4.69485e-12
-5.12796e-09
-2.73615e-06
-1.36979e-12
-5.1283e-09
-2.73602e-06
1.95453e-13
-5.12811e-09
-2.7361e-06
2.58048e-12
-5.12749e-09
-2.7361e-06
6.86109e-12
-5.12727e-09
-2.73591e-06
-5.12736e-09
-2.73625e-06
-1.11689e-12
-4.24366e-09
-1.21378e-07
-2.10517e-13
-4.24309e-09
-1.21496e-07
1.58084e-13
-4.24277e-09
-1.21469e-07
5.88743e-13
-4.24241e-09
-1.2146e-07
1.63749e-12
-4.2421e-09
-1.21508e-07
-4.24229e-09
-1.21392e-07
-8.08884e-13
3.1034e-09
-1.05251e-08
-2.10592e-13
3.01828e-09
-1.05154e-08
1.61956e-13
3.03815e-09
-1.05157e-08
4.37556e-13
3.02596e-09
-1.05105e-08
1.00785e-12
2.98541e-09
-1.05081e-08
3.11325e-09
-1.05306e-08
-3.88388e-09
9.39266e-05
-1.41825e-08
-1.53153e-09
9.39203e-05
-1.4124e-08
6.5326e-10
9.393e-05
-1.41393e-08
2.55434e-09
9.3924e-05
-1.4113e-08
4.55358e-09
9.39232e-05
-1.41194e-08
9.39531e-05
-1.41556e-08
-1.52763e-08
0.000416465
-3.47668e-08
-1.61593e-08
0.000416379
-3.48693e-08
-9.9861e-09
0.000416433
-3.48486e-08
-4.26423e-09
0.000416369
-3.48718e-08
-1.39999e-09
0.000416307
-3.49155e-08
0.000416503
-3.47402e-08
-1.01226e-07
0.00184531
-1.59118e-06
-4.8408e-08
0.00184507
-1.59977e-06
-4.77708e-08
0.00184516
-1.59951e-06
-3.72705e-08
0.00184509
-1.60008e-06
1.8535e-08
0.001845
-1.60324e-06
0.00184525
-1.59301e-06
-7.0751e-08
0.00732469
0.000205625
-7.85814e-08
0.00732273
0.000205548
-9.95693e-08
0.00732373
0.000205557
-1.05496e-07
0.00732361
0.00020555
3.01219e-08
0.00732294
0.000205503
0.0073239
0.000205596
4.26315e-09
0.0552645
0.000675637
1.70168e-07
0.0553151
0.0006762
1.09231e-07
0.0552885
0.000675957
-2.17239e-07
0.055289
0.000675789
-1.34635e-07
0.0552992
0.000676102
0.0552777
0.00067553
8.00477e-05
0.273104
0.0189452
1.23589e-05
0.273339
0.0189487
8.13346e-06
0.273232
0.0189475
7.57074e-06
0.273235
0.0189443
-3.46876e-05
0.273293
0.0189449
0.273169
0.0189425
0.000271187
0.104012
0.428334
3.82414e-05
0.104342
0.428935
9.58206e-06
0.104236
0.428653
6.18746e-06
0.104242
0.428618
-0.00012555
0.104333
0.428771
0.104089
0.428492
-0.000109539
-0.323452
-2.20982e-05
-0.323143
-2.86909e-06
-0.323239
1.40201e-05
-0.323237
9.42226e-05
-0.323158
-0.323369
-3.69798e-12
-3.59043e-07
-7.46196e-08
2.75128e-13
-3.58904e-07
-7.45648e-08
-5.13667e-12
-3.58944e-07
-7.45965e-08
-4.65806e-12
-3.58949e-07
-7.46254e-08
9.32559e-12
-3.58908e-07
-7.46211e-08
-3.5909e-07
-7.46675e-08
2.1371e-11
-4.416e-07
-1.42443e-06
2.2859e-11
-4.41536e-07
-1.4244e-06
7.62519e-12
-4.4155e-07
-1.42446e-06
2.40397e-12
-4.41538e-07
-1.42444e-06
5.58633e-12
-4.41524e-07
-1.4243e-06
-4.41646e-07
-1.42447e-06
9.01944e-13
-7.89208e-08
-3.84599e-07
5.06167e-13
-7.88732e-08
-3.84608e-07
1.19586e-12
-7.88772e-08
-3.84614e-07
4.69383e-13
-7.8843e-08
-3.84611e-07
-1.00782e-12
-7.88349e-08
-3.84612e-07
-7.89573e-08
-3.8464e-07
-4.37252e-14
-1.25988e-08
-5.11593e-10
-4.52659e-13
-1.26147e-08
-5.12831e-10
1.83064e-14
-1.26128e-08
-5.12054e-10
-1.97439e-13
-1.26197e-08
-5.11857e-10
-1.08654e-12
-1.26234e-08
-5.12499e-10
-1.26054e-08
-5.11575e-10
1.32385e-14
-7.65059e-09
-2.77155e-08
-6.23735e-13
-7.6495e-09
-2.76716e-08
-5.70663e-14
-7.64972e-09
-2.76752e-08
-2.02305e-13
-7.6498e-09
-2.76588e-08
-1.31623e-12
-7.65042e-09
-2.7654e-08
-7.64989e-09
-2.77117e-08
-7.47879e-13
-2.80383e-08
-2.21682e-08
-8.56718e-13
-2.81767e-08
-2.21756e-08
-3.73065e-13
-2.81689e-08
-2.21656e-08
-1.63924e-13
-2.81876e-08
-2.21714e-08
-1.76498e-13
-2.82303e-08
-2.21729e-08
-2.80745e-08
-2.21547e-08
-4.2784e-12
-1.59335e-06
-2.95964e-08
1.10322e-12
-1.60213e-06
-2.96666e-08
3.83803e-12
-1.60187e-06
-2.96667e-08
4.53334e-12
-1.60245e-06
-2.96728e-08
6.68068e-12
-1.60563e-06
-2.9696e-08
-1.59531e-06
-2.96122e-08
1.64587e-08
0.000201452
1.59497e-06
4.69116e-09
0.000201376
1.6079e-06
1.05231e-08
0.000201379
1.59968e-06
1.1569e-08
0.000201374
1.60117e-06
5.31268e-09
0.000201327
1.60445e-06
0.000201435
1.60078e-06
5.67316e-07
0.000730609
8.26835e-05
1.66914e-07
0.000730013
8.47166e-05
2.05137e-07
0.000730532
8.35514e-05
1.84304e-07
0.000730227
8.37453e-05
2.14477e-08
0.000730055
8.43201e-05
0.000730298
8.34891e-05
0.000101089
-0.152991
0.0040076
1.27477e-05
-0.153042
0.00401599
-3.1472e-06
-0.153038
0.00401277
2.64587e-06
-0.153024
0.00401285
-5.05916e-05
-0.153066
0.00401446
-0.15299
0.00400936
0.000605484
0.0107884
-0.00466822
3.27223e-05
0.0111684
-0.00386427
-7.2794e-05
0.0110262
-0.00422721
4.12395e-05
0.0110053
-0.00435236
-0.000258555
0.0110476
-0.00406736
0.0109392
-0.00446682
0.000128604
-0.306221
2.48293e-05
-0.30536
2.49464e-05
-0.305674
4.45367e-05
-0.305707
-2.86271e-05
-0.305495
-0.305914
-2.26013e-37
-5.25493e-30
8.66214e-33
-7.44045e-37
-5.2557e-30
8.65857e-33
-9.15757e-37
-5.27889e-30
8.68987e-33
-8.74068e-37
-5.2094e-30
8.53398e-33
-5.65512e-37
-5.24873e-30
8.65613e-33
-5.15777e-30
8.48906e-33
-3.36955e-34
-3.048e-27
5.43614e-30
-7.14644e-34
-3.0501e-27
5.43694e-30
-8.72258e-34
-3.0661e-27
5.46086e-30
-8.59185e-34
-3.04846e-27
5.38888e-30
-6.1381e-34
-3.04288e-27
5.42943e-30
-2.99656e-27
5.33513e-30
-1.998e-31
-8.24709e-25
1.6546e-27
-3.55463e-31
-8.25716e-25
1.65577e-27
-4.28322e-31
-8.30794e-25
1.66444e-27
-4.16607e-31
-8.34515e-25
1.6548e-27
-2.95676e-31
-8.2301e-25
1.65168e-27
-8.12302e-25
1.6264e-27
-7.83396e-29
-1.35812e-22
3.15999e-25
-1.12531e-28
-1.36047e-22
3.16356e-25
-1.22015e-28
-1.3702e-22
3.18273e-25
-1.0811e-28
-1.39285e-22
3.19665e-25
-7.3756e-29
-1.35502e-22
3.15219e-25
-1.34048e-22
3.11068e-25
-1.60447e-26
-1.49835e-20
4.09105e-23
-1.63058e-26
-1.50166e-20
4.09643e-23
-1.23641e-26
-1.51418e-20
4.12474e-23
-7.13675e-27
-1.5545e-20
4.19216e-23
-3.31304e-27
-1.49493e-20
4.07763e-23
-1.48244e-20
4.03326e-23
-1.41263e-24
-1.16415e-18
3.63031e-21
-1.52415e-25
-1.1673e-18
3.63484e-21
1.43078e-24
-1.17888e-18
3.66372e-21
2.4636e-24
-1.20907e-18
3.76067e-21
2.10473e-24
-1.16187e-18
3.61649e-21
-1.15529e-18
3.5867e-21
2.43258e-23
-6.7007e-17
2.13954e-19
2.7877e-22
-6.72297e-17
2.14184e-19
4.98847e-22
-6.80493e-17
2.16231e-19
5.96787e-22
-6.80287e-17
2.2181e-19
4.46059e-22
-6.69176e-17
2.1327e-19
-6.67758e-17
2.1226e-19
1.32625e-20
-9.21817e-17
1.27021e-17
3.69942e-20
-9.24683e-17
1.27034e-17
5.32125e-20
-9.34887e-17
1.28488e-17
5.51679e-20
-9.28706e-17
1.25433e-17
3.88507e-20
-9.18908e-17
1.27828e-17
-9.182e-17
1.25653e-17
2.6243e-18
-9.83765e-14
-1.80028e-14
4.93459e-18
-9.86896e-14
-1.80937e-14
6.03196e-18
-1.00187e-13
-1.80742e-14
5.13264e-18
-9.83829e-14
-1.70858e-14
3.26713e-18
-9.83305e-14
-1.74323e-14
-1.02029e-13
-1.68616e-14
4.07635e-16
-3.07025e-11
2.32957e-11
6.48827e-16
-3.08599e-11
2.34223e-11
8.24784e-16
-3.14299e-11
2.38438e-11
4.90205e-16
-2.97323e-11
2.22226e-11
3.21787e-16
-3.0851e-11
2.34903e-11
-3.08685e-11
2.29617e-11
7.942e-15
-5.51173e-13
-6.10905e-11
8.15072e-15
-5.49409e-13
-6.13785e-11
2.24981e-14
-5.8533e-13
-6.24404e-11
1.29229e-15
-5.38668e-13
-5.91206e-11
1.77512e-15
-5.70583e-13
-6.13213e-11
-5.56646e-13
-6.12044e-11
-7.07529e-16
-2.03647e-11
-9.19486e-16
-2.05423e-11
5.00733e-16
-2.02222e-11
-1.51143e-15
-1.9854e-11
-1.06787e-15
-2.00966e-11
-2.04131e-11
-1.88804e-35
-2.24725e-28
6.9734e-31
-3.64542e-35
-2.2472e-28
6.9707e-31
-3.91666e-35
-2.25713e-28
6.99586e-31
-3.66787e-35
-2.16769e-28
6.72913e-31
-2.54343e-35
-2.24051e-28
6.95133e-31
-2.1944e-28
6.8e-31
-2.55988e-32
-1.37151e-25
4.60456e-28
-3.61738e-32
-1.3719e-25
4.60434e-28
-3.60244e-32
-1.37915e-25
4.62458e-28
-3.29328e-32
-1.3225e-25
4.44125e-28
-2.25538e-32
-1.36767e-25
4.59035e-28
-1.34111e-25
4.49572e-28
-1.22812e-29
-3.90311e-23
1.45593e-25
-1.50381e-29
-3.90525e-23
1.45629e-25
-1.36856e-29
-3.92979e-23
1.46395e-25
-1.18011e-29
-3.76294e-23
1.40378e-25
-7.80908e-30
-3.89368e-23
1.45166e-25
-3.82252e-23
1.42338e-25
-2.13317e-27
-6.85118e-21
2.8588e-23
-1.75511e-27
-6.85654e-21
2.86002e-23
-8.53034e-28
-6.90788e-21
2.87776e-23
-3.50077e-28
-6.60511e-21
2.75536e-23
-2.17736e-28
-6.83917e-21
2.85086e-23
-6.7218e-21
2.79845e-23
2.24637e-25
-8.40094e-19
3.82297e-21
6.93999e-25
-8.40983e-19
3.82463e-21
1.03851e-24
-8.48555e-19
3.85259e-21
1.03143e-24
-8.10087e-19
3.6833e-21
7.43884e-25
-8.39599e-19
3.81348e-21
-8.26033e-19
3.74775e-21
1.35118e-22
-7.89734e-17
3.64096e-19
2.56774e-22
-7.91064e-17
3.64234e-19
3.21864e-22
-7.9967e-17
3.67421e-19
2.95688e-22
-7.61845e-17
3.50742e-19
2.07776e-22
-7.90918e-17
3.63542e-19
-7.78592e-17
3.57733e-19
2.93562e-20
-8.93813e-17
4.85624e-17
4.4625e-20
-8.95097e-17
4.87659e-17
4.93049e-20
-9.0447e-17
4.95525e-17
4.12613e-20
-8.62179e-17
4.68637e-17
2.76494e-20
-8.94501e-17
4.90252e-17
-8.80588e-17
4.83686e-17
4.3397e-18
-2.08015e-15
2.44897e-15
5.99131e-18
-1.93499e-15
2.46238e-15
6.17501e-18
-1.48919e-15
2.51062e-15
4.37202e-18
-2.87547e-15
2.36033e-15
2.68743e-18
-1.79233e-15
2.47869e-15
-2.13582e-15
2.45858e-15
1.5803e-15
-1.3577e-10
4.48916e-13
2.04026e-15
-1.36189e-10
4.53735e-13
2.33155e-15
-1.37765e-10
4.71472e-13
7.38561e-16
-1.31493e-10
4.33075e-13
4.59898e-16
-1.36765e-10
4.58071e-13
-1.34165e-10
4.80608e-13
2.23878e-13
-5.53412e-09
-8.56587e-09
2.86643e-13
-5.55941e-09
-8.61452e-09
5.70259e-13
-5.65206e-09
-8.75308e-09
4.40429e-14
-5.36403e-09
-8.2843e-09
1.49667e-13
-5.55034e-09
-8.72065e-09
-5.55105e-09
-8.4603e-09
-8.05519e-12
3.08139e-09
-1.00047e-08
-1.46594e-11
3.10608e-09
-1.00649e-08
3.26307e-12
3.16866e-09
-1.0276e-08
-2.47603e-11
2.9959e-09
-9.68242e-09
-1.54142e-11
3.11284e-09
-1.0075e-08
3.11526e-09
-1.00955e-08
-7.90305e-14
1.73911e-10
-1.07449e-13
1.73796e-10
3.82454e-14
1.71157e-10
-1.29952e-13
1.7755e-10
-4.62179e-13
1.75467e-10
1.70404e-10
-1.10098e-32
-1.4467e-25
8.36562e-28
-1.89924e-32
-1.45048e-25
8.38274e-28
-1.95511e-32
-1.46052e-25
8.43169e-28
-1.71289e-32
-1.40862e-25
8.15529e-28
-1.13863e-32
-1.45983e-25
8.44322e-28
-1.42941e-25
8.25786e-28
-1.22964e-29
-7.00636e-23
4.57112e-25
-1.3151e-29
-7.02923e-23
4.58295e-25
-1.0427e-29
-7.08763e-23
4.61465e-25
-7.08493e-30
-6.81317e-23
4.45063e-25
-3.3209e-30
-7.0702e-23
4.61243e-25
-6.93104e-23
4.51628e-25
-3.65382e-27
-1.51281e-20
1.15733e-22
-2.12203e-27
-1.51901e-20
1.16107e-22
4.77138e-29
-1.53451e-20
1.1707e-22
1.55388e-27
-1.46909e-20
1.12535e-22
1.8652e-27
-1.52733e-20
1.16779e-22
-1.49911e-20
1.14478e-22
4.42857e-26
-1.92668e-18
1.74333e-20
8.91276e-25
-1.93664e-18
1.75031e-20
1.6176e-24
-1.96155e-18
1.76808e-20
1.76917e-24
-1.86803e-18
1.69265e-20
1.39587e-24
-1.94723e-18
1.7597e-20
-1.91389e-18
1.72715e-20
1.77378e-22
-1.66099e-16
1.71073e-18
3.78887e-22
-1.67163e-16
1.71923e-18
4.99622e-22
-1.6989e-16
1.74119e-18
4.69491e-22
-1.60719e-16
1.65812e-18
3.39328e-22
-1.68101e-16
1.72841e-18
-1.65543e-16
1.69888e-18
3.14631e-20
-2.59057e-16
1.15767e-16
5.36637e-20
-2.60628e-16
1.16473e-16
6.23406e-20
-2.64656e-16
1.18364e-16
5.24006e-20
-2.51044e-16
1.11977e-16
3.38369e-20
-2.61973e-16
1.17133e-16
-2.58186e-16
1.15373e-16
3.45598e-18
-1.58501e-14
9.6586e-15
5.15657e-18
-1.57316e-14
9.71885e-15
5.28022e-18
-1.54109e-14
9.88896e-15
3.46366e-18
-1.63233e-14
9.33429e-15
1.51816e-18
-1.5577e-14
9.75199e-15
-1.58409e-14
9.67361e-15
5.02132e-16
-5.58581e-12
5.40863e-12
5.05558e-16
-5.61078e-12
5.42977e-12
4.32836e-16
-5.71846e-12
5.53173e-12
-2.07662e-16
-5.38624e-12
5.22601e-12
-6.09322e-16
-5.57343e-12
5.38967e-12
-5.67198e-12
5.50583e-12
1.20924e-14
-4.12922e-11
-4.93522e-11
-3.70377e-14
-4.08081e-11
-5.04661e-11
2.47563e-14
-4.02695e-11
-5.30589e-11
-2.64105e-13
-4.23894e-11
-4.4728e-11
-2.49354e-13
-3.97119e-11
-5.20936e-11
-4.33318e-11
-4.78156e-11
-4.46955e-11
-1.31034e-06
1.80318e-07
-3.77653e-11
-1.32007e-06
1.79785e-07
8.9021e-11
-1.3453e-06
1.80452e-07
-1.29864e-10
-1.27015e-06
1.77574e-07
-1.53478e-11
-1.33024e-06
1.73273e-07
-1.31202e-06
1.86891e-07
-3.56887e-09
4.30341e-07
-4.60841e-05
-1.27308e-09
4.29365e-07
-4.64286e-05
1.0297e-08
4.28097e-07
-4.74213e-05
-5.37842e-09
4.31806e-07
-4.46638e-05
-8.92056e-10
4.16077e-07
-4.63871e-05
4.41032e-07
-4.6583e-05
-1.20538e-11
4.26795e-07
-9.79076e-13
4.25763e-07
5.99669e-11
4.24353e-07
-5.81518e-12
4.2843e-07
-3.50069e-11
4.12506e-07
4.37386e-07
-4.05201e-33
-9.29663e-26
6.05311e-28
-5.34827e-33
-9.34562e-26
6.0801e-28
-3.86459e-33
-9.50018e-26
6.16881e-28
-2.27034e-33
-8.91731e-26
5.83516e-28
-9.00161e-34
-9.47042e-26
6.15236e-28
-9.22737e-26
6.01273e-28
-3.59464e-30
-6.13592e-23
4.21701e-25
-9.02068e-31
-6.17358e-23
4.23915e-25
2.21525e-30
-6.28975e-23
4.30925e-25
4.03147e-30
-5.83752e-23
4.04489e-25
4.10351e-30
-6.26727e-23
4.29583e-25
-6.07156e-23
4.18561e-25
9.00678e-28
-2.00197e-20
1.46627e-22
4.00756e-27
-2.01594e-20
1.47523e-22
6.43873e-27
-2.05886e-20
1.50298e-22
6.54607e-27
-1.88323e-20
1.39493e-22
5.14822e-27
-2.04735e-20
1.49763e-22
-1.97037e-20
1.45086e-22
1.89016e-24
-4.35495e-18
3.39493e-20
3.51234e-24
-4.38827e-18
3.41844e-20
4.4045e-24
-4.49229e-18
3.49116e-20
3.86601e-24
-4.06662e-18
3.19333e-20
2.84038e-24
-4.43457e-18
3.47165e-20
-4.2827e-18
3.34116e-20
8.2374e-22
-3.76699e-16
6.69677e-18
1.21959e-21
-3.78242e-16
6.74884e-18
1.32535e-21
-3.83464e-16
6.91347e-18
1.02484e-21
-3.76246e-16
6.22724e-18
6.83527e-22
-3.73241e-16
6.82749e-18
-3.89991e-16
6.57066e-18
1.01618e-19
-1.5798e-15
4.38548e-16
1.11592e-19
-1.5903e-15
4.41738e-16
9.64745e-20
-1.62551e-15
4.52418e-16
4.30427e-20
-1.50416e-15
4.20347e-16
1.40302e-20
-1.58128e-15
4.38586e-16
-1.59057e-15
4.46844e-16
1.02443e-17
-4.49239e-13
4.34072e-13
-4.50119e-18
-4.50438e-13
4.31866e-13
-9.77676e-18
-4.55837e-13
4.3435e-13
-3.96015e-17
-4.37347e-13
4.26358e-13
-2.69796e-17
-4.36663e-13
4.22325e-13
-4.64805e-13
4.45812e-13
-5.73788e-15
-1.25151e-10
1.20852e-10
-2.51009e-14
-1.25064e-10
1.20728e-10
-1.07056e-14
-1.25846e-10
1.21306e-10
-4.53904e-14
-1.23268e-10
1.19239e-10
-2.49278e-14
-1.22372e-10
1.18025e-10
-1.28275e-10
1.23858e-10
-4.48717e-12
-1.04299e-08
8.54381e-09
-6.14854e-12
-1.04817e-08
8.57761e-09
9.70089e-12
-1.06661e-08
8.69264e-09
-1.81844e-11
-1.01068e-08
8.32656e-09
-1.39218e-11
-1.02943e-08
8.39671e-09
-1.07134e-08
8.77177e-09
-5.06229e-09
-5.38205e-07
4.53215e-07
6.07612e-10
-5.49928e-07
4.51449e-07
2.1099e-08
-5.75345e-07
4.55442e-07
-1.23158e-08
-4.9304e-07
4.45163e-07
-8.38446e-09
-5.45931e-07
4.45126e-07
-5.57213e-07
4.59506e-07
-1.41472e-07
-0.00159099
-0.000198217
1.80607e-07
-0.00159806
-0.000200377
1.31275e-06
-0.00162829
-0.000204797
3.99085e-08
-0.00154696
-0.000191686
-1.19868e-07
-0.00158662
-0.000195368
-0.00161706
-0.000203248
3.56184e-07
-0.00722529
3.3308e-06
-0.0072414
4.77271e-06
-0.00740246
7.0797e-06
-0.0070131
-6.5094e-06
-0.00712666
-0.00742407
7.52614e-13
-8.82831e-09
-5.22364e-08
2.22508e-13
-8.81607e-09
-5.2223e-08
-1.40926e-13
-8.82092e-09
-5.22243e-08
-4.89339e-13
-8.82043e-09
-5.22252e-08
-1.0075e-12
-8.81148e-09
-5.22225e-08
-8.83172e-09
-5.22398e-08
1.0784e-13
4.13773e-16
-2.0235e-08
3.31126e-14
4.53201e-16
-2.02004e-08
-7.98198e-15
4.65193e-16
-2.02129e-08
-4.42918e-14
4.5485e-16
-2.02107e-08
-1.21375e-13
4.52167e-16
-2.01856e-08
4.62989e-16
-2.02418e-08
-1.13057e-20
2.39371e-17
-4.80091e-21
2.62125e-17
-7.72756e-22
2.69089e-17
3.51017e-21
2.6311e-17
1.21365e-20
2.61551e-17
2.67885e-17
4.5634e-11
-3.01721e-07
-4.33219e-08
1.45303e-11
-3.01586e-07
-4.33369e-08
-6.21782e-12
-3.01672e-07
-4.33312e-08
-2.86404e-11
-3.01652e-07
-4.33333e-08
-6.14131e-11
-3.01483e-07
-4.33486e-08
-3.01783e-07
-4.3327e-08
1.23715e-11
2.08781e-15
-5.31955e-13
4.09695e-12
2.28665e-15
-4.94766e-13
-1.05372e-12
2.34729e-15
-5.00819e-13
-6.1998e-12
2.29509e-15
-4.86752e-13
-1.5238e-11
2.28155e-15
-4.70312e-13
2.33635e-15
-5.19971e-13
-5.91707e-20
3.74273e-16
-2.39908e-20
4.09869e-16
-2.56407e-21
4.20751e-16
1.95817e-20
4.11399e-16
6.57365e-20
4.08973e-16
4.18829e-16
9.66886e-12
-1.04706e-11
-2.19387e-09
2.47949e-12
-9.7729e-12
-2.20158e-09
-2.48596e-12
-9.87973e-12
-2.19906e-09
-8.95794e-12
-9.60441e-12
-2.2023e-09
-1.69975e-11
-9.30511e-12
-2.20637e-09
-1.02306e-11
-2.19847e-09
8.79375e-18
1.26277e-14
-1.10152e-11
2.37199e-18
1.38311e-14
-1.02815e-11
-1.16467e-18
1.41974e-14
-1.03947e-11
-4.41099e-18
1.38816e-14
-1.0105e-11
-1.11935e-17
1.38e-14
-9.78922e-12
1.413e-14
-1.07647e-11
-3.78549e-19
4.25355e-16
-1.14647e-19
4.65771e-16
3.90453e-20
4.78122e-16
1.74422e-19
4.67465e-16
4.91046e-19
4.64701e-16
4.75896e-16
5.4669e-16
-4.51482e-11
-2.66352e-09
7.88772e-17
-4.305e-11
-2.66604e-09
-3.06535e-16
-4.33084e-11
-2.66543e-09
-1.15721e-15
-4.23127e-11
-2.66525e-09
-1.98869e-15
-4.13666e-11
-2.66583e-09
-4.41924e-11
-2.66386e-09
1.96764e-15
7.50466e-15
-5.66562e-11
4.14605e-16
8.21958e-15
-4.48358e-11
-2.33731e-16
8.43702e-15
-4.6714e-11
-7.95092e-16
8.2489e-15
-4.18395e-11
-2.33747e-15
8.20038e-15
-3.68015e-11
8.39602e-15
-5.25032e-11
-2.14744e-19
2.73446e-17
-3.07538e-20
3.10008e-17
5.93389e-20
3.21045e-17
1.2728e-19
3.11458e-17
3.22111e-19
3.08959e-17
3.16506e-17
7.89352e-13
-3.98007e-09
-1.42541e-09
5.39518e-13
-3.93706e-09
-1.42819e-09
3.77754e-13
-3.94364e-09
-1.42691e-09
-1.12733e-13
-3.9249e-09
-1.42746e-09
-9.35626e-13
-3.90615e-09
-1.42813e-09
-3.96406e-09
-1.42408e-09
1.07053e-14
2.40923e-16
-1.80187e-13
2.51497e-15
2.73221e-16
-1.66747e-13
3.25385e-16
2.82935e-16
-1.68872e-13
-1.79924e-15
2.74488e-16
-1.64038e-13
-1.02104e-14
2.72298e-16
-1.59875e-13
2.78864e-16
-1.75501e-13
-9.27743e-21
-2.21451e-15
-1.68933e-21
-2.21032e-15
1.49616e-21
-2.2141e-15
4.36173e-21
-2.21336e-15
1.23498e-20
-2.21213e-15
-2.21456e-15
9.0128e-14
-6.46236e-11
-5.57859e-11
-1.44578e-14
-6.45381e-11
-5.45269e-11
-3.76046e-14
-6.46288e-11
-5.59126e-11
2.66412e-14
-6.45953e-11
-5.55648e-11
-2.28954e-13
-6.45764e-11
-5.46972e-11
-6.46036e-11
-5.67053e-11
4.13578e-17
-9.06605e-14
-6.48038e-11
7.91602e-18
-9.05124e-14
-6.47049e-11
-9.36203e-19
-9.06372e-14
-6.47978e-11
-2.29754e-17
-9.05931e-14
-6.47594e-11
-6.73709e-17
-9.05589e-14
-6.47363e-11
-9.05988e-14
-6.47793e-11
4.08649e-19
-9.28794e-14
8.51141e-20
-9.27265e-14
-5.13943e-20
-9.28552e-14
-2.20286e-19
-9.28103e-14
-4.61837e-19
-9.27749e-14
-9.28178e-14
1.20721e-13
-2.99154e-10
-2.97759e-08
2.4318e-13
-2.9952e-10
-2.98445e-08
4.72643e-13
-2.99725e-10
-2.98468e-08
4.62034e-13
-2.99681e-10
-2.98515e-08
2.43451e-13
-2.99823e-10
-2.9874e-08
-2.99226e-10
-2.97919e-08
5.22124e-15
-6.46161e-12
-3.62191e-10
-2.08808e-15
-6.45438e-12
-3.62419e-10
-1.60753e-15
-6.46305e-12
-3.62736e-10
-3.15202e-15
-6.46102e-12
-3.62651e-10
-6.66407e-15
-6.45849e-12
-3.62755e-10
-6.46117e-12
-3.62251e-10
1.9693e-17
-6.55451e-12
-8.89011e-17
-6.547e-12
-7.64828e-17
-6.55591e-12
-9.55463e-17
-6.5538e-12
-1.24844e-17
-6.55134e-12
-6.55399e-12
1.86568e-10
-1.01174e-08
1.52358e-06
5.21025e-11
-1.0227e-08
1.53699e-06
6.96151e-11
-1.01697e-08
1.52854e-06
6.06725e-11
-1.01726e-08
1.53005e-06
-3.02094e-11
-1.02018e-08
1.53345e-06
-1.01524e-08
1.52965e-06
5.29486e-13
-9.41516e-10
-1.44545e-08
-2.99156e-13
-9.42389e-10
-1.45765e-08
1.16071e-13
-9.4228e-10
-1.45154e-08
-2.94462e-13
-9.42169e-10
-1.45148e-08
-3.80009e-13
-9.4212e-10
-1.45466e-08
-9.42222e-10
-1.44944e-08
-6.19666e-14
-9.47093e-10
-5.92522e-14
-9.48029e-10
-2.6874e-14
-9.47955e-10
-3.39064e-14
-9.47803e-10
6.55699e-16
-9.47795e-10
-9.47862e-10
4.64942e-08
4.83076e-05
3.28841e-05
1.41163e-08
4.83671e-05
3.49427e-05
1.78972e-08
4.83454e-05
3.37574e-05
1.55892e-08
4.83552e-05
3.39485e-05
-9.59101e-09
4.83668e-05
3.45336e-05
4.83102e-05
3.37326e-05
9.42367e-10
5.41994e-06
4.28249e-05
4.78566e-10
5.41339e-06
4.2892e-05
6.90149e-10
5.41654e-06
4.28666e-05
8.02675e-10
5.4156e-06
4.28774e-05
1.86838e-09
5.40939e-06
4.28941e-05
5.42274e-06
4.28274e-05
-6.71457e-11
5.11089e-06
-2.08569e-11
5.10484e-06
-1.64312e-11
5.10759e-06
1.02313e-11
5.10661e-06
1.64911e-10
5.10042e-06
5.11401e-06
2.11136e-06
-0.00219418
0.00593077
7.55464e-08
-0.00219797
0.0059494
-5.28088e-07
-0.00219662
0.00594201
9.74048e-08
-0.00219631
0.00594083
1.57537e-06
-0.0021971
0.005943
-0.00219578
0.00593888
-1.14925e-07
0.000180062
-0.00306943
-1.30572e-08
0.000180074
-0.00307443
-1.73136e-08
0.000180064
-0.00307337
5.77396e-10
0.00018003
-0.00307481
1.88581e-07
0.000179912
-0.00308264
0.00018022
-0.00306247
-1.88132e-08
0.000146688
-2.30871e-09
0.00014652
-1.32423e-09
0.000146578
6.0545e-10
0.000146538
2.19459e-08
0.000146342
0.000146823
-7.93114e-06
-0.0360281
-0.337824
8.71017e-06
-0.0359097
-0.337554
-9.71423e-06
-0.0359505
-0.337669
-6.94409e-06
-0.0359791
-0.337737
5.90229e-05
-0.0359433
-0.337593
-0.0359744
-0.337754
-6.81661e-06
-0.0018694
-0.0052325
2.88383e-07
-0.00187016
-0.00552284
1.34606e-06
-0.00186934
-0.00540898
5.22876e-07
-0.00186873
-0.005414
1.33768e-05
-0.0018618
-0.00550574
-0.00187685
-0.0052934
-2.67606e-07
1.53143e-21
9.11629e-08
1.93599e-21
2.9021e-07
2.08974e-21
2.29988e-07
2.14222e-21
6.94114e-07
2.07852e-21
1.47277e-21
0.000226608
-0.303723
0.21151
7.38285e-05
-0.303671
0.211504
4.04899e-05
-0.303701
0.211542
-1.12431e-05
-0.303722
0.211389
-0.000223871
-0.303738
0.211389
-0.303642
0.211481
-5.8206e-06
4.38223e-21
-0.0194622
8.68692e-07
5.53382e-21
-0.0191322
3.09947e-06
5.97647e-21
-0.0192606
7.49674e-07
6.124e-21
-0.019296
-2.47502e-07
5.93591e-21
-0.0192859
4.21774e-21
-0.0192727
2.14147e-24
2.84943e-22
-4.93218e-25
3.5982e-22
-5.52776e-25
3.88469e-22
-4.73676e-25
3.97789e-22
-9.77893e-25
3.84717e-22
2.73711e-22
-0.000400199
-0.144599
-0.561056
0.168891
-0.000321921
-0.144924
-0.559604
0.168538
-0.000278118
-0.145491
-0.560753
0.170854
0.000102425
-0.143479
-0.562291
0.165652
0.00183164
-0.141637
-0.561403
0.165284
-0.146884
-0.566453
0.173866
3.35167e-07
-0.0062771
-0.00237226
0.114951
-0.000129856
-0.00618917
-0.00238085
0.115591
-0.000519595
-0.00620755
-0.00238551
0.116278
-9.24751e-05
-0.00621221
-0.00235384
0.113095
0.0010207
-0.00596544
-0.00233568
0.109497
-0.00643258
-0.00240445
0.119117
2.02973e-05
9.84585e-23
0.0123473
-3.31489e-05
1.24809e-22
0.012695
-0.000152883
1.33987e-22
0.0129416
-6.31734e-05
1.1018e-22
0.0118966
0.000180834
1.31597e-22
0.0113302
9.85193e-23
0.0134483
-0.000254581
-0.0113932
-0.624576
-0.000263579
-0.0114065
-0.624073
-0.000643799
-0.0114104
-0.624135
8.79055e-05
-0.0114116
-0.626894
0.00167066
-0.0115039
-0.628034
-0.0113645
-0.625582
4.66583e-07
7.07671e-23
-0.0137659
4.95793e-07
8.94983e-23
-0.0137874
3.39236e-06
9.60237e-23
-0.0137988
4.12144e-06
7.99604e-23
-0.0137662
-3.12902e-06
9.55558e-23
-0.0138323
6.90683e-23
-0.0137721
-6.40102e-26
2.04955e-22
4.99463e-27
2.59111e-22
6.09116e-26
2.7648e-22
-1.03614e-25
1.83365e-22
-5.90219e-25
2.72685e-22
2.01441e-22
2.24794e-05
-0.0895798
-0.628903
-5.35732e-05
-0.0896445
-0.629047
-0.000466099
-0.0896372
-0.62884
-0.000342364
-0.0897396
-0.629886
0.000391984
-0.0901466
-0.631245
-0.0893216
-0.627397
-2.1017e-06
1.31394e-22
-0.103344
-2.71594e-07
1.66067e-22
-0.103434
3.36385e-06
1.76801e-22
-0.10344
2.30091e-05
1.18315e-22
-0.103525
2.92503e-05
1.77316e-22
-0.103985
1.27733e-22
-0.103064
-9.90313e-26
3.29001e-22
-1.44387e-25
4.15828e-22
-1.07228e-25
4.49481e-22
-5.78811e-25
4.58822e-22
-1.62303e-24
4.42715e-22
3.20505e-22
7.15523e-05
-0.188441
-0.492371
4.12608e-05
-0.188564
-0.492396
1.34879e-06
-0.188553
-0.492352
7.57829e-05
-0.188404
-0.492259
0.000379648
-0.188786
-0.492212
-0.187876
-0.491987
-4.22683e-05
2.70325e-22
-0.223267
-1.62634e-05
3.41946e-22
-0.223462
-7.57761e-05
3.69203e-22
-0.223483
2.41391e-05
3.77793e-22
-0.223436
0.000454271
3.66308e-22
-0.223728
2.60559e-22
-0.223366
-3.55612e-26
3.95693e-22
-1.28767e-25
5.00284e-22
2.15446e-26
5.40549e-22
-3.38541e-25
5.52087e-22
-8.1908e-25
5.32749e-22
3.84635e-22
0.000104894
-0.055902
-0.333513
3.68476e-05
-0.0558648
-0.333409
8.95827e-05
-0.0559167
-0.333436
-8.62037e-05
-0.0555995
-0.333437
-0.0005827
-0.0549942
-0.333675
-0.056423
-0.333095
-7.37998e-05
4.3672e-22
-0.151738
-2.08128e-05
5.52276e-22
-0.151925
-9.54591e-05
5.96214e-22
-0.151911
1.86383e-05
6.09886e-22
-0.151838
0.000473768
5.89557e-22
-0.151978
4.21951e-22
-0.151762
3.74286e-26
1.86969e-22
-2.06067e-25
2.36821e-22
-2.53117e-25
2.55899e-22
-7.5697e-25
2.61314e-22
-1.76814e-24
2.52217e-22
1.82294e-22
6.77233e-05
-0.019017
6.28287e-05
-0.0188475
0.00014347
-0.0189273
7.29413e-06
-0.0188656
-0.000524878
-0.0187077
-0.0190923
-7.70709e-05
9.91665e-22
1.34445e-05
1.25156e-21
2.14996e-05
1.3521e-21
7.32045e-06
1.38361e-21
4.28743e-05
1.33663e-21
9.56256e-22
5.95129e-25
-4.63236e-27
1.0498e-25
-2.94433e-25
-1.75657e-24
-4.38587e-31
6.22285e-25
-6.2727e-23
-2.09283e-31
6.23503e-25
-6.28302e-23
4.89356e-31
6.26275e-25
-6.31034e-23
1.08161e-30
6.13889e-25
-6.19044e-23
1.14066e-30
6.10421e-25
-6.14327e-23
6.34622e-25
-6.40885e-23
2.87598e-33
1.81264e-26
-1.19852e-24
3.07221e-33
1.8167e-26
-1.20087e-24
1.3495e-32
1.82488e-26
-1.20623e-24
2.25019e-32
1.78724e-26
-1.18222e-24
2.1448e-32
1.78057e-26
-1.17569e-24
1.84511e-26
-1.2222e-24
-7.82832e-35
-7.79943e-27
-7.02927e-35
-7.81725e-27
6.17994e-36
-7.85266e-27
7.43567e-35
-7.68934e-27
8.75412e-35