/*--------------------------------*- C++ -*----------------------------------*\
| =========                 |                                                 |
| \\      /  F ield         | OpenFOAM: The Open Source CFD Toolbox           |
|  \\    /   O peration     | Version:  v1612+                                |
|   \\  /    A nd           | Web:      www.OpenFOAM.com                      |
|    \\/     M anipulation  |                                                 |
\*---------------------------------------------------------------------------*/
FoamFile
{
    version     2.0;
    format      ascii;
    class       volScalarField;
    location    "3.8";
    object      alpha.water;
}
// * * * * * * * * * * * * * * * * * * * * * * * * * * * * * * * * * * * * * //

dimensions      [0 0 0 0 0 0 0];

internalField   nonuniform List<scalar> 
1116
(
0.608092
0.608091
0.608092
0.608094
0.608094
0.608092
0.607843
0.607841
0.607841
0.607844
0.607845
0.60784
0.645554
0.645552
0.645553
0.645555
0.645555
0.645553
0.709355
0.709354
0.709355
0.709357
0.709357
0.709356
0.774956
0.774955
0.774956
0.774957
0.774956
0.774957
0.833885
0.833884
0.833885
0.833886
0.833885
0.833886
0.900962
0.900956
0.900957
0.900957
0.900954
0.90096
0.97301
0.97301
0.97301
0.97301
0.97301
0.97301
0.973017
0.973017
0.973017
0.973017
0.973017
0.973017
0.973017
0.973017
0.973017
0.973017
0.973017
0.973017
0.972976
0.972976
0.972976
0.972976
0.972976
0.972976
0.971047
0.971047
0.971047
0.971047
0.971047
0.971047
0.00306961
0.00306689
0.00306586
0.0030673
0.00306688
0.0030675
2.67635e-08
2.67637e-08
2.67632e-08
2.67623e-08
2.6762e-08
2.67629e-08
9.93687e-09
9.93595e-09
9.93544e-09
9.93467e-09
9.93465e-09
9.9358e-09
9.28479e-09
9.28374e-09
9.28328e-09
9.28291e-09
9.28278e-09
9.28357e-09
0.00306113
0.00306222
0.00306196
0.00306244
0.00306327
0.00306204
0.0188371
0.0188387
0.0188385
0.0188393
0.0188406
0.0188389
0.0496931
0.0496958
0.0496962
0.0496968
0.049698
0.0496962
0.128111
0.128108
0.128111
0.128112
0.12811
0.128113
0.412072
0.412038
0.412055
0.412056
0.412044
0.412067
0.886157
0.88614
0.886146
0.886146
0.886138
0.886156
0.972965
0.972965
0.972965
0.972965
0.972965
0.972965
0.972938
0.972938
0.972938
0.972938
0.972938
0.972938
1.7811e-08
1.78111e-08
1.78107e-08
1.78108e-08
1.78115e-08
1.78116e-08
9.93683e-09
9.93591e-09
9.9354e-09
9.93463e-09
9.93461e-09
9.93576e-09
9.28518e-09
9.28408e-09
9.28363e-09
9.2831e-09
9.28306e-09
9.28397e-09
9.28406e-09
9.28362e-09
9.28309e-09
9.28293e-09
9.28309e-09
9.28288e-09
-4.9561e-09
-4.95635e-09
-4.95761e-09
-4.95715e-09
-4.9573e-09
-4.95964e-09
8.87548e-09
8.86626e-09
8.86862e-09
8.86909e-09
8.86935e-09
8.87388e-09
-3.93435e-08
-3.91831e-08
-3.92166e-08
-3.92031e-08
-3.91417e-08
-3.9305e-08
2.73887e-05
2.7385e-05
2.73862e-05
2.73857e-05
2.73838e-05
2.7385e-05
0.000786257
0.00078312
0.000784854
0.000784762
0.000783815
0.000785191
0.2687
0.268655
0.268673
0.268671
0.268654
0.268689
0.858094
0.858068
0.858076
0.858072
0.858057
0.85809
0.972935
0.972935
0.972935
0.972935
0.972935
0.972935
3.09745e-07
3.09617e-07
3.09673e-07
3.09716e-07
3.09695e-07
3.09829e-07
1.3072e-06
1.30705e-06
1.30709e-06
1.30709e-06
1.30703e-06
1.30725e-06
9.35651e-08
9.36092e-08
9.35988e-08
9.35845e-08
9.36052e-08
9.35854e-08
1.56665e-08
1.5644e-08
1.56468e-08
1.56364e-08
1.56304e-08
1.56775e-08
9.56225e-09
9.56077e-09
9.56048e-09
9.56011e-09
9.55987e-09
9.56156e-09
9.6311e-09
9.63037e-09
9.63008e-09
9.62987e-09
9.62986e-09
9.63034e-09
5.11976e-09
5.11966e-09
5.11968e-09
5.11956e-09
5.11987e-09
5.11902e-09
1.51141e-08
1.47254e-08
1.49876e-08
1.49459e-08
1.48291e-08
1.49545e-08
2.73322e-05
2.73288e-05
2.73299e-05
2.73294e-05
2.73275e-05
2.73286e-05
0.0556662
0.0556341
0.0556512
0.0556489
0.0556395
0.05565
0.636825
0.637139
0.637004
0.636944
0.637089
0.636872
0.971976
0.971979
0.971977
0.971977
0.971977
0.971977
2.40277e-31
2.40173e-31
2.41042e-31
2.36718e-31
2.40106e-31
2.35478e-31
1.45769e-28
1.45783e-28
1.46422e-28
1.44492e-28
1.45579e-28
1.43056e-28
4.15587e-26
4.15847e-26
4.18017e-26
4.15601e-26
4.14829e-26
4.08512e-26
7.2885e-24
7.29681e-24
7.34141e-24
7.37407e-24
7.27219e-24
7.17751e-24
8.67825e-22
8.69239e-22
8.75423e-22
8.89881e-22
8.65701e-22
8.5641e-22
7.35852e-20
7.37407e-20
7.43553e-20
7.6337e-20
7.34143e-20
7.28039e-20
4.60251e-18
4.61474e-18
4.66078e-18
4.78058e-18
4.59442e-18
4.56892e-18
2.62712e-17
2.63091e-17
2.64542e-17
3.54928e-17
2.61976e-17
2.59938e-17
9.13951e-15
9.16824e-15
9.27234e-15
9.01675e-15
9.11661e-15
9.26445e-15
8.07193e-13
8.09718e-13
8.2124e-13
8.06028e-13
8.07576e-13
8.33804e-13
2.42776e-12
2.43679e-12
2.47114e-12
2.35873e-12
2.43588e-12
2.42905e-12
6.6955e-12
6.68913e-12
6.66678e-12
6.64913e-12
6.66147e-12
6.68154e-12
9.63087e-30
9.62692e-30
9.66163e-30
9.29321e-30
9.60004e-30
9.39125e-30
6.18125e-27
6.18072e-27
6.20784e-27
5.96171e-27
6.16186e-27
6.03505e-27
1.86465e-24
1.86503e-24
1.87483e-24
1.79778e-24
1.85915e-24
1.82304e-24
3.49068e-22
3.49226e-22
3.5141e-22
3.36483e-22
3.48169e-22
3.41806e-22
4.55677e-20
4.55983e-20
4.59389e-20
4.39255e-20
4.54825e-20
4.47026e-20
4.48978e-18
4.49412e-18
4.53469e-18
4.32933e-18
4.48732e-18
4.41508e-18
2.81419e-17
2.77923e-17
2.7903e-17
2.70963e-17
2.76574e-17
2.74646e-17
3.46094e-16
3.48515e-16
3.32894e-16
3.68138e-16
3.41179e-16
3.41951e-16
8.97611e-12
8.9978e-12
9.08793e-12
8.68845e-12
9.01632e-12
8.85888e-12
1.10716e-09
1.11188e-09
1.12702e-09
1.07221e-09
1.11739e-09
1.09813e-09
1.11031e-10
1.11628e-10
1.1367e-10
1.07662e-10
1.11642e-10
1.11713e-10
1.94579e-10
1.96018e-10
1.99819e-10
1.88983e-10
1.96697e-10
1.96431e-10
7.7389e-27
7.75454e-27
7.79979e-27
7.54408e-27
7.81042e-27
7.63913e-27
4.05334e-24
4.0637e-24
4.09179e-24
3.94635e-24
4.08983e-24
4.0047e-24
9.47163e-22
9.50197e-22
9.58081e-22
9.20979e-22
9.55727e-22
9.36944e-22
1.28121e-19
1.28636e-19
1.29948e-19
1.24409e-19
1.29344e-19
1.2696e-19
1.11854e-17
1.12423e-17
1.1387e-17
1.08445e-17
1.13048e-17
1.11122e-17
4.96831e-17
4.97726e-17
5.00522e-17
4.83484e-17
5.0041e-17
4.90272e-17
1.0576e-15
1.05451e-15
1.04519e-15
1.06725e-15
1.05056e-15
1.05341e-15
9.66809e-15
9.91898e-15
1.02132e-14
8.77767e-15
9.94665e-15
9.12243e-15
6.34172e-12
6.38404e-12
6.49586e-12
6.13518e-12
6.42608e-12
6.33211e-12
1.06928e-07
1.07679e-07
1.09465e-07
1.03712e-07
1.08954e-07
1.06259e-07
4.55389e-06
4.58308e-06
4.6595e-06
4.42932e-06
4.59381e-06
4.57167e-06
2.63309e-10
2.65285e-10
2.70425e-10
2.55885e-10
2.66124e-10
2.65869e-10
4.30735e-27
4.32644e-27
4.38956e-27
4.15213e-27
4.37784e-27
4.27859e-27
2.86654e-24
2.88151e-24
2.92916e-24
2.74947e-24
2.92005e-24
2.84521e-24
9.18988e-22
9.24583e-22
9.41987e-22
8.74272e-22
9.38653e-22
9.09379e-22
1.92252e-19
1.93585e-19
1.97709e-19
1.80848e-19
1.96616e-19
1.89234e-19
2.39298e-17
2.4083e-17
2.45597e-17
2.2493e-17
2.43515e-17
2.34823e-17
4.67283e-17
4.69668e-17
4.77138e-17
4.46929e-17
4.73143e-17
4.62339e-17
1.99526e-15
2.07229e-15
2.1633e-15
1.85652e-15
1.99213e-15
2.08978e-15
4.393e-13
4.42621e-13
4.53856e-13
4.20386e-13
4.4135e-13
4.44668e-13
8.80252e-11
8.8762e-11
9.10795e-11
8.4262e-11
8.85266e-11
8.94606e-11
1.53344e-08
1.54634e-08
1.58443e-08
1.47059e-08
1.54027e-08
1.558e-08
0.000171899
0.000172765
0.000175399
0.000167626
0.000171985
0.000173658
0.000704109
0.000705232
0.000714187
0.000692745
0.000704477
0.000710339
2.67159e-08
2.6689e-08
2.6702e-08
2.67118e-08
2.67074e-08
2.67329e-08
2.73121e-09
2.72617e-09
2.72777e-09
2.72661e-09
2.72198e-09
2.73148e-09
-4.32226e-16
-4.73352e-16
-4.85887e-16
-4.75084e-16
-4.72272e-16
-4.83638e-16
1.33009e-06
1.33009e-06
1.3301e-06
1.33011e-06
1.33012e-06
1.33012e-06
2.9518e-07
2.94607e-07
2.94811e-07
2.94772e-07
2.94366e-07
2.95284e-07
-2.24755e-15
-2.46128e-15
-2.52661e-15
-2.47042e-15
-2.45578e-15
-2.51512e-15
4.92568e-07
4.92422e-07
4.92455e-07
4.92451e-07
4.92424e-07
4.92646e-07
1.26925e-21
1.18458e-21
1.19759e-21
1.16424e-21
1.12775e-21
1.23991e-21
-1.61351e-14
-1.767e-14
-1.81385e-14
-1.7735e-14
-1.76302e-14
-1.80546e-14
4.38008e-11
4.21592e-11
4.21613e-11
4.09158e-11
4.01375e-11
4.22739e-11
4.48664e-11
4.18487e-11
4.23158e-11
4.11283e-11
3.98306e-11
4.38423e-11
-1.1467e-14
-1.25571e-14
-1.28896e-14
-1.26022e-14
-1.25276e-14
-1.28288e-14
3.44432e-08
3.44421e-08
3.44401e-08
3.4438e-08
3.44374e-08
3.44388e-08
1.74363e-10
1.30825e-10
1.37745e-10
1.19809e-10
1.01268e-10
1.5908e-10
-4.77062e-16
-5.40888e-16
-5.60135e-16
-5.4341e-16
-5.39055e-16
-5.52183e-16
1.81024e-08
1.80942e-08
1.80876e-08
1.80894e-08
1.80903e-08
1.80856e-08
1.15923e-14
1.15712e-14
1.15907e-14
1.15867e-14
1.15803e-14
1.15924e-14
8.57414e-18
8.57444e-18
8.57435e-18
8.57454e-18
8.57456e-18
8.57473e-18
1.07927e-10
1.07598e-10
1.07816e-10
1.07722e-10
1.07639e-10
1.07852e-10
-6.08406e-13
-6.13644e-13
-6.13375e-13
-6.13825e-13
-6.1553e-13
-6.09763e-13
1.25032e-17
1.27421e-17
1.24028e-17
1.24538e-17
1.23763e-17
1.2482e-17
6.83326e-09
6.83083e-09
6.8328e-09
6.83279e-09
6.8314e-09
6.83416e-09
1.23051e-10
1.21487e-10
1.22446e-10
1.22244e-10
1.21772e-10
1.22514e-10
-6.08301e-14
-6.05927e-14
-6.07428e-14
-6.07367e-14
-6.06612e-14
-6.07598e-14
4.11489e-07
4.11346e-07
4.11408e-07
4.11428e-07
4.11427e-07
4.11328e-07
1.57085e-08
1.56778e-08
1.57042e-08
1.56955e-08
1.56841e-08
1.57006e-08
9.09371e-10
9.07712e-10
9.09057e-10
9.08814e-10
9.08184e-10
9.09187e-10
4.27096e-05
4.26158e-05
4.26697e-05
4.26651e-05
4.26328e-05
4.26738e-05
2.98344e-05
3.00049e-05
2.99655e-05
3.00069e-05
3.02228e-05
2.96598e-05
1.73352e-07
1.72961e-07
1.73205e-07
1.73197e-07
1.73058e-07
1.73222e-07
0.0761785
0.0761141
0.0761283
0.0761363
0.0760993
0.0761687
0.00667099
0.00669044
0.0066809
0.00668026
0.00667549
0.00668302
0.00129095
0.00129279
0.0012919
0.00129187
0.00129207
0.00129144
0.604593
0.604912
0.604768
0.604751
0.604759
0.604737
0.00106811
0.00123371
0.00116818
0.00117047
0.00121871
0.00110674
-1.28089e-21
-1.61694e-21
-1.74633e-21
-1.78995e-21
-1.73474e-21
-1.2327e-21
0.2486
0.248373
0.2492
0.247824
0.247686
0.250748
0.0351821
0.0352032
0.0353977
0.0346944
0.0334462
0.0363029
0.00512948
0.0051426
0.00517466
0.00505711
0.00487364
0.00521026
0.400112
0.399801
0.399947
0.400894
0.401108
0.401059
5.81368e-19
-1.615e-18
8.67362e-19
8.67362e-19
7.97973e-19
8.67362e-19
-2.77237e-23
-3.50439e-23
-3.76306e-23
-3.11388e-23
-3.72432e-23
-2.74019e-23
0.4958
0.495844
0.495675
0.496884
0.498106
0.494672
-1.15211e-15
-1.85032e-14
-1.19679e-12
-8.75149e-12
-7.46951e-13
8.04912e-18
-8.47663e-23
-1.07083e-22
-1.14208e-22
-7.60448e-23
-1.1317e-22
-8.24404e-23
0.633643
0.633719
0.63367
0.633987
0.634641
0.632999
0.0567721
0.0568596
0.0569008
0.0567963
0.0570771
0.0565687
-1.93606e-22
-2.4464e-22
-2.64271e-22
-2.7021e-22
-2.60818e-22
-1.87666e-22
0.673
0.673008
0.673013
0.67302
0.673023
0.673014
0.140134
0.140274
0.140275
0.140261
0.140526
0.139957
-4.05158e-22
-5.12108e-22
-5.53119e-22
-5.65438e-22
-5.45956e-22
-3.91515e-22
0.673008
0.673013
0.67302
0.673023
0.673023
0.673023
0.130944
0.131089
0.131034
0.131067
0.131112
0.130952
-7.16245e-22
-9.05301e-22
-9.77525e-22
-1.00062e-21
-9.67346e-22
-6.9063e-22
3.75949e-24
3.76676e-24
3.78351e-24
3.70868e-24
3.68772e-24
3.83402e-24
9.98485e-26
1.0007e-25
1.0052e-25
9.84473e-26
9.80798e-26
1.01637e-25
1.33642e-27
1.3397e-27
1.34569e-27
1.31713e-27
1.31457e-27
1.35768e-27
2.50967e-21
2.51374e-21
2.52471e-21
2.47677e-21
2.45794e-21
2.56429e-21
7.48364e-23
7.49818e-23
7.53172e-23
7.38188e-23
7.34118e-23
7.63178e-23
1.19411e-24
1.19682e-24
1.20225e-24
1.17725e-24
1.17342e-24
1.21499e-24
7.03205e-19
7.04129e-19
7.07173e-19
6.9405e-19
6.8734e-19
7.20013e-19
2.48333e-20
2.48732e-20
2.49813e-20
2.4507e-20
2.43234e-20
2.53717e-20
4.9702e-22
4.9802e-22
5.00254e-22
4.90232e-22
4.88019e-22
5.06356e-22
3.43587e-17
3.4408e-17
3.4557e-17
3.39333e-17
3.36462e-17
3.51364e-17
4.71348e-18
4.71939e-18
4.73929e-18
4.65269e-18
4.60757e-18
4.82558e-18
1.16741e-19
1.16938e-19
1.17438e-19
1.15229e-19
1.14569e-19
1.1904e-19
4.77791e-17
4.80027e-17
4.87061e-17
4.58247e-17
4.83155e-17
4.72891e-17
2.42227e-16
2.42455e-16
2.43457e-16
2.38997e-16
2.36316e-16
2.48256e-16
1.52577e-17
1.52767e-17
1.53341e-17
1.50837e-17
1.49817e-17
1.55521e-17
2.67302e-15
2.69384e-15
2.76078e-15
2.56135e-15
2.68976e-15
2.71072e-15
7.13306e-14
7.13635e-14
7.16193e-14
7.0484e-14
6.96907e-14
7.30086e-14
3.51312e-16
3.51652e-16
3.52797e-16
3.4707e-16
3.44813e-16
3.57249e-16
4.34404e-13
4.38068e-13
4.49691e-13
4.15444e-13
4.36735e-13
4.4158e-13
2.72414e-12
2.75101e-12
2.77839e-12
2.66599e-12
2.64459e-12
2.82213e-12
3.3193e-15
3.71647e-15
3.93575e-15
2.98501e-15
3.21786e-15
3.61947e-15
8.8803e-11
8.95627e-11
9.18938e-11
8.50148e-11
8.92681e-11
9.0282e-11
5.72669e-11
5.96717e-11
6.22636e-11
5.16897e-11
4.99571e-11
6.56579e-11
1.3482e-13
1.35006e-13
1.35694e-13
1.33259e-13
1.32028e-13
1.3826e-13
1.53324e-08
1.54613e-08
1.5842e-08
1.47039e-08
1.54008e-08
1.55761e-08
2.08997e-07
2.07453e-07
2.07613e-07
2.07143e-07
2.01672e-07
2.14036e-07
6.65249e-09
6.61658e-09
6.61325e-09
6.60927e-09
6.57642e-09
6.67983e-09
1.64934e-06
1.6628e-06
1.69913e-06
1.58841e-06
1.65404e-06
1.67396e-06
9.51422e-06
9.48506e-06
9.49899e-06
9.45625e-06
9.35478e-06
9.67132e-06
1.27665e-07
1.27713e-07
1.2802e-07
1.27351e-07
1.28675e-07
1.28521e-07
5.62617e-05
5.62575e-05
5.65928e-05
5.55804e-05
5.51999e-05
5.73884e-05
9.10959e-06
9.63507e-06
9.76726e-06
8.91877e-06
1.06453e-05
8.61546e-06
1.85956e-07
1.85519e-07
1.86076e-07
1.8478e-07
1.8275e-07
1.89697e-07
0.00860263
0.00861408
0.00879891
0.008316
0.00834234
0.00893744
0.020527
0.0207047
0.020865
0.0201599
0.019949
0.0210138
0.00520939
0.00533558
0.00543752
0.00501333
0.00484414
0.00557875
)
;

boundaryField
{
    seabed_topleft_surface
    {
        type            zeroGradient;
    }
    seabed_topright_surface
    {
        type            zeroGradient;
    }
    breakwater_top_surface
    {
        type            zeroGradient;
    }
    breakwater_left_surface
    {
        type            zeroGradient;
    }
    breakwater_right_surface
    {
        type            zeroGradient;
    }
    water_front_surface
    {
        type            zeroGradient;
    }
    water_back_surface
    {
        type            zeroGradient;
    }
    water_left_surface
    {
        type            zeroGradient;
    }
    water_right_surface
    {
        type            zeroGradient;
    }
    water_top_surface
    {
        type            inletOutlet;
        inletValue      uniform 0;
        value           nonuniform List<scalar> 
180
(
0
0
0
0
0
0
0
0
0
0
0
0
0
0
0
0
0
0
0
0
0
0
0
0
0
0
0
0
0
0
0
0
0
0
0
0
0
0
0
0
0
0
0
0
0
0
0
0
9.09371e-10
9.07712e-10
9.09057e-10
9.08814e-10
9.08184e-10
9.09187e-10
1.73352e-07
1.72961e-07
1.73205e-07
1.73197e-07
1.73058e-07
1.73222e-07
0.00129095
0.00129279
0.0012919
0.00129187
0.00129207
0.00129144
0
0
0
0
0
0
0.00512948
0.0051426
0.00517466
0.00505711
0.00487364
0.00521026
0
0
0
0
0
0
0
0
0
0
0
0
0
0
0
0
0
0
0
0
0
0
0
0
0
0
0
0
0
0
1.33642e-27
1.3397e-27
1.34569e-27
1.31713e-27
1.31457e-27
1.35768e-27
1.19411e-24
1.19682e-24
1.20225e-24
1.17725e-24
1.17342e-24
1.21499e-24
4.9702e-22
4.9802e-22
5.00254e-22
4.90232e-22
4.88019e-22
5.06356e-22
1.16741e-19
1.16938e-19
1.17438e-19
1.15229e-19
1.14569e-19
1.1904e-19
1.52577e-17
1.52767e-17
1.53341e-17
1.50837e-17
1.49817e-17
1.55521e-17
3.51312e-16
3.51652e-16
3.52797e-16
3.4707e-16
3.44813e-16
3.57249e-16
3.3193e-15
3.71647e-15
3.93575e-15
2.98501e-15
3.21786e-15
3.61947e-15
1.3482e-13
1.35006e-13
1.35694e-13
1.33259e-13
1.32028e-13
1.3826e-13
6.65249e-09
6.61658e-09
6.61325e-09
6.60927e-09
6.57642e-09
6.67983e-09
1.27665e-07
1.27713e-07
1.2802e-07
1.27351e-07
1.28675e-07
1.28521e-07
1.85956e-07
1.85519e-07
1.86076e-07
1.8478e-07
1.8275e-07
1.89697e-07
0.00520939
0.00533558
0.00543752
0.00501333
0.00484414
0.00557875
)
;
    }
}


// ************************************************************************* //
