/*--------------------------------*- C++ -*----------------------------------*\
| =========                 |                                                 |
| \\      /  F ield         | OpenFOAM: The Open Source CFD Toolbox           |
|  \\    /   O peration     | Version:  v1612+                                |
|   \\  /    A nd           | Web:      www.OpenFOAM.com                      |
|    \\/     M anipulation  |                                                 |
\*---------------------------------------------------------------------------*/
FoamFile
{
    version     2.0;
    format      ascii;
    class       volScalarField;
    location    "3.8";
    object      p;
}
// * * * * * * * * * * * * * * * * * * * * * * * * * * * * * * * * * * * * * //

dimensions      [1 -1 -2 0 0 0 0];

internalField   nonuniform List<scalar> 
1116
(
3064.53
3064.5
3064.53
3064.53
3064.51
3064.56
2989.6
2989.58
2989.58
2989.6
2989.59
2989.58
3139.54
3139.53
3139.54
3139.55
3139.55
3139.53
3448.84
3448.84
3448.84
3448.85
3448.85
3448.85
3794.32
3794.34
3794.34
3794.36
3794.37
3794.34
4318.73
4318.74
4318.74
4318.75
4318.76
4318.74
5208.73
5208.75
5208.75
5208.76
5208.76
5208.76
7051.04
7051.04
7051.06
7051.07
7051.07
7051.08
9979.67
9979.64
9979.68
9979.69
9979.67
9979.7
14228.5
14228.4
14228.4
14228.4
14228.4
14228.5
17383
17382.9
17382.9
17382.9
17382.9
17383
19956.9
19956.7
19956.8
19956.8
19956.8
19956.9
-35.718
-35.7244
-35.7265
-35.7244
-35.7263
-35.7228
-70.3737
-70.3728
-70.373
-70.3727
-70.3723
-70.3736
-68.1294
-68.1278
-68.1271
-68.1266
-68.1255
-68.1268
-14.4085
-14.4071
-14.4066
-14.4058
-14.4049
-14.406
78.3619
78.3649
78.3653
78.3664
78.3677
78.3649
147.19
147.19
147.19
147.188
147.187
147.188
282.791
282.798
282.8
282.803
282.808
282.804
697.596
697.581
697.593
697.597
697.594
697.618
2148
2147.93
2147.98
2147.98
2147.95
2148.01
5790.01
5789.8
5789.91
5789.9
5789.84
5789.91
9377.62
9377.43
9377.49
9377.46
9377.47
9377.49
12704
12703.8
12703.8
12703.8
12703.9
12704
-41.0663
-41.0663
-41.0665
-41.0665
-41.0665
-41.0664
-45.8868
-45.8865
-45.8864
-45.8864
-45.8863
-45.8864
-45.8707
-45.87
-45.8698
-45.8695
-45.8692
-45.87
-33.6087
-33.6081
-33.6078
-33.6074
-33.6071
-33.6075
-15.814
-15.8128
-15.8127
-15.8124
-15.8125
-15.8146
-6.76881
-6.76905
-6.76899
-6.76904
-6.76936
-6.76905
-7.64415
-7.64424
-7.6451
-7.6452
-7.64497
-7.64504
6.19323
6.19002
6.18858
6.18709
6.18609
6.18621
108.792
108.792
108.791
108.792
108.795
108.796
825.929
825.522
825.739
825.732
825.638
825.858
4873.03
4871.7
4872.08
4872.22
4872.14
4872.76
8261.25
8261.1
8260.99
8261.02
8261.16
8261.24
-48.4939
-48.4935
-48.4935
-48.4936
-48.4936
-48.4938
-47.9098
-47.9097
-47.9097
-47.9097
-47.9097
-47.9099
-43.1762
-43.1761
-43.176
-43.176
-43.1761
-43.1763
-28.7147
-28.715
-28.7148
-28.715
-28.7152
-28.715
-10.3327
-10.335
-10.3346
-10.3355
-10.3364
-10.3335
-10.0932
-10.0942
-10.0943
-10.0946
-10.0953
-10.094
-12.9357
-12.9354
-12.936
-12.9365
-12.9367
-12.9367
-8.10164
-8.10329
-8.10308
-8.10429
-8.10508
-8.10611
8.40352
8.40143
8.40325
8.40364
8.40447
8.40416
160.648
160.635
160.653
160.634
160.644
160.628
2313.07
2304.91
2308.1
2309.64
2307.64
2311.3
5933.44
5930.69
5931.3
5931.24
5931.16
5932.25
-0.490463
-0.490456
-0.490454
-0.490461
-0.490469
-0.490474
-0.28825
-0.288219
-0.288213
-0.28822
-0.288229
-0.288233
0.122305
0.122346
0.122347
0.122332
0.122315
0.122303
0.752919
0.752927
0.752902
0.752865
0.752834
0.752813
1.61905
1.619
1.61894
1.61889
1.61886
1.61886
2.73464
2.73454
2.73447
2.73441
2.73438
2.73436
4.10159
4.1015
4.1014
4.10131
4.10121
4.10109
5.69673
5.69664
5.69656
5.6965
5.69646
5.69642
7.42447
7.42442
7.42447
7.42455
7.42476
7.42499
9.13137
9.13145
9.13173
9.13154
9.1324
9.13277
11.1789
11.179
11.1803
11.1789
11.1811
11.1816
11.0405
11.0408
11.043
11.0385
11.0407
11.0425
-10.5056
-10.5056
-10.5056
-10.5056
-10.5056
-10.5057
-10.3013
-10.3013
-10.3013
-10.3013
-10.3013
-10.3013
-9.88718
-9.88715
-9.88717
-9.88721
-9.88724
-9.88728
-9.25396
-9.25398
-9.25404
-9.25411
-9.25417
-9.25421
-8.38956
-8.38965
-8.38974
-8.38979
-8.38982
-8.38981
-7.27871
-7.2788
-7.27885
-7.27884
-7.2788
-7.2788
-5.9006
-5.90063
-5.90061
-5.90055
-5.90048
-5.9005
-4.2277
-4.22763
-4.22748
-4.22732
-4.22701
-4.22673
-2.27404
-2.27384
-2.27336
-2.27349
-2.27233
-2.27201
-0.24409
-0.244144
-0.242742
-0.245864
-0.242273
-0.242318
1.91798
1.91787
1.9206
1.91426
1.91723
1.91939
-1.2088
-1.21093
-1.20864
-1.21282
-1.21565
-1.19909
-20.7267
-20.7267
-20.7267
-20.7267
-20.7267
-20.7267
-20.5259
-20.5258
-20.5259
-20.5259
-20.5259
-20.5259
-20.1124
-20.1124
-20.1124
-20.1124
-20.1125
-20.1125
-19.4608
-19.4608
-19.4609
-19.461
-19.461
-19.4611
-18.5283
-18.5284
-18.5285
-18.5285
-18.5285
-18.5285
-17.2572
-17.2572
-17.2572
-17.2572
-17.2571
-17.2571
-15.5957
-15.5957
-15.5955
-15.5953
-15.5951
-15.5949
-13.5086
-13.5085
-13.5081
-13.508
-13.5074
-13.5065
-11.0929
-11.0934
-11.0923
-11.0946
-11.0931
-11.092
-8.72922
-8.72985
-8.72224
-8.74208
-8.7303
-8.72837
-6.80119
-6.79731
-6.77974
-6.83414
-6.81209
-6.7899
-4.34339
-4.34078
-4.29007
-4.44111
-4.42104
-4.27401
-31.142
-31.142
-31.142
-31.142
-31.142
-31.142
-30.9593
-30.9593
-30.9593
-30.9593
-30.9593
-30.9593
-30.5833
-30.5833
-30.5833
-30.5834
-30.5834
-30.5835
-29.996
-29.996
-29.9961
-29.9962
-29.9963
-29.9963
-29.1708
-29.1709
-29.1709
-29.1709
-29.1709
-29.1709
-28.064
-28.064
-28.0639
-28.0637
-28.0636
-28.0635
-26.5654
-26.5653
-26.5649
-26.5651
-26.5645
-26.5642
-24.3521
-24.3524
-24.3509
-24.3532
-24.3513
-24.3505
-20.9009
-20.9024
-20.8967
-20.91
-20.9034
-20.8992
-14.5622
-14.5607
-14.5277
-14.6178
-14.5764
-14.5416
-8.06899
-8.08275
-8.05722
-8.08033
-8.07763
-8.04351
-43.5609
-43.6537
-43.6993
-43.3199
-43.5904
-43.5716
-53.2382
-53.2382
-53.2383
-53.2385
-53.2387
-53.2388
-59.4445
-59.4446
-59.4448
-59.4449
-59.4451
-59.4452
-66.636
-66.6361
-66.6361
-66.6362
-66.6362
-66.6361
-52.2136
-52.2137
-52.2138
-52.2138
-52.2139
-52.2141
-58.4838
-58.4839
-58.4839
-58.4839
-58.484
-58.4839
-66.2085
-66.2086
-66.2085
-66.2085
-66.2085
-66.2083
-48.8334
-48.8334
-48.8334
-48.8334
-48.8334
-48.8335
-56.1212
-56.1212
-56.1211
-56.121
-56.1209
-56.1208
-65.292
-65.2921
-65.292
-65.292
-65.292
-65.2919
-42.4861
-42.4859
-42.4859
-42.4858
-42.4858
-42.4858
-52.2641
-52.2641
-52.2642
-52.2641
-52.2641
-52.264
-63.9742
-63.9743
-63.9743
-63.9743
-63.9743
-63.9743
-35.7011
-35.7008
-35.7008
-35.7008
-35.7007
-35.7008
-48.3661
-48.3663
-48.3664
-48.3666
-48.3667
-48.3667
-62.5993
-62.5993
-62.5993
-62.5993
-62.5993
-62.5994
-30.8511
-30.8508
-30.8508
-30.8508
-30.851
-30.8512
-46.4276
-46.4275
-46.4274
-46.4275
-46.4277
-46.4278
-61.3947
-61.3946
-61.3946
-61.3946
-61.3946
-61.3945
-27.26
-27.26
-27.2603
-27.2607
-27.2609
-27.2611
-45.3312
-45.331
-45.331
-45.3312
-45.3315
-45.3318
-60.7406
-60.7405
-60.7404
-60.7406
-60.7405
-60.7406
-27.2757
-27.2805
-27.2805
-27.2812
-27.2814
-27.2803
-54.4842
-54.4841
-54.4843
-54.485
-54.485
-54.4852
-59.3774
-59.3773
-59.3775
-59.3778
-59.3777
-59.3771
-15.399
-15.395
-15.3926
-15.3919
-15.3909
-15.4003
-31.8932
-31.8864
-31.8844
-31.8822
-31.8775
-31.8961
-62.2926
-62.2926
-62.2918
-62.2918
-62.2907
-62.2918
-23.4156
-23.3936
-23.3934
-23.3927
-23.3842
-23.4181
-39.0778
-39.0716
-39.0736
-39.0747
-39.0709
-39.0755
-72.4218
-72.4245
-72.4261
-72.4274
-72.4274
-72.4206
47.2954
48.0595
47.7512
47.6726
47.9561
47.4371
-137.488
-137.711
-137.674
-137.704
-137.735
-137.53
-113.888
-113.938
-113.926
-113.925
-113.931
-113.901
3895.77
3897.06
3896.57
3896.04
3895.69
3896.95
45.2918
44.9417
44.9549
44.9759
44.9575
45.2045
-103.45
-103.368
-103.387
-103.383
-103.373
-103.419
425.953
425.98
430.814
417.365
413.305
439.427
-225.934
-225.343
-224.518
-227.558
-228.123
-222.001
-210.543
-210.509
-210.372
-210.064
-209.083
-210.15
1965.8
1964.5
1965.32
1969.32
1969.51
1971.78
-84.0566
-84.0125
-83.973
-84.1876
-84.3382
-83.6496
-139.637
-139.694
-139.641
-139.561
-139.513
-139.611
2480.21
2480.97
2481.41
2483.54
2487.75
2476.72
-52.6688
-52.612
-52.4893
-52.9355
-53.1503
-51.9289
-104.078
-104.067
-104.051
-103.976
-103.944
-103.998
3526.87
3527.12
3527.97
3527.54
3530.52
3524.85
209.528
209.874
210.094
209.565
210.776
208.797
-85.5611
-85.5518
-85.5466
-85.5105
-85.4907
-85.508
3927.33
3927.56
3927.78
3927.84
3927.66
3927.93
609.995
610.651
610.676
610.599
611.833
609.226
-80.4664
-80.4534
-80.4501
-80.4375
-80.4222
-80.4518
4086.53
4087.55
4087.47
4087.56
4087.54
4087.13
480.045
481.85
481.184
481.384
482.04
480.28
-85.8188
-85.7787
-85.7822
-85.7739
-85.7563
-85.7972
-41.7104
-41.7104
-41.7104
-41.7104
-41.7104
-41.7104
-52.4335
-52.4335
-52.4335
-52.4334
-52.4334
-52.4334
-63.2367
-63.2366
-63.2366
-63.2366
-63.2366
-63.2366
-41.5608
-41.5607
-41.5607
-41.5607
-41.5607
-41.5607
-52.3387
-52.3387
-52.3387
-52.3387
-52.3387
-52.3387
-63.2036
-63.2036
-63.2036
-63.2036
-63.2036
-63.2036
-41.2466
-41.2466
-41.2467
-41.2467
-41.2468
-41.2468
-52.1416
-52.1417
-52.1417
-52.1417
-52.1418
-52.1418
-63.1366
-63.1366
-63.1366
-63.1366
-63.1367
-63.1367
-40.7295
-40.7295
-40.7296
-40.7297
-40.7297
-40.7298
-51.8288
-51.8289
-51.8289
-51.829
-51.829
-51.8289
-63.0365
-63.0366
-63.0366
-63.0366
-63.0366
-63.0365
-39.9333
-39.9334
-39.9334
-39.9334
-39.9333
-39.9332
-51.3831
-51.3831
-51.3831
-51.383
-51.3829
-51.3828
-62.9156
-62.9156
-62.9156
-62.9155
-62.9155
-62.9155
-38.7204
-38.7204
-38.7204
-38.7204
-38.7203
-38.7201
-50.8109
-50.8109
-50.8109
-50.8108
-50.8108
-50.8107
-62.8337
-62.8337
-62.8337
-62.8337
-62.8337
-62.8338
-36.9369
-36.9369
-36.9372
-36.9373
-36.9375
-36.9364
-50.2895
-50.2895
-50.2896
-50.2896
-50.2896
-50.2894
-63.0117
-63.0117
-63.0118
-63.0119
-63.0118
-63.0119
-33.9837
-33.9833
-33.985
-33.9864
-33.9927
-33.9777
-49.9595
-49.9594
-49.9595
-49.9577
-49.9579
-49.9563
-63.8963
-63.8962
-63.8957
-63.8949
-63.8932
-63.8959
-29.581
-29.5794
-29.5889
-29.5858
-29.6189
-29.5665
-46.1523
-46.1497
-46.1559
-46.1661
-46.1751
-46.1592
-60.45
-60.4502
-60.4528
-60.4631
-60.4671
-60.4532
-38.2867
-38.2765
-38.301
-38.2605
-38.2947
-38.2803
-72.2482
-72.2326
-72.2573
-72.2051
-72.2067
-72.2477
-76.8396
-76.8258
-76.8435
-76.8557
-76.8556
-76.8346
-55.801
-55.7971
-55.7844
-55.7484
-55.7694
-55.8162
-56.3962
-56.3964
-56.4198
-56.4018
-56.3948
-56.3991
-58.0187
-58.0271
-58.0411
-58.0388
-58.0757
-58.0356
-65.5852
-65.6915
-65.8453
-64.9464
-65.8213
-65.872
-164.781
-164.724
-164.404
-165.547
-165.247
-164.109
-113.418
-113.116
-113.211
-113.881
-113.911
-112.969
)
;

boundaryField
{
    seabed_topleft_surface
    {
        type            calculated;
        value           nonuniform List<scalar> 
72
(
6059.4
6059.36
6059.4
6059.41
6059.39
6059.42
5983.24
5983.21
5983.21
5983.25
5983.25
5983.21
6318.61
6318.59
6318.6
6318.62
6318.62
6318.6
6941.61
6941.61
6941.62
6941.63
6941.63
6941.62
7609.65
7609.66
7609.67
7609.69
7609.7
7609.67
8423.81
8423.81
8423.82
8423.83
8423.84
8423.83
9643.63
9643.61
9643.62
9643.63
9643.62
9643.65
11840.2
11840.2
11840.2
11840.2
11840.2
11840.2
14768.9
14768.8
14768.9
14768.9
14768.8
14768.9
19017.7
19017.6
19017.6
19017.6
19017.6
19017.7
22172
22171.8
22171.9
22171.9
22171.9
22172
24736.4
24736.2
24736.3
24736.3
24736.3
24736.4
)
;
    }
    seabed_topright_surface
    {
        type            calculated;
        value           nonuniform List<scalar> 
72
(
4.43139
4.4314
4.4314
4.4314
4.43139
4.43138
4.63361
4.63364
4.63364
4.63364
4.63363
4.63362
5.04416
5.0442
5.0442
5.04419
5.04417
5.04416
5.67477
5.67478
5.67476
5.67472
5.67469
5.67467
6.54091
6.54085
6.54079
6.54075
6.54072
6.54072
7.65649
7.6564
7.65633
7.65627
7.65624
7.65622
9.02345
9.02335
9.02326
9.02316
9.02306
9.02295
10.6186
10.6185
10.6184
10.6184
10.6183
10.6183
12.3463
12.3463
12.3463
12.3464
12.3466
12.3468
14.0532
14.0533
14.0536
14.0534
14.0543
14.0546
16.1008
16.1009
16.1021
16.1008
16.103
16.1034
15.9624
15.9626
15.9649
15.9604
15.9626
15.9643
)
;
    }
    breakwater_top_surface
    {
        type            calculated;
        value           nonuniform List<scalar> 
36
(
1649.02
1647.94
1656.82
1636.63
1631.9
1673.02
3931.29
3928.46
3930.01
3938.65
3939.88
3941.91
4914.59
4915.56
4915.16
4923.22
4933.42
4905.57
6636.69
6637.31
6637.92
6639.04
6645.22
6631.51
7229.99
7230.27
7230.51
7230.6
7230.44
7230.67
7389.24
7390.28
7390.23
7390.34
7390.32
7389.91
)
;
    }
    breakwater_left_surface
    {
        type            calculated;
        value           nonuniform List<scalar> 
24
(
19973.2
19973.1
19973.2
19973.2
19973.2
19973.2
12720.1
12719.9
12719.9
12719.9
12719.9
12720.1
8277.01
8276.85
8276.74
8276.77
8276.91
8276.99
5948.87
5946.12
5946.72
5946.67
5946.59
5947.68
)
;
    }
    breakwater_right_surface
    {
        type            calculated;
        value           nonuniform List<scalar> 
24
(
11.0574
11.0576
11.0599
11.0554
11.0576
11.0593
-1.19229
-1.19441
-1.19213
-1.1963
-1.19913
-1.18258
-4.3272
-4.3246
-4.27388
-4.42492
-4.40485
-4.25782
-43.5339
-43.6267
-43.6721
-43.293
-43.5633
-43.5445
)
;
    }
    water_front_surface
    {
        type            calculated;
        value           nonuniform List<scalar> 
186
(
3064.53
2989.6
3139.54
3448.84
3794.32
4318.73
5208.73
7051.04
9979.67
14228.5
17383
19956.9
-35.718
-70.3737
-68.1294
-14.4085
78.3619
147.19
282.791
697.596
2148
5790.01
9377.62
12704
-41.0663
-45.8868
-45.8707
-33.6087
-15.814
-6.76881
-7.64415
6.19323
108.792
825.929
4873.03
8261.25
-48.4939
-47.9098
-43.1762
-28.7147
-10.3327
-10.0932
-12.9357
-8.10164
8.40352
160.648
2313.07
5933.44
-0.490463
-0.28825
0.122305
0.752919
1.61905
2.73464
4.10159
5.69673
7.42447
9.13137
11.1789
11.0405
-10.5056
-10.3013
-9.88718
-9.25396
-8.38956
-7.27871
-5.9006
-4.2277
-2.27404
-0.24409
1.91798
-1.2088
-20.7267
-20.5259
-20.1124
-19.4608
-18.5283
-17.2572
-15.5957
-13.5086
-11.0929
-8.72922
-6.80119
-4.34339
-31.142
-30.9593
-30.5833
-29.996
-29.1708
-28.064
-26.5654
-24.3521
-20.9009
-14.5622
-8.06899
-43.5609
-53.2382
-59.4445
-66.636
-52.2136
-58.4838
-66.2085
-48.8334
-56.1212
-65.292
-42.4861
-52.2641
-63.9742
-35.7011
-48.3661
-62.5993
-30.8511
-46.4276
-61.3947
-27.26
-45.3312
-60.7406
-27.2757
-54.4842
-59.3774
-15.399
-31.8932
-62.2926
-23.4156
-39.0778
-72.4218
47.2954
-137.488
-113.888
3895.77
45.2918
-103.45
425.953
-225.934
-210.543
1965.8
-84.0566
-139.637
2480.21
-52.6688
-104.078
3526.87
209.528
-85.5611
3927.33
609.995
-80.4664
4086.53
480.045
-85.8188
-41.7104
-52.4335
-63.2367
-41.5608
-52.3387
-63.2036
-41.2466
-52.1416
-63.1366
-40.7295
-51.8288
-63.0365
-39.9333
-51.3831
-62.9156
-38.7204
-50.8109
-62.8337
-36.9369
-50.2895
-63.0117
-33.9837
-49.9595
-63.8963
-29.581
-46.1523
-60.45
-38.2867
-72.2482
-76.8396
-55.801
-56.3962
-58.0187
-65.5852
-164.781
-113.418
)
;
    }
    water_back_surface
    {
        type            calculated;
        value           nonuniform List<scalar> 
186
(
3064.56
2989.58
3139.53
3448.85
3794.34
4318.74
5208.76
7051.08
9979.7
14228.5
17383
19956.9
-35.7228
-70.3736
-68.1268
-14.406
78.3649
147.188
282.804
697.618
2148.01
5789.91
9377.49
12704
-41.0664
-45.8864
-45.87
-33.6075
-15.8146
-6.76905
-7.64504
6.18621
108.796
825.858
4872.76
8261.24
-48.4938
-47.9099
-43.1763
-28.715
-10.3335
-10.094
-12.9367
-8.10611
8.40416
160.628
2311.3
5932.25
-0.490474
-0.288233
0.122303
0.752813
1.61886
2.73436
4.10109
5.69642
7.42499
9.13277
11.1816
11.0425
-10.5057
-10.3013
-9.88728
-9.25421
-8.38981
-7.2788
-5.9005
-4.22673
-2.27201
-0.242318
1.91939
-1.19909
-20.7267
-20.5259
-20.1125
-19.4611
-18.5285
-17.2571
-15.5949
-13.5065
-11.092
-8.72837
-6.7899
-4.27401
-31.142
-30.9593
-30.5835
-29.9963
-29.1709
-28.0635
-26.5642
-24.3505
-20.8992
-14.5416
-8.04351
-43.5716
-53.2388
-59.4452
-66.6361
-52.2141
-58.4839
-66.2083
-48.8335
-56.1208
-65.2919
-42.4858
-52.264
-63.9743
-35.7008
-48.3667
-62.5994
-30.8512
-46.4278
-61.3945
-27.2611
-45.3318
-60.7406
-27.2803
-54.4852
-59.3771
-15.4003
-31.8961
-62.2918
-23.4181
-39.0755
-72.4206
47.4371
-137.53
-113.901
3896.95
45.2045
-103.419
439.427
-222.001
-210.15
1971.78
-83.6496
-139.611
2476.72
-51.9289
-103.998
3524.85
208.797
-85.508
3927.93
609.226
-80.4518
4087.13
480.28
-85.7972
-41.7104
-52.4334
-63.2366
-41.5607
-52.3387
-63.2036
-41.2468
-52.1418
-63.1367
-40.7298
-51.8289
-63.0365
-39.9332
-51.3828
-62.9155
-38.7201
-50.8107
-62.8338
-36.9364
-50.2894
-63.0119
-33.9777
-49.9563
-63.8959
-29.5665
-46.1592
-60.4532
-38.2803
-72.2477
-76.8346
-55.8162
-56.3991
-58.0356
-65.872
-164.109
-112.969
)
;
    }
    water_left_surface
    {
        type            calculated;
        value           nonuniform List<scalar> 
42
(
3074.79
3074.76
3074.79
3074.78
3074.77
3074.81
-35.6509
-35.6573
-35.6594
-35.6572
-35.6592
-35.6556
-41.0501
-41.0502
-41.0503
-41.0504
-41.0503
-41.0502
-48.478
-48.4776
-48.4776
-48.4777
-48.4777
-48.478
-53.2382
-53.2382
-53.2383
-53.2385
-53.2387
-53.2388
-59.4445
-59.4446
-59.4448
-59.4449
-59.4451
-59.4452
-66.636
-66.6361
-66.6361
-66.6362
-66.6362
-66.6361
)
;
    }
    water_right_surface
    {
        type            calculated;
        value           nonuniform List<scalar> 
42
(
-0.473607
-0.473601
-0.473598
-0.473605
-0.473613
-0.473618
-10.4891
-10.4891
-10.4891
-10.4891
-10.4891
-10.4891
-20.7105
-20.7105
-20.7105
-20.7105
-20.7105
-20.7105
-31.1261
-31.1261
-31.1262
-31.1262
-31.1262
-31.1261
-41.7104
-41.7104
-41.7104
-41.7104
-41.7104
-41.7104
-52.4335
-52.4335
-52.4335
-52.4334
-52.4334
-52.4334
-63.2367
-63.2366
-63.2366
-63.2366
-63.2366
-63.2366
)
;
    }
    water_top_surface
    {
        type            calculated;
        value           nonuniform List<scalar> 
180
(
-70.2421
-70.2424
-70.2423
-70.2423
-70.2423
-70.2421
-70.1355
-70.1358
-70.1357
-70.1357
-70.1357
-70.1354
-69.6856
-69.6858
-69.6858
-69.6857
-69.6858
-69.6855
-69.3336
-69.3337
-69.3337
-69.3336
-69.3336
-69.3335
-69.0049
-69.005
-69.005
-69.005
-69.005
-69.0048
-68.8289
-68.829
-68.829
-68.829
-68.8289
-68.8288
-68.7469
-68.747
-68.747
-68.747
-68.7469
-68.7469
-68.7885
-68.7885
-68.7885
-68.7885
-68.7885
-68.7885
-68.6701
-68.6701
-68.6701
-68.6701
-68.6701
-68.6701
-68.6819
-68.6819
-68.6819
-68.6819
-68.6819
-68.6819
-157.231
-157.357
-157.296
-157.294
-157.308
-157.265
-92.9173
-93.0641
-93.0139
-92.9982
-93.0374
-92.9571
-420.559
-421.459
-423.658
-415.595
-403.008
-426.101
-127.557
-127.706
-127.575
-127.957
-128.047
-126.531
-89.3504
-89.3686
-89.3011
-89.4811
-89.4635
-89.3265
-88.572
-88.6114
-88.5928
-88.6147
-88.7598
-88.3967
-83.6275
-83.6421
-83.6287
-83.6499
-83.6882
-83.6168
-91.8556
-91.7932
-91.8121
-91.8016
-91.7799
-91.8449
-68.67
-68.67
-68.67
-68.67
-68.67
-68.67
-68.67
-68.67
-68.67
-68.67
-68.67
-68.67
-68.67
-68.67
-68.67
-68.67
-68.67
-68.67
-68.67
-68.67
-68.67
-68.67
-68.67
-68.67
-68.67
-68.67
-68.67
-68.67
-68.67
-68.67
-68.67
-68.67
-68.67
-68.67
-68.67
-68.67
-68.67
-68.67
-68.67
-68.67
-68.67
-68.67
-68.67
-68.67
-68.67
-68.67
-68.67
-68.67
-68.6705
-68.6705
-68.6705
-68.6705
-68.6705
-68.6705
-68.6788
-68.6788
-68.6788
-68.6787
-68.6788
-68.6788
-68.6828
-68.6827
-68.6828
-68.6827
-68.6825
-68.683
-426.041
-434.698
-441.691
-412.591
-400.984
-451.38
)
;
    }
}


// ************************************************************************* //
