/*--------------------------------*- C++ -*----------------------------------*\
| =========                 |                                                 |
| \\      /  F ield         | OpenFOAM: The Open Source CFD Toolbox           |
|  \\    /   O peration     | Version:  v1612+                                |
|   \\  /    A nd           | Web:      www.OpenFOAM.com                      |
|    \\/     M anipulation  |                                                 |
\*---------------------------------------------------------------------------*/
FoamFile
{
    version     2.0;
    format      ascii;
    class       volScalarField;
    location    "3.8";
    object      p_rgh;
}
// * * * * * * * * * * * * * * * * * * * * * * * * * * * * * * * * * * * * * //

dimensions      [1 -1 -2 0 0 0 0];

internalField   nonuniform List<scalar> 
1116
(
6059.4
6059.36
6059.4
6059.41
6059.39
6059.42
5983.24
5983.21
5983.21
5983.25
5983.25
5983.21
6318.61
6318.59
6318.6
6318.62
6318.62
6318.6
6941.61
6941.61
6941.62
6941.63
6941.63
6941.62
7609.65
7609.66
7609.67
7609.69
7609.7
7609.67
8423.81
8423.81
8423.82
8423.83
8423.84
8423.83
9643.63
9643.61
9643.62
9643.63
9643.62
9643.65
11840.2
11840.2
11840.2
11840.2
11840.2
11840.2
14768.9
14768.8
14768.9
14768.9
14768.8
14768.9
19017.7
19017.6
19017.6
19017.6
19017.6
19017.7
22172
22171.8
22171.9
22171.9
22171.9
22172
24736.4
24736.2
24736.3
24736.3
24736.3
24736.4
24.1882
24.1419
24.1247
24.1479
24.1398
24.1524
-55.6418
-55.6409
-55.6411
-55.6408
-55.6403
-55.6417
-53.3978
-53.3961
-53.3955
-53.3949
-53.3939
-53.3951
0.323148
0.324562
0.325074
0.325848
0.326786
0.325639
138.143
138.162
138.159
138.167
138.181
138.16
439.142
439.166
439.163
439.172
439.19
439.167
1028.84
1028.89
1028.9
1028.91
1028.93
1028.9
2597.71
2597.65
2597.71
2597.72
2597.69
2597.76
8227.1
8226.54
8226.84
8226.85
8226.65
8227.04
18846.1
18845.7
18845.9
18845.8
18845.7
18846
23711.3
23711.1
23711.1
23711.1
23711.1
23711.1
27037.2
27037.1
27037.1
27037.1
27037.1
27037.2
-16.5247
-16.5247
-16.5249
-16.5249
-16.5249
-16.5247
-21.3454
-21.3451
-21.345
-21.3449
-21.3448
-21.345
-21.3293
-21.3286
-21.3284
-21.3281
-21.3278
-21.3286
-9.06726
-9.06671
-9.06636
-9.06595
-9.06572
-9.06611
8.72709
8.72826
8.72835
8.72867
8.72853
8.72647
17.7726
17.7724
17.7724
17.7724
17.772
17.7724
16.8961
16.896
16.8951
16.895
16.8953
16.8952
31.4059
31.4026
31.4012
31.3997
31.3986
31.3988
152.61
152.533
152.574
152.572
152.552
152.587
7438.09
7436.57
7437.24
7437.19
7436.68
7437.76
25935.2
25933.2
25933.8
25933.8
25933.4
25934.8
32138.9
32138.7
32138.6
32138.7
32138.8
32138.9
-14.1324
-14.132
-14.132
-14.1321
-14.1321
-14.1323
-13.5141
-13.514
-13.514
-13.514
-13.514
-13.5142
-8.8221
-8.82199
-8.82191
-8.82192
-8.82202
-8.82226
5.63671
5.63644
5.63661
5.63643
5.63621
5.63637
24.0185
24.0162
24.0166
24.0157
24.0148
24.0177
24.258
24.257
24.2569
24.2566
24.256
24.2572
21.4153
21.4157
21.415
21.4146
21.4144
21.4144
26.2498
26.2481
26.2483
26.2471
26.2463
26.2453
43.6923
43.6901
43.692
43.6924
43.6931
43.6929
2105.27
2104.15
2104.76
2104.66
2104.35
2104.69
24201.1
24203.6
24202.2
24201.7
24204.7
24200.9
39322.6
39320
39320.5
39320.5
39320.4
39321.5
4.43139
4.4314
4.4314
4.4314
4.43139
4.43138
4.63361
4.63364
4.63364
4.63364
4.63363
4.63362
5.04416
5.0442
5.0442
5.04419
5.04417
5.04416
5.67477
5.67478
5.67476
5.67472
5.67469
5.67467
6.54091
6.54085
6.54079
6.54075
6.54072
6.54072
7.65649
7.6564
7.65633
7.65627
7.65624
7.65622
9.02345
9.02335
9.02326
9.02316
9.02306
9.02295
10.6186
10.6185
10.6184
10.6184
10.6183
10.6183
12.3463
12.3463
12.3463
12.3464
12.3466
12.3468
14.0532
14.0533
14.0536
14.0534
14.0543
14.0546
16.1008
16.1009
16.1021
16.1008
16.103
16.1034
15.9624
15.9626
15.9649
15.9604
15.9626
15.9643
4.2259
4.2259
4.22589
4.22588
4.22587
4.22586
4.43021
4.43023
4.43022
4.43021
4.43019
4.43019
4.84434
4.84436
4.84434
4.84431
4.84427
4.84424
5.47756
5.47754
5.47747
5.47741
5.47734
5.4773
6.34195
6.34186
6.34178
6.34172
6.3417
6.3417
7.45281
7.45271
7.45267
7.45268
7.45271
7.45271
8.83092
8.83088
8.83091
8.83097
8.83103
8.83101
10.5038
10.5039
10.504
10.5042
10.5045
10.5048
12.4575
12.4577
12.4582
12.458
12.4592
12.4595
14.4874
14.4874
14.4888
14.4857
14.4893
14.4892
16.6495
16.6494
16.6521
16.6458
16.6487
16.6509
13.5227
13.5206
13.5229
13.5187
13.5159
13.5324
3.8145
3.8145
3.81449
3.81448
3.81447
3.81448
4.01533
4.01534
4.01534
4.01532
4.01531
4.01532
4.42881
4.42882
4.42879
4.42875
4.42871
4.42867
5.08042
5.08037
5.0803
5.08022
5.08014
5.08008
6.0129
6.0128
6.01272
6.01267
6.01265
6.01266
7.28402
7.28394
7.28395
7.28401
7.28409
7.28412
8.94552
8.94553
8.94568
8.94586
8.94609
8.9463
11.0326
11.0327
11.033
11.0332
11.0338
11.0346
13.4483
13.4477
13.4488
13.4466
13.4481
13.4492
15.8146
15.814
15.8216
15.8017
15.8136
15.8154
17.8516
17.8562
17.8757
17.8156
17.8417
17.8634
20.1978
20.2004
20.2511
20.1001
20.1202
20.2672
3.20886
3.20885
3.20885
3.20884
3.20885
3.20887
3.39158
3.39159
3.39158
3.39158
3.39158
3.39158
3.76757
3.76757
3.76754
3.76749
3.76744
3.76738
4.35491
4.35485
4.35477
4.35468
4.35459
4.35454
5.18009
5.18001
5.17996
5.17995
5.17998
5.18002
6.28689
6.2869
6.28701
6.28713
6.28729
6.28738
7.78551
7.78556
7.78598
7.78581
7.78635
7.78664
9.99875
9.99846
9.99994
9.9977
9.99959
10.0004
13.45
13.4484
13.4542
13.4409
13.4475
13.4517
19.7892
19.7907
19.8237
19.7336
19.775
19.8098
32.1809
32.1968
32.3127
32.0229
32.1752
32.2667
14.9525
14.8983
15.16
14.8036
14.9357
15.1556
-9.09206
-9.09201
-9.09215
-9.09233
-9.0925
-9.09266
-5.48936
-5.48946
-5.48961
-5.48979
-5.48997
-5.49005
-2.87097
-2.87106
-2.87111
-2.87117
-2.87121
-2.87108
-8.00993
-8.01001
-8.0101
-8.01018
-8.01029
-8.01043
-4.51291
-4.51303
-4.51302
-4.51305
-4.51312
-4.513
-2.44355
-2.44356
-2.44352
-2.4435
-2.44348
-2.44333
-4.66672
-4.6667
-4.66671
-4.66669
-4.66671
-4.6668
-2.16624
-2.16621
-2.16609
-2.16597
-2.16591
-2.1658
-1.52701
-1.52706
-1.52702
-1.52698
-1.52695
-1.52691
1.65891
1.65914
1.65911
1.65918
1.65924
1.65918
1.6909
1.69086
1.69084
1.69087
1.69091
1.69101
-0.209173
-0.209313
-0.209347
-0.209336
-0.209318
-0.209337
8.44538
8.44568
8.44575
8.44577
8.44579
8.44571
5.58889
5.58872
5.58857
5.58843
5.58832
5.58832
1.16573
1.16571
1.1657
1.16569
1.16568
1.16563
13.2947
13.295
13.295
13.295
13.2948
13.2946
7.52744
7.5275
7.52759
7.52747
7.52732
7.52721
2.37034
2.37038
2.37043
2.37042
2.37043
2.37053
16.885
16.885
16.8847
16.8843
16.8841
16.8839
8.62383
8.62396
8.62401
8.62375
8.62345
8.6232
3.02445
3.02452
3.02457
3.02445
3.02448
3.02444
16.8696
16.8648
16.8648
16.8641
16.8639
16.865
-0.529184
-0.529141
-0.529323
-0.52998
-0.530012
-0.530174
4.38763
4.38769
4.38754
4.38715
4.38734
4.38789
28.7641
28.7682
28.7706
28.7712
28.7722
28.7629
22.0626
22.0694
22.0714
22.0736
22.0783
22.0598
1.47246
1.47248
1.47328
1.4733
1.47434
1.47326
22.613
22.6308
22.6333
22.6339
22.641
22.6088
16.4853
16.5007
16.4966
16.4977
16.5131
16.4782
-8.64571
-8.64852
-8.65004
-8.65132
-8.65133
-8.6446
3450.98
3448.9
3449.22
3449.49
3448.14
3450.69
276.041
276.865
276.389
276.324
276.036
276.647
32.1127
32.1794
32.1353
32.1342
32.1404
32.1304
30603
30618.3
30611.5
30610.2
30610.2
30610.5
156.819
165.395
161.876
162.02
164.602
158.814
-39.6846
-39.6026
-39.6224
-39.6178
-39.6075
-39.6538
11433.6
11423.6
11464.9
11390.8
11380.6
11541.8
1724.37
1726.1
1737.41
1696.46
1628.62
1788.72
179.976
180.846
183.025
175.845
165.138
185.515
19655.2
19640.2
19647.5
19693.2
19702.8
19703
-30.1016
-30.0575
-30.018
-30.2326
-30.3832
-29.6946
-75.8718
-75.9291
-75.8763
-75.7964
-75.7475
-75.8465
24389.6
24392.3
24385.2
24440.7
24498.8
24336.3
1.2862
1.34298
1.46568
1.01947
0.804728
2.02613
-40.3131
-40.3023
-40.2858
-40.2114
-40.179
-40.2326
31515.2
31518.8
31517.5
31531.1
31562.9
31484.8
3323.56
3328.62
3331.06
3324.9
3341.25
3311.87
-21.7961
-21.7868
-21.7816
-21.7455
-21.7257
-21.743
33651.3
33651.9
33652.4
33652.7
33652.7
33652.6
8217.34
8225.54
8225.58
8224.76
8240.27
8207.03
-16.7014
-16.6884
-16.6851
-16.6725
-16.6572
-16.6868
33810.9
33812.1
33812.4
33812.6
33812.6
33812.2
7592
7601.63
7598.02
7600
7603.05
7592.71
-22.0538
-22.0137
-22.0172
-22.0089
-21.9913
-22.0322
2.43457
2.43457
2.43457
2.43457
2.43459
2.43461
1.52154
1.52154
1.52155
1.52155
1.52157
1.52158
0.528349
0.528352
0.528354
0.528358
0.528363
0.528364
2.58425
2.58426
2.58425
2.58425
2.58426
2.58425
1.61634
1.61634
1.61634
1.61634
1.61634
1.61632
0.561441
0.561444
0.561443
0.561439
0.561432
0.561419
2.89837
2.89835
2.89832
2.89827
2.89821
2.89815
1.81336
1.81334
1.81332
1.81328
1.81322
1.81318
0.628417
0.628406
0.62839
0.628367
0.628344
0.628338
3.41554
3.41547
3.41539
3.41532
3.41526
3.41524
2.12617
2.12611
2.12606
2.12603
2.12601
2.12606
0.728455
0.728436
0.72842
0.728411
0.728426
0.728476
4.2117
4.21163
4.2116
4.21162
4.21168
4.21177
2.57193
2.5719
2.57192
2.57198
2.57208
2.57219
0.849385
0.849393
0.849411
0.849451
0.849506
0.849518
5.42462
5.4246
5.4246
5.42463
5.42469
5.42485
3.14411
3.14411
3.14413
3.14418
3.14424
3.14429
0.93127
0.931276
0.931283
0.931301
0.931316
0.931235
7.20812
7.20808
7.20785
7.20768
7.20745
7.2086
3.66553
3.66548
3.66536
3.66541
3.66539
3.66565
0.753292
0.753271
0.753194
0.753114
0.753225
0.75311
10.1613
10.1617
10.16
10.1586
10.1523
10.1673
3.99551
3.99559
3.99553
3.99735
3.99709
3.99871
-0.131313
-0.131185
-0.130744
-0.129897
-0.128209
-0.130856
14.5647
14.5663
14.5568
14.5599
14.5268
14.5792
7.81401
7.81644
7.81033
7.80009
7.79077
7.80733
3.31545
3.31517
3.31262
3.30232
3.29829
3.31226
5.931
5.94179
5.91898
5.95459
5.92323
5.9385
-17.7804
-17.7663
-17.7903
-17.7404
-17.7475
-17.7715
-13.0665
-13.0526
-13.0704
-13.0826
-13.0824
-13.0614
-9.17485
-9.17113
-9.14364
-9.1523
-9.19007
-9.14034
-1.9502
-1.92209
-1.93832
-1.96602
-1.866
-1.97972
5.75815
5.74967
5.73577
5.73793
5.70096
5.74147
357.943
358.342
366.339
345.941
346.228
372.422
995.602
1005.24
1014.2
975.046
963.981
1022.51
282.191
290.532
296.931
269.239
258.431
306.169
)
;

boundaryField
{
    seabed_topleft_surface
    {
        type            fixedFluxPressure;
        gradient        uniform 0;
        value           nonuniform List<scalar> 
72
(
6059.4
6059.36
6059.4
6059.41
6059.39
6059.42
5983.24
5983.21
5983.21
5983.25
5983.25
5983.21
6318.61
6318.59
6318.6
6318.62
6318.62
6318.6
6941.61
6941.61
6941.62
6941.63
6941.63
6941.62
7609.65
7609.66
7609.67
7609.69
7609.7
7609.67
8423.81
8423.81
8423.82
8423.83
8423.84
8423.83
9643.63
9643.61
9643.62
9643.63
9643.62
9643.65
11840.2
11840.2
11840.2
11840.2
11840.2
11840.2
14768.9
14768.8
14768.9
14768.9
14768.8
14768.9
19017.7
19017.6
19017.6
19017.6
19017.6
19017.7
22172
22171.8
22171.9
22171.9
22171.9
22172
24736.4
24736.2
24736.3
24736.3
24736.3
24736.4
)
;
    }
    seabed_topright_surface
    {
        type            fixedFluxPressure;
        gradient        uniform 0;
        value           nonuniform List<scalar> 
72
(
4.43139
4.4314
4.4314
4.4314
4.43139
4.43138
4.63361
4.63364
4.63364
4.63364
4.63363
4.63362
5.04416
5.0442
5.0442
5.04419
5.04417
5.04416
5.67477
5.67478
5.67476
5.67472
5.67469
5.67467
6.54091
6.54085
6.54079
6.54075
6.54072
6.54072
7.65649
7.6564
7.65633
7.65627
7.65624
7.65622
9.02345
9.02335
9.02326
9.02316
9.02306
9.02295
10.6186
10.6185
10.6184
10.6184
10.6183
10.6183
12.3463
12.3463
12.3463
12.3464
12.3466
12.3468
14.0532
14.0533
14.0536
14.0534
14.0543
14.0546
16.1008
16.1009
16.1021
16.1008
16.103
16.1034
15.9624
15.9626
15.9649
15.9604
15.9626
15.9643
)
;
    }
    breakwater_top_surface
    {
        type            fixedFluxPressure;
        gradient        uniform 0;
        value           nonuniform List<scalar> 
36
(
11433.6
11423.6
11464.9
11390.8
11380.6
11541.8
19655.2
19640.2
19647.5
19693.2
19702.8
19703
24389.6
24392.3
24385.2
24440.7
24498.8
24336.3
31515.2
31518.8
31517.5
31531.1
31562.9
31484.8
33651.3
33651.9
33652.4
33652.7
33652.7
33652.6
33810.9
33812.1
33812.4
33812.6
33812.6
33812.2
)
;
    }
    breakwater_left_surface
    {
        type            fixedFluxPressure;
        gradient        uniform 0;
        value           nonuniform List<scalar> 
24
(
24736.4
24736.2
24736.3
24736.3
24736.3
24736.4
27037.2
27037.1
27037.1
27037.1
27037.1
27037.2
32138.9
32138.7
32138.6
32138.7
32138.8
32138.9
39322.6
39320
39320.5
39320.5
39320.4
39321.5
)
;
    }
    breakwater_right_surface
    {
        type            fixedFluxPressure;
        gradient        uniform 0;
        value           nonuniform List<scalar> 
24
(
15.9624
15.9626
15.9649
15.9604
15.9626
15.9643
13.5227
13.5206
13.5229
13.5187
13.5159
13.5324
20.1978
20.2004
20.2511
20.1001
20.1202
20.2672
14.9525
14.8983
15.16
14.8036
14.9357
15.1556
)
;
    }
    water_front_surface
    {
        type            fixedFluxPressure;
        gradient        uniform 0;
        value           nonuniform List<scalar> 
186
(
6059.4
5983.24
6318.61
6941.61
7609.65
8423.81
9643.63
11840.2
14768.9
19017.7
22172
24736.4
24.1882
-55.6418
-53.3978
0.323148
138.143
439.142
1028.84
2597.71
8227.1
18846.1
23711.3
27037.2
-16.5247
-21.3454
-21.3293
-9.06726
8.72709
17.7726
16.8961
31.4059
152.61
7438.09
25935.2
32138.9
-14.1324
-13.5141
-8.8221
5.63671
24.0185
24.258
21.4153
26.2498
43.6923
2105.27
24201.1
39322.6
4.43139
4.63361
5.04416
5.67477
6.54091
7.65649
9.02345
10.6186
12.3463
14.0532
16.1008
15.9624
4.2259
4.43021
4.84434
5.47756
6.34195
7.45281
8.83092
10.5038
12.4575
14.4874
16.6495
13.5227
3.8145
4.01533
4.42881
5.08042
6.0129
7.28402
8.94552
11.0326
13.4483
15.8146
17.8516
20.1978
3.20886
3.39158
3.76757
4.35491
5.18009
6.28689
7.78551
9.99875
13.45
19.7892
32.1809
14.9525
-9.09206
-5.48936
-2.87097
-8.00993
-4.51291
-2.44355
-4.66672
-2.16624
-1.52701
1.65891
1.6909
-0.209173
8.44538
5.58889
1.16573
13.2947
7.52744
2.37034
16.885
8.62383
3.02445
16.8696
-0.529184
4.38763
28.7641
22.0626
1.47246
22.613
16.4853
-8.64571
3450.98
276.041
32.1127
30603
156.819
-39.6846
11433.6
1724.37
179.976
19655.2
-30.1016
-75.8718
24389.6
1.2862
-40.3131
31515.2
3323.56
-21.7961
33651.3
8217.34
-16.7014
33810.9
7592
-22.0538
2.43457
1.52154
0.528349
2.58425
1.61634
0.561441
2.89837
1.81336
0.628417
3.41554
2.12617
0.728455
4.2117
2.57193
0.849385
5.42462
3.14411
0.93127
7.20812
3.66553
0.753292
10.1613
3.99551
-0.131313
14.5647
7.81401
3.31545
5.931
-17.7804
-13.0665
-9.17485
-1.9502
5.75815
357.943
995.602
282.191
)
;
    }
    water_back_surface
    {
        type            fixedFluxPressure;
        gradient        uniform 0;
        value           nonuniform List<scalar> 
186
(
6059.42
5983.21
6318.6
6941.62
7609.67
8423.83
9643.65
11840.2
14768.9
19017.7
22172
24736.4
24.1524
-55.6417
-53.3951
0.325639
138.16
439.167
1028.9
2597.76
8227.04
18846
23711.1
27037.2
-16.5247
-21.345
-21.3286
-9.06611
8.72647
17.7724
16.8952
31.3988
152.587
7437.76
25934.8
32138.9
-14.1323
-13.5142
-8.82226
5.63637
24.0177
24.2572
21.4144
26.2453
43.6929
2104.69
24200.9
39321.5
4.43138
4.63362
5.04416
5.67467
6.54072
7.65622
9.02295
10.6183
12.3468
14.0546
16.1034
15.9643
4.22586
4.43019
4.84424
5.4773
6.3417
7.45271
8.83101
10.5048
12.4595
14.4892
16.6509
13.5324
3.81448
4.01532
4.42867
5.08008
6.01266
7.28412
8.9463
11.0346
13.4492
15.8154
17.8634
20.2672
3.20887
3.39158
3.76738
4.35454
5.18002
6.28738
7.78664
10.0004
13.4517
19.8098
32.2667
15.1556
-9.09266
-5.49005
-2.87108
-8.01043
-4.513
-2.44333
-4.6668
-2.1658
-1.52691
1.65918
1.69101
-0.209337
8.44571
5.58832
1.16563
13.2946
7.52721
2.37053
16.8839
8.6232
3.02444
16.865
-0.530174
4.38789
28.7629
22.0598
1.47326
22.6088
16.4782
-8.6446
3450.69
276.647
32.1304
30610.5
158.814
-39.6538
11541.8
1788.72
185.515
19703
-29.6946
-75.8465
24336.3
2.02613
-40.2326
31484.8
3311.87
-21.743
33652.6
8207.03
-16.6868
33812.2
7592.71
-22.0322
2.43461
1.52158
0.528364
2.58425
1.61632
0.561419
2.89815
1.81318
0.628338
3.41524
2.12606
0.728476
4.21177
2.57219
0.849518
5.42485
3.14429
0.931235
7.2086
3.66565
0.75311
10.1673
3.99871
-0.130856
14.5792
7.80733
3.31226
5.9385
-17.7715
-13.0614
-9.14034
-1.97972
5.74147
372.422
1022.51
306.169
)
;
    }
    water_left_surface
    {
        type            fixedFluxPressure;
        gradient        uniform 0;
        value           nonuniform List<scalar> 
42
(
6059.4
6059.36
6059.4
6059.41
6059.39
6059.42
24.1882
24.1419
24.1247
24.1479
24.1398
24.1524
-16.5247
-16.5247
-16.5249
-16.5249
-16.5249
-16.5247
-14.1324
-14.132
-14.132
-14.1321
-14.1321
-14.1323
-9.09206
-9.09201
-9.09215
-9.09233
-9.0925
-9.09266
-5.48936
-5.48946
-5.48961
-5.48979
-5.48997
-5.49005
-2.87097
-2.87106
-2.87111
-2.87117
-2.87121
-2.87108
)
;
    }
    water_right_surface
    {
        type            fixedFluxPressure;
        gradient        uniform 0;
        value           nonuniform List<scalar> 
42
(
4.43139
4.4314
4.4314
4.4314
4.43139
4.43138
4.2259
4.2259
4.22589
4.22588
4.22587
4.22586
3.8145
3.8145
3.81449
3.81448
3.81447
3.81448
3.20886
3.20885
3.20885
3.20884
3.20885
3.20887
2.43457
2.43457
2.43457
2.43457
2.43459
2.43461
1.52154
1.52154
1.52155
1.52155
1.52157
1.52158
0.528349
0.528352
0.528354
0.528358
0.528363
0.528364
)
;
    }
    water_top_surface
    {
        type            totalPressure;
        rho             rho;
        psi             none;
        gamma           1;
        p0              uniform 0;
        value           nonuniform List<scalar> 
180
(
-1.57206
-1.57236
-1.57232
-1.57231
-1.57234
-1.57205
-1.46549
-1.46576
-1.46572
-1.4657
-1.46573
-1.46543
-1.01561
-1.01581
-1.01576
-1.01574
-1.01576
-1.01551
-0.663567
-0.663703
-0.663657
-0.663637
-0.66365
-0.663475
-0.334859
-0.334989
-0.33497
-0.334964
-0.334976
-0.334848
-0.158868
-0.158985
-0.158975
-0.158959
-0.158935
-0.158792
-0.0769158
-0.0769851
-0.0769708
-0.076958
-0.0769466
-0.0768637
-0.118487
-0.118546
-0.118523
-0.11855
-0.118516
-0.118514
0
0
0
0
0
0
0
0
0
0
0
0
0
0
0
0
0
0
-24.2473
-24.3941
-24.3439
-24.3282
-24.3674
-24.2871
0
0
0
0
0
0
-58.887
-59.0363
-58.9051
-59.2872
-59.3766
-57.8606
-20.6804
-20.6986
-20.6311
-20.8111
-20.7935
-20.6565
-19.902
-19.9414
-19.9228
-19.9447
-20.0898
-19.7267
-14.9575
-14.9721
-14.9587
-14.9799
-15.0182
-14.9468
-23.1856
-23.1232
-23.1421
-23.1316
-23.1099
-23.1749
0
0
0
0
0
0
0
0
0
0
0
0
0
0
0
0
0
0
0
0
0
0
0
0
0
0
0
0
0
0
0
0
0
0
0
0
0
0
0
0
0
0
0
0
0
0
0
0
0
0
0
0
0
0
0
0
0
0
0
0
0
0
0
0
0
0
0
0
0
0
0
0
)
;
    }
}


// ************************************************************************* //
