/*--------------------------------*- C++ -*----------------------------------*\
| =========                 |                                                 |
| \\      /  F ield         | OpenFOAM: The Open Source CFD Toolbox           |
|  \\    /   O peration     | Version:  v1612+                                |
|   \\  /    A nd           | Web:      www.OpenFOAM.com                      |
|    \\/     M anipulation  |                                                 |
\*---------------------------------------------------------------------------*/
FoamFile
{
    version     2.0;
    format      ascii;
    class       volScalarField;
    location    "9.8";
    object      p;
}
// * * * * * * * * * * * * * * * * * * * * * * * * * * * * * * * * * * * * * //

dimensions      [1 -1 -2 0 0 0 0];

internalField   nonuniform List<scalar> 
1116
(
7000.08
7002.54
6999.68
6992.66
6987.48
6994.27
7238.49
7236.01
7239.74
7247.92
7257.34
7243.48
7584.22
7575.23
7577.56
7589.57
7595.96
7579.95
7837.79
7835.38
7834.54
7836.83
7838.45
7833.08
8114.91
8113.12
8109.97
8110.91
8109.97
8103.81
8489.12
8488.34
8486.38
8485.81
8483.63
8481.04
9186.41
9187.03
9186.44
9186.28
9183.55
9186.06
10255.7
10258.9
10258.7
10260
10261.6
10259.7
11816.4
11817
11816.7
11814.2
11816
11816.7
13287.7
13287.5
13284.9
13279.4
13273.2
13284.1
14458.4
14455.3
14446.4
14439.3
14439.9
14445.1
14350.2
14334.9
14339.7
14354.5
14338.4
14351
1436.76
1437.61
1433.12
1435.37
1436.13
1430.73
1505.2
1497.8
1497.99
1509.49
1521.99
1495.45
1479.29
1461.08
1462.06
1484.25
1499.78
1460.96
1569.93
1552.95
1548.89
1563.58
1567.2
1539.12
1672.85
1663.34
1657.96
1665.49
1663.52
1646.47
1842.34
1840.04
1837.21
1838.74
1835.49
1828.8
2107.87
2107.58
2108.12
2110.78
2111.53
2107.13
2690.68
2689.27
2690.82
2695.55
2699.95
2695.31
4124.29
4125.62
4123.94
4119.86
4111.6
4132.27
5643.08
5624.73
5627.77
5614.79
5595.07
5642.03
6921.76
6920.97
6904.97
6873.05
6876.65
6916.25
8082.92
8077.44
8083.41
8123.15
8130.01
8123.38
-26.7145
-26.5338
-26.5637
-26.6279
-26.5413
-26.5205
-28.7912
-28.5622
-28.5806
-28.9016
-29.0405
-28.6897
-30.4372
-30.3337
-30.2441
-30.2828
-30.444
-30.263
-29.837
-29.9213
-29.8261
-29.579
-29.5091
-29.7276
-28.4998
-28.6474
-28.6189
-28.4475
-28.4134
-28.5299
-28.014
-28.1567
-28.1965
-28.0886
-28.1945
-28.2428
-23.2106
-23.1896
-23.3279
-23.3836
-23.5661
-23.3307
87.2926
87.5284
87.2437
86.9556
87.0009
87.679
333.416
329.29
328.675
328.168
326.987
330.139
674.193
642.354
645.915
641.377
637.125
645.89
2642.08
2572.23
2514.41
2558.99
2563.27
2524.11
4399.87
4416.27
4401.06
4426.83
4538.75
4456.5
-26.3089
-26.3486
-26.3455
-26.2748
-26.147
-26.2969
-26.3747
-26.3923
-26.391
-26.3896
-26.279
-26.3337
-26.202
-26.0748
-26.1345
-26.2289
-26.2762
-26.1294
-27.7955
-27.6759
-27.6915
-27.7623
-27.7785
-27.6449
-28.9196
-28.8391
-28.8368
-28.8675
-28.8522
-28.7574
-32.7465
-32.7499
-32.7473
-32.7345
-32.7173
-32.608
-42.806
-42.4392
-42.6025
-42.7245
-42.5058
-42.6565
-30.5591
-30.5288
-30.6423
-30.7163
-30.6441
-30.7327
-24.1234
-25.1332
-25.7947
-25.641
-26.0562
-25.3952
16.1712
4.5488
2.81307
0.0607396
-2.05923
-2.70092
234.639
152.645
151.018
133.267
124.801
118.405
1197.04
957.73
919.263
896.255
857.796
916.822
670.733
680.849
666.337
602.45
536.076
476.192
697.137
699.651
672.975
630.852
593.917
564.814
736.599
733.407
708.265
697.481
686.391
676.314
795.273
775.513
768.622
779.297
764.261
767.347
852.968
822.618
864.657
843.651
800.514
811.466
913.748
903.21
923.935
885.631
807.45
816.218
954.272
899.191
927.687
922.681
835.787
836.609
1061.67
931.201
986.603
954.242
872.931
909.554
1142.76
1075.91
1155.77
1084.09
1079.08
1118.24
1080.67
1121.75
1224.96
1078.18
1128.32
1207.01
988.163
1034.6
1067.63
1005.04
1038.4
1061.54
931.199
966.602
919.41
885.285
868.597
889.154
65.0552
76.9189
81.5022
41.142
24.4192
22.0806
76.5846
88.026
73.1882
55.3863
40.9102
36.2036
106.045
105.347
99.898
95.397
78.7911
71.6451
142.001
132.745
139.451
152.348
140.042
118.067
168.74
191.581
252.518
212.911
161.168
139.983
197.259
246.669
240.82
193.071
133.102
130.847
256.969
235.989
206.469
174.398
106.91
123.364
429.844
258.217
230.375
188.949
107.509
140.304
392.13
407.771
383.902
185.17
179.771
228.608
506.693
411.511
346.818
319.242
174.721
347.355
644.397
575.113
530.821
489.374
491.218
569.979
685.696
714.063
639.681
582.426
578.33
602.623
-24.6654
-24.9371
-24.605
-25.1758
-24.483
-22.8891
-24.7306
-24.846
-24.036
-24.3711
-24.5805
-23.5307
-22.4192
-24.4611
-24.0709
-24.1322
-25.0336
-24.3861
-24.0341
-25.6033
-25.0518
-25.5768
-26.4457
-26.2972
-23.9898
-24.3857
-24.2246
-25.0365
-25.1513
-25.2004
-21.1425
-21.8358
-20.4785
-21.1258
-20.9143
-20.304
-17.2386
-18.7612
-15.7763
-16.1624
-16.0196
-15.1534
-3.1458
-11.0104
-10.0365
-13.0895
-13.8954
-11.2068
28.4047
8.47083
11.4052
-17.2205
-8.09262
-0.371379
172.19
48.4578
-92.3414
41.0176
-12.8045
29.5328
377.413
233.632
110.858
196.284
182.352
151.845
436.145
451.09
394.038
369.886
395.536
405.656
-32.6816
-33.7956
-34.2277
-32.9791
-30.8644
-29.427
-33.1868
-34.1946
-34.2672
-33.5789
-32.3742
-31.2627
-33.4719
-33.9538
-34.0941
-33.9551
-33.8746
-32.9155
-35.2397
-35.15
-35.2979
-35.6439
-36.0702
-35.4811
-37.1306
-37.3293
-37.106
-36.6608
-37.387
-36.8036
-37.9988
-40.9236
-36.9521
-35.7791
-36.8957
-35.1797
-35.0505
-40.1231
-35.4205
-32.6546
-33.6685
-30.7699
-31.4271
-35.8727
-31.4266
-31.1535
-31.7827
-27.3828
-22.8066
-26.6836
-27.1807
-19.8723
-14.2525
-12.9777
-0.775879
-21.0438
-24.2158
-4.97761
-11.3561
-5.03079
69.8228
-12.9769
-29.7283
55.3952
56.8601
28.8421
250.48
210.742
183.454
195.376
215.568
220.096
-46.957
-47.1961
-47.2546
-47.1906
-47.0196
-47.1139
-51.9015
-51.5876
-51.7858
-51.7861
-52.0071
-51.9187
-68.7838
-68.3091
-67.999
-68.5087
-69.3756
-68.9153
-46.4727
-46.8011
-46.8889
-46.6378
-46.3825
-46.4531
-54.6087
-54.7628
-54.9196
-54.7691
-54.6927
-54.7272
-68.9768
-68.778
-68.7856
-68.9022
-69.2403
-69.3081
-45.2825
-45.2558
-45.2665
-45.2526
-45.258
-45.2572
-54.4898
-54.4764
-54.4825
-54.4924
-54.5065
-54.5081
-68.6069
-68.5928
-68.5941
-68.6189
-68.6582
-68.6547
-45.554
-45.5531
-45.5609
-45.5356
-45.5363
-45.5147
-55.3862
-55.3865
-55.3968
-55.3992
-55.4068
-55.4029
-69.089
-69.0829
-69.0889
-69.1041
-69.1311
-69.136
-45.3425
-45.3408
-45.3421
-45.3463
-45.3414
-45.3381
-55.6618
-55.6635
-55.6595
-55.6663
-55.663
-55.6635
-69.308
-69.3186
-69.3168
-69.3224
-69.3267
-69.3254
-45.7945
-45.8186
-45.8227
-45.8135
-45.806
-45.862
-56.3064
-56.292
-56.2953
-56.2998
-56.3146
-56.3132
-69.5079
-69.5286
-69.5293
-69.5465
-69.5594
-69.5588
-43.906
-43.8226
-43.8903
-43.9303
-43.88
-43.9617
-55.7446
-55.5419
-55.5953
-55.7066
-55.7003
-55.664
-69.6253
-69.7424
-69.6818
-69.6957
-69.6936
-69.7139
-42.7227
-42.2433
-42.628
-42.3618
-42.3216
-41.8366
-55.6695
-54.6156
-54.7141
-54.7932
-54.7448
-54.1484
-67.0135
-67.7789
-67.3689
-67.5973
-67.8823
-68.1913
-36.1115
-34.8085
-35.8452
-36.1467
-35.5939
-34.1753
-33.5002
-35.6912
-35.8615
-36.1532
-36.8456
-37.131
-71.7311
-73.069
-72.1296
-71.9542
-72.0325
-72.2212
-2.5874
-10.5012
-4.03122
-11.1827
-12.9039
-9.60094
-30.8653
-32.9928
-29.7959
-32.8091
-32.8596
-31.2985
-68.7828
-69.5335
-68.8616
-69.7585
-69.4573
-69.2106
42.3148
27.7277
23.4825
20.5628
18.9346
18.5232
-68.7331
-64.9478
-63.8942
-63.3535
-63.2801
-61.1527
-103.391
-90.6554
-86.2601
-84.3581
-84.0418
-85.1444
310.479
517.032
518.425
433.894
493.242
517.865
-123.046
-130.32
-117.49
-112.779
-111.603
-111.893
-102.655
-105.647
-105.764
-100.458
-99.6797
-103.205
203.398
196.538
186.423
181.113
167.889
193.956
-12.7117
-28.8152
-34.0718
-30.5182
-29.588
-22.3626
-96.7908
-100.607
-100.651
-97.0035
-95.8403
-96.874
262.111
256.449
251.975
249.848
244.374
247.641
-33.1249
-44.0765
-45.8662
-39.8305
-37.6072
-31.9833
-108.632
-111.655
-109.791
-109.759
-107.964
-103.205
369.403
391.735
357.719
343.088
346.349
346.663
-70.3847
-77.622
-76.0489
-79.6579
-97.2436
-85.4229
-137.414
-144.28
-135.752
-141.427
-144.434
-131.069
512.98
628.133
527.499
484.903
570.461
532.823
-10.1842
42.1147
-16.9117
-38.4403
-37.4482
-48.8748
-104.743
-99.8205
-97.8026
-97.3696
-95.4865
-94.3174
883.285
727.465
943.563
982.162
1056.99
987.378
-23.4665
-10.7714
-58.279
-55.308
-52.9185
-59.4348
-86.5195
-76.5148
-80.0628
-81.2011
-78.4083
-79.2601
630.202
512.151
976.224
975.291
988.534
969.734
-64.3819
-55.6132
-69.5395
-64.3025
-65.9703
-69.4725
-73.8632
-69.699
-78.4084
-80.6395
-81.9688
-81.8231
-43.8054
-43.9881
-43.9067
-43.7097
-43.7319
-43.5078
-53.8337
-53.78
-53.6581
-53.6942
-53.6691
-53.583
-64.1323
-64.1313
-64.0075
-64.085
-64.1224
-64.1061
-44.095
-44.2395
-44.4255
-44.2168
-43.845
-43.4023
-54.2408
-54.2909
-54.3612
-54.2023
-54.0802
-53.9009
-64.5674
-64.6191
-64.5399
-64.5521
-64.5661
-64.493
-44.7814
-44.422
-44.2914
-44.1997
-44.0754
-43.7844
-54.4352
-54.4079
-54.391
-54.3546
-54.2796
-54.1859
-64.765
-64.8005
-64.7185
-64.7335
-64.72
-64.6568
-46.8371
-45.6994
-45.2611
-45.1734
-45.2791
-45.3883
-55.147
-54.9841
-54.8659
-54.8351
-54.8666
-54.9281
-64.9774
-65.0616
-64.9906
-64.9795
-64.9662
-64.8449
-47.8354
-46.8174
-45.413
-45.1205
-45.7272
-45.7006
-55.0583
-54.8149
-54.4701
-54.4098
-54.5265
-54.5134
-64.639
-64.8567
-64.8474
-64.7843
-64.6535
-64.3511
-47.2842
-47.9114
-44.9225
-43.8473
-44.9862
-43.5981
-53.6899
-53.3989
-53.1008
-52.8995
-53.0739
-52.6743
-63.5965
-63.9932
-64.3251
-64.2159
-63.907
-63.4113
-42.435
-44.0021
-42.1239
-39.9343
-42.2999
-39.453
-50.2909
-49.8739
-50.1559
-50.0903
-50.5479
-49.5785
-62.9487
-63.1607
-63.8868
-63.869
-63.711
-63.3502
-40.0893
-41.3944
-38.7325
-37.1978
-37.2588
-35.457
-48.287
-47.3666
-46.8091
-46.2378
-45.448
-44.8904
-61.6092
-61.7171
-63.0807
-63.2203
-63.1724
-63.3604
-35.3341
-35.7228
-32.9967
-27.2367
-33.3894
-31.8099
-53.864
-51.3936
-47.6128
-45.1063
-49.6578
-48.7331
-69.4226
-69.6705
-69.2682
-67.0945
-66.614
-65.3123
-10.2762
-17.6977
-20.9325
-16.7902
-26.9728
-21.9369
-42.0701
-42.3791
-43.3116
-43.1205
-34.1963
-34.6495
-74.1204
-73.3185
-75.7022
-80.1485
-65.8874
-71.3323
11.767
-18.4378
-44.3949
4.12127
-10.5488
14.1933
-65.3659
-67.2357
-80.044
-65.2486
-66.0745
-30.6233
-98.5212
-89.3241
-100.333
-106.321
-91.4143
-83.6393
124.113
74.6002
70.0699
109.659
112.109
145.742
-55.488
-67.3767
-56.1516
-30.2106
-26.8067
-0.746266
-118.167
-129.548
-118.683
-96.9658
-96.2968
-94.7427
)
;

boundaryField
{
    seabed_topleft_surface
    {
        type            calculated;
        value           nonuniform List<scalar> 
72
(
10809.1
10819
10817.1
10786
10778.1
10801.9
11442.4
11456.7
11475.2
11462
11481.6
11478.2
12202.9
12194.1
12196.6
12208.7
12215.1
12199.1
12452.5
12451.9
12452.1
12452.5
12454.3
12449.7
12727.3
12727.3
12725.2
12724.2
12723.4
12717.9
13100.1
13100.6
13099.7
13097.3
13095.1
13093.1
13797.8
13798.9
13798.7
13797.9
13794.8
13797.2
14866.6
14870.3
14870.3
14871.3
14872.3
14870.1
16203.6
16181
16192.8
16190.3
16194.7
16193.5
17167.7
17168
17165.1
17155.1
17149.4
17167.1
18346.7
18341.9
18332.5
18328.8
18328.7
18331.7
17595.7
17504.7
17536.8
17594.1
17543.9
17547.7
)
;
    }
    seabed_topright_surface
    {
        type            calculated;
        value           nonuniform List<scalar> 
72
(
1148.63
1168.93
1156.37
1081.26
993.282
917.429
1174.57
1189.84
1164.93
1122.07
1067.33
1006.71
1223.75
1225.32
1202.83
1193.79
1181.46
1140.07
1289.89
1271.49
1265.54
1275.85
1253.18
1256.62
1349.8
1319.91
1361.72
1340.57
1286.16
1302.1
1410.47
1400.21
1420.85
1382.47
1299.87
1308.67
1450.66
1395.92
1424.53
1419.4
1332.35
1331.6
1557.37
1427.59
1480.72
1445.57
1369.16
1403.83
1637.91
1571.61
1473.14
1307.58
1573.53
1609.51
1395.35
1565.23
1346.19
1134.76
1441.3
1593.29
1023.69
1112.97
1166.45
1105.67
1138.37
1224.65
964.081
998.648
1010.68
991.228
968.388
1001.29
)
;
    }
    breakwater_top_surface
    {
        type            calculated;
        value           nonuniform List<scalar> 
36
(
301.569
294.486
284.153
279.051
265.761
291.46
328.445
321.457
325.185
316.973
289.193
302.256
443.146
522.731
440.342
413.611
449.534
435.401
1013.16
1515.73
1105.87
963.745
1331.87
1235.37
1918.53
1807.39
2020.73
2024.65
2096.76
2015.71
1502.31
1592.08
2051.1
2029.03
2030.32
2003.33
)
;
    }
    breakwater_left_surface
    {
        type            calculated;
        value           nonuniform List<scalar> 
24
(
14361.3
14345.8
14350.6
14365.6
14349.4
14361.9
8091.71
8086.21
8092.18
8131.98
8138.79
8132.1
4408.51
4424.91
4409.7
4435.48
4547.4
4465.12
1204.82
965.465
926.948
903.905
865.404
924.523
)
;
    }
    breakwater_right_surface
    {
        type            calculated;
        value           nonuniform List<scalar> 
24
(
931.312
966.712
919.723
885.648
868.939
889.538
685.82
714.164
639.777
582.543
578.409
602.709
436.234
451.287
394.131
369.936
395.598
405.799
250.567
210.887
183.515
195.425
215.717
220.198
)
;
    }
    water_front_surface
    {
        type            calculated;
        value           nonuniform List<scalar> 
186
(
7000.08
7238.49
7584.22
7837.79
8114.91
8489.12
9186.41
10255.7
11816.4
13287.7
14458.4
14350.2
1436.76
1505.2
1479.29
1569.93
1672.85
1842.34
2107.87
2690.68
4124.29
5643.08
6921.76
8082.92
-26.7145
-28.7912
-30.4372
-29.837
-28.4998
-28.014
-23.2106
87.2926
333.416
674.193
2642.08
4399.87
-26.3089
-26.3747
-26.202
-27.7955
-28.9196
-32.7465
-42.806
-30.5591
-24.1234
16.1712
234.639
1197.04
670.733
697.137
736.599
795.273
852.968
913.748
954.272
1061.67
1142.76
1080.67
988.163
931.199
65.0552
76.5846
106.045
142.001
168.74
197.259
256.969
429.844
392.13
506.693
644.397
685.696
-24.6654
-24.7306
-22.4192
-24.0341
-23.9898
-21.1425
-17.2386
-3.1458
28.4047
172.19
377.413
436.145
-32.6816
-33.1868
-33.4719
-35.2397
-37.1306
-37.9988
-35.0505
-31.4271
-22.8066
-0.775879
69.8228
250.48
-46.957
-51.9015
-68.7838
-46.4727
-54.6087
-68.9768
-45.2825
-54.4898
-68.6069
-45.554
-55.3862
-69.089
-45.3425
-55.6618
-69.308
-45.7945
-56.3064
-69.5079
-43.906
-55.7446
-69.6253
-42.7227
-55.6695
-67.0135
-36.1115
-33.5002
-71.7311
-2.5874
-30.8653
-68.7828
42.3148
-68.7331
-103.391
310.479
-123.046
-102.655
203.398
-12.7117
-96.7908
262.111
-33.1249
-108.632
369.403
-70.3847
-137.414
512.98
-10.1842
-104.743
883.285
-23.4665
-86.5195
630.202
-64.3819
-73.8632
-43.8054
-53.8337
-64.1323
-44.095
-54.2408
-64.5674
-44.7814
-54.4352
-64.765
-46.8371
-55.147
-64.9774
-47.8354
-55.0583
-64.639
-47.2842
-53.6899
-63.5965
-42.435
-50.2909
-62.9487
-40.0893
-48.287
-61.6092
-35.3341
-53.864
-69.4226
-10.2762
-42.0701
-74.1204
11.767
-65.3659
-98.5212
124.113
-55.488
-118.167
)
;
    }
    water_back_surface
    {
        type            calculated;
        value           nonuniform List<scalar> 
186
(
6994.27
7243.48
7579.95
7833.08
8103.81
8481.04
9186.06
10259.7
11816.7
13284.1
14445.1
14351
1430.73
1495.45
1460.96
1539.12
1646.47
1828.8
2107.13
2695.31
4132.27
5642.03
6916.25
8123.38
-26.5205
-28.6897
-30.263
-29.7276
-28.5299
-28.2428
-23.3307
87.679
330.139
645.89
2524.11
4456.5
-26.2969
-26.3337
-26.1294
-27.6449
-28.7574
-32.608
-42.6565
-30.7327
-25.3952
-2.70092
118.405
916.822
476.192
564.814
676.314
767.347
811.466
816.218
836.609
909.554
1118.24
1207.01
1061.54
889.154
22.0806
36.2036
71.6451
118.067
139.983
130.847
123.364
140.304
228.608
347.355
569.979
602.623
-22.8891
-23.5307
-24.3861
-26.2972
-25.2004
-20.304
-15.1534
-11.2068
-0.371379
29.5328
151.845
405.656
-29.427
-31.2627
-32.9155
-35.4811
-36.8036
-35.1797
-30.7699
-27.3828
-12.9777
-5.03079
28.8421
220.096
-47.1139
-51.9187
-68.9153
-46.4531
-54.7272
-69.3081
-45.2572
-54.5081
-68.6547
-45.5147
-55.4029
-69.136
-45.3381
-55.6635
-69.3254
-45.862
-56.3132
-69.5588
-43.9617
-55.664
-69.7139
-41.8366
-54.1484
-68.1913
-34.1753
-37.131
-72.2212
-9.60094
-31.2985
-69.2106
18.5232
-61.1527
-85.1444
517.865
-111.893
-103.205
193.956
-22.3626
-96.874
247.641
-31.9833
-103.205
346.663
-85.4229
-131.069
532.823
-48.8748
-94.3174
987.378
-59.4348
-79.2601
969.734
-69.4725
-81.8231
-43.5078
-53.583
-64.1061
-43.4023
-53.9009
-64.493
-43.7844
-54.1859
-64.6568
-45.3883
-54.9281
-64.8449
-45.7006
-54.5134
-64.3511
-43.5981
-52.6743
-63.4113
-39.453
-49.5785
-63.3502
-35.457
-44.8904
-63.3604
-31.8099
-48.7331
-65.3123
-21.9369
-34.6495
-71.3323
14.1933
-30.6233
-83.6393
145.742
-0.746266
-94.7427
)
;
    }
    water_left_surface
    {
        type            calculated;
        value           nonuniform List<scalar> 
42
(
7013.12
7015.61
7012.76
7005.65
7000.46
7007.31
1441.62
1442.48
1437.97
1440.23
1440.99
1435.58
-26.6983
-26.5176
-26.5475
-26.6117
-26.5251
-26.5043
-26.293
-26.3327
-26.3296
-26.2589
-26.1311
-26.281
-46.957
-47.1961
-47.2546
-47.1906
-47.0196
-47.1139
-51.9015
-51.5876
-51.7858
-51.7861
-52.0071
-51.9187
-68.7838
-68.3091
-67.999
-68.5087
-69.3756
-68.9153
)
;
    }
    water_right_surface
    {
        type            calculated;
        value           nonuniform List<scalar> 
42
(
672.37
682.521
668.015
604.09
537.642
477.703
65.3177
77.2695
81.8974
41.3917
24.5241
22.1239
-24.6492
-24.9209
-24.5888
-25.1596
-24.4668
-22.8729
-32.6657
-33.7797
-34.2118
-32.9632
-30.8485
-29.4112
-43.8054
-43.9881
-43.9067
-43.7097
-43.7319
-43.5078
-53.8337
-53.78
-53.6581
-53.6942
-53.6691
-53.583
-64.1323
-64.1313
-64.0075
-64.085
-64.1224
-64.1061
)
;
    }
    water_top_surface
    {
        type            calculated;
        value           nonuniform List<scalar> 
180
(
-74.8953
-70.9134
-70.6384
-70.6185
-75.1247
-75.6805
-73.9776
-73.7261
-73.7581
-73.827
-74.1759
-74.2725
-73.0917
-73.0877
-73.0963
-73.1008
-73.1288
-73.145
-74.1535
-74.1541
-74.1627
-74.1704
-74.2013
-74.214
-74.7528
-74.7721
-74.769
-74.772
-74.7802
-74.7922
-75.6425
-75.6642
-75.6531
-75.6667
-75.6732
-75.6764
-75.9844
-76.2442
-76.144
-76.2045
-76.1747
-76.1913
-76.5585
-77.5205
-76.9718
-76.7116
-76.9343
-77.4013
-73.4782
-80.9701
-74.8755
-73.5907
-76.0842
-78.5882
-68.6746
-68.6701
-68.6942
-68.6964
-68.6702
-68.67
-158.585
-82.8677
-72.1508
-72.776
-72.1451
-73.4631
-68.67
-68.9043
-69.8766
-68.915
-68.977
-70.1824
-108.222
-105.02
-104.219
-103.842
-103.842
-103.842
-133.303
-113.566
-110.2
-145.463
-141.642
-110.334
-471.273
-356.961
-366.703
-462.43
-410.31
-346.703
-130.042
-74.1346
-70.4046
-70.1007
-73.8545
-70.6234
-83.8011
-95.3893
-84.1167
-84.7794
-77.4156
-79.9593
-77.1051
-75.5181
-68.7921
-68.686
-68.68
-68.6814
-69.3107
-69.3033
-68.9928
-69.2957
-69.4049
-69.3477
-69.9079
-69.9698
-70.0168
-70.0207
-69.935
-69.8338
-69.9347
-70.025
-70.1154
-70.1214
-70.0408
-69.968
-69.9612
-70.1208
-70.2601
-70.3467
-70.3421
-70.1554
-69.5666
-69.8556
-70.0778
-70.2483
-70.229
-69.7341
-69.1142
-69.5848
-69.8872
-70.1812
-70.0929
-69.3554
-68.7088
-69.18
-69.649
-69.8116
-69.7403
-68.9838
-68.6916
-69.496
-69.9146
-70.2662
-69.9174
-68.9665
-73.4048
-75.9977
-72.9331
-75.6658
-73.6561
-69.6562
-71.0208
-69.4663
-98.971
-273.876
-68.6703
-69.3737
-180.336
-68.8513
-133.965
-277.229
-272.257
-68.6731
-218.482
-375.395
-299.736
-104.219
-103.842
-117.03
)
;
    }
}


// ************************************************************************* //
