/*--------------------------------*- C++ -*----------------------------------*\
| =========                 |                                                 |
| \\      /  F ield         | OpenFOAM: The Open Source CFD Toolbox           |
|  \\    /   O peration     | Version:  v1612+                                |
|   \\  /    A nd           | Web:      www.OpenFOAM.com                      |
|    \\/     M anipulation  |                                                 |
\*---------------------------------------------------------------------------*/
FoamFile
{
    version     2.0;
    format      ascii;
    class       surfaceScalarField;
    location    "9.8";
    object      phi;
}
// * * * * * * * * * * * * * * * * * * * * * * * * * * * * * * * * * * * * * //

dimensions      [0 3 -1 0 0 0 0];

internalField   nonuniform List<scalar> 
2916
(
-0.0105049
-0.200895
0.2114
0.00487554
-0.222832
0.207452
0.0319567
-0.229466
0.202385
0.0131185
-0.189439
0.208277
-0.032225
-0.169576
0.21492
-0.229154
0.196929
0.00153439
-0.348284
0.145855
-0.00181245
-0.361245
0.141759
-0.00843589
-0.363902
0.141059
-0.00421438
-0.345173
0.151512
-0.00293596
-0.333358
0.162504
-0.370798
0.138708
0.00242298
-0.33845
-0.0122575
-0.00253002
-0.345723
-0.0105688
-0.0109304
-0.34578
-0.00972077
-0.0053122
-0.33913
-0.0116613
0.0027708
-0.3342
-0.00724145
-0.357363
-0.0106642
0.0010982
-0.289282
-0.0502665
-0.000919279
-0.295501
-0.0482051
-0.00511471
-0.295724
-0.0458614
-0.00317135
-0.291587
-0.049486
0.00118625
-0.289066
-0.0494916
-0.309265
-0.0469122
0.00071271
-0.240037
-0.0499577
-0.000158559
-0.245752
-0.0488773
-0.00210256
-0.246423
-0.0473563
-0.00124585
-0.24172
-0.0507239
-0.000307597
-0.238759
-0.0512446
-0.259126
-0.0504459
0.000892945
-0.189548
-0.0513821
0.000224149
-0.194627
-0.0504561
-0.0005409
-0.195688
-0.0499701
-6.18069e-05
-0.189704
-0.0524946
-0.00113344
-0.184726
-0.0529619
-0.206219
-0.0540411
0.00191563
-0.16581
-0.0256533
0.00063301
-0.168144
-0.0252003
0.000561065
-0.170414
-0.0252025
2.43739e-05
-0.162841
-0.0263264
-0.00236985
-0.155542
-0.02679
-0.179549
-0.0290394
0.00254889
-0.137424
-0.0309346
0.000713563
-0.135687
-0.030622
-0.00115976
-0.137647
-0.0308936
-0.000777179
-0.133386
-0.0298376
0.00112192
-0.129713
-0.0277278
-0.143538
-0.0348889
-0.000299361
-0.0419724
-0.0951524
0.000692987
-0.0456729
-0.0910062
0.000790559
-0.0450156
-0.0927286
-0.00235816
-0.0398739
-0.0903635
-0.00314463
-0.0409342
-0.0879922
-0.0492784
-0.0974045
-0.00631185
-0.100776
0.0651151
0.00203452
-0.122062
0.0680426
0.00641562
-0.118445
0.0690481
0.000272348
-0.0975523
0.0638216
-0.00907913
-0.0923916
0.0608089
-0.126126
0.0677679
-0.00504981
-0.182721
0.0869956
0.00434528
-0.207848
0.0763913
0.00666966
-0.202184
0.0814147
0.00209749
-0.179642
0.0866614
0.00115048
-0.172979
0.0815341
-0.208147
0.0831718
0.0319067
-0.214628
0.00550663
-0.181448
-0.000119684
-0.196558
0.0202685
-0.20003
0.0136423
-0.166353
-0.194504
-0.00959791
-0.136123
0.357121
-0.0300712
-0.0943541
0.322279
-0.0539217
-0.0967851
0.323021
-0.0295787
-0.173474
0.357408
0.0222226
-0.196626
0.359744
-0.104056
0.323208
-0.000275827
-0.0772241
0.0872319
0.00374325
-0.0439817
0.087368
0.00930849
-0.0480735
0.0867819
0.00643136
-0.0817022
0.0626178
0.00895507
-0.0847518
0.0481061
-0.0477702
0.0913768
0.0150199
0.0481324
-0.152634
0.00711315
0.0731469
-0.119791
0.00702746
0.0645406
-0.122249
0.0164986
0.0552629
-0.158098
0.0312207
0.063082
-0.169797
0.0776073
-0.104821
0.0124931
0.276108
-0.290736
0.010559
0.290147
-0.263271
0.00969585
0.283659
-0.264117
0.0179548
0.287695
-0.290177
0.0276304
0.299534
-0.295619
0.306216
-0.24789
0.00717407
0.549327
-0.33035
0.0055276
0.557904
-0.314988
0.00124452
0.555601
-0.315015
0.0103642
0.558652
-0.3308
0.0240219
0.56557
-0.330938
0.583221
-0.303429
0.00312014
0.785593
-0.290768
0.000259016
0.791618
-0.281309
-0.00650077
0.792849
-0.280458
0.00224416
0.790784
-0.293372
0.015862
0.792095
-0.293105
0.820025
-0.274983
0.00183672
0.936904
-0.178801
-0.00138554
0.940615
-0.170975
-0.0095401
0.943913
-0.168112
-0.00376859
0.936754
-0.178068
0.0104751
0.929913
-0.178851
0.967123
-0.165662
0.00239889
0.93492
-0.0313496
-0.000112088
0.936907
-0.0244035
-0.0060124
0.940045
-0.0211257
-0.00351611
0.930873
-0.0264528
0.00773449
0.921836
-0.0309015
0.956549
-0.016581
0.00431083
0.750096
0.0853602
0.00251783
0.759517
0.0881771
0.00285059
0.757698
0.0892853
0.00106253
0.754975
0.0873225
-0.00305506
0.755723
0.082238
0.760921
0.0951682
0.0031167
0.351368
0.460726
0.00237458
0.370618
0.457683
0.0109022
0.361086
0.457133
0.00140838
0.374445
0.453845
-0.0233883
0.387725
0.453604
0.349023
0.456278
-0.00218441
-0.0165794
0.457128
0.00802365
-0.0241917
0.460994
0.0136291
-0.0296107
0.466506
-0.00452896
0.00620096
0.473064
-0.0307836
0.013841
0.481672
-0.0505459
0.451957
0.0229635
-0.254171
0.00577476
-0.188451
-0.00425239
-0.216141
0.017311
-0.215392
0.0208078
-0.156009
-0.224243
0.0102134
0.925338
-0.57843
0.000890962
0.958977
-0.627375
-0.0567344
0.983547
-0.6029
-0.0496282
0.921403
-0.571101
0.0540256
0.890679
-0.634589
0.983265
-0.606031
0.00990817
2.35353
-1.35087
0.0245259
2.38588
-1.35415
-0.00492513
2.40726
-1.30748
-0.0180704
2.38045
-1.38328
0.0221573
2.38174
-1.48319
2.38829
-1.2915
-0.0176776
3.87379
-1.65521
0.0176325
3.87642
-1.64564
0.0363705
3.89699
-1.63073
0.0183509
3.91514
-1.67477
0.00935962
3.92625
-1.70531
3.89338
-1.60055
-0.0234617
5.47317
-1.86666
-0.00910584
5.44911
-1.85032
0.0072047
5.46095
-1.84438
0.00228888
5.49464
-1.86476
0.0163975
5.50164
-1.88512
5.46596
-1.80407
-0.0182527
7.18494
-2.02387
-0.0188487
7.15305
-2.01833
-0.0141717
7.15835
-2.0171
-0.00856831
7.18567
-2.02744
0.0125359
7.18571
-2.03611
7.16585
-1.99078
-0.00541227
8.99282
-2.09323
-0.0118599
8.95819
-2.08001
-0.020229
8.96444
-2.07817
-0.00459977
8.97879
-2.10212
0.0138242
8.97725
-2.10306
8.97262
-2.06793
-0.0071027
10.4336
-1.61245
-0.000414967
10.391
-1.6105
-0.00227178
10.4048
-1.60658
0.0107412
10.4161
-1.62841
0.016996
10.4136
-1.62145
10.4163
-1.59237
-0.0218217
8.83155
1.59249
0.0243124
8.84493
1.47557
0.0317194
8.85277
1.52347
0.000839693
8.86642
1.55414
-0.0105355
8.91993
1.47414
8.81375
1.57546
0.0667106
3.87364
4.97657
0.0286207
4.02552
4.94568
0.0251751
4.00754
4.93796
0.0108596
4.02218
4.94588
-0.0511979
4.08253
4.98169
3.95798
4.89974
0.0633995
1.17031
3.10065
0.019203
1.20052
3.32688
0.0117048
1.19454
3.27763
8.98529e-05
1.19492
3.29272
-0.0278601
1.21548
3.34861
1.16178
3.22462
0.0229652
0.237453
1.36702
0.0154516
0.169161
1.49986
0.0108317
0.166658
1.499
-0.0173306
0.192411
1.50374
-0.0540281
0.200288
1.53356
0.127509
1.4322
-0.0157371
-0.000981018
-0.00788069
-0.0271464
-0.0157996
-0.0415646
-0.00558097
-0.0331995
0.0461235
-0.00742463
-0.0506106
0.105447
-0.350505
-0.333371
0.0623804
-0.404263
-0.180044
-0.0841837
-0.394914
-0.0614207
-0.0417481
-0.3722
-0.241336
0.110228
-0.374528
-0.412037
-0.433967
-0.0618358
0.0437652
-0.239088
-1.50605
0.0108261
-0.240635
-1.48484
-0.00201052
-0.266653
-1.4229
-0.0115706
-0.250381
-1.49554
-0.027729
-0.253583
-1.58797
-0.307377
-1.44581
-0.00784786
-0.430984
-1.45547
0.0210886
-0.429509
-1.48571
0.0397125
-0.437971
-1.47803
0.0304647
-0.444454
-1.47145
-0.00092551
-0.453649
-1.47386
-0.440875
-1.46798
-0.00999122
-0.646819
-1.64083
-3.30085e-05
-0.637709
-1.65207
0.0102249
-0.643654
-1.64896
-0.00344693
-0.653592
-1.64195
-0.0344111
-0.654529
-1.65327
-0.647232
-1.63213
0.00208898
-0.810362
-1.86241
0.00326784
-0.785478
-1.87174
-0.00133288
-0.787234
-1.86892
-0.00623932
-0.811477
-1.86465
-0.0195689
-0.806025
-1.87129
-0.7974
-1.86019
0.00303152
-0.681711
-2.22491
0.00889487
-0.652044
-2.2193
0.00946158
-0.648199
-2.21777
0.00265225
-0.681416
-2.22537
-0.00981825
-0.6688
-2.22782
-0.667069
-2.20808
-0.0609535
0.623696
-2.8569
0.0236003
0.514392
-2.86149
0.0581538
0.569579
-2.85891
0.0203043
0.603726
-2.8757
0.0671884
0.514242
-2.85136
0.647978
-2.84023
-0.131783
3.69061
-1.34264
0.013833
3.47504
-1.63071
0.0489628
3.55941
-1.5015
-0.0439426
3.65491
-1.40415
-0.0143877
3.54691
-1.58809
3.64818
-1.43913
0.041028
4.15629
4.46986
0.0714691
4.3536
4.03668
0.0288765
4.3849
4.15507
-0.0129932
4.43301
4.20965
-0.0692329
4.42486
4.15998
4.46639
4.01231
0.373531
2.14062
4.74279
0.151799
2.82855
5.07367
0.0892075
2.86258
4.86255
0.0552759
2.86116
4.89851
0.0073815
2.87982
4.94156
2.94891
4.74948
0.467392
0.602342
2.43791
0.163971
0.868651
3.76318
0.0846293
0.837433
3.60349
0.0238532
0.845292
3.58038
-0.0240948
0.865143
3.59618
0.828497
3.52852
0.168771
0.43259
0.067537
0.942738
0.028772
0.834634
0.00722817
0.833636
-9.39073e-06
0.864957
0.777877
-0.0407013
0.197066
-0.156364
0.102801
0.229404
-0.372906
0.286503
0.236566
-0.420268
0.174749
0.240248
-0.128495
0.08201
0.14286
-0.0501208
0.106331
-0.0243207
0.00099314
0.392117
-0.196045
0.150008
0.417104
-0.336715
0.343325
0.381608
-0.338359
0.29168
0.295511
-0.00361751
0.177581
0.25187
0.0050889
0.232737
0.0511743
0.0725291
0.516866
-0.197277
0.104756
0.642792
-0.257914
0.275137
0.469794
-0.258567
0.395193
0.236449
-0.060994
0.175357
0.398697
0.0730096
0.34014
0.0679541
0.20722
0.532659
-0.223013
0.180266
0.863758
-0.194012
0.28889
0.446724
-0.0855542
0.30431
0.241455
-0.0204257
0.0340754
0.663287
0.0056444
0.428174
-0.0539583
0.318211
0.552692
-0.338244
0.356534
0.960961
-0.135526
0.358327
0.265749
0.179182
0.0592976
0.330897
0.209587
-0.156848
0.890755
-0.0113235
0.507073
-0.235747
0.438222
0.662205
-0.547734
0.478196
0.981637
-0.0606499
0.0516098
0.0724522
0.619882
-0.228207
0.361698
0.249016
-0.27403
0.991158
-0.0545798
0.58841
-0.355367
0.526831
0.907023
-0.771649
0.618587
0.997338
-0.107457
0.395735
0.102733
0.192572
-0.0478835
0.790548
0.0147675
-0.263349
1.24976
-0.0431402
0.7411
-0.416039
0.578838
1.28563
-0.957447
0.605385
1.20651
-0.235724
0.332943
0.46592
-0.0907444
-0.355993
1.57859
-0.0991038
-0.432772
1.6777
-0.35116
0.956381
-0.648054
0.214959
1.63406
-0.563386
0.535753
1.58317
-0.697445
-0.0467577
1.06477
-0.0163434
-1.32541
2.13285
0.724393
-0.803901
2.05925
-0.903049
1.17749
-1.02501
-0.608604
1.85797
0.384697
0.081322
1.87339
-0.98015
-0.177226
1.16291
0.160416
-2.11136
1.31985
2.74713
-1.24066
1.62166
-0.433116
0.953338
-1.01652
-1.78867
1.55318
2.09345
-1.32476
1.80438
-0.394891
-0.625092
0.616084
-0.152849
-1.20992
0.388445
1.51624
-0.77204
0.728282
0.455501
0.717763
-0.536465
0.0348958
1.51828
0.162915
1.67636
-0.0913967
0.870394
-0.256693
0.553741
-0.284161
0.755751
0.433602
-0.517609
0.0192894
0.341955
-0.118713
0.06068
-0.832481
0.594508
0.052561
-1.18605
1.00465
-0.000957596
-0.537673
0.701922
-0.0491117
0.301715
-0.0613331
0.738935
-0.800086
0.200976
0.422355
-0.36515
0.314028
-1.025
0.271896
0.127459
-1.0503
0.928496
0.0609988
-0.722173
1.09949
0.0777665
-0.292786
0.0659721
1.02336
-0.456291
0.388958
0.0710318
-0.324501
0.392099
-0.467775
-0.16368
0.140888
-0.432817
0.493703
0.139072
-0.796451
1.10982
0.27011
-0.735455
0.296966
0.946784
-0.458613
0.61877
0.00578761
-0.434558
0.521022
-0.346991
-0.010565
0.322341
-0.690999
0.585306
0.334899
-0.812123
1.09898
0.53999
-0.777908
0.561183
0.780802
-0.612832
0.830645
0.0627118
-0.329481
0.743744
-0.641599
0.497818
0.553007
-0.878784
0.90446
0.608029
-0.470185
0.861355
0.778234
-0.206463
0.731509
0.455282
-0.34652
1.08227
-0.452838
0.0987137
0.841997
-0.604137
0.402315
0.596318
0.272971
0.831411
0.823274
-0.395325
0.714344
0.935039
-0.0943175
0.806555
0.283931
-0.0805001
1.36067
-0.969554
0.134167
0.965971
-0.446097
0.128029
0.846613
-0.0515843
0.818286
1.23246
-1.08468
0.771953
1.11352
-0.175288
0.965802
0.196666
-0.241282
1.48087
-0.836359
-0.424366
1.41833
-0.504998
-0.165992
1.46649
-0.968992
0.900477
1.98998
-1.92309
0.818036
1.5793
-0.734495
1.34723
-0.21145
-0.387881
1.36629
-0.060933
-0.36851
2.13795
-1.43644
-0.167062
1.88364
-0.634942
0.00770791
2.2425
0.29711
0.259768
2.18472
-1.76053
1.88774
-1.30574
0.33225
1.3021
0.116637
0.273486
2.43248
-1.21591
0.116842
1.8177
0.382996
-0.253953
1.52392
3.8365
-0.341876
2.00175
-0.162218
2.10114
-1.57179
0.539676
1.36322
1.49266
1.13682
2.09505
-0.654603
1.04242
1.14181
0.617436
-0.478246
0.263369
4.29746
-0.742804
0.932987
1.78882
1.80735
-0.985486
0.568984
2.31252
2.50383
1.83656
1.67766
2.83838
-0.653647
3.14842
-1.25582
2.29092
0.985131
0.397455
-0.0288715
-0.0266275
0.294546
0.159593
-0.889161
-0.528068
0.0537288
-0.417161
-1.05493
-0.0550712
0.0442608
-0.721795
2.49916e-05
-0.0314391
0.0116297
0.00551349
0.0783707
0.284526
0.0305896
-0.160666
0.703344
-1.32971
-0.556449
0.551949
-1.15274
-0.708629
0.465271
-1.09033
-0.434769
0.448681
-1.0153
0.344801
0.255424
0.19283
0.855248
-0.692519
0.132066
1.26465
-0.968315
-0.0601628
1.02171
-0.710352
-0.161373
1.03192
-1.26189
-0.0560597
1.0288
-1.42089
0.988056
0.247469
0.1076
1.3702
-0.616762
0.217258
1.45884
-0.65084
0.261532
1.34389
-1.05745
0.296168
1.47239
-1.28722
0.273078
1.57329
-1.2993
1.49979
0.542147
-0.557118
1.77387
0.216156
-0.343085
1.489
-0.885786
0.355843
1.30042
-1.53425
0.69243
1.72586
-1.06025
0.725527
1.93837
-0.604642
1.69919
0.981404
-1.44683
2.42084
0.347023
-0.958322
1.65618
-1.25983
0.37811
1.11411
-0.877155
0.951389
1.70351
-0.946256
1.01817
2.02152
-0.244247
1.82726
1.17403
-1.28867
2.34483
0.395122
-1.21733
2.06195
-0.9232
0.0952963
1.08898
-1.33909
0.969599
1.36973
-1.62519
1.2197
1.99136
-0.395228
2.0781
1.16552
-0.327667
0.557909
1.27822
-0.523659
2.08643
-0.333493
0.279558
1.47233
-2.15555
0.912796
1.74553
-2.93214
0.912901
2.08079
-0.82404
1.93808
0.841474
-0.750216
0.409306
0.837884
-0.591001
2.03256
-1.54179
0.1905
2.16329
-2.10741
0.482812
1.78548
-0.0351499
0.201481
2.00337
-1.40178
1.52875
-0.694933
-0.374335
1.05763
-0.157351
-0.676104
2.18918
-1.07076
-1.0839
1.69272
1.26136
0.0511624
0.248989
4.23793
0.512938
0.444913
0.934465
1.56574
-1.09584
1.12112
0.961731
0.467434
0.741494
1.98617
-0.0719644
-0.133654
0.906559
2.27875
-0.513292
-1.28784
6.21392
0.180661
-0.927971
2.46775
1.30671
-0.545793
0.788052
2.4862
2.77098
1.83981
2.27517
4.24074
-0.849176
4.98493
-0.893083
1.40685
1.39876
0.433016
0.0557879
-0.515429
0.217172
0.0720989
-0.745411
-0.412042
-0.168589
0.380645
-0.5607
-0.074063
0.266985
-0.27639
0.189736
-0.505482
0.130202
-0.401077
0.505742
0.344105
-0.763467
0.303519
0.124817
-1.1802
-0.22518
0.194272
-0.986893
-0.677453
0.271337
-0.983456
-0.754871
0.319215
-1.06736
0.258595
-0.62784
-0.158449
0.811523
-1.00149
-0.175353
0.393361
-1.21995
-0.0779373
0.399483
-1.01298
-0.237245
0.290753
-1.122
-0.565813
0.432047
-1.20515
0.74189
-0.801639
-0.433665
1.44328
-0.814852
-0.353662
0.870667
-1.20815
-0.164398
0.442972
-1.2902
-0.155895
0.327113
-1.33209
-0.39021
0.703105
-1.33605
1.29106
-0.397236
-0.317918
1.8653
0.112052
-0.560499
1.38233
-1.15486
-0.439188
0.426436
-1.63902
-0.182986
0.469092
-1.45843
-0.10862
1.066
-1.04191
1.41043
0.753416
-0.308769
1.57202
0.949069
-1.11156
1.88938
-0.96409
-0.538634
0.752601
-1.77625
-0.101344
0.639343
-1.5538
0.129973
1.40449
-0.814056
1.33744
1.37699
0.116674
0.226668
1.6238
-0.646148
1.7966
-0.0676012
-0.466015
0.899406
-1.66602
-0.0978601
0.456932
-1.81094
0.239917
1.4852
-0.813716
1.32795
1.41493
0.426291
-1.14555
2.22414
0.394164
0.770327
0.724909
-0.219787
1.05822
-1.70041
-0.861942
0.586723
-2.41978
-0.564448
1.05662
-0.69295
0.66459
0.940385
-0.0652401
-0.686165
0.443745
-0.405335
1.16212
-1.59348
-0.796914
1.29869
-1.9563
0.134713
0.490036
-0.87009
0.719657
0.67809
-1.60819
0.681682
0.00763308
-0.952773
0.36937
-0.260111
-2.13129
1.72864
-0.458769
-1.89317
0.608099
1.71383
-0.17152
-1.64096
4.64727
1.0479
-1.53699
1.93013
0.720586
-0.0868477
0.386165
0.359054
0.0915862
-0.658494
1.43289
1.26844
-1.95383
0.165336
4.01686
-0.940342
-2.39925
5.95872
0.51207
-2.0094
1.48775
0.46857
0.218293
1.59884
1.24641
2.55573
2.31581
2.09191
4.8699
0.377432
4.30016
-0.511871
0.286757
1.35546
0.0483655
-0.277176
-0.10456
0.0756861
-0.0922993
-0.115064
0.020729
0.11999
-0.126454
0.100677
-0.202547
-0.118737
0.165262
-0.334474
-0.142147
0.291504
-0.188078
-0.531383
0.172095
0.0821124
-0.107537
-0.749244
0.2331
0.404942
-0.644689
0.252199
0.722676
-0.704928
0.184647
0.322369
0.0183874
0.0474446
0.575232
0.0386391
-0.48008
-0.0875779
-0.0888939
0.0359738
0.317352
0.0517415
0.694847
0.0176451
0.322531
-0.119211
-0.115967
0.0451001
-1.84521
0.189498
0.0280332
-1.79415
0.211306
0.0232864
-1.75309
0.20848
0.0228255
-1.80931
0.195491
-0.00634076
-1.87564
0.174683
-1.82501
0.184778
-0.0658141
-1.75889
0.0616097
0.000155466
-1.71436
0.0873452
0.118459
-1.70885
0.0896564
0.147444
-1.7294
0.0757395
0.0564825
-1.78092
0.0436872
-1.78072
0.0508248
-0.0582945
-0.0126024
-0.00816539
0.00412164
0.0645329
0.00778238
0.106245
-0.00333698
0.0451274
-0.0300527
-0.0269522
0.00402599
-1.59178
0.321781
0.00373507
-1.60572
0.331606
0.0122027
-1.60729
0.329262
0.0133588
-1.60027
0.323151
-0.00522531
-1.59394
0.313346
-1.60332
0.314899
-0.00128081
-1.58932
0.0604244
0.00431615
-1.59117
0.0671913
0.0117611
-1.59222
0.0671405
0.0174335
-1.5913
0.061098
0.0107558
-1.59105
0.0474689
-1.59344
0.051693
-0.00342345
0.0250111
0.000800193
0.0314527
0.00918802
0.0314052
0.0122341
0.0275022
0.00260502
0.0189292
0.0154309
0.00232738
-1.79163
0.470245
0.00512307
-1.79476
0.471498
0.0105855
-1.79612
0.470964
0.0116006
-1.79211
0.472297
-0.00514026
-1.79529
0.472104
-1.78988
0.467507
0.000190282
-1.80128
0.0698887
0.00435779
-1.80155
0.0698084
0.00834808
-1.80214
0.0691719
0.0116217
-1.80324
0.0689576
0.00518039
-1.80802
0.0666367
-1.80356
0.0705508
-0.00157191
0.0276615
0.00174856
0.0289905
0.00638129
0.0284232
0.00776401
0.0280131
0.00194484
0.0269466
0.0260926
0.00532917
-1.92763
0.530138
0.00433687
-1.9343
0.535053
0.00898649
-1.93265
0.530043
0.00687478
-1.9296
0.539364
0.000257522
-1.93073
0.538161
-1.92948
0.537056
0.00441754
-1.89524
0.0330808
0.00130741
-1.89985
0.0384728
0.00183392
-1.89811
0.0341073
0.00321381
-1.89913
0.0371061
0.00441426
-1.90073
0.0354299
-1.89915
0.0446368
0.00180994
0.0263497
0.000716909
0.0289497
0.00181367
0.0274893
0.00143978
0.0280122
-0.000458052
0.0281643
0.0283443
-0.00197628
-2.14364
0.450841
0.00227438
-2.14286
0.45436
0.00847251
-2.14412
0.450186
0.00381614
-2.14121
0.459852
-0.00236773
-2.14477
0.461292
-2.13696
0.46357
-0.00273736
-2.06463
-0.0431878
-0.000191855
-2.06369
-0.0432451
0.00538379
-2.06316
-0.0524228
0.00748447
-2.06484
-0.0413615
0.000645826
-2.06589
-0.0366164
-2.06068
-0.0309884
0.00404277
-0.0176516
0.00128635
-0.00406001
0.00375366
-0.0117594
0.00546625
-0.0101258
0.00362267
-0.0064959
0.00111113
0.0384629
-2.18703
-0.257498
0.015899
-2.2285
-0.156066
0.0120403
-2.22026
-0.184611
0.0330351
-2.22271
-0.21413
0.0639427
-2.20964
-0.211339
-2.19422
-0.118498
0.016958
-2.02803
-0.219139
0.00517341
-2.0699
-0.190058
0.02324
-2.05994
-0.230809
0.0329361
-2.06797
-0.205801
0.0341263
-2.05963
-0.187803
-2.05708
-0.134001
0.0235978
0.00486427
-0.00257438
0.0629203
-0.00340029
0.0257548
0.00277786
0.0203432
0.00495536
0.0322848
0.0520458
-0.181466
-2.5423
1.12363
0.00748214
-2.91827
0.942562
0.00970439
-2.71472
1.0264
-0.0988168
-2.58922
1.07948
-0.184866
-2.75439
1.04102
-2.75628
1.01378
-0.153359
-2.15007
-0.458009
-0.014956
-2.38131
-0.865429
0.046697
-2.22874
-0.778446
0.00100115
-2.14573
-0.603601
-0.061899
-2.21251
-0.666784
-2.29215
-0.660029
0.12176
-0.135044
-0.0108391
0.0771347
0.00210206
-0.0254431
0.0898662
-0.0548098
0.103167
-0.00416373
0.115283
-0.333079
2.30081
3.62576
0.0556724
0.78352
3.80697
0.025405
1.36588
3.84586
-0.251143
1.54697
4.01871
-0.343846
1.22664
4.06706
0.784677
3.89757
0.140101
-0.160339
1.86304
0.184196
-1.70212
1.57612
0.0273843
-0.844922
1.58917
-0.158374
-0.630375
1.75949
-0.187825
-1.08926
1.67855
-1.58602
1.52284
0.102575
1.36746
-0.211502
1.426
-0.152172
1.05339
-0.0430705
0.984984
0.0157595
0.999047
1.01057
0.548181
6.2559
1.56446
0.136063
5.88257
3.4102
0.369909
5.64595
2.82862
0.0528974
5.55201
3.68221
-0.239931
5.4891
3.81235
5.13698
3.27013
0.605132
5.664
1.84982
0.261672
4.42356
3.3786
0.33564
4.07444
3.08671
-0.00730691
3.94912
3.70533
-0.298181
3.61503
3.8435
3.06251
3.29913
0.796446
2.05559
0.552129
3.65419
0.359687
3.25973
-0.00727982
3.3363
-0.213188
3.35081
3.06486
0.994168
3.92188
-0.91368
0.58124
6.94647
0.63983
0.341729
6.91623
-0.244603
0.130642
6.7814
0.692274
-0.0147779
6.74883
0.805126
6.69435
0.0895122
0.901559
5.05451
-0.18437
0.736176
8.02062
2.46984
0.56411
7.81771
2.35729
0.234247
7.53309
3.2835
-0.093747
7.31642
3.6039
7.20202
2.69772
0.202786
0.367897
0.404421
3.50694
0.447794
3.65625
0.242481
3.94057
-0.023013
4.20631
3.65853
0.204805
-1.47552
0.789623
0.13089
0.0476558
1.60883
0.117911
-0.774273
1.37728
0.0587188
0.340002
1.2451
-0.0488583
0.3506
1.42706
-0.542718
1.36125
-0.276706
-1.92471
0.541528
-1.5153
2.03635
1.71974
-0.863584
1.08507
-0.153774
0.138498
2.36999
0.251426
-0.165817
2.63095
1.62787
1.43826
0.55092
-1.54733
0.0996563
-0.973766
1.3266
-1.00128
1.5665
-0.0583309
1.93592
0.222848
2.91116
2.07067
0.14795
0.415292
-0.729707
0.166465
0.315666
0.532093
-0.769042
0.0692323
0.293686
0.493676
-0.845349
0.373654
0.116558
0.462514
-0.982488
0.697102
-0.184799
0.532094
-1.15346
0.922727
0.455608
-0.893159
0.252752
0.478176
1.04489
-0.853774
-0.253998
0.546337
1.20306
-1.13848
0.39935
0.338822
1.1909
-1.21636
0.726642
-0.0197339
1.31002
-1.38139
0.892441
-0.389293
1.40379
-1.43383
0.931695
1.26509
-1.02967
-0.169113
0.530933
-0.327996
-0.330234
0.450082
-0.689357
0.750704
0.11005
-0.704478
1.06637
-0.134433
-0.661241
0.755334
-0.255265
-0.468477
0.438571
0.0219528
-0.414137
0.119005
0.871207
-1.71992
0.10886
0.917015
-1.67591
0.121056
0.857859
-1.7154
0.140771
0.77829
-1.78049
0.0338104
0.823886
-1.87039
0.939759
-1.79911
0.230791
1.70757
-1.92093
0.232344
1.63218
-1.8552
0.167344
1.54709
-1.84059
0.0225169
1.49461
-1.95289
-0.144182
1.45589
-1.89913
1.50932
-1.74341
0.0869564
-1.01232
-0.0639809
-0.87509
-0.158751
-0.825844
-0.286401
-1.0886
-0.322251
-0.982874
-0.607025
0.0365733
0.668171
-2.42466
0.158128
0.444576
-2.24204
0.140806
0.628595
-2.32668
0.085948
0.611933
-2.33757
0.0487328
0.462244
-2.29542
0.597147
-2.34752
-0.0387092
1.18654
-2.40059
0.140792
0.822908
-2.41303
0.158108
0.978942
-2.20825
0.0270546
1.01737
-2.22727
-0.0172181
0.824014
-2.21663
0.918317
-2.0818
-0.103216
-2.14129
0.00500199
-2.01324
0.0889222
-1.91258
-0.100899
-2.02694
-0.180999
-1.9975
-1.75869
0.00799377
0.0195443
-2.4522
-0.071124
-0.101003
-2.06192
-0.0581509
-0.0277154
-2.31193
0.0135598
-0.054415
-2.35486
0.0356351
-0.175164
-2.14233
-0.0677706
-2.24412
-0.27948
-0.0507568
-2.05081
0.242563
-0.640785
-2.3953
0.145644
-0.405707
-1.73334
-0.134519
-0.428978
-1.57254
0.0325183
-0.77919
-1.77964
-0.493924
-1.62313
-0.421683
-1.85848
-0.129774
-1.80295
-0.0720276
-1.72197
-0.270116
-1.66563
-0.120989
-1.84674
-1.72695
0.0824799
-0.926804
-1.60788
-0.243931
-0.0264083
-1.7091
-0.137304
-0.624069
-1.79449
0.036218
-0.849755
-1.67863
0.0413197
-0.480688
-1.66674
-0.478469
-1.72433
-0.498983
-1.28925
-1.18938
0.807828
-1.4376
-2.29091
0.126559
-1.37025
-0.305891
-0.444473
-1.69676
-0.154503
0.0606304
-1.3773
-1.38813
-1.41893
-0.622035
-0.459303
-0.758949
-0.049499
-1.2865
-0.0585887
-1.21123
-0.235148
-1.26779
-0.0038033
-2.02351
-1.53966
0.138881
-0.957136
-0.265676
0.304284
-0.108144
-0.574743
0.0787933
-0.620467
0.0224101
-0.183302
-0.340668
-0.400154
-1.20483
0.0693415
-0.73639
-0.278636
-0.686428
-0.133138
-0.669036
0.0415415
-0.118239
-0.370241
-0.490546
-0.107149
-0.229692
-0.108382
0.0523699
-0.154156
-0.470582
0.109311
-0.421318
-0.610045
0.131798
-0.140845
0.0362699
0.0639032
0.205678
-0.275219
0.195683
0.12208
-0.657105
0.235222
-0.435077
0.156081
-0.0326569
-0.568062
0.130138
-0.17167
-0.611042
0.140012
0.00271402
-0.244557
0.106444
0.0583254
-0.480342
0.149513
-0.0701346
-0.659232
0.130589
-0.615218
0.110008
-0.0214496
0.0666617
-0.0839891
0.0614201
0.0328864
0.0750187
0.0961803
0.0625063
0.0394265
0.0541885
0.0552142
0.0791962
-0.863736
0.130385
-0.0574928
-0.991625
0.0799136
-0.170735
-0.920573
0.110829
-0.171359
-0.942753
0.155607
-0.173771
-0.99828
0.168561
-0.763179
0.117651
0.0689468
-0.86078
0.0582364
0.0238444
-0.913261
0.106752
-0.0373256
-0.867756
0.114799
-0.0618687
-0.8799
0.111205
-0.122593
-0.905743
0.0987776
-0.844065
0.0683028
0.000402328
0.0571744
-0.0337049
0.0549585
0.010003
0.0508451
0.0367755
0.044919
0.00462971
0.0418389
0.0422463
-0.172346
-0.861897
0.163143
-0.176772
-1.10281
-0.0328025
-0.0864907
-0.985511
-0.00691872
-0.0501848
-1.00488
0.0021772
-0.0723847
-1.05301
0.038621
-0.885201
0.128828
0.125761
-0.861804
-0.067616
0.0354646
-0.905915
0.000154635
-0.0276054
-0.874225
0.0665823
-0.0725749
-0.913745
0.0650443
-0.112461
-0.929126
0.0147789
-0.880108
-0.0492507
-0.00314264
0.060311
-0.0342748
0.0720886
0.00637685
0.0560733
0.0157137
0.0440227
-0.0147091
0.0398445
0.0201165
-0.286542
-0.82185
0.456683
-0.140511
-1.33554
-0.0514433
-0.0855214
-1.21163
-0.140476
-0.0631955
-1.19395
-0.158285
-0.109958
-1.28477
0.0341022
-0.863456
0.48509
0.221967
-0.875187
-0.236245
0.0760487
-0.981633
-0.207835
-0.0479629
-0.965818
-0.0552226
-0.100242
-1.01428
-0.0623466
-0.171507
-1.06122
-0.137502
-0.943435
-0.140779
0.0331619
0.0223771
-0.0156565
0.0621837
-0.00577796
0.0456011
-0.0126531
0.0273385
-0.0520018
0.00716901
-0.0432133
-0.0326324
-0.302565
0.903933
-0.00143301
-1.34559
0.108086
-0.157015
-1.38716
-0.236753
-0.225021
-1.32035
-0.228368
-0.270774
-1.22451
0.262457
0.014714
0.953017
0.377535
-0.660298
-0.256047
0.158311
-0.970316
-0.363888
-0.125975
-0.98419
-0.173909
-0.340564
-1.01169
-0.156418
-0.508353
-1.03398
-0.160243
-0.650852
0.0164334
0.113205
-0.0262387
0.012638
0.0268801
-0.0583131
0.041282
-0.0986031
0.0171076
-0.156035
-0.015338
-0.0620957
0.612987
0.518499
0.721516
0.311256
-0.895173
0.3409
-0.0581663
-1.53514
-0.108443
-0.350644
-1.42014
-0.0695425
-0.393641
-1.12582
0.617216
0.684163
1.2522
0.61511
-0.204186
-0.148472
0.505902
-0.869991
-0.279863
0.0152438
-1.03557
-0.182816
-0.441606
-1.0086
-0.11111
-0.747204
-0.959137
-0.0213264
-0.322466
0.275857
0.27614
0.00110581
0.142312
0.0219815
-0.0691611
0.0626794
-0.16666
0.0462201
-0.239737
0.00849838
0.00699331
1.06474
1.45399
-0.173417
1.01782
0.281022
0.0392031
0.400187
-1.24616
0.0893254
-0.188652
-1.24512
-0.0465209
-0.418018
-0.926445
0.959308
0.847135
1.40199
0.809661
0.502819
-0.00695811
1.02017
-0.424834
0.215485
0.311783
-0.952381
0.231786
-0.352141
-0.826893
0.134585
-0.816297
-0.734346
0.250728
-0.078465
0.385161
0.370614
0.286997
0.282247
0.235524
-0.0414388
0.197613
-0.167898
0.169163
-0.234119
0.135749
0.13013
0.870179
1.91321
-0.732661
1.33332
0.628535
-0.327565
0.37275
-1.2123
0.561778
-1.04195
-1.55543
0.503825
-1.04347
-0.627692
0.895567
0.582545
0.716358
0.7976
0.741366
0.367282
1.25205
-0.380473
0.770049
0.34971
-1.01676
0.938587
-0.675401
-0.958571
0.562841
-0.86224
-0.597219
0.407096
-0.000112966
0.105579
0.45054
0.687939
0.47955
0.519015
-0.00752213
0.529111
-0.25086
0.429036
-0.204153
0.358189
0.362056
0.397518
-0.532008
-0.154425
-0.426211
-1.61442
0.517095
-0.965227
-1.88104
1.02553
0.249284
-1.89559
0.314815
0.348827
-1.25675
0.444577
0.686829
0.385988
0.208987
-1.11927
0.745551
-0.0866315
-1.86969
1.32095
-0.696859
-1.43443
1.10221
-0.321742
-1.77462
0.0667509
-0.602997
-1.16661
0.598216
0.158321
0.0310914
0.352279
0.901855
0.0127878
1.07567
-0.592119
1.31635
-0.733875
0.833871
-0.800315
0.97546
0.499767
-0.752343
-0.381716
0.719523
-2.46548
0.210816
1.56065
-2.18434
2.25344
0.204779
0.0208392
4.39954
-1.64263
1.10851
2.41558
-1.12855
0.3818
1.02585
-0.913573
-0.532161
1.80957
-1.76333
0.205605
2.17592
-1.42854
2.66421
0.356653
0.00595074
4.51357
-1.48177
0.844089
2.05103
0.124629
0.0822083
1.17477
-0.49996
2.1341
-0.52746
2.08982
-0.567965
1.31764
-1.14983
-0.216882
-0.289445
1.17806
1.03304
-0.000375107
0.229161
0.582323
-1.34104
2.9955
1.17426
-1.979
5.23012
-0.370524
-0.438383
4.67318
-1.89771
0.384204
1.52172
-1.98511
0.925936
0.702415
-1.25212
1.72538
1.56547
-1.2083
4.24217
0.885427
-0.600396
5.70629
-0.727422
0.218581
4.27547
-1.90304
0.0567803
3.06281
-1.25466
1.00755
1.14994
-1.99345
2.14354
-0.640006
1.47189
0.149856
-0.282829
-0.326192
-1.48939
-1.07053
-0.240846
1.13392
1.05928
0.935925
1.63703
2.98155
1.51995
4.99012
1.27787
3.34163
-0.204146
0.70639
2.10648
0.190339
2.05705
0.975877
3.48079
1.56199
4.40322
1.34555
2.54748
-0.0893912
1.81836
2.99791
-0.0975715
0.439254
0.0601818
-0.150181
-0.385788
)
;

boundaryField
{
    seabed_topleft_surface
    {
        type            calculated;
        value           uniform 0;
    }
    seabed_topright_surface
    {
        type            calculated;
        value           uniform 0;
    }
    breakwater_top_surface
    {
        type            calculated;
        value           uniform 0;
    }
    breakwater_left_surface
    {
        type            calculated;
        value           uniform 0;
    }
    breakwater_right_surface
    {
        type            calculated;
        value           uniform 0;
    }
    water_front_surface
    {
        type            calculated;
        value           uniform 0;
    }
    water_back_surface
    {
        type            calculated;
        value           uniform 0;
    }
    water_left_surface
    {
        type            calculated;
        value           uniform 0;
    }
    water_right_surface
    {
        type            calculated;
        value           uniform 0;
    }
    water_top_surface
    {
        type            calculated;
        value           nonuniform List<scalar> 
180
(
0.739753
-1.1764
-1.10268
-1.10007
0.509914
1.01373
-1.77557
-1.73264
-1.7376
-1.75013
-1.80897
-1.82461
-1.62351
-1.62272
-1.62423
-1.62519
-1.6304
-1.63321
-1.80236
-1.8024
-1.80379
-1.80513
-1.81021
-1.81227
-1.89574
-1.89872
-1.89827
-1.89876
-1.90005
-1.90186
-2.02468
-2.02793
-2.02639
-2.02842
-2.02939
-2.02983
-2.07414
-2.11071
-2.09663
-2.10461
-2.10059
-2.10305
-2.13192
-2.26292
-2.19048
-2.15833
-2.18936
-2.25222
-1.76542
-2.73691
-1.98309
-1.77927
-2.1513
-2.46556
4.17943
2.43969
2.06053
1.96477
1.46917