/*--------------------------------*- C++ -*----------------------------------*\
| =========                 |                                                 |
| \\      /  F ield         | OpenFOAM: The Open Source CFD Toolbox           |
|  \\    /   O peration     | Version:  v1612+                                |
|   \\  /    A nd           | Web:      www.OpenFOAM.com                      |
|    \\/     M anipulation  |                                                 |
\*---------------------------------------------------------------------------*/
FoamFile
{
    version     2.0;
    format      ascii;
    class       volScalarField;
    location    "1.8";
    object      p;
}
// * * * * * * * * * * * * * * * * * * * * * * * * * * * * * * * * * * * * * //

dimensions      [1 -1 -2 0 0 0 0];

internalField   nonuniform List<scalar> 
1116
(
30857.6
30857.6
30857.6
30857.6
30857.6
30857.6
29566.7
29566.7
29566.7
29566.7
29566.7
29566.7
25821.9
25821.9
25821.9
25821.9
25821.9
25821.9
21534
21534
21534
21534
21534
21534
17413.4
17413.4
17413.3
17413.3
17413.3
17413.3
13845.9
13845.9
13845.9
13845.9
13845.9
13845.9
10478.2
10478.2
10478.2
10478.2
10478.2
10478.2
7162.25
7162.23
7162.22
7162.22
7162.23
7162.23
4910.05
4910.04
4910.04
4910.02
4910.01
4910
6924.09
6924.06
6924.21
6924.16
6924.1
6924.09
15778.8
15778.8
15778.8
15778.7
15778.6
15778.4
25913.2
25913.6
25913.6
25913.7
25913.6
25913.4
20766
20765.9
20766
20766
20766
20766
18503.5
18503.5
18503.5
18503.5
18503.5
18503.5
14081.3
14081.3
14081.3
14081.3
14081.3
14081.3
9664.17
9664.16
9664.14
9664.13
9664.11
9664.1
4897.45
4897.41
4897.43
4897.45
4897.44
4897.45
3038.62
3038.57
3038.58
3038.6
3038.59
3038.59
1704.29
1704.22
1704.23
1704.25
1704.25
1704.25
616.245
616.212
616.208
616.214
616.22
616.217
100.303
100.309
100.31
100.311
100.314
100.314
105.858
105.853
105.842
105.841
105.849
105.857
1121.99
1121.95
1121.97
1121.94
1122.01
1121.72
7565.08
7565.14
7565.09
7564.98
7564.49
7565.26
10793.9
10793.9
10793.9
10793.9
10793.9
10794
6897.16
6897.15
6897.17
6897.19
6897.19
6897.16
3032.53
3032.51
3032.53
3032.55
3032.54
3032.56
1206.69
1206.69
1206.7
1206.72
1206.72
1206.73
30.0987
30.0937
30.0965
30.0994
30.1002
30.102
-47.8546
-47.852
-47.8511
-47.851
-47.8509
-47.8506
-28.0079
-28.0063
-28.005
-28.0043
-28.0035
-28.0025
4.75579
4.75548
4.75632
4.75717
4.75775
4.75816
23.3089
23.308
23.3064
23.3055
23.3066
23.3055
33.5608
33.5584
33.5552
33.5553
33.5589
33.5644
147.683
147.688
147.689
147.692
147.698
147.756
713.929
713.928
713.911
713.898
713.169
714.537
2824.97
2824.94
2824.94
2824.96
2824.96
2824.95
411.398
411.383
411.388
411.398
411.4
411.403
-14.4556
-14.4553
-14.4551
-14.4548
-14.4538
-14.4526
-46.6329
-46.6311
-46.6308
-46.6309
-46.631
-46.6316
-19.549
-19.548
-19.5478
-19.548
-19.5483
-19.5485
-21.5396
-21.5387
-21.5384
-21.5385
-21.539
-21.5396
-29.2531
-29.2525
-29.2519
-29.2517
-29.2515
-29.2514
-24.9017
-24.9018
-24.9015
-24.901
-24.9007
-24.9004
-28.1008
-28.1007
-28.1008
-28.1009
-28.1005
-28.1001
-36.277
-36.2739
-36.2731
-36.2722
-36.2712
-36.2628
-73.9266
-73.9225
-73.9223
-73.9193
-73.9299
-73.8906
-7.07352
-7.06383
-7.07252
-7.06318
-7.09322
-7.02659
-5.33816
-5.33817
-5.33818
-5.33818
-5.33818
-5.33818
-5.35868
-5.3587
-5.35871
-5.35871
-5.35871
-5.35871
-5.40042
-5.40045
-5.40046
-5.40046
-5.40046
-5.40046
-5.46473
-5.46477
-5.46478
-5.46478
-5.46477
-5.46475
-5.5535
-5.55354
-5.55355
-5.55354
-5.55352
-5.55349
-5.66887
-5.6689
-5.6689
-5.66887
-5.66884
-5.66881
-5.8128
-5.81282
-5.8128
-5.81276
-5.81272
-5.81268
-5.98622
-5.98621
-5.98618
-5.98614
-5.9861
-5.98607
-6.18983
-6.1898
-6.18977
-6.18975
-6.18973
-6.18972
-6.41484
-6.41482
-6.41481
-6.41483
-6.41485
-6.41487
-6.62218
-6.62218
-6.62223
-6.62233
-6.62246
-6.62259
-6.79107
-6.79108
-6.79111
-6.79116
-6.79121
-6.79124
-15.1277
-15.1277
-15.1278
-15.1278
-15.1278
-15.1278
-15.1483
-15.1483
-15.1483
-15.1483
-15.1483
-15.1483
-15.1903
-15.1903
-15.1903
-15.1903
-15.1903
-15.1903
-15.2554
-15.2554
-15.2554
-15.2554
-15.2554
-15.2554
-15.3461
-15.3461
-15.3461
-15.3461
-15.346
-15.346
-15.465
-15.465
-15.465
-15.465
-15.4649
-15.4649
-15.6144
-15.6144
-15.6144
-15.6143
-15.6143
-15.6142
-15.793
-15.793
-15.7929
-15.7929
-15.7928
-15.7928
-15.9888
-15.9888
-15.9888
-15.9888
-15.9888
-15.9888
-16.1998
-16.1998
-16.1997
-16.1997
-16.1997
-16.1997
-16.4359
-16.4359
-16.4358
-16.4358
-16.4357
-16.4356
-16.7072
-16.7073
-16.7073
-16.7073
-16.7073
-16.7073
-24.8979
-24.8979
-24.8979
-24.8979
-24.8979
-24.8979
-24.9175
-24.9176
-24.9176
-24.9176
-24.9176
-24.9176
-24.9579
-24.9579
-24.9579
-24.9579
-24.9579
-24.9579
-25.0211
-25.0211
-25.0211
-25.0211
-25.0211
-25.0211
-25.1105
-25.1105
-25.1105
-25.1104
-25.1104
-25.1104
-25.231
-25.2309
-25.2309
-25.2309
-25.2309
-25.2308
-25.3899
-25.3899
-25.3899
-25.3899
-25.3898
-25.3898
-25.5994
-25.5994
-25.5994
-25.5994
-25.5993
-25.5993
-25.8834
-25.8834
-25.8834
-25.8834
-25.8834
-25.8834
-26.2596
-26.2596
-26.2596
-26.2596
-26.2596
-26.2596
-26.6675
-26.6675
-26.6676
-26.6676
-26.6676
-26.6676
-27.054
-27.054
-27.0541
-27.0541
-27.0541
-27.0541
-34.6502
-34.6502
-34.6502
-34.6502
-34.6502
-34.6502
-34.6678
-34.6678
-34.6678
-34.6678
-34.6678
-34.6678
-34.7043
-34.7043
-34.7043
-34.7043
-34.7043
-34.7043
-34.7622
-34.7622
-34.7622
-34.7622
-34.7622
-34.7621
-34.846
-34.846
-34.846
-34.846
-34.846
-34.8459
-34.9625
-34.9625
-34.9624
-34.9624
-34.9624
-34.9624
-35.1206
-35.1206
-35.1206
-35.1206
-35.1205
-35.1205
-35.3296
-35.3296
-35.3296
-35.3296
-35.3296
-35.3296
-35.5902
-35.5902
-35.5902
-35.5903
-35.5903
-35.5903
-35.9047
-35.9047
-35.9047
-35.9047
-35.9047
-35.9047
-36.2971
-36.2971
-36.2971
-36.2971
-36.297
-36.297
-36.9834
-36.9834
-36.9834
-36.9834
-36.9834
-36.9834
100.236
100.125
100.1
100.175
100.168
99.9578
4.76881
4.77605
4.7766
4.77219
4.77289
4.79049
-59.0654
-59.0652
-59.0654
-59.0656
-59.0659
-59.0662
-45.0111
-45.0172
-45.0187
-45.0177
-45.0205
-45.0281
-64.9963
-64.9993
-65.0004
-65.0005
-65.0008
-65.0012
-71.32
-71.3199
-71.3198
-71.3197
-71.3196
-71.3195
-27.7551
-27.7506
-27.7492
-27.7503
-27.7489
-27.7432
-36.5963
-36.5942
-36.5934
-36.5932
-36.593
-36.5927
-65.4117
-65.4118
-65.4118
-65.4119
-65.4121
-65.4122
-53.4104
-53.4092
-53.4088
-53.4086
-53.4084
-53.4087
-60.2143
-60.214
-60.2137
-60.2137
-60.2138
-60.2141
-68.5527
-68.5528
-68.5528
-68.5528
-68.5527
-68.5526
-39.6925
-39.6927
-39.6928
-39.693
-39.6933
-39.6938
-51.1641
-51.1643
-51.1644
-51.1646
-51.1648
-51.165
-66.5772
-66.5772
-66.5771
-66.577
-66.5768
-66.5766
-44.7567
-44.7568
-44.7569
-44.7572
-44.7575
-44.7579
-54.4443
-54.4444
-54.4445
-54.4447
-54.4447
-54.4449
-67.1151
-67.1148
-67.1146
-67.1145
-67.1144
-67.1143
-45.2428
-45.2428
-45.2432
-45.2434
-45.2436
-45.2439
-56.4891
-56.4891
-56.4893
-56.4894
-56.4893
-56.4893
-67.8147
-67.8145
-67.8144
-67.8144
-67.8146
-67.8148
-42.7507
-42.7507
-42.7507
-42.7508
-42.751
-42.7513
-57.9429
-57.9429
-57.9428
-57.943
-57.943
-57.943
-68.6776
-68.6776
-68.6777
-68.6777
-68.6777
-68.6777
-54.3825
-54.3825
-54.3829
-54.3836
-54.3842
-54.3846
-66.3149
-66.3151
-66.3155
-66.3161
-66.3162
-66.3174
-70.7575
-70.7573
-70.7571
-70.7569
-70.7565
-70.7568
-73.9442
-73.9446
-73.9453
-73.9461
-73.9448
-73.9475
-80.4591
-80.4596
-80.4602
-80.4602
-80.4587
-80.4652
-72.3532
-72.3525
-72.3523
-72.3519
-72.3517
-72.3525
-121.262
-121.26
-121.259
-121.258
-121.274
-121.249
-124.161
-124.162
-124.163
-124.163
-124.174
-124.156
-94.0286
-94.0279
-94.0273
-94.0271
-94.0303
-94.0244
-121.83
-121.836
-121.835
-121.821
-121.808
-121.891
-127.29
-127.295
-127.292
-127.294
-127.29
-127.302
-96.6616
-96.6673
-96.6624
-96.6648
-96.6636
-96.6585
-52.5956
-52.5957
-52.5957
-52.5957
-52.5956
-52.5957
-59.9993
-59.9994
-59.9994
-59.9995
-59.9995
-59.9997
-64.3398
-64.3398
-64.3399
-64.3401
-64.3402
-64.3403
-56.894
-56.8939
-56.8937
-56.8936
-56.8932
-56.8933
-62.9749
-62.9749
-62.9748
-62.9748
-62.9747
-62.9753
-63.9304
-63.9303
-63.9305
-63.9307
-63.9309
-63.9315
-61.5908
-61.5906
-61.5901
-61.59
-61.5887
-61.5903
-66.598
-66.5984
-66.5983
-66.5981
-66.5974
-66.5993
-63.3528
-63.3526
-63.3529
-63.3533
-63.3534
-63.3552
-78.5311
-78.5321
-78.5304
-78.5298
-78.5271
-78.5269
-76.7023
-76.7045
-76.7039
-76.7038
-76.6996
-76.7062
-63.5963
-63.5961
-63.5966
-63.5974
-63.5963
-63.6024
-79.1758
-79.1762
-79.172
-79.1735
-79.1538
-79.1803
-81.8117
-81.8126
-81.8101
-81.8125
-81.7952
-81.8252
-62.8718
-62.8715
-62.8722
-62.874
-62.8675
-62.8847
-141.413
-141.419
-141.42
-141.423
-141.437
-141.39
-83.6624
-83.6615
-83.6553
-83.6537
-83.6263
-83.6928
-65.7637
-65.7662
-65.7651
-65.7687
-65.7581
-65.7743
-44.3715
-44.3715
-44.3715
-44.3715
-44.3715
-44.3715
-54.0965
-54.0965
-54.0965
-54.0965
-54.0965
-54.0965
-63.8139
-63.8139
-63.8139
-63.8139
-63.8139
-63.8139
-44.3854
-44.3854
-44.3854
-44.3854
-44.3854
-44.3854
-54.1054
-54.1054
-54.1054
-54.1054
-54.1054
-54.1054
-63.817
-63.817
-63.817
-63.817
-63.817
-63.817
-44.4145
-44.4145
-44.4145
-44.4145
-44.4145
-44.4145
-54.1241
-54.1241
-54.1241
-54.1241
-54.1241
-54.1241
-63.8236
-63.8236
-63.8236
-63.8236
-63.8236
-63.8235
-44.4613
-44.4613
-44.4613
-44.4613
-44.4613
-44.4612
-54.1545
-54.1545
-54.1545
-54.1545
-54.1545
-54.1544
-63.8342
-63.8342
-63.8342
-63.8342
-63.8342
-63.8342
-44.5307
-44.5307
-44.5307
-44.5306
-44.5306
-44.5306
-54.2004
-54.2004
-54.2004
-54.2004
-54.2004
-54.2004
-63.8502
-63.8502
-63.8502
-63.8502
-63.8502
-63.8502
-44.6315
-44.6315
-44.6315
-44.6314
-44.6314
-44.6314
-54.2688
-54.2688
-54.2688
-54.2688
-54.2688
-54.2688
-63.8734
-63.8734
-63.8733
-63.8733
-63.8733
-63.8733
-44.7792
-44.7792
-44.7792
-44.7792
-44.7792
-44.7792
-54.3722
-54.3722
-54.3722
-54.3722
-54.3722
-54.3722
-63.9071
-63.9071
-63.9071
-63.9071
-63.9071
-63.9071
-45.0074
-45.0075
-45.0075
-45.0075
-45.0075
-45.0075
-54.5369
-54.5369
-54.5369
-54.5369
-54.5369
-54.5369
-63.9584
-63.9584
-63.9584
-63.9584
-63.9584
-63.9584
-45.3713
-45.3714
-45.3714
-45.3714
-45.3714
-45.3714
-54.8095
-54.8095
-54.8095
-54.8095
-54.8095
-54.8095
-64.0369
-64.0369
-64.0369
-64.0369
-64.0369
-64.0369
-46.0171
-46.0171
-46.0171
-46.0171
-46.0171
-46.0171
-55.302
-55.302
-55.302
-55.3019
-55.3019
-55.3019
-64.1588
-64.1587
-64.1587
-64.1587
-64.1587
-64.1587
-47.0515
-47.0516
-47.0516
-47.0516
-47.0517
-47.0517
-55.9851
-55.985
-55.985
-55.9851
-55.9851
-55.9852
-64.2732
-64.2731
-64.2731
-64.2732
-64.2732
-64.2732
-49.0764
-49.0765
-49.0765
-49.0766
-49.0767
-49.0766
-57.3174
-57.3174
-57.3175
-57.3176
-57.3176
-57.3176
-64.4129
-64.413
-64.413
-64.4131
-64.4131
-64.4131
)
;

boundaryField
{
    seabed_topleft_surface
    {
        type            calculated;
        value           nonuniform List<scalar> 
72
(
35779.4
35779.4
35779.5
35779.5
35779.4
35779.4
34488.6
34488.6
34488.6
34488.6
34488.5
34488.5
30743.6
30743.6
30743.6
30743.6
30743.5
30743.5
26455.5
26455.5
26455.5
26455.5
26455.5
26455.5
22333.3
22333.3
22333.3
22333.3
22333.2
22333.2
18759.6
18759.6
18759.6
18759.6
18759.6
18759.6
15275.9
15275.9
15275.9
15275.9
15276
15276
11669.6
11669.5
11669.5
11669.5
11669.5
11669.5
8908.99
8908.9
8908.91
8908.89
8908.87
8908.88
10934.3
10934.2
10934.3
10934.3
10934.2
10934.2
19784.5
19784.5
19784.5
19784.3
19784.2
19784.1
28208.5
28209.1
28209.2
28209.2
28209.1
28208.9
)
;
    }
    seabed_topright_surface
    {
        type            calculated;
        value           nonuniform List<scalar> 
72
(
-0.416305
-0.416317
-0.416324
-0.416327
-0.416329
-0.416329
-0.436827
-0.436846
-0.436855
-0.436858
-0.436858
-0.436856
-0.478563
-0.478593
-0.478606
-0.478609
-0.478606
-0.4786
-0.542871
-0.542911
-0.542925
-0.542923
-0.542913
-0.542899
-0.631644
-0.631685
-0.631692
-0.631681
-0.63166
-0.631635
-0.747015
-0.747045
-0.74704
-0.747017
-0.746984
-0.74695
-0.890949
-0.89096
-0.89094
-0.890906
-0.890866
-0.890828
-1.06436
-1.06435
-1.06432
-1.06428
-1.06425
-1.06421
-1.26797
-1.26794
-1.26792
-1.26789
-1.26788
-1.26786
-1.49298
-1.49296
-1.49296
-1.49297
-1.49299
-1.49302
-1.70033
-1.70032
-1.70038
-1.70047
-1.70061
-1.70073
-1.86921
-1.86922
-1.86926
-1.8693
-1.86935
-1.86939
)
;
    }
    breakwater_top_surface
    {
        type            calculated;
        value           nonuniform List<scalar> 
36
(
-47.6906
-47.6907
-47.6907
-47.6907
-47.6906
-47.6907
-51.989
-51.9889
-51.9887
-51.9886
-51.9882
-51.9883
-56.6858
-56.6856
-56.6851
-56.685
-56.6837
-56.6853
-73.6256
-73.6266
-73.6249
-73.6243
-73.6216
-73.6214
-74.2707
-74.2711
-74.2669
-74.2683
-74.2487
-74.2751
-132.169
-132.173
-132.174
-132.178
-132.188
-132.15
)
;
    }
    breakwater_left_surface
    {
        type            calculated;
        value           nonuniform List<scalar> 
24
(
25921.1
25921.5
25921.5
25921.5
25921.4
25921.3
7570.14
7570.2
7570.15
7570.04
7569.55
7570.32
715.942
715.941
715.924
715.911
715.181
716.549
-7.05658
-7.04688
-7.05558
-7.04623
-7.07628
-7.00964
)
;
    }
    breakwater_right_surface
    {
        type            calculated;
        value           nonuniform List<scalar> 
24
(
-6.77421
-6.77422
-6.77426
-6.7743
-6.77435
-6.77439
-16.6907
-16.6907
-16.6908
-16.6908
-16.6907
-16.6907
-27.0378
-27.0378
-27.0379
-27.0379
-27.0379
-27.0379
-36.9675
-36.9675
-36.9675
-36.9675
-36.9675
-36.9675
)
;
    }
    water_front_surface
    {
        type            calculated;
        value           nonuniform List<scalar> 
186
(
30857.6
29566.7
25821.9
21534
17413.4
13845.9
10478.2
7162.25
4910.05
6924.09
15778.8
25913.2
20766
18503.5
14081.3
9664.17
4897.45
3038.62
1704.29
616.245
100.303
105.858
1121.99
7565.08
10793.9
6897.16
3032.53
1206.69
30.0987
-47.8546
-28.0079
4.75579
23.3089
33.5608
147.683
713.929
2824.97
411.398
-14.4556
-46.6329
-19.549
-21.5396
-29.2531
-24.9017
-28.1008
-36.277
-73.9266
-7.07352
-5.33816
-5.35868
-5.40042
-5.46473
-5.5535
-5.66887
-5.8128
-5.98622
-6.18983
-6.41484
-6.62218
-6.79107
-15.1277
-15.1483
-15.1903
-15.2554
-15.3461
-15.465
-15.6144
-15.793
-15.9888
-16.1998
-16.4359
-16.7072
-24.8979
-24.9175
-24.9579
-25.0211
-25.1105
-25.231
-25.3899
-25.5994
-25.8834
-26.2596
-26.6675
-27.054
-34.6502
-34.6678
-34.7043
-34.7622
-34.846
-34.9625
-35.1206
-35.3296
-35.5902
-35.9047
-36.2971
-36.9834
100.236
4.76881
-59.0654
-45.0111
-64.9963
-71.32
-27.7551
-36.5963
-65.4117
-53.4104
-60.2143
-68.5527
-39.6925
-51.1641
-66.5772
-44.7567
-54.4443
-67.1151
-45.2428
-56.4891
-67.8147
-42.7507
-57.9429
-68.6776
-54.3825
-66.3149
-70.7575
-73.9442
-80.4591
-72.3532
-121.262
-124.161
-94.0286
-121.83
-127.29
-96.6616
-52.5956
-59.9993
-64.3398
-56.894
-62.9749
-63.9304
-61.5908
-66.598
-63.3528
-78.5311
-76.7023
-63.5963
-79.1758
-81.8117
-62.8718
-141.413
-83.6624
-65.7637
-44.3715
-54.0965
-63.8139
-44.3854
-54.1054
-63.817
-44.4145
-54.1241
-63.8236
-44.4613
-54.1545
-63.8342
-44.5307
-54.2004
-63.8502
-44.6315
-54.2688
-63.8734
-44.7792
-54.3722
-63.9071
-45.0074
-54.5369
-63.9584
-45.3713
-54.8095
-64.0369
-46.0171
-55.302
-64.1588
-47.0515
-55.9851
-64.2732
-49.0764
-57.3174
-64.4129
)
;
    }
    water_back_surface
    {
        type            calculated;
        value           nonuniform List<scalar> 
186
(
30857.6
29566.7
25821.9
21534
17413.3
13845.9
10478.2
7162.23
4910
6924.09
15778.4
25913.4
20766
18503.5
14081.3
9664.1
4897.45
3038.59
1704.25
616.217
100.314
105.857
1121.72
7565.26
10794
6897.16
3032.56
1206.73
30.102
-47.8506
-28.0025
4.75816
23.3055
33.5644
147.756
714.537
2824.95
411.403
-14.4526
-46.6316
-19.5485
-21.5396
-29.2514
-24.9004
-28.1001
-36.2628
-73.8906
-7.02659
-5.33818
-5.35871
-5.40046
-5.46475
-5.55349
-5.66881
-5.81268
-5.98607
-6.18972
-6.41487
-6.62259
-6.79124
-15.1278
-15.1483
-15.1903
-15.2554
-15.346
-15.4649
-15.6142
-15.7928
-15.9888
-16.1997
-16.4356
-16.7073
-24.8979
-24.9176
-24.9579
-25.0211
-25.1104
-25.2308
-25.3898
-25.5993
-25.8834
-26.2596
-26.6676
-27.0541
-34.6502
-34.6678
-34.7043
-34.7621
-34.8459
-34.9624
-35.1205
-35.3296
-35.5903
-35.9047
-36.297
-36.9834
99.9578
4.79049
-59.0662
-45.0281
-65.0012
-71.3195
-27.7432
-36.5927
-65.4122
-53.4087
-60.2141
-68.5526
-39.6938
-51.165
-66.5766
-44.7579
-54.4449
-67.1143
-45.2439
-56.4893
-67.8148
-42.7513
-57.943
-68.6777
-54.3846
-66.3174
-70.7568
-73.9475
-80.4652
-72.3525
-121.249
-124.156
-94.0244
-121.891
-127.302
-96.6585
-52.5957
-59.9997
-64.3403
-56.8933
-62.9753
-63.9315
-61.5903
-66.5993
-63.3552
-78.5269
-76.7062
-63.6024
-79.1803
-81.8252
-62.8847
-141.39
-83.6928
-65.7743
-44.3715
-54.0965
-63.8139
-44.3854
-54.1054
-63.817
-44.4145
-54.1241
-63.8235
-44.4612
-54.1544
-63.8342
-44.5306
-54.2004
-63.8502
-44.6314
-54.2688
-63.8733
-44.7792
-54.3722
-63.9071
-45.0075
-54.5369
-63.9584
-45.3714
-54.8095
-64.0369
-46.0171
-55.3019
-64.1587
-47.0517
-55.9852
-64.2732
-49.0766
-57.3176
-64.4131
)
;
    }
    water_left_surface
    {
        type            calculated;
        value           nonuniform List<scalar> 
42
(
30874.5
30874.5
30874.5
30874.5
30874.5
30874.5
20782.5
20782.5
20782.5
20782.5
20782.5
20782.5
10810.1
10810.1
10810.1
10810.1
10810.1
10810.1
2839.48
2839.45
2839.45
2839.47
2839.47
2839.46
100.236
100.125
100.1
100.175
100.168
99.9578
4.76881
4.77605
4.7766
4.77219
4.77289
4.79049
-59.0654
-59.0652
-59.0654
-59.0656
-59.0659
-59.0662
)
;
    }
    water_right_surface
    {
        type            calculated;
        value           nonuniform List<scalar> 
42
(
-5.3213
-5.32132
-5.32132
-5.32133
-5.32133
-5.32133
-15.1112
-15.1112
-15.1112
-15.1112
-15.1112
-15.1112
-24.8817
-24.8817
-24.8817
-24.8817
-24.8817
-24.8817
-34.6343
-34.6343
-34.6343
-34.6343
-34.6343
-34.6343
-44.3715
-44.3715
-44.3715
-44.3715
-44.3715
-44.3715
-54.0965
-54.0965
-54.0965
-54.0965
-54.0965
-54.0965
-63.8139
-63.8139
-63.8139
-63.8139
-63.8139
-63.8139
)
;
    }
    water_top_surface
    {
        type            calculated;
        value           nonuniform List<scalar> 
180
(
-75.1802
-75.1796
-75.1799
-75.1802
-75.1804
-75.1808
-85.6644
-85.6638
-85.6634
-85.6636
-85.664
-85.6634
-69.0989
-69.0991
-69.0992
-69.0992
-69.0993
-69.0992
-72.1134
-72.1139
-72.114
-72.1142
-72.1141
-72.1137
-72.8324
-72.8329
-72.8327
-72.8325
-72.8323
-72.8315
-72.6894
-72.6891
-72.6886
-72.6883
-72.6882
-72.6879
-73.3516
-73.3512
-73.351
-73.351
-73.3513
-73.3516
-73.0025
-73.0026
-73.0027
-73.0028
-73.0029
-73.0029
-73.1556
-73.1555
-73.1553
-73.1549
-73.1544
-73.1549
-72.8804
-72.8795
-72.879
-72.8781
-72.8773
-72.8785
-68.7832
-68.7827
-68.7824
-68.7821
-68.782
-68.7809
-69.2138
-69.2136
-69.2136
-69.2137
-69.2137
-69.2139
-68.67
-68.67
-68.67
-68.67
-68.67
-68.67
-68.67
-68.67
-68.67
-68.67
-68.67
-68.67
-68.67
-68.67
-68.67
-68.67
-68.67
-68.67
-68.7144
-68.7144
-68.7144
-68.7144
-68.7144
-68.7143
-70.1615
-70.1636
-70.1628
-70.1626
-70.1634
-70.16
-70.3532
-70.3555
-70.3546
-70.3544
-70.3545
-70.3527
-68.67
-68.67
-68.67
-68.67
-68.67
-68.67
-68.67
-68.67
-68.67
-68.67
-68.67
-68.67
-68.67
-68.67
-68.67
-68.67
-68.67
-68.67
-68.67
-68.67
-68.67
-68.67
-68.67
-68.67
-68.67
-68.67
-68.67
-68.67
-68.67
-68.67
-68.67
-68.67
-68.67
-68.67
-68.67
-68.67
-68.6701
-68.6701
-68.6701
-68.6701
-68.6701
-68.6701
-68.6701
-68.6701
-68.6701
-68.6701
-68.6701
-68.6701
-68.6701
-68.6701
-68.6701
-68.6701
-68.6701
-68.6701
-68.6702
-68.6702
-68.6702
-68.6702
-68.6702
-68.6702
-68.67
-68.67
-68.67
-68.67
-68.67
-68.67
-68.67
-68.67
-68.67
-68.67
-68.67
-68.67
)
;
    }
}


// ************************************************************************* //
