/*--------------------------------*- C++ -*----------------------------------*\
| =========                 |                                                 |
| \\      /  F ield         | OpenFOAM: The Open Source CFD Toolbox           |
|  \\    /   O peration     | Version:  v1612+                                |
|   \\  /    A nd           | Web:      www.OpenFOAM.com                      |
|    \\/     M anipulation  |                                                 |
\*---------------------------------------------------------------------------*/
FoamFile
{
    version     2.0;
    format      ascii;
    class       volScalarField;
    location    "1.8";
    object      p_rgh;
}
// * * * * * * * * * * * * * * * * * * * * * * * * * * * * * * * * * * * * * //

dimensions      [1 -1 -2 0 0 0 0];

internalField   nonuniform List<scalar> 
1116
(
35779.4
35779.4
35779.5
35779.5
35779.4
35779.4
34488.6
34488.6
34488.6
34488.6
34488.5
34488.5
30743.6
30743.6
30743.6
30743.6
30743.5
30743.5
26455.5
26455.5
26455.5
26455.5
26455.5
26455.5
22333.3
22333.3
22333.3
22333.3
22333.2
22333.2
18759.6
18759.6
18759.6
18759.6
18759.6
18759.6
15275.9
15275.9
15275.9
15275.9
15276
15276
11669.6
11669.5
11669.5
11669.5
11669.5
11669.5
8908.99
8908.9
8908.91
8908.89
8908.87
8908.88
10934.3
10934.2
10934.3
10934.3
10934.2
10934.2
19784.5
19784.5
19784.5
19784.3
19784.2
19784.1
28208.5
28209.1
28209.2
28209.2
28209.1
28208.9
35497.4
35497.4
35497.4
35497.4
35497.4
35497.4
33234.6
33234.6
33234.6
33234.6
33234.6
33234.6
28807.4
28807.4
28807.4
28807.4
28807.4
28807.4
23553.7
23553.7
23553.7
23553.7
23553.7
23553.7
17063.7
17063.6
17063.7
17063.7
17063.7
17063.7
12130.8
12130.6
12130.6
12130.7
12130.6
12130.6
6892.17
6891.91
6891.94
6891.99
6892
6891.97
2475.52
2475.36
2475.34
2475.36
2475.38
2475.36
232.512
232.512
232.505
232.502
232.505
232.502
395.3
395.285
395.32
395.311
395.302
395.294
2140.61
2140.56
2140.58
2140.52
2140.48
2140.24
12079.4
12079.6
12079.5
12079.4
12078.9
12079.6
35334.1
35334.2
35334.1
35334.2
35334.2
35334.2
27375.3
27375.3
27375.3
27375.4
27375.4
27375.5
17323.5
17323.4
17323.5
17323.6
17323.6
17323.7
7513.19
7513.13
7513.23
7513.32
7513.32
7513.43
205.834
205.795
205.824
205.851
205.855
205.871
-23.3129
-23.3104
-23.3094
-23.3093
-23.3092
-23.3089
-3.4667
-3.46506
-3.46379
-3.46315
-3.46232
-3.46131
29.297
29.2967
29.2975
29.2984
29.2989
29.2994
47.8502
47.8493
47.8477
47.8468
47.8479
47.8468
58.0775
58.075
58.0719
58.072
58.0756
58.0811
174.348
174.353
174.355
174.358
174.362
174.421
3765.39
3765.05
3765.13
3764.96
3764.3
3765.26
34224.1
34224.1
34224.1
34224.1
34224.1
34224.2
3666.67
3666.57
3666.6
3666.69
3666.71
3666.79
19.9244
19.9247
19.9249
19.9252
19.9262
19.9274
-12.2696
-12.2678
-12.2674
-12.2676
-12.2677
-12.2683
14.8025
14.8035
14.8037
14.8035
14.8032
14.8031
12.8112
12.8121
12.8125
12.8123
12.8119
12.8113
5.09781
5.09836
5.09896
5.09918
5.09936
5.09945
9.44919
9.44906
9.44938
9.44989
9.4502
9.45045
6.25009
6.25024
6.25008
6.25005
6.25039
6.25078
-1.92707
-1.92399
-1.92312
-1.92224
-1.92121
-1.91285
-39.4991
-39.4949
-39.4947
-39.4917
-39.5024
-39.4631
29.5941
29.6038
29.5955
29.6047
29.5718
29.6425
-0.416305
-0.416317
-0.416324
-0.416327
-0.416329
-0.416329
-0.436827
-0.436846
-0.436855
-0.436858
-0.436858
-0.436856
-0.478563
-0.478593
-0.478606
-0.478609
-0.478606
-0.4786
-0.542871
-0.542911
-0.542925
-0.542923
-0.542913
-0.542899
-0.631644
-0.631685
-0.631692
-0.631681
-0.63166
-0.631635
-0.747015
-0.747045
-0.74704
-0.747017
-0.746984
-0.74695
-0.890949
-0.89096
-0.89094
-0.890906
-0.890866
-0.890828
-1.06436
-1.06435
-1.06432
-1.06428
-1.06425
-1.06421
-1.26797
-1.26794
-1.26792
-1.26789
-1.26788
-1.26786
-1.49298
-1.49296
-1.49296
-1.49297
-1.49299
-1.49302
-1.70033
-1.70032
-1.70038
-1.70047
-1.70061
-1.70073
-1.86921
-1.86922
-1.86926
-1.8693
-1.86935
-1.86939
-0.396224
-0.396232
-0.396236
-0.396238
-0.396238
-0.396237
-0.416799
-0.416812
-0.416818
-0.416819
-0.416817
-0.416813
-0.458794
-0.458814
-0.458821
-0.45882
-0.458813
-0.458801
-0.523905
-0.52393
-0.523934
-0.523925
-0.523907
-0.523882
-0.614553
-0.614573
-0.614567
-0.614547
-0.614516
-0.614477
-0.733504
-0.733515
-0.733495
-0.733462
-0.73342
-0.733373
-0.882898
-0.88289
-0.882858
-0.882819
-0.882775
-0.882731
-1.06146
-1.06144
-1.0614
-1.06137
-1.06133
-1.06131
-1.25732
-1.25729
-1.25727
-1.25725
-1.25724
-1.25724
-1.46828
-1.46825
-1.46823
-1.46822
-1.46822
-1.46823
-1.70438
-1.70435
-1.70431
-1.70425
-1.70416
-1.70408
-1.97573
-1.97574
-1.97576
-1.97576
-1.97575
-1.97574
-0.356686
-0.356693
-0.356696
-0.356697
-0.356697
-0.356695
-0.376361
-0.376371
-0.376375
-0.376375
-0.376372
-0.376367
-0.416734
-0.416748
-0.416751
-0.416747
-0.416739
-0.416726
-0.479921
-0.479936
-0.479934
-0.479922
-0.479903
-0.479878
-0.569269
-0.569276
-0.569263
-0.56924
-0.569208
-0.569172
-0.689762
-0.68976
-0.689736
-0.689703
-0.689664
-0.689624
-0.848756
-0.848743
-0.848716
-0.848684
-0.84865
-0.848615
-1.05822
-1.05821
-1.05819
-1.05817
-1.05815
-1.05814
-1.3422
-1.34221
-1.3422
-1.34221
-1.34221
-1.34221
-1.71839
-1.71843
-1.71845
-1.71845
-1.71845
-1.71843
-2.12635
-2.12636
-2.12637
-2.12638
-2.12639
-2.1264
-2.51282
-2.51285
-2.51287
-2.51288
-2.51289
-2.5129
-0.299285
-0.299289
-0.299291
-0.299292
-0.299291
-0.29929
-0.316929
-0.316935
-0.316937
-0.316936
-0.316933
-0.316929
-0.353403
-0.353412
-0.353413
-0.353408
-0.353399
-0.353388
-0.411315
-0.411323
-0.411317
-0.411304
-0.411286
-0.411265
-0.495158
-0.495158
-0.495142
-0.495119
-0.495093
-0.495064
-0.611593
-0.611582
-0.611559
-0.611534
-0.611506
-0.611478
-0.769741
-0.769728
-0.769711
-0.769692
-0.769674
-0.769657
-0.978688
-0.978691
-0.978691
-0.978689
-0.978686
-0.978683
-1.23934
-1.23936
-1.23938
-1.23938
-1.23939
-1.23939
-1.55379
-1.55383
-1.55383
-1.55382
-1.55382
-1.5538
-1.94624
-1.94624
-1.94621
-1.94618
-1.94615
-1.94614
-2.63248
-2.63251
-2.63253
-2.63254
-2.63254
-2.63254
13926.3
13926.1
13926.2
13926.3
13926.2
13926.3
1214.6
1214.74
1214.77
1214.67
1214.68
1214.98
4.69958
4.69976
4.69961
4.69941
4.69914
4.69884
-0.828611
-0.834816
-0.836243
-0.835278
-0.83809
-0.845737
47.3983
47.3948
47.3955
47.3938
47.3939
47.4013
-7.55496
-7.55486
-7.55481
-7.55469
-7.55461
-7.55449
16.4055
16.41
16.4114
16.4102
16.4117
16.4174
17.3587
17.3608
17.3616
17.3618
17.362
17.3623
-1.64673
-1.64678
-1.64679
-1.64694
-1.64708
-1.6472
-9.23505
-9.23385
-9.23349
-9.23325
-9.23307
-9.23336
-5.93147
-5.93112
-5.93086
-5.93082
-5.93092
-5.93125
-4.78775
-4.78782
-4.78778
-4.78778
-4.78773
-4.78764
4.4836
4.48343
4.48334
4.4831
4.48284
4.48237
3.03765
3.03742
3.03732
3.03712
3.03692
3.03667
-2.81216
-2.81219
-2.81215
-2.81202
-2.81182
-2.81158
-0.611721
-0.611781
-0.611924
-0.612221
-0.612505
-0.612928
-0.489312
-0.489356
-0.489527
-0.489652
-0.489731
-0.489881
-3.35011
-3.34982
-3.34963
-3.34949
-3.34941
-3.34934
-1.09776
-1.09784
-1.09817
-1.09845
-1.09864
-1.09892
-2.53411
-2.53412
-2.53426
-2.53436
-2.5343
-2.53434
-4.04975
-4.04948
-4.04938
-4.04944
-4.0496
-4.04978
1.39434
1.39431
1.3943
1.39424
1.39404
1.39366
-3.98787
-3.98785
-3.98785
-3.98798
-3.98799
-3.98804
-4.91263
-4.91264
-4.91268
-4.91273
-4.91268
-4.91269
-10.2273
-10.2273
-10.2277
-10.2284
-10.229
-10.2294
-12.3599
-12.3601
-12.3605
-12.3611
-12.3612
-12.3624
-6.99248
-6.99226
-6.99215
-6.99193
-6.99153
-6.99179
-29.735
-29.7353
-29.736
-29.7368
-29.7357
-29.7383
-26.498
-26.4986
-26.4991
-26.4992
-26.4977
-26.5042
-8.58022
-8.57961
-8.57935
-8.57894
-8.57879
-8.57953
-77.0505
-77.0491
-77.0479
-77.0465
-77.0626
-77.0373
-69.7954
-69.7966
-69.7976
-69.7975
-69.8091
-69.7902
-29.7607
-29.7601
-29.7595
-29.7592
-29.7623
-29.7563
-77.3496
-77.3556
-77.3542
-77.3407
-77.3283
-77.4109
-72.9038
-72.9093
-72.9057
-72.908
-72.9046
-72.9156
-32.3916
-32.3976
-32.3926
-32.395
-32.3937
-32.3884
-8.45064
-8.45069
-8.45067
-8.45066
-8.45062
-8.45069
-6.04431
-6.04436
-6.0444
-6.04447
-6.04455
-6.04465
-0.574776
-0.574776
-0.574924
-0.575087
-0.575209
-0.57533
-12.749
-12.7489
-12.7487
-12.7486
-12.7482
-12.7483
-9.01986
-9.01988
-9.01985
-9.01979
-9.01969
-9.02025
-0.165384
-0.165265
-0.165458
-0.16569
-0.165897
-0.166452
-17.4458
-17.4456
-17.4451
-17.445
-17.4437
-17.4452
-12.643
-12.6434
-12.6433
-12.6431
-12.6424
-12.6443
0.412192
0.412425
0.412112
0.411753
0.411613
0.409835
-34.3815
-34.3824
-34.3807
-34.3802
-34.3775
-34.3773
-22.7466
-22.7488
-22.7482
-22.7481
-22.7438
-22.7505
0.209854
0.210158
0.209609
0.208867
0.209975
0.203704
-35.0297
-35.0301
-35.0259
-35.0274
-35.0077
-35.0342
-23.1447
-23.1424
-23.1413
-23.1444
-23.1242
-23.1635
2.27817
2.28047
2.27899
2.27691
2.28429
2.26383
-58.2122
-58.2066
-58.2122
-58.2172
-58.1982
-58.2284
-0.14716
-0.13441
-0.132654
-0.133115
-0.0886351
-0.197991
-0.43569
-0.436092
-0.435797
-0.439602
-0.428932
-0.446829
-0.226487
-0.226489
-0.226491
-0.226491
-0.22649
-0.226488
-0.141496
-0.141497
-0.141497
-0.141497
-0.141496
-0.141495
-0.0488696
-0.04887
-0.0488702
-0.0488701
-0.0488699
-0.0488695
-0.24044
-0.240444
-0.240445
-0.240444
-0.240441
-0.240437
-0.150415
-0.150416
-0.150416
-0.150415
-0.150412
-0.150409
-0.0519989
-0.0519992
-0.0519991
-0.0519987
-0.0519979
-0.0519967
-0.269495
-0.269499
-0.269498
-0.269493
-0.269486
-0.269477
-0.169082
-0.169084
-0.169082
-0.169078
-0.169073
-0.169066
-0.0585546
-0.0585546
-0.0585538
-0.0585525
-0.0585504
-0.0585475
-0.316282
-0.316284
-0.316277
-0.316266
-0.316252
-0.316236
-0.199475
-0.199474
-0.199468
-0.199461
-0.199451
-0.19944
-0.0692122
-0.0692109
-0.0692085
-0.0692056
-0.069202
-0.0691974
-0.385672
-0.385666
-0.385652
-0.385636
-0.385617
-0.385597
-0.245402
-0.245396
-0.245386
-0.245376
-0.245365
-0.245354
-0.0851784
-0.0851754
-0.0851719
-0.0851681
-0.0851645
-0.085161
-0.486491
-0.486479
-0.486463
-0.486448
-0.486432
-0.486418
-0.313824
-0.313817
-0.313808
-0.313801
-0.313795
-0.31379
-0.108354
-0.108351
-0.108349
-0.108347
-0.108346
-0.108347
-0.634208
-0.634201
-0.634195
-0.63419
-0.634186
-0.634183
-0.417161
-0.41716
-0.417161
-0.417162
-0.417164
-0.417167
-0.142106
-0.142108
-0.14211
-0.142112
-0.142114
-0.142117
-0.862443
-0.862455
-0.862465
-0.862473
-0.86248
-0.862483
-0.581887
-0.581898
-0.581907
-0.581914
-0.581918
-0.581919
-0.19336
-0.193365
-0.193369
-0.193372
-0.193373
-0.193372
-1.22634
-1.22637
-1.22638
-1.22639
-1.22639
-1.22639
-0.854513
-0.854525
-0.854527
-0.854525
-0.854517
-0.854501
-0.271885
-0.271884
-0.271882
-0.271878
-0.271872
-0.27186
-1.87213
-1.87212
-1.87211
-1.87211
-1.87211
-1.87211
-1.34698
-1.34697
-1.34695
-1.34694
-1.34693
-1.34691
-0.393764
-0.393747
-0.393735
-0.393727
-0.393721
-0.393717
-2.90655
-2.90657
-2.90659
-2.90662
-2.90665
-2.90668
-2.03006
-2.03002
-2.03001
-2.03005
-2.03011
-2.03017
-0.508151
-0.508137
-0.508145
-0.508165
-0.508194
-0.508226
-4.93143
-4.93148
-4.93155
-4.93162
-4.93168
-4.93165
-3.36239
-3.36245
-3.36254
-3.36261
-3.36263
-3.36255
-0.647927
-0.64796
-0.648027
-0.648089
-0.648124
-0.648125
)
;

boundaryField
{
    seabed_topleft_surface
    {
        type            fixedFluxPressure;
        gradient        uniform 0;
        value           nonuniform List<scalar> 
72
(
35779.4
35779.4
35779.5
35779.5
35779.4
35779.4
34488.6
34488.6
34488.6
34488.6
34488.5
34488.5
30743.6
30743.6
30743.6
30743.6
30743.5
30743.5
26455.5
26455.5
26455.5
26455.5
26455.5
26455.5
22333.3
22333.3
22333.3
22333.3
22333.2
22333.2
18759.6
18759.6
18759.6
18759.6
18759.6
18759.6
15275.9
15275.9
15275.9
15275.9
15276
15276
11669.6
11669.5
11669.5
11669.5
11669.5
11669.5
8908.99
8908.9
8908.91
8908.89
8908.87
8908.88
10934.3
10934.2
10934.3
10934.3
10934.2
10934.2
19784.5
19784.5
19784.5
19784.3
19784.2
19784.1
28208.5
28209.1
28209.2
28209.2
28209.1
28208.9
)
;
    }
    seabed_topright_surface
    {
        type            fixedFluxPressure;
        gradient        uniform 0;
        value           nonuniform List<scalar> 
72
(
-0.416305
-0.416317
-0.416324
-0.416327
-0.416329
-0.416329
-0.436827
-0.436846
-0.436855
-0.436858
-0.436858
-0.436856
-0.478563
-0.478593
-0.478606
-0.478609
-0.478606
-0.4786
-0.542871
-0.542911
-0.542925
-0.542923
-0.542913
-0.542899
-0.631644
-0.631685
-0.631692
-0.631681
-0.63166
-0.631635
-0.747015
-0.747045
-0.74704
-0.747017
-0.746984
-0.74695
-0.890949
-0.89096
-0.89094
-0.890906
-0.890866
-0.890828
-1.06436
-1.06435
-1.06432
-1.06428
-1.06425
-1.06421
-1.26797
-1.26794
-1.26792
-1.26789
-1.26788
-1.26786
-1.49298
-1.49296
-1.49296
-1.49297
-1.49299
-1.49302
-1.70033
-1.70032
-1.70038
-1.70047
-1.70061
-1.70073
-1.86921
-1.86922
-1.86926
-1.8693
-1.86935
-1.86939
)
;
    }
    breakwater_top_surface
    {
        type            fixedFluxPressure;
        gradient        uniform 0;
        value           nonuniform List<scalar> 
36
(
-8.45064
-8.45069
-8.45067
-8.45066
-8.45062
-8.45069
-12.749
-12.7489
-12.7487
-12.7486
-12.7482
-12.7483
-17.4458
-17.4456
-17.4451
-17.445
-17.4437
-17.4452
-34.3815
-34.3824
-34.3807
-34.3802
-34.3775
-34.3773
-35.0297
-35.0301
-35.0259
-35.0274
-35.0077
-35.0342
-58.2122
-58.2066
-58.2122
-58.2172
-58.1982
-58.2284
)
;
    }
    breakwater_left_surface
    {
        type            fixedFluxPressure;
        gradient        uniform 0;
        value           nonuniform List<scalar> 
24
(
28208.5
28209.1
28209.2
28209.2
28209.1
28208.9
12079.4
12079.6
12079.5
12079.4
12078.9
12079.6
3765.39
3765.05
3765.13
3764.96
3764.3
3765.26
29.5941
29.6038
29.5955
29.6047
29.5718
29.6425
)
;
    }
    breakwater_right_surface
    {
        type            fixedFluxPressure;
        gradient        uniform 0;
        value           nonuniform List<scalar> 
24
(
-1.86921
-1.86922
-1.86926
-1.8693
-1.86935
-1.86939
-1.97573
-1.97574
-1.97576
-1.97576
-1.97575
-1.97574
-2.51282
-2.51285
-2.51287
-2.51288
-2.51289
-2.5129
-2.63248
-2.63251
-2.63253
-2.63254
-2.63254
-2.63254
)
;
    }
    water_front_surface
    {
        type            fixedFluxPressure;
        gradient        uniform 0;
        value           nonuniform List<scalar> 
186
(
35779.4
34488.6
30743.6
26455.5
22333.3
18759.6
15275.9
11669.6
8908.99
10934.3
19784.5
28208.5
35497.4
33234.6
28807.4
23553.7
17063.7
12130.8
6892.17
2475.52
232.512
395.3
2140.61
12079.4
35334.1
27375.3
17323.5
7513.19
205.834
-23.3129
-3.4667
29.297
47.8502
58.0775
174.348
3765.39
34224.1
3666.67
19.9244
-12.2696
14.8025
12.8112
5.09781
9.44919
6.25009
-1.92707
-39.4991
29.5941
-0.416305
-0.436827
-0.478563
-0.542871
-0.631644
-0.747015
-0.890949
-1.06436
-1.26797
-1.49298
-1.70033
-1.86921
-0.396224
-0.416799
-0.458794
-0.523905
-0.614553
-0.733504
-0.882898
-1.06146
-1.25732
-1.46828
-1.70438
-1.97573
-0.356686
-0.376361
-0.416734
-0.479921
-0.569269
-0.689762
-0.848756
-1.05822
-1.3422
-1.71839
-2.12635
-2.51282
-0.299285
-0.316929
-0.353403
-0.411315
-0.495158
-0.611593
-0.769741
-0.978688
-1.23934
-1.55379
-1.94624
-2.63248
13926.3
1214.6
4.69958
-0.828611
47.3983
-7.55496
16.4055
17.3587
-1.64673
-9.23505
-5.93147
-4.78775
4.4836
3.03765
-2.81216
-0.611721
-0.489312
-3.35011
-1.09776
-2.53411
-4.04975
1.39434
-3.98787
-4.91263
-10.2273
-12.3599
-6.99248
-29.735
-26.498
-8.58022
-77.0505
-69.7954
-29.7607
-77.3496
-72.9038
-32.3916
-8.45064
-6.04431
-0.574776
-12.749
-9.01986
-0.165384
-17.4458
-12.643
0.412192
-34.3815
-22.7466
0.209854
-35.0297
-23.1447
2.27817
-58.2122
-0.14716
-0.43569
-0.226487
-0.141496
-0.0488696
-0.24044
-0.150415
-0.0519989
-0.269495
-0.169082
-0.0585546
-0.316282
-0.199475
-0.0692122
-0.385672
-0.245402
-0.0851784
-0.486491
-0.313824
-0.108354
-0.634208
-0.417161
-0.142106
-0.862443
-0.581887
-0.19336
-1.22634
-0.854513
-0.271885
-1.87213
-1.34698
-0.393764
-2.90655
-2.03006
-0.508151
-4.93143
-3.36239
-0.647927
)
;
    }
    water_back_surface
    {
        type            fixedFluxPressure;
        gradient        uniform 0;
        value           nonuniform List<scalar> 
186
(
35779.4
34488.5
30743.5
26455.5
22333.2
18759.6
15276
11669.5
8908.88
10934.2
19784.1
28208.9
35497.4
33234.6
28807.4
23553.7
17063.7
12130.6
6891.97
2475.36
232.502
395.294
2140.24
12079.6
35334.2
27375.5
17323.7
7513.43
205.871
-23.3089
-3.46131
29.2994
47.8468
58.0811
174.421
3765.26
34224.2
3666.79
19.9274
-12.2683
14.8031
12.8113
5.09945
9.45045
6.25078
-1.91285
-39.4631
29.6425
-0.416329
-0.436856
-0.4786
-0.542899
-0.631635
-0.74695
-0.890828
-1.06421
-1.26786
-1.49302
-1.70073
-1.86939
-0.396237
-0.416813
-0.458801
-0.523882
-0.614477
-0.733373
-0.882731
-1.06131
-1.25724
-1.46823
-1.70408
-1.97574
-0.356695
-0.376367
-0.416726
-0.479878
-0.569172
-0.689624
-0.848615
-1.05814
-1.34221
-1.71843
-2.1264
-2.5129
-0.29929
-0.316929
-0.353388
-0.411265
-0.495064
-0.611478
-0.769657
-0.978683
-1.23939
-1.5538
-1.94614
-2.63254
13926.3
1214.98
4.69884
-0.845737
47.4013
-7.55449
16.4174
17.3623
-1.6472
-9.23336
-5.93125
-4.78764
4.48237
3.03667
-2.81158
-0.612928
-0.489881
-3.34934
-1.09892
-2.53434
-4.04978
1.39366
-3.98804
-4.91269
-10.2294
-12.3624
-6.99179
-29.7383
-26.5042
-8.57953
-77.0373
-69.7902
-29.7563
-77.4109
-72.9156
-32.3884
-8.45069
-6.04465
-0.57533
-12.7483
-9.02025
-0.166452
-17.4452
-12.6443
0.409835
-34.3773
-22.7505
0.203704
-35.0342
-23.1635
2.26383
-58.2284
-0.197991
-0.446829
-0.226488
-0.141495
-0.0488695
-0.240437
-0.150409
-0.0519967
-0.269477
-0.169066
-0.0585475
-0.316236
-0.19944
-0.0691974
-0.385597
-0.245354
-0.085161
-0.486418
-0.31379
-0.108347
-0.634183
-0.417167
-0.142117
-0.862483
-0.581919
-0.193372
-1.22639
-0.854501
-0.27186
-1.87211
-1.34691
-0.393717
-2.90668
-2.03017
-0.508226
-4.93165
-3.36255
-0.648125
)
;
    }
    water_left_surface
    {
        type            fixedFluxPressure;
        gradient        uniform 0;
        value           nonuniform List<scalar> 
42
(
35779.4
35779.4
35779.5
35779.5
35779.4
35779.4
35497.4
35497.4
35497.4
35497.4
35497.4
35497.4
35334.1
35334.2
35334.1
35334.2
35334.2
35334.2
34224.1
34224.1
34224.1
34224.1
34224.1
34224.2
13926.3
13926.1
13926.2
13926.3
13926.2
13926.3
1214.6
1214.74
1214.77
1214.67
1214.68
1214.98
4.69958
4.69976
4.69961
4.69941
4.69914
4.69884
)
;
    }
    water_right_surface
    {
        type            fixedFluxPressure;
        gradient        uniform 0;
        value           nonuniform List<scalar> 
42
(
-0.416305
-0.416317
-0.416324
-0.416327
-0.416329
-0.416329
-0.396224
-0.396232
-0.396236
-0.396238
-0.396238
-0.396237
-0.356686
-0.356693
-0.356696
-0.356697
-0.356697
-0.356695
-0.299285
-0.299289
-0.299291
-0.299292
-0.299291
-0.29929
-0.226487
-0.226489
-0.226491
-0.226491
-0.22649
-0.226488
-0.141496
-0.141497
-0.141497
-0.141497
-0.141496
-0.141495
-0.0488696
-0.04887
-0.0488702
-0.0488701
-0.0488699
-0.0488695
)
;
    }
    water_top_surface
    {
        type            totalPressure;
        rho             rho;
        psi             none;
        gamma           1;
        p0              uniform 0;
        value           nonuniform List<scalar> 
180
(
-6.51021
-6.50961
-6.50993
-6.51018
-6.51039
-6.51083
-16.9944
-16.9938
-16.9934
-16.9936
-16.994
-16.9934
-0.428912
-0.429085
-0.429153
-0.429245
-0.42928
-0.429236
-3.44343
-3.44389
-3.44404
-3.44417
-3.44413
-3.44372
-4.16244
-4.16288
-4.16273
-4.16253
-4.16226
-4.16153
-4.01935
-4.01908
-4.01864
-4.01833
-4.01817
-4.0179
-4.68164
-4.68121
-4.68098
-4.68102
-4.68128
-4.6816
-4.33254
-4.3326
-4.3327
-4.33282
-4.33286
-4.33286
-4.48561
-4.48547
-4.48529
-4.48492
-4.48438
-4.48485
-4.21036
-4.20954
-4.20901
-4.20812
-4.20734
-4.2085
-0.113193
-0.112661
-0.112381
-0.112123
-0.112014
-0.110871
0
0
0
0
0
0
0
0
0
0
0
0
0
0
0
0
0
0
0
0
0
0
0
0
0
0
0
0
0
0
0
0
0
0
0
0
0
0
0
0
0
0
-9.51609e-06
-9.5129e-06
-9.51304e-06
-9.51317e-06
-9.51332e-06
-9.51667e-06
-1.07055e-05
-1.07019e-05
-1.07021e-05
-1.07023e-05
-1.07026e-05
-1.07065e-05
-1.33873e-05
-1.33828e-05
-1.3383e-05
-1.33833e-05
-1.33836e-05
-1.33885e-05
-1.8271e-05
-1.82643e-05
-1.82644e-05
-1.82647e-05
-1.82652e-05
-1.82722e-05
-2.65885e-05
-2.65777e-05
-2.65773e-05
-2.65776e-05
-2.65783e-05
-2.65889e-05
-4.04267e-05
-4.04081e-05
-4.04068e-05
-4.04072e-05
-4.04091e-05
-4.04276e-05
-6.31994e-05
-6.31668e-05
-6.31661e-05
-6.31691e-05
-6.31763e-05
-6.32135e-05
-0.000101804
-0.000101753
-0.000101758
-0.00010177
-0.00010179
-0.000101864
-0.000146434
-0.000146365
-0.000146385
-0.000146411
-0.000146445
-0.000146568
-0.000182609
-0.000182525
-0.000182565
-0.000182603
-0.000182642
-0.000182818
-3.8272e-05
-3.82243e-05
-3.82599e-05
-3.82901e-05
-3.8312e-05
-3.84322e-05
0
0
0
0
0
0
)
;
    }
}


// ************************************************************************* //
