/*--------------------------------*- C++ -*----------------------------------*\
| =========                 |                                                 |
| \\      /  F ield         | OpenFOAM: The Open Source CFD Toolbox           |
|  \\    /   O peration     | Version:  v1612+                                |
|   \\  /    A nd           | Web:      www.OpenFOAM.com                      |
|    \\/     M anipulation  |                                                 |
\*---------------------------------------------------------------------------*/
FoamFile
{
    version     2.0;
    format      ascii;
    class       volScalarField;
    location    "3.25";
    object      alpha.water;
}
// * * * * * * * * * * * * * * * * * * * * * * * * * * * * * * * * * * * * * //

dimensions      [0 0 0 0 0 0 0];

internalField   nonuniform List<scalar> 
1116
(
0.793319
0.793313
0.793315
0.793314
0.79331
0.793316
0.794527
0.794522
0.794524
0.794522
0.794518
0.794524
0.816518
0.816512
0.816514
0.816513
0.81651
0.816515
0.851766
0.851759
0.851761
0.851761
0.851757
0.851763
0.887135
0.887127
0.887129
0.887129
0.887126
0.887132
0.91552
0.915513
0.915514
0.915514
0.915512
0.915517
0.936439
0.936432
0.936432
0.936431
0.936429
0.936434
0.967412
0.967406
0.967405
0.967404
0.967403
0.967407
0.973106
0.973106
0.973106
0.973106
0.973106
0.973106
0.973106
0.973106
0.973106
0.973106
0.973106
0.973106
0.973106
0.973106
0.973106
0.973106
0.973106
0.973106
0.970228
0.970228
0.970228
0.970228
0.970227
0.970225
0.142063
0.142063
0.142062
0.142061
0.14206
0.142063
0.0742734
0.0742722
0.0742722
0.0742707
0.0742702
0.0742738
0.058181
0.0581798
0.0581797
0.0581791
0.0581787
0.0581804
0.0709824
0.0709809
0.0709807
0.0709803
0.0709799
0.0709816
0.0973344
0.097332
0.0973319
0.0973319
0.0973314
0.0973333
0.135042
0.135038
0.135038
0.135038
0.135038
0.13504
0.193003
0.192998
0.192998
0.192998
0.192999
0.193002
0.250379
0.250371
0.250372
0.250372
0.250373
0.250378
0.386073
0.386057
0.386059
0.386059
0.386058
0.38607
0.746038
0.746009
0.746016
0.746015
0.746009
0.746028
0.973106
0.973106
0.973106
0.973106
0.973106
0.973106
0.972505
0.972506
0.972506
0.972507
0.972508
0.972507
2.24571e-08
2.24574e-08
2.24575e-08
2.24586e-08
2.24605e-08
2.24613e-08
5.49502e-09
5.4951e-09
5.49501e-09
5.49436e-09
5.49421e-09
5.4949e-09
3.80972e-09
3.8095e-09
3.80957e-09
3.80906e-09
3.80867e-09
3.8095e-09
1.85993e-09
1.85995e-09
1.85994e-09
1.85981e-09
1.85967e-09
1.85964e-09
2.61037e-10
2.61053e-10
2.61038e-10
2.6101e-10
2.60983e-10
2.60933e-10
2.13853e-11
2.1386e-11
2.13846e-11
2.13822e-11
2.13801e-11
2.13765e-11
-1.08057e-18
-1.08108e-18
-1.07913e-18
-1.07918e-18
-1.08126e-18
-1.08028e-18
-4.81279e-11
-4.81167e-11
-4.81185e-11
-4.81282e-11
-4.81337e-11
-4.81308e-11
-1.37718e-07
-1.3747e-07
-1.37414e-07
-1.3725e-07
-1.37109e-07
-1.37404e-07
0.0453249
0.0453052
0.0453118
0.0453114
0.0453079
0.0453164
0.718895
0.718848
0.718861
0.71886
0.718851
0.718877
0.967836
0.967838
0.96784
0.967835
0.967831
0.967848
5.51459e-07
5.51414e-07
5.51504e-07
5.51593e-07
5.51593e-07
5.51629e-07
2.89853e-06
2.89829e-06
2.89837e-06
2.89838e-06
2.89824e-06
2.89863e-06
4.99101e-08
4.99442e-08
4.99266e-08
4.99291e-08
4.99614e-08
4.99102e-08
9.77123e-08
9.76837e-08
9.76883e-08
9.76631e-08
9.76469e-08
9.77224e-08
1.0138e-07
1.01372e-07
1.01372e-07
1.01367e-07
1.01362e-07
1.01372e-07
7.15966e-09
7.16053e-09
7.15961e-09
7.15862e-09
7.15782e-09
7.15497e-09
1.26855e-12
1.26853e-12
1.26866e-12
1.26912e-12
1.26939e-12
1.2688e-12
1.10454e-12
1.1039e-12
1.10402e-12
1.10445e-12
1.10444e-12
1.10485e-12
-2.612e-06
-2.61202e-06
-2.612e-06
-2.612e-06
-2.61204e-06
-2.61229e-06
0.000112124
0.000112107
0.000112114
0.000112113
0.000112109
0.00011212
0.184854
0.184777
0.184796
0.184805
0.184794
0.184823
0.965449
0.965448
0.965451
0.965447
0.965442
0.96546
9.07109e-51
8.96807e-51
8.87654e-51
8.92562e-51
9.07426e-51
8.11549e-51
8.81243e-47
8.67249e-47
8.56113e-47
8.59708e-47
8.73356e-47
7.76884e-47
4.09977e-43
4.01752e-43
3.95616e-43
3.9679e-43
4.02887e-43
3.56671e-43
1.19307e-39
1.16476e-39
1.14447e-39
1.14659e-39
1.16394e-39
1.02639e-39
2.39457e-36
2.33053e-36
2.28575e-36
2.28778e-36
2.32258e-36
2.04232e-36
3.46972e-33
3.36868e-33
3.29934e-33
3.2998e-33
3.35155e-33
2.94242e-33
3.7302e-30
3.61509e-30
3.53772e-30
3.53715e-30
3.59655e-30
3.15702e-30
3.02123e-27
2.92493e-27
2.86239e-27
2.86341e-27
2.9177e-27
2.56547e-27
1.90804e-24
1.84687e-24
1.80915e-24
1.81271e-24
1.8534e-24
1.63664e-24
9.60901e-22
9.31362e-22
9.1366e-22
9.16994e-22
9.41041e-22
8.37618e-22
3.38979e-19
3.27215e-19
3.22687e-19
3.27344e-19
3.4115e-19
3.15826e-19
5.35114e-17
5.18471e-17
5.13572e-17
5.25669e-17
5.55978e-17
6.84012e-17
3.46929e-49
3.58887e-49
3.61993e-49
3.65236e-49
3.72945e-49
3.53565e-49
2.86878e-45
2.96416e-45
2.98334e-45
3.00363e-45
3.05985e-45
2.88732e-45
1.09552e-41
1.12967e-41
1.13318e-41
1.13724e-41
1.15456e-41
1.08167e-41
2.59386e-38
2.66503e-38
2.65898e-38
2.65522e-38
2.68167e-38
2.48342e-38
4.44424e-35
4.53632e-35
4.48744e-35
4.44679e-35
4.45633e-35
4.04968e-35
6.41496e-32
6.47871e-32
6.33301e-32
6.2116e-32
6.16383e-32
5.44981e-32
9.41113e-29
9.37664e-29
9.06142e-29
8.81008e-29
8.67795e-29
7.46374e-29
1.65315e-25
1.62959e-25
1.56765e-25
1.52239e-25
1.50177e-25
1.27758e-25
3.75924e-22
3.68271e-22
3.55727e-22
3.4841e-22
3.47942e-22
2.98692e-22
1.34928e-18
1.32246e-18
1.30122e-18
1.30449e-18
1.33863e-18
1.18378e-18
1.90756e-17
1.90569e-17
1.9049e-17
1.90482e-17
1.90528e-17
1.90367e-17
8.61645e-17
8.42118e-17
8.36079e-17
8.51231e-17
8.89062e-17
8.65701e-17
2.69786e-43
2.65662e-43
2.63947e-43
2.67828e-43
2.76494e-43
2.50567e-43
3.12578e-39
3.07719e-39
3.0567e-39
3.10089e-39
3.20262e-39
2.90205e-39
1.66522e-35
1.63882e-35
1.62756e-35
1.65069e-35
1.70574e-35
1.54553e-35
5.1654e-32
5.08169e-32
5.04572e-32
5.11628e-32
5.29035e-32
4.79307e-32
9.96383e-29
9.79788e-29
9.72671e-29
9.86105e-29
1.02049e-28
9.24492e-29
1.21593e-25
1.19498e-25
1.18617e-25
1.20254e-25
1.24587e-25
1.12875e-25
9.33233e-23
9.16698e-23
9.10086e-23
9.22996e-23
9.57879e-23
8.68187e-23
4.43539e-20
4.35699e-20
4.32835e-20
4.39367e-20
4.57032e-20
4.14531e-20
1.16327e-17
1.14578e-17
1.14022e-17
1.15673e-17
1.20055e-17
1.10116e-17
7.57791e-16
7.42543e-16
7.37193e-16
7.75786e-16
8.58991e-16
6.59169e-16
1.06795e-13
1.0428e-13
1.03251e-13
1.12126e-13
1.31085e-13
8.7974e-14
7.23558e-12
7.18257e-12
7.17783e-12
7.2402e-12
7.39227e-12
7.16071e-12
4.18554e-45
4.24047e-45
4.25102e-45
4.28522e-45
4.37436e-45
4.11354e-45
4.61896e-41
4.68293e-41
4.69688e-41
4.73674e-41
4.83664e-41
4.54557e-41
2.32584e-37
2.3603e-37
2.36894e-37
2.39047e-37
2.44174e-37
2.29289e-37
7.08959e-34
7.20507e-34
7.2389e-34
7.31112e-34
7.47131e-34
7.00799e-34
1.46741e-30
1.49448e-30
1.50384e-30
1.52082e-30
1.555e-30
1.45626e-30
2.21612e-27
2.26343e-27
2.28243e-27
2.31199e-27
2.36475e-27
2.20882e-27
2.85736e-24
2.9234e-24
2.95161e-24
2.99107e-24
3.05379e-24
2.83624e-24
8.28637e-21
8.4476e-21
8.50909e-21
8.60673e-21
8.76298e-21
8.07299e-21
4.65123e-18
4.67745e-18
4.63768e-18
4.60761e-18
4.58954e-18
4.19894e-18
3.96176e-13
3.94192e-13
3.92877e-13
3.91132e-13
3.9183e-13
3.87579e-13
1.0815e-10
1.07367e-10
1.07364e-10
1.07788e-10
1.09587e-10
1.06531e-10
1.1235e-08
1.10591e-08
1.10139e-08
1.13222e-08
1.20709e-08
1.04113e-08
1.96239e-07
1.96165e-07
1.96239e-07
1.96319e-07
1.96327e-07
1.96368e-07
-1.66046e-16
-1.82513e-16
-1.87522e-16
-1.83249e-16
-1.82134e-16
-1.86544e-16
-1.19183e-15
-1.30535e-15
-1.33989e-15
-1.3101e-15
-1.30236e-15
-1.33359e-15
3.06991e-06
3.06993e-06
3.06994e-06
3.06996e-06
3.06998e-06
3.06998e-06
8.73611e-07
8.72881e-07
8.73201e-07
8.73131e-07
8.72468e-07
8.73773e-07
-6.30628e-15
-6.90654e-15
-7.08976e-15
-6.93206e-15
-6.89106e-15
-7.05699e-15
6.71547e-07
6.71515e-07
6.71518e-07
6.7157e-07
6.71603e-07
6.71604e-07
8.97123e-09
8.95576e-09
8.96167e-09
8.96057e-09
8.94891e-09
8.97417e-09
-4.2844e-14
-4.69235e-14
-4.8167e-14
-4.70955e-14
-4.68178e-14
-4.79411e-14
5.75613e-08
5.74387e-08
5.74652e-08
5.73707e-08
5.73412e-08
5.76829e-08
4.21928e-19
4.22329e-19
4.2234e-19
4.23207e-19
4.23092e-19
4.21108e-19
-3.03384e-14
-3.32251e-14
-3.41044e-14
-3.3344e-14
-3.31472e-14
-3.39415e-14
1.0903e-07
1.0903e-07
1.09028e-07
1.09026e-07
1.09026e-07
1.09026e-07
1.50274e-08
1.49729e-08
1.49791e-08
1.49566e-08
1.49298e-08
1.49924e-08
-1.48455e-15
-1.6266e-15
-1.67064e-15
-1.6331e-15
-1.62296e-15
-1.6512e-15
3.55086e-08
3.54992e-08
3.54984e-08
3.54934e-08
3.54877e-08
3.54951e-08
9.26782e-22
9.27075e-22
9.27157e-22
9.27609e-22
9.27757e-22
9.27911e-22
-1.1775e-17
-1.2893e-17
-1.32402e-17
-1.29434e-17
-1.28621e-17
-1.30666e-17
4.20433e-12
4.20373e-12
4.20358e-12
4.20315e-12
4.20269e-12
4.20299e-12
-1.50215e-15
-1.50051e-15
-1.5006e-15
-1.50039e-15
-1.50042e-15
-1.50283e-15
-3.33666e-18
-3.29835e-18
-3.32309e-18
-3.34349e-18
-3.3295e-18
-3.42729e-18
-2.52251e-11
-2.52233e-11
-2.5226e-11
-2.52331e-11
-2.52355e-11
-2.5233e-11
-8.69872e-13
-8.69552e-13
-8.69867e-13
-8.70022e-13
-8.69893e-13
-8.6999e-13
-1.19056e-15
-1.18373e-15
-1.18849e-15
-1.1919e-15
-1.18874e-15
-1.20729e-15
-2.39706e-07
-2.3974e-07
-2.39716e-07
-2.39743e-07
-2.39817e-07
-2.39574e-07
-5.19288e-12
-5.07675e-12
-5.12797e-12
-4.95764e-12
-4.57232e-12
-4.5894e-12
-3.41772e-13
-3.40079e-13
-3.41019e-13
-3.41667e-13
-3.40517e-13
-3.45624e-13
7.38717e-06
7.3877e-06
7.38733e-06
7.38753e-06
7.38792e-06
7.38775e-06
-6.38756e-08
-6.39843e-08
-6.39392e-08
-6.38537e-08
-6.37973e-08
-6.39339e-08
-7.5499e-09
-7.55626e-09
-7.56196e-09
-7.54681e-09
-7.52483e-09
-7.6013e-09
0.000124229
0.00012421
0.000124217
0.000124218
0.000124218
0.000124219
9.03582e-06
9.03536e-06
9.03555e-06
9.03623e-06
9.03702e-06
9.03503e-06
3.66248e-07
3.66174e-07
3.66285e-07
3.66269e-07
3.65959e-07
3.66952e-07
0.658361
0.658331
0.658334
0.658311
0.658238
0.658408
0.0983093
0.098301
0.0983016
0.0982981
0.0983113
0.0982991
2.89847e-05
2.89935e-05
2.899e-05
2.89859e-05
2.89787e-05
2.90012e-05
5.17727e-06
5.1872e-06
5.18738e-06
5.19443e-06
5.18914e-06
5.19024e-06
3.06181e-08
3.09144e-08
3.07547e-08
3.13085e-08
3.2595e-08
2.86805e-08
1.896e-09
1.88185e-09
1.89111e-09
1.88409e-09
1.84419e-09
1.95997e-09
0.016752
0.0166907
0.0166763
0.0167367
0.0169881
0.0163577
0.0231723
0.0230276
0.023081
0.023024
0.0241651
0.0215913
0.0387372
0.0387824
0.0388006
0.0387631
0.0392116
0.0381501
0.102214
0.10213
0.102106
0.102287
0.102641
0.101919
0.30483
0.304939
0.304939
0.305086
0.305229
0.305229
0.0839294
0.0841821
0.0843716
0.0833234
0.0821742
0.085347
0.138495
0.138427
0.13844
0.139021
0.139448
0.138458
0.30403
0.304127
0.304243
0.304219
0.304264
0.304512
4.44523e-20
4.55365e-20
4.55365e-20
4.55359e-20
4.6618e-20
4.66124e-20
0.598485
0.598427
0.598392
0.598787
0.5996
0.597845
0.285804
0.285942
0.28593
0.28567
0.28513
0.286427
2.44596e-18
2.44596e-18
-2.34301e-16
-3.30336e-15
-1.09608e-16
1.46674e-18
0.656456
0.656438
0.656432
0.656418
0.65641
0.6565
0.19691
0.196902
0.196868
0.196997
0.197309
0.196442
0.000100663
0.000100775
0.000100742
0.000100796
0.000100891
0.000100569
1.65782e-37
1.65096e-37
1.65068e-37
1.65918e-37
1.68783e-37
1.62286e-37
1.40208e-40
1.39613e-40
1.39586e-40
1.40324e-40
1.42797e-40
1.37134e-40
7.03898e-39
7.04975e-39
7.03614e-39
7.07479e-39
7.22152e-39
6.88526e-39
2.69372e-33
2.68305e-33
2.68288e-33
2.69647e-33
2.74234e-33
2.64018e-33
2.23021e-36
2.22101e-36
2.22065e-36
2.23213e-36
2.27093e-36
2.18296e-36
1.8335e-34
1.83636e-34
1.83285e-34
1.84295e-34
1.88119e-34
1.79357e-34
1.87116e-29
1.86402e-29
1.86411e-29
1.87335e-29
1.90455e-29
1.83656e-29
1.56312e-32
1.55682e-32
1.55663e-32
1.56448e-32
1.59125e-32
1.53144e-32
1.58017e-30
1.5827e-30
1.57973e-30
1.58852e-30
1.62153e-30
1.54607e-30
6.81728e-26
6.79265e-26
6.79403e-26
6.827e-26
6.9377e-26
6.70335e-26
6.09636e-29
6.07265e-29
6.07236e-29
6.10241e-29
6.20508e-29
5.98e-29
5.24258e-27
5.25126e-27
5.24166e-27
5.27123e-27
5.38087e-27
5.13073e-27
1.34862e-22
1.3441e-22
1.34461e-22
1.35091e-22
1.37197e-22
1.32882e-22
1.41099e-25
1.40588e-25
1.40593e-25
1.41275e-25
1.43612e-25
1.38586e-25
6.74043e-24
6.75181e-24
6.73964e-24
6.77798e-24
6.91876e-24
6.59755e-24
1.42459e-19
1.4202e-19
1.42095e-19
1.42718e-19
1.44674e-19
1.40669e-19
1.97205e-22
1.96539e-22
1.96544e-22
1.9746e-22
2.00664e-22
1.93832e-22
3.21197e-21
3.21737e-21
3.21154e-21
3.2299e-21
3.29668e-21
3.14421e-21
2.70966e-17
2.70182e-17
2.70274e-17
2.71439e-17
2.75398e-17
2.67328e-17
1.49258e-19
1.48708e-19
1.48696e-19
1.49345e-19
1.51561e-19
1.46694e-19
5.30338e-19
5.31182e-19
5.30208e-19
5.33188e-19
5.44088e-19
5.19304e-19
1.80862e-17
1.80858e-17
1.80857e-17
1.80862e-17
1.80892e-17
1.80794e-17
4.61483e-17
4.59709e-17
4.59733e-17
4.61439e-17
4.68427e-17
4.53453e-17
2.45939e-17
2.462e-17
2.45851e-17
2.47025e-17
2.51864e-17
2.41837e-17
2.03142e-17
2.0341e-17
2.03012e-17
2.0271e-17
2.02521e-17
1.98613e-17
1.87575e-14
1.86622e-14
1.86682e-14
1.87716e-14
1.91815e-14
1.82932e-14
9.11951e-17
9.09876e-17
9.09852e-17
9.14327e-17
9.31326e-17
8.94253e-17
1.67591e-12
1.67418e-12
1.66681e-12
1.64411e-12
1.61282e-12
1.66581e-12
1.19002e-11
1.18362e-11
1.18392e-11
1.18883e-11
1.21842e-11
1.15115e-11
9.63694e-14
9.53459e-14
9.6314e-14
9.45555e-14
9.46955e-14
1.08121e-13
3.59322e-10
3.56747e-10
3.5692e-10
3.57796e-10
3.62361e-10
3.5551e-10
1.82277e-11
1.79935e-11
1.81609e-11
1.78336e-11
1.75832e-11
2.06962e-11
1.33168e-11
1.29775e-11
1.32847e-11
1.2578e-11
1.17306e-11
1.85465e-11
1.49446e-08
1.46982e-08
1.46278e-08
1.50936e-08
1.62109e-08
1.36001e-08
6.89549e-07
6.85065e-07
6.8544e-07
6.87445e-07
6.98028e-07
6.79186e-07
8.633e-10
8.53749e-10
8.60661e-10
8.51084e-10
8.20734e-10
9.11806e-10
)
;

boundaryField
{
    seabed_topleft_surface
    {
        type            zeroGradient;
    }
    seabed_topright_surface
    {
        type            zeroGradient;
    }
    breakwater_top_surface
    {
        type            zeroGradient;
    }
    breakwater_left_surface
    {
        type            zeroGradient;
    }
    breakwater_right_surface
    {
        type            zeroGradient;
    }
    water_front_surface
    {
        type            zeroGradient;
    }
    water_back_surface
    {
        type            zeroGradient;
    }
    water_left_surface
    {
        type            zeroGradient;
    }
    water_right_surface
    {
        type            zeroGradient;
    }
    water_top_surface
    {
        type            inletOutlet;
        inletValue      uniform 0;
        value           nonuniform List<scalar> 
180
(
0
0
0
0
0
0
0
0
0
0
0
0
0
0
0
0
0
0
0
0
0
0
0
0
0
0
0
0
0
0
0
0
0
0
0
0
0
0
0
0
0
0
0
0
0
0
0
0
0
0
0
0
0
0
-7.5499e-09
-7.55626e-09
-7.56196e-09
-7.54681e-09
-7.52483e-09
-7.6013e-09
3.66248e-07
3.66174e-07
3.66285e-07
3.66269e-07
3.65959e-07
3.66952e-07
2.89847e-05
2.89935e-05
2.899e-05
2.89859e-05
2.89787e-05
2.90012e-05
1.896e-09
1.88185e-09
1.89111e-09
1.88409e-09
1.84419e-09
1.95997e-09
0.0387372
0.0387824
0.0388006
0.0387631
0.0392116
0.0381501
0.0839294
0.0841821
0.0843716
0.0833234
0.0821742
0.085347
0
0
0
0
0
0
0
0
0
0
0
0
0.000100663
0.000100775
0.000100742
0.000100796
0.000100891
0.000100569
7.03898e-39
7.04975e-39
7.03614e-39
7.07479e-39
7.22152e-39
6.88526e-39
1.8335e-34
1.83636e-34
1.83285e-34
1.84295e-34
1.88119e-34
1.79357e-34
1.58017e-30
1.5827e-30
1.57973e-30
1.58852e-30
1.62153e-30
1.54607e-30
5.24258e-27
5.25126e-27
5.24166e-27
5.27123e-27
5.38087e-27
5.13073e-27
6.74043e-24
6.75181e-24
6.73964e-24
6.77798e-24
6.91876e-24
6.59755e-24
3.21197e-21
3.21737e-21
3.21154e-21
3.2299e-21
3.29668e-21
3.14421e-21
5.30338e-19
5.31182e-19
5.30208e-19
5.33188e-19
5.44088e-19
5.19304e-19
2.45939e-17
2.462e-17
2.45851e-17
2.47025e-17
2.51864e-17
2.41837e-17
9.11951e-17
9.09876e-17
9.09852e-17
9.14327e-17
9.31326e-17
8.94253e-17
9.63694e-14
9.53459e-14
9.6314e-14
9.45555e-14
9.46955e-14
1.08121e-13
1.33168e-11
1.29775e-11
1.32847e-11
1.2578e-11
1.17306e-11
1.85465e-11
0
0
0
0
0
0
)
;
    }
}


// ************************************************************************* //
