/*--------------------------------*- C++ -*----------------------------------*\
| =========                 |                                                 |
| \\      /  F ield         | OpenFOAM: The Open Source CFD Toolbox           |
|  \\    /   O peration     | Version:  v1612+                                |
|   \\  /    A nd           | Web:      www.OpenFOAM.com                      |
|    \\/     M anipulation  |                                                 |
\*---------------------------------------------------------------------------*/
FoamFile
{
    version     2.0;
    format      ascii;
    class       volScalarField;
    location    "5.05";
    object      p;
}
// * * * * * * * * * * * * * * * * * * * * * * * * * * * * * * * * * * * * * //

dimensions      [1 -1 -2 0 0 0 0];

internalField   nonuniform List<scalar> 
1116
(
1857.52
1857.51
1857.51
1857.51
1857.51
1857.53
1909.22
1909.2
1909.19
1909.19
1909.2
1909.21
2474.67
2474.65
2474.65
2474.66
2474.66
2474.66
4281.07
4280.99
4281.02
4281.01
4281
4281.03
8368.81
8368.81
8368.79
8368.79
8368.79
8368.8
13585
13585.2
13585.1
13585.2
13585.2
13585.2
16486.7
16487.1
16487.1
16487.2
16487.3
16487.1
17216.2
17217.1
17217.3
17217.4
17217.2
17216.5
16969.4
16969.6
16969.6
16969.6
16969.6
16969.4
17175.5
17175.2
17175.3
17175.3
17175.2
17175.3
17157.8
17157.2
17157.4
17157.4
17157.3
17157.6
16429.3
16429.2
16429.2
16429.2
16429.1
16429.3
46.2649
46.2637
46.2635
46.2633
46.2631
46.2635
57.8027
57.7955
57.795
57.7947
57.7944
57.7972
108.944
108.901
108.917
108.921
108.913
108.932
428.966
428.643
428.785
428.804
428.707
428.875
2115.34
2114.97
2115.08
2115.16
2115.02
2115.21
5463.77
5463.56
5463.7
5463.88
5463.81
5463.87
7029.85
7030.21
7030.12
7030.53
7030.81
7030.46
7303.59
7303.24
7303.05
7303.16
7303.29
7303.86
7065.44
7064.7
7064.98
7065.1
7064.93
7065.26
6181.91
6181.59
6181.66
6181.78
6181.69
6181.72
5486.77
5486.34
5486.38
5486.5
5486.45
5486.32
5557.95
5557.55
5557.69
5557.63
5557.22
5557.93
53.8168
53.8196
53.8197
53.8202
53.8204
53.8199
57.0095
57.0194
57.0176
57.0197
57.0216
57.0157
53.0847
53.1127
53.102
53.1025
53.1113
53.0971
87.1794
87.1382
87.1572
87.1629
87.157
87.1794
219.236
218.737
218.97
219.009
218.884
219.137
2231.16
2232.5
2231.88
2232.1
2232.68
2231.57
3140.4
3143.66
3141.57
3143.06
3145.04
3141.61
2537.85
2539.04
2538.49
2538.53
2538.99
2538.13
1329.15
1329.6
1329.4
1329.43
1329.57
1329.18
505.514
505.361
505.403
505.415
505.355
505.47
588.649
588.3
588.443
588.471
588.441
588.462
515.492
515.238
515.288
515.482
515.176
515.247
28.3131
28.3146
28.3147
28.3151
28.3152
28.3149
32.4701
32.4749
32.4735
32.4752
32.4763
32.4749
22.6114
22.6205
22.6174
22.6192
22.6234
22.618
-5.16598
-5.15363
-5.15304
-5.15321
-5.15054
-5.15909
-49.2178
-49.2897
-49.2641
-49.2285
-49.2194
-49.1962
-5.56459
-5.40443
-5.50445
-5.28287
-5.11656
-5.38463
-89.8711
-89.8143
-89.8252
-89.7978
-89.7661
-89.8217
-92.628
-92.647
-92.6475
-92.6722
-92.6878
-92.6792
-41.9203
-41.9248
-41.9279
-41.9285
-41.9261
-41.9449
-31.2222
-31.2339
-31.2262
-31.231
-31.2332
-31.2165
71.9571
71.9756
71.9768
71.963
71.9356
71.9736
107.703
107.694
107.707
107.709
107.69
107.64
253.774
256.187
254.378
257.48
262.493
253.393
252.904
255.593
252.915
256.948
260.403
247.898
266.104
270.498
263.535
276.31
269.191
245.87
199.333
200.662
196.745
201.648
199.748
198.916
236.997
240.454
242.715
250.164
252.302
255.176
220.984
219.223
225.428
236.749
244.75
261.656
311.635
307.827
304.284
299.768
321.804
321.016
1259.99
1238.85
1208.6
1187.58
1251.78
1235.75
2946.09
2929.28
2832.45
2885.49
2841.51
2708.04
2553.24
2547.62
2534.14
2530.44
2283.13
2543.88
1371.23
1375.9
1389.29
1360.2
1268.13
1427.68
1360.33
1359.04
1362.08
1341.36
1332.76
1332.66
167.611
168.534
167.87
168.307
168.796
165.326
83.3414
82.1261
83.0464
81.2412
70.3559
81.2676
-158.325
-162.082
-155.87
-157.221
-164.55
-131.822
-186.558
-186.073
-186.16
-185.366
-184.074
-181.856
-122.357
-122.125
-123.102
-123.846
-125.057
-126.637
-76.3065
-76.5823
-77.1119
-77.4218
-79.8312
-78.4474
-30.2762
-31.5847
-33.1338
-34.6996
-38.1505
-34.1078
43.5381
42.1503
39.0407
33.3355
25.5634
35.9711
325.949
325.445
325.216
300.654
276.669
338.952
632.36
631.981
690.782
586.947
440.334
751.83
632.821
635.092
637.901
573.156
495.645
655.215
1073.59
1072.06
1034.24
1012.81
971.453
1018.59
46.7108
46.6898
46.7366
46.2189
45.597
46.9264
-35.9583
-37.2216
-36.0158
-37.808
-41.0214
-35.7748
-153.491
-153.511
-152.727
-152.082
-149.905
-149.247
-141.722
-141.779
-141.576
-141.1
-139.241
-138.476
-106.617
-106.484
-106.852
-106.257
-104.808
-107.826
-64.1734
-64.1561
-64.3522
-64.1311
-63.7212
-65.2961
-40.6493
-40.6141
-40.619
-40.4439
-41.1237
-41.3769
-29.9165
-29.5818
-29.2405
-28.6403
-28.4528
-29.3997
-11.2385
-11.4142
-10.7335
-11.403
-13.1215
-9.87209
113.441
115.486
131.064
80.6866
34.7251
122.727
666.258
664.524
626.782
571.19
629.357
571.479
966.14
980.823
749.507
844.561
858.297
834.696
-17.2442
-17.3256
-17.2709
-17.5027
-17.7203
-17.2692
-66.0354
-66.559
-66.2111
-66.5121
-66.9973
-65.886
-129.078
-129.634
-129.328
-129.553
-129.7
-128.318
-153.04
-153.153
-153.269
-152.597
-151.986
-154.058
-109.157
-109.119
-109.429
-109.176
-109.317
-110.909
-67.2742
-67.3336
-67.4782
-67.4584
-67.3221
-68.0578
-46.9889
-46.9811
-46.9741
-46.8048
-46.6693
-47.167
-40.7552
-40.6514
-40.5143
-40.0668
-39.621
-40.4065
-37.6741
-37.6114
-37.5767
-37.1712
-37.0883
-37.2873
-26.038
-26.3213
-27.0102
-26.9943
-28.5138
-26.5875
51.3869
55.6817
62.6309
26.4165
1.38341
67.3421
-541.16
-512.063
-486.774
-292.63
338.707
-296.609
-0.0735189
-0.0727117
-0.0726801
-0.0725796
-0.0727172
-0.0729793
-31.5083
-31.5079
-31.5079
-31.508
-31.5083
-31.5086
-58.5031
-58.5029
-58.5029
-58.5031
-58.5035
-58.5038
-4.28198
-4.27994
-4.28106
-4.27933
-4.27781
-4.27785
-35.9099
-35.9086
-35.9089
-35.9085
-35.9081
-35.9084
-59.9737
-59.9735
-59.9735
-59.9736
-59.9737
-59.974
-19.1627
-19.1652
-19.1669
-19.1597
-19.1552
-19.1518
-48.1803
-48.1793
-48.1815
-48.1808
-48.1795
-48.1794
-63.4361
-63.4361
-63.4367
-63.4369
-63.4369
-63.437
-98.4171
-98.3992
-98.4001
-98.4183
-98.4175
-98.43
-87.2724
-87.2746
-87.2755
-87.2777
-87.2788
-87.2792
-71.6912
-71.6907
-71.6916
-71.6926
-71.6921
-71.6931
-123.999
-124.013
-124.003
-124.004
-124.006
-123.998
-99.0385
-99.0511
-99.0455
-99.0475
-99.0509
-99.0436
-76.9111
-76.9133
-76.9124
-76.9131
-76.9137
-76.9128
-109.47
-109.455
-109.451
-109.436
-109.427
-109.441
-99.6265
-99.6421
-99.6334
-99.637
-99.6428
-99.6301
-76.2113
-76.2127
-76.2119
-76.212
-76.2125
-76.2121
-105.471
-105.47
-105.469
-105.475
-105.48
-105.475
-100.168
-100.166
-100.166
-100.169
-100.172
-100.172
-71.8519
-71.8506
-71.8515
-71.8522
-71.8519
-71.8539
-70.2516
-70.2535
-70.2605
-70.2657
-70.2706
-70.2651
-73.4708
-73.4699
-73.4721
-73.4746
-73.4773
-73.4701
-65.78
-65.7774
-65.779
-65.7802
-65.7798
-65.7823
-38.4389
-38.4475
-38.4504
-38.4499
-38.4553
-38.4448
-39.6246
-39.6219
-39.6246
-39.6269
-39.6316
-39.6202
-63.5616
-63.5602
-63.5615
-63.5624
-63.5627
-63.5617
-39.3231
-39.362
-39.3521
-39.3418
-39.3415
-39.3521
-21.1866
-21.1795
-21.1853
-21.1888
-21.2002
-21.1759
-66.2591
-66.2606
-66.2618
-66.2628
-66.2659
-66.2584
-3.45217
-3.4607
-3.45208
-3.46276
-3.47433
-3.44769
-39.1038
-39.1238
-39.1287
-39.1167
-39.1132
-39.1232
-60.4519
-60.4539
-60.4552
-60.4561
-60.4584
-60.4528
121.381
121.626
121.619
121.381
121.239
121.775
-70.3551
-70.3541
-70.3528
-70.3467
-70.3314
-70.3683
-83.2174
-83.2176
-83.2163
-83.2137
-83.2137
-83.2205
1084.66
1084.87
1085.24
1085.7
1087.18
1085.95
-51.0599
-51.0671
-51.074
-51.0498
-51.0665
-51.0188
-70.8355
-70.8161
-70.7787
-70.7311
-70.6383
-70.654
1100.32
1100.56
1100.68
1100.5
1100.56
1101.79
-52.8705
-52.8695
-52.8637
-52.8556
-52.8576
-52.744
-69.9145
-69.8987
-69.8869
-69.8869
-69.8663
-69.844
1064.44
1064.14
1064.35
1063.51
1062.9
1065.51
-52.3571
-52.3616
-52.3589
-52.3622
-52.3722
-52.3615
-69.875
-69.8699
-69.863
-69.8549
-69.8355
-69.853
866.182
865.718
865.874
865.226
864.551
867.063
-51.9035
-51.9027
-51.8977
-51.9111
-51.914
-51.8511
-70.7543
-70.7495
-70.749
-70.7316
-70.7109
-70.7581
854.841
854.408
854.611
853.812
853.374
855.87
-54.8711
-54.8709
-54.8644
-54.8662
-54.869
-54.8634
-73.5993
-73.5963
-73.5964
-73.5888
-73.5767
-73.6034
725.608
725.596
726.003
724.484
723.221
727.328
-48.6126
-48.6105
-48.6105
-48.6106
-48.6053
-48.6066
-77.4049
-77.4045
-77.4047
-77.4024
-77.3967
-77.4086
-36.6046
-36.614
-36.6284
-36.6544
-36.6722
-36.7468
-47.5426
-47.5375
-47.5522
-47.5645
-47.5461
-47.6454
-61.0821
-61.0808
-61.0847
-61.0917
-61.0855
-61.1119
-54.0971
-54.3415
-54.2267
-54.3665
-54.6456
-54.1093
-50.021
-50.0879
-50.0586
-50.1346
-50.2589
-50.0647
-60.0319
-60.0358
-60.0364
-60.0514
-60.0655
-60.0588
-81.4637
-81.7815
-81.6545
-81.8662
-82.1683
-81.4974
-60.9109
-60.9977
-60.9565
-61.0458
-61.1188
-60.9729
-62.2264
-62.2363
-62.2293
-62.2543
-62.2531
-62.2442
-86.5923
-86.6851
-86.8361
-86.8322
-87.1801
-87.9387
-67.7571
-67.8332
-67.8377
-67.9562
-68.0235
-67.9607
-64.4139
-64.4258
-64.4249
-64.4487
-64.4522
-64.4469
-78.3187
-78.3777
-78.4439
-78.5025
-78.6117
-78.9115
-67.9156
-67.9586
-67.9737
-68.047
-68.0895
-68.0861
-64.9905
-64.9916
-64.9932
-64.9964
-64.9978
-65.0141
-63.9084
-63.9383
-63.9485
-63.9783
-63.9379
-64.1596
-63.7281
-63.7408
-63.7518
-63.777
-63.7889
-63.8192
-65.3046
-65.3052
-65.3057
-65.3059
-65.3028
-65.3174
-53.8368
-53.8318
-53.8008
-53.7831
-53.7169
-53.8282
-59.8336
-59.832
-59.8292
-59.8281
-59.8209
-59.8414
-65.4677
-65.4664
-65.4632
-65.4599
-65.4534
-65.461
-49.4717
-49.4303
-49.3421
-49.2271
-49.0639
-49.2185
-58.1558
-58.1414
-58.1151
-58.0825
-58.0422
-58.0682
-65.8216
-65.8157
-65.805
-65.7926
-65.78
-65.7817
-44.7678
-44.7869
-44.7594
-44.6983
-44.2818
-44.7832
-56.9342
-56.9193
-56.8853
-56.8539
-56.8063
-56.8159
-65.3212
-65.3194
-65.3135
-65.3023
-65.2823
-65.3007
-44.4497
-44.4258
-44.3653
-44.1206
-43.2234
-44.4137
-57.0219
-57.0074
-56.9754
-57.0124
-56.9948
-56.9785
-66.4149
-66.4011
-66.3761
-66.3367
-66.2772
-66.3247
-45.7656
-45.4115
-45.8428
-42.9542
-37.198
-46.1149
-56.3859
-56.3257
-56.2319
-56.1744
-55.9017
-56.0977
-67.3085
-67.2739
-67.2162
-67.0586
-66.7763
-67.042
498.441
498.639
497.757
535.292
563.01
523.376
-54.5841
-54.5634
-54.5394
-54.6897
-54.6525
-54.426
-76.023
-75.9633
-75.8955
-75.8477
-75.7479
-75.5102
)
;

boundaryField
{
    seabed_topleft_surface
    {
        type            calculated;
        value           nonuniform List<scalar> 
72
(
3645.79
3645.75
3645.74
3645.75
3645.76
3645.79
3750.71
3750.67
3750.66
3750.66
3750.67
3750.7
4538.64
4538.61
4538.61
4538.62
4538.63
4538.65
6824.43
6824.33
6824.37
6824.36
6824.36
6824.41
12191.8
12191.8
12191.8
12191.8
12191.8
12191.8
18382.5
18382.7
18382.7
18382.7
18382.7
18382.7
21284.3
21284.6
21284.6
21284.7
21284.8
21284.6
22013
22013.9
22014.1
22014.2
22014.1
22013.3
21766.4
21766.6
21766.6
21766.6
21766.6
21766.4
21971.9
21971.6
21971.7
21971.7
21971.6
21971.7
21950.6
21950.1
21950.2
21950.2
21950.1
21950.4
21215.7
21215.7
21215.7
21215.7
21215.6
21215.8
)
;
    }
    seabed_topright_surface
    {
        type            calculated;
        value           nonuniform List<scalar> 
72
(
258.893
261.353
259.468
262.661
267.632
258.43
258.24
261.032
258.172
262.413
266.866
253.037
319.086
331.011
301.809
342.584
413.452
268.294
445.264
452.965
429.542
452.74
476.169
362.466
500.409
506.778
512.838
525.512
531.054
543.387
477.725
468.878
483.746
498.877
510.025
569.735
619.643
616.059
610.453
605.904
638.951
639.577
1598.42
1585
1562.98
1548.08
1600.3
1579.51
3298.37
3287.69
3200.02
3259.11
3209.08
3065.75
2909.19
2903.66
2824.94
2910.29
2656.75
2830.28
1545.32
1555.09
1567.15
1538.59
1499.81
1660.18
1372.5
1371.1
1380.26
1352.86
1346.88
1357.5
)
;
    }
    breakwater_top_surface
    {
        type            calculated;
        value           nonuniform List<scalar> 
36
(
2236.9
2237.15
2237.65
2238.19
2239.72
2238.52
2253.86
2254.18
2254.39
2254.25
2254.31
2255.54
2182.66
2182.06
2182.51
2180.7
2179.33
2185.03
1779.98
1779.03
1779.39
1777.94
1776.46
1781.93
1767.82
1766.92
1767.36
1765.64
1764.75
1770.01
1527.22
1527.2
1528.08
1524.9
1522.23
1530.88
)
;
    }
    breakwater_left_surface
    {
        type            calculated;
        value           nonuniform List<scalar> 
24
(
16445.7
16445.6
16445.6
16445.6
16445.5
16445.7
5571.65
5571.25
5571.39
5571.33
5570.91
5571.63
517.287
517.033
517.082
517.276
516.969
517.042
107.722
107.713
107.726
107.728
107.709
107.66
)
;
    }
    breakwater_right_surface
    {
        type            calculated;
        value           nonuniform List<scalar> 
24
(
1360.37
1359.08
1362.14
1341.39
1332.81
1332.75
1073.63
1072.1
1034.28
1012.85
971.489
1018.63
967.469
982.276
751.466
845.287
858.332
836.388
-538.611
-509.511
-484.219
-290.075
341.253
-294.068
)
;
    }
    water_front_surface
    {
        type            calculated;
        value           nonuniform List<scalar> 
186
(
1857.52
1909.22
2474.67
4281.07
8368.81
13585
16486.7
17216.2
16969.4
17175.5
17157.8
16429.3
46.2649
57.8027
108.944
428.966
2115.34
5463.77
7029.85
7303.59
7065.44
6181.91
5486.77
5557.95
53.8168
57.0095
53.0847
87.1794
219.236
2231.16
3140.4
2537.85
1329.15
505.514
588.649
515.492
28.3131
32.4701
22.6114
-5.16598
-49.2178
-5.56459
-89.8711
-92.628
-41.9203
-31.2222
71.9571
107.703
253.774
252.904
266.104
199.333
236.997
220.984
311.635
1259.99
2946.09
2553.24
1371.23
1360.33
167.611
83.3414
-158.325
-186.558
-122.357
-76.3065
-30.2762
43.5381
325.949
632.36
632.821
1073.59
46.7108
-35.9583
-153.491
-141.722
-106.617
-64.1734
-40.6493
-29.9165
-11.2385
113.441
666.258
966.14
-17.2442
-66.0354
-129.078
-153.04
-109.157
-67.2742
-46.9889
-40.7552
-37.6741
-26.038
51.3869
-541.16
-0.0735189
-31.5083
-58.5031
-4.28198
-35.9099
-59.9737
-19.1627
-48.1803
-63.4361
-98.4171
-87.2724
-71.6912
-123.999
-99.0385
-76.9111
-109.47
-99.6265
-76.2113
-105.471
-100.168
-71.8519
-70.2516
-73.4708
-65.78
-38.4389
-39.6246
-63.5616
-39.3231
-21.1866
-66.2591
-3.45217
-39.1038
-60.4519
121.381
-70.3551
-83.2174
1084.66
-51.0599
-70.8355
1100.32
-52.8705
-69.9145
1064.44
-52.3571
-69.875
866.182
-51.9035
-70.7543
854.841
-54.8711
-73.5993
725.608
-48.6126
-77.4049
-36.6046
-47.5426
-61.0821
-54.0971
-50.021
-60.0319
-81.4637
-60.9109
-62.2264
-86.5923
-67.7571
-64.4139
-78.3187
-67.9156
-64.9905
-63.9084
-63.7281
-65.3046
-53.8368
-59.8336
-65.4677
-49.4717
-58.1558
-65.8216
-44.7678
-56.9342
-65.3212
-44.4497
-57.0219
-66.4149
-45.7656
-56.3859
-67.3085
498.441
-54.5841
-76.023
)
;
    }
    water_back_surface
    {
        type            calculated;
        value           nonuniform List<scalar> 
186
(
1857.53
1909.21
2474.66
4281.03
8368.8
13585.2
16487.1
17216.5
16969.4
17175.3
17157.6
16429.3
46.2635
57.7972
108.932
428.875
2115.21
5463.87
7030.46
7303.86
7065.26
6181.72
5486.32
5557.93
53.8199
57.0157
53.0971
87.1794
219.137
2231.57
3141.61
2538.13
1329.18
505.47
588.462
515.247
28.3149
32.4749
22.618
-5.15909
-49.1962
-5.38463
-89.8217
-92.6792
-41.9449
-31.2165
71.9736
107.64
253.393
247.898
245.87
198.916
255.176
261.656
321.016
1235.75
2708.04
2543.88
1427.68
1332.66
165.326
81.2676
-131.822
-181.856
-126.637
-78.4474
-34.1078
35.9711
338.952
751.83
655.215
1018.59
46.9264
-35.7748
-149.247
-138.476
-107.826
-65.2961
-41.3769
-29.3997
-9.87209
122.727
571.479
834.696
-17.2692
-65.886
-128.318
-154.058
-110.909
-68.0578
-47.167
-40.4065
-37.2873
-26.5875
67.3421
-296.609
-0.0729793
-31.5086
-58.5038
-4.27785
-35.9084
-59.974
-19.1518
-48.1794
-63.437
-98.43
-87.2792
-71.6931
-123.998
-99.0436
-76.9128
-109.441
-99.6301
-76.2121
-105.475
-100.172
-71.8539
-70.2651
-73.4701
-65.7823
-38.4448
-39.6202
-63.5617
-39.3521
-21.1759
-66.2584
-3.44769
-39.1232
-60.4528
121.775
-70.3683
-83.2205
1085.95
-51.0188
-70.654
1101.79
-52.744
-69.844
1065.51
-52.3615
-69.853
867.063
-51.8511
-70.7581
855.87
-54.8634
-73.6034
727.328
-48.6066
-77.4086
-36.7468
-47.6454
-61.1119
-54.1093
-50.0647
-60.0588
-81.4974
-60.9729
-62.2442
-87.9387
-67.9607
-64.4469
-78.9115
-68.0861
-65.0141
-64.1596
-63.8192
-65.3174
-53.8282
-59.8414
-65.461
-49.2185
-58.0682
-65.7817
-44.7832
-56.8159
-65.3007
-44.4137
-56.9785
-66.3247
-46.1149
-56.0977
-67.042
523.376
-54.426
-75.5102
)
;
    }
    water_left_surface
    {
        type            calculated;
        value           nonuniform List<scalar> 
42
(
1863.65
1863.63
1863.63
1863.63
1863.64
1863.65
46.2814
46.2803
46.28
46.2798
46.2796
46.28
53.833
53.8358
53.8359
53.8364
53.8366
53.8361
28.3289
28.3305
28.3306
28.331
28.331
28.3308
-0.0735189
-0.0727117
-0.0726801
-0.0725796
-0.0727172
-0.0729793
-31.5083
-31.5079
-31.5079
-31.508
-31.5083
-31.5086
-58.5031
-58.5029
-58.5029
-58.5031
-58.5035
-58.5038
)
;
    }
    water_right_surface
    {
        type            calculated;
        value           nonuniform List<scalar> 
42
(
253.792
256.205
254.396
257.498
262.511
253.41
167.628
168.551
167.887
168.324
168.814
165.343
46.7271
46.7061
46.7529
46.2353
45.6136
46.9426
-17.2284
-17.3098
-17.255
-17.4868
-17.7044
-17.2533
-36.6046
-36.614
-36.6284
-36.6544
-36.6722
-36.7468
-47.5426
-47.5375
-47.5522
-47.5645
-47.5461
-47.6454
-61.0821
-61.0808
-61.0847
-61.0917
-61.0855
-61.1119
)
;
    }
    water_top_surface
    {
        type            calculated;
        value           nonuniform List<scalar> 
180
(
-68.67
-68.67
-68.67
-68.67
-68.67
-68.67
-68.67
-68.67
-68.67
-68.67
-68.67
-68.67
-68.6701
-68.6701
-68.6701
-68.6701
-68.6701
-68.6701
-68.6722
-68.6722
-68.6722
-68.6722
-68.6722
-68.6722
-68.7483
-68.7482
-68.7482
-68.7483
-68.7483
-68.7483
-68.8951
-68.8951
-68.8951
-68.8951
-68.8952
-68.8952
-68.8895
-68.8841
-68.8865
-68.8876
-68.8855
-68.8891
-75.3945
-75.3747
-75.3843
-75.3877
-75.3812
-75.3967
-75.7912
-75.7852
-75.7878
-75.7885
-75.7881
-75.7888
-70.7776
-70.7758
-70.7766
-70.7776
-70.7789
-70.7757
-69.0488
-69.0482
-69.0488
-69.0492
-69.0495
-69.0491
-71.835
-71.8369
-71.8352
-71.8347
-71.8361
-71.8341
-70.5906
-70.6055
-70.5904
-70.5593
-70.5944
-70.5329
-70.7799
-70.8094
-70.8095
-70.7129
-70.6961
-70.9014
-70.7743
-70.7748
-70.7709
-70.7816
-70.8178
-70.7133
-71.5945
-71.5999
-71.5788
-71.6308
-71.6863
-71.5116
-72.3398
-72.3497
-72.328
-72.372
-72.4237
-72.2776
-70.1636
-70.1688
-70.1618
-70.1715
-70.189
-70.1448
-68.6701
-68.6701
-68.6701
-68.6701
-68.67
-68.67
-68.6701
-68.6701
-68.6701
-68.6701
-68.6701
-68.67
-68.67
-68.67
-68.67
-68.67
-68.67
-68.67
-68.67
-68.67
-68.67
-68.67
-68.67
-68.67
-68.67
-68.67
-68.67
-68.67
-68.67
-68.67
-68.986
-68.9863
-68.9862
-68.9864
-68.9853
-68.9881
-69.5613
-69.5604
-69.5586
-69.5567
-69.5538
-69.5562
-70.8293
-70.8241
-70.8171
-70.808
-70.7991
-70.7962
-70.4469
-70.443
-70.4344
-70.4188
-70.3993
-70.4169
-72.7432
-72.7297
-72.6957
-72.7009
-72.6775
-72.6282
-73.3653
-73.341
-73.2558
-73.2544
-73.2128
-73.0978
-71.0693
-71.0654
-71.055
-71.0364
-70.9657
-70.9982
)
;
    }
}


// ************************************************************************* //
