/*--------------------------------*- C++ -*----------------------------------*\
| =========                 |                                                 |
| \\      /  F ield         | OpenFOAM: The Open Source CFD Toolbox           |
|  \\    /   O peration     | Version:  v1612+                                |
|   \\  /    A nd           | Web:      www.OpenFOAM.com                      |
|    \\/     M anipulation  |                                                 |
\*---------------------------------------------------------------------------*/
FoamFile
{
    version     2.0;
    format      ascii;
    class       volScalarField;
    location    "3.2";
    object      p;
}
// * * * * * * * * * * * * * * * * * * * * * * * * * * * * * * * * * * * * * //

dimensions      [1 -1 -2 0 0 0 0];

internalField   nonuniform List<scalar> 
320
(
14724.8
14724.8
14724.8
14724.8
4.94463
4.94459
4.94501
4.94532
4.94484
4.94483
4.94477
4.94502
4.94652
4.94807
4.94519
4.947
4914.83
4914.79
4914.8
4914.85
4914.88
4914.86
4914.87
4914.82
4914.85
4914.8
4914.83
4914.82
14724.8
14724.8
14724.8
14724.8
14724.8
14724.8
14724.8
14724.8
14724.8
14724.8
14724.8
14724.8
24534.8
24534.8
24534.8
24534.8
24534.8
24534.8
24534.8
24534.8
24534.8
24534.8
24534.8
24534.8
24534.8
24534.8
24534.8
24534.8
4.94371
4.94378
4.9443
4.9441
4.94379
4.94363
4.94432
4.94385
4.94392
4.94307
4.94373
4.94461
4.94548
4.94465
4.94487
4.94562
4.94492
4.94626
4.9459
4.94579
4914.82
4914.84
4914.78
4914.83
4914.8
4914.82
4914.87
4914.83
4914.83
4914.79
4914.81
4914.84
4914.85
4914.82
4914.82
4914.88
4914.83
4914.88
4914.87
4914.82
14724.8
14724.8
14724.8
14724.8
14724.8
14724.8
14724.8
14724.8
14724.8
14724.8
14724.8
14724.8
14724.8
14724.8
14724.8
14724.8
14724.8
14724.8
14724.8
14724.8
24534.8
24534.8
24534.8
24534.8
24534.8
24534.8
24534.8
24534.8
24534.8
24534.8
24534.8
24534.8
24534.8
24534.8
24534.8
24534.8
24534.8
24534.8
24534.8
24534.8
34344.8
34344.8
34344.8
34344.8
34344.8
34344.8
34344.8
34344.8
34344.8
34344.8
34344.8
34344.8
34344.8
34344.8
34344.8
34344.8
34344.8
34344.8
34344.8
34344.8
34344.8
34344.8
34344.8
34344.8
34344.8
34344.8
34344.8
34344.8
34344.8
34344.8
34344.8
34344.8
34344.8
34344.8
34344.8
34344.8
4.94453
4.94386
4.94354
4.9447
4.94404
4.94372
4.94427
4.94398
4.94405
4.94546
4.94505
4.94359
4.94318
4.94391
4.94428
4.94495
4.9453
4.94528
4.94502
4.9443
4.94387
4.94472
4.94582
4.94629
4.94582
4.94593
4.94442
4.94398
4914.79
4914.83
4914.83
4914.81
4914.86
4914.86
4914.84
4914.83
4914.87
4914.9
4914.83
4914.77
4914.8
4914.8
4914.84
4914.82
4914.79
4914.86
4914.88
4914.84
4914.83
4914.81
4914.84
4914.88
4914.87
4914.83
4914.79
4914.78
14724.8
14724.8
14724.8
14724.8
14724.8
14724.8
14724.8
14724.8
14724.8
14724.8
14724.8
14724.8
14724.8
14724.8
14724.8
14724.8
14724.8
14724.8
14724.8
14724.8
14724.8
14724.8
14724.8
14724.8
14724.8
14724.8
14724.8
14724.8
24534.8
24534.8
24534.8
24534.8
24534.8
24534.8
24534.8
24534.8
24534.8
24534.8
24534.8
24534.8
24534.8
24534.8
24534.8
24534.8
24534.8
24534.8
24534.8
24534.8
24534.8
24534.8
24534.8
24534.8
24534.8
24534.8
24534.8
24534.8
34344.8
34344.8
34344.8
34344.8
34344.8
34344.8
34344.8
34344.8
34344.8
34344.8
34344.8
34344.8
34344.8
34344.8
34344.8
34344.8
34344.8
34344.8
34344.8
34344.8
34344.8
34344.8
34344.8
34344.8
34344.8
34344.8
34344.8
34344.8
4.945
4.94509
4.94562
4.94509
4914.82
4914.8
4914.83
4914.88
)
;

boundaryField
{
    top_fluid_surface
    {
        type            calculated;
        value           nonuniform List<scalar> 
64
(
-2.96982e-09
0
0
-1.94421e-09
-1.41009e-09
-7.44883e-09
-4.86681e-09
0
-7.32235e-09
-7.44132e-10
0
0
0
-7.19037e-10
0
-1.57813e-10
0
0
-9.05352e-10
0
-6.15537e-10
0
0
0
-6.76461e-09
0
0
-1.08597e-09
0
-1.17724e-09
-6.70014e-09
0
0
0
-1.1078e-11
0
-8.59443e-10
-4.33174e-09
-9.56278e-10
-4.06631e-10
-1.51662e-09
-3.53758e-08
-6.86847e-09
0
0
0
-5.55628e-09
0
0
-5.45472e-10
-2.58948e-08
-7.15499e-11
-9.28683e-10
0
0
-3.99986e-08
-6.53237e-09
0
0
0
-2.59179e-11
0
0
-2.22333e-10
)
;
    }
    bottom_fluid_surface
    {
        type            calculated;
        value           nonuniform List<scalar> 
64
(
39249.8
39249.8
39249.8
39249.8
39249.8
39249.8
39249.8
39249.8
39249.8
39249.8
39249.8
39249.8
39249.8
39249.8
39249.8
39249.8
39249.8
39249.8
39249.8
39249.8
39249.8
39249.8
39249.8
39249.8
39249.8
39249.8
39249.8
39249.8
39249.8
39249.8
39249.8
39249.8
39249.8
39249.8
39249.8
39249.8
39249.8
39249.8
39249.8
39249.8
39249.8
39249.8
39249.8
39249.8
39249.8
39249.8
39249.8
39249.8
39249.8
39249.8
39249.8
39249.8
39249.8
39249.8
39249.8
39249.8
39249.8
39249.8
39249.8
39249.8
39249.8
39249.8
39249.8
39249.8
)
;
    }
    lateral_surface_1
    {
        type            calculated;
        value           nonuniform List<scalar> 
40
(
4.94453
4.94386
4.94354
4.9447
4.94404
4.94372
4.94427
4.94398
4914.79
4914.83
4914.83
4914.81
4914.86
4914.86
4914.84
4914.78
14724.8
14724.8
14724.8
14724.8
14724.8
14724.8
14724.8
14724.8
24534.8
24534.8
24534.8
24534.8
24534.8
24534.8
24534.8
24534.8
34344.8
34344.8
34344.8
34344.8
34344.8
34344.8
34344.8
34344.8
)
;
    }
    lateral_surface_2
    {
        type            calculated;
        value           nonuniform List<scalar> 
40
(
4.94391
4.94428
4.94495
4.9453
4.94528
4.94502
4.9443
4.94387
4914.8
4914.84
4914.82
4914.79
4914.86
4914.88
4914.84
4914.83
14724.8
14724.8
14724.8
14724.8
14724.8
14724.8
14724.8
14724.8
24534.8
24534.8
24534.8
24534.8
24534.8
24534.8
24534.8
24534.8
34344.8
34344.8
34344.8
34344.8
34344.8
34344.8
34344.8
34344.8
)
;
    }
    lateral_surface_3
    {
        type            calculated;
        value           nonuniform List<scalar> 
40
(
4.94427
4.94398
4.94405
4.94546
4.94505
4.94359
4.94318
4.94391
4914.84
4914.83
4914.87
4914.9
4914.83
4914.77
4914.8
4914.8
14724.8
14724.8
14724.8
14724.8
14724.8
14724.8
14724.8
14724.8
24534.8
24534.8
24534.8
24534.8
24534.8
24534.8
24534.8
24534.8
34344.8
34344.8
34344.8
34344.8
34344.8
34344.8
34344.8
34344.8
)
;
    }
    lateral_surface_4
    {
        type            calculated;
        value           nonuniform List<scalar> 
40
(
4.94387
4.94472
4.94582
4.94629
4.94582
4.94593
4.94442
4.94398
4914.83
4914.81
4914.84
4914.88
4914.87
4914.83
4914.79
4914.78
14724.8
14724.8
14724.8
14724.8
14724.8
14724.8
14724.8
14724.8
24534.8
24534.8
24534.8
24534.8
24534.8
24534.8
24534.8
24534.8
34344.8
34344.8
34344.8
34344.8
34344.8
34344.8
34344.8
34344.8
)
;
    }
}


// ************************************************************************* //
