/*--------------------------------*- C++ -*----------------------------------*\
| =========                 |                                                 |
| \\      /  F ield         | OpenFOAM: The Open Source CFD Toolbox           |
|  \\    /   O peration     | Version:  v1612+                                |
|   \\  /    A nd           | Web:      www.OpenFOAM.com                      |
|    \\/     M anipulation  |                                                 |
\*---------------------------------------------------------------------------*/
FoamFile
{
    version     2.0;
    format      ascii;
    class       volScalarField;
    location    "3.35";
    object      p_rgh;
}
// * * * * * * * * * * * * * * * * * * * * * * * * * * * * * * * * * * * * * //

dimensions      [1 -1 -2 0 0 0 0];

internalField   nonuniform List<scalar> 
320
(
-9800.21
-9800.2
-9800.19
-9800.19
0.000838821
-0.00109437
-0.0057928
-4.47948e-07
0.00135221
-0.00580569
-0.000768163
0.00136245
-0.00916013
-0.00698106
-0.000200404
0.00128345
-9800.01
-9800.04
-9800.01
-9800.01
-9800.06
-9799.99
-9800.03
-9800.07
-9799.96
-9799.95
-9800.1
-9800
-9800.23
-9800.21
-9800.2
-9800.21
-9800.2
-9800.21
-9800.2
-9800.2
-9800.2
-9800.2
-9800.21
-9800.21
-9800.21
-9800.21
-9800.2
-9800.2
-9800.22
-9800.21
-9800.21
-9800.21
-9800.2
-9800.21
-9800.2
-9800.2
-9800.2
-9800.21
-9800.21
-9800.21
0.00518528
-0.00142011
0.0019521
0.00244906
0.00427778
0.00835223
0.00156675
0.0101952
0.00285796
0.00397952
0.00253513
0.00201719
-0.00701432
0.00331293
-0.000339171
-0.00088334
0.00186052
-0.00508606
-0.000593539
0.00373085
-9800.1
-9799.98
-9800.04
-9800.02
-9800.09
-9800.13
-9800.08
-9800.17
-9800.03
-9800.05
-9800.07
-9800.12
-9799.97
-9800.1
-9800.08
-9800.05
-9800.1
-9800.09
-9800.01
-9800.1
-9800.22
-9800.22
-9800.22
-9800.22
-9800.22
-9800.21
-9800.21
-9800.21
-9800.23
-9800.23
-9800.21
-9800.2
-9800.2
-9800.2
-9800.2
-9800.19
-9800.2
-9800.21
-9800.21
-9800.21
-9800.21
-9800.22
-9800.22
-9800.22
-9800.22
-9800.21
-9800.21
-9800.21
-9800.22
-9800.22
-9800.21
-9800.2
-9800.21
-9800.2
-9800.2
-9800.19
-9800.2
-9800.2
-9800.21
-9800.21
-9800.21
-9800.21
-9800.2
-9800.2
-9800.21
-9800.21
-9800.21
-9800.21
-9800.21
-9800.21
-9800.2
-9800.2
-9800.2
-9800.2
-9800.21
-9800.21
-9800.21
-9800.22
-9800.22
-9800.22
-9800.21
-9800.21
-9800.21
-9800.21
-9800.21
-9800.21
-9800.21
-9800.2
-9800.2
-9800.2
-9800.2
-9800.2
-9800.2
-9800.2
-9800.21
-9800.21
-0.000248343
0.00307662
-0.00600415
0.0101208
0.00589571
-0.000453184
-0.00523889
0.000197829
0.00176333
-0.0145252
-0.00805736
0.00687379
0.00899958
0.003809
-0.00162292
-0.000291512
-0.00402696
-0.00233011
-0.00807221
-0.000669548
-0.001863
0.000375201
-0.0018607
-0.0127442
-0.00196583
-0.000878238
0.00289759
0.00714281
-9800.04
-9800.13
-9799.98
-9800.12
-9800.08
-9800.01
-9799.99
-9800.03
-9800.08
-9799.99
-9799.94
-9800.03
-9800.09
-9800.09
-9799.97
-9800.05
-9800
-9800.04
-9799.99
-9800.04
-9799.95
-9800.08
-9800.07
-9799.95
-9800.02
-9800.05
-9800.05
-9800.05
-9800.22
-9800.21
-9800.21
-9800.21
-9800.22
-9800.21
-9800.21
-9800.23
-9800.22
-9800.21
-9800.21
-9800.23
-9800.23
-9800.22
-9800.22
-9800.2
-9800.2
-9800.2
-9800.21
-9800.22
-9800.21
-9800.2
-9800.18
-9800.2
-9800.2
-9800.2
-9800.21
-9800.22
-9800.22
-9800.21
-9800.22
-9800.22
-9800.22
-9800.21
-9800.21
-9800.22
-9800.21
-9800.2
-9800.21
-9800.22
-9800.22
-9800.22
-9800.22
-9800.21
-9800.21
-9800.2
-9800.2
-9800.21
-9800.21
-9800.2
-9800.19
-9800.2
-9800.2
-9800.2
-9800.22
-9800.22
-9800.22
-9800.21
-9800.22
-9800.21
-9800.22
-9800.21
-9800.21
-9800.22
-9800.21
-9800.21
-9800.21
-9800.22
-9800.22
-9800.21
-9800.21
-9800.21
-9800.2
-9800.2
-9800.2
-9800.2
-9800.21
-9800.2
-9800.2
-9800.2
-9800.2
-9800.21
-9800.21
-9800.22
-0.00274237
0.00348287
0.000542955
0.000218287
-9799.97
-9800.1
-9800.12
-9800.06
)
;

boundaryField
{
    top_fluid_surface
    {
        type            totalPressure;
        rho             rho;
        psi             none;
        gamma           1;
        p0              uniform 0;
        value           nonuniform List<scalar> 
64
(
0
-2.68765e-13
-3.87003e-09
-4.77719e-10
0
-9.49836e-09
-1.44137e-09
0
-1.74752e-08
-8.30124e-09
0
-3.1355e-10
0
-8.80761e-10
0
0
0
0
0
0
0
0
0
0
-1.06972e-08
0
0
-4.82862e-10
0
0
-9.34148e-10
0
0
0
-3.42276e-09
0
0
-1.21422e-09
-5.14262e-09
0
0
-4.96817e-08
-1.60161e-08
0
0
0
-2.07712e-09
-3.0034e-11
-2.30683e-10
-3.90815e-10
-1.81438e-08
0
-1.29407e-09
0
-3.9471e-11
-4.48685e-08
-3.3416e-09
-1.90189e-10
0
0
-4.3296e-10
0
0
-1.55009e-10
)
;
    }
    bottom_fluid_surface
    {
        type            fixedFluxPressure;
        gradient        uniform 0;
        value           nonuniform List<scalar> 
64
(
-9800.21
-9800.21
-9800.2
-9800.2
-9800.21
-9800.21
-9800.21
-9800.21
-9800.21
-9800.21
-9800.2
-9800.2
-9800.2
-9800.2
-9800.21
-9800.21
-9800.21
-9800.22
-9800.22
-9800.22
-9800.21
-9800.21
-9800.21
-9800.21
-9800.21
-9800.21
-9800.21
-9800.2
-9800.2
-9800.2
-9800.2
-9800.2
-9800.2
-9800.2
-9800.21
-9800.21
-9800.22
-9800.21
-9800.22
-9800.21
-9800.22
-9800.21
-9800.21
-9800.22
-9800.21
-9800.21
-9800.21
-9800.22
-9800.22
-9800.21
-9800.21
-9800.21
-9800.2
-9800.2
-9800.2
-9800.2
-9800.21
-9800.2
-9800.2
-9800.2
-9800.2
-9800.21
-9800.21
-9800.22
)
;
    }
    lateral_surface_1
    {
        type            fixedFluxPressure;
        gradient        uniform 0;
        value           nonuniform List<scalar> 
40
(
-0.000248343
0.00307662
-0.00600415
0.0101208
0.00589571
-0.000453184
-0.00523889
0.00714281
-9800.04
-9800.13
-9799.98
-9800.12
-9800.08
-9800.01
-9799.99
-9800.05
-9800.22
-9800.21
-9800.21
-9800.21
-9800.22
-9800.21
-9800.21
-9800.22
-9800.22
-9800.21
-9800.22
-9800.22
-9800.22
-9800.21
-9800.21
-9800.22
-9800.22
-9800.21
-9800.22
-9800.21
-9800.22
-9800.21
-9800.21
-9800.22
)
;
    }
    lateral_surface_2
    {
        type            fixedFluxPressure;
        gradient        uniform 0;
        value           nonuniform List<scalar> 
40
(
0.003809
-0.00162292
-0.000291512
-0.00402696
-0.00233011
-0.00807221
-0.000669548
-0.001863
-9800.09
-9799.97
-9800.05
-9800
-9800.04
-9799.99
-9800.04
-9799.95
-9800.22
-9800.22
-9800.2
-9800.2
-9800.2
-9800.21
-9800.22
-9800.21
-9800.22
-9800.22
-9800.21
-9800.21
-9800.2
-9800.2
-9800.21
-9800.21
-9800.21
-9800.21
-9800.21
-9800.2
-9800.2
-9800.2
-9800.2
-9800.21
)
;
    }
    lateral_surface_3
    {
        type            fixedFluxPressure;
        gradient        uniform 0;
        value           nonuniform List<scalar> 
40
(
-0.00523889
0.000197829
0.00176333
-0.0145252
-0.00805736
0.00687379
0.00899958
0.003809
-9799.99
-9800.03
-9800.08
-9799.99
-9799.94
-9800.03
-9800.09
-9800.09
-9800.21
-9800.23
-9800.22
-9800.21
-9800.21
-9800.23
-9800.23
-9800.22
-9800.21
-9800.22
-9800.21
-9800.2
-9800.21
-9800.22
-9800.22
-9800.22
-9800.21
-9800.22
-9800.21
-9800.21
-9800.21
-9800.22
-9800.22
-9800.21
)
;
    }
    lateral_surface_4
    {
        type            fixedFluxPressure;
        gradient        uniform 0;
        value           nonuniform List<scalar> 
40
(
-0.001863
0.000375201
-0.0018607
-0.0127442
-0.00196583
-0.000878238
0.00289759
0.00714281
-9799.95
-9800.08
-9800.07
-9799.95
-9800.02
-9800.05
-9800.05
-9800.05
-9800.21
-9800.2
-9800.18
-9800.2
-9800.2
-9800.2
-9800.21
-9800.22
-9800.21
-9800.2
-9800.19
-9800.2
-9800.2
-9800.2
-9800.22
-9800.22
-9800.21
-9800.2
-9800.2
-9800.2
-9800.2
-9800.21
-9800.21
-9800.22
)
;
    }
}


// ************************************************************************* //
