/*--------------------------------*- C++ -*----------------------------------*\
| =========                 |                                                 |
| \\      /  F ield         | OpenFOAM: The Open Source CFD Toolbox           |
|  \\    /   O peration     | Version:  v1612+                                |
|   \\  /    A nd           | Web:      www.OpenFOAM.com                      |
|    \\/     M anipulation  |                                                 |
\*---------------------------------------------------------------------------*/
FoamFile
{
    version     2.0;
    format      ascii;
    class       volScalarField;
    location    "6.85";
    object      alpha.water;
}
// * * * * * * * * * * * * * * * * * * * * * * * * * * * * * * * * * * * * * //

dimensions      [0 0 0 0 0 0 0];

internalField   nonuniform List<scalar> 
320
(
1
1
1
1
1.65244e-05
1.63219e-05
1.70273e-05
1.67289e-05
1.63557e-05
1.68926e-05
1.88185e-05
1.89577e-05
1.68755e-05
1.59791e-05
1.47785e-05
1.63381e-05
0.999979
0.999988
0.999988
0.999985
0.999983
0.999981
0.999981
0.99998
0.99998
0.999983
0.999992
0.99998
1
1
1
1
1
1
1
1
1
1
1
1
1
1
1
1
1
1
1
1
1
1
1
1
1
1
1
1
1.63713e-05
1.6227e-05
1.50717e-05
1.71564e-05
1.33069e-05
1.35324e-05
1.42742e-05
1.31573e-05
1.6394e-05
1.57079e-05
1.32121e-05
1.29332e-05
1.66507e-05
1.5669e-05
1.42163e-05
1.43552e-05
1.49778e-05
1.63323e-05
1.58817e-05
1.54183e-05
0.999983
0.999978
0.999988
0.999981
0.999991
0.999992
0.999993
0.999993
0.999982
0.999986
0.999992
0.999993
0.999982
0.999991
0.999991
0.999991
0.999992
0.999984
0.999983
0.99999
1
1
1
1
1
1
1
1
1
1
1
1
1
1
1
1
1
1
1
1
1
1
1
1
1
1
1
1
1
1
1
1
1
1
1
1
1
1
1
1
1
1
1
1
1
1
1
1
1
1
1
1
1
1
1
1
1
1
1
1
1
1
1
1
1
1
1
1
1
1
1
1
1
1
1
1
1.65836e-05
1.75632e-05
1.69422e-05
1.40777e-05
1.49117e-05
1.48457e-05
1.73853e-05
1.69168e-05
1.46234e-05
1.76464e-05
1.74148e-05
1.62313e-05
1.70049e-05
1.60273e-05
1.55805e-05
1.59045e-05
1.71177e-05
1.62406e-05
1.7037e-05
1.76956e-05
1.68726e-05
1.74051e-05
1.60036e-05
1.65565e-05
1.71724e-05
1.76029e-05
1.77795e-05
2.07775e-05
0.999982
0.999981
0.99998
0.999988
0.999984
0.999983
0.999975
0.999982
0.999984
0.999978
0.999981
0.999982
0.999977
0.999984
0.99998
0.999978
0.999976
0.999985
0.999984
0.999979
0.999978
0.999979
0.999982
0.999982
0.999984
0.99998
0.999981
0.999978
1
1
1
1
1
1
1
1
1
1
1
1
1
1
1
1
1
1
1
1
1
1
1
1
1
1
1
1
1
1
1
1
1
1
1
1
1
1
1
1
1
1
1
1
1
1
1
1
1
1
1
1
1
1
1
1
1
1
1
1
1
1
1
1
1
1
1
1
1
1
1
1
1
1
1
1
1
1
1
1
1
1
1
1
1.83281e-05
1.75593e-05
1.65365e-05
1.69283e-05
0.999981
0.999983
0.999985
0.999986
)
;

boundaryField
{
    top_fluid_surface
    {
        type            inletOutlet;
        inletValue      uniform 0;
        value           nonuniform List<scalar> 
64
(
0
0
0
0
0
0
0
0
0
1.59791e-05
1.47785e-05
0
1.63713e-05
0
1.50717e-05
0
1.33069e-05
1.35324e-05
1.42742e-05
1.31573e-05
0
1.57079e-05
1.32121e-05
1.29332e-05
0
1.5669e-05
1.42163e-05
1.43552e-05
1.49778e-05
0
0
1.54183e-05
0
0
0
1.40777e-05
1.49117e-05
1.48457e-05
0
0
1.46234e-05
0
0
0
0
1.60273e-05
1.55805e-05
0
1.71177e-05
0
0
0
0
1.74051e-05
0
0
0
0
0
0
0
0
0
0
)
;
    }
    bottom_fluid_surface
    {
        type            zeroGradient;
    }
    lateral_surface_1
    {
        type            zeroGradient;
    }
    lateral_surface_2
    {
        type            zeroGradient;
    }
    lateral_surface_3
    {
        type            zeroGradient;
    }
    lateral_surface_4
    {
        type            zeroGradient;
    }
}


// ************************************************************************* //
